<?xml version="1.0"?> 
<VTKFile type="StructuredGrid" version="0.1"> 
<StructuredGrid WholeExtent="0 127 0 127 0 0"> 
<Piece Extent="0 127 0 127 0 0"> 
<PointData>
<DataArray type="Float32" Name="E" format="ascii" NumberOfComponents="3"> 
-1.51766e+06 0 0 -1.51661e+06 11142.7 0 -1.51569e+06 22317.2 0 -1.5149e+06 33527.9 0 -1.51424e+06 44778.8 0 -1.51372e+06 56074 0 -1.51331e+06 67417.5 0 -1.51304e+06 78813 0 -1.51288e+06 90264.4 0 -1.51285e+06 101775 0 -1.51293e+06 113349 0 -1.51312e+06 124989 0 -1.51343e+06 136698 0 -1.51384e+06 148480 0 -1.51436e+06 160337 0 -1.51498e+06 172273 0 -1.5157e+06 184289 0 -1.51652e+06 196389 0 -1.51742e+06 208575 0 -1.51842e+06 220848 0 -1.5195e+06 233211 0 -1.52066e+06 245665 0 -1.52189e+06 258213 0 -1.5232e+06 270855 0 -1.52458e+06 283593 0 -1.52603e+06 296428 0 -1.52754e+06 309361 0 -1.5291e+06 322393 0 -1.53073e+06 335524 0 -1.5324e+06 348755 0 -1.53412e+06 362085 0 -1.53588e+06 375516 0 -1.53768e+06 389046 0 -1.53952e+06 402677 0 -1.54139e+06 416406 0 -1.54329e+06 430234 0 -1.54522e+06 444160 0 -1.54716e+06 458184 0 -1.54913e+06 472304 0 -1.55111e+06 486519 0 -1.55311e+06 500827 0 -1.55512e+06 515229 0 -1.55713e+06 529722 0 -1.55915e+06 544304 0 -1.56117e+06 558974 0 -1.56319e+06 573731 0 -1.5652e+06 588572 0 -1.56721e+06 603495 0 -1.56922e+06 618499 0 -1.57121e+06 633582 0 -1.57319e+06 648741 0 -1.57516e+06 663974 0 -1.57711e+06 679280 0 -1.57904e+06 694655 0 -1.58096e+06 710097 0 -1.58285e+06 725604 0 -1.58473e+06 741175 0 -1.58658e+06 756805 0 -1.58841e+06 772494 0 -1.59021e+06 788237 0 -1.59199e+06 804034 0 -1.59375e+06 819882 0 -1.59547e+06 835777 0 -1.59717e+06 851717 0 -1.59885e+06 867701 0 -1.60049e+06 883725 0 -1.60211e+06 899787 0 -1.6037e+06 915885 0 -1.60526e+06 932015 0 -1.60679e+06 948176 0 -1.6083e+06 964365 0 -1.60978e+06 980579 0 -1.61123e+06 996816 0 -1.61265e+06 1.01307e+06 0 -1.61405e+06 1.02935e+06 0 -1.61543e+06 1.04564e+06 0 -1.61678e+06 1.06194e+06 0 -1.61811e+06 1.07826e+06 0 -1.61941e+06 1.09458e+06 0 -1.62069e+06 1.11091e+06 0 -1.62196e+06 1.12724e+06 0 -1.6232e+06 1.14358e+06 0 -1.62443e+06 1.15991e+06 0 -1.62565e+06 1.17624e+06 0 -1.62684e+06 1.19256e+06 0 -1.62803e+06 1.20887e+06 0 -1.62921e+06 1.22518e+06 0 -1.63037e+06 1.24147e+06 0 -1.63153e+06 1.25774e+06 0 -1.63269e+06 1.274e+06 0 -1.63384e+06 1.29024e+06 0 -1.635e+06 1.30646e+06 0 -1.63616e+06 1.32266e+06 0 -1.63732e+06 1.33882e+06 0 -1.63849e+06 1.35497e+06 0 -1.63967e+06 1.37108e+06 0 -1.64087e+06 1.38716e+06 0 -1.64208e+06 1.40321e+06 0 -1.64331e+06 1.41922e+06 0 -1.64457e+06 1.43519e+06 0 -1.64586e+06 1.45113e+06 0 -1.64717e+06 1.46702e+06 0 -1.64852e+06 1.48288e+06 0 -1.64992e+06 1.49869e+06 0 -1.65135e+06 1.51445e+06 0 -1.65283e+06 1.53017e+06 0 -1.65437e+06 1.54584e+06 0 -1.65596e+06 1.56147e+06 0 -1.65761e+06 1.57704e+06 0 -1.65933e+06 1.59256e+06 0 -1.66113e+06 1.60803e+06 0 -1.663e+06 1.62345e+06 0 -1.66496e+06 1.63881e+06 0 -1.667e+06 1.65412e+06 0 -1.66914e+06 1.66938e+06 0 -1.67138e+06 1.68458e+06 0 -1.67374e+06 1.69973e+06 0 -1.6762e+06 1.71483e+06 0 -1.67879e+06 1.72987e+06 0 -1.68151e+06 1.74486e+06 0 -1.68437e+06 1.7598e+06 0 -1.68737e+06 1.77469e+06 0 -1.69052e+06 1.78953e+06 0 -1.69384e+06 1.80433e+06 0 -1.69732e+06 1.81908e+06 0 -1.70098e+06 1.83378e+06 0 -1.70483e+06 1.84845e+06 0 -1.70889e+06 1.86308e+06 0 -1.50837e+06 0 0 -1.50731e+06 11313.4 0 -1.50639e+06 22657.8 0 -1.50559e+06 34037.3 0 -1.50492e+06 45456.1 0 -1.50438e+06 56918 0 -1.50397e+06 68427.1 0 -1.50368e+06 79987 0 -1.5035e+06 91601.4 0 -1.50345e+06 103274 0 -1.50351e+06 115008 0 -1.50368e+06 126807 0 -1.50396e+06 138673 0 -1.50435e+06 150611 0 -1.50484e+06 162623 0 -1.50544e+06 174711 0 -1.50612e+06 186878 0 -1.50691e+06 199127 0 -1.50778e+06 211460 0 -1.50874e+06 223879 0 -1.50979e+06 236385 0 -1.51091e+06 248982 0 -1.51211e+06 261669 0 -1.51338e+06 274450 0 -1.51472e+06 287324 0 -1.51613e+06 300293 0 -1.5176e+06 313359 0 -1.51913e+06 326521 0 -1.52071e+06 339780 0 -1.52234e+06 353138 0 -1.52402e+06 366593 0 -1.52574e+06 380146 0 -1.5275e+06 393797 0 -1.5293e+06 407546 0 -1.53113e+06 421392 0 -1.53299e+06 435335 0 -1.53487e+06 449375 0 -1.53678e+06 463510 0 -1.53871e+06 477739 0 -1.54065e+06 492062 0 -1.54261e+06 506477 0 -1.54458e+06 520982 0 -1.54655e+06 535578 0 -1.54853e+06 550261 0 -1.55052e+06 565031 0 -1.5525e+06 579885 0 -1.55448e+06 594823 0 -1.55646e+06 609841 0 -1.55843e+06 624939 0 -1.56039e+06 640113 0 -1.56234e+06 655363 0 -1.56428e+06 670686 0 -1.5662e+06 686079 0 -1.56811e+06 701542 0 -1.57e+06 717070 0 -1.57187e+06 732662 0 -1.57372e+06 748316 0 -1.57555e+06 764029 0 -1.57736e+06 779799 0 -1.57914e+06 795624 0 -1.5809e+06 811501 0 -1.58264e+06 827427 0 -1.58435e+06 843400 0 -1.58604e+06 859419 0 -1.5877e+06 875479 0 -1.58933e+06 891579 0 -1.59094e+06 907716 0 -1.59252e+06 923889 0 -1.59408e+06 940093 0 -1.59561e+06 956327 0 -1.59711e+06 972589 0 -1.59859e+06 988876 0 -1.60004e+06 1.00518e+06 0 -1.60147e+06 1.02151e+06 0 -1.60288e+06 1.03786e+06 0 -1.60426e+06 1.05422e+06 0 -1.60562e+06 1.0706e+06 0 -1.60696e+06 1.08698e+06 0 -1.60827e+06 1.10338e+06 0 -1.60957e+06 1.11977e+06 0 -1.61085e+06 1.13618e+06 0 -1.61212e+06 1.15258e+06 0 -1.61337e+06 1.16898e+06 0 -1.61461e+06 1.18538e+06 0 -1.61583e+06 1.20177e+06 0 -1.61705e+06 1.21816e+06 0 -1.61825e+06 1.23453e+06 0 -1.61946e+06 1.25089e+06 0 -1.62065e+06 1.26724e+06 0 -1.62185e+06 1.28357e+06 0 -1.62304e+06 1.29988e+06 0 -1.62424e+06 1.31617e+06 0 -1.62545e+06 1.33243e+06 0 -1.62666e+06 1.34868e+06 0 -1.62788e+06 1.36489e+06 0 -1.62912e+06 1.38108e+06 0 -1.63038e+06 1.39723e+06 0 -1.63165e+06 1.41335e+06 0 -1.63295e+06 1.42944e+06 0 -1.63428e+06 1.44549e+06 0 -1.63564e+06 1.46151e+06 0 -1.63703e+06 1.47748e+06 0 -1.63846e+06 1.49342e+06 0 -1.63994e+06 1.50931e+06 0 -1.64146e+06 1.52516e+06 0 -1.64303e+06 1.54096e+06 0 -1.64466e+06 1.55672e+06 0 -1.64636e+06 1.57244e+06 0 -1.64812e+06 1.5881e+06 0 -1.64995e+06 1.60372e+06 0 -1.65185e+06 1.61928e+06 0 -1.65384e+06 1.6348e+06 0 -1.65592e+06 1.65027e+06 0 -1.6581e+06 1.66568e+06 0 -1.66037e+06 1.68105e+06 0 -1.66275e+06 1.69637e+06 0 -1.66525e+06 1.71163e+06 0 -1.66786e+06 1.72685e+06 0 -1.67061e+06 1.74202e+06 0 -1.67349e+06 1.75714e+06 0 -1.67651e+06 1.77222e+06 0 -1.67968e+06 1.78725e+06 0 -1.68301e+06 1.80223e+06 0 -1.68651e+06 1.81718e+06 0 -1.69019e+06 1.83209e+06 0 -1.69405e+06 1.84696e+06 0 -1.6981e+06 1.8618e+06 0 -1.70236e+06 1.87661e+06 0 -1.49898e+06 0 0 -1.49792e+06 11482.3 0 -1.49699e+06 22994.7 0 -1.49619e+06 34541.3 0 -1.49552e+06 46126.1 0 -1.49496e+06 57753.1 0 -1.49454e+06 69426.1 0 -1.49423e+06 81148.7 0 -1.49404e+06 92924.6 0 -1.49397e+06 104757 0 -1.49401e+06 116650 0 -1.49416e+06 128606 0 -1.49441e+06 140629 0 -1.49478e+06 152721 0 -1.49524e+06 164885 0 -1.49581e+06 177125 0 -1.49647e+06 189442 0 -1.49722e+06 201838 0 -1.49806e+06 214317 0 -1.49899e+06 226881 0 -1.5e+06 239530 0 -1.50109e+06 252267 0 -1.50226e+06 265094 0 -1.50349e+06 278011 0 -1.5048e+06 291021 0 -1.50617e+06 304124 0 -1.5076e+06 317321 0 -1.50909e+06 330612 0 -1.51063e+06 344000 0 -1.51222e+06 357482 0 -1.51386e+06 371062 0 -1.51554e+06 384737 0 -1.51726e+06 398508 0 -1.51902e+06 412375 0 -1.52081e+06 426338 0 -1.52263e+06 440396 0 -1.52448e+06 454548 0 -1.52634e+06 468794 0 -1.52823e+06 483133 0 -1.53014e+06 497563 0 -1.53206e+06 512084 0 -1.53399e+06 526694 0 -1.53593e+06 541392 0 -1.53788e+06 556177 0 -1.53983e+06 571046 0 -1.54177e+06 585999 0 -1.54372e+06 601033 0 -1.54567e+06 616146 0 -1.5476e+06 631338 0 -1.54953e+06 646605 0 -1.55146e+06 661946 0 -1.55336e+06 677358 0 -1.55526e+06 692841 0 -1.55714e+06 708390 0 -1.55901e+06 724005 0 -1.56085e+06 739683 0 -1.56268e+06 755421 0 -1.56449e+06 771217 0 -1.56628e+06 787070 0 -1.56805e+06 802976 0 -1.56979e+06 818933 0 -1.57151e+06 834939 0 -1.57321e+06 850992 0 -1.57488e+06 867088 0 -1.57653e+06 883226 0 -1.57816e+06 899403 0 -1.57976e+06 915617 0 -1.58134e+06 931864 0 -1.58289e+06 948144 0 -1.58441e+06 964453 0 -1.58592e+06 980789 0 -1.5874e+06 997149 0 -1.58885e+06 1.01353e+06 0 -1.59028e+06 1.02993e+06 0 -1.5917e+06 1.04635e+06 0 -1.59309e+06 1.06279e+06 0 -1.59446e+06 1.07923e+06 0 -1.59581e+06 1.09569e+06 0 -1.59714e+06 1.11216e+06 0 -1.59846e+06 1.12863e+06 0 -1.59976e+06 1.1451e+06 0 -1.60104e+06 1.16157e+06 0 -1.60231e+06 1.17805e+06 0 -1.60358e+06 1.19452e+06 0 -1.60483e+06 1.21098e+06 0 -1.60607e+06 1.22744e+06 0 -1.60731e+06 1.24388e+06 0 -1.60855e+06 1.26031e+06 0 -1.60978e+06 1.27673e+06 0 -1.61102e+06 1.29314e+06 0 -1.61226e+06 1.30952e+06 0 -1.6135e+06 1.32588e+06 0 -1.61475e+06 1.34222e+06 0 -1.61602e+06 1.35854e+06 0 -1.6173e+06 1.37483e+06 0 -1.61859e+06 1.39109e+06 0 -1.61991e+06 1.40732e+06 0 -1.62125e+06 1.42353e+06 0 -1.62261e+06 1.43969e+06 0 -1.62401e+06 1.45582e+06 0 -1.62544e+06 1.47192e+06 0 -1.62691e+06 1.48798e+06 0 -1.62843e+06 1.504e+06 0 -1.62999e+06 1.51998e+06 0 -1.6316e+06 1.53591e+06 0 -1.63327e+06 1.55181e+06 0 -1.635e+06 1.56766e+06 0 -1.63679e+06 1.58346e+06 0 -1.63865e+06 1.59923e+06 0 -1.6406e+06 1.61494e+06 0 -1.64262e+06 1.63061e+06 0 -1.64473e+06 1.64623e+06 0 -1.64693e+06 1.66181e+06 0 -1.64923e+06 1.67733e+06 0 -1.65164e+06 1.69282e+06 0 -1.65416e+06 1.70825e+06 0 -1.6568e+06 1.72364e+06 0 -1.65957e+06 1.73899e+06 0 -1.66247e+06 1.75429e+06 0 -1.66551e+06 1.76955e+06 0 -1.6687e+06 1.78476e+06 0 -1.67204e+06 1.79994e+06 0 -1.67555e+06 1.81508e+06 0 -1.67924e+06 1.83019e+06 0 -1.6831e+06 1.84527e+06 0 -1.68716e+06 1.86031e+06 0 -1.69142e+06 1.87534e+06 0 -1.69588e+06 1.89034e+06 0 -1.48951e+06 0 0 -1.48845e+06 11649.4 0 -1.48751e+06 23328 0 -1.4867e+06 35040 0 -1.48602e+06 46789.3 0 -1.48546e+06 58579.6 0 -1.48502e+06 70414.8 0 -1.4847e+06 82298.6 0 -1.48449e+06 94234.3 0 -1.4844e+06 106226 0 -1.48442e+06 118276 0 -1.48455e+06 130388 0 -1.48478e+06 142565 0 -1.48512e+06 154810 0 -1.48556e+06 167126 0 -1.4861e+06 179515 0 -1.48673e+06 191980 0 -1.48746e+06 204524 0 -1.48827e+06 217148 0 -1.48917e+06 229854 0 -1.49015e+06 242645 0 -1.4912e+06 255522 0 -1.49233e+06 268487 0 -1.49353e+06 281541 0 -1.4948e+06 294685 0 -1.49614e+06 307920 0 -1.49753e+06 321248 0 -1.49898e+06 334668 0 -1.50049e+06 348183 0 -1.50204e+06 361791 0 -1.50364e+06 375493 0 -1.50528e+06 389290 0 -1.50697e+06 403181 0 -1.50869e+06 417166 0 -1.51044e+06 431245 0 -1.51222e+06 445418 0 -1.51403e+06 459683 0 -1.51586e+06 474039 0 -1.51771e+06 488487 0 -1.51958e+06 503025 0 -1.52147e+06 517652 0 -1.52336e+06 532366 0 -1.52527e+06 547167 0 -1.52718e+06 562053 0 -1.52909e+06 577022 0 -1.53101e+06 592072 0 -1.53293e+06 607203 0 -1.53484e+06 622412 0 -1.53675e+06 637698 0 -1.53865e+06 653058 0 -1.54054e+06 668490 0 -1.54242e+06 683993 0 -1.54429e+06 699565 0 -1.54615e+06 715202 0 -1.54799e+06 730904 0 -1.54982e+06 746667 0 -1.55162e+06 762491 0 -1.55341e+06 778371 0 -1.55518e+06 794307 0 -1.55693e+06 810295 0 -1.55866e+06 826334 0 -1.56037e+06 842420 0 -1.56205e+06 858552 0 -1.56372e+06 874728 0 -1.56536e+06 890944 0 -1.56697e+06 907199 0 -1.56857e+06 923490 0 -1.57014e+06 939814 0 -1.57169e+06 956170 0 -1.57321e+06 972554 0 -1.57471e+06 988965 0 -1.5762e+06 1.0054e+06 0 -1.57766e+06 1.02186e+06 0 -1.57909e+06 1.03833e+06 0 -1.58051e+06 1.05483e+06 0 -1.58191e+06 1.07133e+06 0 -1.58329e+06 1.08785e+06 0 -1.58466e+06 1.10438e+06 0 -1.58601e+06 1.12092e+06 0 -1.58734e+06 1.13747e+06 0 -1.58866e+06 1.15401e+06 0 -1.58997e+06 1.17056e+06 0 -1.59126e+06 1.18711e+06 0 -1.59255e+06 1.20365e+06 0 -1.59383e+06 1.22019e+06 0 -1.59511e+06 1.23671e+06 0 -1.59638e+06 1.25323e+06 0 -1.59765e+06 1.26974e+06 0 -1.59893e+06 1.28623e+06 0 -1.6002e+06 1.30271e+06 0 -1.60148e+06 1.31917e+06 0 -1.60278e+06 1.33561e+06 0 -1.60408e+06 1.35203e+06 0 -1.60539e+06 1.36842e+06 0 -1.60673e+06 1.38479e+06 0 -1.60808e+06 1.40113e+06 0 -1.60946e+06 1.41744e+06 0 -1.61086e+06 1.43372e+06 0 -1.6123e+06 1.44997e+06 0 -1.61377e+06 1.46619e+06 0 -1.61528e+06 1.48237e+06 0 -1.61683e+06 1.49851e+06 0 -1.61842e+06 1.51462e+06 0 -1.62007e+06 1.53069e+06 0 -1.62177e+06 1.54672e+06 0 -1.62353e+06 1.56271e+06 0 -1.62536e+06 1.57865e+06 0 -1.62726e+06 1.59456e+06 0 -1.62923e+06 1.61042e+06 0 -1.63128e+06 1.62624e+06 0 -1.63342e+06 1.64201e+06 0 -1.63565e+06 1.65774e+06 0 -1.63798e+06 1.67343e+06 0 -1.64041e+06 1.68908e+06 0 -1.64295e+06 1.70468e+06 0 -1.64561e+06 1.72024e+06 0 -1.6484e+06 1.73576e+06 0 -1.65131e+06 1.75124e+06 0 -1.65437e+06 1.76668e+06 0 -1.65757e+06 1.78208e+06 0 -1.66093e+06 1.79745e+06 0 -1.66444e+06 1.81279e+06 0 -1.66813e+06 1.82809e+06 0 -1.672e+06 1.84337e+06 0 -1.67606e+06 1.85862e+06 0 -1.68031e+06 1.87386e+06 0 -1.68477e+06 1.88907e+06 0 -1.68944e+06 1.90428e+06 0 -1.47995e+06 0 0 -1.47888e+06 11814.7 0 -1.47794e+06 23657.9 0 -1.47713e+06 35533.6 0 -1.47644e+06 47445.6 0 -1.47587e+06 59397.7 0 -1.47541e+06 71393.6 0 -1.47508e+06 83436.9 0 -1.47486e+06 95531.1 0 -1.47475e+06 107680 0 -1.47475e+06 119885 0 -1.47486e+06 132152 0 -1.47508e+06 144482 0 -1.47539e+06 156879 0 -1.47581e+06 169345 0 -1.47632e+06 181883 0 -1.47693e+06 194495 0 -1.47762e+06 207184 0 -1.47841e+06 219952 0 -1.47927e+06 232801 0 -1.48022e+06 245732 0 -1.48124e+06 258748 0 -1.48234e+06 271850 0 -1.48351e+06 285039 0 -1.48474e+06 298317 0 -1.48604e+06 311684 0 -1.4874e+06 325141 0 -1.48882e+06 338690 0 -1.49029e+06 352331 0 -1.4918e+06 366064 0 -1.49337e+06 379889 0 -1.49497e+06 393807 0 -1.49662e+06 407817 0 -1.4983e+06 421920 0 -1.50002e+06 436115 0 -1.50176e+06 450401 0 -1.50354e+06 464778 0 -1.50533e+06 479246 0 -1.50715e+06 493803 0 -1.50898e+06 508448 0 -1.51083e+06 523181 0 -1.51269e+06 537999 0 -1.51457e+06 552903 0 -1.51644e+06 567890 0 -1.51833e+06 582959 0 -1.52021e+06 598108 0 -1.5221e+06 613336 0 -1.52398e+06 628640 0 -1.52586e+06 644020 0 -1.52773e+06 659473 0 -1.5296e+06 674998 0 -1.53145e+06 690592 0 -1.5333e+06 706253 0 -1.53513e+06 721979 0 -1.53695e+06 737768 0 -1.53876e+06 753618 0 -1.54054e+06 769527 0 -1.54231e+06 785492 0 -1.54407e+06 801511 0 -1.5458e+06 817582 0 -1.54751e+06 833703 0 -1.54921e+06 849871 0 -1.55088e+06 866084 0 -1.55253e+06 882339 0 -1.55417e+06 898634 0 -1.55578e+06 914968 0 -1.55736e+06 931337 0 -1.55893e+06 947739 0 -1.56048e+06 964172 0 -1.562e+06 980633 0 -1.56351e+06 997120 0 -1.56499e+06 1.01363e+06 0 -1.56645e+06 1.03016e+06 0 -1.5679e+06 1.04672e+06 0 -1.56933e+06 1.06328e+06 0 -1.57074e+06 1.07987e+06 0 -1.57213e+06 1.09646e+06 0 -1.57351e+06 1.11307e+06 0 -1.57487e+06 1.12968e+06 0 -1.57622e+06 1.1463e+06 0 -1.57756e+06 1.16292e+06 0 -1.57889e+06 1.17954e+06 0 -1.58022e+06 1.19616e+06 0 -1.58153e+06 1.21278e+06 0 -1.58284e+06 1.22939e+06 0 -1.58415e+06 1.24599e+06 0 -1.58546e+06 1.26259e+06 0 -1.58677e+06 1.27917e+06 0 -1.58808e+06 1.29574e+06 0 -1.5894e+06 1.31229e+06 0 -1.59073e+06 1.32883e+06 0 -1.59206e+06 1.34535e+06 0 -1.59342e+06 1.36185e+06 0 -1.59479e+06 1.37832e+06 0 -1.59618e+06 1.39477e+06 0 -1.59759e+06 1.41119e+06 0 -1.59903e+06 1.42758e+06 0 -1.6005e+06 1.44395e+06 0 -1.60201e+06 1.46028e+06 0 -1.60355e+06 1.47659e+06 0 -1.60513e+06 1.49286e+06 0 -1.60676e+06 1.50909e+06 0 -1.60844e+06 1.52529e+06 0 -1.61018e+06 1.54145e+06 0 -1.61197e+06 1.55758e+06 0 -1.61383e+06 1.57366e+06 0 -1.61575e+06 1.58971e+06 0 -1.61775e+06 1.60572e+06 0 -1.61983e+06 1.62168e+06 0 -1.622e+06 1.63761e+06 0 -1.62425e+06 1.6535e+06 0 -1.6266e+06 1.66934e+06 0 -1.62906e+06 1.68515e+06 0 -1.63162e+06 1.70092e+06 0 -1.6343e+06 1.71665e+06 0 -1.6371e+06 1.73234e+06 0 -1.64003e+06 1.748e+06 0 -1.64309e+06 1.76362e+06 0 -1.64631e+06 1.7792e+06 0 -1.64967e+06 1.79476e+06 0 -1.65319e+06 1.81029e+06 0 -1.65688e+06 1.82579e+06 0 -1.66075e+06 1.84126e+06 0 -1.6648e+06 1.85672e+06 0 -1.66904e+06 1.87216e+06 0 -1.67349e+06 1.88759e+06 0 -1.67815e+06 1.90301e+06 0 -1.68303e+06 1.91843e+06 0 -1.4703e+06 0 0 -1.46924e+06 11978.4 0 -1.46829e+06 23984.5 0 -1.46747e+06 36022.3 0 -1.46677e+06 48095.5 0 -1.46619e+06 60207.7 0 -1.46573e+06 72362.8 0 -1.46538e+06 84564.1 0 -1.46515e+06 96815.2 0 -1.46502e+06 109119 0 -1.46501e+06 121480 0 -1.4651e+06 133899 0 -1.46529e+06 146381 0 -1.46559e+06 158929 0 -1.46598e+06 171544 0 -1.46647e+06 184229 0 -1.46705e+06 196987 0 -1.46772e+06 209821 0 -1.46847e+06 222731 0 -1.46931e+06 235721 0 -1.47022e+06 248792 0 -1.47122e+06 261946 0 -1.47228e+06 275184 0 -1.47342e+06 288507 0 -1.47462e+06 301917 0 -1.47589e+06 315416 0 -1.47721e+06 329003 0 -1.47859e+06 342679 0 -1.48003e+06 356445 0 -1.48151e+06 370302 0 -1.48304e+06 384250 0 -1.48461e+06 398288 0 -1.48622e+06 412417 0 -1.48787e+06 426637 0 -1.48955e+06 440948 0 -1.49126e+06 455348 0 -1.493e+06 469837 0 -1.49476e+06 484415 0 -1.49654e+06 499081 0 -1.49834e+06 513834 0 -1.50016e+06 528672 0 -1.50198e+06 543595 0 -1.50382e+06 558601 0 -1.50567e+06 573690 0 -1.50752e+06 588859 0 -1.50938e+06 604106 0 -1.51123e+06 619431 0 -1.51309e+06 634832 0 -1.51494e+06 650307 0 -1.51679e+06 665853 0 -1.51863e+06 681470 0 -1.52046e+06 697155 0 -1.52228e+06 712906 0 -1.52409e+06 728721 0 -1.52589e+06 744598 0 -1.52767e+06 760536 0 -1.52944e+06 776530 0 -1.53119e+06 792581 0 -1.53293e+06 808684 0 -1.53465e+06 824839 0 -1.53635e+06 841042 0 -1.53803e+06 857292 0 -1.53969e+06 873587 0 -1.54134e+06 889923 0 -1.54296e+06 906299 0 -1.54456e+06 922712 0 -1.54615e+06 939160 0 -1.54771e+06 955640 0 -1.54926e+06 972151 0 -1.55078e+06 988690 0 -1.55229e+06 1.00525e+06 0 -1.55378e+06 1.02184e+06 0 -1.55525e+06 1.03845e+06 0 -1.5567e+06 1.05508e+06 0 -1.55814e+06 1.07172e+06 0 -1.55956e+06 1.08838e+06 0 -1.56096e+06 1.10505e+06 0 -1.56236e+06 1.12173e+06 0 -1.56374e+06 1.13842e+06 0 -1.56511e+06 1.15512e+06 0 -1.56647e+06 1.17181e+06 0 -1.56783e+06 1.18851e+06 0 -1.56917e+06 1.20521e+06 0 -1.57052e+06 1.2219e+06 0 -1.57186e+06 1.23859e+06 0 -1.5732e+06 1.25527e+06 0 -1.57454e+06 1.27195e+06 0 -1.57589e+06 1.28861e+06 0 -1.57724e+06 1.30525e+06 0 -1.57861e+06 1.32189e+06 0 -1.57998e+06 1.3385e+06 0 -1.58137e+06 1.3551e+06 0 -1.58277e+06 1.37168e+06 0 -1.5842e+06 1.38824e+06 0 -1.58564e+06 1.40477e+06 0 -1.58712e+06 1.42127e+06 0 -1.58862e+06 1.43776e+06 0 -1.59016e+06 1.45421e+06 0 -1.59173e+06 1.47063e+06 0 -1.59335e+06 1.48702e+06 0 -1.59501e+06 1.50338e+06 0 -1.59672e+06 1.51971e+06 0 -1.59849e+06 1.53601e+06 0 -1.60031e+06 1.55226e+06 0 -1.60219e+06 1.56849e+06 0 -1.60415e+06 1.58468e+06 0 -1.60617e+06 1.60083e+06 0 -1.60828e+06 1.61694e+06 0 -1.61046e+06 1.63302e+06 0 -1.61274e+06 1.64906e+06 0 -1.61511e+06 1.66507e+06 0 -1.61759e+06 1.68103e+06 0 -1.62017e+06 1.69696e+06 0 -1.62286e+06 1.71286e+06 0 -1.62567e+06 1.72872e+06 0 -1.62861e+06 1.74455e+06 0 -1.63169e+06 1.76035e+06 0 -1.63491e+06 1.77612e+06 0 -1.63827e+06 1.79186e+06 0 -1.6418e+06 1.80758e+06 0 -1.64548e+06 1.82327e+06 0 -1.64934e+06 1.83894e+06 0 -1.65339e+06 1.8546e+06 0 -1.65762e+06 1.87024e+06 0 -1.66205e+06 1.88588e+06 0 -1.66669e+06 1.90151e+06 0 -1.67155e+06 1.91715e+06 0 -1.67664e+06 1.93279e+06 0 -1.46057e+06 0 0 -1.45951e+06 12140.5 0 -1.45856e+06 24307.9 0 -1.45774e+06 36506.2 0 -1.45703e+06 48738.9 0 -1.45644e+06 61009.9 0 -1.45597e+06 73322.6 0 -1.45561e+06 85680.5 0 -1.45536e+06 98087 0 -1.45522e+06 110545 0 -1.45519e+06 123059 0 -1.45526e+06 135630 0 -1.45543e+06 148263 0 -1.45571e+06 160959 0 -1.45608e+06 173722 0 -1.45654e+06 186554 0 -1.4571e+06 199457 0 -1.45774e+06 212433 0 -1.45847e+06 225486 0 -1.45928e+06 238616 0 -1.46016e+06 251825 0 -1.46113e+06 265116 0 -1.46216e+06 278489 0 -1.46327e+06 291946 0 -1.46444e+06 305488 0 -1.46567e+06 319117 0 -1.46696e+06 332832 0 -1.46831e+06 346635 0 -1.46971e+06 360527 0 -1.47116e+06 374507 0 -1.47265e+06 388577 0 -1.47419e+06 402735 0 -1.47577e+06 416983 0 -1.47738e+06 431320 0 -1.47903e+06 445745 0 -1.4807e+06 460259 0 -1.48241e+06 474860 0 -1.48414e+06 489549 0 -1.48589e+06 504323 0 -1.48765e+06 519183 0 -1.48944e+06 534127 0 -1.49123e+06 549155 0 -1.49304e+06 564264 0 -1.49486e+06 579454 0 -1.49668e+06 594723 0 -1.49851e+06 610069 0 -1.50033e+06 625492 0 -1.50216e+06 640989 0 -1.50399e+06 656558 0 -1.50581e+06 672199 0 -1.50762e+06 687908 0 -1.50943e+06 703685 0 -1.51123e+06 719526 0 -1.51302e+06 735431 0 -1.5148e+06 751397 0 -1.51656e+06 767421 0 -1.51831e+06 783503 0 -1.52005e+06 799639 0 -1.52177e+06 815828 0 -1.52348e+06 832067 0 -1.52517e+06 848354 0 -1.52684e+06 864687 0 -1.52849e+06 881063 0 -1.53012e+06 897481 0 -1.53174e+06 913938 0 -1.53334e+06 930431 0 -1.53492e+06 946959 0 -1.53648e+06 963519 0 -1.53803e+06 980109 0 -1.53955e+06 996727 0 -1.54106e+06 1.01337e+06 0 -1.54256e+06 1.03004e+06 0 -1.54403e+06 1.04672e+06 0 -1.54549e+06 1.06343e+06 0 -1.54694e+06 1.08015e+06 0 -1.54837e+06 1.09689e+06 0 -1.5498e+06 1.11364e+06 0 -1.55121e+06 1.13039e+06 0 -1.55261e+06 1.14716e+06 0 -1.554e+06 1.16393e+06 0 -1.55538e+06 1.18071e+06 0 -1.55676e+06 1.19748e+06 0 -1.55814e+06 1.21426e+06 0 -1.55951e+06 1.23103e+06 0 -1.56088e+06 1.2478e+06 0 -1.56226e+06 1.26456e+06 0 -1.56364e+06 1.28131e+06 0 -1.56502e+06 1.29805e+06 0 -1.56642e+06 1.31478e+06 0 -1.56782e+06 1.33149e+06 0 -1.56924e+06 1.34819e+06 0 -1.57068e+06 1.36487e+06 0 -1.57214e+06 1.38153e+06 0 -1.57362e+06 1.39817e+06 0 -1.57512e+06 1.41479e+06 0 -1.57666e+06 1.43139e+06 0 -1.57823e+06 1.44796e+06 0 -1.57983e+06 1.4645e+06 0 -1.58148e+06 1.48101e+06 0 -1.58317e+06 1.4975e+06 0 -1.58491e+06 1.51395e+06 0 -1.5867e+06 1.53038e+06 0 -1.58855e+06 1.54677e+06 0 -1.59046e+06 1.56313e+06 0 -1.59244e+06 1.57946e+06 0 -1.59449e+06 1.59575e+06 0 -1.59662e+06 1.61201e+06 0 -1.59882e+06 1.62824e+06 0 -1.60112e+06 1.64443e+06 0 -1.60351e+06 1.66059e+06 0 -1.606e+06 1.67672e+06 0 -1.60859e+06 1.69281e+06 0 -1.6113e+06 1.70887e+06 0 -1.61412e+06 1.72491e+06 0 -1.61707e+06 1.74091e+06 0 -1.62015e+06 1.75688e+06 0 -1.62338e+06 1.77283e+06 0 -1.62674e+06 1.78875e+06 0 -1.63026e+06 1.80465e+06 0 -1.63395e+06 1.82054e+06 0 -1.6378e+06 1.8364e+06 0 -1.64183e+06 1.85226e+06 0 -1.64605e+06 1.8681e+06 0 -1.65046e+06 1.88395e+06 0 -1.65508e+06 1.89979e+06 0 -1.65991e+06 1.91564e+06 0 -1.66497e+06 1.93149e+06 0 -1.67025e+06 1.94737e+06 0 -1.45076e+06 0 0 -1.4497e+06 12301 0 -1.44875e+06 24628.2 0 -1.44792e+06 36985.3 0 -1.44721e+06 49376.2 0 -1.44661e+06 61804.3 0 -1.44613e+06 74273.2 0 -1.44575e+06 86786.3 0 -1.44549e+06 99346.9 0 -1.44534e+06 111958 0 -1.44529e+06 124623 0 -1.44535e+06 137345 0 -1.4455e+06 150127 0 -1.44575e+06 162971 0 -1.4461e+06 175881 0 -1.44654e+06 188857 0 -1.44708e+06 201904 0 -1.44769e+06 215023 0 -1.44839e+06 228216 0 -1.44918e+06 241485 0 -1.45004e+06 254832 0 -1.45097e+06 268259 0 -1.45198e+06 281766 0 -1.45305e+06 295356 0 -1.45419e+06 309030 0 -1.4554e+06 322788 0 -1.45666e+06 336631 0 -1.45797e+06 350561 0 -1.45934e+06 364577 0 -1.46076e+06 378680 0 -1.46222e+06 392871 0 -1.46372e+06 407149 0 -1.46527e+06 421515 0 -1.46685e+06 435968 0 -1.46846e+06 450509 0 -1.4701e+06 465136 0 -1.47177e+06 479849 0 -1.47347e+06 494647 0 -1.47519e+06 509531 0 -1.47692e+06 524498 0 -1.47868e+06 539548 0 -1.48044e+06 554679 0 -1.48222e+06 569891 0 -1.48401e+06 585183 0 -1.4858e+06 600552 0 -1.4876e+06 615997 0 -1.4894e+06 631518 0 -1.4912e+06 647111 0 -1.493e+06 662776 0 -1.4948e+06 678511 0 -1.49659e+06 694313 0 -1.49838e+06 710182 0 -1.50016e+06 726114 0 -1.50192e+06 742109 0 -1.50368e+06 758164 0 -1.50543e+06 774277 0 -1.50717e+06 790446 0 -1.50889e+06 806668 0 -1.51059e+06 822943 0 -1.51229e+06 839267 0 -1.51396e+06 855638 0 -1.51562e+06 872055 0 -1.51727e+06 888514 0 -1.5189e+06 905014 0 -1.52051e+06 921553 0 -1.5221e+06 938128 0 -1.52368e+06 954737 0 -1.52524e+06 971378 0 -1.52679e+06 988048 0 -1.52832e+06 1.00475e+06 0 -1.52983e+06 1.02147e+06 0 -1.53133e+06 1.03821e+06 0 -1.53281e+06 1.05498e+06 0 -1.53428e+06 1.07176e+06 0 -1.53574e+06 1.08857e+06 0 -1.53719e+06 1.10538e+06 0 -1.53862e+06 1.12221e+06 0 -1.54005e+06 1.13904e+06 0 -1.54147e+06 1.15589e+06 0 -1.54288e+06 1.17274e+06 0 -1.54429e+06 1.18959e+06 0 -1.5457e+06 1.20645e+06 0 -1.5471e+06 1.2233e+06 0 -1.5485e+06 1.24016e+06 0 -1.54991e+06 1.257e+06 0 -1.55132e+06 1.27385e+06 0 -1.55273e+06 1.29068e+06 0 -1.55416e+06 1.3075e+06 0 -1.5556e+06 1.32431e+06 0 -1.55705e+06 1.34111e+06 0 -1.55852e+06 1.35789e+06 0 -1.56e+06 1.37466e+06 0 -1.56151e+06 1.39141e+06 0 -1.56305e+06 1.40814e+06 0 -1.56462e+06 1.42484e+06 0 -1.56621e+06 1.44153e+06 0 -1.56785e+06 1.45819e+06 0 -1.56952e+06 1.47482e+06 0 -1.57124e+06 1.49143e+06 0 -1.57301e+06 1.50801e+06 0 -1.57482e+06 1.52457e+06 0 -1.5767e+06 1.54109e+06 0 -1.57863e+06 1.55759e+06 0 -1.58063e+06 1.57405e+06 0 -1.5827e+06 1.59049e+06 0 -1.58485e+06 1.60689e+06 0 -1.58708e+06 1.62327e+06 0 -1.58939e+06 1.63961e+06 0 -1.5918e+06 1.65592e+06 0 -1.5943e+06 1.67221e+06 0 -1.59691e+06 1.68846e+06 0 -1.59962e+06 1.70469e+06 0 -1.60246e+06 1.72088e+06 0 -1.60541e+06 1.73706e+06 0 -1.60849e+06 1.7532e+06 0 -1.61172e+06 1.76933e+06 0 -1.61508e+06 1.78543e+06 0 -1.6186e+06 1.80152e+06 0 -1.62227e+06 1.81759e+06 0 -1.62611e+06 1.83364e+06 0 -1.63013e+06 1.84969e+06 0 -1.63433e+06 1.86574e+06 0 -1.63872e+06 1.88178e+06 0 -1.64331e+06 1.89783e+06 0 -1.64811e+06 1.91389e+06 0 -1.65313e+06 1.92996e+06 0 -1.65838e+06 1.94605e+06 0 -1.66387e+06 1.96218e+06 0 -1.44088e+06 0 0 -1.43981e+06 12459.9 0 -1.43886e+06 24945.3 0 -1.43802e+06 37460 0 -1.43731e+06 50007.5 0 -1.4367e+06 62591.4 0 -1.43621e+06 75215.1 0 -1.43583e+06 87881.9 0 -1.43555e+06 100595 0 -1.43539e+06 113358 0 -1.43532e+06 126174 0 -1.43536e+06 139045 0 -1.4355e+06 151975 0 -1.43573e+06 164966 0 -1.43606e+06 178020 0 -1.43648e+06 191141 0 -1.43699e+06 204330 0 -1.43758e+06 217590 0 -1.43826e+06 230923 0 -1.43902e+06 244331 0 -1.43985e+06 257814 0 -1.44076e+06 271376 0 -1.44174e+06 285017 0 -1.44278e+06 298739 0 -1.44389e+06 312543 0 -1.44506e+06 326430 0 -1.44629e+06 340401 0 -1.44758e+06 354456 0 -1.44891e+06 368596 0 -1.4503e+06 382822 0 -1.45173e+06 397134 0 -1.4532e+06 411531 0 -1.45471e+06 426015 0 -1.45626e+06 440584 0 -1.45785e+06 455239 0 -1.45946e+06 469979 0 -1.4611e+06 484803 0 -1.46276e+06 499712 0 -1.46445e+06 514704 0 -1.46615e+06 529778 0 -1.46788e+06 544934 0 -1.46962e+06 560170 0 -1.47136e+06 575485 0 -1.47312e+06 590878 0 -1.47489e+06 606348 0 -1.47666e+06 621892 0 -1.47844e+06 637511 0 -1.48021e+06 653201 0 -1.48199e+06 668962 0 -1.48376e+06 684791 0 -1.48553e+06 700687 0 -1.4873e+06 716648 0 -1.48906e+06 732672 0 -1.4908e+06 748757 0 -1.49255e+06 764901 0 -1.49428e+06 781103 0 -1.496e+06 797360 0 -1.4977e+06 813670 0 -1.4994e+06 830031 0 -1.50108e+06 846440 0 -1.50274e+06 862897 0 -1.5044e+06 879397 0 -1.50603e+06 895941 0 -1.50765e+06 912524 0 -1.50926e+06 929146 0 -1.51085e+06 945803 0 -1.51243e+06 962494 0 -1.51399e+06 979216 0 -1.51554e+06 995968 0 -1.51707e+06 1.01275e+06 0 -1.51859e+06 1.02955e+06 0 -1.52009e+06 1.04638e+06 0 -1.52159e+06 1.06322e+06 0 -1.52307e+06 1.08009e+06 0 -1.52454e+06 1.09697e+06 0 -1.526e+06 1.11386e+06 0 -1.52745e+06 1.13077e+06 0 -1.5289e+06 1.14769e+06 0 -1.53033e+06 1.16461e+06 0 -1.53177e+06 1.18154e+06 0 -1.5332e+06 1.19848e+06 0 -1.53463e+06 1.21542e+06 0 -1.53606e+06 1.23235e+06 0 -1.5375e+06 1.24929e+06 0 -1.53894e+06 1.26622e+06 0 -1.54038e+06 1.28314e+06 0 -1.54184e+06 1.30006e+06 0 -1.5433e+06 1.31696e+06 0 -1.54478e+06 1.33386e+06 0 -1.54628e+06 1.35075e+06 0 -1.5478e+06 1.36762e+06 0 -1.54934e+06 1.38447e+06 0 -1.5509e+06 1.40131e+06 0 -1.55249e+06 1.41812e+06 0 -1.55412e+06 1.43492e+06 0 -1.55578e+06 1.4517e+06 0 -1.55748e+06 1.46845e+06 0 -1.55922e+06 1.48519e+06 0 -1.56101e+06 1.50189e+06 0 -1.56286e+06 1.51857e+06 0 -1.56475e+06 1.53523e+06 0 -1.56671e+06 1.55186e+06 0 -1.56873e+06 1.56846e+06 0 -1.57082e+06 1.58504e+06 0 -1.57299e+06 1.60158e+06 0 -1.57523e+06 1.6181e+06 0 -1.57756e+06 1.63459e+06 0 -1.57998e+06 1.65106e+06 0 -1.58249e+06 1.6675e+06 0 -1.58511e+06 1.68391e+06 0 -1.58783e+06 1.70029e+06 0 -1.59067e+06 1.71666e+06 0 -1.59363e+06 1.733e+06 0 -1.59671e+06 1.74931e+06 0 -1.59993e+06 1.76561e+06 0 -1.60329e+06 1.78189e+06 0 -1.6068e+06 1.79816e+06 0 -1.61046e+06 1.81442e+06 0 -1.61429e+06 1.83066e+06 0 -1.61829e+06 1.8469e+06 0 -1.62247e+06 1.86314e+06 0 -1.62684e+06 1.87938e+06 0 -1.6314e+06 1.89563e+06 0 -1.63617e+06 1.9119e+06 0 -1.64115e+06 1.92818e+06 0 -1.64635e+06 1.94449e+06 0 -1.65179e+06 1.96083e+06 0 -1.65747e+06 1.97721e+06 0 -1.43091e+06 0 0 -1.42984e+06 12617.4 0 -1.42889e+06 25259.6 0 -1.42806e+06 37930.3 0 -1.42733e+06 50633 0 -1.42672e+06 63371.2 0 -1.42622e+06 76148.3 0 -1.42583e+06 88967.6 0 -1.42554e+06 101832 0 -1.42536e+06 114746 0 -1.42528e+06 127711 0 -1.42531e+06 140730 0 -1.42543e+06 153806 0 -1.42564e+06 166943 0 -1.42595e+06 180142 0 -1.42635e+06 193405 0 -1.42684e+06 206736 0 -1.42741e+06 220136 0 -1.42806e+06 233608 0 -1.42879e+06 247153 0 -1.4296e+06 260772 0 -1.43048e+06 274468 0 -1.43143e+06 288242 0 -1.43245e+06 302095 0 -1.43353e+06 316029 0 -1.43467e+06 330044 0 -1.43587e+06 344141 0 -1.43713e+06 358322 0 -1.43844e+06 372586 0 -1.43979e+06 386933 0 -1.44119e+06 401365 0 -1.44263e+06 415882 0 -1.44411e+06 430483 0 -1.44563e+06 445168 0 -1.44718e+06 459937 0 -1.44877e+06 474790 0 -1.45038e+06 489726 0 -1.45201e+06 504744 0 -1.45367e+06 519845 0 -1.45535e+06 535026 0 -1.45704e+06 550288 0 -1.45875e+06 565628 0 -1.46047e+06 581046 0 -1.4622e+06 596541 0 -1.46394e+06 612111 0 -1.46569e+06 627755 0 -1.46744e+06 643472 0 -1.46919e+06 659259 0 -1.47094e+06 675116 0 -1.4727e+06 691040 0 -1.47445e+06 707030 0 -1.47619e+06 723083 0 -1.47793e+06 739199 0 -1.47966e+06 755376 0 -1.48138e+06 771610 0 -1.4831e+06 787901 0 -1.4848e+06 804247 0 -1.4865e+06 820644 0 -1.48818e+06 837092 0 -1.48985e+06 853588 0 -1.49151e+06 870130 0 -1.49315e+06 886716 0 -1.49478e+06 903344 0 -1.4964e+06 920012 0 -1.498e+06 936717 0 -1.49959e+06 953458 0 -1.50116e+06 970232 0 -1.50273e+06 987037 0 -1.50428e+06 1.00387e+06 0 -1.50581e+06 1.02073e+06 0 -1.50734e+06 1.03762e+06 0 -1.50885e+06 1.05452e+06 0 -1.51035e+06 1.07145e+06 0 -1.51184e+06 1.0884e+06 0 -1.51333e+06 1.10536e+06 0 -1.5148e+06 1.12234e+06 0 -1.51627e+06 1.13933e+06 0 -1.51774e+06 1.15633e+06 0 -1.5192e+06 1.17333e+06 0 -1.52065e+06 1.19035e+06 0 -1.52211e+06 1.20736e+06 0 -1.52357e+06 1.22438e+06 0 -1.52503e+06 1.2414e+06 0 -1.52649e+06 1.25842e+06 0 -1.52797e+06 1.27543e+06 0 -1.52945e+06 1.29244e+06 0 -1.53094e+06 1.30945e+06 0 -1.53245e+06 1.32644