<?xml version="1.0"?> 
<VTKFile type="StructuredGrid" version="0.1"> 
<StructuredGrid WholeExtent="0 127 0 127 0 0"> 
<Piece Extent="0 127 0 127 0 0"> 
<PointData>
<DataArray type="Float32" Name="E" format="ascii" NumberOfComponents="3"> 
4.76837e-07 7.93234e+06 0 1.33365e-06 4.39327e+06 0 -1.14366e-06 2.83683e+06 0 9.0152e-07 2.19297e+06 0 -8.34465e-07 1.92899e+06 0 6.70552e-07 1.80002e+06 0 -1.46031e-06 1.70647e+06 0 2.13087e-06 1.61591e+06 0 -1.84774e-06 1.52265e+06 0 2.65241e-06 1.42919e+06 0 -2.32458e-06 1.33888e+06 0 1.69873e-06 1.25378e+06 0 -1.57952e-06 1.17453e+06 0 1.2219e-06 1.10095e+06 0 -1.69873e-06 1.03244e+06 0 2.11596e-06 968347 0 -1.2815e-06 908097 0 3.8743e-07 851237 0 -4.17233e-07 797425 0 1.01328e-06 746405 0 -1.37091e-06 697976 0 8.34465e-07 651977 0 -1.78814e-07 608273 0 -3.57628e-07 566748 0 -5.96046e-08 527298 0 3.57628e-07 489833 0 -3.57628e-07 454274 0 5.96046e-08 420550 0 -1.19209e-07 388595 0 -5.96046e-08 358353 0 -3.57628e-07 329768 0 4.17233e-07 302791 0 -2.98023e-07 277374 0 2.98023e-07 253469 0 -1.78814e-07 231033 0 0 210020 0 5.96046e-07 190385 0 -5.96046e-07 172082 0 2.38419e-07 155067 0 -1.19209e-07 139291 0 -2.38419e-07 124709 0 0 111270 0 -1.19209e-07 98925.2 0 -1.19209e-07 87624 0 1.19209e-07 77314.8 0 4.76837e-07 67945.4 0 -8.34465e-07 59463.1 0 8.34465e-07 51814.9 0 -5.96046e-07 44947.9 0 8.34465e-07 38809.2 0 -4.76837e-07 33346.6 0 4.76837e-07 28508.8 0 -7.15256e-07 24245.5 0 3.57628e-07 20507.7 0 0 17248.3 0 2.38419e-07 14421.6 0 -1.19209e-07 11984.6 0 1.19209e-07 9895.99 0 -2.38419e-07 8117.29 0 2.38419e-07 6612.36 0 0 5347.7 0 2.38419e-07 4292.46 0 -1.19209e-07 3418.48 0 0 2700.18 0 -5.96046e-07 2114.58 0 -2.38419e-07 1641.17 0 4.76837e-07 1261.83 0 -3.57628e-07 960.658 0 2.38419e-07 723.851 0 -4.76837e-07 539.535 0 2.38419e-07 397.596 0 0 289.51 0 0 208.166 0 0 147.704 0 -2.38419e-07 103.347 0 4.76837e-07 71.2505 0 4.76837e-07 48.3627 0 0 32.2908 0 0 21.1876 0 0 13.6484 0 0 8.62207 0 2.38419e-07 5.33544 0 -9.53674e-07 3.23019 0 9.53674e-07 1.91087 0 -1.19209e-06 1.10301 0 4.76837e-07 0.620399 0 0 0.339503 0 0 0.180486 0 2.38419e-07 0.0930595 0 -4.76837e-07 0.0464535 0 1.19209e-06 0.0224185 0 -1.90735e-06 0.0104194 0 1.66893e-06 0.00467539 0 -9.53674e-07 0.00198889 0 4.76837e-07 0.000829697 0 -9.53674e-07 0.000311852 0 9.53674e-07 0.000124931 0 -4.76837e-07 2.76566e-05 0 -2.38419e-07 1.09673e-05 0 1.43051e-06 6.67572e-06 0 -2.38419e-06 -1.28746e-05 0 2.14577e-06 2.09808e-05 0 -1.43051e-06 -1.23978e-05 0 7.15256e-07 1.14441e-05 0 0 -1.62125e-05 0 2.38419e-07 -6.67572e-06 0 -1.19209e-06 -8.58307e-06 0 1.43051e-06 1.04904e-05 0 -7.15256e-07 -1.52588e-05 0 4.76837e-07 4.76837e-06 0 -4.76837e-07 2.86102e-06 0 4.76837e-07 7.62939e-06 0 -4.76837e-07 1.90735e-06 0 4.76837e-07 1.14441e-05 0 -4.76837e-07 -1.90735e-06 0 7.15256e-07 1.71661e-05 0 -4.76837e-07 -7.62939e-06 0 9.53674e-07 2.86102e-05 0 -1.19209e-06 -2.28882e-05 0 4.76837e-07 -1.90735e-05 0 0 -1.52588e-05 0 -2.38419e-07 3.43323e-05 0 -2.38419e-07 4.57764e-05 0 -2.38419e-07 3.8147e-05 0 7.15256e-07 -5.34058e-05 0 -2.38419e-07 0.00263977 0 7.15256e-07 -3.05176e-05 0 -1.43051e-06 0 0 -2.47226e+06 1.67985e+06 0 -1.8624e+06 3.10138e+06 0 -1.31094e+06 3.29757e+06 0 -895412 3.04868e+06 0 -607103 2.70816e+06 0 -419757 2.39993e+06 0 -302835 2.15271e+06 0 -231240 1.95921e+06 0 -186994 1.80428e+06 0 -158488 1.6748e+06 0 -138805 1.56189e+06 0 -124103 1.46034e+06 0 -112362 1.36729e+06 0 -102556 1.28118e+06 0 -94153.7 1.20107e+06 0 -86853.2 1.12631e+06 0 -80452.5 1.05633e+06 0 -74795.8 990637 0 -69754 928810 0 -65219.5 870469 0 -61103.7 815300 0 -57335.2 763040 0 -53857.6 713473 0 -50626.2 666420 0 -47605.9 621729 0 -44768.8 579273 0 -42092.3 538943 0 -39558.4 500645 0 -37152.2 464295 0 -34861.8 429820 0 -32677.3 397153 0 -30590.7 366234 0 -28595.7 337008 0 -26687.1 309424 0 -24860.9 283432 0 -23113.8 258986 0 -21443.6 236038 0 -19848.2 214544 0 -18326.1 194458 0 -16876.4 175734 0 -15498.1 158326 0 -14190.4 142186 0 -12952.8 127267 0 -11784.5 113518 0 -10684.9 100889 0 -9653.14 89328.9 0 -8688.33 78784.9 0 -7789.32 69203.7 0 -6954.8 60531.7 0 -6183.24 52714.6 0 -5472.9 45698.2 0 -4821.8 39428.5 0 -4227.76 33851.9 0 -3688.39 28915.8 0 -3201.13 24568.3 0 -2763.24 20759.4 0 -2371.87 17440.4 0 -2024.06 14564.6 0 -1716.78 12087.4 0 -1446.97 9966.74 0 -1211.56 8162.76 0 -1007.53 6638.36 0 -831.904 5359.12 0 -681.81 4293.34 0 -554.487 3412.08 0 -447.315 2689.1 0 -357.829 2100.84 0 -283.737 1626.29 0 -222.927 1246.91 0 -173.473 946.46 0 -133.637 710.858 0 -101.869 528.016 0 -76.7985 387.659 0 -57.23 281.141 0 -42.1309 201.276 0 -30.6206 142.149 0 -21.957 98.96 0 -15.5227 67.8557 0 -10.811 45.7877 0 -7.41161 30.3769 0 -4.99725 19.7941 0 -3.31067 12.6549 0 -2.15295 7.92887 0 -1.37286 4.86247 0 -0.857437 2.91488 0 -0.523897 1.70564 0 -0.31276 0.972744 0 -0.182189 0.539829 0 -0.103414 0.291014 0 -0.0571173 0.152107 0 -0.03065 0.0769394 0 -0.0159547 0.037574 0 -0.00804457 0.017676 0 -0.00392121 0.00798651 0 -0.00184532 0.00344627 0 -0.000835947 0.00142173 0 -0.000364735 0.000549322 0 -0.000151879 0.000205096 0 -6.03959e-05 7.31833e-05 0 -2.24977e-05 2.10479e-05 0 -7.55658e-06 6.37397e-06 0 -2.45613e-06 1.00583e-06 0 -8.06234e-07 3.72902e-06 0 -1.20891e-06 -4.5076e-06 0 -1.71014e-07 8.80659e-06 0 1.27358e-07 6.10203e-06 0 -2.78291e-07 3.72529e-09 0 -7.59319e-07 -2.77162e-06 0 -7.47386e-08 -2.27243e-07 0 6.94999e-07 -1.04308e-06 0 -1.06462e-07 -5.88596e-06 0 -5.98317e-07 -7.46548e-06 0 3.25963e-08 -1.37091e-06 0 -1.04308e-07 -6.49691e-06 0 5.38537e-07 -2.83122e-06 0 4.14322e-07 1.11759e-07 0 -4.7544e-07 3.03984e-06 0 7.52509e-07 6.26594e-06 0 -1.2758e-06 -5.48363e-06 0 -1.75624e-06 -1.21593e-05 0 -2.00234e-07 -1.65701e-05 0 1.11316e-06 -2.20388e-05 0 1.31759e-06 3.15905e-06 0 2.68407e-06 0.000101894 0 -1.41338e-05 -0.00045535 0 4.70718e-05 0.000849485 0 -5.30574e-05 -0.0016849 0 -9.57847e-05 -0.00924873 0 -1.87921e+06 2.07194e+06 0 -2.02583e+06 1.83966e+06 0 -1.95653e+06 2.18693e+06 0 -1.73397e+06 2.49903e+06 0 -1.44989e+06 2.62587e+06 0 -1.16681e+06 2.59361e+06 0 -920193 2.46659e+06 0 -722585 2.30006e+06 0 -572799 2.12821e+06 0 -463075 1.9676e+06 0 -383908 1.82356e+06 0 -326621 1.69578e+06 0 -284368 1.58186e+06 0 -252232 1.47909e+06 0 -226904 1.38524e+06 0 -206251 1.29865e+06 0 -188928 1.21816e+06 0 -174080 1.14295e+06 0 -161146 1.0724e+06 0 -149737 1.00604e+06 0 -139569 943455 0 -130420 884323 0 -122118 828353 0 -114524 775301 0 -107524 724960 0 -101029 677154 0 -94967.6 631735 0 -89280.6 588574 0 -83921.4 547564 0 -78851.9 508609 0 -74041.5 471628 0 -69465 436546 0 -65102.1 403299 0 -60936.4 371826 0 -56954.6 342073 0 -53146.1 313988 0 -49502.5 287523 0 -46017.3 262631 0 -42685.4 239265 0 -39502.9 217380 0 -36466.9 196930 0 -33574.9 177870 0 -30825.4 160152 0 -28216.8 143729 0 -25747.9 128553 0 -23417.3 114572 0 -21223.9 101736 0 -19166 89991.5 0 -17241.8 79285.9 0 -15449.2 69564.4 0 -13785.5 60771.9 0 -12247.8 52852.9 0 -10832.5 45751.7 0 -9535.84 39412.9 0 -8353.38 33781.5 0 -7280.36 28803.1 0 -6311.64 24424.7 0 -5441.75 20594.6 0 -4664.93 17262.7 0 -3975.24 14381.1 0 -3366.58 11903.9 0 -2832.78 9787.81 0 -2367.67 7991.98 0 -1965.14 6478.37 0 -1619.21 5211.71 0 -1324.08 4159.58 0 -1074.22 3292.43 0 -864.338 2583.54 0 -689.493 2008.94 0 -545.085 1547.32 0 -426.881 1179.92 0 -331.031 890.366 0 -254.066 664.495 0 -192.896 490.2 0 -144.801 357.226 0 -107.409 256.988 0 -78.6804 182.376 0 -56.8814 127.577 0 -40.5553 87.8948 0 -28.4955 59.5859 0 -19.7156 39.7087 0 -13.4207 25.9851 0 -8.98006 16.6784 0 -5.90059 10.4864 0 -3.80339 6.44963 0 -2.40227 3.87459 0 -1.48504 2.26975 0 -0.897367 1.29418 0 -0.529354 0.71681 0 -0.30441 0.384795 0 -0.170403 0.199695 0 -0.0927139 0.0998974 0 -0.0489509 0.0480097 0 -0.0250408 0.0220701 0 -0.0123898 0.00965392 0 -0.00591849 0.0039825 0 -0.00272324 0.00153156 0 -0.00120475 0.000541497 0 -0.000511203 0.000169028 0 -0.000206613 4.32506e-05 0 -8.02298e-05 8.52346e-06 0 -2.84854e-05 3.49432e-06 0 -9.98541e-06 -1.80304e-06 0 -4.2743e-06 -5.40912e-06 0 -6.67991e-07 -2.13832e-06 0 4.62169e-07 6.37025e-06 0 -3.85568e-07 7.28667e-06 0 -5.02914e-07 6.89924e-06 0 -8.47736e-07 1.2368e-06 0 -3.3481e-07 8.19564e-07 0 6.33532e-07 -1.3262e-06 0 1.11526e-07 6.55651e-07 0 1.61817e-07 -2.71201e-06 0 -1.09663e-07 -9.23872e-06 0 3.64613e-07 -2.36928e-06 0 1.67126e-06 1.05947e-05 0 -4.61005e-08 -1.57952e-06 0 -9.20147e-07 -2.10106e-06 0 -5.95115e-07 -1.39773e-05 0 -4.56814e-07 2.20537e-06 0 -1.96695e-06 1.99676e-06 0 -1.96509e-07 -8.52346e-06 0 7.26432e-07 -3.74317e-05 0 4.136e-06 2.50936e-05 0 -3.13111e-06 3.016e-05 0 3.97861e-06 0.000239849 0 -1.80304e-05 -0.0019629 0 0.000316262 0.0171871 0 -2.00705e+06 1.62539e+06 0 -1.89941e+06 1.79818e+06 0 -1.89092e+06 1.7597e+06 0 -1.87891e+06 1.83948e+06 0 -1.80833e+06 2.0017e+06 0 -1.67361e+06 2.15888e+06 0 -1.49366e+06 2.25564e+06 0 -1.29507e+06 2.2772e+06 0 -1.10076e+06 2.23448e+06 0 -925749 2.14797e+06 0 -777129 2.03761e+06 0 -655962 1.91841e+06 0 -559685 1.79977e+06 0 -484119 1.68659e+06 0 -424821 1.58075e+06 0 -377836 1.48246e+06 0 -339979 1.3912e+06 0 -308853 1.3062e+06 0 -282730 1.22671e+06 0 -260389 1.1521e+06 0 -240971 1.08186e+06 0 -223866 1.01556e+06 0 -208624 952858 0 -194910 893472 0 -182462 837152 0 -171073 783683 0 -160578 732884 0 -150845 684593 0 -141764 638674 0 -133249 595009 0 -125229 553495 0 -117645 514043 0 -110451 476573 0 -103609 441016 0 -97087.9 407308 0 -90862 375393 0 -84911.6 345218 0 -79220.6 316732 0 -73776.2 289888 0 -68568.4 264641 0 -63589.6 240944 0 -58834 218753 0 -54297 198022 0 -49975.4 178706 0 -45866.6 160758 0 -41968.4 144130 0 -38279.2 128771 0 -34797.2 114632 0 -31520.4 101660 0 -28446.6 89801.7 0 -25573.2 79002 0 -22897.1 69205.3 0 -20414.5 60355.2 0 -18120.8 52394.4 0 -16011 45265.9 0 -14079.1 38912.5 0 -12318.7 33277.5 0 -10722.5 28305 0 -9282.78 23940.5 0 -7991.3 20130.7 0 -6839.34 16824.2 0 -5817.89 13971.7 0 -4917.72 11526.1 0 -4129.49 9443.07 0 -3443.86 7680.84 0 -2851.59 6200.54 0 -2343.64 4966.24 0 -1911.24 3944.97 0 -1546.03 3106.79 0 -1240.06 2424.66 0 -985.877 1874.42 0 -776.579 1434.69 0 -605.821 1086.67 0 -467.844 814.056 0 -357.474 602.792 0 -270.115 440.922 0 -201.731 318.375 0 -148.818 226.763 0 -108.374 159.189 0 -77.8548 110.046 0 -55.1337 74.8403 0 -38.4576 50.0196 0 -26.4007 32.8157 0 -17.8209 21.1059 0 -11.8169 13.2887 0 -7.68937 8.17774 0 -4.90473 4.90994 0 -3.06314 2.87035 0 -1.87069 1.63006 0 -1.1157 0.896828 0 -0.648923 0.476508 0 -0.367539 0.24355 0 -0.202398 0.119161 0 -0.108194 0.0554462 0 -0.0560502 0.0243025 0 -0.0280921 0.00989389 0 -0.013597 0.00363483 0 -0.0063422 0.00113755 0 -0.00284514 0.000245422 0 -0.0012242 -1.18315e-05 0 -0.000503647 -6.16163e-05 0 -0.000198254 -4.98816e-05 0 -7.27074e-05 -2.1778e-05 0 -2.58e-05 -1.14888e-05 0 -9.94047e-06 -3.20375e-06 0 -2.41073e-06 -1.10418e-05 0 5.12227e-07 1.17719e-06 0 1.47615e-07 1.01924e-05 0 -8.00937e-08 4.69387e-06 0 -9.22941e-07 7.85291e-06 0 -6.21192e-07 8.21054e-06 0 3.59491e-07 8.19564e-06 0 -1.15484e-07 5.66244e-07 0 -1.07102e-07 -5.06639e-06 0 -1.76951e-07 -5.66244e-07 0 3.1665e-07 -4.08292e-06 0 2.89176e-06 1.40071e-05 0 -4.10713e-07 7.39098e-06 0 -1.79186e-06 -2.38419e-07 0 -2.86847e-07 -4.70877e-06 0 9.85339e-07 1.72853e-05 0 -1.2666e-06 1.508e-05 0 -3.12924e-07 1.96099e-05 0 2.01911e-06 1.43051e-05 0 7.26432e-07 -0.000109434 0 1.42455e-05 0.000446081 0 1.77771e-05 0.000989914 0 -0.000111997 -0.00407791 0 -1.96575e+06 1.57437e+06 0 -1.96983e+06 1.57523e+06 0 -1.91732e+06 1.66061e+06 0 -1.8731e+06 1.68356e+06 0 -1.84141e+06 1.70789e+06 0 -1.80228e+06 1.76827e+06 0 -1.73724e+06 1.8579e+06 0 -1.63876e+06 1.94969e+06 0 -1.51074e+06 2.018e+06 0 -1.36392e+06 2.04856e+06 0 -1.21098e+06 2.03897e+06 0 -1.06295e+06 1.99493e+06 0 -927502 1.92576e+06 0 -808669 1.84097e+06 0 -707510 1.74844e+06 0 -623057 1.6538e+06 0 -553242 1.56058e+06 0 -495614 1.47071e+06 0 -447795 1.38504e+06 0 -407714 1.30378e+06 0 -373688 1.22685e+06 0 -344405 1.15399e+06 0 -318869 1.08494e+06 0 -296327 1.01943e+06 0 -276212 957218 0 -258090 898086 0 -241624 841843 0 -226546 788321 0 -212643 737370 0 -199742 688858 0 -187705 642666 0 -176415 598693 0 -165781 556849 0 -155725 517052 0 -146187 479232 0 -137114 443325 0 -128466 409273 0 -120209 377023 0 -112318 346525 0 -104769 317733 0 -97547.3 290600 0 -90638.8 265083 0 -84033.5 241139 0 -77723.9 218722 0 -71704.2 197790 0 -65970.1 178295 0 -60518.5 160191 0 -55346.7 143430 0 -50452.7 127962 0 -45834.2 113735 0 -41489 100696 0 -37414.1 88790.6 0 -33606.4 77962.1 0 -30061.6 68153.4 0 -26774.8 59306.4 0 -23740.1 51362.3 0 -20950.6 44262.1 0 -18398.5 37946.9 0 -16075.1 32358.3 0 -13970.6 27438.6 0 -12074.7 23131.6 0 -10376.2 19382.6 0 -8863.28 16138.5 0 -7523.91 13349 0 -6345.6 10965.7 0 -5315.77 8943.28 0 -4421.81 7239.16 0 -3651.29 5813.81 0 -2992.05 4630.79 0 -2432.33 3656.78 0 -1960.91 2861.61 0 -1567.15 2218.16 0 -1241.12 1702.29 0 -973.595 1292.73 0 -756.161 970.892 0 -581.183 720.701 0 -441.829 528.412 0 -332.047 382.393 0 -246.546 272.913 0 -180.75 191.928 0 -130.752 132.875 0 -93.2612 90.4645 0 -65.5389 60.4975 0 -45.3405 39.6874 0 -30.8516 25.5025 0 -20.6283 16.0252 0 -13.5394 9.82822 0 -8.71395 5.86979 0 -5.49293 3.40477 0 -3.38709 1.9119 0 -2.04037 1.03512 0 -1.19906 0.537488 0 -0.686407 0.265735 0 -0.382167 0.123747 0 -0.206607 0.0533293 0 -0.108274 0.0205717 0 -0.0549074 0.00654649 0 -0.0268948 0.00122886 0 -0.0126998 -0.000392824 0 -0.00576878 -0.000645891 0 -0.00251433 -0.000494078 0 -0.00104926 -0.000303268 0 -0.000417134 -0.000162944 0 -0.000155999 -7.4029e-05 0 -5.71571e-05 -3.57181e-05 0 -2.06428e-05 -1.38432e-05 0 -6.20726e-06 -8.77678e-06 0 -1.20606e-06 -1.36644e-05 0 1.34669e-06 3.21865e-06 0 -1.03377e-07 5.78165e-06 0 -4.47966e-07 2.47359e-06 0 -5.52274e-07 8.31485e-06 0 -1.18371e-06 2.68221e-07 0 1.21072e-07 1.69873e-06 0 -5.60656e-07 -2.86102e-06 0 -1.18092e-06 -7.7486e-06 0 4.8615e-07 -8.9407e-06 0 2.30595e-06 8.28505e-06 0 -3.72529e-07 1.96695e-06 0 -2.33017e-06 -2.55108e-05 0 8.53091e-07 -1.54972e-06 0 -5.92321e-07 -1.18017e-05 0 -2.99886e-06 -1.88351e-05 0 4.47035e-07 5.47171e-05 0 -9.11951e-06 -0.000140905 0 6.60121e-06 -7.43866e-05 0 -7.96914e-05 -0.00196171 0 5.51343e-05 0.00146675 0 -1.991e+06 1.45905e+06 0 -1.96448e+06 1.49271e+06 0 -1.95505e+06 1.50456e+06 0 -1.92718e+06 1.55201e+06 0 -1.88853e+06 1.59048e+06 0 -1.84891e+06 1.61769e+06 0 -1.80914e+06 1.6478e+06 0 -1.76281e+06 1.69152e+06 0 -1.70193e+06 1.74747e+06 0 -1.6216e+06 1.80541e+06 0 -1.52184e+06 1.85278e+06 0 -1.40692e+06 1.87985e+06 0 -1.28351e+06 1.88193e+06 0 -1.15877e+06 1.85917e+06 0 -1.03882e+06 1.81512e+06 0 -928000 1.75491e+06 0 -828741 1.68387e+06 0 -741820 1.60666e+06 0 -666825 1.52686e+06 0 -602624 1.44695e+06 0 -547763 1.36855e+06 0 -500742 1.29254e+06 0 -460176 1.2194e+06 0 -424875 1.14929e+06 0 -393858 1.08223e+06 0 -366337 1.01815e+06 0 -341689 956952 0 -319423 898521 0 -299146 842736 0 -280547 789485 0 -263373 738662 0 -247420 690167 0 -232522 643911 0 -218540 599813 0 -205362 557799 0 -192896 517802 0 -181067 479761 0 -169812 443621 0 -159080 409333 0 -148832 376848 0 -139035 346121 0 -129661 317111 0 -120692 289774 0 -112110 264070 0 -103904 239956 0 -96064.4 217391 0 -88584.6 196330 0 -81459.8 176729 0 -74686.1 158541 0 -68260.9 141717 0 -62181.8 126208 0 -56446.2 111960 0 -51051.7 98919.3 0 -45995 87030.1 0 -41272 76234.5 0 -36877.7 66473.5 0 -32806 57687.1 0 -29049.5 49814.6 0 -25599.7 42795.1 0 -22446.8 36567.6 0 -19579.6 31072 0 -16985.9 26248.6 0 -14652.5 22039.5 0 -12565.3 18388.4 0 -10709.4 15240.9 0 -9069.41 12545.1 0 -7629.56 10251.8 0 -6373.9 8314.61 0 -5286.51 6690.38 0 -4351.68 5339.01 0 -3554.08 4223.72 0 -2878.93 3311.06 0 -2312.11 2570.82 0 -1840.31 1976.02 0 -1451.11 1502.75 0 -1133.03 1130.05 0 -875.627 839.75 0 -669.436 616.212 0 -506.037 446.172 0 -377.997 318.488 0 -278.845 223.919 0 -203.011 154.893 0 -145.765 105.293 0 -103.142 70.2432 0 -71.8641 45.9166 0 -49.2615 29.357 0 -33.1906 18.3191 0 -21.9583 11.1284 0 -14.2492 6.56027 0 -9.05914 3.73775 0 -5.63578 2.0472 0 -3.42625 1.06973 0 -2.03269 0.527168 0 -1.17507 0.240286 0 -0.66087 0.0974827 0 -0.361001 0.0318565 0 -0.191202 0.00508787 0 -0.0980144 -0.00368047 0 -0.0485395 -0.00506794 0 -0.0231776 -0.0040365 0 -0.0106487 -0.00263339 0 -0.00469594 -0.00151582 0 -0.00198306 -0.00080277 0 -0.000797915 -0.000386849 0 -0.000304628 -0.000180021 0 -0.000111185 -8.59201e-05 0 -3.99947e-05 -3.3617e-05 0 -1.32211e-05 -9.0003e-06 0 -2.0247e-06 -8.52346e-06 0 1.12131e-06 -3.30806e-06 0 1.6205e-06 6.4671e-06 0 -2.16067e-07 2.38419e-07 0 -2.03028e-07 1.33812e-05 0 -4.20958e-07 9.29832e-06 0 -3.98606e-07 3.27826e-06 0 -1.84029e-06 4.76837e-06 0 -1.06916e-06 3.27826e-06 0 -5.62519e-07 -9.29832e-06 0 3.94136e-06 1.57952e-05 0 1.09896e-06 1.66893e-05 0 -1.28523e-06 8.46386e-06 0 2.5332e-07 6.07967e-06 0 -2.6077e-07 -2.06232e-05 0 -1.80304e-06 -2.71797e-05 0 1.63913e-07 7.05719e-05 0 -7.21216e-06 -4.81606e-05 0 9.05991e-05 0.00150108 0 3.21865e-05 0.00075531 0 -2.00583e+06 1.39912e+06 0 -1.99176e+06 1.4135e+06 0 -1.9693e+06 1.43615e+06 0 -1.95281e+06 1.44853e+06 0 -1.93248e+06 1.47396e+06 0 -1.90428e+06 1.50492e+06 0 -1.8698e+06 1.53365e+06 0 -1.83169e+06 1.55944e+06 0 -1.7902e+06 1.58684e+06 0 -1.74276e+06 1.6197e+06 0 -1.68566e+06 1.65775e+06 0 -1.61599e+06 1.69656e+06 0 -1.53301e+06 1.72963e+06 0 -1.43836e+06 1.7508e+06 0 -1.33557e+06 1.7559e+06 0 -1.22908e+06 1.74337e+06 0 -1.1233e+06 1.71401e+06 0 -1.02195e+06 1.67026e+06 0 -927691 1.61534e+06 0 -842039 1.55259e+06 0 -765532 1.48497e+06 0 -697967 1.41493e+06 0 -638665 1.34425e+06 0 -586704 1.27419e+06 0 -541088 1.20558e+06 0 -500860 1.13889e+06 0 -465160 1.07441e+06 0 -433252 1.01228e+06 0 -404518 952536 0 -378451 895177 0 -354637 840171 0 -332736 787469 0 -312471 737015 0 -293615 688750 0 -275979 642616 0 -259410 598556 0 -243779 556517 0 -228981 516450 0 -214929 478306 0 -201551 442042 0 -188790 407617 0 -176598 374989 0 -164938 344122 0 -153778 314976 0 -143096 287514 0 -132874 261699 0 -123098 237490 0 -113757 214847 0 -104844 193729 0 -96354 174090 0 -88283.2 155885 0 -80628.7 139066 0 -73388.1 123580 0 -66559 109375 0 -60138.5 96395.6 0 -54123.1 84583.6 0 -48508.1 73879.8 0 -43287.7 64223.4 0 -38454.6 55552.2 0 -33999.9 47803.5 0 -29913.4 40914.2 0 -26183 34821.2 0 -22795.3 29462.3 0 -19735.3 24775.9 0 -16987.1 20702.3 0 -14533.2 17183.4 0 -12355.5 14163.6 0 -10435.4 11589.6 0 -8753.45 9411.2 0 -7290.38 7581.36 0 -6026.83 6056.24 0 -4943.73 4795.44 0 -4022.55 3762.06 0 -3245.42 2922.67 0 -2595.37 2247.29 0 -2056.4 1709.25 0 -1613.66 1285.11 0 -1253.45 954.468 0 -963.35 699.722 0 -732.169 505.888 0 -549.978 360.352 0 -408.061 252.617 0 -298.861 174.066 0 -215.912 117.721 0 -153.753 78.0079 0 -107.836 50.5463 0 -74.4259 31.9471 0 -50.5013 19.6345 0 -33.6565 11.6872 0 -22.007 6.70108 0 -14.1019 3.6722 0 -8.84483 1.90015 0 -5.42281 0.909061 0 -3.24543 0.38514 0 -1.89315 0.12833 0 -1.07467 0.0159534 0 -0.592677 -0.0238805 0 -0.316994 -0.0309938 0 -0.164127 -0.0258825 0 -0.0821079 -0.0180802 0 -0.0396094 -0.0112991 0 -0.0183873 -0.00650083 0 -0.00819514 -0.0034802 0 -0.00349796 -0.00175121 0 -0.00142406 -0.000823885 0 -0.000550695 -0.000361264 0 -0.000202347 -0.000154704 0 -7.14771e-05 -6.26743e-05 0 -2.42386e-05 -1.85966e-05 0 -6.75209e-06 -7.51019e-06 0 -1.54413e-06 -2.33352e-05 0 1.72108e-06 -2.95043e-06 0 -1.3411e-07 -9.71556e-06 0 -4.61936e-07 -1.07288e-06 0 -3.39001e-07 7.689e-06 0 -4.76837e-07 5.90086e-06 0 -1.48267e-06 6.61612e-06 0 -3.12552e-06 -1.35899e-05 0 -4.32134e-07 -7.86781e-06 0 1.77324e-06 -9.77516e-06 0 1.24425e-06 -4.76837e-07 0 -1.43796e-06 2.5034e-06 0 2.83122e-07 7.15256e-06 0 -1.65403e-06 -4.33922e-05 0 -5.51343e-06 -8.91685e-05 0 -1.78814e-07 -3.71933e-05 0 3.24249e-05 0.000312805 0 -8.76188e-05 -0.00156403 0 -2.02516e+06 1.35164e+06 0 -2.01175e+06 1.36267e+06 0 -1.99828e+06 1.37384e+06 0 -1.9794e+06 1.39033e+06 0 -1.96061e+06 1.40272e+06 0 -1.94112e+06 1.41817e+06 0 -1.91825e+06 1.43851e+06 0 -1.89041e+06 1.46148e+06 0 -1.85776e+06 1.48431e+06 0 -1.82099e+06 1.50656e+06 0 -1.78003e+06 1.52965e+06 0 -1.73371e+06 1.55496e+06 0 -1.68013e+06 1.58228e+06 0 -1.61764e+06 1.60942e+06 0 -1.5455e+06 1.63276e+06 0 -1.46436e+06 1.64843e+06 0 -1.3761e+06 1.65325e+06 0 -1.28347e+06 1.64537e+06 0 -1.18955e+06 1.62445e+06 0 -1.09726e+06 1.5914e+06 0 -1.00901e+06 1.54802e+06 0 -926501 1.49652e+06 0 -850723 1.43914e+06 0 -782037 1.37795e+06 0 -720323 1.31466e+06 0 -665137 1.2506e+06 0 -615856 1.18676e+06 0 -571790 1.12385e+06 0 -532251 1.06232e+06 0 -496605 1.00247e+06 0 -464290 944500 0 -434819 888499 0 -407783 834525 0 -382835 782597 0 -359689 732711 0 -338102 684853 0 -317876 638998 0 -298844 595118 0 -280865 553183 0 -263825 513160 0 -247630 475019 0 -232199 438728 0 -217469 404255 0 -203387 371570 0 -189912 340642 0 -177011 311437 0 -164658 283924 0 -152833 258069 0 -141520 233834 0 -130710 211182 0 -120395 190073 0 -110570 170463 0 -101231 152306 0 -92374.8 135553 0 -84000.3 120154 0 -76104.9 106053 0 -68685.7 93193.7 0 -61738.9 81516.9 0 -55259.4 70961.1 0 -49240.4 61463.3 0 -43673.5 52959.1 0 -38548.3 45383.5 0 -33852.6 38671.1 0 -29572.2 32756.4 0 -25691.1 27574.9 0 -22191.6 23063.2 0 -19054.5 19159.6 0 -16259.2 15804.3 0 -13784.2 12940.2 0 -11607.2 10513.1 0 -9705.28 8471.73 0 -8055.56 6768.39 0 -6635.17 5358.88 0 -5421.64 4202.66 0 -4393.17 3262.89 0 -3528.83 2506.42 0 -2808.75 1903.68 0 -2214.33 1428.6 0 -1728.31 1058.41 0 -1334.86 773.449 0 -1019.69 556.919 0 -769.961 394.659 0 -574.363 274.869 0 -423.001 187.842 0 -307.354 125.711 0 -220.17 82.1902 0 -155.366 52.3359 0 -107.912 32.3268 0 -73.7045 19.2617 0 -49.4548 10.9815 0 -32.5651 5.91357 0 -21.02 2.93929 0 -13.2837 1.28373 0 -8.20814 0.425784 0 -4.9522 0.0266902 0 -2.91293 -0.125142 0 -1.66781 -0.155638 0 -0.927939 -0.135324 0 -0.500809 -0.100476 0 -0.261696 -0.0674741 0 -0.132145 -0.0419644 0 -0.0643516 -0.0244508 0 -0.030158 -0.0134234 0 -0.0135705 -0.00696599 0 -0.00584913 -0.0034273 0 -0.00240598 -0.00159621 0 -0.000941206 -0.00070262 0 -0.000349242 -0.000288159 0 -0.000122495 -0.000105649 0 -4.19579e-05 -3.97563e-05 0 -1.33365e-05 -1.78218e-05 0 -3.59491e-06 -2.3067e-05 0 1.30385e-07 -1.38879e-05 0 1.12876e-06 -1.13249e-06 0 -6.70552e-08 -1.04308e-05 0 -7.82311e-08 1.19209e-06 0 1.63913e-07 7.98702e-06 0 -1.70618e-06 -8.34465e-07 0 -4.18723e-06 -1.49012e-05 0 -3.05474e-07 -6.07967e-06 0 8.19564e-07 -3.09944e-05 0 2.07126e-06 -1.23978e-05 0 -8.04663e-07 1.54972e-05 0 -5.81145e-07 -1.54972e-05 0 2.35438e-06 5.10216e-05 0 -8.9407e-07 -2.67029e-05 0 -4.57764e-05 -0.00524902 0 -1.66893e-06 -0.000162125 0 -2.04491e+06 1.31902e+06 0 -2.03353e+06 1.32562e+06 0 -2.02075e+06 1.33338e+06 0 -2.00776e+06 1.34135e+06 0 -1.99172e+06 1.35277e+06 0 -1.97377e+06 1.3637e+06 0 -1.95463e+06 1.37501e+06 0 -1.93378e+06 1.38843e+06 0 -1.91003e+06 1.40448e+06 0 -1.88252e+06 1.42221e+06 0 -1.851e+06 1.44045e+06 0 -1.81551e+06 1.45881e+06 0 -1.77584e+06 1.47762e+06 0 -1.73135e+06 1.49727e+06 0 -1.68099e+06 1.51747e+06 0 -1.62379e+06 1.53693e+06 0 -1.55923e+06 1.5535e+06 0 -1.48752e+06 1.56464e+06 0 -1.40974e+06 1.56804e+06 0 -1.32762e+06 1.56204e+06 0 -1.24329e+06 1.54587e+06 0 -1.15898e+06 1.5197e+06 0 -1.0767e+06 1.48441e+06 0 -998075 1.44138e+06 0 -924248 1.39222e+06 0 -855877 1.33856e+06 0 -793201 1.28188e+06 0 -736130 1.22345e+06 0 -684353 1.1643e+06 0 -637426 1.10521e+06 0 -594847 1.04677e+06 0 -556108 989404 0 -520728 933395 0 -488269 878944 0 -458348 826184 0 -430629 775198 0 -404828 726036 0 -380702 678726 0 -358045 633279 0 -336684 589697 0 -316474 547972 0 -297294 508094 0 -279041 470047 0 -261634 433814 0 -245002 399376 0 -229091 366710 0 -213857 335793 0 -199263 306601 0 -185282 279105 0 -171895 253276 0 -159085 229081 0 -146842 206484 0 -135160 185447 0 -124032 165927 0 -113456 147880 0 -103431 131255 0 -93953.6 116002 0 -85023.1 102063 0 -76636.3 89381.6 0 -68789.4 77895.3 0 -61476.7 67541.1 0 -54690.6 58253.4 0 -48421.5 49965.5 0 -42657.5 42609.6 0 -37384.2 36117.8 0 -32585.1 30422.2 0 -28241.5 25456 0 -24332.6 21153.6 0 -20836.1 17451.3 0 -17727.8 14287.8 0 -14982.7 11604.5 0 -12574.6 9346.16 0 -10477.1 7460.81 0 -8663.49 5900.22 0 -7107.32 4619.99 0 -5782.65 3579.67 0 -4664.39 2742.71 0 -3728.54 2076.46 0 -2952.4 1552.04 0 -2314.79 1144.18 0 -1796.13 831.006 0 -1378.58 593.825 0 -1046.07 416.843 0 -784.268 286.887 0 -580.595 193.124 0 -424.125 126.768 0 -305.5 80.807 0 -216.814 49.734 0 -151.48 29.3015 0 -104.094 16.2962 0 -70.2875 8.33829 0 -46.5857 3.70614 0 -30.2735 1.18678 0 -19.2655 -0.0493125 0 -11.9905 -0.549953 0 -7.28836 -0.662209 0 -4.32018 -0.594822 0 -2.49322 -0.464965 0 -1.39851 -0.332043 0 -0.761084 -0.221195 0 -0.401086 -0.138866 0 -0.204279 -0.0825925 0 -0.100343 -0.0466639 0 -0.0474342 -0.0250662 0 -0.0215314 -0.0128118 0 -0.00936044 -0.00622183 0 -0.00388576 -0.00287172 0 -0.00153395 -0.00124824 0 -0.000573482 -0.000513256 0 -0.00020187 -0.000191927 0 -6.86273e-05 -6.44922e-05 0 -2.10218e-05 -7.33137e-06 0 -6.38515e-06 -3.57628e-07 0 -4.61936e-07 -5.48363e-06 0 7.89762e-07 -7.33137e-06 0 1.49012e-07 -5.96046e-06 0 -3.35276e-07 -7.39098e-06 0 -1.78814e-07 -9.41753e-06 0 4.76837e-07 2.09808e-05 0 -1.75834e-06 2.20537e-05 0 3.57628e-07 2.36034e-05 0 1.53482e-06 1.90735e-06 0 1.54972e-06 -9.53674e-06 0 -1.40071e-06 -2.43187e-05 0 -4.94719e-06 -4.86374e-05 0 -1.35899e-05 -0.000133514 0 -4.76837e-06 -0.000396729 0 2.38419e-06 8.39233e-05 0 -2.06485e+06 1.29727e+06 0 -2.05508e+06 1.30056e+06 0 -2.04432e+06 1.30471e+06 0 -2.0322e+06 1.30988e+06 0 -2.01957e+06 1.31527e+06 0 -2.00528e+06 1.32266e+06 0 -1.98905e+06 1.33096e+06 0 -1.97113e+06 1.33967e+06 0 -1.95163e+06 1.34919e+06 0 -1.93018e+06 1.36018e+06 0 -1.90616e+06 1.3728e+06 0 -1.87899e+06 1.38662e+06 0 -1.84835e+06 1.40107e+06 0 -1.81405e+06 1.41581e+06 0 -1.77585e+06 1.43079e+06 0 -1.73331e+06 1.44598e+06 0 -1.68581e+06 1.46104e+06 0 -1.63276e+06 1.4751e+06 0 -1.57378e+06 1.48675e+06 0 -1.50898e+06 1.49428e+06 0 -1.43898e+06 1.49598e+06 0 -1.3649e+06 1.49048e+06 0 -1.28826e+06 1.47695e+06 0 -1.21071e+06 1.45516e+06 0 -1.13391e+06 1.42547e+06 0 -1.05928e+06 1.38871e+06 0 -987966 1.34598e+06 0 -920751 1.2985e+06 0 -858080 1.24751e+06 0 -800106 1.19413e+06 0 -746752 1.13934e+06 0 -697785 1.08394e+06 0 -652871 1.02857e+06 0 -611632 973716 0 -573679 919756 0 -538641 866961 0 -506171 815528 0 -475962 765599 0 -447741 717272 0 -421272 670616 0 -396351 625677 0 -372805 582486 0 -350486 541061 0 -329270 501410 0 -309054 463536 0 -289751 427436 0 -271290 393102 0 -253614 360523 0 -236677 329684 0 -220443 300568 0 -204883 273153 0 -189978 247412 0 -175712 223318 0 -162076 200837 0 -149064 179933 0 -136670 160564 0 -124894 142685 0 -113734 126246 0 -103189 111196 0 -93258.1 97476.1 0 -83938.8 85026.7 0 -75227 73784.3 0 -67116.5 63682.9 0 -59599 54654.4 0 -52663.4 46629.1 0 -46296 39536.8 0 -40480.5 33306.5 0 -35197.7 27867.9 0 -30426 23151.6 0 -26141.4 19089.9 0 -22318 15617.1 0 -18928 12670.2 0 -15942.5 10189.6 0 -13331.6 8118.76 0 -11064.8 6405.29 0 -9111.74 5000.66 0 -7442.24 3860.5 0 -6026.86 2944.66 0 -4837.19 2217.14 0 -3846.19 1646.07 0 -3028.39 1203.49 0 -2360.1 865.179 0 -1819.57 610.4 0 -1387.05 421.631 0 -1044.83 284.258 0 -777.259 186.266 0 -570.637 117.924 0 -413.158 71.4791 0 -294.782 40.8622 0 -207.088 21.412 0 -143.116 9.62314 0 -97.2032 2.92053 0 -64.8162 -0.5381 0 -42.3847 -2.03123 0 -27.1477 -2.41476 0 -17.0095 -2.23695 0 -10.4105 -1.82973 0 -6.21483 -1.37864 0 -3.61294 -0.975066 0 -2.04183 -0.653518 0 -1.11973 -0.417124 0 -0.594713 -0.254174 0 -0.305293 -0.148004 0 -0.151155 -0.0823583 0 -0.0720216 -0.0437706 0 -0.0329477 -0.0221926 0 -0.0144355 -0.01072 0 -0.00603872 -0.00492072 0 -0.00240291 -0.00213933 0 -0.000905983 -0.000883877 0 -0.000322111 -0.000345945 0 -0.000109643 -0.000133455 0 -3.50103e-05 -3.85642e-05 0 -1.12653e-05 -9.71556e-06 0 -2.61515e-06 -7.27177e-06 0 5.43892e-07 -5.72205e-06 0 4.32134e-07 9.53674e-07 0 -8.49366e-07 -1.35899e-05 0 7.15256e-07 -2.22921e-05 0 9.08971e-07 9.89437e-06 0 -3.41237e-06 -9.77516e-06 0 2.02656e-06 4.55379e-05 0 -1.57952e-06 -9.53674e-07 0 4.20213e-06 2.3365e-05 0 1.78814e-07 -3.8147e-05 0 1.39475e-05 0.000205994 0 -3.95775e-05 -0.000259399 0 -1.95503e-05 -0.000291824 0 -2.08474e+06 1.2838e+06 0 -2.07617e+06 1.28464e+06 0 -2.06686e+06 1.28607e+06 0 -2.05671e+06 1.28819e+06 0 -2.04536e+06 1.29118e+06 0 -2.03322e+06 1.29451e+06 0 -2.01997e+06 1.29891e+06 0 -2.00524e+06 1.30439e+06 0 -1.98887e+06 1.31061e+06 0 -1.97087e+06 1.31743e+06 0 -1.95118e+06 1.32506e+06 0 -1.92953e+06 1.33376e+06 0 -1.90551e+06 1.34357e+06 0 -1.87872e+06 1.35427e+06 0 -1.84885e+06 1.36553e+06 0 -1.81564e+06 1.37708e+06 0 -1.77886e+06 1.38873e+06 0 -1.73817e+06 1.4003e+06 0 -1.69316e+06 1.41143e+06 0 -1.64346e+06 1.42145e+06 0 -1.58881e+06 1.42938e+06 0 -1.52925e+06 1.434e+06 0 -1.46517e+06 1.43403e+06 0 -1.39735e+06 1.42836e+06 0 -1.32687e+06 1.41621e+06 0 -1.25498e+06 1.39719e+06 0 -1.183e+06 1.37137e+06 0 -1.11216e+06 1.33921e+06 0 -1.04353e+06 1.30142e+06 0 -977905 1.25893e+06 0 -915843 1.21271e+06 0 -857646 1.16371e+06 0 -803405 1.11284e+06 0 -753049 1.06085e+06 0 -706390 1.00839e+06 0 -663170 955995 0 -623093 904080 0 -585854 852971 0 -551159 802918 0 -518732 754109 0 -488322 706686 0 -459706 660757 0 -432690 616399 0 -407103 573671 0 -382801 532614 0 -359659 493258 0 -337574 455622 0 -316460 419718 0 -296244 385550 0 -276870 353119 0 -258291 322419 0 -240470 293438 0 -223382 266161 0 -207007 240567 0 -191330 216632 0 -176343 194325 0 -162040 173610 0 -148420 154449 0 -135482 136795 0 -123226 120600 0 -111653 105808 0 -100760 92360.8 0 -90547.3 80196.5 0 -81009.7 69248.9 0 -72140.9 59449.2 0 -63931.5 50726.4 0 -56369 43007.8 0 -49437.9 36220 0 -43119.4 30289.3 0 -37391.5 25142.5 0 -32229.5 20707.6 0 -27605.9 16914.7 0 -23491 13696.2 0 -19853.2 10987.5 0 -16659.5 8727.85 0 -13875.8 6859.99 0 -11467.9 5331.05 0 -9401.17 4092.47 0 -7641.88 3100.18 0 -6157.01 2314.62 0 -4914.86 1700.62 0 -3885.4 1227.34 0 -3040.47 868.018 0 -2354.01 599.727 0 -1802.22 403.092 0 -1363.61 261.966 0 -1019.04 163.088 0 -751.657 95.7451 0 -546.854 51.4281 0 -392.116 23.5074 0 -276.88 6.92387 0 -1