<?xml version="1.0"?> 
<VTKFile type="StructuredGrid" version="0.1"> 
<StructuredGrid WholeExtent="0 127 0 127 0 0"> 
<Piece Extent="0 127 0 127 0 0"> 
<PointData>
<DataArray type="Float32" Name="E" format="ascii" NumberOfComponents="3"> 
-1.71552e+06 -0.0395656 0 -1.79178e+06 -0.038617 0 -1.86745e+06 -0.0366675 0 -1.94212e+06 -0.0338321 0 -2.01541e+06 -0.0302763 0 -2.08696e+06 -0.0261973 0 -2.15646e+06 -0.0218047 0 -2.22366e+06 -0.017302 0 -2.28833e+06 -0.0128711 0 -2.35032e+06 -0.00866228 0 -2.40951e+06 -0.00478983 0 -2.46583e+06 -0.00132937 0 -2.51923e+06 0.00167662 0 -2.56973e+06 0.0042159 0 -2.61736e+06 0.00629901 0 -2.66218e+06 0.0079531 0 -2.70426e+06 0.0092173 0 -2.7437e+06 0.010136 0 -2.7806e+06 0.0107551 0 -2.81507e+06 0.0111215 0 -2.84725e+06 0.0112783 0 -2.87724e+06 0.0112644 0 -2.90518e+06 0.0111152 0 -2.93119e+06 0.0108608 0 -2.95538e+06 0.0105281 0 -2.97787e+06 0.0101377 0 -2.99877e+06 0.00970835 0 -3.0182e+06 0.00925389 0 -3.03626e+06 0.00878602 0 -3.05304e+06 0.00831486 0 -3.06865e+06 0.00784586 0 -3.08315e+06 0.00738616 0 -3.09665e+06 0.00693952 0 -3.10922e+06 0.00650808 0 -3.12093e+06 0.00609486 0 -3.13185e+06 0.00569927 0 -3.14204e+06 0.00532462 0 -3.15157e+06 0.00496885 0 -3.16049e+06 0.00463405 0 -3.16886e+06 0.00431763 0 -3.17672e+06 0.00402005 0 -3.18411e+06 0.00374125 0 -3.19109e+06 0.00347984 0 -3.19769e+06 0.00323522 0 -3.20394e+06 0.00300643 0 -3.20989e+06 0.00279315 0 -3.21555e+06 0.00259298 0 -3.22097e+06 0.00240748 0 -3.22617e+06 0.00223297 0 -3.23118e+06 0.00207153 0 -3.23601e+06 0.00191998 0 -3.24069e+06 0.00177962 0 -3.24524e+06 0.00164783 0 -3.24968e+06 0.0015257 0 -3.25403e+06 0.00141102 0 -3.2583e+06 0.00130451 0 -3.2625e+06 0.001205 0 -3.26666e+06 0.00111178 0 -3.27078e+06 0.00102451 0 -3.27488e+06 0.000943482 0 -3.27896e+06 0.000866532 0 -3.28304e+06 0.000795126 0 -3.28712e+06 0.000727832 0 -3.29121e+06 0.000663161 0 -3.29533e+06 0.00060308 0 -3.29947e+06 0.00054723 0 -3.30365e+06 0.000492752 0 -3.30787e+06 0.000441492 0 -3.31213e+06 0.000393152 0 -3.31644e+06 0.000346601 0 -3.32081e+06 0.000300527 0 -3.32523e+06 0.000257254 0 -3.32971e+06 0.000214458 0 -3.33426e+06 0.000172496 0 -3.33887e+06 0.000133574 0 -3.34354e+06 9.39369e-05 0 -3.34829e+06 5.43594e-05 0 -3.3531e+06 1.64509e-05 0 -3.35798e+06 -2.25306e-05 0 -3.36293e+06 -6.07967e-05 0 -3.36794e+06 -0.000100136 0 -3.37303e+06 -0.000138044 0 -3.37818e+06 -0.000177979 0 -3.38339e+06 -0.000217199 0 -3.38867e+06 -0.000258207 0 -3.39401e+06 -0.000299454 0 -3.3994e+06 -0.000339389 0 -3.40485e+06 -0.000382185 0 -3.41034e+06 -0.000426769 0 -3.41588e+06 -0.000470281 0 -3.42146e+06 -0.000513673 0 -3.42708e+06 -0.00056088 0 -3.43272e+06 -0.000607371 0 -3.43839e+06 -0.000651479 0 -3.44407e+06 -0.000700951 0 -3.44976e+06 -0.000747681 0 -3.45544e+06 -0.000794411 0 -3.46112e+06 -0.000841618 0 -3.46679e+06 -0.000888586 0 -3.47242e+06 -0.000932455 0 -3.47802e+06 -0.000976801 0 -3.48357e+06 -0.00101948 0 -3.48907e+06 -0.00105929 0 -3.49449e+06 -0.00109625 0 -3.49984e+06 -0.00112939 0 -3.50509e+06 -0.00115991 0 -3.51023e+06 -0.00118518 0 -3.51526e+06 -0.00120354 0 -3.52015e+06 -0.00121856 0 -3.5249e+06 -0.00122666 0 -3.52949e+06 -0.00122619 0 -3.53391e+06 -0.00122023 0 -3.53814e+06 -0.00120544 0 -3.54218e+06 -0.00117993 0 -3.546e+06 -0.00114846 0 -3.5496e+06 -0.00110698 0 -3.55296e+06 -0.00105548 0 -3.55608e+06 -0.000994921 0 -3.55893e+06 -0.000925779 0 -3.56152e+06 -0.000848055 0 -3.56382e+06 -0.000761986 0 -3.56584e+06 -0.000669956 0 -3.56756e+06 -0.000568867 0 -3.56898e+06 -0.000461578 0 -3.57009e+06 -0.000351906 0 -3.57088e+06 -0.000236988 0 -3.57136e+06 -0.000118256 0 -3.57152e+06 -3.8147e-06 0 -1.71553e+06 12946.4 0 -1.79178e+06 12883 0 -1.86747e+06 12748.3 0 -1.94214e+06 12545.9 0 -2.01544e+06 12280.8 0 -2.08699e+06 11959.8 0 -2.15649e+06 11590.4 0 -2.22369e+06 11180.5 0 -2.28837e+06 10738.6 0 -2.35036e+06 10272.8 0 -2.40955e+06 9790.99 0 -2.46587e+06 9300.21 0 -2.51927e+06 8806.9 0 -2.56978e+06 8316.63 0 -2.6174e+06 7834.1 0 -2.66222e+06 7363.18 0 -2.7043e+06 6906.94 0 -2.74373e+06 6467.71 0 -2.78063e+06 6047.21 0 -2.81511e+06 5646.59 0 -2.84728e+06 5266.54 0 -2.87727e+06 4907.35 0 -2.90521e+06 4569 0 -2.93121e+06 4251.22 0 -2.9554e+06 3953.54 0 -2.97789e+06 3675.35 0 -2.9988e+06 3415.93 0 -3.01822e+06 3174.48 0 -3.03628e+06 2950.17 0 -3.05306e+06 2742.13 0 -3.06866e+06 2549.48 0 -3.08317e+06 2371.37 0 -3.09667e+06 2206.94 0 -3.10923e+06 2055.36 0 -3.12094e+06 1915.84 0 -3.13186e+06 1787.6 0 -3.14205e+06 1669.93 0 -3.15158e+06 1562.11 0 -3.1605e+06 1463.5 0 -3.16887e+06 1373.47 0 -3.17672e+06 1291.44 0 -3.18412e+06 1216.86 0 -3.1911e+06 1149.21 0 -3.19769e+06 1088 0 -3.20395e+06 1032.79 0 -3.20989e+06 983.149 0 -3.21556e+06 938.681 0 -3.22098e+06 899.016 0 -3.22618e+06 863.811 0 -3.23118e+06 832.743 0 -3.23601e+06 805.513 0 -3.24069e+06 781.841 0 -3.24524e+06 761.465 0 -3.24968e+06 744.144 0 -3.25403e+06 729.648 0 -3.2583e+06 717.768 0 -3.2625e+06 708.305 0 -3.26666e+06 701.075 0 -3.27078e+06 695.905 0 -3.27488e+06 692.634 0 -3.27896e+06 691.111 0 -3.28304e+06 691.194 0 -3.28712e+06 692.75 0 -3.29121e+06 695.654 0 -3.29533e+06 699.788 0 -3.29947e+06 705.04 0 -3.30365e+06 711.306 0 -3.30787e+06 718.485 0 -3.31213e+06 726.482 0 -3.31644e+06 735.207 0 -3.32081e+06 744.572 0 -3.32523e+06 754.493 0 -3.32971e+06 764.89 0 -3.33426e+06 775.685 0 -3.33887e+06 786.8 0 -3.34354e+06 798.162 0 -3.34829e+06 809.697 0 -3.3531e+06 821.333 0 -3.35798e+06 832.999 0 -3.36293e+06 844.622 0 -3.36794e+06 856.131 0 -3.37303e+06 867.456 0 -3.37818e+06 878.524 0 -3.38339e+06 889.263 0 -3.38867e+06 899.598 0 -3.39401e+06 909.456 0 -3.3994e+06 918.761 0 -3.40485e+06 927.435 0 -3.41034e+06 935.4 0 -3.41588e+06 942.576 0 -3.42146e+06 948.881 0 -3.42708e+06 954.232 0 -3.43272e+06 958.545 0 -3.43839e+06 961.735 0 -3.44407e+06 963.715 0 -3.44976e+06 964.398 0 -3.45544e+06 963.696 0 -3.46112e+06 961.522 0 -3.46679e+06 957.789 0 -3.47242e+06 952.412 0 -3.47802e+06 945.306 0 -3.48358e+06 936.39 0 -3.48907e+06 925.586 0 -3.49449e+06 912.82 0 -3.49984e+06 898.024 0 -3.50509e+06 881.135 0 -3.51023e+06 862.099 0 -3.51526e+06 840.87 0 -3.52015e+06 817.409 0 -3.5249e+06 791.693 0 -3.52949e+06 763.707 0 -3.53391e+06 733.449 0 -3.53814e+06 700.934 0 -3.54218e+06 666.189 0 -3.546e+06 629.259 0 -3.5496e+06 590.203 0 -3.55297e+06 549.1 0 -3.55608e+06 506.043 0 -3.55894e+06 461.143 0 -3.56152e+06 414.529 0 -3.56383e+06 366.343 0 -3.56584e+06 316.747 0 -3.56757e+06 265.911 0 -3.56898e+06 214.023 0 -3.57009e+06 161.278 0 -3.57089e+06 107.884 0 -3.57137e+06 54.0519 0 -3.57153e+06 2.73809e-06 0 -1.71553e+06 25894.8 0 -1.79181e+06 25768.1 0 -1.86751e+06 25498.6 0 -1.9422e+06 25093.5 0 -2.01551e+06 24563.3 0 -2.08708e+06 23921.1 0 -2.15659e+06 23181.9 0 -2.2238e+06 22361.9 0 -2.28849e+06 21477.9 0 -2.35048e+06 20546.1 0 -2.40968e+06 19582.2 0 -2.46599e+06 18600.5 0 -2.5194e+06 17613.7 0 -2.5699e+06 16633 0 -2.61753e+06 15667.9 0 -2.66234e+06 14725.9 0 -2.70441e+06 13813.4 0 -2.74384e+06 12934.9 0 -2.78073e+06 12093.8 0 -2.81521e+06 11292.6 0 -2.84737e+06 10532.5 0 -2.87736e+06 9814.1 0 -2.90529e+06 9137.4 0 -2.93129e+06 8501.86 0 -2.95547e+06 7906.52 0 -2.97796e+06 7350.16 0 -2.99886e+06 6831.34 0 -3.01828e+06 6348.47 0 -3.03633e+06 5899.87 0 -3.05311e+06 5483.81 0 -3.06871e+06 5098.55 0 -3.08321e+06 4742.35 0 -3.09671e+06 4413.51 0 -3.10927e+06 4110.38 0 -3.12097e+06 3831.35 0 -3.13189e+06 3574.9 0 -3.14208e+06 3339.57 0 -3.15161e+06 3123.96 0 -3.16052e+06 2926.76 0 -3.16889e+06 2746.72 0 -3.17674e+06 2582.67 0 -3.18414e+06 2433.52 0 -3.19111e+06 2298.23 0 -3.19771e+06 2175.84 0 -3.20396e+06 2065.42 0 -3.2099e+06 1966.15 0 -3.21557e+06 1877.22 0 -3.22099e+06 1797.9 0 -3.22618e+06 1727.5 0 -3.23119e+06 1665.38 0 -3.23602e+06 1610.92 0 -3.2407e+06 1563.59 0 -3.24525e+06 1522.84 0 -3.24969e+06 1488.21 0 -3.25403e+06 1459.22 0 -3.2583e+06 1435.47 0 -3.26251e+06 1416.55 0 -3.26666e+06 1402.09 0 -3.27078e+06 1391.76 0 -3.27488e+06 1385.22 0 -3.27896e+06 1382.18 0 -3.28304e+06 1382.35 0 -3.28712e+06 1385.46 0 -3.29121e+06 1391.27 0 -3.29533e+06 1399.54 0 -3.29947e+06 1410.05 0 -3.30365e+06 1422.59 0 -3.30787e+06 1436.95 0 -3.31213e+06 1452.94 0 -3.31644e+06 1470.4 0 -3.32081e+06 1489.13 0 -3.32523e+06 1508.97 0 -3.32971e+06 1529.77 0 -3.33425e+06 1551.36 0 -3.33886e+06 1573.59 0 -3.34354e+06 1596.32 0 -3.34828e+06 1619.39 0 -3.35309e+06 1642.67 0 -3.35797e+06 1666 0 -3.36292e+06 1689.25 0 -3.36794e+06 1712.27 0 -3.37303e+06 1734.92 0 -3.37818e+06 1757.06 0 -3.38339e+06 1778.54 0 -3.38867e+06 1799.21 0 -3.39401e+06 1818.93 0 -3.3994e+06 1837.54 0 -3.40485e+06 1854.89 0 -3.41034e+06 1870.82 0 -3.41588e+06 1885.18 0 -3.42146e+06 1897.79 0 -3.42708e+06 1908.49 0 -3.43272e+06 1917.12 0 -3.43839e+06 1923.5 0 -3.44407e+06 1927.47 0 -3.44976e+06 1928.83 0 -3.45545e+06 1927.43 0 -3.46113e+06 1923.09 0 -3.46679e+06 1915.63 0 -3.47243e+06 1904.87 0 -3.47803e+06 1890.66 0 -3.48358e+06 1872.83 0 -3.48907e+06 1851.23 0 -3.4945e+06 1825.7 0 -3.49984e+06 1796.11 0 -3.50509e+06 1762.33 0 -3.51024e+06 1724.26 0 -3.51526e+06 1681.8 0 -3.52016e+06 1634.88 0 -3.52491e+06 1583.45 0 -3.5295e+06 1527.48 0 -3.53392e+06 1466.96 0 -3.53815e+06 1401.93 0 -3.54219e+06 1332.44 0 -3.54601e+06 1258.58 0 -3.54961e+06 1180.47 0 -3.55298e+06 1098.26 0 -3.55609e+06 1012.14 0 -3.55895e+06 922.335 0 -3.56153e+06 829.102 0 -3.56384e+06 732.727 0 -3.56586e+06 633.529 0 -3.56758e+06 531.852 0 -3.569e+06 428.07 0 -3.57011e+06 322.575 0 -3.5709e+06 215.78 0 -3.57138e+06 108.11 0 -3.57154e+06 -2.63005e-06 0 -1.71554e+06 38847.5 0 -1.79185e+06 38657.3 0 -1.86758e+06 38252.9 0 -1.9423e+06 37644.8 0 -2.01563e+06 36849 0 -2.08722e+06 35885.1 0 -2.15676e+06 34775.7 0 -2.22398e+06 33545.2 0 -2.28868e+06 32218.6 0 -2.35069e+06 30820.4 0 -2.40988e+06 29374 0 -2.4662e+06 27900.9 0 -2.51961e+06 26420.3 0 -2.57011e+06 24949 0 -2.61773e+06 23501 0 -2.66253e+06 22087.9 0 -2.7046e+06 20718.8 0 -2.74402e+06 19401 0 -2.78091e+06 18139.3 0 -2.81537e+06 16937.4 0 -2.84753e+06 15797.2 0 -2.87751e+06 14719.6 0 -2.90543e+06 13704.6 0 -2.93142e+06 12751.3 0 -2.9556e+06 11858.4 0 -2.97807e+06 11023.9 0 -2.99897e+06 10245.7 0 -3.01838e+06 9521.46 0 -3.03643e+06 8848.63 0 -3.0532e+06 8224.6 0 -3.06879e+06 7646.77 0 -3.08328e+06 7112.54 0 -3.09677e+06 6619.34 0 -3.10933e+06 6164.69 0 -3.12103e+06 5746.21 0 -3.13194e+06 5361.59 0 -3.14213e+06 5008.64 0 -3.15165e+06 4685.27 0 -3.16056e+06 4389.51 0 -3.16892e+06 4119.5 0 -3.17678e+06 3873.47 0 -3.18417e+06 3649.79 0 -3.19114e+06 3446.89 0 -3.19773e+06 3263.32 0 -3.20398e+06 3097.73 0 -3.20992e+06 2948.85 0 -3.21559e+06 2815.49 0 -3.221e+06 2696.53 0 -3.2262e+06 2590.96 0 -3.2312e+06 2497.79 0 -3.23603e+06 2416.13 0 -3.24071e+06 2345.14 0 -3.24526e+06 2284.05 0 -3.24969e+06 2232.11 0 -3.25404e+06 2188.64 0 -3.25831e+06 2153.03 0 -3.26251e+06 2124.66 0 -3.26667e+06 2102.99 0 -3.27079e+06 2087.5 0 -3.27488e+06 2077.7 0 -3.27896e+06 2073.15 0 -3.28304e+06 2073.41 0 -3.28712e+06 2078.09 0 -3.29121e+06 2086.82 0 -3.29533e+06 2099.23 0 -3.29947e+06 2115 0 -3.30365e+06 2133.81 0 -3.30786e+06 2155.36 0 -3.31213e+06 2179.36 0 -3.31644e+06 2205.55 0 -3.3208e+06 2233.65 0 -3.32522e+06 2263.43 0 -3.32971e+06 2294.63 0 -3.33425e+06 2327.02 0 -3.33886e+06 2360.37 0 -3.34353e+06 2394.47 0 -3.34828e+06 2429.08 0 -3.35309e+06 2464 0 -3.35797e+06 2499 0 -3.36292e+06 2533.88 0 -3.36794e+06 2568.42 0 -3.37302e+06 2602.4 0 -3.37817e+06 2635.61 0 -3.38339e+06 2667.83 0 -3.38866e+06 2698.85 0 -3.394e+06 2728.43 0 -3.3994e+06 2756.36 0 -3.40484e+06 2782.39 0 -3.41034e+06 2806.29 0 -3.41588e+06 2827.83 0 -3.42146e+06 2846.75 0 -3.42708e+06 2862.82 0 -3.43272e+06 2875.76 0 -3.43839e+06 2885.34 0 -3.44407e+06 2891.29 0 -3.44976e+06 2893.35 0 -3.45545e+06 2891.26 0 -3.46113e+06 2884.75 0 -3.46679e+06 2873.56 0 -3.47243e+06 2857.43 0 -3.47803e+06 2836.13 0 -3.48358e+06 2809.39 0 -3.48908e+06 2776.98 0 -3.4945e+06 2738.69 0 -3.49985e+06 2694.31 0 -3.5051e+06 2643.65 0 -3.51025e+06 2586.55 0 -3.51527e+06 2522.87 0 -3.52017e+06 2452.49 0 -3.52492e+06 2375.34 0 -3.52951e+06 2291.38 0 -3.53393e+06 2200.61 0 -3.53817e+06 2103.06 0 -3.5422e+06 1998.82 0 -3.54603e+06 1888.02 0 -3.54963e+06 1770.85 0 -3.55299e+06 1647.52 0 -3.55611e+06 1518.34 0 -3.55897e+06 1383.63 0 -3.56155e+06 1243.77 0 -3.56386e+06 1099.19 0 -3.56588e+06 950.382 0 -3.5676e+06 797.854 0 -3.56902e+06 642.167 0 -3.57013e+06 483.91 0 -3.57092e+06 323.702 0 -3.5714e+06 162.181 0 -3.57156e+06 1.78814e-07 0 -1.71556e+06 51806.6 0 -1.79191e+06 51552.7 0 -1.86768e+06 51012.9 0 -1.94244e+06 50201.5 0 -2.01581e+06 49139.6 0 -2.08743e+06 47853.3 0 -2.15699e+06 46373 0 -2.22424e+06 44731.2 0 -2.28895e+06 42961.3 0 -2.35097e+06 41096 0 -2.41017e+06 39166.5 0 -2.46649e+06 37201.5 0 -2.5199e+06 35226.7 0 -2.5704e+06 33264.3 0 -2.61801e+06 31333.1 0 -2.66281e+06 29448.5 0 -2.70487e+06 27622.8 0 -2.74428e+06 25865.4 0 -2.78115e+06 24183.1 0 -2.8156e+06 22580.4 0 -2.84775e+06 21060.1 0 -2.87772e+06 19623.4 0 -2.90563e+06 18270.1 0 -2.9316e+06 16999.1 0 -2.95577e+06 15808.5 0 -2.97823e+06 14696 0 -2.99911e+06 13658.5 0 -3.01852e+06 12693 0 -3.03655e+06 11796 0 -3.05332e+06 10964.1 0 -3.0689e+06 10193.7 0 -3.08339e+06 9481.54 0 -3.09687e+06 8824.05 0 -3.10942e+06 8217.97 0 -3.12111e+06 7660.1 0 -3.13201e+06 7147.37 0 -3.14219e+06 6676.86 0 -3.15171e+06 6245.79 0 -3.16062e+06 5851.53 0 -3.16897e+06 5491.59 0 -3.17682e+06 5163.63 0 -3.18421e+06 4865.45 0 -3.19118e+06 4594.98 0 -3.19777e+06 4350.29 0 -3.20401e+06 4129.56 0 -3.20995e+06 3931.11 0 -3.21561e+06 3753.34 0 -3.22102e+06 3594.78 0 -3.22622e+06 3454.05 0 -3.23122e+06 3329.87 0 -3.23604e+06 3221.03 0 -3.24072e+06 3126.41 0 -3.24527e+06 3044.98 0 -3.2497e+06 2975.76 0 -3.25405e+06 2917.84 0 -3.25831e+06 2870.38 0 -3.26252e+06 2832.58 0 -3.26667e+06 2803.71 0 -3.27079e+06 2783.08 0 -3.27488e+06 2770.03 0 -3.27896e+06 2763.98 0 -3.28304e+06 2764.35 0 -3.28712e+06 2770.61 0 -3.29121e+06 2782.26 0 -3.29532e+06 2798.83 0 -3.29947e+06 2819.87 0 -3.30364e+06 2844.96 0 -3.30786e+06 2873.71 0 -3.31212e+06 2905.72 0 -3.31643e+06 2940.64 0 -3.3208e+06 2978.13 0 -3.32522e+06 3017.84 0 -3.3297e+06 3059.45 0 -3.33424e+06 3102.65 0 -3.33885e+06 3147.13 0 -3.34353e+06 3192.6 0 -3.34827e+06 3238.76 0 -3.35308e+06 3285.32 0 -3.35796e+06 3332.01 0 -3.36291e+06 3378.52 0 -3.36793e+06 3424.58 0 -3.37301e+06 3469.9 0 -3.37816e+06 3514.19 0 -3.38338e+06 3557.17 0 -3.38866e+06 3598.53 0 -3.394e+06 3637.98 0 -3.39939e+06 3675.23 0 -3.40484e+06 3709.94 0 -3.41033e+06 3741.83 0 -3.41588e+06 3770.55 0 -3.42146e+06 3795.8 0 -3.42707e+06 3817.23 0 -3.43272e+06 3834.5 0 -3.43838e+06 3847.29 0 -3.44407e+06 3855.23 0 -3.44976e+06 3857.99 0 -3.45545e+06 3855.21 0 -3.46113e+06 3846.54 0 -3.46679e+06 3831.63 0 -3.47243e+06 3810.14 0 -3.47803e+06 3781.74 0 -3.48359e+06 3746.1 0 -3.48908e+06 3702.91 0 -3.49451e+06 3651.86 0 -3.49986e+06 3592.7 0 -3.50511e+06 3525.16 0 -3.51026e+06 3449.03 0 -3.51529e+06 3364.12 0 -3.52018e+06 3270.29 0 -3.52493e+06 3167.43 0 -3.52953e+06 3055.48 0 -3.53395e+06 2934.45 0 -3.53819e+06 2804.38 0 -3.54222e+06 2665.39 0 -3.54605e+06 2517.65 0 -3.54965e+06 2361.4 0 -3.55302e+06 2196.96 0 -3.55614e+06 2024.7 0 -3.55899e+06 1845.07 0 -3.56158e+06 1658.57 0 -3.56389e+06 1465.78 0 -3.56591e+06 1267.34 0 -3.56763e+06 1063.95 0 -3.56905e+06 856.338 0 -3.57016e+06 645.301 0 -3.57096e+06 431.662 0 -3.57144e+06 216.271 0 -3.5716e+06 2.83122e-06 0 -1.71558e+06 64774.1 0 -1.79199e+06 64456.4 0 -1.86781e+06 63780.9 0 -1.94262e+06 62765.5 0 -2.01604e+06 61436.6 0 -2.08769e+06 59827.1 0 -2.15729e+06 57975 0 -2.22456e+06 55921 0 -2.2893e+06 53706.7 0 -2.35133e+06 51373.4 0 -2.41055e+06 48960 0 -2.46687e+06 46502.4 0 -2.52028e+06 44032.7 0 -2.57077e+06 41578.6 0 -2.61838e+06 39163.8 0 -2.66316e+06 36807.4 0 -2.70521e+06 34524.8 0 -2.74461e+06 32327.7 0 -2.78147e+06 30224.6 0 -2.8159e+06 28221.1 0 -2.84803e+06 26320.7 0 -2.87798e+06 24524.7 0 -2.90588e+06 22833.1 0 -2.93184e+06 21244.5 0 -2.95599e+06 19756.5 0 -2.97844e+06 18365.9 0 -2.9993e+06 17069.3 0 -3.0187e+06 15862.5 0 -3.03672e+06 14741.5 0 -3.05347e+06 13701.8 0 -3.06904e+06 12739 0 -3.08352e+06 11849 0 -3.09699e+06 11027.3 0 -3.10953e+06 10269.9 0 -3.12121e+06 9572.69 0 -3.13211e+06 8931.93 0 -3.14228e+06 8343.95 0 -3.15179e+06 7805.25 0 -3.16069e+06 7312.56 0 -3.16904e+06 6862.76 0 -3.17688e+06 6452.93 0 -3.18426e+06 6080.32 0 -3.19123e+06 5742.34 0 -3.19781e+06 5436.57 0 -3.20405e+06 5160.75 0 -3.20999e+06 4912.77 0 -3.21564e+06 4690.64 0 -3.22105e+06 4492.51 0 -3.22624e+06 4316.67 0 -3.23124e+06 4161.51 0 -3.23606e+06 4025.52 0 -3.24074e+06 3907.31 0 -3.24528e+06 3805.57 0 -3.24972e+06 3719.09 0 -3.25406e+06 3646.74 0 -3.25832e+06 3587.45 0 -3.26252e+06 3540.24 0 -3.26667e+06 3504.19 0 -3.27079e+06 3478.43 0 -3.27488e+06 3462.17 0 -3.27896e+06 3454.63 0 -3.28303e+06 3455.12 0 -3.28711e+06 3462.97 0 -3.29121e+06 3477.56 0 -3.29532e+06 3498.29 0 -3.29946e+06 3524.62 0 -3.30364e+06 3556 0 -3.30785e+06 3591.95 0 -3.31212e+06 3631.99 0 -3.31643e+06 3675.67 0 -3.32079e+06 3722.54 0 -3.32521e+06 3772.19 0 -3.32969e+06 3824.22 0 -3.33424e+06 3878.24 0 -3.33884e+06 3933.86 0 -3.34352e+06 3990.71 0 -3.34826e+06 4048.43 0 -3.35307e+06 4106.65 0 -3.35795e+06 4165.02 0 -3.3629e+06 4223.17 0 -3.36792e+06 4280.76 0 -3.37301e+06 4337.43 0 -3.37816e+06 4392.81 0 -3.38337e+06 4446.55 0 -3.38865e+06 4498.27 0 -3.39399e+06 4547.6 0 -3.39938e+06 4594.17 0 -3.40483e+06 4637.58 0 -3.41033e+06 4677.45 0 -3.41587e+06 4713.38 0 -3.42145e+06 4744.95 0 -3.42707e+06 4771.76 0 -3.43271e+06 4793.37 0 -3.43838e+06 4809.37 0 -3.44406e+06 4819.32 0 -3.44976e+06 4822.79 0 -3.45545e+06 4819.33 0 -3.46113e+06 4808.51 0 -3.4668e+06 4789.89 0 -3.47244e+06 4763.05 0 -3.47804e+06 4727.57 0 -3.4836e+06 4683.04 0 -3.48909e+06 4629.06 0 -3.49452e+06 4565.27 0 -3.49987e+06 4491.32 0 -3.50512e+06 4406.91 0 -3.51027e+06 4311.76 0 -3.5153e+06 4205.63 0 -3.5202e+06 4088.35 0 -3.52495e+06 3959.77 0 -3.52955e+06 3819.84 0 -3.53397e+06 3668.55 0 -3.53821e+06 3505.95 0 -3.54225e+06 3332.21 0 -3.54608e+06 3147.52 0 -3.54968e+06 2952.2 0 -3.55305e+06 2746.63 0 -3.55617e+06 2531.28 0 -3.55903e+06 2306.7 0 -3.56162e+06 2073.55 0 -3.56393e+06 1832.53 0 -3.56595e+06 1584.45 0 -3.56767e+06 1330.16 0 -3.56909e+06 1070.61 0 -3.5702e+06 806.767 0 -3.571e+06 539.672 0 -3.57148e+06 270.386 0 -3.57164e+06 -2.95043e-06 0 -1.71561e+06 77752.2 0 -1.79208e+06 77370.4 0 -1.86797e+06 76558.6 0 -1.94284e+06 75338.4 0 -2.01631e+06 73741.7 0 -2.08802e+06 71807.9 0 -2.15766e+06 69582.8 0 -2.22496e+06 67115.3 0 -2.28972e+06 64455.6 0 -2.35177e+06 61653.2 0 -2.411e+06 58754.8 0 -2.46733e+06 55803.7 0 -2.52074e+06 52838.2 0 -2.57122e+06 49891.9 0 -2.61882e+06 46992.8 0 -2.6636e+06 44164.2 0 -2.70563e+06 41424.4 0 -2.74501e+06 38787.3 0 -2.78185e+06 36263.2 0 -2.81626e+06 33858.8 0 -2.84838e+06 31578.2 0 -2.87831e+06 29423 0 -2.90618e+06 27393.2 0 -2.93213e+06 25487 0 -2.95625e+06 23701.6 0 -2.97869e+06 22033.2 0 -2.99954e+06 20477.4 0 -3.01891e+06 19029.6 0 -3.03692e+06 17684.6 0 -3.05365e+06 16437.2 0 -3.06921e+06 15282.3 0 -3.08368e+06 14214.4 0 -3.09713e+06 13228.7 0 -3.10966e+06 12320 0 -3.12134e+06 11483.7 0 -3.13222e+06 10715 0 -3.14238e+06 10009.6 0 -3.15189e+06 9363.39 0 -3.16078e+06 8772.36 0 -3.16912e+06 8232.79 0 -3.17695e+06 7741.16 0 -3.18433e+06 7294.19 0 -3.19129e+06 6888.76 0 -3.19786e+06 6521.99 0 -3.2041e+06 6191.14 0 -3.21003e+06 5893.69 0 -3.21568e+06 5627.24 0 -3.22109e+06 5389.61 0 -3.22627e+06 5178.7 0 -3.23126e+06 4992.6 0 -3.23609e+06 4829.5 0 -3.24076e+06 4687.73 0 -3.2453e+06 4565.72 0 -3.24973e+06 4462.02 0 -3.25407e+06 4375.26 0 -3.25833e+06 4304.18 0 -3.26253e+06 4247.58 0 -3.26668e+06 4204.38 0 -3.27079e+06 4173.52 0 -3.27488e+06 4154.05 0 -3.27896e+06 4145.05 0 -3.28303e+06 4145.68 0 -3.28711e+06 4155.14 0 -3.2912e+06 4172.68 0 -3.29532e+06 4197.6 0 -3.29946e+06 4229.22 0 -3.30363e+06 4266.92 0 -3.30785e+06 4310.09 0 -3.31211e+06 4358.16 0 -3.31642e+06 4410.6 0 -3.32078e+06 4466.87 0 -3.3252e+06 4526.48 0 -3.32968e+06 4588.94 0 -3.33423e+06 4653.79 0 -3.33883e+06 4720.55 0 -3.34351e+06 4788.8 0 -3.34825e+06 4858.08 0 -3.35306e+06 4927.97 0 -3.35794e+06 4998.03 0 -3.36289e+06 5067.84 0 -3.36791e+06 5136.97 0 -3.37299e+06 5205 0 -3.37815e+06 5271.48 0 -3.38336e+06 5335.98 0 -3.38864e+06 5398.07 0 -3.39398e+06 5457.3 0 -3.39937e+06 5513.2 0 -3.40482e+06 5565.33 0 -3.41032e+06 5613.2 0 -3.41586e+06 5656.33 0 -3.42145e+06 5694.25 0 -3.42706e+06 5726.44 0 -3.43271e+06 5752.4 0 -3.43838e+06 5771.63 0 -3.44406e+06 5783.6 0 -3.44976e+06 5787.78 0 -3.45545e+06 5783.66 0 -3.46113e+06 5770.7 0 -3.4668e+06 5748.39 0 -3.47244e+06 5716.21 0 -3.47805e+06 5673.66 0 -3.4836e+06 5620.24 0 -3.4891e+06 5555.49 0 -3.49454e+06 5478.97 0 -3.49988e+06 5390.25 0 -3.50514e+06 5288.98 0 -3.51029e+06 5174.81 0 -3.51532e+06 5047.47 0 -3.52022e+06 4906.73 0 -3.52498e+06 4752.45 0 -3.52958e+06 4584.53 0 -3.534e+06 4402.97 0 -3.53824e+06 4207.85 0 -3.54228e+06 3999.34 0 -3.54611e+06 3777.7 0 -3.54972e+06 3543.29 0 -3.55309e+06 3296.57 0 -3.55621e+06 3038.12 0 -3.55907e+06 2768.59 0 -3.56166e+06 2488.76 0 -3.56397e+06 2199.49 0 -3.56599e+06 1901.73 0 -3.56772e+06 1596.53 0 -3.56914e+06 1285 0 -3.57025e+06 968.327 0 -3.57105e+06 647.745 0 -3.57153e+06 324.533 0 -3.57169e+06 1.69873e-06 0 -1.71564e+06 90742.9 0 -1.79219e+06 90296.7 0 -1.86816e+06 89348.1 0 -1.9431e+06 87922.3 0 -2.01664e+06 86056.4 0 -2.0884e+06 83797.1 0 -2.15809e+06 81197.6 0 -2.22544e+06 78315.2 0 -2.29023e+06 75208.6 0 -2.3523e+06 71935.7 0 -2.41154e+06 68551.1 0 -2.46788e+06 65105.3 0 -2.52128e+06 61643.2 0 -2.57176e+06 58203.7 0 -2.61935e+06 54819.8 0 -2.66411e+06 51518.5 0 -2.70612e+06 48321 0 -2.74548e+06 45243.6 0 -2.7823e+06 42298.3 0 -2.8167e+06 39492.9 0 -2.84878e+06 36832.1 0 -2.87869e+06 34317.8 0 -2.90655e+06 31949.8 0 -2.93246e+06 29726.1 0 -2.95657e+06 27643.3 0 -2.97898e+06 25697.2 0 -2.99981e+06 23882.5 0 -3.01917e+06 22193.7 0 -3.03716e+06 20624.9 0 -3.05387e+06 19170.1 0 -3.06941e+06 17823 0 -3.08386e+06 16577.5 0 -3.09731e+06 15427.9 0 -3.10982e+06 14368.1 0 -3.12148e+06 13392.7 0 -3.13236e+06 12496.2 0 -3.14251e+06 11673.6 0 -3.152e+06 10919.9 0 -3.16088e+06 10230.7 0 -3.16921e+06 9601.43 0 -3.17704e+06 9028.11 0 -3.18441e+06 8506.87 0 -3.19136e+06 8034.08 0 -3.19793e+06 7606.37 0 -3.20416e+06 7220.57 0 -3.21008e+06 6873.71 0 -3.21573e+06 6563.02 0 -3.22113e+06 6285.93 0 -3.22631e+06 6040.01 0 -3.2313e+06 5823.02 0 -3.23611e+06 5632.86 0 -3.24078e+06 5467.58 0 -3.24532e+06 5325.34 0 -3.24975e+06 5204.45 0 -3.25408e+06 5103.33 0 -3.25834e+06 5020.48 0 -3.26254e+06 4954.54 0 -3.26669e+06 4904.21 0 -3.2708e+06 4868.28 0 -3.27489e+06 4845.63 0 -3.27896e+06 4835.19 0 -3.28303e+06 4835.99 0 -3.28711e+06 4847.08 0 -3.2912e+06 4867.6 0 -3.29531e+06 4896.71 0 -3.29945e+06 4933.65 0 -3.30362e+06 4977.67 0 -3.30784e+06 5028.08 0 -3.3121e+06 5084.21 0 -3.31641e+06 5145.42 0 -3.32077e+06 5211.11 0 -3.32519e+06 5280.69 0 -3.32967e+06 5353.59 0 -3.33421e+06 5429.28 0 -3.33882e+06 5507.21 0 -3.3435e+06 5586.86 0 -3.34824e+06 5667.72 0 -3.35305e+06 5749.29 0 -3.35793e+06 5831.06 0 -3.36288e+06 5912.53 0 -3.3679e+06 5993.22 0 -3.37298e+06 6072.61 0 -3.37813e+06 6150.2 0 -3.38335e+06 6225.49 0 -3.38863e+06 6297.96 0 -3.39397e+06 6367.09 0 -3.39936e+06 6432.34 0 -3.40481e+06 6493.19 0 -3.41031e+06 6549.07 0 -3.41586e+06 6599.43 0 -3.42144e+06 6643.7 0 -3.42706e+06 6681.3 0 -3.43271e+06 6711.63 0 -3.43838e+06 6734.1 0 -3.44406e+06 6748.09 0 -3.44976e+06 6753.02 0 -3.45545e+06 6748.24 0 -3.46114e+06 6733.17 0 -3.46681e+06 6707.18 0 -3.47245e+06 6669.67 0 -3.47806e+06 6620.06 0 -3.48362e+06 6557.77 0 -3.48912e+06 6482.26 0 -3.49455e+06 6393.01 0 -3.4999e+06 6289.54 0 -3.50516e+06 6171.41 0 -3.51031e+06 6038.23 0 -3.51535e+06 5889.69 0 -3.52025e+06 5725.51 0 -3.52501e+06 5545.51 0 -3.52961e+06 5349.61 0 -3.53404e+06 5137.79 0 -3.53828e+06 4910.13 0 -3.54232e+06 4666.85 0 -3.54616e+06 4408.24 0 -3.54976e+06 4134.73 0 -3.55314e+06 3846.85 0 -3.55626e+06 3545.27 0 -3.55912e+06 3230.77 0 -3.56171e+06 2904.24 0 -3.56403e+06 2566.68 0 -3.56605e+06 2219.23 0 -3.56777e+06 1863.08 0 -3.5692e+06 1499.54 0 -3.57031e+06 1130 0 -3.57111e+06 755.893 0 -3.57159e+06 378.718 0 -3.57175e+06 1.78814e-07 0 -1.71567e+06 103749 0 -1.79232e+06 103238 0 -1.86838e+06 102151 0 -1.9434e+06 100519 0 -2.01701e+06 98382.6 0 -2.08885e+06 95796.1 0 -2.15859e+06 92820.5 0 -2.22598e+06 89521.5 0 -2.29081e+06 85966.4 0 -2.35291e+06 82221.4 0 -2.41216e+06 78349.2 0 -2.46851e+06 74407.4 0 -2.52191e+06 70447.5 0 -2.57238e+06 66514 0 -2.61996e+06 62644.5 0 -2.6647e+06 58869.7 0 -2.70669e+06 55214.1 0 -2.74603e+06 51696.2 0 -2.78282e+06 48329.4 0 -2.81719e+06 45122.8 0 -2.84925e+06 42081.7 0 -2.87914e+06 39208.3 0 -2.90696e+06 36502.2 0 -2.93286e+06 33961.1 0 -2.95694e+06 31581.1 0 -2.97932e+06 29357.4 0 -3.00013e+06 27283.9 0 -3.01947e+06 25354.4 0 -3.03743e+06 23562 0 -3.05413e+06 21899.8 0 -3.06965e+06 20360.7 0 -3.08408e+06 18937.9 0 -3.09751e+06 17624.4 0 -3.11001e+06 16413.8 0 -3.12165e+06 15299.4 0 -3.13251e+06 14275.3 0 -3.14265e+06 13335.6 0 -3.15213e+06 12474.6 0 -3.161e+06 11687.3 0 -3.16932e+06 10968.5 0 -3.17714e+06 10313.6 0 -3.1845e+06 9718.15 0 -3.19144e+06 9178.1 0 -3.198e+06 8689.55 0 -3.20422e+06 8248.88 0 -3.21014e+06 7852.7 0 -3.21578e+06 7497.84 0 -3.22118e+06 7181.36 0 -3.22635e+06 6900.49 0 -3.23133e+06 6652.68 0 -3.23615e+06 6435.51 0 -3.24081e+06 6246.76 0 -3.24534e+06 6084.35 0 -3.24977e+06 5946.32 0 -3.2541e+06 5830.87 0 -3.25836e+06 5736.31 0 -3.26255e+06 5661.05 0 -3.26669e+06 5603.63 0 -3.2708e+06 5562.66 0 -3.27489e+06 5536.85 0 -3.27896e+06 5525.01 0 -3.28303e+06 5525.99 0 -3.28711e+06 5538.74 0 -3.2912e+06 5562.26 0 -3.29531e+06 5595.6 0 -3.29944e+06 5637.87 0 -3.30362e+06 5688.24 0 -3.30783e+06 5745.9 0 -3.31209e+06 5810.1 0 -3.3164e+06 5880.11 0 -3.32076e+06 5955.23 0 -3.32518e+06 6034.8 0 -3.32966e+06 6118.16 0 -3.3342e+06 6204.7 0 -3.33881e+06 6293.81 0 -3.34348e+06 6384.88 0 -3.34822e+06 6477.34 0 -3.35303e+06 6570.6 0 -3.35791e+06 6664.09 0 -3.36286e+06 6757.25 0 -3.36788e+06 6849.5 0 -3.37297e+06 6940.27 0 -3.37812e+06 7028.99 0 -3.38334e+06 7115.08 0 -3.38862e+06 7197.94 0 -3.39396e+06 7276.99 0 -3.39935e+06 7351.61 0 -3.4048e+06 7421.19 0 -3.4103e+06 7485.11 0 -3.41585e+06 7542.71 0 -3.42143e+06 7593.35 0 -3.42705e+06 7636.36 0 -3.4327e+06 7671.08 0 -3.43837e+06 7696.8 0 -3.44406e+06 7712.85 0 -3.44976e+06 7718.53 0 -3.45545e+06 7713.13 0 -3.46114e+06 7695.94 0 -3.46681e+06 7666.29 0 -3.47246e+06 7623.47 0 -3.47807e+06 7566.82 0 -3.48363e+06 7495.68 0 -3.48913e+06 7409.43 0 -3.49457e+06 7307.47 0 -3.49992e+06 7189.25 0 -3.50518e+06 7054.28 0 -3.51034e+06 6902.1 0 -3.51538e+06 6732.35 0 -3.52028e+06 6544.74 0 -3.52504e+06 6339.04 0 -3.52965e+06 6115.15 0 -3.53408e+06 5873.06 0 -3.53832e+06 5612.87 0 -3.54237e+06 5334.8 0 -3.54621e+06 5039.21 0 -3.54982e+06 4726.58 0 -3.55319e+06 4397.53 0 -3.55632e+06 4052.8 0 -3.55918e+06 3693.3 0 -3.56177e+06 3320.03 0 -3.56409e+06 2934.17 0 -3.56611e+06 2536.97 0 -3.56784e+06 2129.84 0 -3.56926e+06 1714.26 0 -3.57038e+06 1291.8 0 -3.57117e+06 864.131 0 -3.57166e+06 432.948 0 -3.57182e+06 0 0 -1.71571e+06 116771 0 -1.79246e+06 116195 0 -1.86862e+06 114970 0 -1.94375e+06 113130 0 -2.01744e+06 110722 0 -2.08935e+06 107806 0 -2.15916e+06 104453 0 -2.2266e+06 100735 0 -2.29147e+06 96729.6 0 -2.3536e+06 92510.7 0 -2.41287e+06 88149.2 0 -2.46922e+06 83710 0 -2.52262e+06 79251 0 -2.57309e+06 74822.4 0 -2.62065e+06 70466.3 0 -2.66537e+06 66217.5 0 -2.70734e+06 62103.2 0 -2.74665e+06 58144.3 0 -2.78342e+06 54355.9 0 -2.81775e+06 50748 0 -2.84979e+06 47326.6 0 -2.87964e+06 44094 0 -2.90743e+06 41049.8 0 -2.9333e+06 38191.4 0 -2.95735e+06 35514.5 0 -2.97971e+06 33013.3 0 -3.00049e+06 30681.2 0 -3.0198e+06 28511.1 0 -3.03774e+06 26495.3 0 -3.05442e+06 24626 0 -3.06992e+06 22895.2 0 -3.08433e+06 21295.1 0 -3.09773e+06 19818.1 0 -3.11022e+06 18456.6 0 -3.12184e+06 17203.6 0 -3.13269e+06 16052 0 -3.14281e+06 14995.3 0 -3.15228e+06 14027.2 0 -3.16114e+06 13141.9 0 -3.16945e+06 12333.7 0 -3.17725e+06 11597.3 0 -3.1846e+06 10927.8 0 -3.19153e+06 10320.6 0 -3.19809e+06 9771.36 0 -3.2043e+06 9275.91 0 -3.21021e+06 8830.49 0 -3.21584e+06 8431.55 0 -3.22123e+06 8075.76 0 -3.2264e+06 7760.02 0 -3.23138e+06 7481.45 0 -3.23618e+06 7237.35 0 -3.24084e+06 7025.2 0 -3.24537e+06 6842.66 0 -3.24979e+06 6687.54 0 -3.25412e+06 6557.82 0 -3.25837e+06 6451.58 0 -3.26256e+06 6367.05 0 -3.2667e+06 6302.57 0 -3.27081e+06 6256.6 0 -3.27489e+06 6227.68 0 -3.27896e+06 6214.46 0 -3.28303e+06 6215.67 0 -3.2871e+06 6230.1 0 -3.29119e+06 6256.64 0 -3.2953e+06 6294.23 0 -3.29943e+06 6341.87 0 -3.30361e+06 6398.6 0 -3.30782e+06 6463.54 0 -3.31208e+06 6535.83 0 -3.31638e+06 6614.65 0 -3.32074e+06 6699.23 0 -3.32516e+06 6788.8 0 -3.32964e+06 6882.64 0 -3.33418e+06 6980.06 0 -3.33879e+06 7080.35 0 -3.34346e+06 7182.86 0 -3.34821e+06 7286.93 0 -3.35302e+06 7391.9 0 -3.3579e+06 7497.13 0 -3.36285e+06 7601.99 0 -3.36787e+06 7705.82 0 -3.37295e+06 7807.99 0 -3.3781e+06 7907.85 0 -3.38332e+06 8004.76 0 -3.3886e+06 8098.03 0 -3.39394e+06 8187.02 0 -3.39934e+06 8271.03 0 -3.40479e+06 8349.36 0 -3.41029e+06 8421.32 0 -3.41584e+06 8486.19 0 -3.42142e+06 8543.22 0 -3.42705e+06 8591.67 0 -3.4327e+06 8630.79 0 -3.43837e+06 8659.79 0 -3.44406e+06 8677.91 0 -3.44976e+06 8684.36 0 -3.45545e+06 8678.35 0 -3.46114e+06 8659.08 0 -3.46682e+06 8625.78 0 -3.47247e+06 8577.68 0 -3.47808e+06 8514 0 -3.48364e+06 8434.03 0 -3.48915e+06 8337.05 0 -3.49459e+06 8222.39 0 -3.49994e+06 8089.45 0 -3.50521e+06 7937.64 0 -3.51037e+06 7766.48 0 -3.51541e+06 7575.54 0 -3.52032e+06 7364.48 0 -3.52508e+06 7133.09 0 -3.52969e+06 6881.21 0 -3.53412e+06 6608.85 0 -3.53837e+06 6316.11 0 -3.54242e+06 6003.26 0 -3.54626e+06 5670.68 0 -3.54987e+06 5318.91 0 -3.55325e+06 4948.66 0 -3.55638e+06 4560.76 0 -3.55925e+06 4156.22 0 -3.56184e+06 3736.19 0 -3.56416e+06 3301.98 0 -3.56619e+06 2855 0 -3.56791e+06 2396.84 0 -3.56934e+06 1929.17 0 -3.57045e+06 1453.76 0 -3.57125e+06 972.469 0 -3.57173e+06 487.228 0 -3.5719e+06 -9.83477e-07 0 -1.71575e+06 129813 0 -1.79263e+06 129171 0 -1.8689e+06 127807 0 -1.94413e+06 125757 0 -2.01792e+06 123075 0 -2.08992e+06 119829 0 -2.1598e+06 116095 0 -2.