<?xml version="1.0"?> 
<VTKFile type="StructuredGrid" version="0.1"> 
<StructuredGrid WholeExtent="0 127 0 127 0 0"> 
<Piece Extent="0 127 0 127 0 0"> 
<PointData>
<DataArray type="Float32" Name="E" format="ascii" NumberOfComponents="3"> 
-4.76837e-07 1.52588e-05 0 3.18047e-07 551.137 0 -3.12924e-07 881.408 0 3.57628e-07 1016.45 0 -3.25963e-07 1047.3 0 3.31551e-07 1026.69 0 -4.61936e-07 980.967 0 3.76254e-07 923.675 0 -3.72529e-07 861.911 0 1.2666e-07 799.562 0 -2.98023e-08 738.779 0 4.47035e-08 680.737 0 -1.19209e-07 626.045 0 0 574.971 0 2.5332e-07 527.577 0 -4.99189e-07 483.801 0 4.32134e-07 443.504 0 -2.30968e-07 406.504 0 3.20375e-07 372.597 0 -1.86265e-07 341.569 0 7.45058e-08 313.206 0 -2.98023e-08 287.3 0 0 263.651 0 1.78814e-07 242.069 0 -1.63913e-07 222.377 0 1.19209e-07 204.409 0 -1.49012e-07 188.013 0 7.45058e-08 173.047 0 0 159.382 0 -2.98023e-08 146.901 0 8.9407e-08 135.495 0 -1.3411e-07 125.065 0 1.19209e-07 115.523 0 0 106.787 0 -1.49012e-07 98.7842 0 8.9407e-08 91.447 0 -1.49012e-08 84.7151 0 -8.9407e-08 78.534 0 3.12924e-07 72.8541 0 -4.02331e-07 67.6306 0 4.17233e-07 62.8229 0 -3.27826e-07 58.3944 0 2.68221e-07 54.3119 0 -2.08616e-07 50.5453 0 0 47.0674 0 1.78814e-07 43.8535 0 -2.98023e-07 40.8813 0 2.98023e-07 38.1305 0 -2.38419e-07 35.5827 0 2.08616e-07 33.2212 0 -8.9407e-08 31.0308 0 5.96046e-08 28.9977 0 -1.19209e-07 27.1093 0 8.9407e-08 25.3543 0 8.9407e-08 23.722 0 -1.49012e-07 22.203 0 1.49012e-07 20.7886 0 -2.08616e-07 19.4709 0 2.08616e-07 18.2424 0 -1.78814e-07 17.0967 0 1.49012e-07 16.0276 0 1.19209e-07 15.0294 0 -1.19209e-07 14.097 0 -2.98023e-08 13.2257 0 8.9407e-08 12.4111 0 2.98023e-08 11.6492 0 -8.9407e-08 10.9363 0 0 10.2691 0 0 9.64428 0 -2.98023e-08 9.05903 0 2.98023e-08 8.51065 0 -2.98023e-08 7.99665 0 5.96046e-08 7.51472 0 -5.96046e-08 7.06271 0 5.96046e-08 6.63867 0 -5.96046e-08 6.24074 0 8.9407e-08 5.86723 0 -5.96046e-08 5.51653 0 8.9407e-08 5.18718 0 -1.19209e-07 4.87779 0 5.96046e-08 4.5871 0 -1.19209e-07 4.31391 0 5.96046e-08 4.0571 0 -1.78814e-07 3.81564 0 1.19209e-07 3.58856 0 -1.19209e-07 3.37495 0 1.19209e-07 3.17397 0 -1.19209e-07 2.98484 0 1.19209e-07 2.8068 0 -1.19209e-07 2.63917 0 1.78814e-07 2.48129 0 -1.78814e-07 2.33257 0 1.78814e-07 2.19244 0 -1.19209e-07 2.06033 0 1.78814e-07 1.9358 0 -1.78814e-07 1.81832 0 1.78814e-07 1.70748 0 -2.38419e-07 1.60286 0 1.78814e-07 1.50407 0 -2.38419e-07 1.41072 0 1.78814e-07 1.32251 0 -2.38419e-07 1.23907 0 2.38419e-07 1.1601 0 -2.38419e-07 1.08533 0 2.38419e-07 1.01446 0 -2.38419e-07 0.947251 0 2.38419e-07 0.883445 0 -2.38419e-07 0.822815 0 2.98023e-07 0.765138 0 -2.38419e-07 0.710206 0 2.38419e-07 0.657819 0 -2.38419e-07 0.607789 0 2.98023e-07 0.559935 0 -2.38419e-07 0.514079 0 3.57628e-07 0.470067 0 -2.98023e-07 0.427731 0 3.57628e-07 0.386926 0 -3.57628e-07 0.347497 0 2.98023e-07 0.309309 0 -3.57628e-07 0.272225 0 2.98023e-07 0.236113 0 -4.17233e-07 0.20084 0 3.57628e-07 0.166288 0 -2.98023e-07 0.132325 0 4.17233e-07 0.0988312 0 -2.38419e-07 0.0656919 0 0 0.0327864 0 2.38419e-07 1.90735e-06 0 10.7732 -1.61231e-05 0 8.23395 551.176 0 3.9671 881.444 0 1.3563 1016.47 0 -0.0555709 1047.32 0 -0.838584 1026.7 0 -1.27162 980.97 0 -1.51202 923.677 0 -1.63686 861.911 0 -1.69016 799.562 0 -1.69757 738.778 0 -1.6749 680.735 0 -1.63241 626.043 0 -1.57696 574.969 0 -1.51326 527.575 0 -1.44465 483.799 0 -1.37351 443.502 0 -1.30158 406.502 0 -1.23009 372.594 0 -1.15996 341.566 0 -1.09184 313.204 0 -1.02617 287.298 0 -0.963266 263.649 0 -0.903309 242.068 0 -0.846403 222.375 0 -0.792583 204.407 0 -0.741831 188.011 0 -0.694093 173.045 0 -0.649282 159.381 0 -0.607295 146.899 0 -0.568011 135.493 0 -0.531302 125.064 0 -0.497032 115.522 0 -0.465065 106.786 0 -0.435266 98.7831 0 -0.407501 91.4459 0 -0.381639 84.7141 0 -0.357554 78.5331 0 -0.335126 72.8532 0 -0.314242 67.6298 0 -0.294792 62.8221 0 -0.276675 58.3937 0 -0.259795 54.3112 0 -0.244063 50.5446 0 -0.229396 47.0667 0 -0.215714 43.8529 0 -0.202947 40.8807 0 -0.191027 38.1299 0 -0.179892 35.5822 0 -0.169485 33.2207 0 -0.159752 31.0303 0 -0.150645 28.9973 0 -0.142118 27.1089 0 -0.13413 25.3539 0 -0.126642 23.7216 0 -0.119619 22.2027 0 -0.113027 20.7883 0 -0.106838 19.4705 0 -0.101022 18.2422 0 -0.0955538 17.0964 0 -0.0904103 16.0273 0 -0.0855693 15.0291 0 -0.0810109 14.0967 0 -0.076716 13.2254 0 -0.0726677 12.4109 0 -0.0688495 11.649 0 -0.0652469 10.9361 0 -0.0618467 10.2689 0 -0.0586358 9.6441 0 -0.055602 9.05885 0 -0.0527352 8.51048 0 -0.0500251 7.99648 0 -0.0474621 7.51456 0 -0.0450374 7.06256 0 -0.0427429 6.63853 0 -0.0405711 6.24061 0 -0.0385148 5.86709 0 -0.0365675 5.5164 0 -0.034723 5.18706 0 -0.0329759 4.87768 0 -0.0313195 4.58699 0 -0.0297509 4.3138 0 -0.0282634 4.057 0 -0.0268541 3.81554 0 -0.0255173 3.58847 0 -0.0242513 3.37486 0 -0.0230494 3.17389 0 -0.0219112 2.98476 0 -0.0208319 2.80672 0 -0.0198088 2.63909 0 -0.0188389 2.48122 0 -0.0179192 2.33251 0 -0.0170494 2.19237 0 -0.0162236 2.06028 0 -0.0154422 1.93573 0 -0.0147023 1.81827 0 -0.0140019 1.70743 0 -0.0133394 1.60281 0 -0.0127127 1.50402 0 -0.0121201 1.41069 0 -0.011561 1.32246 0 -0.0110331 1.23902 0 -0.0105349 1.16006 0 -0.0100666 1.08529 0 -0.00962415 1.01443 0 -0.00921023 0.947214 0 -0.00882039 0.883413 0 -0.00845623 0.822783 0 -0.00811497 0.765109 0 -0.00779707 0.710179 0 -0.00750146 0.657796 0 -0.0072273 0.607765 0 -0.00697425 0.559912 0 -0.00674101 0.514061 0 -0.00652818 0.470048 0 -0.00633513 0.427713 0 -0.00616 0.386907 0 -0.00600574 0.347483 0 -0.00586771 0.309294 0 -0.0057495 0.272214 0 -0.00564934 0.236102 0 -0.00556662 0.200833 0 -0.00550322 0.166279 0 -0.00545701 0.132318 0 -0.00543031 0.0988282 0 -0.00542069 0.0656897 0 -0.00543117 0.0327872 0 -0.00545916 -2.96906e-06 0 21.5486 9.53674e-06 0 16.4682 551.296 0 7.9333 881.551 0 2.71203 1016.53 0 -0.111482 1047.35 0 -1.67737 1026.72 0 -2.54337 980.979 0 -3.02412 923.681 0 -3.27378 861.912 0 -3.38035 799.56 0 -3.39515 738.774 0 -3.34981 680.731 0 -3.26483 626.038 0 -3.15392 574.963 0 -3.02652 527.569 0 -2.88929 483.793 0 -2.74702 443.496 0 -2.60314 406.496 0 -2.46017 372.588 0 -2.31991 341.56 0 -2.18366 313.198 0 -2.05233 287.293 0 -1.92652 263.644 0 -1.8066 242.062 0 -1.69279 222.37 0 -1.58515 204.402 0 -1.48365 188.006 0 -1.38817 173.041 0 -1.29855 159.376 0 -1.21458 146.895 0 -1.13601 135.489 0 -1.06259 125.06 0 -0.994051 115.518 0 -0.930118 106.783 0 -0.870521 98.7799 0 -0.81499 91.4429 0 -0.763267 84.7112 0 -0.715097 78.5303 0 -0.670242 72.8506 0 -0.628474 67.6273 0 -0.589574 62.8198 0 -0.553342 58.3915 0 -0.519583 54.3091 0 -0.488119 50.5426 0 -0.458784 47.0649 0 -0.431421 43.8511 0 -0.405887 40.879 0 -0.382047 38.1283 0 -0.359778 35.5807 0 -0.338963 33.2193 0 -0.319498 31.029 0 -0.301285 28.996 0 -0.284231 27.1077 0 -0.268256 25.3527 0 -0.25328 23.7205 0 -0.239233 22.2016 0 -0.226051 20.7873 0 -0.213672 19.4696 0 -0.202039 18.2413 0 -0.191104 17.0956 0 -0.180817 16.0265 0 -0.171135 15.0283 0 -0.162018 14.096 0 -0.153429 13.2247 0 -0.145332 12.4102 0 -0.137696 11.6483 0 -0.130491 10.9355 0 -0.123691 10.2683 0 -0.117269 9.64353 0 -0.111202 9.05832 0 -0.105468 8.50997 0 -0.100048 7.996 0 -0.094922 7.51409 0 -0.0900726 7.06212 0 -0.0854838 6.6381 0 -0.0811404 6.2402 0 -0.0770277 5.86671 0 -0.0731332 5.51603 0 -0.0694445 5.1867 0 -0.0659498 4.87734 0 -0.0626378 4.58666 0 -0.0595 4.31349 0 -0.0565253 4.0567 0 -0.0537068 3.81526 0 -0.0510336 3.58819 0 -0.0485008 3.3746 0 -0.0460979 3.17364 0 -0.043821 2.98452 0 -0.0416627 2.80649 0 -0.0396165 2.63888 0 -0.0376764 2.48101 0 -0.0358378 2.33231 0 -0.0340973 2.19218 0 -0.0324463 2.0601 0 -0.0308834 1.93556 0 -0.0294038 1.8181 0 -0.0280027 1.70727 0 -0.0266782 1.60266 0 -0.0254243 1.50387 0 -0.0242395 1.41055 0 -0.0231217 1.32233 0 -0.022065 1.2389 0 -0.0210695 1.15994 0 -0.0201316 1.08517 0 -0.0192487 1.01432 0 -0.018419 0.947113 0 -0.0176409 0.883317 0 -0.0169114 0.822691 0 -0.0162294 0.765023 0 -0.0155935 0.710099 0 -0.0150023 0.657718 0 -0.0144541 0.607696 0 -0.0139477 0.559845 0 -0.0134815 0.513998 0 -0.013056 0.469991 0 -0.0126696 0.427659 0 -0.0123196 0.386858 0 -0.0120106 0.347437 0 -0.0117347 0.309255 0 -0.0114987 0.272177 0 -0.0112977 0.236071 0 -0.0111334 0.200804 0 -0.0110055 0.166256 0 -0.010914 0.1323 0 -0.0108597 0.0988136 0 -0.010841 0.0656812 0 -0.0108615 0.032782 0 -0.0109187 1.66893e-06 0 32.3287 -1.0252e-05 0 24.7029 551.494 0 11.8977 881.729 0 4.06663 1016.63 0 -0.168074 1047.41 0 -2.51656 1026.75 0 -3.81536 980.995 0 -4.53638 923.687 0 -4.91079 861.912 0 -5.07061 799.557 0 -5.09277 738.769 0 -5.02474 680.723 0 -4.89726 626.029 0 -4.73088 574.954 0 -4.53976 527.559 0 -4.33392 483.783 0 -4.1205 443.485 0 -3.90469 406.485 0 -3.69023 372.578 0 -3.47984 341.55 0 -3.27546 313.188 0 -3.07846 287.283 0 -2.88974 263.634 0 -2.70987 242.053 0 -2.53915 222.361 0 -2.37769 204.394 0 -2.22544 187.998 0 -2.08222 173.033 0 -1.94779 159.369 0 -1.82183 146.888 0 -1.70398 135.483 0 -1.59385 125.054 0 -1.49105 115.512 0 -1.39515 106.777 0 -1.30575 98.7745 0 -1.22246 91.4378 0 -1.14487 84.7064 0 -1.07262 78.5258 0 -1.00534 72.8463 0 -0.942686 67.6232 0 -0.884339 62.8159 0 -0.829991 58.3878 0 -0.779353 54.3056 0 -0.732158 50.5394 0 -0.688157 47.0617 0 -0.647114 43.8482 0 -0.608814 40.8762 0 -0.573054 38.1257 0 -0.539651 35.5782 0 -0.50843 33.2169 0 -0.479233 31.0267 0 -0.451913 28.9939 0 -0.426334 27.1057 0 -0.402371 25.3508 0 -0.379908 23.7187 0 -0.358838 22.1999 0 -0.339065 20.7856 0 -0.320497 19.468 0 -0.303049 18.2398 0 -0.286646 17.0942 0 -0.271216 16.0251 0 -0.256694 15.027 0 -0.24302 14.0948 0 -0.230135 13.2236 0 -0.217991 12.4091 0 -0.206537 11.6473 0 -0.19573 10.9345 0 -0.185529 10.2673 0 -0.175897 9.6426 0 -0.166796 9.05743 0 -0.158197 8.50913 0 -0.150066 7.99519 0 -0.142377 7.51332 0 -0.135104 7.06138 0 -0.128221 6.63739 0 -0.121706 6.23953 0 -0.115537 5.86606 0 -0.109695 5.51541 0 -0.104162 5.18611 0 -0.0989205 4.87677 0 -0.093953 4.58612 0 -0.089246 4.31297 0 -0.0847844 4.05621 0 -0.0805566 3.81479 0 -0.076547 3.58774 0 -0.0727478 3.37417 0 -0.0691437 3.17323 0 -0.0657285 2.98412 0 -0.0624909 2.80612 0 -0.0594221 2.63852 0 -0.0565119 2.48067 0 -0.0537543 2.33198 0 -0.0511433 2.19186 0 -0.048667 2.05979 0 -0.0463227 1.93527 0 -0.0441034 1.81783 0 -0.0420018 1.70701 0 -0.040015 1.60241 0 -0.0381345 1.50363 0 -0.0363574 1.41032 0 -0.0346804 1.32211 0 -0.0330959 1.23869 0 -0.0316024 1.15975 0 -0.0301956 1.08499 0 -0.0288715 1.01414 0 -0.0276267 0.946946 0 -0.0264597 0.883156 0 -0.0253653 0.822542 0 -0.0243425 0.76488 0 -0.0233888 0.709964 0 -0.0225018 0.657592 0 -0.0216798 0.607575 0 -0.0209202 0.559733 0 -0.0202209 0.513895 0 -0.0195825 0.469894 0 -0.0190031 0.427572 0 -0.0184783 0.386775 0 -0.0180142 0.347363 0 -0.0176012 0.309189 0 -0.0172468 0.272117 0 -0.0169451 0.236018 0 -0.0166993 0.200759 0 -0.0165064 0.166217 0 -0.01637 0.132267 0 -0.0162879 0.0987893 0 -0.0162604 0.0656641 0 -0.0162906 0.0327735 0 -0.016377 -1.30385e-06 0 43.1156 7.51019e-06 0 32.9384 551.773 0 15.8594 881.978 0 5.41954 1016.78 0 -0.225686 1047.49 0 -3.35636 1026.79 0 -5.08771 981.017 0 -6.04886 923.696 0 -6.54794 861.913 0 -6.76095 799.552 0 -6.79045 738.761 0 -6.6997 680.713 0 -6.5297 626.017 0 -6.30783 574.94 0 -6.053 527.545 0 -5.77853 483.768 0 -5.49396 443.471 0 -5.2062 406.47 0 -4.92025 372.563 0 -4.63973 341.536 0 -4.36722 313.174 0 -4.10455 287.269 0 -3.85292 263.621 0 -3.61309 242.04 0 -3.38547 222.349 0 -3.17019 204.382 0 -2.96718 187.987 0 -2.77623 173.022 0 -2.59699 159.359 0 -2.42904 146.879 0 -2.27191 135.473 0 -2.12508 125.045 0 -1.988 115.504 0 -1.86014 106.769 0 -1.74095 98.767 0 -1.62989 91.4306 0 -1.52645 84.6997 0 -1.43011 78.5194 0 -1.34041 72.8402 0 -1.25687 67.6175 0 -1.17908 62.8105 0 -1.10661 58.3827 0 -1.0391 54.3008 0 -0.976174 50.5348 0 -0.917508 47.0574 0 -0.862785 43.844 0 -0.81172 40.8723 0 -0.764041 38.122 0 -0.719505 35.5746 0 -0.677879 33.2136 0 -0.638951 31.0236 0 -0.602526 28.9909 0 -0.568421 27.1028 0 -0.536472 25.3481 0 -0.506521 23.7161 0 -0.47843 22.1974 0 -0.452067 20.7833 0 -0.42731 19.4658 0 -0.404047 18.2376 0 -0.382178 17.0922 0 -0.361605 16.0232 0 -0.342243 15.0252 0 -0.324011 14.093 0 -0.306832 13.2219 0 -0.29064 12.4075 0 -0.275369 11.6458 0 -0.26096 10.9331 0 -0.24736 10.266 0 -0.234517 9.6413 0 -0.222383 9.05619 0 -0.210918 8.50794 0 -0.200078 7.99405 0 -0.189826 7.51224 0 -0.180129 7.06034 0 -0.170951 6.6364 0 -0.162265 6.23858 0 -0.154041 5.86515 0 -0.146252 5.51455 0 -0.138875 5.18528 0 -0.131886 4.87598 0 -0.125263 4.58537 0 -0.118988 4.31225 0 -0.113039 4.05551 0 -0.107402 3.81412 0 -0.102057 3.58711 0 -0.0969908 3.37356 0 -0.0921857 3.17265 0 -0.0876324 2.98357 0 -0.0833157 2.80559 0 -0.0792239 2.63801 0 -0.0753442 2.48019 0 -0.0716675 2.33151 0 -0.0681864 2.19142 0 -0.0648847 2.05937 0 -0.0617591 1.93487 0 -0.0588004 1.81744 0 -0.0559982 1.70664 0 -0.0533495 1.60206 0 -0.0508421 1.5033 0 -0.0484729 1.41 0 -0.0462368 1.32181 0 -0.0441244 1.2384 0 -0.042133 1.15947 0 -0.0402576 1.08472 0 -0.0384919 1.01389 0 -0.0368326 0.94671 0 -0.0352766 0.882933 0 -0.0338175 0.822329 0 -0.032454 0.76468 0 -0.0311822 0.709775 0 -0.0299997 0.657415 0 -0.0289039 0.607409 0 -0.0278907 0.559578 0 -0.026959 0.51375 0 -0.0261076 0.469759 0 -0.0253347 0.427447 0 -0.0246361 0.386662 0 -0.0240154 0.347258 0 -0.0234667 0.309095 0 -0.0229928 0.272033 0 -0.0225913 0.235944 0 -0.0222633 0.200696 0 -0.0220064 0.166164 0 -0.0218244 0.132224 0 -0.0217147 0.0987575 0 -0.0216784 0.0656425 0 -0.0217179 0.0327619 0 -0.0218339 5.36442e-07 0 53.9117 -1.60933e-05 0 41.1749 552.13 0 19.8176 882.299 0 6.77019 1016.96 0 -0.284658 1047.59 0 -4.19697 1026.85 0 -6.36054 981.045 0 -7.56166 923.708 0 -8.18529 861.915 0 -8.45142 799.547 0 -8.48821 738.75 0 -8.37471 680.7 0 -8.16215 626.001 0 -7.88479 574.923 0 -7.56622 527.527 0 -7.22311 483.75 0 -6.86739 443.452 0 -6.50767 406.452 0 -6.15022 372.545 0 -5.79956 341.518 0 -5.45893 313.156 0 -5.13058 287.252 0 -4.81605 263.604 0 -4.51625 242.024 0 -4.23173 222.333 0 -3.96262 204.367 0 -3.70887 187.973 0 -3.47018 173.008 0 -3.24613 159.346 0 -3.0362 146.866 0 -2.83979 135.461 0 -2.65625 125.034 0 -2.48491 115.493 0 -2.32508 106.759 0 -2.1761 98.7573 0 -2.03728 91.4215 0 -1.90798 84.691 0 -1.78756 78.5112 0 -1.67543 72.8325 0 -1.57102 67.6101 0 -1.47378 62.8035 0 -1.3832 58.3761 0 -1.29881 54.2945 0 -1.22016 50.5288 0 -1.14683 47.0518 0 -1.07843 43.8387 0 -1.0146 40.8673 0 -0.955002 38.1172 0 -0.899334 35.5701 0 -0.847303 33.2093 0 -0.798646 31.0195 0 -0.753116 28.987 0 -0.710487 27.0992 0 -0.670553 25.3446 0 -0.633116 23.7128 0 -0.598003 22.1943 0 -0.565051 20.7803 0 -0.534106 19.463 0 -0.505029 18.2349 0 -0.477694 17.0896 0 -0.451979 16.0208 0 -0.427778 15.0229 0 -0.404989 14.0908 0 -0.383517 13.2198 0 -0.363278 12.4055 0 -0.34419 11.6438 0 -0.326179 10.9312 0 -0.30918 10.2642 0 -0.293127 9.63963 0 -0.277961 9.05459 0 -0.26363 8.50641 0 -0.25008 7.99259 0 -0.237267 7.51084 0 -0.225146 7.05901 0 -0.213674 6.63513 0 -0.202817 6.23736 0 -0.192537 5.86399 0 -0.182802 5.51344 0 -0.173581 5.18421 0 -0.164845 4.87496 0 -0.156567 4.58439 0 -0.148723 4.31132 0 -0.141288 4.05462 0 -0.134242 3.81327 0 -0.127561 3.58629 0 -0.121228 3.37278 0 -0.115223 3.1719 0 -0.109531 2.98286 0 -0.104136 2.8049 0 -0.0990211 2.63736 0 -0.0941723 2.47956 0 -0.0895765 2.33092 0 -0.0852253 2.19085 0 -0.0810985 2.05883 0 -0.0771917 1.93435 0 -0.0734935 1.81694 0 -0.0699911 1.70617 0 -0.0666805 1.60161 0 -0.0635463 1.50287 0 -0.0605852 1.40959 0 -0.05779 1.32142 0 -0.05515 1.23803 0 -0.0526608 1.15912 0 -0.0503166 1.08439 0 -0.0481097 1.01357 0 -0.0460357 0.946407 0 -0.044091 0.882645 0 -0.0422671 0.822057 0 -0.040563 0.764424 0 -0.0389734 0.709533 0 -0.0374952 0.657187 0 -0.0361256 0.607196 0 -0.0348593 0.559379 0 -0.0336947 0.513562 0 -0.0326306 0.469585 0 -0.0316639 0.427286 0 -0.030792 0.386515 0 -0.0300146 0.347124 0 -0.02933 0.308975 0 -0.0287372 0.271926 0 -0.0282354 0.235848 0 -0.0278249 0.200615 0 -0.0275047 0.166095 0 -0.0272764 0.132169 0 -0.0271394 0.0987151 0 -0.0270941 0.0656147 0 -0.0271437 0.0327483 0 -0.0272875 1.84774e-06 0 64.7194 9.77516e-06 0 49.4128 552.568 0 23.7712 882.691 0 8.11803 1017.19 0 -0.34533 1047.71 0 -5.03859 1026.91 0 -7.63398 981.08 0 -9.07484 923.723 0 -9.82289 861.916 0 -10.142 799.54 0 -10.1861 738.738 0 -10.0498 680.683 0 -9.79463 625.982 0 -9.46174 574.903 0 -9.07942 527.506 0 -8.66766 483.727 0 -8.24076 443.429 0 -7.80909 406.429 0 -7.38013 372.522 0 -6.95933 341.495 0 -6.55056 313.134 0 -6.15655 287.23 0 -5.7791 263.584 0 -5.41935 242.004 0 -5.07791 222.314 0 -4.75499 204.349 0 -4.45049 187.955 0 -4.16406 172.992 0 -3.89521 159.33 0 -3.64329 146.851 0 -3.4076 135.447 0 -3.18736 125.02 0 -2.98175 115.48 0 -2.78997 106.747 0 -2.61119 98.7455 0 -2.44461 91.4103 0 -2.28946 84.6804 0 -2.14496 78.5011 0 -2.01041 72.823 0 -1.88512 67.6011 0 -1.76843 62.795 0 -1.65975 58.368 0 -1.55848 54.2869 0 -1.4641 50.5216 0 -1.37611 47.045 0 -1.29403 43.8322 0 -1.21744 40.8612 0 -1.14593 38.1114 0 -1.07913 35.5646 0 -1.0167 33.2041 0 -0.958312 31.0146 0 -0.903679 28.9823 0 -0.852528 27.0947 0 -0.804608 25.3404 0 -0.759687 23.7088 0 -0.717554 22.1905 0 -0.678014 20.7767 0 -0.640882 19.4595 0 -0.605992 18.2317 0 -0.573191 17.0864 0 -0.542336 16.0178 0 -0.513295 15.02 0 -0.48595 14.0881 0 -0.460186 13.2172 0 -0.4359 12.403 0 -0.412996 11.6415 0 -0.391385 10.929 0 -0.370987 10.2621 0 -0.351725 9.63758 0 -0.333527 9.05264 0 -0.31633 8.50454 0 -0.300072 7.99081 0 -0.284696 7.50914 0 -0.270152 7.05738 0 -0.256387 6.63358 0 -0.243359 6.23587 0 -0.231024 5.86257 0 -0.219343 5.51207 0 -0.208279 5.18292 0 -0.197796 4.87372 0 -0.187863 4.58321 0 -0.178451 4.31018 0 -0.16953 4.05353 0 -0.161074 3.81223 0 -0.153058 3.5853 0 -0.145459 3.37183 0 -0.138254 3.17099 0 -0.131424 2.98198 0 -0.12495 2.80407 0 -0.118813 2.63656 0 -0.112995 2.4788 0 -0.10748 2.33019 0 -0.102259 2.19016 0 -0.0973076 2.05816 0 -0.0926197 1.93371 0 -0.0881819 1.81634 0 -0.0839798 1.70559 0 -0.0800068 1.60105 0 -0.0762467 1.50234 0 -0.0726936 1.40908 0 -0.0693393 1.32094 0 -0.0661719 1.23757 0 -0.0631848 1.15868 0 -0.0603721 1.08398 0 -0.057724 1.01318 0 -0.0552357 0.946035 0 -0.0529019 0.882295 0 -0.0507138 0.821726 0 -0.0486686 0.76411 0 -0.0467618 0.709237 0 -0.0449875 0.656908 0 -0.0433446 0.606935 0 -0.041825 0.559133 0 -0.0404276 0.513335 0 -0.039151 0.469374 0 -0.0379905 0.42709 0 -0.0369449 0.386336 0 -0.0360117 0.346961 0 -0.0351904 0.308826 0 -0.0344792 0.271793 0 -0.0338769 0.235733 0 -0.033384 0.200513 0 -0.0330002 0.166011 0 -0.0327261 0.132101 0 -0.0325616 0.098664 0 -0.0325071 0.0655796 0 -0.0325667 0.0327305 0 -0.0327388 -1.13249e-06 0 75.5408 4.76837e-07 0 57.6521 553.085 0 27.7195 883.154 0 9.46248 1017.45 0 -0.408039 1047.86 0 -5.88142 1026.99 0 -8.90815 981.12 0 -10.5885 923.74 0 -11.4608 861.918 0 -11.8329 799.532 0 -11.884 738.723 0 -11.7249 680.664 0 -11.4271 625.96 0 -11.0387 574.878 0 -10.5926 527.48 0 -10.1122 483.7 0 -9.61409 443.402 0 -9.11044 406.402 0 -8.60998 372.495 0 -8.11903 341.469 0 -7.64212 313.108 0 -7.18243 287.205 0 -6.74206 263.559 0 -6.32235 241.98 0 -5.92401 222.291 0 -5.54727 204.327 0 -5.19202 187.934 0 -4.85785 172.972 0 -4.5442 159.311 0 -4.2503 146.833 0 -3.97533 135.43 0 -3.71839 125.003 0 -3.47852 115.465 0 -3.25478 106.732 0 -3.04621 98.7315 0 -2.85188 91.397 0 -2.67087 84.6678 0 -2.50229 78.4893 0 -2.34533 72.8117 0 -2.19916 67.5905 0 -2.06303 62.785 0 -1.93624 58.3585 0 -1.8181 54.2779 0 -1.708 50.5131 0 -1.60535 47.0369 0 -1.50959 43.8246 0 -1.42024 40.8539 0 -1.33682 38.1045 0 -1.25889 35.5581 0 -1.18606 33.1979 0 -1.11794 31.0087 0 -1.05421 28.9767 0 -0.994537 27.0894 0 -0.938634 25.3353 0 -0.88623 23.704 0 -0.837078 22.1859 0 -0.790951 20.7724 0 -0.747633 19.4554 0 -0.706931 18.2278 0 -0.668666 17.0827 0 -0.63267 16.0142 0 -0.598792 15.0167 0 -0.566892 14.0849 0 -0.536835 13.2141 0 -0.508504 12.4001 0 -0.481784 11.6387 0 -0.456573 10.9263 0 -0.432778 10.2595 0 -0.410307 9.63516 0 -0.389077 9.05033 0 -0.369016 8.50234 0 -0.350049 7.98871 0 -0.332113 7.50712 0 -0.315146 7.05546 0 -0.299088 6.63174 0 -0.28389 6.23412 0 -0.2695 5.86089 0 -0.255874 5.51047 0 -0.242966 5.18138 0 -0.230737 4.87225 0 -0.21915 4.5818 0 -0.20817 4.30884 0 -0.197763 4.05225 0 -0.187898 3.811 0 -0.178548 3.58412 0 -0.169682 3.37071 0 -0.161277 3.16992 0 -0.15331 2.98095 0 -0.145757 2.80309 0 -0.138598 2.63562 0 -0.131811 2.4779 0 -0.125378 2.32933 0 -0.119286 2.18933 0 -0.113511 2.05738 0 -0.108042 1.93296 0 -0.102865 1.81562 0 -0.0979631 1.70491 0 -0.0933281 1.6004 0 -0.0889419 1.50172 0 -0.0847972 1.40849 0 -0.0808838 1.32037 0 -0.0771892 1.23704 0 -0.0737049 1.15817 0 -0.0704232 1.08349 0 -0.0673343 1.01272 0 -0.0644317 0.945597 0 -0.0617087 0.881879 0 -0.0591567 0.821333 0 -0.0567707 0.763738 0 -0.0545466 0.708887 0 -0.0524764 0.656578 0 -0.0505601 0.606625 0 -0.0487873 0.558846 0 -0.0471573 0.513066 0 -0.0456682 0.469122 0 -0.0443137 0.42686 0 -0.0430948 0.386125 0 -0.0420058 0.346767 0 -0.0410475 0.308651 0 -0.0402182 0.271638 0 -0.0395153 0.235596 0 -0.0389405 0.200396 0 -0.0384924 0.165912 0 -0.0381731 0.132022 0 -0.0379803 0.0986028 0 -0.0379176 0.0655389 0 -0.0379861 0.0327091 0 -0.0381875 6.25849e-07 0 86.3785 -1.52588e-05 0 65.8932 553.683 0 31.6615 883.688 0 10.803 1017.76 0 -0.473127 1048.03 0 -6.72567 1027.08 0 -10.1832 981.167 0 -12.1027 923.759 0 -13.099 861.921 0 -13.5239 799.523 0 -13.5821 738.706 0 -13.4001 680.642 0 -13.0597 625.934 0 -12.6156 574.85 0 -12.1057 527.45 0 -11.5566 483.67 0 -10.9874 443.371 0 -10.4117 406.37 0 -9.83974 372.464 0 -9.27864 341.438 0 -8.73358 313.078 0 -8.20821 287.176 0 -7.70493 263.531 0 -7.22526 241.953 0 -6.77001 222.265 0 -6.33944 204.302 0 -5.93344 187.91 0 -5.55155 172.949 0 -5.19309 159.289 0 -4.85722 146.812 0 -4.54297 135.41 0 -4.24933 124.985 0 -3.9752 115.447 0 -3.71951 106.715 0 -3.48115 98.7154 0 -3.25906 91.3818 0 -3.05221 84.6534 0 -2.85956 78.4756 0 -2.68018 72.7988 0 -2.51313 67.5782 0 -2.35757 62.7734 0 -2.21267 58.3475 0 -2.07766 54.2675 0 -1.95184 50.5032 0 -1.83453 47.0275 0 -1.72511 43.8158 0 -1.623 40.8455 0 -1.52766 38.0966 0 -1.43861 35.5506 0 -1.35537 33.1908 0 -1.27754 31.0019 0 -1.2047 28.9703 0 -1.13651 27.0833 0 -1.07263 25.3296 0 -1.01274 23.6985 0 -0.95657 22.1807 0 -0.903858 20.7674 0 -0.854355 19.4507 0 -0.807842 18.2233 0 -0.764114 17.0785 0 -0.72298 16.0102 0 -0.684265 15.0128 0 -0.64781 14.0812 0 -0.613463 13.2106 0 -0.581087 12.3967 0 -0.550553 11.6355 0 -0.521743 10.9233 0 -0.49455 10.2566 0 -0.468871 9.63237 0 -0.444611 9.04767 0 -0.421686 8.4998 0 -0.400011 7.98627 0 -0.379515 7.5048 0 -0.360125 7.05324 0 -0.341775 6.62962 0 -0.324408 6.23209 0 -0.307963 5.85895 0 -0.292392 5.50861 0 -0.277641 5.17961 0 -0.263667 4.87056 0 -0.250426 4.58018 0 -0.237878 4.30729 0 -0.225985 4.05077 0 -0.214712 3.80958 0 -0.204027 3.58276 0 -0.193896 3.36941 0 -0.184292 3.16868 0 -0.175187 2.97977 0 -0.166556 2.80195 0 -0.158374 2.63454 0 -0.150619 2.47687 0 -0.143268 2.32834 0 -0.136307 2.18839 0 -0.129707 2.05648 0 -0.123458 1.9321 0 -0.117541 1.8148 0 -0.11194 1.70412 0 -0.106644 1.59965 0 -0.101631 1.501 0 -0.0968953 1.40781 0 -0.092423 1.31972 0 -0.0882011 1.23642 0 -0.0842198 1.15758 0 -0.0804694 1.08293 0 -0.0769398 1.01219 0 -0.0736231 0.945091 0 -0.070511 0.8814 0 -0.0675953 0.820881 0 -0.0648686 0.763311 0 -0.0623272 0.708485 0 -0.0599614 0.656201 0 -0.0577714 0.606269 0 -0.0557457 0.558512 0 -0.0538835 0.512756 0 -0.0521814 0.468835 0 -0.0506334 0.426595 0 -0.0492407 0.385879 0 -0.0479965 0.346545 0 -0.0469009 0.30845 0 -0.0459537 0.271458 0 -0.0451499 0.235438 0 -0.0444936 0.200259 0 -0.0439811 0.165797 0 -0.0436165 0.131928 0 -0.0433954 0.0985329 0 -0.0433244 0.065491 0 -0.0434018 0.0326858 0 -0.0436325 -1.37091e-06 0 97.2347 1.0252e-05 0 74.1364 554.361 0 35.5963 884.293 0 12.139 1018.1 0 -0.540932 1048.22 0 -7.57154 1027.19 0 -11.4591 981.22 0 -13.6175 923.782 0 -14.7376 861.923 0 -15.2152 799.512 0 -15.2803 738.687 0 -15.0753 680.616 0 -14.6922 625.904 0 -14.1926 574.817 0 -13.6188 527.416 0 -13.001 483.635 0 -12.3605 443.335 0 -11.7129 406.335 0 -11.0694 372.429 0 -10.4381 341.403 0 -9.82494 313.044 0 -9.23388 287.143 0 -8.66768 263.499 0 -8.12805 241.922 0 -7.61589 222.236 0 -7.13151 204.273 0 -6.67476 187.883 0 -6.24513 172.923 0 -5.84187 159.264 0 -5.46402 146.788 0 -5.1105 135.387 0 -4.78017 124.963 0 -4.47179 115.426 0 -4.18414 106.696 0 -3.916 98.6972 0 -3.66616 91.3645 0 -3.43346 84.637 0 -3.21674 78.46 0 -3.01495 72.7841 0 -2.82703 67.5643 0 -2.65204 62.7602 0 -2.48903 58.3351 0 -2.33716 54.2557 0 -2.19562 50.4921 0 -2.06365 47.017 0 -1.94056 43.8058 0 -1.8257 40.8361 0 -1.71845 38.0876 0 -1.61827 35.5421 0 -1.52464 33.1827 0 -1.43708 30.9943 0 -1.35515 28.9631 0 -1.27844 27.0764 0 -1.20658 25.323 0 -1.13921 23.6923 0 -1.07603 22.1748 0 -1.01673 20.7618 0 -0.961044 19.4453 0 -0.908722 18.2182 0 -0.859532 17.0736 0 -0.81326 16.0055 0 -0.769711 15.0084 0 -0.728702 14.077 0 -0.690065 13.2066 0 -0.653646 12.3929 0 -0.619298 11.6319 0 -0.58689 10.9198 0 -0.556301 10.2533 0 -0.527415 9.62922 0 -0.500125 9.04465 0 -0.474337 8.49691 0 -0.449956 7.98352 0 -0.426899 7.50217 0 -0.405088 7.05073 0 -0.384446 6.62721 0 -0.36491 6.22979 0 -0.346412 5.85675 0 -0.328896 5.50652 0 -0.312302 5.1776 0 -0.296583 4.86864 0 -0.281689 4.57834 0 -0.267574 4.30553 0 -0.254196 4.04909 0 -0.241515 3.80797 0 -0.229496 3.58123 0 -0.2181 3.36794 0 -0.207296 3.16727 0 -0.197055 2.97842 0 -0.187345 2.80067 0 -0.178142 2.63331 0 -0.169419 2.47569 0 -0.16115 2.32722 0 -0.153318 2.18731 0 -0.145896 2.05545 0 -0.138866 1.93112 0 -0.13221 1.81386 0 -0.12591 1.70322 0 -0.119952 1.5988 0 -0.114314 1.50019 0 -0.108987 1.40704 0 -0.103956 1.31898 0 -0.099207 1.23571 0 -0.0947287 1.15691 0 -0.09051 1.08229 0 -0.0865398 1.01158 0 -0.0828089 0.94452 0 -0.0793086 0.880858 0 -0.0760286 0.820366 0 -0.0729619 0.762827 0 -0.0701026 0.708027 0 -0.0674422 0.65577 0 -0.0649782 0.605864 0 -0.0626996 0.558135 0 -0.0606052 0.512404 0 -0.0586903 0.468509 0 -0.0569493 0.426294 0 -0.0553825 0.385603 0 -0.053983 0.346292 0 -0.0527507 0.308221 0 -0.0516844 0.271254 0 -0.0507809 0.235259 0 -0.0500424 0.200104 0 -0.0494656 0.165667 0 -0.0490557 0.131824 0 -0.0488065 0.0984549 0 -0.048727 0.0654375 0 -0.0488133 0.0326581 0 -0.0490732 9.83477e-07 0 108.112 -6.19888e-06 0 82.3817 555.12 0 39.5229 884.97 0 13.47 1018.49 0 -0.611792 1048.44 0 -8.41922 1027.3 0 -12.7362 981.279 0 -15.1329 923.806 0 -16.3767 861.926 0 -16.9067 799.501 0 -16.9788 738.666 0 -16.7507 680.588 0 -16.3248 625.872 0 -15.7695 574.781 0 -15.1319 527.378 0 -14.4454 483.595 0 -13.7337 443.295 0 -13.014 406.295 0 -12.299 372.389 0 -11.5975 341.365 0 -10.9162 313.007 0 -10.2594 287.106 0 -9.6303 263.463 0 -9.0307 241.888 0 -8.46164 222.202 0 -7.92344 204.241 0 -7.41594 187.852 0 -6.93859 172.893 0 -6.49053 159.236 0 -6.07071 146.762 0 -5.67792 135.362 0 -5.31089 124.939 0 -4.96826 115.404 0 -4.64866 106.674 0 -4.35074 98.6768 0 -4.07316 91.3451 0 -3.81461 84.6187 0 -3.57383 78.4427 0 -3.34962 72.7677 0 -3.14085 67.5488 0 -2.94642 62.7455 0 -2.76532 58.3211 0 -2.59658 54.2425 0 -2.43932 50.4796 0 -2.29271 47.0052 0 -2.15595 43.7946 0 -2.02833 40.8255 0 -1.90918 38.0776 0 -1.79788 35.5326 0 -1.69386 33.1737 0 -1.59658 30.9857 0 -1.50555 28.9549 0 -1.42032 27.0687 0 -1.34048 25.3157 0 -1.26564 23.6853 0 -1.19544 22.1682 0 -1.12956 20.7555 0 -1.0677 19.4394 0 -1.00957 18.2125 0 -0.954917 17.0682 0 -0.903509 16.0004 0 -0.855125 15.0035 0 -0.809565 14.0723 0 -0.766639 13.2022 0 -0.726178 12.3887 0 -0.688018 11.6278 0 -0.652013 10.9159 0 -0.618028 10.2496 0 -0.585936 9.62568 0 -0.555617 9.04128 0 -0.526966 8.49369 0 -0.499879 7.98045 0 -0.474264 7.49923 0 -0.450032 7.04792 0 -0.427099 6.62453 0 -0.405395 6.22723 0 -0.384844 5.8543 0 -0.365384 5.50417 0 -0.346948 5.17536 0 -0.329485 4.86649 0 -0.312938 4.57629 0 -0.297256 4.30357 0 -0.282394 4.04721 0 -0.268306 3.80618 0 -0.254953 3.57951 0 -0.242291 3.3663 0 -0.230289 3.1657 0 -0.218911 2.97692 0 -0.208124 2.79923 0 -0.1979 2.63193 0 -0.188208 2.47438 0 -0.179023 2.32596 0 -0.170321 2.18611 0 -0.162075 2.0543 0 -0.154266 1.93003 0 -0.146871 1.81281 0 -0.139873 1.70223 0 -0.133252 1.59784 0 -0.126989 1.49928 0 -0.121072 1.40617 0 -0.115482 1.31816 0 -0.110206 1.23493 0 -0.105231 1.15617 0 -0.100544 1.08158 0 -0.0961336 1.01091 0 -0.0919889 0.943878 0 -0.0881001 0.88025 0 -0.0844563 0.819794 0 -0.0810498 0.762285 0 -0.0778726 0.707516 0 -0.0749178 0.655289 0 -0.0721795 0.605415 0 -0.0696484 0.557714 0 -0.0673222 0.512011 0 -0.0651942 0.468144 0 -0.0632603 0.425956 0 -0.0615198 0.385293 0 -0.0599645 0.34601 0 -0.058596 0.307967 0 -0.0574107 0.271026 0 -0.0564075 0.235058 0 -0.0555864 0.199932 0 -0.0549462 0.165522 0 -0.0544895 0.131707 0 -0.0542138 0.0983647 0 -0.0541243 0.0653771 0 -0.0542205 0.0326286 0 -0.0545081 1.13249e-06 0 119.012 4.76837e-07 0 90.6296 555.96 0 43.4406 885.718 0 14.7953 1018.91 0 -0.686045 1048.68 0 -9.26892 1027.43 0 -14.0145 981.344 0 -16.6492 923.834 0 -18.0162 861.929 0 -18.5986 799.488 0 -18.6774 738.642 0 -18.4262 680.557 0 -17.9574 625.835 0 -17.3464 574.742 0 -16.645 527.336 0 -15.8896 483.552 0 -15.1067 443.252 0 -14.315 406.251 0 -13.5284 372.346 0 -12.7568 341.322 0 -12.0073 312.965 0 -11.2848 287.066 0 -10.5928 263.424 0 -9.93322 241.85 0 -9.30724 222.166 0 -8.71523 204.206 0 -8.15699 187.818 0 -7.6319 172.861 0 -7.13904 159.205 0 -6.67726 146.732 0 -6.2452 135.334 0 -5.84148 124.913 0 -5.4646 115.379 0 -5.11306 106.65 0 -4.78537 98.6542 0 -4.48004 91.3238 0 -4.19566 84.5985 0 -3.93081 78.4236 0 -3.6842 72.7495 0 -3.45456 67.5316 0 -3.24071 62.7293 0 -3.04151 58.3058 0 -2.85592 54.228 0 -2.68295 50.4658 0 -2.52169 46.9921 0 -2.37127 43.7822 0 -2.2309 40.8138 0 -2.09984 38.0665 0 -1.97743 35.522 0 -1.86301 33.1637 0 -1.75602 30.9763 0 -1.6559 28.946 0 -1.56216 27.0602 0 -1.47434 25.3076 0 -1.39202 23.6776 0 -1.31481 22.1609 0 -1.24235 20.7485 0 -1.17431 19.4327 0 -1.11037 18.2062 0 -1.05026 17.0622 0 -0.993721 15.9947 0 -0.940505 14.9981 0 -0.890395 14.0671 0 -0.843182 13.1972 0 -0.79868 12.3839 0 -0.756708 11.6233 0 -0.717107 10.9116 0 -0.679729 10.2455 0 -0.644431 9.62178 0 -0.611085 9.03755 0 -0.579573 8.49014 0 -0.549781 7.97