<?xml version="1.0"?> 
<VTKFile type="StructuredGrid" version="0.1"> 
<StructuredGrid WholeExtent="0 127 0 127 0 0"> 
<Piece Extent="0 127 0 127 0 0"> 
<PointData>
<DataArray type="Float32" Name="E" format="ascii" NumberOfComponents="3"> 
934627 -388657 0 1.2245e+06 -306208 0 1.30648e+06 -313325 0 1.38716e+06 -299674 0 1.44457e+06 -285460 0 1.49678e+06 -268331 0 1.54124e+06 -250217 0 1.58096e+06 -231204 0 1.61601e+06 -211701 0 1.64709e+06 -191909 0 1.67441e+06 -172024 0 1.69822e+06 -152203 0 1.71867e+06 -132587 0 1.7359e+06 -113300 0 1.75005e+06 -94455.5 0 1.76123e+06 -76151.3 0 1.7696e+06 -58474.1 0 1.77527e+06 -41497.5 0 1.7784e+06 -25282 0 1.77912e+06 -9875.05 0 1.7776e+06 4688.39 0 1.77398e+06 18385.4 0 1.76841e+06 31204.3 0 1.76104e+06 43143.2 0 1.75202e+06 54209.4 0 1.74149e+06 64417.6 0 1.72959e+06 73789.1 0 1.71645e+06 82350.2 0 1.70219e+06 90131.6 0 1.68693e+06 97167 0 1.67078e+06 103492 0 1.65384e+06 109144 0 1.63621e+06 114161 0 1.61798e+06 118580 0 1.59924e+06 122441 0 1.58006e+06 125779 0 1.5605e+06 128630 0 1.54064e+06 131030 0 1.52054e+06 133011 0 1.50025e+06 134605 0 1.47982e+06 135842 0 1.4593e+06 136751 0 1.43873e+06 137359 0 1.41815e+06 137690 0 1.39759e+06 137768 0 1.37709e+06 137615 0 1.35667e+06 137252 0 1.33635e+06 136698 0 1.31617e+06 135969 0 1.29615e+06 135084 0 1.2763e+06 134056 0 1.25663e+06 132899 0 1.23717e+06 131627 0 1.21794e+06 130252 0 1.19893e+06 128784 0 1.18016e+06 127233 0 1.16165e+06 125609 0 1.14339e+06 123920 0 1.1254e+06 122173 0 1.10769e+06 120377 0 1.09025e+06 118537 0 1.0731e+06 116659 0 1.05623e+06 114749 0 1.03965e+06 112812 0 1.02337e+06 110852 0 1.00738e+06 108873 0 991688 106880 0 976294 104875 0 961199 102861 0 946402 100842 0 931905 98819.5 0 917706 96796.2 0 903805 94774.1 0 890202 92754.9 0 876896 90740.3 0 863884 88731.9 0 851166 86730.7 0 838741 84738.2 0 826607 82755.1 0 814762 80782.5 0 803204 78821.1 0 791931 76871.6 0 780941 74934.5 0 770233 73010.3 0 759804 71099.4 0 749652 69202.1 0 739775 67318.7 0 730171 65449.4 0 720838 63594.2 0 711772 61753.2 0 702973 59926.5 0 694438 58114.1 0 686165 56315.8 0 678152 54531.5 0 670396 52761.2 0 662896 51004.6 0 655649 49261.5 0 648654 47531.8 0 641908 45815 0 635410 44111.1 0 629158 42419.6 0 623150 40740.2 0 617383 39072.7 0 611857 37416.5 0 606570 35771.5 0 601520 34137.1 0 596705 32513.1 0 592125 30898.9 0 587777 29294.2 0 583661 27698.6 0 579774 26111.6 0 576116 24532.7 0 572686 22961.5 0 569482 21397.7 0 566504 19840.6 0 563750 18289.8 0 561219 16744.9 0 558912 15205.4 0 556826 13670.9 0 554962 12140.7 0 553318 10614.5 0 551895 9091.7 0 550691 7571.89 0 549706 6054.55 0 548941 4539.18 0 548394 3025.3 0 548065 1512.4 0 547955 0 0 956765 -397863 0 1.22446e+06 -315536 0 1.30974e+06 -317530 0 1.3891e+06 -303110 0 1.44681e+06 -288134 0 1.49879e+06 -270594 0 1.54321e+06 -252133 0 1.58284e+06 -232845 0 1.61782e+06 -213102 0 1.64882e+06 -193095 0 1.67606e+06 -173013 0 1.69978e+06 -153008 0 1.72014e+06 -133219 0 1.73728e+06 -113770 0 1.75134e+06 -94771.4 0 1.76243e+06 -76322.4 0 1.7707e+06 -58509.2 0 1.77628e+06 -41405.5 0 1.77931e+06 -25071.6 0 1.77994e+06 -9555.17 0 1.77833e+06 5109.19 0 1.77462e+06 18898.7 0 1.76897e+06 31801.9 0 1.76152e+06 43817.3 0 1.75243e+06 54952.5 0 1.74183e+06 65222.7 0 1.72986e+06 74649.4 0 1.71665e+06 83259.6 0 1.70233e+06 91084.3 0 1.68702e+06 98157.4 0 1.67082e+06 104515 0 1.65383e+06 110195 0 1.63616e+06 115236 0 1.6179e+06 119676 0 1.59912e+06 123553 0 1.5799e+06 126904 0 1.56032e+06 129765 0 1.54044e+06 132172 0 1.52032e+06 134158 0 1.50001e+06 135755 0 1.47956e+06 136993 0 1.45903e+06 137901 0 1.43844e+06 138505 0 1.41785e+06 138832 0 1.39728e+06 138904 0 1.37677e+06 138744 0 1.35634e+06 138373 0 1.33602e+06 137809 0 1.31584e+06 137071 0 1.29581e+06 136174 0 1.27596e+06 135134 0 1.2563e+06 133965 0 1.23684e+06 132680 0 1.2176e+06 131291 0 1.19859e+06 129809 0 1.17983e+06 128244 0 1.16132e+06 126605 0 1.14307e+06 124901 0 1.12508e+06 123139 0 1.10737e+06 121327 0 1.08994e+06 119471 0 1.07279e+06 117578 0 1.05592e+06 115652 0 1.03935e+06 113699 0 1.02307e+06 111722 0 1.00709e+06 109728 0 991405 107718 0 976017 105696 0 960927 103667 0 946136 101631 0 931644 99592.5 0 917451 97553.1 0 903556 95514.8 0 889959 93479.6 0 876657 91449.1 0 863651 89424.7 0 850939 87407.8 0 838520 85399.6 0 826391 83400.9 0 814551 81412.8 0 802998 79436 0 791730 77471.2 0 780746 75519 0 770042 73579.7 0 759618 71653.9 0 749471 69741.8 0 739599 67843.7 0 729999 65959.7 0 720670 64090 0 711609 62234.7 0 702814 60393.8 0 694283 58567.2 0 686014 56754.9 0 678005 54956.8 0 670253 53172.6 0 662756 51402.4 0 655513 49645.7 0 648521 47902.5 0 641779 46172.4 0 635284 44455.2 0 629034 42750.5 0 623029 41058 0 617265 39377.5 0 611742 37708.5 0 606457 36050.6 0 601410 34403.5 0 596598 32766.8 0 592019 31140 0 587674 29522.8 0 583559 27914.8 0 579674 26315.3 0 576018 24724.2 0 572590 23140.8 0 569388 21564.7 0 566411 19995.5 0 563658 18432.6 0 561129 16875.7 0 558822 15324.2 0 556738 13777.6 0 554874 12235.5 0 553232 10697.3 0 551809 9162.68 0 550606 7631 0 549621 6101.82 0 548856 4574.62 0 548310 3048.92 0 547981 1524.21 0 547871 0 0 977151 -406340 0 1.22517e+06 -324326 0 1.31294e+06 -321738 0 1.39112e+06 -306506 0 1.44906e+06 -290793 0 1.50081e+06 -272842 0 1.5452e+06 -254038 0 1.58473e+06 -234476 0 1.61964e+06 -214493 0 1.65055e+06 -194272 0 1.67771e+06 -173993 0 1.70135e+06 -153805 0 1.72162e+06 -133843 0 1.73867e+06 -114231 0 1.75263e+06 -95079.2 0 1.76363e+06 -76485.5 0 1.77181e+06 -58536.5 0 1.77729e+06 -41305.8 0 1.78023e+06 -24853.9 0 1.78077e+06 -9228.13 0 1.77907e+06 5536.84 0 1.77527e+06 19418.5 0 1.76953e+06 32405.7 0 1.76201e+06 44497.3 0 1.75284e+06 55701.1 0 1.74216e+06 66032.9 0 1.73013e+06 75514.5 0 1.71686e+06 84173.4 0 1.70248e+06 92041 0 1.68711e+06 99151.6 0 1.67086e+06 105542 0 1.65383e+06 111250 0 1.63612e+06 116314 0 1.61781e+06 120774 0 1.599e+06 124667 0 1.57975e+06 128031 0 1.56014e+06 130902 0 1.54023e+06 133317 0 1.52009e+06 135307 0 1.49976e+06 136907 0 1.4793e+06 138145 0 1.45875e+06 139051 0 1.43815e+06 139653 0 1.41755e+06 139975 0 1.39697e+06 140041 0 1.37645e+06 139874 0 1.35601e+06 139494 0 1.33569e+06 138921 0 1.31551e+06 138172 0 1.29548e+06 137264 0 1.27562e+06 136212 0 1.25596e+06 135031 0 1.2365e+06 133733 0 1.21726e+06 132331 0 1.19826e+06 130834 0 1.1795e+06 129255 0 1.16099e+06 127601 0 1.14274e+06 125882 0 1.12476e+06 124105 0 1.10705e+06 122277 0 1.08962e+06 120406 0 1.07248e+06 118496 0 1.05562e+06 116554 0 1.03905e+06 114585 0 1.02278e+06 112593 0 1.0068e+06 110581 0 991121 108555 0 975738 106518 0 960654 104472 0 945869 102420 0 931383 100365 0 917195 98309.6 0 903306 96255.2 0 889714 94204 0 876418 92157.5 0 863418 90117.3 0 850711 88084.6 0 838297 86060.6 0 826173 84046.4 0 814339 82042.8 0 802791 80050.6 0 791528 78070.6 0 780549 76103.1 0 769851 74148.8 0 759432 72208.1 0 749289 70281.2 0 739421 68368.3 0 729826 66469.8 0 720501 64585.7 0 711445 62716 0 702654 60860.9 0 694127 59020.1 0 685862 57193.8 0 677857 55381.8 0 670108 53583.9 0 662615 51799.9 0 655376 50029.7 0 648387 48273 0 641648 46529.5 0 635156 44799 0 628910 43081.2 0 622907 41375.7 0 617147 39682.1 0 611626 38000.2 0 606344 36329.5 0 601299 34669.7 0 596489 33020.4 0 591913 31381 0 587569 29751.3 0 583457 28130.8 0 579574 26519 0 575920 24915.5 0 572493 23319.9 0 569292 21731.6 0 566317 20150.3 0 563566 18575.3 0 561038 17006.3 0 558732 15442.8 0 556649 13884.3 0 554786 12330.2 0 553144 10780.2 0 551722 9233.63 0 550520 7690.09 0 549536 6149.07 0 548771 4610.05 0 548225 3072.53 0 547897 1536.02 0 547787 0 0 995988 -414173 0 1.22651e+06 -332628 0 1.3161e+06 -325935 0 1.39323e+06 -309863 0 1.45132e+06 -293439 0 1.50287e+06 -275077 0 1.5472e+06 -255932 0 1.58664e+06 -236098 0 1.62147e+06 -215876 0 1.6523e+06 -195441 0 1.67938e+06 -174965 0 1.70293e+06 -154593 0 1.72311e+06 -134459 0 1.74007e+06 -114684 0 1.75394e+06 -95378.7 0 1.76484e+06 -76640.4 0 1.77292e+06 -58555.8 0 1.77831e+06 -41198.4 0 1.78115e+06 -24628.6 0 1.7816e+06 -8893.9 0 1.77981e+06 5971.36 0 1.77593e+06 19944.9 0 1.7701e+06 33015.7 0 1.76249e+06 45183 0 1.75325e+06 56455.2 0 1.7425e+06 66848.1 0 1.7304e+06 76384.4 0 1.71706e+06 85091.6 0 1.70263e+06 93001.7 0 1.6872e+06 100149 0 1.6709e+06 106572 0 1.65382e+06 112308 0 1.63607e+06 117395 0 1.61773e+06 121874 0 1.59888e+06 125783 0 1.5796e+06 129160 0 1.55996e+06 132041 0 1.54003e+06 134463 0 1.51986e+06 136458 0 1.49951e+06 138059 0 1.47903e+06 139298 0 1.45847e+06 140203 0 1.43786e+06 140801 0 1.41724e+06 141118 0 1.39666e+06 141178 0 1.37613e+06 141004 0 1.35569e+06 140616 0 1.33536e+06 140033 0 1.31517e+06 139274 0 1.29514e+06 138355 0 1.27528e+06 137291 0 1.25562e+06 136097 0 1.23616e+06 134786 0 1.21693e+06 133370 0 1.19792e+06 131859 0 1.17916e+06 130265 0 1.16066e+06 128597 0 1.14241e+06 126862 0 1.12443e+06 125070 0 1.10673e+06 123227 0 1.08931e+06 121340 0 1.07217e+06 119414 0 1.05531e+06 117456 0 1.03875e+06 115471 0 1.02248e+06 113462 0 1.00651e+06 111435 0 990837 109393 0 975459 107339 0 960381 105276 0 945601 103208 0 931120 101137 0 916938 99065.7 0 903055 96995.3 0 889468 94928 0 876178 92865.6 0 863184 90809.5 0 850482 88761 0 838074 86721.4 0 825955 84691.6 0 814126 82672.5 0 802583 80664.9 0 791326 78669.6 0 780352 76687 0 769658 74717.7 0 759244 72762 0 749106 70820.3 0 739243 68892.8 0 729653 66979.6 0 720332 65081.1 0 711280 63197.1 0 702493 61327.7 0 693971 59472.8 0 685709 57632.5 0 677708 55806.6 0 669963 53994.9 0 662474 52197.3 0 655238 50413.5 0 648253 48643.3 0 641517 46886.5 0 635028 45142.8 0 628785 43411.8 0 622785 41693.2 0 617027 39986.6 0 611509 38291.8 0 606230 36608.4 0 601187 34935.8 0 596380 33273.8 0 591806 31621.9 0 587465 29979.7 0 583354 28346.8 0 579473 26722.6 0 575821 25106.8 0 572396 23498.9 0 569196 21898.5 0 566222 20305 0 563473 18717.9 0 560946 17136.9 0 558642 15561.4 0 556559 13990.9 0 554698 12424.9 0 553056 10863 0 551635 9304.54 0 550433 7749.15 0 549450 6196.29 0 548685 4645.45 0 548139 3096.13 0 547811 1547.81 0 547701 0 0 1.01345e+06 -421436 0 1.2284e+06 -340484 0 1.31924e+06 -330111 0 1.39541e+06 -313183 0 1.45359e+06 -296070 0 1.50494e+06 -277297 0 1.54922e+06 -257816 0 1.58856e+06 -237709 0 1.62331e+06 -217249 0 1.65406e+06 -196601 0 1.68105e+06 -175928 0 1.70451e+06 -155373 0 1.72461e+06 -135067 0 1.74148e+06 -115129 0 1.75525e+06 -95670.1 0 1.76606e+06 -76787.3 0 1.77404e+06 -58567.2 0 1.77933e+06 -41083.2 0 1.78208e+06 -24395.9 0 1.78244e+06 -8552.48 0 1.78055e+06 6412.78 0 1.77658e+06 20477.8 0 1.77068e+06 33631.9 0 1.76299e+06 45874.6 0 1.75366e+06 57214.7 0 1.74284e+06 67668.5 0 1.73067e+06 77259 0 1.71727e+06 86014.2 0 1.70278e+06 93966.4 0 1.6873e+06 101151 0 1.67094e+06 107605 0 1.65382e+06 113368 0 1.63602e+06 118479 0 1.61764e+06 122978 0 1.59876e+06 126902 0 1.57945e+06 130291 0 1.55978e+06 133182 0 1.53982e+06 135610 0 1.51963e+06 137610 0 1.49926e+06 139213 0 1.47877e+06 140452 0 1.45819e+06 141355 0 1.43756e+06 141950 0 1.41694e+06 142262 0 1.39634e+06 142316 0 1.37581e+06 142134 0 1.35536e+06 141738 0 1.33503e+06 141145 0 1.31484e+06 140376 0 1.2948e+06 139445 0 1.27494e+06 138370 0 1.25528e+06 137163 0 1.23582e+06 135839 0 1.21659e+06 134409 0 1.19759e+06 132884 0 1.17883e+06 131276 0 1.16033e+06 129592 0 1.14208e+06 127843 0 1.12411e+06 126035 0 1.10641e+06 124176 0 1.08899e+06 122273 0 1.07186e+06 120332 0 1.05501e+06 118358 0 1.03845e+06 116356 0 1.02219e+06 114332 0 1.00622e+06 112288 0 990551 110230 0 975179 108159 0 960106 106081 0 945332 103997 0 930857 101909 0 916681 99821.5 0 902803 97735 0 889222 95651.7 0 875938 93573.3 0 862948 91501.4 0 850253 89437.1 0 837849 87381.8 0 825736 85336.4 0 813912 83301.9 0 802375 81278.9 0 791123 79268.3 0 780153 77270.6 0 769465 75286.2 0 759055 73315.6 0 748923 71359.1 0 739064 69416.9 0 729478 67489.2 0 720162 65576.2 0 711114 63677.8 0 702332 61794.2 0 693813 59925.3 0 685556 58071 0 677558 56231.2 0 669817 54405.7 0 662332 52594.4 0 655099 50797.1 0 648117 49013.5 0 641385 47243.3 0 634899 45486.3 0 628659 43742.1 0 622662 42010.5 0 616907 40291 0 611392 38583.3 0 606115 36887 0 601075 35201.8 0 596270 33527.1 0 591698 31862.7 0 587359 30208 0 583251 28562.6 0 579372 26926.1 0 575721 25298 0 572297 23677.9 0 569100 22065.2 0 566127 20459.6 0 563379 18860.5 0 560853 17267.4 0 558550 15679.9 0 556469 14097.5 0 554608 12519.5 0 552968 10945.7 0 551547 9375.42 0 550345 7808.18 0 549363 6243.49 0 548599 4680.84 0 548053 3119.71 0 547725 1559.6 0 547615 0 0 1.0297e+06 -428192 0 1.23074e+06 -347932 0 1.32236e+06 -334256 0 1.39765e+06 -316465 0 1.45588e+06 -298685 0 1.50704e+06 -279503 0 1.55124e+06 -259689 0 1.59049e+06 -239311 0 1.62516e+06 -218614 0 1.65583e+06 -197752 0 1.68273e+06 -176883 0 1.70611e+06 -156144 0 1.72611e+06 -135666 0 1.74289e+06 -115566 0 1.75657e+06 -95953.1 0 1.76728e+06 -76926 0 1.77517e+06 -58570.6 0 1.78036e+06 -40960.4 0 1.78302e+06 -24155.7 0 1.78328e+06 -8203.84 0 1.7813e+06 6861.1 0 1.77724e+06 21017.3 0 1.77125e+06 34254.3 0 1.76348e+06 46572.1 0 1.75408e+06 57979.8 0 1.74319e+06 68494.1 0 1.73094e+06 78138.3 0 1.71748e+06 86941.2 0 1.70293e+06 94935.3 0 1.68739e+06 102156 0 1.67099e+06 108642 0 1.65382e+06 114432 0 1.63598e+06 119566 0 1.61756e+06 124083 0 1.59864e+06 128023 0 1.5793e+06 131425 0 1.5596e+06 134325 0 1.53962e+06 136759 0 1.5194e+06 138763 0 1.49902e+06 140369 0 1.4785e+06 141608 0 1.45791e+06 142509 0 1.43727e+06 143100 0 1.41663e+06 143407 0 1.39603e+06 143455 0 1.37549e+06 143265 0 1.35503e+06 142860 0 1.3347e+06 142258 0 1.3145e+06 141478 0 1.29446e+06 140536 0 1.2746e+06 139448 0 1.25494e+06 138229 0 1.23548e+06 136892 0 1.21625e+06 135448 0 1.19725e+06 133909 0 1.1785e+06 132286 0 1.15999e+06 130588 0 1.14176e+06 128823 0 1.12378e+06 127000 0 1.10609e+06 125126 0 1.08867e+06 123207 0 1.07154e+06 121250 0 1.0547e+06 119259 0 1.03815e+06 117242 0 1.02189e+06 115201 0 1.00593e+06 113141 0 990265 111066 0 974898 108980 0 959831 106885 0 945062 104784 0 930593 102681 0 916422 100577 0 902550 98474.4 0 888975 96375.1 0 875696 94280.7 0 862712 92192.9 0 850022 90112.9 0 837624 88041.9 0 825517 85980.9 0 813698 83930.9 0 802166 81892.6 0 790919 79866.8 0 779954 77853.9 0 769271 75854.5 0 758866 73869 0 748738 71897.7 0 738884 69940.8 0 729303 67998.5 0 719991 66071.1 0 710948 64158.4 0 702170 62260.6 0 693655 60377.5 0 685402 58509.2 0 677408 56655.5 0 669671 54816.3 0 662189 52991.4 0 654959 51180.5 0 647981 49383.4 0 641252 47599.9 0 634770 45829.7 0 628533 44072.3 0 622539 42327.6 0 616786 40595.2 0 611274 38874.6 0 606000 37165.5 0 600962 35467.6 0 596159 33780.3 0 591590 32103.3 0 587253 30436.1 0 583146 28778.3 0 579269 27129.5 0 575620 25489.1 0 572198 23856.7 0 569003 22231.9 0 566031 20614.2 0 563284 19003 0 560760 17397.9 0 558458 15798.4 0 556378 14204 0 554518 12614.1 0 552878 11028.4 0 551458 9446.26 0 550257 7867.18 0 549275 6290.67 0 548512 4716.21 0 547966 3143.29 0 547638 1571.39 0 547529 0 0 1.04487e+06 -434498 0 1.23346e+06 -355005 0 1.32547e+06 -338365 0 1.39996e+06 -319711 0 1.45818e+06 -301283 0 1.50915e+06 -281695 0 1.55329e+06 -261550 0 1.59243e+06 -240903 0 1.62702e+06 -219969 0 1.6576e+06 -198894 0 1.68442e+06 -177829 0 1.70771e+06 -156907 0 1.72762e+06 -136256 0 1.74431e+06 -115994 0 1.75789e+06 -96227.9 0 1.76851e+06 -77056.6 0 1.7763e+06 -58566 0 1.7814e+06 -40829.7 0 1.78396e+06 -23908 0 1.78412e+06 -7847.95 0 1.78206e+06 7316.36 0 1.7779e+06 21563.4 0 1.77183e+06 34883 0 1.76397e+06 47275.5 0 1.75449e+06 58750.3 0 1.74353e+06 69324.7 0 1.73122e+06 79022.5 0 1.71769e+06 87872.6 0 1.70308e+06 95908.2 0 1.68749e+06 103165 0 1.67103e+06 109683 0 1.65381e+06 115499 0 1.63593e+06 120655 0 1.61747e+06 125191 0 1.59852e+06 129146 0 1.57914e+06 132560 0 1.55942e+06 135469 0 1.53941e+06 137910 0 1.51918e+06 139918 0 1.49877e+06 141525 0 1.47824e+06 142764 0 1.45763e+06 143663 0 1.43698e+06 144251 0 1.41633e+06 144553 0 1.39571e+06 144594 0 1.37516e+06 144397 0 1.35471e+06 143983 0 1.33437e+06 143371 0 1.31417e+06 142580 0 1.29413e+06 141627 0 1.27426e+06 140527 0 1.2546e+06 139295 0 1.23514e+06 137944 0 1.21591e+06 136487 0 1.19691e+06 134934 0 1.17816e+06 133296 0 1.15966e+06 131583 0 1.14143e+06 129803 0 1.12346e+06 127965 0 1.10577e+06 126075 0 1.08836e+06 124140 0 1.07123e+06 122167 0 1.05439e+06 120161 0 1.03785e+06 118127 0 1.02159e+06 116070 0 1.00564e+06 113994 0 989977 111902 0 974616 109800 0 959554 107689 0 944792 105572 0 930328 103452 0 916163 101332 0 902296 99213.4 0 888727 97098.1 0 875454 94987.8 0 862475 92884.1 0 849791 90788.4 0 837398 88701.7 0 825296 86625.1 0 813482 84559.7 0 801956 82506 0 790714 80464.9 0 779754 78436.9 0 769076 76422.5 0 758676 74422 0 748553 72435.9 0 738704 70464.4 0 729127 68507.6 0 719820 66565.7 0 710780 64638.7 0 702006 62726.6 0 693496 60829.5 0 685247 58947.2 0 677256 57079.7 0 669523 55226.7 0 662045 53388.1 0 654819 51563.7 0 647844 49753.2 0 641118 47956.3 0 634639 46172.9 0 628405 44402.4 0 622414 42644.6 0 616665 40899.2 0 611155 39165.8 0 605883 37443.9 0 600848 35733.3 0 596048 34033.4 0 591481 32343.8 0 587146 30664.1 0 583041 28993.9 0 579166 27332.7 0 575519 25680.1 0 572099 24035.5 0 568905 22398.5 0 565935 20768.7 0 563189 19145.4 0 560666 17528.3 0 558365 15916.8 0 556286 14310.4 0 554427 12708.7 0 552788 11111.1 0 551369 9517.07 0 550169 7926.15 0 549187 6337.83 0 548424 4751.56 0 547878 3166.85 0 547551 1583.17 0 547441 0 0 1.05906e+06 -440403 0 1.23651e+06 -361735 0 1.32859e+06 -342431 0 1.40232e+06 -322921 0 1.4605e+06 -303864 0 1.51129e+06 -283873 0 1.55534e+06 -263401 0 1.59439e+06 -242485 0 1.6289e+06 -221314 0 1.65939e+06 -200027 0 1.68612e+06 -178766 0 1.70932e+06 -157662 0 1.72914e+06 -136838 0 1.74573e+06 -116413 0 1.75922e+06 -96494.4 0 1.76974e+06 -77179 0 1.77743e+06 -58553.5 0 1.78244e+06 -40691.2 0 1.7849e+06 -23652.7 0 1.78497e+06 -7484.79 0 1.78281e+06 7778.57 0 1.77857e+06 22116.1 0 1.77241e+06 35517.9 0 1.76447e+06 47984.7 0 1.75491e+06 59526.4 0 1.74388e+06 70160.5 0 1.7315e+06 79911.4 0 1.71791e+06 88808.4 0 1.70323e+06 96885.2 0 1.68758e+06 104178 0 1.67108e+06 110726 0 1.65381e+06 116569 0 1.63589e+06 121748 0 1.61739e+06 126302 0 1.5984e+06 130272 0 1.57899e+06 133697 0 1.55924e+06 136615 0 1.53921e+06 139062 0 1.51895e+06 141074 0 1.49852e+06 142683 0 1.47797e+06 143921 0 1.45734e+06 144818 0 1.43668e+06 145402 0 1.41602e+06 145699 0 1.3954e+06 145734 0 1.37484e+06 145529 0 1.35438e+06 145106 0 1.33403e+06 144484 0 1.31383e+06 143683 0 1.29379e+06 142718 0 1.27392e+06 141606 0 1.25426e+06 140361 0 1.2348e+06 138997 0 1.21557e+06 137526 0 1.19657e+06 135959 0 1.17782e+06 134306 0 1.15933e+06 132578 0 1.14109e+06 130783 0 1.12313e+06 128929 0 1.10544e+06 127023 0 1.08804e+06 125073 0 1.07092e+06 123084 0 1.05408e+06 121061 0 1.03754e+06 119011 0 1.02129e+06 116938 0 1.00534e+06 114846 0 989689 112738 0 974333 110619 0 959277 108492 0 944520 106359 0 930062 104223 0 915903 102087 0 902042 99952.1 0 888478 97820.8 0 875210 95694.6 0 862238 93575 0 849558 91463.5 0 837171 89361.1 0 825075 87269 0 813266 85188.1 0 801745 83119.1 0 790508 81062.7 0 779554 79019.6 0 768880 76990.2 0 758485 74974.8 0 748367 72973.9 0 738522 70987.7 0 728950 69016.4 0 719647 67060 0 710612 65118.7 0 701842 63192.5 0 693336 61281.3 0 685091 59385 0 677105 57503.6 0 669375 55636.9 0 661900 53784.7 0 654678 51946.7 0 647707 50122.8 0 640984 48312.6 0 634508 46515.9 0 628277 44732.3 0 622289 42961.5 0 616543 41203.1 0 611036 39456.8 0 605767 37722.2 0 600734 35998.8 0 595936 34286.3 0 591371 32584.2 0 587038 30892 0 582936 29209.4 0 579062 27535.9 0 575417 25871 0 571999 24214.2 0 568806 22565 0 565838 20923.1 0 563093 19287.7 0 560572 17658.6 0 558272 16035.1 0 556194 14416.8 0 554336 12803.2 0 552698 11193.7 0 551279 9587.84 0 550079 7985.09 0 549098 6384.96 0 548335 4786.9 0 547790 3190.4 0 547463 1594.94 0 547353 0 0 1.0724e+06 -445949 0 1.23984e+06 -368148 0 1.33172e+06 -346449 0 1.40473e+06 -326095 0 1.46284e+06 -306428 0 1.51345e+06 -286036 0 1.55741e+06 -265240 0 1.59636e+06 -244056 0 1.63078e+06 -222651 0 1.66119e+06 -201152 0 1.68783e+06 -179695 0 1.71094e+06 -158407 0 1.73067e+06 -137412 0 1.74717e+06 -116825 0 1.76056e+06 -96752.5 0 1.77098e+06 -77293.2 0 1.77858e+06 -58532.9 0 1.78348e+06 -40544.9 0 1.78585e+06 -23389.8 0 1.78582e+06 -7114.36 0 1.78357e+06 8247.75 0 1.77924e+06 22675.4 0 1.77299e+06 36159.1 0 1.76497e+06 48699.9 0 1.75534e+06 60308 0 1.74422e+06 71001.5 0 1.73178e+06 80805.1 0 1.71812e+06 89748.7 0 1.70338e+06 97866.2 0 1.68768e+06 105195 0 1.67112e+06 111773 0 1.65381e+06 117642 0 1.63584e+06 122843 0 1.61731e+06 127415 0 1.59828e+06 131400 0 1.57884e+06 134837 0 1.55906e+06 137763 0 1.539e+06 140216 0 1.51872e+06 142232 0 1.49827e+06 143842 0 1.4777e+06 145080 0 1.45706e+06 145975 0 1.43639e+06 146555 0 1.41572e+06 146846 0 1.39508e+06 146874 0 1.37452e+06 146661 0 1.35405e+06 146229 0 1.3337e+06 145598 0 1.31349e+06 144785 0 1.29345e+06 143809 0 1.27358e+06 142685 0 1.25391e+06 141427 0 1.23446e+06 140050 0 1.21523e+06 138565 0 1.19623e+06 136983 0 1.17749e+06 135316 0 1.15899e+06 133573 0 1.14076e+06 131763 0 1.1228e+06 129893 0 1.10512e+06 127972 0 1.08772e+06 126005 0 1.0706e+06 124000 0 1.05377e+06 121962 0 1.03724e+06 119896 0 1.02099e+06 117806 0 1.00505e+06 115698 0 989400 113574 0 974050 111439 0 958999 109295 0 944248 107146 0 929795 104994 0 915642 102841 0 901786 100690 0 888228 98543.1 0 874966 96401 0 861999 94265.6 0 849325 92138.3 0 836944 90020.3 0 824852 87912.6 0 813049 85816.2 0 801533 83731.9 0 790301 81660.3 0 779352 79602 0 768684 77557.6 0 758294 75527.3 0 748180 73511.7 0 738340 71510.8 0 728772 69524.9 0 719474 67554.1 0 710443 65598.5 0 701678 63658.1 0 693176 61732.8 0 684934 59822.6 0 676952 57927.3 0 669226 56046.9 0 661755 54181 0 654536 52329.5 0 647568 50492.1 0 640849 48668.6 0 634376 46858.7 0 628148 45062 0 622163 43278.1 0 616420 41506.8 0 610915 39747.7 0 605649 38000.3 0 600619 36264.2 0 595823 34539.1 0 591260 32824.4 0 586930 31119.8 0 582829 29424.8 0 578958 27739 0 575315 26061.8 0 571898 24392.8 0 568707 22731.5 0 565740 21077.4 0 562997 19430 0 560476 17788.9 0 558178 16153.4 0 556100 14523.2 0 554243 12897.6 0 552606 11276.3 0 551188 9658.57 0 549989 8044.01 0 549009 6432.06 0 548246 4822.21 0 547701 3213.94 0 547374 1606.71 0 547264 0 0 1.08497e+06 -451175 0 1.2434e+06 -374269 0 1.33486e+06 -350417 0 1.40719e+06 -329235 0 1.4652e+06 -308973 0 1.51563e+06 -288185 0 1.5595e+06 -267068 0 1.59834e+06 -245618 0 1.63268e+06 -223978 0 1.66299e+06 -202267 0 1.68955e+06 -180615 0 1.71257e+06 -159144 0 1.73221e+06 -137977 0 1.74861e+06 -117227 0 1.7619e+06 -97002.2 0 1.77223e+06 -77399.2 0 1.77972e+06 -58504.2 0 1.78453e+06 -40390.8 0 1.7868e+06 -23119.4 0 1.78668e+06 -6736.61 0 1.78433e+06 8723.91 0 1.77991e+06 23241.4 0 1.77358e+06 36806.6 0 1.76548e+06 49421 0 1.75576e+06 61095.2 0 1.74457e+06 71847.7 0 1.73206e+06 81703.6 0 1.71833e+06 90693.4 0 1.70354e+06 98851.4 0 1.68778e+06 106215 0 1.67117e+06 112824 0 1.65381e+06 118719 0 1.6358e+06 123941 0 1.61722e+06 128531 0 1.59816e+06 132530 0 1.57869e+06 135978 0 1.55888e+06 138913 0 1.53879e+06 141372 0 1.51849e+06 143391 0 1.49802e+06 145003 0 1.47744e+06 146240 0 1.45678e+06 147132 0 1.43609e+06 147708 0 1.41541e+06 147994 0 1.39477e+06 148015 0 1.3742e+06 147794 0 1.35372e+06 147353 0 1.33336e+06 146711 0 1.31315e+06 145888 0 1.2931e+06 144900 0 1.27324e+06 143764 0 1.25357e+06 142493 0 1.23412e+06 141102 0 1.21489e+06 139603 0 1.19589e+06 138008 0 1.17715e+06 136326 0 1.15866e+06 134568 0 1.14043e+06 132742 0 1.12248e+06 130857 0 1.1048e+06 128920 0 1.0874e+06 126938 0 1.07028e+06 124917 0 1.05346e+06 122862 0 1.03693e+06 120780 0 1.02069e+06 118674 0 1.00475e+06 116549 0 989110 114409 0 973765 112258 0 958720 110098 0 943974 107932 0 929527 105764 0 915380 103595 0 901530 101429 0 887977 99265.1 0 874721 97107 0 861759 94955.8 0 849091 92812.7 0 836715 90679.1 0 824629 88555.9 0 812831 86444 0 801320 84344.3 0 790094 82257.5 0 779150 80184.1 0 768486 78124.7 0 758101 76079.6 0 747992 74049.1 0 738157 72033.6 0 728593 70033.2 0 719300 68048 0 710273 66078.1 0 701512 64123.5 0 693014 62184.1 0 684777 60259.9 0 676798 58350.8 0 669076 56456.6 0 661609 54577.1 0 654394 52712.1 0 647429 50861.3 0 640713 49024.5 0 634244 47201.3 0 628019 45391.5 0 622037 43594.6 0 616296 41810.4 0 610794 40038.4 0 605531 38278.2 0 600503 36529.5 0 595709 34791.7 0 591149 33064.6 0 586821 31347.5 0 582722 29640.1 0 578853 27941.9 0 575211 26252.5 0 571796 24571.3 0 568607 22897.8 0 565641 21231.6 0 562900 19572.2 0 560380 17919 0 558083 16271.6 0 556007 14629.5 0 554151 12992 0 552514 11358.8 0 551097 9729.27 0 549899 8102.89 0 548918 6479.14 0 548156 4857.51 0 547612 3237.46 0 547285 1618.47 0 547175 0 0 1.09684e+06 -456113 0 1.24714e+06 -380122 0 1.33802e+06 -354330 0 1.40969e+06 -332339 0 1.46757e+06 -311500 0 1.51782e+06 -290319 0 1.56159e+06 -268884 0 1.60034e+06 -247169 0 1.63458e+06 -225295 0 1.66481e+06 -203373 0 1.69128e+06 -181526 0 1.7142e+06 -159873 0 1.73375e+06 -138533 0 1.75005e+06 -117621 0 1.76325e+06 -97243.6 0 1.77348e+06 -77496.9 0 1.78087e+06 -58467.4 0 1.78558e+06 -40228.8 0 1.78775e+06 -22841.3 0 1.78754e+06 -6351.54 0 1.7851e+06 9207.09 0 1.78059e+06 23814 0 1.77417e+06 37460.4 0 1.76598e+06 50148 0 1.75619e+06 61887.9 0 1.74493e+06 72699 0 1.73234e+06 82607 0 1.71855e+06 91642.5 0 1.70369e+06 99840.6 0 1.68788e+06 107239 0 1.67122e+06 113878 0 1.65381e+06 119798 0 1.63575e+06 125042 0 1.61714e+06 129649 0 1.59804e+06 133663 0 1.57854e+06 137122 0 1.5587e+06 140065 0 1.53859e+06 142529 0 1.51826e+06 144551 0 1.49777e+06 146164 0 1.47717e+06 147400 0 1.4565e+06 148290 0 1.4358e+06 148862 0 1.4151e+06 149142 0 1.39445e+06 149156 0 1.37387e+06 148927 0 1.35339e+06 148477 0 1.33303e+06 147825 0 1.31281e+06 146991 0 1.29276e+06 145992 0 1.27289e+06 144843 0 1.25323e+06 143560 0 1.23377e+06 142155 0 1.21454e+06 140642 0 1.19555e+06 139032 0 1.17681e+06 137336 0 1.15832e+06 135562 0 1.1401e+06 133721 0 1.12215e+06 131821 0 1.10447e+06 129868 0 1.08708e+06 127870 0 1.06997e+06 125833 0 1.05315e+06 123762 0 1.03662e+06 121664 0 1.02039e+06 119541 0 1.00446e+06 117400 0 988819 115244 0 973480 113076 0 958440 110900 0 943700 108718 0 929259 106534 0 915117 104349 0 901272 102166 0 887726 99986.8 0 874475 97812.8 0 861519 95645.7 0 848856 93486.9 0 836486 91337.6 0 824405 89198.8 0 812613 87071.5 0 801107 84956.5 0 789886 82854.4 0 778947 80765.9 0 768288 78691.5 0 757908 76631.5 0 747803 74586.3 0 737973 72556.1 0 728414 70541.2 0 719125 68541.6 0 710103 66557.4 0 701346 64588.6 0 692852 62635.2 0 684619 60697 0 676644 58774.1 0 668926 56866.2 0 661462 54973 0 654251 53094.5 0 647290 51230.3 0 640577 49380.2 0 634110 47543.8 0 627889 45720.9 0 621910 43911 0 616172 42113.8 0 610673 40328.9 0 605411 38556 0 600386 36794.6 0 595595 35044.3 0 591037 33304.6 0 586711 31575.1 0 582615 29855.3 0 578747 28144.8 0 575107 26443.1 0 571694 24749.7 0 568506 23064.1 0 565542 21385.8 0 562802 19714.3 0 560284 18049.2 0 557988 16389.8 0 555912 14735.7 0 554057 13086.4 0 552422 11441.3 0 551005 9799.93 0 549807 8161.74 0 548827 6526.2 0 548066 4892.79 0 547521 3260.98 0 547195 1630.22 0 547085 0 0 1.1081e+06 -460793 0 1.25105e+06 -385726 0 1.3412e+06 -358188 0 1.41223e+06 -335409 0 1.46996e+06 -314008 0 1.52003e+06 -292439 0 1.5637e+06 -270688 0 1.60234e+06 -248709 0 1.6365e+06 -226603 0 1.66663e+06 -204471 0 1.69301e+06 -182428 0 1.71585e+06 -160592 0 1.7353e+06 -139081 0 1.75151e+06 -118007 0 1.76461e+06 -97476.5 0 1.77474e+06 -77586.3 0 1.78203e+06 -58422.5 0 1.78664e+06 -40058.9 0 1.78871e+06 -22555.6 0 1.7884e+06 -5959.11 0 1.78587e+06 9697.29 0 1.78127e+06 24393.3 0 1.77476e+06 38120.5 0 1.76649e+06 50880.9 0 1.75662e+06 62686.2 0 1.74528e+06 73555.6 0 1.73262e+06 83515.1 0 1.71877e+06 92596.2 0 1.70385e+06 100834 0 1.68798e+06 108267 0 1.67126e+06 114935 0 1.65381e+06 120881 0 1.63571e+06 126145 0 1.61705e+06 130770 0 1.59792e+06 134798 0 1.57839e+06 138267 0 1.55852e+06 141218 0 1.53838e+06 143688 0 1.51803e+06 145713 0 1.49752e+06 147327 0 1.4769e+06 148562 0 1.45622e+06 149449 0 1.4355e+06 150017 0 1.4148e+06 150291 0 1.39414e+06 150298 0 1.37355e+06 150061 0 1.35306e+06 149602 0 1.33269e+06 148940 0 1.31247e+06 148095 0 1.29242e+06 147083 0 1.27255e+06 145922 0 1.25288e+06 144626 0 1.23343e+06 143208 0 1.2142e+06 141681 0 1.19521e+06 140056 0 1.17647e+06 138345 0 1.15798e+06 136557 0 1.13976e+06 134700 0 1.12182e+06 132784 0 1.10414e+06 130816 0 1.08675e+06 128802 0 1.06965e+06 126748 0 1.05284e+06 124662 0 1.03632e+06 122547 0 1.02009e+06 120409 0 1.00416e+06 118251 0 988527 116079 0 973193 113895 0 958159 111702 0 943425 109504 0 928989 107304 0 914853 105103 0 901014 102904 0 887473 100708 0 874228 98518.2 0 861278 96335.3 0 848621 94160.7 0 836255 91995.7 0 824180 89841.4 0 812393 87698.7 0 800893 85568.3 0 789676 83451 0 778743 81347.4 0 768089 79258 0 757713 77183.2 0 747614 75123.2 0 737788 73078.4 0 728234 71048.9 0 718949 69034.9 0 709932 67036.4 0 701179 65053.5 0 692689 63086 0 684460 61133.9 0 676489 59197.1 0 668775 57275.5 0 661315 55368.8 0 654107 53476.7 0 647149 51599.1 0 640440 49735.7 0 633976 47886.1 0 627758 46050 0 621782 44227.1 0 616046 42417 0 610550 40619.4 0 605292 38833.7 0 600269 37059.6 0 595480 35296.7 0 590925 33544.4 0 586600 31802.5 0 582506 30070.4 0 578641 28347.5 0 575003 26633.6 0 571591 24928 0 568404 23230.2 0 565442 21539.9 0 562703 19856.4 0 560187 18179.2 0 557891 16507.9 0 555817 14841.9 0 553963 13180.7 0 552328 11523.8 0 550912 9870.55 0 549715 8220.56 0 548736 6573.24 0 547974 4928.06 0 547430 3284.48 0 547104 1641.97 0 546994 0 0 1.11879e+06 -465240 0 1.25509e+06 -391099 0 1.3444e+06 -361988 0 1.41481e+06 -338445 0 1.47237e+06 -316497 0 1.52227e+06 -294543 0 1.56582e+06 -272481 0 1.60436e+06 -250240 0 1.63842e+06 -227902 0 1.66847e+06 -205559 0 1.69476e+06 -183321 0 1.7175e+06 -161303 0 1.73686e+06 -139620 0 1.75297e+06 -118384 0 1.76597e+06 -97700.9 0 1.776e+06 -77667.3 0 1.7832e+06 -58369.5 0 1.78771e+06 -39881 0 1.78968e+06 -22262.2 0 1.78927e+06 -5559.32 0 1.78664e+06 10194.5 0 1.78195e+06