<?xml version="1.0"?> 
<VTKFile type="StructuredGrid" version="0.1"> 
<StructuredGrid WholeExtent="0 127 0 127 0 0"> 
<Piece Extent="0 127 0 127 0 0"> 
<PointData>
<DataArray type="Float32" Name="E" format="ascii" NumberOfComponents="3"> 
-4.42968e+06 -2.81981e+06 0 -3.9487e+06 -4.00643e+06 0 -3.7405e+06 -3.78157e+06 0 -3.60757e+06 -3.35293e+06 0 -3.53728e+06 -2.92961e+06 0 -3.49401e+06 -2.6286e+06 0 -3.46387e+06 -2.41038e+06 0 -3.43909e+06 -2.23993e+06 0 -3.41782e+06 -2.09249e+06 0 -3.39939e+06 -1.9602e+06 0 -3.38342e+06 -1.84075e+06 0 -3.36941e+06 -1.73302e+06 0 -3.35689e+06 -1.63523e+06 0 -3.34554e+06 -1.54554e+06 0 -3.33514e+06 -1.46241e+06 0 -3.32557e+06 -1.38478e+06 0 -3.3167e+06 -1.31185e+06 0 -3.30846e+06 -1.24301e+06 0 -3.30077e+06 -1.17775e+06 0 -3.29359e+06 -1.11561e+06 0 -3.28687e+06 -1.05621e+06 0 -3.28057e+06 -999240 0 -3.27465e+06 -944419 0 -3.26911e+06 -891517 0 -3.26391e+06 -840332 0 -3.25903e+06 -790688 0 -3.25446e+06 -742430 0 -3.25019e+06 -695422 0 -3.2462e+06 -649545 0 -3.24249e+06 -604694 0 -3.23903e+06 -560773 0 -3.23582e+06 -517699 0 -3.23286e+06 -475396 0 -3.23013e+06 -433797 0 -3.22763e+06 -392841 0 -3.22535e+06 -352473 0 -3.22328e+06 -312644 0 -3.22143e+06 -273308 0 -3.21978e+06 -234425 0 -3.21833e+06 -195957 0 -3.21707e+06 -157869 0 -3.216e+06 -120131 0 -3.21512e+06 -82713.7 0 -3.21443e+06 -45589.7 0 -3.21391e+06 -8734.83 0 -3.21357e+06 27873.9 0 -3.2134e+06 64257.9 0 -3.21341e+06 100437 0 -3.21358e+06 136430 0 -3.21392e+06 172255 0 -3.21442e+06 207927 0 -3.21508e+06 243463 0 -3.2159e+06 278878 0 -3.21688e+06 314186 0 -3.21802e+06 349400 0 -3.21931e+06 384534 0 -3.22076e+06 419599 0 -3.22235e+06 454610 0 -3.2241e+06 489576 0 -3.226e+06 524510 0 -3.22804e+06 559424 0 -3.23024e+06 594327 0 -3.23258e+06 629232 0 -3.23507e+06 664148 0 -3.23771e+06 699087 0 -3.24049e+06 734060 0 -3.24341e+06 769077 0 -3.24648e+06 804148 0 -3.2497e+06 839286 0 -3.25306e+06 874500 0 -3.25657e+06 909802 0 -3.26022e+06 945203 0 -3.26401e+06 980716 0 -3.26795e+06 1.01635e+06 0 -3.27204e+06 1.05212e+06 0 -3.27627e+06 1.08804e+06 0 -3.28065e+06 1.12412e+06 0 -3.28518e+06 1.16037e+06 0 -3.28985e+06 1.19681e+06 0 -3.29467e+06 1.23346e+06 0 -3.29965e+06 1.27032e+06 0 -3.30477e+06 1.30742e+06 0 -3.31005e+06 1.34477e+06 0 -3.31548e+06 1.3824e+06 0 -3.32107e+06 1.42031e+06 0 -3.32681e+06 1.45854e+06 0 -3.33272e+06 1.49711e+06 0 -3.33879e+06 1.53603e+06 0 -3.34503e+06 1.57534e+06 0 -3.35143e+06 1.61506e+06 0 -3.35801e+06 1.65523e+06 0 -3.36477e+06 1.69588e+06 0 -3.37171e+06 1.73705e+06 0 -3.37884e+06 1.77877e+06 0 -3.38617e+06 1.82109e+06 0 -3.3937e+06 1.86406e+06 0 -3.40144e+06 1.90774e+06 0 -3.4094e+06 1.95218e+06 0 -3.41759e+06 1.99745e+06 0 -3.42603e+06 2.04362e+06 0 -3.43473e+06 2.09079e+06 0 -3.4437e+06 2.13904e+06 0 -3.45298e+06 2.18848e+06 0 -3.46258e+06 2.23924e+06 0 -3.47253e+06 2.29145e+06 0 -3.48286e+06 2.34527e+06 0 -3.49362e+06 2.40089e+06 0 -3.50484e+06 2.45852e+06 0 -3.51658e+06 2.51841e+06 0 -3.52891e+06 2.58084e+06 0 -3.54192e+06 2.64617e+06 0 -3.55568e+06 2.71481e+06 0 -3.57033e+06 2.78725e+06 0 -3.58601e+06 2.8641e+06 0 -3.60292e+06 2.9461e+06 0 -3.62127e+06 3.0342e+06 0 -3.64139e+06 3.12957e+06 0 -3.66369e+06 3.23377e+06 0 -3.68869e+06 3.34866e+06 0 -3.71723e+06 3.47793e+06 0 -3.75023e+06 3.62281e+06 0 -3.7899e+06 3.79291e+06 0 -3.83723e+06 4.00039e+06 0 -3.90184e+06 4.23758e+06 0 -3.98072e+06 4.50481e+06 0 -4.11635e+06 5.4545e+06 0 -4.33662e+06 3.63972e+06 0 -5.38101e+06 2.11997e+07 0 -3.86904e+06 -4.25659e+06 0 -3.57719e+06 -3.79917e+06 0 -3.47254e+06 -3.20832e+06 0 -3.43713e+06 -2.79698e+06 0 -3.42446e+06 -2.52144e+06 0 -3.41059e+06 -2.3346e+06 0 -3.39455e+06 -2.18142e+06 0 -3.37848e+06 -2.04401e+06 0 -3.36423e+06 -1.91762e+06 0 -3.35192e+06 -1.80288e+06 0 -3.34103e+06 -1.69922e+06 0 -3.33106e+06 -1.60496e+06 0 -3.32178e+06 -1.51822e+06 0 -3.3131e+06 -1.43754e+06 0 -3.30498e+06 -1.36196e+06 0 -3.29739e+06 -1.2908e+06 0 -3.29026e+06 -1.22351e+06 0 -3.28355e+06 -1.1596e+06 0 -3.27723e+06 -1.09866e+06 0 -3.27127e+06 -1.04033e+06 0 -3.26565e+06 -984315 0 -3.26035e+06 -930351 0 -3.25536e+06 -878224 0 -3.25066e+06 -827744 0 -3.24624e+06 -778743 0 -3.24208e+06 -731076 0 -3.23819e+06 -684612 0 -3.23454e+06 -639240 0 -3.23114e+06 -594856 0 -3.22797e+06 -551373 0 -3.22503e+06 -508708 0 -3.22231e+06 -466790 0 -3.2198e+06 -425555 0 -3.21751e+06 -384944 0 -3.21542e+06 -344904 0 -3.21353e+06 -305387 0 -3.21183e+06 -266351 0 -3.21033e+06 -227754 0 -3.20902e+06 -189562 0 -3.20789e+06 -151741 0 -3.20694e+06 -114261 0 -3.20616e+06 -77093.2 0 -3.20557e+06 -40212.3 0 -3.20514e+06 -3594.07 0 -3.20488e+06 32783.6 0 -3.20479e+06 68941.6 0 -3.20486e+06 104899 0 -3.20509e+06 140675 0 -3.20548e+06 176286 0 -3.20603e+06 211748 0 -3.20673e+06 247076 0 -3.20759e+06 282286 0 -3.2086e+06 317391 0 -3.20976e+06 352404 0 -3.21108e+06 387339 0 -3.21254e+06 422207 0 -3.21414e+06 457021 0 -3.2159e+06 491792 0 -3.21779e+06 526531 0 -3.21984e+06 561251 0 -3.22202e+06 595960 0 -3.22435e+06 630671 0 -3.22682e+06 665394 0 -3.22944e+06 700139 0 -3.23219e+06 734918 0 -3.23509e+06 769740 0 -3.23812e+06 804616 0 -3.2413e+06 839557 0 -3.24462e+06 874573 0 -3.24808e+06 909676 0 -3.25167e+06 944876 0 -3.25541e+06 980186 0 -3.25929e+06 1.01562e+06 0 -3.26331e+06 1.05118e+06 0 -3.26747e+06 1.08689e+06 0 -3.27177e+06 1.12275e+06 0 -3.27621e+06 1.15879e+06 0 -3.2808e+06 1.19501e+06 0 -3.28553e+06 1.23144e+06 0 -3.2904e+06 1.26807e+06 0 -3.29542e+06 1.30494e+06 0 -3.30059e+06 1.34206e+06 0 -3.3059e+06 1.37945e+06 0 -3.31136e+06 1.41712e+06 0 -3.31698e+06 1.45509e+06 0 -3.32274e+06 1.4934e+06 0 -3.32867e+06 1.53206e+06 0 -3.33474e+06 1.57109e+06 0 -3.34098e+06 1.61053e+06 0 -3.34738e+06 1.65041e+06 0 -3.35395e+06 1.69076e+06 0 -3.36069e+06 1.73161e+06 0 -3.36761e+06 1.773e+06 0 -3.37471e+06 1.81498e+06 0 -3.38199e+06 1.85759e+06 0 -3.38947e+06 1.90089e+06 0 -3.39714e+06 1.94493e+06 0 -3.40503e+06 1.98978e+06 0 -3.41314e+06 2.03551e+06 0 -3.42149e+06 2.08221e+06 0 -3.43008e+06 2.12995e+06 0 -3.43894e+06 2.17886e+06 0 -3.44807e+06 2.22903e+06 0 -3.45752e+06 2.28061e+06 0 -3.46729e+06 2.33375e+06 0 -3.47742e+06 2.38862e+06 0 -3.48796e+06 2.44543e+06 0 -3.49893e+06 2.5044e+06 0 -3.51039e+06 2.56583e+06 0 -3.5224e+06 2.63003e+06 0 -3.53504e+06 2.69739e+06 0 -3.54839e+06 2.76837e+06 0 -3.56256e+06 2.84355e+06 0 -3.57769e+06 2.92362e+06 0 -3.59395e+06 3.00944e+06 0 -3.61155e+06 3.1021e+06 0 -3.63076e+06 3.20301e+06 0 -3.65195e+06 3.31401e+06 0 -3.67557e+06 3.43774e+06 0 -3.70245e+06 3.57715e+06 0 -3.73329e+06 3.73819e+06 0 -3.76831e+06 3.92936e+06 0 -3.81594e+06 4.15522e+06 0 -3.87038e+06 4.45128e+06 0 -3.90174e+06 4.92399e+06 0 -4.16025e+06 5.17793e+06 0 -3.86808e+06 8.51136e+06 0 -511927 7.45334e+06 0 -3.39578e+06 -3.37258e+06 0 -3.34701e+06 -2.92724e+06 0 -3.36041e+06 -2.62505e+06 0 -3.36957e+06 -2.4373e+06 0 -3.36577e+06 -2.28086e+06 0 -3.35418e+06 -2.13631e+06 0 -3.34189e+06 -1.99979e+06 0 -3.3313e+06 -1.87584e+06 0 -3.32235e+06 -1.76501e+06 0 -3.31424e+06 -1.66555e+06 0 -3.30649e+06 -1.57482e+06 0 -3.29901e+06 -1.49084e+06 0 -3.29185e+06 -1.4124e+06 0 -3.28506e+06 -1.33873e+06 0 -3.27863e+06 -1.26926e+06 0 -3.27252e+06 -1.20348e+06 0 -3.26672e+06 -1.14091e+06 0 -3.2612e+06 -1.08115e+06 0 -3.25595e+06 -1.02387e+06 0 -3.25098e+06 -968799 0 -3.24625e+06 -915690 0 -3.24178e+06 -864338 0 -3.23756e+06 -814565 0 -3.23357e+06 -766211 0 -3.22981e+06 -719138 0 -3.22627e+06 -673224 0 -3.22295e+06 -628360 0 -3.21985e+06 -584451 0 -3.21696e+06 -541410 0 -3.21428e+06 -499161 0 -3.21179e+06 -457635 0 -3.20951e+06 -416769 0 -3.20741e+06 -376508 0 -3.20551e+06 -336801 0 -3.20379e+06 -297602 0 -3.20226e+06 -258869 0 -3.2009e+06 -220565 0 -3.19972e+06 -182654 0 -3.19871e+06 -145103 0 -3.19788e+06 -107885 0 -3.19721e+06 -70971.4 0 -3.19671e+06 -34337.3 0 -3.19637e+06 2040.56 0 -3.19619e+06 38183.7 0 -3.19617e+06 74112.4 0 -3.19631e+06 109846 0 -3.1966e+06 145401 0 -3.19705e+06 180795 0 -3.19765e+06 216044 0 -3.19839e+06 251163 0 -3.19929e+06 286165 0 -3.20033e+06 321065 0 -3.20152e+06 355876 0 -3.20285e+06 390609 0 -3.20433e+06 425278 0 -3.20595e+06 459894 0 -3.20771e+06 494468 0 -3.20961e+06 529012 0 -3.21165e+06 563536 0 -3.21383e+06 598051 0 -3.21615e+06 632567 0 -3.2186e+06 667096 0 -3.2212e+06 701646 0 -3.22393e+06 736230 0 -3.22679e+06 770857 0 -3.2298e+06 805537 0 -3.23294e+06 840281 0 -3.23621e+06 875100 0 -3.23962e+06 910004 0 -3.24317e+06 945004 0 -3.24685e+06 980111 0 -3.25067e+06 1.01534e+06 0 -3.25463e+06 1.05069e+06 0 -3.25872e+06 1.08619e+06 0 -3.26294e+06 1.12185e+06 0 -3.26731e+06 1.15767e+06 0 -3.27181e+06 1.19368e+06 0 -3.27645e+06 1.22988e+06 0 -3.28123e+06 1.26629e+06 0 -3.28615e+06 1.30294e+06 0 -3.2912e+06 1.33982e+06 0 -3.2964e+06 1.37697e+06 0 -3.30174e+06 1.41439e+06 0 -3.30723e+06 1.45212e+06 0 -3.31286e+06 1.49017e+06 0 -3.31864e+06 1.52857e+06 0 -3.32456e+06 1.56733e+06 0 -3.33064e+06 1.6065e+06 0 -3.33687e+06 1.64608e+06 0 -3.34326e+06 1.68613e+06 0 -3.3498e+06 1.72667e+06 0 -3.35651e+06 1.76774e+06 0 -3.36339e+06 1.80938e+06 0 -3.37043e+06 1.85165e+06 0 -3.37766e+06 1.89458e+06 0 -3.38507e+06 1.93823e+06 0 -3.39267e+06 1.98267e+06 0 -3.40046e+06 2.02797e+06 0 -3.40847e+06 2.07421e+06 0 -3.41669e+06 2.12146e+06 0 -3.42515e+06 2.16984e+06 0 -3.43385e+06 2.21945e+06 0 -3.44281e+06 2.27042e+06 0 -3.45206e+06 2.3229e+06 0 -3.46161e+06 2.37704e+06 0 -3.4715e+06 2.43306e+06 0 -3.48174e+06 2.49116e+06 0 -3.4924e+06 2.55161e+06 0 -3.50349e+06 2.61472e+06 0 -3.51509e+06 2.68085e+06 0 -3.52725e+06 2.75044e+06 0 -3.54004e+06 2.82402e+06 0 -3.55357e+06 2.90223e+06 0 -3.56794e+06 2.98588e+06 0 -3.58329e+06 3.07597e+06 0 -3.5998e+06 3.17377e+06 0 -3.61766e+06 3.28098e+06 0 -3.63712e+06 3.39987e+06 0 -3.65867e+06 3.53331e+06 0 -3.68254e+06 3.68617e+06 0 -3.70818e+06 3.86533e+06 0 -3.74078e+06 4.0763e+06 0 -3.77675e+06 4.35023e+06 0 -3.78088e+06 4.73366e+06 0 -3.89205e+06 5.08473e+06 0 -3.77034e+06 6.79192e+06 0 -1.97528e+06 7.55872e+06 0 -114261 5.20961e+06 0 -3.27077e+06 -2.76246e+06 0 -3.31025e+06 -2.57346e+06 0 -3.32879e+06 -2.39643e+06 0 -3.32557e+06 -2.23576e+06 0 -3.31611e+06 -2.08322e+06 0 -3.30725e+06 -1.94799e+06 0 -3.30048e+06 -1.82972e+06 0 -3.2947e+06 -1.72541e+06 0 -3.289e+06 -1.63099e+06 0 -3.28312e+06 -1.54382e+06 0 -3.27718e+06 -1.46248e+06 0 -3.27138e+06 -1.38625e+06 0 -3.2658e+06 -1.31455e+06 0 -3.26043e+06 -1.24685e+06 0 -3.25526e+06 -1.18263e+06 0 -3.25029e+06 -1.12142e+06 0 -3.24551e+06 -1.06287e+06 0 -3.24093e+06 -1.00667e+06 0 -3.23655e+06 -952561 0 -3.23237e+06 -900324 0 -3.22839e+06 -849766 0 -3.22461e+06 -800715 0 -3.22103e+06 -753022 0 -3.21764e+06 -706558 0 -3.21445e+06 -661206 0 -3.21145e+06 -616863 0 -3.20864e+06 -573439 0 -3.20602e+06 -530852 0 -3.20358e+06 -489028 0 -3.20133e+06 -447902 0 -3.19925e+06 -407414 0 -3.19735e+06 -367511 0 -3.19563e+06 -328145 0 -3.19408e+06 -289271 0 -3.1927e+06 -250849 0 -3.19149e+06 -212842 0 -3.19044e+06 -175218 0 -3.18956e+06 -137944 0 -3.18883e+06 -100993 0 -3.18827e+06 -64337.8 0 -3.18787e+06 -27955.1 0 -3.18761e+06 8178.06 0 -3.18752e+06 44082.7 0 -3.18757e+06 79778.3 0 -3.18778e+06 115283 0 -3.18813e+06 150615 0 -3.18863e+06 185790 0 -3.18928e+06 220823 0 -3.19007e+06 255728 0 -3.191e+06 290521 0 -3.19207e+06 325214 0 -3.19329e+06 359819 0 -3.19465e+06 394350 0 -3.19614e+06 428818 0 -3.19777e+06 463234 0 -3.19954e+06 497610 0 -3.20144e+06 531956 0 -3.20348e+06 566283 0 -3.20566e+06 600602 0 -3.20797e+06 634923 0 -3.21041e+06 669257 0 -3.21298e+06 703612 0 -3.21569e+06 738001 0 -3.21853e+06 772432 0 -3.2215e+06 806916 0 -3.22461e+06 841463 0 -3.22784e+06 876084 0 -3.23121e+06 910789 0 -3.23471e+06 945589 0 -3.23834e+06 980495 0 -3.2421e+06 1.01552e+06 0 -3.24599e+06 1.05067e+06 0 -3.25002e+06 1.08596e+06 0 -3.25417e+06 1.12141e+06 0 -3.25846e+06 1.15702e+06 0 -3.26288e+06 1.19281e+06 0 -3.26743e+06 1.22879e+06 0 -3.27212e+06 1.26498e+06 0 -3.27694e+06 1.3014e+06 0 -3.28189e+06 1.33805e+06 0 -3.28698e+06 1.37496e+06 0 -3.2922e+06 1.41215e+06 0 -3.29756e+06 1.44963e+06 0 -3.30306e+06 1.48743e+06 0 -3.3087e+06 1.52556e+06 0 -3.31448e+06 1.56406e+06 0 -3.3204e+06 1.60295e+06 0 -3.32646e+06 1.64226e+06 0 -3.33267e+06 1.68201e+06 0 -3.33903e+06 1.72225e+06 0 -3.34554e+06 1.763e+06 0 -3.35221e+06 1.80432e+06 0 -3.35903e+06 1.84623e+06 0 -3.36601e+06 1.8888e+06 0 -3.37316e+06 1.93208e+06 0 -3.38048e+06 1.97612e+06 0 -3.38797e+06 2.021e+06 0 -3.39565e+06 2.06679e+06 0 -3.40353e+06 2.11357e+06 0 -3.4116e+06 2.16144e+06 0 -3.41989e+06 2.2105e+06 0 -3.4284e+06 2.26088e+06 0 -3.43715e+06 2.31271e+06 0 -3.44615e+06 2.36616e+06 0 -3.45543e+06 2.42141e+06 0 -3.465e+06 2.47867e+06 0 -3.47489e+06 2.53818e+06 0 -3.48514e+06 2.60025e+06 0 -3.49577e+06 2.66521e+06 0 -3.50683e+06 2.73347e+06 0 -3.51837e+06 2.80552e+06 0 -3.53044e+06 2.88197e+06 0 -3.54311e+06 2.96356e+06 0 -3.55645e+06 3.05121e+06 0 -3.57055e+06 3.14609e+06 0 -3.58551e+06 3.24973e+06 0 -3.60139e+06 3.36415e+06 0 -3.61841e+06 3.49195e+06 0 -3.63652e+06 3.6373e+06 0 -3.6548e+06 3.80591e+06 0 -3.67569e+06 4.00327e+06 0 -3.69716e+06 4.25285e+06 0 -3.69036e+06 4.58558e+06 0 -3.71479e+06 4.93463e+06 0 -3.65011e+06 5.95891e+06 0 -2.62352e+06 6.94294e+06 0 -1.02444e+06 6.32162e+06 0 -383992 5.26966e+06 0 -3.27656e+06 -2.51384e+06 0 -3.28988e+06 -2.32923e+06 0 -3.28615e+06 -2.16269e+06 0 -3.27954e+06 -2.01813e+06 0 -3.27524e+06 -1.89362e+06 0 -3.27222e+06 -1.78529e+06 0 -3.26909e+06 -1.68738e+06 0 -3.26524e+06 -1.59692e+06 0 -3.26085e+06 -1.51248e+06 0 -3.25626e+06 -1.43349e+06 0 -3.25168e+06 -1.35944e+06 0 -3.2472e+06 -1.28976e+06 0 -3.24279e+06 -1.22384e+06 0 -3.23848e+06 -1.16116e+06 0 -3.23426e+06 -1.1013e+06 0 -3.23016e+06 -1.04395e+06 0 -3.22619e+06 -988823 0 -3.22237e+06 -935685 0 -3.2187e+06 -884328 0 -3.21519e+06 -834569 0 -3.21183e+06 -786247 0 -3.20864e+06 -739224 0 -3.20561e+06 -693375 0 -3.20274e+06 -648592 0 -3.20005e+06 -604778 0 -3.19751e+06 -561847 0 -3.19515e+06 -519720 0 -3.19295e+06 -478328 0 -3.19091e+06 -437608 0 -3.18904e+06 -397505 0 -3.18733e+06 -357967 0 -3.18579e+06 -318947 0 -3.1844e+06 -280403 0 -3.18317e+06 -242298 0 -3.1821e+06 -204594 0 -3.18118e+06 -167261 0 -3.18042e+06 -130268 0 -3.17981e+06 -93588.8 0 -3.17935e+06 -57197.1 0 -3.17903e+06 -21069.8 0 -3.17887e+06 14814.9 0 -3.17885e+06 50477.4 0 -3.17898e+06 85936.7 0 -3.17925e+06 121210 0 -3.17967e+06 156316 0 -3.18022e+06 191268 0 -3.18092e+06 226082 0 -3.18175e+06 260773 0 -3.18272e+06 295353 0 -3.18383e+06 329837 0 -3.18507e+06 364235 0 -3.18645e+06 398561 0 -3.18796e+06 432826 0 -3.18961e+06 467041 0 -3.19139e+06 501217 0 -3.1933e+06 535364 0 -3.19534e+06 569494 0 -3.19751e+06 603616 0 -3.19981e+06 637740 0 -3.20224e+06 671878 0 -3.2048e+06 706038 0 -3.20748e+06 740230 0 -3.2103e+06 774465 0 -3.21324e+06 808753 0 -3.21631e+06 843103 0 -3.21951e+06 877526 0 -3.22284e+06 912032 0 -3.22629e+06 946632 0 -3.22987e+06 981337 0 -3.23357e+06 1.01616e+06 0 -3.23741e+06 1.0511e+06 0 -3.24137e+06 1.08619e+06 0 -3.24545e+06 1.12143e+06 0 -3.24967e+06 1.15683e+06 0 -3.25401e+06 1.1924e+06 0 -3.25847e+06 1.22817e+06 0 -3.26307e+06 1.26414e+06 0 -3.26779e+06 1.30033e+06 0 -3.27265e+06 1.33675e+06 0 -3.27763e+06 1.37343e+06 0 -3.28274e+06 1.41038e+06 0 -3.28798e+06 1.44762e+06 0 -3.29335e+06 1.48517e+06 0 -3.29885e+06 1.52305e+06 0 -3.30449e+06 1.56129e+06 0 -3.31026e+06 1.5999e+06 0 -3.31616e+06 1.63893e+06 0 -3.3222e+06 1.6784e+06 0 -3.32838e+06 1.71833e+06 0 -3.33469e+06 1.75878e+06 0 -3.34115e+06 1.79977e+06 0 -3.34776e+06 1.84135e+06 0 -3.3545e+06 1.88357e+06 0 -3.3614e+06 1.92648e+06 0 -3.36845e+06 1.97013e+06 0 -3.37566e+06 2.0146e+06 0 -3.38303e+06 2.05995e+06 0 -3.39057e+06 2.10627e+06 0 -3.39828e+06 2.15364e+06 0 -3.40617e+06 2.20217e+06 0 -3.41425e+06 2.25198e+06 0 -3.42253e+06 2.30319e+06 0 -3.43101e+06 2.35597e+06 0 -3.43972e+06 2.41048e+06 0 -3.44865e+06 2.46692e+06 0 -3.45784e+06 2.52554e+06 0 -3.46729e+06 2.5866e+06 0 -3.47703e+06 2.65044e+06 0 -3.48708e+06 2.71742e+06 0 -3.49747e+06 2.78802e+06 0 -3.50821e+06 2.8628e+06 0 -3.51934e+06 2.94244e+06 0 -3.53087e+06 3.02778e+06 0 -3.54284e+06 3.11991e+06 0 -3.55524e+06 3.22019e+06 0 -3.56802e+06 3.33045e+06 0 -3.58118e+06 3.45301e+06 0 -3.59447e+06 3.59143e+06 0 -3.60683e+06 3.75057e+06 0 -3.61881e+06 3.93564e+06 0 -3.62883e+06 4.16349e+06 0 -3.61577e+06 4.4574e+06 0 -3.59738e+06 4.78927e+06 0 -3.5317e+06 5.46581e+06 0 -2.92783e+06 6.34604e+06 0 -1.68262e+06 6.38511e+06 0 -740941 5.67171e+06 0 -503528 5.19522e+06 0 -3.2501e+06 -2.24822e+06 0 -3.24862e+06 -2.08959e+06 0 -3.24667e+06 -1.95966e+06 0 -3.2467e+06 -1.8459e+06 0 -3.24655e+06 -1.74391e+06 0 -3.2452e+06 -1.64973e+06 0 -3.24271e+06 -1.56194e+06 0 -3.23958e+06 -1.48008e+06 0 -3.2362e+06 -1.40364e+06 0 -3.23275e+06 -1.33197e+06 0 -3.22925e+06 -1.26436e+06 0 -3.22572e+06 -1.2002e+06 0 -3.22217e+06 -1.13905e+06 0 -3.21864e+06 -1.08054e+06 0 -3.21516e+06 -1.02438e+06 0 -3.21176e+06 -970339 0 -3.20846e+06 -918180 0 -3.20526e+06 -867708 0 -3.20218e+06 -818754 0 -3.19922e+06 -771168 0 -3.19639e+06 -724820 0 -3.1937e+06 -679595 0 -3.19115e+06 -635388 0 -3.18874e+06 -592110 0 -3.18647e+06 -549677 0 -3.18435e+06 -508017 0 -3.18238e+06 -467064 0 -3.18056e+06 -426758 0 -3.17889e+06 -387045 0 -3.17736e+06 -347877 0 -3.17598e+06 -309210 0 -3.17475e+06 -271002 0 -3.17367e+06 -233217 0 -3.17274e+06 -195822 0 -3.17195e+06 -158785 0 -3.1713e+06 -122078 0 -3.1708e+06 -85674.1 0 -3.17044e+06 -49549.5 0 -3.17022e+06 -13681.3 0 -3.17014e+06 21951.4 0 -3.17021e+06 57368.3 0 -3.17041e+06 92587.9 0 -3.17075e+06 127627 0 -3.17122e+06 162503 0 -3.17183e+06 197230 0 -3.17257e+06 231823 0 -3.17345e+06 266296 0 -3.17446e+06 300662 0 -3.1756e+06 334934 0 -3.17687e+06 369124 0 -3.17828e+06 403243 0 -3.17981e+06 437303 0 -3.18147e+06 471315 0 -3.18326e+06 505290 0 -3.18517e+06 539238 0 -3.18721e+06 573168 0 -3.18938e+06 607092 0 -3.19167e+06 641020 0 -3.19409e+06 674960 0 -3.19664e+06 708924 0 -3.19931e+06 742920 0 -3.2021e+06 776958 0 -3.20501e+06 811049 0 -3.20805e+06 845202 0 -3.21121e+06 879428 0 -3.2145e+06 913736 0 -3.21791e+06 948136 0 -3.22144e+06 982640 0 -3.22509e+06 1.01726e+06 0 -3.22886e+06 1.052e+06 0 -3.23276e+06 1.08688e+06 0 -3.23678e+06 1.12191e+06 0 -3.24092e+06 1.1571e+06 0 -3.24519e+06 1.19246e+06 0 -3.24957e+06 1.22801e+06 0 -3.25408e+06 1.26376e+06 0 -3.25871e+06 1.29973e+06 0 -3.26347e+06 1.33593e+06 0 -3.26835e+06 1.37238e+06 0 -3.27335e+06 1.40909e+06 0 -3.27847e+06 1.44609e+06 0 -3.28372e+06 1.48339e+06 0 -3.28909e+06 1.52102e+06 0 -3.29459e+06 1.559e+06 0 -3.30021e+06 1.59735e+06 0 -3.30596e+06 1.6361e+06 0 -3.31183e+06 1.67529e+06 0 -3.31783e+06 1.71493e+06 0 -3.32396e+06 1.75507e+06 0 -3.33022e+06 1.79575e+06 0 -3.33662e+06 1.837e+06 0 -3.34314e+06 1.87887e+06 0 -3.3498e+06 1.92142e+06 0 -3.35659e+06 1.96469e+06 0 -3.36352e+06 2.00876e+06 0 -3.37059e+06 2.05368e+06 0 -3.37781e+06 2.09955e+06 0 -3.38517e+06 2.14644e+06 0 -3.39269e+06 2.19446e+06 0 -3.40035e+06 2.24371e+06 0 -3.40818e+06 2.29433e+06 0 -3.41618e+06 2.34645e+06 0 -3.42434e+06 2.40025e+06 0 -3.43268e+06 2.45592e+06 0 -3.4412e+06 2.51367e+06 0 -3.44992e+06 2.57377e+06 0 -3.45883e+06 2.63652e+06 0 -3.46794e+06 2.70229e+06 0 -3.47726e+06 2.77151e+06 0 -3.48678e+06 2.84469e+06 0 -3.49651e+06 2.92247e+06 0 -3.50642e+06 3.00564e+06 0 -3.51648e+06 3.09517e+06 0 -3.52661e+06 3.19231e+06 0 -3.5367e+06 3.29868e+06 0 -3.54655e+06 3.41639e+06 0 -3.55579e+06 3.54846e+06 0 -3.56328e+06 3.69905e+06 0 -3.56847e+06 3.87298e+06 0 -3.5696e+06 4.08231e+06 0 -3.55174e+06 4.34495e+06 0 -3.51356e+06 4.65273e+06 0 -3.43646e+06 5.14761e+06 0 -3.05195e+06 5.85319e+06 0 -2.14338e+06 6.19096e+06 0 -1.16763e+06 5.82227e+06 0 -679308 5.2931e+06 0 -517374 4.95115e+06 0 -3.21501e+06 -2.02447e+06 0 -3.21809e+06 -1.90528e+06 0 -3.22113e+06 -1.79917e+06 0 -3.22276e+06 -1.70123e+06 0 -3.22259e+06 -1.6104e+06 0 -3.22125e+06 -1.5258e+06 0 -3.2193e+06 -1.44706e+06 0 -3.21705e+06 -1.37343e+06 0 -3.21459e+06 -1.30413e+06 0 -3.21196e+06 -1.2385e+06 0 -3.20919e+06 -1.17603e+06 0 -3.20632e+06 -1.11635e+06 0 -3.20342e+06 -1.05918e+06 0 -3.20052e+06 -1.00422e+06 0 -3.19764e+06 -951262 0 -3.19482e+06 -900080 0 -3.19206e+06 -850495 0 -3.18938e+06 -802348 0 -3.18679e+06 -755501 0 -3.18431e+06 -709833 0 -3.18193e+06 -665234 0 -3.17967e+06 -621609 0 -3.17753e+06 -578872 0 -3.17552e+06 -536943 0 -3.17364e+06 -495756 0 -3.17189e+06 -455246 0 -3.17027e+06 -415359 0 -3.16879e+06 -376042 0 -3.16744e+06 -337249 0 -3.16622e+06 -298938 0 -3.16515e+06 -261071 0 -3.16421e+06 -223612 0 -3.16341e+06 -186529 0 -3.16274e+06 -149792 0 -3.16221e+06 -113375 0 -3.16182e+06 -77250.5 0 -3.16156e+06 -41396.6 0 -3.16143e+06 -5791.17 0 -3.16144e+06 29586.2 0 -3.16158e+06 64754.5 0 -3.16185e+06 99731.4 0 -3.16225e+06 134534 0 -3.16279e+06 169177 0 -3.16345e+06 203677 0 -3.16425e+06 238046 0 -3.16517e+06 272299 0 -3.16622e+06 306449 0 -3.16739e+06 340507 0 -3.16869e+06 374486 0 -3.17012e+06 408397 0 -3.17167e+06 442251 0 -3.17335e+06 476059 0 -3.17515e+06 509831 0 -3.17707e+06 543577 0 -3.17911e+06 577308 0 -3.18128e+06 611033 0 -3.18357e+06 644763 0 -3.18598e+06 678506 0 -3.18851e+06 712272 0 -3.19116e+06 746071 0 -3.19393e+06 779913 0 -3.19681e+06 813807 0 -3.19982e+06 847763 0 -3.20295e+06 881790 0 -3.2062e+06 915900 0 -3.20956e+06 950101 0 -3.21305e+06 984404 0 -3.21665e+06 1.01882e+06 0 -3.22037e+06 1.05336e+06 0 -3.2242e+06 1.08803e+06 0 -3.22816e+06 1.12286e+06 0 -3.23223e+06 1.15784e+06 0 -3.23642e+06 1.19299e+06 0 -3.24073e+06 1.22832e+06 0 -3.24515e+06 1.26386e+06 0 -3.2497e+06 1.2996e+06 0 -3.25435e+06 1.33558e+06 0 -3.25913e+06 1.3718e+06 0 -3.26402e+06 1.40828e+06 0 -3.26904e+06 1.44504e+06 0 -3.27416e+06 1.4821e+06 0 -3.27941e+06 1.51948e+06 0 -3.28477e+06 1.5572e+06 0 -3.29025e+06 1.59529e+06 0 -3.29585e+06 1.63377e+06 0 -3.30156e+06 1.67268e+06 0 -3.30739e+06 1.71203e+06 0 -3.31334e+06 1.75188e+06 0 -3.31941e+06 1.79224e+06 0 -3.3256e+06 1.83317e+06 0 -3.3319e+06 1.87471e+06 0 -3.33833e+06 1.9169e+06 0 -3.34487e+06 1.9598e+06 0 -3.35154e+06 2.00348e+06 0 -3.35833e+06 2.04799e+06 0 -3.36523e+06 2.09342e+06 0 -3.37226e+06 2.13984e+06 0 -3.37942e+06 2.18736e+06 0 -3.38669e+06 2.23608e+06 0 -3.39409e+06 2.28611e+06 0 -3.40162e+06 2.33761e+06 0 -3.40927e+06 2.39072e+06 0 -3.41705e+06 2.44563e+06 0 -3.42495e+06 2.50255e+06 0 -3.43297e+06 2.56173e+06 0 -3.4411e+06 2.62345e+06 0 -3.44934e+06 2.68806e+06 0 -3.45768e+06 2.75595e+06 0 -3.46609e+06 2.82761e+06 0 -3.47453e+06 2.90364e+06 0 -3.48297e+06 2.98474e+06 0 -3.49131e+06 3.07182e+06 0 -3.49945e+06 3.16602e+06 0 -3.50716e+06 3.26877e+06 0 -3.51417e+06 3.38197e+06 0 -3.51996e+06 3.50822e+06 0 -3.52342e+06 3.65109e+06 0 -3.52335e+06 3.81491e+06 0 -3.51767e+06 4.00852e+06 0 -3.49571e+06 4.24559e+06 0 -3.44886e+06 4.52741e+06 0 -3.3635e+06 4.92059e+06 0 -3.09222e+06 5.47623e+06 0 -2.43657e+06 5.903e+06 0 -1.56609e+06 5.82191e+06 0 -936483 5.39697e+06 0 -656568 5.00782e+06 0 -506064 4.69586e+06 0 -3.19293e+06 -1.85245e+06 0 -3.19773e+06 -1.75181e+06 0 -3.20039e+06 -1.6579e+06 0 -3.20118e+06 -1.57073e+06 0 -3.20091e+06 -1.48966e+06 0 -3.20004e+06 -1.41402e+06 0 -3.19877e+06 -1.34301e+06 0 -3.19717e+06 -1.27589e+06 0 -3.19529e+06 -1.21212e+06 0 -3.19318e+06 -1.1513e+06 0 -3.19094e+06 -1.0931e+06 0 -3.1886e+06 -1.03726e+06 0 -3.18622e+06 -983502 0 -3.18382e+06 -931618 0 -3.18144e+06 -881409 0 -3.17909e+06 -832707 0 -3.17678e+06 -785368 0 -3.17454e+06 -739262 0 -3.17238e+06 -694276 0 -3.1703e+06 -650308 0 -3.16832e+06 -607268 0 -3.16644e+06 -565074 0 -3.16467e+06 -523654 0 -3.16301e+06 -482943 0 -3.16147e+06 -442882 0 -3.16005e+06 -403417 0 -3.15875e+06 -364500 0 -3.15757e+06 -326086 0 -3.15652e+06 -288136 0 -3.15559e+06 -250614 0 -3.15479e+06 -213485 0 -3.15411e+06 -176718 0 -3.15357e+06 -140285 0 -3.15315e+06 -104161 0 -3.15286e+06 -68320 0 -3.1527e+06 -32740.2 0 -3.15266e+06 2599.46 0 -3.15275e+06 37718.4 0 -3.15297e+06 72635.1 0 -3.15331e+06 107367 0 -3.15378e+06 141929 0 -3.15438e+06 176338 0 -3.1551e+06 210607 0 -3.15594e+06 244751 0 -3.1569e+06 278782 0 -3.15799e+06 312713 0 -3.1592e+06 346556 0 -3.16053e+06 380323 0 -3.16198e+06 414024 0 -3.16355e+06 447670 0 -3.16524e+06 481272 0 -3.16706e+06 514840 0 -3.16899e+06 548385 0 -3.17103e+06 581914 0 -3.1732e+06 615440 0 -3.17548e+06 648970 0 -3.17788e+06 682515 0 -3.1804e+06 716084 0 -3.18303e+06 749686 0 -3.18578e+06 783330 0 -3.18865e+06 817027 0 -3.19163e+06 850785 0 -3.19472e+06 884615 0 -3.19793e+06 918526 0 -3.20126e+06 952528 0 -3.20469e+06 986631 0 -3.20825e+06 1.02085e+06 0 -3.21191e+06 1.05518e+06 0 -3.21569e+06 1.08965e+06 0 -3.21958e+06 1.12427e+06 0 -3.22359e+06 1.15904e+06 0 -3.22771e+06 1.19398e+06 0 -3.23194e+06 1.2291e+06 0 -3.23628e+06 1.26442e+06 0 -3.24074e+06 1.29995e+06 0 -3.2453e+06 1.3357e+06 0 -3.24998e+06 1.3717e+06 0 -3.25477e+06 1.40795e+06 0 -3.25967e+06 1.44447e+06 0 -3.26468e+06 1.48129e+06 0 -3.2698e+06 1.51843e+06 0 -3.27503e+06 1.5559e+06 0 -3.28038e+06 1.59373e+06 0 -3.28583e+06 1.63194e+06 0 -3.29139e+06 1.67057e+06 0 -3.29705e+06 1.70965e+06 0 -3.30283e+06 1.7492e+06 0 -3.30871e+06 1.78926e+06 0 -3.3147e+06 1.82987e+06 0 -3.32079e+06 1.87108e+06 0 -3.32699e+06 1.91292e+06 0 -3.3333e+06 1.95547e+06 0 -3.33971e+06 1.99876e+06 0 -3.34622e+06 2.04287e+06 0 -3.35283e+06 2.08787e+06 0 -3.35954e+06 2.13384e+06 0 -3.36634e+06 2.18087e+06 0 -3.37325e+06 2.22907e+06 0 -3.38024e+06 2.27854e+06 0 -3.38732e+06 2.32943e+06 0 -3.39449e+06 2.38188e+06 0 -3.40173e+06 2.43606e+06 0 -3.40904e+06 2.49218e+06 0 -3.41641e+06 2.55048e+06 0 -3.42382e+06 2.61121e+06 0 -3.43125e+06 2.6747e+06 0 -3.43867e+06 2.74133e+06 0 -3.44605e+06 2.81155e+06 0 -3.45332e+06 2.8859e+06 0 -3.46042e+06 2.96505e+06 0 -3.46722e+06 3.04983e+06 0 -3.47356e+06 3.14125e+06 0 -3.47918e+06 3.24064e+06 0 -3.48372e+06 3.34965e+06 0 -3.48658e+06 3.47056e+06 0 -3.48664e+06 3.60644e+06 0 -3.48242e+06 3.76109e+06 0 -3.47157e+06 3.94122e+06 0 -3.44612e+06 4.15721e+06 0 -3.39566e+06 4.41408e+06 0 -3.307e+06 4.74447e+06 0 -3.09615e+06 5.18982e+06 0 -2.61352e+06 5.61119e+06 0 -1.888e+06 5.71171e+06 0 -1.22224e+06 5.44667e+06 0 -831762 5.0788e+06 0 -632826 4.76351e+06 0 -499422 4.48217e+06 0 -3.17595e+06 -1.70438e+06 0 -3.1793e+06 -1.61449e+06 0 -3.18099e+06 -1.53112e+06 0 -3.18169e+06 -1.4535e+06 0 -3.18176e+06 -1.38078e+06 0 -3.18132e+06 -1.31222e+06 0 -3.18044e+06 -1.24719e+06 0 -3.1792e+06 -1.18525e+06 0 -3.1777e+06 -1.12608e+06 0 -3.176e+06 -1.06935e+06 0 -3.17418e+06 -1.01483e+06 0 -3.17227e+06 -962255 0 -3.17031e+06 -911435 0 -3.16833e+06 -862191 0 -3.16635e+06 -814369 0 -3.16439e+06 -767835 0 -3.16248e+06 -722469 0 -3.16062e+06 -678165 0 -3.15882e+06 -634829 0 -3.1571e+06 -592375 0 -3.15547e+06 -550729 0 -3.15393e+06 -509820 0 -3.15248e+06 -469589 0 -3.15114e+06 -429979 0 -3.1499e+06 -390940 0 -3.14877e+06 -352426 0 -3.14776e+06 -314395 0 -3.14686e+06 -276810 0 -3.14608e+06 -239636 0 -3.14541e+06 -202840 0 -3.14486e+06 -166393 0 -3.14443e+06 -130267 0 -3.14413e+06 -94439.2 0 -3.14394e+06 -58884.5 0 -3.14387e+06 -23581.8 0 -3.14392e+06 11489.1 0 -3.14409e+06 46346.9 0 -3.14439e+06 81009.3 0 -3.1448e+06 115493 0 -3.14533e+06 149813 0 -3.14599e+06 183985 0 -3.14676e+06 218022 0 -3.14765e+06 251938 0 -3.14866e+06 285745 0 -3.14978e+06 319456 0 -3.15103e+06 353082 0 -3.15239e+06 386634 0 -3.15386e+06 420124 0 -3.15546e+06 453561 0 -3.15717e+06 486956 0 -3.15899e+06 520319 0 -3.16093e+06 553660 0 -3.16298e+06 586988 0 -3.16515e+06 620313 0 -3.16743e+06 653643 0 -3.16982e+06 686989 0 -3.17232e+06 720360 0 -3.17494e+06 753764 0 -3.17767e+06 787211 0 -3.18051e+06 820710 0 -3.18346e+06 854271 0 -3.18653e+06 887903 0 -3.1897e+06 921616 0 -3.19299e+06 955419 0 -3.19638e+06 989322 0 -3.19989e+06 1.02334e+06 0 -3.2035e+06 1.05747e+06 0 -3.20722e+06 1.09174e+06 0 -3.21105e+06 1.12615e+06 0 -3.215e+06 1.16071e+06 0 -3.21904e+06 1.19545e+06 0 -3.2232e+06 1.23036e+06 0 -3.22746e+06 1.26546e+06 0 -3.23183e+06 1.30077e+06 0 -3.23631e+06 1.3363e+06 0 -3.24089e+06 1.37207e+06 0 -3.24558e+06 1.40809e+06 0 -3.25037e+06 1.44439e+06 0 -3.25527e+06 1.48097e+06 0 -3.26027e+06 1.51786e+06 0 -3.26538e+06 1.55508e+06 0 -3.27058e+06 1.59266e+06 0 -3.27589e+06 1.63061e+06 0 -3.2813e+06 1.66897e+06 0 -3.28681e+06 1.70777e+06 0 -3.29241e+06 1.74703e+06 0 -3.29811e+06 1.78679e+06 0 -3.30391e+06 1.8271e+06 0 -3.3098e+06 1.86798e+06 0 -3.31578e+06 1.90949e+06 0 -3.32185e+06 1.95168e+06 0 -3.32801e+06 1.9946e+06 0 -3.33426e+06 2.03831e+06 0 -3.34058e+06 2.0829e+06 0 -3.34698e+06 2.12843e+06 0 -3.35346e+06 2.17499e+06 0 -3.36e+06 2.22268e+06 0 -3.36661e+06 2.27161e+06 0 -3.37327e+06 2.3219e+06 0 -3.37997e+06 2.37371e+06 0 -3.3867e+06 2.4272e+06 0 -3.39346e+06 2.48255e+06 0 -3.40021e+06 2.53999e+06 0 -3.40694e+06 2.59977e+06 0 -3.41361e+06 2.6622e+06 0 -3.42018e+06 2.72762e+06 0 -3.42661e+06 2.79646e+06 0 -3.43281e+06 2.86923e+06 0 -3.43868e+06 2.94654e+06 0 -3.44408e+06 3.02914e+06 0 -3.44881e+06 3.11796e+06 0 -3.45257e+06 3.21419e+06 0 -3.45495e+06 3.31932e+06 0 -3.45529e+06 3.43533e+06 0 -3.45249e+06 3.56485e+06 0 -3.44492e+06 3.71121e+06 0 -3.43013e+06 3.87964e+06 0 -3.4018e+06 4.07803e+06 0 -3.34995e+06 4.31231e+06 0 -3.26154e+06 4.59973e+06 0 -3.08546e+06 4.96728e+06 0 -2.71699e+06 5.35002e+06 0 -2.12817e+06 5.54459e+06 0 -1.49429e+06 5.42886e+06 0 -1.03321e+06 5.12968e+06 0 -771231 4.82278e+06 0 -610715 4.55135e+06 0 -498817 4.3068e+06 0 -3.15947e+06 -1.57133e+06 0 -3.16201e+06 -1.49163e+06 0 -3.16356e+06 -1.41733e+06 0 -3.1644e+06 -1.34736e+06 0 -3.16464e+06 -1.28113e+06 0 -3.16436e+06 -1.21813e+06 0 -3.16369e+06 -1.158e+06 0 -3.16271e+06 -1.10043e+06 0 -3.16151e+06 -1.04515e+06 0 -3.16015e+06 -991917 0 -3.15867e+06 -940506 0 -3.1571e+06 -890737 0 -3.15549e+06 -842449 0 -3.15385e+06 -795501 0 -3.15222e+06 -749768 0 -3.1506e+06 -705140 0 -3.14902e+06 -661517 0 -3.14749e+06 -618812 0 -3.14602e+06 -576946 0 -3.14461e+06 -535846 0 -3.14329e+06 -495451 0 -3.14204e+06 -455701 0 -3.14089e+06 -416545 0 -3.13983e+06 -377934 0 -3.13887e+06 -339826 0 -3.13802e+06 -302182 0 -3.13726e+06 -264964 0 -3.13662e+06 -228141 0 -3.13608e+06 -191681 0 -3.13565e+06 -155556 0 -3.13534e+06 -119741 0 -3.13514e+06 -84212.1 0 -3.13505e+06 -48946.4 0 -3.13507e+06 -13923.4 0 -3.13521e+06 20876.1 0 -3.13546e+06 55470.3 0 -3.13583e+06 89876 0 -3.13631e+06 124