<?xml version="1.0"?> 
<VTKFile type="StructuredGrid" version="0.1"> 
<StructuredGrid WholeExtent="0 127 0 127 0 0"> 
<Piece Extent="0 127 0 127 0 0"> 
<PointData>
<DataArray type="Float32" Name="E" format="ascii" NumberOfComponents="3"> 
1.34211e+06 1.90735e-06 0 1.34867e+06 0.00121741 0 1.36646e+06 0.00141057 0 1.39187e+06 0.00105605 0 1.42165e+06 0.00073173 0 1.4535e+06 0.000504622 0 1.48584e+06 0.000343796 0 1.51756e+06 0.000232073 0 1.54794e+06 0.00015644 0 1.57646e+06 0.000100471 0 1.60279e+06 6.238e-05 0 1.62672e+06 3.20412e-05 0 1.64814e+06 1.15484e-05 0 1.66699e+06 -2.83867e-06 0 1.68324e+06 -1.43424e-05 0 1.69692e+06 -2.5101e-05 0 1.70809e+06 -2.68519e-05 0 1.7168e+06 -3.28124e-05 0 1.72314e+06 -3.81768e-05 0 1.7272e+06 -3.83258e-05 0 1.72908e+06 -4.55678e-05 0 1.7289e+06 -4.43012e-05 0 1.72677e+06 -4.38988e-05 0 1.7228e+06 -4.43161e-05 0 1.71711e+06 -4.75198e-05 0 1.70983e+06 -4.50313e-05 0 1.70106e+06 -4.33028e-05 0 1.69093e+06 -4.16934e-05 0 1.67955e+06 -3.96371e-05 0 1.66702e+06 -3.88026e-05 0 1.65345e+06 -3.80278e-05 0 1.63895e+06 -3.51667e-05 0 1.6236e+06 -3.57926e-05 0 1.6075e+06 -3.02196e-05 0 1.59074e+06 -2.90275e-05 0 1.57339e+06 -2.98619e-05 0 1.55553e+06 -2.53618e-05 0 1.53724e+06 -2.67923e-05 0 1.51857e+06 -2.04444e-05 0 1.4996e+06 -2.39611e-05 0 1.48037e+06 -1.86265e-05 0 1.46094e+06 -1.96099e-05 0 1.44136e+06 -1.61529e-05 0 1.42167e+06 -1.66893e-05 0 1.40192e+06 -1.38283e-05 0 1.38214e+06 -1.28746e-05 0 1.36237e+06 -1.03712e-05 0 1.34264e+06 -1.055e-05 0 1.32297e+06 -9.11951e-06 0 1.3034e+06 -7.98702e-06 0 1.28395e+06 -7.21216e-06 0 1.26464e+06 -7.09295e-06 0 1.24548e+06 -6.49691e-06 0 1.22651e+06 -6.02007e-06 0 1.20772e+06 -6.19888e-06 0 1.18914e+06 -4.47035e-06 0 1.17078e+06 -3.99351e-06 0 1.15265e+06 -3.63588e-06 0 1.13476e+06 -3.33786e-06 0 1.11711e+06 -2.92063e-06 0 1.09973e+06 -1.2517e-06 0 1.08261e+06 -2.32458e-06 0 1.06575e+06 -1.07288e-06 0 1.04918e+06 -1.49012e-06 0 1.03288e+06 -2.08616e-06 0 1.01686e+06 -1.66893e-06 0 1.00113e+06 -1.3113e-06 0 985680 -1.07288e-06 0 970524 -1.90735e-06 0 955660 -3.57628e-07 0 941087 2.38419e-07 0 926806 -1.13249e-06 0 912819 4.76837e-07 0 899124 -5.36442e-07 0 885722 8.34465e-07 0 872612 -4.17233e-07 0 859793 -5.96046e-08 0 847265 4.17233e-07 0 835025 -5.96046e-08 0 823074 -1.78814e-07 0 811408 1.78814e-07 0 800028 1.2517e-06 0 788931 -1.19209e-07 0 778115 2.38419e-07 0 767579 5.36442e-07 0 757321 4.76837e-07 0 747338 5.96046e-07 0 737629 -1.19209e-07 0 728193 1.07288e-06 0 719026 1.01328e-06 0 710127 6.55651e-07 0 701493 5.36442e-07 0 693124 1.07288e-06 0 685016 3.57628e-07 0 677168 4.76837e-07 0 669578 4.17233e-07 0 662243 1.01328e-06 0 655163 2.98023e-07 0 648334 1.2517e-06 0 641756 2.38419e-07 0 635425 5.36442e-07 0 629341 7.7486e-07 0 623502 5.36442e-07 0 617906 4.76837e-07 0 612552 4.76837e-07 0 607437 3.57628e-07 0 602561 3.57628e-07 0 597921 3.57628e-07 0 593517 4.76837e-07 0 589347 5.06639e-07 0 585410 4.76837e-07 0 581704 5.36442e-07 0 578229 5.36442e-07 0 574983 2.68221e-07 0 571965 2.08616e-07 0 569175 2.38419e-07 0 566611 2.98023e-07 0 564273 2.68221e-07 0 562160 2.08616e-07 0 560271 2.5332e-07 0 558605 2.83122e-07 0 557163 1.19209e-07 0 555943 1.04308e-07 0 554945 7.45058e-08 0 554170 4.47035e-08 0 553615 6.70552e-08 0 553283 3.35276e-08 0 553171 0 0 1.34211e+06 -1.18464e-06 0 1.34866e+06 -339.242 0 1.36646e+06 -598.662 0 1.39187e+06 -760.679 0 1.42165e+06 -846.841 0 1.4535e+06 -880.39 0 1.48584e+06 -877.767 0 1.51756e+06 -850.311 0 1.54794e+06 -805.957 0 1.57646e+06 -750.332 0 1.60279e+06 -687.428 0 1.62673e+06 -620.082 0 1.64814e+06 -550.325 0 1.66699e+06 -479.627 0 1.68324e+06 -409.068 0 1.69692e+06 -339.459 0 1.70809e+06 -271.416 0 1.7168e+06 -205.417 0 1.72314e+06 -141.828 0 1.7272e+06 -80.9334 0 1.72908e+06 -22.945 0 1.7289e+06 31.9831 0 1.72677e+06 83.7482 0 1.7228e+06 132.292 0 1.71711e+06 177.595 0 1.70983e+06 219.67 0 1.70106e+06 258.561 0 1.69093e+06 294.334 0 1.67955e+06 327.076 0 1.66702e+06 356.891 0 1.65345e+06 383.894 0 1.63895e+06 408.21 0 1.6236e+06 429.972 0 1.6075e+06 449.315 0 1.59074e+06 466.377 0 1.57339e+06 481.294 0 1.55553e+06 494.204 0 1.53724e+06 505.239 0 1.51857e+06 514.528 0 1.4996e+06 522.196 0 1.48037e+06 528.364 0 1.46094e+06 533.144 0 1.44136e+06 536.646 0 1.42167e+06 538.972 0 1.40192e+06 540.219 0 1.38214e+06 540.476 0 1.36237e+06 539.829 0 1.34264e+06 538.357 0 1.32297e+06 536.135 0 1.3034e+06 533.23 0 1.28395e+06 529.706 0 1.26464e+06 525.623 0 1.24548e+06 521.035 0 1.22651e+06 515.993 0 1.20772e+06 510.542 0 1.18914e+06 504.727 0 1.17078e+06 498.586 0 1.15265e+06 492.156 0 1.13476e+06 485.47 0 1.11711e+06 478.559 0 1.09973e+06 471.45 0 1.08261e+06 464.169 0 1.06575e+06 456.739 0 1.04918e+06 449.183 0 1.03288e+06 441.519 0 1.01686e+06 433.765 0 1.00113e+06 425.938 0 985680 418.052 0 970524 410.121 0 955660 402.156 0 941087 394.169 0 926806 386.169 0 912819 378.165 0 899124 370.166 0 885722 362.179 0 872612 354.21 0 859793 346.264 0 847265 338.348 0 835025 330.465 0 823074 322.619 0 811408 314.815 0 800028 307.054 0 788931 299.339 0 778115 291.673 0 767579 284.058 0 757321 276.495 0 747338 268.984 0 737629 261.528 0 728193 254.127 0 719026 246.781 0 710127 239.491 0 701493 232.256 0 693124 225.077 0 685016 217.952 0 677168 210.882 0 669578 203.867 0 662243 196.904 0 655163 189.994 0 648334 183.136 0 641755 176.328 0 635425 169.569 0 629341 162.858 0 623502 156.194 0 617906 149.575 0 612552 143.001 0 607437 136.468 0 602561 129.977 0 597921 123.525 0 593517 117.111 0 589347 110.732 0 585410 104.388 0 581704 98.0767 0 578229 91.7959 0 574983 85.5441 0 571965 79.3193 0 569175 73.1199 0 566611 66.9438 0 564273 60.7892 0 562160 54.6541 0 560271 48.5368 0 558605 42.4352 0 557163 36.3473 0 555943 30.2713 0 554945 24.2052 0 554170 18.147 0 553615 12.0947 0 553283 6.04635 0 553171 0 0 1.34209e+06 4.91738e-07 0 1.34865e+06 -678.549 0 1.36645e+06 -1197.4 0 1.39186e+06 -1521.41 0 1.42165e+06 -1693.72 0 1.4535e+06 -1760.81 0 1.48584e+06 -1755.55 0 1.51756e+06 -1700.63 0 1.54794e+06 -1611.92 0 1.57646e+06 -1500.67 0 1.60279e+06 -1374.86 0 1.62673e+06 -1240.17 0 1.64815e+06 -1100.65 0 1.66699e+06 -959.254 0 1.68324e+06 -818.135 0 1.69693e+06 -678.916 0 1.70809e+06 -542.831 0 1.7168e+06 -410.832 0 1.72314e+06 -283.655 0 1.7272e+06 -161.865 0 1.72908e+06 -45.8878 0 1.7289e+06 63.9685 0 1.72677e+06 167.499 0 1.7228e+06 264.586 0 1.71711e+06 355.191 0 1.70983e+06 439.342 0 1.70106e+06 517.124 0 1.69093e+06 588.67 0 1.67955e+06 654.154 0 1.66702e+06 713.783 0 1.65346e+06 767.789 0 1.63895e+06 816.423 0 1.6236e+06 859.946 0 1.6075e+06 898.632 0 1.59074e+06 932.755 0 1.57339e+06 962.59 0 1.55553e+06 988.409 0 1.53724e+06 1010.48 0 1.51857e+06 1029.06 0 1.4996e+06 1044.39 0 1.48037e+06 1056.73 0 1.46094e+06 1066.29 0 1.44136e+06 1073.29 0 1.42167e+06 1077.95 0 1.40192e+06 1080.44 0 1.38214e+06 1080.95 0 1.36237e+06 1079.66 0 1.34264e+06 1076.72 0 1.32297e+06 1072.27 0 1.3034e+06 1066.46 0 1.28395e+06 1059.41 0 1.26464e+06 1051.25 0 1.24548e+06 1042.07 0 1.22651e+06 1031.99 0 1.20772e+06 1021.09 0 1.18914e+06 1009.45 0 1.17078e+06 997.173 0 1.15265e+06 984.313 0 1.13476e+06 970.94 0 1.11711e+06 957.117 0 1.09973e+06 942.899 0 1.08261e+06 928.337 0 1.06575e+06 913.479 0 1.04918e+06 898.366 0 1.03288e+06 883.038 0 1.01686e+06 867.531 0 1.00112e+06 851.877 0 985680 836.104 0 970524 820.241 0 955659 804.312 0 941086 788.337 0 926806 772.337 0 912819 756.331 0 899124 740.333 0 885722 724.358 0 872612 708.42 0 859793 692.529 0 847264 676.696 0 835025 660.93 0 823073 645.239 0 811408 629.629 0 800028 614.107 0 788930 598.678 0 778115 583.347 0 767579 568.116 0 757320 552.989 0 747338 537.969 0 737629 523.057 0 728192 508.255 0 719025 493.563 0 710126 478.982 0 701493 464.512 0 693123 450.153 0 685016 435.904 0 677168 421.765 0 669577 407.733 0 662243 393.808 0 655162 379.988 0 648334 366.271 0 641755 352.655 0 635425 339.137 0 629341 325.716 0 623502 312.388 0 617906 299.15 0 612551 286.001 0 607437 272.937 0 602560 259.954 0 597921 247.05 0 593517 234.221 0 589347 221.465 0 585409 208.777 0 581704 196.153 0 578228 183.592 0 574983 171.088 0 571965 158.639 0 569175 146.24 0 566611 133.887 0 564273 121.578 0 562160 109.308 0 560271 97.0735 0 558605 84.8703 0 557163 72.6946 0 555943 60.5426 0 554945 48.4104 0 554169 36.2939 0 553615 24.1894 0 553282 12.0927 0 553171 0 0 1.34207e+06 2.83122e-07 0 1.34863e+06 -1017.99 0 1.36644e+06 -1796.29 0 1.39186e+06 -2282.26 0 1.42164e+06 -2540.68 0 1.4535e+06 -2641.28 0 1.48584e+06 -2633.37 0 1.51757e+06 -2550.98 0 1.54794e+06 -2417.91 0 1.57646e+06 -2251.02 0 1.6028e+06 -2062.3 0 1.62673e+06 -1860.25 0 1.64815e+06 -1650.98 0 1.66699e+06 -1438.88 0 1.68325e+06 -1227.2 0 1.69693e+06 -1018.37 0 1.7081e+06 -814.243 0 1.71681e+06 -616.244 0 1.72314e+06 -425.477 0 1.7272e+06 -242.792 0 1.72909e+06 -68.8259 0 1.72891e+06 95.9588 0 1.72677e+06 251.254 0 1.7228e+06 396.885 0 1.71712e+06 532.793 0 1.70983e+06 659.019 0 1.70107e+06 775.691 0 1.69094e+06 883.01 0 1.67955e+06 981.237 0 1.66702e+06 1070.68 0 1.65346e+06 1151.69 0 1.63895e+06 1224.64 0 1.62361e+06 1289.92 0 1.60751e+06 1347.95 0 1.59074e+06 1399.14 0 1.57339e+06 1443.89 0 1.55554e+06 1482.62 0 1.53724e+06 1515.72 0 1.51857e+06 1543.59 0 1.4996e+06 1566.59 0 1.48037e+06 1585.1 0 1.46094e+06 1599.44 0 1.44136e+06 1609.94 0 1.42167e+06 1616.92 0 1.40192e+06 1620.66 0 1.38214e+06 1621.43 0 1.36237e+06 1619.49 0 1.34264e+06 1615.07 0 1.32297e+06 1608.41 0 1.3034e+06 1599.69 0 1.28395e+06 1589.12 0 1.26464e+06 1576.87 0 1.24548e+06 1563.11 0 1.2265e+06 1547.98 0 1.20772e+06 1531.63 0 1.18914e+06 1514.18 0 1.17078e+06 1495.76 0 1.15265e+06 1476.47 0 1.13476e+06 1456.41 0 1.11711e+06 1435.68 0 1.09973e+06 1414.35 0 1.08261e+06 1392.51 0 1.06575e+06 1370.22 0 1.04917e+06 1347.55 0 1.03287e+06 1324.56 0 1.01686e+06 1301.3 0 1.00112e+06 1277.81 0 985679 1254.16 0 970523 1230.36 0 955659 1206.47 0 941086 1182.51 0 926805 1158.51 0 912818 1134.5 0 899123 1110.5 0 885721 1086.54 0 872611 1062.63 0 859792 1038.79 0 847264 1015.04 0 835024 991.395 0 823073 967.858 0 811407 944.444 0 800027 921.161 0 788930 898.017 0 778114 875.02 0 767578 852.174 0 757320 829.484 0 747337 806.953 0 737629 784.585 0 728192 762.382 0 719025 740.344 0 710126 718.473 0 701493 696.768 0 693123 675.23 0 685015 653.857 0 677167 632.647 0 669577 611.6 0 662243 590.712 0 655162 569.982 0 648333 549.407 0 641755 528.982 0 635424 508.706 0 629341 488.574 0 623502 468.582 0 617906 448.726 0 612551 429.002 0 607436 409.405 0 602560 389.931 0 597920 370.575 0 593516 351.332 0 589346 332.197 0 585409 313.165 0 581703 294.23 0 578228 275.388 0 574982 256.632 0 571965 237.958 0 569174 219.36 0 566611 200.831 0 564272 182.367 0 562159 163.962 0 560270 145.61 0 558605 127.305 0 557162 109.042 0 555942 90.8139 0 554945 72.6155 0 554169 54.4409 0 553615 36.284 0 553282 18.139 0 553170 0 0 1.34203e+06 1.01328e-06 0 1.3486e+06 -1357.62 0 1.36642e+06 -2395.4 0 1.39184e+06 -3043.28 0 1.42164e+06 -3387.75 0 1.4535e+06 -3521.83 0 1.48584e+06 -3511.25 0 1.51757e+06 -3401.37 0 1.54795e+06 -3223.91 0 1.57647e+06 -3001.38 0 1.6028e+06 -2749.74 0 1.62674e+06 -2480.35 0 1.64816e+06 -2201.31 0 1.667e+06 -1918.51 0 1.68325e+06 -1636.26 0 1.69694e+06 -1357.82 0 1.7081e+06 -1085.65 0 1.71681e+06 -821.65 0 1.72315e+06 -567.293 0 1.72721e+06 -323.712 0 1.72909e+06 -91.7572 0 1.72891e+06 127.956 0 1.72678e+06 335.017 0 1.72281e+06 529.192 0 1.71712e+06 710.402 0 1.70984e+06 878.703 0 1.70107e+06 1034.27 0 1.69094e+06 1177.36 0 1.67955e+06 1308.33 0 1.66703e+06 1427.58 0 1.65346e+06 1535.6 0 1.63895e+06 1632.86 0 1.62361e+06 1719.91 0 1.60751e+06 1797.28 0 1.59074e+06 1865.52 0 1.57339e+06 1925.19 0 1.55554e+06 1976.83 0 1.53724e+06 2020.97 0 1.51857e+06 2058.12 0 1.4996e+06 2088.8 0 1.48037e+06 2113.47 0 1.46094e+06 2132.59 0 1.44136e+06 2146.59 0 1.42167e+06 2155.9 0 1.40192e+06 2160.88 0 1.38214e+06 2161.91 0 1.36237e+06 2159.32 0 1.34264e+06 2153.43 0 1.32297e+06 2144.54 0 1.3034e+06 2132.92 0 1.28395e+06 2118.83 0 1.26464e+06 2102.5 0 1.24548e+06 2084.14 0 1.2265e+06 2063.97 0 1.20772e+06 2042.17 0 1.18914e+06 2018.91 0 1.17078e+06 1994.35 0 1.15265e+06 1968.63 0 1.13476e+06 1941.88 0 1.11711e+06 1914.24 0 1.09973e+06 1885.8 0 1.08261e+06 1856.68 0 1.06575e+06 1826.96 0 1.04917e+06 1796.73 0 1.03287e+06 1766.08 0 1.01686e+06 1735.06 0 1.00112e+06 1703.75 0 985678 1672.21 0 970523 1640.48 0 955658 1608.62 0 941085 1576.67 0 926805 1544.67 0 912817 1512.66 0 899123 1480.67 0 885721 1448.72 0 872610 1416.84 0 859792 1385.06 0 847263 1353.39 0 835024 1321.86 0 823072 1290.48 0 811407 1259.26 0 800026 1228.21 0 788929 1197.36 0 778113 1166.69 0 767577 1136.23 0 757319 1105.98 0 747336 1075.94 0 737628 1046.11 0 728191 1016.51 0 719024 987.125 0 710125 957.964 0 701492 929.024 0 693122 900.306 0 685015 871.808 0 677167 843.529 0 669576 815.466 0 662242 787.616 0 655161 759.976 0 648333 732.542 0 641754 705.31 0 635424 678.274 0 629340 651.431 0 623501 624.775 0 617905 598.301 0 612550 572.002 0 607436 545.873 0 602559 519.908 0 597920 494.1 0 593516 468.442 0 589346 442.929 0 585408 417.553 0 581703 392.307 0 578227 367.184 0 574982 342.176 0 571964 317.277 0 569174 292.479 0 566610 267.775 0 564272 243.156 0 562159 218.616 0 560270 194.147 0 558604 169.741 0 557162 145.389 0 555942 121.085 0 554944 96.8207 0 554168 72.5878 0 553614 48.3787 0 553281 24.1854 0 553170 0 0 1.34199e+06 -1.13249e-06 0 1.34856e+06 -1697.51 0 1.36639e+06 -2994.82 0 1.39183e+06 -3804.53 0 1.42163e+06 -4234.99 0 1.4535e+06 -4402.48 0 1.48584e+06 -4389.2 0 1.51758e+06 -4251.81 0 1.54796e+06 -4029.95 0 1.57648e+06 -3751.77 0 1.60281e+06 -3437.2 0 1.62675e+06 -3100.45 0 1.64817e+06 -2751.64 0 1.66701e+06 -2398.13 0 1.68326e+06 -2045.32 0 1.69695e+06 -1697.27 0 1.70811e+06 -1357.05 0 1.71682e+06 -1027.05 0 1.72316e+06 -709.101 0 1.72722e+06 -404.624 0 1.7291e+06 -114.679 0 1.72892e+06 159.963 0 1.72678e+06 418.789 0 1.72281e+06 661.508 0 1.71713e+06 888.021 0 1.70984e+06 1098.4 0 1.70107e+06 1292.85 0 1.69094e+06 1471.71 0 1.67956e+06 1635.42 0 1.66703e+06 1784.5 0 1.65346e+06 1919.51 0 1.63896e+06 2041.09 0 1.62361e+06 2149.9 0 1.60751e+06 2246.61 0 1.59075e+06 2331.92 0 1.5734e+06 2406.5 0 1.55554e+06 2471.05 0 1.53724e+06 2526.22 0 1.51858e+06 2572.66 0 1.4996e+06 2611 0 1.48037e+06 2641.84 0 1.46094e+06 2665.74 0 1.44136e+06 2683.25 0 1.42167e+06 2694.88 0 1.40192e+06 2701.11 0 1.38214e+06 2702.39 0 1.36237e+06 2699.16 0 1.34264e+06 2691.8 0 1.32297e+06 2680.68 0 1.3034e+06 2666.16 0 1.28395e+06 2648.54 0 1.26464e+06 2628.12 0 1.24548e+06 2605.18 0 1.2265e+06 2579.97 0 1.20772e+06 2552.72 0 1.18914e+06 2523.64 0 1.17078e+06 2492.94 0 1.15265e+06 2460.78 0 1.13475e+06 2427.35 0 1.11711e+06 2392.8 0 1.09973e+06 2357.25 0 1.0826e+06 2320.85 0 1.06575e+06 2283.7 0 1.04917e+06 2245.92 0 1.03287e+06 2207.6 0 1.01686e+06 2168.83 0 1.00112e+06 2129.69 0 985677 2090.26 0 970522 2050.6 0 955657 2010.78 0 941084 1970.84 0 926804 1930.84 0 912816 1890.83 0 899122 1850.83 0 885720 1810.9 0 872609 1771.05 0 859791 1731.32 0 847262 1691.74 0 835023 1652.32 0 823071 1613.1 0 811406 1574.07 0 800025 1535.27 0 788928 1496.7 0 778112 1458.37 0 767576 1420.29 0 757318 1382.47 0 747336 1344.92 0 737627 1307.64 0 728190 1270.64 0 719023 1233.91 0 710124 1197.45 0 701491 1161.28 0 693121 1125.38 0 685014 1089.76 0 677166 1054.41 0 669575 1019.33 0 662241 984.52 0 655160 949.97 0 648332 915.677 0 641753 881.637 0 635423 847.843 0 629339 814.289 0 623500 780.969 0 617904 747.876 0 612550 715.002 0 607435 682.341 0 602558 649.885 0 597919 617.625 0 593515 585.553 0 589345 553.661 0 585408 521.941 0 581702 490.383 0 578227 458.979 0 574981 427.72 0 571963 396.596 0 569173 365.599 0 566609 334.718 0 564271 303.945 0 562158 273.27 0 560269 242.684 0 558603 212.176 0 557161 181.736 0 555941 151.356 0 554943 121.026 0 554168 90.7347 0 553613 60.4733 0 553281 30.2317 0 553169 0 0 1.34193e+06 -4.76837e-07 0 1.34851e+06 -2037.73 0 1.36636e+06 -3594.61 0 1.39181e+06 -4566.05 0 1.42162e+06 -5082.41 0 1.4535e+06 -5283.27 0 1.48584e+06 -5267.24 0 1.51758e+06 -5102.3 0 1.54796e+06 -4836.04 0 1.57649e+06 -4502.18 0 1.60282e+06 -4124.68 0 1.62676e+06 -3720.55 0 1.64818e+06 -3301.98 0 1.66702e+06 -2877.76 0 1.68327e+06 -2454.38 0 1.69696e+06 -2036.71 0 1.70812e+06 -1628.44 0 1.71683e+06 -1232.44 0 1.72317e+06 -850.9 0 1.72723e+06 -485.524 0 1.72911e+06 -137.59 0 1.72893e+06 191.981 0 1.72679e+06 502.574 0 1.72282e+06 793.836 0 1.71713e+06 1065.65 0 1.70985e+06 1318.1 0 1.70108e+06 1551.45 0 1.69095e+06 1766.08 0 1.67956e+06 1962.53 0 1.66703e+06 2141.42 0 1.65347e+06 2303.43 0 1.63896e+06 2449.33 0 1.62361e+06 2579.9 0 1.60751e+06 2695.95 0 1.59075e+06 2798.32 0 1.5734e+06 2887.82 0 1.55554e+06 2965.27 0 1.53724e+06 3031.48 0 1.51858e+06 3087.21 0 1.4996e+06 3133.22 0 1.48037e+06 3170.22 0 1.46094e+06 3198.9 0 1.44136e+06 3219.91 0 1.42167e+06 3233.86 0 1.40192e+06 3241.34 0 1.38214e+06 3242.88 0 1.36237e+06 3239 0 1.34264e+06 3230.16 0 1.32297e+06 3216.83 0 1.3034e+06 3199.39 0 1.28395e+06 3178.25 0 1.26464e+06 3153.75 0 1.24548e+06 3126.22 0 1.2265e+06 3095.97 0 1.20772e+06 3063.26 0 1.18914e+06 3028.37 0 1.17078e+06 2991.53 0 1.15264e+06 2952.94 0 1.13475e+06 2912.83 0 1.11711e+06 2871.36 0 1.09973e+06 2828.7 0 1.0826e+06 2785.02 0 1.06575e+06 2740.44 0 1.04917e+06 2695.1 0 1.03287e+06 2649.12 0 1.01685e+06 2602.59 0 1.00112e+06 2555.63 0 985676 2508.31 0 970520 2460.73 0 955656 2412.94 0 941083 2365.01 0 926802 2317.01 0 912815 2268.99 0 899120 2221 0 885718 2173.07 0 872608 2125.26 0 859789 2077.59 0 847261 2030.09 0 835021 1982.79 0 823070 1935.72 0 811405 1888.89 0 800024 1842.32 0 788927 1796.03 0 778111 1750.04 0 767575 1704.35 0 757317 1658.97 0 747334 1613.91 0 737626 1569.17 0 728189 1524.76 0 719022 1480.69 0 710123 1436.94 0 701490 1393.54 0 693120 1350.46 0 685013 1307.71 0 677165 1265.29 0 669574 1223.2 0 662240 1181.42 0 655159 1139.96 0 648331 1098.81 0 641752 1057.96 0 635422 1017.41 0 629338 977.146 0 623499 937.162 0 617903 897.45 0 612549 858.002 0 607434 818.809 0 602557 779.861 0 597918 741.149 0 593514 702.663 0 589344 664.393 0 585407 626.329 0 581701 588.46 0 578226 550.775 0 574980 513.264 0 571962 475.915 0 569172 438.719 0 566608 401.662 0 564270 364.734 0 562157 327.924 0 560268 291.22 0 558602 254.611 0 557160 218.084 0 555940 181.628 0 554942 145.231 0 554167 108.882 0 553612 72.568 0 553280 36.278 0 553168 0 0 1.34187e+06 -7.15256e-07 0 1.34846e+06 -2378.33 0 1.36632e+06 -4194.85 0 1.39179e+06 -5327.92 0 1.42161e+06 -5930.07 0 1.45349e+06 -6164.23 0 1.48585e+06 -6145.39 0 1.51759e+06 -5952.88 0 1.54797e+06 -5642.17 0 1.5765e+06 -5252.62 0 1.60283e+06 -4812.18 0 1.62677e+06 -4340.67 0 1.64819e+06 -3852.32 0 1.66703e+06 -3357.38 0 1.68329e+06 -2863.43 0 1.69697e+06 -2376.14 0 1.70813e+06 -1899.83 0 1.71684e+06 -1437.82 0 1.72318e+06 -992.685 0 1.72724e+06 -566.412 0 1.72912e+06 -160.487 0 1.72894e+06 224.014 0 1.7268e+06 586.373 0 1.72283e+06 926.179 0 1.71714e+06 1243.3 0 1.70985e+06 1537.82 0 1.70109e+06 1810.06 0 1.69095e+06 2060.46 0 1.67957e+06 2289.65 0 1.66704e+06 2498.35 0 1.65347e+06 2687.37 0 1.63897e+06 2857.58 0 1.62362e+06 3009.91 0 1.60752e+06 3145.3 0 1.59075e+06 3264.73 0 1.5734e+06 3369.14 0 1.55554e+06 3459.5 0 1.53725e+06 3536.74 0 1.51858e+06 3601.76 0 1.4996e+06 3655.44 0 1.48037e+06 3698.61 0 1.46094e+06 3732.06 0 1.44136e+06 3756.57 0 1.42167e+06 3772.85 0 1.40192e+06 3781.57 0 1.38214e+06 3783.37 0 1.36237e+06 3778.84 0 1.34264e+06 3768.53 0 1.32297e+06 3752.97 0 1.3034e+06 3732.63 0 1.28395e+06 3707.97 0 1.26464e+06 3679.38 0 1.24548e+06 3647.26 0 1.2265e+06 3611.97 0 1.20772e+06 3573.81 0 1.18914e+06 3533.1 0 1.17077e+06 3490.12 0 1.15264e+06 3445.1 0 1.13475e+06 3398.3 0 1.11711e+06 3349.92 0 1.09972e+06 3300.15 0 1.0826e+06 3249.19 0 1.06575e+06 3197.18 0 1.04917e+06 3144.29 0 1.03287e+06 3090.64 0 1.01685e+06 3036.36 0 1.00112e+06 2981.57 0 985675 2926.37 0 970519 2870.85 0 955654 2815.09 0 941081 2759.18 0 926801 2703.18 0 912814 2647.16 0 899119 2591.16 0 885717 2535.25 0 872607 2479.47 0 859788 2423.85 0 847259 2368.43 0 835020 2313.25 0 823068 2258.33 0 811403 2203.7 0 800023 2149.37 0 788926 2095.37 0 778110 2041.71 0 767574 1988.4 0 757316 1935.46 0 747333 1882.89 0 737624 1830.7 0 728188 1778.89 0 719021 1727.47 0 710122 1676.43 0 701489 1625.79 0 693119 1575.53 0 685011 1525.66 0 677163 1476.17 0 669573 1427.06 0 662239 1378.33 0 655158 1329.96 0 648330 1281.95 0 641751 1234.29 0 635421 1186.98 0 629337 1140 0 623498 1093.36 0 617902 1047.02 0 612547 1001 0 607433 955.277 0 602556 909.838 0 597917 864.674 0 593513 819.773 0 589343 775.125 0 585405 730.716 0 581700 686.536 0 578225 642.57 0 574979 598.807 0 571961 555.234 0 569171 511.838 0 566607 468.605 0 564269 425.523 0 562156 382.578 0 560267 339.757 0 558601 297.045 0 557159 254.431 0 555939 211.899 0 554941 169.436 0 554166 127.029 0 553611 84.6626 0 553279 42.3244 0 553167 0 0 1.34179e+06 -1.66893e-06 0 1.34839e+06 -2719.4 0 1.36628e+06 -4795.62 0 1.39177e+06 -6090.18 0 1.4216e+06 -6778 0 1.45349e+06 -7045.36 0 1.48585e+06 -7023.67 0 1.5176e+06 -6803.54 0 1.54798e+06 -6448.36 0 1.57651e+06 -6003.11 0 1.60285e+06 -5499.7 0 1.62679e+06 -4960.81 0 1.6482e+06 -4402.66 0 1.66705e+06 -3837.01 0 1.6833e+06 -3272.48 0 1.69698e+06 -2715.57 0 1.70815e+06 -2171.2 0 1.71686e+06 -1643.18 0 1.72319e+06 -1134.46 0 1.72725e+06 -647.285 0 1.72913e+06 -183.368 0 1.72895e+06 256.064 0 1.72681e+06 670.188 0 1.72284e+06 1058.54 0 1.71715e+06 1420.96 0 1.70986e+06 1757.56 0 1.70109e+06 2068.68 0 1.69096e+06 2354.86 0 1.67958e+06 2616.79 0 1.66705e+06 2855.3 0 1.65348e+06 3071.32 0 1.63897e+06 3265.84 0 1.62362e+06 3439.93 0 1.60752e+06 3594.66 0 1.59075e+06 3731.15 0 1.5734e+06 3850.48 0 1.55554e+06 3953.75 0 1.53725e+06 4042.02 0 1.51858e+06 4116.32 0 1.4996e+06 4177.67 0 1.48037e+06 4227 0 1.46094e+06 4265.24 0 1.44136e+06 4293.25 0 1.42167e+06 4311.85 0 1.40192e+06 4321.81 0 1.38214e+06 4323.86 0 1.36237e+06 4318.68 0 1.34264e+06 4306.9 0 1.32297e+06 4289.12 0 1.3034e+06 4265.88 0 1.28395e+06 4237.68 0 1.26463e+06 4205.02 0 1.24548e+06 4168.31 0 1.2265e+06 4127.97 0 1.20771e+06 4084.36 0 1.18913e+06 4037.84 0 1.17077e+06 3988.71 0 1.15264e+06 3937.27 0 1.13475e+06 3883.77 0 1.11711e+06 3828.48 0 1.09972e+06 3771.61 0 1.0826e+06 3713.36 0 1.06575e+06 3653.92 0 1.04917e+06 3593.47 0 1.03287e+06 3532.16 0 1.01685e+06 3470.13 0 1.00112e+06 3407.51 0 985673 3344.42 0 970517 3280.97 0 955653 3217.25 0 941080 3153.35 0 926799 3089.35 0 912812 3025.32 0 899117 2961.33 0 885715 2897.43 0 872605 2833.68 0 859786 2770.11 0 847258 2706.78 0 835018 2643.72 0 823067 2580.95 0 811402 2518.51 0 800021 2456.43 0 788924 2394.71 0 778108 2333.38 0 767572 2272.46 0 757314 2211.95 0 747332 2151.87 0 737623 2092.22 0 728186 2033.02 0 719019 1974.25 0 710120 1915.92 0 701487 1858.05 0 693118 1800.61 0 685010 1743.61 0 677162 1687.06 0 669572 1630.93 0 662237 1575.23 0 655157 1519.95 0 648328 1465.08 0 641750 1410.62 0 635419 1356.55 0 629336 1302.86 0 623497 1249.55 0 617901 1196.6 0 612546 1144 0 607431 1091.74 0 602555 1039.81 0 597915 988.198 0 593511 936.883 0 589341 885.856 0 585404 835.104 0 581699 784.612 0 578223 734.366 0 574977 684.351 0 571960 634.553 0 569170 584.957 0 566606 535.549 0 564268 486.312 0 562155 437.232 0 560266 388.293 0 558600 339.48 0 557158 290.778 0 555938 242.17 0 554940 193.641 0 554164 145.175 0 553610 96.7572 0 553277 48.3707 0 553166 0 0 1.34171e+06 3.45707e-06 0 1.34832e+06 -3060.98 0 1.36623e+06 -5396.99 0 1.39174e+06 -6852.89 0 1.42159e+06 -7626.24 0 1.45349e+06 -7926.71 0 1.48585e+06 -7902.1 0 1.5176e+06 -7654.3 0 1.54799e+06 -7254.61 0 1.57652e+06 -6753.63 0 1.60286e+06 -6187.24 0 1.6268e+06 -5580.95 0 1.64822e+06 -4953.01 0 1.66706e+06 -4316.63 0 1.68332e+06 -3681.52 0 1.697e+06 -3054.99 0 1.70816e+06 -2442.56 0 1.71687e+06 -1848.54 0 1.72321e+06 -1276.21 0 1.72726e+06 -728.14 0 1.72914e+06 -206.23 0 1.72896e+06 288.132 0 1.72682e+06 754.023 0 1.72285e+06 1190.92 0 1.71716e+06 1598.64 0 1.70987e+06 1977.32 0 1.7011e+06 2327.33 0 1.69097e+06 2649.27 0 1.67958e+06 2943.95 0 1.66705e+06 3212.27 0 1.65348e+06 3455.28 0 1.63898e+06 3674.12 0 1.62363e+06 3869.97 0 1.60752e+06 4044.04 0 1.59076e+06 4197.58 0 1.57341e+06 4331.83 0 1.55555e+06 4448 0 1.53725e+06 4547.3 0 1.51858e+06 4630.9 0 1.4996e+06 4699.9 0 1.48037e+06 4755.4 0 1.46094e+06 4798.42 0 1.44136e+06 4829.92 0 1.42167e+06 4850.85 0 1.40192e+06 4862.06 0 1.38214e+06 4864.36 0 1.36237e+06 4858.53 0 1.34264e+06 4845.28 0 1.32297e+06 4825.27 0 1.3034e+06 4799.12 0 1.28395e+06 4767.4 0 1.26463e+06 4730.65 0 1.24548e+06 4689.36 0 1.2265e+06 4643.97 0 1.20771e+06 4594.91 0 1.18913e+06 4542.57 0 1.17077e+06 4487.3 0 1.15264e+06 4429.43 0 1.13475e+06 4369.25 0 1.11711e+06 4307.04 0 1.09972e+06 4243.06 0 1.0826e+06 4177.53 0 1.06575e+06 4110.67 0 1.04917e+06 4042.66 0 1.03287e+06 3973.68 0 1.01685e+06 3903.9 0 1.00112e+06 3833.45 0 985671 3762.47 0 970516 3691.09 0 955651 3619.4 0 941078 3547.52 0 926798 3475.52 0 912810 3403.49 0 899116 3331.5 0 885713 3259.61 0 872603 3187.89 0 859785 3116.38 0 847256 3045.13 0 835017 2974.18 0 823065 2903.57 0 811400 2833.33 0 800019 2763.48 0 788922 2694.05 0 778107 2625.06 0 767571 2556.52 0 757312 2488.45 0 747330 2420.86 0 737621 2353.75 0 728185 2287.14 0 719018 2221.03 0 710119 2155.41 0 701485 2090.3 0 693116 2025.68 0 685008 1961.57 0 677160 1897.94 0 669570 1834.8 0 662236 1772.13 0 655155 1709.94 0 648327 1648.22 0 641748 1586.94 0 635418 1526.11 0 629334 1465.72 0 623495 1405.74 0 617899 1346.17 0 612545 1287 0 607430 1228.21 0 602553 1169.79 0 597914 1111.72 0 593510 1053.99 0 589340 996.588 0 585403 939.491 0 581697 882.688 0 578222 826.161 0 574976 769.894 0 571958 713.872 0 569168 658.077 0 566605 602.492 0 564266 547.101 0 562153 491.886 0 560264 436.83 0 558599 381.915 0 557156 327.125 0 555936 272.441 0 554939 217.846 0 554163 163.322 0 553609 108.852 0 553276 54.417 0 553164 0 0 1.34161e+06 -4.94719e-06 0 1.34824e+06 -3403.16 0 1.36618e+06 -5999.04 0 1.39171e+06 -7616.1 0 1.42158e+06 -8474.83 0 1.45348e+06 -8808.31 0 1.48586e+06 -8780.69 0 1.51761e+06 -8505.17 0 1.54801e+06 -8060.95 0 1.57654e+06 -7504.2 0 1.60288e+06 -6874.82 0 1.62682e+06 -6201.11 0 1.64824e+06 -5503.37 0 1.66708e+06 -4796.25 0 1.68333e+06 -4090.56 0 1.69702e+06 -3394.39 0 1.70818e+06 -2713.91 0 1.71689e+06 -2053.87 0 1.72322e+06 -1417.95 0 1.72728e+06 -808.975 0 1.72916e+06 -229.072 0 1.72897e+06 320.222 0 1.72683e+06 837.88 0 1.72286e+06 1323.32 0 1.71717e+06 1776.34 0 1.70988e+06 2197.09 0 1.70111e+06 2585.99 0 1.69098e+06 2943.71 0 1.67959e+06 3271.12 0 1.66706e+06 3569.25 0 1.65349e+06 3839.27 0 1.63898e+06 4082.42 0 1.62363e+06 4300.02 0 1.60753e+06 4493.43 0 1.59076e+06 4664.03 0 1.57341e+06 4813.19 0 1.55555e+06 4942.27 0 1.53725e+06 5052.6 0 1.51858e+06 5145.48 0 1.49961e+06 5222.15 0 1.48038e+06 5283.81 0 1.46094e+06 5331.6 0 1.44136e+06 5366.61 0 1.42168e+06 5389.86 0 1.40192e+06 5402.31 0 1.38214e+06 5404.87 0 1.36237e+06 5398.39 0 1.34264e+06 5383.66 0 1.32297e+06 5361.43 0 1.3034e+06 5332.37 0 1.28395e+06 5297.13 0 1.26463e+06 5256.29 0 1.24548e+06 5210.41 0 1.2265e+06 5159.98 0 1.20771e+06 5105.47 0 1.18913e+06 5047.31 0 1.17077e+06 4985.9 0 1.15264e+06 4921.59 0 1.13475e+06 4854.73 0 1.1171e+06 4785.61 0 1.09972e+06 4714.52 0 1.0826e+06 4641.7 0 1.06574e+06 4567.41 0 1.04917e+06 4491.84 0 1.03287e+06 4415.2 0 1.01685e+06 4337.66 0 1.00111e+06 4259.39 0 985669 4180.53 0 970514 4101.21 0 955649 4021.56 0 941076 3941.69 0 926796 3861.69 0 912808 3781.65 0 899113 3701.66 0 885711 3621.79 0 872601 3542.1 0 859783 3462.64 0 847254 3383.48 0 835015 3304.65 0 823063 3226.19 0 811398 3148.14 0 800017 3070.53 0 788920 2993.39 0 778105 2916.73 0 767569 2840.57 0 757310 2764.94 0 747328 2689.84 0 737619 2615.28 0 728183 2541.27 0 719016 2467.81 0 710117 2394.9 0 701484 2322.55 0 693114 2250.76 0 685006 2179.52 0 677159 2108.82 0 669568 2038.66 0 662234 1969.04 0 655153 1899.94 0 648325 1831.35 0 641746 1763.27 0 635416 1695.68 0 629332 1628.57 0 623493 1561.93 0 617897 1495.75 0 612543 1430 0 607428 1364.68 0 602552 1299.77 0 597912 1235.25 0 593508 1171.1 0 589338 1107.32 0 585401 1043.88 0 581695 980.763 0 578220 917.956 0 574974 855.437 0 571957 793.19 0 569167 731.196 0 566603 669.435 0 564265 607.889 0 562152 546.539 0 560263 485.366 0 558597 424.35 0 557155 363.472 0 555935 302.712 0 554937 242.051 0 554161 181.469 0 553607 120.946 0 553274 60.4633 0 553163 0 0 1.3415e+06 4.94719e-06 0 1.34815e+06 -3745.99 0 1.36612e+06 -6601.84 0 1.39168e+06 -8379.88 0 1.42156e+06 -9323.81 0 1.45348e+06 -9690.16 0 1.48586e+06 -9659.47 0 1.51762e+06 -9356.17 0 1.54802e+06 -8867.36 0 1.57656e+06 -8254.83 0 1.6029e+06 -7562.42 0 1.62684e+06 -6821.29 0 1.64826e+06 -6053.73 0 1.6671e+06 -5275.87 0 1.68335e+06 -4499.59 0 1.69704e+06 -3733.78 0 1.7082e+06 -2985.24 0 1.71691e+06 -2259.19 0 1.72324e+06 -1559.67 0 1.7273e+06 -889.789 0 1.72917e+06 -251.891 0 1.72899e+06 352.335 0 1.72685e+06 921.761 0 1.72287e+06 1455.74 0 1.71718e+06 1954.07 0 1.70989e+06 2416.89 0 1.70112e+06 2844.68 0 1.69099e+06 3238.17 0 1.6796e+06 3598.32 0 1.66707e+06 3926.26 0 1.6535e+06 4223.27 0 1.63899e+06 4490.73 0 1.62364e+06 4730.09 0 1.60753e+06 4942.84 0 1.59077e+06 5130.5 0 1.57341e+06 5294.57 0 1.55555e+06 5436.55 0 1.53726e+06 5557.91 0 1.51859e+06 5660.07 0 1.49961e+06 5744.41 0 1.48038e+06 5812.23 0 1.46095e+06 5864.8 0 1.44136e+06 5903.3 0 1.42168e+06 5928.87 0 1.40192e+06 5942.57 0 1.38214e+06 5945.38 0 1.36237e+06 5938.25 0 1.34264e+06 5922.05 0 1.32297e+06 5897.59 0 1.3034e+06 5865.63 0 1.28395e+06 5826.86 0 1.26463e+06 5781.94 0 1.24548e+06 5731.46 0 1.2265e+06 5675.99 0 1.20771e+06 5616.03 0 1.18913e+06 5552.05 0 1.17077e+06 5484.5 0 1.15264e+06 5413.76 0 1.13475e+06 5340.21 0 1.1171e+06 5264.18 0 1.09972e+06 5185.97 0 1.0826e+06 5105.88 0 1.06574e+06 5024.15 0 1.04916e+06 4941.03 0 1.03286e+06 4856.72 0 1.01685e+06 4771.43 0 1.00111e+06 4685.33 0 985667 4598.58 0 970511 4511.33 0 955646 4423.72 0 941074 4335.86 0 926793 4247.86 0 912806 4159.82 0 899111 4071.83 0 885709 3983.97 0 872599 3896.3 0 859780 3808.