<?xml version="1.0"?> 
<VTKFile type="StructuredGrid" version="0.1"> 
<StructuredGrid WholeExtent="0 127 0 127 0 0"> 
<Piece Extent="0 127 0 127 0 0"> 
<PointData>
<DataArray type="Float32" Name="E" format="ascii" NumberOfComponents="3"> 
2.38419e-07 7.74714e+06 0 -2.60305e-07 6.61295e+06 0 7.72998e-08 5.77683e+06 0 1.73226e-07 5.23696e+06 0 -8.3819e-08 4.85583e+06 0 1.3411e-07 4.56115e+06 0 1.00583e-07 4.32096e+06 0 -3.8743e-07 4.11756e+06 0 2.49594e-07 3.94061e+06 0 3.72529e-08 3.78359e+06 0 -2.98023e-08 3.64204e+06 0 1.2666e-07 3.51283e+06 0 -1.49012e-08 3.39364e+06 0 1.49012e-08 3.28274e+06 0 -1.19209e-07 3.17877e+06 0 2.23517e-08 3.08068e+06 0 7.45058e-09 2.98764e+06 0 -1.19209e-07 2.89894e+06 0 1.49012e-08 2.81404e+06 0 -7.45058e-08 2.73245e+06 0 2.98023e-08 2.6538e+06 0 -1.78814e-07 2.57775e+06 0 7.45058e-08 2.50401e+06 0 -2.38419e-07 2.43236e+06 0 7.45058e-08 2.36259e+06 0 -4.47035e-08 2.29452e+06 0 7.45058e-08 2.22801e+06 0 -1.49012e-07 2.16291e+06 0 5.96046e-08 2.09912e+06 0 -7.45058e-08 2.03654e+06 0 1.63913e-07 1.97508e+06 0 -8.9407e-08 1.91468e+06 0 -5.96046e-08 1.85528e+06 0 1.49012e-07 1.79681e+06 0 0 1.73925e+06 0 -1.78814e-07 1.68255e+06 0 1.78814e-07 1.62669e+06 0 8.9407e-08 1.57165e+06 0 -1.49012e-07 1.5174e+06 0 8.9407e-08 1.46395e+06 0 5.96046e-08 1.41129e+06 0 -2.08616e-07 1.35942e+06 0 1.78814e-07 1.30833e+06 0 2.98023e-08 1.25805e+06 0 -2.38419e-07 1.20859e+06 0 1.49012e-07 1.15995e+06 0 2.98023e-08 1.11216e+06 0 -2.08616e-07 1.06525e+06 0 1.78814e-07 1.01923e+06 0 0 974138 0 -1.49012e-07 929993 0 2.38419e-07 886827 0 0 844671 0 -1.19209e-07 803554 0 1.78814e-07 763506 0 0 724556 0 -1.49012e-07 686732 0 1.49012e-07 650060 0 -2.98023e-08 614564 0 -1.49012e-07 580264 0 2.08616e-07 547180 0 -5.96046e-08 515325 0 -1.19209e-07 484709 0 3.27826e-07 455341 0 -2.98023e-08 427221 0 0 400348 0 2.98023e-08 374716 0 -5.96046e-08 350313 0 0 327124 0 0 305129 0 0 284306 0 5.96046e-08 264627 0 0 246062 0 5.96046e-08 228578 0 -5.96046e-08 212139 0 0 196708 0 0 182245 0 0 168709 0 0 156060 0 1.78814e-07 144255 0 -1.78814e-07 133252 0 1.78814e-07 123009 0 -1.78814e-07 113485 0 1.19209e-07 104639 0 -1.19209e-07 96430.8 0 5.96046e-08 88822.6 0 0 81776.6 0 5.96046e-08 75257 0 -5.96046e-08 69229.2 0 0 63660.4 0 0 58519.1 0 0 53775.7 0 5.96046e-08 49402.1 0 5.96046e-08 45371.6 0 1.19209e-07 41659.4 0 -5.96046e-08 38241.8 0 1.19209e-07 35097.1 0 -5.96046e-08 32204.5 0 -5.96046e-08 29545 0 0 27100.6 0 -1.19209e-07 24854.6 0 1.19209e-07 22791.7 0 -1.19209e-07 20897.4 0 5.96046e-08 19158.4 0 -1.78814e-07 17562.4 0 5.96046e-08 16098.1 0 -5.96046e-08 14754.7 0 2.98023e-07 13522.7 0 -5.36442e-07 12393 0 3.57628e-07 11357.4 0 -2.38419e-07 10408.2 0 0 9538.47 0 2.38419e-07 8741.73 0 -3.57628e-07 8012.09 0 1.19209e-07 7344.13 0 0 6732.93 0 -1.19209e-07 6173.98 0 4.17233e-07 5663.3 0 -5.96046e-07 5197.13 0 4.76837e-07 4772.78 0 -3.57628e-07 4386.5 0 2.98023e-07 4039.59 0 -2.38419e-07 3722.96 0 2.98023e-07 3459.95 0 -3.57628e-07 3199.31 0 1.78814e-07 3110.08 0 5.96046e-08 2864.54 0 -7.15256e-07 5215.2 0 -310807 6.95054e+06 0 -214712 5.9744e+06 0 -138934 5.36353e+06 0 -100763 4.95597e+06 0 -79070.6 4.64384e+06 0 -65061.1 4.3914e+06 0 -55471.3 4.17935e+06 0 -48484.6 3.9959e+06 0 -43178.2 3.83385e+06 0 -39031.1 3.68835e+06 0 -35711 3.55595e+06 0 -33001.3 3.43416e+06 0 -30754.7 3.32111e+06 0 -28867.2 3.21534e+06 0 -27263.3 3.11574e+06 0 -25887.1 3.02141e+06 0 -24696.1 2.93162e+06 0 -23657.5 2.84577e+06 0 -22745.7 2.76337e+06 0 -21940 2.68402e+06 0 -21224.2 2.60736e+06 0 -20584.5 2.5331e+06 0 -20010.1 2.46099e+06 0 -19491.6 2.39082e+06 0 -19021.1 2.3224e+06 0 -18592.2 2.25558e+06 0 -18199.1 2.19022e+06 0 -17836.9 2.12619e+06 0 -17501.4 2.0634e+06 0 -17188.8 2.00176e+06 0 -16895.9 1.9412e+06 0 -16619.8 1.88164e+06 0 -16357.7 1.82304e+06 0 -16107.3 1.76535e+06 0 -15866.5 1.70853e+06 0 -15633.3 1.65255e+06 0 -15405.9 1.59739e+06 0 -15182.6 1.54303e+06 0 -14961.9 1.48946e+06 0 -14742.4 1.43667e+06 0 -14522.8 1.38465e+06 0 -14301.8 1.33342e+06 0 -14078.4 1.28298e+06 0 -13851.4 1.23334e+06 0 -13619.9 1.18452e+06 0 -13383.1 1.13652e+06 0 -13140.3 1.08938e+06 0 -12890.7 1.04311e+06 0 -12633.8 997741 0 -12369.2 953299 0 -12096.5 909812 0 -11815.6 867309 0 -11526.3 825820 0 -11228.8 785373 0 -10923.2 745998 0 -10609.9 707724 0 -10289.4 670577 0 -9962.17 634581 0 -9629.06 599760 0 -9290.89 566132 0 -8948.61 533714 0 -8603.27 502519 0 -8256 472556 0 -7907.97 443829 0 -7560.4 416339 0 -7214.52 390083 0 -6871.55 365051 0 -6532.68 341232 0 -6199.08 318609 0 -5871.81 297161 0 -5551.9 276864 0 -5240.26 257689 0 -4937.7 239607 0 -4644.92 222583 0 -4362.53 206581 0 -4090.99 191564 0 -3830.67 177493 0 -3581.83 164326 0 -3344.6 152024 0 -3119.06 140543 0 -2905.15 129844 0 -2702.76 119884 0 -2511.7 110623 0 -2331.72 102021 0 -2162.53 94040.2 0 -2003.76 86641.5 0 -1855.05 79788.9 0 -1715.99 73447.5 0 -1586.16 67583.6 0 -1465.12 62165.3 0 -1352.42 57162.1 0 -1247.63 52545.2 0 -1150.3 48287.2 0 -1060.01 44362.3 0 -976.318 40746.4 0 -898.827 37416.7 0 -827.136 34351.9 0 -760.865 31532.1 0 -699.648 28938.6 0 -643.139 26554.1 0 -591.008 24362.6 0 -542.943 22349 0 -498.65 20499.3 0 -457.853 18800.7 0 -420.292 17241.3 0 -385.723 15809.9 0 -353.918 14496.4 0 -324.666 13291.2 0 -297.767 12185.8 0 -273.037 11172.1 0 -250.302 10242.6 0 -229.403 9390.6 0 -210.189 8609.83 0 -192.519 7894.55 0 -176.261 7239.52 0 -161.29 6639.94 0 -147.479 6091.47 0 -134.72 5590.15 0 -122.864 5132.64 0 -111.802 4715.52 0 -101.356 4337.38 0 -91.0822 3993.9 0 -81.6314 3690.96 0 -67.9806 3414.58 0 -62.539 3208.41 0 -12.1774 3008.48 0 -28.6955 3115.56 0 820.028 3260.32 0 -481623 6.12802e+06 0 -311814 5.48753e+06 0 -217615 5.05248e+06 0 -168686 4.72544e+06 0 -137320 4.46051e+06 0 -116123 4.23994e+06 0 -100910 4.05012e+06 0 -89447.2 3.88314e+06 0 -80547.2 3.73376e+06 0 -73462.8 3.59825e+06 0 -67707 3.47391e+06 0 -62952.9 3.35875e+06 0 -58971.6 3.25122e+06 0 -55597.9 3.15014e+06 0 -52710.1 3.05455e+06 0 -50216.2 2.96368e+06 0 -48045.5 2.87691e+06 0 -46143.1 2.79372e+06 0 -44464.9 2.71368e+06 0 -42976 2.63643e+06 0 -41647.6 2.56165e+06 0 -40456.3 2.4891e+06 0 -39382.5 2.41854e+06 0 -38409.7 2.34978e+06 0 -37524.1 2.28266e+06 0 -36713.9 2.21704e+06 0 -35968.7 2.15278e+06 0 -35279.8 2.0898e+06 0 -34639.3 2.02798e+06 0 -34040.4 1.96726e+06 0 -33477 1.90756e+06 0 -32943.8 1.84883e+06 0 -32435.7 1.79102e+06 0 -31948.5 1.73408e+06 0 -31478 1.678e+06 0 -31020.6 1.62273e+06 0 -30572.9 1.56826e+06 0 -30131.7 1.51457e+06 0 -29694.1 1.46166e+06 0 -29257.5 1.40952e+06 0 -28819.3 1.35816e+06 0 -28377.3 1.30757e+06 0 -27929.3 1.25777e+06 0 -27473.3 1.20877e+06 0 -27007.6 1.16058e+06 0 -26530.6 1.11322e+06 0 -26040.8 1.06672e+06 0 -25537.1 1.0211e+06 0 -25018.6 976382 0 -24484.4 932594 0 -23933.9 889765 0 -23367.1 847924 0 -22783.7 807101 0 -22184.1 767324 0 -21568.8 728622 0 -20938.6 691021 0 -20294.5 654549 0 -19637.8 619228 0 -18970.1 585078 0 -18293.2 552119 0 -17609 520365 0 -16919.6 489826 0 -16227.4 460511 0 -15534.6 432421 0 -14843.7 405557 0 -14157.1 379911 0 -13477.3 355476 0 -12806.5 332236 0 -12146.9 310173 0 -11500.7 289266 0 -10869.8 269489 0 -10255.9 250814 0 -9660.57 233209 0 -9085.05 216640 0 -8530.47 201070 0 -7997.68 186463 0 -7487.33 172778 0 -6999.84 159976 0 -6535.44 148015 0 -6094.17 136856 0 -5675.9 126457 0 -5280.36 116777 0 -4907.11 107776 0 -4555.65 99416.5 0 -4225.34 91659.3 0 -3915.49 84468 0 -3625.31 77806.9 0 -3354.01 71641.9 0 -3100.74 65940.5 0 -2864.63 60671.5 0 -2644.82 55805.2 0 -2440.42 51313.8 0 -2250.57 47170.6 0 -2074.43 43350.7 0 -1911.16 39830.6 0 -1759.96 36588.3 0 -1620.05 33603.1 0 -1490.7 30855.7 0 -1371.19 28328.1 0 -1260.85 26003.5 0 -1159.03 23866.3 0 -1065.13 21901.9 0 -978.571 20097 0 -898.823 18438.8 0 -825.379 16916 0 -757.764 15517.7 0 -695.535 14234.1 0 -638.281 13056 0 -585.614 11975 0 -537.175 10983.2 0 -492.628 10073.6 0 -451.661 9239.48 0 -413.981 8474.83 0 -379.313 7774.07 0 -347.4 7132.1 0 -317.994 6544.28 0 -290.854 6006.39 0 -265.755 5514.65 0 -242.4 5065.6 0 -220.651 4656.58 0 -199.754 4284.69 0 -180.25 3949.35 0 -158.691 3648.42 0 -139.211 3385.42 0 -105.336 3168.37 0 -63.8929 2999.53 0 75.1523 3020.33 0 804.015 2624.22 0 -515690 5.59891e+06 0 -354280 5.14097e+06 0 -268934 4.79934e+06 0 -217387 4.52583e+06 0 -182218 4.29765e+06 0 -157449 4.10228e+06 0 -138928 3.9308e+06 0 -124633 3.77781e+06 0 -113317 3.63937e+06 0 -104163 3.51262e+06 0 -96630.3 3.39545e+06 0 -90341.3 3.28625e+06 0 -85026.2 3.18374e+06 0 -80487.1 3.08694e+06 0 -76575.1 2.99504e+06 0 -73176.5 2.90738e+06 0 -70202.6 2.82343e+06 0 -67583.4 2.74272e+06 0 -65262.9 2.6649e+06 0 -63195.5 2.58963e+06 0 -61343.9 2.51664e+06 0 -59677.2 2.4457e+06 0 -58169.5 2.37662e+06 0 -56798.9 2.30922e+06 0 -55546.8 2.24335e+06 0 -54397.2 2.17888e+06 0 -53336.2 2.1157e+06 0 -52351.7 2.05371e+06 0 -51433.1 1.99284e+06 0 -50571 1.93301e+06 0 -49756.9 1.87416e+06 0 -48983.3 1.81624e+06 0 -48243.3 1.7592e+06 0 -47530.8 1.70301e+06 0 -46840.2 1.64764e+06 0 -46166.1 1.59307e+06 0 -45503.8 1.53929e+06 0 -44848.9 1.48627e+06 0 -44197.2 1.43402e+06 0 -43544.8 1.38253e+06 0 -42888.4 1.33181e+06 0 -42224.5 1.28186e+06 0 -41550.1 1.2327e+06 0 -40862.6 1.18433e+06 0 -40159.4 1.13678e+06 0 -39438.2 1.09006e+06 0 -38697.2 1.0442e+06 0 -37934.8 999227 0 -37149.6 955158 0 -36340.7 912023 0 -35507.5 869851 0 -34649.8 828672 0 -33767.7 788515 0 -32861.7 749406 0 -31932.8 711375 0 -30982.4 674448 0 -30012.2 638649 0 -29024.2 603999 0 -28020.9 570520 0 -27005.1 538226 0 -25979.8 507132 0 -24948.3 477247 0 -23913.8 448575 0 -22880.1 421119 0 -21850.6 394875 0 -20829 369836 0 -19818.8 345991 0 -18823.3 323324 0 -17845.8 301816 0 -16889.3 281445 0 -15956.6 262183 0 -15050 244002 0 -14171.7 226868 0 -13323.5 210749 0 -12507 195607 0 -11723.3 181404 0 -10973.1 168102 0 -10257.1 155659 0 -9575.48 144037 0 -8928.2 133195 0 -8314.98 123092 0 -7735.36 113689 0 -7188.66 104946 0 -6674.04 96825.2 0 -6190.55 89289.8 0 -5737.1 82303.6 0 -5312.55 75832 0 -4915.68 69841.8 0 -4545.22 64301.3 0 -4199.89 59180.1 0 -3878.4 54449.7 0 -3579.45 50082.7 0 -3301.77 46053.5 0 -3044.12 42337.8 0 -2805.28 38912.9 0 -2584.06 35757.5 0 -2379.34 32851.5 0 -2190.02 30176.3 0 -2015.08 27714.3 0 -1853.51 25449.4 0 -1704.39 23366.4 0 -1566.84 21451.2 0 -1440 19690.8 0 -1323.12 18073.1 0 -1215.43 16586.9 0 -1116.26 15221.8 0 -1024.97 13968.2 0 -940.939 12817.2 0 -863.615 11760.7 0 -792.473 10791.1 0 -727.022 9901.42 0 -666.806 9085.33 0 -611.397 8336.92 0 -560.395 7650.8 0 -513.422 7022.02 0 -470.112 6446.09 0 -430.124 5918.91 0 -393.083 5436.78 0 -358.661 4996.47 0 -326.359 4595.16 0 -295.741 4230.47 0 -266.011 3901.27 0 -235.298 3605.83 0 -203.497 3348.87 0 -155.082 3129.04 0 -94.8864 2971.62 0 123.914 2873.44 0 624.032 2369.24 0 -512113 5.21668e+06 0 -380717 4.86353e+06 0 -304887 4.5861e+06 0 -254010 4.35236e+06 0 -218133 4.15196e+06 0 -191685 3.97655e+06 0 -171333 3.82026e+06 0 -155308 3.67913e+06 0 -142397 3.55014e+06 0 -131808 3.4311e+06 0 -122993 3.32031e+06 0 -115562 3.21646e+06 0 -109229 3.11852e+06 0 -103782 3.02563e+06 0 -99058.2 2.93713e+06 0 -94930.9 2.85244e+06 0 -91301.2 2.77111e+06 0 -88089.7 2.69274e+06 0 -85232.3 2.61699e+06 0 -82676.3 2.54359e+06 0 -80378.6 2.4723e+06 0 -78302.7 2.40291e+06 0 -76418.2 2.33523e+06 0 -74699.1 2.26912e+06 0 -73123.1 2.20445e+06 0 -71671.1 2.14109e+06 0 -70326.1 2.07895e+06 0 -69073.6 2.01794e+06 0 -67900.5 1.95798e+06 0 -66795.4 1.89902e+06 0 -65747.7 1.84099e+06 0 -64748.2 1.78386e+06 0 -63788.5 1.72758e+06 0 -62860.7 1.67212e+06 0 -61957.7 1.61747e+06 0 -61073.1 1.56359e+06 0 -60200.8 1.51048e+06 0 -59335.2 1.45812e+06 0 -58471.1 1.40653e+06 0 -57603.6 1.35568e+06 0 -56728.3 1.3056e+06 0 -55841 1.25629e+06 0 -54938 1.20776e+06 0 -54015.8 1.16003e+06 0 -53071.4 1.11312e+06 0 -52101.9 1.06704e+06 0 -51105.1 1.02182e+06 0 -50079 977488 0 -49022.2 934067 0 -47933.5 891585 0 -46812.5 850071 0 -45659.1 809553 0 -44473.7 770060 0 -43257.3 731620 0 -42011.3 694259 0 -40737.8 658003 0 -39439.2 622875 0 -38118.6 588896 0 -36779.2 556084 0 -35425 524454 0 -34060 494017 0 -32688.6 464780 0 -31315.3 436749 0 -29944.9 409921 0 -28582.1 384293 0 -27231.5 359856 0 -25897.8 336596 0 -24585.3 314498 0 -23298.2 293540 0 -22040.3 273699 0 -20814.9 254947 0 -19625.4 237254 0 -18474.2 220588 0 -17363.5 204913 0 -16295.3 190193 0 -15270.9 176390 0 -14291.2 163465 0 -13356.7 151379 0 -12467.7 140091 0 -11624 129562 0 -10825.1 119752 0 -10070.3 110622 0 -9358.74 102133 0 -8689.14 94249.3 0 -8060.23 86933.1 0 -7470.55 80149.8 0 -6918.55 73865.6 0 -6402.61 68048.4 0 -5921.07 62667.1 0 -5472.22 57692.5 0 -5054.36 53096.6 0 -4665.8 48853 0 -4304.88 44936.8 0 -3969.95 41324.6 0 -3659.44 37994.3 0 -3371.81 34925.2 0 -3105.58 32097.9 0 -2859.35 29494.4 0 -2631.76 27097.8 0 -2421.53 24892.3 0 -2227.44 22863.3 0 -2048.36 20997.3 0 -1883.2 19281.4 0 -1730.94 17704.2 0 -1590.63 16254.6 0 -1461.37 14922.6 0 -1342.34 13699.1 0 -1232.74 12575.3 0 -1131.85 11543.3 0 -1038.99 10595.9 0 -953.532 9726.33 0 -874.873 8928.35 0 -802.464 8196.3 0 -735.782 7524.92 0 -674.336 6909.45 0 -617.655 6345.5 0 -565.277 5829.12 0 -516.738 5356.72 0 -471.56 4925.15 0 -429.133 4531.67 0 -388.865 4174.09 0 -349.428 3850.9 0 -309.465 3561.11 0 -265.162 3307.52 0 -205.791 3087.98 0 -119.013 2922.19 0 115.521 2734.18 0 435.668 2254.26 0 -505997 4.92271e+06 0 -399144 4.63845e+06 0 -331359 4.40291e+06 0 -283045 4.19839e+06 0 -247687 4.01978e+06 0 -220666 3.86075e+06 0 -199441 3.71725e+06 0 -182416 3.58626e+06 0 -168492 3.46552e+06 0 -156932 3.35328e+06 0 -147209 3.24819e+06 0 -138941 3.14918e+06 0 -131841 3.05538e+06 0 -125694 2.96608e+06 0 -120331 2.88071e+06 0 -115621 2.79879e+06 0 -111458 2.7199e+06 0 -107760 2.64371e+06 0 -104455 2.56992e+06 0 -101488 2.49829e+06 0 -98810.3 2.4286e+06 0 -96382.7 2.36068e+06 0 -94171.1 2.29435e+06 0 -92146.5 2.22948e+06 0 -90283.9 2.16595e+06 0 -88561.6 2.10367e+06 0 -86960.6 2.04253e+06 0 -85464.1 1.98246e+06 0 -84057.3 1.92339e+06 0 -82726.7 1.86528e+06 0 -81460.4 1.80806e+06 0 -80247.5 1.7517e+06 0 -79078.2 1.69616e+06 0 -77943.3 1.64143e+06 0 -76834.6 1.58747e+06 0 -75744.4 1.53427e+06 0 -74665.4 1.48183e+06 0 -73591.1 1.43013e+06 0 -72515.4 1.37918e+06 0 -71432.4 1.32898e+06 0 -70337 1.27954e+06 0 -69224.2 1.23086e+06 0 -68089.7 1.18297e+06 0 -66929.3 1.13587e+06 0 -65739.5 1.08959e+06 0 -64517.2 1.04415e+06 0 -63259.7 999569 0 -61964.9 955881 0 -60631.3 913109 0 -59257.8 871280 0 -57844.1 830423 0 -56390.4 790566 0 -54897.4 751738 0 -53366.7 713965 0 -51800.5 677273 0 -50201.3 641688 0 -48572.7 607229 0 -46918.5 573919 0 -45243.1 541771 0 -43551.3 510801 0 -41848.5 481018 0 -40140.1 452428 0 -38431.8 425032 0 -36729.5 398830 0 -35039 373813 0 -33366 349973 0 -31716.2 327294 0 -30094.7 305759 0 -28506.5 285346 0 -26956.2 266030 0 -25447.9 247783 0 -23985.2 230573 0 -22571.2 214368 0 -21208.3 199133 0 -19898.7 184830 0 -18643.9 171423 0 -17444.7 158871 0 -16301.7 147136 0 -15215.1 136178 0 -14184.4 125959 0 -13209 116438 0 -12287.9 107578 0 -11419.8 99340.9 0 -10603.2 91690.3 0 -9836.46 84590.7 0 -9117.74 78008 0 -8445.07 71909.2 0 -7816.43 66263 0 -7229.76 61039.4 0 -6682.95 56209.8 0 -6173.91 51747.1 0 -5700.56 47625.7 0 -5260.85 43821.6 0 -4852.78 40312 0 -4474.42 37075.5 0 -4123.89 34092.1 0 -3799.39 31343.1 0 -3499.2 28810.9 0 -3221.69 26479.3 0 -2965.29 24333 0 -2728.52 22357.8 0 -2510 20540.6 0 -2308.41 18869.2 0 -2122.51 17332.3 0 -1951.15 15919.3 0 -1793.24 14620.5 0 -1647.77 13427 0 -1513.79 12330.4 0 -1390.41 11323.1 0 -1276.81 10398 0 -1172.21 9548.54 0 -1075.9 8768.76 0 -987.211 8053.14 0 -905.496 7396.61 0 -830.159 6794.52 0 -760.624 6242.65 0 -696.327 5737.14 0 -636.701 5274.54 0 -581.136 4851.77 0 -528.925 4466.16 0 -479.224 4115.6 0 -430.527 3798.34 0 -381.137 3513.86 0 -325.536 3262.34 0 -255.536 3043.12 0 -146.964 2858.24 0 69.3579 2617.83 0 274.786 2185.09 0 -502213 4.68623e+06 0 -413237 4.44645e+06 0 -352183 4.24129e+06 0 -306856 4.06001e+06 0 -272573 3.89893e+06 0 -245697 3.75347e+06 0 -224200 3.62078e+06 0 -206672 3.49855e+06 0 -192150 3.38502e+06 0 -179963 3.27882e+06 0 -169618 3.17885e+06 0 -160749 3.08421e+06 0 -153081 2.99419e+06 0 -146400 2.90819e+06 0 -140540 2.82571e+06 0 -135368 2.74635e+06 0 -130777 2.66974e+06 0 -126679 2.59559e+06 0 -123004 2.52365e+06 0 -119691 2.45369e+06 0 -116691 2.38553e+06 0 -113962 2.319e+06 0 -111466 2.25395e+06 0 -109173 2.19027e+06 0 -107057 2.12785e+06 0 -105093 2.0666e+06 0 -103260 2.00643e+06 0 -101540 1.94727e+06 0 -99917.5 1.88907e+06 0 -98376.7 1.83178e+06 0 -96904.5 1.77535e+06 0 -95488.8 1.71975e+06 0 -94118.5 1.66495e+06 0 -92783.3 1.61092e+06 0 -91474 1.55765e+06 0 -90181.7 1.50513e+06 0 -88898.4 1.45334e+06 0 -87616.5 1.4023e+06 0 -86329 1.35199e+06 0 -85029.5 1.30243e+06 0 -83712 1.25361e+06 0 -82371 1.20557e+06 0 -81001.5 1.15831e+06 0 -79598.9 1.11184e+06 0 -78159.3 1.06619e+06 0 -76679.4 1.02139e+06 0 -75156.2 977452 0 -73587.6 934408 0 -71972.1 892284 0 -70308.7 851108 0 -68597.5 810908 0 -66838.9 771712 0 -65034.4 733547 0 -63186 696441 0 -61296.6 660418 0 -59369.7 625501 0 -57409.8 591711 0 -55421.6 559066 0 -53410.6 527582 0 -51382.8 497270 0 -49344.6 468138 0 -47302.6 440190 0 -45263.7 413427 0 -43234.8 387845 0 -41222.7 363436 0 -39234.2 340188 0 -37275.8 318085 0 -35353.6 297109 0 -33473.3 277236 0 -31640.1 258440 0 -29858.5 240691 0 -28132.7 223960 0 -26466 208212 0 -24861.2 193411 0 -23320.5 179521 0 -21845.3 166503 0 -20436.8 154320 0 -19095.2 142932 0 -17820.6 132301 0 -16612.2 122387 0 -15469.3 113152 0 -14390.5 104558 0 -13374.1 96569.7 0 -12418.5 89149.8 0 -11521.3 82264.2 0 -10680.6 75879.7 0 -9893.87 69964.2 0 -9158.75 64487.1 0 -8472.76 59419.3 0 -7833.43 54733.1 0 -7238.26 50402.3 0 -6684.8 46402 0 -6170.66 42708.9 0 -5693.47 39300.9 0 -5250.97 36157.5 0 -4840.97 33259.1 0 -4461.36 30587.7 0 -4110.12 28126.4 0 -3785.34 25859.4 0 -3485.2 23771.9 0 -3207.98 21850.3 0 -2952.06 20081.8 0 -2715.89 18454.7 0 -2498.05 16958 0 -2297.19 15581.5 0 -2112.03 14315.9 0 -1941.4 13152.4 0 -1784.19 12083 0 -1639.37 11100.3 0 -1505.98 10197.5 0 -1383.12 9368.27 0 -1269.95 8606.76 0 -1165.67 7907.64 0 -1069.56 7266.02 0 -980.907 6677.39 0 -899.036 6137.66 0 -823.283 5643.1 0 -752.982 5190.34 0 -687.405 4776.41 0 -625.737 4398.69 0 -566.895 4055.04 0 -509.304 3743.7 0 -450.58 3463.83 0 -385.06 3214.16 0 -304.517 2993.12 0 -183.614 2788.37 0 3.74481 2521.68 0 140.312 2134.56 0 -500962 4.48602e+06 0 -424596 4.27867e+06 0 -369217 4.0971e+06 0 -326911 3.93431e+06 0 -294016 3.78751e+06 0 -267707 3.65345e+06 0 -246314 3.53001e+06 0 -228626 3.4154e+06 0 -213806 3.30823e+06 0 -201246 3.20741e+06 0 -190495 3.11203e+06 0 -181211 3.02136e+06 0 -173133 2.93479e+06 0 -166055 2.85182e+06 0 -159814 2.77203e+06 0 -154280 2.69505e+06 0 -149345 2.62057e+06 0 -144924 2.54835e+06 0 -140943 2.47814e+06 0 -137342 2.40976e+06 0 -134069 2.34305e+06 0 -131080 2.27784e+06 0 -128338 2.21403e+06 0 -125809 2.15149e+06 0 -123467 2.09013e+06 0 -121285 2.02987e+06 0 -119242 1.97064e+06 0 -117317 1.91237e+06 0 -115494 1.85502e+06 0 -113756 1.79853e+06 0 -112088 1.74287e+06 0 -110479 1.68801e+06 0 -108914 1.63392e+06 0 -107384 1.58059e+06 0 -105878 1.528e+06 0 -104386 1.47614e+06 0 -102900 1.42501e+06 0 -101411 1.37461e+06 0 -99910.5 1.32494e+06 0 -98392.7 1.27601e+06 0 -96850.6 1.22783e+06 0 -95278 1.18042e+06 0 -93669.5 1.13378e+06 0 -92020.4 1.08795e+06 0 -90326.3 1.04293e+06 0 -88583.7 998766 0 -86789.6 955468 0 -84942 913068 0 -83039.4 871592 0 -81081.2 831068 0 -79067.8 791524 0 -77000.1 752989 0 -74880.2 715488 0 -72711 679048 0 -70496 643692 0 -68239.8 609443 0 -65947.7 576320 0 -63625.6 544340 0 -61280.1 513516 0 -58918.3 483859 0 -56547.7 455375 0 -54176.1 428067 0 -51811.4 401933 0 -49461.5 376968 0 -47134.5 353162 0 -44837.9 330502 0 -42579 308971 0 -40364.7 288548 0 -38201.4 269210 0 -36094.7 250929 0 -34049.8 233675 0 -32070.9 217416 0 -30161.8 202119 0 -28325.4 187748 0 -26563.8 174265 0 -24878.7 161634 0 -23270.8 149815 0 -21740.4 138770 0 -20287.2 128460 0 -18910.4 118848 0 -17608.8 109895 0 -16380.7 101565 0 -15224.3 93821.3 0 -14137.1 86629.2 0 -13116.9 79955 0 -12161 73766.2 0 -11266.7 68031.7 0 -10431.2 62721.7 0 -9651.55 57808 0 -8924.98 53263.7 0 -8248.6 49063.3 0 -7619.62 45182.8 0 -7035.28 41599.6 0 -6492.9 38292.3 0 -5989.89 35241 0 -5523.75 32426.9 0 -5092.09 29832.6 0 -4692.63 27441.6 0 -4323.18 25238.7 0 -3981.68 23209.7 0 -3666.18 21341.3 0 -3374.84 19621.3 0 -3105.92 18038.3 0 -2857.8 16581.6 0 -2628.93 15241.6 0 -2417.9 14009 0 -2223.36 12875.5 0 -2044.07 11833.3 0 -1878.84 10875.3 0 -1726.6 9994.79 0 -1586.32 9185.76 0 -1457.04 8442.54 0 -1337.89 7759.98 0 -1228.01 7133.31 0 -1126.6 6558.2 0 -1032.9 6030.67 0 -946.157 5547.1 0 -865.591 5104.23 0 -790.381 4699.15 0 -719.583 4329.3 0 -651.95 3992.51 0 -585.768 3686.94 0 -518.167 3411.22 0 -443.765 3163.09 0 -353.992 2938.65 0 -228.926 2717.61 0 -70.3077 2441.16 0 26.238 2092.04 0 -501002 4.31226e+06 0 -434068 4.12964e+06 0 -383666 3.9668e+06 0 -344239 3.819e+06 0 -312870 3.68409e+06 0 -287361 3.55972e+06 0 -266317 3.44426e+06 0 -248706 3.33631e+06 0 -233802 3.23478e+06 0 -221060 3.13877e+06 0 -210069 3.04754e+06 0 -200516 2.96048e+06 0 -192154 2.87708e+06 0 -184787 2.7969e+06 0 -178261 2.71958e+06 0 -172448 2.64482e+06 0 -167244 2.57234e+06 0 -162562 2.50192e+06 0 -158330 2.43336e+06 0 -154489 2.36648e+06 0 -150984 2.30113e+06 0 -147773 2.2372e+06 0 -144816 2.17456e+06 0 -142081 2.11311e+06 0 -139536 2.05278e+06 0 -137158 1.99348e+06 0 -134922 1.93516e+06 0 -132808 1.87775e+06 0 -130797 1.82121e+06 0 -128873 1.76551e+06 0 -127020 1.7106e+06 0 -125223 1.65647e+06 0 -123470 1.60309e+06 0 -121749 1.55044e+06 0 -120049 1.49852e+06 0 -118359 1.44732e+06 0 -116670 1.39684e+06 0 -114972 1.34708e+06 0 -113258 1.29804e+06 0 -111519 1.24974e+06 0 -109749 1.20219e+06 0 -107941 1.1554e+06 0 -106090 1.10939e+06 0 -104189 1.06419e+06 0 -102236 1.01981e+06 0 -100225 976275 0 -98154.9 933617 0 -96023 891860 0 -93828.2 851032 0 -91570.3 811161 0 -89250.2 772274 0 -86869.4 734398 0 -84430.8 697561 0 -81937.9 661786 0 -79395.3 627097 0 -76808.6 593514 0 -74184 561057 0 -71528.7 529740 0 -68850.2 499575 0 -66156.9 470571 0 -63457.4 442732 0 -60760.5 416060 0 -58075.4 390552 0 -55410.9 366200 0 -52775.9 342993 0 -50178.9 320917 0 -47627.9 299953 0 -45130.5 280079 0 -42693.6 261270 0 -40323.2 243499 0 -38025 226734 0 -35803.3 210944 0 -33662.1 196093 0 -31604.4 182147 0 -29632.2 169067 0 -27747.1 156816 0 -25949.8 145357 0 -24240.2 134650 0 -22617.9 124658 0 -21081.8 115344 0 -19630.2 106669 0 -18261.2 98599 0 -16972.5 91097.2 0 -15761.5 84130 0 -14625.3 77664.4 0 -13561 71668.9 0 -12565.4 66113.1 0 -11635.3 60968.2 0 -10767.6 56206.7 0 -9958.94 51802.6 0 -9206.16 47731.1 0 -8506.11 43969.1 0 -7855.7 40494.6 0 -7251.94 37287 0 -6691.95 34326.9 0 -6172.92 31596.4 0 -5692.21 29078.4 0 -5247.27 26757.1 0 -4835.67 24617.9 0 -4455.13 22646.9 0 -4103.48 20831.4 0 -3778.66 19159.6 0 -3478.76 17620.4 0 -3201.97 16203.7 0 -2946.59 14899.8 0 -2711.03 13700.2 0 -2493.81 12596.6 0 -2293.54 11581.6 0 -2108.92 10648.2 0 -1938.74 9790.01 0 -1781.87 9001.2 0 -1637.26 8276.3 0 -1503.9 7610.32 0 -1380.87 6998.65 0 -1267.27 6437.1 0 -1162.25 5921.8 0 -1064.97 5449.26 0 -974.549 5016.31 0 -890.082 4620.09 0 -810.5 4258.08 0 -734.435 3928.07 0 -660.011 3628.1 0 -584.136 3356.21 0 -501.797 3109.31 0 -404.859 2880.95 0 -281.082 2648.62 0 -146.669 2371.95 0 -73.0183 2053.68 0 -501749 4.15869e+06 0 -442335 3.99549e+06 0 -396305 3.84784e+06 0 -359545 3.7124e+06 0 -329745 3.58752e+06 0 -305161 3.47145e+06 0 -284620 3.36293e+06 0 -267251 3.26085e+06 0 -252416 3.16434e+06 0 -239633 3.07265e+06 0 -228532 2.98518e+06 0 -218822 2.90141e+06 0 -210276 2.82091e+06 0 -202711 2.74332e+06 0 -195977 2.6683e+06 0 -189954 2.59561e+06 0 -184540 2.525e+06 0 -179651 2.45628e+06 0 -175216 2.38926e+06 0 -171174 2.3238e+06 0 -167475 2.25977e+06 0 -164073 2.19704e+06 0 -160929 2.13553e+06 0 -158010 2.07513e+06 0 -155286 2.01578e+06 0 -152729 1.95741e+06 0 -150316 1.89997e+06 0 -148025 1.8434e+06 0 -145838 1.78766e+06 0 -143737 1.73272e+06 0 -141704 1.67855e+06 0 -139726 1.62513e+06 0 -137789 1.57244e+06 0 -135880 1.52047e+06 0 -133987 1.46921e+06 0 -132100 1.41866e+06 0 -130207 1.36882e+06 0 -128300 1.3197e+06 0 -126369 1.27129e+06 0 -124406 1.22362e+06 0 -122405 1.17669e+06 0 -120357 1.13052e+06 0 -118257 1.08514e+06 0 -116101 1.04056e+06 0 -113882 996815 0 -111599 953917 0 -109247 911898 0 -106825 870785 0 -104333 830605 0 -101771 791386 0 -99139.9 753155 0 -96442.3 715940 0 -93681.8 679766 0 -90862.9 644656 0 -87991.2 610633 0 -85073.2 577716 0 -82116.4 545923 0 -79128.9 515267 0 -76119.6 485759 0 -73097.8 457406 0 -70073.4 430210 0 -67056.3 404171 0 -64056.6 379285 0 -61084.1 355542 0 -58148.6 332931 0 -55259.3 311434 0 -52425 291032 0 -49653.7 271703 0 -46952.8 253419 0 -44328.8 236153 0 -41787.3 219872 0 -39333.2 204545 0 -36970.3 190135 0 -34701.5 176608 0 -32529 163926 0 -30454 152052 0 -28477.1 140947 0 -26598 130575 0 -24815.8 120897 0 -23129.2 111876 0 -21536.2 103476 0 -20034.5 95662.1 0 -18621.3 88399 0 -17293.8 81653.6 0 -16048.6 75393.9 0 -14882.4 69589 0 -13791.6 64209.6 0 -12772.8 59227.7 0 -11822.4 54616.5 0 -10936.6 50350.8 0 -10112.1 46406.7 0 -9345.34 42761.8 0 -8632.88 39394.7 0 -7971.47 36285.7 0 -7357.92 33416 0 -6789.18 30768.1 0 -6262.33 28325.7 0 -5774.59 26073.6 0 -5323.31 23997.4 0 -4905.98 22084 0 -4520.24 20321.1 0 -4163.84 18697.1 0 -3834.69 17201.5 0 -3530.82 15824.4 0 -3250.36 14556.7 0 -2991.59 13389.8 0 -2752.88 12316.1 0 -2532.72 11328.1 0 -2329.7 10419.3 0 -2142.49 9583.41 0 -1969.85 8814.82 0 -1810.64 8108.24 0 -1663.76 7458.85 0 -1528.19 6862.2 0 -1402.95 6314.22 0 -1287.1 5811.18 0 -1179.73 5349.69 0 -1079.87 4926.66 0 -986.53 4539.3 0 -898.528 4185.1 0 -814.4 3861.8 0 -732.143 3567.25 0 -648.657 3298.99 0 -559.357 3053.12 0 -457.463 2821.32 0 -337.869 2582.44 0 -222.248 2310.81 0 -161.367 2017.63 0 -503063 4.02104e+06 0 -449844 3.87342e+06 0 -407644 3.73829e+06 0 -373338 3.61318e+06 0 -345087 3.49685e+06 0 -321485 3.38797e+06 0 -301546 3.28552e+06 0 -284527 3.18865e+06 0 -269873 3.09662e+06 0 -257155 3.00883e+06 0 -246040 2.92478e+06 0 -236264 2.84402e+06 0 -227615 2.7662e+06 0 -219922 2.69098e+06 0 -213045 2.61812e+06 0 -206868 2.54735e+06 0 -201295 2.4785e+06 0 -196243 2.41137e+06 0 -191644 2.34582e+06 0 -187438 2.28171e+06 0 -183574 2.21892e+06 0 -180009 2.15735e+06 0 -176702 2.09691e+06 0 -173620 2.03753e+06 0 -170732 1.97913e+06 0 -168012 1.92166e+06 0 -165435 1.86506e+06 0 -162979 1.80931e+06 0 -160625 1.75434e+06 0 -158353 1.70015e+06 0 -156147 1.64671e+06 0 -153992 1.59399e+06 0 -151874 1.54198e+06 0 -149778 1.49068e+06 0 -147694 1.44007e+06 0 -145608 1.39016e+06 0 -143510 1.34096e+06 0 -141391 1.29246e+06 0 -139240 1.24468e+06 0 -137050 1.19763e+06 0 -134812 1.15132e+06 0 -132520 1.10578e+06 0 -130168 1.06102e+06 0 -127750 1.01707e+06 0 -125261 973954 0 -122699 931691 0 -120060 890311 0 -117344 849842 0 -114549 810310 0 -111678 771743 0 -108732 734170 0 -105714 697615 0 -102629 662103 0 -99482.3 627658 0 -96280.3 594300 0 -93030.9 562049 0 -89742.5 530919 0 -86424.5 500923 0 -83087 472070 0 -79740.5 444365 0 -76395.8 417810 0 -73064 392401 0 -69756 368134 0 -66482.7 344997 0 -63254.6 322977 0 -60081.5 302055 0 -56972.8 282211 0 -53937.1 263421 0 -50982.1 245658 0 -48114.5 228891 0 -45340.2 213090 0 -42664 198220 0 -40089.7 184247 0 -37620.3 171135 0 -35257.6 158846 0 -33002.8 147343 0 -30856 136589 0 -28816.8 126546 0 -26883.9 117177 0 -25055.6 108446 0 -23329.6 100317 0 -21703.1 92755.8 0 -20173.1 85728 0 -18736.2 79201.3 0 -17388.8 73144.6 0 -16127.1 67527.8 0 -14947.2 62322.4 0 -13845.3 57501.2 0 -12817.3 53038.3 0 -11859.4 48909.3 0 -10967.7 45091 0 -10138.4 41561.7 0 -9367.82 38300.9 0 -8652.36 35289.3 0 -7988.59 32508.9 0 -7373.22 29942.8 0 -6803.07 27575.3 0 -6275.14 25391.6 0 -5786.57 23378 0 -5334.66 21521.7 0 -4916.84 19810.8 0 -4530.71 18234.4 0 -4174 16782 0 -3844.58 15444.3 0 -3540.45 14212.5 0 -3259.75 13078.3 0 -3000.73 12034.2 0 -2761.76 11073.2 0 -2541.3 10188.8 0 -2337.94 9375.23 0 -2150.34 8626.81 0 -1977.25 7938.53 0 -1817.51 7305.73 0 -1669.99 6724.1 0 -1533.66 6189.7 0 -1407.49 5698.94 0 -1290.47 5248.51 0 -1181.59 4835.4 0 -1079.76 4456.88 0 -983.706 4110.45 0 -891.902 3793.78 0 -802.274 3504.53 0 -711.857 3239.77 0 -616.616 2994.94 0 -511.681 2760.76 0 -397.344 2519.28 0 -295.578 2255.41 0 -241.44 1982.92 0 -504911 3.89619e+06 0 -456879 3.76132e+06 0 -418042 3.63663e+06 0 -385983 3.52028e+06 0 -359228 3.41131e+06 0 -336626 3.3087e+06 0 -317345 3.21162e+06 0 -300750 3.11937e+06 0 -286356 3.03137e+06 0 -273782 2.94712e+06 0 -262728 2.86618e+06 0 -252955 2.78818e+06 0 -244266 2.71282e+06 0 -236504 2.63982e+06 0 -229536 2.56895e+06 0 -223253 2.5e+06 0 -217562 2.43279e+06 0 -212385 2.36717e+06 0 -207655 2.303e+06 0 -203314 2.24017e+06 0 -199312 2.17857e+06 0 -195605 2.11811e+06 0 -192155 2.0587e+06 0 -188927 2.00029e+06 0 -185892 1.94281e+06 0 -183021 1.88621e+06 0 -180291 1.83044e+06 0 -177679 1.77547e+06 0 -175164 1.72127e+06 0 -172728 1.66781e+06 0 -170353 1.61507e+06 0 -168024 1.56303e+06 0 -165726 1.5117e+06 0 -163445 1.46105e+06 0 -161167 1.41109e+06 0 -158882 1.36182e+06 0 -156577 1.31324e+06 0 -154242 1.26537e+06 0 -151868 1.21821e+06 0 -149447 1.17178e+06 0 -146968 1.12609e+06 0 -144427 1.08117e+06 0 -141816 1.03704e+06 0 -139131 993715 0 -136366 951226 0 -133520 909597 0 -130589 868856 0 -127572 829030 0 -124471 790147 0 -121287 752234 0 -118022 715317 0 -114681 679422 0 -111269 644573 0 -107793 610793 0 -104260 578101 0 -100679 546514 0 -97060.4 516046 0 -93414.2 486709 0 -89751.7 458509 0 -86084.6 431450 0 -82424.8 405533 0 -78784.2 380752 0 -75174.8 357100 0 -71608.3 334566 0 -68095.7 313133 0 -64647.7 292782 0 -61274.1 273492 0 -57983.8 255237 0 -54784.7 237988 0 -51683.8 221717 0 -48687.1 206390 0 -45799.2 191973 0 -43024.1 178431 0 -40364.3 165728 0 -37821.6 153827 0 -35396.8 142691 0 -33089.8 132282 0 -30899.7 122564 0 -28825.1 113501 0 -26863.8 105056 0 -25013 97193.8 0 -23269.6 89881.4 0 -21630.2 83085.6 0 -20091 76774.5 0 -18647.9 70917.9 0 -17297 65486.5 0 -16033.8 60452.7 0 -14854.2 5579