<?xml version="1.0"?> 
<VTKFile type="StructuredGrid" version="0.1"> 
<StructuredGrid WholeExtent="0 127 0 127 0 0"> 
<Piece Extent="0 127 0 127 0 0"> 
<PointData>
<DataArray type="Float32" Name="|E|" format="ascii" NumberOfComponents="3"> 
-1.84097e+06 0 0 -1.841e+06 6202.31 0 -1.84108e+06 12405 0 -1.84122e+06 18608.6 0 -1.84141e+06 24813.4 0 -1.84165e+06 31019.8 0 -1.84195e+06 37228.3 0 -1.84231e+06 43439.3 0 -1.84272e+06 49653.3 0 -1.84318e+06 55870.5 0 -1.8437e+06 62091.5 0 -1.84427e+06 68316.6 0 -1.8449e+06 74546.3 0 -1.84558e+06 80781 0 -1.84631e+06 87021.2 0 -1.84711e+06 93267.2 0 -1.84795e+06 99519.4 0 -1.84885e+06 105778 0 -1.8498e+06 112044 0 -1.85081e+06 118318 0 -1.85187e+06 124600 0 -1.85299e+06 130890 0 -1.85416e+06 137189 0 -1.85539e+06 143497 0 -1.85667e+06 149815 0 -1.858e+06 156143 0 -1.85939e+06 162482 0 -1.86084e+06 168832 0 -1.86233e+06 175193 0 -1.86389e+06 181567 0 -1.86549e+06 187953 0 -1.86715e+06 194352 0 -1.86887e+06 200764 0 -1.87064e+06 207190 0 -1.87246e+06 213630 0 -1.87434e+06 220086 0 -1.87627e+06 226556 0 -1.87826e+06 233043 0 -1.8803e+06 239545 0 -1.88239e+06 246065 0 -1.88454e+06 252601 0 -1.88674e+06 259156 0 -1.889e+06 265728 0 -1.89131e+06 272320 0 -1.89367e+06 278931 0 -1.89609e+06 285562 0 -1.89856e+06 292213 0 -1.90109e+06 298885 0 -1.90367e+06 305578 0 -1.9063e+06 312294 0 -1.90898e+06 319032 0 -1.91172e+06 325793 0 -1.91452e+06 332579 0 -1.91736e+06 339388 0 -1.92026e+06 346222 0 -1.92322e+06 353082 0 -1.92622e+06 359968 0 -1.92928e+06 366881 0 -1.93239e+06 373821 0 -1.93556e+06 380789 0 -1.93877e+06 387785 0 -1.94204e+06 394811 0 -1.94537e+06 401867 0 -1.94874e+06 408954 0 -1.95217e+06 416071 0 -1.95565e+06 423221 0 -1.95918e+06 430404 0 -1.96276e+06 437620 0 -1.96639e+06 444870 0 -1.97008e+06 452154 0 -1.97381e+06 459475 0 -1.9776e+06 466832 0 -1.98144e+06 474226 0 -1.98532e+06 481658 0 -1.98926e+06 489129 0 -1.99325e+06 496639 0 -1.99729e+06 504190 0 -2.00137e+06 511783 0 -2.00551e+06 519417 0 -2.00969e+06 527095 0 -2.01393e+06 534816 0 -2.01821e+06 542583 0 -2.02254e+06 550395 0 -2.02692e+06 558254 0 -2.03134e+06 566161 0 -2.03581e+06 574117 0 -2.04033e+06 582122 0 -2.04489e+06 590179 0 -2.0495e+06 598287 0 -2.05415e+06 606449 0 -2.05884e+06 614665 0 -2.06358e+06 622936 0 -2.06837e+06 631264 0 -2.07319e+06 639649 0 -2.07806e+06 648093 0 -2.08297e+06 656598 0 -2.08791e+06 665164 0 -2.0929e+06 673792 0 -2.09793e+06 682485 0 -2.10299e+06 691244 0 -2.10809e+06 700069 0 -2.11323e+06 708963 0 -2.1184e+06 717926 0 -2.1236e+06 726961 0 -2.12884e+06 736069 0 -2.13411e+06 745252 0 -2.13941e+06 754510 0 -2.14474e+06 763847 0 -2.15009e+06 773263 0 -2.15547e+06 782760 0 -2.16088e+06 792341 0 -2.16631e+06 802006 0 -2.17176e+06 811758 0 -2.17722e+06 821599 0 -2.18271e+06 831531 0 -2.18821e+06 841556 0 -2.19373e+06 851675 0 -2.19925e+06 861892 0 -2.20479e+06 872207 0 -2.21032e+06 882624 0 -2.21587e+06 893145 0 -2.22141e+06 903771 0 -2.22695e+06 914506 0 -2.23248e+06 925351 0 -2.23801e+06 936309 0 -2.24352e+06 947384 0 -2.24902e+06 958576 0 -2.25449e+06 969889 0 -1.83973e+06 0 0 -1.83976e+06 6213.2 0 -1.83984e+06 12426.8 0 -1.83997e+06 18641.3 0 -1.84017e+06 24856.9 0 -1.84041e+06 31074.3 0 -1.84071e+06 37293.7 0 -1.84106e+06 43515.6 0 -1.84147e+06 49740.4 0 -1.84194e+06 55968.5 0 -1.84245e+06 62200.4 0 -1.84302e+06 68436.4 0 -1.84365e+06 74677 0 -1.84433e+06 80922.6 0 -1.84507e+06 87173.7 0 -1.84585e+06 93430.5 0 -1.8467e+06 99693.7 0 -1.8476e+06 105964 0 -1.84855e+06 112241 0 -1.84955e+06 118525 0 -1.85062e+06 124818 0 -1.85173e+06 131119 0 -1.8529e+06 137428 0 -1.85412e+06 143747 0 -1.8554e+06 150076 0 -1.85674e+06 156415 0 -1.85812e+06 162765 0 -1.85956e+06 169126 0 -1.86106e+06 175498 0 -1.86261e+06 181882 0 -1.86421e+06 188279 0 -1.86587e+06 194689 0 -1.86758e+06 201112 0 -1.86935e+06 207549 0 -1.87117e+06 214000 0 -1.87304e+06 220466 0 -1.87497e+06 226948 0 -1.87696e+06 233445 0 -1.87899e+06 239958 0 -1.88108e+06 246488 0 -1.88323e+06 253036 0 -1.88543e+06 259601 0 -1.88768e+06 266185 0 -1.88999e+06 272787 0 -1.89235e+06 279409 0 -1.89476e+06 286050 0 -1.89723e+06 292712 0 -1.89975e+06 299395 0 -1.90232e+06 306099 0 -1.90495e+06 312825 0 -1.90763e+06 319574 0 -1.91037e+06 326346 0 -1.91316e+06 333142 0 -1.916e+06 339962 0 -1.91889e+06 346807 0 -1.92184e+06 353677 0 -1.92484e+06 360574 0 -1.92789e+06 367497 0 -1.931e+06 374448 0 -1.93416e+06 381426 0 -1.93737e+06 388433 0 -1.94063e+06 395470 0 -1.94395e+06 402536 0 -1.94732e+06 409633 0 -1.95074e+06 416761 0 -1.95421e+06 423921 0 -1.95773e+06 431114 0 -1.96131e+06 438340 0 -1.96494e+06 445601 0 -1.96861e+06 452896 0 -1.97234e+06 460226 0 -1.97612e+06 467594 0 -1.97995e+06 474998 0 -1.98383e+06 482440 0 -1.98776e+06 489921 0 -1.99174e+06 497441 0 -1.99577e+06 505002 0 -1.99985e+06 512604 0 -2.00398e+06 520248 0 -2.00815e+06 527936 0 -2.01238e+06 535667 0 -2.01665e+06 543443 0 -2.02097e+06 551265 0 -2.02534e+06 559133 0 -2.02975e+06 567050 0 -2.03421e+06 575015 0 -2.03872e+06 583029 0 -2.04327e+06 591095 0 -2.04787e+06 599212 0 -2.05251e+06 607383 0 -2.0572e+06 615607 0 -2.06192e+06 623887 0 -2.0667e+06 632223 0 -2.07151e+06 640617 0 -2.07636e+06 649069 0 -2.08126e+06 657582 0 -2.08619e+06 666156 0 -2.09117e+06 674792 0 -2.09618e+06 683493 0 -2.10123e+06 692259 0 -2.10632e+06 701091 0 -2.11144e+06 709992 0 -2.1166e+06 718962 0 -2.12179e+06 728004 0 -2.12701e+06 737118 0 -2.13226e+06 746307 0 -2.13755e+06 755572 0 -2.14286e+06 764914 0 -2.1482e+06 774335 0 -2.15356e+06 783837 0 -2.15895e+06 793423 0 -2.16436e+06 803092 0 -2.1698e+06 812849 0 -2.17525e+06 822693 0 -2.18071e+06 832628 0 -2.1862e+06 842656 0 -2.19169e+06 852777 0 -2.1972e+06 862996 0 -2.20271e+06 873312 0 -2.20823e+06 883730 0 -2.21375e+06 894251 0 -2.21927e+06 904877 0 -2.22479e+06 915611 0 -2.2303e+06 926455 0 -2.23581e+06 937411 0 -2.2413e+06 948482 0 -2.24677e+06 959670 0 -2.25222e+06 970979 0 -1.83849e+06 0 0 -1.83851e+06 6224.08 0 -1.83859e+06 12448.6 0 -1.83873e+06 18673.9 0 -1.83892e+06 24900.4 0 -1.83917e+06 31128.7 0 -1.83946e+06 37359 0 -1.83982e+06 43591.7 0 -1.84023e+06 49827.4 0 -1.84069e+06 56066.4 0 -1.8412e+06 62309.2 0 -1.84178e+06 68556.1 0 -1.8424e+06 74807.5 0 -1.84308e+06 81064 0 -1.84381e+06 87325.9 0 -1.8446e+06 93593.7 0 -1.84544e+06 99867.7 0 -1.84634e+06 106148 0 -1.84729e+06 112436 0 -1.8483e+06 118732 0 -1.84936e+06 125035 0 -1.85047e+06 131347 0 -1.85164e+06 137667 0 -1.85286e+06 143997 0 -1.85414e+06 150337 0 -1.85547e+06 156687 0 -1.85685e+06 163048 0 -1.85829e+06 169419 0 -1.85978e+06 175802 0 -1.86133e+06 182198 0 -1.86293e+06 188605 0 -1.86459e+06 195026 0 -1.8663e+06 201460 0 -1.86806e+06 207907 0 -1.86988e+06 214369 0 -1.87175e+06 220846 0 -1.87367e+06 227338 0 -1.87565e+06 233846 0 -1.87769e+06 240371 0 -1.87978e+06 246912 0 -1.88192e+06 253470 0 -1.88411e+06 260046 0 -1.88636e+06 266640 0 -1.88866e+06 273253 0 -1.89102e+06 279886 0 -1.89343e+06 286538 0 -1.89589e+06 293210 0 -1.89841e+06 299904 0 -1.90098e+06 306619 0 -1.9036e+06 313356 0 -1.90628e+06 320115 0 -1.90901e+06 326898 0 -1.91179e+06 333704 0 -1.91463e+06 340535 0 -1.91752e+06 347391 0 -1.92046e+06 354272 0 -1.92346e+06 361179 0 -1.92651e+06 368113 0 -1.92961e+06 375074 0 -1.93276e+06 382063 0 -1.93597e+06 389080 0 -1.93922e+06 396127 0 -1.94253e+06 403204 0 -1.9459e+06 410311 0 -1.94931e+06 417450 0 -1.95277e+06 424620 0 -1.95629e+06 431823 0 -1.95986e+06 439060 0 -1.96348e+06 446330 0 -1.96715e+06 453636 0 -1.97087e+06 460977 0 -1.97464e+06 468354 0 -1.97847e+06 475768 0 -1.98234e+06 483220 0 -1.98626e+06 490711 0 -1.99023e+06 498241 0 -1.99425e+06 505812 0 -1.99832e+06 513424 0 -2.00244e+06 521078 0 -2.00661e+06 528775 0 -2.01083e+06 536516 0 -2.01509e+06 544301 0 -2.0194e+06 552133 0 -2.02376e+06 560010 0 -2.02816e+06 567936 0 -2.03261e+06 575910 0 -2.03711e+06 583934 0 -2.04165e+06 592009 0 -2.04624e+06 600135 0 -2.05087e+06 608314 0 -2.05554e+06 616548 0 -2.06026e+06 624836 0 -2.06502e+06 633180 0 -2.06982e+06 641583 0 -2.07467e+06 650043 0 -2.07955e+06 658564 0 -2.08447e+06 667146 0 -2.08943e+06 675790 0 -2.09443e+06 684498 0 -2.09947e+06 693271 0 -2.10454e+06 702111 0 -2.10965e+06 711019 0 -2.1148e+06 719996 0 -2.11997e+06 729044 0 -2.12518e+06 738165 0 -2.13042e+06 747359 0 -2.13569e+06 756630 0 -2.14098e+06 765977 0 -2.14631e+06 775404 0 -2.15165e+06 784911 0 -2.15703e+06 794501 0 -2.16242e+06 804175 0 -2.16784e+06 813935 0 -2.17327e+06 823783 0 -2.17872e+06 833721 0 -2.18418e+06 843752 0 -2.18966e+06 853876 0 -2.19514e+06 864096 0 -2.20064e+06 874414 0 -2.20614e+06 884832 0 -2.21164e+06 895353 0 -2.21714e+06 905979 0 -2.22264e+06 916712 0 -2.22812e+06 927554 0 -2.2336e+06 938508 0 -2.23907e+06 949576 0 -2.24452e+06 960760 0 -2.24994e+06 972064 0 -1.83724e+06 0 0 -1.83727e+06 6234.94 0 -1.83735e+06 12470.3 0 -1.83748e+06 18706.5 0 -1.83767e+06 24943.9 0 -1.83792e+06 31183 0 -1.83822e+06 37424.1 0 -1.83857e+06 43667.8 0 -1.83898e+06 49914.3 0 -1.83944e+06 56164.2 0 -1.83995e+06 62417.8 0 -1.84052e+06 68675.5 0 -1.84115e+06 74937.8 0 -1.84183e+06 81205.2 0 -1.84256e+06 87477.9 0 -1.84335e+06 93756.5 0 -1.84419e+06 100041 0 -1.84508e+06 106333 0 -1.84603e+06 112632 0 -1.84703e+06 118938 0 -1.84809e+06 125252 0 -1.8492e+06 131575 0 -1.85037e+06 137906 0 -1.85159e+06 144247 0 -1.85287e+06 150598 0 -1.85419e+06 156958 0 -1.85558e+06 163330 0 -1.85701e+06 169712 0 -1.8585e+06 176106 0 -1.86005e+06 182512 0 -1.86165e+06 188931 0 -1.8633e+06 195362 0 -1.86501e+06 201807 0 -1.86677e+06 208265 0 -1.86858e+06 214738 0 -1.87045e+06 221226 0 -1.87237e+06 227729 0 -1.87435e+06 234247 0 -1.87638e+06 240782 0 -1.87846e+06 247334 0 -1.8806e+06 253903 0 -1.88279e+06 260490 0 -1.88504e+06 267095 0 -1.88734e+06 273719 0 -1.88969e+06 280362 0 -1.8921e+06 287025 0 -1.89455e+06 293708 0 -1.89707e+06 300412 0 -1.89963e+06 307138 0 -1.90225e+06 313885 0 -1.90492e+06 320656 0 -1.90765e+06 327449 0 -1.91043e+06 334266 0 -1.91326e+06 341107 0 -1.91615e+06 347973 0 -1.91908e+06 354865 0 -1.92207e+06 361783 0 -1.92512e+06 368727 0 -1.92821e+06 375699 0 -1.93136e+06 382698 0 -1.93456e+06 389726 0 -1.93781e+06 396783 0 -1.94111e+06 403871 0 -1.94447e+06 410988 0 -1.94788e+06 418137 0 -1.95134e+06 425318 0 -1.95485e+06 432531 0 -1.95841e+06 439778 0 -1.96202e+06 447059 0 -1.96568e+06 454374 0 -1.9694e+06 461725 0 -1.97316e+06 469112 0 -1.97698e+06 476537 0 -1.98084e+06 483999 0 -1.98476e+06 491500 0 -1.98872e+06 499040 0 -1.99273e+06 506620 0 -1.9968e+06 514242 0 -2.00091e+06 521906 0 -2.00507e+06 529612 0 -2.00927e+06 537363 0 -2.01353e+06 545158 0 -2.01783e+06 552998 0 -2.02218e+06 560886 0 -2.02657e+06 568821 0 -2.03101e+06 576804 0 -2.0355e+06 584837 0 -2.04003e+06 592921 0 -2.04461e+06 601056 0 -2.04923e+06 609244 0 -2.05389e+06 617486 0 -2.0586e+06 625783 0 -2.06335e+06 634136 0 -2.06814e+06 642546 0 -2.07297e+06 651015 0 -2.07784e+06 659543 0 -2.08275e+06 668133 0 -2.0877e+06 676785 0 -2.09268e+06 685500 0 -2.09771e+06 694281 0 -2.10277e+06 703128 0 -2.10786e+06 712042 0 -2.11299e+06 721026 0 -2.11815e+06 730081 0 -2.12335e+06 739208 0 -2.12857e+06 748409 0 -2.13382e+06 757685 0 -2.1391e+06 767038 0 -2.14441e+06 776469 0 -2.14974e+06 785982 0 -2.1551e+06 795576 0 -2.16048e+06 805254 0 -2.16587e+06 815018 0 -2.17129e+06 824870 0 -2.17672e+06 834811 0 -2.18217e+06 844844 0 -2.18762e+06 854970 0 -2.19309e+06 865192 0 -2.19857e+06 875511 0 -2.20404e+06 885930 0 -2.20952e+06 896451 0 -2.215e+06 907077 0 -2.22048e+06 917808 0 -2.22595e+06 928649 0 -2.2314e+06 939600 0 -2.23684e+06 950665 0 -2.24227e+06 961845 0 -2.24767e+06 973144 0 -1.83599e+06 0 0 -1.83602e+06 6245.78 0 -1.8361e+06 12492 0 -1.83624e+06 18739 0 -1.83643e+06 24987.3 0 -1.83667e+06 31237.2 0 -1.83697e+06 37489.2 0 -1.83732e+06 43743.7 0 -1.83773e+06 50001 0 -1.83819e+06 56261.7 0 -1.8387e+06 62526.2 0 -1.83927e+06 68794.8 0 -1.83989e+06 75068 0 -1.84057e+06 81346.1 0 -1.8413e+06 87629.7 0 -1.84209e+06 93919.1 0 -1.84293e+06 100215 0 -1.84382e+06 106517 0 -1.84477e+06 112827 0 -1.84577e+06 119144 0 -1.84683e+06 125469 0 -1.84794e+06 131802 0 -1.8491e+06 138145 0 -1.85032e+06 144496 0 -1.85159e+06 150858 0 -1.85292e+06 157229 0 -1.8543e+06 163611 0 -1.85573e+06 170005 0 -1.85722e+06 176409 0 -1.85876e+06 182826 0 -1.86036e+06 189255 0 -1.86201e+06 195698 0 -1.86372e+06 202153 0 -1.86547e+06 208622 0 -1.86729e+06 215106 0 -1.86915e+06 221604 0 -1.87107e+06 228118 0 -1.87304e+06 234648 0 -1.87507e+06 241193 0 -1.87715e+06 247756 0 -1.87929e+06 254336 0 -1.88147e+06 260933 0 -1.88371e+06 267549 0 -1.88601e+06 274183 0 -1.88836e+06 280837 0 -1.89076e+06 287511 0 -1.89321e+06 294205 0 -1.89572e+06 300920 0 -1.89828e+06 307656 0 -1.9009e+06 314414 0 -1.90357e+06 321195 0 -1.90629e+06 327999 0 -1.90906e+06 334827 0 -1.91189e+06 341678 0 -1.91477e+06 348555 0 -1.9177e+06 355457 0 -1.92069e+06 362385 0 -1.92372e+06 369340 0 -1.92681e+06 376322 0 -1.92995e+06 383332 0 -1.93315e+06 390371 0 -1.93639e+06 397438 0 -1.93969e+06 404536 0 -1.94304e+06 411664 0 -1.94644e+06 418823 0 -1.9499e+06 426014 0 -1.9534e+06 433238 0 -1.95695e+06 440495 0 -1.96056e+06 447786 0 -1.96422e+06 455111 0 -1.96792e+06 462472 0 -1.97168e+06 469870 0 -1.97549e+06 477304 0 -1.97935e+06 484776 0 -1.98325e+06 492287 0 -1.98721e+06 499837 0 -1.99121e+06 507427 0 -1.99527e+06 515059 0 -1.99937e+06 522732 0 -2.00352e+06 530448 0 -2.00772e+06 538208 0 -2.01196e+06 546013 0 -2.01626e+06 553863 0 -2.02059e+06 561759 0 -2.02498e+06 569703 0 -2.02941e+06 577696 0 -2.03389e+06 585738 0 -2.03841e+06 593830 0 -2.04297e+06 601974 0 -2.04758e+06 610171 0 -2.05224e+06 618422 0 -2.05693e+06 626727 0 -2.06167e+06 635088 0 -2.06645e+06 643507 0 -2.07127e+06 651984 0 -2.07613e+06 660520 0 -2.08102e+06 669118 0 -2.08596e+06 677777 0 -2.09093e+06 686500 0 -2.09595e+06 695288 0 -2.10099e+06 704142 0 -2.10607e+06 713063 0 -2.11119e+06 722054 0 -2.11634e+06 731115 0 -2.12151e+06 740248 0 -2.12672e+06 749455 0 -2.13196e+06 758736 0 -2.13723e+06 768095 0 -2.14252e+06 777532 0 -2.14783e+06 787049 0 -2.15317e+06 796648 0 -2.15853e+06 806330 0 -2.16391e+06 816098 0 -2.16931e+06 825953 0 -2.17472e+06 835897 0 -2.18015e+06 845932 0 -2.18559e+06 856060 0 -2.19104e+06 866284 0 -2.19649e+06 876604 0 -2.20195e+06 887024 0 -2.20741e+06 897545 0 -2.21287e+06 908170 0 -2.21832e+06 918900 0 -2.22377e+06 929739 0 -2.2292e+06 940688 0 -2.23462e+06 951749 0 -2.24002e+06 962925 0 -2.2454e+06 974219 0 -1.83474e+06 0 0 -1.83477e+06 6256.61 0 -1.83485e+06 12513.6 0 -1.83499e+06 18771.5 0 -1.83517e+06 25030.6 0 -1.83542e+06 31291.3 0 -1.83572e+06 37554.1 0 -1.83607e+06 43819.4 0 -1.83647e+06 50087.7 0 -1.83693e+06 56359.2 0 -1.83745e+06 62634.4 0 -1.83802e+06 68913.9 0 -1.83864e+06 75197.9 0 -1.83931e+06 81486.8 0 -1.84004e+06 87781.3 0 -1.84083e+06 94081.5 0 -1.84167e+06 100388 0 -1.84256e+06 106701 0 -1.84351e+06 113022 0 -1.84451e+06 119349 0 -1.84556e+06 125685 0 -1.84667e+06 132030 0 -1.84783e+06 138383 0 -1.84905e+06 144745 0 -1.85032e+06 151117 0 -1.85164e+06 157500 0 -1.85302e+06 163893 0 -1.85445e+06 170297 0 -1.85594e+06 176712 0 -1.85748e+06 183140 0 -1.85907e+06 189580 0 -1.86072e+06 196033 0 -1.86242e+06 202499 0 -1.86418e+06 208979 0 -1.86599e+06 215473 0 -1.86785e+06 221983 0 -1.86977e+06 228507 0 -1.87174e+06 235047 0 -1.87376e+06 241604 0 -1.87584e+06 248177 0 -1.87797e+06 254767 0 -1.88015e+06 261376 0 -1.88239e+06 268002 0 -1.88468e+06 274647 0 -1.88702e+06 281312 0 -1.88942e+06 287996 0 -1.89187e+06 294701 0 -1.89438e+06 301426 0 -1.89693e+06 308173 0 -1.89954e+06 314942 0 -1.90221e+06 321733 0 -1.90492e+06 328548 0 -1.90769e+06 335386 0 -1.91052e+06 342248 0 -1.91339e+06 349136 0 -1.91632e+06 356048 0 -1.9193e+06 362987 0 -1.92233e+06 369952 0 -1.92541e+06 376945 0 -1.92855e+06 383965 0 -1.93174e+06 391014 0 -1.93498e+06 398092 0 -1.93827e+06 405200 0 -1.94161e+06 412338 0 -1.94501e+06 419508 0 -1.94845e+06 426709 0 -1.95195e+06 433943 0 -1.9555e+06 441210 0 -1.9591e+06 448511 0 -1.96275e+06 455847 0 -1.96645e+06 463218 0 -1.9702e+06 470625 0 -1.974e+06 478070 0 -1.97785e+06 485552 0 -1.98175e+06 493072 0 -1.98569e+06 500632 0 -1.98969e+06 508232 0 -1.99374e+06 515873 0 -1.99783e+06 523556 0 -2.00197e+06 531282 0 -2.00616e+06 539051 0 -2.0104e+06 546865 0 -2.01468e+06 554725 0 -2.01901e+06 562631 0 -2.02339e+06 570584 0 -2.02781e+06 578586 0 -2.03227e+06 586637 0 -2.03678e+06 594738 0 -2.04134e+06 602891 0 -2.04594e+06 611096 0 -2.05058e+06 619355 0 -2.05526e+06 627669 0 -2.05999e+06 636039 0 -2.06476e+06 644465 0 -2.06956e+06 652950 0 -2.07441e+06 661495 0 -2.0793e+06 670100 0 -2.08422e+06 678767 0 -2.08918e+06 687497 0 -2.09418e+06 696292 0 -2.09921e+06 705153 0 -2.10428e+06 714082 0 -2.10938e+06 723079 0 -2.11452e+06 732146 0 -2.11968e+06 741285 0 -2.12487e+06 750498 0 -2.1301e+06 759785 0 -2.13535e+06 769149 0 -2.14062e+06 778591 0 -2.14592e+06 788113 0 -2.15124e+06 797716 0 -2.15659e+06 807402 0 -2.16195e+06 817174 0 -2.16733e+06 827032 0 -2.17273e+06 836979 0 -2.17813e+06 847017 0 -2.18355e+06 857147 0 -2.18898e+06 867372 0 -2.19442e+06 877694 0 -2.19986e+06 888114 0 -2.20529e+06 898635 0 -2.21073e+06 909259 0 -2.21616e+06 919988 0 -2.22159e+06 930825 0 -2.227e+06 941771 0 -2.2324e+06 952829 0 -2.23778e+06 964001 0 -2.24313e+06 975290 0 -1.83349e+06 0 0 -1.83352e+06 6267.42 0 -1.8336e+06 12535.3 0 -1.83373e+06 18803.9 0 -1.83392e+06 25073.8 0 -1.83417e+06 31345.4 0 -1.83446e+06 37619 0 -1.83481e+06 43895.1 0 -1.83522e+06 50174.1 0 -1.83568e+06 56456.5 0 -1.83619e+06 62742.5 0 -1.83676e+06 69032.8 0 -1.83738e+06 75327.6 0 -1.83805e+06 81627.4 0 -1.83878e+06 87932.6 0 -1.83957e+06 94243.6 0 -1.8404e+06 100561 0 -1.8413e+06 106885 0 -1.84224e+06 113216 0 -1.84324e+06 119555 0 -1.84429e+06 125901 0 -1.8454e+06 132256 0 -1.84656e+06 138620 0 -1.84777e+06 144994 0 -1.84904e+06 151377 0 -1.85036e+06 157770 0 -1.85174e+06 164173 0 -1.85317e+06 170588 0 -1.85465e+06 177015 0 -1.85619e+06 183453 0 -1.85778e+06 189904 0 -1.85943e+06 196367 0 -1.86113e+06 202844 0 -1.86288e+06 209335 0 -1.86468e+06 215840 0 -1.86654e+06 222360 0 -1.86846e+06 228895 0 -1.87042e+06 235446 0 -1.87244e+06 242014 0 -1.87452e+06 248597 0 -1.87665e+06 255199 0 -1.87883e+06 261817 0 -1.88106e+06 268455 0 -1.88335e+06 275110 0 -1.88569e+06 281786 0 -1.88808e+06 288480 0 -1.89053e+06 295196 0 -1.89303e+06 301932 0 -1.89558e+06 308689 0 -1.89819e+06 315469 0 -1.90085e+06 322271 0 -1.90356e+06 329096 0 -1.90632e+06 335945 0 -1.90914e+06 342818 0 -1.91201e+06 349715 0 -1.91493e+06 356639 0 -1.9179e+06 363588 0 -1.92093e+06 370563 0 -1.92401e+06 377566 0 -1.92714e+06 384597 0 -1.93032e+06 391656 0 -1.93356e+06 398745 0 -1.93684e+06 405863 0 -1.94018e+06 413012 0 -1.94357e+06 420191 0 -1.94701e+06 427403 0 -1.9505e+06 434647 0 -1.95404e+06 441924 0 -1.95763e+06 449235 0 -1.96128e+06 456581 0 -1.96497e+06 463962 0 -1.96871e+06 471380 0 -1.9725e+06 478834 0 -1.97635e+06 486326 0 -1.98024e+06 493856 0 -1.98418e+06 501426 0 -1.98817e+06 509036 0 -1.9922e+06 516686 0 -1.99629e+06 524379 0 -2.00042e+06 532114 0 -2.0046e+06 539893 0 -2.00883e+06 547716 0 -2.0131e+06 555585 0 -2.01742e+06 563500 0 -2.02179e+06 571463 0 -2.0262e+06 579473 0 -2.03066e+06 587533 0 -2.03516e+06 595644 0 -2.0397e+06 603805 0 -2.04429e+06 612019 0 -2.04892e+06 620287 0 -2.05359e+06 628609 0 -2.05831e+06 636987 0 -2.06307e+06 645422 0 -2.06786e+06 653915 0 -2.0727e+06 662467 0 -2.07757e+06 671080 0 -2.08248e+06 679754 0 -2.08743e+06 688492 0 -2.09241e+06 697294 0 -2.09743e+06 706162 0 -2.10249e+06 715097 0 -2.10757e+06 724101 0 -2.11269e+06 733175 0 -2.11784e+06 742320 0 -2.12302e+06 751538 0 -2.12823e+06 760831 0 -2.13346e+06 770200 0 -2.13872e+06 779647 0 -2.14401e+06 789173 0 -2.14931e+06 798781 0 -2.15464e+06 808471 0 -2.15999e+06 818246 0 -2.16535e+06 828108 0 -2.17073e+06 838058 0 -2.17612e+06 848098 0 -2.18152e+06 858230 0 -2.18693e+06 868457 0 -2.19234e+06 878779 0 -2.19776e+06 889200 0 -2.20318e+06 899721 0 -2.2086e+06 910344 0 -2.21401e+06 921072 0 -2.21941e+06 931906 0 -2.2248e+06 942849 0 -2.23017e+06 953904 0 -2.23553e+06 965072 0 -2.24086e+06 976355 0 -1.83223e+06 0 0 -1.83226e+06 6278.21 0 -1.83234e+06 12556.8 0 -1.83248e+06 18836.3 0 -1.83267e+06 25117 0 -1.83291e+06 31399.3 0 -1.83321e+06 37683.8 0 -1.83356e+06 43970.7 0 -1.83396e+06 50260.5 0 -1.83442e+06 56553.6 0 -1.83493e+06 62850.5 0 -1.8355e+06 69151.5 0 -1.83612e+06 75457.1 0 -1.83679e+06 81767.7 0 -1.83752e+06 88083.6 0 -1.8383e+06 94405.5 0 -1.83914e+06 100734 0 -1.84003e+06 107068 0 -1.84097e+06 113410 0 -1.84197e+06 119760 0 -1.84302e+06 126117 0 -1.84413e+06 132483 0 -1.84528e+06 138858 0 -1.8465e+06 145242 0 -1.84776e+06 151635 0 -1.84908e+06 158039 0 -1.85046e+06 164454 0 -1.85189e+06 170879 0 -1.85337e+06 177316 0 -1.8549e+06 183765 0 -1.85649e+06 190227 0 -1.85813e+06 196701 0 -1.85983e+06 203189 0 -1.86158e+06 209691 0 -1.86338e+06 216207 0 -1.86524e+06 222737 0 -1.86715e+06 229283 0 -1.86911e+06 235845 0 -1.87113e+06 242423 0 -1.8732e+06 249017 0 -1.87532e+06 255629 0 -1.8775e+06 262259 0 -1.87973e+06 268906 0 -1.88201e+06 275573 0 -1.88435e+06 282259 0 -1.88674e+06 288964 0 -1.88918e+06 295690 0 -1.89168e+06 302437 0 -1.89423e+06 309205 0 -1.89683e+06 315995 0 -1.89948e+06 322807 0 -1.90219e+06 329643 0 -1.90495e+06 336502 0 -1.90776e+06 343386 0 -1.91063e+06 350294 0 -1.91354e+06 357228 0 -1.91651e+06 364187 0 -1.91953e+06 371173 0 -1.92261e+06 378187 0 -1.92573e+06 385228 0 -1.92891e+06 392298 0 -1.93214e+06 399396 0 -1.93542e+06 406525 0 -1.93875e+06 413684 0 -1.94213e+06 420874 0 -1.94556e+06 428095 0 -1.94905e+06 435350 0 -1.95258e+06 442637 0 -1.95617e+06 449958 0 -1.9598e+06 457314 0 -1.96349e+06 464705 0 -1.96722e+06 472132 0 -1.97101e+06 479597 0 -1.97484e+06 487098 0 -1.97873e+06 494638 0 -1.98266e+06 502218 0 -1.98664e+06 509837 0 -1.99067e+06 517498 0 -1.99474e+06 525200 0 -1.99887e+06 532945 0 -2.00304e+06 540733 0 -2.00726e+06 548566 0 -2.01152e+06 556444 0 -2.01583e+06 564368 0 -2.02019e+06 572340 0 -2.02459e+06 580359 0 -2.02904e+06 588428 0 -2.03353e+06 596547 0 -2.03806e+06 604717 0 -2.04264e+06 612940 0 -2.04726e+06 621216 0 -2.05192e+06 629547 0 -2.05663e+06 637933 0 -2.06137e+06 646376 0 -2.06616e+06 654877 0 -2.07098e+06 663437 0 -2.07584e+06 672057 0 -2.08074e+06 680739 0 -2.08567e+06 689484 0 -2.09065e+06 698293 0 -2.09565e+06 707168 0 -2.10069e+06 716110 0 -2.10577e+06 725120 0 -2.11087e+06 734200 0 -2.11601e+06 743351 0 -2.12117e+06 752575 0 -2.12636e+06 761874 0 -2.13158e+06 771248 0 -2.13683e+06 780700 0 -2.14209e+06 790231 0 -2.14738e+06 799843 0 -2.15269e+06 809537 0 -2.15802e+06 819316 0 -2.16337e+06 829180 0 -2.16873e+06 839133 0 -2.1741e+06 849175 0 -2.17948e+06 859309 0 -2.18487e+06 869537 0 -2.19027e+06 879861 0 -2.19567e+06 890282 0 -2.20107e+06 900802 0 -2.20646e+06 911425 0 -2.21185e+06 922151 0 -2.21723e+06 932983 0 -2.2226e+06 943924 0 -2.22795e+06 954975 0 -2.23329e+06 966138 0 -2.23859e+06 977417 0 -1.83098e+06 0 0 -1.831e+06 6288.99 0 -1.83109e+06 12578.4 0 -1.83122e+06 18868.6 0 -1.83141e+06 25160.1 0 -1.83165e+06 31453.2 0 -1.83195e+06 37748.4 0 -1.8323e+06 44046.1 0 -1.8327e+06 50346.7 0 -1.83316e+06 56650.6 0 -1.83367e+06 62958.2 0 -1.83424e+06 69270 0 -1.83486e+06 75586.4 0 -1.83553e+06 81907.7 0 -1.83626e+06 88234.5 0 -1.83704e+06 94567.1 0 -1.83787e+06 100906 0 -1.83876e+06 107252 0 -1.8397e+06 113604 0 -1.8407e+06 119964 0 -1.84175e+06 126333 0 -1.84285e+06 132709 0 -1.84401e+06 139095 0 -1.84522e+06 145489 0 -1.84648e+06 151894 0 -1.8478e+06 158308 0 -1.84917e+06 164734 0 -1.8506e+06 171170 0 -1.85208e+06 177618 0 -1.85361e+06 184078 0 -1.8552e+06 190550 0 -1.85684e+06 197035 0 -1.85853e+06 203533 0 -1.86028e+06 210046 0 -1.86208e+06 216572 0 -1.86393e+06 223114 0 -1.86584e+06 229670 0 -1.8678e+06 236242 0 -1.86981e+06 242831 0 -1.87188e+06 249436 0 -1.874e+06 256059 0 -1.87617e+06 262699 0 -1.8784e+06 269357 0 -1.88068e+06 276034 0 -1.88301e+06 282731 0 -1.8854e+06 289447 0 -1.88783e+06 296183 0 -1.89033e+06 302941 0 -1.89287e+06 309719 0 -1.89547e+06 316520 0 -1.89812e+06 323343 0 -1.90082e+06 330189 0 -1.90357e+06 337059 0 -1.90638e+06 343953 0 -1.90924e+06 350872 0 -1.91215e+06 357816 0 -1.91512e+06 364786 0 -1.91813e+06 371782 0 -1.9212e+06 378806 0 -1.92432e+06 385857 0 -1.92749e+06 392937 0 -1.93071e+06 400046 0 -1.93399e+06 407185 0 -1.93731e+06 414354 0 -1.94069e+06 421555 0 -1.94411e+06 428786 0 -1.94759e+06 436051 0 -1.95112e+06 443348 0 -1.9547e+06 450679 0 -1.95833e+06 458045 0 -1.962e+06 465446 0 -1.96573e+06 472884 0 -1.96951e+06 480358 0 -1.97334e+06 487869 0 -1.97721e+06 495419 0 -1.98114e+06 503008 0 -1.98511e+06 510638 0 -1.98913e+06 518308 0 -1.9932e+06 526019 0 -1.99731e+06 533774 0 -2.00148e+06 541571 0 -2.00569e+06 549413 0 -2.00994e+06 557300 0 -2.01424e+06 565234 0 -2.01859e+06 573214 0 -2.02298e+06 581243 0 -2.02742e+06 589321 0 -2.0319e+06 597449 0 -2.03642e+06 605628 0 -2.04099e+06 613859 0 -2.0456e+06 622143 0 -2.05025e+06 630482 0 -2.05494e+06 638876 0 -2.05968e+06 647327 0 -2.06445e+06 655836 0 -2.06926e+06 664404 0 -2.07411e+06 673032 0 -2.079e+06 681721 0 -2.08392e+06 690474 0 -2.08888e+06 699290 0 -2.09387e+06 708172 0 -2.0989e+06 717120 0 -2.10396e+06 726137 0 -2.10905e+06 735223 0 -2.11417e+06 744380 0 -2.11932e+06 753610 0 -2.1245e+06 762913 0 -2.1297e+06 772293 0 -2.13493e+06 781750 0 -2.14018e+06 791285 0 -2.14545e+06 800901 0 -2.15075e+06 810599 0 -2.15606e+06 820381 0 -2.16139e+06 830249 0 -2.16673e+06 840204 0 -2.17208e+06 850249 0 -2.17745e+06 860385 0 -2.18282e+06 870614 0 -2.18819e+06 880938 0 -2.19357e+06 891359 0 -2.19895e+06 901880 0 -2.20433e+06 912501 0 -2.2097e+06 923226 0 -2.21506e+06 934056 0 -2.2204e+06 944994 0 -2.22573e+06 956041 0 -2.23104e+06 967200 0 -2.23633e+06 978473 0 -1.82972e+06 0 0 -1.82975e+06 6299.75 0 -1.82983e+06 12599.9 0 -1.82996e+06 18900.9 0 -1.83015e+06 25203.1 0 -1.83039e+06 31507 0 -1.83069e+06 37813 0 -1.83104e+06 44121.4 0 -1.83144e+06 50432.8 0 -1.8319e+06 56747.4 0 -1.83241e+06 63065.8 0 -1.83297e+06 69388.4 0 -1.83359e+06 75715.5 0 -1.83426e+06 82047.6 0 -1.83499e+06 88385.1 0 -1.83577e+06 94728.5 0 -1.8366e+06 101078 0 -1.83749e+06 107434 0 -1.83843e+06 113798 0 -1.83942e+06 120169 0 -1.84047e+06 126548 0 -1.84157e+06 132935 0 -1.84273e+06 139331 0 -1.84394e+06 145737 0 -1.8452e+06 152152 0 -1.84652e+06 158577 0 -1.84789e+06 165013 0 -1.84931e+06 171460 0 -1.85079e+06 177919 0 -1.85232e+06 184389 0 -1.8539e+06 190872 0 -1.85554e+06 197368 0 -1.85723e+06 203877 0 -1.85897e+06 210400 0 -1.86077e+06 216937 0 -1.86262e+06 223489 0 -1.86452e+06 230057 0 -1.86648e+06 236640 0 -1.86849e+06 243239 0 -1.87055e+06 249855 0 -1.87267e+06 256488 0 -1.87484e+06 263139 0 -1.87706e+06 269808 0 -1.87934e+06 276495 0 -1.88167e+06 283202 0 -1.88405e+06 289929 0 -1.88648e+06 296676 0 -1.88897e+06 303444 0 -1.89151e+06 310233 0 -1.8941e+06 317044 0 -1.89675e+06 323878 0 -1.89945e+06 330734 0 -1.9022e+06 337615 0 -1.905e+06 344519 0 -1.90785e+06 351448 0 -1.91076e+06 358403 0 -1.91372e+06 365383 0 -1.91673e+06 372390 0 -1.91979e+06 379424 0 -1.9229e+06 386486 0 -1.92607e+06 393576 0 -1.92929e+06 400696 0 -1.93255e+06 407844 0 -1.93587e+06 415024 0 -1.93924e+06 422234 0 -1.94266e+06 429476 0 -1.94613e+06 436751 0 -1.94966e+06 444058 0 -1.95323e+06 451399 0 -1.95685e+06 458775 0 -1.96052e+06 466186 0 -1.96424e+06 473634 0 -1.96801e+06 481117 0 -1.97183e+06 488639 0 -1.9757e+06 496199 0 -1.97961e+06 503797 0 -1.98358e+06 511436 0 -1.98759e+06 519116 0 -1.99165e+06 526837 0 -1.99576e+06 534601 0 -1.99991e+06 542408 0 -2.00411e+06 550259 0 -2.00836e+06 558155 0 -2.01265e+06 566098 0 -2.01699e+06 574087 0 -2.02137e+06 582125 0 -2.0258e+06 590212 0 -2.03027e+06 598348 0 -2.03478e+06 606536 0 -2.03934e+06 614775 0 -2.04394e+06 623068 0 -2.04858e+06 631415 0 -2.05326e+06 639818 0 -2.05798e+06 648277 0 -2.06274e+06 656793 0 -2.06754e+06 665369 0 -2.07238e+06 674004 0 -2.07725e+06 682701 0 -2.08216e+06 691461 0 -2.08711e+06 700284 0 -2.09209e+06 709172 0 -2.0971e+06 718127 0 -2.10215e+06 727150 0 -2.10722e+06 736243 0 -2.11233e+06 745406 0 -2.11746e+06 754641 0 -2.12263e+06 763950 0 -2.12782e+06 773335 0 -2.13303e+06 782796 0 -2.13826e+06 792336 0 -2.14352e+06 801956 0 -2.1488e+06 811658 0 -2.15409e+06 821443 0 -2.1594e+06 831314 0 -2.16473e+06 841272 0 -2.17006e+06 851319 0 -2.17541e+06 861457 0 -2.18076e+06 871687 0 -2.18612e+06 882012 0 -2.19148e+06 892433 0 -2.19684e+06 902953 0 -2.20219e+06 913574 0 -2.20754e+06 924297 0 -2.21288e+06 935125 0 -2.2182e+06 946059 0 -2.22351e+06 957103 0 -2.2288e+06 968257 0 -2.23406e+06 979525 0 -1.82846e+06 0 0 -1.82848e+06 6310.5 0 -1.82857e+06 12621.4 0 -1.8287e+06 18933.1 0 -1.82889e+06 25246.1 0 -1.82913e+06 31560.8 0 -1.82943e+06 37877.5 0 -1.82977e+06 44196.6 0 -1.83018e+06 50518.7 0 -1.83063e+06 56844.1 0 -1.83114e+06 63173.3 0 -1.83171e+06 69506.5 0 -1.83232e+06 75844.4 0 -1.833e+06 82187.2 0 -1.83372e+06 88535.5 0 -1.8345e+06 94889.6 0 -1.83533e+06 101250 0 -1.83622e+06 107617 0 -1.83716e+06 113991 0 -1.83815e+06 120373 0 -1.83919e+06 126762 0 -1.84029e+06 133160 0 -1.84145e+06 139567 0 -1.84265e+06 145984 0 -1.84391e+06 152409 0 -1.84523e+06 158845 0 -1.8466e+06 165292 0 -1.84802e+06 171750 0 -1.84949e+06 178219 0 -1.85102e+06 184700 0 -1.8526e+06 191194 0 -1.85423e+06 197700 0 -1.85592e+06 204220 0 -1.85766e+06 210754 0 -1.85946e+06 217302 0 -1.86131e+06 223864 0 -1.86321e+06 230442 0 -1.86516e+06 237036 0 -1.86717e+06 243646 0 -1.86923e+06 250272 0 -1.87134e+06 256916 0 -1.87351e+06 263577 0 -1.87573e+06 270257 0 -1.878e+06 276955 0 -1.88032e+06 283673 0 -1.8827e+06 290410 0 -1.88513e+06 297168 0 -1.88761e+06 303946 0 -1.89015e+06 310746 0 -1.89274e+06 317568 0 -1.89538e+06 324412 0 -1.89807e+06 331279 0 -1.90082e+06 338169 0 -1.90361e+06 345084 0 -1.90646e+06 352024 0 -1.90937e+06 358989 0 -1.91232e+06 365979 0 -1.91532e+06 372997 0 -1.91838e+06 380041 0 -1.92149e+06 387113 0 -1.92465e+06 394214 0 -1.92786e+06 401343 0 -1.93112e+06 408503 0 -1.93443e+06 415692 0 -1.9378e+06 422913 0 -1.94121e+06 430165 0 -1.94467e+06 437449 0 -1.94819e+06 444767 0 -1.95175e+06 452118 0 -1.95537e+06 459504 0 -1.95903e+06 466925 0 -1.96275e+06 474382 0 -1.96651e+06 481876 0 -1.97032e+06 489407 0 -1.97418e+06 496976 0 -1.97809e+06 504585 0 -1.98