<?xml version="1.0"?> 
<VTKFile type="StructuredGrid" version="0.1"> 
<StructuredGrid WholeExtent="0 127 0 127 0 0"> 
<Piece Extent="0 127 0 127 0 0"> 
<PointData>
<DataArray type="Float32" Name="|E|" format="ascii" NumberOfComponents="3"> 
-4.76837e-07 1.52588e-05 0 3.18047e-07 497.95 0 -3.12924e-07 796.353 0 3.57628e-07 918.369 0 -3.25963e-07 946.252 0 3.31551e-07 927.633 0 -4.61936e-07 886.325 0 3.76254e-07 834.565 0 -3.72529e-07 778.763 0 1.2666e-07 722.432 0 -2.98023e-08 667.515 0 4.47035e-08 615.074 0 -1.19209e-07 565.66 0 0 519.514 0 2.5332e-07 476.693 0 -4.99189e-07 437.14 0 4.32134e-07 400.731 0 -2.30968e-07 367.3 0 3.20375e-07 336.663 0 -1.86265e-07 308.628 0 7.45058e-08 283.001 0 -2.98023e-08 259.594 0 0 238.226 0 1.78814e-07 218.726 0 -1.63913e-07 200.933 0 1.19209e-07 184.698 0 -1.49012e-07 169.883 0 7.45058e-08 156.36 0 0 144.013 0 -2.98023e-08 132.736 0 8.9407e-08 122.429 0 -1.3411e-07 113.006 0 1.19209e-07 104.384 0 0 96.4903 0 -1.49012e-07 89.2589 0 8.9407e-08 82.6292 0 -1.49012e-08 76.5465 0 -8.9407e-08 70.9614 0 3.12924e-07 65.8292 0 -4.02331e-07 61.1094 0 4.17233e-07 56.7653 0 -3.27826e-07 52.7639 0 2.68221e-07 49.075 0 -2.08616e-07 45.6716 0 0 42.529 0 1.78814e-07 39.625 0 -2.98023e-07 36.9394 0 2.98023e-07 34.4539 0 -2.38419e-07 32.1518 0 2.08616e-07 30.018 0 -8.9407e-08 28.0388 0 5.96046e-08 26.2017 0 -1.19209e-07 24.4954 0 8.9407e-08 22.9096 0 8.9407e-08 21.4347 0 -1.49012e-07 20.0622 0 1.49012e-07 18.7842 0 -2.08616e-07 17.5935 0 2.08616e-07 16.4835 0 -1.78814e-07 15.4483 0 1.49012e-07 14.4822 0 1.19209e-07 13.5802 0 -1.19209e-07 12.7378 0 -2.98023e-08 11.9505 0 8.9407e-08 11.2144 0 2.98023e-08 10.526 0 -8.9407e-08 9.88187 0 0 9.27894 0 0 8.71439 0 -2.98023e-08 8.18557 0 2.98023e-08 7.69007 0 -2.98023e-08 7.22562 0 5.96046e-08 6.79016 0 -5.96046e-08 6.38174 0 5.96046e-08 5.99858 0 -5.96046e-08 5.63902 0 8.9407e-08 5.30152 0 -5.96046e-08 4.98463 0 8.9407e-08 4.68703 0 -1.19209e-07 4.40748 0 5.96046e-08 4.14482 0 -1.19209e-07 3.89796 0 5.96046e-08 3.66592 0 -1.78814e-07 3.44774 0 1.19209e-07 3.24256 0 -1.19209e-07 3.04955 0 1.19209e-07 2.86794 0 -1.19209e-07 2.69705 0 1.19209e-07 2.53618 0 -1.19209e-07 2.38471 0 1.78814e-07 2.24205 0 -1.78814e-07 2.10767 0 1.78814e-07 1.98104 0 -1.19209e-07 1.86169 0 1.78814e-07 1.74915 0 -1.78814e-07 1.64301 0 1.78814e-07 1.54285 0 -2.38419e-07 1.44832 0 1.78814e-07 1.35905 0 -2.38419e-07 1.27471 0 1.78814e-07 1.19499 0 -2.38419e-07 1.1196 0 2.38419e-07 1.04825 0 -2.38419e-07 0.980681 0 2.38419e-07 0.916651 0 -2.38419e-07 0.855923 0 2.38419e-07 0.798266 0 -2.38419e-07 0.743482 0 2.98023e-07 0.691367 0 -2.38419e-07 0.64173 0 2.38419e-07 0.594398 0 -2.38419e-07 0.549189 0 2.98023e-07 0.505948 0 -2.38419e-07 0.464516 0 3.57628e-07 0.424744 0 -2.98023e-07 0.38649 0 3.57628e-07 0.349617 0 -3.57628e-07 0.313992 0 2.98023e-07 0.279488 0 -3.57628e-07 0.245981 0 2.98023e-07 0.213348 0 -4.17233e-07 0.181478 0 3.57628e-07 0.150254 0 -2.98023e-07 0.119567 0 4.17233e-07 0.089303 0 -2.38419e-07 0.0593591 0 0 0.0296264 0 2.38419e-07 1.90735e-06 0 9.73349 -1.61231e-05 0 7.43938 497.986 0 3.58436 796.385 0 1.22553 918.388 0 -0.0500883 946.262 0 -0.757556 927.639 0 -1.14883 886.328 0 -1.36605 834.566 0 -1.47886 778.763 0 -1.52703 722.432 0 -1.53374 667.514 0 -1.51327 615.073 0 -1.4749 565.658 0 -1.42481 519.512 0 -1.36726 476.691 0 -1.30528 437.138 0 -1.24101 400.729 0 -1.17602 367.298 0 -1.11143 336.661 0 -1.04808 308.626 0 -0.986525 282.999 0 -0.927197 259.593 0 -0.870359 238.224 0 -0.816187 218.724 0 -0.764773 200.931 0 -0.716143 184.696 0 -0.670289 169.881 0 -0.627155 156.359 0 -0.586667 144.012 0 -0.54873 132.734 0 -0.513234 122.428 0 -0.480066 113.004 0 -0.449101 104.383 0 -0.420218 96.4893 0 -0.393293 89.258 0 -0.368205 82.6283 0 -0.344838 76.5456 0 -0.323075 70.9606 0 -0.30281 65.8285 0 -0.28394 61.1087 0 -0.266366 56.7646 0 -0.249997 52.7632 0 -0.234744 49.0744 0 -0.220529 45.671 0 -0.207276 42.5285 0 -0.194914 39.6245 0 -0.183378 36.9389 0 -0.172607 34.4534 0 -0.162546 32.1513 0 -0.153142 30.0175 0 -0.144348 28.0384 0 -0.136119 26.2013 0 -0.128415 24.4951 0 -0.121197 22.9092 0 -0.114431 21.4344 0 -0.108085 20.0619 0 -0.102129 18.7839 0 -0.0965366 17.5932 0 -0.091281 16.4832 0 -0.0863405 15.448 0 -0.0816928 14.482 0 -0.0773186 13.58 0 -0.0731996 12.7375 0 -0.0693191 11.9503 0 -0.0656609 11.2142 0 -0.0622109 10.5258 0 -0.058956 9.88168 0 -0.0558833 9.27877 0 -0.052982 8.71422 0 -0.0502407 8.18541 0 -0.0476506 7.68991 0 -0.045202 7.22547 0 -0.0428855 6.79001 0 -0.0406949 6.38161 0 -0.0386219 5.99845 0 -0.0366591 5.6389 0 -0.0348014 5.3014 0 -0.0330421 4.98452 0 -0.0313749 4.68693 0 -0.029796 4.40738 0 -0.0283003 4.14472 0 -0.0268822 3.89787 0 -0.0255384 3.66583 0 -0.0242649 3.44765 0 -0.0230568 3.24247 0 -0.0219128 3.04947 0 -0.0208272 2.86787 0 -0.0197985 2.69697 0 -0.018823 2.5361 0 -0.017899 2.38464 0 -0.0170222 2.24199 0 -0.0161921 2.10761 0 -0.0154046 1.98099 0 -0.0146599 1.86163 0 -0.0139529 1.7491 0 -0.013285 1.64296 0 -0.0126519 1.5428 0 -0.0120533 1.44827 0 -0.0114867 1.35901 0 -0.0109518 1.27467 0 -0.0104461 1.19495 0 -0.00996939 1.11956 0 -0.00951893 1.04821 0 -0.00909625 0.98065 0 -0.0086958 0.916618 0 -0.00832247 0.85589 0 -0.00797012 0.798238 0 -0.00764064 0.743455 0 -0.00733277 0.691341 0 -0.00704516 0.641708 0 -0.00677809 0.594374 0 -0.0065309 0.549168 0 -0.00630126 0.505927 0 -0.00609152 0.464498 0 -0.00589858 0.424729 0 -0.00572446 0.386475 0 -0.00556623 0.349603 0 -0.00542622 0.313979 0 -0.00530175 0.279477 0 -0.00519548 0.245969 0 -0.00510449 0.213339 0 -0.00503017 0.181469 0 -0.00497241 0.150248 0 -0.00493114 0.11956 0 -0.00490639 0.0892999 0 -0.0048984 0.0593569 0 -0.00490713 0.0296272 0 -0.00493347 -2.96906e-06 0 19.469 9.53674e-06 0 14.879 498.094 0 7.16792 796.482 0 2.45055 918.443 0 -0.100485 946.293 0 -1.51529 927.656 0 -2.29776 886.336 0 -2.73216 834.57 0 -2.95777 778.763 0 -3.05409 722.43 0 -3.0675 667.511 0 -3.02656 615.069 0 -2.94981 565.653 0 -2.84961 519.507 0 -2.73452 476.686 0 -2.61055 437.133 0 -2.48201 400.723 0 -2.35203 367.292 0 -2.22286 336.656 0 -2.09614 308.621 0 -1.97304 282.994 0 -1.85438 259.587 0 -1.74071 238.219 0 -1.63236 218.719 0 -1.52953 200.926 0 -1.43227 184.692 0 -1.34056 169.877 0 -1.2543 156.354 0 -1.17332 144.008 0 -1.09745 132.73 0 -1.02646 122.424 0 -0.96012 113.001 0 -0.898191 104.379 0 -0.840425 96.4862 0 -0.786576 89.255 0 -0.7364 82.6255 0 -0.689666 76.543 0 -0.646141 70.9581 0 -0.605612 65.8261 0 -0.567871 61.1065 0 -0.532724 56.7625 0 -0.499986 52.7612 0 -0.469481 49.0725 0 -0.441052 45.6692 0 -0.414545 42.5268 0 -0.389821 39.6229 0 -0.36675 36.9374 0 -0.345209 34.452 0 -0.325087 32.1499 0 -0.306279 30.0162 0 -0.288691 28.0371 0 -0.272234 26.2002 0 -0.256825 24.494 0 -0.242389 22.9082 0 -0.228858 21.4334 0 -0.216166 20.0609 0 -0.204254 18.783 0 -0.193069 17.5923 0 -0.182559 16.4824 0 -0.172677 15.4472 0 -0.163382 14.4812 0 -0.154634 13.5793 0 -0.146396 12.7369 0 -0.138635 11.9496 0 -0.131319 11.2136 0 -0.124419 10.5252 0 -0.117909 9.88112 0 -0.111764 9.27824 0 -0.105961 8.71371 0 -0.100479 8.18493 0 -0.0952993 7.68945 0 -0.0904016 7.22503 0 -0.0857692 6.78959 0 -0.081388 6.3812 0 -0.0772419 5.99807 0 -0.0733165 5.63853 0 -0.0696007 5.30105 0 -0.0660824 4.98419 0 -0.0627485 4.6866 0 -0.0595906 4.40707 0 -0.0565989 4.14443 0 -0.0537629 3.89759 0 -0.0510754 3.66556 0 -0.0485283 3.4474 0 -0.0461127 3.24223 0 -0.0438241 3.04923 0 -0.0416532 2.86765 0 -0.0395961 2.69676 0 -0.0376451 2.5359 0 -0.0357969 2.38444 0 -0.0340436 2.2418 0 -0.0323828 2.10743 0 -0.0308087 1.98082 0 -0.0293186 1.86147 0 -0.0279053 1.74894 0 -0.026569 1.6428 0 -0.0253032 1.54266 0 -0.0241052 1.44814 0 -0.0229732 1.35888 0 -0.0219028 1.27455 0 -0.0208919 1.19484 0 -0.0199379 1.11945 0 -0.0190373 1.04811 0 -0.0181915 0.980548 0 -0.0173916 0.916523 0 -0.0166439 0.855799 0 -0.0159398 0.798151 0 -0.0152807 0.743373 0 -0.0146649 0.691264 0 -0.0140899 0.641634 0 -0.0135557 0.594305 0 -0.013061 0.549105 0 -0.0126024 0.505868 0 -0.0121822 0.46444 0 -0.011797 0.424676 0 -0.011448 0.386427 0 -0.0111326 0.349558 0 -0.0108513 0.313938 0 -0.0106039 0.279439 0 -0.0103899 0.245935 0 -0.0102087 0.21331 0 -0.0100598 0.181445 0 -0.0099443 0.150227 0 -0.00986206 0.119544 0 -0.00981221 0.0892861 0 -0.00979616 0.0593486 0 -0.0098138 0.0296211 0 -0.00986687 1.66893e-06 0 29.2087 -1.0252e-05 0 22.3191 498.273 0 10.7499 796.643 0 3.67456 918.535 0 -0.151495 946.344 0 -2.2734 927.683 0 -3.44692 886.35 0 -4.09842 834.576 0 -4.43677 778.764 0 -4.58121 722.427 0 -4.60129 667.506 0 -4.53986 615.062 0 -4.42472 565.645 0 -4.27441 519.498 0 -4.10177 476.677 0 -3.91581 437.124 0 -3.723 400.714 0 -3.52802 367.283 0 -3.33426 336.646 0 -3.14418 308.611 0 -2.95953 282.985 0 -2.78154 259.578 0 -2.61103 238.211 0 -2.44851 218.711 0 -2.29426 200.919 0 -2.14838 184.684 0 -2.01081 169.869 0 -1.88141 156.348 0 -1.75995 144.001 0 -1.64614 132.724 0 -1.53965 122.418 0 -1.44015 112.995 0 -1.34726 104.374 0 -1.26061 96.4811 0 -1.17984 89.2502 0 -1.10458 82.6209 0 -1.03447 76.5387 0 -0.969188 70.954 0 -0.908396 65.8222 0 -0.851785 61.1028 0 -0.799066 56.759 0 -0.749958 52.7579 0 -0.704203 49.0693 0 -0.66156 45.6662 0 -0.621801 42.524 0 -0.584716 39.6202 0 -0.550109 36.9349 0 -0.517798 34.4496 0 -0.487616 32.1477 0 -0.459406 30.0141 0 -0.433024 28.0351 0 -0.408339 26.1982 0 -0.385226 24.4921 0 -0.363573 22.9064 0 -0.343277 21.4317 0 -0.324238 20.0593 0 -0.306372 18.7815 0 -0.289594 17.5909 0 -0.273829 16.4811 0 -0.259007 15.4459 0 -0.245066 14.48 0 -0.231944 13.5781 0 -0.219587 12.7358 0 -0.207946 11.9485 0 -0.196972 11.2126 0 -0.186623 10.5243 0 -0.176858 9.8802 0 -0.16764 9.27736 0 -0.158936 8.71287 0 -0.150713 8.18413 0 -0.142944 7.68869 0 -0.135597 7.2243 0 -0.128649 6.78889 0 -0.122077 6.38053 0 -0.115858 5.99743 0 -0.109971 5.63792 0 -0.104397 5.30046 0 -0.0991195 4.98363 0 -0.0941191 4.68607 0 -0.0893821 4.40656 0 -0.0848947 4.14394 0 -0.0806408 3.89712 0 -0.0766101 3.66511 0 -0.0727891 3.44697 0 -0.069166 3.24182 0 -0.0657331 3.04884 0 -0.0624771 2.86727 0 -0.0593913 2.6964 0 -0.0564652 2.53556 0 -0.0536926 2.38411 0 -0.0510629 2.24149 0 -0.0485718 2.10714 0 -0.046211 1.98053 0 -0.0439755 1.8612 0 -0.0418561 1.74868 0 -0.0398513 1.64256 0 -0.0379528 1.54242 0 -0.0361559 1.44791 0 -0.034458 1.35866 0 -0.0328524 1.27434 0 -0.0313359 1.19464 0 -0.0299051 1.11926 0 -0.0285548 1.04793 0 -0.0272849 0.980377 0 -0.0260864 0.916364 0 -0.0249642 0.855646 0 -0.0239084 0.798007 0 -0.0229194 0.743237 0 -0.0219962 0.691134 0 -0.0211335 0.641511 0 -0.0203323 0.594189 0 -0.0195897 0.548995 0 -0.0189028 0.505768 0 -0.0182717 0.464348 0 -0.0176945 0.42459 0 -0.0171707 0.386347 0 -0.0166977 0.349486 0 -0.0162757 0.313871 0 -0.0159049 0.279379 0 -0.0155834 0.245882 0 -0.0153122 0.213263 0 -0.0150884 0.181404 0 -0.0149154 0.150193 0 -0.0147919 0.119516 0 -0.0147172 0.0892654 0 -0.0146928 0.0593341 0 -0.0147198 0.029615 0 -0.0147987 -1.30385e-06 0 38.9547 7.51019e-06 0 29.7599 498.525 0 14.3294 796.868 0 4.89703 918.665 0 -0.203428 946.416 0 -3.03205 927.722 0 -4.5964 886.37 0 -5.46489 834.584 0 -5.91589 778.765 0 -6.10841 722.423 0 -6.13513 667.499 0 -6.05319 615.053 0 -5.89965 565.634 0 -5.69922 519.486 0 -5.46901 476.664 0 -5.22105 437.111 0 -4.96396 400.7 0 -4.70398 367.269 0 -4.44563 336.633 0 -4.19219 308.599 0 -3.94598 282.972 0 -3.70866 259.566 0 -3.48131 238.199 0 -3.26462 218.7 0 -3.05896 200.907 0 -2.86444 184.673 0 -2.68102 169.859 0 -2.50849 156.338 0 -2.34654 143.992 0 -2.1948 132.715 0 -2.05282 122.41 0 -1.92015 112.987 0 -1.79629 104.366 0 -1.68076 96.4739 0 -1.57307 89.2434 0 -1.47272 82.6145 0 -1.37925 76.5326 0 -1.29221 70.9482 0 -1.21115 65.8167 0 -1.13567 61.0976 0 -1.06538 56.7541 0 -0.999908 52.7533 0 -0.938902 49.065 0 -0.882046 45.6621 0 -0.829036 42.52 0 -0.779591 39.6165 0 -0.73345 36.9314 0 -0.69037 34.4462 0 -0.650128 32.1445 0 -0.612515 30.0111 0 -0.577341 28.0323 0 -0.544429 26.1955 0 -0.513613 24.4896 0 -0.484743 22.904 0 -0.457682 21.4294 0 -0.432299 20.0571 0 -0.408478 18.7794 0 -0.386108 17.5889 0 -0.365089 16.4792 0 -0.345327 15.4441 0 -0.326739 14.4783 0 -0.309244 13.5765 0 -0.292768 12.7342 0 -0.277248 11.9471 0 -0.262616 11.2112 0 -0.248818 10.5229 0 -0.235799 9.87891 0 -0.223509 9.27612 0 -0.211904 8.7117 0 -0.200941 8.183 0 -0.190582 7.68761 0 -0.180786 7.22327 0 -0.171523 6.78791 0 -0.162761 6.37959 0 -0.154469 5.99653 0 -0.14662 5.63706 0 -0.139188 5.29964 0 -0.132152 4.98284 0 -0.125485 4.68532 0 -0.119169 4.40585 0 -0.113186 4.14325 0 -0.107515 3.89647 0 -0.102141 3.66449 0 -0.0970461 3.44637 0 -0.0922158 3.24124 0 -0.0876384 3.04829 0 -0.0832976 2.86675 0 -0.0791832 2.6959 0 -0.0752821 2.53508 0 -0.0715852 2.38366 0 -0.0680793 2.24105 0 -0.0647577 2.10672 0 -0.0616105 1.98013 0 -0.0586296 1.86081 0 -0.0558044 1.74832 0 -0.053131 1.64221 0 -0.0506 1.54209 0 -0.0482042 1.44759 0 -0.0459405 1.35836 0 -0.0437997 1.27405 0 -0.041778 1.19436 0 -0.0398702 1.119 0 -0.0380703 1.04768 0 -0.0363766 0.980142 0 -0.0347794 0.916137 0 -0.0332823 0.855433 0 -0.0318751 0.797805 0 -0.0305568 0.743045 0 -0.0293255 0.690954 0 -0.0281757 0.641342 0 -0.0271073 0.594029 0 -0.026117 0.548845 0 -0.0252014 0.505626 0 -0.0243598 0.464217 0 -0.0235908 0.424467 0 -0.0228918 0.386233 0 -0.0222615 0.349381 0 -0.0216989 0.313777 0 -0.0212043 0.279293 0 -0.0207758 0.245805 0 -0.0204138 0.213194 0 -0.020116 0.181347 0 -0.0198849 0.150144 0 -0.0197204 0.119477 0 -0.0196209 0.0892361 0 -0.0195882 0.0593143 0 -0.0196241 0.0296042 0 -0.0197295 5.36442e-07 0 48.7089 -1.60933e-05 0 37.2016 498.848 0 17.9056 797.158 0 6.11747 918.83 0 -0.256589 946.509 0 -3.79144 927.772 0 -5.74632 886.395 0 -6.83163 834.595 0 -7.3952 778.766 0 -7.63572 722.418 0 -7.66904 667.489 0 -7.56656 615.041 0 -7.37459 565.62 0 -7.12402 519.471 0 -6.83624 476.648 0 -6.52627 437.094 0 -6.20489 400.683 0 -5.87991 367.252 0 -5.55696 336.616 0 -5.24015 308.582 0 -4.93238 282.956 0 -4.63573 259.55 0 -4.35154 238.184 0 -4.08068 218.685 0 -3.8236 200.893 0 -3.58046 184.66 0 -3.35118 169.846 0 -3.13552 156.325 0 -2.93308 143.98 0 -2.7434 132.704 0 -2.56593 122.399 0 -2.40009 112.977 0 -2.24528 104.357 0 -2.10087 96.4647 0 -1.96626 89.2346 0 -1.84082 82.6062 0 -1.72399 76.5247 0 -1.61519 70.9408 0 -1.51387 65.8097 0 -1.41953 61.0909 0 -1.33167 56.7478 0 -1.24983 52.7473 0 -1.17357 49.0593 0 -1.1025 45.6567 0 -1.03624 42.515 0 -0.97444 39.6117 0 -0.916765 36.9268 0 -0.862918 34.4419 0 -0.812617 32.1404 0 -0.765604 30.0072 0 -0.721637 28.0286 0 -0.680499 26.1921 0 -0.641981 24.4863 0 -0.605895 22.9009 0 -0.572071 21.4264 0 -0.540343 20.0543 0 -0.510568 18.7767 0 -0.482607 17.5864 0 -0.456334 16.4767 0 -0.431633 15.4418 0 -0.4084 14.4761 0 -0.386531 13.5744 0 -0.365938 12.7322 0 -0.346538 11.9451 0 -0.32825 11.2093 0 -0.311003 10.5212 0 -0.29473 9.87725 0 -0.279368 9.27454 0 -0.264863 8.71018 0 -0.25116 8.18156 0 -0.238211 7.68623 0 -0.225968 7.22196 0 -0.214389 6.78665 0 -0.203437 6.37839 0 -0.193073 5.99538 0 -0.183261 5.63596 0 -0.173972 5.29859 0 -0.165178 4.98184 0 -0.156845 4.68436 0 -0.148951 4.40492 0 -0.141472 4.14238 0 -0.134383 3.89563 0 -0.127666 3.66368 0 -0.121298 3.4456 0 -0.115261 3.24051 0 -0.109539 3.04759 0 -0.104113 2.86608 0 -0.0989708 2.69526 0 -0.0940947 2.53446 0 -0.0894736 2.38307 0 -0.0850918 2.24049 0 -0.08094 2.10618 0 -0.0770065 1.97962 0 -0.0732802 1.86032 0 -0.0697491 1.74785 0 -0.0664074 1.64176 0 -0.0632443 1.54166 0 -0.0602494 1.44718 0 -0.0574198 1.35797 0 -0.0547444 1.27368 0 -0.052217 1.19401 0 -0.0498327 1.11866 0 -0.0475832 1.04736 0 -0.0454656 0.979836 0 -0.04347 0.915848 0 -0.041598 0.855159 0 -0.0398396 0.797546 0 -0.0381921 0.742799 0 -0.0366524 0.690721 0 -0.0352158 0.641124 0 -0.0338802 0.593823 0 -0.032642 0.548652 0 -0.0314981 0.505447 0 -0.030446 0.464049 0 -0.0294849 0.42431 0 -0.0286111 0.386091 0 -0.0278234 0.349248 0 -0.02712 0.313656 0 -0.0265022 0.279184 0 -0.0259661 0.245708 0 -0.0255136 0.213111 0 -0.0251418 0.181272 0 -0.0248525 0.150082 0 -0.0246472 0.119426 0 -0.0245222 0.0891984 0 -0.0244823 0.0592885 0 -0.0245263 0.0295899 0 -0.0246578 1.84774e-06 0 58.4735 9.77516e-06 0 44.6445 499.243 0 21.4779 797.512 0 7.33536 919.033 0 -0.311287 946.621 0 -4.55174 927.833 0 -6.89679 886.427 0 -8.19872 834.608 0 -8.87472 778.768 0 -9.16317 722.412 0 -9.20304 667.478 0 -9.07997 615.026 0 -8.84955 565.603 0 -8.54882 519.452 0 -8.20345 476.628 0 -7.83146 437.073 0 -7.44579 400.663 0 -7.05579 367.232 0 -6.66823 336.596 0 -6.28805 308.562 0 -5.91873 282.936 0 -5.56274 259.531 0 -5.22171 238.165 0 -4.89667 218.667 0 -4.58817 200.876 0 -4.2964 184.643 0 -4.02127 169.83 0 -3.76248 156.31 0 -3.51956 143.966 0 -3.29195 132.69 0 -3.07899 122.386 0 -2.87999 112.965 0 -2.69421 104.345 0 -2.52093 96.4534 0 -2.35939 89.224 0 -2.20888 82.5961 0 -2.06869 76.5151 0 -1.93812 70.9317 0 -1.81655 65.8011 0 -1.70334 61.0828 0 -1.59791 56.7401 0 -1.4997 52.74 0 -1.4082 49.0524 0 -1.32293 45.6502 0 -1.24342 42.5088 0 -1.16926 39.6059 0 -1.10005 36.9213 0 -1.03544 34.4367 0 -0.975078 32.1354 0 -0.918665 30.0025 0 -0.865908 28.0241 0 -0.816544 26.1878 0 -0.770325 24.4822 0 -0.727025 22.897 0 -0.686438 21.4228 0 -0.648367 20.0508 0 -0.612639 18.7734 0 -0.579087 17.5832 0 -0.547562 16.4738 0 -0.517923 15.439 0 -0.490044 14.4734 0 -0.463803 13.5718 0 -0.439093 12.7297 0 -0.415815 11.9428 0 -0.39387 11.2071 0 -0.373175 10.519 0 -0.353648 9.87522 0 -0.335216 9.2726 0 -0.31781 8.70833 0 -0.301368 8.17979 0 -0.28583 7.68455 0 -0.271139 7.22034 0 -0.257246 6.78512 0 -0.244104 6.37692 0 -0.231667 5.99397 0 -0.219895 5.63462 0 -0.208749 5.29731 0 -0.198195 4.98061 0 -0.188197 4.68319 0 -0.178724 4.4038 0 -0.16975 4.1413 0 -0.161245 3.8946 0 -0.153185 3.6627 0 -0.145543 3.44466 0 -0.1383 3.23961 0 -0.131434 3.04673 0 -0.124924 2.86525 0 -0.118753 2.69447 0 -0.112902 2.53371 0 -0.107357 2.38235 0 -0.102099 2.23981 0 -0.0971176 2.10552 0 -0.0923975 1.97899 0 -0.0879265 1.85972 0 -0.0836893 1.74727 0 -0.0796799 1.64121 0 -0.0758843 1.54114 0 -0.0722909 1.44669 0 -0.0688954 1.35749 0 -0.0656855 1.27323 0 -0.0626525 1.19358 0 -0.0597917 1.11825 0 -0.0570928 1.04697 0 -0.0545512 0.979464 0 -0.0521575 0.915495 0 -0.0499107 0.854823 0 -0.0478012 0.797228 0 -0.0458243 0.742498 0 -0.0439766 0.690438 0 -0.0422531 0.640855 0 -0.0406506 0.593572 0 -0.0391645 0.548416 0 -0.0377923 0.505225 0 -0.0365298 0.463842 0 -0.0353766 0.42412 0 -0.034328 0.385913 0 -0.033383 0.349087 0 -0.0325389 0.31351 0 -0.0317978 0.279051 0 -0.0311541 0.245588 0 -0.030611 0.213006 0 -0.0301656 0.181183 0 -0.0298175 0.150006 0 -0.0295721 0.119365 0 -0.029421 0.0891519 0 -0.029374 0.059257 0 -0.0294261 0.0295747 0 -0.0295838 -1.13249e-06 0 68.2507 4.76837e-07 0 52.0887 499.711 0 25.0452 797.93 0 8.55019 919.272 0 -0.367826 946.754 0 -5.31313 927.905 0 -8.04791 886.463 0 -9.56623 834.623 0 -10.3545 778.77 0 -10.6908 722.405 0 -10.7371 667.465 0 -10.5934 615.008 0 -10.3245 565.583 0 -9.97361 519.43 0 -9.57063 476.605 0 -9.1366 437.049 0 -8.68663 400.638 0 -8.23161 367.207 0 -7.77944 336.571 0 -7.33589 308.538 0 -6.905 282.913 0 -6.48967 259.508 0 -6.0918 238.143 0 -5.71258 218.645 0 -5.35267 200.855 0 -5.01227 184.623 0 -4.69129 169.811 0 -4.38937 156.292 0 -4.10597 143.948 0 -3.84042 132.674 0 -3.59197 122.371 0 -3.35981 112.95 0 -3.14308 104.331 0 -2.94091 96.4401 0 -2.75246 89.2113 0 -2.57687 82.5841 0 -2.41332 76.5038 0 -2.261 70.921 0 -2.11917 65.791 0 -1.9871 61.0732 0 -1.8641 56.7311 0 -1.74954 52.7314 0 -1.64279 49.0443 0 -1.5433 45.6425 0 -1.45055 42.5015 0 -1.36403 39.599 0 -1.2833 36.9147 0 -1.20792 34.4305 0 -1.1375 32.1296 0 -1.07169 29.9969 0 -1.01015 28.0188 0 -0.95256 26.1828 0 -0.898642 24.4775 0 -0.848128 22.8925 0 -0.800779 21.4185 0 -0.756366 20.0468 0 -0.714686 18.7695 0 -0.675545 17.5795 0 -0.638768 16.4702 0 -0.604191 15.4356 0 -0.571668 14.4702 0 -0.541057 13.5688 0 -0.51223 12.7268 0 -0.485074 11.94 0 -0.459473 11.2045 0 -0.435331 10.5165 0 -0.412552 9.87282 0 -0.391049 9.27031 0 -0.370743 8.70615 0 -0.351562 8.17771 0 -0.333437 7.68255 0 -0.316298 7.21844 0 -0.300091 6.7833 0 -0.284759 6.37518 0 -0.270251 5.99232 0 -0.256517 5.63303 0 -0.243515 5.29579 0 -0.231203 4.97916 0 -0.21954 4.6818 0 -0.208489 4.40247 0 -0.19802 4.14003 0 -0.188098 3.89339 0 -0.178695 3.66154 0 -0.169781 3.44355 0 -0.161331 3.23855 0 -0.153321 3.04571 0 -0.145727 2.86428 0 -0.138528 2.69354 0 -0.131703 2.53282 0 -0.125234 2.3815 0 -0.119101 2.23899 0 -0.11329 2.10474 0 -0.107783 1.97825 0 -0.102567 1.85902 0 -0.0976245 1.7466 0 -0.0929473 1.64057 0 -0.0885193 1.54052 0 -0.0843279 1.4461 0 -0.0803663 1.35693 0 -0.0766223 1.27269 0 -0.0730841 1.19307 0 -0.0697466 1.11777 0 -0.0665986 1.04651 0 -0.0636332 0.979025 0 -0.0608412 0.915078 0 -0.0582199 0.854427 0 -0.0557592 0.796853 0 -0.0534532 0.742144 0 -0.0512976 0.690102 0 -0.0492871 0.640539 0 -0.0474179 0.593274 0 -0.0456839 0.548136 0 -0.0440832 0.504965 0 -0.0426108 0.4636 0 -0.0412653 0.423893 0 -0.0400419 0.385705 0 -0.0389395 0.348896 0 -0.0379552 0.313334 0 -0.0370905 0.278892 0 -0.0363394 0.245448 0 -0.0357059 0.212881 0 -0.0351862 0.181075 0 -0.0347805 0.149916 0 -0.0344936 0.119293 0 -0.0343176 0.0890971 0 -0.0342624 0.0592198 0 -0.0343234 0.0295565 0 -0.0345069 6.25849e-07 0 78.0424 -1.52588e-05 0 59.5346 500.251 0 28.6069 798.413 0 9.76147 919.548 0 -0.426514 946.908 0 -6.07581 927.988 0 -9.19979 886.505 0 -10.9342 834.641 0 -11.8346 778.772 0 -12.2186 722.397 0 -12.2713 667.45 0 -12.107 614.988 0 -11.7995 565.559 0 -11.3984 519.404 0 -10.9378 476.577 0 -10.4417 437.021 0 -9.92741 400.61 0 -9.40736 367.179 0 -8.89058 336.543 0 -8.38364 308.51 0 -7.89118 282.886 0 -7.41651 259.482 0 -6.96179 238.117 0 -6.5284 218.621 0 -6.11707 200.832 0 -5.72805 184.601 0 -5.36122 169.79 0 -5.01617 156.271 0 -4.69228 143.929 0 -4.38881 132.655 0 -4.10487 122.353 0 -3.83955 112.933 0 -3.59186 104.315 0 -3.36083 96.4247 0 -3.14546 89.1968 0 -2.94479 82.5703 0 -2.75788 76.4907 0 -2.58381 70.9086 0 -2.42173 65.7793 0 -2.2708 61.0621 0 -2.13024 56.7206 0 -1.99931 52.7215 0 -1.87732 49.0349 0 -1.76363 45.6336 0 -1.65763 42.4931 0 -1.55876 39.591 0 -1.4665 36.9072 0 -1.38036 34.4233 0 -1.29989 32.1228 0 -1.22468 29.9905 0 -1.15435 28.0127 0 -1.08854 26.177 0 -1.02692 24.472 0 -0.969199 22.8873 0 -0.91509 21.4135 0 -0.864337 20.042 0 -0.816706 18.765 0 -0.771977 17.5753 0 -0.729949 16.4662 0 -0.690437 15.4318 0 -0.65327 14.4665 0 -0.618288 13.5653 0 -0.585347 12.7235 0 -0.554313 11.9369 0 -0.525057 11.2014 0 -0.497468 10.5136 0 -0.471437 9.87006 0 -0.446865 9.26767 0 -0.423661 8.70363 0 -0.401741 8.1753 0 -0.381028 7.68026 0 -0.361442 7.21625 0 -0.342922 6.7812 0 -0.325402 6.37318 0 -0.308822 5.9904 0 -0.293128 5.6312 0 -0.27827 5.29404 0 -0.2642 4.97748 0 -0.250871 4.6802 0 -0.238244 4.40095 0 -0.22628 4.13857 0 -0.214942 3.89198 0 -0.204197 3.6602 0 -0.19401 3.44227 0 -0.184353 3.23732 0 -0.175201 3.04454 0 -0.166522 2.86316 0 -0.158296 2.69247 0 -0.150497 2.53179 0 -0.143103 2.38052 0 -0.136096 2.23806 0 -0.129455 2.10385 0 -0.123162 1.97739 0 -0.117202 1.8582 0 -0.111554 1.74582 0 -0.106209 1.63982 0 -0.101149 1.53981 0 -0.0963594 1.44542 0 -0.0918323 1.35628 0 -0.0875537 1.27207 0 -0.0835109 1.19248 0 -0.0796967 1.11721 0 -0.0760998 1.04597 0 -0.0727104 0.978516 0 -0.0695208 0.914597 0 -0.066525 0.85397 0 -0.0637128 0.79642 0 -0.0610783 0.741736 0 -0.0586145 0.689717 0 -0.0563178 0.640176 0 -0.0541813 0.592932 0 -0.0522001 0.547815 0 -0.0503705 0.504663 0 -0.0486885 0.463319 0 -0.0471505 0.423632 0 -0.0457524 0.385464 0 -0.0444929 0.348675 0 -0.043368 0.313133 0 -0.04238 0.278711 0 -0.0415213 0.245286 0 -0.0407977 0.212739 0 -0.0402034 0.180952 0 -0.0397404 0.149813 0 -0.0394117 0.119209 0 -0.0392111 0.0890336 0 -0.0391476 0.0591784 0 -0.0392172 0.0295349 0 -0.0394269 -1.37091e-06 0 87.8509 1.0252e-05 0 66.9823 500.863 0 32.1621 798.96 0 10.9687 919.861 0 -0.487656 947.082 0 -6.83994 928.082 0 -10.3526 886.553 0 -12.3028 834.661 0 -13.315 778.774 0 -13.7467 722.387 0 -13.8057 667.432 0 -13.6206 614.965 0 -13.2746 565.533 0 -12.8232 519.375 0 -12.3049 476.547 0 -11.7468 436.99 0 -11.1681 400.578 0 -10.583 367.147 0 -10.0016 336.511 0 -9.4313 308.479 0 -8.87727 282.855 0 -8.34326 259.452 0 -7.83169 238.089 0 -7.34412 218.593 0 -6.88137 200.805 0 -6.44372 184.575 0 -6.03104 169.765 0 -5.64286 156.248 0 -5.2785 143.906 0 -4.93709 132.634 0 -4.61767 122.332 0 -4.31919 112.913 0 -4.04056 104.296 0 -3.78065 96.4073 0 -3.53838 89.1803 0 -3.31263 82.5547 0 -3.10237 76.4759 0 -2.90655 70.8946 0 -2.72422 65.766 0 -2.55443 61.0495 0 -2.39631 56.7087 0 -2.24902 52.7102 0 -2.1118 49.0242 0 -1.9839 45.6235 0 -1.86466 42.4835 0 -1.75344 39.5819 0 -1.64965 36.8986 0 -1.55275 34.4152 0 -1.46223 32.1151 0 -1.37763 29.9832 0 -1.29851 28.0058 0 -1.22448 26.1704 0 -1.15517 24.4657 0 -1.09023 22.8813 0 -1.02937 21.4079 0 -0.972275 20.0367 0 -0.918695 18.7599 0 -0.868379 17.5704 0 -0.821102 16.4616 0 -0.776655 15.4274 0 -0.734846 14.4623 0 -0.695495 13.5613 0 -0.65844 12.7197 0 -0.623529 11.9332 0 -0.59062 11.198 0 -0.559585 10.5103 0 -0.530303 9.86692 0 -0.502662 9.26469 0 -0.47656 8.70077 0 -0.451902 8.17258 0 -0.428602 7.67765 0 -0.406571 7.21376 0 -0.385737 6.77882 0 -0.366029 6.37091 0 -0.347379 5.98823 0 -0.329725 5.62913 0 -0.313011 5.29205 0 -0.297184 4.97559 0 -0.282191 4.67838 0 -0.267987 4.39921 0 -0.254529 4.13691 0 -0.241774 3.8904 0 -0.229687 3.65868 0 -0.218229 3.44082 0 -0.207366 3.23593 0 -0.197071 3.04321 0 -0.187309 2.86189 0 -0.178055 2.69125 0 -0.169282 2.53063 0 -0.160965 2.37941 0 -0.153083 2.23699 0 -0.145613 2.10283 0 -0.138533 1.97642 0 -0.13183 1.85727 0 -0.125477 1.74493 0 -0.119463 1.63897 0 -0.113772 1.53901 0 -0.108385 1.44465 0 -0.103292 1.35555 0 -0.0984793 1.27137 0 -0.0939321 1.19181 0 -0.0896414 1.11657 0 -0.0855958 1.04537 0 -0.0817827 0.977943 0 -0.0781952 0.914051 0 -0.0748251 0.853453 0 -0.0716621 0.79593 0 -0.0686985 0.741271 0 -0.0659274 0.689279 0 -0.0633439 0.639762 0 -0.0609405 0.592544 0 -0.058712 0.547451 0 -0.056654 0.504322 0 -0.0547619 0.463 0 -0.053032 0.423338 0 -0.0514591 0.385192 0 -0.0500423 0.348426 0 -0.0487776 0.312905 0 -0.0476655 0.278504 0 -0.0466997 0.245103 0 -0.0458858 0.212576 0 -0.0452171 0.180812 0 -0.0446964 0.149694 0 -0.0443262 0.119115 0 -0.0441007 0.0889623 0 -0.044029 0.0591286 0 -0.0441072 0.0295102 0 -0.0443432 9.83477e-07 0 97.6783 -6.19888e-06 0 74.432 501.549 0 35.7099 799.571 0 12.1713 920.21 0 -0.55156 947.276 0 -7.60571 928.187 0 -11.5063 886.607 0 -13.672 834.683 0 -14.7959 778.776 0 -15.2749 722.377 0 -15.3402 667.413 0 -15.1343 614.94 0 -14.7496 565.503 0 -14.248 519.343 0 -13.672 476.512 0 -13.0518 436.954 0 -12.4088 400.542 0 -11.7586 367.111 0 -11.1126 336.476 0 -10.4789 308.444 0 -9.86325 282.821 0 -9.26989 259.419 0 -8.70147 238.056 0 -8.15972 218.562 0 -7.64556 200.775 0 -7.15928 184.546 0 -6.70074 169.738 0 -6.26944 156.221 0 -5.8646 143.881 0 -5.48527 132.61 0 -5.13037 122.309 0 -4.79874 112.892 0 -4.48915 104.276 0 -4.20038 96.3879 0 -3.93119 89.1618 0 -3.68038 82.5372 0 -3.44677 76.4594 0 -3.22921 70.879 0 -3.02663 65.7512 0 -2.83798 61.0355 0 -2.6623 56.6954 0 -2.49867 52.6977 0 -2.3462 49.0123 0 -2.20411 45.6123 0 -2.07163 42.4729 0 -1.94806 39.5718 0 -1.83275 36.889 0 -1.72509 34.4061 0 -1.62452 32.1065 0 -1.53053 29.975 0 -1.44263 27.9981 0 -1.36038 26.1631 0 -1.28337 24.4588 0 -1.21123 22.8747 0 -1.14361 21.4016 0 -1.08018 20.0307 0 -1.02065 18.7543 0 -0.964748 17.565 0 -0.912223 16.4564 0 -0.862842 15.4225 0 -0.816392 14.4576 0 -0.772674 13.5569 0 -0.731505 12.7155 0 -0.69272 11.9292 0 -0.656158 11.1941 0 -0.621679 10.5067 0 -0.589146 9.86342 0 -0.558438 9.26134 0 -0.529438 8.69758 0 -0.502044 8.16953 0 -0.476158 7.67474 0 -0.451681 7.21098 0 -0.428535 6.77617 0 -0.406639 6.36837 0 -0.38592 5.9858 0 -0.366306 5.62681 0 -0.347737 5.28984 0 -0.330154 4.97346 0 -0.313497 4.67636 0 -0.297716 4.39727 0 -0.282765 4.13505 0 -0.268595 3.88863 0 -0.255166 3.65698 0 -0.242436 3.43919 0 -0.230368 3.23438 0 -0.21893 3.04173 0 -0.208085 2.86047 0 -0.197804 2.68989 0 -0.188057 2.52934 0 -0.178818 2.37817 0 -0.170061 2.2358 0 -0.161762 2.1017 0 -0.153897 1.97534 0 -0.146449 1.85623 0 -0.139392 1.74394 0 -0.132711 1.63803 0 -0.126388 1.5381 0 -0.120403 1.44379 0 -0.114746 1.35473 0 -0.109399 1.27059 0 -0.104347 1.19107 0 -0.0995801 1.11586 0 -0.0950858 1.04469 0 -0.0908492 0.977301 0 -0.0868642 0.913441 0 -0.0831198 0.852873 0 -0.0796061 0.795382 0 -0.0763136 0.740752 0 -0.0732353 0.688789 0 -0.0703649 0.639302 0 -0.0676952 0.59211 0 -0.0652192 0.547043 0 -0.062933 0.503941 0 -0.060831 0.462646 0 -0.058909 0.423008 0 -0.0571617 0.384887 0 -0.0555876 0.348146 0 -0.0541829 0.31265 0 -0.052947 0.278275 0 -0.051874 0.244896 0 -0.05097 0.212396 0 -0.0502265 0.180655 0 -0.0496486 0.149563 0 -0.0492361 0.119008 0 -0.0489864 0.0888811 0 -0.0489063 0.0590742 0 -0.0489927 0.0294823 0 -0.0492544 1.13249e-06 0 107.527 4.76837e-07 0 81.8839 502.308 0 39.2496 800.247 0 13.3689 920.596 0 -0.618529 947.491 0 -8.37331 928.302 0 -12.6611 886.666 0 -15.0418 834.708 0 -16.2772 778.779 0 -16.8035 722.365 0 -16.8749 667.391 0 -16.6481 614.912 0 -16.2247 565.47 0 -15.6727 519.307 0 -15.0391 476.475 0 -14.3567 436.915 0 -13.6494 400.502 0 -12.9341 367.071 0 -12.2234 336.437 0 -11.5263 308.405 0 -10.8491 282.783 0 -10.1964 259.382 0 -9.57112 238.021 0 -8.97519 218.527 0 -8.40961 200.742 0 -7.8747 184.514 0 -7.37032 169.707 0 -6.89589 156.192 0 -6.45057 143.853 0 -6.03333 132.583 0 -5.64294 122.284 0 -5.27816 112.868 0 -4.93763 104.253 0 -4.62 96.3664 0 -4.32391 89.1415 0 -4.04803 82.5179 0 -3.79107 76.4411 0 -3.55177 70.8617 0 -3.32894 65.7348 0 -3.12145 61.02 0 -2.92822 56.6807 0 -2.74823 52.6838 0 -2.58054 48.9992 0 -2.42425 45.5998 0 -2.27853 42.4611 0 -2.14262 39.5607 0 -2.01579 36.8785 0 -1.89737 34.3961 0 -1.78676 32.097 0 -1.68338 29.966 0 -1.58669 27.9895 0 -1.49623 26.155 0 -1.41153 24.4511 0 -1.33218 22.8674 0 -1.2578 21.3946 0 -1.18804 20.0241 0 -1.12256 18.748 0 -1.06108 17.559 0 -1.00331 16.4507 0 -0.948996 15.4171 0 -0.897906 14.4525 0 -0.849821 13.5519 0 -0.804542 12.7108 0 -0.761882 11.9247 0 -0.721669 11.1899 0 -0.683746 10.5026 0 -0.647965 9.85956 0 -0.614189 9.25765 0 -0.58