<?xml version="1.0"?> 
<VTKFile type="StructuredGrid" version="0.1"> 
<StructuredGrid WholeExtent="0 127 0 127 0 0"> 
<Piece Extent="0 127 0 127 0 0"> 
<PointData>
<DataArray type="Float32" Name="|E|" format="ascii" NumberOfComponents="3"> 
-1.66697e+06 0 0 -1.66699e+06 7455.79 0 -1.66706e+06 14912 0 -1.66717e+06 22368.9 0 -1.66732e+06 29826.9 0 -1.66752e+06 37286.5 0 -1.66777e+06 44748 0 -1.66806e+06 52211.7 0 -1.66839e+06 59678.1 0 -1.66876e+06 67147.5 0 -1.66919e+06 74620.3 0 -1.66965e+06 82096.9 0 -1.67016e+06 89577.7 0 -1.67071e+06 97063 0 -1.67131e+06 104553 0 -1.67195e+06 112049 0 -1.67264e+06 119550 0 -1.67337e+06 127058 0 -1.67414e+06 134571 0 -1.67496e+06 142092 0 -1.67582e+06 149620 0 -1.67673e+06 157155 0 -1.67768e+06 164699 0 -1.67867e+06 172251 0 -1.67971e+06 179812 0 -1.68079e+06 187382 0 -1.68192e+06 194961 0 -1.68308e+06 202550 0 -1.6843e+06 210150 0 -1.68555e+06 217761 0 -1.68685e+06 225382 0 -1.68819e+06 233015 0 -1.68957e+06 240660 0 -1.691e+06 248318 0 -1.69247e+06 255988 0 -1.69399e+06 263671 0 -1.69554e+06 271368 0 -1.69714e+06 279078 0 -1.69878e+06 286803 0 -1.70047e+06 294543 0 -1.70219e+06 302298 0 -1.70396e+06 310068 0 -1.70577e+06 317854 0 -1.70763e+06 325657 0 -1.70952e+06 333476 0 -1.71146e+06 341312 0 -1.71344e+06 349167 0 -1.71546e+06 357039 0 -1.71752e+06 364929 0 -1.71962e+06 372838 0 -1.72176e+06 380767 0 -1.72394e+06 388715 0 -1.72617e+06 396683 0 -1.72843e+06 404672 0 -1.73074e+06 412682 0 -1.73308e+06 420713 0 -1.73547e+06 428766 0 -1.73789e+06 436841 0 -1.74036e+06 444939 0 -1.74286e+06 453059 0 -1.7454e+06 461203 0 -1.74798e+06 469371 0 -1.7506e+06 477564 0 -1.75325e+06 485781 0 -1.75595e+06 494023 0 -1.75868e+06 502291 0 -1.76145e+06 510585 0 -1.76425e+06 518906 0 -1.7671e+06 527253 0 -1.76997e+06 535628 0 -1.77289e+06 544031 0 -1.77584e+06 552462 0 -1.77882e+06 560921 0 -1.78184e+06 569410 0 -1.7849e+06 577928 0 -1.78798e+06 586476 0 -1.7911e+06 595054 0 -1.79426e+06 603663 0 -1.79745e+06 612303 0 -1.80066e+06 620975 0 -1.80391e+06 629679 0 -1.80719e+06 638415 0 -1.81051e+06 647185 0 -1.81385e+06 655987 0 -1.81722e+06 664823 0 -1.82062e+06 673694 0 -1.82404e+06 682598 0 -1.8275e+06 691538 0 -1.83098e+06 700513 0 -1.83449e+06 709523 0 -1.83802e+06 718569 0 -1.84158e+06 727652 0 -1.84516e+06 736771 0 -1.84877e+06 745927 0 -1.85239e+06 755121 0 -1.85604e+06 764352 0 -1.85971e+06 773621 0 -1.8634e+06 782929 0 -1.8671e+06 792274 0 -1.87083e+06 801659 0 -1.87457e+06 811083 0 -1.87833e+06 820545 0 -1.8821e+06 830048 0 -1.88588e+06 839589 0 -1.88968e+06 849171 0 -1.89348e+06 858792 0 -1.8973e+06 868453 0 -1.90113e+06 878155 0 -1.90496e+06 887896 0 -1.9088e+06 897677 0 -1.91264e+06 907499 0 -1.91649e+06 917360 0 -1.92033e+06 927261 0 -1.92418e+06 937202 0 -1.92803e+06 947183 0 -1.93187e+06 957202 0 -1.9357e+06 967261 0 -1.93953e+06 977358 0 -1.94335e+06 987494 0 -1.94716e+06 997667 0 -1.95096e+06 1.00788e+06 0 -1.95474e+06 1.01812e+06 0 -1.95851e+06 1.02841e+06 0 -1.96226e+06 1.03872e+06 0 -1.96599e+06 1.04907e+06 0 -1.96969e+06 1.05946e+06 0 -1.97337e+06 1.06988e+06 0 -1.97702e+06 1.08032e+06 0 -1.6643e+06 0 0 -1.66432e+06 7461.25 0 -1.66439e+06 14922.9 0 -1.6645e+06 22385.2 0 -1.66466e+06 29848.7 0 -1.66485e+06 37313.7 0 -1.6651e+06 44780.6 0 -1.66538e+06 52249.8 0 -1.66571e+06 59721.5 0 -1.66609e+06 67196.3 0 -1.66651e+06 74674.5 0 -1.66697e+06 82156.4 0 -1.66748e+06 89642.5 0 -1.66803e+06 97133.1 0 -1.66862e+06 104629 0 -1.66926e+06 112129 0 -1.66994e+06 119636 0 -1.67067e+06 127148 0 -1.67144e+06 134667 0 -1.67225e+06 142193 0 -1.67311e+06 149726 0 -1.67401e+06 157266 0 -1.67495e+06 164815 0 -1.67594e+06 172372 0 -1.67697e+06 179937 0 -1.67805e+06 187512 0 -1.67916e+06 195096 0 -1.68032e+06 202690 0 -1.68153e+06 210294 0 -1.68278e+06 217909 0 -1.68407e+06 225535 0 -1.6854e+06 233172 0 -1.68678e+06 240822 0 -1.6882e+06 248483 0 -1.68966e+06 256157 0 -1.69116e+06 263844 0 -1.69271e+06 271545 0 -1.6943e+06 279259 0 -1.69593e+06 286988 0 -1.69761e+06 294731 0 -1.69932e+06 302490 0 -1.70108e+06 310263 0 -1.70288e+06 318053 0 -1.70472e+06 325858 0 -1.70661e+06 333681 0 -1.70853e+06 341520 0 -1.7105e+06 349377 0 -1.71251e+06 357252 0 -1.71455e+06 365145 0 -1.71664e+06 373057 0 -1.71877e+06 380987 0 -1.72094e+06 388938 0 -1.72316e+06 396908 0 -1.72541e+06 404898 0 -1.7277e+06 412910 0 -1.73003e+06 420942 0 -1.7324e+06 428996 0 -1.73481e+06 437072 0 -1.73726e+06 445171 0 -1.73975e+06 453292 0 -1.74227e+06 461437 0 -1.74484e+06 469606 0 -1.74744e+06 477798 0 -1.75008e+06 486015 0 -1.75276e+06 494257 0 -1.75547e+06 502525 0 -1.75823e+06 510818 0 -1.76101e+06 519138 0 -1.76384e+06 527484 0 -1.7667e+06 535858 0 -1.7696e+06 544259 0 -1.77253e+06 552688 0 -1.7755e+06 561145 0 -1.7785e+06 569631 0 -1.78153e+06 578146 0 -1.7846e+06 586691 0 -1.7877e+06 595266 0 -1.79084e+06 603872 0 -1.79401e+06 612508 0 -1.79721e+06 621176 0 -1.80044e+06 629876 0 -1.8037e+06 638607 0 -1.80699e+06 647371 0 -1.81031e+06 656168 0 -1.81366e+06 664999 0 -1.81704e+06 673863 0 -1.82045e+06 682761 0 -1.82388e+06 691693 0 -1.82734e+06 700661 0 -1.83083e+06 709664 0 -1.83434e+06 718702 0 -1.83788e+06 727776 0 -1.84144e+06 736886 0 -1.84502e+06 746033 0 -1.84863e+06 755217 0 -1.85226e+06 764438 0 -1.8559e+06 773696 0 -1.85957e+06 782992 0 -1.86326e+06 792327 0 -1.86696e+06 801699 0 -1.87068e+06 811110 0 -1.87441e+06 820560 0 -1.87816e+06 830048 0 -1.88193e+06 839576 0 -1.8857e+06 849142 0 -1.88949e+06 858748 0 -1.89328e+06 868393 0 -1.89709e+06 878078 0 -1.9009e+06 887802 0 -1.90472e+06 897566 0 -1.90854e+06 907369 0 -1.91237e+06 917212 0 -1.9162e+06 927093 0 -1.92002e+06 937014 0 -1.92385e+06 946974 0 -1.92767e+06 956972 0 -1.93149e+06 967008 0 -1.9353e+06 977083 0 -1.93911e+06 987194 0 -1.9429e+06 997343 0 -1.94668e+06 1.00753e+06 0 -1.95045e+06 1.01775e+06 0 -1.9542e+06 1.02801e+06 0 -1.95793e+06 1.0383e+06 0 -1.96165e+06 1.04862e+06 0 -1.96534e+06 1.05898e+06 0 -1.96901e+06 1.06936e+06 0 -1.97265e+06 1.07978e+06 0 -1.66163e+06 0 0 -1.66165e+06 7466.61 0 -1.66172e+06 14933.6 0 -1.66183e+06 22401.3 0 -1.66198e+06 29870.2 0 -1.66218e+06 37340.5 0 -1.66242e+06 44812.7 0 -1.66271e+06 52287.2 0 -1.66303e+06 59764.3 0 -1.66341e+06 67244.3 0 -1.66382e+06 74727.8 0 -1.66428e+06 82214.9 0 -1.66479e+06 89706.2 0 -1.66533e+06 97202 0 -1.66592e+06 104703 0 -1.66656e+06 112209 0 -1.66724e+06 119720 0 -1.66796e+06 127238 0 -1.66872e+06 134762 0 -1.66953e+06 142292 0 -1.67038e+06 149830 0 -1.67128e+06 157375 0 -1.67222e+06 164929 0 -1.6732e+06 172490 0 -1.67423e+06 180060 0 -1.67529e+06 187640 0 -1.67641e+06 195228 0 -1.67756e+06 202827 0 -1.67876e+06 210436 0 -1.68e+06 218055 0 -1.68128e+06 225685 0 -1.68261e+06 233327 0 -1.68397e+06 240980 0 -1.68539e+06 248646 0 -1.68684e+06 256324 0 -1.68834e+06 264015 0 -1.68987e+06 271719 0 -1.69145e+06 279437 0 -1.69308e+06 287170 0 -1.69474e+06 294916 0 -1.69645e+06 302678 0 -1.69819e+06 310455 0 -1.69998e+06 318248 0 -1.70182e+06 326056 0 -1.70369e+06 333882 0 -1.7056e+06 341724 0 -1.70756e+06 349584 0 -1.70955e+06 357461 0 -1.71159e+06 365356 0 -1.71367e+06 373270 0 -1.71578e+06 381203 0 -1.71794e+06 389155 0 -1.72014e+06 397128 0 -1.72238e+06 405120 0 -1.72465e+06 413133 0 -1.72697e+06 421167 0 -1.72933e+06 429222 0 -1.73172e+06 437299 0 -1.73416e+06 445398 0 -1.73663e+06 453521 0 -1.73914e+06 461666 0 -1.74169e+06 469835 0 -1.74428e+06 478027 0 -1.7469e+06 486244 0 -1.74956e+06 494486 0 -1.75226e+06 502753 0 -1.755e+06 511046 0 -1.75777e+06 519364 0 -1.76058e+06 527709 0 -1.76342e+06 536081 0 -1.7663e+06 544481 0 -1.76922e+06 552908 0 -1.77217e+06 561363 0 -1.77515e+06 569846 0 -1.77817e+06 578359 0 -1.78122e+06 586901 0 -1.7843e+06 595473 0 -1.78742e+06 604075 0 -1.79057e+06 612707 0 -1.79375e+06 621371 0 -1.79696e+06 630066 0 -1.8002e+06 638793 0 -1.80347e+06 647552 0 -1.80677e+06 656343 0 -1.81011e+06 665168 0 -1.81346e+06 674026 0 -1.81685e+06 682917 0 -1.82027e+06 691843 0 -1.82371e+06 700803 0 -1.82717e+06 709798 0 -1.83066e+06 718828 0 -1.83418e+06 727894 0 -1.83772e+06 736995 0 -1.84128e+06 746133 0 -1.84487e+06 755307 0 -1.84847e+06 764518 0 -1.8521e+06 773765 0 -1.85574e+06 783050 0 -1.85941e+06 792373 0 -1.86309e+06 801733 0 -1.86679e+06 811132 0 -1.8705e+06 820568 0 -1.87423e+06 830043 0 -1.87797e+06 839556 0 -1.88173e+06 849108 0 -1.88549e+06 858699 0 -1.88927e+06 868328 0 -1.89306e+06 877997 0 -1.89685e+06 887704 0 -1.90065e+06 897450 0 -1.90445e+06 907235 0 -1.90825e+06 917059 0 -1.91206e+06 926921 0 -1.91587e+06 936822 0 -1.91968e+06 946761 0 -1.92348e+06 956738 0 -1.92728e+06 966753 0 -1.93108e+06 976804 0 -1.93486e+06 986893 0 -1.93864e+06 997018 0 -1.94241e+06 1.00718e+06 0 -1.94616e+06 1.01737e+06 0 -1.9499e+06 1.0276e+06 0 -1.95361e+06 1.03787e+06 0 -1.95731e+06 1.04816e+06 0 -1.96099e+06 1.05849e+06 0 -1.96465e+06 1.06885e+06 0 -1.96828e+06 1.07924e+06 0 -1.65895e+06 0 0 -1.65898e+06 7471.88 0 -1.65904e+06 14944.1 0 -1.65915e+06 22417.1 0 -1.6593e+06 29891.2 0 -1.6595e+06 37366.8 0 -1.65974e+06 44844.3 0 -1.66002e+06 52324 0 -1.66035e+06 59806.3 0 -1.66072e+06 67291.5 0 -1.66113e+06 74780.1 0 -1.66159e+06 82272.4 0 -1.66209e+06 89768.8 0 -1.66264e+06 97269.7 0 -1.66322e+06 104775 0 -1.66385e+06 112286 0 -1.66453e+06 119803 0 -1.66525e+06 127325 0 -1.66601e+06 134854 0 -1.66681e+06 142390 0 -1.66766e+06 149932 0 -1.66855e+06 157482 0 -1.66948e+06 165040 0 -1.67046e+06 172607 0 -1.67148e+06 180181 0 -1.67254e+06 187765 0 -1.67364e+06 195358 0 -1.67479e+06 202961 0 -1.67598e+06 210574 0 -1.67721e+06 218198 0 -1.67849e+06 225833 0 -1.67981e+06 233478 0 -1.68117e+06 241136 0 -1.68257e+06 248805 0 -1.68401e+06 256487 0 -1.6855e+06 264182 0 -1.68703e+06 271890 0 -1.6886e+06 279612 0 -1.69022e+06 287348 0 -1.69187e+06 295098 0 -1.69357e+06 302863 0 -1.6953e+06 310643 0 -1.69708e+06 318439 0 -1.6989e+06 326251 0 -1.70076e+06 334079 0 -1.70267e+06 341924 0 -1.70461e+06 349786 0 -1.70659e+06 357666 0 -1.70862e+06 365563 0 -1.71068e+06 373480 0 -1.71279e+06 381415 0 -1.71493e+06 389369 0 -1.71712e+06 397343 0 -1.71934e+06 405337 0 -1.72161e+06 413351 0 -1.72391e+06 421386 0 -1.72625e+06 429443 0 -1.72863e+06 437521 0 -1.73105e+06 445621 0 -1.73351e+06 453744 0 -1.73601e+06 461889 0 -1.73854e+06 470058 0 -1.74111e+06 478251 0 -1.74372e+06 486468 0 -1.74637e+06 494709 0 -1.74905e+06 502976 0 -1.75177e+06 511267 0 -1.75453e+06 519585 0 -1.75732e+06 527929 0 -1.76015e+06 536299 0 -1.76301e+06 544697 0 -1.7659e+06 553122 0 -1.76884e+06 561575 0 -1.7718e+06 570056 0 -1.7748e+06 578566 0 -1.77783e+06 587105 0 -1.7809e+06 595673 0 -1.784e+06 604271 0 -1.78713e+06 612900 0 -1.79029e+06 621559 0 -1.79348e+06 630250 0 -1.7967e+06 638972 0 -1.79996e+06 647726 0 -1.80324e+06 656512 0 -1.80655e+06 665330 0 -1.80989e+06 674182 0 -1.81325e+06 683067 0 -1.81665e+06 691986 0 -1.82007e+06 700939 0 -1.82351e+06 709926 0 -1.82699e+06 718948 0 -1.83048e+06 728005 0 -1.834e+06 737098 0 -1.83754e+06 746226 0 -1.84111e+06 755391 0 -1.84469e+06 764591 0 -1.8483e+06 773828 0 -1.85192e+06 783102 0 -1.85556e+06 792413 0 -1.85923e+06 801762 0 -1.8629e+06 811147 0 -1.8666e+06 820571 0 -1.8703e+06 830032 0 -1.87403e+06 839532 0 -1.87776e+06 849069 0 -1.8815e+06 858645 0 -1.88526e+06 868258 0 -1.88902e+06 877911 0 -1.8928e+06 887601 0 -1.89657e+06 897330 0 -1.90036e+06 907097 0 -1.90414e+06 916902 0 -1.90793e+06 926745 0 -1.91172e+06 936626 0 -1.91551e+06 946545 0 -1.9193e+06 956501 0 -1.92308e+06 966494 0 -1.92686e+06 976523 0 -1.93063e+06 986589 0 -1.93439e+06 996690 0 -1.93814e+06 1.00683e+06 0 -1.94187e+06 1.017e+06 0 -1.9456e+06 1.0272e+06 0 -1.9493e+06 1.03744e+06 0 -1.95299e+06 1.04771e+06 0 -1.95666e+06 1.05801e+06 0 -1.9603e+06 1.06834e+06 0 -1.96392e+06 1.0787e+06 0 -1.65627e+06 0 0 -1.65629e+06 7477.07 0 -1.65636e+06 14954.5 0 -1.65647e+06 22432.7 0 -1.65662e+06 29912 0 -1.65681e+06 37392.7 0 -1.65705e+06 44875.3 0 -1.65733e+06 52360.1 0 -1.65766e+06 59847.5 0 -1.65803e+06 67337.9 0 -1.65844e+06 74831.5 0 -1.65889e+06 82328.9 0 -1.65939e+06 89830.4 0 -1.65993e+06 97336.2 0 -1.66052e+06 104847 0 -1.66114e+06 112363 0 -1.66181e+06 119884 0 -1.66253e+06 127412 0 -1.66328e+06 134945 0 -1.66408e+06 142486 0 -1.66492e+06 150033 0 -1.66581e+06 157588 0 -1.66674e+06 165150 0 -1.66771e+06 172721 0 -1.66872e+06 180300 0 -1.66978e+06 187889 0 -1.67087e+06 195486 0 -1.67202e+06 203093 0 -1.6732e+06 210711 0 -1.67442e+06 218339 0 -1.67569e+06 225977 0 -1.677e+06 233627 0 -1.67835e+06 241289 0 -1.67975e+06 248962 0 -1.68119e+06 256648 0 -1.68266e+06 264346 0 -1.68418e+06 272058 0 -1.68575e+06 279783 0 -1.68735e+06 287522 0 -1.68899e+06 295276 0 -1.69068e+06 303044 0 -1.69241e+06 310827 0 -1.69418e+06 318626 0 -1.69599e+06 326441 0 -1.69784e+06 334272 0 -1.69973e+06 342119 0 -1.70166e+06 349984 0 -1.70363e+06 357866 0 -1.70564e+06 365766 0 -1.7077e+06 373685 0 -1.70979e+06 381622 0 -1.71192e+06 389578 0 -1.71409e+06 397553 0 -1.7163e+06 405549 0 -1.71856e+06 413565 0 -1.72084e+06 421601 0 -1.72317e+06 429658 0 -1.72554e+06 437737 0 -1.72795e+06 445838 0 -1.73039e+06 453962 0 -1.73287e+06 462108 0 -1.73539e+06 470277 0 -1.73795e+06 478469 0 -1.74054e+06 486686 0 -1.74317e+06 494927 0 -1.74584e+06 503193 0 -1.74854e+06 511484 0 -1.75128e+06 519800 0 -1.75405e+06 528143 0 -1.75686e+06 536512 0 -1.75971e+06 544907 0 -1.76259e+06 553330 0 -1.7655e+06 561781 0 -1.76845e+06 570260 0 -1.77143e+06 578767 0 -1.77445e+06 587302 0 -1.77749e+06 595868 0 -1.78057e+06 604462 0 -1.78368e+06 613087 0 -1.78683e+06 621742 0 -1.79e+06 630428 0 -1.7932e+06 639145 0 -1.79644e+06 647894 0 -1.7997e+06 656674 0 -1.80299e+06 665487 0 -1.80631e+06 674333 0 -1.80966e+06 683211 0 -1.81303e+06 692123 0 -1.81643e+06 701069 0 -1.81986e+06 710048 0 -1.82331e+06 719062 0 -1.82678e+06 728111 0 -1.83028e+06 737195 0 -1.8338e+06 746314 0 -1.83735e+06 755468 0 -1.84091e+06 764659 0 -1.84449e+06 773885 0 -1.8481e+06 783148 0 -1.85172e+06 792448 0 -1.85536e+06 801784 0 -1.85902e+06 811158 0 -1.86269e+06 820568 0 -1.86638e+06 830016 0 -1.87008e+06 839501 0 -1.87379e+06 849024 0 -1.87752e+06 858585 0 -1.88125e+06 868183 0 -1.885e+06 877820 0 -1.88875e+06 887493 0 -1.89251e+06 897205 0 -1.89627e+06 906954 0 -1.90004e+06 916741 0 -1.90381e+06 926565 0 -1.90758e+06 936427 0 -1.91135e+06 946325 0 -1.91512e+06 956260 0 -1.91888e+06 966232 0 -1.92264e+06 976239 0 -1.92639e+06 986282 0 -1.93014e+06 996360 0 -1.93387e+06 1.00647e+06 0 -1.93759e+06 1.01662e+06 0 -1.9413e+06 1.0268e+06 0 -1.94499e+06 1.03701e+06 0 -1.94867e+06 1.04725e+06 0 -1.95232e+06 1.05753e+06 0 -1.95595e+06 1.06783e+06 0 -1.95956e+06 1.07816e+06 0 -1.65358e+06 0 0 -1.65361e+06 7482.16 0 -1.65367e+06 14964.7 0 -1.65378e+06 22447.9 0 -1.65393e+06 29932.3 0 -1.65412e+06 37418.1 0 -1.65436e+06 44905.8 0 -1.65464e+06 52395.6 0 -1.65496e+06 59888.1 0 -1.65533e+06 67383.4 0 -1.65574e+06 74882.1 0 -1.65619e+06 82384.4 0 -1.65668e+06 89890.8 0 -1.65722e+06 97401.6 0 -1.6578e+06 104917 0 -1.65843e+06 112438 0 -1.65909e+06 119964 0 -1.6598e+06 127496 0 -1.66055e+06 135035 0 -1.66135e+06 142580 0 -1.66219e+06 150132 0 -1.66306e+06 157691 0 -1.66399e+06 165258 0 -1.66495e+06 172833 0 -1.66596e+06 180417 0 -1.66701e+06 188010 0 -1.6681e+06 195612 0 -1.66923e+06 203223 0 -1.67041e+06 210845 0 -1.67163e+06 218477 0 -1.67289e+06 226119 0 -1.67419e+06 233773 0 -1.67554e+06 241438 0 -1.67692e+06 249116 0 -1.67835e+06 256805 0 -1.67982e+06 264507 0 -1.68133e+06 272223 0 -1.68289e+06 279951 0 -1.68448e+06 287694 0 -1.68611e+06 295451 0 -1.68779e+06 303222 0 -1.68951e+06 311008 0 -1.69127e+06 318810 0 -1.69306e+06 326627 0 -1.6949e+06 334461 0 -1.69678e+06 342311 0 -1.6987e+06 350178 0 -1.70067e+06 358063 0 -1.70267e+06 365965 0 -1.70471e+06 373886 0 -1.70679e+06 381824 0 -1.70891e+06 389782 0 -1.71106e+06 397760 0 -1.71326e+06 405756 0 -1.7155e+06 413773 0 -1.71778e+06 421811 0 -1.72009e+06 429870 0 -1.72244e+06 437949 0 -1.72483e+06 446051 0 -1.72726e+06 454175 0 -1.72973e+06 462321 0 -1.73223e+06 470490 0 -1.73478e+06 478683 0 -1.73735e+06 486899 0 -1.73997e+06 495140 0 -1.74262e+06 503405 0 -1.74531e+06 511695 0 -1.74803e+06 520010 0 -1.75079e+06 528351 0 -1.75358e+06 536718 0 -1.75641e+06 545112 0 -1.75927e+06 553533 0 -1.76217e+06 561981 0 -1.7651e+06 570457 0 -1.76806e+06 578962 0 -1.77106e+06 587494 0 -1.77409e+06 596056 0 -1.77715e+06 604647 0 -1.78024e+06 613268 0 -1.78336e+06 621919 0 -1.78652e+06 630600 0 -1.7897e+06 639312 0 -1.79292e+06 648056 0 -1.79616e+06 656831 0 -1.79943e+06 665638 0 -1.80273e+06 674477 0 -1.80606e+06 683349 0 -1.80941e+06 692254 0 -1.81279e+06 701192 0 -1.8162e+06 710164 0 -1.81963e+06 719170 0 -1.82308e+06 728210 0 -1.82656e+06 737285 0 -1.83006e+06 746395 0 -1.83359e+06 755540 0 -1.83713e+06 764721 0 -1.84069e+06 773937 0 -1.84428e+06 783189 0 -1.84788e+06 792477 0 -1.8515e+06 801801 0 -1.85514e+06 811162 0 -1.85879e+06 820560 0 -1.86245e+06 829994 0 -1.86613e+06 839466 0 -1.86983e+06 848975 0 -1.87353e+06 858520 0 -1.87725e+06 868103 0 -1.88097e+06 877724 0 -1.8847e+06 887381 0 -1.88844e+06 897075 0 -1.89219e+06 906807 0 -1.89593e+06 916576 0 -1.89969e+06 926381 0 -1.90344e+06 936223 0 -1.90719e+06 946102 0 -1.91094e+06 956016 0 -1.91469e+06 965966 0 -1.91843e+06 975952 0 -1.92217e+06 985973 0 -1.9259e+06 996027 0 -1.92961e+06 1.00612e+06 0 -1.93332e+06 1.01624e+06 0 -1.93701e+06 1.02639e+06 0 -1.94069e+06 1.03658e+06 0 -1.94435e+06 1.0468e+06 0 -1.948e+06 1.05704e+06 0 -1.95162e+06 1.06732e+06 0 -1.95521e+06 1.07762e+06 0 -1.65089e+06 0 0 -1.65091e+06 7487.16 0 -1.65098e+06 14974.7 0 -1.65108e+06 22462.9 0 -1.65123e+06 29952.3 0 -1.65143e+06 37443.1 0 -1.65166e+06 44935.7 0 -1.65194e+06 52430.5 0 -1.65226e+06 59927.9 0 -1.65263e+06 67428.1 0 -1.65303e+06 74931.7 0 -1.65348e+06 82438.9 0 -1.65397e+06 89950.1 0 -1.65451e+06 97465.7 0 -1.65508e+06 104986 0 -1.6557e+06 112512 0 -1.65637e+06 120042 0 -1.65707e+06 127579 0 -1.65782e+06 135122 0 -1.65861e+06 142672 0 -1.65944e+06 150228 0 -1.66032e+06 157792 0 -1.66123e+06 165364 0 -1.66219e+06 172944 0 -1.66319e+06 180532 0 -1.66424e+06 188129 0 -1.66532e+06 195735 0 -1.66645e+06 203350 0 -1.66762e+06 210976 0 -1.66883e+06 218612 0 -1.67008e+06 226259 0 -1.67138e+06 233916 0 -1.67272e+06 241585 0 -1.67409e+06 249266 0 -1.67551e+06 256960 0 -1.67697e+06 264665 0 -1.67848e+06 272384 0 -1.68002e+06 280116 0 -1.6816e+06 287862 0 -1.68323e+06 295622 0 -1.6849e+06 303396 0 -1.6866e+06 311185 0 -1.68835e+06 318990 0 -1.69014e+06 326810 0 -1.69197e+06 334646 0 -1.69384e+06 342499 0 -1.69575e+06 350369 0 -1.69769e+06 358255 0 -1.69968e+06 366160 0 -1.70171e+06 374082 0 -1.70378e+06 382023 0 -1.70589e+06 389982 0 -1.70803e+06 397961 0 -1.71022e+06 405959 0 -1.71244e+06 413978 0 -1.7147e+06 422016 0 -1.717e+06 430076 0 -1.71934e+06 438156 0 -1.72172e+06 446259 0 -1.72413e+06 454383 0 -1.72659e+06 462529 0 -1.72908e+06 470698 0 -1.7316e+06 478891 0 -1.73416e+06 487107 0 -1.73676e+06 495347 0 -1.7394e+06 503611 0 -1.74207e+06 511900 0 -1.74478e+06 520214 0 -1.74752e+06 528554 0 -1.75029e+06 536920 0 -1.75311e+06 545312 0 -1.75595e+06 553730 0 -1.75883e+06 562176 0 -1.76174e+06 570649 0 -1.76469e+06 579151 0 -1.76767e+06 587680 0 -1.77068e+06 596239 0 -1.77372e+06 604826 0 -1.7768e+06 613443 0 -1.7799e+06 622089 0 -1.78304e+06 630766 0 -1.7862e+06 639473 0 -1.7894e+06 648211 0 -1.79262e+06 656981 0 -1.79587e+06 665782 0 -1.79915e+06 674615 0 -1.80246e+06 683481 0 -1.8058e+06 692379 0 -1.80916e+06 701310 0 -1.81254e+06 710274 0 -1.81595e+06 719272 0 -1.81939e+06 728304 0 -1.82285e+06 737370 0 -1.82633e+06 746471 0 -1.82983e+06 755606 0 -1.83335e+06 764776 0 -1.83689e+06 773982 0 -1.84046e+06 783223 0 -1.84404e+06 792500 0 -1.84764e+06 801812 0 -1.85125e+06 811161 0 -1.85489e+06 820546 0 -1.85853e+06 829967 0 -1.86219e+06 839425 0 -1.86587e+06 848920 0 -1.86955e+06 858451 0 -1.87325e+06 868018 0 -1.87695e+06 877623 0 -1.88066e+06 887264 0 -1.88438e+06 896941 0 -1.88811e+06 906656 0 -1.89184e+06 916406 0 -1.89557e+06 926193 0 -1.8993e+06 936016 0 -1.90304e+06 945875 0 -1.90677e+06 955769 0 -1.9105e+06 965698 0 -1.91423e+06 975662 0 -1.91795e+06 985661 0 -1.92166e+06 995693 0 -1.92536e+06 1.00576e+06 0 -1.92905e+06 1.01586e+06 0 -1.93273e+06 1.02599e+06 0 -1.9364e+06 1.03615e+06 0 -1.94005e+06 1.04634e+06 0 -1.94367e+06 1.05656e+06 0 -1.94728e+06 1.06681e+06 0 -1.95087e+06 1.07708e+06 0 -1.64819e+06 0 0 -1.64821e+06 7492.07 0 -1.64828e+06 14984.5 0 -1.64838e+06 22477.7 0 -1.64853e+06 29971.9 0 -1.64872e+06 37467.6 0 -1.64896e+06 44965.1 0 -1.64923e+06 52464.7 0 -1.64955e+06 59967 0 -1.64992e+06 67472.1 0 -1.65032e+06 74980.4 0 -1.65077e+06 82492.4 0 -1.65126e+06 90008.4 0 -1.65179e+06 97528.7 0 -1.65236e+06 105054 0 -1.65298e+06 112584 0 -1.65364e+06 120119 0 -1.65434e+06 127661 0 -1.65508e+06 135208 0 -1.65586e+06 142763 0 -1.65669e+06 150324 0 -1.65756e+06 157892 0 -1.65847e+06 165468 0 -1.65943e+06 173052 0 -1.66042e+06 180644 0 -1.66146e+06 188245 0 -1.66254e+06 195856 0 -1.66366e+06 203475 0 -1.66482e+06 211105 0 -1.66603e+06 218745 0 -1.66727e+06 226395 0 -1.66856e+06 234057 0 -1.66989e+06 241730 0 -1.67126e+06 249414 0 -1.67267e+06 257111 0 -1.67412e+06 264820 0 -1.67562e+06 272542 0 -1.67715e+06 280277 0 -1.67872e+06 288026 0 -1.68034e+06 295789 0 -1.682e+06 303567 0 -1.68369e+06 311359 0 -1.68543e+06 319166 0 -1.68721e+06 326989 0 -1.68903e+06 334828 0 -1.69088e+06 342683 0 -1.69278e+06 350555 0 -1.69472e+06 358444 0 -1.6967e+06 366350 0 -1.69871e+06 374274 0 -1.70077e+06 382217 0 -1.70286e+06 390178 0 -1.705e+06 398158 0 -1.70717e+06 406158 0 -1.70938e+06 414177 0 -1.71163e+06 422217 0 -1.71391e+06 430277 0 -1.71624e+06 438359 0 -1.7186e+06 446461 0 -1.721e+06 454586 0 -1.72344e+06 462732 0 -1.72591e+06 470902 0 -1.72842e+06 479094 0 -1.73097e+06 487309 0 -1.73356e+06 495549 0 -1.73618e+06 503812 0 -1.73883e+06 512100 0 -1.74152e+06 520413 0 -1.74425e+06 528751 0 -1.74701e+06 537115 0 -1.7498e+06 545505 0 -1.75263e+06 553922 0 -1.75549e+06 562365 0 -1.75839e+06 570836 0 -1.76132e+06 579334 0 -1.76428e+06 587860 0 -1.76727e+06 596415 0 -1.77029e+06 604999 0 -1.77335e+06 613612 0 -1.77644e+06 622254 0 -1.77955e+06 630926 0 -1.7827e+06 639628 0 -1.78588e+06 648361 0 -1.78908e+06 657125 0 -1.79232e+06 665920 0 -1.79558e+06 674747 0 -1.79886e+06 683606 0 -1.80218e+06 692497 0 -1.80552e+06 701421 0 -1.80889e+06 710378 0 -1.81228e+06 719368 0 -1.81569e+06 728391 0 -1.81913e+06 737449 0 -1.82259e+06 746540 0 -1.82607e+06 755666 0 -1.82957e+06 764826 0 -1.8331e+06 774021 0 -1.83664e+06 783252 0 -1.8402e+06 792517 0 -1.84378e+06 801818 0 -1.84738e+06 811154 0 -1.85099e+06 820527 0 -1.85461e+06 829935 0 -1.85825e+06 839379 0 -1.86191e+06 848859 0 -1.86557e+06 858376 0 -1.86925e+06 867928 0 -1.87293e+06 877517 0 -1.87662e+06 887142 0 -1.88032e+06 896803 0 -1.88403e+06 906500 0 -1.88774e+06 916233 0 -1.89145e+06 926001 0 -1.89517e+06 935805 0 -1.89889e+06 945644 0 -1.9026e+06 955518 0 -1.90632e+06 965427 0 -1.91002e+06 975370 0 -1.91373e+06 985346 0 -1.91742e+06 995356 0 -1.92111e+06 1.0054e+06 0 -1.92479e+06 1.01547e+06 0 -1.92845e+06 1.02558e+06 0 -1.93211e+06 1.03571e+06 0 -1.93574e+06 1.04588e+06 0 -1.93936e+06 1.05607e+06 0 -1.94296e+06 1.0663e+06 0 -1.94653e+06 1.07654e+06 0 -1.64549e+06 0 0 -1.64551e+06 7496.89 0 -1.64557e+06 14994.1 0 -1.64568e+06 22492.1 0 -1.64583e+06 29991.2 0 -1.64602e+06 37491.6 0 -1.64625e+06 44993.9 0 -1.64652e+06 52498.4 0 -1.64684e+06 60005.3 0 -1.6472e+06 67515.2 0 -1.6476e+06 75028.2 0 -1.64805e+06 82544.9 0 -1.64853e+06 90065.6 0 -1.64906e+06 97590.5 0 -1.64963e+06 105120 0 -1.65024e+06 112655 0 -1.6509e+06 120195 0 -1.6516e+06 127741 0 -1.65233e+06 135293 0 -1.65312e+06 142851 0 -1.65394e+06 150417 0 -1.6548e+06 157990 0 -1.65571e+06 165570 0 -1.65666e+06 173158 0 -1.65765e+06 180754 0 -1.65868e+06 188360 0 -1.65975e+06 195974 0 -1.66086e+06 203598 0 -1.66202e+06 211231 0 -1.66322e+06 218875 0 -1.66446e+06 226529 0 -1.66574e+06 234194 0 -1.66706e+06 241871 0 -1.66842e+06 249559 0 -1.66982e+06 257259 0 -1.67126e+06 264972 0 -1.67275e+06 272697 0 -1.67427e+06 280436 0 -1.67584e+06 288188 0 -1.67745e+06 295954 0 -1.67909e+06 303734 0 -1.68078e+06 311529 0 -1.68251e+06 319339 0 -1.68427e+06 327164 0 -1.68608e+06 335006 0 -1.68793e+06 342863 0 -1.68981e+06 350737 0 -1.69174e+06 358628 0 -1.69371e+06 366536 0 -1.69571e+06 374463 0 -1.69775e+06 382407 0 -1.69984e+06 390369 0 -1.70196e+06 398351 0 -1.70412e+06 406352 0 -1.70631e+06 414373 0 -1.70855e+06 422413 0 -1.71082e+06 430474 0 -1.71313e+06 438556 0 -1.71548e+06 446659 0 -1.71787e+06 454784 0 -1.72029e+06 462931 0 -1.72275e+06 471100 0 -1.72525e+06 479292 0 -1.72778e+06 487507 0 -1.73035e+06 495745 0 -1.73295e+06 504008 0 -1.73559e+06 512295 0 -1.73826e+06 520606 0 -1.74097e+06 528943 0 -1.74372e+06 537305 0 -1.74649e+06 545693 0 -1.74931e+06 554107 0 -1.75215e+06 562548 0 -1.75503e+06 571016 0 -1.75794e+06 579512 0 -1.76088e+06 588035 0 -1.76386e+06 596586 0 -1.76687e+06 605166 0 -1.7699e+06 613775 0 -1.77297e+06 622412 0 -1.77607e+06 631080 0 -1.7792e+06 639777 0 -1.78236e+06 648505 0 -1.78554e+06 657263 0 -1.78876e+06 666053 0 -1.792e+06 674873 0 -1.79527e+06 683726 0 -1.79856e+06 692610 0 -1.80188e+06 701526 0 -1.80523e+06 710476 0 -1.8086e+06 719458 0 -1.81199e+06 728473 0 -1.81541e+06 737521 0 -1.81885e+06 746604 0 -1.82231e+06 755720 0 -1.8258e+06 764870 0 -1.8293e+06 774055 0 -1.83282e+06 783274 0 -1.83636e+06 792529 0 -1.83992e+06 801818 0 -1.8435e+06 811142 0 -1.84709e+06 820502 0 -1.8507e+06 829897 0 -1.85432e+06 839328 0 -1.85795e+06 848794 0 -1.86159e+06 858296 0 -1.86525e+06 867833 0 -1.86892e+06 877407 0 -1.87259e+06 887015 0 -1.87627e+06 896660 0 -1.87996e+06 906340 0 -1.88365e+06 916055 0 -1.88735e+06 925805 0 -1.89104e+06 935590 0 -1.89474e+06 945410 0 -1.89844e+06 955264 0 -1.90214e+06 965153 0 -1.90583e+06 975074 0 -1.90952e+06 985029 0 -1.9132e+06 995017 0 -1.91687e+06 1.00504e+06 0 -1.92053e+06 1.01509e+06 0 -1.92418e+06 1.02517e+06 0 -1.92782e+06 1.03528e+06 0 -1.93144e+06 1.04542e+06 0 -1.93505e+06 1.05559e+06 0 -1.93864e+06 1.06578e+06 0 -1.9422e+06 1.07601e+06 0 -1.64278e+06 0 0 -1.6428e+06 7501.62 0 -1.64286e+06 15003.6 0 -1.64297e+06 22506.3 0 -1.64311e+06 30010.1 0 -1.6433e+06 37515.2 0 -1.64353e+06 45022.2 0 -1.64381e+06 52531.3 0 -1.64412e+06 60043 0 -1.64448e+06 67557.5 0 -1.64488e+06 75075.2 0 -1.64532e+06 82596.5 0 -1.64581e+06 90121.7 0 -1.64633e+06 97651.2 0 -1.6469e+06 105185 0 -1.64751e+06 112725 0 -1.64816e+06 120269 0 -1.64885e+06 127819 0 -1.64958e+06 135376 0 -1.65036e+06 142939 0 -1.65118e+06 150508 0 -1.65204e+06 158085 0 -1.65294e+06 165670 0 -1.65388e+06 173262 0 -1.65486e+06 180863 0 -1.65589e+06 188472 0 -1.65696e+06 196090 0 -1.65806e+06 203718 0 -1.65921e+06 211355 0 -1.6604e+06 219003 0 -1.66163e+06 226661 0 -1.66291e+06 234329 0 -1.66422e+06 242009 0 -1.66557e+06 249701 0 -1.66697e+06 257405 0 -1.6684e+06 265120 0 -1.66988e+06 272849 0 -1.67139e+06 280591 0 -1.67295e+06 288346 0 -1.67455e+06 296115 0 -1.67619e+06 303898 0 -1.67786e+06 311695 0 -1.67958e+06 319508 0 -1.68134e+06 327336 0 -1.68313e+06 335180 0 -1.68497e+06 343039 0 -1.68684e+06 350915 0 -1.68876e+06 358808 0 -1.69071e+06 366719 0 -1.6927e+06 374646 0 -1.69473e+06 382592 0 -1.6968e+06 390556 0 -1.69891e+06 398539 0 -1.70106e+06 406541 0 -1.70324e+06 414563 0 -1.70547e+06 422604 0 -1.70773e+06 430666 0 -1.71002e+06 438749 0 -1.71236e+06 446852 0 -1.71473e+06 454977 0 -1.71714e+06 463124 0 -1.71958e+06 471293 0 -1.72206e+06 479484 0 -1.72458e+06 487699 0 -1.72713e+06 495937 0 -1.72972e+06 504198 0 -1.73234e+06 512484 0 -1.735e+06 520794 0 -1.7377e+06 529129 0 -1.74042e+06 537490 0 -1.74318e+06 545876 0 -1.74598e+06 554288 0 -1.74881e+06 562726 0 -1.75167e+06 571191 0 -1.75456e+06 579684 0 -1.75749e+06 588203 0 -1.76045e+06 596751 0 -1.76343e+06 605327 0 -1.76645e+06 613932 0 -1.7695e+06 622565 0 -1.77258e+06 631228 0 -1.77569e+06 639920 0 -1.77883e+06 648643 0 -1.782e+06 657396 0 -1.7852e+06 666179 0 -1.78842e+06 674994 0 -1.79167e+06 683839 0 -1.79494e+06 692717 0 -1.79825e+06 701626 0 -1.80157e+06 710567 0 -1.80492e+06 719541 0 -1.8083e+06 728548 0 -1.8117e+06 737588 0 -1.81512e+06 746661 0 -1.81856e+06 755768 0 -1.82202e+06 764908 0 -1.82551e+06 774083 0 -1.82901e+06 783292 0 -1.83253e+06 792535 0 -1.83607e+06 801812 0 -1.83962e+06 811125 0 -1.8432e+06 820472 0 -1.84678e+06 829854 0 -1.85038e+06 839271 0 -1.854e+06 848723 0 -1.85762e+06 858211 0 -1.86126e+06 867734 0 -1.8649e+06 877291 0 -1.86856e+06 886884 0 -1.87222e+06 896512 0 -1.87589e+06 906175 0 -1.87956e+06 915873 0 -1.88324e+06 925605 0 -1.88692e+06 935372 0 -1.8906e+06 945173 0 -1.89428e+06 955007 0 -1.89796e+06 964875 0 -1.90164e+06 974776 0 -1.90531e+06 984710 0 -1.90897e+06 994675 0 -1.91263e+06 1.00467e+06 0 -1.91628e+06 1.0147e+06 0 -1.91992e+06 1.02476e+06 0 -1.92354e+06 1.03485e+06 0 -1.92715e+06 1.04496e+06 0 -1.93074e+06 1.0551e+06 0 -1.93432e+06 1.06527e+06 0 -1.93788e+06 1.07547e+06 0 -1.64006e+06 0 0 -1.64008e+06 7506.26 0 -1.64014e+06 15012.9 0 -1.64025e+06 22520.2 0 -1.6404e+06 30028.6 0 -1.64058e+06 37538.4 0 -1.64081e+06 45050 0 -1.64109e+06 52563.7 0 -1.6414e+06 60079.9 0 -1.64176e+06 67599 0 -1.64215e+06 75121.2 0 -1.64259e+06 82647 0 -1.64307e+06 90176.7 0 -1.64359e+06 97710.7 0 -1.64416e+06 105249 0 -1.64476e+06 112793 0 -1.64541e+06 120342 0 -1.6461e+06 127896 0 -1.64683e+06 135457 0 -1.6476e+06 143024 0 -1.64841e+06 150598 0 -1.64927e+06 158179 0 -1.65016e+06 165768 0 -1.6511e+06 173364 0 -1.65208e+06 180969 0 -1.6531e+06 188582 0 -1.65416e+06 196204 0 -1.65526e+06 203835 0 -1.6564e+06 211477 0 -1.65758e+06 219128 0 -1.65881e+06 226789 0 -1.66007e+06 234462 0 -1.66138e+06 242145 0 -1.66272e+06 249840 0 -1.66411e+06 257547 0 -1.66554e+06 265266 0 -1.667e+06 272998 0 -1.66851e+06 280742 0 -1.67006e+06 288500 0 -1.67165e+06 296272 0 -1.67327e+06 304058 0 -1.67494e+06 311858 0 -1.67665e+06 319673 0 -1.67839e+06 327504 0 -1.68018e+06 335350 0 -1.682e+06 343211 0 -1.68387e+06 351090 0 -1.68577e+06 358985 0 -1.68771e+06 366897 0 -1.68969e+06 374826 0 -1.69171e+06 382773 0 -1.69377e+06 390739 0 -1.69586e+06 398723 0 -1.698e+06 406726 0 -1.70017e+06 414749 0 -1.70238e+06 422791 0 -1.70462e+06 430854 0 -1.70691e+06 438936 0 -1.70923e+06 447040 0 -1.71159e+06 455165 0 -1.71398e+06