<?xml version="1.0"?> 
<VTKFile type="StructuredGrid" version="0.1"> 
<StructuredGrid WholeExtent="0 127 0 127 0 0"> 
<Piece Extent="0 127 0 127 0 0"> 
<PointData>
<DataArray type="Float32" Name="|E|" format="ascii" NumberOfComponents="3"> 
477030 7.23516e+06 0 443083 6.72028e+06 0 426390 6.46709e+06 0 414722 6.29012e+06 0 405651 6.15255e+06 0 398074 6.03763e+06 0 391550 5.93867e+06 0 385800 5.85147e+06 0 380657 5.77347e+06 0 376004 5.70288e+06 0 371755 5.63844e+06 0 367848 5.57919e+06 0 364235 5.52438e+06 0 360876 5.47343e+06 0 357739 5.42587e+06 0 354801 5.38129e+06 0 352038 5.33939e+06 0 349433 5.29989e+06 0 346972 5.26255e+06 0 344639 5.22718e+06 0 342425 5.1936e+06 0 340319 5.16166e+06 0 338313 5.13123e+06 0 336398 5.10219e+06 0 334568 5.07443e+06 0 332817 5.04787e+06 0 331140 5.02242e+06 0 329530 4.99801e+06 0 327984 4.97457e+06 0 326498 4.95203e+06 0 325068 4.93034e+06 0 323691 4.90946e+06 0 322364 4.88933e+06 0 321084 4.8699e+06 0 319847 4.85115e+06 0 318653 4.83304e+06 0 317498 4.81553e+06 0 316381 4.79859e+06 0 315300 4.78219e+06 0 314253 4.7663e+06 0 313238 4.75091e+06 0 312254 4.73599e+06 0 311299 4.72151e+06 0 310373 4.70745e+06 0 309473 4.69381e+06 0 308599 4.68055e+06 0 307750 4.66767e+06 0 306924 4.65514e+06 0 306121 4.64296e+06 0 305339 4.63111e+06 0 304578 4.61957e+06 0 303837 4.60833e+06 0 303116 4.59738e+06 0 302413 4.58672e+06 0 301727 4.57633e+06 0 301059 4.56619e+06 0 300408 4.55631e+06 0 299772 4.54667e+06 0 299152 4.53726e+06 0 298546 4.52808e+06 0 297955 4.51911e+06 0 297378 4.51036e+06 0 296814 4.5018e+06 0 296263 4.49345e+06 0 295725 4.48528e+06 0 295199 4.4773e+06 0 294684 4.4695e+06 0 294181 4.46188e+06 0 293689 4.45441e+06 0 293208 4.44712e+06 0 292738 4.43998e+06 0 292277 4.43299e+06 0 291826 4.42615e+06 0 291385 4.41946e+06 0 290953 4.41291e+06 0 290530 4.4065e+06 0 290116 4.40021e+06 0 289710 4.39406e+06 0 289313 4.38804e+06 0 288924 4.38213e+06 0 288542 4.37635e+06 0 288169 4.37068e+06 0 287802 4.36513e+06 0 287444 4.35968e+06 0 287092 4.35435e+06 0 286747 4.34912e+06 0 286409 4.34399e+06 0 286077 4.33896e+06 0 285752 4.33403e+06 0 285434 4.3292e+06 0 285121 4.32446e+06 0 284815 4.31981e+06 0 284514 4.31526e+06 0 284220 4.31079e+06 0 283931 4.3064e+06 0 283647 4.3021e+06 0 283369 4.29788e+06 0 283096 4.29374e+06 0 282828 4.28969e+06 0 282566 4.2857e+06 0 282308 4.2818e+06 0 282056 4.27797e+06 0 281808 4.27421e+06 0 281565 4.27052e+06 0 281327 4.26691e+06 0 281093 4.26336e+06 0 280863 4.25988e+06 0 280639 4.25647e+06 0 280418 4.25313e+06 0 280202 4.24984e+06 0 279989 4.24663e+06 0 279781 4.24347e+06 0 279578 4.24038e+06 0 279378 4.23735e+06 0 279182 4.23437e+06 0 278990 4.23146e+06 0 278801 4.2286e+06 0 278617 4.22581e+06 0 278436 4.22307e+06 0 278259 4.22038e+06 0 278086 4.21775e+06 0 277916 4.21518e+06 0 277750 4.21266e+06 0 277587 4.21019e+06 0 277428 4.20777e+06 0 277272 4.20541e+06 0 277120 4.2031e+06 0 276971 4.20084e+06 0 -108179 6.75294e+06 0 84498.4 6.6209e+06 0 164614 6.43904e+06 0 208440 6.28509e+06 0 234128 6.15452e+06 0 250976 6.04288e+06 0 262550 5.94527e+06 0 270876 5.85871e+06 0 277032 5.78094e+06 0 281682 5.71039e+06 0 285246 5.64587e+06 0 288006 5.58648e+06 0 290154 5.5315e+06 0 291831 5.48036e+06 0 293137 5.4326e+06 0 294149 5.38784e+06 0 294923 5.34574e+06 0 295504 5.30605e+06 0 295928 5.26853e+06 0 296222 5.23299e+06 0 296408 5.19924e+06 0 296505 5.16714e+06 0 296527 5.13655e+06 0 296486 5.10737e+06 0 296393 5.07948e+06 0 296255 5.05278e+06 0 296080 5.02721e+06 0 295873 5.00267e+06 0 295641 4.97911e+06 0 295386 4.95646e+06 0 295112 4.93467e+06 0 294823 4.91368e+06 0 294522 4.89345e+06 0 294209 4.87394e+06 0 293889 4.85509e+06 0 293561 4.83689e+06 0 293228 4.8193e+06 0 292892 4.80228e+06 0 292552 4.7858e+06 0 292210 4.76984e+06 0 291867 4.75438e+06 0 291523 4.73938e+06 0 291180 4.72484e+06 0 290837 4.71072e+06 0 290496 4.69701e+06 0 290156 4.68369e+06 0 289819 4.67075e+06 0 289483 4.65817e+06 0 289151 4.64593e+06 0 288821 4.63402e+06 0 288494 4.62243e+06 0 288170 4.61114e+06 0 287849 4.60015e+06 0 287532 4.58944e+06 0 287219 4.579e+06 0 286909 4.56882e+06 0 286603 4.55889e+06 0 286301 4.54921e+06 0 286002 4.53976e+06 0 285708 4.53053e+06 0 285417 4.52153e+06 0 285130 4.51274e+06 0 284847 4.50415e+06 0 284568 4.49576e+06 0 284293 4.48756e+06 0 284022 4.47954e+06 0 283754 4.47171e+06 0 283491 4.46404e+06 0 283231 4.45655e+06 0 282975 4.44922e+06 0 282723 4.44205e+06 0 282475 4.43504e+06 0 282231 4.42817e+06 0 281990 4.42145e+06 0 281753 4.41487e+06 0 281520 4.40842e+06 0 281290 4.40212e+06 0 281064 4.39594e+06 0 280841 4.38988e+06 0 280623 4.38395e+06 0 280407 4.37814e+06 0 280195 4.37245e+06 0 279987 4.36687e+06 0 279782 4.36141e+06 0 279580 4.35605e+06 0 279381 4.35079e+06 0 279186 4.34564e+06 0 278995 4.34059e+06 0 278806 4.33564e+06 0 278621 4.33079e+06 0 278439 4.32603e+06 0 278260 4.32136e+06 0 278084 4.31678e+06 0 277912 4.31229e+06 0 277742 4.30788e+06 0 277576 4.30356e+06 0 277412 4.29932e+06 0 277252 4.29517e+06 0 277094 4.29109e+06 0 276940 4.28709e+06 0 276788 4.28316e+06 0 276640 4.27931e+06 0 276494 4.27554e+06 0 276351 4.27183e+06 0 276211 4.2682e+06 0 276074 4.26463e+06 0 275940 4.26113e+06 0 275809 4.25771e+06 0 275680 4.25434e+06 0 275554 4.25104e+06 0 275431 4.24781e+06 0 275311 4.24464e+06 0 275194 4.24152e+06 0 275079 4.23847e+06 0 274967 4.23549e+06 0 274858 4.23255e+06 0 274751 4.22968e+06 0 274647 4.22687e+06 0 274546 4.22411e+06 0 274448 4.22141e+06 0 274352 4.21876e+06 0 274259 4.21617e+06 0 274169 4.21363e+06 0 274082 4.21115e+06 0 273997 4.20872e+06 0 273915 4.20634e+06 0 273836 4.20401e+06 0 273759 4.20173e+06 0 -255769 6.57673e+06 0 -141051 6.4594e+06 0 -43302.7 6.3448e+06 0 24894 6.22798e+06 0 73864 6.11917e+06 0 109589 6.01988e+06 0 136597 5.93002e+06 0 157541 5.84845e+06 0 174177 5.77408e+06 0 187647 5.70593e+06 0 198732 5.64314e+06 0 207977 5.58503e+06 0 215777 5.53101e+06 0 222422 5.48061e+06 0 228130 5.43341e+06 0 233070 5.38909e+06 0 237371 5.34734e+06 0 241137 5.30792e+06 0 244450 5.27062e+06 0 247377 5.23524e+06 0 249973 5.20162e+06 0 252283 5.16963e+06 0 254345 5.13912e+06 0 256191 5.11e+06 0 257846 5.08215e+06 0 259333 5.05549e+06 0 260673 5.02993e+06 0 261882 5.00541e+06 0 262973 4.98186e+06 0 263960 4.95921e+06 0 264853 4.93741e+06 0 265663 4.91641e+06 0 266396 4.89617e+06 0 267062 4.87663e+06 0 267665 4.85777e+06 0 268213 4.83955e+06 0 268710 4.82193e+06 0 269161 4.80489e+06 0 269570 4.78839e+06 0 269941 4.7724e+06 0 270276 4.75691e+06 0 270580 4.74189e+06 0 270854 4.72732e+06 0 271101 4.71317e+06 0 271324 4.69944e+06 0 271524 4.68609e+06 0 271703 4.67312e+06 0 271864 4.66051e+06 0 272006 4.64825e+06 0 272132 4.63631e+06 0 272244 4.62469e+06 0 272341 4.61338e+06 0 272426 4.60236e+06 0 272499 4.59162e+06 0 272561 4.58115e+06 0 272613 4.57095e+06 0 272656 4.56099e+06 0 272691 4.55128e+06 0 272717 4.54181e+06 0 272737 4.53256e+06 0 272749 4.52353e+06 0 272756 4.51471e+06 0 272756 4.5061e+06 0 272752 4.49769e+06 0 272742 4.48946e+06 0 272728 4.48142e+06 0 272711 4.47357e+06 0 272689 4.46588e+06 0 272664 4.45837e+06 0 272636 4.45102e+06 0 272604 4.44382e+06 0 272571 4.43678e+06 0 272535 4.4299e+06 0 272496 4.42315e+06 0 272456 4.41655e+06 0 272414 4.41009e+06 0 272371 4.40376e+06 0 272326 4.39756e+06 0 272280 4.39149e+06 0 272233 4.38554e+06 0 272185 4.37971e+06 0 272136 4.374e+06 0 272087 4.3684e+06 0 272037 4.36292e+06 0 271986 4.35754e+06 0 271936 4.35227e+06 0 271885 4.3471e+06 0 271834 4.34203e+06 0 271783 4.33706e+06 0 271733 4.33219e+06 0 271682 4.32741e+06 0 271632 4.32272e+06 0 271582 4.31813e+06 0 271532 4.31362e+06 0 271483 4.3092e+06 0 271435 4.30486e+06 0 271387 4.3006e+06 0 271340 4.29643e+06 0 271293 4.29234e+06 0 271248 4.28832e+06 0 271203 4.28438e+06 0 271159 4.28051e+06 0 271116 4.27672e+06 0 271074 4.273e+06 0 271034 4.26935e+06 0 270994 4.26577e+06 0 270955 4.26226e+06 0 270918 4.25881e+06 0 270882 4.25543e+06 0 270848 4.25212e+06 0 270814 4.24887e+06 0 270782 4.24568e+06 0 270752 4.24255e+06 0 270723 4.23949e+06 0 270695 4.23648e+06 0 270669 4.23354e+06 0 270645 4.23065e+06 0 270622 4.22782e+06 0 270601 4.22504e+06 0 270582 4.22233e+06 0 270564 4.21966e+06 0 270548 4.21706e+06 0 270534 4.2145e+06 0 270522 4.212e+06 0 270512 4.20956e+06 0 270504 4.20716e+06 0 270498 4.20482e+06 0 270493 4.20253e+06 0 -399084 6.40015e+06 0 -287761 6.32549e+06 0 -197794 6.23769e+06 0 -123825 6.14835e+06 0 -64947.2 6.06016e+06 0 -17979.9 5.97595e+06 0 19706 5.89675e+06 0 50339.9 5.8229e+06 0 75562.4 5.75419e+06 0 96597.5 5.69027e+06 0 114345 5.63072e+06 0 129478 5.57512e+06 0 142501 5.52308e+06 0 153804 5.47426e+06 0 163685 5.42835e+06 0 172381 5.38507e+06 0 180078 5.34418e+06 0 186929 5.30548e+06 0 193055 5.26878e+06 0 198556 5.23391e+06 0 203516 5.20072e+06 0 208004 5.16909e+06 0 212078 5.13889e+06 0 215788 5.11003e+06 0 219175 5.08242e+06 0 222275 5.05595e+06 0 225120 5.03057e+06 0 227736 5.0062e+06 0 230146 4.98277e+06 0 232371 4.96023e+06 0 234429 4.93853e+06 0 236335 4.91762e+06 0 238103 4.89744e+06 0 239746 4.87797e+06 0 241275 4.85917e+06 0 242699 4.84099e+06 0 244028 4.82342e+06 0 245268 4.8064e+06 0 246428 4.78993e+06 0 247513 4.77397e+06 0 248529 4.7585e+06 0 249482 4.7435e+06 0 250376 4.72894e+06 0 251216 4.71481e+06 0 252005 4.70108e+06 0 252748 4.68774e+06 0 253446 4.67477e+06 0 254105 4.66216e+06 0 254725 4.6499e+06 0 255310 4.63796e+06 0 255862 4.62634e+06 0 256383 4.61502e+06 0 256875 4.604e+06 0 257341 4.59325e+06 0 257781 4.58278e+06 0 258197 4.57257e+06 0 258592 4.56261e+06 0 258965 4.55289e+06 0 259319 4.54341e+06 0 259654 4.53415e+06 0 259972 4.52511e+06 0 260273 4.51628e+06 0 260560 4.50766e+06 0 260831 4.49923e+06 0 261090 4.491e+06 0 261335 4.48295e+06 0 261568 4.47508e+06 0 261790 4.46738e+06 0 262001 4.45985e+06 0 262202 4.45249e+06 0 262393 4.44528e+06 0 262576 4.43823e+06 0 262749 4.43133e+06 0 262915 4.42458e+06 0 263073 4.41796e+06 0 263224 4.41149e+06 0 263368 4.40514e+06 0 263506 4.39893e+06 0 263637 4.39285e+06 0 263763 4.38688e+06 0 263884 4.38104e+06 0 263999 4.37532e+06 0 264110 4.36971e+06 0 264217 4.36421e+06 0 264319 4.35882e+06 0 264417 4.35353e+06 0 264511 4.34835e+06 0 264602 4.34327e+06 0 264690 4.33829e+06 0 264775 4.3334e+06 0 264856 4.32861e+06 0 264936 4.32391e+06 0 265012 4.3193e+06 0 265087 4.31478e+06 0 265159 4.31034e+06 0 265229 4.30599e+06 0 265297 4.30173e+06 0 265364 4.29754e+06 0 265430 4.29343e+06 0 265493 4.2894e+06 0 265556 4.28545e+06 0 265618 4.28157e+06 0 265678 4.27776e+06 0 265738 4.27403e+06 0 265797 4.27036e+06 0 265855 4.26677e+06 0 265913 4.26324e+06 0 265970 4.25978e+06 0 266027 4.25639e+06 0 266084 4.25306e+06 0 266141 4.2498e+06 0 266197 4.2466e+06 0 266254 4.24346e+06 0 266311 4.24038e+06 0 266368 4.23736e+06 0 266426 4.2344e+06 0 266484 4.2315e+06 0 266543 4.22865e+06 0 266602 4.22587e+06 0 266662 4.22314e+06 0 266722 4.22046e+06 0 266784 4.21784e+06 0 266846 4.21527e+06 0 266910 4.21276e+06 0 266975 4.2103e+06 0 267040 4.20789e+06 0 267107 4.20553e+06 0 267176 4.20322e+06 0 -495802 6.2603e+06 0 -401836 6.19806e+06 0 -316755 6.13162e+06 0 -243688 6.06106e+06 0 -181513 5.98961e+06 0 -129162 5.91909e+06 0 -85102.8 5.85085e+06 0 -47922.2 5.78559e+06 0 -16361.6 5.72363e+06 0 10613.2 5.66505e+06 0 33838.5 5.60974e+06 0 53980.7 5.55755e+06 0 71570.1 5.50829e+06 0 87029.8 5.46174e+06 0 100699 5.41771e+06 0 112852 5.376e+06 0 123711 5.33644e+06 0 133460 5.29886e+06 0 142249 5.26311e+06 0 150204 5.22905e+06 0 157430 5.19657e+06 0 164016 5.16555e+06 0 170036 5.13589e+06 0 175556 5.1075e+06 0 180629 5.08029e+06 0 185305 5.05418e+06 0 189623 5.02912e+06 0 193620 5.00502e+06 0 197327 4.98185e+06 0 200772 4.95953e+06 0 203978 4.93803e+06 0 206968 4.91729e+06 0 209760 4.89727e+06 0 212372 4.87795e+06 0 214818 4.85927e+06 0 217112 4.84121e+06 0 219267 4.82373e+06 0 221292 4.80681e+06 0 223199 4.79042e+06 0 224995 4.77454e+06 0 226690 4.75914e+06 0 228291 4.74419e+06 0 229803 4.72969e+06 0 231234 4.7156e+06 0 232589 4.70192e+06 0 233874 4.68862e+06 0 235091 4.67569e+06 0 236248 4.66311e+06 0 237346 4.65088e+06 0 238390 4.63897e+06 0 239383 4.62737e+06 0 240328 4.61607e+06 0 241229 4.60506e+06 0 242087 4.59434e+06 0 242906 4.58388e+06 0 243688 4.57368e+06 0 244434 4.56373e+06 0 245147 4.55402e+06 0 245829 4.54454e+06 0 246481 4.53529e+06 0 247105 4.52625e+06 0 247703 4.51743e+06 0 248276 4.50881e+06 0 248825 4.50038e+06 0 249352 4.49215e+06 0 249857 4.4841e+06 0 250343 4.47623e+06 0 250809 4.46853e+06 0 251257 4.461e+06 0 251688 4.45364e+06 0 252103 4.44643e+06 0 252502 4.43938e+06 0 252886 4.43247e+06 0 253257 4.42571e+06 0 253614 4.41909e+06 0 253959 4.41261e+06 0 254291 4.40626e+06 0 254612 4.40005e+06 0 254922 4.39395e+06 0 255222 4.38798e+06 0 255512 4.38214e+06 0 255793 4.3764e+06 0 256065 4.37079e+06 0 256328 4.36528e+06 0 256584 4.35988e+06 0 256831 4.35459e+06 0 257072 4.3494e+06 0 257305 4.34431e+06 0 257532 4.33932e+06 0 257753 4.33442e+06 0 257968 4.32962e+06 0 258177 4.32491e+06 0 258381 4.3203e+06 0 258580 4.31576e+06 0 258774 4.31132e+06 0 258963 4.30696e+06 0 259149 4.30268e+06 0 259330 4.29848e+06 0 259507 4.29437e+06 0 259681 4.29033e+06 0 259852 4.28636e+06 0 260019 4.28247e+06 0 260184 4.27865e+06 0 260345 4.27491e+06 0 260504 4.27124e+06 0 260661 4.26763e+06 0 260815 4.26409e+06 0 260967 4.26062e+06 0 261118 4.25722e+06 0 261267 4.25388e+06 0 261414 4.25061e+06 0 261559 4.24739e+06 0 261704 4.24424e+06 0 261847 4.24115e+06 0 261989 4.23812e+06 0 262131 4.23515e+06 0 262271 4.23223e+06 0 262411 4.22938e+06 0 262551 4.22658e+06 0 262690 4.22383e+06 0 262829 4.22115e+06 0 262968 4.21851e+06 0 263107 4.21593e+06 0 263247 4.2134e+06 0 263386 4.21093e+06 0 263526 4.20851e+06 0 263666 4.20613e+06 0 263807 4.20381e+06 0 -577786 6.12947e+06 0 -490436 6.08219e+06 0 -411749 6.02899e+06 0 -341223 5.97252e+06 0 -279051 5.91408e+06 0 -224663 5.85518e+06 0 -177324 5.79689e+06 0 -136160 5.74e+06 0 -100321 5.68501e+06 0 -69024 5.63217e+06 0 -41584.8 5.58163e+06 0 -17420.1 5.5334e+06 0 3960.55 5.48745e+06 0 22966.2 5.44367e+06 0 39937.5 5.40198e+06 0 55158.2 5.36226e+06 0 68865.2 5.3244e+06 0 81256.9 5.28828e+06 0 92500.2 5.25379e+06 0 102736 5.22083e+06 0 112086 5.1893e+06 0 120650 5.15911e+06 0 128517 5.13019e+06 0 135762 5.10244e+06 0 142452 5.07581e+06 0 148642 5.05021e+06 0 154382 5.0256e+06 0 159716 5.00192e+06 0 164682 4.9791e+06 0 169314 4.95712e+06 0 173641 4.93591e+06 0 177691 4.91543e+06 0 181486 4.89566e+06 0 185047 4.87655e+06 0 188395 4.85807e+06 0 191545 4.84019e+06 0 194514 4.82288e+06 0 197314 4.80611e+06 0 199958 4.78986e+06 0 202458 4.7741e+06 0 204825 4.75881e+06 0 207066 4.74397e+06 0 209192 4.72956e+06 0 211210 4.71556e+06 0 213127 4.70196e+06 0 214949 4.68873e+06 0 216683 4.67587e+06 0 218334 4.66336e+06 0 219908 4.65118e+06 0 221409 4.63932e+06 0 222842 4.62777e+06 0 224210 4.61651e+06 0 225518 4.60555e+06 0 226768 4.59486e+06 0 227965 4.58443e+06 0 229111 4.57426e+06 0 230209 4.56434e+06 0 231261 4.55466e+06 0 232271 4.5452e+06 0 233240 4.53598e+06 0 234170 4.52696e+06 0 235064 4.51815e+06 0 235924 4.50955e+06 0 236750 4.50114e+06 0 237546 4.49292e+06 0 238312 4.48488e+06 0 239050 4.47702e+06 0 239761 4.46934e+06 0 240446 4.46182e+06 0 241108 4.45446e+06 0 241746 4.44726e+06 0 242363 4.44021e+06 0 242958 4.43331e+06 0 243534 4.42655e+06 0 244091 4.41994e+06 0 244630 4.41346e+06 0 245151 4.40711e+06 0 245656 4.4009e+06 0 246145 4.3948e+06 0 246620 4.38884e+06 0 247080 4.38299e+06 0 247526 4.37725e+06 0 247959 4.37163e+06 0 248380 4.36613e+06 0 248789 4.36072e+06 0 249187 4.35543e+06 0 249574 4.35024e+06 0 249950 4.34514e+06 0 250317 4.34015e+06 0 250674 4.33525e+06 0 251022 4.33045e+06 0 251362 4.32573e+06 0 251693 4.32111e+06 0 252017 4.31657e+06 0 252334 4.31212e+06 0 252643 4.30776e+06 0 252945 4.30347e+06 0 253241 4.29927e+06 0 253531 4.29514e+06 0 253816 4.2911e+06 0 254094 4.28712e+06 0 254368 4.28323e+06 0 254636 4.2794e+06 0 254900 4.27565e+06 0 255159 4.27197e+06 0 255415 4.26836e+06 0 255666 4.26481e+06 0 255913 4.26133e+06 0 256157 4.25792e+06 0 256398 4.25457e+06 0 256636 4.25129e+06 0 256871 4.24806e+06 0 257103 4.2449e+06 0 257333 4.2418e+06 0 257560 4.23876e+06 0 257785 4.23578e+06 0 258009 4.23285e+06 0 258230 4.22999e+06 0 258451 4.22718e+06 0 258669 4.22442e+06 0 258887 4.22172e+06 0 259103 4.21908e+06 0 259319 4.21648e+06 0 259534 4.21394e+06 0 259748 4.21146e+06 0 259962 4.20902e+06 0 260175 4.20664e+06 0 260389 4.20431e+06 0 -641719 6.01225e+06 0 -562452 5.9738e+06 0 -488822 5.93127e+06 0 -421648 5.88533e+06 0 -360880 5.83722e+06 0 -306371 5.78791e+06 0 -257725 5.73828e+06 0 -214441 5.68903e+06 0 -175965 5.64067e+06 0 -141745 5.59355e+06 0 -111258 5.54791e+06 0 -84033 5.50387e+06 0 -59651.1 5.4615e+06 0 -37747.2 5.4208e+06 0 -18005.9 5.38176e+06 0 -155.746 5.34433e+06 0 16036.2 5.30845e+06 0 30769.5 5.27405e+06 0 44215.9 5.24107e+06 0 56522.8 5.20943e+06 0 67817.5 5.17907e+06 0 78210.1 5.14992e+06 0 87796.1 5.1219e+06 0 96658.7 5.09497e+06 0 104870 5.06906e+06 0 112495 5.04411e+06 0 119588 5.02008e+06 0 126199 4.99692e+06 0 132372 4.97458e+06 0 138146 4.95302e+06 0 143554 4.9322e+06 0 148628 4.91208e+06 0 153395 4.89262e+06 0 157881 4.87381e+06 0 162106 4.85559e+06 0 166091 4.83795e+06 0 169855 4.82086e+06 0 173413 4.8043e+06 0 176781 4.78823e+06 0 179972 4.77265e+06 0 182998 4.75752e+06 0 185871 4.74282e+06 0 188601 4.72855e+06 0 191197 4.71468e+06 0 193668 4.70119e+06 0 196022 4.68807e+06 0 198266 4.67531e+06 0 200408 4.66289e+06 0 202453 4.65079e+06 0 204406 4.63901e+06 0 206275 4.62753e+06 0 208062 4.61635e+06 0 209774 4.60545e+06 0 211414 4.59481e+06 0 212986 4.58444e+06 0 214494 4.57432e+06 0 215942 4.56445e+06 0 217332 4.55481e+06 0 218668 4.5454e+06 0 219953 4.53621e+06 0 221188 4.52723e+06 0 222377 4.51845e+06 0 223523 4.50988e+06 0 224626 4.5015e+06 0 225690 4.49331e+06 0 226715 4.48529e+06 0 227705 4.47745e+06 0 228661 4.46979e+06 0 229583 4.46229e+06 0 230475 4.45495e+06 0 231337 4.44776e+06 0 232171 4.44073e+06 0 232978 4.43384e+06 0 233758 4.4271e+06 0 234515 4.4205e+06 0 235248 4.41403e+06 0 235958 4.40769e+06 0 236647 4.40148e+06 0 237315 4.3954e+06 0 237964 4.38944e+06 0 238594 4.38359e+06 0 239206 4.37787e+06 0 239801 4.37225e+06 0 240380 4.36675e+06 0 240942 4.36135e+06 0 241490 4.35606e+06 0 242024 4.35086e+06 0 242543 4.34577e+06 0 243050 4.34078e+06 0 243544 4.33588e+06 0 244026 4.33108e+06 0 244496 4.32636e+06 0 244956 4.32174e+06 0 245404 4.3172e+06 0 245843 4.31275e+06 0 246272 4.30838e+06 0 246692 4.30409e+06 0 247103 4.29989e+06 0 247506 4.29576e+06 0 247901 4.29171e+06 0 248288 4.28773e+06 0 248668 4.28383e+06 0 249040 4.28e+06 0 249407 4.27624e+06 0 249766 4.27256e+06 0 250120 4.26894e+06 0 250469 4.26539e+06 0 250811 4.2619e+06 0 251149 4.25848e+06 0 251482 4.25513e+06 0 251810 4.25184e+06 0 252135 4.24861e+06 0 252455 4.24544e+06 0 252771 4.24233e+06 0 253083 4.23928e+06 0 253393 4.23629e+06 0 253699 4.23336e+06 0 254002 4.23048e+06 0 254303 4.22766e+06 0 254601 4.2249e+06 0 254897 4.22219e+06 0 255191 4.21953e+06 0 255483 4.21693e+06 0 255773 4.21438e+06 0 256062 4.21188e+06 0 256350 4.20944e+06 0 256637 4.20704e+06 0 256923 4.2047e+06 0 -694499 5.90353e+06 0 -621009 5.87291e+06 0 -552298 5.83835e+06 0 -488527 5.80078e+06 0 -429871 5.76091e+06 0 -376272 5.71953e+06 0 -327550 5.6773e+06 0 -283417 5.63482e+06 0 -243525 5.59254e+06 0 -207495 5.55083e+06 0 -174948 5.50995e+06 0 -145520 5.4701e+06 0 -118872 5.4314e+06 0 -94696 5.39392e+06 0 -72716 5.3577e+06 0 -52686.5 5.32274e+06 0 -34391.2 5.28904e+06 0 -17640 5.25656e+06 0 -2266.2 5.22527e+06 0 11876.3 5.19513e+06 0 24915.7 5.1661e+06 0 36964.2 5.13814e+06 0 48120.6 5.11118e+06 0 58471.8 5.0852e+06 0 68094.7 5.06015e+06 0 77057 5.03597e+06 0 85418.8 5.01264e+06 0 93233.6 4.9901e+06 0 100549 4.96833e+06 0 107407 4.94729e+06 0 113847 4.92694e+06 0 119901 4.90725e+06 0 125602 4.88819e+06 0 130975 4.86973e+06 0 136047 4.85185e+06 0 140841 4.83452e+06 0 145375 4.81771e+06 0 149669 4.8014e+06 0 153741 4.78557e+06 0 157605 4.7702e+06 0 161275 4.75527e+06 0 164765 4.74077e+06 0 168085 4.72667e+06 0 171248 4.71296e+06 0 174264 4.69962e+06 0 177140 4.68664e+06 0 179886 4.67401e+06 0 182510 4.66171e+06 0 185019 4.64972e+06 0 187419 4.63805e+06 0 189717 4.62667e+06 0 191919 4.61558e+06 0 194030 4.60476e+06 0 196055 4.5942e+06 0 197999 4.58391e+06 0 199866 4.57386e+06 0 201660 4.56405e+06 0 203385 4.55447e+06 0 205045 4.54512e+06 0 206642 4.53598e+06 0 208181 4.52705e+06 0 209663 4.51832e+06 0 211093 4.50979e+06 0 212471 4.50145e+06 0 213801 4.4933e+06 0 215085 4.48532e+06 0 216326 4.47752e+06 0 217525 4.46988e+06 0 218684 4.46241e+06 0 219805 4.4551e+06 0 220889 4.44794e+06 0 221940 4.44093e+06 0 222957 4.43407e+06 0 223942 4.42735e+06 0 224898 4.42076e+06 0 225824 4.41431e+06 0 226723 4.40799e+06 0 227595 4.4018e+06 0 228442 4.39573e+06 0 229265 4.38978e+06 0 230065 4.38395e+06 0 230843 4.37824e+06 0 231599 4.37263e+06 0 232335 4.36714e+06 0 233052 4.36175e+06 0 233750 4.35646e+06 0 234430 4.35128e+06 0 235092 4.3462e+06 0 235739 4.34121e+06 0 236369 4.33631e+06 0 236985 4.33151e+06 0 237586 4.3268e+06 0 238173 4.32218e+06 0 238747 4.31765e+06 0 239308 4.3132e+06 0 239857 4.30883e+06 0 240394 4.30454e+06 0 240921 4.30034e+06 0 241436 4.29621e+06 0 241941 4.29216e+06 0 242437 4.28818e+06 0 242923 4.28428e+06 0 243400 4.28045e+06 0 243868 4.27669e+06 0 244329 4.273e+06 0 244781 4.26938e+06 0 245227 4.26582e+06 0 245665 4.26234e+06 0 246096 4.25891e+06 0 246521 4.25555e+06 0 246940 4.25226e+06 0 247354 4.24902e+06 0 247761 4.24585e+06 0 248164 4.24273e+06 0 248562 4.23968e+06 0 248955 4.23668e+06 0 249344 4.23374e+06 0 249729 4.23086e+06 0 250110 4.22803e+06 0 250487 4.22526e+06 0 250862 4.22254e+06 0 251233 4.21988e+06 0 251601 4.21726e+06 0 251967 4.21471e+06 0 252331 4.2122e+06 0 252693 4.20974e+06 0 253052 4.20734e+06 0 253410 4.20498e+06 0 -737323 5.80311e+06 0 -669283 5.77835e+06 0 -604905 5.75027e+06 0 -544529 5.71936e+06 0 -488267 5.68622e+06 0 -436151 5.65142e+06 0 -388104 5.61549e+06 0 -343969 5.57891e+06 0 -303530 5.54208e+06 0 -266538 5.50534e+06 0 -232722 5.46897e+06 0 -201812 5.43316e+06 0 -173542 5.39807e+06 0 -147663 5.36381e+06 0 -123942 5.33046e+06 0 -102167 5.29806e+06 0 -82144.9 5.26664e+06 0 -63702.6 5.23619e+06 0 -46684.7 5.20672e+06 0 -30952.4 5.17822e+06 0 -16382.1 5.15065e+06 0 -2863.71 5.12399e+06 0 9700.97 5.09822e+06 0 21399.3 5.0733e+06 0 32309.2 5.04921e+06 0 42500.4 5.02591e+06 0 52035 5.00337e+06 0 60968.7 4.98155e+06 0 69351.7 4.96044e+06 0 77228.8 4.93999e+06 0 84640.5 4.92019e+06 0 91623.3 4.901e+06 0 98210.1 4.88241e+06 0 104431 4.86437e+06 0 110313 4.84688e+06 0 115880 4.8299e+06 0 121155 4.81343e+06 0 126159 4.79742e+06 0 130909 4.78188e+06 0 135424 4.76678e+06 0 139719 4.75209e+06 0 143807 4.73781e+06 0 147703 4.72393e+06 0 151418 4.71041e+06 0 154964 4.69726e+06 0 158350 4.68445e+06 0 161587 4.67197e+06 0 164683 4.65982e+06 0 167647 4.64798e+06 0 170485 4.63643e+06 0 173206 4.62517e+06 0 175815 4.6142e+06 0 178319 4.60348e+06 0 180723 4.59303e+06 0 183033 4.58283e+06 0 185254 4.57287e+06 0 187390 4.56314e+06 0 189446 4.55364e+06 0 191425 4.54436e+06 0 193332 4.53529e+06 0 195170 4.52643e+06 0 196943 4.51776e+06 0 198653 4.50929e+06 0 200304 4.50101e+06 0 201899 4.4929e+06 0 203439 4.48497e+06 0 204929 4.47722e+06 0 206369 4.46962e+06 0 207762 4.46219e+06 0 209111 4.45492e+06 0 210417 4.44779e+06 0 211682 4.44082e+06 0 212909 4.43399e+06 0 214098 4.42729e+06 0 215251 4.42074e+06 0 216370 4.41431e+06 0 217457 4.40802e+06 0 218512 4.40185e+06 0 219537 4.3958e+06 0 220534 4.38987e+06 0 221502 4.38406e+06 0 222445 4.37836e+06 0 223362 4.37278e+06 0 224255 4.3673e+06 0 225125 4.36192e+06 0 225973 4.35665e+06 0 226799 4.35148e+06 0 227604 4.34641e+06 0 228390 4.34143e+06 0 229157 4.33655e+06 0 229906 4.33176e+06 0 230637 4.32705e+06 0 231352 4.32244e+06 0 232051 4.31791e+06 0 232734 4.31347e+06 0 233403 4.30911e+06 0 234057 4.30482e+06 0 234698 4.30062e+06 0 235326 4.2965e+06 0 235942 4.29245e+06 0 236546 4.28848e+06 0 237138 4.28457e+06 0 237719 4.28075e+06 0 238290 4.27699e+06 0 238851 4.2733e+06 0 239402 4.26967e+06 0 239944 4.26612e+06 0 240477 4.26263e+06 0 241002 4.2592e+06 0 241519 4.25584e+06 0 242029 4.25254e+06 0 242531 4.24931e+06 0 243027 4.24613e+06 0 243516 4.24301e+06 0 243998 4.23995e+06 0 244475 4.23695e+06 0 244947 4.234e+06 0 245413 4.23112e+06 0 245874 4.22828e+06 0 246331 4.2255e+06 0 246783 4.22278e+06 0 247232 4.22011e+06 0 247676 4.21749e+06 0 248118 4.21492e+06 0 248556 4.21241e+06 0 248991 4.20995e+06 0 249423 4.20753e+06 0 249853 4.20517e+06 0 -772517 5.70951e+06 0 -709118 5.68964e+06 0 -648748 5.66676e+06 0 -591610 5.6413e+06 0 -537848 5.61371e+06 0 -487514 5.58442e+06 0 -440596 5.55385e+06 0 -397013 5.52239e+06 0 -356638 5.49039e+06 0 -319309 5.45815e+06 0 -284838 5.42593e+06 0 -253027 5.39392e+06 0 -223676 5.36229e+06 0 -196588 5.33117e+06 0 -171571 5.30067e+06 0 -148450 5.27083e+06 0 -127056 5.24173e+06 0 -107237 5.21337e+06 0 -88852.6 5.18579e+06 0 -71775.9 5.15899e+06 0 -55891.1 5.13297e+06 0 -41093.8 5.10771e+06 0 -27289.6 5.08321e+06 0 -14393.5 5.05945e+06 0 -2328.53 5.0364e+06 0 8974.38 5.01405e+06 0 19577.8 4.99238e+06 0 29538 4.97137e+06 0 38906.3 4.95098e+06 0 47728.5 4.93121e+06 0 56046.8 4.91202e+06 0 63898.9 4.8934e+06 0 71319.3 4.87532e+06 0 78339.6 4.85777e+06 0 84988.1 4.84072e+06 0 91291.1 4.82416e+06 0 97272.4 4.80806e+06 0 102954 4.79241e+06 0 108355 4.77719e+06 0 113495 4.76239e+06 0 118390 4.74799e+06 0 123056 4.73398e+06 0 127508 4.72034e+06 0 131757 4.70705e+06 0 135817 4.69411e+06 0 139699 4.6815e+06 0 143413 4.66922e+06 0 146969 4.65724e+06 0 150376 4.64556e+06 0 153642 4.63417e+06 0 156775 4.62306e+06 0 159783 4.61221e+06 0 162671 4.60163e+06 0 165447 4.5913e+06 0 168117 4.58121e+06 0 170685 4.57136e+06 0 173157 4.56173e+06 0 175538 4.55233e+06 0 177832 4.54313e+06 0 180044 4.53415e+06 0 182178 4.52536e+06 0 184237 4.51677e+06 0 186224 4.50837e+06 0 188145 4.50015e+06 0 190000 4.49211e+06 0 191794 4.48424e+06 0 193530 4.47654e+06 0 195209 4.469e+06 0 196834 4.46162e+06 0 198409 4.4544e+06 0 199934 4.44732e+06 0 201413 4.44038e+06 0 202846 4.43359e+06 0 204237 4.42694e+06 0 205587 4.42042e+06 0 206898 4.41403e+06 0 208170 4.40777e+06 0 209407 4.40163e+06 0 210609 4.39561e+06 0 211778 4.38971e+06 0 212915 4.38392e+06 0 214022 4.37825e+06 0 215099 4.37268e+06 0 216148 4.36723e+06 0 217171 4.36187e+06 0 218167 4.35662e+06 0 219139 4.35147e+06 0 220086 4.34641e+06 0 221011 4.34145e+06 0 221914 4.33658e+06 0 222795 4.3318e+06 0 223657 4.32711e+06 0 224499 4.32251e+06 0 225322 4.31799e+06 0 226127 4.31356e+06 0 226915 4.30921e+06 0 227686 4.30493e+06 0 228442 4.30074e+06 0 229182 4.29662e+06 0 229907 4.29258e+06 0 230619 4.28861e+06 0 231317 4.28471e+06 0 232002 4.28089e+06 0 232675 4.27713e+06 0 233336 4.27345e+06 0 233985 4.26983e+06 0 234624 4.26627e+06 0 235252 4.26279e+06 0 235871 4.25936e+06 0 236479 4.256e+06 0 237079 4.2527e+06 0 237670 4.24946e+06 0 238253 4.24628e+06 0 238828 4.24316e+06 0 239396 4.2401e+06 0 239956 4.2371e+06 0 240510 4.23415e+06 0 241057 4.23126e+06 0 241598 4.22842e+06 0 242134 4.22564e+06 0 242664 4.22291e+06 0 243190 4.22023e+06 0 243710 4.21761e+06 0 244226 4.21503e+06 0 244738 4.21251e+06 0 245247 4.21004e+06 0 245752 4.20762e+06 0 246253 4.20525e+06 0 -801279 5.62209e+06 0 -742085 5.60618e+06 0 -685354 5.58759e+06 0 -631292 5.56664e+06 0 -580021 5.54367e+06 0 -531615 5.51901e+06 0 -486091 5.49302e+06 0 -443419 5.46601e+06 0 -403527 5.43827e+06 0 -366313 5.41006e+06 0 -331651 5.38161e+06 0 -299399 5.35312e+06 0 -269408 5.32475e+06 0 -241526 5.29663e+06 0 -215600 5.26887e+06 0 -191486 5.24156e+06 0 -169042 5.21475e+06 0 -148138 5.1885e+06 0 -128651 5.16283e+06 0 -110465 5.13777e+06 0 -93477.7 5.11334e+06 0 -77590.8 5.08954e+06 0 -62716.4 5.06637e+06 0 -48773.9 5.04382e+06 0 -35689.5 5.02189e+06 0 -23396.2 5.00056e+06 0 -11832.7 4.97982e+06 0 -943.475 4.95967e+06 0 9322.37 4.94007e+06 0 19011.1 4.92103e+06 0 28164.9 4.90251e+06 0 36822.4 4.88451e+06 0 45018.9 4.86701e+06 0 52786.4 4.84998e+06 0 60154.6 4.83343e+06 0 67150.5 4.81732e+06 0 73799 4.80164e+06 0 80122.8 4.78639e+06 0 86142.9 4.77154e+06 0 91878.6 4.75708e+06 0 97347.9 4.743e+06 0 102567 4.72928e+06 0 107551 4.71592e+06 0 112315 4.7029e+06 0 116870 4.6902e+06 0 121230 4.67782e+06 0 125406 4.66575e+06 0 129407 4.65397e+06 0 133244 4.64248e+06 0 136925 4.63127e+06 0 140460 4.62032e+06 0 143856 4.60964e+06 0 147119 4.5992e+06 0 150258 4.58901e+06 0 153279 4.57905e+06 0 156186 4.56933e+06 0 158988 4.55982e+06 0 161687 4.55052e+06 0 164290 4.54144e+06 0 166801 4.53255e+06 0 169225 4.52386e+06 0 171565 4.51536e+06 0 173826 4.50704e+06 0 176011 4.4989e+06 0 178124 4.49093e+06 0 180168 4.48314e+06 0 182146 4.4755e+06 0 184061 4.46803e+06 0 185916 4.46071e+06 0 187713 4.45354e+06 0 189455 4.44651e+06 0 191144 4.43963e+06 0 192783 4.43289e+06 0 194374 4.42628e+06 0 195918 4.41981e+06 0 197418 4.41346e+06 0 198875 4.40724e+06 0 200292 4.40113e+06 0 201670 4.39515e+06 0 203009 4.38929e+06 0 204313 4.38353e+06 0 205583 4.37789e+06 0 206819 4.37235e+06 0 208023 4.36692e+06 0 209197 4.36159e+06 0 210341 4.35636e+06 0 211457 4.35123e+06 0 212546 4.3462e+06 0 213609 4.34126e+06 0 214647 4.33641e+06 0 215660 4.33165e+06 0 216651 4.32698e+06 0 217619 4.32239e+06 0 218566 4.31789e+06 0 219492 4.31347e+06 0 220399 4.30913e+06 0 221286 4.30487e+06 0 222156 4.30068e+06 0 223008 4.29658e+06 0 223843 4.29254e+06 0 224662 4.28858e+06 0 225465 4.28469e+06 0 226254 4.28088e+06 0 227028 4.27713e+06 0 227789 4.27345e+06 0 228536 4.26983e+06 0 229271 4.26628e+06 0 229994 4.2628e+06 0 230705 4.25938e+06 0 231405 4.25602e+06 0 232095 4.25272e+06 0 232774 4.24949e+06 0 233444 4.24631e+06 0 234105 4.24319e+06 0 234757 4.24013e+06 0 235400 4.23712e+06 0 236036 4.23417e+06 0 236664 4.23128e+06 0 237285 4.22844e+06 0 237899 4.22565e+06 0 238507 4.22292e+06 0 239109 4.22024e+06 0 239705 4.21761e+06 0 240296 4.21504e+06 0 240881 4.21251e+06 0 241463 4.21003e+06 0 242039 4.2076e+06 0 242612 4.20523e+06 0 -824760 5.54013e+06 0 -769322 5.52754e+06 0 -715934 5.51251e+06 0 -664761 5.49532e+06 0 -615921 5.47622e+06 0 -569492 5.45551