<?xml version="1.0"?> 
<VTKFile type="StructuredGrid" version="0.1"> 
<StructuredGrid WholeExtent="0 127 0 127 0 0"> 
<Piece Extent="0 127 0 127 0 0"> 
<PointData>
<DataArray type="Float32" Name="|E|" format="ascii" NumberOfComponents="3"> 
-1.97702e+06 1.08032e+06 0 -1.98064e+06 1.0908e+06 0 -1.98423e+06 1.10131e+06 0 -1.98778e+06 1.11184e+06 0 -1.9913e+06 1.1224e+06 0 -1.99477e+06 1.13298e+06 0 -1.99821e+06 1.14358e+06 0 -2.00159e+06 1.1542e+06 0 -2.00493e+06 1.16484e+06 0 -2.00822e+06 1.1755e+06 0 -2.01146e+06 1.18616e+06 0 -2.01464e+06 1.19684e+06 0 -2.01776e+06 1.20752e+06 0 -2.02081e+06 1.2182e+06 0 -2.0238e+06 1.22889e+06 0 -2.02673e+06 1.23957e+06 0 -2.02958e+06 1.25024e+06 0 -2.03236e+06 1.2609e+06 0 -2.03506e+06 1.27155e+06 0 -2.03769e+06 1.28218e+06 0 -2.04023e+06 1.29278e+06 0 -2.04268e+06 1.30335e+06 0 -2.04505e+06 1.31389e+06 0 -2.04733e+06 1.32438e+06 0 -2.04951e+06 1.33483e+06 0 -2.0516e+06 1.34522e+06 0 -2.05359e+06 1.35555e+06 0 -2.05548e+06 1.36582e+06 0 -2.05727e+06 1.37601e+06 0 -2.05895e+06 1.38613e+06 0 -2.06053e+06 1.39615e+06 0 -2.062e+06 1.40607e+06 0 -2.06337e+06 1.41589e+06 0 -2.06462e+06 1.42559e+06 0 -2.06577e+06 1.43517e+06 0 -2.0668e+06 1.44462e+06 0 -2.06773e+06 1.45392e+06 0 -2.06854e+06 1.46307e+06 0 -2.06925e+06 1.47205e+06 0 -2.06985e+06 1.48086e+06 0 -2.07034e+06 1.48949e+06 0 -2.07072e+06 1.49792e+06 0 -2.07101e+06 1.50614e+06 0 -2.0712e+06 1.51414e+06 0 -2.07129e+06 1.52191e+06 0 -2.07129e+06 1.52943e+06 0 -2.0712e+06 1.5367e+06 0 -2.07103e+06 1.5437e+06 0 -2.07079e+06 1.55042e+06 0 -2.07047e+06 1.55685e+06 0 -2.0701e+06 1.56297e+06 0 -2.06967e+06 1.56877e+06 0 -2.06919e+06 1.57424e+06 0 -2.06868e+06 1.57937e+06 0 -2.06813e+06 1.58415e+06 0 -2.06757e+06 1.58856e+06 0 -2.067e+06 1.59259e+06 0 -2.06644e+06 1.59623e+06 0 -2.06589e+06 1.59947e+06 0 -2.06537e+06 1.6023e+06 0 -2.06489e+06 1.60471e+06 0 -2.06446e+06 1.60668e+06 0 -2.06411e+06 1.60821e+06 0 -2.06383e+06 1.60929e+06 0 -2.06365e+06 1.60991e+06 0 -2.06359e+06 1.61006e+06 0 -2.06365e+06 1.60974e+06 0 -2.06386e+06 1.60893e+06 0 -2.06422e+06 1.60763e+06 0 -2.06476e+06 1.60584e+06 0 -2.06549e+06 1.60354e+06 0 -2.06643e+06 1.60074e+06 0 -2.06759e+06 1.59742e+06 0 -2.069e+06 1.59359e+06 0 -2.07066e+06 1.58925e+06 0 -2.0726e+06 1.58438e+06 0 -2.07483e+06 1.57899e+06 0 -2.07736e+06 1.57308e+06 0 -2.08022e+06 1.56664e+06 0 -2.08342e+06 1.55968e+06 0 -2.08697e+06 1.55219e+06 0 -2.0909e+06 1.54418e+06 0 -2.09521e+06 1.53565e+06 0 -2.09992e+06 1.5266e+06 0 -2.10505e+06 1.51703e+06 0 -2.11062e+06 1.50696e+06 0 -2.11663e+06 1.49638e+06 0 -2.1231e+06 1.48529e+06 0 -2.13005e+06 1.47371e+06 0 -2.13749e+06 1.46164e+06 0 -2.14543e+06 1.4491e+06 0 -2.1539e+06 1.43609e+06 0 -2.16289e+06 1.42261e+06 0 -2.17244e+06 1.4087e+06 0 -2.18255e+06 1.39436e+06 0 -2.19323e+06 1.3796e+06 0 -2.20451e+06 1.36445e+06 0 -2.21641e+06 1.34893e+06 0 -2.22893e+06 1.33307e+06 0 -2.2421e+06 1.3169e+06 0 -2.25593e+06 1.30044e+06 0 -2.27047e+06 1.28375e+06 0 -2.28572e+06 1.26687e+06 0 -2.30172e+06 1.24984e+06 0 -2.31851e+06 1.23275e+06 0 -2.33614e+06 1.21565e+06 0 -2.35464e+06 1.19865e+06 0 -2.3741e+06 1.18183e+06 0 -2.39458e+06 1.16532e+06 0 -2.41618e+06 1.14928e+06 0 -2.43903e+06 1.13387e+06 0 -2.46329e+06 1.1193e+06 0 -2.48916e+06 1.10583e+06 0 -2.51689e+06 1.09379e+06 0 -2.54684e+06 1.08356e+06 0 -2.57948e+06 1.07564e+06 0 -2.61542e+06 1.07069e+06 0 -2.65556e+06 1.06953e+06 0 -2.70109e+06 1.07333e+06 0 -2.75386e+06 1.08357e+06 0 -2.81637e+06 1.10276e+06 0 -2.89335e+06 1.13387e+06 0 -2.99099e+06 1.1826e+06 0 -3.12125e+06 1.25978e+06 0 -3.31865e+06 1.38938e+06 0 -3.63054e+06 1.54971e+06 0 -4.19247e+06 2.42681e+06 0 -8.09271e+06 3.75371e+06 0 -1.97265e+06 1.07978e+06 0 -1.97624e+06 1.09019e+06 0 -1.97981e+06 1.10063e+06 0 -1.98335e+06 1.1111e+06 0 -1.98685e+06 1.12159e+06 0 -1.99031e+06 1.1321e+06 0 -1.99372e+06 1.14264e+06 0 -1.9971e+06 1.15319e+06 0 -2.00043e+06 1.16376e+06 0 -2.00371e+06 1.17434e+06 0 -2.00694e+06 1.18494e+06 0 -2.01011e+06 1.19554e+06 0 -2.01323e+06 1.20615e+06 0 -2.01628e+06 1.21676e+06 0 -2.01928e+06 1.22738e+06 0 -2.02221e+06 1.23799e+06 0 -2.02507e+06 1.24859e+06 0 -2.02786e+06 1.25918e+06 0 -2.03057e+06 1.26975e+06 0 -2.03321e+06 1.28031e+06 0 -2.03577e+06 1.29084e+06 0 -2.03825e+06 1.30134e+06 0 -2.04065e+06 1.3118e+06 0 -2.04295e+06 1.32223e+06 0 -2.04517e+06 1.33261e+06 0 -2.0473e+06 1.34294e+06 0 -2.04933e+06 1.35321e+06 0 -2.05127e+06 1.36341e+06 0 -2.0531e+06 1.37354e+06 0 -2.05484e+06 1.3836e+06 0 -2.05648e+06 1.39356e+06 0 -2.05801e+06 1.40344e+06 0 -2.05945e+06 1.41321e+06 0 -2.06077e+06 1.42287e+06 0 -2.06199e+06 1.4324e+06 0 -2.06311e+06 1.44181e+06 0 -2.06412e+06 1.45108e+06 0 -2.06502e+06 1.46021e+06 0 -2.06582e+06 1.46917e+06 0 -2.06651e+06 1.47796e+06 0 -2.06711e+06 1.48658e+06 0 -2.0676e+06 1.495e+06 0 -2.068e+06 1.50323e+06 0 -2.0683e+06 1.51124e+06 0 -2.0685e+06 1.51903e+06 0 -2.06863e+06 1.52658e+06 0 -2.06866e+06 1.53388e+06 0 -2.06862e+06 1.54093e+06 0 -2.06851e+06 1.5477e+06 0 -2.06833e+06 1.5542e+06 0 -2.06809e+06 1.56039e+06 0 -2.06779e+06 1.56628e+06 0 -2.06745e+06 1.57185e+06 0 -2.06708e+06 1.57709e+06 0 -2.06667e+06 1.58199e+06 0 -2.06625e+06 1.58653e+06 0 -2.06582e+06 1.5907e+06 0 -2.06539e+06 1.5945e+06 0 -2.06498e+06 1.59791e+06 0 -2.0646e+06 1.60092e+06 0 -2.06425e+06 1.60352e+06 0 -2.06395e+06 1.60571e+06 0 -2.06372e+06 1.60746e+06 0 -2.06356e+06 1.60877e+06 0 -2.0635e+06 1.60964e+06 0 -2.06355e+06 1.61006e+06 0 -2.06371e+06 1.61001e+06 0 -2.06402e+06 1.60949e+06 0 -2.06447e+06 1.60849e+06 0 -2.0651e+06 1.60701e+06 0 -2.06591e+06 1.60504e+06 0 -2.06691e+06 1.60258e+06 0 -2.06814e+06 1.59962e+06 0 -2.06959e+06 1.59616e+06 0 -2.0713e+06 1.59219e+06 0 -2.07327e+06 1.58771e+06 0 -2.07551e+06 1.58272e+06 0 -2.07806e+06 1.57722e+06 0 -2.08091e+06 1.57121e+06 0 -2.0841e+06 1.56468e+06 0 -2.08763e+06 1.55764e+06 0 -2.09151e+06 1.55008e+06 0 -2.09577e+06 1.54202e+06 0 -2.10042e+06 1.53344e+06 0 -2.10548e+06 1.52436e+06 0 -2.11095e+06 1.51477e+06 0 -2.11686e+06 1.50468e+06 0 -2.12321e+06 1.4941e+06 0 -2.13003e+06 1.48302e+06 0 -2.13732e+06 1.47147e+06 0 -2.14509e+06 1.45944e+06 0 -2.15337e+06 1.44695e+06 0 -2.16217e+06 1.434e+06 0 -2.1715e+06 1.42061e+06 0 -2.18137e+06 1.40679e+06 0 -2.1918e+06 1.39255e+06 0 -2.2028e+06 1.37792e+06 0 -2.21439e+06 1.36292e+06 0 -2.22658e+06 1.34756e+06 0 -2.23939e+06 1.33188e+06 0 -2.25283e+06 1.31591e+06 0 -2.26694e+06 1.29968e+06 0 -2.28172e+06 1.28325e+06 0 -2.29721e+06 1.26665e+06 0 -2.31343e+06 1.24995e+06 0 -2.33042e+06 1.23321e+06 0 -2.34823e+06 1.21652e+06 0 -2.36689e+06 1.19996e+06 0 -2.38647e+06 1.18366e+06 0 -2.40704e+06 1.16774e+06 0 -2.4287e+06 1.15237e+06 0 -2.45157e+06 1.13774e+06 0 -2.4758e+06 1.12408e+06 0 -2.50158e+06 1.11169e+06 0 -2.52917e+06 1.10092e+06 0 -2.5589e+06 1.09223e+06 0 -2.59123e+06 1.0862e+06 0 -2.62677e+06 1.08357e+06 0 -2.66635e+06 1.08538e+06 0 -2.7112e+06 1.09295e+06 0 -2.76297e+06 1.10829e+06 0 -2.82432e+06 1.1343e+06 0 -2.89955e+06 1.17562e+06 0 -2.99499e+06 1.23587e+06 0 -3.11627e+06 1.35399e+06 0 -3.33808e+06 1.45148e+06 0 -3.48465e+06 1.86157e+06 0 -4.37517e+06 2.66086e+06 0 -1.96828e+06 1.07924e+06 0 -1.97186e+06 1.08959e+06 0 -1.9754e+06 1.09996e+06 0 -1.97892e+06 1.11037e+06 0 -1.9824e+06 1.12079e+06 0 -1.98584e+06 1.13124e+06 0 -1.98925e+06 1.1417e+06 0 -1.99261e+06 1.15219e+06 0 -1.99593e+06 1.16269e+06 0 -1.9992e+06 1.1732e+06 0 -2.00242e+06 1.18372e+06 0 -2.00559e+06 1.19426e+06 0 -2.0087e+06 1.2048e+06 0 -2.01176e+06 1.21534e+06 0 -2.01476e+06 1.22588e+06 0 -2.01769e+06 1.23642e+06 0 -2.02056e+06 1.24695e+06 0 -2.02336e+06 1.25746e+06 0 -2.02609e+06 1.26797e+06 0 -2.02874e+06 1.27845e+06 0 -2.03132e+06 1.28891e+06 0 -2.03382e+06 1.29934e+06 0 -2.03624e+06 1.30974e+06 0 -2.03858e+06 1.3201e+06 0 -2.04083e+06 1.33041e+06 0 -2.04299e+06 1.34068e+06 0 -2.04506e+06 1.35088e+06 0 -2.04704e+06 1.36102e+06 0 -2.04893e+06 1.3711e+06 0 -2.05072e+06 1.3811e+06 0 -2.05241e+06 1.39101e+06 0 -2.054e+06 1.40083e+06 0 -2.0555e+06 1.41055e+06 0 -2.05689e+06 1.42016e+06 0 -2.05819e+06 1.42966e+06 0 -2.05938e+06 1.43904e+06 0 -2.06047e+06 1.44827e+06 0 -2.06146e+06 1.45737e+06 0 -2.06235e+06 1.46631e+06 0 -2.06314e+06 1.47509e+06 0 -2.06383e+06 1.48369e+06 0 -2.06442e+06 1.49212e+06 0 -2.06492e+06 1.50034e+06 0 -2.06533e+06 1.50836e+06 0 -2.06566e+06 1.51617e+06 0 -2.06589e+06 1.52375e+06 0 -2.06605e+06 1.53109e+06 0 -2.06613e+06 1.53818e+06 0 -2.06615e+06 1.545e+06 0 -2.06609e+06 1.55156e+06 0 -2.06598e+06 1.55782e+06 0 -2.06582e+06 1.56379e+06 0 -2.06561e+06 1.56946e+06 0 -2.06537e+06 1.5748e+06 0 -2.0651e+06 1.57981e+06 0 -2.06482e+06 1.58448e+06 0 -2.06452e+06 1.58879e+06 0 -2.06423e+06 1.59274e+06 0 -2.06395e+06 1.59631e+06 0 -2.06369e+06 1.5995e+06 0 -2.06347e+06 1.60229e+06 0 -2.0633e+06 1.60467e+06 0 -2.06319e+06 1.60664e+06 0 -2.06315e+06 1.60818e+06 0 -2.0632e+06 1.60929e+06 0 -2.06336e+06 1.60996e+06 0 -2.06363e+06 1.61018e+06 0 -2.06403e+06 1.60994e+06 0 -2.06458e+06 1.60924e+06 0 -2.06529e+06 1.60806e+06 0 -2.06617e+06 1.60641e+06 0 -2.06725e+06 1.60428e+06 0 -2.06853e+06 1.60167e+06 0 -2.07004e+06 1.59856e+06 0 -2.07178e+06 1.59496e+06 0 -2.07378e+06 1.59086e+06 0 -2.07605e+06 1.58627e+06 0 -2.07861e+06 1.58117e+06 0 -2.08146e+06 1.57557e+06 0 -2.08464e+06 1.56947e+06 0 -2.08814e+06 1.56286e+06 0 -2.09199e+06 1.55575e+06 0 -2.09621e+06 1.54814e+06 0 -2.1008e+06 1.54002e+06 0 -2.10578e+06 1.53141e+06 0 -2.11117e+06 1.5223e+06 0 -2.11697e+06 1.5127e+06 0 -2.12321e+06 1.50261e+06 0 -2.1299e+06 1.49203e+06 0 -2.13705e+06 1.48098e+06 0 -2.14467e+06 1.46946e+06 0 -2.15278e+06 1.45748e+06 0 -2.16138e+06 1.44505e+06 0 -2.1705e+06 1.43217e+06 0 -2.18015e+06 1.41887e+06 0 -2.19033e+06 1.40515e+06 0 -2.20107e+06 1.39103e+06 0 -2.21237e+06 1.37654e+06 0 -2.22425e+06 1.36168e+06 0 -2.23672e+06 1.34649e+06 0 -2.2498e+06 1.331e+06 0 -2.26351e+06 1.31524e+06 0 -2.27786e+06 1.29925e+06 0 -2.29287e+06 1.28308e+06 0 -2.30857e+06 1.26677e+06 0 -2.32499e+06 1.2504e+06 0 -2.34215e+06 1.23402e+06 0 -2.3601e+06 1.21774e+06 0 -2.37887e+06 1.20165e+06 0 -2.39853e+06 1.18587e+06 0 -2.41915e+06 1.17055e+06 0 -2.44082e+06 1.15586e+06 0 -2.46363e+06 1.14202e+06 0 -2.48775e+06 1.12929e+06 0 -2.51334e+06 1.11799e+06 0 -2.54066e+06 1.10852e+06 0 -2.57002e+06 1.10141e+06 0 -2.60183e+06 1.0973e+06 0 -2.63668e+06 1.09709e+06 0 -2.67536e+06 1.10194e+06 0 -2.71898e+06 1.11351e+06 0 -2.7691e+06 1.13396e+06 0 -2.82778e+06 1.16828e+06 0 -2.9014e+06 1.21569e+06 0 -2.98217e+06 1.30673e+06 0 -3.1224e+06 1.41664e+06 0 -3.25704e+06 1.64732e+06 0 -3.41729e+06 1.91858e+06 0 -1.96392e+06 1.0787e+06 0 -1.96747e+06 1.08898e+06 0 -1.971e+06 1.0993e+06 0 -1.9745e+06 1.10963e+06 0 -1.97796e+06 1.11999e+06 0 -1.98139e+06 1.13037e+06 0 -1.98478e+06 1.14077e+06 0 -1.98813e+06 1.15119e+06 0 -1.99144e+06 1.16162e+06 0 -1.9947e+06 1.17206e+06 0 -1.99791e+06 1.18252e+06 0 -2.00107e+06 1.19298e+06 0 -2.00419e+06 1.20345e+06 0 -2.00724e+06 1.21392e+06 0 -2.01024e+06 1.22439e+06 0 -2.01318e+06 1.23486e+06 0 -2.01605e+06 1.24532e+06 0 -2.01886e+06 1.25577e+06 0 -2.0216e+06 1.2662e+06 0 -2.02427e+06 1.27661e+06 0 -2.02687e+06 1.287e+06 0 -2.02939e+06 1.29737e+06 0 -2.03183e+06 1.3077e+06 0 -2.03419e+06 1.31799e+06 0 -2.03648e+06 1.32824e+06 0 -2.03867e+06 1.33844e+06 0 -2.04078e+06 1.34858e+06 0 -2.0428e+06 1.35866e+06 0 -2.04473e+06 1.36868e+06 0 -2.04657e+06 1.37862e+06 0 -2.04832e+06 1.38848e+06 0 -2.04997e+06 1.39825e+06 0 -2.05153e+06 1.40792e+06 0 -2.05299e+06 1.41749e+06 0 -2.05435e+06 1.42695e+06 0 -2.05562e+06 1.43628e+06 0 -2.05679e+06 1.44549e+06 0 -2.05786e+06 1.45456e+06 0 -2.05883e+06 1.46348e+06 0 -2.05971e+06 1.47224e+06 0 -2.0605e+06 1.48083e+06 0 -2.06119e+06 1.48925e+06 0 -2.0618e+06 1.49748e+06 0 -2.06231e+06 1.50551e+06 0 -2.06274e+06 1.51333e+06 0 -2.0631e+06 1.52093e+06 0 -2.06337e+06 1.5283e+06 0 -2.06357e+06 1.53543e+06 0 -2.0637e+06 1.54231e+06 0 -2.06377e+06 1.54892e+06 0 -2.06379e+06 1.55526e+06 0 -2.06375e+06 1.56131e+06 0 -2.06368e+06 1.56706e+06 0 -2.06356e+06 1.5725e+06 0 -2.06342e+06 1.57762e+06 0 -2.06327e+06 1.58241e+06 0 -2.0631e+06 1.58686e+06 0 -2.06294e+06 1.59095e+06 0 -2.06279e+06 1.59468e+06 0 -2.06266e+06 1.59804e+06 0 -2.06256e+06 1.60101e+06 0 -2.06251e+06 1.60359e+06 0 -2.06252e+06 1.60576e+06 0 -2.0626e+06 1.60752e+06 0 -2.06277e+06 1.60887e+06 0 -2.06303e+06 1.60978e+06 0 -2.0634e+06 1.61026e+06 0 -2.06389e+06 1.61029e+06 0 -2.06453e+06 1.60987e+06 0 -2.06532e+06 1.60899e+06 0 -2.06628e+06 1.60765e+06 0 -2.06743e+06 1.60585e+06 0 -2.06877e+06 1.60356e+06 0 -2.07033e+06 1.60081e+06 0 -2.07212e+06 1.59756e+06 0 -2.07415e+06 1.59384e+06 0 -2.07644e+06 1.58962e+06 0 -2.07901e+06 1.58492e+06 0 -2.08187e+06 1.57973e+06 0 -2.08503e+06 1.57404e+06 0 -2.08852e+06 1.56785e+06 0 -2.09234e+06 1.56118e+06 0 -2.09651e+06 1.55401e+06 0 -2.10104e+06 1.54635e+06 0 -2.10596e+06 1.5382e+06 0 -2.11126e+06 1.52956e+06 0 -2.11698e+06 1.52043e+06 0 -2.12311e+06 1.51083e+06 0 -2.12967e+06 1.50074e+06 0 -2.13669e+06 1.49019e+06 0 -2.14416e+06 1.47917e+06 0 -2.1521e+06 1.46769e+06 0 -2.16053e+06 1.45577e+06 0 -2.16945e+06 1.4434e+06 0 -2.17888e+06 1.43061e+06 0 -2.18883e+06 1.4174e+06 0 -2.19932e+06 1.40379e+06 0 -2.21034e+06 1.3898e+06 0 -2.22193e+06 1.37544e+06 0 -2.23408e+06 1.36074e+06 0 -2.24682e+06 1.34573e+06 0 -2.26016e+06 1.33043e+06 0 -2.2741e+06 1.31489e+06 0 -2.28868e+06 1.29914e+06 0 -2.3039e+06 1.28323e+06 0 -2.31979e+06 1.26722e+06 0 -2.33637e+06 1.25117e+06 0 -2.35367e+06 1.23517e+06 0 -2.37173e+06 1.2193e+06 0 -2.39058e+06 1.20367e+06 0 -2.41028e+06 1.18842e+06 0 -2.43089e+06 1.1737e+06 0 -2.45249e+06 1.1597e+06 0 -2.47518e+06 1.14666e+06 0 -2.4991e+06 1.13486e+06 0 -2.5244e+06 1.12465e+06 0 -2.55131e+06 1.1165e+06 0 -2.58011e+06 1.11097e+06 0 -2.6112e+06 1.1088e+06 0 -2.64507e+06 1.111e+06 0 -2.68241e+06 1.11898e+06 0 -2.72434e+06 1.13426e+06 0 -2.77139e+06 1.161e+06 0 -2.8284e+06 1.19959e+06 0 -2.89083e+06 1.26399e+06 0 -2.97235e+06 1.35399e+06 0 -3.08039e+06 1.51409e+06 0 -3.19227e+06 1.77282e+06 0 -1.95956e+06 1.07816e+06 0 -1.9631e+06 1.08838e+06 0 -1.96661e+06 1.09863e+06 0 -1.97008e+06 1.1089e+06 0 -1.97353e+06 1.11919e+06 0 -1.97694e+06 1.12951e+06 0 -1.98032e+06 1.13984e+06 0 -1.98365e+06 1.15019e+06 0 -1.98695e+06 1.16055e+06 0 -1.9902e+06 1.17093e+06 0 -1.99341e+06 1.18132e+06 0 -1.99656e+06 1.19171e+06 0 -1.99967e+06 1.20211e+06 0 -2.00272e+06 1.21251e+06 0 -2.00572e+06 1.22292e+06 0 -2.00866e+06 1.23331e+06 0 -2.01154e+06 1.2437e+06 0 -2.01436e+06 1.25408e+06 0 -2.01711e+06 1.26445e+06 0 -2.0198e+06 1.27479e+06 0 -2.02241e+06 1.28511e+06 0 -2.02495e+06 1.29541e+06 0 -2.02742e+06 1.30567e+06 0 -2.02981e+06 1.3159e+06 0 -2.03212e+06 1.32608e+06 0 -2.03435e+06 1.33622e+06 0 -2.03649e+06 1.3463e+06 0 -2.03855e+06 1.35632e+06 0 -2.04053e+06 1.36628e+06 0 -2.04242e+06 1.37616e+06 0 -2.04421e+06 1.38597e+06 0 -2.04592e+06 1.39569e+06 0 -2.04754e+06 1.40532e+06 0 -2.04906e+06 1.41484e+06 0 -2.05049e+06 1.42426e+06 0 -2.05183e+06 1.43356e+06 0 -2.05307e+06 1.44273e+06 0 -2.05422e+06 1.45177e+06 0 -2.05528e+06 1.46067e+06 0 -2.05625e+06 1.46941e+06 0 -2.05712e+06 1.478e+06 0 -2.05791e+06 1.48641e+06 0 -2.05862e+06 1.49464e+06 0 -2.05923e+06 1.50268e+06 0 -2.05977e+06 1.51051e+06 0 -2.06023e+06 1.51813e+06 0 -2.06061e+06 1.52554e+06 0 -2.06093e+06 1.5327e+06 0 -2.06118e+06 1.53963e+06 0 -2.06137e+06 1.54629e+06 0 -2.06151e+06 1.55269e+06 0 -2.06159e+06 1.55882e+06 0 -2.06164e+06 1.56465e+06 0 -2.06165e+06 1.57019e+06 0 -2.06164e+06 1.57542e+06 0 -2.06161e+06 1.58032e+06 0 -2.06157e+06 1.5849e+06 0 -2.06154e+06 1.58913e+06 0 -2.06151e+06 1.59301e+06 0 -2.0615e+06 1.59653e+06 0 -2.06153e+06 1.59968e+06 0 -2.0616e+06 1.60244e+06 0 -2.06172e+06 1.60482e+06 0 -2.06192e+06 1.60679e+06 0 -2.06219e+06 1.60836e+06 0 -2.06255e+06 1.60951e+06 0 -2.06302e+06 1.61024e+06 0 -2.06361e+06 1.61054e+06 0 -2.06434e+06 1.61039e+06 0 -2.06521e+06 1.60981e+06 0 -2.06625e+06 1.60877e+06 0 -2.06746e+06 1.60727e+06 0 -2.06886e+06 1.60532e+06 0 -2.07047e+06 1.6029e+06 0 -2.0723e+06 1.6e+06 0 -2.07436e+06 1.59664e+06 0 -2.07668e+06 1.5928e+06 0 -2.07926e+06 1.58848e+06 0 -2.08213e+06 1.58368e+06 0 -2.08529e+06 1.57839e+06 0 -2.08875e+06 1.57263e+06 0 -2.09255e+06 1.56638e+06 0 -2.09668e+06 1.55964e+06 0 -2.10116e+06 1.55243e+06 0 -2.10601e+06 1.54473e+06 0 -2.11124e+06 1.53655e+06 0 -2.11686e+06 1.52789e+06 0 -2.12289e+06 1.51876e+06 0 -2.12934e+06 1.50916e+06 0 -2.13623e+06 1.49909e+06 0 -2.14355e+06 1.48857e+06 0 -2.15134e+06 1.47759e+06 0 -2.15959e+06 1.46616e+06 0 -2.16833e+06 1.4543e+06 0 -2.17756e+06 1.44201e+06 0 -2.18729e+06 1.4293e+06 0 -2.19753e+06 1.4162e+06 0 -2.2083e+06 1.4027e+06 0 -2.21961e+06 1.38884e+06 0 -2.23147e+06 1.37463e+06 0 -2.24388e+06 1.36009e+06 0 -2.25687e+06 1.34526e+06 0 -2.27044e+06 1.33017e+06 0 -2.28461e+06 1.31484e+06 0 -2.29939e+06 1.29934e+06 0 -2.3148e+06 1.2837e+06 0 -2.33085e+06 1.26799e+06 0 -2.34757e+06 1.25227e+06 0 -2.36498e+06 1.23664e+06 0 -2.38311e+06 1.22118e+06 0 -2.402e+06 1.20602e+06 0 -2.42169e+06 1.19129e+06 0 -2.44223e+06 1.17717e+06 0 -2.46371e+06 1.16386e+06 0 -2.4862e+06 1.15161e+06 0 -2.50982e+06 1.14074e+06 0 -2.53471e+06 1.13163e+06 0 -2.56107e+06 1.12477e+06 0 -2.58914e+06 1.12082e+06 0 -2.61926e+06 1.12057e+06 0 -2.6518e+06 1.12523e+06 0 -2.68753e+06 1.13604e+06 0 -2.72663e+06 1.15582e+06 0 -2.7712e+06 1.18647e+06 0 -2.82151e+06 1.23477e+06 0 -2.87784e+06 1.30569e+06 0 -2.94477e+06 1.41028e+06 0 -3.02209e+06 1.59118e+06 0 -1.95521e+06 1.07762e+06 0 -1.95873e+06 1.08778e+06 0 -1.96222e+06 1.09797e+06 0 -1.96568e+06 1.10817e+06 0 -1.9691e+06 1.1184e+06 0 -1.9725e+06 1.12865e+06 0 -1.97586e+06 1.13892e+06 0 -1.97918e+06 1.1492e+06 0 -1.98247e+06 1.1595e+06 0 -1.98571e+06 1.16981e+06 0 -1.98891e+06 1.18013e+06 0 -1.99206e+06 1.19045e+06 0 -1.99516e+06 1.20078e+06 0 -1.99821e+06 1.21112e+06 0 -2.00121e+06 1.22145e+06 0 -2.00415e+06 1.23178e+06 0 -2.00704e+06 1.2421e+06 0 -2.00986e+06 1.25241e+06 0 -2.01263e+06 1.26271e+06 0 -2.01532e+06 1.27298e+06 0 -2.01795e+06 1.28324e+06 0 -2.02051e+06 1.29347e+06 0 -2.023e+06 1.30366e+06 0 -2.02541e+06 1.31382e+06 0 -2.02775e+06 1.32394e+06 0 -2.03001e+06 1.33402e+06 0 -2.03219e+06 1.34404e+06 0 -2.03429e+06 1.354e+06 0 -2.03631e+06 1.3639e+06 0 -2.03824e+06 1.37373e+06 0 -2.04009e+06 1.38349e+06 0 -2.04185e+06 1.39316e+06 0 -2.04352e+06 1.40274e+06 0 -2.04511e+06 1.41222e+06 0 -2.0466e+06 1.4216e+06 0 -2.04801e+06 1.43086e+06 0 -2.04932e+06 1.44e+06 0 -2.05055e+06 1.44901e+06 0 -2.05169e+06 1.45789e+06 0 -2.05274e+06 1.46661e+06 0 -2.0537e+06 1.47518e+06 0 -2.05458e+06 1.48359e+06 0 -2.05538e+06 1.49182e+06 0 -2.0561e+06 1.49986e+06 0 -2.05673e+06 1.50771e+06 0 -2.0573e+06 1.51535e+06 0 -2.05779e+06 1.52278e+06 0 -2.05822e+06 1.52998e+06 0 -2.05858e+06 1.53695e+06 0 -2.05888e+06 1.54367e+06 0 -2.05914e+06 1.55013e+06 0 -2.05934e+06 1.55633e+06 0 -2.05951e+06 1.56225e+06 0 -2.05965e+06 1.56787e+06 0 -2.05976e+06 1.5732e+06 0 -2.05985e+06 1.57822e+06 0 -2.05993e+06 1.58292e+06 0 -2.06002e+06 1.58729e+06 0 -2.06011e+06 1.59131e+06 0 -2.06023e+06 1.59499e+06 0 -2.06037e+06 1.5983e+06 0 -2.06055e+06 1.60125e+06 0 -2.06079e+06 1.60382e+06 0 -2.06109e+06 1.606e+06 0 -2.06147e+06 1.60778e+06 0 -2.06194e+06 1.60917e+06 0 -2.06251e+06 1.61014e+06 0 -2.06319e+06 1.61069e+06 0 -2.064e+06 1.61081e+06 0 -2.06495e+06 1.6105e+06 0 -2.06606e+06 1.60976e+06 0 -2.06734e+06 1.60857e+06 0 -2.0688e+06 1.60693e+06 0 -2.07046e+06 1.60484e+06 0 -2.07234e+06 1.60228e+06 0 -2.07444e+06 1.59927e+06 0 -2.07678e+06 1.59579e+06 0 -2.07938e+06 1.59185e+06 0 -2.08224e+06 1.58743e+06 0 -2.0854e+06 1.58254e+06 0 -2.08885e+06 1.57718e+06 0 -2.09262e+06 1.57135e+06 0 -2.09671e+06 1.56504e+06 0 -2.10115e+06 1.55826e+06 0 -2.10594e+06 1.551e+06 0 -2.11109e+06 1.54327e+06 0 -2.11663e+06 1.53508e+06 0 -2.12257e+06 1.52641e+06 0 -2.12891e+06 1.51729e+06 0 -2.13567e+06 1.5077e+06 0 -2.14286e+06 1.49766e+06 0 -2.15049e+06 1.48717e+06 0 -2.15858e+06 1.47623e+06 0 -2.16714e+06 1.46487e+06 0 -2.17617e+06 1.45307e+06 0 -2.18569e+06 1.44087e+06 0 -2.19571e+06 1.42826e+06 0 -2.20624e+06 1.41526e+06 0 -2.21728e+06 1.40189e+06 0 -2.22886e+06 1.38816e+06 0 -2.24097e+06 1.3741e+06 0 -2.25363e+06 1.35973e+06 0 -2.26685e+06 1.34509e+06 0 -2.28064e+06 1.33019e+06 0 -2.29501e+06 1.3151e+06 0 -2.30997e+06 1.29984e+06 0 -2.32554e+06 1.28447e+06 0 -2.34173e+06 1.26906e+06 0 -2.35856e+06 1.25367e+06 0 -2.37605e+06 1.23841e+06 0 -2.39422e+06 1.22336e+06 0 -2.4131e+06 1.20866e+06 0 -2.43274e+06 1.19446e+06 0 -2.45317e+06 1.18093e+06 0 -2.47445e+06 1.16829e+06 0 -2.49666e+06 1.15683e+06 0 -2.51988e+06 1.14687e+06 0 -2.54425e+06 1.13883e+06 0 -2.56991e+06 1.13326e+06 0 -2.59706e+06 1.13083e+06 0 -2.62593e+06 1.1325e+06 0 -2.65692e+06 1.13938e+06 0 -2.69028e+06 1.15334e+06 0 -2.72657e+06 1.17644e+06 0 -2.76656e+06 1.21228e+06 0 -2.81022e+06 1.26694e+06 0 -2.85739e+06 1.34606e+06 0 -2.90484e+06 1.46269e+06 0 -1.95087e+06 1.07708e+06 0 -1.95436e+06 1.08718e+06 0 -1.95783e+06 1.0973e+06 0 -1.96127e+06 1.10745e+06 0 -1.96468e+06 1.11761e+06 0 -1.96806e+06 1.1278e+06 0 -1.97141e+06 1.138e+06 0 -1.97472e+06 1.14822e+06 0 -1.97799e+06 1.15845e+06 0 -1.98122e+06 1.16869e+06 0 -1.98441e+06 1.17894e+06 0 -1.98756e+06 1.1892e+06 0 -1.99066e+06 1.19946e+06 0 -1.99371e+06 1.20973e+06 0 -1.9967e+06 1.21999e+06 0 -1.99965e+06 1.23025e+06 0 -2.00254e+06 1.24051e+06 0 -2.00537e+06 1.25075e+06 0 -2.00814e+06 1.26098e+06 0 -2.01085e+06 1.27119e+06 0 -2.01349e+06 1.28138e+06 0 -2.01607e+06 1.29154e+06 0 -2.01858e+06 1.30167e+06 0 -2.02102e+06 1.31177e+06 0 -2.02338e+06 1.32183e+06 0 -2.02567e+06 1.33184e+06 0 -2.02789e+06 1.3418e+06 0 -2.03002e+06 1.35171e+06 0 -2.03208e+06 1.36155e+06 0 -2.03406e+06 1.37132e+06 0 -2.03595e+06 1.38103e+06 0 -2.03776e+06 1.39065e+06 0 -2.03949e+06 1.40018e+06 0 -2.04113e+06 1.40962e+06 0 -2.04269e+06 1.41896e+06 0 -2.04416e+06 1.42818e+06 0 -2.04554e+06 1.43729e+06 0 -2.04684e+06 1.44628e+06 0 -2.04806e+06 1.45513e+06 0 -2.04919e+06 1.46384e+06 0 -2.05024e+06 1.47239e+06 0 -2.0512e+06 1.48079e+06 0 -2.05209e+06 1.48902e+06 0 -2.0529e+06 1.49707e+06 0 -2.05364e+06 1.50493e+06 0 -2.0543e+06 1.51259e+06 0 -2.0549e+06 1.52004e+06 0 -2.05543e+06 1.52728e+06 0 -2.0559e+06 1.53429e+06 0 -2.05632e+06 1.54106e+06 0 -2.05669e+06 1.54758e+06 0 -2.05701e+06 1.55384e+06 0 -2.05729e+06 1.55984e+06 0 -2.05754e+06 1.56555e+06 0 -2.05777e+06 1.57098e+06 0 -2.05798e+06 1.5761e+06 0 -2.05819e+06 1.58092e+06 0 -2.05839e+06 1.58541e+06 0 -2.0586e+06 1.58958e+06 0 -2.05883e+06 1.59341e+06 0 -2.05909e+06 1.59689e+06 0 -2.05939e+06 1.60001e+06 0 -2.05973e+06 1.60276e+06 0 -2.06014e+06 1.60514e+06 0 -2.06062e+06 1.60714e+06 0 -2.06119e+06 1.60874e+06 0 -2.06185e+06 1.60994e+06 0 -2.06263e+06 1.61074e+06 0 -2.06352e+06 1.61113e+06 0 -2.06455e+06 1.61109e+06 0 -2.06573e+06 1.61063e+06 0 -2.06708e+06 1.60973e+06 0 -2.0686e+06 1.6084e+06 0 -2.07031e+06 1.60663e+06 0 -2.07223e+06 1.60441e+06 0 -2.07436e+06 1.60174e+06 0 -2.07673e+06 1.59861e+06 0 -2.07934e+06 1.59503e+06 0 -2.08222e+06 1.59099e+06 0 -2.08537e+06 1.58649e+06 0 -2.08881e+06 1.58153e+06 0 -2.09255e+06 1.5761e+06 0 -2.09661e+06 1.5702e+06 0 -2.101e+06 1.56385e+06 0 -2.10574e+06 1.55703e+06 0 -2.11083e+06 1.54974e+06 0 -2.11629e+06 1.54199e+06 0 -2.12213e+06 1.53379e+06 0 -2.12836e+06 1.52513e+06 0 -2.13501e+06 1.51601e+06 0 -2.14207e+06 1.50645e+06 0 -2.14956e+06 1.49644e+06 0 -2.15749e+06 1.48599e+06 0 -2.16588e+06 1.47511e+06 0 -2.17472e+06 1.46381e+06 0 -2.18404e+06 1.45209e+06 0 -2.19385e+06 1.43998e+06 0 -2.20414e+06 1.42747e+06 0 -2.21494e+06 1.41458e+06 0 -2.22624e+06 1.40134e+06 0 -2.23807e+06 1.38775e+06 0 -2.25042e+06 1.37385e+06 0 -2.26332e+06 1.35965e+06 0 -2.27675e+06 1.34519e+06 0 -2.29074e+06 1.33051e+06 0 -2.3053e+06 1.31564e+06 0 -2.32042e+06 1.30063e+06 0 -2.33613e+06 1.28553e+06 0 -2.35243e+06 1.27042e+06 0 -2.36934e+06 1.25537e+06 0 -2.38687e+06 1.24047e+06 0 -2.40505e+06 1.22583e+06 0 -2.42389e+06 1.21158e+06 0 -2.44341e+06 1.19789e+06 0 -2.46367e+06 1.18494e+06 0 -2.48469e+06 1.17297e+06 0 -2.50654e+06 1.16227e+06 0 -2.52928e+06 1.15319e+06 0 -2.553e+06 1.1462e+06 0 -2.57781e+06 1.14185e+06 0 -2.60383e+06 1.14091e+06 0 -2.63125e+06 1.14434e+06 0 -2.66025e+06 1.15347e+06 0 -2.69096e+06 1.17012e+06 0 -2.72363e+06 1.19661e+06 0 -2.75813e+06 1.2369e+06 0 -2.79419e+06 1.29636e+06 0 -2.82922e+06 1.38334e+06 0 -1.94653e+06 1.07654e+06 0 -1.95001e+06 1.08658e+06 0 -1.95345e+06 1.09664e+06 0 -1.95688e+06 1.10672e+06 0 -1.96027e+06 1.11683e+06 0 -1.96363e+06 1.12695e+06 0 -1.96696e+06 1.13708e+06 0 -1.97026e+06 1.14724e+06 0 -1.97352e+06 1.1574e+06 0 -1.97674e+06 1.16758e+06 0 -1.97992e+06 1.17776e+06 0 -1.98306e+06 1.18796e+06 0 -1.98615e+06 1.19815e+06 0 -1.9892e+06 1.20835e+06 0 -1.9922e+06 1.21855e+06 0 -1.99515e+06 1.22874e+06 0 -1.99804e+06 1.23893e+06 0 -2.00088e+06 1.2491e+06 0 -2.00366e+06 1.25927e+06 0 -2.00637e+06 1.26941e+06 0 -2.00903e+06 1.27953e+06 0 -2.01163e+06 1.28963e+06 0 -2.01415e+06 1.2997e+06 0 -2.01661e+06 1.30973e+06 0 -2.019e+06 1.31973e+06 0 -2.02132e+06 1.32968e+06 0 -2.02357e+06 1.33958e+06 0 -2.02574e+06 1.34943e+06 0 -2.02784e+06 1.35922e+06 0 -2.02985e+06 1.36894e+06 0 -2.03179e+06 1.37859e+06 0 -2.03365e+06 1.38816e+06 0 -2.03543e+06 1.39765e+06 0 -2.03713e+06 1.40704e+06 0 -2.03874e+06 1.41634e+06 0 -2.04028e+06 1.42553e+06 0 -2.04173e+06 1.43461e+06 0 -2.0431e+06 1.44357e+06 0 -2.04439e+06 1.45239e+06 0 -2.0456e+06 1.46108e+06 0 -2.04673e+06 1.46962e+06 0 -2.04778e+06 1.47801e+06 0 -2.04875e+06 1.48624e+06 0 -2.04966e+06 1.49429e+06 0 -2.05049e+06 1.50216e+06 0 -2.05125e+06 1.50984e+06 0 -2.05194e+06 1.51732e+06 0 -2.05258e+06 1.52458e+06 0 -2.05315e+06 1.53163e+06 0 -2.05368e+06 1.53845e+06 0 -2.05415e+06 1.54503e+06 0 -2.05459e+06 1.55135e+06 0 -2.05498e+06 1.55742e+06 0 -2.05535e+06 1.56322e+06 0 -2.05569e+06 1.56874e+06 0 -2.05602e+06 1.57397e+06 0 -2.05633e+06 1.57889e+06 0 -2.05665e+06 1.58351e+06 0 -2.05698e+06 1.58782e+06 0 -2.05732e+06 1.59179e+06 0 -2.05769e+06 1.59542e+06 0 -2.05809e+06 1.59871e+06 0 -2.05855e+06 1.60165e+06 0 -2.05906e+06 1.60422e+06 0 -2.05964e+06 1.60642e+06 0 -2.06031e+06 1.60824e+06 0 -2.06106e+06 1.60967e+06 0 -2.06192e+06 1.6107e+06 0 -2.0629e+06 1.61134e+06 0 -2.06401e+06 1.61157e+06 0 -2.06526e+06 1.61138e+06 0 -2.06667e+06 1.61077e+06 0 -2.06825e+06 1.60974e+06 0 -2.07001e+06 1.60828e+06 0 -2.07197e+06 1.60638e+06 0 -2.07414e+06 1.60404e+06 0 -2.07654e+06 1.60126e+06 0 -2.07917e+06 1.59804e+06 0 -2.08205e+06 1.59436e+06 0 -2.0852e+06 1.59024e+06 0 -2.08863e+06 1.58566e+06 0 -2.09236e+06 1.58063e+06 0 -2.09638e+06 1.57514e+06 0 -2.10073e+06 1.5692e+06 0 -2.10541e+06 1.5628e+06 0 -2.11044e+06 1.55595e+06 0 -2.11582e+06 1.54865e+06 0 -2.12157e+06 1.54089e+06 0 -2.12771e+06 1.53268e+06 0 -2.13424e+06 1.52403e+06 0 -2.14118e+06 1.51494e+06 0 -2.14853e+06 1.5054e+06 0 -2.15632e+06 1.49543e+06 0 -2.16454e+06 1.48504e+06 0 -2.17321e+06 1.47422e+06 0 -2.18234e+06 1.46299e+06 0 -2.19193e+06 1.45136e+06 0 -2.20201e+06 1.43934e+06 0 -2.21257e+06 1.42693e+06 0 -2.22362e+06 1.41417e+06 0 -2.23517e+06 1.40106e+06 0 -2.24724e+06 1.38762e+06 0 -2.25982e+06 1.37387e+06 0 -2.27293e+06 1.35985e+06 0 -2.28656e+06 1.34558e+06 0 -2.30074e+06 1.3311e+06 0 -2.31545e+06 1.31646e+06 0 -2.33072e+06 1.3017e+06 0 -2.34655e+06 1.28687e+06 0 -2.36293e+06 1.27206e+06 0 -2.3799e+06 1.25733e+06 0 -2.39744e+06 1.24279e+06 0 -2.41558e+06 1.22855e+06 0 -2.43433e+06 1.21475e+06 0 -2.45371e+06 1.20156e+06 0 -2.47373e+06 1.18917e+06 0 -2.49443e+06 1.17784e+06 0 -2.51584e+06 1.16787e+06 0 -2.53799e+06 1.15964e+06 0 -2.56094e+06 1.15363e+06 0 -2.58475e+06 1.15045e+06 0 -2.60947e+06 1.15089e+06 0 -2.63517e+06 1.15598e+06 0 -2.66186e+06 1.16712e+06 0 -2.68952e+06 1.18616e+06 0 -2.71787e+06 1.21573e+06 0 -2.74631e+06 1.2594e+06 0 -2.77317e+06 1.3233e+06 0 -1.9422e+06 1.07601e+06 0 -1.94565e+06 1.08598e+06 0 -1.94908e+06 1.09598e+06 0 -1.95248e+06 1.106e+06 0 -1.95586e+06 1.11604e+06 0 -1.95921e+06 1.1261e+06 0 -1.96252e+06 1.13617e+06 0 -1.96581e+06 1.14626e+06 0 -1.96905e+06 1.15636e+06 0 -1.97227e+06 1.16647e+06 0 -1.97544e+06 1.17659e+06 0 -1.97857e+06 1.18672e+06 0 -1.98166e+06 1.19685e+06 0 -1.9847e+06 1.20698e+06 0 -1.9877e+06 1.21711e+06 0 -1.99064e+06 1.22724e+06 0 -1.99354e+06 1.23736e+06 0 -1.99638e+06 1.24747e+06 0 -1.99917e+06 1.25757e+06 0 -2.0019e+06 1.26765e+06 0 -2.00457e+06 1.2777e+06 0 -2.00718e+06 1.28774e+06 0 -2.00973e+06 1.29774e+06 0 -2.01221e+06 1.30771e+06 0 -2.01462e+06 1.31765e+06 0 -2.01697e+06 1.32754e+06 0 -2.01924e+06 1.33738e+06 0 -2.02145e+06 1.34717e+06 0 -2.02358e+06 1.3569e+06 0 -2.02564e+06 1.36657e+06 0 -2.02762e+06 1.37617e+06 0 -2.02952e+06 1.3857e+06 0 -2.03135e+06 1.39514e+06 0 -2.0331e+06 1.40449e+06 0 -2.03478e+06 1.41375e+06 0 -2.03637e+06 1.4229e+06 0 -2.03789e+06 1.43195e+06 0 -2.03932e+06 1.44088e+06 0 -2.04068e+06 1.44968e+06 0 -2.04197e+06 1.45835e+06 0 -2.04317e+06 1.46688e+06 0 -2.04431e+06 1.47526e+06 0 -2.04537e+06 1.48348e+06 0 -2.04635e+06 1.49153e+06 0 -2.04728e+06 1.49941e+06 0 -2.04813e+06 1.5071e+06 0 -2.04892e+06 1.5146e+06 0 -2.04966e+06 1.5219e+06 0 -2.05033e+06 1.52898e+06 0 -2.05096e+06 1.53585e+06 0 -2.05154e+06 1.54248e+06 0 -2.05208e+06 1.54887e+06 0 -2.05259e+06 1.555e+06 0 -2.05306e+06 1.56088e+06 0 -2.05351e+06 1.56649e+06 0 -2.05395e+06 1.57181e+06 0 -2.05438e+06 1.57685e+06 0 -2.05481e+06 1.58159e+06 0 -2.05524e+06 1.58602e+06 0 -2.05569e+06 1.59013e+06 0 -2.05617e+06 1.59392e+06 0 -2.05668e+06 1.59737e+06 0 -2.05724e+06 1.60048e+06 0 -2.05785e+06 1.60323e+06 0 -2.05853e+06 1.60563e+06 0 -2.05929e+06 1.60766e+06 0 -2.06014e+06 1.60931e+06 0 -2.06109e+06 1.61058e+06 0 -2.06215e+06 1.61145e+06 0 -2.06333e+06 1.61194e+06 0 -2.06465e+06 1.61202e+06 0 -2.06613e+06 1.61169e+06 0 -2.06776e+06 1.61094e+06 0 -2.06958e+06 1.60978e+06 0 -2.07158e+06 1.6082e+06 0 -2.07378e+06 1.60618e+06 0 -2.07621e+06 1.60374e+06 0 -2.07886e+06 1.60086e+06 0 -2.08175e+06 1.59754e+06 0 -2.0849e+06 1.59379e+06 0 -2.08832e+06 1.58959e+06 0 -2.09202e+06 1.58494e+06 0 -2.09602e+06 1.57986e+06 0 -2.10033e+06 1.57432e+06 0 -2.10496e+06 1.56834e+06 0 -2.10993e+06 1.56191e+06 0 -2.11524e+06 1.55504e+06 0 -2.12091e+06 1.54773e+06 0 -2.12695e+06