<?xml version="1.0"?> 
<VTKFile type="StructuredGrid" version="0.1"> 
<StructuredGrid WholeExtent="0 127 0 127 0 0"> 
<Piece Extent="0 127 0 127 0 0"> 
<PointData>
<DataArray type="Float32" Name="|E|" format="ascii" NumberOfComponents="3"> 
276971 4.20084e+06 0 276819 4.19854e+06 0 276670 4.19628e+06 0 276526 4.19409e+06 0 276384 4.19195e+06 0 276247 4.18986e+06 0 276112 4.18782e+06 0 275982 4.18584e+06 0 275854 4.18391e+06 0 275731 4.18203e+06 0 275610 4.18021e+06 0 275493 4.17843e+06 0 275380 4.17671e+06 0 275270 4.17504e+06 0 275163 4.17342e+06 0 275059 4.17185e+06 0 274959 4.17034e+06 0 274863 4.16887e+06 0 274769 4.16745e+06 0 274679 4.16609e+06 0 274593 4.16477e+06 0 274509 4.16351e+06 0 274429 4.16229e+06 0 274353 4.16113e+06 0 274279 4.16002e+06 0 274209 4.15896e+06 0 274143 4.15795e+06 0 274079 4.15699e+06 0 274020 4.15608e+06 0 273963 4.15523e+06 0 273910 4.15442e+06 0 273861 4.15367e+06 0 273814 4.15297e+06 0 273772 4.15232e+06 0 273732 4.15172e+06 0 273697 4.15118e+06 0 273664 4.15069e+06 0 273636 4.15026e+06 0 273611 4.14988e+06 0 273589 4.14956e+06 0 273572 4.14929e+06 0 273558 4.14907e+06 0 273547 4.14892e+06 0 273541 4.14882e+06 0 273538 4.14877e+06 0 273539 4.14879e+06 0 273544 4.14886e+06 0 273553 4.149e+06 0 273565 4.14919e+06 0 273582 4.14945e+06 0 273603 4.14976e+06 0 273628 4.15014e+06 0 273657 4.15059e+06 0 273691 4.1511e+06 0 273729 4.15167e+06 0 273771 4.15231e+06 0 273818 4.15302e+06 0 273869 4.1538e+06 0 273925 4.15464e+06 0 273985 4.15556e+06 0 274051 4.15655e+06 0 274121 4.15761e+06 0 274196 4.15875e+06 0 274276 4.15997e+06 0 274361 4.16126e+06 0 274451 4.16263e+06 0 274547 4.16408e+06 0 274648 4.16561e+06 0 274755 4.16723e+06 0 274867 4.16894e+06 0 274985 4.17073e+06 0 275109 4.17261e+06 0 275239 4.17458e+06 0 275375 4.17664e+06 0 275518 4.1788e+06 0 275666 4.18106e+06 0 275822 4.18341e+06 0 275984 4.18587e+06 0 276153 4.18844e+06 0 276329 4.19111e+06 0 276512 4.19389e+06 0 276703 4.19678e+06 0 276902 4.19979e+06 0 277108 4.20292e+06 0 277322 4.20617e+06 0 277545 4.20954e+06 0 277775 4.21305e+06 0 278015 4.21668e+06 0 278264 4.22045e+06 0 278522 4.22436e+06 0 278789 4.22842e+06 0 279066 4.23262e+06 0 279353 4.23697e+06 0 279650 4.24148e+06 0 279958 4.24615e+06 0 280277 4.25099e+06 0 280608 4.25601e+06 0 280950 4.2612e+06 0 281304 4.26657e+06 0 281671 4.27214e+06 0 282051 4.2779e+06 0 282444 4.28386e+06 0 282851 4.29003e+06 0 283273 4.29643e+06 0 283709 4.30305e+06 0 284161 4.3099e+06 0 284629 4.317e+06 0 285114 4.32435e+06 0 285616 4.33196e+06 0 286136 4.33985e+06 0 286675 4.34802e+06 0 287233 4.35649e+06 0 287812 4.36527e+06 0 288412 4.37437e+06 0 289034 4.38381e+06 0 289680 4.3936e+06 0 290350 4.40377e+06 0 291046 4.41432e+06 0 291768 4.42527e+06 0 292519 4.43666e+06 0 293299 4.44849e+06 0 294110 4.46079e+06 0 294954 4.47359e+06 0 295833 4.48692e+06 0 296748 4.50081e+06 0 297702 4.51528e+06 0 298698 4.53038e+06 0 299737 4.54615e+06 0 273759 4.20173e+06 0 273682 4.19941e+06 0 273608 4.19714e+06 0 273537 4.19493e+06 0 273468 4.19277e+06 0 273403 4.19066e+06 0 273341 4.18861e+06 0 273282 4.18661e+06 0 273226 4.18466e+06 0 273173 4.18277e+06 0 273123 4.18093e+06 0 273076 4.17913e+06 0 273033 4.17739e+06 0 272992 4.17571e+06 0 272955 4.17407e+06 0 272921 4.17248e+06 0 272890 4.17094e+06 0 272862 4.16946e+06 0 272837 4.16802e+06 0 272816 4.16664e+06 0 272798 4.1653e+06 0 272784 4.16402e+06 0 272773 4.16278e+06 0 272765 4.1616e+06 0 272761 4.16047e+06 0 272760 4.15939e+06 0 272763 4.15836e+06 0 272770 4.15737e+06 0 272780 4.15644e+06 0 272794 4.15557e+06 0 272811 4.15474e+06 0 272833 4.15396e+06 0 272858 4.15324e+06 0 272887 4.15257e+06 0 272920 4.15195e+06 0 272957 4.15138e+06 0 272998 4.15087e+06 0 273043 4.15041e+06 0 273093 4.15e+06 0 273147 4.14965e+06 0 273205 4.14936e+06 0 273267 4.14911e+06 0 273334 4.14893e+06 0 273406 4.1488e+06 0 273482 4.14873e+06 0 273563 4.14871e+06 0 273649 4.14876e+06 0 273740 4.14886e+06 0 273836 4.14902e+06 0 273936 4.14925e+06 0 274043 4.14953e+06 0 274154 4.14988e+06 0 274271 4.15029e+06 0 274393 4.15076e+06 0 274521 4.1513e+06 0 274655 4.1519e+06 0 274795 4.15257e+06 0 274941 4.15331e+06 0 275093 4.15412e+06 0 275251 4.155e+06 0 275416 4.15594e+06 0 275587 4.15696e+06 0 275766 4.15806e+06 0 275951 4.15923e+06 0 276143 4.16047e+06 0 276343 4.1618e+06 0 276550 4.1632e+06 0 276764 4.16468e+06 0 276987 4.16625e+06 0 277218 4.1679e+06 0 277457 4.16964e+06 0 277704 4.17146e+06 0 277960 4.17337e+06 0 278225 4.17538e+06 0 278500 4.17748e+06 0 278783 4.17967e+06 0 279077 4.18197e+06 0 279381 4.18436e+06 0 279694 4.18686e+06 0 280019 4.18946e+06 0 280355 4.19217e+06 0 280701 4.19499e+06 0 281060 4.19792e+06 0 281431 4.20097e+06 0 281813 4.20414e+06 0 282209 4.20743e+06 0 282618 4.21084e+06 0 283041 4.21439e+06 0 283478 4.21807e+06 0 283929 4.22188e+06 0 284396 4.22584e+06 0 284878 4.22994e+06 0 285376 4.23419e+06 0 285891 4.23859e+06 0 286424 4.24315e+06 0 286975 4.24787e+06 0 287545 4.25276e+06 0 288134 4.25782e+06 0 288743 4.26307e+06 0 289374 4.2685e+06 0 290027 4.27412e+06 0 290702 4.27993e+06 0 291402 4.28596e+06 0 292126 4.29219e+06 0 292876 4.29865e+06 0 293654 4.30533e+06 0 294460 4.31225e+06 0 295296 4.31941e+06 0 296163 4.32683e+06 0 297063 4.33452e+06 0 297997 4.34248e+06 0 298968 4.35073e+06 0 299976 4.35927e+06 0 301025 4.36813e+06 0 302115 4.37732e+06 0 303251 4.38684e+06 0 304433 4.39672e+06 0 305666 4.40698e+06 0 306951 4.41762e+06 0 308293 4.42868e+06 0 309695 4.44016e+06 0 311161 4.4521e+06 0 312694 4.46452e+06 0 314301 4.47743e+06 0 315986 4.49088e+06 0 317756 4.50489e+06 0 319616 4.5195e+06 0 321574 4.53474e+06 0 270493 4.20253e+06 0 270491 4.20019e+06 0 270492 4.1979e+06 0 270494 4.19567e+06 0 270499 4.1935e+06 0 270507 4.19138e+06 0 270517 4.18931e+06 0 270529 4.18729e+06 0 270544 4.18533e+06 0 270562 4.18341e+06 0 270582 4.18155e+06 0 270606 4.17974e+06 0 270632 4.17799e+06 0 270661 4.17628e+06 0 270692 4.17462e+06 0 270727 4.17302e+06 0 270765 4.17146e+06 0 270806 4.16996e+06 0 270850 4.1685e+06 0 270898 4.1671e+06 0 270948 4.16575e+06 0 271002 4.16444e+06 0 271060 4.16319e+06 0 271121 4.16198e+06 0 271185 4.16083e+06 0 271253 4.15973e+06 0 271325 4.15867e+06 0 271401 4.15767e+06 0 271480 4.15672e+06 0 271564 4.15582e+06 0 271651 4.15497e+06 0 271743 4.15417e+06 0 271839 4.15342e+06 0 271939 4.15273e+06 0 272044 4.15208e+06 0 272153 4.15149e+06 0 272266 4.15095e+06 0 272384 4.15047e+06 0 272508 4.15003e+06 0 272635 4.14965e+06 0 272768 4.14933e+06 0 272906 4.14906e+06 0 273050 4.14885e+06 0 273198 4.14869e+06 0 273352 4.14859e+06 0 273512 4.14854e+06 0 273678 4.14855e+06 0 273849 4.14862e+06 0 274026 4.14875e+06 0 274210 4.14894e+06 0 274399 4.14919e+06 0 274596 4.14951e+06 0 274798 4.14988e+06 0 275008 4.15032e+06 0 275224 4.15082e+06 0 275448 4.15138e+06 0 275679 4.15201e+06 0 275918 4.15271e+06 0 276164 4.15347e+06 0 276418 4.15431e+06 0 276680 4.15521e+06 0 276950 4.15619e+06 0 277229 4.15724e+06 0 277517 4.15836e+06 0 277814 4.15956e+06 0 278120 4.16083e+06 0 278435 4.16218e+06 0 278761 4.16361e+06 0 279096 4.16513e+06 0 279442 4.16672e+06 0 279799 4.1684e+06 0 280166 4.17017e+06 0 280545 4.17202e+06 0 280935 4.17396e+06 0 281338 4.176e+06 0 281752 4.17813e+06 0 282180 4.18035e+06 0 282621 4.18268e+06 0 283075 4.1851e+06 0 283543 4.18763e+06 0 284026 4.19026e+06 0 284524 4.19301e+06 0 285037 4.19586e+06 0 285566 4.19882e+06 0 286112 4.2019e+06 0 286675 4.20511e+06 0 287255 4.20843e+06 0 287854 4.21188e+06 0 288472 4.21546e+06 0 289110 4.21917e+06 0 289768 4.22302e+06 0 290448 4.22702e+06 0 291149 4.23115e+06 0 291873 4.23544e+06 0 292621 4.23988e+06 0 293394 4.24447e+06 0 294193 4.24924e+06 0 295018 4.25417e+06 0 295871 4.25927e+06 0 296754 4.26455e+06 0 297666 4.27002e+06 0 298611 4.27568e+06 0 299589 4.28154e+06 0 300601 4.28761e+06 0 301650 4.29389e+06 0 302737 4.30039e+06 0 303863 4.30711e+06 0 305032 4.31408e+06 0 306244 4.32129e+06 0 307503 4.32875e+06 0 308810 4.33649e+06 0 310168 4.3445e+06 0 311581 4.35279e+06 0 313050 4.36139e+06 0 314580 4.3703e+06 0 316174 4.37953e+06 0 317835 4.38911e+06 0 319569 4.39904e+06 0 321378 4.40935e+06 0 323270 4.42005e+06 0 325247 4.43115e+06 0 327318 4.44269e+06 0 329488 4.45468e+06 0 331765 4.46715e+06 0 334156 4.48012e+06 0 336671 4.49362e+06 0 339319 4.50768e+06 0 342112 4.52234e+06 0 267176 4.20322e+06 0 267249 4.20087e+06 0 267323 4.19857e+06 0 267400 4.19632e+06 0 267478 4.19413e+06 0 267558 4.19199e+06 0 267640 4.18991e+06 0 267724 4.18788e+06 0 267810 4.18589e+06 0 267898 4.18397e+06 0 267989 4.18209e+06 0 268082 4.18026e+06 0 268177 4.17849e+06 0 268275 4.17676e+06 0 268376 4.17509e+06 0 268480 4.17347e+06 0 268586 4.17189e+06 0 268696 4.17037e+06 0 268808 4.1689e+06 0 268923 4.16747e+06 0 269042 4.1661e+06 0 269164 4.16477e+06 0 269290 4.1635e+06 0 269419 4.16228e+06 0 269552 4.1611e+06 0 269688 4.15998e+06 0 269828 4.1589e+06 0 269973 4.15788e+06 0 270121 4.1569e+06 0 270273 4.15598e+06 0 270430 4.15511e+06 0 270591 4.15428e+06 0 270757 4.15351e+06 0 270927 4.15279e+06 0 271103 4.15212e+06 0 271283 4.15151e+06 0 271468 4.15094e+06 0 271658 4.15043e+06 0 271854 4.14997e+06 0 272055 4.14956e+06 0 272261 4.14921e+06 0 272474 4.14891e+06 0 272692 4.14867e+06 0 272917 4.14848e+06 0 273147 4.14835e+06 0 273385 4.14827e+06 0 273628 4.14825e+06 0 273879 4.14829e+06 0 274136 4.14838e+06 0 274400 4.14854e+06 0 274672 4.14875e+06 0 274952 4.14903e+06 0 275239 4.14936e+06 0 275534 4.14976e+06 0 275837 4.15022e+06 0 276148 4.15075e+06 0 276468 4.15134e+06 0 276797 4.15199e+06 0 277136 4.15272e+06 0 277483 4.15351e+06 0 277840 4.15436e+06 0 278207 4.15529e+06 0 278585 4.15629e+06 0 278972 4.15737e+06 0 279371 4.15851e+06 0 279781 4.15974e+06 0 280202 4.16103e+06 0 280635 4.16241e+06 0 281080 4.16387e+06 0 281538 4.1654e+06 0 282008 4.16702e+06 0 282492 4.16873e+06 0 282990 4.17052e+06 0 283502 4.1724e+06 0 284028 4.17437e+06 0 284570 4.17643e+06 0 285127 4.17858e+06 0 285700 4.18083e+06 0 286290 4.18318e+06 0 286898 4.18563e+06 0 287523 4.18819e+06 0 288166 4.19085e+06 0 288829 4.19361e+06 0 289511 4.19649e+06 0 290213 4.19948e+06 0 290937 4.20259e+06 0 291683 4.20582e+06 0 292451 4.20917e+06 0 293243 4.21265e+06 0 294059 4.21625e+06 0 294901 4.21999e+06 0 295769 4.22387e+06 0 296665 4.22789e+06 0 297589 4.23205e+06 0 298543 4.23636e+06 0 299528 4.24083e+06 0 300545 4.24545e+06 0 301595 4.25024e+06 0 302681 4.2552e+06 0 303803 4.26033e+06 0 304963 4.26564e+06 0 306163 4.27113e+06 0 307405 4.27682e+06 0 308690 4.28271e+06 0 310021 4.2888e+06 0 311400 4.2951e+06 0 312829 4.30163e+06 0 314311 4.30838e+06 0 315848 4.31537e+06 0 317444 4.3226e+06 0 319101 4.33009e+06 0 320823 4.33784e+06 0 322614 4.34587e+06 0 324476 4.35419e+06 0 326415 4.36281e+06 0 328436 4.37173e+06 0 330542 4.38099e+06 0 332739 4.39058e+06 0 335033 4.40052e+06 0 337431 4.41084e+06 0 339939 4.42155e+06 0 342564 4.43266e+06 0 345316 4.4442e+06 0 348204 4.45619e+06 0 351236 4.46865e+06 0 354426 4.4816e+06 0 357785 4.49508e+06 0 361327 4.50911e+06 0 263807 4.20381e+06 0 263955 4.20145e+06 0 264104 4.19913e+06 0 264254 4.19687e+06 0 264405 4.19467e+06 0 264557 4.19251e+06 0 264711 4.19041e+06 0 264866 4.18837e+06 0 265023 4.18637e+06 0 265182 4.18443e+06 0 265343 4.18253e+06 0 265505 4.18069e+06 0 265670 4.1789e+06 0 265837 4.17716e+06 0 266007 4.17547e+06 0 266179 4.17382e+06 0 266353 4.17223e+06 0 266531 4.17069e+06 0 266711 4.1692e+06 0 266894 4.16776e+06 0 267081 4.16636e+06 0 267270 4.16502e+06 0 267463 4.16373e+06 0 267660 4.16248e+06 0 267860 4.16129e+06 0 268064 4.16014e+06 0 268272 4.15904e+06 0 268485 4.158e+06 0 268701 4.157e+06 0 268922 4.15605e+06 0 269147 4.15516e+06 0 269377 4.15431e+06 0 269612 4.15352e+06 0 269851 4.15277e+06 0 270096 4.15208e+06 0 270347 4.15143e+06 0 270602 4.15084e+06 0 270864 4.1503e+06 0 271131 4.14981e+06 0 271404 4.14938e+06 0 271683 4.149e+06 0 271969 4.14867e+06 0 272261 4.1484e+06 0 272560 4.14818e+06 0 272866 4.14801e+06 0 273179 4.1479e+06 0 273500 4.14785e+06 0 273828 4.14785e+06 0 274164 4.14791e+06 0 274508 4.14803e+06 0 274860 4.14821e+06 0 275221 4.14845e+06 0 275590 4.14875e+06 0 275969 4.1491e+06 0 276357 4.14953e+06 0 276754 4.15001e+06 0 277161 4.15056e+06 0 277579 4.15117e+06 0 278007 4.15185e+06 0 278445 4.15259e+06 0 278895 4.1534e+06 0 279356 4.15428e+06 0 279829 4.15523e+06 0 280314 4.15625e+06 0 280812 4.15735e+06 0 281323 4.15852e+06 0 281846 4.15976e+06 0 282384 4.16108e+06 0 282936 4.16248e+06 0 283502 4.16395e+06 0 284083 4.16551e+06 0 284680 4.16715e+06 0 285293 4.16888e+06 0 285922 4.17069e+06 0 286569 4.17259e+06 0 287233 4.17458e+06 0 287916 4.17666e+06 0 288617 4.17884e+06 0 289338 4.18111e+06 0 290079 4.18348e+06 0 290841 4.18595e+06 0 291625 4.18852e+06 0 292431 4.1912e+06 0 293260 4.19398e+06 0 294113 4.19688e+06 0 294992 4.19989e+06 0 295896 4.20302e+06 0 296826 4.20626e+06 0 297785 4.20963e+06 0 298773 4.21313e+06 0 299790 4.21675e+06 0 300839 4.22051e+06 0 301920 4.2244e+06 0 303035 4.22844e+06 0 304185 4.23262e+06 0 305371 4.23695e+06 0 306596 4.24143e+06 0 307861 4.24607e+06 0 309166 4.25087e+06 0 310516 4.25584e+06 0 311910 4.26098e+06 0 313351 4.2663e+06 0 314842 4.27181e+06 0 316385 4.27751e+06 0 317982 4.2834e+06 0 319636 4.2895e+06 0 321349 4.29582e+06 0 323126 4.30234e+06 0 324968 4.3091e+06 0 326879 4.31609e+06 0 328863 4.32333e+06 0 330924 4.33082e+06 0 333066 4.33857e+06 0 335294 4.34659e+06 0 337612 4.3549e+06 0 340027 4.3635e+06 0 342543 4.37241e+06 0 345168 4.38165e+06 0 347907 4.39122e+06 0 350768 4.40113e+06 0 353760 4.41142e+06 0 356891 4.42208e+06 0 360170 4.43315e+06 0 363610 4.44463e+06 0 367220 4.45656e+06 0 371015 4.46895e+06 0 375008 4.48182e+06 0 379216 4.49521e+06 0 260389 4.20431e+06 0 260612 4.20193e+06 0 260835 4.1996e+06 0 261058 4.19733e+06 0 261282 4.19511e+06 0 261507 4.19294e+06 0 261732 4.19083e+06 0 261959 4.18876e+06 0 262186 4.18675e+06 0 262415 4.18479e+06 0 262645 4.18288e+06 0 262877 4.18102e+06 0 263111 4.17922e+06 0 263347 4.17746e+06 0 263584 4.17575e+06 0 263824 4.17409e+06 0 264067 4.17248e+06 0 264312 4.17092e+06 0 264559 4.16941e+06 0 264810 4.16795e+06 0 265063 4.16654e+06 0 265320 4.16518e+06 0 265580 4.16386e+06 0 265844 4.1626e+06 0 266111 4.16138e+06 0 266382 4.16022e+06 0 266657 4.1591e+06 0 266937 4.15803e+06 0 267221 4.15701e+06 0 267509 4.15604e+06 0 267802 4.15512e+06 0 268100 4.15425e+06 0 268403 4.15343e+06 0 268711 4.15266e+06 0 269025 4.15194e+06 0 269344 4.15127e+06 0 269670 4.15065e+06 0 270001 4.15008e+06 0 270338 4.14957e+06 0 270683 4.1491e+06 0 271033 4.14869e+06 0 271391 4.14834e+06 0 271756 4.14803e+06 0 272128 4.14778e+06 0 272508 4.14758e+06 0 272896 4.14744e+06 0 273292 4.14735e+06 0 273696 4.14732e+06 0 274109 4.14735e+06 0 274531 4.14743e+06 0 274962 4.14757e+06 0 275402 4.14777e+06 0 275852 4.14803e+06 0 276312 4.14834e+06 0 276783 4.14872e+06 0 277264 4.14916e+06 0 277757 4.14967e+06 0 278260 4.15023e+06 0 278776 4.15087e+06 0 279303 4.15156e+06 0 279843 4.15233e+06 0 280396 4.15316e+06 0 280962 4.15406e+06 0 281542 4.15503e+06 0 282136 4.15607e+06 0 282744 4.15718e+06 0 283368 4.15836e+06 0 284006 4.15963e+06 0 284661 4.16096e+06 0 285333 4.16238e+06 0 286021 4.16387e+06 0 286727 4.16545e+06 0 287452 4.1671e+06 0 288195 4.16885e+06 0 288957 4.17067e+06 0 289740 4.17259e+06 0 290543 4.17459e+06 0 291368 4.17669e+06 0 292215 4.17888e+06 0 293085 4.18117e+06 0 293979 4.18355e+06 0 294897 4.18603e+06 0 295841 4.18862e+06 0 296812 4.19131e+06 0 297809 4.19411e+06 0 298836 4.19702e+06 0 299891 4.20004e+06 0 300977 4.20318e+06 0 302095 4.20644e+06 0 303246 4.20981e+06 0 304431 4.21332e+06 0 305652 4.21695e+06 0 306910 4.22072e+06 0 308206 4.22462e+06 0 309543 4.22866e+06 0 310921 4.23284e+06 0 312342 4.23718e+06 0 313809 4.24166e+06 0 315324 4.2463e+06 0 316888 4.25111e+06 0 318503 4.25608e+06 0 320172 4.26122e+06 0 321898 4.26654e+06 0 323683 4.27204e+06 0 325530 4.27774e+06 0 327441 4.28362e+06 0 329421 4.28971e+06 0 331472 4.29601e+06 0 333598 4.30253e+06 0 335802 4.30927e+06 0 338090 4.31624e+06 0 340466 4.32345e+06 0 342934 4.33091e+06 0 345499 4.33863e+06 0 348167 4.34662e+06 0 350944 4.35489e+06 0 353837 4.36345e+06 0 356852 4.37231e+06 0 359997 4.38149e+06 0 363280 4.39099e+06 0 366710 4.40084e+06 0 370297 4.41105e+06 0 374052 4.42163e+06 0 377986 4.43259e+06 0 382112 4.44397e+06 0 386445 4.45577e+06 0 390999 4.46802e+06 0 395793 4.48074e+06 0 256923 4.2047e+06 0 257220 4.2023e+06 0 257517 4.19997e+06 0 257814 4.19768e+06 0 258111 4.19545e+06 0 258407 4.19327e+06 0 258704 4.19114e+06 0 259001 4.18906e+06 0 259299 4.18704e+06 0 259598 4.18506e+06 0 259898 4.18314e+06 0 260198 4.18127e+06 0 260501 4.17944e+06 0 260805 4.17767e+06 0 261110 4.17595e+06 0 261418 4.17427e+06 0 261727 4.17265e+06 0 262039 4.17107e+06 0 262354 4.16954e+06 0 262671 4.16806e+06 0 262991 4.16663e+06 0 263315 4.16525e+06 0 263641 4.16392e+06 0 263971 4.16263e+06 0 264305 4.16139e+06 0 264642 4.16021e+06 0 264984 4.15907e+06 0 265330 4.15798e+06 0 265680 4.15693e+06 0 266035 4.15594e+06 0 266395 4.155e+06 0 266760 4.1541e+06 0 267130 4.15326e+06 0 267506 4.15246e+06 0 267888 4.15172e+06 0 268275 4.15102e+06 0 268669 4.15037e+06 0 269069 4.14978e+06 0 269476 4.14923e+06 0 269890 4.14874e+06 0 270311 4.1483e+06 0 270740 4.14791e+06 0 271176 4.14757e+06 0 271620 4.14729e+06 0 272072 4.14706e+06 0 272533 4.14688e+06 0 273003 4.14676e+06 0 273482 4.1467e+06 0 273970 4.14668e+06 0 274468 4.14673e+06 0 274976 4.14683e+06 0 275494 4.14699e+06 0 276023 4.14721e+06 0 276563 4.14749e+06 0 277115 4.14782e+06 0 277678 4.14822e+06 0 278253 4.14868e+06 0 278841 4.1492e+06 0 279441 4.14978e+06 0 280055 4.15043e+06 0 280683 4.15114e+06 0 281325 4.15192e+06 0 281981 4.15277e+06 0 282653 4.15368e+06 0 283340 4.15467e+06 0 284044 4.15572e+06 0 284764 4.15685e+06 0 285501 4.15805e+06 0 286256 4.15933e+06 0 287029 4.16068e+06 0 287821 4.16211e+06 0 288633 4.16361e+06 0 289464 4.1652e+06 0 290317 4.16687e+06 0 291191 4.16862e+06 0 292088 4.17046e+06 0 293008 4.17239e+06 0 293951 4.1744e+06 0 294919 4.17651e+06 0 295913 4.17871e+06 0 296933 4.181e+06 0 297981 4.1834e+06 0 299057 4.18589e+06 0 300163 4.18848e+06 0 301299 4.19118e+06 0 302466 4.19398e+06 0 303667 4.1969e+06 0 304901 4.19992e+06 0 306171 4.20306e+06 0 307477 4.20632e+06 0 308822 4.2097e+06 0 310206 4.21321e+06 0 311632 4.21684e+06 0 313100 4.22061e+06 0 314613 4.2245e+06 0 316173 4.22854e+06 0 317781 4.23272e+06 0 319439 4.23705e+06 0 321150 4.24152e+06 0 322916 4.24615e+06 0 324739 4.25095e+06 0 326622 4.2559e+06 0 328568 4.26103e+06 0 330580 4.26633e+06 0 332660 4.27181e+06 0 334812 4.27748e+06 0 337040 4.28335e+06 0 339347 4.28941e+06 0 341736 4.29567e+06 0 344214 4.30215e+06 0 346783 4.30885e+06 0 349448 4.31578e+06 0 352216 4.32295e+06 0 355091 4.33036e+06 0 358080 4.33802e+06 0 361188 4.34594e+06 0 364424 4.35414e+06 0 367794 4.36263e+06 0 371307 4.3714e+06 0 374971 4.38049e+06 0 378796 4.38989e+06 0 382792 4.39963e+06 0 386971 4.40971e+06 0 391345 4.42015e+06 0 395928 4.43097e+06 0 400734 4.44218e+06 0 405780 4.4538e+06 0 411084 4.46585e+06 0 253410 4.20498e+06 0 253782 4.20258e+06 0 254153 4.20023e+06 0 254523 4.19793e+06 0 254892 4.19569e+06 0 255260 4.1935e+06 0 255628 4.19136e+06 0 255996 4.18927e+06 0 256363 4.18723e+06 0 256732 4.18524e+06 0 257100 4.18331e+06 0 257470 4.18142e+06 0 257840 4.17958e+06 0 258212 4.17779e+06 0 258585 4.17605e+06 0 258959 4.17436e+06 0 259336 4.17272e+06 0 259714 4.17112e+06 0 260095 4.16958e+06 0 260479 4.16808e+06 0 260865 4.16663e+06 0 261254 4.16523e+06 0 261646 4.16388e+06 0 262042 4.16257e+06 0 262441 4.16132e+06 0 262844 4.16011e+06 0 263251 4.15895e+06 0 263663 4.15784e+06 0 264079 4.15677e+06 0 264500 4.15576e+06 0 264926 4.15479e+06 0 265357 4.15387e+06 0 265794 4.153e+06 0 266236 4.15218e+06 0 266685 4.1514e+06 0 267139 4.15068e+06 0 267601 4.15001e+06 0 268069 4.14939e+06 0 268544 4.14881e+06 0 269026 4.14829e+06 0 269516 4.14782e+06 0 270014 4.1474e+06 0 270521 4.14703e+06 0 271035 4.14671e+06 0 271559 4.14645e+06 0 272091 4.14624e+06 0 272633 4.14608e+06 0 273185 4.14598e+06 0 273747 4.14593e+06 0 274319 4.14594e+06 0 274903 4.146e+06 0 275497 4.14612e+06 0 276103 4.14629e+06 0 276721 4.14653e+06 0 277351 4.14682e+06 0 277993 4.14717e+06 0 278649 4.14759e+06 0 279319 4.14806e+06 0 280002 4.1486e+06 0 280700 4.14919e+06 0 281413 4.14986e+06 0 282142 4.15058e+06 0 282886 4.15138e+06 0 283647 4.15224e+06 0 284424 4.15316e+06 0 285220 4.15416e+06 0 286033 4.15523e+06 0 286865 4.15637e+06 0 287717 4.15758e+06 0 288588 4.15886e+06 0 289480 4.16022e+06 0 290394 4.16166e+06 0 291329 4.16317e+06 0 292287 4.16477e+06 0 293269 4.16645e+06 0 294276 4.16821e+06 0 295307 4.17005e+06 0 296365 4.17199e+06 0 297449 4.17401e+06 0 298562 4.17612e+06 0 299703 4.17832e+06 0 300874 4.18062e+06 0 302077 4.18301e+06 0 303311 4.1855e+06 0 304579 4.1881e+06 0 305882 4.19079e+06 0 307220 4.1936e+06 0 308596 4.19651e+06 0 310010 4.19953e+06 0 311464 4.20267e+06 0 312960 4.20592e+06 0 314500 4.20929e+06 0 316084 4.21279e+06 0 317715 4.21641e+06 0 319395 4.22017e+06 0 321126 4.22405e+06 0 322909 4.22807e+06 0 324747 4.23224e+06 0 326643 4.23654e+06 0 328599 4.241e+06 0 330617 4.24561e+06 0 332701 4.25038e+06 0 334853 4.25531e+06 0 337076 4.2604e+06 0 339373 4.26567e+06 0 341749 4.27112e+06 0 344207 4.27675e+06 0 346751 4.28256e+06 0 349384 4.28858e+06 0 352113 4.29479e+06 0 354940 4.30122e+06 0 357873 4.30786e+06 0 360915 4.31472e+06 0 364074 4.32181e+06 0 367354 4.32914e+06 0 370764 4.33672e+06 0 374311 4.34455e+06 0 378002 4.35265e+06 0 381845 4.36102e+06 0 385851 4.36968e+06 0 390029 4.37863e+06 0 394389 4.3879e+06 0 398944 4.39748e+06 0 403706 4.40739e+06 0 408690 4.41765e+06 0 413909 4.42827e+06 0 419381 4.43926e+06 0 425125 4.45063e+06 0 249853 4.20517e+06 0 250299 4.20276e+06 0 250744 4.2004e+06 0 251186 4.19809e+06 0 251627 4.19584e+06 0 252066 4.19363e+06 0 252505 4.19148e+06 0 252943 4.18938e+06 0 253380 4.18733e+06 0 253817 4.18533e+06 0 254254 4.18338e+06 0 254692 4.18148e+06 0 255130 4.17962e+06 0 255569 4.17782e+06 0 256009 4.17607e+06 0 256450 4.17436e+06 0 256893 4.1727e+06 0 257337 4.17109e+06 0 257784 4.16953e+06 0 258233 4.16801e+06 0 258684 4.16655e+06 0 259138 4.16513e+06 0 259596 4.16376e+06 0 260056 4.16243e+06 0 260521 4.16116e+06 0 260989 4.15993e+06 0 261461 4.15874e+06 0 261937 4.15761e+06 0 262418 4.15652e+06 0 262904 4.15548e+06 0 263395 4.15449e+06 0 263891 4.15355e+06 0 264394 4.15265e+06 0 264902 4.15181e+06 0 265416 4.15101e+06 0 265937 4.15026e+06 0 266464 4.14956e+06 0 266999 4.14891e+06 0 267541 4.1483e+06 0 268091 4.14775e+06 0 268649 4.14725e+06 0 269215 4.1468e+06 0 269790 4.1464e+06 0 270373 4.14605e+06 0 270966 4.14575e+06 0 271569 4.1455e+06 0 272182 4.14531e+06 0 272805 4.14517e+06 0 273439 4.14508e+06 0 274084 4.14505e+06 0 274741 4.14508e+06 0 275409 4.14515e+06 0 276090 4.14529e+06 0 276784 4.14548e+06 0 277491 4.14573e+06 0 278211 4.14603e+06 0 278945 4.1464e+06 0 279694 4.14683e+06 0 280458 4.14731e+06 0 281238 4.14786e+06 0 282034 4.14847e+06 0 282846 4.14914e+06 0 283675 4.14988e+06 0 284522 4.15068e+06 0 285387 4.15155e+06 0 286272 4.15249e+06 0 287175 4.15349e+06 0 288099 4.15457e+06 0 289044 4.15571e+06 0 290010 4.15693e+06 0 290998 4.15822e+06 0 292010 4.15959e+06 0 293045 4.16103e+06 0 294105 4.16255e+06 0 295190 4.16415e+06 0 296301 4.16583e+06 0 297440 4.16759e+06 0 298607 4.16944e+06 0 299803 4.17137e+06 0 301029 4.17339e+06 0 302286 4.1755e+06 0 303576 4.1777e+06 0 304899 4.18e+06 0 306256 4.18239e+06 0 307650 4.18487e+06 0 309081 4.18746e+06 0 310551 4.19015e+06 0 312060 4.19295e+06 0 313611 4.19585e+06 0 315206 4.19886e+06 0 316845 4.20198e+06 0 318531 4.20522e+06 0 320265 4.20858e+06 0 322050 4.21206e+06 0 323887 4.21566e+06 0 325779 4.21939e+06 0 327727 4.22325e+06 0 329734 4.22725e+06 0 331804 4.23139e+06 0 333937 4.23566e+06 0 336137 4.24009e+06 0 338408 4.24466e+06 0 340751 4.24939e+06 0 343171 4.25427e+06 0 345670 4.25932e+06 0 348253 4.26454e+06 0 350924 4.26994e+06 0 353686 4.27551e+06 0 356544 4.28127e+06 0 359503 4.28721e+06 0 362568 4.29336e+06 0 365744 4.2997e+06 0 369037 4.30626e+06 0 372453 4.31303e+06 0 375998 4.32003e+06 0 379681 4.32725e+06 0 383507 4.33472e+06 0 387486 4.34243e+06 0 391625 4.35039e+06 0 395935 4.35862e+06 0 400426 4.36713e+06 0 405108 4.37592e+06 0 409994 4.385e+06 0 415095 4.39438e+06 0 420427 4.40408e+06 0 426004 4.41411e+06 0 431842 4.42448e+06 0 437960 4.43519e+06 0 246253 4.20525e+06 0 246773 4.20283e+06 0 247290 4.20046e+06 0 247805 4.19815e+06 0 248317 4.19588e+06 0 248828 4.19367e+06 0 249337 4.19151e+06 0 249844 4.18939e+06 0 250350 4.18733e+06 0 250856 4.18532e+06 0 251361 4.18336e+06 0 251866 4.18144e+06 0 252372 4.17958e+06 0 252877 4.17776e+06 0 253383 4.17599e+06 0 253890 4.17427e+06 0 254399 4.1726e+06 0 254909 4.17097e+06 0 255420 4.16939e+06 0 255934 4.16786e+06 0 256450 4.16638e+06 0 256969 4.16494e+06 0 257491 4.16355e+06 0 258016 4.1622e+06 0 258544 4.16091e+06 0 259076 4.15966e+06 0 259612 4.15846e+06 0 260153 4.1573e+06 0 260698 4.15619e+06 0 261248 4.15513e+06 0 261803 4.15411e+06 0 262363 4.15315e+06 0 262930 4.15223e+06 0 263502 4.15135e+06 0 264081 4.15053e+06 0 264667 4.14975e+06 0 265260 4.14902e+06 0 265860 4.14834e+06 0 266468 4.14771e+06 0 267084 4.14713e+06 0 267708 4.1466e+06 0 268341 4.14611e+06 0 268983 4.14568e+06 0 269634 4.1453e+06 0 270295 4.14496e+06 0 270967 4.14468e+06 0 271649 4.14445e+06 0 272342 4.14428e+06 0 273046 4.14415e+06 0 273762 4.14408e+06 0 274490 4.14406e+06 0 275231 4.1441e+06 0 275985 4.14419e+06 0 276752 4.14434e+06 0 277534 4.14454e+06 0 278329 4.1448e+06 0 279140 4.14512e+06 0 279966 4.1455e+06 0 280808 4.14593e+06 0 281667 4.14643e+06 0 282543 4.14699e+06 0 283436 4.14761e+06 0 284348 4.14829e+06 0 285278 4.14903e+06 0 286228 4.14984e+06 0 287198 4.15072e+06 0 288189 4.15166e+06 0 289201 4.15267e+06 0 290236 4.15375e+06 0 291293 4.1549e+06 0 292374 4.15612e+06 0 293480 4.15741e+06 0 294611 4.15878e+06 0 295768 4.16022e+06 0 296953 4.16174e+06 0 298165 4.16334e+06 0 299406 4.16502e+06 0 300678 4.16678e+06 0 301980 4.16862e+06 0 303314 4.17055e+06 0 304682 4.17256e+06 0 306084 4.17467e+06 0 307522 4.17686e+06 0 308997 4.17914e+06 0 310510 4.18152e+06 0 312063 4.184e+06 0 313657 4.18657e+06 0 315294 4.18925e+06 0 316975 4.19203e+06 0 318701 4.19491e+06 0 320476 4.1979e+06 0 322300 4.201e+06 0 324176 4.20422e+06 0 326105 4.20755e+06 0 328090 4.211e+06 0 330132 4.21458e+06 0 332235 4.21828e+06 0 334401 4.22211e+06 0 336631 4.22606e+06 0 338930 4.23016e+06 0 341300 4.23439e+06 0 343744 4.23877e+06 0 346265 4.2433e+06 0 348867 4.24797e+06 0 351553 4.2528e+06 0 354327 4.25779e+06 0 357194 4.26295e+06 0 360157 4.26827e+06 0 363221 4.27377e+06 0 366390 4.27945e+06 0 369671 4.28531e+06 0 373069 4.29136e+06 0 376589 4.29761e+06 0 380238 4.30406e+06 0 384022 4.31072e+06 0 387949 4.31759e+06 0 392025 4.32469e+06 0 396261 4.33201e+06 0 400663 4.33957e+06 0 405243 4.34738e+06 0 410009 4.35543e+06 0 414973 4.36375e+06 0 420146 4.37233e+06 0 425542 4.3812e+06 0 431173 4.39035e+06 0 437056 4.39979e+06 0 443205 4.40954e+06 0 449639 4.41961e+06 0 242612 4.20523e+06 0 243206 4.2028e+06 0 243795 4.20042e+06 0 244382 4.1981e+06 0 244965 4.19583e+06 0 245546 4.19361e+06 0 246124 4.19144e+06 0 246701 4.18931e+06 0 247276 4.18724e+06 0 247850 4.18522e+06 0 248422 4.18324e+06 0 248994 4.18132e+06 0 249566 4.17944e+06 0 250137 4.17761e+06 0 250709 4.17583e+06 0 251282 4.17409e+06 0 251855 4.1724e+06 0 252430 4.17076e+06 0 253006 4.16917e+06 0 253584 4.16762e+06 0 254164 4.16612e+06 0 254746 4.16466e+06 0 255332 4.16325e+06 0 255920 4.16189e+06 0 256512 4.16058e+06 0 257107 4.15931e+06 0 257706 4.15808e+06 0 258310 4.1569e+06 0 258918 4.15577e+06 0 259531 4.15469e+06 0 260149 4.15365e+06 0 260773 4.15266e+06 0 261403 4.15171e+06 0 262039 4.15082e+06 0 262681 4.14997e+06 0 263331 4.14916e+06 0 263988 4.14841e+06 0 264652 4.1477e+06 0 265324 4.14704e+06 0 266005 4.14642e+06 0 266694 4.14586e+06 0 267392 4.14534e+06 0 268100 4.14488e+06 0 268818 4.14446e+06 0 269546 4.14409e+06 0 270284 4.14378e+06 0 271034 4.14351e+06 0 271795 4.1433e+06 0 272567 4.14313e+06 0 273353 4.14302e+06 0 274150 4.14296e+06 0 274962 4.14296e+06 0 275787 4.14301e+06 0 276626 4.14311e+06 0 277479 4.14327e+06 0 278348 4.14348e+06 0 279233 4.14375e+06 0 280134 4.14408e+06 0 281052 4.14446e+06 0 281987 4.14491e+06 0 282941 4.14541e+06 0 283913 4.14597e+06 0 284904 4.1466e+06 0 285915 4.14728e+06 0 286946 4.14803e+06 0 287999 4.14885e+06 0 289074 4.14972e+06 0 290171 4.15067e+06 0 291292 4.15168e+06 0 292437 4.15276e+06 0 293608 4.15391e+06 0 294804 4.15513e+06 0 296027 4.15642e+06 0 297277 4.15779e+06 0 298556 4.15923e+06 0 299865 4.16074e+06 0 301205 4.16233e+06 0 302576 4.164e+06 0 303980 4.16576e+06 0 305418 4.16759e+06 0 306891 4.16951e+06 0 308400 4.17151e+06 0 309947 4.1736e+06 0 311533 4.17578e+06 0 313160 4.17805e+06 0 314828 4.18041e+06 0 316539 4.18287e+06 0 318296 4.18542e+06 0 320099 4.18808e+06 0 321951 4.19083e+06 0 323853 4.19369e+06 0 325807 4.19665e+06 0 327816 4.19973e+06 0 329880 4.20291e+06 0 332003 4.20621e+06 0 334187 4.20962e+06 0 336434 4.21316e+06 0 338747 4.21682e+06 0 341129 4.2206e+06 0 343581 4.22451e+06 0 346109 4.22856e+06 0 348713 4.23274e+06 0 351399 4.23705e+06 0 354168 4.24152e+06 0 357026 4.24613e+06 0 359976 4.25089e+06 0 363022 4.2558e+06 0 366168 4.26087e+06 0 369420 4.26611e+06 0 372781 4.27152e+06 0 376258 4.2771e+06 0 379856 4.28286e+06 0 383581 4.2888e+06 0 387439 4.29493e+06 0 391437 4.30125e+06 0 395582 4.30777e+06 0 399881 4.3145e+06 0 404344 4.32144e+06 0 408979 4.3286e+06 0 413794 4.33598e+06 0 418801 4.34359e+06 0 424009 4.35145e+06 0 429431 4.35954e+06 0 435079 4.36789e+06 0 440966 4.3765e+06 0 447107 4.38538e+06 0 453517 4.39453e+06 0 460214 4.40396e+06 0 238932 4.2051e+06 0 239598 4.20267e+06 0 240260 4.20029e+06 0 240918 4.19796e+06 0 241571 4.19568e+06 0 242222 4.19345e+06 0 242870 4.19127e+06 0 243515 4.18914e+06 0 244158 4.18706e+06 0 244799 4.18502e+06 0 245438 4.18304e+06 0 246077 4.1811e+06 0 246714 4.17921e+06 0 247351 4.17737e+06 0 247988 4.17557e+06 0 248625 4.17382e+06 0 249263 4.17212e+06 0 