<?xml version="1.0"?> 
<VTKFile type="StructuredGrid" version="0.1"> 
<StructuredGrid WholeExtent="0 127 0 127 0 0"> 
<Piece Extent="0 127 0 127 0 0"> 
<PointData>
<DataArray type="Float32" Name="|E|" format="ascii" NumberOfComponents="3"> 
869084 -361401 0 1.131e+06 -295287 0 1.19741e+06 -313579 0 1.26244e+06 -312497 0 1.30653e+06 -310453 0 1.34691e+06 -305494 0 1.3814e+06 -299447 0 1.41294e+06 -292423 0 1.44164e+06 -284759 0 1.46823e+06 -276589 0 1.49296e+06 -268028 0 1.51609e+06 -259154 0 1.53779e+06 -250028 0 1.55819e+06 -240699 0 1.57741e+06 -231208 0 1.5955e+06 -221589 0 1.61255e+06 -211873 0 1.62859e+06 -202086 0 1.64368e+06 -192254 0 1.65784e+06 -182396 0 1.6711e+06 -172535 0 1.68349e+06 -162689 0 1.69503e+06 -152875 0 1.70573e+06 -143109 0 1.71563e+06 -133409 0 1.72472e+06 -123788 0 1.73303e+06 -114261 0 1.74058e+06 -104840 0 1.74738e+06 -95539.2 0 1.75344e+06 -86369.1 0 1.75878e+06 -77341.1 0 1.76342e+06 -68465.5 0 1.76738e+06 -59751.6 0 1.77066e+06 -51208.3 0 1.77329e+06 -42843.3 0 1.77529e+06 -34664 0 1.77667e+06 -26676.5 0 1.77746e+06 -18886.5 0 1.77766e+06 -11298.8 0 1.7773e+06 -3917.47 0 1.77639e+06 3254.11 0 1.77496e+06 10213.3 0 1.77302e+06 16958.2 0 1.77059e+06 23487.3 0 1.7677e+06 29800.1 0 1.76435e+06 35896.3 0 1.76057e+06 41776.5 0 1.75637e+06 47441.4 0 1.75178e+06 52892.5 0 1.7468e+06 58131.7 0 1.74146e+06 63161.2 0 1.73578e+06 67983.5 0 1.72976e+06 72601.6 0 1.72343e+06 77018.8 0 1.7168e+06 81238.4 0 1.70989e+06 85264.3 0 1.70271e+06 89100.3 0 1.69528e+06 92750.6 0 1.68761e+06 96219.3 0 1.67971e+06 99510.9 0 1.67159e+06 102630 0 1.66328e+06 105580 0 1.65478e+06 108367 0 1.6461e+06 110995 0 1.63725e+06 113469 0 1.62826e+06 115793 0 1.61912e+06 117972 0 1.60985e+06 120010 0 1.60045e+06 121912 0 1.59094e+06 123683 0 1.58133e+06 125327 0 1.57162e+06 126849 0 1.56183e+06 128252 0 1.55196e+06 129541 0 1.54201e+06 130721 0 1.532e+06 131794 0 1.52194e+06 132766 0 1.51183e+06 133640 0 1.50167e+06 134421 0 1.49148e+06 135110 0 1.48125e+06 135713 0 1.47101e+06 136233 0 1.46074e+06 136673 0 1.45046e+06 137037 0 1.44017e+06 137327 0 1.42987e+06 137547 0 1.41957e+06 137700 0 1.40928e+06 137788 0 1.399e+06 137815 0 1.38873e+06 137784 0 1.37848e+06 137696 0 1.36824e+06 137555 0 1.35803e+06 137362 0 1.34785e+06 137121 0 1.33769e+06 136833 0 1.32757e+06 136502 0 1.31748e+06 136127 0 1.30743e+06 135713 0 1.29743e+06 135261 0 1.28746e+06 134772 0 1.27754e+06 134249 0 1.26766e+06 133693 0 1.25784e+06 133106 0 1.24807e+06 132489 0 1.23835e+06 131845 0 1.22868e+06 131174 0 1.21907e+06 130478 0 1.20952e+06 129759 0 1.20002e+06 129017 0 1.19059e+06 128254 0 1.18122e+06 127471 0 1.17191e+06 126669 0 1.16266e+06 125850 0 1.15348e+06 125014 0 1.14437e+06 124162 0 1.13532e+06 123296 0 1.12634e+06 122416 0 1.11743e+06 121523 0 1.10859e+06 120619 0 1.09982e+06 119703 0 1.09111e+06 118777 0 1.08248e+06 117841 0 1.07392e+06 116897 0 1.06544e+06 115944 0 1.05702e+06 114983 0 1.04868e+06 114016 0 1.04041e+06 113042 0 1.03221e+06 112062 0 907391 -377331 0 1.12989e+06 -311635 0 1.20169e+06 -320838 0 1.26446e+06 -318287 0 1.30911e+06 -314940 0 1.34915e+06 -309337 0 1.38366e+06 -302791 0 1.4151e+06 -295408 0 1.44376e+06 -287455 0 1.4703e+06 -279047 0 1.49499e+06 -270283 0 1.51808e+06 -261232 0 1.53974e+06 -251947 0 1.56011e+06 -242475 0 1.57928e+06 -232852 0 1.59734e+06 -223110 0 1.61435e+06 -213279 0 1.63035e+06 -203383 0 1.6454e+06 -193446 0 1.65952e+06 -183490 0 1.67274e+06 -173533 0 1.68509e+06 -163593 0 1.69658e+06 -153690 0 1.70725e+06 -143838 0 1.7171e+06 -134053 0 1.72615e+06 -124350 0 1.73441e+06 -114743 0 1.74191e+06 -105245 0 1.74867e+06 -95868.3 0 1.75468e+06 -86625.1 0 1.75998e+06 -77526.1 0 1.76457e+06 -68581.5 0 1.76848e+06 -59801 0 1.77172e+06 -51193.1 0 1.77431e+06 -42765.8 0 1.77626e+06 -34526.1 0 1.77759e+06 -26480.5 0 1.77833e+06 -18634.6 0 1.77848e+06 -10993.1 0 1.77808e+06 -3560.05 0 1.77713e+06 3661.14 0 1.77565e+06 10667.9 0 1.77367e+06 17458.2 0 1.77121e+06 24030.9 0 1.76827e+06 30385.2 0 1.76488e+06 36521 0 1.76106e+06 42438.8 0 1.75682e+06 48139.6 0 1.75219e+06 53624.8 0 1.74718e+06 58896.2 0 1.74181e+06 63956.2 0 1.73609e+06 68807.5 0 1.73004e+06 73452.9 0 1.72368e+06 77895.8 0 1.71702e+06 82139.7 0 1.71007e+06 86188.3 0 1.70287e+06 90045.7 0 1.6954e+06 93716 0 1.6877e+06 97203.4 0 1.67978e+06 100512 0 1.67164e+06 103648 0 1.6633e+06 106613 0 1.65478e+06 109414 0 1.64608e+06 112055 0 1.63721e+06 114541 0 1.6282e+06 116875 0 1.61904e+06 119064 0 1.60975e+06 121111 0 1.60034e+06 123022 0 1.59081e+06 124800 0 1.58118e+06 126451 0 1.57146e+06 127978 0 1.56165e+06 129386 0 1.55177e+06 130680 0 1.54181e+06 131863 0 1.53179e+06 132939 0 1.52172e+06 133914 0 1.51159e+06 134790 0 1.50143e+06 135571 0 1.49123e+06 136261 0 1.48099e+06 136865 0 1.47074e+06 137384 0 1.46046e+06 137823 0 1.45017e+06 138186 0 1.43988e+06 138474 0 1.42957e+06 138693 0 1.41927e+06 138843 0 1.40898e+06 138929 0 1.39869e+06 138953 0 1.38842e+06 138918 0 1.37816e+06 138827 0 1.36792e+06 138681 0 1.35771e+06 138485 0 1.34752e+06 138239 0 1.33736e+06 137947 0 1.32724e+06 137610 0 1.31715e+06 137231 0 1.3071e+06 136811 0 1.29709e+06 136353 0 1.28712e+06 135859 0 1.2772e+06 135329 0 1.26733e+06 134767 0 1.2575e+06 134174 0 1.24773e+06 133551 0 1.23801e+06 132900 0 1.22834e+06 132223 0 1.21873e+06 131520 0 1.20918e+06 130793 0 1.19969e+06 130044 0 1.19026e+06 129274 0 1.18089e+06 128484 0 1.17158e+06 127675 0 1.16233e+06 126848 0 1.15316e+06 126005 0 1.14404e+06 125145 0 1.135e+06 124272 0 1.12602e+06 123384 0 1.11711e+06 122484 0 1.10827e+06 121571 0 1.0995e+06 120648 0 1.0908e+06 119713 0 1.08217e+06 118770 0 1.07361e+06 117817 0 1.06513e+06 116856 0 1.05672e+06 115888 0 1.04838e+06 114912 0 1.04011e+06 113930 0 1.03192e+06 112942 0 939828 -390819 0 1.13117e+06 -326119 0 1.20581e+06 -328060 0 1.26677e+06 -323941 0 1.31173e+06 -319387 0 1.35146e+06 -313142 0 1.38595e+06 -306110 0 1.4173e+06 -298372 0 1.44592e+06 -290134 0 1.4724e+06 -281491 0 1.49704e+06 -272525 0 1.52009e+06 -263297 0 1.54171e+06 -253856 0 1.56204e+06 -244240 0 1.58117e+06 -234486 0 1.59919e+06 -224622 0 1.61616e+06 -214676 0 1.63212e+06 -204671 0 1.64713e+06 -194631 0 1.66121e+06 -184574 0 1.67439e+06 -174522 0 1.68669e+06 -164490 0 1.69815e+06 -154497 0 1.70877e+06 -144558 0 1.71857e+06 -134688 0 1.72758e+06 -124904 0 1.7358e+06 -115217 0 1.74326e+06 -105641 0 1.74996e+06 -96189.4 0 1.75593e+06 -86873 0 1.76118e+06 -77703.1 0 1.76573e+06 -68689.8 0 1.76959e+06 -59842.6 0 1.77278e+06 -51170.2 0 1.77532e+06 -42680.6 0 1.77723e+06 -34380.8 0 1.77851e+06 -26277.2 0 1.77921e+06 -18375.5 0 1.77932e+06 -10680.3 0 1.77886e+06 -3195.67 0 1.77787e+06 4074.99 0 1.77635e+06 11129.1 0 1.77433e+06 17964.8 0 1.77182e+06 24580.8 0 1.76884e+06 30976.4 0 1.76541e+06 37151.7 0 1.76155e+06 43107 0 1.75728e+06 48843.4 0 1.75261e+06 54362.5 0 1.74756e+06 59666 0 1.74215e+06 64756.4 0 1.7364e+06 69636.4 0 1.73031e+06 74308.9 0 1.72392e+06 78777.4 0 1.71723e+06 83045.3 0 1.71026e+06 87116.6 0 1.70302e+06 90995.2 0 1.69553e+06 94685.3 0 1.6878e+06 98191.3 0 1.67985e+06 101518 0 1.67169e+06 104669 0 1.66333e+06 107649 0 1.65478e+06 110464 0 1.64606e+06 113118 0 1.63717e+06 115615 0 1.62814e+06 117960 0 1.61896e+06 120159 0 1.60965e+06 122215 0 1.60022e+06 124134 0 1.59068e+06 125919 0 1.58104e+06 127576 0 1.5713e+06 129109 0 1.56148e+06 130522 0 1.55158e+06 131820 0 1.54161e+06 133006 0 1.53158e+06 134086 0 1.52149e+06 135062 0 1.51136e+06 135940 0 1.50118e+06 136723 0 1.49097e+06 137414 0 1.48073e+06 138017 0 1.47047e+06 138536 0 1.46019e+06 138975 0 1.44989e+06 139336 0 1.43959e+06 139623 0 1.42928e+06 139839 0 1.41897e+06 139987 0 1.40867e+06 140070 0 1.39838e+06 140091 0 1.3881e+06 140053 0 1.37784e+06 139958 0 1.3676e+06 139809 0 1.35738e+06 139608 0 1.34719e+06 139358 0 1.33703e+06 139060 0 1.32691e+06 138719 0 1.31682e+06 138334 0 1.30677e+06 137909 0 1.29676e+06 137445 0 1.28679e+06 136945 0 1.27687e+06 136410 0 1.26699e+06 135842 0 1.25717e+06 135242 0 1.24739e+06 134613 0 1.23767e+06 133955 0 1.22801e+06 133271 0 1.2184e+06 132561 0 1.20885e+06 131828 0 1.19935e+06 131072 0 1.18992e+06 130294 0 1.18055e+06 129497 0 1.17125e+06 128680 0 1.162e+06 127846 0 1.15283e+06 126995 0 1.14372e+06 126128 0 1.13467e+06 125247 0 1.1257e+06 124352 0 1.11679e+06 123443 0 1.10795e+06 122523 0 1.09918e+06 121592 0 1.09048e+06 120650 0 1.08186e+06 119698 0 1.0733e+06 118737 0 1.06482e+06 117768 0 1.05641e+06 116792 0 1.04807e+06 115808 0 1.03981e+06 114818 0 1.03162e+06 113822 0 967652 -402390 0 1.13416e+06 -339071 0 1.20988e+06 -335166 0 1.26932e+06 -329466 0 1.31439e+06 -323785 0 1.35385e+06 -316908 0 1.38828e+06 -309403 0 1.41954e+06 -301315 0 1.44809e+06 -292795 0 1.47452e+06 -283919 0 1.49911e+06 -274754 0 1.52211e+06 -265351 0 1.54369e+06 -255753 0 1.56398e+06 -245996 0 1.58307e+06 -236110 0 1.60105e+06 -226125 0 1.61798e+06 -216064 0 1.6339e+06 -205951 0 1.64887e+06 -195806 0 1.66291e+06 -185651 0 1.67604e+06 -175502 0 1.68831e+06 -165378 0 1.69972e+06 -155295 0 1.7103e+06 -145269 0 1.72006e+06 -135316 0 1.72902e+06 -125449 0 1.73719e+06 -115682 0 1.7446e+06 -106029 0 1.75126e+06 -96502.4 0 1.75719e+06 -87112.9 0 1.76239e+06 -77872.1 0 1.76689e+06 -68790.1 0 1.7707e+06 -59876.3 0 1.77385e+06 -51139.6 0 1.77634e+06 -42587.7 0 1.7782e+06 -34228 0 1.77944e+06 -26066.5 0 1.78009e+06 -18109.1 0 1.78015e+06 -10360.3 0 1.77966e+06 -2824.3 0 1.77862e+06 4495.67 0 1.77705e+06 11597 0 1.77499e+06 18477.9 0 1.77244e+06 25137 0 1.76942e+06 31573.9 0 1.76595e+06 37788.3 0 1.76205e+06 43781 0 1.75773e+06 49552.9 0 1.75303e+06 55105.6 0 1.74794e+06 60441.1 0 1.7425e+06 65561.7 0 1.73671e+06 70470.2 0 1.73059e+06 75169.7 0 1.72417e+06 79663.6 0 1.71744e+06 83955.4 0 1.71044e+06 88049.1 0 1.70318e+06 91948.7 0 1.69566e+06 95658.5 0 1.6879e+06 99182.9 0 1.67992e+06 102526 0 1.67174e+06 105693 0 1.66335e+06 108689 0 1.65478e+06 111517 0 1.64604e+06 114183 0 1.63713e+06 116692 0 1.62808e+06 119048 0 1.61888e+06 121256 0 1.60955e+06 123321 0 1.60011e+06 125248 0 1.59055e+06 127040 0 1.58089e+06 128703 0 1.57114e+06 130242 0 1.5613e+06 131659 0 1.55139e+06 132961 0 1.54141e+06 134151 0 1.53137e+06 135234 0 1.52127e+06 136213 0 1.51113e+06 137092 0 1.50094e+06 137875 0 1.49072e+06 138567 0 1.48047e+06 139171 0 1.4702e+06 139689 0 1.45991e+06 140127 0 1.44961e+06 140487 0 1.4393e+06 140772 0 1.42898e+06 140986 0 1.41867e+06 141132 0 1.40837e+06 141212 0 1.39807e+06 141230 0 1.38779e+06 141188 0 1.37752e+06 141090 0 1.36728e+06 140936 0 1.35706e+06 140731 0 1.34687e+06 140476 0 1.3367e+06 140174 0 1.32658e+06 139828 0 1.31648e+06 139438 0 1.30643e+06 139007 0 1.29642e+06 138538 0 1.28645e+06 138032 0 1.27653e+06 137491 0 1.26665e+06 136916 0 1.25683e+06 136310 0 1.24705e+06 135674 0 1.23733e+06 135010 0 1.22767e+06 134319 0 1.21806e+06 133603 0 1.20851e+06 132862 0 1.19902e+06 132099 0 1.18959e+06 131314 0 1.18022e+06 130510 0 1.17091e+06 129686 0 1.16167e+06 128844 0 1.1525e+06 127986 0 1.14339e+06 127111 0 1.13435e+06 126222 0 1.12537e+06 125319 0 1.11647e+06 124403 0 1.10763e+06 123475 0 1.09886e+06 122536 0 1.09017e+06 121586 0 1.08154e+06 120626 0 1.07299e+06 119657 0 1.06451e+06 118680 0 1.0561e+06 117696 0 1.04777e+06 116704 0 1.03951e+06 115706 0 1.03132e+06 114702 0 991820 -412440 0 1.13839e+06 -350726 0 1.21395e+06 -342112 0 1.27207e+06 -334866 0 1.3171e+06 -328131 0 1.35629e+06 -320634 0 1.39065e+06 -312669 0 1.4218e+06 -304237 0 1.45029e+06 -295439 0 1.47666e+06 -286333 0 1.5012e+06 -276970 0 1.52415e+06 -267394 0 1.54569e+06 -257640 0 1.56593e+06 -247741 0 1.58498e+06 -237725 0 1.60292e+06 -227618 0 1.61981e+06 -217443 0 1.63569e+06 -207221 0 1.65062e+06 -196973 0 1.66461e+06 -186718 0 1.67771e+06 -176474 0 1.68993e+06 -166258 0 1.7013e+06 -156085 0 1.71183e+06 -145973 0 1.72155e+06 -135935 0 1.73046e+06 -125986 0 1.7386e+06 -116140 0 1.74596e+06 -106409 0 1.75257e+06 -96807.2 0 1.75845e+06 -87344.8 0 1.7636e+06 -78033.1 0 1.76806e+06 -68882.4 0 1.77182e+06 -59902.2 0 1.77492e+06 -51101.2 0 1.77737e+06 -42487.3 0 1.77918e+06 -34067.6 0 1.78037e+06 -25848.4 0 1.78097e+06 -17835.4 0 1.78099e+06 -10033.2 0 1.78045e+06 -2445.93 0 1.77937e+06 4923.21 0 1.77776e+06 12071.6 0 1.77565e+06 18997.5 0 1.77306e+06 25699.7 0 1.76999e+06 32177.5 0 1.76648e+06 38431 0 1.76254e+06 44460.8 0 1.75819e+06 50268.1 0 1.75345e+06 55854.3 0 1.74833e+06 61221.5 0 1.74285e+06 66372.1 0 1.73702e+06 71309 0 1.73087e+06 76035.3 0 1.72441e+06 80554.3 0 1.71766e+06 84869.9 0 1.71063e+06 88985.8 0 1.70333e+06 92906.3 0 1.69579e+06 96635.6 0 1.688e+06 100178 0 1.68e+06 103539 0 1.67179e+06 106721 0 1.66338e+06 109731 0 1.65478e+06 112573 0 1.64602e+06 115252 0 1.63709e+06 117772 0 1.62802e+06 120139 0 1.6188e+06 122356 0 1.60946e+06 124430 0 1.59999e+06 126364 0 1.59042e+06 128163 0 1.58074e+06 129833 0 1.57098e+06 131376 0 1.56113e+06 132799 0 1.5512e+06 134105 0 1.54121e+06 135298 0 1.53115e+06 136383 0 1.52105e+06 137364 0 1.51089e+06 138245 0 1.5007e+06 139030 0 1.49047e+06 139722 0 1.48021e+06 140325 0 1.46993e+06 140844 0 1.45963e+06 141280 0 1.44932e+06 141639 0 1.43901e+06 141923 0 1.42869e+06 142134 0 1.41837e+06 142277 0 1.40806e+06 142355 0 1.39776e+06 142370 0 1.38747e+06 142324 0 1.3772e+06 142222 0 1.36696e+06 142064 0 1.35673e+06 141855 0 1.34654e+06 141596 0 1.33637e+06 141289 0 1.32624e+06 140937 0 1.31615e+06 140542 0 1.3061e+06 140106 0 1.29608e+06 139631 0 1.28611e+06 139119 0 1.27619e+06 138571 0 1.26631e+06 137991 0 1.25649e+06 137378 0 1.24671e+06 136736 0 1.23699e+06 136065 0 1.22733e+06 135367 0 1.21772e+06 134644 0 1.20817e+06 133896 0 1.19868e+06 133126 0 1.18925e+06 132334 0 1.17989e+06 131522 0 1.17058e+06 130691 0 1.16134e+06 129842 0 1.15217e+06 128976 0 1.14306e+06 128094 0 1.13402e+06 127197 0 1.12505e+06 126286 0 1.11614e+06 125362 0 1.10731e+06 124426 0 1.09855e+06 123479 0 1.08985e+06 122521 0 1.08123e+06 121554 0 1.07268e+06 120577 0 1.0642e+06 119592 0 1.0558e+06 118599 0 1.04746e+06 117600 0 1.0392e+06 116593 0 1.03102e+06 115581 0 1.01307e+06 -421275 0 1.14347e+06 -361282 0 1.21808e+06 -348868 0 1.27499e+06 -340144 0 1.31986e+06 -332421 0 1.3588e+06 -324319 0 1.39305e+06 -315907 0 1.4241e+06 -307136 0 1.45252e+06 -298066 0 1.47882e+06 -288731 0 1.50331e+06 -279173 0 1.52621e+06 -269424 0 1.5477e+06 -259516 0 1.5679e+06 -249476 0 1.58691e+06 -239330 0 1.60481e+06 -229102 0 1.62165e+06 -218813 0 1.6375e+06 -208483 0 1.65238e+06 -198132 0 1.66633e+06 -187778 0 1.67939e+06 -177438 0 1.69156e+06 -167129 0 1.70289e+06 -156867 0 1.71338e+06 -146668 0 1.72305e+06 -136546 0 1.73192e+06 -126515 0 1.74e+06 -116589 0 1.74732e+06 -106781 0 1.75389e+06 -97103.9 0 1.75972e+06 -87568.5 0 1.76483e+06 -78186.1 0 1.76923e+06 -68966.8 0 1.77295e+06 -59920.2 0 1.776e+06 -51055 0 1.7784e+06 -42379.1 0 1.78016e+06 -33899.6 0 1.78131e+06 -25622.9 0 1.78186e+06 -17554.4 0 1.78184e+06 -9698.95 0 1.78125e+06 -2060.53 0 1.78012e+06 5357.61 0 1.77847e+06 12553 0 1.77632e+06 19523.7 0 1.77368e+06 26268.7 0 1.77058e+06 32787.3 0 1.76702e+06 39079.7 0 1.76305e+06 45146.5 0 1.75865e+06 50988.9 0 1.75387e+06 56608.4 0 1.74871e+06 62007.2 0 1.7432e+06 67187.7 0 1.73734e+06 72152.8 0 1.73115e+06 76905.6 0 1.72466e+06 81449.7 0 1.71788e+06 85788.8 0 1.71082e+06 89926.8 0 1.70349e+06 93868 0 1.69592e+06 97616.6 0 1.68811e+06 101177 0 1.68008e+06 104554 0 1.67184e+06 107753 0 1.6634e+06 110777 0 1.65479e+06 113633 0 1.646e+06 116324 0 1.63705e+06 118855 0 1.62796e+06 121232 0 1.61872e+06 123459 0 1.60936e+06 125541 0 1.59988e+06 127483 0 1.59029e+06 129289 0 1.5806e+06 130964 0 1.57082e+06 132513 0 1.56095e+06 133940 0 1.55101e+06 135250 0 1.54101e+06 136447 0 1.53094e+06 137534 0 1.52082e+06 138517 0 1.51066e+06 139400 0 1.50045e+06 140185 0 1.49021e+06 140878 0 1.47995e+06 141481 0 1.46966e+06 141999 0 1.45935e+06 142435 0 1.44904e+06 142792 0 1.43871e+06 143074 0 1.42839e+06 143283 0 1.41807e+06 143424 0 1.40775e+06 143498 0 1.39745e+06 143510 0 1.38716e+06 143461 0 1.37688e+06 143354 0 1.36663e+06 143193 0 1.35641e+06 142979 0 1.34621e+06 142715 0 1.33604e+06 142403 0 1.32591e+06 142046 0 1.31582e+06 141646 0 1.30576e+06 141204 0 1.29574e+06 140724 0 1.28577e+06 140206 0 1.27585e+06 139652 0 1.26597e+06 139065 0 1.25615e+06 138447 0 1.24637e+06 137798 0 1.23665e+06 137120 0 1.22699e+06 136415 0 1.21738e+06 135685 0 1.20783e+06 134931 0 1.19834e+06 134153 0 1.18892e+06 133354 0 1.17955e+06 132535 0 1.17025e+06 131696 0 1.16101e+06 130839 0 1.15184e+06 129966 0 1.14273e+06 129076 0 1.13369e+06 128172 0 1.12472e+06 127253 0 1.11582e+06 126322 0 1.10699e+06 125378 0 1.09823e+06 124423 0 1.08954e+06 123457 0 1.08092e+06 122481 0 1.07237e+06 121497 0 1.06389e+06 120504 0 1.05549e+06 119503 0 1.04716e+06 118495 0 1.0389e+06 117481 0 1.03072e+06 116460 0 1.03196e+06 -429131 0 1.14915e+06 -370902 0 1.22226e+06 -355414 0 1.27805e+06 -345301 0 1.32268e+06 -336651 0 1.36136e+06 -327962 0 1.39549e+06 -319115 0 1.42643e+06 -310013 0 1.45477e+06 -300673 0 1.48101e+06 -291114 0 1.50544e+06 -281362 0 1.52829e+06 -271442 0 1.54973e+06 -261380 0 1.56988e+06 -251201 0 1.58885e+06 -240925 0 1.6067e+06 -230576 0 1.6235e+06 -220173 0 1.63931e+06 -209735 0 1.65415e+06 -199281 0 1.66806e+06 -188828 0 1.68107e+06 -178393 0 1.6932e+06 -167992 0 1.70448e+06 -157640 0 1.71493e+06 -147354 0 1.72455e+06 -137148 0 1.73338e+06 -127035 0 1.74142e+06 -117030 0 1.74869e+06 -107145 0 1.75521e+06 -97392.4 0 1.76099e+06 -87784.1 0 1.76605e+06 -78331 0 1.77041e+06 -69043.2 0 1.77408e+06 -59930.4 0 1.77708e+06 -51001.1 0 1.77943e+06 -42263.3 0 1.78115e+06 -33724.1 0 1.78225e+06 -25389.8 0 1.78276e+06 -17266.1 0 1.78268e+06 -9357.49 0 1.78205e+06 -1668.09 0 1.78088e+06 5798.9 0 1.77918e+06 13041 0 1.77699e+06 20056.4 0 1.77431e+06 26844 0 1.77116e+06 33403.4 0 1.76757e+06 39734.5 0 1.76355e+06 45838.1 0 1.75912e+06 51715.4 0 1.7543e+06 57368.1 0 1.7491e+06 62798.2 0 1.74355e+06 68008.4 0 1.73766e+06 73001.5 0 1.73144e+06 77780.7 0 1.72491e+06 82349.7 0 1.7181e+06 86712.1 0 1.711e+06 90872.1 0 1.70365e+06 94833.8 0 1.69605e+06 98601.6 0 1.68821e+06 102180 0 1.68015e+06 105574 0 1.67189e+06 108788 0 1.66343e+06 111827 0 1.65479e+06 114695 0 1.64598e+06 117398 0 1.63701e+06 119941 0 1.6279e+06 122328 0 1.61864e+06 124564 0 1.60926e+06 126654 0 1.59976e+06 128604 0 1.59016e+06 130417 0 1.58045e+06 132098 0 1.57065e+06 133652 0 1.56078e+06 135083 0 1.55082e+06 136397 0 1.54081e+06 137597 0 1.53073e+06 138687 0 1.5206e+06 139672 0 1.51042e+06 140556 0 1.50021e+06 141342 0 1.48996e+06 142035 0 1.47968e+06 142638 0 1.46939e+06 143155 0 1.45908e+06 143590 0 1.44875e+06 143945 0 1.43842e+06 144225 0 1.42809e+06 144433 0 1.41776e+06 144571 0 1.40744e+06 144642 0 1.39713e+06 144650 0 1.38684e+06 144598 0 1.37656e+06 144488 0 1.36631e+06 144322 0 1.35608e+06 144103 0 1.34588e+06 143835 0 1.33571e+06 143518 0 1.32558e+06 143156 0 1.31548e+06 142750 0 1.30542e+06 142303 0 1.29541e+06 141817 0 1.28543e+06 141293 0 1.27551e+06 140733 0 1.26563e+06 140140 0 1.25581e+06 139515 0 1.24603e+06 138859 0 1.23631e+06 138175 0 1.22665e+06 137464 0 1.21704e+06 136726 0 1.20749e+06 135965 0 1.19801e+06 135180 0 1.18858e+06 134374 0 1.17921e+06 133547 0 1.16991e+06 132701 0 1.16068e+06 131837 0 1.15151e+06 130956 0 1.1424e+06 130058 0 1.13336e+06 129146 0 1.1244e+06 128220 0 1.1155e+06 127280 0 1.10667e+06 126329 0 1.09791e+06 125366 0 1.08922e+06 124392 0 1.0806e+06 123408 0 1.07205e+06 122416 0 1.06358e+06 121415 0 1.05518e+06 120406 0 1.04685e+06 119390 0 1.0386e+06 118367 0 1.03042e+06 117339 0 1.04894e+06 -436191 0 1.15522e+06 -379718 0 1.22652e+06 -361744 0 1.28123e+06 -350340 0 1.32556e+06 -340820 0 1.36397e+06 -331563 0 1.39796e+06 -322294 0 1.42878e+06 -312867 0 1.45704e+06 -303263 0 1.48321e+06 -293481 0 1.50758e+06 -283537 0 1.53038e+06 -273448 0 1.55177e+06 -263233 0 1.57188e+06 -252915 0 1.5908e+06 -242511 0 1.60861e+06 -232041 0 1.62537e+06 -221525 0 1.64113e+06 -210979 0 1.65593e+06 -200422 0 1.66979e+06 -189870 0 1.68276e+06 -179339 0 1.69485e+06 -168846 0 1.70609e+06 -158405 0 1.71649e+06 -148032 0 1.72607e+06 -137742 0 1.73485e+06 -127547 0 1.74284e+06 -117462 0 1.75007e+06 -107500 0 1.75654e+06 -97672.6 0 1.76227e+06 -87991.5 0 1.76728e+06 -78467.8 0 1.77159e+06 -69111.6 0 1.77522e+06 -59932.6 0 1.77817e+06 -50939.3 0 1.78047e+06 -42139.7 0 1.78214e+06 -33540.9 0 1.7832e+06 -25149.3 0 1.78366e+06 -16970.4 0 1.78354e+06 -9008.82 0 1.78286e+06 -1268.59 0 1.78164e+06 6247.1 0 1.7799e+06 13535.8 0 1.77766e+06 20595.7 0 1.77493e+06 27425.8 0 1.77175e+06 34025.6 0 1.76811e+06 40395.3 0 1.76405e+06 46535.5 0 1.75958e+06 52447.6 0 1.75472e+06 58133.2 0 1.74949e+06 63594.6 0 1.7439e+06 68834.2 0 1.73797e+06 73855.1 0 1.73172e+06 78660.6 0 1.72517e+06 83254.3 0 1.71832e+06 87639.9 0 1.71119e+06 91821.6 0 1.70381e+06 95803.6 0 1.69618e+06 99590.5 0 1.68831e+06 103187 0 1.68023e+06 106597 0 1.67194e+06 109826 0 1.66346e+06 112879 0 1.6548e+06 115761 0 1.64597e+06 118476 0 1.63698e+06 121029 0 1.62784e+06 123426 0 1.61857e+06 125672 0 1.60917e+06 127770 0 1.59965e+06 129727 0 1.59003e+06 131546 0 1.5803e+06 133233 0 1.57049e+06 134793 0 1.5606e+06 136229 0 1.55064e+06 137546 0 1.5406e+06 138748 0 1.53051e+06 139841 0 1.52037e+06 140828 0 1.51019e+06 141713 0 1.49996e+06 142500 0 1.48971e+06 143193 0 1.47942e+06 143796 0 1.46912e+06 144313 0 1.4588e+06 144746 0 1.44847e+06 145100 0 1.43813e+06 145378 0 1.42779e+06 145583 0 1.41746e+06 145718 0 1.40713e+06 145787 0 1.39682e+06 145792 0 1.38652e+06 145735 0 1.37624e+06 145621 0 1.36598e+06 145451 0 1.35575e+06 145228 0 1.34555e+06 144955 0 1.33538e+06 144633 0 1.32524e+06 144266 0 1.31514e+06 143855 0 1.30508e+06 143402 0 1.29507e+06 142910 0 1.28509e+06 142380 0 1.27517e+06 141814 0 1.26529e+06 141215 0 1.25547e+06 140583 0 1.24569e+06 139921 0 1.23597e+06 139230 0 1.22631e+06 138512 0 1.2167e+06 137767 0 1.20715e+06 136999 0 1.19767e+06 136207 0 1.18824e+06 135393 0 1.17888e+06 134559 0 1.16958e+06 133706 0 1.16034e+06 132834 0 1.15117e+06 131945 0 1.14207e+06 131040 0 1.13303e+06 130120 0 1.12407e+06 129186 0 1.11517e+06 128239 0 1.10634e+06 127279 0 1.09758e+06 126308 0 1.0889e+06 125327 0 1.08028e+06 124335 0 1.07174e+06 123335 0 1.06327e+06 122325 0 1.05487e+06 121309 0 1.04654e+06 120285 0 1.03829e+06 119254 0 1.03011e+06 118217 0 1.06434e+06 -442597 0 1.16156e+06 -387840 0 1.23086e+06 -367855 0 1.28452e+06 -355260 0 1.32849e+06 -344925 0 1.36662e+06 -335122 0 1.40046e+06 -325443 0 1.43117e+06 -315697 0 1.45934e+06 -305833 0 1.48543e+06 -295832 0 1.50974e+06 -285698 0 1.53248e+06 -275441 0 1.55382e+06 -265075 0 1.57388e+06 -254618 0 1.59276e+06 -244086 0 1.61053e+06 -233497 0 1.62724e+06 -222867 0 1.64296e+06 -212214 0 1.65771e+06 -201554 0 1.67154e+06 -190903 0 1.68446e+06 -180277 0 1.69651e+06 -169691 0 1.7077e+06 -159162 0 1.71806e+06 -148702 0 1.72759e+06 -138327 0 1.73632e+06 -128051 0 1.74427e+06 -117887 0 1.75145e+06 -107847 0 1.75787e+06 -97944.6 0 1.76356e+06 -88190.7 0 1.76852e+06 -78596.4 0 1.77279e+06 -69172 0 1.77636e+06 -59926.8 0 1.77927e+06 -50869.6 0 1.78152e+06 -42008.4 0 1.78314e+06 -33350.2 0 1.78415e+06 -24901.3 0 1.78456e+06 -16667.3 0 1.78439e+06 -8652.91 0 1.78367e+06 -862.003 0 1.7824e+06 6702.23 0 1.78062e+06 14037.4 0 1.77833e+06 21141.7 0 1.77557e+06 28014.1 0 1.77234e+06 34654.2 0 1.76866e+06 41062.2 0 1.76456e+06 47238.9 0 1.76005e+06 53185.5 0 1.75515e+06 58903.9 0 1.74988e+06 64396.3 0 1.74426e+06 69665.2 0 1.7383e+06 74713.8 0 1.73201e+06 79545.4 0 1.72542e+06 84163.5 0 1.71854e+06 88572.1 0 1.71138e+06 92775.4 0 1.70397e+06 96777.6 0 1.69631e+06 100583 0 1.68842e+06 104197 0 1.68031e+06 107624 0 1.672e+06 110868 0 1.66349e+06 113935 0 1.6548e+06 116829 0 1.64595e+06 119556 0 1.63694e+06 122121 0 1.62778e+06 124528 0 1.61849e+06 126782 0 1.60907e+06 128889 0 1.59954e+06 130853 0 1.5899e+06 132678 0 1.58016e+06 134371 0 1.57033e+06 135935 0 1.56043e+06 137375 0 1.55045e+06 138696 0 1.5404e+06 139902 0 1.5303e+06 140997 0 1.52015e+06 141985 0 1.50995e+06 142872 0 1.49972e+06 143659 0 1.48945e+06 144353 0 1.47916e+06 144955 0 1.46885e+06 145471 0 1.45852e+06 145903 0 1.44818e+06 146256 0 1.43784e+06 146531 0 1.4275e+06 146734 0 1.41716e+06 146867 0 1.40683e+06 146932 0 1.39651e+06 146933 0 1.3862e+06 146874 0 1.37592e+06 146755 0 1.36566e+06 146581 0 1.35542e+06 146354 0 1.34522e+06 146075 0 1.33504e+06 145749 0 1.32491e+06 145376 0 1.31481e+06 144959 0 1.30474e+06 144501 0 1.29473e+06 144003 0 1.28475e+06 143467 0 1.27483e+06 142895 0 1.26495e+06 142290 0 1.25512e+06 141651 0 1.24535e+06 140983 0 1.23563e+06 140285 0 1.22597e+06 139560 0 1.21636e+06 138808 0 1.20681e+06 138033 0 1.19733e+06 137234 0 1.1879e+06 136413 0 1.17854e+06 135571 0 1.16924e+06 134710 0 1.16001e+06 133831 0 1.15084e+06 132935 0 1.14174e+06 132022 0 1.1327e+06 131094 0 1.12374e+06 130153 0 1.11484e+06 129197 0 1.10602e+06 128230 0 1.09726e+06 127251 0 1.08858e+06 126261 0 1.07996e+06 125262 0 1.07142e+06 124253 0 1.06295e+06 123236 0 1.05456e+06 122211 0 1.04624e+06 121179 0 1.03799e+06 120140 0 1.02981e+06 119096 0 1.07845e+06 -448462 0 1.16805e+06 -395360 0 1.23526e+06 -373748 0 1.2879e+06 -360065 0 1.33146e+06 -348967 0 1.36932e+06 -338637 0 1.403e+06 -328560 0 1.43358e+06 -318503 0 1.46166e+06 -308384 0 1.48768e+06 -298167 0 1.51192e+06 -287845 0 1.53461e+06 -277421 0 1.55589e+06 -266906 0 1.5759e+06 -256311 0 1.59473e+06 -245651 0 1.61245e+06 -234942 0 1.62913e+06 -224200 0 1.6448e+06 -213439 0 1.65951e+06 -202677 0 1.67329e+06 -191927 0 1.68617e+06 -181206 0 1.69818e+06 -170528 0 1.70932e+06 -159909 0 1.71963e+06 -149363 0 1.72912e+06 -138904 0 1.73781e+06 -128546 0 1.74571e+06 -118303 0 1.75284e+06 -108186 0 1.75921e+06 -98208.4 0 1.76485e+06 -88381.8 0 1.76977e+06 -78717 0 1.77398e+06 -69224.2 0 1.77751e+06 -59913 0 1.78037e+06 -50792.1 0 1.78257e+06 -41869.3 0 1.78414e+06 -33151.7 0 1.7851e+06 -24645.8 0 1.78547e+06 -16356.9 0 1.78525e+06 -8289.76 0 1.78448e+06 -448.312 0 1.78317e+06 7164.31 0 1.78134e+06 14545.7 0 1.77901e+06 21694.2 0 1.7762e+06 28608.7 0 1.77293e+06 35289 0 1.76921e+06 41735.2 0 1.76507e+06 47948.1 0 1.76052e+06 53929.2 0 1.75559e+06 59680.2 0 1.75028e+06 65203.4 0 1.74462e+06 70501.4 0 1.73862e+06 75577.5 0 1.7323e+06 80434.9 0 1.72567e+06 85077.4 0 1.71876e+06 89508.8 0 1.71158e+06 93733.5 0 1.70413e+06 97755.7 0 1.69644e+06 101580 0 1.68852e+06 105211 0 1.68039e+06 108654 0 1.67205e+06 111913 0 1.66352e+06 114994 0 1.65481e+06 117901 0 1.64593e+06 120640 0 1.6369e+06 123215 0 1.62772e+06 125632 0 1.61841e+06 127895 0 1.60897e+06 130010 0 1.59942e+06 131981 0 1.58977e+06 133813 0 1.58001e+06 135511 0 1.57017e+06 137080 0 1.56025e+06 138524 0 1.55026e+06 139848 0 1.5402e+06 141057 0 1.53009e+06 142154 0 1.51992e+06 143144 0 1.50972e+06 144032 0 1.49947e+06 144820 0 1.4892e+06 145513 0 1.4789e+06 146115 0 1.46857e+06 146630 0 1.45824e+06 147061 0 1.4479e+06 147412 0 1.43755e+06 147686 0 1.4272e+06 147886 0 1.41685e+06 148016 0 1.40652e+06 148078 0 1.39619e+06 148076 0 1.38589e+06 148012 0 1.3756e+06 147890 0 1.36533e+06 147711 0 1.3551e+06 147479 0 1.34489e+06 147196 0 1.33471e+06 146865 0 1.32457e+06 146487 0 1.31447e+06 146064 0 1.30441e+06 145600 0 1.29439e+06 145096 0 1.28441e+06 144554 0 1.27448e+06 143976 0 1.26461e+06 143364 0 1.25478e+06 142720 0 1.24501e+06 142044 0 1.23529e+06 141340 0 1.22562e+06 140608 0 1.21602e+06 139849 0 1.20647e+06 139067 0 1.19699e+06 138260 0 1.18756e+06 137432 0 1.1782e+06 136583 0 1.1689e+06 135715 0 1.15967e+06 134828 0 1.1505e+06 133924 0 1.14141e+06 133004 0 1.13237e+06 132068 0 1.12341e+06 131119 0 1.11452e+06 130156 0 1.10569e+06 129180 0 1.09694e+06 128193 0 1.08826e+06 127196 0 1.07965e+06 126188 0 1.07111e+06 125171 0 1.06264e+06 124146 0 1.05425e+06 123113 0 1.04593e+06 122073 0 1.03768e+06 121026 0 1.02951e+06 119973 0 1.09146e+06 -453875 0 1.17461e+06 -402354 0 1.23971e+06 -379429 0 1.29137e+06 -364755 0 1.33449e+06 -352943 0 1.37206e+06 -342108 0 1.40557e+06 -331647 0 1.43602e+06 -321286 0 1.464e+06 -310915 0 1.48994e+06 -300486 0 1.51412e+06 -289978 0 1.53674e+06 -279389 0 1.55798e+06 -268724 0 1.57794e+06 -257993 0 1.59672e+06 -247206 0 1.6144e+06 -236378 0 1.63102e+06 -225523 0 1.64665e+06 -214656 0 1.66132e+06 -203791 0 1.67506e+06 -192942 0 1.68789e+06 -182126 0 1.69985e+06 -171357 0 1.71095e+06 -160649 0 1.72122e+06 -150016 0 1.73066e+06 -139473 0 1.7393e+06 -129033 0 1.74715e+06 -118710 0 1.75423e+06 -108516 0 1.76056e+06 -98463.8 0 1.76615e+06 -88564.5 0 1.77102e+06 -78829.3 0 1.77518e+06 -69268.4 0 1.77866e+06 -59891.3 0 1.78147e+06 -50706.6 0 1.78363e+06 -41722.4 0 1.78515e+06 -32945.6 0 1.78606e+06 -24382.7 0 1.78638e+06 -16039 0 1.78612e+06 -7919.32 0 1.7853e+06 -27.4972 0 1.78394e+06 7633.35 0 1.78207e+06 15060.9 0 1.7797e+06 22253.4 0 1.77684e+06 29209.9 0 1.77353e+06 35930.1 0 1.76977e+06 42414.3 0 1.76559e+06 48663.3 0 1.761e+06 54678.6 0 1.75602e+06 60462 0 1.75068e+06 66015.8 0 1.74498e+06 71342.8 0 1.73894e+06 76446.2 0 1.73259e+06 81329.3 0 1.72593e+06 85995.9 0 1.71899e+06 90450 0 1.71177e+06 94695.9 0 1.7043e+06 98737.9 0 1.69658e+06 102581 0 1.68863e+06 106229 0 1.68047e+06 109688 0 1.6721e+06 112962 0 1.66355e+06 116057 0 1.65482e+06 118976 0 1.64592e+06 121727 0 1.63686e+06 124312 0 1.62766e+06 126739 0 1.61833e+06 129010 0 1.60888e+06 131133 0 1.59931e+06 133111 0 1.58964e+06 134949 0 1.57987e+06 136653 0 1.57001e+06 138227 0 1.56007e+06 139675 0 1.55007e+06 141003 0 1.54e+06 142214 0 1.52987e+06 143313 0 1.5197e+06 144305 0 1.50948e+06 145193 0 1.49923e+06 145982 0 1.48894e+06 146675 0 1.47863e+06 147277 0 1.4683e+06 147791 0 1.45796e+06 148220 0 1.44761e+06 148569 0 1.43725e+06 148841 0 1.4269e+06 149039 0 1.41655e+06 149165 0 1.40621e+06 149225 0 1.39588e+06 149219 0 1.38557e+06 149151 0 1.37527e+06 149025 0 1.36501e+06 148842 0 1.35477e+06 148605 0 1.34455e+06 148317 0 1.33438e+06 147981 0 1.32423e+06 147597 0 1.31413e+06 147170 0 1.30407e+06 146700 0 1.29404e+06 146190 0 1.28407e+06 145642 0 1.27414e+06 145058 0 1.26426e+06 144439 0 1.25444e+06 143788 0 1.24466e+06 143106 0 1.23494e+06 142395 0 1.22528e+06 141656 0 1.21567e+06 140890 0 1.20613e+06 140100 0 1.19664e+06 139287 0 1.18722e+06 138451 0 1.17786e+06 137595 0 1.16856e+06 136719 0 