<?xml version="1.0"?> 
<VTKFile type="StructuredGrid" version="0.1"> 
<StructuredGrid WholeExtent="0 127 0 127 0 0"> 
<Piece Extent="0 127 0 127 0 0"> 
<PointData>
<DataArray type="Float32" Name="|E|" format="ascii" NumberOfComponents="3"> 
-5.305e+06 5.305e+06 0 -5.2809e+06 5.34497e+06 0 -5.25636e+06 5.38477e+06 0 -5.23138e+06 5.42439e+06 0 -5.20597e+06 5.46383e+06 0 -5.18011e+06 5.50307e+06 0 -5.15383e+06 5.54211e+06 0 -5.12711e+06 5.58094e+06 0 -5.09996e+06 5.61956e+06 0 -5.07237e+06 5.65796e+06 0 -5.04436e+06 5.69614e+06 0 -5.01592e+06 5.73409e+06 0 -4.98706e+06 5.7718e+06 0 -4.95777e+06 5.80926e+06 0 -4.92806e+06 5.84647e+06 0 -4.89793e+06 5.88343e+06 0 -4.86738e+06 5.92012e+06 0 -4.83642e+06 5.95655e+06 0 -4.80504e+06 5.99269e+06 0 -4.77325e+06 6.02856e+06 0 -4.74106e+06 6.06414e+06 0 -4.70846e+06 6.09942e+06 0 -4.67546e+06 6.1344e+06 0 -4.64205e+06 6.16907e+06 0 -4.60825e+06 6.20343e+06 0 -4.57406e+06 6.23746e+06 0 -4.53948e+06 6.27117e+06 0 -4.50451e+06 6.30455e+06 0 -4.46915e+06 6.33759e+06 0 -4.43342e+06 6.37028e+06 0 -4.3973e+06 6.40262e+06 0 -4.36082e+06 6.43461e+06 0 -4.32396e+06 6.46623e+06 0 -4.28674e+06 6.49747e+06 0 -4.24915e+06 6.52835e+06 0 -4.21121e+06 6.55884e+06 0 -4.17292e+06 6.58894e+06 0 -4.13427e+06 6.61864e+06 0 -4.09528e+06 6.64795e+06 0 -4.05595e+06 6.67685e+06 0 -4.01628e+06 6.70533e+06 0 -3.97628e+06 6.7334e+06 0 -3.93595e+06 6.76104e+06 0 -3.8953e+06 6.78825e+06 0 -3.85434e+06 6.81503e+06 0 -3.81306e+06 6.84136e+06 0 -3.77147e+06 6.86725e+06 0 -3.72958e+06 6.89268e+06 0 -3.6874e+06 6.91766e+06 0 -3.64492e+06 6.94217e+06 0 -3.60215e+06 6.96621e+06 0 -3.55911e+06 6.98977e+06 0 -3.51579e+06 7.01285e+06 0 -3.4722e+06 7.03545e+06 0 -3.42835e+06 7.05756e+06 0 -3.38424e+06 7.07916e+06 0 -3.33987e+06 7.10027e+06 0 -3.29527e+06 7.12087e+06 0 -3.25042e+06 7.14096e+06 0 -3.20534e+06 7.16052e+06 0 -3.16003e+06 7.17957e+06 0 -3.1145e+06 7.19809e+06 0 -3.06876e+06 7.21607e+06 0 -3.0228e+06 7.23352e+06 0 -2.97665e+06 7.25043e+06 0 -2.93031e+06 7.26679e+06 0 -2.88377e+06 7.2826e+06 0 -2.83706e+06 7.29785e+06 0 -2.79017e+06 7.31254e+06 0 -2.74311e+06 7.32667e+06 0 -2.6959e+06 7.34023e+06 0 -2.64853e+06 7.35321e+06 0 -2.60101e+06 7.36562e+06 0 -2.55336e+06 7.37744e+06 0 -2.50558e+06 7.38868e+06 0 -2.45767e+06 7.39933e+06 0 -2.40965e+06 7.40938e+06 0 -2.36152e+06 7.41883e+06 0 -2.31328e+06 7.42768e+06 0 -2.26496e+06 7.43593e+06 0 -2.21655e+06 7.44356e+06 0 -2.16806e+06 7.45059e+06 0 -2.1195e+06 7.45699e+06 0 -2.07088e+06 7.46277e+06 0 -2.02221e+06 7.46793e+06 0 -1.97349e+06 7.47246e+06 0 -1.92473e+06 7.47637e+06 0 -1.87594e+06 7.47963e+06 0 -1.82713e+06 7.48226e+06 0 -1.77831e+06 7.48425e+06 0 -1.72948e+06 7.48559e+06 0 -1.68066e+06 7.48629e+06 0 -1.63185e+06 7.48634e+06 0 -1.58306e+06 7.48574e+06 0 -1.5343e+06 7.48448e+06 0 -1.48558e+06 7.48257e+06 0 -1.4369e+06 7.48e+06 0 -1.38828e+06 7.47677e+06 0 -1.33972e+06 7.47287e+06 0 -1.29124e+06 7.46831e+06 0 -1.24284e+06 7.46309e+06 0 -1.19453e+06 7.45721e+06 0 -1.14632e+06 7.45065e+06 0 -1.09822e+06 7.44344e+06 0 -1.05023e+06 7.43556e+06 0 -1.00238e+06 7.42702e+06 0 -954663 7.41783e+06 0 -907094 7.40798e+06 0 -859681 7.39749e+06 0 -812434 7.38637e+06 0 -765364 7.37464e+06 0 -718480 7.3623e+06 0 -671792 7.34939e+06 0 -625311 7.33594e+06 0 -579047 7.322e+06 0 -533009 7.30762e+06 0 -487209 7.2929e+06 0 -441657 7.27795e+06 0 -396363 7.26294e+06 0 -351335 7.24809e+06 0 -306583 7.23373e+06 0 -262110 7.22035e+06 0 -217917 7.20863e+06 0 -173996 7.1996e+06 0 -130323 7.19479e+06 0 -86846.7 7.19649e+06 0 -43466.5 7.20816e+06 0 6.08907e-06 7.23516e+06 0 -5.15391e+06 5.15865e+06 0 -5.13111e+06 5.19769e+06 0 -5.10786e+06 5.23657e+06 0 -5.08417e+06 5.27527e+06 0 -5.06004e+06 5.3138e+06 0 -5.03546e+06 5.35213e+06 0 -5.01045e+06 5.39028e+06 0 -4.98499e+06 5.42822e+06 0 -4.9591e+06 5.46595e+06 0 -4.93277e+06 5.50347e+06 0 -4.90601e+06 5.54077e+06 0 -4.87882e+06 5.57784e+06 0 -4.8512e+06 5.61468e+06 0 -4.82315e+06 5.65127e+06 0 -4.79467e+06 5.68761e+06 0 -4.76577e+06 5.7237e+06 0 -4.73645e+06 5.75953e+06 0 -4.70672e+06 5.79508e+06 0 -4.67656e+06 5.83036e+06 0 -4.64599e+06 5.86536e+06 0 -4.61502e+06 5.90006e+06 0 -4.58363e+06 5.93447e+06 0 -4.55185e+06 5.96858e+06 0 -4.51966e+06 6.00237e+06 0 -4.48707e+06 6.03585e+06 0 -4.45409e+06 6.069e+06 0 -4.42072e+06 6.10182e+06 0 -4.38697e+06 6.13431e+06 0 -4.35283e+06 6.16645e+06 0 -4.31831e+06 6.19823e+06 0 -4.28342e+06 6.22966e+06 0 -4.24816e+06 6.26073e+06 0 -4.21254e+06 6.29143e+06 0 -4.17655e+06 6.32175e+06 0 -4.14021e+06 6.35168e+06 0 -4.10351e+06 6.38123e+06 0 -4.06647e+06 6.41038e+06 0 -4.02908e+06 6.43913e+06 0 -3.99136e+06 6.46747e+06 0 -3.95331e+06 6.49539e+06 0 -3.91492e+06 6.52289e+06 0 -3.87622e+06 6.54997e+06 0 -3.8372e+06 6.57661e+06 0 -3.79787e+06 6.60282e+06 0 -3.75824e+06 6.62858e+06 0 -3.71831e+06 6.65389e+06 0 -3.67808e+06 6.67874e+06 0 -3.63757e+06 6.70313e+06 0 -3.59678e+06 6.72705e+06 0 -3.55571e+06 6.7505e+06 0 -3.51437e+06 6.77348e+06 0 -3.47277e+06 6.79597e+06 0 -3.43092e+06 6.81796e+06 0 -3.38882e+06 6.83947e+06 0 -3.34647e+06 6.86047e+06 0 -3.30389e+06 6.88098e+06 0 -3.26108e+06 6.90097e+06 0 -3.21805e+06 6.92044e+06 0 -3.17481e+06 6.9394e+06 0 -3.13136e+06 6.95784e+06 0 -3.08771e+06 6.97574e+06 0 -3.04386e+06 6.99312e+06 0 -2.99983e+06 7.00995e+06 0 -2.95562e+06 7.02625e+06 0 -2.91124e+06 7.042e+06 0 -2.8667e+06 7.0572e+06 0 -2.82201e+06 7.07184e+06 0 -2.77717e+06 7.08593e+06 0 -2.73218e+06 7.09946e+06 0 -2.68707e+06 7.11242e+06 0 -2.64183e+06 7.12481e+06 0 -2.59648e+06 7.13662e+06 0 -2.55102e+06 7.14787e+06 0 -2.50546e+06 7.15853e+06 0 -2.45981e+06 7.16861e+06 0 -2.41408e+06 7.1781e+06 0 -2.36827e+06 7.187e+06 0 -2.3224e+06 7.19531e+06 0 -2.27647e+06 7.20303e+06 0 -2.23049e+06 7.21015e+06 0 -2.18447e+06 7.21666e+06 0 -2.13842e+06 7.22258e+06 0 -2.09234e+06 7.22789e+06 0 -2.04625e+06 7.23259e+06 0 -2.00016e+06 7.23667e+06 0 -1.95407e+06 7.24015e+06 0 -1.90799e+06 7.24301e+06 0 -1.86193e+06 7.24526e+06 0 -1.8159e+06 7.24688e+06 0 -1.76991e+06 7.24788e+06 0 -1.72396e+06 7.24827e+06 0 -1.67807e+06 7.24802e+06 0 -1.63225e+06 7.24716e+06 0 -1.5865e+06 7.24566e+06 0 -1.54083e+06 7.24354e+06 0 -1.49526e+06 7.24079e+06 0 -1.44978e+06 7.23741e+06 0 -1.40441e+06 7.23339e+06 0 -1.35916e+06 7.22875e+06 0 -1.31403e+06 7.22347e+06 0 -1.26904e+06 7.21757e+06 0 -1.22419e+06 7.21103e+06 0 -1.17948e+06 7.20385e+06 0 -1.13494e+06 7.19605e+06 0 -1.09055e+06 7.18761e+06 0 -1.04633e+06 7.17855e+06 0 -1.00228e+06 7.16886e+06 0 -958408 7.15854e+06 0 -914714 7.14759e+06 0 -871197 7.13602e+06 0 -827857 7.12383e+06 0 -784687 7.11103e+06 0 -741679 7.0976e+06 0 -698817 7.08356e+06 0 -656080 7.0689e+06 0 -613438 7.05361e+06 0 -570848 7.03767e+06 0 -528252 7.02106e+06 0 -485570 7.00374e+06 0 -442697 6.98561e+06 0 -399487 6.96653e+06 0 -355747 6.94628e+06 0 -311216 6.92448e+06 0 -265541 6.90054e+06 0 -218254 6.87349e+06 0 -168715 6.84177e+06 0 -116097 6.80292e+06 0 -59201.4 6.75294e+06 0 -5.01125e+06 5.02441e+06 0 -4.98965e+06 5.06254e+06 0 -4.96761e+06 5.10051e+06 0 -4.94512e+06 5.13832e+06 0 -4.92218e+06 5.17595e+06 0 -4.8988e+06 5.2134e+06 0 -4.87497e+06 5.25067e+06 0 -4.8507e+06 5.28774e+06 0 -4.82599e+06 5.32461e+06 0 -4.80085e+06 5.36127e+06 0 -4.77526e+06 5.39772e+06 0 -4.74924e+06 5.43393e+06 0 -4.72279e+06 5.46992e+06 0 -4.69591e+06 5.50567e+06 0 -4.6686e+06 5.54117e+06 0 -4.64086e+06 5.57642e+06 0 -4.61271e+06 5.61141e+06 0 -4.58413e+06 5.64613e+06 0 -4.55513e+06 5.68058e+06 0 -4.52572e+06 5.71474e+06 0 -4.4959e+06 5.74861e+06 0 -4.46567e+06 5.78219e+06 0 -4.43504e+06 5.81546e+06 0 -4.40401e+06 5.84841e+06 0 -4.37258e+06 5.88105e+06 0 -4.34076e+06 5.91337e+06 0 -4.30855e+06 5.94535e+06 0 -4.27596e+06 5.97699e+06 0 -4.24298e+06 6.00828e+06 0 -4.20963e+06 6.03922e+06 0 -4.17591e+06 6.06979e+06 0 -4.14183e+06 6.1e+06 0 -4.10738e+06 6.12984e+06 0 -4.07257e+06 6.15929e+06 0 -4.03742e+06 6.18836e+06 0 -4.00192e+06 6.21703e+06 0 -3.96608e+06 6.2453e+06 0 -3.9299e+06 6.27316e+06 0 -3.8934e+06 6.30061e+06 0 -3.85657e+06 6.32764e+06 0 -3.81942e+06 6.35424e+06 0 -3.78197e+06 6.38041e+06 0 -3.74421e+06 6.40614e+06 0 -3.70614e+06 6.43142e+06 0 -3.66779e+06 6.45626e+06 0 -3.62915e+06 6.48064e+06 0 -3.59023e+06 6.50456e+06 0 -3.55104e+06 6.52801e+06 0 -3.51158e+06 6.55098e+06 0 -3.47187e+06 6.57348e+06 0 -3.4319e+06 6.5955e+06 0 -3.39169e+06 6.61702e+06 0 -3.35124e+06 6.63806e+06 0 -3.31056e+06 6.65859e+06 0 -3.26966e+06 6.67862e+06 0 -3.22854e+06 6.69814e+06 0 -3.18722e+06 6.71715e+06 0 -3.1457e+06 6.73564e+06 0 -3.10398e+06 6.75361e+06 0 -3.06208e+06 6.77105e+06 0 -3.02001e+06 6.78796e+06 0 -2.97777e+06 6.80434e+06 0 -2.93537e+06 6.82018e+06 0 -2.89282e+06 6.83547e+06 0 -2.85013e+06 6.85023e+06 0 -2.8073e+06 6.86443e+06 0 -2.76435e+06 6.87807e+06 0 -2.72128e+06 6.89117e+06 0 -2.6781e+06 6.9037e+06 0 -2.63482e+06 6.91567e+06 0 -2.59145e+06 6.92707e+06 0 -2.548e+06 6.93791e+06 0 -2.50447e+06 6.94818e+06 0 -2.46088e+06 6.95787e+06 0 -2.41723e+06 6.96698e+06 0 -2.37354e+06 6.97552e+06 0 -2.32981e+06 6.98348e+06 0 -2.28605e+06 6.99085e+06 0 -2.24228e+06 6.99764e+06 0 -2.19849e+06 7.00385e+06 0 -2.1547e+06 7.00946e+06 0 -2.11092e+06 7.01449e+06 0 -2.06716e+06 7.01893e+06 0 -2.02342e+06 7.02277e+06 0 -1.97972e+06 7.02602e+06 0 -1.93606e+06 7.02867e+06 0 -1.89246e+06 7.03073e+06 0 -1.84893e+06 7.03219e+06 0 -1.80546e+06 7.03306e+06 0 -1.76208e+06 7.03332e+06 0 -1.7188e+06 7.03299e+06 0 -1.67561e+06 7.03206e+06 0 -1.63253e+06 7.03053e+06 0 -1.58957e+06 7.0284e+06 0 -1.54674e+06 7.02566e+06 0 -1.50405e+06 7.02233e+06 0 -1.46151e+06 7.0184e+06 0 -1.41912e+06 7.01386e+06 0 -1.3769e+06 7.00873e+06 0 -1.33485e+06 7.00299e+06 0 -1.29298e+06 6.99665e+06 0 -1.2513e+06 6.98971e+06 0 -1.20981e+06 6.98216e+06 0 -1.16853e+06 6.97401e+06 0 -1.12747e+06 6.96526e+06 0 -1.08662e+06 6.9559e+06 0 -1.046e+06 6.94593e+06 0 -1.00561e+06 6.93535e+06 0 -965454 6.92415e+06 0 -925542 6.91233e+06 0 -885874 6.89987e+06 0 -846456 6.88678e+06 0 -807289 6.87303e+06 0 -768378 6.8586e+06 0 -729726 6.84349e+06 0 -691337 6.82764e+06 0 -653218 6.81104e+06 0 -615383 6.79364e+06 0 -577851 6.77539e+06 0 -540655 6.75623e+06 0 -503850 6.7361e+06 0 -467520 6.71497e+06 0 -431798 6.69282e+06 0 -396892 6.66969e+06 0 -363113 6.64578e+06 0 -330937 6.62155e+06 0 -301046 6.59794e+06 0 -274537 6.57673e+06 0 -4.8764e+06 4.90094e+06 0 -4.85592e+06 4.93818e+06 0 -4.83499e+06 4.97527e+06 0 -4.81362e+06 5.0122e+06 0 -4.7918e+06 5.04896e+06 0 -4.76953e+06 5.08555e+06 0 -4.74681e+06 5.12197e+06 0 -4.72366e+06 5.15819e+06 0 -4.70006e+06 5.19422e+06 0 -4.67601e+06 5.23005e+06 0 -4.65154e+06 5.26566e+06 0 -4.62662e+06 5.30105e+06 0 -4.60127e+06 5.33622e+06 0 -4.57549e+06 5.37115e+06 0 -4.54928e+06 5.40585e+06 0 -4.52264e+06 5.44029e+06 0 -4.49558e+06 5.47447e+06 0 -4.4681e+06 5.50838e+06 0 -4.4402e+06 5.54203e+06 0 -4.41189e+06 5.57539e+06 0 -4.38317e+06 5.60846e+06 0 -4.35404e+06 5.64124e+06 0 -4.3245e+06 5.67371e+06 0 -4.29457e+06 5.70587e+06 0 -4.26424e+06 5.73772e+06 0 -4.23352e+06 5.76923e+06 0 -4.20242e+06 5.80041e+06 0 -4.17093e+06 5.83126e+06 0 -4.13907e+06 5.86175e+06 0 -4.10683e+06 5.89189e+06 0 -4.07423e+06 5.92166e+06 0 -4.04127e+06 5.95107e+06 0 -4.00795e+06 5.98009e+06 0 -3.97427e+06 6.00874e+06 0 -3.94026e+06 6.03699e+06 0 -3.9059e+06 6.06485e+06 0 -3.87121e+06 6.0923e+06 0 -3.83619e+06 6.11935e+06 0 -3.80086e+06 6.14597e+06 0 -3.7652e+06 6.17217e+06 0 -3.72924e+06 6.19795e+06 0 -3.69298e+06 6.22328e+06 0 -3.65642e+06 6.24818e+06 0 -3.61957e+06 6.27262e+06 0 -3.58245e+06 6.29662e+06 0 -3.54505e+06 6.32015e+06 0 -3.50738e+06 6.34322e+06 0 -3.46945e+06 6.36582e+06 0 -3.43127e+06 6.38794e+06 0 -3.39285e+06 6.40958e+06 0 -3.35419e+06 6.43074e+06 0 -3.3153e+06 6.4514e+06 0 -3.2762e+06 6.47157e+06 0 -3.23688e+06 6.49124e+06 0 -3.19735e+06 6.5104e+06 0 -3.15763e+06 6.52905e+06 0 -3.11772e+06 6.54719e+06 0 -3.07764e+06 6.56481e+06 0 -3.03738e+06 6.58191e+06 0 -2.99696e+06 6.59848e+06 0 -2.95639e+06 6.61452e+06 0 -2.91567e+06 6.63003e+06 0 -2.87482e+06 6.645e+06 0 -2.83384e+06 6.65943e+06 0 -2.79274e+06 6.67332e+06 0 -2.75153e+06 6.68667e+06 0 -2.71023e+06 6.69946e+06 0 -2.66883e+06 6.7117e+06 0 -2.62735e+06 6.72339e+06 0 -2.5858e+06 6.73452e+06 0 -2.54419e+06 6.74509e+06 0 -2.50253e+06 6.75511e+06 0 -2.46082e+06 6.76456e+06 0 -2.41908e+06 6.77344e+06 0 -2.37731e+06 6.78176e+06 0 -2.33552e+06 6.78951e+06 0 -2.29374e+06 6.79669e+06 0 -2.25195e+06 6.80331e+06 0 -2.21018e+06 6.80935e+06 0 -2.16844e+06 6.81482e+06 0 -2.12672e+06 6.81972e+06 0 -2.08505e+06 6.82404e+06 0 -2.04343e+06 6.82779e+06 0 -2.00188e+06 6.83097e+06 0 -1.96039e+06 6.83357e+06 0 -1.91899e+06 6.8356e+06 0 -1.87768e+06 6.83706e+06 0 -1.83647e+06 6.83794e+06 0 -1.79537e+06 6.83824e+06 0 -1.75439e+06 6.83798e+06 0 -1.71354e+06 6.83714e+06 0 -1.67283e+06 6.83573e+06 0 -1.63227e+06 6.83375e+06 0 -1.59188e+06 6.83119e+06 0 -1.55165e+06 6.82807e+06 0 -1.51159e+06 6.82438e+06 0 -1.47173e+06 6.82012e+06 0 -1.43207e+06 6.81529e+06 0 -1.39261e+06 6.80989e+06 0 -1.35337e+06 6.80393e+06 0 -1.31435e+06 6.79741e+06 0 -1.27558e+06 6.79032e+06 0 -1.23704e+06 6.78266e+06 0 -1.19877e+06 6.77444e+06 0 -1.16076e+06 6.76565e+06 0 -1.12302e+06 6.7563e+06 0 -1.08557e+06 6.74638e+06 0 -1.04842e+06 6.73589e+06 0 -1.01157e+06 6.72483e+06 0 -975039 6.7132e+06 0 -938842 6.70099e+06 0 -902991 6.68819e+06 0 -867499 6.67482e+06 0 -832386 6.66085e+06 0 -797669 6.64628e+06 0 -763372 6.63111e+06 0 -729519 6.61534e+06 0 -696140 6.59897e+06 0 -663269 6.58199e+06 0 -630941 6.56441e+06 0 -599194 6.54625e+06 0 -568064 6.52752e+06 0 -537582 6.50823e+06 0 -507756 6.48838e+06 0 -478560 6.46792e+06 0 -449896 6.4467e+06 0 -421562 6.42438e+06 0 -393123 6.40015e+06 0 -4.74881e+06 4.78712e+06 0 -4.72937e+06 4.82348e+06 0 -4.70949e+06 4.85971e+06 0 -4.68915e+06 4.89579e+06 0 -4.66837e+06 4.93171e+06 0 -4.64714e+06 4.96746e+06 0 -4.62547e+06 5.00305e+06 0 -4.60335e+06 5.03845e+06 0 -4.58079e+06 5.07366e+06 0 -4.55779e+06 5.10868e+06 0 -4.53434e+06 5.14349e+06 0 -4.51047e+06 5.17808e+06 0 -4.48615e+06 5.21246e+06 0 -4.46141e+06 5.2466e+06 0 -4.43624e+06 5.28051e+06 0 -4.41064e+06 5.31417e+06 0 -4.38461e+06 5.34758e+06 0 -4.35817e+06 5.38072e+06 0 -4.33131e+06 5.41359e+06 0 -4.30403e+06 5.44619e+06 0 -4.27635e+06 5.4785e+06 0 -4.24826e+06 5.51051e+06 0 -4.21977e+06 5.54222e+06 0 -4.19088e+06 5.57363e+06 0 -4.1616e+06 5.60471e+06 0 -4.13193e+06 5.63547e+06 0 -4.10188e+06 5.6659e+06 0 -4.07145e+06 5.69598e+06 0 -4.04064e+06 5.72572e+06 0 -4.00947e+06 5.7551e+06 0 -3.97793e+06 5.78412e+06 0 -3.94604e+06 5.81277e+06 0 -3.91379e+06 5.84104e+06 0 -3.8812e+06 5.86893e+06 0 -3.84827e+06 5.89643e+06 0 -3.81501e+06 5.92353e+06 0 -3.78142e+06 5.95022e+06 0 -3.74751e+06 5.9765e+06 0 -3.71329e+06 6.00237e+06 0 -3.67876e+06 6.0278e+06 0 -3.64393e+06 6.05281e+06 0 -3.6088e+06 6.07738e+06 0 -3.5734e+06 6.10151e+06 0 -3.53771e+06 6.12519e+06 0 -3.50176e+06 6.14841e+06 0 -3.46554e+06 6.17118e+06 0 -3.42907e+06 6.19348e+06 0 -3.39235e+06 6.2153e+06 0 -3.35539e+06 6.23665e+06 0 -3.3182e+06 6.25752e+06 0 -3.28079e+06 6.2779e+06 0 -3.24317e+06 6.29779e+06 0 -3.20534e+06 6.31718e+06 0 -3.16732e+06 6.33608e+06 0 -3.12911e+06 6.35447e+06 0 -3.09071e+06 6.37235e+06 0 -3.05215e+06 6.38972e+06 0 -3.01343e+06 6.40657e+06 0 -2.97456e+06 6.4229e+06 0 -2.93554e+06 6.43871e+06 0 -2.89639e+06 6.45399e+06 0 -2.85711e+06 6.46874e+06 0 -2.81773e+06 6.48296e+06 0 -2.77823e+06 6.49664e+06 0 -2.73864e+06 6.50979e+06 0 -2.69896e+06 6.52239e+06 0 -2.65921e+06 6.53446e+06 0 -2.61939e+06 6.54597e+06 0 -2.57952e+06 6.55694e+06 0 -2.53959e+06 6.56737e+06 0 -2.49963e+06 6.57724e+06 0 -2.45964e+06 6.58656e+06 0 -2.41964e+06 6.59533e+06 0 -2.37962e+06 6.60355e+06 0 -2.33961e+06 6.61121e+06 0 -2.29961e+06 6.61832e+06 0 -2.25963e+06 6.62488e+06 0 -2.21969e+06 6.63088e+06 0 -2.17978e+06 6.63632e+06 0 -2.13993e+06 6.64121e+06 0 -2.10014e+06 6.64554e+06 0 -2.06043e+06 6.64932e+06 0 -2.02079e+06 6.65254e+06 0 -1.98125e+06 6.65522e+06 0 -1.94181e+06 6.65733e+06 0 -1.90248e+06 6.6589e+06 0 -1.86328e+06 6.65992e+06 0 -1.82421e+06 6.66039e+06 0 -1.78528e+06 6.66031e+06 0 -1.7465e+06 6.65968e+06 0 -1.70788e+06 6.65851e+06 0 -1.66944e+06 6.6568e+06 0 -1.63118e+06 6.65454e+06 0 -1.59312e+06 6.65175e+06 0 -1.55525e+06 6.64842e+06 0 -1.5176e+06 6.64456e+06 0 -1.48017e+06 6.64017e+06 0 -1.44297e+06 6.63524e+06 0 -1.40602e+06 6.62979e+06 0 -1.36932e+06 6.62381e+06 0 -1.33288e+06 6.61731e+06 0 -1.29672e+06 6.61029e+06 0 -1.26084e+06 6.60275e+06 0 -1.22526e+06 6.5947e+06 0 -1.18999e+06 6.58614e+06 0 -1.15503e+06 6.57706e+06 0 -1.1204e+06 6.56748e+06 0 -1.08612e+06 6.55739e+06 0 -1.05219e+06 6.5468e+06 0 -1.01864e+06 6.53571e+06 0 -985460 6.52412e+06 0 -952683 6.51204e+06 0 -920319 6.49948e+06 0 -888386 6.48643e+06 0 -856901 6.4729e+06 0 -825881 6.45891e+06 0 -795348 6.44445e+06 0 -765319 6.42953e+06 0 -735816 6.41417e+06 0 -706859 6.39838e+06 0 -678470 6.38217e+06 0 -650673 6.36555e+06 0 -623494 6.34854e+06 0 -596969 6.33117e+06 0 -571149 6.31349e+06 0 -546119 6.2956e+06 0 -522019 6.27772e+06 0 -499110 6.2603e+06 0 -4.62798e+06 4.68193e+06 0 -4.60951e+06 4.71745e+06 0 -4.5906e+06 4.75284e+06 0 -4.57123e+06 4.78809e+06 0 -4.55142e+06 4.82319e+06 0 -4.53116e+06 4.85814e+06 0 -4.51046e+06 4.89292e+06 0 -4.48931e+06 4.92752e+06 0 -4.46772e+06 4.96195e+06 0 -4.44569e+06 4.99618e+06 0 -4.42322e+06 5.03021e+06 0 -4.40032e+06 5.06403e+06 0 -4.37698e+06 5.09764e+06 0 -4.35322e+06 5.13103e+06 0 -4.32902e+06 5.16418e+06 0 -4.3044e+06 5.19709e+06 0 -4.27935e+06 5.22974e+06 0 -4.25389e+06 5.26215e+06 0 -4.22801e+06 5.29428e+06 0 -4.20172e+06 5.32614e+06 0 -4.17502e+06 5.35772e+06 0 -4.14792e+06 5.389e+06 0 -4.12041e+06 5.41999e+06 0 -4.09252e+06 5.45067e+06 0 -4.06423e+06 5.48103e+06 0 -4.03556e+06 5.51107e+06 0 -4.0065e+06 5.54078e+06 0 -3.97708e+06 5.57015e+06 0 -3.94728e+06 5.59918e+06 0 -3.91712e+06 5.62785e+06 0 -3.8866e+06 5.65616e+06 0 -3.85572e+06 5.6841e+06 0 -3.8245e+06 5.71166e+06 0 -3.79294e+06 5.73884e+06 0 -3.76105e+06 5.76563e+06 0 -3.72883e+06 5.79202e+06 0 -3.69629e+06 5.818e+06 0 -3.66344e+06 5.84358e+06 0 -3.63028e+06 5.86873e+06 0 -3.59682e+06 5.89347e+06 0 -3.56307e+06 5.91777e+06 0 -3.52904e+06 5.94163e+06 0 -3.49473e+06 5.96506e+06 0 -3.46015e+06 5.98803e+06 0 -3.42532e+06 6.01055e+06 0 -3.39023e+06 6.03261e+06 0 -3.3549e+06 6.05421e+06 0 -3.31933e+06 6.07533e+06 0 -3.28354e+06 6.09598e+06 0 -3.24753e+06 6.11615e+06 0 -3.21131e+06 6.13583e+06 0 -3.17489e+06 6.15502e+06 0 -3.13828e+06 6.17372e+06 0 -3.10148e+06 6.19193e+06 0 -3.06452e+06 6.20963e+06 0 -3.02739e+06 6.22682e+06 0 -2.9901e+06 6.24351e+06 0 -2.95268e+06 6.25968e+06 0 -2.91511e+06 6.27533e+06 0 -2.87743e+06 6.29047e+06 0 -2.83962e+06 6.30509e+06 0 -2.80171e+06 6.31918e+06 0 -2.76371e+06 6.33274e+06 0 -2.72561e+06 6.34577e+06 0 -2.68745e+06 6.35828e+06 0 -2.64921e+06 6.37025e+06 0 -2.61092e+06 6.38169e+06 0 -2.57258e+06 6.39259e+06 0 -2.53421e+06 6.40295e+06 0 -2.49581e+06 6.41278e+06 0 -2.4574e+06 6.42206e+06 0 -2.41898e+06 6.43081e+06 0 -2.38057e+06 6.43902e+06 0 -2.34217e+06 6.44668e+06 0 -2.30379e+06 6.45381e+06 0 -2.26545e+06 6.4604e+06 0 -2.22716e+06 6.46645e+06 0 -2.18892e+06 6.47196e+06 0 -2.15075e+06 6.47693e+06 0 -2.11266e+06 6.48136e+06 0 -2.07465e+06 6.48526e+06 0 -2.03674e+06 6.48862e+06 0 -1.99894e+06 6.49145e+06 0 -1.96125e+06 6.49375e+06 0 -1.92369e+06 6.49551e+06 0 -1.88627e+06 6.49675e+06 0 -1.849e+06 6.49747e+06 0 -1.81188e+06 6.49766e+06 0 -1.77494e+06 6.49734e+06 0 -1.73817e+06 6.49649e+06 0 -1.70159e+06 6.49513e+06 0 -1.6652e+06 6.49326e+06 0 -1.62903e+06 6.49088e+06 0 -1.59307e+06 6.48799e+06 0 -1.55735e+06 6.48461e+06 0 -1.52186e+06 6.48072e+06 0 -1.48662e+06 6.47635e+06 0 -1.45164e+06 6.47148e+06 0 -1.41693e+06 6.46612e+06 0 -1.38249e+06 6.46029e+06 0 -1.34835e+06 6.45398e+06 0 -1.31451e+06 6.44719e+06 0 -1.28098e+06 6.43994e+06 0 -1.24777e+06 6.43222e+06 0 -1.21489e+06 6.42405e+06 0 -1.18235e+06 6.41543e+06 0 -1.15017e+06 6.40636e+06 0 -1.11836e+06 6.39685e+06 0 -1.08692e+06 6.38691e+06 0 -1.05588e+06 6.37655e+06 0 -1.02523e+06 6.36576e+06 0 -995001 6.35457e+06 0 -965197 6.34297e+06 0 -935833 6.33099e+06 0 -906921 6.31862e+06 0 -878475 6.30588e+06 0 -850508 6.29279e+06 0 -823032 6.27935e+06 0 -796061 6.26559e+06 0 -769608 6.25152e+06 0 -743684 6.23715e+06 0 -718300 6.22251e+06 0 -693466 6.20762e+06 0 -669185 6.1925e+06 0 -645451 6.17716e+06 0 -622241 6.16161e+06 0 -599498 6.14577e+06 0 -577094 6.12947e+06 0 -4.51344e+06 4.58451e+06 0 -4.49587e+06 4.61921e+06 0 -4.47786e+06 4.65379e+06 0 -4.45939e+06 4.68824e+06 0 -4.44049e+06 4.72255e+06 0 -4.42114e+06 4.7567e+06 0 -4.40134e+06 4.79071e+06 0 -4.3811e+06 4.82454e+06 0 -4.36042e+06 4.8582e+06 0 -4.33931e+06 4.89167e+06 0 -4.31775e+06 4.92495e+06 0 -4.29577e+06 4.95803e+06 0 -4.27334e+06 4.9909e+06 0 -4.25049e+06 5.02355e+06 0 -4.22722e+06 5.05597e+06 0 -4.20352e+06 5.08816e+06 0 -4.1794e+06 5.1201e+06 0 -4.15486e+06 5.15179e+06 0 -4.12991e+06 5.18322e+06 0 -4.10455e+06 5.21437e+06 0 -4.07878e+06 5.24525e+06 0 -4.05261e+06 5.27584e+06 0 -4.02605e+06 5.30613e+06 0 -3.99909e+06 5.33612e+06 0 -3.97175e+06 5.3658e+06 0 -3.94402e+06 5.39516e+06 0 -3.91592e+06 5.42419e+06 0 -3.88744e+06 5.45288e+06 0 -3.8586e+06 5.48123e+06 0 -3.8294e+06 5.50922e+06 0 -3.79985e+06 5.53686e+06 0 -3.76995e+06 5.56413e+06 0 -3.7397e+06 5.59103e+06 0 -3.70913e+06 5.61754e+06 0 -3.67822e+06 5.64367e+06 0 -3.647e+06 5.6694e+06 0 -3.61546e+06 5.69472e+06 0 -3.58361e+06 5.71964e+06 0 -3.55147e+06 5.74414e+06 0 -3.51903e+06 5.76822e+06 0 -3.48631e+06 5.79187e+06 0 -3.45332e+06 5.81508e+06 0 -3.42006e+06 5.83785e+06 0 -3.38654e+06 5.86018e+06 0 -3.35277e+06 5.88205e+06 0 -3.31876e+06 5.90347e+06 0 -3.28451e+06 5.92442e+06 0 -3.25004e+06 5.94491e+06 0 -3.21536e+06 5.96492e+06 0 -3.18047e+06 5.98445e+06 0 -3.14538e+06 6.00351e+06 0 -3.1101e+06 6.02207e+06 0 -3.07465e+06 6.04015e+06 0 -3.03902e+06 6.05773e+06 0 -3.00324e+06 6.07481e+06 0 -2.96731e+06 6.0914e+06 0 -2.93124e+06 6.10747e+06 0 -2.89504e+06 6.12304e+06 0 -2.85872e+06 6.1381e+06 0 -2.82228e+06 6.15265e+06 0 -2.78575e+06 6.16668e+06 0 -2.74913e+06 6.18019e+06 0 -2.71243e+06 6.19319e+06 0 -2.67566e+06 6.20566e+06 0 -2.63883e+06 6.21761e+06 0 -2.60195e+06 6.22904e+06 0 -2.56504e+06 6.23994e+06 0 -2.52809e+06 6.25032e+06 0 -2.49113e+06 6.26016e+06 0 -2.45416e+06 6.26949e+06 0 -2.4172e+06 6.27828e+06 0 -2.38024e+06 6.28655e+06 0 -2.34332e+06 6.29429e+06 0 -2.30642e+06 6.30151e+06 0 -2.26957e+06 6.3082e+06 0 -2.23278e+06 6.31437e+06 0 -2.19605e+06 6.32001e+06 0 -2.1594e+06 6.32513e+06 0 -2.12283e+06 6.32974e+06 0 -2.08636e+06 6.33382e+06 0 -2.05e+06 6.33739e+06 0 -2.01376e+06 6.34044e+06 0 -1.97764e+06 6.34298e+06 0 -1.94166e+06 6.34501e+06 0 -1.90582e+06 6.34654e+06 0 -1.87015e+06 6.34756e+06 0 -1.83464e+06 6.34809e+06 0 -1.79931e+06 6.34811e+06 0 -1.76417e+06 6.34765e+06 0 -1.72923e+06 6.34669e+06 0 -1.69449e+06 6.34526e+06 0 -1.65998e+06 6.34334e+06 0 -1.62569e+06 6.34094e+06 0 -1.59163e+06 6.33807e+06 0 -1.55783e+06 6.33474e+06 0 -1.52428e+06 6.33094e+06 0 -1.49099e+06 6.32669e+06 0 -1.45799e+06 6.32199e+06 0 -1.42527e+06 6.31684e+06 0 -1.39284e+06 6.31126e+06 0 -1.36072e+06 6.30524e+06 0 -1.32891e+06 6.29879e+06 0 -1.29743e+06 6.29193e+06 0 -1.26629e+06 6.28465e+06 0 -1.23548e+06 6.27697e+06 0 -1.20503e+06 6.26889e+06 0 -1.17494e+06 6.26042e+06 0 -1.14523e+06 6.25157e+06 0 -1.1159e+06 6.24235e+06 0 -1.08695e+06 6.23276e+06 0 -1.05841e+06 6.22283e+06 0 -1.03028e+06 6.21255e+06 0 -1.00257e+06 6.20194e+06 0 -975287 6.191e+06 0 -948440 6.17976e+06 0 -922038 6.16823e+06 0 -896089 6.15641e+06 0 -870600 6.14432e+06 0 -845579 6.13198e+06 0 -821030 6.1194e+06 0 -796960 6.1066e+06 0 -773372 6.09358e+06 0 -750272 6.08037e+06 0 -727663 6.06698e+06 0 -705553 6.05343e+06 0 -683956 6.03974e+06 0 -662901 6.02598e+06 0 -642456 6.01225e+06 0 -4.40475e+06 4.49407e+06 0 -4.38802e+06 4.52798e+06 0 -4.37084e+06 4.56178e+06 0 -4.35322e+06 4.59545e+06 0 -4.33516e+06 4.62899e+06 0 -4.31666e+06 4.66239e+06 0 -4.29771e+06 4.69564e+06 0 -4.27832e+06 4.72873e+06 0 -4.2585e+06 4.76165e+06 0 -4.23824e+06 4.79439e+06 0 -4.21754e+06 4.82695e+06 0 -4.19641e+06 4.85931e+06 0 -4.17485e+06 4.89146e+06 0 -4.15287e+06 4.92341e+06 0 -4.13046e+06 4.95513e+06 0 -4.10763e+06 4.98662e+06 0 -4.08438e+06 5.01787e+06 0 -4.06071e+06 5.04888e+06 0 -4.03664e+06 5.07963e+06 0 -4.01215e+06 5.11011e+06 0 -3.98727e+06 5.14031e+06 0 -3.96199e+06 5.17024e+06 0 -3.93631e+06 5.19987e+06 0 -3.91024e+06 5.2292e+06 0 -3.88379e+06 5.25823e+06 0 -3.85697e+06 5.28693e+06 0 -3.82977e+06 5.31532e+06 0 -3.8022e+06 5.34337e+06 0 -3.77427e+06 5.37107e+06 0 -3.74598e+06 5.39843e+06 0 -3.71735e+06 5.42544e+06 0 -3.68837e+06 5.45208e+06 0 -3.65906e+06 5.47834e+06 0 -3.62942e+06 5.50423e+06 0 -3.59945e+06 5.52974e+06 0 -3.56917e+06 5.55485e+06 0 -3.53859e+06 5.57956e+06 0 -3.5077e+06 5.60386e+06 0 -3.47652e+06 5.62775e+06 0 -3.44506e+06 5.65122e+06 0 -3.41333e+06 5.67426e+06 0 -3.38132e+06 5.69687e+06 0 -3.34906e+06 5.71905e+06 0 -3.31654e+06 5.74077e+06 0 -3.28379e+06 5.76205e+06 0 -3.2508e+06 5.78288e+06 0 -3.21759e+06 5.80325e+06 0 -3.18416e+06 5.82315e+06 0 -3.15053e+06 5.84258e+06 0 -3.11671e+06 5.86154e+06 0 -3.08269e+06 5.88002e+06 0 -3.0485e+06 5.89802e+06 0 -3.01415e+06 5.91553e+06 0 -2.97963e+06 5.93256e+06 0 -2.94497e+06 5.94909e+06 0 -2.91018e+06 5.96512e+06 0 -2.87525e+06 5.98066e+06 0 -2.84021e+06 5.9957e+06 0 -2.80506e+06 6.01023e+06 0 -2.76982e+06 6.02426e+06 0 -2.73449e+06 6.03777e+06 0 -2.69909e+06 6.05078e+06 0 -2.66361e+06 6.06328e+06 0 -2.62809e+06 6.07527e+06 0 -2.59252e+06 6.08674e+06 0 -2.55692e+06 6.0977e+06 0 -2.52129e+06 6.10814e+06 0 -2.48565e+06 6.11807e+06 0 -2.45001e+06 6.12748e+06 0 -2.41438e+06 6.13638e+06 0 -2.37877e+06 6.14477e+06 0 -2.34319e+06 6.15264e+06 0 -2.30764e+06 6.16e+06 0 -2.27215e+06 6.16685e+06 0 -2.23672e+06 6.17319e+06 0 -2.20136e+06 6.17902e+06 0 -2.16609e+06 6.18435e+06 0 -2.1309e+06 6.18917e+06 0 -2.09582e+06 6.19349e+06 0 -2.06085e+06 6.19731e+06 0 -2.026e+06 6.20063e+06 0 -1.99129e+06 6.20346e+06 0 -1.95672e+06 6.2058e+06 0 -1.92231e+06 6.20765e+06 0 -1.88806e+06 6.20902e+06 0 -1.85398e+06 6.20992e+06 0 -1.82008e+06 6.21033e+06 0 -1.78638e+06 6.21028e+06 0 -1.75288e+06 6.20976e+06 0 -1.71959e+06 6.20878e+06 0 -1.68653e+06 6.20735e+06 0 -1.65369e+06 6.20546e+06 0 -1.6211e+06 6.20313e+06 0 -1.58875e+06 6.20036e+06 0 -1.55667e+06 6.19716e+06 0 -1.52485e+06 6.19353e+06 0 -1.49331e+06 6.18948e+06 0 -1.46206e+06 6.18502e+06 0 -1.4311e+06 6.18014e+06 0 -1.40044e+06 6.17487e+06 0 -1.3701e+06 6.16921e+06 0 -1.34007e+06 6.16316e+06 0 -1.31038e+06 6.15674e+06 0 -1.28102e+06 6.14994e+06 0 -1.25201e+06 6.14279e+06 0 -1.22335e+06 6.13529e+06 0 -1.19505e+06 6.12744e+06 0 -1.16712e+06 6.11926e+06 0 -1.13957e+06 6.11076e+06 0 -1.1124e+06 6.10195e+06 0 -1.08561e+06 6.09283e+06 0 -1.05923e+06 6.08343e+06 0 -1.03325e+06 6.07375e+06 0 -1.00767e+06 6.0638e+06 0 -982511 6.05359e+06 0 -957769 6.04314e+06 0 -933451 6.03246e+06 0 -909561 6.02156e+06 0 -886101 6.01046e+06 0 -863076 5.99917e+06 0 -840488 5.9877e+06 0 -818339 5.97606e+06 0 -796630 5.96428e+06 0 -775360 5.95237e+06 0 -754529 5.94033e+06 0 -734129 5.92819e+06 0 -714146 5.91593e+06 0 -694542 5.90353e+06 0 -4.30152e+06 4.40994e+06 0 -4.28557e+06 4.44309e+06 0 -4.26917e+06 4.47613e+06 0 -4.25234e+06 4.50905e+06 0 -4.23506e+06 4.54185e+06 0 -4.21735e+06 4.57452e+06 0 -4.19919e+06 4.60704e+06 0 -4.1806e+06 4.63941e+06 0 -4.16158e+06 4.67161e+06 0 -4.14212e+06 4.70365e+06 0 -4.12222e+06 4.73551e+06 0 -4.1019e+06 4.76718e+06 0 -4.08116e+06 4.79865e+06 0 -4.05998e+06 4.82991e+06 0 -4.03839e+06 4.86096e+06 0 -4.01638e+06 4.89179e+06 0 -3.99395e+06 4.92238e+06 0 -3.97111e+06 4.95272e+06 0 -3.94786e+06 4.98282e+06 0 -3.92421e+06 5.01265e+06 0 -3.90016e+06 5.04222e+06 0 -3.87571e+06 5.07151e+06 0 -3.85088e+06 5.10051e+06 0 -3.82566e+06 5.12921e+06 0 -3.80006e+06 5.15761e+06 0 -3.77408e+06 5.1857e+06 0 -3.74774e+06 5.21347e+06 0 -3.72103e+06 5.24091e+06 0 -3.69396e+06 5.26801e+06 0 -3.66655e+06 5.29477e+06 0 -3.63879e+06 5.32117e+06 0 -3.61069e+06 5.34722e+06 0 -3.58226e+06 5.37289e+06 0 -3.55351e+06 5.39819e+06 0 -3.52444e+06 5.42311e+06 0 -3.49506e+06 5.44764e+06 0 -3.46538e+06 5.47177e+06 0 -3.43541e+06 5.4955e+06 0 -3.40515e+06 5.51882e+06 0 -3.37462e+06 5.54173e+06 0 -3.34382e+06 5.56421e+06 0 -3.31275e+06 5.58626e+06 0 -3.28144e+06 5.60788e+06 0 -3.24988e+06 5.62906e+06 0 -3.21809e+06 5.64979e+06 0 -3.18608e+06 5.67007e+06 0 -3.15385e+06 5.6899e+06 0 -3.12142e+06 5.70927e+06 0 -3.08879e+06 5.72817e+06 0 -3.05597e+06 5.74661e+06 0 -3.02298e+06 5.76457e+06 0 -2.98982e+06 5.78205e+06 0 -2.95651e+06 5.79906e+06 0 -2.92305e+06 5.81558e+06 0 -2.88945e+06 5.83162e+06 0 -2.85573e+06 5.84716e+06 0 -2.82189e+06 5.86222e+06 0 -2.78794e+06 5.87678e+06 0 -2.75391e+06 5.89084e+06 0 -2.71978e+06 5.90441e+06 0 -2.68559e+06 5.91748e+06 0 -2.65133e+06 5.93004e+06 0 -2.61702e+06 5.94211e+06 0 -2.58266e+06 5.95367e+06 0 -2.54828e+06 5.96473e+06 0 -2.51387e+06 5.97528e+06 0 -2.47946e+06 5.98534e+06 0 -2.44504e+06 5.99489e+06 0 -2.41064e+06 6.00393e+06 0 -2.37626e+06 6.01248e+06 0 -2.34191e+06 6.02052e+06 0 -2.3076e+06 6.02807e+06 0 -2.27335e+06 6.03511e+06 0 -2.23917e+06 6.04166e+06 0 -2.20505e+06 6.04772e+06 0 -2.17103e+06 6.05329e+06 0 -2.13709e+06 6.05836e+06 0 -2.10327e+06 6.06295e+06 0 -2.06956e+06 6.06706e+06 0 -2.03597e+06 6.07068e+06 0 -2.00253e+06 6.07383e+06 0 -1.96922e+06 6.07651e+06 0 -1.93608e+06 6.07872e+06 0 -1.9031e+06 6.08046e+06 0 -1.87029e+06 6.08174e+06 0 -1.83767e+06 6.08257e+06 0 -1.80524e+06 6.08295e+06 0 -1.77302e+06 6.08288e+06 0 -1.74101e+06 6.08237e+06 0 -1.70923e+06 6.08143e+06 0 -1.67767e+06 6.08006e+06 0 -1.64635e+06 6.07827e+06 0 -1.61528e+06 6.07606e+06 0 -1.58447e+06 6.07344e+06 0 -1.55393e+06 6.07042e+06 0 -1.52366e+06 6.06701e+06 0 -1.49367e+06 6.0632e+06 0 -1.46397e+06 6.05902e+06 0 -1.43457e+06 6.05446e+06 0 -1.40547e+06 6.04954e+06 0 -1.37669e+06 6.04426e+06 0 -1.34823e+06 6.03863e+06 0 -1.32009e+06 6.03266e+06 0 -1.29229e+06 6.02637e+06 0 -1.26483e+06 6.01975e+06 0 -1.23771e+06 6.01282e+06 0 -1.21095e+06 6.00558e+06 0 -1.18455e+06 5.99805e+06 0 -1.15851e+06 5.99025e+06 0 -1.13284e+06 5.98217e+06 0 -1.10755e+06 5.97382e+06 0 -1.08264e+06 5.96523e+06 0 -1.0581e