<?xml version="1.0"?> 
<VTKFile type="StructuredGrid" version="0.1"> 
<StructuredGrid WholeExtent="0 127 0 127 0 0"> 
<Piece Extent="0 127 0 127 0 0"> 
<PointData>
<DataArray type="Float32" Name="|E|" format="ascii" NumberOfComponents="3"> 
-2.08106e+06 166850 0 -2.08445e+06 171947 0 -2.08794e+06 177065 0 -2.09154e+06 182207 0 -2.09524e+06 187372 0 -2.09903e+06 192562 0 -2.10293e+06 197778 0 -2.10694e+06 203021 0 -2.11104e+06 208290 0 -2.11525e+06 213588 0 -2.11957e+06 218915 0 -2.12398e+06 224271 0 -2.12851e+06 229658 0 -2.13313e+06 235077 0 -2.13787e+06 240529 0 -2.1427e+06 246014 0 -2.14765e+06 251534 0 -2.1527e+06 257089 0 -2.15786e+06 262681 0 -2.16313e+06 268311 0 -2.1685e+06 273979 0 -2.17399e+06 279688 0 -2.17958e+06 285437 0 -2.18529e+06 291228 0 -2.19111e+06 297063 0 -2.19704e+06 302942 0 -2.20308e+06 308866 0 -2.20923e+06 314838 0 -2.2155e+06 320858 0 -2.22188e+06 326928 0 -2.22838e+06 333048 0 -2.235e+06 339221 0 -2.24173e+06 345448 0 -2.24858e+06 351730 0 -2.25555e+06 358069 0 -2.26264e+06 364466 0 -2.26985e+06 370923 0 -2.27718e+06 377441 0 -2.28464e+06 384023 0 -2.29222e+06 390670 0 -2.29992e+06 397384 0 -2.30776e+06 404166 0 -2.31572e+06 411019 0 -2.32381e+06 417945 0 -2.33203e+06 424945 0 -2.34038e+06 432022 0 -2.34887e+06 439177 0 -2.35749e+06 446414 0 -2.36625e+06 453734 0 -2.37514e+06 461141 0 -2.38418e+06 468635 0 -2.39336e+06 476220 0 -2.40269e+06 483899 0 -2.41216e+06 491675 0 -2.42179e+06 499549 0 -2.43156e+06 507526 0 -2.44149e+06 515608 0 -2.45157e+06 523799 0 -2.46182e+06 532102 0 -2.47223e+06 540521 0 -2.4828e+06 549058 0 -2.49354e+06 557719 0 -2.50446e+06 566507 0 -2.51555e+06 575426 0 -2.52683e+06 584481 0 -2.53829e+06 593676 0 -2.54994e+06 603017 0 -2.56178e+06 612508 0 -2.57383e+06 622154 0 -2.58608e+06 631962 0 -2.59854e+06 641938 0 -2.61123e+06 652087 0 -2.62414e+06 662416 0 -2.63728e+06 672933 0 -2.65066e+06 683644 0 -2.6643e+06 694559 0 -2.67819e+06 705685 0 -2.69236e+06 717031 0 -2.7068e+06 728607 0 -2.72154e+06 740423 0 -2.73659e+06 752491 0 -2.75195e+06 764822 0 -2.76765e+06 777428 0 -2.7837e+06 790324 0 -2.80012e+06 803523 0 -2.81693e+06 817043 0 -2.83416e+06 830899 0 -2.85181e+06 845112 0 -2.86993e+06 859699 0 -2.88853e+06 874685 0 -2.90765e+06 890092 0 -2.92733e+06 905947 0 -2.9476e+06 922279 0 -2.9685e+06 939119 0 -2.99008e+06 956502 0 -3.0124e+06 974467 0 -3.0355e+06 993056 0 -3.05946e+06 1.01232e+06 0 -3.08435e+06 1.0323e+06 0 -3.11025e+06 1.05307e+06 0 -3.13725e+06 1.07469e+06 0 -3.16546e+06 1.09723e+06 0 -3.195e+06 1.12079e+06 0 -3.22601e+06 1.14545e+06 0 -3.25863e+06 1.17133e+06 0 -3.29307e+06 1.19856e+06 0 -3.32953e+06 1.22727e+06 0 -3.36825e+06 1.25765e+06 0 -3.40955e+06 1.28989e+06 0 -3.45375e+06 1.32424e+06 0 -3.5013e+06 1.36096e+06 0 -3.55268e+06 1.40041e+06 0 -3.60854e+06 1.44298e+06 0 -3.66963e+06 1.4892e+06 0 -3.73693e+06 1.53967e+06 0 -3.81168e+06 1.59523e+06 0 -3.89549e+06 1.65682e+06 0 -3.99049e+06 1.72593e+06 0 -4.09965e+06 1.80424e+06 0 -4.22706e+06 1.89367e+06 0 -4.37828e+06 2.00136e+06 0 -4.5652e+06 2.12227e+06 0 -4.79503e+06 2.27603e+06 0 -5.10382e+06 2.54345e+06 0 -5.57936e+06 2.41388e+06 0 -6.11812e+06 4.40627e+06 0 -7.77398e+06 -1.49555e+06 0 -1.47242e+07 3.80896e+07 0 -2.08179e+06 170590 0 -2.08523e+06 175717 0 -2.08877e+06 180866 0 -2.09241e+06 186039 0 -2.09616e+06 191237 0 -2.10001e+06 196460 0 -2.10395e+06 201709 0 -2.108e+06 206984 0 -2.11216e+06 212288 0 -2.11641e+06 217620 0 -2.12077e+06 222982 0 -2.12524e+06 228374 0 -2.1298e+06 233797 0 -2.13448e+06 239253 0 -2.13925e+06 244742 0 -2.14414e+06 250265 0 -2.14913e+06 255823 0 -2.15422e+06 261417 0 -2.15943e+06 267049 0 -2.16474e+06 272719 0 -2.17016e+06 278428 0 -2.17569e+06 284178 0 -2.18133e+06 289969 0 -2.18708e+06 295804 0 -2.19294e+06 301682 0 -2.19891e+06 307605 0 -2.205e+06 313575 0 -2.21119e+06 319593 0 -2.21751e+06 325660 0 -2.22393e+06 331777 0 -2.23047e+06 337946 0 -2.23713e+06 344168 0 -2.2439e+06 350444 0 -2.2508e+06 356777 0 -2.25781e+06 363168 0 -2.26494e+06 369618 0 -2.27219e+06 376128 0 -2.27957e+06 382702 0 -2.28706e+06 389339 0 -2.29468e+06 396043 0 -2.30243e+06 402815 0 -2.31031e+06 409656 0 -2.31831e+06 416570 0 -2.32644e+06 423557 0 -2.3347e+06 430620 0 -2.34309e+06 437761 0 -2.35162e+06 444982 0 -2.36028e+06 452285 0 -2.36908e+06 459674 0 -2.37802e+06 467150 0 -2.3871e+06 474716 0 -2.39632e+06 482374 0 -2.40569e+06 490128 0 -2.4152e+06 497979 0 -2.42487e+06 505932 0 -2.43468e+06 513989 0 -2.44465e+06 522154 0 -2.45478e+06 530429 0 -2.46507e+06 538819 0 -2.47552e+06 547326 0 -2.48613e+06 555955 0 -2.49692e+06 564710 0 -2.50788e+06 573595 0 -2.51902e+06 582613 0 -2.53034e+06 591771 0 -2.54185e+06 601072 0 -2.55354e+06 610521 0 -2.56543e+06 620125 0 -2.57753e+06 629887 0 -2.58983e+06 639815 0 -2.60235e+06 649915 0 -2.61508e+06 660193 0 -2.62804e+06 670656 0 -2.64124e+06 681311 0 -2.65468e+06 692167 0 -2.66838e+06 703231 0 -2.68233e+06 714513 0 -2.69656e+06 726022 0 -2.71107e+06 737768 0 -2.72588e+06 749762 0 -2.74099e+06 762016 0 -2.75643e+06 774541 0 -2.77221e+06 787351 0 -2.78834e+06 800462 0 -2.80485e+06 813887 0 -2.82175e+06 827645 0 -2.83907e+06 841753 0 -2.85683e+06 856231 0 -2.87505e+06 871100 0 -2.89377e+06 886385 0 -2.91302e+06 902110 0 -2.93283e+06 918305 0 -2.95324e+06 934998 0 -2.9743e+06 952226 0 -2.99605e+06 970025 0 -3.01855e+06 988437 0 -3.04185e+06 1.00751e+06 0 -3.06602e+06 1.02729e+06 0 -3.09115e+06 1.04784e+06 0 -3.1173e+06 1.06922e+06 0 -3.14459e+06 1.09151e+06 0 -3.17311e+06 1.11479e+06 0 -3.203e+06 1.13915e+06 0 -3.23439e+06 1.1647e+06 0 -3.26744e+06 1.19156e+06 0 -3.30236e+06 1.21988e+06 0 -3.33936e+06 1.24981e+06 0 -3.3787e+06 1.28156e+06 0 -3.42069e+06 1.31535e+06 0 -3.4657e+06 1.35146e+06 0 -3.51417e+06 1.3902e+06 0 -3.56663e+06 1.43197e+06 0 -3.62375e+06 1.47725e+06 0 -3.68633e+06 1.52665e+06 0 -3.75542e+06 1.58092e+06 0 -3.83235e+06 1.64101e+06 0 -3.91882e+06 1.70823e+06 0 -4.01718e+06 1.78425e+06 0 -4.13084e+06 1.87122e+06 0 -4.26307e+06 1.97366e+06 0 -4.42395e+06 2.0925e+06 0 -4.62094e+06 2.24301e+06 0 -4.85262e+06 2.44553e+06 0 -5.26285e+06 2.58946e+06 0 -5.57905e+06 3.42558e+06 0 -6.52076e+06 2.50011e+06 0 -9.01663e+06 8.89747e+06 0 -3.31961e+06 1.3939e+07 0 -2.08254e+06 174364 0 -2.08603e+06 179521 0 -2.08962e+06 184702 0 -2.09331e+06 189906 0 -2.0971e+06 195136 0 -2.101e+06 200392 0 -2.10499e+06 205674 0 -2.10909e+06 210983 0 -2.11329e+06 216321 0 -2.11759e+06 221688 0 -2.122e+06 227085 0 -2.12651e+06 232512 0 -2.13112e+06 237972 0 -2.13584e+06 243465 0 -2.14066e+06 248991 0 -2.14559e+06 254552 0 -2.15062e+06 260149 0 -2.15577e+06 265783 0 -2.16101e+06 271455 0 -2.16637e+06 277165 0 -2.17184e+06 282916 0 -2.17741e+06 288707 0 -2.18309e+06 294542 0 -2.18888e+06 300419 0 -2.19479e+06 306341 0 -2.2008e+06 312310 0 -2.20693e+06 318325 0 -2.21317e+06 324389 0 -2.21952e+06 330503 0 -2.22599e+06 336668 0 -2.23258e+06 342885 0 -2.23928e+06 349157 0 -2.24609e+06 355484 0 -2.25303e+06 361868 0 -2.26008e+06 368311 0 -2.26725e+06 374814 0 -2.27455e+06 381379 0 -2.28196e+06 388008 0 -2.2895e+06 394702 0 -2.29716e+06 401463 0 -2.30495e+06 408293 0 -2.31286e+06 415195 0 -2.32091e+06 422169 0 -2.32908e+06 429218 0 -2.33738e+06 436344 0 -2.34581e+06 443550 0 -2.35438e+06 450837 0 -2.36309e+06 458209 0 -2.37193e+06 465666 0 -2.38091e+06 473213 0 -2.39003e+06 480851 0 -2.39929e+06 488583 0 -2.4087e+06 496412 0 -2.41825e+06 504342 0 -2.42796e+06 512374 0 -2.43781e+06 520512 0 -2.44782e+06 528760 0 -2.45799e+06 537121 0 -2.46832e+06 545599 0 -2.47881e+06 554196 0 -2.48947e+06 562918 0 -2.5003e+06 571768 0 -2.51131e+06 580751 0 -2.52249e+06 589871 0 -2.53385e+06 599132 0 -2.5454e+06 608541 0 -2.55715e+06 618101 0 -2.56909e+06 627819 0 -2.58123e+06 637700 0 -2.59358e+06 647751 0 -2.60615e+06 657977 0 -2.61893e+06 668387 0 -2.63195e+06 678986 0 -2.6452e+06 689783 0 -2.6587e+06 700786 0 -2.67245e+06 712004 0 -2.68646e+06 723445 0 -2.70075e+06 735121 0 -2.71533e+06 747041 0 -2.7302e+06 759217 0 -2.74539e+06 771661 0 -2.7609e+06 784386 0 -2.77676e+06 797407 0 -2.79297e+06 810738 0 -2.80956e+06 824396 0 -2.82656e+06 838400 0 -2.84397e+06 852767 0 -2.86183e+06 867520 0 -2.88016e+06 882681 0 -2.899e+06 898275 0 -2.91837e+06 914330 0 -2.93832e+06 930876 0 -2.95887e+06 947946 0 -2.98008e+06 965577 0 -3.002e+06 983809 0 -3.02468e+06 1.00269e+06 0 -3.04818e+06 1.02226e+06 0 -3.07256e+06 1.04259e+06 0 -3.09792e+06 1.06373e+06 0 -3.12433e+06 1.08576e+06 0 -3.1519e+06 1.10875e+06 0 -3.18073e+06 1.1328e+06 0 -3.21096e+06 1.15801e+06 0 -3.24273e+06 1.1845e+06 0 -3.27621e+06 1.2124e+06 0 -3.31161e+06 1.24188e+06 0 -3.34915e+06 1.27312e+06 0 -3.3891e+06 1.30633e+06 0 -3.43178e+06 1.34178e+06 0 -3.47758e+06 1.37978e+06 0 -3.52696e+06 1.4207e+06 0 -3.58049e+06 1.465e+06 0 -3.63885e+06 1.51324e+06 0 -3.70291e+06 1.56613e+06 0 -3.77377e+06 1.62457e+06 0 -3.85282e+06 1.68976e+06 0 -3.94188e+06 1.76326e+06 0 -4.04375e+06 1.84703e+06 0 -4.16092e+06 1.94499e+06 0 -4.29947e+06 2.05887e+06 0 -4.46994e+06 2.19912e+06 0 -4.66047e+06 2.3878e+06 0 -4.96207e+06 2.54729e+06 0 -5.29294e+06 3.12044e+06 0 -5.6736e+06 3.05283e+06 0 -7.24999e+06 5.11404e+06 0 -6.19984e+06 9.74226e+06 0 -852462 7.37276e+06 0 -2.08331e+06 178171 0 -2.08685e+06 183359 0 -2.09049e+06 188571 0 -2.09423e+06 193808 0 -2.09807e+06 199070 0 -2.10201e+06 204358 0 -2.10605e+06 209674 0 -2.11019e+06 215017 0 -2.11444e+06 220389 0 -2.11879e+06 225791 0 -2.12324e+06 231224 0 -2.12779e+06 236688 0 -2.13245e+06 242184 0 -2.13722e+06 247714 0 -2.14209e+06 253278 0 -2.14706e+06 258877 0 -2.15214e+06 264513 0 -2.15732e+06 270187 0 -2.16262e+06 275899 0 -2.16802e+06 281650 0 -2.17353e+06 287442 0 -2.17914e+06 293276 0 -2.18487e+06 299153 0 -2.19071e+06 305074 0 -2.19665e+06 311041 0 -2.20271e+06 317054 0 -2.20888e+06 323116 0 -2.21516e+06 329226 0 -2.22156e+06 335388 0 -2.22807e+06 341601 0 -2.23469e+06 347868 0 -2.24144e+06 354189 0 -2.24829e+06 360567 0 -2.25527e+06 367003 0 -2.26236e+06 373499 0 -2.26958e+06 380056 0 -2.27691e+06 386676 0 -2.28437e+06 393360 0 -2.29195e+06 400111 0 -2.29965e+06 406930 0 -2.30748e+06 413820 0 -2.31543e+06 420781 0 -2.32352e+06 427817 0 -2.33173e+06 434929 0 -2.34007e+06 442119 0 -2.34855e+06 449391 0 -2.35715e+06 456745 0 -2.3659e+06 464184 0 -2.37478e+06 471712 0 -2.3838e+06 479330 0 -2.39296e+06 487041 0 -2.40226e+06 494848 0 -2.41171e+06 502754 0 -2.4213e+06 510762 0 -2.43105e+06 518874 0 -2.44095e+06 527095 0 -2.451e+06 535428 0 -2.46121e+06 543875 0 -2.47158e+06 552442 0 -2.48211e+06 561131 0 -2.49282e+06 569947 0 -2.50369e+06 578894 0 -2.51473e+06 587977 0 -2.52596e+06 597199 0 -2.53737e+06 606567 0 -2.54897e+06 616085 0 -2.56075e+06 625758 0 -2.57274e+06 635592 0 -2.58493e+06 645594 0 -2.59733e+06 655770 0 -2.60994e+06 666126 0 -2.62278e+06 676669 0 -2.63585e+06 687408 0 -2.64916e+06 698350 0 -2.66271e+06 709503 0 -2.67652e+06 720878 0 -2.69059e+06 732483 0 -2.70494e+06 744329 0 -2.71958e+06 756428 0 -2.73452e+06 768791 0 -2.74978e+06 781431 0 -2.76537e+06 794362 0 -2.7813e+06 807598 0 -2.79759e+06 821157 0 -2.81427e+06 835055 0 -2.83135e+06 849311 0 -2.84886e+06 863947 0 -2.86682e+06 878983 0 -2.88526e+06 894446 0 -2.90422e+06 910361 0 -2.92371e+06 926758 0 -2.94379e+06 943669 0 -2.96448e+06 961130 0 -2.98585e+06 979180 0 -3.00793e+06 997864 0 -3.03078e+06 1.01723e+06 0 -3.05448e+06 1.03733e+06 0 -3.07908e+06 1.05823e+06 0 -3.10466e+06 1.07999e+06 0 -3.13133e+06 1.10269e+06 0 -3.15917e+06 1.12643e+06 0 -3.18831e+06 1.15129e+06 0 -3.21888e+06 1.1774e+06 0 -3.25103e+06 1.20488e+06 0 -3.28493e+06 1.23389e+06 0 -3.32079e+06 1.2646e+06 0 -3.35886e+06 1.29723e+06 0 -3.39941e+06 1.33201e+06 0 -3.44277e+06 1.36925e+06 0 -3.48935e+06 1.40929e+06 0 -3.53963e+06 1.45256e+06 0 -3.59419e+06 1.49961e+06 0 -3.65376e+06 1.55108e+06 0 -3.71925e+06 1.60781e+06 0 -3.79182e+06 1.67089e+06 0 -3.87287e+06 1.74177e+06 0 -3.9646e+06 1.8222e+06 0 -4.06929e+06 1.91551e+06 0 -4.19014e+06 2.0242e+06 0 -4.33687e+06 2.15411e+06 0 -4.50247e+06 2.32795e+06 0 -4.72455e+06 2.49584e+06 0 -5.02479e+06 2.88524e+06 0 -5.27038e+06 3.17243e+06 0 -6.06404e+06 3.90394e+06 0 -6.49196e+06 6.80536e+06 0 -3.87407e+06 8.49707e+06 0 -727710 6.1465e+06 0 -2.08411e+06 182012 0 -2.08769e+06 187231 0 -2.09138e+06 192475 0 -2.09517e+06 197744 0 -2.09905e+06 203039 0 -2.10304e+06 208360 0 -2.10713e+06 213709 0 -2.11132e+06 219087 0 -2.11561e+06 224494 0 -2.12e+06 229931 0 -2.1245e+06 235399 0 -2.1291e+06 240899 0 -2.13381e+06 246433 0 -2.13862e+06 252000 0 -2.14353e+06 257602 0 -2.14855e+06 263240 0 -2.15367e+06 268915 0 -2.1589e+06 274629 0 -2.16424e+06 280381 0 -2.16968e+06 286174 0 -2.17523e+06 292008 0 -2.18089e+06 297884 0 -2.18666e+06 303805 0 -2.19254e+06 309770 0 -2.19853e+06 315781 0 -2.20463e+06 321840 0 -2.21084e+06 327948 0 -2.21717e+06 334105 0 -2.22361e+06 340315 0 -2.23016e+06 346577 0 -2.23683e+06 352893 0 -2.24361e+06 359265 0 -2.25051e+06 365695 0 -2.25752e+06 372183 0 -2.26466e+06 378732 0 -2.27191e+06 385343 0 -2.27929e+06 392018 0 -2.28679e+06 398759 0 -2.29441e+06 405567 0 -2.30215e+06 412445 0 -2.31002e+06 419394 0 -2.31801e+06 426417 0 -2.32614e+06 433515 0 -2.33439e+06 440690 0 -2.34277e+06 447945 0 -2.35128e+06 455283 0 -2.35993e+06 462704 0 -2.36872e+06 470213 0 -2.37764e+06 477811 0 -2.38669e+06 485502 0 -2.39589e+06 493287 0 -2.40524e+06 501169 0 -2.41473e+06 509153 0 -2.42436e+06 517240 0 -2.43415e+06 525434 0 -2.44409e+06 533739 0 -2.45418e+06 542157 0 -2.46443e+06 550693 0 -2.47484e+06 559350 0 -2.48542e+06 568132 0 -2.49616e+06 577044 0 -2.50707e+06 586089 0 -2.51816e+06 595273 0 -2.52943e+06 604600 0 -2.54089e+06 614075 0 -2.55253e+06 623704 0 -2.56436e+06 633492 0 -2.57639e+06 643446 0 -2.58863e+06 653571 0 -2.60108e+06 663873 0 -2.61374e+06 674361 0 -2.62663e+06 685042 0 -2.63975e+06 695923 0 -2.65311e+06 707013 0 -2.66671e+06 718321 0 -2.68058e+06 729856 0 -2.69471e+06 741628 0 -2.70913e+06 753650 0 -2.72383e+06 765931 0 -2.73884e+06 778486 0 -2.75416e+06 791327 0 -2.76982e+06 804469 0 -2.78583e+06 817928 0 -2.8022e+06 831721 0 -2.81896e+06 845866 0 -2.83614e+06 860384 0 -2.85374e+06 875296 0 -2.8718e+06 890626 0 -2.89035e+06 906401 0 -2.90941e+06 922648 0 -2.92903e+06 939400 0 -2.94923e+06 956690 0 -2.97007e+06 974558 0 -2.99158e+06 993045 0 -3.01383e+06 1.0122e+06 0 -3.03686e+06 1.03207e+06 0 -3.06074e+06 1.05272e+06 0 -3.08555e+06 1.07422e+06 0 -3.11137e+06 1.09663e+06 0 -3.13828e+06 1.12004e+06 0 -3.1664e+06 1.14456e+06 0 -3.19584e+06 1.17028e+06 0 -3.22674e+06 1.19733e+06 0 -3.25925e+06 1.22587e+06 0 -3.29357e+06 1.25605e+06 0 -3.32989e+06 1.28808e+06 0 -3.36847e+06 1.32218e+06 0 -3.4096e+06 1.35865e+06 0 -3.45363e+06 1.3978e+06 0 -3.50096e+06 1.44004e+06 0 -3.5521e+06 1.48587e+06 0 -3.60766e+06 1.5359e+06 0 -3.66838e+06 1.5909e+06 0 -3.73524e+06 1.65186e+06 0 -3.80937e+06 1.7201e+06 0 -3.89241e+06 1.7972e+06 0 -3.98642e+06 1.8859e+06 0 -4.09331e+06 1.98918e+06 0 -4.21983e+06 2.11036e+06 0 -4.36561e+06 2.26751e+06 0 -4.5401e+06 2.43927e+06 0 -4.78262e+06 2.71825e+06 0 -5.01027e+06 3.0817e+06 0 -5.3994e+06 3.51246e+06 0 -5.98014e+06 5.02539e+06 0 -5.15793e+06 7.22349e+06 0 -2.56398e+06 7.36475e+06 0 -927412 5.90309e+06 0 -2.08493e+06 185887 0 -2.08856e+06 191138 0 -2.09229e+06 196413 0 -2.09612e+06 201715 0 -2.10006e+06 207042 0 -2.10409e+06 212397 0 -2.10823e+06 217780 0 -2.11246e+06 223192 0 -2.1168e+06 228634 0 -2.12124e+06 234106 0 -2.12578e+06 239611 0 -2.13043e+06 245148 0 -2.13518e+06 250718 0 -2.14003e+06 256323 0 -2.14499e+06 261964 0 -2.15005e+06 267641 0 -2.15522e+06 273356 0 -2.16049e+06 279109 0 -2.16587e+06 284902 0 -2.17136e+06 290737 0 -2.17696e+06 296613 0 -2.18266e+06 302532 0 -2.18847e+06 308496 0 -2.19439e+06 314506 0 -2.20042e+06 320562 0 -2.20657e+06 326667 0 -2.21282e+06 332821 0 -2.21919e+06 339027 0 -2.22567e+06 345284 0 -2.23226e+06 351595 0 -2.23897e+06 357961 0 -2.24579e+06 364385 0 -2.25273e+06 370866 0 -2.25979e+06 377407 0 -2.26697e+06 384010 0 -2.27426e+06 390676 0 -2.28168e+06 397407 0 -2.28922e+06 404204 0 -2.29688e+06 411071 0 -2.30466e+06 418008 0 -2.31257e+06 425017 0 -2.3206e+06 432101 0 -2.32876e+06 439262 0 -2.33706e+06 446502 0 -2.34548e+06 453822 0 -2.35403e+06 461227 0 -2.36272e+06 468717 0 -2.37154e+06 476295 0 -2.3805e+06 483965 0 -2.3896e+06 491729 0 -2.39884e+06 499589 0 -2.40822e+06 507548 0 -2.41775e+06 515610 0 -2.42742e+06 523778 0 -2.43725e+06 532055 0 -2.44723e+06 540444 0 -2.45736e+06 548949 0 -2.46765e+06 557574 0 -2.4781e+06 566323 0 -2.48872e+06 575199 0 -2.49951e+06 584208 0 -2.51046e+06 593354 0 -2.52159e+06 602641 0 -2.53291e+06 612074 0 -2.5444e+06 621659 0 -2.55609e+06 631401 0 -2.56797e+06 641306 0 -2.58004e+06 651381 0 -2.59233e+06 661631 0 -2.60482e+06 672064 0 -2.61753e+06 682686 0 -2.63047e+06 693507 0 -2.64364e+06 704533 0 -2.65705e+06 715774 0 -2.67071e+06 727240 0 -2.68464e+06 738939 0 -2.69883e+06 750883 0 -2.7133e+06 763084 0 -2.72807e+06 775554 0 -2.74314e+06 788305 0 -2.75853e+06 801353 0 -2.77426e+06 814713 0 -2.79034e+06 828400 0 -2.8068e+06 842435 0 -2.82364e+06 856835 0 -2.8409e+06 871622 0 -2.8586e+06 886820 0 -2.87676e+06 902454 0 -2.89541e+06 918551 0 -2.91459e+06 935143 0 -2.93432e+06 952263 0 -2.95465e+06 969947 0 -2.97563e+06 988237 0 -2.99729e+06 1.00718e+06 0 -3.0197e+06 1.02682e+06 0 -3.0429e+06 1.04723e+06 0 -3.06697e+06 1.06845e+06 0 -3.09198e+06 1.09057e+06 0 -3.11802e+06 1.11367e+06 0 -3.14518e+06 1.13783e+06 0 -3.17356e+06 1.16316e+06 0 -3.20329e+06 1.18979e+06 0 -3.23452e+06 1.21785e+06 0 -3.26739e+06 1.24749e+06 0 -3.3021e+06 1.27892e+06 0 -3.33887e+06 1.31235e+06 0 -3.37795e+06 1.34804e+06 0 -3.41964e+06 1.3863e+06 0 -3.4643e+06 1.42751e+06 0 -3.51235e+06 1.47212e+06 0 -3.5643e+06 1.52072e+06 0 -3.62079e+06 1.574e+06 0 -3.68261e+06 1.63286e+06 0 -3.75069e+06 1.69848e+06 0 -3.82627e+06 1.77235e+06 0 -3.91109e+06 1.85664e+06 0 -4.0066e+06 1.95439e+06 0 -4.11682e+06 2.06817e+06 0 -4.24467e+06 2.21003e+06 0 -4.39075e+06 2.37709e+06 0 -4.58066e+06 2.6002e+06 0 -4.79069e+06 2.92773e+06 0 -5.02818e+06 3.31205e+06 0 -5.42972e+06 4.1212e+06 0 -5.40638e+06 5.79234e+06 0 -3.92156e+06 6.99931e+06 0 -1.93026e+06 6.57379e+06 0 -1.04349e+06 5.71421e+06 0 -2.08576e+06 189796 0 -2.08944e+06 195078 0 -2.09322e+06 200386 0 -2.0971e+06 205720 0 -2.10108e+06 211081 0 -2.10516e+06 216469 0 -2.10934e+06 221886 0 -2.11363e+06 227333 0 -2.11801e+06 232810 0 -2.12249e+06 238318 0 -2.12708e+06 243859 0 -2.13177e+06 249433 0 -2.13657e+06 255041 0 -2.14146e+06 260684 0 -2.14647e+06 266363 0 -2.15157e+06 272079 0 -2.15678e+06 277834 0 -2.1621e+06 283628 0 -2.16753e+06 289463 0 -2.17306e+06 295339 0 -2.17869e+06 301258 0 -2.18444e+06 307220 0 -2.19029e+06 313228 0 -2.19626e+06 319283 0 -2.20233e+06 325385 0 -2.20852e+06 331536 0 -2.21481e+06 337737 0 -2.22122e+06 343990 0 -2.22774e+06 350296 0 -2.23438e+06 356657 0 -2.24113e+06 363074 0 -2.24799e+06 369548 0 -2.25497e+06 376082 0 -2.26207e+06 382676 0 -2.26929e+06 389333 0 -2.27662e+06 396054 0 -2.28408e+06 402842 0 -2.29166e+06 409697 0 -2.29936e+06 416622 0 -2.30718e+06 423619 0 -2.31513e+06 430689 0 -2.3232e+06 437835 0 -2.3314e+06 445059 0 -2.33973e+06 452364 0 -2.34819e+06 459751 0 -2.35679e+06 467223 0 -2.36551e+06 474782 0 -2.37437e+06 482432 0 -2.38337e+06 490174 0 -2.39251e+06 498011 0 -2.40179e+06 505947 0 -2.41121e+06 513984 0 -2.42078e+06 522126 0 -2.43049e+06 530375 0 -2.44036e+06 538736 0 -2.45037e+06 547211 0 -2.46055e+06 555804 0 -2.47088e+06 564520 0 -2.48137e+06 573362 0 -2.49203e+06 582334 0 -2.50285e+06 591442 0 -2.51385e+06 600689 0 -2.52503e+06 610080 0 -2.53638e+06 619622 0 -2.54792e+06 629318 0 -2.55965e+06 639176 0 -2.57157e+06 649200 0 -2.58369e+06 659398 0 -2.59602e+06 669776 0 -2.60856e+06 680341 0 -2.62132e+06 691101 0 -2.63431e+06 702065 0 -2.64753e+06 713240 0 -2.66099e+06 724636 0 -2.67471e+06 736262 0 -2.68868e+06 748130 0 -2.70293e+06 760250 0 -2.71746e+06 772635 0 -2.73229e+06 785298 0 -2.74743e+06 798251 0 -2.76289e+06 811512 0 -2.77869e+06 825095 0 -2.79485e+06 839018 0 -2.81138e+06 853301 0 -2.8283e+06 867964 0 -2.84565e+06 883030 0 -2.86344e+06 898523 0 -2.88169e+06 914471 0 -2.90045e+06 930903 0 -2.91973e+06 947852 0 -2.93959e+06 965353 0 -2.96005e+06 983447 0 -2.98115e+06 1.00218e+06 0 -3.00296e+06 1.02159e+06 0 -3.02552e+06 1.04175e+06 0 -3.04889e+06 1.0627e+06 0 -3.07315e+06 1.08453e+06 0 -3.09836e+06 1.10731e+06 0 -3.12461e+06 1.13112e+06 0 -3.152e+06 1.15606e+06 0 -3.18065e+06 1.18226e+06 0 -3.21066e+06 1.20984e+06 0 -3.2422e+06 1.23896e+06 0 -3.27542e+06 1.26979e+06 0 -3.31051e+06 1.30254e+06 0 -3.34771e+06 1.33746e+06 0 -3.38726e+06 1.37483e+06 0 -3.42948e+06 1.41502e+06 0 -3.47473e+06 1.45844e+06 0 -3.52344e+06 1.50562e+06 0 -3.57615e+06 1.5572e+06 0 -3.6335e+06 1.61401e+06 0 -3.69627e+06 1.67711e+06 0 -3.76542e+06 1.74783e+06 0 -3.84231e+06 1.828e+06 0 -3.92825e+06 1.92034e+06 0 -4.02552e+06 2.02743e+06 0 -4.13744e+06 2.15671e+06 0 -4.26397e+06 2.31319e+06 0 -4.41631e+06 2.50745e+06 0 -4.597e+06 2.78094e+06 0 -4.78278e+06 3.13508e+06 0 -5.03337e+06 3.66334e+06 0 -5.21632e+06 4.74458e+06 0 -4.60343e+06 6.10742e+06 0 -3.01711e+06 6.56423e+06 0 -1.63276e+06 6.03418e+06 0 -1.06253e+06 5.45178e+06 0 -2.08662e+06 193739 0 -2.09035e+06 199054 0 -2.09418e+06 204394 0 -2.0981e+06 209761 0 -2.10213e+06 215155 0 -2.10625e+06 220577 0 -2.11048e+06 226029 0 -2.11481e+06 231510 0 -2.11924e+06 237023 0 -2.12377e+06 242567 0 -2.1284e+06 248144 0 -2.13313e+06 253755 0 -2.13797e+06 259401 0 -2.14291e+06 265082 0 -2.14796e+06 270800 0 -2.15311e+06 276556 0 -2.15837e+06 282351 0 -2.16373e+06 288186 0 -2.16919e+06 294062 0 -2.17477e+06 299980 0 -2.18045e+06 305942 0 -2.18624e+06 311948 0 -2.19213e+06 318001 0 -2.19814e+06 324100 0 -2.20426e+06 330248 0 -2.21048e+06 336446 0 -2.21682e+06 342694 0 -2.22327e+06 348996 0 -2.22983e+06 355351 0 -2.23651e+06 361762 0 -2.2433e+06 368229 0 -2.2502e+06 374756 0 -2.25722e+06 381342 0 -2.26436e+06 387990 0 -2.27162e+06 394702 0 -2.27899e+06 401479 0 -2.28649e+06 408324 0 -2.29411e+06 415237 0 -2.30184e+06 422221 0 -2.30971e+06 429278 0 -2.31769e+06 436410 0 -2.32581e+06 443619 0 -2.33405e+06 450908 0 -2.34242e+06 458278 0 -2.35092e+06 465732 0 -2.35955e+06 473272 0 -2.36831e+06 480901 0 -2.37721e+06 488622 0 -2.38625e+06 496438 0 -2.39543e+06 504350 0 -2.40474e+06 512363 0 -2.4142e+06 520479 0 -2.42381e+06 528701 0 -2.43356e+06 537033 0 -2.44347e+06 545478 0 -2.45352e+06 554040 0 -2.46374e+06 562723 0 -2.47411e+06 571531 0 -2.48464e+06 580467 0 -2.49534e+06 589537 0 -2.5062e+06 598745 0 -2.51724e+06 608095 0 -2.52846e+06 617594 0 -2.53985e+06 627245 0 -2.55143e+06 637055 0 -2.5632e+06 647030 0 -2.57517e+06 657176 0 -2.58734e+06 667499 0 -2.59971e+06 678007 0 -2.6123e+06 688708 0 -2.6251e+06 699609 0 -2.63814e+06 710718 0 -2.65141e+06 722045 0 -2.66492e+06 733599 0 -2.67869e+06 745391 0 -2.69272e+06 757431 0 -2.70703e+06 769732 0 -2.72162e+06 782305 0 -2.73651e+06 795165 0 -2.75171e+06 808327 0 -2.76723e+06 821806 0 -2.7831e+06 835619 0 -2.79933e+06 849785 0 -2.81594e+06 864324 0 -2.83294e+06 879258 0 -2.85037e+06 894612 0 -2.86825e+06 910410 0 -2.8866e+06 926683 0 -2.90546e+06 943462 0 -2.92485e+06 960780 0 -2.94482e+06 978678 0 -2.9654e+06 997197 0 -2.98664e+06 1.01638e+06 0 -3.00859e+06 1.03629e+06 0 -3.0313e+06 1.05698e+06 0 -3.05484e+06 1.07852e+06 0 -3.07927e+06 1.10097e+06 0 -3.10467e+06 1.12444e+06 0 -3.13113e+06 1.149e+06 0 -3.15875e+06 1.17477e+06 0 -3.18764e+06 1.20188e+06 0 -3.21793e+06 1.23047e+06 0 -3.24976e+06 1.2607e+06 0 -3.28331e+06 1.29278e+06 0 -3.31877e+06 1.32694e+06 0 -3.35636e+06 1.36344e+06 0 -3.39635e+06 1.40261e+06 0 -3.43906e+06 1.44486e+06 0 -3.48485e+06 1.49066e+06 0 -3.53416e+06 1.5406e+06 0 -3.58754e+06 1.59543e+06 0 -3.64563e+06 1.65609e+06 0 -3.70919e+06 1.72379e+06 0 -3.77926e+06 1.80012e+06 0 -3.85699e+06 1.88738e+06 0 -3.94381e+06 1.98814e+06 0 -4.04224e+06 2.10728e+06 0 -4.15321e+06 2.2513e+06 0 -4.28036e+06 2.4267e+06 0 -4.43066e+06 2.65748e+06 0 -4.59024e+06 2.96793e+06 0 -4.76338e+06 3.38197e+06 0 -4.94197e+06 4.08928e+06 0 -4.77943e+06 5.19756e+06 0 -3.81394e+06 6.0956e+06 0 -2.425e+06 6.12289e+06 0 -1.47501e+06 5.63353e+06 0 -1.0387e+06 5.16833e+06 0 -2.0875e+06 197717 0 -2.09127e+06 203064 0 -2.09515e+06 208437 0 -2.09912e+06 213836 0 -2.10319e+06 219264 0 -2.10736e+06 224720 0 -2.11164e+06 230207 0 -2.11601e+06 235723 0 -2.12048e+06 241271 0 -2.12506e+06 246852 0 -2.12974e+06 252466 0 -2.13452e+06 258114 0 -2.1394e+06 263798 0 -2.14438e+06 269518 0 -2.14947e+06 275275 0 -2.15467e+06 281071 0 -2.15996e+06 286907 0 -2.16537e+06 292783 0 -2.17088e+06 298701 0 -2.17649e+06 304662 0 -2.18222e+06 310667 0 -2.18805e+06 316717 0 -2.19399e+06 322814 0 -2.20004e+06 328959 0 -2.20619e+06 335153 0 -2.21246e+06 341398 0 -2.21884e+06 347694 0 -2.22533e+06 354044 0 -2.23193e+06 360449 0 -2.23865e+06 366910 0 -2.24548e+06 373429 0 -2.25242e+06 380008 0 -2.25949e+06 386648 0 -2.26666e+06 393350 0 -2.27396e+06 400117 0 -2.28138e+06 406951 0 -2.28891e+06 413853 0 -2.29657e+06 420824 0 -2.30434e+06 427868 0 -2.31225e+06 434986 0 -2.32027e+06 442181 0 -2.32842e+06 449453 0 -2.3367e+06 456807 0 -2.34511e+06 464243 0 -2.35365e+06 471765 0 -2.36232e+06 479374 0 -2.37112e+06 487074 0 -2.38006e+06 494868 0 -2.38913e+06 502757 0 -2.39835e+06 510746 0 -2.4077e+06 518836 0 -2.4172e+06 527032 0 -2.42685e+06 535336 0 -2.43664e+06 543751 0 -2.44658e+06 552283 0 -2.45668e+06 560933 0 -2.46693e+06 569707 0 -2.47734e+06 578608 0 -2.48791e+06 587641 0 -2.49864e+06 596809 0 -2.50955e+06 606119 0 -2.52063e+06 615574 0 -2.53188e+06 625181 0 -2.54332e+06 634944 0 -2.55494e+06 644870 0 -2.56676e+06 654964 0 -2.57876e+06 665234 0 -2.59098e+06 675686 0 -2.60339e+06 686327 0 -2.61603e+06 697165 0 -2.62888e+06 708209 0 -2.64196e+06 719468 0 -2.65528e+06 730950 0 -2.66885e+06 742666 0 -2.68267e+06 754627 0 -2.69675e+06 766844 0 -2.71111e+06 779329 0 -2.72576e+06 792096 0 -2.74071e+06 805160 0 -2.75597e+06 818535 0 -2.77156e+06 832238 0 -2.7875e+06 846288 0 -2.8038e+06 860704 0 -2.82048e+06 875507 0 -2.83756e+06 890722 0 -2.85507e+06 906372 0 -2.87304e+06 922486 0 -2.89148e+06 939096 0 -2.91044e+06 956233 0 -2.92993e+06 973936 0 -2.95001e+06 992245 0 -2.97071e+06 1.01121e+06 0 -2.99208e+06 1.03087e+06 0 -3.01416e+06 1.05129e+06 0 -3.03702e+06 1.07254e+06 0 -3.06072e+06 1.09468e+06 0 -3.08532e+06 1.11779e+06 0 -3.1109e+06 1.14197e+06 0 -3.13756e+06 1.16732e+06 0 -3.1654e+06 1.19396e+06 0 -3.19452e+06 1.22203e+06 0 -3.22507e+06 1.25168e+06 0 -3.25718e+06 1.2831e+06 0 -3.29103e+06 1.3165e+06 0 -3.32682e+06 1.35215e+06 0 -3.36478e+06 1.39034e+06 0 -3.40518e+06 1.43144e+06 0 -3.44832e+06 1.47589e+06 0 -3.49459e+06 1.52424e+06 0 -3.54442e+06 1.57716e+06 0 -3.59836e+06 1.6355e+06 0 -3.65702e+06 1.70034e+06 0 -3.72121e+06 1.77307e+06 0 -3.79186e+06 1.85563e+06 0 -3.87e+06 1.95045e+06 0 -3.95732e+06 2.06109e+06 0 -4.05515e+06 2.19324e+06 0 -4.16459e+06 2.35305e+06 0 -4.28999e+06 2.55382e+06 0 -4.42744e+06 2.81977e+06 0 -4.56518e+06 3.16887e+06 0 -4.70364e+06 3.67769e+06 0 -4.71259e+06 4.48993e+06 0 -4.22911e+06 5.42906e+06 0 -3.15944e+06 5.91076e+06 0 -2.05049e+06 5.73592e+06 0 -1.37149e+06 5.31028e+06 0 -1.00573e+06 4.90585e+06 0 -2.0884e+06 201730 0 -2.09222e+06 207109 0 -2.09614e+06 212514 0 -2.10016e+06 217947 0 -2.10428e+06 223409 0 -2.10849e+06 228900 0 -2.11281e+06 234421 0 -2.11723e+06 239973 0 -2.12175e+06 245557 0 -2.12637e+06 251174 0 -2.13109e+06 256825 0 -2.13591e+06 262511 0 -2.14084e+06 268233 0 -2.14587e+06 273992 0 -2.151e+06 279789 0 -2.15624e+06 285625 0 -2.16158e+06 291501 0 -2.16703e+06 297419 0 -2.17258e+06 303379 0 -2.17824e+06 309383 0 -2.184e+06 315431 0 -2.18987e+06 321526 0 -2.19586e+06 327668 0 -2.20194e+06 333859 0 -2.20814e+06 340100 0 -2.21445e+06 346392 0 -2.22087e+06 352737 0 -2.2274e+06 359136 0 -2.23405e+06 365591 0 -2.2408e+06 372103 0 -2.24767e+06 378674 0 -2.25466e+06 385305 0 -2.26176e+06 391999 0 -2.26898e+06 398756 0 -2.27631e+06 405579 0 -2.28377e+06 412469 0 -2.29134e+06 419429 0 -2.29904e+06 426460 0 -2.30685e+06 433564 0 -2.31479e+06 440744 0 -2.32286e+06 448001 0 -2.33105e+06 455338 0 -2.33936e+06 462757 0 -2.34781e+06 470260 0 -2.35639e+06 477851 0 -2.36509e+06 485530 0 -2.37393e+06 493302 0 -2.38291e+06 501169 0 -2.39202e+06 509133 0 -2.40128e+06 517199 0 -2.41067e+06 525368 0 -2.42021e+06 533644 0 -2.42989e+06 542031 0 -2.43972e+06 550532 0 -2.4497e+06 559150 0 -2.45983e+06 567890 0 -2.47012e+06 576756 0 -2.48057e+06 585752 0 -2.49118e+06 594882 0 -2.50195e+06 604151 0 -2.5129e+06 613565 0 -2.52402e+06 623127 0 -2.53531e+06 632843 0 -2.54679e+06 642721 0 -2.55845e+06 652764 0 -2.57031e+06 662980 0 -2.58236e+06 673376 0 -2.59461e+06 683958 0 -2.60707e+06 694735 0 -2.61975e+06 705715 0 -2.63265e+06 716905 0 -2.64578e+06 728316 0 -2.65915e+06 739957 0 -2.67276e+06 751839 0 -2.68663e+06 763973 0 -2.70077e+06 776371 0 -2.71518e+06 789046 0 -2.72988e+06 802012 0 -2.74489e+06 815284 0 -2.76021e+06 828878 0 -2.77587e+06 842813 0 -2.79187e+06 857106 0 -2.80824e+06 871780 0 -2.82499e+06 886856 0 -2.84215e+06 902359 0 -2.85975e+06 918316 0 -2.87779e+06 934757 0 -2.89633e+06 951714 0 -2.91538e+06 969223 0 -2.93497e+06 987324 0 -2.95516e+06 1.00606e+06 0 -2.97597e+06 1.02548e+06 0 -2.99746e+06 1.04564e+06 0 -3.01968e+06 1.0666e+06 0 -3.04268e+06 1.08843e+06 0 -3.06652e+06 1.1112e+06 0 -3.09128e+06 1.135e+06 0 -3.11705e+06 1.15993e+06 0 -3.14389e+06 1.18611e+06 0 -3.17193e+06 1.21366e+06 0 -3.20128e+06 1.24274e+06 0 -3.23206e+06 1.27351e+06 0 -3.26443e+06 1.30618e+06 0 -3.29856e+06 1.34099e+06 0 -3.33465e+06 1.37822e+06 0 -3.37294e+06 1.41821e+06 0 -3.41368e+06 1.46136e+06 0 -3.4572e+06 1.50818e+06 0 -3.50386e+06 1.55927e+06 0 -3.55411e+06 1.61539e+06 0 -3.60846e+06 1.67753e+06 0 -3.66752e+06 1.74689e+06 0 -3.73205e+06 1.82514e+06 0 -3.80286e+06 1.91445e+06 0 -3.88102e+06 2.01769e+06 0 -3.96775e+06 2.13937e+06 0 -4.06363e+06 2.28527e+06 0 -4.17033e+06 2.46397e+06 0 -4.28775e+06 2.69299e+06 0 -4.40567e+06 2.99169e+06 0 -4.51534e+06 3.39324e+06 0 -4.57059e+06 3.98941e+06 0 -4.36586e+06 4.79005e+06 0 -3.67377e+06 5.4746e+06 0 -2.664e+06 5.65929e+06 0 -1.80781e+06 5.40801e+06 0 -1.29152e+06 5.03645e+06 0 -976250 4.67667e+06 0 -2.08932e+06 205777 0 -2.09319e+06 211189 0 -2.09715e+06 216627 0 -2.10122e+06 222094