<?xml version="1.0"?> 
<VTKFile type="StructuredGrid" version="0.1"> 
<StructuredGrid WholeExtent="0 15 0 15 0 0"> 
<Piece Extent="0 15 0 15 0 0"> 
<PointData>
<DataArray type="Float32" Name="E" format="ascii" NumberOfComponents="3"> 
-523695 93668.9 0 -516056 103437 0 -509752 103860 0 -502789 103465 0 -495105 102976 0 -486866 102569 0 -478214 102258 0 -469267 102024 0 -460107 101852 0 -450796 101727 0 -441375 101639 0 -431875 101580 0 -422316 101543 0 -412714 101526 0 -403079 101523 0 -393419 101534 0 -549633 212312 0 -539833 211116 0 -530106 209731 0 -520493 208483 0 -510975 207349 0 -501522 206294 0 -492114 205288 0 -482735 204311 0 -473373 203349 0 -464020 202393 0 -454670 201437 0 -445317 200477 0 -435959 199512 0 -426594 198541 0 -417219 197564 0 -407834 196580 0 -558119 321107 0 -549402 319075 0 -540618 317330 0 -531788 315506 0 -522919 313608 0 -514013 311656 0 -505074 309671 0 -496107 307666 0 -487112 305650 0 -478093 303629 0 -469052 301604 0 -459991 299578 0 -450910 297550 0 -441812 295519 0 -432697 293486 0 -423567 291449 0 -572565 428543 0 -563956 425880 0 -555327 423030 0 -546665 420207 0 -537973 417406 0 -529254 414612 0 -520511 411813 0 -511744 409000 0 -502954 406167 0 -494144 403313 0 -485312 400436 0 -476461 397537 0 -467590 394614 0 -458700 391670 0 -449792 388704 0 -440867 385718 0 -592502 534103 0 -583792 530738 0 -575069 527409 0 -566342 524002 0 -557608 520526 0 -548862 516992 0 -540105 513409 0 -531333 509783 0 -522549 506119 0 -513751 502419 0 -504941 498685 0 -496118 494916 0 -487284 491115 0 -478439 487281 0 -469582 483414 0 -460715 479515 0 -618029 640829 0 -609117 636640 0 -600195 632373 0 -591261 628085 0 -582318 623765 0 -573370 619409 0 -564419 615010 0 -555465 610565 0 -546511 606073 0 -537556 601533 0 -528600 596945 0 -519643 592310 0 -510687 587628 0 -501732 582900 0 -492778 578128 0 -483825 573311 0 -650060 747318 0 -640721 742457 0 -631388 737528 0 -622066 732516 0 -612751 727432 0 -603443 722278 0 -594142 717059 0 -584848 711779 0 -575563 706437 0 -566286 701037 0 -557019 695578 0 -547764 690062 0 -538520 684488 0 -529287 678859 0 -520068 673175 0 -510861 667434 0 -689415 854208 0 -679495 848589 0 -669585 842921 0 -659682 837181 0 -649793 831353 0 -639922 825448 0 -630070 819459 0 -620240 813388 0 -610432 807237 0 -600649 801006 0 -590891 794697 0 -581159 788311 0 -571455 781850 0 -561780 775314 0 -552135 768708 0 -542521 762035 0 -738206 959131 0 -727427 953285 0 -716665 947191 0 -705929 940952 0 -695215 934599 0 -684527 928110 0 -673868 921505 0 -663242 914779 0 -652652 907938 0 -642101 900986 0 -631591 893925 0 -621125 886760 0 -610705 879495 0 -600331 872130 0 -590006 864668 0 -579733 857104 0 -798673 1.06135e+06 0 -786672 1.05508e+06 0 -774690 1.04889e+06 0 -762736 1.0425e+06 0 -750828 1.03589e+06 0 -738967 1.0291e+06 0 -727161 1.02213e+06 0 -715413 1.01498e+06 0 -703727 1.00765e+06 0 -692105 1.00017e+06 0 -680551 992519 0 -669068 984717 0 -657659 976766 0 -646325 968673 0 -635067 960451 0 -623884 952117 0 -876294 1.15235e+06 0 -862455 1.14835e+06 0 -848666 1.14318e+06 0 -834919 1.13759e+06 0 -821209 1.13168e+06 0 -807564 1.12535e+06 0 -793989 1.11871e+06 0 -780501 1.11173e+06 0 -767107 1.10445e+06 0 -753817 1.09689e+06 0 -740638 1.08906e+06 0 -727576 1.08099e+06 0 -714636 1.07269e+06 0 -701821 1.06416e+06 0 -689137 1.05541e+06 0 -676591 1.04642e+06 0 -977050 1.22819e+06 0 -960581 1.22476e+06 0 -944019 1.22237e+06 0 -927514 1.21925e+06 0 -911119 1.21535e+06 0 -894835 1.21094e+06 0 -878693 1.20586e+06 0 -862699 1.20025e+06 0 -846868 1.19408e+06 0 -831206 1.1874e+06 0 -815720 1.18024e+06 0 -800417 1.17263e+06 0 -785302 1.16462e+06 0 -770376 1.15622e+06 0 -755641 1.14749e+06 0 -741091 1.13849e+06 0 -1.11588e+06 1.25377e+06 0 -1.09543e+06 1.26506e+06 0 -1.07493e+06 1.27015e+06 0 -1.0542e+06 1.27356e+06 0 -1.03341e+06 1.27549e+06 0 -1.01268e+06 1.27572e+06 0 -992092 1.27481e+06 0 -971736 1.27267e+06 0 -951657 1.26953e+06 0 -931900 1.26544e+06 0 -912491 1.26049e+06 0 -893446 1.25476e+06 0 -874775 1.24829e+06 0 -856481 1.24113e+06 0 -838566 1.2333e+06 0 -821035 1.22483e+06 0 -1.31583e+06 1.1542e+06 0 -1.28983e+06 1.18728e+06 0 -1.26216e+06 1.22158e+06 0 -1.23419e+06 1.24874e+06 0 -1.20612e+06 1.27014e+06 0 -1.17816e+06 1.28709e+06 0 -1.1505e+06 1.29959e+06 0 -1.1232e+06 1.30867e+06 0 -1.09636e+06 1.31463e+06 0 -1.07003e+06 1.318e+06 0 -1.04427e+06 1.31915e+06 0 -1.0191e+06 1.31841e+06 0 -994561 1.31606e+06 0 -970658 1.31232e+06 0 -947397 1.30741e+06 0 -924772 1.3015e+06 0 -1.61187e+06 643709 0 -1.59702e+06 783559 0 -1.56948e+06 896620 0 -1.53254e+06 993233 0 -1.4908e+06 1.07367e+06 0 -1.44676e+06 1.13955e+06 0 -1.40227e+06 1.19357e+06 0 -1.3585e+06 1.23693e+06 0 -1.31604e+06 1.27151e+06 0 -1.27523e+06 1.29853e+06 0 -1.23615e+06 1.31913e+06 0 -1.19882e+06 1.33433e+06 0 -1.16318e+06 1.34491e+06 0 -1.12912e+06 1.35161e+06 0 -1.09655e+06 1.35502e+06 0 -1.06539e+06 1.35561e+06 0 -1.96488e+06 317855 0 -1.93251e+06 -224185 0 -1.96233e+06 -291075 0 -1.97316e+06 -49273.1 0 -1.95294e+06 228171 0 -1.9097e+06 479631 0 -1.84898e+06 692509 0 -1.77954e+06 858837 0 -1.7064e+06 991311 0 -1.63359e+06 1.0928e+06 0 -1.56325e+06 1.17206e+06 0 -1.4967e+06 1.23287e+06 0 -1.43445e+06 1.27953e+06 0 -1.37659e+06 1.31485e+06 0 -1.32298e+06 1.341e+06 0 -1.27332e+06 1.35966e+06 0 </DataArray> 
</PointData> 
<Points> 
<DataArray type="Float32" NumberOfComponents="3"> 
0.0125 0.062 0 0.0125 0.0632 0 0.0125 0.0644 0 0.0125 0.0656 0 0.0125 0.0668 0 0.0125 0.068 0 0.0125 0.0692 0 0.0125 0.0704 0 0.0125 0.0716 0 0.0125 0.0728 0 0.0125 0.074 0 0.0125 0.0752 0 0.0125 0.0764 0 0.0125 0.0776 0 0.0125 0.0788 0 0.0125 0.08 0 0.0265 0.0608667 0 0.0263556 0.0620311 0 0.0262111 0.0631956 0 0.0260667 0.06436 0 0.0259222 0.0655244 0 0.0257778 0.0666889 0 0.0256333 0.0678533 0 0.0254889 0.0690178 0 0.0253444 0.0701822 0 0.0252 0.0713467 0 0.0250556 0.0725111 0 0.0249111 0.0736756 0 0.0247667 0.07484 0 0.0246222 0.0760044 0 0.0244778 0.0771689 0 0.0243333 0.0783333 0 0.0405 0.0597333 0 0.0402111 0.0608622 0 0.0399222 0.0619911 0 0.0396333 0.06312 0 0.0393444 0.0642489 0 0.0390556 0.0653778 0 0.0387667 0.0665067 0 0.0384778 0.0676356 0 0.0381889 0.0687644 0 0.0379 0.0698933 0 0.0376111 0.0710222 0 0.0373222 0.0721511 0 0.0370333 0.07328 0 0.0367444 0.0744089 0 0.0364556 0.0755378 0 0.0361667 0.0766667 0 0.0545 0.0586 0 0.0540667 0.0596933 0 0.0536333 0.0607867 0 0.0532 0.06188 0 0.0527667 0.0629733 0 0.0523333 0.0640667 0 0.0519 0.06516 0 0.0514667 0.0662533 0 0.0510333 0.0673467 0 0.0506 0.06844 0 0.0501667 0.0695333 0 0.0497333 0.0706267 0 0.0493 0.07172 0 0.0488667 0.0728133 0 0.0484333 0.0739067 0 0.048 0.075 0 0.0685 0.0574667 0 0.0679222 0.0585244 0 0.0673444 0.0595822 0 0.0667667 0.06064 0 0.0661889 0.0616978 0 0.0656111 0.0627556 0 0.0650333 0.0638133 0 0.0644556 0.0648711 0 0.0638778 0.0659289 0 0.0633 0.0669867 0 0.0627222 0.0680444 0 0.0621444 0.0691022 0 0.0615667 0.07016 0 0.0609889 0.0712178 0 0.0604111 0.0722756 0 0.0598333 0.0733333 0 0.0825 0.0563333 0 0.0817778 0.0573556 0 0.0810556 0.0583778 0 0.0803333 0.0594 0 0.0796111 0.0604222 0 0.0788889 0.0614444 0 0.0781667 0.0624667 0 0.0774444 0.0634889 0 0.0767222 0.0645111 0 0.076 0.0655333 0 0.0752778 0.0665556 0 0.0745556 0.0675778 0 0.0738333 0.0686 0 0.0731111 0.0696222 0 0.0723889 0.0706444 0 0.0716667 0.0716667 0 0.0965 0.0552 0 0.0956333 0.0561867 0 0.0947667 0.0571733 0 0.0939 0.05816 0 0.0930333 0.0591467 0 0.0921667 0.0601333 0 0.0913 0.06112 0 0.0904333 0.0621067 0 0.0895667 0.0630933 0 0.0887 0.06408 0 0.0878333 0.0650667 0 0.0869667 0.0660533 0 0.0861 0.06704 0 0.0852333 0.0680267 0 0.0843667 0.0690133 0 0.0835 0.07 0 0.1105 0.0540667 0 0.109489 0.0550178 0 0.108478 0.0559689 0 0.107467 0.05692 0 0.106456 0.0578711 0 0.105444 0.0588222 0 0.104433 0.0597733 0 0.103422 0.0607244 0 0.102411 0.0616756 0 0.1014 0.0626267 0 0.100389 0.0635778 0 0.0993778 0.0645289 0 0.0983667 0.06548 0 0.0973556 0.0664311 0 0.0963444 0.0673822 0 0.0953333 0.0683333 0 0.1245 0.0529333 0 0.123344 0.0538489 0 0.122189 0.0547644 0 0.121033 0.05568 0 0.119878 0.0565956 0 0.118722 0.0575111 0 0.117567 0.0584267 0 0.116411 0.0593422 0 0.115256 0.0602578 0 0.1141 0.0611733 0 0.112944 0.0620889 0 0.111789 0.0630044 0 0.110633 0.06392 0 0.109478 0.0648356 0 0.108322 0.0657511 0 0.107167 0.0666667 0 0.1385 0.0518 0 0.1372 0.05268 0 0.1359 0.05356 0 0.1346 0.05444 0 0.1333 0.05532 0 0.132 0.0562 0 0.1307 0.05708 0 0.1294 0.05796 0 0.1281 0.05884 0 0.1268 0.05972 0 0.1255 0.0606 0 0.1242 0.06148 0 0.1229 0.06236 0 0.1216 0.06324 0 0.1203 0.06412 0 0.119 0.065 0 0.1525 0.0506667 0 0.151056 0.0515111 0 0.149611 0.0523556 0 0.148167 0.0532 0 0.146722 0.0540444 0 0.145278 0.0548889 0 0.143833 0.0557333 0 0.142389 0.0565778 0 0.140944 0.0574222 0 0.1395 0.0582667 0 0.138056 0.0591111 0 0.136611 0.0599556 0 0.135167 0.0608 0 0.133722 0.0616444 0 0.132278 0.0624889 0 0.130833 0.0633333 0 0.1665 0.0495333 0 0.164911 0.0503422 0 0.163322 0.0511511 0 0.161733 0.05196 0 0.160144 0.0527689 0 0.158556 0.0535778 0 0.156967 0.0543867 0 0.155378 0.0551956 0 0.153789 0.0560044 0 0.1522 0.0568133 0 0.150611 0.0576222 0 0.149022 0.0584311 0 0.147433 0.05924 0 0.145844 0.0600489 0 0.144256 0.0608578 0 0.142667 0.0616667 0 0.1805 0.0484 0 0.178767 0.0491733 0 0.177033 0.0499467 0 0.1753 0.05072 0 0.173567 0.0514933 0 0.171833 0.0522667 0 0.1701 0.05304 0 0.168367 0.0538133 0 0.166633 0.0545867 0 0.1649 0.05536 0 0.163167 0.0561333 0 0.161433 0.0569067 0 0.1597 0.05768 0 0.157967 0.0584533 0 0.156233 0.0592267 0 0.1545 0.06 0 0.1945 0.0472667 0 0.192622 0.0480044 0 0.190744 0.0487422 0 0.188867 0.04948 0 0.186989 0.0502178 0 0.185111 0.0509556 0 0.183233 0.0516933 0 0.181356 0.0524311 0 0.179478 0.0531689 0 0.1776 0.0539067 0 0.175722 0.0546444 0 0.173844 0.0553822 0 0.171967 0.05612 0 0.170089 0.0568578 0 0.168211 0.0575956 0 0.166333 0.0583333 0 0.2085 0.0461333 0 0.206478 0.0468356 0 0.204456 0.0475378 0 0.202433 0.04824 0 0.200411 0.0489422 0 0.198389 0.0496444 0 0.196367 0.0503467 0 0.194344 0.0510489 0 0.192322 0.0517511 0 0.1903 0.0524533 0 0.188278 0.0531556 0 0.186256 0.0538578 0 0.184233 0.05456 0 0.182211 0.0552622 0 0.180189 0.0559644 0 0.178167 0.0566667 0 0.2225 0.045 0 0.220333 0.0456667 0 0.218167 0.0463333 0 0.216 0.047 0 0.213833 0.0476667 0 0.211667 0.0483333 0 0.2095 0.049 0 0.207333 0.0496667 0 0.205167 0.0503333 0 0.203 0.051 0 0.200833 0.0516667 0 0.198667 0.0523333 0 0.1965 0.053 0 0.194333 0.0536667 0 0.192167 0.0543333 0 0.19 0.055 0 
</DataArray>
</Points> 
</Piece> 
</StructuredGrid> 
</VTKFile> 
