<?xml version="1.0"?> 
<VTKFile type="StructuredGrid" version="0.1"> 
<StructuredGrid WholeExtent="0 15 0 15 0 0"> 
<Piece Extent="0 15 0 15 0 0"> 
<PointData>
<DataArray type="Float32" Name="E" format="ascii" NumberOfComponents="3"> 
761076 3.23464 0 758125 79963 0 749142 160344 0 733723 241535 0 711159 323882 0 680379 407628 0 639864 492835 0 587520 579232 0 520543 665957 0 435209 751072 0 326945 830766 0 190073 897860 0 20453.7 939534 0 -184258 933624 0 -409982 845290 0 -612905 612905 0 697708 2.03622 0 694281 79096 0 683853 158437 0 665969 238220 0 639840 318531 0 604291 399264 0 557697 479962 0 497913 559599 0 422256 636156 0 327561 706054 0 210744 763039 0 70025.7 797062 0 -91625 792551 0 -258634 729373 0 -391184 593984 0 -431551 431551 0 638443 0.455484 0 634590 77521.8 0 622876 155076 0 602823 232616 0 573615 309927 0 534071 386488 0 482629 461282 0 417385 532472 0 336241 596992 0 237415 649841 0 120499 683507 0 -11138.5 687405 0 -146239 649837 0 -261575 564882 0 -328445 451178 0 -344216 344216 0 583350 -1.21582 0 579134 75359.3 0 566332 150509 0 544476 225135 0 512787 298692 0 470183 370237 0 415346 438195 0 346871 500051 0 263682 551921 0 165823 588214 0 55989.5 601533 0 -58150.9 584061 0 -162172 531568 0 -237677 451498 0 -276224 363712 0 -286370 286370 0 532406 -3.14278 0 527898 72731.1 0 514230 144997 0 490978 216206 0 457462 285483 0 412802 351489 0 356065 412189 0 286563 464569 0 204427 504419 0 111592 526337 0 13205.8 524567 0 -81292.7 495331 0 -159214 441012 0 -211095 372455 0 -236723 303690 0 -243399 243399 0 485514 -4.97505 0 480786 69756.4 0 466482 138793 0 442251 206244 0 407564 270934 0 361822 331190 0 304583 384642 0 235955 428055 0 157261 457333 0 71949.3 467989 0 -13615.3 456512 0 -90389.3 422794 0 -149673 372313 0 -187426 314838 0 -206166 259490 0 -211209 211209 0 442516 -6.81692 0 437640 66544.7 0 422924 132126 0 398112 195630 0 362868 255617 0 316923 310167 0 260363 356730 0 194071 392102 0 120358 412672 0 43575.9 415212 0 -29755.3 398366 0 -92284.7 364369 0 -138561 319362 0 -167585 271087 0 -181995 225583 0 -185947 185947 0 403214 -8.48166 0 398258 63192.4 0 383335 125200 0 358305 184691 0 323044 240018 0 277633 289101 0 222668 329359 0 159702 357822 0 91725.3 371578 0 23440.7 368684 0 -39231.6 349435 0 -90714.3 317188 0 -127934 277681 0 -151077 236837 0 -162713 198893 0 -165941 165941 0 367383 -9.97862 0 362406 59781.1 0 347458 118185 0 322523 173697 0 287695 224522 0 243395 268507 0 190675 303160 0 131594 325880 0 69529.3 334513 0 9092.19 328230 0 -44655.7 308399 0 -87711.7 278732 0 -118391 244216 0 -137485 209436 0 -147162 177484 0 -149897 149897 0 334778 -11.249 0 329832 56377 0 315015 111216 0 290433 162861 0 256395 209422 0 213628 248749 0 163556 278525 0 108587 296582 0 52224.1 301485 0 -1253.05 293261 0 -47695.8 273889 0 -84263.3 247021 0 -110153 216900 0 -126316 187138 0 -134623 160113 0 -137012 137012 0 305154 -12.2924 0 300280 53031.7 0 285721 104398 0 261697 152340 0 228714 194923 0 187761 230057 0 140547 255655 0 89674.8 269990 0 38596.4 272245 0 -8860.84 263057 0 -49353.5 244694 0 -80900.6 220571 0 -103195 194284 0 -117230 168762 0 -124569 145915 0 -126734 126734 0 278265 -13.1016 0 273498 49783.7 0 259294 97806.7 0 235982 142244 0 204239 181156 0 165266 212557 0 120967 234610 0 74024.4 246004 0 27719.6 246421 0 -14594.6 236905 0 -50253.2 219813 0 -77877 198261 0 -97460.9 175330 0 -109952 153462 0 -116659 134285 0 -118719 118719 0 253873 -13.6961 0 249239 46660.5 0 235465 91494.9 0 212974 132644 0 182587 168195 0 145667 196293 0 104237 215356 0 60965.9 224438 0 18905.1 223611 0 -19048.2 214163 0 -50773.6 198433 0 -75326 179240 0 -92872.3 159263 0 -104304 140610 0 -110702 124787 0 -112808 112808 0 231754 -14.0873 0 227271 43679.9 0 213980 85495.1 0 192381 123578 0 163410 156070 0 128547 181257 0 89869.4 197802 0 49971 205068 0 11643.7 203417 0 -22625.5 194276 0 -51152.6 179903 0 -73308.8 162845 0 -89363.4 145485 0 -100187 129711 0 -106658 117086 0 -109126 109126 0 211697 -14.317 0 207378 40852.3 0 194602 79824.5 0 173935 115062 0 146399 144777 0 113547 167402 0 77463.8 181822 0 40625.8 187657 0 5561.12 185477 0 -25604.5 176770 0 -51537.4 163693 0 -71852.5 148548 0 -86880.5 133507 0 -97591.1 120337 0 -104672 110820 0 -108617 108617 0 193508 -14.5705 0 189361 38182.4 0 177119 74488.3 0 157398 107094 0 131283 134292 0 100365 154659 0 66696.3 167278 0 32613.2 171975 0 385.468 169464 0 -28169.9 161246 0 -52020.1 149364 0 -70948 135917 0 -85396.6 122893 0 -96538.9 112086 0 -105244 104989 0 -115805 115805 0 </DataArray> 
</PointData> 
<Points> 
<DataArray type="Float32" NumberOfComponents="3"> 
0.397 0 0 0.397 0.000733333 0 0.397 0.00146667 0 0.397 0.0022 0 0.397 0.00293333 0 0.397 0.00366667 0 0.397 0.0044 0 0.397 0.00513333 0 0.397 0.00586667 0 0.397 0.0066 0 0.397 0.00733333 0 0.397 0.00806667 0 0.397 0.0088 0 0.397 0.00953333 0 0.397 0.0102667 0 0.397 0.011 0 0.3976 0 0 0.3976 0.000773333 0 0.3976 0.00154667 0 0.3976 0.00232 0 0.3976 0.00309333 0 0.3976 0.00386667 0 0.3976 0.00464 0 0.3976 0.00541333 0 0.3976 0.00618667 0 0.3976 0.00696 0 0.3976 0.00773333 0 0.3976 0.00850667 0 0.3976 0.00928 0 0.3976 0.0100533 0 0.3976 0.0108267 0 0.3976 0.0116 0 0.3982 0 0 0.3982 0.000813333 0 0.3982 0.00162667 0 0.3982 0.00244 0 0.3982 0.00325333 0 0.3982 0.00406667 0 0.3982 0.00488 0 0.3982 0.00569333 0 0.3982 0.00650667 0 0.3982 0.00732 0 0.3982 0.00813333 0 0.3982 0.00894667 0 0.3982 0.00976 0 0.3982 0.0105733 0 0.3982 0.0113867 0 0.3982 0.0122 0 0.3988 0 0 0.3988 0.000853333 0 0.3988 0.00170667 0 0.3988 0.00256 0 0.3988 0.00341333 0 0.3988 0.00426667 0 0.3988 0.00512 0 0.3988 0.00597333 0 0.3988 0.00682667 0 0.3988 0.00768 0 0.3988 0.00853333 0 0.3988 0.00938667 0 0.3988 0.01024 0 0.3988 0.0110933 0 0.3988 0.0119467 0 0.3988 0.0128 0 0.3994 0 0 0.3994 0.000893333 0 0.3994 0.00178667 0 0.3994 0.00268 0 0.3994 0.00357333 0 0.3994 0.00446667 0 0.3994 0.00536 0 0.3994 0.00625333 0 0.3994 0.00714667 0 0.3994 0.00804 0 0.3994 0.00893333 0 0.3994 0.00982667 0 0.3994 0.01072 0 0.3994 0.0116133 0 0.3994 0.0125067 0 0.3994 0.0134 0 0.4 0 0 0.4 0.000933333 0 0.4 0.00186667 0 0.4 0.0028 0 0.4 0.00373333 0 0.4 0.00466667 0 0.4 0.0056 0 0.4 0.00653333 0 0.4 0.00746667 0 0.4 0.0084 0 0.4 0.00933333 0 0.4 0.0102667 0 0.4 0.0112 0 0.4 0.0121333 0 0.4 0.0130667 0 0.4 0.014 0 0.4006 0 0 0.4006 0.000973333 0 0.4006 0.00194667 0 0.4006 0.00292 0 0.4006 0.00389333 0 0.4006 0.00486667 0 0.4006 0.00584 0 0.4006 0.00681333 0 0.4006 0.00778667 0 0.4006 0.00876 0 0.4006 0.00973333 0 0.4006 0.0107067 0 0.4006 0.01168 0 0.4006 0.0126533 0 0.4006 0.0136267 0 0.4006 0.0146 0 0.4012 0 0 0.4012 0.00101333 0 0.4012 0.00202667 0 0.4012 0.00304 0 0.4012 0.00405333 0 0.4012 0.00506667 0 0.4012 0.00608 0 0.4012 0.00709333 0 0.4012 0.00810667 0 0.4012 0.00912 0 0.4012 0.0101333 0 0.4012 0.0111467 0 0.4012 0.01216 0 0.4012 0.0131733 0 0.4012 0.0141867 0 0.4012 0.0152 0 0.4018 0 0 0.4018 0.00105333 0 0.4018 0.00210667 0 0.4018 0.00316 0 0.4018 0.00421333 0 0.4018 0.00526667 0 0.4018 0.00632 0 0.4018 0.00737333 0 0.4018 0.00842667 0 0.4018 0.00948 0 0.4018 0.0105333 0 0.4018 0.0115867 0 0.4018 0.01264 0 0.4018 0.0136933 0 0.4018 0.0147467 0 0.4018 0.0158 0 0.4024 0 0 0.4024 0.00109333 0 0.4024 0.00218667 0 0.4024 0.00328 0 0.4024 0.00437333 0 0.4024 0.00546667 0 0.4024 0.00656 0 0.4024 0.00765333 0 0.4024 0.00874667 0 0.4024 0.00984 0 0.4024 0.0109333 0 0.4024 0.0120267 0 0.4024 0.01312 0 0.4024 0.0142133 0 0.4024 0.0153067 0 0.4024 0.0164 0 0.403 0 0 0.403 0.00113333 0 0.403 0.00226667 0 0.403 0.0034 0 0.403 0.00453333 0 0.403 0.00566667 0 0.403 0.0068 0 0.403 0.00793333 0 0.403 0.00906667 0 0.403 0.0102 0 0.403 0.0113333 0 0.403 0.0124667 0 0.403 0.0136 0 0.403 0.0147333 0 0.403 0.0158667 0 0.403 0.017 0 0.4036 0 0 0.4036 0.00117333 0 0.4036 0.00234667 0 0.4036 0.00352 0 0.4036 0.00469333 0 0.4036 0.00586667 0 0.4036 0.00704 0 0.4036 0.00821333 0 0.4036 0.00938667 0 0.4036 0.01056 0 0.4036 0.0117333 0 0.4036 0.0129067 0 0.4036 0.01408 0 0.4036 0.0152533 0 0.4036 0.0164267 0 0.4036 0.0176 0 0.4042 0 0 0.4042 0.00121333 0 0.4042 0.00242667 0 0.4042 0.00364 0 0.4042 0.00485333 0 0.4042 0.00606667 0 0.4042 0.00728 0 0.4042 0.00849333 0 0.4042 0.00970667 0 0.4042 0.01092 0 0.4042 0.0121333 0 0.4042 0.0133467 0 0.4042 0.01456 0 0.4042 0.0157733 0 0.4042 0.0169867 0 0.4042 0.0182 0 0.4048 0 0 0.4048 0.00125333 0 0.4048 0.00250667 0 0.4048 0.00376 0 0.4048 0.00501333 0 0.4048 0.00626667 0 0.4048 0.00752 0 0.4048 0.00877333 0 0.4048 0.0100267 0 0.4048 0.01128 0 0.4048 0.0125333 0 0.4048 0.0137867 0 0.4048 0.01504 0 0.4048 0.0162933 0 0.4048 0.0175467 0 0.4048 0.0188 0 0.4054 0 0 0.4054 0.00129333 0 0.4054 0.00258667 0 0.4054 0.00388 0 0.4054 0.00517333 0 0.4054 0.00646667 0 0.4054 0.00776 0 0.4054 0.00905333 0 0.4054 0.0103467 0 0.4054 0.01164 0 0.4054 0.0129333 0 0.4054 0.0142267 0 0.4054 0.01552 0 0.4054 0.0168133 0 0.4054 0.0181067 0 0.4054 0.0194 0 0.406 0 0 0.406 0.00133333 0 0.406 0.00266667 0 0.406 0.004 0 0.406 0.00533333 0 0.406 0.00666667 0 0.406 0.008 0 0.406 0.00933333 0 0.406 0.0106667 0 0.406 0.012 0 0.406 0.0133333 0 0.406 0.0146667 0 0.406 0.016 0 0.406 0.0173333 0 0.406 0.0186667 0 0.406 0.02 0 
</DataArray>
</Points> 
</Piece> 
</StructuredGrid> 
</VTKFile> 
