<?xml version="1.0"?> 
<VTKFile type="StructuredGrid" version="0.1"> 
<StructuredGrid WholeExtent="0 15 0 15 0 0"> 
<Piece Extent="0 15 0 15 0 0"> 
<PointData>
<DataArray type="Float32" Name="E" format="ascii" NumberOfComponents="3"> 
48355.1 -2.24074 0 47547.9 8136.1 0 45160.9 15939.1 0 41298 23096.8 0 36121.8 29321.8 0 29842.9 34382.7 0 22710.8 38072.5 0 14964.6 40281.5 0 6910.23 40848.6 0 -1345.4 39787 0 -9311.66 36819 0 -17465.4 31960.7 0 -24383.3 24448.3 0 -32675.9 12966.1 0 -37853.5 -4701.24 0 0 -91080.5 0 37427.4 -1.84787 0 36841.1 6001.32 0 35106.7 11761.5 0 32297.1 17051.6 0 28529 21661.2 0 23956.2 25407.7 0 18760.8 28137.5 0 13148.8 29730.1 0 7335.99 30082.9 0 1571.58 29116.3 0 -3898.86 26725.3 0 -8668.99 22800.1 0 -12306.3 17147.4 0 -13511.3 9638.97 0 -10238 1190.7 0 0 -4854.34 0 29338.6 -1.38009 0 28912.9 4451.08 0 27653.7 8726.71 0 25614.4 12659.5 0 22881.4 16094.9 0 19570.4 18896.4 0 15823.2 20951.2 0 11804.1 22167.1 0 7700.52 22482 0 3724.53 21849.6 0 131.248 20271.5 0 -2774.29 17778.1 0 -4576.08 14545.3 0 -4824.32 10983.6 0 -3146.08 7729.59 0 0 7445.44 0 23319.9 -0.972763 0 23010.8 3325.84 0 22097.1 6524.56 0 20618.3 9475.01 0 18639.3 12065.2 0 16247.8 14198 0 13552.5 15793.1 0 10680.9 16793.4 0 7778.34 17164 0 5007.38 16906.8 0 2547.53 16056.1 0 589.231 14719.8 0 -682.425 13073.4 0 -1144.09 11412.5 0 -819.373 10267.8 0 0 9259.17 0 18803.6 -0.713067 0 18578.8 2508.45 0 17914.1 4925.74 0 16839 7165.17 0 15401.7 9147.48 0 13667.4 10804.6 0 11716.7 12083.6 0 9643.33 12949.1 0 7551.38 13389.4 0 5552.31 13417.1 0 3757.51 13082.2 0 2271.67 12467.1 0 1167.61 11706.8 0 475.367 10970.6 0 129.616 10372.3 0 0 10437.2 0 15381.3 -0.499293 0 15216.6 1912.01 0 14729.5 3759.33 0 13941.7 5480.74 0 12888.1 7020.68 0 11615.9 8332.66 0 10183 9381.58 0 8655.03 10147.1 0 7103.32 10625 0 5599.62 10832.1 0 4212.15 10804.1 0 2994.69 10602.4 0 1983.85 10302.6 0 1176.18 9993.18 0 543.416 9792.31 0 0 9582.03 0 12760.8 -0.355508 0 12638.5 1472.52 0 12276.9 2899.53 0 11691.3 4238.1 0 10906.7 5449.64 0 9956.48 6502.27 0 8880.89 7372.84 0 7725.11 8048.43 0 6536.37 8528.39 0 5361.16 8824.29 0 4240.2 8961.81 0 3206.05 8976.68 0 2273.81 8915.48 0 1446.34 8827.09 0 697.702 8740.69 0 0 8769.79 0 10735 -0.247545 0 10642.6 1143.58 0 10368.9 2255.28 0 9924.96 3305.11 0 9328.11 4266.23 0 8601.63 5116.67 0 7773.22 5840.56 0 6873.48 6429.34 0 5933.95 6882.22 0 4984.61 7206.93 0 4051.9 7418.37 0 3154.84 7538.64 0 2305.76 7592.79 0 1503.3 7606.85 0 742.295 7610.21 0 0 7582.57 0 9158.57 -0.174012 0 9087.04 892.114 0 8874.98 1761.92 0 8529.98 2588.45 0 8064.2 3352.95 0 7493.72 4040.06 0 6837.58 4638.61 0 6116.62 5142.27 0 5352.07 5549.94 0 4564.17 5865.54 0 3770.26 6097.83 0 2984.21 6258.83 0 2213.56 6363.04 0 1462.37 6424.94 0 725.674 6454.24 0 0 6473.93 0 7929.58 -0.121461 0 7872.66 694.867 0 7703.69 1374.12 0 7427.97 2023.06 0 7053.98 2628.51 0 6592.92 3179.6 0 6057.99 3668.23 0 5463.63 4089.53 0 4824.57 4441.94 0 4154.82 4727.16 0 3466.91 4949.63 0 2770.66 5116.01 0 2073.57 5233.98 0 1378.8 5311.27 0 688.679 5355.49 0 0 5365.64 0 6976.7 -0.0848968 0 6930 535.564 0 6791.18 1060.22 0 6563.99 1563.67 0 6254.44 2036.65 0 5870.45 2471.38 0 5421.41 2861.97 0 4917.59 3204.56 0 4369.56 3497.44 0 3787.59 3740.94 0 3180.98 3937.12 0 2557.83 4089.33 0 1924.23 4201.66 0 1285.16 4278.27 0 642.814 4322.39 0 0 4338.06 0 6250.03 -0.0585813 0 6210.44 402.757 0 6092.61 797.974 0 5899.26 1178.52 0 5634.77 1537.92 0 5304.93 1870.68 0 4916.64 2172.51 0 4477.51 2440.43 0 3995.49 2672.82 0 3478.43 2869.33 0 2933.81 3030.71 0 2368.28 3158.53 0 1787.77 3254.81 0 1196.91 3321.67 0 600.079 3360.99 0 0 3373.74 0 5714.89 -0.0391372 0 5680.16 288.246 0 5576.65 571.449 0 5406.45 844.823 0 5172.87 1104 0 4880.37 1345.21 0 4534.24 1565.47 0 4140.44 1762.56 0 3705.24 1935.16 0 3235.05 2082.69 0 2736.09 2205.27 0 2214.29 2303.53 0 1675.04 2378.42 0 1123.38 2430.95 0 563.565 2462.07 0 0 2472.25 0 5347.66 -0.0240363 0 5316.06 185.967 0 5221.83 368.834 0 5066.64 545.656 0 4853.19 713.723 0 4585.07 870.689 0 4266.65 1014.64 0 3902.85 1144.12 0 3498.97 1258.19 0 3060.51 1356.34 0 2592.97 1438.47 0 2101.74 1504.77 0 1592.03 1555.64 0 1068.72 1591.53 0 536.591 1612.83 0 0 1620.07 0 5133.03 -0.011425 0 5103.19 91.196 0 5014.18 180.916 0 4867.44 267.756 0 4665.33 350.417 0 4411.02 427.771 0 4108.34 498.882 0 3761.68 563.036 0 3375.81 619.738 0 2955.74 668.706 0 2506.59 709.832 0 2033.47 743.158 0 1541.41 768.811 0 1035.32 786.957 0 519.954 797.803 0 0 801.223 0 5062.43 0 0 5033.16 0 0 4945.83 0 0 4801.82 0 0 4603.38 0 0 4353.53 0 0 4055.95 0 0 3714.86 0 0 3334.87 0 0 2920.83 0 0 2477.74 0 0 2010.62 0 0 1524.43 0 0 1024.11 0 0 514.345 0 0 0 0 0 </DataArray> 
</PointData> 
<Points> 
<DataArray type="Float32" NumberOfComponents="3"> 
0.416 0 0 0.416 0.00133333 0 0.416 0.00266667 0 0.416 0.004 0 0.416 0.00533333 0 0.416 0.00666667 0 0.416 0.008 0 0.416 0.00933333 0 0.416 0.0106667 0 0.416 0.012 0 0.416 0.0133333 0 0.416 0.0146667 0 0.416 0.016 0 0.416 0.0173333 0 0.416 0.0186667 0 0.416 0.02 0 0.418067 0 0 0.418067 0.00133333 0 0.418067 0.00266667 0 0.418067 0.004 0 0.418067 0.00533333 0 0.418067 0.00666667 0 0.418067 0.008 0 0.418067 0.00933333 0 0.418067 0.0106667 0 0.418067 0.012 0 0.418067 0.0133333 0 0.418067 0.0146667 0 0.418067 0.016 0 0.418067 0.0173333 0 0.418067 0.0186667 0 0.418067 0.02 0 0.420133 0 0 0.420133 0.00133333 0 0.420133 0.00266667 0 0.420133 0.004 0 0.420133 0.00533333 0 0.420133 0.00666667 0 0.420133 0.008 0 0.420133 0.00933333 0 0.420133 0.0106667 0 0.420133 0.012 0 0.420133 0.0133333 0 0.420133 0.0146667 0 0.420133 0.016 0 0.420133 0.0173333 0 0.420133 0.0186667 0 0.420133 0.02 0 0.4222 0 0 0.4222 0.00133333 0 0.4222 0.00266667 0 0.4222 0.004 0 0.4222 0.00533333 0 0.4222 0.00666667 0 0.4222 0.008 0 0.4222 0.00933333 0 0.4222 0.0106667 0 0.4222 0.012 0 0.4222 0.0133333 0 0.4222 0.0146667 0 0.4222 0.016 0 0.4222 0.0173333 0 0.4222 0.0186667 0 0.4222 0.02 0 0.424267 0 0 0.424267 0.00133333 0 0.424267 0.00266667 0 0.424267 0.004 0 0.424267 0.00533333 0 0.424267 0.00666667 0 0.424267 0.008 0 0.424267 0.00933333 0 0.424267 0.0106667 0 0.424267 0.012 0 0.424267 0.0133333 0 0.424267 0.0146667 0 0.424267 0.016 0 0.424267 0.0173333 0 0.424267 0.0186667 0 0.424267 0.02 0 0.426333 0 0 0.426333 0.00133333 0 0.426333 0.00266667 0 0.426333 0.004 0 0.426333 0.00533333 0 0.426333 0.00666667 0 0.426333 0.008 0 0.426333 0.00933333 0 0.426333 0.0106667 0 0.426333 0.012 0 0.426333 0.0133333 0 0.426333 0.0146667 0 0.426333 0.016 0 0.426333 0.0173333 0 0.426333 0.0186667 0 0.426333 0.02 0 0.4284 0 0 0.4284 0.00133333 0 0.4284 0.00266667 0 0.4284 0.004 0 0.4284 0.00533333 0 0.4284 0.00666667 0 0.4284 0.008 0 0.4284 0.00933333 0 0.4284 0.0106667 0 0.4284 0.012 0 0.4284 0.0133333 0 0.4284 0.0146667 0 0.4284 0.016 0 0.4284 0.0173333 0 0.4284 0.0186667 0 0.4284 0.02 0 0.430467 0 0 0.430467 0.00133333 0 0.430467 0.00266667 0 0.430467 0.004 0 0.430467 0.00533333 0 0.430467 0.00666667 0 0.430467 0.008 0 0.430467 0.00933333 0 0.430467 0.0106667 0 0.430467 0.012 0 0.430467 0.0133333 0 0.430467 0.0146667 0 0.430467 0.016 0 0.430467 0.0173333 0 0.430467 0.0186667 0 0.430467 0.02 0 0.432533 0 0 0.432533 0.00133333 0 0.432533 0.00266667 0 0.432533 0.004 0 0.432533 0.00533333 0 0.432533 0.00666667 0 0.432533 0.008 0 0.432533 0.00933333 0 0.432533 0.0106667 0 0.432533 0.012 0 0.432533 0.0133333 0 0.432533 0.0146667 0 0.432533 0.016 0 0.432533 0.0173333 0 0.432533 0.0186667 0 0.432533 0.02 0 0.4346 0 0 0.4346 0.00133333 0 0.4346 0.00266667 0 0.4346 0.004 0 0.4346 0.00533333 0 0.4346 0.00666667 0 0.4346 0.008 0 0.4346 0.00933333 0 0.4346 0.0106667 0 0.4346 0.012 0 0.4346 0.0133333 0 0.4346 0.0146667 0 0.4346 0.016 0 0.4346 0.0173333 0 0.4346 0.0186667 0 0.4346 0.02 0 0.436667 0 0 0.436667 0.00133333 0 0.436667 0.00266667 0 0.436667 0.004 0 0.436667 0.00533333 0 0.436667 0.00666667 0 0.436667 0.008 0 0.436667 0.00933333 0 0.436667 0.0106667 0 0.436667 0.012 0 0.436667 0.0133333 0 0.436667 0.0146667 0 0.436667 0.016 0 0.436667 0.0173333 0 0.436667 0.0186667 0 0.436667 0.02 0 0.438733 0 0 0.438733 0.00133333 0 0.438733 0.00266667 0 0.438733 0.004 0 0.438733 0.00533333 0 0.438733 0.00666667 0 0.438733 0.008 0 0.438733 0.00933333 0 0.438733 0.0106667 0 0.438733 0.012 0 0.438733 0.0133333 0 0.438733 0.0146667 0 0.438733 0.016 0 0.438733 0.0173333 0 0.438733 0.0186667 0 0.438733 0.02 0 0.4408 0 0 0.4408 0.00133333 0 0.4408 0.00266667 0 0.4408 0.004 0 0.4408 0.00533333 0 0.4408 0.00666667 0 0.4408 0.008 0 0.4408 0.00933333 0 0.4408 0.0106667 0 0.4408 0.012 0 0.4408 0.0133333 0 0.4408 0.0146667 0 0.4408 0.016 0 0.4408 0.0173333 0 0.4408 0.0186667 0 0.4408 0.02 0 0.442867 0 0 0.442867 0.00133333 0 0.442867 0.00266667 0 0.442867 0.004 0 0.442867 0.00533333 0 0.442867 0.00666667 0 0.442867 0.008 0 0.442867 0.00933333 0 0.442867 0.0106667 0 0.442867 0.012 0 0.442867 0.0133333 0 0.442867 0.0146667 0 0.442867 0.016 0 0.442867 0.0173333 0 0.442867 0.0186667 0 0.442867 0.02 0 0.444933 0 0 0.444933 0.00133333 0 0.444933 0.00266667 0 0.444933 0.004 0 0.444933 0.00533333 0 0.444933 0.00666667 0 0.444933 0.008 0 0.444933 0.00933333 0 0.444933 0.0106667 0 0.444933 0.012 0 0.444933 0.0133333 0 0.444933 0.0146667 0 0.444933 0.016 0 0.444933 0.0173333 0 0.444933 0.0186667 0 0.444933 0.02 0 0.447 0 0 0.447 0.00133333 0 0.447 0.00266667 0 0.447 0.004 0 0.447 0.00533333 0 0.447 0.00666667 0 0.447 0.008 0 0.447 0.00933333 0 0.447 0.0106667 0 0.447 0.012 0 0.447 0.0133333 0 0.447 0.0146667 0 0.447 0.016 0 0.447 0.0173333 0 0.447 0.0186667 0 0.447 0.02 0 
</DataArray>
</Points> 
</Piece> 
</StructuredGrid> 
</VTKFile> 
