<?xml version="1.0"?> 
<VTKFile type="StructuredGrid" version="0.1"> 
<StructuredGrid WholeExtent="0 15 0 15 0 0"> 
<Piece Extent="0 15 0 15 0 0"> 
<PointData>
<DataArray type="Float32" Name="E" format="ascii" NumberOfComponents="3"> 
-519505 0 0 -483019 0 0 -447806 0 0 -413237 0 0 -378927 0 0 -344692 0 0 -310450 0 0 -276164 0 0 -241819 0 0 -207412 0 0 -172945 0 0 -138425 0 0 -103860 0 0 -69260 0 0 -34636.1 0 0 0 0 0 -510635 7323.93 0 -475087 7036.64 0 -440627 6882.11 0 -406686 6816.22 0 -372946 6794.09 0 -339259 6792.08 0 -305556 6799.06 0 -271807 6809.9 0 -238000 6821.99 0 -204133 6833.97 0 -170209 6845.01 0 -136233 6854.57 0 -102214 6862.32 0 -68161.6 6868.01 0 -34086.6 6871.48 0 0 6872.65 0 -501800 14479.8 0 -467180 13976.8 0 -433456 13722.4 0 -400137 13617.5 0 -366967 13584.7 0 -333827 13585.2 0 -300663 13600.8 0 -267452 13622.8 0 -234183 13646.7 0 -200856 13670.2 0 -167473 13691.7 0 -134042 13710.3 0 -100569 13725.4 0 -67064.1 13736.4 0 -33537.6 13743.1 0 0 13745.4 0 -493017 21479 0 -459305 20837.1 0 -426299 20529.7 0 -393593 20407.4 0 -360989 20373.1 0 -328396 20379.9 0 -295772 20405.4 0 -263098 20438.8 0 -230368 20474.3 0 -197581 20508.8 0 -164740 20540.2 0 -131852 20567.4 0 -98925.1 20589.2 0 -65967.4 20605.3 0 -32989 20615.1 0 0 20618.3 0 -484305 28341 0 -451470 27634.7 0 -419159 27312 0 -387056 27189.1 0 -355014 27160.6 0 -322967 27176.7 0 -290882 27213.1 0 -258746 27257.9 0 -226554 27304.6 0 -194307 27349.7 0 -162008 27390.5 0 -129664 27425.7 0 -97282.4 27454 0 -64871.5 27474.7 0 -32440.8 27487.3 0 0 27491.6 0 -475679 35092.2 0 -443680 34386.3 0 -412037 34076.8 0 -380526 33965.6 0 -349043 33948.4 0 -317540 33975.8 0 -285994 34023.9 0 -254395 34080.1 0 -222742 34137.9 0 -191035 34192.9 0 -159278 34242.7 0 -127477 34285.3 0 -95640.8 34319.7 0 -63776.4 34344.8 0 -31893 34360 0 0 34365.2 0 -467149 41762.8 0 -435933 41107 0 -404934 40830.6 0 -374005 40739.6 0 -343075 40737.4 0 -312115 40777.9 0 -281107 40838 0 -250047 40905.7 0 -218931 40974 0 -187764 41038.6 0 -156549 41096.7 0 -125292 41146.5 0 -94000.2 41186.4 0 -62681.9 41215.5 0 -31345.5 41233.3 0 0 41239.2 0 -458715 48383.1 0 -428229 47810 0 -397849 47578.7 0 -367491 47513.5 0 -337111 47528.8 0 -306692 47583.3 0 -276222 47655.7 0 -245699 47734.6 0 -215122 47813 0 -184495 47886.7 0 -153821 47952.7 0 -123108 48009.1 0 -92360.6 48054.2 0 -61588.1 48087.1 0 -30798.4 48107.2 0 0 48113.9 0 -450371 54979.3 0 -420563 54505.6 0 -390781 54325.6 0 -360984 54289.1 0 -331151 54323.4 0 -301271 54392.4 0 -271339 54477.2 0 -241353 54566.9 0 -211315 54655.1 0 -181227 54737.3 0 -151095 54810.8 0 -120924 54873.2 0 -90721.9 54923.2 0 -60495 54959.7 0 -30251.7 54981.8 0 0 54989.2 0 -442103 61571.6 0 -412930 61202 0 -383727 61074.8 0 -354485 61068 0 -325195 61121.8 0 -295853 61205.6 0 -266458 61302.5 0 -237009 61402.8 0 -207509 61500.2 0 -177961 61590.5 0 -148370 61670.8 0 -118742 61739 0 -89084 61793.5 0 -59402.5 61833.2 0 -29705.2 61857.2 0 0 61865.3 0 -433899 68174.5 0 -405325 67904.8 0 -376686 67828.9 0 -347991 67851.6 0 -319242 67924.9 0 -290437 68023.1 0 -261578 68132 0 -232666 68242.3 0 -203704 68348.5 0 -174696 68446.4 0 -145646 68533.1 0 -116561 68606.5 0 -87446.9 68665.1 0 -58310.5 68707.7 0 -29159 68733.6 0 0 68742.3 0 -425744 74796.7 0 -397742 74617.9 0 -369656 74589.8 0 -341503 74640.8 0 -313291 74732.9 0 -285023 74845.4 0 -256700 74965.6 0 -228325 75085.6 0 -199901 75200 0 -171432 75304.9 0 -142923 75397.5 0 -114381 75475.8 0 -85810.6 75538.2 0 -57219 75583.5 0 -28613.1 75611 0 0 75620.2 0 -417627 81442.9 0 -390178 81343.5 0 -362634 81358.9 0 -335020 81436.3 0 -307344 81546.5 0 -279611 81672.5 0 -251823 81803.6 0 -223984 81932.6 0 -196098 82054.7 0 -168169 82166.1 0 -140202 82264.2 0 -112202 82346.9 0 -84174.9 82412.8 0 -56128 82460.5 0 -28067.5 82489.5 0 0 82499.2 0 -409538 88114.6 0 -382627 88082.9 0 -355620 88137 0 -328541 88238.8 0 -301399 88365.9 0 -274200 88504.7 0 -246947 88646.1 0 -219645 88783.6 0 -192297 88912.8 0 -164907 89030.2 0 -137481 89133.3 0 -110023 89220 0 -82539.9 89288.9 0 -55037.5 89338.9 0 -27522 89369.2 0 0 89379.4 0 -401467 94811.6 0 -375086 94836.6 0 -348612 94924.7 0 -322065 95048.5 0 -295456 95191.4 0 -268791 95342.2 0 -242073 95493.1 0 -215307 95638.6 0 -188496 95774.3 0 -161646 95897.2 0 -134761 96004.8 0 -107845 96095.1 0 -80905.5 96166.8 0 -53947.3 96218.8 0 -26976.8 96250.3 0 0 96260.8 0 -393405 101531 0 -367553 101605 0 -341608 101722 0 -315591 101866 0 -289515 102023 0 -263383 102185 0 -237200 102345 0 -210970 102498 0 -184697 102639 0 -158386 102767 0 -132041 102879 0 -105668 102972 0 -79271.5 103047 0 -52857.6 103100 0 -26431.7 103133 0 0 103144 0 </DataArray> 
</PointData> 
<Points> 
<DataArray type="Float32" NumberOfComponents="3"> 
0 0.065 0 0 0.0692 0 0 0.0734 0 0 0.0776 0 0 0.0818 0 0 0.086 0 0 0.0902 0 0 0.0944 0 0 0.0986 0 0 0.1028 0 0 0.107 0 0 0.1112 0 0 0.1154 0 0 0.1196 0 0 0.1238 0 0 0.128 0 0.000833333 0.066 0 0.000833333 0.0701333 0 0.000833333 0.0742667 0 0.000833333 0.0784 0 0.000833333 0.0825333 0 0.000833333 0.0866667 0 0.000833333 0.0908 0 0.000833333 0.0949333 0 0.000833333 0.0990667 0 0.000833333 0.1032 0 0.000833333 0.107333 0 0.000833333 0.111467 0 0.000833333 0.1156 0 0.000833333 0.119733 0 0.000833333 0.123867 0 0.000833333 0.128 0 0.00166667 0.067 0 0.00166667 0.0710667 0 0.00166667 0.0751333 0 0.00166667 0.0792 0 0.00166667 0.0832667 0 0.00166667 0.0873333 0 0.00166667 0.0914 0 0.00166667 0.0954667 0 0.00166667 0.0995333 0 0.00166667 0.1036 0 0.00166667 0.107667 0 0.00166667 0.111733 0 0.00166667 0.1158 0 0.00166667 0.119867 0 0.00166667 0.123933 0 0.00166667 0.128 0 0.0025 0.068 0 0.0025 0.072 0 0.0025 0.076 0 0.0025 0.08 0 0.0025 0.084 0 0.0025 0.088 0 0.0025 0.092 0 0.0025 0.096 0 0.0025 0.1 0 0.0025 0.104 0 0.0025 0.108 0 0.0025 0.112 0 0.0025 0.116 0 0.0025 0.12 0 0.0025 0.124 0 0.0025 0.128 0 0.00333333 0.069 0 0.00333333 0.0729333 0 0.00333333 0.0768667 0 0.00333333 0.0808 0 0.00333333 0.0847333 0 0.00333333 0.0886667 0 0.00333333 0.0926 0 0.00333333 0.0965333 0 0.00333333 0.100467 0 0.00333333 0.1044 0 0.00333333 0.108333 0 0.00333333 0.112267 0 0.00333333 0.1162 0 0.00333333 0.120133 0 0.00333333 0.124067 0 0.00333333 0.128 0 0.00416667 0.07 0 0.00416667 0.0738667 0 0.00416667 0.0777333 0 0.00416667 0.0816 0 0.00416667 0.0854667 0 0.00416667 0.0893333 0 0.00416667 0.0932 0 0.00416667 0.0970667 0 0.00416667 0.100933 0 0.00416667 0.1048 0 0.00416667 0.108667 0 0.00416667 0.112533 0 0.00416667 0.1164 0 0.00416667 0.120267 0 0.00416667 0.124133 0 0.00416667 0.128 0 0.005 0.071 0 0.005 0.0748 0 0.005 0.0786 0 0.005 0.0824 0 0.005 0.0862 0 0.005 0.09 0 0.005 0.0938 0 0.005 0.0976 0 0.005 0.1014 0 0.005 0.1052 0 0.005 0.109 0 0.005 0.1128 0 0.005 0.1166 0 0.005 0.1204 0 0.005 0.1242 0 0.005 0.128 0 0.00583333 0.072 0 0.00583333 0.0757333 0 0.00583333 0.0794667 0 0.00583333 0.0832 0 0.00583333 0.0869333 0 0.00583333 0.0906667 0 0.00583333 0.0944 0 0.00583333 0.0981333 0 0.00583333 0.101867 0 0.00583333 0.1056 0 0.00583333 0.109333 0 0.00583333 0.113067 0 0.00583333 0.1168 0 0.00583333 0.120533 0 0.00583333 0.124267 0 0.00583333 0.128 0 0.00666667 0.073 0 0.00666667 0.0766667 0 0.00666667 0.0803333 0 0.00666667 0.084 0 0.00666667 0.0876667 0 0.00666667 0.0913333 0 0.00666667 0.095 0 0.00666667 0.0986667 0 0.00666667 0.102333 0 0.00666667 0.106 0 0.00666667 0.109667 0 0.00666667 0.113333 0 0.00666667 0.117 0 0.00666667 0.120667 0 0.00666667 0.124333 0 0.00666667 0.128 0 0.0075 0.074 0 0.0075 0.0776 0 0.0075 0.0812 0 0.0075 0.0848 0 0.0075 0.0884 0 0.0075 0.092 0 0.0075 0.0956 0 0.0075 0.0992 0 0.0075 0.1028 0 0.0075 0.1064 0 0.0075 0.11 0 0.0075 0.1136 0 0.0075 0.1172 0 0.0075 0.1208 0 0.0075 0.1244 0 0.0075 0.128 0 0.00833333 0.075 0 0.00833333 0.0785333 0 0.00833333 0.0820667 0 0.00833333 0.0856 0 0.00833333 0.0891333 0 0.00833333 0.0926667 0 0.00833333 0.0962 0 0.00833333 0.0997333 0 0.00833333 0.103267 0 0.00833333 0.1068 0 0.00833333 0.110333 0 0.00833333 0.113867 0 0.00833333 0.1174 0 0.00833333 0.120933 0 0.00833333 0.124467 0 0.00833333 0.128 0 0.00916667 0.076 0 0.00916667 0.0794667 0 0.00916667 0.0829333 0 0.00916667 0.0864 0 0.00916667 0.0898667 0 0.00916667 0.0933333 0 0.00916667 0.0968 0 0.00916667 0.100267 0 0.00916667 0.103733 0 0.00916667 0.1072 0 0.00916667 0.110667 0 0.00916667 0.114133 0 0.00916667 0.1176 0 0.00916667 0.121067 0 0.00916667 0.124533 0 0.00916667 0.128 0 0.01 0.077 0 0.01 0.0804 0 0.01 0.0838 0 0.01 0.0872 0 0.01 0.0906 0 0.01 0.094 0 0.01 0.0974 0 0.01 0.1008 0 0.01 0.1042 0 0.01 0.1076 0 0.01 0.111 0 0.01 0.1144 0 0.01 0.1178 0 0.01 0.1212 0 0.01 0.1246 0 0.01 0.128 0 0.0108333 0.078 0 0.0108333 0.0813333 0 0.0108333 0.0846667 0 0.0108333 0.088 0 0.0108333 0.0913333 0 0.0108333 0.0946667 0 0.0108333 0.098 0 0.0108333 0.101333 0 0.0108333 0.104667 0 0.0108333 0.108 0 0.0108333 0.111333 0 0.0108333 0.114667 0 0.0108333 0.118 0 0.0108333 0.121333 0 0.0108333 0.124667 0 0.0108333 0.128 0 0.0116667 0.079 0 0.0116667 0.0822667 0 0.0116667 0.0855333 0 0.0116667 0.0888 0 0.0116667 0.0920667 0 0.0116667 0.0953333 0 0.0116667 0.0986 0 0.0116667 0.101867 0 0.0116667 0.105133 0 0.0116667 0.1084 0 0.0116667 0.111667 0 0.0116667 0.114933 0 0.0116667 0.1182 0 0.0116667 0.121467 0 0.0116667 0.124733 0 0.0116667 0.128 0 0.0125 0.08 0 0.0125 0.0832 0 0.0125 0.0864 0 0.0125 0.0896 0 0.0125 0.0928 0 0.0125 0.096 0 0.0125 0.0992 0 0.0125 0.1024 0 0.0125 0.1056 0 0.0125 0.1088 0 0.0125 0.112 0 0.0125 0.1152 0 0.0125 0.1184 0 0.0125 0.1216 0 0.0125 0.1248 0 0.0125 0.128 0 
</DataArray>
</Points> 
</Piece> 
</StructuredGrid> 
</VTKFile> 
