<?xml version="1.0"?> 
<VTKFile type="StructuredGrid" version="0.1"> 
<StructuredGrid WholeExtent="0 15 0 15 0 0"> 
<Piece Extent="0 15 0 15 0 0"> 
<PointData>
<DataArray type="Float32" Name="E" format="ascii" NumberOfComponents="3"> 
1.57567e+06 -160783 0 1.58982e+06 -162226 0 1.60042e+06 -163309 0 1.60752e+06 -164033 0 1.6111e+06 -164398 0 1.61108e+06 -164396 0 1.60731e+06 -164011 0 1.59949e+06 -163213 0 1.58722e+06 -161961 0 1.56994e+06 -160198 0 1.54691e+06 -157848 0 1.51723e+06 -154820 0 1.47986e+06 -151006 0 1.4336e+06 -146286 0 1.3772e+06 -140530 0 1.30939e+06 -133611 0 1.82999e+06 -170211 0 1.82305e+06 -180715 0 1.81708e+06 -191940 0 1.81209e+06 -203850 0 1.80808e+06 -216409 0 1.80509e+06 -229586 0 1.80318e+06 -243346 0 1.80245e+06 -257644 0 1.80305e+06 -272401 0 1.80517e+06 -287485 0 1.80902e+06 -302688 0 1.81488e+06 -317718 0 1.823e+06 -332185 0 1.83368e+06 -345597 0 1.84717e+06 -357362 0 1.86368e+06 -366813 0 2.02111e+06 -161528 0 2.01534e+06 -173210 0 2.01066e+06 -184602 0 2.00716e+06 -195796 0 2.00491e+06 -206856 0 2.004e+06 -217812 0 2.0045e+06 -228662 0 2.00646e+06 -239382 0 2.00994e+06 -249943 0 2.01493e+06 -260332 0 2.02145e+06 -270571 0 2.02946e+06 -280747 0 2.03891e+06 -291033 0 2.04976e+06 -301735 0 2.06195e+06 -313329 0 2.07546e+06 -326489 0 2.17468e+06 -138126 0 2.16845e+06 -145850 0 2.16336e+06 -154135 0 2.15953e+06 -162742 0 2.15706e+06 -171484 0 2.15602e+06 -180202 0 2.15647e+06 -188764 0 2.15845e+06 -197046 0 2.162e+06 -204922 0 2.16711e+06 -212249 0 2.17377e+06 -218852 0 2.18191e+06 -224502 0 2.19145e+06 -228887 0 2.20225e+06 -231562 0 2.21409e+06 -231890 0 2.22669e+06 -228957 0 2.2827e+06 -97705.3 0 2.27752e+06 -105832 0 2.27329e+06 -113586 0 2.27011e+06 -121028 0 2.26806e+06 -128167 0 2.26724e+06 -134962 0 2.26772e+06 -141343 0 2.26953e+06 -147225 0 2.27269e+06 -152512 0 2.27716e+06 -157113 0 2.28289e+06 -160952 0 2.28981e+06 -164002 0 2.29784e+06 -166312 0 2.30689e+06 -168072 0 2.31688e+06 -169697 0 2.3278e+06 -171900 0 2.353e+06 -67068.3 0 2.34946e+06 -71907.7 0 2.34653e+06 -77072.5 0 2.34436e+06 -82314 0 2.34303e+06 -87477.7 0 2.34264e+06 -92425.9 0 2.34321e+06 -97024 0 2.34479e+06 -101140 0 2.34738e+06 -104655 0 2.35096e+06 -107472 0 2.3555e+06 -109512 0 2.36089e+06 -110689 0 2.36702e+06 -110879 0 2.37369e+06 -109872 0 2.38068e+06 -107303 0 2.38769e+06 -102507 0 2.3929e+06 -38276.5 0 2.3911e+06 -42422.4 0 2.38963e+06 -46434.3 0 2.38857e+06 -50247.9 0 2.38799e+06 -53787 0 2.38798e+06 -56976.1 0 2.38861e+06 -59767.8 0 2.38991e+06 -62128 0 2.39186e+06 -64004.9 0 2.3944e+06 -65313.2 0 2.39744e+06 -65946.1 0 2.4009e+06 -65817.1 0 2.40469e+06 -64910.4 0 2.4087e+06 -63330.7 0 2.41287e+06 -61366.1 0 2.41714e+06 -59521.4 0 2.41213e+06 -21499.3 0 2.41131e+06 -23068.4 0 2.41074e+06 -24804.4 0 2.41047e+06 -26668 0 2.41053e+06 -28647.2 0 2.4109e+06 -30634.7 0 2.41155e+06 -32443.6 0 2.41249e+06 -33870.9 0 2.41371e+06 -34773.1 0 2.41523e+06 -35111.6 0 2.41701e+06 -34939.7 0 2.41899e+06 -34346.1 0 2.42107e+06 -33384 0 2.42312e+06 -32018.4 0 2.42499e+06 -30101 0 2.42653e+06 -27265.8 0 2.4204e+06 -9746.22 0 2.42023e+06 -11518.5 0 2.42005e+06 -13168.3 0 2.41988e+06 -14426.1 0 2.41979e+06 -15202 0 2.41988e+06 -15575.7 0 2.4202e+06 -15747.6 0 2.42074e+06 -15921.3 0 2.42146e+06 -16190.6 0 2.42224e+06 -16489.8 0 2.42301e+06 -16629.9 0 2.42369e+06 -16400.4 0 2.42426e+06 -15682.8 0 2.42472e+06 -14525.9 0 2.42508e+06 -13175 0 2.42535e+06 -12002.6 0 2.42344e+06 -9016.54 0 2.42287e+06 -7512.32 0 2.42263e+06 -6735.48 0 2.42266e+06 -6843.46 0 2.42283e+06 -7745.36 0 2.42301e+06 -9073.51 0 2.42312e+06 -10337.8 0 2.42313e+06 -11117.4 0 2.4231e+06 -11216 0 2.42308e+06 -10720.6 0 2.42313e+06 -9940.99 0 2.42325e+06 -9268.3 0 2.42339e+06 -9012.37 0 2.42346e+06 -9286.99 0 2.42339e+06 -9982.96 0 2.42311e+06 -10751.3 0 2.43276e+06 -11677.8 0 2.43154e+06 -13978.9 0 2.43017e+06 -14754 0 2.42878e+06 -14027.4 0 2.42755e+06 -12267.3 0 2.42661e+06 -10194.3 0 2.42604e+06 -8559.89 0 2.42579e+06 -7914.87 0 2.42576e+06 -8452.91 0 2.4258e+06 -9981.53 0 2.42581e+06 -12022.1 0 2.42573e+06 -14000.2 0 2.42559e+06 -15452.3 0 2.42551e+06 -16183.1 0 2.4256e+06 -16333 0 2.42599e+06 -16282.9 0 2.44416e+06 5330.26 0 2.44288e+06 4098.23 0 2.44216e+06 778.642 0 2.44178e+06 -4092.74 0 2.44148e+06 -9632.88 0 2.4411e+06 -14818.4 0 2.44058e+06 -18760.9 0 2.43997e+06 -20931.8 0 2.4394e+06 -21283.4 0 2.43906e+06 -20240.3 0 2.4391e+06 -18567.1 0 2.43961e+06 -17156.6 0 2.44063e+06 -16798.8 0 2.44211e+06 -17992.5 0 2.44399e+06 -20848.8 0 2.44622e+06 -25057.6 0 2.48404e+06 9701.63 0 2.48075e+06 6521.73 0 2.47742e+06 6741.72 0 2.47439e+06 8946.97 0 2.47197e+06 11597.9 0 2.47035e+06 13315.3 0 2.46962e+06 13088.9 0 2.46976e+06 10420.6 0 2.47067e+06 5367.56 0 2.47222e+06 -1518.74 0 2.47433e+06 -9341.66 0 2.47697e+06 -17063.2 0 2.48023e+06 -23718 0 2.48425e+06 -28597 0 2.48923e+06 -31373.3 0 2.49538e+06 -32095.3 0 2.53828e+06 177450 0 2.53847e+06 145945 0 2.53987e+06 116864 0 2.54211e+06 91124.9 0 2.54489e+06 69551.4 0 2.54803e+06 52693.7 0 2.55147e+06 40727.6 0 2.55526e+06 33409.5 0 2.55953e+06 30091.4 0 2.56446e+06 29792.4 0 2.57023e+06 31310.6 0 2.57701e+06 33360.8 0 2.58492e+06 34713.8 0 2.59403e+06 34319.9 0 2.60441e+06 31394.4 0 2.61611e+06 25496.3 0 2.79198e+06 667971 0 2.79403e+06 602303 0 2.79295e+06 543431 0 2.79008e+06 490382 0 2.7867e+06 442221 0 2.784e+06 398116 0 2.78304e+06 357354 0 2.78474e+06 319329 0 2.78985e+06 283534 0 2.79894e+06 249538 0 2.81241e+06 216963 0 2.83052e+06 185470 0 2.85332e+06 154743 0 2.8807e+06 124483 0 2.91235e+06 94413.2 0 2.94776e+06 64331.9 0 2.15861e+06 3.87504e+06 0 2.49603e+06 3.73072e+06 0 2.82754e+06 3.54688e+06 0 3.14787e+06 3.3243e+06 0 3.45137e+06 3.06423e+06 0 3.73223e+06 2.76873e+06 0 3.98468e+06 2.44085e+06 0 4.20325e+06 2.08466e+06 0 4.38299e+06 1.70529e+06 0 4.51963e+06 1.30874e+06 0 4.60974e+06 901854 0 4.65083e+06 492075 0 4.64144e+06 87317.9 0 4.58115e+06 -304218 0 4.4706e+06 -674225 0 4.31146e+06 -1.01446e+06 0 </DataArray> 
</PointData> 
<Points> 
<DataArray type="Float32" NumberOfComponents="3"> 
0.307 0.005 0 0.307033 0.00532667 0 0.307067 0.00565333 0 0.3071 0.00598 0 0.307133 0.00630667 0 0.307167 0.00663333 0 0.3072 0.00696 0 0.307233 0.00728667 0 0.307267 0.00761333 0 0.3073 0.00794 0 0.307333 0.00826667 0 0.307367 0.00859333 0 0.3074 0.00892 0 0.307433 0.00924667 0 0.307467 0.00957333 0 0.3075 0.0099 0 0.312716 0.00536037 0 0.312597 0.00566717 0 0.312497 0.00597717 0 0.312418 0.00629014 0 0.31236 0.00660588 0 0.312322 0.00692417 0 0.312304 0.00724477 0 0.312307 0.00756747 0 0.31233 0.00789203 0 0.312375 0.00821822 0 0.312439 0.0085458 0 0.312524 0.00887453 0 0.31263 0.00920417 0 0.312755 0.00953448 0 0.312901 0.00986522 0 0.313067 0.0101962 0 0.318432 0.00572074 0 0.318178 0.00600882 0 0.317962 0.00630303 0 0.317783 0.00660297 0 0.317642 0.00690828 0 0.317539 0.00721852 0 0.317475 0.00753327 0 0.317449 0.00785209 0 0.317463 0.00817452 0 0.317516 0.00850009 0 0.317607 0.00882831 0 0.317737 0.00915872 0 0.317905 0.00949081 0 0.318111 0.00982409 0 0.318354 0.0101581 0 0.318633 0.0104923 0 0.324148 0.00608111 0 0.323779 0.00635163 0 0.323461 0.00663093 0 0.323194 0.00691854 0 0.32298 0.00721391 0 0.32282 0.00751646 0 0.322714 0.00782558 0 0.322662 0.00814061 0 0.322666 0.00846087 0 0.322724 0.00878567 0 0.322838 0.00911427 0 0.323005 0.00944594 0 0.323226 0.00977995 0 0.3235 0.0101155 0 0.323825 0.0104519 0 0.3242 0.0107885 0 0.329863 0.00644148 0 0.329399 0.00669558 0 0.328995 0.00696091 0 0.328653 0.00723688 0 0.328376 0.00752284 0 0.328166 0.00781806 0 0.328022 0.00812177 0 0.327947 0.0084331 0 0.32794 0.00875117 0 0.328002 0.00907504 0 0.328132 0.00940374 0 0.32833 0.00973626 0 0.328594 0.0100716 0 0.328923 0.0104088 0 0.329314 0.0107468 0 0.329767 0.0110846 0 0.335579 0.00680186 0 0.335038 0.00704071 0 0.334563 0.00729297 0 0.33416 0.00755801 0 0.333831 0.0078351 0 0.333577 0.00812338 0 0.333401 0.00842191 0 0.333305 0.00872965 0 0.333288 0.0090455 0 0.333351 0.00936828 0 0.333493 0.00969677 0 0.333713 0.0100297 0 0.334009 0.0103659 0 0.33438 0.0107039 0 0.334823 0.0110426 0 0.335333 0.0113808 0 0.341295 0.00716223 0 0.340695 0.007387 0 0.340167 0.00762714 0 0.339716 0.00788199 0 0.339344 0.00815076 0 0.339056 0.00843249 0 0.338853 0.00872609 0 0.338738 0.00903034 0 0.33871 0.00934393 0 0.338771 0.00966546 0 0.338919 0.00999345 0 0.339154 0.0103264 0 0.339472 0.0106627 0 0.339872 0.0110009 0 0.340349 0.0113395 0 0.3409 0.0116769 0 0.347011 0.0075226 0 0.346372 0.00773446 0 0.345807 0.00796343 0 0.345321 0.00820885 0 0.344918 0.00846988 0 0.344603 0.00874546 0 0.344379 0.00903438 0 0.344247 0.00933526 0 0.344209 0.00964657 0 0.344265 0.00996666 0 0.344414 0.0102938 0 0.344655 0.0106263 0 0.344984 0.0109622 0 0.345399 0.0112998 0 0.345895 0.0116373 0 0.346467 0.0119731 0 0.352727 0.00788297 0 0.352068 0.0080831 0 0.351483 0.00830187 0 0.350976 0.00853863 0 0.350554 0.0087925 0 0.35022 0.00906237 0 0.34998 0.00934688 0 0.349834 0.0096445 0 0.349785 0.00995349 0 0.349833 0.010272 0 0.349978 0.010598 0 0.350216 0.0109295 0 0.350545 0.0112644 0 0.350961 0.0116006 0 0.351459 0.0119362 0 0.352033 0.0122692 0 0.358443 0.00824334 0 0.357784 0.00843294 0 0.357195 0.00864248 0 0.356682 0.00887136 0 0.356251 0.00911869 0 0.355908 0.00938328 0 0.355657 0.00966367 0 0.355501 0.00995815 0 0.355441 0.0102648 0 0.355478 0.0105815 0 0.355612 0.010906 0 0.355838 0.011236 0 0.356156 0.0115692 0 0.356559 0.0119033 0 0.357042 0.0122361 0 0.3576 0.0125654 0 0.364159 0.00860371 0 0.363519 0.00878396 0 0.362943 0.00898527 0 0.362439 0.00920709 0 0.362012 0.00944851 0 0.361669 0.00970828 0 0.361414 0.00998484 0 0.36125 0.0102763 0 0.361179 0.0105806 0 0.361202 0.0108953 0 0.361317 0.0112179 0 0.361524 0.011546 0 0.361817 0.0118768 0 0.362193 0.012208 0 0.362645 0.012537 0 0.363167 0.0128616 0 0.369874 0.00896408 0 0.369274 0.00913618 0 0.368729 0.00933028 0 0.368248 0.00954586 0 0.367838 0.00978202 0 0.367503 0.0100375 0 0.36725 0.0103105 0 0.367081 0.0105991 0 0.366999 0.0109009 0 0.367004 0.0112134 0 0.367096 0.0115338 0 0.367272 0.0118594 0 0.367529 0.0121872 0 0.367863 0.0125146 0 0.368266 0.0128389 0 0.368733 0.0131577 0 0.37559 0.00932445 0 0.375048 0.00948961 0 0.374552 0.00967751 0 0.37411 0.00988771 0 0.373729 0.0101193 0 0.373413 0.0103709 0 0.373168 0.0106407 0 0.372998 0.0109265 0 0.372904 0.0112259 0 0.372888 0.011536 0 0.37295 0.0118538 0 0.373086 0.0121763 0 0.373294 0.0125005 0 0.373569 0.0128232 0 0.373907 0.0131419 0 0.3743 0.0134539 0 0.381306 0.00968482 0 0.380842 0.00984425 0 0.380413 0.010027 0 0.380026 0.0102327 0 0.379686 0.0104603 0 0.379399 0.0107086 0 0.37917 0.0109755 0 0.379001 0.0112588 0 0.378896 0.0115557 0 0.378855 0.0118632 0 0.378879 0.012178 0 0.378965 0.0124969 0 0.379111 0.0128165 0 0.379313 0.0131339 0 0.379567 0.0134459 0 0.379867 0.01375 0 0.387022 0.0100452 0 0.386656 0.0102001 0 0.386312 0.0103788 0 0.385996 0.0105808 0 0.385711 0.0108053 0 0.385464 0.0110508 0 0.385257 0.0113152 0 0.385094 0.011596 0 0.384977 0.0118904 0 0.384907 0.012195 0 0.384886 0.0125064 0 0.384911 0.0128211 0 0.384981 0.0131355 0 0.385094 0.0134465 0 0.385246 0.0137509 0 0.385433 0.0140462 0 0.392738 0.0104056 0 0.39249 0.0105572 0 0.39225 0.0107328 0 0.392021 0.0109321 0 0.391806 0.0111542 0 0.391608 0.0113974 0 0.391431 0.0116596 0 0.391277 0.0119382 0 0.391148 0.01223 0 0.391046 0.0125315 0 0.390972 0.0128391 0 0.390925 0.0131489 0 0.390906 0.0134574 0 0.390913 0.0137612 0 0.390945 0.014057 0 0.391 0.0143423 0 
</DataArray>
</Points> 
</Piece> 
</StructuredGrid> 
</VTKFile> 
