<?xml version="1.0"?> 
<VTKFile type="StructuredGrid" version="0.1"> 
<StructuredGrid WholeExtent="0 15 0 15 0 0"> 
<Piece Extent="0 15 0 15 0 0"> 
<PointData>
<DataArray type="Float32" Name="E" format="ascii" NumberOfComponents="3"> 
-138688 3.72529e-09 0 -119840 -1.80535e-10 0 -116107 1.12777e-09 0 -115101 -7.60338e-10 0 -115158 -1.16415e-10 0 -116256 1.30967e-10 0 -118220 -1.17871e-09 0 -121170 2.91038e-10 0 -125291 7.27596e-10 0 -130800 -1.68802e-09 0 -138412 2.50293e-09 0 -148467 -2.32831e-09 0 -163655 1.57161e-09 0 -185368 -6.98492e-10 0 -229585 9.31323e-10 0 -406317 3.72529e-09 0 -118142 9693.63 0 -117103 4292.72 0 -115243 1717.85 0 -114477 356.078 0 -114719 -631.33 0 -115802 -1515.63 0 -117741 -2421.12 0 -120608 -3453.64 0 -124563 -4703.71 0 -129892 -6329.98 0 -136977 -8537.37 0 -146590 -11798.7 0 -159657 -17014 0 -178518 -26600.4 0 -204840 -48601.9 0 -222947 -101306 0 -113489 9475.92 0 -113506 5380.88 0 -113077 2524.79 0 -112960 398.514 0 -113413 -1353.59 0 -114524 -2998.51 0 -116345 -4724.42 0 -118964 -6685.02 0 -122517 -9061.85 0 -127191 -12083.2 0 -133257 -16128 0 -141023 -21801.6 0 -150841 -30270.4 0 -162480 -43697.9 0 -173711 -65407.8 0 -176450 -99511.7 0 -109881 8410.07 0 -110320 5405.41 0 -110527 2559.2 0 -110830 92.1133 0 -111458 -2165.8 0 -112539 -4401.32 0 -114159 -6790.76 0 -116400 -9517.12 0 -119354 -12785 0 -123125 -16869.5 0 -127808 -22146.5 0 -133429 -29196 0 -139779 -38852.5 0 -146029 -52237.4 0 -150097 -70391.8 0 -148566 -91026.9 0 -106796 7970.71 0 -107388 4978.19 0 -107857 2208.93 0 -108360 -425.911 0 -109044 -3000.11 0 -110016 -5647.89 0 -111355 -8527.56 0 -113124 -11814.1 0 -115374 -15715.9 0 -118137 -20485.3 0 -121392 -26452.6 0 -125009 -34027.4 0 -128615 -43703.1 0 -131454 -55909.5 0 -132224 -70569 0 -129448 -87409.9 0 -103949 7171.89 0 -104585 4432.63 0 -105146 1695.16 0 -105702 -1012.04 0 -106336 -3762.9 0 -107123 -6666.92 0 -108119 -9860.91 0 -109363 -13506.3 0 -110875 -17788.1 0 -112638 -22923.9 0 -114580 -29159.1 0 -116525 -36761.9 0 -118140 -45964.5 0 -118867 -56858.1 0 -118007 -69240.8 0 -114929 -82081.5 0 -101196 6513.95 0 -101869 3818.77 0 -102445 1148.2 0 -102963 -1561.32 0 -103473 -4377.66 0 -104018 -7399.13 0 -104632 -10748 0 -105331 -14566.1 0 -106114 -19013.8 0 -106944 -24264.6 0 -107737 -30498.1 0 -108340 -37871.7 0 -108503 -46479.9 0 -107893 -56277.6 0 -106112 -66981.1 0 -102835 -78218.7 0 -98575.6 5751.99 0 -99253 3205.1 0 -99800.8 632.039 0 -100233 -2008.58 0 -100573 -4791.02 0 -100842 -7807.7 0 -101054 -11168.7 0 -101212 -14999.4 0 -101298 -19436.5 0 -101273 -24621.3 0 -101068 -30685 0 -100573 -37725.7 0 -99641.3 -45769.1 0 -98085.6 -54723.8 0 -95736.1 -64346.9 0 -92481.1 -74185.5 0 -96083.3 5008.05 0 -96770 2599.17 0 -97273.8 181.807 0 -97595.7 -2317.44 0 -97742.4 -4973.39 0 -97720.2 -7874.5 0 -97529.1 -11121.8 0 -97159 -14827.1 0 -96587.1 -19110.7 0 -95777.7 -24093.3 0 -94681.3 -29883.8 0 -93241.3 -36556.4 0 -91394.3 -44120.1 0 -89093.3 -52481.5 0 -86297 -61417.7 0 -82989.8 -70582.6 0 -93766.2 4190.25 0 -94472.1 2012.6 0 -94929.9 -190.014 0 -95133.1 -2471.79 0 -95079.7 -4912.67 0 -94765.5 -7597.29 0 -94180.7 -10618.2 0 -93305.6 -14077.1 0 -92112.1 -18083.9 0 -90566.5 -22752 0 -88639.1 -28189.4 0 -86313.9 -34479 0 -83611.7 -41651.1 0 -80591.1 -49642.4 0 -77364.9 -58248.8 0 -74055.6 -67187.3 0 -91688.7 3376.69 0 -92421.8 1428.07 0 -92840.8 -481.647 0 -92927.4 -2468.25 0 -92676 -4609.78 0 -92080 -6985.35 0 -91120.9 -9678.12 0 -89769.9 -12780 0 -87989.1 -16394.7 0 -85740.6 -20638.1 0 -82998.4 -25633.6 0 -79775.2 -31503.9 0 -76148.6 -38340.6 0 -72306.4 -46154.1 0 -68517.9 -54805.4 0 -65058.4 -63776.8 0 -89878.5 2359.02 0 -90694 843.422 0 -91087.3 -699.587 0 -91057.7 -2309.29 0 -90615.8 -4073.38 0 -89755.1 -6058.06 0 -88451.7 -8331.05 0 -86663.1 -10972.1 0 -84336.1 -14078.9 0 -81413.3 -17771 0 -77852.2 -22200.3 0 -73653.7 -27548.3 0 -68927.6 -34025.8 0 -63961.5 -41807 0 -59303.6 -50836.2 0 -55614.7 -60964.7 0 -88456.1 1414.53 0 -89393.6 203.717 0 -89756.2 -837.297 0 -89598.8 -1993.96 0 -88969.9 -3317.45 0 -87870.5 -4844.25 0 -86265.1 -6618.93 0 -84094.4 -8703.03 0 -81280.2 -11181.6 0 -77732.1 -14175 0 -73357.9 -17850.5 0 -68095.1 -22463.5 0 -61984.4 -28380.2 0 -55349.4 -36092.5 0 -49080.6 -46062 0 -44688.8 -57298.2 0 -87581.2 -287.197 0 -88694.3 -427.333 0 -88938.4 -857.577 0 -88603.2 -1508.7 0 -87788.6 -2359.25 0 -86487.9 -3386.32 0 -84640.9 -4601.37 0 -82166.7 -6044.05 0 -78957.4 -7779.97 0 -74880.6 -9906.5 0 -69766.2 -12588.9 0 -63427.2 -16094.5 0 -55657.4 -20938.3 0 -46510.8 -28079.3 0 -36927.1 -39002.2 0 -30443.2 -55568.6 0 -87451.4 -2183.38 0 -88908.8 -909.255 0 -88668.5 -612.597 0 -88059.9 -831.957 0 -87092.5 -1232.18 0 -85645.3 -1743.37 0 -83641.4 -2360.25 0 -80968 -3099.15 0 -77499.8 -3993.28 0 -73054.8 -5106.66 0 -67412.4 -6529.65 0 -60179.4 -8470.05 0 -50895 -11326.4 0 -38473.3 -16169 0 -22115.1 -26555.4 0 -8610.01 -50596.9 0 -98461.4 0 0 -89781.1 0 0 -88622 0 0 -87931.8 0 0 -86849.3 0 0 -85370.4 0 0 -83299.5 0 0 -80565.3 0 0 -76992.9 0 0 -72442.9 0 0 -66541.6 0 0 -59086.7 0 0 -48840.4 0 0 -35126.9 0 0 -10849.2 0 0 72414.3 0 0 </DataArray> 
</PointData> 
<Points> 
<DataArray type="Float32" NumberOfComponents="3"> 
0.406 0.02 0 0.406 0.0206667 0 0.406 0.0213333 0 0.406 0.022 0 0.406 0.0226667 0 0.406 0.0233333 0 0.406 0.024 0 0.406 0.0246667 0 0.406 0.0253333 0 0.406 0.026 0 0.406 0.0266667 0 0.406 0.0273333 0 0.406 0.028 0 0.406 0.0286667 0 0.406 0.0293333 0 0.406 0.03 0 0.406667 0.02 0 0.406667 0.0206667 0 0.406667 0.0213333 0 0.406667 0.022 0 0.406667 0.0226667 0 0.406667 0.0233333 0 0.406667 0.024 0 0.406667 0.0246667 0 0.406667 0.0253333 0 0.406667 0.026 0 0.406667 0.0266667 0 0.406667 0.0273333 0 0.406667 0.028 0 0.406667 0.0286667 0 0.406667 0.0293333 0 0.406667 0.03 0 0.407333 0.02 0 0.407333 0.0206667 0 0.407333 0.0213333 0 0.407333 0.022 0 0.407333 0.0226667 0 0.407333 0.0233333 0 0.407333 0.024 0 0.407333 0.0246667 0 0.407333 0.0253333 0 0.407333 0.026 0 0.407333 0.0266667 0 0.407333 0.0273333 0 0.407333 0.028 0 0.407333 0.0286667 0 0.407333 0.0293333 0 0.407333 0.03 0 0.408 0.02 0 0.408 0.0206667 0 0.408 0.0213333 0 0.408 0.022 0 0.408 0.0226667 0 0.408 0.0233333 0 0.408 0.024 0 0.408 0.0246667 0 0.408 0.0253333 0 0.408 0.026 0 0.408 0.0266667 0 0.408 0.0273333 0 0.408 0.028 0 0.408 0.0286667 0 0.408 0.0293333 0 0.408 0.03 0 0.408667 0.02 0 0.408667 0.0206667 0 0.408667 0.0213333 0 0.408667 0.022 0 0.408667 0.0226667 0 0.408667 0.0233333 0 0.408667 0.024 0 0.408667 0.0246667 0 0.408667 0.0253333 0 0.408667 0.026 0 0.408667 0.0266667 0 0.408667 0.0273333 0 0.408667 0.028 0 0.408667 0.0286667 0 0.408667 0.0293333 0 0.408667 0.03 0 0.409333 0.02 0 0.409333 0.0206667 0 0.409333 0.0213333 0 0.409333 0.022 0 0.409333 0.0226667 0 0.409333 0.0233333 0 0.409333 0.024 0 0.409333 0.0246667 0 0.409333 0.0253333 0 0.409333 0.026 0 0.409333 0.0266667 0 0.409333 0.0273333 0 0.409333 0.028 0 0.409333 0.0286667 0 0.409333 0.0293333 0 0.409333 0.03 0 0.41 0.02 0 0.41 0.0206667 0 0.41 0.0213333 0 0.41 0.022 0 0.41 0.0226667 0 0.41 0.0233333 0 0.41 0.024 0 0.41 0.0246667 0 0.41 0.0253333 0 0.41 0.026 0 0.41 0.0266667 0 0.41 0.0273333 0 0.41 0.028 0 0.41 0.0286667 0 0.41 0.0293333 0 0.41 0.03 0 0.410667 0.02 0 0.410667 0.0206667 0 0.410667 0.0213333 0 0.410667 0.022 0 0.410667 0.0226667 0 0.410667 0.0233333 0 0.410667 0.024 0 0.410667 0.0246667 0 0.410667 0.0253333 0 0.410667 0.026 0 0.410667 0.0266667 0 0.410667 0.0273333 0 0.410667 0.028 0 0.410667 0.0286667 0 0.410667 0.0293333 0 0.410667 0.03 0 0.411333 0.02 0 0.411333 0.0206667 0 0.411333 0.0213333 0 0.411333 0.022 0 0.411333 0.0226667 0 0.411333 0.0233333 0 0.411333 0.024 0 0.411333 0.0246667 0 0.411333 0.0253333 0 0.411333 0.026 0 0.411333 0.0266667 0 0.411333 0.0273333 0 0.411333 0.028 0 0.411333 0.0286667 0 0.411333 0.0293333 0 0.411333 0.03 0 0.412 0.02 0 0.412 0.0206667 0 0.412 0.0213333 0 0.412 0.022 0 0.412 0.0226667 0 0.412 0.0233333 0 0.412 0.024 0 0.412 0.0246667 0 0.412 0.0253333 0 0.412 0.026 0 0.412 0.0266667 0 0.412 0.0273333 0 0.412 0.028 0 0.412 0.0286667 0 0.412 0.0293333 0 0.412 0.03 0 0.412667 0.02 0 0.412667 0.0206667 0 0.412667 0.0213333 0 0.412667 0.022 0 0.412667 0.0226667 0 0.412667 0.0233333 0 0.412667 0.024 0 0.412667 0.0246667 0 0.412667 0.0253333 0 0.412667 0.026 0 0.412667 0.0266667 0 0.412667 0.0273333 0 0.412667 0.028 0 0.412667 0.0286667 0 0.412667 0.0293333 0 0.412667 0.03 0 0.413333 0.02 0 0.413333 0.0206667 0 0.413333 0.0213333 0 0.413333 0.022 0 0.413333 0.0226667 0 0.413333 0.0233333 0 0.413333 0.024 0 0.413333 0.0246667 0 0.413333 0.0253333 0 0.413333 0.026 0 0.413333 0.0266667 0 0.413333 0.0273333 0 0.413333 0.028 0 0.413333 0.0286667 0 0.413333 0.0293333 0 0.413333 0.03 0 0.414 0.02 0 0.414 0.0206667 0 0.414 0.0213333 0 0.414 0.022 0 0.414 0.0226667 0 0.414 0.0233333 0 0.414 0.024 0 0.414 0.0246667 0 0.414 0.0253333 0 0.414 0.026 0 0.414 0.0266667 0 0.414 0.0273333 0 0.414 0.028 0 0.414 0.0286667 0 0.414 0.0293333 0 0.414 0.03 0 0.414667 0.02 0 0.414667 0.0206667 0 0.414667 0.0213333 0 0.414667 0.022 0 0.414667 0.0226667 0 0.414667 0.0233333 0 0.414667 0.024 0 0.414667 0.0246667 0 0.414667 0.0253333 0 0.414667 0.026 0 0.414667 0.0266667 0 0.414667 0.0273333 0 0.414667 0.028 0 0.414667 0.0286667 0 0.414667 0.0293333 0 0.414667 0.03 0 0.415333 0.02 0 0.415333 0.0206667 0 0.415333 0.0213333 0 0.415333 0.022 0 0.415333 0.0226667 0 0.415333 0.0233333 0 0.415333 0.024 0 0.415333 0.0246667 0 0.415333 0.0253333 0 0.415333 0.026 0 0.415333 0.0266667 0 0.415333 0.0273333 0 0.415333 0.028 0 0.415333 0.0286667 0 0.415333 0.0293333 0 0.415333 0.03 0 0.416 0.02 0 0.416 0.0206667 0 0.416 0.0213333 0 0.416 0.022 0 0.416 0.0226667 0 0.416 0.0233333 0 0.416 0.024 0 0.416 0.0246667 0 0.416 0.0253333 0 0.416 0.026 0 0.416 0.0266667 0 0.416 0.0273333 0 0.416 0.028 0 0.416 0.0286667 0 0.416 0.0293333 0 0.416 0.03 0 
</DataArray>
</Points> 
</Piece> 
</StructuredGrid> 
</VTKFile> 
