<?xml version="1.0"?> 
<VTKFile type="StructuredGrid" version="0.1"> 
<StructuredGrid WholeExtent="0 7 0 7 0 0"> 
<Piece Extent="0 7 0 7 0 0"> 
<PointData>
<DataArray type="Float32" Name="|E|" format="ascii" NumberOfComponents="3"> 
-2.03075e+06 0 0 -2.032e+06 23147.5 0 -2.03557e+06 46717.5 0 -2.04156e+06 72213.6 0 -2.04963e+06 102262 0 -2.05938e+06 134882 0 -2.0712e+06 161499 0 -2.08651e+06 178096 0 -2.00913e+06 0 0 -2.01288e+06 44380.7 0 -2.02325e+06 89578.3 0 -2.04035e+06 135514 0 -2.06543e+06 182347 0 -2.09932e+06 231936 0 -2.13943e+06 282209 0 -2.18259e+06 327633 0 -1.98566e+06 0 0 -1.99306e+06 68474.4 0 -2.01392e+06 138590 0 -2.04975e+06 210671 0 -2.10052e+06 287931 0 -2.16117e+06 369014 0 -2.23103e+06 443862 0 -2.32383e+06 518453 0 -1.96047e+06 0 0 -1.97249e+06 95393.4 0 -2.00748e+06 194153 0 -2.06623e+06 298552 0 -2.14281e+06 413510 0 -2.23941e+06 529536 0 -2.38613e+06 664925 0 -2.58138e+06 887698 0 -1.93364e+06 0 0 -1.95108e+06 125151 0 -2.00307e+06 255796 0 -2.08527e+06 399004 0 -2.19621e+06 561482 0 -2.37074e+06 748818 0 -2.59249e+06 1.09588e+06 0 -2.67963e+06 1.82249e+06 0 -1.90522e+06 0 0 -1.92879e+06 157372 0 -1.99934e+06 323201 0 -2.10713e+06 516475 0 -2.27668e+06 742614 0 -2.49962e+06 1.08202e+06 0 -2.52077e+06 1.73673e+06 0 -2.09248e+06 2.50989e+06 0 -1.8749e+06 0 0 -1.90582e+06 191014 0 -1.99505e+06 399692 0 -2.13719e+06 649573 0 -2.35469e+06 955713 0 -2.43594e+06 1.45303e+06 0 -2.05531e+06 1.91434e+06 0 -1.46317e+06 1.08582e+06 0 -1.84247e+06 0 0 -1.88226e+06 226544 0 -1.99029e+06 486884 0 -2.17156e+06 787544 0 -2.35535e+06 1.17699e+06 0 -2.16765e+06 1.64642e+06 0 -1.70758e+06 1.54471e+06 0 -1.51658e+06 181331 0 </DataArray> 
</PointData> 
<Points> 
<DataArray type="Float32" NumberOfComponents="3"> 
0 0.021 0 0.00228571 0.021 0 0.00457143 0.021 0 0.00685714 0.021 0 0.00914286 0.021 0 0.0114286 0.021 0 0.0137143 0.021 0 0.016 0.021 0 0 0.023 0 0.004 0.023 0 0.008 0.023 0 0.012 0.023 0 0.016 0.023 0 0.02 0.023 0 0.024 0.023 0 0.028 0.023 0 0 0.025 0 0.00571429 0.025 0 0.0114286 0.025 0 0.0171429 0.025 0 0.0228571 0.025 0 0.0285714 0.025 0 0.0342857 0.025 0 0.04 0.025 0 0 0.027 0 0.00742857 0.027 0 0.0148571 0.027 0 0.0222857 0.027 0 0.0297143 0.027 0 0.0371429 0.027 0 0.0445714 0.027 0 0.052 0.027 0 0 0.029 0 0.00914286 0.029 0 0.0182857 0.029 0 0.0274286 0.029 0 0.0365714 0.029 0 0.0457143 0.029 0 0.0548571 0.029 0 0.064 0.029 0 0 0.031 0 0.0108571 0.031 0 0.0217143 0.031 0 0.0325714 0.031 0 0.0434286 0.031 0 0.0542857 0.031 0 0.0651429 0.031 0 0.076 0.031 0 0 0.033 0 0.0125714 0.033 0 0.0251429 0.033 0 0.0377143 0.033 0 0.0502857 0.033 0 0.0628571 0.033 0 0.0754286 0.033 0 0.088 0.033 0 0 0.035 0 0.0142857 0.035 0 0.0285714 0.035 0 0.0428571 0.035 0 0.0571429 0.035 0 0.0714286 0.035 0 0.0857143 0.035 0 0.1 0.035 0 
</DataArray>
</Points> 
</Piece> 
</StructuredGrid> 
</VTKFile> 
