<?xml version="1.0"?> 
<VTKFile type="StructuredGrid" version="0.1"> 
<StructuredGrid WholeExtent="0 7 0 7 0 0"> 
<Piece Extent="0 7 0 7 0 0"> 
<PointData>
<DataArray type="Float32" Name="|E|" format="ascii" NumberOfComponents="3"> 
3.72529e-08 3.63358e+06 0 6.51926e-09 2.39764e+06 0 -9.31323e-09 1.32158e+06 0 -9.31323e-09 584018 0 7.45058e-09 186575 0 -1.86265e-08 44245.9 0 4.47035e-08 9357.93 0 -8.19564e-08 2466.75 0 -358716 2.82309e+06 0 -294095 1.7023e+06 0 -204988 883145 0 -117412 361133 0 -47267.7 110292 0 -13259.2 27611.1 0 -3076.65 6363.76 0 -457.097 1346.08 0 -623910 1.88945e+06 0 -469110 1.08772e+06 0 -307701 512390 0 -155301 183338 0 -55924 51954.8 0 -15928.5 13371.6 0 -4082.91 3307.11 0 -893.518 778.419 0 -739779 1.1467e+06 0 -528193 580010 0 -303559 216263 0 -129284 58560.9 0 -42844.3 14063.3 0 -13006.5 3554.4 0 -3764.04 937.251 0 -1030.02 196.069 0 -731465 519871 0 -445008 167032 0 -204720 19288.9 0 -73383.7 -6876.81 0 -24488.1 -4021.81 0 -8359.49 -1527.15 0 -2801.66 -602.159 0 -889.111 -274.195 0 -510146 -4606.88 0 -230168 -76457.9 0 -79807.3 -53362.7 0 -27444 -22140.2 0 -10775.3 -8245.39 0 -4282.1 -3247.28 0 -1668.88 -1350.79 0 -606.559 -582.361 0 -145614 -190714 0 -38314.6 -86922 0 -12814.3 -35302.2 0 -6834.79 -14809.7 0 -3334.54 -6739.72 0 -1526.83 -3133.01 0 -682.574 -1474.67 0 -272.59 -718.278 0 2.98023e-08 77112.3 0 1.49012e-08 -6452.41 0 -2.98023e-08 -15472.8 0 0 -7941.22 0 7.45058e-09 -4109.78 0 2.23517e-08 -2228.31 0 -4.47035e-08 -1231.8 0 8.9407e-08 -749.39 0 </DataArray> 
</PointData> 
<Points> 
<DataArray type="Float32" NumberOfComponents="3"> 
0.075 0.021 0 0.0821429 0.021 0 0.0892857 0.021 0 0.0964286 0.021 0 0.103571 0.021 0 0.110714 0.021 0 0.117857 0.021 0 0.125 0.021 0 0.08 0.023 0 0.0865306 0.023 0 0.0930612 0.023 0 0.0995918 0.023 0 0.106122 0.023 0 0.112653 0.023 0 0.119184 0.023 0 0.125714 0.023 0 0.085 0.025 0 0.0909184 0.025 0 0.0968367 0.025 0 0.102755 0.025 0 0.108673 0.025 0 0.114592 0.025 0 0.12051 0.025 0 0.126429 0.025 0 0.09 0.027 0 0.0953061 0.027 0 0.100612 0.027 0 0.105918 0.027 0 0.111224 0.027 0 0.116531 0.027 0 0.121837 0.027 0 0.127143 0.027 0 0.095 0.029 0 0.0996939 0.029 0 0.104388 0.029 0 0.109082 0.029 0 0.113776 0.029 0 0.118469 0.029 0 0.123163 0.029 0 0.127857 0.029 0 0.1 0.031 0 0.104082 0.031 0 0.108163 0.031 0 0.112245 0.031 0 0.116327 0.031 0 0.120408 0.031 0 0.12449 0.031 0 0.128571 0.031 0 0.105 0.033 0 0.108469 0.033 0 0.111939 0.033 0 0.115408 0.033 0 0.118878 0.033 0 0.122347 0.033 0 0.125816 0.033 0 0.129286 0.033 0 0.11 0.035 0 0.112857 0.035 0 0.115714 0.035 0 0.118571 0.035 0 0.121429 0.035 0 0.124286 0.035 0 0.127143 0.035 0 0.13 0.035 0 
</DataArray>
</Points> 
</Piece> 
</StructuredGrid> 
</VTKFile> 
