<?xml version="1.0"?> 
<VTKFile type="StructuredGrid" version="0.1"> 
<StructuredGrid WholeExtent="0 7 0 7 0 0"> 
<Piece Extent="0 7 0 7 0 0"> 
<PointData>
<DataArray type="Float32" Name="|E|" format="ascii" NumberOfComponents="3"> 
300999 4.56528e+06 0 305088 4.6273e+06 0 309876 4.69991e+06 0 315539 4.7858e+06 0 322314 4.88856e+06 0 330522 5.01306e+06 0 340607 5.16602e+06 0 353183 5.35675e+06 0 590895 4.329e+06 0 629007 4.3497e+06 0 672128 4.37052e+06 0 721059 4.39065e+06 0 776695 4.40887e+06 0 840047 4.42327e+06 0 912221 4.43102e+06 0 994439 4.42784e+06 0 628771 4.05077e+06 0 660164 4.04624e+06 0 693372 4.04034e+06 0 728397 4.03285e+06 0 765218 4.02364e+06 0 803810 4.01264e+06 0 844159 4.00004e+06 0 886324 3.98636e+06 0 549199 3.8506e+06 0 571162 3.83741e+06 0 593789 3.82316e+06 0 617021 3.80777e+06 0 640769 3.79112e+06 0 664894 3.77308e+06 0 689181 3.75344e+06 0 713263 3.73192e+06 0 426316 3.71285e+06 0 440851 3.6961e+06 0 455621 3.67855e+06 0 470606 3.66017e+06 0 485795 3.64094e+06 0 501198 3.62085e+06 0 516860 3.59989e+06 0 532911 3.5781e+06 0 288067 3.62389e+06 0 296974 3.60586e+06 0 305960 3.58722e+06 0 315008 3.56794e+06 0 324090 3.54802e+06 0 333167 3.52746e+06 0 342181 3.50624e+06 0 351027 3.48437e+06 0 144631 3.57347e+06 0 148842 3.55503e+06 0 153070 3.53605e+06 0 157310 3.51654e+06 0 161556 3.49648e+06 0 165807 3.47589e+06 0 170069 3.45473e+06 0 174365 3.433e+06 0 0 3.55621e+06 0 0 3.5377e+06 0 0 3.5187e+06 0 0 3.49921e+06 0 0 3.47924e+06 0 0 3.45879e+06 0 0 3.43789e+06 0 0 3.41656e+06 0 </DataArray> 
</PointData> 
<Points> 
<DataArray type="Float32" NumberOfComponents="3"> 
0.1815 0.0604836 0 0.182429 0.0604224 0 0.183357 0.0603612 0 0.184286 0.0603 0 0.185214 0.0602388 0 0.186143 0.0601775 0 0.187071 0.0601163 0 0.188 0.0600551 0 0.1815 0.0678431 0 0.182429 0.0677906 0 0.183357 0.0677382 0 0.184286 0.0676857 0 0.185214 0.0676332 0 0.186143 0.0675807 0 0.187071 0.0675283 0 0.188 0.0674758 0 0.1815 0.0752026 0 0.182429 0.0751589 0 0.183357 0.0751151 0 0.184286 0.0750714 0 0.185214 0.0750277 0 0.186143 0.0749839 0 0.187071 0.0749402 0 0.188 0.0748965 0 0.1815 0.0825621 0 0.182429 0.0825271 0 0.183357 0.0824921 0 0.184286 0.0824571 0 0.185214 0.0824221 0 0.186143 0.0823872 0 0.187071 0.0823522 0 0.188 0.0823172 0 0.1815 0.0899216 0 0.182429 0.0898953 0 0.183357 0.0898691 0 0.184286 0.0898428 0 0.185214 0.0898166 0 0.186143 0.0897904 0 0.187071 0.0897641 0 0.188 0.0897379 0 0.1815 0.097281 0 0.182429 0.0972635 0 0.183357 0.0972461 0 0.184286 0.0972286 0 0.185214 0.0972111 0 0.186143 0.0971936 0 0.187071 0.0971761 0 0.188 0.0971586 0 0.1815 0.104641 0 0.182429 0.104632 0 0.183357 0.104623 0 0.184286 0.104614 0 0.185214 0.104606 0 0.186143 0.104597 0 0.187071 0.104588 0 0.188 0.104579 0 0.1815 0.112 0 0.182429 0.112 0 0.183357 0.112 0 0.184286 0.112 0 0.185214 0.112 0 0.186143 0.112 0 0.187071 0.112 0 0.188 0.112 0 
</DataArray>
</Points> 
</Piece> 
</StructuredGrid> 
</VTKFile> 
