<?xml version="1.0"?> 
<VTKFile type="StructuredGrid" version="0.1"> 
<StructuredGrid WholeExtent="0 7 0 7 0 0"> 
<Piece Extent="0 7 0 7 0 0"> 
<PointData>
<DataArray type="Float32" Name="|E|" format="ascii" NumberOfComponents="3"> 
1.26261e+06 -525048 0 1.80582e+06 -31296.6 0 1.55819e+06 127902 0 1.19506e+06 126069 0 899630 93863.1 0 698574 58164.4 0 583330 28048.2 0 543565 0 0 1.33158e+06 -553726 0 1.82009e+06 -28057.7 0 1.55569e+06 148621 0 1.18868e+06 144708 0 895074 107010 0 695604 66464.4 0 581371 31971.7 0 541994 0 0 1.3991e+06 -581802 0 1.83655e+06 -22248.8 0 1.55289e+06 170004 0 1.18206e+06 163278 0 890221 120066 0 692377 74677.5 0 579185 35862 0 540201 0 0 1.466e+06 -609622 0 1.85494e+06 -13777.6 0 1.54973e+06 192053 0 1.1752e+06 181784 0 885069 133024 0 688894 82803.6 0 576771 39717.4 0 538188 0 0 1.53311e+06 -637531 0 1.87498e+06 -2530.88 0 1.54613e+06 214764 0 1.16806e+06 200231 0 879618 145877 0 685155 90842.1 0 574130 43536.2 0 535957 0 0 1.60129e+06 -665881 0 1.89642e+06 11624.4 0 1.542e+06 238129 0 1.16064e+06 218620 0 873866 158622 0 681163 98791.7 0 571262 47317 0 533510 0 0 1.67141e+06 -695041 0 1.91896e+06 28843 0 1.53728e+06 262136 0 1.15293e+06 236946 0 867812 171255 0 676919 106650 0 568169 51058.7 0 530847 0 0 1.74442e+06 -725404 0 1.94229e+06 49304.3 0 1.53189e+06 286763 0 1.1449e+06 255199 0 861454 183775 0 672425 114414 0 564849 54760.9 0 527970 0 0 </DataArray> 
</PointData> 
<Points> 
<DataArray type="Float32" NumberOfComponents="3"> 
0.1905 0.0099 0 0.216571 0.0099 0 0.242643 0.0099 0 0.268714 0.0099 0 0.294786 0.0099 0 0.320857 0.0099 0 0.346929 0.0099 0 0.373 0.0099 0 0.1911 0.0113429 0 0.217086 0.0113429 0 0.243071 0.0113429 0 0.269057 0.0113429 0 0.295043 0.0113429 0 0.321029 0.0113429 0 0.347014 0.0113429 0 0.373 0.0113429 0 0.1917 0.0127857 0 0.2176 0.0127857 0 0.2435 0.0127857 0 0.2694 0.0127857 0 0.2953 0.0127857 0 0.3212 0.0127857 0 0.3471 0.0127857 0 0.373 0.0127857 0 0.1923 0.0142286 0 0.218114 0.0142286 0 0.243929 0.0142286 0 0.269743 0.0142286 0 0.295557 0.0142286 0 0.321371 0.0142286 0 0.347186 0.0142286 0 0.373 0.0142286 0 0.1929 0.0156714 0 0.218629 0.0156714 0 0.244357 0.0156714 0 0.270086 0.0156714 0 0.295814 0.0156714 0 0.321543 0.0156714 0 0.347271 0.0156714 0 0.373 0.0156714 0 0.1935 0.0171143 0 0.219143 0.0171143 0 0.244786 0.0171143 0 0.270429 0.0171143 0 0.296071 0.0171143 0 0.321714 0.0171143 0 0.347357 0.0171143 0 0.373 0.0171143 0 0.1941 0.0185571 0 0.219657 0.0185571 0 0.245214 0.0185571 0 0.270771 0.0185571 0 0.296329 0.0185571 0 0.321886 0.0185571 0 0.347443 0.0185571 0 0.373 0.0185571 0 0.1947 0.02 0 0.220171 0.02 0 0.245643 0.02 0 0.271114 0.02 0 0.296586 0.02 0 0.322057 0.02 0 0.347529 0.02 0 0.373 0.02 0 
</DataArray>
</Points> 
</Piece> 
</StructuredGrid> 
</VTKFile> 
