<?xml version="1.0"?> 
<VTKFile type="StructuredGrid" version="0.1"> 
<StructuredGrid WholeExtent="0 7 0 7 0 0"> 
<Piece Extent="0 7 0 7 0 0"> 
<PointData>
<DataArray type="Float32" Name="|E|" format="ascii" NumberOfComponents="3"> 
-2.07644e+06 0 0 -2.07676e+06 6747.23 0 -2.07743e+06 13780.2 0 -2.07815e+06 20906 0 -2.07902e+06 27834.9 0 -2.08026e+06 34539.4 0 -2.08197e+06 41151.3 0 -2.08417e+06 48107.1 0 -2.07068e+06 0 0 -2.07101e+06 8837.73 0 -2.07179e+06 17802.3 0 -2.07291e+06 26729.7 0 -2.0745e+06 35492.4 0 -2.07669e+06 44137.2 0 -2.07948e+06 52754 0 -2.08287e+06 61337.8 0 -2.06461e+06 0 0 -2.06501e+06 10976.1 0 -2.06606e+06 21996 0 -2.06775e+06 32942.2 0 -2.07018e+06 43768.6 0 -2.07342e+06 54537.2 0 -2.07748e+06 65323.8 0 -2.08232e+06 76217.6 0 -2.0583e+06 0 0 -2.05882e+06 13213.2 0 -2.06024e+06 26433.1 0 -2.0626e+06 39578.2 0 -2.06598e+06 52643.1 0 -2.0704e+06 65702 0 -2.07583e+06 78845.1 0 -2.08221e+06 92173.4 0 -2.05175e+06 0 0 -2.05242e+06 15568.4 0 -2.05429e+06 31132.4 0 -2.05742e+06 46634.3 0 -2.06185e+06 62085.2 0 -2.06755e+06 77578.9 0 -2.07444e+06 93236.9 0 -2.08251e+06 109197 0 -2.04497e+06 0 0 -2.04582e+06 18049.2 0 -2.0482e+06 36100.1 0 -2.05218e+06 54101.7 0 -2.05776e+06 72062.3 0 -2.06481e+06 90116.5 0 -2.07324e+06 108471 0 -2.08322e+06 127352 0 -2.03797e+06 0 0 -2.03901e+06 20657.6 0 -2.04196e+06 41337.9 0 -2.04689e+06 61969.6 0 -2.05369e+06 82530.1 0 -2.06212e+06 103266 0 -2.07217e+06 124608 0 -2.08444e+06 146820 0 -2.03075e+06 0 0 -2.032e+06 23393.7 0 -2.03557e+06 46850 0 -2.04156e+06 70221.2 0 -2.04963e+06 93431 0 -2.05938e+06 117026 0 -2.0712e+06 141822 0 -2.08651e+06 167833 0 </DataArray> 
</PointData> 
<Points> 
<DataArray type="Float32" NumberOfComponents="3"> 
0 0.016 0 0.000857143 0.016 0 0.00171429 0.016 0 0.00257143 0.016 0 0.00342857 0.016 0 0.00428571 0.016 0 0.00514286 0.016 0 0.006 0.016 0 0 0.0167143 0 0.00106122 0.0167143 0 0.00212245 0.0167143 0 0.00318367 0.0167143 0 0.0042449 0.0167143 0 0.00530612 0.0167143 0 0.00636735 0.0167143 0 0.00742857 0.0167143 0 0 0.0174286 0 0.00126531 0.0174286 0 0.00253061 0.0174286 0 0.00379592 0.0174286 0 0.00506122 0.0174286 0 0.00632653 0.0174286 0 0.00759184 0.0174286 0 0.00885714 0.0174286 0 0 0.0181429 0 0.00146939 0.0181429 0 0.00293878 0.0181429 0 0.00440816 0.0181429 0 0.00587755 0.0181429 0 0.00734694 0.0181429 0 0.00881633 0.0181429 0 0.0102857 0.0181429 0 0 0.0188571 0 0.00167347 0.0188571 0 0.00334694 0.0188571 0 0.00502041 0.0188571 0 0.00669388 0.0188571 0 0.00836735 0.0188571 0 0.0100408 0.0188571 0 0.0117143 0.0188571 0 0 0.0195714 0 0.00187755 0.0195714 0 0.0037551 0.0195714 0 0.00563265 0.0195714 0 0.0075102 0.0195714 0 0.00938776 0.0195714 0 0.0112653 0.0195714 0 0.0131429 0.0195714 0 0 0.0202857 0 0.00208163 0.0202857 0 0.00416327 0.0202857 0 0.0062449 0.0202857 0 0.00832653 0.0202857 0 0.0104082 0.0202857 0 0.0124898 0.0202857 0 0.0145714 0.0202857 0 0 0.021 0 0.00228571 0.021 0 0.00457143 0.021 0 0.00685714 0.021 0 0.00914286 0.021 0 0.0114286 0.021 0 0.0137143 0.021 0 0.016 0.021 0 
</DataArray>
</Points> 
</Piece> 
</StructuredGrid> 
</VTKFile> 
