<?xml version="1.0"?> 
<VTKFile type="StructuredGrid" version="0.1"> 
<StructuredGrid WholeExtent="0 7 0 7 0 0"> 
<Piece Extent="0 7 0 7 0 0"> 
<PointData>
<DataArray type="Float32" Name="|E|" format="ascii" NumberOfComponents="3"> 
1.3334e+06 -2.38419e-07 0 1.74812e+06 0.089816 0 1.56616e+06 -0.0655005 0 1.19868e+06 -0.0772163 0 900413 0.0370733 0 696861 -0.0135867 0 580670 0.00867782 0 540825 0 0 1.33266e+06 -5.96046e-08 0 1.74855e+06 -3694.19 0 1.56618e+06 9291.61 0 1.19866e+06 9535.76 0 900374 6762.25 0 696828 4275.65 0 580642 2001.67 0 540798 0 0 1.33043e+06 2.98023e-08 0 1.74983e+06 -7395.64 0 1.56624e+06 18588.5 0 1.19861e+06 19077.8 0 900258 13521.5 0 696730 8552.42 0 580557 4002.63 0 540717 0 0 1.32671e+06 -5.96046e-08 0 1.75198e+06 -11111 0 1.56634e+06 27895.5 0 1.19851e+06 28632.1 0 900064 20274.8 0 696566 12831.4 0 580417 6002.21 0 540580 0 0 1.32145e+06 2.98023e-08 0 1.75502e+06 -14846.6 0 1.56647e+06 37217.1 0 1.19838e+06 38204.5 0 899792 27019.3 0 696336 17113.6 0 580220 7999.74 0 540389 0 0 1.31465e+06 5.96046e-08 0 1.75895e+06 -18608.8 0 1.56663e+06 46557.6 0 1.19821e+06 47801.3 0 899441 33752 0 696040 21400.2 0 579968 9994.5 0 540144 0 0 1.30624e+06 -1.19209e-07 0 1.76381e+06 -22403.5 0 1.56681e+06 55921.2 0 1.198e+06 57429 0 899011 40469.4 0 695678 25692.6 0 579659 11985.7 0 539843 0 0 1.29618e+06 0 0 1.76962e+06 -26236.4 0 1.567e+06 65311.3 0 1.19777e+06 67094.7 0 898502 47168 0 695251 29992.2 0 579296 13972.6 0 539487 0 0 </DataArray> 
</PointData> 
<Points> 
<DataArray type="Float32" NumberOfComponents="3"> 
0.19 0 0 0.216143 0 0 0.242286 0 0 0.268429 0 0 0.294571 0 0 0.320714 0 0 0.346857 0 0 0.373 0 0 0.19 0.000714286 0 0.216143 0.000714286 0 0.242286 0.000714286 0 0.268429 0.000714286 0 0.294571 0.000714286 0 0.320714 0.000714286 0 0.346857 0.000714286 0 0.373 0.000714286 0 0.19 0.00142857 0 0.216143 0.00142857 0 0.242286 0.00142857 0 0.268429 0.00142857 0 0.294571 0.00142857 0 0.320714 0.00142857 0 0.346857 0.00142857 0 0.373 0.00142857 0 0.19 0.00214286 0 0.216143 0.00214286 0 0.242286 0.00214286 0 0.268429 0.00214286 0 0.294571 0.00214286 0 0.320714 0.00214286 0 0.346857 0.00214286 0 0.373 0.00214286 0 0.19 0.00285714 0 0.216143 0.00285714 0 0.242286 0.00285714 0 0.268429 0.00285714 0 0.294571 0.00285714 0 0.320714 0.00285714 0 0.346857 0.00285714 0 0.373 0.00285714 0 0.19 0.00357143 0 0.216143 0.00357143 0 0.242286 0.00357143 0 0.268429 0.00357143 0 0.294571 0.00357143 0 0.320714 0.00357143 0 0.346857 0.00357143 0 0.373 0.00357143 0 0.19 0.00428571 0 0.216143 0.00428571 0 0.242286 0.00428571 0 0.268429 0.00428571 0 0.294571 0.00428571 0 0.320714 0.00428571 0 0.346857 0.00428571 0 0.373 0.00428571 0 0.19 0.005 0 0.216143 0.005 0 0.242286 0.005 0 0.268429 0.005 0 0.294571 0.005 0 0.320714 0.005 0 0.346857 0.005 0 0.373 0.005 0 
</DataArray>
</Points> 
</Piece> 
</StructuredGrid> 
</VTKFile> 
