<?xml version="1.0"?> 
<VTKFile type="StructuredGrid" version="0.1"> 
<StructuredGrid WholeExtent="0 7 0 7 0 0"> 
<Piece Extent="0 7 0 7 0 0"> 
<PointData>
<DataArray type="Float32" Name="|E|" format="ascii" NumberOfComponents="3"> 
-3.04076e+06 264210 0 -3.31391e+06 158424 0 -3.63811e+06 45001 0 -4.0071e+06 -81966.1 0 -4.47016e+06 -358614 0 -4.40345e+06 -603591 0 -1.1324e+07 -2.89921e+06 0 5.1005e+06 269666 0 -2.83773e+06 1.77692e+06 0 -3.1434e+06 1.8339e+06 0 -3.55986e+06 1.90489e+06 0 -4.15481e+06 2.00527e+06 0 -5.03803e+06 2.23635e+06 0 -6.70935e+06 2.78901e+06 0 -8.32843e+06 6.04508e+06 0 -5.66436e+06 8.17829e+06 0 -1.87993e+06 2.08661e+06 0 -2.11162e+06 2.304e+06 0 -2.43699e+06 2.56605e+06 0 -2.90161e+06 2.91175e+06 0 -3.57693e+06 3.44379e+06 0 -4.49312e+06 4.46747e+06 0 -5.04808e+06 6.23907e+06 0 -4.81153e+06 8.11969e+06 0 -1.18919e+06 1.81539e+06 0 -1.33335e+06 2.12866e+06 0 -1.55435e+06 2.4979e+06 0 -1.88961e+06 2.96558e+06 0 -2.38864e+06 3.6229e+06 0 -3.06383e+06 4.67677e+06 0 -3.60911e+06 6.46423e+06 0 -3.32958e+06 8.8646e+06 0 -734858 1.37682e+06 0 -813671 1.75102e+06 0 -946419 2.19181e+06 0 -1.16762e+06 2.74423e+06 0 -1.5245e+06 3.50207e+06 0 -2.0369e+06 4.65891e+06 0 -2.4761e+06 6.49197e+06 0 -2.01994e+06 8.83678e+06 0 -426931 906725 0 -459536 1.32409e+06 0 -525658 1.80845e+06 0 -649145 2.41228e+06 0 -871201 3.23959e+06 0 -1.22568e+06 4.49061e+06 0 -1.54734e+06 6.42483e+06 0 -1.08493e+06 8.67432e+06 0 -196700 446956 0 -203827 903981 0 -226024 1.41933e+06 0 -274996 2.05052e+06 0 -374318 2.91391e+06 0 -556753 4.24295e+06 0 -745706 6.32082e+06 0 -444555 8.52566e+06 0 0 -897.769 0 0 502952 0 0 1.0488e+06 0 0 1.6953e+06 0 0 2.56695e+06 0 0 3.93725e+06 0 0 6.19928e+06 0 0 8.52186e+06 0 </DataArray> 
</PointData> 
<Points> 
<DataArray type="Float32" NumberOfComponents="3"> 
0.1 0.0687 0 0.100429 0.0709272 0 0.100857 0.0731544 0 0.101286 0.0753816 0 0.101714 0.0776088 0 0.102143 0.079836 0 0.102571 0.0820632 0 0.103 0.0842904 0 0.0857143 0.0748857 0 0.0883878 0.0767947 0 0.0910612 0.0787038 0 0.0937347 0.0806128 0 0.0964082 0.0825218 0 0.0990816 0.0844308 0 0.101755 0.0863399 0 0.104429 0.0882489 0 0.0714286 0.0810714 0 0.0763469 0.0826623 0 0.0812653 0.0842531 0 0.0861837 0.085844 0 0.091102 0.0874349 0 0.0960204 0.0890257 0 0.100939 0.0906166 0 0.105857 0.0922074 0 0.0571429 0.0872571 0 0.0643061 0.0885298 0 0.0714694 0.0898025 0 0.0786327 0.0910752 0 0.0857959 0.0923479 0 0.0929592 0.0936206 0 0.100122 0.0948933 0 0.107286 0.0961659 0 0.0428571 0.0934429 0 0.0522653 0.0943974 0 0.0616735 0.0953519 0 0.0710816 0.0963064 0 0.0804898 0.0972609 0 0.089898 0.0982154 0 0.0993061 0.0991699 0 0.108714 0.100124 0 0.0285714 0.0996286 0 0.0402245 0.100265 0 0.0518776 0.100901 0 0.0635306 0.101538 0 0.0751837 0.102174 0 0.0868367 0.10281 0 0.0984898 0.103447 0 0.110143 0.104083 0 0.0142857 0.105814 0 0.0281837 0.106132 0 0.0420816 0.106451 0 0.0559796 0.106769 0 0.0698776 0.107087 0 0.0837755 0.107405 0 0.0976735 0.107723 0 0.111571 0.108041 0 0 0.112 0 0.0161429 0.112 0 0.0322857 0.112 0 0.0484286 0.112 0 0.0645714 0.112 0 0.0807143 0.112 0 0.0968571 0.112 0 0.113 0.112 0 
</DataArray>
</Points> 
</Piece> 
</StructuredGrid> 
</VTKFile> 
