<?xml version="1.0"?> 
<VTKFile type="StructuredGrid" version="0.1"> 
<StructuredGrid WholeExtent="0 7 0 7 0 0"> 
<Piece Extent="0 7 0 7 0 0"> 
<PointData>
<DataArray type="Float32" Name="|E|" format="ascii" NumberOfComponents="3"> 
-2.08571e+06 0 0 -2.08688e+06 21328.5 0 -2.09022e+06 43046.5 0 -2.0958e+06 66590.1 0 -2.10332e+06 94433.8 0 -2.11237e+06 124570 0 -2.12335e+06 148711 0 -2.1376e+06 163103 0 -2.06577e+06 0 0 -2.06929e+06 40939.4 0 -2.079e+06 82580.9 0 -2.09498e+06 124777 0 -2.11842e+06 167636 0 -2.15003e+06 212880 0 -2.18721e+06 258454 0 -2.22686e+06 299058 0 -2.04409e+06 0 0 -2.05107e+06 63234.5 0 -2.07068e+06 127782 0 -2.10431e+06 193740 0 -2.1517e+06 264005 0 -2.20771e+06 337097 0 -2.2715e+06 403734 0 -2.35584e+06 470104 0 -2.02077e+06 0 0 -2.03218e+06 88193 0 -2.06527e+06 179002 0 -2.12046e+06 274047 0 -2.19149e+06 377517 0 -2.27975e+06 480512 0 -2.4131e+06 601949 0 -2.58763e+06 807947 0 -1.9959e+06 0 0 -2.01257e+06 115846 0 -2.06196e+06 235736 0 -2.13917e+06 365183 0 -2.24131e+06 509864 0 -2.39983e+06 676438 0 -2.59476e+06 994804 0 -2.64732e+06 1.67859e+06 0 -1.96949e+06 0 0 -1.9922e+06 145858 0 -2.0596e+06 297575 0 -2.16068e+06 471033 0 -2.31568e+06 670573 0 -2.51131e+06 974061 0 -2.49334e+06 1.5747e+06 0 -2.02577e+06 2.30486e+06 0 -1.94124e+06 0 0 -1.97131e+06 177244 0 -2.05706e+06 367580 0 -2.18999e+06 589815 0 -2.38509e+06 856311 0 -2.42706e+06 1.29733e+06 0 -1.99198e+06 1.71266e+06 0 -1.34802e+06 958895 0 -1.91091e+06 0 0 -1.94999e+06 210444 0 -2.05454e+06 447213 0 -2.22324e+06 710483 0 -2.37536e+06 1.04241e+06 0 -2.12829e+06 1.44218e+06 0 -1.58391e+06 1.34452e+06 0 -1.35333e+06 137424 0 </DataArray> 
</PointData> 
<Points> 
<DataArray type="Float32" NumberOfComponents="3"> 
0 0.021 0 0.00228571 0.021 0 0.00457143 0.021 0 0.00685714 0.021 0 0.00914286 0.021 0 0.0114286 0.021 0 0.0137143 0.021 0 0.016 0.021 0 0 0.023 0 0.004 0.023 0 0.008 0.023 0 0.012 0.023 0 0.016 0.023 0 0.02 0.023 0 0.024 0.023 0 0.028 0.023 0 0 0.025 0 0.00571429 0.025 0 0.0114286 0.025 0 0.0171429 0.025 0 0.0228571 0.025 0 0.0285714 0.025 0 0.0342857 0.025 0 0.04 0.025 0 0 0.027 0 0.00742857 0.027 0 0.0148571 0.027 0 0.0222857 0.027 0 0.0297143 0.027 0 0.0371429 0.027 0 0.0445714 0.027 0 0.052 0.027 0 0 0.029 0 0.00914286 0.029 0 0.0182857 0.029 0 0.0274286 0.029 0 0.0365714 0.029 0 0.0457143 0.029 0 0.0548571 0.029 0 0.064 0.029 0 0 0.031 0 0.0108571 0.031 0 0.0217143 0.031 0 0.0325714 0.031 0 0.0434286 0.031 0 0.0542857 0.031 0 0.0651429 0.031 0 0.076 0.031 0 0 0.033 0 0.0125714 0.033 0 0.0251429 0.033 0 0.0377143 0.033 0 0.0502857 0.033 0 0.0628571 0.033 0 0.0754286 0.033 0 0.088 0.033 0 0 0.035 0 0.0142857 0.035 0 0.0285714 0.035 0 0.0428571 0.035 0 0.0571429 0.035 0 0.0714286 0.035 0 0.0857143 0.035 0 0.1 0.035 0 
</DataArray>
</Points> 
</Piece> 
</StructuredGrid> 
</VTKFile> 
