<?xml version="1.0"?> 
<VTKFile type="StructuredGrid" version="0.1"> 
<StructuredGrid WholeExtent="0 7 0 7 0 0"> 
<Piece Extent="0 7 0 7 0 0"> 
<PointData>
<DataArray type="Float32" Name="|E|" format="ascii" NumberOfComponents="3"> 
9.53674e-07 2.62755e+06 0 -8.19564e-08 2.6364e+06 0 -1.93715e-07 2.64668e+06 0 1.19209e-07 2.65744e+06 0 5.96046e-08 2.66722e+06 0 -5.96046e-08 2.67379e+06 0 -2.98023e-08 2.67375e+06 0 1.78814e-07 2.66153e+06 0 276557 2.72915e+06 0 270187 2.74616e+06 0 262560 2.76689e+06 0 253531 2.79159e+06 0 242910 2.82077e+06 0 230411 2.85529e+06 0 215631 2.89667e+06 0 197938 2.94758e+06 0 565683 2.83172e+06 0 560484 2.8458e+06 0 555322 2.86208e+06 0 550496 2.88057e+06 0 546357 2.90133e+06 0 543327 2.92437e+06 0 541892 2.94962e+06 0 542643 2.97682e+06 0 714466 2.92475e+06 0 707639 2.92895e+06 0 701044 2.9335e+06 0 694944 2.93834e+06 0 689626 2.9434e+06 0 685426 2.94861e+06 0 682731 2.9539e+06 0 682068 2.95924e+06 0 698910 3.03984e+06 0 690043 3.03306e+06 0 681411 3.02579e+06 0 673160 3.01798e+06 0 665433 3.00958e+06 0 658362 3.00055e+06 0 652060 2.99079e+06 0 646590 2.98021e+06 0 546633 3.15913e+06 0 537876 3.14215e+06 0 529419 3.12464e+06 0 521324 3.1066e+06 0 513651 3.08802e+06 0 506462 3.06889e+06 0 499825 3.04917e+06 0 493837 3.02885e+06 0 298351 3.25004e+06 0 292803 3.22497e+06 0 287544 3.19984e+06 0 282583 3.17465e+06 0 277927 3.14938e+06 0 273581 3.12402e+06 0 269543 3.09856e+06 0 265802 3.07298e+06 0 0 3.28618e+06 0 0 3.25643e+06 0 0 3.22728e+06 0 0 3.19868e+06 0 0 3.1706e+06 0 0 3.14298e+06 0 0 3.11579e+06 0 0 3.08897e+06 0 </DataArray> 
</PointData> 
<Points> 
<DataArray type="Float32" NumberOfComponents="3"> 
0.1815 0.045 0 0.181936 0.045 0 0.182493 0.045 0 0.183169 0.045 0 0.183966 0.045 0 0.184884 0.045 0 0.185921 0.045 0 0.187079 0.045 0 0.1815 0.0545714 0 0.182007 0.0545714 0 0.182616 0.0545714 0 0.183329 0.0545714 0 0.184145 0.0545714 0 0.185063 0.0545714 0 0.186085 0.0545714 0 0.18721 0.0545714 0 0.1815 0.0641429 0 0.182077 0.0641429 0 0.18274 0.0641429 0 0.183488 0.0641429 0 0.184323 0.0641429 0 0.185243 0.0641429 0 0.18625 0.0641429 0 0.187342 0.0641429 0 0.1815 0.0737143 0 0.182147 0.0737143 0 0.182863 0.0737143 0 0.183648 0.0737143 0 0.184501 0.0737143 0 0.185423 0.0737143 0 0.186414 0.0737143 0 0.187474 0.0737143 0 0.1815 0.0832857 0 0.182218 0.0832857 0 0.182987 0.0832857 0 0.183807 0.0832857 0 0.184679 0.0832857 0 0.185603 0.0832857 0 0.186578 0.0832857 0 0.187605 0.0832857 0 0.1815 0.0928571 0 0.182288 0.0928571 0 0.18311 0.0928571 0 0.183967 0.0928571 0 0.184858 0.0928571 0 0.185783 0.0928571 0 0.186743 0.0928571 0 0.187737 0.0928571 0 0.1815 0.102429 0 0.182358 0.102429 0 0.183234 0.102429 0 0.184126 0.102429 0 0.185036 0.102429 0 0.185963 0.102429 0 0.186907 0.102429 0 0.187868 0.102429 0 0.1815 0.112 0 0.182429 0.112 0 0.183357 0.112 0 0.184286 0.112 0 0.185214 0.112 0 0.186143 0.112 0 0.187071 0.112 0 0.188 0.112 0 
</DataArray>
</Points> 
</Piece> 
</StructuredGrid> 
</VTKFile> 
