<?xml version="1.0"?> 
<VTKFile type="StructuredGrid" version="0.1"> 
<StructuredGrid WholeExtent="0 7 0 7 0 0"> 
<Piece Extent="0 7 0 7 0 0"> 
<PointData>
<DataArray type="Float32" Name="|E|" format="ascii" NumberOfComponents="3"> 
-1.78814e-07 3.61261e+06 0 1.00583e-07 1.92255e+06 0 -7.45058e-08 1.22706e+06 0 -1.49012e-08 699197 0 5.96046e-08 262161 0 -2.98023e-08 -3576.65 0 -1.49012e-08 1291.32 0 8.9407e-08 -5.96046e-08 0 -1.22631e+06 2.36694e+06 0 -677107 1.91624e+06 0 -483273 1.419e+06 0 -410868 1.00097e+06 0 -375430 584491 0 -295412 176526 0 -72777.2 9522.05 0 -11508.1 -18759.1 0 -1.45069e+06 1.76915e+06 0 -1.12996e+06 1.62794e+06 0 -903792 1.40184e+06 0 -769789 1.14638e+06 0 -739194 868627 0 -730320 493842 0 -677665 -131803 0 4837.52 7885.46 0 -1.53188e+06 1.41018e+06 0 -1.33799e+06 1.36716e+06 0 -1.15416e+06 1.26946e+06 0 -1.00643e+06 1.13536e+06 0 -902613 977238 0 -1.01333e+06 794124 0 -944829 379946 0 -1.52935e+06 -2.4928e+06 0 -1.58915e+06 1.17531e+06 0 -1.43468e+06 1.16791e+06 0 -1.27307e+06 1.13e+06 0 -1.12712e+06 1.04933e+06 0 -949570 965578 0 -1.09137e+06 905257 0 -1.24118e+06 119966 0 -1.99414e+06 -3.25093e+06 0 -1.63878e+06 1.00509e+06 0 -1.48998e+06 1.01475e+06 0 -1.31779e+06 996971 0 -1.12909e+06 951581 0 -1.02294e+06 886472 0 -1.07355e+06 1.02848e+06 0 -316570 924795 0 170773 278385 0 -1.70096e+06 873324 0 -1.51919e+06 887202 0 -1.31835e+06 870723 0 -1.09037e+06 868376 0 -1.02692e+06 851015 0 -346096 1.0193e+06 0 218353 462203 0 -574602 -936678 0 -1.76583e+06 764270 0 -1.54756e+06 764946 0 -1.25813e+06 782180 0 -1.06158e+06 729889 0 -593872 718109 0 142034 512833 0 174697 273023 0 -29804.1 -48584.3 0 </DataArray> 
</PointData> 
<Points> 
<DataArray type="Float32" NumberOfComponents="3"> 
0.1 0.045 0 0.101857 0.045 0 0.103714 0.045 0 0.105571 0.045 0 0.107429 0.045 0 0.109286 0.045 0 0.111143 0.045 0 0.113 0.045 0 0.1 0.0464286 0 0.101417 0.0464365 0 0.102863 0.0464446 0 0.10434 0.0464529 0 0.105849 0.0464613 0 0.10739 0.0464699 0 0.108965 0.0464787 0 0.110575 0.0464877 0 0.1 0.0478571 0 0.101118 0.0478261 0 0.102276 0.0477939 0 0.103475 0.0477605 0 0.104719 0.047726 0 0.106009 0.0476901 0 0.107348 0.0476529 0 0.108739 0.0476143 0 0.1 0.0492857 0 0.100967 0.0491532 0 0.101976 0.049015 0 0.103029 0.0488707 0 0.104129 0.04872 0 0.105278 0.0485624 0 0.106482 0.0483975 0 0.107744 0.0482247 0 0.1 0.0507143 0 0.100967 0.0504033 0 0.101976 0.050079 0 0.103029 0.0497405 0 0.104129 0.0493869 0 0.105278 0.0490172 0 0.106482 0.0486302 0 0.107744 0.0482247 0 0.1 0.0521429 0 0.101118 0.0515634 0 0.102276 0.0509634 0 0.103475 0.0503418 0 0.104719 0.0496974 0 0.106009 0.049029 0 0.107348 0.0483351 0 0.108739 0.0476143 0 0.1 0.0535714 0 0.101417 0.0526224 0 0.102863 0.0516534 0 0.10434 0.050664 0 0.105849 0.0496534 0 0.10739 0.048621 0 0.108965 0.0475661 0 0.110575 0.0464879 0 0.1 0.055 0 0.101857 0.0535715 0 0.103714 0.0521429 0 0.105571 0.0507144 0 0.107429 0.0492858 0 0.109286 0.0478573 0 0.111143 0.0464287 0 0.113 0.0450002 0 
</DataArray>
</Points> 
</Piece> 
</StructuredGrid> 
</VTKFile> 
