<?xml version="1.0"?> 
<VTKFile type="StructuredGrid" version="0.1"> 
<StructuredGrid WholeExtent="0 7 0 7 0 0"> 
<Piece Extent="0 7 0 7 0 0"> 
<PointData>
<DataArray type="Float32" Name="|E|" format="ascii" NumberOfComponents="3"> 
8.9407e-08 69154 0 -4.28408e-08 497053 0 1.86265e-08 930302 0 -7.45058e-09 1.34707e+06 0 1.11759e-08 1.73506e+06 0 -2.6077e-08 2.08512e+06 0 3.72529e-08 2.39011e+06 0 -9.68575e-08 2.62755e+06 0 1.30102e+06 732667 0 1.10988e+06 983467 0 919933 1.2873e+06 0 745835 1.61087e+06 0 593941 1.92683e+06 0 466848 2.21894e+06 0 364523 2.48225e+06 0 277576 2.72915e+06 0 2.07455e+06 1.46647e+06 0 1.80418e+06 1.67239e+06 0 1.52717e+06 1.88539e+06 0 1.26137e+06 2.09724e+06 0 1.02211e+06 2.2998e+06 0 820517 2.48773e+06 0 663860 2.66157e+06 0 561436 2.83172e+06 0 2.57087e+06 2.44036e+06 0 2.19089e+06 2.53231e+06 0 1.83214e+06 2.61594e+06 0 1.50791e+06 2.69123e+06 0 1.22731e+06 2.75894e+06 0 997047 2.81999e+06 0 822343 2.87528e+06 0 710320 2.92475e+06 0 2.58109e+06 3.5961e+06 0 2.1502e+06 3.48441e+06 0 1.77385e+06 3.38484e+06 0 1.45189e+06 3.29738e+06 0 1.18366e+06 3.22137e+06 0 968523 3.15528e+06 0 805953 3.09637e+06 0 696180 3.03984e+06 0 1.99634e+06 4.62718e+06 0 1.6544e+06 4.30061e+06 0 1.36122e+06 4.02711e+06 0 1.11501e+06 3.79673e+06 0 913135 3.60166e+06 0 752749 3.435e+06 0 631001 3.28992e+06 0 545063 3.15913e+06 0 1.04314e+06 5.24499e+06 0 871202 4.79406e+06 0 719811 4.41608e+06 0 592150 4.09988e+06 0 487918 3.83481e+06 0 405526 3.6109e+06 0 342858 3.41885e+06 0 297649 3.25004e+06 0 0 5.44059e+06 0 0 4.93865e+06 0 0 4.52144e+06 0 0 4.17766e+06 0 0 3.89414e+06 0 0 3.65824e+06 0 0 3.45879e+06 0 0 3.28618e+06 0 </DataArray> 
</PointData> 
<Points> 
<DataArray type="Float32" NumberOfComponents="3"> 
0.1465 0.045 0 0.14895 0.045 0 0.15225 0.045 0 0.1564 0.045 0 0.1614 0.045 0 0.16725 0.045 0 0.17395 0.045 0 0.1815 0.045 0 0.1465 0.0545714 0 0.149314 0.0545714 0 0.152857 0.0545714 0 0.157129 0.0545714 0 0.162129 0.0545714 0 0.167857 0.0545714 0 0.174314 0.0545714 0 0.1815 0.0545714 0 0.1465 0.0641429 0 0.149679 0.0641429 0 0.153464 0.0641429 0 0.157857 0.0641429 0 0.162857 0.0641429 0 0.168464 0.0641429 0 0.174679 0.0641429 0 0.1815 0.0641429 0 0.1465 0.0737143 0 0.150043 0.0737143 0 0.154071 0.0737143 0 0.158586 0.0737143 0 0.163586 0.0737143 0 0.169071 0.0737143 0 0.175043 0.0737143 0 0.1815 0.0737143 0 0.1465 0.0832857 0 0.150407 0.0832857 0 0.154679 0.0832857 0 0.159314 0.0832857 0 0.164314 0.0832857 0 0.169679 0.0832857 0 0.175407 0.0832857 0 0.1815 0.0832857 0 0.1465 0.0928571 0 0.150771 0.0928571 0 0.155286 0.0928571 0 0.160043 0.0928571 0 0.165043 0.0928571 0 0.170286 0.0928571 0 0.175771 0.0928571 0 0.1815 0.0928571 0 0.1465 0.102429 0 0.151136 0.102429 0 0.155893 0.102429 0 0.160771 0.102429 0 0.165771 0.102429 0 0.170893 0.102429 0 0.176136 0.102429 0 0.1815 0.102429 0 0.1465 0.112 0 0.1515 0.112 0 0.1565 0.112 0 0.1615 0.112 0 0.1665 0.112 0 0.1715 0.112 0 0.1765 0.112 0 0.1815 0.112 0 
</DataArray>
</Points> 
</Piece> 
</StructuredGrid> 
</VTKFile> 
