<?xml version="1.0"?> 
<VTKFile type="StructuredGrid" version="0.1"> 
<StructuredGrid WholeExtent="0 16 0 16 0 0"> 
<Piece Extent="0 16 0 16 0 0"> 
<CellData>
<DataArray type="Float32" Name="err_h1" format="ascii" NumberOfComponents="1"> 
61.7133 62.5406 64.5178 67.6446 70.922 75.8099 81.9381 89.3627 96.6378 106.44 117.924 131.287 144.785 162.209 182.462 206.007 16.0975 18.5097 23.7506 30.5306 32.2039 40.4171 49.3176 58.8769 62.24 73.397 85.4777 98.6336 105.585 121.785 139.847 160.171 96.4793 97.0555 98.336 100.309 101.629 104.747 108.52 112.914 115.617 121.092 127.084 133.513 137.466 144.615 151.867 159.005 139.687 140.109 140.861 141.943 144.512 146.444 148.708 151.3 156.601 160.069 163.879 168.035 176.44 181.572 187.125 193.15 39.6258 39.5321 39.6541 39.9922 46.1138 46.2828 46.6609 47.2492 58.3851 58.8651 59.5561 60.462 75.8881 76.8022 77.961 79.3799 21.5409 21.769 22.3614 23.2934 27.5264 28.7135 30.1696 31.8652 38.6198 40.4427 42.4839 44.7227 53.2712 55.6817 58.2938 61.085 11.0576 11.7304 13.1589 15.135 15.4721 18.1874 21.1057 24.1624 24.741 28.3156 31.9621 35.6701 36.5685 40.8745 45.2422 49.6725 49.3303 49.5109 49.9374 50.605 51.4366 52.4773 53.7587 55.2679 57.0667 58.988 61.1406 63.5071 66.5544 69.4046 72.4799 75.7606 26.1382 25.5702 25.4399 25.7549 27.5147 26.694 26.2876 26.317 30.2189 29.1278 28.41 28.098 34.8668 33.4968 32.445 31.7467 13.1443 12.0725 11.8062 12.3982 13.8693 12.289 11.4239 11.4405 14.9043 12.7266 11.0895 10.2602 16.7923 13.9837 11.4407 9.38846 45.1779 44.9145 44.8585 45.0108 45.1302 44.7379 44.5537 44.5805 44.842 44.2697 43.9071 43.76 44.2199 43.3785 42.7485 42.3396 73.2295 73.0879 73.0612 73.1493 73.1233 72.9179 72.8278 72.8533 72.7672 72.467 72.2832 72.2166 72.0011 71.5528 71.2229 71.0129 3.07507 1.70112 1.69858 3.07113 2.9856 1.64632 1.75183 3.16149 2.62545 1.4963 2.04117 3.56187 1.91388 1.64789 2.89573 4.54897 18.6622 18.5278 18.5282 18.6633 18.6548 18.5289 18.5379 18.6817 18.6424 18.5493 18.5914 18.7679 18.6648 18.6485 18.767 19.0183 30.0556 29.9898 29.9902 30.0567 30.0562 29.995 29.9999 30.071 30.069 30.0242 30.0455 30.1329 30.1309 30.1236 30.1825 30.3073 35.7729 35.725 35.7253 35.7737 35.7753 35.7306 35.7342 35.7859 35.7936 35.7607 35.7761 35.8396 35.8635 35.8578 35.9002 35.9908 
</DataArray> 
</CellData> 
<Points> 
<DataArray type="Float32" NumberOfComponents="3"> 
0.09021 0 0 0.09021 0.0006125 0 0.09021 0.001225 0 0.09021 0.0018375 0 0.09021 0.00245 0 0.09021 0.0030625 0 0.09021 0.003675 0 0.09021 0.0042875 0 0.09021 0.0049 0 0.09021 0.0055125 0 0.09021 0.006125 0 0.09021 0.0067375 0 0.09021 0.00735 0 0.09021 0.0079625 0 0.09021 0.008575 0 0.09021 0.0091875 0 0.09021 0.0098 0 0.0970719 0 0 0.0970719 0.0006125 0 0.0970719 0.001225 0 0.0970719 0.0018375 0 0.0970719 0.00245 0 0.0970719 0.0030625 0 0.0970719 0.003675 0 0.0970719 0.0042875 0 0.0970719 0.0049 0 0.0970719 0.0055125 0 0.0970719 0.006125 0 0.0970719 0.0067375 0 0.0970719 0.00735 0 0.0970719 0.0079625 0 0.0970719 0.008575 0 0.0970719 0.0091875 0 0.0970719 0.0098 0 0.103934 0 0 0.103934 0.0006125 0 0.103934 0.001225 0 0.103934 0.0018375 0 0.103934 0.00245 0 0.103934 0.0030625 0 0.103934 0.003675 0 0.103934 0.0042875 0 0.103934 0.0049 0 0.103934 0.0055125 0 0.103934 0.006125 0 0.103934 0.0067375 0 0.103934 0.00735 0 0.103934 0.0079625 0 0.103934 0.008575 0 0.103934 0.0091875 0 0.103934 0.0098 0 0.110796 0 0 0.110796 0.0006125 0 0.110796 0.001225 0 0.110796 0.0018375 0 0.110796 0.00245 0 0.110796 0.0030625 0 0.110796 0.003675 0 0.110796 0.0042875 0 0.110796 0.0049 0 0.110796 0.0055125 0 0.110796 0.006125 0 0.110796 0.0067375 0 0.110796 0.00735 0 0.110796 0.0079625 0 0.110796 0.008575 0 0.110796 0.0091875 0 0.110796 0.0098 0 0.117657 0 0 0.117657 0.0006125 0 0.117657 0.001225 0 0.117657 0.0018375 0 0.117657 0.00245 0 0.117657 0.0030625 0 0.117657 0.003675 0 0.117657 0.0042875 0 0.117657 0.0049 0 0.117657 0.0055125 0 0.117657 0.006125 0 0.117657 0.0067375 0 0.117657 0.00735 0 0.117657 0.0079625 0 0.117657 0.008575 0 0.117657 0.0091875 0 0.117657 0.0098 0 0.124519 0 0 0.124519 0.0006125 0 0.124519 0.001225 0 0.124519 0.0018375 0 0.124519 0.00245 0 0.124519 0.0030625 0 0.124519 0.003675 0 0.124519 0.0042875 0 0.124519 0.0049 0 0.124519 0.0055125 0 0.124519 0.006125 0 0.124519 0.0067375 0 0.124519 0.00735 0 0.124519 0.0079625 0 0.124519 0.008575 0 0.124519 0.0091875 0 0.124519 0.0098 0 0.131381 0 0 0.131381 0.0006125 0 0.131381 0.001225 0 0.131381 0.0018375 0 0.131381 0.00245 0 0.131381 0.0030625 0 0.131381 0.003675 0 0.131381 0.0042875 0 0.131381 0.0049 0 0.131381 0.0055125 0 0.131381 0.006125 0 0.131381 0.0067375 0 0.131381 0.00735 0 0.131381 0.0079625 0 0.131381 0.008575 0 0.131381 0.0091875 0 0.131381 0.0098 0 0.138243 0 0 0.138243 0.0006125 0 0.138243 0.001225 0 0.138243 0.0018375 0 0.138243 0.00245 0 0.138243 0.0030625 0 0.138243 0.003675 0 0.138243 0.0042875 0 0.138243 0.0049 0 0.138243 0.0055125 0 0.138243 0.006125 0 0.138243 0.0067375 0 0.138243 0.00735 0 0.138243 0.0079625 0 0.138243 0.008575 0 0.138243 0.0091875 0 0.138243 0.0098 0 0.145105 0 0 0.145105 0.0006125 0 0.145105 0.001225 0 0.145105 0.0018375 0 0.145105 0.00245 0 0.145105 0.0030625 0 0.145105 0.003675 0 0.145105 0.0042875 0 0.145105 0.0049 0 0.145105 0.0055125 0 0.145105 0.006125 0 0.145105 0.0067375 0 0.145105 0.00735 0 0.145105 0.0079625 0 0.145105 0.008575 0 0.145105 0.0091875 0 0.145105 0.0098 0 0.151967 0 0 0.151967 0.0006125 0 0.151967 0.001225 0 0.151967 0.0018375 0 0.151967 0.00245 0 0.151967 0.0030625 0 0.151967 0.003675 0 0.151967 0.0042875 0 0.151967 0.0049 0 0.151967 0.0055125 0 0.151967 0.006125 0 0.151967 0.0067375 0 0.151967 0.00735 0 0.151967 0.0079625 0 0.151967 0.008575 0 0.151967 0.0091875 0 0.151967 0.0098 0 0.158829 0 0 0.158829 0.0006125 0 0.158829 0.001225 0 0.158829 0.0018375 0 0.158829 0.00245 0 0.158829 0.0030625 0 0.158829 0.003675 0 0.158829 0.0042875 0 0.158829 0.0049 0 0.158829 0.0055125 0 0.158829 0.006125 0 0.158829 0.0067375 0 0.158829 0.00735 0 0.158829 0.0079625 0 0.158829 0.008575 0 0.158829 0.0091875 0 0.158829 0.0098 0 0.165691 0 0 0.165691 0.0006125 0 0.165691 0.001225 0 0.165691 0.0018375 0 0.165691 0.00245 0 0.165691 0.0030625 0 0.165691 0.003675 0 0.165691 0.0042875 0 0.165691 0.0049 0 0.165691 0.0055125 0 0.165691 0.006125 0 0.165691 0.0067375 0 0.165691 0.00735 0 0.165691 0.0079625 0 0.165691 0.008575 0 0.165691 0.0091875 0 0.165691 0.0098 0 0.172553 0 0 0.172553 0.0006125 0 0.172553 0.001225 0 0.172553 0.0018375 0 0.172553 0.00245 0 0.172553 0.0030625 0 0.172553 0.003675 0 0.172553 0.0042875 0 0.172553 0.0049 0 0.172553 0.0055125 0 0.172553 0.006125 0 0.172553 0.0067375 0 0.172553 0.00735 0 0.172553 0.0079625 0 0.172553 0.008575 0 0.172553 0.0091875 0 0.172553 0.0098 0 0.179414 0 0 0.179414 0.0006125 0 0.179414 0.001225 0 0.179414 0.0018375 0 0.179414 0.00245 0 0.179414 0.0030625 0 0.179414 0.003675 0 0.179414 0.0042875 0 0.179414 0.0049 0 0.179414 0.0055125 0 0.179414 0.006125 0 0.179414 0.0067375 0 0.179414 0.00735 0 0.179414 0.0079625 0 0.179414 0.008575 0 0.179414 0.0091875 0 0.179414 0.0098 0 0.186276 0 0 0.186276 0.0006125 0 0.186276 0.001225 0 0.186276 0.0018375 0 0.186276 0.00245 0 0.186276 0.0030625 0 0.186276 0.003675 0 0.186276 0.0042875 0 0.186276 0.0049 0 0.186276 0.0055125 0 0.186276 0.006125 0 0.186276 0.0067375 0 0.186276 0.00735 0 0.186276 0.0079625 0 0.186276 0.008575 0 0.186276 0.0091875 0 0.186276 0.0098 0 0.193138 0 0 0.193138 0.0006125 0 0.193138 0.001225 0 0.193138 0.0018375 0 0.193138 0.00245 0 0.193138 0.0030625 0 0.193138 0.003675 0 0.193138 0.0042875 0 0.193138 0.0049 0 0.193138 0.0055125 0 0.193138 0.006125 0 0.193138 0.0067375 0 0.193138 0.00735 0 0.193138 0.0079625 0 0.193138 0.008575 0 0.193138 0.0091875 0 0.193138 0.0098 0 0.2 0 0 0.2 0.0006125 0 0.2 0.001225 0 0.2 0.0018375 0 0.2 0.00245 0 0.2 0.0030625 0 0.2 0.003675 0 0.2 0.0042875 0 0.2 0.0049 0 0.2 0.0055125 0 0.2 0.006125 0 0.2 0.0067375 0 0.2 0.00735 0 0.2 0.0079625 0 0.2 0.008575 0 0.2 0.0091875 0 0.2 0.0098 0 
</DataArray>
</Points> 
</Piece> 
</StructuredGrid> 
</VTKFile> 
