<?xml version="1.0"?> 
<VTKFile type="StructuredGrid" version="0.1"> 
<StructuredGrid WholeExtent="0 16 0 16 0 0"> 
<Piece Extent="0 16 0 16 0 0"> 
<CellData>
<DataArray type="Float32" Name="err_h1" format="ascii" NumberOfComponents="1"> 
25.5883 15.2971 9.79348 6.71718 4.76962 3.38493 2.48527 1.90854 1.42566 1.02778 0.741091 0.536334 0.378611 0.253085 0.246381 0.328292 22.4569 14.6979 10.5913 7.93937 6.59818 5.00849 3.88168 3.11375 2.57928 2.03769 1.6384 1.35097 1.12741 0.891523 0.707491 0.567006 15.292 13.1275 9.65905 6.85101 7.00875 5.39704 4.214 3.39715 3.28102 2.66344 2.19953 1.86663 1.73721 1.45179 1.2263 1.05127 12.5806 10.0704 7.78495 5.3691 6.71468 5.10332 3.7944 2.84034 3.47373 2.80847 2.30544 1.95445 2.09372 1.7811 1.53461 1.34644 1.89799 1.1483 0.615322 0.342363 3.42162 3.05158 2.68346 2.33365 3.26374 2.82004 2.43292 2.09534 2.34452 2.03579 1.76983 1.54064 2.60768 2.1275 1.93811 1.9841 3.09775 2.84469 2.58292 2.31062 3.06282 2.67591 2.32241 2.00365 2.34378 2.05085 1.79681 1.5777 2.33308 2.24051 2.51709 2.98623 3.14457 3.02049 2.90218 2.78242 2.96651 2.65815 2.36463 2.08961 2.26913 1.99176 1.74648 1.53299 1.52182 2.07998 2.88454 3.72845 3.12853 3.12855 3.13827 3.15005 2.90571 2.66926 2.43951 2.21874 2.16266 1.89946 1.65836 1.44176 2.50136 2.50179 2.51499 2.53941 1.46318 1.33843 1.27187 1.25357 0.95149 0.889719 0.861192 0.854777 0.857678 0.83553 0.819691 0.806356 1.59282 1.57101 1.56731 1.58058 1.29692 1.19747 1.16206 1.18034 1.04968 1.01335 1.00992 1.02964 0.960242 0.946932 0.942148 0.942745 0.978527 0.912247 0.868461 0.848499 1.00774 0.948528 0.970042 1.05194 1.02762 1.04221 1.08787 1.15358 1.06956 1.08042 1.09919 1.1227 0.724057 0.601448 0.490206 0.395428 0.595182 0.604387 0.731533 0.912325 0.902252 0.992482 1.10399 1.22534 1.13026 1.17424 1.22206 1.2733 1.17422 1.22181 1.26292 1.29619 1.30634 1.32128 1.32474 1.31551 1.09166 1.06647 1.02862 0.978612 0.804909 0.73745 0.670583 0.6049 0.69594 0.743255 0.788179 0.829159 0.858848 0.889551 0.912138 0.924782 0.850637 0.864264 0.865093 0.848518 0.810635 0.770483 0.707403 0.631845 0.297629 0.330751 0.369814 0.411352 0.452666 0.494354 0.533037 0.56732 0.582262 0.637963 0.691194 0.738011 0.783513 0.830737 0.849941 0.827638 0.230372 0.175778 0.127439 0.0941141 0.0965482 0.122173 0.162125 0.205673 0.267321 0.348594 0.435246 0.526248 0.629731 0.77488 0.947347 1.16977 
</DataArray> 
</CellData> 
<Points> 
<DataArray type="Float32" NumberOfComponents="3"> 
0.0175 0.025 0 0.0175 0.025625 0 0.0175 0.02625 0 0.0175 0.026875 0 0.0175 0.0275 0 0.0175 0.028125 0 0.0175 0.02875 0 0.0175 0.029375 0 0.0175 0.03 0 0.0175 0.030625 0 0.0175 0.03125 0 0.0175 0.031875 0 0.0175 0.0325 0 0.0175 0.033125 0 0.0175 0.03375 0 0.0175 0.034375 0 0.0175 0.035 0 0.018745 0.0242188 0 0.018745 0.024834 0 0.018745 0.0254492 0 0.018745 0.0260645 0 0.018745 0.0266797 0 0.018745 0.0272949 0 0.018745 0.0279102 0 0.018745 0.0285254 0 0.018745 0.0291406 0 0.018745 0.0297559 0 0.018745 0.0303711 0 0.018745 0.0309863 0 0.018745 0.0316016 0 0.018745 0.0322168 0 0.018745 0.032832 0 0.018745 0.0334473 0 0.018745 0.0340625 0 0.01999 0.0234375 0 0.01999 0.024043 0 0.01999 0.0246484 0 0.01999 0.0252539 0 0.01999 0.0258594 0 0.01999 0.0264648 0 0.01999 0.0270703 0 0.01999 0.0276758 0 0.01999 0.0282813 0 0.01999 0.0288867 0 0.01999 0.0294922 0 0.01999 0.0300977 0 0.01999 0.0307031 0 0.01999 0.0313086 0 0.01999 0.0319141 0 0.01999 0.0325195 0 0.01999 0.033125 0 0.021235 0.0226563 0 0.021235 0.023252 0 0.021235 0.0238477 0 0.021235 0.0244434 0 0.021235 0.0250391 0 0.021235 0.0256348 0 0.021235 0.0262305 0 0.021235 0.0268262 0 0.021235 0.0274219 0 0.021235 0.0280176 0 0.021235 0.0286133 0 0.021235 0.029209 0 0.021235 0.0298047 0 0.021235 0.0304004 0 0.021235 0.0309961 0 0.021235 0.0315918 0 0.021235 0.0321875 0 0.02248 0.021875 0 0.02248 0.0224609 0 0.02248 0.0230469 0 0.02248 0.0236328 0 0.02248 0.0242188 0 0.02248 0.0248047 0 0.02248 0.0253906 0 0.02248 0.0259766 0 0.02248 0.0265625 0 0.02248 0.0271484 0 0.02248 0.0277344 0 0.02248 0.0283203 0 0.02248 0.0289063 0 0.02248 0.0294922 0 0.02248 0.0300781 0 0.02248 0.0306641 0 0.02248 0.03125 0 0.023725 0.0210938 0 0.023725 0.0216699 0 0.023725 0.0222461 0 0.023725 0.0228223 0 0.023725 0.0233984 0 0.023725 0.0239746 0 0.023725 0.0245508 0 0.023725 0.025127 0 0.023725 0.0257031 0 0.023725 0.0262793 0 0.023725 0.0268555 0 0.023725 0.0274316 0 0.023725 0.0280078 0 0.023725 0.028584 0 0.023725 0.0291602 0 0.023725 0.0297363 0 0.023725 0.0303125 0 0.02497 0.0203125 0 0.02497 0.0208789 0 0.02497 0.0214453 0 0.02497 0.0220117 0 0.02497 0.0225781 0 0.02497 0.0231445 0 0.02497 0.0237109 0 0.02497 0.0242773 0 0.02497 0.0248438 0 0.02497 0.0254102 0 0.02497 0.0259766 0 0.02497 0.026543 0 0.02497 0.0271094 0 0.02497 0.0276758 0 0.02497 0.0282422 0 0.02497 0.0288086 0 0.02497 0.029375 0 0.026215 0.0195312 0 0.026215 0.0200879 0 0.026215 0.0206445 0 0.026215 0.0212012 0 0.026215 0.0217578 0 0.026215 0.0223145 0 0.026215 0.0228711 0 0.026215 0.0234277 0 0.026215 0.0239844 0 0.026215 0.024541 0 0.026215 0.0250977 0 0.026215 0.0256543 0 0.026215 0.0262109 0 0.026215 0.0267676 0 0.026215 0.0273242 0 0.026215 0.0278809 0 0.026215 0.0284375 0 0.02746 0.01875 0 0.02746 0.0192969 0 0.02746 0.0198438 0 0.02746 0.0203906 0 0.02746 0.0209375 0 0.02746 0.0214844 0 0.02746 0.0220313 0 0.02746 0.0225781 0 0.02746 0.023125 0 0.02746 0.0236719 0 0.02746 0.0242188 0 0.02746 0.0247656 0 0.02746 0.0253125 0 0.02746 0.0258594 0 0.02746 0.0264063 0 0.02746 0.0269531 0 0.02746 0.0275 0 0.028705 0.0179688 0 0.028705 0.0185059 0 0.028705 0.019043 0 0.028705 0.0195801 0 0.028705 0.0201172 0 0.028705 0.0206543 0 0.028705 0.0211914 0 0.028705 0.0217285 0 0.028705 0.0222656 0 0.028705 0.0228027 0 0.028705 0.0233398 0 0.028705 0.023877 0 0.028705 0.0244141 0 0.028705 0.0249512 0 0.028705 0.0254883 0 0.028705 0.0260254 0 0.028705 0.0265625 0 0.02995 0.0171875 0 0.02995 0.0177148 0 0.02995 0.0182422 0 0.02995 0.0187695 0 0.02995 0.0192969 0 0.02995 0.0198242 0 0.02995 0.0203516 0 0.02995 0.0208789 0 0.02995 0.0214063 0 0.02995 0.0219336 0 0.02995 0.0224609 0 0.02995 0.0229883 0 0.02995 0.0235156 0 0.02995 0.024043 0 0.02995 0.0245703 0 0.02995 0.0250977 0 0.02995 0.025625 0 0.031195 0.0164063 0 0.031195 0.0169238 0 0.031195 0.0174414 0 0.031195 0.017959 0 0.031195 0.0184766 0 0.031195 0.0189941 0 0.031195 0.0195117 0 0.031195 0.0200293 0 0.031195 0.0205469 0 0.031195 0.0210645 0 0.031195 0.021582 0 0.031195 0.0220996 0 0.031195 0.0226172 0 0.031195 0.0231348 0 0.031195 0.0236523 0 0.031195 0.0241699 0 0.031195 0.0246875 0 0.03244 0.015625 0 0.03244 0.0161328 0 0.03244 0.0166406 0 0.03244 0.0171484 0 0.03244 0.0176562 0 0.03244 0.0181641 0 0.03244 0.0186719 0 0.03244 0.0191797 0 0.03244 0.0196875 0 0.03244 0.0201953 0 0.03244 0.0207031 0 0.03244 0.0212109 0 0.03244 0.0217188 0 0.03244 0.0222266 0 0.03244 0.0227344 0 0.03244 0.0232422 0 0.03244 0.02375 0 0.033685 0.0148438 0 0.033685 0.0153418 0 0.033685 0.0158398 0 0.033685 0.0163379 0 0.033685 0.0168359 0 0.033685 0.017334 0 0.033685 0.017832 0 0.033685 0.0183301 0 0.033685 0.0188281 0 0.033685 0.0193262 0 0.033685 0.0198242 0 0.033685 0.0203223 0 0.033685 0.0208203 0 0.033685 0.0213184 0 0.033685 0.0218164 0 0.033685 0.0223145 0 0.033685 0.0228125 0 0.03493 0.0140625 0 0.03493 0.0145508 0 0.03493 0.0150391 0 0.03493 0.0155273 0 0.03493 0.0160156 0 0.03493 0.0165039 0 0.03493 0.0169922 0 0.03493 0.0174805 0 0.03493 0.0179688 0 0.03493 0.018457 0 0.03493 0.0189453 0 0.03493 0.0194336 0 0.03493 0.0199219 0 0.03493 0.0204102 0 0.03493 0.0208984 0 0.03493 0.0213867 0 0.03493 0.021875 0 0.036175 0.0132812 0 0.036175 0.0137598 0 0.036175 0.0142383 0 0.036175 0.0147168 0 0.036175 0.0151953 0 0.036175 0.0156738 0 0.036175 0.0161523 0 0.036175 0.0166309 0 0.036175 0.0171094 0 0.036175 0.0175879 0 0.036175 0.0180664 0 0.036175 0.0185449 0 0.036175 0.0190234 0 0.036175 0.019502 0 0.036175 0.0199805 0 0.036175 0.020459 0 0.036175 0.0209375 0 0.03742 0.0125 0 0.03742 0.0129687 0 0.03742 0.0134375 0 0.03742 0.0139063 0 0.03742 0.014375 0 0.03742 0.0148438 0 0.03742 0.0153125 0 0.03742 0.0157813 0 0.03742 0.01625 0 0.03742 0.0167188 0 0.03742 0.0171875 0 0.03742 0.0176562 0 0.03742 0.018125 0 0.03742 0.0185937 0 0.03742 0.0190625 0 0.03742 0.0195312 0 0.03742 0.02 0 
</DataArray>
</Points> 
</Piece> 
</StructuredGrid> 
</VTKFile> 
