<?xml version="1.0"?> 
<VTKFile type="StructuredGrid" version="0.1"> 
<StructuredGrid WholeExtent="0 16 0 16 0 0"> 
<Piece Extent="0 16 0 16 0 0"> 
<CellData>
<DataArray type="Float32" Name="err_h1" format="ascii" NumberOfComponents="1"> 
322.312 269.407 226.91 191.781 157.724 134.209 114.765 100.93 81.1355 90.4287 113.934 152.112 187.61 254.843 345.451 468.893 189.573 172.159 162.793 160.277 148.498 157.261 171.482 191.272 186.756 215.649 252.158 297.309 296.422 356.953 434.035 532.296 227.55 219.91 214.552 212.302 199.174 200.843 208.044 221.578 193.31 212.667 242.868 283.476 224.34 280.959 348.782 421.144 270.028 246.804 225.077 205.514 184.56 163.97 150.054 146.617 99.8052 99.94 127.253 172.096 109.832 172.602 245.191 324.218 57.0245 60.4642 66.0884 74.0169 77.7093 80.8478 87.1785 96.6808 101.669 99.0884 100.186 105.3 160.889 149.854 140.473 133.363 15.7547 26.508 39.1232 52.9015 18.0518 32.7464 48.9865 66.209 3.55644 16.8049 35.1082 54.0132 54.5203 37.2745 20.6154 8.17924 53.0833 61.5539 71.8606 83.5847 67.4854 77.1534 88.9077 102.262 83.4817 89.9337 98.9566 110.053 94.5296 91.095 90.2675 92.0273 112.997 119.494 127.256 136.165 133.079 140.401 149.078 158.98 156.677 162.111 168.836 176.751 172.106 171.152 171.293 172.482 55.4758 50.2141 46.2886 44.0479 60.0197 54.454 49.9437 46.7681 60.5639 55.2815 50.9693 47.8421 49.7704 46.0173 43.5942 42.671 24.4643 17.1834 12.2614 12.6927 28.0164 20.3164 13.6736 10.178 26.623 19.0976 12.3791 8.3081 14.6668 10.0741 10.3494 15.069 61.3831 59.946 59.6482 60.478 60.496 58.3819 57.3037 57.2807 57.2612 55.1195 53.9491 53.7636 53.4104 53.142 53.8056 55.3272 101.247 100.424 100.205 100.577 98.6624 97.3516 96.5975 96.3895 94.0549 92.639 91.7376 91.3382 89.4249 89.1206 89.2929 89.917 11.7398 7.08756 3.25226 4.13882 9.26974 5.41185 3.8285 6.36753 8.23376 5.63675 5.68497 8.24886 11.3604 8.64321 7.19731 7.66284 28.0396 26.9371 26.5007 26.7388 27.3949 26.6845 26.5844 27.0809 27.4531 27.0045 27.0934 27.6966 28.3864 27.6259 27.3171 27.452 43.4874 42.7965 42.4545 42.458 42.4254 41.9215 41.7409 41.8779 41.8519 41.4634 41.3701 41.5652 41.5879 40.9843 40.6475 40.5746 51.4176 50.7873 50.4186 50.3088 50.0343 49.5349 49.2807 49.2683 49.0656 48.6391 48.4387 48.46 48.1905 47.5587 47.1272 46.8889 
</DataArray> 
</CellData> 
<Points> 
<DataArray type="Float32" NumberOfComponents="3"> 
0.09021 0.0098 0 0.0907531 0.0110629 0 0.0912962 0.0123258 0 0.0918392 0.0135887 0 0.0923823 0.0148516 0 0.0929254 0.0161145 0 0.0934685 0.0173774 0 0.0940116 0.0186403 0 0.0945546 0.0199032 0 0.0950977 0.0211661 0 0.0956408 0.022429 0 0.0961839 0.0236919 0 0.096727 0.0249548 0 0.0972701 0.0262177 0 0.0978131 0.0274806 0 0.0983562 0.0287435 0 0.0988993 0.0300064 0 0.0970719 0.0098 0 0.097581 0.0110629 0 0.0980902 0.0123258 0 0.0985993 0.0135887 0 0.0991084 0.0148516 0 0.0996176 0.0161145 0 0.100127 0.0173774 0 0.100636 0.0186403 0 0.101145 0.0199032 0 0.101654 0.0211661 0 0.102163 0.022429 0 0.102672 0.0236919 0 0.103182 0.0249548 0 0.103691 0.0262177 0 0.1042 0.0274806 0 0.104709 0.0287435 0 0.105218 0.0300064 0 0.103934 0.0098 0 0.104409 0.0110629 0 0.104884 0.0123258 0 0.105359 0.0135887 0 0.105835 0.0148516 0 0.10631 0.0161145 0 0.106785 0.0173774 0 0.10726 0.0186403 0 0.107735 0.0199032 0 0.108211 0.0211661 0 0.108686 0.022429 0 0.109161 0.0236919 0 0.109636 0.0249548 0 0.110111 0.0262177 0 0.110586 0.0274806 0 0.111062 0.0287435 0 0.111537 0.0300064 0 0.110796 0.0098 0 0.111237 0.0110629 0 0.111678 0.0123258 0 0.112119 0.0135887 0 0.112561 0.0148516 0 0.113002 0.0161145 0 0.113443 0.0173774 0 0.113884 0.0186403 0 0.114326 0.0199032 0 0.114767 0.0211661 0 0.115208 0.022429 0 0.115649 0.0236919 0 0.116091 0.0249548 0 0.116532 0.0262177 0 0.116973 0.0274806 0 0.117414 0.0287435 0 0.117856 0.0300064 0 0.117657 0.0098 0 0.118065 0.0110629 0 0.118472 0.0123258 0 0.118879 0.0135887 0 0.119287 0.0148516 0 0.119694 0.0161145 0 0.120101 0.0173774 0 0.120509 0.0186403 0 0.120916 0.0199032 0 0.121323 0.0211661 0 0.121731 0.022429 0 0.122138 0.0236919 0 0.122545 0.0249548 0 0.122953 0.0262177 0 0.12336 0.0274806 0 0.123767 0.0287435 0 0.124174 0.0300064 0 0.124519 0.0098 0 0.124893 0.0110629 0 0.125266 0.0123258 0 0.125639 0.0135887 0 0.126013 0.0148516 0 0.126386 0.0161145 0 0.12676 0.0173774 0 0.127133 0.0186403 0 0.127506 0.0199032 0 0.12788 0.0211661 0 0.128253 0.022429 0 0.128626 0.0236919 0 0.129 0.0249548 0 0.129373 0.0262177 0 0.129747 0.0274806 0 0.13012 0.0287435 0 0.130493 0.0300064 0 0.131381 0.0098 0 0.131721 0.0110629 0 0.13206 0.0123258 0 0.1324 0.0135887 0 0.132739 0.0148516 0 0.133078 0.0161145 0 0.133418 0.0173774 0 0.133757 0.0186403 0 0.134097 0.0199032 0 0.134436 0.0211661 0 0.134776 0.022429 0 0.135115 0.0236919 0 0.135454 0.0249548 0 0.135794 0.0262177 0 0.136133 0.0274806 0 0.136473 0.0287435 0 0.136812 0.0300064 0 0.138243 0.0098 0 0.138549 0.0110629 0 0.138854 0.0123258 0 0.13916 0.0135887 0 0.139465 0.0148516 0 0.139771 0.0161145 0 0.140076 0.0173774 0 0.140382 0.0186403 0 0.140687 0.0199032 0 0.140992 0.0211661 0 0.141298 0.022429 0 0.141603 0.0236919 0 0.141909 0.0249548 0 0.142214 0.0262177 0 0.14252 0.0274806 0 0.142825 0.0287435 0 0.143131 0.0300064 0 0.145105 0.0098 0 0.145377 0.0110629 0 0.145648 0.0123258 0 0.14592 0.0135887 0 0.146191 0.0148516 0 0.146463 0.0161145 0 0.146734 0.0173774 0 0.147006 0.0186403 0 0.147277 0.0199032 0 0.147549 0.0211661 0 0.14782 0.022429 0 0.148092 0.0236919 0 0.148363 0.0249548 0 0.148635 0.0262177 0 0.148907 0.0274806 0 0.149178 0.0287435 0 0.14945 0.0300064 0 0.151967 0.0098 0 0.152204 0.0110629 0 0.152442 0.0123258 0 0.15268 0.0135887 0 0.152917 0.0148516 0 0.153155 0.0161145 0 0.153392 0.0173774 0 0.15363 0.0186403 0 0.153868 0.0199032 0 0.154105 0.0211661 0 0.154343 0.022429 0 0.15458 0.0236919 0 0.154818 0.0249548 0 0.155056 0.0262177 0 0.155293 0.0274806 0 0.155531 0.0287435 0 0.155768 0.0300064 0 0.158829 0.0098 0 0.159032 0.0110629 0 0.159236 0.0123258 0 0.15944 0.0135887 0 0.159643 0.0148516 0 0.159847 0.0161145 0 0.160051 0.0173774 0 0.160254 0.0186403 0 0.160458 0.0199032 0 0.160662 0.0211661 0 0.160865 0.022429 0 0.161069 0.0236919 0 0.161273 0.0249548 0 0.161476 0.0262177 0 0.16168 0.0274806 0 0.161884 0.0287435 0 0.162087 0.0300064 0 0.165691 0.0098 0 0.16586 0.0110629 0 0.16603 0.0123258 0 0.1662 0.0135887 0 0.166369 0.0148516 0 0.166539 0.0161145 0 0.166709 0.0173774 0 0.166879 0.0186403 0 0.167048 0.0199032 0 0.167218 0.0211661 0 0.167388 0.022429 0 0.167557 0.0236919 0 0.167727 0.0249548 0 0.167897 0.0262177 0 0.168067 0.0274806 0 0.168236 0.0287435 0 0.168406 0.0300064 0 0.172553 0.0098 0 0.172688 0.0110629 0 0.172824 0.0123258 0 0.17296 0.0135887 0 0.173096 0.0148516 0 0.173231 0.0161145 0 0.173367 0.0173774 0 0.173503 0.0186403 0 0.173639 0.0199032 0 0.173774 0.0211661 0 0.17391 0.022429 0 0.174046 0.0236919 0 0.174182 0.0249548 0 0.174318 0.0262177 0 0.174453 0.0274806 0 0.174589 0.0287435 0 0.174725 0.0300064 0 0.179414 0.0098 0 0.179516 0.0110629 0 0.179618 0.0123258 0 0.17972 0.0135887 0 0.179822 0.0148516 0 0.179924 0.0161145 0 0.180025 0.0173774 0 0.180127 0.0186403 0 0.180229 0.0199032 0 0.180331 0.0211661 0 0.180433 0.022429 0 0.180534 0.0236919 0 0.180636 0.0249548 0 0.180738 0.0262177 0 0.18084 0.0274806 0 0.180942 0.0287435 0 0.181044 0.0300064 0 0.186276 0.0098 0 0.186344 0.0110629 0 0.186412 0.0123258 0 0.18648 0.0135887 0 0.186548 0.0148516 0 0.186616 0.0161145 0 0.186684 0.0173774 0 0.186751 0.0186403 0 0.186819 0.0199032 0 0.186887 0.0211661 0 0.186955 0.022429 0 0.187023 0.0236919 0 0.187091 0.0249548 0 0.187159 0.0262177 0 0.187227 0.0274806 0 0.187295 0.0287435 0 0.187362 0.0300064 0 0.193138 0.0098 0 0.193172 0.0110629 0 0.193206 0.0123258 0 0.19324 0.0135887 0 0.193274 0.0148516 0 0.193308 0.0161145 0 0.193342 0.0173774 0 0.193376 0.0186403 0 0.19341 0.0199032 0 0.193444 0.0211661 0 0.193478 0.022429 0 0.193511 0.0236919 0 0.193545 0.0249548 0 0.193579 0.0262177 0 0.193613 0.0274806 0 0.193647 0.0287435 0 0.193681 0.0300064 0 0.2 0.0098 0 0.2 0.0110629 0 0.2 0.0123258 0 0.2 0.0135887 0 0.2 0.0148516 0 0.2 0.0161145 0 0.2 0.0173774 0 0.2 0.0186403 0 0.2 0.0199032 0 0.2 0.0211661 0 0.2 0.022429 0 0.2 0.0236919 0 0.2 0.0249548 0 0.2 0.0262177 0 0.2 0.0274806 0 0.2 0.0287435 0 0.2 0.0300064 0 
</DataArray>
</Points> 
</Piece> 
</StructuredGrid> 
</VTKFile> 
