<?xml version="1.0"?> 
<VTKFile type="StructuredGrid" version="0.1"> 
<StructuredGrid WholeExtent="0 16 0 16 0 0"> 
<Piece Extent="0 16 0 16 0 0"> 
<CellData>
<DataArray type="Float32" Name="err_h1" format="ascii" NumberOfComponents="1"> 
484.783 367.138 336.418 321.907 306.544 267.297 245.461 239.268 220.789 202.011 202.886 224.158 217.313 220.722 267.586 358.927 77.4048 108.031 110.452 113.184 170.235 138.383 123.741 128.158 137.314 113.456 117.384 147.47 124.352 119.852 162.906 217.837 17.1777 28.9121 31.8311 23.8138 105.156 64.1039 28.441 33.774 88.4446 43.2596 43.3816 88.6318 65.3959 50.3755 105.391 161.565 41.9818 69.2636 92.7927 114.904 118.444 91.0026 66.8096 56.0142 98.2259 51.5527 29.7511 65.6487 53.5861 18.2024 82.8737 139.914 39.4368 51.1719 62.5287 72.6793 71.0018 81.0536 89.6949 97.4614 88.2678 92.9008 103.922 120.501 67.9453 73.2097 98.9842 130.692 15.0869 24.9453 33.815 41.3764 37.3967 42.0992 45.6758 48.6506 48.9439 49.4986 59.5014 76.6664 42.9058 42.6969 71.7801 106.142 5.1448 13.3055 20.356 25.9295 14.8882 15.8216 14.7411 11.3293 29.943 18.9081 24.2442 42.4768 32.9901 20.7392 53.8222 90.239 4.87131 12.4581 19.2055 24.7375 15.2182 20.8662 24.9261 27.812 35.6382 19.5199 4.41913 20.0792 34.1603 5.87628 43.3503 80.8203 3.14466 7.15464 11.2187 15.1954 14.7211 18.9484 23.1933 27.4501 31.3662 36.7935 43.5842 52.1374 27.692 34.8348 54.1156 77.0828 0.676474 3.55542 6.77609 9.84848 7.7066 10.3193 12.9027 15.2362 17.5314 20.517 25.0574 31.9494 19.4122 21.5015 41.3101 64.4773 0.457981 2.43947 5.24921 7.8757 3.33262 5.5162 7.34652 8.4039 9.26003 8.99356 10.1633 15.0464 17.7601 11.2267 31.9509 55.1492 0.583478 3.15001 5.81794 8.35322 3.5818 6.30134 8.44054 9.77134 9.89856 8.06784 4.51496 2.588 20.3018 3.39556 25.5363 48.6032 0.321089 1.53464 2.93789 4.3794 3.5959 4.36695 5.717 7.18928 9.10831 11.5927 14.6127 18.6629 11.5809 15.5973 30.4784 45.9362 0.38863 0.90577 2.14419 3.3962 2.1881 2.42471 3.51623 4.67333 5.57686 7.30772 9.36915 12.1347 11.5229 7.33948 22.7929 39.3006 0.501547 0.673599 1.84843 3.01454 0.997169 1.4821 2.87582 4.11176 3.16965 4.26397 5.51994 7.26336 13.2167 4.44922 15.1467 35.1303 0.47421 0.698928 1.87159 3.02632 0.368133 2.07375 3.69726 5.11899 2.06264 2.51214 2.93292 3.64065 14.5062 6.22611 8.54451 34.4772 
</DataArray> 
</CellData> 
<Points> 
<DataArray type="Float32" NumberOfComponents="3"> 
0.0075 0.0125 0 0.0075 0.0132812 0 0.0075 0.0140625 0 0.0075 0.0148438 0 0.0075 0.015625 0 0.0075 0.0164063 0 0.0075 0.0171875 0 0.0075 0.0179688 0 0.0075 0.01875 0 0.0075 0.0195312 0 0.0075 0.0203125 0 0.0075 0.0210938 0 0.0075 0.021875 0 0.0075 0.0226563 0 0.0075 0.0234375 0 0.0075 0.0242188 0 0.0075 0.025 0 0.00937 0.0125 0 0.00929219 0.0132812 0 0.00921438 0.0140625 0 0.00913656 0.0148438 0 0.00905875 0.015625 0 0.00898094 0.0164063 0 0.00890313 0.0171875 0 0.00882531 0.0179688 0 0.0087475 0.01875 0 0.00866969 0.0195312 0 0.00859188 0.0203125 0 0.00851406 0.0210938 0 0.00843625 0.021875 0 0.00835844 0.0226563 0 0.00828062 0.0234375 0 0.00820281 0.0242188 0 0.008125 0.025 0 0.01124 0.0125 0 0.0110844 0.0132812 0 0.0109288 0.0140625 0 0.0107731 0.0148438 0 0.0106175 0.015625 0 0.0104619 0.0164063 0 0.0103062 0.0171875 0 0.0101506 0.0179688 0 0.009995 0.01875 0 0.00983938 0.0195312 0 0.00968375 0.0203125 0 0.00952813 0.0210938 0 0.0093725 0.021875 0 0.00921688 0.0226563 0 0.00906125 0.0234375 0 0.00890563 0.0242188 0 0.00875 0.025 0 0.01311 0.0125 0 0.0128766 0.0132812 0 0.0126431 0.0140625 0 0.0124097 0.0148438 0 0.0121763 0.015625 0 0.0119428 0.0164063 0 0.0117094 0.0171875 0 0.0114759 0.0179688 0 0.0112425 0.01875 0 0.0110091 0.0195312 0 0.0107756 0.0203125 0 0.0105422 0.0210938 0 0.0103088 0.021875 0 0.0100753 0.0226563 0 0.00984188 0.0234375 0 0.00960844 0.0242188 0 0.009375 0.025 0 0.01498 0.0125 0 0.0146688 0.0132812 0 0.0143575 0.0140625 0 0.0140462 0.0148438 0 0.013735 0.015625 0 0.0134238 0.0164063 0 0.0131125 0.0171875 0 0.0128013 0.0179688 0 0.01249 0.01875 0 0.0121788 0.0195312 0 0.0118675 0.0203125 0 0.0115563 0.0210938 0 0.011245 0.021875 0 0.0109338 0.0226563 0 0.0106225 0.0234375 0 0.0103112 0.0242188 0 0.01 0.025 0 0.01685 0.0125 0 0.0164609 0.0132812 0 0.0160719 0.0140625 0 0.0156828 0.0148438 0 0.0152937 0.015625 0 0.0149047 0.0164063 0 0.0145156 0.0171875 0 0.0141266 0.0179688 0 0.0137375 0.01875 0 0.0133484 0.0195312 0 0.0129594 0.0203125 0 0.0125703 0.0210938 0 0.0121813 0.021875 0 0.0117922 0.0226563 0 0.0114031 0.0234375 0 0.0110141 0.0242188 0 0.010625 0.025 0 0.01872 0.0125 0 0.0182531 0.0132812 0 0.0177862 0.0140625 0 0.0173194 0.0148438 0 0.0168525 0.015625 0 0.0163856 0.0164063 0 0.0159188 0.0171875 0 0.0154519 0.0179688 0 0.014985 0.01875 0 0.0145181 0.0195312 0 0.0140512 0.0203125 0 0.0135844 0.0210938 0 0.0131175 0.021875 0 0.0126506 0.0226563 0 0.0121838 0.0234375 0 0.0117169 0.0242188 0 0.01125 0.025 0 0.02059 0.0125 0 0.0200453 0.0132812 0 0.0195006 0.0140625 0 0.0189559 0.0148438 0 0.0184113 0.015625 0 0.0178666 0.0164063 0 0.0173219 0.0171875 0 0.0167772 0.0179688 0 0.0162325 0.01875 0 0.0156878 0.0195312 0 0.0151431 0.0203125 0 0.0145984 0.0210938 0 0.0140538 0.021875 0 0.0135091 0.0226563 0 0.0129644 0.0234375 0 0.0124197 0.0242188 0 0.011875 0.025 0 0.02246 0.0125 0 0.0218375 0.0132812 0 0.021215 0.0140625 0 0.0205925 0.0148438 0 0.01997 0.015625 0 0.0193475 0.0164063 0 0.018725 0.0171875 0 0.0181025 0.0179688 0 0.01748 0.01875 0 0.0168575 0.0195312 0 0.016235 0.0203125 0 0.0156125 0.0210938 0 0.01499 0.021875 0 0.0143675 0.0226563 0 0.013745 0.0234375 0 0.0131225 0.0242188 0 0.0125 0.025 0 0.02433 0.0125 0 0.0236297 0.0132812 0 0.0229294 0.0140625 0 0.0222291 0.0148438 0 0.0215287 0.015625 0 0.0208284 0.0164063 0 0.0201281 0.0171875 0 0.0194278 0.0179688 0 0.0187275 0.01875 0 0.0180272 0.0195312 0 0.0173269 0.0203125 0 0.0166266 0.0210938 0 0.0159263 0.021875 0 0.0152259 0.0226563 0 0.0145256 0.0234375 0 0.0138253 0.0242188 0 0.013125 0.025 0 0.0262 0.0125 0 0.0254219 0.0132812 0 0.0246438 0.0140625 0 0.0238656 0.0148438 0 0.0230875 0.015625 0 0.0223094 0.0164063 0 0.0215313 0.0171875 0 0.0207531 0.0179688 0 0.019975 0.01875 0 0.0191969 0.0195312 0 0.0184188 0.0203125 0 0.0176406 0.0210938 0 0.0168625 0.021875 0 0.0160844 0.0226563 0 0.0153063 0.0234375 0 0.0145281 0.0242188 0 0.01375 0.025 0 0.02807 0.0125 0 0.0272141 0.0132812 0 0.0263581 0.0140625 0 0.0255022 0.0148438 0 0.0246463 0.015625 0 0.0237903 0.0164063 0 0.0229344 0.0171875 0 0.0220784 0.0179688 0 0.0212225 0.01875 0 0.0203666 0.0195312 0 0.0195106 0.0203125 0 0.0186547 0.0210938 0 0.0177988 0.021875 0 0.0169428 0.0226563 0 0.0160869 0.0234375 0 0.0152309 0.0242188 0 0.014375 0.025 0 0.02994 0.0125 0 0.0290063 0.0132812 0 0.0280725 0.0140625 0 0.0271387 0.0148438 0 0.026205 0.015625 0 0.0252713 0.0164063 0 0.0243375 0.0171875 0 0.0234038 0.0179688 0 0.02247 0.01875 0 0.0215362 0.0195312 0 0.0206025 0.0203125 0 0.0196687 0.0210938 0 0.018735 0.021875 0 0.0178013 0.0226563 0 0.0168675 0.0234375 0 0.0159337 0.0242188 0 0.015 0.025 0 0.03181 0.0125 0 0.0307984 0.0132812 0 0.0297869 0.0140625 0 0.0287753 0.0148438 0 0.0277637 0.015625 0 0.0267522 0.0164063 0 0.0257406 0.0171875 0 0.0247291 0.0179688 0 0.0237175 0.01875 0 0.0227059 0.0195312 0 0.0216944 0.0203125 0 0.0206828 0.0210938 0 0.0196713 0.021875 0 0.0186597 0.0226563 0 0.0176481 0.0234375 0 0.0166366 0.0242188 0 0.015625 0.025 0 0.03368 0.0125 0 0.0325906 0.0132812 0 0.0315013 0.0140625 0 0.0304119 0.0148438 0 0.0293225 0.015625 0 0.0282331 0.0164063 0 0.0271438 0.0171875 0 0.0260544 0.0179688 0 0.024965 0.01875 0 0.0238756 0.0195312 0 0.0227863 0.0203125 0 0.0216969 0.0210938 0 0.0206075 0.021875 0 0.0195181 0.0226563 0 0.0184288 0.0234375 0 0.0173394 0.0242188 0 0.01625 0.025 0 0.03555 0.0125 0 0.0343828 0.0132812 0 0.0332156 0.0140625 0 0.0320484 0.0148438 0 0.0308812 0.015625 0 0.0297141 0.0164063 0 0.0285469 0.0171875 0 0.0273797 0.0179688 0 0.0262125 0.01875 0 0.0250453 0.0195312 0 0.0238781 0.0203125 0 0.0227109 0.0210938 0 0.0215438 0.021875 0 0.0203766 0.0226563 0 0.0192094 0.0234375 0 0.0180422 0.0242188 0 0.016875 0.025 0 0.03742 0.0125 0 0.036175 0.0132812 0 0.03493 0.0140625 0 0.033685 0.0148438 0 0.03244 0.015625 0 0.031195 0.0164063 0 0.02995 0.0171875 0 0.028705 0.0179688 0 0.02746 0.01875 0 0.026215 0.0195312 0 0.02497 0.0203125 0 0.023725 0.0210938 0 0.02248 0.021875 0 0.021235 0.0226563 0 0.01999 0.0234375 0 0.018745 0.0242188 0 0.0175 0.025 0 
</DataArray>
</Points> 
</Piece> 
</StructuredGrid> 
</VTKFile> 
