<?xml version="1.0"?> 
<VTKFile type="StructuredGrid" version="0.1"> 
<StructuredGrid WholeExtent="0 16 0 16 0 0"> 
<Piece Extent="0 16 0 16 0 0"> 
<CellData>
<DataArray type="Float32" Name="err_h1" format="ascii" NumberOfComponents="1"> 
33.3541 33.4093 33.5035 33.6372 33.8151 34.0375 34.3025 34.6116 34.9208 35.2425 35.6144 36.0393 36.3661 36.6342 36.965 37.3625 32.5604 32.613 32.7011 32.8254 32.9922 33.1991 33.4455 33.733 33.9861 34.2768 34.6152 35.0044 35.1833 35.3953 35.6678 36.0046 31.0811 31.1277 31.2027 31.3067 31.4493 31.6226 31.8288 32.0699 32.2114 32.4362 32.704 33.0181 32.9225 33.02 33.1761 33.3967 29.1265 29.1629 29.2158 29.2859 29.3873 29.5045 29.6435 29.8067 29.7841 29.8999 30.0495 30.2373 29.7891 29.6955 29.6543 29.6735 18.8441 19.0674 19.2929 19.5214 20.2199 20.9484 21.6811 22.4201 23.6077 25.0479 26.4987 27.9635 29.5726 32.205 34.8593 37.5399 16.9813 17.2006 17.4007 17.5826 18.9473 19.6028 20.2425 20.8687 23.4394 24.6872 25.9323 27.1774 30.9264 33.1664 35.4351 37.7317 15.7453 15.9396 16.094 16.2088 18.5797 19.0943 19.5753 20.0231 24.8199 25.7491 26.6658 27.5693 35.4753 37.0954 38.7539 40.4461 15.4377 15.584 15.6807 15.7262 19.2545 19.5833 19.8657 20.0976 27.4126 27.9613 28.4803 28.9643 41.6407 42.5908 43.5602 44.5365 10.1206 10.2918 10.5083 10.7727 15.1147 15.6443 16.2507 16.9434 24.6511 25.6812 26.8803 28.2621 40.5409 42.5831 44.9572 47.6737 8.61733 8.74277 8.87894 9.0297 11.4438 11.8276 12.2597 12.7576 16.971 17.863 18.9356 20.2174 26.5987 28.8143 31.4308 34.472 7.37142 7.47294 7.49128 7.42875 8.48113 8.60776 8.67536 8.71315 10.2051 10.7113 11.3777 12.2888 14.5729 17.0487 19.9937 23.2672 8.15342 8.23705 8.15343 7.8961 7.97804 7.7921 7.36723 6.68923 5.77886 5.21099 4.56695 4.18944 7.10862 9.63077 12.9148 17.6677 20.4341 20.2957 20.0065 19.569 18.8759 18.1303 17.2887 16.4055 14.1608 13.3695 13.1175 13.6666 13.1268 17.1706 22.5039 30.1572 31.9861 32.0628 32.2128 32.4535 32.7257 33.2263 33.9754 35.0836 35.6373 37.832 40.9613 45.0824 46.8724 51.8207 54.2511 50.015 47.5592 47.9668 48.791 50.0668 51.8062 54.1554 57.2086 61.1255 65.6109 71.9135 80.1984 91.3795 105.166 128.675 166.5 230.679 59.4184 60.1203 61.5531 63.7901 66.9362 71.1784 76.7749 84.0887 93.5089 105.933 122.452 144.721 174.782 217.276 278.379 368.484 
</DataArray> 
</CellData> 
<Points> 
<DataArray type="Float32" NumberOfComponents="3"> 
-0.05 0 0 -0.05 0.00078125 0 -0.05 0.0015625 0 -0.05 0.00234375 0 -0.05 0.003125 0 -0.05 0.00390625 0 -0.05 0.0046875 0 -0.05 0.00546875 0 -0.05 0.00625 0 -0.05 0.00703125 0 -0.05 0.0078125 0 -0.05 0.00859375 0 -0.05 0.009375 0 -0.05 0.0101563 0 -0.05 0.0109375 0 -0.05 0.0117188 0 -0.05 0.0125 0 -0.0464063 0 0 -0.0464063 0.00078125 0 -0.0464063 0.0015625 0 -0.0464062 0.00234375 0 -0.0464063 0.003125 0 -0.0464063 0.00390625 0 -0.0464063 0.0046875 0 -0.0464063 0.00546875 0 -0.0464063 0.00625 0 -0.0464063 0.00703125 0 -0.0464063 0.0078125 0 -0.0464063 0.00859375 0 -0.0464063 0.009375 0 -0.0464062 0.0101563 0 -0.0464063 0.0109375 0 -0.0464063 0.0117188 0 -0.0464063 0.0125 0 -0.0428125 0 0 -0.0428125 0.00078125 0 -0.0428125 0.0015625 0 -0.0428125 0.00234375 0 -0.0428125 0.003125 0 -0.0428125 0.00390625 0 -0.0428125 0.0046875 0 -0.0428125 0.00546875 0 -0.0428125 0.00625 0 -0.0428125 0.00703125 0 -0.0428125 0.0078125 0 -0.0428125 0.00859375 0 -0.0428125 0.009375 0 -0.0428125 0.0101563 0 -0.0428125 0.0109375 0 -0.0428125 0.0117188 0 -0.0428125 0.0125 0 -0.0392188 0 0 -0.0392188 0.00078125 0 -0.0392188 0.0015625 0 -0.0392188 0.00234375 0 -0.0392188 0.003125 0 -0.0392188 0.00390625 0 -0.0392188 0.0046875 0 -0.0392188 0.00546875 0 -0.0392188 0.00625 0 -0.0392188 0.00703125 0 -0.0392188 0.0078125 0 -0.0392188 0.00859375 0 -0.0392188 0.009375 0 -0.0392188 0.0101563 0 -0.0392188 0.0109375 0 -0.0392188 0.0117188 0 -0.0392188 0.0125 0 -0.035625 0 0 -0.035625 0.00078125 0 -0.035625 0.0015625 0 -0.035625 0.00234375 0 -0.035625 0.003125 0 -0.035625 0.00390625 0 -0.035625 0.0046875 0 -0.035625 0.00546875 0 -0.035625 0.00625 0 -0.035625 0.00703125 0 -0.035625 0.0078125 0 -0.035625 0.00859375 0 -0.035625 0.009375 0 -0.035625 0.0101563 0 -0.035625 0.0109375 0 -0.035625 0.0117188 0 -0.035625 0.0125 0 -0.0320313 0 0 -0.0320313 0.00078125 0 -0.0320313 0.0015625 0 -0.0320313 0.00234375 0 -0.0320313 0.003125 0 -0.0320313 0.00390625 0 -0.0320313 0.0046875 0 -0.0320313 0.00546875 0 -0.0320313 0.00625 0 -0.0320313 0.00703125 0 -0.0320313 0.0078125 0 -0.0320313 0.00859375 0 -0.0320313 0.009375 0 -0.0320313 0.0101563 0 -0.0320313 0.0109375 0 -0.0320313 0.0117188 0 -0.0320313 0.0125 0 -0.0284375 0 0 -0.0284375 0.00078125 0 -0.0284375 0.0015625 0 -0.0284375 0.00234375 0 -0.0284375 0.003125 0 -0.0284375 0.00390625 0 -0.0284375 0.0046875 0 -0.0284375 0.00546875 0 -0.0284375 0.00625 0 -0.0284375 0.00703125 0 -0.0284375 0.0078125 0 -0.0284375 0.00859375 0 -0.0284375 0.009375 0 -0.0284375 0.0101563 0 -0.0284375 0.0109375 0 -0.0284375 0.0117188 0 -0.0284375 0.0125 0 -0.0248438 0 0 -0.0248438 0.00078125 0 -0.0248438 0.0015625 0 -0.0248438 0.00234375 0 -0.0248438 0.003125 0 -0.0248438 0.00390625 0 -0.0248438 0.0046875 0 -0.0248438 0.00546875 0 -0.0248438 0.00625 0 -0.0248438 0.00703125 0 -0.0248438 0.0078125 0 -0.0248438 0.00859375 0 -0.0248438 0.009375 0 -0.0248438 0.0101563 0 -0.0248438 0.0109375 0 -0.0248438 0.0117188 0 -0.0248438 0.0125 0 -0.02125 0 0 -0.02125 0.00078125 0 -0.02125 0.0015625 0 -0.02125 0.00234375 0 -0.02125 0.003125 0 -0.02125 0.00390625 0 -0.02125 0.0046875 0 -0.02125 0.00546875 0 -0.02125 0.00625 0 -0.02125 0.00703125 0 -0.02125 0.0078125 0 -0.02125 0.00859375 0 -0.02125 0.009375 0 -0.02125 0.0101563 0 -0.02125 0.0109375 0 -0.02125 0.0117188 0 -0.02125 0.0125 0 -0.0176563 0 0 -0.0176563 0.00078125 0 -0.0176563 0.0015625 0 -0.0176563 0.00234375 0 -0.0176563 0.003125 0 -0.0176563 0.00390625 0 -0.0176563 0.0046875 0 -0.0176563 0.00546875 0 -0.0176563 0.00625 0 -0.0176563 0.00703125 0 -0.0176563 0.0078125 0 -0.0176563 0.00859375 0 -0.0176563 0.009375 0 -0.0176563 0.0101563 0 -0.0176563 0.0109375 0 -0.0176563 0.0117188 0 -0.0176563 0.0125 0 -0.0140625 0 0 -0.0140625 0.00078125 0 -0.0140625 0.0015625 0 -0.0140625 0.00234375 0 -0.0140625 0.003125 0 -0.0140625 0.00390625 0 -0.0140625 0.0046875 0 -0.0140625 0.00546875 0 -0.0140625 0.00625 0 -0.0140625 0.00703125 0 -0.0140625 0.0078125 0 -0.0140625 0.00859375 0 -0.0140625 0.009375 0 -0.0140625 0.0101563 0 -0.0140625 0.0109375 0 -0.0140625 0.0117188 0 -0.0140625 0.0125 0 -0.0104688 0 0 -0.0104688 0.00078125 0 -0.0104688 0.0015625 0 -0.0104688 0.00234375 0 -0.0104688 0.003125 0 -0.0104688 0.00390625 0 -0.0104688 0.0046875 0 -0.0104688 0.00546875 0 -0.0104688 0.00625 0 -0.0104688 0.00703125 0 -0.0104688 0.0078125 0 -0.0104688 0.00859375 0 -0.0104688 0.009375 0 -0.0104688 0.0101563 0 -0.0104688 0.0109375 0 -0.0104688 0.0117188 0 -0.0104688 0.0125 0 -0.006875 0 0 -0.006875 0.00078125 0 -0.006875 0.0015625 0 -0.006875 0.00234375 0 -0.006875 0.003125 0 -0.006875 0.00390625 0 -0.006875 0.0046875 0 -0.006875 0.00546875 0 -0.006875 0.00625 0 -0.006875 0.00703125 0 -0.006875 0.0078125 0 -0.006875 0.00859375 0 -0.006875 0.009375 0 -0.006875 0.0101563 0 -0.006875 0.0109375 0 -0.006875 0.0117188 0 -0.006875 0.0125 0 -0.00328125 0 0 -0.00328125 0.00078125 0 -0.00328125 0.0015625 0 -0.00328125 0.00234375 0 -0.00328125 0.003125 0 -0.00328125 0.00390625 0 -0.00328125 0.0046875 0 -0.00328125 0.00546875 0 -0.00328125 0.00625 0 -0.00328125 0.00703125 0 -0.00328125 0.0078125 0 -0.00328125 0.00859375 0 -0.00328125 0.009375 0 -0.00328125 0.0101563 0 -0.00328125 0.0109375 0 -0.00328125 0.0117188 0 -0.00328125 0.0125 0 0.0003125 0 0 0.0003125 0.00078125 0 0.0003125 0.0015625 0 0.0003125 0.00234375 0 0.0003125 0.003125 0 0.0003125 0.00390625 0 0.0003125 0.0046875 0 0.0003125 0.00546875 0 0.0003125 0.00625 0 0.0003125 0.00703125 0 0.0003125 0.0078125 0 0.0003125 0.00859375 0 0.0003125 0.009375 0 0.0003125 0.0101563 0 0.0003125 0.0109375 0 0.0003125 0.0117188 0 0.0003125 0.0125 0 0.00390625 0 0 0.00390625 0.00078125 0 0.00390625 0.0015625 0 0.00390625 0.00234375 0 0.00390625 0.003125 0 0.00390625 0.00390625 0 0.00390625 0.0046875 0 0.00390625 0.00546875 0 0.00390625 0.00625 0 0.00390625 0.00703125 0 0.00390625 0.0078125 0 0.00390625 0.00859375 0 0.00390625 0.009375 0 0.00390625 0.0101563 0 0.00390625 0.0109375 0 0.00390625 0.0117188 0 0.00390625 0.0125 0 0.0075 0 0 0.0075 0.00078125 0 0.0075 0.0015625 0 0.0075 0.00234375 0 0.0075 0.003125 0 0.0075 0.00390625 0 0.0075 0.0046875 0 0.0075 0.00546875 0 0.0075 0.00625 0 0.0075 0.00703125 0 0.0075 0.0078125 0 0.0075 0.00859375 0 0.0075 0.009375 0 0.0075 0.0101563 0 0.0075 0.0109375 0 0.0075 0.0117188 0 0.0075 0.0125 0 
</DataArray>
</Points> 
</Piece> 
</StructuredGrid> 
</VTKFile> 
