<?xml version="1.0"?> 
<VTKFile type="StructuredGrid" version="0.1"> 
<StructuredGrid WholeExtent="0 16 0 16 0 0"> 
<Piece Extent="0 16 0 16 0 0"> 
<CellData>
<DataArray type="Float32" Name="err_h1" format="ascii" NumberOfComponents="1"> 
179.863 226.373 278.224 325.586 381.262 428.876 450.797 446.705 468.991 492.729 501.203 499.733 520.799 547.707 578.494 617.242 145.64 152.134 163.874 171.721 201.005 214.816 207.441 178.408 207.964 210.221 198.608 177.32 199.65 204.063 209.907 220.476 99.5434 68.5861 44.4178 19.0898 41.8185 20.8202 41.9439 101.469 67.9199 78.7373 109.455 151.639 128.39 144.836 162.771 179.625 55.1118 38.5905 96.0814 160.595 185.875 230.832 296.299 381.666 332.753 370.402 422.559 484.629 455.348 492.229 531.354 570.623 242.996 282.894 333.326 384.086 456.643 472.451 470.448 450.291 573.287 570.618 550.174 514.31 600.143 592.905 572.374 540.324 159.769 166.868 185.723 204.195 246.268 228.674 198.063 162.989 290.409 258.074 214.963 168.089 277.667 247.975 208.88 164.345 75.6229 39.8193 27.7123 17.5494 50.0029 31.61 95.5665 190.916 95.0774 72.0499 128.773 220.854 84.8422 95.417 151.325 227.738 100.73 115.847 154.36 197.594 229.444 299.886 392.097 507.125 338.861 392.016 474.961 579.919 382.953 430.911 500.122 585.383 370.235 430.95 507.756 584.554 638.665 638.67 618.864 583.033 778.184 695.656 600.028 504.852 720.307 640.331 555.104 480.378 206.433 237.952 289.541 338.741 339.58 310.792 270.423 242.212 406.102 294.986 199.047 208.719 410.566 299.402 202.113 193.014 56.4833 23.1526 72.2177 99.384 20.2695 57.5595 155.483 286.609 118.141 128.007 279.758 467.807 256.247 142.178 146.081 284.349 234.599 241.679 260.638 279.522 373.151 457.812 567.588 706.651 466.208 578.266 730.376 911.574 467.647 448.074 487.556 580.77 723.734 862.741 1009.66 1146.35 1193.61 1289.5 1349.33 1376.13 1587.69 1479.11 1367.28 1279.9 1536.87 1289.99 1090.82 980.004 329.915 452.211 574.351 679.247 675.738 732.041 752.762 745.909 919.719 794.936 692.556 667.145 769.889 589.051 540.451 657.897 295.005 344.582 403.226 453.075 411.652 398.146 346.976 255.79 359.018 195.879 117.053 312.961 125.966 325.97 575.745 824.861 997.931 1065.5 1147.74 1238.75 1322.66 1392.47 1446.48 1477.11 1494.02 1495.54 1461.4 1395 1303.56 1222.63 1126.34 1030.02 
</DataArray> 
</CellData> 
<Points> 
<DataArray type="Float32" NumberOfComponents="3"> 
-0.05 0.0425 0 -0.05 0.0492187 0 -0.05 0.0559375 0 -0.05 0.0626563 0 -0.05 0.069375 0 -0.05 0.0760938 0 -0.05 0.0828125 0 -0.05 0.0895313 0 -0.05 0.09625 0 -0.05 0.102969 0 -0.05 0.109687 0 -0.05 0.116406 0 -0.05 0.123125 0 -0.05 0.129844 0 -0.05 0.136563 0 -0.05 0.143281 0 -0.05 0.15 0 -0.046875 0.0425 0 -0.0469739 0.0488531 0 -0.0470561 0.0552285 0 -0.0471213 0.0616206 0 -0.0471695 0.0680241 0 -0.0472005 0.0744335 0 -0.0472142 0.0808433 0 -0.0472106 0.0872478 0 -0.0471897 0.0936416 0 -0.0471515 0.100019 0 -0.047096 0.106375 0 -0.0470233 0.112703 0 -0.0469335 0.118999 0 -0.0468267 0.125257 0 -0.0467031 0.131471 0 -0.0465629 0.137637 0 -0.0464063 0.14375 0 -0.04375 0.0425 0 -0.0439348 0.0484859 0 -0.0440884 0.0545137 0 -0.0442102 0.0605733 0 -0.0442996 0.0666544 0 -0.0443562 0.0727468 0 -0.0443798 0.0788397 0 -0.0443701 0.0849225 0 -0.0443271 0.0909846 0 -0.0442508 0.0970154 0 -0.0441413 0.103004 0 -0.0439991 0.108941 0 -0.0438243 0.114816 0 -0.0436177 0.120618 0 -0.0433796 0.126339 0 -0.043111 0.131969 0 -0.0428125 0.1375 0 -0.040625 0.0425 0 -0.0408826 0.0481172 0 -0.0410967 0.0537931 0 -0.0412661 0.0595141 0 -0.0413895 0.0652656 0 -0.0414662 0.0710328 0 -0.0414954 0.0768008 0 -0.0414769 0.0825541 0 -0.0414105 0.0882776 0 -0.0412963 0.0939561 0 -0.0411346 0.0995745 0 -0.0409261 0.105118 0 -0.0406716 0.110574 0 -0.0403722 0.115927 0 -0.0400292 0.121165 0 -0.0396442 0.126276 0 -0.0392188 0.13125 0 -0.0375 0.0425 0 -0.0378172 0.0477468 0 -0.0380807 0.0530667 0 -0.0382883 0.0584428 0 -0.0384383 0.0638571 0 -0.0385291 0.069291 0 -0.0385598 0.0747256 0 -0.0385297 0.0801415 0 -0.0384385 0.0855192 0 -0.0382866 0.0908395 0 -0.0380744 0.0960837 0 -0.0378032 0.101234 0 -0.0374743 0.106272 0 -0.0370897 0.111182 0 -0.0366515 0.115949 0 -0.0361624 0.120559 0 -0.035625 0.125 0 -0.034375 0.0425 0 -0.0347385 0.0473748 0 -0.0350399 0.0523343 0 -0.0352764 0.0573592 0 -0.0354451 0.0624285 0 -0.035544 0.0675207 0 -0.0355716 0.0726133 0 -0.0355269 0.0776833 0 -0.0354096 0.0827078 0 -0.0352201 0.0876642 0 -0.0349594 0.0925303 0 -0.0346291 0.0972851 0 -0.0342316 0.101909 0 -0.0337695 0.106383 0 -0.0332462 0.11069 0 -0.0326654 0.114817 0 -0.0320313 0.11875 0 -0.03125 0.0425 0 -0.0316463 0.0470012 0 -0.0319743 0.051596 0 -0.0322297 0.0562631 0 -0.0324091 0.0609796 0 -0.0325096 0.0657212 0 -0.0325293 0.0704627 0 -0.0324668 0.0751783 0 -0.0323219 0.079842 0 -0.0320952 0.0844283 0 -0.031788 0.0889126 0 -0.0314027 0.0932714 0 -0.0309424 0.0974831 0 -0.030411 0.101528 0 -0.029813 0.105388 0 -0.0291533 0.10905 0 -0.0284375 0.1125 0 -0.028125 0.0425 0 -0.0285408 0.046626 0 -0.0288834 0.0508515 0 -0.0291477 0.0551542 0 -0.0293293 0.0595097 0 -0.0294247 0.0638917 0 -0.0294314 0.0682729 0 -0.0293479 0.0726251 0 -0.0291739 0.0769201 0 -0.0289101 0.0811302 0 -0.0285587 0.0852288 0 -0.0281225 0.089191 0 -0.0276058 0.0929937 0 -0.0270135 0.0966168 0 -0.0263514 0.100043 0 -0.0256259 0.103258 0 -0.0248438 0.10625 0 -0.025 0.0425 0 -0.0254216 0.0462491 0 -0.0257669 0.0501009 0 -0.0260296 0.0540325 0 -0.0262047 0.0580185 0 -0.026288 0.0620315 0 -0.0262765 0.0660427 0 -0.0261684 0.0700223 0 -0.0259636 0.0739405 0 -0.0256633 0.0777681 0 -0.0252699 0.0814772 0 -0.0247873 0.085042 0 -0.0242208 0.0884391 0 -0.0235764 0.0916484 0 -0.0228613 0.0946531 0 -0.0220831 0.0974401 0 -0.02125 0.1 0 -0.021875 0.0425 0 -0.0222888 0.0458706 0 -0.0226245 0.049344 0 -0.022875 0.0528975 0 -0.0230344 0.0565054 0 -0.0230982 0.0601398 0 -0.0230628 0.063771 0 -0.0229266 0.0673685 0 -0.0226894 0.0709015 0 -0.0223527 0.07434 0 -0.0219199 0.0776558 0 -0.0213956 0.0808228 0 -0.0207862 0.0838179 0 -0.0200989 0.0866217 0 -0.0193421 0.0892186 0 -0.0185248 0.0915972 0 -0.0176563 0.09375 0 -0.01875 0.0425 0 -0.0191423 0.0454904 0 -0.0194558 0.0485809 0 -0.019683 0.0517492 0 -0.0198174 0.0549701 0 -0.0198539 0.0582158 0 -0.0197889 0.0614567 0 -0.0196206 0.0646621 0 -0.0193491 0.0678012 0 -0.0189766 0.0708441 0 -0.018507 0.0737627 0 -0.017946 0.0765315 0 -0.0173009 0.0791285 0 -0.0165803 0.0815355 0 -0.0157936 0.0837387 0 -0.0149509 0.0857286 0 -0.0140625 0.0875 0 -0.015625 0.0425 0 -0.015982 0.0451086 0 -0.0162607 0.0478113 0 -0.0164532 0.0505872 0 -0.0165527 0.0534119 0 -0.0165538 0.0562587 0 -0.0164529 0.0590986 0 -0.0162484 0.0619016 0 -0.0159409 0.0646378 0 -0.015533 0.0672782 0 -0.0150295 0.0697958 0 -0.014437 0.0721663 0 -0.0137639 0.0743695 0 -0.0130199 0.0763889 0 -0.0122153 0.0782129 0 -0.0113612 0.0798343 0 -0.0104688 0.08125 0 -0.0125 0.0425 0 -0.0128077 0.044725 0 -0.0130387 0.0470353 0 -0.0131847 0.0494113 0 -0.013239 0.0518305 0 -0.0131963 0.0542676 0 -0.0130531 0.0566953 0 -0.0128081 0.0590853 0 -0.0124626 0.0614094 0 -0.0120198 0.0636403 0 -0.0114854 0.0657529 0 -0.010867 0.0677253 0 -0.010174 0.0695393 0 -0.0094169 0.0711808 0 -0.00860695 0.0726407 0 -0.00775581 0.0739139 0 -0.006875 0.075 0 -0.009375 0.0425 0 -0.00961946 0.0443398 0 -0.00978939 0.0462527 0 -0.00987692 0.0482212 0 -0.00987543 0.0502252 0 -0.00977996 0.0522415 0 -0.00958757 0.0542456 0 -0.00929764 0.0562116 0 -0.00891198 0.0581139 0 -0.00843486 0.0599281 0 -0.00787285 0.061632 0 -0.00723452 0.0632065 0 -0.00653001 0.0646362 0 -0.00577059 0.0659101 0 -0.0049681 0.0670213 0 -0.00413447 0.0679675 0 -0.00328125 0.06875 0 -0.00625 0.0425 0 -0.00641709 0.0439529 0 -0.00651257 0.0454634 0 -0.00652912 0.0470168 0 -0.00646076 0.0485955 0 -0.00630325 0.0501797 0 -0.00605449 0.0517481 0 -0.00571475 0.0532785 0 -0.00528683 0.0547492 0 -0.00477603 0.0561394 0 -0.00418986 0.0574308 0 -0.00353778 0.0586078 0 -0.00283063 0.0596587 0 -0.00208016 0.0605756 0 -0.00129837 0.0613543 0 -0.000497107 0.0619948 0 0.0003125 0.0625 0 -0.003125 0.0425 0 -0.00320052 0.0435643 0 -0.00320782 0.0446675 0 -0.00314056 0.0457977 0 -0.00299382 0.0469409 0 -0.00276453 0.0480811 0 -0.00245181 0.0492014 0 -0.0020572 0.0502844 0 -0.00158477 0.0513131 0 -0.00104095 0.0522717 0 -0.000434321 0.0531467 0 0.000224899 0.0539271 0 0.000925363 0.054605 0 0.0016552 0.0551761 0 0.00240262 0.055639 0 0.00315638 0.0559955 0 0.00390625 0.05625 0 0 0.0425 0 3.03382e-05 0.0431739 0 0.00012521 0.0438647 0 0.000289508 0.0445637 0 0.000526588 0.0452607 0 0.00083787 0.0459447 0 0.00122253 0.0466041 0 0.00167735 0.0472272 0 0.0021967 0.0478033 0 0.00277276 0.0483226 0 0.00339593 0.0487775 0 0.00405529 0.0491621 0 0.00473929 0.0494734 0 0.00543631 0.0497105 0 0.00613528 0.0498748 0 0.00682609 0.0499697 0 0.0075 0.05 0 
</DataArray>
</Points> 
</Piece> 
</StructuredGrid> 
</VTKFile> 
