<?xml version="1.0"?> 
<VTKFile type="StructuredGrid" version="0.1"> 
<StructuredGrid WholeExtent="0 16 0 16 0 0"> 
<Piece Extent="0 16 0 16 0 0"> 
<CellData>
<DataArray type="Float32" Name="err_h1" format="ascii" NumberOfComponents="1"> 
578.537 314.837 249.79 462.915 203.725 39.4398 149.229 302.391 136.113 68.1419 120.577 202.422 60.6346 61.4373 97.1359 123.577 620.481 317.951 295.574 526.345 210.248 17.4331 159.219 323.25 129.002 28.1586 111.284 208.649 46.1341 35.2357 90.3545 131.893 662.849 327.113 341.581 590.024 220.999 36.7653 178.796 350.913 133.815 9.6041 118.977 227.21 61.6984 30.4419 96.0521 152.53 705.526 340.277 386.813 652.95 234.621 64.6973 203.479 382.723 146.395 40.6757 138.172 254.506 84.5083 42.0681 111.029 183.436 740.12 292.616 358.796 676.033 289.426 65.2541 183.357 382.58 212.792 62.3521 121.262 256.719 135.306 12.7497 105.209 207.179 775.784 303.677 406.018 738.504 297.211 49.601 192.695 405.507 225.287 51.4091 122.272 274.743 167.588 29.4425 107.56 229.356 811.232 314.542 449.477 797.525 307.945 41.922 203.735 428.93 241.781 50.6531 128.418 296.362 199.286 45.7563 114.517 256.619 846.089 323.611 488.169 851.757 321.457 41.4455 213.836 450.965 261.077 56.6813 136.803 319.732 229.433 58.8921 124.704 287.652 876.416 288.424 480.157 872.233 390.563 101.27 201.216 452.281 302.865 82.186 128.819 329.317 273.97 74.5757 126.629 316.026 904.358 287.439 512.33 918.682 417.456 114.848 197.888 460.634 327.561 91.9832 133.138 350.192 308.394 89.7365 133.654 344.682 930.259 281.554 538.223 958.297 449.026 135.264 191.706 464.904 354.917 104.508 136.104 369.998 341.883 103.431 142.179 375.025 953.556 269.878 557.813 990.847 485.634 162.401 182.902 464.641 385.033 119.609 137.107 388.215 374.526 115.924 152.1 406.952 974.55 266.656 583.284 1026.01 499.224 149.373 188.352 494.712 366.889 108.631 150.466 403.676 425.052 137.962 152.62 435.36 992.337 242.245 588.988 1042.9 549.638 192.183 164.589 478.923 384.485 111.095 163.489 434.276 462.177 154.2 159.684 465.028 1006.03 211.05 590.411 1054.31 605.455 241.198 141.077 458.152 405.458 116.685 173.536 462.309 498.108 168.97 169.014 497.361 1015.32 173.92 589.235 1061.71 666.851 296.149 123.913 432.823 429.911 125.646 180.592 487.744 532.592 182.021 181.11 532.969 
</DataArray> 
</CellData> 
<Points> 
<DataArray type="Float32" NumberOfComponents="3"> 
0.08554 0.05 0 0.08554 0.05625 0 0.08554 0.0625 0 0.08554 0.06875 0 0.08554 0.075 0 0.08554 0.08125 0 0.08554 0.0875 0 0.08554 0.09375 0 0.08554 0.1 0 0.08554 0.10625 0 0.08554 0.1125 0 0.08554 0.11875 0 0.08554 0.125 0 0.08554 0.13125 0 0.08554 0.1375 0 0.08554 0.14375 0 0.08554 0.15 0 0.0862346 0.0499833 0 0.0866417 0.0562871 0 0.0870484 0.0625837 0 0.0874545 0.0688733 0 0.0878603 0.0751559 0 0.0882655 0.0814314 0 0.0886704 0.0876998 0 0.0890747 0.0939613 0 0.0894786 0.100216 0 0.0898821 0.106463 0 0.0902851 0.112704 0 0.0906877 0.118937 0 0.0910898 0.125163 0 0.0914915 0.131383 0 0.0918927 0.137596 0 0.0922934 0.143801 0 0.0926938 0.15 0 0.0869334 0.0499327 0 0.0877534 0.0562861 0 0.0885716 0.0626261 0 0.089388 0.0689526 0 0.0902028 0.0752659 0 0.0910158 0.0815659 0 0.0918271 0.0878526 0 0.0926368 0.0941261 0 0.0934447 0.100386 0 0.0942509 0.106634 0 0.0950554 0.112868 0 0.0958583 0.119089 0 0.0966595 0.125297 0 0.097459 0.131492 0 0.0982568 0.137674 0 0.099053 0.143844 0 0.0998475 0.15 0 0.0876341 0.0498476 0 0.0888714 0.0562462 0 0.0901051 0.0626259 0 0.0913351 0.0689868 0 0.0925616 0.0753289 0 0.0937844 0.0816523 0 0.0950036 0.0879572 0 0.0962192 0.0942434 0 0.0974313 0.100511 0 0.0986398 0.106761 0 0.0998448 0.112992 0 0.101046 0.119205 0 0.102244 0.1254 0 0.103439 0.131577 0 0.10463 0.137736 0 0.105817 0.143877 0 0.107001 0.15 0 0.0883339 0.0497275 0 0.0899921 0.0561669 0 0.0916442 0.0625827 0 0.0932903 0.068975 0 0.0949304 0.0753441 0 0.0965645 0.0816899 0 0.0981927 0.0880127 0 0.099815 0.0943126 0 0.101431 0.10059 0 0.103042 0.106844 0 0.104647 0.113076 0 0.106246 0.119285 0 0.107839 0.125472 0 0.109426 0.131637 0 0.111008 0.13778 0 0.112584 0.143901 0 0.114155 0.15 0 0.0890304 0.0495724 0 0.0911116 0.0560477 0 0.0931841 0.0624957 0 0.0952478 0.0689167 0 0.0973029 0.0753107 0 0.0993494 0.081678 0 0.101387 0.0880187 0 0.103417 0.094333 0 0.105438 0.100621 0 0.107451 0.106883 0 0.109455 0.113119 0 0.111451 0.119329 0 0.113439 0.125514 0 0.115418 0.131673 0 0.11739 0.137807 0 0.119353 0.143916 0 0.121309 0.15 0 0.0897209 0.0493824 0 0.0922261 0.0558886 0 0.0947197 0.0623649 0 0.0972018 0.0688115 0 0.0996726 0.0752285 0 0.102132 0.0816161 0 0.10458 0.0879746 0 0.107018 0.0943042 0 0.109444 0.100605 0 0.111859 0.106877 0 0.114263 0.113121 0 0.116656 0.119337 0 0.119039 0.125525 0 0.12141 0.131685 0 0.123772 0.137817 0 0.126122 0.143922 0 0.128463 0.15 0 0.0904028 0.0491578 0 0.0933315 0.0556899 0 0.0962461 0.0621903 0 0.0991465 0.0686594 0 0.102033 0.0750972 0 0.104906 0.0815041 0 0.107764 0.0878803 0 0.11061 0.094226 0 0.113441 0.100541 0 0.116259 0.106827 0 0.119064 0.113082 0 0.121855 0.119308 0 0.124634 0.125505 0 0.127399 0.131672 0 0.130151 0.13781 0 0.13289 0.143919 0 0.135616 0.15 0 0.0910736 0.0488993 0 0.0944242 0.0554519 0 0.0977583 0.0619723 0 0.101076 0.0684606 0 0.104377 0.0749172 0 0.107663 0.0813422 0 0.110932 0.0877359 0 0.114186 0.0940985 0 0.117423 0.10043 0 0.120645 0.106731 0 0.123852 0.113002 0 0.127043 0.119243 0 0.130218 0.125453 0 0.133379 0.131634 0 0.136524 0.137785 0 0.139655 0.143907 0 0.14277 0.15 0 0.0917307 0.0486078 0 0.0955002 0.0551755 0 0.0992514 0.0617114 0 0.102984 0.0682157 0 0.1067 0.0746887 0 0.110397 0.0811306 0 0.114076 0.0875415 0 0.117738 0.0939218 0 0.121383 0.100272 0 0.12501 0.106591 0 0.12862 0.112881 0 0.132212 0.119141 0 0.135788 0.125371 0 0.139347 0.131572 0 0.142889 0.137743 0 0.146415 0.143886 0 0.149924 0.15 0 0.0923717 0.0482844 0 0.0965558 0.0548616 0 0.100721 0.0614086 0 0.104866 0.0679255 0 0.108993 0.0744125 0 0.113101 0.0808699 0 0.11719 0.0872978 0 0.12126 0.0936964 0 0.125312 0.100066 0 0.129346 0.106407 0 0.133361 0.112719 0 0.137359 0.119002 0 0.141338 0.125258 0 0.145299 0.131485 0 0.149243 0.137684 0 0.153169 0.143856 0 0.157078 0.15 0 0.0929943 0.0479305 0 0.0975875 0.0545116 0 0.102161 0.0610651 0 0.106716 0.067591 0 0.111251 0.0740896 0 0.115768 0.080561 0 0.120266 0.0870054 0 0.124745 0.0934229 0 0.129205 0.0998137 0 0.133647 0.106178 0 0.13807 0.112516 0 0.142475 0.118828 0 0.146863 0.125114 0 0.151231 0.131374 0 0.155583 0.137608 0 0.159916 0.143817 0 0.164231 0.15 0 0.0935965 0.0475477 0 0.098592 0.054127 0 0.103569 0.0606823 0 0.108528 0.0672136 0 0.113469 0.0737211 0 0.118392 0.0802049 0 0.123297 0.0866652 0 0.128184 0.093102 0 0.133054 0.0995156 0 0.137906 0.105906 0 0.14274 0.112273 0 0.147557 0.118618 0 0.152357 0.124939 0 0.15714 0.131238 0 0.161905 0.137514 0 0.166654 0.143768 0 0.171385 0.15 0 0.0941763 0.0471377 0 0.0995661 0.0537095 0 0.10494 0.0602618 0 0.110298 0.0667948 0 0.11564 0.0733085 0 0.120967 0.079803 0 0.126278 0.0862784 0 0.131573 0.0927348 0 0.136852 0.0991723 0 0.142117 0.105591 0 0.147365 0.111991 0 0.152599 0.118372 0 0.157817 0.124734 0 0.16302 0.131078 0 0.168208 0.137404 0 0.173381 0.143711 0 0.178539 0.15 0 0.0947319 0.0467025 0 0.100507 0.053261 0 0.10627 0.0598056 0 0.112021 0.0663364 0 0.11776 0.0728535 0 0.123486 0.0793568 0 0.129201 0.0858464 0 0.134903 0.0923224 0 0.140594 0.0987849 0 0.146273 0.105234 0 0.151939 0.111669 0 0.157594 0.118091 0 0.163238 0.124499 0 0.168869 0.130895 0 0.174488 0.137276 0 0.180096 0.143645 0 0.185693 0.15 0 0.0952618 0.0462441 0 0.101412 0.0527836 0 0.107556 0.0593156 0 0.113692 0.0658404 0 0.119822 0.0723578 0 0.125945 0.0788679 0 0.132061 0.0853707 0 0.13817 0.0918662 0 0.144273 0.0983545 0 0.150368 0.104835 0 0.156457 0.111309 0 0.162539 0.117776 0 0.168614 0.124235 0 0.174682 0.130687 0 0.180744 0.137132 0 0.186798 0.14357 0 0.192846 0.15 0 0.0957648 0.0457648 0 0.102279 0.0522795 0 0.108794 0.0587942 0 0.115309 0.0653089 0 0.121824 0.0718236 0 0.128338 0.0783383 0 0.134853 0.084853 0 0.141368 0.0913677 0 0.147882 0.0978824 0 0.154397 0.104397 0 0.160912 0.110912 0 0.167426 0.117426 0 0.173941 0.123941 0 0.180456 0.130456 0 0.186971 0.136971 0 0.193485 0.143485 0 0.2 0.15 0 
</DataArray>
</Points> 
</Piece> 
</StructuredGrid> 
</VTKFile> 
