<?xml version="1.0"?> 
<VTKFile type="StructuredGrid" version="0.1"> 
<StructuredGrid WholeExtent="0 16 0 16 0 0"> 
<Piece Extent="0 16 0 16 0 0"> 
<CellData>
<DataArray type="Float32" Name="err_h1" format="ascii" NumberOfComponents="1"> 
1.91335 1.90002 2.27526 2.54012 2.33404 2.60787 3.0152 3.5359 2.35428 2.77645 3.15005 3.27421 2.75287 2.21982 1.53506 1.03939 0.638462 0.608943 0.803012 0.993246 1.38951 1.44023 1.63461 1.9542 1.54549 1.77917 2.2101 2.66525 2.49367 2.62099 2.60459 2.48464 0.422596 0.16395 0.43047 0.593365 0.950087 0.77325 0.715312 0.835315 0.996333 1.04054 1.38142 1.8507 1.64891 2.00359 2.33986 2.63555 0.21445 0.483423 0.777717 1.05658 0.853474 0.675229 0.457103 0.236947 0.578272 0.47566 0.774306 1.20754 0.835135 1.14417 1.50758 1.8905 0.196215 0.225572 0.264281 0.310509 0.388255 0.408375 0.464408 0.544039 0.484227 0.598284 0.734538 0.894132 0.421848 0.557954 0.786875 1.0624 0.117986 0.130734 0.148241 0.17129 0.258833 0.228831 0.215289 0.220435 0.144944 0.199429 0.273394 0.36668 0.20899 0.156974 0.27759 0.45984 0.0674574 0.0727818 0.0815541 0.0938509 0.12843 0.0876408 0.0581529 0.0475166 0.0379868 0.0230023 0.05156 0.103994 0.184685 0.0663087 0.0648681 0.184727 0.0320695 0.0349815 0.0415013 0.0510056 0.0614934 0.0783665 0.114215 0.153065 0.127841 0.126974 0.127668 0.133417 0.143981 0.0831881 0.0945046 0.157715 0.0136711 0.0155615 0.0176525 0.019952 0.091257 0.0895772 0.0889414 0.0892677 0.0763688 0.0809377 0.0860258 0.0917173 0.135204 0.14293 0.152147 0.163042 0.00829319 0.00918525 0.0101231 0.0111055 0.0583187 0.0570425 0.0573374 0.0590806 0.0544124 0.0548363 0.0554016 0.0561066 0.0842392 0.0851455 0.0868356 0.0894177 0.0053386 0.0057499 0.00614786 0.00652785 0.0298068 0.0302849 0.0333489 0.0382335 0.0412104 0.0396331 0.0380364 0.0364025 0.0510317 0.0487383 0.0471146 0.0463304 0.00371953 0.0039063 0.0040633 0.0041853 0.0102929 0.016891 0.0247808 0.0328841 0.033718 0.0312944 0.0288028 0.0262157 0.0281508 0.0236764 0.0198398 0.0171829 0.00260137 0.00267911 0.0027683 0.00286455 0.01081 0.0107932 0.0108998 0.011128 0.00871191 0.00813012 0.00757 0.0070338 0.00135667 0.000964136 0.000648489 0.000575042 0.00166458 0.00170954 0.00177396 0.00185258 0.00793092 0.00790274 0.00800569 0.00823261 0.00657134 0.00613031 0.00574442 0.00541604 0.00125825 0.00105375 0.000876358 0.000735267 0.000945696 0.00099218 0.00107126 0.0011722 0.00488557 0.00488677 0.00507869 0.00543537 0.00456901 0.00412628 0.00375986 0.00347861 0.000990597 0.000869816 0.000776152 0.000710594 0.000361256 0.000458023 0.000601241 0.000759124 0.00189298 0.00198475 0.00247933 0.00318342 0.0030805 0.0025037 0.00199144 0.00157479 0.000622575 0.000489568 0.000385041 0.000320701 
</DataArray> 
</CellData> 
<Points> 
<DataArray type="Float32" NumberOfComponents="3"> 
0.03742 0.02 0 0.036175 0.0209375 0 0.03493 0.021875 0 0.033685 0.0228125 0 0.03244 0.02375 0 0.031195 0.0246875 0 0.02995 0.025625 0 0.028705 0.0265625 0 0.02746 0.0275 0 0.026215 0.0284375 0 0.02497 0.029375 0 0.023725 0.0303125 0 0.02248 0.03125 0 0.021235 0.0321875 0 0.01999 0.033125 0 0.018745 0.0340625 0 0.0175 0.035 0 0.0401288 0.02 0 0.0389616 0.0209375 0 0.0377944 0.021875 0 0.0366272 0.0228125 0 0.03546 0.02375 0 0.0342928 0.0246875 0 0.0331256 0.025625 0 0.0319584 0.0265625 0 0.0307913 0.0275 0 0.0296241 0.0284375 0 0.0284569 0.029375 0 0.0272897 0.0303125 0 0.0261225 0.03125 0 0.0249553 0.0321875 0 0.0237881 0.033125 0 0.0226209 0.0340625 0 0.0214538 0.035 0 0.0428375 0.02 0 0.0417481 0.0209375 0 0.0406588 0.021875 0 0.0395694 0.0228125 0 0.03848 0.02375 0 0.0373906 0.0246875 0 0.0363013 0.025625 0 0.0352119 0.0265625 0 0.0341225 0.0275 0 0.0330331 0.0284375 0 0.0319437 0.029375 0 0.0308544 0.0303125 0 0.029765 0.03125 0 0.0286756 0.0321875 0 0.0275862 0.033125 0 0.0264969 0.0340625 0 0.0254075 0.035 0 0.0455462 0.02 0 0.0445347 0.0209375 0 0.0435231 0.021875 0 0.0425116 0.0228125 0 0.0415 0.02375 0 0.0404884 0.0246875 0 0.0394769 0.025625 0 0.0384653 0.0265625 0 0.0374538 0.0275 0 0.0364422 0.0284375 0 0.0354306 0.029375 0 0.0344191 0.0303125 0 0.0334075 0.03125 0 0.0323959 0.0321875 0 0.0313844 0.033125 0 0.0303728 0.0340625 0 0.0293613 0.035 0 0.048255 0.02 0 0.0473212 0.0209375 0 0.0463875 0.021875 0 0.0454537 0.0228125 0 0.04452 0.02375 0 0.0435862 0.0246875 0 0.0426525 0.025625 0 0.0417187 0.0265625 0 0.040785 0.0275 0 0.0398512 0.0284375 0 0.0389175 0.029375 0 0.0379837 0.0303125 0 0.03705 0.03125 0 0.0361162 0.0321875 0 0.0351825 0.033125 0 0.0342488 0.0340625 0 0.033315 0.035 0 0.0509638 0.02 0 0.0501078 0.0209375 0 0.0492519 0.021875 0 0.0483959 0.0228125 0 0.04754 0.02375 0 0.0466841 0.0246875 0 0.0458281 0.025625 0 0.0449722 0.0265625 0 0.0441163 0.0275 0 0.0432603 0.0284375 0 0.0424044 0.029375 0 0.0415484 0.0303125 0 0.0406925 0.03125 0 0.0398366 0.0321875 0 0.0389806 0.033125 0 0.0381247 0.0340625 0 0.0372688 0.035 0 0.0536725 0.02 0 0.0528944 0.0209375 0 0.0521162 0.021875 0 0.0513381 0.0228125 0 0.05056 0.02375 0 0.0497819 0.0246875 0 0.0490037 0.025625 0 0.0482256 0.0265625 0 0.0474475 0.0275 0 0.0466694 0.0284375 0 0.0458912 0.029375 0 0.0451131 0.0303125 0 0.044335 0.03125 0 0.0435569 0.0321875 0 0.0427788 0.033125 0 0.0420006 0.0340625 0 0.0412225 0.035 0 0.0563813 0.02 0 0.0556809 0.0209375 0 0.0549806 0.021875 0 0.0542803 0.0228125 0 0.05358 0.02375 0 0.0528797 0.0246875 0 0.0521794 0.025625 0 0.0514791 0.0265625 0 0.0507788 0.0275 0 0.0500784 0.0284375 0 0.0493781 0.029375 0 0.0486778 0.0303125 0 0.0479775 0.03125 0 0.0472772 0.0321875 0 0.0465769 0.033125 0 0.0458766 0.0340625 0 0.0451763 0.035 0 0.05909 0.02 0 0.0584675 0.0209375 0 0.057845 0.021875 0 0.0572225 0.0228125 0 0.0566 0.02375 0 0.0559775 0.0246875 0 0.055355 0.025625 0 0.0547325 0.0265625 0 0.05411 0.0275 0 0.0534875 0.0284375 0 0.052865 0.029375 0 0.0522425 0.0303125 0 0.05162 0.03125 0 0.0509975 0.0321875 0 0.050375 0.033125 0 0.0497525 0.0340625 0 0.04913 0.035 0 0.0617987 0.02 0 0.0612541 0.0209375 0 0.0607094 0.021875 0 0.0601647 0.0228125 0 0.05962 0.02375 0 0.0590753 0.0246875 0 0.0585306 0.025625 0 0.0579859 0.0265625 0 0.0574412 0.0275 0 0.0568966 0.0284375 0 0.0563519 0.029375 0 0.0558072 0.0303125 0 0.0552625 0.03125 0 0.0547178 0.0321875 0 0.0541731 0.033125 0 0.0536284 0.0340625 0 0.0530837 0.035 0 0.0645075 0.02 0 0.0640406 0.0209375 0 0.0635737 0.021875 0 0.0631069 0.0228125 0 0.06264 0.02375 0 0.0621731 0.0246875 0 0.0617062 0.025625 0 0.0612394 0.0265625 0 0.0607725 0.0275 0 0.0603056 0.0284375 0 0.0598387 0.029375 0 0.0593719 0.0303125 0 0.058905 0.03125 0 0.0584381 0.0321875 0 0.0579712 0.033125 0 0.0575044 0.0340625 0 0.0570375 0.035 0 0.0672163 0.02 0 0.0668272 0.0209375 0 0.0664381 0.021875 0 0.0660491 0.0228125 0 0.06566 0.02375 0 0.0652709 0.0246875 0 0.0648819 0.025625 0 0.0644928 0.0265625 0 0.0641038 0.0275 0 0.0637147 0.0284375 0 0.0633256 0.029375 0 0.0629366 0.0303125 0 0.0625475 0.03125 0 0.0621584 0.0321875 0 0.0617694 0.033125 0 0.0613803 0.0340625 0 0.0609913 0.035 0 0.069925 0.02 0 0.0696138 0.0209375 0 0.0693025 0.021875 0 0.0689913 0.0228125 0 0.06868 0.02375 0 0.0683688 0.0246875 0 0.0680575 0.025625 0 0.0677463 0.0265625 0 0.067435 0.0275 0 0.0671238 0.0284375 0 0.0668125 0.029375 0 0.0665012 0.0303125 0 0.06619 0.03125 0 0.0658787 0.0321875 0 0.0655675 0.033125 0 0.0652563 0.0340625 0 0.064945 0.035 0 0.0726337 0.02 0 0.0724003 0.0209375 0 0.0721669 0.021875 0 0.0719334 0.0228125 0 0.0717 0.02375 0 0.0714666 0.0246875 0 0.0712331 0.025625 0 0.0709997 0.0265625 0 0.0707663 0.0275 0 0.0705328 0.0284375 0 0.0702994 0.029375 0 0.0700659 0.0303125 0 0.0698325 0.03125 0 0.0695991 0.0321875 0 0.0693656 0.033125 0 0.0691322 0.0340625 0 0.0688987 0.035 0 0.0753425 0.02 0 0.0751869 0.0209375 0 0.0750313 0.021875 0 0.0748756 0.0228125 0 0.07472 0.02375 0 0.0745644 0.0246875 0 0.0744087 0.025625 0 0.0742531 0.0265625 0 0.0740975 0.0275 0 0.0739419 0.0284375 0 0.0737862 0.029375 0 0.0736306 0.0303125 0 0.073475 0.03125 0 0.0733194 0.0321875 0 0.0731637 0.033125 0 0.0730081 0.0340625 0 0.0728525 0.035 0 0.0780513 0.02 0 0.0779734 0.0209375 0 0.0778956 0.021875 0 0.0778178 0.0228125 0 0.07774 0.02375 0 0.0776622 0.0246875 0 0.0775844 0.025625 0 0.0775066 0.0265625 0 0.0774288 0.0275 0 0.0773509 0.0284375 0 0.0772731 0.029375 0 0.0771953 0.0303125 0 0.0771175 0.03125 0 0.0770397 0.0321875 0 0.0769619 0.033125 0 0.0768841 0.0340625 0 0.0768063 0.035 0 0.08076 0.02 0 0.08076 0.0209375 0 0.08076 0.021875 0 0.08076 0.0228125 0 0.08076 0.02375 0 0.08076 0.0246875 0 0.08076 0.025625 0 0.08076 0.0265625 0 0.08076 0.0275 0 0.08076 0.0284375 0 0.08076 0.029375 0 0.08076 0.0303125 0 0.08076 0.03125 0 0.08076 0.0321875 0 0.08076 0.033125 0 0.08076 0.0340625 0 0.08076 0.035 0 
</DataArray>
</Points> 
</Piece> 
</StructuredGrid> 
</VTKFile> 
