<?xml version="1.0"?> 
<VTKFile type="StructuredGrid" version="0.1"> 
<StructuredGrid WholeExtent="0 16 0 16 0 0"> 
<Piece Extent="0 16 0 16 0 0"> 
<CellData>
<DataArray type="Float32" Name="err_h1" format="ascii" NumberOfComponents="1"> 
493.975 567.18 642.019 717.623 791.21 861.146 928.099 990.335 1047.64 1100.18 1142.32 1172.55 1194.41 1213.67 1217.94 1207.37 351.396 357.935 366.996 376.255 358.784 359.523 353.621 338.914 351.263 315.638 267.268 206.524 269.64 185.575 97.7456 71.4098 285.236 332.942 382.051 429.869 441.01 485.104 522.017 550.878 609.98 613.011 610.97 608.402 694.869 651.5 621.148 614.199 433.175 523.093 612.121 698.17 758.473 838.034 909.074 970.437 1049.09 1079.93 1102.25 1118.86 1208.18 1174.63 1145.15 1126.25 214.515 233.111 252.385 272.364 320.584 349.026 381.953 420.855 410.738 459.517 517.812 586.06 451.529 500.664 563.476 638.7 16.6283 17.6929 23.6532 28.5471 44.3934 57.3674 77.9262 107.549 76.7674 119.19 174.931 242.046 114.68 154.979 221.54 303.473 154.856 173.096 191.366 208.013 206.603 211.807 212.826 209.841 225.235 207.194 188.964 178.333 213.706 174.083 144.358 145.341 307.362 341.237 375.159 407.63 426.488 447.022 462.294 471.422 502.068 495.413 481.499 461.422 517.218 488.948 454.825 417.608 113.034 128.634 148.404 170.985 208.939 237.391 269.282 305.13 300.652 330.957 366.777 408.254 359.94 377.794 402.976 435.269 34.1625 18.6254 8.35322 13.0526 34.4606 46.0879 62.034 82.2751 73.6521 87.0853 107.109 133.485 104.754 105.771 115.125 132.642 113.831 118.058 124.489 131.623 129.88 132.467 132.722 129.931 144.961 146.126 142.75 134.828 161.635 171.385 175.404 173.648 198.549 217.184 238.293 260.566 276.206 295.311 312.391 326.566 351.475 370.683 385.246 395.016 415.619 444.597 467.786 485.348 32.2218 41.4316 68.1659 97.2853 135.423 170.106 205.256 241 271.291 305.281 339.614 373.884 419.75 456.517 491.409 523.932 53.4645 37.4449 27.2114 23.4421 16.085 28.7827 43.4648 58.9825 72.3101 86.0638 100.249 114.386 135.047 151.247 165.32 176.845 94.2659 94.9257 99.5063 106.811 109.477 113.472 117.729 121.821 129.43 135.916 142.684 150.438 152.927 161.276 173.934 192.095 120.382 138.468 161.497 188.335 214.01 239.061 264.696 290.318 317.765 345.876 374.362 404.064 432.509 463.906 500.464 543.634 
</DataArray> 
</CellData> 
<Points> 
<DataArray type="Float32" NumberOfComponents="3"> 
0.0988993 0.0300064 0 0.0992543 0.0309565 0 0.0995467 0.0319478 0 0.0997705 0.0329742 0 0.0999208 0.0340288 0 0.0999934 0.0351036 0 0.0999854 0.03619 0 0.0998951 0.0372789 0 0.0997222 0.038361 0 0.0994678 0.0394269 0 0.0991345 0.0404675 0 0.0987262 0.0414743 0 0.0982478 0.0424395 0 0.0977054 0.0433563 0 0.0971058 0.0442189 0 0.0964564 0.0450229 0 0.0957648 0.0457648 0 0.105218 0.0300064 0 0.10567 0.0313736 0 0.10605 0.0327931 0 0.106352 0.0342566 0 0.10657 0.0357545 0 0.106699 0.0372761 0 0.106736 0.0388099 0 0.106679 0.0403438 0 0.106527 0.0418655 0 0.106281 0.0433627 0 0.105943 0.0448235 0 0.105517 0.0462369 0 0.105008 0.0475924 0 0.104422 0.0488813 0 0.103767 0.0500959 0 0.10305 0.0512301 0 0.102279 0.0522795 0 0.111537 0.0300064 0 0.112069 0.0317896 0 0.112522 0.0336344 0 0.112889 0.0355304 0 0.113163 0.0374658 0 0.11334 0.0394277 0 0.113416 0.041402 0 0.113387 0.0433744 0 0.113255 0.0453301 0 0.113018 0.0472545 0 0.112679 0.0491334 0 0.112242 0.0509534 0 0.111711 0.0527023 0 0.111094 0.0543692 0 0.110396 0.0559449 0 0.109627 0.0574218 0 0.108794 0.0587942 0 0.117856 0.0300064 0 0.118452 0.0322045 0 0.118963 0.0344717 0 0.119382 0.0367957 0 0.119701 0.0391629 0 0.119917 0.0415585 0 0.120024 0.0439668 0 0.120021 0.0463713 0 0.119906 0.0487556 0 0.11968 0.051103 0 0.119344 0.0533977 0 0.118902 0.0556246 0 0.118359 0.0577696 0 0.117721 0.0598204 0 0.116994 0.0617661 0 0.116187 0.063598 0 0.115309 0.0653089 0 0.124174 0.0300064 0 0.124819 0.0326185 0 0.125374 0.035305 0 0.125832 0.0380525 0 0.126186 0.0408459 0 0.126431 0.043669 0 0.126564 0.0465046 0 0.126581 0.0493351 0 0.126483 0.0521425 0 0.126268 0.054909 0 0.125939 0.0576173 0 0.125499 0.060251 0 0.124952 0.0627948 0 0.124303 0.0652351 0 0.123561 0.0675598 0 0.122731 0.0697586 0 0.121824 0.0718236 0 0.130493 0.0300064 0 0.131171 0.0330314 0 0.131755 0.0361344 0 0.132238 0.039301 0 0.132616 0.042515 0 0.132883 0.0457593 0 0.133035 0.049016 0 0.13307 0.0522663 0 0.132986 0.0554916 0 0.132784 0.0586732 0 0.132465 0.0617929 0 0.132032 0.0648334 0 0.13149 0.0677786 0 0.130842 0.0706138 0 0.130096 0.073326 0 0.129259 0.0759039 0 0.128338 0.0783383 0 0.136812 0.0300064 0 0.137506 0.0334432 0 0.138105 0.0369599 0 0.138603 0.0405412 0 0.138994 0.0441704 0 0.139274 0.0478299 0 0.139439 0.0515012 0 0.139487 0.0551655 0 0.139417 0.0588034 0 0.139229 0.0623961 0 0.138924 0.065925 0 0.138504 0.0693723 0 0.137974 0.0727214 0 0.137338 0.0759569 0 0.136601 0.079065 0 0.135771 0.0820338 0 0.134853 0.084853 0 0.143131 0.0300064 0 0.143826 0.0338541 0 0.144426 0.0377815 0 0.144925 0.0417732 0 0.145319 0.0458122 0 0.145604 0.0498809 0 0.145777 0.0539608 0 0.145834 0.0580331 0 0.145777 0.0620787 0 0.145603 0.0660786 0 0.145315 0.0700145 0 0.144915 0.0738684 0 0.144405 0.0776237 0 0.14379 0.0812646 0 0.143075 0.0847771 0 0.142266 0.0881484 0 0.141368 0.0913677 0 0.14945 0.0300064 0 0.15013 0.0342639 0 0.150717 0.0385993 0 0.151206 0.042997 0 0.151593 0.0474406 0 0.151875 0.0519126 0 0.152049 0.0563951 0 0.152113 0.0608697 0 0.152066 0.0653179 0 0.151909 0.0697213 0 0.151641 0.0740619 0 0.151265 0.0783223 0 0.150784 0.082486 0 0.1502 0.0865374 0 0.149519 0.0904623 0 0.148745 0.0942477 0 0.147882 0.0978824 0 0.155768 0.0300064 0 0.156418 0.0346727 0 0.156978 0.0394132 0 0.157445 0.0442129 0 0.157816 0.0490558 0 0.158088 0.0539253 0 0.158258 0.0588045 0 0.158324 0.0636757 0 0.158288 0.0685216 0 0.158147 0.0733247 0 0.157902 0.0780679 0 0.157557 0.0827346 0 0.157111 0.0873088 0 0.156568 0.0917755 0 0.155933 0.0961208 0 0.155207 0.100332 0 0.154397 0.104397 0 0.162087 0.0300064 0 0.16269 0.0350805 0 0.16321 0.0402233 0 0.163644 0.0454207 0 0.163989 0.0506579 0 0.164242 0.0559194 0 0.164403 0.0611893 0 0.164469 0.0664518 0 0.164441 0.0716906 0 0.164318 0.0768896 0 0.1641 0.0820332 0 0.163789 0.0871058 0 0.163387 0.0920926 0 0.162895 0.0969794 0 0.162316 0.101753 0 0.161654 0.106401 0 0.160912 0.110912 0 0.168406 0.0300064 0 0.168947 0.0354872 0 0.169413 0.0410297 0 0.169802 0.0466207 0 0.170111 0.0522471 0 0.17034 0.0578949 0 0.170486 0.0635501 0 0.170549 0.0691983 0 0.170528 0.0748252 0 0.170423 0.0804166 0 0.170235 0.0859583 0 0.169964 0.0914365 0 0.169612 0.0968378 0 0.16918 0.102149 0 0.16867 0.107359 0 0.168085 0.112455 0 0.167426 0.117426 0 0.174725 0.0300064 0 0.175189 0.035893 0 0.175588 0.0418322 0 0.17592 0.0478129 0 0.176185 0.0538235 0 0.176381 0.0598522 0 0.176508 0.065887 0 0.176564 0.0719157 0 0.176549 0.0779261 0 0.176464 0.0839062 0 0.176308 0.0898438 0 0.176082 0.0957273 0 0.175787 0.101545 0 0.175424 0.107286 0 0.174994 0.112939 0 0.174499 0.118494 0 0.173941 0.123941 0 0.181044 0.0300064 0 0.181414 0.0362977 0 0.181733 0.0426311 0 0.181999 0.0489974 0 0.18221 0.0553874 0 0.182367 0.0617916 0 0.182469 0.0682005 0 0.182515 0.0746045 0 0.182506 0.0809939 0 0.182441 0.087359 0 0.18232 0.0936905 0 0.182144 0.0999787 0 0.181913 0.106214 0 0.181628 0.112389 0 0.181289 0.118493 0 0.180898 0.124518 0 0.180456 0.130456 0 0.187362 0.0300064 0 0.187625 0.0367015 0 0.18785 0.0434263 0 0.188038 0.0501742 0 0.188187 0.0569388 0 0.188299 0.0637133 0 0.188371 0.070491 0 0.188405 0.0772651 0 0.188399 0.084029 0 0.188355 0.0907757 0 0.188272 0.0974987 0 0.18815 0.104191 0 0.18799 0.110847 0 0.187791 0.117459 0 0.187555 0.124021 0 0.187281 0.130527 0 0.186971 0.136971 0 0.193681 0.0300064 0 0.19382 0.0371042 0 0.193939 0.0442178 0 0.194038 0.0513435 0 0.194117 0.0584779 0 0.194176 0.0656175 0 0.194214 0.0727587 0 0.194233 0.079898 0 0.19423 0.0870319 0 0.194208 0.0941568 0 0.194165 0.101269 0 0.194102 0.108366 0 0.194019 0.115442 0 0.193915 0.122496 0 0.193792 0.129523 0 0.193648 0.136521 0 0.193485 0.143485 0 0.2 0.0300064 0 0.2 0.037506 0 0.2 0.0450056 0 0.2 0.0525052 0 0.2 0.0600048 0 0.2 0.0675044 0 0.2 0.075004 0 0.2 0.0825036 0 0.2 0.0900032 0 0.2 0.0975028 0 0.2 0.105002 0 0.2 0.112502 0 0.2 0.120002 0 0.2 0.127501 0 0.2 0.135001 0 0.2 0.1425 0 0.2 0.15 0 
</DataArray>
</Points> 
</Piece> 
</StructuredGrid> 
</VTKFile> 
