<?xml version="1.0"?> 
<VTKFile type="StructuredGrid" version="0.1"> 
<StructuredGrid WholeExtent="0 127 0 127 0 0"> 
<Piece Extent="0 127 0 127 0 0"> 
<PointData>
<DataArray type="Float32" Name="|E|" format="ascii" NumberOfComponents="3"> 
877101 -364735 0 1.20851e+06 -314200 0 1.30485e+06 -307397 0 1.38209e+06 -300792 0 1.44117e+06 -284010 0 1.49306e+06 -268329 0 1.53765e+06 -249848 0 1.57741e+06 -231265 0 1.6125e+06 -211826 0 1.64367e+06 -192260 0 1.67108e+06 -172521 0 1.69502e+06 -152873 0 1.71562e+06 -133404 0 1.73303e+06 -114260 0 1.74738e+06 -95538.2 0 1.75879e+06 -77341.7 0 1.76738e+06 -59752.8 0 1.7733e+06 -42845.4 0 1.77668e+06 -26679 0 1.77767e+06 -11301.7 0 1.7764e+06 3250.89 0 1.77303e+06 16954.8 0 1.76771e+06 29796.6 0 1.76058e+06 41773 0 1.75179e+06 52889.2 0 1.74147e+06 63158 0 1.72977e+06 72598.6 0 1.71681e+06 81235.7 0 1.70272e+06 89097.8 0 1.68761e+06 96217.1 0 1.6716e+06 102628 0 1.65478e+06 108366 0 1.63726e+06 113468 0 1.61912e+06 117971 0 1.60046e+06 121911 0 1.58133e+06 125327 0 1.56183e+06 128251 0 1.54201e+06 130720 0 1.52194e+06 132766 0 1.50167e+06 134420 0 1.48126e+06 135713 0 1.46074e+06 136673 0 1.44017e+06 137327 0 1.41957e+06 137700 0 1.399e+06 137815 0 1.37848e+06 137696 0 1.35803e+06 137362 0 1.33769e+06 136834 0 1.31748e+06 136128 0 1.29743e+06 135261 0 1.27754e+06 134249 0 1.25784e+06 133106 0 1.23835e+06 131845 0 1.21907e+06 130478 0 1.20002e+06 129016 0 1.18122e+06 127470 0 1.16267e+06 125849 0 1.14437e+06 124162 0 1.12634e+06 122415 0 1.10859e+06 120618 0 1.09112e+06 118776 0 1.07393e+06 116896 0 1.05702e+06 114982 0 1.04041e+06 113041 0 1.0241e+06 111076 0 1.00808e+06 109092 0 992352 107093 0 976927 105082 0 961802 103062 0 946977 101037 0 932452 99007.8 0 918226 96978 0 904300 94949.3 0 890673 92923.7 0 877342 90902.6 0 864309 88887.7 0 851570 86880.3 0 839124 84881.5 0 826970 82892.4 0 815106 80913.8 0 803530 78946.6 0 792241 76991.4 0 781235 75048.8 0 770512 73119.3 0 760068 71203.2 0 749903 69301 0 740013 67412.7 0 730396 65538.7 0 721051 63679.1 0 711974 61833.8 0 703165 60003 0 694620 58186.5 0 686338 56384.4 0 678315 54596.5 0 670551 52822.7 0 663043 51062.7 0 655789 49316.5 0 648787 47583.6 0 642035 45863.9 0 635531 44157.2 0 629273 42463 0 623259 40781 0 617488 39111 0 611957 37452.6 0 606666 35805.3 0 601612 34168.8 0 596794 32542.6 0 592210 30926.5 0 587859 29319.9 0 583739 27722.5 0 579850 26133.7 0 576190 24553.2 0 572758 22980.4 0 569552 21415 0 566572 19856.4 0 563816 18304.3 0 561285 16758 0 558976 15217.2 0 556890 13681.3 0 555025 12149.8 0 553380 10622.4 0 551957 9098.43 0 550753 7577.45 0 549768 6058.97 0 549003 4542.48 0 548456 3027.49 0 548128 1513.49 0 548019 0 0 910407 -378585 0 1.20919e+06 -321578 0 1.30775e+06 -312454 0 1.38415e+06 -303876 0 1.44337e+06 -286827 0 1.49505e+06 -270529 0 1.53962e+06 -251791 0 1.57927e+06 -232898 0 1.6143e+06 -213236 0 1.64538e+06 -193451 0 1.67272e+06 -173519 0 1.69657e+06 -153688 0 1.71709e+06 -134048 0 1.73441e+06 -114742 0 1.74867e+06 -95867.4 0 1.75998e+06 -77526.7 0 1.76849e+06 -59802.3 0 1.77431e+06 -42767.8 0 1.7776e+06 -26483.1 0 1.77849e+06 -10996.1 0 1.77714e+06 3657.9 0 1.77369e+06 17454.8 0 1.76828e+06 30381.7 0 1.76107e+06 42435.4 0 1.7522e+06 53621.4 0 1.74182e+06 63953.1 0 1.73005e+06 73449.9 0 1.71703e+06 82136.9 0 1.70288e+06 90043.2 0 1.68771e+06 97201.2 0 1.67165e+06 103645 0 1.65478e+06 109412 0 1.63722e+06 114539 0 1.61904e+06 119063 0 1.60034e+06 123021 0 1.58119e+06 126450 0 1.56166e+06 129385 0 1.54181e+06 131862 0 1.52172e+06 133913 0 1.50143e+06 135571 0 1.48099e+06 136865 0 1.46046e+06 137823 0 1.43988e+06 138475 0 1.41927e+06 138843 0 1.39869e+06 138953 0 1.37816e+06 138827 0 1.35771e+06 138485 0 1.33736e+06 137947 0 1.31715e+06 137231 0 1.29709e+06 136353 0 1.2772e+06 135329 0 1.2575e+06 134174 0 1.23801e+06 132900 0 1.21873e+06 131520 0 1.19969e+06 130044 0 1.18089e+06 128483 0 1.16234e+06 126847 0 1.14405e+06 125145 0 1.12602e+06 123383 0 1.10827e+06 121570 0 1.0908e+06 119713 0 1.07362e+06 117816 0 1.05672e+06 115887 0 1.04011e+06 113929 0 1.0238e+06 111948 0 1.00779e+06 109948 0 992068 107932 0 976649 105905 0 961529 103869 0 946710 101827 0 932190 99782.2 0 917971 97736.2 0 904050 95691.4 0 890428 93649.6 0 877104 91612.6 0 864075 89581.8 0 851342 87558.5 0 838902 85544 0 826753 83539.2 0 814894 81545.1 0 803324 79562.5 0 792039 77591.9 0 781039 75634.1 0 770320 73689.5 0 759882 71758.5 0 749721 69841.4 0 739836 67938.4 0 730224 66049.8 0 720883 64175.6 0 711811 62315.9 0 703005 60470.8 0 694465 58640.2 0 686186 56824.1 0 678168 55022.2 0 670408 53234.6 0 662903 51460.9 0 655653 49701 0 648654 47954.7 0 641905 46221.7 0 635404 44501.6 0 629149 42794.2 0 623138 41099.2 0 617370 39416.1 0 611842 37744.7 0 606553 36084.6 0 601501 34435.3 0 596686 32796.6 0 592104 31167.8 0 587755 29548.7 0 583638 27938.8 0 579750 26337.7 0 576092 24744.8 0 572661 23159.8 0 569457 21582.2 0 566479 20011.4 0 563725 18447.1 0 561194 16888.8 0 558887 15335.9 0 556801 13788.1 0 554937 12244.7 0 553294 10705.3 0 551871 9169.47 0 550667 7636.62 0 549683 6106.28 0 548918 4577.95 0 548372 3051.12 0 548044 1525.31 0 547935 0 0 939737 -390782 0 1.21071e+06 -328805 0 1.31062e+06 -317361 0 1.38628e+06 -306981 0 1.44558e+06 -289607 0 1.49708e+06 -272726 0 1.5416e+06 -253720 0 1.58116e+06 -234523 0 1.61611e+06 -214637 0 1.64711e+06 -194634 0 1.67437e+06 -174509 0 1.69814e+06 -154494 0 1.71856e+06 -134684 0 1.7358e+06 -115216 0 1.74996e+06 -96188.6 0 1.76118e+06 -77703.7 0 1.7696e+06 -59843.9 0 1.77533e+06 -42682.7 0 1.77852e+06 -26279.8 0 1.77933e+06 -10683.3 0 1.77788e+06 4071.73 0 1.77434e+06 17961.4 0 1.76885e+06 30973 0 1.76156e+06 43103.5 0 1.75262e+06 54359.1 0 1.74216e+06 64753.2 0 1.73032e+06 74305.9 0 1.71724e+06 83042.6 0 1.70303e+06 90992.7 0 1.68781e+06 98189 0 1.6717e+06 104667 0 1.65479e+06 110462 0 1.63718e+06 115613 0 1.61896e+06 120158 0 1.60023e+06 124133 0 1.58104e+06 127575 0 1.56148e+06 130521 0 1.54161e+06 133006 0 1.5215e+06 135062 0 1.50119e+06 136722 0 1.48073e+06 138017 0 1.46019e+06 138975 0 1.43959e+06 139623 0 1.41897e+06 139987 0 1.39838e+06 140091 0 1.37784e+06 139958 0 1.35738e+06 139608 0 1.33703e+06 139061 0 1.31682e+06 138334 0 1.29676e+06 137445 0 1.27687e+06 136410 0 1.25717e+06 135242 0 1.23767e+06 133955 0 1.2184e+06 132561 0 1.19935e+06 131071 0 1.18055e+06 129496 0 1.16201e+06 127846 0 1.14372e+06 126128 0 1.1257e+06 124351 0 1.10795e+06 122522 0 1.09049e+06 120649 0 1.07331e+06 118736 0 1.05641e+06 116791 0 1.03981e+06 114817 0 1.02351e+06 112820 0 1.0075e+06 110803 0 991784 108772 0 976370 106728 0 961256 104676 0 946442 102618 0 931928 100556 0 917714 98494.1 0 903800 96433.1 0 890183 94375.3 0 876864 92322.2 0 863841 90275.5 0 851113 88236.4 0 838679 86206.1 0 826535 84185.7 0 814682 82176.1 0 803117 80178 0 791837 78192.2 0 780842 76219.1 0 770128 74259.4 0 759695 72313.4 0 749539 70381.5 0 739658 68463.8 0 730050 66560.5 0 720714 64671.8 0 711646 62797.8 0 702845 60938.4 0 694308 59093.7 0 686034 57263.5 0 678019 55447.7 0 670263 53646.3 0 662762 51858.9 0 655515 50085.4 0 648520 48325.6 0 641774 46579.2 0 635277 44845.8 0 629025 43125.2 0 623017 41417.1 0 617251 39721.1 0 611726 38036.8 0 606440 36363.8 0 601390 34701.8 0 596577 33050.4 0 591998 31409 0 587651 29777.4 0 583535 28155 0 579650 26541.5 0 575993 24936.3 0 572564 23339.1 0 569362 21749.2 0 566385 20166.3 0 563632 18590 0 561103 17019.6 0 558796 15454.7 0 556712 13894.8 0 554849 12339.5 0 553206 10788.2 0 551784 9240.47 0 550581 7695.75 0 549598 6153.56 0 548833 4613.39 0 548287 3074.75 0 547959 1537.12 0 547850 0 0 965728 -401590 0 1.2129e+06 -335855 0 1.31348e+06 -322133 0 1.38848e+06 -310098 0 1.4478e+06 -292353 0 1.49913e+06 -274917 0 1.54359e+06 -255635 0 1.58305e+06 -236140 0 1.61794e+06 -216029 0 1.64885e+06 -195808 0 1.67603e+06 -175490 0 1.69971e+06 -155293 0 1.72005e+06 -135311 0 1.73719e+06 -115681 0 1.75126e+06 -96501.6 0 1.76239e+06 -77872.7 0 1.77071e+06 -59877.7 0 1.77635e+06 -42589.9 0 1.77945e+06 -26069.2 0 1.78016e+06 -10363.3 0 1.77863e+06 4492.38 0 1.775e+06 18474.5 0 1.76943e+06 31570.4 0 1.76206e+06 43777.5 0 1.75304e+06 55102.3 0 1.74251e+06 65558.5 0 1.7306e+06 75166.7 0 1.71745e+06 83952.6 0 1.70318e+06 91946.2 0 1.68791e+06 99180.6 0 1.67174e+06 105691 0 1.65479e+06 111515 0 1.63714e+06 116691 0 1.61888e+06 121255 0 1.60011e+06 125247 0 1.58089e+06 128702 0 1.56131e+06 131659 0 1.54141e+06 134151 0 1.52127e+06 136212 0 1.50094e+06 137875 0 1.48047e+06 139171 0 1.45991e+06 140127 0 1.4393e+06 140772 0 1.41867e+06 141132 0 1.39807e+06 141230 0 1.37752e+06 141090 0 1.35706e+06 140731 0 1.3367e+06 140175 0 1.31648e+06 139438 0 1.29642e+06 138538 0 1.27653e+06 137491 0 1.25683e+06 136310 0 1.23733e+06 135010 0 1.21806e+06 133602 0 1.19902e+06 132099 0 1.18022e+06 130509 0 1.16168e+06 128844 0 1.14339e+06 127111 0 1.12538e+06 125318 0 1.10763e+06 123474 0 1.09017e+06 121585 0 1.073e+06 119656 0 1.05611e+06 117695 0 1.03951e+06 115705 0 1.02321e+06 113691 0 1.00721e+06 111659 0 991498 109611 0 976090 107551 0 960982 105482 0 946173 103408 0 931665 101330 0 917457 99251.6 0 903548 97174.5 0 889937 95100.6 0 876624 93031.5 0 863606 90968.9 0 850884 88913.9 0 838455 86867.9 0 826317 84831.9 0 814469 82806.7 0 802909 80793.2 0 791634 78792.1 0 780644 76803.9 0 769936 74829.1 0 759507 72868.1 0 749355 70921.3 0 739479 68988.9 0 729876 67071 0 720544 65167.8 0 711481 63279.4 0 702684 61405.8 0 694151 59546.9 0 685881 57702.7 0 677870 55873 0 670118 54057.8 0 662621 52256.7 0 655377 50469.6 0 648385 48696.3 0 641643 46936.5 0 635148 45189.9 0 628899 43456.1 0 622894 41734.9 0 617132 40025.9 0 611609 38328.6 0 606325 36642.9 0 601279 34968.1 0 596468 33304 0 591890 31650.1 0 587546 30006 0 583433 28371.2 0 579549 26745.3 0 575894 25127.8 0 572467 23518.2 0 569266 21916.2 0 566290 20321.2 0 563539 18732.7 0 561011 17150.2 0 558706 15573.4 0 556622 14001.5 0 554760 12434.3 0 553118 10871.1 0 551697 9311.43 0 550494 7754.85 0 549511 6200.82 0 548747 4648.83 0 548201 3098.37 0 547874 1548.93 0 547765 0 0 988910 -411230 0 1.21563e+06 -342711 0 1.31635e+06 -326782 0 1.39075e+06 -313219 0 1.45005e+06 -295067 0 1.5012e+06 -277101 0 1.5456e+06 -257537 0 1.58496e+06 -237748 0 1.61977e+06 -217411 0 1.6506e+06 -196974 0 1.67769e+06 -176463 0 1.70129e+06 -156083 0 1.72154e+06 -135931 0 1.73859e+06 -116139 0 1.75257e+06 -96806.5 0 1.76361e+06 -78033.8 0 1.77183e+06 -59903.6 0 1.77738e+06 -42489.4 0 1.78038e+06 -25851.1 0 1.781e+06 -10036.3 0 1.77938e+06 4919.9 0 1.77566e+06 18994.1 0 1.77001e+06 32174 0 1.76256e+06 44457.4 0 1.75346e+06 55850.9 0 1.74286e+06 66368.9 0 1.73088e+06 76032.3 0 1.71767e+06 84867.1 0 1.70334e+06 92903.8 0 1.68801e+06 100176 0 1.67179e+06 106719 0 1.65479e+06 112572 0 1.6371e+06 117771 0 1.61881e+06 122355 0 1.6e+06 126363 0 1.58075e+06 129832 0 1.56113e+06 132798 0 1.54121e+06 135298 0 1.52105e+06 137364 0 1.5007e+06 139029 0 1.48021e+06 140325 0 1.45963e+06 141280 0 1.43901e+06 141923 0 1.41837e+06 142278 0 1.39776e+06 142370 0 1.3772e+06 142222 0 1.35673e+06 141855 0 1.33637e+06 141289 0 1.31615e+06 140542 0 1.29608e+06 139631 0 1.27619e+06 138571 0 1.25649e+06 137378 0 1.23699e+06 136065 0 1.21772e+06 134644 0 1.19868e+06 133126 0 1.17989e+06 131522 0 1.16134e+06 129841 0 1.14306e+06 128093 0 1.12505e+06 126285 0 1.10731e+06 124426 0 1.08986e+06 122520 0 1.07268e+06 120576 0 1.0558e+06 118598 0 1.03921e+06 116592 0 1.02291e+06 114563 0 1.00691e+06 112514 0 991212 110449 0 975809 108373 0 960706 106288 0 945904 104197 0 931401 102103 0 917199 100009 0 903295 97915.6 0 889690 95825.5 0 876382 93740.5 0 863371 91661.9 0 850654 89591.1 0 838230 87529.4 0 826097 85477.7 0 814255 83437 0 802700 81408.1 0 791431 79391.7 0 780445 77388.3 0 769742 75398.4 0 759318 73422.5 0 749171 71460.9 0 739300 69513.7 0 729701 67581.2 0 720374 65663.6 0 711315 63760.8 0 702522 61872.9 0 693994 59999.9 0 685727 58141.7 0 677721 56298.1 0 669971 54469 0 662478 52654.3 0 655238 50853.6 0 648250 49066.9 0 641511 47293.7 0 635019 45533.8 0 628773 43786.8 0 622771 42052.5 0 617011 40330.5 0 611492 38620.4 0 606210 36921.8 0 601166 35234.3 0 596357 33557.5 0 591783 31891.1 0 587440 30234.4 0 583329 28587.2 0 579447 26948.9 0 575794 25319.1 0 572369 23697.3 0 569169 22083.1 0 566195 20475.9 0 563445 18875.4 0 560918 17280.9 0 558614 15692 0 556532 14108.2 0 554670 12529 0 553030 10953.9 0 551609 9382.36 0 550407 7813.92 0 549424 6248.05 0 548660 4684.24 0 548115 3121.97 0 547788 1560.73 0 547679 0 0 1.00972e+06 -419884 0 1.21881e+06 -349362 0 1.31924e+06 -331318 0 1.39308e+06 -316339 0 1.4523e+06 -297752 0 1.50329e+06 -279276 0 1.54762e+06 -259425 0 1.58688e+06 -239348 0 1.62161e+06 -218783 0 1.65236e+06 -198131 0 1.67937e+06 -177427 0 1.70288e+06 -156864 0 1.72304e+06 -136541 0 1.74e+06 -116588 0 1.75389e+06 -97103.2 0 1.76483e+06 -78186.8 0 1.77296e+06 -59921.7 0 1.77841e+06 -42381.3 0 1.78132e+06 -25625.5 0 1.78185e+06 -9702.03 0 1.78013e+06 5354.28 0 1.77633e+06 19520.2 0 1.77059e+06 32783.8 0 1.76306e+06 45143 0 1.75388e+06 56605 0 1.74321e+06 67184.5 0 1.73117e+06 76902.6 0 1.71789e+06 85786 0 1.7035e+06 93865.5 0 1.68811e+06 101175 0 1.67185e+06 107751 0 1.65479e+06 113631 0 1.63706e+06 118854 0 1.61873e+06 123458 0 1.59988e+06 127482 0 1.5806e+06 130963 0 1.56095e+06 133940 0 1.54101e+06 136446 0 1.52082e+06 138517 0 1.50045e+06 140185 0 1.47995e+06 141481 0 1.45935e+06 142435 0 1.43871e+06 143074 0 1.41807e+06 143424 0 1.39745e+06 143510 0 1.37688e+06 143355 0 1.35641e+06 142979 0 1.33604e+06 142403 0 1.31581e+06 141646 0 1.29574e+06 140724 0 1.27585e+06 139652 0 1.25615e+06 138447 0 1.23665e+06 137120 0 1.21738e+06 135685 0 1.19835e+06 134153 0 1.17955e+06 132534 0 1.16101e+06 130839 0 1.14273e+06 129076 0 1.12473e+06 127252 0 1.10699e+06 125377 0 1.08954e+06 123456 0 1.07237e+06 121496 0 1.05549e+06 119502 0 1.03891e+06 117479 0 1.02262e+06 115433 0 1.00662e+06 113368 0 990925 111287 0 975528 109195 0 960430 107094 0 945633 104987 0 931137 102876 0 916940 100766 0 903042 98656.3 0 889442 96550.2 0 876140 94449.1 0 863134 92354.6 0 850423 90268 0 838004 88190.6 0 825877 86123.3 0 814040 84067.1 0 802490 82022.8 0 791226 79991 0 780246 77972.4 0 769547 75967.5 0 759128 73976.6 0 748986 72000.1 0 739120 70038.3 0 729526 68091.2 0 720203 66159.1 0 711148 64241.9 0 702360 62339.8 0 693835 60452.7 0 685573 58580.4 0 677570 56722.9 0 669825 54880.1 0 662335 53051.7 0 655098 51237.4 0 648113 49437.2 0 641378 47650.6 0 634889 45877.5 0 628647 44117.4 0 622648 42370 0 616890 40635 0 611373 38912 0 606095 37200.6 0 601053 35500.4 0 596247 33810.9 0 591674 32131.9 0 587334 30462.8 0 583224 28803.1 0 579345 27152.4 0 575694 25510.4 0 572270 23876.3 0 569072 22249.9 0 566099 20630.6 0 563350 19018 0 560825 17411.4 0 558522 15810.5 0 556441 14214.8 0 554580 12623.6 0 552940 11036.6 0 551520 9453.26 0 550319 7872.97 0 549337 6295.27 0 548573 4719.64 0 548028 3145.56 0 547701 1572.52 0 547592 0 0 1.02853e+06 -427704 0 1.22234e+06 -355802 0 1.32216e+06 -335748 0 1.39546e+06 -319450 0 1.45458e+06 -300408 0 1.50541e+06 -281443 0 1.54965e+06 -261300 0 1.58882e+06 -240938 0 1.62347e+06 -220146 0 1.65413e+06 -199279 0 1.68105e+06 -178382 0 1.70447e+06 -157637 0 1.72455e+06 -137144 0 1.74142e+06 -117029 0 1.75521e+06 -97391.7 0 1.76606e+06 -78331.7 0 1.77409e+06 -59931.8 0 1.77944e+06 -42265.5 0 1.78226e+06 -25392.5 0 1.78269e+06 -9360.59 0 1.78089e+06 5795.55 0 1.777e+06 20052.9 0 1.77117e+06 33399.8 0 1.76356e+06 45834.6 0 1.75431e+06 57364.7 0 1.74356e+06 68005.1 0 1.73145e+06 77777.7 0 1.71811e+06 86709.3 0 1.70366e+06 94831.2 0 1.68822e+06 102178 0 1.6719e+06 108786 0 1.6548e+06 114693 0 1.63702e+06 119939 0 1.61865e+06 124563 0 1.59977e+06 128603 0 1.58045e+06 132097 0 1.56078e+06 135083 0 1.54081e+06 137596 0 1.5206e+06 139672 0 1.50021e+06 141342 0 1.47969e+06 142638 0 1.45908e+06 143590 0 1.43842e+06 144225 0 1.41776e+06 144571 0 1.39713e+06 144651 0 1.37656e+06 144488 0 1.35608e+06 144104 0 1.33571e+06 143518 0 1.31548e+06 142750 0 1.29541e+06 141817 0 1.27551e+06 140733 0 1.25581e+06 139515 0 1.23631e+06 138175 0 1.21704e+06 136726 0 1.19801e+06 135180 0 1.17922e+06 133547 0 1.16068e+06 131836 0 1.1424e+06 130058 0 1.1244e+06 128219 0 1.10667e+06 126328 0 1.08922e+06 124391 0 1.07206e+06 122415 0 1.05518e+06 120405 0 1.0386e+06 118366 0 1.02232e+06 116304 0 1.00633e+06 114222 0 990637 112125 0 975245 110016 0 960153 107899 0 945362 105776 0 930871 103649 0 916680 101522 0 902787 99396.6 0 889194 97274.5 0 875897 95157.4 0 862896 93047 0 850191 90944.6 0 837778 88851.4 0 825656 86768.5 0 813824 84696.8 0 802280 82637.1 0 791021 80590 0 780046 78556.3 0 769352 76536.3 0 758938 74530.5 0 748801 72539.1 0 738939 70562.6 0 729349 68600.9 0 720031 66654.3 0 710980 64722.8 0 702196 62806.5 0 693676 60905.2 0 685417 59018.9 0 677418 57147.6 0 669677 55290.9 0 662191 53448.8 0 654958 51621.1 0 647976 49807.3 0 641244 48007.4 0 634759 46221 0 628519 44447.7 0 622523 42687.3 0 616769 40939.3 0 611254 39203.4 0 605978 37479.2 0 600939 35766.3 0 596135 34064.2 0 591565 32372.6 0 587227 30691 0 583119 29018.9 0 579242 27355.9 0 575592 25701.5 0 572170 24055.2 0 568974 22416.7 0 566002 20785.2 0 563255 19160.5 0 560731 17541.9 0 558429 15929 0 556349 14321.3 0 554489 12718.3 0 552850 11119.4 0 551430 9524.11 0 550230 7931.98 0 549248 6342.45 0 548485 4755.01 0 547940 3169.14 0 547614 1584.31 0 547505 0 0 1.04562e+06 -434814 0 1.22615e+06 -362032 0 1.3251e+06 -340079 0 1.39789e+06 -322550 0 1.45687e+06 -303037 0 1.50754e+06 -283599 0 1.5517e+06 -263163 0 1.59077e+06 -242519 0 1.62533e+06 -221500 0 1.65591e+06 -200419 0 1.68275e+06 -179329 0 1.70608e+06 -158402 0 1.72606e+06 -137738 0 1.74284e+06 -117461 0 1.75654e+06 -97672.1 0 1.76729e+06 -78468.5 0 1.77522e+06 -59934 0 1.78048e+06 -42141.9 0 1.78321e+06 -25152.1 0 1.78355e+06 -9011.94 0 1.78165e+06 6243.73 0 1.77767e+06 20592.2 0 1.77176e+06 34022.1 0 1.76407e+06 46532 0 1.75474e+06 58129.8 0 1.74391e+06 68831 0 1.73173e+06 78657.6 0 1.71833e+06 87637.1 0 1.70382e+06 95801.1 0 1.68832e+06 103184 0 1.67195e+06 109824 0 1.6548e+06 115759 0 1.63698e+06 121028 0 1.61857e+06 125670 0 1.59965e+06 129726 0 1.58031e+06 133233 0 1.5606e+06 136228 0 1.54061e+06 138748 0 1.52037e+06 140828 0 1.49996e+06 142500 0 1.47942e+06 143796 0 1.4588e+06 144746 0 1.43813e+06 145378 0 1.41746e+06 145718 0 1.39682e+06 145792 0 1.37624e+06 145621 0 1.35575e+06 145229 0 1.33538e+06 144633 0 1.31514e+06 143855 0 1.29507e+06 142910 0 1.27517e+06 141814 0 1.25547e+06 140583 0 1.23597e+06 139230 0 1.2167e+06 137767 0 1.19767e+06 136207 0 1.17888e+06 134559 0 1.16034e+06 132834 0 1.14207e+06 131040 0 1.12407e+06 129186 0 1.10635e+06 127279 0 1.0889e+06 125326 0 1.07174e+06 123334 0 1.05487e+06 121307 0 1.0383e+06 119253 0 1.02202e+06 117174 0 1.00603e+06 115076 0 990348 112963 0 974962 110838 0 959876 108704 0 945090 106564 0 930604 104422 0 916419 102278 0 902532 100137 0 888944 97998.4 0 875653 95865.4 0 862658 93739.1 0 849958 91620.8 0 837550 89511.9 0 825434 87413.4 0 813607 85326.2 0 802068 83251.1 0 790815 81188.7 0 779844 79139.8 0 769156 77104.8 0 758746 75084 0 748614 73077.9 0 738757 71086.6 0 729172 69110.4 0 719858 67149.3 0 710812 65203.5 0 702032 63272.9 0 693516 61357.5 0 685261 59457.2 0 677266 57572 0 669529 55701.6 0 662046 53845.8 0 654817 52004.5 0 647838 50177.3 0 641109 48364 0 634627 46564.3 0 628391 44777.9 0 622398 43004.4 0 616646 41243.5 0 611135 39494.7 0 605861 37757.7 0 600825 36032 0 596023 34317.4 0 591455 32613.2 0 587119 30919.1 0 583014 29234.6 0 579138 27559.2 0 575490 25892.5 0 572070 24234.1 0 568875 22583.3 0 565905 20939.8 0 563159 19302.9 0 560636 17672.3 0 558336 16047.5 0 556256 14427.8 0 554398 12812.8 0 552759 11202.1 0 551340 9594.94 0 550141 7990.96 0 549159 6389.62 0 548397 4790.37 0 547852 3192.71 0 547525 1596.09 0 547416 0 0 1.06127e+06 -441320 0 1.23019e+06 -368052 0 1.32809e+06 -344316 0 1.40036e+06 -325634 0 1.45919e+06 -305640 0 1.50969e+06 -285745 0 1.55375e+06 -265012 0 1.59273e+06 -244091 0 1.62721e+06 -222844 0 1.65769e+06 -201550 0 1.68445e+06 -180267 0 1.70769e+06 -159158 0 1.72758e+06 -138324 0 1.74427e+06 -117885 0 1.75787e+06 -97944.1 0 1.76853e+06 -78597.2 0 1.77637e+06 -59928.3 0 1.78153e+06 -42010.6 0 1.78416e+06 -24904.1 0 1.7844e+06 -8656.06 0 1.78241e+06 6698.84 0 1.77835e+06 21138.1 0 1.77235e+06 34650.6 0 1.76457e+06 47235.4 0 1.75517e+06 58900.5 0 1.74427e+06 69662 0 1.73202e+06 79542.3 0 1.71855e+06 88569.3 0 1.70398e+06 96775.1 0 1.68843e+06 104195 0 1.672e+06 110866 0 1.65481e+06 116828 0 1.63694e+06 122119 0 1.61849e+06 126781 0 1.59954e+06 130852 0 1.58016e+06 134370 0 1.56043e+06 137375 0 1.5404e+06 139901 0 1.52015e+06 141985 0 1.49972e+06 143659 0 1.47916e+06 144955 0 1.45852e+06 145903 0 1.43784e+06 146532 0 1.41716e+06 146867 0 1.39651e+06 146934 0 1.37592e+06 146755 0 1.35542e+06 146354 0 1.33504e+06 145749 0 1.31481e+06 144960 0 1.29473e+06 144003 0 1.27483e+06 142895 0 1.25512e+06 141651 0 1.23563e+06 140285 0 1.21636e+06 138808 0 1.19733e+06 137233 0 1.17854e+06 135571 0 1.16001e+06 133831 0 1.14174e+06 132021 0 1.12374e+06 130152 0 1.10602e+06 128229 0 1.08858e+06 126261 0 1.07143e+06 124252 0 1.05456e+06 122210 0 1.03799e+06 120139 0 1.02172e+06 118044 0 1.00574e+06 115930 0 990058 113800 0 974677 111659 0 959597 109508 0 944817 107352 0 930337 105194 0 916157 103034 0 902276 100876 0 888693 98722 0 875408 96573 0 862419 94430.8 0 849724 92296.8 0 837322 90172.1 0 825211 88058 0 813390 85955.3 0 801856 83864.7 0 790607 81787.1 0 779642 79723.1 0 768959 77673 0 758554 75637.3 0 748427 73616.3 0 738574 71610.3 0 728994 69619.5 0 719684 67644 0 710643 65683.8 0 701867 63739 0 693355 61809.5 0 685104 59895.3 0 677113 57996.2 0 669379 56112 0 661901 54242.6 0 654675 52387.7 0 647700 50547 0 640974 48720.4 0 634495 46907.5 0 628262 45107.9 0 622272 43321.4 0 616523 41547.5 0 611014 39785.8 0 605744 38036 0 600709 36297.7 0 595910 34570.4 0 591344 32853.6 0 587010 31147.1 0 582907 29450.1 0 579033 27762.4 0 575388 26083.5 0 571969 24412.8 0 568776 22749.9 0 565807 21094.2 0 563063 19445.3 0 560541 17802.7 0 558241 16165.8 0 556163 14534.2 0 554306 12907.4 0 552668 11284.7 0 551250 9665.72 0 550050 8049.92 0 549070 6436.76 0 548307 4825.72 0 547763 3216.26 0 547437 1607.87 0 547328 0 0 1.07567e+06 -447307 0 1.2344e+06 -373867 0 1.33111e+06 -348463 0 1.40287e+06 -328700 0 1.46152e+06 -308219 0 1.51187e+06 -287879 0 1.55583e+06 -266849 0 1.5947e+06 -245653 0 1.6291e+06 -224178 0 1.65949e+06 -202672 0 1.68616e+06 -181197 0 1.70931e+06 -159906 0 1.72911e+06 -138901 0 1.7457e+06 -118301 0 1.75921e+06 -98207.9 0 1.76977e+06 -78717.8 0 1.77751e+06 -59914.6 0 1.78258e+06 -41871.5 0 1.78511e+06 -24648.5 0 1.78526e+06 -8292.93 0 1.78318e+06 7160.9 0 1.77902e+06 21690.6 0 1.77294e+06 35285.4 0 1.76508e+06 47944.6 0 1.7556e+06 59676.8 0 1.74463e+06 70498.2 0 1.73231e+06 80431.9 0 1.71877e+06 89506 0 1.70414e+06 97753.2 0 1.68853e+06 105209 0 1.67206e+06 111911 0 1.65482e+06 117900 0 1.63691e+06 123214 0 1.61841e+06 127894 0 1.59943e+06 131980 0 1.58002e+06 135510 0 1.56025e+06 138524 0 1.5402e+06 141057 0 1.51992e+06 143144 0 1.49947e+06 144820 0 1.4789e+06 146115 0 1.45824e+06 147061 0 1.43755e+06 147686 0 1.41685e+06 148016 0 1.39619e+06 148076 0 1.3756e+06 147890 0 1.35509e+06 147479 0 1.33471e+06 146865 0 1.31447e+06 146065 0 1.29439e+06 145096 0 1.27448e+06 143976 0 1.25478e+06 142720 0 1.23529e+06 141340 0 1.21602e+06 139849 0 1.19699e+06 138260 0 1.1782e+06 136583 0 1.15967e+06 134827 0 1.14141e+06 133003 0 1.12341e+06 131118 0 1.1057e+06 129179 0 1.08826e+06 127195 0 1.07111e+06 125170 0 1.05425e+06 123112 0 1.03769e+06 121025 0 1.02142e+06 118914 0 1.00544e+06 116783 0 989767 114637 0 974392 112479 0 959317 110313 0 944543 108140 0 930068 105965 0 915894 103790 0 902019 101616 0 888442 99445.3 0 875162 97280.3 0 862179 95122.2 0 849489 92972.3 0 837093 90832 0 824988 88702.3 0 813171 86584 0 801643 84478.1 0 790400 82385.3 0 779440 80306 0 768761 78240.9 0 758361 76190.2 0 748239 74154.5 0 738391 72133.8 0 728815 70128.4 0 719510 68138.5 0 710473 66164 0 701701 64204.9 0 693193 62261.4 0 684947 60333.1 0 676960 58420.1 0 669229 56522.2 0 661754 54639.1 0 654532 52770.7 0 647561 50916.6 0 640838 49076.7 0 634363 47250.5 0 628132 45437.8 0 622145 43638.2 0 616399 41851.3 0 610893 40076.8 0 605625 38314.2 0 600593 36563.2 0 595796 34823.2 0 591233 33094 0 586901 31374.9 0 582800 29665.6 0 578928 27965.6 0 575284 26274.3 0 571867 24591.4 0 568675 22916.3 0 565709 21248.6 0 562965 19587.6 0 560445 17933 0 558147 16284.2 0 556069 14640.6 0 554213 13001.8 0 552576 11367.3 0 551158 9736.47 0 549960 8108.84 0 548980 6483.88 0 548218 4861.04 0 547673 3239.8 0 547347 1619.64 0 547238 0 0 1.089e+06 -452850 0 1.23876e+06 -379481 0 1.33417e+06 -352526 0 1.40542e+06 -331744 0 1.46387e+06 -310773 0 1.51406e+06 -290001 0 1.55791e+06 -268674 0 1.59669e+06 -247205 0 1.63099e+06 -225503 0 1.6613e+06 -203786 0 1.68788e+06 -182118 0 1.71094e+06 -160645 0 1.73065e+06 -139469 0 1.74715e+06 -118709 0 1.76056e+06 -98463.4 0 1.77102e+06 -78830.2 0 1.77867e+06 -59892.9 0 1.78364e+06 -41724.7 0 1.78607e+06 -24385.5 0 1.78613e+06 -7922.52 0 1.78395e+06 7629.92 0 1.77971e+06 22249.8 0 1.77354e+06 35926.5 0 1.7656e+06 48659.8 0 1.75603e+06 60458.6 0 1.74499e+06 71339.6 0 1.7326e+06 81326.2 0 1.719e+06 90447.2 0 1.7043e+06 98735.4 0 1.68864e+06 106227 0 1.67211e+06 112960 0 1.65482e+06 118975 0 1.63687e+06 124311 0 1.61834e+06 129009 0 1.59931e+06 133110 0 1.57987e+06 136652 0 1.56008e+06 139674 0 1.54e+06 142213 0 1.5197e+06 144304 0 1.49923e+06 145982 0 1.47863e+06 147277 0 1.45796e+06 148220 0 1.43725e+06 148841 0 1.41655e+06 149166 0 1.39588e+06 149219 0 1.37527e+06 149025 0 1.35476e+06 148606 0 1.33438e+06 147981 0 1.31413e+06 147170 0 1.29404e+06 146190 0 1.27414e+06 145058 0 1.25444e+06 143788 0 1.23494e+06 142395 0 1.21568e+06 140890 0 1.19665e+06 139287 0 1.17786e+06 137595 0 1.15934e+06 135824 0 1.14107e+06 133984 0 1.12308e+06 132084 0 1.10537e+06 130129 0 1.08794e+06 128129 0 1.07079e+06 126088 0 1.05394e+06 124014 0 1.03738e+06 121910 0 1.02111e+06 119783 0 1.00514e+06 117636 0 989475 115474 0 974106 113299 0 959037 111117 0 944268 108928 0 929799 106737 0 915631 104545 0 901761 102355 0 888190 100168 0 874916 97987.2 0 861938 95813.2 0 849254 93647.6 0 836863 91491.6 0 824763 89346.2 0 812952 87212.5 0 801429 85091.2 0 790191 82983.1 0 779236 80888.7 0 768562 78808.5 0 758168 76742.9 0 748050 74692.4 0 738206 72657 0 728635 70637.1 0 719335 68632.7 0 710302 66643.9 0 701535 64670.6 0 693031 62712.9 0 684788 60770.7 0 676805 58843.9 0 669079 56932.2 0 661607 55035.4 0 654389 53153.5 0 647421 51286 0 640701 49432.7 0 634229 47593.3 0 628002 45767.5 0 622018 43954.8 0 616275 42155 0 610771 40367.6 0 605506 38592.3 0 600477 36828.5 0 595682 35076 0 591121 33334.2 0 586791 31602.7 0 582692 29881 0 578822 28168.6 0 575180 26465.1 0 571764 24770 0 568575 23082.7 0 565609 21402.8 0 562867 19729.8 0 560348 18063.2 0 558051 16402.4 0 555975 14746.9 0 554119 13096.2 0 552483 11449.8 0 551066 9807.18 0 549868 8167.73 0 548889 6530.97 0 548127 4896.35 0 547583 3263.34 0 547257 1631.4 0 547148 0 0 1.1014e+06 -458009 0 1.24322e+06 -384902 0 1.33726e+06 -356507 0 1.40801e+06 -334765 0 1.46624e+06 -313304 0 1.51627e+06 -292110 0 1.56001e+06 -270485 0 1.59868e+06 -248748 0 1.6329e+06 -226818 0 1.66312e+06 -204890 0 1.6896e+06 -183029 0 1.71258e+06 -161375 0 1.7322e+06 -140030 0 1.7486e+06 -119108 0 1.76191e+06 -98710.5 0 1.77228e+06 -78934.3 0 1.77983e+06 -59863.1 0 1.7847e+06 -41570 0 1.78704e+06 -24114.8 0 1.787e+06 -7544.81 0 1.78473e+06 8105.94 0 1.78039e+06 22815.6 0 1.77414e+06 36573.9 0 1.76611e+06 49380.9 0 1.75647e+06 61245.9 0 1.74535e+06 72186.2 0 1.73289e+06 82225.4 0 1.71922e+06 91392.8 0 1.70447e+06 99721.7 0 1.68875e+06 107249 0 1.67217e+06 114012 0 1.65483e+06 120053 0 1.63683e+06 125411 0 1.61826e+06 130127 0 1.5992e+06 134242 0 1.57972e+06 137796 0 1.5599e+06 140827 0 1.5398e+06 143372 0 1.51947e+06 145466 0 1.49898e+06 147145 0 1.47837e+06 148439 0 1.45768e+06 149381 0 1.43696e+06 149997 0 1.41624e+06 150316 0 1.39556e+06 150363 0 1.37495e+06 150161 0 1.35443e+06 149732 0 1.33404e+06 149097 0 1.31379e+06 148275 0 1.2937e+06 147284 0 1.2738e+06 146139 0 1.25409e+06 144856 0 1.2346e+06 143449 0 1.21533e+06 141931 0 1.1963e+06 140313 0 1.17752e+06 138606 0 1.159e+06 136821 0 1.14074e+06 134966 0 1.12275e+06 133049 0 1.10504e+06 131079 0 1.08762e+06 129063 0 1.07048e+06 127006 0 1.05363e+06 124915 0 1.03707e+06 122796 0 1.02081e+06 120652 0 1.00485e+06 118489 0 989183 116310 0 973819 114119 0 958755 111920 0 943992 109715 0 929529 107508 0 915366 105300 0 901502 103093 0 887937 100891 0 874668 98693.8 0 861696 96503.9 0 849018 94322.5 0 836632 92150.8 0 824538 89989.8 0 812732 87840.6 0 801214 85704 0 789981 83580.6 0 779031 81471 0 768363 79375.8 0 757973 77295.4 0 747860 75230 0 738021 73180 0 728455 71145.5 0 719159 69126.6 0 710130 67123.5 0 701367 65136.1 0 692868 63164.3 0 684629 61208.1 0 676650 59267.4 0 668927 57341.9 0 661459 55431.6 0 654244 53536.1 0 647280 51655.2 0 640564 49788.6 0 634095 47935.9 0 627871 46097 0 621889 44271.3 0 616149 42458.5 0 610649 40658.3 0 605386 38870.2 0 600359 37093.8 0 595567 35328.6 0 591008 33574.3 0 586681 31830.3 0 582584 30096.2 0 578716 28371.5 0 575075 26655.7 0 571661 24948.4 0 568473 23249 0 565509 21557.1 0 562769 19872 0 560251 18193.4 0 557955 16520.6 0 555880 14853.2 0 554025 13190.6 0 552390 11532.4 0 550973 9877.86 0 549776 8226.6 0 548797 6578.03 0 548036 4931.63 0 547492 3286.85 0 547166 1643.16 0 547057 0 0 1.11301e+06 -462835 0 1.24777e+06 -390137 0 1.3404e+06 -360410 0 1.41063e+06 -337761 0 1.46864e+06 -315812 0 1.51849e+06 -294207 0 1.56213e+06 -272285 0 1.60069e+06 -250280 0 1.63482e+06 -228124 0 1.66494e+06 -205985 0 1.69134e+06 -183932 0 1.71422e+06 -162097 0 1.73375e+06 -140581 0 1.75005e+06 -119498 0 1.76327e+06 -98949.2 0 1.77354e+06 -79030.3 0 1.78099e+06 -59825.3 0 1.78576e+06 -41407.4 0 1.788e+06 -23836.5 0 1.78787e+06 -7159.78 0 1.78551e+06 8588.95 0 1.78108e+06 23388.1 0 1.77474e+06 3