<?xml version="1.0"?> 
<VTKFile type="StructuredGrid" version="0.1"> 
<StructuredGrid WholeExtent="0 127 0 127 0 0"> 
<Piece Extent="0 127 0 127 0 0"> 
<PointData>
<DataArray type="Float32" Name="|E|" format="ascii" NumberOfComponents="3"> 
-2.10806e+06 0 0 -2.10815e+06 2963.94 0 -2.1084e+06 5928.52 0 -2.10883e+06 8894.38 0 -2.10943e+06 11862.1 0 -2.1102e+06 14832.4 0 -2.11115e+06 17805.9 0 -2.11226e+06 20783.3 0 -2.11355e+06 23765.1 0 -2.11501e+06 26752 0 -2.11665e+06 29744.7 0 -2.11845e+06 32743.9 0 -2.12043e+06 35750.1 0 -2.12259e+06 38764.2 0 -2.12491e+06 41786.6 0 -2.12742e+06 44818.2 0 -2.1301e+06 47859.6 0 -2.13295e+06 50911.5 0 -2.13598e+06 53974.6 0 -2.13919e+06 57049.7 0 -2.14257e+06 60137.3 0 -2.14614e+06 63238.3 0 -2.14988e+06 66353.4 0 -2.15381e+06 69483.4 0 -2.15791e+06 72629 0 -2.1622e+06 75790.9 0 -2.16667e+06 78970 0 -2.17132e+06 82167.1 0 -2.17616e+06 85382.9 0 -2.18118e+06 88618.3 0 -2.18639e+06 91874.1 0 -2.19179e+06 95151.1 0 -2.19738e+06 98450.3 0 -2.20316e+06 101772 0 -2.20913e+06 105118 0 -2.21529e+06 108489 0 -2.22165e+06 111886 0 -2.2282e+06 115309 0 -2.23496e+06 118759 0 -2.24191e+06 122238 0 -2.24906e+06 125747 0 -2.25641e+06 129286 0 -2.26397e+06 132856 0 -2.27174e+06 136459 0 -2.27971e+06 140096 0 -2.2879e+06 143767 0 -2.29629e+06 147473 0 -2.3049e+06 151217 0 -2.31373e+06 154997 0 -2.32277e+06 158817 0 -2.33204e+06 162677 0 -2.34153e+06 166577 0 -2.35125e+06 170520 0 -2.36119e+06 174505 0 -2.37137e+06 178535 0 -2.38178e+06 182610 0 -2.39242e+06 186731 0 -2.40331e+06 190899 0 -2.41444e+06 195115 0 -2.42582e+06 199381 0 -2.43745e+06 203696 0 -2.44933e+06 208063 0 -2.46147e+06 212481 0 -2.47386e+06 216952 0 -2.48653e+06 221475 0 -2.49946e+06 226053 0 -2.51266e+06 230684 0 -2.52614e+06 235369 0 -2.5399e+06 240109 0 -2.55395e+06 244904 0 -2.56829e+06 249753 0 -2.58293e+06 254655 0 -2.59786e+06 259610 0 -2.6131e+06 264618 0 -2.62866e+06 269676 0 -2.64453e+06 274783 0 -2.66072e+06 279937 0 -2.67725e+06 285136 0 -2.69411e+06 290375 0 -2.71131e+06 295652 0 -2.72887e+06 300962 0 -2.74678e+06 306301 0 -2.76505e+06 311661 0 -2.7837e+06 317036 0 -2.80273e+06 322419 0 -2.82215e+06 327799 0 -2.84196e+06 333167 0 -2.86218e+06 338510 0 -2.88282e+06 343816 0 -2.90388e+06 349068 0 -2.92537e+06 354249 0 -2.94731e+06 359340 0 -2.9697e+06 364317 0 -2.99255e+06 369157 0 -3.01587e+06 373831 0 -3.03967e+06 378307 0 -3.06396e+06 382550 0 -3.08874e+06 386521 0 -3.11402e+06 390175 0 -3.13981e+06 393463 0 -3.16611e+06 396330 0 -3.19291e+06 398717 0 -3.22022e+06 400555 0 -3.24802e+06 401771 0 -3.27631e+06 402284 0 -3.30507e+06 402006 0 -3.33426e+06 400840 0 -3.36386e+06 398681 0 -3.39381e+06 395419 0 -3.42405e+06 390933 0 -3.45451e+06 385100 0 -3.48509e+06 377788 0 -3.51568e+06 368866 0 -3.54613e+06 358201 0 -3.57628e+06 345665 0 -3.60594e+06 331139 0 -3.63488e+06 314519 0 -3.66285e+06 295722 0 -3.68957e+06 274695 0 -3.71474e+06 251422 0 -3.73803e+06 225933 0 -3.75911e+06 198313 0 -3.77765e+06 168704 0 -3.79333e+06 137309 0 -3.80586e+06 104396 0 -3.815e+06 70286.4 0 -3.82056e+06 35349.5 0 -3.82243e+06 -11.7192 0 -2.10782e+06 0 0 -2.10791e+06 2956.08 0 -2.10816e+06 5912.79 0 -2.10858e+06 8870.75 0 -2.10918e+06 11830.6 0 -2.10994e+06 14792.9 0 -2.11087e+06 17758.4 0 -2.11196e+06 20727.6 0 -2.11323e+06 23701.3 0 -2.11467e+06 26679.9 0 -2.11628e+06 29664.3 0 -2.11806e+06 32655 0 -2.12001e+06 35652.6 0 -2.12213e+06 38657.9 0 -2.12443e+06 41671.5 0 -2.12689e+06 44694 0 -2.12953e+06 47726.2 0 -2.13234e+06 50768.7 0 -2.13533e+06 53822.2 0 -2.13849e+06 56887.4 0 -2.14182e+06 59965 0 -2.14534e+06 63055.8 0 -2.14902e+06 66160.4 0 -2.15289e+06 69279.5 0 -2.15693e+06 72414 0 -2.16115e+06 75564.6 0 -2.16556e+06 78732 0 -2.17014e+06 81917 0 -2.1749e+06 85120.4 0 -2.17985e+06 88343.1 0 -2.18498e+06 91585.8 0 -2.1903e+06 94849.3 0 -2.1958e+06 98134.5 0 -2.20149e+06 101442 0 -2.20737e+06 104773 0 -2.21344e+06 108129 0 -2.2197e+06 111510 0 -2.22615e+06 114916 0 -2.2328e+06 118350 0 -2.23964e+06 121812 0 -2.24668e+06 125302 0 -2.25392e+06 128823 0 -2.26136e+06 132374 0 -2.26901e+06 135958 0 -2.27686e+06 139574 0 -2.28491e+06 143224 0 -2.29317e+06 146909 0 -2.30164e+06 150629 0 -2.31033e+06 154387 0 -2.31923e+06 158183 0 -2.32835e+06 162018 0 -2.33768e+06 165893 0 -2.34724e+06 169809 0 -2.35702e+06 173767 0 -2.36703e+06 177769 0 -2.37727e+06 181815 0 -2.38775e+06 185907 0 -2.39845e+06 190044 0 -2.4094e+06 194230 0 -2.42059e+06 198463 0 -2.43202e+06 202746 0 -2.4437e+06 207078 0 -2.45563e+06 211462 0 -2.46781e+06 215897 0 -2.48026e+06 220385 0 -2.49297e+06 224926 0 -2.50594e+06 229519 0 -2.51919e+06 234167 0 -2.53271e+06 238869 0 -2.54651e+06 243624 0 -2.56059e+06 248434 0 -2.57497e+06 253297 0 -2.58964e+06 258213 0 -2.6046e+06 263182 0 -2.61987e+06 268202 0 -2.63546e+06 273271 0 -2.65135e+06 278388 0 -2.66757e+06 283551 0 -2.68412e+06 288757 0 -2.701e+06 294002 0 -2.71822e+06 299283 0 -2.7358e+06 304596 0 -2.75372e+06 309934 0 -2.77201e+06 315292 0 -2.79067e+06 320662 0 -2.80971e+06 326037 0 -2.82914e+06 331406 0 -2.84896e+06 336760 0 -2.86919e+06 342085 0 -2.88983e+06 347369 0 -2.91089e+06 352594 0 -2.93239e+06 357744 0 -2.95433e+06 362799 0 -2.97671e+06 367735 0 -2.99956e+06 372527 0 -3.02288e+06 377147 0 -3.04667e+06 381562 0 -3.07095e+06 385736 0 -3.09572e+06 389630 0 -3.12099e+06 393199 0 -3.14677e+06 396393 0 -3.17305e+06 399156 0 -3.19983e+06 401428 0 -3.22712e+06 403141 0 -3.2549e+06 404220 0 -3.28316e+06 404584 0 -3.31188e+06 404144 0 -3.34103e+06 402803 0 -3.37058e+06 400457 0 -3.40048e+06 396992 0 -3.43066e+06 392291 0 -3.46104e+06 386229 0 -3.49154e+06 378675 0 -3.52202e+06 369499 0 -3.55236e+06 358570 0 -3.58238e+06 345761 0 -3.61189e+06 330955 0 -3.64066e+06 314051 0 -3.66844e+06 294970 0 -3.69494e+06 273664 0 -3.71988e+06 250120 0 -3.74291e+06 224376 0 -3.76372e+06 196519 0 -3.78197e+06 166698 0 -3.79735e+06 135120 0 -3.80958e+06 102055 0 -3.81841e+06 67830.8 0 -3.82368e+06 32799.1 0 -2.10759e+06 0 0 -2.10767e+06 2948.02 0 -2.10792e+06 5896.65 0 -2.10833e+06 8846.51 0 -2.10892e+06 11798.2 0 -2.10967e+06 14752.4 0 -2.11058e+06 17709.6 0 -2.11166e+06 20670.6 0 -2.11291e+06 23635.8 0 -2.11433e+06 26606 0 -2.11592e+06 29581.8 0 -2.11767e+06 32563.8 0 -2.11959e+06 35552.7 0 -2.12168e+06 38549.1 0 -2.12394e+06 41553.6 0 -2.12637e+06 44566.9 0 -2.12897e+06 47589.6 0 -2.13174e+06 50622.5 0 -2.13468e+06 53666.2 0 -2.13779e+06 56721.4 0 -2.14108e+06 59788.8 0 -2.14454e+06 62869.1 0 -2.14817e+06 65963 0 -2.15197e+06 69071.2 0 -2.15596e+06 72194.4 0 -2.16012e+06 75333.4 0 -2.16445e+06 78488.9 0 -2.16896e+06 81661.7 0 -2.17366e+06 84852.6 0 -2.17853e+06 88062.4 0 -2.18358e+06 91291.8 0 -2.18882e+06 94541.6 0 -2.19423e+06 97812.8 0 -2.19984e+06 101106 0 -2.20562e+06 104422 0 -2.2116e+06 107762 0 -2.21776e+06 111127 0 -2.22412e+06 114517 0 -2.23066e+06 117934 0 -2.2374e+06 121379 0 -2.24433e+06 124851 0 -2.25145e+06 128353 0 -2.25878e+06 131885 0 -2.2663e+06 135449 0 -2.27402e+06 139044 0 -2.28195e+06 142673 0 -2.29008e+06 146336 0 -2.29841e+06 150034 0 -2.30696e+06 153769 0 -2.31572e+06 157541 0 -2.32469e+06 161351 0 -2.33387e+06 165200 0 -2.34327e+06 169090 0 -2.35289e+06 173022 0 -2.36274e+06 176995 0 -2.37281e+06 181013 0 -2.38311e+06 185075 0 -2.39364e+06 189182 0 -2.4044e+06 193336 0 -2.4154e+06 197537 0 -2.42664e+06 201787 0 -2.43812e+06 206086 0 -2.44984e+06 210435 0 -2.46182e+06 214835 0 -2.47405e+06 219286 0 -2.48654e+06 223790 0 -2.49929e+06 228346 0 -2.5123e+06 232956 0 -2.52559e+06 237618 0 -2.53914e+06 242335 0 -2.55298e+06 247105 0 -2.56709e+06 251929 0 -2.5815e+06 256805 0 -2.59619e+06 261734 0 -2.61118e+06 266714 0 -2.62648e+06 271745 0 -2.64208e+06 276824 0 -2.658e+06 281950 0 -2.67424e+06 287120 0 -2.6908e+06 292332 0 -2.7077e+06 297582 0 -2.72494e+06 302866 0 -2.74252e+06 308179 0 -2.76046e+06 313515 0 -2.77876e+06 318869 0 -2.79742e+06 324233 0 -2.81647e+06 329599 0 -2.8359e+06 334956 0 -2.85572e+06 340295 0 -2.87595e+06 345601 0 -2.89659e+06 350862 0 -2.91765e+06 356061 0 -2.93914e+06 361179 0 -2.96107e+06 366197 0 -2.98345e+06 371091 0 -3.00629e+06 375836 0 -3.02959e+06 380402 0 -3.05337e+06 384757 0 -3.07764e+06 388865 0 -3.10239e+06 392684 0 -3.12764e+06 396170 0 -3.1534e+06 399273 0 -3.17965e+06 401936 0 -3.20641e+06 404099 0 -3.23367e+06 405692 0 -3.26142e+06 406642 0 -3.28964e+06 406866 0 -3.31832e+06 406274 0 -3.34743e+06 404770 0 -3.37692e+06 402248 0 -3.40676e+06 398597 0 -3.43687e+06 393698 0 -3.46718e+06 387425 0 -3.49759e+06 379651 0 -3.52797e+06 370245 0 -3.5582e+06 359077 0 -3.58809e+06 346022 0 -3.61745e+06 330966 0 -3.64606e+06 313810 0 -3.67366e+06 294479 0 -3.69997e+06 272926 0 -3.72469e+06 249146 0 -3.7475e+06 223178 0 -3.76806e+06 195114 0 -3.78606e+06 165107 0 -3.80118e+06 133366 0 -3.81315e+06 100170 0 -3.82174e+06 65815.7 0 -2.10735e+06 0 0 -2.10743e+06 2939.75 0 -2.10767e+06 5880.1 0 -2.10808e+06 8821.66 0 -2.10866e+06 11765 0 -2.10939e+06 14710.8 0 -2.1103e+06 17659.6 0 -2.11136e+06 20612.1 0 -2.11259e+06 23568.8 0 -2.11399e+06 26530.3 0 -2.11555e+06 29497.4 0 -2.11728e+06 32470.5 0 -2.11917e+06 35450.4 0 -2.12123e+06 38437.6 0 -2.12346e+06 41432.8 0 -2.12585e+06 44436.7 0 -2.12841e+06 47449.9 0 -2.13114e+06 50473 0 -2.13403e+06 53506.7 0 -2.1371e+06 56551.7 0 -2.14033e+06 59608.7 0 -2.14374e+06 62678.3 0 -2.14732e+06 65761.3 0 -2.15107e+06 68858.3 0 -2.15499e+06 71970.1 0 -2.15908e+06 75097.3 0 -2.16335e+06 78240.8 0 -2.16779e+06 81401.3 0 -2.17242e+06 84579.5 0 -2.17721e+06 87776.2 0 -2.18219e+06 90992.1 0 -2.18734e+06 94228.2 0 -2.19268e+06 97485.1 0 -2.19819e+06 100764 0 -2.20389e+06 104065 0 -2.20977e+06 107389 0 -2.21584e+06 110738 0 -2.22209e+06 114112 0 -2.22853e+06 117512 0 -2.23516e+06 120938 0 -2.24198e+06 124393 0 -2.249e+06 127876 0 -2.25621e+06 131389 0 -2.26361e+06 134932 0 -2.27121e+06 138508 0 -2.27901e+06 142115 0 -2.28701e+06 145756 0 -2.29521e+06 149432 0 -2.30362e+06 153143 0 -2.31223e+06 156891 0 -2.32105e+06 160676 0 -2.33009e+06 164500 0 -2.33934e+06 168364 0 -2.3488e+06 172268 0 -2.35848e+06 176214 0 -2.36838e+06 180202 0 -2.37851e+06 184235 0 -2.38886e+06 188311 0 -2.39944e+06 192434 0 -2.41026e+06 196603 0 -2.4213e+06 200820 0 -2.43259e+06 205085 0 -2.44412e+06 209399 0 -2.45589e+06 213764 0 -2.46791e+06 218179 0 -2.48018e+06 222645 0 -2.4927e+06 227164 0 -2.50549e+06 231735 0 -2.51853e+06 236359 0 -2.53185e+06 241036 0 -2.54543e+06 245766 0 -2.5593e+06 250550 0 -2.57344e+06 255386 0 -2.58787e+06 260275 0 -2.60259e+06 265215 0 -2.6176e+06 270205 0 -2.63292e+06 275246 0 -2.64854e+06 280333 0 -2.66447e+06 285467 0 -2.68072e+06 290643 0 -2.6973e+06 295859 0 -2.7142e+06 301112 0 -2.73145e+06 306397 0 -2.74904e+06 311710 0 -2.76698e+06 317044 0 -2.78528e+06 322393 0 -2.80395e+06 327749 0 -2.82299e+06 333105 0 -2.84242e+06 338449 0 -2.86224e+06 343771 0 -2.88246e+06 349058 0 -2.90309e+06 354295 0 -2.92414e+06 359466 0 -2.94562e+06 364553 0 -2.96754e+06 369534 0 -2.9899e+06 374387 0 -3.01272e+06 379085 0 -3.03601e+06 383598 0 -3.05977e+06 387894 0 -3.08401e+06 391936 0 -3.10874e+06 395684 0 -3.13397e+06 399090 0 -3.15969e+06 402106 0 -3.18592e+06 404673 0 -3.21264e+06 406732 0 -3.23986e+06 408212 0 -3.26757e+06 409040 0 -3.29575e+06 409131 0 -3.32438e+06 408397 0 -3.35344e+06 406741 0 -3.38288e+06 404057 0 -3.41265e+06 400234 0 -3.44269e+06 395152 0 -3.47291e+06 388688 0 -3.50323e+06 380714 0 -3.53352e+06 371100 0 -3.56363e+06 359717 0 -3.5934e+06 346443 0 -3.62262e+06 331165 0 -3.65108e+06 313787 0 -3.67852e+06 294236 0 -3.70465e+06 272470 0 -3.72918e+06 248486 0 -3.75179e+06 222326 0 -3.77215e+06 194087 0 -3.78993e+06 163922 0 -3.80484e+06 132052 0 -3.8166e+06 98712 0 -2.1071e+06 0 0 -2.10718e+06 2931.28 0 -2.10743e+06 5863.15 0 -2.10783e+06 8796.21 0 -2.1084e+06 11731 0 -2.10912e+06 14668.3 0 -2.11001e+06 17608.4 0 -2.11106e+06 20552.2 0 -2.11227e+06 23500.1 0 -2.11365e+06 26452.8 0 -2.11519e+06 29410.9 0 -2.11689e+06 32374.9 0 -2.11875e+06 35345.6 0 -2.12078e+06 38323.5 0 -2.12297e+06 41309.3 0 -2.12533e+06 44303.5 0 -2.12785e+06 47306.9 0 -2.13054e+06 50320 0 -2.13339e+06 53343.6 0 -2.13641e+06 56378.2 0 -2.13959e+06 59424.6 0 -2.14295e+06 62483.4 0 -2.14647e+06 65555.3 0 -2.15016e+06 68641 0 -2.15402e+06 71741.1 0 -2.15805e+06 74856.5 0 -2.16226e+06 77987.8 0 -2.16663e+06 81135.7 0 -2.17118e+06 84301 0 -2.1759e+06 87484.5 0 -2.1808e+06 90686.9 0 -2.18588e+06 93908.9 0 -2.19113e+06 97151.4 0 -2.19656e+06 100415 0 -2.20217e+06 103701 0 -2.20796e+06 107010 0 -2.21393e+06 110343 0 -2.22008e+06 113700 0 -2.22642e+06 117082 0 -2.23295e+06 120491 0 -2.23966e+06 123928 0 -2.24656e+06 127392 0 -2.25365e+06 130885 0 -2.26094e+06 134409 0 -2.26842e+06 137963 0 -2.27609e+06 141550 0 -2.28396e+06 145169 0 -2.29203e+06 148822 0 -2.3003e+06 152510 0 -2.30877e+06 156233 0 -2.31745e+06 159994 0 -2.32634e+06 163792 0 -2.33543e+06 167629 0 -2.34474e+06 171506 0 -2.35426e+06 175424 0 -2.364e+06 179384 0 -2.37395e+06 183387 0 -2.38413e+06 187433 0 -2.39453e+06 191524 0 -2.40516e+06 195661 0 -2.41602e+06 199845 0 -2.42711e+06 204076 0 -2.43844e+06 208356 0 -2.45001e+06 212684 0 -2.46182e+06 217063 0 -2.47387e+06 221493 0 -2.48618e+06 225973 0 -2.49874e+06 230506 0 -2.51155e+06 235091 0 -2.52463e+06 239728 0 -2.53797e+06 244418 0 -2.55158e+06 249161 0 -2.56547e+06 253957 0 -2.57963e+06 258804 0 -2.59408e+06 263704 0 -2.60882e+06 268654 0 -2.62385e+06 273654 0 -2.63917e+06 278702 0 -2.65481e+06 283797 0 -2.67075e+06 288936 0 -2.68701e+06 294117 0 -2.70359e+06 299337 0 -2.7205e+06 304592 0 -2.73775e+06 309877 0 -2.75534e+06 315187 0 -2.77328e+06 320517 0 -2.79158e+06 325860 0 -2.81024e+06 331208 0 -2.82928e+06 336552 0 -2.8487e+06 341882 0 -2.8685e+06 347187 0 -2.88871e+06 352453 0 -2.90933e+06 357666 0 -2.93036e+06 362810 0 -2.95182e+06 367864 0 -2.97372e+06 372809 0 -2.99606e+06 377621 0 -3.01886e+06 382273 0 -3.04212e+06 386734 0 -3.06585e+06 390974 0 -3.09007e+06 394953 0 -3.11477e+06 398630 0 -3.13996e+06 401961 0 -3.16565e+06 404893 0 -3.19184e+06 407370 0 -3.21852e+06 409331 0 -3.2457e+06 410705 0 -3.27336e+06 411418 0 -3.30149e+06 411387 0 -3.33006e+06 410522 0 -3.35906e+06 408725 0 -3.38843e+06 405893 0 -3.41813e+06 401913 0 -3.4481e+06 396667 0 -3.47824e+06 390031 0 -3.50847e+06 381878 0 -3.53866e+06 372079 0 -3.56866e+06 360508 0 -3.59831e+06 347042 0 -3.62741e+06 331572 0 -3.65573e+06 314003 0 -3.68302e+06 294265 0 -3.70899e+06 272318 0 -3.73336e+06 248162 0 -3.75579e+06 221843 0 -3.77597e+06 193457 0 -3.79358e+06 163170 0 -3.80832e+06 131153 0 -2.10686e+06 0 0 -2.10694e+06 2922.61 0 -2.10718e+06 5845.8 0 -2.10758e+06 8770.15 0 -2.10813e+06 11696.2 0 -2.10885e+06 14624.7 0 -2.10973e+06 17556 0 -2.11076e+06 20490.9 0 -2.11195e+06 23429.8 0 -2.11331e+06 26373.5 0 -2.11482e+06 29322.4 0 -2.1165e+06 32277.2 0 -2.11833e+06 35238.5 0 -2.12033e+06 38206.8 0 -2.12249e+06 41182.9 0 -2.12481e+06 44167.4 0 -2.12729e+06 47160.8 0 -2.12994e+06 50163.7 0 -2.13275e+06 53176.9 0 -2.13572e+06 56201 0 -2.13886e+06 59236.6 0 -2.14216e+06 62284.4 0 -2.14563e+06 65345 0 -2.14926e+06 68419.2 0 -2.15306e+06 71507.5 0 -2.15703e+06 74610.8 0 -2.16117e+06 77729.7 0 -2.16548e+06 80864.9 0 -2.16996e+06 84017.2 0 -2.1746e+06 87187.3 0 -2.17943e+06 90375.9 0 -2.18442e+06 93583.9 0 -2.18959e+06 96811.9 0 -2.19493e+06 100061 0 -2.20046e+06 103331 0 -2.20615e+06 106624 0 -2.21203e+06 109941 0 -2.21809e+06 113281 0 -2.22433e+06 116646 0 -2.23075e+06 120037 0 -2.23735e+06 123455 0 -2.24414e+06 126901 0 -2.25112e+06 130375 0 -2.25829e+06 133878 0 -2.26565e+06 137412 0 -2.2732e+06 140977 0 -2.28094e+06 144574 0 -2.28888e+06 148204 0 -2.29701e+06 151869 0 -2.30534e+06 155568 0 -2.31388e+06 159304 0 -2.32262e+06 163077 0 -2.33156e+06 166887 0 -2.34071e+06 170737 0 -2.35007e+06 174627 0 -2.35965e+06 178558 0 -2.36944e+06 182531 0 -2.37944e+06 186547 0 -2.38967e+06 190606 0 -2.40011e+06 194711 0 -2.41078e+06 198862 0 -2.42169e+06 203059 0 -2.43282e+06 207304 0 -2.44418e+06 211597 0 -2.45579e+06 215939 0 -2.46763e+06 220332 0 -2.47972e+06 224775 0 -2.49205e+06 229268 0 -2.50464e+06 233814 0 -2.51748e+06 238411 0 -2.53058e+06 243061 0 -2.54395e+06 247763 0 -2.55758e+06 252517 0 -2.57148e+06 257323 0 -2.58566e+06 262181 0 -2.60013e+06 267090 0 -2.61488e+06 272049 0 -2.62992e+06 277057 0 -2.64525e+06 282112 0 -2.66089e+06 287213 0 -2.67684e+06 292357 0 -2.6931e+06 297542 0 -2.70969e+06 302763 0 -2.7266e+06 308018 0 -2.74384e+06 313302 0 -2.76142e+06 318609 0 -2.77936e+06 323934 0 -2.79764e+06 329270 0 -2.8163e+06 334608 0 -2.83532e+06 339940 0 -2.85472e+06 345255 0 -2.87451e+06 350542 0 -2.8947e+06 355787 0 -2.9153e+06 360976 0 -2.93631e+06 366091 0 -2.95774e+06 371114 0 -2.97961e+06 376023 0 -3.00193e+06 380794 0 -3.02469e+06 385400 0 -3.04792e+06 389812 0 -3.07162e+06 393996 0 -3.0958e+06 397915 0 -3.12046e+06 401526 0 -3.14561e+06 404784 0 -3.17126e+06 407638 0 -3.1974e+06 410030 0 -3.22404e+06 411898 0 -3.25116e+06 413174 0 -3.27877e+06 413781 0 -3.30684e+06 413637 0 -3.33536e+06 412652 0 -3.36429e+06 410729 0 -3.39359e+06 407763 0 -3.42322e+06 403642 0 -3.4531e+06 398249 0 -3.48316e+06 391462 0 -3.5133e+06 383152 0 -3.54338e+06 373193 0 -3.57328e+06 361459 0 -3.60282e+06 347830 0 -3.6318e+06 332197 0 -3.65999e+06 314469 0 -3.68715e+06 294576 0 -3.71298e+06 272482 0 -3.73721e+06 248189 0 -3.7595e+06 221741 0 -3.77954e+06 193249 0 -3.79702e+06 162820 0 -2.10662e+06 0 0 -2.1067e+06 2913.73 0 -2.10693e+06 5828.04 0 -2.10732e+06 8743.48 0 -2.10787e+06 11660.6 0 -2.10858e+06 14580.1 0 -2.10944e+06 17502.4 0 -2.11046e+06 20428.2 0 -2.11163e+06 23357.9 0 -2.11297e+06 26292.3 0 -2.11446e+06 29231.9 0 -2.11611e+06 32177.2 0 -2.11791e+06 35128.9 0 -2.11988e+06 38087.6 0 -2.12201e+06 41053.8 0 -2.12429e+06 44028.2 0 -2.12673e+06 47011.4 0 -2.12934e+06 50004.1 0 -2.1321e+06 53006.7 0 -2.13503e+06 56020 0 -2.13812e+06 59044.7 0 -2.14137e+06 62081.2 0 -2.14479e+06 65130.4 0 -2.14836e+06 68192.9 0 -2.15211e+06 71269.3 0 -2.15601e+06 74360.3 0 -2.16009e+06 77466.6 0 -2.16433e+06 80589 0 -2.16874e+06 83728.1 0 -2.17331e+06 86884.6 0 -2.17806e+06 90059.4 0 -2.18297e+06 93253 0 -2.18806e+06 96466.3 0 -2.19332e+06 99700.1 0 -2.19876e+06 102955 0 -2.20436e+06 106232 0 -2.21015e+06 109532 0 -2.21611e+06 112855 0 -2.22225e+06 116203 0 -2.22856e+06 119577 0 -2.23506e+06 122976 0 -2.24175e+06 126403 0 -2.24861e+06 129857 0 -2.25566e+06 133340 0 -2.2629e+06 136853 0 -2.27032e+06 140397 0 -2.27794e+06 143972 0 -2.28575e+06 147579 0 -2.29375e+06 151220 0 -2.30194e+06 154895 0 -2.31034e+06 158606 0 -2.31893e+06 162353 0 -2.32772e+06 166137 0 -2.33672e+06 169960 0 -2.34593e+06 173822 0 -2.35534e+06 177724 0 -2.36496e+06 181667 0 -2.37479e+06 185652 0 -2.38484e+06 189681 0 -2.39511e+06 193753 0 -2.4056e+06 197871 0 -2.41631e+06 202034 0 -2.42725e+06 206244 0 -2.43841e+06 210502 0 -2.44981e+06 214808 0 -2.46145e+06 219163 0 -2.47332e+06 223567 0 -2.48543e+06 228023 0 -2.4978e+06 232529 0 -2.51041e+06 237086 0 -2.52327e+06 241695 0 -2.53639e+06 246356 0 -2.54977e+06 251068 0 -2.56342e+06 255833 0 -2.57734e+06 260649 0 -2.59153e+06 265516 0 -2.606e+06 270433 0 -2.62076e+06 275399 0 -2.6358e+06 280414 0 -2.65114e+06 285475 0 -2.66679e+06 290580 0 -2.68273e+06 295728 0 -2.69899e+06 300914 0 -2.71557e+06 306136 0 -2.73247e+06 311390 0 -2.74971e+06 316672 0 -2.76728e+06 321975 0 -2.7852e+06 327293 0 -2.80347e+06 332621 0 -2.82211e+06 337948 0 -2.84111e+06 343267 0 -2.86049e+06 348567 0 -2.88026e+06 353835 0 -2.90043e+06 359059 0 -2.92099e+06 364223 0 -2.94197e+06 369310 0 -2.96338e+06 374301 0 -2.98522e+06 379174 0 -3.00749e+06 383906 0 -3.03022e+06 388468 0 -3.05341e+06 392832 0 -3.07707e+06 396963 0 -3.1012e+06 400824 0 -3.12582e+06 404372 0 -3.15092e+06 407562 0 -3.17651e+06 410342 0 -3.2026e+06 412655 0 -3.22918e+06 414438 0 -3.25625e+06 415623 0 -3.2838e+06 416133 0 -3.3118e+06 415887 0 -3.34025e+06 414794 0 -3.36911e+06 412757 0 -3.39834e+06 409673 0 -3.42789e+06 405429 0 -3.45769e+06 399909 0 -3.48766e+06 392990 0 -3.5177e+06 384546 0 -3.54769e+06 374452 0 -3.57749e+06 362583 0 -3.60692e+06 348819 0 -3.63579e+06 333055 0 -3.66387e+06 315199 0 -3.69091e+06 295185 0 -3.71663e+06 272978 0 -3.74074e+06 248577 0 -3.76292e+06 222043 0 -3.78286e+06 193424 0 -2.10637e+06 0 0 -2.10645e+06 2904.66 0 -2.10668e+06 5809.87 0 -2.10707e+06 8716.21 0 -2.10761e+06 11624.2 0 -2.1083e+06 14534.5 0 -2.10915e+06 17447.6 0 -2.11015e+06 20364 0 -2.11131e+06 23284.4 0 -2.11262e+06 26209.3 0 -2.11409e+06 29139.3 0 -2.11572e+06 32075 0 -2.1175e+06 35016.9 0 -2.11943e+06 37965.7 0 -2.12152e+06 40921.9 0 -2.12377e+06 43886.1 0 -2.12618e+06 46859 0 -2.12874e+06 49841 0 -2.13147e+06 52832.9 0 -2.13435e+06 55835.3 0 -2.13739e+06 58848.8 0 -2.14059e+06 61874 0 -2.14395e+06 64911.5 0 -2.14747e+06 67962.1 0 -2.15116e+06 71026.4 0 -2.155e+06 74105 0 -2.15901e+06 77198.6 0 -2.16319e+06 80307.9 0 -2.16752e+06 83433.7 0 -2.17203e+06 86576.5 0 -2.1767e+06 89737.2 0 -2.18154e+06 92916.4 0 -2.18654e+06 96114.9 0 -2.19172e+06 99333.4 0 -2.19707e+06 102573 0 -2.20258e+06 105834 0 -2.20828e+06 109117 0 -2.21414e+06 112423 0 -2.22018e+06 115754 0 -2.2264e+06 119109 0 -2.23279e+06 122490 0 -2.23936e+06 125897 0 -2.24612e+06 129332 0 -2.25305e+06 132795 0 -2.26017e+06 136287 0 -2.26747e+06 139809 0 -2.27496e+06 143362 0 -2.28264e+06 146946 0 -2.29051e+06 150564 0 -2.29857e+06 154215 0 -2.30682e+06 157901 0 -2.31527e+06 161622 0 -2.32392e+06 165380 0 -2.33277e+06 169175 0 -2.34181e+06 173009 0 -2.35106e+06 176882 0 -2.36052e+06 180795 0 -2.37019e+06 184750 0 -2.38006e+06 188747 0 -2.39015e+06 192788 0 -2.40046e+06 196872 0 -2.41098e+06 201001 0 -2.42173e+06 205177 0 -2.4327e+06 209399 0 -2.4439e+06 213668 0 -2.45532e+06 217986 0 -2.46699e+06 222352 0 -2.47888e+06 226769 0 -2.49102e+06 231235 0 -2.5034e+06 235752 0 -2.51603e+06 240320 0 -2.52891e+06 244939 0 -2.54205e+06 249610 0 -2.55544e+06 254332 0 -2.5691e+06 259106 0 -2.58303e+06 263930 0 -2.59723e+06 268805 0 -2.6117e+06 273729 0 -2.62646e+06 278702 0 -2.64151e+06 283722 0 -2.65685e+06 288787 0 -2.67248e+06 293896 0 -2.68842e+06 299045 0 -2.70467e+06 304233 0 -2.72124e+06 309454 0 -2.73813e+06 314706 0 -2.75535e+06 319984 0 -2.77291e+06 325282 0 -2.79081e+06 330593 0 -2.80906e+06 335911 0 -2.82767e+06 341227 0 -2.84665e+06 346532 0 -2.866e+06 351815 0 -2.88574e+06 357064 0 -2.90587e+06 362266 0 -2.92641e+06 367406 0 -2.94735e+06 372465 0 -2.96872e+06 377425 0 -2.99052e+06 382263 0 -3.01275e+06 386956 0 -3.03544e+06 391477 0 -3.05858e+06 395794 0 -3.08218e+06 399875 0 -3.10627e+06 403681 0 -3.13083e+06 407170 0 -3.15588e+06 410296 0 -3.18141e+06 413008 0 -3.20744e+06 415248 0 -3.23396e+06 416954 0 -3.26096e+06 418056 0 -3.28844e+06 418480 0 -3.31637e+06 418142 0 -3.34475e+06 416953 0 -3.37353e+06 414817 0 -3.40268e+06 411630 0 -3.43214e+06 407280 0 -3.46185e+06 401651 0 -3.49174e+06 394623 0 -3.52168e+06 386070 0 -3.55158e+06 375866 0 -3.58128e+06 363889 0 -3.61061e+06 350020 0 -3.63937e+06 334156 0 -3.66735e+06 316205 0 -3.69429e+06 296104 0 -3.71992e+06 273814 0 -3.74394e+06 249351 0 -3.76605e+06 222712 0 -2.10613e+06 0 0 -2.10621e+06 2895.38 0 -2.10643e+06 5791.3 0 -2.10681e+06 8688.33 0 -2.10734e+06 11587 0 -2.10803e+06 14487.9 0 -2.10886e+06 17391.5 0 -2.10985e+06 20298.5 0 -2.11099e+06 23209.3 0 -2.11228e+06 26124.6 0 -2.11373e+06 29044.8 0 -2.11533e+06 31970.6 0 -2.11708e+06 34902.6 0 -2.11898e+06 37841.2 0 -2.12104e+06 40787.2 0 -2.12326e+06 43741 0 -2.12563e+06 46703.3 0 -2.12815e+06 49674.6 0 -2.13083e+06 52655.6 0 -2.13367e+06 55646.9 0 -2.13666e+06 58649 0 -2.13981e+06 61662.6 0 -2.14312e+06 64688.4 0 -2.14658e+06 67726.9 0 -2.15021e+06 70778.9 0 -2.154e+06 73844.9 0 -2.15794e+06 76925.6 0 -2.16205e+06 80021.7 0 -2.16632e+06 83133.9 0 -2.17075e+06 86262.9 0 -2.17535e+06 89409.3 0 -2.18011e+06 92574 0 -2.18503e+06 95757.5 0 -2.19013e+06 98960.7 0 -2.19539e+06 102184 0 -2.20082e+06 105429 0 -2.20642e+06 108696 0 -2.21219e+06 111985 0 -2.21813e+06 115298 0 -2.22424e+06 118635 0 -2.23053e+06 121997 0 -2.237e+06 125385 0 -2.24364e+06 128800 0 -2.25046e+06 132242 0 -2.25746e+06 135713 0 -2.26465e+06 139214 0 -2.27201e+06 142744 0 -2.27956e+06 146306 0 -2.2873e+06 149900 0 -2.29523e+06 153527 0 -2.30334e+06 157188 0 -2.31165e+06 160883 0 -2.32015e+06 164614 0 -2.32884e+06 168382 0 -2.33774e+06 172188 0 -2.34683e+06 176032 0 -2.35612e+06 179916 0 -2.36562e+06 183840 0 -2.37533e+06 187806 0 -2.38524e+06 191814 0 -2.39537e+06 195866 0 -2.40571e+06 199961 0 -2.41627e+06 204101 0 -2.42704e+06 208288 0 -2.43804e+06 212521 0 -2.44926e+06 216801 0 -2.46071e+06 221129 0 -2.4724e+06 225507 0 -2.48432e+06 229933 0 -2.49647e+06 234410 0 -2.50887e+06 238937 0 -2.52151e+06 243515 0 -2.53441e+06 248143 0 -2.54755e+06 252823 0 -2.56095e+06 257553 0 -2.57462e+06 262335 0 -2.58855e+06 267166 0 -2.60275e+06 272047 0 -2.61722e+06 276977 0 -2.63198e+06 281955 0 -2.64702e+06 286979 0 -2.66235e+06 292048 0 -2.67798e+06 297158 0 -2.69391e+06 302309 0 -2.71014e+06 307496 0 -2.7267e+06 312716 0 -2.74357e+06 317965 0 -2.76077e+06 323237 0 -2.7783e+06 328529 0 -2.79618e+06 333832 0 -2.8144e+06 339139 0 -2.83298e+06 344443 0 -2.85193e+06 349733 0 -2.87125e+06 355000 0 -2.89095e+06 360230 0 -2.91105e+06 365410 0 -2.93154e+06 370524 0 -2.95244e+06 375556 0 -2.97376e+06 380485 0 -2.99551e+06 385290 0 -3.0177e+06 389946 0 -3.04033e+06 394426 0 -3.06342e+06 398700 0 -3.08697e+06 402733 0 -3.11099e+06 406487 0 -3.13549e+06 409922 0 -3.16048e+06 412989 0 -3.18595e+06 415638 0 -3.21191e+06 417812 0 -3.23836e+06 419447 0 -3.26528e+06 420476 0 -3.29269e+06 420823 0 -3.32054e+06 420405 0 -3.34884e+06 419134 0 -3.37753e+06 416913 0 -3.4066e+06 413639 0 -3.43597e+06 409202 0 -3.46559e+06 403485 0 -3.49538e+06 396370 0 -3.52524e+06 387730 0 -3.55504e+06 377443 0 -3.58464e+06 365386 0 -3.61388e+06 351443 0 -3.64255e+06 335510 0 -3.67045e+06 317498 0 -3.69731e+06 297341 0 -3.72286e+06 275014 0 -3.74682e+06 250471 0 -2.10588e+06 0 0 -2.10596e+06 2885.89 0 -2.10618e+06 5772.33 0 -2.10656e+06 8659.84 0 -2.10708e+06 11549 0 -2.10775e+06 14440.3 0 -2.10857e+06 17334.3 0 -2.10955e+06 20231.5 0 -2.11067e+06 23132.6 0 -2.11194e+06 26038 0 -2.11336e+06 28948.3 0 -2.11494e+06 31864.1 0 -2.11666e+06 34785.8 0 -2.11854e+06 37714.2 0 -2.12056e+06 40649.7 0 -2.12274e+06 43592.9 0 -2.12507e+06 46544.4 0 -2.12756e+06 49504.9 0 -2.1302e+06 52474.7 0 -2.13299e+06 55454.7 0 -2.13593e+06 58445.3 0 -2.13903e+06 61447.2 0 -2.14229e+06 64461 0 -2.1457e+06 67487.3 0 -2.14927e+06 70526.7 0 -2.15299e+06 73579.9 0 -2.15688e+06 76647.6 0 -2.16092e+06 79730.4 0 -2.16512e+06 82828.9 0 -2.16948e+06 85943.8 0 -2.174e+06 89075.9 0 -2.17869e+06 92225.8 0 -2.18354e+06 95394.2 0 -2.18855e+06 98581.9 0 -2.19372e+06 101790 0 -2.19906e+06 105018 0 -2.20457e+06 108268 0 -2.21025e+06 111540 0 -2.21609e+06 114835 0 -2.22211e+06 118154 0 -2.22829e+06 121497 0 -2.23465e+06 124866 0 -2.24119e+06 128261 0 -2.24789e+06 131683 0 -2.25478e+06 135133 0 -2.26184e+06 138611 0 -2.26909e+06 142120 0 -2.27651e+06 145659 0 -2.28412e+06 149229 0 -2.29191e+06 152831 0 -2.29989e+06 156467 0 -2.30805e+06 160137 0 -2.31641e+06 163841 0 -2.32495e+06 167582 0 -2.33369e+06 171360 0 -2.34263e+06 175175 0 -2.35177e+06 179029 0 -2.3611e+06 182923 0 -2.37064e+06 186857 0 -2.38038e+06 190833 0 -2.39033e+06 194851 0 -2.40048e+06 198913 0 -2.41085e+06 203018 0 -2.42144e+06 207169 0 -2.43224e+06 211365 0 -2.44326e+06 215608 0 -2.45451e+06 219899 0 -2.46598e+06 224237 0 -2.47768e+06 228624 0 -2.48961e+06 233060 0 -2.50178e+06 237546 0 -2.51419e+06 242082 0 -2.52684e+06 246668 0 -2.53974e+06 251304 0 -2.55289e+06 255992 0 -2.5663e+06 260729 0 -2.57996e+06 265517 0 -2.59389e+06 270355 0 -2.60809e+06 275241 0 -2.62256e+06 280176 0 -2.63731e+06 285157 0 -2.65234e+06 290184 0 -2.66765e+06 295255 0 -2.68327e+06 300366 0 -2.69918e+06 305516 0 -2.7154e+06 310702 0 -2.73193e+06 315919 0 -2.74878e+06 321163 0 -2.76595e+06 326430 0 -2.78345e+06 331714 0 -2.8013e+06 337008 0 -2.81949e+06 342304 0 -2.83804e+06 347595 0 -2.85695e+06 352870 0 -2.87623e+06 358120 0 -2.89589e+06 363330 0 -2.91593e+06 368488 0 -2.93638e+06 373578 0 -2.95723e+06 378583 0 -2.9785e+06 383482 0 -3.0002e+06 388254 0 -3.02233e+06 392875 0 -3.0449e+06 397317 0 -3.06793e+06 401549 0 -3.09141e+06 405537 0 -3.11537e+06 409244 0 -3.1398e+06 412628 0 -3.16472e+06 415642 0 -3.19011e+06 418234 0 -3.216e+06 420348 0 -3.24237e+06 421922 0 -3.26921e+06 422887 0 -3.29653e+06 423167 0 -3.32431e+06 422682 0 -3.35251e+06 421341 0 -3.38112e+06 419050 0 -3.41009e+06 415707 0 -3.43937e+06 411200 0 -3.4689e+06 405416 0 -3.4986e+06 398236 0 -3.52836e+06 389535 0 -3.55806e+06 379191 0 -3.58758e+06 367084 0 -3.61673e+06 353096 0 -3.64532e+06 337127 0 -3.67314e+06 319084 0 -3.69994e+06 298915 0 -3.72545e+06 276538 0 -2.10564e+06 0 0 -2.10571e+06 2876.21 0 -2.10593e+06 5752.95 0 -2.1063e+06 8630.75 0 -2.10681e+06 11510.1 0 -2.10747e+06 14391.7 0 -2.10828e+06 17275.8 0 -2.10924e+06 20163.2 0 -2.11034e+06 23054.3 0 -2.1116e+06 25949.6 0 -2.113e+06 28849.8 0 -2.11455e+06 31755.3 0 -2.11624e+06 34666.7 0 -2.11809e+06 37584.5 0 -2.12008e+06 40509.4 0 -2.12223e+06 43441.9 0 -2.12452e+06 46382.4 0 -2.12697e+06 49331.7 0 -2.12956e+06 52290.3 0 -2.13231e+06 55258.8 0 -2.13521e+06 58237.7 0 -2.13826e+06 61227.6 0 -2.14146e+06 64229.2 0 -2.14482e+06 67243.1 0 -2.14833e+06 70269.9 0 -2.152e+06 73310.2 0 -2.15582e+06 76364.6 0 -2.1598e+06 79433.9 0 -2.16393e+06 82518.5 0 -2.16822e+06 85619.3 0 -2.17267e+06 88736.9 0 -2.17728e+06 91871.9 0 -2.18205e+06 95025 0 -2.18698e+06 98197 0 -2.19207e+06 101389 0 -2.19732e+06 104600 0 -2.20274e+06 107833 0 -2.20832e+06 111088 0 -2.21407e+06 114365 0 -2.21999e+06 117666 0 -2.22607e+06 120990 0 -2.23232e+06 124339 0 -2.23875e+06 127714 0 -2.24535e+06 131116 0 -2.25212e+06 134545 0 -2.25906e+06 138002 0 -2.26618e+06 141488 0 -2.27348e+06 145003 0 -2.28096e+06 148550 0 -2.28862e+06 152128 0 -2.29646e+06 155739 0 -2.30449e+06 159383 0 -2.3127e+06 163061 0 -2.3211e+06 166774 0 -2.32969e+06 170524 0 -2.33847e+06 174310 0 -2.34745e+06 178135 0 -2.35662e+06 181998 0 -2.36599e+06 185901 0 -2.37556e+06 189844 0 -2.38533e+06 193829 0 -2.39531e+06 197857 0 -2.40549e+06 201928 0 -2.41589e+06 206043 0 -2.42649e+06 210203 0 -2.43732e+06 214408 0 -2.44836e+06 218660 0 -2.45962e+06 222960 0 -2.47111e+06 2273