<?xml version="1.0"?> 
<VTKFile type="StructuredGrid" version="0.1"> 
<StructuredGrid WholeExtent="0 127 0 127 0 0"> 
<Piece Extent="0 127 0 127 0 0"> 
<PointData>
<DataArray type="Float32" Name="|E|" format="ascii" NumberOfComponents="3"> 
2.6226e-06 0.000137329 0 -2.58733e-07 501.328 0 2.16802e-07 796.406 0 -9.33505e-08 917.412 0 6.24859e-08 945.016 0 -1.04774e-09 925.944 0 -4.58676e-08 884.604 0 -7.10133e-08 832.778 0 1.30502e-07 777.045 0 -5.82077e-09 720.773 0 2.56114e-08 665.957 0 -4.28408e-08 613.611 0 5.54137e-08 564.3 0 -3.53903e-08 518.253 0 -7.63685e-08 475.529 0 8.05594e-08 436.067 0 1.72295e-08 399.742 0 9.96515e-08 366.391 0 -2.87779e-07 335.828 0 2.98955e-07 307.861 0 -1.6205e-07 282.298 0 5.02914e-08 258.948 0 6.61239e-08 237.633 0 -6.51926e-09 218.181 0 -7.54371e-08 200.432 0 9.31323e-10 184.238 0 -2.04891e-08 169.46 0 8.00937e-08 155.971 0 -6.33299e-08 143.655 0 9.87202e-08 132.406 0 -3.33413e-07 122.125 0 2.32831e-07 112.725 0 1.86265e-09 104.125 0 -8.19564e-08 96.2515 0 3.72529e-09 89.0382 0 2.10479e-07 82.4251 0 -1.04308e-07 76.3576 0 -7.07805e-08 70.7865 0 1.93715e-07 65.6671 0 -4.84288e-08 60.959 0 -5.96046e-08 56.6258 0 1.71363e-07 52.6343 0 -1.00583e-07 48.9546 0 -1.15484e-07 45.5596 0 -8.56817e-08 42.4248 0 2.27243e-07 39.528 0 -1.49012e-07 36.8491 0 -1.08033e-07 34.3697 0 1.71363e-07 32.0732 0 -4.84288e-08 29.9447 0 -1.22935e-07 27.9704 0 -2.98023e-08 26.1379 0 2.6077e-07 24.4358 0 -2.01166e-07 22.8538 0 8.9407e-08 21.3825 0 2.98023e-08 20.0134 0 1.11759e-07 18.7385 0 -2.75671e-07 17.5507 0 3.72529e-07 16.4435 0 -8.9407e-08 15.4108 0 -8.19564e-08 14.447 0 -1.41561e-07 13.5473 0 5.06639e-07 12.7069 0 -6.25849e-07 11.9215 0 4.02331e-07 11.1872 0 -3.35276e-07 10.5005 0 3.72529e-07 9.85793 0 -3.7998e-07 9.25647 0 4.24683e-07 8.6933 0 -4.02331e-07 8.16576 0 3.35276e-07 7.67146 0 -3.94881e-07 7.20814 0 3.27826e-07 6.77373 0 -4.32134e-07 6.3663 0 4.47035e-07 5.98407 0 -3.72529e-07 5.62538 0 4.32134e-07 5.2887 0 -3.72529e-07 4.97258 0 3.42727e-07 4.67572 0 -3.27826e-07 4.39682 0 4.61936e-07 4.13481 0 -3.42727e-07 3.88855 0 3.72529e-07 3.65706 0 -3.42727e-07 3.43941 0 3.27826e-07 3.23472 0 -3.72529e-07 3.04218 0 4.02331e-07 2.86102 0 -3.42727e-07 2.69053 0 2.68221e-07 2.53005 0 -3.57628e-07 2.37895 0 3.57628e-07 2.23664 0 -3.72529e-07 2.10258 0 2.68221e-07 1.97626 0 -2.98023e-07 1.8572 0 3.42727e-07 1.74493 0 -3.42727e-07 1.63904 0 2.38419e-07 1.53913 0 -3.72529e-07 1.44482 0 3.8743e-07 1.35577 0 -1.93715e-07 1.27163 0 2.08616e-07 1.19211 0 -2.98023e-07 1.1169 0 2.68221e-07 1.04572 0 -2.98023e-07 0.978316 0 2.98023e-07 0.914438 0 -2.08616e-07 0.853854 0 2.08616e-07 0.796339 0 -1.78814e-07 0.741687 0 2.08616e-07 0.689695 0 -1.78814e-07 0.640185 0 1.78814e-07 0.59296 0 -1.19209e-07 0.54787 0 1.19209e-07 0.504731 0 -1.78814e-07 0.463395 0 1.49012e-07 0.423721 0 -1.49012e-07 0.385559 0 1.49012e-07 0.348772 0 -8.9407e-08 0.313243 0 8.9407e-08 0.278806 0 -1.19209e-07 0.245383 0 8.9407e-08 0.212833 0 -1.19209e-07 0.181047 0 1.19209e-07 0.149888 0 -8.9407e-08 0.119277 0 8.9407e-08 0.0890911 0 -2.98023e-08 0.0592183 0 3.57628e-07 0.0295584 0 -2.38419e-06 -5.72205e-06 0 9.28753 -3.00677e-06 0 7.57973 498.412 0 3.99778 793.648 0 1.45188 916.044 0 0.00350218 945.039 0 -0.831398 927.132 0 -1.31665 886.672 0 -1.60477 835.534 0 -1.76879 780.3 0 -1.85502 724.401 0 -1.88809 669.837 0 -1.88547 617.66 0 -1.85764 568.441 0 -1.81246 522.43 0 -1.75517 479.693 0 -1.68981 440.182 0 -1.61923 403.779 0 -1.54568 370.326 0 -1.47079 339.645 0 -1.39585 311.547 0 -1.3218 285.844 0 -1.24935 262.349 0 -1.17905 240.886 0 -1.11125 221.285 0 -1.04623 203.389 0 -0.984153 187.049 0 -0.925101 172.128 0 -0.86911 158.502 0 -0.816165 146.053 0 -0.766214 134.675 0 -0.719183 124.272 0 -0.67497 114.754 0 -0.633467 106.042 0 -0.59455 98.0626 0 -0.558093 90.7487 0 -0.523966 84.0403 0 -0.492039 77.8828 0 -0.462183 72.2267 0 -0.434272 67.0271 0 -0.408184 62.2434 0 -0.383803 57.8389 0 -0.361015 53.7803 0 -0.339714 50.0375 0 -0.319802 46.5831 0 -0.301181 43.3924 0 -0.283764 40.443 0 -0.267465 37.7145 0 -0.252212 35.1884 0 -0.237924 32.8481 0 -0.224541 30.6783 0 -0.211995 28.665 0 -0.20023 26.7958 0 -0.18919 25.0592 0 -0.178828 23.4446 0 -0.169094 21.9427 0 -0.159947 20.5445 0 -0.151346 19.2423 0 -0.143255 18.0287 0 -0.135638 16.897 0 -0.128465 15.8412 0 -0.121706 14.8557 0 -0.115335 13.9353 0 -0.109325 13.0754 0 -0.103656 12.2716 0 -0.0983013 11.5198 0 -0.0932464 10.8165 0 -0.0884683 10.1583 0 -0.0839533 9.54199 0 -0.0796819 8.96471 0 -0.0756432 8.42382 0 -0.0718199 7.91684 0 -0.068201 7.4415 0 -0.064774 6.99568 0 -0.0615286 6.57742 0 -0.058453 6.1849 0 -0.0555381 5.81645 0 -0.0527751 5.47049 0 -0.0501557 5.14556 0 -0.0476705 4.8403 0 -0.0453152 4.55348 0 -0.0430789 4.28389 0 -0.0409583 4.03045 0 -0.038946 3.79213 0 -0.0370359 3.56799 0 -0.0352238 3.35713 0 -0.0335035 3.15873 0 -0.0318707 2.972 0 -0.0303214 2.79621 0 -0.0288508 2.6307 0 -0.0274549 2.47481 0 -0.0261311 2.32796 0 -0.0248744 2.18959 0 -0.0236826 2.05917 0 -0.0225517 1.93621 0 -0.0214797 1.82025 0 -0.020464 1.71086 0 -0.0195004 1.60763 0 -0.0185881 1.51017 0 -0.0177239 1.41813 0 -0.0169064 1.33117 0 -0.0161334 1.24896 0 -0.0154021 1.17122 0 -0.014712 1.09765 0 -0.0140608 1.02799 0 -0.0134464 0.961988 0 -0.0128683 0.899401 0 -0.012325 0.840004 0 -0.0118146 0.783585 0 -0.0113363 0.72994 0 -0.0108892 0.678877 0 -0.0104722 0.630215 0 -0.0100841 0.583777 0 -0.00972422 0.539402 0 -0.00939253 0.496928 0 -0.0090867 0.456204 0 -0.00880766 0.417091 0 -0.00855455 0.379444 0 -0.00832582 0.343134 0 -0.00812321 0.308033 0 -0.00794528 0.274012 0 -0.00779061 0.240955 0 -0.00766071 0.208745 0 -0.00755559 0.17727 0 -0.00747465 0.146415 0 -0.00741715 0.116076 0 -0.00738506 0.0861453 0 -0.0073773 0.0565175 0 -0.00739638 0.0270852 0 18.5713 -6.3004e-06 0 15.2208 495.562 0 8.09847 790.928 0 2.9921 914.679 0 0.0702036 945.052 0 -1.62127 928.305 0 -2.60835 888.731 0 -3.19744 838.283 0 -3.53552 783.554 0 -3.71597 728.033 0 -3.78858 673.728 0 -3.78857 621.723 0 -3.73718 572.602 0 -3.65027 526.63 0 -3.53847 483.885 0 -3.4099 444.328 0 -3.27043 407.849 0 -3.12453 374.297 0 -2.9756 343.499 0 -2.82622 315.272 0 -2.67833 289.43 0 -2.53341 265.791 0 -2.39255 244.18 0 -2.25654 224.431 0 -2.12592 206.386 0 -2.00107 189.901 0 -1.88217 174.838 0 -1.76931 161.072 0 -1.66249 148.489 0 -1.56162 136.982 0 -1.46655 126.455 0 -1.3771 116.819 0 -1.29307 107.995 0 -1.21421 99.9078 0 -1.14028 92.4921 0 -1.07103 85.6874 0 -1.0062 79.4387 0 -0.94553 73.6964 0 -0.888781 68.4155 0 -0.83571 63.5551 0 -0.786081 59.0783 0 -0.739674 54.9516 0 -0.696274 51.1446 0 -0.655682 47.6298 0 -0.617707 44.3822 0 -0.582172 41.3792 0 -0.548907 38.6003 0 -0.517759 36.0268 0 -0.488579 33.6418 0 -0.46123 31.4298 0 -0.435589 29.3769 0 -0.411535 27.4703 0 -0.388957 25.6984 0 -0.367757 24.0506 0 -0.347838 22.5173 0 -0.329115 21.0896 0 -0.311505 19.7594 0 -0.294934 18.5194 0 -0.279332 17.3628 0 -0.264635 16.2834 0 -0.250784 15.2757 0 -0.237724 14.3342 0 -0.225402 13.4543 0 -0.213773 12.6316 0 -0.202792 11.862 0 -0.192417 11.1418 0 -0.182614 10.4675 0 -0.173344 9.83595 0 -0.164576 9.24425 0 -0.156279 8.68967 0 -0.148427 8.16971 0 -0.140991 7.68204 0 -0.133948 7.22452 0 -0.127275 6.79516 0 -0.120951 6.3921 0 -0.114956 6.01362 0 -0.109271 5.65814 0 -0.10388 5.32417 0 -0.0987654 5.01032 0 -0.0939128 4.71532 0 -0.0893087 4.43797 0 -0.0849379 4.17715 0 -0.0807902 3.93181 0 -0.0768522 3.701 0 -0.073114 3.4838 0 -0.0695647 3.27936 0 -0.0661942 3.08689 0 -0.0629949 2.90565 0 -0.0599569 2.73496 0 -0.0570727 2.57414 0 -0.0543346 2.42261 0 -0.0517352 2.27979 0 -0.0492685 2.14514 0 -0.0469272 2.01816 0 -0.0447055 1.89839 0 -0.0425993 1.78537 0 -0.0406012 1.6787 0 -0.0387073 1.57798 0 -0.0369128 1.48285 0 -0.0352123 1.39296 0 -0.0336037 1.30798 0 -0.0320815 1.22761 0 -0.0306423 1.15156 0 -0.0292831 1.07955 0 -0.028 1.01133 0 -0.0267902 0.946654 0 -0.0256511 0.88529 0 -0.0245801 0.827021 0 -0.0235746 0.771641 0 -0.0226319 0.718953 0 -0.0217507 0.668772 0 -0.0209288 0.620921 0 -0.0201641 0.575232 0 -0.0194555 0.531543 0 -0.0188013 0.489702 0 -0.0181993 0.449562 0 -0.0176499 0.410983 0 -0.0171516 0.373832 0 -0.0167025 0.337976 0 -0.0163039 0.303294 0 -0.0159543 0.269661 0 -0.0156518 0.236966 0 -0.015398 0.205089 0 -0.015193 0.173924 0 -0.0150357 0.143361 0 -0.0149261 0.113294 0 -0.0148662 0.0836205 0 -0.0148536 0.0542411 0 27.8532 -4.17233e-06 0 22.9236 492.778 0 12.3024 788.245 0 4.62195 913.319 0 0.201574 945.056 0 -2.36823 929.465 0 -3.87398 890.779 0 -4.77706 841.026 0 -5.29946 786.809 0 -5.58227 731.669 0 -5.70107 677.629 0 -5.70903 625.802 0 -5.63851 576.783 0 -5.51342 530.855 0 -5.35 488.105 0 -5.1605 448.505 0 -4.95388 411.953 0 -4.73695 378.304 0 -4.51489 347.392 0 -4.29163 319.036 0 -4.07018 293.056 0 -3.85281 269.274 0 -3.6412 247.516 0 -3.43659 227.618 0 -3.23984 209.426 0 -3.05154 192.794 0 -2.87202 177.588 0 -2.70145 163.683 0 -2.53983 150.965 0 -2.38706 139.328 0 -2.24295 128.676 0 -2.10725 118.921 0 -1.97965 109.983 0 -1.85981 101.788 0 -1.74739 94.2691 0 -1.642 87.3668 0 -1.54327 81.0258 0 -1.45082 75.1962 0 -1.36429 69.8328 0 -1.28332 64.8946 0 -1.20756 60.3445 0 -1.13668 56.1486 0 -1.07036 52.2764 0 -1.0083 48.7001 0 -0.950219 45.3947 0 -0.895844 42.3373 0 -0.844924 39.507 0 -0.797222 36.8852 0 -0.752522 34.4546 0 -0.71061 32.1997 0 -0.671301 30.1064 0 -0.634415 28.1617 0 -0.599782 26.3538 0 -0.567252 24.6721 0 -0.536682 23.1068 0 -0.507936 21.6488 0 -0.480894 20.2901 0 -0.45544 19.0232 0 -0.43147 17.8411 0 -0.408884 16.7377 0 -0.387593 15.7072 0 -0.367513 14.7442 0 -0.348564 13.8439 0 -0.330676 13.0019 0 -0.313781 12.214 0 -0.297816 11.4764 0 -0.282724 10.7857 0 -0.268453 10.1386 0 -0.25495 9.53211 0 -0.24217 8.96351 0 -0.230071 8.43025 0 -0.218612 7.92996 0 -0.207755 7.46046 0 -0.197466 7.01971 0 -0.187713 6.60583 0 -0.178465 6.21708 0 -0.169692 5.85183 0 -0.16137 5.50858 0 -0.153474 5.18591 0 -0.145979 4.88252 0 -0.138866 4.59719 0 -0.132112 4.32879 0 -0.1257 4.07624 0 -0.11961 3.83857 0 -0.113827 3.61484 0 -0.108335 3.4042 0 -0.103118 3.20583 0 -0.0981619 3.01898 0 -0.0934558 2.84294 0 -0.0889852 2.67705 0 -0.0847397 2.52069 0 -0.0807072 2.37328 0 -0.0768783 2.23427 0 -0.0732433 2.10315 0 -0.0697915 1.97943 0 -0.0665164 1.86268 0 -0.0634091 1.75245 0 -0.0604608 1.64836 0 -0.0576657 1.55003 0 -0.0550164 1.4571 0 -0.0525057 1.36924 0 -0.0501294 1.28615 0 -0.0478802 1.20751 0 -0.0457538 1.13307 0 -0.0437444 1.06254 0 -0.0418474 0.995684 0 -0.040059 0.932267 0 -0.0383741 0.872065 0 -0.03679 0.814869 0 -0.0353029 0.760477 0 -0.0339083 0.708699 0 -0.0326049 0.659357 0 -0.0313885 0.612278 0 -0.0302573 0.567301 0 -0.0292093 0.524268 0 -0.0282414 0.483032 0 -0.0273517 0.443449 0 -0.0265392 0.405385 0 -0.0258027 0.368707 0 -0.0251399 0.33329 0 -0.0245515 0.299013 0 -0.0240354 0.265758 0 -0.0235905 0.233411 0 -0.0232177 0.20186 0 -0.0229172 0.171 0 -0.0226875 0.140724 0 -0.0225295 0.110928 0 -0.0224457 0.0815082 0 37.1354 -4.22448e-06 0 30.6884 490.06 0 16.6101 785.603 0 6.34273 911.965 0 0.399099 945.052 0 -3.07085 930.612 0 -5.11236 892.818 0 -6.34264 843.762 0 -7.05986 790.063 0 -7.45333 735.308 0 -7.62514 681.54 0 -7.64659 629.894 0 -7.56149 580.983 0 -7.4019 535.103 0 -7.18985 492.352 0 -6.9418 452.713 0 -6.66989 416.09 0 -6.38332 382.347 0 -6.08912 351.322 0 -5.79264 322.84 0 -5.49797 296.724 0 -5.20822 272.799 0 -4.92571 250.894 0 -4.65216 230.848 0 -4.38878 212.508 0 -4.13639 195.729 0 -3.8955 180.38 0 -3.66636 166.335 0 -3.44904 153.481 0 -3.24341 141.714 0 -3.04926 130.936 0 -2.86628 121.061 0 -2.69408 112.007 0 -2.53223 103.703 0 -2.38026 96.0802 0 -2.23771 89.0792 0 -2.10407 82.6447 0 -1.97886 76.7267 0 -1.86159 71.2798 0 -1.75178 66.2626 0 -1.64899 61.638 0 -1.55276 57.3718 0 -1.46268 53.4334 0 -1.37835 49.7947 0 -1.29938 46.4305 0 -1.22542 43.3176 0 -1.15614 40.4351 0 -1.0912 37.764 0 -1.03033 35.2871 0 -0.973242 32.9885 0 -0.919674 30.8539 0 -0.869394 28.8703 0 -0.822172 27.0258 0 -0.777802 25.3095 0 -0.736093 23.7115 0 -0.696864 22.2228 0 -0.659949 20.8349 0 -0.625195 19.5404 0 -0.592457 18.3324 0 -0.561603 17.2044 0 -0.53251 16.1505 0 -0.505065 15.1655 0 -0.479161 14.2444 0 -0.454701 13.3826 0 -0.431594 12.576 0 -0.409754 11.8207 0 -0.389103 11.1132 0 -0.36957 10.4501 0 -0.351086 9.82853 0 -0.333588 9.24559 0 -0.317016 8.6987 0 -0.301319 8.18548 0 -0.286442 7.70369 0 -0.27234 7.25127 0 -0.258968 6.8263 0 -0.246286 6.42701 0 -0.234253 6.05175 0 -0.222835 5.69897 0 -0.211997 5.36725 0 -0.201709 5.05525 0 -0.191939 4.76173 0 -0.182662 4.48553 0 -0.17385 4.22557 0 -0.16548 3.98085 0 -0.157528 3.75041 0 -0.149973 3.53339 0 -0.142795 3.32894 0 -0.135973 3.13632 0 -0.129491 2.95478 0 -0.123333 2.78366 0 -0.117482 2.62233 0 -0.111922 2.47019 0 -0.10664 2.32668 0 -0.101623 2.19127 0 -0.0968575 2.06349 0 -0.0923318 1.94287 0 -0.0880359 1.82897 0 -0.0839587 1.72139 0 -0.0800892 1.61975 0 -0.0764196 1.52368 0 -0.0729402 1.43284 0 -0.0696426 1.34691 0 -0.0665201 1.2656 0 -0.0635641 1.18862 0 -0.0607687 1.11569 0 -0.0581267 1.04657 0 -0.055632 0.981012 0 -0.0532796 0.918793 0 -0.0510629 0.859695 0 -0.0489786 0.803517 0 -0.0470215 0.750064 0 -0.0451864 0.699154 0 -0.0434709 0.650609 0 -0.0418696 0.604268 0 -0.040381 0.559969 0 -0.0390013 0.517562 0 -0.0377274 0.476904 0 -0.0365567 0.437855 0 -0.0354879 0.400283 0 -0.034519 0.364062 0 -0.0336478 0.329068 0 -0.0328745 0.295183 0 -0.0321967 0.262293 0 -0.0316135 0.230286 0 -0.0311252 0.199055 0 -0.0307325 0.168495 0 -0.0304333 0.138503 0 -0.0302302 0.108976 0 46.4199 -7.71135e-07 0 38.5157 487.409 0 21.0218 783.002 0 8.15577 910.619 0 0.664283 945.041 0 -3.7277 931.746 0 -6.32231 894.848 0 -7.89317 846.491 0 -8.81593 793.316 0 -9.32855 738.952 0 -9.56037 685.461 0 -9.60095 634.002 0 -9.50596 585.203 0 -9.31569 539.375 0 -9.05812 496.627 0 -8.75399 456.952 0 -8.41875 420.262 0 -8.06403 386.427 0 -7.69877 355.29 0 -7.32978 326.683 0 -6.96229 300.432 0 -6.60029 276.365 0 -6.24679 254.315 0 -5.904 234.121 0 -5.57352 215.632 0 -5.25644 198.707 0 -4.95345 183.214 0 -4.66493 169.028 0 -4.391 156.038 0 -4.13156 144.139 0 -3.88638 133.235 0 -3.65509 123.238 0 -3.43725 114.069 0 -3.23233 105.654 0 -3.03979 97.9261 0 -2.85903 90.8253 0 -2.68947 84.2961 0 -2.53048 78.2885 0 -2.38149 72.7568 0 -2.2419 67.6596 0 -2.11114 62.9594 0 -1.98868 58.6219 0 -1.87397 54.6161 0 -1.76654 50.914 0 -1.66589 47.4899 0 -1.57158 44.3206 0 -1.4832 41.385 0 -1.40033 38.6638 0 -1.32262 36.1396 0 -1.24971 33.7965 0 -1.18128 31.6199 0 -1.11702 29.5967 0 -1.05665 27.7148 0 -0.999915 25.9632 0 -0.946564 24.3319 0 -0.896372 22.8116 0 -0.849127 21.3941 0 -0.804637 20.0715 0 -0.762717 18.8369 0 -0.7232 17.6837 0 -0.68593 16.6061 0 -0.650762 15.5985 0 -0.617561 14.6561 0 -0.586203 13.7741 0 -0.556574 12.9484 0 -0.528563 12.1749 0 -0.502071 11.4502 0 -0.477006 10.7708 0 -0.453283 10.1338 0 -0.430819 9.53613 0 -0.40954 8.97529 0 -0.389378 8.44881 0 -0.370267 7.95443 0 -0.352146 7.49005 0 -0.334958 7.05372 0 -0.318652 6.64362 0 -0.303179 6.25808 0 -0.288491 5.89553 0 -0.274546 5.55451 0 -0.261304 5.23367 0 -0.248727 4.93174 0 -0.236779 4.64754 0 -0.225428 4.37996 0 -0.21464 4.12799 0 -0.20439 3.89066 0 -0.194648 3.66707 0 -0.185387 3.45638 0 -0.176586 3.2578 0 -0.168218 3.07061 0 -0.160264 2.89411 0 -0.152704 2.72765 0 -0.145519 2.57062 0 -0.138688 2.42247 0 -0.132197 2.28266 0 -0.126029 2.15068 0 -0.120169 2.02606 0 -0.114601 1.90837 0 -0.109315 1.79718 0 -0.104296 1.69211 0 -0.0995311 1.59278 0 -0.0950113 1.49885 0 -0.0907241 1.41 0 -0.0866607 1.32591 0 -0.0828111 1.24629 0 -0.0791665 1.17087 0 -0.0757188 1.09939 0 -0.0724596 1.0316 0 -0.0693813 0.967279 0 -0.0664783 0.906195 0 -0.0637421 0.848149 0 -0.0611691 0.792938 0 -0.0587521 0.740379 0 -0.0564865 0.690293 0 -0.0543673 0.642509 0 -0.0523899 0.596871 0 -0.0505513 0.553219 0 -0.0488466 0.511412 0 -0.0472731 0.471306 0 -0.0458274 0.432769 0 -0.0445075 0.395671 0 -0.043311 0.359889 0 -0.0422359 0.325302 0 -0.0412814 0.291797 0 -0.0404456 0.259262 0 -0.0397269 0.227588 0 -0.039126 0.196669 0 -0.0386436 0.166405 0 -0.0382756 0.136698 0 55.7086 2.42144e-06 0 46.4059 484.823 0 25.5379 780.443 0 10.0623 909.283 0 0.998646 945.023 0 -4.33731 932.869 0 -7.50258 896.868 0 -9.42763 849.213 0 -10.5669 796.569 0 -11.2073 742.6 0 -11.5063 689.391 0 -11.5718 638.125 0 -11.4718 589.443 0 -11.2547 543.67 0 -10.9549 500.93 0 -10.5973 461.222 0 -10.2007 424.467 0 -9.77945 390.543 0 -9.34428 359.298 0 -8.90357 330.567 0 -8.46375 304.182 0 -8.02971 279.974 0 -7.60516 257.778 0 -7.19288 237.437 0 -6.79487 218.8 0 -6.41252 201.728 0 -6.04674 186.09 0 -5.69804 171.764 0 -5.36662 158.637 0 -5.05243 146.605 0 -4.75522 135.574 0 -4.47461 125.455 0 -4.21007 116.168 0 -3.96104 107.641 0 -3.72686 99.8073 0 -3.50686 92.6055 0 -3.30032 85.9806 0 -3.10655 79.8822 0 -2.92483 74.2646 0 -2.75448 69.0862 0 -2.59483 64.3093 0 -2.44521 59.8993 0 -2.305 55.8252 0 -2.17361 52.0586 0 -2.05046 48.5737 0 -1.93502 45.347 0 -1.82678 42.3573 0 -1.72526 39.5851 0 -1.63002 37.0128 0 -1.54063 34.6243 0 -1.4567 32.4049 0 -1.37786 30.3413 0 -1.30377 28.4212 0 -1.23412 26.6336 0 -1.16861 24.9683 0 -1.10695 23.4159 0 -1.04891 21.968 0 -0.994227 20.6167 0 -0.942696 19.3549 0 -0.894105 18.1761 0 -0.848265 17.0741 0 -0.805003 16.0436 0 -0.76415 15.0793 0 -0.725555 14.1767 0 -0.689078 13.3314 0 -0.654588 12.5394 0 -0.621961 11.7971 0 -0.591083 11.101 0 -0.56185 10.4481 0 -0.534165 9.83538 0 -0.507933 9.26025 0 -0.483072 8.72019 0 -0.459501 8.21291 0 -0.437145 7.73627 0 -0.415937 7.28828 0 -0.395811 6.8671 0 -0.376707 6.47102 0 -0.358569 6.09844 0 -0.341344 5.74789 0 -0.324981 5.41797 0 -0.309436 5.1074 0 -0.294664 4.81498 0 -0.280626 4.53958 0 -0.267281 4.28016 0 -0.254595 4.03573 0 -0.242536 3.80539 0 -0.231068 3.58827 0 -0.220164 3.38358 0 -0.209795 3.19056 0 -0.199935 3.00851 0 -0.190558 2.83676 0 -0.181642 2.67472 0 -0.173165 2.52178 0 -0.165103 2.37741 0 -0.15744 2.2411 0 -0.150155 2.11236 0 -0.143231 1.99074 0 -0.136651 1.87583 0 -0.130402 1.76721 0 -0.124466 1.66452 0 -0.11883 1.56739 0 -0.113481 1.4755 0 -0.108408 1.38852 0 -0.103596 1.30617 0 -0.0990375 1.22816 0 -0.0947201 1.15423 0 -0.0906346 1.08412 0 -0.0867718 1.0176 0 -0.0831229 0.954446 0 -0.0796806 0.894444 0 -0.0764364 0.837394 0 -0.0733838 0.783106 0 -0.0705164 0.731397 0 -0.0678282 0.682096 0 -0.065313 0.635038 0 -0.0629664 0.590069 0 -0.0607841 0.547037 0 -0.0587606 0.505801 0 -0.0568924 0.466224 0 -0.0551764 0.428178 0 -0.0536095 0.391536 0 -0.0521896 0.356177 0 -0.0509134 0.321985 0 -0.0497807 0.288848 0 -0.0487893 0.256659 0 -0.047937 0.22531 0 -0.047225 0.1947 0 -0.0466539 0.164727 0 65.0036 5.27501e-06 0 54.3596 482.302 0 30.159 777.93 0 12.0637 907.957 0 1.40372 945.001 0 -4.8982 933.981 0 -8.65192 898.878 0 -10.9449 851.929 0 -12.3118 799.821 0 -13.0889 746.253 0 -13.4624 693.332 0 -13.5588 642.262 0 -13.4587 593.702 0 -13.219 547.99 0 -12.8802 505.261 0 -12.4718 465.523 0 -12.0161 428.707 0 -11.5299 394.696 0 -11.0261 363.344 0 -10.5146 334.492 0 -10.003 307.974 0 -9.49713 283.626 0 -9.00156 261.285 0 -8.51959 240.796 0 -8.05366 222.012 0 -7.6055 204.793 0 -7.17626 189.01 0 -6.7666 174.542 0 -6.37683 161.278 0 -6.00695 149.113 0 -5.65673 137.952 0 -5.32577 127.71 0 -5.01351 118.305 0 -4.7193 109.666 0 -4.44242 101.725 0 -4.1821 94.4206 0 -3.93754 87.6987 0 -3.70795 81.5084 0 -3.4925 75.8038 0 -3.2904 70.543 0 -3.10087 65.6882 0 -2.92316 61.2047 0 -2.75655 57.0612 0 -2.60032 53.229 0 -2.45384 49.6823 0 -2.31645 46.3972 0 -2.18759 43.3524 0 -2.06667 40.5283 0 -1.95318 37.907 0 -1.84663 35.4722 0 -1.74655 33.2092 0 -1.65251 31.1044 0 -1.56411 29.1454 0 -1.48098 27.3211 0 -1.40276 25.6211 0 -1.32913 24.0359 0 -1.25979 22.557 0 -1.19445 21.1764 0 -1.13286 19.8869 0 -1.07477 18.6818 0 -1.01995 17.555 0 -0.968204 16.501 0 -0.91933 15.5144 0 -0.873145 14.5907 0 -0.829485 13.7254 0 -0.788192 12.9144 0 -0.749122 12.154 0 -0.712139 11.4408 0 -0.677117 10.7717 0 -0.643941 10.1436 0 -0.612501 9.55381 0 -0.582695 8.99985 0 -0.55443 8.47934 0 -0.527616 7.99013 0 -0.502171 7.53019 0 -0.478019 7.09765 0 -0.455088 6.69076 0 -0.43331 6.3079 0 -0.412622 5.94755 0 -0.392965 5.60832 0 -0.374285 5.28888 0 -0.35653 4.98802 0 -0.33965 4.70458 0 -0.323601 4.4375 0 -0.308337 4.18579 0 -0.293823 3.9485 0 -0.280017 3.72477 0 -0.266884 3.51378 0 -0.254393 3.31476 0 -0.242509 3.127 0 -0.231203 2.94982 0 -0.220448 2.78259 0 -0.210218 2.62472 0 -0.200487 2.47565 0 -0.19123 2.33487 0 -0.182427 2.20187 0 -0.174057 2.07621 0 -0.166098 1.95744 0 -0.158533 1.84516 0 -0.151344 1.73898 0 -0.144515 1.63854 0 -0.138028 1.5435 0 -0.131871 1.45354 0 -0.126028 1.36835 0 -0.120485 1.28765 0 -0.115233 1.21117 0 -0.110257 1.13864 0 -0.105547 1.06984 0 -0.101092 1.00452 0 -0.0968835 0.942482 0 -0.0929121 0.883506 0 -0.0891685 0.827407 0 -0.0856451 0.773995 0 -0.0823352 0.723095 0 -0.0792313 0.674543 0 -0.0763266 0.628177 0 -0.0736164 0.583846 0 -0.0710955 0.541406 0 -0.0687576 0.500718 0 -0.0665989 0.461649 0 -0.0646159 0.424074 0 -0.0628054 0.387871 0 -0.0611644 0.35292 0 -0.0596897 0.31911 0 -0.0583805 0.286332 0 -0.0572347 0.254479 0 -0.05625 0.223449 0 -0.0554267 0.193145 0 74.3067 -1.64658e-06 0 62.3772 479.847 0 34.8854 775.462 0 14.1612 906.643 0 1.88106 944.974 0 -5.40886 935.082 0 -9.76903 900.88 0 -12.444 854.64 0 -14.0499 803.072 0 -14.9726 749.909 0 -15.4281 697.282 0 -15.5616 646.414 0 -15.4665 597.981 0 -15.2084 552.334 0 -14.8341 509.62 0 -14.3778 469.856 0 -13.8652 432.981 0 -13.3159 398.885 0 -12.7448 367.429 0 -12.1633 338.457 0 -11.5805 311.808 0 -11.0032 287.321 0 -10.4367 264.836 0 -9.8849 244.2 0 -9.35072 225.268 0 -8.83625 207.902 0 -8.3429 191.974 0 -7.87152 177.364 0 -7.42256 163.961 0 -6.99608 151.662 0 -6.59188 140.372 0 -6.20955 130.005 0 -5.84851 120.482 0 -5.50806 111.728 0 -5.1874 103.678 0 -4.8857 96.2711 0 -4.60207 89.4511 0 -4.3356 83.1677 0 -4.08538 77.3749 0 -3.85052 72.0306 0 -3.63014 67.0968 0 -3.42339 62.5387 0 -3.22944 58.3246 0 -3.04749 54.4258 0 -2.8768 50.8162 0 -2.71664 47.4718 0 -2.56635 44.371 0 -2.42527 41.494 0 -2.2928 38.8227 0 -2.16838 36.3409 0 -2.05148 34.0334 0 -1.94159 31.8866 0 -1.83827 29.888 0 -1.74106 28.0262 0 -1.64958 26.2907 0 -1.56344 24.6721 0 -1.48229 23.1615 0 -1.40581 21.751 0 -1.33369 20.4332 0 -1.26565 19.2013 0 -1.20144 18.0491 0 -1.14081 16.971 0 -1.08352 15.9617 0 -1.02938 15.0164 0 -0.978186 14.1305 0 -0.929757 13.3001 0 -0.883923 12.5213 0 -0.840529 11.7907 0 -0.799426 11.1049 0 -0.76048 10.461 0 -0.723564 9.85623 0 -0.688558 9.28802 0 -0.655353 8.75397 0 -0.623846 8.25188 0 -0.593941 7.77969 0 -0.565548 7.33549 0 -0.538583 6.91751 0 -0.512967 6.5241 0 -0.488628 6.15371 0 -0.465495 5.80491 0 -0.443505 5.47637 0 -0.422598 5.16683 0 -0.402716 4.87514 0 -0.383807 4.60019 0 -0.365818 4.34099 0 -0.348706 4.09656 0 -0.332424 3.86603 0 -0.316932 3.64856 0 -0.302189 3.44337 0 -0.288159 3.24972 0 -0.274807 3.06694 0 -0.262099 2.89437 0 -0.250007 2.73142 0 -0.2385 2.57751 0 -0.22755 2.43211 0 -0.21713 2.29472 0 -0.207218 2.16488 0 -0.197789 2.04213 0 -0.188821 1.92606 0 -0.180294 1.81628 0 -0.172189 1.71241 0 -0.164486 1.61411 0 -0.157167 1.52105 0 -0.150218 1.43292 0 -0.143622 1.34943 0 -0.137363 1.2703 0 -0.131429 1.19526 0 -0.125807 1.12408 0 -0.120484 1.05651 0 -0.115448 0.992337 0 -0.11069 0.931352 0 -0.106197 0.873356 0 -0.101962 0.818159 0 -0.0979752 0.765582 0 -0.0942286 0.715454 0 -0.090715 0.667615 0 -0.0874259 0.621908 0 -0.0843566 0.578189 0 -0.0815011 0.536313 0 -0.0788522 0.49615 0 -0.0764059 0.457569 0 -0.0741585 0.420448 0 -0.0721063 0.384666 0 -0.0702459 0.350111 0 -0.0685735 0.316671 0 -0.0670886 0.284241 0 -0.0657887 0.252718 0 -0.0646715 0.222 0 83.6201 4.42564e-06 0 70.4594 477.456 0 39.7175 773.042 0 16.3562 905.344 0 2.43222 944.945 0 -5.86777 936.174 0 -10.8526 902.874 0 -13.9238 857.344 0 -15.7801 806.322 0 -16.8579 753.57 0 -17.403 701.242 0 -17.5799 650.58 0 -17.495 602.279 0 -17.2228 556.702 0 -16.8166 514.006 0 -16.3153 474.22 0 -15.7483 437.29 0 -15.1377 403.112 0 -14.5006 371.553 0 -13.8504 342.463 0 -13.1971 315.685 0 -12.5487 291.059 0 -11.9114 268.43 0 -11.2896 247.648 0 -10.6869 228.568 0 -10.1056 211.055 0 -9.54758 194.982 0 -9.01377 180.229 0 -8.50479 166.687 0 -8.0208 154.253 0 -7.56165 142.833 0 -7.12694 132.341 0 -6.71607 122.697 0 -6.32831 113.829 0 -5.96281 105.669 0 -5.61865 98.1578 0 -5.29485 91.2385 0 -4.99044 84.8608 0 -4.70441 78.9786 0 -4.43577 73.5496 0 -4.18354 68.5357 0 -3.94676 63.9018 0 -3.72452 59.6161 0 -3.51594 55.6496 0 -3.32015 51.976 0 -3.13637 48.5713 0 -2.96382 45.4134 0 -2.80179 42.4826 0 -2.64958 39.7605 0 -2.50657 37.2307 0 -2.37215 34.8779 0 -2.24576 32.6882 0 -2.12687 30.6492 0 -2.01499 28.7492 0 -1.90965 26.9776 0 -1.81044 25.3249 0 -1.71696 23.782 0 -1.62882 22.3409 0 -1.5457 20.9941 0 -1.46726 19.7348 0 -1.39321 18.5567 0 -1.32327 17.4541 0 -1.25717 16.4214 0 -1.19469 15.454 0 -1.1356 14.5472 0 -1.07968 13.6969 0 -1.02675 12.8993 0 -0.976626 12.1507 0 -0.929138 11.4479 0 -0.884129 10.7879 0 -0.841458 10.1678 0 -0.800986 9.58495 0 -0.762586 9.03703 0 -0.726141 8.52173 0 -0.691541 8.03699 0 -0.658683 7.58084 0 -0.627468 7.15149 0 -0.597809 6.74725 0 -0.569619 6.36655 0 -0.542821 6.00794 0 -0.517339 5.67005 0 -0.493104 5.3516 0 -0.470052 5.05142 0 -0.448121 4.7684 0 -0.427252 4.50149 0 -0.407392 4.24973 0 -0.38849 4.0122 0 -0.370499 3.78806 0 -0.353372 3.57652 0 -0.337068 3.37682 0 -0.321546 3.18826 0 -0.306768 3.0102 0 -0.292698 2.842 0 -0.279304 2.6831 0 -0.266554 2.53294 0 -0.254416 2.39103 0 -0.242863 2.25686 0 -0.231868 2.13 0 -0.221406 2.01002 0 -0.211452 1.89651 0 -0.201984 1.78909 0 -0.192981 1.68742 0 -0.184422 1.59116 0 -0.176288 1.49998 0 -0.168562 1.41359 0 -0.161226 1.3317 0 -0.154264 1.25406 0 -0.147661 1.1804 0 -0.141404 1.11049 0 -0.135476 1.04409 0 -0.129867 0.981011 0 -0.124566 0.921032 0 -0.119561 0.863965 0 -0.114841 0.809628 0 -0.110396 0.757844 0 -0.106218 0.708451 0 -0.102298 0.661292 0 -0.098629 0.616215 0 -0.0952038 0.573079 0 -0.0920161 0.531746 0 -0.0890588 0.492085 0 -0.0863268 0.453972 0 -0.0838163 0.417287 0 -0.0815233 0.381913 0 -0.079444 0.34774 0 -0.0775741 0.31466 0 -0.0759129 0.28257 0 -0.0744586 0.251369 0 92.9455 -3.01003e-06 0 78.607 475.131 0 44.6558 770.67 0 18.6497 904.06 0 3.05878 944.914 0 -6.27336 937.256 0 -11.9012 904.859 0 -15.3831 860.043 0 -17.5017 809.572 0 -18.7438 757.235 0 -19.3865 705.212 0 -19.6132 654.762 0 -19.544 606.597 0 -19.2622 561.093 0 -18.8278 518.421 0 -18.2846 478.616 0 -17.6655 441.633 0 -16.9956 407.376 0 -16.2942 375.717 0 -15.5762 346.511 0 -14.8532 319.604 0 -14.1343 294.841 0 -13.4263 272.07 0 -12.7346 251.141 0 -12.063 231.914 0 -11.4146 214.254 0 -10.7912 198.035 0 -10.1943 183.139 0 -9.62449 169.457 0 -9.08211 156.887 0 -8.56705 145.337 0 -8.07896 134.718 0 -7.61723 124.953 0 -7.18109 115.969 0 -6.76965 107.699 0 -6.38193 100.081 0 -6.0169 93.0614 0 -5.67347 86.5883 0 -5.35056 80.6155 0 -5.04709 75.1007 0 -4.76197 70.0055 0 -4.49418 65.2946 0 -4.24269 60.9361 0 -4.00652 56.9009 0 -3.78474 53.1623 0 -3.57645 49.6962 0 -3.38081 46.4803 0 -3.19701 43.4947 0 -3.02428 40.7209 0 -2.86193 38.1422 0 -2.70927 35.7432 0 -2.56568 33.5099 0 -2.43057 31.4296 0 -2.30337 29.4906 0 -2.18359 27.6822 0 -2.07074 25.9946 0 -1.96437 24.4187 0 -1.86406 22.9464 0 -1.76942 21.5701 0 -1.6801 20.2828 0 -1.59575 19.0782 0 -1.51607 17.9504 0 -1.44075 16.894 0 -1.36953 15.904 0 -1.30215 14.9758 0 -1.23839 14.1052 0 -1.17801 13.2882 0 -1.12082 12.5213 0 -1.06663 11.8011 0 -1.01526 11.1245 0 -0.966537 10.4887 0 -0.92032 9.8909 0 -0.87646 9.32875 0 -0.834822 8.79993 0 -0.795282 8.30231 0 -0.757723 7.83391 0 -0.722034 7.3929 0 -0.688115 6.97755 0 -0.655869 6.58628 0 -0.625205 6.21759 0 -0.596041 5.8701 0 -0.568296 5.54251 0 -0.541897 5.23362 0 -0.516774 4.94229 0 -0.492863 4.66746 0 -0.470098 4.40816 0 -0.448427 4.16344 0 -0.427792 3.93245 0 -0.408142 3.71436 0 -0.389429 3.50843 0 -0.371608 3.31394 0 -0.354634 3.13021 0 -0.338468 2.95661 0 -0.323072 2.79256 0 -0.308409 2.6375 0 -0.294445 2.4909 0 -0.281148 2.35228 0 -0.268486 2.22117 0 -0.256432 2.09715 0 -0.244958 1.97978 0 -0.234038 1.8687 0 -0.223648 1.76354 0 -0.213764 1.66395 0 -0.204365 1.56961 0 -0.19543 1.48022 0 -0.186941 1.39548 0 -0.178876 1.31512 0 -0.171221 1.23889 0 -0.163959 1.16654 0 -0.157075 1.09784 0 -0.150552 1.03256 0 -0.144378 0.970513 0 -0.138541 0.91149 0 -0.133027 0.855308 0 -0.127827 0.801788 0 -0.122928 0.750761 0 -0.118322 0.70207 0 -0.114001 0.655559 0 -0.109954 0.611083 0 -0.106174 0.568505 0 -0.102657 0.52769 0 -0.0993917 0.488512 0 -0.0963749 0.450849 0 -0.0936016 0.414583 0 -0.0910675 0.379603 0 -0.0887687 0.345799 0 -0.0867002 0.31307 0 -0.0848619 0.28131 0 102.285 6.24359e-06 0 86.8205 472.87 0 49.7008 768.349 0 21.0433 902.794 0 3.76234 944.883 0 -6.62406 938.331 0 -12.9136 906.836 0 -16.8207 862.737 0 -19.2136 812.821 0 -20.6298 760.904 0 -21.378 709.191 0 -21.6612 658.958 0 -21.6131 610.934 0 -21.3264 565.509 0 -20.8677 522.863 0 -20.2857 483.043 0 -19.6172 446.011 0 -18.8901 411.678 0 -18.1259 379.921 0 -17.3414 350.6 0 -16.5496 323.567 0 -15.7606 298.668 0 -14.9822 275.754 0 -14.2205 254.68 0 -13.48 235.306 0 -12.764 217.498 0 -12.0748 201.133 0 -11.4141 186.094 0 -10.7827 172.272 0 -10.181 159.566 0 -9.60913 147.883 0 -9.06666 137.137 0 -8.55302 127.25 0 -8.06743 118.148 0 -7.60897 109.766 0 -7.1766 102.042 0 -6.76922 94.9206 0 -6.38569 88.3508 0 -6.02482 82.2862 0 -5.68545 76.6844 0 -5.36642 71.5067 0 -5.06658 66.7178 0 -4.78485 62.2854 0 -4.52014 58.1803 0 -4.27143 54.3757 0 -4.03773 50.8471 0 -3.81812 47.5722 0 -3.61172 44.5309 0 -3.41767 41.7044 0 -3.23521 39.0758 0 -3.06357 36.6298 0 -2.90207 34.352 0 -2.75005 32.2297 0 -2.60689 30.251 0 -2.47204 28.4049 0 -2.34495 26.6817 0 -2.22512 25.0722 0 -2.11209 23.568 0 -2.00542 22.1615 0 -1.90472 20.8457 0 -1.8096 19.614 0 -1.71971 18.4605 0 -1.63473 17.3797 0 -1.55436 16.3666 0 -1.47831 15.4165 0 -1.40631 14.5251 0 -1.33813 13.6884 0 -1.27353 12.9027 0 -1.2123 12.1647 0 -1.15425 11.4712 0 -1.09918 10.8192 0 -1.04692 10.2061 0 -0.997322 9.6294 0 -0.950224 9.08671 0 -0.905488 8.5759 0 -0.862983 8.09494 0 -0.822587 7.64196 0 -0.784182 7.21522 0 -0.747662 6.8131 0 -0.712926 6.43407 0 -0.679879 6.07673 0 -0.648434 5.73976 0 -