<?xml version="1.0"?> 
<VTKFile type="StructuredGrid" version="0.1"> 
<StructuredGrid WholeExtent="0 127 0 127 0 0"> 
<Piece Extent="0 127 0 127 0 0"> 
<PointData>
<DataArray type="Float32" Name="|E|" format="ascii" NumberOfComponents="3"> 
-1.66695e+06 0 0 -1.66704e+06 14911.7 0 -1.66731e+06 29826.4 0 -1.66775e+06 44747.2 0 -1.66837e+06 59677.1 0 -1.66917e+06 74619 0 -1.67014e+06 89576.2 0 -1.6713e+06 104552 0 -1.67262e+06 119548 0 -1.67413e+06 134569 0 -1.67581e+06 149618 0 -1.67766e+06 164696 0 -1.67969e+06 179809 0 -1.6819e+06 194958 0 -1.68428e+06 210147 0 -1.68683e+06 225379 0 -1.68956e+06 240656 0 -1.69245e+06 255984 0 -1.69552e+06 271363 0 -1.69876e+06 286799 0 -1.70218e+06 302293 0 -1.70575e+06 317849 0 -1.7095e+06 333471 0 -1.71342e+06 349161 0 -1.7175e+06 364923 0 -1.72174e+06 380761 0 -1.72615e+06 396677 0 -1.73072e+06 412675 0 -1.73545e+06 428759 0 -1.74034e+06 444931 0 -1.74538e+06 461196 0 -1.75058e+06 477556 0 -1.75593e+06 494015 0 -1.76143e+06 510577 0 -1.76708e+06 527245 0 -1.77287e+06 544022 0 -1.7788e+06 560912 0 -1.78488e+06 577918 0 -1.79108e+06 595044 0 -1.79742e+06 612293 0 -1.80389e+06 629668 0 -1.81049e+06 647173 0 -1.8172e+06 664811 0 -1.82402e+06 682586 0 -1.83096e+06 700500 0 -1.838e+06 718556 0 -1.84514e+06 736757 0 -1.85237e+06 755106 0 -1.85969e+06 773606 0 -1.86708e+06 792259 0 -1.87455e+06 811066 0 -1.88208e+06 830031 0 -1.88966e+06 849153 0 -1.89728e+06 868435 0 -1.90494e+06 887877 0 -1.91262e+06 907479 0 -1.92031e+06 927241 0 -1.92801e+06 947162 0 -1.93568e+06 967239 0 -1.94333e+06 987471 0 -1.95094e+06 1.00785e+06 0 -1.95849e+06 1.02838e+06 0 -1.96596e+06 1.04905e+06 0 -1.97335e+06 1.06985e+06 0 -1.98062e+06 1.09078e+06 0 -1.98776e+06 1.11181e+06 0 -1.99475e+06 1.13295e+06 0 -2.00157e+06 1.15417e+06 0 -2.0082e+06 1.17547e+06 0 -2.01462e+06 1.19681e+06 0 -2.0208e+06 1.21817e+06 0 -2.02671e+06 1.23954e+06 0 -2.03235e+06 1.26087e+06 0 -2.03767e+06 1.28214e+06 0 -2.04267e+06 1.30331e+06 0 -2.04732e+06 1.32434e+06 0 -2.05159e+06 1.34518e+06 0 -2.05547e+06 1.36578e+06 0 -2.05895e+06 1.38608e+06 0 -2.062e+06 1.40603e+06 0 -2.06462e+06 1.42555e+06 0 -2.06681e+06 1.44457e+06 0 -2.06855e+06 1.46302e+06 0 -2.06986e+06 1.48081e+06 0 -2.07074e+06 1.49786e+06 0 -2.07121e+06 1.51408e+06 0 -2.07131e+06 1.52938e+06 0 -2.07106e+06 1.54364e+06 0 -2.0705e+06 1.55679e+06 0 -2.0697e+06 1.56871e+06 0 -2.06871e+06 1.57932e+06 0 -2.06761e+06 1.58851e+06 0 -2.06648e+06 1.59618e+06 0 -2.06541e+06 1.60225e+06 0 -2.06451e+06 1.60664e+06 0 -2.06388e+06 1.60925e+06 0 -2.06364e+06 1.61003e+06 0 -2.06391e+06 1.6089e+06 0 -2.06481e+06 1.60581e+06 0 -2.06648e+06 1.60072e+06 0 -2.06905e+06 1.59358e+06 0 -2.07265e+06 1.58438e+06 0 -2.07741e+06 1.57308e+06 0 -2.08347e+06 1.55969e+06 0 -2.09095e+06 1.5442e+06 0 -2.09997e+06 1.52663e+06 0 -2.11066e+06 1.50701e+06 0 -2.12314e+06 1.48535e+06 0 -2.13752e+06 1.46172e+06 0 -2.15392e+06 1.43616e+06 0 -2.17245e+06 1.40882e+06 0 -2.19323e+06 1.37968e+06 0 -2.21638e+06 1.34915e+06 0 -2.24206e+06 1.3169e+06 0 -2.27038e+06 1.28421e+06 0 -2.30166e+06 1.24952e+06 0 -2.33593e+06 1.21688e+06 0 -2.37406e+06 1.18024e+06 0 -2.41564e+06 1.15309e+06 0 -2.46359e+06 1.11309e+06 0 -2.51523e+06 1.1065e+06 0 -2.58155e+06 1.05307e+06 0 -2.64974e+06 1.11318e+06 0 -2.76378e+06 1.00396e+06 0 -2.86976e+06 1.28112e+06 0 -3.17784e+06 1.01467e+06 0 -3.41393e+06 1.7418e+06 0 -8.37853e+06 1.09097e+07 0 -1.6612e+06 0 0 -1.66132e+06 14979.4 0 -1.66162e+06 29960.9 0 -1.66209e+06 44947.8 0 -1.66274e+06 59942.8 0 -1.66357e+06 74949.2 0 -1.66457e+06 89969.9 0 -1.66575e+06 105008 0 -1.6671e+06 120066 0 -1.66863e+06 135148 0 -1.67033e+06 150256 0 -1.67221e+06 165394 0 -1.67426e+06 180565 0 -1.67649e+06 195771 0 -1.67889e+06 211016 0 -1.68146e+06 226303 0 -1.6842e+06 241635 0 -1.68712e+06 257016 0 -1.6902e+06 272447 0 -1.69346e+06 287934 0 -1.69689e+06 303478 0 -1.70048e+06 319083 0 -1.70424e+06 334753 0 -1.70816e+06 350490 0 -1.71226e+06 366298 0 -1.71651e+06 382180 0 -1.72093e+06 398139 0 -1.72551e+06 414179 0 -1.73024e+06 430304 0 -1.73514e+06 446515 0 -1.74019e+06 462818 0 -1.74539e+06 479215 0 -1.75075e+06 495710 0 -1.75625e+06 512305 0 -1.76191e+06 529005 0 -1.7677e+06 545814 0 -1.77364e+06 562733 0 -1.77972e+06 579767 0 -1.78593e+06 596919 0 -1.79227e+06 614192 0 -1.79874e+06 631591 0 -1.80533e+06 649117 0 -1.81205e+06 666774 0 -1.81887e+06 684566 0 -1.82581e+06 702495 0 -1.83285e+06 720564 0 -1.83999e+06 738776 0 -1.84722e+06 757134 0 -1.85454e+06 775640 0 -1.86193e+06 794297 0 -1.8694e+06 813106 0 -1.87692e+06 832069 0 -1.8845e+06 851188 0 -1.89213e+06 870463 0 -1.89979e+06 889895 0 -1.90747e+06 909485 0 -1.91517e+06 929231 0 -1.92287e+06 949133 0 -1.93055e+06 969188 0 -1.93821e+06 989394 0 -1.94582e+06 1.00975e+06 0 -1.95338e+06 1.03024e+06 0 -1.96087e+06 1.05087e+06 0 -1.96827e+06 1.07163e+06 0 -1.97556e+06 1.09251e+06 0 -1.98272e+06 1.1135e+06 0 -1.98974e+06 1.13459e+06 0 -1.99659e+06 1.15575e+06 0 -2.00325e+06 1.17698e+06 0 -2.00971e+06 1.19825e+06 0 -2.01593e+06 1.21955e+06 0 -2.0219e+06 1.24084e+06 0 -2.02759e+06 1.2621e+06 0 -2.03299e+06 1.28329e+06 0 -2.03806e+06 1.30437e+06 0 -2.04279e+06 1.32531e+06 0 -2.04716e+06 1.34606e+06 0 -2.05114e+06 1.36657e+06 0 -2.05473e+06 1.38678e+06 0 -2.05791e+06 1.40663e+06 0 -2.06067e+06 1.42605e+06 0 -2.06301e+06 1.44498e+06 0 -2.06491e+06 1.46334e+06 0 -2.0664e+06 1.48104e+06 0 -2.06747e+06 1.49801e+06 0 -2.06816e+06 1.51415e+06 0 -2.06847e+06 1.52938e+06 0 -2.06846e+06 1.54359e+06 0 -2.06815e+06 1.55668e+06 0 -2.06761e+06 1.56857e+06 0 -2.0669e+06 1.57915e+06 0 -2.06608e+06 1.58833e+06 0 -2.06525e+06 1.59601e+06 0 -2.06449e+06 1.6021e+06 0 -2.06389e+06 1.60653e+06 0 -2.06358e+06 1.6092e+06 0 -2.06366e+06 1.61005e+06 0 -2.06425e+06 1.60902e+06 0 -2.06547e+06 1.60605e+06 0 -2.06747e+06 1.60109e+06 0 -2.07035e+06 1.5941e+06 0 -2.07426e+06 1.58506e+06 0 -2.07933e+06 1.57395e+06 0 -2.08567e+06 1.56075e+06 0 -2.09343e+06 1.54547e+06 0 -2.10273e+06 1.52813e+06 0 -2.11368e+06 1.50873e+06 0 -2.1264e+06 1.48731e+06 0 -2.14101e+06 1.46393e+06 0 -2.15761e+06 1.43864e+06 0 -2.17633e+06 1.41154e+06 0 -2.19727e+06 1.38271e+06 0 -2.22056e+06 1.35236e+06 0 -2.24632e+06 1.32057e+06 0 -2.27471e+06 1.28785e+06 0 -2.30593e+06 1.25408e+06 0 -2.34022e+06 1.22063e+06 0 -2.37796e+06 1.18649e+06 0 -2.41968e+06 1.15582e+06 0 -2.46626e+06 1.12375e+06 0 -2.51898e+06 1.1042e+06 0 -2.5805e+06 1.07725e+06 0 -2.65428e+06 1.09195e+06 0 -2.7505e+06 1.07252e+06 0 -2.88207e+06 1.19727e+06 0 -3.10489e+06 1.21412e+06 0 -3.5542e+06 1.72124e+06 0 -5.58424e+06 6.97503e+06 0 -1.65542e+06 0 0 -1.65558e+06 15046.6 0 -1.65591e+06 30094.6 0 -1.65641e+06 45147 0 -1.65709e+06 60206.9 0 -1.65795e+06 75277.2 0 -1.65898e+06 90361 0 -1.66018e+06 105461 0 -1.66156e+06 120581 0 -1.66311e+06 135723 0 -1.66484e+06 150891 0 -1.66674e+06 166088 0 -1.66881e+06 181316 0 -1.67106e+06 196579 0 -1.67348e+06 211880 0 -1.67607e+06 227222 0 -1.67883e+06 242608 0 -1.68176e+06 258041 0 -1.68487e+06 273525 0 -1.68814e+06 289062 0 -1.69158e+06 304656 0 -1.69518e+06 320310 0 -1.69896e+06 336027 0 -1.70289e+06 351811 0 -1.707e+06 367664 0 -1.71126e+06 383590 0 -1.71569e+06 399592 0 -1.72028e+06 415674 0 -1.72502e+06 431839 0 -1.72993e+06 448090 0 -1.73498e+06 464431 0 -1.7402e+06 480864 0 -1.74556e+06 497394 0 -1.75107e+06 514023 0 -1.75672e+06 530756 0 -1.76252e+06 547595 0 -1.76847e+06 564543 0 -1.77454e+06 581605 0 -1.78076e+06 598783 0 -1.7871e+06 616081 0 -1.79357e+06 633502 0 -1.80017e+06 651049 0 -1.80688e+06 668725 0 -1.81371e+06 686534 0 -1.82065e+06 704478 0 -1.82769e+06 722560 0 -1.83483e+06 740784 0 -1.84206e+06 759150 0 -1.84938e+06 777663 0 -1.85677e+06 796323 0 -1.86424e+06 815134 0 -1.87176e+06 834096 0 -1.87935e+06 853211 0 -1.88697e+06 872480 0 -1.89464e+06 891903 0 -1.90232e+06 911480 0 -1.91002e+06 931211 0 -1.91772e+06 951094 0 -1.92541e+06 971127 0 -1.93308e+06 991308 0 -1.94071e+06 1.01163e+06 0 -1.94828e+06 1.03209e+06 0 -1.95578e+06 1.05269e+06 0 -1.96319e+06 1.07341e+06 0 -1.9705e+06 1.09424e+06 0 -1.97769e+06 1.11518e+06 0 -1.98474e+06 1.13622e+06 0 -1.99162e+06 1.15732e+06 0 -1.99832e+06 1.17849e+06 0 -2.00481e+06 1.1997e+06 0 -2.01108e+06 1.22093e+06 0 -2.0171e+06 1.24215e+06 0 -2.02285e+06 1.26333e+06 0 -2.02831e+06 1.28444e+06 0 -2.03346e+06 1.30544e+06 0 -2.03828e+06 1.32629e+06 0 -2.04274e+06 1.34695e+06 0 -2.04683e+06 1.36737e+06 0 -2.05053e+06 1.38749e+06 0 -2.05384e+06 1.40724e+06 0 -2.05674e+06 1.42658e+06 0 -2.05922e+06 1.44541e+06 0 -2.06129e+06 1.46368e+06 0 -2.06296e+06 1.48131e+06 0 -2.06422e+06 1.49819e+06 0 -2.06511e+06 1.51426e+06 0 -2.06565e+06 1.52942e+06 0 -2.06587e+06 1.54357e+06 0 -2.06581e+06 1.55662e+06 0 -2.06553e+06 1.56847e+06 0 -2.06509e+06 1.57903e+06 0 -2.06456e+06 1.5882e+06 0 -2.06402e+06 1.59588e+06 0 -2.06355e+06 1.602e+06 0 -2.06327e+06 1.60647e+06 0 -2.06327e+06 1.6092e+06 0 -2.06366e+06 1.61013e+06 0 -2.06457e+06 1.6092e+06 0 -2.06612e+06 1.60634e+06 0 -2.06842e+06 1.60151e+06 0 -2.07162e+06 1.59467e+06 0 -2.07584e+06 1.5858e+06 0 -2.0812e+06 1.57486e+06 0 -2.08785e+06 1.56186e+06 0 -2.09589e+06 1.54679e+06 0 -2.10545e+06 1.52966e+06 0 -2.11666e+06 1.51049e+06 0 -2.12962e+06 1.48932e+06 0 -2.14446e+06 1.46618e+06 0 -2.16127e+06 1.44114e+06 0 -2.18017e+06 1.41429e+06 0 -2.20127e+06 1.38574e+06 0 -2.22469e+06 1.35564e+06 0 -2.25054e+06 1.32418e+06 0 -2.27898e+06 1.29164e+06 0 -2.31017e+06 1.25836e+06 0 -2.34441e+06 1.22489e+06 0 -2.38192e+06 1.19177e+06 0 -2.42344e+06 1.16029e+06 0 -2.46928e+06 1.13107e+06 0 -2.52174e+06 1.10783e+06 0 -2.58103e+06 1.09015e+06 0 -2.65511e+06 1.09089e+06 0 -2.7437e+06 1.10329e+06 0 -2.87895e+06 1.17952e+06 0 -3.06599e+06 1.30157e+06 0 -3.54313e+06 1.76269e+06 0 -4.20041e+06 5.34309e+06 0 -1.64961e+06 0 0 -1.6498e+06 15113.4 0 -1.65017e+06 30227.4 0 -1.6507e+06 45345 0 -1.65141e+06 60469.3 0 -1.6523e+06 75603.2 0 -1.65335e+06 90749.7 0 -1.65459e+06 105912 0 -1.65599e+06 121093 0 -1.65757e+06 136295 0 -1.65932e+06 151522 0 -1.66124e+06 166777 0 -1.66334e+06 182063 0 -1.66561e+06 197382 0 -1.66805e+06 212739 0 -1.67066e+06 228135 0 -1.67344e+06 243575 0 -1.67639e+06 259061 0 -1.67951e+06 274596 0 -1.68279e+06 290184 0 -1.68625e+06 305827 0 -1.68987e+06 321529 0 -1.69366e+06 337294 0 -1.69761e+06 353123 0 -1.70172e+06 369022 0 -1.706e+06 384992 0 -1.71044e+06 401037 0 -1.71503e+06 417160 0 -1.71979e+06 433365 0 -1.7247e+06 449655 0 -1.72976e+06 466034 0 -1.73498e+06 482504 0 -1.74035e+06 499068 0 -1.74587e+06 515731 0 -1.75153e+06 532496 0 -1.75733e+06 549366 0 -1.76328e+06 566343 0 -1.76936e+06 583433 0 -1.77558e+06 600637 0 -1.78192e+06 617959 0 -1.7884e+06 635402 0 -1.795e+06 652970 0 -1.80171e+06 670665 0 -1.80854e+06 688491 0 -1.81548e+06 706450 0 -1.82252e+06 724546 0 -1.82966e+06 742780 0 -1.83689e+06 761155 0 -1.84421e+06 779674 0 -1.85161e+06 798339 0 -1.85907e+06 817151 0 -1.8666e+06 836112 0 -1.87419e+06 855223 0 -1.88182e+06 874486 0 -1.88948e+06 893900 0 -1.89717e+06 913465 0 -1.90488e+06 933180 0 -1.91259e+06 953045 0 -1.92028e+06 973057 0 -1.92796e+06 993212 0 -1.93559e+06 1.01351e+06 0 -1.94318e+06 1.03394e+06 0 -1.95069e+06 1.0545e+06 0 -1.95813e+06 1.07518e+06 0 -1.96546e+06 1.09597e+06 0 -1.97267e+06 1.11686e+06 0 -1.97974e+06 1.13784e+06 0 -1.98665e+06 1.1589e+06 0 -1.99339e+06 1.18e+06 0 -1.99993e+06 1.20115e+06 0 -2.00624e+06 1.22231e+06 0 -2.01232e+06 1.24346e+06 0 -2.01813e+06 1.26456e+06 0 -2.02366e+06 1.28559e+06 0 -2.02888e+06 1.30651e+06 0 -2.03378e+06 1.32728e+06 0 -2.03833e+06 1.34786e+06 0 -2.04253e+06 1.36818e+06 0 -2.04635e+06 1.38821e+06 0 -2.04978e+06 1.40788e+06 0 -2.05282e+06 1.42712e+06 0 -2.05545e+06 1.44587e+06 0 -2.05769e+06 1.46406e+06 0 -2.05953e+06 1.4816e+06 0 -2.06099e+06 1.49841e+06 0 -2.06208e+06 1.5144e+06 0 -2.06284e+06 1.52949e+06 0 -2.06329e+06 1.54359e+06 0 -2.06348e+06 1.55659e+06 0 -2.06345e+06 1.56841e+06 0 -2.06328e+06 1.57895e+06 0 -2.06303e+06 1.58811e+06 0 -2.06278e+06 1.59581e+06 0 -2.06262e+06 1.60196e+06 0 -2.06264e+06 1.60646e+06 0 -2.06295e+06 1.60926e+06 0 -2.06365e+06 1.61027e+06 0 -2.06488e+06 1.60943e+06 0 -2.06674e+06 1.60668e+06 0 -2.06936e+06 1.60198e+06 0 -2.07287e+06 1.5953e+06 0 -2.07739e+06 1.58658e+06 0 -2.08305e+06 1.57583e+06 0 -2.08998e+06 1.56302e+06 0 -2.0983e+06 1.54816e+06 0 -2.10814e+06 1.53125e+06 0 -2.1196e+06 1.5123e+06 0 -2.1328e+06 1.49136e+06 0 -2.14786e+06 1.46847e+06 0 -2.16488e+06 1.44368e+06 0 -2.18397e+06 1.41708e+06 0 -2.20522e+06 1.3888e+06 0 -2.22877e+06 1.35895e+06 0 -2.25471e+06 1.32778e+06 0 -2.2832e+06 1.2955e+06 0 -2.31438e+06 1.26256e+06 0 -2.34853e+06 1.22932e+06 0 -2.38585e+06 1.19672e+06 0 -2.42706e+06 1.16529e+06 0 -2.47237e+06 1.13725e+06 0 -2.52408e+06 1.11333e+06 0 -2.58202e+06 1.09923e+06 0 -2.65446e+06 1.09633e+06 0 -2.73905e+06 1.12112e+06 0 -2.86965e+06 1.18336e+06 0 -3.03857e+06 1.34958e+06 0 -3.47188e+06 1.81251e+06 0 -3.43937e+06 4.45771e+06 0 -1.64378e+06 0 0 -1.644e+06 15179.7 0 -1.6444e+06 30359.3 0 -1.64497e+06 45541.7 0 -1.64571e+06 60730 0 -1.64662e+06 75927 0 -1.64771e+06 91135.9 0 -1.64897e+06 106359 0 -1.6504e+06 121601 0 -1.652e+06 136863 0 -1.65378e+06 152149 0 -1.65573e+06 167462 0 -1.65784e+06 182805 0 -1.66013e+06 198180 0 -1.66259e+06 213592 0 -1.66522e+06 229043 0 -1.66802e+06 244536 0 -1.67099e+06 260074 0 -1.67413e+06 275660 0 -1.67743e+06 291298 0 -1.6809e+06 306991 0 -1.68454e+06 322741 0 -1.68834e+06 338553 0 -1.6923e+06 354428 0 -1.69643e+06 370371 0 -1.70072e+06 386385 0 -1.70516e+06 402473 0 -1.70977e+06 418638 0 -1.71453e+06 434883 0 -1.71945e+06 451211 0 -1.72453e+06 467627 0 -1.72975e+06 484133 0 -1.73513e+06 500733 0 -1.74065e+06 517429 0 -1.74632e+06 534226 0 -1.75213e+06 551126 0 -1.75808e+06 568133 0 -1.76417e+06 585250 0 -1.77039e+06 602479 0 -1.77674e+06 619826 0 -1.78321e+06 637292 0 -1.78981e+06 654880 0 -1.79653e+06 672594 0 -1.80336e+06 690437 0 -1.8103e+06 708411 0 -1.81734e+06 726519 0 -1.82449e+06 744764 0 -1.83172e+06 763148 0 -1.83904e+06 781674 0 -1.84644e+06 800342 0 -1.8539e+06 819156 0 -1.86144e+06 838117 0 -1.86902e+06 857225 0 -1.87666e+06 876481 0 -1.88433e+06 895886 0 -1.89202e+06 915439 0 -1.89973e+06 935140 0 -1.90745e+06 954986 0 -1.91515e+06 974977 0 -1.92284e+06 995107 0 -1.93048e+06 1.01537e+06 0 -1.93808e+06 1.03577e+06 0 -1.94561e+06 1.0563e+06 0 -1.95307e+06 1.07694e+06 0 -1.96042e+06 1.09769e+06 0 -1.96765e+06 1.11853e+06 0 -1.97475e+06 1.13946e+06 0 -1.9817e+06 1.16046e+06 0 -1.98847e+06 1.18151e+06 0 -1.99505e+06 1.2026e+06 0 -2.00142e+06 1.22369e+06 0 -2.00755e+06 1.24477e+06 0 -2.01342e+06 1.2658e+06 0 -2.01902e+06 1.28675e+06 0 -2.02432e+06 1.3076e+06 0 -2.0293e+06 1.32828e+06 0 -2.03395e+06 1.34877e+06 0 -2.03825e+06 1.36901e+06 0 -2.04218e+06 1.38895e+06 0 -2.04574e+06 1.40853e+06 0 -2.04892e+06 1.42769e+06 0 -2.0517e+06 1.44635e+06 0 -2.0541e+06 1.46445e+06 0 -2.05612e+06 1.48191e+06 0 -2.05777e+06 1.49865e+06 0 -2.05907e+06 1.51458e+06 0 -2.06004e+06 1.52961e+06 0 -2.06072e+06 1.54365e+06 0 -2.06115e+06 1.55661e+06 0 -2.06138e+06 1.5684e+06 0 -2.06148e+06 1.57892e+06 0 -2.0615e+06 1.58808e+06 0 -2.06154e+06 1.59579e+06 0 -2.06167e+06 1.60196e+06 0 -2.06199e+06 1.60651e+06 0 -2.06261e+06 1.60937e+06 0 -2.06363e+06 1.61045e+06 0 -2.06517e+06 1.60971e+06 0 -2.06734e+06 1.60708e+06 0 -2.07027e+06 1.60251e+06 0 -2.07408e+06 1.59597e+06 0 -2.07891e+06 1.58742e+06 0 -2.08487e+06 1.57685e+06 0 -2.09209e+06 1.56423e+06 0 -2.10069e+06 1.54957e+06 0 -2.11079e+06 1.53288e+06 0 -2.1225e+06 1.51416e+06 0 -2.13595e+06 1.49345e+06 0 -2.15123e+06 1.47079e+06 0 -2.16845e+06 1.44626e+06 0 -2.18772e+06 1.41991e+06 0 -2.20914e+06 1.39188e+06 0 -2.23281e+06 1.3623e+06 0 -2.25884e+06 1.33139e+06 0 -2.28737e+06 1.29939e+06 0 -2.31854e+06 1.26673e+06 0 -2.3526e+06 1.23378e+06 0 -2.38974e+06 1.20153e+06 0 -2.43059e+06 1.17045e+06 0 -2.47543e+06 1.14299e+06 0 -2.52623e+06 1.11945e+06 0 -2.58309e+06 1.10675e+06 0 -2.65315e+06 1.10408e+06 0 -2.73492e+06 1.13358e+06 0 -2.85773e+06 1.19511e+06 0 -3.01423e+06 1.38012e+06 0 -3.37762e+06 1.85519e+06 0 -2.99139e+06 3.91216e+06 0 -1.63792e+06 0 0 -1.63818e+06 15245.6 0 -1.63861e+06 30490.3 0 -1.63921e+06 45737.1 0 -1.63998e+06 60989 0 -1.64093e+06 76248.8 0 -1.64204e+06 91519.6 0 -1.64333e+06 106804 0 -1.64479e+06 122106 0 -1.64642e+06 137428 0 -1.64822e+06 152772 0 -1.65019e+06 168143 0 -1.65233e+06 183542 0 -1.65464e+06 198974 0 -1.65712e+06 214440 0 -1.65977e+06 229945 0 -1.66259e+06 245491 0 -1.66557e+06 261081 0 -1.66873e+06 276718 0 -1.67205e+06 292406 0 -1.67553e+06 308148 0 -1.67918e+06 323946 0 -1.683e+06 339804 0 -1.68698e+06 355726 0 -1.69111e+06 371713 0 -1.69542e+06 387770 0 -1.69987e+06 403900 0 -1.70449e+06 420106 0 -1.70927e+06 436391 0 -1.7142e+06 452758 0 -1.71928e+06 469211 0 -1.72451e+06 485753 0 -1.72989e+06 502388 0 -1.73542e+06 519117 0 -1.7411e+06 535946 0 -1.74691e+06 552876 0 -1.75287e+06 569912 0 -1.75896e+06 587056 0 -1.76518e+06 604312 0 -1.77154e+06 621682 0 -1.77802e+06 639170 0 -1.78462e+06 656779 0 -1.79134e+06 674512 0 -1.79817e+06 692372 0 -1.80511e+06 710361 0 -1.81216e+06 728482 0 -1.8193e+06 746738 0 -1.82654e+06 765131 0 -1.83386e+06 783662 0 -1.84126e+06 802335 0 -1.84873e+06 821151 0 -1.85627e+06 840111 0 -1.86386e+06 859215 0 -1.87149e+06 878465 0 -1.87917e+06 897862 0 -1.88687e+06 917403 0 -1.89459e+06 937089 0 -1.90231e+06 956918 0 -1.91002e+06 976887 0 -1.91772e+06 996994 0 -1.92538e+06 1.01723e+06 0 -1.93299e+06 1.0376e+06 0 -1.94054e+06 1.05809e+06 0 -1.94801e+06 1.07869e+06 0 -1.95539e+06 1.0994e+06 0 -1.96265e+06 1.1202e+06 0 -1.96978e+06 1.14108e+06 0 -1.97676e+06 1.16203e+06 0 -1.98357e+06 1.18302e+06 0 -1.99019e+06 1.20404e+06 0 -1.99661e+06 1.22507e+06 0 -2.00279e+06 1.24608e+06 0 -2.00872e+06 1.26704e+06 0 -2.01439e+06 1.28792e+06 0 -2.01977e+06 1.30868e+06 0 -2.02484e+06 1.32929e+06 0 -2.02958e+06 1.3497e+06 0 -2.03398e+06 1.36986e+06 0 -2.03803e+06 1.38971e+06 0 -2.04172e+06 1.4092e+06 0 -2.04503e+06 1.42828e+06 0 -2.04797e+06 1.44686e+06 0 -2.05053e+06 1.46488e+06 0 -2.05272e+06 1.48226e+06 0 -2.05456e+06 1.49893e+06 0 -2.05606e+06 1.51479e+06 0 -2.05725e+06 1.52976e+06 0 -2.05816e+06 1.54375e+06 0 -2.05883e+06 1.55667e+06 0 -2.05932e+06 1.56843e+06 0 -2.05967e+06 1.57894e+06 0 -2.05998e+06 1.58809e+06 0 -2.0603e+06 1.59581e+06 0 -2.06072e+06 1.60201e+06 0 -2.06134e+06 1.60661e+06 0 -2.06226e+06 1.60953e+06 0 -2.06359e+06 1.61069e+06 0 -2.06543e+06 1.61005e+06 0 -2.06792e+06 1.60753e+06 0 -2.07116e+06 1.60309e+06 0 -2.07528e+06 1.5967e+06 0 -2.0804e+06 1.58831e+06 0 -2.08665e+06 1.57791e+06 0 -2.09416e+06 1.56549e+06 0 -2.10303e+06 1.55103e+06 0 -2.1134e+06 1.53455e+06 0 -2.12537e+06 1.51605e+06 0 -2.13905e+06 1.49558e+06 0 -2.15456e+06 1.47316e+06 0 -2.17198e+06 1.44886e+06 0 -2.19143e+06 1.42277e+06 0 -2.21301e+06 1.39499e+06 0 -2.2368e+06 1.36567e+06 0 -2.26293e+06 1.33502e+06 0 -2.2915e+06 1.30328e+06 0 -2.32266e+06 1.2709e+06 0 -2.35661e+06 1.23826e+06 0 -2.39357e+06 1.2063e+06 0 -2.43406e+06 1.17563e+06 0 -2.47842e+06 1.14853e+06 0 -2.52826e+06 1.12569e+06 0 -2.58406e+06 1.11363e+06 0 -2.65155e+06 1.11244e+06 0 -2.73069e+06 1.14376e+06 0 -2.84468e+06 1.20915e+06 0 -2.98978e+06 1.40221e+06 0 -3.27722e+06 1.88606e+06 0 -2.71406e+06 3.53617e+06 0 -1.63204e+06 0 0 -1.63233e+06 15311.1 0 -1.6328e+06 30620.5 0 -1.63343e+06 45931.3 0 -1.63423e+06 61246.3 0 -1.63521e+06 76568.5 0 -1.63635e+06 91900.8 0 -1.63766e+06 107246 0 -1.63915e+06 122608 0 -1.6408e+06 137989 0 -1.64263e+06 153391 0 -1.64462e+06 168819 0 -1.64679e+06 184275 0 -1.64912e+06 199762 0 -1.65162e+06 215283 0 -1.65429e+06 230841 0 -1.65713e+06 246440 0 -1.66014e+06 262081 0 -1.66331e+06 277770 0 -1.66664e+06 293507 0 -1.67015e+06 309298 0 -1.67381e+06 325143 0 -1.67764e+06 341048 0 -1.68163e+06 357015 0 -1.68579e+06 373047 0 -1.6901e+06 389147 0 -1.69457e+06 405319 0 -1.6992e+06 421566 0 -1.70398e+06 437890 0 -1.70892e+06 454296 0 -1.71401e+06 470786 0 -1.71925e+06 487364 0 -1.72464e+06 504033 0 -1.73018e+06 520796 0 -1.73586e+06 537656 0 -1.74168e+06 554616 0 -1.74764e+06 571681 0 -1.75374e+06 588852 0 -1.75997e+06 606133 0 -1.76632e+06 623527 0 -1.77281e+06 641038 0 -1.77941e+06 658667 0 -1.78614e+06 676419 0 -1.79298e+06 694295 0 -1.79992e+06 712299 0 -1.80697e+06 730434 0 -1.81412e+06 748700 0 -1.82135e+06 767102 0 -1.82868e+06 785640 0 -1.83608e+06 804317 0 -1.84356e+06 823135 0 -1.85109e+06 842094 0 -1.85869e+06 861195 0 -1.86633e+06 880440 0 -1.87401e+06 899827 0 -1.88172e+06 919357 0 -1.88944e+06 939029 0 -1.89717e+06 958841 0 -1.9049e+06 978790 0 -1.9126e+06 998873 0 -1.92028e+06 1.01909e+06 0 -1.9279e+06 1.03942e+06 0 -1.93547e+06 1.05988e+06 0 -1.94296e+06 1.08044e+06 0 -1.95036e+06 1.10111e+06 0 -1.95765e+06 1.12186e+06 0 -1.96481e+06 1.1427e+06 0 -1.97182e+06 1.16359e+06 0 -1.97867e+06 1.18453e+06 0 -1.98534e+06 1.20549e+06 0 -1.9918e+06 1.22646e+06 0 -1.99804e+06 1.2474e+06 0 -2.00404e+06 1.26829e+06 0 -2.00978e+06 1.28909e+06 0 -2.01523e+06 1.30978e+06 0 -2.02039e+06 1.33031e+06 0 -2.02523e+06 1.35064e+06 0 -2.02973e+06 1.37071e+06 0 -2.0339e+06 1.39048e+06 0 -2.03771e+06 1.4099e+06 0 -2.04116e+06 1.42889e+06 0 -2.04425e+06 1.44739e+06 0 -2.04697e+06 1.46533e+06 0 -2.04934e+06 1.48264e+06 0 -2.05137e+06 1.49923e+06 0 -2.05307e+06 1.51503e+06 0 -2.05447e+06 1.52995e+06 0 -2.0556e+06 1.54389e+06 0 -2.05651e+06 1.55677e+06 0 -2.05725e+06 1.56851e+06 0 -2.05787e+06 1.579e+06 0 -2.05845e+06 1.58815e+06 0 -2.05905e+06 1.59589e+06 0 -2.05976e+06 1.60212e+06 0 -2.06068e+06 1.60676e+06 0 -2.0619e+06 1.60974e+06 0 -2.06353e+06 1.61098e+06 0 -2.06568e+06 1.61043e+06 0 -2.06847e+06 1.60803e+06 0 -2.07202e+06 1.60372e+06 0 -2.07644e+06 1.59748e+06 0 -2.08186e+06 1.58925e+06 0 -2.08841e+06 1.57903e+06 0 -2.09619e+06 1.56679e+06 0 -2.10535e+06 1.55254e+06 0 -2.11597e+06 1.53626e+06 0 -2.1282e+06 1.51799e+06 0 -2.14212e+06 1.49774e+06 0 -2.15784e+06 1.47556e+06 0 -2.17547e+06 1.45151e+06 0 -2.19511e+06 1.42566e+06 0 -2.21684e+06 1.39813e+06 0 -2.24076e+06 1.36906e+06 0 -2.26697e+06 1.33866e+06 0 -2.29559e+06 1.30719e+06 0 -2.32673e+06 1.27507e+06 0 -2.36058e+06 1.24273e+06 0 -2.39736e+06 1.21104e+06 0 -2.43747e+06 1.18077e+06 0 -2.48134e+06 1.15398e+06 0 -2.53022e+06 1.13187e+06 0 -2.5849e+06 1.1202e+06 0 -2.64979e+06 1.12075e+06 0 -2.72614e+06 1.15284e+06 0 -2.83117e+06 1.2232e+06 0 -2.96418e+06 1.4194e+06 0 -3.17881e+06 1.90485e+06 0 -2.53381e+06 3.25819e+06 0 -1.62613e+06 0 0 -1.62646e+06 15376.1 0 -1.62696e+06 30749.9 0 -1.62762e+06 46124.2 0 -1.62846e+06 61501.9 0 -1.62946e+06 76886.1 0 -1.63063e+06 92279.6 0 -1.63198e+06 107685 0 -1.63349e+06 123107 0 -1.63517e+06 138546 0 -1.63702e+06 154006 0 -1.63904e+06 169491 0 -1.64123e+06 185003 0 -1.64358e+06 200545 0 -1.64611e+06 216121 0 -1.6488e+06 231732 0 -1.65166e+06 247383 0 -1.65468e+06 263076 0 -1.65787e+06 278815 0 -1.66122e+06 294602 0 -1.66474e+06 310440 0 -1.66842e+06 326334 0 -1.67227e+06 342285 0 -1.67627e+06 358297 0 -1.68044e+06 374373 0 -1.68476e+06 390516 0 -1.68925e+06 406730 0 -1.69389e+06 423017 0 -1.69868e+06 439381 0 -1.70363e+06 455825 0 -1.70873e+06 472352 0 -1.71398e+06 488965 0 -1.71938e+06 505668 0 -1.72492e+06 522464 0 -1.73061e+06 539356 0 -1.73644e+06 556346 0 -1.7424e+06 573439 0 -1.74851e+06 590637 0 -1.75474e+06 607944 0 -1.7611e+06 625362 0 -1.76759e+06 642895 0 -1.7742e+06 660545 0 -1.78093e+06 678315 0 -1.78777e+06 696208 0 -1.79472e+06 714227 0 -1.80177e+06 732374 0 -1.80892e+06 750652 0 -1.81616e+06 769062 0 -1.82349e+06 787607 0 -1.8309e+06 806288 0 -1.83837e+06 825108 0 -1.84592e+06 844066 0 -1.85352e+06 863165 0 -1.86116e+06 882404 0 -1.86885e+06 901783 0 -1.87656e+06 921302 0 -1.8843e+06 940960 0 -1.89204e+06 960754 0 -1.89977e+06 980683 0 -1.90749e+06 1.00074e+06 0 -1.91518e+06 1.02093e+06 0 -1.92282e+06 1.04124e+06 0 -1.93041e+06 1.06166e+06 0 -1.93792e+06 1.08219e+06 0 -1.94534e+06 1.10281e+06 0 -1.95266e+06 1.12352e+06 0 -1.95985e+06 1.14431e+06 0 -1.9669e+06 1.16515e+06 0 -1.97379e+06 1.18603e+06 0 -1.9805e+06 1.20694e+06 0 -1.98701e+06 1.22784e+06 0 -1.99331e+06 1.24872e+06 0 -1.99937e+06 1.26954e+06 0 -2.00518e+06 1.29027e+06 0 -2.01071e+06 1.31089e+06 0 -2.01595e+06 1.33134e+06 0 -2.02089e+06 1.35159e+06 0 -2.0255e+06 1.37158e+06 0 -2.02978e+06 1.39127e+06 0 -2.03372e+06 1.41061e+06 0 -2.03731e+06 1.42952e+06 0 -2.04054e+06 1.44794e+06 0 -2.04343e+06 1.46581e+06 0 -2.04597e+06 1.48304e+06 0 -2.04818e+06 1.49957e+06 0 -2.05008e+06 1.51531e+06 0 -2.05169e+06 1.53017e+06 0 -2.05306e+06 1.54407e+06 0 -2.0542e+06 1.55692e+06 0 -2.05519e+06 1.56862e+06 0 -2.05607e+06 1.5791e+06 0 -2.05691e+06 1.58826e+06 0 -2.0578e+06 1.59601e+06 0 -2.0588e+06 1.60227e+06 0 -2.06001e+06 1.60696e+06 0 -2.06153e+06 1.61e+06 0 -2.06346e+06 1.61133e+06 0 -2.06591e+06 1.61087e+06 0 -2.06901e+06 1.60858e+06 0 -2.07285e+06 1.60441e+06 0 -2.07758e+06 1.5983e+06 0 -2.08329e+06 1.59024e+06 0 -2.09013e+06 1.58019e+06 0 -2.0982e+06 1.56814e+06 0 -2.10762e+06 1.55409e+06 0 -2.11851e+06 1.53802e+06 0 -2.13098e+06 1.51997e+06 0 -2.14514e+06 1.49995e+06 0 -2.16109e+06 1.478e+06 0 -2.17892e+06 1.45418e+06 0 -2.19874e+06 1.42858e+06 0 -2.22062e+06 1.40129e+06 0 -2.24467e+06 1.37247e+06 0 -2.27097e+06 1.34232e+06 0 -2.29963e+06 1.31111e+06 0 -2.33076e+06 1.27924e+06 0 -2.36451e+06 1.24718e+06 0 -2.40109e+06 1.21576e+06 0 -2.44084e+06 1.18586e+06 0 -2.48418e+06 1.15936e+06 0 -2.53211e+06 1.13792e+06 0 -2.5856e+06 1.12659e+06 0 -2.64793e+06 1.12876e+06 0 -2.72121e+06 1.16132e+06 0 -2.81749e+06 1.23629e+06 0 -2.93731e+06 1.43327e+06 0 -3.08609e+06 1.9128e+06 0 -2.41161e+06 3.03959e+06 0 -1.6202e+06 0 0 -1.62056e+06 15440.8 0 -1.62109e+06 30878.4 0 -1.62179e+06 46315.8 0 -1.62266e+06 61755.9 0 -1.62369e+06 77201.7 0 -1.62489e+06 92656 0 -1.62627e+06 108122 0 -1.62781e+06 123602 0 -1.62952e+06 139100 0 -1.63139e+06 154618 0 -1.63344e+06 170159 0 -1.63565e+06 185727 0 -1.63803e+06 201324 0 -1.64057e+06 216953 0 -1.64328e+06 232618 0 -1.64616e+06 248321 0 -1.6492e+06 264065 0 -1.65241e+06 279854 0 -1.65578e+06 295690 0 -1.65932e+06 311576 0 -1.66302e+06 327517 0 -1.66688e+06 343514 0 -1.6709e+06 359571 0 -1.67508e+06 375691 0 -1.67941e+06 391877 0 -1.68391e+06 408132 0 -1.68856e+06 424460 0 -1.69337e+06 440863 0 -1.69832e+06 457345 0 -1.70343e+06 473908 0 -1.70869e+06 490557 0 -1.7141e+06 507294 0 -1.71965e+06 524123 0 -1.72535e+06 541046 0 -1.73118e+06 558066 0 -1.73715e+06 575188 0 -1.74326e+06 592413 0 -1.7495e+06 609745 0 -1.75587e+06 627187 0 -1.76236e+06 644741 0 -1.76898e+06 662412 0 -1.77571e+06 680200 0 -1.78255e+06 698110 0 -1.78951e+06 716144 0 -1.79656e+06 734304 0 -1.80372e+06 752593 0 -1.81096e+06 771012 0 -1.81829e+06 789563 0 -1.8257e+06 808249 0 -1.83319e+06 827070 0 -1.84074e+06 846029 0 -1.84834e+06 865124 0 -1.85599e+06 884358 0 -1.86369e+06 903729 0 -1.87141e+06 923237 0 -1.87915e+06 942881 0 -1.8869e+06 962659 0 -1.89465e+06 982568 0 -1.90238e+06 1.0026e+06 0 -1.91008e+06 1.02276e+06 0 -1.91774e+06 1.04304e+06 0 -1.92535e+06 1.06343e+06 0 -1.93288e+06 1.08392e+06 0 -1.94033e+06 1.10451e+06 0 -1.94767e+06 1.12518e+06 0 -1.9549e+06 1.14592e+06 0 -1.96198e+06 1.16671e+06 0 -1.96891e+06 1.18754e+06 0 -1.97567e+06 1.20838e+06 0 -1.98224e+06 1.22923e+06 0 -1.98859e+06 1.25004e+06 0 -1.99471e+06 1.27079e+06 0 -2.00059e+06 1.29146e+06 0 -2.0062e+06 1.312e+06 0 -2.01153e+06 1.33238e+06 0 -2.01656e+06 1.35255e+06 0 -2.02128e+06 1.37247e+06 0 -2.02568e+06 1.39208e+06 0 -2.02974e+06 1.41133e+06 0 -2.03347e+06 1.43017e+06 0 -2.03685e+06 1.44852e+06 0 -2.0399e+06 1.46631e+06 0 -2.04261e+06 1.48348e+06 0 -2.04501e+06 1.49994e+06 0 -2.04711e+06 1.51562e+06 0 -2.04893e+06 1.53043e+06 0 -2.05051e+06 1.54428e+06 0 -2.0519e+06 1.5571e+06 0 -2.05313e+06 1.56878e+06 0 -2.05427e+06 1.57925e+06 0 -2.05538e+06 1.58841e+06 0 -2.05654e+06 1.59618e+06 0 -2.05782e+06 1.60247e+06 0 -2.05932e+06 1.60721e+06 0 -2.06114e+06 1.61031e+06 0 -2.06337e+06 1.61172e+06 0 -2.06613e+06 1.61136e+06 0 -2.06952e+06 1.60918e+06 0 -2.07367e+06 1.60514e+06 0 -2.07869e+06 1.59918e+06 0 -2.0847e+06 1.59128e+06 0 -2.09182e+06 1.5814e+06 0 -2.10017e+06 1.56954e+06 0 -2.10986e+06 1.55568e+06 0 -2.12102e+06 1.53983e+06 0 -2.13374e+06 1.52199e+06 0 -2.14813e+06 1.50219e+06 0 -2.1643e+06 1.48048e+06 0 -2.18233e+06 1.4569e+06 0 -2.20233e+06 1.43153e+06 0 -2.22437e+06 1.40448e+06 0 -2.24854e+06 1.37591e+06 0 -2.27493e+06 1.346e+06 0 -2.30363e+06 1.31504e+06 0 -2.33474e+06 1.28341e+06 0 -2.36839e+06 1.25162e+06 0 -2.40477e+06 1.22045e+06 0 -2.44416e+06 1.1909e+06 0 -2.48696e+06 1.16468e+06 0 -2.53395e+06 1.14381e+06 0 -2.58616e+06 1.13283e+06 0 -2.646e+06 1.13636e+06 0 -2.71594e+06 1.16934e+06 0 -2.80376e+06 1.24808e+06 0 -2.90946e+06 1.44442e+06 0 -3.00061e+06 1.91166e+06 0 -2.32528e+06 2.86068e+06 0 -1.61424e+06 0 0 -1.61464e+06 15504.9 0 -1.6152e+06 31006 0 -1.61593e+06 46506.2 0 -1.61683e+06 62008.3 0 -1.6179e+06 77515.2 0 -1.61913e+06 93030 0 -1.62053e+06 108555 0 -1.6221e+06 124095 0 -1.62384e+06 139650 0 -1.62574e+06 155225 0 -1.62781e+06 170823 0 -1.63004e+06 186446 0 -1.63245e+06 202098 0 -1.63501e+06 217780 0 -1.63775e+06 233498 0 -1.64065e+06 249252 0 -1.64371e+06 265047 0 -1.64693e+06 280886 0 -1.65032e+06 296771 0 -1.65388e+06 312706 0 -1.65759e+06 328693 0 -1.66147e+06 344736 0 -1.6655e+06 360837 0 -1.66969e+06 377001 0 -1.67405e+06 393229 0 -1.67855e+06 409526 0 -1.68322e+06 425894 0 -1.68803e+06 442336 0 -1.693e+06 458855 0 -1.69812e+06 475456 0 -1.70339e+06 492140 0 -1.70881e+06 508911 0 -1.71437e+06 525772 0 -1.72007e+06 542726 0 -1.72591e+06 559776 0 -1.73189e+06 576926 0 -1.73801e+06 594178 0 -1.74425e+06 611535 0 -1.75063e+06 629001 0 -1.75713e+06 646577 0 -1.76375e+06 664268 0 -1.77048e+06 682075 0 -1.77733e+06 700002 0 -1.78429e+06 718051 0 -1.79135e+06 736223 0 -1.79851e+06 754523 0 -1.80576e+06 772951 0 -1.81309e+06 791509 0 -1.82051e+06 810199 0 -1.828e+06 829023 0 -1.83555e+06 847981 0 -1.84316e+06 867074 0 -1.85082e+06 886302 0 -1.85852e+06 905665 0 -1.86625e+06 925162 0 -1.874e+06 944793 0 -1.88176e+06 964555 0 -1.88952e+06 984444 0 -1.89727e+06 1.00446e+06 0 -1.90499e+06 1.02459e+06 0 -1.91267e+06 1.04484e+06 0 -1.92029e+06 1.0652e+06 0 -1.92785e+06 1.08566e+06 0 -1.93532e+06 1.1062e+06 0 -1.94269e+06 1.12683e+06 0 -1.94995e+06 1.14752e+06 0 -1.95707e+06 1.16826e+06 0 -1.96405e+06 