<?xml version="1.0"?> 
<VTKFile type="StructuredGrid" version="0.1"> 
<StructuredGrid WholeExtent="0 127 0 127 0 0"> 
<Piece Extent="0 127 0 127 0 0"> 
<PointData>
<DataArray type="Float32" Name="|E|" format="ascii" NumberOfComponents="3"> 
1776.35 1.23978e-05 0 345.47 -483.082 0 213.439 -461.744 0 123.111 -344.35 0 60.5747 -340.308 0 22.206 -284.371 0 -9.59414 -265.614 0 -30.7324 -232.415 0 -48.0195 -211.79 0 -60.023 -188.272 0 -69.3588 -169.714 0 -75.7909 -151.478 0 -80.3854 -135.74 0 -83.2565 -121.069 0 -84.8918 -108 0 -85.4594 -96.0478 0 -85.2159 -85.2913 0 -84.304 -75.5279 0 -82.876 -66.7196 0 -81.0379 -58.7544 0 -78.8873 -51.5714 0 -76.4993 -45.0932 0 -73.939 -39.2603 0 -71.2586 -34.0126 0 -68.5019 -29.298 0 -65.7047 -25.0676 0 -62.8964 -21.2771 0 -60.1009 -17.8858 0 -57.3377 -14.8568 0 -54.6225 -12.1562 0 -51.9675 -9.75295 0 -49.3824 -7.61894 0 -46.8746 -5.72842 0 -44.4495 -4.0579 0 -42.1109 -2.586 0 -39.8614 -1.29324 0 -37.7022 -0.16191 0 -35.6339 0.824146 0 -33.6561 1.67957 0 -31.7678 2.41769 0 -29.9676 3.0506 0 -28.2536 3.58928 0 -26.6236 4.04368 0 -25.0752 4.42281 0 -23.6057 4.73485 0 -22.2124 4.98718 0 -20.8925 5.18649 0 -19.6431 5.3388 0 -18.4612 5.44958 0 -17.344 5.52372 0 -16.2885 5.56568 0 -15.292 5.57942 0 -14.3516 5.56853 0 -13.4646 5.53624 0 -12.6284 5.48544 0 -11.8404 5.41872 0 -11.0981 5.3384 0 -10.3993 5.24656 0 -9.74146 5.14504 0 -9.12256 5.03551 0 -8.54045 4.91942 0 -7.99312 4.79809 0 -7.47865 4.67267 0 -6.99521 4.54419 0 -6.54107 4.41356 0 -6.11457 4.28156 0 -5.71413 4.1489 0 -5.33828 4.01618 0 -4.98559 3.88394 0 -4.65472 3.75264 0 -4.3444 3.62267 0 -4.05344 3.49437 0 -3.78069 3.36805 0 -3.52508 3.24393 0 -3.2856 3.12222 0 -3.06129 3.0031 0 -2.85124 2.88669 0 -2.6546 2.7731 0 -2.47056 2.66242 0 -2.29837 2.5547 0 -2.1373 2.44998 0 -1.98668 2.3483 0 -1.84588 2.24964 0 -1.71429 2.154 0 -1.59135 2.06137 0 -1.47653 1.97171 0 -1.36934 1.88499 0 -1.26928 1.80116 0 -1.17593 1.72017 0 -1.08886 1.64196 0 -1.00768 1.56647 0 -0.932027 1.49363 0 -0.861545 1.42338 0 -0.795907 1.35563 0 -0.734806 1.29032 0 -0.677952 1.22737 0 -0.625072 1.1667 0 -0.575909 1.10823 0 -0.53022 1.05188 0 -0.487778 0.997577 0 -0.448371 0.945241 0 -0.411792 0.894787 0 -0.377857 0.846134 0 -0.346384 0.799216 0 -0.317204 0.753942 0 -0.290159 0.710239 0 -0.265097 0.668033 0 -0.24188 0.627243 0 -0.220371 0.587799 0 -0.200445 0.549622 0 -0.181981 0.512644 0 -0.164869 0.476785 0 -0.148998 0.441987 0 -0.134265 0.408163 0 -0.120576 0.375253 0 -0.107839 0.343187 0 -0.0959613 0.311895 0 -0.0848616 0.28131 0 -0.0744588 0.251367 0 -0.0646704 0.222004 0 -0.0554273 0.193141 0 -0.0466535 0.164729 0 -0.0382762 0.136696 0 -0.0302299 0.108978 0 -0.0224441 0.0815143 0 -0.0148548 0.0542362 0 -0.00739548 0.027088 0 0 3.33786e-06 0 1252.79 -1.96969e-06 0 420.28 -466.052 0 224.719 -411.82 0 134.204 -353.667 0 70.064 -321.555 0 29.0012 -286.268 0 -2.83137 -258.439 0 -25.4683 -232.222 0 -42.9387 -209.014 0 -55.7752 -187.938 0 -65.3992 -168.785 0 -72.345 -151.466 0 -77.2369 -135.683 0 -80.4645 -121.396 0 -82.3661 -108.398 0 -83.2032 -96.625 0 -83.1857 -85.9393 0 -82.4874 -76.2649 0 -81.2474 -67.503 0 -79.5823 -59.5803 0 -77.5869 -52.4199 0 -75.3405 -45.9568 0 -72.9079 -40.1283 0 -70.3435 -34.8786 0 -67.6917 -30.1557 0 -64.9895 -25.9123 0 -62.2672 -22.105 0 -59.5495 -18.6939 0 -56.8566 -15.6428 0 -54.2047 -12.9182 0 -51.6069 -10.4897 0 -49.0733 -8.32962 0 -46.6119 -6.41243 0 -44.2284 -4.71497 0 -41.9272 -3.2161 0 -39.7111 -1.89653 0 -37.5818 -0.738692 0 -35.5402 0.273412 0 -33.5861 1.15434 0 -31.7189 1.91733 0 -29.9374 2.57442 0 -28.2399 3.13653 0 -26.6244 3.61357 0 -25.0887 4.01455 0 -23.6304 4.34761 0 -22.2468 4.62014 0 -20.9353 4.83882 0 -19.693 5.00969 0 -18.5172 5.13821 0 -17.4051 5.22931 0 -16.354 5.28743 0 -15.3609 5.31658 0 -14.4234 5.32037 0 -13.5386 5.30204 0 -12.7041 5.26451 0 -11.9173 5.2104 0 -11.1758 5.14204 0 -10.4773 5.06155 0 -9.8196 4.97079 0 -9.20048 4.87145 0 -8.61788 4.76502 0 -8.06984 4.65283 0 -7.55447 4.53605 0 -7.06997 4.41575 0 -6.61462 4.29285 0 -6.1868 4.16815 0 -5.78494 4.04239 0 -5.40759 3.91619 0 -5.05332 3.7901 0 -4.72083 3.6646 0 -4.40885 3.54011 0 -4.1162 3.41698 0 -3.84174 3.29552 0 -3.58441 3.17599 0 -3.34321 3.05861 0 -3.11717 2.94357 0 -2.90541 2.831 0 -2.70707 2.72103 0 -2.52136 2.61375 0 -2.34751 2.50924 0 -2.18481 2.40754 0 -2.03259 2.30868 0 -1.89022 2.21269 0 -1.7571 2.11956 0 -1.63266 2.02929 0 -1.51638 1.94185 0 -1.40776 1.85722 0 -1.30632 1.77535 0 -1.21162 1.6962 0 -1.12325 1.61971 0 -1.04081 1.54585 0 -0.963925 1.47453 0 -0.892259 1.4057 0 -0.825476 1.33929 0 -0.763273 1.27524 0 -0.705355 1.21346 0 -0.651452 1.15389 0 -0.601305 1.09645 0 -0.554671 1.04107 0 -0.511323 0.987673 0 -0.471047 0.936179 0 -0.43364 0.886515 0 -0.398911 0.838603 0 -0.366682 0.79237 0 -0.336783 0.747738 0 -0.309054 0.704636 0 -0.283345 0.662986 0 -0.259514 0.622716 0 -0.237427 0.583753 0 -0.216956 0.546024 0 -0.197983 0.509458 0 -0.180393 0.473986 0 -0.164078 0.439535 0 -0.148935 0.40604 0 -0.134868 0.373428 0 -0.121783 0.341634 0 -0.109592 0.310591 0 -0.0982111 0.28023 0 -0.0875576 0.25049 0 -0.0775537 0.221301 0 -0.0681239 0.192601 0 -0.0591959 0.164325 0 -0.0506984 0.136408 0 -0.0425626 0.108787 0 -0.0347208 0.0813994 0 -0.027108 0.0541803 0 -0.0196582 0.0270689 0 -0.0123068 -1.79847e-07 0 947.895 -1.07102e-08 0 452.738 -419.18 0 238.644 -382.41 0 144.048 -347.76 0 78.899 -311.129 0 35.8205 -282.637 0 3.49298 -254.095 0 -20.15 -230.064 0 -38.0819 -207.117 0 -51.5145 -186.886 0 -61.5453 -168.084 0 -68.9045 -151.169 0 -74.1362 -135.65 0 -77.68 -121.588 0 -79.8603 -108.764 0 -80.9506 -97.1247 0 -81.1613 -86.5449 0 -80.6696 -76.9491 0 -79.617 -68.2471 0 -78.1217 -60.3664 0 -76.2805 -53.235 0 -74.1738 -46.7891 0 -71.8681 -40.9689 0 -69.4188 -35.7197 0 -66.8715 -30.9912 0 -64.2639 -26.7371 0 -61.6273 -22.9151 0 -58.9872 -19.4861 0 -56.3645 -16.4145 0 -53.7761 -13.6675 0 -51.2356 -11.2153 0 -48.7536 -9.03033 0 -46.3387 -7.08765 0 -43.9971 -5.36432 0 -41.7335 -3.83944 0 -39.5511 -2.49393 0 -37.4521 -1.31038 0 -35.4374 -0.272928 0 -33.5074 0.632863 0 -31.6617 1.42015 0 -29.8991 2.10088 0 -28.2185 2.68595 0 -26.6178 3.18522 0 -25.0952 3.60767 0 -23.6483 3.96142 0 -22.2747 4.25384 0 -20.9718 4.49163 0 -19.737 4.68081 0 -18.5676 4.82686 0 -17.461 4.93472 0 -16.4143 5.00885 0 -15.4251 5.05327 0 -14.4906 5.07161 0 -13.6083 5.06713 0 -12.7757 5.04278 0 -11.9903 5.00119 0 -11.2498 4.94473 0 -10.5519 4.87553 0 -9.89445 4.79548 0 -9.27527 4.7063 0 -8.69236 4.60949 0 -8.14378 4.50642 0 -7.62766 4.39828 0 -7.14225 4.28614 0 -6.68584 4.17096 0 -6.25682 4.05357 0 -5.85367 3.93471 0 -5.47493 3.81503 0 -5.11921 3.6951 0 -4.7852 3.57542 0 -4.47166 3.45642 0 -4.17741 3.33848 0 -3.90133 3.22191 0 -3.64237 3.10699 0 -3.39952 2.99396 0 -3.17184 2.88301 0 -2.95844 2.77431 0 -2.75847 2.66798 0 -2.57114 2.56413 0 -2.3957 2.46284 0 -2.23143 2.36419 0 -2.07767 2.26819 0 -1.93378 2.1749 0 -1.79918 2.0843 0 -1.67329 1.99642 0 -1.55559 1.91122 0 -1.44558 1.82869 0 -1.3428 1.7488 0 -1.24679 1.67152 0 -1.15714 1.59679 0 -1.07347 1.52456 0 -0.995394 1.45479 0 -0.922571 1.38741 0 -0.854672 1.32236 0 -0.79139 1.25958 0 -0.732432 1.19901 0 -0.677528 1.14056 0 -0.626417 1.08417 0 -0.578859 1.02978 0 -0.534623 0.977303 0 -0.493497 0.926673 0 -0.455275 0.877818 0 -0.419769 0.830663 0 -0.386799 0.785137 0 -0.356194 0.741166 0 -0.327794 0.69868 0 -0.301448 0.657605 0 -0.277015 0.61787 0 -0.25436 0.579406 0 -0.233355 0.542141 0 -0.21388 0.506006 0 -0.195821 0.470932 0 -0.17907 0.436851 0 -0.163523 0.403696 0 -0.149085 0.371398 0 -0.135661 0.339892 0 -0.123163 0.309112 0 -0.111506 0.278991 0 -0.100608 0.249467 0 -0.0903915 0.220473 0 -0.0807814 0.191947 0 -0.0717044 0.163823 0 -0.0630904 0.136039 0 -0.0548701 0.108531 0 -0.0469766 0.0812367 0 -0.0393448 0.0540913 0 -0.0319086 0.0270338 0 -0.0246058 4.7253e-07 0 762.509 -3.22238e-07 0 460.806 -365.213 0 251.757 -359.63 0 152.944 -336.143 0 87.1198 -303.132 0 42.4675 -277.15 0 9.52338 -250.374 0 -14.9129 -227.283 0 -33.3658 -205.308 0 -47.3081 -185.589 0 -57.7603 -167.336 0 -65.4995 -150.749 0 -71.0697 -135.549 0 -74.9157 -121.701 0 -77.3703 -109.067 0 -78.7071 -97.565 0 -79.1422 -87.0988 0 -78.8534 -77.5862 0 -77.9853 -68.949 0 -76.6575 -61.1145 0 -74.9686 -54.0159 0 -73.0003 -47.5908 0 -70.8204 -41.7818 0 -68.4854 -36.5359 0 -66.0418 -31.8043 0 -63.5284 -27.5418 0 -60.9772 -23.7072 0 -58.4145 -20.2621 0 -55.8619 -17.1718 0 -53.3369 -14.404 0 -50.8538 -11.9294 0 -48.4236 -9.72093 0 -46.0554 -7.75392 0 -43.7559 -6.00578 0 -41.5301 -4.45585 0 -39.3818 -3.08526 0 -37.3132 -1.87679 0 -35.3258 -0.814721 0 -33.4202 0.115283 0 -31.5962 0.926274 0 -29.853 1.63014 0 -28.1894 2.23769 0 -26.604 2.75876 0 -25.0947 3.20229 0 -23.6595 3.57638 0 -22.2962 3.8884 0 -21.0022 4.14501 0 -19.7752 4.35226 0 -18.6125 4.51563 0 -17.5115 4.64006 0 -16.4697 4.73003 0 -15.4845 4.78957 0 -14.5533 4.82233 0 -13.6737 4.83159 0 -12.8432 4.82032 0 -12.0594 4.79117 0 -11.3201 4.74654 0 -10.623 4.68857 0 -9.966 4.61919 0 -9.34694 4.54012 0 -8.76389 4.45291 0 -8.21492 4.35893 0 -7.69822 4.2594 0 -7.21203 4.15542 0 -6.75469 4.04795 0 -6.32462 3.93786 0 -5.9203 3.82591 0 -5.54029 3.71276 0 -5.18322 3.599 0 -4.84781 3.48514 0 -4.53281 3.37165 0 -4.23706 3.2589 0 -3.95945 3.14724 0 -3.69893 3.03695 0 -3.45452 2.92829 0 -3.22528 2.82146 0 -3.01031 2.71664 0 -2.80878 2.61397 0 -2.61991 2.51358 0 -2.44293 2.41554 0 -2.27715 2.31995 0 -2.1219 2.22685 0 -1.97655 2.13627 0 -1.84051 2.04823 0 -1.71321 1.96275 0 -1.59414 1.87982 0 -1.48279 1.79943 0 -1.37869 1.72155 0 -1.28142 1.64615 0 -1.19053 1.57319 0 -1.10566 1.50263 0 -1.02642 1.43443 0 -0.952468 1.36852 0 -0.883479 1.30486 0 -0.819144 1.24337 0 -0.759171 1.18401 0 -0.703288 1.12671 0 -0.651235 1.0714 0 -0.602772 1.01801 0 -0.557667 0.966475 0 -0.515708 0.916729 0 -0.476689 0.868701 0 -0.440421 0.822322 0 -0.406723 0.777521 0 -0.375426 0.734228 0 -0.346367 0.692376 0 -0.319398 0.651893 0 -0.294374 0.612711 0 -0.27116 0.574762 0 -0.249631 0.537976 0 -0.229664 0.502288 0 -0.211145 0.467629 0 -0.193966 0.433934 0 -0.178023 0.401134 0 -0.163221 0.369165 0 -0.149464 0.337963 0 -0.136664 0.307461 0 -0.124737 0.277596 0 -0.113601 0.248303 0 -0.103178 0.219519 0 -0.0933917 0.191181 0 -0.0841712 0.163226 0 -0.0754452 0.13559 0 -0.0671449 0.10821 0 -0.0592042 0.0810245 0 -0.0515576 0.0539696 0 -0.04414 0.0269822 0 -0.0368888 -3.66825e-07 0 643.608 6.72182e-07 0 455.055 -314.08 0 262.405 -338.153 0 160.971 -322.682 0 94.7125 -295.371 0 48.8586 -271.123 0 15.2992 -246.55 0 -9.80619 -224.298 0 -28.7707 -203.364 0 -43.1784 -184.178 0 -54.0382 -166.478 0 -62.1392 -150.243 0 -68.0366 -135.363 0 -72.1759 -121.745 0 -74.8972 -109.305 0 -76.475 -97.9489 0 -77.1296 -87.6002 0 -77.0401 -78.1773 0 -76.3535 -69.6088 0 -75.1909 -61.8251 0 -73.6523 -54.7627 0 -71.8209 -48.3617 0 -69.7656 -42.567 0 -67.5438 -37.3272 0 -65.2033 -32.5949 0 -62.7835 -28.3264 0 -60.3173 -24.4811 0 -57.8318 -21.022 0 -55.3492 -17.9146 0 -52.8877 -15.1276 0 -50.4619 -12.632 0 -48.0836 -10.4012 0 -45.7622 -8.41107 0 -43.505 -6.63918 0 -41.3173 -5.06517 0 -39.2031 -3.67039 0 -37.1653 -2.43779 0 -35.2055 -1.35181 0 -33.3245 -0.398241 0 -31.5225 0.435868 0 -29.799 1.16233 0 -28.1529 1.79188 0 -26.5829 2.33433 0 -25.0873 2.79855 0 -23.6641 3.19263 0 -22.3113 3.52393 0 -21.0266 3.79909 0 -19.8076 4.02417 0 -18.6518 4.20463 0 -17.5568 4.34544 0 -16.52 4.45107 0 -15.5391 4.52557 0 -14.6115 4.57262 0 -13.7348 4.59551 0 -12.9066 4.59722 0 -12.1247 4.58042 0 -11.3868 4.54754 0 -10.6907 4.50075 0 -10.0342 4.44198 0 -9.41548 4.37299 0 -8.83245 4.29533 0 -8.28326 4.21041 0 -7.76611 4.11947 0 -7.2793 4.02363 0 -6.82117 3.92387 0 -6.39017 3.82108 0 -5.9848 3.71603 0 -5.60365 3.6094 0 -5.24535 3.50182 0 -4.90863 3.3938 0 -4.59227 3.28582 0 -4.29512 3.17828 0 -4.01607 3.07154 0 -3.75409 2.9659 0 -3.5082 2.86163 0 -3.27746 2.75894 0 -3.061 2.65802 0 -2.85799 2.55904 0 -2.66763 2.46212 0 -2.48918 2.36736 0 -2.32195 2.27485 0 -2.16526 2.18466 0 -2.0185 2.09682 0 -1.88107 2.01137 0 -1.75242 1.92832 0 -1.63201 1.84768 0 -1.51936 1.76944 0 -1.414 1.69359 0 -1.31548 1.6201 0 -1.2234 1.54893 0 -1.13736 1.48007 0 -1.05698 1.41345 0 -0.981936 1.34904 0 -0.911885 1.28677 0 -0.846523 1.22661 0 -0.785559 1.16849 0 -0.72872 1.11235 0 -0.675747 1.05813 0 -0.626398 1.00577 0 -0.580444 0.955195 0 -0.537669 0.906351 0 -0.49787 0.85917 0 -0.460856 0.813583 0 -0.426446 0.769525 0 -0.39447 0.726928 0 -0.364766 0.685727 0 -0.337184 0.645853 0 -0.311581 0.60724 0 -0.287821 0.569822 0 -0.265776 0.533534 0 -0.245326 0.498308 0 -0.226356 0.46408 0 -0.208757 0.430784 0 -0.192427 0.398356 0 -0.177267 0.366732 0 -0.163184 0.335848 0 -0.150089 0.305639 0 -0.137898 0.276044 0 -0.126529 0.246998 0 -0.115904 0.21844 0 -0.105948 0.190306 0 -0.0965886 0.162534 0 -0.0877553 0.135061 0 -0.0793799 0.107826 0 -0.0713961 0.0807643 0 -0.0637391 0.0538147 0 -0.056344 0.0269147 0 -0.0491498 3.39875e-07 0 562.614 -1.26427e-07 0 441.79 -269.254 0 269.978 -316.538 0 168.101 -308.749 0 101.655 -287.217 0 54.9502 -264.931 0 20.8249 -242.46 0 -4.85075 -221.204 0 -24.296 -201.25 0 -39.1342 -182.672 0 -50.3808 -165.505 0 -58.8277 -149.655 0 -65.0396 -135.093 0 -69.463 -121.721 0 -72.4429 -109.477 0 -74.2561 -98.2768 0 -75.1251 -88.05 0 -75.2311 -78.7223 0 -74.7228 -70.2268 0 -73.7228 -62.498 0 -72.3326 -55.4755 0 -70.6364 -49.102 0 -68.7044 -43.3245 0 -66.5949 -38.0935 0 -64.3566 -33.3631 0 -62.0299 -29.0907 0 -59.6483 -25.2369 0 -57.2397 -21.7654 0 -54.8269 -18.6427 0 -52.4286 -15.838 0 -50.0602 -13.3228 0 -47.7339 -11.0711 0 -45.4595 -9.05896 0 -43.2446 -7.26437 0 -41.0951 -5.66724 0 -39.0155 -4.24914 0 -37.0086 -2.99321 0 -35.0766 -1.88404 0 -33.2206 -0.907565 0 -31.4409 -0.0509269 0 -29.7372 0.697591 0 -28.1089 1.34867 0 -26.5546 1.91205 0 -25.073 2.39657 0 -23.6621 2.8103 0 -22.3202 3.16056 0 -21.045 3.45399 0 -19.8342 3.69664 0 -18.6856 3.89397 0 -17.5968 4.05095 0 -16.5653 4.17207 0 -15.5889 4.26139 0 -14.6651 4.32258 0 -13.7915 4.35897 0 -12.966 4.37355 0 -12.1861 4.36902 0 -11.4497 4.34782 0 -10.7548 4.31213 0 -10.0992 4.26391 0 -9.48088 4.20495 0 -8.89803 4.13681 0 -8.34877 4.06092 0 -7.83134 3.97855 0 -7.34404 3.89083 0 -6.88527 3.79877 0 -6.45347 3.70326 0 -6.04718 3.60511 0 -5.66499 3.50501 0 -5.30557 3.40361 0 -4.96766 3.30143 0 -4.65004 3.19898 0 -4.35157 3.09666 0 -4.07118 2.99486 0 -3.80782 2.89388 0 -3.56053 2.794 0 -3.32838 2.69547 0 -3.1105 2.59848 0 -2.90607 2.5032 0 -2.71429 2.40977 0 -2.53444 2.31831 0 -2.36581 2.22891 0 -2.20774 2.14164 0 -2.05962 2.05657 0 -1.92085 1.97372 0 -1.79089 1.89313 0 -1.6692 1.8148 0 -1.55529 1.73874 0 -1.4487 1.66494 0 -1.34898 1.59338 0 -1.25573 1.52403 0 -1.16855 1.45687 0 -1.08708 1.39187 0 -1.01096 1.32897 0 -0.939878 1.26813 0 -0.873515 1.20931 0 -0.811585 1.15244 0 -0.753813 1.09749 0 -0.699942 1.04438 0 -0.649728 0.993058 0 -0.602943 0.943468 0 -0.559371 0.895546 0 -0.518809 0.849228 0 -0.481064 0.804451 0 -0.445957 0.761154 0 -0.413316 0.71927 0 -0.38298 0.678736 0 -0.354799 0.639488 0 -0.328627 0.601461 0 -0.304331 0.564591 0 -0.281782 0.528814 0 -0.260858 0.494066 0 -0.241446 0.460284 0 -0.223436 0.427404 0 -0.206725 0.395363 0 -0.191215 0.364099 0 -0.176813 0.333547 0 -0.163431 0.303648 0 -0.150982 0.274337 0 -0.139386 0.245554 0 -0.128565 0.217235 0 -0.118443 0.189321 0 -0.10895 0.161747 0 -0.100014 0.134453 0 -0.0915674 0.107377 0 -0.0835452 0.0804557 0 -0.0758817 0.0536278 0 -0.0685141 0.02683 0 -0.0613781 -6.21425e-07 0 503.992 1.41561e-07 0 424.737 -231.373 0 274.476 -294.795 0 174.259 -294.788 0 107.941 -278.603 0 60.7081 -258.643 0 26.0973 -238.115 0 -0.0598809 -218.004 0 -19.9459 -198.982 0 -35.1812 -181.068 0 -46.7921 -164.427 0 -55.5683 -148.985 0 -62.0813 -134.744 0 -66.779 -121.628 0 -70.0096 -109.587 0 -72.0519 -98.5487 0 -73.1303 -88.4492 0 -73.4277 -79.2217 0 -73.0945 -70.8035 0 -72.2545 -63.1336 0 -71.0104 -56.1545 0 -69.4477 -49.8117 0 -67.6376 -44.0544 0 -65.6393 -38.8349 0 -63.5024 -34.1088 0 -61.2681 -29.8347 0 -58.9706 -25.9744 0 -56.6385 -22.4924 0 -54.2953 -19.3561 0 -51.9602 -16.5352 0 -49.6491 -14.0018 0 -47.3748 -11.7304 0 -45.1474 -9.69744 0 -42.975 -7.88122 0 -40.864 -6.26192 0 -38.819 -4.82137 0 -36.8433 -3.5429 0 -34.9394 -2.41127 0 -33.1085 -1.41254 0 -31.3514 -0.533971 0 -29.6679 0.236068 0 -28.0575 0.908187 0 -26.5193 1.49206 0 -25.0519 1.99649 0 -23.6536 2.4295 0 -22.3228 2.7984 0 -21.0573 3.10982 0 -19.8551 3.36978 0 -18.714 3.58375 0 -17.6316 3.7567 0 -16.6057 3.89312 0 -15.634 3.99709 0 -14.7142 4.0723 0 -13.844 4.12206 0 -13.0212 4.14941 0 -12.2436 4.15705 0 -11.509 4.14744 0 -10.8154 4.12278 0 -10.1608 4.08506 0 -9.54312 4.03607 0 -8.96062 3.97741 0 -8.41146 3.91052 0 -7.89388 3.83669 0 -7.40625 3.75707 0 -6.94696 3.67268 0 -6.51449 3.58445 0 -6.1074 3.49319 0 -5.7243 3.39963 0 -5.36387 3.3044 0 -5.02486 3.20808 0 -4.70609 3.11115 0 -4.40641 3.01407 0 -4.12476 2.91721 0 -3.86011 2.8209 0 -3.6115 2.72544 0 -3.37802 2.63108 0 -3.15879 2.53803 0 -2.95301 2.44647 0 -2.75988 2.35656 0 -2.57868 2.26841 0 -2.40871 2.18214 0 -2.24933 2.09783 0 -2.0999 2.01554 0 -1.95984 1.93532 0 -1.82861 1.8572 0 -1.70568 1.7812 0 -1.59055 1.70734 0 -1.48277 1.63561 0 -1.3819 1.566 0 -1.28751 1.49849 0 -1.19923 1.43307 0 -1.11669 1.36969 0 -1.03954 1.30832 0 -0.967444 1.24893 0 -0.900108 1.19147 0 -0.837235 1.13588 0 -0.778554 1.08213 0 -0.723807 1.03015 0 -0.672749 0.979891 0 -0.625154 0.9313 0 -0.580803 0.884316 0 -0.539495 0.83888 0 -0.501036 0.794932 0 -0.465246 0.752412 0 -0.431956 0.711257 0 -0.401001 0.671408 0 -0.372233 0.632802 0 -0.345505 0.595376 0 -0.320684 0.559069 0 -0.29764 0.52382 0 -0.276253 0.489565 0 -0.256408 0.456244 0 -0.237995 0.423796 0 -0.220911 0.392156 0 -0.205059 0.361267 0 -0.190346 0.331064 0 -0.176681 0.301487 0 -0.163981 0.272477 0 -0.152163 0.24397 0 -0.141151 0.215906 0 -0.13087 0.188225 0 -0.121247 0.160865 0 -0.112213 0.133765 0 -0.103701 0.106863 0 -0.0956439 0.0800984 0 -0.0879786 0.0534076 0 -0.0806415 0.0267294 0 -0.0735737 3.19211e-07 0 459.141 4.79631e-08 0 406.089 -199.887 0 276.205 -273.377 0 179.379 -280.932 0 113.57 -269.628 0 66.105 -252.248 0 31.1116 -233.559 0 4.55606 -214.687 0 -15.7253 -196.581 0 -31.3242 -179.363 0 -43.2756 -163.252 0 -52.3637 -148.231 0 -59.1645 -134.319 0 -64.1261 -121.468 0 -67.5993 -109.636 0 -69.8641 -98.7654 0 -71.1466 -88.7985 0 -71.6313 -79.6759 0 -71.4696 -71.3393 0 -70.7868 -63.7321 0 -69.6866 -56.7999 0 -68.2556 -50.491 0 -66.5659 -44.7568 0 -64.6777 -39.5514 0 -62.6413 -34.8319 0 -60.4986 -30.5583 0 -58.2848 -26.6935 0 -56.0288 -23.2029 0 -53.7549 -20.0546 0 -51.4828 -17.219 0 -49.229 -14.6689 0 -47.0066 -12.379 0 -44.8263 -10.3264 0 -42.6965 -8.48956 0 -40.6241 -6.84907 0 -38.6138 -5.38695 0 -36.6696 -4.08674 0 -34.7939 -2.93337 0 -32.9885 -1.91304 0 -31.2541 -1.01313 0 -29.5911 -0.222107 0 -27.999 0.47056 0 -26.477 1.07448 0 -25.0241 1.59842 0 -23.6387 2.05036 0 -22.3192 2.43758 0 -21.0638 2.76669 0 -19.8704 3.0437 0 -18.7369 3.27408 0 -17.6612 3.46279 0 -16.6411 3.61433 0 -15.6744 3.73279 0 -14.7588 3.82185 0 -13.8922 3.88487 0 -13.0724 3.92487 0 -12.2972 3.94458 0 -11.5646 3.94648 0 -10.8725 3.93278 0 -10.219 3.90549 0 -9.60221 3.86642 0 -9.02022 3.8172 0 -8.4713 3.75927 0 -7.95374 3.69394 0 -7.4659 3.6224 0 -7.00623 3.54567 0 -6.57322 3.46471 0 -6.16545 3.38033 0 -5.78156 3.29329 0 -5.42023 3.20424 0 -5.08024 3.11377 0 -4.76041 3.02238 0 -4.45961 2.93053 0 -4.17679 2.83863 0 -3.91094 2.74701 0 -3.6611 2.65598 0 -3.42635 2.56581 0 -3.20586 2.47671 0 -2.99878 2.38889 0 -2.80437 2.30251 0 -2.62189 2.2177 0 -2.45065 2.13457 0 -2.28999 2.05323 0 -2.13931 1.97374 0 -1.99802 1.89617 0 -1.86557 1.82054 0 -1.74144 1.7469 0 -1.62514 1.67526 0 -1.51621 1.60562 0 -1.41421 1.53798 0 -1.31873 1.47233 0 -1.22939 1.40866 0 -1.14581 1.34693 0 -1.06764 1.28712 0 -0.994573 1.22919 0 -0.926288 1.1731 0 -0.8625 1.11881 0 -0.802934 1.06628 0 -0.747332 1.01545 0 -0.695452 0.966272 0 -0.647065 0.918698 0 -0.601955 0.87267 0 -0.559918 0.828133 0 -0.520762 0.78503 0 -0.484305 0.743303 0 -0.450379 0.702895 0 -0.41882 0.663746 0 -0.389477 0.625797 0 -0.362205 0.588988 0 -0.33687 0.553261 0 -0.313343 0.518554 0 -0.291502 0.484809 0 -0.271232 0.451964 0 -0.252426 0.419961 0 -0.234978 0.388739 0 -0.218791 0.358238 0 -0.203772 0.328398 0 -0.189832 0.29916 0 -0.176887 0.270463 0 -0.164854 0.242248 0 -0.153657 0.214454 0 -0.143221 0.187021 0 -0.133474 0.15989 0 -0.124347 0.132999 0 -0.115772 0.106287 0 -0.107685 0.079693 0 -0.100022 0.0531559 0 -0.09272 0.0266121 0 -0.085718 5.43892e-07 0 423.204 6.61239e-08 0 387.116 -173.874 0 275.596 -252.749 0 183.429 -267.245 0 118.549 -260.42 0 71.1198 -245.736 0 35.8623 -228.837 0 8.98844 -211.249 0 -11.6389 -194.061 0 -27.5676 -177.557 0 -39.8349 -161.985 0 -49.2169 -147.396 0 -56.2915 -133.821 0 -61.5065 -121.241 0 -65.2137 -109.625 0 -67.6943 -98.9277 0 -69.1756 -89.0986 0 -69.8431 -80.0853 0 -69.8494 -71.8345 0 -69.3209 -64.2938 0 -68.3623 -57.4119 0 -67.0611 -51.14 0 -65.4902 -45.4317 0 -63.7108 -40.243 0 -61.7739 -35.5325 0 -59.7221 -31.2616 0 -57.5913 -27.3942 0 -55.411 -23.8968 0 -53.2061 -20.7382 0 -50.9968 -17.8894 0 -48.8001 -15.3239 0 -46.6296 -13.0168 0 -44.4964 -10.9456 0 -42.4094 -9.08929 0 -40.3755 -7.42855 0 -38.4003 -5.94573 0 -36.4876 -4.62457 0 -34.6404 -3.45018 0 -32.8606 -2.40892 0 -31.1493 -1.48827 0 -29.5069 -0.676805 0 -27.9333 0.0359166 0 -26.4279 0.659445 0 -24.9897 1.20249 0 -23.6174 1.67299 0 -22.3095 2.0782 0 -21.0644 2.4247 0 -19.88 2.7185 0 -18.7545 2.96505 0 -17.6857 3.16931 0 -16.6717 3.33579 0 -15.7101 3.46856 0 -14.799 3.57134 0 -13.9362 3.64747 0 -13.1195 3.70001 0 -12.347 3.73169 0 -11.6165 3.745 0 -10.9261 3.74219 0 -10.274 3.72527 0 -9.65814 3.69607 0 -9.07683 3.65622 0 -8.5283 3.60722 0 -8.01089 3.55037 0 -7.523 3.48687 0 -7.06308 3.41779 0 -6.62966 3.34407 0 -6.22133 3.26657 0 -5.83675 3.18605 0 -5.47464 3.10317 0 -5.13377 3.01854 0 -4.81298 2.9327 0 -4.51116 2.84609 0 -4.22727 2.75915 0 -3.96029 2.67223 0 -3.7093 2.58564 0 -3.47337 2.49967 0 -3.25167 2.41455 0 -3.04339 2.33048 0 -2.84776 2.24764 0 -2.66406 2.16618 0 -2.4916 2.08622 0 -2.32973 2.00787 0 -2.17785 1.9312 0 -2.03537 1.85629 0 -1.90175 1.78318 0 -1.77647 1.71191 0 -1.65904 1.6425 0 -1.549 1.57497 0 -1.44592 1.50933 0 -1.34938 1.44556 0 -1.259 1.38365 0 -1.17441 1.32359 0 -1.09527 1.26536 0 -1.02125 1.20891 0 -0.952046 1.15422 0 -0.887367 1.10124 0 -0.82694 1.04995 0 -0.770507 1.00029 0 -0.717826 0.952208 0 -0.668668 0.905667 0 -0.622816 0.860612 0 -0.580068 0.816991 0 -0.540231 0.774749 0 -0.503124 0.733833 0 -0.468577 0.694186 0 -0.436427 0.655753 0 -0.406522 0.618478 0 -0.378719 0.582302 0 -0.352881 0.547169 0 -0.328881 0.51302 0 -0.306597 0.479798 0 -0.285912 0.447445 0 -0.266721 0.415902 0 -0.248916 0.385111 0 -0.232403 0.355014 0 -0.217087 0.325551 0 -0.202878 0.296666 0 -0.189693 0.268298 0 -0.177451 0.240389 0 -0.166075 0.212879 0 -0.155489 0.18571 0 -0.145622 0.158821 0 -0.136407 0.132154 0 -0.127775 0.105647 0 -0.119662 0.0792403 0 -0.112005 0.0528711 0 -0.104742 0.0264789 0 -0.0978138 -5.4366e-07 0 393.349 4.3679e-07 0 368.534 -152.376 0 273.101 -233.255 0 186.416 -253.789 0 122.886 -251.092 0 75.7383 -239.111 0 40.3443 -223.983 0 13.2303 -207.692 0 -7.6915 -191.434 0 -23.9155 -175.653 0 -36.4732 -160.632 0 -46.1308 -146.481 0 -53.465 -133.252 0 -58.9222 -120.95 0 -62.8548 -109.556 0 -65.5442 -99.0366 0 -67.2186 -89.3502 0 -68.0644 -80.4507 0 -68.2351 -72.2897 0 -67.8578 -64.819 0 -67.0383 -57.9907 0 -65.8649 -51.7589 0 -64.4112 -46.0792 0 -62.7393 -40.9097 0 -60.9008 -36.2106 0 -58.9392 -31.9445 0 -56.8907 -28.0765 0 -54.7856 -24.574 0 -52.6493 -21.4067 0 -50.5026 -18.5462 0 -48.3629 -15.9666 0 -46.2441 -13.6437 0 -44.158 -11.5551 0 -42.1138 -9.68027 0 -40.1187 -8.00024 0 -38.1785 -6.49759 0 -36.2975 -5.15628 0 -34.479 -3.9616 0 -32.725 -2.90005 0 -31.0369 -1.95926 0 -29.4154 -1.1279 0 -27.8606 -0.395619 0 -26.3719 0.247068 0 -24.9487 0.808812 0 -23.5898 1.29751 0 -22.2938 1.72038 0 -21.0591 2.08398 0 -19.8841 2.3943 0 -18.7667 2.65677 0 -17.7051 2.87637 0 -16.6973 3.05758 0 -15.7412 3.2045 0 -14.8347 3.32084 0 -13.9758 3.40996 0 -13.1626 3.47491 0 -12.3928 3.51845 0 -11.6647 3.54309 0 -10.9763 3.55108 0 -10.3256 3.54446 0 -9.71091 3.52506 0 -9.13043 3.49455 0 -8.58245 3.45442 0 -8.06534 3.40602 0 -7.57753 3.35054 0 -7.11749 3.28907 0 -6.68378 3.22259 0 -6.27502 3.15195 0 -5.88988 3.07793 0 -5.52709 3.00123 0 -5.18544 2.92245 0 -4.86379 2.84214 0 -4.56105 2.76078 0 -4.27617 2.67881 0 -4.00816 2.59659 0 -3.75609 2.51446 0 -3.51906 2.4327 0 -3.29623 2.35156 0 -3.08681 2.27125 0 -2.89002 2.19198 0 -2.70516 2.11388 0 -2.53154 2.03711 0 -2.36852 1.96176 0 -2.21549 1.88793 0 -2.07188 1.8157 0 -1.93714 1.74512 0 -1.81075 1.67624 0 -1.69223 1.60909 0 -1.58112 1.5437 0 -1.477 1.48006 0 -1.37943 1.41819 0 -1.28806 1.35807 0 -1.2025 1.2997 0 -1.12241 1.24305 0 -1.04747 1.1881 0 -0.97737 1.13483 0 -0.911825 1.08319 0 -0.850561 1.03315 0 -0.79332 0.984667 0 -0.739859 0.937705 0 -0.689951 0.892214 0 -0.643377 0.848149 0 -0.599937 0.805459 0 -0.559436 0.764095 0 -0.521694 0.724005 0 -0.486541 0.685136 0 -0.453814 0.647435 0 -0.423361 0.610849 0 -0.395038 0.575321 0 -0.36871 0.540796 0 -0.344247 0.50722 0 -0.321529 0.474537 0 -0.30044 0.442689 0 -0.280872 0.411621 0 -0.26272 0.381276 0 -0.245887 0.351596 0 -0.230281 0.322526 0 -0.21581 0.294007 0 -0.202393 0.265982 0 -0.189948 0.238393 0 -0.178397 0.211182 0 -0.167666 0.184291 0 -0.157686 0.15766 0 -0.148386 0.131232 0 -0.139701 0.104945 0 -0.131566 0.0787393 0 -0.12392 0.0525546 0 -0.116699 0.026329 0 -0.109846 3.90224e-07 0 367.868 -2.8871e-08 0 350.724 -134.537 0 269.146 -215.101 0 188.385 -240.641 0 126.596 -241.732 0 79.9529 -232.392 0 44.5531 -219.02 0 17.276 -204.026 0 -3.88724 -188.709 0 -20.3716 -173.657 0 -33.1937 -159.196 0 -43.1079 -145.49 0 -50.687 -132.614 0 -56.3753 -120.595 0 -60.5242 -109.429 0 -63.4153 -99.0932 0 -65.277 -89.5542 0 -66.2964 -80.7726 0 -66.6276 -72.7053 0 -66.3985 -65.3081 0 -65.7156 -58.5368 0 -64.6678 -52.3479 0 -63.3297 -46.6996 0 -61.7639 -41.5517 0 -60.0227 -36.8662 0 -58.1503 -32.607 0 -56.1834 -28.7403 0 -54.1531 -25.2345 0 -52.085 -22.0601 0 -50.0006 -19.1895 0 -47.9176 -16.5972 0 -45.8506 -14.2595 0 -43.8115 -12.1547 0 -41.81 -10.2624 0 -39.8537 -8.56402 0 -37.9487 -7.04241 0 -36.0996 -5.68174 0 -34.3099 -4.46748 0 -32.5819 -3.38631 0 -30.9173 -2.42598 0 -29.3169 -1.57528 0 -27.781 -0.823927 0 -26.3093 -0.162532 0 -24.9013 0.417503 0 -23.556 0.924032 0 -22.2721 1.36422 0 -21.0482 1.74462 0 -19.8826 2.07118 0 -18.7736 2.34934 0 -17.7194 2.58405 0 -16.718 2.77981 0 -15.7675 2.9407 0 -14.866 3.07044 0 -14.0113 3.1724 0 -13.2016 3.24965 0 -12.4349 3.30495 0 -11.7093 3.34082 0 -11.0229 3.35952 0 -10.3739 3.36312 0 -9.76052 3.35347 0 -9.18102 3.33225 0 -8.63374 3.30095 0 -8.11707 3.26095 0 -7.62948 3.21346 0 -7.16946 3.15958 0 -6.73559 3.1003 0 -6.32651 3.03651 0 -5.94092 2.96899 0 -5.57756 2.89845 0 -5.23524 2.82551 0 -4.91283 2.75074 0 -4.60925 2.67464 0 -4.32347 2.59764 0 -4.05452 2.52013 0 -3.80145 2.44245 0 -3.5634 2.36491 0 -3.33952 2.28777 0 -3.12902 2.21125 0 -2.93115 2.13554 0 -2.74519 2.06083 0 -2.57048 1.98725 0 -2.40636 1.91492 0 -2.25224 1.84395 0 -2.10754 1.77442 0 -1.97172 1.70639 0 -1.84427 1.63992 0 -1.72471 1.57505 0 -1.61257 1.5118 0 -1.50744 1.45019 0 -1.40889 1.39023 0 -1.31655 1.33192 0 -1.23005 1.27525 0 -1.14904 1.22021 0 -1.07321 1.16678 0 -1.00225 1.11494 0 -0.935864 1.06465 0 -0.873788 1.01588 0 -0.815761 0.9686 0 -0.761543 0.922769 0 -0.710904 0.878346 0 -0.663629 0.835286 0 -0.619513 0.793545 0 -0.578366 0.753074 0 -0.540006 0.713825 0 -0.504261 0.67575 0 -0.470972 0.638796 0 -0.439984 0.602913 0 -0.411154 0.568047 0 -0.384347 0.534147 0 -0.359433 0.501159 0 -0.336292 0.469027 0 -0.314808 0.4377 0 -0.294872 0.40712 0 -0.276381 0.377235 0 -0.259237 0.347987 0 -0.243347 0.319323 0 -0.228622 0.291185 0 -0.214979 0.263517 0 -0.202336 0.236262 0 -0.190617 0.209364 0 -0.179747 0.182765 0 -0.169657 0.156407 0 -0.160278 0.130231 0 -0.151544 0.10418 0 -0.143392 0.0781911 0 -0.135759 0.0522062 0 -0.128585 0.026163 0 -0.121812 -3.41795e-07 0 345.681 -1.45286e-07 0 333.87 -119.645 0 264.098 -198.374 0 189.409 -227.878 0 129.697 -232.414 0 83.7616 -225.607 0 48.485 -213.972 0 21.1215 -200.263 0 -0.229974 -185.894 0 -16.939 -171.574 0 -29.9992 -157.681 0 -40.1506 -144.426 0 -47.9598 -131.909 0 -53.8675 -120.179 0 -58.2236 -109.246 0 -61.3091 -99.0987 0 -63.3522 -89.7115 0 -64.5404 -81.0518 0 -65.0282 -73.0818 0 -64.944 -65.7616 0 -64.3949 -59.0502 0 -63.4707 -52.9072 0 -62.2464 -47.2929 0 -60.7852 -42.1691 0 -59.1402 -37.4994 0 -57.356 -33.2491 0 -55.4701 -29.3857 0 -53.5139 -25.8783 0 -51.5135 -22.6983 0 -49.4911 -19.819 0 -47.4646 -17.2153 0 -45.4492 -14.8642 0 -43.4571 -12.7442 0 -41.4983 -10.8355 0 -39.5809 -9.11978 0 -37.7112 -7.58006 0 -35.894 -6.20082 0 -34.1332 -4.96772 0 -32.4314 -3.86758 0 -30.7904 -2.88831 0 -29.2113 -2.01881 0 -27.6946 -1.24889 0 -26.2401 -0.56924 0 -24.8476 0.028676 0 -23.516 0.552658 0 -22.2445 1.00984 0 -21.0315 1.40672 0 -19.8757 1.74926 0 -18.7753 2.04286 0 -17.7287 2.29246 0 -16.734 2.50256 0 -15.7893 2.67724 0 -14.8928 2.82022 0 -14.0425 2.93489 0 -13.2366 3.0243 0 -12.4731 3.09125 0 -11.7502 3.13825 0 -11.066 3.16759 0 -10.4189 3.18134 0 -9.80696 3.18136 0 -9.2286 3.16936 0 -8.68217 3.14685 0 -8.16609 3.11521 0 -7.67884 3.07567 0 -7.21897 3.02936 0 -6.78507 2.97727 0 -6.37579 2.9203 0 -5.98986 2.85927 0 -5.62604 2.79488 0 -5.28315 2.72778 0 -4.96008 2.65855 0 -4.65576 2.58769 0 -4.36918 2.51567 0 -4.09936 2.44287 0 -3.84538 2.36966 0 -3.60638 2.29635 0 -3.38152 2.22321 0 -3.17002 2.15048 0 -2.97113 2.07837 0 -2.78414 2.00705 0 -2.60838 1.93668 0 -2.44322 1.86739 0 -2.28806 1.79929 0 -2.14233 1.73247 0 -2.00548 1.667 0 -1.87702 1.60296 0 -1.75645 1.54037 0 -1.64333 1.47929 0 -1.53723 1.41972 0 -1.43773 1.36169 0 -1.34446 1.30521 0 -1.25705 1.25026 0 -1.17516 1.19685 0 -1.09847 1.14495 0 -1.02667 1.09456 0 -0.959472 1.04563 0 -0.896608 0.998155 0 -0.837821 0.952093 0 -0.782866 0.90741 0 -0.731518 0.864069 0 -0.68356 0.822032 0 -0.638789 0.781253 0 -0.597012 0.741691 0 -0.558049 0.7033 0 -0.52173 0.666031 0 -0.487892 0.62984 0 -0.456383 