<?xml version="1.0"?> 
<VTKFile type="StructuredGrid" version="0.1"> 
<StructuredGrid WholeExtent="0 127 0 127 0 0"> 
<Piece Extent="0 127 0 127 0 0"> 
<PointData>
<DataArray type="Float32" Name="|E|" format="ascii" NumberOfComponents="3"> 
276970 4.20083e+06 0 276818 4.19853e+06 0 276670 4.19628e+06 0 276525 4.19408e+06 0 276384 4.19194e+06 0 276246 4.18985e+06 0 276112 4.18782e+06 0 275981 4.18583e+06 0 275854 4.1839e+06 0 275730 4.18203e+06 0 275610 4.1802e+06 0 275493 4.17843e+06 0 275379 4.17671e+06 0 275269 4.17503e+06 0 275162 4.17342e+06 0 275059 4.17185e+06 0 274959 4.17033e+06 0 274862 4.16886e+06 0 274769 4.16745e+06 0 274679 4.16608e+06 0 274592 4.16477e+06 0 274509 4.1635e+06 0 274429 4.16229e+06 0 274352 4.16113e+06 0 274279 4.16001e+06 0 274209 4.15895e+06 0 274142 4.15794e+06 0 274079 4.15698e+06 0 274019 4.15608e+06 0 273963 4.15522e+06 0 273910 4.15441e+06 0 273860 4.15366e+06 0 273814 4.15296e+06 0 273771 4.15231e+06 0 273732 4.15172e+06 0 273696 4.15118e+06 0 273664 4.15069e+06 0 273635 4.15025e+06 0 273610 4.14987e+06 0 273589 4.14955e+06 0 273571 4.14928e+06 0 273557 4.14907e+06 0 273547 4.14891e+06 0 273540 4.14881e+06 0 273537 4.14877e+06 0 273538 4.14878e+06 0 273543 4.14886e+06 0 273552 4.14899e+06 0 273565 4.14918e+06 0 273582 4.14944e+06 0 273603 4.14976e+06 0 273628 4.15014e+06 0 273657 4.15058e+06 0 273691 4.15109e+06 0 273728 4.15166e+06 0 273771 4.1523e+06 0 273817 4.15301e+06 0 273869 4.15379e+06 0 273924 4.15464e+06 0 273985 4.15555e+06 0 274050 4.15654e+06 0 274120 4.15761e+06 0 274195 4.15874e+06 0 274275 4.15996e+06 0 274360 4.16125e+06 0 274451 4.16262e+06 0 274546 4.16407e+06 0 274648 4.16561e+06 0 274754 4.16722e+06 0 274866 4.16893e+06 0 274985 4.17072e+06 0 275108 4.1726e+06 0 275238 4.17457e+06 0 275374 4.17663e+06 0 275517 4.17879e+06 0 275666 4.18105e+06 0 275821 4.1834e+06 0 275983 4.18586e+06 0 276152 4.18843e+06 0 276328 4.1911e+06 0 276512 4.19388e+06 0 276702 4.19677e+06 0 276901 4.19978e+06 0 277107 4.20291e+06 0 277321 4.20616e+06 0 277544 4.20953e+06 0 277775 4.21303e+06 0 278014 4.21667e+06 0 278263 4.22044e+06 0 278521 4.22435e+06 0 278788 4.2284e+06 0 279065 4.2326e+06 0 279352 4.23696e+06 0 279649 4.24147e+06 0 279957 4.24614e+06 0 280276 4.25098e+06 0 280607 4.25599e+06 0 280949 4.26118e+06 0 281303 4.26655e+06 0 281670 4.27212e+06 0 282050 4.27788e+06 0 282443 4.28384e+06 0 282850 4.29001e+06 0 283272 4.29641e+06 0 283708 4.30302e+06 0 284160 4.30988e+06 0 284628 4.31697e+06 0 285112 4.32432e+06 0 285614 4.33194e+06 0 286134 4.33982e+06 0 286673 4.34799e+06 0 287231 4.35646e+06 0 287810 4.36524e+06 0 288410 4.37434e+06 0 289032 4.38378e+06 0 289678 4.39357e+06 0 290348 4.40373e+06 0 291043 4.41428e+06 0 291766 4.42524e+06 0 292516 4.43662e+06 0 293296 4.44845e+06 0 294107 4.46075e+06 0 294951 4.47355e+06 0 295830 4.48688e+06 0 296745 4.50076e+06 0 297699 4.51523e+06 0 298695 4.53033e+06 0 299734 4.54609e+06 0 273707 4.20121e+06 0 273631 4.1989e+06 0 273558 4.19664e+06 0 273488 4.19443e+06 0 273421 4.19228e+06 0 273357 4.19018e+06 0 273296 4.18814e+06 0 273238 4.18614e+06 0 273183 4.18421e+06 0 273131 4.18232e+06 0 273083 4.18048e+06 0 273037 4.1787e+06 0 272995 4.17697e+06 0 272955 4.17529e+06 0 272919 4.17366e+06 0 272887 4.17208e+06 0 272857 4.17056e+06 0 272831 4.16908e+06 0 272808 4.16766e+06 0 272788 4.16628e+06 0 272772 4.16496e+06 0 272759 4.16368e+06 0 272749 4.16246e+06 0 272743 4.16129e+06 0 272741 4.16017e+06 0 272742 4.15909e+06 0 272747 4.15808e+06 0 272755 4.15711e+06 0 272767 4.15619e+06 0 272783 4.15532e+06 0 272802 4.15451e+06 0 272825 4.15375e+06 0 272853 4.15304e+06 0 272884 4.15238e+06 0 272919 4.15177e+06 0 272958 4.15122e+06 0 273002 4.15072e+06 0 273049 4.15028e+06 0 273101 4.14989e+06 0 273157 4.14955e+06 0 273218 4.14927e+06 0 273283 4.14904e+06 0 273353 4.14888e+06 0 273427 4.14876e+06 0 273506 4.14871e+06 0 273590 4.14871e+06 0 273679 4.14878e+06 0 273772 4.1489e+06 0 273871 4.14908e+06 0 273975 4.14932e+06 0 274085 4.14963e+06 0 274199 4.15e+06 0 274320 4.15043e+06 0 274446 4.15092e+06 0 274578 4.15148e+06 0 274715 4.15211e+06 0 274859 4.1528e+06 0 275009 4.15357e+06 0 275165 4.1544e+06 0 275327 4.1553e+06 0 275497 4.15628e+06 0 275673 4.15732e+06 0 275855 4.15845e+06 0 276045 4.15964e+06 0 276243 4.16092e+06 0 276447 4.16227e+06 0 276659 4.16371e+06 0 276879 4.16522e+06 0 277108 4.16682e+06 0 277344 4.16851e+06 0 277589 4.17028e+06 0 277842 4.17214e+06 0 278105 4.17409e+06 0 278376 4.17613e+06 0 278657 4.17827e+06 0 278948 4.18051e+06 0 279249 4.18284e+06 0 279560 4.18528e+06 0 279881 4.18782e+06 0 280214 4.19047e+06 0 280557 4.19322e+06 0 280913 4.19609e+06 0 281280 4.19908e+06 0 281660 4.20218e+06 0 282052 4.2054e+06 0 282457 4.20874e+06 0 282876 4.21222e+06 0 283309 4.21582e+06 0 283757 4.21956e+06 0 284220 4.22344e+06 0 284698 4.22746e+06 0 285192 4.23163e+06 0 285703 4.23595e+06 0 286231 4.24042e+06 0 286778 4.24506e+06 0 287343 4.24986e+06 0 287927 4.25483e+06 0 288531 4.25998e+06 0 289157 4.26531e+06 0 289804 4.27083e+06 0 290474 4.27654e+06 0 291168 4.28246e+06 0 291886 4.28858e+06 0 292630 4.29493e+06 0 293401 4.30149e+06 0 294201 4.30829e+06 0 295029 4.31533e+06 0 295889 4.32262e+06 0 296781 4.33016e+06 0 297707 4.33799e+06 0 298669 4.34609e+06 0 299668 4.35448e+06 0 300707 4.36319e+06 0 301787 4.37221e+06 0 302912 4.38156e+06 0 304083 4.39127e+06 0 305303 4.40134e+06 0 306576 4.41179e+06 0 307904 4.42264e+06 0 309291 4.43391e+06 0 310741 4.44563e+06 0 312258 4.45781e+06 0 313846 4.47048e+06 0 315511 4.48367e+06 0 317259 4.4974e+06 0 319096 4.51172e+06 0 321029 4.52665e+06 0 323065 4.54223e+06 0 270424 4.20148e+06 0 270424 4.19916e+06 0 270426 4.19689e+06 0 270431 4.19467e+06 0 270438 4.19251e+06 0 270448 4.19041e+06 0 270460 4.18835e+06 0 270475 4.18635e+06 0 270493 4.1844e+06 0 270513 4.18251e+06 0 270536 4.18067e+06 0 270562 4.17887e+06 0 270590 4.17713e+06 0 270622 4.17545e+06 0 270657 4.17381e+06 0 270694 4.17222e+06 0 270735 4.17068e+06 0 270779 4.1692e+06 0 270827 4.16776e+06 0 270877 4.16638e+06 0 270931 4.16505e+06 0 270989 4.16376e+06 0 271050 4.16253e+06 0 271114 4.16135e+06 0 271182 4.16022e+06 0 271254 4.15914e+06 0 271330 4.15811e+06 0 271410 4.15713e+06 0 271494 4.1562e+06 0 271581 4.15532e+06 0 271673 4.1545e+06 0 271769 4.15373e+06 0 271870 4.15301e+06 0 271975 4.15234e+06 0 272084 4.15172e+06 0 272198 4.15116e+06 0 272317 4.15065e+06 0 272440 4.15019e+06 0 272569 4.14979e+06 0 272702 4.14944e+06 0 272841 4.14915e+06 0 272985 4.14891e+06 0 273134 4.14873e+06 0 273289 4.14861e+06 0 273450 4.14854e+06 0 273616 4.14853e+06 0 273788 4.14858e+06 0 273966 4.14869e+06 0 274151 4.14886e+06 0 274342 4.14908e+06 0 274539 4.14938e+06 0 274743 4.14973e+06 0 274954 4.15014e+06 0 275172 4.15062e+06 0 275397 4.15117e+06 0 275630 4.15178e+06 0 275870 4.15246e+06 0 276118 4.1532e+06 0 276373 4.15402e+06 0 276637 4.1549e+06 0 276910 4.15586e+06 0 277191 4.15689e+06 0 277481 4.15799e+06 0 277780 4.15917e+06 0 278088 4.16043e+06 0 278406 4.16176e+06 0 278734 4.16318e+06 0 279072 4.16467e+06 0 279421 4.16625e+06 0 279781 4.16791e+06 0 280151 4.16966e+06 0 280533 4.1715e+06 0 280927 4.17342e+06 0 281333 4.17544e+06 0 281751 4.17756e+06 0 282183 4.17977e+06 0 282628 4.18208e+06 0 283086 4.18448e+06 0 283559 4.187e+06 0 284046 4.18961e+06 0 284549 4.19234e+06 0 285067 4.19518e+06 0 285602 4.19813e+06 0 286153 4.2012e+06 0 286721 4.20439e+06 0 287308 4.2077e+06 0 287913 4.21113e+06 0 288538 4.2147e+06 0 289182 4.2184e+06 0 289847 4.22224e+06 0 290534 4.22622e+06 0 291243 4.23035e+06 0 291976 4.23462e+06 0 292732 4.23905e+06 0 293514 4.24364e+06 0 294322 4.24839e+06 0 295157 4.25331e+06 0 296020 4.2584e+06 0 296913 4.26368e+06 0 297837 4.26914e+06 0 298793 4.2748e+06 0 299783 4.28065e+06 0 300808 4.28671e+06 0 301870 4.29298e+06 0 302971 4.29947e+06 0 304113 4.3062e+06 0 305297 4.31316e+06 0 306525 4.32037e+06 0 307801 4.32783e+06 0 309126 4.33556e+06 0 310504 4.34357e+06 0 311936 4.35187e+06 0 313427 4.36047e+06 0 314979 4.36938e+06 0 316596 4.37862e+06 0 318282 4.3882e+06 0 320042 4.39814e+06 0 321879 4.40846e+06 0 323800 4.41917e+06 0 325809 4.43028e+06 0 327913 4.44184e+06 0 330119 4.45384e+06 0 332433 4.46633e+06 0 334865 4.47932e+06 0 337422 4.49284e+06 0 340117 4.50693e+06 0 342959 4.52161e+06 0 345961 4.53692e+06 0 267123 4.20164e+06 0 267199 4.19931e+06 0 267276 4.19703e+06 0 267356 4.19481e+06 0 267437 4.19264e+06 0 267520 4.19053e+06 0 267606 4.18847e+06 0 267694 4.18646e+06 0 267783 4.1845e+06 0 267876 4.1826e+06 0 267970 4.18075e+06 0 268067 4.17895e+06 0 268167 4.1772e+06 0 268270 4.1755e+06 0 268375 4.17385e+06 0 268483 4.17226e+06 0 268594 4.17071e+06 0 268709 4.16922e+06 0 268826 4.16777e+06 0 268947 4.16638e+06 0 269071 4.16504e+06 0 269199 4.16375e+06 0 269330 4.1625e+06 0 269465 4.16131e+06 0 269604 4.16017e+06 0 269746 4.15908e+06 0 269893 4.15804e+06 0 270044 4.15705e+06 0 270199 4.15611e+06 0 270358 4.15522e+06 0 270522 4.15439e+06 0 270691 4.1536e+06 0 270864 4.15287e+06 0 271043 4.15219e+06 0 271226 4.15156e+06 0 271414 4.15099e+06 0 271608 4.15047e+06 0 271807 4.15e+06 0 272012 4.14958e+06 0 272222 4.14922e+06 0 272439 4.14892e+06 0 272661 4.14867e+06 0 272890 4.14847e+06 0 273125 4.14833e+06 0 273366 4.14825e+06 0 273614 4.14823e+06 0 273870 4.14826e+06 0 274132 4.14836e+06 0 274402 4.14851e+06 0 274679 4.14872e+06 0 274964 4.149e+06 0 275256 4.14933e+06 0 275557 4.14973e+06 0 275866 4.1502e+06 0 276184 4.15072e+06 0 276511 4.15132e+06 0 276847 4.15197e+06 0 277192 4.1527e+06 0 277547 4.1535e+06 0 277911 4.15436e+06 0 278286 4.1553e+06 0 278671 4.15631e+06 0 279068 4.15739e+06 0 279475 4.15855e+06 0 279893 4.15978e+06 0 280324 4.16109e+06 0 280767 4.16248e+06 0 281222 4.16395e+06 0 281690 4.1655e+06 0 282171 4.16714e+06 0 282666 4.16886e+06 0 283176 4.17067e+06 0 283699 4.17257e+06 0 284238 4.17456e+06 0 284793 4.17665e+06 0 285364 4.17883e+06 0 285951 4.1811e+06 0 286555 4.18348e+06 0 287178 4.18596e+06 0 287818 4.18854e+06 0 288478 4.19123e+06 0 289157 4.19403e+06 0 289857 4.19695e+06 0 290578 4.19998e+06 0 291321 4.20312e+06 0 292086 4.20639e+06 0 292875 4.20979e+06 0 293688 4.21331e+06 0 294527 4.21696e+06 0 295392 4.22075e+06 0 296284 4.22468e+06 0 297205 4.22876e+06 0 298156 4.23298e+06 0 299137 4.23735e+06 0 300151 4.24188e+06 0 301197 4.24657e+06 0 302279 4.25143e+06 0 303397 4.25646e+06 0 304554 4.26167e+06 0 305750 4.26706e+06 0 306987 4.27264e+06 0 308268 4.27841e+06 0 309595 4.28439e+06 0 310969 4.29058e+06 0 312393 4.29699e+06 0 313870 4.30362e+06 0 315402 4.31048e+06 0 316992 4.31759e+06 0 318643 4.32495e+06 0 320359 4.33257e+06 0 322143 4.34046e+06 0 323998 4.34863e+06 0 325930 4.3571e+06 0 327942 4.36588e+06 0 330039 4.37497e+06 0 332227 4.3844e+06 0 334511 4.39418e+06 0 336898 4.40432e+06 0 339394 4.41484e+06 0 342006 4.42576e+06 0 344744 4.43711e+06 0 347616 4.44889e+06 0 350631 4.46114e+06 0 353801 4.47387e+06 0 357139 4.48712e+06 0 360657 4.5009e+06 0 364371 4.51526e+06 0 368297 4.53023e+06 0 263804 4.2017e+06 0 263956 4.19936e+06 0 264109 4.19707e+06 0 264263 4.19484e+06 0 264418 4.19267e+06 0 264575 4.19055e+06 0 264734 4.18848e+06 0 264894 4.18646e+06 0 265056 4.1845e+06 0 265220 4.18259e+06 0 265387 4.18073e+06 0 265555 4.17892e+06 0 265726 4.17716e+06 0 265899 4.17546e+06 0 266075 4.1738e+06 0 266253 4.1722e+06 0 266434 4.17064e+06 0 266619 4.16914e+06 0 266806 4.16769e+06 0 266997 4.16628e+06 0 267191 4.16493e+06 0 267388 4.16363e+06 0 267590 4.16238e+06 0 267795 4.16118e+06 0 268004 4.16002e+06 0 268217 4.15892e+06 0 268434 4.15787e+06 0 268656 4.15687e+06 0 268882 4.15592e+06 0 269113 4.15502e+06 0 269349 4.15418e+06 0 269590 4.15338e+06 0 269836 4.15264e+06 0 270087 4.15194e+06 0 270344 4.1513e+06 0 270606 4.15072e+06 0 270874 4.15018e+06 0 271149 4.1497e+06 0 271429 4.14927e+06 0 271716 4.1489e+06 0 272010 4.14858e+06 0 272310 4.14831e+06 0 272618 4.1481e+06 0 272932 4.14795e+06 0 273254 4.14785e+06 0 273584 4.14781e+06 0 273922 4.14783e+06 0 274267 4.14791e+06 0 274621 4.14804e+06 0 274984 4.14824e+06 0 275356 4.1485e+06 0 275736 4.14881e+06 0 276127 4.14919e+06 0 276526 4.14964e+06 0 276936 4.15015e+06 0 277356 4.15072e+06 0 277787 4.15136e+06 0 278228 4.15206e+06 0 278681 4.15284e+06 0 279146 4.15368e+06 0 279622 4.15459e+06 0 280111 4.15558e+06 0 280612 4.15664e+06 0 281126 4.15777e+06 0 281654 4.15898e+06 0 282196 4.16026e+06 0 282752 4.16162e+06 0 283323 4.16307e+06 0 283909 4.16459e+06 0 284511 4.1662e+06 0 285129 4.16789e+06 0 285764 4.16967e+06 0 286417 4.17154e+06 0 287087 4.1735e+06 0 287776 4.17555e+06 0 288484 4.17769e+06 0 289212 4.17993e+06 0 289961 4.18227e+06 0 290731 4.18471e+06 0 291522 4.18725e+06 0 292337 4.1899e+06 0 293175 4.19266e+06 0 294038 4.19553e+06 0 294926 4.19851e+06 0 295840 4.20161e+06 0 296781 4.20484e+06 0 297751 4.20818e+06 0 298751 4.21165e+06 0 299780 4.21525e+06 0 300842 4.21898e+06 0 301937 4.22285e+06 0 303066 4.22687e+06 0 304231 4.23103e+06 0 305433 4.23533e+06 0 306674 4.23979e+06 0 307955 4.24442e+06 0 309279 4.2492e+06 0 310647 4.25415e+06 0 312061 4.25928e+06 0 313524 4.26459e+06 0 315037 4.27008e+06 0 316603 4.27577e+06 0 318224 4.28165e+06 0 319903 4.28774e+06 0 321643 4.29404e+06 0 323447 4.30056e+06 0 325319 4.30731e+06 0 327261 4.3143e+06 0 329279 4.32153e+06 0 331374 4.32902e+06 0 333553 4.33677e+06 0 335820 4.3448e+06 0 338179 4.35311e+06 0 340637 4.36172e+06 0 343200 4.37064e+06 0 345873 4.37988e+06 0 348664 4.38946e+06 0 351580 4.3994e+06 0 354630 4.4097e+06 0 357823 4.42039e+06 0 361169 4.43148e+06 0 364679 4.44299e+06 0 368365 4.45495e+06 0 372241 4.46737e+06 0 376320 4.48028e+06 0 380621 4.49371e+06 0 385161 4.50768e+06 0 389961 4.52223e+06 0 260469 4.20164e+06 0 260697 4.1993e+06 0 260925 4.19701e+06 0 261154 4.19477e+06 0 261383 4.19259e+06 0 261614 4.19046e+06 0 261845 4.18839e+06 0 262078 4.18636e+06 0 262312 4.18439e+06 0 262548 4.18247e+06 0 262785 4.18061e+06 0 263025 4.17879e+06 0 263266 4.17703e+06 0 263510 4.17531e+06 0 263756 4.17365e+06 0 264004 4.17204e+06 0 264256 4.17047e+06 0 264510 4.16896e+06 0 264767 4.1675e+06 0 265027 4.16609e+06 0 265291 4.16473e+06 0 265558 4.16341e+06 0 265829 4.16215e+06 0 266104 4.16094e+06 0 266383 4.15978e+06 0 266666 4.15867e+06 0 266954 4.1576e+06 0 267246 4.15659e+06 0 267543 4.15563e+06 0 267845 4.15472e+06 0 268152 4.15386e+06 0 268465 4.15306e+06 0 268783 4.1523e+06 0 269107 4.15159e+06 0 269437 4.15094e+06 0 269773 4.15034e+06 0 270115 4.14979e+06 0 270464 4.14929e+06 0 270820 4.14885e+06 0 271183 4.14846e+06 0 271553 4.14813e+06 0 271931 4.14785e+06 0 272317 4.14762e+06 0 272710 4.14745e+06 0 273112 4.14734e+06 0 273523 4.14728e+06 0 273942 4.14728e+06 0 274371 4.14734e+06 0 274808 4.14746e+06 0 275256 4.14764e+06 0 275714 4.14787e+06 0 276181 4.14817e+06 0 276660 4.14853e+06 0 277149 4.14895e+06 0 277650 4.14944e+06 0 278163 4.14999e+06 0 278687 4.15061e+06 0 279224 4.15129e+06 0 279774 4.15204e+06 0 280337 4.15286e+06 0 280914 4.15375e+06 0 281505 4.1547e+06 0 282110 4.15574e+06 0 282730 4.15684e+06 0 283366 4.15802e+06 0 284018 4.15928e+06 0 284686 4.16061e+06 0 285371 4.16202e+06 0 286074 4.16351e+06 0 286795 4.16509e+06 0 287535 4.16675e+06 0 288294 4.16849e+06 0 289073 4.17032e+06 0 289873 4.17224e+06 0 290695 4.17425e+06 0 291538 4.17636e+06 0 292405 4.17856e+06 0 293296 4.18086e+06 0 294211 4.18325e+06 0 295151 4.18575e+06 0 296118 4.18835e+06 0 297113 4.19106e+06 0 298135 4.19388e+06 0 299188 4.19682e+06 0 300271 4.19986e+06 0 301385 4.20303e+06 0 302533 4.20632e+06 0 303715 4.20973e+06 0 304932 4.21327e+06 0 306187 4.21694e+06 0 307480 4.22074e+06 0 308813 4.22468e+06 0 310188 4.22877e+06 0 311606 4.233e+06 0 313070 4.23739e+06 0 314581 4.24193e+06 0 316142 4.24663e+06 0 317754 4.25149e+06 0 319420 4.25653e+06 0 321142 4.26174e+06 0 322924 4.26714e+06 0 324767 4.27272e+06 0 326675 4.27849e+06 0 328652 4.28447e+06 0 330699 4.29065e+06 0 332822 4.29705e+06 0 335023 4.30367e+06 0 337307 4.31051e+06 0 339679 4.3176e+06 0 342143 4.32493e+06 0 344704 4.33252e+06 0 347368 4.34038e+06 0 350140 4.34851e+06 0 353028 4.35693e+06 0 356038 4.36565e+06 0 359177 4.37468e+06 0 362454 4.38404e+06 0 365878 4.39373e+06 0 369458 4.40378e+06 0 373205 4.41419e+06 0 377130 4.42499e+06 0 381247 4.4362e+06 0 385569 4.44782e+06 0 390111 4.45988e+06 0 394891 4.47241e+06 0 399927 4.48543e+06 0 405240 4.49895e+06 0 410854 4.51301e+06 0 257120 4.20148e+06 0 257424 4.19913e+06 0 257727 4.19683e+06 0 258030 4.19459e+06 0 258333 4.19241e+06 0 258637 4.19027e+06 0 258941 4.18819e+06 0 259246 4.18616e+06 0 259552 4.18418e+06 0 259859 4.18226e+06 0 260168 4.18038e+06 0 260478 4.17856e+06 0 260790 4.17679e+06 0 261104 4.17507e+06 0 261420 4.1734e+06 0 261738 4.17178e+06 0 262059 4.17021e+06 0 262382 4.16868e+06 0 262709 4.16721e+06 0 263039 4.16579e+06 0 263372 4.16442e+06 0 263708 4.1631e+06 0 264049 4.16183e+06 0 264393 4.16061e+06 0 264741 4.15943e+06 0 265094 4.15831e+06 0 265452 4.15724e+06 0 265814 4.15622e+06 0 266182 4.15524e+06 0 266554 4.15432e+06 0 266932 4.15345e+06 0 267316 4.15263e+06 0 267706 4.15186e+06 0 268102 4.15114e+06 0 268504 4.15047e+06 0 268913 4.14986e+06 0 269329 4.14929e+06 0 269752 4.14878e+06 0 270183 4.14832e+06 0 270621 4.14792e+06 0 271068 4.14757e+06 0 271522 4.14727e+06 0 271985 4.14703e+06 0 272457 4.14684e+06 0 272938 4.14671e+06 0 273429 4.14664e+06 0 273929 4.14662e+06 0 274440 4.14666e+06 0 274960 4.14676e+06 0 275492 4.14691e+06 0 276035 4.14713e+06 0 276589 4.1474e+06 0 277155 4.14774e+06 0 277733 4.14814e+06 0 278324 4.14861e+06 0 278928 4.14913e+06 0 279545 4.14972e+06 0 280177 4.15038e+06 0 280822 4.1511e+06 0 281483 4.1519e+06 0 282159 4.15276e+06 0 282850 4.15369e+06 0 283558 4.15469e+06 0 284283 4.15576e+06 0 285025 4.15691e+06 0 285786 4.15814e+06 0 286564 4.15944e+06 0 287362 4.16081e+06 0 288180 4.16227e+06 0 289019 4.16381e+06 0 289878 4.16543e+06 0 290760 4.16714e+06 0 291664 4.16893e+06 0 292591 4.17081e+06 0 293543 4.17278e+06 0 294520 4.17484e+06 0 295523 4.17699e+06 0 296553 4.17924e+06 0 297611 4.18159e+06 0 298698 4.18404e+06 0 299815 4.18659e+06 0 300963 4.18925e+06 0 302143 4.19201e+06 0 303356 4.19489e+06 0 304604 4.19788e+06 0 305889 4.20098e+06 0 307210 4.2042e+06 0 308571 4.20755e+06 0 309972 4.21102e+06 0 311415 4.21462e+06 0 312902 4.21835e+06 0 314435 4.22222e+06 0 316015 4.22622e+06 0 317644 4.23037e+06 0 319326 4.23467e+06 0 321061 4.23912e+06 0 322852 4.24373e+06 0 324702 4.24849e+06 0 326613 4.25343e+06 0 328588 4.25853e+06 0 330631 4.26381e+06 0 332744 4.26928e+06 0 334931 4.27493e+06 0 337195 4.28078e+06 0 339540 4.28683e+06 0 341970 4.29308e+06 0 344490 4.29955e+06 0 347105 4.30625e+06 0 349818 4.31317e+06 0 352637 4.32033e+06 0 355565 4.32774e+06 0 358611 4.33541e+06 0 361780 4.34334e+06 0 365079 4.35155e+06 0 368517 4.36004e+06 0 372102 4.36883e+06 0 375842 4.37793e+06 0 379749 4.38736e+06 0 383832 4.39712e+06 0 388103 4.40723e+06 0 392576 4.4177e+06 0 397264 4.42856e+06 0 402183 4.43981e+06 0 407350 4.45148e+06 0 412783 4.46358e+06 0 418503 4.47613e+06 0 424533 4.48915e+06 0 430897 4.50267e+06 0 253759 4.20121e+06 0 254138 4.19886e+06 0 254515 4.19656e+06 0 254893 4.19431e+06 0 255269 4.19212e+06 0 255646 4.18998e+06 0 256023 4.18789e+06 0 256400 4.18586e+06 0 256777 4.18388e+06 0 257155 4.18194e+06 0 257534 4.18006e+06 0 257915 4.17823e+06 0 258297 4.17645e+06 0 258680 4.17473e+06 0 259066 4.17305e+06 0 259454 4.17142e+06 0 259844 4.16984e+06 0 260236 4.16831e+06 0 260632 4.16683e+06 0 261031 4.1654e+06 0 261433 4.16402e+06 0 261838 4.16269e+06 0 262247 4.16141e+06 0 262661 4.16017e+06 0 263078 4.15899e+06 0 263501 4.15786e+06 0 263928 4.15677e+06 0 264359 4.15574e+06 0 264797 4.15475e+06 0 265239 4.15382e+06 0 265688 4.15294e+06 0 266142 4.1521e+06 0 266603 4.15132e+06 0 267071 4.15059e+06 0 267545 4.1499e+06 0 268027 4.14927e+06 0 268516 4.14869e+06 0 269012 4.14817e+06 0 269517 4.14769e+06 0 270030 4.14727e+06 0 270552 4.1469e+06 0 271082 4.14659e+06 0 271622 4.14633e+06 0 272172 4.14612e+06 0 272731 4.14597e+06 0 273301 4.14588e+06 0 273881 4.14584e+06 0 274473 4.14586e+06 0 275076 4.14594e+06 0 275690 4.14607e+06 0 276317 4.14626e+06 0 276957 4.14652e+06 0 277609 4.14683e+06 0 278275 4.14721e+06 0 278955 4.14764e+06 0 279649 4.14815e+06 0 280358 4.14871e+06 0 281083 4.14934e+06 0 281823 4.15004e+06 0 282580 4.1508e+06 0 283353 4.15163e+06 0 284145 4.15253e+06 0 284954 4.1535e+06 0 285782 4.15454e+06 0 286629 4.15565e+06 0 287496 4.15684e+06 0 288384 4.15811e+06 0 289292 4.15945e+06 0 290224 4.16087e+06 0 291177 4.16237e+06 0 292155 4.16395e+06 0 293156 4.16561e+06 0 294183 4.16736e+06 0 295236 4.16919e+06 0 296316 4.17112e+06 0 297424 4.17313e+06 0 298561 4.17523e+06 0 299728 4.17743e+06 0 300926 4.17973e+06 0 302156 4.18212e+06 0 303420 4.18462e+06 0 304718 4.18722e+06 0 306052 4.18992e+06 0 307423 4.19273e+06 0 308833 4.19566e+06 0 310283 4.19869e+06 0 311775 4.20185e+06 0 313310 4.20512e+06 0 314891 4.20851e+06 0 316518 4.21203e+06 0 318194 4.21568e+06 0 319921 4.21947e+06 0 321701 4.22339e+06 0 323536 4.22744e+06 0 325429 4.23165e+06 0 327381 4.236e+06 0 329397 4.2405e+06 0 331477 4.24516e+06 0 333626 4.24998e+06 0 335847 4.25497e+06 0 338142 4.26013e+06 0 340516 4.26546e+06 0 342972 4.27098e+06 0 345514 4.27669e+06 0 348146 4.28259e+06 0 350873 4.28869e+06 0 353700 4.295e+06 0 356631 4.30152e+06 0 359673 4.30827e+06 0 362832 4.31524e+06 0 366112 4.32245e+06 0 369522 4.3299e+06 0 373069 4.33761e+06 0 376761 4.34559e+06 0 380606 4.35383e+06 0 384613 4.36236e+06 0 388792 4.37119e+06 0 393154 4.38032e+06 0 397711 4.38977e+06 0 402476 4.39954e+06 0 407462 4.40966e+06 0 412684 4.42014e+06 0 418159 4.43098e+06 0 423905 4.44221e+06 0 429942 4.45385e+06 0 436291 4.4659e+06 0 442976 4.47839e+06 0 450025 4.49133e+06 0 250386 4.20083e+06 0 250840 4.19848e+06 0 251292 4.19617e+06 0 251743 4.19392e+06 0 252193 4.19173e+06 0 252642 4.18959e+06 0 253091 4.18749e+06 0 253539 4.18545e+06 0 253988 4.18347e+06 0 254437 4.18153e+06 0 254886 4.17964e+06 0 255337 4.17781e+06 0 255788 4.17602e+06 0 256241 4.17428e+06 0 256696 4.1726e+06 0 257153 4.17096e+06 0 257611 4.16938e+06 0 258073 4.16784e+06 0 258537 4.16635e+06 0 259004 4.16491e+06 0 259474 4.16352e+06 0 259948 4.16218e+06 0 260426 4.16089e+06 0 260908 4.15964e+06 0 261394 4.15845e+06 0 261885 4.15731e+06 0 262381 4.15621e+06 0 262882 4.15516e+06 0 263388 4.15417e+06 0 263901 4.15322e+06 0 264419 4.15232e+06 0 264944 4.15147e+06 0 265475 4.15068e+06 0 266013 4.14993e+06 0 266559 4.14923e+06 0 267112 4.14859e+06 0 267673 4.14799e+06 0 268243 4.14745e+06 0 268821 4.14696e+06 0 269408 4.14652e+06 0 270004 4.14613e+06 0 270610 4.1458e+06 0 271226 4.14552e+06 0 271852 4.1453e+06 0 272489 4.14513e+06 0 273137 4.14501e+06 0 273797 4.14495e+06 0 274468 4.14495e+06 0 275152 4.145e+06 0 275849 4.14511e+06 0 276559 4.14528e+06 0 277283 4.14551e+06 0 278020 4.1458e+06 0 278773 4.14615e+06 0 279541 4.14656e+06 0 280324 4.14703e+06 0 281123 4.14757e+06 0 281940 4.14817e+06 0 282773 4.14883e+06 0 283625 4.14956e+06 0 284495 4.15036e+06 0 285384 4.15123e+06 0 286293 4.15217e+06 0 287222 4.15317e+06 0 288172 4.15425e+06 0 289144 4.1554e+06 0 290139 4.15663e+06 0 291157 4.15793e+06 0 292199 4.1593e+06 0 293267 4.16076e+06 0 294360 4.1623e+06 0 295479 4.16392e+06 0 296627 4.16562e+06 0 297803 4.1674e+06 0 299008 4.16928e+06 0 300244 4.17124e+06 0 301512 4.17329e+06 0 302813 4.17544e+06 0 304148 4.17767e+06 0 305519 4.18001e+06 0 306926 4.18244e+06 0 308371 4.18498e+06 0 309855 4.18762e+06 0 311381 4.19036e+06 0 312949 4.19321e+06 0 314561 4.19618e+06 0 316218 4.19925e+06 0 317924 4.20245e+06 0 319679 4.20576e+06 0 321485 4.2092e+06 0 323345 4.21276e+06 0 325261 4.21645e+06 0 327235 4.22027e+06 0 329270 4.22423e+06 0 331368 4.22833e+06 0 333531 4.23257e+06 0 335763 4.23696e+06 0 338067 4.24151e+06 0 340446 4.24621e+06 0 342903 4.25107e+06 0 345443 4.25609e+06 0 348068 4.26129e+06 0 350783 4.26666e+06 0 353592 4.27221e+06 0 356500 4.27795e+06 0 359512 4.28389e+06 0 362632 4.29002e+06 0 365867 4.29636e+06 0 369223 4.30291e+06 0 372705 4.30968e+06 0 376321 4.31667e+06 0 380077 4.3239e+06 0 383983 4.33137e+06 0 388046 4.33909e+06 0 392275 4.34707e+06 0 396680 4.35532e+06 0 401272 4.36384e+06 0 406062 4.37266e+06 0 411063 4.38177e+06 0 416287 4.39119e+06 0 421750 4.40092e+06 0 427467 4.41099e+06 0 433455 4.42141e+06 0 439733 4.43217e+06 0 446322 4.44331e+06 0 453244 4.45483e+06 0 460524 4.46675e+06 0 468188 4.47907e+06 0 247004 4.20035e+06 0 247532 4.19799e+06 0 248058 4.19569e+06 0 248583 4.19343e+06 0 249105 4.19123e+06 0 249626 4.18909e+06 0 250146 4.18699e+06 0 250666 4.18495e+06 0 251185 4.18296e+06 0 251704 4.18101e+06 0 252224 4.17912e+06 0 252744 4.17728e+06 0 253264 4.17549e+06 0 253786 4.17375e+06 0 254310 4.17205e+06 0 254835 4.17041e+06 0 255362 4.16882e+06 0 255892 4.16727e+06 0 256424 4.16577e+06 0 256959 4.16432e+06 0 257497 4.16293e+06 0 258039 4.16157e+06 0 258584 4.16027e+06 0 259134 4.15902e+06 0 259689 4.15781e+06 0 260248 4.15666e+06 0 260812 4.15555e+06 0 261381 4.15449e+06 0 261956 4.15348e+06 0 262537 4.15252e+06 0 263125 4.15161e+06 0 263719 4.15075e+06 0 264320 4.14994e+06 0 264929 4.14918e+06 0 265545 4.14846e+06 0 266169 4.1478e+06 0 266802 4.14719e+06 0 267443 4.14663e+06 0 268094 4.14612e+06 0 268754 4.14566e+06 0 269424 4.14526e+06 0 270104 4.14491e+06 0 270795 4.14461e+06 0 271497 4.14436e+06 0 272210 4.14417e+06 0 272936 4.14403e+06 0 273674 4.14395e+06 0 274424 4.14392e+06 0 275188 4.14395e+06 0 275966 4.14404e+06 0 276758 4.14419e+06 0 277565 4.14439e+06 0 278387 4.14465e+06 0 279225 4.14497e+06 0 280079 4.14535e+06 0 280950 4.1458e+06 0 281838 4.1463e+06 0 282745 4.14687e+06 0 283670 4.1475e+06 0 284615 4.1482e+06 0 285580 4.14896e+06 0 286565 4.14979e+06 0 287572 4.15069e+06 0 288601 4.15166e+06 0 289653 4.1527e+06 0 290728 4.15381e+06 0 291828 4.155e+06 0 292953 4.15625e+06 0 294104 4.15759e+06 0 295283 4.159e+06 0 296489 4.16049e+06 0 297724 4.16206e+06 0 298990 4.16371e+06 0 300286 4.16544e+06 0 301614 4.16726e+06 0 302976 4.16917e+06 0 304372 4.17116e+06 0 305804 4.17325e+06 0 307273 4.17543e+06 0 308781 4.1777e+06 0 310328 4.18007e+06 0 311916 4.18253e+06 0 313547 4.1851e+06 0 315223 4.18777e+06 0 316944 4.19055e+06 0 318714 4.19343e+06 0 320533 4.19643e+06 0 322404 4.19954e+06 0 324328 4.20276e+06 0 326309 4.20611e+06 0 328347 4.20958e+06 0 330446 4.21317e+06 0 332608 4.21689e+06 0 334835 4.22074e+06 0 337131 4.22473e+06 0 339499 4.22886e+06 0 341940 4.23313e+06 0 344459 4.23754e+06 0 347060 4.24211e+06 0 349745 4.24683e+06 0 352519 4.25172e+06 0 355385 4.25676e+06 0 358348 4.26198e+06 0 361413 4.26737e+06 0 364585 4.27294e+06 0 367868 4.27869e+06 0 371269 4.28464e+06 0 374793 4.29078e+06 0 378447 4.29712e+06 0 382236 4.30367e+06 0 386170 4.31044e+06 0 390254 4.31742e+06 0 394498 4.32464e+06 0 398910 4.33209e+06 0 403501 4.33979e+06 0 408279 4.34773e+06 0 413256 4.35594e+06 0 418445 4.36442e+06 0 423857 4.37317e+06 0 429507 4.38221e+06 0 435409 4.39155e+06 0 441581 4.40119e+06 0 448038 4.41115e+06 0 454802 4.42143e+06 0 461891 4.43205e+06 0 469329 4.44301e+06 0 477141 4.45433e+06 0 485353 4.46602e+06 0 243614 4.19976e+06 0 244216 4.1974e+06 0 244816 4.19509e+06 0 245413 4.19284e+06 0 246007 4.19064e+06 0 246600 4.18849e+06 0 247191 4.18639e+06 0 247781 4.18434e+06 0 248371 4.18235e+06 0 248959 4.1804e+06 0 249548 4.1785e+06 0 250137 4.17666e+06 0 250727 4.17486e+06 0 251317 4.17311e+06 0 251908 4.17141e+06 0 252501 4.16976e+06 0 253096 4.16816e+06 0 253693 4.1666e+06 0 254293 4.1651e+06 0 254895 4.16364e+06 0 255501 4.16223e+06 0 256110 4.16087e+06 0 256723 4.15956e+06 0 257340 4.1583e+06 0 257962 4.15708e+06 0 258588 4.15592e+06 0 259220 4.1548e+06 0 259857 4.15372e+06 0 260500 4.1527e+06 0 261149 4.15173e+06 0 261805 4.1508e+06 0 262468 4.14993e+06 0 263138 4.1491e+06 0 263816 4.14832e+06 0 264502 4.14759e+06 0 265197 4.14692e+06 0 265900 4.14629e+06 0 266613 4.14571e+06 0 267335 4.14518e+06 0 268067 4.14471e+06 0 268810 4.14428e+06 0 269563 4.14391e+06 0 270328 4.14359e+06 0 271105 4.14332e+06 0 271894 4.14311e+06 0 272696 4.14295e+06 0 273511 4.14284e+06 0 274340 4.14279e+06 0 275182 4.1428e+06 0 276040 4.14286e+06 0 276913 4.14297e+06 0 277801 4.14315e+06 0 278706 4.14338e+06 0 279628 4.14367e+06 0 280567 4.14402e+06 0 281524 4.14444e+06 0 282501 4.14491e+06 0 283496 4.14544e+06 0 284512 4.14604e+06 0 285548 4.1467e+06 0 286606 4.14743e+06 0 287686 4.14823e+06 0 288789 4.14909e+06 0 289915 4.15001e+06 0 291066 4.15101e+06 0 292243 4.15208e+06 0 293446 4.15322e+06 0 294676 4.15443e+06 0 295934 4.15572e+06 0 297221 4.15708e+06 0 298538 4.15852e+06 0 299887 4.16004e+06 0 301267 4.16164e+06 0 302681 4.16332e+06 0 304130 4.16508e+06 0 305614 4.16693e+06 0 307135 4.16886e+06 0 308695 4.17088e+06 0 310295 4.17299e+06 0 311935 4.1752e+06 0 313619 4.1775e+06 0 315347 4.17989e+06 0 317120 4.18238e+06 0 318942 4.18498e+06 0 320813 4.18767e+06 0 322735 4.19047e+06 0 324711 4.19338e+06 0 326742 4.1964e+06 0 328831 4.19953e+06 0 330979 4.20278e+06 0 333190 4.20615e+06 0 335466 4.20964e+06 0 337810 4.21325e+06 0 340223 4.21699e+06 0 342710 4.22086e+06 0 345274 4.22486e+06 0 347917 4.229e+06 0 350643 4.23329e+06 0 353456 4.23771e+06 0 356359 4.24229e+06 0 359357 4.24702e+06 0 362454 4.25191e+06 0 365655 4.25696e+06 0 368964 4.26218e+06 0 372387 4.26757e+06 0 375929 4.27313e+06 0 379596 4.27887e+06 0 383393 4.2848e+06 0 387329 4.29093e+06 0 391409 4.29725e+06 0 395641 4.30377e+06 0 400034 4.3105e+06 0 404595 4.31745e+06 0 409335 4.32462e+06 0 414262 4.33202e+06 0 419387 4.33965e+06 0 424722 4.34752e+06 0 430279 4.35565e+06 0 436071 4.36403e+06 0 442112 4.37267e+06 0 448416 4.38159e+06 0 455002 4.39079e+06 0 461885 4.40027e+06 0 469086 4.41005e+06 0 476624 4.42013e+06 0 484523 4.43053e+06 0 492806 4.44124e+06 0 501500 4.45227e+06 0 240218 4.19906e+06 0 240893 4.1967e+06 0 241566 4.1944e+06 0 242234 4.19214e+06 0 242901 4.18994e+06 0 243564 4.18779e+06 0 244226 4.18569e+06 0 244886 4.18364e+06 0 245545 4.18164e+06 0 246203 4.17969e+06 0 246860 4.17779e+06 0 247518 4.17593e+06 0 248175 4.17413e+06 0 248833 4.17238e+06 0 249492 4.17067e+06 0 250152 4.16902e+06 0 250