<?xml version="1.0"?> 
<VTKFile type="StructuredGrid" version="0.1"> 
<StructuredGrid WholeExtent="0 16 0 16 0 0"> 
<Piece Extent="0 16 0 16 0 0"> 
<CellData>
<DataArray type="Float32" Name="err_h1" format="ascii" NumberOfComponents="1"> 
1173.92 1119.2 1066.46 1016.9 967.629 923.777 889.659 868.836 863.109 872.201 893.985 925.182 962.179 1001.66 1040.99 1078.38 1266.06 1156.52 1092.95 1039.4 993.854 958.429 935.985 928.368 935.81 956.892 989.012 1029.08 1074.1 1121.63 1169.98 1218.36 1358.02 1198.71 1120.69 1063.3 1021.3 994.378 983.514 988.877 1009.32 1042.56 1085.76 1136.05 1191 1248.87 1308.71 1370.42 1449.13 1243.54 1148.96 1087.51 1048.99 1030.57 1031.2 1049.39 1082.81 1128.52 1183.57 1245.35 1311.93 1382.1 1455.47 1532.44 1538.87 1289.16 1176.82 1111 1075.92 1065.98 1078.03 1108.98 1155.45 1214.02 1281.7 1356.15 1435.81 1519.93 1608.52 1702.28 1626.73 1334.06 1203.32 1132.86 1101.18 1099.69 1123.09 1166.77 1226.44 1298.3 1379.37 1467.53 1561.55 1660.99 1766.14 1877.88 1712.22 1377.03 1227.61 1152.33 1123.97 1130.87 1165.55 1221.98 1295.04 1380.63 1475.79 1578.59 1688.05 1803.95 1926.73 2057.32 1794.8 1417.15 1248.97 1168.77 1143.67 1158.85 1204.75 1273.95 1360.59 1460.34 1570.23 1688.48 1814.29 1947.58 2088.83 2238.94 1873.94 1453.69 1266.92 1181.76 1159.81 1183.15 1240.16 1322.14 1422.57 1536.85 1662.03 1796.45 1939.38 2090.81 2251.22 2421.35 1949.11 1486.11 1281.12 1191.07 1172.11 1203.39 1271.39 1366.16 1480.54 1609.7 1750.67 1901.84 2062.55 2232.78 2412.9 2603.49 2019.79 1514.06 1291.48 1196.63 1180.43 1219.39 1298.19 1405.72 1534.18 1678.51 1835.7 2004.15 2183.21 2372.79 2573.15 2784.65 2085.51 1537.29 1298.05 1198.55 1184.77 1231.04 1320.45 1440.67 1583.29 1743.03 1916.8 2102.99 2300.91 2510.37 2731.49 2964.39 2145.85 1555.67 1301.06 1197.05 1185.22 1238.39 1338.13 1470.93 1627.76 1803.1 1993.77 2198.11 2415.37 2645.25 2887.67 3142.57 2200.46 1569.15 1300.91 1192.42 1181.92 1241.52 1351.3 1496.51 1667.55 1858.63 2066.47 2289.36 2526.44 2777.29 3041.67 3319.28 2249.06 1577.77 1298.09 1185.02 1175.08 1240.65 1360.08 1517.48 1702.69 1909.61 2134.88 2376.69 2634.09 2906.53 3193.59 3494.79 2291.48 1581.57 1293.25 1175.16 1164.89 1236.07 1364.62 1533.97 1733.25 1956.1 2199.03 2460.15 2738.4 3033.12 3343.7 3669.5 
</DataArray> 
</CellData> 
<Points> 
<DataArray type="Float32" NumberOfComponents="3"> 
0.08554 0.05 0 0.08554 0.05625 0 0.08554 0.0625 0 0.08554 0.06875 0 0.08554 0.075 0 0.08554 0.08125 0 0.08554 0.0875 0 0.08554 0.09375 0 0.08554 0.1 0 0.08554 0.10625 0 0.08554 0.1125 0 0.08554 0.11875 0 0.08554 0.125 0 0.08554 0.13125 0 0.08554 0.1375 0 0.08554 0.14375 0 0.08554 0.15 0 0.0862346 0.0499833 0 0.0866417 0.0562871 0 0.0870484 0.0625837 0 0.0874545 0.0688733 0 0.0878603 0.0751559 0 0.0882655 0.0814314 0 0.0886704 0.0876998 0 0.0890747 0.0939613 0 0.0894786 0.100216 0 0.0898821 0.106463 0 0.0902851 0.112704 0 0.0906877 0.118937 0 0.0910898 0.125163 0 0.0914915 0.131383 0 0.0918927 0.137596 0 0.0922934 0.143801 0 0.0926938 0.15 0 0.0869334 0.0499327 0 0.0877534 0.0562861 0 0.0885716 0.0626261 0 0.089388 0.0689526 0 0.0902028 0.0752659 0 0.0910158 0.0815659 0 0.0918271 0.0878526 0 0.0926368 0.0941261 0 0.0934447 0.100386 0 0.0942509 0.106634 0 0.0950554 0.112868 0 0.0958583 0.119089 0 0.0966595 0.125297 0 0.097459 0.131492 0 0.0982568 0.137674 0 0.099053 0.143844 0 0.0998475 0.15 0 0.0876341 0.0498476 0 0.0888714 0.0562462 0 0.0901051 0.0626259 0 0.0913351 0.0689868 0 0.0925616 0.0753289 0 0.0937844 0.0816523 0 0.0950036 0.0879572 0 0.0962192 0.0942434 0 0.0974313 0.100511 0 0.0986398 0.106761 0 0.0998448 0.112992 0 0.101046 0.119205 0 0.102244 0.1254 0 0.103439 0.131577 0 0.10463 0.137736 0 0.105817 0.143877 0 0.107001 0.15 0 0.0883339 0.0497275 0 0.0899921 0.0561669 0 0.0916442 0.0625827 0 0.0932903 0.068975 0 0.0949304 0.0753441 0 0.0965645 0.0816899 0 0.0981927 0.0880127 0 0.099815 0.0943126 0 0.101431 0.10059 0 0.103042 0.106844 0 0.104647 0.113076 0 0.106246 0.119285 0 0.107839 0.125472 0 0.109426 0.131637 0 0.111008 0.13778 0 0.112584 0.143901 0 0.114155 0.15 0 0.0890304 0.0495724 0 0.0911116 0.0560477 0 0.0931841 0.0624957 0 0.0952478 0.0689167 0 0.0973029 0.0753107 0 0.0993494 0.081678 0 0.101387 0.0880187 0 0.103417 0.094333 0 0.105438 0.100621 0 0.107451 0.106883 0 0.109455 0.113119 0 0.111451 0.119329 0 0.113439 0.125514 0 0.115418 0.131673 0 0.11739 0.137807 0 0.119353 0.143916 0 0.121309 0.15 0 0.0897209 0.0493824 0 0.0922261 0.0558886 0 0.0947197 0.0623649 0 0.0972018 0.0688115 0 0.0996726 0.0752285 0 0.102132 0.0816161 0 0.10458 0.0879746 0 0.107018 0.0943042 0 0.109444 0.100605 0 0.111859 0.106877 0 0.114263 0.113121 0 0.116656 0.119337 0 0.119039 0.125525 0 0.12141 0.131685 0 0.123772 0.137817 0 0.126122 0.143922 0 0.128463 0.15 0 0.0904028 0.0491578 0 0.0933315 0.0556899 0 0.0962461 0.0621903 0 0.0991465 0.0686594 0 0.102033 0.0750972 0 0.104906 0.0815041 0 0.107764 0.0878803 0 0.11061 0.094226 0 0.113441 0.100541 0 0.116259 0.106827 0 0.119064 0.113082 0 0.121855 0.119308 0 0.124634 0.125505 0 0.127399 0.131672 0 0.130151 0.13781 0 0.13289 0.143919 0 0.135616 0.15 0 0.0910736 0.0488993 0 0.0944242 0.0554519 0 0.0977583 0.0619723 0 0.101076 0.0684606 0 0.104377 0.0749172 0 0.107663 0.0813422 0 0.110932 0.0877359 0 0.114186 0.0940985 0 0.117423 0.10043 0 0.120645 0.106731 0 0.123852 0.113002 0 0.127043 0.119243 0 0.130218 0.125453 0 0.133379 0.131634 0 0.136524 0.137785 0 0.139655 0.143907 0 0.14277 0.15 0 0.0917307 0.0486078 0 0.0955002 0.0551755 0 0.0992514 0.0617114 0 0.102984 0.0682157 0 0.1067 0.0746887 0 0.110397 0.0811306 0 0.114076 0.0875415 0 0.117738 0.0939218 0 0.121383 0.100272 0 0.12501 0.106591 0 0.12862 0.112881 0 0.132212 0.119141 0 0.135788 0.125371 0 0.139347 0.131572 0 0.142889 0.137743 0 0.146415 0.143886 0 0.149924 0.15 0 0.0923717 0.0482844 0 0.0965558 0.0548616 0 0.100721 0.0614086 0 0.104866 0.0679255 0 0.108993 0.0744125 0 0.113101 0.0808699 0 0.11719 0.0872978 0 0.12126 0.0936964 0 0.125312 0.100066 0 0.129346 0.106407 0 0.133361 0.112719 0 0.137359 0.119002 0 0.141338 0.125258 0 0.145299 0.131485 0 0.149243 0.137684 0 0.153169 0.143856 0 0.157078 0.15 0 0.0929943 0.0479305 0 0.0975875 0.0545116 0 0.102161 0.0610651 0 0.106716 0.067591 0 0.111251 0.0740896 0 0.115768 0.080561 0 0.120266 0.0870054 0 0.124745 0.0934229 0 0.129205 0.0998137 0 0.133647 0.106178 0 0.13807 0.112516 0 0.142475 0.118828 0 0.146863 0.125114 0 0.151231 0.131374 0 0.155583 0.137608 0 0.159916 0.143817 0 0.164231 0.15 0 0.0935965 0.0475477 0 0.098592 0.054127 0 0.103569 0.0606823 0 0.108528 0.0672136 0 0.113469 0.0737211 0 0.118392 0.0802049 0 0.123297 0.0866652 0 0.128184 0.093102 0 0.133054 0.0995156 0 0.137906 0.105906 0 0.14274 0.112273 0 0.147557 0.118618 0 0.152357 0.124939 0 0.15714 0.131238 0 0.161905 0.137514 0 0.166654 0.143768 0 0.171385 0.15 0 0.0941763 0.0471377 0 0.0995661 0.0537095 0 0.10494 0.0602618 0 0.110298 0.0667948 0 0.11564 0.0733085 0 0.120967 0.079803 0 0.126278 0.0862784 0 0.131573 0.0927348 0 0.136852 0.0991723 0 0.142117 0.105591 0 0.147365 0.111991 0 0.152599 0.118372 0 0.157817 0.124734 0 0.16302 0.131078 0 0.168208 0.137404 0 0.173381 0.143711 0 0.178539 0.15 0 0.0947319 0.0467025 0 0.100507 0.053261 0 0.10627 0.0598056 0 0.112021 0.0663364 0 0.11776 0.0728535 0 0.123486 0.0793568 0 0.129201 0.0858464 0 0.134903 0.0923224 0 0.140594 0.0987849 0 0.146273 0.105234 0 0.151939 0.111669 0 0.157594 0.118091 0 0.163238 0.124499 0 0.168869 0.130895 0 0.174488 0.137276 0 0.180096 0.143645 0 0.185693 0.15 0 0.0952618 0.0462441 0 0.101412 0.0527836 0 0.107556 0.0593156 0 0.113692 0.0658404 0 0.119822 0.0723578 0 0.125945 0.0788679 0 0.132061 0.0853707 0 0.13817 0.0918662 0 0.144273 0.0983545 0 0.150368 0.104835 0 0.156457 0.111309 0 0.162539 0.117776 0 0.168614 0.124235 0 0.174682 0.130687 0 0.180744 0.137132 0 0.186798 0.14357 0 0.192846 0.15 0 0.0957648 0.0457648 0 0.102279 0.0522795 0 0.108794 0.0587942 0 0.115309 0.0653089 0 0.121824 0.0718236 0 0.128338 0.0783383 0 0.134853 0.084853 0 0.141368 0.0913677 0 0.147882 0.0978824 0 0.154397 0.104397 0 0.160912 0.110912 0 0.167426 0.117426 0 0.173941 0.123941 0 0.180456 0.130456 0 0.186971 0.136971 0 0.193485 0.143485 0 0.2 0.15 0 
</DataArray>
</Points> 
</Piece> 
</StructuredGrid> 
</VTKFile> 
