<?xml version="1.0"?> 
<VTKFile type="StructuredGrid" version="0.1"> 
<StructuredGrid WholeExtent="0 16 0 16 0 0"> 
<Piece Extent="0 16 0 16 0 0"> 
<CellData>
<DataArray type="Float32" Name="err_h1" format="ascii" NumberOfComponents="1"> 
62.1282 63.2709 65.5512 68.9636 73.509 79.2022 86.0792 94.2014 103.66 114.581 127.126 141.502 157.962 176.821 198.463 223.358 16.2078 19.9174 25.8657 32.9923 40.8505 49.2856 58.2669 67.8239 78.0207 88.9482 100.722 113.488 127.425 142.762 159.786 178.873 96.0903 96.7977 98.2037 100.292 103.038 106.412 110.379 114.898 119.925 125.405 131.276 137.459 143.857 150.343 156.754 162.875 139.122 139.452 140.111 141.097 142.406 144.035 145.979 148.234 150.796 153.662 156.834 160.317 164.124 168.277 172.819 177.812 146.189 146.391 146.795 147.4 148.208 149.218 150.431 151.847 153.467 155.291 157.319 159.55 161.982 164.612 167.431 170.425 128.461 128.615 128.922 129.383 129.998 130.766 131.688 132.764 133.993 135.376 136.912 138.601 140.444 142.441 144.594 146.903 96.5391 96.6931 97.0009 97.462 98.0756 98.8408 99.7565 100.821 102.034 103.393 104.896 106.542 108.329 110.256 112.32 114.52 58.4302 58.6467 59.0778 59.7201 60.5682 61.6158 62.8555 64.279 65.8778 67.6431 69.5664 71.6392 73.8535 76.2019 78.677 81.2724 19.6179 20.1946 21.3022 22.8657 24.8015 27.0329 29.4967 32.1434 34.9357 37.8461 40.8539 43.944 47.1053 50.3293 53.6099 56.9429 18.5686 19.1276 20.1999 21.711 23.5786 25.7276 28.0961 30.6363 33.312 36.0964 38.9698 41.9173 44.9281 47.9939 51.1086 54.2673 51.2875 51.4743 51.8462 52.3997 53.1296 54.0296 55.0925 56.3102 57.6743 59.1761 60.807 62.5588 64.4234 66.3933 68.4616 70.6218 79.4054 79.5145 79.7324 80.0584 80.4915 81.0305 81.6737 82.4195 83.2657 84.2102 85.2506 86.3846 87.6094 88.9227 90.3217 91.8039 102.172 102.249 102.402 102.631 102.935 103.316 103.771 104.301 104.904 105.581 106.33 107.15 108.042 109.003 110.033 111.13 119.334 119.394 119.513 119.691 119.929 120.226 120.581 120.996 121.469 122.001 122.591 123.239 123.944 124.706 125.526 126.401 130.795 130.845 130.946 131.097 131.299 131.551 131.853 132.205 132.608 133.06 133.563 134.116 134.718 135.37 136.072 136.823 136.527 136.573 136.666 136.805 136.991 137.222 137.501 137.825 138.196 138.613 139.076 139.586 140.142 140.744 141.393 142.087 
</DataArray> 
</CellData> 
<Points> 
<DataArray type="Float32" NumberOfComponents="3"> 
0.09021 0 0 0.09021 0.0006125 0 0.09021 0.001225 0 0.09021 0.0018375 0 0.09021 0.00245 0 0.09021 0.0030625 0 0.09021 0.003675 0 0.09021 0.0042875 0 0.09021 0.0049 0 0.09021 0.0055125 0 0.09021 0.006125 0 0.09021 0.0067375 0 0.09021 0.00735 0 0.09021 0.0079625 0 0.09021 0.008575 0 0.09021 0.0091875 0 0.09021 0.0098 0 0.0970719 0 0 0.0970719 0.0006125 0 0.0970719 0.001225 0 0.0970719 0.0018375 0 0.0970719 0.00245 0 0.0970719 0.0030625 0 0.0970719 0.003675 0 0.0970719 0.0042875 0 0.0970719 0.0049 0 0.0970719 0.0055125 0 0.0970719 0.006125 0 0.0970719 0.0067375 0 0.0970719 0.00735 0 0.0970719 0.0079625 0 0.0970719 0.008575 0 0.0970719 0.0091875 0 0.0970719 0.0098 0 0.103934 0 0 0.103934 0.0006125 0 0.103934 0.001225 0 0.103934 0.0018375 0 0.103934 0.00245 0 0.103934 0.0030625 0 0.103934 0.003675 0 0.103934 0.0042875 0 0.103934 0.0049 0 0.103934 0.0055125 0 0.103934 0.006125 0 0.103934 0.0067375 0 0.103934 0.00735 0 0.103934 0.0079625 0 0.103934 0.008575 0 0.103934 0.0091875 0 0.103934 0.0098 0 0.110796 0 0 0.110796 0.0006125 0 0.110796 0.001225 0 0.110796 0.0018375 0 0.110796 0.00245 0 0.110796 0.0030625 0 0.110796 0.003675 0 0.110796 0.0042875 0 0.110796 0.0049 0 0.110796 0.0055125 0 0.110796 0.006125 0 0.110796 0.0067375 0 0.110796 0.00735 0 0.110796 0.0079625 0 0.110796 0.008575 0 0.110796 0.0091875 0 0.110796 0.0098 0 0.117657 0 0 0.117657 0.0006125 0 0.117657 0.001225 0 0.117657 0.0018375 0 0.117657 0.00245 0 0.117657 0.0030625 0 0.117657 0.003675 0 0.117657 0.0042875 0 0.117657 0.0049 0 0.117657 0.0055125 0 0.117657 0.006125 0 0.117657 0.0067375 0 0.117657 0.00735 0 0.117657 0.0079625 0 0.117657 0.008575 0 0.117657 0.0091875 0 0.117657 0.0098 0 0.124519 0 0 0.124519 0.0006125 0 0.124519 0.001225 0 0.124519 0.0018375 0 0.124519 0.00245 0 0.124519 0.0030625 0 0.124519 0.003675 0 0.124519 0.0042875 0 0.124519 0.0049 0 0.124519 0.0055125 0 0.124519 0.006125 0 0.124519 0.0067375 0 0.124519 0.00735 0 0.124519 0.0079625 0 0.124519 0.008575 0 0.124519 0.0091875 0 0.124519 0.0098 0 0.131381 0 0 0.131381 0.0006125 0 0.131381 0.001225 0 0.131381 0.0018375 0 0.131381 0.00245 0 0.131381 0.0030625 0 0.131381 0.003675 0 0.131381 0.0042875 0 0.131381 0.0049 0 0.131381 0.0055125 0 0.131381 0.006125 0 0.131381 0.0067375 0 0.131381 0.00735 0 0.131381 0.0079625 0 0.131381 0.008575 0 0.131381 0.0091875 0 0.131381 0.0098 0 0.138243 0 0 0.138243 0.0006125 0 0.138243 0.001225 0 0.138243 0.0018375 0 0.138243 0.00245 0 0.138243 0.0030625 0 0.138243 0.003675 0 0.138243 0.0042875 0 0.138243 0.0049 0 0.138243 0.0055125 0 0.138243 0.006125 0 0.138243 0.0067375 0 0.138243 0.00735 0 0.138243 0.0079625 0 0.138243 0.008575 0 0.138243 0.0091875 0 0.138243 0.0098 0 0.145105 0 0 0.145105 0.0006125 0 0.145105 0.001225 0 0.145105 0.0018375 0 0.145105 0.00245 0 0.145105 0.0030625 0 0.145105 0.003675 0 0.145105 0.0042875 0 0.145105 0.0049 0 0.145105 0.0055125 0 0.145105 0.006125 0 0.145105 0.0067375 0 0.145105 0.00735 0 0.145105 0.0079625 0 0.145105 0.008575 0 0.145105 0.0091875 0 0.145105 0.0098 0 0.151967 0 0 0.151967 0.0006125 0 0.151967 0.001225 0 0.151967 0.0018375 0 0.151967 0.00245 0 0.151967 0.0030625 0 0.151967 0.003675 0 0.151967 0.0042875 0 0.151967 0.0049 0 0.151967 0.0055125 0 0.151967 0.006125 0 0.151967 0.0067375 0 0.151967 0.00735 0 0.151967 0.0079625 0 0.151967 0.008575 0 0.151967 0.0091875 0 0.151967 0.0098 0 0.158829 0 0 0.158829 0.0006125 0 0.158829 0.001225 0 0.158829 0.0018375 0 0.158829 0.00245 0 0.158829 0.0030625 0 0.158829 0.003675 0 0.158829 0.0042875 0 0.158829 0.0049 0 0.158829 0.0055125 0 0.158829 0.006125 0 0.158829 0.0067375 0 0.158829 0.00735 0 0.158829 0.0079625 0 0.158829 0.008575 0 0.158829 0.0091875 0 0.158829 0.0098 0 0.165691 0 0 0.165691 0.0006125 0 0.165691 0.001225 0 0.165691 0.0018375 0 0.165691 0.00245 0 0.165691 0.0030625 0 0.165691 0.003675 0 0.165691 0.0042875 0 0.165691 0.0049 0 0.165691 0.0055125 0 0.165691 0.006125 0 0.165691 0.0067375 0 0.165691 0.00735 0 0.165691 0.0079625 0 0.165691 0.008575 0 0.165691 0.0091875 0 0.165691 0.0098 0 0.172553 0 0 0.172553 0.0006125 0 0.172553 0.001225 0 0.172553 0.0018375 0 0.172553 0.00245 0 0.172553 0.0030625 0 0.172553 0.003675 0 0.172553 0.0042875 0 0.172553 0.0049 0 0.172553 0.0055125 0 0.172553 0.006125 0 0.172553 0.0067375 0 0.172553 0.00735 0 0.172553 0.0079625 0 0.172553 0.008575 0 0.172553 0.0091875 0 0.172553 0.0098 0 0.179414 0 0 0.179414 0.0006125 0 0.179414 0.001225 0 0.179414 0.0018375 0 0.179414 0.00245 0 0.179414 0.0030625 0 0.179414 0.003675 0 0.179414 0.0042875 0 0.179414 0.0049 0 0.179414 0.0055125 0 0.179414 0.006125 0 0.179414 0.0067375 0 0.179414 0.00735 0 0.179414 0.0079625 0 0.179414 0.008575 0 0.179414 0.0091875 0 0.179414 0.0098 0 0.186276 0 0 0.186276 0.0006125 0 0.186276 0.001225 0 0.186276 0.0018375 0 0.186276 0.00245 0 0.186276 0.0030625 0 0.186276 0.003675 0 0.186276 0.0042875 0 0.186276 0.0049 0 0.186276 0.0055125 0 0.186276 0.006125 0 0.186276 0.0067375 0 0.186276 0.00735 0 0.186276 0.0079625 0 0.186276 0.008575 0 0.186276 0.0091875 0 0.186276 0.0098 0 0.193138 0 0 0.193138 0.0006125 0 0.193138 0.001225 0 0.193138 0.0018375 0 0.193138 0.00245 0 0.193138 0.0030625 0 0.193138 0.003675 0 0.193138 0.0042875 0 0.193138 0.0049 0 0.193138 0.0055125 0 0.193138 0.006125 0 0.193138 0.0067375 0 0.193138 0.00735 0 0.193138 0.0079625 0 0.193138 0.008575 0 0.193138 0.0091875 0 0.193138 0.0098 0 0.2 0 0 0.2 0.0006125 0 0.2 0.001225 0 0.2 0.0018375 0 0.2 0.00245 0 0.2 0.0030625 0 0.2 0.003675 0 0.2 0.0042875 0 0.2 0.0049 0 0.2 0.0055125 0 0.2 0.006125 0 0.2 0.0067375 0 0.2 0.00735 0 0.2 0.0079625 0 0.2 0.008575 0 0.2 0.0091875 0 0.2 0.0098 0 
</DataArray>
</Points> 
</Piece> 
</StructuredGrid> 
</VTKFile> 
