<?xml version="1.0"?> 
<VTKFile type="StructuredGrid" version="0.1"> 
<StructuredGrid WholeExtent="0 16 0 16 0 0"> 
<Piece Extent="0 16 0 16 0 0"> 
<CellData>
<DataArray type="Float32" Name="err_h1" format="ascii" NumberOfComponents="1"> 
394.337 316.853 253.341 203.873 171.932 163.202 179.596 216.105 266.544 327.528 398.242 479.586 573.824 684.689 817.887 982.124 406.312 387.085 376.669 375.368 383.263 400.15 425.612 459.173 500.417 549.062 604.955 668.011 738.089 814.817 897.394 984.581 496.212 501.172 509.434 521.492 537.629 557.98 582.574 611.359 644.218 680.957 721.291 764.791 810.817 858.38 905.912 950.887 564.169 572.376 583.211 596.57 612.385 630.588 651.094 673.782 698.493 725.013 753.074 782.356 812.514 843.26 874.56 907.068 579.169 588.809 599.902 612.446 626.412 641.747 658.382 676.23 695.19 715.155 736.015 757.668 780.029 803.022 826.513 850.089 558.14 567.895 578.628 590.305 602.891 616.349 630.637 645.711 661.525 678.029 695.172 712.898 731.143 749.832 768.901 788.378 515.773 525.834 536.548 547.901 559.877 572.456 585.615 599.332 613.582 628.337 643.566 659.241 675.33 691.807 708.644 725.785 464.297 474.757 485.687 497.075 508.914 521.192 533.898 547.02 560.544 574.458 588.745 603.392 618.382 633.698 649.32 665.237 411.45 422.307 433.512 445.061 456.95 469.175 481.731 494.612 507.814 521.329 535.151 549.272 563.685 578.381 593.352 608.588 361.902 373.031 384.432 396.106 408.052 420.271 432.76 445.52 458.55 471.846 485.408 499.232 513.316 527.656 542.248 557.088 318.261 329.477 340.924 352.605 364.522 376.677 389.073 401.711 414.592 427.717 441.086 454.7 468.558 482.659 497.001 511.584 281.844 292.95 304.275 315.822 327.594 339.596 351.83 364.298 377.004 389.949 403.134 416.56 430.229 444.139 458.291 472.685 253.145 263.981 275.044 286.34 297.871 309.641 321.652 333.906 346.407 359.154 372.15 385.395 398.889 412.633 426.627 440.869 232.136 242.616 253.349 264.338 275.584 287.09 298.855 310.883 323.172 335.724 348.539 361.616 374.956 388.558 402.421 416.544 218.488 228.635 239.064 249.775 260.767 272.04 283.594 295.427 307.539 319.928 332.594 345.536 358.752 372.241 386.004 400.042 211.797 221.744 231.992 242.537 253.378 264.515 275.943 287.663 299.67 311.964 324.54 337.397 350.53 363.936 377.61 391.545 
</DataArray> 
</CellData> 
<Points> 
<DataArray type="Float32" NumberOfComponents="3"> 
0.09021 0.0098 0 0.0907531 0.0110629 0 0.0912962 0.0123258 0 0.0918392 0.0135887 0 0.0923823 0.0148516 0 0.0929254 0.0161145 0 0.0934685 0.0173774 0 0.0940116 0.0186403 0 0.0945546 0.0199032 0 0.0950977 0.0211661 0 0.0956408 0.022429 0 0.0961839 0.0236919 0 0.096727 0.0249548 0 0.0972701 0.0262177 0 0.0978131 0.0274806 0 0.0983562 0.0287435 0 0.0988993 0.0300064 0 0.0970719 0.0098 0 0.097581 0.0110629 0 0.0980902 0.0123258 0 0.0985993 0.0135887 0 0.0991084 0.0148516 0 0.0996176 0.0161145 0 0.100127 0.0173774 0 0.100636 0.0186403 0 0.101145 0.0199032 0 0.101654 0.0211661 0 0.102163 0.022429 0 0.102672 0.0236919 0 0.103182 0.0249548 0 0.103691 0.0262177 0 0.1042 0.0274806 0 0.104709 0.0287435 0 0.105218 0.0300064 0 0.103934 0.0098 0 0.104409 0.0110629 0 0.104884 0.0123258 0 0.105359 0.0135887 0 0.105835 0.0148516 0 0.10631 0.0161145 0 0.106785 0.0173774 0 0.10726 0.0186403 0 0.107735 0.0199032 0 0.108211 0.0211661 0 0.108686 0.022429 0 0.109161 0.0236919 0 0.109636 0.0249548 0 0.110111 0.0262177 0 0.110586 0.0274806 0 0.111062 0.0287435 0 0.111537 0.0300064 0 0.110796 0.0098 0 0.111237 0.0110629 0 0.111678 0.0123258 0 0.112119 0.0135887 0 0.112561 0.0148516 0 0.113002 0.0161145 0 0.113443 0.0173774 0 0.113884 0.0186403 0 0.114326 0.0199032 0 0.114767 0.0211661 0 0.115208 0.022429 0 0.115649 0.0236919 0 0.116091 0.0249548 0 0.116532 0.0262177 0 0.116973 0.0274806 0 0.117414 0.0287435 0 0.117856 0.0300064 0 0.117657 0.0098 0 0.118065 0.0110629 0 0.118472 0.0123258 0 0.118879 0.0135887 0 0.119287 0.0148516 0 0.119694 0.0161145 0 0.120101 0.0173774 0 0.120509 0.0186403 0 0.120916 0.0199032 0 0.121323 0.0211661 0 0.121731 0.022429 0 0.122138 0.0236919 0 0.122545 0.0249548 0 0.122953 0.0262177 0 0.12336 0.0274806 0 0.123767 0.0287435 0 0.124174 0.0300064 0 0.124519 0.0098 0 0.124893 0.0110629 0 0.125266 0.0123258 0 0.125639 0.0135887 0 0.126013 0.0148516 0 0.126386 0.0161145 0 0.12676 0.0173774 0 0.127133 0.0186403 0 0.127506 0.0199032 0 0.12788 0.0211661 0 0.128253 0.022429 0 0.128626 0.0236919 0 0.129 0.0249548 0 0.129373 0.0262177 0 0.129747 0.0274806 0 0.13012 0.0287435 0 0.130493 0.0300064 0 0.131381 0.0098 0 0.131721 0.0110629 0 0.13206 0.0123258 0 0.1324 0.0135887 0 0.132739 0.0148516 0 0.133078 0.0161145 0 0.133418 0.0173774 0 0.133757 0.0186403 0 0.134097 0.0199032 0 0.134436 0.0211661 0 0.134776 0.022429 0 0.135115 0.0236919 0 0.135454 0.0249548 0 0.135794 0.0262177 0 0.136133 0.0274806 0 0.136473 0.0287435 0 0.136812 0.0300064 0 0.138243 0.0098 0 0.138549 0.0110629 0 0.138854 0.0123258 0 0.13916 0.0135887 0 0.139465 0.0148516 0 0.139771 0.0161145 0 0.140076 0.0173774 0 0.140382 0.0186403 0 0.140687 0.0199032 0 0.140992 0.0211661 0 0.141298 0.022429 0 0.141603 0.0236919 0 0.141909 0.0249548 0 0.142214 0.0262177 0 0.14252 0.0274806 0 0.142825 0.0287435 0 0.143131 0.0300064 0 0.145105 0.0098 0 0.145377 0.0110629 0 0.145648 0.0123258 0 0.14592 0.0135887 0 0.146191 0.0148516 0 0.146463 0.0161145 0 0.146734 0.0173774 0 0.147006 0.0186403 0 0.147277 0.0199032 0 0.147549 0.0211661 0 0.14782 0.022429 0 0.148092 0.0236919 0 0.148363 0.0249548 0 0.148635 0.0262177 0 0.148907 0.0274806 0 0.149178 0.0287435 0 0.14945 0.0300064 0 0.151967 0.0098 0 0.152204 0.0110629 0 0.152442 0.0123258 0 0.15268 0.0135887 0 0.152917 0.0148516 0 0.153155 0.0161145 0 0.153392 0.0173774 0 0.15363 0.0186403 0 0.153868 0.0199032 0 0.154105 0.0211661 0 0.154343 0.022429 0 0.15458 0.0236919 0 0.154818 0.0249548 0 0.155056 0.0262177 0 0.155293 0.0274806 0 0.155531 0.0287435 0 0.155768 0.0300064 0 0.158829 0.0098 0 0.159032 0.0110629 0 0.159236 0.0123258 0 0.15944 0.0135887 0 0.159643 0.0148516 0 0.159847 0.0161145 0 0.160051 0.0173774 0 0.160254 0.0186403 0 0.160458 0.0199032 0 0.160662 0.0211661 0 0.160865 0.022429 0 0.161069 0.0236919 0 0.161273 0.0249548 0 0.161476 0.0262177 0 0.16168 0.0274806 0 0.161884 0.0287435 0 0.162087 0.0300064 0 0.165691 0.0098 0 0.16586 0.0110629 0 0.16603 0.0123258 0 0.1662 0.0135887 0 0.166369 0.0148516 0 0.166539 0.0161145 0 0.166709 0.0173774 0 0.166879 0.0186403 0 0.167048 0.0199032 0 0.167218 0.0211661 0 0.167388 0.022429 0 0.167557 0.0236919 0 0.167727 0.0249548 0 0.167897 0.0262177 0 0.168067 0.0274806 0 0.168236 0.0287435 0 0.168406 0.0300064 0 0.172553 0.0098 0 0.172688 0.0110629 0 0.172824 0.0123258 0 0.17296 0.0135887 0 0.173096 0.0148516 0 0.173231 0.0161145 0 0.173367 0.0173774 0 0.173503 0.0186403 0 0.173639 0.0199032 0 0.173774 0.0211661 0 0.17391 0.022429 0 0.174046 0.0236919 0 0.174182 0.0249548 0 0.174318 0.0262177 0 0.174453 0.0274806 0 0.174589 0.0287435 0 0.174725 0.0300064 0 0.179414 0.0098 0 0.179516 0.0110629 0 0.179618 0.0123258 0 0.17972 0.0135887 0 0.179822 0.0148516 0 0.179924 0.0161145 0 0.180025 0.0173774 0 0.180127 0.0186403 0 0.180229 0.0199032 0 0.180331 0.0211661 0 0.180433 0.022429 0 0.180534 0.0236919 0 0.180636 0.0249548 0 0.180738 0.0262177 0 0.18084 0.0274806 0 0.180942 0.0287435 0 0.181044 0.0300064 0 0.186276 0.0098 0 0.186344 0.0110629 0 0.186412 0.0123258 0 0.18648 0.0135887 0 0.186548 0.0148516 0 0.186616 0.0161145 0 0.186684 0.0173774 0 0.186751 0.0186403 0 0.186819 0.0199032 0 0.186887 0.0211661 0 0.186955 0.022429 0 0.187023 0.0236919 0 0.187091 0.0249548 0 0.187159 0.0262177 0 0.187227 0.0274806 0 0.187295 0.0287435 0 0.187362 0.0300064 0 0.193138 0.0098 0 0.193172 0.0110629 0 0.193206 0.0123258 0 0.19324 0.0135887 0 0.193274 0.0148516 0 0.193308 0.0161145 0 0.193342 0.0173774 0 0.193376 0.0186403 0 0.19341 0.0199032 0 0.193444 0.0211661 0 0.193478 0.022429 0 0.193511 0.0236919 0 0.193545 0.0249548 0 0.193579 0.0262177 0 0.193613 0.0274806 0 0.193647 0.0287435 0 0.193681 0.0300064 0 0.2 0.0098 0 0.2 0.0110629 0 0.2 0.0123258 0 0.2 0.0135887 0 0.2 0.0148516 0 0.2 0.0161145 0 0.2 0.0173774 0 0.2 0.0186403 0 0.2 0.0199032 0 0.2 0.0211661 0 0.2 0.022429 0 0.2 0.0236919 0 0.2 0.0249548 0 0.2 0.0262177 0 0.2 0.0274806 0 0.2 0.0287435 0 0.2 0.0300064 0 
</DataArray>
</Points> 
</Piece> 
</StructuredGrid> 
</VTKFile> 
