<?xml version="1.0"?> 
<VTKFile type="StructuredGrid" version="0.1"> 
<StructuredGrid WholeExtent="0 16 0 16 0 0"> 
<Piece Extent="0 16 0 16 0 0"> 
<CellData>
<DataArray type="Float32" Name="err_h1" format="ascii" NumberOfComponents="1"> 
3.62764 2.76375 2.82812 3.02579 3.29768 3.63484 4.03306 4.48007 4.93652 5.32019 5.51618 5.42276 5.0056 4.31468 3.45477 2.56806 0.962781 1.75819 1.83937 1.96802 2.15568 2.38343 2.64923 2.95489 3.29733 3.66142 4.01453 4.30809 4.49043 4.5275 4.41961 4.20692 0.471629 0.633155 0.952533 1.13682 1.28544 1.44613 1.62954 1.83894 2.07718 2.3454 2.64024 2.95182 3.26356 3.55546 3.8108 4.02396 0.246719 0.319809 0.408777 0.549293 0.678389 0.796101 0.917619 1.05303 1.20757 1.38452 1.58615 1.8134 2.0653 2.3388 2.62953 2.93365 0.132779 0.167023 0.209922 0.25942 0.325786 0.398495 0.47354 0.553859 0.644186 0.748485 0.869711 1.01018 1.17183 1.35629 1.56502 1.79957 0.0724258 0.0890332 0.109108 0.133313 0.160636 0.19362 0.231474 0.273518 0.320708 0.375163 0.439252 0.515112 0.604593 0.709428 0.83144 0.972743 0.0397703 0.0478961 0.0575184 0.0687265 0.0817969 0.0964288 0.113174 0.132354 0.154317 0.179803 0.209961 0.246127 0.289604 0.34158 0.403183 0.475621 0.0219146 0.0258868 0.0304886 0.0357609 0.0417124 0.0484533 0.0559621 0.0643973 0.0740075 0.0851346 0.0982634 0.114013 0.13306 0.156052 0.18356 0.216095 0.0120981 0.014026 0.0162123 0.0186634 0.0213904 0.0243949 0.0277247 0.031423 0.0355805 0.0403405 0.045896 0.0524862 0.0603797 0.069841 0.0810967 0.0943151 0.00668526 0.00760982 0.00863584 0.00976237 0.0109888 0.012321 0.0137672 0.0153544 0.0171224 0.0191287 0.0214484 0.0241676 0.0273757 0.0311545 0.0355674 0.0406503 0.0036945 0.00413078 0.00460443 0.00511314 0.00565574 0.00623302 0.00685092 0.00751944 0.00825602 0.00908456 0.010034 0.0111353 0.0124168 0.0138999 0.0155957 0.0175032 0.00203833 0.00224021 0.0024548 0.00268019 0.0029152 0.00316019 0.00341736 0.00369177 0.0039909 0.0043245 0.0047035 0.0051384 0.00563753 0.00620533 0.00684135 0.00754015 0.001117 0.00120889 0.00130533 0.00140468 0.0015058 0.00160836 0.00171321 0.00182237 0.00193907 0.00206741 0.00221169 0.00237567 0.00256172 0.00277032 0.00299976 0.00324639 0.000597812 0.000640544 0.000686707 0.000734387 0.000781893 0.000828052 0.000872395 0.000915276 0.000957831 0.00100184 0.00104941 0.00110258 0.00116286 0.00123086 0.00130608 0.00138703 0.00029416 0.000318454 0.000348987 0.000382289 0.000415157 0.000445042 0.00047018 0.000489628 0.00050327 0.000511816 0.000516742 0.000520165 0.000524574 0.000532414 0.000545576 0.000564948 0.000102855 0.000131612 0.000171382 0.000212871 0.000251105 0.000283078 0.000306783 0.000320908 0.000324754 0.000318243 0.000301977 0.000277354 0.000246825 0.000214396 0.000186421 0.00017168 
</DataArray> 
</CellData> 
<Points> 
<DataArray type="Float32" NumberOfComponents="3"> 
0.03742 0.02 0 0.036175 0.0209375 0 0.03493 0.021875 0 0.033685 0.0228125 0 0.03244 0.02375 0 0.031195 0.0246875 0 0.02995 0.025625 0 0.028705 0.0265625 0 0.02746 0.0275 0 0.026215 0.0284375 0 0.02497 0.029375 0 0.023725 0.0303125 0 0.02248 0.03125 0 0.021235 0.0321875 0 0.01999 0.033125 0 0.018745 0.0340625 0 0.0175 0.035 0 0.0401288 0.02 0 0.0389616 0.0209375 0 0.0377944 0.021875 0 0.0366272 0.0228125 0 0.03546 0.02375 0 0.0342928 0.0246875 0 0.0331256 0.025625 0 0.0319584 0.0265625 0 0.0307913 0.0275 0 0.0296241 0.0284375 0 0.0284569 0.029375 0 0.0272897 0.0303125 0 0.0261225 0.03125 0 0.0249553 0.0321875 0 0.0237881 0.033125 0 0.0226209 0.0340625 0 0.0214538 0.035 0 0.0428375 0.02 0 0.0417481 0.0209375 0 0.0406588 0.021875 0 0.0395694 0.0228125 0 0.03848 0.02375 0 0.0373906 0.0246875 0 0.0363013 0.025625 0 0.0352119 0.0265625 0 0.0341225 0.0275 0 0.0330331 0.0284375 0 0.0319437 0.029375 0 0.0308544 0.0303125 0 0.029765 0.03125 0 0.0286756 0.0321875 0 0.0275862 0.033125 0 0.0264969 0.0340625 0 0.0254075 0.035 0 0.0455462 0.02 0 0.0445347 0.0209375 0 0.0435231 0.021875 0 0.0425116 0.0228125 0 0.0415 0.02375 0 0.0404884 0.0246875 0 0.0394769 0.025625 0 0.0384653 0.0265625 0 0.0374538 0.0275 0 0.0364422 0.0284375 0 0.0354306 0.029375 0 0.0344191 0.0303125 0 0.0334075 0.03125 0 0.0323959 0.0321875 0 0.0313844 0.033125 0 0.0303728 0.0340625 0 0.0293613 0.035 0 0.048255 0.02 0 0.0473212 0.0209375 0 0.0463875 0.021875 0 0.0454537 0.0228125 0 0.04452 0.02375 0 0.0435862 0.0246875 0 0.0426525 0.025625 0 0.0417187 0.0265625 0 0.040785 0.0275 0 0.0398512 0.0284375 0 0.0389175 0.029375 0 0.0379837 0.0303125 0 0.03705 0.03125 0 0.0361162 0.0321875 0 0.0351825 0.033125 0 0.0342488 0.0340625 0 0.033315 0.035 0 0.0509638 0.02 0 0.0501078 0.0209375 0 0.0492519 0.021875 0 0.0483959 0.0228125 0 0.04754 0.02375 0 0.0466841 0.0246875 0 0.0458281 0.025625 0 0.0449722 0.0265625 0 0.0441163 0.0275 0 0.0432603 0.0284375 0 0.0424044 0.029375 0 0.0415484 0.0303125 0 0.0406925 0.03125 0 0.0398366 0.0321875 0 0.0389806 0.033125 0 0.0381247 0.0340625 0 0.0372688 0.035 0 0.0536725 0.02 0 0.0528944 0.0209375 0 0.0521162 0.021875 0 0.0513381 0.0228125 0 0.05056 0.02375 0 0.0497819 0.0246875 0 0.0490037 0.025625 0 0.0482256 0.0265625 0 0.0474475 0.0275 0 0.0466694 0.0284375 0 0.0458912 0.029375 0 0.0451131 0.0303125 0 0.044335 0.03125 0 0.0435569 0.0321875 0 0.0427788 0.033125 0 0.0420006 0.0340625 0 0.0412225 0.035 0 0.0563813 0.02 0 0.0556809 0.0209375 0 0.0549806 0.021875 0 0.0542803 0.0228125 0 0.05358 0.02375 0 0.0528797 0.0246875 0 0.0521794 0.025625 0 0.0514791 0.0265625 0 0.0507788 0.0275 0 0.0500784 0.0284375 0 0.0493781 0.029375 0 0.0486778 0.0303125 0 0.0479775 0.03125 0 0.0472772 0.0321875 0 0.0465769 0.033125 0 0.0458766 0.0340625 0 0.0451763 0.035 0 0.05909 0.02 0 0.0584675 0.0209375 0 0.057845 0.021875 0 0.0572225 0.0228125 0 0.0566 0.02375 0 0.0559775 0.0246875 0 0.055355 0.025625 0 0.0547325 0.0265625 0 0.05411 0.0275 0 0.0534875 0.0284375 0 0.052865 0.029375 0 0.0522425 0.0303125 0 0.05162 0.03125 0 0.0509975 0.0321875 0 0.050375 0.033125 0 0.0497525 0.0340625 0 0.04913 0.035 0 0.0617987 0.02 0 0.0612541 0.0209375 0 0.0607094 0.021875 0 0.0601647 0.0228125 0 0.05962 0.02375 0 0.0590753 0.0246875 0 0.0585306 0.025625 0 0.0579859 0.0265625 0 0.0574412 0.0275 0 0.0568966 0.0284375 0 0.0563519 0.029375 0 0.0558072 0.0303125 0 0.0552625 0.03125 0 0.0547178 0.0321875 0 0.0541731 0.033125 0 0.0536284 0.0340625 0 0.0530837 0.035 0 0.0645075 0.02 0 0.0640406 0.0209375 0 0.0635737 0.021875 0 0.0631069 0.0228125 0 0.06264 0.02375 0 0.0621731 0.0246875 0 0.0617062 0.025625 0 0.0612394 0.0265625 0 0.0607725 0.0275 0 0.0603056 0.0284375 0 0.0598387 0.029375 0 0.0593719 0.0303125 0 0.058905 0.03125 0 0.0584381 0.0321875 0 0.0579712 0.033125 0 0.0575044 0.0340625 0 0.0570375 0.035 0 0.0672163 0.02 0 0.0668272 0.0209375 0 0.0664381 0.021875 0 0.0660491 0.0228125 0 0.06566 0.02375 0 0.0652709 0.0246875 0 0.0648819 0.025625 0 0.0644928 0.0265625 0 0.0641038 0.0275 0 0.0637147 0.0284375 0 0.0633256 0.029375 0 0.0629366 0.0303125 0 0.0625475 0.03125 0 0.0621584 0.0321875 0 0.0617694 0.033125 0 0.0613803 0.0340625 0 0.0609913 0.035 0 0.069925 0.02 0 0.0696138 0.0209375 0 0.0693025 0.021875 0 0.0689913 0.0228125 0 0.06868 0.02375 0 0.0683688 0.0246875 0 0.0680575 0.025625 0 0.0677463 0.0265625 0 0.067435 0.0275 0 0.0671238 0.0284375 0 0.0668125 0.029375 0 0.0665012 0.0303125 0 0.06619 0.03125 0 0.0658787 0.0321875 0 0.0655675 0.033125 0 0.0652563 0.0340625 0 0.064945 0.035 0 0.0726337 0.02 0 0.0724003 0.0209375 0 0.0721669 0.021875 0 0.0719334 0.0228125 0 0.0717 0.02375 0 0.0714666 0.0246875 0 0.0712331 0.025625 0 0.0709997 0.0265625 0 0.0707663 0.0275 0 0.0705328 0.0284375 0 0.0702994 0.029375 0 0.0700659 0.0303125 0 0.0698325 0.03125 0 0.0695991 0.0321875 0 0.0693656 0.033125 0 0.0691322 0.0340625 0 0.0688987 0.035 0 0.0753425 0.02 0 0.0751869 0.0209375 0 0.0750313 0.021875 0 0.0748756 0.0228125 0 0.07472 0.02375 0 0.0745644 0.0246875 0 0.0744087 0.025625 0 0.0742531 0.0265625 0 0.0740975 0.0275 0 0.0739419 0.0284375 0 0.0737862 0.029375 0 0.0736306 0.0303125 0 0.073475 0.03125 0 0.0733194 0.0321875 0 0.0731637 0.033125 0 0.0730081 0.0340625 0 0.0728525 0.035 0 0.0780513 0.02 0 0.0779734 0.0209375 0 0.0778956 0.021875 0 0.0778178 0.0228125 0 0.07774 0.02375 0 0.0776622 0.0246875 0 0.0775844 0.025625 0 0.0775066 0.0265625 0 0.0774288 0.0275 0 0.0773509 0.0284375 0 0.0772731 0.029375 0 0.0771953 0.0303125 0 0.0771175 0.03125 0 0.0770397 0.0321875 0 0.0769619 0.033125 0 0.0768841 0.0340625 0 0.0768063 0.035 0 0.08076 0.02 0 0.08076 0.0209375 0 0.08076 0.021875 0 0.08076 0.0228125 0 0.08076 0.02375 0 0.08076 0.0246875 0 0.08076 0.025625 0 0.08076 0.0265625 0 0.08076 0.0275 0 0.08076 0.0284375 0 0.08076 0.029375 0 0.08076 0.0303125 0 0.08076 0.03125 0 0.08076 0.0321875 0 0.08076 0.033125 0 0.08076 0.0340625 0 0.08076 0.035 0 
</DataArray>
</Points> 
</Piece> 
</StructuredGrid> 
</VTKFile> 
