<?xml version="1.0"?> 
<VTKFile type="StructuredGrid" version="0.1"> 
<StructuredGrid WholeExtent="0 16 0 16 0 0"> 
<Piece Extent="0 16 0 16 0 0"> 
<CellData>
<DataArray type="Float32" Name="err_h1" format="ascii" NumberOfComponents="1"> 
970.277 796.578 696.979 626.92 574.936 536.135 507.587 487.411 474.49 468.348 469.153 477.854 496.565 529.384 585.108 673.649 455.447 469.603 453.087 433.275 415.605 401.094 390.02 382.517 378.713 378.818 383.216 392.558 407.861 430.511 460.74 485.858 275.966 280.04 286.162 288.439 288.68 288.511 288.839 290.235 293.146 297.981 305.159 315.125 328.318 344.876 363.406 378.957 169.965 178.169 184.898 191.529 197.613 203.334 209.08 215.21 222.036 229.86 238.981 249.685 262.183 276.421 291.607 305.271 106.963 113.965 121.087 128.026 135.018 142.147 149.545 157.383 165.835 175.062 185.223 196.465 208.889 222.446 236.696 250.341 67.9873 73.7839 79.7456 85.9396 92.364 99.1274 106.357 114.193 122.774 132.213 142.593 153.96 166.325 179.623 193.597 207.527 43.7053 48.1965 52.9566 57.9936 63.365 69.1475 75.4664 82.4791 90.3532 99.2334 109.205 120.275 132.38 145.405 159.164 173.246 28.4712 31.8527 35.5054 39.4475 43.7161 48.3857 53.5716 59.4396 66.1975 74.0627 83.1973 93.6373 105.272 117.904 131.337 145.334 18.8361 21.3438 24.1011 27.1204 30.4304 34.0854 38.181 42.8685 48.3698 54.9732 62.972 72.5269 83.5386 95.6942 108.69 122.37 12.662 14.5189 16.5926 18.8926 21.4375 24.264 27.4392 31.08 35.3796 40.6424 47.2886 55.7133 65.976 77.6526 90.1835 103.37 8.62922 10.0181 11.5894 13.3507 15.3149 17.5048 19.9633 22.7683 26.0591 30.0819 35.2735 42.2849 51.5918 62.8388 75.0205 87.6247 5.92563 6.98735 8.19869 9.56636 11.1002 12.8156 14.7391 16.9189 19.4433 22.4762 26.3323 31.6945 39.6291 50.4053 62.5385 74.6208 4.04972 4.8909 5.85138 6.93642 8.15504 9.51984 11.0491 12.7727 14.7439 17.063 19.9229 23.7246 29.7029 39.5552 52.0943 64.0094 2.68674 3.39006 4.18417 5.07163 6.06162 7.16708 8.40396 9.79332 11.3681 13.1882 15.3696 18.147 22.0069 29.682 42.863 55.6257 1.63564 2.26798 2.96348 3.7201 4.54751 5.46085 6.47772 7.6172 8.90253 10.37 12.0885 14.2007 17.0229 21.0957 33.4258 49.6143 0.781324 1.39126 2.04075 2.71875 3.43477 4.20643 5.05513 6.00249 7.06947 8.28053 9.67606 11.3412 13.4654 16.5771 21.8282 46.815 
</DataArray> 
</CellData> 
<Points> 
<DataArray type="Float32" NumberOfComponents="3"> 
0.0075 0.0125 0 0.0075 0.0132812 0 0.0075 0.0140625 0 0.0075 0.0148438 0 0.0075 0.015625 0 0.0075 0.0164063 0 0.0075 0.0171875 0 0.0075 0.0179688 0 0.0075 0.01875 0 0.0075 0.0195312 0 0.0075 0.0203125 0 0.0075 0.0210938 0 0.0075 0.021875 0 0.0075 0.0226563 0 0.0075 0.0234375 0 0.0075 0.0242188 0 0.0075 0.025 0 0.00937 0.0125 0 0.00929219 0.0132812 0 0.00921438 0.0140625 0 0.00913656 0.0148438 0 0.00905875 0.015625 0 0.00898094 0.0164063 0 0.00890313 0.0171875 0 0.00882531 0.0179688 0 0.0087475 0.01875 0 0.00866969 0.0195312 0 0.00859188 0.0203125 0 0.00851406 0.0210938 0 0.00843625 0.021875 0 0.00835844 0.0226563 0 0.00828062 0.0234375 0 0.00820281 0.0242188 0 0.008125 0.025 0 0.01124 0.0125 0 0.0110844 0.0132812 0 0.0109288 0.0140625 0 0.0107731 0.0148438 0 0.0106175 0.015625 0 0.0104619 0.0164063 0 0.0103062 0.0171875 0 0.0101506 0.0179688 0 0.009995 0.01875 0 0.00983938 0.0195312 0 0.00968375 0.0203125 0 0.00952813 0.0210938 0 0.0093725 0.021875 0 0.00921688 0.0226563 0 0.00906125 0.0234375 0 0.00890563 0.0242188 0 0.00875 0.025 0 0.01311 0.0125 0 0.0128766 0.0132812 0 0.0126431 0.0140625 0 0.0124097 0.0148438 0 0.0121763 0.015625 0 0.0119428 0.0164063 0 0.0117094 0.0171875 0 0.0114759 0.0179688 0 0.0112425 0.01875 0 0.0110091 0.0195312 0 0.0107756 0.0203125 0 0.0105422 0.0210938 0 0.0103088 0.021875 0 0.0100753 0.0226563 0 0.00984188 0.0234375 0 0.00960844 0.0242188 0 0.009375 0.025 0 0.01498 0.0125 0 0.0146688 0.0132812 0 0.0143575 0.0140625 0 0.0140462 0.0148438 0 0.013735 0.015625 0 0.0134238 0.0164063 0 0.0131125 0.0171875 0 0.0128013 0.0179688 0 0.01249 0.01875 0 0.0121788 0.0195312 0 0.0118675 0.0203125 0 0.0115563 0.0210938 0 0.011245 0.021875 0 0.0109338 0.0226563 0 0.0106225 0.0234375 0 0.0103112 0.0242188 0 0.01 0.025 0 0.01685 0.0125 0 0.0164609 0.0132812 0 0.0160719 0.0140625 0 0.0156828 0.0148438 0 0.0152937 0.015625 0 0.0149047 0.0164063 0 0.0145156 0.0171875 0 0.0141266 0.0179688 0 0.0137375 0.01875 0 0.0133484 0.0195312 0 0.0129594 0.0203125 0 0.0125703 0.0210938 0 0.0121813 0.021875 0 0.0117922 0.0226563 0 0.0114031 0.0234375 0 0.0110141 0.0242188 0 0.010625 0.025 0 0.01872 0.0125 0 0.0182531 0.0132812 0 0.0177862 0.0140625 0 0.0173194 0.0148438 0 0.0168525 0.015625 0 0.0163856 0.0164063 0 0.0159188 0.0171875 0 0.0154519 0.0179688 0 0.014985 0.01875 0 0.0145181 0.0195312 0 0.0140512 0.0203125 0 0.0135844 0.0210938 0 0.0131175 0.021875 0 0.0126506 0.0226563 0 0.0121838 0.0234375 0 0.0117169 0.0242188 0 0.01125 0.025 0 0.02059 0.0125 0 0.0200453 0.0132812 0 0.0195006 0.0140625 0 0.0189559 0.0148438 0 0.0184113 0.015625 0 0.0178666 0.0164063 0 0.0173219 0.0171875 0 0.0167772 0.0179688 0 0.0162325 0.01875 0 0.0156878 0.0195312 0 0.0151431 0.0203125 0 0.0145984 0.0210938 0 0.0140538 0.021875 0 0.0135091 0.0226563 0 0.0129644 0.0234375 0 0.0124197 0.0242188 0 0.011875 0.025 0 0.02246 0.0125 0 0.0218375 0.0132812 0 0.021215 0.0140625 0 0.0205925 0.0148438 0 0.01997 0.015625 0 0.0193475 0.0164063 0 0.018725 0.0171875 0 0.0181025 0.0179688 0 0.01748 0.01875 0 0.0168575 0.0195312 0 0.016235 0.0203125 0 0.0156125 0.0210938 0 0.01499 0.021875 0 0.0143675 0.0226563 0 0.013745 0.0234375 0 0.0131225 0.0242188 0 0.0125 0.025 0 0.02433 0.0125 0 0.0236297 0.0132812 0 0.0229294 0.0140625 0 0.0222291 0.0148438 0 0.0215287 0.015625 0 0.0208284 0.0164063 0 0.0201281 0.0171875 0 0.0194278 0.0179688 0 0.0187275 0.01875 0 0.0180272 0.0195312 0 0.0173269 0.0203125 0 0.0166266 0.0210938 0 0.0159263 0.021875 0 0.0152259 0.0226563 0 0.0145256 0.0234375 0 0.0138253 0.0242188 0 0.013125 0.025 0 0.0262 0.0125 0 0.0254219 0.0132812 0 0.0246438 0.0140625 0 0.0238656 0.0148438 0 0.0230875 0.015625 0 0.0223094 0.0164063 0 0.0215313 0.0171875 0 0.0207531 0.0179688 0 0.019975 0.01875 0 0.0191969 0.0195312 0 0.0184188 0.0203125 0 0.0176406 0.0210938 0 0.0168625 0.021875 0 0.0160844 0.0226563 0 0.0153063 0.0234375 0 0.0145281 0.0242188 0 0.01375 0.025 0 0.02807 0.0125 0 0.0272141 0.0132812 0 0.0263581 0.0140625 0 0.0255022 0.0148438 0 0.0246463 0.015625 0 0.0237903 0.0164063 0 0.0229344 0.0171875 0 0.0220784 0.0179688 0 0.0212225 0.01875 0 0.0203666 0.0195312 0 0.0195106 0.0203125 0 0.0186547 0.0210938 0 0.0177988 0.021875 0 0.0169428 0.0226563 0 0.0160869 0.0234375 0 0.0152309 0.0242188 0 0.014375 0.025 0 0.02994 0.0125 0 0.0290063 0.0132812 0 0.0280725 0.0140625 0 0.0271387 0.0148438 0 0.026205 0.015625 0 0.0252713 0.0164063 0 0.0243375 0.0171875 0 0.0234038 0.0179688 0 0.02247 0.01875 0 0.0215362 0.0195312 0 0.0206025 0.0203125 0 0.0196687 0.0210938 0 0.018735 0.021875 0 0.0178013 0.0226563 0 0.0168675 0.0234375 0 0.0159337 0.0242188 0 0.015 0.025 0 0.03181 0.0125 0 0.0307984 0.0132812 0 0.0297869 0.0140625 0 0.0287753 0.0148438 0 0.0277637 0.015625 0 0.0267522 0.0164063 0 0.0257406 0.0171875 0 0.0247291 0.0179688 0 0.0237175 0.01875 0 0.0227059 0.0195312 0 0.0216944 0.0203125 0 0.0206828 0.0210938 0 0.0196713 0.021875 0 0.0186597 0.0226563 0 0.0176481 0.0234375 0 0.0166366 0.0242188 0 0.015625 0.025 0 0.03368 0.0125 0 0.0325906 0.0132812 0 0.0315013 0.0140625 0 0.0304119 0.0148438 0 0.0293225 0.015625 0 0.0282331 0.0164063 0 0.0271438 0.0171875 0 0.0260544 0.0179688 0 0.024965 0.01875 0 0.0238756 0.0195312 0 0.0227863 0.0203125 0 0.0216969 0.0210938 0 0.0206075 0.021875 0 0.0195181 0.0226563 0 0.0184288 0.0234375 0 0.0173394 0.0242188 0 0.01625 0.025 0 0.03555 0.0125 0 0.0343828 0.0132812 0 0.0332156 0.0140625 0 0.0320484 0.0148438 0 0.0308812 0.015625 0 0.0297141 0.0164063 0 0.0285469 0.0171875 0 0.0273797 0.0179688 0 0.0262125 0.01875 0 0.0250453 0.0195312 0 0.0238781 0.0203125 0 0.0227109 0.0210938 0 0.0215438 0.021875 0 0.0203766 0.0226563 0 0.0192094 0.0234375 0 0.0180422 0.0242188 0 0.016875 0.025 0 0.03742 0.0125 0 0.036175 0.0132812 0 0.03493 0.0140625 0 0.033685 0.0148438 0 0.03244 0.015625 0 0.031195 0.0164063 0 0.02995 0.0171875 0 0.028705 0.0179688 0 0.02746 0.01875 0 0.026215 0.0195312 0 0.02497 0.0203125 0 0.023725 0.0210938 0 0.02248 0.021875 0 0.021235 0.0226563 0 0.01999 0.0234375 0 0.018745 0.0242188 0 0.0175 0.025 0 
</DataArray>
</Points> 
</Piece> 
</StructuredGrid> 
</VTKFile> 
