<?xml version="1.0"?> 
<VTKFile type="StructuredGrid" version="0.1"> 
<StructuredGrid WholeExtent="0 16 0 16 0 0"> 
<Piece Extent="0 16 0 16 0 0"> 
<CellData>
<DataArray type="Float32" Name="err_h1" format="ascii" NumberOfComponents="1"> 
12.9735 13.0127 13.0915 13.2104 13.37 13.5714 13.8159 14.105 14.4404 14.8243 15.2589 15.7469 16.2912 16.895 17.5619 18.2958 12.1793 12.2181 12.2959 12.4133 12.5711 12.7704 13.0127 13.2997 13.6331 14.0154 14.4488 14.9362 15.4804 16.0847 16.7523 17.4866 10.6991 10.7362 10.8108 10.9235 11.0755 11.2682 11.5033 11.783 12.1096 12.4859 12.9149 13.3998 13.9441 14.5516 15.2265 15.9728 8.74319 8.77601 8.8422 8.94287 9.07966 9.25471 9.47065 9.73055 10.0379 10.3965 10.8104 11.2842 11.8223 12.4297 13.1112 13.8721 6.6117 6.63473 6.68176 6.75474 6.85652 6.99086 7.16232 7.37615 7.63817 7.95462 8.33198 8.77686 9.29581 9.89527 10.5816 11.3609 4.66881 4.67195 4.67987 4.69592 4.72522 4.77472 4.85317 4.97099 5.13977 5.37175 5.67896 6.07254 6.56221 7.15617 7.86116 8.68263 3.29548 3.26703 3.21154 3.13215 3.03445 2.92767 2.82638 2.75235 2.7354 2.81085 3.01203 3.36128 3.86672 4.52661 5.33604 6.29167 2.80821 2.75951 2.66161 2.51366 2.31472 2.06452 1.7653 1.4272 1.0871 0.871676 1.02152 1.54385 2.28582 3.18217 4.21682 5.3916 3.32564 3.30066 3.25166 3.18104 3.09347 2.99755 2.90809 2.84891 2.85464 2.9683 3.2321 3.67595 4.31352 5.14746 6.17442 7.37704 4.57135 4.59256 4.63613 4.70456 4.80223 4.93589 5.11531 5.3537 5.66771 6.07698 6.603 7.26745 8.09081 9.09293 10.302 11.7913 5.63091 5.72024 5.89764 6.1612 6.5094 6.94226 7.46235 8.07551 8.79126 9.62292 10.5875 11.7053 12.9988 14.4882 16.1736 17.976 4.74306 5.03855 5.59394 6.36106 7.29957 8.38331 9.59886 10.9424 12.4179 14.0361 15.8157 17.7832 19.9725 22.4188 25.1474 28.191 1.16167 2.83927 4.68885 6.64392 8.72387 10.9562 13.3673 15.9776 18.7978 21.8248 25.0416 28.4264 31.988 35.8527 40.4806 47.2941 12.2666 12.8275 13.9299 15.5506 17.6817 20.3416 23.5781 27.467 32.1044 37.5899 43.9863 51.2327 58.9624 66.1472 70.4887 67.9318 27.7994 28.3644 29.5113 31.2759 33.7168 36.9215 41.0162 46.1802 52.6705 60.8675 71.3606 85.1237 103.874 130.809 172.04 239.229 39.6424 40.3629 41.839 44.1441 47.3975 51.7768 57.5378 65.0454 74.8213 87.6202 104.55 127.269 158.315 201.652 263.629 354.632 
</DataArray> 
</CellData> 
<Points> 
<DataArray type="Float32" NumberOfComponents="3"> 
-0.05 0 0 -0.05 0.00078125 0 -0.05 0.0015625 0 -0.05 0.00234375 0 -0.05 0.003125 0 -0.05 0.00390625 0 -0.05 0.0046875 0 -0.05 0.00546875 0 -0.05 0.00625 0 -0.05 0.00703125 0 -0.05 0.0078125 0 -0.05 0.00859375 0 -0.05 0.009375 0 -0.05 0.0101563 0 -0.05 0.0109375 0 -0.05 0.0117188 0 -0.05 0.0125 0 -0.0464063 0 0 -0.0464063 0.00078125 0 -0.0464063 0.0015625 0 -0.0464062 0.00234375 0 -0.0464063 0.003125 0 -0.0464063 0.00390625 0 -0.0464063 0.0046875 0 -0.0464063 0.00546875 0 -0.0464063 0.00625 0 -0.0464063 0.00703125 0 -0.0464063 0.0078125 0 -0.0464063 0.00859375 0 -0.0464063 0.009375 0 -0.0464062 0.0101563 0 -0.0464063 0.0109375 0 -0.0464063 0.0117188 0 -0.0464063 0.0125 0 -0.0428125 0 0 -0.0428125 0.00078125 0 -0.0428125 0.0015625 0 -0.0428125 0.00234375 0 -0.0428125 0.003125 0 -0.0428125 0.00390625 0 -0.0428125 0.0046875 0 -0.0428125 0.00546875 0 -0.0428125 0.00625 0 -0.0428125 0.00703125 0 -0.0428125 0.0078125 0 -0.0428125 0.00859375 0 -0.0428125 0.009375 0 -0.0428125 0.0101563 0 -0.0428125 0.0109375 0 -0.0428125 0.0117188 0 -0.0428125 0.0125 0 -0.0392188 0 0 -0.0392188 0.00078125 0 -0.0392188 0.0015625 0 -0.0392188 0.00234375 0 -0.0392188 0.003125 0 -0.0392188 0.00390625 0 -0.0392188 0.0046875 0 -0.0392188 0.00546875 0 -0.0392188 0.00625 0 -0.0392188 0.00703125 0 -0.0392188 0.0078125 0 -0.0392188 0.00859375 0 -0.0392188 0.009375 0 -0.0392188 0.0101563 0 -0.0392188 0.0109375 0 -0.0392188 0.0117188 0 -0.0392188 0.0125 0 -0.035625 0 0 -0.035625 0.00078125 0 -0.035625 0.0015625 0 -0.035625 0.00234375 0 -0.035625 0.003125 0 -0.035625 0.00390625 0 -0.035625 0.0046875 0 -0.035625 0.00546875 0 -0.035625 0.00625 0 -0.035625 0.00703125 0 -0.035625 0.0078125 0 -0.035625 0.00859375 0 -0.035625 0.009375 0 -0.035625 0.0101563 0 -0.035625 0.0109375 0 -0.035625 0.0117188 0 -0.035625 0.0125 0 -0.0320313 0 0 -0.0320313 0.00078125 0 -0.0320313 0.0015625 0 -0.0320313 0.00234375 0 -0.0320313 0.003125 0 -0.0320313 0.00390625 0 -0.0320313 0.0046875 0 -0.0320313 0.00546875 0 -0.0320313 0.00625 0 -0.0320313 0.00703125 0 -0.0320313 0.0078125 0 -0.0320313 0.00859375 0 -0.0320313 0.009375 0 -0.0320313 0.0101563 0 -0.0320313 0.0109375 0 -0.0320313 0.0117188 0 -0.0320313 0.0125 0 -0.0284375 0 0 -0.0284375 0.00078125 0 -0.0284375 0.0015625 0 -0.0284375 0.00234375 0 -0.0284375 0.003125 0 -0.0284375 0.00390625 0 -0.0284375 0.0046875 0 -0.0284375 0.00546875 0 -0.0284375 0.00625 0 -0.0284375 0.00703125 0 -0.0284375 0.0078125 0 -0.0284375 0.00859375 0 -0.0284375 0.009375 0 -0.0284375 0.0101563 0 -0.0284375 0.0109375 0 -0.0284375 0.0117188 0 -0.0284375 0.0125 0 -0.0248438 0 0 -0.0248438 0.00078125 0 -0.0248438 0.0015625 0 -0.0248438 0.00234375 0 -0.0248438 0.003125 0 -0.0248438 0.00390625 0 -0.0248438 0.0046875 0 -0.0248438 0.00546875 0 -0.0248438 0.00625 0 -0.0248438 0.00703125 0 -0.0248438 0.0078125 0 -0.0248438 0.00859375 0 -0.0248438 0.009375 0 -0.0248438 0.0101563 0 -0.0248438 0.0109375 0 -0.0248438 0.0117188 0 -0.0248438 0.0125 0 -0.02125 0 0 -0.02125 0.00078125 0 -0.02125 0.0015625 0 -0.02125 0.00234375 0 -0.02125 0.003125 0 -0.02125 0.00390625 0 -0.02125 0.0046875 0 -0.02125 0.00546875 0 -0.02125 0.00625 0 -0.02125 0.00703125 0 -0.02125 0.0078125 0 -0.02125 0.00859375 0 -0.02125 0.009375 0 -0.02125 0.0101563 0 -0.02125 0.0109375 0 -0.02125 0.0117188 0 -0.02125 0.0125 0 -0.0176563 0 0 -0.0176563 0.00078125 0 -0.0176563 0.0015625 0 -0.0176563 0.00234375 0 -0.0176563 0.003125 0 -0.0176563 0.00390625 0 -0.0176563 0.0046875 0 -0.0176563 0.00546875 0 -0.0176563 0.00625 0 -0.0176563 0.00703125 0 -0.0176563 0.0078125 0 -0.0176563 0.00859375 0 -0.0176563 0.009375 0 -0.0176563 0.0101563 0 -0.0176563 0.0109375 0 -0.0176563 0.0117188 0 -0.0176563 0.0125 0 -0.0140625 0 0 -0.0140625 0.00078125 0 -0.0140625 0.0015625 0 -0.0140625 0.00234375 0 -0.0140625 0.003125 0 -0.0140625 0.00390625 0 -0.0140625 0.0046875 0 -0.0140625 0.00546875 0 -0.0140625 0.00625 0 -0.0140625 0.00703125 0 -0.0140625 0.0078125 0 -0.0140625 0.00859375 0 -0.0140625 0.009375 0 -0.0140625 0.0101563 0 -0.0140625 0.0109375 0 -0.0140625 0.0117188 0 -0.0140625 0.0125 0 -0.0104688 0 0 -0.0104688 0.00078125 0 -0.0104688 0.0015625 0 -0.0104688 0.00234375 0 -0.0104688 0.003125 0 -0.0104688 0.00390625 0 -0.0104688 0.0046875 0 -0.0104688 0.00546875 0 -0.0104688 0.00625 0 -0.0104688 0.00703125 0 -0.0104688 0.0078125 0 -0.0104688 0.00859375 0 -0.0104688 0.009375 0 -0.0104688 0.0101563 0 -0.0104688 0.0109375 0 -0.0104688 0.0117188 0 -0.0104688 0.0125 0 -0.006875 0 0 -0.006875 0.00078125 0 -0.006875 0.0015625 0 -0.006875 0.00234375 0 -0.006875 0.003125 0 -0.006875 0.00390625 0 -0.006875 0.0046875 0 -0.006875 0.00546875 0 -0.006875 0.00625 0 -0.006875 0.00703125 0 -0.006875 0.0078125 0 -0.006875 0.00859375 0 -0.006875 0.009375 0 -0.006875 0.0101563 0 -0.006875 0.0109375 0 -0.006875 0.0117188 0 -0.006875 0.0125 0 -0.00328125 0 0 -0.00328125 0.00078125 0 -0.00328125 0.0015625 0 -0.00328125 0.00234375 0 -0.00328125 0.003125 0 -0.00328125 0.00390625 0 -0.00328125 0.0046875 0 -0.00328125 0.00546875 0 -0.00328125 0.00625 0 -0.00328125 0.00703125 0 -0.00328125 0.0078125 0 -0.00328125 0.00859375 0 -0.00328125 0.009375 0 -0.00328125 0.0101563 0 -0.00328125 0.0109375 0 -0.00328125 0.0117188 0 -0.00328125 0.0125 0 0.0003125 0 0 0.0003125 0.00078125 0 0.0003125 0.0015625 0 0.0003125 0.00234375 0 0.0003125 0.003125 0 0.0003125 0.00390625 0 0.0003125 0.0046875 0 0.0003125 0.00546875 0 0.0003125 0.00625 0 0.0003125 0.00703125 0 0.0003125 0.0078125 0 0.0003125 0.00859375 0 0.0003125 0.009375 0 0.0003125 0.0101563 0 0.0003125 0.0109375 0 0.0003125 0.0117188 0 0.0003125 0.0125 0 0.00390625 0 0 0.00390625 0.00078125 0 0.00390625 0.0015625 0 0.00390625 0.00234375 0 0.00390625 0.003125 0 0.00390625 0.00390625 0 0.00390625 0.0046875 0 0.00390625 0.00546875 0 0.00390625 0.00625 0 0.00390625 0.00703125 0 0.00390625 0.0078125 0 0.00390625 0.00859375 0 0.00390625 0.009375 0 0.00390625 0.0101563 0 0.00390625 0.0109375 0 0.00390625 0.0117188 0 0.00390625 0.0125 0 0.0075 0 0 0.0075 0.00078125 0 0.0075 0.0015625 0 0.0075 0.00234375 0 0.0075 0.003125 0 0.0075 0.00390625 0 0.0075 0.0046875 0 0.0075 0.00546875 0 0.0075 0.00625 0 0.0075 0.00703125 0 0.0075 0.0078125 0 0.0075 0.00859375 0 0.0075 0.009375 0 0.0075 0.0101563 0 0.0075 0.0109375 0 0.0075 0.0117188 0 0.0075 0.0125 0 
</DataArray>
</Points> 
</Piece> 
</StructuredGrid> 
</VTKFile> 
