<?xml version="1.0"?> 
<VTKFile type="StructuredGrid" version="0.1"> 
<StructuredGrid WholeExtent="0 16 0 16 0 0"> 
<Piece Extent="0 16 0 16 0 0"> 
<CellData>
<DataArray type="Float32" Name="err_h1" format="ascii" NumberOfComponents="1"> 
31.521 20.7773 14.6713 10.8861 8.36582 6.58953 5.27982 4.27827 3.4888 2.85008 2.32122 1.87395 1.48819 1.14976 0.849988 0.590108 23.9421 18.2351 14.678 11.8561 9.5993 7.81592 6.40921 5.29238 4.39599 3.66731 3.06728 2.56721 2.14626 1.7898 1.48849 1.23844 15.9874 15.3718 13.2802 11.2846 9.58679 8.15505 6.94675 5.92803 5.06999 4.347 3.73669 3.22014 2.78195 2.41 2.09525 1.83153 12.595 11.7414 11.0552 10.0725 8.98266 7.93306 6.98136 6.13899 5.40059 4.75616 4.1951 3.70738 3.28402 2.91717 2.60024 2.3279 9.99865 9.55024 9.01207 8.48541 7.89927 7.26226 6.61451 5.99031 5.40936 4.87975 4.40277 3.97631 3.59679 3.26024 2.9627 2.7005 8.03731 7.74985 7.44138 7.09523 6.73338 6.35173 5.9503 5.53858 5.12971 4.73531 4.36344 4.0186 3.70261 3.41549 3.15623 2.92322 6.49416 6.31788 6.12353 5.9138 5.68541 5.44285 5.18856 4.92441 4.65393 4.38226 4.11504 3.85733 3.61302 3.3847 3.1738 2.98086 5.26168 5.1573 5.04052 4.911 4.76974 4.61671 4.45335 4.28151 4.10308 3.92025 3.73568 3.55236 3.37327 3.20111 3.03813 2.886 4.2647 4.21079 4.14688 4.07273 3.98827 3.89402 3.79058 3.67895 3.56044 3.43659 3.30906 3.17967 3.05032 2.92296 2.79949 2.68164 3.44612 3.43046 3.40642 3.37321 3.33044 3.27803 3.21635 3.14611 3.06828 2.98407 2.89479 2.80188 2.70684 2.61122 2.51636 2.42378 2.75947 2.77492 2.78387 2.78486 2.77674 2.75872 2.73051 2.69229 2.64478 2.58908 2.52658 2.45869 2.38674 2.31213 2.23662 2.16103 2.1662 2.20752 2.24526 2.27728 2.30164 2.31661 2.32082 2.31336 2.2939 2.26288 2.22157 2.17195 2.11625 2.05601 1.99176 1.9268 1.63624 1.69798 1.76018 1.82024 1.87566 1.9241 1.9633 1.99114 2.00566 2.0053 1.98919 1.95779 1.91355 1.86125 1.80603 1.74382 1.14938 1.22574 1.30728 1.39083 1.47361 1.55316 1.62716 1.69333 1.74923 1.79205 1.8185 1.82477 1.80708 1.76354 1.69921 1.63963 0.695501 0.782347 0.879616 0.982453 1.08738 1.19191 1.29418 1.39276 1.48638 1.57373 1.65306 1.72147 1.7737 1.79973 1.78059 1.68266 0.281624 0.38023 0.495413 0.616679 0.739519 0.861686 0.981957 1.09971 1.21481 1.32765 1.43926 1.55167 1.6684 1.79554 1.94391 2.13351 
</DataArray> 
</CellData> 
<Points> 
<DataArray type="Float32" NumberOfComponents="3"> 
0.0175 0.025 0 0.0175 0.025625 0 0.0175 0.02625 0 0.0175 0.026875 0 0.0175 0.0275 0 0.0175 0.028125 0 0.0175 0.02875 0 0.0175 0.029375 0 0.0175 0.03 0 0.0175 0.030625 0 0.0175 0.03125 0 0.0175 0.031875 0 0.0175 0.0325 0 0.0175 0.033125 0 0.0175 0.03375 0 0.0175 0.034375 0 0.0175 0.035 0 0.018745 0.0242188 0 0.018745 0.024834 0 0.018745 0.0254492 0 0.018745 0.0260645 0 0.018745 0.0266797 0 0.018745 0.0272949 0 0.018745 0.0279102 0 0.018745 0.0285254 0 0.018745 0.0291406 0 0.018745 0.0297559 0 0.018745 0.0303711 0 0.018745 0.0309863 0 0.018745 0.0316016 0 0.018745 0.0322168 0 0.018745 0.032832 0 0.018745 0.0334473 0 0.018745 0.0340625 0 0.01999 0.0234375 0 0.01999 0.024043 0 0.01999 0.0246484 0 0.01999 0.0252539 0 0.01999 0.0258594 0 0.01999 0.0264648 0 0.01999 0.0270703 0 0.01999 0.0276758 0 0.01999 0.0282813 0 0.01999 0.0288867 0 0.01999 0.0294922 0 0.01999 0.0300977 0 0.01999 0.0307031 0 0.01999 0.0313086 0 0.01999 0.0319141 0 0.01999 0.0325195 0 0.01999 0.033125 0 0.021235 0.0226563 0 0.021235 0.023252 0 0.021235 0.0238477 0 0.021235 0.0244434 0 0.021235 0.0250391 0 0.021235 0.0256348 0 0.021235 0.0262305 0 0.021235 0.0268262 0 0.021235 0.0274219 0 0.021235 0.0280176 0 0.021235 0.0286133 0 0.021235 0.029209 0 0.021235 0.0298047 0 0.021235 0.0304004 0 0.021235 0.0309961 0 0.021235 0.0315918 0 0.021235 0.0321875 0 0.02248 0.021875 0 0.02248 0.0224609 0 0.02248 0.0230469 0 0.02248 0.0236328 0 0.02248 0.0242188 0 0.02248 0.0248047 0 0.02248 0.0253906 0 0.02248 0.0259766 0 0.02248 0.0265625 0 0.02248 0.0271484 0 0.02248 0.0277344 0 0.02248 0.0283203 0 0.02248 0.0289063 0 0.02248 0.0294922 0 0.02248 0.0300781 0 0.02248 0.0306641 0 0.02248 0.03125 0 0.023725 0.0210938 0 0.023725 0.0216699 0 0.023725 0.0222461 0 0.023725 0.0228223 0 0.023725 0.0233984 0 0.023725 0.0239746 0 0.023725 0.0245508 0 0.023725 0.025127 0 0.023725 0.0257031 0 0.023725 0.0262793 0 0.023725 0.0268555 0 0.023725 0.0274316 0 0.023725 0.0280078 0 0.023725 0.028584 0 0.023725 0.0291602 0 0.023725 0.0297363 0 0.023725 0.0303125 0 0.02497 0.0203125 0 0.02497 0.0208789 0 0.02497 0.0214453 0 0.02497 0.0220117 0 0.02497 0.0225781 0 0.02497 0.0231445 0 0.02497 0.0237109 0 0.02497 0.0242773 0 0.02497 0.0248438 0 0.02497 0.0254102 0 0.02497 0.0259766 0 0.02497 0.026543 0 0.02497 0.0271094 0 0.02497 0.0276758 0 0.02497 0.0282422 0 0.02497 0.0288086 0 0.02497 0.029375 0 0.026215 0.0195312 0 0.026215 0.0200879 0 0.026215 0.0206445 0 0.026215 0.0212012 0 0.026215 0.0217578 0 0.026215 0.0223145 0 0.026215 0.0228711 0 0.026215 0.0234277 0 0.026215 0.0239844 0 0.026215 0.024541 0 0.026215 0.0250977 0 0.026215 0.0256543 0 0.026215 0.0262109 0 0.026215 0.0267676 0 0.026215 0.0273242 0 0.026215 0.0278809 0 0.026215 0.0284375 0 0.02746 0.01875 0 0.02746 0.0192969 0 0.02746 0.0198438 0 0.02746 0.0203906 0 0.02746 0.0209375 0 0.02746 0.0214844 0 0.02746 0.0220313 0 0.02746 0.0225781 0 0.02746 0.023125 0 0.02746 0.0236719 0 0.02746 0.0242188 0 0.02746 0.0247656 0 0.02746 0.0253125 0 0.02746 0.0258594 0 0.02746 0.0264063 0 0.02746 0.0269531 0 0.02746 0.0275 0 0.028705 0.0179688 0 0.028705 0.0185059 0 0.028705 0.019043 0 0.028705 0.0195801 0 0.028705 0.0201172 0 0.028705 0.0206543 0 0.028705 0.0211914 0 0.028705 0.0217285 0 0.028705 0.0222656 0 0.028705 0.0228027 0 0.028705 0.0233398 0 0.028705 0.023877 0 0.028705 0.0244141 0 0.028705 0.0249512 0 0.028705 0.0254883 0 0.028705 0.0260254 0 0.028705 0.0265625 0 0.02995 0.0171875 0 0.02995 0.0177148 0 0.02995 0.0182422 0 0.02995 0.0187695 0 0.02995 0.0192969 0 0.02995 0.0198242 0 0.02995 0.0203516 0 0.02995 0.0208789 0 0.02995 0.0214063 0 0.02995 0.0219336 0 0.02995 0.0224609 0 0.02995 0.0229883 0 0.02995 0.0235156 0 0.02995 0.024043 0 0.02995 0.0245703 0 0.02995 0.0250977 0 0.02995 0.025625 0 0.031195 0.0164063 0 0.031195 0.0169238 0 0.031195 0.0174414 0 0.031195 0.017959 0 0.031195 0.0184766 0 0.031195 0.0189941 0 0.031195 0.0195117 0 0.031195 0.0200293 0 0.031195 0.0205469 0 0.031195 0.0210645 0 0.031195 0.021582 0 0.031195 0.0220996 0 0.031195 0.0226172 0 0.031195 0.0231348 0 0.031195 0.0236523 0 0.031195 0.0241699 0 0.031195 0.0246875 0 0.03244 0.015625 0 0.03244 0.0161328 0 0.03244 0.0166406 0 0.03244 0.0171484 0 0.03244 0.0176562 0 0.03244 0.0181641 0 0.03244 0.0186719 0 0.03244 0.0191797 0 0.03244 0.0196875 0 0.03244 0.0201953 0 0.03244 0.0207031 0 0.03244 0.0212109 0 0.03244 0.0217188 0 0.03244 0.0222266 0 0.03244 0.0227344 0 0.03244 0.0232422 0 0.03244 0.02375 0 0.033685 0.0148438 0 0.033685 0.0153418 0 0.033685 0.0158398 0 0.033685 0.0163379 0 0.033685 0.0168359 0 0.033685 0.017334 0 0.033685 0.017832 0 0.033685 0.0183301 0 0.033685 0.0188281 0 0.033685 0.0193262 0 0.033685 0.0198242 0 0.033685 0.0203223 0 0.033685 0.0208203 0 0.033685 0.0213184 0 0.033685 0.0218164 0 0.033685 0.0223145 0 0.033685 0.0228125 0 0.03493 0.0140625 0 0.03493 0.0145508 0 0.03493 0.0150391 0 0.03493 0.0155273 0 0.03493 0.0160156 0 0.03493 0.0165039 0 0.03493 0.0169922 0 0.03493 0.0174805 0 0.03493 0.0179688 0 0.03493 0.018457 0 0.03493 0.0189453 0 0.03493 0.0194336 0 0.03493 0.0199219 0 0.03493 0.0204102 0 0.03493 0.0208984 0 0.03493 0.0213867 0 0.03493 0.021875 0 0.036175 0.0132812 0 0.036175 0.0137598 0 0.036175 0.0142383 0 0.036175 0.0147168 0 0.036175 0.0151953 0 0.036175 0.0156738 0 0.036175 0.0161523 0 0.036175 0.0166309 0 0.036175 0.0171094 0 0.036175 0.0175879 0 0.036175 0.0180664 0 0.036175 0.0185449 0 0.036175 0.0190234 0 0.036175 0.019502 0 0.036175 0.0199805 0 0.036175 0.020459 0 0.036175 0.0209375 0 0.03742 0.0125 0 0.03742 0.0129687 0 0.03742 0.0134375 0 0.03742 0.0139063 0 0.03742 0.014375 0 0.03742 0.0148438 0 0.03742 0.0153125 0 0.03742 0.0157813 0 0.03742 0.01625 0 0.03742 0.0167188 0 0.03742 0.0171875 0 0.03742 0.0176562 0 0.03742 0.018125 0 0.03742 0.0185937 0 0.03742 0.0190625 0 0.03742 0.0195312 0 0.03742 0.02 0 
</DataArray>
</Points> 
</Piece> 
</StructuredGrid> 
</VTKFile> 
