<?xml version="1.0"?> 
<VTKFile type="StructuredGrid" version="0.1"> 
<StructuredGrid WholeExtent="0 16 0 16 0 0"> 
<Piece Extent="0 16 0 16 0 0"> 
<CellData>
<DataArray type="Float32" Name="err_h1" format="ascii" NumberOfComponents="1"> 
4847.97 4163.5 3643.09 3309.52 3121.35 3022.53 2986.97 2997.5 3043.29 3117.39 3215.56 3335.59 3476.74 3639.44 3824.92 4034.98 3227.52 3335.77 3108.47 2893 2747.46 2668.32 2640.68 2653.24 2697.29 2766.74 2857.65 2967.89 3096.77 3244.83 3413.55 3605.17 2387.86 2573.87 2547.9 2447.55 2357.76 2305.17 2291.14 2310.18 2356.24 2424.18 2510.38 2612.75 2730.6 2864.47 3015.98 3187.57 1875.04 2022.98 2055.35 2020.19 1974.11 1946.33 1946.54 1974.03 2024.6 2093.72 2177.78 2274.52 2383.08 2503.9 2638.55 2789.59 1534.51 1634.55 1664.87 1648.52 1620.89 1606.87 1616.83 1651.67 1707.63 1779.84 1864.09 1957.57 2058.98 2168.43 2287.29 2418.07 1299.71 1359.06 1368 1344.07 1313.74 1299.08 1310.8 1349.54 1410.4 1486.91 1573.42 1666.04 1762.67 1862.87 1967.63 2079.21 1137.37 1164.26 1147.42 1103.55 1056.58 1028.97 1033.72 1071.95 1136.69 1218.54 1309.37 1403.56 1497.94 1591.31 1684.14 1778.24 1029.45 1030.6 988.622 919.76 847.431 796.831 786.389 820.059 888.397 977.299 1074.86 1173.2 1267.89 1356.98 1440.32 1519.19 966.154 946.814 882.058 787.059 684.085 601.177 566.356 592.015 665.801 765.222 872.671 977.78 1075.13 1162.26 1238.56 1304.74 942.937 907.145 822.689 703.373 568.352 444.295 370.722 383.965 469.573 585.893 706.895 820.773 922.251 1009 1080.25 1136.25 959.435 910.072 809.007 669.84 508.101 341.776 205.109 192.586 307.849 449.345 585.272 707.304 812.277 898.729 966.004 1013.98 1019.7 958.004 842.151 688.602 512.66 326.699 141.414 58.6949 221.338 378.563 520.233 644.017 748.5 832.683 895.812 937.311 1134.03 1058.11 925.572 760.483 582.219 407.058 258.884 200.052 273.47 396.843 522.044 635.685 732.889 811.191 868.987 905.025 1324.24 1224.56 1065.08 884.65 707.126 549.604 433.284 385.232 413.936 491.662 586.517 680.297 764.001 832.857 883.987 915.381 1639.12 1482.16 1266.18 1058.71 876.547 728.996 626.939 579.689 586.119 631.726 697.715 769.269 836.808 894.421 938.369 966.188 2223.67 1843.37 1525.63 1276.74 1080.99 933.578 834.417 783.004 774.213 797.627 840.772 892.585 944.764 991.549 1029.07 1054.74 
</DataArray> 
</CellData> 
<Points> 
<DataArray type="Float32" NumberOfComponents="3"> 
0.0075 0.05 0 0.00390625 0.05625 0 0.0003125 0.0625 0 -0.00328125 0.06875 0 -0.006875 0.075 0 -0.0104688 0.08125 0 -0.0140625 0.0875 0 -0.0176563 0.09375 0 -0.02125 0.1 0 -0.0248438 0.10625 0 -0.0284375 0.1125 0 -0.0320313 0.11875 0 -0.035625 0.125 0 -0.0392188 0.13125 0 -0.0428125 0.1375 0 -0.0464063 0.14375 0 -0.05 0.15 0 0.0123775 0.05 0 0.00900836 0.05625 0 0.00563922 0.0625 0 0.00227008 0.06875 0 -0.00109906 0.075 0 -0.0044682 0.08125 0 -0.00783734 0.0875 0 -0.0112065 0.09375 0 -0.0145756 0.1 0 -0.0179448 0.10625 0 -0.0213139 0.1125 0 -0.024683 0.11875 0 -0.0280522 0.125 0 -0.0314213 0.13125 0 -0.0347905 0.1375 0 -0.0381596 0.14375 0 -0.0415288 0.15 0 0.017255 0.05 0 0.0141105 0.05625 0 0.0109659 0.0625 0 0.00782141 0.06875 0 0.00467687 0.075 0 0.00153234 0.08125 0 -0.00161219 0.0875 0 -0.00475672 0.09375 0 -0.00790125 0.1 0 -0.0110458 0.10625 0 -0.0141903 0.1125 0 -0.0173348 0.11875 0 -0.0204794 0.125 0 -0.0236239 0.13125 0 -0.0267684 0.1375 0 -0.029913 0.14375 0 -0.0330575 0.15 0 0.0221325 0.05 0 0.0192126 0.05625 0 0.0162927 0.0625 0 0.0133727 0.06875 0 0.0104528 0.075 0 0.00753289 0.08125 0 0.00461297 0.0875 0 0.00169305 0.09375 0 -0.00122688 0.1 0 -0.0041468 0.10625 0 -0.00706672 0.1125 0 -0.00998664 0.11875 0 -0.0129066 0.125 0 -0.0158265 0.13125 0 -0.0187464 0.1375 0 -0.0216663 0.14375 0 -0.0245863 0.15 0 0.02701 0.05 0 0.0243147 0.05625 0 0.0216194 0.0625 0 0.0189241 0.06875 0 0.0162287 0.075 0 0.0135334 0.08125 0 0.0108381 0.0875 0 0.00814281 0.09375 0 0.0054475 0.1 0 0.00275219 0.10625 0 5.6875e-05 0.1125 0 -0.00263844 0.11875 0 -0.00533375 0.125 0 -0.00802906 0.13125 0 -0.0107244 0.1375 0 -0.0134197 0.14375 0 -0.016115 0.15 0 0.0318875 0.05 0 0.0294168 0.05625 0 0.0269461 0.0625 0 0.0244754 0.06875 0 0.0220047 0.075 0 0.019534 0.08125 0 0.0170633 0.0875 0 0.0145926 0.09375 0 0.0121219 0.1 0 0.00965117 0.10625 0 0.00718047 0.1125 0 0.00470977 0.11875 0 0.00223906 0.125 0 -0.000231641 0.13125 0 -0.00270234 0.1375 0 -0.00517305 0.14375 0 -0.00764375 0.15 0 0.036765 0.05 0 0.0345189 0.05625 0 0.0322728 0.0625 0 0.0300267 0.06875 0 0.0277806 0.075 0 0.0255345 0.08125 0 0.0232884 0.0875 0 0.0210423 0.09375 0 0.0187963 0.1 0 0.0165502 0.10625 0 0.0143041 0.1125 0 0.012058 0.11875 0 0.00981188 0.125 0 0.00756578 0.13125 0 0.00531969 0.1375 0 0.00307359 0.14375 0 0.0008275 0.15 0 0.0416425 0.05 0 0.039621 0.05625 0 0.0375995 0.0625 0 0.035578 0.06875 0 0.0335566 0.075 0 0.0315351 0.08125 0 0.0295136 0.0875 0 0.0274921 0.09375 0 0.0254706 0.1 0 0.0234491 0.10625 0 0.0214277 0.1125 0 0.0194062 0.11875 0 0.0173847 0.125 0 0.0153632 0.13125 0 0.0133417 0.1375 0 0.0113202 0.14375 0 0.00929875 0.15 0 0.04652 0.05 0 0.0447231 0.05625 0 0.0429263 0.0625 0 0.0411294 0.06875 0 0.0393325 0.075 0 0.0375356 0.08125 0 0.0357388 0.0875 0 0.0339419 0.09375 0 0.032145 0.1 0 0.0303481 0.10625 0 0.0285513 0.1125 0 0.0267544 0.11875 0 0.0249575 0.125 0 0.0231606 0.13125 0 0.0213638 0.1375 0 0.0195669 0.14375 0 0.01777 0.15 0 0.0513975 0.05 0 0.0498252 0.05625 0 0.048253 0.0625 0 0.0466807 0.06875 0 0.0451084 0.075 0 0.0435362 0.08125 0 0.0419639 0.0875 0 0.0403916 0.09375 0 0.0388194 0.1 0 0.0372471 0.10625 0 0.0356748 0.1125 0 0.0341026 0.11875 0 0.0325303 0.125 0 0.030958 0.13125 0 0.0293858 0.1375 0 0.0278135 0.14375 0 0.0262412 0.15 0 0.056275 0.05 0 0.0549273 0.05625 0 0.0535797 0.0625 0 0.052232 0.06875 0 0.0508844 0.075 0 0.0495367 0.08125 0 0.0481891 0.0875 0 0.0468414 0.09375 0 0.0454937 0.1 0 0.0441461 0.10625 0 0.0427984 0.1125 0 0.0414508 0.11875 0 0.0401031 0.125 0 0.0387555 0.13125 0 0.0374078 0.1375 0 0.0360602 0.14375 0 0.0347125 0.15 0 0.0611525 0.05 0 0.0600295 0.05625 0 0.0589064 0.0625 0 0.0577834 0.06875 0 0.0566603 0.075 0 0.0555373 0.08125 0 0.0544142 0.0875 0 0.0532912 0.09375 0 0.0521681 0.1 0 0.0510451 0.10625 0 0.049922 0.1125 0 0.048799 0.11875 0 0.0476759 0.125 0 0.0465529 0.13125 0 0.0454298 0.1375 0 0.0443068 0.14375 0 0.0431838 0.15 0 0.06603 0.05 0 0.0651316 0.05625 0 0.0642331 0.0625 0 0.0633347 0.06875 0 0.0624363 0.075 0 0.0615378 0.08125 0 0.0606394 0.0875 0 0.0597409 0.09375 0 0.0588425 0.1 0 0.0579441 0.10625 0 0.0570456 0.1125 0 0.0561472 0.11875 0 0.0552488 0.125 0 0.0543503 0.13125 0 0.0534519 0.1375 0 0.0525534 0.14375 0 0.051655 0.15 0 0.0709075 0.05 0 0.0702337 0.05625 0 0.0695598 0.0625 0 0.068886 0.06875 0 0.0682122 0.075 0 0.0675384 0.08125 0 0.0668645 0.0875 0 0.0661907 0.09375 0 0.0655169 0.1 0 0.064843 0.10625 0 0.0641692 0.1125 0 0.0634954 0.11875 0 0.0628216 0.125 0 0.0621477 0.13125 0 0.0614739 0.1375 0 0.0608001 0.14375 0 0.0601262 0.15 0 0.075785 0.05 0 0.0753358 0.05625 0 0.0748866 0.0625 0 0.0744373 0.06875 0 0.0739881 0.075 0 0.0735389 0.08125 0 0.0730897 0.0875 0 0.0726405 0.09375 0 0.0721913 0.1 0 0.071742 0.10625 0 0.0712928 0.1125 0 0.0708436 0.11875 0 0.0703944 0.125 0 0.0699452 0.13125 0 0.0694959 0.1375 0 0.0690467 0.14375 0 0.0685975 0.15 0 0.0806625 0.05 0 0.0804379 0.05625 0 0.0802133 0.0625 0 0.0799887 0.06875 0 0.0797641 0.075 0 0.0795395 0.08125 0 0.0793148 0.0875 0 0.0790902 0.09375 0 0.0788656 0.1 0 0.078641 0.10625 0 0.0784164 0.1125 0 0.0781918 0.11875 0 0.0779672 0.125 0 0.0777426 0.13125 0 0.077518 0.1375 0 0.0772934 0.14375 0 0.0770688 0.15 0 0.08554 0.05 0 0.08554 0.05625 0 0.08554 0.0625 0 0.08554 0.06875 0 0.08554 0.075 0 0.08554 0.08125 0 0.08554 0.0875 0 0.08554 0.09375 0 0.08554 0.1 0 0.08554 0.10625 0 0.08554 0.1125 0 0.08554 0.11875 0 0.08554 0.125 0 0.08554 0.13125 0 0.08554 0.1375 0 0.08554 0.14375 0 0.08554 0.15 0 
</DataArray>
</Points> 
</Piece> 
</StructuredGrid> 
</VTKFile> 
