<?xml version="1.0"?> 
<VTKFile type="StructuredGrid" version="0.1"> 
<StructuredGrid WholeExtent="0 16 0 16 0 0"> 
<Piece Extent="0 16 0 16 0 0"> 
<CellData>
<DataArray type="Float32" Name="err_h1" format="ascii" NumberOfComponents="1"> 
202.426 242.341 303.164 369.298 433.161 490.868 540.117 579.41 607.757 624.578 629.658 623.125 605.425 577.297 539.738 493.983 487.663 460.249 450.277 455.767 472.656 496.113 521.685 545.821 565.948 580.373 588.149 588.964 583.056 571.148 554.405 534.397 787.984 723.632 667.166 619.978 583.036 556.634 540.23 532.51 531.657 535.73 543.007 552.186 562.451 573.434 585.116 597.688 1079.23 986.535 895.946 809.04 727.722 654.272 591.352 541.842 508.371 492.514 494.026 510.748 539.332 576.234 618.373 663.359 1357.01 1240.19 1121.59 1002.67 885.339 772.113 666.485 573.413 499.756 453.716 441.57 462.85 509.992 573.281 644.805 719.225 1619.17 1481.06 1338.42 1192.62 1045.44 899.215 757.207 624.355 508.771 423.855 387.098 406.968 471.206 559.727 658.108 758.291 1863.78 1706.68 1543.11 1374.44 1202.34 1028.92 856.992 690.615 536.695 408.917 334.288 341.986 420.122 531.843 654.014 776.241 2088.66 1914.55 1732.82 1544.81 1352.14 1156.76 961.028 768.073 582.782 415.082 291.245 267.787 354.157 486.78 629.548 770.196 2291.01 2101.62 1904.3 1700.36 1491.35 1279.04 1065.44 852.948 644.723 446.233 272.763 187.892 270.929 422.593 582.814 738.257 2466.87 2263.59 2053.2 1836.83 1615.86 1391.82 1166.45 941.595 719.343 502.286 295.317 124.786 168.591 339.235 513.554 679.767 2610.17 2393.98 2172.89 1947.8 1719.72 1489.8 1259.35 1029.86 802.878 579.998 362.829 153.373 55.318 244.186 426.02 596.998 2707.96 2480.84 2252.34 2022.94 1793.33 1564.32 1336.8 1111.79 890.56 674.775 466.973 273.226 128.913 184.596 340.846 501.568 2730.47 2494.8 2265.48 2040.35 1818.53 1600.13 1385.89 1176.92 974.595 780.921 599.444 437.922 315.892 274.047 329.668 437.09 2656.66 2390.58 2154.43 1940.03 1741.07 1553.1 1373.67 1202.27 1040.12 889.757 754.94 640.732 553.743 501.208 487.283 508.622 2622.65 2233.49 1914.13 1654.45 1448.54 1290.94 1174.43 1089.67 1026.79 977.578 936.711 901.738 872.053 847.718 828.651 814.461 3063.46 2440.51 1924.7 1481.82 1104.64 811.643 654.887 677.671 823.702 1006.39 1178.75 1320.18 1421.79 1480.43 1496.37 1471.96 
</DataArray> 
</CellData> 
<Points> 
<DataArray type="Float32" NumberOfComponents="3"> 
-0.05 0.025 0 -0.05 0.0260938 0 -0.05 0.0271875 0 -0.05 0.0282813 0 -0.05 0.029375 0 -0.05 0.0304688 0 -0.05 0.0315625 0 -0.05 0.0326562 0 -0.05 0.03375 0 -0.05 0.0348438 0 -0.05 0.0359375 0 -0.05 0.0370313 0 -0.05 0.038125 0 -0.05 0.0392188 0 -0.05 0.0403125 0 -0.05 0.0414062 0 -0.05 0.0425 0 -0.0464063 0.025625 0 -0.0465629 0.0266343 0 -0.0467031 0.0276537 0 -0.0468267 0.0286824 0 -0.0469335 0.0297196 0 -0.0470233 0.0307644 0 -0.047096 0.0318159 0 -0.0471515 0.0328733 0 -0.0471897 0.0339356 0 -0.0472106 0.0350018 0 -0.0472142 0.0360712 0 -0.0472005 0.0371427 0 -0.0471695 0.0382154 0 -0.0471213 0.0392884 0 -0.0470561 0.0403608 0 -0.0469739 0.0414316 0 -0.046875 0.0425 0 -0.0428125 0.02625 0 -0.043111 0.0271771 0 -0.0433796 0.0281236 0 -0.0436177 0.0290881 0 -0.0438243 0.030069 0 -0.0439991 0.0310648 0 -0.0441413 0.0320738 0 -0.0442508 0.0330943 0 -0.0443271 0.0341246 0 -0.0443701 0.0351628 0 -0.0443798 0.0362072 0 -0.0443562 0.0372559 0 -0.0442996 0.0383071 0 -0.0442102 0.0393589 0 -0.0440884 0.0404095 0 -0.0439348 0.0414571 0 -0.04375 0.0425 0 -0.0392188 0.026875 0 -0.0396442 0.0277223 0 -0.0400292 0.0285974 0 -0.0403722 0.0294984 0 -0.0406716 0.0304233 0 -0.0409261 0.03137 0 -0.0411346 0.0323362 0 -0.0412963 0.0333194 0 -0.0414105 0.0343172 0 -0.0414769 0.0353268 0 -0.0414954 0.0363457 0 -0.0414662 0.037371 0 -0.0413895 0.0384001 0 -0.0412661 0.0394302 0 -0.0410967 0.0404586 0 -0.0408826 0.0414828 0 -0.040625 0.0425 0 -0.035625 0.0275 0 -0.0361624 0.0282699 0 -0.0366515 0.029075 0 -0.0370897 0.0299134 0 -0.0374743 0.0307826 0 -0.0378032 0.0316802 0 -0.0380744 0.0326033 0 -0.0382866 0.0335488 0 -0.0384385 0.0345134 0 -0.0385297 0.0354939 0 -0.0385598 0.0364866 0 -0.0385291 0.0374879 0 -0.0384383 0.0384944 0 -0.0382883 0.0395023 0 -0.0380807 0.0405081 0 -0.0378172 0.0415085 0 -0.0375 0.0425 0 -0.0320313 0.028125 0 -0.0326654 0.0288198 0 -0.0332462 0.0295565 0 -0.0337695 0.0303331 0 -0.0342316 0.0311471 0 -0.0346291 0.0319955 0 -0.0349594 0.0328751 0 -0.0352201 0.0337824 0 -0.0354096 0.0347134 0 -0.0355269 0.0356641 0 -0.0355716 0.03663 0 -0.035544 0.0376068 0 -0.0354451 0.03859 0 -0.0352764 0.0395752 0 -0.0350399 0.0405581 0 -0.0347385 0.0415343 0 -0.034375 0.0425 0 -0.0284375 0.02875 0 -0.0291533 0.0293721 0 -0.029813 0.030042 0 -0.030411 0.0307577 0 -0.0309424 0.0315167 0 -0.0314027 0.032316 0 -0.031788 0.0331519 0 -0.0320952 0.0340205 0 -0.0323219 0.0349173 0 -0.0324668 0.0358375 0 -0.0325293 0.036776 0 -0.0325096 0.0377276 0 -0.0324091 0.038687 0 -0.0322297 0.039649 0 -0.0319743 0.0406084 0 -0.0316463 0.0415603 0 -0.03125 0.0425 0 -0.0248438 0.029375 0 -0.0256259 0.0299269 0 -0.0263514 0.0305315 0 -0.0270135 0.0311872 0 -0.0276058 0.0318917 0 -0.0281225 0.0326418 0 -0.0285587 0.0334338 0 -0.0289101 0.0342632 0 -0.0291739 0.0351252 0 -0.0293479 0.0360143 0 -0.0294314 0.0369247 0 -0.0294247 0.0378504 0 -0.0293293 0.0387854 0 -0.0291477 0.0397236 0 -0.0288834 0.0406591 0 -0.0285408 0.0415863 0 -0.028125 0.0425 0 -0.02125 0.03 0 -0.0220831 0.030484 0 -0.0228613 0.031025 0 -0.0235764 0.0316217 0 -0.0242208 0.0322721 0 -0.0247873 0.032973 0 -0.0252699 0.0337208 0 -0.0256633 0.0345106 0 -0.0259636 0.0353372 0 -0.0261684 0.0361945 0 -0.0262765 0.0370761 0 -0.026288 0.0379753 0 -0.0262047 0.0388852 0 -0.0260296 0.0397991 0 -0.0257669 0.0407103 0 -0.0254216 0.0416125 0 -0.025 0.0425 0 -0.0176563 0.030625 0 -0.0185248 0.0310436 0 -0.0193421 0.0315226 0 -0.0200989 0.0320613 0 -0.0207862 0.032658 0 -0.0213956 0.0333099 0 -0.0219199 0.0340131 0 -0.0223527 0.0347629 0 -0.0226894 0.0355534 0 -0.0229266 0.0363782 0 -0.0230628 0.0372304 0 -0.0230982 0.0381023 0 -0.0230344 0.0389865 0 -0.022875 0.0398755 0 -0.0226245 0.0407619 0 -0.0222888 0.0416388 0 -0.021875 0.0425 0 -0.0140625 0.03125 0 -0.0149509 0.0316057 0 -0.0157936 0.0320244 0 -0.0165803 0.0325062 0 -0.0173009 0.0330497 0 -0.017946 0.0336526 0 -0.018507 0.034311 0 -0.0189766 0.0350201 0 -0.0193491 0.035774 0 -0.0196206 0.0365656 0 -0.0197889 0.0373875 0 -0.0198539 0.0382315 0 -0.0198174 0.0390893 0 -0.019683 0.0399528 0 -0.0194558 0.0408139 0 -0.0191423 0.0416652 0 -0.01875 0.0425 0 -0.0104688 0.031875 0 -0.0113612 0.0321702 0 -0.0122153 0.0325304 0 -0.0130199 0.0329563 0 -0.0137639 0.0334472 0 -0.014437 0.0340011 0 -0.0150295 0.0346145 0 -0.015533 0.0352825 0 -0.0159409 0.035999 0 -0.0162484 0.0367568 0 -0.0164529 0.0375476 0 -0.0165538 0.0383629 0 -0.0165527 0.0391936 0 -0.0164532 0.040031 0 -0.0162607 0.0408663 0 -0.015982 0.0416917 0 -0.015625 0.0425 0 -0.006875 0.0325 0 -0.00775581 0.0327372 0 -0.00860695 0.0330406 0 -0.0094169 0.0334118 0 -0.010174 0.0338506 0 -0.010867 0.0343557 0 -0.0114854 0.0349238 0 -0.0120198 0.0355502 0 -0.0124626 0.0362287 0 -0.0128081 0.0369517 0 -0.0130531 0.0377108 0 -0.0131963 0.0384965 0 -0.013239 0.0392995 0 -0.0131847 0.0401101 0 -0.0130387 0.0409192 0 -0.0128077 0.0417184 0 -0.0125 0.0425 0 -0.00328125 0.033125 0 -0.00413447 0.0333067 0 -0.0049681 0.0335552 0 -0.00577059 0.0338727 0 -0.00653001 0.0342601 0 -0.00723452 0.0347165 0 -0.00787285 0.0352391 0 -0.00843486 0.0358234 0 -0.00891198 0.0364632 0 -0.00929764 0.0371507 0 -0.00958757 0.0378771 0 -0.00977996 0.0386326 0 -0.00987543 0.039407 0 -0.00987692 0.0401902 0 -0.00978939 0.0409725 0 -0.00961946 0.0417451 0 -0.009375 0.0425 0 0.0003125 0.03375 0 -0.000497107 0.0338787 0 -0.00129837 0.0340741 0 -0.00208016 0.0343393 0 -0.00283063 0.0346759 0 -0.00353778 0.0350837 0 -0.00418986 0.0355605 0 -0.00477603 0.0361022 0 -0.00528683 0.0367025 0 -0.00571475 0.0373538 0 -0.00605449 0.0380467 0 -0.00630325 0.038771 0 -0.00646076 0.039516 0 -0.00652912 0.0402712 0 -0.00651257 0.0410263 0 -0.00641709 0.041772 0 -0.00625 0.0425 0 0.00390625 0.034375 0 0.00315638 0.0344532 0 0.00240262 0.0345974 0 0.0016552 0.0348115 0 0.000925363 0.035098 0 0.000224899 0.0354574 0 -0.000434321 0.0358883 0 -0.00104095 0.0363868 0 -0.00158477 0.036947 0 -0.0020572 0.0375611 0 -0.00245181 0.0382196 0 -0.00276453 0.0389119 0 -0.00299382 0.0396268 0 -0.00314056 0.0403533 0 -0.00320782 0.0410806 0 -0.00320052 0.041799 0 -0.003125 0.0425 0 0.0075 0.035 0 0.00682609 0.0350303 0 0.00613528 0.0351252 0 0.00543631 0.0352895 0 0.00473929 0.0355266 0 0.00405529 0.0358379 0 0.00339593 0.0362225 0 0.00277276 0.0366774 0 0.0021967 0.0371967 0 0.00167735 0.0377728 0 0.00122253 0.0383959 0 0.00083787 0.0390553 0 0.000526588 0.0397393 0 0.000289508 0.0404363 0 0.00012521 0.0411353 0 3.03382e-05 0.0418261 0 0 0.0425 0 
</DataArray>
</Points> 
</Piece> 
</StructuredGrid> 
</VTKFile> 
