<?xml version="1.0"?> 
<VTKFile type="StructuredGrid" version="0.1"> 
<StructuredGrid WholeExtent="0 16 0 16 0 0"> 
<Piece Extent="0 16 0 16 0 0"> 
<CellData>
<DataArray type="Float32" Name="err_h1" format="ascii" NumberOfComponents="1"> 
1309.98 1678.23 2057.03 2433.4 2793.79 3127.28 3426.87 3689.45 3915.15 4106.4 4267.19 4402.4 4517.35 4617.5 4708.16 4794.36 1274.15 1605.93 1948.09 2287.97 2613.26 2913.67 3182.18 3415.25 3612.29 3774.96 3906.5 4011.07 4093.27 4157.85 4209.41 4252.23 1248.14 1543.17 1848.06 2150.92 2440.17 2706.19 2942.17 3144.36 3311.71 3445.3 3547.71 3622.47 3673.6 3705.22 3721.37 3725.76 1229.9 1488.1 1755.77 2021.41 2274.11 2504.85 2707.2 2877.43 3014.26 3118.36 3191.81 3237.64 3259.35 3260.6 3244.97 3215.73 1216.85 1439.02 1670.03 1898.7 2114.71 2309.69 2477.67 2615.16 2720.85 2795.18 2839.93 2857.73 2851.7 2825.11 2781.19 2722.95 1206.32 1394.19 1589.74 1782.16 1961.78 2120.9 2254.14 2358.41 2432.57 2477.05 2493.45 2484.17 2452.04 2400.09 2331.27 2248.38 1195.69 1351.91 1513.9 1671.4 1815.42 1939.03 2037.57 2108.49 2151 2165.72 2154.25 2118.89 2062.32 1987.36 1896.82 1793.34 1182.54 1310.63 1441.81 1566.45 1676.33 1765.37 1829.75 1867.63 1878.77 1864.11 1825.43 1765.08 1685.69 1589.98 1480.64 1360.24 1164.99 1269.29 1373.36 1468.15 1546.27 1602.57 1634.19 1640.12 1620.81 1577.72 1512.97 1429.06 1328.67 1214.51 1089.22 955.257 1142.09 1227.86 1309.68 1378.97 1429.12 1456 1457.76 1434.37 1387.1 1318.06 1229.88 1125.39 1007.46 878.917 742.545 601.151 1114.9 1188.56 1254.54 1304.57 1332.8 1336.11 1313.83 1267.08 1198.12 1109.98 1006.14 890.349 766.595 639.409 514.835 402.941 1088.73 1158.43 1217.18 1257.01 1272.82 1262.65 1227.27 1169.38 1092.83 1002.24 902.901 801.039 704.201 621.716 564.502 542.597 1078.47 1154.68 1217.95 1260.61 1278.36 1270.5 1239.49 1190.07 1128.23 1060.44 993.261 933.248 886.81 859.519 854.884 873.285 1118.22 1215.38 1298.86 1362.01 1401.22 1416.26 1410.2 1388.61 1358.39 1326.31 1297.79 1276.18 1262.9 1258.1 1261.45 1272.63 1287.88 1420.58 1543 1649.29 1734.94 1797.45 1836.69 1854.89 1856.32 1846.57 1831.63 1816.68 1805.22 1798.44 1795.44 1793.81 1739.74 1926.74 2119.39 2310.79 2492.81 2656.86 2794.73 2899.46 2965.89 2991.1 2974.47 2917.58 2823.83 2698.07 2546.08 2374.16 
</DataArray> 
</CellData> 
<Points> 
<DataArray type="Float32" NumberOfComponents="3"> 
-0.05 0.0425 0 -0.05 0.0492187 0 -0.05 0.0559375 0 -0.05 0.0626563 0 -0.05 0.069375 0 -0.05 0.0760938 0 -0.05 0.0828125 0 -0.05 0.0895313 0 -0.05 0.09625 0 -0.05 0.102969 0 -0.05 0.109687 0 -0.05 0.116406 0 -0.05 0.123125 0 -0.05 0.129844 0 -0.05 0.136563 0 -0.05 0.143281 0 -0.05 0.15 0 -0.046875 0.0425 0 -0.0469739 0.0488531 0 -0.0470561 0.0552285 0 -0.0471213 0.0616206 0 -0.0471695 0.0680241 0 -0.0472005 0.0744335 0 -0.0472142 0.0808433 0 -0.0472106 0.0872478 0 -0.0471897 0.0936416 0 -0.0471515 0.100019 0 -0.047096 0.106375 0 -0.0470233 0.112703 0 -0.0469335 0.118999 0 -0.0468267 0.125257 0 -0.0467031 0.131471 0 -0.0465629 0.137637 0 -0.0464063 0.14375 0 -0.04375 0.0425 0 -0.0439348 0.0484859 0 -0.0440884 0.0545137 0 -0.0442102 0.0605733 0 -0.0442996 0.0666544 0 -0.0443562 0.0727468 0 -0.0443798 0.0788397 0 -0.0443701 0.0849225 0 -0.0443271 0.0909846 0 -0.0442508 0.0970154 0 -0.0441413 0.103004 0 -0.0439991 0.108941 0 -0.0438243 0.114816 0 -0.0436177 0.120618 0 -0.0433796 0.126339 0 -0.043111 0.131969 0 -0.0428125 0.1375 0 -0.040625 0.0425 0 -0.0408826 0.0481172 0 -0.0410967 0.0537931 0 -0.0412661 0.0595141 0 -0.0413895 0.0652656 0 -0.0414662 0.0710328 0 -0.0414954 0.0768008 0 -0.0414769 0.0825541 0 -0.0414105 0.0882776 0 -0.0412963 0.0939561 0 -0.0411346 0.0995745 0 -0.0409261 0.105118 0 -0.0406716 0.110574 0 -0.0403722 0.115927 0 -0.0400292 0.121165 0 -0.0396442 0.126276 0 -0.0392188 0.13125 0 -0.0375 0.0425 0 -0.0378172 0.0477468 0 -0.0380807 0.0530667 0 -0.0382883 0.0584428 0 -0.0384383 0.0638571 0 -0.0385291 0.069291 0 -0.0385598 0.0747256 0 -0.0385297 0.0801415 0 -0.0384385 0.0855192 0 -0.0382866 0.0908395 0 -0.0380744 0.0960837 0 -0.0378032 0.101234 0 -0.0374743 0.106272 0 -0.0370897 0.111182 0 -0.0366515 0.115949 0 -0.0361624 0.120559 0 -0.035625 0.125 0 -0.034375 0.0425 0 -0.0347385 0.0473748 0 -0.0350399 0.0523343 0 -0.0352764 0.0573592 0 -0.0354451 0.0624285 0 -0.035544 0.0675207 0 -0.0355716 0.0726133 0 -0.0355269 0.0776833 0 -0.0354096 0.0827078 0 -0.0352201 0.0876642 0 -0.0349594 0.0925303 0 -0.0346291 0.0972851 0 -0.0342316 0.101909 0 -0.0337695 0.106383 0 -0.0332462 0.11069 0 -0.0326654 0.114817 0 -0.0320313 0.11875 0 -0.03125 0.0425 0 -0.0316463 0.0470012 0 -0.0319743 0.051596 0 -0.0322297 0.0562631 0 -0.0324091 0.0609796 0 -0.0325096 0.0657212 0 -0.0325293 0.0704627 0 -0.0324668 0.0751783 0 -0.0323219 0.079842 0 -0.0320952 0.0844283 0 -0.031788 0.0889126 0 -0.0314027 0.0932714 0 -0.0309424 0.0974831 0 -0.030411 0.101528 0 -0.029813 0.105388 0 -0.0291533 0.10905 0 -0.0284375 0.1125 0 -0.028125 0.0425 0 -0.0285408 0.046626 0 -0.0288834 0.0508515 0 -0.0291477 0.0551542 0 -0.0293293 0.0595097 0 -0.0294247 0.0638917 0 -0.0294314 0.0682729 0 -0.0293479 0.0726251 0 -0.0291739 0.0769201 0 -0.0289101 0.0811302 0 -0.0285587 0.0852288 0 -0.0281225 0.089191 0 -0.0276058 0.0929937 0 -0.0270135 0.0966168 0 -0.0263514 0.100043 0 -0.0256259 0.103258 0 -0.0248438 0.10625 0 -0.025 0.0425 0 -0.0254216 0.0462491 0 -0.0257669 0.0501009 0 -0.0260296 0.0540325 0 -0.0262047 0.0580185 0 -0.026288 0.0620315 0 -0.0262765 0.0660427 0 -0.0261684 0.0700223 0 -0.0259636 0.0739405 0 -0.0256633 0.0777681 0 -0.0252699 0.0814772 0 -0.0247873 0.085042 0 -0.0242208 0.0884391 0 -0.0235764 0.0916484 0 -0.0228613 0.0946531 0 -0.0220831 0.0974401 0 -0.02125 0.1 0 -0.021875 0.0425 0 -0.0222888 0.0458706 0 -0.0226245 0.049344 0 -0.022875 0.0528975 0 -0.0230344 0.0565054 0 -0.0230982 0.0601398 0 -0.0230628 0.063771 0 -0.0229266 0.0673685 0 -0.0226894 0.0709015 0 -0.0223527 0.07434 0 -0.0219199 0.0776558 0 -0.0213956 0.0808228 0 -0.0207862 0.0838179 0 -0.0200989 0.0866217 0 -0.0193421 0.0892186 0 -0.0185248 0.0915972 0 -0.0176563 0.09375 0 -0.01875 0.0425 0 -0.0191423 0.0454904 0 -0.0194558 0.0485809 0 -0.019683 0.0517492 0 -0.0198174 0.0549701 0 -0.0198539 0.0582158 0 -0.0197889 0.0614567 0 -0.0196206 0.0646621 0 -0.0193491 0.0678012 0 -0.0189766 0.0708441 0 -0.018507 0.0737627 0 -0.017946 0.0765315 0 -0.0173009 0.0791285 0 -0.0165803 0.0815355 0 -0.0157936 0.0837387 0 -0.0149509 0.0857286 0 -0.0140625 0.0875 0 -0.015625 0.0425 0 -0.015982 0.0451086 0 -0.0162607 0.0478113 0 -0.0164532 0.0505872 0 -0.0165527 0.0534119 0 -0.0165538 0.0562587 0 -0.0164529 0.0590986 0 -0.0162484 0.0619016 0 -0.0159409 0.0646378 0 -0.015533 0.0672782 0 -0.0150295 0.0697958 0 -0.014437 0.0721663 0 -0.0137639 0.0743695 0 -0.0130199 0.0763889 0 -0.0122153 0.0782129 0 -0.0113612 0.0798343 0 -0.0104688 0.08125 0 -0.0125 0.0425 0 -0.0128077 0.044725 0 -0.0130387 0.0470353 0 -0.0131847 0.0494113 0 -0.013239 0.0518305 0 -0.0131963 0.0542676 0 -0.0130531 0.0566953 0 -0.0128081 0.0590853 0 -0.0124626 0.0614094 0 -0.0120198 0.0636403 0 -0.0114854 0.0657529 0 -0.010867 0.0677253 0 -0.010174 0.0695393 0 -0.0094169 0.0711808 0 -0.00860695 0.0726407 0 -0.00775581 0.0739139 0 -0.006875 0.075 0 -0.009375 0.0425 0 -0.00961946 0.0443398 0 -0.00978939 0.0462527 0 -0.00987692 0.0482212 0 -0.00987543 0.0502252 0 -0.00977996 0.0522415 0 -0.00958757 0.0542456 0 -0.00929764 0.0562116 0 -0.00891198 0.0581139 0 -0.00843486 0.0599281 0 -0.00787285 0.061632 0 -0.00723452 0.0632065 0 -0.00653001 0.0646362 0 -0.00577059 0.0659101 0 -0.0049681 0.0670213 0 -0.00413447 0.0679675 0 -0.00328125 0.06875 0 -0.00625 0.0425 0 -0.00641709 0.0439529 0 -0.00651257 0.0454634 0 -0.00652912 0.0470168 0 -0.00646076 0.0485955 0 -0.00630325 0.0501797 0 -0.00605449 0.0517481 0 -0.00571475 0.0532785 0 -0.00528683 0.0547492 0 -0.00477603 0.0561394 0 -0.00418986 0.0574308 0 -0.00353778 0.0586078 0 -0.00283063 0.0596587 0 -0.00208016 0.0605756 0 -0.00129837 0.0613543 0 -0.000497107 0.0619948 0 0.0003125 0.0625 0 -0.003125 0.0425 0 -0.00320052 0.0435643 0 -0.00320782 0.0446675 0 -0.00314056 0.0457977 0 -0.00299382 0.0469409 0 -0.00276453 0.0480811 0 -0.00245181 0.0492014 0 -0.0020572 0.0502844 0 -0.00158477 0.0513131 0 -0.00104095 0.0522717 0 -0.000434321 0.0531467 0 0.000224899 0.0539271 0 0.000925363 0.054605 0 0.0016552 0.0551761 0 0.00240262 0.055639 0 0.00315638 0.0559955 0 0.00390625 0.05625 0 0 0.0425 0 3.03382e-05 0.0431739 0 0.00012521 0.0438647 0 0.000289508 0.0445637 0 0.000526588 0.0452607 0 0.00083787 0.0459447 0 0.00122253 0.0466041 0 0.00167735 0.0472272 0 0.0021967 0.0478033 0 0.00277276 0.0483226 0 0.00339593 0.0487775 0 0.00405529 0.0491621 0 0.00473929 0.0494734 0 0.00543631 0.0497105 0 0.00613528 0.0498748 0 0.00682609 0.0499697 0 0.0075 0.05 0 
</DataArray>
</Points> 
</Piece> 
</StructuredGrid> 
</VTKFile> 
