<?xml version="1.0"?> 
<VTKFile type="StructuredGrid" version="0.1"> 
<StructuredGrid WholeExtent="0 16 0 16 0 0"> 
<Piece Extent="0 16 0 16 0 0"> 
<CellData>
<DataArray type="Float32" Name="err_h1" format="ascii" NumberOfComponents="1"> 
20.2818 20.8568 21.4523 22.0688 22.7067 23.3664 24.0483 24.7526 25.4797 26.2297 27.0027 27.7986 28.6175 29.4588 30.322 31.2063 20.8426 21.4919 22.1664 22.8666 23.5934 24.3476 25.13 25.9415 26.7832 27.6563 28.562 29.5019 30.4779 31.4923 32.5477 33.6478 21.0927 21.8412 22.6199 23.4298 24.2718 25.1469 26.0558 26.9997 27.9794 28.9959 30.0502 31.143 32.2753 33.4476 34.6604 35.9136 21.1687 22.0463 22.9611 23.9139 24.9058 25.9378 27.011 28.1262 29.2846 30.4871 31.7348 33.0285 34.3692 35.7579 37.1955 38.683 21.3339 22.385 23.4822 24.6266 25.8196 27.0624 28.3561 29.702 31.1015 32.5556 34.0656 35.6329 37.2587 38.9442 40.6907 42.4996 22.0466 23.3319 24.6757 26.0792 27.5439 29.0713 30.663 32.3208 34.046 35.8404 37.7055 39.6427 41.6538 43.74 45.9029 48.1438 24.0462 25.6494 27.3256 29.0781 30.9093 32.8213 34.8161 36.8958 39.0626 41.3184 43.6654 46.1055 48.6408 51.273 54.0041 56.8358 28.4145 30.4428 32.5722 34.8024 37.1359 39.5756 42.1244 44.7855 47.5615 50.4552 53.4693 56.6064 59.8691 63.2597 66.7807 70.4343 36.5298 39.1771 41.9537 44.8669 47.9213 51.1203 54.4674 57.9663 61.6205 65.4337 69.4096 73.5515 77.8628 82.3467 87.0062 91.844 50.1708 53.7806 57.5588 61.5214 65.6783 70.0367 74.6025 79.3808 84.3764 89.5938 95.0375 100.711 106.62 112.765 119.152 125.783 72.2843 77.1424 82.4177 88.0253 93.9374 100.151 106.672 113.509 120.671 128.168 136.005 144.188 152.72 161.604 170.84 180.429 105.073 113.213 121.124 129.231 137.738 146.743 156.292 166.416 177.137 188.475 200.45 213.081 226.383 240.363 255.02 270.329 162.956 169.105 178.254 189.134 201.181 214.185 228.123 243.066 259.13 276.449 295.163 315.414 337.339 361.078 386.787 414.661 217.137 240.255 257.624 272.312 286.365 301.09 317.357 335.784 356.862 381.024 408.681 440.246 476.13 516.731 562.385 613.273 407.953 368.891 347.877 339.25 340.002 348.547 364.057 386.142 414.718 449.946 492.236 542.251 600.95 669.652 750.145 844.881 295.325 234.008 205.101 204.286 224.149 257.373 299.538 348.861 405.161 469.198 542.38 626.688 724.736 839.919 976.671 1140.84 
</DataArray> 
</CellData> 
<Points> 
<DataArray type="Float32" NumberOfComponents="3"> 
-0.05 0.01875 0 -0.05 0.0191406 0 -0.05 0.0195312 0 -0.05 0.0199219 0 -0.05 0.0203125 0 -0.05 0.0207031 0 -0.05 0.0210938 0 -0.05 0.0214844 0 -0.05 0.021875 0 -0.05 0.0222656 0 -0.05 0.0226562 0 -0.05 0.0230469 0 -0.05 0.0234375 0 -0.05 0.0238281 0 -0.05 0.0242188 0 -0.05 0.0246094 0 -0.05 0.025 0 -0.0464063 0.0191406 0 -0.0464063 0.0195459 0 -0.0464063 0.0199512 0 -0.0464062 0.0203564 0 -0.0464063 0.0207617 0 -0.0464063 0.021167 0 -0.0464063 0.0215723 0 -0.0464063 0.0219775 0 -0.0464063 0.0223828 0 -0.0464063 0.0227881 0 -0.0464063 0.0231934 0 -0.0464063 0.0235986 0 -0.0464063 0.0240039 0 -0.0464062 0.0244092 0 -0.0464063 0.0248145 0 -0.0464063 0.0252197 0 -0.0464063 0.025625 0 -0.0428125 0.0195312 0 -0.0428125 0.0199512 0 -0.0428125 0.0203711 0 -0.0428125 0.020791 0 -0.0428125 0.0212109 0 -0.0428125 0.0216309 0 -0.0428125 0.0220508 0 -0.0428125 0.0224707 0 -0.0428125 0.0228906 0 -0.0428125 0.0233105 0 -0.0428125 0.0237305 0 -0.0428125 0.0241504 0 -0.0428125 0.0245703 0 -0.0428125 0.0249902 0 -0.0428125 0.0254102 0 -0.0428125 0.0258301 0 -0.0428125 0.02625 0 -0.0392188 0.0199219 0 -0.0392188 0.0203564 0 -0.0392188 0.020791 0 -0.0392188 0.0212256 0 -0.0392188 0.0216602 0 -0.0392188 0.0220947 0 -0.0392188 0.0225293 0 -0.0392188 0.0229639 0 -0.0392188 0.0233984 0 -0.0392188 0.023833 0 -0.0392188 0.0242676 0 -0.0392188 0.0247021 0 -0.0392188 0.0251367 0 -0.0392188 0.0255713 0 -0.0392188 0.0260059 0 -0.0392188 0.0264404 0 -0.0392188 0.026875 0 -0.035625 0.0203125 0 -0.035625 0.0207617 0 -0.035625 0.0212109 0 -0.035625 0.0216602 0 -0.035625 0.0221094 0 -0.035625 0.0225586 0 -0.035625 0.0230078 0 -0.035625 0.023457 0 -0.035625 0.0239063 0 -0.035625 0.0243555 0 -0.035625 0.0248047 0 -0.035625 0.0252539 0 -0.035625 0.0257031 0 -0.035625 0.0261523 0 -0.035625 0.0266016 0 -0.035625 0.0270508 0 -0.035625 0.0275 0 -0.0320313 0.0207031 0 -0.0320313 0.021167 0 -0.0320313 0.0216309 0 -0.0320313 0.0220947 0 -0.0320313 0.0225586 0 -0.0320313 0.0230225 0 -0.0320313 0.0234863 0 -0.0320313 0.0239502 0 -0.0320313 0.0244141 0 -0.0320313 0.0248779 0 -0.0320313 0.0253418 0 -0.0320313 0.0258057 0 -0.0320313 0.0262695 0 -0.0320313 0.0267334 0 -0.0320313 0.0271973 0 -0.0320313 0.0276611 0 -0.0320313 0.028125 0 -0.0284375 0.0210938 0 -0.0284375 0.0215723 0 -0.0284375 0.0220508 0 -0.0284375 0.0225293 0 -0.0284375 0.0230078 0 -0.0284375 0.0234863 0 -0.0284375 0.0239648 0 -0.0284375 0.0244434 0 -0.0284375 0.0249219 0 -0.0284375 0.0254004 0 -0.0284375 0.0258789 0 -0.0284375 0.0263574 0 -0.0284375 0.0268359 0 -0.0284375 0.0273145 0 -0.0284375 0.027793 0 -0.0284375 0.0282715 0 -0.0284375 0.02875 0 -0.0248438 0.0214844 0 -0.0248438 0.0219775 0 -0.0248438 0.0224707 0 -0.0248438 0.0229639 0 -0.0248438 0.023457 0 -0.0248438 0.0239502 0 -0.0248438 0.0244434 0 -0.0248438 0.0249365 0 -0.0248438 0.0254297 0 -0.0248438 0.0259229 0 -0.0248438 0.026416 0 -0.0248438 0.0269092 0 -0.0248438 0.0274023 0 -0.0248438 0.0278955 0 -0.0248438 0.0283887 0 -0.0248438 0.0288818 0 -0.0248438 0.029375 0 -0.02125 0.021875 0 -0.02125 0.0223828 0 -0.02125 0.0228906 0 -0.02125 0.0233984 0 -0.02125 0.0239062 0 -0.02125 0.0244141 0 -0.02125 0.0249219 0 -0.02125 0.0254297 0 -0.02125 0.0259375 0 -0.02125 0.0264453 0 -0.02125 0.0269531 0 -0.02125 0.0274609 0 -0.02125 0.0279688 0 -0.02125 0.0284766 0 -0.02125 0.0289844 0 -0.02125 0.0294922 0 -0.02125 0.03 0 -0.0176563 0.0222656 0 -0.0176563 0.0227881 0 -0.0176563 0.0233105 0 -0.0176563 0.023833 0 -0.0176563 0.0243555 0 -0.0176563 0.0248779 0 -0.0176563 0.0254004 0 -0.0176563 0.0259229 0 -0.0176563 0.0264453 0 -0.0176563 0.0269678 0 -0.0176563 0.0274902 0 -0.0176563 0.0280127 0 -0.0176563 0.0285352 0 -0.0176563 0.0290576 0 -0.0176563 0.0295801 0 -0.0176563 0.0301025 0 -0.0176563 0.030625 0 -0.0140625 0.0226562 0 -0.0140625 0.0231934 0 -0.0140625 0.0237305 0 -0.0140625 0.0242676 0 -0.0140625 0.0248047 0 -0.0140625 0.0253418 0 -0.0140625 0.0258789 0 -0.0140625 0.026416 0 -0.0140625 0.0269531 0 -0.0140625 0.0274902 0 -0.0140625 0.0280273 0 -0.0140625 0.0285645 0 -0.0140625 0.0291016 0 -0.0140625 0.0296387 0 -0.0140625 0.0301758 0 -0.0140625 0.0307129 0 -0.0140625 0.03125 0 -0.0104688 0.0230469 0 -0.0104688 0.0235986 0 -0.0104688 0.0241504 0 -0.0104688 0.0247021 0 -0.0104688 0.0252539 0 -0.0104688 0.0258057 0 -0.0104688 0.0263574 0 -0.0104688 0.0269092 0 -0.0104688 0.0274609 0 -0.0104688 0.0280127 0 -0.0104688 0.0285645 0 -0.0104688 0.0291162 0 -0.0104688 0.029668 0 -0.0104688 0.0302197 0 -0.0104688 0.0307715 0 -0.0104688 0.0313232 0 -0.0104688 0.031875 0 -0.006875 0.0234375 0 -0.006875 0.0240039 0 -0.006875 0.0245703 0 -0.006875 0.0251367 0 -0.006875 0.0257031 0 -0.006875 0.0262695 0 -0.006875 0.0268359 0 -0.006875 0.0274023 0 -0.006875 0.0279688 0 -0.006875 0.0285352 0 -0.006875 0.0291016 0 -0.006875 0.029668 0 -0.006875 0.0302344 0 -0.006875 0.0308008 0 -0.006875 0.0313672 0 -0.006875 0.0319336 0 -0.006875 0.0325 0 -0.00328125 0.0238281 0 -0.00328125 0.0244092 0 -0.00328125 0.0249902 0 -0.00328125 0.0255713 0 -0.00328125 0.0261523 0 -0.00328125 0.0267334 0 -0.00328125 0.0273145 0 -0.00328125 0.0278955 0 -0.00328125 0.0284766 0 -0.00328125 0.0290576 0 -0.00328125 0.0296387 0 -0.00328125 0.0302197 0 -0.00328125 0.0308008 0 -0.00328125 0.0313818 0 -0.00328125 0.0319629 0 -0.00328125 0.0325439 0 -0.00328125 0.033125 0 0.0003125 0.0242188 0 0.0003125 0.0248145 0 0.0003125 0.0254102 0 0.0003125 0.0260059 0 0.0003125 0.0266016 0 0.0003125 0.0271973 0 0.0003125 0.027793 0 0.0003125 0.0283887 0 0.0003125 0.0289844 0 0.0003125 0.0295801 0 0.0003125 0.0301758 0 0.0003125 0.0307715 0 0.0003125 0.0313672 0 0.0003125 0.0319629 0 0.0003125 0.0325586 0 0.0003125 0.0331543 0 0.0003125 0.03375 0 0.00390625 0.0246094 0 0.00390625 0.0252197 0 0.00390625 0.0258301 0 0.00390625 0.0264404 0 0.00390625 0.0270508 0 0.00390625 0.0276611 0 0.00390625 0.0282715 0 0.00390625 0.0288818 0 0.00390625 0.0294922 0 0.00390625 0.0301025 0 0.00390625 0.0307129 0 0.00390625 0.0313232 0 0.00390625 0.0319336 0 0.00390625 0.0325439 0 0.00390625 0.0331543 0 0.00390625 0.0337646 0 0.00390625 0.034375 0 0.0075 0.025 0 0.0075 0.025625 0 0.0075 0.02625 0 0.0075 0.026875 0 0.0075 0.0275 0 0.0075 0.028125 0 0.0075 0.02875 0 0.0075 0.029375 0 0.0075 0.03 0 0.0075 0.030625 0 0.0075 0.03125 0 0.0075 0.031875 0 0.0075 0.0325 0 0.0075 0.033125 0 0.0075 0.03375 0 0.0075 0.034375 0 0.0075 0.035 0 
</DataArray>
</Points> 
</Piece> 
</StructuredGrid> 
</VTKFile> 
