<?xml version="1.0"?> 
<VTKFile type="StructuredGrid" version="0.1"> 
<StructuredGrid WholeExtent="0 16 0 16 0 0"> 
<Piece Extent="0 16 0 16 0 0"> 
<CellData>
<DataArray type="Float32" Name="err_h1" format="ascii" NumberOfComponents="1"> 
13.5654 13.8734 14.1954 14.5319 14.8833 15.2498 15.632 16.0302 16.4449 16.8766 17.3255 17.7922 18.2772 18.7808 19.3035 19.8456 13.3861 13.7291 14.0888 14.466 14.861 15.2746 15.7073 16.1596 16.6323 17.1259 17.641 18.1785 18.7388 19.3228 19.9311 20.5646 12.6349 13.0174 13.421 13.8463 14.294 14.765 15.26 15.7798 16.3252 16.897 17.4961 18.1233 18.7797 19.466 20.1832 20.9322 11.3561 11.785 12.2407 12.7242 13.2364 13.7783 14.3511 14.9556 15.5931 16.2645 16.9711 17.7139 18.4941 19.3128 20.1713 21.0707 9.66201 10.147 10.6673 11.2241 11.8188 12.4525 13.1267 13.8425 14.6014 15.4047 16.2538 17.1501 18.0952 19.0904 20.1374 21.2378 7.74772 8.31278 8.9259 9.58789 10.3001 11.0638 11.8806 12.7519 13.6795 14.665 15.7101 16.8169 17.9871 19.2229 20.5263 21.8991 6.03297 6.73952 7.50521 8.33259 9.22324 10.1789 11.2015 12.2933 13.4567 14.6944 16.0089 17.4031 18.8799 20.4422 22.0931 23.8365 5.57414 6.46817 7.43442 8.47532 9.59441 10.7955 12.0823 13.4588 14.929 16.4968 18.1666 19.9425 21.829 23.8304 25.951 28.1951 7.57079 8.60362 9.75882 11.0243 12.4018 13.8961 15.5123 17.2555 19.1311 21.1445 23.3012 25.6073 28.0689 30.6923 33.4831 36.4416 11.7357 13.1478 14.6136 16.226 18.0055 19.957 22.0853 24.3965 26.8982 29.5986 32.5058 35.6276 38.9712 42.5448 46.3647 50.485 18.6318 20.1612 22.2318 24.5481 27.0654 29.8005 32.777 36.0135 39.5244 43.3227 47.4221 51.8391 56.5927 61.696 67.1225 72.6742 28.1153 31.8108 34.8964 38.1504 41.7745 45.7866 50.1719 54.9247 60.0516 65.567 71.4859 77.8204 84.5855 91.834 99.7819 109.272 48.1571 51.3041 56.467 62.1479 68.0772 74.2589 80.7808 87.7307 95.1733 103.155 111.716 120.897 130.712 141.038 151.242 158.923 98.681 97.1681 103.212 110.7 119.204 128.566 138.64 149.285 160.36 171.723 183.264 194.953 206.979 220.062 236.325 263.06 129.372 168.751 207.345 230.399 247.483 262.786 277.555 292.001 306.032 319.428 331.807 342.433 349.802 350.832 339.96 315.258 1071.48 782.099 670.389 627.643 611.368 606.72 608.577 615.069 625.452 639.446 657.107 679.11 707.924 751.957 839.88 1079.74 
</DataArray> 
</CellData> 
<Points> 
<DataArray type="Float32" NumberOfComponents="3"> 
-0.05 0.0125 0 -0.05 0.0128906 0 -0.05 0.0132813 0 -0.05 0.0136719 0 -0.05 0.0140625 0 -0.05 0.0144531 0 -0.05 0.0148437 0 -0.05 0.0152344 0 -0.05 0.015625 0 -0.05 0.0160156 0 -0.05 0.0164063 0 -0.05 0.0167969 0 -0.05 0.0171875 0 -0.05 0.0175781 0 -0.05 0.0179688 0 -0.05 0.0183594 0 -0.05 0.01875 0 -0.0464063 0.0125 0 -0.0464063 0.012915 0 -0.0464063 0.0133301 0 -0.0464062 0.0137451 0 -0.0464063 0.0141602 0 -0.0464063 0.0145752 0 -0.0464063 0.0149902 0 -0.0464063 0.0154053 0 -0.0464063 0.0158203 0 -0.0464063 0.0162354 0 -0.0464063 0.0166504 0 -0.0464063 0.0170654 0 -0.0464063 0.0174805 0 -0.0464062 0.0178955 0 -0.0464063 0.0183105 0 -0.0464063 0.0187256 0 -0.0464063 0.0191406 0 -0.0428125 0.0125 0 -0.0428125 0.0129395 0 -0.0428125 0.0133789 0 -0.0428125 0.0138184 0 -0.0428125 0.0142578 0 -0.0428125 0.0146973 0 -0.0428125 0.0151367 0 -0.0428125 0.0155762 0 -0.0428125 0.0160156 0 -0.0428125 0.0164551 0 -0.0428125 0.0168945 0 -0.0428125 0.017334 0 -0.0428125 0.0177734 0 -0.0428125 0.0182129 0 -0.0428125 0.0186523 0 -0.0428125 0.0190918 0 -0.0428125 0.0195312 0 -0.0392188 0.0125 0 -0.0392188 0.0129639 0 -0.0392188 0.0134277 0 -0.0392188 0.0138916 0 -0.0392188 0.0143555 0 -0.0392188 0.0148193 0 -0.0392188 0.0152832 0 -0.0392188 0.0157471 0 -0.0392188 0.0162109 0 -0.0392188 0.0166748 0 -0.0392188 0.0171387 0 -0.0392188 0.0176025 0 -0.0392188 0.0180664 0 -0.0392188 0.0185303 0 -0.0392188 0.0189941 0 -0.0392188 0.019458 0 -0.0392188 0.0199219 0 -0.035625 0.0125 0 -0.035625 0.0129883 0 -0.035625 0.0134766 0 -0.035625 0.0139648 0 -0.035625 0.0144531 0 -0.035625 0.0149414 0 -0.035625 0.0154297 0 -0.035625 0.015918 0 -0.035625 0.0164062 0 -0.035625 0.0168945 0 -0.035625 0.0173828 0 -0.035625 0.0178711 0 -0.035625 0.0183594 0 -0.035625 0.0188477 0 -0.035625 0.0193359 0 -0.035625 0.0198242 0 -0.035625 0.0203125 0 -0.0320313 0.0125 0 -0.0320313 0.0130127 0 -0.0320313 0.0135254 0 -0.0320313 0.0140381 0 -0.0320313 0.0145508 0 -0.0320313 0.0150635 0 -0.0320313 0.0155762 0 -0.0320313 0.0160889 0 -0.0320313 0.0166016 0 -0.0320313 0.0171143 0 -0.0320313 0.017627 0 -0.0320313 0.0181396 0 -0.0320313 0.0186523 0 -0.0320313 0.019165 0 -0.0320313 0.0196777 0 -0.0320313 0.0201904 0 -0.0320313 0.0207031 0 -0.0284375 0.0125 0 -0.0284375 0.0130371 0 -0.0284375 0.0135742 0 -0.0284375 0.0141113 0 -0.0284375 0.0146484 0 -0.0284375 0.0151855 0 -0.0284375 0.0157227 0 -0.0284375 0.0162598 0 -0.0284375 0.0167969 0 -0.0284375 0.017334 0 -0.0284375 0.0178711 0 -0.0284375 0.0184082 0 -0.0284375 0.0189453 0 -0.0284375 0.0194824 0 -0.0284375 0.0200195 0 -0.0284375 0.0205566 0 -0.0284375 0.0210938 0 -0.0248438 0.0125 0 -0.0248438 0.0130615 0 -0.0248438 0.013623 0 -0.0248438 0.0141846 0 -0.0248438 0.0147461 0 -0.0248438 0.0153076 0 -0.0248438 0.0158691 0 -0.0248438 0.0164307 0 -0.0248438 0.0169922 0 -0.0248438 0.0175537 0 -0.0248438 0.0181152 0 -0.0248438 0.0186768 0 -0.0248438 0.0192383 0 -0.0248438 0.0197998 0 -0.0248438 0.0203613 0 -0.0248438 0.0209229 0 -0.0248438 0.0214844 0 -0.02125 0.0125 0 -0.02125 0.0130859 0 -0.02125 0.0136719 0 -0.02125 0.0142578 0 -0.02125 0.0148438 0 -0.02125 0.0154297 0 -0.02125 0.0160156 0 -0.02125 0.0166016 0 -0.02125 0.0171875 0 -0.02125 0.0177734 0 -0.02125 0.0183594 0 -0.02125 0.0189453 0 -0.02125 0.0195312 0 -0.02125 0.0201172 0 -0.02125 0.0207031 0 -0.02125 0.0212891 0 -0.02125 0.021875 0 -0.0176563 0.0125 0 -0.0176563 0.0131104 0 -0.0176563 0.0137207 0 -0.0176563 0.0143311 0 -0.0176563 0.0149414 0 -0.0176563 0.0155518 0 -0.0176563 0.0161621 0 -0.0176563 0.0167725 0 -0.0176563 0.0173828 0 -0.0176563 0.0179932 0 -0.0176563 0.0186035 0 -0.0176563 0.0192139 0 -0.0176563 0.0198242 0 -0.0176563 0.0204346 0 -0.0176563 0.0210449 0 -0.0176563 0.0216553 0 -0.0176563 0.0222656 0 -0.0140625 0.0125 0 -0.0140625 0.0131348 0 -0.0140625 0.0137695 0 -0.0140625 0.0144043 0 -0.0140625 0.0150391 0 -0.0140625 0.0156738 0 -0.0140625 0.0163086 0 -0.0140625 0.0169434 0 -0.0140625 0.0175781 0 -0.0140625 0.0182129 0 -0.0140625 0.0188477 0 -0.0140625 0.0194824 0 -0.0140625 0.0201172 0 -0.0140625 0.020752 0 -0.0140625 0.0213867 0 -0.0140625 0.0220215 0 -0.0140625 0.0226562 0 -0.0104688 0.0125 0 -0.0104688 0.0131592 0 -0.0104688 0.0138184 0 -0.0104688 0.0144775 0 -0.0104688 0.0151367 0 -0.0104688 0.0157959 0 -0.0104688 0.0164551 0 -0.0104688 0.0171143 0 -0.0104688 0.0177734 0 -0.0104688 0.0184326 0 -0.0104688 0.0190918 0 -0.0104688 0.019751 0 -0.0104688 0.0204102 0 -0.0104688 0.0210693 0 -0.0104688 0.0217285 0 -0.0104688 0.0223877 0 -0.0104688 0.0230469 0 -0.006875 0.0125 0 -0.006875 0.0131836 0 -0.006875 0.0138672 0 -0.006875 0.0145508 0 -0.006875 0.0152344 0 -0.006875 0.015918 0 -0.006875 0.0166016 0 -0.006875 0.0172852 0 -0.006875 0.0179688 0 -0.006875 0.0186523 0 -0.006875 0.0193359 0 -0.006875 0.0200195 0 -0.006875 0.0207031 0 -0.006875 0.0213867 0 -0.006875 0.0220703 0 -0.006875 0.0227539 0 -0.006875 0.0234375 0 -0.00328125 0.0125 0 -0.00328125 0.013208 0 -0.00328125 0.013916 0 -0.00328125 0.014624 0 -0.00328125 0.015332 0 -0.00328125 0.01604 0 -0.00328125 0.016748 0 -0.00328125 0.0174561 0 -0.00328125 0.0181641 0 -0.00328125 0.0188721 0 -0.00328125 0.0195801 0 -0.00328125 0.0202881 0 -0.00328125 0.0209961 0 -0.00328125 0.0217041 0 -0.00328125 0.0224121 0 -0.00328125 0.0231201 0 -0.00328125 0.0238281 0 0.0003125 0.0125 0 0.0003125 0.0132324 0 0.0003125 0.0139648 0 0.0003125 0.0146973 0 0.0003125 0.0154297 0 0.0003125 0.0161621 0 0.0003125 0.0168945 0 0.0003125 0.017627 0 0.0003125 0.0183594 0 0.0003125 0.0190918 0 0.0003125 0.0198242 0 0.0003125 0.0205566 0 0.0003125 0.0212891 0 0.0003125 0.0220215 0 0.0003125 0.0227539 0 0.0003125 0.0234863 0 0.0003125 0.0242188 0 0.00390625 0.0125 0 0.00390625 0.0132568 0 0.00390625 0.0140137 0 0.00390625 0.0147705 0 0.00390625 0.0155273 0 0.00390625 0.0162842 0 0.00390625 0.017041 0 0.00390625 0.0177979 0 0.00390625 0.0185547 0 0.00390625 0.0193115 0 0.00390625 0.0200684 0 0.00390625 0.0208252 0 0.00390625 0.021582 0 0.00390625 0.0223389 0 0.00390625 0.0230957 0 0.00390625 0.0238525 0 0.00390625 0.0246094 0 0.0075 0.0125 0 0.0075 0.0132812 0 0.0075 0.0140625 0 0.0075 0.0148438 0 0.0075 0.015625 0 0.0075 0.0164063 0 0.0075 0.0171875 0 0.0075 0.0179688 0 0.0075 0.01875 0 0.0075 0.0195312 0 0.0075 0.0203125 0 0.0075 0.0210938 0 0.0075 0.021875 0 0.0075 0.0226563 0 0.0075 0.0234375 0 0.0075 0.0242188 0 0.0075 0.025 0 
</DataArray>
</Points> 
</Piece> 
</StructuredGrid> 
</VTKFile> 
