<?xml version="1.0"?> 
<VTKFile type="StructuredGrid" version="0.1"> 
<StructuredGrid WholeExtent="0 15 0 15 0 0"> 
<Piece Extent="0 15 0 15 0 0"> 
<PointData>
<DataArray type="Float32" Name="E" format="ascii" NumberOfComponents="3"> 
-715133 393655 0 -693660 356335 0 -673376 322918 0 -654186 292762 0 -636007 265345 0 -618764 240244 0 -602394 217105 0 -586846 195636 0 -572090 175569 0 -558125 156683 0 -544983 138759 0 -532748 121636 0 -521628 105161 0 -512033 89412.7 0 -505053 74372.7 0 -502313 59697.9 0 -760018 511440 0 -736946 469795 0 -715007 432421 0 -694111 398649 0 -674182 367928 0 -655157 339814 0 -636980 313939 0 -619603 290002 0 -602981 267749 0 -587066 246957 0 -571808 227430 0 -557155 208996 0 -543048 191509 0 -529430 174865 0 -516220 158939 0 -503352 143365 0 -816880 633727 0 -792308 588046 0 -768815 546926 0 -746328 509684 0 -724780 475756 0 -704109 444674 0 -684257 416050 0 -665172 389560 0 -646810 364933 0 -629135 341943 0 -612126 320404 0 -595766 300150 0 -580031 281027 0 -564884 262876 0 -550273 245592 0 -536161 229275 0 -886221 760351 0 -860372 711112 0 -835484 666607 0 -811501 626162 0 -788380 589211 0 -766088 555287 0 -744596 524000 0 -723877 495020 0 -703896 468068 0 -684608 442904 0 -665961 419320 0 -647906 397143 0 -630414 376228 0 -613494 356462 0 -597173 337719 0 -581396 319764 0 -968465 890130 0 -941640 838005 0 -915673 790681 0 -890519 747507 0 -866125 707937 0 -842445 671511 0 -819435 637839 0 -797069 606586 0 -775341 577461 0 -754264 550215 0 -733860 524639 0 -714134 500560 0 -695052 477838 0 -676520 456349 0 -658444 435975 0 -640921 416555 0 -1.06402e+06 1.02046e+06 0 -1.03676e+06 966627 0 -1.01006e+06 917480 0 -983953 872396 0 -958472 830850 0 -933643 792408 0 -909472 756721 0 -885935 723501 0 -862981 692507 0 -840539 663525 0 -818545 636336 0 -796984 610712 0 -775917 586411 0 -755479 563243 0 -735760 541196 0 -716460 520732 0 -1.17283e+06 1.14415e+06 0 -1.14627e+06 1.09036e+06 0 -1.11996e+06 1.04106e+06 0 -1.09387e+06 995692 0 -1.068e+06 953781 0 -1.04237e+06 914877 0 -1.01701e+06 878573 0 -992025 844505 0 -967518 812374 0 -943602 781971 0 -920340 753199 0 -897695 726076 0 -875507 700663 0 -853545 676884 0 -831738 654143 0 -810722 630633 0 -1.29412e+06 1.25237e+06 0 -1.26921e+06 1.20115e+06 0 -1.24411e+06 1.15365e+06 0 -1.21898e+06 1.10947e+06 0 -1.19395e+06 1.0683e+06 0 -1.16904e+06 1.02991e+06 0 -1.14426e+06 994152 0 -1.11952e+06 960852 0 -1.09473e+06 929792 0 -1.06983e+06 900636 0 -1.04487e+06 872915 0 -1.02006e+06 846070 0 -995733 819646 0 -972248 793699 0 -949569 769574 0 -926469 751138 0 -1.42652e+06 1.31941e+06 0 -1.40659e+06 1.27674e+06 0 -1.38526e+06 1.23705e+06 0 -1.36272e+06 1.19984e+06 0 -1.33916e+06 1.1646e+06 0 -1.31489e+06 1.13089e+06 0 -1.29022e+06 1.09835e+06 0 -1.26548e+06 1.0668e+06 0 -1.24094e+06 1.0363e+06 0 -1.21674e+06 1.0072e+06 0 -1.19281e+06 980027 0 -1.16886e+06 955377 0 -1.14446e+06 933413 0 -1.1193e+06 913100 0 -1.09382e+06 890883 0 -1.07029e+06 858771 0 -1.56453e+06 1.31143e+06 0 -1.5524e+06 1.28069e+06 0 -1.53845e+06 1.25177e+06 0 -1.52289e+06 1.2248e+06 0 -1.50579e+06 1.19989e+06 0 -1.48713e+06 1.17706e+06 0 -1.46683e+06 1.15615e+06 0 -1.44486e+06 1.13666e+06 0 -1.42127e+06 1.11778e+06 0 -1.39635e+06 1.09842e+06 0 -1.37062e+06 1.07739e+06 0 -1.34485e+06 1.05386e+06 0 -1.31979e+06 1.02817e+06 0 -1.29578e+06 1.00316e+06 0 -1.27188e+06 986061 0 -1.24451e+06 991141 0 -1.70209e+06 1.16603e+06 0 -1.70433e+06 1.16574e+06 0 -1.70165e+06 1.16309e+06 0 -1.69488e+06 1.15782e+06 0 -1.68486e+06 1.14991e+06 0 -1.6724e+06 1.13963e+06 0 -1.65822e+06 1.12772e+06 0 -1.64283e+06 1.11535e+06 0 -1.62644e+06 1.10409e+06 0 -1.60892e+06 1.09564e+06 0 -1.5898e+06 1.09137e+06 0 -1.56842e+06 1.09146e+06 0 -1.54428e+06 1.09366e+06 0 -1.51771e+06 1.09137e+06 0 -1.49092e+06 1.07108e+06 0 -1.4696e+06 1.00923e+06 0 -1.82048e+06 712989 0 -1.84947e+06 758120 0 -1.87194e+06 801841 0 -1.88805e+06 844216 0 -1.89788e+06 884855 0 -1.90156e+06 922810 0 -1.89936e+06 956577 0 -1.89178e+06 984215 0 -1.87966e+06 1.00365e+06 0 -1.86419e+06 1.01322e+06 0 -1.84676e+06 1.01254e+06 0 -1.82874e+06 1.00378e+06 0 -1.81094e+06 993421 0 -1.7928e+06 994631 0 -1.77119e+06 1.03032e+06 0 -1.73871e+06 1.13646e+06 0 -1.88969e+06 -165385 0 -1.95702e+06 -54072.4 0 -2.01198e+06 44492.8 0 -2.05664e+06 132342 0 -2.09285e+06 212079 0 -2.12215e+06 286790 0 -2.14562e+06 359876 0 -2.16383e+06 434680 0 -2.17682e+06 513880 0 -2.18418e+06 598586 0 -2.18525e+06 687099 0 -2.17956e+06 773253 0 -2.16739e+06 844325 0 -2.15075e+06 878427 0 -2.13465e+06 841292 0 -2.12866e+06 683224 0 -1.82906e+06 -2.11599e+06 0 -1.97759e+06 -1.84352e+06 0 -2.11188e+06 -1.58577e+06 0 -2.22991e+06 -1.34454e+06 0 -2.33041e+06 -1.12237e+06 0 -2.41295e+06 -922136 0 -2.47795e+06 -746531 0 -2.52669e+06 -597374 0 -2.56122e+06 -474669 0 -2.58415e+06 -375406 0 -2.59836e+06 -292087 0 -2.6065e+06 -210927 0 -2.61029e+06 -109757 0 -2.60967e+06 44416.1 0 -2.60157e+06 298279 0 -2.57864e+06 714359 0 -1.40886e+06 -4.33109e+06 0 -1.50618e+06 -4.19023e+06 0 -1.63154e+06 -4.03351e+06 0 -1.78126e+06 -3.85864e+06 0 -1.9511e+06 -3.66326e+06 0 -2.13621e+06 -3.44542e+06 0 -2.331e+06 -3.20418e+06 0 -2.5292e+06 -2.9403e+06 0 -2.72384e+06 -2.65717e+06 0 -2.9074e+06 -2.36173e+06 0 -3.07195e+06 -2.06567e+06 0 -3.20944e+06 -1.7867e+06 0 -3.3121e+06 -1.54994e+06 0 -3.37294e+06 -1.38947e+06 0 -3.3864e+06 -1.35013e+06 0 -3.34902e+06 -1.48809e+06 0 -894378 -3.15212e+06 0 -823379 -3.14897e+06 0 -725652 -3.12817e+06 0 -610020 -3.09023e+06 0 -484883 -3.04184e+06 0 -359753 -2.99558e+06 0 -246605 -2.97076e+06 0 -161226 -2.99486e+06 0 -124661 -3.10545e+06 0 -164782 -3.35238e+06 0 -317997 -3.8004e+06 0 -631108 -4.53197e+06 0 -1.16329e+06 -5.65032e+06 0 -1.98817e+06 -7.28261e+06 0 -3.19594e+06 -9.58315e+06 0 -4.89544e+06 -1.27363e+07 0 </DataArray> 
</PointData> 
<Points> 
<DataArray type="Float32" NumberOfComponents="3"> 
0.046 0.027 0 0.0437667 0.0286667 0 0.0415333 0.0303333 0 0.0393 0.032 0 0.0370667 0.0336667 0 0.0348333 0.0353333 0 0.0326 0.037 0 0.0303667 0.0386667 0 0.0281333 0.0403333 0 0.0259 0.042 0 0.0236667 0.0436667 0 0.0214333 0.0453333 0 0.0192 0.047 0 0.0169667 0.0486667 0 0.0147333 0.0503333 0 0.0125 0.052 0 0.0586667 0.027 0 0.0565222 0.0285911 0 0.0543778 0.0301822 0 0.0522333 0.0317733 0 0.0500889 0.0333644 0 0.0479444 0.0349556 0 0.0458 0.0365467 0 0.0436556 0.0381378 0 0.0415111 0.0397289 0 0.0393667 0.04132 0 0.0372222 0.0429111 0 0.0350778 0.0445022 0 0.0329333 0.0460933 0 0.0307889 0.0476844 0 0.0286444 0.0492756 0 0.0265 0.0508667 0 0.0713333 0.027 0 0.0692778 0.0285156 0 0.0672222 0.0300311 0 0.0651667 0.0315467 0 0.0631111 0.0330622 0 0.0610556 0.0345778 0 0.059 0.0360933 0 0.0569444 0.0376089 0 0.0548889 0.0391244 0 0.0528333 0.04064 0 0.0507778 0.0421556 0 0.0487222 0.0436711 0 0.0466667 0.0451867 0 0.0446111 0.0467022 0 0.0425556 0.0482178 0 0.0405 0.0497333 0 0.084 0.027 0 0.0820333 0.02844 0 0.0800667 0.02988 0 0.0781 0.03132 0 0.0761333 0.03276 0 0.0741667 0.0342 0 0.0722 0.03564 0 0.0702333 0.03708 0 0.0682667 0.03852 0 0.0663 0.03996 0 0.0643333 0.0414 0 0.0623667 0.04284 0 0.0604 0.04428 0 0.0584333 0.04572 0 0.0564667 0.04716 0 0.0545 0.0486 0 0.0966667 0.027 0 0.0947889 0.0283644 0 0.0929111 0.0297289 0 0.0910333 0.0310933 0 0.0891556 0.0324578 0 0.0872778 0.0338222 0 0.0854 0.0351867 0 0.0835222 0.0365511 0 0.0816444 0.0379156 0 0.0797667 0.03928 0 0.0778889 0.0406444 0 0.0760111 0.0420089 0 0.0741333 0.0433733 0 0.0722556 0.0447378 0 0.0703778 0.0461022 0 0.0685 0.0474667 0 0.109333 0.027 0 0.107544 0.0282889 0 0.105756 0.0295778 0 0.103967 0.0308667 0 0.102178 0.0321556 0 0.100389 0.0334444 0 0.0986 0.0347333 0 0.0968111 0.0360222 0 0.0950222 0.0373111 0 0.0932333 0.0386 0 0.0914444 0.0398889 0 0.0896556 0.0411778 0 0.0878667 0.0424667 0 0.0860778 0.0437556 0 0.0842889 0.0450444 0 0.0825 0.0463333 0 0.122 0.027 0 0.1203 0.0282133 0 0.1186 0.0294267 0 0.1169 0.03064 0 0.1152 0.0318533 0 0.1135 0.0330667 0 0.1118 0.03428 0 0.1101 0.0354933 0 0.1084 0.0367067 0 0.1067 0.03792 0 0.105 0.0391333 0 0.1033 0.0403467 0 0.1016 0.04156 0 0.0999 0.0427733 0 0.0982 0.0439867 0 0.0965 0.0452 0 0.134667 0.027 0 0.133056 0.0281378 0 0.131444 0.0292756 0 0.129833 0.0304133 0 0.128222 0.0315511 0 0.126611 0.0326889 0 0.125 0.0338267 0 0.123389 0.0349644 0 0.121778 0.0361022 0 0.120167 0.03724 0 0.118556 0.0383778 0 0.116944 0.0395156 0 0.115333 0.0406533 0 0.113722 0.0417911 0 0.112111 0.0429289 0 0.1105 0.0440667 0 0.147333 0.027 0 0.145811 0.0280622 0 0.144289 0.0291244 0 0.142767 0.0301867 0 0.141244 0.0312489 0 0.139722 0.0323111 0 0.1382 0.0333733 0 0.136678 0.0344356 0 0.135156 0.0354978 0 0.133633 0.03656 0 0.132111 0.0376222 0 0.130589 0.0386844 0 0.129067 0.0397467 0 0.127544 0.0408089 0 0.126022 0.0418711 0 0.1245 0.0429333 0 0.16 0.027 0 0.158567 0.0279867 0 0.157133 0.0289733 0 0.1557 0.02996 0 0.154267 0.0309467 0 0.152833 0.0319333 0 0.1514 0.03292 0 0.149967 0.0339067 0 0.148533 0.0348933 0 0.1471 0.03588 0 0.145667 0.0368667 0 0.144233 0.0378533 0 0.1428 0.03884 0 0.141367 0.0398267 0 0.139933 0.0408133 0 0.1385 0.0418 0 0.172667 0.027 0 0.171322 0.0279111 0 0.169978 0.0288222 0 0.168633 0.0297333 0 0.167289 0.0306444 0 0.165944 0.0315556 0 0.1646 0.0324667 0 0.163256 0.0333778 0 0.161911 0.0342889 0 0.160567 0.0352 0 0.159222 0.0361111 0 0.157878 0.0370222 0 0.156533 0.0379333 0 0.155189 0.0388444 0 0.153844 0.0397556 0 0.1525 0.0406667 0 0.185333 0.027 0 0.184078 0.0278356 0 0.182822 0.0286711 0 0.181567 0.0295067 0 0.180311 0.0303422 0 0.179056 0.0311778 0 0.1778 0.0320133 0 0.176544 0.0328489 0 0.175289 0.0336844 0 0.174033 0.03452 0 0.172778 0.0353556 0 0.171522 0.0361911 0 0.170267 0.0370267 0 0.169011 0.0378622 0 0.167756 0.0386978 0 0.1665 0.0395333 0 0.198 0.027 0 0.196833 0.02776 0 0.195667 0.02852 0 0.1945 0.02928 0 0.193333 0.03004 0 0.192167 0.0308 0 0.191 0.03156 0 0.189833 0.03232 0 0.188667 0.03308 0 0.1875 0.03384 0 0.186333 0.0346 0 0.185167 0.03536 0 0.184 0.03612 0 0.182833 0.03688 0 0.181667 0.03764 0 0.1805 0.0384 0 0.210667 0.027 0 0.209589 0.0276844 0 0.208511 0.0283689 0 0.207433 0.0290533 0 0.206356 0.0297378 0 0.205278 0.0304222 0 0.2042 0.0311067 0 0.203122 0.0317911 0 0.202044 0.0324756 0 0.200967 0.03316 0 0.199889 0.0338444 0 0.198811 0.0345289 0 0.197733 0.0352133 0 0.196656 0.0358978 0 0.195578 0.0365822 0 0.1945 0.0372667 0 0.223333 0.027 0 0.222344 0.0276089 0 0.221356 0.0282178 0 0.220367 0.0288267 0 0.219378 0.0294356 0 0.218389 0.0300444 0 0.2174 0.0306533 0 0.216411 0.0312622 0 0.215422 0.0318711 0 0.214433 0.03248 0 0.213444 0.0330889 0 0.212456 0.0336978 0 0.211467 0.0343067 0 0.210478 0.0349156 0 0.209489 0.0355244 0 0.2085 0.0361333 0 0.236 0.027 0 0.2351 0.0275333 0 0.2342 0.0280667 0 0.2333 0.0286 0 0.2324 0.0291333 0 0.2315 0.0296667 0 0.2306 0.0302 0 0.2297 0.0307333 0 0.2288 0.0312667 0 0.2279 0.0318 0 0.227 0.0323333 0 0.2261 0.0328667 0 0.2252 0.0334 0 0.2243 0.0339333 0 0.2234 0.0344667 0 0.2225 0.035 0 
</DataArray>
</Points> 
</Piece> 
</StructuredGrid> 
</VTKFile> 
