<?xml version="1.0"?> 
<VTKFile type="StructuredGrid" version="0.1"> 
<StructuredGrid WholeExtent="0 127 0 127 0 0"> 
<Piece Extent="0 127 0 127 0 0"> 
<PointData>
<DataArray type="Float32" Name="E" format="ascii" NumberOfComponents="3"> 
-1.00912e+06 0 0 -1.00912e+06 0 0 -1.00912e+06 0 0 -1.00911e+06 0 0 -1.00911e+06 0 0 -1.00911e+06 0 0 -1.0091e+06 0 0 -1.00909e+06 0 0 -1.00908e+06 0 0 -1.00907e+06 0 0 -1.00906e+06 0 0 -1.00905e+06 0 0 -1.00904e+06 0 0 -1.00902e+06 0 0 -1.00901e+06 0 0 -1.00899e+06 0 0 -1.00897e+06 0 0 -1.00895e+06 0 0 -1.00893e+06 0 0 -1.00891e+06 0 0 -1.00889e+06 0 0 -1.00887e+06 0 0 -1.00884e+06 0 0 -1.00882e+06 0 0 -1.00879e+06 0 0 -1.00876e+06 0 0 -1.00873e+06 0 0 -1.0087e+06 0 0 -1.00867e+06 0 0 -1.00864e+06 0 0 -1.00861e+06 0 0 -1.00857e+06 0 0 -1.00854e+06 0 0 -1.0085e+06 0 0 -1.00846e+06 0 0 -1.00842e+06 0 0 -1.00838e+06 0 0 -1.00834e+06 0 0 -1.0083e+06 0 0 -1.00825e+06 0 0 -1.00821e+06 0 0 -1.00816e+06 0 0 -1.00812e+06 0 0 -1.00807e+06 0 0 -1.00802e+06 0 0 -1.00797e+06 0 0 -1.00791e+06 0 0 -1.00786e+06 0 0 -1.00781e+06 0 0 -1.00775e+06 0 0 -1.0077e+06 0 0 -1.00764e+06 0 0 -1.00758e+06 0 0 -1.00752e+06 0 0 -1.00746e+06 0 0 -1.0074e+06 0 0 -1.00733e+06 0 0 -1.00727e+06 0 0 -1.00721e+06 0 0 -1.00714e+06 0 0 -1.00707e+06 0 0 -1.007e+06 0 0 -1.00693e+06 0 0 -1.00686e+06 0 0 -1.00679e+06 0 0 -1.00672e+06 0 0 -1.00664e+06 0 0 -1.00657e+06 0 0 -1.00649e+06 0 0 -1.00641e+06 0 0 -1.00633e+06 0 0 -1.00625e+06 0 0 -1.00617e+06 0 0 -1.00609e+06 0 0 -1.00601e+06 0 0 -1.00592e+06 0 0 -1.00584e+06 0 0 -1.00575e+06 0 0 -1.00566e+06 0 0 -1.00557e+06 0 0 -1.00548e+06 0 0 -1.00539e+06 0 0 -1.0053e+06 0 0 -1.00521e+06 0 0 -1.00511e+06 0 0 -1.00502e+06 0 0 -1.00492e+06 0 0 -1.00482e+06 0 0 -1.00472e+06 0 0 -1.00462e+06 0 0 -1.00452e+06 0 0 -1.00442e+06 0 0 -1.00431e+06 0 0 -1.00421e+06 0 0 -1.0041e+06 0 0 -1.004e+06 0 0 -1.00389e+06 0 0 -1.00378e+06 0 0 -1.00367e+06 0 0 -1.00356e+06 0 0 -1.00345e+06 0 0 -1.00333e+06 0 0 -1.00322e+06 0 0 -1.0031e+06 0 0 -1.00299e+06 0 0 -1.00287e+06 0 0 -1.00275e+06 0 0 -1.00263e+06 0 0 -1.00251e+06 0 0 -1.00238e+06 0 0 -1.00226e+06 0 0 -1.00214e+06 0 0 -1.00201e+06 0 0 -1.00188e+06 0 0 -1.00176e+06 0 0 -1.00163e+06 0 0 -1.0015e+06 0 0 -1.00137e+06 0 0 -1.00123e+06 0 0 -1.0011e+06 0 0 -1.00097e+06 0 0 -1.00083e+06 0 0 -1.00069e+06 0 0 -1.00056e+06 0 0 -1.00042e+06 0 0 -1.00028e+06 0 0 -1.00013e+06 0 0 -999993 0 0 -1.00912e+06 1.9047e-07 0 -1.00912e+06 1.94151 0 -1.00912e+06 3.88302 0 -1.00912e+06 5.8245 0 -1.00911e+06 7.76595 0 -1.00911e+06 9.70736 0 -1.0091e+06 11.6487 0 -1.00909e+06 13.59 0 -1.00908e+06 15.5313 0 -1.00907e+06 17.4724 0 -1.00906e+06 19.4135 0 -1.00905e+06 21.3544 0 -1.00904e+06 23.2952 0 -1.00902e+06 25.236 0 -1.00901e+06 27.1766 0 -1.00899e+06 29.117 0 -1.00898e+06 31.0573 0 -1.00896e+06 32.9974 0 -1.00894e+06 34.9374 0 -1.00892e+06 36.8771 0 -1.00889e+06 38.8167 0 -1.00887e+06 40.7561 0 -1.00885e+06 42.6953 0 -1.00882e+06 44.6342 0 -1.00879e+06 46.5729 0 -1.00877e+06 48.5113 0 -1.00874e+06 50.4495 0 -1.00871e+06 52.3875 0 -1.00867e+06 54.3251 0 -1.00864e+06 56.2625 0 -1.00861e+06 58.1996 0 -1.00857e+06 60.1364 0 -1.00854e+06 62.0728 0 -1.0085e+06 64.0089 0 -1.00846e+06 65.9447 0 -1.00842e+06 67.8801 0 -1.00838e+06 69.8152 0 -1.00834e+06 71.7499 0 -1.0083e+06 73.6842 0 -1.00825e+06 75.6182 0 -1.00821e+06 77.5517 0 -1.00816e+06 79.4848 0 -1.00812e+06 81.4175 0 -1.00807e+06 83.3498 0 -1.00802e+06 85.2816 0 -1.00797e+06 87.213 0 -1.00792e+06 89.1439 0 -1.00786e+06 91.0744 0 -1.00781e+06 93.0043 0 -1.00775e+06 94.9338 0 -1.0077e+06 96.8627 0 -1.00764e+06 98.7912 0 -1.00758e+06 100.719 0 -1.00752e+06 102.646 0 -1.00746e+06 104.573 0 -1.0074e+06 106.5 0 -1.00734e+06 108.425 0 -1.00727e+06 110.35 0 -1.00721e+06 112.275 0 -1.00714e+06 114.199 0 -1.00707e+06 116.122 0 -1.007e+06 118.045 0 -1.00693e+06 119.967 0 -1.00686e+06 121.889 0 -1.00679e+06 123.809 0 -1.00672e+06 125.73 0 -1.00664e+06 127.649 0 -1.00657e+06 129.568 0 -1.00649e+06 131.486 0 -1.00641e+06 133.404 0 -1.00634e+06 135.32 0 -1.00626e+06 137.236 0 -1.00617e+06 139.152 0 -1.00609e+06 141.066 0 -1.00601e+06 142.98 0 -1.00592e+06 144.893 0 -1.00584e+06 146.806 0 -1.00575e+06 148.718 0 -1.00566e+06 150.628 0 -1.00557e+06 152.539 0 -1.00548e+06 154.448 0 -1.00539e+06 156.356 0 -1.0053e+06 158.264 0 -1.00521e+06 160.171 0 -1.00511e+06 162.077 0 -1.00502e+06 163.983 0 -1.00492e+06 165.887 0 -1.00482e+06 167.791 0 -1.00472e+06 169.694 0 -1.00462e+06 171.596 0 -1.00452e+06 173.498 0 -1.00442e+06 175.398 0 -1.00432e+06 177.298 0 -1.00421e+06 179.197 0 -1.00411e+06 181.095 0 -1.004e+06 182.992 0 -1.00389e+06 184.888 0 -1.00378e+06 186.784 0 -1.00367e+06 188.679 0 -1.00356e+06 190.572 0 -1.00345e+06 192.466 0 -1.00333e+06 194.358 0 -1.00322e+06 196.25 0 -1.0031e+06 198.14 0 -1.00299e+06 200.03 0 -1.00287e+06 201.92 0 -1.00275e+06 203.808 0 -1.00263e+06 205.696 0 -1.00251e+06 207.583 0 -1.00239e+06 209.469 0 -1.00226e+06 211.355 0 -1.00214e+06 213.24 0 -1.00201e+06 215.124 0 -1.00189e+06 217.008 0 -1.00176e+06 218.891 0 -1.00163e+06 220.774 0 -1.0015e+06 222.656 0 -1.00137e+06 224.538 0 -1.00124e+06 226.419 0 -1.0011e+06 228.299 0 -1.00097e+06 230.18 0 -1.00083e+06 232.06 0 -1.00069e+06 233.939 0 -1.00056e+06 235.819 0 -1.00042e+06 237.698 0 -1.00028e+06 239.577 0 -1.00014e+06 241.456 0 -999994 243.335 0 -1.00913e+06 3.80993e-07 0 -1.00913e+06 3.88306 0 -1.00912e+06 7.76609 0 -1.00912e+06 11.6491 0 -1.00912e+06 15.532 0 -1.00911e+06 19.4149 0 -1.00911e+06 23.2976 0 -1.0091e+06 27.1803 0 -1.00909e+06 31.0627 0 -1.00908e+06 34.9451 0 -1.00907e+06 38.8272 0 -1.00906e+06 42.7091 0 -1.00904e+06 46.5908 0 -1.00903e+06 50.4723 0 -1.00901e+06 54.3535 0 -1.009e+06 58.2344 0 -1.00898e+06 62.1151 0 -1.00896e+06 65.9953 0 -1.00894e+06 69.8753 0 -1.00892e+06 73.7549 0 -1.0089e+06 77.634 0 -1.00887e+06 81.5128 0 -1.00885e+06 85.3912 0 -1.00882e+06 89.2691 0 -1.0088e+06 93.1465 0 -1.00877e+06 97.0234 0 -1.00874e+06 100.9 0 -1.00871e+06 104.776 0 -1.00868e+06 108.651 0 -1.00865e+06 112.526 0 -1.00861e+06 116.4 0 -1.00858e+06 120.274 0 -1.00854e+06 124.147 0 -1.00851e+06 128.019 0 -1.00847e+06 131.89 0 -1.00843e+06 135.761 0 -1.00839e+06 139.632 0 -1.00835e+06 143.501 0 -1.0083e+06 147.37 0 -1.00826e+06 151.238 0 -1.00821e+06 155.105 0 -1.00817e+06 158.971 0 -1.00812e+06 162.836 0 -1.00807e+06 166.701 0 -1.00802e+06 170.565 0 -1.00797e+06 174.427 0 -1.00792e+06 178.289 0 -1.00787e+06 182.15 0 -1.00781e+06 186.01 0 -1.00776e+06 189.869 0 -1.0077e+06 193.727 0 -1.00765e+06 197.584 0 -1.00759e+06 201.44 0 -1.00753e+06 205.295 0 -1.00747e+06 209.148 0 -1.0074e+06 213.001 0 -1.00734e+06 216.852 0 -1.00728e+06 220.703 0 -1.00721e+06 224.552 0 -1.00715e+06 228.4 0 -1.00708e+06 232.246 0 -1.00701e+06 236.092 0 -1.00694e+06 239.936 0 -1.00687e+06 243.779 0 -1.0068e+06 247.621 0 -1.00672e+06 251.461 0 -1.00665e+06 255.3 0 -1.00657e+06 259.138 0 -1.0065e+06 262.974 0 -1.00642e+06 266.809 0 -1.00634e+06 270.643 0 -1.00626e+06 274.475 0 -1.00618e+06 278.306 0 -1.0061e+06 282.135 0 -1.00601e+06 285.963 0 -1.00593e+06 289.789 0 -1.00584e+06 293.614 0 -1.00576e+06 297.437 0 -1.00567e+06 301.259 0 -1.00558e+06 305.079 0 -1.00549e+06 308.898 0 -1.0054e+06 312.715 0 -1.00531e+06 316.531 0 -1.00521e+06 320.345 0 -1.00512e+06 324.157 0 -1.00502e+06 327.968 0 -1.00493e+06 331.777 0 -1.00483e+06 335.585 0 -1.00473e+06 339.391 0 -1.00463e+06 343.195 0 -1.00453e+06 346.997 0 -1.00442e+06 350.798 0 -1.00432e+06 354.598 0 -1.00422e+06 358.395 0 -1.00411e+06 362.192 0 -1.004e+06 365.986 0 -1.0039e+06 369.779 0 -1.00379e+06 373.57 0 -1.00368e+06 377.359 0 -1.00357e+06 381.147 0 -1.00345e+06 384.934 0 -1.00334e+06 388.718 0 -1.00322e+06 392.501 0 -1.00311e+06 396.283 0 -1.00299e+06 400.063 0 -1.00287e+06 403.841 0 -1.00276e+06 407.618 0 -1.00263e+06 411.394 0 -1.00251e+06 415.168 0 -1.00239e+06 418.941 0 -1.00227e+06 422.712 0 -1.00214e+06 426.482 0 -1.00202e+06 430.25 0 -1.00189e+06 434.018 0 -1.00176e+06 437.784 0 -1.00163e+06 441.549 0 -1.0015e+06 445.313 0 -1.00137e+06 449.076 0 -1.00124e+06 452.839 0 -1.00111e+06 456.6 0 -1.00097e+06 460.36 0 -1.00084e+06 464.12 0 -1.0007e+06 467.879 0 -1.00056e+06 471.638 0 -1.00042e+06 475.397 0 -1.00028e+06 479.155 0 -1.00014e+06 482.913 0 -999999 486.671 0 -1.00913e+06 5.71139e-07 0 -1.00913e+06 5.82466 0 -1.00913e+06 11.6493 0 -1.00913e+06 17.4739 0 -1.00913e+06 23.2983 0 -1.00912e+06 29.1227 0 -1.00911e+06 34.9469 0 -1.00911e+06 40.7709 0 -1.0091e+06 46.5947 0 -1.00909e+06 52.4183 0 -1.00908e+06 58.2415 0 -1.00907e+06 64.0645 0 -1.00905e+06 69.8872 0 -1.00904e+06 75.7094 0 -1.00902e+06 81.5313 0 -1.00901e+06 87.3528 0 -1.00899e+06 93.1738 0 -1.00897e+06 98.9943 0 -1.00895e+06 104.814 0 -1.00893e+06 110.634 0 -1.00891e+06 116.453 0 -1.00888e+06 122.271 0 -1.00886e+06 128.088 0 -1.00883e+06 133.905 0 -1.00881e+06 139.722 0 -1.00878e+06 145.537 0 -1.00875e+06 151.352 0 -1.00872e+06 157.166 0 -1.00869e+06 162.979 0 -1.00866e+06 168.791 0 -1.00862e+06 174.602 0 -1.00859e+06 180.413 0 -1.00855e+06 186.222 0 -1.00851e+06 192.031 0 -1.00848e+06 197.838 0 -1.00844e+06 203.645 0 -1.0084e+06 209.45 0 -1.00835e+06 215.254 0 -1.00831e+06 221.057 0 -1.00827e+06 226.859 0 -1.00822e+06 232.66 0 -1.00818e+06 238.459 0 -1.00813e+06 244.258 0 -1.00808e+06 250.055 0 -1.00803e+06 255.85 0 -1.00798e+06 261.644 0 -1.00793e+06 267.437 0 -1.00788e+06 273.229 0 -1.00782e+06 279.019 0 -1.00777e+06 284.807 0 -1.00771e+06 290.594 0 -1.00765e+06 296.38 0 -1.0076e+06 302.163 0 -1.00754e+06 307.946 0 -1.00747e+06 313.726 0 -1.00741e+06 319.505 0 -1.00735e+06 325.283 0 -1.00729e+06 331.058 0 -1.00722e+06 336.832 0 -1.00715e+06 342.604 0 -1.00709e+06 348.374 0 -1.00702e+06 354.142 0 -1.00695e+06 359.909 0 -1.00688e+06 365.673 0 -1.0068e+06 371.436 0 -1.00673e+06 377.197 0 -1.00666e+06 382.955 0 -1.00658e+06 388.712 0 -1.0065e+06 394.466 0 -1.00643e+06 400.219 0 -1.00635e+06 405.969 0 -1.00627e+06 411.718 0 -1.00619e+06 417.464 0 -1.0061e+06 423.208 0 -1.00602e+06 428.95 0 -1.00594e+06 434.689 0 -1.00585e+06 440.426 0 -1.00576e+06 446.161 0 -1.00568e+06 451.894 0 -1.00559e+06 457.625 0 -1.0055e+06 463.353 0 -1.00541e+06 469.079 0 -1.00531e+06 474.802 0 -1.00522e+06 480.523 0 -1.00513e+06 486.242 0 -1.00503e+06 491.958 0 -1.00493e+06 497.671 0 -1.00484e+06 503.383 0 -1.00474e+06 509.092 0 -1.00464e+06 514.798 0 -1.00454e+06 520.502 0 -1.00443e+06 526.204 0 -1.00433e+06 531.903 0 -1.00422e+06 537.599 0 -1.00412e+06 543.293 0 -1.00401e+06 548.985 0 -1.0039e+06 554.674 0 -1.00379e+06 560.361 0 -1.00368e+06 566.045 0 -1.00357e+06 571.727 0 -1.00346e+06 577.406 0 -1.00335e+06 583.083 0 -1.00323e+06 588.758 0 -1.00312e+06 594.43 0 -1.003e+06 600.1 0 -1.00288e+06 605.767 0 -1.00276e+06 611.433 0 -1.00264e+06 617.096 0 -1.00252e+06 622.757 0 -1.0024e+06 628.416 0 -1.00228e+06 634.073 0 -1.00215e+06 639.727 0 -1.00203e+06 645.38 0 -1.0019e+06 651.031 0 -1.00177e+06 656.68 0 -1.00164e+06 662.328 0 -1.00151e+06 667.974 0 -1.00138e+06 673.618 0 -1.00125e+06 679.261 0 -1.00111e+06 684.903 0 -1.00098e+06 690.543 0 -1.00084e+06 696.182 0 -1.00071e+06 701.821 0 -1.00057e+06 707.459 0 -1.00043e+06 713.096 0 -1.00029e+06 718.732 0 -1.00015e+06 724.369 0 -1.00001e+06 730.005 0 -1.00915e+06 7.62337e-07 0 -1.00915e+06 7.76635 0 -1.00914e+06 15.5327 0 -1.00914e+06 23.2989 0 -1.00914e+06 31.065 0 -1.00913e+06 38.8309 0 -1.00913e+06 46.5967 0 -1.00912e+06 54.3622 0 -1.00911e+06 62.1274 0 -1.0091e+06 69.8922 0 -1.00909e+06 77.6568 0 -1.00908e+06 85.4209 0 -1.00906e+06 93.1845 0 -1.00905e+06 100.948 0 -1.00903e+06 108.71 0 -1.00902e+06 116.472 0 -1.009e+06 124.234 0 -1.00898e+06 131.995 0 -1.00896e+06 139.755 0 -1.00894e+06 147.514 0 -1.00892e+06 155.273 0 -1.00889e+06 163.031 0 -1.00887e+06 170.788 0 -1.00884e+06 178.544 0 -1.00882e+06 186.299 0 -1.00879e+06 194.053 0 -1.00876e+06 201.806 0 -1.00873e+06 209.558 0 -1.0087e+06 217.309 0 -1.00867e+06 225.059 0 -1.00863e+06 232.807 0 -1.0086e+06 240.555 0 -1.00856e+06 248.301 0 -1.00853e+06 256.046 0 -1.00849e+06 263.789 0 -1.00845e+06 271.531 0 -1.00841e+06 279.272 0 -1.00837e+06 287.011 0 -1.00832e+06 294.748 0 -1.00828e+06 302.484 0 -1.00823e+06 310.219 0 -1.00819e+06 317.952 0 -1.00814e+06 325.683 0 -1.00809e+06 333.412 0 -1.00804e+06 341.14 0 -1.00799e+06 348.865 0 -1.00794e+06 356.589 0 -1.00789e+06 364.311 0 -1.00783e+06 372.032 0 -1.00778e+06 379.75 0 -1.00772e+06 387.466 0 -1.00767e+06 395.18 0 -1.00761e+06 402.892 0 -1.00755e+06 410.602 0 -1.00749e+06 418.309 0 -1.00742e+06 426.015 0 -1.00736e+06 433.718 0 -1.0073e+06 441.419 0 -1.00723e+06 449.117 0 -1.00717e+06 456.813 0 -1.0071e+06 464.507 0 -1.00703e+06 472.198 0 -1.00696e+06 479.887 0 -1.00689e+06 487.573 0 -1.00682e+06 495.257 0 -1.00674e+06 502.938 0 -1.00667e+06 510.616 0 -1.00659e+06 518.292 0 -1.00652e+06 525.965 0 -1.00644e+06 533.635 0 -1.00636e+06 541.302 0 -1.00628e+06 548.967 0 -1.0062e+06 556.628 0 -1.00612e+06 564.287 0 -1.00603e+06 571.943 0 -1.00595e+06 579.596 0 -1.00586e+06 587.245 0 -1.00578e+06 594.892 0 -1.00569e+06 602.536 0 -1.0056e+06 610.177 0 -1.00551e+06 617.814 0 -1.00542e+06 625.449 0 -1.00533e+06 633.08 0 -1.00523e+06 640.708 0 -1.00514e+06 648.333 0 -1.00504e+06 655.955 0 -1.00494e+06 663.573 0 -1.00485e+06 671.188 0 -1.00475e+06 678.8 0 -1.00465e+06 686.409 0 -1.00455e+06 694.014 0 -1.00444e+06 701.616 0 -1.00434e+06 709.215 0 -1.00424e+06 716.81 0 -1.00413e+06 724.402 0 -1.00402e+06 731.991 0 -1.00392e+06 739.576 0 -1.00381e+06 747.159 0 -1.0037e+06 754.738 0 -1.00358e+06 762.313 0 -1.00347e+06 769.886 0 -1.00336e+06 777.455 0 -1.00324e+06 785.021 0 -1.00313e+06 792.584 0 -1.00301e+06 800.143 0 -1.00289e+06 807.7 0 -1.00277e+06 815.254 0 -1.00265e+06 822.804 0 -1.00253e+06 830.352 0 -1.00241e+06 837.897 0 -1.00229e+06 845.439 0 -1.00216e+06 852.979 0 -1.00204e+06 860.515 0 -1.00191e+06 868.05 0 -1.00178e+06 875.582 0 -1.00165e+06 883.111 0 -1.00152e+06 890.638 0 -1.00139e+06 898.164 0 -1.00126e+06 905.687 0 -1.00113e+06 913.209 0 -1.00099e+06 920.729 0 -1.00086e+06 928.247 0 -1.00072e+06 935.765 0 -1.00058e+06 943.281 0 -1.00044e+06 950.796 0 -1.0003e+06 958.311 0 -1.00016e+06 965.825 0 -1.00002e+06 973.34 0 -1.00916e+06 9.54627e-07 0 -1.00916e+06 9.70816 0 -1.00916e+06 19.4163 0 -1.00916e+06 29.1243 0 -1.00915e+06 38.8321 0 -1.00915e+06 48.5398 0 -1.00914e+06 58.2472 0 -1.00913e+06 67.9542 0 -1.00912e+06 77.661 0 -1.00911e+06 87.3673 0 -1.0091e+06 97.0732 0 -1.00909e+06 106.779 0 -1.00908e+06 116.483 0 -1.00906e+06 126.188 0 -1.00905e+06 135.891 0 -1.00903e+06 145.594 0 -1.00901e+06 155.296 0 -1.009e+06 164.997 0 -1.00898e+06 174.698 0 -1.00896e+06 184.397 0 -1.00893e+06 194.095 0 -1.00891e+06 203.793 0 -1.00889e+06 213.489 0 -1.00886e+06 223.185 0 -1.00883e+06 232.879 0 -1.0088e+06 242.572 0 -1.00878e+06 252.263 0 -1.00875e+06 261.953 0 -1.00871e+06 271.642 0 -1.00868e+06 281.33 0 -1.00865e+06 291.016 0 -1.00861e+06 300.7 0 -1.00858e+06 310.383 0 -1.00854e+06 320.064 0 -1.0085e+06 329.744 0 -1.00846e+06 339.422 0 -1.00842e+06 349.098 0 -1.00838e+06 358.772 0 -1.00834e+06 368.444 0 -1.00829e+06 378.114 0 -1.00825e+06 387.782 0 -1.0082e+06 397.449 0 -1.00816e+06 407.113 0 -1.00811e+06 416.775 0 -1.00806e+06 426.434 0 -1.00801e+06 436.092 0 -1.00796e+06 445.747 0 -1.0079e+06 455.4 0 -1.00785e+06 465.05 0 -1.00779e+06 474.698 0 -1.00774e+06 484.344 0 -1.00768e+06 493.986 0 -1.00762e+06 503.627 0 -1.00756e+06 513.264 0 -1.0075e+06 522.899 0 -1.00744e+06 532.531 0 -1.00738e+06 542.16 0 -1.00731e+06 551.786 0 -1.00725e+06 561.41 0 -1.00718e+06 571.03 0 -1.00711e+06 580.647 0 -1.00704e+06 590.261 0 -1.00697e+06 599.873 0 -1.0069e+06 609.48 0 -1.00683e+06 619.085 0 -1.00676e+06 628.687 0 -1.00668e+06 638.285 0 -1.00661e+06 647.879 0 -1.00653e+06 657.471 0 -1.00645e+06 667.059 0 -1.00637e+06 676.643 0 -1.00629e+06 686.224 0 -1.00621e+06 695.801 0 -1.00613e+06 705.375 0 -1.00605e+06 714.945 0 -1.00596e+06 724.511 0 -1.00588e+06 734.073 0 -1.00579e+06 743.632 0 -1.0057e+06 753.187 0 -1.00561e+06 762.738 0 -1.00552e+06 772.285 0 -1.00543e+06 781.828 0 -1.00534e+06 791.367 0 -1.00525e+06 800.902 0 -1.00515e+06 810.434 0 -1.00506e+06 819.961 0 -1.00496e+06 829.484 0 -1.00486e+06 839.003 0 -1.00476e+06 848.518 0 -1.00466e+06 858.029 0 -1.00456e+06 867.535 0 -1.00446e+06 877.038 0 -1.00436e+06 886.536 0 -1.00425e+06 896.031 0 -1.00414e+06 905.521 0 -1.00404e+06 915.007 0 -1.00393e+06 924.488 0 -1.00382e+06 933.966 0 -1.00371e+06 943.44 0 -1.0036e+06 952.909 0 -1.00349e+06 962.375 0 -1.00337e+06 971.836 0 -1.00326e+06 981.293 0 -1.00314e+06 990.747 0 -1.00303e+06 1000.2 0 -1.00291e+06 1009.64 0 -1.00279e+06 1019.08 0 -1.00267e+06 1028.52 0 -1.00255e+06 1037.96 0 -1.00243e+06 1047.39 0 -1.0023e+06 1056.81 0 -1.00218e+06 1066.24 0 -1.00205e+06 1075.66 0 -1.00192e+06 1085.08 0 -1.0018e+06 1094.49 0 -1.00167e+06 1103.9 0 -1.00154e+06 1113.31 0 -1.00141e+06 1122.72 0 -1.00127e+06 1132.12 0 -1.00114e+06 1141.52 0 -1.00101e+06 1150.92 0 -1.00087e+06 1160.32 0 -1.00073e+06 1169.71 0 -1.0006e+06 1179.11 0 -1.00046e+06 1188.5 0 -1.00032e+06 1197.89 0 -1.00018e+06 1207.28 0 -1.00003e+06 1216.67 0 -1.00918e+06 1.14525e-06 0 -1.00918e+06 11.6501 0 -1.00918e+06 23.3002 0 -1.00917e+06 34.9501 0 -1.00917e+06 46.5998 0 -1.00916e+06 58.2493 0 -1.00916e+06 69.8985 0 -1.00915e+06 81.5474 0 -1.00914e+06 93.1958 0 -1.00913e+06 104.844 0 -1.00912e+06 116.491 0 -1.00911e+06 128.138 0 -1.0091e+06 139.784 0 -1.00908e+06 151.429 0 -1.00907e+06 163.074 0 -1.00905e+06 174.718 0 -1.00903e+06 186.36 0 -1.00901e+06 198.002 0 -1.00899e+06 209.643 0 -1.00897e+06 221.283 0 -1.00895e+06 232.921 0 -1.00893e+06 244.558 0 -1.0089e+06 256.194 0 -1.00888e+06 267.829 0 -1.00885e+06 279.462 0 -1.00882e+06 291.094 0 -1.00879e+06 302.724 0 -1.00876e+06 314.353 0 -1.00873e+06 325.98 0 -1.0087e+06 337.605 0 -1.00867e+06 349.229 0 -1.00863e+06 360.85 0 -1.0086e+06 372.47 0 -1.00856e+06 384.088 0 -1.00852e+06 395.704 0 -1.00848e+06 407.317 0 -1.00844e+06 418.929 0 -1.0084e+06 430.538 0 -1.00836e+06 442.145 0 -1.00831e+06 453.75 0 -1.00827e+06 465.352 0 -1.00822e+06 476.952 0 -1.00817e+06 488.549 0 -1.00813e+06 500.144 0 -1.00808e+06 511.736 0 -1.00803e+06 523.325 0 -1.00797e+06 534.912 0 -1.00792e+06 546.495 0 -1.00787e+06 558.076 0 -1.00781e+06 569.654 0 -1.00776e+06 581.229 0 -1.0077e+06 592.8 0 -1.00764e+06 604.369 0 -1.00758e+06 615.934 0 -1.00752e+06 627.496 0 -1.00746e+06 639.055 0 -1.00739e+06 650.61 0 -1.00733e+06 662.162 0 -1.00726e+06 673.71 0 -1.0072e+06 685.255 0 -1.00713e+06 696.796 0 -1.00706e+06 708.334 0 -1.00699e+06 719.867 0 -1.00692e+06 731.397 0 -1.00685e+06 742.923 0 -1.00678e+06 754.445 0 -1.0067e+06 765.963 0 -1.00663e+06 777.477 0 -1.00655e+06 788.987 0 -1.00647e+06 800.493 0 -1.00639e+06 811.994 0 -1.00631e+06 823.492 0 -1.00623e+06 834.984 0 -1.00615e+06 846.473 0 -1.00607e+06 857.957 0 -1.00598e+06 869.437 0 -1.0059e+06 880.912 0 -1.00581e+06 892.383 0 -1.00572e+06 903.849 0 -1.00563e+06 915.31 0 -1.00554e+06 926.767 0 -1.00545e+06 938.219 0 -1.00536e+06 949.666 0 -1.00526e+06 961.109 0 -1.00517e+06 972.546 0 -1.00507e+06 983.979 0 -1.00498e+06 995.407 0 -1.00488e+06 1006.83 0 -1.00478e+06 1018.25 0 -1.00468e+06 1029.66 0 -1.00458e+06 1041.07 0 -1.00448e+06 1052.47 0 -1.00437e+06 1063.87 0 -1.00427e+06 1075.26 0 -1.00416e+06 1086.65 0 -1.00406e+06 1098.03 0 -1.00395e+06 1109.41 0 -1.00384e+06 1120.79 0 -1.00373e+06 1132.15 0 -1.00362e+06 1143.52 0 -1.0035e+06 1154.88 0 -1.00339e+06 1166.23 0 -1.00328e+06 1177.58 0 -1.00316e+06 1188.92 0 -1.00304e+06 1200.26 0 -1.00293e+06 1211.59 0 -1.00281e+06 1222.92 0 -1.00269e+06 1234.25 0 -1.00257e+06 1245.57 0 -1.00244e+06 1256.89 0 -1.00232e+06 1268.2 0 -1.00219e+06 1279.51 0 -1.00207e+06 1290.81 0 -1.00194e+06 1302.11 0 -1.00181e+06 1313.41 0 -1.00168e+06 1324.7 0 -1.00155e+06 1335.99 0 -1.00142e+06 1347.27 0 -1.00129e+06 1358.56 0 -1.00116e+06 1369.84 0 -1.00102e+06 1381.11 0 -1.00089e+06 1392.39 0 -1.00075e+06 1403.66 0 -1.00061e+06 1414.93 0 -1.00047e+06 1426.2 0 -1.00033e+06 1437.47 0 -1.00019e+06 1448.74 0 -1.00005e+06 1460.01 0 -1.0092e+06 1.33609e-06 0 -1.0092e+06 13.5922 0 -1.0092e+06 27.1844 0 -1.0092e+06 40.7764 0 -1.00919e+06 54.3683 0 -1.00919e+06 67.9598 0 -1.00918e+06 81.551 0 -1.00917e+06 95.1417 0 -1.00916e+06 108.732 0 -1.00915e+06 122.322 0 -1.00914e+06 135.911 0 -1.00913e+06 149.499 0 -1.00912e+06 163.087 0 -1.0091e+06 176.673 0 -1.00909e+06 190.259 0 -1.00907e+06 203.844 0 -1.00905e+06 217.428 0 -1.00904e+06 231.01 0 -1.00902e+06 244.591 0 -1.00899e+06 258.171 0 -1.00897e+06 271.75 0 -1.00895e+06 285.327 0 -1.00892e+06 298.903 0 -1.0089e+06 312.478 0 -1.00887e+06 326.05 0 -1.00884e+06 339.621 0 -1.00882e+06 353.19 0 -1.00879e+06 366.757 0 -1.00875e+06 380.323 0 -1.00872e+06 393.886 0 -1.00869e+06 407.447 0 -1.00865e+06 421.006 0 -1.00862e+06 434.563 0 -1.00858e+06 448.117 0 -1.00854e+06 461.67 0 -1.0085e+06 475.219 0 -1.00846e+06 488.767 0 -1.00842e+06 502.311 0 -1.00838e+06 515.853 0 -1.00833e+06 529.392 0 -1.00829e+06 542.929 0 -1.00824e+06 556.462 0 -1.0082e+06 569.993 0 -1.00815e+06 583.521 0 -1.0081e+06 597.045 0 -1.00805e+06 610.566 0 -1.008e+06 624.084 0 -1.00794e+06 637.599 0 -1.00789e+06 651.111 0 -1.00783e+06 664.618 0 -1.00778e+06 678.123 0 -1.00772e+06 691.624 0 -1.00766e+06 705.121 0 -1.0076e+06 718.614 0 -1.00754e+06 732.103 0 -1.00748e+06 745.589 0 -1.00742e+06 759.071 0 -1.00735e+06 772.548 0 -1.00729e+06 786.022 0 -1.00722e+06 799.491 0 -1.00715e+06 812.956 0 -1.00708e+06 826.417 0 -1.00701e+06 839.873 0 -1.00694e+06 853.325 0 -1.00687e+06 866.772 0 -1.0068e+06 880.215 0 -1.00672e+06 893.653 0 -1.00665e+06 907.087 0 -1.00657e+06 920.515 0 -1.00649e+06 933.939 0 -1.00641e+06 947.358 0 -1.00633e+06 960.772 0 -1.00625e+06 974.181 0 -1.00617e+06 987.584 0 -1.00609e+06 1000.98 0 -1.006e+06 1014.38 0 -1.00592e+06 1027.76 0 -1.00583e+06 1041.15 0 -1.00574e+06 1054.52 0 -1.00565e+06 1067.9 0 -1.00556e+06 1081.26 0 -1.00547e+06 1094.62 0 -1.00538e+06 1107.98 0 -1.00529e+06 1121.33 0 -1.00519e+06 1134.67 0 -1.0051e+06 1148.01 0 -1.005e+06 1161.34 0 -1.0049e+06 1174.67 0 -1.0048e+06 1187.99 0 -1.0047e+06 1201.31 0 -1.0046e+06 1214.62 0 -1.0045e+06 1227.92 0 -1.00439e+06 1241.22 0 -1.00429e+06 1254.51 0 -1.00418e+06 1267.8 0 -1.00408e+06 1281.08 0 -1.00397e+06 1294.35 0 -1.00386e+06 1307.62 0 -1.00375e+06 1320.88 0 -1.00364e+06 1334.14 0 -1.00353e+06 1347.39 0 -1.00341e+06 1360.64 0 -1.0033e+06 1373.87 0 -1.00318e+06 1387.11 0 -1.00306e+06 1400.34 0 -1.00295e+06 1413.56 0 -1.00283e+06 1426.78 0 -1.00271e+06 1439.99 0 -1.00259e+06 1453.2 0 -1.00246e+06 1466.4 0 -1.00234e+06 1479.59 0 -1.00222e+06 1492.79 0 -1.00209e+06 1505.97 0 -1.00196e+06 1519.15 0 -1.00183e+06 1532.33 0 -1.00171e+06 1545.51 0 -1.00158e+06 1558.68 0 -1.00144e+06 1571.84 0 -1.00131e+06 1585 0 -1.00118e+06 1598.16 0 -1.00104e+06 1611.32 0 -1.00091e+06 1624.47 0 -1.00077e+06 1637.62 0 -1.00063e+06 1650.77 0 -1.00049e+06 1663.91 0 -1.00035e+06 1677.06 0 -1.00021e+06 1690.2 0 -1.00007e+06 1703.34 0 -1.00923e+06 1.52535e-06 0 -1.00922e+06 15.5346 0 -1.00922e+06 31.0691 0 -1.00922e+06 46.6034 0 -1.00922e+06 62.1375 0 -1.00921e+06 77.6713 0 -1.0092e+06 93.2046 0 -1.0092e+06 108.738 0 -1.00919e+06 124.27 0 -1.00918e+06 139.801 0 -1.00917e+06 155.332 0 -1.00916e+06 170.863 0 -1.00914e+06 186.392 0 -1.00913e+06 201.92 0 -1.00911e+06 217.447 0 -1.0091e+06 232.973 0 -1.00908e+06 248.498 0 -1.00906e+06 264.022 0 -1.00904e+06 279.544 0 -1.00902e+06 295.064 0 -1.009e+06 310.584 0 -1.00897e+06 326.101 0 -1.00895e+06 341.617 0 -1.00892e+06 357.131 0 -1.0089e+06 372.643 0 -1.00887e+06 388.153 0 -1.00884e+06 403.661 0 -1.00881e+06 419.167 0 -1.00878e+06 434.671 0 -1.00875e+06 450.172 0 -1.00871e+06 465.672 0 -1.00868e+06 481.168 0 -1.00864e+06 496.662 0 -1.0086e+06 512.154 0 -1.00857e+06 527.643 0 -1.00853e+06 543.129 0 -1.00849e+06 558.612 0 -1.00845e+06 574.092 0 -1.0084e+06 589.569 0 -1.00836e+06 605.043 0 -1.00831e+06 620.514 0 -1.00827e+06 635.982 0 -1.00822e+06 651.446 0 -1.00817e+06 666.906 0 -1.00812e+06 682.364 0 -1.00807e+06 697.817 0 -1.00802e+06 713.267 0 -1.00797e+06 728.713 0 -1.00791e+06 744.155 0 -1.00786e+06 759.593 0 -1.0078e+06 775.027 0 -1.00774e+06 790.457 0 -1.00769e+06 805.883 0 -1.00763e+06 821.305 0 -1.00757e+06 836.722 0 -1.0075e+06 852.135 0 -1.00744e+06 867.543 0 -1.00738e+06 882.946 0 -1.00731e+06 898.345 0 -1.00724e+06 913.739 0 -1.00718e+06 929.129 0 -1.00711e+06 944.513 0 -1.00704e+06 959.892 0 -1.00697e+06 975.266 0 -1.00689e+06 990.635 0 -1.00682e+06 1006 0 -1.00675e+06 1021.36 0 -1.00667e+06 1036.71 0 -1.00659e+06 1052.06 0 -1.00652e+06 1067.4 0 -1.00644e+06 1082.74 0 -1.00636e+06 1098.07 0 -1.00628e+06 1113.39 0 -1.00619e+06 1128.71 0 -1.00611e+06 1144.02 0 -1.00603e+06 1159.33 0 -1.00594e+06 1174.63 0 -1.00585e+06 1189.93 0 -1.00577e+06 1205.22 0 -1.00568e+06 1220.5 0 -1.00559e+06 1235.77 0 -1.0055e+06 1251.04 0 -1.0054e+06 1266.31 0 -1.00531e+06 1281.57 0 -1.00522e+06 1296.82 0 -1.00512e+06 1312.06 0 -1.00502e+06 1327.3 0 -1.00492e+06 1342.53 0 -1.00483e+06 1357.75 0 -1.00473e+06 1372.97 0 -1.00462e+06 1388.18 0 -1.00452e+06 1403.39 0 -1.00442e+06 1418.58 0 -1.00431e+06 1433.77 0 -1.00421e+06 1448.96 0 -1.0041e+06 1464.14 0 -1.00399e+06 1479.31 0 -1.00388e+06 1494.47 0 -1.00377e+06 1509.63 0 -1.00366e+06 1524.78 0 -1.00355e+06 1539.92 0 -1.00344e+06 1555.06 0 -1.00332e+06 1570.19 0 -1.00321e+06 1585.31 0 -1.00309e+06 1600.43 0 -1.00297e+06 1615.54 0 -1.00285e+06 1630.65 0 -1.00273e+06 1645.75 0 -1.00261e+06 1660.84 0 -1.00249e+06 1675.92 0 -1.00236e+06 1691.01 0 -1.00224e+06 1706.08 0 -1.00211e+06 1721.15 0 -1.00199e+06 1736.21 0 -1.00186e+06 1751.27 0 -1.00173e+06 1766.33 0 -1.0016e+06 1781.37 0 -1.00147e+06 1796.42 0 -1.00134e+06 1811.46 0 -1.0012e+06 1826.49 0 -1.00107e+06 1841.53 0 -1.00093e+06 1856.56 0 -1.0008e+06 1871.58 0 -1.00066e+06 1886.6 0 -1.00052e+06 1901.62 0 -1.00038e+06 1916.64 0 -1.00024e+06 1931.66 0 -1.0001e+06 1946.68 0 -1.00925e+06 1.71489e-06 0 -1.00925e+06 17.4772 0 -1.00925e+06 34.9542 0 -1.00925e+06 52.4311 0 -1.00924e+06 69.9077 0 -1.00924e+06 87.3839 0 -1.00923e+06 104.86 0 -1.00923e+06 122.335 0 -1.00922e+06 139.81 0 -1.00921e+06 157.283 0 -1.0092e+06 174.756 0 -1.00918e+06 192.229 0 -1.00917e+06 209.7 0 -1.00916e+06 227.17 0 -1.00914e+06 244.639 0 -1.00913e+06 262.106 0 -1.00911e+06 279.572 0 -1.00909e+06 297.037 0 -1.00907e+06 314.5 0 -1.00905e+06 331.962 0 -1.00903e+06 349.422 0 -1.009e+06 366.879 0 -1.00898e+06 384.335 0 -1.00895e+06 401.789 0 -1.00893e+06 419.241 0 -1.0089e+06 436.691 0 -1.00887e+06 454.138 0 -1.00884e+06 471.583 0 -1.00881e+06 489.026 0 -1.00877e+06 506.466 0 -1.00874e+06 523.903 0 -1.00871e+06 541.338 0 -1.00867e+06 558.769 0 -1.00863e+06 576.198 0 -1.00859e+06 593.624 0 -1.00856e+06 611.046 0 -1.00851e+06 628.466 0 -1.00847e+06 645.882 0 -1.00843e+06 663.294 0 -1.00839e+06 680.703 0 -1.00834e+06 698.109 0 -1.0083e+06 715.51 0 -1.00825e+06 732.908 0 -1.0082e+06 750.302 0 -1.00815e+06 767.692 0 -1.0081e+06 785.078 0 -1.00805e+06 802.46 0 -1.008e+06 819.838 0 -1.00794e+06 837.211 0 -1.00789e+06 854.58 0 -1.00783e+06 871.944 0 -1.00777e+06 889.304 0 -1.00771e+06 906.658 0 -1.00765e+06 924.008 0 -1.00759e+06 941.353 0 -1.00753e+06 958.693 0 -1.00747e+06 976.028 0 -1.0074e+06 993.358 0 -1.00734e+06 1010.68 0 -1.00727e+06 1028 0 -1.0072e+06 1045.32 0 -1.00714e+06 1062.62 0 -1.00707e+06 1079.93 0 -1.00699e+06 1097.22 0 -1.00692e+06 1114.51 0 -1.00685e+06 1131.8 0 -1.00677e+06 1149.08 0 -1.0067e+06 1166.35 0 -1.00662e+06 1183.62 0 -1.00654e+06 1200.88 0 -1.00647e+06 1218.13 0 -1.00639e+06 1235.38 0 -1.0063e+06 1252.62 0 -1.00622e+06 1269.85 0 -1.00614e+06 1287.08 0 -1.00605e+06 1304.3 0 -1.00597e+06 1321.52 0 -1.00588e+06 1338.72 0 -1.00579e+06 1355.92 0 -1.0057e+06 1373.12 0 -1.00561e+06 1390.3 0 -1.00552e+06 1407.48 0 -1.00543e+06 1424.66 0 -1.00534e+06 1441.82 0 -1.00524e+06 1458.98 0 -1.00515e+06 1476.13 0 -1.00505e+06 1493.27 0 -1.00495e+06 1510.41 0 -1.00485e+06 1527.53 0 -1.00475e+06 1544.65 0 -1.00465e+06 1561.77 0 -1.00455e+06 1578.87 0 -1.00445e+06 1595.97 0 -1.00434e+06 1613.06 0 -1.00424e+06 1630.14 0 -1.00413e+06 1647.21 0 -1.00402e+06 1664.28 0 -1.00391e+06 1681.34 0 -1.0038e+06 1698.39 0 -1.00369e+06 1715.44 0 -1.00358e+06 1732.47 0 -1.00346e+06 1749.5 0 -1.00335e+06 1766.52 0 -1.00323e+06 1783.54 0 -1.00312e+06 1800.54 0 -1.003e+06 1817.54 0 -1.00288e+06 1834.53 0 -1.00276e+06 1851.52 0 -1.00264e+06 1868.5 0 -1.00252e+06 1885.47 0 -1.00239e+06 1902.43 0 -1.00227e+06 1919.39 0 -1.00214e+06 1936.34 0 -1.00201e+06 1953.29 0 -1.00189e+06 1970.23 0 -1.00176e+06 1987.16 0 -1.00163e+06 2004.09 0 -1.0015e+06 2021.01 0 -1.00136e+06 2037.93 0 -1.00123e+06 2054.84 0 -1.0011e+06 2071.75 0 -1.00096e+06 2088.65 0 -1.00082e+06 2105.55 0 -1.00068e+06 2122.45 0 -1.00055e+06 2139.34 0 -1.00041e+06 2156.23 0 -1.00026e+06 2173.12 0 -1.00012e+06 2190.01 0 -1.00928e+06 1.90288e-06 0 -1.00928e+06 19.42 0 -1.00928e+06 38.8399 0 -1.00928e+06 58.2596 0 -1.00928e+06 77.679 0 -1.00927e+06 97.0979 0 -1.00926e+06 116.516 0 -1.00926e+06 135.934 0 -1.00925e+06 155.351 0 -1.00924e+06 174.768 0 -1.00923e+06 194.183 0 -1.00922e+06 213.598 0 -1.0092e+06 233.011 0 -1.00919e+06 252.423 0 -1.00917e+06 271.834 0 -1.00916e+06 291.243 0 -1.00914e+06 310.651 0 -1.00912e+06 330.057 0 -1.0091e+06 349.462 0 -1.00908e+06 368.864 0 -1.00906e+06 388.265 0 -1.00903e+06 407.664 0 -1.00901e+06 427.06 0 -1.00898e+06 446.454 0 -1.00896e+06 465.846 0 -1.00893e+06 485.236 0 -1.0089e+06 504.623 0 -1.00887e+06 524.007 0 -1.00884e+06 543.389 0 -1.00881e+06 562.767 0 -1.00877e+06 582.143 0 -1.00874e+06 601.516 0 -1.0087e+06 620.885 0 -1.00866e+06 640.251 0 -1.00863e+06 659.614 0 -1.00859e+06 678.973 0 -1.00855e+06 698.329 0 -1.0085e+06 717.681 0 -1.00846e+06 737.029 0 -1.00842e+06 756.374 0 -1.00837e+06 775.714 0 -1.00833e+06 795.05 0 -1.00828e+06 814.382 0 -1.00823e+06 833.71 0 -1.00818e+06 853.033 0 -1.00813e+06 872.352 0 -1.00808e+06 891.666 0 -1.00803e+06 910.975 0 -1.00797e+06 930.28 0 -1.00792e+06 949.58 0 -1.00786e+06 968.874 0 -1.0078e+06 988.163 0 -1.00774e+06 1007.45 0 -1.00769e+06 1026.73 0 -1.00762e+06 1046 0 -1.00756e+06 1065.27 0 -1.0075e+06 1084.53 0 -1.00743e+06 1103.79 0 -1.00737e+06 1123.04 0 -1.0073e+0