<?xml version="1.0"?> 
<VTKFile type="StructuredGrid" version="0.1"> 
<StructuredGrid WholeExtent="0 127 0 127 0 0"> 
<Piece Extent="0 127 0 127 0 0"> 
<PointData>
<DataArray type="Float32" Name="E" format="ascii" NumberOfComponents="3"> 
-954742 -0.0170712 0 -954732 615.836 0 -954703 1232.58 0 -954655 1851.15 0 -954587 2472.45 0 -954500 3097.39 0 -954393 3726.87 0 -954266 4361.82 0 -954119 5003.13 0 -953951 5651.73 0 -953763 6308.52 0 -953554 6974.42 0 -953323 7650.35 0 -953070 8337.21 0 -952795 9035.92 0 -952497 9747.4 0 -952175 10472.6 0 -951829 11212.3 0 -951458 11967.6 0 -951062 12739.3 0 -950640 13528.3 0 -950190 14335.6 0 -949712 15162 0 -949205 16008.4 0 -948669 16875.7 0 -948101 17764.9 0 -947501 18676.6 0 -946868 19611.9 0 -946200 20571.5 0 -945497 21556.2 0 -944756 22567 0 -943976 23604.4 0 -943156 24669.3 0 -942294 25762.3 0 -941388 26884.2 0 -940437 28035.6 0 -939438 29217.1 0 -938390 30429.2 0 -937291 31672.4 0 -936138 32947.1 0 -934929 34253.8 0 -933662 35592.6 0 -932335 36963.9 0 -930944 38367.7 0 -929488 39804 0 -927964 41272.7 0 -926368 42773.8 0 -924699 44306.8 0 -922952 45871.4 0 -921126 47466.9 0 -919216 49092.6 0 -917220 50747.7 0 -915135 52431.1 0 -912957 54141.6 0 -910682 55877.7 0 -908308 57638 0 -905831 59420.5 0 -903247 61223.3 0 -900553 63044.2 0 -897746 64880.7 0 -894822 66730.2 0 -891777 68589.7 0 -888610 70456.1 0 -885315 72326.1 0 -881889 74196 0 -878331 76061.9 0 -874636 77919.9 0 -870803 79765.5 0 -866827 81594.3 0 -862707 83401.5 0 -858440 85182.1 0 -854024 86931 0 -849457 88642.9 0 -844738 90312.3 0 -839864 91933.5 0 -834834 93500.9 0 -829648 95008.4 0 -824305 96450.3 0 -818804 97820.4 0 -813144 99112.7 0 -807326 100321 0 -801351 101439 0 -795217 102462 0 -788926 103382 0 -782479 104194 0 -775876 104892 0 -769119 105469 0 -762208 105921 0 -755145 106242 0 -747931 106425 0 -740567 106466 0 -733055 106358 0 -725395 106097 0 -717589 105676 0 -709636 105092 0 -701538 104337 0 -693295 103407 0 -684906 102296 0 -676372 100999 0 -667690 99508.6 0 -658858 97819.3 0 -649876 95924.1 0 -640738 93815.9 0 -631442 91486.6 0 -621981 88927.5 0 -612350 86128.7 0 -602541 83079.2 0 -592543 79766.3 0 -582347 76175.7 0 -571939 72290.5 0 -561301 68091 0 -550415 63553.9 0 -539258 58651.5 0 -527801 53350.2 0 -516009 47608.9 0 -503841 41376.8 0 -491244 34590.1 0 -478152 27166.4 0 -464477 18999.6 0 -450113 9940.99 0 -434888 -194.102 0 -418646 -11756.4 0 -400893 -24971 0 -381596 -41342.6 0 -358655 -59614.6 0 -332508 -90934.5 0 -294487 -118112 0 -143254 -287299 0 -954994 -0.0171958 0 -954985 621.882 0 -954956 1244.67 0 -954909 1869.31 0 -954843 2496.7 0 -954758 3127.75 0 -954654 3763.39 0 -954530 4404.54 0 -954387 5052.1 0 -954223 5707.01 0 -954040 6370.17 0 -953836 7042.53 0 -953610 7724.99 0 -953364 8418.48 0 -953095 9123.93 0 -952804 9842.27 0 -952490 10574.4 0 -952152 11321.3 0 -951790 12083.9 0 -951403 12863 0 -950991 13659.6 0 -950551 14474.7 0 -950085 15309.1 0 -949590 16163.8 0 -949065 17039.6 0 -948510 17937.5 0 -947924 18858.3 0 -947305 19802.9 0 -946652 20772.2 0 -945963 21767 0 -945238 22788.1 0 -944475 23836.3 0 -943672 24912.4 0 -942828 26017.2 0 -941941 27151.3 0 -941009 28315.4 0 -940030 29510.1 0 -939003 30736.1 0 -937925 31993.8 0 -936794 33283.7 0 -935608 34606.2 0 -934365 35961.7 0 -933061 37350.4 0 -931696 38772.5 0 -930265 40228 0 -928767 41716.9 0 -927198 43239.1 0 -925556 44794.4 0 -923838 46382.2 0 -922040 48002.2 0 -920160 49653.7 0 -918194 51335.8 0 -916139 53047.5 0 -913991 54787.7 0 -911748 56555.1 0 -909405 58348 0 -906960 60164.9 0 -904408 62003.6 0 -901747 63862.1 0 -898973 65738 0 -896081 67628.6 0 -893070 69531 0 -889934 71442.3 0 -886672 73359 0 -883279 75277.6 0 -879753 77194.3 0 -876090 79105 0 -872287 81005.4 0 -868342 82890.9 0 -864251 84757 0 -860013 86598.5 0 -855625 88410.4 0 -851086 90187.3 0 -846392 91923.7 0 -841543 93614 0 -836537 95252.4 0 -831373 96833 0 -826051 98349.7 0 -820569 99796.6 0 -814927 101168 0 -809125 102456 0 -803164 103657 0 -797043 104763 0 -790763 105769 0 -784325 106668 0 -777729 107454 0 -770978 108123 0 -764071 108667 0 -757010 109081 0 -749796 109359 0 -742431 109497 0 -734916 109488 0 -727252 109327 0 -719439 109009 0 -711479 108528 0 -703372 107880 0 -695118 107059 0 -686717 106060 0 -678169 104877 0 -669473 103504 0 -660626 101936 0 -651627 100166 0 -642471 98188.3 0 -633156 95994.5 0 -623675 93577.1 0 -614023 90927 0 -604192 88034.3 0 -594171 84887.7 0 -583951 81474.3 0 -573516 77779 0 -562852 73784.5 0 -551937 69470.2 0 -540748 64811.8 0 -529257 59780.1 0 -517429 54339.6 0 -505219 48446.8 0 -492575 42047.5 0 -479428 35072.8 0 -465689 27435.4 0 -451244 19012.7 0 -435924 9664.2 0 -419534 -894.691 0 -401652 -12810.4 0 -381930 -27125.3 0 -358985 -43306.4 0 -331495 -66417.7 0 -292687 -92748.4 0 -219813 -143551 0 -955250 -0.017323 0 -955240 627.732 0 -955213 1256.38 0 -955167 1886.89 0 -955103 2520.17 0 -955020 3157.14 0 -954918 3798.74 0 -954798 4445.87 0 -954658 5099.48 0 -954499 5760.49 0 -954320 6429.83 0 -954120 7108.43 0 -953901 7797.21 0 -953660 8497.13 0 -953398 9209.1 0 -953114 9934.08 0 -952808 10673 0 -952479 11426.8 0 -952126 12196.4 0 -951748 12982.7 0 -951345 13786.7 0 -950916 14609.4 0 -950461 15451.6 0 -949977 16314.2 0 -949465 17198.3 0 -948923 18104.7 0 -948350 19034.2 0 -947745 19987.9 0 -947107 20966.6 0 -946434 21971.1 0 -945725 23002.3 0 -944978 24061 0 -944193 25148 0 -943367 26264.2 0 -942498 27410.1 0 -941586 28586.6 0 -940627 29794.2 0 -939621 31033.7 0 -938564 32305.6 0 -937456 33610.3 0 -936293 34948.4 0 -935073 36320.1 0 -933794 37725.9 0 -932454 39165.9 0 -931049 40640.2 0 -929577 42148.9 0 -928036 43691.8 0 -926422 45268.9 0 -924732 46879.7 0 -922963 48523.7 0 -921112 50200.5 0 -919177 51909.2 0 -917152 53648.8 0 -915036 55418.4 0 -912825 57216.6 0 -910514 59041.8 0 -908102 60892.6 0 -905583 62766.9 0 -902955 64662.6 0 -900214 66577.5 0 -897356 68508.9 0 -894378 70454 0 -891276 72409.8 0 -888047 74373.1 0 -884687 76340.1 0 -881194 78307.3 0 -877563 80270.5 0 -873792 82225.5 0 -869878 84167.7 0 -865819 86092.5 0 -861611 87994.9 0 -857252 89869.7 0 -852740 91711.7 0 -848074 93515.2 0 -843251 95274.6 0 -838269 96984.2 0 -833129 98637.9 0 -827828 100230 0 -822366 101754 0 -816744 103203 0 -810959 104573 0 -805013 105856 0 -798906 107046 0 -792638 108138 0 -786210 109125 0 -779623 110000 0 -772878 110759 0 -765976 111396 0 -758919 111904 0 -751707 112278 0 -744341 112512 0 -736824 112602 0 -729156 112542 0 -721338 112326 0 -713372 111950 0 -705257 111408 0 -696994 110696 0 -688583 109808 0 -680023 108739 0 -671314 107483 0 -662453 106036 0 -653439 104391 0 -644268 102542 0 -634936 100483 0 -625439 98205.6 0 -615769 95702.5 0 -605919 92964.5 0 -595880 89981.5 0 -585640 86742.2 0 -575186 83233.1 0 -564501 79439.2 0 -553565 75342.4 0 -542355 70921.6 0 -530842 66151.7 0 -518991 61002.4 0 -506758 55436.9 0 -494089 49410 0 -480917 42864.5 0 -467152 35730.2 0 -452680 27909.6 0 -437336 19292.9 0 -420913 9675.6 0 -403041 -1080.2 0 -383293 -13552.6 0 -360566 -27751.4 0 -333554 -45463.6 0 -297481 -66523.8 0 -242477 -90960.8 0 -955508 -0.0174464 0 -955499 633.385 0 -955473 1267.7 0 -955428 1903.88 0 -955365 2542.85 0 -955285 3185.54 0 -955186 3832.89 0 -955068 4485.82 0 -954932 5145.28 0 -954777 5812.18 0 -954602 6487.48 0 -954408 7172.11 0 -954194 7867.02 0 -953960 8573.13 0 -953705 9291.41 0 -953428 10022.8 0 -953130 10768.2 0 -952809 11528.7 0 -952464 12305.1 0 -952096 13098.4 0 -951703 13909.6 0 -951285 14739.5 0 -950841 15589.2 0 -950369 16459.6 0 -949869 17351.7 0 -949340 18266.3 0 -948780 19204.3 0 -948190 20166.8 0 -947566 21154.5 0 -946909 22168.5 0 -946216 23209.5 0 -945486 24278.4 0 -944718 25376 0 -943910 26503.2 0 -943061 27660.7 0 -942168 28849.2 0 -941230 30069.4 0 -940244 31322.1 0 -939209 32607.7 0 -938123 33926.9 0 -936983 35280.1 0 -935788 36667.7 0 -934533 38090.1 0 -933218 39547.6 0 -931840 41040.4 0 -930395 42568.4 0 -928881 44131.7 0 -927295 45730.2 0 -925634 47363.4 0 -923895 49031.2 0 -922074 50732.8 0 -920169 52467.7 0 -918176 54234.9 0 -916092 56033.4 0 -913912 57861.9 0 -911635 59719.1 0 -909255 61603.4 0 -906770 63512.8 0 -904176 65445.5 0 -901469 67398.9 0 -898645 69370.8 0 -895701 71358.3 0 -892634 73358.3 0 -889439 75367.8 0 -886113 77383.1 0 -882654 79400.5 0 -879056 81416 0 -875319 83425.4 0 -871437 85424.2 0 -867409 87407.6 0 -863232 89370.8 0 -858904 91308.5 0 -854421 93215.5 0 -849783 95086.2 0 -844986 96914.8 0 -840031 98695.6 0 -834915 100423 0 -829637 102090 0 -824197 103691 0 -818594 105220 0 -812828 106670 0 -806898 108036 0 -800806 109311 0 -794551 110489 0 -788135 111563 0 -781557 112529 0 -774820 113379 0 -767924 114108 0 -760871 114710 0 -753661 115180 0 -746297 115512 0 -738779 115701 0 -731108 115741 0 -723287 115628 0 -715315 115356 0 -707193 114921 0 -698922 114317 0 -690502 113540 0 -681932 112585 0 -673212 111446 0 -664339 110119 0 -655312 108598 0 -646128 106877 0 -636782 104951 0 -627270 102812 0 -617586 100454 0 -607721 97868.6 0 -597667 95046.7 0 -587412 91978.2 0 -576943 88651.6 0 -566244 85053.6 0 -555295 81168.7 0 -544072 76978.9 0 -532547 72462.6 0 -520686 67594.4 0 -508446 62343.5 0 -495772 56672.8 0 -482599 50536 0 -468840 43877.1 0 -454382 36621.3 0 -439071 28683.4 0 -422701 19924.9 0 -404946 10228.2 0 -385371 -710.322 0 -363131 -13007.4 0 -336944 -27251.3 0 -304078 -43416.9 0 -259239 -59022 0 -955770 -0.0175659 0 -955761 638.841 0 -955735 1278.61 0 -955692 1920.27 0 -955631 2564.74 0 -955552 3212.95 0 -955456 3865.85 0 -955342 4524.38 0 -955209 5189.47 0 -955058 5862.07 0 -954888 6543.12 0 -954700 7233.57 0 -954491 7934.38 0 -954263 8646.48 0 -954015 9370.85 0 -953745 10108.4 0 -953454 10860.2 0 -953142 11627.1 0 -952806 12410 0 -952447 13210.1 0 -952065 14028.1 0 -951657 14865.2 0 -951224 15722.1 0 -950764 16600 0 -950276 17499.7 0 -949760 18422.3 0 -949214 19368.6 0 -948638 20339.5 0 -948029 21336.1 0 -947387 22359.2 0 -946711 23409.7 0 -945998 24488.4 0 -945248 25596.3 0 -944458 26734.2 0 -943627 27902.9 0 -942754 29103.1 0 -941836 30335.6 0 -940872 31601 0 -939859 32900 0 -938796 34233.3 0 -937680 35601.2 0 -936508 37004.4 0 -935279 38443.1 0 -933989 39917.7 0 -932637 41428.5 0 -931219 42975.4 0 -929733 44558.7 0 -928176 46178.1 0 -926544 47833.4 0 -924834 49524.4 0 -923045 51250.5 0 -921171 53011.1 0 -919209 54805.4 0 -917157 56632.4 0 -915011 58490.9 0 -912767 60379.6 0 -910421 62297 0 -907970 64241.2 0 -905410 66210.3 0 -902738 68202 0 -899949 70214 0 -897041 72243.4 0 -894008 74287.4 0 -890848 76342.7 0 -887557 78406 0 -884132 80473.4 0 -880570 82541 0 -876866 84604.6 0 -873018 86659.8 0 -869023 88701.8 0 -864878 90725.6 0 -860580 92726.2 0 -856128 94698.2 0 -851519 96636 0 -846750 98534 0 -841822 100386 0 -836731 102187 0 -831477 103929 0 -826060 105608 0 -820478 107216 0 -814731 108748 0 -808819 110197 0 -802743 111556 0 -796503 112821 0 -790099 113983 0 -783532 115039 0 -776804 115980 0 -769915 116802 0 -762867 117499 0 -755661 118065 0 -748298 118495 0 -740780 118783 0 -733109 118924 0 -725284 118914 0 -717308 118747 0 -709181 118418 0 -700904 117923 0 -692476 117256 0 -683897 116414 0 -675167 115392 0 -666284 114184 0 -657246 112786 0 -648050 111193 0 -638693 109398 0 -629169 107396 0 -619472 105181 0 -609596 102746 0 -599530 100082 0 -589265 97181.2 0 -578786 94033.1 0 -568078 90626.4 0 -557122 86947.8 0 -545894 82981.9 0 -534367 78710.9 0 -522507 74113.3 0 -510272 69164.2 0 -497610 63833.2 0 -484457 58083.9 0 -470730 51872.4 0 -456321 45143.1 0 -441086 37832.3 0 -424830 29849.3 0 -407268 21108.4 0 -387996 11458.3 0 -366348 814.488 0 -341273 -10921.9 0 -310925 -23609.1 0 -272157 -34936.7 0 -956035 -0.0176792 0 -956026 644.099 0 -956001 1289.13 0 -955959 1936.07 0 -955899 2585.83 0 -955823 3239.36 0 -955729 3897.61 0 -955618 4561.52 0 -955489 5232.05 0 -955342 5910.13 0 -955177 6596.73 0 -954994 7292.79 0 -954791 7999.28 0 -954569 8717.16 0 -954327 9447.38 0 -954065 10190.9 0 -953782 10948.8 0 -953478 11721.8 0 -953151 12511.2 0 -952802 13317.7 0 -952429 14142.4 0 -952032 14986.2 0 -951610 15850.2 0 -951162 16735.3 0 -950687 17642.5 0 -950184 18572.7 0 -949652 19526.9 0 -949090 20506 0 -948496 21511.1 0 -947870 22543 0 -947210 23602.7 0 -946514 24691 0 -945781 25808.9 0 -945010 26957.2 0 -944199 28136.7 0 -943345 29348.2 0 -942448 30592.6 0 -941505 31870.5 0 -940515 33182.5 0 -939474 34529.5 0 -938381 35911.8 0 -937234 37330 0 -936030 38784.6 0 -934766 40276 0 -933441 41804.3 0 -932050 43369.8 0 -930592 44972.5 0 -929064 46612.4 0 -927461 48289.4 0 -925783 50003.2 0 -924024 51753.3 0 -922181 53539.2 0 -920252 55360.2 0 -918233 57215.2 0 -916120 59103.2 0 -913910 61023 0 -911599 62973 0 -909183 64951.6 0 -906658 66956.8 0 -904021 68986.4 0 -901268 71038 0 -898395 73109.1 0 -895398 75196.7 0 -892275 77297.6 0 -889020 79408.5 0 -885630 81525.6 0 -882102 83645.1 0 -878433 85762.7 0 -874620 87874.1 0 -870659 89974.4 0 -866547 92058.9 0 -862281 94122.3 0 -857860 96159.2 0 -853282 98164.2 0 -848543 100131 0 -843642 102055 0 -838578 103929 0 -833349 105747 0 -827956 107504 0 -822396 109191 0 -816670 110805 0 -810777 112337 0 -804718 113782 0 -798492 115133 0 -792102 116384 0 -785547 117530 0 -778829 118563 0 -771948 119479 0 -764906 120270 0 -757705 120933 0 -750345 121461 0 -742829 121848 0 -735157 122091 0 -727331 122183 0 -719352 122120 0 -711220 121898 0 -702937 121511 0 -694503 120956 0 -685917 120227 0 -677178 119320 0 -668287 118231 0 -659239 116955 0 -650034 115488 0 -640667 113823 0 -631133 111957 0 -621427 109883 0 -611542 107596 0 -601468 105087 0 -591196 102351 0 -580712 99377 0 -570000 96156.6 0 -559042 92678.5 0 -547816 88929.6 0 -536295 84895.2 0 -524445 80557.9 0 -512227 75897.3 0 -499591 70889.7 0 -486476 65506.6 0 -472801 59714.9 0 -458468 53474.5 0 -443341 46740.3 0 -427244 39455.7 0 -409924 31567.1 0 -391028 23010.4 0 -370019 13759.8 0 -346068 3904.86 0 -317936 -6266.97 0 -283566 -15009.9 0 -956302 -0.0177881 0 -956294 649.156 0 -956269 1299.26 0 -956228 1951.26 0 -956171 2606.12 0 -956097 3264.77 0 -956006 3928.16 0 -955898 4597.26 0 -955772 5273.01 0 -955630 5956.37 0 -955469 6648.29 0 -955291 7349.76 0 -955094 8061.72 0 -954878 8785.14 0 -954643 9521.01 0 -954388 10270.3 0 -954113 11034 0 -953817 11813 0 -953499 12608.4 0 -953160 13421.2 0 -952797 14252.3 0 -952411 15102.7 0 -952000 15973.4 0 -951564 16865.5 0 -951101 17779.8 0 -950611 18717.4 0 -950093 19679.2 0 -949545 20666.3 0 -948967 21679.6 0 -948356 22720.1 0 -947712 23788.6 0 -947034 24886.2 0 -946319 26013.7 0 -945566 27172 0 -944774 28362 0 -943941 29584.5 0 -943064 30840.4 0 -942143 32130.3 0 -941175 33455.1 0 -940157 34815.3 0 -939088 36211.6 0 -937965 37644.6 0 -936787 39114.6 0 -935549 40622.2 0 -934251 42167.7 0 -932888 43751.3 0 -931458 45373 0 -929959 47033.1 0 -928387 48731.3 0 -926739 50467.4 0 -925011 52241.1 0 -923201 54051.8 0 -921305 55898.9 0 -919319 57781.6 0 -917240 59698.7 0 -915064 61649.1 0 -912788 63631.3 0 -910407 65643.8 0 -907919 67684.6 0 -905318 69751.7 0 -902601 71842.6 0 -899765 73954.9 0 -896805 76085.7 0 -893718 78231.9 0 -890499 80390.1 0 -887146 82556.7 0 -883655 84727.7 0 -880022 86899.2 0 -876244 89066.5 0 -872317 91225.1 0 -868239 93370 0 -864007 95496.1 0 -859619 97598 0 -855071 99670.1 0 -850363 101707 0 -845491 103702 0 -840455 105650 0 -835253 107544 0 -829884 109378 0 -824348 111145 0 -818643 112840 0 -812770 114456 0 -806729 115987 0 -800521 117425 0 -794145 118765 0 -787603 120001 0 -780895 121127 0 -774024 122136 0 -766990 123023 0 -759794 123783 0 -752439 124409 0 -744925 124896 0 -737254 125240 0 -729427 125435 0 -721446 125477 0 -713311 125361 0 -705024 125083 0 -696584 124638 0 -687991 124021 0 -679246 123230 0 -670347 122259 0 -661292 121104 0 -652078 119762 0 -642703 118226 0 -633162 116494 0 -623449 114559 0 -613558 112417 0 -603479 110061 0 -593203 107486 0 -582717 104682 0 -572006 101644 0 -561052 98360.1 0 -549834 94821.3 0 -538325 91015 0 -526494 86927.4 0 -514303 82542.5 0 -501704 77841.8 0 -488639 72804.2 0 -475034 67405.5 0 -460796 61618 0 -445803 55412.2 0 -429893 48756.1 0 -412848 41623.3 0 -394363 34000.3 0 -374004 25912 0 -351128 17518.3 0 -324854 9162.61 0 -293847 2181.12 0 -956572 -0.0178932 0 -956564 654.013 0 -956541 1308.97 0 -956501 1965.86 0 -956445 2625.6 0 -956373 3289.16 0 -956285 3957.5 0 -956180 4631.57 0 -956058 5312.34 0 -955920 6000.77 0 -955764 6697.81 0 -955591 7404.46 0 -955400 8121.67 0 -955190 8850.43 0 -954962 9591.71 0 -954714 10346.5 0 -954447 11115.8 0 -954159 11900.6 0 -953851 12701.8 0 -953520 13520.6 0 -953168 14357.8 0 -952792 15214.6 0 -952393 16091.8 0 -951968 16990.5 0 -951518 17911.7 0 -951042 18856.4 0 -950537 19825.6 0 -950004 20820.4 0 -949440 21841.6 0 -948846 22890.2 0 -948218 23967.3 0 -947557 25073.8 0 -946860 26210.6 0 -946126 27378.6 0 -945354 28578.8 0 -944540 29811.9 0 -943685 31078.9 0 -942785 32380.6 0 -941839 33717.6 0 -940845 35090.7 0 -939800 36500.6 0 -938702 37947.8 0 -937549 39432.9 0 -936338 40956.4 0 -935067 42518.6 0 -933732 44119.8 0 -932331 45760.2 0 -930862 47439.9 0 -929320 49158.8 0 -927702 50916.8 0 -926007 52713.6 0 -924229 54548.7 0 -922366 56421.5 0 -920414 58331.2 0 -918370 60277 0 -916229 62257.5 0 -913989 64271.6 0 -911644 66317.5 0 -909192 68393.5 0 -906628 70497.6 0 -903948 72627.4 0 -901149 74780.6 0 -898227 76954.2 0 -895177 79145.2 0 -891997 81350.4 0 -888681 83566.1 0 -885227 85788.5 0 -881631 88013.5 0 -877889 90236.6 0 -873998 92453.2 0 -869956 94658.4 0 -865758 96847.1 0 -861403 99013.9 0 -856888 101153 0 -852211 103259 0 -847370 105326 0 -842363 107348 0 -837188 109317 0 -831845 111229 0 -826333 113077 0 -820652 114854 0 -814800 116554 0 -808779 118170 0 -802588 119696 0 -796228 121126 0 -789699 122453 0 -783004 123671 0 -776143 124774 0 -769117 125757 0 -761928 126614 0 -754578 127338 0 -747067 127926 0 -739398 128371 0 -731572 128670 0 -723590 128816 0 -715453 128807 0 -707162 128636 0 -698718 128301 0 -690121 127798 0 -681370 127121 0 -672465 126267 0 -663403 125233 0 -654183 124014 0 -644802 122607 0 -635255 121007 0 -625537 119209 0 -615642 117210 0 -605560 115004 0 -595284 112586 0 -584799 109949 0 -574093 107087 0 -563147 103992 0 -551942 100656 0 -540452 97069.8 0 -528647 93221.7 0 -516490 89099.7 0 -503938 84690.3 0 -490935 79978.1 0 -477413 74946.5 0 -463286 69578.1 0 -448442 63855.7 0 -432739 57765.1 0 -415986 51301 0 -397924 44480.2 0 -378201 37361.1 0 -356319 30126.4 0 -331642 23123.2 0 -303264 17380.6 0 -956845 -0.0179933 0 -956838 658.668 0 -956815 1318.29 0 -956776 1979.84 0 -956722 2644.27 0 -956652 3312.55 0 -956566 3985.62 0 -956465 4664.46 0 -956347 5350.04 0 -956213 6043.32 0 -956062 6745.27 0 -955894 7456.88 0 -955708 8179.13 0 -955505 8912.99 0 -955283 9659.46 0 -955043 10419.5 0 -954784 11194.2 0 -954504 11984.5 0 -954205 12791.4 0 -953884 13615.9 0 -953542 14459 0 -953177 15321.8 0 -952789 16205.2 0 -952376 17110.3 0 -951939 18038.2 0 -951475 18989.7 0 -950985 19966 0 -950466 20968 0 -949918 21996.9 0 -949339 23053.4 0 -948728 24138.7 0 -948084 25253.8 0 -947405 26399.6 0 -946690 27576.9 0 -945937 28786.9 0 -945144 30030.3 0 -944310 31308.1 0 -943432 32621.1 0 -942509 33970 0 -941538 35355.6 0 -940517 36778.6 0 -939444 38239.7 0 -938317 39739.5 0 -937133 41278.4 0 -935889 42856.8 0 -934582 44475.2 0 -933211 46133.8 0 -931771 47832.6 0 -930260 49571.8 0 -928674 51351.2 0 -927011 53170.6 0 -925266 55029.6 0 -923437 56927.6 0 -921519 58864 0 -919510 60837.9 0 -917405 62848.1 0 -915200 64893.4 0 -912892 66972.3 0 -910477 69083.1 0 -907951 71223.7 0 -905309 73392 0 -902549 75585.6 0 -899665 77801.6 0 -896653 80037.2 0 -893511 82289 0 -890234 84553.5 0 -886818 86826.9 0 -883259 89105.1 0 -879555 91383.8 0 -875701 93658.2 0 -871695 95923.6 0 -867533 98174.8 0 -863213 100406 0 -858732 102613 0 -854087 104788 0 -849278 106927 0 -844301 109022 0 -839155 111068 0 -833839 113058 0 -828353 114986 0 -822695 116846 0 -816866 118630 0 -810865 120332 0 -804693 121946 0 -798350 123465 0 -791837 124884 0 -785155 126195 0 -778305 127393 0 -771289 128471 0 -764108 129425 0 -756764 130249 0 -749257 130937 0 -741591 131484 0 -733766 131886 0 -725784 132137 0 -717646 132234 0 -709353 132172 0 -700906 131947 0 -692305 131555 0 -683549 130993 0 -674639 130256 0 -665572 129341 0 -656348 128245 0 -646962 126964 0 -637411 125495 0 -627690 123833 0 -617792 121974 0 -607711 119915 0 -597436 117651 0 -586956 115176 0 -576258 112486 0 -565325 109575 0 -554137 106435 0 -542670 103060 0 -530897 99441.1 0 -518782 95569.8 0 -506284 91436.2 0 -493351 87030.3 0 -479922 82341.6 0 -465916 77360.5 0 -451234 72080 0 -435749 66498.6 0 -419295 60626.4 0 -401654 54498.5 0 -382540 48192.1 0 -361564 41891.4 0 -338259 35920.3 0 -312000 31085.4 0 -957121 -0.0180886 0 -957114 663.121 0 -957091 1327.2 0 -957054 1993.22 0 -957002 2662.14 0 -956934 3334.91 0 -956851 4012.52 0 -956752 4695.92 0 -956638 5386.1 0 -956508 6084.02 0 -956362 6790.67 0 -956199 7507.02 0 -956019 8234.08 0 -955822 8972.83 0 -955608 9724.26 0 -955375 10489.4 0 -955123 11269.2 0 -954852 12064.7 0 -954562 12877 0 -954251 13707 0 -953919 14555.8 0 -953564 15424.3 0 -953188 16313.7 0 -952787 17225 0 -952362 18159.1 0 -951912 19117.2 0 -951436 20100.3 0 -950931 21109.4 0 -950399 22145.5 0 -949836 23209.6 0 -949242 24302.9 0 -948615 25426.2 0 -947954 26580.6 0 -947258 27767 0 -946524 28986.4 0 -945752 30239.7 0 -944939 31527.9 0 -944083 32851.7 0 -943182 34212.1 0 -942235 35609.8 0 -941239 37045.6 0 -940191 38520.2 0 -939090 40034.1 0 -937933 41588 0 -936716 43182.3 0 -935439 44817.4 0 -934096 46493.6 0 -932687 48211.1 0 -931207 49970.1 0 -929653 51770.4 0 -928022 53611.9 0 -926311 55494.3 0 -924516 57417.1 0 -922633 59379.6 0 -920659 61381.1 0 -918590 63420.5 0 -916423 65496.6 0 -914152 67608 0 -911775 69753 0 -909287 71929.8 0 -906684 74136.1 0 -903962 76369.6 0 -901117 78627.7 0 -898146 80907.3 0 -895043 83205.4 0 -891805 85518.3 0 -888428 87842.4 0 -884908 90173.6 0 -881242 92507.5 0 -877427 94839.6 0 -873458 97165 0 -869333 99478.5 0 -865049 101775 0 -860602 104048 0 -855992 106293 0 -851215 108503 0 -846269 110673 0 -841153 112795 0 -835866 114863 0 -830407 116872 0 -824774 118814 0 -818969 120682 0 -812990 122471 0 -806837 124173 0 -800512 125783 0 -794016 127293 0 -787348 128697 0 -780511 129990 0 -773505 131165 0 -766333 132217 0 -758995 133140 0 -751495 133928 0 -743832 134578 0 -736010 135083 0 -728029 135439 0 -719891 135643 0 -711596 135689 0 -703147 135574 0 -694543 135293 0 -685784 134845 0 -676870 134224 0 -667800 133429 0 -658571 132454 0 -649182 131298 0 -639628 129958 0 -629906 128429 0 -620009 126709 0 -609929 124794 0 -599659 122680 0 -589186 120364 0 -578499 117842 0 -567581 115108 0 -556414 112157 0 -544975 108986 0 -533238 105586 0 -521170 101954 0 -508732 98081.6 0 -495877 93963.7 0 -482547 89594.9 0 -468670 84972 0 -454157 80095.5 0 -438895 74973.2 0 -422741 69625.9 0 -405511 64099.4 0 -386972 58479.7 0 -366818 52942.5 0 -344700 47778.7 0 -320177 43627.6 0 -957400 -0.018178 0 -957392 667.37 0 -957371 1335.7 0 -957334 2005.99 0 -957284 2679.18 0 -957218 3356.25 0 -957138 4038.18 0 -957043 4725.94 0 -956932 5420.5 0 -956806 6122.85 0 -956665 6833.98 0 -956507 7554.87 0 -956333 8286.52 0 -956143 9029.92 0 -955935 9786.09 0 -955709 10556 0 -955465 11340.8 0 -955203 12141.3 0 -954922 12958.7 0 -954620 13793.9 0 -954298 14648.1 0 -953955 15522.2 0 -953589 16417.3 0 -953201 17334.4 0 -952789 18274.6 0 -952352 19239 0 -951889 20228.5 0 -951400 21244.3 0 -950882 22287.4 0 -950336 23358.8 0 -949758 24459.7 0 -949149 25590.9 0 -948507 26753.5 0 -947829 27948.6 0 -947116 29177.1 0 -946364 30439.9 0 -945572 31738.1 0 -944738 33072.5 0 -943860 34444 0 -942937 35853.4 0 -941965 37301.5 0 -940943 38789.1 0 -939868 40316.7 0 -938738 41885.1 0 -937550 43494.8 0 -936301 45146.1 0 -934988 46839.6 0 -933609 48575.3 0 -932160 50353.6 0 -930639 52174.3 0 -929041 54037.4 0 -927364 55942.7 0 -925603 57889.7 0 -923756 59877.8 0 -921818 61906.4 0 -919786 63974.5 0 -917656 66080.9 0 -915424 68224.3 0 -913085 70403 0 -910636 72615.4 0 -908072 74859.2 0 -905390 77132.3 0 -902585 79431.9 0 -899654 81755.2 0 -896591 84099.1 0 -893393 86460.2 0 -890057 88834.6 0 -886577 91218.4 0 -882951 93607.4 0 -879174 95996.9 0 -875244 98382 0 -871157 100758 0 -866909 103119 0 -862499 105459 0 -857924 107773 0 -853180 110055 0 -848267 112298 0 -843183 114497 0 -837926 116644 0 -832494 118733 0 -826889 120758 0 -821108 122711 0 -815152 124587 0 -809020 126378 0 -802715 128077 0 -796235 129680 0 -789583 131178 0 -782759 132566 0 -775766 133838 0 -768603 134988 0 -761274 136011 0 -753780 136900 0 -746122 137652 0 -738303 138261 0 -730324 138722 0 -722187 139032 0 -713892 139186 0 -705441 139181 0 -696835 139012 0 -688074 138677 0 -679157 138172 0 -670084 137494 0 -660853 136641 0 -651462 135609 0 -641907 134395 0 -632185 132998 0 -622289 131414 0 -612214 129640 0 -601949 127674 0 -591486 125513 0 -580813 123153 0 -569913 120591 0 -558770 117824 0 -547362 114848 0 -535665 111659 0 -523648 108253 0 -511275 104629 0 -498503 100782 0 -485277 96711.4 0 -471534 92419.8 0 -457193 87913 0 -442155 83205.5 0 -426297 78324.9 0 -409463 73323 0 -391461 68288.2 0 -372052 63383.4 0 -350968 58864.8 0 -327891 55244.8 0 -957680 -0.0182626 0 -957673 671.415 0 -957652 1343.8 0 -957618 2018.14 0 -957569 2695.41 0 -957505 3376.57 0 -957428 4062.61 0 -957336 4754.51 0 -957229 5453.25 0 -957107 6159.82 0 -956970 6875.2 0 -956818 7600.4 0 -956650 8336.42 0 -956465 9084.26 0 -956264 9844.94 0 -956046 10619.5 0 -955810 11408.9 0 -955557 12214.2 0 -955284 13036.4 0 -954992 13876.7 0 -954680 14736 0 -954348 15615.3 0 -953994 16515.8 0 -953618 17438.5 0 -953218 18384.5 0 -952795 19354.8 0 -952346 20350.6 0 -951871 21372.8 0 -951369 22422.6 0 -950839 23501 0 -950278 24609 0 -949686 25747.8 0 -949062 26918.4 0 -948404 28121.8 0 -947710 29359 0 -946979 30631 0 -946208 31938.8 0 -945397 33283.3 0 -944542 34665.4 0 -943643 36086.1 0 -942696 37546.1 0 -941699 39046.3 0 -940651 40587.2 0 -939548 42169.7 0 -938388 43794.3 0 -937168 45461.4 0 -935886 47171.5 0 -934538 48925 0 -933121 50722 0 -931632 52562.6 0 -930067 54446.8 0 -928424 56374.5 0 -926699 58345.1 0 -924888 60358.4 0 -922987 62413.6 0 -920992 64509.8 0 -918900 66645.9 0 -916706 68820.8 0 -914406 71032.8 0 -911997 73280.2 0 -909474 75561.1 0 -906832 77873.2 0 -904068 80213.9 0 -901178 82580.5 0 -898156 84969.8 0 -895000 87378.5 0 -891704 89802.9 0 -888265 92239.1 0 -884680 94682.8 0 -880943 97129.3 0 -877053 99574 0 -873004 102012 0 -868795 104437 0 -864423 106844 0 -859883 109228 0 -855175 111582 0 -850296 113899 0 -845244 116174 0 -840018 118400 0 -834616 120570 0 -829038 122677 0 -823283 124716 0 -817351 126678 0 -811243 128558 0 -804957 130349 0 -798496 132044 0 -791861 133636 0 -785052 135120 0 -778071 136489 0 -770919 137738 0 -763599 138860 0 -756112 139851 0 -748461 140706 0 -740646 141419 0 -732670 141986 0 -724534 142402 0 -716240 142664 0 -707789 142768 0 -699182 142711 0 -690419 142489 0 -681501 142099 0 -672426 141538 0 -663193 140805 0 -653801 139895 0 -644247 138808 0 -634526 137540 0 -624633 136090 0 -614563 134455 0 -604306 132633 0 -593855 130623 0 -583197 128421 0 -572318 126026 0 -561201 123435 0 -549828 120647 0 -538174 117659 0 -526211 114471 0 -513907 111080 0 -501220 107488 0 -488102 103696 0 -474495 99711.4 0 -460327 95543.3 0 -445511 91211.2 0 -429941 86747.1 0 -413485 82205.2 0 -395985 77672.7 0 -377249 73298.2 0 -357072 69305.2 0 -335220 66108.9 0 -957964 -0.0183425 0 -957957 675.255 0 -957937 1351.48 0 -957903 2029.68 0 -957856 2710.81 0 -957795 3395.86 0 -957720 4085.8 0 -957631 4781.63 0 -957528 5484.34 0 -957411 6194.9 0 -957278 6914.33 0 -957131 7643.62 0 -956969 8383.79 0 -956791 9135.83 0 -956596 9900.78 0 -956386 10679.7 0 -956158 11473.5 0 -955912 12283.3 0 -955649 13110.2 0 -955367 13955.2 0 -955065 14819.4 0 -954744 15703.7 0 -954401 16609.4 0 -954037 17537.4 0 -953650 18488.9 0 -953240 19464.9 0 -952806 20466.5 0 -952346 21494.8 0 -951859 22551 0 -951344 23636 0 -950801 24751 0 -950227 25897 0 -949621 27075.1 0 -948982 28286.5 0 -948308 29532 0 -947598 30812.8 0 -946849 32129.8 0 -946059 33484 0 -945228 34876.5 0 -944353 36308 0 -943431 37779.5 0 -942460 39291.7 0 -941438 40845.5 0 -940363 42441.6 0 -939232 44080.6 0 -938041 45763 0 -936789 47489.3 0 -935472 49260 0 -934087 51075.3 0 -932631 52935.3 0 -931101 54840 0 -929493 56789.5 0 -927803 58783.3 0 -926028 60821.1 0 -924164 62902.3 0 -922207 65026.1 0 -920153 67191.5 0 -917999 69397.2 0 -915739 71642 0 -913370 73924 0 -910888 76241.4 0 -908288 78592 0 -905566 80973.3 0 -902717 83382.6 0 -899737 85816.9 0 -896623 88272.9 0 -893370 90746.9 0 -889973 93235.1 0 -886429 95733.1 0 -882734 98236.5 0 -878884 100741 0 -874876 103240 0 -870707 105730 0 -866372 108204 0 -861871 110657 0 -857199 113082 0 -852355 115473 0 -847337 117825 0 -842143 120130 0 -836772 122381 0 -831223 124572 0 -825495 126695 0 -819589 128745 0 -813504 130715 0 -807240 132596 0 -800799 134384 0 -794181 136071 0 -787388 137651 0 -780421 139118 0 -773281 140466 0 -765971 141689 0 -758493 142781 0 -750848 143739 0 -743038 144556 0 -735066 145228 0 -726933 145752 0 -718640 146122 0 -710190 146336 0 -701582 146389 0 -692819 146280 0 -683900 146004 0 -674824 145560 0 -665591 144945 0 -656199 144157 0 -646646 143194 0 -636927 142054 0 -627039 140736 0 -616975 139237 0 -606728 137557 0 -596290 135693 0 -585649 133646 0 -574792 131412 0 -563705 128992 0 -552368 126385 0 -540759 123590 0 -528854 120607 0 -516620 117439 0 -504021 114086 0 -491012 110555 0 -477542 106854 0 -463547 102997 0 -448949 99005.6 0 -433657 94914.5 0 -417559 90778.2 0 -400525 86680.4 0 -382400 82755.4 0 -363025 79197.9 0 -342221 76347.6 0 -958249 -0.0184169 0 -958243 678.889 0 -958223 1358.75 0 -958191 2040.6 0 -958145 2725.38 0 -958087 3414.11 0 -958014 4107.75 0 -957929 4807.3 0 -957829 5513.75 0 -957716 6228.1 0 -957589 6951.35 0 -957447 7684.52 0 -957290 8428.6 0 -957118 9184.63 0 -956931 9953.62 0 -956728 10736.6 0 -956508 11534.7 0 -956271 12348.8 0 -956017 13180 0 -955744 14029.5 0 -955453 14898.3 0 -955142 15787.4 0 -954811 16697.9 0 -954459 17630.9 0 -954085 18587.6 0 -953688