<?xml version="1.0"?> 
<VTKFile type="StructuredGrid" version="0.1"> 
<StructuredGrid WholeExtent="0 127 0 127 0 0"> 
<Piece Extent="0 127 0 127 0 0"> 
<PointData>
<DataArray type="Float32" Name="E" format="ascii" NumberOfComponents="3"> 
-888689 64581.5 0 -888292 51415.7 0 -886274 46268 0 -883798 43455.8 0 -881179 41952.3 0 -878584 41072.9 0 -876078 40571.4 0 -873694 40286.4 0 -871444 40135.3 0 -869329 40065.9 0 -867343 40047.4 0 -865481 40060.4 0 -863732 40092.6 0 -862087 40136.4 0 -860539 40186.9 0 -859079 40240.9 0 -857699 40296.6 0 -856391 40352.8 0 -855149 40408.9 0 -853968 40464.3 0 -852841 40519.1 0 -851763 40573.1 0 -850731 40626.3 0 -849741 40678.8 0 -848788 40730.7 0 -847869 40782 0 -846983 40832.9 0 -846125 40883.5 0 -845294 40933.7 0 -844487 40983.8 0 -843703 41033.6 0 -842940 41083.4 0 -842196 41133.1 0 -841470 41182.7 0 -840760 41232.3 0 -840065 41282 0 -839384 41331.6 0 -838716 41381.3 0 -838060 41431 0 -837415 41480.8 0 -836780 41530.7 0 -836155 41580.6 0 -835539 41630.6 0 -834931 41680.6 0 -834330 41730.7 0 -833737 41780.8 0 -833149 41831 0 -832568 41881.3 0 -831993 41931.5 0 -831422 41981.8 0 -830856 42032.2 0 -830294 42082.6 0 -829736 42132.9 0 -829181 42183.3 0 -828629 42233.7 0 -828080 42284.1 0 -827533 42334.5 0 -826989 42384.9 0 -826446 42435.3 0 -825904 42485.7 0 -825364 42536 0 -824824 42586.3 0 -824285 42636.5 0 -823746 42686.7 0 -823207 42736.9 0 -822667 42787 0 -822127 42837 0 -821586 42887 0 -821044 42936.9 0 -820500 42986.7 0 -819954 43036.4 0 -819407 43086 0 -818856 43135.6 0 -818304 43185 0 -817748 43234.3 0 -817188 43283.4 0 -816625 43332.5 0 -816058 43381.4 0 -815487 43430.1 0 -814910 43478.7 0 -814329 43527.1 0 -813741 43575.3 0 -813148 43623.3 0 -812548 43671.1 0 -811941 43718.6 0 -811327 43765.9 0 -810704 43812.9 0 -810073 43859.6 0 -809433 43906 0 -808782 43952 0 -808121 43997.7 0 -807449 44042.8 0 -806764 44087.6 0 -806066 44131.7 0 -805354 44175.3 0 -804627 44218.3 0 -803883 44260.4 0 -803122 44301.8 0 -802343 44342.2 0 -801542 44381.6 0 -800720 44419.8 0 -799874 44456.7 0 -799002 44492.1 0 -798102 44525.7 0 -797172 44557.4 0 -796209 44587 0 -795210 44614.2 0 -794172 44638.6 0 -793091 44660.1 0 -791963 44678.4 0 -790784 44693.2 0 -789548 44704.5 0 -788250 44712.2 0 -786885 44716.9 0 -785444 44719.4 0 -783922 44721.3 0 -782309 44725.7 0 -780598 44737.9 0 -778778 44766.4 0 -776842 44825.7 0 -774780 44939.3 0 -772585 45148.2 0 -770254 45518.2 0 -767791 46182.2 0 -765214 47341.2 0 -762565 49583.4 0 -759961 53775.7 0 -757593 65036.6 0 -850187 70244.2 0 -850399 70732.4 0 -850796 70147.5 0 -851171 69302.7 0 -851474 68346.4 0 -851684 67375.2 0 -851802 66421.9 0 -851831 65506 0 -851779 64635.3 0 -851654 63813.4 0 -851465 63040.6 0 -851220 62316 0 -850926 61637.6 0 -850590 61003.2 0 -850219 60410.4 0 -849817 59856.5 0 -849389 59339.2 0 -848939 58856.1 0 -848472 58404.9 0 -847989 57983.7 0 -847494 57590.4 0 -846989 57223.2 0 -846477 56880.4 0 -845958 56560.4 0 -845434 56261.9 0 -844907 55983.4 0 -844377 55723.8 0 -843846 55481.8 0 -843314 55256.5 0 -842782 55046.7 0 -842250 54851.8 0 -841719 54670.7 0 -841190 54502.7 0 -840662 54347.1 0 -840135 54203.2 0 -839611 54070.4 0 -839089 53948.2 0 -838569 53836 0 -838051 53733.2 0 -837535 53639.5 0 -837021 53554.4 0 -836510 53477.5 0 -836001 53408.5 0 -835495 53347 0 -834990 53292.7 0 -834487 53245.3 0 -833987 53204.5 0 -833488 53170.2 0 -832991 53141.9 0 -832496 53119.6 0 -832003 53103.1 0 -831510 53092 0 -831020 53086.4 0 -830530 53086 0 -830042 53090.7 0 -829555 53100.4 0 -829068 53115 0 -828583 53134.2 0 -828098 53158.2 0 -827613 53186.7 0 -827129 53219.8 0 -826645 53257.2 0 -826162 53299.1 0 -825678 53345.4 0 -825194 53396 0 -824711 53450.9 0 -824226 53510.1 0 -823741 53573.6 0 -823256 53641.4 0 -822770 53713.5 0 -822283 53790 0 -821795 53870.8 0 -821306 53956.1 0 -820815 54045.9 0 -820324 54140.2 0 -819830 54239.2 0 -819335 54342.9 0 -818839 54451.4 0 -818340 54564.8 0 -817840 54683.3 0 -817337 54807 0 -816832 54936.1 0 -816325 55070.6 0 -815816 55210.9 0 -815303 55357.1 0 -814789 55509.4 0 -814271 55668 0 -813751 55833.3 0 -813227 56005.4 0 -812701 56184.8 0 -812172 56371.6 0 -811640 56566.4 0 -811104 56769.4 0 -810566 56981.1 0 -810024 57202 0 -809480 57432.4 0 -808932 57673.1 0 -808382 57924.4 0 -807829 58187.2 0 -807274 58462 0 -806716 58749.6 0 -806157 59050.8 0 -805596 59366.5 0 -805035 59697.7 0 -804473 60045.3 0 -803912 60410.5 0 -803352 60794.6 0 -802794 61199 0 -802240 61625 0 -801691 62074.3 0 -801149 62548.7 0 -800615 63050 0 -800093 63580.4 0 -799584 64142 0 -799091 64737.2 0 -798619 65368.5 0 -798171 66038.5 0 -797751 66749.7 0 -797365 67504.6 0 -797018 68304.9 0 -796717 69151.6 0 -796468 70043.6 0 -796277 70976.5 0 -796149 71936.8 0 -796088 72901.2 0 -796089 73793.1 0 -796134 74495 0 -796162 74303.2 0 -844932 70136.9 0 -844804 69510.1 0 -844591 69231 0 -844370 69032 0 -844156 68866.3 0 -843957 68704.1 0 -843772 68537 0 -843598 68360.4 0 -843434 68173.7 0 -843275 67977.3 0 -843119 67772.4 0 -842964 67560.5 0 -842807 67343.3 0 -842646 67122.3 0 -842480 66898.9 0 -842308 66674.6 0 -842129 66450.5 0 -841942 66227.7 0 -841747 66007.2 0 -841543 65789.8 0 -841331 65576.2 0 -841111 65367 0 -840882 65162.7 0 -840645 64963.8 0 -840400 64770.6 0 -840147 64583.4 0 -839886 64402.5 0 -839619 64228.1 0 -839344 64060.3 0 -839063 63899.3 0 -838775 63745 0 -838482 63597.6 0 -838183 63457.1 0 -837878 63323.5 0 -837569 63196.8 0 -837255 63076.9 0 -836937 62963.8 0 -836614 62857.5 0 -836288 62757.9 0 -835958 62665 0 -835624 62578.6 0 -835288 62498.7 0 -834948 62425.2 0 -834606 62358.1 0 -834261 62297.3 0 -833914 62242.6 0 -833565 62194 0 -833213 62151.5 0 -832860 62114.9 0 -832505 62084.2 0 -832148 62059.2 0 -831790 62040 0 -831430 62026.5 0 -831068 62018.6 0 -830706 62016.2 0 -830342 62019.3 0 -829977 62027.8 0 -829611 62041.7 0 -829244 62060.9 0 -828877 62085.5 0 -828508 62115.3 0 -828139 62150.3 0 -827769 62190.5 0 -827398 62235.9 0 -827026 62286.5 0 -826654 62342.2 0 -826282 62403 0 -825909 62469 0 -825536 62540.1 0 -825162 62616.4 0 -824788 62697.8 0 -824413 62784.3 0 -824039 62876.1 0 -823664 62973 0 -823289 63075.1 0 -822914 63182.5 0 -822538 63295.3 0 -822163 63413.3 0 -821788 63536.7 0 -821413 63665.5 0 -821038 63799.9 0 -820664 63939.7 0 -820290 64085.2 0 -819916 64236.3 0 -819543 64393.1 0 -819171 64555.8 0 -818799 64724.3 0 -818428 64898.8 0 -818058 65079.3 0 -817689 65265.9 0 -817322 65458.7 0 -816955 65657.8 0 -816591 65863.2 0 -816227 66075 0 -815866 66293.3 0 -815507 66518.3 0 -815149 66749.8 0 -814795 66988.1 0 -814442 67233.1 0 -814093 67484.9 0 -813746 67743.5 0 -813403 68009 0 -813062 68281.3 0 -812726 68560.4 0 -812393 68846.2 0 -812064 69138.6 0 -811739 69437.6 0 -811418 69742.9 0 -811102 70054.4 0 -810790 70371.7 0 -810482 70694.5 0 -810179 71022.4 0 -809879 71354.9 0 -809584 71691.4 0 -809292 72031.3 0 -809003 72373.7 0 -808717 72717.9 0 -808432 73062.9 0 -808147 73407.7 0 -807862 73751.5 0 -807574 74093.4 0 -807283 74433.3 0 -806986 74771.9 0 -806682 75112.7 0 -806371 75462.1 0 -806055 75843.7 0 -805743 76294.1 0 -805460 77040.8 0 -840817 71891 0 -840787 71938.7 0 -840782 71845.3 0 -840771 71719.7 0 -840745 71581.2 0 -840705 71441.8 0 -840648 71305.2 0 -840578 71173.1 0 -840495 71046.1 0 -840401 70924.1 0 -840297 70806.8 0 -840185 70693.9 0 -840064 70584.9 0 -839937 70479.4 0 -839804 70377.1 0 -839665 70277.8 0 -839521 70181.2 0 -839372 70087.2 0 -839218 69995.5 0 -839060 69906.2 0 -838898 69819.2 0 -838732 69734.4 0 -838561 69651.9 0 -838387 69571.7 0 -838209 69493.8 0 -838028 69418.3 0 -837842 69345.2 0 -837654 69274.7 0 -837461 69206.7 0 -837265 69141.4 0 -837065 69078.8 0 -836862 69019 0 -836656 68962.1 0 -836447 68908.1 0 -836234 68857.2 0 -836018 68809.4 0 -835798 68764.7 0 -835576 68723.2 0 -835351 68685.1 0 -835123 68650.2 0 -834892 68618.8 0 -834659 68590.7 0 -834422 68566.2 0 -834184 68545.2 0 -833942 68527.7 0 -833699 68513.8 0 -833453 68503.5 0 -833205 68496.8 0 -832954 68493.9 0 -832702 68494.6 0 -832448 68499 0 -832192 68507.2 0 -831934 68519.1 0 -831674 68534.7 0 -831413 68554.2 0 -831150 68577.4 0 -830886 68604.4 0 -830620 68635.3 0 -830353 68669.9 0 -830085 68708.4 0 -829815 68750.7 0 -829545 68796.8 0 -829273 68846.8 0 -829001 68900.6 0 -828728 68958.3 0 -828454 69019.9 0 -828179 69085.3 0 -827904 69154.5 0 -827628 69227.7 0 -827352 69304.7 0 -827075 69385.6 0 -826798 69470.3 0 -826521 69559 0 -826244 69651.5 0 -825966 69747.9 0 -825688 69848.2 0 -825411 69952.4 0 -825134 70060.5 0 -824856 70172.5 0 -824579 70288.5 0 -824303 70408.3 0 -824026 70532 0 -823751 70659.6 0 -823475 70791.1 0 -823201 70926.5 0 -822927 71065.8 0 -822654 71209 0 -822381 71356.1 0 -822110 71507.1 0 -821840 71662 0 -821571 71820.7 0 -821303 71983.3 0 -821036 72149.8 0 -820771 72320.1 0 -820507 72494.2 0 -820244 72672.2 0 -819984 72853.9 0 -819725 73039.5 0 -819467 73228.8 0 -819212 73421.8 0 -818958 73618.6 0 -818707 73819.2 0 -818457 74023.4 0 -818210 74231.3 0 -817966 74442.9 0 -817724 74658.2 0 -817484 74877.1 0 -817247 75099.8 0 -817013 75326.1 0 -816782 75556.2 0 -816555 75790.1 0 -816331 76027.8 0 -816110 76269.4 0 -815894 76515 0 -815682 76764.8 0 -815475 77018.9 0 -815273 77277.5 0 -815077 77540.8 0 -814888 77809 0 -814705 78082.3 0 -814531 78360.8 0 -814365 78644.3 0 -814209 78932.5 0 -814063 79223.6 0 -813929 79515.1 0 -813804 79797.4 0 -813686 80055.6 0 -813564 80199 0 -840227 73218.2 0 -840140 73144.7 0 -840040 73128.1 0 -839938 73123.3 0 -839837 73122.6 0 -839738 73121.2 0 -839641 73117.8 0 -839545 73112 0 -839449 73103.8 0 -839352 73093.4 0 -839255 73081.3 0 -839156 73067.6 0 -839055 73052.8 0 -838952 73037.3 0 -838846 73021.2 0 -838738 73004.8 0 -838627 72988.4 0 -838513 72972.2 0 -838396 72956.4 0 -838276 72941 0 -838153 72926.3 0 -838027 72912.4 0 -837898 72899.3 0 -837766 72887.2 0 -837631 72876.2 0 -837494 72866.4 0 -837353 72857.7 0 -837210 72850.3 0 -837064 72844.3 0 -836916 72839.7 0 -836765 72836.6 0 -836611 72835 0 -836455 72834.9 0 -836297 72836.5 0 -836136 72839.7 0 -835973 72844.6 0 -835808 72851.3 0 -835640 72859.8 0 -835471 72870.1 0 -835299 72882.3 0 -835125 72896.5 0 -834949 72912.5 0 -834772 72930.6 0 -834592 72950.6 0 -834411 72972.7 0 -834228 72996.9 0 -834043 73023.2 0 -833856 73051.7 0 -833668 73082.3 0 -833478 73115.2 0 -833287 73150.2 0 -833095 73187.5 0 -832900 73227.1 0 -832705 73269 0 -832508 73313.2 0 -832310 73359.7 0 -832111 73408.6 0 -831911 73459.9 0 -831710 73513.5 0 -831507 73569.6 0 -831304 73628.1 0 -831100 73689.1 0 -830895 73752.4 0 -830689 73818.3 0 -830482 73886.6 0 -830275 73957.4 0 -830067 74030.7 0 -829858 74106.6 0 -829649 74184.9 0 -829440 74265.7 0 -829230 74349.1 0 -829019 74434.9 0 -828809 74523.4 0 -828598 74614.3 0 -828387 74707.8 0 -828175 74803.8 0 -827964 74902.3 0 -827753 75003.4 0 -827541 75107 0 -827330 75213.1 0 -827119 75321.7 0 -826908 75432.9 0 -826698 75546.6 0 -826488 75662.7 0 -826278 75781.4 0 -826068 75902.6 0 -825859 76026.2 0 -825651 76152.3 0 -825443 76280.9 0 -825236 76411.9 0 -825030 76545.3 0 -824824 76681.1 0 -824619 76819.4 0 -824415 76960 0 -824212 77102.9 0 -824011 77248.2 0 -823810 77395.8 0 -823610 77545.6 0 -823412 77697.8 0 -823214 77852.1 0 -823019 78008.6 0 -822824 78167.3 0 -822631 78328.1 0 -822440 78491 0 -822250 78655.9 0 -822061 78822.8 0 -821874 78991.6 0 -821689 79162.2 0 -821506 79334.6 0 -821324 79508.8 0 -821144 79684.5 0 -820966 79861.8 0 -820790 80040.4 0 -820615 80220.4 0 -820442 80401.5 0 -820271 80583.5 0 -820101 80766.4 0 -819932 80949.9 0 -819764 81133.8 0 -819598 81317.9 0 -819432 81502.1 0 -819266 81686.3 0 -819101 81870.5 0 -818935 82055.2 0 -818769 82241.3 0 -818603 82432.6 0 -818438 82634.8 0 -818279 82884.9 0 -840465 74813.3 0 -840394 74866.3 0 -840325 74895.5 0 -840254 74919.7 0 -840180 74942.1 0 -840101 74964.7 0 -840019 74988 0 -839934 75012.4 0 -839846 75037.7 0 -839755 75063.9 0 -839662 75090.9 0 -839566 75118.6 0 -839469 75146.9 0 -839369 75175.8 0 -839268 75205.2 0 -839165 75235 0 -839061 75265.3 0 -838954 75295.9 0 -838847 75327 0 -838737 75358.4 0 -838626 75390.3 0 -838513 75422.6 0 -838399 75455.4 0 -838284 75488.7 0 -838166 75522.5 0 -838047 75556.8 0 -837927 75591.7 0 -837805 75627.3 0 -837682 75663.4 0 -837557 75700.3 0 -837430 75737.9 0 -837302 75776.3 0 -837172 75815.5 0 -837041 75855.5 0 -836908 75896.3 0 -836774 75938.1 0 -836639 75980.8 0 -836502 76024.5 0 -836363 76069.1 0 -836224 76114.8 0 -836082 76161.5 0 -835940 76209.4 0 -835796 76258.3 0 -835651 76308.4 0 -835505 76359.6 0 -835357 76412.1 0 -835209 76465.7 0 -835059 76520.6 0 -834908 76576.8 0 -834755 76634.2 0 -834602 76692.9 0 -834448 76753 0 -834292 76814.4 0 -834136 76877.2 0 -833979 76941.3 0 -833821 77006.9 0 -833662 77073.8 0 -833502 77142.2 0 -833341 77212 0 -833179 77283.3 0 -833017 77356.1 0 -832854 77430.3 0 -832690 77506 0 -832526 77583.3 0 -832361 77662 0 -832195 77742.2 0 -832029 77824 0 -831863 77907.3 0 -831696 77992.2 0 -831528 78078.6 0 -831360 78166.5 0 -831192 78256 0 -831024 78347.1 0 -830855 78439.7 0 -830686 78533.9 0 -830516 78629.6 0 -830347 78726.9 0 -830177 78825.8 0 -830008 78926.2 0 -829838 79028.2 0 -829668 79131.7 0 -829498 79236.8 0 -829328 79343.5 0 -829159 79451.6 0 -828989 79561.3 0 -828820 79672.5 0 -828650 79785.3 0 -828481 79899.5 0 -828313 80015.2 0 -828144 80132.5 0 -827976 80251.1 0 -827808 80371.3 0 -827641 80492.9 0 -827474 80615.9 0 -827307 80740.4 0 -827141 80866.2 0 -826975 80993.5 0 -826810 81122.1 0 -826646 81252 0 -826482 81383.3 0 -826319 81515.9 0 -826157 81649.8 0 -825995 81785 0 -825834 81921.4 0 -825673 82059 0 -825514 82197.9 0 -825355 82338 0 -825198 82479.2 0 -825041 82621.6 0 -824885 82765.2 0 -824730 82909.9 0 -824576 83055.8 0 -824423 83202.8 0 -824271 83350.9 0 -824121 83500.1 0 -823971 83650.5 0 -823823 83802.1 0 -823677 83954.8 0 -823532 84108.8 0 -823388 84264 0 -823247 84420.5 0 -823107 84578.2 0 -822970 84737.1 0 -822835 84896.9 0 -822702 85057.3 0 -822572 85216.6 0 -822443 85372.5 0 -822315 85509.8 0 -841635 76346.5 0 -841553 76397.8 0 -841468 76458.6 0 -841382 76521.1 0 -841296 76584 0 -841209 76646.6 0 -841123 76708.6 0 -841035 76770 0 -840947 76831 0 -840859 76891.5 0 -840769 76951.7 0 -840678 77011.6 0 -840587 77071.4 0 -840494 77131.1 0 -840400 77190.7 0 -840305 77250.3 0 -840209 77310 0 -840111 77369.9 0 -840012 77429.8 0 -839912 77490 0 -839811 77550.3 0 -839709 77610.9 0 -839606 77671.8 0 -839501 77733 0 -839395 77794.4 0 -839288 77856.2 0 -839180 77918.4 0 -839071 77981 0 -838961 78043.9 0 -838850 78107.3 0 -838737 78171 0 -838624 78235.3 0 -838509 78300 0 -838394 78365.2 0 -838277 78430.9 0 -838160 78497.2 0 -838041 78564 0 -837922 78631.3 0 -837801 78699.3 0 -837680 78767.8 0 -837557 78836.9 0 -837434 78906.7 0 -837310 78977.1 0 -837185 79048.2 0 -837059 79119.9 0 -836932 79192.4 0 -836804 79265.5 0 -836676 79339.4 0 -836547 79414 0 -836417 79489.4 0 -836286 79565.5 0 -836154 79642.4 0 -836022 79720.1 0 -835889 79798.6 0 -835755 79877.9 0 -835621 79958 0 -835486 80038.9 0 -835350 80120.7 0 -835214 80203.4 0 -835077 80286.9 0 -834939 80371.3 0 -834801 80456.6 0 -834663 80542.7 0 -834524 80629.8 0 -834384 80717.8 0 -834244 80806.6 0 -834103 80896.4 0 -833962 80987.1 0 -833821 81078.7 0 -833679 81171.3 0 -833537 81264.8 0 -833395 81359.2 0 -833252 81454.6 0 -833109 81550.9 0 -832966 81648.1 0 -832822 81746.3 0 -832678 81845.4 0 -832534 81945.5 0 -832390 82046.5 0 -832246 82148.5 0 -832101 82251.4 0 -831957 82355.2 0 -831812 82460 0 -831667 82565.7 0 -831523 82672.4 0 -831378 82779.9 0 -831233 82888.4 0 -831088 82997.8 0 -830943 83108.1 0 -830799 83219.4 0 -830654 83331.5 0 -830510 83444.5 0 -830365 83558.4 0 -830221 83673.1 0 -830077 83788.7 0 -829933 83905.2 0 -829790 84022.6 0 -829646 84140.7 0 -829503 84259.7 0 -829361 84379.5 0 -829218 84500.1 0 -829076 84621.5 0 -828934 84743.7 0 -828793 84866.6 0 -828652 84990.2 0 -828511 85114.6 0 -828371 85239.8 0 -828231 85365.6 0 -828092 85492 0 -827953 85619.2 0 -827814 85746.9 0 -827677 85875.3 0 -827539 86004.2 0 -827402 86133.7 0 -827266 86263.7 0 -827130 86394.2 0 -826995 86525.1 0 -826860 86656.4 0 -826726 86788.1 0 -826592 86920 0 -826458 87052.2 0 -826325 87184.7 0 -826192 87317.3 0 -826059 87450.3 0 -825927 87583.6 0 -825794 87717.9 0 -825662 87854.1 0 -825532 87998.3 0 -843259 77919.5 0 -843179 78003.5 0 -843098 78083.3 0 -843017 78162.4 0 -842934 78241.2 0 -842850 78320 0 -842765 78398.9 0 -842679 78478 0 -842592 78557.3 0 -842504 78636.7 0 -842415 78716.2 0 -842326 78795.8 0 -842235 78875.4 0 -842144 78955.2 0 -842052 79035 0 -841959 79114.9 0 -841865 79194.9 0 -841771 79275 0 -841676 79355.1 0 -841580 79435.3 0 -841484 79515.7 0 -841386 79596.1 0 -841288 79676.7 0 -841189 79757.4 0 -841089 79838.3 0 -840989 79919.4 0 -840888 80000.6 0 -840786 80082 0 -840683 80163.6 0 -840580 80245.4 0 -840476 80327.5 0 -840371 80409.8 0 -840265 80492.4 0 -840159 80575.2 0 -840052 80658.3 0 -839944 80741.7 0 -839836 80825.4 0 -839727 80909.5 0 -839617 80993.8 0 -839506 81078.5 0 -839395 81163.5 0 -839283 81248.9 0 -839171 81334.7 0 -839057 81420.8 0 -838944 81507.4 0 -838829 81594.3 0 -838714 81681.7 0 -838598 81769.4 0 -838482 81857.6 0 -838365 81946.2 0 -838248 82035.3 0 -838130 82124.8 0 -838011 82214.8 0 -837892 82305.2 0 -837772 82396.2 0 -837652 82487.6 0 -837532 82579.5 0 -837410 82671.9 0 -837289 82764.7 0 -837167 82858.1 0 -837044 82952.1 0 -836921 83046.5 0 -836797 83141.4 0 -836674 83236.9 0 -836549 83332.9 0 -836425 83429.5 0 -836299 83526.6 0 -836174 83624.2 0 -836048 83722.4 0 -835922 83821.1 0 -835796 83920.4 0 -835669 84020.3 0 -835542 84120.7 0 -835414 84221.6 0 -835287 84323.2 0 -835159 84425.3 0 -835030 84527.9 0 -834902 84631.1 0 -834773 84734.9 0 -834645 84839.2 0 -834516 84944.1 0 -834386 85049.6 0 -834257 85155.6 0 -834128 85262.1 0 -833998 85369.3 0 -833868 85477 0 -833738 85585.2 0 -833608 85694 0 -833478 85803.3 0 -833348 85913.1 0 -833218 86023.5 0 -833088 86134.5 0 -832957 86245.9 0 -832827 86357.9 0 -832697 86470.4 0 -832567 86583.4 0 -832436 86696.9 0 -832306 86810.9 0 -832176 86925.4 0 -832046 87040.4 0 -831916 87155.8 0 -831786 87271.8 0 -831656 87388.1 0 -831526 87505 0 -831397 87622.3 0 -831267 87740 0 -831138 87858.2 0 -831008 87976.8 0 -830879 88095.8 0 -830751 88215.2 0 -830622 88335 0 -830493 88455.2 0 -830365 88575.8 0 -830237 88696.8 0 -830109 88818.2 0 -829982 88939.9 0 -829854 89062 0 -829727 89184.5 0 -829601 89307.3 0 -829474 89430.5 0 -829348 89554 0 -829223 89678 0 -829097 89802.2 0 -828973 89926.8 0 -828849 90051.6 0 -828725 90176.4 0 -828602 90300.7 0 -828479 90422.1 0 -845258 79483.1 0 -845175 79576.4 0 -845091 79671.3 0 -845007 79766.4 0 -844922 79861.4 0 -844837 79956.3 0 -844751 80051.1 0 -844665 80145.7 0 -844578 80240.2 0 -844491 80334.6 0 -844403 80428.9 0 -844315 80523.1 0 -844226 80617.3 0 -844137 80711.5 0 -844046 80805.6 0 -843956 80899.8 0 -843864 80994 0 -843773 81088.2 0 -843680 81182.4 0 -843587 81276.7 0 -843493 81371 0 -843399 81465.4 0 -843304 81559.8 0 -843209 81654.4 0 -843113 81749 0 -843016 81843.7 0 -842919 81938.5 0 -842822 82033.4 0 -842723 82128.4 0 -842624 82223.6 0 -842525 82318.9 0 -842425 82414.3 0 -842325 82509.8 0 -842224 82605.5 0 -842122 82701.4 0 -842020 82797.4 0 -841917 82893.5 0 -841814 82989.9 0 -841711 83086.4 0 -841606 83183.2 0 -841502 83280.1 0 -841396 83377.2 0 -841291 83474.5 0 -841184 83572.1 0 -841078 83669.8 0 -840971 83767.8 0 -840863 83866 0 -840755 83964.5 0 -840646 84063.2 0 -840537 84162.1 0 -840428 84261.3 0 -840318 84360.8 0 -840207 84460.5 0 -840096 84560.5 0 -839985 84660.7 0 -839873 84761.2 0 -839761 84862 0 -839649 84963.1 0 -839536 85064.5 0 -839423 85166.2 0 -839309 85268.2 0 -839195 85370.4 0 -839080 85473 0 -838966 85575.9 0 -838850 85679.1 0 -838735 85782.6 0 -838619 85886.4 0 -838503 85990.5 0 -838387 86095 0 -838270 86199.8 0 -838153 86304.9 0 -838035 86410.3 0 -837918 86516 0 -837800 86622.1 0 -837681 86728.5 0 -837563 86835.2 0 -837444 86942.3 0 -837325 87049.6 0 -837206 87157.4 0 -837086 87265.4 0 -836967 87373.8 0 -836847 87482.5 0 -836727 87591.5 0 -836606 87700.8 0 -836486 87810.5 0 -836365 87920.5 0 -836244 88030.9 0 -836123 88141.5 0 -836002 88252.5 0 -835881 88363.8 0 -835759 88475.4 0 -835638 88587.3 0 -835516 88699.5 0 -835394 88812 0 -835273 88924.9 0 -835151 89038 0 -835028 89151.5 0 -834906 89265.2 0 -834784 89379.2 0 -834662 89493.6 0 -834539 89608.2 0 -834417 89723 0 -834295 89838.2 0 -834172 89953.6 0 -834050 90069.3 0 -833927 90185.3 0 -833804 90301.5 0 -833682 90417.9 0 -833559 90534.6 0 -833437 90651.5 0 -833314 90768.7 0 -833192 90886.1 0 -833069 91003.7 0 -832947 91121.5 0 -832824 91239.4 0 -832702 91357.6 0 -832580 91476 0 -832457 91594.5 0 -832335 91713.2 0 -832213 91832 0 -832091 91951 0 -831969 92070.1 0 -831846 92189.2 0 -831724 92308.5 0 -831602 92428 0 -831480 92547.6 0 -831358 92667.6 0 -831236 92789 0 -847511 81052.7 0 -847427 81158.9 0 -847344 81264.5 0 -847260 81369.8 0 -847175 81475.1 0 -847090 81580.3 0 -847004 81685.6 0 -846918 81790.8 0 -846831 81896 0 -846744 82001.2 0 -846656 82106.4 0 -846568 82211.5 0 -846479 82316.7 0 -846390 82421.8 0 -846301 82526.9 0 -846211 82632.1 0 -846121 82737.2 0 -846030 82842.3 0 -845939 82947.4 0 -845847 83052.5 0 -845755 83157.6 0 -845662 83262.8 0 -845569 83367.9 0 -845475 83473.1 0 -845381 83578.4 0 -845287 83683.6 0 -845192 83788.9 0 -845097 83894.2 0 -845001 83999.6 0 -844905 84105 0 -844808 84210.5 0 -844711 84316.1 0 -844613 84421.7 0 -844516 84527.4 0 -844417 84633.2 0 -844318 84739 0 -844219 84845 0 -844119 84951 0 -844019 85057.1 0 -843919 85163.3 0 -843818 85269.7 0 -843717 85376.1 0 -843615 85482.6 0 -843513 85589.3 0 -843410 85696 0 -843307 85802.9 0 -843204 85909.9 0 -843100 86017.1 0 -842996 86124.3 0 -842892 86231.7 0 -842787 86339.3 0 -842682 86446.9 0 -842576 86554.8 0 -842470 86662.7 0 -842364 86770.8 0 -842257 86879.1 0 -842150 86987.5 0 -842043 87096.1 0 -841935 87204.9 0 -841827 87313.8 0 -841718 87422.8 0 -841610 87532.1 0 -841500 87641.5 0 -841391 87751 0 -841281 87860.8 0 -841171 87970.7 0 -841061 88080.8 0 -840950 88191.1 0 -840839 88301.5 0 -840728 88412.2 0 -840617 88523 0 -840505 88634 0 -840393 88745.2 0 -840281 88856.5 0 -840168 88968.1 0 -840055 89079.8 0 -839942 89191.7 0 -839829 89303.8 0 -839715 89416.1 0 -839601 89528.6 0 -839487 89641.3 0 -839373 89754.1 0 -839258 89867.2 0 -839143 89980.4 0 -839028 90093.8 0 -838913 90207.4 0 -838798 90321.2 0 -838682 90435.2 0 -838566 90549.3 0 -838450 90663.6 0 -838334 90778.1 0 -838218 90892.8 0 -838101 91007.7 0 -837984 91122.7 0 -837868 91237.9 0 -837751 91353.3 0 -837633 91468.9 0 -837516 91584.6 0 -837399 91700.5 0 -837281 91816.5 0 -837163 91932.7 0 -837045 92049.1 0 -836927 92165.6 0 -836809 92282.3 0 -836691 92399.1 0 -836573 92516.1 0 -836454 92633.2 0 -836335 92750.4 0 -836217 92867.8 0 -836098 92985.4 0 -835979 93103 0 -835860 93220.8 0 -835741 93338.7 0 -835622 93456.8 0 -835503 93574.9 0 -835384 93693.2 0 -835264 93811.6 0 -835145 93930.1 0 -835025 94048.7 0 -834906 94167.4 0 -834786 94286.2 0 -834667 94405.2 0 -834547 94524.2 0 -834428 94643.3 0 -834308 94762.5 0 -834188 94881.7 0 -834069 95000.9 0 -833949 95119.6 0 -849972 82621.8 0 -849888 82736.1 0 -849803 82850.6 0 -849718 82965.1 0 -849633 83079.5 0 -849547 83193.9 0 -849461 83308.2 0 -849374 83422.4 0 -849287 83536.6 0 -849200 83650.7 0 -849112 83764.8 0 -849024 83878.8 0 -848936 83992.8 0 -848847 84106.7 0 -848758 84220.6 0 -848668 84334.5 0 -848578 84448.4 0 -848488 84562.2 0 -848397 84676.1 0 -848306 84789.9 0 -848215 84903.7 0 -848123 85017.5 0 -848031 85131.3 0 -847938 85245.1 0 -847845 85358.9 0 -847752 85472.7 0 -847658 85586.5 0 -847564 85700.3 0 -847470 85814.2 0 -847375 85928 0 -847280 86041.9 0 -847184 86155.8 0 -847088 86269.7 0 -846992 86383.6 0 -846895 86497.6 0 -846798 86611.6 0 -846701 86725.6 0 -846603 86839.7 0 -846505 86953.8 0 -846407 87068 0 -846308 87182.2 0 -846209 87296.4 0 -846109 87410.7 0 -846009 87525 0 -845909 87639.4 0 -845809 87753.9 0 -845708 87868.4 0 -845607 87983 0 -845505 88097.6 0 -845403 88212.3 0 -845301 88327.1 0 -845198 88441.9 0 -845096 88556.8 0 -844992 88671.8 0 -844889 88786.8 0 -844785 88902 0 -844681 89017.2 0 -844576 89132.4 0 -844472 89247.8 0 -844367 89363.3 0 -844261 89478.8 0 -844156 89594.4 0 -844050 89710.1 0 -843943 89825.9 0 -843837 89941.8 0 -843730 90057.8 0 -843623 90173.8 0 -843515 90290 0 -843408 90406.2 0 -843300 90522.6 0 -843192 90639 0 -843083 90755.5 0 -842974 90872.2 0 -842865 90988.9 0 -842756 91105.7 0 -842646 91222.7 0 -842536 91339.7 0 -842426 91456.8 0 -842316 91574 0 -842205 91691.3 0 -842095 91808.8 0 -841984 91926.3 0 -841872 92043.9 0 -841761 92161.6 0 -841649 92279.4 0 -841537 92397.3 0 -841425 92515.3 0 -841312 92633.4 0 -841200 92751.6 0 -841087 92869.9 0 -840974 92988.3 0 -840860 93106.8 0 -840747 93225.4 0 -840633 93344.1 0 -840519 93462.9 0 -840405 93581.7 0 -840291 93700.7 0 -840176 93819.7 0 -840062 93938.8 0 -839947 94058.1 0 -839832 94177.4 0 -839717 94296.7 0 -839601 94416.2 0 -839486 94535.8 0 -839370 94655.4 0 -839254 94775.1 0 -839138 94894.9 0 -839022 95014.7 0 -838906 95134.6 0 -838789 95254.6 0 -838672 95374.7 0 -838556 95494.8 0 -838439 95615 0 -838321 95735.2 0 -838204 95855.5 0 -838087 95975.9 0 -837969 96096.3 0 -837852 96216.8 0 -837734 96337.3 0 -837616 96457.8 0 -837498 96578.4 0 -837379 96699 0 -837261 96819.7 0 -837143 96940.3 0 -837024 97061.1 0 -836905 97181.8 0 -836786 97302.6 0 -836667 97423.7 0 -852604 84193.7 0 -852519 84315.8 0 -852433 84437.8 0 -852348 84559.7 0 -852262 84681.5 0 -852176 84803.4 0 -852089 84925.1 0 -852002 85046.8 0 -851915 85168.5 0 -851827 85290.1 0 -851739 85411.7 0 -851651 85533.3 0 -851562 85654.8 0 -851473 85776.3 0 -851384 85897.7 0 -851295 86019.1 0 -851205 86140.5 0 -851114 86261.8 0 -851024 86383.1 0 -850933 86504.4 0 -850842 86625.7 0 -850750 86746.9 0 -850658 86868.1 0 -850566 86989.3 0 -850473 87110.5 0 -850381 87231.6 0 -850287 87352.8 0 -850194 87473.9 0 -850100 87595 0 -850006 87716.1 0 -849911 87837.2 0 -849816 87958.3 0 -849721 88079.4 0 -849626 88200.5 0 -849530 88321.6 0 -849434 88442.7 0 -849337 88563.7 0 -849241 88684.8 0 -849144 88805.9 0 -849046 88927 0 -848948 89048.2 0 -848850 89169.3 0 -848752 89290.4 0 -848653 89411.6 0 -848555 89532.7 0 -848455 89653.9 0 -848356 89775.1 0 -848256 89896.4 0 -848156 90017.6 0 -848055 90138.9 0 -847954 90260.1 0 -847853 90381.5 0 -847752 90502.8 0 -847650 90624.2 0 -847548 90745.6 0 -847446 90867 0 -847344 90988.4 0 -847241 91109.9 0 -847138 91231.4 0 -847034 91353 0 -846931 91474.6 0 -846827 91596.2 0 -846722 91717.8 0 -846618 91839.5 0 -846513 91961.3 0 -846408 92083 0 -846303 92204.8 0 -846197 92326.7 0 -846091 92448.6 0 -845985 92570.5 0 -845879 92692.5 0 -845772 92814.5 0 -845665 92936.6 0 -845558 93058.7 0 -845450 93180.8 0 -845343 93303 0 -845235 93425.2 0 -845126 93547.5 0 -845018 93669.8 0 -844909 93792.2 0 -844800 93914.6 0 -844691 94037 0 -844581 94159.5 0 -844472 94282.1 0 -844362 94404.7 0 -844252 94527.3 0 -844141 94650 0 -844031 94772.7 0 -843920 94895.5 0 -843809 95018.3 0 -843697 95141.1 0 -843586 95264 0 -843474 95387 0 -843362 95509.9 0 -843250 95633 0 -843137 95756 0 -843025 95879.1 0 -842912 96002.3 0 -842799 96125.4 0 -842685 96248.7 0 -842572 96371.9 0 -842458 96495.2 0 -842344 96618.5 0 -842230 96741.9 0 -842116 96865.3 0 -842001 96988.7 0 -841887 97112.2 0 -841772 97235.7 0 -841657 97359.2 0 -841541 97482.7 0 -841426 97606.3 0 -841310 97729.9 0 -841195 97853.5 0 -841079 97977.2 0 -840962 98100.9 0 -840846 98224.6 0 -840729 98348.3 0 -840613 98472 0 -840496 98595.8 0 -840379 98719.5 0 -840261 98843.3 0 -840144 98967.1 0 -840026 99090.9 0 -839908 99214.7 0 -839791 99338.6 0 -839672 99462.4 0 -839554 99586.2 0 -839436 99710 0 -855385 85768.2 0 -855299 85896.9 0 -855213 86025.6 0 -855127 86154.3 0 -855041 86282.9 0 -854954 86411.5 0 -854867 86540 0 -854779 86668.5 0 -854691 86796.9 0 -854603 86925.2 0 -854515 87053.5 0 -854426 87181.8 0 -854337 87310 0 -854248 87438.1 0 -854159 87566.3 0 -854069 87694.4 0 -853979 87822.4 0 -853888 87950.4 0 -853797 88078.4 0 -853706 88206.3 0 -853615 88334.2 0 -853523 88462.1 0 -853431 88589.9 0 -853339 88717.7 0 -853247 88845.5 0 -853154 88973.2 0 -853061 89100.9 0 -852967 89228.6 0 -852873 89356.3 0 -852779 89483.9 0 -852685 89611.5 0 -852591 89739.1 0 -852496 89866.7 0 -852400 89994.2 0 -852305 90121.8 0 -852209 90249.3 0 -852113 90376.8 0 -852017 90504.2 0 -851920 90631.7 0 -851823 90759.1 0 -851726 90886.6 0 -851628 91014 0 -851530 91141.4 0 -851432 91268.8 0 -851334 91396.2 0 -851235 91523.6 0 -851136 91651 0 -851037 91778.3 0 -850937 91905.7 0 -850838 92033.1 0 -850738 92160.4 0 -850637 92287.8 0 -850537 92415.1 0 -850436 92542.5 0 -850334 92669.8 0 -850233 92797.2 0 -850131 92924.5 0 -850029 93051.9 0 -849927 93179.2 0 -849824 93306.6 0 -849721 93434 0 -849618 93561.3 0 -849515 93688.7 0 -849411 93816.1 0 -849307 93943.5 0 -849203 94070.8 0 -849099 94198.2 0 -848994 94325.6 0 -848889 94453.1 0 -848784 94580.5 0 -848678 94707.9 0 -848572 94835.3 0 -848466 94962.8 0 -848360 95090.2 0 -848254 95217.7 0 -848147 95345.2 0 -848040 95472.6 0 -847933 95600.1 0 -847825 95727.6 0 -847717 95855.2 0 -847609 95982.7 0 -847501 96110.2 0 -847392 96237.8 0 -847284 96365.3 0 -847175 96492.9 0 -847065 96620.5 0 -846956 96748.1 0 -846846 96875.7 0 -846736 97003.3 0 -846626 97130.9 0 -846516 97258.5 0 -846405 97386.2 0 -846294 97513.8 0 -846183 97641.5 0 -846072 97769.1 0 -845960 97896.8 0 -845848 98024.5 0 -845736 98152.2 0 -845624 98279.9 0 -845512 98407.6 0 -845399 98535.3 0 -845286 98663.1 0 -845173 98790.8 0 -845059 98918.5 0 -844946 99046.3 0 -844832 99174 0 -844718 99301.8 0 -844604 99429.5 0 -844489 99557.3 0 -844375 99685.1 0 -844260 99812.8 0 -844145 99940.6 0 -844030 100068 0 -843914 100196 0 -843798 100324 0 -843682 100452 0 -843566 100579 0 -843450 100707 0 -843334 100835 0 -843217 100963 0 -843100 101090 0 -842983 101218 0 -842865 101346 0 -842748 101473 0 -842630 101601 0 -842512 101729 0 -842394 101856 0 -842276 101984 0 -858302 87346.6 0 -858216 87481.5 0 -858129 87616.4 0 -858042 87751.3 0 -857955 87886 0 -857868 88020.8 0 -857780 88155.5 0 -857692 88290.1 0 -85