<?xml version="1.0"?> 
<VTKFile type="StructuredGrid" version="0.1"> 
<StructuredGrid WholeExtent="0 127 0 127 0 0"> 
<Piece Extent="0 127 0 127 0 0"> 
<PointData>
<DataArray type="Float32" Name="E" format="ascii" NumberOfComponents="3"> 
-811260 0 0 -808800 0 0 -806342 0 0 -803888 0 0 -801438 0 0 -798992 0 0 -796550 0 0 -794112 0 0 -791678 0 0 -789249 0 0 -786824 0 0 -784403 0 0 -781988 0 0 -779577 0 0 -777171 0 0 -774770 0 0 -772373 0 0 -769982 0 0 -767595 0 0 -765214 0 0 -762837 0 0 -760465 0 0 -758098 0 0 -755736 0 0 -753379 0 0 -751026 0 0 -748678 0 0 -746335 0 0 -743996 0 0 -741662 0 0 -739333 0 0 -737007 0 0 -734686 0 0 -732369 0 0 -730057 0 0 -727748 0 0 -725444 0 0 -723143 0 0 -720846 0 0 -718553 0 0 -716263 0 0 -713977 0 0 -711695 0 0 -709415 0 0 -707139 0 0 -704867 0 0 -702597 0 0 -700330 0 0 -698067 0 0 -695806 0 0 -693547 0 0 -691292 0 0 -689039 0 0 -686789 0 0 -684541 0 0 -682295 0 0 -680051 0 0 -677810 0 0 -675571 0 0 -673334 0 0 -671099 0 0 -668866 0 0 -666635 0 0 -664405 0 0 -662177 0 0 -659951 0 0 -657727 0 0 -655504 0 0 -653282 0 0 -651062 0 0 -648843 0 0 -646626 0 0 -644410 0 0 -642195 0 0 -639981 0 0 -637769 0 0 -635557 0 0 -633347 0 0 -631137 0 0 -628929 0 0 -626721 0 0 -624515 0 0 -622309 0 0 -620104 0 0 -617900 0 0 -615696 0 0 -613493 0 0 -611291 0 0 -609090 0 0 -606889 0 0 -604689 0 0 -602489 0 0 -600290 0 0 -598092 0 0 -595894 0 0 -593696 0 0 -591499 0 0 -589302 0 0 -587106 0 0 -584910 0 0 -582715 0 0 -580519 0 0 -578324 0 0 -576130 0 0 -573936 0 0 -571742 0 0 -569548 0 0 -567355 0 0 -565161 0 0 -562968 0 0 -560775 0 0 -558583 0 0 -556390 0 0 -554198 0 0 -552006 0 0 -549814 0 0 -547622 0 0 -545430 0 0 -543239 0 0 -541047 0 0 -538856 0 0 -536664 0 0 -534473 0 0 -532282 0 0 -530091 0 0 -527899 0 0 -525708 0 0 -523517 0 0 -811260 1338.21 0 -808799 1336.46 0 -806342 1334.6 0 -803888 1332.64 0 -801438 1330.58 0 -798991 1328.43 0 -796549 1326.2 0 -794111 1323.9 0 -791677 1321.53 0 -789248 1319.1 0 -786823 1316.62 0 -784403 1314.1 0 -781987 1311.54 0 -779576 1308.94 0 -777170 1306.32 0 -774769 1303.68 0 -772373 1301.02 0 -769981 1298.36 0 -767595 1295.69 0 -765213 1293.03 0 -762836 1290.37 0 -760465 1287.72 0 -758098 1285.08 0 -755735 1282.47 0 -753378 1279.87 0 -751026 1277.3 0 -748678 1274.76 0 -746334 1272.25 0 -743996 1269.78 0 -741662 1267.34 0 -739332 1264.94 0 -737007 1262.58 0 -734686 1260.26 0 -732369 1257.99 0 -730056 1255.76 0 -727748 1253.57 0 -725443 1251.43 0 -723142 1249.34 0 -720845 1247.3 0 -718552 1245.3 0 -716263 1243.36 0 -713977 1241.46 0 -711694 1239.61 0 -709415 1237.81 0 -707139 1236.06 0 -704866 1234.35 0 -702597 1232.7 0 -700330 1231.09 0 -698066 1229.53 0 -695805 1228.01 0 -693547 1226.54 0 -691292 1225.12 0 -689039 1223.74 0 -686788 1222.4 0 -684540 1221.1 0 -682294 1219.85 0 -680051 1218.64 0 -677810 1217.46 0 -675571 1216.33 0 -673334 1215.24 0 -671099 1214.18 0 -668866 1213.16 0 -666634 1212.17 0 -664405 1211.22 0 -662177 1210.3 0 -659951 1209.42 0 -657726 1208.57 0 -655503 1207.74 0 -653282 1206.95 0 -651062 1206.19 0 -648843 1205.46 0 -646626 1204.75 0 -644410 1204.07 0 -642195 1203.42 0 -639981 1202.79 0 -637768 1202.19 0 -635557 1201.61 0 -633347 1201.05 0 -631137 1200.52 0 -628929 1200 0 -626721 1199.51 0 -624514 1199.04 0 -622309 1198.58 0 -620104 1198.15 0 -617899 1197.73 0 -615696 1197.34 0 -613493 1196.96 0 -611291 1196.59 0 -609090 1196.24 0 -606889 1195.91 0 -604689 1195.59 0 -602489 1195.29 0 -600290 1195 0 -598092 1194.72 0 -595894 1194.46 0 -593696 1194.21 0 -591499 1193.97 0 -589302 1193.74 0 -587106 1193.53 0 -584910 1193.32 0 -582714 1193.13 0 -580519 1192.94 0 -578324 1192.77 0 -576130 1192.6 0 -573936 1192.45 0 -571742 1192.3 0 -569548 1192.16 0 -567355 1192.03 0 -565161 1191.91 0 -562968 1191.8 0 -560775 1191.69 0 -558583 1191.59 0 -556390 1191.5 0 -554198 1191.42 0 -552006 1191.34 0 -549814 1191.26 0 -547622 1191.2 0 -545430 1191.14 0 -543239 1191.08 0 -541047 1191.03 0 -538856 1190.99 0 -536664 1190.95 0 -534473 1190.91 0 -532282 1190.88 0 -530091 1190.86 0 -527899 1190.84 0 -525708 1190.82 0 -523517 1190.81 0 -811258 2676.46 0 -808798 2672.96 0 -806340 2669.23 0 -803886 2665.3 0 -801436 2661.18 0 -798990 2656.88 0 -796547 2652.42 0 -794109 2647.81 0 -791675 2643.07 0 -789246 2638.22 0 -786821 2633.26 0 -784401 2628.21 0 -781985 2623.08 0 -779574 2617.89 0 -777168 2612.65 0 -774767 2607.36 0 -772371 2602.05 0 -769979 2596.72 0 -767593 2591.39 0 -765211 2586.05 0 -762834 2580.73 0 -760462 2575.43 0 -758095 2570.16 0 -755733 2564.93 0 -753376 2559.74 0 -751023 2554.6 0 -748676 2549.52 0 -746332 2544.5 0 -743994 2539.55 0 -741660 2534.67 0 -739330 2529.87 0 -737005 2525.15 0 -734684 2520.51 0 -732367 2515.96 0 -730054 2511.5 0 -727746 2507.13 0 -725441 2502.85 0 -723141 2498.67 0 -720844 2494.58 0 -718551 2490.59 0 -716261 2486.7 0 -713975 2482.9 0 -711693 2479.21 0 -709413 2475.61 0 -707138 2472.1 0 -704865 2468.69 0 -702595 2465.38 0 -700329 2462.16 0 -698065 2459.04 0 -695804 2456.01 0 -693546 2453.07 0 -691290 2450.22 0 -689037 2447.46 0 -686787 2444.78 0 -684539 2442.19 0 -682293 2439.69 0 -680050 2437.26 0 -677809 2434.92 0 -675570 2432.65 0 -673333 2430.46 0 -671098 2428.35 0 -668865 2426.3 0 -666634 2424.33 0 -664404 2422.43 0 -662176 2420.6 0 -659950 2418.83 0 -657726 2417.12 0 -655503 2415.48 0 -653281 2413.9 0 -651061 2412.37 0 -648842 2410.91 0 -646625 2409.49 0 -644409 2408.14 0 -642194 2406.83 0 -639980 2405.57 0 -637768 2404.37 0 -635556 2403.21 0 -633346 2402.09 0 -631137 2401.02 0 -628928 2400 0 -626721 2399.01 0 -624514 2398.07 0 -622308 2397.16 0 -620103 2396.3 0 -617899 2395.46 0 -615696 2394.67 0 -613493 2393.91 0 -611291 2393.18 0 -609089 2392.48 0 -606889 2391.81 0 -604689 2391.18 0 -602489 2390.57 0 -600290 2389.99 0 -598091 2389.44 0 -595893 2388.91 0 -593696 2388.41 0 -591499 2387.93 0 -589302 2387.48 0 -587106 2387.05 0 -584910 2386.64 0 -582714 2386.25 0 -580519 2385.88 0 -578324 2385.53 0 -576130 2385.2 0 -573936 2384.89 0 -571742 2384.6 0 -569548 2384.33 0 -567354 2384.07 0 -565161 2383.82 0 -562968 2383.6 0 -560775 2383.38 0 -558583 2383.18 0 -556390 2383 0 -554198 2382.83 0 -552006 2382.67 0 -549814 2382.53 0 -547622 2382.39 0 -545430 2382.27 0 -543239 2382.16 0 -541047 2382.06 0 -538856 2381.97 0 -536664 2381.89 0 -534473 2381.83 0 -532282 2381.77 0 -530091 2381.72 0 -527899 2381.67 0 -525708 2381.64 0 -523517 2381.62 0 -811256 4014.78 0 -808795 4009.52 0 -806338 4003.93 0 -803884 3998.02 0 -801433 3991.83 0 -798987 3985.38 0 -796544 3978.68 0 -794106 3971.77 0 -791672 3964.65 0 -789243 3957.36 0 -786818 3949.92 0 -784397 3942.34 0 -781982 3934.64 0 -779571 3926.85 0 -777165 3918.98 0 -774763 3911.05 0 -772367 3903.08 0 -769975 3895.09 0 -767589 3887.08 0 -765207 3879.08 0 -762831 3871.09 0 -760459 3863.14 0 -758092 3855.23 0 -755730 3847.38 0 -753372 3839.59 0 -751020 3831.88 0 -748672 3824.25 0 -746329 3816.72 0 -743990 3809.3 0 -741656 3801.98 0 -739327 3794.77 0 -737001 3787.69 0 -734681 3780.73 0 -732364 3773.91 0 -730051 3767.21 0 -727743 3760.66 0 -725438 3754.24 0 -723138 3747.97 0 -720841 3741.84 0 -718548 3735.85 0 -716259 3730.01 0 -713973 3724.32 0 -711690 3718.77 0 -709411 3713.37 0 -707135 3708.12 0 -704863 3703.01 0 -702593 3698.04 0 -700326 3693.21 0 -698063 3688.53 0 -695802 3683.98 0 -693544 3679.57 0 -691288 3675.3 0 -689036 3671.15 0 -686785 3667.14 0 -684537 3663.26 0 -682292 3659.5 0 -680049 3655.86 0 -677807 3652.35 0 -675568 3648.95 0 -673331 3645.66 0 -671096 3642.49 0 -668863 3639.43 0 -666632 3636.47 0 -664403 3633.62 0 -662175 3630.87 0 -659949 3628.22 0 -657725 3625.66 0 -655502 3623.2 0 -653280 3620.82 0 -651060 3618.54 0 -648842 3616.34 0 -646624 3614.22 0 -644408 3612.19 0 -642193 3610.23 0 -639980 3608.34 0 -637767 3606.53 0 -635556 3604.79 0 -633345 3603.12 0 -631136 3601.52 0 -628928 3599.98 0 -626720 3598.51 0 -624513 3597.09 0 -622308 3595.73 0 -620103 3594.43 0 -617899 3593.18 0 -615695 3591.99 0 -613492 3590.85 0 -611290 3589.75 0 -609089 3588.71 0 -606888 3587.71 0 -604688 3586.76 0 -602489 3585.85 0 -600290 3584.98 0 -598091 3584.15 0 -595893 3583.36 0 -593695 3582.61 0 -591498 3581.89 0 -589302 3581.21 0 -587105 3580.56 0 -584910 3579.95 0 -582714 3579.37 0 -580519 3578.82 0 -578324 3578.29 0 -576130 3577.8 0 -573935 3577.33 0 -571741 3576.9 0 -569548 3576.48 0 -567354 3576.09 0 -565161 3575.73 0 -562968 3575.39 0 -560775 3575.07 0 -558583 3574.77 0 -556390 3574.5 0 -554198 3574.24 0 -552006 3574 0 -549814 3573.78 0 -547622 3573.58 0 -545430 3573.4 0 -543239 3573.24 0 -541047 3573.09 0 -538856 3572.96 0 -536664 3572.84 0 -534473 3572.73 0 -532282 3572.65 0 -530091 3572.57 0 -527899 3572.51 0 -525708 3572.46 0 -523517 3572.42 0 -811253 5353.2 0 -808792 5346.18 0 -806334 5338.71 0 -803880 5330.83 0 -801429 5322.56 0 -798982 5313.95 0 -796540 5305.01 0 -794102 5295.78 0 -791667 5286.29 0 -789238 5276.56 0 -786813 5266.62 0 -784392 5256.5 0 -781977 5246.24 0 -779566 5235.84 0 -777159 5225.34 0 -774758 5214.76 0 -772362 5204.12 0 -769970 5193.45 0 -767584 5182.77 0 -765202 5172.09 0 -762826 5161.44 0 -760454 5150.83 0 -758087 5140.28 0 -755725 5129.8 0 -753368 5119.42 0 -751015 5109.13 0 -748667 5098.96 0 -746324 5088.92 0 -743986 5079.01 0 -741652 5069.25 0 -739322 5059.64 0 -736997 5050.19 0 -734676 5040.92 0 -732360 5031.81 0 -730047 5022.89 0 -727739 5014.14 0 -725434 5005.59 0 -723134 4997.22 0 -720837 4989.05 0 -718544 4981.07 0 -716255 4973.28 0 -713969 4965.69 0 -711687 4958.3 0 -709408 4951.1 0 -707132 4944.09 0 -704859 4937.28 0 -702590 4930.65 0 -700323 4924.22 0 -698060 4917.97 0 -695799 4911.91 0 -693541 4906.03 0 -691286 4900.33 0 -689033 4894.81 0 -686783 4889.46 0 -684535 4884.29 0 -682289 4879.28 0 -680046 4874.43 0 -677805 4869.74 0 -675566 4865.21 0 -673329 4860.83 0 -671095 4856.61 0 -668862 4852.52 0 -666630 4848.58 0 -664401 4844.78 0 -662173 4841.12 0 -659947 4837.58 0 -657723 4834.17 0 -655500 4830.89 0 -653279 4827.73 0 -651059 4824.68 0 -648840 4821.75 0 -646623 4818.93 0 -644407 4816.21 0 -642192 4813.6 0 -639978 4811.09 0 -637766 4808.68 0 -635555 4806.36 0 -633344 4804.14 0 -631135 4802 0 -628927 4799.95 0 -626719 4797.98 0 -624513 4796.09 0 -622307 4794.28 0 -620102 4792.55 0 -617898 4790.89 0 -615694 4789.3 0 -613492 4787.77 0 -611290 4786.32 0 -609088 4784.92 0 -606888 4783.59 0 -604688 4782.32 0 -602488 4781.11 0 -600289 4779.95 0 -598090 4778.85 0 -595892 4777.79 0 -593695 4776.79 0 -591498 4775.84 0 -589301 4774.93 0 -587105 4774.07 0 -584909 4773.25 0 -582714 4772.48 0 -580519 4771.74 0 -578324 4771.05 0 -576129 4770.39 0 -573935 4769.77 0 -571741 4769.18 0 -569547 4768.63 0 -567354 4768.11 0 -565161 4767.63 0 -562968 4767.17 0 -560775 4766.75 0 -558582 4766.35 0 -556390 4765.98 0 -554198 4765.64 0 -552006 4765.33 0 -549814 4765.04 0 -547622 4764.77 0 -545430 4764.53 0 -543239 4764.31 0 -541047 4764.11 0 -538856 4763.93 0 -536664 4763.78 0 -534473 4763.64 0 -532282 4763.52 0 -530091 4763.42 0 -527899 4763.34 0 -525708 4763.27 0 -523517 4763.22 0 -811249 6691.77 0 -808787 6682.97 0 -806329 6673.62 0 -803875 6663.75 0 -801424 6653.4 0 -798977 6642.61 0 -796534 6631.43 0 -794096 6619.87 0 -791662 6607.99 0 -789232 6595.81 0 -786807 6583.38 0 -784386 6570.72 0 -781970 6557.87 0 -779559 6544.86 0 -777153 6531.72 0 -774752 6518.48 0 -772355 6505.17 0 -769964 6491.82 0 -767577 6478.46 0 -765196 6465.1 0 -762819 6451.78 0 -760447 6438.51 0 -758080 6425.31 0 -755718 6412.21 0 -753361 6399.21 0 -751009 6386.35 0 -748661 6373.63 0 -746318 6361.07 0 -743980 6348.68 0 -741646 6336.48 0 -739316 6324.46 0 -736991 6312.65 0 -734671 6301.05 0 -732354 6289.67 0 -730042 6278.51 0 -727733 6267.58 0 -725429 6256.88 0 -723129 6246.42 0 -720832 6236.21 0 -718539 6226.23 0 -716250 6216.5 0 -713964 6207.01 0 -711682 6197.76 0 -709403 6188.76 0 -707128 6180.01 0 -704855 6171.49 0 -702586 6163.21 0 -700320 6155.17 0 -698056 6147.36 0 -695795 6139.79 0 -693538 6132.44 0 -691282 6125.32 0 -689030 6118.42 0 -686780 6111.74 0 -684532 6105.26 0 -682286 6099 0 -680043 6092.95 0 -677802 6087.09 0 -675564 6081.43 0 -673327 6075.96 0 -671092 6070.68 0 -668859 6065.58 0 -666628 6060.65 0 -664399 6055.9 0 -662171 6051.32 0 -659945 6046.9 0 -657721 6042.65 0 -655498 6038.54 0 -653277 6034.59 0 -651057 6030.79 0 -648838 6027.12 0 -646621 6023.6 0 -644405 6020.21 0 -642191 6016.95 0 -639977 6013.81 0 -637765 6010.8 0 -635553 6007.9 0 -633343 6005.12 0 -631134 6002.45 0 -628925 5999.89 0 -626718 5997.43 0 -624511 5995.07 0 -622306 5992.81 0 -620101 5990.64 0 -617897 5988.57 0 -615693 5986.58 0 -613491 5984.68 0 -611289 5982.86 0 -609088 5981.12 0 -606887 5979.46 0 -604687 5977.87 0 -602487 5976.35 0 -600288 5974.91 0 -598090 5973.53 0 -595892 5972.21 0 -593694 5970.96 0 -591497 5969.77 0 -589301 5968.64 0 -587105 5967.56 0 -584909 5966.54 0 -582713 5965.57 0 -580518 5964.65 0 -578323 5963.79 0 -576129 5962.96 0 -573935 5962.19 0 -571741 5961.46 0 -569547 5960.77 0 -567354 5960.12 0 -565161 5959.52 0 -562968 5958.95 0 -560775 5958.42 0 -558582 5957.93 0 -556390 5957.47 0 -554198 5957.04 0 -552005 5956.65 0 -549814 5956.28 0 -547622 5955.95 0 -545430 5955.65 0 -543238 5955.37 0 -541047 5955.13 0 -538855 5954.91 0 -536664 5954.71 0 -534473 5954.54 0 -532282 5954.39 0 -530090 5954.27 0 -527899 5954.16 0 -525708 5954.08 0 -523517 5954.02 0 -811244 8030.5 0 -808782 8019.92 0 -806323 8008.67 0 -803869 7996.81 0 -801418 7984.37 0 -798971 7971.4 0 -796528 7957.95 0 -794089 7944.06 0 -791654 7929.78 0 -789224 7915.14 0 -786799 7900.2 0 -784378 7884.98 0 -781963 7869.54 0 -779551 7853.91 0 -777145 7838.12 0 -774744 7822.22 0 -772347 7806.24 0 -769956 7790.2 0 -767569 7774.15 0 -765188 7758.1 0 -762811 7742.1 0 -760439 7726.16 0 -758073 7710.31 0 -755711 7694.57 0 -753353 7678.97 0 -751001 7663.53 0 -748654 7648.26 0 -746311 7633.18 0 -743972 7618.3 0 -741639 7603.65 0 -739309 7589.22 0 -736984 7575.04 0 -734664 7561.12 0 -732347 7547.45 0 -730035 7534.06 0 -727727 7520.94 0 -725423 7508.1 0 -723123 7495.55 0 -720826 7483.29 0 -718533 7471.32 0 -716244 7459.64 0 -713959 7448.25 0 -711677 7437.16 0 -709398 7426.36 0 -707123 7415.85 0 -704850 7405.63 0 -702581 7395.7 0 -700315 7386.05 0 -698051 7376.69 0 -695791 7367.6 0 -693533 7358.78 0 -691278 7350.24 0 -689026 7341.96 0 -686776 7333.94 0 -684528 7326.18 0 -682283 7318.67 0 -680040 7311.41 0 -677799 7304.38 0 -675560 7297.59 0 -673324 7291.03 0 -671089 7284.69 0 -668856 7278.57 0 -666625 7272.67 0 -664396 7266.97 0 -662168 7261.48 0 -659943 7256.18 0 -657718 7251.07 0 -655496 7246.15 0 -653274 7241.42 0 -651055 7236.85 0 -648836 7232.46 0 -646619 7228.23 0 -644403 7224.16 0 -642189 7220.25 0 -639975 7216.49 0 -637763 7212.88 0 -635552 7209.41 0 -633341 7206.07 0 -631132 7202.87 0 -628924 7199.8 0 -626716 7196.85 0 -624510 7194.02 0 -622304 7191.31 0 -620100 7188.71 0 -617896 7186.23 0 -615692 7183.84 0 -613490 7181.56 0 -611288 7179.38 0 -609086 7177.3 0 -606886 7175.3 0 -604686 7173.4 0 -602486 7171.58 0 -600287 7169.85 0 -598089 7168.19 0 -595891 7166.62 0 -593694 7165.12 0 -591497 7163.69 0 -589300 7162.33 0 -587104 7161.04 0 -584908 7159.81 0 -582713 7158.65 0 -580518 7157.55 0 -578323 7156.51 0 -576128 7155.53 0 -573934 7154.6 0 -571740 7153.72 0 -569547 7152.9 0 -567353 7152.12 0 -565160 7151.4 0 -562967 7150.72 0 -560774 7150.08 0 -558582 7149.49 0 -556390 7148.94 0 -554197 7148.43 0 -552005 7147.95 0 -549813 7147.52 0 -547622 7147.12 0 -545430 7146.76 0 -543238 7146.43 0 -541047 7146.13 0 -538855 7145.87 0 -536664 7145.64 0 -534473 7145.43 0 -532282 7145.25 0 -530090 7145.1 0 -527899 7144.98 0 -525708 7144.89 0 -523517 7144.81 0 -811238 9369.45 0 -808775 9357.07 0 -806317 9343.91 0 -803861 9330.04 0 -801410 9315.49 0 -798963 9300.33 0 -796519 9284.6 0 -794080 9268.36 0 -791646 9251.67 0 -789216 9234.56 0 -786790 9217.1 0 -784369 9199.32 0 -781953 9181.28 0 -779542 9163.01 0 -777136 9144.57 0 -774734 9125.99 0 -772338 9107.31 0 -769946 9088.58 0 -767560 9069.83 0 -765178 9051.09 0 -762802 9032.4 0 -760430 9013.78 0 -758063 8995.28 0 -755701 8976.9 0 -753344 8958.69 0 -750992 8940.65 0 -748645 8922.82 0 -746302 8905.22 0 -743964 8887.85 0 -741630 8870.75 0 -739301 8853.91 0 -736976 8837.36 0 -734656 8821.11 0 -732339 8805.16 0 -730027 8789.53 0 -727719 8774.22 0 -725415 8759.24 0 -723115 8744.6 0 -720819 8730.29 0 -718527 8716.32 0 -716238 8702.69 0 -713952 8689.41 0 -711670 8676.47 0 -709392 8663.87 0 -707116 8651.61 0 -704844 8639.69 0 -702575 8628.1 0 -700309 8616.85 0 -698046 8605.93 0 -695786 8595.33 0 -693528 8585.05 0 -691273 8575.08 0 -689021 8565.43 0 -686771 8556.08 0 -684524 8547.03 0 -682278 8538.27 0 -680036 8529.79 0 -677795 8521.6 0 -675556 8513.68 0 -673320 8506.03 0 -671085 8498.64 0 -668853 8491.51 0 -666622 8484.63 0 -664393 8477.98 0 -662165 8471.58 0 -659940 8465.4 0 -657715 8459.45 0 -655493 8453.71 0 -653272 8448.19 0 -651052 8442.87 0 -648834 8437.74 0 -646617 8432.82 0 -644401 8428.07 0 -642186 8423.52 0 -639973 8419.13 0 -637761 8414.92 0 -635550 8410.87 0 -633339 8406.98 0 -631130 8403.25 0 -628922 8399.67 0 -626715 8396.23 0 -624508 8392.94 0 -622303 8389.78 0 -620098 8386.75 0 -617894 8383.85 0 -615691 8381.07 0 -613488 8378.42 0 -611286 8375.87 0 -609085 8373.44 0 -606885 8371.12 0 -604685 8368.9 0 -602485 8366.78 0 -600286 8364.76 0 -598088 8362.83 0 -595890 8361 0 -593693 8359.25 0 -591496 8357.58 0 -589299 8356 0 -587103 8354.5 0 -584907 8353.07 0 -582712 8351.72 0 -580517 8350.43 0 -578322 8349.22 0 -576128 8348.07 0 -573934 8346.99 0 -571740 8345.97 0 -569546 8345.01 0 -567353 8344.11 0 -565160 8343.26 0 -562967 8342.47 0 -560774 8341.73 0 -558582 8341.04 0 -556389 8340.4 0 -554197 8339.8 0 -552005 8339.25 0 -549813 8338.75 0 -547621 8338.28 0 -545430 8337.86 0 -543238 8337.48 0 -541047 8337.13 0 -538855 8336.83 0 -536664 8336.55 0 -534473 8336.31 0 -532281 8336.11 0 -530090 8335.94 0 -527899 8335.79 0 -525708 8335.68 0 -523517 8335.6 0 -811231 10708.6 0 -808768 10694.5 0 -806309 10679.4 0 -803853 10663.5 0 -801401 10646.8 0 -798954 10629.4 0 -796510 10611.4 0 -794071 10592.8 0 -791636 10573.7 0 -789206 10554.1 0 -786780 10534.1 0 -784359 10513.7 0 -781943 10493.1 0 -779531 10472.2 0 -777125 10451 0 -774724 10429.8 0 -772327 10408.4 0 -769935 10387 0 -767549 10365.5 0 -765167 10344.1 0 -762791 10322.7 0 -760419 10301.4 0 -758052 10280.2 0 -755691 10259.2 0 -753334 10238.3 0 -750982 10217.7 0 -748634 10197.3 0 -746292 10177.2 0 -743954 10157.3 0 -741620 10137.8 0 -739291 10118.5 0 -736966 10099.6 0 -734646 10081 0 -732330 10062.8 0 -730018 10044.9 0 -727711 10027.4 0 -725407 10010.3 0 -723107 9993.54 0 -720811 9977.18 0 -718518 9961.22 0 -716230 9945.64 0 -713945 9930.46 0 -711663 9915.67 0 -709384 9901.28 0 -707109 9887.27 0 -704837 9873.65 0 -702569 9860.41 0 -700303 9847.55 0 -698040 9835.07 0 -695780 9822.96 0 -693522 9811.22 0 -691267 9799.83 0 -689015 9788.8 0 -686766 9778.12 0 -684518 9767.78 0 -682273 9757.78 0 -680031 9748.1 0 -677790 9738.74 0 -675552 9729.7 0 -673315 9720.96 0 -671081 9712.52 0 -668848 9704.37 0 -666618 9696.51 0 -664389 9688.93 0 -662162 9681.61 0 -659936 9674.56 0 -657712 9667.76 0 -655490 9661.21 0 -653269 9654.9 0 -651049 9648.82 0 -648831 9642.97 0 -646614 9637.35 0 -644398 9631.93 0 -642184 9626.73 0 -639970 9621.72 0 -637758 9616.91 0 -635547 9612.29 0 -633337 9607.85 0 -631128 9603.59 0 -628920 9599.5 0 -626713 9595.58 0 -624506 9591.82 0 -622301 9588.21 0 -620096 9584.75 0 -617892 9581.44 0 -615689 9578.27 0 -613487 9575.24 0 -611285 9572.33 0 -609084 9569.56 0 -606883 9566.91 0 -604683 9564.37 0 -602484 9561.95 0 -600285 9559.65 0 -598087 9557.45 0 -595889 9555.35 0 -593692 9553.35 0 -591495 9551.45 0 -589298 9549.65 0 -587102 9547.93 0 -584907 9546.3 0 -582711 9544.76 0 -580516 9543.3 0 -578322 9541.91 0 -576127 9540.6 0 -573933 9539.37 0 -571739 9538.2 0 -569546 9537.11 0 -567352 9536.08 0 -565159 9535.11 0 -562966 9534.21 0 -560774 9533.36 0 -558581 9532.57 0 -556389 9531.84 0 -554197 9531.16 0 -552005 9530.54 0 -549813 9529.96 0 -547621 9529.43 0 -545429 9528.95 0 -543238 9528.51 0 -541046 9528.12 0 -538855 9527.77 0 -536664 9527.46 0 -534473 9527.19 0 -532281 9526.95 0 -530090 9526.76 0 -527899 9526.6 0 -525708 9526.47 0 -523517 9526.37 0 -811223 12048.1 0 -808760 12032.1 0 -806300 12015.1 0 -803844 11997.1 0 -801392 11978.3 0 -798943 11958.7 0 -796500 11938.4 0 -794060 11917.4 0 -791625 11895.8 0 -789194 11873.7 0 -786768 11851.2 0 -784347 11828.2 0 -781931 11804.9 0 -779519 11781.4 0 -777113 11757.6 0 -774711 11733.6 0 -772315 11709.5 0 -769923 11685.4 0 -767537 11661.2 0 -765155 11637 0 -762778 11612.9 0 -760407 11588.9 0 -758040 11565.1 0 -755679 11541.4 0 -753322 11517.9 0 -750970 11494.7 0 -748623 11471.8 0 -746280 11449.1 0 -743942 11426.7 0 -741609 11404.7 0 -739280 11383 0 -736956 11361.7 0 -734636 11340.8 0 -732320 11320.3 0 -730008 11300.2 0 -727701 11280.5 0 -725397 11261.2 0 -723097 11242.4 0 -720801 11224 0 -718509 11206 0 -716221 11188.5 0 -713936 11171.4 0 -711654 11154.8 0 -709376 11138.6 0 -707101 11122.8 0 -704830 11107.5 0 -702561 11092.6 0 -700295 11078.1 0 -698033 11064.1 0 -695773 11050.5 0 -693516 11037.3 0 -691261 11024.5 0 -689009 11012.1 0 -686760 11000.1 0 -684512 10988.4 0 -682268 10977.2 0 -680025 10966.3 0 -677785 10955.8 0 -675547 10945.6 0 -673310 10935.8 0 -671076 10926.3 0 -668844 10917.2 0 -666613 10908.3 0 -664385 10899.8 0 -662157 10891.6 0 -659932 10883.6 0 -657708 10876 0 -655486 10868.6 0 -653265 10861.5 0 -651046 10854.7 0 -648827 10848.1 0 -646611 10841.8 0 -644395 10835.7 0 -642181 10829.9 0 -639968 10824.3 0 -637756 10818.8 0 -635545 10813.7 0 -633335 10808.7 0 -631126 10803.9 0 -628918 10799.3 0 -626711 10794.9 0 -624504 10790.6 0 -622299 10786.6 0 -620094 10782.7 0 -617891 10779 0 -615687 10775.4 0 -613485 10772 0 -611283 10768.8 0 -609082 10765.6 0 -606882 10762.7 0 -604682 10759.8 0 -602483 10757.1 0 -600284 10754.5 0 -598086 10752 0 -595888 10749.7 0 -593691 10747.4 0 -591494 10745.3 0 -589297 10743.3 0 -587101 10741.3 0 -584906 10739.5 0 -582710 10737.8 0 -580515 10736.1 0 -578321 10734.6 0 -576126 10733.1 0 -573932 10731.7 0 -571739 10730.4 0 -569545 10729.2 0 -567352 10728 0 -565159 10726.9 0 -562966 10725.9 0 -560773 10725 0 -558581 10724.1 0 -556388 10723.3 0 -554196 10722.5 0 -552004 10721.8 0 -549812 10721.2 0 -547621 10720.6 0 -545429 10720 0 -543238 10719.5 0 -541046 10719.1 0 -538855 10718.7 0 -536664 10718.4 0 -534472 10718.1 0 -532281 10717.8 0 -530090 10717.6 0 -527899 10717.4 0 -525708 10717.2 0 -523517 10717.1 0 -811214 13387.9 0 -808750 13370 0 -806290 13351 0 -803833 13331 0 -801381 13310 0 -798932 13288.2 0 -796488 13265.5 0 -794048 13242.2 0 -791612 13218.1 0 -789181 13193.5 0 -786755 13168.4 0 -784334 13142.8 0 -781917 13116.9 0 -779506 13090.7 0 -777099 13064.2 0 -774697 13037.5 0 -772301 13010.7 0 -769909 12983.8 0 -767523 12956.9 0 -765141 12930 0 -762765 12903.2 0 -760393 12876.5 0 -758027 12849.9 0 -755665 12823.6 0 -753308 12797.5 0 -750957 12771.6 0 -748609 12746.1 0 -746267 12720.9 0 -743929 12696 0 -741596 12671.5 0 -739268 12647.4 0 -736943 12623.7 0 -734624 12600.5 0 -732308 12577.7 0 -729997 12555.3 0 -727689 12533.4 0 -725386 12512 0 -723087 12491.1 0 -720791 12470.6 0 -718499 12450.7 0 -716211 12431.2 0 -713926 12412.2 0 -711645 12393.7 0 -709367 12375.7 0 -707092 12358.2 0 -704821 12341.2 0 -702553 12324.7 0 -700287 12308.6 0 -698025 12293 0 -695765 12277.9 0 -693508 12263.2 0 -691254 12249 0 -689002 12235.2 0 -686753 12221.9 0 -684506 12209 0 -682261 12196.5 0 -680019 12184.4 0 -677779 12172.7 0 -675541 12161.4 0 -673305 12150.5 0 -671071 12140 0 -668839 12129.8 0 -666608 12120 0 -664380 12110.6 0 -662153 12101.4 0 -659928 12092.6 0 -657704 12084.1 0 -655482 12076 0 -653261 12068.1 0 -651042 12060.5 0 -648824 12053.2 0 -646607 12046.2 0 -644392 12039.5 0 -642178 12033 0 -639964 12026.7 0 -637753 12020.7 0 -635542 12015 0 -633332 12009.4 0 -631123 12004.1 0 -628915 11999 0 -626708 11994.1 0 -624502 11989.4 0 -622297 11984.9 0 -620092 11980.6 0 -617888 11976.5 0 -615685 11972.5 0 -613483 11968.8 0 -611282 11965.1 0 -609081 11961.7 0 -606880 11958.4 0 -604680 11955.2 0 -602481 11952.2 0 -600283 11949.3 0 -598084 11946.6 0 -595887 11944 0 -593689 11941.5 0 -591493 11939.1 0 -589296 11936.9 0 -587100 11934.7 0 -584905 11932.7 0 -582709 11930.8 0 -580514 11928.9 0 -578320 11927.2 0 -576126 11925.6 0 -573932 11924.1 0 -571738 11922.6 0 -569544 11921.2 0 -567351 11920 0 -565158 11918.8 0 -562965 11917.6 0 -560773 11916.6 0 -558580 11915.6 0 -556388 11914.7 0 -554196 11913.8 0 -552004 11913.1 0 -549812 11912.3 0 -547620 11911.7 0 -545429 11911.1 0 -543237 11910.5 0 -541046 11910.1 0 -538855 11909.6 0 -536663 11909.2 0 -534472 11908.9 0 -532281 11908.6 0 -530090 11908.4 0 -527899 11908.2 0 -525708 11908 0 -523517 11907.9 0 -811204 14728 0 -808739 14708.3 0 -806279 14687.3 0 -803821 14665.2 0 -801368 14642.1 0 -798919 14617.9 0 -796475 14592.9 0 -794034 14567.1 0 -791598 14540.6 0 -789167 14513.5 0 -786741 14485.8 0 -784319 14457.6 0 -781902 14428.9 0 -779491 14400 0 -777084 14370.8 0 -774682 14341.4 0 -772285 14311.8 0 -769894 14282.2 0 -767507 14252.5 0 -765126 14222.9 0 -762749 14193.3 0 -760378 14163.9 0 -758012 14134.7 0 -755650 14105.7 0 -753294 14076.9 0 -750942 14048.5 0 -748595 14020.3 0 -746253 13992.6 0 -743915 13965.2 0 -741582 13938.2 0 -739254 13911.7 0 -736930 13885.6 0 -734610 13860 0 -732295 13834.9 0 -729984 13810.3 0 -727677 13786.2 0 -725374 13762.7 0 -723075 13739.6 0 -720780 13717.1 0 -718488 13695.2 0 -716200 13673.7 0 -713916 13652.9 0 -711635 13632.5 0 -709357 13612.8 0 -707083 13593.5 0 -704811 13574.8 0 -702543 13556.6 0 -700278 13538.9 0 -698016 13521.8 0 -695757 13505.2 0 -693500 13489 0 -691246 13473.4 0 -688994 13458.3 0 -686745 13443.6 0 -684499 13429.4 0 -682254 13415.7 0 -680012 13402.4 0 -677772 13389.6 0 -675535 13377.2 0 -673299 13365.2 0 -671065 13353.6 0 -668833 13342.4 0 -666603 13331.6 0 -664374 13321.2 0 -662148 13311.2 0 -659923 13301.5 0 -657699 13292.2 0 -655477 13283.2 0 -653257 13274.6 0 -651037 13266.3 0 -648820 13258.2 0 -646603 13250.5 0 -644388 13243.1 0 -642174 13236 0 -639961 13229.1 0 -637749 13222.5 0 -635538 13216.2 0 -633329 13210.1 0 -631120 13204.3 0 -628912 13198.7 0 -626705 13193.3 0 -624499 13188.1 0 -622294 13183.2 0 -620090 13178.5 0 -617886 13173.9 0 -615683 13169.6 0 -613481 13165.4 0 -611280 13161.5 0 -609079 13157.7 0 -606878 13154 0 -604679 13150.6 0 -602480 13147.3 0 -600281 13144.1 0 -598083 13141.1 0 -595885 13138.2 0 -593688 13135.5 0 -591491 13132.9 0 -589295 13130.4 0 -587099 13128.1 0 -584904 13125.8 0 -582708 13123.7 0 -580513 13121.7 0 -578319 13119.8 0 -576125 13118 0 -573931 13116.4 0 -571737 13114.8 0 -569544 13113.3 0 -567350 13111.9 0 -565157 13110.5 0 -562965 13109.3 0 -560772 13108.2 0 -558580 13107.1 0 -556388 13106.1 0 -554195 13105.2 0 -552004 13104.3 0 -549812 13103.5 0 -547620 13102.8 0 -545429 13102.1 0 -543237 13101.5 0 -541046 13101 0 -538854 13100.5 0 -536663 13100.1 0 -534472 13099.7 0 -532281 13099.4 0 -530090 13099.2 0 -527899 13098.9 0 -525708 13098.8 0 -523517 13098.6 0 -811193 16068.6 0 -808728 16046.9 0 -806266 16023.9 0 -803809 15999.7 0 -801355 15974.3 0 -798905 15947.9 0 -796460 15920.6 0 -794019 15892.3 0 -791583 15863.3 0 -789152 15833.6 0 -786725 15803.2 0 -784303 15772.4 0 -781886 15741.1 0 -779474 15709.4 0 -777067 15677.5 0 -774665 15645.3 0 -772269 15613 0 -769877 15580.6 0 -767490 15548.2 0 -765109 15515.8 0 -762733 15483.5 0 -760361 15451.3 0 -757995 15419.4 0 -755634 15387.7 0 -753277 15356.3 0 -750926 15325.2 0 -748579 15294.5 0 -746237 15264.1 0 -743900 15234.2 0 -741567 15204.8 0 -739239 15175.8 0 -736915 15147.4 0 -734596 15119.4 0 -732281 15092 0 -729970 15065.2 0 -727663 15038.9 0 -725361 15013.2 0 -723062 14988 0 -720767 14963.5 0 -718476 14939.5 0 -716188 14916.1 0 -713904 14893.4 0 -711623 14871.2 0 -709346 14849.6 0 -707072 14828.6 0 -704801 14808.2 0 -702533 14788.4 0 -700268 14769.1 0 -698006 14750.4 0 -695747 14732.3 0 -693491 14714.7 0 -691237 14697.7 0 -688986 14681.2 0 -686737 14665.2 0 -684491 14649.7 0 -682247 14634.7 0 -680005 14620.3 0 -677765 14606.3 0 -675528 14592.7 0 -673292 14579.7 0 -671058 14567.1 0 -668827 14554.9 0 -666597 14543.1 0 -664369 14531.8 0 -662142 14520.9 0 -659917 14510.3 0 -657694 14500.2 0 -655472 14490.4 0 -653252 14481 0 -651033 14471.9 0 -648815 14463.2 0 -646599 14454.8 0 -644384 14446.7 0 -642170 14438.9 0 -639957 14431.4 0 -637746 14424.3 0 -635535 14417.4 0 -633325 14410.7 0 -631117 14404.4 0 -628909 14398.3 0 -626702 14392.4 0 -624497 14386.8 0 -622291 14381.4 0 -620087 14376.3 0 -617884 14371.3 0 -615681 14366.6 0 -613479 14362.1 0 -611277 14357.7 0 -609077 14353.6 0 -606876 14349.7 0 -604677 14345.9 0 -602478 14342.3 0 -600279 14338.8 0 -598081 14335.6 0 -595884 14332.4 0 -593687 14329.5 0 -591490 14326.6 0 -589294 14323.9 0 -587098 14321.4 0 -584902 14319 0 -582707 14316.7 0 -580512 14314.5 0 -578318 14312.4 0 -576124 14310.5 0 -573930 14308.6 0 -571736 14306.9 0 -569543 14305.3 0 -567350 14303.7 0 -565157 14302.3 0 -562964 14301 0 -560772 14299.7 0 -558579 14298.5 0 -556387 14297.4 0 -554195 14296.4 0 -552003 14295.5 0 -549811 14294.7 0 -547620 14293.9 0 -545428 14293.2 0 -543237 14292.5 0 -541045 14291.9 0 -538854 14291.4 0 -536663 14291 0 -534472 14290.6 0 -532281 14290.2 0 -530090 14289.9 0 -527899 14289.7 0 -525708 14289.5 0 -523517 14289.4 0 -811181 17409.5 0 -808715 17385.9 0 -806253 17360.9 0 -803795 17334.5 0 -801340 17306.9 0 -798890 17278.2 0 -796444 17248.4 0 -794003 17217.7 0 -791566 17186.2 0 -789134 17153.8 0 -786707 17120.9 0 -784285 17087.4 0 -781868 17053.4 0 -779456 17019 0 -777049 16984.2 0 -774647 16949.3 0 -772250 16914.2 0 -769859 16879 0 -767472 16843.8 0 -765091 16808.6 0 -762714 16773.6 0 -760343 16738.7 0 -757977 16704 0 -755616 16669.6 0 -753260 16635.5 0 -750908 16601.8 0 -748562 16568.5 0 -746220 16535.6 0 -743883 16503.2 0 -741551 16471.2 0 -739223 16439.8 0 -736899 16409 0 -734580 16378.7 0 -732266 16349 0 -729955 16319.9 0 -727649 16291.4 0 -725346 16263.5 0 -723048 16236.3 0 -720753 16209.6 0 -718462 16183.7 0 -716175 16158.4 0 -713891 16133.7 0 -711611 16109.7 0 -709334 16086.3 0 -707060 16063