<?xml version="1.0"?> 
<VTKFile type="StructuredGrid" version="0.1"> 
<StructuredGrid WholeExtent="0 127 0 127 0 0"> 
<Piece Extent="0 127 0 127 0 0"> 
<PointData>
<DataArray type="Float32" Name="E" format="ascii" NumberOfComponents="3"> 
-843019 -2.89029e+06 0 -838331 -2.9022e+06 0 -833637 -2.91412e+06 0 -828937 -2.92606e+06 0 -824231 -2.93801e+06 0 -819519 -2.94997e+06 0 -814801 -2.96194e+06 0 -810079 -2.97393e+06 0 -805353 -2.98594e+06 0 -800623 -2.99796e+06 0 -795891 -3.00999e+06 0 -791157 -3.02204e+06 0 -786421 -3.03411e+06 0 -781685 -3.04619e+06 0 -776949 -3.05829e+06 0 -772214 -3.07041e+06 0 -767480 -3.08255e+06 0 -762749 -3.09471e+06 0 -758021 -3.10689e+06 0 -753298 -3.11909e+06 0 -748580 -3.13131e+06 0 -743868 -3.14355e+06 0 -739163 -3.15582e+06 0 -734467 -3.16811e+06 0 -729779 -3.18043e+06 0 -725102 -3.19277e+06 0 -720436 -3.20515e+06 0 -715783 -3.21755e+06 0 -711143 -3.22998e+06 0 -706518 -3.24244e+06 0 -701908 -3.25494e+06 0 -697317 -3.26747e+06 0 -692743 -3.28004e+06 0 -688189 -3.29264e+06 0 -683657 -3.30529e+06 0 -679146 -3.31797e+06 0 -674660 -3.3307e+06 0 -670198 -3.34348e+06 0 -665764 -3.3563e+06 0 -661357 -3.36918e+06 0 -656980 -3.3821e+06 0 -652633 -3.39508e+06 0 -648320 -3.40812e+06 0 -644040 -3.42122e+06 0 -639796 -3.43438e+06 0 -635589 -3.44761e+06 0 -631420 -3.46091e+06 0 -627292 -3.47428e+06 0 -623207 -3.48773e+06 0 -619164 -3.50125e+06 0 -615168 -3.51487e+06 0 -611218 -3.52857e+06 0 -607317 -3.54236e+06 0 -603466 -3.55625e+06 0 -599667 -3.57024e+06 0 -595923 -3.58434e+06 0 -592234 -3.59855e+06 0 -588603 -3.61288e+06 0 -585031 -3.62734e+06 0 -581520 -3.64192e+06 0 -578072 -3.65664e+06 0 -574689 -3.67149e+06 0 -571373 -3.6865e+06 0 -568125 -3.70167e+06 0 -564948 -3.717e+06 0 -561844 -3.7325e+06 0 -558815 -3.74818e+06 0 -555863 -3.76406e+06 0 -552990 -3.78013e+06 0 -550198 -3.79641e+06 0 -547490 -3.81291e+06 0 -544869 -3.82964e+06 0 -542337 -3.84661e+06 0 -539896 -3.86384e+06 0 -537550 -3.88134e+06 0 -535301 -3.89912e+06 0 -533152 -3.91719e+06 0 -531107 -3.93559e+06 0 -529169 -3.95431e+06 0 -527341 -3.97338e+06 0 -525627 -3.99282e+06 0 -524031 -4.01266e+06 0 -522556 -4.03291e+06 0 -521207 -4.0536e+06 0 -519986 -4.07476e+06 0 -518899 -4.09641e+06 0 -517947 -4.1186e+06 0 -517135 -4.14135e+06 0 -516465 -4.16471e+06 0 -515940 -4.18871e+06 0 -515561 -4.2134e+06 0 -515329 -4.23884e+06 0 -515243 -4.26507e+06 0 -515301 -4.29215e+06 0 -515498 -4.32015e+06 0 -515828 -4.34913e+06 0 -516281 -4.37918e+06 0 -516845 -4.41038e+06 0 -517501 -4.44281e+06 0 -518228 -4.47658e+06 0 -518998 -4.51179e+06 0 -519775 -4.54855e+06 0 -520516 -4.58699e+06 0 -521171 -4.62724e+06 0 -521674 -4.66944e+06 0 -521953 -4.71375e+06 0 -521918 -4.76032e+06 0 -521465 -4.80935e+06 0 -520471 -4.861e+06 0 -518794 -4.91548e+06 0 -516269 -4.97299e+06 0 -512705 -5.03376e+06 0 -507882 -5.09801e+06 0 -501551 -5.16599e+06 0 -493425 -5.23793e+06 0 -483179 -5.31411e+06 0 -470444 -5.39478e+06 0 -454802 -5.48022e+06 0 -435785 -5.5707e+06 0 -412861 -5.66648e+06 0 -385438 -5.76786e+06 0 -352848 -5.87509e+06 0 -314343 -5.98843e+06 0 -269087 -6.10813e+06 0 -216138 -6.23444e+06 0 -154450 -6.36747e+06 0 -82770.7 -6.50766e+06 0 -2.86102e-06 -6.65423e+06 0 -840809 -2.87661e+06 0 -836111 -2.88843e+06 0 -831405 -2.90025e+06 0 -826690 -2.91209e+06 0 -821969 -2.92394e+06 0 -817242 -2.9358e+06 0 -812508 -2.94768e+06 0 -807769 -2.95957e+06 0 -803025 -2.97147e+06 0 -798277 -2.98339e+06 0 -793525 -2.99533e+06 0 -788770 -3.00728e+06 0 -784013 -3.01924e+06 0 -779254 -3.03122e+06 0 -774493 -3.04322e+06 0 -769733 -3.05524e+06 0 -764973 -3.06728e+06 0 -760213 -3.07933e+06 0 -755456 -3.09141e+06 0 -750702 -3.1035e+06 0 -745951 -3.11562e+06 0 -741204 -3.12776e+06 0 -736463 -3.13992e+06 0 -731728 -3.15211e+06 0 -727001 -3.16432e+06 0 -722281 -3.17656e+06 0 -717571 -3.18882e+06 0 -712871 -3.20111e+06 0 -708182 -3.21343e+06 0 -703505 -3.22579e+06 0 -698842 -3.23817e+06 0 -694193 -3.25059e+06 0 -689560 -3.26304e+06 0 -684944 -3.27553e+06 0 -680346 -3.28806e+06 0 -675766 -3.30063e+06 0 -671208 -3.31324e+06 0 -666671 -3.32589e+06 0 -662157 -3.33859e+06 0 -657667 -3.35134e+06 0 -653203 -3.36413e+06 0 -648766 -3.37698e+06 0 -644357 -3.38989e+06 0 -639977 -3.40285e+06 0 -635629 -3.41588e+06 0 -631313 -3.42896e+06 0 -627031 -3.44211e+06 0 -622784 -3.45534e+06 0 -618574 -3.46863e+06 0 -614402 -3.482e+06 0 -610270 -3.49546e+06 0 -606179 -3.50899e+06 0 -602130 -3.52262e+06 0 -598126 -3.53633e+06 0 -594167 -3.55014e+06 0 -590255 -3.56406e+06 0 -586391 -3.57808e+06 0 -582578 -3.59221e+06 0 -578816 -3.60645e+06 0 -575107 -3.62082e+06 0 -571453 -3.63532e+06 0 -567855 -3.64995e+06 0 -564314 -3.66473e+06 0 -560833 -3.67965e+06 0 -557413 -3.69472e+06 0 -554055 -3.70996e+06 0 -550761 -3.72536e+06 0 -547532 -3.74095e+06 0 -544371 -3.75672e+06 0 -541279 -3.77268e+06 0 -538258 -3.78885e+06 0 -535309 -3.80524e+06 0 -532434 -3.82186e+06 0 -529636 -3.83871e+06 0 -526915 -3.85581e+06 0 -524274 -3.87318e+06 0 -521715 -3.89082e+06 0 -519240 -3.90876e+06 0 -516852 -3.927e+06 0 -514551 -3.94557e+06 0 -512341 -3.96447e+06 0 -510223 -3.98374e+06 0 -508199 -4.00339e+06 0 -506273 -4.02345e+06 0 -504444 -4.04394e+06 0 -502716 -4.06488e+06 0 -501090 -4.0863e+06 0 -499566 -4.10823e+06 0 -498146 -4.13072e+06 0 -496830 -4.15378e+06 0 -495617 -4.17747e+06 0 -494505 -4.20182e+06 0 -493491 -4.22688e+06 0 -492572 -4.2527e+06 0 -491741 -4.27933e+06 0 -490990 -4.30684e+06 0 -490309 -4.33528e+06 0 -489683 -4.36473e+06 0 -489095 -4.39526e+06 0 -488523 -4.42695e+06 0 -487942 -4.45989e+06 0 -487318 -4.49417e+06 0 -486613 -4.5299e+06 0 -485780 -4.56718e+06 0 -484763 -4.60614e+06 0 -483497 -4.64688e+06 0 -481905 -4.68956e+06 0 -479897 -4.73431e+06 0 -477369 -4.78129e+06 0 -474198 -4.83065e+06 0 -470246 -4.88256e+06 0 -465352 -4.9372e+06 0 -459332 -4.99475e+06 0 -451977 -5.0554e+06 0 -443048 -5.11937e+06 0 -432275 -5.18684e+06 0 -419354 -5.25803e+06 0 -403939 -5.33316e+06 0 -385645 -5.41244e+06 0 -364037 -5.49609e+06 0 -338629 -5.58431e+06 0 -308880 -5.67732e+06 0 -274184 -5.77531e+06 0 -233865 -5.87846e+06 0 -187173 -5.98694e+06 0 -133275 -6.10088e+06 0 -71239.3 -6.22038e+06 0 1.83843e-06 -6.3456e+06 0 -838609 -2.86296e+06 0 -833899 -2.87467e+06 0 -829181 -2.8864e+06 0 -824453 -2.89814e+06 0 -819719 -2.90989e+06 0 -814976 -2.92165e+06 0 -810228 -2.93343e+06 0 -805473 -2.94522e+06 0 -800712 -2.95702e+06 0 -795946 -2.96884e+06 0 -791176 -2.98068e+06 0 -786401 -2.99252e+06 0 -781624 -3.00439e+06 0 -776843 -3.01627e+06 0 -772060 -3.02817e+06 0 -767275 -3.04008e+06 0 -762490 -3.05202e+06 0 -757704 -3.06397e+06 0 -752919 -3.07594e+06 0 -748136 -3.08793e+06 0 -743354 -3.09994e+06 0 -738575 -3.11198e+06 0 -733800 -3.12404e+06 0 -729029 -3.13611e+06 0 -724264 -3.14822e+06 0 -719505 -3.16035e+06 0 -714753 -3.1725e+06 0 -710009 -3.18469e+06 0 -705275 -3.1969e+06 0 -700550 -3.20914e+06 0 -695836 -3.22141e+06 0 -691134 -3.23371e+06 0 -686445 -3.24605e+06 0 -681771 -3.25843e+06 0 -677111 -3.27084e+06 0 -672468 -3.28328e+06 0 -667842 -3.29577e+06 0 -663235 -3.3083e+06 0 -658647 -3.32088e+06 0 -654080 -3.3335e+06 0 -649535 -3.34617e+06 0 -645013 -3.35889e+06 0 -640515 -3.37166e+06 0 -636043 -3.38449e+06 0 -631598 -3.39737e+06 0 -627181 -3.41032e+06 0 -622793 -3.42333e+06 0 -618436 -3.4364e+06 0 -614111 -3.44954e+06 0 -609819 -3.46276e+06 0 -605561 -3.47605e+06 0 -601339 -3.48943e+06 0 -597153 -3.50288e+06 0 -593006 -3.51642e+06 0 -588899 -3.53006e+06 0 -584832 -3.54379e+06 0 -580807 -3.55762e+06 0 -576825 -3.57155e+06 0 -572888 -3.5856e+06 0 -568997 -3.59976e+06 0 -565153 -3.61404e+06 0 -561357 -3.62845e+06 0 -557610 -3.64299e+06 0 -553915 -3.65767e+06 0 -550271 -3.67249e+06 0 -546680 -3.68747e+06 0 -543144 -3.7026e+06 0 -539663 -3.7179e+06 0 -536239 -3.73338e+06 0 -532873 -3.74904e+06 0 -529566 -3.76489e+06 0 -526319 -3.78095e+06 0 -523134 -3.79722e+06 0 -520011 -3.8137e+06 0 -516952 -3.83042e+06 0 -513958 -3.84739e+06 0 -511030 -3.86461e+06 0 -508170 -3.88211e+06 0 -505378 -3.89989e+06 0 -502655 -3.91797e+06 0 -500003 -3.93636e+06 0 -497422 -3.95509e+06 0 -494913 -3.97417e+06 0 -492477 -3.99362e+06 0 -490115 -4.01346e+06 0 -487826 -4.03372e+06 0 -485611 -4.05442e+06 0 -483470 -4.07559e+06 0 -481400 -4.09725e+06 0 -479401 -4.11943e+06 0 -477471 -4.14218e+06 0 -475605 -4.16552e+06 0 -473801 -4.1895e+06 0 -472052 -4.21416e+06 0 -470351 -4.23954e+06 0 -468688 -4.26569e+06 0 -467054 -4.29267e+06 0 -465433 -4.32053e+06 0 -463808 -4.34934e+06 0 -462158 -4.37916e+06 0 -460460 -4.41007e+06 0 -458682 -4.44215e+06 0 -456789 -4.47547e+06 0 -454741 -4.51013e+06 0 -452486 -4.54623e+06 0 -449969 -4.58386e+06 0 -447122 -4.62314e+06 0 -443867 -4.66418e+06 0 -440115 -4.70711e+06 0 -435762 -4.75205e+06 0 -430690 -4.79914e+06 0 -424763 -4.84853e+06 0 -417828 -4.90036e+06 0 -409708 -4.95478e+06 0 -400205 -5.01196e+06 0 -389094 -5.07206e+06 0 -376123 -5.13525e+06 0 -361007 -5.2017e+06 0 -343428 -5.27158e+06 0 -323029 -5.34505e+06 0 -299413 -5.42228e+06 0 -272138 -5.50344e+06 0 -240710 -5.58866e+06 0 -204584 -5.67809e+06 0 -163155 -5.77184e+06 0 -115752 -5.87002e+06 0 -61638.1 -5.97267e+06 0 -8.56817e-07 -6.07992e+06 0 -836417 -2.84932e+06 0 -831695 -2.86093e+06 0 -826965 -2.87256e+06 0 -822225 -2.8842e+06 0 -817478 -2.89585e+06 0 -812722 -2.90752e+06 0 -807959 -2.91919e+06 0 -803189 -2.93088e+06 0 -798412 -2.94259e+06 0 -793630 -2.95431e+06 0 -788842 -2.96604e+06 0 -784049 -2.97779e+06 0 -779252 -2.98955e+06 0 -774451 -3.00133e+06 0 -769647 -3.01313e+06 0 -764840 -3.02494e+06 0 -760031 -3.03677e+06 0 -755221 -3.04862e+06 0 -750409 -3.06049e+06 0 -745598 -3.07237e+06 0 -740788 -3.08428e+06 0 -735979 -3.09621e+06 0 -731172 -3.10816e+06 0 -726368 -3.12013e+06 0 -721567 -3.13213e+06 0 -716771 -3.14415e+06 0 -711980 -3.15619e+06 0 -707196 -3.16827e+06 0 -702418 -3.18037e+06 0 -697648 -3.1925e+06 0 -692887 -3.20466e+06 0 -688136 -3.21685e+06 0 -683395 -3.22907e+06 0 -678666 -3.24133e+06 0 -673949 -3.25362e+06 0 -669246 -3.26595e+06 0 -664557 -3.27832e+06 0 -659884 -3.29072e+06 0 -655228 -3.30317e+06 0 -650589 -3.31567e+06 0 -645968 -3.32821e+06 0 -641368 -3.3408e+06 0 -636788 -3.35344e+06 0 -632230 -3.36613e+06 0 -627695 -3.37888e+06 0 -623184 -3.39168e+06 0 -618698 -3.40454e+06 0 -614239 -3.41747e+06 0 -609806 -3.43047e+06 0 -605403 -3.44353e+06 0 -601028 -3.45666e+06 0 -596685 -3.46987e+06 0 -592373 -3.48316e+06 0 -588094 -3.49653e+06 0 -583849 -3.50999e+06 0 -579639 -3.52354e+06 0 -575465 -3.53718e+06 0 -571329 -3.55093e+06 0 -567230 -3.56477e+06 0 -563171 -3.57873e+06 0 -559151 -3.5928e+06 0 -555173 -3.60698e+06 0 -551237 -3.6213e+06 0 -547345 -3.63574e+06 0 -543496 -3.65032e+06 0 -539692 -3.66504e+06 0 -535933 -3.67991e+06 0 -532222 -3.69494e+06 0 -528557 -3.71013e+06 0 -524941 -3.72549e+06 0 -521374 -3.74103e+06 0 -517856 -3.75676e+06 0 -514389 -3.77269e+06 0 -510973 -3.78883e+06 0 -507608 -3.80518e+06 0 -504295 -3.82176e+06 0 -501035 -3.83858e+06 0 -497828 -3.85564e+06 0 -494674 -3.87298e+06 0 -491574 -3.89059e+06 0 -488528 -3.90849e+06 0 -485535 -3.9267e+06 0 -482596 -3.94523e+06 0 -479711 -3.9641e+06 0 -476878 -3.98334e+06 0 -474097 -4.00295e+06 0 -471367 -4.02296e+06 0 -468686 -4.0434e+06 0 -466052 -4.06428e+06 0 -463462 -4.08565e+06 0 -460913 -4.10751e+06 0 -458400 -4.12992e+06 0 -455919 -4.15289e+06 0 -453462 -4.17646e+06 0 -451021 -4.20068e+06 0 -448588 -4.22559e+06 0 -446150 -4.25123e+06 0 -443693 -4.27765e+06 0 -441201 -4.3049e+06 0 -438654 -4.33303e+06 0 -436029 -4.36212e+06 0 -433298 -4.39222e+06 0 -430429 -4.4234e+06 0 -427385 -4.45573e+06 0 -424122 -4.48931e+06 0 -420590 -4.5242e+06 0 -416730 -4.5605e+06 0 -412475 -4.5983e+06 0 -407749 -4.6377e+06 0 -402462 -4.67881e+06 0 -396514 -4.72174e+06 0 -389791 -4.76661e+06 0 -382163 -4.81353e+06 0 -373482 -4.86262e+06 0 -363582 -4.91402e+06 0 -352277 -4.96786e+06 0 -339357 -5.02427e+06 0 -324587 -5.08338e+06 0 -307704 -5.14533e+06 0 -288415 -5.21026e+06 0 -266395 -5.27828e+06 0 -241281 -5.34952e+06 0 -212672 -5.42411e+06 0 -180126 -5.50213e+06 0 -143153 -5.58368e+06 0 -101213 -5.66883e+06 0 -53713 -5.75762e+06 0 -4.20958e-07 -5.85011e+06 0 -834232 -2.83569e+06 0 -829500 -2.84721e+06 0 -824757 -2.85874e+06 0 -820006 -2.87028e+06 0 -815246 -2.88183e+06 0 -810478 -2.8934e+06 0 -805701 -2.90497e+06 0 -800917 -2.91656e+06 0 -796126 -2.92817e+06 0 -791328 -2.93979e+06 0 -786523 -2.95142e+06 0 -781713 -2.96307e+06 0 -776898 -2.97473e+06 0 -772078 -2.9864e+06 0 -767254 -2.9981e+06 0 -762426 -3.00981e+06 0 -757595 -3.02154e+06 0 -752761 -3.03328e+06 0 -747925 -3.04504e+06 0 -743089 -3.05683e+06 0 -738251 -3.06863e+06 0 -733414 -3.08045e+06 0 -728577 -3.09229e+06 0 -723741 -3.10416e+06 0 -718908 -3.11605e+06 0 -714077 -3.12796e+06 0 -709250 -3.1399e+06 0 -704427 -3.15186e+06 0 -699610 -3.16385e+06 0 -694798 -3.17587e+06 0 -689993 -3.18791e+06 0 -685195 -3.19999e+06 0 -680406 -3.21209e+06 0 -675626 -3.22424e+06 0 -670856 -3.23641e+06 0 -666097 -3.24862e+06 0 -661350 -3.26087e+06 0 -656616 -3.27315e+06 0 -651895 -3.28548e+06 0 -647189 -3.29785e+06 0 -642499 -3.31026e+06 0 -637825 -3.32272e+06 0 -633169 -3.33522e+06 0 -628531 -3.34778e+06 0 -623913 -3.36039e+06 0 -619314 -3.37305e+06 0 -614738 -3.38577e+06 0 -610183 -3.39856e+06 0 -605652 -3.4114e+06 0 -601145 -3.42431e+06 0 -596663 -3.43729e+06 0 -592207 -3.45034e+06 0 -587778 -3.46346e+06 0 -583377 -3.47666e+06 0 -579005 -3.48995e+06 0 -574663 -3.50332e+06 0 -570352 -3.51678e+06 0 -566072 -3.53033e+06 0 -561825 -3.54398e+06 0 -557610 -3.55773e+06 0 -553430 -3.57159e+06 0 -549285 -3.58556e+06 0 -545175 -3.59965e+06 0 -541101 -3.61386e+06 0 -537064 -3.6282e+06 0 -533064 -3.64268e+06 0 -529103 -3.65729e+06 0 -525180 -3.67205e+06 0 -521296 -3.68696e+06 0 -517452 -3.70203e+06 0 -513648 -3.71727e+06 0 -509884 -3.73269e+06 0 -506161 -3.74829e+06 0 -502479 -3.76408e+06 0 -498837 -3.78008e+06 0 -495237 -3.79629e+06 0 -491677 -3.81271e+06 0 -488159 -3.82937e+06 0 -484681 -3.84628e+06 0 -481243 -3.86344e+06 0 -477845 -3.88087e+06 0 -474486 -3.89858e+06 0 -471166 -3.91659e+06 0 -467882 -3.93491e+06 0 -464635 -3.95356e+06 0 -461421 -3.97256e+06 0 -458239 -3.99192e+06 0 -455088 -4.01167e+06 0 -451962 -4.03183e+06 0 -448860 -4.05242e+06 0 -445777 -4.07346e+06 0 -442707 -4.09499e+06 0 -439646 -4.11702e+06 0 -436585 -4.1396e+06 0 -433516 -4.16275e+06 0 -430429 -4.18652e+06 0 -427314 -4.21093e+06 0 -424155 -4.23603e+06 0 -420938 -4.26186e+06 0 -417643 -4.28847e+06 0 -414250 -4.31591e+06 0 -410732 -4.34423e+06 0 -407061 -4.3735e+06 0 -403203 -4.40376e+06 0 -399119 -4.4351e+06 0 -394766 -4.46757e+06 0 -390092 -4.50124e+06 0 -385038 -4.5362e+06 0 -379540 -4.57253e+06 0 -373520 -4.61032e+06 0 -366893 -4.64964e+06 0 -359563 -4.6906e+06 0 -351418 -4.73329e+06 0 -342337 -4.77781e+06 0 -332179 -4.82426e+06 0 -320790 -4.87276e+06 0 -307993 -4.9234e+06 0 -293596 -4.97629e+06 0 -277381 -5.03154e+06 0 -259105 -5.08925e+06 0 -238503 -5.14952e+06 0 -215278 -5.21245e+06 0 -189101 -5.27812e+06 0 -159613 -5.34662e+06 0 -126416 -5.41801e+06 0 -89074.5 -5.49234e+06 0 -47110.5 -5.56962e+06 0 1.15484e-06 -5.64992e+06 0 -832054 -2.82208e+06 0 -827311 -2.8335e+06 0 -822558 -2.84493e+06 0 -817796 -2.85637e+06 0 -813024 -2.86783e+06 0 -808243 -2.87929e+06 0 -803454 -2.89077e+06 0 -798657 -2.90226e+06 0 -793851 -2.91377e+06 0 -789039 -2.92528e+06 0 -784219 -2.93681e+06 0 -779393 -2.94836e+06 0 -774560 -2.95992e+06 0 -769722 -2.97149e+06 0 -764879 -2.98309e+06 0 -760032 -2.99469e+06 0 -755180 -3.00632e+06 0 -750324 -3.01796e+06 0 -745466 -3.02962e+06 0 -740605 -3.04129e+06 0 -735742 -3.05299e+06 0 -730878 -3.06471e+06 0 -726014 -3.07644e+06 0 -721149 -3.0882e+06 0 -716285 -3.09998e+06 0 -711422 -3.11178e+06 0 -706561 -3.12361e+06 0 -701702 -3.13546e+06 0 -696847 -3.14734e+06 0 -691996 -3.15925e+06 0 -687150 -3.17118e+06 0 -682309 -3.18314e+06 0 -677475 -3.19513e+06 0 -672648 -3.20716e+06 0 -667828 -3.21921e+06 0 -663018 -3.2313e+06 0 -658216 -3.24343e+06 0 -653425 -3.25559e+06 0 -648645 -3.26779e+06 0 -643877 -3.28003e+06 0 -639122 -3.29232e+06 0 -634380 -3.30465e+06 0 -629652 -3.31702e+06 0 -624940 -3.32944e+06 0 -620244 -3.34192e+06 0 -615565 -3.35444e+06 0 -610904 -3.36702e+06 0 -606261 -3.37965e+06 0 -601638 -3.39235e+06 0 -597036 -3.40511e+06 0 -592454 -3.41793e+06 0 -587894 -3.43082e+06 0 -583358 -3.44378e+06 0 -578844 -3.45682e+06 0 -574355 -3.46993e+06 0 -569891 -3.48312e+06 0 -565453 -3.4964e+06 0 -561041 -3.50977e+06 0 -556657 -3.52322e+06 0 -552300 -3.53678e+06 0 -547971 -3.55043e+06 0 -543672 -3.56419e+06 0 -539402 -3.57806e+06 0 -535162 -3.59205e+06 0 -530953 -3.60615e+06 0 -526774 -3.62038e+06 0 -522627 -3.63475e+06 0 -518511 -3.64924e+06 0 -514428 -3.66389e+06 0 -510376 -3.67868e+06 0 -506356 -3.69363e+06 0 -502368 -3.70874e+06 0 -498413 -3.72402e+06 0 -494489 -3.73948e+06 0 -490598 -3.75513e+06 0 -486737 -3.77098e+06 0 -482908 -3.78703e+06 0 -479109 -3.8033e+06 0 -475340 -3.81979e+06 0 -471601 -3.83652e+06 0 -467889 -3.8535e+06 0 -464204 -3.87073e+06 0 -460544 -3.88824e+06 0 -456908 -3.90604e+06 0 -453294 -3.92414e+06 0 -449700 -3.94256e+06 0 -446122 -3.96131e+06 0 -442559 -3.98041e+06 0 -439005 -3.99988e+06 0 -435458 -4.01974e+06 0 -431913 -4.04001e+06 0 -428363 -4.06072e+06 0 -424803 -4.08188e+06 0 -421226 -4.10353e+06 0 -417622 -4.1257e+06 0 -413981 -4.14841e+06 0 -410293 -4.17169e+06 0 -406545 -4.19559e+06 0 -402720 -4.22013e+06 0 -398802 -4.24535e+06 0 -394771 -4.27131e+06 0 -390603 -4.29803e+06 0 -386273 -4.32558e+06 0 -381749 -4.354e+06 0 -376999 -4.38334e+06 0 -371983 -4.41366e+06 0 -366655 -4.44502e+06 0 -360967 -4.47748e+06 0 -354859 -4.51112e+06 0 -348268 -4.54599e+06 0 -341120 -4.58217e+06 0 -333332 -4.61974e+06 0 -324813 -4.65878e+06 0 -315457 -4.69936e+06 0 -305148 -4.74157e+06 0 -293756 -4.78548e+06 0 -281135 -4.8312e+06 0 -267124 -4.87879e+06 0 -251544 -4.92835e+06 0 -234194 -4.97995e+06 0 -214855 -5.03368e+06 0 -193284 -5.0896e+06 0 -169213 -5.14779e+06 0 -142347 -5.20831e+06 0 -112363 -5.27119e+06 0 -78907.3 -5.33649e+06 0 -41593.8 -5.4042e+06 0 -1.06543e-06 -5.47438e+06 0 -829882 -2.80849e+06 0 -825129 -2.81981e+06 0 -820366 -2.83115e+06 0 -815593 -2.84249e+06 0 -810811 -2.85384e+06 0 -806019 -2.86521e+06 0 -801217 -2.87659e+06 0 -796407 -2.88798e+06 0 -791589 -2.89938e+06 0 -786762 -2.9108e+06 0 -781928 -2.92223e+06 0 -777087 -2.93367e+06 0 -772239 -2.94513e+06 0 -767384 -2.9566e+06 0 -762523 -2.96809e+06 0 -757657 -2.97959e+06 0 -752786 -2.99111e+06 0 -747910 -3.00265e+06 0 -743030 -3.0142e+06 0 -738147 -3.02578e+06 0 -733260 -3.03737e+06 0 -728372 -3.04898e+06 0 -723481 -3.06061e+06 0 -718589 -3.07226e+06 0 -713696 -3.08393e+06 0 -708803 -3.09562e+06 0 -703910 -3.10734e+06 0 -699018 -3.11908e+06 0 -694129 -3.13085e+06 0 -689241 -3.14264e+06 0 -684357 -3.15446e+06 0 -679476 -3.16631e+06 0 -674600 -3.17818e+06 0 -669728 -3.19009e+06 0 -664863 -3.20203e+06 0 -660004 -3.214e+06 0 -655152 -3.226e+06 0 -650308 -3.23804e+06 0 -645472 -3.25012e+06 0 -640646 -3.26224e+06 0 -635831 -3.27439e+06 0 -631026 -3.28659e+06 0 -626233 -3.29883e+06 0 -621452 -3.31112e+06 0 -616684 -3.32346e+06 0 -611930 -3.33584e+06 0 -607191 -3.34828e+06 0 -602467 -3.36077e+06 0 -597759 -3.37332e+06 0 -593067 -3.38593e+06 0 -588394 -3.3986e+06 0 -583738 -3.41133e+06 0 -579101 -3.42413e+06 0 -574484 -3.437e+06 0 -569887 -3.44994e+06 0 -565310 -3.46296e+06 0 -560755 -3.47606e+06 0 -556222 -3.48924e+06 0 -551711 -3.50251e+06 0 -547223 -3.51587e+06 0 -542759 -3.52932e+06 0 -538318 -3.54288e+06 0 -533901 -3.55653e+06 0 -529509 -3.5703e+06 0 -525142 -3.58417e+06 0 -520800 -3.59817e+06 0 -516483 -3.61228e+06 0 -512191 -3.62653e+06 0 -507924 -3.64091e+06 0 -503683 -3.65542e+06 0 -499467 -3.67009e+06 0 -495276 -3.68491e+06 0 -491110 -3.69988e+06 0 -486968 -3.71502e+06 0 -482850 -3.73034e+06 0 -478755 -3.74584e+06 0 -474683 -3.76153e+06 0 -470632 -3.77742e+06 0 -466602 -3.79352e+06 0 -462592 -3.80983e+06 0 -458599 -3.82638e+06 0 -454623 -3.84316e+06 0 -450662 -3.8602e+06 0 -446714 -3.8775e+06 0 -442776 -3.89507e+06 0 -438846 -3.91293e+06 0 -434921 -3.9311e+06 0 -430997 -3.94959e+06 0 -427070 -3.96842e+06 0 -423136 -3.98759e+06 0 -419190 -4.00714e+06 0 -415226 -4.02709e+06 0 -411238 -4.04744e+06 0 -407218 -4.06823e+06 0 -403157 -4.08948e+06 0 -399046 -4.11122e+06 0 -394874 -4.13347e+06 0 -390629 -4.15626e+06 0 -386295 -4.17962e+06 0 -381857 -4.20358e+06 0 -377297 -4.22819e+06 0 -372593 -4.25347e+06 0 -367721 -4.27947e+06 0 -362655 -4.30623e+06 0 -357364 -4.33379e+06 0 -351813 -4.3622e+06 0 -345964 -4.39151e+06 0 -339772 -4.42177e+06 0 -333187 -4.45303e+06 0 -326155 -4.48535e+06 0 -318612 -4.51879e+06 0 -310487 -4.55341e+06 0 -301702 -4.58928e+06 0 -292170 -4.62645e+06 0 -281792 -4.66499e+06 0 -270459 -4.70498e+06 0 -258049 -4.74647e+06 0 -244428 -4.78953e+06 0 -229448 -4.83424e+06 0 -212942 -4.88065e+06 0 -194731 -4.92883e+06 0 -174612 -4.97883e+06 0 -152368 -5.0307e+06 0 -127757 -5.0845e+06 0 -100516 -5.14025e+06 0 -70356.3 -5.19798e+06 0 -36964.9 -5.25769e+06 0 7.45058e-08 -5.31942e+06 0 -827716 -2.79492e+06 0 -822954 -2.80614e+06 0 -818182 -2.81738e+06 0 -813399 -2.82862e+06 0 -808606 -2.83987e+06 0 -803803 -2.85114e+06 0 -798990 -2.86242e+06 0 -794168 -2.87371e+06 0 -789338 -2.88501e+06 0 -784498 -2.89633e+06 0 -779650 -2.90766e+06 0 -774795 -2.919e+06 0 -769932 -2.93036e+06 0 -765061 -2.94173e+06 0 -760184 -2.95311e+06 0 -755301 -2.96451e+06 0 -750411 -2.97593e+06 0 -745517 -2.98736e+06 0 -740617 -2.99881e+06 0 -735712 -3.01028e+06 0 -730804 -3.02176e+06 0 -725892 -3.03327e+06 0 -720977 -3.04479e+06 0 -716059 -3.05633e+06 0 -711140 -3.0679e+06 0 -706218 -3.07948e+06 0 -701296 -3.09109e+06 0 -696374 -3.10272e+06 0 -691452 -3.11437e+06 0 -686530 -3.12605e+06 0 -681610 -3.13776e+06 0 -676692 -3.14949e+06 0 -671776 -3.16125e+06 0 -666864 -3.17304e+06 0 -661956 -3.18486e+06 0 -657052 -3.19671e+06 0 -652153 -3.2086e+06 0 -647260 -3.22051e+06 0 -642373 -3.23247e+06 0 -637494 -3.24446e+06 0 -632622 -3.25649e+06 0 -627759 -3.26856e+06 0 -622904 -3.28067e+06 0 -618060 -3.29282e+06 0 -613225 -3.30502e+06 0 -608402 -3.31727e+06 0 -603590 -3.32956e+06 0 -598791 -3.34191e+06 0 -594005 -3.35431e+06 0 -589232 -3.36677e+06 0 -584473 -3.37929e+06 0 -579729 -3.39187e+06 0 -575000 -3.40451e+06 0 -570286 -3.41721e+06 0 -565590 -3.42999e+06 0 -560910 -3.44283e+06 0 -556247 -3.45576e+06 0 -551602 -3.46876e+06 0 -546975 -3.48184e+06 0 -542366 -3.49501e+06 0 -537777 -3.50827e+06 0 -533206 -3.52162e+06 0 -528655 -3.53506e+06 0 -524124 -3.54861e+06 0 -519612 -3.56226e+06 0 -515120 -3.57603e+06 0 -510648 -3.5899e+06 0 -506195 -3.6039e+06 0 -501762 -3.61802e+06 0 -497348 -3.63228e+06 0 -492954 -3.64667e+06 0 -488578 -3.6612e+06 0 -484220 -3.67588e+06 0 -479881 -3.69071e+06 0 -475558 -3.70571e+06 0 -471251 -3.72087e+06 0 -466960 -3.73621e+06 0 -462682 -3.75174e+06 0 -458418 -3.76746e+06 0 -454165 -3.78338e+06 0 -449922 -3.79951e+06 0 -445687 -3.81586e+06 0 -441458 -3.83244e+06 0 -437233 -3.84927e+06 0 -433008 -3.86634e+06 0 -428782 -3.88368e+06 0 -424551 -3.9013e+06 0 -420311 -3.91921e+06 0 -416058 -3.93743e+06 0 -411787 -3.95597e+06 0 -407494 -3.97484e+06 0 -403172 -3.99407e+06 0 -398815 -4.01367e+06 0 -394415 -4.03366e+06 0 -389965 -4.05406e+06 0 -385454 -4.0749e+06 0 -380872 -4.0962e+06 0 -376208 -4.11797e+06 0 -371447 -4.14025e+06 0 -366576 -4.16307e+06 0 -361576 -4.18645e+06 0 -356429 -4.21043e+06 0 -351113 -4.23503e+06 0 -345605 -4.2603e+06 0 -339876 -4.28627e+06 0 -333896 -4.31297e+06 0 -327631 -4.34045e+06 0 -321043 -4.36876e+06 0 -314088 -4.39792e+06 0 -306719 -4.428e+06 0 -298881 -4.45903e+06 0 -290514 -4.49107e+06 0 -281552 -4.52417e+06 0 -271920 -4.55838e+06 0 -261534 -4.59375e+06 0 -250305 -4.63034e+06 0 -238129 -4.66819e+06 0 -224895 -4.70737e+06 0 -210479 -4.74793e+06 0 -194744 -4.78991e+06 0 -177539 -4.83336e+06 0 -158701 -4.87833e+06 0 -138048 -4.92486e+06 0 -115384 -4.97297e+06 0 -90491.8 -5.02271e+06 0 -63137.5 -5.07407e+06 0 -33066 -5.12707e+06 0 4.76837e-07 -5.18173e+06 0 -825556 -2.78136e+06 0 -820785 -2.79249e+06 0 -816004 -2.80362e+06 0 -811211 -2.81477e+06 0 -806408 -2.82593e+06 0 -801595 -2.83709e+06 0 -796772 -2.84827e+06 0 -791939 -2.85946e+06 0 -787097 -2.87066e+06 0 -782245 -2.88188e+06 0 -777385 -2.89311e+06 0 -772516 -2.90435e+06 0 -767639 -2.9156e+06 0 -762754 -2.92687e+06 0 -757862 -2.93815e+06 0 -752962 -2.94945e+06 0 -748056 -2.96076e+06 0 -743143 -2.97209e+06 0 -738225 -2.98343e+06 0 -733301 -2.9948e+06 0 -728372 -3.00618e+06 0 -723438 -3.01757e+06 0 -718500 -3.02899e+06 0 -713559 -3.04042e+06 0 -708614 -3.05188e+06 0 -703667 -3.06335e+06 0 -698718 -3.07485e+06 0 -693766 -3.08637e+06 0 -688814 -3.09791e+06 0 -683861 -3.10948e+06 0 -678908 -3.12107e+06 0 -673955 -3.13269e+06 0 -669003 -3.14434e+06 0 -664053 -3.15601e+06 0 -659105 -3.16771e+06 0 -654159 -3.17944e+06 0 -649217 -3.19121e+06 0 -644278 -3.203e+06 0 -639344 -3.21483e+06 0 -634415 -3.2267e+06 0 -629491 -3.2386e+06 0 -624574 -3.25054e+06 0 -619663 -3.26252e+06 0 -614759 -3.27454e+06 0 -609863 -3.28661e+06 0 -604976 -3.29872e+06 0 -600097 -3.31087e+06 0 -595228 -3.32308e+06 0 -590369 -3.33533e+06 0 -585521 -3.34764e+06 0 -580683 -3.36001e+06 0 -575857 -3.37243e+06 0 -571043 -3.38491e+06 0 -566242 -3.39746e+06 0 -561453 -3.41007e+06 0 -556678 -3.42275e+06 0 -551916 -3.4355e+06 0 -547168 -3.44832e+06 0 -542435 -3.46122e+06 0 -537716 -3.4742e+06 0 -533011 -3.48726e+06 0 -528322 -3.50041e+06 0 -523648 -3.51365e+06 0 -518988 -3.52699e+06 0 -514344 -3.54043e+06 0 -509715 -3.55396e+06 0 -505101 -3.56761e+06 0 -500502 -3.58137e+06 0 -495917 -3.59524e+06 0 -491346 -3.60924e+06 0 -486790 -3.62336e+06 0 -482246 -3.63761e+06 0 -477715 -3.65201e+06 0 -473196 -3.66654e+06 0 -468688 -3.68123e+06 0 -464190 -3.69607e+06 0 -459701 -3.71108e+06 0 -455220 -3.72626e+06 0 -450745 -3.74161e+06 0 -446275 -3.75715e+06 0 -441808 -3.77289e+06 0 -437342 -3.78883e+06 0 -432874 -3.80498e+06 0 -428403 -3.82135e+06 0 -423925 -3.83795e+06 0 -419438 -3.8548e+06 0 -414937 -3.8719e+06 0 -410420 -3.88926e+06 0 -405881 -3.90691e+06 0 -401317 -3.92484e+06 0 -396722 -3.94308e+06 0 -392090 -3.96164e+06 0 -387415 -3.98054e+06 0 -382690 -3.99978e+06 0 -377906 -4.0194e+06 0 -373055 -4.03941e+06 0 -368126 -4.05982e+06 0 -363109 -4.08066e+06 0 -357990 -4.10196e+06 0 -352757 -4.12372e+06 0 -347393 -4.14599e+06 0 -341880 -4.16878e+06 0 -336201 -4.19212e+06 0 -330332 -4.21605e+06 0 -324250 -4.24058e+06 0 -317927 -4.26575e+06 0 -311334 -4.2916e+06 0 -304436 -4.31817e+06 0 -297196 -4.34547e+06 0 -289574 -4.37356e+06 0 -281521 -4.40248e+06 0 -272987 -4.43225e+06 0 -263915 -4.46293e+06 0 -254241 -4.49456e+06 0 -243896 -4.52717e+06 0 -232802 -4.56081e+06 0 -220874 -4.59553e+06 0 -208018 -4.63135e+06 0 -194131 -4.66834e+06 0 -179098 -4.70652e+06 0 -162797 -4.74593e+06 0 -145089 -4.78661e+06 0 -125828 -4.82859e+06 0 -104849 -4.87189e+06 0 -81977.2 -4.91653e+06 0 -57020 -4.96252e+06 0 -29769.5 -5.00986e+06 0 -2.98023e-08 -5.05856e+06 0 -823401 -2.76783e+06 0 -818622 -2.77885e+06 0 -813832 -2.78989e+06 0 -809031 -2.80094e+06 0 -804219 -2.812e+06 0 -799396 -2.82306e+06 0 -794563 -2.83414e+06 0 -789720 -2.84523e+06 0 -784867 -2.85633e+06 0 -780004 -2.86745e+06 0 -775132 -2.87858e+06 0 -770250 -2.88971e+06 0 -765360 -2.90087e+06 0 -760461 -2.91203e+06 0 -755555 -2.92321e+06 0 -750640 -2.93441e+06 0 -745718 -2.94561e+06 0 -740789 -2.95684e+06 0 -735853 -2.96808e+06 0 -730911 -2.97933e+06 0 -725963 -2.99061e+06 0 -721009 -3.0019e+06 0 -716050 -3.01321e+06 0 -711087 -3.02453e+06 0 -706119 -3.03588e+06 0 -701147 -3.04725e+06 0 -696172 -3.05863e+06 0 -691194 -3.07004e+06 0 -686214 -3.08147e+06 0 -681232 -3.09293e+06 0 -676248 -3.10441e+06 0 -671263 -3.11591e+06 0 -666277 -3.12744e+06 0 -661292 -3.139e+06 0 -656307 -3.15058e+06 0 -651322 -3.16219e+06 0 -646340 -3.17384e+06 0 -641359 -3.18551e+06 0 -636381 -3.19722e+06 0 -631406 -3.20896e+06 0 -626434 -3.22073e+06 0 -621466 -3.23254e+06 0 -616503 -3.24439e+06 0 -611545 -3.25628e+06 0 -606592 -3.26821e+06 0 -601645 -3.28019e+06 0 -596705 -3.29221e+06 0 -591772 -3.30427e+06 0 -586846 -3.31638e+06 0 -581928 -3.32855e+06 0 -577018 -3.34076e+06 0 -572117 -3.35303e+06 0 -567224 -3.36536e+06 0 -562341 -3.37774e+06 0 -557468 -3.39019e+06 0 -552605 -3.4027e+06 0 -547752 -3.41528e+06 0 -542910 -3.42793e+06 0 -538079 -3.44065e+06 0 -533258 -3.45344e+06 0 -528448 -3.46632e+06 0 -523650 -3.47927e+06 0 -518863 -3.49231e+06 0 -514087 -3.50544e+06 0 -509322 -3.51867e+06 0 -504567 -3.53198e+06 0 -499824 -3.5454e+06 0 -495091 -3.55893e+06 0 -490368 -3.57256e+06 0 -485655 -3.5863e+06 0 -480950 -3.60017e+06 0 -476254 -3.61415e+06 0 -471566 -3.62827e+06 0 -466885 -3.64252e+06 0 -462210 -3.65691e+06 0 -457540 -3.67144e+06 0 -452873 -3.68613e+06 0 -448208 -3.70097e+06 0 -443544 -3.71597e+06 0 -438880 -3.73115e+06 0 -434212 -3.74651e+06 0 -429540 -3.76206e+06 0 -424860 -3.77779e+06 0 -420170 -3.79374e+06 0 -415467 -3.80989e+06 0 -410749 -3.82627e+06 0 -406012 -3.84288e+06 0 -401251 -3.85973e+06 0 -396463 -3.87683e+06 0 -391643 -3.8942e+06 0 -386785 -3.91184e+06 0 -381885 -3.92978e+06 0 -376936 -3.94801e+06 0 -371931 -3.96657e+06 0 -366862 -3.98546e+06 0 -361721 -4.00469e+06 0 -356498 -4.02429e+06 0 -351182 -4.04427e+06 0 -345763 -4.06466e+06 0 -340228 -4.08546e+06 0 -334562 -4.10671e+06 0 -328749 -4.12842e+06 0 -322771 -4.15062e+06 0 -316610 -4.17332e+06 0 -310244 -4.19656e+06 0 -303648 -4.22036e+06 0 -296796 -4.24475e+06 0 -289659 -4.26976e+06 0 -282204 -4.29541e+06 0 -274395 -4.32174e+06 0 -266191 -4.34878e+06 0 -257550 -4.37656e+06 0 -248420 -4.40511e+06 0 -238750 -4.43447e+06 0 -228480 -4.46468e+06 0 -217543 -4.49575e+06 0 -205869 -4.52774e+06 0 -193379 -4.56067e+06 0 -179986 -4.59457e+06 0 -165595 -4.62948e+06 0 -150104 -4.66543e+06 0 -133399 -4.70244e+06 0 -115357 -4.74053e+06 0 -95844.4 -4.77972e+06 0 -74716.4 -4.82003e+06 0 -51815.3 -4.86146e+06 0 -26971.2 -4.90401e+06 0 5.36442e-07 -4.94768e+06 0 -821250 -2.75431e+06 0 -816464 -2.76524e+06 0 -811666 -2.77618e+06 0 -806857 -2.78713e+06 0 -802036 -2.79808e+06 0 -797205 -2.80905e+06 0 -792362 -2.82003e+06 0 -787509 -2.83102e+06 0 -782646 -2.84203e+06 0 -777772 -2.85304e+06 0 -772889 -2.86406e+06 0 -767996 -2.8751e+06 0 -763094 -2.88615e+06 0 -758183 -2.89721e+06 0 -753262 -2.90829e+06 0 -748334 -2.91938e+06 0 -743397 -2.93049e+06 0