<?xml version="1.0"?> 
<VTKFile type="StructuredGrid" version="0.1"> 
<StructuredGrid WholeExtent="0 15 0 15 0 0"> 
<Piece Extent="0 15 0 15 0 0"> 
<PointData>
<DataArray type="Float32" Name="E" format="ascii" NumberOfComponents="3"> 
1.51575e+06 7.65179 0 1.51546e+06 73525.7 0 1.51458e+06 148017 0 1.51305e+06 224486 0 1.51082e+06 304064 0 1.50777e+06 388071 0 1.5038e+06 478120 0 1.49875e+06 576277 0 1.4925e+06 685301 0 1.485e+06 809067 0 1.47639e+06 953309 0 1.46735e+06 1.12703e+06 0 1.45941e+06 1.34531e+06 0 1.45619e+06 1.63507e+06 0 1.46469e+06 2.04775e+06 0 1.49563e+06 2.68488e+06 0 1.45577e+06 6.67847 0 1.4556e+06 70552.7 0 1.45439e+06 142203 0 1.45206e+06 215862 0 1.44849e+06 292562 0 1.44349e+06 373517 0 1.43679e+06 460217 0 1.42804e+06 554577 0 1.41675e+06 659160 0 1.40231e+06 777562 0 1.38387e+06 915086 0 1.36033e+06 1.08003e+06 0 1.33e+06 1.28616e+06 0 1.28999e+06 1.55787e+06 0 1.23446e+06 1.94141e+06 0 1.1492e+06 2.52682e+06 0 1.39616e+06 5.90643 0 1.3959e+06 67816 0 1.39421e+06 136824 0 1.39098e+06 207848 0 1.38602e+06 281826 0 1.37905e+06 359867 0 1.36968e+06 443341 0 1.35735e+06 534003 0 1.34126e+06 634194 0 1.3203e+06 747190 0 1.29278e+06 877774 0 1.25609e+06 1.03336e+06 0 1.20586e+06 1.22603e+06 0 1.13392e+06 1.47688e+06 0 1.02383e+06 1.82508e+06 0 839235 2.34661e+06 0 1.33708e+06 5.25957 0 1.33657e+06 65332 0 1.33427e+06 131916 0 1.33004e+06 200495 0 1.32364e+06 271920 0 1.3147e+06 347204 0 1.3027e+06 427588 0 1.2869e+06 514663 0 1.26624e+06 610536 0 1.23915e+06 718122 0 1.20324e+06 841622 0 1.15468e+06 987421 0 1.08691e+06 1.16569e+06 0 987727 1.3936e+06 0 832572 1.70189e+06 0 567704 2.14837e+06 0 1.27871e+06 4.76027 0 1.27781e+06 63111.9 0 1.27481e+06 127501 0 1.26951e+06 193839 0 1.26162e+06 262896 0 1.2507e+06 335586 0 1.23611e+06 413028 0 1.21696e+06 496641 0 1.19193e+06 588284 0 1.15908e+06 690485 0 1.11544e+06 806815 0 1.0562e+06 942537 0 973151 1.10572e+06 0 851207 1.30927e+06 0 660435 1.57463e+06 0 336217 1.9384e+06 0 1.22118e+06 4.34854 0 1.21982e+06 61161 0 1.21604e+06 123593 0 1.20964e+06 187902 0 1.20024e+06 254782 0 1.18734e+06 325053 0 1.17021e+06 399707 0 1.1478e+06 479990 0 1.11859e+06 567499 0 1.08034e+06 664361 0 1.02958e+06 773474 0 960799 898925 0 864631 1.04657e+06 0 724236 1.2249e+06 0 507066 1.4458e+06 0 145051 1.72371e+06 0 1.16466e+06 4.00177 0 1.16278e+06 59479.2 0 1.1582e+06 120195 0 1.15066e+06 182691 0 1.13975e+06 247590 0 1.1249e+06 315617 0 1.10528e+06 387641 0 1.07972e+06 464727 0 1.04652e+06 548205 0 1.00319e+06 639781 0 945917 741661 0 868679 856716 0 761464 988569 0 606738 1.1413e+06 0 371982 1.31762e+06 0 -7111.19 1.51121e+06 0 1.10927e+06 3.67512 0 1.10688e+06 58061.3 0 1.1015e+06 117297 0 1.09283e+06 178196 0 1.08042e+06 241309 0 1.06365e+06 307269 0 1.0416e+06 376818 0 1.01299e+06 450837 0 975988 530385 0 927909 616732 0 864704 711378 0 780066 815970 0 663798 931925 0 498671 1.05915e+06 0 254546 1.19199e+06 0 -123080 1.30699e+06 0 1.05514e+06 3.3528 0 1.05227e+06 56897 0 1.04612e+06 114884 0 1.03635e+06 174394 0 1.02248e+06 235911 0 1.00383e+06 299974 0 979419 367197 0 947881 438274 0 907271 513983 0 854770 595154 0 786202 682574 0 695197 776678 0 571802 876772 0 399997 978944 0 153962 1.07054e+06 0 -206820 1.1159e+06 0 1.00238e+06 3.03449 0 999107 55971.9 0 992237 112928 0 981422 171249 0 966147 231349 0 945677 293676 0 918987 358711 0 884640 426959 0 840614 498910 0 784018 574949 0 710654 655152 0 614301 738778 0 485645 823171 0 310662 901106 0 69279.6 954586 0 -263000 941318 0 951091 2.72315 0 947513 55268.2 0 940010 111397 0 928218 168714 0 911599 227565 0 889384 288302 0 860503 351274 0 823473 416788 0 776227 485046 0 715865 555984 0 638273 628977 0 537583 702168 0 405474 771132 0 230569 825956 0 -582.804 845144 0 -296525 785151 0 901357 2.41187 0 897597 54765.1 0 889561 110251 0 876878 166733 0 858991 224486 0 835108 283764 0 804129 344779 0 764545 407640 0 714280 472250 0 650486 538101 0 569240 603886 0 465216 666715 0 331408 720636 0 159565 753753 0 -56814.7 742963 0 -312113 647948 0 853248 2.07155 0 849449 54440.3 0 840994 109449 0 827513 165246 0 808441 222033 0 782970 279965 0 749989 339110 0 707980 399375 0 654901 460364 0 588013 521127 0 503694 579703 0 397336 632276 0 263518 671654 0 97429.3 684713 0 -100671 648540 0 -313957 529148 0 806819 1.68658 0 803137 54269.9 0 794385 108946 0 780204 164189 0 760030 220124 0 733053 276802 0 698162 334145 0 653861 391851 0 598172 449222 0 528535 504878 0 441733 556247 0 334035 598707 0 201832 624159 0 43871.4 619021 0 -133424 562150 0 -305458 427309 0 762115 1.21883 0 758713 54230 0 749788 108696 0 735004 163496 0 713808 218673 0 685403 274171 0 648692 329759 0 602227 384920 0 544138 438659 0 472103 489175 0 383420 533344 0 275368 565879 0 146327 578147 0 -1472.13 556847 0 -156288 483912 0 -288933 340267 0 719164 0.655074 0 716206 54296.9 0 707231 108656 0 691936 163105 0 669793 217600 0 640028 271970 0 601583 325828 0 553080 378439 0 492801 428512 0 418729 473845 0 328776 510832 0 221345 533689 0 96927.5 533637 0 -39061.9 498359 0 -170312 413882 0 -265121 265121 0 </DataArray> 
</PointData> 
<Points> 
<DataArray type="Float32" NumberOfComponents="3"> 
0.392738 0 0 0.392738 0.000693704 0 0.392738 0.00138741 0 0.392738 0.00208111 0 0.392738 0.00277482 0 0.392738 0.00346852 0 0.392738 0.00416223 0 0.392738 0.00485593 0 0.392738 0.00554964 0 0.392738 0.00624334 0 0.392738 0.00693704 0 0.392738 0.00763075 0 0.392738 0.00832445 0 0.392738 0.00901816 0 0.392738 0.00971186 0 0.392738 0.0104056 0 0.393022 0 0 0.39302 0.000668877 0 0.393019 0.00134 0 0.393017 0.00201339 0 0.393016 0.00268905 0 0.393014 0.00336699 0 0.393012 0.00404723 0 0.393011 0.00472977 0 0.393009 0.00541464 0 0.393007 0.00610183 0 0.393006 0.00679137 0 0.393004 0.00748326 0 0.393002 0.00817752 0 0.393001 0.00887415 0 0.392999 0.00957318 0 0.392997 0.0102746 0 0.393306 0 0 0.393304 0.000647908 0 0.393302 0.00129987 0 0.3933 0.00195594 0 0.393298 0.00261613 0 0.393296 0.00328051 0 0.393293 0.00394909 0 0.393291 0.00462193 0 0.393289 0.00529907 0 0.393287 0.00598054 0 0.393284 0.00666639 0 0.393282 0.00735666 0 0.39328 0.00805139 0 0.393278 0.00875063 0 0.393275 0.00945442 0 0.393273 0.0101628 0 0.39359 0 0 0.393589 0.00063083 0 0.393587 0.00126714 0 0.393585 0.00190901 0 0.393583 0.00255651 0 0.393582 0.00320971 0 0.39358 0.00386869 0 0.393578 0.00453353 0 0.393576 0.0052043 0 0.393575 0.00588109 0 0.393573 0.00656397 0 0.393571 0.00725303 0 0.393569 0.00794835 0 0.393567 0.00865002 0 0.393565 0.00935813 0 0.393563 0.0100728 0 0.393874 0 0 0.393874 0.000617669 0 0.393873 0.00124191 0 0.393873 0.00187284 0 0.393872 0.00251055 0 0.393872 0.00315517 0 0.393871 0.00380679 0 0.39387 0.00446555 0 0.39387 0.00513154 0 0.393869 0.0058049 0 0.393868 0.00648575 0 0.393868 0.00717421 0 0.393867 0.00787042 0 0.393867 0.00857449 0 0.393866 0.00928658 0 0.393865 0.0100068 0 0.394159 0 0 0.39416 0.000608446 0 0.394161 0.00122426 0 0.394162 0.00184759 0 0.394163 0.00247856 0 0.394164 0.00311731 0 0.394165 0.00376399 0 0.394166 0.00441876 0 0.394167 0.00508175 0 0.394169 0.00575314 0 0.39417 0.00643307 0 0.394171 0.00712171 0 0.394172 0.00781924 0 0.394174 0.00852582 0 0.394175 0.00924163 0 0.394176 0.00996685 0 0.394443 0 0 0.394446 0.000603176 0 0.394449 0.00121425 0 0.394452 0.00183339 0 0.394455 0.00246073 0 0.394458 0.00309646 0 0.394461 0.00374074 0 0.394465 0.00439375 0 0.394468 0.00505565 0 0.394471 0.00572665 0 0.394475 0.00640691 0 0.394478 0.00709665 0 0.394481 0.00779604 0 0.394485 0.00850532 0 0.394489 0.00922467 0 0.394492 0.00995432 0 0.394727 0 0 0.394732 0.00060187 0 0.394737 0.00121192 0 0.394742 0.00183031 0 0.394747 0.00245723 0 0.394753 0.00309284 0 0.394758 0.00373733 0 0.394764 0.00439088 0 0.394769 0.00505369 0 0.394775 0.00572596 0 0.39478 0.00640789 0 0.394786 0.00709969 0 0.394792 0.00780158 0 0.394798 0.00851377 0 0.394804 0.0092365 0 0.39481 0.00997001 0 0.395011 0 0 0.395018 0.000604529 0 0.395025 0.00121727 0 0.395032 0.0018384 0 0.395039 0.00246809 0 0.395047 0.0031065 0 0.395054 0.00375384 0 0.395062 0.00441028 0 0.395069 0.00507603 0 0.395077 0.00575127 0 0.395085 0.00643621 0 0.395093 0.00713107 0 0.395101 0.00783605 0 0.395109 0.00855139 0 0.395118 0.00927732 0 0.395126 0.0100141 0 0.395295 0 0 0.395304 0.000611154 0 0.395312 0.00123031 0 0.395321 0.00185763 0 0.39533 0.00249328 0 0.395339 0.00313742 0 0.395348 0.00379022 0 0.395357 0.00445186 0 0.395367 0.00512252 0 0.395376 0.00580238 0 0.395386 0.00649165 0 0.395396 0.0071905 0 0.395406 0.00789915 0 0.395416 0.0086178 0 0.395426 0.00934667 0 0.395436 0.010086 0 0.395579 0 0 0.395589 0.000621735 0 0.395599 0.001251 0 0.395609 0.00188794 0 0.395618 0.00253269 0 0.395629 0.00318539 0 0.395639 0.0038462 0 0.395649 0.00451527 0 0.39566 0.00519274 0 0.39567 0.00587879 0 0.395681 0.00657357 0 0.395692 0.00727726 0 0.395703 0.00799002 0 0.395714 0.00871203 0 0.395725 0.00944348 0 0.395737 0.0101845 0 0.395863 0 0 0.395873 0.00063626 0 0.395883 0.00127929 0 0.395894 0.00192921 0 0.395904 0.00258612 0 0.395914 0.00325014 0 0.395925 0.00392138 0 0.395935 0.00459996 0 0.395946 0.005286 0 0.395957 0.00597963 0 0.395968 0.00668097 0 0.395979 0.00739015 0 0.39599 0.00810731 0 0.396002 0.00883258 0 0.396013 0.0095661 0 0.396025 0.010308 0 0.396148 0 0 0.396157 0.00065471 0 0.396166 0.00131511 0 0.396176 0.00198128 0 0.396186 0.00265329 0 0.396195 0.00333122 0 0.396205 0.00401515 0 0.396215 0.00470515 0 0.396225 0.00540131 0 0.396235 0.00610372 0 0.396245 0.00681245 0 0.396255 0.0075276 0 0.396266 0.00824924 0 0.396276 0.00897747 0 0.396287 0.00971239 0 0.396297 0.0104541 0 0.396432 0 0 0.396439 0.00067706 0 0.396447 0.00135836 0 0.396455 0.00204394 0 0.396463 0.00273384 0 0.39647 0.00342811 0 0.396478 0.00412678 0 0.396486 0.00482989 0 0.396494 0.00553749 0 0.396502 0.00624963 0 0.39651 0.00696633 0 0.396519 0.00768766 0 0.396527 0.00841365 0 0.396535 0.00914436 0 0.396543 0.00987981 0 0.396552 0.0106201 0 0.396716 0 0 0.39672 0.000703279 0 0.396725 0.00140892 0 0.39673 0.00211695 0 0.396734 0.00282736 0 0.396739 0.00354017 0 0.396744 0.00425539 0 0.396748 0.00497304 0 0.396753 0.00569313 0 0.396758 0.00641567 0 0.396762 0.00714067 0 0.396767 0.00786815 0 0.396772 0.00859812 0 0.396777 0.00933058 0 0.396782 0.0100656 0 0.396786 0.0108031 0 0.397 0 0 0.397 0.000733333 0 0.397 0.00146667 0 0.397 0.0022 0 0.397 0.00293333 0 0.397 0.00366667 0 0.397 0.0044 0 0.397 0.00513333 0 0.397 0.00586667 0 0.397 0.0066 0 0.397 0.00733333 0 0.397 0.00806667 0 0.397 0.0088 0 0.397 0.00953333 0 0.397 0.0102667 0 0.397 0.011 0 
</DataArray>
</Points> 
</Piece> 
</StructuredGrid> 
</VTKFile> 
