<?xml version="1.0"?> 
<VTKFile type="StructuredGrid" version="0.1"> 
<StructuredGrid WholeExtent="0 127 0 127 0 0"> 
<Piece Extent="0 127 0 127 0 0"> 
<PointData>
<DataArray type="Float32" Name="E" format="ascii" NumberOfComponents="3"> 
4.33143e+06 -1.77637e+06 0 4.39643e+06 -1.76078e+06 0 4.45507e+06 -1.74259e+06 0 4.50858e+06 -1.72243e+06 0 4.55786e+06 -1.70078e+06 0 4.60363e+06 -1.67799e+06 0 4.64641e+06 -1.65431e+06 0 4.68663e+06 -1.62996e+06 0 4.72461e+06 -1.60508e+06 0 4.76063e+06 -1.57979e+06 0 4.7949e+06 -1.5542e+06 0 4.8276e+06 -1.52838e+06 0 4.85888e+06 -1.50238e+06 0 4.88887e+06 -1.47626e+06 0 4.91767e+06 -1.45006e+06 0 4.94538e+06 -1.4238e+06 0 4.97209e+06 -1.39752e+06 0 4.99787e+06 -1.37123e+06 0 5.02279e+06 -1.34496e+06 0 5.0469e+06 -1.31871e+06 0 5.07026e+06 -1.2925e+06 0 5.09291e+06 -1.26633e+06 0 5.11492e+06 -1.24021e+06 0 5.1363e+06 -1.21415e+06 0 5.15711e+06 -1.18814e+06 0 5.17737e+06 -1.1622e+06 0 5.19712e+06 -1.13632e+06 0 5.21639e+06 -1.11049e+06 0 5.23521e+06 -1.08473e+06 0 5.25359e+06 -1.05902e+06 0 5.27156e+06 -1.03337e+06 0 5.28915e+06 -1.00776e+06 0 5.30638e+06 -982209 0 5.32325e+06 -956699 0 5.3398e+06 -931229 0 5.35603e+06 -905793 0 5.37197e+06 -880389 0 5.38762e+06 -855010 0 5.40299e+06 -829651 0 5.41811e+06 -804308 0 5.43297e+06 -778975 0 5.4476e+06 -753646 0 5.46199e+06 -728317 0 5.47616e+06 -702981 0 5.49012e+06 -677633 0 5.50387e+06 -652269 0 5.51742e+06 -626881 0 5.53078e+06 -601465 0 5.54395e+06 -576016 0 5.55694e+06 -550527 0 5.56975e+06 -524995 0 5.58238e+06 -499413 0 5.59485e+06 -473776 0 5.60714e+06 -448080 0 5.61928e+06 -422319 0 5.63125e+06 -396488 0 5.64306e+06 -370583 0 5.65472e+06 -344599 0 5.66622e+06 -318532 0 5.67756e+06 -292376 0 5.68875e+06 -266128 0 5.69979e+06 -239783 0 5.71067e+06 -213337 0 5.72141e+06 -186787 0 5.73199e+06 -160127 0 5.74242e+06 -133355 0 5.7527e+06 -106467 0 5.76282e+06 -79458.3 0 5.77279e+06 -52326.8 0 5.7826e+06 -25068.8 0 5.79226e+06 2318.81 0 5.80176e+06 29839.1 0 5.8111e+06 57495.1 0 5.82028e+06 85289.3 0 5.8293e+06 113225 0 5.83815e+06 141303 0 5.84683e+06 169528 0 5.85535e+06 197900 0 5.8637e+06 226423 0 5.87187e+06 255098 0 5.87986e+06 283927 0 5.88768e+06 312911 0 5.89531e+06 342053 0 5.90276e+06 371353 0 5.91003e+06 400813 0 5.9171e+06 430434 0 5.92398e+06 460217 0 5.93066e+06 490163 0 5.93715e+06 520272 0 5.94343e+06 550546 0 5.9495e+06 580984 0 5.95537e+06 611587 0 5.96102e+06 642355 0 5.96646e+06 673287 0 5.97168e+06 704385 0 5.97667e+06 735648 0 5.98144e+06 767074 0 5.98598e+06 798665 0 5.99028e+06 830418 0 5.99435e+06 862334 0 5.99817e+06 894411 0 6.00176e+06 926648 0 6.00509e+06 959044 0 6.00818e+06 991598 0 6.01101e+06 1.02431e+06 0 6.01358e+06 1.05717e+06 0 6.01589e+06 1.09019e+06 0 6.01793e+06 1.12336e+06 0 6.01971e+06 1.15667e+06 0 6.02121e+06 1.19014e+06 0 6.02244e+06 1.22375e+06 0 6.02339e+06 1.2575e+06 0 6.02406e+06 1.29139e+06 0 6.02444e+06 1.32541e+06 0 6.02454e+06 1.35957e+06 0 6.02434e+06 1.39386e+06 0 6.02385e+06 1.42828e+06 0 6.02306e+06 1.46283e+06 0 6.02197e+06 1.4975e+06 0 6.02058e+06 1.53228e+06 0 6.01888e+06 1.56718e+06 0 6.01687e+06 1.60219e+06 0 6.01455e+06 1.63731e+06 0 6.01192e+06 1.67253e+06 0 6.00897e+06 1.70786e+06 0 6.0057e+06 1.74328e+06 0 6.00211e+06 1.77879e+06 0 5.99819e+06 1.81439e+06 0 4.43967e+06 -1.49187e+06 0 4.47065e+06 -1.48557e+06 0 4.50231e+06 -1.47695e+06 0 4.53418e+06 -1.46642e+06 0 4.56591e+06 -1.45426e+06 0 4.59728e+06 -1.44072e+06 0 4.62815e+06 -1.42601e+06 0 4.6584e+06 -1.41028e+06 0 4.68799e+06 -1.39367e+06 0 4.71689e+06 -1.37631e+06 0 4.74508e+06 -1.35828e+06 0 4.77257e+06 -1.33968e+06 0 4.79936e+06 -1.32057e+06 0 4.82547e+06 -1.30101e+06 0 4.85092e+06 -1.28106e+06 0 4.87572e+06 -1.26076e+06 0 4.89991e+06 -1.24016e+06 0 4.92349e+06 -1.21928e+06 0 4.9465e+06 -1.19816e+06 0 4.96896e+06 -1.17683e+06 0 4.99088e+06 -1.1553e+06 0 5.01229e+06 -1.1336e+06 0 5.03321e+06 -1.11175e+06 0 5.05366e+06 -1.08975e+06 0 5.07366e+06 -1.06763e+06 0 5.09322e+06 -1.0454e+06 0 5.11237e+06 -1.02306e+06 0 5.13111e+06 -1.00062e+06 0 5.14947e+06 -978099 0 5.16747e+06 -955494 0 5.1851e+06 -932812 0 5.2024e+06 -910057 0 5.21937e+06 -887234 0 5.23602e+06 -864344 0 5.25237e+06 -841390 0 5.26842e+06 -818373 0 5.28419e+06 -795295 0 5.29969e+06 -772156 0 5.31493e+06 -748956 0 5.32991e+06 -725695 0 5.34464e+06 -702372 0 5.35914e+06 -678986 0 5.3734e+06 -655536 0 5.38744e+06 -632021 0 5.40126e+06 -608439 0 5.41487e+06 -584788 0 5.42827e+06 -561066 0 5.44146e+06 -537271 0 5.45446e+06 -513401 0 5.46727e+06 -489454 0 5.47989e+06 -465427 0 5.49232e+06 -441317 0 5.50457e+06 -417122 0 5.51664e+06 -392840 0 5.52853e+06 -368468 0 5.54025e+06 -344003 0 5.5518e+06 -319442 0 5.56318e+06 -294784 0 5.57438e+06 -270026 0 5.58542e+06 -245164 0 5.5963e+06 -220196 0 5.60701e+06 -195121 0 5.61755e+06 -169935 0 5.62793e+06 -144636 0 5.63815e+06 -119222 0 5.6482e+06 -93689.5 0 5.65809e+06 -68037.7 0 5.66781e+06 -42263.8 0 5.67737e+06 -16365.9 0 5.68676e+06 9658.18 0 5.69599e+06 35810.3 0 5.70505e+06 62092.2 0 5.71394e+06 88505.8 0 5.72266e+06 115053 0 5.73121e+06 141735 0 5.73959e+06 168553 0 5.7478e+06 195509 0 5.75583e+06 222603 0 5.76369e+06 249838 0 5.77136e+06 277215 0 5.77886e+06 304734 0 5.78617e+06 332395 0 5.7933e+06 360201 0 5.80024e+06 388151 0 5.80699e+06 416247 0 5.81355e+06 444488 0 5.81992e+06 472875 0 5.82609e+06 501408 0 5.83206e+06 530087 0 5.83783e+06 558913 0 5.8434e+06 587885 0 5.84876e+06 617003 0 5.85391e+06 646266 0 5.85886e+06 675675 0 5.86359e+06 705229 0 5.8681e+06 734926 0 5.87239e+06 764767 0 5.87647e+06 794750 0 5.88031e+06 824874 0 5.88393e+06 855139 0 5.88733e+06 885543 0 5.89048e+06 916085 0 5.89341e+06 946763 0 5.8961e+06 977577 0 5.89854e+06 1.00852e+06 0 5.90075e+06 1.0396e+06 0 5.90271e+06 1.07081e+06 0 5.90442e+06 1.10214e+06 0 5.90588e+06 1.13361e+06 0 5.90709e+06 1.16519e+06 0 5.90804e+06 1.1969e+06 0 5.90873e+06 1.22872e+06 0 5.90917e+06 1.26067e+06 0 5.90934e+06 1.29272e+06 0 5.90925e+06 1.32489e+06 0 5.9089e+06 1.35717e+06 0 5.90827e+06 1.38956e+06 0 5.90737e+06 1.42204e+06 0 5.9062e+06 1.45463e+06 0 5.90476e+06 1.48732e+06 0 5.90304e+06 1.5201e+06 0 5.90104e+06 1.55297e+06 0 5.89876e+06 1.58593e+06 0 5.8962e+06 1.61897e+06 0 5.89336e+06 1.6521e+06 0 5.89023e+06 1.68531e+06 0 5.88681e+06 1.71859e+06 0 5.88311e+06 1.75194e+06 0 4.46153e+06 -1.31195e+06 0 4.48718e+06 -1.30347e+06 0 4.51264e+06 -1.29429e+06 0 4.53792e+06 -1.28441e+06 0 4.56301e+06 -1.27382e+06 0 4.5879e+06 -1.26255e+06 0 4.61256e+06 -1.2506e+06 0 4.63697e+06 -1.23802e+06 0 4.66111e+06 -1.22484e+06 0 4.68497e+06 -1.21108e+06 0 4.70852e+06 -1.19678e+06 0 4.73174e+06 -1.18198e+06 0 4.75464e+06 -1.1667e+06 0 4.77719e+06 -1.15098e+06 0 4.7994e+06 -1.13484e+06 0 4.82125e+06 -1.11831e+06 0 4.84275e+06 -1.10142e+06 0 4.8639e+06 -1.08419e+06 0 4.88469e+06 -1.06664e+06 0 4.90513e+06 -1.04879e+06 0 4.92523e+06 -1.03066e+06 0 4.94498e+06 -1.01227e+06 0 4.96439e+06 -993638 0 4.98346e+06 -974773 0 5.00221e+06 -955690 0 5.02064e+06 -936402 0 5.03875e+06 -916921 0 5.05655e+06 -897256 0 5.07405e+06 -877416 0 5.09126e+06 -857411 0 5.10817e+06 -837248 0 5.1248e+06 -816933 0 5.14116e+06 -796474 0 5.15725e+06 -775875 0 5.17307e+06 -755141 0 5.18864e+06 -734277 0 5.20395e+06 -713287 0 5.21902e+06 -692173 0 5.23385e+06 -670939 0 5.24845e+06 -649588 0 5.26281e+06 -628121 0 5.27695e+06 -606540 0 5.29088e+06 -584846 0 5.30458e+06 -563041 0 5.31808e+06 -541126 0 5.33137e+06 -519101 0 5.34445e+06 -496966 0 5.35734e+06 -474722 0 5.37003e+06 -452369 0 5.38252e+06 -429906 0 5.39483e+06 -407334 0 5.40695e+06 -384651 0 5.41888e+06 -361858 0 5.43063e+06 -338953 0 5.44219e+06 -315936 0 5.45358e+06 -292806 0 5.46479e+06 -269562 0 5.47583e+06 -246203 0 5.48669e+06 -222728 0 5.49737e+06 -199137 0 5.50789e+06 -175428 0 5.51823e+06 -151600 0 5.5284e+06 -127653 0 5.53839e+06 -103584 0 5.54822e+06 -79393.2 0 5.55787e+06 -55079.6 0 5.56736e+06 -30641.9 0 5.57667e+06 -6079.4 0 5.58581e+06 18609 0 5.59478e+06 43424.2 0 5.60358e+06 68367 0 5.61221e+06 93438.3 0 5.62066e+06 118639 0 5.62894e+06 143969 0 5.63704e+06 169430 0 5.64496e+06 195022 0 5.65271e+06 220745 0 5.66027e+06 246601 0 5.66766e+06 272589 0 5.67487e+06 298709 0 5.68189e+06 324963 0 5.68873e+06 351350 0 5.69538e+06 377870 0 5.70184e+06 404523 0 5.70812e+06 431309 0 5.7142e+06 458228 0 5.72009e+06 485280 0 5.72579e+06 512464 0 5.73128e+06 539781 0 5.73658e+06 567228 0 5.74168e+06 594806 0 5.74658e+06 622515 0 5.75127e+06 650353 0 5.75576e+06 678319 0 5.76004e+06 706413 0 5.76411e+06 734634 0 5.76797e+06 762980 0 5.77161e+06 791451 0 5.77503e+06 820045 0 5.77824e+06 848760 0 5.78123e+06 877596 0 5.784e+06 906550 0 5.78654e+06 935622 0 5.78886e+06 964809 0 5.79095e+06 994110 0 5.79282e+06 1.02352e+06 0 5.79445e+06 1.05305e+06 0 5.79584e+06 1.08268e+06 0 5.79701e+06 1.11241e+06 0 5.79794e+06 1.14225e+06 0 5.79863e+06 1.1722e+06 0 5.79908e+06 1.20224e+06 0 5.79929e+06 1.23238e+06 0 5.79925e+06 1.26261e+06 0 5.79898e+06 1.29294e+06 0 5.79845e+06 1.32336e+06 0 5.79769e+06 1.35386e+06 0 5.79667e+06 1.38445e+06 0 5.7954e+06 1.41512e+06 0 5.79389e+06 1.44587e+06 0 5.79212e+06 1.47669e+06 0 5.7901e+06 1.50759e+06 0 5.78782e+06 1.53857e+06 0 5.78529e+06 1.5696e+06 0 5.78251e+06 1.60071e+06 0 5.77947e+06 1.63187e+06 0 5.77617e+06 1.6631e+06 0 5.77261e+06 1.69438e+06 0 4.47104e+06 -1.15951e+06 0 4.49147e+06 -1.15166e+06 0 4.51201e+06 -1.14332e+06 0 4.53261e+06 -1.13447e+06 0 4.55325e+06 -1.12514e+06 0 4.57388e+06 -1.11532e+06 0 4.59447e+06 -1.10503e+06 0 4.615e+06 -1.09428e+06 0 4.63545e+06 -1.08307e+06 0 4.65578e+06 -1.07143e+06 0 4.67599e+06 -1.05935e+06 0 4.69606e+06 -1.04685e+06 0 4.71598e+06 -1.03396e+06 0 4.73572e+06 -1.02067e+06 0 4.75528e+06 -1.00701e+06 0 4.77465e+06 -992982 0 4.79382e+06 -978607 0 4.81278e+06 -963896 0 4.83153e+06 -948862 0 4.85006e+06 -933517 0 4.86837e+06 -917874 0 4.88645e+06 -901943 0 4.9043e+06 -885738 0 4.92193e+06 -869267 0 4.93932e+06 -852542 0 4.95648e+06 -835573 0 4.97341e+06 -818368 0 4.99011e+06 -800936 0 5.00657e+06 -783286 0 5.02281e+06 -765426 0 5.03882e+06 -747362 0 5.0546e+06 -729102 0 5.07016e+06 -710652 0 5.08549e+06 -692018 0 5.10061e+06 -673206 0 5.1155e+06 -654220 0 5.13018e+06 -635065 0 5.14465e+06 -615746 0 5.15891e+06 -596267 0 5.17296e+06 -576632 0 5.1868e+06 -556843 0 5.20043e+06 -536904 0 5.21387e+06 -516818 0 5.22711e+06 -496587 0 5.24015e+06 -476214 0 5.25299e+06 -455700 0 5.26564e+06 -435048 0 5.2781e+06 -414258 0 5.29038e+06 -393333 0 5.30246e+06 -372274 0 5.31436e+06 -351082 0 5.32608e+06 -329757 0 5.33761e+06 -308301 0 5.34896e+06 -286714 0 5.36014e+06 -264997 0 5.37113e+06 -243151 0 5.38194e+06 -221175 0 5.39258e+06 -199071 0 5.40305e+06 -176838 0 5.41333e+06 -154476 0 5.42344e+06 -131987 0 5.43338e+06 -109369 0 5.44314e+06 -86623.4 0 5.45273e+06 -63749.8 0 5.46215e+06 -40748.2 0 5.47139e+06 -17618.8 0 5.48046e+06 5638.45 0 5.48935e+06 29023.5 0 5.49807e+06 52536.5 0 5.50661e+06 76177.1 0 5.51498e+06 99945.5 0 5.52317e+06 123842 0 5.53118e+06 147865 0 5.53902e+06 172016 0 5.54668e+06 196294 0 5.55416e+06 220699 0 5.56146e+06 245231 0 5.56858e+06 269890 0 5.57552e+06 294675 0 5.58227e+06 319585 0 5.58884e+06 344621 0 5.59523e+06 369782 0 5.60143e+06 395067 0 5.60744e+06 420476 0 5.61326e+06 446008 0 5.6189e+06 471662 0 5.62434e+06 497438 0 5.62959e+06 523334 0 5.63464e+06 549351 0 5.6395e+06 575486 0 5.64416e+06 601740 0 5.64862e+06 628110 0 5.65289e+06 654596 0 5.65695e+06 681196 0 5.66081e+06 707910 0 5.66446e+06 734735 0 5.66791e+06 761671 0 5.67116e+06 788716 0 5.67419e+06 815868 0 5.67702e+06 843126 0 5.67963e+06 870489 0 5.68203e+06 897954 0 5.68422e+06 925519 0 5.6862e+06 953184 0 5.68795e+06 980945 0 5.6895e+06 1.0088e+06 0 5.69082e+06 1.03675e+06 0 5.69192e+06 1.06479e+06 0 5.6928e+06 1.09292e+06 0 5.69346e+06 1.12114e+06 0 5.6939e+06 1.14944e+06 0 5.69411e+06 1.17783e+06 0 5.6941e+06 1.20629e+06 0 5.69387e+06 1.23483e+06 0 5.6934e+06 1.26345e+06 0 5.69272e+06 1.29214e+06 0 5.6918e+06 1.3209e+06 0 5.69065e+06 1.34973e+06 0 5.68928e+06 1.37863e+06 0 5.68767e+06 1.40759e+06 0 5.68584e+06 1.4366e+06 0 5.68377e+06 1.46568e+06 0 5.68147e+06 1.49481e+06 0 5.67894e+06 1.524e+06 0 5.67618e+06 1.55324e+06 0 5.67319e+06 1.58252e+06 0 5.66997e+06 1.61185e+06 0 5.66651e+06 1.64122e+06 0 4.4679e+06 -1.02922e+06 0 4.48555e+06 -1.02183e+06 0 4.50325e+06 -1.01409e+06 0 4.521e+06 -1.00601e+06 0 4.53877e+06 -997567 0 4.55657e+06 -988772 0 4.57437e+06 -979620 0 4.59217e+06 -970112 0 4.60995e+06 -960249 0 4.62769e+06 -950033 0 4.64539e+06 -939466 0 4.66304e+06 -928552 0 4.68062e+06 -917296 0 4.69811e+06 -905703 0 4.71552e+06 -893779 0 4.73283e+06 -881529 0 4.75002e+06 -868960 0 4.7671e+06 -856078 0 4.78405e+06 -842890 0 4.80087e+06 -829403 0 4.81755e+06 -815625 0 4.83408e+06 -801562 0 4.85046e+06 -787220 0 4.86668e+06 -772609 0 4.88274e+06 -757733 0 4.89864e+06 -742601 0 4.91437e+06 -727219 0 4.92993e+06 -711593 0 4.94531e+06 -695730 0 4.96052e+06 -679636 0 4.97556e+06 -663317 0 4.99041e+06 -646778 0 5.00508e+06 -630026 0 5.01958e+06 -613066 0 5.03389e+06 -595902 0 5.04802e+06 -578540 0 5.06197e+06 -560984 0 5.07573e+06 -543239 0 5.08931e+06 -525309 0 5.10271e+06 -507197 0 5.11593e+06 -488908 0 5.12897e+06 -470445 0 5.14183e+06 -451812 0 5.1545e+06 -433011 0 5.167e+06 -414045 0 5.17931e+06 -394918 0 5.19145e+06 -375631 0 5.20341e+06 -356188 0 5.21519e+06 -336590 0 5.22679e+06 -316840 0 5.23822e+06 -296939 0 5.24947e+06 -276890 0 5.26054e+06 -256694 0 5.27144e+06 -236352 0 5.28217e+06 -215867 0 5.29272e+06 -195240 0 5.30309e+06 -174472 0 5.31329e+06 -153564 0 5.32332e+06 -132517 0 5.33317e+06 -111333 0 5.34285e+06 -90012.6 0 5.35236e+06 -68556.7 0 5.36169e+06 -46966.2 0 5.37085e+06 -25242.3 0 5.37983e+06 -3385.59 0 5.38865e+06 18602.9 0 5.39728e+06 40722.5 0 5.40574e+06 62972.2 0 5.41403e+06 85351.3 0 5.42214e+06 107859 0 5.43007e+06 130495 0 5.43783e+06 153257 0 5.44541e+06 176146 0 5.45281e+06 199160 0 5.46004e+06 222298 0 5.46708e+06 245561 0 5.47395e+06 268946 0 5.48063e+06 292453 0 5.48713e+06 316080 0 5.49345e+06 339828 0 5.49959e+06 363695 0 5.50554e+06 387680 0 5.51131e+06 411782 0 5.51689e+06 435999 0 5.52228e+06 460331 0 5.52749e+06 484777 0 5.5325e+06 509335 0 5.53733e+06 534004 0 5.54196e+06 558783 0 5.5464e+06 583670 0 5.55065e+06 608663 0 5.55471e+06 633763 0 5.55857e+06 658966 0 5.56223e+06 684272 0 5.5657e+06 709679 0 5.56896e+06 735185 0 5.57203e+06 760788 0 5.5749e+06 786487 0 5.57757e+06 812281 0 5.58003e+06 838167 0 5.5823e+06 864143 0 5.58436e+06 890208 0 5.58621e+06 916359 0 5.58786e+06 942595 0 5.58931e+06 968914 0 5.59054e+06 995314 0 5.59157e+06 1.02179e+06 0 5.5924e+06 1.04835e+06 0 5.59301e+06 1.07498e+06 0 5.59341e+06 1.10168e+06 0 5.59361e+06 1.12845e+06 0 5.59359e+06 1.15529e+06 0 5.59337e+06 1.18219e+06 0 5.59293e+06 1.20916e+06 0 5.59229e+06 1.23619e+06 0 5.59143e+06 1.26327e+06 0 5.59036e+06 1.29042e+06 0 5.58908e+06 1.31761e+06 0 5.58758e+06 1.34486e+06 0 5.58588e+06 1.37216e+06 0 5.58396e+06 1.39951e+06 0 5.58183e+06 1.42689e+06 0 5.57949e+06 1.45432e+06 0 5.57694e+06 1.48179e+06 0 5.57417e+06 1.5093e+06 0 5.5712e+06 1.53684e+06 0 5.56801e+06 1.56442e+06 0 5.56461e+06 1.59202e+06 0 4.45959e+06 -914096 0 4.47494e+06 -907291 0 4.49038e+06 -900206 0 4.50589e+06 -892837 0 4.52147e+06 -885180 0 4.5371e+06 -877232 0 4.55277e+06 -868989 0 4.56847e+06 -860450 0 4.5842e+06 -851614 0 4.59993e+06 -842480 0 4.61567e+06 -833047 0 4.6314e+06 -823315 0 4.6471e+06 -813286 0 4.66278e+06 -802960 0 4.67841e+06 -792340 0 4.694e+06 -781427 0 4.70954e+06 -770224 0 4.72501e+06 -758734 0 4.7404e+06 -746960 0 4.75572e+06 -734905 0 4.77095e+06 -722574 0 4.78609e+06 -709970 0 4.80112e+06 -697097 0 4.81606e+06 -683960 0 4.83088e+06 -670563 0 4.84558e+06 -656910 0 4.86016e+06 -643007 0 4.87462e+06 -628857 0 4.88894e+06 -614465 0 4.90314e+06 -599835 0 4.91719e+06 -584973 0 4.9311e+06 -569882 0 4.94488e+06 -554568 0 4.9585e+06 -539034 0 4.97198e+06 -523285 0 4.9853e+06 -507325 0 4.99847e+06 -491158 0 5.01149e+06 -474787 0 5.02435e+06 -458218 0 5.03706e+06 -441453 0 5.0496e+06 -424496 0 5.06199e+06 -407351 0 5.07421e+06 -390021 0 5.08627e+06 -372510 0 5.09817e+06 -354819 0 5.1099e+06 -336954 0 5.12147e+06 -318915 0 5.13288e+06 -300707 0 5.14412e+06 -282331 0 5.15519e+06 -263791 0 5.1661e+06 -245089 0 5.17684e+06 -226226 0 5.18742e+06 -207207 0 5.19782e+06 -188031 0 5.20806e+06 -168703 0 5.21813e+06 -149223 0 5.22804e+06 -129593 0 5.23777e+06 -109816 0 5.24734e+06 -89893.8 0 5.25673e+06 -69827.1 0 5.26595e+06 -49618 0 5.27501e+06 -29268.2 0 5.28389e+06 -8779.2 0 5.2926e+06 11847.4 0 5.30115e+06 32610.1 0 5.30951e+06 53507.4 0 5.31771e+06 74537.8 0 5.32573e+06 95700.1 0 5.33358e+06 116993 0 5.34126e+06 138414 0 5.34876e+06 159963 0 5.35608e+06 181638 0 5.36323e+06 203438 0 5.3702e+06 225362 0 5.37699e+06 247407 0 5.38361e+06 269573 0 5.39005e+06 291858 0 5.39631e+06 314262 0 5.40238e+06 336781 0 5.40828e+06 359415 0 5.414e+06 382163 0 5.41953e+06 405023 0 5.42488e+06 427994 0 5.43004e+06 451073 0 5.43502e+06 474260 0 5.43982e+06 497552 0 5.44443e+06 520949 0 5.44885e+06 544448 0 5.45309e+06 568049 0 5.45713e+06 591748 0 5.46099e+06 615545 0 5.46466e+06 639438 0 5.46813e+06 663425 0 5.47142e+06 687503 0 5.47451e+06 711673 0 5.47741e+06 735930 0 5.48012e+06 760274 0 5.48264e+06 784703 0 5.48496e+06 809214 0 5.48708e+06 833806 0 5.48902e+06 858477 0 5.49075e+06 883224 0 5.49229e+06 908046 0 5.49363e+06 932940 0 5.49478e+06 957904 0 5.49573e+06 982937 0 5.49648e+06 1.00804e+06 0 5.49704e+06 1.0332e+06 0 5.4974e+06 1.05842e+06 0 5.49756e+06 1.08371e+06 0 5.49752e+06 1.10905e+06 0 5.49728e+06 1.13444e+06 0 5.49685e+06 1.15989e+06 0 5.49622e+06 1.18539e+06 0 5.49539e+06 1.21094e+06 0 5.49436e+06 1.23653e+06 0 5.49313e+06 1.26217e+06 0 5.49171e+06 1.28785e+06 0 5.49009e+06 1.31356e+06 0 5.48828e+06 1.33932e+06 0 5.48627e+06 1.36511e+06 0 5.48406e+06 1.39093e+06 0 5.48166e+06 1.41678e+06 0 5.47906e+06 1.44266e+06 0 5.47627e+06 1.46856e+06 0 5.47329e+06 1.49449e+06 0 5.47011e+06 1.52044e+06 0 5.46674e+06 1.5464e+06 0 4.44708e+06 -811311 0 4.46073e+06 -805032 0 4.47446e+06 -798518 0 4.48827e+06 -791764 0 4.50215e+06 -784765 0 4.51609e+06 -777518 0 4.53009e+06 -770019 0 4.54413e+06 -762264 0 4.55822e+06 -754251 0 4.57233e+06 -745978 0 4.58647e+06 -737443 0 4.60063e+06 -728645 0 4.6148e+06 -719581 0 4.62896e+06 -710253 0 4.64312e+06 -700659 0 4.65726e+06 -690799 0 4.67138e+06 -680674 0 4.68546e+06 -670286 0 4.69951e+06 -659634 0 4.71352e+06 -648721 0 4.72747e+06 -637548 0 4.74136e+06 -626117 0 4.75519e+06 -614430 0 4.76895e+06 -602489 0 4.78263e+06 -590298 0 4.79623e+06 -577859 0 4.80974e+06 -565174 0 4.82316e+06 -552248 0 4.83648e+06 -539082 0 4.8497e+06 -525680 0 4.86281e+06 -512046 0 4.87581e+06 -498182 0 4.88869e+06 -484093 0 4.90146e+06 -469781 0 4.91411e+06 -455250 0 4.92663e+06 -440503 0 4.93902e+06 -425544 0 4.95128e+06 -410376 0 4.9634e+06 -395002 0 4.97539e+06 -379427 0 4.98724e+06 -363652 0 4.99895e+06 -347681 0 5.01052e+06 -331518 0 5.02194e+06 -315165 0 5.03322e+06 -298626 0 5.04435e+06 -281903 0 5.05532e+06 -265000 0 5.06615e+06 -247920 0 5.07682e+06 -230664 0 5.08734e+06 -213236 0 5.0977e+06 -195639 0 5.10791e+06 -177875 0 5.11796e+06 -159946 0 5.12785e+06 -141856 0 5.13758e+06 -123606 0 5.14715e+06 -105199 0 5.15656e+06 -86637.1 0 5.16581e+06 -67922.6 0 5.17489e+06 -49057.8 0 5.18381e+06 -30044.8 0 5.19257e+06 -10885.6 0 5.20116e+06 8417.66 0 5.20958e+06 27863 0 5.21784e+06 47448.3 0 5.22593e+06 67171.7 0 5.23385e+06 87031.3 0 5.2416e+06 107025 0 5.24918e+06 127151 0 5.25659e+06 147408 0 5.26382e+06 167793 0 5.27089e+06 188305 0 5.27778e+06 208942 0 5.2845e+06 229702 0 5.29105e+06 250584 0 5.29742e+06 271585 0 5.30361e+06 292703 0 5.30963e+06 313938 0 5.31547e+06 335286 0 5.32113e+06 356747 0 5.32662e+06 378318 0 5.33192e+06 399998 0 5.33705e+06 421784 0 5.342e+06 443675 0 5.34676e+06 465669 0 5.35134e+06 487764 0 5.35575e+06 509958 0 5.35997e+06 532249 0 5.364e+06 554636 0 5.36785e+06 577115 0 5.37152e+06 599686 0 5.375e+06 622347 0 5.3783e+06 645094 0 5.38142e+06 667927 0 5.38434e+06 690843 0 5.38708e+06 713840 0 5.38964e+06 736916 0 5.392e+06 760070 0 5.39418e+06 783298 0 5.39617e+06 806598 0 5.39798e+06 829969 0 5.39959e+06 853409 0 5.40102e+06 876915 0 5.40226e+06 900485 0 5.40331e+06 924116 0 5.40418e+06 947808 0 5.40485e+06 971556 0 5.40534e+06 995360 0 5.40564e+06 1.01922e+06 0 5.40575e+06 1.04312e+06 0 5.40568e+06 1.06708e+06 0 5.40541e+06 1.09108e+06 0 5.40496e+06 1.11513e+06 0 5.40432e+06 1.13922e+06 0 5.4035e+06 1.16334e+06 0 5.40249e+06 1.18751e+06 0 5.4013e+06 1.21171e+06 0 5.39992e+06 1.23594e+06 0 5.39835e+06 1.2602e+06 0 5.3966e+06 1.28449e+06 0 5.39467e+06 1.30881e+06 0 5.39256e+06 1.33315e+06 0 5.39026e+06 1.35751e+06 0 5.38779e+06 1.38189e+06 0 5.38513e+06 1.40629e+06 0 5.3823e+06 1.43071e+06 0 5.37929e+06 1.45513e+06 0 5.3761e+06 1.47957e+06 0 5.37273e+06 1.50402e+06 0 4.43196e+06 -718526 0 4.4442e+06 -712739 0 4.45653e+06 -706744 0 4.46895e+06 -700536 0 4.48144e+06 -694112 0 4.494e+06 -687467 0 4.50662e+06 -680598 0 4.51931e+06 -673501 0 4.53204e+06 -666174 0 4.54482e+06 -658614 0 4.55763e+06 -650817 0 4.57048e+06 -642783 0 4.58335e+06 -634509 0 4.59623e+06 -625994 0 4.60913e+06 -617236 0 4.62203e+06 -608235 0 4.63493e+06 -598989 0 4.64782e+06 -589500 0 4.6607e+06 -579765 0 4.67355e+06 -569787 0 4.68637e+06 -559565 0 4.69916e+06 -549099 0 4.7119e+06 -538392 0 4.7246e+06 -527443 0 4.73725e+06 -516255 0 4.74984e+06 -504829 0 4.76236e+06 -493166 0 4.77482e+06 -481269 0 4.7872e+06 -469139 0 4.7995e+06 -456779 0 4.81172e+06 -444190 0 4.82385e+06 -431377 0 4.83589e+06 -418340 0 4.84783e+06 -405082 0 4.85967e+06 -391606 0 4.8714e+06 -377916 0 4.88303e+06 -364012 0 4.89454e+06 -349899 0 4.90594e+06 -335579 0 4.91722e+06 -321055 0 4.92838e+06 -306330 0 4.93942e+06 -291407 0 4.95033e+06 -276288 0 4.9611e+06 -260976 0 4.97175e+06 -245475 0 4.98226e+06 -229787 0 4.99264e+06 -213914 0 5.00287e+06 -197861 0 5.01297e+06 -181628 0 5.02292e+06 -165220 0 5.03273e+06 -148639 0 5.04239e+06 -131887 0 5.0519e+06 -114967 0 5.06127e+06 -97881.7 0 5.07048e+06 -80633.9 0 5.07954e+06 -63225.9 0 5.08845e+06 -45660.2 0 5.0972e+06 -27939.4 0 5.10579e+06 -10065.8 0 5.11423e+06 7958.23 0 5.12251e+06 26130.2 0 5.13063e+06 44447.8 0 5.13858e+06 62908.7 0 5.14638e+06 81510.6 0 5.15401e+06 100251 0 5.16148e+06 119128 0 5.16878e+06 138140 0 5.17592e+06 157283 0 5.18289e+06 176556 0 5.18969e+06 195957 0 5.19633e+06 215483 0 5.20279e+06 235132 0 5.20908e+06 254903 0 5.21521e+06 274792 0 5.22116e+06 294799 0 5.22694e+06 314920 0 5.23255e+06 335153 0 5.23798e+06 355497 0 5.24324e+06 375949 0 5.24832e+06 396507 0 5.25323e+06 417169 0 5.25796e+06 437932 0 5.26252e+06 458795 0 5.26689e+06 479756 0 5.27109e+06 500812 0 5.27512e+06 521961 0 5.27896e+06 543201 0 5.28262e+06 564530 0 5.28611e+06 585945 0 5.28941e+06 607444 0 5.29254e+06 629026 0 5.29548e+06 650687 0 5.29825e+06 672426 0 5.30083e+06 694240 0 5.30323e+06 716127 0 5.30546e+06 738085 0 5.3075e+06 760112 0 5.30936e+06 782205 0 5.31103e+06 804362 0 5.31253e+06 826581 0 5.31385e+06 848859 0 5.31498e+06 871195 0 5.31594e+06 893585 0 5.31671e+06 916028 0 5.3173e+06 938521 0 5.31772e+06 961062 0 5.31795e+06 983649 0 5.318e+06 1.00628e+06 0 5.31788e+06 1.02895e+06 0 5.31757e+06 1.05166e+06 0 5.31709e+06 1.07441e+06 0 5.31643e+06 1.09719e+06 0 5.3156e+06 1.12e+06 0 5.31459e+06 1.14285e+06 0 5.3134e+06 1.16572e+06 0 5.31204e+06 1.18861e+06 0 5.3105e+06 1.21153e+06 0 5.3088e+06 1.23447e+06 0 5.30691e+06 1.25743e+06 0 5.30486e+06 1.28041e+06 0 5.30264e+06 1.3034e+06 0 5.30025e+06 1.3264e+06 0 5.29769e+06 1.34941e+06 0 5.29496e+06 1.37243e+06 0 5.29207e+06 1.39546e+06 0 5.28901e+06 1.41849e+06 0 5.28579e+06 1.44153e+06 0 5.28241e+06 1.46456e+06 0 4.41485e+06 -634231 0 4.42594e+06 -628884 0 4.43712e+06 -623348 0 4.44838e+06 -617621 0 4.45972e+06 -611697 0 4.47113e+06 -605572 0 4.4826e+06 -599244 0 4.49414e+06 -592709 0 4.50574e+06 -585964 0 4.51738e+06 -579006 0 4.52907e+06 -571832 0 4.5408e+06 -564440 0 4.55256e+06 -556827 0 4.56435e+06 -548993 0 4.57617e+06 -540934 0 4.58799e+06 -532650 0 4.59983e+06 -524139 0 4.61167e+06 -515401 0 4.62351e+06 -506434 0 4.63534e+06 -497239 0 4.64716e+06 -487814 0 4.65896e+06 -478160 0 4.67074e+06 -468277 0 4.68248e+06 -458165 0 4.69419e+06 -447826 0 4.70586e+06 -437258 0 4.71748e+06 -426464 0 4.72905e+06 -415445 0 4.74056e+06 -404202 0 4.75201e+06 -392736 0 4.76339e+06 -381048 0 4.77471e+06 -369141 0 4.78594e+06 -357017 0 4.7971e+06 -344676 0 4.80817e+06 -332122 0 4.81915e+06 -319356 0 4.83005e+06 -306381 0 4.84084e+06 -293198 0 4.85153e+06 -279811 0 4.86212e+06 -266221 0 4.87261e+06 -252431 0 4.88298e+06 -238443 0 4.89324e+06 -224261 0 4.90338e+06 -209886 0 4.91341e+06 -195321 0 4.92331e+06 -180569 0 4.93308e+06 -165632 0 4.94273e+06 -150513 0 4.95225e+06 -135215 0 4.96164e+06 -119740 0 4.97089e+06 -104091 0 4.98001e+06 -88270.2 0 4.98898e+06 -72280.8 0 4.99782e+06 -56125.2 0 5.00651e+06 -39806 0 5.01506e+06 -23325.7 0 5.02346e+06 -6687.1 0 5.03171e+06 10107.4 0 5.03982e+06 27055.1 0 5.04777e+06 44153.6 0 5.05557e+06 61400.3 0 5.06322e+06 78792.6 0 5.07071e+06 96328 0 5.07805e+06 114004 0 5.08522e+06 131818 0 5.09224e+06 149768 0 5.0991e+06 167852 0 5.1058e+06 186066 0 5.11233e+06 204408 0 5.1187e+06 222876 0 5.12491e+06 241468 0 5.13095e+06 260181 0 5.13683e+06 279012 0 5.14254e+06 297960 0 5.14808e+06 317021 0 5.15345e+06 336194 0 5.15865e+06 355476 0 5.16369e+06 374865 0 5.16855e+06 394358 0 5.17324e+06 413953 0 5.17777e+06 433647 0 5.18211e+06 453439 0 5.18629e+06 473325 0 5.19029e+06 493304 0 5.19412e+06 513372 0 5.19778e+06 533528 0 5.20126e+06 553770 0 5.20456e+06 574094 0 5.2077e+06 594498 0 5.21065e+06 614981 0 5.21343e+06 635539 0 5.21604e+06 656170 0 5.21847e+06 676872 0 5.22072e+06 697642 0 5.2228e+06 718479 0 5.22471e+06 739379 0 5.22644e+06 760340 0 5.22799e+06 781360 0 5.22937e+06 802436 0 5.23057e+06 823567 0 5.2316e+06 844749 0 5.23245e+06 865980 0 5.23314e+06 887258 0 5.23364e+06 908581 0 5.23398e+06 929946 0 5.23414e+06 951350 0 5.23413e+06 972792 0 5.23395e+06 994269 0 5.23359e+06 1.01578e+06 0 5.23307e+06 1.03732e+06 0 5.23238e+06 1.05889e+06 0 5.23152e+06 1.08048e+06 0 5.23049e+06 1.1021e+06 0 5.22929e+06 1.12374e+06 0 5.22793e+06 1.1454e+06 0 5.22641e+06 1.16708e+06 0 5.22472e+06 1.18877e+06 0 5.22286e+06 1.21047e+06 0 5.22085e+06 1.23219e+06 0 5.21867e+06 1.25391e+06 0 5.21634e+06 1.27564e+06 0 5.21384e+06 1.29737e+06 0 5.21119e+06 1.31911e+06 0 5.20839e+06 1.34084e+06 0 5.20543e+06 1.36258e+06 0 5.20231e+06 1.38431e+06 0 5.19905e+06 1.40603e+06 0 5.19563e+06 1.42775e+06 0 4.39632e+06 -557238 0 4.40643e+06 -552286 0 4.41663e+06 -547161 0 4.42691e+06 -541858 0 4.43727e+06 -536373 0 4.4477e+06 -530704 0 4.45819e+06 -524846 0 4.46875e+06 -518797 0 4.47937e+06 -512554 0 4.49004e+06 -506114 0 4.50076e+06 -499473 0 4.51153e+06 -492630 0 4.52233e+06 -485583 0 4.53317e+06 -478329 0 4.54403e+06 -470866 0 4.55492e+06 -463192 0 4.56582e+06 -455307 0 4.57674e+06 -447208 0 4.58766e+06 -438895 0 4.59859e+06 -430367 0 4.60952e+06 -421623 0 4.62043e+06 -412662 0 4.63133e+06 -403484 0 4.64221e+06 -394089 0 4.65307e+06 -384477 0 4.6639e+06 -374649 0 4.67469e+06 -364604 0 4.68545e+06 -354343 0 4.69616e+06 -343867 0 4.70682e+06 -333176 0 4.71743e+06 -322272 0 4.72797e+06 -311157 0 4.73846e+06 -299830 0 4.74888e+06 -288294 0 4.75923e+06 -276550 0 4.7695e+06 -264600 0 4.77969e+06 -252445 0 4.78979e+06 -240087 0 4.79981e+06 -227529 0 4.80974e+06 -214772 0 4.81957e+06 -201818 0 4.82931e+06 -188670 0 4.83894e+06 -175330 0 4.84846e+06 -161799 0 4.85788e+06 -148081 0 4.86719e+06 -134177 0 4.87638e+06 -120091 0 4.88545e+06 -105824 0 4.8944e+06 -91378.6 0 4.90323e+06 -76758.1 0 4.91194e+06 -61964.6 0 4.92051e+06 -47000.7 0 4.92896e+06 -31868.9 0 4.93727e+06 -16571.9 0 4.94545e+06 -1112.13 0 4.95349e+06 14507.7 0 4.96139e+06 30285.1 0 4.96915e+06 46217.3 0 4.97677e+06 62301.8 0 4.98424e+06 78535.9 0 4.99157e+06 94917.1 0 4.99875e+06 111443 0 5.00578e+06 128110 0 5.01266e+06 144917 0 5.01939e+06 161860 0 5.02596e+06 178937 0 5.03238e+06 196146 0 5.03865e+06 213483 0 5.04475e+06 230946 0 5.0507e+06 248533 0 5.05649e+06 266242 0 5.06211e+06 284068 0 5.06758e+06 302010 0 5.07288e+06 320066 0 5.07802e+06 338232 0 5.083e+06 356506 0 5.08781e+06 374886 0 5.09245e+06 393368 0 5.09693e+06 411951 0 5.10124e+06 430632 0 5.10539e+06 449408 0 5.10936e+06 468277 0 5.11317e+06 487236 0 5.11681e+06 506282 0 5.12028e+06 525414 0 5.12358e+06 544627 0 5.12671e+06 563921 0 5.12967e+06 583292 0 5.13246e+06 602738 0 5.13508e+06 622256 0 5.13753e+06 641844 0 5.13981e+06 661499 0 5.14192e+06 681218 0 5.14386e+06 701000 0 5.14563e+06 720842 0 5.14723e+06 740740 0 5.14866e+06 760693 0 5.14992e+06 780699 0 5.15101e+06 800754 0 5.15194e+06 820856 0 5.15269e+06 841002 0 5.15327e+06 861192 0 5.15369e+06 881420 0 5.15394e+06 901687 0 5.15403e+06 921988 0 5.15395e+06 942322 0 5.15371e+06 962686 0 5.1533e+06 983078 0 5.15272e+06 1.0035e+06 0 5.15199e+06 1.02394e+06 0 5.15109e+06 1.0444e+06 0 5.15004e+06 1.06488e+06 0 5.14882e+06 1.08537e+06 0 5.14745e+06 1.10588e+06 0 5.14591e+06 1.12641e+06 0 5.14422e+06 1.14694e+06 0 5.14238e+06 1.16748e+06 0 5.14038e+06 1.18802e+06 0 5.13823e+06 1.20857e+06 0 5.13593e+06 1.22912e+06 0 5.13348e+06 1.24967e+06 0 5.13088e+06 1.27022e+06 0 5.12813e+06 1.29076e+06 0 5.12524e+06 1.31129e+06 0 5.1222e+06 1.33182e+06 0 5.11902e+06 1.35234e+06 0 5.1157e+06 1.37284e+06 0 5.11224e+06 1.39333e+06 0 4.3767e+06 -486644 0 4.38598e+06 -482046 0 4.39534e+06 -477284 0 4.40478e+06 -472356 0 4.41429e+06 -467259 0 4.42387e+06 -461990 0 4.43352e+06 -456544 0 4.44323e+06 -450920 0 4.453e+06 -445114 0 4.46282e+06 -439123 0 4.4727e+06 -432946 0 4.48262e+06 -426579 0 4.49258e+06 -420021 0 4.50258e+06 -413268 0 4.51261e+06 -406320 0 4.52266e+06 -399174 0 4.53274e+06 -391828 0 4.54284e+06 -384282 0 4.55295e+06 -376534 0 4.56306e+06 -368582 0 4.57318e+06 -360426 0 4.5833e+06 -352065 0 4.59341e+06 -343498 0 4.60351e+06 -334726 0 4.6136e+06 -325746 0 4.62366e+06 -316560 0 4.6337e+06 -307168 0 4.64371e+06 -297569 0 4.65368e+06 -287764 0 4.66361e+06 -277753 0 4.6735e+06 -267538 0 4.68334e+06 -257118 0 4.69312e+06 -246495 0 4.70285e+06 -235670 0 4.71