<?xml version="1.0"?> 
<VTKFile type="StructuredGrid" version="0.1"> 
<StructuredGrid WholeExtent="0 127 0 127 0 0"> 
<Piece Extent="0 127 0 127 0 0"> 
<PointData>
<DataArray type="Float32" Name="E" format="ascii" NumberOfComponents="3"> 
-715480 393679 0 -712879 389042 0 -710296 384470 0 -707731 379960 0 -705183 375511 0 -702653 371123 0 -700139 366793 0 -697643 362521 0 -695163 358305 0 -692700 354144 0 -690253 350037 0 -687822 345983 0 -685408 341980 0 -683009 338027 0 -680626 334124 0 -678259 330268 0 -675907 326461 0 -673571 322699 0 -671249 318983 0 -668943 315311 0 -666652 311682 0 -664375 308096 0 -662113 304552 0 -659865 301048 0 -657632 297584 0 -655413 294160 0 -653208 290774 0 -651017 287425 0 -648840 284114 0 -646677 280838 0 -644528 277598 0 -642392 274392 0 -640269 271221 0 -638160 268083 0 -636064 264977 0 -633981 261904 0 -631911 258862 0 -629854 255850 0 -627809 252869 0 -625778 249918 0 -623759 246995 0 -621753 244101 0 -619759 241235 0 -617777 238396 0 -615808 235584 0 -613851 232799 0 -611906 230039 0 -609974 227304 0 -608053 224595 0 -606144 221910 0 -604247 219248 0 -602361 216610 0 -600488 213995 0 -598626 211403 0 -596775 208833 0 -594936 206284 0 -593109 203757 0 -591292 201251 0 -589488 198765 0 -587694 196299 0 -585912 193853 0 -584141 191426 0 -582381 189018 0 -580632 186629 0 -578894 184257 0 -577167 181904 0 -575452 179568 0 -573747 177249 0 -572053 174947 0 -570371 172661 0 -568699 170391 0 -567038 168137 0 -565388 165899 0 -563750 163675 0 -562122 161467 0 -560505 159272 0 -558899 157092 0 -557304 154925 0 -555721 152772 0 -554148 150633 0 -552587 148505 0 -551037 146391 0 -549499 144289 0 -547972 142198 0 -546457 140119 0 -544953 138051 0 -543462 135995 0 -541982 133948 0 -540515 131912 0 -539060 129886 0 -537618 127870 0 -536189 125863 0 -534773 123865 0 -533371 121875 0 -531983 119894 0 -530610 117921 0 -529252 115955 0 -527909 113996 0 -526582 112044 0 -525272 110099 0 -523980 108159 0 -522706 106225 0 -521452 104297 0 -520218 102373 0 -519007 100453 0 -517819 98537.2 0 -516656 96624.9 0 -515520 94715.5 0 -514414 92808.6 0 -513340 90903.7 0 -512301 89000.2 0 -511301 87097.5 0 -510345 85195.2 0 -509436 83292.5 0 -508583 81388.7 0 -507792 79483.2 0 -507074 77575.1 0 -506442 75664.2 0 -505916 73750.6 0 -505521 71836 0 -505294 69925.9 0 -505290 68029.7 0 -505589 66178.1 0 -506315 64409.1 0 -507654 62807.2 0 -509903 61680 0 -513493 60551.5 0 -518921 60095.5 0 -720174 407362 0 -717550 402659 0 -714945 398023 0 -712357 393449 0 -709786 388938 0 -707232 384488 0 -704696 380097 0 -702176 375765 0 -699673 371489 0 -697187 367269 0 -694716 363103 0 -692262 358991 0 -689824 354931 0 -687401 350922 0 -684995 346963 0 -682604 343052 0 -680228 339190 0 -677867 335374 0 -675522 331605 0 -673191 327880 0 -670875 324199 0 -668574 320562 0 -666287 316966 0 -664015 313412 0 -661757 309899 0 -659514 306425 0 -657284 302991 0 -655068 299594 0 -652866 296235 0 -650678 292912 0 -648503 289626 0 -646342 286374 0 -644194 283158 0 -642059 279975 0 -639937 276825 0 -637829 273708 0 -635733 270622 0 -633650 267568 0 -631580 264545 0 -629522 261552 0 -627477 258588 0 -625445 255654 0 -623424 252747 0 -621417 249869 0 -619421 247018 0 -617437 244194 0 -615465 241396 0 -613506 238624 0 -611558 235877 0 -609622 233155 0 -607697 230457 0 -605784 227784 0 -603883 225133 0 -601993 222506 0 -600115 219902 0 -598248 217319 0 -596392 214758 0 -594547 212219 0 -592714 209700 0 -590891 207202 0 -589080 204725 0 -587280 202266 0 -585490 199828 0 -583712 197408 0 -581944 195006 0 -580187 192623 0 -578441 190258 0 -576706 187911 0 -574981 185580 0 -573267 183267 0 -571564 180970 0 -569871 178689 0 -568188 176423 0 -566517 174174 0 -564855 171939 0 -563205 169719 0 -561564 167514 0 -559935 165323 0 -558316 163146 0 -556707 160982 0 -555109 158832 0 -553522 156694 0 -551945 154569 0 -550379 152456 0 -548824 150355 0 -547279 148266 0 -545745 146188 0 -544222 144120 0 -542711 142064 0 -541210 140017 0 -539721 137981 0 -538243 135954 0 -536776 133936 0 -535322 131927 0 -533879 129927 0 -532449 127934 0 -531031 125949 0 -529626 123972 0 -528233 122001 0 -526855 120036 0 -525490 118077 0 -524139 116124 0 -522803 114175 0 -521483 112231 0 -520179 110290 0 -518891 108352 0 -517621 106416 0 -516370 104482 0 -515139 102549 0 -513928 100615 0 -512740 98680.6 0 -511575 96743.6 0 -510437 94803.4 0 -509326 92858.6 0 -508244 90908 0 -507195 88950 0 -506180 86983.1 0 -505202 85005.5 0 -504262 83014.9 0 -503364 81008.8 0 -502509 78983.9 0 -501697 76935.9 0 -500930 74857.6 0 -500208 72742.7 0 -499531 70574.1 0 -498901 68330.8 0 -498336 66047.5 0 -497877 63613.6 0 -725029 421102 0 -722383 416336 0 -719755 411636 0 -717144 407000 0 -714551 402426 0 -711975 397915 0 -709415 393463 0 -706872 389071 0 -704346 384736 0 -701836 380457 0 -699343 376233 0 -696865 372063 0 -694404 367946 0 -691958 363881 0 -689528 359866 0 -687113 355901 0 -684713 351984 0 -682329 348115 0 -679959 344292 0 -677605 340515 0 -675265 336782 0 -672939 333094 0 -670629 329448 0 -668332 325843 0 -666050 322280 0 -663782 318758 0 -661527 315275 0 -659287 311830 0 -657060 308424 0 -654847 305054 0 -652647 301721 0 -650461 298424 0 -648288 295162 0 -646128 291935 0 -643981 288741 0 -641847 285580 0 -639726 282451 0 -637618 279355 0 -635522 276290 0 -633439 273255 0 -631368 270250 0 -629310 267275 0 -627264 264328 0 -625230 261410 0 -623208 258520 0 -621198 255657 0 -619200 252821 0 -617214 250011 0 -615240 247227 0 -613277 244469 0 -611326 241735 0 -609386 239025 0 -607458 236340 0 -605541 233678 0 -603636 231039 0 -601741 228422 0 -599858 225828 0 -597986 223256 0 -596125 220705 0 -594275 218175 0 -592435 215665 0 -590607 213176 0 -588789 210706 0 -586982 208256 0 -585186 205825 0 -583400 203412 0 -581624 201018 0 -579860 198642 0 -578105 196283 0 -576361 193942 0 -574628 191618 0 -572904 189310 0 -571191 187019 0 -569489 184743 0 -567796 182483 0 -566114 180238 0 -564441 178009 0 -562779 175793 0 -561127 173593 0 -559485 171406 0 -557853 169233 0 -556231 167073 0 -554620 164926 0 -553018 162792 0 -551426 160670 0 -549845 158561 0 -548274 156463 0 -546712 154377 0 -545161 152301 0 -543620 150237 0 -542089 148183 0 -540569 146139 0 -539059 144104 0 -537560 142079 0 -536070 140063 0 -534592 138056 0 -533124 136057 0 -531668 134066 0 -530222 132082 0 -528787 130105 0 -527364 128135 0 -525953 126170 0 -524553 124212 0 -523166 122258 0 -521790 120308 0 -520428 118363 0 -519079 116420 0 -517743 114481 0 -516421 112542 0 -515114 110605 0 -513822 108667 0 -512546 106728 0 -511287 104787 0 -510045 102842 0 -508822 100891 0 -507620 98933.4 0 -506440 96966.1 0 -505284 94986.8 0 -504155 92992.5 0 -503055 90979.6 0 -501987 88943.9 0 -500955 86880.2 0 -499963 84782.8 0 -499013 82643.3 0 -498107 80453.9 0 -497245 78201.8 0 -496419 75857.5 0 -495616 73424.6 0 -730047 434902 0 -727379 430073 0 -724728 425309 0 -722095 420611 0 -719479 415976 0 -716880 411404 0 -714298 406892 0 -711732 402440 0 -709183 398046 0 -706650 393708 0 -704134 389427 0 -701633 385200 0 -699148 381027 0 -696679 376906 0 -694225 372836 0 -691787 368816 0 -689364 364845 0 -686956 360922 0 -684562 357047 0 -682184 353217 0 -679820 349433 0 -677471 345693 0 -675136 341996 0 -672816 338342 0 -670509 334730 0 -668217 331158 0 -665938 327626 0 -663673 324134 0 -661422 320680 0 -659185 317264 0 -656960 313885 0 -654749 310543 0 -652552 307236 0 -650367 303963 0 -648195 300725 0 -646037 297521 0 -643890 294349 0 -641757 291210 0 -639636 288103 0 -637528 285026 0 -635432 281981 0 -633348 278965 0 -631277 275978 0 -629217 273021 0 -627170 270091 0 -625134 267190 0 -623110 264315 0 -621098 261468 0 -619098 258647 0 -617109 255851 0 -615132 253081 0 -613166 250336 0 -611212 247615 0 -609269 244918 0 -607336 242244 0 -605416 239594 0 -603506 236966 0 -601607 234360 0 -599719 231777 0 -597841 229214 0 -595975 226673 0 -594119 224152 0 -592274 221652 0 -590439 219171 0 -588615 216710 0 -586801 214268 0 -584998 211845 0 -583205 209440 0 -581422 207053 0 -579649 204684 0 -577887 202333 0 -576135 199998 0 -574393 197680 0 -572660 195379 0 -570938 193094 0 -569226 190824 0 -567523 188570 0 -565830 186331 0 -564148 184106 0 -562475 181897 0 -560811 179701 0 -559157 177519 0 -557513 175351 0 -555879 173196 0 -554254 171054 0 -552639 168925 0 -551034 166807 0 -549438 164702 0 -547851 162609 0 -546274 160527 0 -544707 158456 0 -543149 156396 0 -541601 154346 0 -540062 152306 0 -538533 150276 0 -537014 148255 0 -535504 146244 0 -534004 144241 0 -532514 142246 0 -531033 140259 0 -529562 138280 0 -528102 136308 0 -526651 134342 0 -525210 132383 0 -523780 130429 0 -522360 128480 0 -520950 126536 0 -519551 124597 0 -518163 122660 0 -516786 120727 0 -515419 118796 0 -514064 116866 0 -512721 114937 0 -511389 113007 0 -510068 111077 0 -508760 109145 0 -507463 107210 0 -506179 105271 0 -504906 103327 0 -503646 101376 0 -502398 99417.1 0 -501162 97448.3 0 -499940 95467.7 0 -498730 93473 0 -497536 91461.2 0 -496357 89429.5 0 -495197 87378.6 0 -494060 85292.2 0 -735227 448763 0 -732537 443870 0 -729864 439044 0 -727209 434284 0 -724570 429588 0 -721949 424955 0 -719344 420383 0 -716756 415872 0 -714184 411419 0 -711629 407024 0 -709089 402685 0 -706565 398402 0 -704057 394172 0 -701565 389995 0 -699088 385870 0 -696627 381796 0 -694180 377772 0 -691749 373796 0 -689332 369867 0 -686930 365986 0 -684543 362150 0 -682170 358359 0 -679811 354612 0 -677467 350908 0 -675136 347247 0 -672820 343626 0 -670517 340047 0 -668228 336507 0 -665953 333006 0 -663691 329543 0 -661443 326118 0 -659207 322730 0 -656985 319378 0 -654776 316061 0 -652580 312779 0 -650396 309531 0 -648226 306316 0 -646067 303135 0 -643922 299985 0 -641789 296867 0 -639668 293780 0 -637559 290724 0 -635462 287697 0 -633378 284700 0 -631305 281731 0 -629244 278791 0 -627195 275878 0 -625158 272993 0 -623132 270134 0 -621118 267302 0 -619115 264496 0 -617123 261714 0 -615143 258958 0 -613174 256226 0 -611216 253518 0 -609269 250833 0 -607333 248171 0 -605408 245532 0 -603493 242916 0 -601589 240321 0 -599696 237748 0 -597814 235196 0 -595942 232664 0 -594081 230153 0 -592230 227661 0 -590389 225190 0 -588558 222737 0 -586738 220304 0 -584928 217889 0 -583128 215492 0 -581338 213112 0 -579558 210751 0 -577788 208407 0 -576027 206079 0 -574277 203768 0 -572536 201473 0 -570804 199194 0 -569083 196931 0 -567371 194683 0 -565668 192450 0 -563976 190231 0 -562292 188027 0 -560618 185837 0 -558953 183661 0 -557298 181498 0 -555651 179349 0 -554014 177212 0 -552387 175088 0 -550768 172976 0 -549159 170877 0 -547558 168789 0 -545967 166712 0 -544385 164646 0 -542811 162591 0 -541247 160547 0 -539692 158513 0 -538146 156488 0 -536608 154473 0 -535080 152468 0 -533561 150471 0 -532050 148482 0 -530548 146502 0 -529056 144529 0 -527572 142564 0 -526097 140606 0 -524631 138654 0 -523174 136708 0 -521727 134768 0 -520288 132833 0 -518858 130902 0 -517438 128976 0 -516026 127053 0 -514624 125133 0 -513232 123214 0 -511849 121297 0 -510475 119381 0 -509112 117464 0 -507758 115546 0 -506414 113625 0 -505080 111700 0 -503757 109771 0 -502443 107835 0 -501139 105892 0 -499845 103939 0 -498561 101975 0 -497284 99997.5 0 -496016 98004.1 0 -494755 95996.4 0 -740571 462684 0 -737859 457728 0 -735164 452841 0 -732487 448019 0 -729826 443263 0 -727182 438569 0 -724555 433938 0 -721945 429368 0 -719350 424857 0 -716772 420404 0 -714210 416009 0 -711663 411669 0 -709133 407383 0 -706617 403151 0 -704117 398972 0 -701633 394843 0 -699163 390765 0 -696708 386736 0 -694268 382756 0 -691843 378822 0 -689432 374935 0 -687036 371094 0 -684654 367297 0 -682286 363543 0 -679932 359832 0 -677591 356163 0 -675265 352536 0 -672952 348948 0 -670653 345400 0 -668367 341891 0 -666094 338420 0 -663835 334986 0 -661589 331589 0 -659355 328228 0 -657135 324902 0 -654927 321610 0 -652732 318353 0 -650549 315128 0 -648379 311937 0 -646221 308777 0 -644075 305649 0 -641942 302552 0 -639821 299485 0 -637711 296448 0 -635614 293440 0 -633528 290461 0 -631454 287511 0 -629391 284587 0 -627341 281691 0 -625301 278822 0 -623273 275979 0 -621256 273161 0 -619251 270369 0 -617256 267602 0 -615272 264859 0 -613300 262140 0 -611338 259444 0 -609387 256772 0 -607447 254122 0 -605518 251495 0 -603599 248890 0 -601691 246306 0 -599793 243743 0 -597905 241201 0 -596028 238679 0 -594161 236177 0 -592304 233695 0 -590457 231232 0 -588620 228788 0 -586794 226363 0 -584977 223956 0 -583170 221567 0 -581373 219196 0 -579585 216842 0 -577807 214505 0 -576039 212184 0 -574280 209880 0 -572531 207592 0 -570791 205320 0 -569061 203063 0 -567340 200821 0 -565628 198595 0 -563926 196382 0 -562232 194185 0 -560548 192001 0 -558873 189830 0 -557206 187674 0 -555549 185530 0 -553901 183399 0 -552261 181281 0 -550630 179175 0 -549008 177081 0 -547395 174999 0 -545791 172928 0 -544195 170868 0 -542607 168819 0 -541029 166781 0 -539458 164753 0 -537897 162735 0 -536343 160727 0 -534798 158728 0 -533262 156738 0 -531733 154757 0 -530213 152784 0 -528701 150820 0 -527198 148863 0 -525702 146913 0 -524214 144970 0 -522735 143034 0 -521263 141105 0 -519800 139181 0 -518344 137262 0 -516896 135349 0 -515456 133439 0 -514023 131534 0 -512598 129633 0 -511181 127734 0 -509771 125837 0 -508368 123942 0 -506972 122048 0 -505583 120155 0 -504201 118260 0 -502826 116365 0 -501458 114466 0 -500096 112565 0 -498741 110658 0 -497391 108746 0 -496047 106825 0 -746079 476666 0 -743346 471648 0 -740629 466699 0 -737929 461817 0 -735247 457000 0 -732581 452247 0 -729932 447557 0 -727299 442928 0 -724682 438360 0 -722081 433850 0 -719497 429397 0 -716928 425001 0 -714374 420660 0 -711836 416374 0 -709313 412140 0 -706806 407957 0 -704313 403826 0 -701835 399745 0 -699372 395712 0 -696924 391727 0 -694490 387789 0 -692070 383897 0 -689664 380050 0 -687273 376247 0 -684895 372487 0 -682531 368770 0 -680181 365094 0 -677845 361459 0 -675522 357864 0 -673212 354309 0 -670916 350792 0 -668632 347313 0 -666362 343870 0 -664105 340465 0 -661860 337095 0 -659628 333760 0 -657409 330459 0 -655202 327192 0 -653008 323959 0 -650825 320758 0 -648655 317588 0 -646498 314451 0 -644352 311344 0 -642218 308267 0 -640096 305220 0 -637985 302202 0 -635887 299212 0 -633799 296251 0 -631724 293318 0 -629659 290411 0 -627606 287531 0 -625565 284678 0 -623534 281850 0 -621514 279047 0 -619506 276269 0 -617508 273515 0 -615521 270786 0 -613545 268080 0 -611580 265397 0 -609625 262737 0 -607681 260099 0 -605747 257483 0 -603823 254888 0 -601910 252315 0 -600007 249762 0 -598115 247230 0 -596232 244718 0 -594359 242226 0 -592497 239753 0 -590644 237299 0 -588801 234864 0 -586968 232447 0 -585144 230048 0 -583331 227667 0 -581526 225304 0 -579732 222957 0 -577947 220628 0 -576171 218314 0 -574404 216017 0 -572647 213736 0 -570899 211471 0 -569160 209221 0 -567430 206985 0 -565710 204765 0 -563998 202559 0 -562295 200367 0 -560601 198190 0 -558916 196026 0 -557240 193875 0 -555572 191737 0 -553913 189612 0 -552262 187500 0 -550620 185400 0 -548987 183312 0 -547362 181236 0 -545745 179172 0 -544137 177118 0 -542537 175076 0 -540945 173044 0 -539361 171023 0 -537785 169012 0 -536217 167010 0 -534657 165019 0 -533106 163036 0 -531562 161063 0 -530025 159098 0 -528497 157142 0 -526976 155194 0 -525462 153253 0 -523957 151320 0 -522458 149394 0 -520967 147475 0 -519483 145562 0 -518007 143656 0 -516537 141755 0 -515075 139859 0 -513619 137967 0 -512170 136081 0 -510728 134198 0 -509292 132318 0 -507863 130441 0 -506439 128567 0 -505022 126694 0 -503610 124823 0 -502203 122951 0 -500802 121080 0 -499405 119208 0 -498014 117334 0 -751753 490709 0 -748997 485630 0 -746259 480620 0 -743538 475678 0 -740833 470801 0 -738146 465989 0 -735474 461241 0 -732819 456554 0 -730180 451928 0 -727557 447361 0 -724950 442852 0 -722359 438400 0 -719783 434004 0 -717222 429663 0 -714677 425375 0 -712146 421139 0 -709631 416955 0 -707130 412821 0 -704644 408737 0 -702172 404700 0 -699715 400711 0 -697272 396769 0 -694844 392872 0 -692429 389020 0 -690028 385211 0 -687641 381446 0 -685267 377722 0 -682907 374040 0 -680561 370399 0 -678228 366797 0 -675907 363234 0 -673600 359709 0 -671306 356223 0 -669025 352772 0 -666757 349359 0 -664501 345980 0 -662257 342637 0 -660027 339327 0 -657808 336052 0 -655602 332809 0 -653408 329599 0 -651226 326420 0 -649056 323273 0 -646897 320156 0 -644751 317070 0 -642616 314013 0 -640493 310985 0 -638381 307985 0 -636281 305014 0 -634192 302070 0 -632115 299154 0 -630048 296264 0 -627993 293400 0 -625949 290561 0 -623915 287748 0 -621893 284960 0 -619881 282196 0 -617880 279456 0 -615890 276740 0 -613910 274046 0 -611941 271376 0 -609982 268728 0 -608033 266101 0 -606095 263496 0 -604167 260913 0 -602249 258350 0 -600341 255808 0 -598443 253286 0 -596555 250783 0 -594677 248300 0 -592808 245837 0 -590950 243392 0 -589101 240965 0 -587261 238557 0 -585431 236166 0 -583611 233793 0 -581800 231437 0 -579998 229098 0 -578206 226776 0 -576422 224470 0 -574648 222180 0 -572883 219905 0 -571127 217647 0 -569380 215403 0 -567642 213175 0 -565913 210961 0 -564192 208761 0 -562481 206576 0 -560777 204404 0 -559083 202246 0 -557397 200102 0 -555719 197970 0 -554050 195851 0 -552390 193745 0 -550737 191651 0 -549093 189570 0 -547457 187500 0 -545829 185441 0 -544209 183394 0 -542597 181358 0 -540993 179333 0 -539397 177319 0 -537809 175314 0 -536228 173320 0 -534655 171336 0 -533090 169361 0 -531532 167395 0 -529981 165439 0 -528438 163491 0 -526902 161552 0 -525373 159620 0 -523851 157697 0 -522336 155782 0 -520829 153873 0 -519327 151972 0 -517833 150077 0 -516345 148189 0 -514863 146307 0 -513388 144431 0 -511919 142560 0 -510455 140694 0 -508998 138832 0 -507546 136975 0 -506099 135121 0 -504658 133271 0 -503221 131423 0 -501790 129578 0 -500362 127735 0 -757592 504815 0 -754815 499675 0 -752056 494604 0 -749313 489602 0 -746587 484666 0 -743877 479796 0 -741184 474989 0 -738507 470245 0 -735846 465561 0 -733201 460938 0 -730571 456374 0 -727958 451866 0 -725359 447416 0 -722776 443020 0 -720208 438678 0 -717655 434389 0 -715117 430153 0 -712594 425967 0 -710085 421830 0 -707590 417743 0 -705110 413703 0 -702644 409711 0 -700193 405764 0 -697755 401863 0 -695331 398006 0 -692920 394192 0 -690524 390421 0 -688140 386692 0 -685770 383004 0 -683414 379356 0 -681070 375747 0 -678739 372178 0 -676422 368646 0 -674117 365152 0 -671825 361694 0 -669545 358272 0 -667278 354886 0 -665023 351534 0 -662781 348216 0 -660551 344932 0 -658333 341680 0 -656127 338461 0 -653932 335273 0 -651750 332117 0 -649580 328991 0 -647421 325895 0 -645273 322829 0 -643138 319791 0 -641013 316782 0 -638900 313801 0 -636798 310847 0 -634707 307921 0 -632628 305021 0 -630559 302147 0 -628501 299298 0 -626454 296475 0 -624418 293677 0 -622392 290903 0 -620377 288153 0 -618373 285426 0 -616379 282722 0 -614395 280041 0 -612422 277383 0 -610459 274746 0 -608506 272132 0 -606563 269538 0 -604630 266965 0 -602707 264413 0 -600794 261880 0 -598891 259368 0 -596997 256875 0 -595114 254402 0 -593240 251947 0 -591375 249510 0 -589520 247092 0 -587674 244692 0 -585838 242310 0 -584011 239944 0 -582193 237596 0 -580384 235265 0 -578585 232950 0 -576794 230651 0 -575013 228368 0 -573240 226100 0 -571477 223848 0 -569722 221612 0 -567975 219389 0 -566238 217182 0 -564509 214989 0 -562789 212809 0 -561077 210644 0 -559373 208492 0 -557678 206354 0 -555991 204228 0 -554313 202115 0 -552642 200015 0 -550980 197927 0 -549326 195852 0 -547679 193788 0 -546041 191736 0 -544411 189695 0 -542788 187665 0 -541173 185647 0 -539565 183639 0 -537966 181641 0 -536373 179654 0 -534788 177676 0 -533211 175709 0 -531640 173751 0 -530077 171802 0 -528521 169862 0 -526972 167931 0 -525430 166009 0 -523894 164094 0 -522366 162188 0 -520844 160290 0 -519328 158399 0 -517819 156515 0 -516316 154639 0 -514819 152769 0 -513328 150906 0 -511843 149048 0 -510363 147197 0 -508889 145351 0 -507420 143510 0 -505956 141674 0 -504497 139843 0 -503043 138016 0 -763598 518983 0 -760800 513782 0 -758019 508652 0 -755255 503590 0 -752507 498596 0 -749776 493667 0 -747061 488802 0 -744362 484001 0 -741679 479261 0 -739012 474582 0 -736361 469962 0 -733725 465400 0 -731104 460895 0 -728499 456445 0 -725909 452050 0 -723333 447708 0 -720773 443419 0 -718227 439181 0 -715695 434994 0 -713178 430856 0 -710675 426766 0 -708187 422723 0 -705712 418728 0 -703251 414777 0 -700804 410872 0 -698370 407010 0 -695951 403192 0 -693544 399416 0 -691151 395681 0 -688771 391987 0 -686404 388333 0 -684050 384718 0 -681709 381142 0 -679380 377603 0 -677065 374102 0 -674762 370637 0 -672471 367207 0 -670193 363813 0 -667927 360453 0 -665673 357127 0 -663431 353835 0 -661201 350575 0 -658983 347347 0 -656777 344150 0 -654582 340985 0 -652399 337850 0 -650228 334745 0 -648068 331669 0 -645920 328622 0 -643782 325604 0 -641656 322613 0 -639541 319650 0 -637437 316714 0 -635344 313804 0 -633262 310920 0 -631191 308062 0 -629130 305229 0 -627081 302420 0 -625041 299636 0 -623012 296876 0 -620994 294139 0 -618986 291426 0 -616988 288735 0 -615000 286066 0 -613023 283420 0 -611055 280795 0 -609098 278191 0 -607150 275608 0 -605213 273046 0 -603285 270504 0 -601367 267981 0 -599458 265479 0 -597559 262995 0 -595670 260531 0 -593790 258085 0 -591920 255657 0 -590059 253247 0 -588207 250855 0 -586364 248481 0 -584530 246123 0 -582706 243782 0 -580891 241458 0 -579084 239150 0 -577286 236859 0 -575498 234582 0 -573718 232322 0 -571946 230076 0 -570184 227846 0 -568430 225630 0 -566684 223429 0 -564947 221242 0 -563219 219069 0 -561498 216909 0 -559786 214763 0 -558082 212631 0 -556387 210511 0 -554699 208404 0 -553019 206310 0 -551348 204228 0 -549684 202158 0 -548028 200100 0 -546380 198054 0 -544740 196019 0 -543107 193996 0 -541482 191983 0 -539864 189982 0 -538253 187990 0 -536650 186010 0 -535054 184039 0 -533466 182078 0 -531884 180127 0 -530310 178186 0 -528742 176254 0 -527181 174330 0 -525627 172416 0 -524079 170510 0 -522539 168613 0 -521004 166724 0 -519476 164843 0 -517954 162970 0 -516438 161104 0 -514928 159245 0 -513423 157393 0 -511925 155549 0 -510432 153710 0 -508944 151879 0 -507461 150053 0 -505983 148233 0 -769771 533213 0 -766952 527953 0 -764150 522763 0 -761365 517643 0 -758596 512590 0 -755843 507603 0 -753107 502682 0 -750386 497824 0 -747682 493028 0 -744993 488293 0 -742320 483618 0 -739662 479002 0 -737019 474442 0 -734392 469939 0 -731779 465491 0 -729181 461097 0 -726598 456756 0 -724030 452466 0 -721476 448228 0 -718936 444039 0 -716411 439899 0 -713900 435807 0 -711402 431762 0 -708918 427763 0 -706449 423810 0 -703992 419900 0 -701549 416035 0 -699120 412212 0 -696703 408431 0 -694300 404691 0 -691910 400991 0 -689533 397331 0 -687169 393711 0 -684817 390128 0 -682478 386583 0 -680151 383074 0 -677837 379602 0 -675535 376166 0 -673246 372764 0 -670968 369396 0 -668703 366063 0 -666449 362762 0 -664207 359494 0 -661977 356257 0 -659759 353052 0 -657553 349878 0 -655357 346735 0 -653174 343620 0 -651001 340536 0 -648840 337480 0 -646690 334452 0 -644551 331452 0 -642423 328479 0 -640306 325533 0 -638200 322614 0 -636104 319721 0 -634020 316853 0 -631946 314010 0 -629882 311192 0 -627829 308398 0 -625786 305628 0 -623754 302881 0 -621732 300158 0 -619720 297457 0 -617718 294778 0 -615726 292122 0 -613745 289487 0 -611773 286873 0 -609811 284280 0 -607858 281708 0 -605916 279156 0 -603983 276624 0 -602060 274112 0 -600146 271619 0 -598241 269144 0 -596346 266689 0 -594461 264251 0 -592584 261832 0 -590717 259431 0 -588859 257047 0 -587010 254680 0 -585170 252330 0 -583339 249997 0 -581517 247680 0 -579703 245379 0 -577899 243094 0 -576103 240825 0 -574316 238570 0 -572537 236331 0 -570767 234107 0 -569005 231898 0 -567252 229703 0 -565507 227522 0 -563770 225354 0 -562042 223201 0 -560321 221061 0 -558609 218934 0 -556905 216820 0 -555209 214719 0 -553520 212630 0 -551840 210554 0 -550167 208490 0 -548502 206437 0 -546845 204397 0 -545195 202368 0 -543552 200350 0 -541917 198343 0 -540290 196347 0 -538670 194362 0 -537057 192388 0 -535451 190423 0 -533852 188469 0 -532260 186524 0 -530675 184589 0 -529097 182664 0 -527525 180748 0 -525961 178841 0 -524402 176943 0 -522850 175054 0 -521305 173173 0 -519766 171300 0 -518232 169436 0 -516705 167579 0 -515184 165731 0 -513668 163889 0 -512158 162055 0 -510654 160228 0 -509155 158408 0 -776113 547506 0 -773273 542187 0 -770450 536938 0 -767643 531760 0 -764853 526649 0 -762079 521606 0 -759322 516627 0 -756580 511713 0 -753854 506862 0 -751143 502072 0 -748448 497342 0 -745769 492671 0 -743104 488059 0 -740455 483502 0 -737820 479002 0 -735200 474555 0 -732595 470162 0 -730005 465822 0 -727428 461532 0 -724866 457293 0 -722318 453104 0 -719785 448962 0 -717264 444868 0 -714758 440821 0 -712266 436820 0 -709786 432863 0 -707321 428950 0 -704868 425081 0 -702429 421253 0 -700003 417468 0 -697590 413723 0 -695189 410018 0 -692802 406353 0 -690427 402726 0 -688065 399138 0 -685715 395586 0 -683377 392071 0 -681052 388592 0 -678739 385149 0 -676438 381740 0 -674149 378365 0 -671872 375023 0 -669607 371715 0 -667353 368439 0 -665111 365194 0 -662881 361981 0 -660662 358799 0 -658455 355646 0 -656258 352524 0 -654073 349430 0 -651900 346365 0 -649737 343328 0 -647585 340319 0 -645444 337337 0 -643314 334382 0 -641195 331453 0 -639086 328550 0 -636988 325673 0 -634900 322821 0 -632823 319993 0 -630756 317189 0 -628700 314409 0 -626654 311653 0 -624618 308920 0 -622592 306209 0 -620576 303521 0 -618570 300855 0 -616574 298210 0 -614588 295587 0 -612611 292984 0 -610644 290402 0 -608687 287840 0 -606740 285298 0 -604802 282776 0 -602873 280273 0 -600954 277789 0 -599044 275324 0 -597143 272877 0 -595252 270448 0 -593369 268037 0 -591496 265644 0 -589632 263268 0 -587776 260909 0 -585930 258566 0 -584092 256240 0 -582263 253930 0 -580443 251636 0 -578632 249358 0 -576829 247095 0 -575034 244847 0 -573248 242615 0 -571471 240397 0 -569701 238193 0 -567940 236004 0 -566188 233829 0 -564443 231667 0 -562707 229519 0 -560978 227385 0 -559258 225263 0 -557545 223155 0 -555841 221059 0 -554144 218976 0 -552455 216905 0 -550773 214846 0 -549099 212799 0 -547433 210764 0 -545774 208740 0 -544123 206728 0 -542479 204727 0 -540842 202736 0 -539213 200757 0 -537590 198788 0 -535975 196829 0 -534366 194880 0 -532765 192942 0 -531170 191013 0 -529582 189094 0 -528001 187185 0 -526426 185284 0 -524858 183393 0 -523296 181511 0 -521741 179637 0 -520191 177772 0 -518648 175916 0 -517111 174067 0 -515579 172227 0 -514054 170395 0 -512534 168570 0 -782623 561862 0 -779763 556484 0 -776919 551178 0 -774092 545942 0 -771281 540774 0 -768486 535674 0 -765707 530639 0 -762944 525670 0 -760196 520763 0 -757465 515919 0 -754748 511135 0 -752047 506410 0 -749361 501744 0 -746690 497135 0 -744033 492582 0 -741391 488084 0 -738764 483640 0 -736152 479248 0 -733553 474908 0 -730969 470619 0 -728399 466380 0 -725842 462190 0 -723300 458048 0 -720771 453952 0 -718256 449903 0 -715754 445899 0 -713266 441939 0 -710790 438023 0 -708328 434150 0 -705879 430319 0 -703443 426529 0 -701020 422780 0 -698609 419070 0 -696211 415400 0 -693826 411767 0 -691453 408173 0 -689092 404615 0 -686744 401094 0 -684408 397609 0 -682083 394158 0 -679771 390743 0 -677470 387361 0 -675182 384012 0 -672905 380696 0 -670639 377412 0 -668385 374160 0 -666143 370938 0 -663912 367748 0 -661692 364587 0 -659483 361456 0 -657286 358354 0 -655099 355280 0 -652924 352234 0 -650759 349216 0 -648605 346225 0 -646462 343261 0 -644329 340323 0 -642208 337411 0 -640096 334524 0 -637995 331662 0 -635904 328825 0 -633824 326012 0 -631754 323223 0 -629694 320457 0 -627644 317714 0 -625604 314994 0 -623574 312296 0 -621554 309620 0 -619544 306965 0 -617543 304332 0 -615553 301720 0 -613571 299128 0 -611600 296557 0 -609638 294005 0 -607685 291473 0 -605742 288961 0 -603807 286467 0 -601883 283992 0 -599967 281536 0 -598061 279097 0 -596163 276677 0 -594275 274274 0 -592395 271888 0 -590525 269520 0 -588663 267168 0 -586810 264833 0 -584966 262514 0 -583130 260211 0 -581303 257924 0 -579485 255652 0 -577675 253395 0 -575873 251154 0 -574080 248927 0 -572295 246715 0 -570518 244518 0 -568750 242334 0 -566989 240164 0 -565237 238008 0 -563493 235866 0 -561757 233737 0 -560028 231621 0 -558308 229517 0 -556595 227427 0 -554890 225349 0 -553192 223283 0 -551502 221229 0 -549820 219187 0 -548145 217157 0 -546478 215138 0 -544818 213131 0 -543165 211135 0 -541519 209149 0 -539881 207175 0 -538249 205211 0 -536625 203257 0 -535007 201314 0 -533397 199381 0 -531793 197458 0 -530196 195544 0 -528605 193640 0 -527021 191746 0 -525444 189861 0 -523873 187985 0 -522308 186117 0 -520749 184259 0 -519197 182409 0 -517650 180568 0 -516110 178735 0 -789303 576281 0 -786422 570845 0 -783558 565481 0 -780710 560188 0 -777879 554964 0 -775063 549808 0 -772263 544718 0 -769479 539693 0 -766711 534732 0 -763958 529833 0 -761220 524996 0 -758497 520218 0 -755790 515499 0 -753097 510838 0 -750419 506233 0 -747755 501683 0 -745106 497188 0 -742472 492746 0 -739851 488356 0 -737245 484018 0 -734652 479729 0 -732074 475490 0 -729509 471300 0 -726958 467156 0 -724420 463060 0 -721896 459009 0 -719385 455003 0 -716887 451040 0 -714403 447121 0 -711931 443245 0 -709472 439410 0 -707026 435616 0 -704592 431863 0 -702171 428148 0 -699763 424473 0 -697367 420836 0 -694983 417236 0 -692612 413672 0 -690252 410145 0 -687905 406653 0 -685569 403197 0 -683245 399774 0 -680933 396385 0 -678633 393029 0 -676344 389706 0 -674067 386414 0 -671801 383154 0 -669546 379925 0 -667303 376727 0 -665071 373558 0 -662850 370418 0 -660639 367308 0 -658440 364226 0 -656252 361172 0 -654074 358145 0 -651907 355145 0 -649751 352172 0 -647606 349225 0 -645470 346304 0 -643346 343408 0 -641231 340537 0 -639127 337690 0 -637033 334868 0 -634949 332069 0 -632875 329294 0 -630812 326541 0 -628758 323812 0 -626714 321104 0 -624680 318418 0 -622655 315754 0 -620640 313112 0 -618635 310490 0 -616640 307888 0 -614654 305307 0 -612677 302746 0 -610710 300205 0 -608752 297682 0 -606803 295179 0 -604863 292695 0 -602933 290229 0 -601012 287781 0 -599099 285351 0 -597196 282938 0 -595301