<?xml version="1.0"?> 
<VTKFile type="StructuredGrid" version="0.1"> 
<StructuredGrid WholeExtent="0 127 0 127 0 0"> 
<Piece Extent="0 127 0 127 0 0"> 
<PointData>
<DataArray type="Float32" Name="E" format="ascii" NumberOfComponents="3"> 
2.64282e+06 -269675 0 2.66211e+06 -271644 0 2.67954e+06 -273423 0 2.69532e+06 -275033 0 2.70964e+06 -276494 0 2.72266e+06 -277822 0 2.73452e+06 -279032 0 2.74534e+06 -280137 0 2.75525e+06 -281147 0 2.76432e+06 -282074 0 2.77265e+06 -282924 0 2.78032e+06 -283706 0 2.78738e+06 -284427 0 2.7939e+06 -285092 0 2.79993e+06 -285707 0 2.80551e+06 -286276 0 2.81068e+06 -286804 0 2.81547e+06 -287293 0 2.81993e+06 -287748 0 2.82407e+06 -288170 0 2.82792e+06 -288564 0 2.83151e+06 -288930 0 2.83485e+06 -289270 0 2.83795e+06 -289587 0 2.84085e+06 -289882 0 2.84354e+06 -290157 0 2.84604e+06 -290412 0 2.84837e+06 -290650 0 2.85052e+06 -290870 0 2.85252e+06 -291074 0 2.85437e+06 -291262 0 2.85608e+06 -291436 0 2.85764e+06 -291596 0 2.85908e+06 -291743 0 2.86039e+06 -291877 0 2.86158e+06 -291998 0 2.86265e+06 -292107 0 2.86361e+06 -292205 0 2.86446e+06 -292292 0 2.86521e+06 -292368 0 2.86585e+06 -292433 0 2.86638e+06 -292488 0 2.86682e+06 -292533 0 2.86717e+06 -292568 0 2.86741e+06 -292593 0 2.86757e+06 -292609 0 2.86763e+06 -292615 0 2.8676e+06 -292612 0 2.86748e+06 -292600 0 2.86727e+06 -292578 0 2.86697e+06 -292548 0 2.86658e+06 -292508 0 2.8661e+06 -292459 0 2.86554e+06 -292402 0 2.86489e+06 -292335 0 2.86415e+06 -292260 0 2.86332e+06 -292175 0 2.8624e+06 -292082 0 2.86139e+06 -291979 0 2.8603e+06 -291867 0 2.85911e+06 -291746 0 2.85783e+06 -291616 0 2.85646e+06 -291476 0 2.855e+06 -291327 0 2.85344e+06 -291168 0 2.85179e+06 -290999 0 2.85004e+06 -290820 0 2.84819e+06 -290631 0 2.84624e+06 -290432 0 2.84418e+06 -290223 0 2.84202e+06 -290002 0 2.83976e+06 -289771 0 2.83738e+06 -289529 0 2.83489e+06 -289275 0 2.83228e+06 -289009 0 2.82956e+06 -288731 0 2.82671e+06 -288440 0 2.82374e+06 -288137 0 2.82064e+06 -287820 0 2.8174e+06 -287490 0 2.81403e+06 -287146 0 2.81051e+06 -286787 0 2.80684e+06 -286413 0 2.80302e+06 -286023 0 2.79904e+06 -285616 0 2.79489e+06 -285193 0 2.79057e+06 -284752 0 2.78606e+06 -284292 0 2.78136e+06 -283812 0 2.77646e+06 -283312 0 2.77135e+06 -282791 0 2.76602e+06 -282247 0 2.76045e+06 -281679 0 2.75464e+06 -281086 0 2.74856e+06 -280466 0 2.74221e+06 -279817 0 2.73556e+06 -279139 0 2.7286e+06 -278429 0 2.7213e+06 -277684 0 2.71364e+06 -276902 0 2.70559e+06 -276081 0 2.69712e+06 -275217 0 2.68821e+06 -274307 0 2.6788e+06 -273347 0 2.66887e+06 -272334 0 2.65836e+06 -271261 0 2.64722e+06 -270124 0 2.63539e+06 -268918 0 2.62281e+06 -267633 0 2.60939e+06 -266265 0 2.59506e+06 -264802 0 2.57971e+06 -263236 0 2.56323e+06 -261554 0 2.5455e+06 -259745 0 2.52637e+06 -257793 0 2.50567e+06 -255681 0 2.48323e+06 -253390 0 2.45881e+06 -250899 0 2.43218e+06 -248181 0 2.40304e+06 -245209 0 2.37109e+06 -241947 0 2.33593e+06 -238360 0 2.29714e+06 -234402 0 2.25423e+06 -230023 0 2.20663e+06 -225166 0 2.15369e+06 -219764 0 2.09465e+06 -213740 0 2.02865e+06 -207005 0 2.86682e+06 -154336 0 2.86293e+06 -163077 0 2.85994e+06 -171175 0 2.85772e+06 -178691 0 2.85616e+06 -185678 0 2.85513e+06 -192183 0 2.85457e+06 -198248 0 2.85438e+06 -203913 0 2.8545e+06 -209212 0 2.85489e+06 -214176 0 2.85548e+06 -218834 0 2.85623e+06 -223211 0 2.85712e+06 -227331 0 2.85811e+06 -231215 0 2.85918e+06 -234881 0 2.86029e+06 -238347 0 2.86145e+06 -241629 0 2.86261e+06 -244742 0 2.86379e+06 -247698 0 2.86495e+06 -250509 0 2.8661e+06 -253187 0 2.86723e+06 -255741 0 2.86832e+06 -258181 0 2.86937e+06 -260515 0 2.87038e+06 -262751 0 2.87134e+06 -264895 0 2.87225e+06 -266955 0 2.8731e+06 -268936 0 2.8739e+06 -270844 0 2.87464e+06 -272685 0 2.87532e+06 -274462 0 2.87594e+06 -276182 0 2.87649e+06 -277846 0 2.87698e+06 -279461 0 2.87741e+06 -281028 0 2.87777e+06 -282553 0 2.87806e+06 -284036 0 2.87829e+06 -285483 0 2.87845e+06 -286895 0 2.87855e+06 -288275 0 2.87857e+06 -289626 0 2.87853e+06 -290950 0 2.87842e+06 -292249 0 2.87824e+06 -293526 0 2.87799e+06 -294783 0 2.87767e+06 -296020 0 2.87728e+06 -297242 0 2.87682e+06 -298448 0 2.87629e+06 -299642 0 2.87569e+06 -300824 0 2.87502e+06 -301997 0 2.87428e+06 -303162 0 2.87346e+06 -304321 0 2.87257e+06 -305475 0 2.8716e+06 -306626 0 2.87056e+06 -307776 0 2.86945e+06 -308925 0 2.86826e+06 -310077 0 2.86699e+06 -311231 0 2.86564e+06 -312391 0 2.86421e+06 -313556 0 2.8627e+06 -314730 0 2.86111e+06 -315914 0 2.85944e+06 -317109 0 2.85769e+06 -318317 0 2.85584e+06 -319540 0 2.85391e+06 -320779 0 2.8519e+06 -322038 0 2.84979e+06 -323317 0 2.84759e+06 -324619 0 2.8453e+06 -325945 0 2.84291e+06 -327299 0 2.84042e+06 -328682 0 2.83783e+06 -330098 0 2.83515e+06 -331547 0 2.83236e+06 -333034 0 2.82946e+06 -334562 0 2.82645e+06 -336132 0 2.82333e+06 -337749 0 2.8201e+06 -339416 0 2.81675e+06 -341137 0 2.81329e+06 -342915 0 2.8097e+06 -344755 0 2.80598e+06 -346662 0 2.80214e+06 -348639 0 2.79816e+06 -350693 0 2.79406e+06 -352829 0 2.78981e+06 -355053 0 2.78542e+06 -357371 0 2.78088e+06 -359790 0 2.7762e+06 -362317 0 2.77137e+06 -364962 0 2.76638e+06 -367731 0 2.76124e+06 -370636 0 2.75594e+06 -373686 0 2.75047e+06 -376891 0 2.74484e+06 -380266 0 2.73904e+06 -383821 0 2.73308e+06 -387573 0 2.72694e+06 -391536 0 2.72065e+06 -395727 0 2.71418e+06 -400165 0 2.70756e+06 -404870 0 2.70078e+06 -409865 0 2.69385e+06 -415174 0 2.68679e+06 -420822 0 2.6796e+06 -426840 0 2.6723e+06 -433260 0 2.66491e+06 -440116 0 2.65747e+06 -447447 0 2.64999e+06 -455297 0 2.64254e+06 -463710 0 2.63514e+06 -472740 0 2.62787e+06 -482442 0 2.6208e+06 -492880 0 2.61401e+06 -504122 0 2.60761e+06 -516245 0 2.60173e+06 -529332 0 2.59652e+06 -543478 0 2.59216e+06 -558786 0 2.58885e+06 -575369 0 2.58686e+06 -593353 0 2.58648e+06 -612879 0 2.58806e+06 -634102 0 2.59203e+06 -657194 0 2.59886e+06 -682346 0 2.60913e+06 -709768 0 2.62353e+06 -739701 0 2.91714e+06 -194553 0 2.9175e+06 -196725 0 2.91764e+06 -199094 0 2.91761e+06 -201621 0 2.91746e+06 -204275 0 2.91722e+06 -207026 0 2.91692e+06 -209853 0 2.91658e+06 -212735 0 2.91621e+06 -215654 0 2.91584e+06 -218595 0 2.91546e+06 -221548 0 2.9151e+06 -224500 0 2.91474e+06 -227445 0 2.9144e+06 -230373 0 2.91408e+06 -233281 0 2.91377e+06 -236162 0 2.91348e+06 -239014 0 2.91321e+06 -241832 0 2.91296e+06 -244616 0 2.91272e+06 -247364 0 2.91249e+06 -250074 0 2.91227e+06 -252745 0 2.91205e+06 -255379 0 2.91184e+06 -257974 0 2.91163e+06 -260531 0 2.91142e+06 -263051 0 2.9112e+06 -265535 0 2.91098e+06 -267984 0 2.91075e+06 -270398 0 2.9105e+06 -272780 0 2.91024e+06 -275130 0 2.90997e+06 -277450 0 2.90967e+06 -279741 0 2.90936e+06 -282005 0 2.90902e+06 -284245 0 2.90866e+06 -286460 0 2.90827e+06 -288654 0 2.90786e+06 -290827 0 2.90741e+06 -292982 0 2.90694e+06 -295120 0 2.90643e+06 -297243 0 2.90589e+06 -299353 0 2.90531e+06 -301451 0 2.9047e+06 -303540 0 2.90405e+06 -305621 0 2.90336e+06 -307696 0 2.90263e+06 -309766 0 2.90186e+06 -311834 0 2.90105e+06 -313902 0 2.9002e+06 -315971 0 2.8993e+06 -318043 0 2.89836e+06 -320121 0 2.89738e+06 -322205 0 2.89635e+06 -324298 0 2.89527e+06 -326402 0 2.89415e+06 -328519 0 2.89298e+06 -330651 0 2.89176e+06 -332800 0 2.89049e+06 -334967 0 2.88917e+06 -337156 0 2.8878e+06 -339369 0 2.88638e+06 -341607 0 2.88491e+06 -343873 0 2.88338e+06 -346169 0 2.88181e+06 -348498 0 2.88018e+06 -350862 0 2.8785e+06 -353263 0 2.87677e+06 -355705 0 2.87498e+06 -358190 0 2.87314e+06 -360721 0 2.87125e+06 -363300 0 2.8693e+06 -365931 0 2.8673e+06 -368617 0 2.86525e+06 -371360 0 2.86314e+06 -374165 0 2.86098e+06 -377034 0 2.85877e+06 -379971 0 2.85651e+06 -382980 0 2.8542e+06 -386065 0 2.85183e+06 -389229 0 2.84942e+06 -392476 0 2.84696e+06 -395810 0 2.84446e+06 -399237 0 2.84191e+06 -402760 0 2.83932e+06 -406384 0 2.83669e+06 -410113 0 2.83403e+06 -413953 0 2.83133e+06 -417909 0 2.8286e+06 -421985 0 2.82584e+06 -426188 0 2.82306e+06 -430521 0 2.82027e+06 -434992 0 2.81746e+06 -439604 0 2.81465e+06 -444365 0 2.81184e+06 -449279 0 2.80904e+06 -454352 0 2.80625e+06 -459590 0 2.80349e+06 -464998 0 2.80076e+06 -470582 0 2.79807e+06 -476345 0 2.79544e+06 -482294 0 2.79288e+06 -488433 0 2.79039e+06 -494764 0 2.788e+06 -501291 0 2.78571e+06 -508017 0 2.78354e+06 -514942 0 2.78151e+06 -522065 0 2.77963e+06 -529387 0 2.77791e+06 -536902 0 2.77637e+06 -544605 0 2.77503e+06 -552489 0 2.77389e+06 -560540 0 2.77297e+06 -568746 0 2.77227e+06 -577086 0 2.7718e+06 -585537 0 2.77155e+06 -594070 0 2.77152e+06 -602647 0 2.77169e+06 -611226 0 2.77203e+06 -619754 0 2.77249e+06 -628168 0 2.77301e+06 -636393 0 2.77352e+06 -644343 0 2.77389e+06 -651912 0 2.77399e+06 -658980 0 2.77364e+06 -665405 0 2.77259e+06 -671021 0 2.77056e+06 -675638 0 2.76718e+06 -679024 0 2.97354e+06 -204954 0 2.97204e+06 -208019 0 2.97068e+06 -211002 0 2.96944e+06 -213919 0 2.9683e+06 -216782 0 2.96724e+06 -219602 0 2.96625e+06 -222386 0 2.96531e+06 -225140 0 2.96442e+06 -227872 0 2.96357e+06 -230583 0 2.96276e+06 -233279 0 2.96197e+06 -235960 0 2.96121e+06 -238630 0 2.96048e+06 -241290 0 2.95976e+06 -243940 0 2.95906e+06 -246581 0 2.95837e+06 -249214 0 2.9577e+06 -251840 0 2.95704e+06 -254458 0 2.95639e+06 -257069 0 2.95575e+06 -259673 0 2.95511e+06 -262270 0 2.95449e+06 -264859 0 2.95386e+06 -267442 0 2.95324e+06 -270019 0 2.95263e+06 -272589 0 2.95201e+06 -275152 0 2.9514e+06 -277710 0 2.95078e+06 -280262 0 2.95016e+06 -282809 0 2.94954e+06 -285351 0 2.94892e+06 -287889 0 2.94829e+06 -290424 0 2.94766e+06 -292955 0 2.94702e+06 -295484 0 2.94637e+06 -298012 0 2.94571e+06 -300539 0 2.94504e+06 -303066 0 2.94436e+06 -305595 0 2.94367e+06 -308125 0 2.94297e+06 -310659 0 2.94225e+06 -313196 0 2.94152e+06 -315739 0 2.94077e+06 -318289 0 2.94001e+06 -320846 0 2.93923e+06 -323412 0 2.93844e+06 -325988 0 2.93763e+06 -328576 0 2.9368e+06 -331176 0 2.93596e+06 -333791 0 2.93509e+06 -336422 0 2.93421e+06 -339069 0 2.9333e+06 -341735 0 2.93238e+06 -344422 0 2.93144e+06 -347130 0 2.93047e+06 -349862 0 2.92949e+06 -352618 0 2.92849e+06 -355402 0 2.92747e+06 -358214 0 2.92643e+06 -361055 0 2.92537e+06 -363929 0 2.92428e+06 -366837 0 2.92319e+06 -369780 0 2.92207e+06 -372761 0 2.92093e+06 -375780 0 2.91978e+06 -378842 0 2.91861e+06 -381946 0 2.91742e+06 -385095 0 2.91622e+06 -388292 0 2.915e+06 -391537 0 2.91377e+06 -394834 0 2.91253e+06 -398184 0 2.91127e+06 -401589 0 2.91001e+06 -405052 0 2.90874e+06 -408574 0 2.90746e+06 -412157 0 2.90618e+06 -415804 0 2.9049e+06 -419516 0 2.90361e+06 -423296 0 2.90233e+06 -427145 0 2.90104e+06 -431066 0 2.89977e+06 -435061 0 2.8985e+06 -439130 0 2.89725e+06 -443277 0 2.89601e+06 -447502 0 2.89479e+06 -451807 0 2.89359e+06 -456195 0 2.89241e+06 -460665 0 2.89126e+06 -465220 0 2.89014e+06 -469861 0 2.88905e+06 -474588 0 2.88801e+06 -479402 0 2.887e+06 -484303 0 2.88605e+06 -489293 0 2.88514e+06 -494370 0 2.88429e+06 -499535 0 2.8835e+06 -504787 0 2.88277e+06 -510125 0 2.8821e+06 -515548 0 2.88151e+06 -521054 0 2.88099e+06 -526642 0 2.88054e+06 -532308 0 2.88018e+06 -538051 0 2.8799e+06 -543868 0 2.87971e+06 -549754 0 2.8796e+06 -555707 0 2.87958e+06 -561723 0 2.87966e+06 -567798 0 2.87982e+06 -573927 0 2.88008e+06 -580107 0 2.88043e+06 -586335 0 2.88087e+06 -592606 0 2.88141e+06 -598919 0 2.88204e+06 -605272 0 2.88276e+06 -611665 0 2.88358e+06 -618100 0 2.88451e+06 -624582 0 2.88554e+06 -631119 0 2.8867e+06 -637724 0 2.888e+06 -644413 0 2.88948e+06 -651210 0 2.89116e+06 -658149 0 2.89309e+06 -665270 0 2.89535e+06 -672626 0 2.89803e+06 -680287 0 2.90124e+06 -688337 0 2.90514e+06 -696881 0 2.90992e+06 -706052 0 3.01565e+06 -223578 0 3.01489e+06 -225721 0 3.01408e+06 -227923 0 3.01324e+06 -230175 0 3.01238e+06 -232470 0 3.01151e+06 -234801 0 3.01063e+06 -237162 0 3.00975e+06 -239550 0 3.00887e+06 -241960 0 3.00799e+06 -244390 0 3.00712e+06 -246838 0 3.00625e+06 -249301 0 3.0054e+06 -251777 0 3.00455e+06 -254266 0 3.00372e+06 -256766 0 3.00289e+06 -259277 0 3.00208e+06 -261797 0 3.00127e+06 -264326 0 3.00048e+06 -266863 0 2.99969e+06 -269409 0 2.99892e+06 -271963 0 2.99816e+06 -274524 0 2.9974e+06 -277093 0 2.99665e+06 -279670 0 2.99591e+06 -282254 0 2.99518e+06 -284846 0 2.99445e+06 -287445 0 2.99373e+06 -290052 0 2.99302e+06 -292667 0 2.99231e+06 -295291 0 2.9916e+06 -297923 0 2.9909e+06 -300563 0 2.99021e+06 -303213 0 2.98952e+06 -305873 0 2.98883e+06 -308542 0 2.98814e+06 -311222 0 2.98746e+06 -313913 0 2.98678e+06 -316616 0 2.98609e+06 -319330 0 2.98542e+06 -322057 0 2.98474e+06 -324798 0 2.98406e+06 -327553 0 2.98338e+06 -330322 0 2.98271e+06 -333107 0 2.98203e+06 -335908 0 2.98135e+06 -338726 0 2.98068e+06 -341562 0 2.98e+06 -344417 0 2.97932e+06 -347291 0 2.97865e+06 -350186 0 2.97797e+06 -353102 0 2.97729e+06 -356041 0 2.97661e+06 -359003 0 2.97594e+06 -361990 0 2.97526e+06 -365002 0 2.97458e+06 -368040 0 2.97391e+06 -371105 0 2.97324e+06 -374199 0 2.97256e+06 -377323 0 2.9719e+06 -380477 0 2.97123e+06 -383663 0 2.97057e+06 -386882 0 2.96991e+06 -390134 0 2.96926e+06 -393421 0 2.96861e+06 -396744 0 2.96798e+06 -400104 0 2.96734e+06 -403502 0 2.96672e+06 -406939 0 2.96611e+06 -410415 0 2.96551e+06 -413933 0 2.96492e+06 -417493 0 2.96434e+06 -421096 0 2.96378e+06 -424743 0 2.96324e+06 -428434 0 2.96271e+06 -432170 0 2.9622e+06 -435953 0 2.96172e+06 -439783 0 2.96125e+06 -443660 0 2.96081e+06 -447586 0 2.9604e+06 -451561 0 2.96001e+06 -455584 0 2.95965e+06 -459657 0 2.95933e+06 -463781 0 2.95904e+06 -467954 0 2.95878e+06 -472177 0 2.95856e+06 -476451 0 2.95839e+06 -480776 0 2.95825e+06 -485150 0 2.95815e+06 -489574 0 2.95811e+06 -494048 0 2.95811e+06 -498570 0 2.95816e+06 -503142 0 2.95826e+06 -507761 0 2.95842e+06 -512427 0 2.95863e+06 -517139 0 2.9589e+06 -521896 0 2.95924e+06 -526697 0 2.95963e+06 -531541 0 2.96009e+06 -536427 0 2.96062e+06 -541353 0 2.96121e+06 -546317 0 2.96188e+06 -551319 0 2.96262e+06 -556357 0 2.96343e+06 -561429 0 2.96432e+06 -566534 0 2.96529e+06 -571670 0 2.96634e+06 -576834 0 2.96747e+06 -582027 0 2.96869e+06 -587244 0 2.96999e+06 -592485 0 2.97139e+06 -597747 0 2.97288e+06 -603028 0 2.97446e+06 -608325 0 2.97614e+06 -613634 0 2.97792e+06 -618951 0 2.9798e+06 -624272 0 2.98177e+06 -629589 0 2.98385e+06 -634896 0 2.98602e+06 -640180 0 2.98827e+06 -645430 0 2.99061e+06 -650628 0 2.993e+06 -655753 0 2.99543e+06 -660777 0 2.99787e+06 -665666 0 3.00025e+06 -670375 0 3.00254e+06 -674849 0 3.00463e+06 -679020 0 3.00641e+06 -682796 0 3.05935e+06 -234950 0 3.05831e+06 -237321 0 3.0573e+06 -239683 0 3.05633e+06 -242040 0 3.05537e+06 -244397 0 3.05444e+06 -246755 0 3.05353e+06 -249118 0 3.05264e+06 -251488 0 3.05176e+06 -253867 0 3.05089e+06 -256254 0 3.05004e+06 -258652 0 3.0492e+06 -261061 0 3.04837e+06 -263482 0 3.04755e+06 -265915 0 3.04674e+06 -268360 0 3.04594e+06 -270818 0 3.04515e+06 -273289 0 3.04437e+06 -275772 0 3.04361e+06 -278268 0 3.04285e+06 -280778 0 3.0421e+06 -283300 0 3.04136e+06 -285836 0 3.04064e+06 -288385 0 3.03992e+06 -290947 0 3.03921e+06 -293523 0 3.03852e+06 -296113 0 3.03783e+06 -298716 0 3.03715e+06 -301333 0 3.03649e+06 -303964 0 3.03583e+06 -306608 0 3.03519e+06 -309268 0 3.03455e+06 -311942 0 3.03392e+06 -314630 0 3.03331e+06 -317334 0 3.0327e+06 -320052 0 3.03211e+06 -322787 0 3.03152e+06 -325537 0 3.03094e+06 -328303 0 3.03038e+06 -331086 0 3.02982e+06 -333886 0 3.02927e+06 -336703 0 3.02874e+06 -339538 0 3.02821e+06 -342391 0 3.0277e+06 -345263 0 3.02719e+06 -348153 0 3.0267e+06 -351063 0 3.02622e+06 -353993 0 3.02575e+06 -356943 0 3.02529e+06 -359914 0 3.02484e+06 -362907 0 3.02441e+06 -365921 0 3.02398e+06 -368958 0 3.02357e+06 -372017 0 3.02318e+06 -375100 0 3.0228e+06 -378207 0 3.02243e+06 -381339 0 3.02207e+06 -384495 0 3.02174e+06 -387678 0 3.02141e+06 -390886 0 3.02111e+06 -394120 0 3.02082e+06 -397382 0 3.02055e+06 -400671 0 3.0203e+06 -403988 0 3.02007e+06 -407333 0 3.01986e+06 -410708 0 3.01967e+06 -414111 0 3.0195e+06 -417544 0 3.01935e+06 -421008 0 3.01923e+06 -424501 0 3.01913e+06 -428026 0 3.01906e+06 -431581 0 3.01902e+06 -435167 0 3.019e+06 -438785 0 3.01901e+06 -442434 0 3.01906e+06 -446115 0 3.01913e+06 -449827 0 3.01924e+06 -453572 0 3.01938e+06 -457348 0 3.01956e+06 -461156 0 3.01977e+06 -464995 0 3.02002e+06 -468866 0 3.02031e+06 -472768 0 3.02064e+06 -476701 0 3.02101e+06 -480664 0 3.02142e+06 -484658 0 3.02188e+06 -488681 0 3.02238e+06 -492733 0 3.02293e+06 -496814 0 3.02353e+06 -500923 0 3.02417e+06 -505059 0 3.02487e+06 -509221 0 3.02562e+06 -513410 0 3.02642e+06 -517622 0 3.02728e+06 -521859 0 3.02819e+06 -526118 0 3.02916e+06 -530399 0 3.03018e+06 -534700 0 3.03127e+06 -539020 0 3.03241e+06 -543358 0 3.03361e+06 -547713 0 3.03488e+06 -552083 0 3.03621e+06 -556466 0 3.0376e+06 -560861 0 3.03905e+06 -565267 0 3.04057e+06 -569681 0 3.04216e+06 -574101 0 3.0438e+06 -578527 0 3.04551e+06 -582955 0 3.04729e+06 -587384 0 3.04913e+06 -591812 0 3.05104e+06 -596237 0 3.053e+06 -600657 0 3.05503e+06 -605069 0 3.05712e+06 -609473 0 3.05927e+06 -613867 0 3.06148e+06 -618249 0 3.06374e+06 -622619 0 3.06607e+06 -626978 0 3.06844e+06 -631327 0 3.07088e+06 -635670 0 3.07338e+06 -640010 0 3.07595e+06 -644357 0 3.07859e+06 -648721 0 3.08133e+06 -653118 0 3.08418e+06 -657571 0 3.08718e+06 -662107 0 3.09036e+06 -666767 0 3.09379e+06 -671601 0 3.10105e+06 -245008 0 3.10019e+06 -247181 0 3.09933e+06 -249380 0 3.09848e+06 -251603 0 3.09763e+06 -253847 0 3.09678e+06 -256111 0 3.09594e+06 -258393 0 3.09511e+06 -260693 0 3.09429e+06 -263010 0 3.09348e+06 -265342 0 3.09268e+06 -267690 0 3.09189e+06 -270054 0 3.09111e+06 -272432 0 3.09034e+06 -274825 0 3.08959e+06 -277232 0 3.08885e+06 -279654 0 3.08812e+06 -282091 0 3.08741e+06 -284542 0 3.08671e+06 -287008 0 3.08602e+06 -289488 0 3.08534e+06 -291983 0 3.08468e+06 -294492 0 3.08403e+06 -297017 0 3.08339e+06 -299556 0 3.08277e+06 -302110 0 3.08216e+06 -304679 0 3.08157e+06 -307263 0 3.08099e+06 -309863 0 3.08042e+06 -312478 0 3.07987e+06 -315108 0 3.07933e+06 -317754 0 3.07881e+06 -320416 0 3.0783e+06 -323094 0 3.07781e+06 -325788 0 3.07733e+06 -328498 0 3.07687e+06 -331224 0 3.07642e+06 -333968 0 3.07599e+06 -336728 0 3.07558e+06 -339505 0 3.07518e+06 -342299 0 3.0748e+06 -345111 0 3.07443e+06 -347940 0 3.07408e+06 -350787 0 3.07375e+06 -353652 0 3.07344e+06 -356535 0 3.07315e+06 -359437 0 3.07287e+06 -362358 0 3.07261e+06 -365297 0 3.07238e+06 -368255 0 3.07216e+06 -371233 0 3.07196e+06 -374231 0 3.07178e+06 -377248 0 3.07163e+06 -380285 0 3.07149e+06 -383342 0 3.07138e+06 -386420 0 3.07129e+06 -389518 0 3.07122e+06 -392637 0 3.07118e+06 -395776 0 3.07116e+06 -398937 0 3.07116e+06 -402119 0 3.07119e+06 -405322 0 3.07125e+06 -408547 0 3.07133e+06 -411793 0 3.07144e+06 -415061 0 3.07158e+06 -418350 0 3.07175e+06 -421662 0 3.07195e+06 -424994 0 3.07218e+06 -428349 0 3.07244e+06 -431725 0 3.07273e+06 -435122 0 3.07305e+06 -438541 0 3.07341e+06 -441982 0 3.0738e+06 -445443 0 3.07422e+06 -448926 0 3.07469e+06 -452429 0 3.07518e+06 -455953 0 3.07572e+06 -459497 0 3.0763e+06 -463061 0 3.07691e+06 -466645 0 3.07756e+06 -470248 0 3.07826e+06 -473869 0 3.079e+06 -477509 0 3.07978e+06 -481166 0 3.0806e+06 -484841 0 3.08147e+06 -488533 0 3.08238e+06 -492240 0 3.08334e+06 -495963 0 3.08435e+06 -499700 0 3.0854e+06 -503451 0 3.0865e+06 -507216 0 3.08765e+06 -510993 0 3.08885e+06 -514781 0 3.0901e+06 -518580 0 3.0914e+06 -522388 0 3.09275e+06 -526206 0 3.09416e+06 -530031 0 3.09561e+06 -533863 0 3.09712e+06 -537700 0 3.09869e+06 -541543 0 3.1003e+06 -545389 0 3.10197e+06 -549238 0 3.1037e+06 -553088 0 3.10548e+06 -556939 0 3.10731e+06 -560789 0 3.10921e+06 -564638 0 3.11115e+06 -568484 0 3.11315e+06 -572326 0 3.11521e+06 -576164 0 3.11732e+06 -579996 0 3.11949e+06 -583821 0 3.12172e+06 -587639 0 3.124e+06 -591448 0 3.12635e+06 -595249 0 3.12875e+06 -599039 0 3.1312e+06 -602818 0 3.13372e+06 -606585 0 3.1363e+06 -610338 0 3.13894e+06 -614076 0 3.14163e+06 -617797 0 3.14439e+06 -621497 0 3.1472e+06 -625173 0 3.15007e+06 -628820 0 3.15299e+06 -632430 0 3.15596e+06 -635994 0 3.15895e+06 -639497 0 3.16197e+06 -642923 0 3.16497e+06 -646247 0 3.16794e+06 -649436 0 3.14262e+06 -250977 0 3.14175e+06 -253197 0 3.14091e+06 -255423 0 3.14008e+06 -257657 0 3.13927e+06 -259901 0 3.13847e+06 -262156 0 3.13769e+06 -264422 0 3.13692e+06 -266700 0 3.13616e+06 -268991 0 3.13541e+06 -271294 0 3.13468e+06 -273611 0 3.13397e+06 -275941 0 3.13326e+06 -278284 0 3.13258e+06 -280642 0 3.1319e+06 -283013 0 3.13124e+06 -285398 0 3.13059e+06 -287797 0 3.12996e+06 -290211 0 3.12934e+06 -292638 0 3.12874e+06 -295080 0 3.12816e+06 -297536 0 3.12759e+06 -300007 0 3.12703e+06 -302492 0 3.12649e+06 -304991 0 3.12597e+06 -307505 0 3.12547e+06 -310034 0 3.12498e+06 -312577 0 3.12451e+06 -315135 0 3.12405e+06 -317708 0 3.12362e+06 -320296 0 3.1232e+06 -322899 0 3.1228e+06 -325517 0 3.12242e+06 -328150 0 3.12206e+06 -330798 0 3.12172e+06 -333461 0 3.12139e+06 -336140 0 3.12109e+06 -338834 0 3.1208e+06 -341543 0 3.12054e+06 -344268 0 3.1203e+06 -347009 0 3.12008e+06 -349765 0 3.11988e+06 -352538 0 3.1197e+06 -355325 0 3.11954e+06 -358129 0 3.11941e+06 -360949 0 3.1193e+06 -363785 0 3.11921e+06 -366636 0 3.11915e+06 -369504 0 3.11911e+06 -372388 0 3.11909e+06 -375288 0 3.1191e+06 -378204 0 3.11914e+06 -381136 0 3.1192e+06 -384085 0 3.11928e+06 -387050 0 3.1194e+06 -390031 0 3.11954e+06 -393028 0 3.11971e+06 -396041 0 3.11991e+06 -399070 0 3.12014e+06 -402115 0 3.12039e+06 -405177 0 3.12068e+06 -408254 0 3.121e+06 -411347 0 3.12134e+06 -414455 0 3.12172e+06 -417579 0 3.12214e+06 -420718 0 3.12258e+06 -423872 0 3.12306e+06 -427042 0 3.12357e+06 -430226 0 3.12412e+06 -433424 0 3.1247e+06 -436637 0 3.12532e+06 -439864 0 3.12598e+06 -443104 0 3.12667e+06 -446358 0 3.1274e+06 -449625 0 3.12816e+06 -452904 0 3.12897e+06 -456196 0 3.12982e+06 -459499 0 3.1307e+06 -462814 0 3.13163e+06 -466140 0 3.1326e+06 -469476 0 3.13361e+06 -472822 0 3.13466e+06 -476177 0 3.13576e+06 -479541 0 3.1369e+06 -482913 0 3.13808e+06 -486293 0 3.13931e+06 -489680 0 3.14058e+06 -493073 0 3.1419e+06 -496472 0 3.14326e+06 -499876 0 3.14467e+06 -503283 0 3.14613e+06 -506695 0 3.14763e+06 -510109 0 3.14918e+06 -513525 0 3.15078e+06 -516942 0 3.15243e+06 -520359 0 3.15413e+06 -523776 0 3.15587e+06 -527192 0 3.15767e+06 -530605 0 3.15951e+06 -534016 0 3.1614e+06 -537422 0 3.16335e+06 -540824 0 3.16534e+06 -544220 0 3.16738e+06 -547610 0 3.16948e+06 -550992 0 3.17162e+06 -554365 0 3.17382e+06 -557730 0 3.17606e+06 -561084 0 3.17836e+06 -564426 0 3.18071e+06 -567757 0 3.1831e+06 -571074 0 3.18555e+06 -574376 0 3.18805e+06 -577663 0 3.19059e+06 -580934 0 3.19319e+06 -584187 0 3.19583e+06 -587421 0 3.19852e+06 -590636 0 3.20126e+06 -593830 0 3.20405e+06 -597003 0 3.20688e+06 -600154 0 3.20975e+06 -603283 0 3.21267e+06 -606390 0 3.21564e+06 -609476 0 3.21865e+06 -612543 0 3.22171e+06 -615596 0 3.22482e+06 -618639 0 3.228e+06 -621682 0 3.23124e+06 -624735 0 3.23458e+06 -627818 0 3.18319e+06 -254214 0 3.1824e+06 -256374 0 3.18163e+06 -258548 0 3.18086e+06 -260737 0 3.18011e+06 -262940 0 3.17937e+06 -265157 0 3.17864e+06 -267387 0 3.17793e+06 -269630 0 3.17723e+06 -271885 0 3.17655e+06 -274154 0 3.17589e+06 -276435 0 3.17523e+06 -278729 0 3.1746e+06 -281036 0 3.17398e+06 -283355 0 3.17338e+06 -285687 0 3.17279e+06 -288032 0 3.17222e+06 -290389 0 3.17167e+06 -292760 0 3.17113e+06 -295143 0 3.17062e+06 -297539 0 3.17012e+06 -299949 0 3.16963e+06 -302371 0 3.16917e+06 -304806 0 3.16873e+06 -307254 0 3.1683e+06 -309716 0 3.1679e+06 -312190 0 3.16751e+06 -314678 0 3.16714e+06 -317179 0 3.16679e+06 -319693 0 3.16647e+06 -322220 0 3.16616e+06 -324760 0 3.16588e+06 -327314 0 3.16562e+06 -329881 0 3.16537e+06 -332461 0 3.16515e+06 -335055 0 3.16496e+06 -337662 0 3.16478e+06 -340282 0 3.16463e+06 -342915 0 3.1645e+06 -345561 0 3.1644e+06 -348221 0 3.16432e+06 -350894 0 3.16426e+06 -353580 0 3.16423e+06 -356279 0 3.16423e+06 -358992 0 3.16425e+06 -361717 0 3.16429e+06 -364455 0 3.16437e+06 -367206 0 3.16447e+06 -369971 0 3.16459e+06 -372747 0 3.16475e+06 -375537 0 3.16493e+06 -378339 0 3.16514e+06 -381154 0 3.16538e+06 -383981 0 3.16565e+06 -386820 0 3.16595e+06 -389671 0 3.16628e+06 -392534 0 3.16664e+06 -395409 0 3.16703e+06 -398296 0 3.16745e+06 -401194 0 3.16791e+06 -404103 0 3.1684e+06 -407024 0 3.16892e+06 -409955 0 3.16947e+06 -412897 0 3.17006e+06 -415849 0 3.17068e+06 -418811 0 3.17134e+06 -421782 0 3.17203e+06 -424764 0 3.17276e+06 -427754 0 3.17353e+06 -430753 0 3.17433e+06 -433761 0 3.17517e+06 -436776 0 3.17605e+06 -439800 0 3.17696e+06 -442830 0 3.17791e+06 -445868 0 3.17891e+06 -448912 0 3.17994e+06 -451962 0 3.18101e+06 -455017 0 3.18212e+06 -458077 0 3.18328e+06 -461142 0 3.18447e+06 -464211 0 3.18571e+06 -467283 0 3.18699e+06 -470359 0 3.18831e+06 -473436 0 3.18967e+06 -476516 0 3.19108e+06 -479596 0 3.19253e+06 -482677 0 3.19402e+06 -485758 0 3.19556e+06 -488838 0 3.19714e+06 -491917 0 3.19877e+06 -494993 0 3.20044e+06 -498067 0 3.20215e+06 -501138 0 3.20391e+06 -504204 0 3.20572e+06 -507265 0 3.20757e+06 -510321 0 3.20947e+06 -513370 0 3.21142e+06 -516413 0 3.21341e+06 -519447 0 3.21544e+06 -522473 0 3.21753e+06 -525489 0 3.21965e+06 -528496 0 3.22183e+06 -531491 0 3.22405e+06 -534475 0 3.22632e+06 -537446 0 3.22863e+06 -540404 0 3.23099e+06 -543348 0 3.2334e+06 -546277 0 3.23585e+06 -549191 0 3.23834e+06 -552088 0 3.24089e+06 -554969 0 3.24348e+06 -557832 0 3.24611e+06 -560677 0 3.24879e+06 -563502 0 3.25151e+06 -566308 0 3.25428e+06 -569094 0 3.2571e+06 -571859 0 3.25996e+06 -574603 0 3.26286e+06 -577325 0 3.26581e+06 -580023 0 3.2688e+06 -582699 0 3.27184e+06 -585349 0 3.27493e+06 -587974 0 3.27805e+06 -590570 0 3.28122e+06 -593136 0 3.28443e+06 -595667 0 3.28768e+06 -598158 0 3.29095e+06 -600601 0 3.29424e+06 -602985 0 3.22274e+06 -254499 0 3.22199e+06 -256648 0 3.22125e+06 -258807 0 3.22053e+06 -260975 0 3.21982e+06 -263153 0 3.21913e+06 -265341 0 3.21846e+06 -267540 0 3.2178e+06 -269750 0 3.21716e+06 -271970 0 3.21653e+06 -274201 0 3.21593e+06 -276443 0 3.21534e+06 -278696 0 3.21476e+06 -280960 0 3.21421e+06 -283236 0 3.21367e+06 -285522 0 3.21315e+06 -287820 0 3.21265e+06 -290129 0 3.21217e+06 -292450 0 3.21171e+06 -294781 0 3.21127e+06 -297124 0 3.21085e+06 -299479 0 3.21045e+06 -301844 0 3.21007e+06 -304221 0 3.2097e+06 -306609 0 3.20936e+06 -309008 0 3.20905e+06 -311419 0 3.20875e+06 -313841 0 3.20847e+06 -316274 0 3.20822e+06 -318718 0 3.20799e+06 -321173 0 3.20778e+06 -323640 0 3.2076e+06 -326118 0 3.20744e+06 -328606 0 3.2073e+06 -331106 0 3.20719e+06 -333617 0 3.2071e+06 -336138 0 3.20703e+06 -338670 0 3.20699e+06 -341214 0 3.20698e+06 -343767 0 3.207e+06 -346332 0 3.20703e+06 -348906 0 3.2071e+06 -351492 0 3.20719e+06 -354087 0 3.20731e+06 -356693 0 3.20746e+06 -359309 0 3.20764e+06 -361934 0 3.20784e+06 -364570 0 3.20808e+06 -367215 0 3.20834e+06 -369869 0 3.20863e+06 -372533 0 3.20895e+06 -375206 0 3.20931e+06 -377888 0 3.20969e+06 -380579 0 3.21011e+06 -383279 0 3.21055e+06 -385986 0 3.21103e+06 -388702 0 3.21154e+06 -391426 0 3.21209e+06 -394157 0 3.21266e+06 -396896 0 3.21327e+06 -399642 0 3.21392e+06 -402395 0 3.2146e+06 -405154 0 3.21531e+06 -407920 0 3.21606e+06 -410691 0 3.21684e+06 -413469 0 3.21766e+06 -416251 0 3.21852e+06 -419038 0 3.21941e+06 -421830 0 3.22034e+06 -424626 0 3.22131e+06 -427425 0 3.22231e+06 -430228 0 3.22336e+06 -433034 0 3.22444e+06 -435842 0 3.22556e+06 -438653 0 3.22672e+06 -441464 0 3.22792e+06 -444277 0 3.22916e+06 -447091 0 3.23044e+06 -449904 0 3.23175e+06 -452718 0 3.23311e+06 -455530 0 3.23452e+06 -458340 0 3.23596e+06 -461149 0 3.23744e+06 -463955 0 3.23897e+06 -466758 0 3.24053e+06 -469557 0 3.24214e+06 -472352 0 3.24379e+06 -475142 0 3.24549e+06 -477926 0 3.24722e+06 -480704 0 3.249e+06 -483475 0 3.25083e+06 -486239 0 3.25269e+06 -488995 0 3.2546e+06 -491742 0 3.25655e+06 -494480 0 3.25855e+06 -497207 0 3.26059e+06 -499924 0 3.26267e+06 -502630 0 3.26479e+06 -505323 0 3.26696e+06 -508004 0 3.26917e+06 -510671 0 3.27143e+06 -513325 0 3.27373e+06 -515963 0 3.27607e+06 -518586 0 3.27846e+06 -521193 0 3.28089e+06 -523784 0 3.28336e+06 -526356 0 3.28588e+06 -528911 0 3.28844e+06 -531447 0 3.29104e+06 -533963 0 3.29368e+06 -536460 0 3.29637e+06 -538935 0 3.2991e+06 -541389 0 3.30187e+06 -543820 0 3.30468e+06 -546229 0 3.30753e+06 -548614 0 3.31043e+06 -550974 0 3.31336e+06 -553310 0 3.31634e+06 -555620 0 3.31936e+06 -557903 0 3.32241e+06 -560159 0 3.3255e+06 -562388 0 3.32864e+06 -564588 0 3.33181e+06 -566761 0 3.33501e+06 -568906 0 3.33826e+06 -571025 0 3.34155e+06 -573119 0 3.34488e+06 -575191 0 3.34825e+06 -577247 0 3.26093e+06 -252403 0 3.26022e+06 -254514 0 3.25952e+06 -256635 0 3.25884e+06 -258766 0 3.25818e+06 -260907 0 3.25753e+06 -263058 0 3.2569e+06 -265219 0 3.25629e+06 -267389 0 3.2557e+06 -269569 0 3.25512e+06 -271758 0 3.25457e+06 -273957 0 3.25403e+06 -276165 0 3.25351e+06 -278383 0 3.25301e+06 -280611 0 3.25253e+06 -282848 0 3.25207e+06 -285095 0 3.25163e+06 -287351 0 3.25121e+06 -289616 0 3.25081e+06 -291891 0 3.25044e+06 -294176 0 3.25008e+06 -296470 0 3.24975e+06 -298774 0 3.24944e+06 -301086 0 3.24915e+06 -303409 0 3.24888e+06 -305740 0 3.24864e+06 -308081 0 3.24842e+06 -310431 0 3.24822e+06 -312790 0 3.24804e+06 -315158 0 3.24789e+06 -317535 0 3.24777e+06 -319921 0 3.24767e+06 -322316 0 3.24759e+06 -324720 0 3.24754e+06 -327133 0 3.24752e+06 -329554 0 3.24752e+06 -331983 0 3.24755e+06 -334421 0 3.24761e+06 -336867 0 3.24769e+06 -339321 0 3.2478e+06 -341783 0 3.24794e+06 -344253 0 3.2481e+06 -346731 0 3.2483e+06 -349216 0 3.24852e+06 -351708 0 3.24877e+06 -354208 0 3.24905e+06 -356715 0 3.24936e+06 -359228 0 3.24971e+06 -361748 0 3.25008e+06 -364275 0 3.25048e+06 -366808 0 3.25092e+06 -369347 0 3.25138e+06 -371891 0 3.25188e+06 -374441 0 3.25241e+06 -376996 0 3.25297e+06 -379557 0 3.25357e+06 -382122 0 3.2542e+06 -384691 0 3.25486e+06 -387265 0 3.25556e+06 -389842 0 3.25629e+06 -392423 0 3.25705e+06 -395008 0 3.25785e+06 -397595 0 3.25869e+06 -400184 0 3.25956e+06 -402776 0 3.26047e+06 -405370 0 3.26141e+06 -407965 0 3.26239e+06 -410561 0 3.26341e+06 -413158 0 3.26446e+06 -415754 0 3.26556e+06 -418351 0 3.26669e+06 -420947 0 3.26785e+06 -423542 0 3.26906e+06 -426136 0 3.2703e+06 -428728 0 3.27159e+06 -431317 0 3.27291e+06 -433903 0 3.27427e+06 -436486 0 3.27567e+06 -439065 0 3.27711e+06 -441639 0 3.27859e+06 -444209 0 3.