<?xml version="1.0"?> 
<VTKFile type="StructuredGrid" version="0.1"> 
<StructuredGrid WholeExtent="0 127 0 127 0 0"> 
<Piece Extent="0 127 0 127 0 0"> 
<PointData>
<DataArray type="Float32" Name="E" format="ascii" NumberOfComponents="3"> 
-271650 93247 0 -269126 92961.2 0 -266610 92677.6 0 -264101 92396.2 0 -261599 92116.9 0 -259105 91839.7 0 -256618 91564.6 0 -254137 91291.4 0 -251664 91020.3 0 -249198 90751 0 -246739 90483.6 0 -244287 90218.1 0 -241842 89954.4 0 -239404 89692.5 0 -236972 89432.3 0 -234548 89173.8 0 -232130 88917 0 -229719 88661.8 0 -227315 88408.2 0 -224917 88156.3 0 -222526 87905.8 0 -220142 87656.9 0 -217764 87409.5 0 -215393 87163.5 0 -213028 86919 0 -210670 86675.9 0 -208319 86434.2 0 -205973 86193.8 0 -203634 85954.8 0 -201302 85717 0 -198976 85480.6 0 -196656 85245.4 0 -194342 85011.5 0 -192035 84778.8 0 -189734 84547.3 0 -187439 84317 0 -185150 84087.8 0 -182868 83859.8 0 -180591 83632.9 0 -178321 83407.1 0 -176057 83182.3 0 -173798 82958.7 0 -171546 82736 0 -169299 82514.4 0 -167059 82293.8 0 -164825 82074.2 0 -162596 81855.6 0 -160373 81637.9 0 -158156 81421.2 0 -155945 81205.3 0 -153740 80990.4 0 -151541 80776.4 0 -149347 80563.3 0 -147159 80351 0 -144977 80139.6 0 -142800 79929 0 -140630 79719.3 0 -138464 79510.3 0 -136305 79302.1 0 -134151 79094.8 0 -132003 78888.2 0 -129860 78682.3 0 -127723 78477.2 0 -125591 78272.8 0 -123465 78069.2 0 -121344 77866.2 0 -119229 77664 0 -117119 77462.4 0 -115015 77261.5 0 -112916 77061.3 0 -110823 76861.7 0 -108735 76662.7 0 -106652 76464.4 0 -104575 76266.7 0 -102503 76069.7 0 -100436 75873.2 0 -98374.8 75677.3 0 -96318.8 75482 0 -94268 75287.2 0 -92222.6 75093.1 0 -90182.4 74899.5 0 -88147.5 74706.4 0 -86117.7 74513.8 0 -84093.2 74321.8 0 -82073.9 74130.3 0 -80059.8 73939.3 0 -78050.8 73748.9 0 -76047 73558.9 0 -74048.4 73369.4 0 -72054.9 73180.4 0 -70066.5 72991.8 0 -68083.2 72803.7 0 -66105 72616.1 0 -64132 72428.9 0 -62163.9 72242.2 0 -60201 72055.9 0 -58243.1 71870 0 -56290.2 71684.5 0 -54342.4 71499.5 0 -52399.6 71314.8 0 -50461.8 71130.6 0 -48529 70946.8 0 -46601.2 70763.3 0 -44678.3 70580.2 0 -42760.5 70397.5 0 -40847.5 70215.2 0 -38939.6 70033.3 0 -37036.6 69851.7 0 -35138.5 69670.4 0 -33245.3 69489.5 0 -31357 69309 0 -29473.7 69128.7 0 -27595.2 68948.9 0 -25721.6 68769.3 0 -23852.9 68590.1 0 -21989.1 68411.1 0 -20130.1 68232.5 0 -18276 68054.2 0 -16426.7 67876.2 0 -14582.3 67698.5 0 -12742.7 67521.1 0 -10907.9 67344 0 -9077.92 67167.2 0 -7252.75 66990.6 0 -5432.39 66814.3 0 -3616.81 66638.3 0 -1806.01 66462.6 0 0 66287.1 0 -273188 103536 0 -270651 103239 0 -268121 102945 0 -265599 102653 0 -263083 102363 0 -260575 102075 0 -258074 101790 0 -255581 101506 0 -253094 101225 0 -250614 100946 0 -248142 100668 0 -245676 100392 0 -243218 100119 0 -240766 99846.7 0 -238321 99576.6 0 -235883 99308.3 0 -233452 99041.7 0 -231027 98776.8 0 -228610 98513.5 0 -226199 98251.9 0 -223794 97991.9 0 -221397 97733.4 0 -219006 97476.5 0 -216621 97221.1 0 -214243 96967.2 0 -211872 96714.8 0 -209507 96463.8 0 -207149 96214.2 0 -204797 95965.9 0 -202451 95719.1 0 -200112 95473.5 0 -197779 95229.3 0 -195452 94986.3 0 -193132 94744.6 0 -190818 94504.2 0 -188510 94264.9 0 -186208 94026.8 0 -183912 93790 0 -181623 93554.2 0 -179340 93319.6 0 -177062 93086.1 0 -174791 92853.7 0 -172526 92622.3 0 -170267 92392 0 -168014 92162.8 0 -165767 91934.5 0 -163525 91707.3 0 -161290 91481 0 -159060 91255.7 0 -156837 91031.3 0 -154619 90807.8 0 -152407 90585.3 0 -150201 90363.6 0 -148000 90142.8 0 -145806 89922.9 0 -143617 89703.9 0 -141434 89485.6 0 -139256 89268.2 0 -137084 89051.6 0 -134918 88835.7 0 -132757 88620.7 0 -130602 88406.4 0 -128453 88192.8 0 -126309 87980 0 -124171 87767.9 0 -122038 87556.5 0 -119910 87345.8 0 -117789 87135.8 0 -115672 86926.5 0 -113561 86717.8 0 -111456 86509.8 0 -109356 86302.4 0 -107261 86095.6 0 -105172 85889.4 0 -103088 85683.9 0 -101010 85478.9 0 -98936.9 85274.5 0 -96869.1 85070.7 0 -94806.6 84867.4 0 -92749.5 84664.7 0 -90697.6 84462.5 0 -88651 84260.9 0 -86609.6 84059.7 0 -84573.5 83859.1 0 -82542.6 83659 0 -80517 83459.4 0 -78496.5 83260.3 0 -76481.2 83061.6 0 -74471.2 82863.4 0 -72466.2 82665.7 0 -70466.4 82468.4 0 -68471.8 82271.5 0 -66482.3 82075.1 0 -64497.9 81879.1 0 -62518.6 81683.6 0 -60544.4 81488.4 0 -58575.3 81293.6 0 -56611.3 81099.3 0 -54652.3 80905.3 0 -52698.4 80711.7 0 -50749.5 80518.4 0 -48805.6 80325.6 0 -46866.8 80133.1 0 -44933 79940.9 0 -43004.1 79749.1 0 -41080.3 79557.6 0 -39161.4 79366.5 0 -37247.5 79175.7 0 -35338.6 78985.2 0 -33434.6 78795 0 -31535.6 78605.2 0 -29641.4 78415.6 0 -27752.3 78226.3 0 -25868 78037.4 0 -23988.6 77848.7 0 -22114.2 77660.2 0 -20244.6 77472.1 0 -18379.9 77284.2 0 -16520.1 77096.6 0 -14665.2 76909.3 0 -12815.1 76722.2 0 -10969.9 76535.4 0 -9129.49 76348.8 0 -7293.94 76162.4 0 -5463.23 75976.3 0 -3637.34 75790.4 0 -1816.26 75604.7 0 0 75419.3 0 -274775 113860 0 -272224 113552 0 -269680 113248 0 -267144 112945 0 -264615 112645 0 -262093 112346 0 -259578 112050 0 -257070 111757 0 -254570 111465 0 -252076 111175 0 -249590 110887 0 -247110 110602 0 -244638 110318 0 -242172 110036 0 -239714 109756 0 -237262 109477 0 -234817 109201 0 -232379 108926 0 -229947 108653 0 -227523 108382 0 -225105 108112 0 -222693 107844 0 -220289 107577 0 -217891 107312 0 -215499 107049 0 -213114 106787 0 -210736 106527 0 -208364 106268 0 -205998 106010 0 -203639 105754 0 -201287 105499 0 -198940 105246 0 -196600 104994 0 -194266 104743 0 -191939 104493 0 -189618 104245 0 -187303 103998 0 -184994 103752 0 -182691 103507 0 -180395 103264 0 -178104 103021 0 -175820 102780 0 -173542 102540 0 -171270 102301 0 -169003 102063 0 -166743 101826 0 -164489 101590 0 -162240 101355 0 -159998 101121 0 -157761 100888 0 -155531 100655 0 -153306 100424 0 -151087 100194 0 -148873 99964.5 0 -146666 99736 0 -144464 99508.3 0 -142268 99281.5 0 -140078 99055.4 0 -137893 98830.2 0 -135714 98605.8 0 -133541 98382.2 0 -131374 98159.3 0 -129212 97937.2 0 -127055 97715.8 0 -124904 97495.1 0 -122759 97275.2 0 -120619 97055.9 0 -118485 96837.3 0 -116356 96619.4 0 -114233 96402.1 0 -112115 96185.5 0 -110003 95969.5 0 -107896 95754.1 0 -105794 95539.3 0 -103698 95325.2 0 -101608 95111.6 0 -99522.3 94898.5 0 -97442.3 94686.1 0 -95367.7 94474.1 0 -93298.4 94262.7 0 -91234.4 94051.9 0 -89175.7 93841.5 0 -87122.4 93631.7 0 -85074.2 93422.3 0 -83031.4 93213.5 0 -80993.7 93005.1 0 -78961.3 92797.2 0 -76934.2 92589.7 0 -74912.2 92382.7 0 -72895.4 92176.1 0 -70883.8 91969.9 0 -68877.4 91764.2 0 -66876.1 91558.8 0 -64880 91353.9 0 -62889 91149.3 0 -60903.1 90945.2 0 -58922.4 90741.4 0 -56946.7 90538 0 -54976.1 90334.9 0 -53010.6 90132.2 0 -51050.2 89929.8 0 -49094.8 89727.8 0 -47144.5 89526.1 0 -45199.2 89324.7 0 -43259 89123.7 0 -41323.7 88922.9 0 -39393.5 88722.4 0 -37468.2 88522.3 0 -35548 88322.4 0 -33632.7 88122.8 0 -31722.4 87923.5 0 -29817.1 87724.4 0 -27916.7 87525.6 0 -26021.3 87327.1 0 -24130.8 87128.8 0 -22245.2 86930.7 0 -20364.6 86732.9 0 -18488.8 86535.3 0 -16618 86337.9 0 -14752 86140.8 0 -12891 85943.9 0 -11034.8 85747.1 0 -9183.56 85550.6 0 -7337.14 85354.3 0 -5495.58 85158.2 0 -3658.87 84962.2 0 -1827.02 84766.5 0 0 84570.9 0 -276412 124221 0 -273847 123903 0 -271289 123588 0 -268738 123275 0 -266195 122964 0 -263658 122655 0 -261129 122348 0 -258608 122044 0 -256093 121742 0 -253585 121442 0 -251084 121144 0 -248591 120847 0 -246104 120553 0 -243624 120261 0 -241152 119971 0 -238686 119683 0 -236227 119396 0 -233775 119111 0 -231329 118828 0 -228891 118547 0 -226459 118268 0 -224033 117990 0 -221615 117714 0 -219203 117439 0 -216797 117166 0 -214399 116895 0 -212006 116625 0 -209621 116356 0 -207241 116089 0 -204868 115824 0 -202502 115560 0 -200142 115297 0 -197788 115035 0 -195441 114775 0 -193100 114517 0 -190765 114259 0 -188436 114003 0 -186114 113748 0 -183797 113494 0 -181487 113242 0 -179183 112990 0 -176886 112740 0 -174594 112491 0 -172308 112243 0 -170029 111996 0 -167755 111750 0 -165487 111505 0 -163226 111261 0 -160970 111018 0 -158720 110776 0 -156476 110535 0 -154238 110295 0 -152006 110056 0 -149779 109818 0 -147558 109581 0 -145344 109344 0 -143135 109109 0 -140931 108874 0 -138733 108640 0 -136542 108407 0 -134355 108175 0 -132175 107943 0 -130000 107712 0 -127830 107482 0 -125666 107253 0 -123508 107024 0 -121356 106796 0 -119208 106569 0 -117067 106342 0 -114931 106116 0 -112800 105891 0 -110675 105666 0 -108556 105442 0 -106441 105219 0 -104333 104996 0 -102229 104773 0 -100131 104551 0 -98038.9 104330 0 -95951.7 104110 0 -93869.9 103889 0 -91793.4 103670 0 -89722.2 103450 0 -87656.3 103232 0 -85595.8 103014 0 -83540.5 102796 0 -81490.5 102579 0 -79445.7 102362 0 -77406.2 102145 0 -75371.9 101929 0 -73342.9 101714 0 -71319 101499 0 -69300.4 101284 0 -67286.9 101069 0 -65278.6 100855 0 -63275.4 100642 0 -61277.4 100428 0 -59284.5 100215 0 -57296.8 100003 0 -55314.2 99790.6 0 -53336.6 99578.7 0 -51364.2 99367 0 -49396.8 99155.7 0 -47434.6 98944.7 0 -45477.3 98733.9 0 -43525.2 98523.5 0 -41578.1 98313.3 0 -39636 98103.4 0 -37698.9 97893.7 0 -35766.9 97684.3 0 -33839.8 97475.1 0 -31917.8 97266.2 0 -30000.8 97057.5 0 -28088.7 96849 0 -26181.6 96640.8 0 -24279.5 96432.7 0 -22382.3 96224.9 0 -20490.1 96017.2 0 -18602.8 95809.8 0 -16720.4 95602.5 0 -14843 95395.4 0 -12970.5 95188.5 0 -11102.9 94981.8 0 -9240.19 94775.2 0 -7382.39 94568.7 0 -5529.47 94362.4 0 -3681.44 94156.3 0 -1838.29 93950.3 0 0 93744.4 0 -278102 134623 0 -275522 134295 0 -272949 133968 0 -270383 133644 0 -267825 133322 0 -265274 133003 0 -262731 132686 0 -260194 132371 0 -257665 132058 0 -255142 131747 0 -252627 131439 0 -250119 131132 0 -247618 130828 0 -245124 130525 0 -242636 130225 0 -240156 129926 0 -237683 129630 0 -235216 129335 0 -232756 129042 0 -230303 128751 0 -227857 128461 0 -225417 128174 0 -222985 127888 0 -220558 127603 0 -218139 127320 0 -215726 127039 0 -213319 126760 0 -210919 126482 0 -208526 126205 0 -206139 125930 0 -203758 125656 0 -201384 125384 0 -199016 125113 0 -196655 124844 0 -194300 124576 0 -191951 124309 0 -189609 124044 0 -187272 123779 0 -184942 123516 0 -182618 123255 0 -180300 122994 0 -177989 122735 0 -175683 122477 0 -173384 122219 0 -171090 121963 0 -168803 121708 0 -166522 121455 0 -164246 121202 0 -161977 120950 0 -159713 120699 0 -157456 120449 0 -155204 120200 0 -152958 119952 0 -150718 119705 0 -148484 119459 0 -146255 119214 0 -144033 118969 0 -141816 118726 0 -139605 118483 0 -137400 118241 0 -135200 118000 0 -133006 117760 0 -130818 117520 0 -128635 117281 0 -126458 117043 0 -124286 116805 0 -122120 116569 0 -119960 116332 0 -117805 116097 0 -115656 115862 0 -113512 115628 0 -111374 115394 0 -109241 115162 0 -107114 114929 0 -104992 114697 0 -102876 114466 0 -100765 114235 0 -98659.3 114005 0 -96559.1 113776 0 -94464.3 113547 0 -92374.9 113318 0 -90290.8 113090 0 -88212 112862 0 -86138.6 112635 0 -84070.5 112408 0 -82007.6 112182 0 -79950.1 111956 0 -77897.8 111731 0 -75850.7 111506 0 -73808.9 111281 0 -71772.4 111057 0 -69741 110833 0 -67714.9 110609 0 -65693.9 110386 0 -63678.1 110163 0 -61667.5 109940 0 -59662.1 109718 0 -57661.8 109496 0 -55666.6 109275 0 -53676.6 109053 0 -51691.7 108832 0 -49711.9 108612 0 -47737.2 108391 0 -45767.6 108171 0 -43803 107951 0 -41843.6 107731 0 -39889.1 107512 0 -37939.8 107292 0 -35995.4 107073 0 -34056.2 106854 0 -32121.9 106636 0 -30192.6 106417 0 -28268.4 106199 0 -26349.1 105981 0 -24434.9 105763 0 -22525.6 105545 0 -20621.3 105328 0 -18721.9 105110 0 -16827.5 104893 0 -14938.1 104676 0 -13053.6 104459 0 -11174.1 104242 0 -9299.43 104025 0 -7429.73 103808 0 -5564.94 103592 0 -3705.06 103375 0 -1850.08 103159 0 0 102942 0 -279845 145068 0 -277250 144728 0 -274661 144391 0 -272081 144056 0 -269507 143723 0 -266941 143393 0 -264382 143065 0 -261831 142739 0 -259286 142415 0 -256749 142094 0 -254219 141775 0 -251696 141458 0 -249180 141143 0 -246671 140830 0 -244169 140519 0 -241674 140210 0 -239185 139903 0 -236704 139598 0 -234229 139295 0 -231762 138994 0 -229301 138694 0 -226847 138397 0 -224399 138101 0 -221958 137806 0 -219524 137514 0 -217097 137223 0 -214676 136933 0 -212261 136646 0 -209853 136359 0 -207452 136075 0 -205057 135792 0 -202668 135510 0 -200286 135229 0 -197910 134951 0 -195541 134673 0 -193178 134397 0 -190821 134122 0 -188470 133848 0 -186126 133576 0 -183788 133305 0 -181456 133035 0 -179130 132767 0 -176810 132499 0 -174497 132233 0 -172189 131968 0 -169888 131704 0 -167592 131441 0 -165303 131179 0 -163019 130918 0 -160742 130658 0 -158470 130399 0 -156205 130141 0 -153945 129884 0 -151691 129628 0 -149443 129373 0 -147201 129119 0 -144964 128865 0 -142733 128613 0 -140509 128361 0 -138289 128110 0 -136076 127860 0 -133868 127611 0 -131666 127362 0 -129470 127114 0 -127279 126867 0 -125094 126621 0 -122914 126375 0 -120740 126130 0 -118572 125886 0 -116409 125642 0 -114252 125399 0 -112100 125157 0 -109953 124915 0 -107813 124673 0 -105677 124433 0 -103547 124192 0 -101423 123953 0 -99304 123714 0 -97190.4 123475 0 -95082.2 123237 0 -92979.4 122999 0 -90881.9 122762 0 -88789.9 122525 0 -86703.1 122289 0 -84621.7 122053 0 -82545.6 121818 0 -80474.7 121583 0 -78409.2 121348 0 -76349 121114 0 -74294 120880 0 -72244.2 120646 0 -70199.7 120413 0 -68160.4 120180 0 -66126.4 119948 0 -64097.5 119715 0 -62073.8 119483 0 -60055.4 119252 0 -58042 119020 0 -56033.9 118789 0 -54030.9 118559 0 -52033 118328 0 -50040.3 118098 0 -48052.6 117868 0 -46070.1 117638 0 -44092.7 117408 0 -42120.4 117179 0 -40153.2 116950 0 -38191 116720 0 -36233.9 116492 0 -34281.8 116263 0 -32334.8 116034 0 -30392.9 115806 0 -28455.9 115578 0 -26524 115350 0 -24597.1 115122 0 -22675.2 114894 0 -20758.3 114666 0 -18846.4 114439 0 -16939.4 114211 0 -15037.5 113984 0 -13140.5 113756 0 -11248.4 113529 0 -9361.34 113302 0 -7479.21 113075 0 -5602.01 112848 0 -3729.75 112621 0 -1862.42 112394 0 0 112167 0 -281643 155558 0 -279031 155207 0 -276428 154858 0 -273831 154512 0 -271242 154168 0 -268661 153827 0 -266086 153487 0 -263519 153151 0 -260959 152816 0 -258407 152484 0 -255861 152154 0 -253323 151826 0 -250791 151501 0 -248267 151177 0 -245750 150856 0 -243239 150537 0 -240736 150219 0 -238240 149904 0 -235750 149590 0 -233267 149279 0 -230791 148969 0 -228322 148661 0 -225860 148355 0 -223404 148051 0 -220955 147748 0 -218512 147447 0 -216077 147148 0 -213647 146850 0 -211225 146554 0 -208808 146260 0 -206399 145967 0 -203995 145676 0 -201598 145386 0 -199208 145097 0 -196824 144810 0 -194446 144524 0 -192075 144240 0 -189709 143957 0 -187350 143675 0 -184998 143395 0 -182651 143116 0 -180311 142838 0 -177977 142561 0 -175648 142285 0 -173326 142011 0 -171010 141737 0 -168701 141465 0 -166397 141194 0 -164099 140924 0 -161807 140655 0 -159521 140387 0 -157241 140120 0 -154967 139854 0 -152699 139589 0 -150436 139324 0 -148180 139061 0 -145929 138799 0 -143684 138537 0 -141445 138276 0 -139211 138016 0 -136984 137757 0 -134762 137499 0 -132546 137241 0 -130335 136985 0 -128130 136728 0 -125931 136473 0 -123737 136218 0 -121549 135964 0 -119367 135711 0 -117190 135458 0 -115019 135206 0 -112853 134954 0 -110693 134703 0 -108538 134453 0 -106389 134203 0 -104245 133954 0 -102106 133705 0 -99973.5 133457 0 -97846.1 133209 0 -95724.1 132962 0 -93607.4 132715 0 -91496.2 132469 0 -89390.3 132223 0 -87289.7 131977 0 -85194.6 131732 0 -83104.7 131488 0 -81020.2 131243 0 -78941 130999 0 -76867 130756 0 -74798.4 130513 0 -72735 130270 0 -70676.9 130027 0 -68624 129785 0 -66576.3 129543 0 -64533.9 129301 0 -62496.7 129060 0 -60464.7 128819 0 -58437.9 128578 0 -56416.2 128337 0 -54399.7 128097 0 -52388.4 127857 0 -50382.2 127617 0 -48381.2 127377 0 -46385.3 127137 0 -44394.5 126898 0 -42408.9 126659 0 -40428.3 126419 0 -38452.8 126181 0 -36482.4 125942 0 -34517.1 125703 0 -32556.8 125465 0 -30601.6 125226 0 -28651.5 124988 0 -26706.4 124750 0 -24766.3 124512 0 -22831.2 124274 0 -20901.2 124036 0 -18976.2 123798 0 -17056.2 123560 0 -15141.1 123322 0 -13231.1 123084 0 -11326.1 122847 0 -9425.98 122609 0 -7530.87 122371 0 -5640.72 122134 0 -3755.54 121896 0 -1875.3 121659 0 0 121421 0 -283495 166096 0 -280868 165733 0 -278248 165373 0 -275636 165015 0 -273031 164660 0 -270433 164307 0 -267843 163957 0 -265260 163609 0 -262684 163263 0 -260116 162920 0 -257554 162579 0 -255000 162240 0 -252453 161904 0 -249913 161570 0 -247381 161237 0 -244855 160907 0 -242336 160579 0 -239824 160253 0 -237319 159930 0 -234821 159608 0 -232329 159287 0 -229845 158969 0 -227367 158653 0 -224896 158338 0 -222432 158026 0 -219974 157715 0 -217523 157405 0 -215079 157098 0 -212641 156792 0 -210209 156487 0 -207784 156185 0 -205366 155883 0 -202954 155584 0 -200548 155285 0 -198149 154989 0 -195756 154693 0 -193370 154399 0 -190990 154107 0 -188616 153815 0 -186248 153526 0 -183887 153237 0 -181531 152949 0 -179182 152663 0 -176839 152378 0 -174502 152094 0 -172172 151812 0 -169847 151530 0 -167528 151250 0 -165216 150971 0 -162909 150692 0 -160608 150415 0 -158313 150139 0 -156025 149863 0 -153742 149589 0 -151465 149316 0 -149193 149043 0 -146928 148772 0 -144668 148501 0 -142415 148231 0 -140167 147962 0 -137924 147694 0 -135688 147426 0 -133457 147159 0 -131232 146893 0 -129012 146628 0 -126799 146364 0 -124591 146100 0 -122388 145837 0 -120191 145574 0 -118000 145312 0 -115814 145051 0 -113634 144790 0 -111459 144530 0 -109290 144271 0 -107126 144012 0 -104968 143753 0 -102816 143495 0 -100668 143238 0 -98526.7 142981 0 -96390.3 142724 0 -94259.4 142468 0 -92133.9 142213 0 -90013.8 141957 0 -87899 141703 0 -85789.6 141448 0 -83685.6 141194 0 -81586.9 140941 0 -79493.5 140687 0 -77405.4 140434 0 -75322.6 140182 0 -73245.1 139929 0 -71172.9 139677 0 -69105.9 139425 0 -67044.2 139174 0 -64987.7 138923 0 -62936.4 138672 0 -60890.4 138421 0 -58849.6 138171 0 -56813.9 137920 0 -54783.5 137670 0 -52758.2 137420 0 -50738.1 137170 0 -48723.2 136921 0 -46713.4 136671 0 -44708.7 136422 0 -42709.1 136173 0 -40714.7 135924 0 -38725.4 135675 0 -36741.2 135426 0 -34762.1 135178 0 -32788.1 134929 0 -30819.1 134680 0 -28855.2 134432 0 -26896.4 134183 0 -24942.6 133935 0 -22993.9 133687 0 -21050.2 133438 0 -19111.5 133190 0 -17177.9 132942 0 -15249.2 132694 0 -13325.6 132445 0 -11407 132197 0 -9493.39 131949 0 -7584.76 131701 0 -5681.11 131452 0 -3782.44 131204 0 -1888.74 130955 0 0 130707 0 -285404 176685 0 -282760 176310 0 -280124 175937 0 -277495 175568 0 -274873 175201 0 -272259 174836 0 -269653 174474 0 -267054 174115 0 -264462 173758 0 -261877 173403 0 -259300 173051 0 -256730 172701 0 -254167 172354 0 -251611 172009 0 -249062 171665 0 -246520 171325 0 -243986 170986 0 -241458 170649 0 -238937 170315 0 -236423 169982 0 -233916 169651 0 -231416 169323 0 -228922 168996 0 -226436 168671 0 -223956 168348 0 -221482 168027 0 -219016 167707 0 -216556 167390 0 -214102 167074 0 -211655 166759 0 -209215 166446 0 -206781 166135 0 -204354 165826 0 -201933 165518 0 -199518 165211 0 -197110 164906 0 -194708 164602 0 -192312 164300 0 -189923 163999 0 -187540 163700 0 -185163 163401 0 -182793 163104 0 -180428 162809 0 -178070 162514 0 -175718 162221 0 -173372 161929 0 -171032 161638 0 -168698 161348 0 -166370 161059 0 -164049 160772 0 -161733 160485 0 -159423 160199 0 -157119 159915 0 -154821 159631 0 -152529 159349 0 -150242 159067 0 -147962 158786 0 -145687 158506 0 -143419 158227 0 -141156 157949 0 -138898 157671 0 -136647 157394 0 -134401 157119 0 -132161 156843 0 -129927 156569 0 -127698 156295 0 -125475 156022 0 -123257 155750 0 -121045 155478 0 -118839 155207 0 -116639 154936 0 -114444 154666 0 -112254 154397 0 -110070 154128 0 -107892 153860 0 -105719 153592 0 -103551 153325 0 -101389 153058 0 -99232.7 152792 0 -97081.6 152526 0 -94935.9 152261 0 -92795.7 151996 0 -90660.9 151731 0 -88531.4 151467 0 -86407.3 151203 0 -84288.6 150940 0 -82175.2 150677 0 -80067.1 150414 0 -77964.4 150152 0 -75867 149889 0 -73774.9 149627 0 -71688.1 149366 0 -69606.5 149104 0 -67530.2 148843 0 -65459.2 148582 0 -63393.4 148322 0 -61332.9 148061 0 -59277.5 147801 0 -57227.4 147541 0 -55182.5 147281 0 -53142.7 147021 0 -51108.2 146762 0 -49078.8 146502 0 -47054.5 146243 0 -45035.5 145984 0 -43021.5 145724 0 -41012.7 145465 0 -39009.1 145206 0 -37010.5 144947 0 -35017.1 144688 0 -33028.7 144430 0 -31045.5 144171 0 -29067.3 143912 0 -27094.2 143653 0 -25126.2 143395 0 -23163.2 143136 0 -21205.3 142877 0 -19252.5 142618 0 -17304.6 142359 0 -15361.9 142101 0 -13424.1 141842 0 -11491.4 141583 0 -9563.64 141324 0 -7640.92 141064 0 -5723.2 140805 0 -3810.48 140546 0 -1902.75 140287 0 0 140027 0 -287369 187325 0 -284708 186938 0 -282055 186553 0 -279409 186171 0 -276771 185792 0 -274140 185416 0 -271517 185042 0 -268901 184671 0 -266293 184303 0 -263692 183936 0 -261098 183573 0 -258512 183212 0 -255932 182853 0 -253360 182496 0 -250795 182142 0 -248237 181790 0 -245686 181441 0 -243142 181093 0 -240605 180748 0 -238075 180404 0 -235552 180063 0 -233036 179724 0 -230526 179386 0 -228024 179051 0 -225528 178718 0 -223038 178386 0 -220556 178056 0 -218080 177728 0 -215610 177402 0 -213148 177077 0 -210691 176755 0 -208242 176433 0 -205799 176114 0 -203362 175796 0 -200931 175479 0 -198507 175164 0 -196090 174851 0 -193678 174539 0 -191274 174228 0 -188875 173919 0 -186482 173611 0 -184096 173304 0 -181716 172999 0 -179342 172695 0 -176974 172392 0 -174613 172090 0 -172257 171790 0 -169908 171491 0 -167564 171192 0 -165227 170895 0 -162896 170599 0 -160570 170304 0 -158251 170010 0 -155937 169717 0 -153629 169425 0 -151328 169134 0 -149032 168844 0 -146742 168555 0 -144457 168266 0 -142179 167979 0 -139906 167692 0 -137639 167406 0 -135378 167121 0 -133123 166836 0 -130873 166553 0 -128629 166270 0 -126390 165987 0 -124158 165706 0 -121930 165424 0 -119709 165144 0 -117493 164864 0 -115283 164585 0 -113078 164306 0 -110878 164028 0 -108685 163751 0 -106496 163474 0 -104314 163197 0 -102136 162921 0 -99964.7 162645 0 -97798.4 162370 0 -95637.5 162095 0 -93482 161821 0 -91332 161547 0 -89187.4 161273 0 -87048.1 161000 0 -84914.2 160727 0 -82785.7 160454 0 -80662.5 160182 0 -78544.6 159910 0 -76432.1 159638 0 -74324.9 159367 0 -72222.9 159095 0 -70126.3 158824 0 -68034.9 158553 0 -65948.9 158283 0 -63868 158012 0 -61792.4 157742 0 -59722 157472 0 -57656.9 157202 0 -55597 156932 0 -53542.2 156662 0 -51492.7 156393 0 -49448.4 156123 0 -47409.2 155854 0 -45375.2 155585 0 -43346.3 155315 0 -41322.6 155046 0 -39304 154777 0 -37290.6 154508 0 -35282.3 154238 0 -33279.1 153969 0 -31281 153700 0 -29288 153431 0 -27300.1 153162 0 -25317.2 152893 0 -23339.5 152623 0 -21366.8 152354 0 -19399.2 152084 0 -17436.6 151815 0 -15479.1 151545 0 -13526.6 151276 0 -11579.2 151006 0 -9636.79 150736 0 -7699.41 150466 0 -5767.05 150196 0 -3839.69 149925 0 -1917.35 149655 0 0 149384 0 -289391 198020 0 -286713 197620 0 -284043 197223 0 -281380 196829 0 -278725 196437 0 -276077 196049 0 -273437 195663 0 -270804 195280 0 -268179 194899 0 -265561 194521 0 -262950 194146 0 -260347 193773 0 -257751 193403 0 -255162 193035 0 -252581 192670 0 -250006 192307 0 -247439 191946 0 -244878 191587 0 -242325 191231 0 -239778 190876 0 -237238 190524 0 -234706 190174 0 -232180 189826 0 -229661 189480 0 -227148 189136 0 -224643 188794 0 -222144 188454 0 -219652 188115 0 -217166 187779 0 -214687 187444 0 -212215 187111 0 -209749 186780 0 -207289 186450 0 -204836 186122 0 -202390 185795 0 -199950 185470 0 -197516 185147 0 -195089 184825 0 -192668 184504 0 -190253 184185 0 -187844 183868 0 -185442 183551 0 -183046 183236 0 -180656 182922 0 -178272 182610 0 -175895 182299 0 -173523 181989 0 -171158 181680 0 -168798 181372 0 -166445 181065 0 -164097 180760 0 -161756 180455 0 -159421 180152 0 -157091 179849 0 -154767 179548 0 -152450 179248 0 -150138 178948 0 -147832 178649 0 -145532 178351 0 -143237 178054 0 -140949 177758 0 -138666 177463 0 -136389 177168 0 -134118 176875 0 -131852 176581 0 -129592 176289 0 -127338 175997 0 -125089 175706 0 -122846 175416 0 -120609 175126 0 -118377 174837 0 -116151 174548 0 -113931 174260 0 -111716 173973 0 -109506 173686 0 -107302 173399 0 -105104 173113 0 -102911 172828 0 -100723 172543 0 -98541.2 172258 0 -96364.6 171974 0 -94193.5 171690 0 -92027.7 171406 0 -89867.4 171123 0 -87712.5 170840 0 -85562.9 170557 0 -83418.7 170275 0 -81279.9 169993 0 -79146.4 169712 0 -77018.3 169430 0 -74895.4 169149 0 -72777.9 168868 0 -70665.6 168587 0 -68558.7 168306 0 -66457 168026 0 -64360.6 167746 0 -62269.4 167465 0 -60183.5 167185 0 -58102.8 166905 0 -56027.4 166626 0 -53957.1 166346 0 -51892.1 166066 0 -49832.2 165787 0 -47777.5 165507 0 -45728 165228 0 -43683.7 164948 0 -41644.5 164669 0 -39610.5 164389 0 -37581.6 164110 0 -35557.9 163830 0 -33539.2 163551 0 -31525.7 163271 0 -29517.3 162991 0 -27514.1 162711 0 -25515.9 162432 0 -23522.7 162152 0 -21534.7 161872 0 -19551.8 161591 0 -17573.9 161311 0 -15601.1 161031 0 -13633.3 160750 0 -11670.6 160469 0 -9712.91 160189 0 -7760.28 159908 0 -5812.68 159626 0 -3870.1 159345 0 -1932.54 159063 0 0 158781 0 -291471 208771 0 -288775 208358 0 -286087 207948 0 -283407 207541 0 -280735 207137 0 -278070 206736 0 -275412 206338 0 -272762 205943 0 -270120 205550 0 -267485 205160 0 -264857 204773 0 -262237 204388 0 -259624 204006 0 -257018 203627 0 -254419 203250 0 -251828 202875 0 -249243 202503 0 -246666 202133 0 -244096 201766 0 -241532 201400 0 -238976 201037 0 -236427 200676 0 -233884 200317 0 -231348 199961 0 -228819 199606 0 -226297 199253 0 -223781 198902 0 -221272 198553 0 -218770 198206 0 -216275 197861 0 -213786 197518 0 -211303 197176 0 -208827 196836 0 -206358 196498 0 -203894 196161 0 -201438 195826 0 -198988 195493 0 -196544 195161 0 -194106 194830 0 -191675 194501 0 -189250 194174 0 -186831 193847 0 -184419 193523 0 -182012 193199 0 -179612 192877 0 -177218 192556 0 -174830 192236 0 -172448 191918 0 -170072 191600 0 -167703 191284 0 -165339 190969 0 -162981 190655 0 -160629 190342 0 -158284 190030 0 -155944 189719 0 -153610 189409 0 -151281 189100 0 -148959 188792 0 -146643 188484 0 -144332 188178 0 -142027 187872 0 -139728 187568 0 -137435 187264 0 -135147 186960 0 -132865 186658 0 -130589 186356 0 -128319 186055 0 -126054 185754 0 -123794 185455 0 -121541 185155 0 -119293 184857 0 -117050 184559 0 -114814 184261 0 -112582 183964 0 -110357 183668 0 -108136 183372 0 -105922 183076 0 -103713 182781 0 -101509 182486 0 -99310.7 182192 0 -97117.9 181898 0 -94930.5 181605 0 -92748.6 181312 0 -90572.1 181019 0 -88401 180726 0 -86235.3 180434 0 -84074.9 180142 0 -81919.9 179851 0 -79770.3 179559 0 -77626 179268 0 -75487 178977 0 -73353.3 178686 0 -71225 178395 0 -69101.9 178105 0 -66984.1 177815 0 -64871.6 177524 0 -62764.3 177234 0 -60662.3 176944 0 -58565.5 176654 0 -56474 176364 0 -54387.6 176074 0 -52306.5 175785 0 -50230.6 175495 0 -48159.9 175205 0 -46094.4 174915 0 -44034 174626 0 -41978.8 174336 0 -39928.8 174046 0 -37883.9 173756 0 -35844.1 173466 0 -33809.5 173176 0 -31780 172886 0 -29755.7 172595 0 -27736.4 172305 0 -25722.3 172014 0 -23713.2 171724 0 -21709.2 171433 0 -19710.4 171142 0 -17716.6 170851 0 -15727.9 170559 0 -13744.2 170268 0 -11765.6 169976 0 -9792.07 169684 0 -7823.58 169392 0 -5860.13 169099 0 -3901.72 168807 0 -1948.35 168514 0 0 168221 0 -293609 219581 0 -290896 219154 0 -288190 218731 0 -285492 218311 0 -282802 217894 0 -280119 217480 0 -277444 217070 0 -274777 216662 0 -272117 216257 0 -269464 215855 0 -266819 215455 0 -264182 215059 0 -261551 214665 0 -258928 214273 0 -256312 213885 0 -253703 213498 0 -251102 213115 0 -248507 212733 0 -245920 212354 0 -243339 211978 0 -240766 211604 0 -238199 211232 0 -235639 210862 0 -233087 210494 0 -230541 210128 0 -228001 209765 0 -225469 209403 0 -222943 209044 0 -220424 208686 0 -217911 208331 0 -215405 207977 0 -212906 207625 0 -210413 207274 0 -207926 206926 0 -205446 206579 0 -202973 206234 0 -200506 205890 0 -198045 205548 0 -195590 205207 0 -193142 204868 0 -190700 204531 0 -188265 204195 0 -185835 203860 0 -183412 203527 0 -180995 203195 0 -178584 202864 0 -176180 202534 0 -173781 202206 0 -171388 201879 0 -169002 201553 0 -166621 201229 0 -164247 200905 0 -161878 200582 0 -159515 200261 0 -157159 199940 0 -154808 199621 0 -152463 199302 0 -150124 198984 0 -147791 198667 0 -145463 198351 0 -143142 198036 0 -140826 197722 0 -138516 197409 0 -136211 197096 0 -133913 196784 0 -131620 196473 0 -129333 196162 0 -127051 195852 0 -124775 195543 0 -122505 195234 0 -120240 194926 0 -117981 194618 0 -115727 194311 0 -113479 194005 0 -111237 193699 0 -109000 193393 0 -106769 193088 0 -104543 192784 0 -102322 192479 0 -100107 192175 0 -97897.8 191872 0 -95693.8 191569 0 -93495.2 191266 0 -91302 190964 0 -89114.2 190661 0 -86931.7 190359 0 -84754.7 190058 0 -82583 189756 0 -80416.7 189455 0 -78255.7 189154 0 -76100.1 188853 0 -73949.7 188552 0 -71804.7 188252 0 -69665 187951 0 -67530.5 187651 0 -65401.4 187351 0 -63277.4 187051 0 -61158.8 186751 0 -59045.4 186450 0 -56937.2 186150 0 -54834.2 185850 0 -52736.5 185550 0 -50643.9 185250 0 -48556.6 184950 0 -46474.5 184650 0 -44397.5 184350 0 -42325.7 184050 0 -40259.1 183749 0 -38197.6 183449 0 -36141.3 183148 0 -34090.1 182848 0 -32044 182547 0 -30003.1 182246 0 -27967.3 181945 0 -25936.6 181644 0 -23911 181342 0 -21890.5 181040 0 -19875.1 180738 0 -17864.8 180436 0 -15859.6 180134 0 -13859.4 179831 0 -11864.3 179528 0 -9874.32 179225 0 -7889.36 178922 0 -5909.45 178618 0 -3934.6 178314 0 -1964.78 178010 0 0 177705 0 -295806 230449 0 -293075 230009 0 -290351 229573 0 -287635 229140 0 -284927 228710 0 -282226 228283 0 -279534 227859 0 -276848 227438 0 -274171 227021 0 -271500 226606 0 -268838 226195 0 -266182 225786 0 -263534 225380 0 -260894 224976 0 -258260 224576 0 -255634 224178 0 -253015 223782 0 -250403 223390 0 -247798 222999 0 -245200 222611 0 -242609 222226 0 -240025 221842 0 -237447 221461 0 -234877 221083 0 -232314 220706 0 -229757 220332 0 -227207 219959 0 -224664 219589 0 -222127 219221 0 -219597 218854 0 -217074 218490 0 -214557 218127 0 -212047 217767 0 -209543 217408 0 -207046 217051 0 -204555 216695 0 -202071 216341 0 -199593 215989 0 -197121 215638 0 -194656 215289 0 -192196 214942 0 -189744 214596 0 -187297 214251 0 -18