<?xml version="1.0"?> 
<VTKFile type="StructuredGrid" version="0.1"> 
<StructuredGrid WholeExtent="0 127 0 127 0 0"> 
<Piece Extent="0 127 0 127 0 0"> 
<PointData>
<DataArray type="Float32" Name="E" format="ascii" NumberOfComponents="3"> 
-937818 -0.011147 0 -937803 634.797 0 -937760 1270.37 0 -937688 1907.48 0 -937586 2546.9 0 -937455 3189.39 0 -937295 3835.72 0 -937105 4486.64 0 -936885 5142.93 0 -936635 5805.34 0 -936354 6474.63 0 -936042 7151.55 0 -935699 7836.85 0 -935324 8531.28 0 -934916 9235.59 0 -934475 9950.49 0 -934000 10676.7 0 -933491 11415 0 -932947 12166.1 0 -932366 12930.7 0 -931749 13709.4 0 -931094 14502.9 0 -930400 15312 0 -929666 16137.3 0 -928892 16979.3 0 -928076 17838.8 0 -927216 18716.3 0 -926312 19612.3 0 -925362 20527.5 0 -924365 21462.3 0 -923319 22417.2 0 -922223 23392.7 0 -921075 24389.1 0 -919873 25406.8 0 -918616 26446.1 0 -917302 27507.3 0 -915929 28590.6 0 -914494 29696.1 0 -912996 30823.8 0 -911433 31973.9 0 -909803 33146.1 0 -908102 34340.3 0 -906330 35556.3 0 -904483 36793.7 0 -902558 38052 0 -900554 39330.7 0 -898467 40629 0 -896295 41946.2 0 -894036 43281.3 0 -891686 44633.1 0 -889242 46000.6 0 -886702 47382.2 0 -884063 48776.4 0 -881321 50181.4 0 -878475 51595.5 0 -875521 53016.4 0 -872456 54442 0 -869277 55869.8 0 -865981 57297.1 0 -862566 58721.2 0 -859029 60138.9 0 -855368 61547.1 0 -851579 62942.4 0 -847661 64321.1 0 -843611 65679.4 0 -839427 67013.5 0 -835107 68319.1 0 -830650 69592 0 -826053 70827.6 0 -821315 72021.5 0 -816436 73168.8 0 -811415 74264.9 0 -806249 75304.6 0 -800941 76283.2 0 -795488 77195.4 0 -789891 78036.3 0 -784150 78800.8 0 -778267 79483.7 0 -772242 80080 0 -766075 80584.7 0 -759768 80992.8 0 -753323 81299.5 0 -746742 81500.1 0 -740025 81589.8 0 -733176 81564.1 0 -726195 81418.6 0 -719087 81149.1 0 -711851 80751.4 0 -704492 80221.6 0 -697011 79555.7 0 -689410 78750.2 0 -681692 77801.2 0 -673858 76705.3 0 -665911 75459.1 0 -657851 74059 0 -649679 72501.5 0 -641398 70783.2 0 -633008 68900.5 0 -624507 66849.5 0 -615897 64626.1 0 -607176 62226.1 0 -598343 59644.6 0 -589394 56876.4 0 -580327 53915.5 0 -571139 50755.1 0 -561822 47387.4 0 -552372 43803.4 0 -542779 39992.7 0 -533035 35942.8 0 -523129 31639.3 0 -513045 27064.7 0 -502768 22198.2 0 -492278 17014.5 0 -481551 11482.7 0 -470558 5564.82 0 -459262 -786.931 0 -447620 -7632.76 0 -435576 -15051.3 0 -423056 -23144 0 -409974 -32055.6 0 -396181 -41962.5 0 -381563 -53218.1 0 -365663 -66013.9 0 -348590 -81934.5 0 -328281 -99466.9 0 -305785 -130533 0 -272863 -155969 0 -127972 -331878 0 -938340 -0.0113286 0 -938326 644.707 0 -938283 1290.2 0 -938212 1937.25 0 -938113 2586.64 0 -937985 3239.15 0 -937827 3895.54 0 -937641 4556.6 0 -937426 5223.1 0 -937181 5895.8 0 -936905 6575.48 0 -936600 7262.9 0 -936263 7958.83 0 -935895 8664.02 0 -935495 9379.23 0 -935063 10105.2 0 -934597 10842.7 0 -934098 11592.4 0 -933564 12355.2 0 -932994 13131.6 0 -932389 13922.4 0 -931746 14728.4 0 -931065 15550.1 0 -930345 16388.3 0 -929585 17243.7 0 -928784 18116.8 0 -927940 19008.2 0 -927052 19918.7 0 -926119 20848.6 0 -925139 21798.7 0 -924112 22769.3 0 -923034 23760.9 0 -921906 24774.1 0 -920724 25809.1 0 -919488 26866.3 0 -918196 27945.9 0 -916845 29048.4 0 -915433 30173.7 0 -913959 31322 0 -912420 32493.4 0 -910815 33687.7 0 -909140 34905 0 -907393 36144.8 0 -905572 37407.1 0 -903675 38691.2 0 -901698 39996.7 0 -899640 41323 0 -897497 42669.2 0 -895266 44034.5 0 -892946 45417.8 0 -890532 46817.9 0 -888022 48233.4 0 -885413 49663 0 -882703 51104.8 0 -879887 52557 0 -876964 54017.6 0 -873929 55484.3 0 -870781 56954.8 0 -867517 58426.5 0 -864132 59896.4 0 -860626 61361.7 0 -856994 62819.1 0 -853235 64265.3 0 -849345 65696.6 0 -845324 67109.3 0 -841167 68499.3 0 -836874 69862.6 0 -832442 71194.9 0 -827870 72491.6 0 -823156 73748.1 0 -818299 74959.8 0 -813298 76121.7 0 -808152 77228.9 0 -802861 78276.3 0 -797424 79258.9 0 -791842 80171.5 0 -786114 81009 0 -780242 81766.2 0 -774226 82438 0 -768066 83019.3 0 -761765 83505.1 0 -755323 83890.5 0 -748742 84170.6 0 -742025 84340.7 0 -735173 84396.3 0 -728188 84333 0 -721072 84146.3 0 -713828 83832.3 0 -706458 83386.8 0 -698965 82806.1 0 -691350 82086.4 0 -683615 81224.2 0 -675763 80216 0 -667796 79058.5 0 -659715 77748.2 0 -651521 76281.8 0 -643216 74656.2 0 -634799 72867.7 0 -626272 70913 0 -617634 68788.2 0 -608883 66489.5 0 -600019 64012.5 0 -591038 61352.4 0 -581938 58503.8 0 -572715 55460.7 0 -563363 52216.1 0 -553875 48762 0 -544244 45089.1 0 -534459 41186.5 0 -524510 37041.2 0 -514381 32637.9 0 -504056 27958.3 0 -493515 22980.2 0 -482733 17676.7 0 -471678 12014.9 0 -460315 5953.59 0 -448597 -558.531 0 -436465 -7587.94 0 -423841 -15218.7 0 -410631 -23571.5 0 -396683 -32782.3 0 -381839 -43141.7 0 -365712 -54777.1 0 -348050 -68795.6 0 -327527 -84547.1 0 -303155 -107520 0 -268302 -133529 0 -201029 -186815 0 -938871 -0.0114811 0 -938858 654.38 0 -938816 1309.56 0 -938746 1966.31 0 -938649 2625.44 0 -938523 3287.72 0 -938369 3953.94 0 -938187 4624.89 0 -937976 5301.35 0 -937736 5984.1 0 -937466 6673.92 0 -937167 7371.6 0 -936837 8077.9 0 -936476 8793.6 0 -936084 9519.46 0 -935661 10256.3 0 -935204 11004.7 0 -934715 11765.7 0 -934191 12539.8 0 -933633 13327.8 0 -933039 14130.5 0 -932409 14948.5 0 -931741 15782.7 0 -931035 16633.6 0 -930289 17501.9 0 -929503 18388.3 0 -928675 19293.5 0 -927803 20218 0 -926887 21162.4 0 -925925 22127.4 0 -924916 23113.4 0 -923858 24120.9 0 -922749 25150.4 0 -921588 26202.4 0 -920373 27277.1 0 -919103 28374.9 0 -917774 29496.1 0 -916386 30641 0 -914936 31809.5 0 -913421 33001.9 0 -911841 34218 0 -910192 35457.9 0 -908471 36721.3 0 -906678 38008 0 -904808 39317.6 0 -902860 40649.7 0 -900830 42003.5 0 -898716 43378.4 0 -896515 44773.6 0 -894225 46188 0 -891841 47620.4 0 -889363 49069.7 0 -886785 50534.2 0 -884106 52012.5 0 -881322 53502.6 0 -878430 55002.5 0 -875427 56510.2 0 -872311 58023.2 0 -869078 59538.9 0 -865725 61054.7 0 -862249 62567.4 0 -858649 64073.9 0 -854920 65570.9 0 -851060 67054.7 0 -847068 68521.7 0 -842939 69967.8 0 -838674 71388.8 0 -834269 72780.5 0 -829722 74138.4 0 -825033 75457.8 0 -820199 76734 0 -815220 77962.1 0 -810095 79137 0 -804823 80253.6 0 -799404 81307 0 -793837 82291.7 0 -788123 83202.7 0 -782263 84034.6 0 -776257 84782.4 0 -770105 85440.9 0 -763810 86004.9 0 -757373 86469.5 0 -750795 86829.9 0 -744078 87081.1 0 -737224 87218.7 0 -730235 87238 0 -723113 87134.9 0 -715862 86905.1 0 -708482 86544.6 0 -700977 86049.6 0 -693348 85416.4 0 -685599 84641.4 0 -677730 83721.3 0 -669744 82652.8 0 -661643 81432.7 0 -653428 80057.7 0 -645099 78524.8 0 -636659 76830.7 0 -628106 74972.2 0 -619441 72945.9 0 -610662 70748.2 0 -601769 68375.2 0 -592759 65822.5 0 -583628 63085.4 0 -574373 60158.6 0 -564988 57035.8 0 -555466 53710.1 0 -545800 50173.1 0 -535980 46415.3 0 -525994 42425.4 0 -515827 38190 0 -505463 33693.1 0 -494880 28915.6 0 -484054 23834.2 0 -472953 18420.8 0 -461541 12640.5 0 -449769 6450.05 0 -437578 -205.818 0 -424889 -7395.69 0 -411604 -15216.6 0 -397575 -23776.5 0 -382624 -33286.4 0 -366411 -43879.3 0 -348574 -56176.2 0 -328067 -70161.1 0 -303774 -87840.9 0 -270984 -109052 0 -220148 -135042 0 -939412 -0.0116281 0 -939399 663.813 0 -939358 1328.43 0 -939290 1994.65 0 -939194 2663.27 0 -939071 3335.08 0 -938921 4010.89 0 -938742 4691.48 0 -938536 5377.66 0 -938300 6070.21 0 -938036 6769.93 0 -937743 7477.61 0 -937420 8194.03 0 -937067 8919.98 0 -936683 9656.24 0 -936268 10403.6 0 -935821 11162.8 0 -935342 11934.6 0 -934829 12719.9 0 -934282 13519.2 0 -933700 14333.5 0 -933082 15163.4 0 -932428 16009.6 0 -931735 16872.8 0 -931004 17753.9 0 -930233 18653.3 0 -929420 19571.9 0 -928565 20510.2 0 -927667 21468.8 0 -926723 22448.3 0 -925732 23449.4 0 -924693 24472.5 0 -923605 25518 0 -922465 26586.6 0 -921271 27678.5 0 -920022 28794.2 0 -918717 29933.8 0 -917352 31097.8 0 -915926 32286.2 0 -914436 33499.2 0 -912881 34736.8 0 -911258 35999 0 -909565 37285.6 0 -907799 38596.4 0 -905957 39931.1 0 -904038 41289.3 0 -902037 42670.4 0 -899953 44073.6 0 -897782 45498.3 0 -895522 46943.4 0 -893170 48407.9 0 -890723 49890.5 0 -888177 51389.8 0 -885530 52904.1 0 -882778 54431.8 0 -879919 55970.9 0 -876949 57519.3 0 -873865 59074.5 0 -870664 60634.2 0 -867344 62195.4 0 -863900 63755.4 0 -860331 65310.9 0 -856634 66858.6 0 -852805 68394.9 0 -848843 69916.1 0 -844744 71418.2 0 -840507 72897.1 0 -836130 74348.3 0 -831610 75767.5 0 -826947 77150 0 -822137 78490.9 0 -817182 79785.3 0 -812078 81028.2 0 -806826 82214.5 0 -801425 83338.9 0 -795876 84396.2 0 -790177 85381.1 0 -784330 86288.3 0 -778335 87112.6 0 -772193 87848.8 0 -765906 88491.7 0 -759474 89036.1 0 -752899 89477.3 0 -746183 89810.3 0 -739329 90030.4 0 -732337 90133.2 0 -725211 90114.2 0 -717952 89969.2 0 -710564 89694.3 0 -703048 89285.6 0 -695407 88739.4 0 -687643 88052.2 0 -679759 87220.7 0 -671755 86241.7 0 -663635 85112 0 -655399 83828.6 0 -647049 82388.6 0 -638586 80789 0 -630009 79026.7 0 -621318 77098.6 0 -612514 75001.6 0 -603594 72732 0 -594555 70286.2 0 -585396 67659.7 0 -576111 64848 0 -566696 61845.7 0 -557145 58646.5 0 -547448 55243.3 0 -537596 51627.9 0 -527578 47790.3 0 -517379 43719.1 0 -506983 39400.5 0 -496367 34818.2 0 -485508 29952.3 0 -474374 24779.1 0 -462927 19269.4 0 -451121 13387.4 0 -438897 7088.03 0 -426176 315.992 0 -412859 -7003.89 0 -398807 -14957.3 0 -383838 -23689.2 0 -367650 -33320.4 0 -349857 -44184.9 0 -329656 -56411.8 0 -305871 -70721.7 0 -275817 -87191.8 0 -234308 -103966 0 -939962 -0.0117685 0 -939949 673.004 0 -939909 1346.82 0 -939842 2022.26 0 -939749 2700.13 0 -939629 3381.23 0 -939481 4066.38 0 -939307 4756.37 0 -939105 5452.02 0 -938874 6154.12 0 -938616 6863.49 0 -938329 7580.91 0 -938013 8307.2 0 -937667 9043.14 0 -937292 9789.54 0 -936885 10547.2 0 -936448 11316.8 0 -935978 12099.3 0 -935476 12895.4 0 -934940 13705.8 0 -934370 14531.4 0 -933765 15372.8 0 -933124 16230.8 0 -932446 17106.1 0 -931729 17999.6 0 -930973 18911.8 0 -930177 19843.4 0 -929339 20795.1 0 -928457 21767.6 0 -927532 22761.4 0 -926560 23777.2 0 -925541 24815.5 0 -924472 25876.8 0 -923353 26961.6 0 -922181 28070.4 0 -920955 29203.5 0 -919672 30361.3 0 -918331 31544 0 -916930 32752 0 -915465 33985.2 0 -913936 35243.9 0 -912340 36528 0 -910674 37837.4 0 -908935 39172 0 -907122 40531.5 0 -905232 41915.4 0 -903261 43323.3 0 -901207 44754.5 0 -899067 46208.4 0 -896839 47683.9 0 -894518 49180 0 -892103 50695.6 0 -889590 52229.3 0 -886975 53779.5 0 -884256 55344.5 0 -881430 56922.4 0 -878494 58511.1 0 -875443 60108.4 0 -872276 61711.7 0 -868989 63318.3 0 -865578 64925.3 0 -862042 66529.7 0 -858377 68128 0 -854580 69716.7 0 -850649 71292.1 0 -846581 72850.2 0 -842374 74386.8 0 -838026 75897.7 0 -833534 77378.3 0 -828897 78823.9 0 -824114 80229.7 0 -819182 81590.8 0 -814102 82902 0 -808871 84158.2 0 -803490 85354 0 -797959 86484.3 0 -792276 87543.6 0 -786444 88526.6 0 -780461 89428 0 -774330 90242.4 0 -768051 90964.7 0 -761626 91589.6 0 -755055 92112.2 0 -748342 92527.6 0 -741488 92831 0 -734494 93017.8 0 -727364 93083.6 0 -720100 93024.1 0 -712704 92835.4 0 -705178 92513.6 0 -697526 92054.9 0 -689749 91456 0 -681850 90713.5 0 -673830 89824.4 0 -665692 88785.5 0 -657436 87594 0 -649066 86247 0 -640580 84741.9 0 -631980 83075.7 0 -623266 81245.8 0 -614437 79249 0 -605491 77082.4 0 -596427 74742.6 0 -587241 72225.9 0 -577930 69528.2 0 -568488 66644.8 0 -558908 63570.4 0 -549184 60298.9 0 -539306 56823.1 0 -529261 53134.7 0 -519035 49223.9 0 -508613 45078.9 0 -497972 40686 0 -487089 36028.7 0 -475932 31087.1 0 -464466 25837.1 0 -452643 20249.7 0 -440406 14288.8 0 -427680 7910.9 0 -414368 1059.07 0 -400339 -6332.19 0 -385417 -14359.9 0 -369338 -23117.1 0 -351731 -32778.5 0 -331965 -43454.2 0 -309050 -55331.2 0 -281161 -68378.5 0 -245168 -80647.1 0 -940521 -0.0119081 0 -940508 681.95 0 -940469 1364.73 0 -940404 2049.14 0 -940313 2736.01 0 -940195 3426.16 0 -940051 4120.4 0 -939880 4819.54 0 -939683 5524.41 0 -939458 6235.81 0 -939205 6954.57 0 -938924 7681.48 0 -938615 8417.37 0 -938277 9163.05 0 -937910 9919.32 0 -937512 10687 0 -937084 11466.8 0 -936625 12259.7 0 -936133 13066.3 0 -935609 13887.5 0 -935051 14724 0 -934459 15576.7 0 -933831 16446.2 0 -933166 17333.4 0 -932465 18238.9 0 -931724 19163.5 0 -930944 20107.9 0 -930123 21072.8 0 -929259 22058.8 0 -928351 23066.6 0 -927399 24096.8 0 -926399 25149.9 0 -925351 26226.6 0 -924253 27327.4 0 -923103 28452.6 0 -921900 29602.8 0 -920640 30778.4 0 -919323 31979.5 0 -917947 33206.6 0 -916508 34459.8 0 -915005 35739.2 0 -913436 37044.8 0 -911797 38376.7 0 -910087 39734.6 0 -908303 41118.4 0 -906442 42527.7 0 -904501 43962.1 0 -902478 45420.9 0 -900370 46903.5 0 -898173 48409.1 0 -895885 49936.5 0 -893502 51484.8 0 -891022 53052.5 0 -888441 54638.1 0 -885756 56240.1 0 -882964 57856.6 0 -880062 59485.4 0 -877045 61124.4 0 -873912 62771.1 0 -870659 64422.8 0 -867283 66076.7 0 -863781 67729.7 0 -860149 69378.5 0 -856385 71019.5 0 -852486 72649 0 -848450 74263 0 -844274 75857.5 0 -839956 77428 0 -835493 78970.1 0 -830885 80479.1 0 -826128 81950 0 -821222 83377.9 0 -816165 84757.7 0 -810957 86084.1 0 -805598 87351.7 0 -800085 88555.4 0 -794421 89689.5 0 -788604 90748.8 0 -782635 91727.7 0 -776516 92621 0 -770246 93423.2 0 -763829 94129.3 0 -757264 94734 0 -750554 95232.4 0 -743701 95619.7 0 -736707 95891.2 0 -729574 96042.4 0 -722305 96069.1 0 -714903 95967.3 0 -707368 95732.9 0 -699706 95362.4 0 -691916 94852.3 0 -684003 94199.3 0 -675968 93400.4 0 -667812 92452.7 0 -659539 91353.3 0 -651149 90099.6 0 -642642 88689 0 -634021 87118.9 0 -625284 85386.8 0 -616432 83490 0 -607462 81425.8 0 -598373 79191.4 0 -589163 76783.4 0 -579827 74198.4 0 -570360 71432.4 0 -560756 68481 0 -551008 65338.9 0 -541106 62000.1 0 -531038 58457.5 0 -520791 54703 0 -510349 50726.9 0 -499690 46517.6 0 -488791 42061.6 0 -477622 37342.6 0 -466148 32341.3 0 -454323 27034.4 0 -442091 21393.8 0 -429381 15386 0 -416102 8969.36 0 -402131 2095.97 0 -387306 -5296.78 0 -371391 -13271.6 0 -354058 -21912 0 -334796 -31271.4 0 -312810 -41324.2 0 -286875 -51875.3 0 -254915 -61404.9 0 -941089 -0.0120435 0 -941076 690.651 0 -941038 1382.14 0 -940975 2075.28 0 -940885 2770.91 0 -940771 3469.85 0 -940630 4172.93 0 -940463 4880.97 0 -940270 5594.81 0 -940050 6315.25 0 -939803 7043.14 0 -939529 7779.29 0 -939226 8524.53 0 -938896 9279.67 0 -938537 10045.5 0 -938148 10823 0 -937730 11612.7 0 -937280 12415.7 0 -936800 13232.6 0 -936287 14064.3 0 -935741 14911.5 0 -935162 15775.1 0 -934547 16655.9 0 -933897 17554.5 0 -933210 18471.8 0 -932485 19408.5 0 -931721 20365.4 0 -930917 21343.1 0 -930071 22342.3 0 -929182 23363.7 0 -928249 24407.9 0 -927269 25475.6 0 -926242 26567.4 0 -925165 27683.7 0 -924037 28825.1 0 -922857 29992 0 -921621 31184.9 0 -920328 32404.1 0 -918977 33650 0 -917564 34922.7 0 -916088 36222.4 0 -914545 37549.2 0 -912935 38903.1 0 -911254 40284 0 -909499 41691.7 0 -907668 43126 0 -905758 44586.5 0 -903766 46072.5 0 -901690 47583.5 0 -899525 49118.7 0 -897270 50677.1 0 -894921 52257.6 0 -892475 53859 0 -889928 55479.8 0 -887278 57118.4 0 -884520 58773 0 -881653 60441.6 0 -878672 62122.1 0 -875574 63811.9 0 -872356 65508.5 0 -869014 67209.1 0 -865547 68910.5 0 -861949 70609.6 0 -858220 72302.7 0 -854354 73986.3 0 -850351 75656.2 0 -846207 77308.5 0 -841920 78938.8 0 -837488 80542.4 0 -832908 82114.8 0 -828180 83651 0 -823301 85146 0 -818269 86594.5 0 -813085 87991.4 0 -807748 89331.3 0 -802256 90608.7 0 -796610 91818.2 0 -790810 92954.1 0 -784857 94011.2 0 -778750 94983.8 0 -772492 95866.7 0 -766083 96654.4 0 -759525 97341.9 0 -752820 97924 0 -745969 98395.9 0 -738976 98752.7 0 -731841 98990.1 0 -724569 99103.7 0 -717160 99089.2 0 -709618 98943 0 -701946 98661.2 0 -694145 98240.4 0 -686219 97677.5 0 -678169 96969.3 0 -669998 96113.1 0 -661707 95106 0 -653298 93945.7 0 -644772 92629.7 0 -636130 91155.6 0 -627372 89521.1 0 -618498 87724 0 -609506 85761.7 0 -600394 83631.8 0 -591161 81331.6 0 -581802 78858.1 0 -572313 76208.1 0 -562687 73377.7 0 -552918 70362.6 0 -542995 67158 0 -532909 63758 0 -522645 60155.8 0 -512187 56343.6 0 -501517 52311.9 0 -490609 48049.9 0 -479437 43544.6 0 -467964 38780.7 0 -456148 33740.2 0 -443937 28401.8 0 -431262 22740.6 0 -418038 16727.1 0 -404152 10328.7 0 -389456 3507.35 0 -373745 -3772.44 0 -356732 -11541.2 0 -338003 -19799.4 0 -316934 -28436.3 0 -292652 -37180.6 0 -263799 -44843.4 0 -941666 -0.0121752 0 -941653 699.102 0 -941616 1399.05 0 -941554 2100.67 0 -941467 2804.81 0 -941355 3512.29 0 -941217 4223.96 0 -941054 4940.65 0 -940866 5663.2 0 -940651 6392.43 0 -940410 7129.2 0 -940142 7874.32 0 -939847 8628.64 0 -939524 9392.98 0 -939173 10168.2 0 -938793 10955.1 0 -938384 11754.5 0 -937945 12567.2 0 -937476 13394.1 0 -936974 14236 0 -936441 15093.7 0 -935874 15968 0 -935273 16859.6 0 -934638 17769.5 0 -933966 18698.3 0 -933257 19646.8 0 -932509 20615.7 0 -931722 21605.9 0 -930894 22618 0 -930024 23652.7 0 -929109 24710.6 0 -928150 25792.5 0 -927143 26899 0 -926088 28030.5 0 -924983 29187.6 0 -923825 30370.9 0 -922614 31580.8 0 -921346 32817.7 0 -920020 34081.9 0 -918633 35373.7 0 -917184 36693.3 0 -915669 38040.9 0 -914087 39416.4 0 -912435 40819.9 0 -910710 42251.2 0 -908909 43710.1 0 -907031 45196.2 0 -905071 46709.1 0 -903027 48248.1 0 -900895 49812.5 0 -898674 51401.4 0 -896359 53013.8 0 -893947 54648.5 0 -891435 56304 0 -888820 57978.9 0 -886098 59671.4 0 -883266 61379.5 0 -880321 63101.1 0 -877259 64833.7 0 -874077 66575 0 -870772 68322 0 -867340 70071.7 0 -863778 71820.8 0 -860083 73566 0 -856253 75303.4 0 -852284 77029.2 0 -848173 78739.3 0 -843919 80429.3 0 -839518 82094.5 0 -834969 83730.4 0 -830270 85332 0 -825418 86894.3 0 -820414 88411.9 0 -815255 89879.6 0 -809941 91292 0 -804471 92643.6 0 -798845 93928.8 0 -793063 95142 0 -787126 96277.6 0 -781034 97330.2 0 -774788 98294.3 0 -768389 99164.4 0 -761839 99935.2 0 -755139 100602 0 -748292 101159 0 -741300 101602 0 -734165 101926 0 -726890 102127 0 -719477 102201 0 -711928 102143 0 -704247 101951 0 -696436 101620 0 -688498 101147 0 -680434 100530 0 -672248 99766.1 0 -663941 98851.7 0 -655514 97785 0 -646970 96563.6 0 -638308 95185.5 0 -629530 93648.5 0 -620635 91950.5 0 -611622 90089.6 0 -602489 88063.5 0 -593235 85870.1 0 -583855 83506.9 0 -574345 80971.2 0 -564700 78259.9 0 -554912 75369.6 0 -544972 72296.3 0 -534870 69035.4 0 -524593 65581.5 0 -514125 61928.2 0 -503448 58068.2 0 -492538 53993 0 -481369 49692.4 0 -469906 45154.9 0 -458111 40366.8 0 -445931 35312.8 0 -433305 29975.2 0 -420153 24334.6 0 -406373 18370.5 0 -391830 12063 0 -376345 5398.13 0 -359674 -1622.24 0 -341479 -8962.3 0 -321275 -16477.6 0 -298428 -23877.2 0 -272012 -30231.8 0 -942251 -0.0123044 0 -942239 707.304 0 -942202 1415.46 0 -942142 2125.31 0 -942057 2837.7 0 -941947 3553.48 0 -941813 4273.48 0 -941654 4998.56 0 -941470 5729.56 0 -941261 6467.33 0 -941025 7212.7 0 -940764 7966.54 0 -940476 8729.67 0 -940161 9502.95 0 -939818 10287.2 0 -939447 11083.3 0 -939048 11892.1 0 -938619 12714.4 0 -938161 13551 0 -937671 14402.8 0 -937150 15270.6 0 -936596 16155.2 0 -936009 17057.5 0 -935388 17978.2 0 -934731 18918.1 0 -934038 19878.1 0 -933307 20858.9 0 -932537 21861.2 0 -931727 22885.8 0 -930875 23933.5 0 -929981 25004.8 0 -929042 26100.5 0 -928056 27221.2 0 -927023 28367.6 0 -925940 29540.2 0 -924806 30739.5 0 -923618 31966 0 -922375 33220.1 0 -921075 34502.3 0 -919715 35812.8 0 -918293 37152 0 -916806 38519.9 0 -915253 39916.6 0 -913630 41342.3 0 -911936 42796.7 0 -910166 44279.8 0 -908319 45791.1 0 -906392 47330.3 0 -904380 48896.9 0 -902283 50490.1 0 -900095 52109.2 0 -897815 53753 0 -895438 55420.6 0 -892962 57110.5 0 -890383 58821.3 0 -887698 60551.3 0 -884903 62298.5 0 -881994 64060.9 0 -878969 65836.1 0 -875824 67621.7 0 -872556 69414.8 0 -869160 71212.6 0 -865635 73011.6 0 -861977 74808.6 0 -858182 76599.9 0 -854248 78381.4 0 -850172 80149.2 0 -845951 81898.9 0 -841583 83625.8 0 -837066 85325.3 0 -832397 86992.5 0 -827575 88622.2 0 -822599 90209.1 0 -817466 91747.9 0 -812177 93233.2 0 -806730 94659.3 0 -801126 96020.6 0 -795363 97311.5 0 -789444 98526.3 0 -783367 99659.4 0 -777134 100705 0 -770747 101658 0 -764206 102513 0 -757513 103265 0 -750671 103908 0 -743681 104438 0 -736547 104849 0 -729270 105139 0 -721853 105301 0 -714298 105333 0 -706610 105230 0 -698789 104990 0 -690840 104609 0 -682764 104083 0 -674563 103411 0 -666240 102590 0 -657797 101617 0 -649235 100490 0 -640555 99208 0 -631758 97768.3 0 -622843 96169.2 0 -613810 94409 0 -604657 92486.1 0 -595383 90398.5 0 -585984 88144.2 0 -576456 85721.3 0 -566793 83127.2 0 -556989 80359.4 0 -547034 77414.6 0 -536920 74289.4 0 -526633 70979.6 0 -516159 67480.4 0 -505479 63786.2 0 -494572 59890.5 0 -483413 55785.8 0 -471968 51463.7 0 -460201 46914.6 0 -448063 42127.9 0 -435497 37092.1 0 -422430 31795.7 0 -408768 26228.2 0 -394393 20382.8 0 -379148 14261.4 0 -362826 7886.08 0 -345151 1314.75 0 -325743 -5299.28 0 -304135 -11675.5 0 -279688 -17078.3 0 -942844 -0.0124298 0 -942832 715.253 0 -942797 1431.37 0 -942738 2149.19 0 -942655 2869.59 0 -942549 3593.4 0 -942418 4321.48 0 -942263 5054.69 0 -942083 5793.89 0 -941879 6539.92 0 -941649 7293.65 0 -941394 8055.92 0 -941113 8827.6 0 -940806 9609.54 0 -940472 10402.6 0 -940110 11207.6 0 -939721 12025.5 0 -939302 12857 0 -938855 13703 0 -938377 14564.4 0 -937868 15442.1 0 -937327 16336.8 0 -936754 17249.3 0 -936147 18180.6 0 -935506 19131.4 0 -934829 20102.5 0 -934114 21094.8 0 -933362 22108.9 0 -932570 23145.7 0 -931737 24205.9 0 -930862 25290.3 0 -929944 26399.5 0 -928980 27534.2 0 -927969 28695 0 -926909 29882.6 0 -925798 31097.5 0 -924635 32340.2 0 -923417 33611.2 0 -922143 34911 0 -920809 36239.8 0 -919415 37598 0 -917957 38985.9 0 -916433 40403.4 0 -914840 41850.8 0 -913176 43327.9 0 -911438 44834.7 0 -909623 46370.9 0 -907728 47936.1 0 -905751 49529.8 0 -903687 51151.4 0 -901535 52800.1 0 -899290 54475 0 -896949 56175.1 0 -894509 57899 0 -891967 59645.3 0 -889319 61412.3 0 -886561 63198.3 0 -883690 65001.2 0 -880703 66818.6 0 -877596 68648.2 0 -874365 70487.2 0 -871008 72332.7 0 -867520 74181.5 0 -863899 76030.2 0 -860141 77875 0 -856243 79712.2 0 -852203 81537.7 0 -848017 83347 0 -843683 85135.6 0 -839199 86898.8 0 -834562 88631.6 0 -829771 90328.9 0 -824823 91985.4 0 -819719 93595.6 0 -814456 95154 0 -809034 96655.1 0 -803452 98093 0 -797710 99462 0 -791809 100757 0 -785749 101971 0 -779531 103099 0 -773156 104136 0 -766626 105075 0 -759941 105912 0 -753105 106642 0 -746119 107259 0 -738986 107759 0 -731708 108138 0 -724289 108390 0 -716730 108512 0 -709034 108500 0 -701205 108351 0 -693246 108061 0 -685157 107627 0 -676944 107048 0 -668606 106320 0 -660147 105441 0 -651569 104409 0 -642871 103223 0 -634055 101880 0 -625122 100380 0 -616070 98719.8 0 -606899 96899.2 0 -597606 94916.4 0 -588189 92769.9 0 -578644 90458.2 0 -568965 87979.4 0 -559147 85331.7 0 -549180 82512.7 0 -539056 79519.8 0 -528763 76350.1 0 -518286 73000.1 0 -507608 69465.7 0 -496708 65742.4 0 -485563 61825.1 0 -474142 57707.9 0 -462409 53384.7 0 -450321 48848.9 0 -437824 44094.3 0 -424850 39115.5 0 -411317 33909.8 0 -397119 28480 0 -382119 22839.5 0 -366143 17022.5 0 -348964 11098.7 0 -330284 5218.61 0 -309753 -361.124 0 -286917 -5053.37 0 -943446 -0.012552 0 -943435 722.947 0 -943400 1446.76 0 -943343 2172.31 0 -943262 2900.45 0 -943158 3632.04 0 -943031 4367.94 0 -942880 5109.03 0 -942705 5856.16 0 -942505 6610.19 0 -942282 7372 0 -942033 8142.45 0 -941760 8922.41 0 -941460 9712.73 0 -941134 10514.3 0 -940782 11328 0 -940402 12154.6 0 -939994 12995.1 0 -939557 13850.3 0 -939091 14721 0 -938595 15608.1 0 -938068 16512.6 0 -937508 17435.1 0 -936916 18376.6 0 -936290 19338 0 -935629 20319.9 0 -934931 21323.3 0 -934197 22348.9 0 -933423 23397.6 0 -932609 24470 0 -931754 25567 0 -930856 26689.3 0 -929914 27837.6 0 -928925 29012.5 0 -927888 30214.7 0 -926801 31444.8 0 -925663 32703.3 0 -924471 33990.8 0 -923222 35307.8 0 -921916 36654.5 0 -920550 38031.4 0 -919120 39438.7 0 -917626 40876.6 0 -916063 42345.3 0 -914431 43844.7 0 -912724 45374.8 0 -910942 46935.3 0 -909081 48526 0 -907137 50146.4 0 -905108 51795.9 0 -902991 53473.9 0 -900782 55179.5 0 -898478 56911.6 0 -896075 58669 0 -893571 60450.4 0 -890960 62254.2 0 -888241 64078.5 0 -885409 65921.5 0 -882460 67780.8 0 -879392 69654.1 0 -876200 71538.7 0 -872882 73431.6 0 -869433 75329.9 0 -865850 77230 0 -862130 79128.3 0 -858270 81021 0 -854266 82904 0 -850116 84773 0 -845818 86623.3 0 -841368 88450.2 0 -836764 90248.8 0 -832005 92013.8 0 -827088 93740 0 -822013 95421.9 0 -816778 97053.8 0 -811381 98630.1 0 -805824 100145 0 -800104 101593 0 -794223 102967 0 -788181 104263 0 -781979 105474 0 -775618 106595 0 -769099 107620 0 -762424 108544 0 -755595 109361 0 -748614 110067 0 -741483 110656 0 -734206 111124 0 -726785 111466 0 -719222 111679 0 -711521 111758 0 -703684 111701 0 -695715 111503 0 -687616 111162 0 -679390 110676 0 -671039 110041 0 -662565 109257 0 -653970 108320 0 -645256 107229 0 -636423 105984 0 -627472 104581 0 -618402 103021 0 -609213 101302 0 -599903 99423.5 0 -590470 97383.6 0 -580909 95181.6 0 -571216 92816.2 0 -561385 90286.3 0 -551408 87590.3 0 -541277 84726.4 0 -530979 81692.8 0 -520502 78487.2 0 -509829 75107 0 -498941 71549.3 0 -487815 67810.9 0 -476422 63888.5 0 -464729 59778.7 0 -452697 55478.3 0 -440274 50985.4 0 -427401 46299.5 0 -414002 41424 0 -399984 36368.6 0 -385230 31154.2 0 -369590 25822.5 0 -352880 20447.9 0 -334862 15172.7 0 -315271 10225.5 0 -293779 6079.05 0 -944056 -0.01267 0 -944045 730.384 0 -944011 1461.65 0 -943955 2194.65 0 -943877 2930.28 0 -943775 3669.39 0 -943651 4412.86 0 -943504 5161.55 0 -943334 5916.35 0 -943140 6678.13 0 -942923 7447.75 0 -942681 8226.1 0 -942414 9014.06 0 -942122 9812.5 0 -941805 10622.3 0 -941462 11444.3 0 -941092 12279.5 0 -940694 13128.6 0 -940269 13992.6 0 -939815 14872.4 0 -939331 15768.7 0 -938817 16682.6 0 -938272 17614.8 0 -937694 18566.3 0 -937083 19537.8 0 -936438 20530.2 0 -935758 21544.4 0 -935041 22581.1 0 -934286 23641.3 0 -933491 24725.6 0 -932656 25834.9 0 -931779 26969.9 0 -930858 28131.4 0 -929892 29320 0 -928878 30536.5 0 -927815 31781.4 0 -926702 33055.3 0 -925535 34358.9 0 -924314 35692.5 0 -923035 37056.7 0 -921697 38451.9 0 -920297 39878.2 0 -918832 41336.1 0 -917300 42825.6 0 -915699 44346.8 0 -914025 45899.7 0 -912276 47484.1 0 -910448 49099.8 0 -908540 50746.5 0 -906546 52423.5 0 -904465 54130.3 0 -902293 55866 0 -900026 57629.7 0 -897661 59420.3 0 -895194 61236.3 0 -892623 63076.4 0 -889942 64938.7 0 -887150 66821.3 0 -884241 68722.2 0 -881213 70638.8 0 -878061 72568.6 0 -874782 74508.8 0 -871373 76456.2 0 -867829 78407.5 0 -864148 80359.2 0 -860327 82307.2 0 -856361 84247.7 0 -852249 86176.2 0 -847987 88088.2 0 -843573 89978.9 0 -839004 91843.3 0 -834278 93676.2 0 -829394 95472.3 0 -824349 97226 0 -819142 98931.8 0 -813773 100584 0 -808241 102176 0 -802545 103703 0 -796686 105158 0 -790663 106536 0 -784479 107831 0 -778132 109037 0 -771626 110148 0 -764962 111159 0 -758141 112064 0 -751166 112859 0 -744039 113537 0 -736763 114096 0 -729341 114529 0 -721776 114833 0 -714070 115005 0 -706226 115039 0 -698249 114935 0 -690140 114687 0 -681902 114294 0 -673537 113754 0 -665049 113064 0 -656439 112222 0 -647709 111228 0 -638860 110079 0 -629892 108774 0 -620806 107314 0 -611600 105696 0 -602274 103920 0 -592825 101985 0 -583250 99891.3 0 -573544 97637.5 0 -563702 95223.2 0 -553717 92647.4 0 -543580 89909.3 0 -533281 87008 0 -522806 83942.1 0 -512141 80710.5 0 -501267 77311.6 0 -490163 73744.2 0 -478802 70006.7 0 -467154 66098.4 0 -455181 62019 0 -442837 57769.6 0 -430068 53354 0 -416807 48779.9 0 -402971 44062 0 -388458 39226.4 0 -373143 34318.4 0 -356871 29413 0 -339455 24641.7 0 -320690 20205.8 0 -300332 16489.2 0 -944674 -0.0127843 0 -944663 737.564 0 -944630 1476.01 0 -944576 2216.22 0 -944499 2959.07 0 -944401 3705.44 0 -944280 4456.21 0 -944137 5212.25 0 -943972 5974.46 0 -943783 6743.7 0 -943571 7520.87 0 -943336 8306.86 0 -943077 9102.54 0 -942793 9908.81 0 -942484 10726.5 0 -942150 11556.7 0 -941790 12400 0 -941403 13257.5 0 -940989 14130.1 0 -940546 15018.5 0 -940075 15923.8 0 -939575 16846.8 0 -939043 17788.4 0 -938481 18749.4 0 -937885 19730.8 0 -937257 20733.4 0 -936593 21758 0 -935894 22805.6 0 -935158 23876.8 0 -934383 24972.7 0 -933568 26093.9 0 -932712 27241.3 0 -931812 28415.6 0 -930869 29617.5 0 -929879 30847.7 0 -928840 32107 0 -927752 33396 0 -926611 34715.2 0 -925417 36065.1 0 -924166 37446.4 0 -922856 38859.3 0 -921485 40304.3 0 -920051 41781.6 0 -918550 43291.5 0 -916981 44834 0 -915340 46409.3 0 -913624 48017.1 0 -911831 49657.4 0 -909958 51329.8 0 -908000 53033.8 0 -905955 54769 0 -903820 56534.4 0 -901591 58329.2 0 -899265 60152.4 0 -896837 62002.7 0 -894305 63878.6 0 -891665 65778.4 0 -888913 67700.3 0 -886045 69642.3 0 -883057 71601.9 0 -879946 73576.7 0 -876708 75563.7 0 -873340 77560 0 -869837 79562.3 0 -866196 81567 0 -862415 83570.2 0 -858489 85568 0 -854415 87555.9 0 -850191 89529.5 0 -845814 91484 0 -841281 93414.3 0 -836590 95315.2 0 -831739 97181.4 0 -826726 99007.3 0 -821550 100787 0 -816209 102515 0 -810704 104185 0 -805033 105792 0 -799197 107328 0 -793195 108789 0 -787029 110168 0 -780699 111459 0 -774207 112657 0 -767554 113756 0 -760743 114750 0 -753775 115634 0 -746653 116404 0 -739380 117053 0 -731958 117578 0 -724391 117975 0 -716681 118239 0 -708832 118367 0 -700847 118355 0 -692728 118202 0 -684480 117903 0 -676103 117457 0 -667602 116862 0 -658977 116115 0 -650232 115217 0 -641367 114165 0 -632383 112958 0 -623281 111596 0 -614059 110078 0 -604718 108405 0 -595254 106574 0 -585666 104587 0 -575949 102443 0 -566097 100142 0 -556105 97684.1 0 -545964 95068.7 0 -535665 92295.8 0 -525195 89365.2 0 -514540 86276.7 0 -503683 83030.3 0 -492603 79626 0 -481278 76064.3 0 -469677 72346.2 0 -457766 68474 0 -445504 64451.4 0 -432842 60285.2 0 -419719 55986.6 0 -406062 51573.7 0 -391785 47075.5 0 -376779 42539 0 -360918 38037.2 0 -344049 33690.2 0 -326013 29674.1 0 -306627 26303.7 0 -945299 -0.0128933 0 -945288 744.482 0 -945257 1489.86 0 -945204 2237.01 0 -945130 2986.83 0 -945034 3740.19 0 -944917 4497.99 0 -944778 5261.12 0 -944617 6030.46 0 -944434 680