<?xml version="1.0"?> 
<VTKFile type="StructuredGrid" version="0.1"> 
<StructuredGrid WholeExtent="0 127 0 127 0 0"> 
<Piece Extent="0 127 0 127 0 0"> 
<PointData>
<DataArray type="Float32" Name="E" format="ascii" NumberOfComponents="3"> 
-9720.1 0.00312318 0 -9724.41 137.335 0 -9737.35 274.454 0 -9758.89 411.143 0 -9789.03 547.189 0 -9827.76 682.377 0 -9875.03 816.496 0 -9930.83 949.333 0 -9995.12 1080.68 0 -10067.9 1210.32 0 -10149 1338.05 0 -10238.5 1463.65 0 -10336.3 1586.93 0 -10442.3 1707.68 0 -10556.5 1825.69 0 -10678.8 1940.77 0 -10809.1 2052.7 0 -10947.3 2161.3 0 -11093.4 2266.37 0 -11247.3 2367.71 0 -11408.8 2465.13 0 -11577.9 2558.44 0 -11754.5 2647.46 0 -11938.4 2731.99 0 -12129.6 2811.86 0 -12327.9 2886.88 0 -12533.2 2956.88 0 -12745.5 3021.69 0 -12964.5 3081.12 0 -13190.2 3135.01 0 -13422.3 3183.19 0 -13660.9 3225.5 0 -13905.7 3261.78 0 -14156.7 3291.85 0 -14413.6 3315.58 0 -14676.4 3332.79 0 -14944.8 3343.34 0 -15218.8 3347.08 0 -15498.2 3343.86 0 -15782.8 3333.53 0 -16072.5 3315.95 0 -16367.2 3290.97 0 -16666.7 3258.46 0 -16970.8 3218.28 0 -17279.4 3170.28 0 -17592.4 3114.33 0 -17909.5 3050.3 0 -18230.7 2978.05 0 -18555.7 2897.44 0 -18884.5 2808.35 0 -19216.9 2710.63 0 -19552.7 2604.15 0 -19891.7 2488.79 0 -20233.9 2364.39 0 -20579 2230.83 0 -20927 2087.97 0 -21277.6 1935.67 0 -21630.7 1773.77 0 -21986.3 1602.15 0 -22344 1420.64 0 -22703.8 1229.1 0 -23065.6 1027.37 0 -23429.2 815.28 0 -23794.5 592.674 0 -24161.2 359.374 0 -24529.4 115.2 0 -24898.8 -140.034 0 -25269.3 -406.525 0 -25640.7 -684.477 0 -26013.1 -974.103 0 -26386.1 -1275.63 0 -26759.7 -1589.29 0 -27133.8 -1915.33 0 -27508.2 -2254.03 0 -27882.8 -2605.64 0 -28257.5 -2970.48 0 -28632.1 -3348.85 0 -29006.5 -3741.08 0 -29380.6 -4147.52 0 -29754.3 -4568.55 0 -30127.4 -5004.57 0 -30499.8 -5456.01 0 -30871.4 -5923.32 0 -31242.1 -6406.99 0 -31611.7 -6907.54 0 -31980.1 -7425.54 0 -32347.2 -7961.6 0 -32712.9 -8516.36 0 -33077 -9090.53 0 -33439.4 -9684.88 0 -33799.9 -10300.2 0 -34158.6 -10937.4 0 -34515.1 -11597.5 0 -34869.4 -12281.5 0 -35221.3 -12990.6 0 -35570.8 -13726.1 0 -35917.7 -14489.3 0 -36261.9 -15281.8 0 -36603.2 -16105.2 0 -36941.5 -16961.5 0 -37276.8 -17852.8 0 -37608.9 -18781.4 0 -37937.8 -19749.9 0 -38263.3 -20761.3 0 -38585.4 -21818.9 0 -38904.1 -22926.6 0 -39219.4 -24088.8 0 -39531.3 -25310.4 0 -39839.9 -26597.4 0 -40145.4 -27956.5 0 -40448.1 -29396 0 -40748.2 -30925.3 0 -41046.4 -32556 0 -41343.2 -34302.2 0 -41639.8 -36181.1 0 -41937.4 -38214.6 0 -42238.2 -40429.5 0 -42544 -42863.5 0 -42860.3 -45559.2 0 -43187.9 -48593.6 0 -43546.5 -52026.9 0 -43915.3 -56078 0 -44401.6 -60738.3 0 -44787.5 -66949.3 0 -45785.5 -73817.2 0 -45460.3 -86995.8 0 -47621.1 -99485.9 0 0 -181464 0 -10125.3 0.0030015 0 -10129.4 124.306 0 -10141.6 248.403 0 -10162.1 372.088 0 -10190.7 495.154 0 -10227.5 617.396 0 -10272.4 738.611 0 -10325.4 858.593 0 -10386.4 977.14 0 -10455.5 1094.05 0 -10532.6 1209.12 0 -10617.5 1322.15 0 -10710.4 1432.95 0 -10811.1 1541.3 0 -10919.5 1647.03 0 -11035.6 1749.93 0 -11159.4 1849.81 0 -11290.6 1946.48 0 -11429.3 2039.76 0 -11575.4 2129.44 0 -11728.8 2215.35 0 -11889.3 2297.31 0 -12056.9 2375.12 0 -12231.5 2448.62 0 -12413 2517.63 0 -12601.3 2581.96 0 -12796.2 2641.46 0 -12997.6 2695.94 0 -13205.5 2745.24 0 -13419.6 2789.2 0 -13640 2827.65 0 -13866.4 2860.42 0 -14098.6 2887.37 0 -14336.7 2908.34 0 -14580.4 2923.16 0 -14829.7 2931.7 0 -15084.2 2933.79 0 -15344.1 2929.29 0 -15609 2918.06 0 -15878.8 2899.95 0 -16153.4 2874.82 0 -16432.7 2842.52 0 -16716.5 2802.92 0 -17004.6 2755.88 0 -17297 2701.26 0 -17593.3 2638.93 0 -17893.6 2568.75 0 -18197.6 2490.59 0 -18505.3 2404.31 0 -18816.3 2309.78 0 -19130.7 2206.86 0 -19448.1 2095.43 0 -19768.6 1975.33 0 -20091.9 1846.45 0 -20417.9 1708.63 0 -20746.4 1561.74 0 -21077.2 1405.64 0 -21410.3 1240.19 0 -21745.5 1065.23 0 -22082.6 880.625 0 -22421.4 686.21 0 -22761.9 481.831 0 -23103.8 267.324 0 -23447.1 42.5211 0 -23791.5 -192.752 0 -24137 -438.677 0 -24483.3 -695.442 0 -24830.3 -963.243 0 -25177.9 -1242.28 0 -25525.9 -1532.78 0 -25874.2 -1834.96 0 -26222.7 -2149.06 0 -26571 -2475.32 0 -26919.2 -2814.01 0 -27267.1 -3165.4 0 -27614.5 -3529.8 0 -27961.2 -3907.51 0 -28307.1 -4298.85 0 -28652 -4704.18 0 -28995.8 -5123.88 0 -29338.3 -5558.34 0 -29679.2 -6007.98 0 -30018.6 -6473.25 0 -30356.1 -6954.64 0 -30691.5 -7452.68 0 -31024.7 -7967.91 0 -31355.5 -8500.93 0 -31683.7 -9052.4 0 -32009 -9623 0 -32331.2 -10213.5 0 -32650.1 -10824.7 0 -32965.5 -11457.5 0 -33276.9 -12112.8 0 -33584.3 -12791.7 0 -33887.2 -13495.4 0 -34185.3 -14225.1 0 -34478.3 -14982.1 0 -34765.9 -15768 0 -35047.5 -16584.5 0 -35322.8 -17433.4 0 -35591.3 -18316.7 0 -35852.5 -19236.9 0 -36105.7 -20196.4 0 -36350.2 -21198.2 0 -36585.4 -22245.6 0 -36810.3 -23342.4 0 -37024 -24492.8 0 -37225.3 -25701.7 0 -37412.8 -26974.9 0 -37585 -28319.1 0 -37739.8 -29742.2 0 -37874.8 -31253.3 0 -37987.1 -32863.7 0 -38072.7 -34586.9 0 -38126.8 -36439.3 0 -38142.5 -38441.4 0 -38110.9 -40619 0 -38019.3 -43004.7 0 -37848.7 -45642.3 0 -37572.4 -48586.8 0 -37143.1 -51921.8 0 -36495.7 -55741.1 0 -35474.9 -60243.6 0 -33891.2 -65548.4 0 -31018.7 -72303.6 0 -26053.2 -80136.9 0 -14449.2 -91550.3 0 0 -92903.8 0 -10491 0.00288523 0 -10494.9 111.936 0 -10506.6 223.671 0 -10526 335.01 0 -10553.1 445.754 0 -10588 555.706 0 -10630.6 664.67 0 -10680.9 772.449 0 -10738.9 878.848 0 -10804.4 983.673 0 -10877.6 1086.73 0 -10958.2 1187.83 0 -11046.3 1286.77 0 -11141.9 1383.37 0 -11244.7 1477.44 0 -11354.9 1568.79 0 -11472.3 1657.23 0 -11596.9 1742.59 0 -11728.5 1824.67 0 -11867.1 1903.3 0 -12012.6 1978.3 0 -12164.9 2049.48 0 -12323.9 2116.68 0 -12489.5 2179.72 0 -12661.7 2238.43 0 -12840.2 2292.65 0 -13025.1 2342.19 0 -13216.1 2386.9 0 -13413.2 2426.61 0 -13616.3 2461.17 0 -13825.2 2490.41 0 -14039.8 2514.18 0 -14260 2532.32 0 -14485.6 2544.68 0 -14716.6 2551.11 0 -14952.7 2551.46 0 -15193.9 2545.59 0 -15440.1 2533.34 0 -15691 2514.57 0 -15946.5 2489.15 0 -16206.5 2456.93 0 -16470.9 2417.78 0 -16739.5 2371.55 0 -17012.1 2318.11 0 -17288.7 2257.33 0 -17569 2189.06 0 -17852.9 2113.18 0 -18140.3 2029.55 0 -18431 1938.04 0 -18724.9 1838.52 0 -19021.7 1730.84 0 -19321.4 1614.88 0 -19623.8 1490.51 0 -19928.8 1357.58 0 -20236.1 1215.95 0 -20545.6 1065.5 0 -20857.3 906.068 0 -21170.8 737.523 0 -21486.2 559.714 0 -21803.1 372.491 0 -22121.5 175.7 0 -22441.2 -30.8163 0 -22762 -247.221 0 -23083.8 -473.683 0 -23406.4 -710.375 0 -23729.6 -957.477 0 -24053.4 -1215.18 0 -24377.5 -1483.67 0 -24701.7 -1763.16 0 -25026 -2053.86 0 -25350.1 -2355.99 0 -25673.8 -2669.79 0 -25997 -2995.5 0 -26319.6 -3333.39 0 -26641.3 -3683.72 0 -26961.9 -4046.78 0 -27281.2 -4422.88 0 -27599.2 -4812.34 0 -27915.5 -5215.51 0 -28230 -5632.76 0 -28542.4 -6064.46 0 -28852.5 -6511.03 0 -29160.2 -6972.92 0 -29465.1 -7450.6 0 -29767 -7944.58 0 -30065.7 -8455.38 0 -30360.9 -8983.61 0 -30652.3 -9529.88 0 -30939.5 -10094.9 0 -31222.3 -10679.3 0 -31500.3 -11284 0 -31773.2 -11909.7 0 -32040.5 -12557.5 0 -32301.7 -13228.3 0 -32556.5 -13923.2 0 -32804.4 -14643.4 0 -33044.6 -15390.2 0 -33276.7 -16165.2 0 -33500 -16969.8 0 -33713.7 -17805.8 0 -33916.9 -18675.2 0 -34108.7 -19580.2 0 -34288 -20523.2 0 -34453.6 -21506.9 0 -34604.1 -22534.4 0 -34737.9 -23609.1 0 -34852.9 -24735.1 0 -34947.1 -25916.7 0 -35017.6 -27159.3 0 -35061.3 -28468.6 0 -35074.3 -29851.8 0 -35051.7 -31316.8 0 -34987.4 -32873.2 0 -34873.7 -34532.4 0 -34700.9 -36307.6 0 -34456 -38215.2 0 -34121.6 -40274.4 0 -33674.2 -42509.1 0 -33080.8 -44947.6 0 -32293.9 -47625 0 -31245.1 -50580 0 -29826.2 -53862.8 0 -27884.3 -57501.3 0 -25142.9 -61548 0 -21295.6 -65823.5 0 -15729.1 -70229.5 0 -8980.19 -73016.4 0 0 -75246.5 0 -10819.4 0.00277393 0 -10823.1 100.2 0 -10834.2 200.207 0 -10852.6 299.833 0 -10878.4 398.887 0 -10911.5 497.179 0 -10951.9 594.522 0 -10999.6 690.725 0 -11054.5 785.601 0 -11116.7 878.963 0 -11186 970.624 0 -11262.5 1060.4 0 -11346.1 1148.1 0 -11436.7 1233.56 0 -11534.2 1316.57 0 -11638.7 1396.97 0 -11750 1474.57 0 -11868.1 1549.2 0 -11992.9 1620.68 0 -12124.2 1688.84 0 -12262.2 1753.49 0 -12406.5 1814.48 0 -12557.2 1871.63 0 -12714.2 1924.77 0 -12877.4 1973.74 0 -13046.6 2018.37 0 -13221.7 2058.5 0 -13402.7 2093.97 0 -13589.5 2124.62 0 -13781.8 2150.3 0 -13979.7 2170.85 0 -14182.9 2186.12 0 -14391.4 2195.95 0 -14605.1 2200.21 0 -14823.7 2198.73 0 -15047.3 2191.38 0 -15275.6 2178.02 0 -15508.5 2158.49 0 -15745.8 2132.66 0 -15987.5 2100.39 0 -16233.4 2061.55 0 -16483.4 2015.99 0 -16737.3 1963.59 0 -16994.9 1904.19 0 -17256.2 1837.69 0 -17521 1763.93 0 -17789 1682.79 0 -18060.3 1594.13 0 -18334.6 1497.83 0 -18611.7 1393.75 0 -18891.6 1281.76 0 -19174 1161.72 0 -19458.9 1033.5 0 -19746 896.972 0 -20035.2 751.992 0 -20326.4 598.423 0 -20619.3 436.125 0 -20913.9 264.956 0 -21209.9 84.7692 0 -21507.2 -104.584 0 -21805.7 -303.255 0 -22105.1 -511.401 0 -22405.4 -729.184 0 -22706.2 -956.768 0 -23007.6 -1194.33 0 -23309.2 -1442.04 0 -23611 -1700.08 0 -23912.7 -1968.66 0 -24214.1 -2247.96 0 -24515.2 -2538.2 0 -24815.6 -2839.59 0 -25115.3 -3152.37 0 -25414 -3476.78 0 -25711.4 -3813.06 0 -26007.5 -4161.48 0 -26302 -4522.33 0 -26594.7 -4895.9 0 -26885.3 -5282.51 0 -27173.7 -5682.48 0 -27459.6 -6096.17 0 -27742.6 -6523.95 0 -28022.7 -6966.23 0 -28299.4 -7423.42 0 -28572.6 -7895.98 0 -28841.8 -8384.39 0 -29106.8 -8889.17 0 -29367.3 -9410.88 0 -29622.8 -9950.11 0 -29873 -10507.5 0 -30117.4 -11083.7 0 -30355.6 -11679.6 0 -30587.2 -12295.8 0 -30811.6 -12933.3 0 -31028.2 -13593 0 -31236.4 -14275.9 0 -31435.5 -14983.1 0 -31624.7 -15716 0 -31803.3 -16475.7 0 -31970.3 -17263.8 0 -32124.6 -18081.8 0 -32265.1 -18931.6 0 -32390.5 -19815.1 0 -32499.3 -20734.4 0 -32589.8 -21692 0 -32659.9 -22690.6 0 -32707.5 -23733.2 0 -32729.8 -24823.1 0 -32723.8 -25964.2 0 -32685.6 -27160.8 0 -32610.9 -28417.7 0 -32494.2 -29740.4 0 -32329 -31135.2 0 -32107.3 -32609.2 0 -31818.9 -34170.5 0 -31451.1 -35828.2 0 -30987.6 -37592.4 0 -30407.5 -39474.6 0 -29683.5 -41486.4 0 -28779.1 -43640.1 0 -27646.2 -45945.5 0 -26219.7 -48408.2 0 -24415.1 -51019 0 -22117.7 -53751.3 0 -19206.1 -56509.2 0 -15522.4 -59168.3 0 -11065.1 -61346.1 0 -5603.12 -62981.6 0 0 -62740.7 0 -11112.5 0.00266723 0 -11116 89.0732 0 -11126.4 177.962 0 -11143.9 266.483 0 -11168.3 354.455 0 -11199.7 441.694 0 -11238 528.02 0 -11283.2 613.25 0 -11335.2 697.204 0 -11394.1 779.702 0 -11459.8 860.564 0 -11532.3 939.612 0 -11611.5 1016.67 0 -11697.3 1091.56 0 -11789.8 1164.1 0 -11888.7 1234.13 0 -11994.2 1301.46 0 -12106 1365.93 0 -12224.2 1427.38 0 -12348.7 1485.62 0 -12479.3 1540.49 0 -12616 1591.82 0 -12758.8 1639.46 0 -12907.4 1683.24 0 -13061.9 1723 0 -13222.1 1758.58 0 -13387.9 1789.82 0 -13559.2 1816.57 0 -13736 1838.68 0 -13918 1855.98 0 -14105.2 1868.34 0 -14297.5 1875.6 0 -14494.8 1877.62 0 -14696.8 1874.25 0 -14903.6 1865.34 0 -15114.9 1850.77 0 -15330.7 1830.38 0 -15550.8 1804.04 0 -15775.1 1771.6 0 -16003.5 1732.95 0 -16235.7 1687.93 0 -16471.7 1636.41 0 -16711.4 1578.27 0 -16954.5 1513.37 0 -17201 1441.57 0 -17450.7 1362.76 0 -17703.4 1276.79 0 -17959 1183.54 0 -18217.4 1082.88 0 -18478.4 974.679 0 -18741.8 858.802 0 -19007.5 735.121 0 -19275.3 603.504 0 -19545.2 463.816 0 -19816.8 315.925 0 -20090.1 159.693 0 -20364.8 -5.01814 0 -20641 -178.349 0 -20918.2 -360.442 0 -21196.5 -551.445 0 -21475.6 -751.507 0 -21755.3 -960.782 0 -22035.5 -1179.43 0 -22316.1 -1407.61 0 -22596.7 -1645.49 0 -22877.3 -1893.24 0 -23157.7 -2151.05 0 -23437.6 -2419.1 0 -23716.9 -2697.59 0 -23995.4 -2986.72 0 -24272.8 -3286.7 0 -24549 -3597.75 0 -24823.8 -3920.11 0 -25096.9 -4254.01 0 -25368.1 -4599.72 0 -25637.2 -4957.5 0 -25903.9 -5327.64 0 -26167.9 -5710.44 0 -26429.1 -6106.21 0 -26687.2 -6515.29 0 -26941.7 -6938.03 0 -27192.5 -7374.82 0 -27439.2 -7826.04 0 -27681.6 -8292.14 0 -27919.1 -8773.55 0 -28151.5 -9270.78 0 -28378.3 -9784.33 0 -28599.1 -10314.8 0 -28813.4 -10862.7 0 -29020.8 -11428.7 0 -29220.7 -12013.5 0 -29412.5 -12617.8 0 -29595.6 -13242.5 0 -29769.3 -13888.3 0 -29932.8 -14556.3 0 -30085.2 -15247.3 0 -30225.8 -15962.6 0 -30353.4 -16703.2 0 -30466.9 -17470.5 0 -30565.1 -18265.9 0 -30646.4 -19090.9 0 -30709.4 -19947.1 0 -30752.2 -20836.5 0 -30772.6 -21761 0 -30768.4 -22722.9 0 -30736.7 -23724.5 0 -30674.3 -24768.6 0 -30577.6 -25858.1 0 -30442 -26996.2 0 -30262.5 -28186.4 0 -30032.7 -29432.6 0 -29745.2 -30739 0 -29391.1 -32109.9 0 -28959.3 -33550 0 -28436.4 -35063.8 0 -27805.7 -36655.8 0 -27046.7 -38329.5 0 -26133.8 -40086.8 0 -25035.4 -41926.5 0 -23712.4 -43842 0 -22118 -45817.1 0 -20197.3 -47822.3 0 -17893.1 -49802.2 0 -15146.9 -51678.3 0 -11936.7 -53310.3 0 -8243.64 -54577.6 0 -4273.31 -55164.5 0 0 -55276.7 0 -11371.9 0.00256474 0 -11375.2 78.533 0 -11385.1 156.888 0 -11401.7 234.891 0 -11424.8 312.365 0 -11454.5 389.134 0 -11490.8 465.025 0 -11533.6 539.863 0 -11582.9 613.473 0 -11638.6 685.682 0 -11700.8 756.318 0 -11769.4 825.208 0 -11844.4 892.183 0 -11925.7 957.072 0 -12013.2 1019.71 0 -12106.8 1079.92 0 -12206.7 1137.54 0 -12312.5 1192.4 0 -12424.4 1244.35 0 -12542.2 1293.22 0 -12665.8 1338.84 0 -12795.1 1381.06 0 -12930.2 1419.72 0 -13070.8 1454.66 0 -13216.9 1485.72 0 -13368.4 1512.76 0 -13525.2 1535.62 0 -13687.3 1554.15 0 -13854.4 1568.2 0 -14026.4 1577.62 0 -14203.4 1582.27 0 -14385.1 1582.01 0 -14571.5 1576.68 0 -14762.4 1566.16 0 -14957.7 1550.29 0 -15157.3 1528.95 0 -15361 1501.99 0 -15568.8 1469.29 0 -15780.4 1430.7 0 -15995.8 1386.09 0 -16214.9 1335.34 0 -16437.4 1278.3 0 -16663.3 1214.86 0 -16892.4 1144.88 0 -17124.6 1068.23 0 -17359.7 984.787 0 -17597.6 894.421 0 -17838 797.005 0 -18081 692.411 0 -18326.3 580.511 0 -18573.8 461.178 0 -18823.3 334.283 0 -19074.6 199.695 0 -19327.7 57.2851 0 -19582.3 -93.0793 0 -19838.2 -251.532 0 -20095.4 -418.207 0 -20353.6 -593.244 0 -20612.7 -776.782 0 -20872.4 -968.963 0 -21132.7 -1169.93 0 -21393.4 -1379.85 0 -21654.2 -1598.85 0 -21914.9 -1827.11 0 -22175.5 -2064.77 0 -22435.7 -2312.03 0 -22695.2 -2569.03 0 -22954 -2835.98 0 -23211.8 -3113.05 0 -23468.3 -3400.43 0 -23723.5 -3698.34 0 -23976.9 -4006.98 0 -24228.5 -4326.57 0 -24477.9 -4657.35 0 -24725 -4999.56 0 -24969.4 -5353.46 0 -25211 -5719.3 0 -25449.3 -6097.38 0 -25684.2 -6488 0 -25915.3 -6891.46 0 -26142.3 -7308.09 0 -26364.8 -7738.26 0 -26582.5 -8182.32 0 -26795.1 -8640.68 0 -27002 -9113.75 0 -27203 -9601.98 0 -27397.4 -10105.8 0 -27584.9 -10625.8 0 -27764.9 -11162.5 0 -27936.8 -11716.4 0 -28100 -12288.2 0 -28253.8 -12878.5 0 -28397.6 -13488 0 -28530.4 -14117.5 0 -28651.6 -14767.8 0 -28760 -15439.7 0 -28854.6 -16134.2 0 -28934.3 -16852.4 0 -28997.8 -17595.1 0 -29043.6 -18363.8 0 -29070.1 -19159.5 0 -29075.5 -19983.7 0 -29057.7 -20837.8 0 -29014.4 -21723.4 0 -28943 -22642.1 0 -28840.3 -23595.8 0 -28702.9 -24586.3 0 -28526.7 -25615.7 0 -28307.1 -26686.1 0 -28038.4 -27799.7 0 -27714.4 -28958.5 0 -27327.3 -30164.8 0 -26868.3 -31420.5 0 -26326.7 -32726.9 0 -25689.9 -34085 0 -24943 -35494.4 0 -24068.4 -36952.9 0 -23045.1 -38455.8 0 -21849.4 -39994.1 0 -20453.9 -41552.8 0 -18829.4 -43108.9 0 -16946.7 -44627.5 0 -14779.5 -46060.7 0 -12314.6 -47340.7 0 -9551.54 -48393.5 0 -6537.79 -49111.7 0 -3296.9 -49465.1 0 0 -49264.3 0 -11599.6 0.00246616 0 -11602.7 68.5565 0 -11612.1 136.942 0 -11627.7 204.988 0 -11649.6 272.526 0 -11677.7 339.387 0 -11712 405.403 0 -11752.5 470.406 0 -11799.2 534.228 0 -11851.9 596.703 0 -11910.8 657.664 0 -11975.7 716.947 0 -12046.6 774.387 0 -12123.4 829.82 0 -12206.2 883.084 0 -12294.8 934.016 0 -12389.2 982.457 0 -12489.3 1028.25 0 -12595 1071.23 0 -12706.4 1111.24 0 -12823.2 1148.13 0 -12945.5 1181.74 0 -13073.1 1211.93 0 -13206 1238.53 0 -13344.1 1261.41 0 -13487.2 1280.4 0 -13635.4 1295.36 0 -13788.4 1306.16 0 -13946.2 1312.63 0 -14108.7 1314.65 0 -14275.8 1312.06 0 -14447.3 1304.74 0 -14623.2 1292.53 0 -14803.3 1275.31 0 -14987.5 1252.94 0 -15175.8 1225.28 0 -15367.8 1192.2 0 -15563.7 1153.57 0 -15763.2 1109.26 0 -15966.1 1059.14 0 -16172.4 1003.08 0 -16381.9 940.951 0 -16594.5 872.631 0 -16810.1 797.992 0 -17028.4 716.908 0 -17249.4 629.255 0 -17472.9 534.907 0 -17698.8 433.741 0 -17926.8 325.63 0 -18157 210.452 0 -18389 88.0808 0 -18622.8 -41.6093 0 -18858.2 -178.745 0 -19095 -323.452 0 -19333.1 -475.861 0 -19572.3 -636.1 0 -19812.4 -804.302 0 -20053.2 -980.6 0 -20294.7 -1165.13 0 -20536.5 -1358.03 0 -20778.6 -1559.44 0 -21020.7 -1769.51 0 -21262.7 -1988.38 0 -21504.4 -2216.21 0 -21745.5 -2453.16 0 -21985.9 -2699.37 0 -22225.3 -2955.03 0 -22463.6 -3220.3 0 -22700.5 -3495.36 0 -22935.8 -3780.4 0 -23169.4 -4075.6 0 -23400.8 -4381.18 0 -23629.9 -4697.33 0 -23856.5 -5024.27 0 -24080.2 -5362.24 0 -24300.9 -5711.46 0 -24518.1 -6072.2 0 -24731.6 -6444.71 0 -24941.1 -6829.27 0 -25146.3 -7226.16 0 -25346.7 -7635.69 0 -25542.1 -8058.18 0 -25732 -8493.98 0 -25915.9 -8943.43 0 -26093.6 -9406.91 0 -26264.5 -9884.83 0 -26428 -10377.6 0 -26583.7 -10885.7 0 -26730.9 -11409.5 0 -26869.1 -11949.7 0 -26997.5 -12506.6 0 -27115.4 -13081 0 -27222 -13673.3 0 -27316.5 -14284.2 0 -27397.9 -14914.5 0 -27465.1 -15564.7 0 -27517 -16235.8 0 -27552.3 -16928.5 0 -27569.7 -17643.6 0 -27567.5 -18382.1 0 -27544 -19145 0 -27497.2 -19933.2 0 -27425.1 -20747.8 0 -27325 -21590 0 -27194.3 -22460.8 0 -27029.7 -23361.4 0 -26827.7 -24293 0 -26584.3 -25256.7 0 -26294.6 -26253.6 0 -25953.3 -27284.5 0 -25554.2 -28350.3 0 -25090.2 -29451.1 0 -24553.1 -30587 0 -23933.5 -31756.9 0 -23220.5 -32958.9 0 -22401.9 -34189.5 0 -21463.8 -35443.1 0 -20391 -36711.4 0 -19166.9 -37982.1 0 -17774.6 -39238.3 0 -16197.8 -40456.7 0 -14423 -41607.1 0 -12442.4 -42650.9 0 -10256.4 -43543.6 0 -7881.32 -44232.3 0 -5341.69 -44673.7 0 -2702.18 -44803.1 0 0 -44640.1 0 -11797.2 0.00237119 0 -11800.2 59.1219 0 -11809 118.08 0 -11823.8 176.711 0 -11844.5 234.853 0 -11871.1 292.345 0 -11903.5 349.024 0 -11941.7 404.729 0 -11985.8 459.298 0 -12035.7 512.572 0 -12091.3 564.391 0 -12152.6 614.595 0 -12219.6 663.026 0 -12292.2 709.527 0 -12370.4 753.94 0 -12454.1 796.111 0 -12543.3 835.885 0 -12637.9 873.107 0 -12737.8 907.626 0 -12842.9 939.29 0 -12953.3 967.949 0 -13068.7 993.454 0 -13189.2 1015.66 0 -13314.7 1034.41 0 -13445 1049.57 0 -13580.1 1061 0 -13719.9 1068.54 0 -13864.2 1072.07 0 -14013.1 1071.44 0 -14166.3 1066.51 0 -14323.9 1057.14 0 -14485.6 1043.21 0 -14651.3 1024.57 0 -14821.1 1001.09 0 -14994.6 972.648 0 -15171.9 939.106 0 -15352.8 900.337 0 -15537.1 856.213 0 -15724.8 806.607 0 -15915.7 751.393 0 -16109.7 690.446 0 -16306.6 623.643 0 -16506.4 550.86 0 -16708.9 471.975 0 -16913.8 386.866 0 -17121.2 295.41 0 -17330.8 197.488 0 -17542.6 92.9775 0 -17756.3 -18.2421 0 -17971.7 -136.292 0 -18188.9 -261.294 0 -18407.5 -393.369 0 -18627.4 -532.641 0 -18848.5 -679.232 0 -19070.7 -833.267 0 -19293.6 -994.872 0 -19517.2 -1164.17 0 -19741.3 -1341.3 0 -19965.7 -1526.38 0 -20190.2 -1719.56 0 -20414.7 -1920.96 0 -20638.9 -2130.72 0 -20862.7 -2348.99 0 -21085.9 -2575.91 0 -21308.2 -2811.63 0 -21529.4 -3056.3 0 -21749.4 -3310.08 0 -21967.9 -3573.14 0 -22184.7 -3845.63 0 -22399.6 -4127.74 0 -22612.2 -4419.65 0 -22822.4 -4721.54 0 -23029.9 -5033.6 0 -23234.5 -5356.04 0 -23435.8 -5689.06 0 -23633.5 -6032.9 0 -23827.3 -6387.76 0 -24017 -6753.9 0 -24202.2 -7131.57 0 -24382.4 -7521.02 0 -24557.4 -7922.53 0 -24726.8 -8336.39 0 -24890.1 -8762.9 0 -25046.8 -9202.38 0 -25196.5 -9655.15 0 -25338.8 -10121.6 0 -25473 -10602 0 -25598.5 -11096.8 0 -25714.8 -11606.5 0 -25821.1 -12131.3 0 -25916.8 -12671.9 0 -26001.1 -13228.6 0 -26073.1 -13802 0 -26131.8 -14392.5 0 -26176.3 -15000.7 0 -26205.5 -15627.3 0 -26218.1 -16272.6 0 -26212.8 -16937.5 0 -26188.2 -17622.5 0 -26142.7 -18328.3 0 -26074.3 -19055.5 0 -25981.3 -19804.9 0 -25861.2 -20577.1 0 -25711.7 -21372.7 0 -25529.9 -22192.4 0 -25312.9 -23036.8 0 -25057 -23906.3 0 -24758.3 -24801.3 0 -24412.4 -25721.9 0 -24014.4 -26668 0 -23558.5 -27639.2 0 -23038.6 -28634.4 0 -22447.5 -29652 0 -21777.5 -30689.5 0 -21019.7 -31743.1 0 -20164.8 -32807.6 0 -19202.7 -33875.8 0 -18122.8 -34938.1 0 -16914.9 -35982 0 -15569.2 -36991.4 0 -14078 -37946.1 0 -12436.7 -38821.9 0 -10645.6 -39590.9 0 -8712.08 -40221.8 0 -6651.02 -40683.8 0 -4489.79 -40944.2 0 -2256.08 -40987.3 0 0 -40780.6 0 -11966.4 0.00227957 0 -11969.2 50.2085 0 -11977.6 100.259 0 -11991.5 149.996 0 -12011.1 199.263 0 -12036.1 247.904 0 -12066.7 295.764 0 -12102.9 342.687 0 -12144.5 388.518 0 -12191.6 433.104 0 -12244.1 476.29 0 -12302 517.924 0 -12365.2 557.853 0 -12433.7 595.926 0 -12507.5 631.991 0 -12586.5 665.899 0 -12670.7 697.501 0 -12759.9 726.648 0 -12854.2 753.195 0 -12953.4 776.994 0 -13057.5 797.902 0 -13166.4 815.775 0 -13280 830.469 0 -13398.3 841.845 0 -13521.1 849.762 0 -13648.5 854.082 0 -13780.2 854.666 0 -13916.2 851.38 0 -14056.5 844.087 0 -14200.8 832.655 0 -14349.2 816.952 0 -14501.4 796.846 0 -14657.4 772.207 0 -14817.1 742.908 0 -14980.4 708.82 0 -15147.1 669.818 0 -15317.2 625.777 0 -15490.4 576.573 0 -15666.8 522.083 0 -15846.1 462.185 0 -16028.2 396.758 0 -16213 325.682 0 -16400.4 248.838 0 -16590.2 166.106 0 -16782.3 77.3685 0 -16976.5 -17.492 0 -17172.7 -118.593 0 -17370.8 -226.053 0 -17570.6 -339.987 0 -17771.9 -460.513 0 -17974.7 -587.749 0 -18178.6 -721.813 0 -18383.7 -862.822 0 -18589.6 -1010.9 0 -18796.3 -1166.15 0 -19003.6 -1328.72 0 -19211.3 -1498.71 0 -19419.2 -1676.25 0 -19627.1 -1861.46 0 -19834.9 -2054.48 0 -20042.4 -2255.43 0 -20249.4 -2464.45 0 -20455.6 -2681.66 0 -20660.9 -2907.21 0 -20865.1 -3141.23 0 -21067.9 -3383.87 0 -21269.1 -3635.28 0 -21468.6 -3895.61 0 -21666 -4165.01 0 -21861.1 -4443.65 0 -22053.7 -4731.7 0 -22243.5 -5029.32 0 -22430.2 -5336.69 0 -22613.6 -5654 0 -22793.3 -5981.44 0 -22969.1 -6319.21 0 -23140.6 -6667.51 0 -23307.4 -7026.55 0 -23469.3 -7396.57 0 -23625.8 -7777.79 0 -23776.6 -8170.45 0 -23921.2 -8574.81 0 -24059.1 -8991.13 0 -24190 -9419.68 0 -24313.3 -9860.75 0 -24428.5 -10314.6 0 -24535 -10781.6 0 -24632.2 -11262.1 0 -24719.5 -11756.3 0 -24796.1 -12264.7 0 -24861.3 -12787.5 0 -24914.2 -13325.2 0 -24954.1 -13878.2 0 -24979.9 -14446.8 0 -24990.5 -15031.4 0 -24985 -15632.5 0 -24961.9 -16250.5 0 -24920.1 -16885.8 0 -24857.9 -17538.9 0 -24773.8 -18210.1 0 -24666 -18899.8 0 -24532.5 -19608.4 0 -24371.1 -20336.2 0 -24179.4 -21083.5 0 -23954.8 -21850.4 0 -23694.4 -22637.1 0 -23394.8 -23443.3 0 -23052.5 -24268.9 0 -22663.4 -25113.2 0 -22223.2 -25975.3 0 -21726.9 -26853.9 0 -21169.3 -27747.1 0 -20544.6 -28652.2 0 -19846.5 -29565.8 0 -19068.5 -30483.3 0 -18203.6 -31398.8 0 -17245 -32304.6 0 -16185.9 -33191.4 0 -15020.4 -34047.7 0 -13743.6 -34859.4 0 -12352.7 -35610.3 0 -10848 -36281.9 0 -9233.32 -36853.9 0 -7517.28 -37305.5 0 -5714.23 -37615.8 0 -3842.73 -37767.6 0 -1929.65 -37743.9 0 0 -37543.2 0 -12108.8 0.00219107 0 -12111.4 41.796 0 -12119.3 83.4403 0 -12132.5 124.783 0 -12150.9 165.674 0 -12174.5 205.963 0 -12203.4 245.502 0 -12237.5 284.14 0 -12276.7 321.728 0 -12321.1 358.12 0 -12370.6 393.165 0 -12425.2 426.719 0 -12484.9 458.633 0 -12549.5 488.762 0 -12619.1 516.96 0 -12693.5 543.085 0 -12772.8 566.992 0 -12856.9 588.538 0 -12945.8 607.583 0 -13039.2 623.986 0 -13137.3 637.606 0 -13239.9 648.307 0 -13346.9 655.951 0 -13458.3 660.401 0 -13574 661.523 0 -13693.9 659.183 0 -13817.9 653.248 0 -13945.9 643.587 0 -14077.8 630.07 0 -14213.6 612.568 0 -14353.1 590.953 0 -14496.2 565.099 0 -14642.8 534.88 0 -14792.9 500.172 0 -14946.2 460.853 0 -15102.8 416.8 0 -15262.4 367.892 0 -15425 314.01 0 -15590.4 255.036 0 -15758.5 190.85 0 -15929.2 121.336 0 -16102.3 46.3785 0 -16277.7 -34.1385 0 -16455.3 -120.33 0 -16635 -212.31 0 -16816.6 -310.191 0 -16999.9 -414.089 0 -17184.8 -524.114 0 -17371.2 -640.381 0 -17558.9 -763.002 0 -17747.7 -892.09 0 -17937.6 -1027.76 0 -18128.2 -1170.12 0 -18319.6 -1319.29 0 -18511.4 -1475.38 0 -18703.6 -1638.51 0 -18895.9 -1808.79 0 -19088.2 -1986.35 0 -19280.3 -2171.29 0 -19472 -2363.74 0 -19663.1 -2563.83 0 -19853.4 -2771.67 0 -20042.7 -2987.4 0 -20230.9 -3211.14 0 -20417.6 -3443.02 0 -20602.7 -3683.17 0 -20785.9 -3931.74 0 -20967 -4188.87 0 -21145.8 -4454.69 0 -21322 -4729.35 0 -21495.4 -5013.02 0 -21665.6 -5305.83 0 -21832.4 -5607.96 0 -21995.5 -5919.58 0 -22154.6 -6240.84 0 -22309.4 -6571.93 0 -22459.5 -6913.03 0 -22604.6 -7264.32 0 -22744.4 -7626.01 0 -22878.3 -7998.3 0 -23006.1 -8381.38 0 -23127.2 -8775.48 0 -23241.3 -9180.82 0 -23347.8 -9597.62 0 -23446.2 -10026.1 0 -23536 -10466.6 0 -23616.5 -10919.2 0 -23687.3 -11384.3 0 -23747.5 -11862.2 0 -23796.5 -12353 0 -23833.4 -12857 0 -23857.6 -13374.6 0 -23868 -13906.1 0 -23863.7 -14451.6 0 -23843.6 -15011.4 0 -23806.7 -15586 0 -23751.7 -16175.4 0 -23677.3 -16779.9 0 -23581.9 -17399.8 0 -23464.1 -18035.2 0 -23322.1 -18686.3 0 -23153.9 -19353.2 0 -22957.6 -20035.8 0 -22730.9 -20734.1 0 -22471.3 -21447.9 0 -22176.1 -22176.8 0 -21842.3 -22920.3 0 -21466.8 -23677.6 0 -21046.1 -24447.5 0 -20576.4 -25228.6 0 -20053.7 -26019 0 -19473.6 -26816.3 0 -18831.6 -27617.3 0 -18122.9 -28418.1 0 -17342.9 -29213.8 0 -16486.6 -29998.5 0 -15549.7 -30764.9 0 -14528.1 -31504.6 0 -13418.9 -32207.5 0 -12220.3 -32862.1 0 -10932.3 -33455.7 0 -9557.23 -33974.2 0 -8100.37 -34403.2 0 -6570.18 -34728.1 0 -4978.37 -34935.6 0 -3340.57 -35013.6 0 -1673.99 -34954.9 0 0 -34752.3 0 -12225.8 0.00210548 0 -12228.3 33.8651 0 -12235.7 67.5843 0 -12248.1 101.014 0 -12265.5 134.009 0 -12287.8 166.426 0 -12315 198.122 0 -12347.1 228.952 0 -12384.1 258.774 0 -12425.9 287.445 0 -12472.5 314.823 0 -12523.9 340.766 0 -12580.1 365.134 0 -12640.9 387.786 0 -12706.5 408.583 0 -12776.6 427.386 0 -12851.2 444.057 0 -12930.4 458.458 0 -13014 470.454 0 -13102 479.91 0 -13194.2 486.691 0 -13290.8 490.664 0 -13391.4 491.697 0 -13496.2 489.658 0 -13605 484.419 0 -13717.7 475.849 0 -13834.2 463.821 0 -13954.5 448.208 0 -14078.4 428.886 0 -14205.9 405.729 0 -14336.9 378.615 0 -14471.3 347.421 0 -14608.9 312.027 0 -14749.7 272.313 0 -14893.5 228.16 0 -15040.2 179.451 0 -15189.8 126.069 0 -15342.1 67.8979 0 -15497 4.82409 0 -15654.3 -63.2663 0 -15813.9 -136.486 0 -15975.8 -214.947 0 -16139.8 -298.761 0 -16305.6 -388.038 0 -16473.3 -482.888 0 -16642.7 -583.421 0 -16813.5 -689.744 0 -16985.8 -801.968 0 -17159.3 -920.2 0 -17333.8 -1044.55 0 -17509.3 -1175.12 0 -17685.5 -1312.02 0 -17862.4 -1455.37 0 -18039.6 -1605.26 0 -18217.2 -1761.82 0 -18394.8 -1925.14 0 -18572.3 -2095.33 0 -18749.6 -2272.52 0 -18926.5 -2456.81 0 -19102.7 -2648.31 0 -19278 -2847.14 0 -19452.4 -3053.41 0 -19625.4 -3267.25 0 -19797.1 -3488.77 0 -19967 -3718.08 0 -20135.1 -3955.33 0 -20301.1 -4200.62 0 -20464.6 -4454.1 0 -20625.6 -4715.88 0 -20783.7 -4986.11 0 -20938.6 -5264.91 0 -21090.1 -5552.44 0 -21237.9 -5848.82 0 -21381.8 -6154.22 0 -21521.2 -6468.78 0 -21656.1 -6792.64 0 -21785.9 -7125.98 0 -21910.4 -7468.95 0 -22029.1 -7821.71 0 -22141.7 -8184.45 0 -22247.7 -8557.32 0 -22346.8 -8940.51 0 -22438.3 -9334.2 0 -22522 -9738.57 0 -22597.1 -10153.8 0 -22663.2 -10580.1 0 -22719.6 -11017.7 0 -22765.7 -11466.7 0 -22800.9 -11927.3 0 -22824.5 -12399.8 0 -22835.6 -12884.2 0 -22833.4 -13380.9 0 -22817 -13890 0 -22785.6 -14411.6 0 -22738 -14945.9 0 -22673.1 -15493 0 -22589.8 -16053.1 0 -22486.7 -16626.2 0 -22362.5 -17212.3 0 -22215.6 -17811.5 0 -22044.4 -18423.6 0 -21847.2 -19048.5 0 -21622.1 -19686 0 -21366.9 -20335.7 0 -21079.4 -20997.1 0 -20757.3 -21669.4 0 -20397.9 -22351.9 0 -19998.5 -23043.4 0 -19556.2 -23742.3 0 -19067.8 -24447 0 -18530 -25155.2 0 -17939.5 -25864.1 0 -17292.9 -26570.4 0 -16586.7 -27270.2 0 -15817.4 -27958.7 0 -14982.2 -28630.3 0 -14078.2 -29278.5 0 -13103.4 -29895.9 0 -12056.7 -30474.2 0 -10938.1 -31004 0 -9749.11 -31475.4 0 -8493.05 -31877.9 0 -7175.28 -32201.2 0 -5803.37 -32434.9 0 -4387.18 -32570.1 0 -2938.48 -32599.2 0 -1471.27 -32516.5 0 0 -32320 0 -12319 0.0020226 0 -12321.3 26.3968 0 -12328.3 52.6536 0 -12340 78.6319 0 -12356.3 104.193 0 -12377.3 129.199 0 -12402.9 153.512 0 -12433.1 176.993 0 -12467.9 199.506 0 -12507.3 220.913 0 -12551.1 241.078 0 -12599.5 259.864 0 -12652.3 277.136 0 -12709.6 292.76 0 -12771.2 306.601 0 -12837.1 318.526 0 -12907.3 328.402 0 -12981.7 336.098 0 -13060.3 341.482 0 -13143 344.424 0 -13229.7 344.795 0 -13320.3 342.468 0 -13414.9 337.314 0 -13513.3 329.208 0 -13615.4 318.024 0 -13721.2 303.639 0 -13830.6 285.929 0 -13943.5 264.772 0 -14059.7 240.049 0 -14179.3 211.638 0 -14302.1 179.422 0 -14428 143.283 0 -14556.9 103.104 0 -14688.8 58.7708 0 -14823.4 10.1683 0 -14960.7 -42.8165 0 -15100.6 -100.296 0 -15243 -162.381 0 -15387.8 -229.181 0 -15534.7 -300.807 0 -15683.8 -377.367 0 -15834.8 -458.967 0 -15987.7 -545.716 0 -16142.3 -637.719 0 -16298.4 -735.081 0 -16456 -837.907 0 -16615 -946.302 0 -16775 -1060.37 0 -16936.1 -1180.21 0 -17098 -1305.94 0 -17260.6 -1437.64 0 -17423.7 -1575.43 0 -17587.3 -1719.4 0 -17751 -1869.67 0 -17914.8 -2026.33 0 -18078.5 -2189.48 0 -18241.8 -2359.24 0 -18404.7 -2535.7 0 -18566.9 -2718.97 0 -18728.2 -2909.15 0 -18888.4 -3106.36 0 -19047.4 -3310.69 0 -19204.9 -3522.25 0 -19360.8 -3741.17 0 -19514.7 -3967.54 0 -19666.5 -4201.47 0 -19815.9 -4443.09 0 -19962.7 -4692.51 0 -20106.6 -4949.84 0 -20247.4 -5215.21 0 -20384.8 -5488.72 0 -20518.5 -5770.52 0 -20648.3 -6060.71 0 -20773.7 -6359.44 0 -20894.5 -6666.82 0 -21010.5 -6982.98 0 -21121.1 -7308.07 0 -21226 -7642.21 0 -21325 -7985.54 0 -21417.5 -8338.21 0 -21503.1 -8700.33 0 -21581.4 -9072.07 0 -21652 -9453.56 0 -21714.2 -9844.93 0 -21767.7 -10246.3 0 -21811.7 -10657.9 0 -21845.8 -11079.8 0 -21869.4 -11512.1 0 -21881.6 -11954.9 0 -21881.9 -12408.5 0 -21869.4 -12872.8 0 -21843.4 -13348 0 -21803 -13834.2 0 -21747.2 -14331.5 0 -21675.1 -14839.7 0 -21585.6 -15359.1 0 -21477.5 -15889.5 0 -21349.6 -16431 0 -21200.6 -16983.2 0 -21029.2 -17546.2 0 -20833.7 -18119.6 0 -20612.6 -18703.1 0 -20364.2 -19296.2 0 -20086.5 -19898.4 0 -19777.7 -20508.9 0 -19435.6 -21126.8 0 -19058 -21751 0 -18642.6 -22380.1 0 -18187.1 -23012.4 0 -17688.7 -23646.1 0 -17145.2 -24278.6 0 -16553.7 -24907.3 0 -15911.9 -25528.8 0 -15217.3 -26139.3 0 -14467.7 -26734.4 0 -13661.3 -27309.1 0 -12796.6 -27857.6 0 -11872.8 -28373.8 0 -10890 -28850.7 0 -9849.27 -29281 0 -8752.74 -29656.9 0 -7604 -29970.7 0 -6408.1 -30214.5 0 -5171.62 -30381.4 0 -3902.62 -30464.8 0 -2610.58 -30459.8 0 -1305.91 -30363 0 0 -30172.5 0 -12389.7 0.00194229 0 -12391.9 19.3731 0 -12398.5 38.6118 0 -12409.5 57.583 0 -12424.8 76.1538 0 -12444.5 94.1914 0 -12468.6 111.563 0 -12497 128.136 0 -12529.7 143.779 0 -12566.6 158.361