<?xml version="1.0"?> 
<VTKFile type="StructuredGrid" version="0.1"> 
<StructuredGrid WholeExtent="0 8 0 8 0 0"> 
<Piece Extent="0 8 0 8 0 0"> 
<CellData>
<DataArray type="Float32" Name="err_h1" format="ascii" NumberOfComponents="1"> 
627.623 514.973 484.124 536.357 638.942 832.615 1112.52 1523.28 746.548 771.972 824.463 904.154 933.006 1060.72 1210.9 1368.82 597.895 603.767 631.305 681.075 610.247 700.895 816.252 955.423 263.112 211.598 220.049 287.334 274.612 396.086 534.126 682.062 188.354 154.622 123.525 97.6023 251.825 217.811 185.168 153.515 268.187 252.817 241.599 234.842 281.904 260.804 242.385 227.203 375.189 364.741 356.86 351.529 357.535 342.054 328.665 317.255 433.585 423.926 416.246 410.506 402.601 388.256 375.546 364.436 
</DataArray> 
</CellData> 
<Points> 
<DataArray type="Float32" NumberOfComponents="3"> 
0.09021 0.0098 0 0.0912962 0.0123258 0 0.0923823 0.0148516 0 0.0934685 0.0173774 0 0.0945546 0.0199032 0 0.0956408 0.022429 0 0.096727 0.0249548 0 0.0978131 0.0274806 0 0.0988993 0.0300064 0 0.103934 0.0098 0 0.104884 0.0123258 0 0.105835 0.0148516 0 0.106785 0.0173774 0 0.107735 0.0199032 0 0.108686 0.022429 0 0.109636 0.0249548 0 0.110586 0.0274806 0 0.111537 0.0300064 0 0.117657 0.0098 0 0.118472 0.0123258 0 0.119287 0.0148516 0 0.120101 0.0173774 0 0.120916 0.0199032 0 0.121731 0.022429 0 0.122545 0.0249548 0 0.12336 0.0274806 0 0.124174 0.0300064 0 0.131381 0.0098 0 0.13206 0.0123258 0 0.132739 0.0148516 0 0.133418 0.0173774 0 0.134097 0.0199032 0 0.134776 0.022429 0 0.135454 0.0249548 0 0.136133 0.0274806 0 0.136812 0.0300064 0 0.145105 0.0098 0 0.145648 0.0123258 0 0.146191 0.0148516 0 0.146734 0.0173774 0 0.147277 0.0199032 0 0.14782 0.022429 0 0.148363 0.0249548 0 0.148907 0.0274806 0 0.14945 0.0300064 0 0.158829 0.0098 0 0.159236 0.0123258 0 0.159643 0.0148516 0 0.160051 0.0173774 0 0.160458 0.0199032 0 0.160865 0.022429 0 0.161273 0.0249548 0 0.16168 0.0274806 0 0.162087 0.0300064 0 0.172553 0.0098 0 0.172824 0.0123258 0 0.173096 0.0148516 0 0.173367 0.0173774 0 0.173639 0.0199032 0 0.17391 0.022429 0 0.174182 0.0249548 0 0.174453 0.0274806 0 0.174725 0.0300064 0 0.186276 0.0098 0 0.186412 0.0123258 0 0.186548 0.0148516 0 0.186684 0.0173774 0 0.186819 0.0199032 0 0.186955 0.022429 0 0.187091 0.0249548 0 0.187227 0.0274806 0 0.187362 0.0300064 0 0.2 0.0098 0 0.2 0.0123258 0 0.2 0.0148516 0 0.2 0.0173774 0 0.2 0.0199032 0 0.2 0.022429 0 0.2 0.0249548 0 0.2 0.0274806 0 0.2 0.0300064 0 
</DataArray>
</Points> 
</Piece> 
</StructuredGrid> 
</VTKFile> 
