<?xml version="1.0"?> 
<VTKFile type="StructuredGrid" version="0.1"> 
<StructuredGrid WholeExtent="0 8 0 8 0 0"> 
<Piece Extent="0 8 0 8 0 0"> 
<CellData>
<DataArray type="Float32" Name="err_h1" format="ascii" NumberOfComponents="1"> 
637.165 683.666 688.736 640.075 588.675 629.892 618.539 563.941 719.699 571.143 591.564 755.709 584.145 492.406 559.943 716.005 709.894 432.19 671.642 1129.27 783.837 396.377 459.23 813.722 463.359 486.032 1075.41 1710.18 1131.54 501.469 287.974 773.696 585.277 433.135 695.831 1344.26 1759.8 1032.13 890.169 1340.93 1574.5 1254.99 781.759 437.71 1910.07 988.382 479.962 966.608 2584.67 2219.43 1750.52 1183.7 2013.42 1192.26 564.566 592.334 3897.5 2702.06 1868.64 1402.98 1812.46 1904.89 2053.42 2083.61 
</DataArray> 
</CellData> 
<Points> 
<DataArray type="Float32" NumberOfComponents="3"> 
-0.05 0.025 0 -0.05 0.0271875 0 -0.05 0.029375 0 -0.05 0.0315625 0 -0.05 0.03375 0 -0.05 0.0359375 0 -0.05 0.038125 0 -0.05 0.0403125 0 -0.05 0.0425 0 -0.0428125 0.02625 0 -0.0433796 0.0281236 0 -0.0438243 0.030069 0 -0.0441413 0.0320738 0 -0.0443271 0.0341246 0 -0.0443798 0.0362072 0 -0.0442996 0.0383071 0 -0.0440884 0.0404095 0 -0.04375 0.0425 0 -0.035625 0.0275 0 -0.0366515 0.029075 0 -0.0374743 0.0307826 0 -0.0380744 0.0326033 0 -0.0384385 0.0345134 0 -0.0385598 0.0364866 0 -0.0384383 0.0384944 0 -0.0380807 0.0405081 0 -0.0375 0.0425 0 -0.0284375 0.02875 0 -0.029813 0.030042 0 -0.0309424 0.0315167 0 -0.031788 0.0331519 0 -0.0323219 0.0349173 0 -0.0325293 0.036776 0 -0.0324091 0.038687 0 -0.0319743 0.0406084 0 -0.03125 0.0425 0 -0.02125 0.03 0 -0.0228613 0.031025 0 -0.0242208 0.0322721 0 -0.0252699 0.0337208 0 -0.0259636 0.0353372 0 -0.0262765 0.0370761 0 -0.0262047 0.0388852 0 -0.0257669 0.0407103 0 -0.025 0.0425 0 -0.0140625 0.03125 0 -0.0157936 0.0320244 0 -0.0173009 0.0330497 0 -0.018507 0.034311 0 -0.0193491 0.035774 0 -0.0197889 0.0373875 0 -0.0198174 0.0390893 0 -0.0194558 0.0408139 0 -0.01875 0.0425 0 -0.006875 0.0325 0 -0.00860695 0.0330406 0 -0.010174 0.0338506 0 -0.0114854 0.0349238 0 -0.0124626 0.0362287 0 -0.0130531 0.0377108 0 -0.013239 0.0392995 0 -0.0130387 0.0409192 0 -0.0125 0.0425 0 0.0003125 0.03375 0 -0.00129837 0.0340741 0 -0.00283063 0.0346759 0 -0.00418986 0.0355605 0 -0.00528683 0.0367025 0 -0.00605449 0.0380467 0 -0.00646076 0.039516 0 -0.00651257 0.0410263 0 -0.00625 0.0425 0 0.0075 0.035 0 0.00613528 0.0351252 0 0.00473929 0.0355266 0 0.00339593 0.0362225 0 0.0021967 0.0371967 0 0.00122253 0.0383959 0 0.000526588 0.0397393 0 0.00012521 0.0411353 0 0 0.0425 0 
</DataArray>
</Points> 
</Piece> 
</StructuredGrid> 
</VTKFile> 
