<?xml version="1.0"?> 
<VTKFile type="StructuredGrid" version="0.1"> 
<StructuredGrid WholeExtent="0 8 0 8 0 0"> 
<Piece Extent="0 8 0 8 0 0"> 
<CellData>
<DataArray type="Float32" Name="err_h1" format="ascii" NumberOfComponents="1"> 
4.85562 5.10482 6.11858 7.53085 9.11759 9.97476 9.55311 7.99683 1.11404 1.6223 2.29934 3.0458 4.00259 5.00355 6.00172 7.03804 0.301577 0.42772 0.580497 0.837272 1.16629 1.59766 2.14003 2.78977 0.0866756 0.133499 0.168711 0.221896 0.303527 0.39923 0.52878 0.712941 0.0202725 0.0287691 0.0418527 0.0540569 0.0658057 0.0841677 0.111475 0.146341 0.00521108 0.0100103 0.00776103 0.0113526 0.0150176 0.0150823 0.0173597 0.0232936 0.00173556 0.00327427 0.00414107 0.00309711 0.00420285 0.0032172 0.00278479 0.00253515 0.00115023 0.00152997 0.00202018 0.00235927 0.00244238 0.00171061 0.00112422 0.000720824 
</DataArray> 
</CellData> 
<Points> 
<DataArray type="Float32" NumberOfComponents="3"> 
0.03742 0.02 0 0.03493 0.021875 0 0.03244 0.02375 0 0.02995 0.025625 0 0.02746 0.0275 0 0.02497 0.029375 0 0.02248 0.03125 0 0.01999 0.033125 0 0.0175 0.035 0 0.0428375 0.02 0 0.0406588 0.021875 0 0.03848 0.02375 0 0.0363013 0.025625 0 0.0341225 0.0275 0 0.0319437 0.029375 0 0.029765 0.03125 0 0.0275862 0.033125 0 0.0254075 0.035 0 0.048255 0.02 0 0.0463875 0.021875 0 0.04452 0.02375 0 0.0426525 0.025625 0 0.040785 0.0275 0 0.0389175 0.029375 0 0.03705 0.03125 0 0.0351825 0.033125 0 0.033315 0.035 0 0.0536725 0.02 0 0.0521162 0.021875 0 0.05056 0.02375 0 0.0490037 0.025625 0 0.0474475 0.0275 0 0.0458912 0.029375 0 0.044335 0.03125 0 0.0427788 0.033125 0 0.0412225 0.035 0 0.05909 0.02 0 0.057845 0.021875 0 0.0566 0.02375 0 0.055355 0.025625 0 0.05411 0.0275 0 0.052865 0.029375 0 0.05162 0.03125 0 0.050375 0.033125 0 0.04913 0.035 0 0.0645075 0.02 0 0.0635737 0.021875 0 0.06264 0.02375 0 0.0617062 0.025625 0 0.0607725 0.0275 0 0.0598387 0.029375 0 0.058905 0.03125 0 0.0579712 0.033125 0 0.0570375 0.035 0 0.069925 0.02 0 0.0693025 0.021875 0 0.06868 0.02375 0 0.0680575 0.025625 0 0.067435 0.0275 0 0.0668125 0.029375 0 0.06619 0.03125 0 0.0655675 0.033125 0 0.064945 0.035 0 0.0753425 0.02 0 0.0750313 0.021875 0 0.07472 0.02375 0 0.0744087 0.025625 0 0.0740975 0.0275 0 0.0737862 0.029375 0 0.073475 0.03125 0 0.0731637 0.033125 0 0.0728525 0.035 0 0.08076 0.02 0 0.08076 0.021875 0 0.08076 0.02375 0 0.08076 0.025625 0 0.08076 0.0275 0 0.08076 0.029375 0 0.08076 0.03125 0 0.08076 0.033125 0 0.08076 0.035 0 
</DataArray>
</Points> 
</Piece> 
</StructuredGrid> 
</VTKFile> 
