<?xml version="1.0"?> 
<VTKFile type="StructuredGrid" version="0.1"> 
<StructuredGrid WholeExtent="0 8 0 8 0 0"> 
<Piece Extent="0 8 0 8 0 0"> 
<CellData>
<DataArray type="Float32" Name="err_h1" format="ascii" NumberOfComponents="1"> 
145.454 147.87 150.598 153.656 160.453 168.722 177.426 186.633 140.125 142.556 145.172 147.992 161.076 168.882 176.987 185.407 132.635 134.932 137.148 139.298 163.565 170.067 176.719 183.624 128.198 130.11 131.71 132.971 170.541 174.792 178.758 182.575 113.26 115.284 117.5 119.967 158.467 163.39 167.774 169.956 110.052 111.071 110.83 109.413 130.322 130.965 133.574 144.471 135.725 137.536 137.768 135.722 148.105 143.022 133.679 142.219 190.647 197.384 209.383 228.94 267.049 324.68 419.697 583.595 
</DataArray> 
</CellData> 
<Points> 
<DataArray type="Float32" NumberOfComponents="3"> 
-0.05 0 0 -0.05 0.0015625 0 -0.05 0.003125 0 -0.05 0.0046875 0 -0.05 0.00625 0 -0.05 0.0078125 0 -0.05 0.009375 0 -0.05 0.0109375 0 -0.05 0.0125 0 -0.0428125 0 0 -0.0428125 0.0015625 0 -0.0428125 0.003125 0 -0.0428125 0.0046875 0 -0.0428125 0.00625 0 -0.0428125 0.0078125 0 -0.0428125 0.009375 0 -0.0428125 0.0109375 0 -0.0428125 0.0125 0 -0.035625 0 0 -0.035625 0.0015625 0 -0.035625 0.003125 0 -0.035625 0.0046875 0 -0.035625 0.00625 0 -0.035625 0.0078125 0 -0.035625 0.009375 0 -0.035625 0.0109375 0 -0.035625 0.0125 0 -0.0284375 0 0 -0.0284375 0.0015625 0 -0.0284375 0.003125 0 -0.0284375 0.0046875 0 -0.0284375 0.00625 0 -0.0284375 0.0078125 0 -0.0284375 0.009375 0 -0.0284375 0.0109375 0 -0.0284375 0.0125 0 -0.02125 0 0 -0.02125 0.0015625 0 -0.02125 0.003125 0 -0.02125 0.0046875 0 -0.02125 0.00625 0 -0.02125 0.0078125 0 -0.02125 0.009375 0 -0.02125 0.0109375 0 -0.02125 0.0125 0 -0.0140625 0 0 -0.0140625 0.0015625 0 -0.0140625 0.003125 0 -0.0140625 0.0046875 0 -0.0140625 0.00625 0 -0.0140625 0.0078125 0 -0.0140625 0.009375 0 -0.0140625 0.0109375 0 -0.0140625 0.0125 0 -0.006875 0 0 -0.006875 0.0015625 0 -0.006875 0.003125 0 -0.006875 0.0046875 0 -0.006875 0.00625 0 -0.006875 0.0078125 0 -0.006875 0.009375 0 -0.006875 0.0109375 0 -0.006875 0.0125 0 0.0003125 0 0 0.0003125 0.0015625 0 0.0003125 0.003125 0 0.0003125 0.0046875 0 0.0003125 0.00625 0 0.0003125 0.0078125 0 0.0003125 0.009375 0 0.0003125 0.0109375 0 0.0003125 0.0125 0 0.0075 0 0 0.0075 0.0015625 0 0.0075 0.003125 0 0.0075 0.0046875 0 0.0075 0.00625 0 0.0075 0.0078125 0 0.0075 0.009375 0 0.0075 0.0109375 0 0.0075 0.0125 0 
</DataArray>
</Points> 
</Piece> 
</StructuredGrid> 
</VTKFile> 
