<?xml version="1.0"?> 
<VTKFile type="StructuredGrid" version="0.1"> 
<StructuredGrid WholeExtent="0 8 0 8 0 0"> 
<Piece Extent="0 8 0 8 0 0"> 
<CellData>
<DataArray type="Float32" Name="err_h1" format="ascii" NumberOfComponents="1"> 
158.918 170.613 182.693 195.014 196.226 202.042 208.027 214.233 218.456 228.027 237.494 247.305 206.337 211.98 217.85 223.903 288.662 294.06 301.272 309.101 210.35 215.004 219.908 225.138 343.827 351.525 356.196 360.688 203.633 205.264 207.361 210.641 279.333 306.179 347.165 394.247 399.191 385.526 372.968 357.356 190.632 225.918 277.4 334.331 420.239 400.515 388.08 399.08 298.157 334.451 386.826 449.929 382.821 316.432 255 210.912 1009 568.86 687.027 854.675 774.206 651.021 586.035 956.975 
</DataArray> 
</CellData> 
<Points> 
<DataArray type="Float32" NumberOfComponents="3"> 
-0.05 0.0125 0 -0.05 0.0132813 0 -0.05 0.0140625 0 -0.05 0.0148437 0 -0.05 0.015625 0 -0.05 0.0164063 0 -0.05 0.0171875 0 -0.05 0.0179688 0 -0.05 0.01875 0 -0.0428125 0.0125 0 -0.0428125 0.0133789 0 -0.0428125 0.0142578 0 -0.0428125 0.0151367 0 -0.0428125 0.0160156 0 -0.0428125 0.0168945 0 -0.0428125 0.0177734 0 -0.0428125 0.0186523 0 -0.0428125 0.0195312 0 -0.035625 0.0125 0 -0.035625 0.0134766 0 -0.035625 0.0144531 0 -0.035625 0.0154297 0 -0.035625 0.0164062 0 -0.035625 0.0173828 0 -0.035625 0.0183594 0 -0.035625 0.0193359 0 -0.035625 0.0203125 0 -0.0284375 0.0125 0 -0.0284375 0.0135742 0 -0.0284375 0.0146484 0 -0.0284375 0.0157227 0 -0.0284375 0.0167969 0 -0.0284375 0.0178711 0 -0.0284375 0.0189453 0 -0.0284375 0.0200195 0 -0.0284375 0.0210938 0 -0.02125 0.0125 0 -0.02125 0.0136719 0 -0.02125 0.0148438 0 -0.02125 0.0160156 0 -0.02125 0.0171875 0 -0.02125 0.0183594 0 -0.02125 0.0195312 0 -0.02125 0.0207031 0 -0.02125 0.021875 0 -0.0140625 0.0125 0 -0.0140625 0.0137695 0 -0.0140625 0.0150391 0 -0.0140625 0.0163086 0 -0.0140625 0.0175781 0 -0.0140625 0.0188477 0 -0.0140625 0.0201172 0 -0.0140625 0.0213867 0 -0.0140625 0.0226562 0 -0.006875 0.0125 0 -0.006875 0.0138672 0 -0.006875 0.0152344 0 -0.006875 0.0166016 0 -0.006875 0.0179688 0 -0.006875 0.0193359 0 -0.006875 0.0207031 0 -0.006875 0.0220703 0 -0.006875 0.0234375 0 0.0003125 0.0125 0 0.0003125 0.0139648 0 0.0003125 0.0154297 0 0.0003125 0.0168945 0 0.0003125 0.0183594 0 0.0003125 0.0198242 0 0.0003125 0.0212891 0 0.0003125 0.0227539 0 0.0003125 0.0242188 0 0.0075 0.0125 0 0.0075 0.0140625 0 0.0075 0.015625 0 0.0075 0.0171875 0 0.0075 0.01875 0 0.0075 0.0203125 0 0.0075 0.021875 0 0.0075 0.0234375 0 0.0075 0.025 0 
</DataArray>
</Points> 
</Piece> 
</StructuredGrid> 
</VTKFile> 
