<?xml version="1.0"?> 
<VTKFile type="StructuredGrid" version="0.1"> 
<StructuredGrid WholeExtent="0 8 0 8 0 0"> 
<Piece Extent="0 8 0 8 0 0"> 
<CellData>
<DataArray type="Float32" Name="err_h1" format="ascii" NumberOfComponents="1"> 
227.266 240.555 254.136 267.979 286.35 303.384 320.715 338.341 272.062 283.845 295.816 308.117 344.235 358.864 374.046 389.776 335.631 344.333 354.217 364.958 427.746 440.679 454.439 469.059 382.937 392.518 401.589 410.944 501.063 512.649 525.353 539.215 443.422 464.935 490.1 517.916 613.04 647.074 683.301 721.718 327.467 368.355 416.749 472.074 553.341 625.285 704.18 788.997 319.778 374.571 445.822 528.142 604.735 724.127 871.67 1058.71 597.496 497.713 489.093 563.704 702.115 929.004 1249.48 1696.46 
</DataArray> 
</CellData> 
<Points> 
<DataArray type="Float32" NumberOfComponents="3"> 
-0.05 0.01875 0 -0.05 0.0195312 0 -0.05 0.0203125 0 -0.05 0.0210938 0 -0.05 0.021875 0 -0.05 0.0226562 0 -0.05 0.0234375 0 -0.05 0.0242188 0 -0.05 0.025 0 -0.0428125 0.0195312 0 -0.0428125 0.0203711 0 -0.0428125 0.0212109 0 -0.0428125 0.0220508 0 -0.0428125 0.0228906 0 -0.0428125 0.0237305 0 -0.0428125 0.0245703 0 -0.0428125 0.0254102 0 -0.0428125 0.02625 0 -0.035625 0.0203125 0 -0.035625 0.0212109 0 -0.035625 0.0221094 0 -0.035625 0.0230078 0 -0.035625 0.0239063 0 -0.035625 0.0248047 0 -0.035625 0.0257031 0 -0.035625 0.0266016 0 -0.035625 0.0275 0 -0.0284375 0.0210938 0 -0.0284375 0.0220508 0 -0.0284375 0.0230078 0 -0.0284375 0.0239648 0 -0.0284375 0.0249219 0 -0.0284375 0.0258789 0 -0.0284375 0.0268359 0 -0.0284375 0.027793 0 -0.0284375 0.02875 0 -0.02125 0.021875 0 -0.02125 0.0228906 0 -0.02125 0.0239062 0 -0.02125 0.0249219 0 -0.02125 0.0259375 0 -0.02125 0.0269531 0 -0.02125 0.0279688 0 -0.02125 0.0289844 0 -0.02125 0.03 0 -0.0140625 0.0226562 0 -0.0140625 0.0237305 0 -0.0140625 0.0248047 0 -0.0140625 0.0258789 0 -0.0140625 0.0269531 0 -0.0140625 0.0280273 0 -0.0140625 0.0291016 0 -0.0140625 0.0301758 0 -0.0140625 0.03125 0 -0.006875 0.0234375 0 -0.006875 0.0245703 0 -0.006875 0.0257031 0 -0.006875 0.0268359 0 -0.006875 0.0279688 0 -0.006875 0.0291016 0 -0.006875 0.0302344 0 -0.006875 0.0313672 0 -0.006875 0.0325 0 0.0003125 0.0242188 0 0.0003125 0.0254102 0 0.0003125 0.0266016 0 0.0003125 0.027793 0 0.0003125 0.0289844 0 0.0003125 0.0301758 0 0.0003125 0.0313672 0 0.0003125 0.0325586 0 0.0003125 0.03375 0 0.0075 0.025 0 0.0075 0.02625 0 0.0075 0.0275 0 0.0075 0.02875 0 0.0075 0.03 0 0.0075 0.03125 0 0.0075 0.0325 0 0.0075 0.03375 0 0.0075 0.035 0 
</DataArray>
</Points> 
</Piece> 
</StructuredGrid> 
</VTKFile> 
