<?xml version="1.0"?> 
<VTKFile type="StructuredGrid" version="0.1"> 
<StructuredGrid WholeExtent="0 8 0 8 0 0"> 
<Piece Extent="0 8 0 8 0 0"> 
<CellData>
<DataArray type="Float32" Name="err_h1" format="ascii" NumberOfComponents="1"> 
4901.45 4923.08 5055.49 5627.28 2413.87 980.941 918.783 2067.11 1678.96 2293.42 2585.54 3435.63 2384.12 922.888 646.189 1669.72 935.764 836.502 803.83 1894.35 2280.25 870.505 573.896 1455.91 1206.73 1289.71 1263.53 1878.73 2278.77 1066.89 904.15 1533.29 1148.34 916.574 916.644 1439.24 1212.23 1190.59 1313.69 1470.26 1143.29 703.456 337.269 962.333 603.325 551.879 753.884 918.8 1576.14 1112.91 781.406 1119.96 439.164 282.401 547.433 720.913 2888.34 2053.49 1678.42 1791.79 876.579 705.968 775.442 870.046 
</DataArray> 
</CellData> 
<Points> 
<DataArray type="Float32" NumberOfComponents="3"> 
0.0075 0.05 0 0.0003125 0.0625 0 -0.006875 0.075 0 -0.0140625 0.0875 0 -0.02125 0.1 0 -0.0284375 0.1125 0 -0.035625 0.125 0 -0.0428125 0.1375 0 -0.05 0.15 0 0.017255 0.05 0 0.0109659 0.0625 0 0.00467687 0.075 0 -0.00161219 0.0875 0 -0.00790125 0.1 0 -0.0141903 0.1125 0 -0.0204794 0.125 0 -0.0267684 0.1375 0 -0.0330575 0.15 0 0.02701 0.05 0 0.0216194 0.0625 0 0.0162287 0.075 0 0.0108381 0.0875 0 0.0054475 0.1 0 5.6875e-05 0.1125 0 -0.00533375 0.125 0 -0.0107244 0.1375 0 -0.016115 0.15 0 0.036765 0.05 0 0.0322728 0.0625 0 0.0277806 0.075 0 0.0232884 0.0875 0 0.0187963 0.1 0 0.0143041 0.1125 0 0.00981188 0.125 0 0.00531969 0.1375 0 0.0008275 0.15 0 0.04652 0.05 0 0.0429263 0.0625 0 0.0393325 0.075 0 0.0357388 0.0875 0 0.032145 0.1 0 0.0285513 0.1125 0 0.0249575 0.125 0 0.0213638 0.1375 0 0.01777 0.15 0 0.056275 0.05 0 0.0535797 0.0625 0 0.0508844 0.075 0 0.0481891 0.0875 0 0.0454937 0.1 0 0.0427984 0.1125 0 0.0401031 0.125 0 0.0374078 0.1375 0 0.0347125 0.15 0 0.06603 0.05 0 0.0642331 0.0625 0 0.0624363 0.075 0 0.0606394 0.0875 0 0.0588425 0.1 0 0.0570456 0.1125 0 0.0552488 0.125 0 0.0534519 0.1375 0 0.051655 0.15 0 0.075785 0.05 0 0.0748866 0.0625 0 0.0739881 0.075 0 0.0730897 0.0875 0 0.0721913 0.1 0 0.0712928 0.1125 0 0.0703944 0.125 0 0.0694959 0.1375 0 0.0685975 0.15 0 0.08554 0.05 0 0.08554 0.0625 0 0.08554 0.075 0 0.08554 0.0875 0 0.08554 0.1 0 0.08554 0.1125 0 0.08554 0.125 0 0.08554 0.1375 0 0.08554 0.15 0 
</DataArray>
</Points> 
</Piece> 
</StructuredGrid> 
</VTKFile> 
