<?xml version="1.0"?> 
<VTKFile type="StructuredGrid" version="0.1"> 
<StructuredGrid WholeExtent="0 15 0 15 0 0"> 
<Piece Extent="0 15 0 15 0 0"> 
<PointData>
<DataArray type="Float32" Name="E" format="ascii" NumberOfComponents="3"> 
2.59286e+06 -264578 0 2.61454e+06 -266790 0 2.63055e+06 -268423 0 2.64097e+06 -269486 0 2.64576e+06 -269975 0 2.64474e+06 -269872 0 2.63757e+06 -269140 0 2.62369e+06 -267723 0 2.60232e+06 -265543 0 2.57245e+06 -262495 0 2.53281e+06 -258450 0 2.4819e+06 -253256 0 2.41801e+06 -246736 0 2.33926e+06 -238700 0 2.24375e+06 -228954 0 2.12961e+06 -217308 0 3.24936e+06 -264951 0 3.23557e+06 -282477 0 3.2243e+06 -301015 0 3.21558e+06 -320488 0 3.20949e+06 -340821 0 3.20613e+06 -361941 0 3.20567e+06 -383770 0 3.20836e+06 -406203 0 3.21449e+06 -429077 0 3.22444e+06 -452135 0 3.23861e+06 -474995 0 3.25749e+06 -497138 0 3.28154e+06 -517893 0 3.31122e+06 -536443 0 3.34693e+06 -551827 0 3.38896e+06 -563005 0 3.75674e+06 -186212 0 3.74589e+06 -203539 0 3.73754e+06 -220219 0 3.73197e+06 -236304 0 3.72944e+06 -251803 0 3.73017e+06 -266670 0 3.73434e+06 -280809 0 3.7421e+06 -294087 0 3.7535e+06 -306366 0 3.76855e+06 -317530 0 3.78718e+06 -327527 0 3.80922e+06 -336399 0 3.83447e+06 -344331 0 3.86265e+06 -351700 0 3.89344e+06 -359146 0 3.92653e+06 -367588 0 4.02745e+06 -85893.2 0 4.02321e+06 -94653.3 0 4.02017e+06 -103968 0 4.0187e+06 -113374 0 4.01908e+06 -122485 0 4.02156e+06 -130960 0 4.02631e+06 -138490 0 4.03341e+06 -144788 0 4.04289e+06 -149569 0 4.05465e+06 -152532 0 4.06854e+06 -153338 0 4.08428e+06 -151588 0 4.10148e+06 -146777 0 4.11964e+06 -138235 0 4.13813e+06 -125047 0 4.15617e+06 -105914 0 4.08159e+06 13374.7 0 4.08739e+06 6780.21 0 4.09278e+06 951.194 0 4.09798e+06 -4106.11 0 4.10323e+06 -8330.13 0 4.1087e+06 -11581.4 0 4.11454e+06 -13682.2 0 4.12081e+06 -14441.9 0 4.12746e+06 -13677.3 0 4.13436e+06 -11235.3 0 4.14131e+06 -7020.02 0 4.14801e+06 -1036.5 0 4.15416e+06 6549.87 0 4.15942e+06 15327.3 0 4.16351e+06 24507.8 0 4.16622e+06 32855.7 0 3.99742e+06 71349.6 0 4.01163e+06 71146.3 0 4.02418e+06 70677.8 0 4.03522e+06 70342.6 0 4.04485e+06 70379.3 0 4.05315e+06 70997.5 0 4.06014e+06 72395.5 0 4.06581e+06 74759.5 0 4.0701e+06 78246.1 0 4.07294e+06 82962.2 0 4.07419e+06 88966.9 0 4.07362e+06 96297.5 0 4.071e+06 105022 0 4.06601e+06 115319 0 4.0583e+06 127575 0 4.04744e+06 142649 0 3.83959e+06 107127 0 3.85889e+06 108649 0 3.87601e+06 110478 0 3.8908e+06 112691 0 3.90323e+06 115384 0 3.91326e+06 118658 0 3.92089e+06 122561 0 3.92607e+06 127101 0 3.92871e+06 132281 0 3.92868e+06 138131 0 3.92584e+06 144699 0 3.92009e+06 152003 0 3.91133e+06 159954 0 3.89955e+06 168284 0 3.88477e+06 176442 0 3.86716e+06 183563 0 3.6571e+06 114962 0 3.67726e+06 119750 0 3.69534e+06 124518 0 3.71115e+06 129264 0 3.72447e+06 133907 0 3.73507e+06 138482 0 3.74272e+06 143151 0 3.74729e+06 148120 0 3.74869e+06 153536 0 3.7469e+06 159400 0 3.74192e+06 165569 0 3.73375e+06 171819 0 3.72239e+06 177958 0 3.70786e+06 183916 0 3.69019e+06 189808 0 3.66943e+06 196109 0 3.48292e+06 110115 0 3.50125e+06 114340 0 3.51768e+06 118619 0 3.53188e+06 123326 0 3.54364e+06 128630 0 3.5528e+06 134443 0 3.55926e+06 140458 0 3.56289e+06 146295 0 3.56352e+06 151674 0 3.56103e+06 156524 0 3.55529e+06 160967 0 3.54634e+06 165208 0 3.53429e+06 169373 0 3.51936e+06 173388 0 3.50186e+06 176909 0 3.48215e+06 179386 0 3.33713e+06 83904.8 0 3.35018e+06 92155.1 0 3.36246e+06 99665.4 0 3.37357e+06 105996 0 3.38306e+06 111032 0 3.39046e+06 115078 0 3.39541e+06 118696 0 3.39768e+06 122443 0 3.3972e+06 126633 0 3.39405e+06 131198 0 3.38833e+06 135728 0 3.3802e+06 139631 0 3.36978e+06 142366 0 3.35719e+06 143630 0 3.34259e+06 143438 0 3.32617e+06 142182 0 3.241e+06 50963.4 0 3.24797e+06 53296.7 0 3.25411e+06 57210.1 0 3.25927e+06 62948.1 0 3.26338e+06 70107.8 0 3.2664e+06 77805.2 0 3.26827e+06 84953.5 0 3.26881e+06 90602.6 0 3.26782e+06 94213.1 0 3.26506e+06 95772.5 0 3.26039e+06 95727.3 0 3.2538e+06 94763 0 3.24543e+06 93526.6 0 3.23559e+06 92384.7 0 3.22466e+06 91285 0 3.21308e+06 89818.9 0 3.19371e+06 21747.3 0 3.19397e+06 29066.2 0 3.19506e+06 33001 0 3.19649e+06 33869.2 0 3.19774e+06 32603 0 3.19832e+06 30509.8 0 3.1979e+06 28892.6 0 3.19635e+06 28694.3 0 3.19371e+06 30257.8 0 3.19016e+06 33257.9 0 3.18592e+06 36816.9 0 3.18121e+06 39757.6 0 3.17617e+06 40916.9 0 3.17092e+06 39431.6 0 3.16552e+06 34920.3 0 3.16006e+06 27575.9 0 3.22628e+06 -41553.6 0 3.21997e+06 -39905.3 0 3.21346e+06 -33762.8 0 3.20714e+06 -24699.4 0 3.20134e+06 -14692.1 0 3.1963e+06 -5733.95 0 3.19212e+06 501.303 0 3.18874e+06 2928.13 0 3.186e+06 1193.27 0 3.18371e+06 -4330.4 0 3.1817e+06 -12687.5 0 3.17992e+06 -22584.8 0 3.17845e+06 -32677.4 0 3.1775e+06 -41837 0 3.17738e+06 -49358.3 0 3.17844e+06 -55010.5 0 3.29302e+06 66449.9 0 3.28883e+06 40183.4 0 3.28582e+06 14088.8 0 3.28369e+06 -10474.7 0 3.28214e+06 -32113.3 0 3.28094e+06 -49666.7 0 3.27998e+06 -62407.8 0 3.27929e+06 -70166.2 0 3.27901e+06 -73362 0 3.27932e+06 -72950.5 0 3.28047e+06 -70292 0 3.28266e+06 -66974.8 0 3.28606e+06 -64616.8 0 3.29081e+06 -64680.1 0 3.29699e+06 -68328.2 0 3.30469e+06 -76294.6 0 3.50681e+06 483820 0 3.5236e+06 419882 0 3.53273e+06 363103 0 3.53593e+06 312287 0 3.53501e+06 266225 0 3.53174e+06 223832 0 3.52781e+06 184191 0 3.52476e+06 146574 0 3.52394e+06 110423 0 3.5265e+06 75329.4 0 3.53335e+06 40999.5 0 3.54519e+06 7217.26 0 3.56247e+06 -26181.7 0 3.58537e+06 -59327.6 0 3.61384e+06 -92324.9 0 3.64755e+06 -125195 0 1.94074e+06 3.48391e+06 0 2.33784e+06 3.49427e+06 0 2.74103e+06 3.43836e+06 0 3.14322e+06 3.31939e+06 0 3.53657e+06 3.13987e+06 0 3.91275e+06 2.90264e+06 0 4.26324e+06 2.61148e+06 0 4.57969e+06 2.27136e+06 0 4.85427e+06 1.88864e+06 0 5.07995e+06 1.47099e+06 0 5.25078e+06 1.02727e+06 0 5.36207e+06 567327 0 5.41051e+06 101786 0 5.39427e+06 -358214 0 5.313e+06 -801270 0 5.16782e+06 -1.21596e+06 0 </DataArray> 
</PointData> 
<Points> 
<DataArray type="Float32" NumberOfComponents="3"> 
0.307 0.005 0 0.307033 0.00532667 0 0.307067 0.00565333 0 0.3071 0.00598 0 0.307133 0.00630667 0 0.307167 0.00663333 0 0.3072 0.00696 0 0.307233 0.00728667 0 0.307267 0.00761333 0 0.3073 0.00794 0 0.307333 0.00826667 0 0.307367 0.00859333 0 0.3074 0.00892 0 0.307433 0.00924667 0 0.307467 0.00957333 0 0.3075 0.0099 0 0.312716 0.00536037 0 0.312597 0.00566717 0 0.312497 0.00597717 0 0.312418 0.00629014 0 0.31236 0.00660588 0 0.312322 0.00692417 0 0.312304 0.00724477 0 0.312307 0.00756747 0 0.31233 0.00789203 0 0.312375 0.00821822 0 0.312439 0.0085458 0 0.312524 0.00887453 0 0.31263 0.00920417 0 0.312755 0.00953448 0 0.312901 0.00986522 0 0.313067 0.0101962 0 0.318432 0.00572074 0 0.318178 0.00600882 0 0.317962 0.00630303 0 0.317783 0.00660297 0 0.317642 0.00690828 0 0.317539 0.00721852 0 0.317475 0.00753327 0 0.317449 0.00785209 0 0.317463 0.00817452 0 0.317516 0.00850009 0 0.317607 0.00882831 0 0.317737 0.00915872 0 0.317905 0.00949081 0 0.318111 0.00982409 0 0.318354 0.0101581 0 0.318633 0.0104923 0 0.324148 0.00608111 0 0.323779 0.00635163 0 0.323461 0.00663093 0 0.323194 0.00691854 0 0.32298 0.00721391 0 0.32282 0.00751646 0 0.322714 0.00782558 0 0.322662 0.00814061 0 0.322666 0.00846087 0 0.322724 0.00878567 0 0.322838 0.00911427 0 0.323005 0.00944594 0 0.323226 0.00977995 0 0.3235 0.0101155 0 0.323825 0.0104519 0 0.3242 0.0107885 0 0.329863 0.00644148 0 0.329399 0.00669558 0 0.328995 0.00696091 0 0.328653 0.00723688 0 0.328376 0.00752284 0 0.328166 0.00781806 0 0.328022 0.00812177 0 0.327947 0.0084331 0 0.32794 0.00875117 0 0.328002 0.00907504 0 0.328132 0.00940374 0 0.32833 0.00973626 0 0.328594 0.0100716 0 0.328923 0.0104088 0 0.329314 0.0107468 0 0.329767 0.0110846 0 0.335579 0.00680186 0 0.335038 0.00704071 0 0.334563 0.00729297 0 0.33416 0.00755801 0 0.333831 0.0078351 0 0.333577 0.00812338 0 0.333401 0.00842191 0 0.333305 0.00872965 0 0.333288 0.0090455 0 0.333351 0.00936828 0 0.333493 0.00969677 0 0.333713 0.0100297 0 0.334009 0.0103659 0 0.33438 0.0107039 0 0.334823 0.0110426 0 0.335333 0.0113808 0 0.341295 0.00716223 0 0.340695 0.007387 0 0.340167 0.00762714 0 0.339716 0.00788199 0 0.339344 0.00815076 0 0.339056 0.00843249 0 0.338853 0.00872609 0 0.338738 0.00903034 0 0.33871 0.00934393 0 0.338771 0.00966546 0 0.338919 0.00999345 0 0.339154 0.0103264 0 0.339472 0.0106627 0 0.339872 0.0110009 0 0.340349 0.0113395 0 0.3409 0.0116769 0 0.347011 0.0075226 0 0.346372 0.00773446 0 0.345807 0.00796343 0 0.345321 0.00820885 0 0.344918 0.00846988 0 0.344603 0.00874546 0 0.344379 0.00903438 0 0.344247 0.00933526 0 0.344209 0.00964657 0 0.344265 0.00996666 0 0.344414 0.0102938 0 0.344655 0.0106263 0 0.344984 0.0109622 0 0.345399 0.0112998 0 0.345895 0.0116373 0 0.346467 0.0119731 0 0.352727 0.00788297 0 0.352068 0.0080831 0 0.351483 0.00830187 0 0.350976 0.00853863 0 0.350554 0.0087925 0 0.35022 0.00906237 0 0.34998 0.00934688 0 0.349834 0.0096445 0 0.349785 0.00995349 0 0.349833 0.010272 0 0.349978 0.010598 0 0.350216 0.0109295 0 0.350545 0.0112644 0 0.350961 0.0116006 0 0.351459 0.0119362 0 0.352033 0.0122692 0 0.358443 0.00824334 0 0.357784 0.00843294 0 0.357195 0.00864248 0 0.356682 0.00887136 0 0.356251 0.00911869 0 0.355908 0.00938328 0 0.355657 0.00966367 0 0.355501 0.00995815 0 0.355441 0.0102648 0 0.355478 0.0105815 0 0.355612 0.010906 0 0.355838 0.011236 0 0.356156 0.0115692 0 0.356559 0.0119033 0 0.357042 0.0122361 0 0.3576 0.0125654 0 0.364159 0.00860371 0 0.363519 0.00878396 0 0.362943 0.00898527 0 0.362439 0.00920709 0 0.362012 0.00944851 0 0.361669 0.00970828 0 0.361414 0.00998484 0 0.36125 0.0102763 0 0.361179 0.0105806 0 0.361202 0.0108953 0 0.361317 0.0112179 0 0.361524 0.011546 0 0.361817 0.0118768 0 0.362193 0.012208 0 0.362645 0.012537 0 0.363167 0.0128616 0 0.369874 0.00896408 0 0.369274 0.00913618 0 0.368729 0.00933028 0 0.368248 0.00954586 0 0.367838 0.00978202 0 0.367503 0.0100375 0 0.36725 0.0103105 0 0.367081 0.0105991 0 0.366999 0.0109009 0 0.367004 0.0112134 0 0.367096 0.0115338 0 0.367272 0.0118594 0 0.367529 0.0121872 0 0.367863 0.0125146 0 0.368266 0.0128389 0 0.368733 0.0131577 0 0.37559 0.00932445 0 0.375048 0.00948961 0 0.374552 0.00967751 0 0.37411 0.00988771 0 0.373729 0.0101193 0 0.373413 0.0103709 0 0.373168 0.0106407 0 0.372998 0.0109265 0 0.372904 0.0112259 0 0.372888 0.011536 0 0.37295 0.0118538 0 0.373086 0.0121763 0 0.373294 0.0125005 0 0.373569 0.0128232 0 0.373907 0.0131419 0 0.3743 0.0134539 0 0.381306 0.00968482 0 0.380842 0.00984425 0 0.380413 0.010027 0 0.380026 0.0102327 0 0.379686 0.0104603 0 0.379399 0.0107086 0 0.37917 0.0109755 0 0.379001 0.0112588 0 0.378896 0.0115557 0 0.378855 0.0118632 0 0.378879 0.012178 0 0.378965 0.0124969 0 0.379111 0.0128165 0 0.379313 0.0131339 0 0.379567 0.0134459 0 0.379867 0.01375 0 0.387022 0.0100452 0 0.386656 0.0102001 0 0.386312 0.0103788 0 0.385996 0.0105808 0 0.385711 0.0108053 0 0.385464 0.0110508 0 0.385257 0.0113152 0 0.385094 0.011596 0 0.384977 0.0118904 0 0.384907 0.012195 0 0.384886 0.0125064 0 0.384911 0.0128211 0 0.384981 0.0131355 0 0.385094 0.0134465 0 0.385246 0.0137509 0 0.385433 0.0140462 0 0.392738 0.0104056 0 0.39249 0.0105572 0 0.39225 0.0107328 0 0.392021 0.0109321 0 0.391806 0.0111542 0 0.391608 0.0113974 0 0.391431 0.0116596 0 0.391277 0.0119382 0 0.391148 0.01223 0 0.391046 0.0125315 0 0.390972 0.0128391 0 0.390925 0.0131489 0 0.390906 0.0134574 0 0.390913 0.0137612 0 0.390945 0.014057 0 0.391 0.0143423 0 
</DataArray>
</Points> 
</Piece> 
</StructuredGrid> 
</VTKFile> 
