<?xml version="1.0"?> 
<VTKFile type="StructuredGrid" version="0.1"> 
<StructuredGrid WholeExtent="0 15 0 15 0 0"> 
<Piece Extent="0 15 0 15 0 0"> 
<PointData>
<DataArray type="Float32" Name="E" format="ascii" NumberOfComponents="3"> 
-450310 116231 0 -439472 120816 0 -429084 117830 0 -417710 114892 0 -405642 112244 0 -393230 109862 0 -380664 107707 0 -368083 105711 0 -355561 103856 0 -343146 102109 0 -330862 100458 0 -318723 98889 0 -306737 97392.5 0 -294907 95960 0 -283230 94584.8 0 -271707 93261.1 0 -485053 255443 0 -469691 248773 0 -454786 242354 0 -440312 236391 0 -426203 230781 0 -412403 225451 0 -398873 220353 0 -385587 215453 0 -372523 210730 0 -359667 206170 0 -347006 201760 0 -334532 197490 0 -322237 193354 0 -310113 189343 0 -298156 185452 0 -286361 181672 0 -511639 397183 0 -496278 386516 0 -481154 376474 0 -466277 366746 0 -451643 357355 0 -437246 348311 0 -423081 339607 0 -409142 331232 0 -395424 323166 0 -381921 315391 0 -368626 307887 0 -355535 300637 0 -342640 293624 0 -329937 286831 0 -317419 280246 0 -305082 273854 0 -550902 548005 0 -534145 532645 0 -517709 517877 0 -501574 503809 0 -485734 490357 0 -470181 477456 0 -454905 465056 0 -439896 453116 0 -425146 441604 0 -410645 430490 0 -396385 419750 0 -382360 409361 0 -368562 399301 0 -354985 389551 0 -341622 380093 0 -328469 370910 0 -603697 709532 0 -584819 689199 0 -566364 669783 0 -548313 651142 0 -530642 633241 0 -513333 616040 0 -496371 599497 0 -479742 583570 0 -463434 568218 0 -447438 553406 0 -431741 539096 0 -416336 525258 0 -401213 511862 0 -386364 498882 0 -371780 486292 0 -357455 474071 0 -671408 887620 0 -649788 861219 0 -628672 836009 0 -608042 811921 0 -587886 788860 0 -568187 766740 0 -548929 745491 0 -530095 725049 0 -511672 705358 0 -493644 686368 0 -475997 668034 0 -458720 650314 0 -441801 633169 0 -425228 616566 0 -408991 600472 0 -393081 584858 0 -756687 1.0843e+06 0 -731431 1.05114e+06 0 -706834 1.01946e+06 0 -682867 989187 0 -659499 960200 0 -636708 932410 0 -614472 905736 0 -592772 880099 0 -571591 855426 0 -550912 831653 0 -530720 808721 0 -510997 786575 0 -491732 765166 0 -472909 744449 0 -454516 724382 0 -436539 704929 0 -862060 1.30393e+06 0 -832322 1.26271e+06 0 -803376 1.22349e+06 0 -775201 1.18602e+06 0 -747777 1.15019e+06 0 -721078 1.11588e+06 0 -695080 1.08296e+06 0 -669760 1.05135e+06 0 -645095 1.02095e+06 0 -621066 991686 0 -597653 963474 0 -574837 936251 0 -552600 909955 0 -530925 884528 0 -509796 859920 0 -489198 836085 0 -992564 1.54856e+06 0 -957110 1.49853e+06 0 -922663 1.45069e+06 0 -889180 1.40508e+06 0 -856623 1.36148e+06 0 -824970 1.31973e+06 0 -794193 1.27971e+06 0 -764269 1.24129e+06 0 -735174 1.20435e+06 0 -706885 1.16881e+06 0 -679379 1.13457e+06 0 -652634 1.10155e+06 0 -626629 1.06966e+06 0 -601343 1.03886e+06 0 -576755 1.00906e+06 0 -552847 980210 0 -1.15274e+06 1.82156e+06 0 -1.1103e+06 1.7612e+06 0 -1.06903e+06 1.70401e+06 0 -1.02892e+06 1.64925e+06 0 -989976 1.59691e+06 0 -952147 1.5468e+06 0 -915413 1.49874e+06 0 -879745 1.45261e+06 0 -845118 1.40827e+06 0 -811504 1.36561e+06 0 -778878 1.32451e+06 0 -747215 1.28487e+06 0 -716489 1.24662e+06 0 -686677 1.20967e+06 0 -657754 1.17394e+06 0 -629695 1.13937e+06 0 -1.35357e+06 2.12217e+06 0 -1.30202e+06 2.05189e+06 0 -1.25195e+06 1.98415e+06 0 -1.20328e+06 1.91976e+06 0 -1.15601e+06 1.85806e+06 0 -1.11014e+06 1.79889e+06 0 -1.06563e+06 1.7421e+06 0 -1.02248e+06 1.6875e+06 0 -980661 1.63497e+06 0 -940146 1.58438e+06 0 -900906 1.53561e+06 0 -862912 1.48856e+06 0 -826134 1.44313e+06 0 -790538 1.39924e+06 0 -756094 1.35679e+06 0 -722772 1.31572e+06 0 -1.6057e+06 2.44521e+06 0 -1.54263e+06 2.36535e+06 0 -1.48116e+06 2.28968e+06 0 -1.42144e+06 2.21594e+06 0 -1.36346e+06 2.14512e+06 0 -1.3072e+06 2.07689e+06 0 -1.25267e+06 2.01112e+06 0 -1.19986e+06 1.94771e+06 0 -1.14875e+06 1.88648e+06 0 -1.09931e+06 1.82738e+06 0 -1.05153e+06 1.77027e+06 0 -1.00536e+06 1.71507e+06 0 -960774 1.66169e+06 0 -917733 1.61005e+06 0 -876197 1.56006e+06 0 -836123 1.51167e+06 0 -1.93455e+06 2.78624e+06 0 -1.85683e+06 2.69961e+06 0 -1.78029e+06 2.61449e+06 0 -1.70526e+06 2.53409e+06 0 -1.6322e+06 2.45564e+06 0 -1.56127e+06 2.37951e+06 0 -1.49259e+06 2.30556e+06 0 -1.42619e+06 2.23368e+06 0 -1.36211e+06 2.16393e+06 0 -1.30033e+06 2.09617e+06 0 -1.24082e+06 2.03042e+06 0 -1.18353e+06 1.96661e+06 0 -1.12842e+06 1.90468e+06 0 -1.07543e+06 1.8446e+06 0 -1.02448e+06 1.78631e+06 0 -975527 1.72974e+06 0 -2.38502e+06 3.04626e+06 0 -2.28321e+06 2.98682e+06 0 -2.18382e+06 2.92124e+06 0 -2.08664e+06 2.84738e+06 0 -1.9916e+06 2.77215e+06 0 -1.89929e+06 2.69551e+06 0 -1.80992e+06 2.61859e+06 0 -1.72371e+06 2.54199e+06 0 -1.64076e+06 2.466e+06 0 -1.56111e+06 2.3911e+06 0 -1.48475e+06 2.31744e+06 0 -1.41162e+06 2.24526e+06 0 -1.34165e+06 2.17465e+06 0 -1.27473e+06 2.10571e+06 0 -1.21077e+06 2.03852e+06 0 -1.14963e+06 1.9731e+06 0 -3.00063e+06 3.13097e+06 0 -2.90683e+06 3.1343e+06 0 -2.78336e+06 3.11998e+06 0 -2.65119e+06 3.09166e+06 0 -2.51828e+06 3.04755e+06 0 -2.38769e+06 2.99242e+06 0 -2.26171e+06 2.92867e+06 0 -2.14099e+06 2.85881e+06 0 -2.02599e+06 2.78496e+06 0 -1.91678e+06 2.70847e+06 0 -1.81322e+06 2.63062e+06 0 -1.71514e+06 2.55229e+06 0 -1.62227e+06 2.47416e+06 0 -1.53436e+06 2.39676e+06 0 -1.45113e+06 2.32045e+06 0 -1.3723e+06 2.2455e+06 0 -4.3293e+06 3.6523e+06 0 -3.95761e+06 2.63578e+06 0 -3.80359e+06 2.69442e+06 0 -3.61706e+06 2.93686e+06 0 -3.41253e+06 3.07022e+06 0 -3.20225e+06 3.14584e+06 0 -2.99563e+06 3.1604e+06 0 -2.80047e+06 3.14184e+06 0 -2.61778e+06 3.09773e+06 0 -2.44861e+06 3.03736e+06 0 -2.29214e+06 2.9668e+06 0 -2.14759e+06 2.88901e+06 0 -2.01385e+06 2.8074e+06 0 -1.88993e+06 2.72342e+06 0 -1.77486e+06 2.63861e+06 0 -1.6678e+06 2.5538e+06 0 </DataArray> 
</PointData> 
<Points> 
<DataArray type="Float32" NumberOfComponents="3"> 
0.0125 0.062 0 0.0125 0.0635333 0 0.0125 0.0650667 0 0.0125 0.0666 0 0.0125 0.0681333 0 0.0125 0.0696667 0 0.0125 0.0712 0 0.0125 0.0727333 0 0.0125 0.0742667 0 0.0125 0.0758 0 0.0125 0.0773333 0 0.0125 0.0788667 0 0.0125 0.0804 0 0.0125 0.0819333 0 0.0125 0.0834667 0 0.0125 0.085 0 0.0265 0.0608667 0 0.0263333 0.0623867 0 0.0261667 0.0639067 0 0.026 0.0654267 0 0.0258333 0.0669467 0 0.0256667 0.0684667 0 0.0255 0.0699867 0 0.0253333 0.0715067 0 0.0251667 0.0730267 0 0.025 0.0745467 0 0.0248333 0.0760667 0 0.0246667 0.0775867 0 0.0245 0.0791067 0 0.0243333 0.0806267 0 0.0241667 0.0821467 0 0.024 0.0836667 0 0.0405 0.0597333 0 0.0401667 0.06124 0 0.0398333 0.0627467 0 0.0395 0.0642533 0 0.0391667 0.06576 0 0.0388333 0.0672667 0 0.0385 0.0687733 0 0.0381667 0.07028 0 0.0378333 0.0717867 0 0.0375 0.0732933 0 0.0371667 0.0748 0 0.0368333 0.0763067 0 0.0365 0.0778133 0 0.0361667 0.07932 0 0.0358333 0.0808267 0 0.0355 0.0823333 0 0.0545 0.0586 0 0.054 0.0600933 0 0.0535 0.0615867 0 0.053 0.06308 0 0.0525 0.0645733 0 0.052 0.0660667 0 0.0515 0.06756 0 0.051 0.0690533 0 0.0505 0.0705467 0 0.05 0.07204 0 0.0495 0.0735333 0 0.049 0.0750267 0 0.0485 0.07652 0 0.048 0.0780133 0 0.0475 0.0795067 0 0.047 0.081 0 0.0685 0.0574667 0 0.0678333 0.0589467 0 0.0671667 0.0604267 0 0.0665 0.0619067 0 0.0658333 0.0633867 0 0.0651667 0.0648667 0 0.0645 0.0663467 0 0.0638333 0.0678267 0 0.0631667 0.0693067 0 0.0625 0.0707867 0 0.0618333 0.0722667 0 0.0611667 0.0737467 0 0.0605 0.0752267 0 0.0598333 0.0767067 0 0.0591667 0.0781867 0 0.0585 0.0796667 0 0.0825 0.0563333 0 0.0816667 0.0578 0 0.0808333 0.0592667 0 0.08 0.0607333 0 0.0791667 0.0622 0 0.0783333 0.0636667 0 0.0775 0.0651333 0 0.0766667 0.0666 0 0.0758333 0.0680667 0 0.075 0.0695333 0 0.0741667 0.071 0 0.0733333 0.0724667 0 0.0725 0.0739333 0 0.0716667 0.0754 0 0.0708333 0.0768667 0 0.07 0.0783333 0 0.0965 0.0552 0 0.0955 0.0566533 0 0.0945 0.0581067 0 0.0935 0.05956 0 0.0925 0.0610133 0 0.0915 0.0624667 0 0.0905 0.06392 0 0.0895 0.0653733 0 0.0885 0.0668267 0 0.0875 0.06828 0 0.0865 0.0697333 0 0.0855 0.0711867 0 0.0845 0.07264 0 0.0835 0.0740933 0 0.0825 0.0755467 0 0.0815 0.077 0 0.1105 0.0540667 0 0.109333 0.0555067 0 0.108167 0.0569467 0 0.107 0.0583867 0 0.105833 0.0598267 0 0.104667 0.0612667 0 0.1035 0.0627067 0 0.102333 0.0641467 0 0.101167 0.0655867 0 0.1 0.0670267 0 0.0988333 0.0684667 0 0.0976667 0.0699067 0 0.0965 0.0713467 0 0.0953333 0.0727867 0 0.0941667 0.0742267 0 0.093 0.0756667 0 0.1245 0.0529333 0 0.123167 0.05436 0 0.121833 0.0557867 0 0.1205 0.0572133 0 0.119167 0.05864 0 0.117833 0.0600667 0 0.1165 0.0614933 0 0.115167 0.06292 0 0.113833 0.0643467 0 0.1125 0.0657733 0 0.111167 0.0672 0 0.109833 0.0686267 0 0.1085 0.0700533 0 0.107167 0.07148 0 0.105833 0.0729067 0 0.1045 0.0743333 0 0.1385 0.0518 0 0.137 0.0532133 0 0.1355 0.0546267 0 0.134 0.05604 0 0.1325 0.0574533 0 0.131 0.0588667 0 0.1295 0.06028 0 0.128 0.0616933 0 0.1265 0.0631067 0 0.125 0.06452 0 0.1235 0.0659333 0 0.122 0.0673467 0 0.1205 0.06876 0 0.119 0.0701733 0 0.1175 0.0715867 0 0.116 0.073 0 0.1525 0.0506667 0 0.150833 0.0520667 0 0.149167 0.0534667 0 0.1475 0.0548667 0 0.145833 0.0562667 0 0.144167 0.0576667 0 0.1425 0.0590667 0 0.140833 0.0604667 0 0.139167 0.0618667 0 0.1375 0.0632667 0 0.135833 0.0646667 0 0.134167 0.0660667 0 0.1325 0.0674667 0 0.130833 0.0688667 0 0.129167 0.0702667 0 0.1275 0.0716667 0 0.1665 0.0495333 0 0.164667 0.05092 0 0.162833 0.0523067 0 0.161 0.0536933 0 0.159167 0.05508 0 0.157333 0.0564667 0 0.1555 0.0578533 0 0.153667 0.05924 0 0.151833 0.0606267 0 0.15 0.0620133 0 0.148167 0.0634 0 0.146333 0.0647867 0 0.1445 0.0661733 0 0.142667 0.06756 0 0.140833 0.0689467 0 0.139 0.0703333 0 0.1805 0.0484 0 0.1785 0.0497733 0 0.1765 0.0511467 0 0.1745 0.05252 0 0.1725 0.0538933 0 0.1705 0.0552667 0 0.1685 0.05664 0 0.1665 0.0580133 0 0.1645 0.0593867 0 0.1625 0.06076 0 0.1605 0.0621333 0 0.1585 0.0635067 0 0.1565 0.06488 0 0.1545 0.0662533 0 0.1525 0.0676267 0 0.1505 0.069 0 0.1945 0.0472667 0 0.192333 0.0486267 0 0.190167 0.0499867 0 0.188 0.0513467 0 0.185833 0.0527067 0 0.183667 0.0540667 0 0.1815 0.0554267 0 0.179333 0.0567867 0 0.177167 0.0581467 0 0.175 0.0595067 0 0.172833 0.0608667 0 0.170667 0.0622267 0 0.1685 0.0635867 0 0.166333 0.0649467 0 0.164167 0.0663067 0 0.162 0.0676667 0 0.2085 0.0461333 0 0.206167 0.04748 0 0.203833 0.0488267 0 0.2015 0.0501733 0 0.199167 0.05152 0 0.196833 0.0528667 0 0.1945 0.0542133 0 0.192167 0.05556 0 0.189833 0.0569067 0 0.1875 0.0582533 0 0.185167 0.0596 0 0.182833 0.0609467 0 0.1805 0.0622933 0 0.178167 0.06364 0 0.175833 0.0649867 0 0.1735 0.0663333 0 0.2225 0.045 0 0.22 0.0463333 0 0.2175 0.0476667 0 0.215 0.049 0 0.2125 0.0503333 0 0.21 0.0516667 0 0.2075 0.053 0 0.205 0.0543333 0 0.2025 0.0556667 0 0.2 0.057 0 0.1975 0.0583333 0 0.195 0.0596667 0 0.1925 0.061 0 0.19 0.0623333 0 0.1875 0.0636667 0 0.185 0.065 0 
</DataArray>
</Points> 
</Piece> 
</StructuredGrid> 
</VTKFile> 
