<?xml version="1.0"?> 
<VTKFile type="StructuredGrid" version="0.1"> 
<StructuredGrid WholeExtent="0 8 0 8 0 0"> 
<Piece Extent="0 8 0 8 0 0"> 
<CellData>
<DataArray type="Float32" Name="err_h1" format="ascii" NumberOfComponents="1"> 
744.212 804.894 954.079 1100.79 1196.83 1222.5 1176.19 1070.15 1812.08 1514.12 1272.11 1111.05 1043.55 1059.61 1133.26 1239 2861.64 2341.64 1815.45 1324.28 955.532 862.609 1068.15 1397.24 3795.07 3106.14 2381.1 1655.5 995.795 638.275 915.444 1425.01 4569.09 3760.57 2906.21 2033.34 1184.48 482.69 642.929 1271.73 5089.09 4187.86 3280.49 2378.92 1499.54 682.847 355.988 958.997 5230.44 4235.29 3355.64 2559.13 1844.31 1242.4 863.356 883.657 5251.5 3554.35 2444.99 1932.33 1983.94 2248.89 2440.97 2461.49 
</DataArray> 
</CellData> 
<Points> 
<DataArray type="Float32" NumberOfComponents="3"> 
-0.05 0.025 0 -0.05 0.0271875 0 -0.05 0.029375 0 -0.05 0.0315625 0 -0.05 0.03375 0 -0.05 0.0359375 0 -0.05 0.038125 0 -0.05 0.0403125 0 -0.05 0.0425 0 -0.0428125 0.02625 0 -0.0433796 0.0281236 0 -0.0438243 0.030069 0 -0.0441413 0.0320738 0 -0.0443271 0.0341246 0 -0.0443798 0.0362072 0 -0.0442996 0.0383071 0 -0.0440884 0.0404095 0 -0.04375 0.0425 0 -0.035625 0.0275 0 -0.0366515 0.029075 0 -0.0374743 0.0307826 0 -0.0380744 0.0326033 0 -0.0384385 0.0345134 0 -0.0385598 0.0364866 0 -0.0384383 0.0384944 0 -0.0380807 0.0405081 0 -0.0375 0.0425 0 -0.0284375 0.02875 0 -0.029813 0.030042 0 -0.0309424 0.0315167 0 -0.031788 0.0331519 0 -0.0323219 0.0349173 0 -0.0325293 0.036776 0 -0.0324091 0.038687 0 -0.0319743 0.0406084 0 -0.03125 0.0425 0 -0.02125 0.03 0 -0.0228613 0.031025 0 -0.0242208 0.0322721 0 -0.0252699 0.0337208 0 -0.0259636 0.0353372 0 -0.0262765 0.0370761 0 -0.0262047 0.0388852 0 -0.0257669 0.0407103 0 -0.025 0.0425 0 -0.0140625 0.03125 0 -0.0157936 0.0320244 0 -0.0173009 0.0330497 0 -0.018507 0.034311 0 -0.0193491 0.035774 0 -0.0197889 0.0373875 0 -0.0198174 0.0390893 0 -0.0194558 0.0408139 0 -0.01875 0.0425 0 -0.006875 0.0325 0 -0.00860695 0.0330406 0 -0.010174 0.0338506 0 -0.0114854 0.0349238 0 -0.0124626 0.0362287 0 -0.0130531 0.0377108 0 -0.013239 0.0392995 0 -0.0130387 0.0409192 0 -0.0125 0.0425 0 0.0003125 0.03375 0 -0.00129837 0.0340741 0 -0.00283063 0.0346759 0 -0.00418986 0.0355605 0 -0.00528683 0.0367025 0 -0.00605449 0.0380467 0 -0.00646076 0.039516 0 -0.00651257 0.0410263 0 -0.00625 0.0425 0 0.0075 0.035 0 0.00613528 0.0351252 0 0.00473929 0.0355266 0 0.00339593 0.0362225 0 0.0021967 0.0371967 0 0.00122253 0.0383959 0 0.000526588 0.0397393 0 0.00012521 0.0411353 0 0 0.0425 0 
</DataArray>
</Points> 
</Piece> 
</StructuredGrid> 
</VTKFile> 
