<?xml version="1.0"?> 
<VTKFile type="StructuredGrid" version="0.1"> 
<StructuredGrid WholeExtent="0 8 0 8 0 0"> 
<Piece Extent="0 8 0 8 0 0"> 
<CellData>
<DataArray type="Float32" Name="err_h1" format="ascii" NumberOfComponents="1"> 
2971.32 4394.78 5750.32 6878.42 7722.89 8310.65 8711.31 9005.18 2783.05 3913.55 4985.49 5856.11 6464.42 6820.05 6971.46 6980.42 2649.23 3489.87 4272.9 4872.16 5233.25 5361.47 5293.34 5077.48 2535.91 3110.18 3613.22 3940.16 4051.32 3957.61 3697.13 3308.81 2414.64 2773.41 3027.8 3101.7 2980.13 2684.5 2261.84 1768.01 2282.44 2516.51 2599.78 2492.17 2220.98 1834.73 1395.35 1017.49 2287.73 2559.2 2657.67 2573.07 2387.71 2216.13 2140.87 2180.43 3285.67 3922.22 4471.23 4845.15 4997.38 4930.91 4686.7 4323.25 
</DataArray> 
</CellData> 
<Points> 
<DataArray type="Float32" NumberOfComponents="3"> 
-0.05 0.0425 0 -0.05 0.0559375 0 -0.05 0.069375 0 -0.05 0.0828125 0 -0.05 0.09625 0 -0.05 0.109687 0 -0.05 0.123125 0 -0.05 0.136563 0 -0.05 0.15 0 -0.04375 0.0425 0 -0.0440884 0.0545137 0 -0.0442996 0.0666544 0 -0.0443798 0.0788397 0 -0.0443271 0.0909846 0 -0.0441413 0.103004 0 -0.0438243 0.114816 0 -0.0433796 0.126339 0 -0.0428125 0.1375 0 -0.0375 0.0425 0 -0.0380807 0.0530667 0 -0.0384383 0.0638571 0 -0.0385598 0.0747256 0 -0.0384385 0.0855192 0 -0.0380744 0.0960837 0 -0.0374743 0.106272 0 -0.0366515 0.115949 0 -0.035625 0.125 0 -0.03125 0.0425 0 -0.0319743 0.051596 0 -0.0324091 0.0609796 0 -0.0325293 0.0704627 0 -0.0323219 0.079842 0 -0.031788 0.0889126 0 -0.0309424 0.0974831 0 -0.029813 0.105388 0 -0.0284375 0.1125 0 -0.025 0.0425 0 -0.0257669 0.0501009 0 -0.0262047 0.0580185 0 -0.0262765 0.0660427 0 -0.0259636 0.0739405 0 -0.0252699 0.0814772 0 -0.0242208 0.0884391 0 -0.0228613 0.0946531 0 -0.02125 0.1 0 -0.01875 0.0425 0 -0.0194558 0.0485809 0 -0.0198174 0.0549701 0 -0.0197889 0.0614567 0 -0.0193491 0.0678012 0 -0.018507 0.0737627 0 -0.0173009 0.0791285 0 -0.0157936 0.0837387 0 -0.0140625 0.0875 0 -0.0125 0.0425 0 -0.0130387 0.0470353 0 -0.013239 0.0518305 0 -0.0130531 0.0566953 0 -0.0124626 0.0614094 0 -0.0114854 0.0657529 0 -0.010174 0.0695393 0 -0.00860695 0.0726407 0 -0.006875 0.075 0 -0.00625 0.0425 0 -0.00651257 0.0454634 0 -0.00646076 0.0485955 0 -0.00605449 0.0517481 0 -0.00528683 0.0547492 0 -0.00418986 0.0574308 0 -0.00283063 0.0596587 0 -0.00129837 0.0613543 0 0.0003125 0.0625 0 0 0.0425 0 0.00012521 0.0438647 0 0.000526588 0.0452607 0 0.00122253 0.0466041 0 0.0021967 0.0478033 0 0.00339593 0.0487775 0 0.00473929 0.0494734 0 0.00613528 0.0498748 0 0.0075 0.05 0 
</DataArray>
</Points> 
</Piece> 
</StructuredGrid> 
</VTKFile> 
