<?xml version="1.0"?> 
<VTKFile type="StructuredGrid" version="0.1"> 
<StructuredGrid WholeExtent="0 8 0 8 0 0"> 
<Piece Extent="0 8 0 8 0 0"> 
<CellData>
<DataArray type="Float32" Name="err_h1" format="ascii" NumberOfComponents="1"> 
29.6889 30.0139 30.6718 31.6787 33.0593 34.848 37.0911 39.8478 23.7297 24.0279 24.6374 25.583 26.8998 28.6328 30.8386 33.6359 14.8347 14.9897 15.3319 15.9272 16.8702 18.2567 20.1158 22.2177 8.01187 7.81447 7.4413 6.9642 6.59805 6.95156 9.29238 15.8116 7.57737 7.45414 7.21264 6.92489 6.88788 7.87215 11.2513 20.2218 8.55118 10.1998 13.1589 17.1156 21.6815 25.9073 27.8745 28.2113 23.9234 27.1349 33.2049 42.0782 54.7125 74.3752 109.851 180.683 76.174 81.9951 94.7974 117.297 154.642 216.223 318.614 492.642 
</DataArray> 
</CellData> 
<Points> 
<DataArray type="Float32" NumberOfComponents="3"> 
-0.05 0 0 -0.05 0.0015625 0 -0.05 0.003125 0 -0.05 0.0046875 0 -0.05 0.00625 0 -0.05 0.0078125 0 -0.05 0.009375 0 -0.05 0.0109375 0 -0.05 0.0125 0 -0.0428125 0 0 -0.0428125 0.0015625 0 -0.0428125 0.003125 0 -0.0428125 0.0046875 0 -0.0428125 0.00625 0 -0.0428125 0.0078125 0 -0.0428125 0.009375 0 -0.0428125 0.0109375 0 -0.0428125 0.0125 0 -0.035625 0 0 -0.035625 0.0015625 0 -0.035625 0.003125 0 -0.035625 0.0046875 0 -0.035625 0.00625 0 -0.035625 0.0078125 0 -0.035625 0.009375 0 -0.035625 0.0109375 0 -0.035625 0.0125 0 -0.0284375 0 0 -0.0284375 0.0015625 0 -0.0284375 0.003125 0 -0.0284375 0.0046875 0 -0.0284375 0.00625 0 -0.0284375 0.0078125 0 -0.0284375 0.009375 0 -0.0284375 0.0109375 0 -0.0284375 0.0125 0 -0.02125 0 0 -0.02125 0.0015625 0 -0.02125 0.003125 0 -0.02125 0.0046875 0 -0.02125 0.00625 0 -0.02125 0.0078125 0 -0.02125 0.009375 0 -0.02125 0.0109375 0 -0.02125 0.0125 0 -0.0140625 0 0 -0.0140625 0.0015625 0 -0.0140625 0.003125 0 -0.0140625 0.0046875 0 -0.0140625 0.00625 0 -0.0140625 0.0078125 0 -0.0140625 0.009375 0 -0.0140625 0.0109375 0 -0.0140625 0.0125 0 -0.006875 0 0 -0.006875 0.0015625 0 -0.006875 0.003125 0 -0.006875 0.0046875 0 -0.006875 0.00625 0 -0.006875 0.0078125 0 -0.006875 0.009375 0 -0.006875 0.0109375 0 -0.006875 0.0125 0 0.0003125 0 0 0.0003125 0.0015625 0 0.0003125 0.003125 0 0.0003125 0.0046875 0 0.0003125 0.00625 0 0.0003125 0.0078125 0 0.0003125 0.009375 0 0.0003125 0.0109375 0 0.0003125 0.0125 0 0.0075 0 0 0.0075 0.0015625 0 0.0075 0.003125 0 0.0075 0.0046875 0 0.0075 0.00625 0 0.0075 0.0078125 0 0.0075 0.009375 0 0.0075 0.0109375 0 0.0075 0.0125 0 
</DataArray>
</Points> 
</Piece> 
</StructuredGrid> 
</VTKFile> 
