<?xml version="1.0"?> 
<VTKFile type="StructuredGrid" version="0.1"> 
<StructuredGrid WholeExtent="0 8 0 8 0 0"> 
<Piece Extent="0 8 0 8 0 0"> 
<CellData>
<DataArray type="Float32" Name="err_h1" format="ascii" NumberOfComponents="1"> 
30.8508 32.1553 33.6907 35.373 37.1969 39.1717 41.3153 43.6668 27.4947 29.6095 31.5376 33.6311 35.9735 38.5959 41.5175 44.8517 22.4604 22.8578 25.2555 28.2543 31.6765 35.4537 39.4824 43.1056 10.7984 14.9849 19.4196 23.8652 28.7962 34.5646 41.8307 53.8745 26.1856 23.0476 28.8998 35.7526 44.3197 54.5518 65.5707 74.8412 74.3216 62.7056 71.6689 84.5424 101.346 120.775 142.077 170.636 181.283 150.297 186.251 226.309 266.849 309.382 359.487 448.736 1349.8 960.431 939.474 966.586 1008.32 1061.8 1133.77 1438.6 
</DataArray> 
</CellData> 
<Points> 
<DataArray type="Float32" NumberOfComponents="3"> 
-0.05 0.0125 0 -0.05 0.0132813 0 -0.05 0.0140625 0 -0.05 0.0148437 0 -0.05 0.015625 0 -0.05 0.0164063 0 -0.05 0.0171875 0 -0.05 0.0179688 0 -0.05 0.01875 0 -0.0428125 0.0125 0 -0.0428125 0.0133789 0 -0.0428125 0.0142578 0 -0.0428125 0.0151367 0 -0.0428125 0.0160156 0 -0.0428125 0.0168945 0 -0.0428125 0.0177734 0 -0.0428125 0.0186523 0 -0.0428125 0.0195312 0 -0.035625 0.0125 0 -0.035625 0.0134766 0 -0.035625 0.0144531 0 -0.035625 0.0154297 0 -0.035625 0.0164062 0 -0.035625 0.0173828 0 -0.035625 0.0183594 0 -0.035625 0.0193359 0 -0.035625 0.0203125 0 -0.0284375 0.0125 0 -0.0284375 0.0135742 0 -0.0284375 0.0146484 0 -0.0284375 0.0157227 0 -0.0284375 0.0167969 0 -0.0284375 0.0178711 0 -0.0284375 0.0189453 0 -0.0284375 0.0200195 0 -0.0284375 0.0210938 0 -0.02125 0.0125 0 -0.02125 0.0136719 0 -0.02125 0.0148438 0 -0.02125 0.0160156 0 -0.02125 0.0171875 0 -0.02125 0.0183594 0 -0.02125 0.0195312 0 -0.02125 0.0207031 0 -0.02125 0.021875 0 -0.0140625 0.0125 0 -0.0140625 0.0137695 0 -0.0140625 0.0150391 0 -0.0140625 0.0163086 0 -0.0140625 0.0175781 0 -0.0140625 0.0188477 0 -0.0140625 0.0201172 0 -0.0140625 0.0213867 0 -0.0140625 0.0226562 0 -0.006875 0.0125 0 -0.006875 0.0138672 0 -0.006875 0.0152344 0 -0.006875 0.0166016 0 -0.006875 0.0179688 0 -0.006875 0.0193359 0 -0.006875 0.0207031 0 -0.006875 0.0220703 0 -0.006875 0.0234375 0 0.0003125 0.0125 0 0.0003125 0.0139648 0 0.0003125 0.0154297 0 0.0003125 0.0168945 0 0.0003125 0.0183594 0 0.0003125 0.0198242 0 0.0003125 0.0212891 0 0.0003125 0.0227539 0 0.0003125 0.0242188 0 0.0075 0.0125 0 0.0075 0.0140625 0 0.0075 0.015625 0 0.0075 0.0171875 0 0.0075 0.01875 0 0.0075 0.0203125 0 0.0075 0.021875 0 0.0075 0.0234375 0 0.0075 0.025 0 
</DataArray>
</Points> 
</Piece> 
</StructuredGrid> 
</VTKFile> 
