<?xml version="1.0"?> 
<VTKFile type="StructuredGrid" version="0.1"> 
<StructuredGrid WholeExtent="0 8 0 8 0 0"> 
<Piece Extent="0 8 0 8 0 0"> 
<CellData>
<DataArray type="Float32" Name="err_h1" format="ascii" NumberOfComponents="1"> 
2398.66 2112.05 1926.64 1816.1 1820.51 1928.11 2091.6 2267.8 2669.59 2209.93 2049.75 2030.54 2137.85 2334.61 2578.47 2847.15 2943.96 2306.39 2171.1 2241.95 2453.4 2751.54 3100.28 3490.36 3205.27 2386.92 2276.12 2436.75 2755.03 3165.8 3637.73 4168.03 3441.89 2441.26 2355.59 2604.86 3032.45 3565.01 4173.39 4855.85 3645.45 2464.99 2405.66 2739.82 3278.11 3939.88 4694.46 5537.64 3810.42 2459.06 2427.16 2837.63 3488.13 4285.12 5193.53 6206.2 3933.84 2428.53 2423.79 2895.58 3663.6 4598.06 5668.56 6861.76 
</DataArray> 
</CellData> 
<Points> 
<DataArray type="Float32" NumberOfComponents="3"> 
0.08554 0.05 0 0.08554 0.0625 0 0.08554 0.075 0 0.08554 0.0875 0 0.08554 0.1 0 0.08554 0.1125 0 0.08554 0.125 0 0.08554 0.1375 0 0.08554 0.15 0 0.0869334 0.0499327 0 0.0885716 0.0626261 0 0.0902028 0.0752659 0 0.0918271 0.0878526 0 0.0934447 0.100386 0 0.0950554 0.112868 0 0.0966595 0.125297 0 0.0982568 0.137674 0 0.0998475 0.15 0 0.0883339 0.0497275 0 0.0916442 0.0625827 0 0.0949304 0.0753441 0 0.0981927 0.0880127 0 0.101431 0.10059 0 0.104647 0.113076 0 0.107839 0.125472 0 0.111008 0.13778 0 0.114155 0.15 0 0.0897209 0.0493824 0 0.0947197 0.0623649 0 0.0996726 0.0752285 0 0.10458 0.0879746 0 0.109444 0.100605 0 0.114263 0.113121 0 0.119039 0.125525 0 0.123772 0.137817 0 0.128463 0.15 0 0.0910736 0.0488993 0 0.0977583 0.0619723 0 0.104377 0.0749172 0 0.110932 0.0877359 0 0.117423 0.10043 0 0.123852 0.113002 0 0.130218 0.125453 0 0.136524 0.137785 0 0.14277 0.15 0 0.0923717 0.0482844 0 0.100721 0.0614086 0 0.108993 0.0744125 0 0.11719 0.0872978 0 0.125312 0.100066 0 0.133361 0.112719 0 0.141338 0.125258 0 0.149243 0.137684 0 0.157078 0.15 0 0.0935965 0.0475477 0 0.103569 0.0606823 0 0.113469 0.0737211 0 0.123297 0.0866652 0 0.133054 0.0995156 0 0.14274 0.112273 0 0.152357 0.124939 0 0.161905 0.137514 0 0.171385 0.15 0 0.0947319 0.0467025 0 0.10627 0.0598056 0 0.11776 0.0728535 0 0.129201 0.0858464 0 0.140594 0.0987849 0 0.151939 0.111669 0 0.163238 0.124499 0 0.174488 0.137276 0 0.185693 0.15 0 0.0957648 0.0457648 0 0.108794 0.0587942 0 0.121824 0.0718236 0 0.134853 0.084853 0 0.147882 0.0978824 0 0.160912 0.110912 0 0.173941 0.123941 0 0.186971 0.136971 0 0.2 0.15 0 
</DataArray>
</Points> 
</Piece> 
</StructuredGrid> 
</VTKFile> 
