<?xml version="1.0"?> 
<VTKFile type="StructuredGrid" version="0.1"> 
<StructuredGrid WholeExtent="0 8 0 8 0 0"> 
<Piece Extent="0 8 0 8 0 0"> 
<CellData>
<DataArray type="Float32" Name="err_h1" format="ascii" NumberOfComponents="1"> 
7866.96 6587.81 5780.8 5646.59 5823.9 6198.05 6738.86 7450.46 4463.08 4619.7 4327.03 4277.38 4462.63 4802.29 5254.14 5829.96 2945.16 3033.12 2968.41 2992.83 3214.46 3548.06 3942.43 4391.56 2200.29 2097.99 1893.21 1891.75 2138.51 2501.89 2873.63 3225.94 1896.43 1613.06 1173.85 995.295 1278.08 1711.39 2099.79 2392.36 1943.24 1526.95 873.908 353.01 718.591 1248.19 1658.34 1915.81 2401.7 1856.91 1156.23 682.846 817.29 1227.89 1580.64 1794.7 3693.02 2626.16 1839.28 1436.86 1414.57 1614.07 1844.76 2004.17 
</DataArray> 
</CellData> 
<Points> 
<DataArray type="Float32" NumberOfComponents="3"> 
0.0075 0.05 0 0.0003125 0.0625 0 -0.006875 0.075 0 -0.0140625 0.0875 0 -0.02125 0.1 0 -0.0284375 0.1125 0 -0.035625 0.125 0 -0.0428125 0.1375 0 -0.05 0.15 0 0.017255 0.05 0 0.0109659 0.0625 0 0.00467687 0.075 0 -0.00161219 0.0875 0 -0.00790125 0.1 0 -0.0141903 0.1125 0 -0.0204794 0.125 0 -0.0267684 0.1375 0 -0.0330575 0.15 0 0.02701 0.05 0 0.0216194 0.0625 0 0.0162287 0.075 0 0.0108381 0.0875 0 0.0054475 0.1 0 5.6875e-05 0.1125 0 -0.00533375 0.125 0 -0.0107244 0.1375 0 -0.016115 0.15 0 0.036765 0.05 0 0.0322728 0.0625 0 0.0277806 0.075 0 0.0232884 0.0875 0 0.0187963 0.1 0 0.0143041 0.1125 0 0.00981188 0.125 0 0.00531969 0.1375 0 0.0008275 0.15 0 0.04652 0.05 0 0.0429263 0.0625 0 0.0393325 0.075 0 0.0357388 0.0875 0 0.032145 0.1 0 0.0285513 0.1125 0 0.0249575 0.125 0 0.0213638 0.1375 0 0.01777 0.15 0 0.056275 0.05 0 0.0535797 0.0625 0 0.0508844 0.075 0 0.0481891 0.0875 0 0.0454937 0.1 0 0.0427984 0.1125 0 0.0401031 0.125 0 0.0374078 0.1375 0 0.0347125 0.15 0 0.06603 0.05 0 0.0642331 0.0625 0 0.0624363 0.075 0 0.0606394 0.0875 0 0.0588425 0.1 0 0.0570456 0.1125 0 0.0552488 0.125 0 0.0534519 0.1375 0 0.051655 0.15 0 0.075785 0.05 0 0.0748866 0.0625 0 0.0739881 0.075 0 0.0730897 0.0875 0 0.0721913 0.1 0 0.0712928 0.1125 0 0.0703944 0.125 0 0.0694959 0.1375 0 0.0685975 0.15 0 0.08554 0.05 0 0.08554 0.0625 0 0.08554 0.075 0 0.08554 0.0875 0 0.08554 0.1 0 0.08554 0.1125 0 0.08554 0.125 0 0.08554 0.1375 0 0.08554 0.15 0 
</DataArray>
</Points> 
</Piece> 
</StructuredGrid> 
</VTKFile> 
