<?xml version="1.0"?> 
<VTKFile type="StructuredGrid" version="0.1"> 
<StructuredGrid WholeExtent="0 8 0 8 0 0"> 
<Piece Extent="0 8 0 8 0 0"> 
<CellData>
<DataArray type="Float32" Name="err_h1" format="ascii" NumberOfComponents="1"> 
50.6885 27.0827 16.7919 11.1713 7.63433 5.22889 3.50896 2.27129 28.3189 24.0306 18.3443 13.6996 10.2603 7.79066 5.99999 4.70089 18.3574 16.1688 14.3174 12.3664 10.4831 8.77508 7.33685 6.17805 11.6993 11.2057 10.4234 9.55363 8.64738 7.77492 6.9568 6.21823 8.04379 7.7117 7.39834 7.0473 6.64011 6.18889 5.72847 5.2954 5.12489 5.2563 5.26799 5.1842 5.02557 4.80231 4.53263 4.22877 3.01773 3.27847 3.55089 3.77107 3.90093 3.91831 3.80892 3.58805 1.20471 1.61603 2.05951 2.50109 2.91223 3.27991 3.59667 3.8771 
</DataArray> 
</CellData> 
<Points> 
<DataArray type="Float32" NumberOfComponents="3"> 
0.0175 0.025 0 0.0175 0.02625 0 0.0175 0.0275 0 0.0175 0.02875 0 0.0175 0.03 0 0.0175 0.03125 0 0.0175 0.0325 0 0.0175 0.03375 0 0.0175 0.035 0 0.01999 0.0234375 0 0.01999 0.0246484 0 0.01999 0.0258594 0 0.01999 0.0270703 0 0.01999 0.0282813 0 0.01999 0.0294922 0 0.01999 0.0307031 0 0.01999 0.0319141 0 0.01999 0.033125 0 0.02248 0.021875 0 0.02248 0.0230469 0 0.02248 0.0242188 0 0.02248 0.0253906 0 0.02248 0.0265625 0 0.02248 0.0277344 0 0.02248 0.0289063 0 0.02248 0.0300781 0 0.02248 0.03125 0 0.02497 0.0203125 0 0.02497 0.0214453 0 0.02497 0.0225781 0 0.02497 0.0237109 0 0.02497 0.0248438 0 0.02497 0.0259766 0 0.02497 0.0271094 0 0.02497 0.0282422 0 0.02497 0.029375 0 0.02746 0.01875 0 0.02746 0.0198438 0 0.02746 0.0209375 0 0.02746 0.0220313 0 0.02746 0.023125 0 0.02746 0.0242188 0 0.02746 0.0253125 0 0.02746 0.0264063 0 0.02746 0.0275 0 0.02995 0.0171875 0 0.02995 0.0182422 0 0.02995 0.0192969 0 0.02995 0.0203516 0 0.02995 0.0214063 0 0.02995 0.0224609 0 0.02995 0.0235156 0 0.02995 0.0245703 0 0.02995 0.025625 0 0.03244 0.015625 0 0.03244 0.0166406 0 0.03244 0.0176562 0 0.03244 0.0186719 0 0.03244 0.0196875 0 0.03244 0.0207031 0 0.03244 0.0217188 0 0.03244 0.0227344 0 0.03244 0.02375 0 0.03493 0.0140625 0 0.03493 0.0150391 0 0.03493 0.0160156 0 0.03493 0.0169922 0 0.03493 0.0179688 0 0.03493 0.0189453 0 0.03493 0.0199219 0 0.03493 0.0208984 0 0.03493 0.021875 0 0.03742 0.0125 0 0.03742 0.0134375 0 0.03742 0.014375 0 0.03742 0.0153125 0 0.03742 0.01625 0 0.03742 0.0171875 0 0.03742 0.018125 0 0.03742 0.0190625 0 0.03742 0.02 0 
</DataArray>
</Points> 
</Piece> 
</StructuredGrid> 
</VTKFile> 
