<?xml version="1.0"?> 
<VTKFile type="StructuredGrid" version="0.1"> 
<StructuredGrid WholeExtent="0 8 0 8 0 0"> 
<Piece Extent="0 8 0 8 0 0"> 
<CellData>
<DataArray type="Float32" Name="err_h1" format="ascii" NumberOfComponents="1"> 
761.533 639.377 621.056 704.311 871.915 1114.09 1441.02 1890.15 1081.47 1121.18 1187.61 1280.7 1399.06 1538.83 1691.71 1838.39 1154.9 1198.08 1250.48 1311.09 1378.69 1452.25 1531.7 1621.47 990.834 1034.25 1081.94 1133.79 1189.7 1249.38 1312.12 1375.15 786.423 831.484 879.109 929.196 981.632 1036.34 1093.35 1153.38 613.564 659.297 706.815 756.191 807.476 860.685 915.791 972.535 499.535 543.124 588.697 636.278 685.889 737.556 791.296 847.153 444.46 485.863 529.577 575.59 623.883 674.429 727.195 782.145 
</DataArray> 
</CellData> 
<Points> 
<DataArray type="Float32" NumberOfComponents="3"> 
0.09021 0.0098 0 0.0912962 0.0123258 0 0.0923823 0.0148516 0 0.0934685 0.0173774 0 0.0945546 0.0199032 0 0.0956408 0.022429 0 0.096727 0.0249548 0 0.0978131 0.0274806 0 0.0988993 0.0300064 0 0.103934 0.0098 0 0.104884 0.0123258 0 0.105835 0.0148516 0 0.106785 0.0173774 0 0.107735 0.0199032 0 0.108686 0.022429 0 0.109636 0.0249548 0 0.110586 0.0274806 0 0.111537 0.0300064 0 0.117657 0.0098 0 0.118472 0.0123258 0 0.119287 0.0148516 0 0.120101 0.0173774 0 0.120916 0.0199032 0 0.121731 0.022429 0 0.122545 0.0249548 0 0.12336 0.0274806 0 0.124174 0.0300064 0 0.131381 0.0098 0 0.13206 0.0123258 0 0.132739 0.0148516 0 0.133418 0.0173774 0 0.134097 0.0199032 0 0.134776 0.022429 0 0.135454 0.0249548 0 0.136133 0.0274806 0 0.136812 0.0300064 0 0.145105 0.0098 0 0.145648 0.0123258 0 0.146191 0.0148516 0 0.146734 0.0173774 0 0.147277 0.0199032 0 0.14782 0.022429 0 0.148363 0.0249548 0 0.148907 0.0274806 0 0.14945 0.0300064 0 0.158829 0.0098 0 0.159236 0.0123258 0 0.159643 0.0148516 0 0.160051 0.0173774 0 0.160458 0.0199032 0 0.160865 0.022429 0 0.161273 0.0249548 0 0.16168 0.0274806 0 0.162087 0.0300064 0 0.172553 0.0098 0 0.172824 0.0123258 0 0.173096 0.0148516 0 0.173367 0.0173774 0 0.173639 0.0199032 0 0.17391 0.022429 0 0.174182 0.0249548 0 0.174453 0.0274806 0 0.174725 0.0300064 0 0.186276 0.0098 0 0.186412 0.0123258 0 0.186548 0.0148516 0 0.186684 0.0173774 0 0.186819 0.0199032 0 0.186955 0.022429 0 0.187091 0.0249548 0 0.187227 0.0274806 0 0.187362 0.0300064 0 0.2 0.0098 0 0.2 0.0123258 0 0.2 0.0148516 0 0.2 0.0173774 0 0.2 0.0199032 0 0.2 0.022429 0 0.2 0.0249548 0 0.2 0.0274806 0 0.2 0.0300064 0 
</DataArray>
</Points> 
</Piece> 
</StructuredGrid> 
</VTKFile> 
