<?xml version="1.0"?> 
<VTKFile type="StructuredGrid" version="0.1"> 
<StructuredGrid WholeExtent="0 8 0 8 0 0"> 
<Piece Extent="0 8 0 8 0 0"> 
<CellData>
<DataArray type="Float32" Name="err_h1" format="ascii" NumberOfComponents="1"> 
4.8154 5.08249 6.11103 7.53376 9.03454 9.89232 9.47743 7.93069 1.08211 1.59743 2.27982 3.03089 3.95084 4.94901 5.94926 6.98997 0.285764 0.413146 0.564239 0.817269 1.13468 1.56445 2.11006 2.76443 0.0857122 0.130625 0.161347 0.202756 0.281197 0.381511 0.518134 0.708673 0.0279095 0.0351327 0.0461643 0.0579063 0.0697142 0.0913159 0.120401 0.156003 0.0084651 0.0131556 0.0117612 0.0129707 0.0165312 0.0194885 0.0238981 0.030429 0.00283129 0.00353546 0.00480029 0.00425227 0.00394539 0.00484419 0.00564944 0.00626305 0.000802081 0.0015493 0.00142951 0.00127541 0.00119796 0.00105845 0.00101944 0.00108287 
</DataArray> 
</CellData> 
<Points> 
<DataArray type="Float32" NumberOfComponents="3"> 
0.03742 0.02 0 0.03493 0.021875 0 0.03244 0.02375 0 0.02995 0.025625 0 0.02746 0.0275 0 0.02497 0.029375 0 0.02248 0.03125 0 0.01999 0.033125 0 0.0175 0.035 0 0.0428375 0.02 0 0.0406588 0.021875 0 0.03848 0.02375 0 0.0363013 0.025625 0 0.0341225 0.0275 0 0.0319437 0.029375 0 0.029765 0.03125 0 0.0275862 0.033125 0 0.0254075 0.035 0 0.048255 0.02 0 0.0463875 0.021875 0 0.04452 0.02375 0 0.0426525 0.025625 0 0.040785 0.0275 0 0.0389175 0.029375 0 0.03705 0.03125 0 0.0351825 0.033125 0 0.033315 0.035 0 0.0536725 0.02 0 0.0521162 0.021875 0 0.05056 0.02375 0 0.0490037 0.025625 0 0.0474475 0.0275 0 0.0458912 0.029375 0 0.044335 0.03125 0 0.0427788 0.033125 0 0.0412225 0.035 0 0.05909 0.02 0 0.057845 0.021875 0 0.0566 0.02375 0 0.055355 0.025625 0 0.05411 0.0275 0 0.052865 0.029375 0 0.05162 0.03125 0 0.050375 0.033125 0 0.04913 0.035 0 0.0645075 0.02 0 0.0635737 0.021875 0 0.06264 0.02375 0 0.0617062 0.025625 0 0.0607725 0.0275 0 0.0598387 0.029375 0 0.058905 0.03125 0 0.0579712 0.033125 0 0.0570375 0.035 0 0.069925 0.02 0 0.0693025 0.021875 0 0.06868 0.02375 0 0.0680575 0.025625 0 0.067435 0.0275 0 0.0668125 0.029375 0 0.06619 0.03125 0 0.0655675 0.033125 0 0.064945 0.035 0 0.0753425 0.02 0 0.0750313 0.021875 0 0.07472 0.02375 0 0.0744087 0.025625 0 0.0740975 0.0275 0 0.0737862 0.029375 0 0.073475 0.03125 0 0.0731637 0.033125 0 0.0728525 0.035 0 0.08076 0.02 0 0.08076 0.021875 0 0.08076 0.02375 0 0.08076 0.025625 0 0.08076 0.0275 0 0.08076 0.029375 0 0.08076 0.03125 0 0.08076 0.033125 0 0.08076 0.035 0 
</DataArray>
</Points> 
</Piece> 
</StructuredGrid> 
</VTKFile> 
