<?xml version="1.0"?> 
<VTKFile type="StructuredGrid" version="0.1"> 
<StructuredGrid WholeExtent="0 8 0 8 0 0"> 
<Piece Extent="0 8 0 8 0 0"> 
<CellData>
<DataArray type="Float32" Name="err_h1" format="ascii" NumberOfComponents="1"> 
112.264 123.538 144.804 174.833 213.277 260.735 318.596 389.002 241.806 245.425 252.675 263.594 278.276 296.911 319.846 347.66 278.732 280.126 282.887 286.952 292.221 298.54 305.688 313.352 158.6 160.011 162.827 167.047 172.677 179.745 188.317 198.523 45.0492 48.829 55.6337 64.5288 74.7855 85.9221 97.6253 109.673 137.794 138.854 140.954 144.059 148.118 153.073 158.864 165.435 225.363 225.895 226.959 228.551 230.667 233.304 236.456 240.118 270.381 270.767 271.54 272.698 274.241 276.168 278.476 281.164 
</DataArray> 
</CellData> 
<Points> 
<DataArray type="Float32" NumberOfComponents="3"> 
0.09021 0 0 0.09021 0.001225 0 0.09021 0.00245 0 0.09021 0.003675 0 0.09021 0.0049 0 0.09021 0.006125 0 0.09021 0.00735 0 0.09021 0.008575 0 0.09021 0.0098 0 0.103934 0 0 0.103934 0.001225 0 0.103934 0.00245 0 0.103934 0.003675 0 0.103934 0.0049 0 0.103934 0.006125 0 0.103934 0.00735 0 0.103934 0.008575 0 0.103934 0.0098 0 0.117657 0 0 0.117657 0.001225 0 0.117657 0.00245 0 0.117657 0.003675 0 0.117657 0.0049 0 0.117657 0.006125 0 0.117657 0.00735 0 0.117657 0.008575 0 0.117657 0.0098 0 0.131381 0 0 0.131381 0.001225 0 0.131381 0.00245 0 0.131381 0.003675 0 0.131381 0.0049 0 0.131381 0.006125 0 0.131381 0.00735 0 0.131381 0.008575 0 0.131381 0.0098 0 0.145105 0 0 0.145105 0.001225 0 0.145105 0.00245 0 0.145105 0.003675 0 0.145105 0.0049 0 0.145105 0.006125 0 0.145105 0.00735 0 0.145105 0.008575 0 0.145105 0.0098 0 0.158829 0 0 0.158829 0.001225 0 0.158829 0.00245 0 0.158829 0.003675 0 0.158829 0.0049 0 0.158829 0.006125 0 0.158829 0.00735 0 0.158829 0.008575 0 0.158829 0.0098 0 0.172553 0 0 0.172553 0.001225 0 0.172553 0.00245 0 0.172553 0.003675 0 0.172553 0.0049 0 0.172553 0.006125 0 0.172553 0.00735 0 0.172553 0.008575 0 0.172553 0.0098 0 0.186276 0 0 0.186276 0.001225 0 0.186276 0.00245 0 0.186276 0.003675 0 0.186276 0.0049 0 0.186276 0.006125 0 0.186276 0.00735 0 0.186276 0.008575 0 0.186276 0.0098 0 0.2 0 0 0.2 0.001225 0 0.2 0.00245 0 0.2 0.003675 0 0.2 0.0049 0 0.2 0.006125 0 0.2 0.00735 0 0.2 0.008575 0 0.2 0.0098 0 
</DataArray>
</Points> 
</Piece> 
</StructuredGrid> 
</VTKFile> 
