<?xml version="1.0"?> 
<VTKFile type="StructuredGrid" version="0.1"> 
<StructuredGrid WholeExtent="0 15 0 15 0 0"> 
<Piece Extent="0 15 0 15 0 0"> 
<PointData>
<DataArray type="Float32" Name="|E|" format="ascii" NumberOfComponents="3"> 
-1.5561e+06 1.81393e+06 0 -1.59963e+06 1.85616e+06 0 -1.6477e+06 1.89953e+06 0 -1.7013e+06 1.94388e+06 0 -1.76172e+06 1.98901e+06 0 -1.83074e+06 2.03457e+06 0 -1.91082e+06 2.08009e+06 0 -2.00538e+06 2.12472e+06 0 -2.11936e+06 2.16737e+06 0 -2.26014e+06 2.20561e+06 0 -2.4386e+06 2.23681e+06 0 -2.67327e+06 2.2517e+06 0 -2.99338e+06 2.24043e+06 0 -3.46144e+06 2.15957e+06 0 -4.20273e+06 1.94408e+06 0 -5.57166e+06 1.56761e+06 0 -1.49917e+06 1.95863e+06 0 -1.54687e+06 2.00076e+06 0 -1.59956e+06 2.0445e+06 0 -1.65827e+06 2.08983e+06 0 -1.7244e+06 2.13676e+06 0 -1.79983e+06 2.18521e+06 0 -1.88712e+06 2.23505e+06 0 -1.98986e+06 2.28596e+06 0 -2.11324e+06 2.3374e+06 0 -2.26488e+06 2.38835e+06 0 -2.45662e+06 2.4366e+06 0 -2.70748e+06 2.47816e+06 0 -3.05083e+06 2.50326e+06 0 -3.54912e+06 2.49117e+06 0 -4.33852e+06 2.39282e+06 0 -5.66518e+06 2.1053e+06 0 -1.42973e+06 2.11407e+06 0 -1.48096e+06 2.15706e+06 0 -1.53747e+06 2.20221e+06 0 -1.60035e+06 2.24968e+06 0 -1.67105e+06 2.29966e+06 0 -1.75151e+06 2.35238e+06 0 -1.84437e+06 2.40804e+06 0 -1.95334e+06 2.46688e+06 0 -2.08373e+06 2.52905e+06 0 -2.24344e+06 2.59459e+06 0 -2.44461e+06 2.6631e+06 0 -2.70702e+06 2.73327e+06 0 -3.06497e+06 2.8012e+06 0 -3.58234e+06 2.85691e+06 0 -4.39275e+06 2.87248e+06 0 -5.76418e+06 2.73079e+06 0 -1.34259e+06 2.27634e+06 0 -1.39642e+06 2.32087e+06 0 -1.45569e+06 2.3682e+06 0 -1.5215e+06 2.41863e+06 0 -1.59531e+06 2.4726e+06 0 -1.6791e+06 2.53058e+06 0 -1.77553e+06 2.59319e+06 0 -1.88836e+06 2.66118e+06 0 -2.02296e+06 2.73546e+06 0 -2.18727e+06 2.81718e+06 0 -2.39357e+06 2.9077e+06 0 -2.66174e+06 3.00857e+06 0 -3.02613e+06 3.12122e+06 0 -3.55064e+06 3.24545e+06 0 -4.36846e+06 3.37218e+06 0 -5.7853e+06 3.41713e+06 0 -1.23427e+06 2.43883e+06 0 -1.28958e+06 2.48526e+06 0 -1.35031e+06 2.53516e+06 0 -1.41756e+06 2.58902e+06 0 -1.49279e+06 2.64745e+06 0 -1.57794e+06 2.71126e+06 0 -1.67569e+06 2.78143e+06 0 -1.78973e+06 2.85924e+06 0 -1.92538e+06 2.94636e+06 0 -2.09052e+06 3.04504e+06 0 -2.29725e+06 3.15835e+06 0 -2.56516e+06 3.29068e+06 0 -2.92798e+06 3.44832e+06 0 -3.44863e+06 3.64049e+06 0 -4.25986e+06 3.87798e+06 0 -5.69309e+06 4.13471e+06 0 -1.10445e+06 2.59321e+06 0 -1.15999e+06 2.64151e+06 0 -1.22077e+06 2.69396e+06 0 -1.28785e+06 2.75123e+06 0 -1.36267e+06 2.81415e+06 0 -1.44711e+06 2.8838e+06 0 -1.54377e+06 2.96155e+06 0 -1.65624e+06 3.0492e+06 0 -1.78969e+06 3.14915e+06 0 -1.95177e+06 3.26472e+06 0 -2.15419e+06 3.40063e+06 0 -2.41592e+06 3.5639e+06 0 -2.76951e+06 3.7655e+06 0 -3.27581e+06 4.0237e+06 0 -4.06439e+06 4.37033e+06 0 -5.47305e+06 4.84929e+06 0 -956709 2.73118e+06 0 -1.0112e+06 2.7809e+06 0 -1.0706e+06 2.83546e+06 0 -1.13592e+06 2.89567e+06 0 -1.20851e+06 2.96259e+06 0 -1.29017e+06 3.03757e+06 0 -1.38338e+06 3.12234e+06 0 -1.49157e+06 3.2192e+06 0 -1.61966e+06 3.33125e+06 0 -1.77493e+06 3.46283e+06 0 -1.96857e+06 3.62019e+06 0 -2.21858e+06 3.81286e+06 0 -2.55582e+06 4.05614e+06 0 -3.03784e+06 4.37692e+06 0 -3.78709e+06 4.82779e+06 0 -5.12649e+06 5.52481e+06 0 -798054 2.84649e+06 0 -850318 2.8968e+06 0 -907012 2.9526e+06 0 -969068 3.01486e+06 0 -1.03774e+06 3.08485e+06 0 -1.11472e+06 3.16416e+06 0 -1.20231e+06 3.25487e+06 0 -1.30372e+06 3.35974e+06 0 -1.42356e+06 3.48254e+06 0 -1.56864e+06 3.62855e+06 0 -1.74944e+06 3.80547e+06 0 -1.98278e+06 4.0251e+06 0 -2.29734e+06 4.30675e+06 0 -2.74624e+06 4.68515e+06 0 -3.44081e+06 5.23176e+06 0 -4.66875e+06 6.12876e+06 0 -637465 2.93622e+06 0 -686468 2.98597e+06 0 -739293 3.04182e+06 0 -796783 3.1049e+06 0 -860081 3.17665e+06 0 -930722 3.25891e+06 0 -1.01081e+06 3.35407e+06 0 -1.10328e+06 3.46532e+06 0 -1.21238e+06 3.59704e+06 0 -1.34435e+06 3.75538e+06 0 -1.50883e+06 3.94937e+06 0 -1.72124e+06 4.19293e+06 0 -2.00776e+06 4.50894e+06 0 -2.41618e+06 4.93892e+06 0 -3.04363e+06 5.57006e+06 0 -4.12582e+06 6.63728e+06 0 -484018 3.00105e+06 0 -528891 3.04884e+06 0 -576882 3.10332e+06 0 -628729 3.16574e+06 0 -685445 3.23771e+06 0 -748394 3.32127e+06 0 -819446 3.4191e+06 0 -901234 3.5348e+06 0 -997548 3.67327e+06 0 -1.11401e+06 3.84149e+06 0 -1.25929e+06 4.04971e+06 0 -1.44724e+06 4.31376e+06 0 -1.70129e+06 4.65974e+06 0 -2.06346e+06 5.13491e+06 0 -2.61504e+06 5.83821e+06 0 -3.52919e+06 7.0384e+06 0 -345409 3.04446e+06 0 -385432 3.08873e+06 0 -427796 3.14025e+06 0 -473134 3.20039e+06 0 -522319 3.27089e+06 0 -576523 3.35398e+06 0 -637366 3.45258e+06 0 -707124 3.57062e+06 0 -789093 3.71352e+06 0 -888175 3.88897e+06 0 -1.01195e+06 4.10833e+06 0 -1.17257e+06 4.38923e+06 0 -1.39051e+06 4.76067e+06 0 -1.70189e+06 5.27479e+06 0 -2.17238e+06 6.0385e+06 0 -2.91033e+06 7.33237e+06 0 -227229 3.07144e+06 0 -261778 3.11053e+06 0 -297848 3.15746e+06 0 -335968 3.21366e+06 0 -376872 3.28099e+06 0 -421541 3.36182e+06 0 -471315 3.45927e+06 0 -528089 3.57756e+06 0 -594602 3.7225e+06 0 -674954 3.90245e+06 0 -775505 4.12976e+06 0 -906511 4.42372e+06 0 -1.0853e+06 4.81605e+06 0 -1.34207e+06 5.36323e+06 0 -1.72853e+06 6.1777e+06 0 -2.29634e+06 7.52993e+06 0 -133150 3.08757e+06 0 -161520 3.1197e+06 0 -190619 3.16031e+06 0 -220868 3.21091e+06 0 -252859 3.27341e+06 0 -287375 3.35028e+06 0 -325479 3.44478e+06 0 -368643 3.5613e+06 0 -419013 3.70602e+06 0 -479777 3.88779e+06 0 -555961 4.11986e+06 0 -655659 4.42296e+06 0 -792695 4.83149e+06 0 -991332 5.40599e+06 0 -1.29123e+06 6.2643e+06 0 -1.70747e+06 7.64996e+06 0 -64688.7 3.09784e+06 0 -86500 3.12117e+06 0 -107922 3.15375e+06 0 -129572 3.19713e+06 0 -151997 3.25327e+06 0 -175819 3.32464e+06 0 -201801 3.41456e+06 0 -230989 3.52755e+06 0 -264870 3.66997e+06 0 -305663 3.85106e+06 0 -356843 4.0848e+06 0 -424260 4.39311e+06 0 -517357 4.81289e+06 0 -654515 5.40866e+06 0 -863567 6.30582e+06 0 -1.15651e+06 7.71897e+06 0 -24337.3 3.10826e+06 0 -37961.2 3.11974e+06 0 -50543.1 3.14192e+06 0 -62532.7 3.1764e+06 0 -74564.9 3.22477e+06 0 -87069.3 3.28934e+06 0 -100536 3.37335e+06 0 -115540 3.4813e+06 0 -132822 3.61966e+06 0 -153716 3.79789e+06 0 -179704 4.03036e+06 0 -214512 4.34018e+06 0 -262459 4.76579e+06 0 -334273 5.37642e+06 0 -446336 6.30577e+06 0 -648833 7.77618e+06 0 -13354.8 3.14883e+06 0 -18907.1 3.11963e+06 0 -19576.9 3.12771e+06 0 -19722.4 3.1515e+06 0 -19980.9 3.19096e+06 0 -20345.5 3.24776e+06 0 -20863.6 3.32486e+06 0 -21430.2 3.42665e+06 0 -22514.2 3.55956e+06 0 -23110.2 3.73303e+06 0 -25732.3 3.96185e+06 0 -25403.5 4.2693e+06 0 -32658.8 4.69566e+06 0 -28305.7 5.31424e+06 0 -45049.8 6.25937e+06 0 -180979 7.89415e+06 0 </DataArray> 
</PointData> 
<Points> 
<DataArray type="Float32" NumberOfComponents="3"> 
0.0678 0.0673333 0 0.0693991 0.0667195 0 0.0710631 0.0660808 0 0.0727962 0.0654155 0 0.0746027 0.064722 0 0.0764874 0.0639986 0 0.0784555 0.0632431 0 0.0805125 0.0624535 0 0.0826648 0.0616273 0 0.0849191 0.060762 0 0.0872827 0.0598547 0 0.0897639 0.0589023 0 0.0923717 0.0579013 0 0.0951159 0.0568479 0 0.0980076 0.0557378 0 0.101059 0.0545665 0 0.0708133 0.0703111 0 0.0722857 0.0696072 0 0.0738178 0.0688748 0 0.0754134 0.068112 0 0.0770764 0.067317 0 0.0788113 0.0664876 0 0.0806229 0.0656215 0 0.0825163 0.0647164 0 0.0844971 0.0637694 0 0.0865717 0.0627776 0 0.0887468 0.0617378 0 0.0910299 0.0606463 0 0.0934292 0.0594993 0 0.0959539 0.0582924 0 0.098614 0.0570206 0 0.101421 0.0556788 0 0.0738267 0.0732889 0 0.0751773 0.0724908 0 0.0765825 0.0716604 0 0.0780457 0.0707957 0 0.0795706 0.0698946 0 0.081161 0.0689548 0 0.0828214 0.0679737 0 0.0845564 0.0669484 0 0.0863712 0.065876 0 0.0882714 0.0647531 0 0.0902633 0.063576 0 0.0923535 0.0623408 0 0.0945497 0.0610431 0 0.0968599 0.0596779 0 0.0992934 0.0582398 0 0.10186 0.056723 0 0.07684 0.0762667 0 0.0780735 0.0753696 0 0.0793565 0.0744365 0 0.0806921 0.0734653 0 0.0820835 0.0724534 0 0.0835343 0.0713983 0 0.0850485 0.0702971 0 0.0866302 0.0691468 0 0.0882841 0.0679441 0 0.0900152 0.0666851 0 0.0918291 0.065366 0 0.0937318 0.0639822 0 0.0957301 0.062529 0 0.0978313 0.0610009 0 0.100044 0.059392 0 0.102376 0.0576958 0 0.0798533 0.0792444 0 0.0809738 0.0782434 0 0.0821388 0.0772025 0 0.0833511 0.0761194 0 0.0846135 0.0749915 0 0.0859293 0.0738159 0 0.0873019 0.0725895 0 0.088735 0.071309 0 0.0902329 0.0699708 0 0.0917999 0.0685707 0 0.093441 0.0671045 0 0.0951615 0.0655673 0 0.0969673 0.0639539 0 0.098865 0.0622584 0 0.100862 0.0604744 0 0.102966 0.0585947 0 0.0828667 0.0822222 0 0.0838777 0.0811115 0 0.0849285 0.0799573 0 0.0860213 0.0787568 0 0.0871588 0.0775073 0 0.0883437 0.0762057 0 0.089579 0.0748486 0 0.0908682 0.0734325 0 0.0922146 0.0719534 0 0.0936223 0.070407 0 0.0950956 0.0687886 0 0.0966391 0.0670931 0 0.0982579 0.0653148 0 0.0999577 0.0634475 0 0.101745 0.0614843 0 0.103626 0.0594178 0 0.08588 0.0852 0 0.0867849 0.0839737 0 0.0877247 0.0827001 0 0.0887016 0.0813762 0 0.0897177 0.0799992 0 0.0907755 0.0785657 0 0.0918775 0.0770722 0 0.0930267 0.0755148 0 0.0942262 0.0738893 0 0.0954792 0.0721912 0 0.0967894 0.0704156 0 0.0981609 0.0685569 0 0.0995981 0.0666092 0 0.101106 0.064566 0 0.102689 0.06242 0 0.104355 0.0601633 0 0.0888933 0.0881778 0 0.0896947 0.0868294 0 0.0905265 0.08543 0 0.0913904 0.0839764 0 0.0922884 0.0824656 0 0.0932224 0.0808941 0 0.0941948 0.0792581 0 0.0952079 0.0775535 0 0.0962643 0.0757761 0 0.0973669 0.073921 0 0.0985188 0.0719829 0 0.0997234 0.0699563 0 0.100984 0.0678349 0 0.102306 0.0656119 0 0.103692 0.0632797 0 0.105147 0.0608303 0 0.0919067 0.0911556 0 0.0926068 0.0896783 0 0.093333 0.0881462 0 0.0940866 0.0865562 0 0.0948691 0.084905 0 0.0956825 0.083189 0 0.0965283 0.0814043 0 0.0974088 0.0795466 0 0.098326 0.0776115 0 0.0992822 0.0755939 0 0.10028 0.0734884 0 0.101322 0.0712893 0 0.102412 0.06899 0 0.103553 0.0665837 0 0.104748 0.0640626 0 0.106001 0.0614183 0 0.09492 0.0941333 0 0.0955208 0.0925197 0 0.0961432 0.0908478 0 0.0967886 0.0891144 0 0.0974582 0.087316 0 0.0981533 0.0854488 0 0.0988756 0.083509 0 0.0996265 0.0814921 0 0.100408 0.0793934 0 0.101222 0.0772079 0 0.10207 0.0749301 0 0.102954 0.072554 0 0.103878 0.0700731 0 0.104843 0.0674803 0 0.105853 0.0647679 0 0.106911 0.0619273 0 0.0979333 0.0971111 0 0.098436 0.0953534 0 0.0989563 0.0935341 0 0.0994953 0.0916498 0 0.100054 0.089697 0 0.100633 0.0876718 0 0.101234 0.0855703 0 0.101858 0.0833879 0 0.102507 0.0811199 0 0.103181 0.0787612 0 0.103883 0.0763063 0 0.104615 0.0737491 0 0.105377 0.071083 0 0.106173 0.0683011 0 0.107004 0.0653955 0 0.107873 0.0623579 0 0.100947 0.100089 0 0.101352 0.0981789 0 0.101771 0.0962042 0 0.102205 0.0941613 0 0.102654 0.0920466 0 0.103119 0.0898564 0 0.103601 0.0875865 0 0.104101 0.0852324 0 0.104619 0.0827893 0 0.105158 0.0802523 0 0.105718 0.0776156 0 0.1063 0.0748734 0 0.106906 0.0720191 0 0.107537 0.0690458 0 0.108195 0.0659458 0 0.108882 0.0627109 0 0.10396 0.103067 0 0.104269 0.100996 0 0.104588 0.0988573 0 0.104917 0.0966478 0 0.105257 0.0943637 0 0.10561 0.0920011 0 0.105974 0.089556 0 0.106352 0.0870239 0 0.106743 0.0844002 0 0.107148 0.0816796 0 0.107569 0.0788569 0 0.108006 0.0759261 0 0.10846 0.0728809 0 0.108932 0.0697145 0 0.109423 0.0664194 0 0.109935 0.0629878 0 0.106973 0.106044 0 0.107185 0.103804 0 0.107404 0.101493 0 0.107629 0.0991082 0 0.107862 0.0966467 0 0.108102 0.0941045 0 0.108351 0.0914774 0 0.108608 0.0887611 0 0.108874 0.085951 0 0.109149 0.0830422 0 0.109433 0.0800294 0 0.109729 0.0769069 0 0.110035 0.0736685 0 0.110353 0.0703078 0 0.110683 0.0668176 0 0.111026 0.0631903 0 0.109987 0.109022 0 0.110101 0.106602 0 0.110219 0.104109 0 0.110341 0.101541 0 0.110466 0.0988946 0 0.110595 0.0961652 0 0.110729 0.0933493 0 0.110866 0.0904427 0 0.111009 0.0874409 0 0.111155 0.0843392 0 0.111307 0.0811325 0 0.111464 0.0778155 0 0.111627 0.0743822 0 0.111795 0.0708265 0 0.11197 0.0671418 0 0.112151 0.0633208 0 0.113 0.112 0 0.113016 0.10939 0 0.113033 0.106707 0 0.11305 0.103947 0 0.113068 0.101106 0 0.113087 0.0981821 0 0.113105 0.0951705 0 0.113125 0.0920675 0 0.113145 0.0888688 0 0.113166 0.0855698 0 0.113187 0.0821659 0 0.113209 0.078652 0 0.113232 0.0750225 0 0.113255 0.0712718 0 0.113279 0.0673937 0 0.113305 0.0633815 0 
</DataArray>
</Points> 
</Piece> 
</StructuredGrid> 
</VTKFile> 
