<?xml version="1.0"?> 
<VTKFile type="StructuredGrid" version="0.1"> 
<StructuredGrid WholeExtent="0 15 0 15 0 0"> 
<Piece Extent="0 15 0 15 0 0"> 
<PointData>
<DataArray type="Float32" Name="|E|" format="ascii" NumberOfComponents="3"> 
725071 4.2071e+06 0 670053 4.18769e+06 0 620456 4.18571e+06 0 574910 4.19654e+06 0 532535 4.21739e+06 0 492750 4.24665e+06 0 455153 4.28355e+06 0 419458 4.32791e+06 0 385451 4.38008e+06 0 352970 4.44092e+06 0 321888 4.51195e+06 0 292116 4.59572e+06 0 263601 4.69637e+06 0 236342 4.82104e+06 0 210412 4.98247e+06 0 185991 5.20449e+06 0 700812 4.29439e+06 0 698581 4.30146e+06 0 696027 4.31019e+06 0 693062 4.3216e+06 0 689967 4.33633e+06 0 687229 4.35485e+06 0 685449 4.37749e+06 0 685308 4.4045e+06 0 687560 4.4361e+06 0 693047 4.47245e+06 0 702724 4.51365e+06 0 717677 4.5597e+06 0 739121 4.61036e+06 0 768299 4.6649e+06 0 806166 4.72158e+06 0 852523 4.77656e+06 0 745836 4.25114e+06 0 755346 4.25818e+06 0 764713 4.26624e+06 0 774514 4.27537e+06 0 785133 4.28567e+06 0 796875 4.29722e+06 0 810034 4.31011e+06 0 824924 4.32438e+06 0 841892 4.34004e+06 0 861323 4.35705e+06 0 883642 4.37531e+06 0 909321 4.39463e+06 0 938903 4.41475e+06 0 973080 4.43536e+06 0 1.01291e+06 4.45612e+06 0 1.06034e+06 4.47683e+06 0 770951 4.16226e+06 0 783373 4.1659e+06 0 796885 4.16978e+06 0 811336 4.17392e+06 0 826735 4.17832e+06 0 843177 4.18296e+06 0 860798 4.18784e+06 0 879762 4.1929e+06 0 900244 4.19808e+06 0 922433 4.2033e+06 0 946518 4.20844e+06 0 972684 4.21335e+06 0 1.00108e+06 4.21785e+06 0 1.03178e+06 4.22171e+06 0 1.06462e+06 4.22466e+06 0 1.09886e+06 4.22637e+06 0 765811 4.0591e+06 0 780061 4.05916e+06 0 794729 4.05909e+06 0 810010 4.05888e+06 0 826026 4.0585e+06 0 842861 4.05791e+06 0 860589 4.05707e+06 0 879280 4.05592e+06 0 899008 4.05438e+06 0 919845 4.05239e+06 0 941868 4.04985e+06 0 965155 4.04664e+06 0 989800 4.04264e+06 0 1.01593e+06 4.03771e+06 0 1.04378e+06 4.03166e+06 0 1.07388e+06 4.02427e+06 0 737229 3.95697e+06 0 750788 3.95411e+06 0 764910 3.95097e+06 0 779555 3.94749e+06 0 794727 3.94364e+06 0 810453 3.93939e+06 0 826769 3.93468e+06 0 843713 3.92948e+06 0 861320 3.92373e+06 0 879626 3.91736e+06 0 898663 3.9103e+06 0 918460 3.90248e+06 0 939031 3.8938e+06 0 960364 3.88418e+06 0 982384 3.87353e+06 0 1.00485e+06 3.86178e+06 0 690556 3.86292e+06 0 703211 3.85784e+06 0 716132 3.85238e+06 0 729372 3.84653e+06 0 742959 3.84025e+06 0 756911 3.83351e+06 0 771244 3.82627e+06 0 785970 3.81849e+06 0 801101 3.81013e+06 0 816645 3.80115e+06 0 832612 3.79148e+06 0 849009 3.78109e+06 0 865842 3.7699e+06 0 883127 3.75787e+06 0 900902 3.7449e+06 0 919279 3.73089e+06 0 631453 3.77957e+06 0 642660 3.77285e+06 0 654088 3.76575e+06 0 665723 3.75825e+06 0 677569 3.75031e+06 0 689627 3.74192e+06 0 701904 3.73303e+06 0 714403 3.72364e+06 0 727129 3.71369e+06 0 740081 3.70316e+06 0 753260 3.69202e+06 0 766663 3.68022e+06 0 780284 3.66772e+06 0 794109 3.65449e+06 0 808108 3.64048e+06 0 822212 3.62568e+06 0 563652 3.70772e+06 0 573412 3.6998e+06 0 583272 3.69152e+06 0 593240 3.68285e+06 0 603319 3.67379e+06 0 613511 3.6643e+06 0 623813 3.65438e+06 0 634224 3.64398e+06 0 644743 3.6331e+06 0 655364 3.62171e+06 0 666083 3.60978e+06 0 676895 3.59728e+06 0 687792 3.58419e+06 0 698767 3.57048e+06 0 709820 3.55612e+06 0 720962 3.54106e+06 0 490004 3.64713e+06 0 498264 3.63834e+06 0 506573 3.62923e+06 0 514928 3.61977e+06 0 523326 3.60996e+06 0 531765 3.59977e+06 0 540241 3.58919e+06 0 548750 3.5782e+06 0 557290 3.56679e+06 0 565854 3.55495e+06 0 574438 3.54264e+06 0 583033 3.52986e+06 0 591633 3.51658e+06 0 600227 3.50279e+06 0 608802 3.48846e+06 0 617338 3.47359e+06 0 412416 3.59728e+06 0 419222 3.58787e+06 0 426033 3.57816e+06 0 432845 3.56816e+06 0 439658 3.55785e+06 0 446466 3.54721e+06 0 453267 3.53625e+06 0 460056 3.52493e+06 0 466829 3.51326e+06 0 473579 3.50122e+06 0 480301 3.4888e+06 0 486990 3.47598e+06 0 493637 3.46276e+06 0 500236 3.44911e+06 0 506780 3.43502e+06 0 513262 3.42049e+06 0 332226 3.55752e+06 0 337615 3.54766e+06 0 342987 3.53755e+06 0 348336 3.52719e+06 0 353661 3.51656e+06 0 358957 3.50566e+06 0 364220 3.49448e+06 0 369447 3.48301e+06 0 374633 3.47124e+06 0 379774 3.45917e+06 0 384864 3.44678e+06 0 389898 3.43407e+06 0 394870 3.42103e+06 0 399774 3.40764e+06 0 404603 3.39391e+06 0 409351 3.37982e+06 0 250344 3.52726e+06 0 254358 3.51709e+06 0 258343 3.50672e+06 0 262296 3.49612e+06 0 266215 3.48531e+06 0 270096 3.47427e+06 0 273936 3.46299e+06 0 277731 3.45148e+06 0 281478 3.43973e+06 0 285174 3.42772e+06 0 288813 3.41546e+06 0 292392 3.40294e+06 0 295907 3.39015e+06 0 299352 3.37709e+06 0 302723 3.36375e+06 0 306014 3.35012e+06 0 167400 3.50601e+06 0 170067 3.49565e+06 0 172706 3.48511e+06 0 175314 3.47439e+06 0 177891 3.46348e+06 0 180433 3.45239e+06 0 182938 3.44111e+06 0 185403 3.42963e+06 0 187826 3.41796e+06 0 190204 3.40608e+06 0 192534 3.394e+06 0 194813 3.38171e+06 0 197039 3.36921e+06 0 199208 3.35649e+06 0 201318 3.34355e+06 0 203365 3.33039e+06 0 83840.9 3.49341e+06 0 85174.5 3.48294e+06 0 86490.7 3.47233e+06 0 87788 3.46157e+06 0 89065.2 3.45065e+06 0 90321 3.43958e+06 0 91553.9 3.42835e+06 0 92762.6 3.41696e+06 0 93945.6 3.40542e+06 0 95101.7 3.39371e+06 0 96229.2 3.38184e+06 0 97326.7 3.3698e+06 0 98392.6 3.35759e+06 0 99425.4 3.34522e+06 0 100423 3.33267e+06 0 101383 3.31996e+06 0 0 3.48924e+06 0 0 3.47877e+06 0 0 3.46816e+06 0 0 3.45743e+06 0 0 3.44657e+06 0 0 3.43558e+06 0 0 3.42446e+06 0 0 3.4132e+06 0 0 3.40182e+06 0 0 3.39031e+06 0 0 3.37866e+06 0 0 3.36688e+06 0 0 3.35497e+06 0 0 3.34293e+06 0 0 3.33075e+06 0 0 3.31844e+06 0 </DataArray> 
</PointData> 
<Points> 
<DataArray type="Float32" NumberOfComponents="3"> 
0.181506 0.059614 0 0.181961 0.0595384 0 0.182426 0.0594668 0 0.1829 0.0593992 0 0.183385 0.0593354 0 0.18388 0.0592754 0 0.184387 0.0592192 0 0.184904 0.0591666 0 0.185434 0.0591177 0 0.185976 0.0590723 0 0.186531 0.0590305 0 0.187099 0.0589922 0 0.187681 0.0589574 0 0.188278 0.0589261 0 0.188889 0.0588982 0 0.189517 0.0588737 0 0.181506 0.0631064 0 0.181959 0.063029 0 0.182422 0.0629563 0 0.182894 0.0628882 0 0.183375 0.0628248 0 0.183866 0.0627659 0 0.184368 0.0627114 0 0.18488 0.0626614 0 0.185403 0.0626157 0 0.185938 0.0625743 0 0.186484 0.0625372 0 0.187044 0.0625044 0 0.187616 0.0624758 0 0.188202 0.0624514 0 0.188801 0.0624313 0 0.189416 0.0624155 0 0.181505 0.0665988 0 0.181958 0.0665205 0 0.182418 0.0664476 0 0.182887 0.0663798 0 0.183365 0.0663173 0 0.183852 0.0662598 0 0.184349 0.0662074 0 0.184855 0.06616 0 0.185372 0.0661175 0 0.1859 0.06608 0 0.186438 0.0660474 0 0.186988 0.0660196 0 0.187551 0.0659967 0 0.188125 0.0659787 0 0.188713 0.0659655 0 0.189314 0.0659572 0 0.181505 0.0700912 0 0.181956 0.070013 0 0.182414 0.0699407 0 0.18288 0.0698739 0 0.183355 0.0698128 0 0.183838 0.0697572 0 0.18433 0.0697072 0 0.184831 0.0696625 0 0.185341 0.0696233 0 0.185861 0.0695895 0 0.186392 0.069561 0 0.186933 0.0695379 0 0.187486 0.0695201 0 0.188049 0.0695077 0 0.188625 0.0695007 0 0.189213 0.069499 0 0.181504 0.0735836 0 0.181954 0.0735066 0 0.18241 0.0734356 0 0.182874 0.0733705 0 0.183345 0.0733114 0 0.183824 0.0732582 0 0.184311 0.0732107 0 0.184806 0.073169 0 0.18531 0.073133 0 0.185823 0.0731028 0 0.186346 0.0730782 0 0.186878 0.0730593 0 0.18742 0.0730461 0 0.187973 0.0730386 0 0.188537 0.0730368 0 0.189112 0.0730407 0 0.181504 0.077076 0 0.181952 0.0770011 0 0.182406 0.0769323 0 0.182867 0.0768697 0 0.183335 0.0768131 0 0.183809 0.0767626 0 0.184292 0.076718 0 0.184781 0.0766794 0 0.185279 0.0766466 0 0.185785 0.0766198 0 0.186299 0.0765989 0 0.186823 0.0765838 0 0.187355 0.0765746 0 0.187897 0.0765713 0 0.188449 0.076574 0 0.189011 0.0765825 0 0.181504 0.0805684 0 0.18195 0.0804965 0 0.182402 0.0804309 0 0.18286 0.0803713 0 0.183325 0.0803179 0 0.183795 0.0802705 0 0.184272 0.0802291 0 0.184757 0.0801937 0 0.185248 0.0801642 0 0.185747 0.0801407 0 0.186253 0.0801231 0 0.186767 0.0801114 0 0.18729 0.0801057 0 0.187821 0.0801059 0 0.188361 0.0801121 0 0.18891 0.0801242 0 0.181503 0.0840608 0 0.181948 0.083993 0 0.182398 0.0839312 0 0.182854 0.0838755 0 0.183315 0.0838257 0 0.183781 0.0837819 0 0.184253 0.0837439 0 0.184732 0.0837119 0 0.185217 0.0836857 0 0.185708 0.0836653 0 0.186206 0.0836508 0 0.186712 0.0836421 0 0.187224 0.0836393 0 0.187745 0.0836423 0 0.188273 0.0836512 0 0.188809 0.083666 0 0.181503 0.0875532 0 0.181946 0.0874904 0 0.182394 0.0874334 0 0.182847 0.0873822 0 0.183304 0.0873367 0 0.183767 0.0872968 0 0.184234 0.0872626 0 0.184707 0.087234 0 0.185186 0.0872111 0 0.18567 0.0871938 0 0.18616 0.0871821 0 0.186656 0.0871759 0 0.187159 0.0871754 0 0.187668 0.0871806 0 0.188185 0.0871913 0 0.188708 0.0872077 0 0.181502 0.0910456 0 0.181945 0.0909888 0 0.18239 0.0909375 0 0.18284 0.0908914 0 0.183294 0.0908507 0 0.183753 0.0908152 0 0.184215 0.0907851 0 0.184682 0.0907602 0 0.185154 0.0907405 0 0.185631 0.090726 0 0.186113 0.0907168 0 0.186601 0.0907129 0 0.187094 0.0907141 0 0.187592 0.0907207 0 0.188096 0.0907324 0 0.188607 0.0907495 0 0.181502 0.094538 0 0.181943 0.0944882 0 0.182386 0.0944433 0 0.182834 0.0944032 0 0.183284 0.0943678 0 0.183738 0.0943372 0 0.184196 0.0943113 0 0.184658 0.0942902 0 0.185123 0.0942738 0 0.185593 0.0942621 0 0.186067 0.0942552 0 0.186545 0.0942529 0 0.187028 0.0942554 0 0.187516 0.0942626 0 0.188008 0.0942745 0 0.188506 0.0942912 0 0.181502 0.0980304 0 0.181941 0.0979886 0 0.182383 0.097951 0 0.182827 0.0979175 0 0.183274 0.097888 0 0.183724 0.0978627 0 0.184177 0.0978414 0 0.184633 0.0978242 0 0.185092 0.0978111 0 0.185554 0.097802 0 0.18602 0.097797 0 0.18649 0.0977961 0 0.186963 0.0977992 0 0.187439 0.0978064 0 0.18792 0.0978176 0 0.188404 0.097833 0 0.181501 0.101523 0 0.181939 0.10149 0 0.182379 0.10146 0 0.18282 0.101434 0 0.183264 0.101411 0 0.18371 0.101392 0 0.184158 0.101375 0 0.184608 0.101362 0 0.185061 0.101352 0 0.185516 0.101346 0 0.185974 0.101342 0 0.186434 0.101342 0 0.186897 0.101346 0 0.187363 0.101352 0 0.187832 0.101362 0 0.188303 0.101375 0 0.181501 0.105015 0 0.181937 0.104992 0 0.182375 0.104972 0 0.182813 0.104954 0 0.183254 0.104938 0 0.183695 0.104924 0 0.184138 0.104913 0 0.184583 0.104904 0 0.185029 0.104898 0 0.185477 0.104893 0 0.185927 0.104891 0 0.186378 0.104892 0 0.186831 0.104894 0 0.187286 0.104899 0 0.187743 0.104907 0 0.188202 0.104916 0 0.1815 0.108508 0 0.181935 0.108496 0 0.182371 0.108485 0 0.182807 0.108476 0 0.183244 0.108467 0 0.183681 0.10846 0 0.184119 0.108455 0 0.184558 0.10845 0 0.184998 0.108447 0 0.185439 0.108445 0 0.18588 0.108444 0 0.186322 0.108444 0 0.186766 0.108446 0 0.18721 0.108449 0 0.187655 0.108453 0 0.188101 0.108458 0 0.1815 0.112 0 0.181933 0.112 0 0.182367 0.112 0 0.1828 0.112 0 0.183233 0.112 0 0.183667 0.112 0 0.1841 0.112 0 0.184533 0.112 0 0.184967 0.112 0 0.1854 0.112 0 0.185833 0.112 0 0.186267 0.112 0 0.1867 0.112 0 0.187133 0.112 0 0.187567 0.112 0 0.188 0.112 0 
</DataArray>
</Points> 
</Piece> 
</StructuredGrid> 
</VTKFile> 
