<?xml version="1.0"?> 
<VTKFile type="StructuredGrid" version="0.1"> 
<StructuredGrid WholeExtent="0 15 0 15 0 0"> 
<Piece Extent="0 15 0 15 0 0"> 
<PointData>
<DataArray type="Float32" Name="|E|" format="ascii" NumberOfComponents="3"> 
1083.61 2442.74 0 -208.911 755.509 0 -87.3422 291.055 0 -53.6961 181.372 0 -29.0297 68.9753 0 -14.5419 46.8106 0 -9.82005 21.0302 0 -4.92699 14.0207 0 -3.64709 7.25165 0 -1.94666 4.56533 0 -1.42457 2.56917 0 -0.818885 1.52576 0 -0.585565 0.877755 0 -0.378831 0.461317 0 -0.300074 0.212367 0 -0.283085 7.39098e-06 0 -25.0096 1790.54 0 -262.276 664.68 0 -140.179 285.73 0 -70.593 148.942 0 -36.7897 68.7533 0 -18.7574 40.0619 0 -11.3006 20.7546 0 -6.12942 12.5701 0 -4.02495 7.02922 0 -2.30027 4.2361 0 -1.54099 2.46098 0 -0.923729 1.44907 0 -0.625727 0.835943 0 -0.412576 0.446719 0 -0.318471 0.199001 0 -0.29499 -6.11646e-07 0 -539.177 1496.92 0 -348.256 575.418 0 -177.085 252.652 0 -85.081 126.296 0 -43.0729 62.6692 0 -22.137 35.4081 0 -12.7329 19.3505 0 -7.0901 11.484 0 -4.42615 6.6108 0 -2.58946 3.9527 0 -1.66598 2.32607 0 -1.01267 1.37153 0 -0.667964 0.793975 0 -0.442645 0.427782 0 -0.336915 0.189064 0 -0.308486 -3.42727e-07 0 -847.409 1225.2 0 -423.333 475.112 0 -203.442 210.633 0 -96.0204 105.58 0 -47.9448 54.9129 0 -24.8201 31.1881 0 -13.9902 17.6089 0 -7.89098 10.4593 0 -4.80188 6.12746 0 -2.83951 3.67121 0 -1.78592 2.17978 0 -1.09218 1.29103 0 -0.70892 0.750636 0 -0.47051 0.407108 0 -0.354806 0.179746 0 -0.322152 4.91738e-07 0 -1039.79 938.174 0 -476.105 366.288 0 -220.267 165.495 0 -103.288 85.4788 0 -51.4456 46.6444 0 -26.8688 27.0799 0 -15.0391 15.7372 0 -8.55597 9.43599 0 -5.13871 5.61307 0 -3.05692 3.38347 0 -1.89711 2.02634 0 -1.16376 1.20743 0 -0.747704 0.705788 0 -0.496481 0.385348 0 -0.371983 0.170425 0 -0.335607 -5.36442e-07 0 -1143.99 644.923 0 -503.961 254.473 0 -227.988 120.161 0 -107.064 66.0778 0 -53.6419 38.33 0 -28.3345 23.0515 0 -15.8701 13.8111 0 -9.09728 8.40755 0 -5.43109 5.07969 0 -3.24452 3.08924 0 -1.99791 1.86743 0 -1.228 1.12105 0 -0.783908 0.659548 0 -0.520647 0.362704 0 -0.388364 0.160987 0 -0.348681 8.64267e-07 0 -1174.49 359.745 0 -507.534 145.268 0 -227.223 76.7282 0 -107.669 47.7434 0 -54.6363 30.2491 0 -29.267 19.1296 0 -16.4855 11.8755 0 -9.52326 7.37785 0 -5.67667 4.53493 0 -3.4039 2.78971 0 -2.08743 1.70429 0 -1.28519 1.0323 0 -0.817283 0.612069 0 -0.543038 0.339308 0 -0.403894 0.151395 0 -0.361269 -8.19564e-07 0 -1142.74 95.0986 0 -489.022 43.603 0 -218.902 36.8789 0 -105.519 30.8589 0 -54.5591 22.5983 0 -29.7182 15.3526 0 -16.8937 9.96313 0 -9.84107 6.35337 0 -5.8747 3.98483 0 -3.53625 2.48646 0 -2.16513 1.53803 0 -1.33549 0.941585 0 -0.847652 0.563519 0 -0.563662 0.315266 0 -0.418526 0.141644 0 -0.373295 8.34465e-07 0 -1059.78 -139.457 0 -451.503 -46.4533 0 -204.251 1.93941 0 -101.091 15.7407 0 -53.5613 15.5215 0 -29.7408 11.7548 0 -17.1083 8.1014 0 -10.0569 5.34024 0 -6.02581 3.43506 0 -3.64236 2.18094 0 -2.23085 1.36973 0 -1.379 0.84931 0 -0.874912 0.514058 0 -0.582505 0.290703 0 -0.432222 0.131709 0 -0.384713 -6.85453e-07 0 -936.688 -337.203 0 -398.536 -121.67 0 -184.743 -27.1568 0 -94.899 2.62544 0 -51.8052 9.10633 0 -29.3875 8.36991 0 -17.146 6.30991 0 -10.1766 4.34546 0 -6.13165 2.89022 0 -3.72278 1.87477 0 -2.28464 1.20039 0 -1.4157 0.755884 0 -0.899026 0.463859 0 -0.599534 0.265724 0 -0.444956 0.121585 0 -0.395504 6.25849e-07 0 -784.037 -494.584 0 -333.944 -179.575 0 -162.037 -49.8903 0 -87.4558 -8.34651 0 -49.457 3.39366 0 -28.7095 5.22644 0 -17.0264 4.60321 0 -10.2048 3.37549 0 -6.19501 2.35456 0 -3.77766 1.56942 0 -2.32697 1.03102 0 -1.44546 0.6617 0 -0.920052 0.413074 0 -0.614678 0.240461 0 -0.456715 0.111234 0 -0.405696 -6.85453e-07 0 -611.553 -610.79 0 -261.662 -218.198 0 -137.925 -66.3175 0 -79.2486 -17.0403 0 -46.672 -1.6767 0 -27.7616 2.38254 0 -16.766 2.97198 0 -10.1491 2.4461 0 -6.21767 1.82725 0 -3.8079 1.26824 0 -2.358 0.861889 0 -1.46833 0.567275 0 -0.937986 0.361931 0 -0.627911 0.214905 0 -0.467475 0.100784 0 -0.415292 5.36442e-07 0 -424.928 -689.6 0 -186.016 -236.012 0 -114.206 -77.0189 0 -70.7127 -23.3581 0 -43.5833 -6.24414 0 -26.6058 -0.0787409 0 -16.3743 1.38435 0 -10.0212 1.5826 0 -6.19911 1.30198 0 -3.81592 0.976654 0 -2.37723 0.692461 0 -1.48477 0.47327 0 -0.952636 0.310745 0 -0.639303 0.188867 0 -0.477177 0.0905663 0 -0.424223 -8.9407e-08 0 -222.174 -742.892 0 -112.434 -232.377 0 -92.4326 -82.7344 0 -62.2685 -27.4153 0 -40.2524 -10.4369 0 -25.3431 -2.07895 0 -15.8302 -0.205796 0 -9.85282 0.819468 0 -6.12677 0.76565 0 -3.8113 0.703364 0 -2.38023 0.520762 0 -1.49736 0.380671 0 -0.962747 0.259969 0 -0.649447 0.161828 0 -0.485592 0.0813169 0 -0.43191 -2.08616e-07 0 36.823 -814.705 0 -51.8251 -210.934 0 -72.8992 -81.2366 0 -54.4519 -31.4814 0 -36.682 -13.2425 0 -24.0685 -4.14831 0 -15.1202 -1.54895 0 -9.66902 0.0505629 0 -5.99223 0.266262 0 -3.80151 0.432341 0 -2.36377 0.353068 0 -1.5081 0.288815 0 -0.967417 0.209273 0 -0.658729 0.134806 0 -0.492637 0.0720152 0 -0.437848 2.38419e-07 0 558.661 -1191.58 0 -39.7531 -203.962 0 -49.9293 -44.3297 0 -48.9173 -54.4734 0 -32.7995 -4.04799 0 -22.6386 -12.0841 0 -14.4768 0.343365 0 -9.30641 -2.18228 0 -5.91259 0.473445 0 -3.71661 -0.111778 0 -2.37008 0.285604 0 -1.49337 0.179511 0 -0.979875 0.14827 0 -0.659887 0.12808 0 -0.501852 0.0393546 0 -0.447629 -1.66893e-06 0 </DataArray> 
</PointData> 
<Points> 
<DataArray type="Float32" NumberOfComponents="3"> 
0.125 0.021 0 0.129 0.0212667 0 0.133 0.0215333 0 0.137 0.0218 0 0.141 0.0220667 0 0.145 0.0223333 0 0.149 0.0226 0 0.153 0.0228667 0 0.157 0.0231333 0 0.161 0.0234 0 0.165 0.0236667 0 0.169 0.0239333 0 0.173 0.0242 0 0.177 0.0244667 0 0.181 0.0247333 0 0.185 0.025 0 0.125333 0.0219333 0 0.129311 0.02216 0 0.133289 0.0223867 0 0.137267 0.0226133 0 0.141244 0.02284 0 0.145222 0.0230667 0 0.1492 0.0232933 0 0.153178 0.02352 0 0.157156 0.0237467 0 0.161133 0.0239733 0 0.165111 0.0242 0 0.169089 0.0244267 0 0.173067 0.0246533 0 0.177044 0.02488 0 0.181022 0.0251067 0 0.185 0.0253333 0 0.125667 0.0228667 0 0.129622 0.0230533 0 0.133578 0.02324 0 0.137533 0.0234267 0 0.141489 0.0236133 0 0.145444 0.0238 0 0.1494 0.0239867 0 0.153356 0.0241733 0 0.157311 0.02436 0 0.161267 0.0245467 0 0.165222 0.0247333 0 0.169178 0.02492 0 0.173133 0.0251067 0 0.177089 0.0252933 0 0.181044 0.02548 0 0.185 0.0256667 0 0.126 0.0238 0 0.129933 0.0239467 0 0.133867 0.0240933 0 0.1378 0.02424 0 0.141733 0.0243867 0 0.145667 0.0245333 0 0.1496 0.02468 0 0.153533 0.0248267 0 0.157467 0.0249733 0 0.1614 0.02512 0 0.165333 0.0252667 0 0.169267 0.0254133 0 0.1732 0.02556 0 0.177133 0.0257067 0 0.181067 0.0258533 0 0.185 0.026 0 0.126333 0.0247333 0 0.130244 0.02484 0 0.134156 0.0249467 0 0.138067 0.0250533 0 0.141978 0.02516 0 0.145889 0.0252667 0 0.1498 0.0253733 0 0.153711 0.02548 0 0.157622 0.0255867 0 0.161533 0.0256933 0 0.165444 0.0258 0 0.169356 0.0259067 0 0.173267 0.0260133 0 0.177178 0.02612 0 0.181089 0.0262267 0 0.185 0.0263333 0 0.126667 0.0256667 0 0.130556 0.0257333 0 0.134444 0.0258 0 0.138333 0.0258667 0 0.142222 0.0259333 0 0.146111 0.026 0 0.15 0.0260667 0 0.153889 0.0261333 0 0.157778 0.0262 0 0.161667 0.0262667 0 0.165556 0.0263333 0 0.169444 0.0264 0 0.173333 0.0264667 0 0.177222 0.0265333 0 0.181111 0.0266 0 0.185 0.0266667 0 0.127 0.0266 0 0.130867 0.0266267 0 0.134733 0.0266533 0 0.1386 0.02668 0 0.142467 0.0267067 0 0.146333 0.0267333 0 0.1502 0.02676 0 0.154067 0.0267867 0 0.157933 0.0268133 0 0.1618 0.02684 0 0.165667 0.0268667 0 0.169533 0.0268933 0 0.1734 0.02692 0 0.177267 0.0269467 0 0.181133 0.0269733 0 0.185 0.027 0 0.127333 0.0275333 0 0.131178 0.02752 0 0.135022 0.0275067 0 0.138867 0.0274933 0 0.142711 0.02748 0 0.146556 0.0274667 0 0.1504 0.0274533 0 0.154244 0.02744 0 0.158089 0.0274267 0 0.161933 0.0274133 0 0.165778 0.0274 0 0.169622 0.0273867 0 0.173467 0.0273733 0 0.177311 0.02736 0 0.181156 0.0273467 0 0.185 0.0273333 0 0.127667 0.0284667 0 0.131489 0.0284133 0 0.135311 0.02836 0 0.139133 0.0283067 0 0.142956 0.0282533 0 0.146778 0.0282 0 0.1506 0.0281467 0 0.154422 0.0280933 0 0.158244 0.02804 0 0.162067 0.0279867 0 0.165889 0.0279333 0 0.169711 0.02788 0 0.173533 0.0278267 0 0.177356 0.0277733 0 0.181178 0.02772 0 0.185 0.0276667 0 0.128 0.0294 0 0.1318 0.0293067 0 0.1356 0.0292133 0 0.1394 0.02912 0 0.1432 0.0290267 0 0.147 0.0289333 0 0.1508 0.02884 0 0.1546 0.0287467 0 0.1584 0.0286533 0 0.1622 0.02856 0 0.166 0.0284667 0 0.1698 0.0283733 0 0.1736 0.02828 0 0.1774 0.0281867 0 0.1812 0.0280933 0 0.185 0.028 0 0.128333 0.0303333 0 0.132111 0.0302 0 0.135889 0.0300667 0 0.139667 0.0299333 0 0.143444 0.0298 0 0.147222 0.0296667 0 0.151 0.0295333 0 0.154778 0.0294 0 0.158556 0.0292667 0 0.162333 0.0291333 0 0.166111 0.029 0 0.169889 0.0288667 0 0.173667 0.0287333 0 0.177444 0.0286 0 0.181222 0.0284667 0 0.185 0.0283333 0 0.128667 0.0312667 0 0.132422 0.0310933 0 0.136178 0.03092 0 0.139933 0.0307467 0 0.143689 0.0305733 0 0.147444 0.0304 0 0.1512 0.0302267 0 0.154956 0.0300533 0 0.158711 0.02988 0 0.162467 0.0297067 0 0.166222 0.0295333 0 0.169978 0.02936 0 0.173733 0.0291867 0 0.177489 0.0290133 0 0.181244 0.02884 0 0.185 0.0286667 0 0.129 0.0322 0 0.132733 0.0319867 0 0.136467 0.0317733 0 0.1402 0.03156 0 0.143933 0.0313467 0 0.147667 0.0311333 0 0.1514 0.03092 0 0.155133 0.0307067 0 0.158867 0.0304933 0 0.1626 0.03028 0 0.166333 0.0300667 0 0.170067 0.0298533 0 0.1738 0.02964 0 0.177533 0.0294267 0 0.181267 0.0292133 0 0.185 0.029 0 0.129333 0.0331333 0 0.133044 0.03288 0 0.136756 0.0326267 0 0.140467 0.0323733 0 0.144178 0.03212 0 0.147889 0.0318667 0 0.1516 0.0316133 0 0.155311 0.03136 0 0.159022 0.0311067 0 0.162733 0.0308533 0 0.166444 0.0306 0 0.170156 0.0303467 0 0.173867 0.0300933 0 0.177578 0.02984 0 0.181289 0.0295867 0 0.185 0.0293333 0 0.129667 0.0340667 0 0.133356 0.0337733 0 0.137044 0.03348 0 0.140733 0.0331867 0 0.144422 0.0328933 0 0.148111 0.0326 0 0.1518 0.0323067 0 0.155489 0.0320133 0 0.159178 0.03172 0 0.162867 0.0314267 0 0.166556 0.0311333 0 0.170244 0.03084 0 0.173933 0.0305467 0 0.177622 0.0302533 0 0.181311 0.02996 0 0.185 0.0296667 0 0.13 0.035 0 0.133667 0.0346667 0 0.137333 0.0343333 0 0.141 0.034 0 0.144667 0.0336667 0 0.148333 0.0333333 0 0.152 0.033 0 0.155667 0.0326667 0 0.159333 0.0323333 0 0.163 0.032 0 0.166667 0.0316667 0 0.170333 0.0313333 0 0.174 0.031 0 0.177667 0.0306667 0 0.181333 0.0303333 0 0.185 0.03 0 
</DataArray>
</Points> 
</Piece> 
</StructuredGrid> 
</VTKFile> 
