<?xml version="1.0"?> 
<VTKFile type="StructuredGrid" version="0.1"> 
<StructuredGrid WholeExtent="0 15 0 15 0 0"> 
<Piece Extent="0 15 0 15 0 0"> 
<PointData>
<DataArray type="Float32" Name="|E|" format="ascii" NumberOfComponents="3"> 
-2.06825e+06 0 0 -2.06828e+06 3178.06 0 -2.0684e+06 6356.43 0 -2.06859e+06 9535.38 0 -2.06885e+06 12715.2 0 -2.06919e+06 15896.3 0 -2.0696e+06 19078.9 0 -2.07009e+06 22263.3 0 -2.07066e+06 25449.7 0 -2.0713e+06 28638.5 0 -2.07202e+06 31829.9 0 -2.07281e+06 35024.3 0 -2.07368e+06 38222.1 0 -2.07462e+06 41423.6 0 -2.07564e+06 44629 0 -2.07673e+06 47837.7 0 -2.06557e+06 0 0 -2.06562e+06 3600.82 0 -2.06576e+06 7202.06 0 -2.06599e+06 10804.1 0 -2.06631e+06 14407.5 0 -2.06673e+06 18012.5 0 -2.06724e+06 21619.5 0 -2.06784e+06 25229.1 0 -2.06854e+06 28841.6 0 -2.06933e+06 32457.4 0 -2.07021e+06 36076.9 0 -2.07119e+06 39700.7 0 -2.07225e+06 43329.1 0 -2.07342e+06 46962.6 0 -2.07467e+06 50601.7 0 -2.07602e+06 54246.7 0 -2.06285e+06 0 0 -2.0629e+06 4037.25 0 -2.06307e+06 8075.07 0 -2.06335e+06 12114 0 -2.06374e+06 16154.6 0 -2.06424e+06 20197.5 0 -2.06486e+06 24243.2 0 -2.06559e+06 28292.3 0 -2.06642e+06 32345.3 0 -2.06738e+06 36402.9 0 -2.06844e+06 40465.5 0 -2.06962e+06 44533.9 0 -2.0709e+06 48608.6 0 -2.07231e+06 52690.2 0 -2.07382e+06 56779.2 0 -2.07545e+06 60876.2 0 -2.06007e+06 0 0 -2.06013e+06 4487.28 0 -2.06033e+06 8975.3 0 -2.06066e+06 13464.8 0 -2.06113e+06 17956.5 0 -2.06172e+06 22451.3 0 -2.06245e+06 26949.7 0 -2.06332e+06 31452.6 0 -2.06431e+06 35960.7 0 -2.06544e+06 40474.7 0 -2.0667e+06 44995.6 0 -2.0681e+06 49524 0 -2.06963e+06 54060.7 0 -2.07129e+06 58606.5 0 -2.07309e+06 63162 0 -2.07502e+06 67728.2 0 -2.05724e+06 0 0 -2.05731e+06 4950.83 0 -2.05755e+06 9902.61 0 -2.05793e+06 14856.3 0 -2.05848e+06 19812.9 0 -2.05918e+06 24773.3 0 -2.06003e+06 29738.5 0 -2.06104e+06 34709.5 0 -2.0622e+06 39687.3 0 -2.06352e+06 44672.8 0 -2.065e+06 49667 0 -2.06663e+06 54671 0 -2.06842e+06 59685.6 0 -2.07036e+06 64712 0 -2.07247e+06 69751.1 0 -2.07473e+06 74803.9 0 -2.05436e+06 0 0 -2.05444e+06 5427.82 0 -2.05471e+06 10856.9 0 -2.05516e+06 16288.3 0 -2.05579e+06 21723.4 0 -2.0566e+06 27163.4 0 -2.05758e+06 32609.5 0 -2.05875e+06 38062.9 0 -2.06009e+06 43524.9 0 -2.06162e+06 48996.7 0 -2.06333e+06 54479.6 0 -2.06521e+06 59974.8 0 -2.06728e+06 65483.6 0 -2.06953e+06 71007.4 0 -2.07196e+06 76547.2 0 -2.07458e+06 82104.6 0 -2.05142e+06 0 0 -2.05152e+06 5918.18 0 -2.05183e+06 11837.9 0 -2.05234e+06 17760.6 0 -2.05306e+06 23687.9 0 -2.05398e+06 29621.3 0 -2.05511e+06 35562.2 0 -2.05645e+06 41512.4 0 -2.05799e+06 47473.2 0 -2.05973e+06 53446.3 0 -2.06168e+06 59433.3 0 -2.06384e+06 65435.6 0 -2.06621e+06 71455 0 -2.06878e+06 77493 0 -2.07157e+06 83551.2 0 -2.07456e+06 89631.3 0 -2.04844e+06 0 0 -2.04855e+06 6421.83 0 -2.0489e+06 12845.5 0 -2.04948e+06 19273 0 -2.0503e+06 25706 0 -2.05134e+06 32146.5 0 -2.05262e+06 38596.4 0 -2.05413e+06 45057.6 0 -2.05588e+06 51531.9 0 -2.05786e+06 58021.4 0 -2.06007e+06 64527.9 0 -2.06252e+06 71053.5 0 -2.0652e+06 77600 0 -2.06813e+06 84169.5 0 -2.07128e+06 90764 0 -2.07468e+06 97385.5 0 -2.0454e+06 0 0 -2.04553e+06 6938.69 0 -2.04592e+06 13879.6 0 -2.04658e+06 20825.1 0 -2.04749e+06 27777.4 0 -2.04867e+06 34738.8 0 -2.05011e+06 41711.7 0 -2.05181e+06 48698.2 0 -2.05377e+06 55700.8 0 -2.056e+06 62721.7 0 -2.05849e+06 69763.5 0 -2.06124e+06 76828.4 0 -2.06427e+06 83918.9 0 -2.06755e+06 91037.4 0 -2.07111e+06 98186.5 0 -2.07493e+06 105369 0 -2.04232e+06 0 0 -2.04246e+06 7468.66 0 -2.0429e+06 14940.1 0 -2.04363e+06 22416.9 0 -2.04465e+06 29901.9 0 -2.04596e+06 37397.9 0 -2.04757e+06 44907.7 0 -2.04947e+06 52433.9 0 -2.05166e+06 59979.4 0 -2.05415e+06 67547.2 0 -2.05693e+06 75139.9 0 -2.06001e+06 82760.6 0 -2.06339e+06 90412.1 0 -2.06706e+06 98097.5 0 -2.07103e+06 105820 0 -2.07531e+06 113582 0 -2.03918e+06 0 0 -2.03934e+06 8011.68 0 -2.03983e+06 16026.6 0 -2.04064e+06 24048 0 -2.04177e+06 32079.2 0 -2.04323e+06 40123.5 0 -2.04501e+06 48184.1 0 -2.04712e+06 56264.4 0 -2.04955e+06 64367.7 0 -2.05232e+06 72497.4 0 -2.05541e+06 80657 0 -2.05883e+06 88850.1 0 -2.06257e+06 97080 0 -2.06665e+06 105350 0 -2.07107e+06 113665 0 -2.07581e+06 122027 0 -2.03599e+06 0 0 -2.03617e+06 8567.65 0 -2.03671e+06 17139.1 0 -2.0376e+06 25718.3 0 -2.03885e+06 34309 0 -2.04046e+06 42915.1 0 -2.04243e+06 51540.6 0 -2.04476e+06 60189.2 0 -2.04744e+06 68865.2 0 -2.05049e+06 77572.3 0 -2.0539e+06 86314.9 0 -2.05768e+06 95097 0 -2.06182e+06 103923 0 -2.06633e+06 112797 0 -2.0712e+06 121722 0 -2.07644e+06 130704 0 -2.03275e+06 0 0 -2.03295e+06 9136.5 0 -2.03354e+06 18277.5 0 -2.03452e+06 27427.5 0 -2.03589e+06 36591 0 -2.03766e+06 45772.5 0 -2.03982e+06 54976.7 0 -2.04238e+06 64208.2 0 -2.04533e+06 73471.6 0 -2.04868e+06 82771.7 0 -2.05243e+06 92113.4 0 -2.05658e+06 101502 0 -2.06112e+06 110941 0 -2.06608e+06 120437 0 -2.07143e+06 129994 0 -2.0772e+06 139617 0 -2.02947e+06 0 0 -2.02968e+06 9718.12 0 -2.03032e+06 19441.5 0 -2.0314e+06 29175.3 0 -2.0329e+06 38924.8 0 -2.03483e+06 48695.4 0 -2.03719e+06 58492.3 0 -2.03999e+06 68320.9 0 -2.04321e+06 78186.7 0 -2.04688e+06 88095.3 0 -2.05097e+06 98052.5 0 -2.05551e+06 108064 0 -2.06049e+06 118135 0 -2.0659e+06 128272 0 -2.07176e+06 138480 0 -2.07807e+06 148765 0 -2.02613e+06 0 0 -2.02636e+06 10312.4 0 -2.02706e+06 20630.9 0 -2.02823e+06 30961.5 0 -2.02986e+06 41310.2 0 -2.03197e+06 51683.3 0 -2.03454e+06 62086.7 0 -2.03758e+06 72526.9 0 -2.0411e+06 83010.1 0 -2.04508e+06 93542.9 0 -2.04954e+06 104132 0 -2.05448e+06 114784 0 -2.0599e+06 125505 0 -2.0658e+06 136302 0 -2.07219e+06 147181 0 -2.07906e+06 158151 0 -2.02274e+06 0 0 -2.02299e+06 10919.4 0 -2.02375e+06 21845.7 0 -2.02502e+06 32785.9 0 -2.02679e+06 43746.9 0 -2.02907e+06 54735.9 0 -2.03186e+06 65759.9 0 -2.03516e+06 76825.9 0 -2.03897e+06 87941.5 0 -2.0433e+06 99114.4 0 -2.04814e+06 110353 0 -2.0535e+06 121663 0 -2.05938e+06 133052 0 -2.06578e+06 144528 0 -2.07271e+06 156099 0 -2.08016e+06 167774 0 </DataArray> 
</PointData> 
<Points> 
<DataArray type="Float32" NumberOfComponents="3"> 
0 0.016 0 0.0004 0.016 0 0.0008 0.016 0 0.0012 0.016 0 0.0016 0.016 0 0.002 0.016 0 0.0024 0.016 0 0.0028 0.016 0 0.0032 0.016 0 0.0036 0.016 0 0.004 0.016 0 0.0044 0.016 0 0.0048 0.016 0 0.0052 0.016 0 0.0056 0.016 0 0.006 0.016 0 0 0.0163333 0 0.000444444 0.0163333 0 0.000888889 0.0163333 0 0.00133333 0.0163333 0 0.00177778 0.0163333 0 0.00222222 0.0163333 0 0.00266667 0.0163333 0 0.00311111 0.0163333 0 0.00355556 0.0163333 0 0.004 0.0163333 0 0.00444444 0.0163333 0 0.00488889 0.0163333 0 0.00533333 0.0163333 0 0.00577778 0.0163333 0 0.00622222 0.0163333 0 0.00666667 0.0163333 0 0 0.0166667 0 0.000488889 0.0166667 0 0.000977778 0.0166667 0 0.00146667 0.0166667 0 0.00195556 0.0166667 0 0.00244444 0.0166667 0 0.00293333 0.0166667 0 0.00342222 0.0166667 0 0.00391111 0.0166667 0 0.0044 0.0166667 0 0.00488889 0.0166667 0 0.00537778 0.0166667 0 0.00586667 0.0166667 0 0.00635556 0.0166667 0 0.00684444 0.0166667 0 0.00733333 0.0166667 0 0 0.017 0 0.000533333 0.017 0 0.00106667 0.017 0 0.0016 0.017 0 0.00213333 0.017 0 0.00266667 0.017 0 0.0032 0.017 0 0.00373333 0.017 0 0.00426667 0.017 0 0.0048 0.017 0 0.00533333 0.017 0 0.00586667 0.017 0 0.0064 0.017 0 0.00693333 0.017 0 0.00746667 0.017 0 0.008 0.017 0 0 0.0173333 0 0.000577778 0.0173333 0 0.00115556 0.0173333 0 0.00173333 0.0173333 0 0.00231111 0.0173333 0 0.00288889 0.0173333 0 0.00346667 0.0173333 0 0.00404444 0.0173333 0 0.00462222 0.0173333 0 0.0052 0.0173333 0 0.00577778 0.0173333 0 0.00635556 0.0173333 0 0.00693333 0.0173333 0 0.00751111 0.0173333 0 0.00808889 0.0173333 0 0.00866667 0.0173333 0 0 0.0176667 0 0.000622222 0.0176667 0 0.00124444 0.0176667 0 0.00186667 0.0176667 0 0.00248889 0.0176667 0 0.00311111 0.0176667 0 0.00373333 0.0176667 0 0.00435556 0.0176667 0 0.00497778 0.0176667 0 0.0056 0.0176667 0 0.00622222 0.0176667 0 0.00684444 0.0176667 0 0.00746667 0.0176667 0 0.00808889 0.0176667 0 0.00871111 0.0176667 0 0.00933333 0.0176667 0 0 0.018 0 0.000666667 0.018 0 0.00133333 0.018 0 0.002 0.018 0 0.00266667 0.018 0 0.00333333 0.018 0 0.004 0.018 0 0.00466667 0.018 0 0.00533333 0.018 0 0.006 0.018 0 0.00666667 0.018 0 0.00733333 0.018 0 0.008 0.018 0 0.00866667 0.018 0 0.00933333 0.018 0 0.01 0.018 0 0 0.0183333 0 0.000711111 0.0183333 0 0.00142222 0.0183333 0 0.00213333 0.0183333 0 0.00284444 0.0183333 0 0.00355556 0.0183333 0 0.00426667 0.0183333 0 0.00497778 0.0183333 0 0.00568889 0.0183333 0 0.0064 0.0183333 0 0.00711111 0.0183333 0 0.00782222 0.0183333 0 0.00853333 0.0183333 0 0.00924444 0.0183333 0 0.00995556 0.0183333 0 0.0106667 0.0183333 0 0 0.0186667 0 0.000755556 0.0186667 0 0.00151111 0.0186667 0 0.00226667 0.0186667 0 0.00302222 0.0186667 0 0.00377778 0.0186667 0 0.00453333 0.0186667 0 0.00528889 0.0186667 0 0.00604444 0.0186667 0 0.0068 0.0186667 0 0.00755556 0.0186667 0 0.00831111 0.0186667 0 0.00906667 0.0186667 0 0.00982222 0.0186667 0 0.0105778 0.0186667 0 0.0113333 0.0186667 0 0 0.019 0 0.0008 0.019 0 0.0016 0.019 0 0.0024 0.019 0 0.0032 0.019 0 0.004 0.019 0 0.0048 0.019 0 0.0056 0.019 0 0.0064 0.019 0 0.0072 0.019 0 0.008 0.019 0 0.0088 0.019 0 0.0096 0.019 0 0.0104 0.019 0 0.0112 0.019 0 0.012 0.019 0 0 0.0193333 0 0.000844444 0.0193333 0 0.00168889 0.0193333 0 0.00253333 0.0193333 0 0.00337778 0.0193333 0 0.00422222 0.0193333 0 0.00506667 0.0193333 0 0.00591111 0.0193333 0 0.00675556 0.0193333 0 0.0076 0.0193333 0 0.00844444 0.0193333 0 0.00928889 0.0193333 0 0.0101333 0.0193333 0 0.0109778 0.0193333 0 0.0118222 0.0193333 0 0.0126667 0.0193333 0 0 0.0196667 0 0.000888889 0.0196667 0 0.00177778 0.0196667 0 0.00266667 0.0196667 0 0.00355556 0.0196667 0 0.00444444 0.0196667 0 0.00533333 0.0196667 0 0.00622222 0.0196667 0 0.00711111 0.0196667 0 0.008 0.0196667 0 0.00888889 0.0196667 0 0.00977778 0.0196667 0 0.0106667 0.0196667 0 0.0115556 0.0196667 0 0.0124444 0.0196667 0 0.0133333 0.0196667 0 0 0.02 0 0.000933333 0.02 0 0.00186667 0.02 0 0.0028 0.02 0 0.00373333 0.02 0 0.00466667 0.02 0 0.0056 0.02 0 0.00653333 0.02 0 0.00746667 0.02 0 0.0084 0.02 0 0.00933333 0.02 0 0.0102667 0.02 0 0.0112 0.02 0 0.0121333 0.02 0 0.0130667 0.02 0 0.014 0.02 0 0 0.0203333 0 0.000977778 0.0203333 0 0.00195556 0.0203333 0 0.00293333 0.0203333 0 0.00391111 0.0203333 0 0.00488889 0.0203333 0 0.00586667 0.0203333 0 0.00684444 0.0203333 0 0.00782222 0.0203333 0 0.0088 0.0203333 0 0.00977778 0.0203333 0 0.0107556 0.0203333 0 0.0117333 0.0203333 0 0.0127111 0.0203333 0 0.0136889 0.0203333 0 0.0146667 0.0203333 0 0 0.0206667 0 0.00102222 0.0206667 0 0.00204444 0.0206667 0 0.00306667 0.0206667 0 0.00408889 0.0206667 0 0.00511111 0.0206667 0 0.00613333 0.0206667 0 0.00715556 0.0206667 0 0.00817778 0.0206667 0 0.0092 0.0206667 0 0.0102222 0.0206667 0 0.0112444 0.0206667 0 0.0122667 0.0206667 0 0.0132889 0.0206667 0 0.0143111 0.0206667 0 0.0153333 0.0206667 0 0 0.021 0 0.00106667 0.021 0 0.00213333 0.021 0 0.0032 0.021 0 0.00426667 0.021 0 0.00533333 0.021 0 0.0064 0.021 0 0.00746667 0.021 0 0.00853333 0.021 0 0.0096 0.021 0 0.0106667 0.021 0 0.0117333 0.021 0 0.0128 0.021 0 0.0138667 0.021 0 0.0149333 0.021 0 0.016 0.021 0 
</DataArray>
</Points> 
</Piece> 
</StructuredGrid> 
</VTKFile> 
