<?xml version="1.0"?> 
<VTKFile type="StructuredGrid" version="0.1"> 
<StructuredGrid WholeExtent="0 15 0 15 0 0"> 
<Piece Extent="0 15 0 15 0 0"> 
<PointData>
<DataArray type="Float32" Name="|E|" format="ascii" NumberOfComponents="3"> 
-2.13265e+06 0 0 -2.13903e+06 -0.00363855 0 -2.15827e+06 -0.00745185 0 -2.19068e+06 -0.0115997 0 -2.23679e+06 -0.0161755 0 -2.29736e+06 -0.0210974 0 -2.37342e+06 -0.0257862 0 -2.46627e+06 -0.0283951 0 -2.5774e+06 -0.0243501 0 -2.70826e+06 -0.00179229 0 -2.85957e+06 0.0624426 0 -3.02964e+06 0.210065 0 -3.21096e+06 0.475951 0 -3.3847e+06 0.758487 0 -3.51682e+06 0.685371 0 -3.56756e+06 3.21865e-06 0 -2.13254e+06 0 0 -2.13891e+06 1703.77 0 -2.15815e+06 3434.44 0 -2.19056e+06 5220.18 0 -2.23666e+06 7091.59 0 -2.29722e+06 9082.34 0 -2.37327e+06 11228.4 0 -2.46611e+06 13563.2 0 -2.57722e+06 16103.6 0 -2.70808e+06 18813 0 -2.8594e+06 21512.4 0 -3.02953e+06 23704.7 0 -3.21101e+06 24277.9 0 -3.38506e+06 21328.9 0 -3.51756e+06 12993.4 0 -3.56849e+06 -3.93949e-07 0 -2.1322e+06 0 0 -2.13857e+06 3407.06 0 -2.1578e+06 6867.9 0 -2.1902e+06 10438.8 0 -2.23627e+06 14181.1 0 -2.29681e+06 18161.9 0 -2.37282e+06 22453.4 0 -2.46562e+06 27122.7 0 -2.57669e+06 32203.9 0 -2.70753e+06 37625.8 0 -2.85888e+06 43032.8 0 -3.0292e+06 47437 0 -3.21117e+06 48618.3 0 -3.38615e+06 42757.8 0 -3.51979e+06 26077.5 0 -3.57129e+06 9.49949e-08 0 -2.13163e+06 0 0 -2.138e+06 5109.4 0 -2.15722e+06 10299.4 0 -2.18959e+06 15654.4 0 -2.23563e+06 21266.3 0 -2.29612e+06 27236 0 -2.37208e+06 33671.6 0 -2.46481e+06 40674.7 0 -2.57581e+06 48297.8 0 -2.70661e+06 56438 0 -2.85802e+06 64569.3 0 -3.02865e+06 71223.6 0 -3.21144e+06 73083.1 0 -3.38796e+06 64386.8 0 -3.52351e+06 39344.3 0 -3.57599e+06 1.76951e-08 0 -2.13084e+06 0 0 -2.1372e+06 6810.32 0 -2.1564e+06 13728 0 -2.18874e+06 20865.5 0 -2.23474e+06 28345.2 0 -2.29516e+06 36301.7 0 -2.37104e+06 44879.7 0 -2.46367e+06 54215.5 0 -2.57458e+06 64382 0 -2.70532e+06 75248.9 0 -2.85682e+06 86129.3 0 -3.02786e+06 95091.2 0 -3.21178e+06 97734.4 0 -3.39047e+06 86318.1 0 -3.52874e+06 52889.5 0 -3.58262e+06 -9.31323e-09 0 -2.12982e+06 0 0 -2.13618e+06 8509.33 0 -2.15535e+06 17152.7 0 -2.18764e+06 26070.5 0 -2.23358e+06 35415.6 0 -2.29392e+06 45356.4 0 -2.3697e+06 56074.2 0 -2.46221e+06 67741.2 0 -2.573e+06 80452.9 0 -2.70366e+06 94057.8 0 -2.85525e+06 107720 0 -3.02683e+06 119065 0 -3.2122e+06 122634 0 -3.39369e+06 108656 0 -3.53551e+06 66813.9 0 -3.59123e+06 -7.45058e-09 0 -2.12857e+06 0 0 -2.13492e+06 10206 0 -2.15407e+06 20572.5 0 -2.18631e+06 31267.9 0 -2.23217e+06 42475.4 0 -2.29241e+06 54397.3 0 -2.36806e+06 67251.7 0 -2.46042e+06 81248.1 0 -2.57106e+06 96506.9 0 -2.70162e+06 112863 0 -2.85333e+06 129347 0 -3.02554e+06 143170 0 -3.21265e+06 147842 0 -3.39759e+06 131509 0 -3.54385e+06 81225.9 0 -3.60191e+06 4.47035e-08 0 -2.1271e+06 0 0 -2.13344e+06 11899.8 0 -2.15255e+06 23986.5 0 -2.18473e+06 36456.3 0 -2.23051e+06 49522.6 0 -2.29063e+06 63421.6 0 -2.36612e+06 78408.9 0 -2.45831e+06 94732.1 0 -2.56876e+06 112540 0 -2.69921e+06 131664 0 -2.85103e+06 151016 0 -3.02397e+06 167427 0 -3.21311e+06 173420 0 -3.40215e+06 154987 0 -3.55379e+06 96243.5 0 -3.61475e+06 7.45058e-09 0 -2.12541e+06 0 0 -2.13173e+06 13590.2 0 -2.1508e+06 27393.7 0 -2.18292e+06 41634.1 0 -2.22859e+06 56555 0 -2.28857e+06 72426.6 0 -2.36389e+06 89542.1 0 -2.45587e+06 108189 0 -2.56611e+06 128549 0 -2.69641e+06 150458 0 -2.84835e+06 172732 0 -3.02209e+06 191859 0 -3.21355e+06 199425 0 -3.40734e+06 179208 0 -3.56538e+06 111997 0 -3.62986e+06 8.19564e-08 0 -2.12349e+06 0 0 -2.1298e+06 15277 0 -2.14882e+06 30793.2 0 -2.18086e+06 46799.8 0 -2.22641e+06 63570.6 0 -2.28624e+06 81409.4 0 -2.36137e+06 100648 0 -2.45311e+06 121616 0 -2.56311e+06 144529 0 -2.69323e+06 169242 0 -2.84528e+06 194496 0 -3.01989e+06 216482 0 -3.2139e+06 225917 0 -3.41312e+06 204291 0 -3.57867e+06 128632 0 -3.64739e+06 -2.6077e-07 0 -2.12135e+06 0 0 -2.12764e+06 16959.4 0 -2.14661e+06 34184 0 -2.17856e+06 51952 0 -2.22399e+06 70567.2 0 -2.28364e+06 90367.4 0 -2.35855e+06 111723 0 -2.45003e+06 135007 0 -2.55974e+06 160475 0 -2.68965e+06 188012 0 -2.8418e+06 216312 0 -3.01732e+06 241312 0 -3.21413e+06 252951 0 -3.41945e+06 230364 0 -3.59372e+06 146313 0 -3.66752e+06 1.49012e-07 0 -2.11898e+06 0 0 -2.12525e+06 18637.2 0 -2.14417e+06 37565.2 0 -2.17602e+06 57089.2 0 -2.22131e+06 77542.7 0 -2.28077e+06 99297.7 0 -2.35543e+06 122764 0 -2.44662e+06 148359 0 -2.55602e+06 176384 0 -2.68568e+06 206764 0 -2.8379e+06 238178 0 -3.01436e+06 266360 0 -3.21417e+06 280580 0 -3.42628e+06 257560 0 -3.6106e+06 165227 0 -3.69046e+06 7.45058e-08 0 -2.11639e+06 0 0 -2.12264e+06 20309.9 0 -2.1415e+06 40935.8 0 -2.17324e+06 62209.9 0 -2.21838e+06 84495.2 0 -2.27763e+06 108198 0 -2.35202e+06 133766 0 -2.44288e+06 161667 0 -2.55194e+06 192249 0 -2.68131e+06 225494 0 -2.83357e+06 260094 0 -3.01097e+06 291633 0 -3.21395e+06 308855 0 -3.43353e+06 286015 0 -3.62936e+06 185591 0 -3.71648e+06 -1.93715e-07 0 -2.11358e+06 0 0 -2.11981e+06 21976.9 0 -2.1386e+06 44295 0 -2.17023e+06 67312.7 0 -2.2152e+06 91422.6 0 -2.27423e+06 117065 0 -2.34832e+06 144727 0 -2.43883e+06 174927 0 -2.5475e+06 208065 0 -2.67653e+06 244193 0 -2.82879e+06 282058 0 -3.00713e+06 317135 0 -3.21339e+06 337820 0 -3.44112e+06 315874 0 -3.65008e+06 207653 0 -3.74591e+06 1.93715e-07 0 -2.11054e+06 0 0 -2.11675e+06 23637.9 0 -2.13547e+06 47641.7 0 -2.16698e+06 72396.3 0 -2.21176e+06 98322.8 0 -2.27055e+06 125896 0 -2.34433e+06 155643 0 -2.43445e+06 188134 0 -2.54269e+06 223826 0 -2.67134e+06 262856 0 -2.82354e+06 304064 0 -3.00277e+06 342861 0 -3.2124e+06 367519 0 -3.44894e+06 347284 0 -3.67283e+06 231704 0 -3.77916e+06 -3.8743e-07 0 -2.10729e+06 0 0 -2.11347e+06 25292.5 0 -2.13211e+06 50975.1 0 -2.16349e+06 77459 0 -2.20809e+06 105194 0 -2.26661e+06 134688 0 -2.34005e+06 166510 0 -2.42975e+06 201284 0 -2.53753e+06 239528 0 -2.66573e+06 281474 0 -2.81781e+06 326109 0 -2.99788e+06 368803 0 -3.21089e+06 397985 0 -3.45687e+06 380396 0 -3.69766e+06 258075 0 -3.81674e+06 2.02656e-06 0 </DataArray> 
</PointData> 
<Points> 
<DataArray type="Float32" NumberOfComponents="3"> 
0 0 0 0.005 0 0 0.01 0 0 0.015 0 0 0.02 0 0 0.025 0 0 0.03 0 0 0.035 0 0 0.04 0 0 0.045 0 0 0.05 0 0 0.055 0 0 0.06 0 0 0.065 0 0 0.07 0 0 0.075 0 0 0 0.000666667 0 0.005 0.000666667 0 0.01 0.000666667 0 0.015 0.000666667 0 0.02 0.000666667 0 0.025 0.000666667 0 0.03 0.000666667 0 0.035 0.000666667 0 0.04 0.000666667 0 0.045 0.000666667 0 0.05 0.000666667 0 0.055 0.000666667 0 0.06 0.000666667 0 0.065 0.000666667 0 0.07 0.000666667 0 0.075 0.000666667 0 0 0.00133333 0 0.005 0.00133333 0 0.01 0.00133333 0 0.015 0.00133333 0 0.02 0.00133333 0 0.025 0.00133333 0 0.03 0.00133333 0 0.035 0.00133333 0 0.04 0.00133333 0 0.045 0.00133333 0 0.05 0.00133333 0 0.055 0.00133333 0 0.06 0.00133333 0 0.065 0.00133333 0 0.07 0.00133333 0 0.075 0.00133333 0 0 0.002 0 0.005 0.002 0 0.01 0.002 0 0.015 0.002 0 0.02 0.002 0 0.025 0.002 0 0.03 0.002 0 0.035 0.002 0 0.04 0.002 0 0.045 0.002 0 0.05 0.002 0 0.055 0.002 0 0.06 0.002 0 0.065 0.002 0 0.07 0.002 0 0.075 0.002 0 0 0.00266667 0 0.005 0.00266667 0 0.01 0.00266667 0 0.015 0.00266667 0 0.02 0.00266667 0 0.025 0.00266667 0 0.03 0.00266667 0 0.035 0.00266667 0 0.04 0.00266667 0 0.045 0.00266667 0 0.05 0.00266667 0 0.055 0.00266667 0 0.06 0.00266667 0 0.065 0.00266667 0 0.07 0.00266667 0 0.075 0.00266667 0 0 0.00333333 0 0.005 0.00333333 0 0.01 0.00333333 0 0.015 0.00333333 0 0.02 0.00333333 0 0.025 0.00333333 0 0.03 0.00333333 0 0.035 0.00333333 0 0.04 0.00333333 0 0.045 0.00333333 0 0.05 0.00333333 0 0.055 0.00333333 0 0.06 0.00333333 0 0.065 0.00333333 0 0.07 0.00333333 0 0.075 0.00333333 0 0 0.004 0 0.005 0.004 0 0.01 0.004 0 0.015 0.004 0 0.02 0.004 0 0.025 0.004 0 0.03 0.004 0 0.035 0.004 0 0.04 0.004 0 0.045 0.004 0 0.05 0.004 0 0.055 0.004 0 0.06 0.004 0 0.065 0.004 0 0.07 0.004 0 0.075 0.004 0 0 0.00466667 0 0.005 0.00466667 0 0.01 0.00466667 0 0.015 0.00466667 0 0.02 0.00466667 0 0.025 0.00466667 0 0.03 0.00466667 0 0.035 0.00466667 0 0.04 0.00466667 0 0.045 0.00466667 0 0.05 0.00466667 0 0.055 0.00466667 0 0.06 0.00466667 0 0.065 0.00466667 0 0.07 0.00466667 0 0.075 0.00466667 0 0 0.00533333 0 0.005 0.00533333 0 0.01 0.00533333 0 0.015 0.00533333 0 0.02 0.00533333 0 0.025 0.00533333 0 0.03 0.00533333 0 0.035 0.00533333 0 0.04 0.00533333 0 0.045 0.00533333 0 0.05 0.00533333 0 0.055 0.00533333 0 0.06 0.00533333 0 0.065 0.00533333 0 0.07 0.00533333 0 0.075 0.00533333 0 0 0.006 0 0.005 0.006 0 0.01 0.006 0 0.015 0.006 0 0.02 0.006 0 0.025 0.006 0 0.03 0.006 0 0.035 0.006 0 0.04 0.006 0 0.045 0.006 0 0.05 0.006 0 0.055 0.006 0 0.06 0.006 0 0.065 0.006 0 0.07 0.006 0 0.075 0.006 0 0 0.00666667 0 0.005 0.00666667 0 0.01 0.00666667 0 0.015 0.00666667 0 0.02 0.00666667 0 0.025 0.00666667 0 0.03 0.00666667 0 0.035 0.00666667 0 0.04 0.00666667 0 0.045 0.00666667 0 0.05 0.00666667 0 0.055 0.00666667 0 0.06 0.00666667 0 0.065 0.00666667 0 0.07 0.00666667 0 0.075 0.00666667 0 0 0.00733333 0 0.005 0.00733333 0 0.01 0.00733333 0 0.015 0.00733333 0 0.02 0.00733333 0 0.025 0.00733333 0 0.03 0.00733333 0 0.035 0.00733333 0 0.04 0.00733333 0 0.045 0.00733333 0 0.05 0.00733333 0 0.055 0.00733333 0 0.06 0.00733333 0 0.065 0.00733333 0 0.07 0.00733333 0 0.075 0.00733333 0 0 0.008 0 0.005 0.008 0 0.01 0.008 0 0.015 0.008 0 0.02 0.008 0 0.025 0.008 0 0.03 0.008 0 0.035 0.008 0 0.04 0.008 0 0.045 0.008 0 0.05 0.008 0 0.055 0.008 0 0.06 0.008 0 0.065 0.008 0 0.07 0.008 0 0.075 0.008 0 0 0.00866667 0 0.005 0.00866667 0 0.01 0.00866667 0 0.015 0.00866667 0 0.02 0.00866667 0 0.025 0.00866667 0 0.03 0.00866667 0 0.035 0.00866667 0 0.04 0.00866667 0 0.045 0.00866667 0 0.05 0.00866667 0 0.055 0.00866667 0 0.06 0.00866667 0 0.065 0.00866667 0 0.07 0.00866667 0 0.075 0.00866667 0 0 0.00933333 0 0.005 0.00933333 0 0.01 0.00933333 0 0.015 0.00933333 0 0.02 0.00933333 0 0.025 0.00933333 0 0.03 0.00933333 0 0.035 0.00933333 0 0.04 0.00933333 0 0.045 0.00933333 0 0.05 0.00933333 0 0.055 0.00933333 0 0.06 0.00933333 0 0.065 0.00933333 0 0.07 0.00933333 0 0.075 0.00933333 0 0 0.01 0 0.005 0.01 0 0.01 0.01 0 0.015 0.01 0 0.02 0.01 0 0.025 0.01 0 0.03 0.01 0 0.035 0.01 0 0.04 0.01 0 0.045 0.01 0 0.05 0.01 0 0.055 0.01 0 0.06 0.01 0 0.065 0.01 0 0.07 0.01 0 0.075 0.01 0 
</DataArray>
</Points> 
</Piece> 
</StructuredGrid> 
</VTKFile> 
