<?xml version="1.0"?> 
<VTKFile type="StructuredGrid" version="0.1"> 
<StructuredGrid WholeExtent="0 15 0 15 0 0"> 
<Piece Extent="0 15 0 15 0 0"> 
<PointData>
<DataArray type="Float32" Name="|E|" format="ascii" NumberOfComponents="3"> 
2.98023e-07 1.71661e-05 0 -4.07308e-08 695.163 0 2.69501e-08 356.092 0 2.56114e-09 165.188 0 -2.53785e-08 85.9466 0 3.35276e-08 44.838 0 -3.63216e-08 25.0459 0 3.53903e-08 14.2931 0 -3.07336e-08 8.32944 0 2.04891e-08 4.93209 0 -1.86265e-08 2.92684 0 2.23517e-08 1.73733 0 -3.35276e-08 1.01298 0 2.23517e-08 0.555983 0 7.45058e-09 0.246349 0 -3.27826e-07 4.52995e-06 0 71.9721 -1.82539e-07 0 -11.5408 695.004 0 -6.27551 356.159 0 -3.63475 165.08 0 -1.91566 85.9539 0 -1.07661 44.8095 0 -0.614154 25.0437 0 -0.380333 14.2854 0 -0.226258 8.32705 0 -0.149108 4.92955 0 -0.0909327 2.92548 0 -0.061111 1.73631 0 -0.0389852 1.01236 0 -0.0275747 0.555578 0 -0.0209439 0.24616 0 -0.0195083 -4.30504e-07 0 144.225 -1.40443e-06 0 -23.1318 694.525 0 -12.5483 356.362 0 -7.26408 164.755 0 -3.8331 85.9766 0 -2.15019 44.7235 0 -1.22915 25.0373 0 -0.759585 14.2621 0 -0.452699 8.31993 0 -0.297886 4.92191 0 -0.181849 2.92142 0 -0.12212 1.73327 0 -0.0779301 1.01047 0 -0.0551073 0.554372 0 -0.0418556 0.245588 0 -0.0389751 1.86265e-07 0 217.041 1.33365e-06 0 -34.8234 693.714 0 -18.8158 356.707 0 -10.8825 164.21 0 -5.75422 86.0166 0 -3.21762 44.579 0 -1.84587 25.0271 0 -1.13663 14.2229 0 -0.679534 8.30819 0 -0.44599 4.90914 0 -0.272741 2.91467 0 -0.18292 1.72819 0 -0.116797 1.00733 0 -0.0825545 0.552367 0 -0.0627032 0.244634 0 -0.0583608 -2.03028e-07 0 290.705 -8.9407e-07 0 -46.6659 692.554 0 -25.0756 357.203 0 -14.4841 163.44 0 -7.68112 86.077 0 -4.27563 44.3745 0 -2.46535 25.0142 0 -1.51028 14.1676 0 -0.907026 8.29204 0 -0.593043 4.89116 0 -0.363621 2.90527 0 -0.243395 1.7211 0 -0.155552 1.00293 0 -0.109871 0.549571 0 -0.0834557 0.243294 0 -0.0776257 2.34693e-07 0 365.507 1.3113e-06 0 -58.7099 691.02 0 -31.3255 357.862 0 -18.0629 162.436 0 -9.61625 86.1626 0 -5.32069 44.1075 0 -3.08879 25 0 -1.87919 14.0955 0 -1.13552 8.27179 0 -0.73862 4.86791 0 -0.454529 2.89324 0 -0.303414 1.71199 0 -0.194173 0.997266 0 -0.137008 0.545995 0 -0.104084 0.241564 0 -0.0967331 2.68221e-07 0 441.744 -2.98023e-07 0 -71.0061 689.079 0 -37.5636 358.702 0 -21.6121 161.19 0 -11.5625 86.2793 0 -6.34891 43.7748 0 -3.71765 24.9861 0 -2.24186 14.0058 0 -1.36548 8.24783 0 -0.882224 4.83927 0 -0.545546 2.87865 0 -0.362822 1.70088 0 -0.232644 0.99034 0 -0.163912 0.541662 0 -0.124559 0.239435 0 -0.115651 -2.90573e-07 0 519.718 -5.96046e-07 0 -83.6051 686.691 0 -43.7888 359.745 0 -25.1246 159.688 0 -13.5233 86.4347 0 -7.35597 43.3727 0 -4.35375 24.9748 0 -2.59655 13.8976 0 -1.59752 8.22066 0 -1.02327 4.80509 0 -0.63681 2.86155 0 -0.421436 1.68779 0 -0.270971 0.982136 0 -0.190521 0.536597 0 -0.144856 0.236892 0 -0.134354 3.27826e-07 0 599.744 -1.19209e-07 0 -96.5581 683.807 0 -50.0003 361.015 0 -28.5921 157.915 0 -15.5029 86.6379 0 -8.33699 42.8963 0 -4.99932 24.9689 0 -2.94125 13.7695 0 -1.83245 8.19088 0 -1.16104 4.7652 0 -0.728533 2.842 0 -0.479031 1.67276 0 -0.309178 0.972634 0 -0.216766 0.530841 0 -0.164953 0.23391 0 -0.15283 -2.23517e-07 0 682.145 2.6226e-06 0 -109.916 680.371 0 -56.1982 362.543 0 -32.0057 155.854 0 -17.5062 86.8997 0 -9.28637 42.3399 0 -5.6571 24.9716 0 -3.27357 13.6203 0 -2.07133 8.15922 0 -1.29468 4.71941 0 -0.821021 2.82008 0 -0.53533 1.65583 0 -0.34732 0.961796 0 -0.242561 0.524451 0 -0.18483 0.230452 0 -0.171084 2.83122e-07 0 767.259 -3.21865e-06 0 -123.731 676.318 0 -62.3833 364.364 0 -35.3552 153.485 0 -19.5396 87.2329 0 -10.1977 41.6968 0 -6.33049 24.9868 0 -3.59066 13.4482 0 -2.31553 8.12654 0 -1.42312 4.66746 0 -0.914702 2.79585 0 -0.589986 1.63707 0 -0.385491 0.949565 0 -0.267806 0.51751 0 -0.204471 0.226459 0 -0.189154 -4.47035e-07 0 855.438 1.66893e-06 0 -138.054 671.573 0 -68.5578 366.518 0 -38.6289 150.782 0 -21.6101 87.6521 0 -11.0636 40.959 0 -7.02366 25.019 0 -3.88913 13.251 0 -2.5668 8.09386 0 -1.54506 4.60909 0 -1.01016 2.76939 0 -0.642564 1.61659 0 -0.423833 0.935851 0 -0.292375 0.510131 0 -0.223866 0.221842 0 -0.207122 3.27826e-07 0 947.05 -7.15256e-07 0 -152.937 666.051 0 -74.7248 369.051 0 -41.8137 147.719 0 -23.7268 88.1743 0 -11.8754 40.1175 0 -7.74171 25.0734 0 -4.16494 13.0264 0 -2.82736 8.06233 0 -1.65888 4.544 0 -1.10817 2.74073 0 -0.692511 1.59452 0 -0.462558 0.92052 0 -0.316113 0.502478 0 -0.243004 0.216469 0 -0.225146 -2.08616e-07 0 1042.48 4.76837e-07 0 -168.432 659.658 0 -80.889 372.015 0 -44.8946 144.264 0 -25.9001 88.8188 0 -12.6232 39.1616 0 -8.49082 25.1562 0 -4.41323 12.7716 0 -3.09999 8.0333 0 -1.7626 4.47184 0 -1.20976 2.70991 0 -0.739127 1.57106 0 -0.501958 0.903376 0 -0.338825 0.494777 0 -0.261881 0.210146 0 -0.243489 2.08616e-07 0 1142.14 -7.15256e-07 0 -184.59 652.288 0 -87.057 375.47 0 -47.8545 140.383 0 -28.1426 89.6076 0 -13.2954 38.0794 0 -9.27848 25.2743 0 -4.62817 12.4833 0 -3.38818 8.00831 0 -1.85375 4.39224 0 -1.31627 2.67691 0 -0.781527 1.5465 0 -0.542438 0.884134 0 -0.360265 0.487349 0 -0.280488 0.202591 0 -0.262578 5.96046e-08 0 1246.46 1.90735e-06 0 -201.465 643.825 0 -93.2371 379.479 0 -50.6736 136.035 0 -30.469 90.5655 0 -13.8783 36.8569 0 -10.1138 25.4358 0 -4.8028 12.1578 0 -3.69625 7.9891 0 -1.9293 4.30482 0 -1.4294 2.64163 0 -0.818583 1.52123 0 -0.584542 0.862398 0 -0.380118 0.480632 0 -0.298809 0.193402 0 -0.283084 -4.76837e-06 0 </DataArray> 
</PointData> 
<Points> 
<DataArray type="Float32" NumberOfComponents="3"> 
0.125 0.02 0 0.129 0.02 0 0.133 0.02 0 0.137 0.02 0 0.141 0.02 0 0.145 0.02 0 0.149 0.02 0 0.153 0.02 0 0.157 0.02 0 0.161 0.02 0 0.165 0.02 0 0.169 0.02 0 0.173 0.02 0 0.177 0.02 0 0.181 0.02 0 0.185 0.02 0 0.125 0.0200667 0 0.129 0.0200844 0 0.133 0.0201022 0 0.137 0.02012 0 0.141 0.0201378 0 0.145 0.0201556 0 0.149 0.0201733 0 0.153 0.0201911 0 0.157 0.0202089 0 0.161 0.0202267 0 0.165 0.0202444 0 0.169 0.0202622 0 0.173 0.02028 0 0.177 0.0202978 0 0.181 0.0203156 0 0.185 0.0203333 0 0.125 0.0201333 0 0.129 0.0201689 0 0.133 0.0202044 0 0.137 0.02024 0 0.141 0.0202756 0 0.145 0.0203111 0 0.149 0.0203467 0 0.153 0.0203822 0 0.157 0.0204178 0 0.161 0.0204533 0 0.165 0.0204889 0 0.169 0.0205244 0 0.173 0.02056 0 0.177 0.0205956 0 0.181 0.0206311 0 0.185 0.0206667 0 0.125 0.0202 0 0.129 0.0202533 0 0.133 0.0203067 0 0.137 0.02036 0 0.141 0.0204133 0 0.145 0.0204667 0 0.149 0.02052 0 0.153 0.0205733 0 0.157 0.0206267 0 0.161 0.02068 0 0.165 0.0207333 0 0.169 0.0207867 0 0.173 0.02084 0 0.177 0.0208933 0 0.181 0.0209467 0 0.185 0.021 0 0.125 0.0202667 0 0.129 0.0203378 0 0.133 0.0204089 0 0.137 0.02048 0 0.141 0.0205511 0 0.145 0.0206222 0 0.149 0.0206933 0 0.153 0.0207644 0 0.157 0.0208356 0 0.161 0.0209067 0 0.165 0.0209778 0 0.169 0.0210489 0 0.173 0.02112 0 0.177 0.0211911 0 0.181 0.0212622 0 0.185 0.0213333 0 0.125 0.0203333 0 0.129 0.0204222 0 0.133 0.0205111 0 0.137 0.0206 0 0.141 0.0206889 0 0.145 0.0207778 0 0.149 0.0208667 0 0.153 0.0209556 0 0.157 0.0210444 0 0.161 0.0211333 0 0.165 0.0212222 0 0.169 0.0213111 0 0.173 0.0214 0 0.177 0.0214889 0 0.181 0.0215778 0 0.185 0.0216667 0 0.125 0.0204 0 0.129 0.0205067 0 0.133 0.0206133 0 0.137 0.02072 0 0.141 0.0208267 0 0.145 0.0209333 0 0.149 0.02104 0 0.153 0.0211467 0 0.157 0.0212533 0 0.161 0.02136 0 0.165 0.0214667 0 0.169 0.0215733 0 0.173 0.02168 0 0.177 0.0217867 0 0.181 0.0218933 0 0.185 0.022 0 0.125 0.0204667 0 0.129 0.0205911 0 0.133 0.0207156 0 0.137 0.02084 0 0.141 0.0209644 0 0.145 0.0210889 0 0.149 0.0212133 0 0.153 0.0213378 0 0.157 0.0214622 0 0.161 0.0215867 0 0.165 0.0217111 0 0.169 0.0218356 0 0.173 0.02196 0 0.177 0.0220844 0 0.181 0.0222089 0 0.185 0.0223333 0 0.125 0.0205333 0 0.129 0.0206756 0 0.133 0.0208178 0 0.137 0.02096 0 0.141 0.0211022 0 0.145 0.0212444 0 0.149 0.0213867 0 0.153 0.0215289 0 0.157 0.0216711 0 0.161 0.0218133 0 0.165 0.0219556 0 0.169 0.0220978 0 0.173 0.02224 0 0.177 0.0223822 0 0.181 0.0225244 0 0.185 0.0226667 0 0.125 0.0206 0 0.129 0.02076 0 0.133 0.02092 0 0.137 0.02108 0 0.141 0.02124 0 0.145 0.0214 0 0.149 0.02156 0 0.153 0.02172 0 0.157 0.02188 0 0.161 0.02204 0 0.165 0.0222 0 0.169 0.02236 0 0.173 0.02252 0 0.177 0.02268 0 0.181 0.02284 0 0.185 0.023 0 0.125 0.0206667 0 0.129 0.0208444 0 0.133 0.0210222 0 0.137 0.0212 0 0.141 0.0213778 0 0.145 0.0215556 0 0.149 0.0217333 0 0.153 0.0219111 0 0.157 0.0220889 0 0.161 0.0222667 0 0.165 0.0224444 0 0.169 0.0226222 0 0.173 0.0228 0 0.177 0.0229778 0 0.181 0.0231556 0 0.185 0.0233333 0 0.125 0.0207333 0 0.129 0.0209289 0 0.133 0.0211244 0 0.137 0.02132 0 0.141 0.0215156 0 0.145 0.0217111 0 0.149 0.0219067 0 0.153 0.0221022 0 0.157 0.0222978 0 0.161 0.0224933 0 0.165 0.0226889 0 0.169 0.0228844 0 0.173 0.02308 0 0.177 0.0232756 0 0.181 0.0234711 0 0.185 0.0236667 0 0.125 0.0208 0 0.129 0.0210133 0 0.133 0.0212267 0 0.137 0.02144 0 0.141 0.0216533 0 0.145 0.0218667 0 0.149 0.02208 0 0.153 0.0222933 0 0.157 0.0225067 0 0.161 0.02272 0 0.165 0.0229333 0 0.169 0.0231467 0 0.173 0.02336 0 0.177 0.0235733 0 0.181 0.0237867 0 0.185 0.024 0 0.125 0.0208667 0 0.129 0.0210978 0 0.133 0.0213289 0 0.137 0.02156 0 0.141 0.0217911 0 0.145 0.0220222 0 0.149 0.0222533 0 0.153 0.0224844 0 0.157 0.0227156 0 0.161 0.0229467 0 0.165 0.0231778 0 0.169 0.0234089 0 0.173 0.02364 0 0.177 0.0238711 0 0.181 0.0241022 0 0.185 0.0243333 0 0.125 0.0209333 0 0.129 0.0211822 0 0.133 0.0214311 0 0.137 0.02168 0 0.141 0.0219289 0 0.145 0.0221778 0 0.149 0.0224267 0 0.153 0.0226756 0 0.157 0.0229244 0 0.161 0.0231733 0 0.165 0.0234222 0 0.169 0.0236711 0 0.173 0.02392 0 0.177 0.0241689 0 0.181 0.0244178 0 0.185 0.0246667 0 0.125 0.021 0 0.129 0.0212667 0 0.133 0.0215333 0 0.137 0.0218 0 0.141 0.0220667 0 0.145 0.0223333 0 0.149 0.0226 0 0.153 0.0228667 0 0.157 0.0231333 0 0.161 0.0234 0 0.165 0.0236667 0 0.169 0.0239333 0 0.173 0.0242 0 0.177 0.0244667 0 0.181 0.0247333 0 0.185 0.025 0 
</DataArray>
</Points> 
</Piece> 
</StructuredGrid> 
</VTKFile> 
