<?xml version="1.0"?> 
<VTKFile type="StructuredGrid" version="0.1"> 
<StructuredGrid WholeExtent="0 15 0 15 0 0"> 
<Piece Extent="0 15 0 15 0 0"> 
<PointData>
<DataArray type="Float32" Name="|E|" format="ascii" NumberOfComponents="3"> 
923723 5.00679e-06 0 1.09518e+06 -0.00635384 0 1.2387e+06 -0.0121535 0 1.292e+06 0.0144537 0 1.28637e+06 -0.00114302 0 1.25001e+06 0.00438353 0 1.20089e+06 -9.16962e-05 0 1.14893e+06 0.000989305 0 1.09891e+06 3.54704e-05 0 1.05325e+06 0.000212464 0 1.01313e+06 6.89588e-05 0 979309 8.02539e-05 0 952323 7.16373e-05 0 932641 4.81028e-05 0 920652 3.49851e-05 0 916622 0 0 923445 -7.28061e-07 0 1.09521e+06 -5094.01 0 1.23874e+06 -2586.07 0 1.29202e+06 -495.288 0 1.28638e+06 679.597 0 1.25002e+06 1230.89 0 1.20089e+06 1411.84 0 1.14893e+06 1408.67 0 1.09891e+06 1314.63 0 1.05324e+06 1176.01 0 1.01313e+06 1012.8 0 979306 832.98 0 952320 639.501 0 932638 434.201 0 920649 219.662 0 916619 0 0 922609 1.93715e-07 0 1.0953e+06 -10188.8 0 1.23884e+06 -5173.75 0 1.29209e+06 -988.664 0 1.28642e+06 1359.04 0 1.25003e+06 2462.36 0 1.2009e+06 2823.67 0 1.14893e+06 2817.46 0 1.0989e+06 2629.26 0 1.05324e+06 2352.04 0 1.01312e+06 2025.61 0 979299 1665.97 0 952312 1279.01 0 932629 868.408 0 920640 439.329 0 916610 0 0 921210 3.31551e-07 0 1.09545e+06 -15285.1 0 1.23901e+06 -7764.7 0 1.2922e+06 -1478.2 0 1.28647e+06 2038.15 0 1.25005e+06 3694.99 0 1.2009e+06 4235.46 0 1.14893e+06 4226.52 0 1.09889e+06 3943.9 0 1.05323e+06 3528.13 0 1.01311e+06 3038.44 0 979286 2498.98 0 952298 1918.54 0 932615 1302.63 0 920625 659.005 0 916595 0 0 919236 -3.01749e-07 0 1.09567e+06 -20383.5 0 1.23924e+06 -10360.7 0 1.29235e+06 -1961.91 0 1.28655e+06 2716.74 0 1.25008e+06 4929.38 0 1.20091e+06 5647.2 0 1.14892e+06 5635.98 0 1.09888e+06 5258.55 0 1.05321e+06 4704.31 0 1.01309e+06 4051.29 0 979268 3332.03 0 952279 2558.1 0 932595 1736.87 0 920604 878.695 0 916574 0 0 916675 3.72529e-07 0 1.09595e+06 -25484.2 0 1.23955e+06 -12963.6 0 1.29255e+06 -2437.72 0 1.28665e+06 3394.54 0 1.25012e+06 6166.17 0 1.20091e+06 7058.85 0 1.14891e+06 7045.97 0 1.09887e+06 6573.21 0 1.05319e+06 5880.6 0 1.01307e+06 5064.18 0 979245 4165.11 0 952255 3197.69 0 932569 2171.13 0 920577 1098.4 0 916547 0 0 913507 -5.81145e-07 0 1.09631e+06 -30587.2 0 1.23992e+06 -15575.5 0 1.29279e+06 -2903.44 0 1.28677e+06 4071.26 0 1.25017e+06 7405.99 0 1.20093e+06 8470.35 0 1.14891e+06 8456.66 0 1.09885e+06 7887.88 0 1.05317e+06 7057.04 0 1.01304e+06 6077.11 0 979217 4998.25 0 952225 3837.34 0 932537 2605.43 0 920544 1318.14 0 916514 0 0 909711 5.36442e-07 0 1.09674e+06 -35692.1 0 1.24036e+06 -18198.7 0 1.29307e+06 -3356.71 0 1.28692e+06 4746.51 0 1.25023e+06 8649.56 0 1.20094e+06 9881.63 0 1.14889e+06 9868.18 0 1.09883e+06 9202.54 0 1.05314e+06 8233.65 0 1.01301e+06 7090.1 0 979184 5831.45 0 952189 4477.04 0 932500 3039.76 0 920506 1537.9 0 916475 0 0 905257 -4.32134e-07 0 1.09725e+06 -40797.7 0 1.24086e+06 -20836 0 1.2934e+06 -3795.03 0 1.28709e+06 5419.78 0 1.2503e+06 9897.62 0 1.20095e+06 11292.6 0 1.14888e+06 11280.7 0 1.0988e+06 10517.2 0 1.05311e+06 9410.48 0 1.01298e+06 8103.14 0 979145 6664.73 0 952148 5116.81 0 932457 3474.13 0 920461 1757.69 0 916429 0 0 900114 1.49012e-07 0 1.09784e+06 -45902.4 0 1.24144e+06 -23490.2 0 1.29377e+06 -4215.64 0 1.28728e+06 6090.47 0 1.25037e+06 11151 0 1.20097e+06 12703.1 0 1.14887e+06 12694.5 0 1.09878e+06 11831.8 0 1.05308e+06 10587.6 0 1.01294e+06 9116.25 0 979102 7498.08 0 952102 5756.65 0 932408 3908.55 0 920410 1977.53 0 916378 0 0 894243 8.9407e-08 0 1.09854e+06 -51003.9 0 1.24207e+06 -26164.9 0 1.29419e+06 -4615.54 0 1.28749e+06 6757.83 0 1.25045e+06 12410.5 0 1.20099e+06 14113 0 1.14885e+06 14109.6 0 1.09874e+06 13146.3 0 1.05304e+06 11764.9 0 1.01289e+06 10129.4 0 979053 8331.54 0 952050 6396.58 0 932353 4343.02 0 920354 2197.41 0 916321 0 0 887602 -1.19209e-07 0 1.09933e+06 -56098.6 0 1.24277e+06 -28864.1 0 1.29465e+06 -4991.39 0 1.28772e+06 7420.94 0 1.25054e+06 13677.2 0 1.20101e+06 15522 0 1.14883e+06 15526.4 0 1.09871e+06 14460.8 0 1.05299e+06 12942.6 0 1.01284e+06 11142.7 0 979000 9165.1 0 951993 7036.62 0 932293 4777.55 0 920291 2417.34 0 916258 0 0 880139 -1.49012e-07 0 1.10024e+06 -61182.2 0 1.24354e+06 -31592.3 0 1.29515e+06 -5339.53 0 1.28798e+06 8078.67 0 1.25064e+06 14952.2 0 1.20103e+06 16930 0 1.14881e+06 16945 0 1.09867e+06 15775.1 0 1.05294e+06 14120.7 0 1.01279e+06 12156 0 978941 9998.77 0 951930 7676.76 0 932227 5212.15 0 920223 2637.33 0 916188 0 0 871797 1.78814e-07 0 1.10127e+06 -66249.2 0 1.24437e+06 -34354.8 0 1.2957e+06 -5655.85 0 1.28827e+06 8729.7 0 1.25074e+06 16236.5 0 1.20106e+06 18336.5 0 1.14879e+06 18365.8 0 1.09863e+06 17089.2 0 1.05289e+06 15299.2 0 1.01273e+06 13169.4 0 978877 10832.6 0 951862 8317.02 0 932155 5646.8 0 920148 2857.39 0 916113 0 0 862514 -2.98023e-07 0 1.10244e+06 -71292.6 0 1.24526e+06 -37157.7 0 1.29628e+06 -5935.78 0 1.28857e+06 9372.41 0 1.25086e+06 17531.6 0 1.20109e+06 19741.2 0 1.14876e+06 19789 0 1.09859e+06 18403 0 1.05283e+06 16478.2 0 1.01267e+06 14182.9 0 978807 11666.5 0 951788 8957.42 0 932077 6081.53 0 920068 3077.52 0 916032 0 0 852215 1.43051e-06 0 1.10376e+06 -76303.8 0 1.24621e+06 -40008 0 1.29691e+06 -6174.24 0 1.2889e+06 10004.9 0 1.25097e+06 18838.9 0 1.20112e+06 21143.7 0 1.14874e+06 21215 0 1.09854e+06 19716.5 0 1.05277e+06 17657.7 0 1.0126e+06 15196.5 0 978733 12500.6 0 951709 9597.96 0 931994 6516.32 0 919982 3297.74 0 915944 0 0 </DataArray> 
</PointData> 
<Points> 
<DataArray type="Float32" NumberOfComponents="3"> 
0.19 0 0 0.2022 0 0 0.2144 0 0 0.2266 0 0 0.2388 0 0 0.251 0 0 0.2632 0 0 0.2754 0 0 0.2876 0 0 0.2998 0 0 0.312 0 0 0.3242 0 0 0.3364 0 0 0.3486 0 0 0.3608 0 0 0.373 0 0 0.19 0.000333333 0 0.2022 0.000333333 0 0.2144 0.000333333 0 0.2266 0.000333333 0 0.2388 0.000333333 0 0.251 0.000333333 0 0.2632 0.000333333 0 0.2754 0.000333333 0 0.2876 0.000333333 0 0.2998 0.000333333 0 0.312 0.000333333 0 0.3242 0.000333333 0 0.3364 0.000333333 0 0.3486 0.000333333 0 0.3608 0.000333333 0 0.373 0.000333333 0 0.19 0.000666667 0 0.2022 0.000666667 0 0.2144 0.000666667 0 0.2266 0.000666667 0 0.2388 0.000666667 0 0.251 0.000666667 0 0.2632 0.000666667 0 0.2754 0.000666667 0 0.2876 0.000666667 0 0.2998 0.000666667 0 0.312 0.000666667 0 0.3242 0.000666667 0 0.3364 0.000666667 0 0.3486 0.000666667 0 0.3608 0.000666667 0 0.373 0.000666667 0 0.19 0.001 0 0.2022 0.001 0 0.2144 0.001 0 0.2266 0.001 0 0.2388 0.001 0 0.251 0.001 0 0.2632 0.001 0 0.2754 0.001 0 0.2876 0.001 0 0.2998 0.001 0 0.312 0.001 0 0.3242 0.001 0 0.3364 0.001 0 0.3486 0.001 0 0.3608 0.001 0 0.373 0.001 0 0.19 0.00133333 0 0.2022 0.00133333 0 0.2144 0.00133333 0 0.2266 0.00133333 0 0.2388 0.00133333 0 0.251 0.00133333 0 0.2632 0.00133333 0 0.2754 0.00133333 0 0.2876 0.00133333 0 0.2998 0.00133333 0 0.312 0.00133333 0 0.3242 0.00133333 0 0.3364 0.00133333 0 0.3486 0.00133333 0 0.3608 0.00133333 0 0.373 0.00133333 0 0.19 0.00166667 0 0.2022 0.00166667 0 0.2144 0.00166667 0 0.2266 0.00166667 0 0.2388 0.00166667 0 0.251 0.00166667 0 0.2632 0.00166667 0 0.2754 0.00166667 0 0.2876 0.00166667 0 0.2998 0.00166667 0 0.312 0.00166667 0 0.3242 0.00166667 0 0.3364 0.00166667 0 0.3486 0.00166667 0 0.3608 0.00166667 0 0.373 0.00166667 0 0.19 0.002 0 0.2022 0.002 0 0.2144 0.002 0 0.2266 0.002 0 0.2388 0.002 0 0.251 0.002 0 0.2632 0.002 0 0.2754 0.002 0 0.2876 0.002 0 0.2998 0.002 0 0.312 0.002 0 0.3242 0.002 0 0.3364 0.002 0 0.3486 0.002 0 0.3608 0.002 0 0.373 0.002 0 0.19 0.00233333 0 0.2022 0.00233333 0 0.2144 0.00233333 0 0.2266 0.00233333 0 0.2388 0.00233333 0 0.251 0.00233333 0 0.2632 0.00233333 0 0.2754 0.00233333 0 0.2876 0.00233333 0 0.2998 0.00233333 0 0.312 0.00233333 0 0.3242 0.00233333 0 0.3364 0.00233333 0 0.3486 0.00233333 0 0.3608 0.00233333 0 0.373 0.00233333 0 0.19 0.00266667 0 0.2022 0.00266667 0 0.2144 0.00266667 0 0.2266 0.00266667 0 0.2388 0.00266667 0 0.251 0.00266667 0 0.2632 0.00266667 0 0.2754 0.00266667 0 0.2876 0.00266667 0 0.2998 0.00266667 0 0.312 0.00266667 0 0.3242 0.00266667 0 0.3364 0.00266667 0 0.3486 0.00266667 0 0.3608 0.00266667 0 0.373 0.00266667 0 0.19 0.003 0 0.2022 0.003 0 0.2144 0.003 0 0.2266 0.003 0 0.2388 0.003 0 0.251 0.003 0 0.2632 0.003 0 0.2754 0.003 0 0.2876 0.003 0 0.2998 0.003 0 0.312 0.003 0 0.3242 0.003 0 0.3364 0.003 0 0.3486 0.003 0 0.3608 0.003 0 0.373 0.003 0 0.19 0.00333333 0 0.2022 0.00333333 0 0.2144 0.00333333 0 0.2266 0.00333333 0 0.2388 0.00333333 0 0.251 0.00333333 0 0.2632 0.00333333 0 0.2754 0.00333333 0 0.2876 0.00333333 0 0.2998 0.00333333 0 0.312 0.00333333 0 0.3242 0.00333333 0 0.3364 0.00333333 0 0.3486 0.00333333 0 0.3608 0.00333333 0 0.373 0.00333333 0 0.19 0.00366667 0 0.2022 0.00366667 0 0.2144 0.00366667 0 0.2266 0.00366667 0 0.2388 0.00366667 0 0.251 0.00366667 0 0.2632 0.00366667 0 0.2754 0.00366667 0 0.2876 0.00366667 0 0.2998 0.00366667 0 0.312 0.00366667 0 0.3242 0.00366667 0 0.3364 0.00366667 0 0.3486 0.00366667 0 0.3608 0.00366667 0 0.373 0.00366667 0 0.19 0.004 0 0.2022 0.004 0 0.2144 0.004 0 0.2266 0.004 0 0.2388 0.004 0 0.251 0.004 0 0.2632 0.004 0 0.2754 0.004 0 0.2876 0.004 0 0.2998 0.004 0 0.312 0.004 0 0.3242 0.004 0 0.3364 0.004 0 0.3486 0.004 0 0.3608 0.004 0 0.373 0.004 0 0.19 0.00433333 0 0.2022 0.00433333 0 0.2144 0.00433333 0 0.2266 0.00433333 0 0.2388 0.00433333 0 0.251 0.00433333 0 0.2632 0.00433333 0 0.2754 0.00433333 0 0.2876 0.00433333 0 0.2998 0.00433333 0 0.312 0.00433333 0 0.3242 0.00433333 0 0.3364 0.00433333 0 0.3486 0.00433333 0 0.3608 0.00433333 0 0.373 0.00433333 0 0.19 0.00466667 0 0.2022 0.00466667 0 0.2144 0.00466667 0 0.2266 0.00466667 0 0.2388 0.00466667 0 0.251 0.00466667 0 0.2632 0.00466667 0 0.2754 0.00466667 0 0.2876 0.00466667 0 0.2998 0.00466667 0 0.312 0.00466667 0 0.3242 0.00466667 0 0.3364 0.00466667 0 0.3486 0.00466667 0 0.3608 0.00466667 0 0.373 0.00466667 0 0.19 0.005 0 0.2022 0.005 0 0.2144 0.005 0 0.2266 0.005 0 0.2388 0.005 0 0.251 0.005 0 0.2632 0.005 0 0.2754 0.005 0 0.2876 0.005 0 0.2998 0.005 0 0.312 0.005 0 0.3242 0.005 0 0.3364 0.005 0 0.3486 0.005 0 0.3608 0.005 0 0.373 0.005 0 
</DataArray>
</Points> 
</Piece> 
</StructuredGrid> 
</VTKFile> 
