<?xml version="1.0"?> 
<VTKFile type="StructuredGrid" version="0.1"> 
<StructuredGrid WholeExtent="0 15 0 15 0 0"> 
<Piece Extent="0 15 0 15 0 0"> 
<PointData>
<DataArray type="Float32" Name="|E|" format="ascii" NumberOfComponents="3"> 
-1.78814e-07 5.84738e+06 0 2.06637e-09 3.76191e+06 0 5.12227e-08 2.66087e+06 0 -4.56348e-08 2.00436e+06 0 3.49246e-08 1.51445e+06 0 -7.45058e-09 1.10928e+06 0 3.25963e-08 765799 0 -5.58794e-08 487759 0 5.40167e-08 284404 0 -5.40167e-08 153239 0 9.68575e-08 77972.1 0 -1.22935e-07 38303.1 0 1.08033e-07 18487.8 0 -8.56817e-08 8815.78 0 3.72529e-08 4258.82 0 0 2829.74 0 -507992 4.22277e+06 0 -272667 2.94699e+06 0 -173042 2.21842e+06 0 -133834 1.70354e+06 0 -112501 1.28513e+06 0 -96321.8 927663 0 -78821.5 626289 0 -58631.8 389992 0 -38701.9 224028 0 -22848.1 120510 0 -12414.9 62003.5 0 -6404.73 31089.5 0 -3213 15376.5 0 -1584.41 7571.98 0 -764.909 3738.73 0 -118.097 1823.79 0 -622924 3.12639e+06 0 -381895 2.37964e+06 0 -286733 1.85669e+06 0 -239051 1.43393e+06 0 -206492 1.07058e+06 0 -175435 755597 0 -138906 495431 0 -99052.3 299931 0 -63137 169221 0 -36651.1 90743.4 0 -19946.2 47180.4 0 -10450.1 24126.3 0 -5361.51 12238.4 0 -2715.81 6190.17 0 -1334.15 3146.48 0 -537.593 1496.36 0 -606808 2.45774e+06 0 -452625 1.96291e+06 0 -375763 1.54811e+06 0 -325955 1.1876e+06 0 -283603 867950 0 -235161 592577 0 -178469 373771 0 -121706 218743 0 -75172.6 121027 0 -43116.9 64740 0 -23598.7 34046.7 0 -12580.1 17764.1 0 -6607.75 9238.65 0 -3435.96 4803.07 0 -1743.35 2500.41 0 -851.174 1226.54 0 -619410 2.01387e+06 0 -516427 1.62177e+06 0 -450243 1.27304e+06 0 -398071 957056 0 -341546 674657 0 -272233 438946 0 -196480 263347 0 -128208 148260 0 -77159.2 80471 0 -44008 43040.7 0 -24333.9 22933.7 0 -13228 12217.8 0 -7121.11 6515.43 0 -3802.87 3480.69 0 -1997.97 1852.01 0 -1047.68 940.992 0 -653466 1.65236e+06 0 -574140 1.32331e+06 0 -514434 1.01829e+06 0 -452860 736102 0 -375107 489672 0 -283431 297571 0 -193701 167608 0 -121478 90387.2 0 -71827.9 48200.1 0 -41046.7 25836 0 -23034.1 13963.4 0 -12798.4 7597.24 0 -7068.31 4153.64 0 -3879.89 2277.17 0 -2108.85 1237.04 0 -1152.6 647.998 0 -692340 1.33691e+06 0 -628744 1.04901e+06 0 -564996 772735 0 -482224 520880 0 -377715 316326 0 -267770 174389 0 -173540 90440.6 0 -105594 46320 0 -62014.4 24183.2 0 -35784.7 12950.8 0 -20467.1 7078.28 0 -11648.2 3923.34 0 -6606.06 2194.42 0 -3730.23 1230.45 0 -2094.48 679.013 0 -1182.29 362.528 0 -737568 1.04791e+06 0 -675069 781830 0 -589649 528109 0 -474337 314681 0 -345275 164114 0 -228990 76893.1 0 -142114 34478.2 0 -85146.3 15820.5 0 -50266.9 7659.52 0 -29495.8 3911.32 0 -17256.4 2085.88 0 -10077.3 1148.58 0 -5874.23 644.817 0 -3414.14 361.26 0 -1977.75 193.431 0 -1149.47 97.5003 0 -781335 760836 0 -694571 507198 0 -568316 287542 0 -419965 132362 0 -281753 46578.4 0 -176480 10575.1 0 -106958 -658.305 0 -64229.6 -2921.85 0 -38527.2 -2667.87 0 -23115 -1938.76 0 -13871.6 -1288.49 0 -8324.31 -821.023 0 -4991.24 -514.38 0 -2986.92 -324.418 0 -1783.14 -210.622 0 -1065.24 -137.509 0 -794969 453616 0 -654019 229143 0 -483961 74815.4 0 -323817 -2651.38 0 -202158 -25960.7 0 -122800 -25214.8 0 -74606.1 -18718.4 0 -45609.6 -12717.1 0 -28006 -8307.46 0 -17244.4 -5311.19 0 -10637.2 -3354.57 0 -6566.73 -2106 0 -4052.56 -1320.84 0 -2497.26 -832.476 0 -1534.75 -529.477 0 -940.649 -335.788 0 -723744 134198 0 -526084 -12164.3 0 -344751 -70631.2 0 -211261 -72999.3 0 -127493 -55501.8 0 -78109.3 -38020 0 -48622.8 -25216.4 0 -30531 -16487.9 0 -19271.9 -10679.7 0 -12209.1 -6879.62 0 -7752.13 -4419.34 0 -4926.96 -2836.81 0 -3130.74 -1823.71 0 -1986.18 -1177.44 0 -1254.85 -764.289 0 -786.564 -493.682 0 -530172 -127152 0 -331463 -152158 0 -195850 -123740 0 -116782 -85967.5 0 -72364.5 -57176.5 0 -46012 -37952 0 -29572.3 -25166.1 0 -19136 -16624 0 -12448.8 -10961.8 0 -8127 -7223.89 0 -5316.15 -4761.3 0 -3480.15 -3141.37 0 -2277.24 -2077.49 0 -1486.51 -1379.63 0 -963.137 -920.44 0 -612.646 -610.4 0 -271073 -232258 0 -151791 -164665 0 -90205.2 -107780 0 -57542.8 -71115.3 0 -37665.7 -47976.5 0 -24824.9 -32487.2 0 -16475.1 -21955.5 0 -11014.7 -14842 0 -7395.25 -10046.8 0 -4978.92 -6806.36 0 -3356.55 -4616.65 0 -2263.76 -3136.56 0 -1525.08 -2137.09 0 -1023.07 -1462.76 0 -676.254 -1006.92 0 -427.806 -688.572 0 -86126.8 -177652 0 -54874.6 -111560 0 -37496 -75664.8 0 -25357.9 -52831.1 0 -17082.2 -36694.6 0 -11640.4 -25408.6 0 -8012.68 -17637.9 0 -5539.34 -12278.8 0 -3839.4 -8558.14 0 -2666.04 -5972.57 0 -1852.51 -4174.22 0 -1287.08 -2923.34 0 -892.123 -2054.19 0 -613.466 -1451.89 0 -408.595 -1035.96 0 -235.568 -738.109 0 -25132.3 -96301.5 0 -17898.5 -71500.8 0 -11799.3 -51861 0 -8026.13 -36755.9 0 -5680.25 -26096.2 0 -4044.72 -18658 0 -2882.46 -13377.9 0 -2056.77 -9601.81 0 -1471.96 -6899.09 0 -1053.72 -4964.18 0 -754.751 -3577.45 0 -539.873 -2584.51 0 -384.519 -1874.8 0 -269.596 -1371.74 0 -175.34 -1022.86 0 -44.6607 -785.604 0 1.01328e-06 -53290.9 0 -9.27248e-08 -41473.8 0 1.72295e-08 -32961.8 0 -6.98492e-09 -24381.8 0 -2.04891e-08 -17774.9 0 -1.30385e-08 -13090.5 0 8.19564e-08 -9682.33 0 -8.9407e-08 -7168.85 0 3.35276e-08 -5310.86 0 -7.07805e-08 -3940.71 0 7.45058e-08 -2929.43 0 -4.47035e-08 -2183.96 0 1.49012e-08 -1637.85 0 -8.19564e-08 -1241.43 0 4.47035e-08 -979.621 0 -2.38419e-07 -992.063 0 </DataArray> 
</PointData> 
<Points> 
<DataArray type="Float32" NumberOfComponents="3"> 
0.075 0.021 0 0.0783333 0.021 0 0.0816667 0.021 0 0.085 0.021 0 0.0883333 0.021 0 0.0916667 0.021 0 0.095 0.021 0 0.0983333 0.021 0 0.101667 0.021 0 0.105 0.021 0 0.108333 0.021 0 0.111667 0.021 0 0.115 0.021 0 0.118333 0.021 0 0.121667 0.021 0 0.125 0.021 0 0.0773333 0.0219333 0 0.0805333 0.0219333 0 0.0837333 0.0219333 0 0.0869333 0.0219333 0 0.0901333 0.0219333 0 0.0933333 0.0219333 0 0.0965333 0.0219333 0 0.0997333 0.0219333 0 0.102933 0.0219333 0 0.106133 0.0219333 0 0.109333 0.0219333 0 0.112533 0.0219333 0 0.115733 0.0219333 0 0.118933 0.0219333 0 0.122133 0.0219333 0 0.125333 0.0219333 0 0.0796667 0.0228667 0 0.0827333 0.0228667 0 0.0858 0.0228667 0 0.0888667 0.0228667 0 0.0919333 0.0228667 0 0.095 0.0228667 0 0.0980667 0.0228667 0 0.101133 0.0228667 0 0.1042 0.0228667 0 0.107267 0.0228667 0 0.110333 0.0228667 0 0.1134 0.0228667 0 0.116467 0.0228667 0 0.119533 0.0228667 0 0.1226 0.0228667 0 0.125667 0.0228667 0 0.082 0.0238 0 0.0849333 0.0238 0 0.0878667 0.0238 0 0.0908 0.0238 0 0.0937333 0.0238 0 0.0966667 0.0238 0 0.0996 0.0238 0 0.102533 0.0238 0 0.105467 0.0238 0 0.1084 0.0238 0 0.111333 0.0238 0 0.114267 0.0238 0 0.1172 0.0238 0 0.120133 0.0238 0 0.123067 0.0238 0 0.126 0.0238 0 0.0843333 0.0247333 0 0.0871333 0.0247333 0 0.0899333 0.0247333 0 0.0927333 0.0247333 0 0.0955333 0.0247333 0 0.0983333 0.0247333 0 0.101133 0.0247333 0 0.103933 0.0247333 0 0.106733 0.0247333 0 0.109533 0.0247333 0 0.112333 0.0247333 0 0.115133 0.0247333 0 0.117933 0.0247333 0 0.120733 0.0247333 0 0.123533 0.0247333 0 0.126333 0.0247333 0 0.0866667 0.0256667 0 0.0893333 0.0256667 0 0.092 0.0256667 0 0.0946667 0.0256667 0 0.0973333 0.0256667 0 0.1 0.0256667 0 0.102667 0.0256667 0 0.105333 0.0256667 0 0.108 0.0256667 0 0.110667 0.0256667 0 0.113333 0.0256667 0 0.116 0.0256667 0 0.118667 0.0256667 0 0.121333 0.0256667 0 0.124 0.0256667 0 0.126667 0.0256667 0 0.089 0.0266 0 0.0915333 0.0266 0 0.0940667 0.0266 0 0.0966 0.0266 0 0.0991333 0.0266 0 0.101667 0.0266 0 0.1042 0.0266 0 0.106733 0.0266 0 0.109267 0.0266 0 0.1118 0.0266 0 0.114333 0.0266 0 0.116867 0.0266 0 0.1194 0.0266 0 0.121933 0.0266 0 0.124467 0.0266 0 0.127 0.0266 0 0.0913333 0.0275333 0 0.0937333 0.0275333 0 0.0961333 0.0275333 0 0.0985333 0.0275333 0 0.100933 0.0275333 0 0.103333 0.0275333 0 0.105733 0.0275333 0 0.108133 0.0275333 0 0.110533 0.0275333 0 0.112933 0.0275333 0 0.115333 0.0275333 0 0.117733 0.0275333 0 0.120133 0.0275333 0 0.122533 0.0275333 0 0.124933 0.0275333 0 0.127333 0.0275333 0 0.0936667 0.0284667 0 0.0959333 0.0284667 0 0.0982 0.0284667 0 0.100467 0.0284667 0 0.102733 0.0284667 0 0.105 0.0284667 0 0.107267 0.0284667 0 0.109533 0.0284667 0 0.1118 0.0284667 0 0.114067 0.0284667 0 0.116333 0.0284667 0 0.1186 0.0284667 0 0.120867 0.0284667 0 0.123133 0.0284667 0 0.1254 0.0284667 0 0.127667 0.0284667 0 0.096 0.0294 0 0.0981333 0.0294 0 0.100267 0.0294 0 0.1024 0.0294 0 0.104533 0.0294 0 0.106667 0.0294 0 0.1088 0.0294 0 0.110933 0.0294 0 0.113067 0.0294 0 0.1152 0.0294 0 0.117333 0.0294 0 0.119467 0.0294 0 0.1216 0.0294 0 0.123733 0.0294 0 0.125867 0.0294 0 0.128 0.0294 0 0.0983333 0.0303333 0 0.100333 0.0303333 0 0.102333 0.0303333 0 0.104333 0.0303333 0 0.106333 0.0303333 0 0.108333 0.0303333 0 0.110333 0.0303333 0 0.112333 0.0303333 0 0.114333 0.0303333 0 0.116333 0.0303333 0 0.118333 0.0303333 0 0.120333 0.0303333 0 0.122333 0.0303333 0 0.124333 0.0303333 0 0.126333 0.0303333 0 0.128333 0.0303333 0 0.100667 0.0312667 0 0.102533 0.0312667 0 0.1044 0.0312667 0 0.106267 0.0312667 0 0.108133 0.0312667 0 0.11 0.0312667 0 0.111867 0.0312667 0 0.113733 0.0312667 0 0.1156 0.0312667 0 0.117467 0.0312667 0 0.119333 0.0312667 0 0.1212 0.0312667 0 0.123067 0.0312667 0 0.124933 0.0312667 0 0.1268 0.0312667 0 0.128667 0.0312667 0 0.103 0.0322 0 0.104733 0.0322 0 0.106467 0.0322 0 0.1082 0.0322 0 0.109933 0.0322 0 0.111667 0.0322 0 0.1134 0.0322 0 0.115133 0.0322 0 0.116867 0.0322 0 0.1186 0.0322 0 0.120333 0.0322 0 0.122067 0.0322 0 0.1238 0.0322 0 0.125533 0.0322 0 0.127267 0.0322 0 0.129 0.0322 0 0.105333 0.0331333 0 0.106933 0.0331333 0 0.108533 0.0331333 0 0.110133 0.0331333 0 0.111733 0.0331333 0 0.113333 0.0331333 0 0.114933 0.0331333 0 0.116533 0.0331333 0 0.118133 0.0331333 0 0.119733 0.0331333 0 0.121333 0.0331333 0 0.122933 0.0331333 0 0.124533 0.0331333 0 0.126133 0.0331333 0 0.127733 0.0331333 0 0.129333 0.0331333 0 0.107667 0.0340667 0 0.109133 0.0340667 0 0.1106 0.0340667 0 0.112067 0.0340667 0 0.113533 0.0340667 0 0.115 0.0340667 0 0.116467 0.0340667 0 0.117933 0.0340667 0 0.1194 0.0340667 0 0.120867 0.0340667 0 0.122333 0.0340667 0 0.1238 0.0340667 0 0.125267 0.0340667 0 0.126733 0.0340667 0 0.1282 0.0340667 0 0.129667 0.0340667 0 0.11 0.035 0 0.111333 0.035 0 0.112667 0.035 0 0.114 0.035 0 0.115333 0.035 0 0.116667 0.035 0 0.118 0.035 0 0.119333 0.035 0 0.120667 0.035 0 0.122 0.035 0 0.123333 0.035 0 0.124667 0.035 0 0.126 0.035 0 0.127333 0.035 0 0.128667 0.035 0 0.13 0.035 0 
</DataArray>
</Points> 
</Piece> 
</StructuredGrid> 
</VTKFile> 
