<?xml version="1.0"?> 
<VTKFile type="StructuredGrid" version="0.1"> 
<StructuredGrid WholeExtent="0 15 0 15 0 0"> 
<Piece Extent="0 15 0 15 0 0"> 
<PointData>
<DataArray type="Float32" Name="|E|" format="ascii" NumberOfComponents="3"> 
852215 -86960.8 0 1.10376e+06 -80030 0 1.24621e+06 -36272.6 0 1.29691e+06 -8243.08 0 1.2889e+06 11095.4 0 1.25097e+06 18310.7 0 1.20112e+06 21397.9 0 1.14874e+06 21102.3 0 1.09854e+06 19764.1 0 1.05277e+06 17639.9 0 1.0126e+06 15201.7 0 978733 12500 0 951709 9596.94 0 931994 6517.59 0 919982 3296.43 0 915944 0 0 853875 -87130.1 0 1.10486e+06 -84890.9 0 1.24752e+06 -38945.9 0 1.29762e+06 -8426.3 0 1.28917e+06 11759.1 0 1.25103e+06 19597.8 0 1.20105e+06 22779.9 0 1.14864e+06 22497.2 0 1.09843e+06 21050.2 0 1.05266e+06 18793 0 1.0125e+06 16192.8 0 978634 13315.3 0 951614 10223 0 931901 6942.6 0 919890 3511.62 0 915853 0 0 854491 -87192.9 0 1.10613e+06 -89783.1 0 1.24889e+06 -41591.1 0 1.29836e+06 -8595.71 0 1.28946e+06 12434.9 0 1.2511e+06 20889.1 0 1.20099e+06 24164.6 0 1.14854e+06 23892.6 0 1.09831e+06 22336.6 0 1.05255e+06 19946.1 0 1.01238e+06 17183.8 0 978529 14130.6 0 951512 10849 0 931802 7367.58 0 919792 3726.79 0 915755 0 0 854056 -87148.6 0 1.10756e+06 -94696 0 1.25031e+06 -44215.7 0 1.29914e+06 -8745.89 0 1.28977e+06 13120.8 0 1.25117e+06 22186.1 0 1.20092e+06 25551.4 0 1.14844e+06 25288.9 0 1.09819e+06 23623.2 0 1.05243e+06 21099 0 1.01227e+06 18174.6 0 978420 14945.7 0 951406 11475 0 931698 7792.53 0 919689 3941.93 0 915652 0 0 852555 -86995.4 0 1.10917e+06 -99618.4 0 1.25178e+06 -46827.9 0 1.29996e+06 -8871.12 0 1.29009e+06 13814.4 0 1.25125e+06 23490.3 0 1.20086e+06 26939.7 0 1.14834e+06 26686.5 0 1.09807e+06 24909.8 0 1.05231e+06 22252 0 1.01215e+06 19165.3 0 978306 15760.8 0 951294 12100.8 0 931588 8217.46 0 919580 4157.07 0 915543 0 0 849961 -86730.7 0 1.11095e+06 -104539 0 1.25332e+06 -49436 0 1.30081e+06 -8965.46 0 1.29044e+06 14513.3 0 1.25133e+06 24803.5 0 1.20081e+06 28329.1 0 1.14823e+06 28085.7 0 1.09794e+06 26196.4 0 1.05218e+06 23405.2 0 1.01203e+06 20155.9 0 978187 16575.8 0 951178 12726.6 0 931473 8642.35 0 919465 4372.2 0 915428 0 0 846237 -86350.7 0 1.11292e+06 -109444 0 1.2549e+06 -52049.1 0 1.30171e+06 -9022.55 0 1.29082e+06 15214.7 0 1.25142e+06 26127.4 0 1.20075e+06 29718.8 0 1.14812e+06 29486.9 0 1.09781e+06 27482.9 0 1.05205e+06 24558.4 0 1.0119e+06 21146.4 0 978063 17390.7 0 951056 13352.4 0 931352 9067.23 0 919344 4587.33 0 915307 0 0 841339 -85850.9 0 1.11507e+06 -114321 0 1.25654e+06 -54676.9 0 1.30264e+06 -9035.56 0 1.29121e+06 15915.8 0 1.25151e+06 27464 0 1.2007e+06 31108 0 1.14801e+06 30890.7 0 1.09768e+06 28769 0 1.05192e+06 25711.9 0 1.01177e+06 22136.7 0 977933 18205.6 0 950928 13978.2 0 931226 9492.08 0 919218 4802.48 0 915181 0 0 835210 -85225.5 0 1.11744e+06 -119154 0 1.25823e+06 -57330.2 0 1.30361e+06 -8997.08 0 1.29162e+06 16613.3 0 1.25161e+06 28815.5 0 1.20064e+06 32496 0 1.1479e+06 32297.4 0 1.09754e+06 30054.6 0 1.05178e+06 26865.8 0 1.01163e+06 23126.9 0 977799 19020.4 0 950796 14603.9 0 931094 9916.9 0 919086 5017.66 0 915049 0 0 827783 -84467.6 0 1.12002e+06 -123927 0 1.25997e+06 -60020.6 0 1.30462e+06 -8898.98 0 1.29205e+06 17303.3 0 1.25171e+06 30184.2 0 1.2006e+06 33881.6 0 1.14778e+06 33707.7 0 1.0974e+06 31339.6 0 1.05163e+06 28020.1 0 1.01149e+06 24116.9 0 977660 19835.2 0 950658 15229.6 0 930957 10341.7 0 918948 5232.87 0 914911 0 0 818977 -83569.1 0 1.12283e+06 -128621 0 1.26176e+06 -62761.5 0 1.30566e+06 -8732.27 0 1.29251e+06 17981.9 0 1.25181e+06 31572.6 0 1.20055e+06 35263.9 0 1.14766e+06 35122.1 0 1.09726e+06 32623.6 0 1.05149e+06 29175 0 1.01134e+06 25106.7 0 977516 20650 0 950515 15855.4 0 930814 10766.5 0 918805 5448.14 0 914767 0 0 808700 -82520.4 0 1.1259e+06 -133213 0 1.2636e+06 -65567.5 0 1.30674e+06 -8486.99 0 1.29299e+06 18644 0 1.25192e+06 32983.9 0 1.20051e+06 36641.6 0 1.14753e+06 36541.4 0 1.09712e+06 33906.4 0 1.05133e+06 30330.5 0 1.01119e+06 26096.3 0 977366 21464.8 0 950367 16481.2 0 930665 11191.2 0 918655 5663.48 0 914617 0 0 796847 -81310.9 0 1.12923e+06 -137681 0 1.26549e+06 -68455.3 0 1.30786e+06 -8152.01 0 1.29349e+06 19284.4 0 1.25202e+06 34421.2 0 1.20047e+06 38013.1 0 1.1474e+06 37966.4 0 1.09698e+06 35187.8 0 1.05117e+06 31486.8 0 1.01104e+06 27085.7 0 977212 22279.5 0 950214 17107.1 0 930511 11615.9 0 918500 5878.9 0 914462 0 0 783296 -79928.1 0 1.13286e+06 -141995 0 1.26742e+06 -71443.6 0 1.309e+06 -7714.87 0 1.29401e+06 19896.8 0 1.25213e+06 35888.2 0 1.20044e+06 39376.9 0 1.14727e+06 39397.9 0 1.09683e+06 36467.4 0 1.05101e+06 32644.1 0 1.01088e+06 28074.8 0 977052 23094.3 0 950056 17733 0 930351 12040.6 0 918340 6094.42 0 914301 0 0 767908 -78358 0 1.13681e+06 -146126 0 1.26939e+06 -74553.7 0 1.31018e+06 -7161.55 0 1.29456e+06 20474.1 0 1.25223e+06 37389.2 0 1.20041e+06 40730.9 0 1.14713e+06 40836.9 0 1.09668e+06 37744.8 0 1.05084e+06 33802.5 0 1.01072e+06 29063.6 0 976887 23909.1 0 949893 18359 0 930185 12465.1 0 918173 6310.07 0 914134 0 0 750528 -76584.5 0 1.1411e+06 -150038 0 1.27139e+06 -77809.5 0 1.31139e+06 -6476.48 0 1.29514e+06 21008.3 0 1.25233e+06 38928.9 0 1.20039e+06 42073.1 0 1.14698e+06 42284.7 0 1.09653e+06 39019.5 0 1.05067e+06 34962.3 0 1.01055e+06 30052 0 976717 24723.9 0 949724 18985.2 0 930014 12889.7 0 918001 6525.87 0 913961 0 0 </DataArray> 
</PointData> 
<Points> 
<DataArray type="Float32" NumberOfComponents="3"> 
0.19 0.005 0 0.2022 0.005 0 0.2144 0.005 0 0.2266 0.005 0 0.2388 0.005 0 0.251 0.005 0 0.2632 0.005 0 0.2754 0.005 0 0.2876 0.005 0 0.2998 0.005 0 0.312 0.005 0 0.3242 0.005 0 0.3364 0.005 0 0.3486 0.005 0 0.3608 0.005 0 0.373 0.005 0 0.190033 0.00532667 0 0.202231 0.00532667 0 0.214429 0.00532667 0 0.226627 0.00532667 0 0.238824 0.00532667 0 0.251022 0.00532667 0 0.26322 0.00532667 0 0.275418 0.00532667 0 0.287616 0.00532667 0 0.299813 0.00532667 0 0.312011 0.00532667 0 0.324209 0.00532667 0 0.336407 0.00532667 0 0.348604 0.00532667 0 0.360802 0.00532667 0 0.373 0.00532667 0 0.190067 0.00565333 0 0.202262 0.00565333 0 0.214458 0.00565333 0 0.226653 0.00565333 0 0.238849 0.00565333 0 0.251044 0.00565333 0 0.26324 0.00565333 0 0.275436 0.00565333 0 0.287631 0.00565333 0 0.299827 0.00565333 0 0.312022 0.00565333 0 0.324218 0.00565333 0 0.336413 0.00565333 0 0.348609 0.00565333 0 0.360804 0.00565333 0 0.373 0.00565333 0 0.1901 0.00598 0 0.202293 0.00598 0 0.214487 0.00598 0 0.22668 0.00598 0 0.238873 0.00598 0 0.251067 0.00598 0 0.26326 0.00598 0 0.275453 0.00598 0 0.287647 0.00598 0 0.29984 0.00598 0 0.312033 0.00598 0 0.324227 0.00598 0 0.33642 0.00598 0 0.348613 0.00598 0 0.360807 0.00598 0 0.373 0.00598 0 0.190133 0.00630667 0 0.202324 0.00630667 0 0.214516 0.00630667 0 0.226707 0.00630667 0 0.238898 0.00630667 0 0.251089 0.00630667 0 0.26328 0.00630667 0 0.275471 0.00630667 0 0.287662 0.00630667 0 0.299853 0.00630667 0 0.312044 0.00630667 0 0.324236 0.00630667 0 0.336427 0.00630667 0 0.348618 0.00630667 0 0.360809 0.00630667 0 0.373 0.00630667 0 0.190167 0.00663333 0 0.202356 0.00663333 0 0.214544 0.00663333 0 0.226733 0.00663333 0 0.238922 0.00663333 0 0.251111 0.00663333 0 0.2633 0.00663333 0 0.275489 0.00663333 0 0.287678 0.00663333 0 0.299867 0.00663333 0 0.312056 0.00663333 0 0.324244 0.00663333 0 0.336433 0.00663333 0 0.348622 0.00663333 0 0.360811 0.00663333 0 0.373 0.00663333 0 0.1902 0.00696 0 0.202387 0.00696 0 0.214573 0.00696 0 0.22676 0.00696 0 0.238947 0.00696 0 0.251133 0.00696 0 0.26332 0.00696 0 0.275507 0.00696 0 0.287693 0.00696 0 0.29988 0.00696 0 0.312067 0.00696 0 0.324253 0.00696 0 0.33644 0.00696 0 0.348627 0.00696 0 0.360813 0.00696 0 0.373 0.00696 0 0.190233 0.00728667 0 0.202418 0.00728667 0 0.214602 0.00728667 0 0.226787 0.00728667 0 0.238971 0.00728667 0 0.251156 0.00728667 0 0.26334 0.00728667 0 0.275524 0.00728667 0 0.287709 0.00728667 0 0.299893 0.00728667 0 0.312078 0.00728667 0 0.324262 0.00728667 0 0.336447 0.00728667 0 0.348631 0.00728667 0 0.360816 0.00728667 0 0.373 0.00728667 0 0.190267 0.00761333 0 0.202449 0.00761333 0 0.214631 0.00761333 0 0.226813 0.00761333 0 0.238996 0.00761333 0 0.251178 0.00761333 0 0.26336 0.00761333 0 0.275542 0.00761333 0 0.287724 0.00761333 0 0.299907 0.00761333 0 0.312089 0.00761333 0 0.324271 0.00761333 0 0.336453 0.00761333 0 0.348636 0.00761333 0 0.360818 0.00761333 0 0.373 0.00761333 0 0.1903 0.00794 0 0.20248 0.00794 0 0.21466 0.00794 0 0.22684 0.00794 0 0.23902 0.00794 0 0.2512 0.00794 0 0.26338 0.00794 0 0.27556 0.00794 0 0.28774 0.00794 0 0.29992 0.00794 0 0.3121 0.00794 0 0.32428 0.00794 0 0.33646 0.00794 0 0.34864 0.00794 0 0.36082 0.00794 0 0.373 0.00794 0 0.190333 0.00826667 0 0.202511 0.00826667 0 0.214689 0.00826667 0 0.226867 0.00826667 0 0.239044 0.00826667 0 0.251222 0.00826667 0 0.2634 0.00826667 0 0.275578 0.00826667 0 0.287756 0.00826667 0 0.299933 0.00826667 0 0.312111 0.00826667 0 0.324289 0.00826667 0 0.336467 0.00826667 0 0.348644 0.00826667 0 0.360822 0.00826667 0 0.373 0.00826667 0 0.190367 0.00859333 0 0.202542 0.00859333 0 0.214718 0.00859333 0 0.226893 0.00859333 0 0.239069 0.00859333 0 0.251244 0.00859333 0 0.26342 0.00859333 0 0.275596 0.00859333 0 0.287771 0.00859333 0 0.299947 0.00859333 0 0.312122 0.00859333 0 0.324298 0.00859333 0 0.336473 0.00859333 0 0.348649 0.00859333 0 0.360824 0.00859333 0 0.373 0.00859333 0 0.1904 0.00892 0 0.202573 0.00892 0 0.214747 0.00892 0 0.22692 0.00892 0 0.239093 0.00892 0 0.251267 0.00892 0 0.26344 0.00892 0 0.275613 0.00892 0 0.287787 0.00892 0 0.29996 0.00892 0 0.312133 0.00892 0 0.324307 0.00892 0 0.33648 0.00892 0 0.348653 0.00892 0 0.360827 0.00892 0 0.373 0.00892 0 0.190433 0.00924667 0 0.202604 0.00924667 0 0.214776 0.00924667 0 0.226947 0.00924667 0 0.239118 0.00924667 0 0.251289 0.00924667 0 0.26346 0.00924667 0 0.275631 0.00924667 0 0.287802 0.00924667 0 0.299973 0.00924667 0 0.312144 0.00924667 0 0.324316 0.00924667 0 0.336487 0.00924667 0 0.348658 0.00924667 0 0.360829 0.00924667 0 0.373 0.00924667 0 0.190467 0.00957333 0 0.202636 0.00957333 0 0.214804 0.00957333 0 0.226973 0.00957333 0 0.239142 0.00957333 0 0.251311 0.00957333 0 0.26348 0.00957333 0 0.275649 0.00957333 0 0.287818 0.00957333 0 0.299987 0.00957333 0 0.312156 0.00957333 0 0.324324 0.00957333 0 0.336493 0.00957333 0 0.348662 0.00957333 0 0.360831 0.00957333 0 0.373 0.00957333 0 0.1905 0.0099 0 0.202667 0.0099 0 0.214833 0.0099 0 0.227 0.0099 0 0.239167 0.0099 0 0.251333 0.0099 0 0.2635 0.0099 0 0.275667 0.0099 0 0.287833 0.0099 0 0.3 0.0099 0 0.312167 0.0099 0 0.324333 0.0099 0 0.3365 0.0099 0 0.348667 0.0099 0 0.360833 0.0099 0 0.373 0.0099 0 
</DataArray>
</Points> 
</Piece> 
</StructuredGrid> 
</VTKFile> 
