<?xml version="1.0"?> 
<VTKFile type="StructuredGrid" version="0.1"> 
<StructuredGrid WholeExtent="0 7 0 7 0 0"> 
<Piece Extent="0 7 0 7 0 0"> 
<PointData>
<DataArray type="Float32" Name="|E|" format="ascii" NumberOfComponents="3"> 
364746 5.35675e+06 0 1.17216e+06 5.7747e+06 0 2.01274e+06 5.77021e+06 0 2.78068e+06 5.43509e+06 0 3.40579e+06 4.86435e+06 0 3.86622e+06 4.16588e+06 0 4.17415e+06 3.42638e+06 0 4.35633e+06 2.70129e+06 0 973031 4.42784e+06 0 1.51374e+06 4.2668e+06 0 1.95679e+06 3.79555e+06 0 2.15876e+06 3.19751e+06 0 2.16531e+06 2.63247e+06 0 2.06317e+06 2.17027e+06 0 1.92198e+06 1.82187e+06 0 1.78423e+06 1.57122e+06 0 882071 3.98636e+06 0 1.28067e+06 3.63622e+06 0 1.49123e+06 3.0657e+06 0 1.47693e+06 2.50013e+06 0 1.35366e+06 2.05133e+06 0 1.21647e+06 1.72083e+06 0 1.10563e+06 1.47339e+06 0 1.02561e+06 1.2795e+06 0 716018 3.73192e+06 0 1.00141e+06 3.27981e+06 0 1.08641e+06 2.67583e+06 0 1.00209e+06 2.13281e+06 0 871418 1.71174e+06 0 752838 1.38882e+06 0 653730 1.1393e+06 0 570702 952679 0 536154 3.5781e+06 0 734158 3.05037e+06 0 751072 2.41224e+06 0 651683 1.85925e+06 0 537307 1.42939e+06 0 440343 1.10218e+06 0 367605 854229 0 321724 654602 0 356638 3.48437e+06 0 481783 2.88527e+06 0 465221 2.2002e+06 0 378737 1.62127e+06 0 295152 1.18072e+06 0 232821 853935 0 192554 605243 0 165942 413306 0 178814 3.433e+06 0 238988 2.75471e+06 0 216498 2.00861e+06 0 164692 1.40228e+06 0 122378 959393 0 94718.1 637490 0 78029.8 393463 0 70143.4 196960 0 0 3.41656e+06 0 0 2.64098e+06 0 0 1.82346e+06 0 0 1.19873e+06 0 0 762600 0 0 449262 0 0 207297 0 0 -1157.43 0 </DataArray> 
</PointData> 
<Points> 
<DataArray type="Float32" NumberOfComponents="3"> 
0.188 0.0600551 0 0.190112 0.0597701 0 0.192215 0.0591928 0 0.194248 0.0583229 0 0.196152 0.0571769 0 0.197872 0.0557873 0 0.199367 0.0541992 0 0.200607 0.0524662 0 0.188 0.0674758 0 0.193668 0.0674082 0 0.199442 0.0670392 0 0.205188 0.066363 0 0.210765 0.0653887 0 0.21604 0.0641397 0 0.220894 0.062652 0 0.225234 0.0609711 0 0.188 0.0748965 0 0.197196 0.0749862 0 0.206574 0.0747814 0 0.215953 0.0742742 0 0.225144 0.0734688 0 0.233966 0.0723811 0 0.242252 0.0710383 0 0.249862 0.0694759 0 0.188 0.0823172 0 0.200697 0.0825049 0 0.213611 0.0824215 0 0.226546 0.0820595 0 0.239295 0.0814202 0 0.251656 0.0805139 0 0.263442 0.0793589 0 0.27449 0.0779807 0 0.188 0.0897379 0 0.20417 0.089965 0 0.220557 0.0899614 0 0.236972 0.0897218 0 0.253222 0.0892462 0 0.269114 0.0885402 0 0.284468 0.0876147 0 0.299117 0.0864855 0 0.188 0.0971586 0 0.207616 0.0973671 0 0.227412 0.0974033 0 0.247235 0.0972642 0 0.266931 0.0969496 0 0.286345 0.0964619 0 0.30533 0.0958063 0 0.323745 0.0949904 0 0.188 0.104579 0 0.211035 0.104712 0 0.234178 0.104749 0 0.257338 0.104689 0 0.280427 0.104533 0 0.303353 0.104281 0 0.32603 0.103934 0 0.348372 0.103495 0 0.188 0.112 0 0.214429 0.112 0 0.240857 0.112 0 0.267286 0.112 0 0.293714 0.112 0 0.320143 0.112 0 0.346571 0.112 0 0.373 0.112 0 
</DataArray>
</Points> 
</Piece> 
</StructuredGrid> 
</VTKFile> 
