<?xml version="1.0"?> 
<VTKFile type="StructuredGrid" version="0.1"> 
<StructuredGrid WholeExtent="0 7 0 7 0 0"> 
<Piece Extent="0 7 0 7 0 0"> 
<PointData>
<DataArray type="Float32" Name="|E|" format="ascii" NumberOfComponents="3"> 
-2.67299e+06 3.36282e+06 0 -2.80063e+06 3.65063e+06 0 -2.90272e+06 4.04949e+06 0 -2.92186e+06 4.60663e+06 0 -2.77211e+06 5.31122e+06 0 -2.33112e+06 6.07459e+06 0 -1.4589e+06 6.68052e+06 0 -142327 6.69093e+06 0 -1.64734e+06 2.53672e+06 0 -1.76574e+06 2.77972e+06 0 -1.87728e+06 3.06859e+06 0 -1.95835e+06 3.42454e+06 0 -1.96665e+06 3.86246e+06 0 -1.82715e+06 4.36408e+06 0 -1.45423e+06 4.82185e+06 0 -898348 5.03411e+06 0 -1.16917e+06 2.0936e+06 0 -1.24059e+06 2.32599e+06 0 -1.32731e+06 2.5875e+06 0 -1.4111e+06 2.90028e+06 0 -1.45396e+06 3.27977e+06 0 -1.39748e+06 3.71552e+06 0 -1.17641e+06 4.13832e+06 0 -805316 4.41182e+06 0 -832236 1.65207e+06 0 -898204 1.91589e+06 0 -963866 2.21065e+06 0 -1.03033e+06 2.53925e+06 0 -1.07803e+06 2.91621e+06 0 -1.05891e+06 3.33979e+06 0 -913753 3.75784e+06 0 -643536 4.06032e+06 0 -577357 1.21762e+06 0 -618482 1.53398e+06 0 -670942 1.8698e+06 0 -725223 2.23795e+06 0 -769086 2.64406e+06 0 -769386 3.08606e+06 0 -674673 3.52142e+06 0 -475345 3.85499e+06 0 -361710 804177 0 -386741 1.16217e+06 0 -418804 1.54412e+06 0 -457871 1.95705e+06 0 -494067 2.40768e+06 0 -504555 2.88944e+06 0 -449031 3.3605e+06 0 -313327 3.72987e+06 0 -173986 399080 0 -183616 801943 0 -198183 1.22706e+06 0 -217568 1.68508e+06 0 -238977 2.18523e+06 0 -250412 2.72131e+06 0 -227063 3.2464e+06 0 -155685 3.66136e+06 0 0 -431.861 0 0 449847 0 0 917354 0 0 1.41805e+06 0 0 1.96656e+06 0 0 2.56467e+06 0 0 3.16281e+06 0 0 3.6384e+06 0 </DataArray> 
</PointData> 
<Points> 
<DataArray type="Float32" NumberOfComponents="3"> 
0.1 0.0687 0 0.101857 0.0681714 0 0.103714 0.0676429 0 0.105571 0.0671143 0 0.107429 0.0665857 0 0.109286 0.0660571 0 0.111143 0.0655286 0 0.113 0.065 0 0.0857143 0.0748857 0 0.0896122 0.0744327 0 0.0935102 0.0739796 0 0.0974082 0.0735265 0 0.101306 0.0730735 0 0.105204 0.0726204 0 0.109102 0.0721673 0 0.113 0.0717143 0 0.0714286 0.0810714 0 0.0773673 0.0806939 0 0.0833061 0.0803163 0 0.0892449 0.0799388 0 0.0951837 0.0795612 0 0.101122 0.0791837 0 0.107061 0.0788061 0 0.113 0.0784286 0 0.0571429 0.0872571 0 0.0651224 0.0869551 0 0.073102 0.0866531 0 0.0810816 0.086351 0 0.0890612 0.086049 0 0.0970408 0.0857469 0 0.10502 0.0854449 0 0.113 0.0851429 0 0.0428571 0.0934429 0 0.0528776 0.0932163 0 0.062898 0.0929898 0 0.0729184 0.0927633 0 0.0829388 0.0925367 0 0.0929592 0.0923102 0 0.10298 0.0920837 0 0.113 0.0918571 0 0.0285714 0.0996286 0 0.0406327 0.0994776 0 0.0526939 0.0993265 0 0.0647551 0.0991755 0 0.0768163 0.0990245 0 0.0888776 0.0988735 0 0.100939 0.0987224 0 0.113 0.0985714 0 0.0142857 0.105814 0 0.0283878 0.105739 0 0.0424898 0.105663 0 0.0565918 0.105588 0 0.0706939 0.105512 0 0.0847959 0.105437 0 0.098898 0.105361 0 0.113 0.105286 0 0 0.112 0 0.0161429 0.112 0 0.0322857 0.112 0 0.0484286 0.112 0 0.0645714 0.112 0 0.0807143 0.112 0 0.0968571 0.112 0 0.113 0.112 0 
</DataArray>
</Points> 
</Piece> 
</StructuredGrid> 
</VTKFile> 
