<?xml version="1.0"?> 
<VTKFile type="StructuredGrid" version="0.1"> 
<StructuredGrid WholeExtent="0 7 0 7 0 0"> 
<Piece Extent="0 7 0 7 0 0"> 
<PointData>
<DataArray type="Float32" Name="|E|" format="ascii" NumberOfComponents="3"> 
441148 6.69093e+06 0 350791 5.32048e+06 0 318765 4.83474e+06 0 302135 4.58251e+06 0 291931 4.42774e+06 0 285125 4.32452e+06 0 280384 4.25261e+06 0 277090 4.20266e+06 0 -899526 5.03411e+06 0 -332149 4.94095e+06 0 -78755.8 4.70439e+06 0 49067.3 4.52594e+06 0 120218 4.39875e+06 0 163962 4.30694e+06 0 193615 4.24e+06 0 216182 4.19132e+06 0 -801177 4.41182e+06 0 -499217 4.46025e+06 0 -270310 4.43079e+06 0 -113608 4.36595e+06 0 -8473.34 4.29889e+06 0 63912 4.23986e+06 0 116291 4.19048e+06 0 157260 4.15022e+06 0 -637590 4.06032e+06 0 -460574 4.15593e+06 0 -300622 4.19251e+06 0 -172795 4.19372e+06 0 -74090.2 4.17588e+06 0 1126.89 4.14966e+06 0 59551.9 4.12073e+06 0 107195 4.09169e+06 0 -473575 3.85499e+06 0 -361456 3.95529e+06 0 -257709 4.01881e+06 0 -166131 4.05227e+06 0 -89579.3 4.06416e+06 0 -26822.1 4.06147e+06 0 24754.2 4.04912e+06 0 68436.7 4.03021e+06 0 -309972 3.72987e+06 0 -245868 3.83024e+06 0 -182383 3.90313e+06 0 -124510 3.95146e+06 0 -73610.6 3.97933e+06 0 -29977.2 3.99085e+06 0 7292.7 3.98951e+06 0 39750 3.97788e+06 0 -153986 3.66136e+06 0 -123549 3.76046e+06 0 -93739.6 3.83665e+06 0 -65717.8 3.89134e+06 0 -40512.5 3.92679e+06 0 -18357 3.94561e+06 0 982.411 3.95031e+06 0 18102.2 3.94292e+06 0 0 3.6384e+06 0 0 3.73664e+06 0 0 3.81365e+06 0 0 3.87017e+06 0 0 3.90795e+06 0 0 3.92912e+06 0 0 3.93582e+06 0 0 3.92988e+06 0 </DataArray> 
</PointData> 
<Points> 
<DataArray type="Float32" NumberOfComponents="3"> 
0.113 0.065 0 0.117786 0.0646845 0 0.122571 0.0643689 0 0.127357 0.0640534 0 0.132143 0.0637379 0 0.136929 0.0634223 0 0.141714 0.0631068 0 0.1465 0.0627913 0 0.113 0.0717143 0 0.117786 0.0714438 0 0.122571 0.0711734 0 0.127357 0.0709029 0 0.132143 0.0706325 0 0.136929 0.070362 0 0.141714 0.0700915 0 0.1465 0.0698211 0 0.113 0.0784286 0 0.117786 0.0782032 0 0.122571 0.0779778 0 0.127357 0.0777524 0 0.132143 0.077527 0 0.136929 0.0773017 0 0.141714 0.0770763 0 0.1465 0.0768509 0 0.113 0.0851429 0 0.117786 0.0849626 0 0.122571 0.0847822 0 0.127357 0.0846019 0 0.132143 0.0844216 0 0.136929 0.0842413 0 0.141714 0.084061 0 0.1465 0.0838807 0 0.113 0.0918571 0 0.117786 0.0917219 0 0.122571 0.0915867 0 0.127357 0.0914515 0 0.132143 0.0913162 0 0.136929 0.091181 0 0.141714 0.0910458 0 0.1465 0.0909105 0 0.113 0.0985714 0 0.117786 0.0984813 0 0.122571 0.0983911 0 0.127357 0.098301 0 0.132143 0.0982108 0 0.136929 0.0981207 0 0.141714 0.0980305 0 0.1465 0.0979404 0 0.113 0.105286 0 0.117786 0.105241 0 0.122571 0.105196 0 0.127357 0.10515 0 0.132143 0.105105 0 0.136929 0.10506 0 0.141714 0.105015 0 0.1465 0.10497 0 0.113 0.112 0 0.117786 0.112 0 0.122571 0.112 0 0.127357 0.112 0 0.132143 0.112 0 0.136929 0.112 0 0.141714 0.112 0 0.1465 0.112 0 
</DataArray>
</Points> 
</Piece> 
</StructuredGrid> 
</VTKFile> 
