<?xml version="1.0"?> 
<VTKFile type="StructuredGrid" version="0.1"> 
<StructuredGrid WholeExtent="0 7 0 7 0 0"> 
<Piece Extent="0 7 0 7 0 0"> 
<PointData>
<DataArray type="Float32" Name="|E|" format="ascii" NumberOfComponents="3"> 
-3.72266e+06 1.04532e+06 0 -3.83093e+06 936492 0 -3.9434e+06 820551 0 -4.06584e+06 692514 0 -4.201e+06 549398 0 -4.35126e+06 388367 0 -4.51922e+06 206421 0 -4.70795e+06 -2.98023e-07 0 -4.07297e+06 1.56101e+06 0 -4.20964e+06 1.52018e+06 0 -4.36557e+06 1.47469e+06 0 -4.54367e+06 1.42503e+06 0 -4.74779e+06 1.37126e+06 0 -4.9829e+06 1.31351e+06 0 -5.25514e+06 1.25217e+06 0 -5.57293e+06 1.18828e+06 0 -4.13979e+06 2.15984e+06 0 -4.30099e+06 2.18977e+06 0 -4.4856e+06 2.22884e+06 0 -4.69793e+06 2.28049e+06 0 -4.94305e+06 2.34982e+06 0 -5.2271e+06 2.44405e+06 0 -5.5571e+06 2.5736e+06 0 -5.94194e+06 2.75405e+06 0 -3.97057e+06 2.71309e+06 0 -4.13981e+06 2.81598e+06 0 -4.33153e+06 2.94466e+06 0 -4.54869e+06 3.10854e+06 0 -4.79345e+06 3.32065e+06 0 -5.06626e+06 3.59928e+06 0 -5.36472e+06 3.97084e+06 0 -5.67699e+06 4.47171e+06 0 -3.65523e+06 3.14808e+06 0 -3.8196e+06 3.31792e+06 0 -3.99953e+06 3.53236e+06 0 -4.19251e+06 3.80699e+06 0 -4.39119e+06 4.16313e+06 0 -4.57842e+06 4.62892e+06 0 -4.72395e+06 5.24333e+06 0 -4.76028e+06 6.04334e+06 0 -3.2831e+06 3.44486e+06 0 -3.43464e+06 3.67352e+06 0 -3.58976e+06 3.96561e+06 0 -3.73613e+06 4.3415e+06 0 -3.84862e+06 4.82665e+06 0 -3.87934e+06 5.44868e+06 0 -3.74976e+06 6.23498e+06 0 -3.31939e+06 7.16167e+06 0 -2.91421e+06 3.61803e+06 0 -3.04877e+06 3.89931e+06 0 -3.17284e+06 4.26174e+06 0 -3.25966e+06 4.72636e+06 0 -3.25761e+06 5.3128e+06 0 -3.07726e+06 6.02859e+06 0 -2.58261e+06 6.83982e+06 0 -1.61743e+06 7.58561e+06 0 -2.57837e+06 3.69528e+06 0 -2.69334e+06 4.0276e+06 0 -2.78647e+06 4.45795e+06 0 -2.81032e+06 4.99851e+06 0 -2.6759e+06 5.64924e+06 0 -2.24754e+06 6.36826e+06 0 -1.3683e+06 6.99884e+06 0 3.8743e-07 7.191e+06 0 </DataArray> 
</PointData> 
<Points> 
<DataArray type="Float32" NumberOfComponents="3"> 
0.1 0.055 0 0.100429 0.055 0 0.100857 0.055 0 0.101286 0.055 0 0.101714 0.055 0 0.102143 0.055 0 0.102571 0.055 0 0.103 0.055 0 0.1 0.0569571 0 0.100431 0.0569743 0 0.100872 0.0569919 0 0.101322 0.0570098 0 0.101781 0.0570281 0 0.10225 0.0570467 0 0.10273 0.0570658 0 0.10322 0.0570854 0 0.1 0.0589143 0 0.100503 0.0589515 0 0.101023 0.0589901 0 0.101562 0.05903 0 0.102121 0.0590714 0 0.1027 0.0591143 0 0.103302 0.0591589 0 0.103927 0.0592052 0 0.1 0.0608714 0 0.100643 0.060911 0 0.101313 0.0609522 0 0.102012 0.0609952 0 0.102743 0.0610401 0 0.103507 0.0610871 0 0.104306 0.0611363 0 0.105144 0.0611878 0 0.1 0.0628286 0 0.100851 0.062832 0 0.101738 0.0628355 0 0.102665 0.0628392 0 0.103632 0.062843 0 0.104644 0.062847 0 0.105703 0.0628512 0 0.106812 0.0628556 0 0.1 0.0647857 0 0.101125 0.0646945 0 0.102291 0.0646 0 0.103498 0.0645022 0 0.104749 0.0644008 0 0.106047 0.0642955 0 0.107395 0.0641863 0 0.108795 0.0640728 0 0.1 0.0667429 0 0.101462 0.0664799 0 0.102955 0.0662114 0 0.10448 0.0659373 0 0.106037 0.0656573 0 0.107628 0.0653712 0 0.109253 0.0650789 0 0.110915 0.0647801 0 0.1 0.0687 0 0.101857 0.0681714 0 0.103714 0.0676429 0 0.105571 0.0671143 0 0.107429 0.0665857 0 0.109286 0.0660571 0 0.111143 0.0655286 0 0.113 0.065 0 
</DataArray>
</Points> 
</Piece> 
</StructuredGrid> 
</VTKFile> 
