<?xml version="1.0"?> 
<VTKFile type="StructuredGrid" version="0.1"> 
<StructuredGrid WholeExtent="0 7 0 7 0 0"> 
<Piece Extent="0 7 0 7 0 0"> 
<PointData>
<DataArray type="Float32" Name="|E|" format="ascii" NumberOfComponents="3"> 
336.1 0 0 -121.157 -83.2182 0 -26.3926 -3.36656 0 -12.345 7.99138 0 -3.5554 1.48277 0 -0.788531 1.92383 0 -0.214077 0.343158 0 -0.00574188 -1.49012e-08 0 207.548 -5.96046e-08 0 -58.9405 -79.1506 0 -31.6787 -7.29829 0 -11.3996 0.726929 0 -4.33742 2.05488 0 -1.38095 0.774494 0 -0.387124 0.473746 0 -0.21319 -7.45058e-09 0 130.688 5.21541e-08 0 -26.1883 -68.1866 0 -28.3906 -13.8445 0 -10.774 -2.76534 0 -4.60757 0.536734 0 -1.60079 0.341982 0 -0.607659 0.2587 0 -0.320761 3.72529e-09 0 83.1503 -1.49012e-08 0 -9.81839 -56.905 0 -22.1899 -18.7977 0 -9.63906 -5.42038 0 -4.31337 -1.0425 0 -1.64488 -0.167339 0 -0.682823 0.0354791 0 -0.403587 -1.11759e-08 0 52.2803 2.98023e-08 0 -2.36624 -47.5537 0 -15.7011 -21.7782 0 -7.81602 -7.57433 0 -3.60301 -2.37104 0 -1.47378 -0.69416 0 -0.638315 -0.175316 0 -0.408766 1.49012e-08 0 30.7807 -4.47035e-08 0 0.345047 -40.8572 0 -9.84377 -23.2614 0 -5.46527 -9.1926 0 -2.58067 -3.3563 0 -1.1049 -1.14726 0 -0.491985 -0.351306 0 -0.329074 -4.47035e-08 0 14.2963 -2.98023e-08 0 0.669631 -36.8634 0 -4.70637 -23.8669 0 -2.80139 -10.1946 0 -1.34525 -3.9713 0 -0.590674 -1.45106 0 -0.267477 -0.4711 0 -0.182813 8.19564e-08 0 -7.45058e-09 5.96046e-08 0 -1.86265e-09 -35.4599 0 2.79397e-09 -24.0253 0 5.58794e-09 -10.5534 0 -5.58794e-09 -4.19423 0 1.11759e-08 -1.56458 0 -2.23517e-08 -0.516523 0 4.47035e-08 -7.45058e-08 0 </DataArray> 
</PointData> 
<Points> 
<DataArray type="Float32" NumberOfComponents="3"> 
0.13 0.035 0 0.137857 0.0328571 0 0.145714 0.0307143 0 0.153571 0.0285714 0 0.161429 0.0264286 0 0.169286 0.0242857 0 0.177143 0.0221429 0 0.185 0.02 0 0.13 0.0364286 0 0.137857 0.0345918 0 0.145714 0.0327551 0 0.153571 0.0309184 0 0.161429 0.0290816 0 0.169286 0.0272449 0 0.177143 0.0254082 0 0.185 0.0235714 0 0.13 0.0378571 0 0.137857 0.0363265 0 0.145714 0.0347959 0 0.153571 0.0332653 0 0.161429 0.0317347 0 0.169286 0.0302041 0 0.177143 0.0286735 0 0.185 0.0271429 0 0.13 0.0392857 0 0.137857 0.0380612 0 0.145714 0.0368367 0 0.153571 0.0356122 0 0.161429 0.0343878 0 0.169286 0.0331633 0 0.177143 0.0319388 0 0.185 0.0307143 0 0.13 0.0407143 0 0.137857 0.0397959 0 0.145714 0.0388776 0 0.153571 0.0379592 0 0.161429 0.0370408 0 0.169286 0.0361224 0 0.177143 0.0352041 0 0.185 0.0342857 0 0.13 0.0421429 0 0.137857 0.0415306 0 0.145714 0.0409184 0 0.153571 0.0403061 0 0.161429 0.0396939 0 0.169286 0.0390816 0 0.177143 0.0384694 0 0.185 0.0378571 0 0.13 0.0435714 0 0.137857 0.0432653 0 0.145714 0.0429592 0 0.153571 0.0426531 0 0.161429 0.0423469 0 0.169286 0.0420408 0 0.177143 0.0417347 0 0.185 0.0414286 0 0.13 0.045 0 0.137857 0.045 0 0.145714 0.045 0 0.153571 0.045 0 0.161429 0.045 0 0.169286 0.045 0 0.177143 0.045 0 0.185 0.045 0 
</DataArray>
</Points> 
</Piece> 
</StructuredGrid> 
</VTKFile> 
