<?xml version="1.0"?> 
<VTKFile type="StructuredGrid" version="0.1"> 
<StructuredGrid WholeExtent="0 7 0 7 0 0"> 
<Piece Extent="0 7 0 7 0 0"> 
<PointData>
<DataArray type="Float32" Name="|E|" format="ascii" NumberOfComponents="3"> 
-1.84247e+06 0 0 -1.88226e+06 228482 0 -1.99029e+06 482811 0 -2.17156e+06 773767 0 -2.35535e+06 1.2345e+06 0 -2.16765e+06 1.72419e+06 0 -1.70758e+06 1.47023e+06 0 -1.51658e+06 0 0 -1.8196e+06 0 0 -1.85836e+06 235825 0 -1.96305e+06 495847 0 -2.13562e+06 795621 0 -2.30117e+06 1.24301e+06 0 -2.14796e+06 1.68542e+06 0 -1.78542e+06 1.43897e+06 0 -1.73338e+06 1.11759e-08 0 -1.79606e+06 0 0 -1.83374e+06 242894 0 -1.93517e+06 508603 0 -2.09942e+06 816042 0 -2.25063e+06 1.25042e+06 0 -2.13087e+06 1.65414e+06 0 -1.85792e+06 1.42033e+06 0 -1.95252e+06 -2.23517e-08 0 -1.77187e+06 0 0 -1.80842e+06 249728 0 -1.90668e+06 521002 0 -2.06313e+06 835262 0 -2.20306e+06 1.25707e+06 0 -2.11619e+06 1.6298e+06 0 -1.92338e+06 1.41416e+06 0 -2.17946e+06 7.45058e-08 0 -1.74704e+06 0 0 -1.78244e+06 256368 0 -1.87759e+06 532955 0 -2.02685e+06 853555 0 -2.15782e+06 1.2631e+06 0 -2.10395e+06 1.61204e+06 0 -1.97952e+06 1.42036e+06 0 -2.42056e+06 -4.47035e-08 0 -1.72161e+06 0 0 -1.75579e+06 262872 0 -1.84796e+06 544341 0 -1.99069e+06 871268 0 -2.11422e+06 1.26845e+06 0 -2.09449e+06 1.60063e+06 0 -2.02324e+06 1.43889e+06 0 -2.68346e+06 1.49012e-08 0 -1.69564e+06 0 0 -1.72848e+06 269313 0 -1.81781e+06 554987 0 -1.95478e+06 888855 0 -2.07148e+06 1.27282e+06 0 -2.08864e+06 1.59559e+06 0 -2.05022e+06 1.46969e+06 0 -2.97773e+06 -2.98023e-08 0 -1.66922e+06 0 0 -1.70046e+06 275813 0 -1.7872e+06 564617 0 -1.91923e+06 906970 0 -2.02866e+06 1.27552e+06 0 -2.08792e+06 1.5973e+06 0 -2.05443e+06 1.5126e+06 0 -3.31568e+06 1.78814e-07 0 </DataArray> 
</PointData> 
<Points> 
<DataArray type="Float32" NumberOfComponents="3"> 
0 0.035 0 0.0142857 0.035 0 0.0285714 0.035 0 0.0428571 0.035 0 0.0571429 0.035 0 0.0714286 0.035 0 0.0857143 0.035 0 0.1 0.035 0 0 0.0364286 0 0.0142857 0.0364286 0 0.0285714 0.0364286 0 0.0428571 0.0364286 0 0.0571429 0.0364286 0 0.0714286 0.0364286 0 0.0857143 0.0364286 0 0.1 0.0364286 0 0 0.0378571 0 0.0142857 0.0378571 0 0.0285714 0.0378571 0 0.0428571 0.0378571 0 0.0571429 0.0378571 0 0.0714286 0.0378571 0 0.0857143 0.0378571 0 0.1 0.0378571 0 0 0.0392857 0 0.0142857 0.0392857 0 0.0285714 0.0392857 0 0.0428571 0.0392857 0 0.0571429 0.0392857 0 0.0714286 0.0392857 0 0.0857143 0.0392857 0 0.1 0.0392857 0 0 0.0407143 0 0.0142857 0.0407143 0 0.0285714 0.0407143 0 0.0428571 0.0407143 0 0.0571429 0.0407143 0 0.0714286 0.0407143 0 0.0857143 0.0407143 0 0.1 0.0407143 0 0 0.0421429 0 0.0142857 0.0421429 0 0.0285714 0.0421429 0 0.0428571 0.0421429 0 0.0571429 0.0421429 0 0.0714286 0.0421429 0 0.0857143 0.0421429 0 0.1 0.0421429 0 0 0.0435714 0 0.0142857 0.0435714 0 0.0285714 0.0435714 0 0.0428571 0.0435714 0 0.0571429 0.0435714 0 0.0714286 0.0435714 0 0.0857143 0.0435714 0 0.1 0.0435714 0 0 0.045 0 0.0142857 0.045 0 0.0285714 0.045 0 0.0428571 0.045 0 0.0571429 0.045 0 0.0714286 0.045 0 0.0857143 0.045 0 0.1 0.045 0 
</DataArray>
</Points> 
</Piece> 
</StructuredGrid> 
</VTKFile> 
