<?xml version="1.0"?> 
<VTKFile type="StructuredGrid" version="0.1"> 
<StructuredGrid WholeExtent="0 31 0 31 0 0"> 
<Piece Extent="0 31 0 31 0 0"> 
<PointData>
<DataArray type="Float32" Name="|E|" format="ascii" NumberOfComponents="3"> 
6.95085e+06 7.81044e+06 0 3.86177e+06 4.17812e+06 0 3.46669e+06 3.07949e+06 0 2.97143e+06 2.67594e+06 0 2.6533e+06 2.3781e+06 0 2.39857e+06 2.1812e+06 0 2.18842e+06 2.03137e+06 0 2.01166e+06 1.91247e+06 0 1.85905e+06 1.81393e+06 0 1.72512e+06 1.72951e+06 0 1.60605e+06 1.65524e+06 0 1.499e+06 1.58851e+06 0 1.4019e+06 1.52754e+06 0 1.31319e+06 1.47107e+06 0 1.23164e+06 1.41818e+06 0 1.1563e+06 1.36822e+06 0 1.0864e+06 1.32069e+06 0 1.02132e+06 1.2752e+06 0 960564 1.23147e+06 0 903699 1.18926e+06 0 850373 1.1484e+06 0 800283 1.10876e+06 0 753171 1.0702e+06 0 708813 1.03265e+06 0 667009 996026 0 627587 960270 0 590389 925329 0 555275 891160 0 522118 857727 0 490802 824996 0 461216 792943 0 433265 761533 0 3.67669e+06 4.38882e+06 0 3.19017e+06 3.45176e+06 0 2.94788e+06 2.90945e+06 0 2.61414e+06 2.58343e+06 0 2.39512e+06 2.33504e+06 0 2.19265e+06 2.1612e+06 0 2.02249e+06 2.02234e+06 0 1.87341e+06 1.90974e+06 0 1.74154e+06 1.81455e+06 0 1.62366e+06 1.73192e+06 0 1.51726e+06 1.65857e+06 0 1.42047e+06 1.59225e+06 0 1.33185e+06 1.53139e+06 0 1.25025e+06 1.47486e+06 0 1.17477e+06 1.42184e+06 0 1.10466e+06 1.3717e+06 0 1.03932e+06 1.32397e+06 0 978273 1.2783e+06 0 921091 1.23439e+06 0 867428 1.19204e+06 0 816987 1.15106e+06 0 769512 1.11132e+06 0 724779 1.07269e+06 0 682593 1.0351e+06 0 642781 998455 0 605189 962702 0 569677 927787 0 536118 893664 0 504398 860294 0 474408 827645 0 446053 795686 0 419234 764390 0 2.92955e+06 3.77003e+06 0 2.77128e+06 3.19264e+06 0 2.56065e+06 2.76638e+06 0 2.3511e+06 2.4946e+06 0 2.17893e+06 2.28985e+06 0 2.01657e+06 2.13469e+06 0 1.87557e+06 2.00747e+06 0 1.74803e+06 1.90167e+06 0 1.63315e+06 1.81052e+06 0 1.52872e+06 1.73038e+06 0 1.43327e+06 1.65853e+06 0 1.34554e+06 1.59312e+06 0 1.26452e+06 1.53279e+06 0 1.18941e+06 1.47656e+06 0 1.11951e+06 1.42369e+06 0 1.05428e+06 1.37362e+06 0 993241 1.3259e+06 0 936005 1.28022e+06 0 882236 1.23629e+06 0 831645 1.19392e+06 0 783986 1.15292e+06 0 739041 1.11318e+06 0 696619 1.07456e+06 0 656551 1.037e+06 0 618685 1.0004e+06 0 582886 964707 0 549028 929867 0 516999 895834 0 486693 862568 0 458013 830035 0 430873 798204 0 405178 767047 0 2.57315e+06 3.3546e+06 0 2.44776e+06 2.92296e+06 0 2.29001e+06 2.63338e+06 0 2.13782e+06 2.41685e+06 0 1.99572e+06 2.24396e+06 0 1.86355e+06 2.10533e+06 0 1.74382e+06 1.98908e+06 0 1.63358e+06 1.88993e+06 0 1.53264e+06 1.8031e+06 0 1.43961e+06 1.72577e+06 0 1.35364e+06 1.65578e+06 0 1.27392e+06 1.59161e+06 0 1.19975e+06 1.53211e+06 0 1.13054e+06 1.47644e+06 0 1.06581e+06 1.42395e+06 0 1.00513e+06 1.37413e+06 0 948133 1.3266e+06 0 894513 1.28104e+06 0 843998 1.23722e+06 0 796354 1.19494e+06 0 751375 1.15403e+06 0 708878 1.11436e+06 0 668700 1.07584e+06 0 630694 1.03837e+06 0 594729 1.00187e+06 0 560684 966294 0 528449 931577 0 497922 897677 0 469009 864553 0 441621 832171 0 415679 800498 0 391097 769508 0 2.30213e+06 3.05321e+06 0 2.19951e+06 2.76193e+06 0 2.07797e+06 2.533e+06 0 1.95618e+06 2.34887e+06 0 1.83854e+06 2.19959e+06 0 1.7278e+06 2.07518e+06 0 1.62457e+06 1.96859e+06 0 1.52836e+06 1.87569e+06 0 1.43896e+06 1.79314e+06 0 1.35567e+06 1.71875e+06 0 1.27798e+06 1.65081e+06 0 1.20537e+06 1.58808e+06 0 1.13737e+06 1.52962e+06 0 1.07357e+06 1.4747e+06 0 1.01361e+06 1.42276e+06 0 957175 1.37336e+06 0 903982 1.32615e+06 0 853788 1.28085e+06 0 806377 1.23725e+06 0 761559 1.19515e+06 0 719161 1.15441e+06 0 679031 1.11491e+06 0 641029 1.07654e+06 0 605031 1.03922e+06 0 570920 1.00289e+06 0 538591 967473 0 507947 932924 0 478895 899197 0 451352 866252 0 425237 834054 0 400477 802570 0 376995 771774 0 2.0888e+06 2.86342e+06 0 2.00145e+06 2.63107e+06 0 1.90149e+06 2.44315e+06 0 1.8e+06 2.28805e+06 0 1.70062e+06 2.15741e+06 0 1.60564e+06 2.04504e+06 0 1.51569e+06 1.94685e+06 0 1.43093e+06 1.85971e+06 0 1.35124e+06 1.78127e+06 0 1.27633e+06 1.70981e+06 0 1.20591e+06 1.644e+06 0 1.13965e+06 1.58284e+06 0 1.07723e+06 1.52555e+06 0 1.01839e+06 1.47152e+06 0 962847 1.42027e+06 0 910377 1.37141e+06 0 860765 1.32464e+06 0 813820 1.27971e+06 0 769370 1.23641e+06 0 727259 1.19459e+06 0 687347 1.1541e+06 0 649504 1.11483e+06 0 613614 1.07668e+06 0 579568 1.03958e+06 0 547265 1.00346e+06 0 516614 968252 0 487527 933914 0 459923 900399 0 433726 867669 0 408864 835687 0 385271 804422 0 362875 773847 0 1.9112e+06 2.71126e+06 0 1.83439e+06 2.52522e+06 0 1.74938e+06 2.36839e+06 0 1.66272e+06 2.23396e+06 0 1.57721e+06 2.11753e+06 0 1.49455e+06 2.01531e+06 0 1.41542e+06 1.92439e+06 0 1.34013e+06 1.84249e+06 0 1.26872e+06 1.76791e+06 0 1.2011e+06 1.6993e+06 0 1.1371e+06 1.63564e+06 0 1.07653e+06 1.57612e+06 0 1.01919e+06 1.5201e+06 0 964895 1.46706e+06 0 913455 1.4166e+06 0 864697 1.36839e+06 0 818460 1.32215e+06 0 774597 1.27767e+06 0 732971 1.23477e+06 0 693456 1.1933e+06 0 655936 1.15313e+06 0 620303 1.11415e+06 0 586459 1.07629e+06 0 554310 1.03946e+06 0 523770 1.00359e+06 0 494757 968641 0 467195 934555 0 441011 901290 0 416137 868807 0 392508 837073 0 370064 806055 0 348741 775727 0 1.75751e+06 2.59343e+06 0 1.68923e+06 2.43797e+06 0 1.61532e+06 2.30288e+06 0 1.53999e+06 2.18448e+06 0 1.4653e+06 2.07977e+06 0 1.39254e+06 1.98612e+06 0 1.32234e+06 1.90153e+06 0 1.25505e+06 1.82437e+06 0 1.19078e+06 1.75337e+06 0 1.12953e+06 1.68751e+06 0 1.07124e+06 1.62598e+06 0 1.01581e+06 1.56812e+06 0 963103 1.51342e+06 0 913001 1.46145e+06 0 865374 1.41186e+06 0 820094 1.36437e+06 0 777043 1.31875e+06 0 736105 1.2748e+06 0 697173 1.23237e+06 0 660146 1.19131e+06 0 624929 1.15152e+06 0 591431 1.1129e+06 0 559570 1.07537e+06 0 529265 1.03886e+06 0 500441 1.0033e+06 0 473027 968648 0 446956 934852 0 422164 901872 0 398589 869671 0 376173 838214 0 354861 807471 0 334595 777415 0 1.62156e+06 2.4961e+06 0 1.56023e+06 2.36294e+06 0 1.49499e+06 2.24477e+06 0 1.42864e+06 2.13909e+06 0 1.36267e+06 2.04392e+06 0 1.29807e+06 1.95751e+06 0 1.23538e+06 1.87846e+06 0 1.17494e+06 1.80557e+06 0 1.11688e+06 1.73789e+06 0 1.06127e+06 1.67464e+06 0 1.00809e+06 1.61518e+06 0 957309 1.55899e+06 0 908845 1.50564e+06 0 862620 1.45479e+06 0 818545 1.40613e+06 0 776532 1.35943e+06 0 736489 1.31449e+06 0 698330 1.27114e+06 0 661970 1.22924e+06 0 627328 1.18866e+06 0 594327 1.14931e+06 0 562891 1.1111e+06 0 532950 1.07395e+06 0 504435 1.0378e+06 0 477282 1.0026e+06 0 451429 968282 0 426816 934813 0 403387 902152 0 381087 870263 0 359862 839114 0 339665 808672 0 320442 778913 0 1.49903e+06 2.41372e+06 0 1.44361e+06 2.29747e+06 0 1.38545e+06 2.19239e+06 0 1.32645e+06 2.09689e+06 0 1.26769e+06 2.00965e+06 0 1.20994e+06 1.92945e+06 0 1.15367e+06 1.85527e+06 0 1.09916e+06 1.78624e+06 0 1.04656e+06 1.72164e+06 0 995973 1.66086e+06 0 947411 1.60341e+06 0 900864 1.54886e+06 0 856300 1.49688e+06 0 813670 1.44718e+06 0 772914 1.3995e+06 0 733971 1.35364e+06 0 696773 1.30944e+06 0 661256 1.26674e+06 0 627353 1.22542e+06 0 594999 1.18538e+06 0 564129 1.14652e+06 0 534684 1.10877e+06 0 506602 1.07205e+06 0 479826 1.03631e+06 0 454299 1.00149e+06 0 429968 967550 0 406780 934444 0 384685 902135 0 363635 870589 0 343581 839774 0 324481 809660 0 306285 780222 0 1.38711e+06 2.34224e+06 0 1.33684e+06 2.23904e+06 0 1.28461e+06 2.14442e+06 0 1.23176e+06 2.05729e+06 0 1.1791e+06 1.97673e+06 0 1.12722e+06 1.90188e+06 0 1.0765e+06 1.83201e+06 0 1.0272e+06 1.76647e+06 0 979455 1.70471e+06 0 933374 1.64627e+06 0 888994 1.59076e+06 0 846327 1.53784e+06 0 805363 1.48723e+06 0 766075 1.43869e+06 0 728427 1.39203e+06 0 692376 1.34706e+06 0 657873 1.30363e+06 0 624870 1.26164e+06 0 593314 1.22095e+06 0 563153 1.18149e+06 0 534337 1.14317e+06 0 506813 1.10592e+06 0 480531 1.06967e+06 0 455441 1.03438e+06 0 431497 999991 0 408649 966461 0 386853 933751 0 366063 901825 0 346238 870650 0 327333 840197 0 309311 810437 0 292127 781343 0 1.28379e+06 2.27887e+06 0 1.23805e+06 2.18605e+06 0 1.19092e+06 2.09994e+06 0 1.14335e+06 2.01977e+06 0 1.09595e+06 1.94491e+06 0 1.04916e+06 1.87473e+06 0 1.00332e+06 1.8087e+06 0 958626 1.74633e+06 0 915233 1.68721e+06 0 873228 1.63098e+06 0 832664 1.57734e+06 0 793566 1.526e+06 0 755938 1.47676e+06 0 719768 1.42941e+06 0 685036 1.38378e+06 0 651713 1.33972e+06 0 619765 1.29712e+06 0 589155 1.25587e+06 0 559843 1.21586e+06 0 531788 1.17703e+06 0 504947 1.13929e+06 0 479277 1.10258e+06 0 454738 1.06684e+06 0 431285 1.03203e+06 0 408878 998108 0 387476 965022 0 367038 932740 0 347525 901227 0 328899 870452 0 311122 840387 0 294159 811003 0 277971 782277 0 1.18757e+06 2.22169e+06 0 1.1459e+06 2.1373e+06 0 1.10324e+06 2.05823e+06 0 1.06027e+06 1.98395e+06 0 1.01745e+06 1.91399e+06 0 975163 1.84792e+06 0 933646 1.78532e+06 0 893089 1.72585e+06 0 853621 1.66919e+06 0 815328 1.61506e+06 0 778266 1.5632e+06 0 742464 1.51342e+06 0 707937 1.46553e+06 0 674684 1.41937e+06 0 642695 1.3748e+06 0 611951 1.33169e+06 0 582428 1.28995e+06 0 554100 1.24947e+06 0 526934 1.21018e+06 0 500899 1.17201e+06 0 475959 1.13488e+06 0 452080 1.09875e+06 0 429225 1.06357e+06 0 407360 1.02928e+06 0 386447 995852 0 366452 963243 0 347340 931418 0 329075 900346 0 311623 869998 0 294952 840345 0 279030 811363 0 263820 783026 0 1.09736e+06 2.16929e+06 0 1.05936e+06 2.09187e+06 0 1.02066e+06 2.01872e+06 0 981761 1.94947e+06 0 943026 1.88379e+06 0 904738 1.82136e+06 0 867105 1.76188e+06 0 830284 1.70507e+06 0 794387 1.6507e+06 0 759495 1.59854e+06 0 725660 1.54842e+06 0 692917 1.50016e+06 0 661284 1.45361e+06 0 630767 1.40864e+06 0 601362 1.36514e+06 0 573059 1.323e+06 0 545841 1.28214e+06 0 519689 1.24247e+06 0 494577 1.20393e+06 0 470481 1.16645e+06 0 447372 1.12998e+06 0 425220 1.09447e+06 0 403996 1.05987e+06 0 383669 1.02613e+06 0 364209 993232 0 345583 961129 0 327763 929790 0 310716 899187 0 294414 869291 0 278827 840076 0 263925 811516 0 249679 783590 0 1.01227e+06 2.12063e+06 0 977625 2.04905e+06 0 942489 1.98096e+06 0 907245 1.91608e+06 0 872171 1.85417e+06 0 837491 1.79499e+06 0 803376 1.73833e+06 0 769957 1.68398e+06 0 737332 1.63176e+06 0 705572 1.58149e+06 0 674728 1.53304e+06 0 644833 1.48625e+06 0 615909 1.44103e+06 0 587964 1.39725e+06 0 560999 1.35483e+06 0 535010 1.31368e+06 0 509985 1.27373e+06 0 485910 1.2349e+06 0 462765 1.19714e+06 0 440531 1.16039e+06 0 419183 1.1246e+06 0 398699 1.08974e+06 0 379051 1.05575e+06 0 360216 1.0226e+06 0 342165 990257 0 324872 958688 0 308311 927863 0 292454 897754 0 277276 868335 0 262749 839580 0 248850 811467 0 235549 783972 0 931621 2.07492e+06 0 900066 2.00832e+06 0 868176 1.94459e+06 0 836245 1.88353e+06 0 804491 1.82497e+06 0 773093 1.76874e+06 0 742190 1.71467e+06 0 711892 1.6626e+06 0 682283 1.6124e+06 0 653424 1.56393e+06 0 625363 1.51708e+06 0 598131 1.47175e+06 0 571749 1.42783e+06 0 546228 1.38525e+06 0 521572 1.34392e+06 0 497779 1.30377e+06 0 474843 1.26474e+06 0 452751 1.22678e+06 0 431491 1.18982e+06 0 411044 1.15383e+06 0 391392 1.11876e+06 0 372516 1.08457e+06 0 354393 1.05123e+06 0 337002 1.01869e+06 0 320319 986935 0 304322 955928 0 288987 925642 0 274291 896052 0 260211 867133 0 246724 838862 0 233806 811215 0 221434 784172 0 854876 2.03154e+06 0 826181 1.96923e+06 0 797272 1.90932e+06 0 768375 1.85165e+06 0 739661 1.7961e+06 0 711274 1.74254e+06 0 683326 1.69085e+06 0 655909 1.64091e+06 0 629094 1.59262e+06 0 602935 1.54588e+06 0 577473 1.50059e+06 0 552738 1.45668e+06 0 528748 1.41405e+06 0 505517 1.37266e+06 0 483048 1.33242e+06 0 461343 1.29329e+06 0 440397 1.25521e+06 0 420202 1.21813e+06 0 400746 1.18201e+06 0 382016 1.1468e+06 0 363997 1.11247e+06 0 346672 1.07899e+06 0 330023 1.04631e+06 0 314030 1.01442e+06 0 298675 983275 0 283937 952855 0 269796 923134 0 256232 894087 0 243225 865690 0 230753 837923 0 218798 810764 0 207338 784191 0 781592 1.98999e+06 0 755565 1.93144e+06 0 729416 1.87489e+06 0 703320 1.82026e+06 0 677412 1.76743e+06 0 651806 1.71633e+06 0 626594 1.66685e+06 0 601852 1.61892e+06 0 577640 1.57245e+06 0 554004 1.52736e+06 0 530978 1.48359e+06 0 508590 1.44106e+06 0 486858 1.39972e+06 0 465793 1.35951e+06 0 445400 1.32038e+06 0 425681 1.28228e+06 0 406634 1.24516e+06 0 388251 1.20898e+06 0 370525 1.17371e+06 0 353444 1.13932e+06 0 336997 1.10575e+06 0 321167 1.073e+06 0 305942 1.04102e+06 0 291303 1.00979e+06 0 277235 979285 0 263720 949476 0 250741 920343 0 238280 891861 0 226320 864009 0 214841 836767 0 203829 810114 0 193262 784032 0 711411 1.94989e+06 0 687889 1.89465e+06 0 664313 1.84112e+06 0 640821 1.78923e+06 0 617520 1.7389e+06 0 594499 1.69006e+06 0 571836 1.64266e+06 0 549591 1.59662e+06 0 527813 1.55188e+06 0 506542 1.50839e+06 0 485808 1.46609e+06 0 465633 1.42493e+06 0 446034 1.38486e+06 0 427022 1.34583e+06 0 408601 1.30781e+06 0 390774 1.27074e+06 0 373538 1.2346e+06 0 356890 1.19935e+06 0 340822 1.16496e+06 0 325325 1.13139e+06 0 310389 1.09862e+06 0 296002 1.06662e+06 0 282151 1.03536e+06 0 268823 1.00482e+06 0 256002 974973 0 243675 945799 0 231825 917275 0 220438 889380 0 209499 862093 0 198991 835396 0 188901 809270 0 179210 783696 0 644041 1.9109e+06 0 622881 1.85864e+06 0 601720 1.80783e+06 0 580664 1.75844e+06 0 559799 1.7104e+06 0 539197 1.66369e+06 0 518918 1.61823e+06 0 499012 1.57399e+06 0 479520 1.53093e+06 0 460475 1.48898e+06 0 441901 1.44812e+06 0 423817 1.40831e+06 0 406239 1.36949e+06 0 389174 1.33165e+06 0 372628 1.29473e+06 0 356604 1.25872e+06 0 341098 1.22357e+06 0 326109 1.18926e+06 0 311631 1.15576e+06 0 297655 1.12304e+06 0 284174 1.09108e+06 0 271177 1.05985e+06 0 258653 1.02934e+06 0 246591 999510 0 234979 970347 0 223804 941828 0 213052 913935 0 202711 886648 0 192767 859946 0 183207 833814 0 174018 808232 0 165185 783183 0 579243 1.87278e+06 0 560320 1.8232e+06 0 541436 1.77488e+06 0 522673 1.72779e+06 0 504097 1.68189e+06 0 485765 1.63716e+06 0 467727 1.59355e+06 0 450022 1.55104e+06 0 432683 1.50958e+06 0 415736 1.46914e+06 0 399203 1.42969e+06 0 383100 1.3912e+06 0 367437 1.35364e+06 0 352223 1.31697e+06 0 337462 1.28117e+06 0 323156 1.24621e+06 0 309303 1.21207e+06 0 295902 1.17872e+06 0 282947 1.14613e+06 0 270432 1.11428e+06 0 258349 1.08315e+06 0 246692 1.05272e+06 0 235449 1.02297e+06 0 224611 993873 0 214169 965414 0 204110 937572 0 194424 910330 0 185100 883669 0 176126 857572 0 167490 832022 0 159183 807002 0 151190 782496 0 516821 1.8353e+06 0 500027 1.78817e+06 0 483299 1.74214e+06 0 466700 1.69719e+06 0 450283 1.6533e+06 0 434093 1.61045e+06 0 418168 1.56861e+06 0 402539 1.52775e+06 0 387233 1.48785e+06 0 372271 1.44888e+06 0 357671 1.41082e+06 0 343444 1.37364e+06 0 329600 1.33732e+06 0 316145 1.30183e+06 0 303084 1.26715e+06 0 290417 1.23326e+06 0 278143 1.20013e+06 0 266261 1.16775e+06 0 254766 1.13608e+06 0 243653 1.10512e+06 0 232915 1.07485e+06 0 222547 1.04523e+06 0 212539 1.01626e+06 0 202884 987919 0 193573 960182 0 184597 933036 0 175945 906464 0 167610 880448 0 159580 854973 0 151846 830023 0 144399 805582 0 137227 781636 0 456615 1.79828e+06 0 441852 1.7534e+06 0 427173 1.7095e+06 0 412627 1.66657e+06 0 398254 1.62458e+06 0 384088 1.58352e+06 0 370161 1.54337e+06 0 356496 1.50411e+06 0 343114 1.46573e+06 0 330032 1.4282e+06 0 317262 1.39151e+06 0 304816 1.35563e+06 0 292701 1.32054e+06 0 280920 1.28623e+06 0 269478 1.25268e+06 0 258375 1.21986e+06 0 247610 1.18776e+06 0 237180 1.15636e+06 0 227084 1.12564e+06 0 217316 1.09559e+06 0 207871 1.06618e+06 0 198743 1.0374e+06 0 189926 1.00923e+06 0 181413 981654 0 173196 954659 0 165267 928227 0 157619 902342 0 150243 876989 0 143131 852154 0 136276 827821 0 129668 803975 0 123299 780604 0 398495 1.76155e+06 0 385675 1.71879e+06 0 372948 1.67689e+06 0 360353 1.63586e+06 0 347919 1.59568e+06 0 335674 1.55634e+06 0 323639 1.51783e+06 0 311835 1.48013e+06 0 300276 1.44323e+06 0 288977 1.40712e+06 0 277945 1.37177e+06 0 267190 1.33718e+06 0 256718 1.30333e+06 0 246530 1.2702e+06 0 236630 1.23778e+06 0 227019 1.20604e+06 0 217694 1.17498e+06 0 208655 1.14458e+06 0 199898 1.11482e+06 0 191420 1.08568e+06 0 183216 1.05715e+06 0 175282 1.02922e+06 0 167611 1.00187e+06 0 160199 975087 0 153038 948850 0 146123 923150 0 139447 897970 0 133003 873297 0 126784 849117 0 120784 825417 0 114995 802183 0 109410 779401 0 342359 1.72501e+06 0 331399 1.68423e+06 0 320536 1.64423e+06 0 309798 1.60502e+06 0 299208 1.56657e+06 0 288786 1.52889e+06 0 278548 1.49197e+06 0 268509 1.45579e+06 0 258680 1.42035e+06 0 249071 1.38563e+06 0 239690 1.35163e+06 0 230542 1.31832e+06 0 221631 1.2857e+06 0 212960 1.25375e+06 0 204529 1.22246e+06 0 196340 1.19182e+06 0 188390 1.16181e+06 0 180680 1.13241e+06 0 173205 1.10362e+06 0 165963 1.07542e+06 0 158950 1.04779e+06 0 152163 1.02072e+06 0 145595 994208 0 139244 968226 0 133103 942765 0 127168 917811 0 121433 893353 0 115892 869375 0 110541 845867 0 105372 822815 0 100381 800207 0 95562.2 778031 0 288123 1.68853e+06 0 278946 1.64964e+06 0 269865 1.61146e+06 0 260898 1.57399e+06 0 252062 1.53722e+06 0 243373 1.50116e+06 0 234841 1.46579e+06 0 226477 1.4311e+06 0 218290 1.3971e+06 0 210287 1.36376e+06 0 202472 1.33108e+06 0 194851 1.29906e+06 0 187424 1.26767e+06 0 180195 1.2369e+06 0 173164 1.20675e+06 0 166330 1.17721e+06 0 159693 1.14825e+06 0 153251 1.11987e+06 0 147002 1.09206e+06 0 140944 1.06481e+06 0 135073 1.0381e+06 0 129387 1.01191e+06 0 123880 986242 0 118551 961079 0 113394 936408 0 108405 912217 0 103580 888495 0 98914.6 865229 0 94404.3 842407 0 90044.4 820018 0 85830.6 798050 0 81757.8 776493 0 235724 1.65203e+06 0 228257 1.61495e+06 0 220878 1.57852e+06 0 213600 1.54274e+06 0 206434 1.50761e+06 0 199392 1.47313e+06 0 192480 1.43928e+06 0 185708 1.40607e+06 0 179079 1.37348e+06 0 172599 1.34151e+06 0 166272 1.31015e+06 0 160099 1.2794e+06 0 154083 1.24924e+06 0 148225 1.21966e+06 0 142525 1.19066e+06 0 136982 1.16222e+06 0 131596 1.13433e+06 0 126365 1.10698e+06 0 121288 1.08017e+06 0 116362 1.05387e+06 0 111586 1.02808e+06 0 106955 1.00279e+06 0 102468 977985 0 98121.3 953655 0 93911.8 929788 0 89836.1 906374 0 85890.9 883402 0 82072.7 860861 0 78378.1 838739 0 74803.4 817027 0 71345.4 795714 0 67999.8 774789 0 185114 1.61544e+06 0 179285 1.58011e+06 0 173531 1.54539e+06 0 167863 1.51126e+06 0 162286 1.47773e+06 0 156809 1.44479e+06 0 151436 1.41244e+06 0 146173 1.38068e+06 0 141022 1.3495e+06 0 135987 1.31889e+06 0 131070 1.28885e+06 0 126273 1.25937e+06 0 121596 1.23044e+06 0 117040 1.20205e+06 0 112605 1.1742e+06 0 108291 1.14687e+06 0 104096 1.12006e+06 0 100020 1.09375e+06 0 96061.1 1.06794e+06 0 92217.5 1.04261e+06 0 88487.4 1.01776e+06 0 84868.8 993373 0 81359.6 969444 0 77957.4 945960 0 74659.8 922911 0 71464.3 900287 0 68368.4 878079 0 65369.4 856276 0 62464.9 834868 0 59652.1 813846 0 56928.4 793201 0 54290.9 772921 0 136257 1.5787e+06 0 131994 1.54508e+06 0 127792 1.51202e+06 0 123655 1.47951e+06 0 119589 1.44755e+06 0 115598 1.41614e+06 0 111684 1.38528e+06 0 107851 1.35495e+06 0 104100 1.32517e+06 0 100434 1.29592e+06 0 96853.4 1.26719e+06 0 93359.3 1.23898e+06 0 89952 1.21128e+06 0 86631.8 1.18409e+06 0 83398.3 1.15739e+06 0 80251.1 1.13118e+06 0 77189.6 1.10545e+06 0 74212.7 1.08019e+06 0 71319.6 1.05539e+06 0 68508.8 1.03104e+06 0 65779.1 1.00714e+06 0 63129 983670 0 60556.9 960628 0 58061.3 938002 0 55640.3 915783 0 53292.2 893962 0 51015.3 872530 0 48807.7 851478 0 46667.6 830797 0 44593.2 810478 0 42582.7 790512 0 40633.9 770891 0 89128 1.54178e+06 0 86360.3 1.50983e+06 0 83634.5 1.4784e+06 0 80953.6 1.44749e+06 0 78320.2 1.41708e+06 0 75736.3 1.38718e+06 0 73203.7 1.35779e+06 0 70723.7 1.3289e+06 0 68297.5 1.3005e+06 0 65925.9 1.2726e+06 0 63609.4 1.24518e+06 0 61348.3 1.21824e+06 0 59142.8 1.19178e+06 0 56992.8 1.16578e+06 0 54898.1 1.14024e+06 0 52858.3 1.11516e+06 0 50872.9 1.09051e+06 0 48941.3 1.06631e+06 0 47062.7 1.04253e+06 0 45236.3 1.01918e+06 0 43461.3 996231 0 41736.8 973691 0 40061.6 951546 0 38434.9 929790 0 36855.5 908412 0 35322.4 887405 0 33834.4 866762 0 32390.3 846472 0 30989.2 826530 0 29629.7 806925 0 28310.9 787651 0 27031.3 768700 0 43712.7 1.50464e+06 0 42366.1 1.47435e+06 0 41041.4 1.44453e+06 0 39739.5 1.41519e+06 0 38461.4 1.38632e+06 0 37208 1.35792e+06 0 35979.8 1.32999e+06 0 34777.3 1.30252e+06 0 33601 1.27551e+06 0 32451.1 1.24895e+06 0 31327.7 1.22284e+06 0 30231 1.19718e+06 0 29160.9 1.17195e+06 0 28117.3 1.14715e+06 0 27100.1 1.12278e+06 0 26109 1.09882e+06 0 25143.8 1.07527e+06 0 24204.1 1.05213e+06 0 23289.7 1.02938e+06 0 22400 1.00702e+06 0 21534.7 985047 0 20693.3 963444 0 19875.4 942207 0 19080.5 921330 0 18308 900804 0 17557.5 880622 0 16828.4 860777 0 16120.2 841262 0 15432.4 822069 0 14764.4 803190 0 14115.8 784620 0 13485.8 766350 0 0 1.46728e+06 0 0 1.43862e+06 0 0 1.4104e+06 0 0 1.38262e+06 0 0 1.35528e+06 0 0 1.32837e+06 0 0 1.30189e+06 0 0 1.27584e+06 0 0 1.25021e+06 0 0 1.225e+06 0 0 1.2002e+06 0 0 1.1758e+06 0 0 1.15181e+06 0 0 1.12822e+06 0 0 1.10501e+06 0 0 1.08219e+06 0 0 1.05974e+06 0 0 1.03766e+06 0 0 1.01595e+06 0 0 994599 0 0 973597 0 0 952939 0 0 932619 0 0 912630 0 0 892966 0 0 873619 0 0 854583 0 0 835852 0 0 817418 0 0 799277 0 0 781420 0 0 763842 0 </DataArray> 
</PointData> 
<Points> 
<DataArray type="Float32" NumberOfComponents="3"> 