<?xml version="1.0"?> 
<VTKFile type="StructuredGrid" version="0.1"> 
<StructuredGrid WholeExtent="0 31 0 31 0 0"> 
<Piece Extent="0 31 0 31 0 0"> 
<PointData>
<DataArray type="Float32" Name="|E|" format="ascii" NumberOfComponents="3"> 
-2.08616e-07 -1.90735e-06 0 1.24332e-07 975.835 0 -1.18278e-07 788.104 0 9.12696e-08 566.888 0 -4.47035e-08 398.951 0 2.6077e-08 279.138 0 -4.84288e-08 196.899 0 2.98023e-08 140.185 0 -7.45058e-09 101.038 0 -1.49012e-08 73.7055 0 7.45058e-09 54.3946 0 1.49012e-08 40.5644 0 -7.45058e-09 30.5279 0 5.96046e-08 23.1533 0 -2.98023e-08 17.6739 0 -2.23517e-08 13.5627 0 1.49012e-08 10.4522 0 2.98023e-08 8.08204 0 0 6.26535 0 7.45058e-09 4.86586 0 -4.47035e-08 3.78307 0 1.49012e-08 2.94202 0 -1.49012e-08 2.28621 0 2.98023e-08 1.77265 0 -4.47035e-08 1.36837 0 2.98023e-08 1.04784 0 -4.47035e-08 0.791059 0 4.47035e-08 0.582204 0 -7.45058e-08 0.408506 0 1.04308e-07 0.259413 0 -1.3411e-07 0.125927 0 1.78814e-07 7.15256e-07 0 40.098 -2.32458e-06 0 -1.87309 976.118 0 -6.7704 788.077 0 -5.95134 566.868 0 -5.23684 398.916 0 -4.001 279.107 0 -3.11461 196.871 0 -2.36166 140.163 0 -1.79931 101.019 0 -1.37419 73.6907 0 -1.0567 54.3828 0 -0.81905 40.555 0 -0.639895 30.5203 0 -0.503726 23.1472 0 -0.399181 17.6689 0 -0.318137 13.5586 0 -0.254736 10.4488 0 -0.204738 8.07928 0 -0.165048 6.26305 0 -0.133373 4.86395 0 -0.107999 3.78148 0 -0.0876259 2.94069 0 -0.071258 2.2851 0 -0.0581253 1.77173 0 -0.0476311 1.36762 0 -0.0393117 1.04722 0 -0.0328107 0.790561 0 -0.0278597 0.581814 0 -0.024265 0.408213 0 -0.0219012 0.259217 0 -0.0207035 0.125825 0 -0.0206801 -9.72301e-07 0 80.2576 2.86102e-06 0 -3.78782 976.948 0 -13.5357 787.997 0 -11.905 566.811 0 -10.4727 398.811 0 -8.00103 279.015 0 -6.22839 196.791 0 -4.72239 140.096 0 -3.59786 100.965 0 -2.7477 73.6473 0 -2.11284 54.3482 0 -1.63764 40.5273 0 -1.27941 30.4981 0 -1.00714 23.1292 0 -0.798102 17.6543 0 -0.636058 13.5467 0 -0.509289 10.439 0 -0.409324 8.07114 0 -0.329966 6.25631 0 -0.266635 4.85833 0 -0.215904 3.7768 0 -0.175171 2.9368 0 -0.142446 2.28186 0 -0.11619 1.76904 0 -0.0952096 1.3654 0 -0.0785774 1.0454 0 -0.0655805 0.789097 0 -0.0556826 0.580666 0 -0.048496 0.407356 0 -0.0437699 0.258638 0 -0.0413746 0.125527 0 -0.0413261 4.32134e-07 0 120.54 -2.02656e-06 0 -5.78589 978.327 0 -20.2907 787.863 0 -17.8634 566.717 0 -15.7067 398.636 0 -11.9991 278.864 0 -9.34053 196.657 0 -7.08125 139.985 0 -5.3949 100.875 0 -4.11986 73.5752 0 -3.16787 54.2907 0 -2.4553 40.4813 0 -1.91816 30.4612 0 -1.50992 23.0994 0 -1.1965 17.6301 0 -0.953546 13.5268 0 -0.763482 10.4227 0 -0.613604 8.05765 0 -0.494626 6.24511 0 -0.399678 4.84902 0 -0.323621 3.76904 0 -0.262555 2.93033 0 -0.213495 2.27648 0 -0.174135 1.76458 0 -0.142683 1.36171 0 -0.117751 1.04239 0 -0.098269 0.786669 0 -0.0834323 0.578762 0 -0.0726594 0.405934 0 -0.0655739 0.257678 0 -0.061981 0.125032 0 -0.0619033 -1.71363e-07 0 161.008 1.66893e-06 0 -7.90927 980.253 0 -27.0301 787.673 0 -23.8291 566.585 0 -20.9379 398.392 0 -15.9943 278.652 0 -12.4502 196.469 0 -9.43731 139.83 0 -7.18967 100.75 0 -5.49 73.4746 0 -4.22123 54.2104 0 -3.27157 40.4171 0 -2.55577 30.4096 0 -2.01176 23.0578 0 -1.59412 17.5962 0 -1.27039 13.4992 0 -1.01713 10.3999 0 -0.817429 8.03881 0 -0.658899 6.22948 0 -0.532392 4.83601 0 -0.431056 3.75821 0 -0.349697 2.92131 0 -0.284336 2.26897 0 -0.231899 1.75835 0 -0.19 1.35657 0 -0.156788 1.03818 0 -0.130836 0.78328 0 -0.111072 0.576104 0 -0.0967213 0.40395 0 -0.0872808 0.256339 0 -0.0824904 0.124342 0 -0.0823777 2.38419e-07 0 201.723 -3.21865e-06 0 -10.2004 982.727 0 -33.7479 787.427 0 -29.8046 566.416 0 -26.165 398.078 0 -19.9858 278.38 0 -15.5566 196.229 0 -11.7896 139.631 0 -8.98143 100.588 0 -6.85745 73.3454 0 -5.27237 54.1073 0 -4.08601 40.3348 0 -3.19186 30.3435 0 -2.51235 23.0044 0 -1.99071 17.5528 0 -1.58637 13.4636 0 -1.27006 10.3706 0 -1.02065 8.01464 0 -0.822658 6.20942 0 -0.664668 4.81933 0 -0.538117 3.74431 0 -0.436517 2.90973 0 -0.354899 2.25933 0 -0.289423 1.75035 0 -0.237108 1.34997 0 -0.195641 1.03278 0 -0.16324 0.778935 0 -0.138566 0.572697 0 -0.120648 0.401407 0 -0.108859 0.254623 0 -0.102871 0.123458 0 -0.102716 -3.12924e-07 0 242.748 2.14577e-06 0 -12.7024 985.748 0 -40.4381 787.122 0 -35.7929 566.211 0 -31.387 397.694 0 -23.9725 278.048 0 -18.6588 195.935 0 -14.1373 139.388 0 -10.7694 100.392 0 -8.22154 73.1878 0 -6.32075 53.9816 0 -4.89813 40.2343 0 -3.82605 30.2628 0 -3.01138 22.9392 0 -2.386 17.4999 0 -1.90127 13.4203 0 -1.52209 10.335 0 -1.22311 7.98516 0 -0.985776 6.18496 0 -0.796398 4.79899 0 -0.64471 3.72737 0 -0.522936 2.89561 0 -0.425116 2.24758 0 -0.346648 1.7406 0 -0.283956 1.34192 0 -0.234266 1.02621 0 -0.195443 0.773639 0 -0.165877 0.568545 0 -0.144407 0.398307 0 -0.130276 0.252532 0 -0.12309 0.122381 0 -0.122883 2.83122e-07 0 284.148 -4.76837e-07 0 -15.4589 989.315 0 -47.0938 786.755 0 -41.7971 565.97 0 -36.6025 397.239 0 -27.9538 277.656 0 -21.756 195.588 0 -16.4794 139.102 0 -12.5529 100.16 0 -9.5816 73.0018 0 -7.3658 53.8332 0 -5.7075 40.1157 0 -4.45798 30.1677 0 -3.50854 22.8624 0 -2.77975 17.4374 0 -2.21488 13.3692 0 -1.77304 10.2929 0 -1.42466 7.9504 0 -1.14813 6.15612 0 -0.927473 4.775 0 -0.750744 3.70739 0 -0.608874 2.87896 0 -0.49492 2.23373 0 -0.403514 1.72911 0 -0.330491 1.33244 0 -0.272617 1.01845 0 -0.227403 0.767398 0 -0.192971 0.563653 0 -0.167965 0.394657 0 -0.1515 0.250069 0 -0.143116 0.121113 0 -0.142847 -2.08616e-07 0 325.988 -1.43051e-06 0 -18.5148 993.428 0 -53.7074 786.324 0 -47.8206 565.693 0 -41.81 396.713 0 -31.9288 277.205 0 -24.8473 195.188 0 -18.8151 138.771 0 -14.3311 99.892 0 -10.937 72.7875 0 -8.407 53.6624 0 -6.51366 39.9792 0 -5.08726 30.0581 0 -4.00352 22.7739 0 -3.17169 17.3655 0 -2.527 13.3103 0 -2.02274 10.2445 0 -1.62515 7.91038 0 -1.30958 6.12292 0 -1.05779 4.74739 0 -0.856127 3.68439 0 -0.694253 2.85981 0 -0.564241 2.2178 0 -0.459963 1.7159 0 -0.376664 1.32154 0 -0.310651 1.00954 0 -0.259082 0.760221 0 -0.219811 0.558028 0 -0.191288 0.39046 0 -0.172501 0.247238 0 -0.162919 0.119655 0 -0.162575 5.96046e-08 0 368.333 1.19209e-06 0 -21.9157 998.086 0 -60.2707 785.825 0 -53.8672 565.381 0 -47.0079 396.116 0 -35.8969 276.695 0 -27.9318 194.735 0 -21.1433 138.398 0 -16.1033 99.5892 0 -12.287 72.5451 0 -9.4438 53.4691 0 -7.31615 39.8247 0 -5.71353 29.9342 0 -4.49601 22.6738 0 -3.56158 17.2841 0 -2.83741 13.2438 0 -2.27101 10.1898 0 -1.82445 7.86515 0 -1.47002 6.0854 0 -1.18723 4.71618 0 -0.960768 3.6584 0 -0.778996 2.83817 0 -0.633013 2.1998 0 -0.515937 1.70096 0 -0.422424 1.30922 0 -0.348323 0.999471 0 -0.29044 0.752118 0 -0.246362 0.551679 0 -0.214345 0.385723 0 -0.193247 0.244044 0 -0.182467 0.118011 0 -0.182032 1.19209e-07 0 411.251 2.38419e-07 0 -25.7088 1003.29 0 -66.7742 785.254 0 -59.9414 565.036 0 -52.1942 395.446 0 -39.8574 276.126 0 -31.0086 194.228 0 -23.4632 137.981 0 -17.8688 99.2513 0 -13.631 72.2748 0 -10.4757 53.2535 0 -8.11453 39.6526 0 -6.33642 29.7961 0 -4.98572 22.5623 0 -3.94917 17.1935 0 -3.14591 13.1697 0 -2.51768 10.1288 0 -2.02239 7.81474 0 -1.62931 6.04358 0 -1.31571 4.68141 0 -1.06458 3.62945 0 -0.863024 2.81405 0 -0.70117 2.17974 0 -0.571378 1.68433 0 -0.46772 1.2955 0 -0.38559 0.988262 0 -0.321439 0.743098 0 -0.27259 0.544613 0 -0.237104 0.380452 0 -0.213708 0.240491 0 -0.201729 0.116182 0 -0.201189 -8.9407e-08 0 454.812 -2.38419e-06 0 -29.9423 1009.03 0 -73.2077 784.606 0 -66.0479 564.657 0 -57.3666 394.703 0 -43.81 275.498 0 -34.0767 193.668 0 -25.774 137.521 0 -19.6268 98.8783 0 -14.9683 71.9766 0 -11.502 53.0158 0 -8.90835 39.4628 0 -6.95557 29.6438 0 -5.47235 22.4394 0 -4.3342 17.0936 0 -3.45228 13.088 0 -2.76257 10.0616 0 -2.21884 7.75919 0 -1.78734 5.99751 0 -1.44311 4.6431 0 -1.16747 3.59755 0 -0.946261 2.7875 0 -0.768645 2.15765 0 -0.62623 1.66602 0 -0.512504 1.2804 0 -0.422407 0.975925 0 -0.35204 0.733174 0 -0.29846 0.53684 0 -0.259532 0.374656 0 -0.233853 0.236585 0 -0.220676 0.114172 0 -0.220012 8.9407e-08 0 499.085 2.86102e-06 0 -34.6662 1015.32 0 -79.5594 783.878 0 -72.1921 564.245 0 -62.5228 393.887 0 -47.7542 274.812 0 -37.135 193.056 0 -28.0748 137.018 0 -21.3765 98.4706 0 -16.2982 71.6508 0 -12.5224 52.7561 0 -9.69717 39.2554 0 -7.57062 29.4775 0 -5.95559 22.3051 0 -4.71644 16.9845 0 -3.75633 12.9988 0 -3.00552 9.98821 0 -2.41366 7.69856 0 -1.94398 5.94723 0 -1.56932 4.60129 0 -1.26934 3.56275 0 -1.02863 2.75852 0 -0.835374 2.13356 0 -0.680437 1.64605 0 -0.556726 1.26394 0 -0.458732 0.962475 0 -0.382206 0.722357 0 -0.323938 0.52837 0 -0.281598 0.368343 0 -0.253653 0.232332 0 -0.239277 0.111985 0 -0.23847 -2.08616e-07 0 544.144 0 0 -39.9322 1022.14 0 -85.8163 783.065 0 -78.3802 563.801 0 -67.6596 392.996 0 -51.6899 274.069 0 -40.1824 192.39 0 -30.3647 136.473 0 -23.1173 98.0283 0 -17.6202 71.2976 0 -13.5363 52.4745 0 -10.4805 39.0307 0 -8.1812 29.2973 0 -6.43515 22.1597 0 -5.09564 16.8664 0 -4.05786 12.9021 0 -3.24635 9.90875 0 -2.60669 7.6329 0 -2.09912 5.89277 0 -1.69426 4.55603 0 -1.37013 3.52507 0 -1.11006 2.72716 0 -0.901293 2.10749 0 -0.733942 1.62444 0 -0.600339 1.24613 0 -0.494524 0.94793 0 -0.4119 0.710662 0 -0.348991 0.519216 0 -0.303273 0.361521 0 -0.273078 0.227737 0 -0.257505 0.109622 0 -0.256533 1.19209e-07 0 590.064 -1.43051e-06 0 -45.7939 1029.5 0 -91.9638 782.161 0 -84.6192 563.327 0 -72.7739 392.031 0 -55.6171 273.267 0 -43.2179 191.671 0 -32.6429 135.885 0 -24.8484 97.5515 0 -18.9336 70.9171 0 -14.5431 52.1713 0 -11.2581 38.7888 0 -8.78697 29.1033 0 -6.91075 22.0032 0 -5.47157 16.7392 0 -4.35666 12.7982 0 -3.48491 9.82325 0 -2.79781 7.56226 0 -2.25263 5.8342 0 -1.81781 4.50734 0 -1.46973 3.48456 0 -1.19048 2.69344 0 -0.966338 2.07946 0 -0.786691 1.60122 0 -0.643295 1.22699 0 -0.529741 0.932306 0 -0.441085 0.698103 0 -0.373586 0.509388 0 -0.324526 0.3542 0 -0.292101 0.222809 0 -0.27533 0.10709 0 -0.274172 -2.38419e-07 0 636.921 9.53674e-07 0 -52.3071 1037.39 0 -97.9857 781.161 0 -90.9167 562.822 0 -77.8617 390.99 0 -59.536 272.409 0 -46.24 190.899 0 -34.9087 135.256 0 -26.5691 97.0405 0 -20.2376 70.5096 0 -15.5423 51.8466 0 -12.0292 38.5299 0 -9.38759 28.8957 0 -7.3821 21.8357 0 -5.84398 16.6032 0 -4.65254 12.6869 0 -3.72103 9.73179 0 -2.98688 7.4867 0 -2.40441 5.77156 0 -1.93989 4.45528 0 -1.56807 3.44124 0 -1.26981 2.65739 0 -1.03045 2.04951 0 -0.838632 1.57641 0 -0.685548 1.20655 0 -0.564343 0.915623 0 -0.469726 0.684697 0 -0.397692 0.498902 0 -0.345327 0.346391 0 -0.310693 0.217554 0 -0.292725 0.10439 0 -0.291356 0 0 684.797 -9.53674e-07 0 -59.5296 1045.81 0 -103.864 780.059 0 -97.2817 562.288 0 -82.9186 389.872 0 -63.4472 271.495 0 -49.2475 190.074 0 -37.1613 134.584 0 -28.2785 96.4954 0 -21.5318 70.0754 0 -16.5335 51.5007 0 -12.7937 38.2541 0 -9.9827 28.6747 0 -7.84891 21.6574 0 -6.21265 16.4583 0 -4.94532 12.5685 0 -3.95455 9.63445 0 -3.17375 7.4063 0 -2.55433 5.70491 0 -2.06039 4.3999 0 -1.66506 3.39516 0 -1.34798 2.61906 0 -1.09356 2.01766 0 -0.88971 1.55003 0 -0.727053 1.18483 0 -0.598289 0.8979 0 -0.497787 0.670461 0 -0.421276 0.48777 0 -0.365648 0.338105 0 -0.328826 0.21198 0 -0.309662 0.101528 0 -0.308059 2.38419e-07 0 733.772 4.76837e-07 0 -67.5219 1054.76 0 -109.578 778.85 0 -103.724 561.726 0 -87.9396 388.677 0 -67.3515 270.524 0 -52.2388 189.196 0 -39.4 133.871 0 -29.9759 95.9166 0 -22.8155 69.6147 0 -17.5161 51.1337 0 -13.551 37.9617 0 -10.572 28.4403 0 -8.3109 21.4684 0 -6.57735 16.3048 0 -5.23479 12.4431 0 -4.1853 9.53132 0 -3.35831 7.32112 0 -2.70229 5.63431 0 -2.17921 4.34124 0 -1.76062 3.34637 0 -1.42493 2.57848 0 -1.15562 1.98396 0 -0.939875 1.52212 0 -0.767763 1.16185 0 -0.631541 0.879159 0 -0.525234 0.655412 0 -0.444309 0.476008 0 -0.385461 0.329354 0 -0.346475 0.206096 0 -0.326116 0.0985086 0 -0.324251 -2.38419e-07 0 783.932 4.76837e-07 0 -76.3472 1064.23 0 -115.105 777.528 0 -110.255 561.135 0 -92.9189 387.404 0 -71.2501 269.497 0 -55.2122 188.266 0 -41.6244 133.117 0 -31.6605 95.3043 0 -24.0881 69.1277 0 -18.4897 50.7458 0 -14.3008 37.6528 0 -11.1551 28.1928 0 -8.76781 21.2689 0 -6.93785 16.1428 0 -5.52077 12.3107 0 -4.41315 9.42247 0 -3.54041 7.23123 0 -2.84817 5.55981 0 -2.29627 4.27936 0 -1.85466 3.29491 0 -1.50058 2.53568 0 -1.21656 1.94842 0 -0.989076 1.49271 0 -0.807636 1.13765 0 -0.664061 0.859422 0 -0.552034 0.639571 0 -0.46676 0.463631 0 -0.404738 0.32015 0 -0.363613 0.199911 0 -0.342061 0.0953359 0 -0.339907 2.98023e-07 0 835.367 -2.38419e-06 0 -86.0715 1074.22 0 -120.421 776.087 0 -116.887 560.518 0 -97.8498 386.052 0 -75.1445 268.414 0 -58.1658 187.283 0 -43.8339 132.322 0 -33.3315 94.6589 0 -25.349 68.6148 0 -19.4536 50.3374 0 -15.0426 37.3277 0 -11.7317 27.9323 0 -9.21936 21.0589 0 -7.29393 15.9724 0 -5.80309 12.1714 0 -4.63792 9.308 0 -3.71993 7.13671 0 -2.99186 5.48149 0 -2.41147 4.21431 0 -1.94713 3.24083 0 -1.57487 2.49072 0 -1.27632 1.9111 0 -1.03726 1.46183 0 -0.84663 1.11224 0 -0.695811 0.838714 0 -0.578153 0.622957 0 -0.488601 0.450657 0 -0.423453 0.310506 0 -0.380216 0.193434 0 -0.357471 0.0920154 0 -0.355001 -1.19209e-07 0 888.169 3.8147e-06 0 -96.7639 1084.72 0 -125.498 774.522 0 -123.634 559.873 0 -102.725 384.622 0 -79.0368 267.277 0 -61.0975 186.249 0 -46.028 131.487 0 -34.988 93.9805 0 -26.5977 68.0762 0 -20.4075 49.9087 0 -15.776 36.9866 0 -12.3015 27.659 0 -9.66529 20.8387 0 -7.64539 15.7936 0 -6.08156 12.0254 0 -4.85949 9.188 0 -3.89675 7.03764 0 -3.13327 5.39942 0 -2.52472 4.14616 0 -2.03792 3.18417 0 -1.64773 2.44363 0 -1.33486 1.87202 0 -1.08439 1.42951 0 -0.884701 1.08566 0 -0.726756 0.817058 0 -0.603562 0.605591 0 -0.509802 0.437102 0 -0.44158 0.300436 0 -0.396258 0.186674 0 -0.372323 0.0885524 0 -0.369508 1.78814e-07 0 942.432 -3.8147e-06 0 -108.497 1095.72 0 -130.306 772.827 0 -130.512 559.201 0 -107.535 383.112 0 -82.9298 266.084 0 -64.0049 185.162 0 -48.2067 130.611 0 -36.6291 93.2697 0 -27.8335 67.5122 0 -21.3508 49.46 0 -16.5007 36.6297 0 -12.8641 27.3732 0 -10.1053 20.6085 0 -7.99201 15.6067 0 -6.35601 11.8727 0 -5.07769 9.06257 0 -4.07074 6.93411 0 -3.27229 5.31366 0 -2.63594 4.07497 0 -2.12698 3.12501 0 -1.7191 2.39447 0 -1.39212 1.83124 0 -1.13041 1.39578 0 -0.921811 1.05793 0 -0.75686 0.794482 0 -0.628227 0.587494 0 -0.530337 0.422985 0 -0.459094 0.289955 0 -0.411717 0.179643 0 -0.386595 0.0849523 0 -0.383404 -1.78814e-07 0 998.258 2.86102e-06 0 -121.346 1107.22 0 -134.81 770.997 0 -137.539 558.502 0 -112.272 381.523 0 -86.8267 264.836 0 -66.8853 184.024 0 -50.3697 129.695 0 -38.2538 92.5268 0 -29.0562 66.9232 0 -22.2831 48.9915 0 -17.2162 36.2573 0 -13.4193 27.0751 0 -10.5393 20.3684 0 -8.33357 15.4119 0 -6.62627 11.7136 0 -5.29239 8.93183 0 -4.24179 6.8262 0 -3.40881 5.22429 0 -2.74504 4.00079 0 -2.21423 3.06338 0 -1.78892 2.34328 0 -1.44804 1.78878 0 -1.17527 1.36069 0 -0.957919 1.02909 0 -0.786089 0.771011 0 -0.652121 0.568691 0 -0.550179 0.408325 0 -0.475971 0.279076 0 -0.426571 0.172349 0 -0.400263 0.081221 0 -0.396666 1.78814e-07 0 1055.75 -9.53674e-07 0 -135.392 1119.21 0 -138.975 769.026 0 -144.734 557.776 0 -116.922 379.855 0 -90.7316 263.533 0 -69.7354 182.835 0 -52.5173 128.739 0 -39.8611 91.7524 0 -30.2651 66.3093 0 -23.2038 48.5037 0 -17.9222 35.8696 0 -13.9668 26.7648 0 -10.9668 20.1185 0 -8.66989 15.2092 0 -6.89216 11.548 0 -5.50346 8.79586 0 -4.40977 6.71401 0 -3.54275 5.1314 0 -2.85193 3.92371 0 -2.2996 2.99935 0 -1.85712 2.29011 0 -1.50257 1.7447 0 -1.21893 1.32427 0 -0.992987 0.999179 0 -0.814411 0.746675 0 -0.675213 0.549205 0 -0.569303 0.393141 0 -0.492189 0.267816 0 -0.440796 0.164805 0 -0.413307 0.0773637 0 -0.409272 -1.78814e-07 0 1115.02 9.53674e-07 0 -150.718 1131.67 0 -142.759 766.912 0 -152.12 557.021 0 -121.475 378.108 0 -94.6494 262.174 0 -72.5516 181.597 0 -54.6498 127.743 0 -41.4497 90.9469 0 -31.46 65.6708 0 -24.1123 47.9968 0 -18.6184 35.4669 0 -14.5062 26.4426 0 -11.3877 19.8592 0 -9.00077 14.9988 0 -7.15354 11.3763 0 -5.71075 8.65479 0 -4.57458 6.59762 0 -3.674 5.03505 0 -2.95654 3.84377 0 -2.38301 2.93297 0 -1.92366 2.235 0 -1.55566 1.69904 0 -1.26136 1.28656 0 -1.02698 0.968219 0 -0.841792 0.721501 0 -0.697477 0.52906 0 -0.587684 0.377453 0 -0.507724 0.25619 0 -0.454373 0.157022 0 -0.425707 0.0733874 0 -0.421203 3.57628e-07 0 1176.17 -1.90735e-06 0 -167.412 1144.6 0 -146.118 764.649 0 -159.721 556.236 0 -125.915 376.283 0 -98.5861 260.759 0 -75.3299 180.309 0 -56.7679 126.708 0 -43.0184 90.1111 0 -32.6405 65.008 0 -25.0082 47.4713 0 -19.3045 35.0493 0 -15.0372 26.1087 0 -11.8018 19.5905 0 -9.32601 14.7809 0 -7.41025 11.1984 0 -5.91413 8.50873 0 -4.73611 6.47715 0 -3.80247 4.93533 0 -3.05879 3.76107 0 -2.46441 2.86431 0 -1.98846 2.17803 0 -1.60727 1.65184 0 -1.3025 1.2476 0 -1.05986 0.936248 0 -0.868204 0.69552 0 -0.718885 0.508281 0 -0.605298 0.361282 0 -0.522555 0.244215 0 -0.467282 0.149011 0 -0.437444 0.0692981 0 -0.432438 -3.57628e-07 0 1239.33 0 0 -185.568 1157.98 0 -149.003 762.234 0 -167.565 555.419 0 -130.227 374.381 0 -102.549 259.287 0 -78.0652 178.974 0 -58.8727 125.632 0 -44.5657 89.2457 0 -33.8065 64.321 0 -25.8909 46.9277 0 -19.9801 34.6172 0 -15.5596 25.7635 0 -12.2089 19.3127 0 -9.64543 14.5556 0 -7.66212 11.0146 0 -6.11349 8.3578 0 -4.89425 6.35268 0 -3.92807 4.83234 0 -3.15861 3.67567 0 -2.54373 2.79344 0 -2.05148 2.11923 0 -1.65734 1.60316 0 -1.34231 1.20743 0 -1.09159 0.903303 0 -0.893616 0.668762 0 -0.739412 0.486896 0 -0.622124 0.34465 0 -0.536663 0.231908 0 -0.479504 0.140784 0 -0.448499 0.0651019 0 -0.442959 3.57628e-07 0 1304.62 9.53674e-07 0 -205.282 1171.79 0 -151.362 759.666 0 -175.682 554.566 0 -134.392 372.406 0 -106.546 257.756 0 -80.7521 177.593 0 -60.9655 124.516 0 -46.0898 88.3518 0 -34.9578 63.6098 0 -26.7598 46.3664 0 -20.645 34.1707 0 -16.073 25.4072 0 -12.6086 19.0259 0 -9.95884 14.3232 0 -7.90902 10.8249 0 -6.30869 8.20213 0 -5.0489 6.22432 0 -4.05073 4.72615 0 -3.25591 3.58764 0 -2.6209 2.7204 0 -2.11266 2.05867 0 -1.70583 1.55303 0 -1.38077 1.1661 0 -1.12215 0.86942 0 -0.917999 0.64126 0 -0.759034 0.464929 0 -0.638139 0.327579 0 -0.550029 0.219285 0 -0.491022 0.132354 0 -0.458855 0.0608058 0 -0.452748 -2.38419e-07 0 1372.17 0 0 -226.658 1186.03 0 -153.135 756.943 0 -184.106 553.675 0 -138.389 370.358 0 -110.587 256.164 0 -83.3841 176.167 0 -63.0484 123.358 0 -47.5889 87.4304 0 -36.0945 62.8745 0 -27.6141 45.788 0 -21.2989 33.71 0 -16.5772 25.0402 0 -13.0009 18.7303 0 -10.2661 14.0839 0 -8.15081 10.6295 0 -6.49962 8.04185 0 -5.19996 6.09218 0 -4.17034 4.61686 0 -3.35063 3.49707 0 -2.69587 2.64529 0 -2.17195 1.99641 0 -1.7527 1.50152 0 -1.41783 1.12364 0 -1.15149 0.834638 0 -0.941327 0.613046 0 -0.777727 0.44241 0 -0.653324 0.310092 0 -0.562634 0.206365 0 -0.501819 0.123732 0 -0.468498 0.0564164 0 -0.461791 1.19209e-07 0 1442.12 -1.90735e-06 0 -249.804 1200.67 0 -154.261 754.065 0 -192.875 552.741 0 -142.195 368.242 0 -114.684 254.509 0 -85.9537 174.701 0 -65.124 122.158 0 -49.0606 86.483 0 -37.2169 62.1149 0 -28.4531 45.1934 0 -21.9417 33.2352 0 -17.0717 24.6628 0 -13.3855 18.4261 0 -10.5669 13.8377 0 -8.38734 10.4287 0 -6.68617 7.87708 0 -5.34733 5.95636 0 -4.28684 4.50456 0 -3.4427 3.40403 0 -2.76858 2.56816 0 -2.22931 1.9325 0 -1.79791 1.44868 0 -1.45345 1.0801 0 -1.17959 0.798994 0 -0.963575 0.584152 0 -0.79547 0.419365 0 -0.667659 0.292212 0 -0.57446 0.193166 0 -0.511879 0.114933 0 -0.477411 0.0519404 0 -0.470071 -2.38419e-07 0 1514.61 6.67572e-06 0 -274.834 1215.7 0 -154.669 751.034 0 -202.03 551.756 0 -145.784 366.063 0 -118.85 252.787 0 -88.4521 173.196 0 -67.1955 120.915 0 -50.5023 85.5113 0 -38.3254 61.3305 0 -29.276 44.5833 0 -22.5732 32.7463 0 -17.5564 24.2755 0 -13.7623 18.1134 0 -10.8613 13.5851 0 -8.6185 10.2223 0 -6.86821 7.70798 0 -5.49092 5.81696 0 -4.40015 4.38935 0 -3.53206 3.3086 0 -2.83897 2.48908 0 -2.28469 1.86701 0 -1.84142 1.39454 0 -1.48761 1.03554 0 -1.20643 0.76253 0 -0.984718 0.554614 0 -0.81224 0.395825 0 -0.681126 0.273961 0 -0.585494 0.179706 0 -0.521188 0.105968 0 -0.485583 0.047385 0 -0.477576 -2.38419e-07 0 1589.78 -3.8147e-06 0 -301.868 1231.09 0 -154.285 747.852 0 -211.617 550.715 0 -149.126 363.827 0 -123.101 250.994 0 -90.8693 171.656 0 -69.2672 119.626 0 -51.9109 84.5177 0 -39.4208 60.5208 0 -30.0818 43.9588 0 -23.1935 32.2433 0 -18.0308 23.8787 0 -14.1311 17.7924 0 -11.1489 13.3263 0 -8.84416 10.0107 0 -7.04565 7.5347 0 -5.63065 5.67409 0 -4.51019 4.27134 0 -3.61864 3.21086 0 -2.90699 2.40812 0 -2.33803 1.79999 0 -1.88318 1.33919 0 -1.52026 0.989984 0 -1.23196 0.725284 0 -1.00473 0.524466 0 -0.82802 0.371818 0 -0.693709 0.255366 0 -0.595718 0.166004 0 -0.529732 0.0968525 0 -0.493 0.0427576 0 -0.484292 4.76837e-07 0 </DataArray> 
</PointData> 
<Points> 
<DataArray type="Float32" NumberOfComponents="3"> 