<?xml version="1.0"?> 
<VTKFile type="StructuredGrid" version="0.1"> 
<StructuredGrid WholeExtent="0 31 0 31 0 0"> 
<Piece Extent="0 31 0 31 0 0"> 
<PointData>
<DataArray type="Float32" Name="|E|" format="ascii" NumberOfComponents="3"> 
1.46352e+06 2.99824e+06 0 1.42474e+06 2.95158e+06 0 1.3887e+06 2.91115e+06 0 1.35444e+06 2.87516e+06 0 1.32126e+06 2.84234e+06 0 1.28869e+06 2.81186e+06 0 1.25639e+06 2.78313e+06 0 1.22412e+06 2.75576e+06 0 1.19167e+06 2.72947e+06 0 1.1589e+06 2.70408e+06 0 1.12569e+06 2.67948e+06 0 1.09192e+06 2.6556e+06 0 1.05749e+06 2.63242e+06 0 1.02231e+06 2.60994e+06 0 986274 2.5882e+06 0 949290 2.56726e+06 0 911247 2.54722e+06 0 872026 2.52823e+06 0 831493 2.51046e+06 0 789494 2.49415e+06 0 745844 2.47958e+06 0 700320 2.46713e+06 0 652644 2.45724e+06 0 602465 2.45047e+06 0 549333 2.44751e+06 0 492659 2.44919e+06 0 431665 2.45653e+06 0 365310 2.4708e+06 0 292191 2.49352e+06 0 210392 2.52658e+06 0 117277 2.57233e+06 0 9179.14 2.63372e+06 0 1.33899e+06 3.27712e+06 0 1.32419e+06 3.24964e+06 0 1.3064e+06 3.222e+06 0 1.28617e+06 3.19508e+06 0 1.26396e+06 3.16937e+06 0 1.24011e+06 3.14516e+06 0 1.21488e+06 3.12258e+06 0 1.18849e+06 3.10171e+06 0 1.1611e+06 3.08255e+06 0 1.13284e+06 3.06513e+06 0 1.1038e+06 3.04944e+06 0 1.07409e+06 3.03548e+06 0 1.04378e+06 3.02327e+06 0 1.01294e+06 3.01282e+06 0 981668 3.00418e+06 0 950037 2.99738e+06 0 918143 2.99247e+06 0 886095 2.9895e+06 0 854015 2.98853e+06 0 822047 2.98959e+06 0 790356 2.99272e+06 0 759132 2.99792e+06 0 728587 3.00518e+06 0 698962 3.01442e+06 0 670521 3.02553e+06 0 643558 3.03833e+06 0 618386 3.05253e+06 0 595345 3.06778e+06 0 574798 3.08357e+06 0 557131 3.0993e+06 0 542757 3.11418e+06 0 532130 3.12729e+06 0 1.26086e+06 3.44457e+06 0 1.24879e+06 3.42454e+06 0 1.23586e+06 3.40536e+06 0 1.22188e+06 3.38688e+06 0 1.20677e+06 3.36912e+06 0 1.19052e+06 3.35219e+06 0 1.17317e+06 3.33622e+06 0 1.1548e+06 3.32134e+06 0 1.13549e+06 3.30766e+06 0 1.11537e+06 3.29528e+06 0 1.09453e+06 3.28426e+06 0 1.07309e+06 3.27467e+06 0 1.05119e+06 3.26653e+06 0 1.02893e+06 3.25988e+06 0 1.00643e+06 3.25474e+06 0 983825 3.25108e+06 0 961226 3.24892e+06 0 938754 3.24822e+06 0 916529 3.24894e+06 0 894669 3.25104e+06 0 873285 3.25445e+06 0 852484 3.2591e+06 0 832360 3.26491e+06 0 812999 3.27178e+06 0 794466 3.27962e+06 0 776811 3.28833e+06 0 760058 3.29785e+06 0 744208 3.30811e+06 0 729236 3.31911e+06 0 715090 3.33089e+06 0 701690 3.34356e+06 0 688933 3.35736e+06 0 1.1981e+06 3.56071e+06 0 1.19014e+06 3.54375e+06 0 1.18116e+06 3.5275e+06 0 1.17128e+06 3.51209e+06 0 1.16055e+06 3.49757e+06 0 1.14904e+06 3.48398e+06 0 1.13678e+06 3.47135e+06 0 1.12384e+06 3.45972e+06 0 1.11027e+06 3.44912e+06 0 1.09612e+06 3.43959e+06 0 1.08148e+06 3.43117e+06 0 1.06642e+06 3.4239e+06 0 1.05102e+06 3.4178e+06 0 1.03538e+06 3.41289e+06 0 1.01957e+06 3.40918e+06 0 1.00369e+06 3.40667e+06 0 987831 3.40536e+06 0 972084 3.40522e+06 0 956533 3.40624e+06 0 941263 3.40838e+06 0 926354 3.41161e+06 0 911880 3.41587e+06 0 897912 3.42113e+06 0 884514 3.42733e+06 0 871749 3.4344e+06 0 859671 3.4423e+06 0 848334 3.45094e+06 0 837788 3.46024e+06 0 828083 3.47011e+06 0 819265 3.48042e+06 0 811378 3.491e+06 0 804464 3.50165e+06 0 1.13831e+06 3.639e+06 0 1.13373e+06 3.62411e+06 0 1.12842e+06 3.60987e+06 0 1.12238e+06 3.59632e+06 0 1.11564e+06 3.5835e+06 0 1.10825e+06 3.57147e+06 0 1.10024e+06 3.56029e+06 0 1.09169e+06 3.54998e+06 0 1.08263e+06 3.54059e+06 0 1.07314e+06 3.53214e+06 0 1.06328e+06 3.52466e+06 0 1.05311e+06 3.51816e+06 0 1.0427e+06 3.51266e+06 0 1.03213e+06 3.50817e+06 0 1.02145e+06 3.50468e+06 0 1.01075e+06 3.5022e+06 0 1.0001e+06 3.5007e+06 0 989567 3.50018e+06 0 979218 3.50062e+06 0 969122 3.50197e+06 0 959342 3.50421e+06 0 949940 3.50729e+06 0 940970 3.51117e+06 0 932483 3.5158e+06 0 924526 3.52111e+06 0 917136 3.52706e+06 0 910346 3.53358e+06 0 904182 3.54062e+06 0 898660 3.54811e+06 0 893791 3.55602e+06 0 889581 3.56433e+06 0 886030 3.57304e+06 0 1.07912e+06 3.69176e+06 0 1.07754e+06 3.67774e+06 0 1.0753e+06 3.66435e+06 0 1.07244e+06 3.65161e+06 0 1.069e+06 3.63957e+06 0 1.06503e+06 3.62823e+06 0 1.06056e+06 3.61764e+06 0 1.05565e+06 3.60781e+06 0 1.05033e+06 3.59877e+06 0 1.04466e+06 3.59055e+06 0 1.0387e+06 3.58315e+06 0 1.0325e+06 3.5766e+06 0 1.02612e+06 3.57089e+06 0 1.01963e+06 3.56605e+06 0 1.01307e+06 3.56205e+06 0 1.00652e+06 3.5589e+06 0 1.00003e+06 3.55659e+06 0 993660 3.5551e+06 0 987469 3.5544e+06 0 981511 3.55447e+06 0 975841 3.55528e+06 0 970506 3.5568e+06 0 965555 3.55899e+06 0 961030 3.5618e+06 0 956969 3.56519e+06 0 953410 3.56913e+06 0 950383 3.57355e+06 0 947918 3.57841e+06 0 946040 3.58366e+06 0 944770 3.58925e+06 0 944127 3.59509e+06 0 944122 3.60113e+06 0 1.01934e+06 3.72586e+06 0 1.02036e+06 3.71231e+06 0 1.0208e+06 3.6993e+06 0 1.0207e+06 3.68684e+06 0 1.02009e+06 3.67499e+06 0 1.01901e+06 3.66376e+06 0 1.0175e+06 3.65318e+06 0 1.01562e+06 3.64327e+06 0 1.01339e+06 3.63404e+06 0 1.01088e+06 3.62552e+06 0 1.00812e+06 3.61771e+06 0 1.00518e+06 3.61062e+06 0 1.00209e+06 3.60426e+06 0 998925 3.59863e+06 0 995722 3.59371e+06 0 992539 3.58951e+06 0 989426 3.58602e+06 0 986436 3.5832e+06 0 983618 3.58106e+06 0 981020 3.57955e+06 0 978688 3.57865e+06 0 976666 3.57833e+06 0 974993 3.57856e+06 0 973707 3.57929e+06 0 972843 3.58048e+06 0 972432 3.5821e+06 0 972500 3.58408e+06 0 973070 3.5864e+06 0 974161 3.58899e+06 0 975787 3.5918e+06 0 977961 3.5948e+06 0 980690 3.59795e+06 0 959093 3.74622e+06 0 962336 3.73281e+06 0 965056 3.71986e+06 0 967289 3.7074e+06 0 969069 3.69546e+06 0 970434 3.68405e+06 0 971420 3.67319e+06 0 972070 3.6629e+06 0 972424 3.6532e+06 0 972526 3.6441e+06 0 972421 3.6356e+06 0 972155 3.62772e+06 0 971775 3.62044e+06 0 971326 3.61378e+06 0 970856 3.60773e+06 0 970411 3.60227e+06 0 970038 3.59739e+06 0 969781 3.59308e+06 0 969683 3.58931e+06 0 969788 3.58607e+06 0 970134 3.58332e+06 0 970760 3.58103e+06 0 971700 3.57918e+06 0 972987 3.57771e+06 0 974649 3.57661e+06 0 976714 3.57582e+06 0 979204 3.5753e+06 0 982138 3.57501e+06 0 985532 3.5749e+06 0 989399 3.57494e+06 0 993748 3.57506e+06 0 998581 3.57522e+06 0 898746 3.75633e+06 0 903882 3.74291e+06 0 908537 3.72987e+06 0 912746 3.71724e+06 0 916539 3.70503e+06 0 919953 3.69328e+06 0 923022 3.68199e+06 0 925785 3.67118e+06 0 928280 3.66086e+06 0 930547 3.65104e+06 0 932628 3.64173e+06 0 934562 3.63292e+06 0 936393 3.62463e+06 0 938163 3.61684e+06 0 939912 3.60955e+06 0 941683 3.60275e+06 0 943517 3.59643e+06 0 945452 3.59057e+06 0 947528 3.58514e+06 0 949781 3.58013e+06 0 952246 3.57551e+06 0 954956 3.57125e+06 0 957940 3.56731e+06 0 961226 3.56367e+06 0 964838 3.56029e+06 0 968799 3.55713e+06 0 973125 3.55415e+06 0 977833 3.5513e+06 0 982933 3.54855e+06 0 988433 3.54584e+06 0 994338 3.54315e+06 0 1.00065e+06 3.54042e+06 0 838786 3.75873e+06 0 845515 3.74522e+06 0 851795 3.73202e+06 0 857659 3.71914e+06 0 863136 3.70661e+06 0 868259 3.69444e+06 0 873061 3.68266e+06 0 877576 3.67127e+06 0 881840 3.66027e+06 0 885890 3.64969e+06 0 889763 3.63952e+06 0 893496 3.62977e+06 0 897127 3.62044e+06 0 900694 3.61151e+06 0 904235 3.60299e+06 0 907785 3.59486e+06 0 911382 3.5871e+06 0 915060 3.57972e+06 0 918853 3.57267e+06 0 922793 3.56594e+06 0 926910 3.55951e+06 0 931231 3.55335e+06 0 935782 3.54743e+06 0 940585 3.54171e+06 0 945662 3.53616e+06 0 951028 3.53075e+06 0 956697 3.52543e+06 0 962681 3.52018e+06 0 968987 3.51495e+06 0 975618 3.50969e+06 0 982575 3.50438e+06 0 989855 3.49897e+06 0 779679 3.75534e+06 0 787732 3.74172e+06 0 795363 3.72833e+06 0 802601 3.71519e+06 0 809472 3.70231e+06 0 816008 3.68973e+06 0 822238 3.67744e+06 0 828194 3.66546e+06 0 833908 3.6538e+06 0 839415 3.64246e+06 0 844747 3.63146e+06 0 849939 3.62078e+06 0 855024 3.61043e+06 0 860037 3.60041e+06 0 865010 3.5907e+06 0 869976 3.5813e+06 0 874968 3.57219e+06 0 880016 3.56336e+06 0 885148 3.55478e+06 0 890393 3.54644e+06 0 895777 3.53832e+06 0 901322 3.53038e+06 0 907050 3.5226e+06 0 912979 3.51495e+06 0 919125 3.5074e+06 0 925501 3.49991e+06 0 932118 3.49246e+06 0 938981 3.48499e+06 0 946096 3.47749e+06 0 953461 3.46992e+06 0 961075 3.46223e+06 0 968931 3.45439e+06 0 721832 3.74763e+06 0 730970 3.7339e+06 0 739706 3.72033e+06 0 748067 3.70694e+06 0 756078 3.69374e+06 0 763766 3.68075e+06 0 771159 3.66798e+06 0 778286 3.65545e+06 0 785177 3.64316e+06 0 791861 3.63111e+06 0 798369 3.61932e+06 0 804731 3.60777e+06 0 810977 3.59648e+06 0 817139 3.58543e+06 0 823244 3.57462e+06 0 829324 3.56403e+06 0 835404 3.55366e+06 0 841512 3.54349e+06 0 847673 3.5335e+06 0 853912 3.52368e+06 0 860248 3.51399e+06 0 866703 3.50443e+06 0 873292 3.49495e+06 0 880032 3.48555e+06 0 886935 3.47617e+06 0 894009 3.4668e+06 0 901261 3.45741e+06 0 908696 3.44796e+06 0 916313 3.43842e+06 0 924110 3.42876e+06 0 932083 3.41895e+06 0 940222 3.40896e+06 0 665578 3.73673e+06 0 675583 3.72292e+06 0 685205 3.7092e+06 0 694466 3.69559e+06 0 703390 3.6821e+06 0 712002 3.66875e+06 0 720326 3.65555e+06 0 728389 3.64251e+06 0 736217 3.62964e+06 0 743836 3.61695e+06 0 751276 3.60443e+06 0 758561 3.59209e+06 0 765720 3.57992e+06 0 772780 3.56793e+06 0 779766 3.55611e+06 0 786703 3.54444e+06 0 793617 3.53292e+06 0 800530 3.52153e+06 0 807465 3.51026e+06 0 814440 3.49908e+06 0 821475 3.48799e+06 0 828584 3.47695e+06 0 835784 3.46594e+06 0 843084 3.45495e+06 0 850494 3.44393e+06 0 858021 3.43288e+06 0 865669 3.42175e+06 0 873438 3.41053e+06 0 881326 3.39918e+06 0 889330 3.38768e+06 0 897442 3.37599e+06 0 905652 3.3641e+06 0 611175 3.72355e+06 0 621851 3.7097e+06 0 632160 3.69587e+06 0 642121 3.68207e+06 0 651757 3.66834e+06 0 661088 3.65468e+06 0 670137 3.6411e+06 0 678928 3.62761e+06 0 687484 3.61422e+06 0 695830 3.60094e+06 0 703988 3.58777e+06 0 711985 3.57471e+06 0 719843 3.56177e+06 0 727587 3.54893e+06 0 735238 3.53619e+06 0 742820 3.52354e+06 0 750354 3.51098e+06 0 757859 3.49849e+06 0 765354 3.48605e+06 0 772856 3.47366e+06 0 780380 3.4613e+06 0 787939 3.44893e+06 0 795545 3.43655e+06 0 803206 3.42414e+06 0 810929 3.41166e+06 0 818717 3.3991e+06 0 826573 3.38643e+06 0 834496 3.37363e+06 0 842481 3.36068e+06 0 850524 3.34754e+06 0 858615 3.33421e+06 0 866744 3.32065e+06 0 558814 3.70882e+06 0 569982 3.69496e+06 0 580797 3.68106e+06 0 591278 3.66713e+06 0 601442 3.6532e+06 0 611310 3.63927e+06 0 620901 3.62536e+06 0 630236 3.61149e+06 0 639335 3.59765e+06 0 648221 3.58385e+06 0 656914 3.5701e+06 0 665436 3.5564e+06 0 673808 3.54275e+06 0 682051 3.52915e+06 0 690185 3.51559e+06 0 698229 3.50207e+06 0 706201 3.48857e+06 0 714118 3.47509e+06 0 721996 3.46162e+06 0 729850 3.44813e+06 0 737692 3.43462e+06 0 745532 3.42107e+06 0 753379 3.40747e+06 0 761240 3.39378e+06 0 769119 3.37999e+06 0 777019 3.36609e+06 0 784939 3.35205e+06 0 792876 3.33785e+06 0 800827 3.32348e+06 0 808783 3.3089e+06 0 816737 3.29411e+06 0 824676 3.27908e+06 0 508628 3.69313e+06 0 520123 3.67929e+06 0 531280 3.66536e+06 0 542115 3.65134e+06 0 552643 3.63725e+06 0 562882 3.62312e+06 0 572848 3.60894e+06 0 582561 3.59473e+06 0 592039 3.5805e+06 0 601300 3.56625e+06 0 610363 3.55199e+06 0 619247 3.53773e+06 0 627971 3.52346e+06 0 636552 3.50917e+06 0 645008 3.49488e+06 0 653355 3.48057e+06 0 661610 3.46624e+06 0 669787 3.45187e+06 0 677898 3.43746e+06 0 685957 3.423e+06 0 693973 3.40846e+06 0 701954 3.39385e+06 0 709907 3.37914e+06 0 717838 3.36431e+06 0 725748 3.34936e+06 0 733638 3.33426e+06 0 741507 3.319e+06 0 749352 3.30355e+06 0 757167 3.28791e+06 0 764944 3.27205e+06 0 772673 3.25597e+06 0 780344 3.23964e+06 0 460703 3.67696e+06 0 472373 3.66318e+06 0 483720 3.64926e+06 0 494756 3.63519e+06 0 505496 3.62099e+06 0 515954 3.60669e+06 0 526145 3.59229e+06 0 536086 3.5778e+06 0 545792 3.56323e+06 0 555279 3.54859e+06 0 564565 3.53389e+06 0 573665 3.51913e+06 0 582596 3.5043e+06 0 591373 3.48942e+06 0 600010 3.47447e+06 0 608524 3.45945e+06 0 616926 3.44437e+06 0 625229 3.4292e+06 0 633444 3.41395e+06 0 641582 3.39861e+06 0 649649 3.38316e+06 0 657654 3.36758e+06 0 665601 3.35188e+06 0 673492 3.33604e+06 0 681330 3.32003e+06 0 689114 3.30385e+06 0 696842 3.28749e+06 0 704509 3.27093e+06 0 712109 3.25415e+06 0 719634 3.23715e+06 0 727075 3.21991e+06 0 734421 3.20241e+06 0 415086 3.6607e+06 0 426788 3.64703e+06 0 438182 3.63314e+06 0 449279 3.61906e+06 0 460089 3.6048e+06 0 470626 3.59037e+06 0 480903 3.57579e+06 0 490934 3.56107e+06 0 500731 3.54622e+06 0 510310 3.53124e+06 0 519685 3.51615e+06 0 528869 3.50094e+06 0 537876 3.48563e+06 0 546721 3.4702e+06 0 555415 3.45467e+06 0 563971 3.43902e+06 0 572401 3.42326e+06 0 580714 3.40738e+06 0 588920 3.39137e+06 0 597027 3.37522e+06 0 605042 3.35894e+06 0 612969 3.3425e+06 0 620812 3.3259e+06 0 628573 3.30913e+06 0 636253 3.29217e+06 0 643850 3.27502e+06 0 651361 3.25766e+06 0 658781 3.24009e+06 0 666104 3.22229e+06 0 673322 3.20425e+06 0 680425 3.18596e+06 0 687403 3.16742e+06 0 371790 3.64471e+06 0 383392 3.63116e+06 0 394700 3.61735e+06 0 405725 3.60329e+06 0 416474 3.58899e+06 0 426960 3.57448e+06 0 437194 3.55976e+06 0 447186 3.54485e+06 0 456948 3.52975e+06 0 466494 3.51448e+06 0 475834 3.49905e+06 0 484981 3.48345e+06 0 493946 3.4677e+06 0 502742 3.45179e+06 0 511379 3.43572e+06 0 519868 3.41951e+06 0 528217 3.40313e+06 0 536436 3.38659e+06 0 544532 3.36989e+06 0 552512 3.35302e+06 0 560381 3.33598e+06 0 568142 3.31875e+06 0 575798 3.30133e+06 0 583350 3.28371e+06 0 590798 3.26588e+06 0 598140 3.24784e+06 0 605371 3.22958e+06 0 612487 3.21108e+06 0 619482 3.19234e+06 0 626347 3.17335e+06 0 633074 3.15411e+06 0 639652 3.13461e+06 0 330808 3.62927e+06 0 342182 3.61587e+06 0 353279 3.60215e+06 0 364106 3.58814e+06 0 374671 3.57384e+06 0 384983 3.55927e+06 0 395051 3.54444e+06 0 404885 3.52937e+06 0 414494 3.51407e+06 0 423889 3.49855e+06 0 433081 3.48281e+06 0 442078 3.46687e+06 0 450892 3.45072e+06 0 459533 3.43437e+06 0 468008 3.41783e+06 0 476327 3.40109e+06 0 484499 3.38415e+06 0 492529 3.36701e+06 0 500424 3.34968e+06 0 508190 3.33214e+06 0 515830 3.31439e+06 0 523346 3.29644e+06 0 530742 3.27826e+06 0 538016 3.25986e+06 0 545167 3.24123e+06 0 552194 3.22236e+06 0 559091 3.20325e+06 0 565855 3.18389e+06 0 572479 3.16428e+06 0 578954 3.14442e+06 0 585273 3.12429e+06 0 591426 3.1039e+06 0 292110 3.61461e+06 0 303135 3.60139e+06 0 313900 3.58779e+06 0 324411 3.57384e+06 0 334674 3.55956e+06 0 344695 3.54496e+06 0 354483 3.53005e+06 0 364045 3.51486e+06 0 373390 3.49938e+06 0 382525 3.48364e+06 0 391460 3.46763e+06 0 400204 3.45137e+06 0 408764 3.43486e+06 0 417148 3.41811e+06 0 425365 3.40113e+06 0 433421 3.3839e+06 0 441324 3.36645e+06 0 449078 3.34875e+06 0 456689 3.33083e+06 0 464161 3.31267e+06 0 471497 3.29426e+06 0 478698 3.27562e+06 0 485765 3.25674e+06 0 492699 3.2376e+06 0 499496 3.21822e+06 0 506155 3.19857e+06 0 512672 3.17867e+06 0 519041 3.15851e+06 0 525256 3.13808e+06 0 531310 3.11739e+06 0 537195 3.09643e+06 0 542902 3.0752e+06 0 255653 3.60096e+06 0 266214 3.58792e+06 0 276532 3.57446e+06 0 286612 3.5606e+06 0 296460 3.54635e+06 0 306079 3.53174e+06 0 315477 3.51678e+06 0 324659 3.50148e+06 0 333632 3.48585e+06 0 342404 3.4699e+06 0 350981 3.45365e+06 0 359370 3.4371e+06 0 367579 3.42026e+06 0 375614 3.40314e+06 0 383481 3.38574e+06 0 391186 3.36806e+06 0 398735 3.35012e+06 0 406133 3.3319e+06 0 413382 3.31342e+06 0 420486 3.29466e+06 0 427448 3.27564e+06 0 434267 3.25635e+06 0 440946 3.23679e+06 0 447481 3.21696e+06 0 453873 3.19686e+06 0 460117 3.17648e+06 0 466210 3.15583e+06 0 472146 3.13489e+06 0 477920 3.11369e+06 0 483525 3.0922e+06 0 488953 3.07044e+06 0 494196 3.04841e+06 0 221383 3.58849e+06 0 231367 3.57565e+06 0 241127 3.56234e+06 0 250667 3.54858e+06 0 259990 3.53438e+06 0 269100 3.51978e+06 0 278001 3.50477e+06 0 286699 3.48937e+06 0 295200 3.47361e+06 0 303507 3.45748e+06 0 311629 3.441e+06 0 319569 3.42418e+06 0 327334 3.40703e+06 0 334930 3.38955e+06 0 342361 3.37176e+06 0 349632 3.35365e+06 0 356747 3.33524e+06 0 363710 3.31652e+06 0 370524 3.2975e+06 0 377192 3.27818e+06 0 383714 3.25856e+06 0 390091 3.23865e+06 0 396323 3.21844e+06 0 402408 3.19794e+06 0 408345 3.17714e+06 0 414131 3.15605e+06 0 419760 3.13467e+06 0 425230 3.11299e+06 0 430533 3.09103e+06 0 435664 3.06877e+06 0 440615 3.04624e+06 0 445380 3.02342e+06 0 189239 3.57737e+06 0 198536 3.56473e+06 0 207630 3.55158e+06 0 216522 3.53793e+06 0 225214 3.52379e+06 0 233710 3.5092e+06 0 242013 3.49416e+06 0 250127 3.47868e+06 0 258055 3.46279e+06 0 265803 3.44649e+06 0 273374 3.42979e+06 0 280774 3.41271e+06 0 288007 3.39526e+06 0 295077 3.37744e+06 0 301988 3.35927e+06 0 308744 3.34074e+06 0 315349 3.32187e+06 0 321805 3.30267e+06 0 328115 3.28312e+06 0 334280 3.26325e+06 0 340300 3.24305e+06 0 346177 3.22253e+06 0 351908 3.20168e+06 0 357494 3.18052e+06 0 362931 3.15904e+06 0 368217 3.13725e+06 0 373347 3.11515e+06 0 378317 3.09274e+06 0 383123 3.07003e+06 0 387757 3.04702e+06 0 392214 3.02372e+06 0 396486 3.00013e+06 0 159152 3.56773e+06 0 167656 3.5553e+06 0 175977 3.54231e+06 0 184116 3.52878e+06 0 192075 3.51471e+06 0 199855 3.50013e+06 0 207459 3.48506e+06 0 214890 3.46951e+06 0 222150 3.45349e+06 0 229244 3.43702e+06 0 236174 3.42011e+06 0 242944 3.40278e+06 0 249558 3.38503e+06 0 256019 3.36688e+06 0 262331 3.34833e+06 0 268496 3.32939e+06 0 274516 3.31007e+06 0 280395 3.29038e+06 0 286133 3.27031e+06 0 291732 3.24989e+06 0 297191 3.22912e+06 0 302512 3.20799e+06 0 307692 3.18651e+06 0 312730 3.16469e+06 0 317625 3.14254e+06 0 322372 3.12005e+06 0 326968 3.09723e+06 0 331410 3.0741e+06 0 335692 3.05064e+06 0 339808 3.02688e+06 0 343754 3.0028e+06 0 347523 2.97844e+06 0 131052 3.55971e+06 0 138656 3.5475e+06 0 146100 3.53467e+06 0 153384 3.52125e+06 0 160507 3.50724e+06 0 167471 3.49268e+06 0 174278 3.47758e+06 0 180930 3.46195e+06 0 187428 3.44581e+06 0 193775 3.42917e+06 0 199975 3.41205e+06 0 206028 3.39446e+06 0 211940 3.37641e+06 0 217711 3.35792e+06 0 223344 3.33899e+06 0 228842 3.31963e+06 0 234207 3.29986e+06 0 239440 3.27968e+06 0 244542 3.2591e+06 0 249513 3.23812e+06 0 254355 3.21676e+06 0 259066 3.19502e+06 0 263645 3.17291e+06 0 268091 3.15043e+06 0 272401 3.1276e+06 0 276573 3.1044e+06 0 280603 3.08087e+06 0 284488 3.05699e+06 0 288222 3.03278e+06 0 291802 3.00825e+06 0 295221 2.9834e+06 0 298476 2.95825e+06 0 104865 3.55342e+06 0 111465 3.54142e+06 0 117928 3.52875e+06 0 124254 3.51544e+06 0 130441 3.5015e+06 0 136490 3.48695e+06 0 142403 3.47181e+06 0 148180 3.45609e+06 0 153823 3.43982e+06 0 159334 3.42301e+06 0 164715 3.40567e+06 0 169967 3.38781e+06 0 175093 3.36946e+06 0 180095 3.35062e+06 0 184974 3.3313e+06 0 189732 3.31152e+06 0 194371 3.29128e+06 0 198891 3.2706e+06 0 203294 3.24949e+06 0 207579 3.22795e+06 0 211747 3.206e+06 0 215796 3.18363e+06 0 219727 3.16087e+06 0 223536 3.13772e+06 0 227223 3.11418e+06 0 230783 3.09027e+06 0 234216 3.066e+06 0 237516 3.04137e+06 0 240680 3.01639e+06 0 243704 2.99107e+06 0 246584 2.96542e+06 0 249315 2.93946e+06 0 80515.6 3.54896e+06 0 86007.8 3.53717e+06 0 91387.1 3.52466e+06 0 96652.4 3.51145e+06 0 101803 3.49756e+06 0 106840 3.48302e+06 0 111762 3.46783e+06 0 116571 3.45202e+06 0 121267 3.43561e+06 0 125852 3.4186e+06 0 130327 3.40103e+06 0 134694 3.3829e+06 0 138954 3.36422e+06 0 143107 3.34502e+06 0 147157 3.3253e+06 0 151103 3.30507e+06 0 154948 3.28436e+06 0 158690 3.26316e+06 0 162332 3.2415e+06 0 165873 3.21938e+06 0 169312 3.19681e+06 0 172650 3.1738e+06 0 175885 3.15037e+06 0 179015 3.12652e+06 0 182039 3.10227e+06 0 184954 3.07762e+06 0 187758 3.05258e+06 0 190448 3.02717e+06 0 193021 3.00139e+06 0 195472 2.97526e+06 0 197799 2.94879e+06 0 199997 2.922e+06 0 57929.3 3.54644e+06 0 62208.5 3.53485e+06 0 66400.5 3.52248e+06 0 70504.2 3.50937e+06 0 74518.7 3.49552e+06 0 78444 3.48097e+06 0 82279.9 3.46572e+06 0 86026.9 3.4498e+06 0 89685.3 3.43323e+06 0 93256 3.41602e+06 0 96739.9 3.39819e+06 0 100138 3.37976e+06 0 103451 3.36075e+06 0 106680 3.34116e+06 0 109826 3.32101e+06 0 112889 3.30032e+06 0 115872 3.27911e+06 0 118773 3.25737e+06 0 121593 3.23513e+06 0 124332 3.21241e+06 0 126990 3.1892e+06 0 129566 3.16552e+06 0 132059 3.14139e+06 0 134469 3.11682e+06 0 136792 3.09182e+06 0 139028 3.06639e+06 0 141174 3.04056e+06 0 143229 3.01434e+06 0 145188 2.98773e+06 0 147050 2.96076e+06 0 148812 2.93343e+06 0 150470 2.90576e+06 0 37030.9 3.54594e+06 0 39991.5 3.53454e+06 0 42892.2 3.52231e+06 0 45731.8 3.50927e+06 0 48509.8 3.49545e+06 0 51225.7 3.48087e+06 0 53879.4 3.46555e+06 0 56471 3.4495e+06 0 59000.6 3.43275e+06 0 61468.8 3.41531e+06 0 63876 3.39721e+06 0 66222.8 3.37845e+06 0 68509.8 3.35907e+06 0 70737.6 3.33907e+06 0 72906.9 3.31848e+06 0 75018.1 3.2973e+06 0 77071.6 3.27555e+06 0 79067.7 3.25324e+06 0 81006.5 3.2304e+06 0 82888 3.20703e+06 0 84711.7 3.18316e+06 0 86477.4 3.15878e+06 0 88184.1 3.13392e+06 0 89831.1 3.10858e+06 0 91417 3.08279e+06 0 92940.6 3.05656e+06 0 94400.2 3.0299e+06 0 95794.2 3.00282e+06 0 97120.6 2.97535e+06 0 98377.4 2.94748e+06 0 99562.4 2.91925e+06 0 100674 2.89067e+06 0 17745.6 3.54756e+06 0 19280.6 3.53633e+06 0 20784.6 3.52422e+06 0 22256.9 3.51125e+06 0 23697.1 3.49743e+06 0 25104.9 3.4828e+06 0 26480.2 3.46737e+06 0 27822.9 3.45117e+06 0 29133.1 3.43421e+06 0 30410.9 3.41652e+06 0 31656.7 3.39811e+06 0 32870.6 3.37901e+06 0 34053.1 3.35923e+06 0 35204.3 3.33879e+06 0 36324.6 3.31771e+06 0 37414.2 3.29601e+06 0 38473.4 3.27369e+06 0 39502.2 3.25079e+06 0 40500.7 3.2273e+06 0 41468.9 3.20326e+06 0 42406.5 3.17867e+06 0 43313.3 3.15356e+06 0 44188.9 3.12792e+06 0 45032.7 3.10179e+06 0 45844.2 3.07517e+06 0 46622.4 3.04809e+06 0 47366.6 3.02055e+06 0 48075.8 2.99257e+06 0 48748.9 2.96418e+06 0 49385 2.93538e+06 0 49982.7 2.9062e+06 0 50541.1 2.87665e+06 0 0 3.55138e+06 0 0 3.54031e+06 0 0 3.5283e+06 0 0 3.51537e+06 0 0 3.50154e+06 0 0 3.48683e+06 0 0 3.47127e+06 0 0 3.45488e+06 0 0 3.43769e+06 0 0 3.41971e+06 0 0 3.40096e+06 0 0 3.38147e+06 0 0 3.36126e+06 0 0 3.34035e+06 0 0 3.31874e+06 0 0 3.29647e+06 0 0 3.27356e+06 0 0 3.25001e+06 0 0 3.22584e+06 0 0 3.20108e+06 0 0 3.17574e+06 0 0 3.14984e+06 0 0 3.12339e+06 0 0 3.09641e+06 0 0 3.06892e+06 0 0 3.04093e+06 0 0 3.01246e+06 0 0 2.98354e+06 0 0 2.95417e+06 0 0 2.92439e+06 0 0 2.8942e+06 0 0 2.86363e+06 0 </DataArray> 
</PointData> 
<Points> 
<DataArray type="Float32" NumberOfComponents="3"> 