<?xml version="1.0"?> 
<VTKFile type="StructuredGrid" version="0.1"> 
<StructuredGrid WholeExtent="0 31 0 31 0 0"> 
<Piece Extent="0 31 0 31 0 0"> 
<PointData>
<DataArray type="Float32" Name="|E|" format="ascii" NumberOfComponents="3"> 
1.02978e+06 57193.2 0 996660 55045.2 0 964817 52876.8 0 934262 50702.7 0 904993 48533.2 0 877004 46377 0 850283 44240.5 0 824818 42128.9 0 800591 40045.8 0 777584 37994 0 755778 35975.2 0 735152 33990.5 0 715687 32040.4 0 697361 30124.8 0 680154 28243.3 0 664047 26395 0 649020 24578.9 0 635053 22793.6 0 622130 21037.7 0 610234 19309.4 0 599348 17607 0 589458 15928.5 0 580551 14272 0 572614 12635.5 0 565635 11016.7 0 559605 9413.67 0 554516 7824.07 0 550360 6245.72 0 547130 4676.41 0 544823 3113.86 0 543434 1555.81 0 542962 0 0 1.02958e+06 58996.4 0 996457 56779.9 0 964619 54542.7 0 934070 52299.8 0 904807 50061.7 0 876824 47837.3 0 850110 45633.4 0 824651 43455.2 0 800430 41306.4 0 777430 39190 0 755629 37107.6 0 735010 35060.4 0 715550 33048.9 0 697229 31073 0 680028 29132.2 0 663925 27225.8 0 648902 25352.5 0 634940 23511 0 622021 21699.8 0 610128 19917.1 0 599246 18161.1 0 589359 16429.9 0 580455 14721.2 0 572520 13033.2 0 565543 11363.5 0 559516 9709.96 0 554428 8070.33 0 550273 6442.31 0 547044 4823.59 0 544737 3211.86 0 543349 1604.78 0 542878 0 0 1.02936e+06 60799.3 0 996249 58514.3 0 964417 56208.3 0 933874 53896.5 0 904618 51589.8 0 876641 49297.4 0 849934 47026 0 824481 44781.2 0 800266 42566.7 0 777272 40385.6 0 755478 38239.6 0 734864 36130 0 715410 34057.1 0 697095 32020.9 0 679898 30020.9 0 663801 28056.3 0 648782 26125.9 0 634824 24228.2 0 621909 22361.8 0 610020 20524.7 0 599141 18715.1 0 589258 16931 0 580356 15170.3 0 572423 13430.8 0 565449 11710.1 0 559423 10006.2 0 554337 8316.51 0 550183 6638.83 0 546956 4970.73 0 544650 3309.84 0 543262 1653.73 0 542790 0 0 1.02915e+06 62601.9 0 996038 60248.4 0 964212 57873.6 0 933675 55492.9 0 904424 53117.6 0 876454 50757 0 849753 48418.2 0 824307 46106.8 0 800099 43826.7 0 777111 41580.9 0 755323 39371.4 0 734715 37199.2 0 715267 35065 0 696957 32968.5 0 679766 30909.3 0 663673 28886.6 0 648659 26899 0 634706 24945.2 0 621794 23023.5 0 609909 21132.1 0 599034 19269 0 589153 17432.1 0 580254 15619.2 0 572324 13828.2 0 565352 12056.7 0 559328 10302.3 0 554243 8562.61 0 550091 6835.28 0 546864 5117.83 0 544559 3407.78 0 543172 1702.67 0 542700 0 0 1.02893e+06 64404.2 0 995824 61982.2 0 964003 59538.6 0 933472 57088.9 0 904228 54645 0 876264 52216.3 0 849570 49810 0 824130 47432 0 799928 45086.3 0 776946 42775.9 0 755165 40502.8 0 734563 38268.2 0 715120 36072.5 0 696816 33915.8 0 679630 31797.4 0 663542 29716.5 0 648533 27671.9 0 634584 25661.9 0 621677 23685 0 609795 21739.3 0 598923 19822.6 0 589046 17932.9 0 580149 16068 0 572222 14225.5 0 565252 12403.1 0 559230 10598.3 0 554147 8808.64 0 549996 7031.68 0 546771 5264.87 0 544466 3505.69 0 543079 1751.59 0 542608 0 0 1.02871e+06 66206.3 0 995606 63715.7 0 963790 61203.2 0 933265 58684.6 0 904027 56172 0 876070 53675.1 0 849382 51201.5 0 823949 48756.9 0 799754 46345.5 0 776779 43970.5 0 755003 41633.8 0 734407 39336.7 0 714970 37079.8 0 696672 34862.8 0 679491 32685.3 0 663408 30546.3 0 648404 28444.5 0 634459 26378.4 0 621556 24346.3 0 609678 22346.2 0 598810 20376.1 0 588935 18433.6 0 580042 16516.6 0 572117 14622.7 0 565150 12749.4 0 559130 10894.2 0 554048 9054.58 0 549899 7228.01 0 546674 5411.87 0 544370 3603.57 0 542984 1800.49 0 542513 0 0 1.02848e+06 68008.1 0 995384 65448.9 0 963574 62867.5 0 933054 60279.9 0 903823 57698.7 0 875872 55133.7 0 849191 52592.6 0 823765 50081.3 0 799576 47604.3 0 776607 45164.7 0 754838 42764.5 0 734248 40405 0 714817 38086.7 0 696524 35809.5 0 679349 33572.8 0 663271 31375.7 0 648271 29216.9 0 634331 27094.7 0 621432 25007.4 0 609558 22953 0 598693 20929.3 0 588822 18934.2 0 579932 16965.1 0 572010 15019.8 0 565045 13095.6 0 559026 11190 0 553947 9300.44 0 549798 7424.27 0 546575 5558.82 0 544272 3701.42 0 542886 1849.38 0 542415 0 0 1.02825e+06 69809.6 0 995158 67181.8 0 963353 64531.4 0 932840 61874.9 0 903615 59225 0 875671 56591.8 0 848996 53983.3 0 823577 51405.4 0 799395 48862.8 0 776432 46358.6 0 754669 43894.9 0 734086 41472.9 0 714661 39093.3 0 696373 36755.9 0 679203 34460.1 0 663131 32204.9 0 648136 29989 0 634200 27810.7 0 621306 25668.3 0 609436 23559.6 0 598574 21482.4 0 588706 19434.5 0 579819 17413.5 0 571899 15416.7 0 564937 13441.6 0 558921 11485.7 0 553843 9546.22 0 549696 7620.47 0 546473 5705.72 0 544171 3799.24 0 542786 1898.25 0 542315 0 0 1.02802e+06 71610.8 0 994929 68914.4 0 963130 66195 0 932622 63469.5 0 903404 60750.9 0 875466 58049.5 0 848798 55373.6 0 823385 52729.2 0 799210 50120.9 0 776254 47552.1 0 754498 45024.9 0 733920 42540.5 0 714501 40099.6 0 696220 37702 0 679055 35347 0 662988 33033.8 0 647998 30760.8 0 634066 28526.5 0 621176 26328.9 0 609310 24165.9 0 598452 22035.3 0 588588 19934.7 0 579703 17861.6 0 571786 15813.5 0 564826 13787.6 0 558812 11781.3 0 553736 9791.92 0 549590 7816.6 0 546369 5852.57 0 544067 3897.02 0 542682 1947.11 0 542212 0 0 1.02778e+06 73411.8 0 994696 70646.7 0 962902 67858.3 0 932401 65063.8 0 903188 62276.4 0 875258 59506.9 0 848596 56763.5 0 823190 54052.5 0 799022 51378.6 0 776072 48745.2 0 754322 46154.5 0 733751 43607.7 0 714338 41105.5 0 696062 38647.7 0 678903 36233.7 0 662841 33862.4 0 647856 31532.4 0 633930 29242.1 0 621044 26989.3 0 609181 24772.1 0 598327 22588.1 0 588466 20434.8 0 579585 18309.7 0 571671 16210.1 0 564713 14133.4 0 558701 12076.8 0 553626 10037.5 0 549482 8012.67 0 546262 5999.37 0 543961 3994.77 0 542577 1995.95 0 542106 0 0 1.02754e+06 75212.6 0 994459 72378.7 0 962671 69521.2 0 932175 66657.6 0 902969 63801.6 0 875045 60963.9 0 848391 58153 0 822992 55375.4 0 798830 52636 0 775887 49938 0 754144 47283.8 0 733579 44674.6 0 714172 42111.1 0 695902 39593.2 0 678749 37120.1 0 662692 34690.8 0 647712 32303.8 0 633790 29957.4 0 620908 27649.5 0 609050 25378.1 0 598200 23140.6 0 588342 20934.6 0 579464 18757.5 0 571552 16606.6 0 564596 14479.2 0 558587 12372.3 0 553514 10283.1 0 549371 8208.66 0 546152 6146.12 0 543852 4092.48 0 542468 2044.77 0 541998 0 0 1.02729e+06 77013.1 0 994219 74110.4 0 962436 71183.8 0 931946 68251.2 0 902747 65326.3 0 874829 62420.4 0 848182 59542.1 0 822790 56698 0 798635 53892.9 0 775699 51130.4 0 753962 48412.7 0 733404 45741.2 0 714003 43116.4 0 695739 40538.3 0 678591 38006.1 0 662539 35518.8 0 647564 33074.8 0 633647 30672.4 0 620770 28309.5 0 608916 25983.8 0 598069 23692.9 0 588215 21434.3 0 579340 19205.3 0 571431 17003 0 564478 14824.8 0 558470 12667.6 0 553399 10528.5 0 549258 8404.59 0 546040 6292.82 0 543741 4190.16 0 542357 2093.57 0 541887 0 0 1.02704e+06 78813.3 0 993974 75841.8 0 962197 72846.1 0 931714 69844.3 0 902521 66850.7 0 874610 63876.6 0 847969 60930.9 0 822584 58020.2 0 798436 55149.5 0 775507 52322.4 0 753777 49541.2 0 733225 46807.4 0 713830 44121.4 0 695572 41483.1 0 678430 38891.9 0 662384 36346.6 0 647414 33845.6 0 633501 31387.2 0 620629 28969.2 0 608779 26589.3 0 597936 24245.1 0 588085 21933.8 0 579213 19652.8 0 571307 17399.3 0 564356 15170.2 0 558350 12962.8 0 553281 10773.9 0 549142 8600.45 0 545925 6439.46 0 543627 4287.8 0 542244 2142.36 0 541774 0 0 1.02679e+06 80613.3 0 993727 77572.9 0 961955 74508 0 931477 71437.1 0 902291 68374.7 0 874387 65332.4 0 847753 62319.2 0 822375 59341.9 0 798234 56405.7 0 775311 53514 0 753588 50669.4 0 733042 47873.2 0 713654 45126 0 695402 42427.6 0 678266 39777.4 0 662225 37174.1 0 647260 34616.2 0 633352 32101.8 0 620484 29628.7 0 608639 27194.6 0 597799 24797 0 587952 22433.1 0 579083 20100.2 0 571180 17795.3 0 564232 15515.6 0 558228 13257.9 0 553161 11019.1 0 549023 8796.23 0 545807 6586.05 0 543510 4385.41 0 542127 2191.13 0 541658 0 0 1.02653e+06 82413.1 0 993475 79303.7 0 961708 76169.6 0 931237 73029.5 0 902057 69898.3 0 874160 66787.8 0 847533 63707.2 0 822162 60663.3 0 798028 57661.5 0 775113 54705.3 0 753396 51797.2 0 732857 48938.7 0 713475 46130.2 0 695229 43371.8 0 678099 40662.5 0 662063 38001.3 0 647104 35386.4 0 633201 32816 0 620337 30288 0 608496 27799.7 0 597660 25348.7 0 587817 22932.3 0 578951 20547.4 0 571051 18191.3 0 564105 15860.8 0 558104 13552.8 0 553038 11264.3 0 548901 8991.95 0 545687 6732.59 0 543391 4482.99 0 542008 2239.88 0 541539 0 0 1.02627e+06 84212.6 0 993220 81034.2 0 961459 77830.8 0 930993 74621.6 0 901820 71421.6 0 873930 68242.9 0 847310 65094.7 0 821946 61984.3 0 797819 58916.8 0 774910 55896.1 0 753200 52924.6 0 732668 50003.8 0 713293 47134.2 0 695053 44315.6 0 677928 41547.3 0 661898 38828.1 0 646944 36156.4 0 633046 33530.1 0 620187 30947 0 608350 28404.6 0 597518 25900.3 0 587678 23431.2 0 578816 20994.5 0 570918 18587.1 0 563975 16205.9 0 557976 13847.7 0 552913 11509.4 0 548777 9187.59 0 545564 6879.08 0 543269 4580.53 0 541887 2288.61 0 541417 0 0 1.02601e+06 86011.9 0 992961 82764.4 0 961205 79491.7 0 930746 76213.3 0 901579 72944.4 0 873696 69697.5 0 847083 66481.9 0 821726 63304.9 0 797606 60171.8 0 774705 57086.6 0 753002 54051.7 0 732476 51068.5 0 713107 48137.7 0 694873 45259.1 0 677755 42431.9 0 661730 39654.7 0 646781 36926.1 0 632888 34243.9 0 620034 31605.7 0 608201 29009.2 0 597374 26451.6 0 587537 23930 0 578678 21441.4 0 570783 18982.8 0 563843 16550.9 0 557846 14142.5 0 552784 11754.4 0 548651 9383.16 0 545439 7025.51 0 543144 4678.03 0 541763 2337.33 0 541294 0 0 1.02574e+06 87810.9 0 992698 84494.3 0 960948 81152.3 0 930495 77804.6 0 901334 74466.9 0 873458 71151.7 0 846852 67868.6 0 821502 64625 0 797390 61426.4 0 774496 58276.7 0 752799 55178.4 0 732281 52132.9 0 712918 49140.9 0 694691 46202.2 0 677578 43316 0 661559 40481 0 646616 37695.5 0 632728 34957.4 0 619878 32264.3 0 608049 29613.7 0 597226 27002.7 0 587393 24428.6 0 578537 21888.1 0 570646 19378.3 0 563708 16895.7 0 557713 14437.2 0 552653 11999.3 0 548521 9578.66 0 545310 7171.88 0 543017 4775.49 0 541636 2386.03 0 541167 0 0 1.02547e+06 89609.8 0 992431 86223.9 0 960687 82812.5 0 930240 79395.5 0 901086 75988.9 0 873217 72605.5 0 846618 69254.9 0 821275 65944.8 0 797170 62680.6 0 774283 59466.4 0 752594 56304.6 0 732082 53196.9 0 712726 50143.8 0 694505 47145.1 0 677398 44199.9 0 661385 41307 0 646447 38464.6 0 632564 35670.6 0 619719 32922.6 0 607895 30217.8 0 597075 27553.7 0 587246 24927 0 578394 22334.7 0 570505 19773.6 0 563570 17240.4 0 557578 14731.7 0 552520 12244.1 0 548389 9774.08 0 545180 7318.2 0 542887 4872.92 0 541507 2434.7 0 541038 0 0 1.0252e+06 91408.4 0 992161 87953.2 0 960422 84472.4 0 929981 80986.1 0 900834 77510.6 0 872972 74058.8 0 846380 70640.8 0 821045 67264.1 0 796947 63934.4 0 774067 60655.6 0 752385 57430.5 0 731880 54260.5 0 712530 51146.3 0 694316 48087.5 0 677215 45083.5 0 661208 42132.7 0 646275 39233.5 0 632397 36383.6 0 619557 33580.6 0 607737 30821.8 0 596922 28104.4 0 587097 25425.2 0 578247 22781.1 0 570362 20168.8 0 563429 17585 0 557439 15026.1 0 552383 12488.8 0 548254 9969.42 0 545046 7464.46 0 542754 4970.31 0 541375 2483.36 0 540906 0 0 1.02492e+06 93206.7 0 991887 89682.3 0 960153 86132 0 929719 82576.3 0 900578 79031.9 0 872723 75511.8 0 846139 72026.3 0 820811 68583 0 796720 65187.7 0 773847 61844.5 0 752173 58556 0 731674 55323.8 0 712332 52148.4 0 694123 49029.7 0 677029 45966.7 0 661028 42958.1 0 646100 40002 0 632228 37096.3 0 619392 34238.4 0 607577 31425.5 0 596766 28654.8 0 586944 25923.2 0 578098 23227.3 0 570216 20563.9 0 563286 17929.4 0 557298 15320.4 0 552245 12733.4 0 548117 10164.7 0 544910 7610.67 0 542619 5067.66 0 541240 2532 0 540771 0 0 1.02464e+06 95004.9 0 991610 91411 0 959881 87791.2 0 929452 84166.1 0 900319 80552.8 0 872471 76964.4 0 845894 73411.4 0 820573 69901.5 0 796490 66440.7 0 773625 63033 0 751957 59681.1 0 731466 56386.7 0 712130 53150.2 0 693928 49971.4 0 676840 46849.6 0 660844 43783.1 0 645922 40770.2 0 632055 37808.7 0 619225 34895.9 0 607414 32029 0 596607 29205.1 0 586789 26421 0 577947 23673.4 0 570067 20958.8 0 563140 18273.7 0 557155 15614.6 0 552103 12977.9 0 547977 10359.9 0 544771 7756.81 0 542481 5164.97 0 541103 2580.62 0 540634 0 0 1.02435e+06 96802.8 0 991328 93139.4 0 959605 89450 0 929183 85755.5 0 900056 82073.2 0 872215 78416.5 0 845645 74796 0 820332 71219.6 0 796256 67693.2 0 773398 64221 0 751738 60805.8 0 731254 57449.1 0 711924 54151.6 0 693729 50912.9 0 676647 47732.1 0 660658 44607.9 0 645742 41538.2 0 631880 38520.8 0 619054 35553.1 0 607248 32632.3 0 596445 29755.2 0 586631 26918.6 0 577792 24119.2 0 569916 21353.5 0 562991 18617.9 0 557009 15908.7 0 551959 13222.4 0 547834 10555 0 544630 7902.9 0 542341 5262.25 0 540963 2629.23 0 540495 0 0 1.02406e+06 98600.5 0 991043 94867.6 0 959325 91108.5 0 928909 87344.6 0 899789 83593.3 0 871955 79868.3 0 845393 76180.2 0 820087 72537.2 0 796019 68945.3 0 773169 65408.7 0 751515 61930.1 0 731038 58511.2 0 711716 55152.6 0 693527 51853.9 0 676452 48614.3 0 660468 45432.3 0 645558 42305.9 0 631701 39232.7 0 618881 36210.1 0 607079 33235.3 0 596280 30305 0 586470 27416 0 577635 24564.9 0 569762 21748.1 0 562840 18961.9 0 556860 16202.7 0 551812 13466.7 0 547689 10750 0 544486 8048.93 0 542198 5359.48 0 540820 2677.81 0 540352 0 0 1.02377e+06 100398 0 990754 96595.4 0 959042 92766.7 0 928632 88933.3 0 899519 85113 0 871692 81319.6 0 845137 77564 0 819839 73854.5 0 795778 70197 0 772935 66595.9 0 751290 63054 0 730820 59572.9 0 711504 56153.2 0 693322 52794.6 0 676253 49496.2 0 660276 46256.4 0 645371 43073.2 0 631520 39944.3 0 618704 36866.9 0 606907 33838.1 0 596113 30854.6 0 586307 27913.3 0 577475 25010.4 0 569605 22142.5 0 562686 19305.8 0 556708 16496.5 0 551662 13710.9 0 547541 10945 0 544339 8194.9 0 542052 5456.68 0 540675 2726.37 0 540207 0 0 1.02347e+06 102195 0 990462 98322.9 0 958754 94424.5 0 928351 90521.6 0 899244 86632.2 0 871425 82770.5 0 844878 78947.4 0 819587 75171.3 0 795534 71448.3 0 772699 67782.7 0 751060 64177.5 0 730598 60634.2 0 711289 57153.5 0 693114 53735 0 676051 50377.7 0 660080 47080.1 0 645181 43840.2 0 631335 40655.6 0 618525 37523.4 0 606732 34440.6 0 595942 31404 0 586140 28410.3 0 577312 25455.7 0 569445 22536.7 0 562529 19649.5 0 556554 16790.3 0 551510 13955 0 547391 11139.9 0 544190 8340.81 0 541904 5553.83 0 540527 2774.91 0 540060 0 0 1.02317e+06 103992 0 990165 100050 0 958463 96082 0 928066 92109.5 0 898967 88151.1 0 871154 84221 0 844615 80330.3 0 819332 76487.6 0 795286 72699.1 0 772459 68969.1 0 750828 65300.6 0 730372 61695.2 0 711071 58153.4 0 692903 54674.9 0 675846 51258.9 0 659881 47903.6 0 644988 44607 0 631148 41366.6 0 618342 38179.6 0 606555 35042.9 0 595769 31953.2 0 585971 28907.1 0 577146 25900.9 0 569283 22930.8 0 562370 19993.1 0 556396 17083.9 0 551355 14199 0 547237 11334.7 0 544038 8486.66 0 541753 5650.95 0 540377 2823.43 0 539910 0 0 1.02287e+06 105789 0 989865 101777 0 958169 97739.2 0 927778 93697 0 898685 89669.5 0 870880 85671 0 844348 81712.8 0 819073 77803.5 0 795035 73949.5 0 772215 70155.1 0 750592 66423.3 0 730144 62755.7 0 710850 59152.9 0 692688 55614.6 0 675638 52139.7 0 659679 48726.7 0 644792 45373.4 0 630957 42077.3 0 618157 38835.5 0 606374 35644.9 0 595593 32502.2 0 585799 29403.7 0 576978 26345.8 0 569118 23324.8 0 562207 20336.6 0 556237 17377.3 0 551197 14443 0 547082 11529.4 0 543884 8632.44 0 541599 5748.02 0 540224 2871.94 0 539757 0 0 1.02256e+06 107586 0 989561 103504 0 957870 99396 0 927485 95284.1 0 898400 91187.5 0 870602 87120.6 0 844078 83094.9 0 818810 79119 0 794781 75199.4 0 771968 71340.6 0 750352 67545.5 0 729912 63815.8 0 710625 60152 0 692470 56553.8 0 675427 53020.2 0 659474 49549.5 0 644593 46139.5 0 630764 42787.7 0 617969 39491.2 0 606191 36246.7 0 595414 33050.9 0 585624 29900.1 0 576807 26790.6 0 568950 23718.5 0 562042 20679.9 0 556074 17670.7 0 551037 14686.8 0 546923 11724 0 543727 8778.17 0 541443 5845.06 0 540069 2920.42 0 539601 0 0 1.02225e+06 109383 0 989253 105230 0 957568 101052 0 927190 96870.9 0 898111 92705.1 0 870321 88569.8 0 843804 84476.5 0 818544 80434.1 0 794522 76448.9 0 771718 72525.7 0 750110 68667.3 0 729677 64875.5 0 710397 61150.7 0 692249 57492.7 0 675213 53900.3 0 659266 50371.9 0 644391 46905.3 0 630567 43497.8 0 617778 40146.6 0 606005 36848.2 0 595233 33599.3 0 585446 30396.3 0 576633 27235.2 0 568779 24112.1 0 561875 21023.1 0 555909 17963.9 0 550874 14930.5 0 546762 11918.6 0 543567 8923.83 0 541284 5942.05 0 539910 2968.88 0 539443 0 0 1.02193e+06 111179 0 988942 106956 0 957262 102709 0 926890 98457.2 0 897818 94222.3 0 870035 90018.5 0 843527 85857.7 0 818275 81748.7 0 794261 77698 0 771464 73710.4 0 749864 69788.7 0 729438 65934.7 0 710166 62149 0 692025 58431.1 0 674995 54780.1 0 659055 51194 0 644186 47670.8 0 630368 44207.7 0 617584 40801.7 0 605815 37449.5 0 595048 34147.6 0 585266 30892.2 0 576456 27679.5 0 568606 24505.5 0 561705 21366.1 0 555741 18257 0 550708 15174.1 0 546598 12113 0 543404 9069.43 0 541123 6038.99 0 539749 3017.32 0 539283 0 0 1.02161e+06 112976 0 988627 108682 0 956952 104364 0 926587 100043 0 897522 95739.1 0 869747 91466.8 0 843246 87238.4 0 818002 83062.8 0 793996 78946.6 0 771207 74894.6 0 749614 70909.7 0 729196 66993.6 0 709931 63146.9 0 691798 59369.2 0 674774 55659.4 0 658841 52015.8 0 643978 48435.9 0 630166 44917.2 0 617387 41456.5 0 605623 38050.5 0 594861 34695.6 0 585083 31388 0 576277 28123.7 0 568430 24898.8 0 561531 21709 0 555571 18550 0 550540 15417.6 0 546432 12307.4 0 543239 9214.97 0 540959 6135.9 0 539586 3065.73 0 539120 0 0 </DataArray> 
</PointData> 
<Points> 
<DataArray type="Float32" NumberOfComponents="3"> 