<?xml version="1.0"?> 
<VTKFile type="StructuredGrid" version="0.1"> 
<StructuredGrid WholeExtent="0 31 0 31 0 0"> 
<Piece Extent="0 31 0 31 0 0"> 
<PointData>
<DataArray type="Float32" Name="|E|" format="ascii" NumberOfComponents="3"> 
1166.72 2820.37 0 -267.359 1001.03 0 -163.06 806.351 0 -209.389 535.863 0 -149.808 368.373 0 -122.971 250.132 0 -90.9018 171.873 0 -69.2774 119.694 0 -51.9084 84.5011 0 -39.4283 60.571 0 -30.0818 43.9587 0 -23.1966 32.2639 0 -18.0316 23.8843 0 -14.1325 17.8013 0 -11.1495 13.3307 0 -8.84479 10.0149 0 -7.04603 7.53725 0 -5.63095 5.67605 0 -4.51037 4.27259 0 -3.61877 3.21172 0 -2.90707 2.40863 0 -2.33807 1.80027 0 -1.8832 1.3393 0 -1.52026 0.989988 0 -1.23195 0.725215 0 -1.00472 0.524357 0 -0.828001 0.37169 0 -0.693689 0.255236 0 -0.595701 0.165884 0 -0.529718 0.0967553 0 -0.49299 0.0426962 0 -0.484292 9.53674e-07 0 381.117 2210.18 0 -283.861 1081.63 0 -248.452 761.275 0 -237.397 509.365 0 -175.819 345.102 0 -136.389 234.096 0 -100.207 160.665 0 -74.876 111.998 0 -55.6229 79.2338 0 -41.8485 56.9327 0 -31.7247 41.4268 0 -24.3229 30.4783 0 -18.8198 22.6103 0 -14.6898 16.8811 0 -11.5478 12.659 0 -9.13106 9.52012 0 -7.25274 7.17004 0 -5.78055 5.40192 0 -4.61879 4.06706 0 -3.69737 3.05718 0 -2.96406 2.29227 0 -2.37942 1.71264 0 -1.91324 1.2734 0 -1.54215 0.940578 0 -1.248 0.688381 0 -1.01659 0.497152 0 -0.836927 0.351912 0 -0.700539 0.24124 0 -0.601096 0.15646 0 -0.534091 0.0910229 0 -0.496627 0.0400388 0 -0.487348 -9.61125e-07 0 -64.3545 1957.56 0 -356.37 1079.56 0 -316.018 718.841 0 -267.043 478.059 0 -197.962 320.917 0 -148.562 217.288 0 -108.263 149.116 0 -79.7923 104.123 0 -58.8639 73.8721 0 -43.9767 53.2439 0 -33.1764 38.8653 0 -25.3256 28.6744 0 -19.526 21.3243 0 -15.1924 15.9526 0 -11.9088 11.9816 0 -9.39171 9.02119 0 -7.44162 6.79983 0 -5.91766 5.1256 0 -4.71837 3.85996 0 -3.76969 2.90152 0 -3.01658 2.1751 0 -2.41756 1.62443 0 -1.94097 1.20709 0 -1.56239 0.890885 0 -1.26285 0.651349 0 -1.02761 0.469816 0 -0.845222 0.332047 0 -0.706921 0.227192 0 -0.606139 0.147007 0 -0.538185 0.0852773 0 -0.500034 0.0373768 0 -0.490204 2.38419e-07 0 -362.633 1792.17 0 -444.193 1040.18 0 -373.397 673.165 0 -295.406 443.57 0 -216.895 295.781 0 -159.257 199.921 0 -115.128 137.325 0 -84.0176 96.134 0 -61.6426 68.4549 0 -45.8174 49.5278 0 -34.4406 36.2879 0 -26.2069 26.8608 0 -20.1517 20.0314 0 -15.641 15.0192 0 -12.233 11.3004 0 -9.62706 8.51937 0 -7.61287 6.42744 0 -6.04237 4.84766 0 -4.80918 3.65164 0 -3.83577 2.74496 0 -3.06464 2.05728 0 -2.45251 1.53576 0 -1.96641 1.14044 0 -1.58097 0.840958 0 -1.27651 0.614157 0 -1.03776 0.442371 0 -0.852887 0.312112 0 -0.712836 0.213101 0 -0.610825 0.13753 0 -0.542 0.0795214 0 -0.50321 0.0347122 0 -0.492858 0 0 -585.647 1651.93 0 -531.186 978.913 0 -423.105 623.048 0 -321.085 406.765 0 -232.898 269.81 0 -168.358 182.181 0 -120.845 125.384 0 -87.5535 88.0922 0 -63.9716 63.0179 0 -47.3765 45.8054 0 -35.5223 33.7074 0 -26.9695 25.0449 0 -20.6987 18.7363 0 -16.0367 14.0836 0 -12.5211 10.6172 0 -9.83746 8.01586 0 -7.7667 6.05364 0 -6.15481 4.5686 0 -4.89129 3.44246 0 -3.89565 2.58775 0 -3.10825 1.93897 0 -2.48427 1.44673 0 -1.98957 1.07354 0 -1.59791 0.790849 0 -1.28898 0.576837 0 -1.04704 0.41484 0 -0.859918 0.292122 0 -0.718281 0.198977 0 -0.615153 0.128035 0 -0.545533 0.0737578 0 -0.506153 0.0320456 0 -0.495311 5.96046e-08 0 -762.25 1512 0 -610.682 903.938 0 -465.843 568.792 0 -343.375 368.207 0 -246.091 243.229 0 -175.82 164.231 0 -125.447 113.391 0 -90.412 80.0552 0 -65.8651 57.5957 0 -48.6619 42.0969 0 -36.4268 31.1357 0 -27.6167 23.2339 0 -21.1688 17.4434 0 -16.3806 13.1487 0 -12.7738 9.93375 0 -10.0233 7.51179 0 -7.90336 5.6792 0 -6.25512 4.28892 0 -4.96478 3.23275 0 -3.94937 2.43011 0 -3.14746 1.82033 0 -2.51286 1.35745 0 -2.01044 1.00646 0 -1.61319 0.740606 0 -1.30026 0.539423 0 -1.05547 0.387245 0 -0.866316 0.272091 0 -0.723254 0.184828 0 -0.619123 0.118529 0 -0.548784 0.0679917 0 -0.508863 0.0293806 0 -0.49756 -2.98023e-08 0 -905.096 1367.41 0 -679.846 819.713 0 -501.744 511.162 0 -361.89 328.41 0 -256.547 216.282 0 -181.636 146.23 0 -128.972 101.44 0 -92.6113 72.0777 0 -67.3391 52.2204 0 -49.683 38.4209 0 -37.1603 28.5839 0 -28.1522 21.4347 0 -21.5645 16.1568 0 -16.6741 12.217 0 -12.9919 9.25182 0 -10.1851 7.00826 0 -8.02311 5.30483 0 -6.34348 4.00911 0 -5.02974 3.02284 0 -3.99699 2.27226 0 -3.18229 1.70151 0 -2.5383 1.26802 0 -2.02904 0.939259 0 -1.62684 0.690278 0 -1.31035 0.501949 0 -1.06302 0.359609 0 -0.87208 0.252035 0 -0.727755 0.170666 0 -0.622733 0.109018 0 -0.551751 0.0622244 0 -0.511337 0.026716 0 -0.499605 1.19209e-07 0 -1020.35 1217.69 0 -737.542 729.252 0 -530.8 451.077 0 -376.435 287.851 0 -264.326 189.228 0 -185.825 128.33 0 -131.46 89.6214 0 -94.1754 64.2116 0 -68.4117 46.9224 0 -50.4506 34.795 0 -37.7297 26.0626 0 -28.5799 19.6534 0 -21.888 14.8805 0 -16.9186 11.291 0 -13.1762 8.57297 0 -10.3234 6.50633 0 -8.12628 4.93123 0 -6.42005 3.72964 0 -5.0863 2.81305 0 -4.03859 2.11443 0 -3.21278 1.58265 0 -2.56062 1.17855 0 -2.04539 0.872015 0 -1.63886 0.639912 0 -1.31926 0.464447 0 -1.06972 0.331954 0 -0.87721 0.231966 0 -0.731784 0.156499 0 -0.625982 0.099505 0 -0.554433 0.0564589 0 -0.513576 0.0240544 0 -0.501445 1.19209e-07 0 -1111.47 1064.21 0 -783.437 634.823 0 -553.018 389.458 0 -386.935 246.998 0 -269.499 162.321 0 -188.431 110.68 0 -132.957 78.0206 0 -95.1328 56.5049 0 -69.1029 41.7292 0 -50.9766 31.2351 0 -38.1423 23.5813 0 -28.9042 17.896 0 -22.142 13.6181 0 -17.1157 10.373 0 -13.3276 7.89869 0 -10.4386 6.00697 0 -8.21317 4.55907 0 -6.48505 3.45096 0 -5.13457 2.60368 0 -4.07422 1.95682 0 -3.23898 1.46392 0 -2.57984 1.08913 0 -2.05949 0.804796 0 -1.64926 0.589558 0 -1.32699 0.426949 0 -1.07555 0.304302 0 -0.881706 0.211901 0 -0.735338 0.142337 0 -0.628869 0.0899983 0 -0.556828 0.0506998 0 -0.515579 0.0213968 0 -0.503079 1.78814e-07 0 -1180.66 908.754 0 -817.615 538.269 0 -568.468 327.186 0 -393.406 206.301 0 -272.15 135.812 0 -189.512 93.4205 0 -133.516 66.717 0 -95.5163 49.0019 0 -69.434 36.6661 0 -51.2737 27.7558 0 -38.4058 21.1487 0 -29.1297 16.1677 0 -22.3292 12.373 0 -17.2669 9.46524 0 -13.4472 7.23041 0 -10.5314 5.51115 0 -8.28416 4.18898 0 -6.53867 3.1735 0 -5.17468 2.39504 0 -4.10398 1.79964 0 -3.26093 1.34544 0 -2.59598 0.999867 0 -2.07137 0.737672 0 -1.65804 0.539262 0 -1.33355 0.389488 0 -1.08053 0.276674 0 -0.88557 0.191854 0 -0.73842 0.128188 0 -0.631394 0.0805024 0 -0.558937 0.0449494 0 -0.517343 0.0187445 0 -0.504506 -1.19209e-07 0 -1229.61 753.196 0 -840.397 441.153 0 -577.299 265.078 0 -395.931 166.19 0 -272.385 109.937 0 -189.145 76.6829 0 -133.193 55.7835 0 -95.362 41.7423 0 -69.4282 31.7557 0 -51.3558 24.3701 0 -38.5284 18.7726 0 -29.2613 14.4733 0 -22.4525 11.1482 0 -17.374 8.56966 0 -13.5358 6.56945 0 -10.6024 5.01974 0 -8.3396 3.82158 0 -6.58116 2.89768 0 -5.20676 2.1874 0 -4.12795 1.6431 0 -3.27869 1.22735 0 -2.60909 0.910855 0 -2.08104 0.670708 0 -1.66522 0.489068 0 -1.33894 0.352095 0 -1.08465 0.249092 0 -0.888803 0.171838 0 -0.741029 0.114061 0 -0.633556 0.0710235 0 -0.560758 0.0392108 0 -0.51887 0.0160988 0 -0.505727 -1.19209e-07 0 -1259.75 599.316 0 -852.255 344.829 0 -579.734 203.887 0 -394.647 127.071 0 -270.329 84.9231 0 -187.418 60.5892 0 -132.052 45.2858 0 -94.709 34.7618 0 -69.1094 27.0178 0 -51.2369 21.0894 0 -38.5187 16.46 0 -29.3039 12.8172 0 -22.5149 9.94651 0 -17.4388 7.68811 0 -13.5947 5.91704 0 -10.6522 4.53358 0 -8.37991 3.45743 0 -6.61276 2.6239 0 -5.23098 1.98106 0 -4.14621 1.48737 0 -3.29232 1.1098 0 -2.6192 0.822188 0 -2.08853 0.603969 0 -1.67081 0.439024 0 -1.34317 0.314801 0 -1.08792 0.221576 0 -0.891406 0.151868 0 -0.743165 0.0999667 0 -0.635355 0.0615665 0 -0.562291 0.0334868 0 -0.520158 0.0134607 0 -0.50674 -1.78814e-07 0 -1272.4 448.761 0 -853.761 250.481 0 -576.06 144.295 0 -389.739 89.3229 0 -266.128 60.9773 0 -184.433 45.2499 0 -130.161 35.2819 0 -93.5987 28.0909 0 -68.5027 22.4695 0 -50.9318 17.9238 0 -38.3854 14.2168 0 -29.2626 11.2033 0 -22.5193 8.77047 0 -17.4631 6.82225 0 -13.625 5.27433 0 -10.6816 4.05347 0 -8.40548 3.09709 0 -6.63371 2.35254 0 -5.24749 1.77627 0 -4.15888 1.33266 0 -3.30187 0.992903 0 -2.62633 0.733958 0 -2.09386 0.53752 0 -1.67482 0.389174 0 -1.34625 0.277637 0 -1.09035 0.194148 0 -0.893381 0.131958 0 -0.744829 0.0859129 0 -0.636791 0.0521373 0 -0.563535 0.0277806 0 -0.521207 0.0108317 0 -0.507545 2.38419e-07 0 -1268.88 303.026 0 -845.561 159.144 0 -566.618 86.9179 0 -381.43 53.2931 0 -259.946 38.2902 0 -180.303 30.7629 0 -127.591 25.8215 0 -92.074 21.7556 0 -67.6337 18.1251 0 -50.4555 14.8815 0 -38.1372 12.0484 0 -29.1427 9.63483 0 -22.4691 7.6223 0 -17.4487 5.97363 0 -13.6276 4.64236 0 -10.6911 3.58014 0 -8.41675 2.74106 0 -6.64428 2.08397 0 -5.25644 1.5733 0 -4.16604 1.17914 0 -3.30741 0.8768 0 -2.63055 0.646254 0 -2.09706 0.471425 0 -1.67727 0.339561 0 -1.34818 0.240632 0 -1.09193 0.166828 0 -0.894732 0.112121 0 -0.746022 0.0719088 0 -0.637864 0.0427411 0 -0.564491 0.0220948 0 -0.522017 0.00821331 0 -0.508142 1.78814e-07 0 -1250.48 163.44 0 -828.35 71.7194 0 -551.793 32.3062 0 -369.972 19.2996 0 -251.965 17.032 0 -175.146 17.2123 0 -124.417 16.9456 0 -90.179 15.7767 0 -66.5281 13.9961 0 -49.823 11.9695 0 -37.783 9.95913 0 -28.9494 8.11475 0 -22.3671 6.50397 0 -17.3975 5.14361 0 -13.6038 4.02212 0 -10.6816 3.11427 0 -8.41414 2.38985 0 -6.64475 1.81852 0 -5.25802 1.37238 0 -4.16781 1.02698 0 -3.30901 0.76161 0 -2.63188 0.559164 0 -2.09815 0.405744 0 -1.67818 0.290227 0 -1.34898 0.203817 0 -1.09268 0.139637 0 -0.895461 0.0923705 0 -0.746746 0.0579631 0 -0.638574 0.0333836 0 -0.565158 0.0164331 0 -0.522586 0.00560576 0 -0.508531 -7.15256e-07 0 -1218.54 31.161 0 -802.863 -11.0163 0 -532.006 -19.052 0 -355.651 -12.3717 0 -242.385 -2.64883 0 -169.09 4.66728 0 -120.715 8.68639 0 -87.9585 10.1703 0 -65.212 10.0913 0 -49.0493 9.19308 0 -37.3317 7.95244 0 -28.6879 6.64548 0 -22.2167 5.41722 0 -17.3115 4.33341 0 -13.5548 3.41446 0 -10.6537 2.65649 0 -8.39811 2.04389 0 -6.63539 1.55654 0 -5.2524 1.17376 0 -4.1643 0.876357 0 -3.30674 0.647453 0 -2.63037 0.472773 0 -2.09715 0.340536 0 -1.67757 0.241216 0 -1.34866 0.167221 0 -1.09259 0.112594 0 -0.895571 0.0727202 0 -0.747002 0.0440843 0 -0.638923 0.0240697 0 -0.565536 0.0107976 0 -0.522916 0.00301081 0 -0.508711 2.38419e-07 0 -1174.38 -92.8274 0 -769.854 -88.4026 0 -507.703 -66.7267 0 -338.773 -41.4666 0 -231.418 -20.6273 0 -162.267 -6.81846 0 -116.562 1.06711 0 -85.457 4.94725 0 -63.7109 6.41684 0 -48.1495 6.55624 0 -36.792 6.03112 0 -28.3635 5.22901 0 -22.0209 4.36348 0 -17.1925 3.54411 0 -13.4818 2.82019 0 -10.6081 2.20738 0 -8.36913 1.70361 0 -6.6165 1.29831 0 -5.23976 0.977656 0 -4.15564 0.72743 0 -3.30067 0.534445 0 -2.62608 0.387162 0 -2.09411 0.275861 0 -1.67544 0.192567 0 -1.34722 0.130872 0 -1.09169 0.085719 0 -0.895067 0.0531832 0 -0.746792 0.0302813 0 -0.638911 0.0148047 0 -0.565626 0.0051915 0 -0.523005 0.000430465 0 -0.508683 1.19209e-07 0 -1119.36 -207.715 0 -730.085 -159.888 0 -479.35 -110.341 0 -319.671 -67.7632 0 -219.289 -36.8036 0 -154.812 -17.2075 0 -112.037 -5.89805 0 -82.7185 0.113942 0 -62.0501 2.97649 0 -47.1381 4.06154 0 -36.1725 4.19718 0 -27.9813 3.86691 0 -21.7829 3.34399 0 -17.0425 2.77665 0 -13.3858 2.24001 0 -10.5456 1.76748 0 -8.32764 1.36942 0 -6.58837 1.04414 0 -5.2203 0.78428 0 -4.14193 0.580353 0 -3.29089 0.422697 0 -2.61904 0.302413 0 -2.08905 0.211776 0 -1.67183 0.144322 0 -1.34469 0.0947979 0 -1.08997 0.0590307 0 -0.893952 0.033772 0 -0.746119 0.0165622 0 -0.638539 0.00559407 0 -0.565428 -0.000381947 0 -0.522855 -0.0021351 0 -0.508446 -2.38419e-07 0 -1054.81 -312.864 0 -684.31 -225.024 0 -447.426 -149.563 0 -298.7 -91.0718 0 -206.234 -51.1054 0 -146.861 -26.4793 0 -107.216 -12.2037 0 -79.7858 -4.32798 0 -60.2539 -0.228548 0 -46.0292 1.71031 0 -35.4817 2.4519 0 -27.5463 2.56034 0 -21.5057 2.35973 0 -16.8633 2.03182 0 -13.2681 1.67456 0 -10.467 1.33727 0 -8.27412 1.04167 0 -6.5513 0.794304 0 -5.1942 0.593835 0 -4.12331 0.435274 0 -3.27747 0.312316 0 -2.60932 0.218603 0 -2.082 0.148335 0 -1.66675 0.0965184 0 -1.34108 0.0590269 0 -1.08744 0.032548 0 -0.892231 0.0145003 0 -0.744984 0.00293532 0 -0.637808 -0.00355741 0 -0.564942 -0.00592035 0 -0.522465 -0.00468487 0 -0.508001 1.19209e-07 0 -982.041 -407.813 0 -633.261 -283.452 0 -412.425 -184.101 0 -276.241 -111.236 0 -192.493 -63.4897 0 -138.547 -34.6297 0 -102.172 -17.8531 0 -76.7001 -8.38116 0 -58.3457 -3.19921 0 -44.8367 -0.49737 0 -34.7275 0.795917 0 -27.0635 1.31008 0 -21.1923 1.41147 0 -16.6568 1.31031 0 -13.1299 1.12438 0 -10.3729 0.917186 0 -8.20904 0.720708 0 -6.50559 0.549051 0 -5.16167 0.406513 0 -4.0999 0.292333 0 -3.2605 0.203406 0 -2.59697 0.135806 0 -2.07301 0.0855915 0 -1.66023 0.0491955 0 -1.33639 0.0235847 0 -1.08411 0.00628984 0 -0.889909 -0.00461969 0 -0.743391 -0.0105913 0 -0.63672 -0.0126445 0 -0.56417 -0.0114211 0 -0.521836 -0.00721675 0 -0.507347 1.19209e-07 0 -902.338 -492.271 0 -577.629 -334.896 0 -374.853 -213.691 0 -252.698 -128.136 0 -178.31 -73.9458 0 -130.001 -41.6711 0 -96.9781 -22.8576 0 -73.5002 -12.0522 0 -56.348 -5.9385 0 -43.5734 -2.56247 0 -33.9179 -0.770754 0 -26.5375 0.116585 0 -20.8456 0.499786 0 -16.4248 0.612652 0 -12.9722 0.589963 0 -10.2641 0.507624 0 -8.13288 0.40684 0 -6.45156 0.308623 0 -5.1229 0.222496 0 -4.07183 0.151667 0 -3.24006 0.0960661 0 -2.58203 0.0540942 0 -2.0621 0.0235989 0 -1.65228 0.00239038 0 -1.33064 -0.0115021 0 -1.08 -0.0197256 0 -0.886991 -0.0235763 0 -0.741342 -0.0240089 0 -0.635277 -0.021662 0 -0.563111 -0.016881 0 -0.520968 -0.00973028 0 -0.506486 -4.76837e-07 0 -816.914 -566.125 0 -518.043 -379.144 0 -335.243 -238.084 0 -228.504 -141.694 0 -163.923 -82.4972 0 -121.347 -47.6316 0 -91.6998 -27.236 0 -70.2225 -15.3513 0 -54.2817 -8.45125 0 -42.2517 -4.48698 0 -33.0602 -2.24866 0 -25.973 -1.02004 0 -20.4685 -0.374961 0 -16.1692 -0.0607093 0 -12.7964 0.0717134 0 -10.1414 0.108935 0 -8.04612 0.100352 0 -6.38951 0.0732438 0 -5.07809 0.0419532 0 -4.03925 0.0134024 0 -3.21624 -0.00960934 0 -2.56458 -0.0264621 0 -2.04931 -0.0375938 0 -1.64294 -0.0438616 0 -1.32385 -0.0462076 0 -1.0751 -0.0454811 0 -0.883484 -0.0423568 0 -0.738842 -0.0373101 0 -0.633479 -0.0306057 0 -0.561767 -0.022298 0 -0.519861 -0.0122244 0 -0.505417 3.57628e-07 0 -726.887 -629.447 0 -455.047 -416.025 0 -294.17 -257.038 0 -204.123 -151.885 0 -149.561 -89.2026 0 -112.701 -52.5531 0 -86.3995 -31.0145 0 -66.9004 -18.2916 0 -52.1666 -10.744 0 -40.8831 -6.27372 0 -32.1616 -3.63885 0 -25.3743 -2.09997 0 -20.0637 -1.21258 0 -15.8916 -0.709449 0 -12.6034 -0.430027 0 -10.0054 -0.278575 0 -7.94923 -0.198498 0 -6.31976 -0.156882 0 -5.02746 -0.134955 0 -4.00227 -0.122339 0 -3.18912 -0.113528 0 -2.54466 -0.105797 0 -2.03469 -0.0979362 0 -1.63223 -0.0895249 0 -1.31603 -0.0805076 0 -1.06943 -0.0709586 0 -0.879392 -0.0609501 0 -0.735892 -0.0504881 0 -0.631329 -0.0394703 0 -0.560139 -0.0276684 0 -0.518517 -0.0146973 0 -0.504141 0 0 -633.227 -682.521 0 -389.075 -445.371 0 -252.286 -270.299 0 -180.035 -158.751 0 -135.43 -94.1555 0 -104.175 -56.4906 0 -81.1321 -34.2252 0 -63.5646 -20.8889 0 -50.0207 -12.8246 0 -39.4784 -7.92632 0 -31.2287 -4.94284 0 -24.7455 -3.12365 0 -19.6339 -2.01303 0 -15.5938 -1.33334 0 -12.3943 -0.914979 0 -9.85697 -0.654634 0 -7.84268 -0.489478 0 -6.24261 -0.381563 0 -4.97122 -0.308079 0 -3.96105 -0.25544 0 -3.15881 -0.215605 0 -2.52234 -0.183844 0 -2.01826 -0.157382 0 -1.62016 -0.134566 0 -1.30721 -0.114378 0 -1.06299 -0.0961417 0 -0.874722 -0.0793443 0 -0.732497 -0.0635334 0 -0.628829 -0.0482522 0 -0.558227 -0.0329907 0 -0.516936 -0.0171486 0 -0.502659 -1.19209e-07 0 -536.666 -725.89 0 -320.431 -466.956 0 -210.384 -277.598 0 -156.726 -162.426 0 -121.708 -97.4784 0 -95.8691 -59.5102 0 -75.9443 -36.9053 0 -60.2434 -23.161 0 -47.8604 -14.7023 0 -38.0473 -9.44901 0 -30.2678 -6.16255 0 -24.0906 -4.09174 0 -19.1817 -2.77646 0 -15.2774 -1.93223 0 -12.1703 -1.38293 0 -9.69671 -1.01901 0 -7.72695 -0.772381 0 -6.15839 -0.600624 0 -4.90956 -0.477279 0 -3.91571 -0.385795 0 -3.12539 -0.315756 0 -2.49768 -0.260544 0 -2.00008 -0.215886 0 -1.60678 -0.17895 0 -1.29739 -0.147794 0 -1.05581 -0.121014 0 -0.869481 -0.097528 0 -0.728661 -0.0764402 0 -0.625982 -0.056945 0 -0.556034 -0.0382617 0 -0.515118 -0.019577 0 -0.500971 1.19209e-07 0 -437.504 -760.503 0 -249.285 -480.384 0 -169.479 -278.661 0 -134.64 -163.169 0 -108.545 -99.3112 0 -87.8789 -61.6907 0 -70.8723 -39.0953 0 -56.9631 -25.1277 0 -45.6996 -16.3871 0 -36.5992 -10.8467 0 -29.2847 -7.30017 0 -23.4133 -5.00518 0 -18.7094 -3.50311 0 -14.944 -2.5061 0 -11.9325 -1.83371 0 -9.52535 -1.37151 0 -7.60249 -1.04702 0 -6.0674 -0.813905 0 -4.8427 -0.642424 0 -3.86641 -0.513299 0 -3.08896 -0.413903 0 -2.47075 -0.335836 0 -1.98018 -0.273403 0 -1.59211 -0.222647 0 -1.28659 -0.180734 0 -1.04789 -0.145559 0 -0.863676 -0.11549 0 -0.724389 -0.0891998 0 -0.62279 -0.0655449 0 -0.553561 -0.0434791 0 -0.513065 -0.0219813 0 -0.499078 0 0 -335.225 -787.962 0 -175.75 -484.889 0 -130.93 -273.26 0 -114.089 -161.389 0 -96.0809 -99.7919 0 -80.2811 -63.1258 0 -65.9441 -40.8358 0 -53.7488 -26.8102 0 -43.5494 -17.8896 0 -35.1429 -12.1247 0 -28.2843 -8.35818 0 -22.7171 -5.86509 0 -18.2193 -4.19333 0 -14.5951 -3.05498 0 -11.6817 -2.2672 0 -9.34356 -1.71196 0 -7.46978 -1.31323 0 -5.96996 -1.02126 0 -4.77085 -0.803395 0 -3.81328 -0.637857 0 -3.04962 -0.509972 0 -2.4416 -0.409663 0 -1.9586 -0.329893 0 -1.57617 -0.265626 0 -1.27484 -0.213175 0 -1.03925 -0.16976 0 -0.857314 -0.13322 0 -0.719684 -0.101807 0 -0.619255 -0.0740474 0 -0.55081 -0.0486408 0 -0.510778 -0.0243607 0 -0.49698 0 0 -227.487 -811.513 0 -100.217 -478.865 0 -96.5132 -261.407 0 -95.138 -157.65 0 -84.493 -99.0378 0 -73.1151 -63.9296 0 -61.186 -42.1619 0 -50.6216 -28.2338 0 -41.4187 -19.2198 0 -33.6871 -13.2895 0 -27.2711 -9.33886 0 -22.0054 -6.673 0 -17.7135 -4.84744 0 -14.2322 -3.57907 0 -11.419 -2.6833 0 -9.15202 -2.04028 0 -7.32926 -1.57087 0 -5.86638 -1.22257 0 -4.69422 -0.960077 0 -3.75647 -0.759379 0 -3.00745 -0.603891 0 -2.41031 -0.481974 0 -1.9354 -0.385314 0 -1.55899 -0.307856 0 -1.26215 -0.245095 0 -1.02989 -0.193605 0 -0.850403 -0.150707 0 -0.714552 -0.114252 0 -0.615381 -0.082449 0 -0.547782 -0.0537435 0 -0.508257 -0.026714 0 -0.494679 0 0 -107.963 -837.302 0 -24.2444 -459.096 0 -68.3441 -243.731 0 -77.4499 -152.593 0 -74.0887 -97.1385 0 -66.3271 -64.2362 0 -56.6511 -43.1041 0 -47.5867 -29.4231 0 -39.3195 -20.3899 0 -32.238 -14.3456 0 -26.2493 -10.246 0 -21.2815 -7.42979 0 -17.194 -5.46627 0 -13.8567 -4.0784 0 -11.1454 -3.08204 0 -8.95141 -2.35632 0 -7.18139 -1.81981 0 -5.75695 -1.4177 0 -4.61303 -1.11237 0 -3.69612 -0.877781 0 -2.96257 -0.695596 0 -2.37693 -0.552715 0 -1.91061 -0.439628 0 -1.54061 -0.34931 0 -1.24855 -0.276475 0 -1.01982 -0.217076 0 -0.84295 -0.167941 0 -0.708997 -0.126531 0 -0.611171 -0.0907444 0 -0.544479 -0.0587857 0 -0.505505 -0.0290409 0 -0.492176 -2.38419e-07 0 41.1791 -884.495 0 46.0414 -417.559 0 -47.5938 -223.07 0 -60.6168 -146.328 0 -65.2259 -94.3458 0 -59.7772 -64.1431 0 -52.4278 -43.6929 0 -44.6256 -30.4083 0 -37.2712 -21.4077 0 -30.7972 -15.3012 0 -25.2241 -11.0816 0 -20.5477 -8.13757 0 -16.6627 -6.05012 0 -13.47 -4.55344 0 -10.8617 -3.4633 0 -8.74235 -2.66009 0 -7.0266 -2.05992 0 -5.64201 -1.60657 0 -4.52748 -1.26017 0 -3.63237 -0.99299 0 -2.91506 -0.785018 0 -2.34154 -0.621839 0 -1.88428 -0.492798 0 -1.52105 -0.389959 0 -1.23404 -0.307294 0 -1.00907 -0.240159 0 -0.834965 -0.184913 0 -0.703025 -0.138635 0 -0.606628 -0.0989293 0 -0.540904 -0.0637644 0 -0.502522 -0.0313388 0 -0.489472 7.15256e-07 0 266.197 -995.821 0 92.1106 -337.142 0 -30.9538 -206.756 0 -45.4442 -137.417 0 -57.8821 -91.4607 0 -53.3571 -63.5398 0 -48.6262 -44.0384 0 -41.6866 -31.1791 0 -35.3119 -22.3045 0 -29.3545 -16.149 0 -24.2061 -11.8576 0 -19.8035 -8.79239 0 -16.1227 -6.60294 0 -13.0728 -5.00262 0 -10.5691 -3.82815 0 -8.52539 -2.95103 0 -6.86534 -2.29137 0 -5.52182 -1.78897 0 -4.43778 -1.40345 0 -3.56538 -1.1049 0 -2.86502 -0.872116 0 -2.30421 -0.689294 0 -1.85646 -0.544791 0 -1.50035 -0.429777 0 -1.21865 -0.337532 0 -0.997642 -0.262842 0 -0.826456 -0.201611 0 -0.696642 -0.150559 0 -0.601755 -0.107001 0 -0.537057 -0.0686777 0 -0.499309 -0.0336083 0 -0.486568 -9.53674e-07 0 729.876 -1387.95 0 45.2419 -154.227 0 9.28097 -223.672 0 -43.9361 -115.049 0 -46.8118 -93.0609 0 -49.2636 -60.9618 0 -44.3469 -44.6272 0 -39.1403 -31.6872 0 -33.3023 -23.0606 0 -27.9702 -16.9385 0 -23.1766 -12.545 0 -19.0594 -9.41613 0 -15.5726 -7.11419 0 -12.6674 -5.43235 0 -10.2679 -4.17359 0 -8.30127 -3.23065 0 -6.69801 -2.51337 0 -5.39671 -1.96516 0 -4.34413 -1.54199 0 -3.49528 -1.21353 0 -2.81257 -0.956799 0 -2.265 -0.755052 0 -1.82719 -0.595566 0 -1.47853 -0.46874 0 -1.20241 -0.36717 0 -0.985551 -0.28511 0 -0.817431 -0.218027 0 -0.689851 -0.162296 0 -0.596555 -0.114955 0 -0.532943 -0.0735234 0 -0.49587 -0.0358481 0 -0.483464 1.90735e-06 0 </DataArray> 
</PointData> 
<Points> 
<DataArray type="Float32" NumberOfComponents="3"> 