<?xml version="1.0"?> 
<VTKFile type="StructuredGrid" version="0.1"> 
<StructuredGrid WholeExtent="0 31 0 31 0 0"> 
<Piece Extent="0 31 0 31 0 0"> 
<PointData>
<DataArray type="Float32" Name="|E|" format="ascii" NumberOfComponents="3"> 
-2.12938e+06 0 0 -2.13092e+06 0.000453786 0 -2.13546e+06 0.000913044 0 -2.14302e+06 0.00138337 0 -2.15362e+06 0.00186984 0 -2.16731e+06 0.00237734 0 -2.18413e+06 0.00290987 0 -2.20415e+06 0.00347056 0 -2.22745e+06 0.00406067 0 -2.25411e+06 0.00467807 0 -2.28425e+06 0.0053149 0 -2.31798e+06 0.00595495 0 -2.35544e+06 0.00656837 0 -2.39677e+06 0.00710315 0 -2.44215e+06 0.00747602 0 -2.49175e+06 0.00755209 0 -2.54575e+06 0.00712445 0 -2.60432e+06 0.00587685 0 -2.66763e+06 0.00333863 0 -2.73577e+06 -0.00117078 0 -2.80878e+06 -0.00859952 0 -2.88655e+06 -0.0201926 0 -2.96871e+06 -0.0374289 0 -3.0546e+06 -0.0617491 0 -3.14302e+06 -0.0938773 0 -3.23212e+06 -0.132514 0 -3.31921e+06 -0.172458 0 -3.40063e+06 -0.203158 0 -3.47187e+06 -0.209828 0 -3.52795e+06 -0.178572 0 -3.56413e+06 -0.104434 0 -3.57689e+06 -4.76837e-07 0 -2.12935e+06 0 0 -2.13089e+06 399.756 0 -2.13543e+06 800.974 0 -2.14299e+06 1205.13 0 -2.15359e+06 1613.74 0 -2.16728e+06 2028.36 0 -2.1841e+06 2450.64 0 -2.20412e+06 2882.28 0 -2.22742e+06 3325.08 0 -2.25408e+06 3780.95 0 -2.28422e+06 4251.86 0 -2.31794e+06 4739.86 0 -2.3554e+06 5246.99 0 -2.39674e+06 5775.23 0 -2.44212e+06 6326.26 0 -2.49171e+06 6901.24 0 -2.54571e+06 7500.38 0 -2.60428e+06 8122.21 0 -2.66758e+06 8762.6 0 -2.73573e+06 9413.22 0 -2.80874e+06 10059.3 0 -2.88651e+06 10676.7 0 -2.96868e+06 11227.7 0 -3.05458e+06 11656.6 0 -3.14301e+06 11884.9 0 -3.23214e+06 11809.8 0 -3.31926e+06 11308.1 0 -3.40072e+06 10254.3 0 -3.47201e+06 8553.29 0 -3.52813e+06 6187.16 0 -3.56434e+06 3257.66 0 -3.57711e+06 -1.86265e-08 0 -2.12927e+06 0 0 -2.13081e+06 799.487 0 -2.13535e+06 1601.89 0 -2.14291e+06 2410.18 0 -2.15351e+06 3227.37 0 -2.1672e+06 4056.59 0 -2.18402e+06 4901.11 0 -2.20403e+06 5764.35 0 -2.22733e+06 6649.92 0 -2.25399e+06 7561.62 0 -2.28412e+06 8503.4 0 -2.31785e+06 9479.36 0 -2.3553e+06 10493.6 0 -2.39663e+06 11550 0 -2.442e+06 12652.1 0 -2.4916e+06 13802.1 0 -2.54559e+06 15000.3 0 -2.60416e+06 16244.1 0 -2.66746e+06 17525 0 -2.7356e+06 18826.5 0 -2.80861e+06 20119.1 0 -2.88639e+06 21354.6 0 -2.96858e+06 22457.6 0 -3.05451e+06 23316.8 0 -3.14299e+06 23775.3 0 -3.23219e+06 23627.2 0 -3.31941e+06 22626.3 0 -3.40099e+06 20520.4 0 -3.47242e+06 17118.8 0 -3.52867e+06 12384.7 0 -3.56497e+06 6521.39 0 -3.57778e+06 5.21541e-08 0 -2.12914e+06 0 0 -2.13068e+06 1199.16 0 -2.13522e+06 2402.71 0 -2.14278e+06 3615.07 0 -2.15337e+06 4840.78 0 -2.16706e+06 6084.54 0 -2.18387e+06 7351.24 0 -2.20389e+06 8646.02 0 -2.22718e+06 9974.3 0 -2.25383e+06 11341.7 0 -2.28396e+06 12754.3 0 -2.31768e+06 14218.2 0 -2.35513e+06 15739.5 0 -2.39645e+06 17324 0 -2.44182e+06 18977 0 -2.4914e+06 20702 0 -2.54538e+06 22499.5 0 -2.60394e+06 24365.3 0 -2.66724e+06 26287 0 -2.73538e+06 28239.9 0 -2.8084e+06 30180 0 -2.88619e+06 32034.8 0 -2.96841e+06 33691.9 0 -3.05439e+06 34984.1 0 -3.14296e+06 35676.6 0 -3.23228e+06 35460.1 0 -3.31966e+06 33964.5 0 -3.40145e+06 30810.2 0 -3.4731e+06 25708.7 0 -3.52956e+06 18603.1 0 -3.56603e+06 9797.31 0 -3.5789e+06 -2.68221e-07 0 -2.12895e+06 0 0 -2.13049e+06 1598.76 0 -2.13503e+06 3203.37 0 -2.14259e+06 4819.72 0 -2.15318e+06 6453.87 0 -2.16686e+06 8112.08 0 -2.18367e+06 9800.87 0 -2.20368e+06 11527.1 0 -2.22697e+06 13298 0 -2.25362e+06 15121.1 0 -2.28374e+06 17004.3 0 -2.31745e+06 18956 0 -2.35488e+06 20984.2 0 -2.3962e+06 23096.8 0 -2.44155e+06 25300.7 0 -2.49113e+06 27600.6 0 -2.5451e+06 29997.4 0 -2.60365e+06 32485.4 0 -2.66694e+06 35048.5 0 -2.73508e+06 37653.5 0 -2.80811e+06 40242.2 0 -2.88591e+06 42718.5 0 -2.96818e+06 44932.5 0 -3.05423e+06 46662.1 0 -3.14292e+06 47594.1 0 -3.2324e+06 47315.8 0 -3.32001e+06 45332.5 0 -3.40208e+06 41135.1 0 -3.47405e+06 34335 0 -3.53082e+06 24852.4 0 -3.56751e+06 13091.4 0 -3.58046e+06 5.81145e-07 0 -2.12871e+06 0 0 -2.13025e+06 1998.26 0 -2.13479e+06 4003.81 0 -2.14234e+06 6024.05 0 -2.15294e+06 8066.53 0 -2.16661e+06 10139.1 0 -2.18342e+06 12249.8 0 -2.20342e+06 14407.4 0 -2.2267e+06 16620.7 0 -2.25334e+06 18899.3 0 -2.28345e+06 21253.1 0 -2.31715e+06 23692.4 0 -2.35457e+06 26227.4 0 -2.39587e+06 28867.9 0 -2.44121e+06 31622.6 0 -2.49077e+06 34497.5 0 -2.54473e+06 37493.7 0 -2.60327e+06 40604.2 0 -2.66655e+06 43809.1 0 -2.73469e+06 47067.4 0 -2.80772e+06 50306.4 0 -2.88556e+06 53406.7 0 -2.96788e+06 56181.7 0 -3.05402e+06 58354.1 0 -3.14285e+06 59533 0 -3.23256e+06 59201.9 0 -3.32046e+06 56740.2 0 -3.4029e+06 51506.9 0 -3.47528e+06 43010 0 -3.53244e+06 31143.4 0 -3.56942e+06 16409.9 0 -3.58248e+06 -6.70552e-07 0 -2.12842e+06 0 0 -2.12996e+06 2397.62 0 -2.1345e+06 4804 0 -2.14204e+06 7227.99 0 -2.15263e+06 9678.66 0 -2.1663e+06 12165.4 0 -2.18311e+06 14698 0 -2.2031e+06 17286.7 0 -2.22637e+06 19942.3 0 -2.253e+06 22676.2 0 -2.2831e+06 25500.4 0 -2.31678e+06 28427.1 0 -2.35419e+06 31468.7 0 -2.39548e+06 34637 0 -2.4408e+06 37942.4 0 -2.49034e+06 41392.2 0 -2.54428e+06 44987.9 0 -2.60281e+06 48721.3 0 -2.66607e+06 52568.7 0 -2.73421e+06 56481.5 0 -2.80725e+06 60373 0 -2.88512e+06 64100.6 0 -2.9675e+06 67441.4 0 -3.05376e+06 70063.7 0 -3.14278e+06 71498.7 0 -3.23275e+06 71125.9 0 -3.32101e+06 68197.5 0 -3.4039e+06 61937.6 0 -3.47678e+06 51746 0 -3.53442e+06 37486.5 0 -3.57176e+06 19759 0 -3.58496e+06 6.10948e-07 0 -2.12807e+06 0 0 -2.12961e+06 2796.83 0 -2.13415e+06 5603.87 0 -2.14169e+06 8431.45 0 -2.15228e+06 11290.1 0 -2.16594e+06 14190.9 0 -2.18274e+06 17145.1 0 -2.20272e+06 20164.7 0 -2.22598e+06 23262.5 0 -2.2526e+06 26451.5 0 -2.28268e+06 29745.9 0 -2.31635e+06 33159.8 0 -2.35375e+06 36707.8 0 -2.39501e+06 40403.7 0 -2.44031e+06 44259.7 0 -2.48983e+06 48284.3 0 -2.54375e+06 52479.6 0 -2.60226e+06 56836.3 0 -2.66551e+06 61327.2 0 -2.73364e+06 65895.9 0 -2.8067e+06 70442.4 0 -2.8846e+06 74801.2 0 -2.96706e+06 78713.8 0 -3.05346e+06 81794.2 0 -3.14268e+06 83496.3 0 -3.23296e+06 83095.4 0 -3.32165e+06 79714.5 0 -3.40507e+06 72438.9 0 -3.47855e+06 60555.5 0 -3.53677e+06 43892.7 0 -3.57453e+06 23145.3 0 -3.5879e+06 -3.8743e-07 0 -2.12767e+06 0 0 -2.12921e+06 3195.86 0 -2.13374e+06 6403.38 0 -2.14129e+06 9634.36 0 -2.15187e+06 12900.9 0 -2.16552e+06 16215.4 0 -2.18231e+06 19591.1 0 -2.20229e+06 23041.4 0 -2.22553e+06 26581 0 -2.25214e+06 30225 0 -2.2822e+06 33989.2 0 -2.31586e+06 37890.1 0 -2.35323e+06 41944.2 0 -2.39447e+06 46167.5 0 -2.43975e+06 50573.9 0 -2.48925e+06 55173.3 0 -2.54314e+06 59968.4 0 -2.60163e+06 64948.9 0 -2.66486e+06 70084.1 0 -2.73299e+06 75310.6 0 -2.80606e+06 80514.9 0 -2.88401e+06 85509.6 0 -2.96655e+06 90000.6 0 -3.0531e+06 93548.9 0 -3.14257e+06 95531.2 0 -3.23321e+06 95117.9 0 -3.32239e+06 91301 0 -3.40643e+06 83023.1 0 -3.4806e+06 69451.5 0 -3.53948e+06 50373.1 0 -3.57775e+06 26575.4 0 -3.5913e+06 2.08616e-07 0 -2.12722e+06 0 0 -2.12876e+06 3594.68 0 -2.13329e+06 7202.47 0 -2.14083e+06 10836.6 0 -2.1514e+06 14510.8 0 -2.16505e+06 18238.9 0 -2.18183e+06 22035.7 0 -2.20179e+06 25916.6 0 -2.22502e+06 29897.7 0 -2.25161e+06 33996.3 0 -2.28166e+06 38230.1 0 -2.31529e+06 42617.6 0 -2.35264e+06 47177.6 0 -2.39386e+06 51928 0 -2.43911e+06 56884.6 0 -2.48858e+06 62058.9 0 -2.54245e+06 67453.9 0 -2.60091e+06 73058.7 0 -2.66413e+06 78839.4 0 -2.73225e+06 84725.6 0 -2.80533e+06 90591.1 0 -2.88332e+06 96226.7 0 -2.96597e+06 101304 0 -3.05269e+06 105331 0 -3.14243e+06 107608 0 -3.23348e+06 107201 0 -3.32321e+06 102967 0 -3.40796e+06 93702.4 0 -3.48292e+06 78446.9 0 -3.54257e+06 56939.3 0 -3.5814e+06 30056.2 0 -3.59518e+06 -3.27826e-07 0 -2.12672e+06 0 0 -2.12825e+06 3993.27 0 -2.13278e+06 8001.1 0 -2.14031e+06 12038.2 0 -2.15088e+06 16119.7 0 -2.16452e+06 20261.1 0 -2.18129e+06 24478.8 0 -2.20124e+06 28789.9 0 -2.22446e+06 33212.3 0 -2.25103e+06 37765.1 0 -2.28106e+06 42468.2 0 -2.31466e+06 47342.1 0 -2.35199e+06 52407.6 0 -2.39318e+06 57684.8 0 -2.4384e+06 63191.5 0 -2.48784e+06 68940.5 0 -2.54168e+06 74935.6 0 -2.60011e+06 81165.3 0 -2.6633e+06 87592.7 0 -2.73141e+06 94140.8 0 -2.80451e+06 100671 0 -2.88256e+06 106954 0 -2.96531e+06 112626 0 -3.05222e+06 117144 0 -3.14227e+06 119733 0 -3.23377e+06 119352 0 -3.32413e+06 114723 0 -3.40966e+06 104489 0 -3.48552e+06 87555.3 0 -3.54603e+06 63603.2 0 -3.58552e+06 33595 0 -3.59954e+06 3.57628e-07 0 -2.12616e+06 0 0 -2.12769e+06 4391.6 0 -2.13222e+06 8799.2 0 -2.13975e+06 13239 0 -2.15031e+06 17727.5 0 -2.16394e+06 22282 0 -2.18069e+06 26920.3 0 -2.20063e+06 31661.3 0 -2.22383e+06 36524.6 0 -2.25038e+06 41531.4 0 -2.28039e+06 46703.3 0 -2.31397e+06 52063.2 0 -2.35126e+06 57633.9 0 -2.39242e+06 63437.6 0 -2.43761e+06 69494 0 -2.48702e+06 75817.6 0 -2.54082e+06 82413.1 0 -2.59922e+06 89268.4 0 -2.66239e+06 96343.8 0 -2.73049e+06 103556 0 -2.80361e+06 110755 0 -2.88171e+06 117691 0 -2.96458e+06 123968 0 -3.0517e+06 128991 0 -3.14208e+06 131910 0 -3.23408e+06 131578 0 -3.32513e+06 126579 0 -3.41154e+06 115396 0 -3.48839e+06 96790.4 0 -3.54987e+06 70377 0 -3.59009e+06 37199.4 0 -3.6044e+06 8.9407e-08 0 -2.12555e+06 0 0 -2.12708e+06 4789.64 0 -2.1316e+06 9596.73 0 -2.13912e+06 14438.9 0 -2.14968e+06 19334.2 0 -2.1633e+06 24301.4 0 -2.18004e+06 29360 0 -2.19996e+06 34530.4 0 -2.22314e+06 39834.4 0 -2.24967e+06 45294.6 0 -2.27965e+06 50935.1 0 -2.31321e+06 56780.5 0 -2.35047e+06 62856 0 -2.3916e+06 69185.9 0 -2.43675e+06 75791.8 0 -2.48611e+06 82690 0 -2.53988e+06 89886 0 -2.59825e+06 97367.4 0 -2.66139e+06 105092 0 -2.72949e+06 112972 0 -2.80262e+06 120844 0 -2.88078e+06 128440 0 -2.96378e+06 135331 0 -3.05112e+06 140875 0 -3.14186e+06 144144 0 -3.23441e+06 143887 0 -3.32622e+06 138546 0 -3.41359e+06 126437 0 -3.49154e+06 106166 0 -3.55409e+06 77273.7 0 -3.59512e+06 40877.4 0 -3.60975e+06 -5.96046e-08 0 -2.12488e+06 0 0 -2.12641e+06 5187.38 0 -2.13093e+06 10393.6 0 -2.13845e+06 15637.9 0 -2.14899e+06 20939.6 0 -2.1626e+06 26319.2 0 -2.17933e+06 31797.7 0 -2.19923e+06 37397.2 0 -2.22239e+06 43141.4 0 -2.2489e+06 49054.7 0 -2.27886e+06 55163.2 0 -2.31238e+06 61493.8 0 -2.34961e+06 68073.6 0 -2.3907e+06 74929.2 0 -2.43581e+06 82084.4 0 -2.48514e+06 89557 0 -2.53886e+06 97353.7 0 -2.59719e+06 105462 0 -2.66031e+06 113838 0 -2.72839e+06 122387 0 -2.80153e+06 130937 0 -2.87976e+06 139201 0 -2.96289e+06 146719 0 -3.05048e+06 152799 0 -3.14162e+06 156441 0 -3.23475e+06 156286 0 -3.32738e+06 150632 0 -3.4158e+06 137623 0 -3.49496e+06 115698 0 -3.5587e+06 84306.6 0 -3.60064e+06 44637.3 0 -3.61562e+06 -1.19209e-07 0 -2.12416e+06 0 0 -2.1257e+06 5584.78 0 -2.13021e+06 11189.9 0 -2.13772e+06 16835.8 0 -2.14825e+06 22543.7 0 -2.16185e+06 28335.2 0 -2.17856e+06 34233.2 0 -2.19845e+06 40261.5 0 -2.22159e+06 46445.3 0 -2.24807e+06 52811.3 0 -2.27799e+06 59387.4 0 -2.31149e+06 66202.6 0 -2.34868e+06 73286.3 0 -2.38973e+06 80667.2 0 -2.4348e+06 88371.3 0 -2.48408e+06 96418.2 0 -2.53776e+06 104816 0 -2.59605e+06 113552 0 -2.65913e+06 122580 0 -2.7272e+06 131802 0 -2.80036e+06 141036 0 -2.87865e+06 149974 0 -2.96193e+06 158131 0 -3.04977e+06 164765 0 -3.14133e+06 168804 0 -3.2351e+06 168782 0 -3.32862e+06 162850 0 -3.41819e+06 148970 0 -3.49866e+06 125400 0 -3.5637e+06 91489.8 0 -3.60664e+06 48488.3 0 -3.62201e+06 1.19209e-07 0 -2.12339e+06 0 0 -2.12492e+06 5981.82 0 -2.12943e+06 11985.4 0 -2.13694e+06 18032.7 0 -2.14746e+06 24146.2 0 -2.16104e+06 30349.3 0 -2.17774e+06 36666.4 0 -2.19761e+06 43123 0 -2.22072e+06 49746.1 0 -2.24718e+06 56564.2 0 -2.27707e+06 63607.3 0 -2.31053e+06 70906.6 0 -2.34768e+06 78493.7 0 -2.38869e+06 86399.5 0 -2.43371e+06 94652.1 0 -2.48294e+06 103273 0 -2.53658e+06 112272 0 -2.59482e+06 121636 0 -2.65787e+06 131319 0 -2.72592e+06 141217 0 -2.7991e+06 151139 0 -2.87746e+06 160762 0 -2.96088e+06 169570 0 -3.049e+06 176777 0 -3.141e+06 181239 0 -3.23545e+06 181383 0 -3.32992e+06 175210 0 -3.42073e+06 160490 0 -3.50264e+06 135289 0 -3.5691e+06 98838 0 -3.61314e+06 52439.8 0 -3.62895e+06 -1.19209e-07 0 -2.12257e+06 0 0 -2.1241e+06 6378.48 0 -2.1286e+06 12780.1 0 -2.1361e+06 19228.3 0 -2.14661e+06 25747.2 0 -2.16018e+06 32361.4 0 -2.17686e+06 39097.1 0 -2.19671e+06 45981.5 0 -2.2198e+06 53043.4 0 -2.24622e+06 60313.1 0 -2.27608e+06 67822.7 0 -2.3095e+06 75605.5 0 -2.34662e+06 83695.4 0 -2.38758e+06 92125.6 0 -2.43255e+06 100926 0 -2.48173e+06 110121 0 -2.53531e+06 119721 0 -2.5935e+06 129715 0 -2.65652e+06 140054 0 -2.72454e+06 150631 0 -2.79774e+06 161247 0 -2.87617e+06 171563 0 -2.95975e+06 181037 0 -3.04816e+06 188837 0 -3.14063e+06 193750 0 -3.2358e+06 194096 0 -3.33129e+06 187722 0 -3.42343e+06 172199 0 -3.5069e+06 145381 0 -3.5749e+06 106367 0 -3.62014e+06 56502.1 0 -3.63644e+06 -5.96046e-08 0 -2.12169e+06 0 0 -2.12322e+06 6774.72 0 -2.12772e+06 13574 0 -2.13521e+06 20422.8 0 -2.14571e+06 27346.4 0 -2.15927e+06 34371.4 0 -2.17592e+06 41525.2 0 -2.19575e+06 48836.9 0 -2.21881e+06 56336.9 0 -2.24521e+06 64057.7 0 -2.27503e+06 72033.3 0 -2.30841e+06 80299 0 -2.34548e+06 88891.1 0 -2.38639e+06 97845.1 0 -2.43131e+06 107194 0 -2.48044e+06 116962 0 -2.53396e+06 127164 0 -2.5921e+06 137788 0 -2.65508e+06 148785 0 -2.72308e+06 160045 0 -2.79629e+06 171360 0 -2.87479e+06 182379 0 -2.95854e+06 192533 0 -3.04724e+06 200948 0 -3.14021e+06 206342 0 -3.23614e+06 206927 0 -3.33272e+06 200396 0 -3.42629e+06 184109 0 -3.51143e+06 155693 0 -3.58111e+06 114093 0 -3.62768e+06 60686.3 0 -3.64451e+06 1.19209e-07 0 -2.12076e+06 0 0 -2.12229e+06 7170.53 0 -2.12678e+06 14367.1 0 -2.13426e+06 21615.9 0 -2.14475e+06 28943.9 0 -2.15829e+06 36379.1 0 -2.17493e+06 43950.5 0 -2.19473e+06 51688.9 0 -2.21777e+06 59626.6 0 -2.24413e+06 67797.8 0 -2.27392e+06 76238.7 0 -2.30726e+06 84986.7 0 -2.34428e+06 94080.3 0 -2.38514e+06 103558 0 -2.43e+06 113453 0 -2.47907e+06 123796 0 -2.53253e+06 134599 0 -2.59062e+06 145854 0 -2.65354e+06 157511 0 -2.72152e+06 169457 0 -2.79474e+06 181479 0 -2.87332e+06 193210 0 -2.95723e+06 204059 0 -3.04625e+06 213112 0 -3.13974e+06 219018 0 -3.23647e+06 219885 0 -3.3342e+06 213244 0 -3.4293e+06 196237 0 -3.51624e+06 166243 0 -3.58774e+06 122033 0 -3.63575e+06 65004.5 0 -3.65317e+06 -5.96046e-08 0 -2.11978e+06 0 0 -2.12131e+06 7565.88 0 -2.1258e+06 15159.2 0 -2.13327e+06 22807.6 0 -2.14374e+06 30539.5 0 -2.15727e+06 38384.3 0 -2.17388e+06 46372.9 0 -2.19366e+06 54537.4 0 -2.21667e+06 62912.1 0 -2.24299e+06 71533.2 0 -2.27274e+06 80438.6 0 -2.30604e+06 89668.2 0 -2.34301e+06 99262.8 0 -2.38381e+06 109263 0 -2.42862e+06 119705 0 -2.47762e+06 130621 0 -2.53102e+06 142026 0 -2.58905e+06 153912 0 -2.65192e+06 166231 0 -2.71987e+06 178867 0 -2.7931e+06 191602 0 -2.87175e+06 204056 0 -2.95584e+06 215616 0 -3.04518e+06 225330 0 -3.13921e+06 231782 0 -3.23678e+06 232975 0 -3.33573e+06 226276 0 -3.43245e+06 208597 0 -3.52133e+06 177049 0 -3.59479e+06 130205 0 -3.64437e+06 69469.6 0 -3.66244e+06 -1.78814e-07 0 -2.11875e+06 0 0 -2.12027e+06 7960.74 0 -2.12475e+06 15950.3 0 -2.13221e+06 23997.8 0 -2.14268e+06 32133 0 -2.15618e+06 40387 0 -2.17278e+06 48792.1 0 -2.19253e+06 57382.2 0 -2.2155e+06 66193.3 0 -2.24179e+06 75263.4 0 -2.2715e+06 84632.8 0 -2.30475e+06 94343.3 0 -2.34167e+06 104438 0 -2.38241e+06 114960 0 -2.42716e+06 125949 0 -2.47609e+06 137437 0 -2.52943e+06 149444 0 -2.58739e+06 161963 0 -2.65021e+06 174946 0 -2.71813e+06 188276 0 -2.79137e+06 201729 0 -2.87008e+06 214917 0 -2.95435e+06 227206 0 -3.04402e+06 237606 0 -3.13862e+06 244639 0 -3.23706e+06 246204 0 -3.3373e+06 239504 0 -3.43574e+06 221206 0 -3.52669e+06 188131 0 -3.60228e+06 138630 0 -3.65356e+06 74096 0 -3.67236e+06 5.96046e-08 0 -2.11766e+06 0 0 -2.11918e+06 8355.09 0 -2.12366e+06 16740.4 0 -2.13111e+06 25186.4 0 -2.14156e+06 33724.5 0 -2.15505e+06 42387 0 -2.17162e+06 51208 0 -2.19134e+06 60223.1 0 -2.21428e+06 69469.9 0 -2.24054e+06 78988.4 0 -2.2702e+06 88820.9 0 -2.3034e+06 99011.5 0 -2.34026e+06 109606 0 -2.38094e+06 120649 0 -2.42562e+06 132183 0 -2.47449e+06 144244 0 -2.52775e+06 156853 0 -2.58564e+06 170006 0 -2.64841e+06 183654 0 -2.71629e+06 197682 0 -2.78953e+06 211861 0 -2.86832e+06 225794 0 -2.95276e+06 238828 0 -3.04277e+06 249940 0 -3.13795e+06 257592 0 -3.23731e+06 259580 0 -3.33889e+06 252937 0 -3.43916e+06 234079 0 -3.53233e+06 199509 0 -3.6102e+06 147327 0 -3.66334e+06 78899.2 0 -3.68294e+06 1.19209e-07 0 -2.11652e+06 0 0 -2.11804e+06 8748.91 0 -2.12251e+06 17529.4 0 -2.12995e+06 26373.4 0 -2.14039e+06 35313.7 0 -2.15385e+06 44384.3 0 -2.1704e+06 53620.5 0 -2.1901e+06 63059.8 0 -2.213e+06 72741.6 0 -2.23922e+06 82707.8 0 -2.26884e+06 93002.7 0 -2.30198e+06 103673 0 -2.33878e+06 114765 0 -2.3794e+06 126329 0 -2.42401e+06 138408 0 -2.4728e+06 151041 0 -2.52599e+06 164253 0 -2.58381e+06 178039 0 -2.64651e+06 192356 0 -2.71436e+06 207085 0 -2.7876e+06 221997 0 -2.86646e+06 236686 0 -2.95107e+06 250484 0 -3.04144e+06 262335 0 -3.13721e+06 270644 0 -3.23752e+06 273107 0 -3.34051e+06 266587 0 -3.4427e+06 247234 0 -3.53824e+06 211205 0 -3.61856e+06 156318 0 -3.67372e+06 83896.6 0 -3.69422e+06 0 0 -2.11533e+06 0 0 -2.11685e+06 9142.16 0 -2.12131e+06 18317.3 0 -2.12874e+06 27558.7 0 -2.13916e+06 36900.7 0 -2.15261e+06 46378.5 0 -2.16913e+06 56029.4 0 -2.18879e+06 65892.2 0 -2.21167e+06 76008.3 0 -2.23784e+06 86421.4 0 -2.26741e+06 97177.8 0 -2.3005e+06 108326 0 -2.33724e+06 119917 0 -2.37779e+06 132000 0 -2.42233e+06 144623 0 -2.47104e+06 157829 0 -2.52415e+06 171642 0 -2.58189e+06 186063 0 -2.64453e+06 201050 0 -2.71233e+06 216485 0 -2.78556e+06 232137 0 -2.86449e+06 247594 0 -2.94929e+06 262174 0 -3.04e+06 274792 0 -3.13639e+06 283799 0 -3.23768e+06 286793 0 -3.34214e+06 280465 0 -3.44637e+06 260686 0 -3.54442e+06 223241 0 -3.62739e+06 165627 0 -3.68473e+06 89107.4 0 -3.70624e+06 1.19209e-07 0 -2.11409e+06 0 0 -2.1156e+06 9534.83 0 -2.12006e+06 19104 0 -2.12748e+06 28742.3 0 -2.13788e+06 38485.2 0 -2.15131e+06 48369.7 0 -2.1678e+06 58434.5 0 -2.18743e+06 68720.2 0 -2.21027e+06 79269.7 0 -2.2364e+06 90128.9 0 -2.26592e+06 101346 0 -2.29895e+06 112972 0 -2.33563e+06 125059 0 -2.37611e+06 137661 0 -2.42057e+06 150828 0 -2.4692e+06 164605 0 -2.52223e+06 179020 0 -2.57989e+06 194077 0 -2.64245e+06 209736 0 -2.7102e+06 225881 0 -2.78343e+06 242279 0 -2.86242e+06 258516 0 -2.94739e+06 273897 0 -3.03846e+06 287312 0 -3.13548e+06 297059 0 -3.23779e+06 300642 0 -3.34377e+06 294581 0 -3.45014e+06 274455 0 -3.55088e+06 235642 0 -3.63667e+06 175278 0 -3.69638e+06 94553 0 -3.71904e+06 -5.96046e-08 0 -2.11279e+06 0 0 -2.1143e+06 9926.9 0 -2.11875e+06 19889.5 0 -2.12616e+06 29924 0 -2.13654e+06 40067.2 0 -2.14995e+06 50357.7 0 -2.16642e+06 60835.7 0 -2.18602e+06 71543.5 0 -2.20881e+06 82525.7 0 -2.23489e+06 93830 0 -2.26436e+06 105507 0 -2.29734e+06 117609 0 -2.33395e+06 130193 0 -2.37436e+06 143313 0 -2.41874e+06 157022 0 -2.46728e+06 171370 0 -2.52022e+06 186387 0 -2.57779e+06 202081 0 -2.64028e+06 218413 0 -2.70798e+06 235272 0 -2.78119e+06 252424 0 -2.86024e+06 269453 0 -2.94539e+06 285655 0 -3.03682e+06 299895 0 -3.13448e+06 310428 0 -3.23782e+06 314662 0 -3.3454e+06 308946 0 -3.45401e+06 288557 0 -3.5576e+06 248431 0 -3.64642e+06 185296 0 -3.70869e+06 100258 0 -3.73265e+06 5.96046e-08 0 -2.11144e+06 0 0 -2.11295e+06 10318.3 0 -2.11739e+06 20673.8 0 -2.12479e+06 31103.7 0 -2.13516e+06 41646.6 0 -2.14854e+06 52342.4 0 -2.16498e+06 63232.9 0 -2.18454e+06 74361.9 0 -2.2073e+06 85775.9 0 -2.23333e+06 97524.5 0 -2.26275e+06 109660 0 -2.29566e+06 122238 0 -2.3322e+06 135317 0 -2.37254e+06 148953 0 -2.41683e+06 163205 0 -2.46529e+06 178122 0 -2.51813e+06 193741 0 -2.57561e+06 210072 0 -2.63802e+06 227081 0 -2.70565e+06 244657 0 -2.77885e+06 262571 0 -2.85795e+06 280405 0 -2.94327e+06 297446 0 -3.03507e+06 312543 0 -3.13337e+06 323906 0 -3.23778e+06 328856 0 -3.347e+06 323570 0 -3.45796e+06 303011 0 -3.56458e+06 261636 0 -3.65666e+06 195708 0 -3.72169e+06 106248 0 -3.74715e+06 -1.19209e-07 0 -2.11004e+06 0 0 -2.11155e+06 10709.1 0 -2.11598e+06 21456.7 0 -2.12336e+06 32281.4 0 -2.13371e+06 43223.3 0 -2.14707e+06 54323.7 0 -2.16349e+06 65625.8 0 -2.18301e+06 77175.2 0 -2.20573e+06 89020.2 0 -2.23171e+06 101212 0 -2.26107e+06 113806 0 -2.29392e+06 126859 0 -2.33039e+06 140431 0 -2.37064e+06 154583 0 -2.41485e+06 169376 0 -2.46321e+06 184863 0 -2.51596e+06 201083 0 -2.57335e+06 218052 0 -2.63566e+06 235738 0 -2.70323e+06 254036 0 -2.7764e+06 272719 0 -2.85555e+06 291369 0 -2.94104e+06 309271 0 -3.0332e+06 325257 0 -3.13215e+06 337496 0 -3.23765e+06 343230 0 -3.34856e+06 338465 0 -3.46199e+06 317837 0 -3.57183e+06 275286 0 -3.66739e+06 206543 0 -3.73538e+06 112556 0 -3.76258e+06 0 0 -2.10859e+06 0 0 -2.11009e+06 11099.2 0 -2.11452e+06 22238.2 0 -2.12189e+06 33457.1 0 -2.13222e+06 44797.2 0 -2.14555e+06 56301.3 0 -2.16194e+06 68014.3 0 -2.18143e+06 79983.3 0 -2.2041e+06 92258.4 0 -2.23003e+06 104893 0 -2.25933e+06 117943 0 -2.29211e+06 131469 0 -2.32851e+06 145534 0 -2.36868e+06 160202 0 -2.41279e+06 175535 0 -2.46106e+06 191590 0 -2.5137e+06 208412 0 -2.57099e+06 226019 0 -2.63322e+06 244384 0 -2.70071e+06 263408 0 -2.77385e+06 282867 0 -2.85304e+06 302346 0 -2.93869e+06 321129 0 -3.0312e+06 338035 0 -3.13082e+06 351201 0 -3.23742e+06 357789 0 -3.35008e+06 353640 0 -3.46608e+06 333053 0 -3.57932e+06 289410 0 -3.67862e+06 217829 0 -3.74979e+06 119217 0 -3.77904e+06 -1.19209e-07 0 -2.10708e+06 0 0 -2.10859e+06 11488.6 0 -2.113e+06 23018.3 0 -2.12036e+06 34630.6 0 -2.13067e+06 46368.1 0 -2.14398e+06 58275.3 0 -2.16033e+06 70398.3 0 -2.17978e+06 82786 0 -2.20241e+06 95490.1 0 -2.22829e+06 108566 0 -2.25753e+06 122072 0 -2.29024e+06 136071 0 -2.32656e+06 150627 0 -2.36664e+06 165809 0 -2.41067e+06 181681 0 -2.45883e+06 198304 0 -2.51137e+06 215727 0 -2.56855e+06 233972 0 -2.63067e+06 253019 0 -2.69809e+06 272772 0 -2.77119e+06 293014 0 -2.85041e+06 313335 0 -2.93622e+06 333019 0 -3.02908e+06 350878 0 -3.12936e+06 365020 0 -3.23709e+06 372535 0 -3.35154e+06 369105 0 -3.47021e+06 348679 0 -3.58706e+06 304042 0 -3.69039e+06 229596 0 -3.76491e+06 126272 0 -3.79662e+06 1.19209e-07 0 -2.10553e+06 0 0 -2.10703e+06 11877.2 0 -2.11144e+06 23797 0 -2.11878e+06 35801.9 0 -2.12907e+06 47936.1 0 -2.14235e+06 60245.4 0 -2.15867e+06 72777.6 0 -2.17808e+06 85583.1 0 -2.20066e+06 98715.3 0 -2.22649e+06 112231 0 -2.25567e+06 126192 0 -2.28831e+06 140662 0 -2.32455e+06 155709 0 -2.36454e+06 171403 0 -2.40846e+06 187813 0 -2.45652e+06 205003 0 -2.50895e+06 223027 0 -2.56602e+06 241911 0 -2.62804e+06 261641 0 -2.69537e+06 282127 0 -2.76842e+06 303160 0 -2.84766e+06 324335 0 -2.93362e+06 344941 0 -3.02683e+06 363786 0 -3.12777e+06 378954 0 -3.23663e+06 387473 0 -3.35291e+06 384869 0 -3.47437e+06 364735 0 -3.59503e+06 319217 0 -3.70269e+06 241873 0 -3.78073e+06 133768 0 -3.81545e+06 -2.38419e-07 0 -2.10392e+06 0 0 -2.10541e+06 12265.1 0 -2.10982e+06 24574.1 0 -2.11714e+06 36971 0 -2.12741e+06 49501 0 -2.14067e+06 62211.6 0 -2.15695e+06 75152.1 0 -2.17633e+06 88374.4 0 -2.19886e+06 101934 0 -2.22463e+06 115889 0 -2.25374e+06 130303 0 -2.28631e+06 145243 0 -2.32247e+06 160780 0 -2.36237e+06 176985 0 -2.40619e+06 193932 0 -2.45414e+06 211688 0 -2.50645e+06 230311 0 -2.5634e+06 249835 0 -2.62531e+06 270249 0 -2.69254e+06 291472 0 -2.76554e+06 313302 0 -2.8448e+06 335344 0 -2.93089e+06 356893 0 -3.02444e+06 376758 0 -3.12603e+06 393005 0 -3.23604e+06 402605 0 -3.35419e+06 400944 0 -3.47855e+06 381240 0 -3.60321e+06 334976 0 -3.71558e+06 254690 0 -3.79724e+06 141765 0 -3.83569e+06 0 0 </DataArray> 
</PointData> 
<Points> 
<DataArray type="Float32" NumberOfComponents="3"> 