<?xml version="1.0"?> 
<VTKFile type="StructuredGrid" version="0.1"> 
<StructuredGrid WholeExtent="0 31 0 31 0 0"> 
<Piece Extent="0 31 0 31 0 0"> 
<PointData>
<DataArray type="Float32" Name="|E|" format="ascii" NumberOfComponents="3"> 
899564 360989 0 869479 347358 0 840819 333836 0 813531 320443 0 787567 307198 0 762881 294114 0 739432 281199 0 717180 268458 0 696086 255893 0 676114 243505 0 657233 231291 0 639409 219248 0 622613 207371 0 606818 195652 0 591996 184083 0 578123 172658 0 565176 161365 0 553133 150195 0 541973 139138 0 531678 128182 0 522230 117315 0 513612 106525 0 505811 95800.9 0 498812 85128.6 0 492603 74495.3 0 487172 63887.7 0 482510 53292.2 0 478607 42694.8 0 475457 32081.4 0 473053 21437.6 0 471390 10748.8 0 470462 0 0 895837 366772 0 865786 352955 0 837162 339247 0 809913 325672 0 783988 312246 0 759344 298981 0 735936 285887 0 713724 272967 0 692669 260225 0 672737 247660 0 653892 235269 0 636104 223048 0 619341 210993 0 603576 199096 0 588783 187350 0 574936 175745 0 562011 164273 0 549987 152923 0 538843 141684 0 528560 130545 0 519120 119493 0 510507 108518 0 502707 97606 0 495704 86744 0 489486 75918.9 0 484042 65117.1 0 479363 54324.7 0 475438 43527.5 0 472260 32711.3 0 469823 21861.3 0 468121 10962.6 0 467149 0 0 892053 372533 0 862036 358528 0 833449 344636 0 806238 330877 0 780355 317269 0 755751 303825 0 732384 290552 0 710212 277454 0 689197 264534 0 669304 251791 0 650496 239223 0 632743 226826 0 616014 214594 0 600280 202520 0 585514 190596 0 571692 178813 0 558789 167162 0 546784 155632 0 535655 144212 0 525384 132891 0 515953 121657 0 507344 110497 0 499543 99398.2 0 492536 88347.8 0 486309 77332 0 480852 66337.3 0 476154 55349.4 0 472205 44353.9 0 468999 33336.3 0 466528 22281.6 0 464786 11174.7 0 463769 0 0 888212 378272 0 858229 364079 0 829680 350001 0 802508 336059 0 776665 322269 0 752102 308645 0 728776 295192 0 706645 281917 0 685671 268819 0 665815 255900 0 647045 243155 0 629327 230582 0 612631 218173 0 596927 205922 0 582190 193822 0 568392 181862 0 555512 170032 0 543525 158324 0 532412 146724 0 522152 135222 0 512728 123805 0 504123 112462 0 496321 101177 0 489309 89939.7 0 483072 78734.6 0 477601 67548.2 0 472883 56366.2 0 468910 45173.9 0 465674 33956.4 0 463168 22698.6 0 461385 11385.1 0 460321 0 0 884312 383988 0 854365 369606 0 825853 355342 0 798722 341216 0 772919 327245 0 748398 313440 0 725114 299809 0 703024 286355 0 682089 273081 0 662273 259985 0 643539 247064 0 625856 234315 0 609193 221730 0 593520 209304 0 578810 197027 0 565038 184890 0 552179 172883 0 540210 160997 0 529111 149218 0 518863 137536 0 509446 125938 0 500844 114412 0 493041 102943 0 486023 91519.6 0 479776 80126.5 0 474289 68749.8 0 469551 57375 0 465553 45987.2 0 462286 34571.4 0 459743 23112.2 0 457918 11593.7 0 456806 0 0 880355 389681 0 850443 375109 0 821971 360658 0 794880 346349 0 769118 332196 0 744639 318211 0 721396 304401 0 699348 290770 0 678453 277318 0 658675 264046 0 639979 250950 0 622331 238025 0 605701 225265 0 590058 212663 0 575376 200211 0 561628 187898 0 548790 175715 0 536840 163651 0 525755 151695 0 515517 139834 0 506107 128056 0 497507 116348 0 489702 104696 0 482678 93087.3 0 476420 81507.4 0 470918 69941.7 0 466159 58375.6 0 462134 46793.9 0 458836 35181.3 0 456255 23522.2 0 454387 11800.5 0 453226 0 0 876340 395349 0 846465 380587 0 818032 365950 0 790981 351456 0 765262 337121 0 740825 322956 0 717624 308968 0 695616 295159 0 674762 281531 0 655023 268083 0 636364 254812 0 618752 241712 0 602154 228777 0 586541 216001 0 571886 203373 0 558163 190885 0 545346 178527 0 533414 166287 0 522343 154153 0 512116 142114 0 502711 130157 0 494114 118268 0 486307 106435 0 479275 94642.7 0 473006 82877.2 0 467486 71123.9 0 462706 59367.9 0 458654 47593.8 0 455323 35786 0 452704 23928.7 0 450791 12005.5 0 449579 0 0 872267 400992 0 842430 386041 0 814036 371216 0 787027 356538 0 761350 342021 0 736956 327676 0 713797 313509 0 691831 299523 0 671017 285719 0 651317 272095 0 632695 258649 0 615118 245375 0 598553 232267 0 582970 219316 0 568343 206514 0 554644 193852 0 541848 181319 0 529933 168903 0 518876 156593 0 508658 144377 0 499260 132242 0 490664 120174 0 482854 108160 0 475814 96185.4 0 469533 84235.7 0 463996 72296.3 0 459193 60351.8 0 455113 48386.8 0 451748 36385.4 0 449089 24331.6 0 447131 12208.7 0 445867 0 0 868136 406610 0 838338 391468 0 809985 376456 0 783018 361594 0 757383 346895 0 733031 332370 0 709915 318024 0 687991 303861 0 667218 289881 0 647557 276083 0 628973 262462 0 611430 249014 0 594898 235732 0 579346 222608 0 564745 209633 0 551070 196797 0 538295 184090 0 526397 171500 0 515354 159015 0 505145 146623 0 495752 134311 0 487157 122065 0 479344 109871 0 472296 97715.4 0 466002 85582.9 0 460447 73458.6 0 455620 61327.2 0 451511 49172.8 0 448112 36979.5 0 445413 24730.8 0 443408 12410 0 442090 0 0 863947 412202 0 834189 396869 0 805877 381669 0 778952 366622 0 753361 351742 0 729053 337036 0 705980 322513 0 684097 308173 0 663365 294018 0 643744 280045 0 625196 266250 0 607689 252629 0 591189 239174 0 575667 225877 0 561094 212730 0 547442 199721 0 534688 186841 0 522806 174077 0 511777 161418 0 501577 148851 0 492189 136363 0 483595 123940 0 475777 111568 0 468721 99232.5 0 462413 86918.4 0 456839 74610.8 0 451988 62293.8 0 447850 49951.7 0 444414 37568.1 0 441674 25126.3 0 439621 12609.4 0 438249 0 0 859702 417767 0 829983 402243 0 801713 386856 0 774832 371624 0 749284 356561 0 725020 341676 0 701990 326974 0 680150 312458 0 659458 298128 0 639876 283981 0 621366 270013 0 603894 256219 0 587427 242592 0 571935 229123 0 557388 215804 0 543761 202623 0 531027 189571 0 519162 176634 0 508145 163802 0 497954 151062 0 488571 138399 0 479977 125800 0 472155 113251 0 465089 100736 0 458767 88242.2 0 453173 75752.6 0 448297 63251.7 0 444128 50723.4 0 440657 38151.1 0 437873 25518 0 435772 12806.8 0 434345 0 0 855398 423306 0 825720 407589 0 797493 392014 0 770656 376598 0 745153 361353 0 720932 346288 0 697946 331409 0 676149 316717 0 655498 302211 0 635956 287891 0 617483 273750 0 600047 259784 0 583612 245985 0 568150 232345 0 553630 218855 0 540026 205503 0 527312 192279 0 515464 179171 0 504459 166167 0 494277 153253 0 484898 140417 0 476303 127643 0 468476 114918 0 461401 102227 0 455064 89554.1 0 449450 76884 0 444549 64200.7 0 440348 51487.8 0 436839 38728.6 0 434012 25905.9 0 431860 13002.3 0 430377 0 0 851037 428816 0 821401 412908 0 793218 397145 0 766425 381544 0 740967 366117 0 716791 350873 0 693848 335816 0 672094 320947 0 651485 306268 0 631982 291774 0 613548 277461 0 596146 263324 0 579744 249354 0 564312 235543 0 549819 221882 0 536238 208360 0 523544 194966 0 511712 181688 0 500720 168512 0 490546 155427 0 481171 142418 0 472575 129471 0 464743 116571 0 457657 103704 0 451304 90853.9 0 445670 78004.9 0 440742 65140.7 0 436509 52244.8 0 432962 39300.3 0 430090 26289.9 0 427887 13195.8 0 426346 0 0 846619 434298 0 817026 418198 0 788887 402247 0 762139 386461 0 736726 370852 0 712595 355429 0 689697 340194 0 667986 325151 0 647419 310297 0 627956 295630 0 609559 281146 0 592193 266838 0 575824 252698 0 560421 238717 0 545955 224886 0 532398 211195 0 519723 197631 0 507908 184183 0 496927 170838 0 486761 157582 0 477389 144401 0 468793 131282 0 460954 118209 0 453858 105168 0 447489 92141.5 0 441833 79114.9 0 436877 66071.5 0 432612 52994.3 0 429025 39866.4 0 426108 26670 0 423853 13387.3 0 422253 0 0 842144 439751 0 812595 423459 0 784501 407319 0 757799 391349 0 732432 375558 0 708346 359955 0 685493 344544 0 663825 329325 0 643300 314298 0 623877 299459 0 605518 284804 0 588187 270325 0 571851 256016 0 556478 241866 0 542039 227867 0 528505 214007 0 515850 200274 0 504050 186658 0 493082 173143 0 482923 159718 0 473554 146367 0 464956 133077 0 457111 119832 0 450004 106617 0 443618 93416.7 0 437939 80214.1 0 432956 66993 0 428657 53736.2 0 425030 40426.5 0 422067 27046.1 0 419759 13576.8 0 418099 0 0 837612 445174 0 808107 428689 0 780060 412362 0 753404 396207 0 728083 380235 0 704044 364453 0 681236 348865 0 659612 333472 0 639129 318271 0 619746 303261 0 601425 288435 0 584130 273786 0 567827 259308 0 552484 244990 0 538071 230823 0 524560 216795 0 511925 202895 0 500140 189111 0 489183 175428 0 479032 161834 0 469666 148315 0 461066 134855 0 453214 121439 0 446095 108053 0 439691 94679.3 0 433990 81302.3 0 428979 67905.1 0 424645 54470.4 0 420977 40980.8 0 417967 27418.1 0 415605 13764.1 0 413883 0 0 833023 450567 0 803564 433890 0 775563 417374 0 748955 401034 0 723681 384881 0 699688 368921 0 676926 353156 0 655346 337589 0 634906 322216 0 615563 307034 0 597281 292038 0 580021 277221 0 563751 262574 0 548437 248089 0 534051 233754 0 520563 219560 0 507947 205493 0 496178 191542 0 485233 177693 0 475088 163931 0 465725 150244 0 457123 136616 0 449264 123031 0 442132 109474 0 435710 95929.1 0 429986 82379.3 0 424945 68807.6 0 420576 55196.8 0 416867 41529 0 413808 27786.1 0 411391 13949.4 0 409607 0 0 828377 455930 0 798965 439060 0 771012 422355 0 744452 405831 0 719226 389497 0 695280 373358 0 672563 357418 0 651028 341676 0 630630 326131 0 611329 310779 0 593085 295613 0 575861 280628 0 559623 265814 0 544340 251162 0 529980 236661 0 516515 222301 0 503919 208068 0 492165 193951 0 481230 179936 0 471093 166009 0 461731 152155 0 453126 138359 0 445260 124607 0 438115 110881 0 431675 97166.1 0 425927 83445 0 420856 69700.6 0 416451 55915.3 0 412699 42071.2 0 409591 28149.9 0 407118 14132.6 0 405271 0 0 823675 461260 0 794311 444198 0 766406 427305 0 739895 410597 0 714717 394082 0 690819 377765 0 668148 361649 0 646658 345734 0 626304 330017 0 607043 314494 0 588838 299160 0 571650 284007 0 555445 269026 0 540192 254208 0 525858 239543 0 512416 225017 0 499839 210620 0 488100 196339 0 477176 182159 0 467045 168067 0 457686 154047 0 449078 140086 0 441203 126167 0 434045 112274 0 427586 98390.1 0 421813 84499.2 0 416712 70583.7 0 412270 56625.8 0 408475 42607.3 0 405317 28509.5 0 402787 14313.6 0 400876 0 0 818917 466559 0 789602 449304 0 761746 432223 0 735284 415331 0 710155 398635 0 686305 382140 0 663682 365849 0 642237 349761 0 621926 333873 0 602707 318181 0 584540 302679 0 567388 287359 0 551216 272212 0 535993 257229 0 521686 242399 0 508267 227709 0 495708 213149 0 483984 198703 0 473071 184360 0 462947 170104 0 453588 155921 0 444977 141795 0 437094 127710 0 429922 113651 0 423444 99600.8 0 417646 85541.9 0 412514 71457 0 408034 57328.2 0 404195 43137.1 0 400987 28864.9 0 398399 14492.4 0 396422 0 0 814102 471825 0 784837 454377 0 757032 437109 0 730620 420033 0 705541 403156 0 681739 386484 0 659163 370018 0 637764 353757 0 617497 337699 0 598319 321838 0 580191 306168 0 563075 290682 0 546937 275370 0 531743 260223 0 517463 245229 0 504067 230377 0 491527 215653 0 479818 201045 0 468916 186540 0 458797 172121 0 449440 157775 0 440825 143486 0 432933 129238 0 425747 115014 0 419249 100798 0 413425 86572.9 0 408261 72320.3 0 403743 58022.4 0 399860 43660.6 0 396600 29216 0 393953 14669.1 0 391910 0 0 809232 477057 0 780018 459417 0 752264 441961 0 725903 424701 0 700874 407645 0 677122 390796 0 654594 374155 0 633241 357722 0 613017 341494 0 593881 325465 0 575792 309629 0 558713 293977 0 542608 278501 0 527445 263190 0 513191 248033 0 499817 233019 0 487296 218134 0 475602 203365 0 464710 188697 0 454597 174118 0 445241 159610 0 436622 145159 0 428721 130748 0 421520 116362 0 415002 101982 0 409152 87592 0 403955 73173.5 0 399398 58708.3 0 395470 44177.8 0 392157 29562.7 0 389451 14843.5 0 387341 0 0 804307 482256 0 775145 464424 0 747443 446780 0 721133 429337 0 696156 412100 0 672453 395075 0 649973 378260 0 628666 361656 0 608488 345258 0 589394 329061 0 571344 313059 0 554301 297243 0 538230 281603 0 523096 266130 0 508869 250811 0 495518 235636 0 483016 220590 0 471336 205660 0 460454 190833 0 450347 176093 0 440992 161425 0 432368 146814 0 424458 132242 0 417242 117694 0 410703 103152 0 404826 88599.1 0 399596 74016.4 0 395000 59385.9 0 391025 44688.5 0 387659 29905 0 384893 15015.6 0 382715 0 0 799326 487420 0 770217 469395 0 742568 451565 0 716311 433938 0 691385 416523 0 667733 399321 0 645302 382333 0 624042 365558 0 603908 348991 0 584856 332627 0 566846 316459 0 549840 300479 0 533802 284677 0 518699 269042 0 504498 253562 0 491170 238227 0 478686 223021 0 467021 207933 0 456149 192946 0 446047 178048 0 436693 163221 0 428065 148450 0 420144 133719 0 412912 119011 0 406352 104309 0 400448 89594.1 0 395185 74849 0 390549 60054.9 0 386527 45192.7 0 383107 30242.9 0 380279 15185.5 0 378033 0 0 794291 492549 0 765236 474332 0 737641 456315 0 711437 438506 0 686563 420911 0 662962 403533 0 640580 386372 0 619367 369427 0 599278 352692 0 580269 336162 0 562299 319829 0 545330 303686 0 529326 287722 0 514252 271926 0 500078 256287 0 486773 240792 0 474308 225428 0 462658 210181 0 451796 195037 0 441698 179981 0 432344 164997 0 423711 150068 0 415780 135179 0 408533 120313 0 401951 105451 0 396019 90576.9 0 390722 75671.2 0 386045 60715.4 0 381976 45690.4 0 378501 30576.3 0 375611 15353 0 373295 0 0 789201 497642 0 760201 479234 0 732661 461030 0 706511 443038 0 681690 425265 0 658140 407712 0 635808 390379 0 614643 373263 0 594600 356360 0 575634 339665 0 557704 323169 0 540771 306863 0 524801 290738 0 509758 274782 0 495610 258984 0 482328 243331 0 469882 227809 0 458245 212406 0 447393 197105 0 437301 181893 0 427947 166752 0 419309 151667 0 411367 136622 0 404104 121599 0 397500 106580 0 391540 91547.3 0 386208 76482.8 0 381490 61367.3 0 377372 46181.3 0 373842 30905.1 0 370889 15518.3 0 368502 0 0 784056 502699 0 755113 484099 0 727628 465709 0 701533 447535 0 676766 429584 0 653268 411856 0 630987 394351 0 609870 377066 0 589872 359997 0 570949 343136 0 553060 326477 0 536165 310009 0 520228 293724 0 505216 277609 0 491095 261653 0 477835 245843 0 465407 230166 0 453785 214606 0 442943 199150 0 432855 183782 0 423501 168487 0 414857 153247 0 406905 138047 0 399625 122868 0 392999 107694 0 387010 92505.2 0 381643 77283.7 0 376883 62010.4 0 372716 46665.6 0 369131 31229.4 0 366114 15681.2 0 363655 0 0 778858 507719 0 749972 488928 0 722544 470352 0 696505 451996 0 671792 433867 0 648347 415965 0 626116 398289 0 605048 380835 0 585096 363600 0 566217 346575 0 548368 329753 0 531510 313125 0 515608 296680 0 500626 280408 0 486532 264295 0 473295 248329 0 460886 232496 0 449278 216782 0 438444 201172 0 428362 185650 0 419007 170201 0 410358 154808 0 402395 139454 0 395097 124122 0 388448 108794 0 382430 93450.4 0 377028 78073.9 0 372225 62644.6 0 368009 47143.1 0 364367 31549 0 361286 15841.7 0 358755 0 0 773606 512701 0 744778 493720 0 717408 474958 0 691425 456421 0 666767 438115 0 643376 420039 0 621196 402192 0 600177 384571 0 580272 367169 0 561436 349981 0 543628 332998 0 526808 316210 0 510940 299607 0 495989 283177 0 481922 266908 0 468707 250787 0 456317 234800 0 444723 218933 0 433899 203170 0 423821 187496 0 414466 171895 0 405811 156350 0 397836 140844 0 390522 125360 0 383849 109879 0 377802 94382.9 0 372363 78853.1 0 367518 63270 0 363252 47613.7 0 359552 31863.9 0 356406 15999.8 0 353801 0 0 768301 517645 0 739532 498474 0 712221 479526 0 686295 460810 0 661693 442327 0 638355 424077 0 616227 406060 0 595258 388272 0 575400 370705 0 556609 353355 0 538842 336211 0 522060 319264 0 506226 302503 0 491305 285917 0 477265 269493 0 464073 253218 0 451702 237078 0 440122 221059 0 429307 205144 0 419234 189319 0 409878 173567 0 401217 157872 0 393230 142216 0 385898 126581 0 379202 110949 0 373125 95302.5 0 367649 79621.4 0 362761 63886.3 0 358444 48077.4 0 354686 32174.1 0 351474 16155.4 0 348796 0 0 762944 522550 0 734235 503190 0 706983 484057 0 681115 465161 0 656570 446501 0 633286 428080 0 611211 409893 0 590292 391938 0 570481 374207 0 551734 356695 0 534008 339391 0 517264 322285 0 501465 305368 0 486576 288627 0 472562 272050 0 459394 255622 0 447040 239330 0 435474 223159 0 424669 207095 0 414600 191120 0 405243 175219 0 396576 159374 0 388577 143569 0 381227 127785 0 374507 112005 0 368400 96209.1 0 362887 80378.5 0 357955 64493.5 0 353587 48534.1 0 349771 32479.5 0 346492 16308.7 0 343739 0 0 757535 527414 0 728885 507867 0 701694 488550 0 675886 469474 0 651397 450639 0 628169 432045 0 606146 413690 0 585278 395569 0 565515 377675 0 546812 360001 0 529128 342538 0 512423 325275 0 496659 308203 0 481800 291307 0 467814 274577 0 454668 257997 0 442333 241555 0 430781 225235 0 419986 209021 0 409920 192898 0 400562 176849 0 391889 160857 0 383878 144904 0 376510 128973 0 369766 113046 0 363627 97102.6 0 358078 81124.5 0 353101 65091.6 0 348681 48983.7 0 344805 32780.1 0 341460 16459.4 0 338632 0 0 </DataArray> 
</PointData> 
<Points> 
<DataArray type="Float32" NumberOfComponents="3"> 