<?xml version="1.0"?> 
<VTKFile type="StructuredGrid" version="0.1"> 
<StructuredGrid WholeExtent="0 31 0 31 0 0"> 
<Piece Extent="0 31 0 31 0 0"> 
<PointData>
<DataArray type="Float32" Name="|E|" format="ascii" NumberOfComponents="3"> 
-1.6723e+06 1.58536e+06 0 -1.7057e+06 1.6132e+06 0 -1.74025e+06 1.63843e+06 0 -1.77574e+06 1.66055e+06 0 -1.81176e+06 1.6791e+06 0 -1.84778e+06 1.6937e+06 0 -1.88321e+06 1.70412e+06 0 -1.9174e+06 1.71025e+06 0 -1.94972e+06 1.71222e+06 0 -1.97959e+06 1.71033e+06 0 -2.00658e+06 1.70506e+06 0 -2.03039e+06 1.69704e+06 0 -2.05089e+06 1.68698e+06 0 -2.06808e+06 1.67567e+06 0 -2.08207e+06 1.6639e+06 0 -2.09294e+06 1.65249e+06 0 -2.10072e+06 1.64225e+06 0 -2.10521e+06 1.63401e+06 0 -2.10581e+06 1.62855e+06 0 -2.10138e+06 1.6265e+06 0 -2.08995e+06 1.62808e+06 0 -2.06861e+06 1.63256e+06 0 -2.03361e+06 1.6374e+06 0 -1.98136e+06 1.63697e+06 0 -1.91069e+06 1.62182e+06 0 -1.82641e+06 1.57965e+06 0 -1.74182e+06 1.49883e+06 0 -1.67806e+06 1.37109e+06 0 -1.6589e+06 1.1861e+06 0 -1.69574e+06 922280 0 -1.77881e+06 535638 0 -1.78736e+06 -1.43051e-06 0 -1.66658e+06 1.6069e+06 0 -1.70159e+06 1.6343e+06 0 -1.73788e+06 1.65884e+06 0 -1.77513e+06 1.67999e+06 0 -1.81286e+06 1.69731e+06 0 -1.85049e+06 1.7104e+06 0 -1.88734e+06 1.71908e+06 0 -1.9227e+06 1.7233e+06 0 -1.95589e+06 1.72326e+06 0 -1.98631e+06 1.71937e+06 0 -2.01351e+06 1.7122e+06 0 -2.03725e+06 1.70245e+06 0 -2.05741e+06 1.69089e+06 0 -2.07405e+06 1.67833e+06 0 -2.08729e+06 1.66556e+06 0 -2.09727e+06 1.65335e+06 0 -2.104e+06 1.64248e+06 0 -2.10729e+06 1.63364e+06 0 -2.10656e+06 1.6275e+06 0 -2.10069e+06 1.62452e+06 0 -2.08784e+06 1.62468e+06 0 -2.06534e+06 1.62707e+06 0 -2.02994e+06 1.62899e+06 0 -1.97873e+06 1.62507e+06 0 -1.91126e+06 1.60664e+06 0 -1.8325e+06 1.56287e+06 0 -1.75506e+06 1.48366e+06 0 -1.69903e+06 1.36145e+06 0 -1.68868e+06 1.18503e+06 0 -1.73508e+06 930326 0 -1.83366e+06 549027 0 -1.85533e+06 -67.0897 0 -1.66115e+06 1.62912e+06 0 -1.69793e+06 1.65604e+06 0 -1.73608e+06 1.67983e+06 0 -1.77519e+06 1.69995e+06 0 -1.81473e+06 1.71592e+06 0 -1.85403e+06 1.72739e+06 0 -1.89232e+06 1.73418e+06 0 -1.92882e+06 1.73635e+06 0 -1.96281e+06 1.73419e+06 0 -1.99367e+06 1.7282e+06 0 -2.02098e+06 1.71906e+06 0 -2.0445e+06 1.70754e+06 0 -2.0642e+06 1.69446e+06 0 -2.08018e+06 1.68065e+06 0 -2.09259e+06 1.66687e+06 0 -2.10161e+06 1.65388e+06 0 -2.10726e+06 1.64235e+06 0 -2.10936e+06 1.6329e+06 0 -2.10734e+06 1.62606e+06 0 -2.10014e+06 1.62212e+06 0 -2.08603e+06 1.6209e+06 0 -2.06259e+06 1.62128e+06 0 -2.02699e+06 1.62055e+06 0 -1.97694e+06 1.61354e+06 0 -1.91251e+06 1.59238e+06 0 -1.83874e+06 1.54751e+06 0 -1.76766e+06 1.47012e+06 0 -1.71849e+06 1.35338e+06 0 -1.71637e+06 1.18535e+06 0 -1.77175e+06 939494 0 -1.88586e+06 564128 0 -1.9232e+06 -147.121 0 -1.65607e+06 1.65206e+06 0 -1.69475e+06 1.67847e+06 0 -1.73488e+06 1.70147e+06 0 -1.77598e+06 1.72046e+06 0 -1.81742e+06 1.73496e+06 0 -1.85844e+06 1.74465e+06 0 -1.89818e+06 1.74941e+06 0 -1.93579e+06 1.74938e+06 0 -1.97049e+06 1.74496e+06 0 -2.00168e+06 1.73677e+06 0 -2.02896e+06 1.72559e+06 0 -2.05215e+06 1.71227e+06 0 -2.07126e+06 1.69766e+06 0 -2.08647e+06 1.6826e+06 0 -2.09797e+06 1.66783e+06 0 -2.10597e+06 1.65405e+06 0 -2.11052e+06 1.64187e+06 0 -2.11143e+06 1.6318e+06 0 -2.10818e+06 1.62424e+06 0 -2.09974e+06 1.61935e+06 0 -2.08451e+06 1.61678e+06 0 -2.06031e+06 1.61528e+06 0 -2.0247e+06 1.61212e+06 0 -1.97586e+06 1.60241e+06 0 -1.91429e+06 1.57899e+06 0 -1.84505e+06 1.53341e+06 0 -1.7796e+06 1.458e+06 0 -1.73649e+06 1.34667e+06 0 -1.74211e+06 1.18689e+06 0 -1.80585e+06 949558 0 -1.93523e+06 580869 0 -1.99122e+06 -242.434 0 -1.65134e+06 1.6758e+06 0 -1.69207e+06 1.70167e+06 0 -1.73433e+06 1.7238e+06 0 -1.77754e+06 1.74156e+06 0 -1.82098e+06 1.75446e+06 0 -1.86377e+06 1.7622e+06 0 -1.90497e+06 1.76475e+06 0 -1.94363e+06 1.76236e+06 0 -1.97896e+06 1.75554e+06 0 -2.01035e+06 1.74505e+06 0 -2.03746e+06 1.73176e+06 0 -2.06017e+06 1.7166e+06 0 -2.07857e+06 1.70046e+06 0 -2.0929e+06 1.68417e+06 0 -2.10341e+06 1.66843e+06 0 -2.11034e+06 1.65388e+06 0 -2.11376e+06 1.64104e+06 0 -2.11351e+06 1.63035e+06 0 -2.10908e+06 1.62209e+06 0 -2.0995e+06 1.61625e+06 0 -2.08328e+06 1.61238e+06 0 -2.05848e+06 1.60912e+06 0 -2.02298e+06 1.60376e+06 0 -1.97538e+06 1.59169e+06 0 -1.91651e+06 1.56641e+06 0 -1.85134e+06 1.52044e+06 0 -1.79086e+06 1.44715e+06 0 -1.75307e+06 1.34116e+06 0 -1.76598e+06 1.18952e+06 0 -1.83752e+06 960302 0 -1.98156e+06 599154 0 -2.05961e+06 -355.994 0 -1.64698e+06 1.70041e+06 0 -1.68994e+06 1.72571e+06 0 -1.73448e+06 1.74689e+06 0 -1.77994e+06 1.76329e+06 0 -1.82549e+06 1.77443e+06 0 -1.87011e+06 1.78004e+06 0 -1.91274e+06 1.78019e+06 0 -1.9524e+06 1.77525e+06 0 -1.98824e+06 1.76589e+06 0 -2.01969e+06 1.75299e+06 0 -2.04647e+06 1.73754e+06 0 -2.06855e+06 1.72052e+06 0 -2.08611e+06 1.70285e+06 0 -2.09946e+06 1.68534e+06 0 -2.10891e+06 1.66865e+06 0 -2.11473e+06 1.65335e+06 0 -2.11701e+06 1.63989e+06 0 -2.11562e+06 1.62858e+06 0 -2.11005e+06 1.61961e+06 0 -2.09942e+06 1.61286e+06 0 -2.08234e+06 1.60774e+06 0 -2.05707e+06 1.60285e+06 0 -2.02178e+06 1.5955e+06 0 -1.97542e+06 1.58139e+06 0 -1.91905e+06 1.55459e+06 0 -1.85754e+06 1.5085e+06 0 -1.80146e+06 1.43741e+06 0 -1.76828e+06 1.33668e+06 0 -1.78811e+06 1.19309e+06 0 -1.86689e+06 971508 0 -2.02461e+06 618835 0 -2.12854e+06 -491.593 0 -1.64302e+06 1.72599e+06 0 -1.68837e+06 1.75067e+06 0 -1.73538e+06 1.77081e+06 0 -1.78326e+06 1.78572e+06 0 -1.83102e+06 1.7949e+06 0 -1.87751e+06 1.79817e+06 0 -1.92157e+06 1.79569e+06 0 -1.96212e+06 1.78801e+06 0 -1.99834e+06 1.77595e+06 0 -2.02969e+06 1.76054e+06 0 -2.05598e+06 1.74287e+06 0 -2.07728e+06 1.72398e+06 0 -2.09387e+06 1.70481e+06 0 -2.10614e+06 1.6861e+06 0 -2.11446e+06 1.6685e+06 0 -2.11913e+06 1.65248e+06 0 -2.12026e+06 1.63841e+06 0 -2.11774e+06 1.62651e+06 0 -2.11111e+06 1.61685e+06 0 -2.0995e+06 1.60921e+06 0 -2.08167e+06 1.60292e+06 0 -2.05604e+06 1.59651e+06 0 -2.02105e+06 1.58739e+06 0 -1.9759e+06 1.5715e+06 0 -1.92184e+06 1.54348e+06 0 -1.86361e+06 1.49748e+06 0 -1.81138e+06 1.42864e+06 0 -1.78217e+06 1.33308e+06 0 -1.80857e+06 1.1975e+06 0 -1.89413e+06 982963 0 -2.06416e+06 639714 0 -2.19815e+06 -654.132 0 -1.63946e+06 1.75264e+06 0 -1.68742e+06 1.77665e+06 0 -1.73711e+06 1.79565e+06 0 -1.78757e+06 1.80888e+06 0 -1.83765e+06 1.81589e+06 0 -1.88606e+06 1.81656e+06 0 -1.93151e+06 1.81122e+06 0 -1.97285e+06 1.80058e+06 0 -2.00928e+06 1.78567e+06 0 -2.04035e+06 1.76765e+06 0 -2.06597e+06 1.74772e+06 0 -2.08633e+06 1.72697e+06 0 -2.10183e+06 1.7063e+06 0 -2.11292e+06 1.68645e+06 0 -2.12004e+06 1.66797e+06 0 -2.12353e+06 1.65127e+06 0 -2.12352e+06 1.63661e+06 0 -2.1199e+06 1.62414e+06 0 -2.11224e+06 1.61382e+06 0 -2.09975e+06 1.60534e+06 0 -2.08126e+06 1.59795e+06 0 -2.05536e+06 1.59015e+06 0 -2.02071e+06 1.57943e+06 0 -1.97674e+06 1.56201e+06 0 -1.9248e+06 1.53302e+06 0 -1.8695e+06 1.48729e+06 0 -1.82065e+06 1.42073e+06 0 -1.79479e+06 1.33024e+06 0 -1.82745e+06 1.20263e+06 0 -1.91946e+06 994468 0 -2.09996e+06 661535 0 -2.26847e+06 -850.019 0 -1.63633e+06 1.78047e+06 0 -1.68715e+06 1.80376e+06 0 -1.73973e+06 1.82147e+06 0 -1.79297e+06 1.83284e+06 0 -1.8455e+06 1.83741e+06 0 -1.89586e+06 1.83521e+06 0 -1.94263e+06 1.82673e+06 0 -1.98463e+06 1.81292e+06 0 -2.02109e+06 1.79499e+06 0 -2.05168e+06 1.77427e+06 0 -2.07643e+06 1.75206e+06 0 -2.09569e+06 1.72945e+06 0 -2.10996e+06 1.70733e+06 0 -2.11978e+06 1.68638e+06 0 -2.12565e+06 1.66707e+06 0 -2.12793e+06 1.64973e+06 0 -2.12678e+06 1.63452e+06 0 -2.12209e+06 1.6215e+06 0 -2.11346e+06 1.61055e+06 0 -2.10015e+06 1.60128e+06 0 -2.08109e+06 1.59285e+06 0 -2.055e+06 1.58378e+06 0 -2.02073e+06 1.57164e+06 0 -1.97788e+06 1.55291e+06 0 -1.92789e+06 1.52316e+06 0 -1.87518e+06 1.47783e+06 0 -1.82926e+06 1.41356e+06 0 -1.80621e+06 1.32803e+06 0 -1.84484e+06 1.20839e+06 0 -1.94306e+06 1.00584e+06 0 -2.13184e+06 683982 0 -2.33944e+06 -1087.77 0 -1.63366e+06 1.80961e+06 0 -1.68761e+06 1.83211e+06 0 -1.74336e+06 1.8484e+06 0 -1.79957e+06 1.85765e+06 0 -1.85468e+06 1.85949e+06 0 -1.90701e+06 1.85409e+06 0 -1.95501e+06 1.84218e+06 0 -1.9975e+06 1.82495e+06 0 -2.03378e+06 1.80384e+06 0 -2.06366e+06 1.78035e+06 0 -2.08735e+06 1.75582e+06 0 -2.10533e+06 1.73139e+06 0 -2.11824e+06 1.70787e+06 0 -2.12671e+06 1.68588e+06 0 -2.13128e+06 1.6658e+06 0 -2.13233e+06 1.64786e+06 0 -2.13004e+06 1.63214e+06 0 -2.12431e+06 1.61862e+06 0 -2.11477e+06 1.60707e+06 0 -2.10071e+06 1.59705e+06 0 -2.08114e+06 1.58767e+06 0 -2.05492e+06 1.57745e+06 0 -2.02105e+06 1.56404e+06 0 -1.97927e+06 1.54418e+06 0 -1.93105e+06 1.51386e+06 0 -1.88064e+06 1.46904e+06 0 -1.83725e+06 1.40704e+06 0 -1.81647e+06 1.32636e+06 0 -1.86082e+06 1.21469e+06 0 -1.96516e+06 1.01693e+06 0 -2.15967e+06 706678 0 -2.41086e+06 -1378.94 0 -1.63149e+06 1.84023e+06 0 -1.68888e+06 1.86186e+06 0 -1.74809e+06 1.87652e+06 0 -1.80753e+06 1.88337e+06 0 -1.86534e+06 1.88213e+06 0 -1.91962e+06 1.87316e+06 0 -1.96873e+06 1.85749e+06 0 -2.0115e+06 1.83659e+06 0 -2.04736e+06 1.81215e+06 0 -2.07628e+06 1.78581e+06 0 -2.09869e+06 1.75899e+06 0 -2.11523e+06 1.73276e+06 0 -2.12666e+06 1.70792e+06 0 -2.13369e+06 1.68496e+06 0 -2.13691e+06 1.66417e+06 0 -2.13672e+06 1.64568e+06 0 -2.1333e+06 1.6295e+06 0 -2.12656e+06 1.6155e+06 0 -2.11615e+06 1.60341e+06 0 -2.10141e+06 1.59269e+06 0 -2.08141e+06 1.58243e+06 0 -2.05511e+06 1.57116e+06 0 -2.02164e+06 1.55664e+06 0 -1.98086e+06 1.53581e+06 0 -1.93423e+06 1.50506e+06 0 -1.88586e+06 1.46085e+06 0 -1.84462e+06 1.40108e+06 0 -1.82564e+06 1.32511e+06 0 -1.87546e+06 1.22142e+06 0 -1.98596e+06 1.02762e+06 0 -2.18343e+06 729192 0 -2.48237e+06 -1739.53 0 -1.62983e+06 1.8725e+06 0 -1.69105e+06 1.89315e+06 0 -1.75407e+06 1.90597e+06 0 -1.81698e+06 1.91008e+06 0 -1.87761e+06 1.90533e+06 0 -1.93383e+06 1.89237e+06 0 -1.98389e+06 1.87257e+06 0 -2.02669e+06 1.84775e+06 0 -2.06183e+06 1.81983e+06 0 -2.08953e+06 1.79061e+06 0 -2.11043e+06 1.7615e+06 0 -2.12535e+06 1.73356e+06 0 -2.13518e+06 1.70746e+06 0 -2.1407e+06 1.6836e+06 0 -2.14253e+06 1.66217e+06 0 -2.14109e+06 1.6432e+06 0 -2.13656e+06 1.6266e+06 0 -2.12885e+06 1.61217e+06 0 -2.11762e+06 1.59957e+06 0 -2.10224e+06 1.58821e+06 0 -2.08186e+06 1.57715e+06 0 -2.05552e+06 1.56493e+06 0 -2.02246e+06 1.54943e+06 0 -1.98261e+06 1.52779e+06 0 -1.93742e+06 1.49674e+06 0 -1.89082e+06 1.45319e+06 0 -1.8514e+06 1.39561e+06 0 -1.83377e+06 1.32422e+06 0 -1.88886e+06 1.22852e+06 0 -2.00563e+06 1.03782e+06 0 -2.2032e+06 751043 0 -2.55344e+06 -2192.48 0 -1.62874e+06 1.90663e+06 0 -1.69422e+06 1.92619e+06 0 -1.76146e+06 1.93688e+06 0 -1.82813e+06 1.93783e+06 0 -1.8917e+06 1.92909e+06 0 -1.94978e+06 1.91166e+06 0 -2.00057e+06 1.88734e+06 0 -2.04309e+06 1.85832e+06 0 -2.07719e+06 1.82681e+06 0 -2.10338e+06 1.79467e+06 0 -2.12253e+06 1.76333e+06 0 -2.13567e+06 1.73374e+06 0 -2.14378e+06 1.70649e+06 0 -2.14772e+06 1.68182e+06 0 -2.14813e+06 1.65983e+06 0 -2.14544e+06 1.64043e+06 0 -2.13981e+06 1.62347e+06 0 -2.13116e+06 1.60866e+06 0 -2.11916e+06 1.59559e+06 0 -2.1032e+06 1.58364e+06 0 -2.08248e+06 1.57185e+06 0 -2.05613e+06 1.55878e+06 0 -2.02347e+06 1.54241e+06 0 -1.98447e+06 1.52009e+06 0 -1.94057e+06 1.48886e+06 0 -1.89552e+06 1.446e+06 0 -1.85762e+06 1.39055e+06 0 -1.84092e+06 1.32359e+06 0 -1.90111e+06 1.23589e+06 0 -2.0243e+06 1.04746e+06 0 -2.21922e+06 771709 0 -2.62335e+06 -2771.87 0 -1.62826e+06 1.94287e+06 0 -1.69853e+06 1.9612e+06 0 -1.77046e+06 1.96942e+06 0 -1.84121e+06 1.9667e+06 0 -1.90782e+06 1.95338e+06 0 -1.96764e+06 1.93093e+06 0 -2.01886e+06 1.90166e+06 0 -2.06074e+06 1.8682e+06 0 -2.09344e+06 1.83297e+06 0 -2.1178e+06 1.79793e+06 0 -2.13497e+06 1.76443e+06 0 -2.14615e+06 1.73331e+06 0 -2.15244e+06 1.705e+06 0 -2.15474e+06 1.67962e+06 0 -2.15371e+06 1.65714e+06 0 -2.14976e+06 1.63739e+06 0 -2.14306e+06 1.62012e+06 0 -2.13351e+06 1.60497e+06 0 -2.12077e+06 1.59149e+06 0 -2.10427e+06 1.57901e+06 0 -2.08326e+06 1.56655e+06 0 -2.05692e+06 1.55272e+06 0 -2.02464e+06 1.53559e+06 0 -1.98643e+06 1.5127e+06 0 -1.94367e+06 1.48137e+06 0 -1.89996e+06 1.43925e+06 0 -1.86331e+06 1.38585e+06 0 -1.84714e+06 1.32318e+06 0 -1.91232e+06 1.24345e+06 0 -2.04204e+06 1.05652e+06 0 -2.23188e+06 790644 0 -2.69119e+06 -3530.9 0 -1.62845e+06 1.98153e+06 0 -1.70415e+06 1.99844e+06 0 -1.78131e+06 2.00377e+06 0 -1.85649e+06 1.99675e+06 0 -1.92621e+06 1.97815e+06 0 -1.98757e+06 1.95005e+06 0 -2.03886e+06 1.91539e+06 0 -2.07965e+06 1.87723e+06 0 -2.11055e+06 1.83822e+06 0 -2.13275e+06 1.80032e+06 0 -2.14769e+06 1.76476e+06 0 -2.15675e+06 1.73223e+06 0 -2.16112e+06 1.70299e+06 0 -2.16173e+06 1.67701e+06 0 -2.15924e+06 1.65414e+06 0 -2.15405e+06 1.6341e+06 0 -2.14629e+06 1.61656e+06 0 -2.13587e+06 1.60113e+06 0 -2.12244e+06 1.58728e+06 0 -2.10546e+06 1.57432e+06 0 -2.08419e+06 1.56127e+06 0 -2.05787e+06 1.54676e+06 0 -2.02595e+06 1.52897e+06 0 -1.98845e+06 1.5056e+06 0 -1.9467e+06 1.47424e+06 0 -1.90414e+06 1.43289e+06 0 -1.86849e+06 1.38145e+06 0 -1.85249e+06 1.32291e+06 0 -1.92262e+06 1.25114e+06 0 -2.05887e+06 1.06499e+06 0 -2.24174e+06 807279 0 -2.75591e+06 -4557.88 0 -1.62937e+06 2.02297e+06 0 -1.71127e+06 2.03823e+06 0 -1.79433e+06 2.04012e+06 0 -1.87431e+06 2.02804e+06 0 -1.94715e+06 2.00333e+06 0 -2.00976e+06 1.96888e+06 0 -2.06065e+06 1.92836e+06 0 -2.09985e+06 1.88529e+06 0 -2.12848e+06 1.84246e+06 0 -2.14817e+06 1.80177e+06 0 -2.16064e+06 1.7643e+06 0 -2.16743e+06 1.73051e+06 0 -2.16979e+06 1.70046e+06 0 -2.16867e+06 1.674e+06 0 -2.16471e+06 1.65082e+06 0 -2.15829e+06 1.63056e+06 0 -2.14951e+06 1.61283e+06 0 -2.13825e+06 1.59715e+06 0 -2.12418e+06 1.58298e+06 0 -2.10674e+06 1.56959e+06 0 -2.08524e+06 1.55601e+06 0 -2.05896e+06 1.5409e+06 0 -2.02736e+06 1.52253e+06 0 -1.99051e+06 1.49878e+06 0 -1.94963e+06 1.46745e+06 0 -1.90805e+06 1.42688e+06 0 -1.87319e+06 1.37732e+06 0 -1.85701e+06 1.32273e+06 0 -1.93214e+06 1.25888e+06 0 -2.07472e+06 1.07286e+06 0 -2.24949e+06 821037 0 -2.8163e+06 -6011.74 0 -1.63112e+06 2.06764e+06 0 -1.72015e+06 2.08096e+06 0 -1.80989e+06 2.07872e+06 0 -1.89507e+06 2.0606e+06 0 -1.97097e+06 2.02879e+06 0 -2.03441e+06 1.98721e+06 0 -2.0843e+06 1.94036e+06 0 -2.12131e+06 1.89219e+06 0 -2.14719e+06 1.84557e+06 0 -2.16401e+06 1.80224e+06 0 -2.17377e+06 1.76302e+06 0 -2.17814e+06 1.72813e+06 0 -2.17842e+06 1.69743e+06 0 -2.17555e+06 1.67059e+06 0 -2.17012e+06 1.6472e+06 0 -2.16248e+06 1.6268e+06 0 -2.1527e+06 1.60892e+06 0 -2.14065e+06 1.59306e+06 0 -2.12596e+06 1.57861e+06 0 -2.1081e+06 1.56485e+06 0 -2.0864e+06 1.55079e+06 0 -2.06016e+06 1.53515e+06 0 -2.02887e+06 1.51628e+06 0 -1.99258e+06 1.49221e+06 0 -1.95247e+06 1.46097e+06 0 -1.9117e+06 1.42118e+06 0 -1.87745e+06 1.37341e+06 0 -1.86075e+06 1.3226e+06 0 -1.94105e+06 1.26661e+06 0 -2.08946e+06 1.08014e+06 0 -2.256e+06 831289 0 -2.87115e+06 -8211.89 0 -1.63378e+06 2.11609e+06 0 -1.73113e+06 2.12711e+06 0 -1.82847e+06 2.11984e+06 0 -1.91926e+06 2.09446e+06 0 -1.99805e+06 2.05437e+06 0 -2.06172e+06 2.00478e+06 0 -2.10987e+06 1.95114e+06 0 -2.14401e+06 1.89775e+06 0 -2.16661e+06 1.84744e+06 0 -2.1802e+06 1.80164e+06 0 -2.18702e+06 1.76088e+06 0 -2.18885e+06 1.72509e+06 0 -2.18699e+06 1.69389e+06 0 -2.18233e+06 1.66681e+06 0 -2.17545e+06 1.6433e+06 0 -2.16661e+06 1.62283e+06 0 -2.15587e+06 1.60487e+06 0 -2.14305e+06 1.58886e+06 0 -2.12779e+06 1.57419e+06 0 -2.10955e+06 1.56009e+06 0 -2.08766e+06 1.54562e+06 0 -2.06146e+06 1.52951e+06 0 -2.03045e+06 1.51021e+06 0 -1.99466e+06 1.48588e+06 0 -1.95519e+06 1.45477e+06 0 -1.91508e+06 1.41576e+06 0 -1.88129e+06 1.36971e+06 0 -1.86377e+06 1.32247e+06 0 -1.9495e+06 1.27435e+06 0 -2.10294e+06 1.08669e+06 0 -2.26226e+06 837389 0 -2.91938e+06 -11911.7 0 -1.63749e+06 2.16904e+06 0 -1.74465e+06 2.17725e+06 0 -1.85072e+06 2.16376e+06 0 -1.94749e+06 2.12958e+06 0 -2.02879e+06 2.07979e+06 0 -2.09189e+06 2.02127e+06 0 -2.13739e+06 1.96043e+06 0 -2.1679e+06 1.9018e+06 0 -2.18665e+06 1.84795e+06 0 -2.19665e+06 1.79994e+06 0 -2.20033e+06 1.75788e+06 0 -2.19951e+06 1.72139e+06 0 -2.19546e+06 1.68987e+06 0 -2.18902e+06 1.66266e+06 0 -2.18068e+06 1.63913e+06 0 -2.17068e+06 1.61867e+06 0 -2.15901e+06 1.60068e+06 0 -2.14547e+06 1.58458e+06 0 -2.12966e+06 1.56972e+06 0 -2.11106e+06 1.55534e+06 0 -2.089e+06 1.5405e+06 0 -2.06284e+06 1.52398e+06 0 -2.03208e+06 1.50431e+06 0 -1.99673e+06 1.47979e+06 0 -1.9578e+06 1.44883e+06 0 -1.91822e+06 1.4106e+06 0 -1.88476e+06 1.36617e+06 0 -1.8661e+06 1.32232e+06 0 -1.95769e+06 1.2819e+06 0 -2.11478e+06 1.0929e+06 0 -2.26948e+06 838229 0 -2.96068e+06 -19422.2 0 -1.6424e+06 2.22739e+06 0 -1.7613e+06 2.23212e+06 0 -1.87744e+06 2.21081e+06 0 -1.98049e+06 2.16584e+06 0 -2.06367e+06 2.10469e+06 0 -2.12508e+06 2.03627e+06 0 -2.16685e+06 1.9679e+06 0 -2.19287e+06 1.90412e+06 0 -2.20721e+06 1.84701e+06 0 -2.21328e+06 1.79709e+06 0 -2.21363e+06 1.754e+06 0 -2.21006e+06 1.71704e+06 0 -2.2038e+06 1.68536e+06 0 -2.19558e+06 1.65817e+06 0 -2.18582e+06 1.63472e+06 0 -2.17468e+06 1.61433e+06 0 -2.16212e+06 1.59637e+06 0 -2.14788e+06 1.58022e+06 0 -2.13157e+06 1.56522e+06 0 -2.11263e+06 1.55061e+06 0 -2.09042e+06 1.53544e+06 0 -2.06429e+06 1.51857e+06 0 -2.03374e+06 1.49858e+06 0 -1.99876e+06 1.4739e+06 0 -1.96027e+06 1.44313e+06 0 -1.9211e+06 1.40567e+06 0 -1.88784e+06 1.36282e+06 0 -1.86788e+06 1.32195e+06 0 -1.96554e+06 1.28992e+06 0 -2.12541e+06 1.097e+06 0 -2.27923e+06 832405 0 -2.99921e+06 -42962 0 -1.64872e+06 2.29233e+06 0 -1.78186e+06 2.29265e+06 0 -1.90971e+06 2.26134e+06 0 -2.01917e+06 2.20301e+06 0 -2.10316e+06 2.12856e+06 0 -2.16144e+06 2.04929e+06 0 -2.19818e+06 1.97322e+06 0 -2.2188e+06 1.9045e+06 0 -2.22816e+06 1.8445e+06 0 -2.22997e+06 1.79304e+06 0 -2.22683e+06 1.74924e+06 0 -2.22047e+06 1.71205e+06 0 -2.21197e+06 1.6804e+06 0 -2.20199e+06 1.65336e+06 0 -2.19084e+06 1.63008e+06 0 -2.17861e+06 1.60983e+06 0 -2.16518e+06 1.59196e+06 0 -2.15029e+06 1.57581e+06 0 -2.1335e+06 1.56071e+06 0 -2.11426e+06 1.54589e+06 0 -2.09191e+06 1.53045e+06 0 -2.0658e+06 1.51327e+06 0 -2.03543e+06 1.49301e+06 0 -2.00076e+06 1.46821e+06 0 -1.96262e+06 1.43765e+06 0 -1.92371e+06 1.40099e+06 0 -1.8907e+06 1.35944e+06 0 -1.86873e+06 1.32217e+06 0 -1.97461e+06 1.29544e+06 0 -2.13055e+06 1.10743e+06 0 -2.29555e+06 813668 0 -2.70721e+06 629289 0 -1.65671e+06 2.36546e+06 0 -1.80748e+06 2.36005e+06 0 -1.94896e+06 2.31567e+06 0 -2.06459e+06 2.24065e+06 0 -2.14776e+06 2.15069e+06 0 -2.20103e+06 2.05971e+06 0 -2.23127e+06 1.97598e+06 0 -2.24552e+06 1.90275e+06 0 -2.24936e+06 1.84035e+06 0 -2.24663e+06 1.78777e+06 0 -2.23988e+06 1.7436e+06 0 -2.23068e+06 1.70643e+06 0 -2.21996e+06 1.675e+06 0 -2.20824e+06 1.64823e+06 0 -2.19574e+06 1.62522e+06 0 -2.18245e+06 1.6052e+06 0 -2.1682e+06 1.58746e+06 0 -2.15269e+06 1.57135e+06 0 -2.13546e+06 1.55618e+06 0 -2.11593e+06 1.54121e+06 0 -2.09345e+06 1.52553e+06 0 -2.06735e+06 1.50808e+06 0 -2.03714e+06 1.48759e+06 0 -2.00269e+06 1.46271e+06 0 -1.96485e+06 1.4324e+06 0 -1.92601e+06 1.39641e+06 0 -1.89333e+06 1.35657e+06 0 -1.86904e+06 1.32104e+06 0 -1.98347e+06 1.30462e+06 0 -2.13497e+06 1.10753e+06 0 -2.33083e+06 766442 0 -2.97542e+06 41837.6 0 -1.66674e+06 2.449e+06 0 -1.83977e+06 2.4359e+06 0 -1.99714e+06 2.37405e+06 0 -2.11803e+06 2.27801e+06 0 -2.19793e+06 2.17013e+06 0 -2.24381e+06 2.06684e+06 0 -2.26589e+06 1.97579e+06 0 -2.27282e+06 1.89868e+06 0 -2.27062e+06 1.83448e+06 0 -2.26314e+06 1.78127e+06 0 -2.2527e+06 1.7371e+06 0 -2.24065e+06 1.70022e+06 0 -2.22774e+06 1.66918e+06 0 -2.21432e+06 1.64283e+06 0 -2.2005e+06 1.62018e+06 0 -2.1862e+06 1.60044e+06 0 -2.17118e+06 1.58288e+06 0 -2.15508e+06 1.56685e+06 0 -2.13743e+06 1.55166e+06 0 -2.11763e+06 1.53657e+06 0 -2.09503e+06 1.52069e+06 0 -2.06894e+06 1.50299e+06 0 -2.03884e+06 1.48233e+06 0 -2.00458e+06 1.45737e+06 0 -1.96693e+06 1.42733e+06 0 -1.92807e+06 1.39209e+06 0 -1.89578e+06 1.3534e+06 0 -1.86833e+06 1.32125e+06 0 -1.99465e+06 1.30906e+06 0 -2.13325e+06 1.11497e+06 0 -2.30334e+06 848345 0 -2.97214e+06 22578.6 0 -1.67933e+06 2.54611e+06 0 -1.88119e+06 2.52229e+06 0 -2.0569e+06 2.4365e+06 0 -2.18095e+06 2.31384e+06 0 -2.25396e+06 2.18562e+06 0 -2.28957e+06 2.06988e+06 0 -2.30174e+06 1.97225e+06 0 -2.30042e+06 1.89212e+06 0 -2.29177e+06 1.82684e+06 0 -2.27936e+06 1.77355e+06 0 -2.2652e+06 1.72975e+06 0 -2.25032e+06 1.69342e+06 0 -2.23527e+06 1.66298e+06 0 -2.22021e+06 1.63716e+06 0 -2.20513e+06 1.61496e+06 0 -2.18986e+06 1.59557e+06 0 -2.1741e+06 1.57825e+06 0 -2.15746e+06 1.56234e+06 0 -2.13942e+06 1.54716e+06 0 -2.11937e+06 1.53197e+06 0 -2.09665e+06 1.51593e+06 0 -2.07054e+06 1.49802e+06 0 -2.04054e+06 1.47721e+06 0 -2.00635e+06 1.45218e+06 0 -1.96896e+06 1.4225e+06 0 -1.92969e+06 1.38776e+06 0 -1.89842e+06 1.35086e+06 0 -1.8663e+06 1.31994e+06 0 -2.0076e+06 1.31769e+06 0 -2.13354e+06 1.1001e+06 0 -1.14314e+06 3.1298e+06 0 -2.94298e+06 15765.2 0 -1.69524e+06 2.66144e+06 0 -1.93555e+06 2.62212e+06 0 -2.13188e+06 2.5025e+06 0 -2.25484e+06 2.34616e+06 0 -2.31595e+06 2.19557e+06 0 -2.33793e+06 2.06797e+06 0 -2.3384e+06 1.96498e+06 0 -2.32802e+06 1.88294e+06 0 -2.3126e+06 1.81742e+06 0 -2.29519e+06 1.76462e+06 0 -2.27731e+06 1.7216e+06 0 -2.25967e+06 1.68609e+06 0 -2.24253e+06 1.65641e+06 0 -2.22589e+06 1.63125e+06 0 -2.20961e+06 1.60959e+06 0 -2.19342e+06 1.59061e+06 0 -2.17697e+06 1.57357e+06 0 -2.15982e+06 1.55781e+06 0 -2.14141e+06 1.54267e+06 0 -2.12113e+06 1.52742e+06 0 -2.09829e+06 1.51123e+06 0 -2.07216e+06 1.49316e+06 0 -2.04222e+06 1.47219e+06 0 -2.00808e+06 1.4472e+06 0 -1.97074e+06 1.41777e+06 0 -1.93135e+06 1.38353e+06 0 -1.89991e+06 1.34918e+06 0 -1.86671e+06 1.315e+06 0 -2.01335e+06 1.33784e+06 0 -2.12984e+06 1.09103e+06 0 -1.7417e+06 1.97885e+06 0 -2.88392e+06 12172.2 0 -1.71574e+06 2.80283e+06 0 -2.00913e+06 2.73908e+06 0 -2.22696e+06 2.57049e+06 0 -2.34102e+06 2.37185e+06 0 -2.38352e+06 2.19808e+06 0 -2.38822e+06 2.06023e+06 0 -2.37535e+06 1.95366e+06 0 -2.35527e+06 1.87106e+06 0 -2.3329e+06 1.80622e+06 0 -2.31049e+06 1.75453e+06 0 -2.28897e+06 1.71267e+06 0 -2.26864e+06 1.67825e+06 0 -2.2495e+06 1.6495e+06 0 -2.23136e+06 1.62513e+06 0 -2.21394e+06 1.60409e+06 0 -2.19689e+06 1.58557e+06 0 -2.17979e+06 1.56886e+06 0 -2.16215e+06 1.55329e+06 0 -2.14341e+06 1.53821e+06 0 -2.12291e+06 1.52292e+06 0 -2.09995e+06 1.50662e+06 0 -2.0738e+06 1.48841e+06 0 -2.04384e+06 1.4673e+06 0 -2.00982e+06 1.44239e+06 0 -1.97218e+06 1.41309e+06 0 -1.93317e+06 1.37982e+06 0 -1.90039e+06 1.34654e+06 0 -1.8684e+06 1.31251e+06 0 -2.01537e+06 1.35519e+06 0 -2.17014e+06 1.01061e+06 0 -1.86012e+06 1.78277e+06 0 -2.79106e+06 9863.68 0 -1.7432e+06 2.981e+06 0 -2.11267e+06 2.87928e+06 0 -2.34842e+06 2.63595e+06 0 -2.44002e+06 2.38654e+06 0 -2.45574e+06 2.19098e+06 0 -2.43952e+06 2.04589e+06 0 -2.41195e+06 1.93809e+06 0 -2.38181e+06 1.85648e+06 0 -2.35246e+06 1.79329e+06 0 -2.32514e+06 1.74332e+06 0 -2.3001e+06 1.70302e+06 0 -2.2772e+06 1.66993e+06 0 -2.25616e+06 1.6423e+06 0 -2.23659e+06 1.61881e+06 0 -2.2181e+06 1.59847e+06 0 -2.20024e+06 1.58047e+06 0 -2.18254e+06 1.56412e+06 0 -2.16446e+06 1.54877e+06 0 -2.14541e+06 1.53379e+06 0 -2.12471e+06 1.51849e+06 0 -2.10163e+06 1.50208e+06 0 -2.07543e+06 1.48377e+06 0 -2.04542e+06 1.46252e+06 0 -2.01148e+06 1.43775e+06 0 -1.97341e+06 1.40845e+06 0 -1.93501e+06 1.37638e+06 0 -1.89984e+06 1.34398e+06 0 -1.87222e+06 1.30908e+06 0 -2.01292e+06 1.37472e+06 0 -2.27768e+06 822178 0 -1.92296e+06 1.7041e+06 0 -2.6699e+06 8208.15 0 -1.78205e+06 3.2274e+06 0 -2.26582e+06 3.04632e+06 0 -2.50315e+06 2.69075e+06 0 -2.55068e+06 2.3837e+06 0 -2.53097e+06 2.17244e+06 0 -2.49052e+06 2.02423e+06 0 -2.44753e+06 1.9182e+06 0 -2.40722e+06 1.83924e+06 0 -2.37107e+06 1.77872e+06 0 -2.33903e+06 1.73107e+06 0 -2.31064e+06 1.69271e+06 0 -2.28532e+06 1.6612e+06 0 -2.26249e+06 1.63482e+06 0 -2.24159e+06 1.61233e+06 0 -2.2221e+06 1.59276e+06 0 -2.20349e+06 1.57533e+06 0 -2.18523e+06 1.55937e+06 0 -2.16674e+06 1.54427e+06 0 -2.1474e+06 1.5294e+06 0 -2.12652e+06 1.51411e+06 0 -2.10331e+06 1.49763e+06 0 -2.07707e+06 1.47922e+06 0 -2.04693e+06 1.45785e+06 0 -2.01309e+06 1.43326e+06 0 -1.97435e+06 1.40386e+06 0 -1.93686e+06 1.37347e+06 0 -1.89864e+06 1.34023e+06 0 -1.87675e+06 1.30883e+06 0 -2.0054e+06 1.39445e+06 0 -1.9512e+06 1.37142e+06 0 -1.98699e+06 1.63481e+06 0 -2.52054e+06 6919.33 0 -1.84806e+06 3.56053e+06 0 -2.50541e+06 3.25742e+06 0 -2.69456e+06 2.70985e+06 0 -2.66967e+06 2.35903e+06 0 -2.60654e+06 2.13988e+06 0 -2.53979e+06 1.99528e+06 0 -2.48132e+06 1.89402e+06 0 -2.43116e+06 1.81948e+06 0 -2.38852e+06 1.76261e+06 0 -2.35205e+06 1.71786e+06 0 -2.32054e+06 1.6818e+06 0 -2.29297e+06 1.65208e+06 0 -2.26848e+06 1.62711e+06 0 -2.24635e+06 1.60571e+06 0 -2.22594e+06 1.58697e+06 0 -2.20663e+06 1.57015e+06 0 -2.18786e+06 1.55463e+06 0 -2.16899e+06 1.5398e+06 0 -2.14939e+06 1.52507e+06 0 -2.12833e+06 1.5098e+06 0 -2.105e+06 1.49326e+06 0 -2.07869e+06 1.47476e+06 0 -2.04842e+06 1.45329e+06 0 -2.01459e+06 1.42889e+06 0 -1.97518e+06 1.39936e+06 0 -1.93846e+06 1.37081e+06 0 -1.89714e+06 1.33622e+06 0 -1.88188e+06 1.30921e+06 0 -1.98591e+06 1.4293e+06 0 -1.95459e+06 1.35562e+06 0 -2.03723e+06 1.59544e+06 0 -2.34511e+06 5858.08 0 -1.97586e+06 4.25772e+06 0 -2.90086e+06 3.45843e+06 0 -2.91186e+06 2.66944e+06 0 -2.79163e+06 2.30442e+06 0 -2.67873e+06 2.09358e+06 0 -2.58564e+06 1.95879e+06 0 -2.5127e+06 1.86596e+06 0 -2.45314e+06 1.79739e+06 0 -2.40469e+06 1.74513e+06 0 -2.36409e+06 1.70381e+06 0 -2.32976e+06 1.67035e+06 0 -2.30011e+06 1.64264e+06 0 -2.27412e+06 1.6192e+06 0 -2.25086e+06 1.59897e+06 0 -2.2296e+06 1.58112e+06 0 -2.20966e+06 1.56496e+06 0 -2.19042e+06 1.54989e+06 0 -2.17121e+06 1.53536e+06 0 -2.15137e+06 1.52078e+06 0 -2.13014e+06 1.50555e+06 0 -2.10669e+06 1.48897e+06 0 -2.08029e+06 1.47039e+06 0 -2.04985e+06 1.44885e+06 0 -2.01596e+06 1.42462e+06 0 -1.97588e+06 1.39497e+06 0 -1.93974e+06 1.36843e+06 0 -1.8957e+06 1.33156e+06 0 -1.88603e+06 1.31247e+06 0 -1.9836e+06 1.43381e+06 0 -1.92153e+06 1.39918e+06 0 -2.0915e+06 1.55166e+06 0 -2.14595e+06 4947.8 0 -2.45743e+06 5.59994e+06 0 -3.53662e+06 3.61231e+06 0 -3.10826e+06 2.47806e+06 0 -2.91868e+06 2.24438e+06 0 -2.73761e+06 2.02288e+06 0 -2.62944e+06 1.91993e+06 0 -2.53954e+06 1.83286e+06 0 -2.47357e+06 1.77377e+06 0 -2.41908e+06 1.72632e+06 0 -2.37523e+06 1.68903e+06 0 -2.33818e+06 1.65845e+06 0 -2.30676e+06 1.6329e+06 0 -2.27937e+06 1.61113e+06 0 -2.25511e+06 1.59214e+06 0 -2.23308e+06 1.57523e+06 0 -2.21258e+06 1.55976e+06 0 -2.19291e+06 1.54518e+06 0 -2.1734e+06 1.53096e+06 0 -2.15333e+06 1.51655e+06 0 -2.13194e+06 1.50137e+06 0 -2.10838e+06 1.48476e+06 0 -2.08186e+06 1.46611e+06 0 -2.05125e+06 1.4445e+06 0 -2.01717e+06 1.42045e+06 0 -1.97651e+06 1.39071e+06 0 -1.94063e+06 1.36618e+06 0 -1.89437e+06 1.32678e+06 0 -1.88978e+06 1.31666e+06 0 -1.91983e+06 1.53003e+06 0 -1.90248e+06 1.41791e+06 0 -2.13821e+06 1.52241e+06 0 -1.92216e+06 4136.04 0 -4.90181e+06 1.48354e+07 0 -4.00887e+06 1.61375e+06 0 -3.38341e+06 2.71708e+06 0 -2.97479e+06 1.97061e+06 0 -2.80765e+06 2.00835e+06 0 -2.65711e+06 1.85232e+06 0 -2.5671e+06 1.80462e+06 0 -2.48946e+06 1.7461e+06 0 -2.43283e+06 1.70713e+06 0 -2.38481e+06 1.67354e+06 0 -2.34606e+06 1.64615e+06 0 -2.31279e+06 1.62297e+06 0 -2.2843e+06 1.60289e+06 0 -2.25909e+06 1.58525e+06 0 -2.2364e+06 1.56931e+06 0 -2.21538e+06 1.55457e+06 0 -2.19534e+06 1.5405e+06 0 -2.17555e+06 1.52661e+06 0 -2.15528e+06 1.51238e+06 0 -2.13375e+06 1.49726e+06 0 -2.11005e+06 1.48063e+06 0 -2.08339e+06 1.4619e+06 0 -2.05259e+06 1.44026e+06 0 -2.01826e+06 1.41634e+06 0 -1.97703e+06 1.38659e+06 0 -1.94114e+06 1.36407e+06 0 -1.8933e+06 1.3216e+06 0 -1.89155e+06 1.32416e+06 0 -2.10209e+06 1.2685e+06 0 -1.88857e+06 1.42914e+06 0 -2.17955e+06 1.50091e+06 0 -1.67446e+06 3392.32 0 </DataArray> 
</PointData> 
<Points> 
<DataArray type="Float32" NumberOfComponents="3"> 