<?xml version="1.0"?> 
<VTKFile type="StructuredGrid" version="0.1"> 
<StructuredGrid WholeExtent="0 31 0 31 0 0"> 
<Piece Extent="0 31 0 31 0 0"> 
<PointData>
<DataArray type="Float32" Name="|E|" format="ascii" NumberOfComponents="3"> 
-2.01923e+06 0 0 -2.01929e+06 5304.08 0 -2.01947e+06 10609.2 0 -2.01977e+06 15916.1 0 -2.02019e+06 21225.6 0 -2.02073e+06 26538.4 0 -2.02138e+06 31855.3 0 -2.02216e+06 37177.1 0 -2.02305e+06 42504.5 0 -2.02407e+06 47838.4 0 -2.0252e+06 53179.6 0 -2.02645e+06 58528.8 0 -2.02783e+06 63886.9 0 -2.02932e+06 69254.7 0 -2.03093e+06 74632.9 0 -2.03266e+06 80022.5 0 -2.03452e+06 85424.2 0 -2.03649e+06 90838.8 0 -2.03859e+06 96267.1 0 -2.0408e+06 101710 0 -2.04314e+06 107168 0 -2.0456e+06 112643 0 -2.04818e+06 118135 0 -2.05088e+06 123645 0 -2.0537e+06 129174 0 -2.05665e+06 134722 0 -2.05972e+06 140292 0 -2.06291e+06 145883 0 -2.06623e+06 151497 0 -2.06967e+06 157134 0 -2.07324e+06 162797 0 -2.07693e+06 168492 0 -2.01454e+06 0 0 -2.01461e+06 5779.1 0 -2.01481e+06 11559.5 0 -2.01515e+06 17342 0 -2.01563e+06 23127.7 0 -2.01624e+06 28917.4 0 -2.01698e+06 34712.2 0 -2.01786e+06 40513 0 -2.01888e+06 46320.7 0 -2.02003e+06 52136.4 0 -2.02132e+06 57961 0 -2.02274e+06 63795.6 0 -2.0243e+06 69641 0 -2.026e+06 75498.3 0 -2.02783e+06 81368.5 0 -2.0298e+06 87252.7 0 -2.0319e+06 93151.7 0 -2.03414e+06 99066.6 0 -2.03652e+06 104999 0 -2.03904e+06 110948 0 -2.04169e+06 116917 0 -2.04449e+06 122907 0 -2.04742e+06 128917 0 -2.05049e+06 134950 0 -2.0537e+06 141006 0 -2.05705e+06 147087 0 -2.06054e+06 153193 0 -2.06417e+06 159327 0 -2.06794e+06 165489 0 -2.07185e+06 171680 0 -2.0759e+06 177902 0 -2.0801e+06 184154 0 -2.00976e+06 0 0 -2.00984e+06 6267.61 0 -2.01007e+06 12536.7 0 -2.01045e+06 18808.5 0 -2.01099e+06 25084 0 -2.01167e+06 31364.5 0 -2.01251e+06 37651.1 0 -2.0135e+06 43945 0 -2.01465e+06 50247.4 0 -2.01594e+06 56559.4 0 -2.01739e+06 62882.3 0 -2.01899e+06 69217.3 0 -2.02075e+06 75565.5 0 -2.02266e+06 81928.2 0 -2.02472e+06 88306.6 0 -2.02694e+06 94702 0 -2.02931e+06 101116 0 -2.03183e+06 107548 0 -2.03451e+06 114002 0 -2.03735e+06 120478 0 -2.04034e+06 126977 0 -2.04349e+06 133501 0 -2.04679e+06 140050 0 -2.05025e+06 146628 0 -2.05387e+06 153234 0 -2.05764e+06 159870 0 -2.06158e+06 166538 0 -2.06567e+06 173239 0 -2.06992e+06 179974 0 -2.07433e+06 186746 0 -2.0789e+06 193555 0 -2.08364e+06 200404 0 -2.00489e+06 0 0 -2.00498e+06 6769.53 0 -2.00523e+06 13540.8 0 -2.00566e+06 20315.3 0 -2.00626e+06 27094.3 0 -2.00703e+06 33879.3 0 -2.00796e+06 40671.6 0 -2.00907e+06 47472.7 0 -2.01035e+06 54284 0 -2.0118e+06 61106.9 0 -2.01342e+06 67942.9 0 -2.01521e+06 74793.4 0 -2.01717e+06 81659.9 0 -2.0193e+06 88543.9 0 -2.02161e+06 95446.8 0 -2.02409e+06 102370 0 -2.02674e+06 109316 0 -2.02956e+06 116284 0 -2.03256e+06 123278 0 -2.03573e+06 130299 0 -2.03907e+06 137348 0 -2.04259e+06 144426 0 -2.04629e+06 151537 0 -2.05016e+06 158680 0 -2.0542e+06 165859 0 -2.05843e+06 173074 0 -2.06283e+06 180328 0 -2.06741e+06 187622 0 -2.07217e+06 194958 0 -2.0771e+06 202339 0 -2.08222e+06 209765 0 -2.08752e+06 217240 0 -1.99993e+06 0 0 -2.00003e+06 7284.7 0 -2.00031e+06 14571.5 0 -2.00079e+06 21862 0 -2.00145e+06 29158 0 -2.0023e+06 36461 0 -2.00334e+06 43772.8 0 -2.00457e+06 51095 0 -2.00599e+06 58429.4 0 -2.0076e+06 65777.7 0 -2.0094e+06 73141.6 0 -2.01139e+06 80522.8 0 -2.01357e+06 87923.2 0 -2.01593e+06 95344.3 0 -2.01849e+06 102788 0 -2.02125e+06 110256 0 -2.02419e+06 117751 0 -2.02733e+06 125274 0 -2.03065e+06 132827 0 -2.03418e+06 140411 0 -2.03789e+06 148030 0 -2.0418e+06 155685 0 -2.04591e+06 163377 0 -2.05021e+06 171110 0 -2.0547e+06 178885 0 -2.0594e+06 186704 0 -2.06429e+06 194569 0 -2.06938e+06 202483 0 -2.07467e+06 210448 0 -2.08016e+06 218467 0 -2.08585e+06 226541 0 -2.09175e+06 234674 0 -1.99488e+06 0 0 -1.99499e+06 7813 0 -1.9953e+06 15628.4 0 -1.99583e+06 23448.3 0 -1.99656e+06 31274.5 0 -1.9975e+06 39109.1 0 -1.99865e+06 46954 0 -2e+06 54811.3 0 -2.00157e+06 62682.9 0 -2.00335e+06 70571 0 -2.00533e+06 78477.5 0 -2.00753e+06 86404.6 0 -2.00993e+06 94354.3 0 -2.01255e+06 102329 0 -2.01537e+06 110330 0 -2.01841e+06 118360 0 -2.02166e+06 126422 0 -2.02512e+06 134517 0 -2.0288e+06 142647 0 -2.03269e+06 150816 0 -2.03679e+06 159025 0 -2.04111e+06 167277 0 -2.04564e+06 175574 0 -2.05039e+06 183919 0 -2.05536e+06 192314 0 -2.06055e+06 200762 0 -2.06595e+06 209266 0 -2.07158e+06 217828 0 -2.07742e+06 226451 0 -2.08349e+06 235138 0 -2.08978e+06 243892 0 -2.0963e+06 252718 0 -1.98974e+06 0 0 -1.98986e+06 8354.28 0 -1.99021e+06 16711.4 0 -1.99078e+06 25073.6 0 -1.99158e+06 33443.3 0 -1.99262e+06 41822.8 0 -1.99388e+06 50214.5 0 -1.99537e+06 58620.6 0 -1.99709e+06 67043.5 0 -1.99904e+06 75485.8 0 -2.00122e+06 83949.7 0 -2.00363e+06 92437.7 0 -2.00627e+06 100952 0 -2.00914e+06 109496 0 -2.01224e+06 118071 0 -2.01558e+06 126681 0 -2.01915e+06 135327 0 -2.02295e+06 144012 0 -2.02699e+06 152740 0 -2.03126e+06 161513 0 -2.03576e+06 170333 0 -2.04051e+06 179204 0 -2.04549e+06 188129 0 -2.05071e+06 197110 0 -2.05617e+06 206150 0 -2.06187e+06 215254 0 -2.06781e+06 224423 0 -2.07399e+06 233662 0 -2.08042e+06 242973 0 -2.08709e+06 252361 0 -2.094e+06 261829 0 -2.10117e+06 271381 0 -1.98452e+06 0 0 -1.98465e+06 8908.41 0 -1.98502e+06 17820.1 0 -1.98565e+06 26737.7 0 -1.98653e+06 35664 0 -1.98766e+06 44601.7 0 -1.98903e+06 53553.4 0 -1.99066e+06 62522.1 0 -1.99254e+06 71510.3 0 -1.99467e+06 80521 0 -1.99705e+06 89557 0 -1.99968e+06 98621.1 0 -2.00257e+06 107716 0 -2.00571e+06 116845 0 -2.0091e+06 126011 0 -2.01274e+06 135217 0 -2.01665e+06 144466 0 -2.0208e+06 153761 0 -2.02521e+06 163105 0 -2.02988e+06 172502 0 -2.03481e+06 181955 0 -2.04e+06 191467 0 -2.04544e+06 201042 0 -2.05115e+06 210684 0 -2.05712e+06 220396 0 -2.06335e+06 230182 0 -2.06985e+06 240045 0 -2.07661e+06 249991 0 -2.08364e+06 260022 0 -2.09093e+06 270144 0 -2.0985e+06 280361 0 -2.10634e+06 290678 0 -1.9792e+06 0 0 -1.97934e+06 9475.25 0 -1.97975e+06 18954.2 0 -1.98044e+06 28440.1 0 -1.98139e+06 37935.9 0 -1.98262e+06 47444.8 0 -1.98412e+06 56970.1 0 -1.98589e+06 66514.9 0 -1.98793e+06 76082.3 0 -1.99025e+06 85675.8 0 -1.99284e+06 95298.4 0 -1.9957e+06 104954 0 -1.99884e+06 114645 0 -2.00225e+06 124375 0 -2.00594e+06 134149 0 -2.00991e+06 143968 0 -2.01415e+06 153838 0 -2.01868e+06 163761 0 -2.02348e+06 173742 0 -2.02856e+06 183784 0 -2.03392e+06 193891 0 -2.03957e+06 204068 0 -2.04549e+06 214317 0 -2.0517e+06 224645 0 -2.0582e+06 235054 0 -2.06499e+06 245550 0 -2.07206e+06 256138 0 -2.07942e+06 266821 0 -2.08707e+06 277606 0 -2.09502e+06 288497 0 -2.10326e+06 299499 0 -2.1118e+06 310620 0 -1.9738e+06 0 0 -1.97396e+06 10054.6 0 -1.9744e+06 20113.5 0 -1.97514e+06 30180.3 0 -1.97617e+06 40258.5 0 -1.9775e+06 50351.7 0 -1.97913e+06 60463.7 0 -1.98104e+06 70598.1 0 -1.98326e+06 80758.6 0 -1.98577e+06 90949 0 -1.98857e+06 101173 0 -1.99168e+06 111434 0 -1.99508e+06 121737 0 -1.99878e+06 132086 0 -2.00278e+06 142483 0 -2.00707e+06 152934 0 -2.01167e+06 163443 0 -2.01657e+06 174014 0 -2.02178e+06 184651 0 -2.02728e+06 195359 0 -2.03309e+06 206142 0 -2.03921e+06 217006 0 -2.04564e+06 227955 0 -2.05237e+06 238994 0 -2.05941e+06 250128 0 -2.06677e+06 261364 0 -2.07444e+06 272705 0 -2.08242e+06 284159 0 -2.09072e+06 295731 0 -2.09933e+06 307427 0 -2.10827e+06 319254 0 -2.11753e+06 331221 0 -1.96832e+06 0 0 -1.96848e+06 10646.4 0 -1.96896e+06 21297.7 0 -1.96976e+06 31957.9 0 -1.97088e+06 42631.2 0 -1.97231e+06 53321.6 0 -1.97406e+06 64033.5 0 -1.97613e+06 74770.9 0 -1.97852e+06 85538.2 0 -1.98123e+06 96339.6 0 -1.98426e+06 107179 0 -1.98761e+06 118062 0 -1.99128e+06 128992 0 -1.99527e+06 139975 0 -1.99959e+06 151013 0 -2.00423e+06 162113 0 -2.00919e+06 173280 0 -2.01448e+06 184517 0 -2.0201e+06 195831 0 -2.02605e+06 207227 0 -2.03232e+06 218709 0 -2.03893e+06 230284 0 -2.04587e+06 241957 0 -2.05314e+06 253734 0 -2.06074e+06 265622 0 -2.06869e+06 277626 0 -2.07697e+06 289753 0 -2.08559e+06 302011 0 -2.09456e+06 314406 0 -2.10386e+06 326946 0 -2.11352e+06 339638 0 -2.12352e+06 352493 0 -1.96275e+06 0 0 -1.96292e+06 11250.5 0 -1.96344e+06 22506.5 0 -1.9643e+06 33772.6 0 -1.9655e+06 45053.5 0 -1.96704e+06 56353.9 0 -1.96892e+06 67678.6 0 -1.97115e+06 79032.4 0 -1.97372e+06 90420.1 0 -1.97664e+06 101847 0 -1.97989e+06 113317 0 -1.9835e+06 124836 0 -1.98745e+06 136409 0 -1.99174e+06 148042 0 -1.99638e+06 159738 0 -2.00138e+06 171505 0 -2.00672e+06 183348 0 -2.01241e+06 195272 0 -2.01845e+06 207283 0 -2.02485e+06 219387 0 -2.0316e+06 231591 0 -2.03871e+06 243902 0 -2.04618e+06 256325 0 -2.054e+06 268867 0 -2.06219e+06 281537 0 -2.07073e+06 294341 0 -2.07965e+06 307287 0 -2.08893e+06 320383 0 -2.09857e+06 333639 0 -2.10859e+06 347062 0 -2.11898e+06 360662 0 -2.12975e+06 374451 0 -1.95709e+06 0 0 -1.95728e+06 11866.7 0 -1.95783e+06 23739.6 0 -1.95875e+06 35623.8 0 -1.96004e+06 47524.8 0 -1.96169e+06 59447.8 0 -1.96371e+06 71398.2 0 -1.9661e+06 83381.6 0 -1.96886e+06 95403.3 0 -1.97198e+06 107469 0 -1.97548e+06 119584 0 -1.97934e+06 131755 0 -1.98357e+06 143986 0 -1.98818e+06 156285 0 -1.99316e+06 168657 0 -1.99851e+06 181109 0 -2.00424e+06 193646 0 -2.01034e+06 206276 0 -2.01683e+06 219006 0 -2.02369e+06 231841 0 -2.03093e+06 244791 0 -2.03855e+06 257861 0 -2.04656e+06 271060 0 -2.05495e+06 284396 0 -2.06373e+06 297877 0 -2.0729e+06 311512 0 -2.08246e+06 325311 0 -2.09241e+06 339283 0 -2.10276e+06 353437 0 -2.1135e+06 367785 0 -2.12465e+06 382338 0 -2.13619e+06 397109 0 -1.95135e+06 0 0 -1.95155e+06 12494.9 0 -1.95214e+06 24996.7 0 -1.95313e+06 37511.2 0 -1.9545e+06 50044.5 0 -1.95627e+06 62602.6 0 -1.95843e+06 75191.6 0 -1.96098e+06 87817.6 0 -1.96393e+06 100487 0 -1.96727e+06 113205 0 -1.971e+06 125980 0 -1.97513e+06 138817 0 -1.97966e+06 151723 0 -1.98459e+06 164705 0 -1.98991e+06 177769 0 -1.99563e+06 190923 0 -2.00176e+06 204175 0 -2.00828e+06 217531 0 -2.01521e+06 231000 0 -2.02255e+06 244589 0 -2.03029e+06 258307 0 -2.03844e+06 272162 0 -2.04701e+06 286164 0 -2.05598e+06 300322 0 -2.06537e+06 314646 0 -2.07517e+06 329145 0 -2.08539e+06 343831 0 -2.09603e+06 358715 0 -2.10709e+06 373809 0 -2.11858e+06 389126 0 -2.1305e+06 404678 0 -2.14284e+06 420481 0 -1.94552e+06 0 0 -1.94574e+06 13134.9 0 -1.94637e+06 26277.5 0 -1.94742e+06 39434.3 0 -1.94889e+06 52612.2 0 -1.95077e+06 65817.7 0 -1.95307e+06 79057.9 0 -1.95579e+06 92339.5 0 -1.95894e+06 105670 0 -1.9625e+06 119055 0 -1.96648e+06 132503 0 -1.97088e+06 146022 0 -1.97571e+06 159617 0 -1.98096e+06 173298 0 -1.98664e+06 187072 0 -1.99274e+06 200947 0 -1.99927e+06 214932 0 -2.00623e+06 229034 0 -2.01362e+06 243264 0 -2.02144e+06 257629 0 -2.02969e+06 272140 0 -2.03838e+06 286807 0 -2.04751e+06 301639 0 -2.05708e+06 316648 0 -2.06709e+06 331845 0 -2.07754e+06 347243 0 -2.08843e+06 362852 0 -2.09978e+06 378688 0 -2.11157e+06 394763 0 -2.12381e+06 411093 0 -2.13651e+06 427693 0 -2.14966e+06 444583 0 -1.93961e+06 0 0 -1.93984e+06 13786.6 0 -1.94052e+06 27581.7 0 -1.94163e+06 41392.7 0 -1.94319e+06 55227.1 0 -1.94519e+06 69092.4 0 -1.94764e+06 82996.3 0 -1.95054e+06 96946.4 0 -1.95388e+06 110951 0 -1.95767e+06 125017 0 -1.9619e+06 139153 0 -1.96658e+06 153368 0 -1.97172e+06 167669 0 -1.9773e+06 182065 0 -1.98334e+06 196566 0 -1.98983e+06 211180 0 -1.99677e+06 225917 0 -2.00417e+06 240786 0 -2.01203e+06 255798 0 -2.02034e+06 270962 0 -2.02912e+06 286291 0 -2.03836e+06 301794 0 -2.04807e+06 317485 0 -2.05824e+06 333376 0 -2.06888e+06 349479 0 -2.07999e+06 365809 0 -2.09157e+06 382379 0 -2.10363e+06 399207 0 -2.11616e+06 416307 0 -2.12917e+06 433698 0 -2.14266e+06 451398 0 -2.15663e+06 469429 0 -1.93362e+06 0 0 -1.93387e+06 14449.9 0 -1.93458e+06 28909 0 -1.93576e+06 43385.9 0 -1.93742e+06 57888.7 0 -1.93954e+06 72425.9 0 -1.94214e+06 87005.9 0 -1.94521e+06 101637 0 -1.94876e+06 116329 0 -1.95277e+06 131089 0 -1.95727e+06 145928 0 -1.96223e+06 160854 0 -1.96768e+06 175876 0 -1.9736e+06 191004 0 -1.98001e+06 206249 0 -1.98689e+06 221621 0 -1.99426e+06 237129 0 -2.00211e+06 252785 0 -2.01044e+06 268601 0 -2.01926e+06 284588 0 -2.02857e+06 300759 0 -2.03837e+06 317127 0 -2.04867e+06 333704 0 -2.05945e+06 350507 0 -2.07073e+06 367549 0 -2.08251e+06 384847 0 -2.09479e+06 402417 0 -2.10757e+06 420278 0 -2.12085e+06 438449 0 -2.13463e+06 456950 0 -2.14892e+06 475803 0 -2.16372e+06 495034 0 -1.92755e+06 0 0 -1.92781e+06 15124.5 0 -1.92856e+06 30259.2 0 -1.92981e+06 45413.5 0 -1.93157e+06 60596.4 0 -1.93382e+06 75817.5 0 -1.93657e+06 91085.9 0 -1.93982e+06 106411 0 -1.94357e+06 121803 0 -1.94782e+06 137272 0 -1.95258e+06 152827 0 -1.95783e+06 168478 0 -1.9636e+06 184237 0 -1.96987e+06 200114 0 -1.97665e+06 216121 0 -1.98393e+06 232267 0 -1.99173e+06 248567 0 -2.00003e+06 265031 0 -2.00886e+06 281673 0 -2.01819e+06 298506 0 -2.02804e+06 315545 0 -2.03841e+06 332803 0 -2.0493e+06 350297 0 -2.06071e+06 368043 0 -2.07264e+06 386058 0 -2.0851e+06 404361 0 -2.09808e+06 422970 0 -2.11159e+06 441908 0 -2.12562e+06 461196 0 -2.14019e+06 480858 0 -2.15528e+06 500921 0 -2.17091e+06 521414 0 -1.9214e+06 0 0 -1.92167e+06 15810.3 0 -1.92246e+06 31631.9 0 -1.92379e+06 47475 0 -1.92564e+06 63349.7 0 -1.92801e+06 79266.4 0 -1.93092e+06 95235.5 0 -1.93435e+06 111267 0 -1.93831e+06 127373 0 -1.94281e+06 143563 0 -1.94783e+06 159848 0 -1.95338e+06 176241 0 -1.95947e+06 192752 0 -1.96609e+06 209394 0 -1.97325e+06 226179 0 -1.98095e+06 243119 0 -1.98918e+06 260229 0 -1.99795e+06 277523 0 -2.00726e+06 295013 0 -2.01712e+06 312717 0 -2.02752e+06 330648 0 -2.03847e+06 348825 0 -2.04996e+06 367265 0 -2.062e+06 385986 0 -2.07459e+06 405009 0 -2.08773e+06 424353 0 -2.10142e+06 444043 0 -2.11566e+06 464102 0 -2.13046e+06 484556 0 -2.1458e+06 505433 0 -2.1617e+06 526763 0 -2.17815e+06 548583 0 -1.91516e+06 0 0 -1.91545e+06 16507.2 0 -1.91629e+06 33026.8 0 -1.91768e+06 49570 0 -1.91963e+06 66148 0 -1.92214e+06 82772.1 0 -1.9252e+06 99453.8 0 -1.92882e+06 116205 0 -1.933e+06 133036 0 -1.93773e+06 149961 0 -1.94303e+06 166991 0 -1.94888e+06 184139 0 -1.9553e+06 201418 0 -1.96228e+06 218841 0 -1.96982e+06 236422 0 -1.97793e+06 254176 0 -1.9866e+06 272116 0 -1.99585e+06 290259 0 -2.00566e+06 308620 0 -2.01605e+06 327218 0 -2.027e+06 346069 0 -2.03853e+06 365192 0 -2.05063e+06 384608 0 -2.06331e+06 404337 0 -2.07656e+06 424402 0 -2.09039e+06 444828 0 -2.10479e+06 465640 0 -2.11977e+06 486865 0 -2.13533e+06 508535 0 -2.15145e+06 530682 0 -2.16815e+06 553342 0 -2.18541e+06 576555 0 -1.90884e+06 0 0 -1.90915e+06 17215.1 0 -1.91003e+06 34443.7 0 -1.9115e+06 51698.1 0 -1.91355e+06 68990.6 0 -1.91619e+06 86333.7 0 -1.91941e+06 103740 0 -1.92322e+06 121222 0 -1.92761e+06 138793 0 -1.93259e+06 156466 0 -1.93816e+06 174255 0 -1.94432e+06 192173 0 -1.95107e+06 210235 0 -1.95842e+06 228456 0 -1.96635e+06 246850 0 -1.97488e+06 265434 0 -1.98401e+06 284225 0 -1.99373e+06 303238 0 -2.00405e+06 322494 0 -2.01496e+06 342009 0 -2.02648e+06 361806 0 -2.0386e+06 381904 0 -2.05131e+06 402326 0 -2.06463e+06 423097 0 -2.07855e+06 444241 0 -2.09307e+06 465787 0 -2.10819e+06 487763 0 -2.1239e+06 510203 0 -2.14021e+06 533141 0 -2.15711e+06 556615 0 -2.17459e+06 580667 0 -2.19266e+06 605344 0 -1.90245e+06 0 0 -1.90277e+06 17933.7 0 -1.90369e+06 35882.2 0 -1.90524e+06 53858.8 0 -1.90739e+06 71877 0 -1.91016e+06 89950.5 0 -1.91355e+06 108093 0 -1.91755e+06 126319 0 -1.92216e+06 144641 0 -1.92739e+06 163076 0 -1.93324e+06 181637 0 -1.93971e+06 200340 0 -1.9468e+06 219201 0 -1.95451e+06 238235 0 -1.96284e+06 257460 0 -1.9718e+06 276894 0 -1.98138e+06 296554 0 -1.99158e+06 316460 0 -2.00241e+06 336632 0 -2.01386e+06 357091 0 -2.02595e+06 377859 0 -2.03866e+06 398960 0 -2.05199e+06 420420 0 -2.06595e+06 442265 0 -2.08054e+06 464525 0 -2.09575e+06 487231 0 -2.11158e+06 510417 0 -2.12802e+06 534119 0 -2.14508e+06 558378 0 -2.16274e+06 583239 0 -2.181e+06 608748 0 -2.19984e+06 634962 0 -1.89598e+06 0 0 -1.89631e+06 18663 0 -1.89728e+06 37341.9 0 -1.8989e+06 56051.6 0 -1.90116e+06 74806.6 0 -1.90406e+06 93621.9 0 -1.90761e+06 112512 0 -1.9118e+06 131493 0 -1.91664e+06 150580 0 -1.92213e+06 169790 0 -1.92826e+06 189137 0 -1.93505e+06 208639 0 -1.94248e+06 228314 0 -1.95056e+06 248179 0 -1.95929e+06 268252 0 -1.96868e+06 288554 0 -1.97871e+06 309104 0 -1.9894e+06 329923 0 -2.00075e+06 351034 0 -2.01275e+06 372460 0 -2.0254e+06 394227 0 -2.0387e+06 416360 0 -2.05266e+06 438889 0 -2.06726e+06 461844 0 -2.08252e+06 485256 0 -2.09841e+06 509163 0 -2.11494e+06 533603 0 -2.13211e+06 558617 0 -2.1499e+06 584252 0 -2.16831e+06 610559 0 -2.18732e+06 637594 0 -2.20691e+06 665419 0 -1.88942e+06 0 0 -1.88977e+06 19402.7 0 -1.89079e+06 38822.8 0 -1.89248e+06 58276.1 0 -1.89485e+06 77778.8 0 -1.89789e+06 97346.9 0 -1.9016e+06 116997 0 -1.90599e+06 136745 0 -1.91106e+06 156609 0 -1.9168e+06 176606 0 -1.92322e+06 196753 0 -1.93032e+06 217069 0 -1.9381e+06 237573 0 -1.94656e+06 258284 0 -1.95569e+06 279223 0 -1.96551e+06 300412 0 -1.97601e+06 321871 0 -1.98719e+06 343625 0 -1.99906e+06 365698 0 -2.0116e+06 388117 0 -2.02482e+06 410909 0 -2.03872e+06 434104 0 -2.0533e+06 457733 0 -2.06855e+06 481831 0 -2.08446e+06 506434 0 -2.10104e+06 531584 0 -2.11827e+06 557322 0 -2.13615e+06 583698 0 -2.15465e+06 610765 0 -2.17378e+06 638580 0 -2.19351e+06 667209 0 -2.21381e+06 696724 0 -1.88279e+06 0 0 -1.88316e+06 20152.7 0 -1.88422e+06 40324.3 0 -1.88599e+06 60531.9 0 -1.88847e+06 80793 0 -1.89164e+06 101125 0 -1.89553e+06 121546 0 -1.90012e+06 142074 0 -1.90541e+06 162726 0 -1.91141e+06 183524 0 -1.91812e+06 204484 0 -1.92554e+06 225629 0 -1.93367e+06 246977 0 -1.9425e+06 268551 0 -1.95205e+06 290373 0 -1.96231e+06 312466 0 -1.97327e+06 334855 0 -1.98495e+06 357565 0 -1.99733e+06 380623 0 -2.01042e+06 404059 0 -2.02422e+06 427903 0 -2.03871e+06 452188 0 -2.05391e+06 476950 0 -2.06979e+06 502226 0 -2.08637e+06 528058 0 -2.10362e+06 554492 0 -2.12153e+06 581576 0 -2.1401e+06 609364 0 -2.1593e+06 637919 0 -2.17911e+06 667305 0 -2.19952e+06 697599 0 -2.22048e+06 728881 0 -1.87609e+06 0 0 -1.87646e+06 20913 0 -1.87758e+06 41846.2 0 -1.87942e+06 62818.5 0 -1.88201e+06 83848.5 0 -1.88532e+06 104955 0 -1.88938e+06 126158 0 -1.89417e+06 147477 0 -1.89969e+06 168931 0 -1.90596e+06 190542 0 -1.91296e+06 212329 0 -1.9207e+06 234316 0 -1.92918e+06 256524 0 -1.9384e+06 278977 0 -1.94836e+06 301699 0 -1.95905e+06 324715 0 -1.97049e+06 348053 0 -1.98266e+06 371740 0 -1.99556e+06 395807 0 -2.0092e+06 420285 0 -2.02357e+06 445208 0 -2.03866e+06 470613 0 -2.05447e+06 496539 0 -2.07099e+06 523028 0 -2.08821e+06 550127 0 -2.10612e+06 577886 0 -2.1247e+06 606362 0 -2.14394e+06 635614 0 -2.1638e+06 665713 0 -2.18427e+06 696733 0 -2.2053e+06 728763 0 -2.22685e+06 761891 0 -1.8693e+06 0 0 -1.8697e+06 21683.2 0 -1.87086e+06 43388.3 0 -1.87278e+06 65135.4 0 -1.87547e+06 86944.9 0 -1.87893e+06 108837 0 -1.88316e+06 130833 0 -1.88815e+06 152954 0 -1.89391e+06 175222 0 -1.90044e+06 197658 0 -1.90774e+06 220286 0 -1.9158e+06 243130 0 -1.92464e+06 266212 0 -1.93424e+06 289560 0 -1.94461e+06 313199 0 -1.95575e+06 337157 0 -1.96766e+06 361464 0 -1.98032e+06 386150 0 -1.99375e+06 411248 0 -2.00794e+06 436793 0 -2.02288e+06 462822 0 -2.03856e+06 489376 0 -2.05498e+06 516498 0 -2.07212e+06 544235 0 -2.08998e+06 572639 0 -2.10853e+06 601766 0 -2.12775e+06 631678 0 -2.14763e+06 662446 0 -2.16812e+06 694145 0 -2.18919e+06 726862 0 -2.21079e+06 760697 0 -2.23285e+06 795749 0 -1.86244e+06 0 0 -1.86285e+06 22463.3 0 -1.86406e+06 44950.2 0 -1.86607e+06 67482.2 0 -1.86887e+06 90081.5 0 -1.87247e+06 112770 0 -1.87687e+06 135570 0 -1.88207e+06 158505 0 -1.88806e+06 181598 0 -1.89486e+06 204873 0 -1.90245e+06 228355 0 -1.91084e+06 252068 0 -1.92004e+06 276040 0 -1.93003e+06 300299 0 -1.94081e+06 324872 0 -1.9524e+06 349790 0 -1.96477e+06 375086 0 -1.97794e+06 400791 0 -1.99189e+06 426943 0 -2.00662e+06 453580 0 -2.02213e+06 480742 0 -2.03839e+06 508474 0 -2.05541e+06 536823 0 -2.07317e+06 565843 0 -2.09165e+06 595589 0 -2.11082e+06 626125 0 -2.13067e+06 657521 0 -2.15115e+06 689854 0 -2.17222e+06 723210 0 -2.19383e+06 757685 0 -2.21592e+06 793394 0 -2.2384e+06 830446 0 -1.85551e+06 0 0 -1.85593e+06 23253.2 0 -1.85719e+06 46531.6 0 -1.85928e+06 69858.5 0 -1.86219e+06 93257.6 0 -1.86593e+06 116753 0 -1.87051e+06 140368 0 -1.87591e+06 164128 0 -1.88214e+06 188058 0 -1.88921e+06 212184 0 -1.8971e+06 236532 0 -1.90582e+06 261130 0 -1.91537e+06 286007 0 -1.92575e+06 311192 0 -1.93696e+06 336716 0 -1.94899e+06 362613 0 -1.96183e+06 388916 0 -1.9755e+06 415662 0 -1.98997e+06 442891 0 -2.00525e+06 470643 0 -2.02131e+06 498965 0 -2.03816e+06 527904 0 -2.05577e+06 557512 0 -2.07413e+06 587848 0 -2.09321e+06 618974 0 -2.11298e+06 650961 0 -2.13341e+06 683884 0 -2.15445e+06 717831 0 -2.17605e+06 752897 0 -2.19813e+06 789190 0 -2.22062e+06 826839 0 -2.2434e+06 865959 0 -1.8485e+06 0 0 -1.84894e+06 24052.6 0 -1.85025e+06 48132.2 0 -1.85241e+06 72263.8 0 -1.85544e+06 96472.9 0 -1.85933e+06 120785 0 -1.86408e+06 145226 0 -1.86969e+06 169822 0 -1.87616e+06 194601 0 -1.88349e+06 219590 0 -1.89169e+06 244818 0 -1.90074e+06 270314 0 -1.91065e+06 296110 0 -1.92142e+06 322237 0 -1.93304e+06 348729 0 -1.94552e+06 375622 0 -1.95884e+06 402952 0 -1.973e+06 430760 0 -1.98799e+06 459088 0 -2.0038e+06 487981 0 -2.02043e+06 517488 0 -2.03784e+06 547662 0 -2.05603e+06 578560 0 -2.07497e+06 610246 0 -2.09463e+06 642789 0 -2.11497e+06 676265 0 -2.13595e+06 710759 0 -2.1575e+06 746367 0 -2.17956e+06 783195 0 -2.20203e+06 821361 0 -2.22482e+06 861008 0 -2.24777e+06 902261 0 -1.84141e+06 0 0 -1.84188e+06 24861.4 0 -1.84323e+06 49751.7 0 -1.84547e+06 74697.7 0 -1.84861e+06 99726.5 0 -1.85265e+06 124866 0 -1.85757e+06 150143 0 -1.86339e+06 175586 0 -1.87011e+06 201225 0 -1.87771e+06 227090 0 -1.88621e+06 253210 0 -1.89559e+06 279618 0 -1.90587e+06 306348 0 -1.91703e+06 333432 0 -1.92907e+06 360909 0 -1.94199e+06 388816 0 -1.95578e+06 417193 0 -1.97043e+06 446083 0 -1.98594e+06 475532 0 -2.00229e+06 505589 0 -2.01946e+06 536307 0 -2.03743e+06 567744 0 -2.05619e+06 599962 0 -2.07569e+06 633031 0 -2.0959e+06 667024 0 -2.11678e+06 702028 0 -2.13825e+06 738133 0 -2.16026e+06 775446 0 -2.18271e+06 814082 0 -2.20548e+06 854171 0 -2.22843e+06 895867 0 -2.25139e+06 939307 0 -1.83426e+06 0 0 -1.83474e+06 25679.5 0 -1.83614e+06 51389.9 0 -1.83847e+06 77159.7 0 -1.84172e+06 103018 0 -1.8459e+06 128994 0 -1.851e+06 155118 0 -1.85703e+06 181419 0 -1.86399e+06 207930 0 -1.87186e+06 234682 0 -1.88066e+06 261708 0 -1.89038e+06 289041 0 -1.90102e+06 316719 0 -1.91257e+06 344776 0 -1.92503e+06 373254 0 -1.9384e+06 402192 0 -1.95266e+06 431635 0 -1.9678e+06 461627 0 -1.98382e+06 492219 0 -2.00069e+06 523464 0 -2.0184e+06 555419 0 -2.03692e+06 588146 0 -2.05623e+06 621713 0 -2.07627e+06 656196 0 -2.097e+06 691675 0 -2.11837e+06 728241 0 -2.1403e+06 765998 0 -2.16269e+06 805056 0 -2.18543e+06 845542 0 -2.20839e+06 887600 0 -2.23137e+06 931384 0 -2.25418e+06 977055 0 </DataArray> 
</PointData> 
<Points> 
<DataArray type="Float32" NumberOfComponents="3"> 