<?xml version="1.0"?> 
<VTKFile type="StructuredGrid" version="0.1"> 
<StructuredGrid WholeExtent="0 31 0 31 0 0"> 
<Piece Extent="0 31 0 31 0 0"> 
<PointData>
<DataArray type="Float32" Name="|E|" format="ascii" NumberOfComponents="3"> 
-2.38419e-07 1.80368e+07 0 -4.91738e-07 9.42044e+06 0 5.28991e-07 5.21164e+06 0 -4.32134e-07 3.42733e+06 0 2.23517e-07 2.81078e+06 0 -1.04308e-07 2.65122e+06 0 3.42727e-07 2.60089e+06 0 -1.19209e-07 2.529e+06 0 -1.93715e-07 2.41317e+06 0 2.38419e-07 2.27085e+06 0 -1.19209e-07 2.12354e+06 0 1.19209e-07 1.98393e+06 0 -2.98023e-08 1.85549e+06 0 2.98023e-08 1.73658e+06 0 1.19209e-07 1.62432e+06 0 -1.19209e-07 1.5165e+06 0 2.98023e-08 1.41196e+06 0 1.78814e-07 1.31011e+06 0 0 1.21052e+06 0 0 1.1128e+06 0 0 1.01658e+06 0 0 921546 0 0 827432 0 -1.19209e-07 734031 0 -5.96046e-08 641173 0 1.19209e-07 548718 0 -1.19209e-07 456559 0 1.78814e-07 364612 0 -1.19209e-07 272817 0 -2.38419e-07 181130 0 1.78814e-07 89565.3 0 4.76837e-07 2.09715e+06 0 -4.66004e+06 178039 0 -3.81954e+06 4.06343e+06 0 -2.83572e+06 5.18455e+06 0 -1.95442e+06 5.03567e+06 0 -1.26921e+06 4.47305e+06 0 -794520 3.88972e+06 0 -497268 3.42047e+06 0 -327075 3.07386e+06 0 -235778 2.81502e+06 0 -186965 2.60724e+06 0 -157955 2.42641e+06 0 -137211 2.26098e+06 0 -120190 2.10691e+06 0 -105663 1.96292e+06 0 -93388.1 1.82796e+06 0 -83129.6 1.7006e+06 0 -74493 1.57925e+06 0 -67060.1 1.46257e+06 0 -60502.2 1.34952e+06 0 -54596.3 1.23935e+06 0 -49189.2 1.13144e+06 0 -44164.7 1.02528e+06 0 -39428.8 920465 0 -34906.8 816646 0 -30539.8 713549 0 -26281.7 610953 0 -22097.2 508687 0 -17959.4 406624 0 -13848.1 304675 0 -9749.46 202797 0 -5648.86 101035 0 -1520.73 -1.93715e-05 0 -2.51737e+06 2.41457e+06 0 -3.06819e+06 1.61996e+06 0 -3.31397e+06 2.33022e+06 0 -3.17064e+06 3.23901e+06 0 -2.74894e+06 3.81595e+06 0 -2.1961e+06 3.99506e+06 0 -1.64434e+06 3.88583e+06 0 -1.17759e+06 3.62878e+06 0 -828579 3.32914e+06 0 -591628 3.04367e+06 0 -441161 2.7919e+06 0 -347665 2.57322e+06 0 -287235 2.38033e+06 0 -244586 2.20613e+06 0 -211740 2.04582e+06 0 -185147 1.89638e+06 0 -163204 1.75572e+06 0 -144893 1.62209e+06 0 -129351 1.49402e+06 0 -115859 1.37024e+06 0 -103876 1.24979e+06 0 -93015.5 1.13188e+06 0 -82990.8 1.01586e+06 0 -73580.7 901243 0 -64612.1 787593 0 -55951 674585 0 -47494.5 561961 0 -39165.3 449529 0 -30906.3 337153 0 -22677.4 224752 0 -14447.6 112321 0 -6189.32 6.07967e-06 0 -2.64392e+06 1.64238e+06 0 -2.52197e+06 1.96929e+06 0 -2.60679e+06 1.83406e+06 0 -2.79302e+06 1.95503e+06 0 -2.89772e+06 2.37012e+06 0 -2.8205e+06 2.86884e+06 0 -2.55202e+06 3.26255e+06 0 -2.15302e+06 3.46163e+06 0 -1.71073e+06 3.46891e+06 0 -1.30125e+06 3.33783e+06 0 -969168 3.13224e+06 0 -725695 2.90231e+06 0 -558888 2.67725e+06 0 -447385 2.46882e+06 0 -370963 2.27856e+06 0 -315371 2.10391e+06 0 -272421 1.94168e+06 0 -237911 1.78922e+06 0 -209540 1.64449e+06 0 -185748 1.50583e+06 0 -165333 1.37187e+06 0 -147381 1.24147e+06 0 -131226 1.11372e+06 0 -116376 987877 0 -102457 863346 0 -89182.6 739652 0 -76335.7 616422 0 -63752.9 493377 0 -51315.5 370315 0 -38940.7 247099 0 -26571.8 123661 0 -14173.3 -1.07288e-06 0 -2.39141e+06 1.74968e+06 0 -2.48305e+06 1.73506e+06 0 -2.48093e+06 1.85991e+06 0 -2.47721e+06 1.88022e+06 0 -2.54018e+06 1.91339e+06 0 -2.63156e+06 2.07986e+06 0 -2.66898e+06 2.37734e+06 0 -2.58305e+06 2.71943e+06 0 -2.35556e+06 3.00379e+06 0 -2.02101e+06 3.1636e+06 0 -1.64322e+06 3.1836e+06 0 -1.28508e+06 3.08865e+06 0 -987266 2.92112e+06 0 -762653 2.72101e+06 0 -603233 2.51573e+06 0 -491925 2.31896e+06 0 -412157 2.13476e+06 0 -352189 1.9625e+06 0 -305089 1.80012e+06 0 -266946 1.64563e+06 0 -235296 1.49733e+06 0 -208366 1.35378e+06 0 -184835 1.21378e+06 0 -163738 1.07633e+06 0 -144362 940611 0 -126175 805980 0 -108773 671925 0 -91856.1 538057 0 -75208 404092 0 -58678.4 269835 0 -42168.9 135161 0 -25624.2 7.15256e-07 0 -2.31139e+06 1.63083e+06 0 -2.32834e+06 1.67906e+06 0 -2.38068e+06 1.7107e+06 0 -2.41578e+06 1.78533e+06 0 -2.42095e+06 1.8455e+06 0 -2.43621e+06 1.89146e+06 0 -2.47899e+06 1.98048e+06 0 -2.52186e+06 2.15379e+06 0 -2.5085e+06 2.40019e+06 0 -2.39146e+06 2.66275e+06 0 -2.16083e+06 2.87224e+06 0 -1.84816e+06 2.98016e+06 0 -1.50816e+06 2.97405e+06 0 -1.19301e+06 2.8729e+06 0 -934258 2.71093e+06 0 -739212 2.52126e+06 0 -598501 2.32656e+06 0 -496993 2.13797e+06 0 -421419 1.95873e+06 0 -362870 1.78838e+06 0 -315980 1.62541e+06 0 -277371 1.46832e+06 0 -244685 1.31569e+06 0 -216200 1.16633e+06 0 -190658 1.01918e+06 0 -167138 873408 0 -144953 728348 0 -123595 583483 0 -102699 438436 0 -82011.5 292945 0 -61370.1 146838 0 -40686.4 -1.13249e-06 0 -2.23877e+06 1.61521e+06 0 -2.26282e+06 1.62954e+06 0 -2.28023e+06 1.65559e+06 0 -2.31189e+06 1.6873e+06 0 -2.34964e+06 1.73854e+06 0 -2.37041e+06 1.79864e+06 0 -2.38051e+06 1.85567e+06 0 -2.39783e+06 1.92712e+06 0 -2.42299e+06 2.0442e+06 0 -2.42628e+06 2.22164e+06 0 -2.36315e+06 2.43894e+06 0 -2.20344e+06 2.64686e+06 0 -1.95168e+06 2.7918e+06 0 -1.64536e+06 2.84045e+06 0 -1.33516e+06 2.79045e+06 0 -1.06218e+06 2.66413e+06 0 -845560 2.4932e+06 0 -684099 2.30475e+06 0 -565934 2.11519e+06 0 -477900 1.93133e+06 0 -410084 1.75455e+06 0 -356100 1.58413e+06 0 -311826 1.41885e+06 0 -274391 1.25745e+06 0 -241718 1.09875e+06 0 -212297 941716 0 -185022 785532 0 -159080 629545 0 -133888 473279 0 -109045 316399 0 -84292.2 158689 0 -59491.7 -4.76837e-07 0 -2.1905e+06 1.59825e+06 0 -2.20839e+06 1.61062e+06 0 -2.22901e+06 1.62496e+06 0 -2.24619e+06 1.64391e+06 0 -2.2675e+06 1.67109e+06 0 -2.29764e+06 1.71028e+06 0 -2.32329e+06 1.76195e+06 0 -2.33769e+06 1.81965e+06 0 -2.34758e+06 1.88675e+06 0 -2.35947e+06 1.98035e+06 0 -2.36087e+06 2.11781e+06 0 -2.31887e+06 2.29673e+06 0 -2.19934e+06 2.48654e+06 0 -1.99131e+06 2.63985e+06 0 -1.71696e+06 2.71552e+06 0 -1.42048e+06 2.69727e+06 0 -1.14584e+06 2.5965e+06 0 -919327 2.44084e+06 0 -745983 2.2586e+06 0 -617229 2.06919e+06 0 -520788 1.88191e+06 0 -446505 1.69959e+06 0 -387460 1.52227e+06 0 -339028 1.34908e+06 0 -297954 1.17889e+06 0 -261885 1.01062e+06 0 -229116 843281 0 -198404 676114 0 -168859 508538 0 -139867 340152 0 -111036 170696 0 -82157.4 4.17233e-07 0 -2.15505e+06 1.59071e+06 0 -2.16926e+06 1.59761e+06 0 -2.18497e+06 1.60794e+06 0 -2.20319e+06 1.62112e+06 0 -2.22022e+06 1.6371e+06 0 -2.23738e+06 1.66022e+06 0 -2.26038e+06 1.6926e+06 0 -2.28433e+06 1.73668e+06 0 -2.30117e+06 1.79071e+06 0 -2.31008e+06 1.85488e+06 0 -2.31518e+06 1.93789e+06 0 -2.31121e+06 2.05348e+06 0 -2.27487e+06 2.2058e+06 0 -2.17464e+06 2.37605e+06 0 -1.99301e+06 2.52447e+06 0 -1.74223e+06 2.60873e+06 0 -1.46017e+06 2.60526e+06 0 -1.19039e+06 2.51813e+06 0 -962395 2.37125e+06 0 -784814 2.1926e+06 0 -651334 2.00272e+06 0 -550664 1.81211e+06 0 -472866 1.62446e+06 0 -410875 1.4403e+06 0 -359795 1.25905e+06 0 -316133 1.07974e+06 0 -277359 901351 0 -241643 723032 0 -207672 544117 0 -174545 364148 0 -141685 182837 0 -108784 -2.98023e-07 0 -2.12895e+06 1.58975e+06 0 -2.14064e+06 1.59281e+06 0 -2.15331e+06 1.59805e+06 0 -2.16722e+06 1.60651e+06 0 -2.1833e+06 1.61827e+06 0 -2.19961e+06 1.63274e+06 0 -2.21518e+06 1.65305e+06 0 -2.23366e+06 1.68123e+06 0 -2.25413e+06 1.71993e+06 0 -2.27062e+06 1.76979e+06 0 -2.27928e+06 1.83104e+06 0 -2.28082e+06 1.90846e+06 0 -2.27166e+06 2.01201e+06 0 -2.23407e+06 2.1471e+06 0 -2.14029e+06 2.30077e+06 0 -1.9714e+06 2.43878e+06 0 -1.73494e+06 2.51992e+06 0 -1.46471e+06 2.51794e+06 0 -1.20281e+06 2.4335e+06 0 -979198 2.28836e+06 0 -803505 2.1097e+06 0 -670367 1.91782e+06 0 -569252 1.72324e+06 0 -490670 1.52985e+06 0 -427662 1.33845e+06 0 -375255 1.14859e+06 0 -329852 959435 0 -288845 770107 0 -250367 579900 0 -213127 388323 0 -176301 195083 0 -139452 1.78814e-07 0 -2.10935e+06 1.59228e+06 0 -2.11902e+06 1.59305e+06 0 -2.12967e+06 1.59524e+06 0 -2.14123e+06 1.59928e+06 0 -2.15377e+06 1.60621e+06 0 -2.16809e+06 1.61655e+06 0 -2.18326e+06 1.62996e+06 0 -2.1979e+06 1.64848e+06 0 -2.21372e+06 1.67403e+06 0 -2.23096e+06 1.70918e+06 0 -2.24562e+06 1.75573e+06 0 -2.25315e+06 1.81451e+06 0 -2.25187e+06 1.88867e+06 0 -2.23763e+06 1.98552e+06 0 -2.19513e+06 2.10957e+06 0 -2.09966e+06 2.24981e+06 0 -1.93355e+06 2.37472e+06 0 -1.70366e+06 2.44472e+06 0 -1.44235e+06 2.43398e+06 0 -1.19008e+06 2.34311e+06 0 -975194 2.19354e+06 0 -806168 2.0114e+06 0 -677447 1.81568e+06 0 -579005 1.61604e+06 0 -501898 1.41608e+06 0 -439419 1.21657e+06 0 -386657 1.01716e+06 0 -340029 817111 0 -296952 615752 0 -255633 412604 0 -214926 207400 0 -174222 3.57628e-07 0 -2.09426e+06 1.59709e+06 0 -2.10245e+06 1.59618e+06 0 -2.11141e+06 1.59634e+06 0 -2.12128e+06 1.59782e+06 0 -2.132e+06 1.601e+06 0 -2.14355e+06 1.60678e+06 0 -2.15649e+06 1.61589e+06 0 -2.17044e+06 1.62844e+06 0 -2.18417e+06 1.64584e+06 0 -2.19823e+06 1.66981e+06 0 -2.21284e+06 1.70284e+06 0 -2.22506e+06 1.74722e+06 0 -2.23046e+06 1.80434e+06 0 -2.22588e+06 1.87674e+06 0 -2.20588e+06 1.96994e+06 0 -2.15565e+06 2.08671e+06 0 -2.05271e+06 2.21533e+06 0 -1.88226e+06 2.32476e+06 0 -1.65355e+06 2.37716e+06 0 -1.3995e+06 2.34953e+06 0 -1.15869e+06 2.24524e+06 0 -956078 2.0865e+06 0 -797375 1.89807e+06 0 -676126 1.69674e+06 0 -582694 1.49069e+06 0 -508708 1.28293e+06 0 -447781 1.07407e+06 0 -395166 863778 0 -347401 651523 0 -302058 436909 0 -257575 219753 0 -213130 -5.96046e-07 0 -2.08223e+06 1.60328e+06 0 -2.08941e+06 1.60123e+06 0 -2.09717e+06 1.59988e+06 0 -2.10563e+06 1.59952e+06 0 -2.1149e+06 1.60043e+06 0 -2.12496e+06 1.60299e+06 0 -2.13577e+06 1.60796e+06 0 -2.14766e+06 1.61614e+06 0 -2.16046e+06 1.62803e+06 0 -2.17321e+06 1.64477e+06 0 -2.18584e+06 1.66794e+06 0 -2.19818e+06 1.69993e+06 0 -2.20768e+06 1.74325e+06 0 -2.21005e+06 1.79966e+06 0 -2.20112e+06 1.87148e+06 0 -2.17388e+06 1.96287e+06 0 -2.11302e+06 2.07422e+06 0 -1.99798e+06 2.19123e+06 0 -1.81837e+06 2.28189e+06 0 -1.58806e+06 2.31066e+06 0 -1.34159e+06 2.25975e+06 0 -1.11472e+06 2.13717e+06 0 -927406 1.96621e+06 0 -781669 1.76942e+06 0 -669970 1.56079e+06 0 -583068 1.34677e+06 0 -513146 1.12964e+06 0 -454172 909803 0 -401645 687046 0 -352362 461152 0 -304239 232104 0 -256185 7.7486e-07 0 -2.07209e+06 1.6102e+06 0 -2.07868e+06 1.60746e+06 0 -2.08569e+06 1.60511e+06 0 -2.09319e+06 1.60338e+06 0 -2.1013e+06 1.60258e+06 0 -2.11012e+06 1.60303e+06 0 -2.11966e+06 1.60513e+06 0 -2.12987e+06 1.60956e+06 0 -2.14094e+06 1.61712e+06 0 -2.15271e+06 1.62859e+06 0 -2.16442e+06 1.64506e+06 0 -2.17566e+06 1.66804e+06 0 -2.18581e+06 1.69989e+06 0 -2.19225e+06 1.74317e+06 0 -2.19067e+06 1.79982e+06 0 -2.17592e+06 1.87201e+06 0 -2.13924e+06 1.96255e+06 0 -2.06447e+06 2.06864e+06 0 -1.93356e+06 2.17198e+06 0 -1.74219e+06 2.23917e+06 0 -1.51035e+06 2.2386e+06 0 -1.27384e+06 2.1598e+06 0 -1.06395e+06 2.01622e+06 0 -894355 1.83138e+06 0 -763247 1.62471e+06 0 -662251 1.4071e+06 0 -582569 1.18328e+06 0 -516891 954847 0 -459567 722138 0 -406470 485245 0 -354880 244417 0 -303372 -3.57628e-07 0 -2.06291e+06 1.61741e+06 0 -2.06931e+06 1.6143e+06 0 -2.07594e+06 1.61135e+06 0 -2.0829e+06 1.60872e+06 0 -2.09027e+06 1.60666e+06 0 -2.09815e+06 1.6055e+06 0 -2.10665e+06 1.60559e+06 0 -2.11577e+06 1.60736e+06 0 -2.12549e+06 1.61146e+06 0 -2.13586e+06 1.61871e+06 0 -2.14669e+06 1.63005e+06 0 -2.15728e+06 1.64662e+06 0 -2.16701e+06 1.66997e+06 0 -2.17476e+06 1.70244e+06 0 -2.17761e+06 1.74658e+06 0 -2.17092e+06 1.80431e+06 0 -2.14842e+06 1.87756e+06 0 -2.0994e+06 1.96729e+06 0 -2.00721e+06 2.06638e+06 0 -1.85775e+06 2.15176e+06 0 -1.65465e+06 2.18962e+06 0 -1.42422e+06 2.15473e+06 0 -1.2017e+06 2.04554e+06 0 -1.01182e+06 1.88016e+06 0 -861525 1.68074e+06 0 -745755 1.46282e+06 0 -655726 1.23434e+06 0 -583085 998545 0 -520990 756612 0 -464270 509101 0 -409431 256657 0 -354649 2.38419e-07 0 -2.05393e+06 1.62461e+06 0 -2.06051e+06 1.6214e+06 0 -2.06714e+06 1.61813e+06 0 -2.07391e+06 1.61495e+06 0 -2.08091e+06 1.61207e+06 0 -2.08825e+06 1.60973e+06 0 -2.096e+06 1.60827e+06 0 -2.10426e+06 1.60808e+06 0 -2.11305e+06 1.60964e+06 0 -2.12233e+06 1.6136e+06 0 -2.13206e+06 1.62082e+06 0 -2.14195e+06 1.63235e+06 0 -2.1513e+06 1.64942e+06 0 -2.15924e+06 1.67367e+06 0 -2.16413e+06 1.70747e+06 0 -2.16254e+06 1.75324e+06 0 -2.1492e+06 1.81274e+06 0 -2.1164e+06 1.88721e+06 0 -2.05152e+06 1.97485e+06 0 -1.93862e+06 2.06301e+06 0 -1.76988e+06 2.12406e+06 0 -1.55814e+06 2.12636e+06 0 -1.33456e+06 2.05384e+06 0 -1.13073e+06 1.91397e+06 0 -963219 1.72732e+06 0 -832779 1.51288e+06 0 -732133 1.28215e+06 0 -652414 1.04052e+06 0 -585677 790278 0 -525605 532639 0 -467797 268795 0 -409945 -5.96046e-08 0 -2.04452e+06 1.63156e+06 0 -2.05163e+06 1.62848e+06 0 -2.0586e+06 1.62515e+06 0 -2.06554e+06 1.6217e+06 0 -2.07252e+06 1.61829e+06 0 -2.07965e+06 1.61516e+06 0 -2.08702e+06 1.61257e+06 0 -2.09471e+06 1.61087e+06 0 -2.10281e+06 1.61049e+06 0 -2.11131e+06 1.61196e+06 0 -2.12015e+06 1.61597e+06 0 -2.12922e+06 1.62344e+06 0 -2.1381e+06 1.6355e+06 0 -2.14599e+06 1.65349e+06 0 -2.1517e+06 1.6792e+06 0 -2.15297e+06 1.71498e+06 0 -2.14567e+06 1.76299e+06 0 -2.12358e+06 1.82458e+06 0 -2.0772e+06 1.89958e+06 0 -1.99263e+06 1.98196e+06 0 -1.85695e+06 2.05278e+06 0 -1.67112e+06 2.08178e+06 0 -1.45702e+06 2.04328e+06 0 -1.24718e+06 1.93228e+06 0 -1.06621e+06 1.7633e+06 0 -922207 1.55633e+06 0 -811128 1.32607e+06 0 -724434 1.0804e+06 0 -653316 822956 0 -590275 555791 0 -529855 280811 0 -469168 -1.78814e-07 0 -2.03413e+06 1.63811e+06 0 -2.0421e+06 1.63536e+06 0 -2.04976e+06 1.63218e+06 0 -2.05721e+06 1.62868e+06 0 -2.06451e+06 1.62501e+06 0 -2.07177e+06 1.62137e+06 0 -2.07908e+06 1.618e+06 0 -2.08652e+06 1.61518e+06 0 -2.0942e+06 1.61329e+06 0 -2.10215e+06 1.61282e+06 0 -2.11037e+06 1.61433e+06 0 -2.11875e+06 1.61859e+06 0 -2.12707e+06 1.62659e+06 0 -2.13475e+06 1.63955e+06 0 -2.14081e+06 1.65894e+06 0 -2.1436e+06 1.68667e+06 0 -2.14012e+06 1.72497e+06 0 -2.12532e+06 1.77558e+06 0 -2.09164e+06 1.83896e+06 0 -2.0278e+06 1.91225e+06 0 -1.92023e+06 1.9837e+06 0 -1.76222e+06 2.02863e+06 0 -1.56518e+06 2.01799e+06 0 -1.35741e+06 1.93597e+06 0 -1.16806e+06 1.78816e+06 0 -1.01265e+06 1.59242e+06 0 -891880 1.36555e+06 0 -798591 1.11784e+06 0 -723527 854488 0 -658035 578510 0 -595455 292696 0 -532200 2.38419e-07 0 -2.0223e+06 1.6441e+06 0 -2.03145e+06 1.64188e+06 0 -2.04013e+06 1.63905e+06 0 -2.04842e+06 1.63571e+06 0 -2.05637e+06 1.63199e+06 0 -2.06409e+06 1.62809e+06 0 -2.07165e+06 1.62419e+06 0 -2.07917e+06 1.62057e+06 0 -2.08672e+06 1.61755e+06 0 -2.09438e+06 1.61554e+06 0 -2.10219e+06 1.61507e+06 0 -2.11008e+06 1.61679e+06 0 -2.11791e+06 1.62152e+06 0 -2.12528e+06 1.63036e+06 0 -2.13145e+06 1.64463e+06 0 -2.13509e+06 1.66591e+06 0 -2.13395e+06 1.69617e+06 0 -2.1241e+06 1.73737e+06 0 -2.09934e+06 1.79046e+06 0 -2.05048e+06 1.85413e+06 0 -1.96522e+06 1.9212e+06 0 -1.83326e+06 1.97334e+06 0 -1.65726e+06 1.98291e+06 0 -1.45837e+06 1.92718e+06 0 -1.26628e+06 1.80216e+06 0 -1.10253e+06 1.62078e+06 0 -973409 1.40015e+06 0 -874227 1.15255e+06 0 -795856 884746 0 -728594 600777 0 -664427 304463 0 -598909 -1.78814e-07 0 -2.00866e+06 1.64939e+06 0 -2.01928e+06 1.64789e+06 0 -2.02929e+06 1.6456e+06 0 -2.03873e+06 1.64262e+06 0 -2.04767e+06 1.63906e+06 0 -2.05616e+06 1.6351e+06 0 -2.06431e+06 1.6309e+06 0 -2.0722e+06 1.62673e+06 0 -2.07992e+06 1.62286e+06 0 -2.08757e+06 1.61966e+06 0 -2.0952e+06 1.6176e+06 0 -2.10281e+06 1.61726e+06 0 -2.11028e+06 1.61936e+06 0 -2.11737e+06 1.62484e+06 0 -2.1235e+06 1.63487e+06 0 -2.12763e+06 1.65089e+06 0 -2.12797e+06 1.67456e+06 0 -2.12146e+06 1.70776e+06 0 -2.10303e+06 1.75183e+06 0 -2.06507e+06 1.80637e+06 0 -1.99696e+06 1.86689e+06 0 -1.8875e+06 1.92028e+06 0 -1.73342e+06 1.94279e+06 0 -1.54817e+06 1.90885e+06 0 -1.3587e+06 1.80629e+06 0 -1.19025e+06 1.64142e+06 0 -1.05464e+06 1.42962e+06 0 -950602 1.18432e+06 0 -869779 913649 0 -801619 622611 0 -736579 316146 0 -669149 1.19209e-07 0 -1.99291e+06 1.65381e+06 0 -2.00526e+06 1.65326e+06 0 -2.01688e+06 1.65172e+06 0 -2.02779e+06 1.64929e+06 0 -2.03801e+06 1.64608e+06 0 -2.04761e+06 1.64225e+06 0 -2.05665e+06 1.63796e+06 0 -2.06522e+06 1.63344e+06 0 -2.07342e+06 1.62895e+06 0 -2.08133e+06 1.62484e+06 0 -2.08904e+06 1.62152e+06 0 -2.09657e+06 1.6195e+06 0 -2.10388e+06 1.61944e+06 0 -2.11077e+06 1.62215e+06 0 -2.11682e+06 1.62867e+06 0 -2.12123e+06 1.64029e+06 0 -2.12254e+06 1.6585e+06 0 -2.1183e+06 1.68498e+06 0 -2.1044e+06 1.72121e+06 0 -2.07447e+06 1.76742e+06 0 -2.01942e+06 1.82076e+06 0 -1.92852e+06 1.87186e+06 0 -1.79515e+06 1.90142e+06 0 -1.62612e+06 1.88414e+06 0 -1.44369e+06 1.80215e+06 0 -1.27428e+06 1.65475e+06 0 -1.13448e+06 1.45391e+06 0 -1.02692e+06 1.21304e+06 0 -944716 941168 0 -876733 644075 0 -811710 327810 0 -742775 0 0 -1.97481e+06 1.65718e+06 0 -1.98912e+06 1.65782e+06 0 -2.00262e+06 1.65726e+06 0 -2.01527e+06 1.65559e+06 0 -2.02709e+06 1.65293e+06 0 -2.03809e+06 1.64941e+06 0 -2.04834e+06 1.64521e+06 0 -2.05791e+06 1.64054e+06 0 -2.06687e+06 1.63564e+06 0 -2.07534e+06 1.63084e+06 0 -2.08339e+06 1.6265e+06 0 -2.09107e+06 1.62311e+06 0 -2.09839e+06 1.62125e+06 0 -2.10522e+06 1.62166e+06 0 -2.11125e+06 1.62525e+06 0 -2.11584e+06 1.63318e+06 0 -2.11781e+06 1.64679e+06 0 -2.11516e+06 1.66761e+06 0 -2.10453e+06 1.69708e+06 0 -2.08056e+06 1.73582e+06 0 -2.0355e+06 1.78208e+06 0 -1.95953e+06 1.82906e+06 0 -1.8446e+06 1.86139e+06 0 -1.69252e+06 1.8559e+06 0 -1.52029e+06 1.79161e+06 0 -1.35341e+06 1.66156e+06 0 -1.21187e+06 1.47319e+06 0 -1.10235e+06 1.2387e+06 0 -1.02004e+06 967335 0 -953524 665285 0 -889615 339557 0 -819646 -5.96046e-08 0 -1.95421e+06 1.6593e+06 0 -1.97067e+06 1.66139e+06 0 -1.98626e+06 1.66206e+06 0 -2.00092e+06 1.66139e+06 0 -2.0146e+06 1.65949e+06 0 -2.02732e+06 1.65649e+06 0 -2.03908e+06 1.65257e+06 0 -2.04995e+06 1.64791e+06 0 -2.05999e+06 1.64278e+06 0 -2.0693e+06 1.63747e+06 0 -2.07795e+06 1.63233e+06 0 -2.08604e+06 1.62781e+06 0 -2.09358e+06 1.62444e+06 0 -2.10051e+06 1.6229e+06 0 -2.1066e+06 1.62402e+06 0 -2.11135e+06 1.62882e+06 0 -2.11381e+06 1.63853e+06 0 -2.11231e+06 1.65454e+06 0 -2.10407e+06 1.6782e+06 0 -2.08459e+06 1.71032e+06 0 -2.0472e+06 1.74991e+06 0 -1.98315e+06 1.79194e+06 0 -1.88405e+06 1.82424e+06 0 -1.74838e+06 1.82643e+06 0 -1.58822e+06 1.77658e+06 0 -1.42673e+06 1.66286e+06 0 -1.28588e+06 1.48782e+06 0 -1.1761e+06 1.26138e+06 0 -1.09509e+06 992242 0 -1.03154e+06 686415 0 -970088 351538 0 -899647 1.19209e-07 0 -1.93104e+06 1.65995e+06 0 -1.94978e+06 1.66378e+06 0 -1.96764e+06 1.66595e+06 0 -1.98452e+06 1.66654e+06 0 -2.00034e+06 1.66564e+06 0 -2.01504e+06 1.66337e+06 0 -2.02862e+06 1.65991e+06 0 -2.04109e+06 1.65546e+06 0 -2.05251e+06 1.65026e+06 0 -2.06295e+06 1.6446e+06 0 -2.07249e+06 1.63884e+06 0 -2.08123e+06 1.63338e+06 0 -2.08921e+06 1.62874e+06 0 -2.09641e+06 1.62554e+06 0 -2.10269e+06 1.62454e+06 0 -2.10764e+06 1.62666e+06 0 -2.11049e+06 1.63303e+06 0 -2.10988e+06 1.6449e+06 0 -2.10343e+06 1.66355e+06 0 -2.08736e+06 1.68985e+06 0 -2.05592e+06 1.7233e+06 0 -2.00139e+06 1.76015e+06 0 -1.91559e+06 1.79069e+06 0 -1.79503e+06 1.79737e+06 0 -1.6477e+06 1.75877e+06 0 -1.49373e+06 1.65977e+06 0 -1.35577e+06 1.49832e+06 0 -1.24743e+06 1.28127e+06 0 -1.1692e+06 1.01603e+06 0 -1.11031e+06 707694 0 -1.05294e+06 363956 0 -982699 -2.38419e-07 0 -1.90533e+06 1.65887e+06 0 -1.9264e+06 1.66475e+06 0 -1.94666e+06 1.66873e+06 0 -1.96593e+06 1.67087e+06 0 -1.9841e+06 1.67123e+06 0 -2.00105e+06 1.66994e+06 0 -2.01673e+06 1.66717e+06 0 -2.03111e+06 1.6631e+06 0 -2.0442e+06 1.658e+06 0 -2.05607e+06 1.65215e+06 0 -2.06678e+06 1.64591e+06 0 -2.07643e+06 1.63968e+06 0 -2.08508e+06 1.63395e+06 0 -2.09276e+06 1.62931e+06 0 -2.09935e+06 1.62646e+06 0 -2.10458e+06 1.62626e+06 0 -2.10782e+06 1.62973e+06 0 -2.1079e+06 1.63802e+06 0 -2.10285e+06 1.65232e+06 0 -2.08942e+06 1.67351e+06 0 -2.06264e+06 1.7014e+06 0 -2.01571e+06 1.73315e+06 0 -1.94098e+06 1.76093e+06 0 -1.8339e+06 1.76977e+06 0 -1.69933e+06 1.73958e+06 0 -1.55426e+06 1.65342e+06 0 -1.421e+06 1.50526e+06 0 -1.31568e+06 1.29863e+06 0 -1.24171e+06 1.03889e+06 0 -1.18931e+06 729411 0 -1.13798e+06 377080 0 -1.06878e+06 -2.98023e-07 0 -1.87718e+06 1.65583e+06 0 -1.90056e+06 1.66408e+06 0 -1.92327e+06 1.67019e+06 0 -1.94507e+06 1.67419e+06 0 -1.96576e+06 1.67612e+06 0 -1.98519e+06 1.67607e+06 0 -2.00323e+06 1.67422e+06 0 -2.0198e+06 1.67075e+06 0 -2.03487e+06 1.66592e+06 0 -2.04846e+06 1.66004e+06 0 -2.06063e+06 1.65346e+06 0 -2.07145e+06 1.6466e+06 0 -2.08102e+06 1.63993e+06 0 -2.08937e+06 1.63402e+06 0 -2.09645e+06 1.62955e+06 0 -2.10207e+06 1.6273e+06 0 -2.1057e+06 1.62822e+06 0 -2.1064e+06 1.63338e+06 0 -2.10246e+06 1.64387e+06 0 -2.0911e+06 1.66056e+06 0 -2.06802e+06 1.68344e+06 0 -2.0272e+06 1.71034e+06 0 -1.96164e+06 1.73485e+06 0 -1.86635e+06 1.74422e+06 0 -1.74394e+06 1.72008e+06 0 -1.60845e+06 1.64478e+06 0 -1.48125e+06 1.50928e+06 0 -1.38031e+06 1.31376e+06 0 -1.31198e+06 1.06102e+06 0 -1.268e+06 751903 0 -1.22506e+06 391261 0 -1.15798e+06 1.78814e-07 0 -1.84677e+06 1.65058e+06 0 -1.87239e+06 1.66152e+06 0 -1.89754e+06 1.67009e+06 0 -1.9219e+06 1.67629e+06 0 -1.94525e+06 1.68011e+06 0 -1.96734e+06 1.68162e+06 0 -1.98797e+06 1.68095e+06 0 -2.007e+06 1.67831e+06 0 -2.02434e+06 1.67395e+06 0 -2.03995e+06 1.6682e+06 0 -2.05386e+06 1.66142e+06 0 -2.06614e+06 1.65405e+06 0 -2.07687e+06 1.64657e+06 0 -2.08611e+06 1.63954e+06 0 -2.09386e+06 1.6336e+06 0 -2.09997e+06 1.62953e+06 0 -2.10406e+06 1.62819e+06 0 -2.10533e+06 1.63057e+06 0 -2.10232e+06 1.6377e+06 0 -2.09263e+06 1.6504e+06 0 -2.07251e+06 1.66879e+06 0 -2.03665e+06 1.69115e+06 0 -1.9787e+06 1.71218e+06 0 -1.89359e+06 1.721e+06 0 -1.7824e+06 1.701e+06 0 -1.65666e+06 1.63471e+06 0 -1.53639e+06 1.51098e+06 0 -1.44092e+06 1.32695e+06 0 -1.37941e+06 1.08263e+06 0 -1.34577e+06 775542 0 -1.31403e+06 406942 0 -1.25047e+06 0 0 -1.81439e+06 1.64294e+06 0 -1.84209e+06 1.65686e+06 0 -1.86957e+06 1.66822e+06 0 -1.89649e+06 1.67697e+06 0 -1.92254e+06 1.68302e+06 0 -1.94742e+06 1.68641e+06 0 -1.97085e+06 1.68724e+06 0 -1.99258e+06 1.68569e+06 0 -2.01246e+06 1.68203e+06 0 -2.03039e+06 1.67658e+06 0 -2.04635e+06 1.66975e+06 0 -2.06036e+06 1.66199e+06 0 -2.0725e+06 1.65379e+06 0 -2.08285e+06 1.64575e+06 0 -2.09145e+06 1.63849e+06 0 -2.09821e+06 1.63275e+06 0 -2.10283e+06 1.62936e+06 0 -2.10466e+06 1.62926e+06 0 -2.10246e+06 1.63339e+06 0 -2.09414e+06 1.64254e+06 0 -2.07643e+06 1.65688e+06 0 -2.04462e+06 1.67505e+06 0 -1.993e+06 1.69259e+06 0 -1.91663e+06 1.70013e+06 0 -1.81559e+06 1.68282e+06 0 -1.69935e+06 1.62386e+06 0 -1.5865e+06 1.51088e+06 0 -1.49723e+06 1.3385e+06 0 -1.44348e+06 1.1039e+06 0 -1.42197e+06 800718 0 -1.40474e+06 424683 0 -1.34664e+06 -2.98023e-07 0 -1.78035e+06 1.63274e+06 0 -1.8099e+06 1.6499e+06 0 -1.83955e+06 1.66436e+06 0 -1.86894e+06 1.67599e+06 0 -1.89769e+06 1.68465e+06 0 -1.92543e+06 1.69028e+06 0 -1.95179e+06 1.69294e+06 0 -1.97644e+06 1.69278e+06 0 -1.99913e+06 1.69006e+06 0 -2.01966e+06 1.68513e+06 0 -2.03795e+06 1.67839e+06 0 -2.05397e+06 1.67036e+06 0 -2.0678e+06 1.66155e+06 0 -2.07949e+06 1.65257e+06 0 -2.08913e+06 1.64409e+06 0 -2.09668e+06 1.63681e+06 0 -2.10192e+06 1.63155e+06 0 -2.10434e+06 1.62919e+06 0 -2.10288e+06 1.63062e+06 0 -2.09572e+06 1.63658e+06 0 -2.07999e+06 1.64727e+06 0 -2.05154e+06 1.66159e+06 0 -2.00519e+06 1.67572e+06 0 -1.93631e+06 1.68154e+06 0 -1.84434e+06 1.66582e+06 0 -1.7371e+06 1.61274e+06 0 -1.63174e+06 1.50943e+06 0 -1.54908e+06 1.34867e+06 0 -1.50372e+06 1.12496e+06 0 -1.49588e+06 827810 0 -1.49702e+06 445185 0 -1.44712e+06 1.78814e-07 0 -1.74504e+06 1.61993e+06 0 -1.77617e+06 1.64051e+06 0 -1.80776e+06 1.65833e+06 0 -1.83943e+06 1.67317e+06 0 -1.87079e+06 1.68478e+06 0 -1.90139e+06 1.69302e+06 0 -1.93078e+06 1.69788e+06 0 -1.95852e+06 1.69945e+06 0 -1.98424e+06 1.69796e+06 0 -2.00764e+06 1.69376e+06 0 -2.02855e+06 1.68731e+06 0 -2.04689e+06 1.67912e+06 0 -2.06266e+06 1.66979e+06 0 -2.07594e+06 1.65997e+06 0 -2.08682e+06 1.65032e+06 0 -2.09531e+06 1.6416e+06 0 -2.10129e+06 1.6346e+06 0 -2.10433e+06 1.63016e+06 0 -2.10357e+06 1.62912e+06 0 -2.09742e+06 1.63219e+06 0 -2.08336e+06 1.63958e+06 0 -2.05768e+06 1.65036e+06 0 -2.01576e+06 1.66123e+06 0 -1.95329e+06 1.66508e+06 0 -1.86934e+06 1.65012e+06 0 -1.77047e+06 1.60169e+06 0 -1.67241e+06 1.50699e+06 0 -1.59642e+06 1.35769e+06 0 -1.5598e+06 1.14588e+06 0 -1.56669e+06 857138 0 -1.59059e+06 469331 0 -1.5529e+06 -2.38419e-07 0 -1.70884e+06 1.60446e+06 0 -1.74124e+06 1.62859e+06 0 -1.77449e+06 1.64999e+06 0 -1.80822e+06 1.66832e+06 0 -1.84203e+06 1.68322e+06 0 -1.87542e+06 1.69445e+06 0 -1.90785e+06 1.70189e+06 0 -1.93879e+06 1.70555e+06 0 -1.96773e+06 1.70561e+06 0 -1.99426e+06 1.70242e+06 0 -2.01808e+06 1.69644e+06 0 -2.03901e+06 1.68825e+06 0 -2.057e+06 1.6785e+06 0 -2.07212e+06 1.66788e+06 0 -2.08444e+06 1.65714e+06 0 -2.09404e+06 1.64704e+06 0 -2.10087e+06 1.63838e+06 0 -2.1046e+06 1.63199e+06 0 -2.10452e+06 1.62868e+06 0 -2.09927e+06 1.6291e+06 0 -2.08661e+06 1.63348e+06 0 -2.06327e+06 1.64101e+06 0 -2.0251e+06 1.64879e+06 0 -1.96812e+06 1.65054e+06 0 -1.89123e+06 1.63574e+06 0 -1.80001e+06 1.59095e+06 0 -1.70887e+06 1.50383e+06 0 -1.63928e+06 1.36569e+06 0 -1.61147e+06 1.16669e+06 0 -1.63354e+06 888927 0 -1.68497e+06 498205 0 -1.66553e+06 -1.19209e-07 0 -1.67207e+06 1.58649e+06 0 -1.7055e+06 1.61419e+06 0 -1.74007e+06 1.63934e+06 0 -1.77558e+06 1.66136e+06 0 -1.81161e+06 1.67985e+06 0 -1.84764e+06 1.69441e+06 0 -1.88307e+06 1.7048e+06 0 -1.91726e+06 1.71093e+06 0 -1.94958e+06 1.7129e+06 0 -1.97946e+06 1.71101e+06 0 -2.00645e+06 1.70574e+06 0 -2.03026e+06 1.69771e+06 0 -2.05076e+06 1.68763e+06 0 -2.06796e+06 1.67629e+06 0 -2.08195e+06 1.66449e+06 0 -2.09283e+06 1.65305e+06 0 -2.10062e+06 1.6428e+06 0 -2.1051e+06 1.63456e+06 0 -2.1057e+06 1.62912e+06 0 -2.10126e+06 1.6271e+06 0 -2.08983e+06 1.62873e+06 0 -2.06847e+06 1.63326e+06 0 -2.03347e+06 1.63813e+06 0 -1.98121e+06 1.63775e+06 0 -1.91052e+06 1.62268e+06 0 -1.8262e+06 1.5807e+06 0 -1.74155e+06 1.50017e+06 0 -1.67772e+06 1.3728e+06 0 -1.65865e+06 1.18736e+06 0 -1.69556e+06 923183 0 -1.77928e+06 533226 0 -1.78736e+06 4.76837e-07 0 </DataArray> 
</PointData> 
<Points> 
<DataArray type="Float32" NumberOfComponents="3"> 