<?xml version="1.0"?> 
<VTKFile type="StructuredGrid" version="0.1"> 
<StructuredGrid WholeExtent="0 31 0 31 0 0"> 
<Piece Extent="0 31 0 31 0 0"> 
<PointData>
<DataArray type="Float32" Name="|E|" format="ascii" NumberOfComponents="3"> 
-2.6715e+06 4.76342e+06 0 -2.66595e+06 4.94438e+06 0 -2.59272e+06 5.0067e+06 0 -2.49681e+06 5.02555e+06 0 -2.39383e+06 5.02794e+06 0 -2.28991e+06 5.02503e+06 0 -2.1873e+06 5.02125e+06 0 -2.08679e+06 5.01837e+06 0 -1.98854e+06 5.01694e+06 0 -1.89248e+06 5.01698e+06 0 -1.79843e+06 5.01828e+06 0 -1.70623e+06 5.02054e+06 0 -1.61572e+06 5.02344e+06 0 -1.52677e+06 5.02667e+06 0 -1.43928e+06 5.02996e+06 0 -1.35317e+06 5.03306e+06 0 -1.26839e+06 5.03577e+06 0 -1.18493e+06 5.03793e+06 0 -1.10277e+06 5.03939e+06 0 -1.02192e+06 5.04008e+06 0 -942399 5.03994e+06 0 -864229 5.03896e+06 0 -787441 5.03716e+06 0 -712068 5.03464e+06 0 -638145 5.03152e+06 0 -565706 5.02803e+06 0 -494782 5.0245e+06 0 -425403 5.02149e+06 0 -357595 5.01991e+06 0 -291400 5.02177e+06 0 -226872 5.03163e+06 0 -164338 5.06943e+06 0 -2.65191e+06 4.99453e+06 0 -2.61111e+06 4.9109e+06 0 -2.52952e+06 4.87662e+06 0 -2.43363e+06 4.86036e+06 0 -2.33209e+06 4.85241e+06 0 -2.22993e+06 4.84903e+06 0 -2.12913e+06 4.84869e+06 0 -2.03054e+06 4.85055e+06 0 -1.93442e+06 4.85407e+06 0 -1.84076e+06 4.85882e+06 0 -1.74942e+06 4.86444e+06 0 -1.66022e+06 4.87062e+06 0 -1.57298e+06 4.87709e+06 0 -1.48755e+06 4.88362e+06 0 -1.40378e+06 4.88999e+06 0 -1.32155e+06 4.89604e+06 0 -1.24077e+06 4.90161e+06 0 -1.16137e+06 4.9066e+06 0 -1.08327e+06 4.91091e+06 0 -1.00644e+06 4.91447e+06 0 -930838 4.91726e+06 0 -856429 4.91926e+06 0 -783183 4.92051e+06 0 -711063 4.92106e+06 0 -640019 4.92102e+06 0 -569972 4.92056e+06 0 -500796 4.91992e+06 0 -432251 4.91943e+06 0 -363933 4.9196e+06 0 -294806 4.92098e+06 0 -223014 4.92388e+06 0 -140674 4.92191e+06 0 -2.73108e+06 4.75422e+06 0 -2.6055e+06 4.70667e+06 0 -2.48798e+06 4.68264e+06 0 -2.37589e+06 4.67245e+06 0 -2.26813e+06 4.67047e+06 0 -2.16438e+06 4.67341e+06 0 -2.06434e+06 4.67938e+06 0 -1.96777e+06 4.68725e+06 0 -1.87435e+06 4.69632e+06 0 -1.78379e+06 4.7061e+06 0 -1.69583e+06 4.71627e+06 0 -1.61021e+06 4.72655e+06 0 -1.5267e+06 4.73674e+06 0 -1.44509e+06 4.74668e+06 0 -1.36523e+06 4.75622e+06 0 -1.28695e+06 4.76525e+06 0 -1.21015e+06 4.77367e+06 0 -1.1347e+06 4.78141e+06 0 -1.06052e+06 4.78841e+06 0 -987536 4.79462e+06 0 -915667 4.80003e+06 0 -844848 4.80463e+06 0 -775008 4.80844e+06 0 -706067 4.8115e+06 0 -637928 4.81386e+06 0 -570460 4.81562e+06 0 -503476 4.81687e+06 0 -436700 4.81774e+06 0 -369699 4.81827e+06 0 -301868 4.81839e+06 0 -232257 4.81755e+06 0 -161120 4.816e+06 0 -2.67514e+06 4.46773e+06 0 -2.53613e+06 4.46515e+06 0 -2.41151e+06 4.46897e+06 0 -2.29667e+06 4.47728e+06 0 -2.18918e+06 4.48849e+06 0 -2.08745e+06 4.50155e+06 0 -1.99047e+06 4.5157e+06 0 -1.89749e+06 4.53042e+06 0 -1.80798e+06 4.54536e+06 0 -1.72148e+06 4.56027e+06 0 -1.63764e+06 4.57494e+06 0 -1.55617e+06 4.58925e+06 0 -1.4768e+06 4.60308e+06 0 -1.39933e+06 4.61633e+06 0 -1.32357e+06 4.62893e+06 0 -1.24935e+06 4.64082e+06 0 -1.17656e+06 4.65194e+06 0 -1.10506e+06 4.66225e+06 0 -1.03474e+06 4.67172e+06 0 -965529 4.68033e+06 0 -897321 4.68806e+06 0 -830035 4.69492e+06 0 -763582 4.70091e+06 0 -697866 4.70604e+06 0 -632777 4.71034e+06 0 -568180 4.71384e+06 0 -503906 4.71654e+06 0 -439737 4.71845e+06 0 -375406 4.7195e+06 0 -310581 4.71953e+06 0 -244971 4.71827e+06 0 -178075 4.71472e+06 0 -2.54734e+06 4.22056e+06 0 -2.42051e+06 4.2468e+06 0 -2.3044e+06 4.27127e+06 0 -2.19651e+06 4.2948e+06 0 -2.09523e+06 4.31769e+06 0 -1.99931e+06 4.33999e+06 0 -1.90787e+06 4.36168e+06 0 -1.82021e+06 4.38272e+06 0 -1.73583e+06 4.40307e+06 0 -1.65428e+06 4.42267e+06 0 -1.57524e+06 4.44148e+06 0 -1.49841e+06 4.45949e+06 0 -1.42356e+06 4.47665e+06 0 -1.35048e+06 4.49295e+06 0 -1.27899e+06 4.50836e+06 0 -1.20895e+06 4.52287e+06 0 -1.14022e+06 4.53645e+06 0 -1.07269e+06 4.54909e+06 0 -1.00623e+06 4.56079e+06 0 -940773 4.57153e+06 0 -876210 4.58131e+06 0 -812455 4.59014e+06 0 -749419 4.598e+06 0 -687007 4.6049e+06 0 -625116 4.61084e+06 0 -563632 4.61581e+06 0 -502420 4.6198e+06 0 -441332 4.62274e+06 0 -380199 4.62456e+06 0 -318856 4.62512e+06 0 -257145 4.6242e+06 0 -195078 4.6217e+06 0 -2.39382e+06 4.02182e+06 0 -2.28388e+06 4.06193e+06 0 -2.18084e+06 4.09826e+06 0 -2.08359e+06 4.13171e+06 0 -1.99129e+06 4.16287e+06 0 -1.90322e+06 4.19213e+06 0 -1.81882e+06 4.21975e+06 0 -1.73759e+06 4.24591e+06 0 -1.65915e+06 4.27071e+06 0 -1.58318e+06 4.29426e+06 0 -1.50939e+06 4.3166e+06 0 -1.43756e+06 4.33779e+06 0 -1.36747e+06 4.35785e+06 0 -1.29896e+06 4.37681e+06 0 -1.23188e+06 4.39469e+06 0 -1.16609e+06 4.41151e+06 0 -1.10147e+06 4.42726e+06 0 -1.03792e+06 4.44197e+06 0 -975330 4.45562e+06 0 -913620 4.46824e+06 0 -852700 4.47981e+06 0 -792489 4.49034e+06 0 -732903 4.49983e+06 0 -673859 4.50827e+06 0 -615269 4.51565e+06 0 -557041 4.52195e+06 0 -499077 4.52714e+06 0 -441273 4.53115e+06 0 -383527 4.53393e+06 0 -325739 4.53535e+06 0 -267835 4.53529e+06 0 -209736 4.53352e+06 0 -2.23576e+06 3.86015e+06 0 -2.14144e+06 3.90686e+06 0 -2.0514e+06 3.94945e+06 0 -1.96521e+06 3.98864e+06 0 -1.88248e+06 4.025e+06 0 -1.80285e+06 4.05893e+06 0 -1.726e+06 4.09073e+06 0 -1.65163e+06 4.12065e+06 0 -1.5795e+06 4.14885e+06 0 -1.50937e+06 4.17547e+06 0 -1.44105e+06 4.20063e+06 0 -1.37437e+06 4.2244e+06 0 -1.30918e+06 4.24685e+06 0 -1.24532e+06 4.26804e+06 0 -1.1827e+06 4.28801e+06 0 -1.12118e+06 4.30679e+06 0 -1.06068e+06 4.32441e+06 0 -1.00111e+06 4.34088e+06 0 -942378 4.35623e+06 0 -884407 4.37046e+06 0 -827123 4.38358e+06 0 -770455 4.3956e+06 0 -714332 4.40651e+06 0 -658684 4.41631e+06 0 -603440 4.42497e+06 0 -548529 4.43249e+06 0 -493879 4.43882e+06 0 -439418 4.44392e+06 0 -385078 4.44772e+06 0 -330799 4.45015e+06 0 -276532 4.45111e+06 0 -222255 4.45051e+06 0 -2.08156e+06 3.72673e+06 0 -2.0005e+06 3.77601e+06 0 -1.92207e+06 3.8215e+06 0 -1.84612e+06 3.8637e+06 0 -1.77252e+06 3.90303e+06 0 -1.7011e+06 3.93981e+06 0 -1.6317e+06 3.97433e+06 0 -1.56415e+06 4.0068e+06 0 -1.49831e+06 4.03741e+06 0 -1.43403e+06 4.06628e+06 0 -1.37119e+06 4.09356e+06 0 -1.30966e+06 4.11932e+06 0 -1.24934e+06 4.14365e+06 0 -1.19013e+06 4.16663e+06 0 -1.13194e+06 4.18829e+06 0 -1.07467e+06 4.20868e+06 0 -1.01826e+06 4.22785e+06 0 -962636 4.2458e+06 0 -907720 4.26258e+06 0 -853454 4.27819e+06 0 -799776 4.29264e+06 0 -746627 4.30594e+06 0 -693950 4.31809e+06 0 -641688 4.32908e+06 0 -589787 4.3389e+06 0 -538192 4.34753e+06 0 -486850 4.35495e+06 0 -435711 4.3611e+06 0 -384729 4.36594e+06 0 -333864 4.36942e+06 0 -283086 4.37147e+06 0 -232372 4.37199e+06 0 -1.93435e+06 3.61468e+06 0 -1.86434e+06 3.6645e+06 0 -1.79593e+06 3.71098e+06 0 -1.7291e+06 3.75447e+06 0 -1.66382e+06 3.79525e+06 0 -1.60002e+06 3.83359e+06 0 -1.53764e+06 3.8697e+06 0 -1.47659e+06 3.90377e+06 0 -1.4168e+06 3.93594e+06 0 -1.35818e+06 3.96636e+06 0 -1.30066e+06 3.99513e+06 0 -1.24416e+06 4.02235e+06 0 -1.18862e+06 4.04809e+06 0 -1.13395e+06 4.07243e+06 0 -1.0801e+06 4.09541e+06 0 -1.027e+06 4.11709e+06 0 -974600 4.13749e+06 0 -922845 4.15666e+06 0 -871681 4.17462e+06 0 -821058 4.19138e+06 0 -770929 4.20696e+06 0 -721248 4.22135e+06 0 -671970 4.23458e+06 0 -623051 4.24662e+06 0 -574451 4.25747e+06 0 -526129 4.26712e+06 0 -478046 4.27553e+06 0 -430166 4.28269e+06 0 -382458 4.28854e+06 0 -334895 4.29306e+06 0 -287458 4.29618e+06 0 -240131 4.29785e+06 0 -1.79504e+06 3.51932e+06 0 -1.73429e+06 3.56859e+06 0 -1.67448e+06 3.61496e+06 0 -1.61564e+06 3.65867e+06 0 -1.55778e+06 3.69992e+06 0 -1.50091e+06 3.73891e+06 0 -1.44499e+06 3.7758e+06 0 -1.38999e+06 3.81072e+06 0 -1.33589e+06 3.84382e+06 0 -1.28263e+06 3.87519e+06 0 -1.23019e+06 3.90494e+06 0 -1.1785e+06 3.93315e+06 0 -1.12754e+06 3.95988e+06 0 -1.07726e+06 3.98521e+06 0 -1.02761e+06 4.00918e+06 0 -978554 4.03183e+06 0 -930053 4.05321e+06 0 -882066 4.07334e+06 0 -834558 4.09225e+06 0 -787491 4.10995e+06 0 -740829 4.12646e+06 0 -694540 4.14178e+06 0 -648589 4.15592e+06 0 -602944 4.16888e+06 0 -557576 4.18064e+06 0 -512454 4.1912e+06 0 -467552 4.20054e+06 0 -422844 4.20862e+06 0 -378309 4.21543e+06 0 -333928 4.22093e+06 0 -289690 4.22508e+06 0 -245585 4.22784e+06 0 -1.66366e+06 3.43732e+06 0 -1.61073e+06 3.48545e+06 0 -1.55832e+06 3.53108e+06 0 -1.50647e+06 3.57436e+06 0 -1.4552e+06 3.61544e+06 0 -1.40454e+06 3.65446e+06 0 -1.3545e+06 3.69154e+06 0 -1.30506e+06 3.72679e+06 0 -1.25623e+06 3.7603e+06 0 -1.20799e+06 3.79217e+06 0 -1.16031e+06 3.82248e+06 0 -1.11319e+06 3.8513e+06 0 -1.06659e+06 3.87868e+06 0 -1.02049e+06 3.90467e+06 0 -974862 3.92934e+06 0 -929689 3.9527e+06 0 -884941 3.97481e+06 0 -840594 3.99567e+06 0 -796621 4.01533e+06 0 -752999 4.03378e+06 0 -709702 4.05105e+06 0 -666707 4.06714e+06 0 -623990 4.08206e+06 0 -581529 4.0958e+06 0 -539303 4.10836e+06 0 -497291 4.11972e+06 0 -455474 4.12989e+06 0 -413836 4.13882e+06 0 -372363 4.14652e+06 0 -331043 4.15293e+06 0 -289868 4.15805e+06 0 -248832 4.16183e+06 0 -1.53985e+06 3.36626e+06 0 -1.49362e+06 3.41295e+06 0 -1.44761e+06 3.45747e+06 0 -1.40188e+06 3.49993e+06 0 -1.35645e+06 3.54043e+06 0 -1.31136e+06 3.57907e+06 0 -1.26663e+06 3.61593e+06 0 -1.22227e+06 3.65111e+06 0 -1.17829e+06 3.68467e+06 0 -1.13468e+06 3.71669e+06 0 -1.09146e+06 3.74723e+06 0 -1.0486e+06 3.77634e+06 0 -1.00611e+06 3.80408e+06 0 -963970 3.83048e+06 0 -922171 3.85559e+06 0 -880699 3.87944e+06 0 -839541 3.90206e+06 0 -798682 3.92346e+06 0 -758107 3.94368e+06 0 -717801 3.96272e+06 0 -677749 3.98059e+06 0 -637934 3.99731e+06 0 -598343 4.01287e+06 0 -558960 4.02727e+06 0 -519773 4.04052e+06 0 -480766 4.05259e+06 0 -441930 4.06349e+06 0 -403252 4.07319e+06 0 -364725 4.08168e+06 0 -326342 4.08894e+06 0 -288099 4.09494e+06 0 -249994 4.09966e+06 0 -1.42314e+06 3.30436e+06 0 -1.3827e+06 3.34946e+06 0 -1.34228e+06 3.39267e+06 0 -1.30192e+06 3.43406e+06 0 -1.26168e+06 3.47372e+06 0 -1.22157e+06 3.5117e+06 0 -1.18164e+06 3.54807e+06 0 -1.14189e+06 3.58289e+06 0 -1.10235e+06 3.61623e+06 0 -1.06302e+06 3.64813e+06 0 -1.02391e+06 3.67865e+06 0 -985039 3.70782e+06 0 -946394 3.73568e+06 0 -907978 3.76227e+06 0 -869790 3.78763e+06 0 -831826 3.81177e+06 0 -794080 3.83472e+06 0 -756547 3.85649e+06 0 -719219 3.87711e+06 0 -682089 3.89659e+06 0 -645149 3.91493e+06 0 -608390 3.93214e+06 0 -571805 3.94823e+06 0 -535385 3.96318e+06 0 -499123 3.97701e+06 0 -463010 3.98969e+06 0 -427041 4.00123e+06 0 -391209 4.01161e+06 0 -355511 4.02082e+06 0 -319944 4.02884e+06 0 -284506 4.03564e+06 0 -249198 4.04122e+06 0 -1.31302e+06 3.25025e+06 0 -1.27762e+06 3.29369e+06 0 -1.2421e+06 3.33548e+06 0 -1.20651e+06 3.37567e+06 0 -1.17087e+06 3.41432e+06 0 -1.13524e+06 3.45146e+06 0 -1.09962e+06 3.48715e+06 0 -1.06406e+06 3.52143e+06 0 -1.02857e+06 3.55434e+06 0 -993173 3.58593e+06 0 -957877 3.61623e+06 0 -922696 3.64527e+06 0 -887638 3.67308e+06 0 -852710 3.69969e+06 0 -817916 3.72512e+06 0 -783261 3.74939e+06 0 -748744 3.77252e+06 0 -714366 3.79453e+06 0 -680128 3.81542e+06 0 -646026 3.83521e+06 0 -612059 3.85389e+06 0 -578224 3.87149e+06 0 -544519 3.88799e+06 0 -510940 3.90339e+06 0 -477483 3.9177e+06 0 -444148 3.93091e+06 0 -410930 3.943e+06 0 -377828 3.95397e+06 0 -344841 3.96381e+06 0 -311970 3.9725e+06 0 -279215 3.98003e+06 0 -246579 3.98639e+06 0 -1.20901e+06 3.20285e+06 0 -1.17804e+06 3.24462e+06 0 -1.14684e+06 3.28495e+06 0 -1.11547e+06 3.32386e+06 0 -1.08395e+06 3.36139e+06 0 -1.05232e+06 3.39758e+06 0 -1.02061e+06 3.43246e+06 0 -988844 3.46607e+06 0 -957053 3.49842e+06 0 -925255 3.52956e+06 0 -893466 3.5595e+06 0 -861704 3.58826e+06 0 -829981 3.61588e+06 0 -798308 3.64237e+06 0 -766695 3.66775e+06 0 -735149 3.69202e+06 0 -703677 3.71522e+06 0 -672284 3.73733e+06 0 -640974 3.75838e+06 0 -609750 3.77837e+06 0 -578613 3.7973e+06 0 -547567 3.81517e+06 0 -516611 3.83199e+06 0 -485747 3.84776e+06 0 -454976 3.86246e+06 0 -424298 3.8761e+06 0 -393714 3.88866e+06 0 -363225 3.90015e+06 0 -332834 3.91054e+06 0 -302541 3.91983e+06 0 -272351 3.928e+06 0 -242267 3.93505e+06 0 -1.11065e+06 3.16127e+06 0 -1.08358e+06 3.2014e+06 0 -1.05621e+06 3.24025e+06 0 -1.02859e+06 3.27785e+06 0 -1.00075e+06 3.31422e+06 0 -972718 3.3494e+06 0 -944533 3.3834e+06 0 -916219 3.41623e+06 0 -887801 3.44794e+06 0 -859302 3.47852e+06 0 -830742 3.508e+06 0 -802139 3.53639e+06 0 -773510 3.56371e+06 0 -744869 3.58998e+06 0 -716228 3.6152e+06 0 -687598 3.63938e+06 0 -658990 3.66253e+06 0 -630412 3.68466e+06 0 -601871 3.70577e+06 0 -573373 3.72586e+06 0 -544924 3.74495e+06 0 -516530 3.76302e+06 0 -488194 3.78008e+06 0 -459919 3.79612e+06 0 -431711 3.81114e+06 0 -403572 3.82513e+06 0 -375505 3.8381e+06 0 -347515 3.85002e+06 0 -319604 3.86089e+06 0 -291776 3.8707e+06 0 -264038 3.87944e+06 0 -236391 3.88709e+06 0 -1.0175e+06 3.1248e+06 0 -993880 3.16331e+06 0 -969915 3.2007e+06 0 -945643 3.23699e+06 0 -921097 3.2722e+06 0 -896309 3.30633e+06 0 -871310 3.3394e+06 0 -846127 3.37142e+06 0 -820785 3.40241e+06 0 -795308 3.43237e+06 0 -769717 3.46132e+06 0 -744031 3.48927e+06 0 -718270 3.51622e+06 0 -692448 3.54218e+06 0 -666581 3.56717e+06 0 -640681 3.59117e+06 0 -614762 3.61421e+06 0 -588833 3.63627e+06 0 -562905 3.65737e+06 0 -536986 3.6775e+06 0 -511084 3.69666e+06 0 -485207 3.71486e+06 0 -459361 3.73208e+06 0 -433552 3.74833e+06 0 -407787 3.7636e+06 0 -382069 3.77788e+06 0 -356405 3.79117e+06 0 -330800 3.80346e+06 0 -305259 3.81474e+06 0 -279787 3.825e+06 0 -254389 3.83424e+06 0 -229072 3.84243e+06 0 -929164 3.0928e+06 0 -908601 3.12976e+06 0 -887662 3.16573e+06 0 -866382 3.20074e+06 0 -844794 3.23477e+06 0 -822927 3.26786e+06 0 -800811 3.29998e+06 0 -778473 3.33117e+06 0 -755938 3.36141e+06 0 -733229 3.39072e+06 0 -710368 3.41909e+06 0 -687376 3.44655e+06 0 -664270 3.47307e+06 0 -641069 3.49868e+06 0 -617788 3.52337e+06 0 -594441 3.54714e+06 0 -571043 3.57e+06 0 -547606 3.59194e+06 0 -524140 3.61296e+06 0 -500656 3.63307e+06 0 -477165 3.65225e+06 0 -453675 3.67051e+06 0 -430193 3.68784e+06 0 -406729 3.70423e+06 0 -383288 3.71969e+06 0 -359878 3.7342e+06 0 -336506 3.74775e+06 0 -313177 3.76035e+06 0 -289898 3.77198e+06 0 -266675 3.78263e+06 0 -243514 3.79229e+06 0 -220422 3.80096e+06 0 -845251 3.06475e+06 0 -827401 3.10021e+06 0 -809158 3.13483e+06 0 -790556 3.16858e+06 0 -771625 3.20148e+06 0 -752394 3.23353e+06 0 -732890 3.26473e+06 0 -713140 3.29507e+06 0 -693168 3.32455e+06 0 -672996 3.35319e+06 0 -652647 3.38097e+06 0 -632140 3.4079e+06 0 -611495 3.43397e+06 0 -590728 3.45918e+06 0 -569857 3.48354e+06 0 -548897 3.50704e+06 0 -527862 3.52968e+06 0 -506765 3.55145e+06 0 -485619 3.57235e+06 0 -464434 3.59238e+06 0 -443222 3.61153e+06 0 -421993 3.62981e+06 0 -400755 3.64719e+06 0 -379518 3.66368e+06 0 -358289 3.67927e+06 0 -337077 3.69395e+06 0 -315888 3.70772e+06 0 -294730 3.72057e+06 0 -273611 3.73249e+06 0 -252535 3.74347e+06 0 -231511 3.75351e+06 0 -210545 3.76259e+06 0 -765390 3.04016e+06 0 -749949 3.07422e+06 0 -734112 3.10754e+06 0 -717909 3.1401e+06 0 -701369 3.17191e+06 0 -684518 3.20296e+06 0 -667384 3.23324e+06 0 -649990 3.26275e+06 0 -632360 3.29149e+06 0 -614516 3.31945e+06 0 -596479 3.34663e+06 0 -578268 3.37302e+06 0 -559902 3.39862e+06 0 -541400 3.42343e+06 0 -522776 3.44743e+06 0 -504047 3.47063e+06 0 -485226 3.49302e+06 0 -466329 3.51458e+06 0 -447366 3.53533e+06 0 -428351 3.55525e+06 0 -409294 3.57434e+06 0 -390206 3.59258e+06 0 -371096 3.60998e+06 0 -351974 3.62652e+06 0 -332849 3.64221e+06 0 -313729 3.65702e+06 0 -294622 3.67096e+06 0 -275535 3.68401e+06 0 -256476 3.69617e+06 0 -237452 3.70743e+06 0 -218469 3.71779e+06 0 -199535 3.72722e+06 0 -689223 3.01864e+06 0 -675923 3.05139e+06 0 -662234 3.08348e+06 0 -648183 3.11492e+06 0 -633797 3.14569e+06 0 -619100 3.17578e+06 0 -604117 3.20519e+06 0 -588872 3.2339e+06 0 -573386 3.26191e+06 0 -557679 3.28922e+06 0 -541773 3.3158e+06 0 -525686 3.34166e+06 0 -509435 3.36678e+06 0 -493038 3.39117e+06 0 -476511 3.41481e+06 0 -459869 3.43769e+06 0 -443126 3.45981e+06 0 -426295 3.48115e+06 0 -409390 3.50172e+06 0 -392422 3.52151e+06 0 -375403 3.5405e+06 0 -358343 3.55869e+06 0 -341253 3.57607e+06 0 -324141 3.59263e+06 0 -307017 3.60837e+06 0 -289889 3.62327e+06 0 -272766 3.63734e+06 0 -255655 3.65056e+06 0 -238563 3.66292e+06 0 -221498 3.67441e+06 0 -204467 3.68504e+06 0 -187475 3.69478e+06 0 -616399 2.99982e+06 0 -605005 3.03135e+06 0 -593237 3.06231e+06 0 -581119 3.0927e+06 0 -568676 3.12249e+06 0 -555931 3.15169e+06 0 -542907 3.18027e+06 0 -529624 3.20822e+06 0 -516103 3.23554e+06 0 -502364 3.26221e+06 0 -488425 3.28821e+06 0 -474304 3.31355e+06 0 -460018 3.33821e+06 0 -445583 3.36218e+06 0 -431015 3.38545e+06 0 -416327 3.40801e+06 0 -401534 3.42986e+06 0 -386648 3.45097e+06 0 -371683 3.47135e+06 0 -356650 3.49098e+06 0 -341559 3.50985e+06 0 -326422 3.52796e+06 0 -311248 3.5453e+06 0 -296047 3.56186e+06 0 -280828 3.57763e+06 0 -265598 3.5926e+06 0 -250367 3.60676e+06 0 -235142 3.6201e+06 0 -219930 3.63263e+06 0 -204738 3.64432e+06 0 -189572 3.65517e+06 0 -174441 3.66518e+06 0 -546577 2.98339e+06 0 -536881 3.0138e+06 0 -526834 3.04372e+06 0 -516457 3.07314e+06 0 -505772 3.10203e+06 0 -494800 3.1304e+06 0 -483562 3.1582e+06 0 -472076 3.18545e+06 0 -460362 3.21211e+06 0 -448437 3.23818e+06 0 -436318 3.26364e+06 0 -424022 3.28849e+06 0 -411565 3.3127e+06 0 -398961 3.33627e+06 0 -386226 3.35918e+06 0 -373371 3.38142e+06 0 -360412 3.40299e+06 0 -347360 3.42387e+06 0 -334226 3.44405e+06 0 -321022 3.46352e+06 0 -307759 3.48227e+06 0 -294447 3.50028e+06 0 -281095 3.51756e+06 0 -267712 3.53409e+06 0 -254307 3.54987e+06 0 -240888 3.56487e+06 0 -227463 3.57911e+06 0 -214040 3.59255e+06 0 -200624 3.60521e+06 0 -187224 3.61706e+06 0 -173845 3.62811e+06 0 -160494 3.63834e+06 0 -479420 2.96906e+06 0 -471243 2.99847e+06 0 -462742 3.02745e+06 0 -453937 3.05598e+06 0 -444847 3.08406e+06 0 -435491 3.11166e+06 0 -425887 3.13876e+06 0 -416052 3.16535e+06 0 -406002 3.19141e+06 0 -395755 3.21692e+06 0 -385325 3.24188e+06 0 -374727 3.26626e+06 0 -363977 3.29005e+06 0 -353087 3.31323e+06 0 -342071 3.3358e+06 0 -330941 3.35775e+06 0 -319709 3.37905e+06 0 -308388 3.39969e+06 0 -296987 3.41968e+06 0 -285517 3.43898e+06 0 -273989 3.4576e+06 0 -262411 3.47552e+06 0 -250793 3.49273e+06 0 -239143 3.50922e+06 0 -227469 3.52498e+06 0 -215779 3.54001e+06 0 -204081 3.55429e+06 0 -192380 3.56781e+06 0 -180685 3.58057e+06 0 -169001 3.59256e+06 0 -157334 3.60377e+06 0 -145691 3.6142e+06 0 -414601 2.95661e+06 0 -407787 2.98512e+06 0 -400681 3.01326e+06 0 -393301 3.04101e+06 0 -385664 3.06835e+06 0 -377785 3.09526e+06 0 -369682 3.12173e+06 0 -361368 3.14772e+06 0 -352859 3.17323e+06 0 -344168 3.19824e+06 0 -335311 3.22273e+06 0 -326299 3.24668e+06 0 -317147 3.27008e+06 0 -307865 3.29292e+06 0 -298467 3.31517e+06 0 -288963 3.33683e+06 0 -279364 3.35788e+06 0 -269680 3.3783e+06 0 -259923 3.3981e+06 0 -250100 3.41724e+06 0 -240222 3.43573e+06 0 -230297 3.45354e+06 0 -220332 3.47068e+06 0 -210337 3.48712e+06 0 -200317 3.50286e+06 0 -190282 3.5179e+06 0 -180236 3.53221e+06 0 -170187 3.54579e+06 0 -160141 3.55864e+06 0 -150103 3.57074e+06 0 -140079 3.58209e+06 0 -130075 3.59268e+06 0 -351798 2.94581e+06 0 -346212 2.97354e+06 0 -340370 3.00095e+06 0 -334289 3.02801e+06 0 -327981 3.0547e+06 0 -321462 3.08101e+06 0 -314743 3.10691e+06 0 -307838 3.13238e+06 0 -300760 3.15741e+06 0 -293521 3.18196e+06 0 -286134 3.20603e+06 0 -278609 3.2296e+06 0 -270959 3.25266e+06 0 -263193 3.27517e+06 0 -255322 3.29713e+06 0 -247356 3.31853e+06 0 -239304 3.33935e+06 0 -231177 3.35957e+06 0 -222982 3.37919e+06 0 -214729 3.39818e+06 0 -206424 3.41654e+06 0 -198077 3.43426e+06 0 -189694 3.45132e+06 0 -181282 3.46771e+06 0 -172847 3.48343e+06 0 -164397 3.49846e+06 0 -155937 3.51279e+06 0 -147474 3.52642e+06 0 -139011 3.53934e+06 0 -130555 3.55153e+06 0 -122111 3.563e+06 0 -113682 3.57373e+06 0 -290694 2.9365e+06 0 -286223 2.96356e+06 0 -281536 2.99034e+06 0 -276645 3.01681e+06 0 -271562 3.04296e+06 0 -266298 3.06874e+06 0 -260864 3.09416e+06 0 -255272 3.11917e+06 0 -249531 3.14378e+06 0 -243653 3.16794e+06 0 -237647 3.19165e+06 0 -231522 3.21488e+06 0 -225290 3.23763e+06 0 -218958 3.25986e+06 0 -212535 3.28157e+06 0 -206030 3.30274e+06 0 -199452 3.32335e+06 0 -192808 3.34339e+06 0 -186105 3.36284e+06 0 -179351 3.3817e+06 0 -172552 3.39995e+06 0 -165716 3.41757e+06 0 -158849 3.43456e+06 0 -151957 3.4509e+06 0 -145045 3.46659e+06 0 -138118 3.48161e+06 0 -131184 3.49596e+06 0 -124245 3.50962e+06 0 -117307 3.52259e+06 0 -110374 3.53487e+06 0 -103451 3.54644e+06 0 -96540.7 3.55729e+06 0 -230979 2.92852e+06 0 -227529 2.95503e+06 0 -223903 2.98129e+06 0 -220112 3.00728e+06 0 -216165 3.03296e+06 0 -212070 3.05831e+06 0 -207838 3.08332e+06 0 -203475 3.10796e+06 0 -198992 3.13221e+06 0 -194395 3.15604e+06 0 -189695 3.17944e+06 0 -184897 3.20239e+06 0 -180011 3.22488e+06 0 -175042 3.24687e+06 0 -170000 3.26836e+06 0 -164890 3.28933e+06 0 -159719 3.30977e+06 0 -154494 3.32965e+06 0 -149221 3.34897e+06 0 -143905 3.36771e+06 0 -138554 3.38585e+06 0 -133171 3.40339e+06 0 -127762 3.42032e+06 0 -122333 3.43661e+06 0 -116887 3.45227e+06 0 -111430 3.46729e+06 0 -105965 3.48165e+06 0 -100497 3.49534e+06 0 -95030.3 3.50836e+06 0 -89567.6 3.5207e+06 0 -84112.6 3.53235e+06 0 -78668.8 3.54331e+06 0 -172351 2.92174e+06 0 -169843 2.94782e+06 0 -167202 2.97367e+06 0 -164436 2.99927e+06 0 -161551 3.02459e+06 0 -158554 3.0496e+06 0 -155452 3.07429e+06 0 -152251 3.09862e+06 0 -148958 3.12258e+06 0 -145579 3.14615e+06 0 -142120 3.16931e+06 0 -138587 3.19203e+06 0 -134986 3.21431e+06 0 -131322 3.23611e+06 0 -127602 3.25742e+06 0 -123830 3.27823e+06 0 -120012 3.29852e+06 0 -116152 3.31827e+06 0 -112255 3.33748e+06 0 -108326 3.35612e+06 0 -104369 3.37418e+06 0 -100388 3.39165e+06 0 -96388.3 3.40852e+06 0 -92372.4 3.42478e+06 0 -88344.2 3.44042e+06 0 -84307.4 3.45543e+06 0 -80265.2 3.46979e+06 0 -76220.8 3.48351e+06 0 -72177.1 3.49657e+06 0 -68137 3.50897e+06 0 -64103.1 3.5207e+06 0 -60078 3.53175e+06 0 -114509 2.91605e+06 0 -112881 2.94182e+06 0 -111164 2.96737e+06 0 -109362 2.99269e+06 0 -107481 3.01774e+06 0 -105523 3.0425e+06 0 -103495 3.06695e+06 0 -101401 3.09106e+06 0 -99243.4 3.11481e+06 0 -97028.2 3.13818e+06 0 -94758.9 3.16116e+06 0 -92439.7 3.18371e+06 0 -90074.5 3.20583e+06 0 -87667.1 3.22748e+06 0 -85221.3 3.24866e+06 0 -82740.6 3.26935e+06 0 -80228.5 3.28953e+06 0 -77688.4 3.30918e+06 0 -75123.5 3.3283e+06 0 -72537 3.34687e+06 0 -69931.8 3.36486e+06 0 -67310.7 3.38229e+06 0 -64676.6 3.39912e+06 0 -62032 3.41535e+06 0 -59379.4 3.43098e+06 0 -56721.2 3.44598e+06 0 -54059.6 3.46036e+06 0 -51396.8 3.4741e+06 0 -48734.9 3.4872e+06 0 -46075.6 3.49965e+06 0 -43421 3.51144e+06 0 -40772.6 3.52258e+06 0 -57157.1 2.91137e+06 0 -56360.7 2.93694e+06 0 -55519.4 2.96231e+06 0 -54635.6 2.98744e+06 0 -53711.4 3.01232e+06 0 -52749.1 3.03692e+06 0 -51751 3.06122e+06 0 -50719.2 3.08519e+06 0 -49655.9 3.10881e+06 0 -48563.3 3.13206e+06 0 -47443.4 3.15491e+06 0 -46298.2 3.17735e+06 0 -45129.9 3.19937e+06 0 -43940.3 3.22093e+06 0 -42731.3 3.24202e+06 0 -41504.7 3.26263e+06 0 -40262.4 3.28273e+06 0 -39006 3.30233e+06 0 -37737.2 3.32139e+06 0 -36457.6 3.3399e+06 0 -35168.7 3.35786e+06 0 -33871.9 3.37525e+06 0 -32568.7 3.39206e+06 0 -31260.3 3.40828e+06 0 -29948.2 3.42389e+06 0 -28633.3 3.4389e+06 0 -27317.1 3.45329e+06 0 -26000.4 3.46706e+06 0 -24684.4 3.48019e+06 0 -23370 3.49269e+06 0 -22058.1 3.50455e+06 0 -20749.7 3.51576e+06 0 0 2.90761e+06 0 0 2.9331e+06 0 0 2.9584e+06 0 0 2.98346e+06 0 0 3.00827e+06 0 0 3.03281e+06 0 0 3.05704e+06 0 0 3.08095e+06 0 0 3.10451e+06 0 0 3.12771e+06 0 0 3.15051e+06 0 0 3.17291e+06 0 0 3.19487e+06 0 0 3.21639e+06 0 0 3.23744e+06 0 0 3.25801e+06 0 0 3.27809e+06 0 0 3.29765e+06 0 0 3.31669e+06 0 0 3.33518e+06 0 0 3.35312e+06 0 0 3.3705e+06 0 0 3.3873e+06 0 0 3.40352e+06 0 0 3.41914e+06 0 0 3.43416e+06 0 0 3.44858e+06 0 0 3.46237e+06 0 0 3.47554e+06 0 0 3.48808e+06 0 0 3.49999e+06 0 0 3.51127e+06 0 </DataArray> 
</PointData> 
<Points> 
<DataArray type="Float32" NumberOfComponents="3"> 