<?xml version="1.0"?> 
<VTKFile type="StructuredGrid" version="0.1"> 
<StructuredGrid WholeExtent="0 31 0 31 0 0"> 
<Piece Extent="0 31 0 31 0 0"> 
<PointData>
<DataArray type="Float32" Name="|E|" format="ascii" NumberOfComponents="3"> 
729.876 -2.14577e-06 0 45.2419 -343.856 0 9.28097 -172.472 0 -43.9361 -133.326 0 -46.8118 -87.3139 0 -49.2636 -62.8404 0 -44.3469 -44.1437 0 -39.1403 -31.791 0 -33.3023 -23.0639 0 -27.9702 -16.9215 0 -23.1766 -12.5625 0 -19.0594 -9.41055 0 -15.5726 -7.12293 0 -12.6674 -5.43371 0 -10.2679 -4.17838 0 -8.30127 -3.23323 0 -6.69801 -2.51628 0 -5.39671 -1.96718 0 -4.34413 -1.54371 0 -3.49528 -1.21477 0 -2.81257 -0.957719 0 -2.265 -0.755674 0 -1.82719 -0.595972 0 -1.47853 -0.468976 0 -1.20241 -0.367288 0 -0.985551 -0.285143 0 -0.817431 -0.218008 0 -0.689851 -0.162247 0 -0.596555 -0.114893 0 -0.532943 -0.0734659 0 -0.49587 -0.0358108 0 -0.483464 -1.43051e-06 0 553.916 9.23872e-07 0 99.6906 -275.194 0 9.31703 -170.205 0 -31.0627 -126.532 0 -42.9295 -87.3601 0 -44.7302 -62.8616 0 -41.9152 -45.0376 0 -37.1683 -32.7633 0 -32.0131 -24.0359 0 -27.0114 -17.8248 0 -22.5003 -13.3481 0 -18.561 -10.0887 0 -15.2076 -7.69036 0 -12.3949 -5.90675 0 -10.0633 -4.56715 0 -8.14591 -3.55162 0 -6.57918 -2.77524 0 -5.30509 -2.17717 0 -4.27303 -1.71333 0 -3.43976 -1.35142 0 -2.76898 -1.0675 0 -2.2306 -0.843615 0 -1.79989 -0.666168 0 -1.45673 -0.524749 0 -1.18488 -0.411299 0 -0.971308 -0.319517 0 -0.805703 -0.24441 0 -0.680011 -0.181964 0 -0.588083 -0.128893 0 -0.5254 -0.082433 0 -0.488863 -0.0401878 0 -0.476642 6.85453e-07 0 432.855 -3.94881e-07 0 125.062 -223.031 0 15.2955 -162.688 0 -22.1496 -120.782 0 -38.0984 -86.5065 0 -40.8618 -62.7935 0 -39.3352 -45.7224 0 -35.2921 -33.6191 0 -30.6848 -24.9322 0 -26.0491 -18.6662 0 -21.7998 -14.0973 0 -18.045 -10.7369 0 -14.8238 -8.23873 0 -12.1067 -6.36475 0 -9.84485 -4.94557 0 -7.97901 -3.86206 0 -6.45067 -3.02841 0 -5.20549 -2.38273 0 -4.19538 -1.87962 0 -3.3789 -1.48552 0 -2.72104 -1.17531 0 -2.19266 -0.93003 0 -1.76971 -0.735182 0 -1.4326 -0.579602 0 -1.16543 -0.454599 0 -0.955489 -0.353342 0 -0.792663 -0.270396 0 -0.669061 -0.201374 0 -0.578651 -0.142674 0 -0.516997 -0.0912611 0 -0.481057 -0.0444965 0 -0.469039 -2.90573e-07 0 347.169 2.68221e-07 0 134.079 -182.83 0 22.6755 -152.569 0 -15.2768 -115.419 0 -33.171 -85.0827 0 -37.3231 -62.5785 0 -36.7647 -46.2265 0 -33.459 -34.3666 0 -29.3474 -25.7501 0 -25.0767 -19.4513 0 -21.0815 -14.8077 0 -17.5116 -11.3564 0 -14.4231 -8.76688 0 -11.8035 -6.80776 0 -9.61331 -5.31304 0 -7.80095 -4.16429 0 -6.31281 -3.27542 0 -5.09813 -2.58361 0 -4.11134 -2.04232 0 -3.3128 -1.61685 0 -2.66884 -1.28099 0 -2.15125 -1.01479 0 -1.73671 -0.802902 0 -1.40616 -0.633447 0 -1.1441 -0.497117 0 -0.938123 -0.386564 0 -0.778336 -0.295923 0 -0.657021 -0.220445 0 -0.568274 -0.156216 0 -0.507749 -0.0999362 0 -0.472465 -0.0487307 0 -0.460667 8.9407e-08 0 284.843 -1.78814e-07 0 134.024 -151.568 0 29.4545 -141.351 0 -9.61065 -110.179 0 -28.4928 -83.2742 0 -33.9963 -62.2002 0 -34.2635 -46.5727 0 -31.6565 -35.0107 0 -28.0131 -26.4918 0 -24.095 -20.1821 0 -20.3488 -15.4792 0 -16.9621 -11.9477 0 -14.0069 -9.27443 0 -11.486 -7.23555 0 -9.36926 -5.66917 0 -7.61217 -4.45799 0 -6.16592 -3.51597 0 -4.98326 -2.77954 0 -4.02109 -2.20122 0 -3.24162 -1.74524 0 -2.61247 -1.38437 0 -2.10644 -1.09775 0 -1.70095 -0.869226 0 -1.37747 -0.686202 0 -1.12094 -0.538786 0 -0.919239 -0.41913 0 -0.762745 -0.320951 0 -0.643912 -0.239144 0 -0.55697 -0.169496 0 -0.497671 -0.108444 0 -0.4631 -0.0528834 0 -0.451541 -5.96046e-08 0 238.246 3.12924e-07 0 129.137 -126.993 0 34.8595 -129.982 0 -4.7908 -104.962 0 -24.1939 -81.2055 0 -30.8471 -61.661 0 -31.8547 -46.7799 0 -29.8856 -35.5568 0 -26.6879 -27.1607 0 -23.1067 -20.8607 0 -19.6042 -16.1123 0 -16.3981 -12.5109 0 -13.5763 -9.76118 0 -11.155 -7.64787 0 -9.11331 -6.01365 0 -7.4131 -4.74286 0 -6.01032 -3.74976 0 -4.8611 -2.97028 0 -3.92482 -2.3561 0 -3.16547 -1.8705 0 -2.55205 -1.48532 0 -2.05833 -1.17881 0 -1.66249 -0.934054 0 -1.34658 -0.737786 0 -1.09596 -0.579541 0 -0.898871 -0.45099 0 -0.745918 -0.345439 0 -0.629756 -0.257443 0 -0.544758 -0.182492 0 -0.48678 -0.116771 0 -0.452978 -0.0569477 0 -0.441677 3.42727e-07 0 202.488 -4.17233e-07 0 121.854 -107.481 0 38.7331 -119.003 0 -0.669499 -99.7663 0 -20.3077 -78.9602 0 -27.8734 -60.9752 0 -29.5462 -46.8642 0 -28.1516 -36.0111 0 -25.3755 -27.7607 0 -22.1149 -21.4885 0 -18.8497 -16.7078 0 -15.8211 -13.0463 0 -13.1323 -10.2271 0 -10.8115 -8.04448 0 -8.84604 -6.34621 0 -7.20419 -5.01862 0 -5.84635 -3.97654 0 -4.73192 -3.15558 0 -3.82271 -2.50675 0 -3.08453 -1.99246 0 -2.48769 -1.58368 0 -2.007 -1.25784 0 -1.62141 -0.997286 0 -1.31354 -0.788118 0 -1.06923 -0.619319 0 -0.877053 -0.482092 0 -0.727882 -0.36935 0 -0.614576 -0.275313 0 -0.531658 -0.195185 0 -0.475095 -0.124905 0 -0.442116 -0.0609174 0 -0.43109 -6.10948e-07 0 174.37 5.66244e-07 0 113.563 -91.8354 0 41.19 -108.707 0 2.82081 -94.6294 0 -16.8287 -76.5999 0 -25.081 -60.1627 0 -27.3414 -46.8399 0 -26.4601 -36.3801 0 -24.0792 -28.2957 0 -21.1224 -22.0676 0 -18.0871 -17.2666 0 -15.2326 -13.5541 0 -12.6761 -10.6721 0 -10.4561 -8.42522 0 -8.56804 -6.66659 0 -6.98588 -5.28501 0 -5.67432 -4.19606 0 -4.59596 -3.33524 0 -3.71496 -2.65298 0 -2.99892 -2.11095 0 -2.4195 -1.67931 0 -1.95254 -1.33472 0 -1.57776 -1.05883 0 -1.27841 -0.837123 0 -1.04079 -0.658059 0 -0.853822 -0.512389 0 -0.708669 -0.392646 0 -0.598398 -0.292724 0 -0.517693 -0.207554 0 -0.462635 -0.13283 0 -0.430532 -0.0647863 0 -0.419799 7.7486e-07 0 151.766 -6.25849e-07 0 105.039 -79.1719 0 42.4467 -99.2335 0 5.72337 -89.6037 0 -13.7373 -74.1723 0 -22.4756 -59.2452 0 -25.2414 -46.7205 0 -24.8157 -36.6708 0 -22.8015 -28.7696 0 -20.1318 -22.5998 0 -17.3182 -17.7897 0 -14.6341 -14.0347 0 -12.2086 -11.0962 0 -10.0897 -8.78993 0 -8.2799 -6.9746 0 -6.75861 -5.54179 0 -5.49459 -4.40807 0 -4.45348 -3.50902 0 -3.60177 -2.7946 0 -2.90881 -2.22581 0 -2.34761 -1.77207 0 -1.89504 -1.40934 0 -1.53164 -1.11859 0 -1.24126 -0.884724 0 -1.01068 -0.695699 0 -0.829217 -0.541833 0 -0.68831 -0.415289 0 -0.581249 -0.309651 0 -0.502885 -0.219579 0 -0.449421 -0.140537 0 -0.418245 -0.0685478 0 -0.407822 -4.47035e-07 0 133.23 4.17233e-07 0 96.6988 -68.8308 0 42.7379 -90.6241 0 8.07926 -84.7397 0 -11.0096 -71.7164 0 -20.0596 -58.2446 0 -23.2469 -46.5187 0 -23.2219 -36.8906 0 -21.5449 -29.1866 0 -19.1455 -23.0874 0 -16.5448 -18.2781 0 -14.0268 -14.4885 0 -11.7308 -11.4996 0 -9.71294 -9.13852 0 -7.98218 -7.27005 0 -6.52282 -5.78874 0 -5.30748 -4.61238 0 -4.30474 -3.67674 0 -3.48334 -2.93144 0 -2.81435 -2.33689 0 -2.27214 -1.86185 0 -1.83461 -1.48159 0 -1.48311 -1.17647 0 -1.20214 -0.930851 0 -0.978963 -0.732183 0 -0.80328 -0.570377 0 -0.66684 -0.437244 0 -0.563157 -0.326065 0 -0.48726 -0.231241 0 -0.435473 -0.14801 0 -0.405275 -0.0721963 0 -0.395178 1.49012e-07 0 117.761 -3.8743e-07 0 88.7546 -60.3158 0 42.2796 -82.8662 0 9.93355 -80.0801 0 -8.62041 -69.265 0 -17.8322 -57.182 0 -21.3579 -46.2466 0 -21.6813 -37.0465 0 -20.3115 -29.5507 0 -18.1653 -23.5325 0 -15.7683 -18.7331 0 -13.412 -14.9159 0 -11.2438 -11.8824 0 -9.32667 -9.47093 0 -7.67545 -7.55277 0 -6.27894 -6.02567 0 -5.11334 -4.80878 0 -4.15001 -3.8382 0 -3.35988 -3.06332 0 -2.71571 -2.44404 0 -2.19322 -1.94851 0 -1.77134 -1.55137 0 -1.43226 -1.23241 0 -1.16111 -0.975433 0 -0.945681 -0.767454 0 -0.776053 -0.597979 0 -0.644293 -0.458477 0 -0.544153 -0.341941 0 -0.470842 -0.242523 0 -0.420817 -0.15524 0 -0.391644 -0.0757255 0 -0.38189 -2.38419e-07 0 104.65 3.8743e-07 0 81.2989 -53.2506 0 41.2557 -75.9159 0 11.3352 -75.6568 0 -6.54511 -66.8458 0 -15.7895 -56.0767 0 -19.5739 -45.9161 0 -20.1956 -37.1457 0 -19.1031 -29.8659 0 -17.1929 -23.9375 0 -14.9902 -19.1557 0 -12.7908 -15.3176 0 -10.7483 -12.2447 0 -8.93152 -9.78713 0 -7.36025 -7.82264 0 -6.02741 -6.2524 0 -4.91251 -4.99708 0 -3.98957 -3.99322 0 -3.2316 -3.19008 0 -2.61307 -2.54712 0 -2.11098 -2.03193 0 -1.70535 -1.61858 0 -1.37918 -1.2863 0 -1.11826 -1.0184 0 -0.910894 -0.801459 0 -0.747583 -0.624594 0 -0.620708 -0.478955 0 -0.524269 -0.357254 0 -0.453659 -0.253404 0 -0.405474 -0.162215 0 -0.377374 -0.0791305 0 -0.367978 2.08616e-07 0 93.3858 -2.98023e-07 0 74.3577 -47.347 0 39.8155 -69.7138 0 12.3349 -71.4917 0 -4.75937 -64.4821 0 -13.9254 -54.9467 0 -17.8933 -45.5383 0 -18.7656 -37.1951 0 -17.9211 -30.1365 0 -16.2297 -24.3047 0 -14.2116 -19.5472 0 -12.1642 -15.6942 0 -10.2452 -12.5868 0 -8.52819 -10.0871 0 -7.03713 -8.07955 0 -5.76866 -6.46877 0 -4.70533 -5.17711 0 -3.82366 -4.14164 0 -3.09872 -3.31157 0 -2.50658 -2.64599 0 -2.02557 -2.112 0 -1.63675 -1.68312 0 -1.32395 -1.33807 0 -1.07364 -1.0597 0 -0.874659 -0.834145 0 -0.717916 -0.650183 0 -0.596123 -0.498645 0 -0.503535 -0.371979 0 -0.43574 -0.263869 0 -0.389472 -0.168923 0 -0.362488 -0.0824053 0 -0.353466 -2.98023e-08 0 83.5899 -5.96046e-08 0 67.9206 -42.3827 0 38.0769 -64.1949 0 12.9827 -67.5974 0 -3.23942 -62.1932 0 -12.2324 -53.808 0 -16.3142 -45.1237 0 -17.3916 -37.2013 0 -16.7664 -30.3664 0 -15.2769 -24.6363 0 -13.4337 -19.9089 0 -11.5331 -16.0461 0 -9.73534 -12.9088 0 -8.1173 -10.3709 0 -6.70661 -8.3234 0 -5.5031 -6.67465 0 -4.49213 -5.34872 0 -3.65258 -4.28331 0 -2.96145 -3.42765 0 -2.39642 -2.74054 0 -1.93712 -2.18861 0 -1.56564 -1.74491 0 -1.26666 -1.38766 0 -1.02734 -1.09926 0 -0.837036 -0.865464 0 -0.6871 -0.674705 0 -0.570579 -0.517517 0 -0.481988 -0.386095 0 -0.417113 -0.273901 0 -0.372836 -0.175354 0 -0.347012 -0.0855446 0 -0.338378 5.96046e-08 0 74.9791 5.96046e-08 0 61.9585 -38.1847 0 36.131 -59.2938 0 13.3261 -63.9794 0 -1.96212 -59.9948 0 -10.7017 -52.6749 0 -14.8337 -44.6821 0 -16.0732 -37.1709 0 -15.6397 -30.5595 0 -14.3354 -24.9348 0 -12.6574 -20.2421 0 -10.8984 -16.3742 0 -9.21939 -13.2112 0 -7.69949 -10.6385 0 -6.36919 -8.55412 0 -5.23115 -6.8699 0 -4.27326 -5.51175 0 -3.47659 -4.41808 0 -2.82003 -3.53819 0 -2.28278 -2.83065 0 -1.84577 -2.26167 0 -1.49214 -1.80385 0 -1.20741 -1.43497 0 -0.97942 -1.13702 0 -0.798085 -0.895367 0 -0.655187 -0.698122 0 -0.544117 -0.535542 0 -0.459662 -0.399578 0 -0.39781 -0.283485 0 -0.355593 -0.181497 0 -0.33097 -0.088544 0 -0.322737 0 0 67.3361 5.96046e-08 0 56.4334 -34.6174 0 34.0471 -54.9483 0 13.409 -60.6371 0 -0.905084 -57.8996 0 -9.32364 -51.56 0 -13.4482 -44.2228 0 -14.8094 -37.11 0 -14.5413 -30.7197 0 -13.4058 -25.2023 0 -11.8835 -20.548 0 -10.261 -16.679 0 -8.69805 -13.494 0 -7.27532 -10.8901 0 -6.02538 -8.77168 0 -4.95322 -7.05443 0 -4.04904 -5.66608 0 -3.29597 -4.54581 0 -2.67466 -3.64307 0 -2.16584 -2.91619 0 -1.75168 -2.33107 0 -1.41637 -1.85987 0 -1.1463 -1.47996 0 -0.929969 -1.17293 0 -0.757872 -0.923809 0 -0.622227 -0.7204 0 -0.516781 -0.552692 0 -0.436593 -0.412407 0 -0.377861 -0.292604 0 -0.337773 -0.187343 0 -0.314389 -0.0913982 0 -0.306571 -5.96046e-08 0 60.4917 -5.96046e-08 0 51.3047 -31.5736 0 31.877 -51.1008 0 13.2709 -57.5659 0 -0.0468548 -55.9172 0 -8.08825 -50.4742 0 -12.1536 -43.7542 0 -13.5991 -37.0243 0 -13.471 -30.8506 0 -12.4887 -25.4412 0 -11.1127 -20.828 0 -9.62131 -16.9612 0 -8.17196 -13.7577 0 -6.84538 -11.1257 0 -5.67564 -8.97601 0 -4.66972 -7.22812 0 -3.81983 -5.81159 0 -3.11099 -4.66639 0 -2.52557 -3.74215 0 -2.04577 -2.99707 0 -1.65499 -2.39672 0 -1.33846 -1.91289 0 -1.08341 -1.52255 0 -0.879064 -1.20693 0 -0.71646 -0.950749 0 -0.588276 -0.741504 0 -0.488615 -0.568939 0 -0.41282 -0.424562 0 -0.357301 -0.301245 0 -0.319402 -0.192883 0 -0.297296 -0.0941029 0 -0.289905 5.96046e-08 0 54.3118 0 0 46.5317 -28.9679 0 29.6587 -47.6992 0 12.9467 -54.7581 0 0.632968 -54.0549 0 -6.98528 -49.4272 0 -10.9455 -43.2841 0 -12.4403 -36.9193 0 -12.4286 -30.9558 0 -11.5842 -25.6536 0 -10.3454 -21.0832 0 -8.9801 -17.2214 0 -7.6417 -14.0026 0 -6.41017 -11.3453 0 -5.32044 -9.16711 0 -4.38103 -7.3909 0 -3.58593 -5.94816 0 -2.92193 -4.77969 0 -2.373 -3.83534 0 -1.92276 -3.07319 0 -1.55585 -2.45854 0 -1.25852 -1.96283 0 -1.01886 -1.56268 0 -0.826786 -1.23898 0 -0.673917 -0.976145 0 -0.553387 -0.761401 0 -0.459666 -0.58426 0 -0.38838 -0.436026 0 -0.336161 -0.309395 0 -0.300513 -0.198108 0 -0.279719 -0.096654 0 -0.272767 0 0 48.6889 5.96046e-08 0 42.0759 -26.732 0 27.4199 -44.6972 0 12.4669 -52.2041 0 1.1536 -52.3179 0 -6.00437 -48.4271 0 -9.81877 -42.8196 0 -11.331 -36.8 0 -11.4133 -31.0387 0 -10.6924 -25.8415 0 -9.58205 -21.3148 0 -8.33784 -17.4604 0 -7.10779 -14.2289 0 -5.97021 -11.5492 0 -4.96023 -9.34496 0 -4.08755 -7.5427 0 -3.3477 -6.0757 0 -2.72907 -4.88561 0 -2.21716 -3.92253 0 -1.797 -3.14446 0 -1.45441 -2.51644 0 -1.17668 -2.00962 0 -0.952737 -1.60029 0 -0.773218 -1.26903 0 -0.630311 -0.999959 0 -0.517618 -0.780062 0 -0.429979 -0.59863 0 -0.363314 -0.446779 0 -0.314477 -0.31704 0 -0.281136 -0.20301 0 -0.261687 -0.0990473 0 -0.255184 1.78814e-07 0 43.5351 -5.96046e-08 0 37.9011 -24.8108 0 25.18 -42.0535 0 11.8578 -49.8936 0 1.533 -50.7097 0 -5.13523 -47.4809 0 -8.76823 -42.3669 0 -10.2686 -36.6712 0 -10.4242 -31.1024 0 -9.81326 -26.007 0 -8.82291 -21.5242 0 -7.69495 -17.6788 0 -6.57072 -14.4369 0 -5.52595 -11.7373 0 -4.59544 -9.50956 0 -3.78966 -7.68345 0 -3.10544 -6.19413 0 -2.53267 -4.98407 0 -2.0583 -4.00364 0 -1.66869 -3.21079 0 -1.35084 -2.57036 0 -1.09307 -2.05321 0 -0.885155 -1.63534 0 -0.718446 -1.29703 0 -0.585711 -1.02216 0 -0.481025 -0.797457 0 -0.399604 -0.612027 0 -0.337663 -0.456804 0 -0.292283 -0.324168 0 -0.261302 -0.20758 0 -0.243229 -0.101279 0 -0.237185 -1.78814e-07 0 38.778 0 0 33.9742 -23.1597 0 22.9523 -39.7323 0 11.1418 -47.8153 0 1.78783 -49.2324 0 -4.36773 -46.5945 0 -7.78834 -41.9317 0 -9.25051 -36.5372 0 -9.46011 -31.1498 0 -8.94637 -26.152 0 -8.06812 -21.7123 0 -7.05179 -17.8771 0 -6.03093 -14.627 0 -5.07786 -11.9099 0 -4.22649 -9.66091 0 -3.48773 -7.8131 0 -2.85949 -6.30335 0 -2.33302 -5.07496 0 -1.89663 -4.07857 0 -1.538 -3.2721 0 -1.24529 -2.62022 0 -1.00781 -2.09354 0 -0.816217 -1.66777 0 -0.662556 -1.32295 0 -0.54019 -1.0427 0 -0.443668 -0.813562 0 -0.368589 -0.624431 0 -0.311468 -0.466087 0 -0.269617 -0.330768 0 -0.241043 -0.211812 0 -0.224374 -0.103346 0 -0.218801 1.19209e-07 0 34.357 -1.78814e-07 0 30.2649 -21.7425 0 20.7454 -37.7024 0 10.338 -45.9584 0 1.93348 -47.8869 0 -3.69193 -45.7728 0 -6.87342 -41.5191 0 -8.27365 -36.402 0 -8.5197 -31.1838 0 -8.09128 -26.2782 0 -7.3177 -21.8802 0 -6.40864 -18.0561 0 -5.4888 -14.7995 0 -4.62634 -12.067 0 -3.85378 -9.79902 0 -3.18212 -7.9316 0 -2.61017 -6.4033 0 -2.13038 -5.15821 0 -1.7324 -4.14724 0 -1.40514 -3.32833 0 -1.13792 -2.66597 0 -0.921045 -2.13054 0 -0.74603 -1.69754 0 -0.605637 -1.34674 0 -0.493819 -1.06157 0 -0.405606 -0.82835 0 -0.336983 -0.635822 0 -0.284771 -0.474613 0 -0.246514 -0.336831 0 -0.220394 -0.2157 0 -0.205155 -0.105244 0 -0.20006 -4.17233e-07 0 30.2207 -1.19209e-07 0 26.7453 -20.5295 0 18.5642 -35.9366 0 9.46237 -44.3123 0 1.9841 -46.6735 0 -3.0982 -45.0198 0 -6.01766 -41.1335 0 -7.33483 -36.2691 0 -7.60137 -31.2069 0 -7.24739 -26.3872 0 -6.57158 -22.029 0 -5.76572 -18.2162 0 -4.94468 -14.9546 0 -4.1718 -12.2088 0 -3.4777 -9.9239 0 -2.8732 -8.03892 0 -2.35779 -6.49393 0 -1.92504 -5.23375 0 -1.56583 -4.2096 0 -1.2703 -3.3794 0 -1.02889 -2.70753 0 -0.832901 -2.16418 0 -0.674704 -1.7246 0 -0.547778 -1.36838 0 -0.446672 -1.07873 0 -0.3669 -0.841801 0 -0.304839 -0.646184 0 -0.257616 -0.482368 0 -0.223013 -0.342346 0 -0.199386 -0.219236 0 -0.185603 -0.10697 0 -0.180994 2.98023e-07 0 26.3252 2.38419e-07 0 23.3902 -19.4966 0 16.4112 -34.4119 0 8.52842 -42.867 0 1.95266 -45.5917 0 -2.57718 -44.339 0 -5.21516 -40.7789 0 -6.43066 -36.1417 0 -6.70335 -31.2213 0 -6.41394 -26.4806 0 -5.82961 -22.1596 0 -5.12319 -18.358 0 -4.39889 -15.0927 0 -3.7146 -12.3353 0 -3.09863 -10.0356 0 -2.56131 -8.13503 0 -2.10267 -6.57516 0 -1.71726 -5.30152 0 -1.39715 -4.26557 0 -1.13367 -3.42527 0 -0.918357 -2.74487 0 -0.743511 -2.1944 0 -0.602348 -1.74892 0 -0.48907 -1.38783 0 -0.398823 -1.09415 0 -0.327612 -0.853893 0 -0.272207 -0.655499 0 -0.230046 -0.489341 0 -0.199151 -0.347304 0 -0.178055 -0.222416 0 -0.165748 -0.108523 0 -0.161633 -2.98023e-07 0 22.6321 -5.96046e-08 0 20.1763 -18.6241 0 14.2866 -33.1085 0 7.54745 -41.6136 0 1.85105 -44.6408 0 -2.11984 -43.733 0 -4.46 -40.4585 0 -5.55761 -36.0228 0 -5.82377 -31.2291 0 -5.59008 -26.5597 0 -5.09153 -22.2728 0 -4.48115 -18.4819 0 -3.85171 -15.2139 0 -3.25509 -12.4467 0 -2.71692 -10.1341 0 -2.2468 -8.21991 0 -1.84512 -6.64696 0 -1.50732 -5.36145 0 -1.22661 -4.31509 0 -0.995445 -3.46587 0 -0.806492 -2.77794 0 -0.653012 -2.22117 0 -0.529074 -1.77046 0 -0.429604 -1.40506 0 -0.350349 -1.10781 0 -0.287805 -0.864608 0 -0.23914 -0.663755 0 -0.202106 -0.495521 0 -0.174967 -0.351699 0 -0.156435 -0.225234 0 -0.145624 -0.1099 0 -0.142009 4.76837e-07 0 19.1079 2.98023e-07 0 17.0822 -17.896 0 12.1891 -32.0096 0 6.52892 -40.5438 0 1.69021 -43.8196 0 -1.71742 -43.2039 0 -3.74622 -40.1753 0 -4.71202 -35.9147 0 -4.96057 -31.2322 0 -4.77483 -26.6258 0 -4.35704 -22.3693 0 -3.83965 -18.5884 0 -3.30339 -15.3184 0 -2.79362 -12.5431 0 -2.33294 -10.2194 0 -1.93002 -8.29352 0 -1.58545 -6.70929 0 -1.2955 -5.41351 0 -1.05442 -4.35813 0 -0.855831 -3.50116 0 -0.693458 -2.80668 0 -0.561539 -2.24444 0 -0.454995 -1.7892 0 -0.369473 -1.42004 0 -0.301325 -1.1197 0 -0.247542 -0.873931 0 -0.205691 -0.670938 0 -0.173841 -0.500899 0 -0.1505 -0.355523 0 -0.134562 -0.227687 0 -0.125263 -0.111097 0 -0.122153 -4.17233e-07 0 15.7227 -2.98023e-07 0 14.0881 -17.2994 0 10.1166 -31.1016 0 5.48077 -39.6504 0 1.48021 -43.127 0 -1.3615 -42.7536 0 -3.06787 -39.9316 0 -3.89014 -35.8196 0 -4.11162 -31.2321 0 -3.96713 -26.6799 0 -3.62573 -22.4498 0 -3.19869 -18.6779 0 -2.75413 -15.4066 0 -2.33048 -12.6245 0 -1.94703 -10.2916 0 -1.6113 -8.35586 0 -1.32397 -6.76211 0 -1.08205 -5.45765 0 -0.88083 -4.39463 0 -0.715022 -3.5311 0 -0.57942 -2.83108 0 -0.46923 -2.2642 0 -0.380223 -1.80511 0 -0.308771 -1.43277 0 -0.251829 -1.1298 0 -0.206887 -0.881847 0 -0.171913 -0.677037 0 -0.145297 -0.505465 0 -0.12579 -0.358771 0 -0.11247 -0.229769 0 -0.104698 -0.112114 0 -0.1021 4.76837e-07 0 12.4493 -1.19209e-07 0 11.1754 -16.824 0 8.06587 -30.373 0 4.40969 -38.9274 0 1.23035 -42.5618 0 -1.04388 -42.3833 0 -2.41899 -39.7295 0 -3.08812 -35.7394 0 -3.27468 -31.2301 0 -3.16585 -26.723 0 -2.89716 -22.515 0 -2.55825 -18.7507 0 -2.20413 -15.4786 0 -1.86598 -12.691 0 -1.55952 -10.3507 0 -1.29096 -8.40691 0 -1.06098 -6.80539 0 -0.867255 -5.49383 0 -0.706069 -4.42456 0 -0.573216 -3.55566 0 -0.464543 -2.85109 0 -0.376224 -2.28041 0 -0.304874 -1.81816 0 -0.247591 -1.44321 0 -0.201938 -1.13808 0 -0.165904 -0.888343 0 -0.137861 -0.682044 0 -0.116519 -0.509212 0 -0.100877 -0.361436 0 -0.0901957 -0.231478 0 -0.0839637 -0.112948 0 -0.0818798 -5.96046e-07 0 9.26288 0 0 8.32665 -16.4617 0 6.03314 -29.8148 0 3.32138 -38.3698 0 0.949366 -42.1231 0 -0.756612 -42.0941 0 -1.79366 -39.5705 0 -2.30206 -35.6754 0 -2.44745 -31.2275 0 -2.36976 -26.7557 0 -2.17085 -22.5652 0 -1.91826 -18.8071 0 -1.65357 -15.5344 0 -1.40041 -12.7428 0 -1.17074 -10.3967 0 -0.96934 -8.44666 0 -0.796784 -6.8391 0 -0.651384 -5.52203 0 -0.530372 -4.4479 0 -0.430611 -3.57481 0 -0.348996 -2.8667 0 -0.282658 -2.29305 0 -0.229061 -1.82834 0 -0.186029 -1.45135 0 -0.151731 -1.14454 0 -0.124658 -0.893411 0 -0.103589 -0.685949 0 -0.0875534 -0.512136 0 -0.0758005 -0.363516 0 -0.0677751 -0.232812 0 -0.0630925 -0.1136 0 -0.0615267 5.96046e-07 0 6.14037 -2.38419e-07 0 5.52516 -16.2067 0 4.01426 -29.4203 0 2.2208 -37.9737 0 0.645455 -41.8098 0 -0.491934 -41.8866 0 -1.18598 -39.4559 0 -1.52802 -35.6287 0 -1.62754 -31.2249 0 -1.57763 -26.7787 0 -1.44626 -22.6009 0 -1.27863 -18.8473 0 -1.1026 -15.5743 0 -0.934044 -12.7797 0 -0.781018 -10.4296 0 -0.646759 -8.47511 0 -0.53169 -6.86324 0 -0.434704 -5.54222 0 -0.353972 -4.46461 0 -0.287407 -3.58852 0 -0.232944 -2.87788 0 -0.188672 -2.30211 0 -0.152901 -1.83564 0 -0.124179 -1.45719 0 -0.101286 -1.14917 0 -0.0832151 -0.897043 0 -0.0691512 -0.688748 0 -0.0584472 -0.514232 0 -0.0506018 -0.365006 0 -0.0452445 -0.233768 0 -0.0421188 -0.114066 0 -0.0410735 -5.96046e-07 0 3.0598 2.38419e-07 0 2.75483 -16.0548 0 2.00476 -29.1846 0 1.11233 -37.7362 0 0.326467 -41.6214 0 -0.242235 -41.7614 0 -0.590055 -39.3865 0 -0.761999 -35.6003 0 -0.812537 -31.2232 0 -0.788146 -26.7924 0 -0.722837 -22.6223 0 -0.63925 -18.8714 0 -0.551366 -15.5983 0 -0.467153 -12.802 0 -0.390666 -10.4494 0 -0.323539 -8.49225 0 -0.265995 -6.87779 0 -0.217487 -5.55439 0 -0.177103 -4.47468 0 -0.143803 -3.59679 0 -0.116556 -2.88462 0 -0.0944061 -2.30757 0 -0.0765086 -1.84004 0 -0.0621375 -1.46071 0 -0.0506826 -1.15197 0 -0.0416405 -0.899234 0 -0.0346032 -0.690436 0 -0.0292471 -0.515495 0 -0.0253214 -0.365905 0 -0.0226406 -0.234344 0 -0.0210765 -0.114348 0 -0.0205536 4.76837e-07 0 1.49012e-07 -1.19209e-06 0 -7.31088e-08 -16.0034 0 5.96046e-08 -29.1048 0 -6.89179e-08 -37.6557 0 4.65661e-08 -41.5574 0 -2.98023e-08 -41.7189 0 5.96046e-08 -39.3629 0 -5.96046e-08 -35.5906 0 4.09782e-08 -31.2225 0 0 -26.797 0 -7.45058e-09 -22.6295 0 -1.49012e-08 -18.8796 0 -7.45058e-09 -15.6064 0 2.98023e-08 -12.8096 0 -1.49012e-08 -10.4561 0 0 -8.49808 0 -2.23517e-08 -6.88273 0 4.47035e-08 -5.55853 0 -1.49012e-08 -4.47811 0 0 -3.5996 0 0 -2.88691 0 -1.49012e-08 -2.30943 0 -2.98023e-08 -1.84153 0 4.47035e-08 -1.46191 0 -4.47035e-08 -1.15292 0 -1.49012e-08 -0.899979 0 1.49012e-08 -0.69101 0 -2.98023e-08 -0.515925 0 -2.98023e-08 -0.36621 0 1.49012e-07 -0.23454 0 -2.98023e-07 -0.114444 0 3.8743e-07 2.38419e-07 0 </DataArray> 
</PointData> 
<Points> 
<DataArray type="Float32" NumberOfComponents="3"> 