<?xml version="1.0"?> 
<VTKFile type="StructuredGrid" version="0.1"> 
<StructuredGrid WholeExtent="0 31 0 31 0 0"> 
<Piece Extent="0 31 0 31 0 0"> 
<PointData>
<DataArray type="Float32" Name="|E|" format="ascii" NumberOfComponents="3"> 
-1.59084e+07 -1.04572e+06 0 -1.53937e+07 -2.1841e+06 0 -1.50833e+07 -3.47218e+06 0 -1.51804e+07 -5.06829e+06 0 -1.60562e+07 -7.34225e+06 0 -1.95441e+07 -1.18573e+07 0 -3.91658e+07 -3.09918e+07 0 2.31371e+07 2.37205e+07 0 5.75721e+06 7.66446e+06 0 2.72789e+06 4.77108e+06 0 1.62293e+06 3.81904e+06 0 1.06139e+06 3.50751e+06 0 690201 3.46741e+06 0 391584 3.55108e+06 0 122818 3.68788e+06 0 -130858 3.84101e+06 0 -373303 3.99093e+06 0 -604393 4.12774e+06 0 -822924 4.24708e+06 0 -1.02779e+06 4.34785e+06 0 -1.21837e+06 4.43078e+06 0 -1.39461e+06 4.49757e+06 0 -1.5569e+06 4.55036e+06 0 -1.70601e+06 4.59143e+06 0 -1.84296e+06 4.62307e+06 0 -1.96895e+06 4.64747e+06 0 -2.0853e+06 4.66677e+06 0 -2.19346e+06 4.68309e+06 0 -2.29507e+06 4.69867e+06 0 -2.39194e+06 4.71599e+06 0 -2.4863e+06 4.73803e+06 0 -2.58091e+06 4.76865e+06 0 -7.75765e+06 7.85157e+06 0 -9.14065e+06 6.59867e+06 0 -1.29042e+07 2.53599e+06 0 -4.91748e+06 1.24561e+07 0 -6.62452e+06 1.0691e+07 0 -6.58814e+06 1.08066e+07 0 -6.64048e+06 1.10439e+07 0 -5.7187e+06 1.16743e+07 0 -4.9088e+06 1.16569e+07 0 -4.3174e+06 1.127e+07 0 -3.78904e+06 1.07623e+07 0 -3.35616e+06 1.01804e+07 0 -3.01037e+06 9.57818e+06 0 -2.74808e+06 8.98761e+06 0 -2.5597e+06 8.43089e+06 0 -2.43395e+06 7.92094e+06 0 -2.35881e+06 7.46393e+06 0 -2.32278e+06 7.06114e+06 0 -2.31567e+06 6.71059e+06 0 -2.32887e+06 6.40839e+06 0 -2.35546e+06 6.1497e+06 0 -2.39009e+06 5.92943e+06 0 -2.42876e+06 5.74266e+06 0 -2.46853e+06 5.58492e+06 0 -2.50733e+06 5.45227e+06 0 -2.54367e+06 5.34132e+06 0 -2.57649e+06 5.24922e+06 0 -2.60493e+06 5.17355e+06 0 -2.62821e+06 5.11223e+06 0 -2.6455e+06 5.0633e+06 0 -2.65572e+06 5.02477e+06 0 -2.65741e+06 4.99421e+06 0 -5.61295e+06 1.69324e+06 0 -5.45918e+06 2.21713e+06 0 -5.50426e+06 2.50679e+06 0 -5.57505e+06 2.76991e+06 0 -5.60716e+06 3.0343e+06 0 -5.639e+06 3.3031e+06 0 -5.47021e+06 3.55875e+06 0 -5.74269e+06 3.61267e+06 0 -5.80789e+06 4.00508e+06 0 -5.74792e+06 4.43676e+06 0 -5.60967e+06 4.82319e+06 0 -5.40835e+06 5.14193e+06 0 -5.16744e+06 5.3821e+06 0 -4.90685e+06 5.54512e+06 0 -4.6436e+06 5.63883e+06 0 -4.39041e+06 5.6747e+06 0 -4.15576e+06 5.66535e+06 0 -3.94442e+06 5.62295e+06 0 -3.7582e+06 5.55826e+06 0 -3.59674e+06 5.48021e+06 0 -3.45833e+06 5.39577e+06 0 -3.34043e+06 5.31012e+06 0 -3.24016e+06 5.22692e+06 0 -3.1546e+06 5.14857e+06 0 -3.08099e+06 5.0765e+06 0 -3.01681e+06 5.01141e+06 0 -2.95984e+06 4.95345e+06 0 -2.90817e+06 4.90236e+06 0 -2.86023e+06 4.85761e+06 0 -2.81477e+06 4.81852e+06 0 -2.77096e+06 4.78431e+06 0 -2.72841e+06 4.75438e+06 0 -4.69842e+06 3.63257e+06 0 -4.66205e+06 3.60812e+06 0 -4.59201e+06 3.61985e+06 0 -4.57518e+06 3.59321e+06 0 -4.56504e+06 3.60963e+06 0 -4.5611e+06 3.63531e+06 0 -4.6226e+06 3.7055e+06 0 -4.51015e+06 3.82856e+06 0 -4.44911e+06 3.83867e+06 0 -4.41077e+06 3.8599e+06 0 -4.37588e+06 3.9094e+06 0 -4.33564e+06 3.98261e+06 0 -4.2829e+06 4.07117e+06 0 -4.21491e+06 4.16537e+06 0 -4.13194e+06 4.25676e+06 0 -4.03651e+06 4.33911e+06 0 -3.93224e+06 4.40862e+06 0 -3.82302e+06 4.46367e+06 0 -3.71245e+06 4.50432e+06 0 -3.60345e+06 4.53181e+06 0 -3.49816e+06 4.54802e+06 0 -3.39798e+06 4.55507e+06 0 -3.30362e+06 4.5551e+06 0 -3.21531e+06 4.55005e+06 0 -3.13287e+06 4.54157e+06 0 -3.0559e+06 4.53101e+06 0 -2.98387e+06 4.51942e+06 0 -2.91617e+06 4.5076e+06 0 -2.85221e+06 4.49614e+06 0 -2.79143e+06 4.48547e+06 0 -2.73329e+06 4.4759e+06 0 -2.67721e+06 4.46762e+06 0 -4.13694e+06 2.79887e+06 0 -4.17211e+06 2.89563e+06 0 -4.20286e+06 2.98297e+06 0 -4.20204e+06 3.07956e+06 0 -4.18873e+06 3.1576e+06 0 -4.1671e+06 3.23302e+06 0 -4.11667e+06 3.28792e+06 0 -4.11978e+06 3.34411e+06 0 -4.10191e+06 3.44049e+06 0 -4.06576e+06 3.52998e+06 0 -4.01853e+06 3.6087e+06 0 -3.96363e+06 3.67905e+06 0 -3.90338e+06 3.74348e+06 0 -3.83872e+06 3.80369e+06 0 -3.77008e+06 3.86035e+06 0 -3.69777e+06 3.91338e+06 0 -3.62225e+06 3.96228e+06 0 -3.54421e+06 4.0065e+06 0 -3.46454e+06 4.04561e+06 0 -3.38417e+06 4.07944e+06 0 -3.30399e+06 4.1081e+06 0 -3.22479e+06 4.13193e+06 0 -3.14719e+06 4.1514e+06 0 -3.07163e+06 4.16713e+06 0 -2.99836e+06 4.1797e+06 0 -2.92751e+06 4.18973e+06 0 -2.85907e+06 4.19775e+06 0 -2.79294e+06 4.20422e+06 0 -2.72896e+06 4.20951e+06 0 -2.66693e+06 4.2139e+06 0 -2.60665e+06 4.21754e+06 0 -2.54794e+06 4.22053e+06 0 -3.86253e+06 2.73502e+06 0 -3.84142e+06 2.76558e+06 0 -3.82504e+06 2.80551e+06 0 -3.81767e+06 2.85121e+06 0 -3.81116e+06 2.90843e+06 0 -3.80085e+06 2.96998e+06 0 -3.79388e+06 3.04289e+06 0 -3.76182e+06 3.11006e+06 0 -3.72828e+06 3.16597e+06 0 -3.69541e+06 3.22612e+06 0 -3.65963e+06 3.28981e+06 0 -3.61946e+06 3.3546e+06 0 -3.57427e+06 3.41857e+06 0 -3.52421e+06 3.48035e+06 0 -3.46975e+06 3.53908e+06 0 -3.41152e+06 3.59425e+06 0 -3.35017e+06 3.64555e+06 0 -3.28639e+06 3.69284e+06 0 -3.22081e+06 3.73605e+06 0 -3.15405e+06 3.77524e+06 0 -3.08669e+06 3.81054e+06 0 -3.01922e+06 3.84217e+06 0 -2.95207e+06 3.87039e+06 0 -2.88558e+06 3.89551e+06 0 -2.82e+06 3.91786e+06 0 -2.75551e+06 3.93776e+06 0 -2.69223e+06 3.95554e+06 0 -2.6302e+06 3.97148e+06 0 -2.56945e+06 3.98583e+06 0 -2.50996e+06 3.99885e+06 0 -2.45169e+06 4.01075e+06 0 -2.39459e+06 4.02177e+06 0 -3.58952e+06 2.51173e+06 0 -3.59116e+06 2.57174e+06 0 -3.5848e+06 2.63011e+06 0 -3.57145e+06 2.68713e+06 0 -3.55396e+06 2.74268e+06 0 -3.53454e+06 2.79917e+06 0 -3.50972e+06 2.85328e+06 0 -3.48868e+06 2.9134e+06 0 -3.46373e+06 2.97716e+06 0 -3.43256e+06 3.03913e+06 0 -3.39697e+06 3.09938e+06 0 -3.35761e+06 3.15832e+06 0 -3.31486e+06 3.21596e+06 0 -3.26889e+06 3.27207e+06 0 -3.2199e+06 3.32632e+06 0 -3.16814e+06 3.37833e+06 0 -3.11394e+06 3.42779e+06 0 -3.05769e+06 3.47448e+06 0 -2.9998e+06 3.51825e+06 0 -2.94068e+06 3.55904e+06 0 -2.8807e+06 3.59687e+06 0 -2.82025e+06 3.63182e+06 0 -2.75962e+06 3.66403e+06 0 -2.6991e+06 3.69365e+06 0 -2.6389e+06 3.72087e+06 0 -2.57919e+06 3.74589e+06 0 -2.52012e+06 3.76891e+06 0 -2.46176e+06 3.79012e+06 0 -2.40417e+06 3.8097e+06 0 -2.34739e+06 3.82782e+06 0 -2.29142e+06 3.8446e+06 0 -2.23625e+06 3.86012e+06 0 -3.38144e+06 2.37311e+06 0 -3.36795e+06 2.42245e+06 0 -3.35581e+06 2.47473e+06 0 -3.34283e+06 2.52993e+06 0 -3.3277e+06 2.58698e+06 0 -3.30912e+06 2.64492e+06 0 -3.28848e+06 2.70488e+06 0 -3.26253e+06 2.76262e+06 0 -3.23344e+06 2.82009e+06 0 -3.20245e+06 2.87828e+06 0 -3.16859e+06 2.93651e+06 0 -3.13166e+06 2.9941e+06 0 -3.09167e+06 3.05056e+06 0 -3.04881e+06 3.10555e+06 0 -3.00329e+06 3.15878e+06 0 -2.95539e+06 3.21002e+06 0 -2.9054e+06 3.25907e+06 0 -2.85361e+06 3.30579e+06 0 -2.80033e+06 3.35008e+06 0 -2.74588e+06 3.3919e+06 0 -2.69054e+06 3.43124e+06 0 -2.6346e+06 3.46813e+06 0 -2.5783e+06 3.50267e+06 0 -2.52187e+06 3.53494e+06 0 -2.46548e+06 3.56506e+06 0 -2.40931e+06 3.59316e+06 0 -2.35346e+06 3.61938e+06 0 -2.29805e+06 3.64385e+06 0 -2.24315e+06 3.6667e+06 0 -2.18881e+06 3.68805e+06 0 -2.13508e+06 3.708e+06 0 -2.08197e+06 3.7267e+06 0 -3.19041e+06 2.2387e+06 0 -3.18077e+06 2.29287e+06 0 -3.16725e+06 2.34773e+06 0 -3.15118e+06 2.40297e+06 0 -3.13276e+06 2.45908e+06 0 -3.11232e+06 2.51602e+06 0 -3.08903e+06 2.57299e+06 0 -3.06386e+06 2.63145e+06 0 -3.03611e+06 2.68982e+06 0 -3.00512e+06 2.74764e+06 0 -2.97139e+06 2.80481e+06 0 -2.93503e+06 2.86118e+06 0 -2.89617e+06 2.91652e+06 0 -2.85491e+06 2.97058e+06 0 -2.81141e+06 3.02312e+06 0 -2.76587e+06 3.07392e+06 0 -2.7185e+06 3.12282e+06 0 -2.66955e+06 3.16969e+06 0 -2.61927e+06 3.21443e+06 0 -2.56789e+06 3.257e+06 0 -2.51566e+06 3.29738e+06 0 -2.46281e+06 3.3356e+06 0 -2.40954e+06 3.37168e+06 0 -2.35603e+06 3.40571e+06 0 -2.30245e+06 3.43776e+06 0 -2.24895e+06 3.46791e+06 0 -2.19563e+06 3.49628e+06 0 -2.14259e+06 3.52296e+06 0 -2.08993e+06 3.54804e+06 0 -2.03769e+06 3.57163e+06 0 -1.98592e+06 3.59381e+06 0 -1.93468e+06 3.61466e+06 0 -3.0236e+06 2.12113e+06 0 -3.00966e+06 2.17554e+06 0 -2.99474e+06 2.23102e+06 0 -2.97784e+06 2.28759e+06 0 -2.95877e+06 2.34476e+06 0 -2.93728e+06 2.40242e+06 0 -2.91359e+06 2.4606e+06 0 -2.8873e+06 2.51839e+06 0 -2.8585e+06 2.57623e+06 0 -2.8275e+06 2.63383e+06 0 -2.79409e+06 2.69089e+06 0 -2.75832e+06 2.74714e+06 0 -2.72028e+06 2.80233e+06 0 -2.68011e+06 2.85625e+06 0 -2.63795e+06 2.90872e+06 0 -2.59399e+06 2.95958e+06 0 -2.54841e+06 3.00867e+06 0 -2.50141e+06 3.05589e+06 0 -2.45322e+06 3.10117e+06 0 -2.40403e+06 3.14446e+06 0 -2.35404e+06 3.18573e+06 0 -2.30345e+06 3.22499e+06 0 -2.25243e+06 3.26228e+06 0 -2.20116e+06 3.29764e+06 0 -2.14976e+06 3.33112e+06 0 -2.09837e+06 3.3628e+06 0 -2.0471e+06 3.39275e+06 0 -1.99604e+06 3.42105e+06 0 -1.94527e+06 3.44778e+06 0 -1.89486e+06 3.47301e+06 0 -1.84486e+06 3.49683e+06 0 -1.79531e+06 3.51931e+06 0 -2.86954e+06 2.01361e+06 0 -2.85529e+06 2.06964e+06 0 -2.83878e+06 2.12652e+06 0 -2.82037e+06 2.18398e+06 0 -2.79997e+06 2.24203e+06 0 -2.77754e+06 2.30045e+06 0 -2.7529e+06 2.35898e+06 0 -2.72613e+06 2.41769e+06 0 -2.69719e+06 2.47609e+06 0 -2.66594e+06 2.53404e+06 0 -2.63253e+06 2.59134e+06 0 -2.59701e+06 2.64779e+06 0 -2.55948e+06 2.70319e+06 0 -2.52004e+06 2.75735e+06 0 -2.47883e+06 2.8101e+06 0 -2.436e+06 2.8613e+06 0 -2.39173e+06 2.91083e+06 0 -2.34619e+06 2.95858e+06 0 -2.29956e+06 3.00448e+06 0 -2.25203e+06 3.0485e+06 0 -2.20377e+06 3.09061e+06 0 -2.15495e+06 3.13082e+06 0 -2.10573e+06 3.16913e+06 0 -2.05625e+06 3.20559e+06 0 -2.00664e+06 3.24024e+06 0 -1.95702e+06 3.27314e+06 0 -1.90749e+06 3.30435e+06 0 -1.85813e+06 3.33392e+06 0 -1.80904e+06 3.36194e+06 0 -1.76026e+06 3.38847e+06 0 -1.71186e+06 3.41357e+06 0 -1.66388e+06 3.4373e+06 0 -2.72776e+06 1.91382e+06 0 -2.71166e+06 1.97156e+06 0 -2.69404e+06 2.02992e+06 0 -2.67457e+06 2.08887e+06 0 -2.65321e+06 2.14819e+06 0 -2.62987e+06 2.20774e+06 0 -2.60455e+06 2.26738e+06 0 -2.57718e+06 2.32683e+06 0 -2.54775e+06 2.386e+06 0 -2.51634e+06 2.44466e+06 0 -2.48294e+06 2.50261e+06 0 -2.44762e+06 2.55966e+06 0 -2.41047e+06 2.61563e+06 0 -2.37159e+06 2.67035e+06 0 -2.33112e+06 2.72366e+06 0 -2.28919e+06 2.77545e+06 0 -2.24596e+06 2.8256e+06 0 -2.20158e+06 2.87402e+06 0 -2.15623e+06 2.92065e+06 0 -2.11006e+06 2.96545e+06 0 -2.06323e+06 3.00839e+06 0 -2.01588e+06 3.04948e+06 0 -1.96818e+06 3.08874e+06 0 -1.92023e+06 3.12617e+06 0 -1.87217e+06 3.16184e+06 0 -1.82409e+06 3.19577e+06 0 -1.77611e+06 3.22803e+06 0 -1.72829e+06 3.25868e+06 0 -1.68071e+06 3.28776e+06 0 -1.63344e+06 3.31534e+06 0 -1.58653e+06 3.34148e+06 0 -1.54003e+06 3.36625e+06 0 -2.59449e+06 1.82048e+06 0 -2.57733e+06 1.87998e+06 0 -2.55847e+06 1.94009e+06 0 -2.53792e+06 2.00062e+06 0 -2.51561e+06 2.06144e+06 0 -2.49149e+06 2.12238e+06 0 -2.4655e+06 2.18327e+06 0 -2.43763e+06 2.24395e+06 0 -2.4079e+06 2.3042e+06 0 -2.3763e+06 2.36386e+06 0 -2.34289e+06 2.42274e+06 0 -2.30773e+06 2.48066e+06 0 -2.27091e+06 2.53745e+06 0 -2.23252e+06 2.59297e+06 0 -2.19269e+06 2.64706e+06 0 -2.15154e+06 2.69962e+06 0 -2.10921e+06 2.75055e+06 0 -2.06585e+06 2.79976e+06 0 -2.02162e+06 2.8472e+06 0 -1.97664e+06 2.89282e+06 0 -1.93107e+06 2.93662e+06 0 -1.88505e+06 2.97858e+06 0 -1.83869e+06 3.01872e+06 0 -1.79213e+06 3.05706e+06 0 -1.74547e+06 3.09364e+06 0 -1.69882e+06 3.1285e+06 0 -1.65226e+06 3.16168e+06 0 -1.60586e+06 3.19323e+06 0 -1.55971e+06 3.22322e+06 0 -1.51386e+06 3.2517e+06 0 -1.46837e+06 3.27872e+06 0 -1.42329e+06 3.30435e+06 0 -2.46841e+06 1.73194e+06 0 -2.44994e+06 1.79353e+06 0 -2.43e+06 1.85558e+06 0 -2.40846e+06 1.91797e+06 0 -2.38529e+06 1.98054e+06 0 -2.36044e+06 2.04313e+06 0 -2.33388e+06 2.10557e+06 0 -2.30559e+06 2.16768e+06 0 -2.27557e+06 2.22928e+06 0 -2.24386e+06 2.2902e+06 0 -2.21049e+06 2.35026e+06 0 -2.17553e+06 2.40928e+06 0 -2.13905e+06 2.46713e+06 0 -2.10115e+06 2.52364e+06 0 -2.06194e+06 2.5787e+06 0 -2.02154e+06 2.63218e+06 0 -1.98007e+06 2.68401e+06 0 -1.93768e+06 2.73411e+06 0 -1.89448e+06 2.78243e+06 0 -1.85063e+06 2.82892e+06 0 -1.80625e+06 2.87358e+06 0 -1.76146e+06 2.91641e+06 0 -1.71638e+06 2.9574e+06 0 -1.67113e+06 2.99659e+06 0 -1.6258e+06 3.03401e+06 0 -1.58049e+06 3.0697e+06 0 -1.53528e+06 3.1037e+06 0 -1.49025e+06 3.13606e+06 0 -1.44546e+06 3.16685e+06 0 -1.40098e+06 3.1961e+06 0 -1.35685e+06 3.22388e+06 0 -1.31314e+06 3.25024e+06 0 -2.34778e+06 1.64733e+06 0 -2.32813e+06 1.71119e+06 0 -2.30708e+06 1.77545e+06 0 -2.28461e+06 1.83994e+06 0 -2.26065e+06 1.90453e+06 0 -2.23515e+06 1.96903e+06 0 -2.2081e+06 2.03327e+06 0 -2.17948e+06 2.09709e+06 0 -2.14929e+06 2.16029e+06 0 -2.11755e+06 2.22271e+06 0 -2.08431e+06 2.28417e+06 0 -2.04962e+06 2.34452e+06 0 -2.01355e+06 2.4036e+06 0 -1.9762e+06 2.46128e+06 0 -1.93766e+06 2.51744e+06 0 -1.89803e+06 2.57198e+06 0 -1.85745e+06 2.62482e+06 0 -1.81602e+06 2.67588e+06 0 -1.77388e+06 2.72512e+06 0 -1.73113e+06 2.77252e+06 0 -1.68792e+06 2.81805e+06 0 -1.64434e+06 2.86171e+06 0 -1.60051e+06 2.90353e+06 0 -1.55652e+06 2.94352e+06 0 -1.51249e+06 2.98172e+06 0 -1.46849e+06 3.01816e+06 0 -1.4246e+06 3.0529e+06 0 -1.38089e+06 3.08598e+06 0 -1.33743e+06 3.11746e+06 0 -1.29428e+06 3.1474e+06 0 -1.25148e+06 3.17584e+06 0 -1.2091e+06 3.20284e+06 0 -2.23146e+06 1.5657e+06 0 -2.21055e+06 1.63214e+06 0 -2.18845e+06 1.69889e+06 0 -2.16507e+06 1.76579e+06 0 -2.14038e+06 1.83268e+06 0 -2.11434e+06 1.89938e+06 0 -2.08691e+06 1.96571e+06 0 -2.05807e+06 2.03149e+06 0 -2.02783e+06 2.09655e+06 0 -1.9962e+06 2.1607e+06 0 -1.96321e+06 2.22378e+06 0 -1.92892e+06 2.28563e+06 0 -1.89338e+06 2.34613e+06 0 -1.85668e+06 2.40512e+06 0 -1.8189e+06 2.46251e+06 0 -1.78014e+06 2.5182e+06 0 -1.7405e+06 2.57211e+06 0 -1.7001e+06 2.62418e+06 0 -1.65904e+06 2.67438e+06 0 -1.61745e+06 2.72268e+06 0 -1.57542e+06 2.76907e+06 0 -1.53306e+06 2.81355e+06 0 -1.49048e+06 2.85615e+06 0 -1.44777e+06 2.89689e+06 0 -1.40501e+06 2.9358e+06 0 -1.3623e+06 2.97293e+06 0 -1.31971e+06 3.00833e+06 0 -1.2773e+06 3.04206e+06 0 -1.23514e+06 3.07415e+06 0 -1.19329e+06 3.10468e+06 0 -1.1518e+06 3.1337e+06 0 -1.11071e+06 3.16127e+06 0 -2.11832e+06 1.48632e+06 0 -2.09612e+06 1.55567e+06 0 -2.07294e+06 1.62527e+06 0 -2.04871e+06 1.69493e+06 0 -2.02338e+06 1.76447e+06 0 -1.9969e+06 1.83369e+06 0 -1.96922e+06 1.90241e+06 0 -1.94033e+06 1.97044e+06 0 -1.9102e+06 2.0376e+06 0 -1.87885e+06 2.10371e+06 0 -1.8463e+06 2.16861e+06 0 -1.81257e+06 2.23215e+06 0 -1.77773e+06 2.2942e+06 0 -1.74183e+06 2.35462e+06 0 -1.70495e+06 2.41333e+06 0 -1.66717e+06 2.47023e+06 0 -1.62859e+06 2.52525e+06 0 -1.58931e+06 2.57836e+06 0 -1.54942e+06 2.62952e+06 0 -1.50903e+06 2.6787e+06 0 -1.46823e+06 2.72592e+06 0 -1.42713e+06 2.77118e+06 0 -1.38582e+06 2.8145e+06 0 -1.34439e+06 2.85592e+06 0 -1.30292e+06 2.89548e+06 0 -1.2615e+06 2.93323e+06 0 -1.22019e+06 2.96922e+06 0 -1.17906e+06 3.0035e+06 0 -1.13818e+06 3.03614e+06 0 -1.0976e+06 3.0672e+06 0 -1.05737e+06 3.09673e+06 0 -1.01754e+06 3.1248e+06 0 -2.00735e+06 1.40847e+06 0 -1.98379e+06 1.48118e+06 0 -1.95953e+06 1.55406e+06 0 -1.9345e+06 1.6269e+06 0 -1.90863e+06 1.69949e+06 0 -1.88185e+06 1.77161e+06 0 -1.85411e+06 1.84306e+06 0 -1.82537e+06 1.91364e+06 0 -1.79558e+06 1.98317e+06 0 -1.76474e+06 2.05147e+06 0 -1.73285e+06 2.11838e+06 0 -1.69991e+06 2.18375e+06 0 -1.66597e+06 2.24747e+06 0 -1.63107e+06 2.30941e+06 0 -1.59527e+06 2.36949e+06 0 -1.55864e+06 2.42763e+06 0 -1.52125e+06 2.48378e+06 0 -1.4832e+06 2.53791e+06 0 -1.44458e+06 2.58999e+06 0 -1.40547e+06 2.64001e+06 0 -1.36597e+06 2.688e+06 0 -1.32617e+06 2.73397e+06 0 -1.28616e+06 2.77795e+06 0 -1.24602e+06 2.81998e+06 0 -1.20584e+06 2.86011e+06 0 -1.16569e+06 2.8984e+06 0 -1.12565e+06 2.9349e+06 0 -1.08578e+06 2.96967e+06 0 -1.04614e+06 3.00278e+06 0 -1.00679e+06 3.0343e+06 0 -967789 3.06428e+06 0 -929178 3.0928e+06 0 -1.89759e+06 1.33147e+06 0 -1.87254e+06 1.40809e+06 0 -1.84719e+06 1.4848e+06 0 -1.82142e+06 1.56135e+06 0 -1.79516e+06 1.63747e+06 0 -1.7683e+06 1.71293e+06 0 -1.74074e+06 1.7875e+06 0 -1.71242e+06 1.86097e+06 0 -1.68327e+06 1.93314e+06 0 -1.65324e+06 2.00385e+06 0 -1.62229e+06 2.07293e+06 0 -1.59043e+06 2.14027e+06 0 -1.55765e+06 2.20573e+06 0 -1.52398e+06 2.26923e+06 0 -1.48947e+06 2.33069e+06 0 -1.45417e+06 2.39006e+06 0 -1.41814e+06 2.4473e+06 0 -1.38145e+06 2.5024e+06 0 -1.3442e+06 2.55534e+06 0 -1.30646e+06 2.60613e+06 0 -1.26832e+06 2.65481e+06 0 -1.22986e+06 2.7014e+06 0 -1.19118e+06 2.74595e+06 0 -1.15234e+06 2.7885e+06 0 -1.11345e+06 2.82912e+06 0 -1.07456e+06 2.86786e+06 0 -1.03576e+06 2.90479e+06 0 -997113 2.93999e+06 0 -958679 2.97351e+06 0 -920520 3.00543e+06 0 -882690 3.03582e+06 0 -845243 3.06475e+06 0 -1.78801e+06 1.25461e+06 0 -1.76133e+06 1.33586e+06 0 -1.73487e+06 1.41711e+06 0 -1.70848e+06 1.49802e+06 0 -1.68203e+06 1.57828e+06 0 -1.65537e+06 1.6576e+06 0 -1.62834e+06 1.73572e+06 0 -1.60081e+06 1.81243e+06 0 -1.57267e+06 1.88753e+06 0 -1.54382e+06 1.96085e+06 0 -1.51419e+06 2.03225e+06 0 -1.48374e+06 2.10162e+06 0 -1.45243e+06 2.16886e+06 0 -1.42028e+06 2.23391e+06 0 -1.3873e+06 2.29672e+06 0 -1.35353e+06 2.35726e+06 0 -1.31903e+06 2.41551e+06 0 -1.28385e+06 2.47148e+06 0 -1.24807e+06 2.52517e+06 0 -1.21178e+06 2.57663e+06 0 -1.17505e+06 2.62589e+06 0 -1.13797e+06 2.67299e+06 0 -1.10062e+06 2.718e+06 0 -1.06309e+06 2.76098e+06 0 -1.02546e+06 2.80199e+06 0 -987809 2.84111e+06 0 -950211 2.8784e+06 0 -912737 2.91395e+06 0 -875454 2.94782e+06 0 -838425 2.9801e+06 0 -801710 3.01085e+06 0 -765363 3.04016e+06 0 -1.67752e+06 1.17714e+06 0 -1.64899e+06 1.26397e+06 0 -1.62142e+06 1.35068e+06 0 -1.59459e+06 1.43679e+06 0 -1.56827e+06 1.52192e+06 0 -1.54221e+06 1.60572e+06 0 -1.51617e+06 1.6879e+06 0 -1.48994e+06 1.76822e+06 0 -1.46332e+06 1.84651e+06 0 -1.43613e+06 1.92261e+06 0 -1.40827e+06 1.99641e+06 0 -1.37962e+06 2.06783e+06 0 -1.35015e+06 2.13683e+06 0 -1.31982e+06 2.20336e+06 0 -1.28863e+06 2.26741e+06 0 -1.25661e+06 2.32899e+06 0 -1.22379e+06 2.38811e+06 0 -1.19025e+06 2.44481e+06 0 -1.15605e+06 2.49912e+06 0 -1.12126e+06 2.5511e+06 0 -1.08598e+06 2.60081e+06 0 -1.05028e+06 2.64831e+06 0 -1.01427e+06 2.69366e+06 0 -978019 2.73696e+06 0 -941620 2.77827e+06 0 -905155 2.81767e+06 0 -868704 2.85525e+06 0 -832344 2.89109e+06 0 -796145 2.92527e+06 0 -760175 2.95787e+06 0 -724499 2.98897e+06 0 -689178 3.01864e+06 0 -1.56476e+06 1.09808e+06 0 -1.53414e+06 1.19184e+06 0 -1.5055e+06 1.28524e+06 0 -1.47851e+06 1.37767e+06 0 -1.4528e+06 1.4686e+06 0 -1.42795e+06 1.55761e+06 0 -1.40357e+06 1.64438e+06 0 -1.37931e+06 1.7287e+06 0 -1.35484e+06 1.8104e+06 0 -1.32992e+06 1.88938e+06 0 -1.30436e+06 1.96558e+06 0 -1.278e+06 2.03899e+06 0 -1.25075e+06 2.10961e+06 0 -1.22257e+06 2.17747e+06 0 -1.19343e+06 2.24258e+06 0 -1.16336e+06 2.30502e+06 0 -1.13239e+06 2.36483e+06 0 -1.10059e+06 2.42207e+06 0 -1.06803e+06 2.47683e+06 0 -1.03479e+06 2.52916e+06 0 -1.00096e+06 2.57917e+06 0 -966644 2.62692e+06 0 -931929 2.6725e+06 0 -896912 2.716e+06 0 -861686 2.75751e+06 0 -826341 2.79713e+06 0 -790963 2.83493e+06 0 -755636 2.87101e+06 0 -720438 2.90545e+06 0 -685443 2.93835e+06 0 -650721 2.96978e+06 0 -616340 2.99983e+06 0 -1.44825e+06 1.0165e+06 0 -1.41506e+06 1.11887e+06 0 -1.38546e+06 1.22066e+06 0 -1.35882e+06 1.32086e+06 0 -1.33447e+06 1.41875e+06 0 -1.31172e+06 1.51383e+06 0 -1.28993e+06 1.60578e+06 0 -1.26853e+06 1.69441e+06 0 -1.24705e+06 1.77966e+06 0 -1.22513e+06 1.86151e+06 0 -1.20248e+06 1.94e+06 0 -1.17892e+06 2.01521e+06 0 -1.15432e+06 2.08723e+06 0 -1.12861e+06 2.15615e+06 0 -1.10177e+06 2.22208e+06 0 -1.07383e+06 2.28511e+06 0 -1.04483e+06 2.34536e+06 0 -1.01484e+06 2.40293e+06 0 -983954 2.45792e+06 0 -952263 2.51042e+06 0 -919872 2.56055e+06 0 -886886 2.60841e+06 0 -853412 2.65409e+06 0 -819556 2.69769e+06 0 -785421 2.73932e+06 0 -751107 2.77908e+06 0 -716710 2.81704e+06 0 -682320 2.85333e+06 0 -648026 2.88801e+06 0 -613907 2.92119e+06 0 -580042 2.95296e+06 0 -546505 2.98339e+06 0 -1.32534e+06 930374 0 -1.28945e+06 1.0444e+06 0 -1.25919e+06 1.15697e+06 0 -1.23377e+06 1.26689e+06 0 -1.21197e+06 1.37319e+06 0 -1.19264e+06 1.4753e+06 0 -1.17473e+06 1.57297e+06 0 -1.15739e+06 1.66614e+06 0 -1.13993e+06 1.7549e+06 0 -1.12187e+06 1.83943e+06 0 -1.10284e+06 1.91992e+06 0 -1.08262e+06 1.99659e+06 0 -1.06107e+06 2.06964e+06 0 -1.03813e+06 2.13928e+06 0 -1.01379e+06 2.20567e+06 0 -988112 2.26899e+06 0 -961151 2.32939e+06 0 -933006 2.38702e+06 0 -903784 2.44201e+06 0 -873602 2.49448e+06 0 -842584 2.54457e+06 0 -810851 2.59239e+06 0 -778528 2.63804e+06 0 -745735 2.68165e+06 0 -712587 2.72332e+06 0 -679196 2.76315e+06 0 -645668 2.80124e+06 0 -612106 2.8377e+06 0 -578603 2.87262e+06 0 -545252 2.9061e+06 0 -512136 2.93822e+06 0 -479338 2.96907e+06 0 -1.19445e+06 839063 0 -1.154e+06 967655 0 -1.12382e+06 1.09454e+06 0 -1.10115e+06 1.21683e+06 0 -1.08384e+06 1.33331e+06 0 -1.06991e+06 1.44343e+06 0 -1.05769e+06 1.54719e+06 0 -1.04595e+06 1.64486e+06 0 -1.03376e+06 1.73685e+06 0 -1.02052e+06 1.82361e+06 0 -1.00583e+06 1.90559e+06 0 -989471 1.9832e+06 0 -971331 2.05678e+06 0 -951394 2.12665e+06 0 -929704 2.19309e+06 0 -906345 2.25631e+06 0 -881431 2.31654e+06 0 -855092 2.37395e+06 0 -827470 2.4287e+06 0 -798712 2.48095e+06 0 -768965 2.53082e+06 0 -738375 2.57846e+06 0 -707083 2.62398e+06 0 -675229 2.66751e+06 0 -642941 2.70914e+06 0 -610347 2.74901e+06 0 -577563 2.7872e+06 0 -544701 2.82383e+06 0 -511869 2.85899e+06 0 -479164 2.89278e+06 0 -446681 2.92529e+06 0 -414510 2.95661e+06 0 -1.0463e+06 735615 0 -1.00416e+06 888091 0 -975305 1.03439e+06 0 -958214 1.17265e+06 0 -948567 1.30132e+06 0 -942967 1.42025e+06 0 -938900 1.5301e+06 0 -934656 1.63179e+06 0 -929149 1.72628e+06 0 -921732 1.81448e+06 0 -912062 1.89717e+06 0 -899999 1.97497e+06 0 -885531 2.04843e+06 0 -868729 2.11798e+06 0 -849720 2.18397e+06 0 -828660 2.2467e+06 0 -805723 2.30641e+06 0 -781091 2.36331e+06 0 -754950 2.41759e+06 0 -727483 2.46941e+06 0 -698867 2.51892e+06 0 -669275 2.56625e+06 0 -638870 2.61154e+06 0 -607808 2.65491e+06 0 -576237 2.69648e+06 0 -544295 2.73635e+06 0 -512115 2.77463e+06 0 -479819 2.81143e+06 0 -447523 2.84686e+06 0 -415336 2.881e+06 0 -383363 2.91396e+06 0 -351700 2.94582e+06 0 -887382 625016 0 -830909 804639 0 -807822 979023 0 -801559 1.13797e+06 0 -804806 1.28073e+06 0 -811825 1.40861e+06 0 -819077 1.52372e+06 0 -824536 1.6282e+06 0 -827152 1.7239e+06 0 -826461 1.81232e+06 0 -822335 1.89462e+06 0 -814839 1.97171e+06 0 -804142 2.04428e+06 0 -790465 2.11287e+06 0 -774055 2.1779e+06 0 -755168 2.2397e+06 0 -734056 2.29855e+06 0 -710966 2.35467e+06 0 -686133 2.40825e+06 0 -659782 2.45947e+06 0 -632123 2.50848e+06 0 -603356 2.55541e+06 0 -573668 2.60039e+06 0 -543235 2.64356e+06 0 -512220 2.68502e+06 0 -480776 2.72488e+06 0 -449048 2.76327e+06 0 -417170 2.80027e+06 0 -385269 2.836e+06 0 -353465 2.87055e+06 0 -321870 2.90402e+06 0 -290591 2.93651e+06 0 -661103 472614 0 -624499 719915 0 -612254 934102 0 -627523 1.11925e+06 0 -652101 1.27688e+06 0 -677663 1.41218e+06 0 -699966 1.53029e+06 0 -717340 1.63527e+06 0 -729301 1.73016e+06 0 -735940 1.81712e+06 0 -737589 1.89769e+06 0 -734673 1.97299e+06 0 -727634 2.04382e+06 0 -716900 2.11079e+06 0 -702875 2.17434e+06 0 -685932 2.23481e+06 0 -666414 2.29248e+06 0 -644638 2.34757e+06 0 -620892 2.40027e+06 0 -595445 2.45075e+06 0 -568540 2.49914e+06 0 -540405 2.54559e+06 0 -511248 2.59022e+06 0 -481265 2.63315e+06 0 -450633 2.67449e+06 0 -419521 2.71436e+06 0 -388086 2.75287e+06 0 -356472 2.79012e+06 0 -324818 2.82621e+06 0 -293253 2.86124e+06 0 -261899 2.89532e+06 0 -230874 2.92852e+06 0 -466662 327566 0 -344579 634629 0 -377467 912809 0 -433282 1.12796e+06 0 -492566 1.29728e+06 0 -543759 1.4352e+06 0 -584739 1.55181e+06 0 -615652 1.6537e+06 0 -637549 1.74501e+06 0 -651576 1.82845e+06 0 -658801 1.90576e+06 0 -660149 1.97815e+06 0 -656410 2.04641e+06 0 -648258 2.11113e+06 0 -636270 2.17272e+06 0 -620946 2.23151e+06 0 -602721 2.28773e+06 0 -581980 2.3416e+06 0 -559064 2.39326e+06 0 -534282 2.44288e+06 0 -507908 2.49059e+06 0 -480194 2.5365e+06 0 -451371 2.58074e+06 0 -421648 2.62343e+06 0 -391220 2.66467e+06 0 -360266 2.70457e+06 0 -328955 2.74324e+06 0 -297445 2.78078e+06 0 -265881 2.81731e+06 0 -234406 2.85291e+06 0 -203150 2.88769e+06 0 -172243 2.92174e+06 0 150225 -15550.3 0 22336 591111 0 -84865.2 944986 0 -224080 1.18229e+06 0 -333195 1.35102e+06 0 -416700 1.48118e+06 0 -478098 1.58923e+06 0 -522751 1.68314e+06 0 -554056 1.76765e+06 0 -574768 1.84536e+06 0 -586839 1.91791e+06 0 -591777 1.98631e+06 0 -590738 2.05125e+06 0 -584641 2.11318e+06 0 -574231 2.17244e+06 0 -560123 2.22926e+06 0 -542837 2.28384e+06 0 -522817 2.33632e+06 0 -500450 2.38684e+06 0 -476076 2.43554e+06 0 -449998 2.4825e+06 0 -422488 2.52786e+06 0 -393792 2.57171e+06 0 -364135 2.61416e+06 0 -333723 2.65531e+06 0 -302748 2.69529e+06 0 -271389 2.73418e+06 0 -239814 2.7721e+06 0 -208180 2.80915e+06 0 -176638 2.84542e+06 0 -145331 2.88103e+06 0 -114401 2.91606e+06 0 342283 -241099 0 783744 683609 0 220361 1.08148e+06 0 -11329.3 1.30962e+06 0 -193934 1.44334e+06 0 -305326 1.5513e+06 0 -386267 1.64108e+06 0 -441989 1.72192e+06 0 -480863 1.79636e+06 0 -506654 1.86637e+06 0 -522327 1.93286e+06 0 -529853 1.99645e+06 0 -530710 2.05749e+06 0 -526015 2.11625e+06 0 -516643 2.17289e+06 0 -503300 2.22756e+06 0 -486569 2.28035e+06 0 -466937 2.33136e+06 0 -444825 2.38069e+06 0 -420598 2.42841e+06 0 -394576 2.47463e+06 0 -367047 2.51942e+06 0 -338270 2.56289e+06 0 -308480 2.60513e+06 0 -277894 2.64625e+06 0 -246713 2.68635e+06 0 -215127 2.72553e+06 0 -183312 2.76391e+06 0 -151438 2.80158e+06 0 -119666 2.83864e+06 0 -88152.5 2.87521e+06 0 -57049.7 2.91137e+06 0 8.65392e+06 -319086 0 1.01653e+06 1.32137e+06 0 555558 1.42192e+06 0 109080 1.5142e+06 0 -87758 1.57111e+06 0 -223180 1.63969e+06 0 -313773 1.70306e+06 0 -376206 1.7665e+06 0 -419185 1.82863e+06 0 -447832 1.88954e+06 0 -465450 1.94916e+06 0 -474357 2.00741e+06 0 -476188 2.06423e+06 0 -472177 2.1196e+06 0 -463271 2.1735e+06 0 -450226 2.22592e+06 0 -433659 2.27687e+06 0 -414083 2.32638e+06 0 -391937 2.37449e+06 0 -367596 2.42125e+06 0 -341394 2.46671e+06 0 -313627 2.51096e+06 0 -284560 2.55408e+06 0 -254437 2.59616e+06 0 -223483 2.63729e+06 0 -191908 2.67758e+06 0 -159909 2.71714e+06 0 -127673 2.75607e+06 0 -95382.4 2.79447e+06 0 -63209.2 2.83247e+06 0 -31326.1 2.87015e+06 0 110.771 2.90762e+06 0 </DataArray> 
</PointData> 
<Points> 
<DataArray type="Float32" NumberOfComponents="3"> 