<?xml version="1.0"?> 
<VTKFile type="StructuredGrid" version="0.1"> 
<StructuredGrid WholeExtent="0 31 0 31 0 0"> 
<Piece Extent="0 31 0 31 0 0"> 
<PointData>
<DataArray type="Float32" Name="|E|" format="ascii" NumberOfComponents="3"> 
433327 761521 0 415660 727224 0 398924 694004 0 383078 661809 0 368080 630581 0 353891 600268 0 340475 570820 0 327796 542189 0 315821 514330 0 304517 487198 0 293855 460753 0 283807 434954 0 274345 409760 0 265445 385134 0 257083 361039 0 249235 337438 0 241881 314297 0 235002 291580 0 228576 269254 0 222588 247285 0 217020 225642 0 211856 204291 0 207081 183200 0 202682 162339 0 198644 141676 0 194956 121180 0 191606 100820 0 188582 80566.5 0 185874 60388.1 0 183473 40254.6 0 181369 20135.4 0 179553 0 0 419298 764377 0 402237 729897 0 386075 696507 0 370769 664148 0 356281 632764 0 342573 602303 0 329610 572715 0 317358 543951 0 305784 515965 0 294859 488714 0 284554 462155 0 274841 436247 0 265694 410950 0 257090 386226 0 249005 362039 0 241417 338350 0 234306 315125 0 227652 292328 0 221438 269927 0 215646 247887 0 210259 226175 0 205263 204759 0 200643 183608 0 196385 162689 0 192477 141971 0 188906 121424 0 185661 101016 0 182732 80717.4 0 180108 60496.8 0 177779 40324 0 175738 20168.6 0 173975 0 0 405238 767035 0 388785 732388 0 373196 698838 0 358431 666328 0 344452 634800 0 331225 604201 0 318715 574482 0 306889 545594 0 295718 517490 0 285172 490127 0 275223 463461 0 265846 437452 0 257015 412060 0 248706 387245 0 240898 362970 0 233570 339199 0 226703 315896 0 220276 293025 0 214273 270553 0 208677 248446 0 203473 226670 0 198645 205195 0 194180 183986 0 190064 163013 0 186285 142245 0 182832 121650 0 179694 101197 0 176859 80856.4 0 174319 60596.7 0 172064 40387.8 0 170086 20199 0 168377 0 0 391153 769497 0 375307 734696 0 360291 701000 0 346065 668349 0 332596 636688 0 319849 605962 0 307792 576122 0 296393 547119 0 285625 518906 0 275458 491438 0 265866 464674 0 256824 438571 0 248308 413089 0 240296 388189 0 232766 363834 0 225698 339986 0 219073 316609 0 212874 293670 0 207082 271132 0 201683 248962 0 196661 227128 0 192002 205596 0 187692 184335 0 183718 163312 0 180070 142497 0 176735 121857 0 173703 101363 0 170964 80983.6 0 168508 60688 0 166328 40445.9 0 164414 20226.7 0 162758 0 0 377046 771764 0 361806 736823 0 347362 702993 0 333676 670214 0 320715 638429 0 308448 607587 0 296843 577635 0 285872 548525 0 275506 520211 0 265718 492648 0 256482 465792 0 247776 439602 0 239576 414037 0 231860 389059 0 224608 364629 0 217800 340710 0 211419 317267 0 205447 294263 0 199867 271664 0 194665 249437 0 189825 227548 0 185335 205964 0 181180 184654 0 177350 163585 0 173832 142726 0 170615 122046 0 167690 101514 0 165047 81099 0 162677 60770.6 0 160571 40498.3 0 158721 20251.6 0 157120 0 0 362922 773838 0 348287 738770 0 334412 704817 0 321265 671921 0 308812 640024 0 297024 609075 0 285872 579021 0 275327 549814 0 265363 521408 0 255954 493756 0 247075 466816 0 238705 440546 0 230820 414906 0 223400 389855 0 216426 365357 0 209879 341373 0 203741 317867 0 197996 294804 0 192629 272149 0 187623 249869 0 182967 227930 0 178645 206299 0 174647 184944 0 170959 163833 0 167572 142934 0 164474 122217 0 161657 101650 0 159110 81202.7 0 156825 60844.6 0 154793 40545.1 0 153009 20273.7 0 151462 0 0 348783 775718 0 334751 740536 0 321446 706473 0 308835 673471 0 296890 641474 0 285581 610427 0 274881 580281 0 264762 550986 0 255199 522495 0 246168 494763 0 237646 467747 0 229611 441404 0 222042 415694 0 214918 390578 0 208222 366016 0 201935 341973 0 196041 318410 0 190524 295294 0 185368 272588 0 180560 250260 0 176086 228275 0 171934 206600 0 168091 185204 0 164547 164055 0 161291 143120 0 158312 122369 0 155602 101771 0 153152 81294.6 0 150953 60909.9 0 148997 40586.2 0 147278 20293 0 145787 0 0 334634 777408 0 321202 742124 0 308465 707963 0 296390 674866 0 284951 642778 0 274120 611644 0 263871 581415 0 254177 552040 0 245016 523473 0 236363 495669 0 228197 468584 0 220497 442175 0 213243 416403 0 206415 391227 0 199997 366609 0 193970 342511 0 188320 318897 0 183030 295732 0 178086 272980 0 173475 250608 0 169185 228581 0 165202 206868 0 161515 185435 0 158115 164251 0 154990 143284 0 152131 122503 0 149529 101877 0 147175 81374.9 0 145062 60966.7 0 143182 40621.7 0 141529 20309.6 0 140094 0 0 320477 778907 0 307644 743534 0 295473 709286 0 283933 676106 0 272999 643937 0 262644 612726 0 252845 582423 0 243576 552977 0 234815 524343 0 226540 496474 0 218730 469327 0 211365 442860 0 204425 417032 0 197893 391802 0 191752 367133 0 185986 342987 0 180579 319328 0 175516 296119 0 170784 273326 0 166371 250914 0 162263 228851 0 158450 207103 0 154920 185637 0 151663 164422 0 148669 143426 0 145930 122619 0 143436 101968 0 141180 81443.5 0 139154 61014.8 0 137350 40651.6 0 135762 20323.4 0 134384 0 0 306316 780216 0 294080 744766 0 282472 710444 0 271465 677191 0 261034 644952 0 251156 613674 0 241805 583306 0 232960 553798 0 224599 525104 0 216701 497179 0 209246 469978 0 202215 443459 0 195590 417581 0 189353 392305 0 183490 367591 0 177983 343402 0 172819 319702 0 167984 296455 0 163464 273625 0 159248 251179 0 155323 229083 0 151679 207304 0 148306 185810 0 145192 164568 0 142330 143547 0 139711 122716 0 137326 102044 0 135167 81500.4 0 133227 61054.5 0 131500 40675.9 0 129979 20334.5 0 128658 0 0 292155 781338 0 280513 745823 0 269466 711437 0 258990 678123 0 249062 645824 0 239657 614489 0 230754 584065 0 222332 554504 0 214370 525758 0 206848 497784 0 199747 470536 0 193050 443972 0 186739 418051 0 180797 392734 0 175210 367981 0 169963 343756 0 165042 320020 0 160434 296740 0 156126 273878 0 152107 251402 0 148365 229278 0 144891 207472 0 141673 185953 0 138704 164688 0 135974 143646 0 133474 122795 0 131198 102106 0 129137 81545.7 0 127285 61085.5 0 125635 40694.7 0 124180 20342.9 0 122916 0 0 277996 782273 0 266945 746705 0 256458 712267 0 246511 678902 0 237083 646554 0 228151 615170 0 219695 584699 0 211694 555093 0 204130 526305 0 196983 498289 0 190236 471001 0 183871 444400 0 177873 418443 0 172226 393091 0 166916 368305 0 161928 344048 0 157249 320283 0 152868 296973 0 148771 274085 0 144949 251584 0 141390 229436 0 138085 207608 0 135025 186068 0 132199 164783 0 129601 143723 0 127221 122857 0 125054 102152 0 123091 81579.5 0 121326 61108.1 0 119753 40707.8 0 118366 20348.5 0 117160 0 0 263843 783022 0 253380 747413 0 243450 712935 0 234030 679529 0 225100 647141 0 216639 615718 0 208628 585210 0 201048 555568 0 193880 526745 0 187108 498695 0 180713 471375 0 174681 444742 0 168995 418755 0 163642 393375 0 158607 368562 0 153878 344279 0 149442 320489 0 145286 297157 0 141401 274246 0 137776 251724 0 134400 229557 0 131264 207710 0 128360 186153 0 125678 164854 0 123212 143779 0 120953 122900 0 118894 102184 0 117030 81601.7 0 115352 61122.2 0 113857 40715.5 0 112538 20351.4 0 111389 0 0 249698 783587 0 239822 747949 0 230446 713441 0 221550 680005 0 213116 647587 0 205125 616136 0 197557 585599 0 190396 555929 0 183624 527078 0 177224 499002 0 171181 471657 0 165480 445000 0 160106 418990 0 155046 393587 0 150286 368753 0 145815 344449 0 141621 320640 0 137691 297289 0 134017 274362 0 130588 251823 0 127395 229640 0 124428 207780 0 121680 186210 0 119143 164899 0 116808 143814 0 114669 122925 0 112720 102201 0 110953 81612.5 0 109364 61127.9 0 107947 40717.6 0 106695 20351.6 0 105605 0 0 235566 783969 0 226272 748313 0 217448 713786 0 209074 680331 0 201134 647893 0 193610 616421 0 186484 585865 0 179740 556176 0 173362 527306 0 167334 499211 0 161641 471848 0 156271 445173 0 151208 419146 0 146440 393727 0 141955 368877 0 137741 344559 0 133787 320736 0 130084 297372 0 126620 274431 0 123387 251881 0 120376 229687 0 117579 207817 0 114987 186238 0 112593 164919 0 110390 143827 0 108372 122932 0 106532 102204 0 104864 81611.7 0 103363 61125.1 0 102023 40714.2 0 100840 20349.1 0 99808.9 0 0 221449 784169 0 212734 748507 0 204458 713972 0 196604 680507 0 189156 648060 0 182097 616577 0 175411 586010 0 169082 556309 0 163096 527428 0 157439 499323 0 152096 471948 0 147054 445263 0 142301 419225 0 137825 393796 0 133613 368936 0 129656 344609 0 125943 320776 0 122465 297404 0 119211 274456 0 116174 251898 0 113345 229698 0 110716 207822 0 108280 186238 0 106030 164914 0 103959 143819 0 102061 122922 0 100330 102192 0 98760.9 81599.6 0 97348.1 61114 0 96086.8 40705.4 0 94972.4 20344 0 94000.2 0 0 207350 784189 0 199210 748532 0 191480 713999 0 184143 680535 0 177184 648087 0 170588 616603 0 164340 586033 0 158425 556330 0 152830 527446 0 147542 499336 0 142546 471958 0 137833 445268 0 133388 419227 0 129202 393793 0 125264 368929 0 121563 344598 0 118090 320762 0 114836 297386 0 111792 274435 0 108950 251874 0 106302 229672 0 103842 207794 0 101561 186209 0 99454.8 164884 0 97515.5 143790 0 95737.9 122894 0 94116.4 102166 0 92645.9 81576.1 0 91321.5 61094.5 0 90138.6 40691 0 89093 20336.1 0 88180.3 0 0 193272 784030 0 185705 748389 0 178517 713869 0 171694 680416 0 165221 647977 0 159086 616501 0 153273 585937 0 147770 556239 0 142564 527359 0 137643 499253 0 132995 471878 0 128607 445191 0 124471 419151 0 120574 393720 0 116907 368857 0 113462 344527 0 110228 320693 0 107197 297318 0 104363 274369 0 101715 251810 0 99249.2 229609 0 96956.8 207734 0 94831.9 186151 0 92868.5 164830 0 91060.8 143739 0 89403.4 122847 0 87891.2 102125 0 86519.5 81541.3 0 85283.6 61066.7 0 84179.4 40671.3 0 83202.7 20325.6 0 82349.7 0 0 179219 783694 0 172219 748079 0 165570 713582 0 159258 680150 0 153270 647730 0 147592 616270 0 142213 585721 0 137120 556036 0 132301 527168 0 127746 499073 0 123442 471708 0 119380 445030 0 115550 418999 0 111941 393575 0 108546 368721 0 105354 344397 0 102359 320569 0 99551.5 297201 0 96925 274258 0 94472.2 251705 0 92186.6 229511 0 90061.9 207642 0 88092.2 186066 0 86271.8 164751 0 84595.5 143668 0 83058.3 122784 0 81655.4 102070 0 80382.5 81495.2 0 79235.2 61030.6 0 78209.7 40646.1 0 77302.2 20312.4 0 76509.2 0 0 165192 783182 0 158757 747604 0 152644 713141 0 146839 679739 0 141332 647347 0 136110 615912 0 131162 585387 0 126476 555723 0 122043 526875 0 117851 498798 0 113891 471450 0 110153 444787 0 106628 418771 0 103306 393361 0 100180 368519 0 97242.1 344208 0 94484.1 320392 0 91899 297035 0 89480.2 274102 0 87221.1 251560 0 85115.8 229376 0 83158.3 207518 0 81343.4 185952 0 79665.8 164648 0 78120.7 143575 0 76703.5 122703 0 75409.8 102000 0 74235.6 81437.9 0 73177 60986.2 0 72230.4 40615.6 0 71392.3 20296.6 0 70659.4 0 0 151195 782495 0 145321 746965 0 139739 712546 0 134439 679184 0 129410 646828 0 124641 615428 0 120121 584934 0 115841 555300 0 111791 526479 0 107962 498428 0 104343 471103 0 100927 444463 0 97705.3 418467 0 94669.5 393077 0 91812.3 368253 0 89126.4 343960 0 86604.9 320160 0 84241.2 296819 0 82029.4 273902 0 79963.3 251375 0 78037.6 229206 0 76247 207362 0 74586.4 185810 0 73051.3 164521 0 71637.2 143462 0 70339.8 122604 0 69155.2 101916 0 68079.8 81369.5 0 67109.9 60933.7 0 66242.2 40579.7 0 65473.6 20278.1 0 64801.1 0 0 137231 781635 0 131913 746163 0 126860 711797 0 122061 678486 0 117507 646176 0 113187 614818 0 109094 584364 0 105217 554767 0 101548 525981 0 98078.3 497962 0 94799.7 470668 0 91704.3 444057 0 88784.5 418088 0 86033.1 392723 0 83443.2 367924 0 81008.4 343653 0 78722.4 319875 0 76579.3 296555 0 74573.6 273658 0 72699.9 251151 0 70953.3 229000 0 69328.9 207174 0 67822.3 185641 0 66429.3 164369 0 65145.8 143328 0 63968.1 122488 0 62892.5 101818 0 61915.7 81289.9 0 61034.5 60873 0 60245.8 40538.4 0 59547 20257.1 0 58935 0 0 123303 780603 0 118537 745200 0 114008 710898 0 109707 677645 0 105624 645391 0 101752 614084 0 98081.6 583679 0 94605.4 554126 0 91315.2 525382 0 88203.4 497403 0 85262.7 470146 0 82486.1 443570 0 79866.7 417634 0 77398.2 392300 0 75074.5 367531 0 72889.6 343288 0 70838 319537 0 68914.5 296243 0 67114.1 273370 0 65432 250886 0 63863.7 228759 0 62405.1 206955 0 61052 185443 0 59800.7 164193 0 58647.6 143173 0 57589.2 122355 0 56622.4 101706 0 55744.2 81199.3 0 54951.7 60804.2 0 54242.1 40491.9 0 53613 20233.4 0 53061.8 0 0 109413 779401 0 105195 744076 0 101187 709848 0 97379 676664 0 93764.8 644473 0 90336.4 613227 0 87086.7 582877 0 84008.5 553377 0 81094.7 524683 0 78338.6 496750 0 75733.9 469537 0 73274.2 443002 0 70953.6 417106 0 68766.5 391809 0 66707.4 367074 0 64771.2 342865 0 62953 319146 0 61248 295882 0 59652 273038 0 58160.7 250583 0 56770.1 228482 0 55476.6 206704 0 54276.4 185218 0 53166.4 163993 0 52143.3 142998 0 51204.1 122204 0 50345.9 101580 0 49566.1 81097.6 0 48862.2 60727.2 0 48231.7 40440 0 47672.5 20207.2 0 47182.2 0 0 95564 778030 0 91890.1 742794 0 88397.9 708649 0 85080.3 675542 0 81931 643425 0 78943.4 612247 0 76111.3 581961 0 73428.3 552522 0 70888.4 523884 0 68485.8 496005 0 66214.9 468842 0 64070.3 442355 0 62046.7 416503 0 60139.4 391249 0 58343.5 366555 0 56654.6 342385 0 55068.5 318702 0 53581 295473 0 52188.4 272663 0 50887.1 250240 0 49673.4 228170 0 48544.3 206423 0 47496.6 184966 0 46527.4 163770 0 45633.9 142803 0 44813.5 122036 0 44063.7 101440 0 43382.2 80985.1 0 42766.8 60642.3 0 42215.4 40382.9 0 41726.1 20178.4 0 41296.9 0 0 81759 776493 0 78624.2 741355 0 75644.2 707302 0 72812.9 674282 0 70125 642246 0 67575 611145 0 65157.3 580931 0 62866.8 551560 0 60698.2 522986 0 58646.7 495167 0 56707.5 468062 0 54875.9 441628 0 53147.5 415828 0 51518.3 390622 0 49984.1 365974 0 48541.2 341847 0 47185.9 318206 0 45914.8 295017 0 44724.6 272245 0 43612.3 249858 0 42574.8 227824 0 41609.4 206110 0 40713.5 184687 0 39884.6 163522 0 39120.3 142587 0 38418.3 121852 0 37776.7 101286 0 37193.3 80861.6 0 36666.4 60549.4 0 36194 40320.6 0 35774.7 20147 0 35406.6 0 0 68000.5 774789 0 65400.2 739760 0 62928.2 705808 0 60579.3 672885 0 58349.2 640938 0 56233.2 609922 0 54226.9 579789 0 52325.9 550493 0 50526.1 521990 0 48823.2 494239 0 47213.3 467196 0 45692.6 440823 0 44257.6 415079 0 42904.7 389928 0 41630.6 365331 0 40432.2 341252 0 39306.4 317658 0 38250.5 294513 0 37261.6 271784 0 36337.4 249437 0 35475.2 227442 0 34672.8 205767 0 33928.1 184380 0 33238.9 163251 0 32603.3 142351 0 32019.5 121650 0 31485.7 101118 0 31000.2 80727.4 0 30561.6 60448.5 0 30168.2 40253.1 0 29818.9 20113.1 0 29512.1 0 0 54291.3 772921 0 52220.9 738010 0 50252.4 704170 0 48381.8 671351 0 46605.7 639503 0 44920.3 608580 0 43322.1 578534 0 41807.7 549321 0 40373.8 520897 0 39016.9 493219 0 37734 466246 0 36522.2 439939 0 35378.5 414258 0 34300.1 389166 0 33284.4 364626 0 32329 340602 0 31431.3 317058 0 30589.3 293962 0 29800.7 271280 0 29063.5 248978 0 28375.7 227027 0 27735.5 205393 0 27141.3 184046 0 26591.2 162957 0 26083.9 142095 0 25617.8 121432 0 25191.5 100937 0 24803.7 80582.4 0 24453.2 60339.7 0 24138.8 40180.5 0 23859.4 20076.6 0 23613.9 0 0 40634.1 770891 0 39088.6 736107 0 37619.3 702388 0 36222.8 669682 0 34896.8 637941 0 33638.4 607119 0 32445 577168 0 31314.1 548045 0 30243.2 519706 0 29229.7 492109 0 28271.4 465213 0 27366.1 438978 0 26511.6 413366 0 25705.8 388339 0 24946.9 363860 0 24232.8 339894 0 23561.9 316407 0 22932.5 293365 0 22342.9 270733 0 21791.7 248481 0 21277.4 226577 0 20798.6 204989 0 20354.1 183686 0 19942.6 162640 0 19563 141820 0 19214.1 121197 0 18895 100742 0 18604.6 80426.7 0 18342.1 60223.1 0 18106.5 40102.7 0 17897.1 20037.6 0 17713 0 0 27031.4 768700 0 26006 734053 0 25031.2 700463 0 24104.7 667879 0 23224.7 636254 0 22389.7 605540 0 21597.6 575693 0 20847 546667 0 20136.1 518420 0 19463.3 490910 0 18827.1 464097 0 18226 437940 0 17658.6 412402 0 17123.5 387445 0 16619.4 363034 0 16145.1 339132 0 15699.4 315705 0 15281.2 292721 0 14889.4 270145 0 14523.1 247946 0 14181.3 226093 0 13863.1 204554 0 13567.5 183299 0 13293.9 162299 0 13041.4 141524 0 12809.4 120945 0 12597 100533 0 12403.8 80260.5 0 12229 60098.7 0 12072.1 40019.8 0 11932.6 19996.2 0 11809.8 0 0 13485.8 766350 0 12975.7 731849 0 12490.7 698397 0 12029.6 665943 0 11591.7 634442 0 11176.1 603845 0 10782 574108 0 10408.3 545187 0 10054.5 517039 0 9719.52 489623 0 9402.76 462898 0 9103.45 436826 0 8820.87 411367 0 8554.37 386487 0 8303.29 362147 0 8067.02 338314 0 7844.99 314953 0 7636.63 292031 0 7441.42 269515 0 7258.87 247374 0 7088.49 225575 0 6929.84 204090 0 6782.5 182886 0 6646.06 161936 0 6520.14 141209 0 6404.37 120677 0 6298.43 100311 0 6201.98 80083.7 0 6114.72 59966.5 0 6036.37 39931.9 0 5966.64 19952.2 0 5905.28 0 0 0 763842 0 0 729496 0 0 696191 0 0 663877 0 0 632507 0 0 602035 0 0 572416 0 0 543606 0 0 515564 0 0 488248 0 0 461618 0 0 435636 0 0 410263 0 0 385463 0 0 361201 0 0 337441 0 0 314151 0 0 291295 0 0 268844 0 0 246764 0 0 225024 0 0 203595 0 0 182447 0 0 161549 0 0 140874 0 0 120392 0 0 100076 0 0 79896.4 0 0 59826.7 0 0 39838.9 0 0 19905.8 0 0 0 0 </DataArray> 
</PointData> 
<Points> 
<DataArray type="Float32" NumberOfComponents="3"> 