<?xml version="1.0"?> 
<VTKFile type="StructuredGrid" version="0.1"> 
<StructuredGrid WholeExtent="0 31 0 31 0 0"> 
<Piece Extent="0 31 0 31 0 0"> 
<PointData>
<DataArray type="Float32" Name="|E|" format="ascii" NumberOfComponents="3"> 
0 7.31615e+06 0 1.11759e-08 5.02247e+06 0 -3.25963e-08 3.88076e+06 0 6.89179e-08 3.22261e+06 0 -1.30385e-08 2.76151e+06 0 -3.72529e-08 2.4054e+06 0 -2.6077e-08 2.10986e+06 0 7.45058e-08 1.85312e+06 0 0 1.62308e+06 0 -1.49012e-08 1.41265e+06 0 4.47035e-08 1.21789e+06 0 -4.47035e-08 1.03691e+06 0 1.49012e-08 869327 0 -2.23517e-08 715843 0 -7.45058e-09 577782 0 2.98023e-08 456565 0 -7.45058e-09 353169 0 0 267698 0 0 199232 0 2.98023e-08 145971 0 -1.49012e-08 105587 0 -2.98023e-08 75609.6 0 2.98023e-08 53729 0 -1.49012e-08 37963.7 0 1.49012e-08 26713.7 0 0 18743.5 0 -2.98023e-08 13125.5 0 2.98023e-08 9185.71 0 1.49012e-08 6422.41 0 -4.47035e-08 4534.4 0 7.45058e-08 3163.28 0 -5.96046e-08 3237.05 0 -618880 5.857e+06 0 -307206 4.31725e+06 0 -181802 3.5146e+06 0 -129353 2.98544e+06 0 -100224 2.58842e+06 0 -83389.2 2.26879e+06 0 -72476.2 1.99618e+06 0 -64938.1 1.75527e+06 0 -59402.2 1.53687e+06 0 -54998.2 1.33565e+06 0 -51159.4 1.14871e+06 0 -47466 974856 0 -43615 814166 0 -39419.4 667598 0 -34828.3 536538 0 -29937.1 422293 0 -24963.4 325583 0 -20182.5 246219 0 -15846.3 183034 0 -12122.2 134106 0 -9072.37 97110.4 0 -6671.09 69679 0 -4838.49 49649.9 0 -3472.99 35196.5 0 -2473.51 24858 0 -1751.5 17510.7 0 -1234.78 12315.1 0 -866.445 8653.09 0 -607.644 6089.86 0 -410.729 4288.58 0 -291.979 3127.32 0 129.076 2300.2 0 -831099 4.76374e+06 0 -450492 3.81099e+06 0 -300985 3.21458e+06 0 -225833 2.77488e+06 0 -182371 2.42861e+06 0 -155685 2.13918e+06 0 -137622 1.88663e+06 0 -124777 1.65995e+06 0 -114987 1.45231e+06 0 -106895 1.25978e+06 0 -99544.5 1.08034e+06 0 -92220.4 913432 0 -84418.6 759519 0 -75866.1 619782 0 -66561.8 495649 0 -56779.5 388292 0 -46995.5 298178 0 -37748.9 224825 0 -29490 166837 0 -22485.1 122176 0 -16801.6 88529.1 0 -12354.1 63625.8 0 -8971.42 45447.1 0 -6453.87 32315.4 0 -4610.14 22903.3 0 -3275.95 16196.1 0 -2317.72 11437 0 -1634.87 8072.65 0 -1144.2 5703.64 0 -794.882 4044.59 0 -505.319 2931.84 0 -87.0625 1965.67 0 -856039 4.09331e+06 0 -527810 3.42576e+06 0 -383531 2.95761e+06 0 -301145 2.58597e+06 0 -251729 2.27998e+06 0 -219444 2.01597e+06 0 -196898 1.78098e+06 0 -180309 1.56709e+06 0 -167183 1.36935e+06 0 -155886 1.18498e+06 0 -145198 1.01274e+06 0 -134209 852572 0 -122307 705317 0 -109229 572342 0 -95119.1 455090 0 -80497.5 354580 0 -66121.3 271011 0 -52764.6 203607 0 -41015 150747 0 -31171.5 110290 0 -23257.2 79940.9 0 -17101.1 57532.1 0 -12434.3 41185.9 0 -8964.98 29370.1 0 -6422.89 20886.3 0 -4579.65 14825.4 0 -3252.92 10511.4 0 -2302.51 7451.41 0 -1619.09 5286.72 0 -1127.68 3768.9 0 -717.812 2702.52 0 -338.762 1783.64 0 -839726 3.61472e+06 0 -575789 3.11892e+06 0 -444028 2.73706e+06 0 -362871 2.41564e+06 0 -311722 2.1415e+06 0 -276656 1.8988e+06 0 -251421 1.67907e+06 0 -232164 1.47662e+06 0 -216328 1.28795e+06 0 -202109 1.11121e+06 0 -188124 945822 0 -173352 792194 0 -157158 651488 0 -139390 525235 0 -120418 414863 0 -101066 321207 0 -82371.8 244172 0 -65300.9 182677 0 -50509.8 134881 0 -38267.9 98556 0 -28512 71439.4 0 -20967.2 51474 0 -15265.6 36925.3 0 -11031.3 26404.7 0 -7926.76 18839.4 0 -5671.51 13421.7 0 -4043.87 9554.21 0 -2873 6801.15 0 -2029.8 4846.04 0 -1415.67 3466.24 0 -926.101 2465.82 0 -561.453 1643.29 0 -819721 3.25974e+06 0 -609372 2.86747e+06 0 -491959 2.54329e+06 0 -415474 2.26033e+06 0 -364861 2.0118e+06 0 -328828 1.78707e+06 0 -302054 1.5806e+06 0 -280841 1.38835e+06 0 -262670 1.20796e+06 0 -245644 1.03834e+06 0 -228288 879475 0 -209540 732198 0 -188835 597964 0 -166219 478441 0 -142376 375004 0 -118464 288258 0 -95787 217777 0 -75437.8 162160 0 -58070.3 119359 0 -43865.9 87079.7 0 -32642.5 63111.9 0 -24010.5 45520.7 0 -17506.3 32718.9 0 -12680 23459.4 0 -9138.85 16791.9 0 -6561.56 12006.4 0 -4696.19 8580.41 0 -3349.52 6132.92 0 -2376.68 4387.99 0 -1663.66 3145.15 0 -1119.46 2229.08 0 -745.271 1505.93 0 -806323 2.97903e+06 0 -636306 2.65279e+06 0 -532404 2.37054e+06 0 -461794 2.1175e+06 0 -412975 1.8897e+06 0 -377065 1.68018e+06 0 -349460 1.48523e+06 0 -326718 1.30207e+06 0 -306384 1.12921e+06 0 -286519 966218 0 -265611 813560 0 -242632 672477 0 -217173 544693 0 -189579 431974 0 -160912 335591 0 -132684 255856 0 -106421 191966 0 -83268.6 142194 0 -63801.8 104302 0 -48063.6 75962 0 -35729.6 55039 0 -26292 39735 0 -19199.6 28614.2 0 -13940.1 20570.1 0 -10077.8 14770.4 0 -7261.21 10598.8 0 -5216.65 7603.79 0 -3735.69 5456.66 0 -2661.82 3919.14 0 -1873.81 2813.75 0 -1289.74 1992.96 0 -894.601 1363.66 0 -800302 2.74558e+06 0 -660026 2.46515e+06 0 -568314 2.21438e+06 0 -503766 1.98491e+06 0 -457379 1.77414e+06 0 -422189 1.57752e+06 0 -394142 1.39258e+06 0 -370066 1.21749e+06 0 -347571 1.05148e+06 0 -324705 894643 0 -299971 747923 0 -272448 612933 0 -241985 491648 0 -209319 385891 0 -175950 296747 0 -143733 224159 0 -114348 166901 0 -88902.2 122923 0 -67820.5 89830.7 0 -50965.6 65296.6 0 -37857.9 47293 0 -27875.4 34172.1 0 -20390.6 24653 0 -14842.4 17767.9 0 -10763.7 12798 0 -7782.99 9215.87 0 -5612.97 6636.82 0 -4035.85 4781.36 0 -2888.13 3446.25 0 -2046.63 2478.35 0 -1432.99 1757.77 0 -1014.5 1215.6 0 -800141 2.54486e+06 0 -682408 2.29775e+06 0 -601466 2.07143e+06 0 -542714 1.86081e+06 0 -499016 1.66415e+06 0 -464808 1.4785e+06 0 -436471 1.30225e+06 0 -411068 1.13432e+06 0 -386261 974502 0 -360113 823404 0 -331191 682402 0 -298767 553483 0 -263055 438847 0 -225283 340302 0 -187427 258646 0 -151643 193359 0 -119665 142762 0 -92467 104495 0 -70254.9 76056.9 0 -52683.4 55168.8 0 -39115.5 39937.6 0 -28826.2 28879.5 0 -21125.8 20871.2 0 -15418.4 15079.8 0 -11217.4 10895 0 -8140.36 7872.64 0 -5893.5 5690.59 0 -4255 4115.12 0 -3058.76 2975.72 0 -2182.46 2143.85 0 -1547.95 1524.19 0 -1108.86 1063.28 0 -804559 2.36791e+06 0 -704488 2.14611e+06 0 -632975 1.93914e+06 0 -579578 1.74378e+06 0 -538565 1.55887e+06 0 -505366 1.38254e+06 0 -476704 1.21381e+06 0 -449820 1.0522e+06 0 -422415 897992 0 -392590 752264 0 -359036 616840 0 -321319 494081 0 -280144 386367 0 -237321 295383 0 -195308 221512 0 -156478 163681 0 -122501 119734 0 -94111.7 87050.7 0 -71245.1 63084.2 0 -53334.4 45652.5 0 -39593.7 33026.4 0 -29211.3 23897 0 -21452.6 17298.5 0 -15700.6 12528.3 0 -11460.6 9078.35 0 -8347.37 6582.02 0 -6067.18 4774.83 0 -4398.7 3465.28 0 -3176.96 2513.33 0 -2282.01 1814.21 0 -1634.85 1293.46 0 -1180.41 908.664 0 -812705 2.20903e+06 0 -726882 2.00694e+06 0 -663579 1.8155e+06 0 -615018 1.63259e+06 0 -576510 1.45749e+06 0 -544177 1.28907e+06 0 -515000 1.12682e+06 0 -486337 970760 0 -455919 821631 0 -421909 680980 0 -383199 551106 0 -339782 434738 0 -292991 334359 0 -245295 251386 0 -199593 185625 0 -158347 135370 0 -123017 98006.6 0 -94006.2 70724.4 0 -70942.4 51003 0 -53040.5 36809.4 0 -39384.9 26602.9 0 -29098.1 19256.3 0 -21418.4 13958.9 0 -15721.6 10131.9 0 -11515.1 7362.26 0 -8418.52 5354.88 0 -6143.35 3897.89 0 -4472.87 2838.27 0 -3246.11 2064.12 0 -2346.57 1492.72 0 -1694.77 1067.1 0 -1231.15 753.745 0 -824058 2.06426e+06 0 -749964 1.87778e+06 0 -693780 1.69889e+06 0 -649498 1.52619e+06 0 -613189 1.35928e+06 0 -581447 1.19752e+06 0 -551428 1.04081e+06 0 -520553 889594 0 -486572 745076 0 -447752 609313 0 -403294 485112 0 -353783 375547 0 -301331 283076 0 -249105 208641 0 -200342 151307 0 -157411 108684 0 -121412 77760.8 0 -92340.3 55632.4 0 -69506.6 39887 0 -51926.8 28687 0 -38582.3 20699.4 0 -28553.7 14980.9 0 -21070.3 10870.3 0 -15514 7904.53 0 -11403 5757.94 0 -8368.47 4200.14 0 -6131.61 3066.81 0 -4483.62 2239.66 0 -3269.78 1632.43 0 -2377.92 1182.23 0 -1729.19 846.804 0 -1262.69 600.366 0 -838277 1.93067e+06 0 -773965 1.75667e+06 0 -723920 1.58799e+06 0 -683341 1.42366e+06 0 -648829 1.26352e+06 0 -617291 1.10731e+06 0 -585972 955270 0 -552311 808258 0 -514072 667972 0 -469695 537048 0 -418846 418846 0 -362907 316717 0 -304917 232886 0 -248715 167561 0 -197688 118913 0 -153889 83879 0 -117918 59157.5 0 -89320.5 41869.5 0 -67103.8 29790.9 0 -50119.2 21318.4 0 -37278.1 15337.8 0 -27644 11086.8 0 -20454.6 8045.27 0 -15109.7 5856.54 0 -11146.1 4273.87 0 -8211.85 3124.79 0 -6041.67 2287.32 0 -4437.24 1674.11 0 -3251.76 1221.86 0 -2378.25 885.191 0 -1739.85 634.238 0 -1276.47 450.212 0 -855119 1.80599e+06 0 -799023 1.64204e+06 0 -754230 1.48163e+06 0 -716760 1.32412e+06 0 -683568 1.16951e+06 0 -651734 1.01783e+06 0 -618525 869653 0 -581343 726272 0 -537989 589958 0 -487183 464026 0 -429282 352417 0 -366716 258612 0 -303559 184287 0 -244185 128628 0 -191851 88810.7 0 -148059 61188.5 0 -112799 42328.5 0 -85165.4 29503.6 0 -63902.3 20748.6 0 -47742.3 14721.3 0 -35561.9 10528.9 0 -26432.5 7582.18 0 -19615.9 5490.94 0 -14539.5 3994.41 0 -10765.6 2915.93 0 -7963.12 2134.03 0 -5883.21 1563.91 0 -4340.04 1145.39 0 -3195.98 835.408 0 -2350.06 603.71 0 -1728.62 430.988 0 -1273.83 304.796 0 -874395 1.68842e+06 0 -825220 1.53256e+06 0 -784863 1.37882e+06 0 -749891 1.22676e+06 0 -717462 1.07654e+06 0 -684720 928436 0 -648872 783365 0 -607249 643124 0 -557733 510693 0 -499511 390192 0 -433945 286113 0 -364794 201783 0 -297171 137907 0 -235701 92368.4 0 -183152 61351.7 0 -140255 40809 0 -106343 27367.3 0 -80099.2 18572.7 0 -60068.9 12772.5 0 -44916.4 8898.77 0 -33519.7 6273.69 0 -24979.9 4468.36 0 -18596.7 3209.62 0 -13833.1 2321.24 0 -10282 1687.59 0 -7636.33 1231.37 0 -5665.77 899.864 0 -4198.36 656.424 0 -3106.52 475.428 0 -2296.05 339.57 0 -1697.43 238.488 0 -1256.13 165.458 0 -895955 1.57651e+06 0 -852603 1.42708e+06 0 -815916 1.2786e+06 0 -782800 1.13078e+06 0 -750493 983874 0 -716094 838426 0 -676668 695747 0 -629451 558278 0 -572507 429898 0 -505799 315663 0 -432126 220469 0 -356814 147001 0 -285836 94485 0 -223605 59314.8 0 -172007 36841 0 -130854 22881.4 0 -98848.8 14322.5 0 -74345.3 9082.83 0 -55764.4 5853.99 0 -41756.1 3839.92 0 -31232.3 2563.6 0 -23343.2 1740.27 0 -17436.9 1199.2 0 -13018.6 836.998 0 -9714.91 590.114 0 -7245.03 418.741 0 -5398.6 297.367 0 -4018.42 209.302 0 -2987.52 143.734 0 -2219.03 94.2315 0 -1648.3 57.9871 0 -1224.7 33.3617 0 -919685 1.46897e+06 0 -881196 1.32456e+06 0 -847439 1.18008e+06 0 -815496 1.03533e+06 0 -782564 890702 0 -745582 747006 0 -701388 606070 0 -647125 471191 0 -581251 347425 0 -505001 240843 0 -423135 156345 0 -342636 95255.6 0 -269864 54817.3 0 -208401 29951.1 0 -158914 15504.9 0 -120262 7478.55 0 -90618.3 3194.54 0 -68118.9 1009.17 0 -51140.4 -35.3588 0 -38367.6 -478.852 0 -28774.4 -618.139 0 -21574.9 -612.783 0 -16173.8 -546.371 0 -12122.1 -461.13 0 -9082.65 -377.226 0 -6802.08 -303.357 0 -5090.64 -242.458 0 -3806.34 -194.625 0 -2843.15 -158.383 0 -2121.87 -131.167 0 -1583.24 -109.47 0 -1180.89 -90.5027 0 -945498 1.36471e+06 0 -911008 1.22403e+06 0 -879449 1.08235e+06 0 -847930 939543 0 -813481 796126 0 -772750 653277 0 -722259 513524 0 -659113 381373 0 -582591 263394 0 -495954 166558 0 -406445 94982.4 0 -322434 47708.9 0 -249837 19675.8 0 -190746 4655.02 0 -144424 -2533.55 0 -108889 -5401.13 0 -81941.1 -6063.23 0 -61620.5 -5702.04 0 -46335.4 -4941.5 0 -34847.4 -4092.05 0 -26213.7 -3295.46 0 -19723 -2606.36 0 -14841.2 -2036.54 0 -11167.8 -1578.39 0 -8402.38 -1216.93 0 -6319.59 -935.725 0 -4750.4 -719.435 0 -3568.03 -554.711 0 -2677.51 -430.118 0 -2007.47 -335.801 0 -1504.28 -263.058 0 -1126.06 -205.321 0 -973338 1.26266e+06 0 -942044 1.12451e+06 0 -911928 984452 0 -879983 842413 0 -842921 699099 0 -796936 556184 0 -738133 417235 0 -663793 288502 0 -574816 178392 0 -477523 94215.1 0 -381895 37999.2 0 -296807 5577.22 0 -226610 -10299.4 0 -171402 -16353.5 0 -129110 -17269.7 0 -97131.3 -15833.4 0 -73084.5 -13540.9 0 -55030.7 -11129.3 0 -41472.8 -8924.97 0 -31281 -7043.14 0 -23610.2 -5498.1 0 -17830 -4259.97 0 -13469.7 -3283.57 0 -10177.5 -2522.08 0 -7689.82 -1933.04 0 -5808.83 -1480.31 0 -4385.86 -1134.24 0 -3309.15 -870.936 0 -2494.59 -671.112 0 -1878.66 -519.148 0 -1413.44 -402.17 0 -1061.57 -310.451 0 -1.00318e+06 1.16183e+06 0 -974307 1.02499e+06 0 -944831 885322 0 -911455 742792 0 -870375 598371 0 -817117 454485 0 -747297 316325 0 -658938 192659 0 -555969 93777.6 0 -448902 25923.8 0 -349941 -12732.8 0 -266834 -30051.2 0 -201249 -34705.2 0 -151176 -33044.9 0 -113518 -28817.2 0 -85348.5 -23960.7 0 -64284.1 -19364.3 0 -48505.9 -15371 0 -36659 -12057.5 0 -27742.2 -9382.47 0 -21016.2 -7260.29 0 -15933.4 -5596.25 0 -12086.3 -4301.99 0 -9170.88 -3301.23 0 -6959.26 -2530.87 0 -5280.13 -1940.04 0 -4004.52 -1488.33 0 -3035.08 -1143.85 0 -2298.26 -881.414 0 -1738.22 -680.983 0 -1312.67 -526.422 0 -988.729 -405.424 0 -1.03502e+06 1.06115e+06 0 -1.0078e+06 924370 0 -978070 783735 0 -942014 639278 0 -895042 492389 0 -831694 346710 0 -747177 210094 0 -641624 94766.6 0 -524169 12029.6 0 -410074 -35551.9 0 -311863 -55375.9 0 -234019 -58429.6 0 -174918 -53449.5 0 -130843 -45582.8 0 -98142.7 -37396.3 0 -73850.1 -29978.5 0 -55737.7 -23686.8 0 -42176.7 -18539.4 0 -31982.6 -14418.8 0 -24293 -11165.1 0 -18476 -8619.42 0 -14065.2 -6640.13 0 -10714.5 -5108.09 0 -8165.26 -3926.2 0 -6223.44 -3016.83 0 -4742.89 -2318.7 0 -3613.23 -1783.78 0 -2750.84 -1374.52 0 -2092.19 -1061.45 0 -1588.83 -821.358 0 -1203.9 -635.647 0 -908.855 -489.943 0 -1.06891e+06 959496 0 -1.04256e+06 821370 0 -1.0115e+06 678193 0 -971130 530095 0 -915623 379161 0 -838064 231200 0 -733943 98500.1 0 -608409 -2721.21 0 -478323 -63016.9 0 -362345 -87162.7 0 -269777 -88539.1 0 -200084 -79328.5 0 -148740 -66761.1 0 -111091 -54305.3 0 -83392.8 -43305.6 0 -62885.3 -34120.4 0 -47603.3 -26678.6 0 -36146.8 -20755.3 0 -27514.7 -16092.8 0 -20983.7 -12448.9 0 -16026 -9614.8 0 -12252.5 -7418 0 -9374.45 -5719.36 0 -7175.65 -4408.37 0 -5493.6 -3398.15 0 -4205.51 -2620.76 0 -3218.28 -2023.26 0 -2461.09 -1564.42 0 -1879.85 -1211.99 0 -1433.04 -940.587 0 -1088.96 -729.89 0 -823.188 -563.884 0 -1.10498e+06 855580 0 -1.07862e+06 714448 0 -1.0449e+06 566776 0 -997937 412868 0 -929899 256074 0 -831874 106391 0 -702216 -16829.3 0 -556169 -94976.8 0 -419250 -126456 0 -308627 -126307 0 -226306 -111703 0 -166695 -93061.5 0 -123686 -75164.2 0 -92467.8 -59668.2 0 -69580.1 -46897.9 0 -52641.3 -36639.9 0 -39998 -28517.8 0 -30494.3 -22142.6 0 -23309.7 -17165.1 0 -17853.6 -13292.5 0 -13695.3 -10286.5 0 -10517.1 -7957.04 0 -8082.74 -6154.01 0 -6214.79 -4759.82 0 -4779.5 -3682.7 0 -3675.41 -2851.23 0 -2825.29 -2209.89 0 -2170.09 -1715.43 0 -1664.45 -1334.08 0 -1273.29 -1039.23 0 -969.63 -809.412 0 -732.894 -627.302 0 -1.14343e+06 747854 0 -1.11605e+06 601628 0 -1.07785e+06 446870 0 -1.02095e+06 284267 0 -933762 119714 0 -805863 -28141 0 -645554 -130763 0 -484086 -174504 0 -350743 -173421 0 -253038 -151853 0 -183996 -125291 0 -135244 -100458 0 -100499 -79359 0 -75356.4 -62202.6 0 -56920.6 -48546.3 0 -43244.5 -37794.6 0 -33002.1 -29382.5 0 -25273.4 -22823.6 0 -19406.2 -17720.1 0 -14931.5 -13754.1 0 -11506 -10674.5 0 -8876.29 -8284.56 0 -6852.9 -6430.6 0 -5293.27 -4993.02 0 -4089.39 -3878.78 0 -3159.02 -3015.56 0 -2439.25 -2347.14 0 -1881.72 -1829.73 0 -1448.98 -1429.07 0 -1111.85 -1118.07 0 -847.573 -874.687 0 -639.035 -680.446 0 -1.18469e+06 634465 0 -1.15492e+06 480131 0 -1.10973e+06 314789 0 -1.03732e+06 139217 0 -918982 -33789.8 0 -748941 -168761 0 -559247 -232800 0 -396438 -232259 0 -279439 -201454 0 -199635 -164373 0 -144855 -130659 0 -106750 -102610 0 -79638.6 -80147.7 0 -59993.9 -62455.3 0 -45538.6 -48618.6 0 -34767.1 -37835.3 0 -26662.4 -29443.3 0 -20517.1 -22915.6 0 -15829.5 -17838.7 0 -12237.1 -13889.7 0 -9474.15 -10817.6 0 -7342.97 -8427.41 0 -5695.46 -6567.63 0 -4419.6 -5120.62 0 -3430.13 -3994.92 0 -2661.83 -3119.44 0 -2064.53 -2438.78 0 -1599.42 -1909.74 0 -1236.18 -1498.47 0 -950.86 -1178.11 0 -724.382 -926.418 0 -542.528 -723.797 0 -1.2294e+06 512532 0 -1.19524e+06 346165 0 -1.13982e+06 164627 0 -1.04004e+06 -30390.5 0 -869295 -205608 0 -648644 -303018 0 -446280 -306434 0 -304142 -262786 0 -212153 -211351 0 -151300 -166171 0 -110288 -129538 0 -81731 -100734 0 -61336.5 -78328.6 0 -46481 -60944.3 0 -35481.4 -47461.1 0 -27237 -36994.1 0 -20997.6 -28858.7 0 -16240.5 -22528.3 0 -12592.4 -17597.2 0 -9782.28 -13752.6 0 -7610.02 -10753.1 0 -5926.22 -8411.6 0 -4618.23 -6583.19 0 -3600.41 -5155.15 0 -2807.27 -4039.77 0 -2188.41 -3168.75 0 -1704.86 -2488.75 0 -1326.23 -1958.09 0 -1028.5 -1544.04 0 -792.326 -1220.52 0 -601.59 -965.558 0 -444.086 -758.153 0 -1.27764e+06 377506 0 -1.23848e+06 193953 0 -1.1655e+06 -14922.3 0 -1.00978e+06 -234716 0 -758926 -386548 0 -501279 -401980 0 -324802 -339070 0 -219391 -267333 0 -152952 -207226 0 -109957 -160059 0 -80815.5 -123789 0 -60353.7 -95991.1 0 -45629.8 -74620.9 0 -34809.9 -58138.9 0 -26738.2 -45383 0 -20645.3 -35480.1 0 -16004 -27772.7 0 -12443.9 -21761.5 0 -9698.17 -17065.5 0 -7571.57 -13392.2 0 -5919.07 -10515.8 0 -4631.62 -8261.88 0 -3626.53 -6494.76 0 -2840.56 -5108.88 0 -2225.08 -4021.89 0 -1742.46 -3169.42 0 -1363.38 -2501.12 0 -1064.79 -1977.52 0 -828.198 -1567.62 0 -638.147 -1246.66 0 -480.758 -993.369 0 -344.141 -784.777 0 -1.33207e+06 223929 0 -1.28833e+06 12246.7 0 -1.1727e+06 -243633 0 -902055 -482552 0 -563140 -530195 0 -337147 -434942 0 -218080 -333252 0 -147662 -253651 0 -104353 -193738 0 -75967.8 -148884 0 -56403 -115081 0 -42521.6 -89361.1 0 -32407 -69646.2 0 -24901.5 -54440.2 0 -19253.4 -42651.4 0 -14956.5 -33476 0 -11660.4 -26311.9 0 -9115.87 -20704.6 0 -7141.65 -16307.3 0 -5603.96 -12853.7 0 -4402.61 -10138.3 0 -3461.77 -8001.47 0 -2723.53 -6318.93 0 -2143.33 -4993.65 0 -1686.72 -3949.65 0 -1326.84 -3127.35 0 -1042.65 -2479.99 0 -817.351 -1970.88 0 -637.274 -1571.18 0 -490.161 -1258.01 0 -363.674 -1011.48 0 -242.821 -806.037 0 -1.39323e+06 30643.4 0 -1.35621e+06 -209496 0 -1.10131e+06 -581173 0 -634341 -715131 0 -332934 -556933 0 -203244 -409090 0 -132691 -304431 0 -91875.3 -229567 0 -66212.5 -175222 0 -48839.9 -134992 0 -36705.5 -104709 0 -27943.3 -81640.1 0 -21476.9 -63907.2 0 -16626.9 -50177.8 0 -12942.4 -39490.8 0 -10116.5 -31137.2 0 -7932.97 -24586.2 0 -6236.08 -19435.9 0 -4911.43 -15378.8 0 -3873.71 -12178.2 0 -3058.5 -9650.2 0 -2416.67 -7651.87 0 -1910.45 -6071.29 0 -1510.58 -4820.71 0 -1194.28 -3831.14 0 -943.682 -3048.3 0 -744.676 -2429.44 0 -585.788 -1940.99 0 -457.553 -1556.67 0 -350.2 -1256.08 0 -252.83 -1022.07 0 -140.009 -825.857 0 -1.54867e+06 -63364.4 0 -1.40721e+06 -639000 0 -716693 -1.01479e+06 0 -295538 -712663 0 -167515 -491600 0 -104857 -356918 0 -70885.6 -265651 0 -50642.9 -201524 0 -37098.6 -154821 0 -27798.8 -120015 0 -21143 -93643.8 0 -16255.4 -73429.1 0 -12601.7 -57792.1 0 -9829.46 -45615 0 -7703.42 -36083.4 0 -6059.19 -28592.9 0 -4779.26 -22688.4 0 -3777.86 -18022.9 0 -2991.25 -14329.5 0 -2371.41 -11401.7 0 -1881.76 -9078.15 0 -1494.18 -7232.74 0 -1186.88 -5766.28 0 -942.899 -4600.63 0 -748.913 -3674.07 0 -594.389 -2937.86 0 -470.983 -2353.45 0 -371.609 -1890.66 0 -290.697 -1525.99 0 -220.108 -1242.29 0 -152.27 -1027.34 0 -38.2542 -856.126 0 -2.08118e+06 -57856.5 0 -782894 -1.65821e+06 0 -192209 -897699 0 -100950 -569281 0 -61272.5 -406011 0 -40119.5 -299026 0 -28626 -226027 0 -20812.8 -173372 0 -15561.2 -134448 0 -11832.6 -105060 0 -9102.72 -82564 0 -7068.35 -65162.5 0 -5525.86 -51596 0 -4342.56 -40956.9 0 -3426.41 -32575.3 0 -2711.94 -25949.1 0 -2151.64 -20696.1 0 -1710.28 -16522.9 0 -1361.41 -13202.1 0 -1084.88 -10556.2 0 -865.209 -8445.94 0 -690.385 -6761.79 0 -551.045 -5417.09 0 -439.836 -4343.2 0 -350.955 -3485.67 0 -279.754 -2801.29 0 -222.588 -2255.82 0 -175.999 -1822.55 0 -138.099 -1480.81 0 -101.888 -1217.61 0 -68.6188 -1029.54 0 47.6199 -917.757 0 -1.78814e-07 -6.37388e+06 0 1.00583e-07 -787912 0 -1.19209e-07 -597880 0 8.9407e-08 -445629 0 -8.9407e-08 -323645 0 1.04308e-07 -246544 0 -1.49012e-08 -188914 0 -3.72529e-08 -146898 0 5.96046e-08 -115116 0 2.23517e-08 -90748.4 0 -7.45058e-08 -71872.4 0 2.98023e-08 -57119.1 0 -2.98023e-08 -45517 0 1.49012e-08 -36347.8 0 8.9407e-08 -29073.8 0 -4.47035e-08 -23286.1 0 1.49012e-08 -18670.4 0 -2.98023e-08 -14982.6 0 -2.98023e-08 -12032 0 0 -9668.76 0 8.9407e-08 -7774.33 0 -5.96046e-08 -6254.88 0 0 -5035.77 0 -2.98023e-08 -4057.54 0 2.98023e-08 -3272.78 0 -2.98023e-08 -2643.71 0 0 -2140.26 0 -2.98023e-08 -1739.27 0 -2.98023e-08 -1422.25 0 2.08616e-07 -1183.03 0 -2.98023e-07 -1016.14 0 6.55651e-07 -1127.28 0 </DataArray> 
</PointData> 
<Points> 
<DataArray type="Float32" NumberOfComponents="3"> 