<?xml version="1.0"?> 
<VTKFile type="StructuredGrid" version="0.1"> 
<StructuredGrid WholeExtent="0 31 0 31 0 0"> 
<Piece Extent="0 31 0 31 0 0"> 
<PointData>
<DataArray type="Float32" Name="|E|" format="ascii" NumberOfComponents="3"> 
-1.65838e+06 0 0 -1.65877e+06 30882.3 0 -1.65991e+06 61791.5 0 -1.6618e+06 92754.9 0 -1.66443e+06 123800 0 -1.66781e+06 154953 0 -1.67194e+06 186243 0 -1.67681e+06 217698 0 -1.68242e+06 249343 0 -1.68876e+06 281209 0 -1.69583e+06 313322 0 -1.70363e+06 345711 0 -1.71214e+06 378404 0 -1.72135e+06 411430 0 -1.73126e+06 444817 0 -1.74186e+06 478593 0 -1.75312e+06 512786 0 -1.76503e+06 547423 0 -1.77758e+06 582533 0 -1.79072e+06 618140 0 -1.80445e+06 654269 0 -1.81871e+06 690944 0 -1.83348e+06 728185 0 -1.8487e+06 766010 0 -1.86431e+06 804433 0 -1.88026e+06 843461 0 -1.89646e+06 883097 0 -1.91283e+06 923334 0 -1.92925e+06 964155 0 -1.94561e+06 1.00553e+06 0 -1.96177e+06 1.0474e+06 0 -1.97756e+06 1.08972e+06 0 -1.64731e+06 0 0 -1.64769e+06 30971.9 0 -1.6488e+06 61970.1 0 -1.65064e+06 93021.3 0 -1.65321e+06 124152 0 -1.65651e+06 155389 0 -1.66054e+06 186759 0 -1.66529e+06 218290 0 -1.67077e+06 250007 0 -1.67695e+06 281939 0 -1.68385e+06 314112 0 -1.69146e+06 346554 0 -1.69976e+06 379292 0 -1.70875e+06 412354 0 -1.71843e+06 445766 0 -1.72876e+06 479557 0 -1.73975e+06 513751 0 -1.75138e+06 548376 0 -1.76362e+06 583457 0 -1.77645e+06 619019 0 -1.78985e+06 655083 0 -1.80378e+06 691671 0 -1.8182e+06 728802 0 -1.83307e+06 766491 0 -1.84834e+06 804748 0 -1.86395e+06 843578 0 -1.87982e+06 882982 0 -1.89586e+06 922948 0 -1.912e+06 963456 0 -1.9281e+06 1.00447e+06 0 -1.94404e+06 1.04594e+06 0 -1.95968e+06 1.0878e+06 0 -1.63614e+06 0 0 -1.63651e+06 31055.1 0 -1.63759e+06 62135.9 0 -1.63939e+06 93268.4 0 -1.6419e+06 124479 0 -1.64512e+06 155793 0 -1.64905e+06 187237 0 -1.65369e+06 218837 0 -1.65903e+06 250620 0 -1.66507e+06 282612 0 -1.6718e+06 314839 0 -1.67922e+06 347329 0 -1.68732e+06 380106 0 -1.69609e+06 413198 0 -1.70553e+06 446631 0 -1.71561e+06 480431 0 -1.72634e+06 514623 0 -1.73768e+06 549232 0 -1.74963e+06 584281 0 -1.76215e+06 619795 0 -1.77523e+06 655792 0 -1.78883e+06 692294 0 -1.80292e+06 729316 0 -1.81746e+06 766870 0 -1.83239e+06 804966 0 -1.84766e+06 843607 0 -1.86321e+06 882787 0 -1.87895e+06 922495 0 -1.8948e+06 962707 0 -1.91065e+06 1.00339e+06 0 -1.9264e+06 1.04448e+06 0 -1.94189e+06 1.08592e+06 0 -1.62488e+06 0 0 -1.62524e+06 31131.9 0 -1.6263e+06 62289 0 -1.62805e+06 93496.5 0 -1.6305e+06 124780 0 -1.63364e+06 156165 0 -1.63748e+06 187677 0 -1.642e+06 219341 0 -1.64721e+06 251183 0 -1.6531e+06 283229 0 -1.65967e+06 315505 0 -1.6669e+06 348036 0 -1.67481e+06 380847 0 -1.68337e+06 413964 0 -1.69257e+06 447413 0 -1.70241e+06 481218 0 -1.71287e+06 515403 0 -1.72394e+06 549991 0 -1.7356e+06 585007 0 -1.74782e+06 620470 0 -1.76059e+06 656400 0 -1.77388e+06 692814 0 -1.78764e+06 729728 0 -1.80185e+06 767151 0 -1.81645e+06 805090 0 -1.8314e+06 843547 0 -1.84664e+06 882514 0 -1.86208e+06 921977 0 -1.87766e+06 961909 0 -1.89327e+06 1.00227e+06 0 -1.90882e+06 1.04301e+06 0 -1.92417e+06 1.08406e+06 0 -1.61353e+06 0 0 -1.61388e+06 31202.5 0 -1.61491e+06 62429.5 0 -1.61662e+06 93705.8 0 -1.61901e+06 125056 0 -1.62207e+06 156506 0 -1.62581e+06 188079 0 -1.63023e+06 219801 0 -1.63531e+06 251697 0 -1.64105e+06 283792 0 -1.64746e+06 316110 0 -1.65452e+06 348676 0 -1.66223e+06 381516 0 -1.67057e+06 414653 0 -1.67955e+06 448113 0 -1.68915e+06 481918 0 -1.69936e+06 516092 0 -1.71016e+06 550657 0 -1.72154e+06 585635 0 -1.73347e+06 621045 0 -1.74594e+06 656906 0 -1.75891e+06 693233 0 -1.77236e+06 730040 0 -1.78625e+06 767334 0 -1.80053e+06 805122 0 -1.81517e+06 843401 0 -1.8301e+06 882163 0 -1.84525e+06 921393 0 -1.86056e+06 961061 0 -1.87594e+06 1.00113e+06 0 -1.8913e+06 1.04154e+06 0 -1.90651e+06 1.08222e+06 0 -1.60208e+06 0 0 -1.60242e+06 31266.9 0 -1.60343e+06 62557.7 0 -1.6051e+06 93896.6 0 -1.60743e+06 125308 0 -1.61042e+06 156816 0 -1.61406e+06 188445 0 -1.61837e+06 220219 0 -1.62332e+06 252162 0 -1.62893e+06 284299 0 -1.63517e+06 316654 0 -1.64206e+06 349251 0 -1.64958e+06 382114 0 -1.65772e+06 415266 0 -1.66648e+06 448732 0 -1.67584e+06 482533 0 -1.6858e+06 516692 0 -1.69634e+06 551230 0 -1.70744e+06 586168 0 -1.71909e+06 621523 0 -1.73126e+06 657314 0 -1.74393e+06 693553 0 -1.75707e+06 730253 0 -1.77064e+06 767422 0 -1.78462e+06 805061 0 -1.79895e+06 843169 0 -1.81358e+06 881736 0 -1.82846e+06 920743 0 -1.84351e+06 960162 0 -1.85866e+06 999951 0 -1.87383e+06 1.04006e+06 0 -1.8889e+06 1.0804e+06 0 -1.59055e+06 0 0 -1.59088e+06 31325.2 0 -1.59186e+06 62673.7 0 -1.59349e+06 94069.2 0 -1.59576e+06 125535 0 -1.59868e+06 157096 0 -1.60223e+06 188774 0 -1.60643e+06 220594 0 -1.61126e+06 252579 0 -1.61673e+06 284753 0 -1.62282e+06 317140 0 -1.62953e+06 349762 0 -1.63686e+06 382642 0 -1.64481e+06 415805 0 -1.65335e+06 449271 0 -1.66248e+06 483064 0 -1.67219e+06 517204 0 -1.68247e+06 551712 0 -1.69331e+06 586606 0 -1.70467e+06 621905 0 -1.71656e+06 657624 0 -1.72893e+06 693775 0 -1.74177e+06 730370 0 -1.75504e+06 767414 0 -1.76872e+06 804910 0 -1.78275e+06 842853 0 -1.79709e+06 881231 0 -1.81169e+06 920027 0 -1.82649e+06 959210 0 -1.84142e+06 998739 0 -1.8564e+06 1.03856e+06 0 -1.87134e+06 1.07859e+06 0 -1.57892e+06 0 0 -1.57925e+06 31377.4 0 -1.58021e+06 62777.6 0 -1.58179e+06 94223.6 0 -1.58401e+06 125739 0 -1.58685e+06 157346 0 -1.59032e+06 189068 0 -1.59441e+06 220928 0 -1.59912e+06 252949 0 -1.60445e+06 285154 0 -1.61039e+06 317566 0 -1.61694e+06 350208 0 -1.62408e+06 383102 0 -1.63183e+06 416269 0 -1.64016e+06 449733 0 -1.64907e+06 483513 0 -1.65854e+06 517630 0 -1.66857e+06 552104 0 -1.67914e+06 586953 0 -1.69023e+06 622192 0 -1.70183e+06 657838 0 -1.71392e+06 693901 0 -1.72646e+06 730392 0 -1.73944e+06 767314 0 -1.75282e+06 804669 0 -1.76656e+06 842452 0 -1.78062e+06 880651 0 -1.79495e+06 919245 0 -1.8095e+06 958205 0 -1.82421e+06 997488 0 -1.839e+06 1.03704e+06 0 -1.8538e+06 1.07679e+06 0 -1.56721e+06 0 0 -1.56753e+06 31423.7 0 -1.56846e+06 62869.6 0 -1.57001e+06 94360.3 0 -1.57217e+06 125918 0 -1.57494e+06 157566 0 -1.57832e+06 189326 0 -1.58231e+06 221220 0 -1.5869e+06 253272 0 -1.5921e+06 285503 0 -1.59789e+06 317936 0 -1.60427e+06 350592 0 -1.61124e+06 383493 0 -1.61879e+06 416661 0 -1.62691e+06 450117 0 -1.6356e+06 483880 0 -1.64484e+06 517971 0 -1.65462e+06 552408 0 -1.66493e+06 587208 0 -1.67576e+06 622386 0 -1.68708e+06 657958 0 -1.69889e+06 693932 0 -1.71114e+06 730319 0 -1.72383e+06 767121 0 -1.73692e+06 804339 0 -1.75037e+06 841968 0 -1.76416e+06 879993 0 -1.77823e+06 918395 0 -1.79253e+06 957144 0 -1.80702e+06 996198 0 -1.82163e+06 1.0355e+06 0 -1.83629e+06 1.07498e+06 0 -1.55542e+06 0 0 -1.55573e+06 31464.1 0 -1.55663e+06 62949.9 0 -1.55814e+06 94479.3 0 -1.56025e+06 126074 0 -1.56295e+06 157757 0 -1.56624e+06 189549 0 -1.57013e+06 221473 0 -1.57461e+06 253549 0 -1.57967e+06 285801 0 -1.58531e+06 318248 0 -1.59154e+06 350914 0 -1.59833e+06 383818 0 -1.60569e+06 416982 0 -1.61361e+06 450425 0 -1.62208e+06 484168 0 -1.63109e+06 518228 0 -1.64063e+06 552624 0 -1.65069e+06 587373 0 -1.66126e+06 622489 0 -1.67231e+06 657984 0 -1.68384e+06 693870 0 -1.69581e+06 730153 0 -1.70822e+06 766837 0 -1.72102e+06 803921 0 -1.7342e+06 841400 0 -1.74771e+06 879259 0 -1.76152e+06 917478 0 -1.77559e+06 956026 0 -1.78986e+06 994864 0 -1.80428e+06 1.03394e+06 0 -1.8188e+06 1.07317e+06 0 -1.54354e+06 0 0 -1.54384e+06 31498.7 0 -1.54472e+06 63018.5 0 -1.54619e+06 94581 0 -1.54824e+06 126207 0 -1.55087e+06 157919 0 -1.55408e+06 189738 0 -1.55787e+06 221685 0 -1.56224e+06 253781 0 -1.56717e+06 286047 0 -1.57267e+06 318505 0 -1.57874e+06 351175 0 -1.58536e+06 384077 0 -1.59253e+06 417231 0 -1.60025e+06 450658 0 -1.60851e+06 484376 0 -1.6173e+06 518403 0 -1.6266e+06 552755 0 -1.63642e+06 587450 0 -1.64673e+06 622500 0 -1.65752e+06 657918 0 -1.66877e+06 693714 0 -1.68047e+06 729895 0 -1.6926e+06 766462 0 -1.70512e+06 803416 0 -1.71802e+06 840748 0 -1.73127e+06 878447 0 -1.74482e+06 916491 0 -1.75865e+06 954850 0 -1.77271e+06 993484 0 -1.78695e+06 1.03234e+06 0 -1.80131e+06 1.07135e+06 0 -1.53157e+06 0 0 -1.53186e+06 31527.6 0 -1.53272e+06 63075.8 0 -1.53416e+06 94665.5 0 -1.53615e+06 126318 0 -1.53872e+06 158053 0 -1.54185e+06 189893 0 -1.54554e+06 221857 0 -1.54979e+06 253967 0 -1.5546e+06 286244 0 -1.55996e+06 318706 0 -1.56587e+06 351375 0 -1.57232e+06 384270 0 -1.57932e+06 417412 0 -1.58684e+06 450817 0 -1.59489e+06 484506 0 -1.60346e+06 518495 0 -1.61253e+06 552801 0 -1.62211e+06 587439 0 -1.63216e+06 622422 0 -1.64269e+06 657762 0 -1.65368e+06 693467 0 -1.66511e+06 729545 0 -1.67696e+06 765997 0 -1.68922e+06 802823 0 -1.70185e+06 840014 0 -1.71483e+06 877557 0 -1.72813e+06 915433 0 -1.74172e+06 953612 0 -1.75556e+06 992054 0 -1.76962e+06 1.03071e+06 0 -1.78383e+06 1.06951e+06 0 -1.51952e+06 0 0 -1.51981e+06 31550.8 0 -1.52065e+06 63121.7 0 -1.52204e+06 94733.2 0 -1.52399e+06 126406 0 -1.52649e+06 158159 0 -1.52953e+06 190014 0 -1.53313e+06 221991 0 -1.53727e+06 254110 0 -1.54196e+06 286391 0 -1.54718e+06 318853 0 -1.55294e+06 351516 0 -1.55923e+06 384400 0 -1.56604e+06 417523 0 -1.57338e+06 450904 0 -1.58122e+06 484560 0 -1.58957e+06 518508 0 -1.59842e+06 552764 0 -1.60776e+06 587342 0 -1.61757e+06 622255 0 -1.62785e+06 657515 0 -1.63857e+06 693130 0 -1.64974e+06 729105 0 -1.66132e+06 765443 0 -1.67331e+06 802142 0 -1.68567e+06 839195 0 -1.69839e+06 876589 0 -1.71144e+06 914304 0 -1.7248e+06 952311 0 -1.73843e+06 990573 0 -1.75229e+06 1.02904e+06 0 -1.76635e+06 1.06764e+06 0 -1.50739e+06 0 0 -1.50767e+06 31568.4 0 -1.50849e+06 63156.5 0 -1.50985e+06 94784.1 0 -1.51174e+06 126471 0 -1.51417e+06 158237 0 -1.51714e+06 190103 0 -1.52065e+06 222087 0 -1.52468e+06 254209 0 -1.52924e+06 286489 0 -1.53433e+06 318946 0 -1.53994e+06 351599 0 -1.54607e+06 384466 0 -1.55271e+06 417567 0 -1.55986e+06 450918 0 -1.5675e+06 484538 0 -1.57564e+06 518441 0 -1.58427e+06 552644 0 -1.59337e+06 587160 0 -1.60294e+06 622001 0 -1.61297e+06 657180 0 -1.62344e+06 692702 0 -1.63435e+06 728575 0 -1.64567e+06 764800 0 -1.65739e+06 801375 0 -1.66949e+06 838293 0 -1.68195e+06 875542 0 -1.69476e+06 913102 0 -1.70788e+06 950945 0 -1.72129e+06 989035 0 -1.73496e+06 1.02732e+06 0 -1.74885e+06 1.06575e+06 0 -1.49518e+06 0 0 -1.49545e+06 31580.6 0 -1.49625e+06 63180.3 0 -1.49757e+06 94818.6 0 -1.49942e+06 126515 0 -1.50179e+06 158288 0 -1.50468e+06 190158 0 -1.50809e+06 222144 0 -1.51202e+06 254265 0 -1.51646e+06 286539 0 -1.52142e+06 318986 0 -1.52688e+06 351623 0 -1.53285e+06 384470 0 -1.53932e+06 417544 0 -1.54628e+06 450862 0 -1.55373e+06 484441 0 -1.56167e+06 518296 0 -1.57008e+06 552442 0 -1.57895e+06 586893 0 -1.58829e+06 621661 0 -1.59807e+06 656756 0 -1.60829e+06 692186 0 -1.61894e+06 727956 0 -1.63e+06 764068 0 -1.64146e+06 800521 0 -1.6533e+06 837307 0 -1.66551e+06 874414 0 -1.67807e+06 911825 0 -1.69096e+06 949511 0 -1.70415e+06 987439 0 -1.71762e+06 1.02556e+06 0 -1.73135e+06 1.06382e+06 0 -1.48289e+06 0 0 -1.48315e+06 31587.3 0 -1.48393e+06 63193.3 0 -1.48522e+06 94836.9 0 -1.48702e+06 126537 0 -1.48932e+06 158312 0 -1.49214e+06 190182 0 -1.49546e+06 222164 0 -1.49929e+06 254278 0 -1.50361e+06 286542 0 -1.50844e+06 318973 0 -1.51376e+06 351591 0 -1.51957e+06 384413 0 -1.52587e+06 417455 0 -1.53266e+06 450735 0 -1.53992e+06 484270 0 -1.54765e+06 518073 0 -1.55584e+06 552160 0 -1.5645e+06 586543 0 -1.5736e+06 621235 0 -1.58314e+06 656245 0 -1.59312e+06 691581 0 -1.60351e+06 727248 0 -1.61432e+06 763248 0 -1.62552e+06 799580 0 -1.63711e+06 836236 0 -1.64907e+06 873206 0 -1.66138e+06 910471 0 -1.67403e+06 948007 0 -1.687e+06 985780 0 -1.70028e+06 1.02375e+06 0 -1.71383e+06 1.06185e+06 0 -1.47052e+06 0 0 -1.47078e+06 31588.7 0 -1.47154e+06 63195.6 0 -1.47279e+06 94839.1 0 -1.47454e+06 126538 0 -1.47678e+06 158310 0 -1.47953e+06 190174 0 -1.48276e+06 222148 0 -1.48648e+06 254250 0 -1.4907e+06 286498 0 -1.4954e+06 318909 0 -1.50058e+06 351503 0 -1.50624e+06 384294 0 -1.51237e+06 417301 0 -1.51898e+06 450540 0 -1.52605e+06 484026 0 -1.53358e+06 517774 0 -1.54157e+06 551798 0 -1.55e+06 586111 0 -1.55888e+06 620725 0 -1.56818e+06 655648 0 -1.57792e+06 690889 0 -1.58807e+06 726452 0 -1.59862e+06 762340 0 -1.60957e+06 798551 0 -1.6209e+06 835080 0 -1.63261e+06 871915 0 -1.64468e+06 909040 0 -1.6571e+06 946431 0 -1.66985e+06 984056 0 -1.68292e+06 1.02187e+06 0 -1.69629e+06 1.05983e+06 0 -1.45808e+06 0 0 -1.45833e+06 31584.7 0 -1.45906e+06 63187.3 0 -1.46028e+06 94825.6 0 -1.46199e+06 126518 0 -1.46417e+06 158281 0 -1.46684e+06 190134 0 -1.46999e+06 222095 0 -1.47361e+06 254180 0 -1.47772e+06 286407 0 -1.48229e+06 318795 0 -1.48733e+06 351359 0 -1.49284e+06 384116 0 -1.49882e+06 417083 0 -1.50525e+06 450276 0 -1.51214e+06 483710 0 -1.51948e+06 517400 0 -1.52726e+06 551358 0 -1.53547e+06 585598 0 -1.54413e+06 620130 0 -1.5532e+06 654965 0 -1.56269e+06 690109 0 -1.5726e+06 725568 0 -1.5829e+06 761344 0 -1.5936e+06 797436 0 -1.60469e+06 833838 0 -1.61615e+06 870541 0 -1.62797e+06 907529 0 -1.64016e+06 944780 0 -1.65268e+06 982263 0 -1.66554e+06 1.01994e+06 0 -1.67873e+06 1.05776e+06 0 -1.44556e+06 0 0 -1.4458e+06 31575.6 0 -1.44652e+06 63168.6 0 -1.4477e+06 94796.4 0 -1.44936e+06 126477 0 -1.45149e+06 158227 0 -1.45408e+06 190064 0 -1.45715e+06 222006 0 -1.46068e+06 254069 0 -1.46467e+06 286271 0 -1.46912e+06 318629 0 -1.47403e+06 351160 0 -1.47939e+06 383879 0 -1.48521e+06 416802 0 -1.49147e+06 449945 0 -1.49818e+06 483323 0 -1.50532e+06 516950 0 -1.5129e+06 550840 0 -1.52091e+06 585004 0 -1.52934e+06 619453 0 -1.53819e+06 654197 0 -1.54745e+06 689244 0 -1.55711e+06 724597 0 -1.56717e+06 760261 0 -1.57763e+06 796233 0 -1.58846e+06 832511 0 -1.59967e+06 869083 0 -1.61126e+06 905937 0 -1.6232e+06 943051 0 -1.6355e+06 980397 0 -1.64815e+06 1.01794e+06 0 -1.66115e+06 1.05563e+06 0 -1.43296e+06 0 0 -1.4332e+06 31561.3 0 -1.43389e+06 63139.6 0 -1.43505e+06 94751.8 0 -1.43666e+06 126415 0 -1.43873e+06 158146 0 -1.44126e+06 189963 0 -1.44424e+06 221881 0 -1.44767e+06 253918 0 -1.45155e+06 286091 0 -1.45589e+06 318415 0 -1.46066e+06 350907 0 -1.46589e+06 383583 0 -1.47155e+06 416458 0 -1.47764e+06 449548 0 -1.48417e+06 482866 0 -1.49113e+06 516428 0 -1.49851e+06 550245 0 -1.50631e+06 584330 0 -1.51452e+06 618694 0 -1.52315e+06 653345 0 -1.53218e+06 688292 0 -1.5416e+06 723539 0 -1.55142e+06 759090 0 -1.56163e+06 794943 0 -1.57222e+06 831096 0 -1.58319e+06 867540 0 -1.59453e+06 904262 0 -1.60624e+06 941243 0 -1.61831e+06 978457 0 -1.63074e+06 1.01587e+06 0 -1.64353e+06 1.05344e+06 0 -1.42029e+06 0 0 -1.42052e+06 31542 0 -1.4212e+06 63100.4 0 -1.42232e+06 94692.1 0 -1.42389e+06 126333 0 -1.4259e+06 158041 0 -1.42836e+06 189832 0 -1.43126e+06 221722 0 -1.4346e+06 253728 0 -1.43838e+06 285865 0 -1.44259e+06 318151 0 -1.44724e+06 350600 0 -1.45232e+06 383229 0 -1.45783e+06 416052 0 -1.46376e+06 449084 0 -1.47012e+06 482340 0 -1.47689e+06 515832 0 -1.48408e+06 549574 0 -1.49167e+06 583577 0 -1.49968e+06 617853 0 -1.50808e+06 652409 0 -1.51688e+06 687255 0 -1.52607e+06 722394 0 -1.53566e+06 757831 0 -1.54562e+06 793566 0 -1.55597e+06 829595 0 -1.56669e+06 865911 0 -1.57779e+06 902503 0 -1.58926e+06 939353 0 -1.6011e+06 976437 0 -1.61331e+06 1.01373e+06 0 -1.6259e+06 1.05118e+06 0 -1.40755e+06 0 0 -1.40777e+06 31517.6 0 -1.40843e+06 63051.3 0 -1.40952e+06 94617.3 0 -1.41105e+06 126232 0 -1.41301e+06 157911 0 -1.4154e+06 189671 0 -1.41822e+06 221528 0 -1.42147e+06 253498 0 -1.42514e+06 285597 0 -1.42924e+06 317839 0 -1.43376e+06 350242 0 -1.4387e+06 382819 0 -1.44406e+06 415585 0 -1.44983e+06 448556 0 -1.45602e+06 481745 0 -1.46261e+06 515165 0 -1.46961e+06 548828 0 -1.477e+06 582747 0 -1.4848e+06 616931 0 -1.49298e+06 651391 0 -1.50156e+06 686133 0 -1.51052e+06 721163 0 -1.51987e+06 756485 0 -1.5296e+06 792100 0 -1.5397e+06 828005 0 -1.55018e+06 864194 0 -1.56103e+06 900658 0 -1.57226e+06 937379 0 -1.58387e+06 974337 0 -1.59586e+06 1.0115e+06 0 -1.60823e+06 1.04884e+06 0 -1.39474e+06 0 0 -1.39495e+06 31488.3 0 -1.39559e+06 62992.3 0 -1.39666e+06 94527.8 0 -1.39814e+06 126111 0 -1.40004e+06 157757 0 -1.40237e+06 189481 0 -1.40511e+06 221301 0 -1.40827e+06 253230 0 -1.41184e+06 285284 0 -1.41583e+06 317480 0 -1.42022e+06 349831 0 -1.42503e+06 382352 0 -1.43024e+06 415058 0 -1.43586e+06 447964 0 -1.44187e+06 481082 0 -1.44829e+06 514426 0 -1.4551e+06 548007 0 -1.4623e+06 581838 0 -1.46989e+06 615929 0 -1.47786e+06 650289 0 -1.48621e+06 684926 0 -1.49495e+06 719846 0 -1.50406e+06 755052 0 -1.51355e+06 790546 0 -1.52342e+06 826327 0 -1.53365e+06 862390 0 -1.54427e+06 898725 0 -1.55526e+06 935318 0 -1.56663e+06 972151 0 -1.57838e+06 1.0092e+06 0 -1.59054e+06 1.04642e+06 0 -1.38185e+06 0 0 -1.38206e+06 31454.2 0 -1.38269e+06 62923.6 0 -1.38372e+06 94423.8 0 -1.38516e+06 125970 0 -1.38701e+06 157578 0 -1.38927e+06 189263 0 -1.39193e+06 221039 0 -1.395e+06 252923 0 -1.39848e+06 284930 0 -1.40235e+06 317073 0 -1.40663e+06 349368 0 -1.4113e+06 381830 0 -1.41637e+06 414472 0 -1.42183e+06 447308 0 -1.42769e+06 480352 0 -1.43392e+06 513616 0 -1.44055e+06 547113 0 -1.44756e+06 580853 0 -1.45494e+06 614848 0 -1.46271e+06 649106 0 -1.47084e+06 683635 0 -1.47936e+06 718442 0 -1.48824e+06 753531 0 -1.49749e+06 788904 0 -1.50712e+06 824560 0 -1.51711e+06 860495 0 -1.52748e+06 896703 0 -1.53823e+06 933170 0 -1.54936e+06 969879 0 -1.56089e+06 1.00681e+06 0 -1.57281e+06 1.04392e+06 0 -1.3689e+06 0 0 -1.36911e+06 31415.2 0 -1.36971e+06 62845.3 0 -1.37071e+06 94305.3 0 -1.37211e+06 125810 0 -1.37391e+06 157375 0 -1.37611e+06 189015 0 -1.3787e+06 220745 0 -1.38168e+06 252579 0 -1.38506e+06 284533 0 -1.38883e+06 316620 0 -1.39298e+06 348856 0 -1.39752e+06 381253 0 -1.40245e+06 413827 0 -1.40776e+06 446590 0 -1.41345e+06 479556 0 -1.41952e+06 512737 0 -1.42596e+06 546146 0 -1.43278e+06 579792 0 -1.43997e+06 613688 0 -1.44753e+06 647841 0 -1.45545e+06 682261 0 -1.46374e+06 716954 0 -1.4724e+06 751923 0 -1.48142e+06 787173 0 -1.4908e+06 822703 0 -1.50056e+06 858511 0 -1.51069e+06 894590 0 -1.52119e+06 930930 0 -1.53208e+06 967516 0 -1.54337e+06 1.00433e+06 0 -1.55506e+06 1.04134e+06 0 -1.35588e+06 0 0 -1.35608e+06 31371.5 0 -1.35667e+06 62757.5 0 -1.35764e+06 94172.7 0 -1.359e+06 125632 0 -1.36075e+06 157149 0 -1.36288e+06 188740 0 -1.3654e+06 220418 0 -1.3683e+06 252198 0 -1.37158e+06 284094 0 -1.37524e+06 316121 0 -1.37928e+06 348293 0 -1.38369e+06 380622 0 -1.38848e+06 413124 0 -1.39364e+06 445810 0 -1.39918e+06 478695 0 -1.40508e+06 511789 0 -1.41134e+06 545106 0 -1.41797e+06 578656 0 -1.42496e+06 612450 0 -1.43232e+06 646496 0 -1.44003e+06 680804 0 -1.4481e+06 715379 0 -1.45653e+06 750228 0 -1.46532e+06 785354 0 -1.47447e+06 820757 0 -1.48399e+06 856436 0 -1.49388e+06 892386 0 -1.50414e+06 928599 0 -1.51479e+06 965061 0 -1.52583e+06 1.00176e+06 0 -1.53728e+06 1.03866e+06 0 -1.34279e+06 0 0 -1.34298e+06 31323.1 0 -1.34355e+06 62660.4 0 -1.3445e+06 94026.1 0 -1.34582e+06 125435 0 -1.34752e+06 156900 0 -1.34959e+06 188437 0 -1.35204e+06 220059 0 -1.35485e+06 251780 0 -1.35804e+06 283615 0 -1.3616e+06 315577 0 -1.36552e+06 347680 0 -1.36981e+06 379938 0 -1.37446e+06 412363 0 -1.37948e+06 444969 0 -1.38486e+06 477768 0 -1.39059e+06 510773 0 -1.39668e+06 543995 0 -1.40313e+06 577445 0 -1.40993e+06 611134 0 -1.41708e+06 645071 0 -1.42459e+06 679264 0 -1.43244e+06 713720 0 -1.44065e+06 748446 0 -1.44921e+06 783446 0 -1.45813e+06 818720 0 -1.46741e+06 854269 0 -1.47705e+06 890089 0 -1.48707e+06 926173 0 -1.49747e+06 962511 0 -1.50827e+06 999087 0 -1.51948e+06 1.03588e+06 0 -1.32963e+06 0 0 -1.32982e+06 31270.1 0 -1.33038e+06 62554 0 -1.3313e+06 93865.7 0 -1.33258e+06 125219 0 -1.33423e+06 156628 0 -1.33624e+06 188106 0 -1.33861e+06 219668 0 -1.34135e+06 251326 0 -1.34445e+06 283095 0 -1.3479e+06 314989 0 -1.35171e+06 347019 0 -1.35588e+06 379201 0 -1.3604e+06 411546 0 -1.36527e+06 444068 0 -1.3705e+06 476778 0 -1.37607e+06 509689 0 -1.38199e+06 542813 0 -1.38825e+06 576160 0 -1.39486e+06 609741 0 -1.40182e+06 643565 0 -1.40912e+06 677641 0 -1.41676e+06 711977 0 -1.42475e+06 746578 0 -1.43308e+06 781449 0 -1.44177e+06 816592 0 -1.45081e+06 852009 0 -1.46021e+06 887698 0 -1.46999e+06 923652 0 -1.48014e+06 959864 0 -1.49069e+06 996321 0 -1.50165e+06 1.033e+06 0 -1.31641e+06 0 0 -1.3166e+06 31212.6 0 -1.31713e+06 62438.6 0 -1.31803e+06 93691.7 0 -1.31927e+06 124985 0 -1.32087e+06 156333 0 -1.32283e+06 187749 0 -1.32513e+06 219245 0 -1.32779e+06 250837 0 -1.33079e+06 282536 0 -1.33415e+06 314356 0 -1.33785e+06 346310 0 -1.3419e+06 378412 0 -1.34629e+06 410673 0 -1.35102e+06 443107 0 -1.35609e+06 475725 0 -1.36151e+06 508539 0 -1.36726e+06 541561 0 -1.37335e+06 574802 0 -1.37977e+06 608272 0 -1.38653e+06 641981 0 -1.39363e+06 675937 0 -1.40106e+06 710149 0 -1.40883e+06 744622 0 -1.41694e+06 779362 0 -1.4254e+06 814374 0 -1.4342e+06 849657 0 -1.44336e+06 885211 0 -1.45289e+06 921034 0 -1.46279e+06 957118 0 -1.47309e+06 993453 0 -1.4838e+06 1.03002e+06 0 -1.30313e+06 0 0 -1.30331e+06 31150.6 0 -1.30383e+06 62314.2 0 -1.3047e+06 93504.2 0 -1.30591e+06 124734 0 -1.30746e+06 156016 0 -1.30935e+06 187365 0 -1.31159e+06 218792 0 -1.31417e+06 250312 0 -1.31709e+06 281937 0 -1.32034e+06 313680 0 -1.32394e+06 345554 0 -1.32786e+06 377571 0 -1.33213e+06 409745 0 -1.33672e+06 442086 0 -1.34165e+06 474609 0 -1.34691e+06 507323 0 -1.35249e+06 540240 0 -1.35841e+06 573371 0 -1.36465e+06 606728 0 -1.37122e+06 640318 0 -1.37811e+06 674152 0 -1.38534e+06 708236 0 -1.39289e+06 742580 0 -1.40078e+06 777187 0 -1.40901e+06 812063 0 -1.41758e+06 847210 0 -1.4265e+06 882629 0 -1.43578e+06 918318 0 -1.44543e+06 954271 0 -1.45548e+06 990482 0 -1.46593e+06 1.02694e+06 0 -1.28978e+06 0 0 -1.28996e+06 31084.1 0 -1.29046e+06 62181 0 -1.2913e+06 93303.6 0 -1.29248e+06 124465 0 -1.29398e+06 155677 0 -1.29582e+06 186954 0 -1.29799e+06 218308 0 -1.3005e+06 249752 0 -1.30333e+06 281299 0 -1.30649e+06 312961 0 -1.30997e+06 344750 0 -1.31379e+06 376680 0 -1.31792e+06 408762 0 -1.32238e+06 441008 0 -1.32717e+06 473431 0 -1.33227e+06 506041 0 -1.33769e+06 538850 0 -1.34343e+06 571869 0 -1.3495e+06 605108 0 -1.35588e+06 638577 0 -1.36257e+06 672285 0 -1.36959e+06 706241 0 -1.37694e+06 740451 0 -1.38461e+06 774923 0 -1.39261e+06 809662 0 -1.40094e+06 844670 0 -1.40962e+06 879950 0 -1.41866e+06 915502 0 -1.42806e+06 951322 0 -1.43785e+06 987405 0 -1.44804e+06 1.02374e+06 0 -1.27637e+06 0 0 -1.27654e+06 31013.3 0 -1.27703e+06 62039.1 0 -1.27785e+06 93089.9 0 -1.27899e+06 124178 0 -1.28045e+06 155317 0 -1.28223e+06 186518 0 -1.28434e+06 217795 0 -1.28677e+06 249159 0 -1.28951e+06 280623 0 -1.29258e+06 312200 0 -1.29596e+06 343901 0 -1.29966e+06 375739 0 -1.30367e+06 407725 0 -1.308e+06 439872 0 -1.31264e+06 472192 0 -1.31759e+06 504694 0 -1.32286e+06 537392 0 -1.32843e+06 570295 0 -1.33432e+06 603414 0 -1.34051e+06 636759 0 -1.34702e+06 670338 0 -1.35383e+06 704162 0 -1.36097e+06 738237 0 -1.36842e+06 772570 0 -1.37619e+06 807168 0 -1.38429e+06 842035 0 -1.39274e+06 877174 0 -1.40152e+06 912585 0 -1.41068e+06 948268 0 -1.4202e+06 984221 0 -1.43013e+06 1.02043e+06 0 </DataArray> 
</PointData> 
<Points> 
<DataArray type="Float32" NumberOfComponents="3"> 