<?xml version="1.0"?> 
<VTKFile type="StructuredGrid" version="0.1"> 
<StructuredGrid WholeExtent="0 15 0 15 0 0"> 
<Piece Extent="0 15 0 15 0 0"> 
<PointData>
<DataArray type="Float32" Name="E" format="ascii" NumberOfComponents="3"> 
-1.02924e+06 -1.549 0 -1.0285e+06 -16772.6 0 -1.02627e+06 -33729.3 0 -1.02257e+06 -51052.9 0 -1.01739e+06 -68925.6 0 -1.01073e+06 -87525.9 0 -1.00262e+06 -107022 0 -993057 -127567 0 -982076 -149280 0 -969681 -172239 0 -955894 -196448 0 -940641 -221823 0 -923936 -248143 0 -905466 -274993 0 -885404 -301587 0 -866358 -325526 0 -1.00876e+06 -1.53717 0 -1.00794e+06 -15790.8 0 -1.00549e+06 -31765.9 0 -1.0014e+06 -48109.1 0 -995676 -65004.9 0 -988333 -82635.7 0 -979390 -101176 0 -968879 -120782 0 -956847 -141581 0 -943356 -163647 0 -928463 -186980 0 -912233 -211476 0 -894685 -236893 0 -875875 -262810 0 -855897 -288600 0 -835302 -314011 0 -989582 -1.50852 0 -988687 -14712 0 -986001 -29608.1 0 -981524 -44873.2 0 -975259 -60695.3 0 -967218 -77263 0 -957429 -94760.4 0 -945943 -113357 0 -932833 -133190 0 -918207 -154348 0 -902192 -176835 0 -884932 -200547 0 -866580 -225236 0 -847287 -250493 0 -827249 -275799 0 -806602 -300800 0 -971823 -1.49755 0 -970851 -13536.4 0 -967934 -27255.7 0 -963069 -41343.5 0 -956255 -55991.9 0 -947504 -71398.3 0 -936848 -87760.7 0 -924349 -105268 0 -910111 -124081 0 -894286 -144310 0 -877073 -165982 0 -858711 -189006 0 -839467 -213138 0 -819608 -237974 0 -799375 -262988 0 -778856 -287610 0 -955605 -1.45016 0 -954557 -12264.6 0 -951411 -24709.2 0 -946159 -37518.7 0 -938793 -50889.5 0 -929318 -65029.5 0 -917765 -80155.6 0 -904205 -96482.9 0 -888767 -114207 0 -871647 -133476 0 -853117 -154356 0 -833520 -176783 0 -813243 -200530 0 -792684 -225181 0 -772171 -250147 0 -751857 -274734 0 -941047 -1.38397 0 -939926 -10898.4 0 -936556 -21970.9 0 -930921 -33399.6 0 -923002 -45384 0 -912792 -58144 0 -900311 -71919.4 0 -885633 -86960.2 0 -868902 -103509 0 -850359 -121768 0 -830347 -141859 0 -809319 -163772 0 -787807 -187305 0 -766362 -212024 0 -745454 -237259 0 -725343 -262161 0 -928265 -1.27046 0 -927074 -9441.21 0 -923490 -19046.2 0 -917484 -28990.4 0 -909020 -39474.4 0 -898068 -50730.2 0 -884631 -63024.1 0 -868771 -76649.5 0 -850639 -91908.3 0 -830511 -109078 0 -808802 -128361 0 -786084 -149823 0 -763054 -173312 0 -740466 -198384 0 -718989 -224267 0 -699016 -249922 0 -917370 -1.10804 0 -916115 -7898.69 0 -912332 -15944.6 0 -905978 -24301.2 0 -896987 -33165.8 0 -885300 -42781.3 0 -870886 -53443 0 -853780 -65495.4 0 -834127 -79315 0 -812222 -95274.9 0 -788551 -113689 0 -763805 -134735 0 -738880 -158346 0 -714791 -184092 0 -692494 -211080 0 -672602 -238027 0 -908463 -0.862081 0 -907152 -6279.88 0 -903196 -12682.1 0 -896528 -19350.6 0 -887048 -26473.1 0 -874651 -34299.5 0 -859255 -43154.9 0 -840849 -53442.2 0 -819549 -65627.4 0 -795655 -80203.8 0 -769701 -97631.6 0 -742508 -118246 0 -715190 -142127 0 -689105 -168905 0 -665619 -197567 0 -645640 -226443 0 -901628 -0.555247 0 -900275 -4598.19 0 -896182 -9283.37 0 -889255 -14169.5 0 -879349 -19425.6 0 -866295 -25301.8 0 -849940 -32151 0 -830201 -40439.6 0 -807137 -50738.4 0 -781021 -63687.8 0 -752421 -79933.3 0 -722265 -100028 0 -691908 -124277 0 -663130 -152480 0 -637921 -183528 0 -617773 -215278 0 -896933 -0.0794876 0 -895555 -2872.62 0 -891377 -5783.88 0 -884270 -8804.79 0 -874032 -12072.8 0 -860415 -15827.1 0 -843165 -20442.5 0 -822096 -26451.3 0 -797170 -34543.9 0 -768601 -45534.9 0 -736951 -60298.1 0 -703227 -79667.5 0 -669002 -104291 0 -636558 -134312 0 -608803 -168680 0 -588159 -204413 0 -894413 0.372806 0 -893034 -1128.96 0 -888840 -2232.98 0 -881663 -3324.05 0 -871231 -4490.83 0 -857196 -5945.47 0 -839176 -8072 0 -816835 -11467 0 -789994 -16952.9 0 -758758 -25548.6 0 -723638 -38397.1 0 -685661 -56675.3 0 -646549 -81495.5 0 -609056 -113643 0 -577420 -152531 0 -556143 -194386 0 -894068 1.26146 0 -892718 598.998 0 -888598 1303.58 0 -881496 2179.82 0 -871061 3209.49 0 -856823 4231.95 0 -838236 4873.6 0 -814763 4484.44 0 -786021 2097 0 -751946 -3540.28 0 -712946 -13886 0 -670002 -30493.6 0 -624813 -55033.5 0 -580381 -89300.1 0 -542497 -134254 0 -519920 -185045 0 -895849 1.7532 0 -894566 2268.69 0 -890632 4741.47 0 -883791 7583.56 0 -873606 10875.1 0 -859467 14538.7 0 -840621 18246.9 0 -816270 21313.5 0 -785741 22625.3 0 -748732 20647.9 0 -705480 13575.1 0 -656899 -552.751 0 -604394 -23894.6 0 -550662 -59487 0 -502092 -111927 0 -476877 -179043 0 -899647 2.66059 0 -898476 3828.27 0 -894864 7976.38 0 -888513 12730.1 0 -878902 18302 0 -865267 24739.3 0 -846608 31818.9 0 -821791 38846.7 0 -789726 44586.6 0 -749801 47127.6 0 -701979 44294.5 0 -647221 33651.2 0 -586404 12901.9 0 -521068 -21755 0 -453879 -80568.7 0 -421437 -181060 0 -905297 8.3775 0 -904282 5217.59 0 -901141 10882.9 0 -895557 17429.6 0 -886916 25222.2 0 -874307 34524.6 0 -856478 45229.7 0 -831741 56833.6 0 -798768 67774.9 0 -755674 76062.8 0 -703868 78377.1 0 -640872 72662 0 -574416 55865.3 0 -491255 25172.9 0 -404570 -22424 0 -317624 -227322 0 </DataArray> 
</PointData> 
<Points> 
<DataArray type="Float32" NumberOfComponents="3"> 
0.236 0 0 0.236 0.0018 0 0.236 0.0036 0 0.236 0.0054 0 0.236 0.0072 0 0.236 0.009 0 0.236 0.0108 0 0.236 0.0126 0 0.236 0.0144 0 0.236 0.0162 0 0.236 0.018 0 0.236 0.0198 0 0.236 0.0216 0 0.236 0.0234 0 0.236 0.0252 0 0.236 0.027 0 0.237133 0 0 0.237133 0.0018 0 0.237133 0.0036 0 0.237133 0.0054 0 0.237133 0.0072 0 0.237133 0.009 0 0.237133 0.0108 0 0.237133 0.0126 0 0.237133 0.0144 0 0.237133 0.0162 0 0.237133 0.018 0 0.237133 0.0198 0 0.237133 0.0216 0 0.237133 0.0234 0 0.237133 0.0252 0 0.237133 0.027 0 0.238267 0 0 0.238267 0.0018 0 0.238267 0.0036 0 0.238267 0.0054 0 0.238267 0.0072 0 0.238267 0.009 0 0.238267 0.0108 0 0.238267 0.0126 0 0.238267 0.0144 0 0.238267 0.0162 0 0.238267 0.018 0 0.238267 0.0198 0 0.238267 0.0216 0 0.238267 0.0234 0 0.238267 0.0252 0 0.238267 0.027 0 0.2394 0 0 0.2394 0.0018 0 0.2394 0.0036 0 0.2394 0.0054 0 0.2394 0.0072 0 0.2394 0.009 0 0.2394 0.0108 0 0.2394 0.0126 0 0.2394 0.0144 0 0.2394 0.0162 0 0.2394 0.018 0 0.2394 0.0198 0 0.2394 0.0216 0 0.2394 0.0234 0 0.2394 0.0252 0 0.2394 0.027 0 0.240533 0 0 0.240533 0.0018 0 0.240533 0.0036 0 0.240533 0.0054 0 0.240533 0.0072 0 0.240533 0.009 0 0.240533 0.0108 0 0.240533 0.0126 0 0.240533 0.0144 0 0.240533 0.0162 0 0.240533 0.018 0 0.240533 0.0198 0 0.240533 0.0216 0 0.240533 0.0234 0 0.240533 0.0252 0 0.240533 0.027 0 0.241667 0 0 0.241667 0.0018 0 0.241667 0.0036 0 0.241667 0.0054 0 0.241667 0.0072 0 0.241667 0.009 0 0.241667 0.0108 0 0.241667 0.0126 0 0.241667 0.0144 0 0.241667 0.0162 0 0.241667 0.018 0 0.241667 0.0198 0 0.241667 0.0216 0 0.241667 0.0234 0 0.241667 0.0252 0 0.241667 0.027 0 0.2428 0 0 0.2428 0.0018 0 0.2428 0.0036 0 0.2428 0.0054 0 0.2428 0.0072 0 0.2428 0.009 0 0.2428 0.0108 0 0.2428 0.0126 0 0.2428 0.0144 0 0.2428 0.0162 0 0.2428 0.018 0 0.2428 0.0198 0 0.2428 0.0216 0 0.2428 0.0234 0 0.2428 0.0252 0 0.2428 0.027 0 0.243933 0 0 0.243933 0.0018 0 0.243933 0.0036 0 0.243933 0.0054 0 0.243933 0.0072 0 0.243933 0.009 0 0.243933 0.0108 0 0.243933 0.0126 0 0.243933 0.0144 0 0.243933 0.0162 0 0.243933 0.018 0 0.243933 0.0198 0 0.243933 0.0216 0 0.243933 0.0234 0 0.243933 0.0252 0 0.243933 0.027 0 0.245067 0 0 0.245067 0.0018 0 0.245067 0.0036 0 0.245067 0.0054 0 0.245067 0.0072 0 0.245067 0.009 0 0.245067 0.0108 0 0.245067 0.0126 0 0.245067 0.0144 0 0.245067 0.0162 0 0.245067 0.018 0 0.245067 0.0198 0 0.245067 0.0216 0 0.245067 0.0234 0 0.245067 0.0252 0 0.245067 0.027 0 0.2462 0 0 0.2462 0.0018 0 0.2462 0.0036 0 0.2462 0.0054 0 0.2462 0.0072 0 0.2462 0.009 0 0.2462 0.0108 0 0.2462 0.0126 0 0.2462 0.0144 0 0.2462 0.0162 0 0.2462 0.018 0 0.2462 0.0198 0 0.2462 0.0216 0 0.2462 0.0234 0 0.2462 0.0252 0 0.2462 0.027 0 0.247333 0 0 0.247333 0.0018 0 0.247333 0.0036 0 0.247333 0.0054 0 0.247333 0.0072 0 0.247333 0.009 0 0.247333 0.0108 0 0.247333 0.0126 0 0.247333 0.0144 0 0.247333 0.0162 0 0.247333 0.018 0 0.247333 0.0198 0 0.247333 0.0216 0 0.247333 0.0234 0 0.247333 0.0252 0 0.247333 0.027 0 0.248467 0 0 0.248467 0.0018 0 0.248467 0.0036 0 0.248467 0.0054 0 0.248467 0.0072 0 0.248467 0.009 0 0.248467 0.0108 0 0.248467 0.0126 0 0.248467 0.0144 0 0.248467 0.0162 0 0.248467 0.018 0 0.248467 0.0198 0 0.248467 0.0216 0 0.248467 0.0234 0 0.248467 0.0252 0 0.248467 0.027 0 0.2496 0 0 0.2496 0.0018 0 0.2496 0.0036 0 0.2496 0.0054 0 0.2496 0.0072 0 0.2496 0.009 0 0.2496 0.0108 0 0.2496 0.0126 0 0.2496 0.0144 0 0.2496 0.0162 0 0.2496 0.018 0 0.2496 0.0198 0 0.2496 0.0216 0 0.2496 0.0234 0 0.2496 0.0252 0 0.2496 0.027 0 0.250733 0 0 0.250733 0.0018 0 0.250733 0.0036 0 0.250733 0.0054 0 0.250733 0.0072 0 0.250733 0.009 0 0.250733 0.0108 0 0.250733 0.0126 0 0.250733 0.0144 0 0.250733 0.0162 0 0.250733 0.018 0 0.250733 0.0198 0 0.250733 0.0216 0 0.250733 0.0234 0 0.250733 0.0252 0 0.250733 0.027 0 0.251867 0 0 0.251867 0.0018 0 0.251867 0.0036 0 0.251867 0.0054 0 0.251867 0.0072 0 0.251867 0.009 0 0.251867 0.0108 0 0.251867 0.0126 0 0.251867 0.0144 0 0.251867 0.0162 0 0.251867 0.018 0 0.251867 0.0198 0 0.251867 0.0216 0 0.251867 0.0234 0 0.251867 0.0252 0 0.251867 0.027 0 0.253 0 0 0.253 0.0018 0 0.253 0.0036 0 0.253 0.0054 0 0.253 0.0072 0 0.253 0.009 0 0.253 0.0108 0 0.253 0.0126 0 0.253 0.0144 0 0.253 0.0162 0 0.253 0.018 0 0.253 0.0198 0 0.253 0.0216 0 0.253 0.0234 0 0.253 0.0252 0 0.253 0.027 0 
</DataArray>
</Points> 
</Piece> 
</StructuredGrid> 
</VTKFile> 
