<?xml version="1.0"?> 
<VTKFile type="StructuredGrid" version="0.1"> 
<StructuredGrid WholeExtent="0 15 0 15 0 0"> 
<Piece Extent="0 15 0 15 0 0"> 
<PointData>
<DataArray type="Float32" Name="E" format="ascii" NumberOfComponents="3"> 
-730761 399696 0 -708998 361871 0 -688423 327999 0 -668944 297428 0 -650477 269629 0 -632951 244173 0 -616302 220702 0 -600482 198917 0 -585463 178549 0 -571241 159373 0 -557852 141169 0 -545382 123773 0 -534045 107029 0 -524267 91018.8 0 -517164 75719.9 0 -514397 60796.6 0 -776336 518656 0 -753012 476544 0 -730809 438746 0 -709640 404585 0 -689433 373506 0 -670125 345058 0 -651664 318870 0 -634002 294636 0 -617095 272099 0 -600896 251035 0 -585357 231246 0 -570425 212559 0 -556044 194827 0 -542154 177944 0 -528676 161777 0 -515540 145966 0 -833996 641569 0 -809245 595523 0 -785545 554067 0 -762829 516515 0 -741035 482296 0 -720102 450940 0 -699978 422056 0 -680612 395318 0 -661964 370452 0 -644000 347232 0 -626700 325467 0 -610046 304991 0 -594017 285649 0 -578575 267282 0 -563671 249789 0 -549271 233262 0 -904180 767958 0 -878266 718539 0 -853270 673863 0 -829143 633254 0 -805846 596145 0 -783349 562066 0 -761629 530625 0 -740659 501493 0 -720409 474389 0 -700837 449074 0 -681895 425338 0 -663539 403008 0 -645745 381938 0 -628520 362014 0 -611890 343107 0 -595800 324989 0 -987218 896152 0 -960516 844159 0 -934597 796943 0 -909426 753856 0 -884962 714351 0 -861166 677972 0 -838003 644329 0 -815454 613087 0 -793517 583959 0 -772206 556698 0 -751544 531095 0 -731537 506978 0 -712151 484207 0 -693303 462658 0 -674905 442212 0 -657058 422713 0 -1.08336e+06 1.02279e+06 0 -1.0565e+06 969556 0 -1.0301e+06 920946 0 -1.0042e+06 876342 0 -978844 835224 0 -954061 797165 0 -929864 761817 0 -906239 728895 0 -883144 698159 0 -860521 669391 0 -838319 642379 0 -816530 616897 0 -795217 592715 0 -774508 569651 0 -754485 547693 0 -734860 527271 0 -1.19232e+06 1.13967e+06 0 -1.16655e+06 1.0872e+06 0 -1.14087e+06 1.03908e+06 0 -1.11529e+06 994768 0 -1.08981e+06 953802 0 -1.06448e+06 915746 0 -1.03934e+06 880208 0 -1.0145e+06 846839 0 -990054 815353 0 -966123 785548 0 -942767 757328 0 -919957 730700 0 -897549 705710 0 -875339 682272 0 -853277 659813 0 -831977 636640 0 -1.31297e+06 1.23608e+06 0 -1.28946e+06 1.18721e+06 0 -1.26555e+06 1.14189e+06 0 -1.24141e+06 1.09969e+06 0 -1.21717e+06 1.06034e+06 0 -1.19289e+06 1.02362e+06 0 -1.16859e+06 989359 0 -1.1442e+06 957400 0 -1.11968e+06 927527 0 -1.09497e+06 899424 0 -1.07016e+06 872652 0 -1.04543e+06 846699 0 -1.02112e+06 821154 0 -997549 796090 0 -974683 772774 0 -951361 754812 0 -1.44333e+06 1.28459e+06 0 -1.42552e+06 1.24557e+06 0 -1.40607e+06 1.20922e+06 0 -1.38518e+06 1.17506e+06 0 -1.3631e+06 1.14266e+06 0 -1.34011e+06 1.1116e+06 0 -1.31654e+06 1.08156e+06 0 -1.29271e+06 1.0524e+06 0 -1.26887e+06 1.02417e+06 0 -1.24519e+06 997184 0 -1.2216e+06 971944 0 -1.19785e+06 948968 0 -1.17357e+06 928386 0 -1.14852e+06 909207 0 -1.12313e+06 888108 0 -1.09955e+06 857671 0 -1.5772e+06 1.24782e+06 0 -1.56827e+06 1.22288e+06 0 -1.55715e+06 1.19931e+06 0 -1.54405e+06 1.17723e+06 0 -1.52911e+06 1.15678e+06 0 -1.51234e+06 1.13799e+06 0 -1.49371e+06 1.12069e+06 0 -1.47324e+06 1.10447e+06 0 -1.45101e+06 1.08859e+06 0 -1.42733e+06 1.07207e+06 0 -1.40271e+06 1.05384e+06 0 -1.37787e+06 1.03319e+06 0 -1.35351e+06 1.01052e+06 0 -1.32994e+06 988459 0 -1.30626e+06 973766 0 -1.27913e+06 979643 0 -1.70696e+06 1.0604e+06 0 -1.71354e+06 1.06747e+06 0 -1.71498e+06 1.07184e+06 0 -1.71204e+06 1.07333e+06 0 -1.70555e+06 1.07197e+06 0 -1.6963e+06 1.06805e+06 0 -1.68495e+06 1.06227e+06 0 -1.672e+06 1.05574e+06 0 -1.65768e+06 1.04988e+06 0 -1.6419e+06 1.04626e+06 0 -1.62426e+06 1.0461e+06 0 -1.60421e+06 1.04954e+06 0 -1.58134e+06 1.05446e+06 0 -1.55602e+06 1.05473e+06 0 -1.53036e+06 1.03789e+06 0 -1.50969e+06 982227 0 -1.81233e+06 558610 0 -1.84624e+06 612460 0 -1.87345e+06 664170 0 -1.89411e+06 713863 0 -1.90834e+06 761240 0 -1.9163e+06 805489 0 -1.91826e+06 845293 0 -1.91474e+06 878940 0 -1.90653e+06 904601 0 -1.89474e+06 920829 0 -1.88068e+06 927359 0 -1.8656e+06 926271 0 -1.85024e+06 923601 0 -1.83408e+06 931508 0 -1.8142e+06 971095 0 -1.78378e+06 1.07547e+06 0 -1.86065e+06 -364755 0 -1.93158e+06 -247126 0 -1.99104e+06 -141659 0 -2.04079e+06 -46462.9 0 -2.08241e+06 40853.2 0 -2.11719e+06 123102 0 -2.14606e+06 203365 0 -2.16949e+06 284660 0 -2.18747e+06 369384 0 -2.19964e+06 458493 0 -2.2054e+06 550370 0 -2.20434e+06 639313 0 -2.19679e+06 713614 0 -2.18467e+06 753177 0 -2.17264e+06 726559 0 -2.16958e+06 588158 0 -1.7744e+06 -2.23527e+06 0 -1.9156e+06 -1.9781e+06 0 -2.04492e+06 -1.73404e+06 0 -2.16041e+06 -1.50468e+06 0 -2.26075e+06 -1.29231e+06 0 -2.34541e+06 -1.09947e+06 0 -2.4146e+06 -928582 0 -2.46933e+06 -781270 0 -2.51127e+06 -657513 0 -2.54264e+06 -554552 0 -2.56588e+06 -465547 0 -2.58323e+06 -377924 0 -2.59611e+06 -271451 0 -2.60427e+06 -115991 0 -2.60477e+06 131152 0 -2.59075e+06 527225 0 -1.35553e+06 -4.21886e+06 0 -1.44259e+06 -4.09339e+06 0 -1.55601e+06 -3.95333e+06 0 -1.69255e+06 -3.79657e+06 0 -1.84845e+06 -3.62098e+06 0 -2.01935e+06 -3.42475e+06 0 -2.20025e+06 -3.20699e+06 0 -2.38547e+06 -2.96832e+06 0 -2.56873e+06 -2.71175e+06 0 -2.74317e+06 -2.44353e+06 0 -2.90157e+06 -2.17421e+06 0 -3.03655e+06 -1.91984e+06 0 -3.14096e+06 -1.70328e+06 0 -3.20834e+06 -1.55561e+06 0 -3.23347e+06 -1.51778e+06 0 -3.21304e+06 -1.64122e+06 0 -863918 -3.05038e+06 0 -797879 -3.0515e+06 0 -707252 -3.03673e+06 0 -600056 -3.00633e+06 0 -483912 -2.96627e+06 0 -367463 -2.92794e+06 0 -261603 -2.90889e+06 0 -180722 -2.93421e+06 0 -144036 -3.0382e+06 0 -177031 -3.26652e+06 0 -313052 -3.67854e+06 0 -595023 -4.34997e+06 0 -1.07729e+06 -5.37578e+06 0 -1.82759e+06 -6.87311e+06 0 -2.929e+06 -8.98434e+06 0 -4.48196e+06 -1.18799e+07 0 </DataArray> 
</PointData> 
<Points> 
<DataArray type="Float32" NumberOfComponents="3"> 
0.046 0.027 0 0.0437667 0.0286667 0 0.0415333 0.0303333 0 0.0393 0.032 0 0.0370667 0.0336667 0 0.0348333 0.0353333 0 0.0326 0.037 0 0.0303667 0.0386667 0 0.0281333 0.0403333 0 0.0259 0.042 0 0.0236667 0.0436667 0 0.0214333 0.0453333 0 0.0192 0.047 0 0.0169667 0.0486667 0 0.0147333 0.0503333 0 0.0125 0.052 0 0.0586667 0.027 0 0.0565222 0.0285911 0 0.0543778 0.0301822 0 0.0522333 0.0317733 0 0.0500889 0.0333644 0 0.0479444 0.0349556 0 0.0458 0.0365467 0 0.0436556 0.0381378 0 0.0415111 0.0397289 0 0.0393667 0.04132 0 0.0372222 0.0429111 0 0.0350778 0.0445022 0 0.0329333 0.0460933 0 0.0307889 0.0476844 0 0.0286444 0.0492756 0 0.0265 0.0508667 0 0.0713333 0.027 0 0.0692778 0.0285156 0 0.0672222 0.0300311 0 0.0651667 0.0315467 0 0.0631111 0.0330622 0 0.0610556 0.0345778 0 0.059 0.0360933 0 0.0569444 0.0376089 0 0.0548889 0.0391244 0 0.0528333 0.04064 0 0.0507778 0.0421556 0 0.0487222 0.0436711 0 0.0466667 0.0451867 0 0.0446111 0.0467022 0 0.0425556 0.0482178 0 0.0405 0.0497333 0 0.084 0.027 0 0.0820333 0.02844 0 0.0800667 0.02988 0 0.0781 0.03132 0 0.0761333 0.03276 0 0.0741667 0.0342 0 0.0722 0.03564 0 0.0702333 0.03708 0 0.0682667 0.03852 0 0.0663 0.03996 0 0.0643333 0.0414 0 0.0623667 0.04284 0 0.0604 0.04428 0 0.0584333 0.04572 0 0.0564667 0.04716 0 0.0545 0.0486 0 0.0966667 0.027 0 0.0947889 0.0283644 0 0.0929111 0.0297289 0 0.0910333 0.0310933 0 0.0891556 0.0324578 0 0.0872778 0.0338222 0 0.0854 0.0351867 0 0.0835222 0.0365511 0 0.0816444 0.0379156 0 0.0797667 0.03928 0 0.0778889 0.0406444 0 0.0760111 0.0420089 0 0.0741333 0.0433733 0 0.0722556 0.0447378 0 0.0703778 0.0461022 0 0.0685 0.0474667 0 0.109333 0.027 0 0.107544 0.0282889 0 0.105756 0.0295778 0 0.103967 0.0308667 0 0.102178 0.0321556 0 0.100389 0.0334444 0 0.0986 0.0347333 0 0.0968111 0.0360222 0 0.0950222 0.0373111 0 0.0932333 0.0386 0 0.0914444 0.0398889 0 0.0896556 0.0411778 0 0.0878667 0.0424667 0 0.0860778 0.0437556 0 0.0842889 0.0450444 0 0.0825 0.0463333 0 0.122 0.027 0 0.1203 0.0282133 0 0.1186 0.0294267 0 0.1169 0.03064 0 0.1152 0.0318533 0 0.1135 0.0330667 0 0.1118 0.03428 0 0.1101 0.0354933 0 0.1084 0.0367067 0 0.1067 0.03792 0 0.105 0.0391333 0 0.1033 0.0403467 0 0.1016 0.04156 0 0.0999 0.0427733 0 0.0982 0.0439867 0 0.0965 0.0452 0 0.134667 0.027 0 0.133056 0.0281378 0 0.131444 0.0292756 0 0.129833 0.0304133 0 0.128222 0.0315511 0 0.126611 0.0326889 0 0.125 0.0338267 0 0.123389 0.0349644 0 0.121778 0.0361022 0 0.120167 0.03724 0 0.118556 0.0383778 0 0.116944 0.0395156 0 0.115333 0.0406533 0 0.113722 0.0417911 0 0.112111 0.0429289 0 0.1105 0.0440667 0 0.147333 0.027 0 0.145811 0.0280622 0 0.144289 0.0291244 0 0.142767 0.0301867 0 0.141244 0.0312489 0 0.139722 0.0323111 0 0.1382 0.0333733 0 0.136678 0.0344356 0 0.135156 0.0354978 0 0.133633 0.03656 0 0.132111 0.0376222 0 0.130589 0.0386844 0 0.129067 0.0397467 0 0.127544 0.0408089 0 0.126022 0.0418711 0 0.1245 0.0429333 0 0.16 0.027 0 0.158567 0.0279867 0 0.157133 0.0289733 0 0.1557 0.02996 0 0.154267 0.0309467 0 0.152833 0.0319333 0 0.1514 0.03292 0 0.149967 0.0339067 0 0.148533 0.0348933 0 0.1471 0.03588 0 0.145667 0.0368667 0 0.144233 0.0378533 0 0.1428 0.03884 0 0.141367 0.0398267 0 0.139933 0.0408133 0 0.1385 0.0418 0 0.172667 0.027 0 0.171322 0.0279111 0 0.169978 0.0288222 0 0.168633 0.0297333 0 0.167289 0.0306444 0 0.165944 0.0315556 0 0.1646 0.0324667 0 0.163256 0.0333778 0 0.161911 0.0342889 0 0.160567 0.0352 0 0.159222 0.0361111 0 0.157878 0.0370222 0 0.156533 0.0379333 0 0.155189 0.0388444 0 0.153844 0.0397556 0 0.1525 0.0406667 0 0.185333 0.027 0 0.184078 0.0278356 0 0.182822 0.0286711 0 0.181567 0.0295067 0 0.180311 0.0303422 0 0.179056 0.0311778 0 0.1778 0.0320133 0 0.176544 0.0328489 0 0.175289 0.0336844 0 0.174033 0.03452 0 0.172778 0.0353556 0 0.171522 0.0361911 0 0.170267 0.0370267 0 0.169011 0.0378622 0 0.167756 0.0386978 0 0.1665 0.0395333 0 0.198 0.027 0 0.196833 0.02776 0 0.195667 0.02852 0 0.1945 0.02928 0 0.193333 0.03004 0 0.192167 0.0308 0 0.191 0.03156 0 0.189833 0.03232 0 0.188667 0.03308 0 0.1875 0.03384 0 0.186333 0.0346 0 0.185167 0.03536 0 0.184 0.03612 0 0.182833 0.03688 0 0.181667 0.03764 0 0.1805 0.0384 0 0.210667 0.027 0 0.209589 0.0276844 0 0.208511 0.0283689 0 0.207433 0.0290533 0 0.206356 0.0297378 0 0.205278 0.0304222 0 0.2042 0.0311067 0 0.203122 0.0317911 0 0.202044 0.0324756 0 0.200967 0.03316 0 0.199889 0.0338444 0 0.198811 0.0345289 0 0.197733 0.0352133 0 0.196656 0.0358978 0 0.195578 0.0365822 0 0.1945 0.0372667 0 0.223333 0.027 0 0.222344 0.0276089 0 0.221356 0.0282178 0 0.220367 0.0288267 0 0.219378 0.0294356 0 0.218389 0.0300444 0 0.2174 0.0306533 0 0.216411 0.0312622 0 0.215422 0.0318711 0 0.214433 0.03248 0 0.213444 0.0330889 0 0.212456 0.0336978 0 0.211467 0.0343067 0 0.210478 0.0349156 0 0.209489 0.0355244 0 0.2085 0.0361333 0 0.236 0.027 0 0.2351 0.0275333 0 0.2342 0.0280667 0 0.2333 0.0286 0 0.2324 0.0291333 0 0.2315 0.0296667 0 0.2306 0.0302 0 0.2297 0.0307333 0 0.2288 0.0312667 0 0.2279 0.0318 0 0.227 0.0323333 0 0.2261 0.0328667 0 0.2252 0.0334 0 0.2243 0.0339333 0 0.2234 0.0344667 0 0.2225 0.035 0 
</DataArray>
</Points> 
</Piece> 
</StructuredGrid> 
</VTKFile> 
