<?xml version="1.0"?> 
<VTKFile type="StructuredGrid" version="0.1"> 
<StructuredGrid WholeExtent="0 15 0 15 0 0"> 
<Piece Extent="0 15 0 15 0 0"> 
<PointData>
<DataArray type="Float32" Name="E" format="ascii" NumberOfComponents="3"> 
-660307 0 0 -646716 0 0 -633718 0 0 -621241 0 0 -609222 0 0 -597606 0 0 -586340 0 0 -575375 0 0 -564662 0 0 -554146 0 0 -543771 0 0 -533471 0 0 -523178 0 0 -512826 0 0 -502365 0 0 -491780 0 0 -660614 25604.7 0 -646991 23252.3 0 -633965 21142.6 0 -621463 19237.4 0 -609423 17506.6 0 -597788 15926.6 0 -586508 14479 0 -575533 13149.7 0 -564813 11927.5 0 -554293 10803.5 0 -543913 9768.57 0 -533607 8811.55 0 -523304 7915.76 0 -512934 7056.67 0 -502448 6202.56 0 -491834 5321.25 0 -661534 51222.3 0 -647815 46513 0 -634701 42287.7 0 -622122 38470.7 0 -610016 35001.8 0 -598327 31834 0 -587004 28931.1 0 -575998 26265.1 0 -565257 23814.9 0 -554724 21563.4 0 -544335 19494.5 0 -534015 17586.8 0 -523683 15807 0 -513261 14103.4 0 -502700 12407.7 0 -492000 10651.8 0 -663066 76875.6 0 -649178 69799 0 -635914 63446.1 0 -623202 57703.9 0 -610982 52482.4 0 -599198 47711.6 0 -587801 43337.3 0 -576742 39318.8 0 -565967 35626.3 0 -555417 32237.7 0 -545021 29133.1 0 -534688 26284.9 0 -524319 23644.1 0 -513818 21126.6 0 -503132 18616.9 0 -492281 16000.4 0 -665211 102603 0 -651075 93140.8 0 -637590 84641.7 0 -624683 76955 0 -612294 69960.3 0 -600369 63564.1 0 -588861 57694.4 0 -577720 52297.9 0 -566897 47337.7 0 -556329 42790.3 0 -545937 38638.5 0 -535611 34857.2 0 -525216 31386.8 0 -514621 28104.8 0 -503761 24827.9 0 -492692 21375.6 0 -667969 128454 0 -653501 116580 0 -639718 105911 0 -626548 96255.7 0 -613928 87463.5 0 -601808 79415.4 0 -590141 72020.4 0 -578883 65211.8 0 -567988 58946.1 0 -557397 53200.8 0 -547027 47970.4 0 -536746 43247.1 0 -526368 38978.8 0 -515690 35002.1 0 -504613 31033.6 0 -493245 26787.5 0 -671345 154482 0 -656460 140163 0 -642301 127295 0 -628793 115647 0 -615875 105032 0 -603495 95305.3 0 -591611 86354 0 -580185 78095.9 0 -569178 70477.9 0 -558544 63479.1 0 -548206 57109.1 0 -538023 51400.5 0 -527748 46343.5 0 -517045 41760.5 0 -505726 37215.5 0 -493972 32236.7 0 -675345 180730 0 -659962 163929 0 -645349 148834 0 -631430 135167 0 -618140 122708 0 -605431 111280 0 -593263 100746 0 -581603 91004.6 0 -570425 81989.9 0 -559699 73673.1 0 -549373 66079.5 0 -539331 59286.4 0 -529279 53394.4 0 -518699 48283 0 -507147 43340.1 0 -494891 37744.8 0 -679979 207226 0 -664023 187907 0 -648882 170555 0 -634478 154849 0 -620746 140525 0 -607637 127379 0 -595112 115244 0 -583145 103999 0 -571719 93551.5 0 -560825 83866.3 0 -550447 74957.3 0 -540523 66943.9 0 -530821 60056.6 0 -520609 54433.6 0 -508954 49332.3 0 -496075 43263.9 0 -685253 233982 0 -668656 212110 0 -652920 192475 0 -637964 174707 0 -623722 158505 0 -610144 143628 0 -597193 129885 0 -584843 117122 0 -573086 105232 0 -561932 94141 0 -551396 83863.4 0 -541492 74488.4 0 -532142 66358.5 0 -522651 60026.9 0 -511213 55054.3 0 -497544 48872.8 0 -691177 260996 0 -673876 236540 0 -657481 214596 0 -641910 194747 0 -627097 176652 0 -612988 160038 0 -599544 144679 0 -586743 130405 0 -574579 117065 0 -563066 104578 0 -552264 92886.6 0 -542219 82107.1 0 -533041 72464.1 0 -524488 64968.5 0 -514007 60216.2 0 -499474 54346.7 0 -697757 288260 0 -679690 261190 0 -662578 236913 0 -646335 214964 0 -630892 194964 0 -616196 176601 0 -602204 159635 0 -588890 143840 0 -576253 129076 0 -564306 115192 0 -553107 102127 0 -542812 89884 0 -533468 78714.1 0 -525654 69376.2 0 -517171 64379.2 0 -501918 60245.6 0 -704999 315768 0 -686106 286054 0 -668217 259419 0 -651247 235349 0 -635123 213427 0 -619788 193315 0 -605197 174720 0 -591323 157441 0 -578151 141230 0 -565719 126002 0 -554031 111586 0 -543325 97925.3 0 -533718 85224.2 0 -525736 73874.1 0 -520095 67136.2 0 -505300 66457.7 0 -712910 343512 0 -693127 311125 0 -674403 282105 0 -656651 255893 0 -639796 232035 0 -623776 210153 0 -608540 189951 0 -594062 171139 0 -580318 153572 0 -567320 136933 0 -555169 121260 0 -543799 106286 0 -533993 91981.8 0 -525173 78972.9 0 -521218 68735.2 0 -510387 75382 0 -721495 371489 0 -700756 336398 0 -681138 304967 0 -662549 276590 0 -644912 250774 0 -628160 227115 0 -612243 205275 0 -597115 184985 0 -582769 165961 0 -569186 148096 0 -556424 131029 0 -544665 114831 0 -533777 99410.5 0 -525479 83975.3 0 -518776 71366.1 0 -518665 81707.4 0 -730758 399699 0 -708997 361873 0 -688421 328002 0 -668939 297435 0 -650469 269640 0 -632942 244184 0 -616300 220704 0 -600492 198904 0 -585514 178480 0 -571270 159334 0 -558074 140870 0 -545235 123970 0 -534956 105809 0 -523162 92499.2 0 -519463 72638.8 0 -564647 -6537.56 0 </DataArray> 
</PointData> 
<Points> 
<DataArray type="Float32" NumberOfComponents="3"> 
0 0.027 0 0 0.0286667 0 0 0.0303333 0 0 0.032 0 0 0.0336667 0 0 0.0353333 0 0 0.037 0 0 0.0386667 0 0 0.0403333 0 0 0.042 0 0 0.0436667 0 0 0.0453333 0 0 0.047 0 0 0.0486667 0 0 0.0503333 0 0 0.052 0 0.00306667 0.027 0 0.00291778 0.0286667 0 0.00276889 0.0303333 0 0.00262 0.032 0 0.00247111 0.0336667 0 0.00232222 0.0353333 0 0.00217333 0.037 0 0.00202444 0.0386667 0 0.00187556 0.0403333 0 0.00172667 0.042 0 0.00157778 0.0436667 0 0.00142889 0.0453333 0 0.00128 0.047 0 0.00113111 0.0486667 0 0.000982222 0.0503333 0 0.000833333 0.052 0 0.00613333 0.027 0 0.00583556 0.0286667 0 0.00553778 0.0303333 0 0.00524 0.032 0 0.00494222 0.0336667 0 0.00464444 0.0353333 0 0.00434667 0.037 0 0.00404889 0.0386667 0 0.00375111 0.0403333 0 0.00345333 0.042 0 0.00315556 0.0436667 0 0.00285778 0.0453333 0 0.00256 0.047 0 0.00226222 0.0486667 0 0.00196444 0.0503333 0 0.00166667 0.052 0 0.0092 0.027 0 0.00875333 0.0286667 0 0.00830667 0.0303333 0 0.00786 0.032 0 0.00741333 0.0336667 0 0.00696667 0.0353333 0 0.00652 0.037 0 0.00607333 0.0386667 0 0.00562667 0.0403333 0 0.00518 0.042 0 0.00473333 0.0436667 0 0.00428667 0.0453333 0 0.00384 0.047 0 0.00339333 0.0486667 0 0.00294667 0.0503333 0 0.0025 0.052 0 0.0122667 0.027 0 0.0116711 0.0286667 0 0.0110756 0.0303333 0 0.01048 0.032 0 0.00988444 0.0336667 0 0.00928889 0.0353333 0 0.00869333 0.037 0 0.00809778 0.0386667 0 0.00750222 0.0403333 0 0.00690667 0.042 0 0.00631111 0.0436667 0 0.00571556 0.0453333 0 0.00512 0.047 0 0.00452444 0.0486667 0 0.00392889 0.0503333 0 0.00333333 0.052 0 0.0153333 0.027 0 0.0145889 0.0286667 0 0.0138444 0.0303333 0 0.0131 0.032 0 0.0123556 0.0336667 0 0.0116111 0.0353333 0 0.0108667 0.037 0 0.0101222 0.0386667 0 0.00937778 0.0403333 0 0.00863333 0.042 0 0.00788889 0.0436667 0 0.00714444 0.0453333 0 0.0064 0.047 0 0.00565556 0.0486667 0 0.00491111 0.0503333 0 0.00416667 0.052 0 0.0184 0.027 0 0.0175067 0.0286667 0 0.0166133 0.0303333 0 0.01572 0.032 0 0.0148267 0.0336667 0 0.0139333 0.0353333 0 0.01304 0.037 0 0.0121467 0.0386667 0 0.0112533 0.0403333 0 0.01036 0.042 0 0.00946667 0.0436667 0 0.00857333 0.0453333 0 0.00768 0.047 0 0.00678667 0.0486667 0 0.00589333 0.0503333 0 0.005 0.052 0 0.0214667 0.027 0 0.0204244 0.0286667 0 0.0193822 0.0303333 0 0.01834 0.032 0 0.0172978 0.0336667 0 0.0162556 0.0353333 0 0.0152133 0.037 0 0.0141711 0.0386667 0 0.0131289 0.0403333 0 0.0120867 0.042 0 0.0110444 0.0436667 0 0.0100022 0.0453333 0 0.00896 0.047 0 0.00791778 0.0486667 0 0.00687556 0.0503333 0 0.00583333 0.052 0 0.0245333 0.027 0 0.0233422 0.0286667 0 0.0221511 0.0303333 0 0.02096 0.032 0 0.0197689 0.0336667 0 0.0185778 0.0353333 0 0.0173867 0.037 0 0.0161956 0.0386667 0 0.0150044 0.0403333 0 0.0138133 0.042 0 0.0126222 0.0436667 0 0.0114311 0.0453333 0 0.01024 0.047 0 0.00904889 0.0486667 0 0.00785778 0.0503333 0 0.00666667 0.052 0 0.0276 0.027 0 0.02626 0.0286667 0 0.02492 0.0303333 0 0.02358 0.032 0 0.02224 0.0336667 0 0.0209 0.0353333 0 0.01956 0.037 0 0.01822 0.0386667 0 0.01688 0.0403333 0 0.01554 0.042 0 0.0142 0.0436667 0 0.01286 0.0453333 0 0.01152 0.047 0 0.01018 0.0486667 0 0.00884 0.0503333 0 0.0075 0.052 0 0.0306667 0.027 0 0.0291778 0.0286667 0 0.0276889 0.0303333 0 0.0262 0.032 0 0.0247111 0.0336667 0 0.0232222 0.0353333 0 0.0217333 0.037 0 0.0202444 0.0386667 0 0.0187556 0.0403333 0 0.0172667 0.042 0 0.0157778 0.0436667 0 0.0142889 0.0453333 0 0.0128 0.047 0 0.0113111 0.0486667 0 0.00982222 0.0503333 0 0.00833333 0.052 0 0.0337333 0.027 0 0.0320956 0.0286667 0 0.0304578 0.0303333 0 0.02882 0.032 0 0.0271822 0.0336667 0 0.0255444 0.0353333 0 0.0239067 0.037 0 0.0222689 0.0386667 0 0.0206311 0.0403333 0 0.0189933 0.042 0 0.0173556 0.0436667 0 0.0157178 0.0453333 0 0.01408 0.047 0 0.0124422 0.0486667 0 0.0108044 0.0503333 0 0.00916667 0.052 0 0.0368 0.027 0 0.0350133 0.0286667 0 0.0332267 0.0303333 0 0.03144 0.032 0 0.0296533 0.0336667 0 0.0278667 0.0353333 0 0.02608 0.037 0 0.0242933 0.0386667 0 0.0225067 0.0403333 0 0.02072 0.042 0 0.0189333 0.0436667 0 0.0171467 0.0453333 0 0.01536 0.047 0 0.0135733 0.0486667 0 0.0117867 0.0503333 0 0.01 0.052 0 0.0398667 0.027 0 0.0379311 0.0286667 0 0.0359956 0.0303333 0 0.03406 0.032 0 0.0321244 0.0336667 0 0.0301889 0.0353333 0 0.0282533 0.037 0 0.0263178 0.0386667 0 0.0243822 0.0403333 0 0.0224467 0.042 0 0.0205111 0.0436667 0 0.0185756 0.0453333 0 0.01664 0.047 0 0.0147044 0.0486667 0 0.0127689 0.0503333 0 0.0108333 0.052 0 0.0429333 0.027 0 0.0408489 0.0286667 0 0.0387644 0.0303333 0 0.03668 0.032 0 0.0345956 0.0336667 0 0.0325111 0.0353333 0 0.0304267 0.037 0 0.0283422 0.0386667 0 0.0262578 0.0403333 0 0.0241733 0.042 0 0.0220889 0.0436667 0 0.0200044 0.0453333 0 0.01792 0.047 0 0.0158356 0.0486667 0 0.0137511 0.0503333 0 0.0116667 0.052 0 0.046 0.027 0 0.0437667 0.0286667 0 0.0415333 0.0303333 0 0.0393 0.032 0 0.0370667 0.0336667 0 0.0348333 0.0353333 0 0.0326 0.037 0 0.0303667 0.0386667 0 0.0281333 0.0403333 0 0.0259 0.042 0 0.0236667 0.0436667 0 0.0214333 0.0453333 0 0.0192 0.047 0 0.0169667 0.0486667 0 0.0147333 0.0503333 0 0.0125 0.052 0 
</DataArray>
</Points> 
</Piece> 
</StructuredGrid> 
</VTKFile> 
