<?xml version="1.0"?> 
<VTKFile type="StructuredGrid" version="0.1"> 
<StructuredGrid WholeExtent="0 15 0 15 0 0"> 
<Piece Extent="0 15 0 15 0 0"> 
<PointData>
<DataArray type="Float32" Name="E" format="ascii" NumberOfComponents="3"> 
1.90735e-06 7.80999e+06 0 -3.39391e+06 5349.98 0 -4.13815e+06 -497294 0 -4.10963e+06 699054 0 -4.22695e+06 1.16398e+06 0 -3.98057e+06 1.86859e+06 0 -3.76326e+06 2.1989e+06 0 -3.47356e+06 2.48097e+06 0 -3.21003e+06 2.62281e+06 0 -2.95655e+06 2.70693e+06 0 -2.72822e+06 2.73673e+06 0 -2.52142e+06 2.73331e+06 0 -2.33561e+06 2.7053e+06 0 -2.16799e+06 2.66088e+06 0 -2.01635e+06 2.60501e+06 0 -1.87847e+06 2.54165e+06 0 -1.89757e-07 3.16233e+06 0 -3.47678e+06 -144627 0 -3.82617e+06 -197524 0 -4.26844e+06 214889 0 -4.21749e+06 1.09669e+06 0 -4.10969e+06 1.6498e+06 0 -3.8674e+06 2.10608e+06 0 -3.60214e+06 2.39667e+06 0 -3.33499e+06 2.57944e+06 0 -3.08174e+06 2.68549e+06 0 -2.85028e+06 2.7353e+06 0 -2.64058e+06 2.74807e+06 0 -2.45216e+06 2.73363e+06 0 -2.28261e+06 2.70116e+06 0 -2.12979e+06 2.65608e+06 0 -1.99154e+06 2.60273e+06 0 1.36904e-07 716818 0 -3.13242e+06 -5773.91 0 -3.76539e+06 -328739 0 -4.20243e+06 80999.4 0 -4.31261e+06 803518 0 -4.18185e+06 1.49872e+06 0 -3.99447e+06 1.95714e+06 0 -3.73223e+06 2.30156e+06 0 -3.47089e+06 2.51947e+06 0 -3.21825e+06 2.65199e+06 0 -2.98438e+06 2.72514e+06 0 -2.77231e+06 2.75588e+06 0 -2.58125e+06 2.75705e+06 0 -2.40975e+06 2.73785e+06 0 -2.25561e+06 2.70474e+06 0 -2.11683e+06 2.66234e+06 0 2.16067e-07 -293403 0 -2.54895e+06 210376 0 -3.72431e+06 -519283 0 -4.09956e+06 -50851.1 0 -4.36434e+06 544613 0 -4.27561e+06 1.26978e+06 0 -4.10681e+06 1.80469e+06 0 -3.87501e+06 2.17701e+06 0 -3.61596e+06 2.43925e+06 0 -3.36716e+06 2.60505e+06 0 -3.13246e+06 2.70265e+06 0 -2.91831e+06 2.7551e+06 0 -2.72509e+06 2.77386e+06 0 -2.55161e+06 2.76975e+06 0 -2.39617e+06 2.75002e+06 0 -2.25678e+06 2.71972e+06 0 -3.7998e-07 -473101 0 -1.87954e+06 373763 0 -3.55717e+06 -588898 0 -4.02338e+06 -269475 0 -4.34581e+06 331341 0 -4.374e+06 999216 0 -4.21875e+06 1.60851e+06 0 -4.01891e+06 2.03351e+06 0 -3.77442e+06 2.33194e+06 0 -3.52877e+06 2.53797e+06 0 -3.29643e+06 2.66621e+06 0 -3.08104e+06 2.7421e+06 0 -2.88622e+06 2.78194e+06 0 -2.71113e+06 2.79506e+06 0 -2.55443e+06 2.79051e+06 0 -2.41447e+06 2.77377e+06 0 8.04663e-07 -271104 0 -1.23908e+06 429782 0 -3.20025e+06 -504073 0 -3.94739e+06 -516424 0 -4.28498e+06 97366.6 0 -4.43869e+06 730770 0 -4.33821e+06 1.35824e+06 0 -4.16109e+06 1.85458e+06 0 -3.94368e+06 2.19892e+06 0 -3.70593e+06 2.44346e+06 0 -3.47743e+06 2.60986e+06 0 -3.26357e+06 2.71412e+06 0 -3.0678e+06 2.77758e+06 0 -2.89175e+06 2.81141e+06 0 -2.73419e+06 2.8243e+06 0 -2.5938e+06 2.82312e+06 0 -8.64267e-07 9205.53 0 -705234 380884 0 -2.65996e+06 -319068 0 -3.79702e+06 -691632 0 -4.20841e+06 -189323 0 -4.44961e+06 456470 0 -4.45052e+06 1.07446e+06 0 -4.30607e+06 1.62207e+06 0 -4.11835e+06 2.03053e+06 0 -3.90021e+06 2.31833e+06 0 -3.67808e+06 2.52518e+06 0 -3.46841e+06 2.6655e+06 0 -3.27412e+06 2.75688e+06 0 -3.0979e+06 2.81487e+06 0 -2.94021e+06 2.84867e+06 0 -2.79989e+06 2.86567e+06 0 7.59959e-07 194321 0 -319857 264683 0 -1.99776e+06 -119334 0 -3.49202e+06 -728818 0 -4.10546e+06 -489498 0 -4.41036e+06 142633 0 -4.52838e+06 767829 0 -4.45196e+06 1.33691e+06 0 -4.29692e+06 1.80838e+06 0 -4.1085e+06 2.15416e+06 0 -3.90189e+06 2.40519e+06 0 -3.69915e+06 2.58695e+06 0 -3.50948e+06 2.71357e+06 0 -3.33547e+06 2.80046e+06 0 -3.17878e+06 2.85939e+06 0 -3.03942e+06 2.89829e+06 0 -6.10948e-07 221599 0 -91342.2 130039 0 -1.31036e+06 24249.9 0 -2.98539e+06 -628805 0 -3.91875e+06 -720198 0 -4.32751e+06 -214819 0 -4.54987e+06 421610 0 -4.58008e+06 1.00681e+06 0 -4.47905e+06 1.52165e+06 0 -4.3271e+06 1.93281e+06 0 -4.14859e+06 2.23953e+06 0 -3.96093e+06 2.46817e+06 0 -3.7797e+06 2.63719e+06 0 -3.61134e+06 2.76041e+06 0 -3.45824e+06 2.8503e+06 0 -3.32143e+06 2.91628e+06 0 4.17233e-07 118122 0 2167.75 16818.2 0 -705472 81096.4 0 -2.29283e+06 -449817 0 -3.56375e+06 -813084 0 -4.17879e+06 -562288 0 -4.50494e+06 19696.3 0 -4.65948e+06 623787 0 -4.65207e+06 1.16848e+06 0 -4.55402e+06 1.63598e+06 0 -4.41538e+06 2.00825e+06 0 -4.25617e+06 2.29449e+06 0 -4.09227e+06 2.51405e+06 0 -3.93491e+06 2.68228e+06 0 -3.78948e+06 2.81157e+06 0 -3.65835e+06 2.91201e+06 0 -1.19209e-07 -24593.5 0 7786.09 -53205.9 0 -273070 61235.4 0 -1.50459e+06 -267286 0 -2.97404e+06 -760240 0 -3.89388e+06 -814736 0 -4.37704e+06 -410460 0 -4.66038e+06 170913 0 -4.78273e+06 739756 0 -4.77668e+06 1.25068e+06 0 -4.69903e+06 1.68647e+06 0 -4.58489e+06 2.04071e+06 0 -4.45328e+06 2.32289e+06 0 -4.31787e+06 2.54745e+06 0 -4.18767e+06 2.72731e+06 0 -4.06767e+06 2.87296e+06 0 5.96046e-08 -97797.5 0 -14139.3 -71226.2 0 -52253.3 -1620.65 0 -771666 -132585 0 -2.15862e+06 -611895 0 -3.37186e+06 -913820 0 -4.10722e+06 -789291 0 -4.55087e+06 -339029 0 -4.82581e+06 216602 0 -4.95759e+06 757780 0 -4.98277e+06 1.24778e+06 0 -4.94317e+06 1.67223e+06 0 -4.86708e+06 2.0288e+06 0 -4.77267e+06 2.32476e+06 0 -4.67237e+06 2.57085e+06 0 -4.57446e+06 2.77729e+06 0 -1.49012e-07 -46743 0 -15982.6 -36064.4 0 -3752.9 -65491.8 0 -253518 -56238.9 0 -1.24594e+06 -427798 0 -2.55004e+06 -863572 0 -3.58057e+06 -1.03033e+06 0 -4.25968e+06 -834579 0 -4.7222e+06 -395135 0 -5.03376e+06 129933 0 -5.21837e+06 653720 0 -5.3064e+06 1.14125e+06 0 -5.32915e+06 1.57804e+06 0 -5.31074e+06 1.96105e+06 0 -5.26845e+06 2.29432e+06 0 -5.21455e+06 2.5848e+06 0 1.78814e-07 30734.8 0 3424.62 27513.8 0 -17727.2 -78350 0 -25563.1 -23381 0 -473644 -232985 0 -1.50709e+06 -693138 0 -2.68368e+06 -1.08978e+06 0 -3.64403e+06 -1.2123e+06 0 -4.35958e+06 -1.02794e+06 0 -4.90317e+06 -634053 0 -5.31224e+06 -143439 0 -5.60517e+06 374010 0 -5.80312e+06 881839 0 -5.92876e+06 1.36176e+06 0 -6.0021e+06 1.80636e+06 0 -6.0393e+06 2.21457e+06 0 5.96046e-08 27829.2 0 10069.9 53944.6 0 -13684.5 -44150.4 0 8182.19 4178.99 0 -55144.9 -37307.3 0 -539168 -399760 0 -1.47339e+06 -941401 0 -2.55277e+06 -1.38501e+06 0 -3.5351e+06 -1.56588e+06 0 -4.3698e+06 -1.46855e+06 0 -5.07928e+06 -1.1615e+06 0 -5.6785e+06 -721713 0 -6.17326e+06 -205134 0 -6.57076e+06 350881 0 -6.88144e+06 921649 0 -7.11749e+06 1.49111e+06 0 -3.09944e-06 -5.24288e+07 0 2606.82 27046.9 0 -17529.4 -88473.5 0 -24684.9 -80307.6 0 -10777 -25242.6 0 -33914.6 -60490.5 0 -324912 -455031 0 -1.04274e+06 -1.16475e+06 0 -2.0516e+06 -1.83669e+06 0 -3.13442e+06 -2.23812e+06 0 -4.18586e+06 -2.34684e+06 0 -5.18917e+06 -2.21544e+06 0 -6.14049e+06 -1.88745e+06 0 -7.02494e+06 -1.39187e+06 0 -7.82162e+06 -753858 0 -8.51101e+06 1.66893e-06 0 </DataArray> 
</PointData> 
<Points> 
<DataArray type="Float32" NumberOfComponents="3"> 
0.2225 0.045 0 0.22 0.0463333 0 0.2175 0.0476667 0 0.215 0.049 0 0.2125 0.0503333 0 0.21 0.0516667 0 0.2075 0.053 0 0.205 0.0543333 0 0.2025 0.0556667 0 0.2 0.057 0 0.1975 0.0583333 0 0.195 0.0596667 0 0.1925 0.061 0 0.19 0.0623333 0 0.1875 0.0636667 0 0.185 0.065 0 0.223 0.045 0 0.220582 0.0462504 0 0.218159 0.0475121 0 0.215733 0.0487836 0 0.213307 0.0500639 0 0.210884 0.0513514 0 0.208465 0.052645 0 0.206054 0.0539432 0 0.203653 0.0552448 0 0.201264 0.0565482 0 0.198891 0.0578523 0 0.196535 0.0591555 0 0.194199 0.0604566 0 0.191885 0.0617541 0 0.189596 0.0630468 0 0.187333 0.0643333 0 0.2235 0.045 0 0.221167 0.0461672 0 0.218824 0.0473561 0 0.216476 0.0485645 0 0.214127 0.0497902 0 0.211783 0.0510306 0 0.209449 0.0522832 0 0.207129 0.0535454 0 0.204829 0.0548145 0 0.202553 0.0560878 0 0.200306 0.0573627 0 0.198094 0.0586364 0 0.195919 0.0599063 0 0.193787 0.0611696 0 0.191702 0.0624239 0 0.189667 0.0636667 0 0.224 0.045 0 0.221755 0.0460835 0 0.219495 0.0471987 0 0.217228 0.0483427 0 0.21496 0.0495123 0 0.212699 0.0507041 0 0.210452 0.0519144 0 0.208226 0.0531396 0 0.206028 0.0543756 0 0.203866 0.0556186 0 0.201747 0.0568644 0 0.199677 0.0581092 0 0.197661 0.059349 0 0.195707 0.0605798 0 0.193818 0.061798 0 0.192 0.063 0 0.2245 0.045 0 0.222346 0.0459993 0 0.220173 0.0470398 0 0.21799 0.0481179 0 0.215806 0.04923 0 0.213631 0.0503717 0 0.211474 0.0515385 0 0.209344 0.0527255 0 0.207252 0.0539278 0 0.205205 0.0551402 0 0.203214 0.0563572 0 0.201285 0.0575737 0 0.199426 0.0587845 0 0.197644 0.0599846 0 0.195945 0.061169 0 0.194333 0.0623333 0 0.225 0.045 0 0.222939 0.0459148 0 0.220856 0.0468794 0 0.218761 0.0478903 0 0.216665 0.0489432 0 0.21458 0.0500332 0 0.212516 0.0511551 0 0.210486 0.0523031 0 0.2085 0.0534709 0 0.206571 0.0546523 0 0.204707 0.0558408 0 0.202918 0.0570297 0 0.201213 0.0582128 0 0.199599 0.0593838 0 0.198082 0.0605369 0 0.196667 0.0616667 0 0.2255 0.045 0 0.223536 0.0458299 0 0.221546 0.0467176 0 0.219543 0.0476597 0 0.217538 0.0486518 0 0.215546 0.0496886 0 0.213579 0.0507641 0 0.211651 0.0518719 0 0.209775 0.0530046 0 0.207963 0.0541548 0 0.206227 0.0553149 0 0.204578 0.056477 0 0.203024 0.0576336 0 0.201572 0.0587775 0 0.20023 0.0599017 0 0.199 0.061 0 0.226 0.045 0 0.224136 0.0457445 0 0.222243 0.0465543 0 0.220335 0.0474261 0 0.218425 0.0483557 0 0.21653 0.0493376 0 0.214663 0.0503653 0 0.21284 0.0514317 0 0.211076 0.0525285 0 0.209383 0.0536473 0 0.207776 0.0547793 0 0.206264 0.0559154 0 0.204858 0.0570469 0 0.203564 0.0581655 0 0.202388 0.0592634 0 0.201333 0.0603333 0 0.2265 0.045 0 0.224738 0.0456587 0 0.222946 0.0463894 0 0.221137 0.0471894 0 0.219327 0.0480548 0 0.217532 0.04898 0 0.215769 0.0499585 0 0.214055 0.0509822 0 0.212404 0.0520424 0 0.210833 0.0531296 0 0.209353 0.0542337 0 0.207978 0.0553446 0 0.206716 0.0564525 0 0.205574 0.0575478 0 0.204557 0.0586218 0 0.203667 0.0596667 0 0.227 0.045 0 0.225344 0.0455725 0 0.223655 0.046223 0 0.22195 0.0469496 0 0.220243 0.0477489 0 0.218554 0.0486157 0 0.216898 0.0495432 0 0.215295 0.0505232 0 0.213761 0.051546 0 0.212311 0.0526012 0 0.210961 0.0536778 0 0.20972 0.0547645 0 0.208599 0.0558502 0 0.207603 0.0569243 0 0.206737 0.0579771 0 0.206 0.059 0 0.2275 0.045 0 0.225952 0.0454859 0 0.224371 0.046055 0 0.222773 0.0467066 0 0.221175 0.047438 0 0.219594 0.0482445 0 0.218051 0.0491194 0 0.216562 0.0500542 0 0.215147 0.0510388 0 0.213821 0.0520619 0 0.212598 0.0531113 0 0.211491 0.0541747 0 0.210507 0.0552398 0 0.209652 0.0562949 0 0.208927 0.0573292 0 0.208333 0.0583333 0 0.228 0.045 0 0.226564 0.0453988 0 0.225094 0.0458854 0 0.223608 0.0464604 0 0.222122 0.047122 0 0.220655 0.0478662 0 0.219227 0.0486868 0 0.217857 0.0495751 0 0.216563 0.0505206 0 0.215362 0.0515113 0 0.214268 0.052534 0 0.213291 0.0535752 0 0.21244 0.0546213 0 0.211719 0.0556595 0 0.211129 0.0566781 0 0.210667 0.0576667 0 0.2285 0.045 0 0.227178 0.0453113 0 0.225824 0.0457142 0 0.224454 0.0462108 0 0.223085 0.0468006 0 0.221736 0.0474805 0 0.220428 0.048245 0 0.21918 0.0490854 0 0.21801 0.049991 0 0.216935 0.0509491 0 0.215969 0.0519455 0 0.215122 0.0529655 0 0.2144 0.0539944 0 0.213807 0.0550181 0 0.213341 0.0560237 0 0.213 0.057 0 0.229 0.045 0 0.227796 0.0452234 0 0.226561 0.0455414 0 0.225311 0.0459578 0 0.224064 0.0464737 0 0.222839 0.0470873 0 0.221655 0.0477937 0 0.220532 0.0485848 0 0.21949 0.0494496 0 0.218542 0.0503749 0 0.217704 0.0513455 0 0.216983 0.0523456 0 0.216386 0.053359 0 0.215914 0.0543705 0 0.215565 0.055366 0 0.215333 0.0563333 0 0.2295 0.045 0 0.228417 0.045135 0 0.227305 0.0453669 0 0.226181 0.0457014 0 0.22506 0.0461413 0 0.223963 0.0466864 0 0.222908 0.0473328 0 0.221915 0.048073 0 0.221002 0.0488961 0 0.220184 0.0497883 0 0.219473 0.0507337 0 0.218877 0.051715 0 0.2184 0.0527149 0 0.218042 0.0537166 0 0.2178 0.054705 0 0.217667 0.0556667 0 0.23 0.045 0 0.229041 0.0450461 0 0.228056 0.0451907 0 0.227062 0.0454414 0 0.226074 0.0458031 0 0.22511 0.0462774 0 0.224189 0.0468617 0 0.22333 0.0475495 0 0.222549 0.0483299 0 0.221862 0.0491889 0 0.221277 0.0501096 0 0.220803 0.0510735 0 0.220441 0.0520619 0 0.220191 0.0530565 0 0.220046 0.0540406 0 0.22 0.055 0 
</DataArray>
</Points> 
</Piece> 
</StructuredGrid> 
</VTKFile> 
