<?xml version="1.0"?> 
<VTKFile type="StructuredGrid" version="0.1"> 
<StructuredGrid WholeExtent="0 15 0 15 0 0"> 
<Piece Extent="0 15 0 15 0 0"> 
<PointData>
<DataArray type="Float32" Name="E" format="ascii" NumberOfComponents="3"> 
4.17233e-07 5.88246e+06 0 -1.58597e+06 650484 0 -1.36393e+06 365194 0 -1.19879e+06 245626 0 -1.12603e+06 125481 0 -1.10177e+06 -7848.8 0 -1.09245e+06 -127793 0 -1.09106e+06 -240957 0 -1.09283e+06 -345519 0 -1.09889e+06 -448264 0 -1.11011e+06 -553079 0 -1.12868e+06 -666009 0 -1.15804e+06 -794687 0 -1.20405e+06 -952599 0 -1.27385e+06 -1.1662e+06 0 -1.34957e+06 -1.61025e+06 0 4.30155e-08 866272 0 -185988 813096 0 -487576 844963 0 -687429 694637 0 -799926 503744 0 -857190 323986 0 -884004 169892 0 -894826 39177.8 0 -898024 -74427 0 -897662 -177008 0 -895647 -273190 0 -892562 -366717 0 -888050 -460701 0 -880971 -558463 0 -869014 -664447 0 -850399 -786559 0 -3.53903e-08 288424 0 -52221.3 502256 0 -119176 464855 0 -223486 490839 0 -339405 486434 0 -445946 438576 0 -532384 359931 0 -597143 266428 0 -642658 169217 0 -672864 74236.7 0 -691499 -16371.9 0 -701557 -102396 0 -705167 -184657 0 -703624 -264224 0 -697450 -341918 0 -685879 -416826 0 1.21072e-08 344224 0 -25852.7 269050 0 -62618.6 321382 0 -100656 316636 0 -145070 312771 0 -197251 311316 0 -255080 302174 0 -313553 279764 0 -368290 243469 0 -416256 196007 0 -456000 140968 0 -487230 81550.5 0 -510352 20139.1 0 -526098 -41775.3 0 -535281 -103524 0 -538772 -165522 0 7.07805e-08 147023 0 -16466 198652 0 -31114.3 190002 0 -51952.2 208284 0 -76518.1 216996 0 -103423 216404 0 -131884 212313 0 -162381 205993 0 -194642 196697 0 -227825 182774 0 -260643 163278 0 -291774 138099 0 -320101 107813 0 -344815 73375.5 0 -365411 35905.3 0 -381609 -3364.09 0 -1.83471e-07 145387 0 -8030.27 131376 0 -20505.2 142078 0 -31640.8 139284 0 -43618.5 141502 0 -57349.2 146066 0 -73236.6 148446 0 -90513.8 147956 0 -108768 144778 0 -127713 139522 0 -147195 132295 0 -166993 122936 0 -186779 111162 0 -206134 96764.6 0 -224598 79668.6 0 -241732 59913.4 0 2.32831e-07 83383.8 0 -6474.43 94107.9 0 -11368.4 94789.8 0 -18765.5 100322 0 -26925.7 101995 0 -35402.3 101840 0 -44019 102126 0 -53293.4 102497 0 -63348.4 102436 0 -74158.3 101333 0 -85551.4 98996.8 0 -97357 95390.7 0 -109424 90554.4 0 -121620 84501.9 0 -133814 77221.5 0 -145859 68698 0 -2.66358e-07 69216.9 0 -3331.76 67632.3 0 -8276.64 69408.2 0 -12266.8 69284.7 0 -16640.2 70740.4 0 -21583.6 72402.8 0 -27142.5 73092.5 0 -32961.2 73145.5 0 -38980.4 72767.4 0 -45206.5 72152.7 0 -51701.8 71235.6 0 -58488 69905 0 -65546.8 68039.6 0 -72826.7 65561.6 0 -80261.9 62425.2 0 -87780.9 58607.5 0 2.57045e-07 46281.2 0 -2697.66 48433.7 0 -4820.64 49375.5 0 -7891.85 50643.7 0 -11005.3 51006.6 0 -14129.6 51138.7 0 -17276.7 51514.2 0 -20659.8 51835.7 0 -24279.8 51970.1 0 -28105 51805.5 0 -32077.3 51363.9 0 -36166.8 50669.1 0 -40362.3 49739.4 0 -44662.6 48566.6 0 -49064.6 47129.7 0 -53558.4 45402.7 0 -9.68575e-08 35192.7 0 -1554.28 35294.9 0 -3576.45 35646 0 -5226.28 35902.8 0 -7071.88 36386.4 0 -9086.07 36799.2 0 -11244.6 36949.4 0 -13427.8 36986.2 0 -15648.1 36946.2 0 -17926 36852.2 0 -20287.9 36669.6 0 -22738 36370.8 0 -25268.2 35934.8 0 -27864.8 35353.8 0 -30515.3 34624.8 0 -33209.6 33746.7 0 -1.86265e-08 24805.5 0 -1189.95 25239.2 0 -2224.56 25577.9 0 -3544.4 25837.3 0 -4820.58 25972.5 0 -6091.82 26071.5 0 -7377.24 26190.5 0 -8736.42 26261.6 0 -10152.9 26268.9 0 -11610.6 26202.7 0 -13093.4 26072 0 -14598.5 25881.3 0 -16128 25631.4 0 -17685.1 25318.6 0 -19270.6 24937.6 0 -20883.1 24483.6 0 5.96046e-08 17752.6 0 -763.074 17892.1 0 -1636.08 18010.4 0 -2399.35 18133 0 -3230.43 18238.4 0 -4097.09 18317.4 0 -4986.46 18355.8 0 -5869.78 18365.8 0 -6758.11 18349.8 0 -7659.42 18306.6 0 -8579.49 18233.1 0 -9516.89 18126 0 -10467.8 17983.8 0 -11428.6 17805.3 0 -12396.8 17590.2 0 -13371.2 17337.8 0 -1.41561e-07 12065.6 0 -572.265 12149.5 0 -1106.32 12226.7 0 -1705.71 12284.7 0 -2280.26 12342.5 0 -2850.5 12379.9 0 -3423.09 12395.2 0 -4009.78 12397.8 0 -4603.2 12385.3 0 -5198.56 12358.5 0 -5792.98 12313.8 0 -6386.97 12251.1 0 -6981.84 12169.8 0 -7578.4 12070.2 0 -8176.63 11952 0 -8775.83 11815.3 0 1.49012e-07 7465.56 0 -409.712 7532.09 0 -836.436 7587.49 0 -1235.07 7626.3 0 -1646.78 7640.19 0 -2060 7655.04 0 -2471.04 7675.61 0 -2875.4 7682.56 0 -3276.51 7678.38 0 -3676.24 7661.93 0 -4075.11 7637.97 0 -4472.28 7606.53 0 -4866.69 7567.78 0 -5257.65 7520.47 0 -5644.87 7463.96 0 -6028.3 7397.77 0 -8.9407e-08 3616.97 0 -323.883 3621.56 0 -640.168 3624.41 0 -960.138 3640.81 0 -1272.36 3670.85 0 -1580.45 3687.6 0 -1885.78 3685.35 0 -2188.48 3686.73 0 -2487.56 3688.3 0 -2782.22 3690.74 0 -3072.52 3688.42 0 -3358.56 3681.12 0 -3640.53 3668.65 0 -3918.37 3652.29 0 -4191.95 3632.67 0 -4461.08 3610.16 0 -5.96046e-08 9.53674e-07 0 -272.94 -2.98955e-07 0 -525.07 -1.67638e-08 0 -801.539 -8.23289e-07 0 -1058.46 1.78814e-06 0 -1310.19 -2.41399e-06 0 -1559.27 3.18885e-06 0 -1810.31 -3.54648e-06 0 -2058.53 2.95043e-06 0 -2302.11 -1.66893e-06 0 -2540.32 1.3113e-06 0 -2774.06 -1.13249e-06 0 -3004.21 -1.19209e-07 0 -3231.17 3.57628e-07 0 -3454.88 -7.15256e-07 0 -3675.02 5.72205e-06 0 </DataArray> 
</PointData> 
<Points> 
<DataArray type="Float32" NumberOfComponents="3"> 
0.264 0.0175 0 0.263267 0.0181333 0 0.262533 0.0187667 0 0.2618 0.0194 0 0.261067 0.0200333 0 0.260333 0.0206667 0 0.2596 0.0213 0 0.258867 0.0219333 0 0.258133 0.0225667 0 0.2574 0.0232 0 0.256667 0.0238333 0 0.255933 0.0244667 0 0.2552 0.0251 0 0.254467 0.0257333 0 0.253733 0.0263667 0 0.253 0.027 0 0.266533 0.0175 0 0.265849 0.018104 0 0.265164 0.018708 0 0.26448 0.019312 0 0.263796 0.019916 0 0.263111 0.02052 0 0.262427 0.021124 0 0.261742 0.021728 0 0.261058 0.022332 0 0.260373 0.022936 0 0.259689 0.02354 0 0.259004 0.024144 0 0.25832 0.024748 0 0.257636 0.025352 0 0.256951 0.025956 0 0.256267 0.02656 0 0.269067 0.0175 0 0.268431 0.0180747 0 0.267796 0.0186493 0 0.26716 0.019224 0 0.266524 0.0197987 0 0.265889 0.0203733 0 0.265253 0.020948 0 0.264618 0.0215227 0 0.263982 0.0220973 0 0.263347 0.022672 0 0.262711 0.0232467 0 0.262076 0.0238213 0 0.26144 0.024396 0 0.260804 0.0249707 0 0.260169 0.0255453 0 0.259533 0.02612 0 0.2716 0.0175 0 0.271013 0.0180453 0 0.270427 0.0185907 0 0.26984 0.019136 0 0.269253 0.0196813 0 0.268667 0.0202267 0 0.26808 0.020772 0 0.267493 0.0213173 0 0.266907 0.0218627 0 0.26632 0.022408 0 0.265733 0.0229533 0 0.265147 0.0234987 0 0.26456 0.024044 0 0.263973 0.0245893 0 0.263387 0.0251347 0 0.2628 0.02568 0 0.274133 0.0175 0 0.273596 0.018016 0 0.273058 0.018532 0 0.27252 0.019048 0 0.271982 0.019564 0 0.271444 0.02008 0 0.270907 0.020596 0 0.270369 0.021112 0 0.269831 0.021628 0 0.269293 0.022144 0 0.268756 0.02266 0 0.268218 0.023176 0 0.26768 0.023692 0 0.267142 0.024208 0 0.266604 0.024724 0 0.266067 0.02524 0 0.276667 0.0175 0 0.276178 0.0179867 0 0.275689 0.0184733 0 0.2752 0.01896 0 0.274711 0.0194467 0 0.274222 0.0199333 0 0.273733 0.02042 0 0.273244 0.0209067 0 0.272756 0.0213933 0 0.272267 0.02188 0 0.271778 0.0223667 0 0.271289 0.0228533 0 0.2708 0.02334 0 0.270311 0.0238267 0 0.269822 0.0243133 0 0.269333 0.0248 0 0.2792 0.0175 0 0.27876 0.0179573 0 0.27832 0.0184147 0 0.27788 0.018872 0 0.27744 0.0193293 0 0.277 0.0197867 0 0.27656 0.020244 0 0.27612 0.0207013 0 0.27568 0.0211587 0 0.27524 0.021616 0 0.2748 0.0220733 0 0.27436 0.0225307 0 0.27392 0.022988 0 0.27348 0.0234453 0 0.27304 0.0239027 0 0.2726 0.02436 0 0.281733 0.0175 0 0.281342 0.017928 0 0.280951 0.018356 0 0.28056 0.018784 0 0.280169 0.019212 0 0.279778 0.01964 0 0.279387 0.020068 0 0.278996 0.020496 0 0.278604 0.020924 0 0.278213 0.021352 0 0.277822 0.02178 0 0.277431 0.022208 0 0.27704 0.022636 0 0.276649 0.023064 0 0.276258 0.023492 0 0.275867 0.02392 0 0.284267 0.0175 0 0.283924 0.0178987 0 0.283582 0.0182973 0 0.28324 0.018696 0 0.282898 0.0190947 0 0.282556 0.0194933 0 0.282213 0.019892 0 0.281871 0.0202907 0 0.281529 0.0206893 0 0.281187 0.021088 0 0.280844 0.0214867 0 0.280502 0.0218853 0 0.28016 0.022284 0 0.279818 0.0226827 0 0.279476 0.0230813 0 0.279133 0.02348 0 0.2868 0.0175 0 0.286507 0.0178693 0 0.286213 0.0182387 0 0.28592 0.018608 0 0.285627 0.0189773 0 0.285333 0.0193467 0 0.28504 0.019716 0 0.284747 0.0200853 0 0.284453 0.0204547 0 0.28416 0.020824 0 0.283867 0.0211933 0 0.283573 0.0215627 0 0.28328 0.021932 0 0.282987 0.0223013 0 0.282693 0.0226707 0 0.2824 0.02304 0 0.289333 0.0175 0 0.289089 0.01784 0 0.288844 0.01818 0 0.2886 0.01852 0 0.288356 0.01886 0 0.288111 0.0192 0 0.287867 0.01954 0 0.287622 0.01988 0 0.287378 0.02022 0 0.287133 0.02056 0 0.286889 0.0209 0 0.286644 0.02124 0 0.2864 0.02158 0 0.286156 0.02192 0 0.285911 0.02226 0 0.285667 0.0226 0 0.291867 0.0175 0 0.291671 0.0178107 0 0.291476 0.0181213 0 0.29128 0.018432 0 0.291084 0.0187427 0 0.290889 0.0190533 0 0.290693 0.019364 0 0.290498 0.0196747 0 0.290302 0.0199853 0 0.290107 0.020296 0 0.289911 0.0206067 0 0.289716 0.0209173 0 0.28952 0.021228 0 0.289324 0.0215387 0 0.289129 0.0218493 0 0.288933 0.02216 0 0.2944 0.0175 0 0.294253 0.0177813 0 0.294107 0.0180627 0 0.29396 0.018344 0 0.293813 0.0186253 0 0.293667 0.0189067 0 0.29352 0.019188 0 0.293373 0.0194693 0 0.293227 0.0197507 0 0.29308 0.020032 0 0.292933 0.0203133 0 0.292787 0.0205947 0 0.29264 0.020876 0 0.292493 0.0211573 0 0.292347 0.0214387 0 0.2922 0.02172 0 0.296933 0.0175 0 0.296836 0.017752 0 0.296738 0.018004 0 0.29664 0.018256 0 0.296542 0.018508 0 0.296444 0.01876 0 0.296347 0.019012 0 0.296249 0.019264 0 0.296151 0.019516 0 0.296053 0.019768 0 0.295956 0.02002 0 0.295858 0.020272 0 0.29576 0.020524 0 0.295662 0.020776 0 0.295564 0.021028 0 0.295467 0.02128 0 0.299467 0.0175 0 0.299418 0.0177227 0 0.299369 0.0179453 0 0.29932 0.018168 0 0.299271 0.0183907 0 0.299222 0.0186133 0 0.299173 0.018836 0 0.299124 0.0190587 0 0.299076 0.0192813 0 0.299027 0.019504 0 0.298978 0.0197267 0 0.298929 0.0199493 0 0.29888 0.020172 0 0.298831 0.0203947 0 0.298782 0.0206173 0 0.298733 0.02084 0 0.302 0.0175 0 0.302 0.0176933 0 0.302 0.0178867 0 0.302 0.01808 0 0.302 0.0182733 0 0.302 0.0184667 0 0.302 0.01866 0 0.302 0.0188533 0 0.302 0.0190467 0 0.302 0.01924 0 0.302 0.0194333 0 0.302 0.0196267 0 0.302 0.01982 0 0.302 0.0200133 0 0.302 0.0202067 0 0.302 0.0204 0 
</DataArray>
</Points> 
</Piece> 
</StructuredGrid> 
</VTKFile> 
