<?xml version="1.0"?> 
<VTKFile type="StructuredGrid" version="0.1"> 
<StructuredGrid WholeExtent="0 15 0 15 0 0"> 
<Piece Extent="0 15 0 15 0 0"> 
<PointData>
<DataArray type="Float32" Name="E" format="ascii" NumberOfComponents="3"> 
-905283 8.3775 0 -904276 5217.59 0 -901142 10882.9 0 -895551 17429.6 0 -886915 25222.2 0 -874308 34524.6 0 -856464 45229.7 0 -831788 56833.6 0 -798666 67774.9 0 -755952 76062.8 0 -703277 78377.1 0 -642226 72662 0 -571559 55865.3 0 -497062 25172.9 0 -396547 -22424 0 -155228 -227322 0 -909797 5.3196 0 -908962 5850.06 0 -906359 12198.7 0 -901681 19542.9 0 -894364 28348.4 0 -883499 39012.2 0 -867772 51651.9 0 -845439 65966.3 0 -814525 80679.7 0 -773401 93686.7 0 -721320 101678 0 -659338 101931 0 -588102 91844.2 0 -509160 70750.6 0 -414110 36142.7 0 -276448 -11310.2 0 -914883 4.51599 0 -914230 6332.33 0 -912185 13204 0 -908472 21165.2 0 -902573 30773.1 0 -893627 42558.5 0 -880321 56873.2 0 -860798 73681.4 0 -832768 92058.5 0 -794008 109944 0 -743249 123935 0 -681071 130585 0 -609170 127285 0 -529007 113754 0 -437856 90956.5 0 -324169 66209.7 0 -920439 4.7777 0 -919973 6655.52 0 -918502 13878.5 0 -915791 22260.3 0 -911387 32433.6 0 -904507 45058.2 0 -893895 60716 0 -877658 79696 0 -853230 101503 0 -817779 124327 0 -769218 144670 0 -707588 158294 0 -635078 161944 0 -554377 155144 0 -465800 140110 0 -365177 123361 0 -926351 4.53215 0 -926071 6813.32 0 -925176 14207.9 0 -923483 22800.7 0 -920615 33281.4 0 -915906 46421.4 0 -908217 63019.8 0 -895702 83724 0 -875641 108563 0 -844575 136215 0 -799400 163253 0 -739153 184610 0 -666216 195774 0 -584654 195439 0 -497255 186097 0 -403631 173526 0 -932478 4.17577 0 -932384 6802.67 0 -932061 14184.9 0 -931373 22771.4 0 -930048 33286.1 0 -927555 46583.7 0 -922935 63654.8 0 -914517 85501.6 0 -899545 112768 0 -874118 144872 0 -833821 178836 0 -776237 208865 0 -703133 228641 0 -620077 235191 0 -532248 230626 0 -441943 220589 0 -938692 5.48083 0 -938770 6624.65 0 -938987 13810.8 0 -939273 22173.3 0 -939444 32439.7 0 -939145 45520.4 0 -937649 62535.9 0 -933546 84829.8 0 -924338 113657 0 -905782 149481 0 -872400 190257 0 -819253 230036 0 -746827 260140 0 -661422 274868 0 -571335 275132 0 -481271 266869 0 -944818 1.095 0 -945064 6284.99 0 -945793 13098.5 0 -946976 21021.2 0 -948560 30769.2 0 -950350 43241.3 0 -951886 59666.2 0 -952191 81579.8 0 -949090 110904 0 -938741 149157 0 -914387 196101 0 -868809 246419 0 -798411 289420 0 -710291 314683 0 -615613 320875 0 -523186 314063 0 -950735 9.47864 0 -951118 5794.3 0 -952287 12067.4 0 -954287 19359.1 0 -957134 28316.1 0 -960823 39839 0 -965203 55088.8 0 -969659 75837.1 0 -972904 104266 0 -971333 143295 0 -958855 194540 0 -924350 255663 0 -860082 314431 0 -768598 354641 0 -667181 368914 0 -568313 364330 0 -956233 -7.26197 0 -956749 5168.71 0 -958314 10758.6 0 -960990 17229.3 0 -964924 25194.4 0 -970255 35395.9 0 -977063 49053 0 -985381 67692.5 0 -994302 94045.4 0 -1.00223e+06 131334 0 -1.0027e+06 184286 0 -985556 253921 0 -932429 331873 0 -841085 393236 0 -728291 420908 0 -620267 418943 0 -961230 19.2365 0 -961831 4428.87 0 -963680 9203.77 0 -966915 14735.3 0 -971700 21472.5 0 -978317 30180.5 0 -987166 41685.9 0 -998424 57767.8 0 -1.01266e+06 80392.5 0 -1.02842e+06 114099 0 -1.04388e+06 163868 0 -1.04673e+06 237984 0 -1.0182e+06 334233 0 -931154 427677 0 -805949 477571 0 -679274 481360 0 -965495 -20.1876 0 -966180 3600.04 0 -968268 7480.04 0 -971871 11921.5 0 -977268 17384 0 -984832 24263 0 -994989 33604.2 0 -1.00871e+06 46188.4 0 -1.0262e+06 64822.9 0 -1.04945e+06 91805.8 0 -1.076e+06 135346 0 -1.10401e+06 203622 0 -1.10882e+06 312904 0 -1.05047e+06 446517 0 -907563 540515 0 -752670 557789 0 -969005 23.8062 0 -969716 2711.99 0 -971903 5615.74 0 -975748 8963.82 0 -981489 12957.7 0 -989528 18145.7 0 -1.00062e+06 24778.8 0 -1.01526e+06 34343.7 0 -1.03568e+06 47277.8 0 -1.06172e+06 68117.5 0 -1.09907e+06 99141 0 -1.14353e+06 155719 0 -1.19436e+06 254330 0 -1.19647e+06 428681 0 -1.05867e+06 604766 0 -856333 642154 0 -971547 -13.3241 0 -972282 1794.15 0 -974529 3716.76 0 -978417 5887.48 0 -984245 8534.21 0 -992464 11777.8 0 -1.00358e+06 16209 0 -1.01899e+06 21888.7 0 -1.03906e+06 30678.7 0 -1.06845e+06 42499.8 0 -1.10602e+06 63660 0 -1.16576e+06 96956.4 0 -1.24319e+06 167607 0 -1.34054e+06 328469 0 -1.31422e+06 632505 0 -982806 806490 0 -973138 4.84392 0 -973849 879.988 0 -976031 1817.02 0 -979843 2878.72 0 -985525 4132.07 0 -993475 5716.79 0 -1.00439e+06 7707.3 0 -1.01891e+06 10531.3 0 -1.03915e+06 14165 0 -1.06569e+06 20173.4 0 -1.1057e+06 28345.6 0 -1.15965e+06 44193.2 0 -1.25093e+06 73722.1 0 -1.40439e+06 142738 0 -1.61778e+06 472019 0 -1.17286e+06 1.12882e+06 0 -973660 9.53674e-07 0 -974335 -1.07568e-07 0 -976406 4.65661e-08 0 -979989 -5.4948e-08 0 -985328 6.70552e-08 0 -992755 -1.30385e-08 0 -1.00286e+06 1.11759e-08 0 -1.01627e+06 -2.23517e-08 0 -1.03471e+06 2.98023e-08 0 -1.05839e+06 0 0 -1.09527e+06 3.72529e-08 0 -1.13747e+06 0 0 -1.23047e+06 -5.96046e-08 0 -1.31989e+06 -1.49012e-08 0 -1.61609e+06 8.9407e-08 0 -5.08031e+06 -4.76837e-07 0 </DataArray> 
</PointData> 
<Points> 
<DataArray type="Float32" NumberOfComponents="3"> 
0.253 0 0 0.253 0.0018 0 0.253 0.0036 0 0.253 0.0054 0 0.253 0.0072 0 0.253 0.009 0 0.253 0.0108 0 0.253 0.0126 0 0.253 0.0144 0 0.253 0.0162 0 0.253 0.018 0 0.253 0.0198 0 0.253 0.0216 0 0.253 0.0234 0 0.253 0.0252 0 0.253 0.027 0 0.253733 0 0 0.253733 0.00175778 0 0.253733 0.00351556 0 0.253733 0.00527333 0 0.253733 0.00703111 0 0.253733 0.00878889 0 0.253733 0.0105467 0 0.253733 0.0123044 0 0.253733 0.0140622 0 0.253733 0.01582 0 0.253733 0.0175778 0 0.253733 0.0193356 0 0.253733 0.0210933 0 0.253733 0.0228511 0 0.253733 0.0246089 0 0.253733 0.0263667 0 0.254467 0 0 0.254467 0.00171556 0 0.254467 0.00343111 0 0.254467 0.00514667 0 0.254467 0.00686222 0 0.254467 0.00857778 0 0.254467 0.0102933 0 0.254467 0.0120089 0 0.254467 0.0137244 0 0.254467 0.01544 0 0.254467 0.0171556 0 0.254467 0.0188711 0 0.254467 0.0205867 0 0.254467 0.0223022 0 0.254467 0.0240178 0 0.254467 0.0257333 0 0.2552 0 0 0.2552 0.00167333 0 0.2552 0.00334667 0 0.2552 0.00502 0 0.2552 0.00669333 0 0.2552 0.00836667 0 0.2552 0.01004 0 0.2552 0.0117133 0 0.2552 0.0133867 0 0.2552 0.01506 0 0.2552 0.0167333 0 0.2552 0.0184067 0 0.2552 0.02008 0 0.2552 0.0217533 0 0.2552 0.0234267 0 0.2552 0.0251 0 0.255933 0 0 0.255933 0.00163111 0 0.255933 0.00326222 0 0.255933 0.00489333 0 0.255933 0.00652444 0 0.255933 0.00815556 0 0.255933 0.00978667 0 0.255933 0.0114178 0 0.255933 0.0130489 0 0.255933 0.01468 0 0.255933 0.0163111 0 0.255933 0.0179422 0 0.255933 0.0195733 0 0.255933 0.0212044 0 0.255933 0.0228356 0 0.255933 0.0244667 0 0.256667 0 0 0.256667 0.00158889 0 0.256667 0.00317778 0 0.256667 0.00476667 0 0.256667 0.00635556 0 0.256667 0.00794444 0 0.256667 0.00953333 0 0.256667 0.0111222 0 0.256667 0.0127111 0 0.256667 0.0143 0 0.256667 0.0158889 0 0.256667 0.0174778 0 0.256667 0.0190667 0 0.256667 0.0206556 0 0.256667 0.0222444 0 0.256667 0.0238333 0 0.2574 0 0 0.2574 0.00154667 0 0.2574 0.00309333 0 0.2574 0.00464 0 0.2574 0.00618667 0 0.2574 0.00773333 0 0.2574 0.00928 0 0.2574 0.0108267 0 0.2574 0.0123733 0 0.2574 0.01392 0 0.2574 0.0154667 0 0.2574 0.0170133 0 0.2574 0.01856 0 0.2574 0.0201067 0 0.2574 0.0216533 0 0.2574 0.0232 0 0.258133 0 0 0.258133 0.00150444 0 0.258133 0.00300889 0 0.258133 0.00451333 0 0.258133 0.00601778 0 0.258133 0.00752222 0 0.258133 0.00902667 0 0.258133 0.0105311 0 0.258133 0.0120356 0 0.258133 0.01354 0 0.258133 0.0150444 0 0.258133 0.0165489 0 0.258133 0.0180533 0 0.258133 0.0195578 0 0.258133 0.0210622 0 0.258133 0.0225667 0 0.258867 0 0 0.258867 0.00146222 0 0.258867 0.00292444 0 0.258867 0.00438667 0 0.258867 0.00584889 0 0.258867 0.00731111 0 0.258867 0.00877333 0 0.258867 0.0102356 0 0.258867 0.0116978 0 0.258867 0.01316 0 0.258867 0.0146222 0 0.258867 0.0160844 0 0.258867 0.0175467 0 0.258867 0.0190089 0 0.258867 0.0204711 0 0.258867 0.0219333 0 0.2596 0 0 0.2596 0.00142 0 0.2596 0.00284 0 0.2596 0.00426 0 0.2596 0.00568 0 0.2596 0.0071 0 0.2596 0.00852 0 0.2596 0.00994 0 0.2596 0.01136 0 0.2596 0.01278 0 0.2596 0.0142 0 0.2596 0.01562 0 0.2596 0.01704 0 0.2596 0.01846 0 0.2596 0.01988 0 0.2596 0.0213 0 0.260333 0 0 0.260333 0.00137778 0 0.260333 0.00275556 0 0.260333 0.00413333 0 0.260333 0.00551111 0 0.260333 0.00688889 0 0.260333 0.00826667 0 0.260333 0.00964444 0 0.260333 0.0110222 0 0.260333 0.0124 0 0.260333 0.0137778 0 0.260333 0.0151556 0 0.260333 0.0165333 0 0.260333 0.0179111 0 0.260333 0.0192889 0 0.260333 0.0206667 0 0.261067 0 0 0.261067 0.00133556 0 0.261067 0.00267111 0 0.261067 0.00400667 0 0.261067 0.00534222 0 0.261067 0.00667778 0 0.261067 0.00801333 0 0.261067 0.00934889 0 0.261067 0.0106844 0 0.261067 0.01202 0 0.261067 0.0133556 0 0.261067 0.0146911 0 0.261067 0.0160267 0 0.261067 0.0173622 0 0.261067 0.0186978 0 0.261067 0.0200333 0 0.2618 0 0 0.2618 0.00129333 0 0.2618 0.00258667 0 0.2618 0.00388 0 0.2618 0.00517333 0 0.2618 0.00646667 0 0.2618 0.00776 0 0.2618 0.00905333 0 0.2618 0.0103467 0 0.2618 0.01164 0 0.2618 0.0129333 0 0.2618 0.0142267 0 0.2618 0.01552 0 0.2618 0.0168133 0 0.2618 0.0181067 0 0.2618 0.0194 0 0.262533 0 0 0.262533 0.00125111 0 0.262533 0.00250222 0 0.262533 0.00375333 0 0.262533 0.00500444 0 0.262533 0.00625556 0 0.262533 0.00750667 0 0.262533 0.00875778 0 0.262533 0.0100089 0 0.262533 0.01126 0 0.262533 0.0125111 0 0.262533 0.0137622 0 0.262533 0.0150133 0 0.262533 0.0162644 0 0.262533 0.0175156 0 0.262533 0.0187667 0 0.263267 0 0 0.263267 0.00120889 0 0.263267 0.00241778 0 0.263267 0.00362667 0 0.263267 0.00483556 0 0.263267 0.00604444 0 0.263267 0.00725333 0 0.263267 0.00846222 0 0.263267 0.00967111 0 0.263267 0.01088 0 0.263267 0.0120889 0 0.263267 0.0132978 0 0.263267 0.0145067 0 0.263267 0.0157156 0 0.263267 0.0169244 0 0.263267 0.0181333 0 0.264 0 0 0.264 0.00116667 0 0.264 0.00233333 0 0.264 0.0035 0 0.264 0.00466667 0 0.264 0.00583333 0 0.264 0.007 0 0.264 0.00816667 0 0.264 0.00933333 0 0.264 0.0105 0 0.264 0.0116667 0 0.264 0.0128333 0 0.264 0.014 0 0.264 0.0151667 0 0.264 0.0163333 0 0.264 0.0175 0 
</DataArray>
</Points> 
</Piece> 
</StructuredGrid> 
</VTKFile> 
