<?xml version="1.0"?> 
<VTKFile type="StructuredGrid" version="0.1"> 
<StructuredGrid WholeExtent="0 15 0 15 0 0"> 
<Piece Extent="0 15 0 15 0 0"> 
<PointData>
<DataArray type="Float32" Name="E" format="ascii" NumberOfComponents="3"> 
1.71069e+06 -677502 0 1.81916e+06 -720461 0 1.91143e+06 -757002 0 1.99193e+06 -788881 0 2.06378e+06 -817337 0 2.12921e+06 -843251 0 2.18982e+06 -867255 0 2.24676e+06 -889805 0 2.30086e+06 -911234 0 2.35275e+06 -931781 0 2.40285e+06 -951623 0 2.45149e+06 -970887 0 2.49889e+06 -989660 0 2.54519e+06 -1.008e+06 0 2.59044e+06 -1.02592e+06 0 2.63462e+06 -1.04341e+06 0 2.68379e+06 -519208 0 2.71171e+06 -545673 0 2.74261e+06 -571203 0 2.77563e+06 -595724 0 2.81015e+06 -619237 0 2.84578e+06 -641786 0 2.88223e+06 -663435 0 2.91932e+06 -684259 0 2.95694e+06 -704338 0 2.995e+06 -723747 0 3.03347e+06 -742559 0 3.07235e+06 -760843 0 3.11164e+06 -778656 0 3.15138e+06 -796051 0 3.19161e+06 -813065 0 3.2324e+06 -829720 0 3.21033e+06 -405633 0 3.23878e+06 -422764 0 3.2676e+06 -438976 0 3.29687e+06 -454374 0 3.32664e+06 -469030 0 3.35693e+06 -482990 0 3.38776e+06 -496286 0 3.41915e+06 -508938 0 3.45111e+06 -520957 0 3.48365e+06 -532350 0 3.51679e+06 -543117 0 3.55052e+06 -553253 0 3.58488e+06 -562750 0 3.61986e+06 -571599 0 3.65549e+06 -579792 0 3.69178e+06 -587322 0 3.5859e+06 -283193 0 3.60824e+06 -290801 0 3.63108e+06 -297978 0 3.65441e+06 -304667 0 3.6782e+06 -310825 0 3.70246e+06 -316418 0 3.72716e+06 -321418 0 3.7523e+06 -325800 0 3.77788e+06 -329540 0 3.80388e+06 -332617 0 3.83031e+06 -335009 0 3.85716e+06 -336695 0 3.88442e+06 -337651 0 3.91209e+06 -337853 0 3.94017e+06 -337273 0 3.96864e+06 -335877 0 3.80578e+06 -153804 0 3.82203e+06 -155523 0 3.83854e+06 -156646 0 3.85531e+06 -157170 0 3.8723e+06 -157086 0 3.88953e+06 -156386 0 3.90697e+06 -155059 0 3.92461e+06 -153091 0 3.94246e+06 -150470 0 3.96048e+06 -147178 0 3.97867e+06 -143202 0 3.997e+06 -138522 0 4.01547e+06 -133121 0 4.03404e+06 -126981 0 4.0527e+06 -120085 0 4.07143e+06 -112417 0 3.89372e+06 -44397.1 0 3.90342e+06 -41473.9 0 3.91319e+06 -38038.7 0 3.92305e+06 -34102.4 0 3.93298e+06 -29665.2 0 3.94297e+06 -24720.8 0 3.95299e+06 -19260.6 0 3.96303e+06 -13275 0 3.97306e+06 -6754.42 0 3.98306e+06 310.382 0 3.99301e+06 7927.93 0 4.0029e+06 16106.1 0 4.01269e+06 24852.1 0 4.02238e+06 34172.6 0 4.03193e+06 44074.4 0 4.04132e+06 54564.6 0 3.8809e+06 36342.6 0 3.88492e+06 41900.9 0 3.88894e+06 47712.1 0 3.89289e+06 53850.4 0 3.89676e+06 60353 0 3.90052e+06 67236.9 0 3.90416e+06 74509 0 3.90767e+06 82172.1 0 3.91104e+06 90226.9 0 3.91424e+06 98674.1 0 3.91727e+06 107514 0 3.92011e+06 116748 0 3.92273e+06 126376 0 3.92511e+06 136400 0 3.92724e+06 146818 0 3.9291e+06 157632 0 3.80606e+06 84265.9 0 3.80568e+06 90076.4 0 3.80507e+06 96405.2 0 3.80431e+06 103085 0 3.80341e+06 110034 0 3.80237e+06 117219 0 3.80116e+06 124630 0 3.79976e+06 132268 0 3.79815e+06 140138 0 3.79632e+06 148243 0 3.79424e+06 156588 0 3.79191e+06 165176 0 3.78931e+06 174007 0 3.78642e+06 183082 0 3.78324e+06 192400 0 3.77975e+06 201962 0 3.70306e+06 99108.4 0 3.69953e+06 105478 0 3.69598e+06 111355 0 3.69225e+06 117099 0 3.68826e+06 122895 0 3.68401e+06 128825 0 3.67948e+06 134917 0 3.67467e+06 141177 0 3.6696e+06 147600 0 3.66424e+06 154174 0 3.6586e+06 160892 0 3.65267e+06 167745 0 3.64644e+06 174726 0 3.63989e+06 181829 0 3.63301e+06 189048 0 3.6258e+06 196377 0 3.60308e+06 88116.4 0 3.5979e+06 90170.8 0 3.59219e+06 93552.2 0 3.58617e+06 97551.2 0 3.57992e+06 101796 0 3.57346e+06 106112 0 3.56678e+06 110428 0 3.55984e+06 114728 0 3.55264e+06 119018 0 3.54514e+06 123316 0 3.53733e+06 127640 0 3.52921e+06 132007 0 3.52075e+06 136433 0 3.51196e+06 140933 0 3.50284e+06 145522 0 3.49337e+06 150216 0 3.52811e+06 45696.8 0 3.52166e+06 50760.9 0 3.51538e+06 53278.7 0 3.5089e+06 54567.4 0 3.50207e+06 55345.6 0 3.49482e+06 55972.9 0 3.48716e+06 56610.8 0 3.47908e+06 57315.9 0 3.4706e+06 58092.8 0 3.46171e+06 58923.5 0 3.45244e+06 59782.4 0 3.44275e+06 60642.6 0 3.43267e+06 61478.2 0 3.42216e+06 62263.3 0 3.41121e+06 62968.9 0 3.39982e+06 63560.8 0 3.50328e+06 -1117.63 0 3.49789e+06 -10902.7 0 3.4915e+06 -16225.6 0 3.48456e+06 -19391.5 0 3.47724e+06 -21699 0 3.4696e+06 -23824.1 0 3.46163e+06 -26087 0 3.45328e+06 -28610.2 0 3.44452e+06 -31410.7 0 3.4353e+06 -34453.3 0 3.4256e+06 -37678.5 0 3.41539e+06 -41016.1 0 3.40465e+06 -44389.5 0 3.39336e+06 -47714.4 0 3.38151e+06 -50893.1 0 3.3691e+06 -53808.1 0 3.54805e+06 -91336.7 0 3.5443e+06 -85038.7 0 3.54058e+06 -87262.1 0 3.53642e+06 -94150.9 0 3.5316e+06 -103445 0 3.52602e+06 -113898 0 3.51966e+06 -124857 0 3.5125e+06 -136014 0 3.50455e+06 -147251 0 3.4958e+06 -158553 0 3.48624e+06 -169958 0 3.47588e+06 -181536 0 3.46471e+06 -193378 0 3.45272e+06 -205601 0 3.43993e+06 -218361 0 3.42637e+06 -231869 0 3.70525e+06 -97121.4 0 3.70746e+06 -139207 0 3.70938e+06 -169316 0 3.71058e+06 -193203 0 3.71071e+06 -214242 0 3.7095e+06 -234266 0 3.70678e+06 -254183 0 3.70248e+06 -274366 0 3.69657e+06 -294884 0 3.68907e+06 -315647 0 3.68001e+06 -336485 0 3.66945e+06 -357187 0 3.6574e+06 -377510 0 3.64383e+06 -397167 0 3.62863e+06 -415802 0 3.6116e+06 -432944 0 4.10138e+06 -154067 0 4.13735e+06 -190225 0 4.1538e+06 -239387 0 4.15634e+06 -293488 0 4.14912e+06 -347666 0 4.13524e+06 -399228 0 4.11701e+06 -446837 0 4.09621e+06 -490003 0 4.07421e+06 -528749 0 4.05217e+06 -563418 0 4.03109e+06 -594550 0 4.01194e+06 -622831 0 3.99576e+06 -649084 0 3.9838e+06 -674298 0 3.9776e+06 -699704 0 3.97925e+06 -726867 0 5.82516e+06 -1.52139e+06 0 5.41283e+06 -1.4137e+06 0 5.11e+06 -1.33461e+06 0 4.88323e+06 -1.27538e+06 0 4.70939e+06 -1.22998e+06 0 4.57238e+06 -1.1942e+06 0 4.4608e+06 -1.16506e+06 0 4.36647e+06 -1.14042e+06 0 4.28322e+06 -1.11867e+06 0 4.20614e+06 -1.09854e+06 0 4.13094e+06 -1.0789e+06 0 4.0534e+06 -1.05865e+06 0 3.96889e+06 -1.03658e+06 0 3.87177e+06 -1.01122e+06 0 3.75482e+06 -980669 0 3.60826e+06 -942391 0 </DataArray> 
</PointData> 
<Points> 
<DataArray type="Float32" NumberOfComponents="3"> 
0.3075 0.0099 0 0.307701 0.0104067 0 0.307901 0.0109133 0 0.308102 0.01142 0 0.308303 0.0119267 0 0.308503 0.0124333 0 0.308704 0.01294 0 0.308905 0.0134467 0 0.309105 0.0139533 0 0.309306 0.01446 0 0.309507 0.0149667 0 0.309707 0.0154733 0 0.309908 0.01598 0 0.310109 0.0164867 0 0.310309 0.0169933 0 0.31051 0.0175 0 0.313067 0.0101962 0 0.313263 0.0107031 0 0.313459 0.01121 0 0.313655 0.0117169 0 0.313851 0.0122238 0 0.314048 0.0127308 0 0.314244 0.0132377 0 0.31444 0.0137446 0 0.314636 0.0142515 0 0.314832 0.0147585 0 0.315028 0.0152654 0 0.315225 0.0157723 0 0.315421 0.0162792 0 0.315617 0.0167862 0 0.315813 0.0172931 0 0.316009 0.0178 0 0.318633 0.0104923 0 0.318825 0.0109995 0 0.319017 0.0115067 0 0.319208 0.0120138 0 0.3194 0.012521 0 0.319592 0.0130282 0 0.319783 0.0135354 0 0.319975 0.0140426 0 0.320167 0.0145497 0 0.320358 0.0150569 0 0.32055 0.0155641 0 0.320742 0.0160713 0 0.320934 0.0165785 0 0.321125 0.0170856 0 0.321317 0.0175928 0 0.321509 0.0181 0 0.3242 0.0107885 0 0.324387 0.0112959 0 0.324574 0.0118033 0 0.324762 0.0123108 0 0.324949 0.0128182 0 0.325136 0.0133256 0 0.325323 0.0138331 0 0.32551 0.0143405 0 0.325698 0.014848 0 0.325885 0.0153554 0 0.326072 0.0158628 0 0.326259 0.0163703 0 0.326446 0.0168777 0 0.326634 0.0173851 0 0.326821 0.0178926 0 0.327008 0.0184 0 0.329767 0.0110846 0 0.329949 0.0115923 0 0.330132 0.0121 0 0.330315 0.0126077 0 0.330497 0.0131154 0 0.33068 0.0136231 0 0.330863 0.0141308 0 0.331046 0.0146385 0 0.331228 0.0151462 0 0.331411 0.0156538 0 0.331594 0.0161615 0 0.331776 0.0166692 0 0.331959 0.0171769 0 0.332142 0.0176846 0 0.332325 0.0181923 0 0.332507 0.0187 0 0.335333 0.0113808 0 0.335512 0.0118887 0 0.33569 0.0123967 0 0.335868 0.0129046 0 0.336046 0.0134126 0 0.336224 0.0139205 0 0.336403 0.0144285 0 0.336581 0.0149364 0 0.336759 0.0154444 0 0.336937 0.0159523 0 0.337116 0.0164603 0 0.337294 0.0169682 0 0.337472 0.0174762 0 0.33765 0.0179841 0 0.337828 0.0184921 0 0.338007 0.019 0 0.3409 0.0116769 0 0.341074 0.0121851 0 0.341247 0.0126933 0 0.341421 0.0132015 0 0.341595 0.0137098 0 0.341769 0.014218 0 0.341942 0.0147262 0 0.342116 0.0152344 0 0.34229 0.0157426 0 0.342464 0.0162508 0 0.342637 0.016759 0 0.342811 0.0172672 0 0.342985 0.0177754 0 0.343158 0.0182836 0 0.343332 0.0187918 0 0.343506 0.0193 0 0.346467 0.0119731 0 0.346636 0.0124816 0 0.346805 0.01299 0 0.346974 0.0134985 0 0.347144 0.0140069 0 0.347313 0.0145154 0 0.347482 0.0150239 0 0.347651 0.0155323 0 0.347821 0.0160408 0 0.34799 0.0165492 0 0.348159 0.0170577 0 0.348328 0.0175662 0 0.348498 0.0180746 0 0.348667 0.0185831 0 0.348836 0.0190915 0 0.349005 0.0196 0 0.352033 0.0122692 0 0.352198 0.012778 0 0.352363 0.0132867 0 0.352528 0.0137954 0 0.352692 0.0143041 0 0.352857 0.0148128 0 0.353022 0.0153215 0 0.353187 0.0158303 0 0.353351 0.016339 0 0.353516 0.0168477 0 0.353681 0.0173564 0 0.353846 0.0178651 0 0.35401 0.0183738 0 0.354175 0.0188826 0 0.35434 0.0193913 0 0.354505 0.0199 0 0.3576 0.0125654 0 0.35776 0.0130744 0 0.357921 0.0135833 0 0.358081 0.0140923 0 0.358241 0.0146013 0 0.358401 0.0151103 0 0.358562 0.0156192 0 0.358722 0.0161282 0 0.358882 0.0166372 0 0.359042 0.0171462 0 0.359203 0.0176551 0 0.359363 0.0181641 0 0.359523 0.0186731 0 0.359683 0.0191821 0 0.359844 0.019691 0 0.360004 0.0202 0 0.363167 0.0128616 0 0.363322 0.0133708 0 0.363478 0.01388 0 0.363634 0.0143892 0 0.36379 0.0148985 0 0.363946 0.0154077 0 0.364101 0.0159169 0 0.364257 0.0164262 0 0.364413 0.0169354 0 0.364569 0.0174446 0 0.364724 0.0179539 0 0.36488 0.0184631 0 0.365036 0.0189723 0 0.365192 0.0194815 0 0.365348 0.0199908 0 0.365503 0.0205 0 0.368733 0.0131577 0 0.368885 0.0136672 0 0.369036 0.0141767 0 0.369187 0.0146862 0 0.369338 0.0151957 0 0.36949 0.0157051 0 0.369641 0.0162146 0 0.369792 0.0167241 0 0.369944 0.0172336 0 0.370095 0.0177431 0 0.370246 0.0182526 0 0.370397 0.0187621 0 0.370549 0.0192715 0 0.3707 0.019781 0 0.370851 0.0202905 0 0.371003 0.0208 0 0.3743 0.0134539 0 0.374447 0.0139636 0 0.374594 0.0144734 0 0.37474 0.0149831 0 0.374887 0.0154928 0 0.375034 0.0160026 0 0.375181 0.0165123 0 0.375328 0.0170221 0 0.375474 0.0175318 0 0.375621 0.0180415 0 0.375768 0.0185513 0 0.375915 0.019061 0 0.376062 0.0195708 0 0.376208 0.0200805 0 0.376355 0.0205903 0 0.376502 0.0211 0 0.379867 0.01375 0 0.380009 0.01426 0 0.380151 0.01477 0 0.380294 0.01528 0 0.380436 0.01579 0 0.380578 0.0163 0 0.380721 0.01681 0 0.380863 0.01732 0 0.381005 0.01783 0 0.381147 0.01834 0 0.38129 0.01885 0 0.381432 0.01936 0 0.381574 0.01987 0 0.381717 0.02038 0 0.381859 0.02089 0 0.382001 0.0214 0 0.385433 0.0140462 0 0.385571 0.0145564 0 0.385709 0.0150667 0 0.385847 0.0155769 0 0.385985 0.0160872 0 0.386122 0.0165975 0 0.38626 0.0171077 0 0.386398 0.017618 0 0.386536 0.0181282 0 0.386674 0.0186385 0 0.386812 0.0191487 0 0.386949 0.019659 0 0.387087 0.0201692 0 0.387225 0.0206795 0 0.387363 0.0211897 0 0.387501 0.0217 0 0.391 0.0143423 0 0.391133 0.0148528 0 0.391267 0.0153634 0 0.3914 0.0158739 0 0.391533 0.0163844 0 0.391667 0.0168949 0 0.3918 0.0174054 0 0.391933 0.0179159 0 0.392067 0.0184264 0 0.3922 0.0189369 0 0.392333 0.0194474 0 0.392467 0.019958 0 0.3926 0.0204685 0 0.392733 0.020979 0 0.392867 0.0214895 0 0.393 0.022 0 
</DataArray>
</Points> 
</Piece> 
</StructuredGrid> 
</VTKFile> 
