<?xml version="1.0"?> 
<VTKFile type="StructuredGrid" version="0.1"> 
<StructuredGrid WholeExtent="0 15 0 15 0 0"> 
<Piece Extent="0 15 0 15 0 0"> 
<PointData>
<DataArray type="Float32" Name="E" format="ascii" NumberOfComponents="3"> 
98767 -11.191 0 96082.4 17898.9 0 88212.6 34596.2 0 75718.8 48982.1 0 59536.2 60130.1 0 40909.7 67421.5 0 21281.4 70683.3 0 2133.07 70247.2 0 -15418 66974.5 0 -30436.6 62027.3 0 -43216.7 56781.4 0 -53157.7 52421.6 0 -62962 50204.8 0 -70091.3 51568.9 0 -82825.1 58458.5 0 -133701 97933.6 0 81964.5 -9.04971 0 79651.6 15418 0 72876.5 29810.6 0 62127.8 42241.3 0 48195.4 51939.3 0 32119.3 58408.7 0 15082.9 61514.1 0 -1755.56 61542.5 0 -17433.6 59159.7 0 -31406 55330.5 0 -43499.8 51097.8 0 -54171.1 47532.7 0 -63959.5 45567.5 0 -74636.3 46233.7 0 -88852.4 50932.1 0 -118228 54809.6 0 67485.6 -7.70129 0 65491.8 13280.7 0 59650.5 25689 0 50378.9 36432.9 0 38344.1 44870.2 0 24408.7 50593.2 0 9536.79 53495.5 0 -5339.01 53804.6 0 -19465.2 52055.6 0 -32398 49004.3 0 -44063.9 45500.9 0 -54795.8 42380.1 0 -65302.7 40380.2 0 -76966.1 40069.7 0 -92359.4 41236.2 0 -115079 38621 0 55017.1 -6.66039 0 53294.7 11436.3 0 48246.8 22130.7 0 40226.8 31413.1 0 29794 38744.2 0 17661.3 43784.1 0 4614.38 46441.9 0 -8597.28 46893.8 0 -21377.7 45562.1 0 -33382.7 43039.9 0 -44582 40002.9 0 -55275.9 37096.2 0 -66127.3 34852.3 0 -78247 33486.3 0 -93331.9 32191.4 0 -112184 27792.4 0 44284.4 -5.61419 0 42793 9841.11 0 38419.7 19050.9 0 31461.7 27060.7 0 22385.4 33414.8 0 11778.9 37824.9 0 281.955 40207.1 0 -11502.8 40693.5 0 -23103.3 39609.7 0 -34257.1 37419.1 0 -44961.8 34644.3 0 -55492 31779.4 0 -66409.7 29182.3 0 -78550.3 26871.3 0 -92856.6 24035 0 -109241 18648 0 35054.6 -4.82561 0 33760 8457.98 0 29961 16377.7 0 23906.4 23274.9 0 15983.6 28761.2 0 6677.03 32587.9 0 -3492.38 34673.7 0 -14039.6 35110.9 0 -24591.2 34145.4 0 -34948.5 32130.6 0 -45129.3 29465 0 -55378.5 26515.5 0 -66155.2 23523 0 -78043.6 20432.7 0 -91494.3 16607.7 0 -106123 10838 0 27129.1 -4.11174 0 26002.6 7255.69 0 22693.9 14051.1 0 17410.5 19971.9 0 10473.8 24684 0 2282.04 27969.6 0 -6739.95 29746.9 0 -16201.3 30073.2 0 -25806.1 29127 0 -35405.8 27170.7 0 -45031.5 24498.8 0 -54901.7 21378.5 0 -65385.7 17976.3 0 -76885.1 14248.6 0 -89541.7 9790.82 0 -102812 3839.96 0 20338.5 -3.53559 0 19355.9 6208.06 0 16467.4 12020.9 0 11845.5 17082 0 5756.48 21101.7 0 -1471.73 23885.8 0 -9492.21 25350.3 0 -17988.9 25522.2 0 -26726.9 24523.3 0 -35595.2 22538.8 0 -44635.2 19777.1 0 -54043.1 16425.1 0 -64130 12606.4 0 -75183.7 8333.68 0 -87179.5 3447.2 0 -99436.8 -2434.35 0 14537.3 -3.03538 0 13678.6 5293.16 0 11151.7 10245.4 0 7100.31 14547.9 0 1745.05 17947.3 0 -4643.57 20267.8 0 -11781.1 21422.5 0 -19410.5 21412.2 0 -27343.8 20310.4 0 -35498.1 18237.5 0 -43920.9 15327.9 0 -52795.1 11701.5 0 -62405.3 7451.52 0 -73005.1 2665.04 0 -84513.9 -2550.83 0 -96098.9 -8210.75 0 9600.73 -2.63962 0 8849.05 4492.76 0 6635.14 8689.78 0 3078.66 12322 0 -1637.04 15165.4 0 -7287.93 17059.3 0 -13639.3 17913.6 0 -20480.1 17706.4 0 -27657.5 16470.7 0 -35108.1 14271.1 0 -42881.7 11177.8 0 -51154.7 7247.46 0 -60214.6 2539.21 0 -70364.8 -2796.73 0 -81595.2 -8361.01 0 -92927 -13643.1 0 5420.67 -2.26444 0 4762.05 3791.61 0 2820.55 7325.22 0 -303.839 10364.8 0 -4458.07 12710.7 0 -9455.39 14214.4 0 -15100.3 14782.8 0 -21216.8 14375.3 0 -27677.4 12990.5 0 -34429.7 10645.9 0 -41522.1 7352.49 0 -49122.5 3103.65 0 -57547.2 -2099.52 0 -67219 -8092.45 0 -78406.9 -14168.5 0 -90093.2 -19071.5 0 1903.38 -2.04345 0 1326.06 3176.99 0 -376.968 6127.61 0 -3121.71 8643.39 0 -6779.58 10545.3 0 -11193.5 11694.7 0 -16198.3 11996.5 0 -21644.2 11394.6 0 -27420.5 9859.59 0 -33478.2 7368.11 0 -39856.1 3878.92 0 -46709.1 -684.769 0 -54377.5 -6413.31 0 -63468.5 -13233.4 0 -74803.2 -20227.7 0 -87701.3 -24780.5 0 -1033.2 -1.64967 0 -1539.03 2638.25 0 -3032.06 5076.76 0 -5441.24 7130.45 0 -8657.49 8637.4 0 -12547.1 9468.26 0 -16968.2 9526.01 0 -21789.6 8744.01 0 -26910.4 7068.09 0 -32277.6 4445.18 0 -37911.3 781.889 0 -43937.4 -4062.54 0 -50687.8 -10317.6 0 -58946.4 -18156 0 -70420.4 -26802.8 0 -86001.7 -31788.6 0 -3461.09 -1.63716 0 -3903.68 2166.4 0 -5210.83 4155.71 0 -7321.78 5802.63 0 -10143 6960.46 0 -13558.9 7507.45 0 -17445 7347.56 0 -21683.7 6404 0 -26175.6 4608.85 0 -30862.7 1878.28 0 -35724 -1910.54 0 -40861 -6976.1 0 -46478.4 -13682.7 0 -53491.9 -22619.6 0 -64431.4 -34181.6 0 -85315.1 -41247.8 0 -5442.85 -1.51585 0 -5830.06 1753.79 0 -6972.43 3350.03 0 -8816.64 4640.08 0 -11283.2 5491.56 0 -14269.6 5788.27 0 -17663.4 5439.63 0 -21360.7 4356.46 0 -25245.8 2472.78 0 -29281.3 -334.234 0 -33334.2 -4178.1 0 -37577.4 -9374.66 0 -41800 -16354.2 0 -47094.9 -26159.5 0 -55252.6 -41799 0 -86059 -60183.8 0 -7044.14 2.24785 0 -7376.1 1393.91 0 -8365.93 2646.44 0 -9976.25 3627.49 0 -12120.1 4207.25 0 -14714 4295.75 0 -17671.5 3771.05 0 -20816.5 2603.12 0 -24244.5 615.634 0 -27389.4 -2148.42 0 -31192.5 -6084.8 0 -33432.1 -11141.4 0 -38241.8 -18234.4 0 -37630.4 -28521.4 0 -44076.8 -43961.7 0 -103341 -127281 0 </DataArray> 
</PointData> 
<Points> 
<DataArray type="Float32" NumberOfComponents="3"> 
0.406 0 0 0.406 0.00133333 0 0.406 0.00266667 0 0.406 0.004 0 0.406 0.00533333 0 0.406 0.00666667 0 0.406 0.008 0 0.406 0.00933333 0 0.406 0.0106667 0 0.406 0.012 0 0.406 0.0133333 0 0.406 0.0146667 0 0.406 0.016 0 0.406 0.0173333 0 0.406 0.0186667 0 0.406 0.02 0 0.406667 0 0 0.406667 0.00133333 0 0.406667 0.00266667 0 0.406667 0.004 0 0.406667 0.00533333 0 0.406667 0.00666667 0 0.406667 0.008 0 0.406667 0.00933333 0 0.406667 0.0106667 0 0.406667 0.012 0 0.406667 0.0133333 0 0.406667 0.0146667 0 0.406667 0.016 0 0.406667 0.0173333 0 0.406667 0.0186667 0 0.406667 0.02 0 0.407333 0 0 0.407333 0.00133333 0 0.407333 0.00266667 0 0.407333 0.004 0 0.407333 0.00533333 0 0.407333 0.00666667 0 0.407333 0.008 0 0.407333 0.00933333 0 0.407333 0.0106667 0 0.407333 0.012 0 0.407333 0.0133333 0 0.407333 0.0146667 0 0.407333 0.016 0 0.407333 0.0173333 0 0.407333 0.0186667 0 0.407333 0.02 0 0.408 0 0 0.408 0.00133333 0 0.408 0.00266667 0 0.408 0.004 0 0.408 0.00533333 0 0.408 0.00666667 0 0.408 0.008 0 0.408 0.00933333 0 0.408 0.0106667 0 0.408 0.012 0 0.408 0.0133333 0 0.408 0.0146667 0 0.408 0.016 0 0.408 0.0173333 0 0.408 0.0186667 0 0.408 0.02 0 0.408667 0 0 0.408667 0.00133333 0 0.408667 0.00266667 0 0.408667 0.004 0 0.408667 0.00533333 0 0.408667 0.00666667 0 0.408667 0.008 0 0.408667 0.00933333 0 0.408667 0.0106667 0 0.408667 0.012 0 0.408667 0.0133333 0 0.408667 0.0146667 0 0.408667 0.016 0 0.408667 0.0173333 0 0.408667 0.0186667 0 0.408667 0.02 0 0.409333 0 0 0.409333 0.00133333 0 0.409333 0.00266667 0 0.409333 0.004 0 0.409333 0.00533333 0 0.409333 0.00666667 0 0.409333 0.008 0 0.409333 0.00933333 0 0.409333 0.0106667 0 0.409333 0.012 0 0.409333 0.0133333 0 0.409333 0.0146667 0 0.409333 0.016 0 0.409333 0.0173333 0 0.409333 0.0186667 0 0.409333 0.02 0 0.41 0 0 0.41 0.00133333 0 0.41 0.00266667 0 0.41 0.004 0 0.41 0.00533333 0 0.41 0.00666667 0 0.41 0.008 0 0.41 0.00933333 0 0.41 0.0106667 0 0.41 0.012 0 0.41 0.0133333 0 0.41 0.0146667 0 0.41 0.016 0 0.41 0.0173333 0 0.41 0.0186667 0 0.41 0.02 0 0.410667 0 0 0.410667 0.00133333 0 0.410667 0.00266667 0 0.410667 0.004 0 0.410667 0.00533333 0 0.410667 0.00666667 0 0.410667 0.008 0 0.410667 0.00933333 0 0.410667 0.0106667 0 0.410667 0.012 0 0.410667 0.0133333 0 0.410667 0.0146667 0 0.410667 0.016 0 0.410667 0.0173333 0 0.410667 0.0186667 0 0.410667 0.02 0 0.411333 0 0 0.411333 0.00133333 0 0.411333 0.00266667 0 0.411333 0.004 0 0.411333 0.00533333 0 0.411333 0.00666667 0 0.411333 0.008 0 0.411333 0.00933333 0 0.411333 0.0106667 0 0.411333 0.012 0 0.411333 0.0133333 0 0.411333 0.0146667 0 0.411333 0.016 0 0.411333 0.0173333 0 0.411333 0.0186667 0 0.411333 0.02 0 0.412 0 0 0.412 0.00133333 0 0.412 0.00266667 0 0.412 0.004 0 0.412 0.00533333 0 0.412 0.00666667 0 0.412 0.008 0 0.412 0.00933333 0 0.412 0.0106667 0 0.412 0.012 0 0.412 0.0133333 0 0.412 0.0146667 0 0.412 0.016 0 0.412 0.0173333 0 0.412 0.0186667 0 0.412 0.02 0 0.412667 0 0 0.412667 0.00133333 0 0.412667 0.00266667 0 0.412667 0.004 0 0.412667 0.00533333 0 0.412667 0.00666667 0 0.412667 0.008 0 0.412667 0.00933333 0 0.412667 0.0106667 0 0.412667 0.012 0 0.412667 0.0133333 0 0.412667 0.0146667 0 0.412667 0.016 0 0.412667 0.0173333 0 0.412667 0.0186667 0 0.412667 0.02 0 0.413333 0 0 0.413333 0.00133333 0 0.413333 0.00266667 0 0.413333 0.004 0 0.413333 0.00533333 0 0.413333 0.00666667 0 0.413333 0.008 0 0.413333 0.00933333 0 0.413333 0.0106667 0 0.413333 0.012 0 0.413333 0.0133333 0 0.413333 0.0146667 0 0.413333 0.016 0 0.413333 0.0173333 0 0.413333 0.0186667 0 0.413333 0.02 0 0.414 0 0 0.414 0.00133333 0 0.414 0.00266667 0 0.414 0.004 0 0.414 0.00533333 0 0.414 0.00666667 0 0.414 0.008 0 0.414 0.00933333 0 0.414 0.0106667 0 0.414 0.012 0 0.414 0.0133333 0 0.414 0.0146667 0 0.414 0.016 0 0.414 0.0173333 0 0.414 0.0186667 0 0.414 0.02 0 0.414667 0 0 0.414667 0.00133333 0 0.414667 0.00266667 0 0.414667 0.004 0 0.414667 0.00533333 0 0.414667 0.00666667 0 0.414667 0.008 0 0.414667 0.00933333 0 0.414667 0.0106667 0 0.414667 0.012 0 0.414667 0.0133333 0 0.414667 0.0146667 0 0.414667 0.016 0 0.414667 0.0173333 0 0.414667 0.0186667 0 0.414667 0.02 0 0.415333 0 0 0.415333 0.00133333 0 0.415333 0.00266667 0 0.415333 0.004 0 0.415333 0.00533333 0 0.415333 0.00666667 0 0.415333 0.008 0 0.415333 0.00933333 0 0.415333 0.0106667 0 0.415333 0.012 0 0.415333 0.0133333 0 0.415333 0.0146667 0 0.415333 0.016 0 0.415333 0.0173333 0 0.415333 0.0186667 0 0.415333 0.02 0 0.416 0 0 0.416 0.00133333 0 0.416 0.00266667 0 0.416 0.004 0 0.416 0.00533333 0 0.416 0.00666667 0 0.416 0.008 0 0.416 0.00933333 0 0.416 0.0106667 0 0.416 0.012 0 0.416 0.0133333 0 0.416 0.0146667 0 0.416 0.016 0 0.416 0.0173333 0 0.416 0.0186667 0 0.416 0.02 0 
</DataArray>
</Points> 
</Piece> 
</StructuredGrid> 
</VTKFile> 
