<?xml version="1.0"?> 
<VTKFile type="StructuredGrid" version="0.1"> 
<StructuredGrid WholeExtent="0 15 0 15 0 0"> 
<Piece Extent="0 15 0 15 0 0"> 
<PointData>
<DataArray type="Float32" Name="E" format="ascii" NumberOfComponents="3"> 
-278150 95403.5 0 -256519 93007.9 0 -235403 90751.1 0 -214778 88612 0 -194625 86573.3 0 -174924 84620.6 0 -155659 82742 0 -136816 80927.4 0 -118382 79168.1 0 -100345 77456.7 0 -82695.3 75787 0 -65425 74153.5 0 -48526.4 72551.3 0 -31993 70976.6 0 -15819.2 69425.7 0 0 67895.6 0 -293207 185838 0 -270477 182650 0 -248278 179640 0 -226586 176782 0 -205379 174053 0 -184638 171433 0 -164345 168901 0 -144486 166442 0 -125048 164041 0 -106020 161684 0 -87391.2 159360 0 -69154.6 157059 0 -51302.8 154771 0 -33829.5 152489 0 -16730 150206 0 0 147915 0 -312479 280119 0 -288441 275994 0 -264950 272124 0 -241974 268466 0 -219489 264982 0 -197471 261638 0 -175902 258406 0 -154765 255259 0 -134047 252173 0 -113736 249128 0 -93823.1 246105 0 -74300 243089 0 -55160.6 240063 0 -36399.8 237017 0 -18013.8 233937 0 0 230814 0 -336603 379370 0 -311079 374226 0 -286092 369438 0 -261608 364941 0 -237597 360679 0 -214035 356602 0 -190902 352667 0 -168181 348835 0 -145856 345070 0 -123917 341342 0 -102355 337624 0 -81161 333890 0 -60331.4 330118 0 -39862.4 326289 0 -19752.1 322384 0 0 318389 0 -366558 484838 0 -339327 478652 0 -312601 472946 0 -286344 467631 0 -260521 462628 0 -235105 457868 0 -210074 453289 0 -185407 448836 0 -161090 444460 0 -137111 440115 0 -113460 435763 0 -90130.8 431366 0 -67120.8 426893 0 -44428.1 422313 0 -22053.6 417601 0 0 412732 0 -403484 598055 0 -374288 590824 0 -345552 584239 0 -317226 578179 0 -289268 572534 0 -261646 567211 0 -234330 562122 0 -207299 557192 0 -180535 552350 0 -154023 547535 0 -127755 542690 0 -101726 537762 0 -75932.4 532704 0 -50377 527473 0 -25063.8 522030 0 0 516340 0 -448639 720664 0 -417250 712439 0 -386234 705082 0 -355533 698427 0 -325095 692331 0 -294878 686662 0 -264845 681304 0 -234966 676151 0 -205220 671106 0 -175589 666082 0 -146063 660998 0 -116637 655779 0 -87311.5 650358 0 -58089.9 644672 0 -28981.7 638663 0 0 632278 0 -503632 854457 0 -469819 845345 0 -436271 837410 0 -402899 830430 0 -369630 824207 0 -336404 818562 0 -303171 813336 0 -269890 808381 0 -236532 803565 0 -203074 798763 0 -169503 793861 0 -135813 788753 0 -102006 783341 0 -68090 777534 0 -34081.2 771247 0 0 764404 0 -570364 1.00119e+06 0 -534049 991459 0 -497800 983328 0 -461506 976492 0 -425066 970687 0 -388397 965670 0 -351426 961223 0 -314096 957141 0 -276365 953236 0 -238202 949333 0 -199592 945271 0 -160529 940897 0 -121019 936074 0 -81077.6 930670 0 -40727.5 924565 0 0 917650 0 -651621 1.16281e+06 0 -612778 1.15293e+06 0 -573746 1.14522e+06 0 -534346 1.13929e+06 0 -494423 1.13479e+06 0 -453847 1.13137e+06 0 -412512 1.12872e+06 0 -370339 1.12656e+06 0 -327268 1.12461e+06 0 -283264 1.12262e+06 0 -238314 1.12037e+06 0 -192422 1.11763e+06 0 -145608 1.11422e+06 0 -97904.2 1.10995e+06 0 -49353.1 1.10468e+06 0 0 1.09826e+06 0 -750805 1.34116e+06 0 -709814 1.33192e+06 0 -668184 1.32575e+06 0 -625643 1.32206e+06 0 -581959 1.32032e+06 0 -536937 1.32006e+06 0 -490421 1.32083e+06 0 -442306 1.32218e+06 0 -392529 1.32371e+06 0 -341073 1.32506e+06 0 -287962 1.3259e+06 0 -233248 1.32592e+06 0 -177008 1.32489e+06 0 -119329 1.3226e+06 0 -60301 1.31888e+06 0 0 1.3136e+06 0 -873375 1.53786e+06 0 -830953 1.53101e+06 0 -787168 1.52834e+06 0 -741573 1.52914e+06 0 -693772 1.53263e+06 0 -643456 1.53808e+06 0 -590412 1.54474e+06 0 -534533 1.55193e+06 0 -475816 1.559e+06 0 -414356 1.56541e+06 0 -350326 1.57066e+06 0 -283957 1.5744e+06 0 -215506 1.57636e+06 0 -145226 1.5764e+06 0 -73337.7 1.57447e+06 0 0 1.57062e+06 0 -1.02697e+06 1.75517e+06 0 -984792 1.75328e+06 0 -939912 1.75768e+06 0 -891467 1.76707e+06 0 -838762 1.78012e+06 0 -781314 1.79551e+06 0 -718897 1.81192e+06 0 -651560 1.8281e+06 0 -579616 1.84298e+06 0 -503593 1.85567e+06 0 -424166 1.86557e+06 0 -342076 1.87237e+06 0 -258047 1.87603e+06 0 -172720 1.87675e+06 0 -86595.7 1.87496e+06 0 0 1.8712e+06 0 -1.22486e+06 1.99317e+06 0 -1.18623e+06 2.00286e+06 0 -1.1419e+06 2.02185e+06 0 -1.09017e+06 2.04796e+06 0 -1.02978e+06 2.07863e+06 0 -960113 2.11108e+06 0 -881274 2.1426e+06 0 -794140 2.1708e+06 0 -700197 2.19389e+06 0 -601315 2.21081e+06 0 -499485 2.22123e+06 0 -396576 2.22551e+06 0 -294164 2.2245e+06 0 -193447 2.21945e+06 0 -95237.5 2.21182e+06 0 0 2.20316e+06 0 -1.49162e+06 2.25475e+06 0 -1.46259e+06 2.28914e+06 0 -1.42064e+06 2.33886e+06 0 -1.36183e+06 2.39859e+06 0 -1.28389e+06 2.46188e+06 0 -1.18686e+06 2.52199e+06 0 -1.07323e+06 2.57302e+06 0 -947406 2.61091e+06 0 -814690 2.6339e+06 0 -680245 2.64233e+06 0 -548341 2.63814e+06 0 -422054 2.62416e+06 0 -303317 2.60354e+06 0 -193164 2.57935e+06 0 -92024.5 2.55438e+06 0 0 2.53109e+06 0 -1.87759e+06 2.54112e+06 0 -1.86973e+06 2.63478e+06 0 -1.82743e+06 2.75541e+06 0 -1.74146e+06 2.88625e+06 0 -1.61061e+06 3.0077e+06 0 -1.44269e+06 3.10247e+06 0 -1.25195e+06 3.16062e+06 0 -1.05419e+06 3.181e+06 0 -862415 3.16917e+06 0 -684928 3.13368e+06 0 -525694 3.08319e+06 0 -385698 3.02493e+06 0 -264329 2.96437e+06 0 -160372 2.90538e+06 0 -72582.5 2.85067e+06 0 0 2.802e+06 0 </DataArray> 
</PointData> 
<Points> 
<DataArray type="Float32" NumberOfComponents="3"> 
0.0125 0.085 0 0.0125 0.0878667 0 0.0125 0.0907333 0 0.0125 0.0936 0 0.0125 0.0964667 0 0.0125 0.0993333 0 0.0125 0.1022 0 0.0125 0.105067 0 0.0125 0.107933 0 0.0125 0.1108 0 0.0125 0.113667 0 0.0125 0.116533 0 0.0125 0.1194 0 0.0125 0.122267 0 0.0125 0.125133 0 0.0125 0.128 0 0.024 0.0836667 0 0.0242 0.0866222 0 0.0244 0.0895778 0 0.0246 0.0925333 0 0.0248 0.0954889 0 0.025 0.0984444 0 0.0252 0.1014 0 0.0254 0.104356 0 0.0256 0.107311 0 0.0258 0.110267 0 0.026 0.113222 0 0.0262 0.116178 0 0.0264 0.119133 0 0.0266 0.122089 0 0.0268 0.125044 0 0.027 0.128 0 0.0355 0.0823333 0 0.0359 0.0853778 0 0.0363 0.0884222 0 0.0367 0.0914667 0 0.0371 0.0945111 0 0.0375 0.0975556 0 0.0379 0.1006 0 0.0383 0.103644 0 0.0387 0.106689 0 0.0391 0.109733 0 0.0395 0.112778 0 0.0399 0.115822 0 0.0403 0.118867 0 0.0407 0.121911 0 0.0411 0.124956 0 0.0415 0.128 0 0.047 0.081 0 0.0476 0.0841333 0 0.0482 0.0872667 0 0.0488 0.0904 0 0.0494 0.0935333 0 0.05 0.0966667 0 0.0506 0.0998 0 0.0512 0.102933 0 0.0518 0.106067 0 0.0524 0.1092 0 0.053 0.112333 0 0.0536 0.115467 0 0.0542 0.1186 0 0.0548 0.121733 0 0.0554 0.124867 0 0.056 0.128 0 0.0585 0.0796667 0 0.0593 0.0828889 0 0.0601 0.0861111 0 0.0609 0.0893333 0 0.0617 0.0925556 0 0.0625 0.0957778 0 0.0633 0.099 0 0.0641 0.102222 0 0.0649 0.105444 0 0.0657 0.108667 0 0.0665 0.111889 0 0.0673 0.115111 0 0.0681 0.118333 0 0.0689 0.121556 0 0.0697 0.124778 0 0.0705 0.128 0 0.07 0.0783333 0 0.071 0.0816444 0 0.072 0.0849556 0 0.073 0.0882667 0 0.074 0.0915778 0 0.075 0.0948889 0 0.076 0.0982 0 0.077 0.101511 0 0.078 0.104822 0 0.079 0.108133 0 0.08 0.111444 0 0.081 0.114756 0 0.082 0.118067 0 0.083 0.121378 0 0.084 0.124689 0 0.085 0.128 0 0.0815 0.077 0 0.0827 0.0804 0 0.0839 0.0838 0 0.0851 0.0872 0 0.0863 0.0906 0 0.0875 0.094 0 0.0887 0.0974 0 0.0899 0.1008 0 0.0911 0.1042 0 0.0923 0.1076 0 0.0935 0.111 0 0.0947 0.1144 0 0.0959 0.1178 0 0.0971 0.1212 0 0.0983 0.1246 0 0.0995 0.128 0 0.093 0.0756667 0 0.0944 0.0791556 0 0.0958 0.0826444 0 0.0972 0.0861333 0 0.0986 0.0896222 0 0.1 0.0931111 0 0.1014 0.0966 0 0.1028 0.100089 0 0.1042 0.103578 0 0.1056 0.107067 0 0.107 0.110556 0 0.1084 0.114044 0 0.1098 0.117533 0 0.1112 0.121022 0 0.1126 0.124511 0 0.114 0.128 0 0.1045 0.0743333 0 0.1061 0.0779111 0 0.1077 0.0814889 0 0.1093 0.0850667 0 0.1109 0.0886444 0 0.1125 0.0922222 0 0.1141 0.0958 0 0.1157 0.0993778 0 0.1173 0.102956 0 0.1189 0.106533 0 0.1205 0.110111 0 0.1221 0.113689 0 0.1237 0.117267 0 0.1253 0.120844 0 0.1269 0.124422 0 0.1285 0.128 0 0.116 0.073 0 0.1178 0.0766667 0 0.1196 0.0803333 0 0.1214 0.084 0 0.1232 0.0876667 0 0.125 0.0913333 0 0.1268 0.095 0 0.1286 0.0986667 0 0.1304 0.102333 0 0.1322 0.106 0 0.134 0.109667 0 0.1358 0.113333 0 0.1376 0.117 0 0.1394 0.120667 0 0.1412 0.124333 0 0.143 0.128 0 0.1275 0.0716667 0 0.1295 0.0754222 0 0.1315 0.0791778 0 0.1335 0.0829333 0 0.1355 0.0866889 0 0.1375 0.0904444 0 0.1395 0.0942 0 0.1415 0.0979556 0 0.1435 0.101711 0 0.1455 0.105467 0 0.1475 0.109222 0 0.1495 0.112978 0 0.1515 0.116733 0 0.1535 0.120489 0 0.1555 0.124244 0 0.1575 0.128 0 0.139 0.0703333 0 0.1412 0.0741778 0 0.1434 0.0780222 0 0.1456 0.0818667 0 0.1478 0.0857111 0 0.15 0.0895556 0 0.1522 0.0934 0 0.1544 0.0972444 0 0.1566 0.101089 0 0.1588 0.104933 0 0.161 0.108778 0 0.1632 0.112622 0 0.1654 0.116467 0 0.1676 0.120311 0 0.1698 0.124156 0 0.172 0.128 0 0.1505 0.069 0 0.1529 0.0729333 0 0.1553 0.0768667 0 0.1577 0.0808 0 0.1601 0.0847333 0 0.1625 0.0886667 0 0.1649 0.0926 0 0.1673 0.0965333 0 0.1697 0.100467 0 0.1721 0.1044 0 0.1745 0.108333 0 0.1769 0.112267 0 0.1793 0.1162 0 0.1817 0.120133 0 0.1841 0.124067 0 0.1865 0.128 0 0.162 0.0676667 0 0.1646 0.0716889 0 0.1672 0.0757111 0 0.1698 0.0797333 0 0.1724 0.0837556 0 0.175 0.0877778 0 0.1776 0.0918 0 0.1802 0.0958222 0 0.1828 0.0998444 0 0.1854 0.103867 0 0.188 0.107889 0 0.1906 0.111911 0 0.1932 0.115933 0 0.1958 0.119956 0 0.1984 0.123978 0 0.201 0.128 0 0.1735 0.0663333 0 0.1763 0.0704444 0 0.1791 0.0745556 0 0.1819 0.0786667 0 0.1847 0.0827778 0 0.1875 0.0868889 0 0.1903 0.091 0 0.1931 0.0951111 0 0.1959 0.0992222 0 0.1987 0.103333 0 0.2015 0.107444 0 0.2043 0.111556 0 0.2071 0.115667 0 0.2099 0.119778 0 0.2127 0.123889 0 0.2155 0.128 0 0.185 0.065 0 0.188 0.0692 0 0.191 0.0734 0 0.194 0.0776 0 0.197 0.0818 0 0.2 0.086 0 0.203 0.0902 0 0.206 0.0944 0 0.209 0.0986 0 0.212 0.1028 0 0.215 0.107 0 0.218 0.1112 0 0.221 0.1154 0 0.224 0.1196 0 0.227 0.1238 0 0.23 0.128 0 
</DataArray>
</Points> 
</Piece> 
</StructuredGrid> 
</VTKFile> 
