<?xml version="1.0"?> 
<VTKFile type="StructuredGrid" version="0.1"> 
<StructuredGrid WholeExtent="0 15 0 15 0 0"> 
<Piece Extent="0 15 0 15 0 0"> 
<PointData>
<DataArray type="Float32" Name="E" format="ascii" NumberOfComponents="3"> 
2.92429e+06 -1.15813e+06 0 2.93604e+06 -1.16279e+06 0 2.94761e+06 -1.16737e+06 0 2.95898e+06 -1.17187e+06 0 2.97015e+06 -1.1763e+06 0 2.9811e+06 -1.18063e+06 0 2.99181e+06 -1.18488e+06 0 3.00228e+06 -1.18902e+06 0 3.01248e+06 -1.19306e+06 0 3.02239e+06 -1.19698e+06 0 3.03197e+06 -1.20078e+06 0 3.04119e+06 -1.20443e+06 0 3.05002e+06 -1.20793e+06 0 3.05842e+06 -1.21126e+06 0 3.06633e+06 -1.21439e+06 0 3.0737e+06 -1.21731e+06 0 3.22851e+06 -917143 0 3.23915e+06 -922821 0 3.24984e+06 -928440 0 3.26057e+06 -933999 0 3.27137e+06 -939497 0 3.28222e+06 -944933 0 3.29313e+06 -950304 0 3.30411e+06 -955606 0 3.31516e+06 -960836 0 3.3263e+06 -965987 0 3.33751e+06 -971052 0 3.34882e+06 -976023 0 3.36023e+06 -980888 0 3.37175e+06 -985636 0 3.38338e+06 -990252 0 3.39514e+06 -994717 0 3.47803e+06 -688975 0 3.48738e+06 -692490 0 3.4968e+06 -695936 0 3.50628e+06 -699313 0 3.51582e+06 -702623 0 3.52543e+06 -705868 0 3.5351e+06 -709050 0 3.54484e+06 -712173 0 3.55464e+06 -715239 0 3.56451e+06 -718253 0 3.57444e+06 -721222 0 3.58444e+06 -724151 0 3.59451e+06 -727049 0 3.60464e+06 -729926 0 3.61484e+06 -732792 0 3.62511e+06 -735662 0 3.63883e+06 -472832 0 3.64651e+06 -474102 0 3.65424e+06 -475285 0 3.66202e+06 -476379 0 3.66984e+06 -477382 0 3.67772e+06 -478292 0 3.68564e+06 -479107 0 3.69362e+06 -479822 0 3.70164e+06 -480434 0 3.7097e+06 -480939 0 3.71782e+06 -481331 0 3.72597e+06 -481605 0 3.73418e+06 -481754 0 3.74242e+06 -481769 0 3.75071e+06 -481641 0 3.75903e+06 -481359 0 3.71687e+06 -285363 0 3.72257e+06 -284906 0 3.72829e+06 -284369 0 3.73403e+06 -283750 0 3.73979e+06 -283050 0 3.74558e+06 -282270 0 3.75138e+06 -281408 0 3.75721e+06 -280466 0 3.76306e+06 -279444 0 3.76893e+06 -278344 0 3.77482e+06 -277167 0 3.78073e+06 -275916 0 3.78666e+06 -274592 0 3.79261e+06 -273199 0 3.79858e+06 -271742 0 3.80458e+06 -270225 0 3.73278e+06 -142225 0 3.73648e+06 -140795 0 3.74019e+06 -139299 0 3.74391e+06 -137736 0 3.74763e+06 -136104 0 3.75136e+06 -134403 0 3.75509e+06 -132630 0 3.75882e+06 -130784 0 3.76255e+06 -128865 0 3.76627e+06 -126869 0 3.77e+06 -124795 0 3.77372e+06 -122641 0 3.77743e+06 -120404 0 3.78114e+06 -118082 0 3.78483e+06 -115671 0 3.78851e+06 -113167 0 3.71035e+06 -47096.7 0 3.71237e+06 -45371 0 3.71437e+06 -43581.4 0 3.71635e+06 -41729.8 0 3.71832e+06 -39817.5 0 3.72027e+06 -37845.7 0 3.7222e+06 -35815.5 0 3.72411e+06 -33727.6 0 3.72602e+06 -31583 0 3.7279e+06 -29382.2 0 3.72977e+06 -27126.1 0 3.73163e+06 -24815.5 0 3.73347e+06 -22451.2 0 3.7353e+06 -20034.2 0 3.73711e+06 -17565.8 0 3.73891e+06 -15047.4 0 3.67068e+06 2126.28 0 3.67122e+06 3906.31 0 3.67175e+06 5702.05 0 3.67228e+06 7518.26 0 3.6728e+06 9358.92 0 3.6733e+06 11227.3 0 3.67378e+06 13126.1 0 3.67425e+06 15057.7 0 3.6747e+06 17023.6 0 3.67512e+06 19025.6 0 3.67552e+06 21064.7 0 3.6759e+06 23141.9 0 3.67624e+06 25258 0 3.67656e+06 27413.6 0 3.67685e+06 29609.2 0 3.6771e+06 31845.1 0 3.62839e+06 14060 0 3.62796e+06 15057 0 3.62747e+06 16136 0 3.62693e+06 17288 0 3.62635e+06 18505.5 0 3.62572e+06 19782.2 0 3.62506e+06 21113.6 0 3.62436e+06 22495.7 0 3.62362e+06 23926 0 3.62285e+06 25402.4 0 3.62205e+06 26923.7 0 3.62122e+06 28489.5 0 3.62036e+06 30099.7 0 3.61947e+06 31755 0 3.61855e+06 33456.8 0 3.61761e+06 35206.7 0 3.59817e+06 -11086.7 0 3.5966e+06 -10100.2 0 3.59504e+06 -9198.41 0 3.59347e+06 -8362.71 0 3.59188e+06 -7577.62 0 3.59028e+06 -6830.6 0 3.58865e+06 -6111.58 0 3.58699e+06 -5412.72 0 3.5853e+06 -4728.08 0 3.58357e+06 -4053.46 0 3.5818e+06 -3386.23 0 3.57999e+06 -2725.24 0 3.57814e+06 -2070.77 0 3.57623e+06 -1424.5 0 3.57428e+06 -789.545 0 3.57227e+06 -170.464 0 3.58959e+06 -57217.5 0 3.58762e+06 -58903.7 0 3.58552e+06 -60370.7 0 3.58332e+06 -61651.3 0 3.58101e+06 -62772.6 0 3.57863e+06 -63756 0 3.57616e+06 -64618.7 0 3.57361e+06 -65373.1 0 3.571e+06 -66028.5 0 3.56832e+06 -66590.3 0 3.56557e+06 -67061.2 0 3.56277e+06 -67440.7 0 3.55991e+06 -67725.2 0 3.557e+06 -67908.4 0 3.55404e+06 -67980.7 0 3.55103e+06 -67929.7 0 3.62532e+06 -148168 0 3.62198e+06 -148951 0 3.61863e+06 -150089 0 3.61525e+06 -151522 0 3.61184e+06 -153198 0 3.60837e+06 -155077 0 3.60484e+06 -157126 0 3.60124e+06 -159320 0 3.59757e+06 -161640 0 3.59381e+06 -164076 0 3.58998e+06 -166620 0 3.58606e+06 -169274 0 3.58206e+06 -172042 0 3.57796e+06 -174938 0 3.57376e+06 -177978 0 3.56947e+06 -181187 0 3.72653e+06 -244554 0 3.7224e+06 -253748 0 3.71805e+06 -262235 0 3.7135e+06 -270114 0 3.70875e+06 -277467 0 3.70383e+06 -284359 0 3.69873e+06 -290840 0 3.69347e+06 -296948 0 3.68804e+06 -302706 0 3.68245e+06 -308129 0 3.6767e+06 -313219 0 3.67079e+06 -317968 0 3.66473e+06 -322357 0 3.6585e+06 -326355 0 3.65212e+06 -329920 0 3.64557e+06 -332996 0 3.93612e+06 -461651 0 3.92928e+06 -466332 0 3.92217e+06 -472017 0 3.91482e+06 -478546 0 3.90725e+06 -485787 0 3.89946e+06 -493632 0 3.89149e+06 -502002 0 3.88334e+06 -510836 0 3.87503e+06 -520094 0 3.86658e+06 -529755 0 3.858e+06 -539817 0 3.84932e+06 -550295 0 3.84055e+06 -561223 0 3.83174e+06 -572654 0 3.82289e+06 -584662 0 3.81406e+06 -597345 0 4.25076e+06 -673925 0 4.23754e+06 -689218 0 4.22605e+06 -703590 0 4.21601e+06 -717334 0 4.20714e+06 -730696 0 4.19921e+06 -743880 0 4.19195e+06 -757051 0 4.18514e+06 -770336 0 4.17853e+06 -783830 0 4.17189e+06 -797595 0 4.16498e+06 -811663 0 4.15752e+06 -826031 0 4.14925e+06 -840666 0 4.13989e+06 -855500 0 4.1291e+06 -870427 0 4.11655e+06 -885300 0 3.64137e+06 -7.45058e-09 0 3.76854e+06 -3.07409e-10 0 3.88793e+06 1.30967e-10 0 4.00113e+06 -1.60071e-10 0 4.10959e+06 1.92085e-09 0 4.2147e+06 -3.43425e-09 0 4.31775e+06 2.21189e-09 0 4.41998e+06 -3.14321e-09 0 4.52263e+06 3.49246e-09 0 4.62691e+06 -3.0268e-09 0 4.73406e+06 2.09548e-09 0 4.84537e+06 -1.62981e-09 0 4.96218e+06 9.31323e-10 0 5.08594e+06 2.32831e-10 0 5.21821e+06 4.65661e-10 0 5.3607e+06 -7.45058e-09 0 </DataArray> 
</PointData> 
<Points> 
<DataArray type="Float32" NumberOfComponents="3"> 
0.31051 0.0175 0 0.310576 0.0176667 0 0.310642 0.0178333 0 0.310708 0.018 0 0.310774 0.0181667 0 0.31084 0.0183333 0 0.310906 0.0185 0 0.310972 0.0186667 0 0.311038 0.0188333 0 0.311104 0.019 0 0.31117 0.0191667 0 0.311236 0.0193333 0 0.311302 0.0195 0 0.311368 0.0196667 0 0.311434 0.0198333 0 0.3115 0.02 0 0.316009 0.0178 0 0.316071 0.0179689 0 0.316132 0.0181378 0 0.316194 0.0183067 0 0.316256 0.0184756 0 0.316317 0.0186444 0 0.316379 0.0188133 0 0.31644 0.0189822 0 0.316502 0.0191511 0 0.316564 0.01932 0 0.316625 0.0194889 0 0.316687 0.0196578 0 0.316749 0.0198267 0 0.31681 0.0199956 0 0.316872 0.0201644 0 0.316933 0.0203333 0 0.321509 0.0181 0 0.321566 0.0182711 0 0.321623 0.0184422 0 0.32168 0.0186133 0 0.321737 0.0187844 0 0.321795 0.0189556 0 0.321852 0.0191267 0 0.321909 0.0192978 0 0.321966 0.0194689 0 0.322023 0.01964 0 0.322081 0.0198111 0 0.322138 0.0199822 0 0.322195 0.0201533 0 0.322252 0.0203244 0 0.322309 0.0204956 0 0.322367 0.0206667 0 0.327008 0.0184 0 0.327061 0.0185733 0 0.327114 0.0187467 0 0.327166 0.01892 0 0.327219 0.0190933 0 0.327272 0.0192667 0 0.327325 0.01944 0 0.327378 0.0196133 0 0.32743 0.0197867 0 0.327483 0.01996 0 0.327536 0.0201333 0 0.327589 0.0203067 0 0.327642 0.02048 0 0.327694 0.0206533 0 0.327747 0.0208267 0 0.3278 0.021 0 0.332507 0.0187 0 0.332556 0.0188756 0 0.332604 0.0190511 0 0.332652 0.0192267 0 0.332701 0.0194022 0 0.332749 0.0195778 0 0.332798 0.0197533 0 0.332846 0.0199289 0 0.332894 0.0201044 0 0.332943 0.02028 0 0.332991 0.0204556 0 0.33304 0.0206311 0 0.333088 0.0208067 0 0.333137 0.0209822 0 0.333185 0.0211578 0 0.333233 0.0213333 0 0.338007 0.019 0 0.338051 0.0191778 0 0.338095 0.0193556 0 0.338139 0.0195333 0 0.338183 0.0197111 0 0.338227 0.0198889 0 0.338271 0.0200667 0 0.338315 0.0202444 0 0.338359 0.0204222 0 0.338403 0.0206 0 0.338447 0.0207778 0 0.338491 0.0209556 0 0.338535 0.0211333 0 0.338579 0.0213111 0 0.338623 0.0214889 0 0.338667 0.0216667 0 0.343506 0.0193 0 0.343546 0.01948 0 0.343585 0.01966 0 0.343625 0.01984 0 0.343664 0.02002 0 0.343704 0.0202 0 0.343744 0.02038 0 0.343783 0.02056 0 0.343823 0.02074 0 0.343862 0.02092 0 0.343902 0.0211 0 0.343942 0.02128 0 0.343981 0.02146 0 0.344021 0.02164 0 0.34406 0.02182 0 0.3441 0.022 0 0.349005 0.0196 0 0.34904 0.0197822 0 0.349076 0.0199644 0 0.349111 0.0201467 0 0.349146 0.0203289 0 0.349181 0.0205111 0 0.349217 0.0206933 0 0.349252 0.0208756 0 0.349287 0.0210578 0 0.349322 0.02124 0 0.349357 0.0214222 0 0.349393 0.0216044 0 0.349428 0.0217867 0 0.349463 0.0219689 0 0.349498 0.0221511 0 0.349533 0.0223333 0 0.354505 0.0199 0 0.354535 0.0200844 0 0.354566 0.0202689 0 0.354597 0.0204533 0 0.354628 0.0206378 0 0.354659 0.0208222 0 0.354689 0.0210067 0 0.35472 0.0211911 0 0.354751 0.0213756 0 0.354782 0.02156 0 0.354813 0.0217444 0 0.354843 0.0219289 0 0.354874 0.0221133 0 0.354905 0.0222978 0 0.354936 0.0224822 0 0.354967 0.0226667 0 0.360004 0.0202 0 0.36003 0.0203867 0 0.360057 0.0205733 0 0.360083 0.02076 0 0.36011 0.0209467 0 0.360136 0.0211333 0 0.360162 0.02132 0 0.360189 0.0215067 0 0.360215 0.0216933 0 0.360242 0.02188 0 0.360268 0.0220667 0 0.360294 0.0222533 0 0.360321 0.02244 0 0.360347 0.0226267 0 0.360374 0.0228133 0 0.3604 0.023 0 0.365503 0.0205 0 0.365525 0.0206889 0 0.365547 0.0208778 0 0.365569 0.0210667 0 0.365591 0.0212556 0 0.365613 0.0214444 0 0.365635 0.0216333 0 0.365657 0.0218222 0 0.365679 0.0220111 0 0.365701 0.0222 0 0.365723 0.0223889 0 0.365745 0.0225778 0 0.365767 0.0227667 0 0.365789 0.0229556 0 0.365811 0.0231444 0 0.365833 0.0233333 0 0.371003 0.0208 0 0.37102 0.0209911 0 0.371038 0.0211822 0 0.371055 0.0213733 0 0.371073 0.0215644 0 0.371091 0.0217556 0 0.371108 0.0219467 0 0.371126 0.0221378 0 0.371143 0.0223289 0 0.371161 0.02252 0 0.371179 0.0227111 0 0.371196 0.0229022 0 0.371214 0.0230933 0 0.371231 0.0232844 0 0.371249 0.0234756 0 0.371267 0.0236667 0 0.376502 0.0211 0 0.376515 0.0212933 0 0.376528 0.0214867 0 0.376542 0.02168 0 0.376555 0.0218733 0 0.376568 0.0220667 0 0.376581 0.02226 0 0.376594 0.0224533 0 0.376608 0.0226467 0 0.376621 0.02284 0 0.376634 0.0230333 0 0.376647 0.0232267 0 0.37666 0.02342 0 0.376674 0.0236133 0 0.376687 0.0238067 0 0.3767 0.024 0 0.382001 0.0214 0 0.38201 0.0215956 0 0.382019 0.0217911 0 0.382028 0.0219867 0 0.382037 0.0221822 0 0.382045 0.0223778 0 0.382054 0.0225733 0 0.382063 0.0227689 0 0.382072 0.0229644 0 0.382081 0.02316 0 0.382089 0.0233556 0 0.382098 0.0235511 0 0.382107 0.0237467 0 0.382116 0.0239422 0 0.382125 0.0241378 0 0.382133 0.0243333 0 0.387501 0.0217 0 0.387505 0.0218978 0 0.387509 0.0220956 0 0.387514 0.0222933 0 0.387518 0.0224911 0 0.387523 0.0226889 0 0.387527 0.0228867 0 0.387531 0.0230844 0 0.387536 0.0232822 0 0.38754 0.02348 0 0.387545 0.0236778 0 0.387549 0.0238756 0 0.387553 0.0240733 0 0.387558 0.0242711 0 0.387562 0.0244689 0 0.387567 0.0246667 0 0.393 0.022 0 0.393 0.0222 0 0.393 0.0224 0 0.393 0.0226 0 0.393 0.0228 0 0.393 0.023 0 0.393 0.0232 0 0.393 0.0234 0 0.393 0.0236 0 0.393 0.0238 0 0.393 0.024 0 0.393 0.0242 0 0.393 0.0244 0 0.393 0.0246 0 0.393 0.0248 0 0.393 0.025 0 
</DataArray>
</Points> 
</Piece> 
</StructuredGrid> 
</VTKFile> 
