<?xml version="1.0"?> 
<VTKFile type="StructuredGrid" version="0.1"> 
<StructuredGrid WholeExtent="0 15 0 15 0 0"> 
<Piece Extent="0 15 0 15 0 0"> 
<PointData>
<DataArray type="Float32" Name="E" format="ascii" NumberOfComponents="3"> 
1.49912e+06 0 0 962514 -2.77767e-07 0 664978 2.04891e-08 0 487700 1.56462e-07 0 373720 -3.72529e-08 0 294896 1.08033e-07 0 236835 -8.9407e-08 0 191791 -3.72529e-08 0 155369 2.98023e-08 0 124914 2.98023e-08 0 98721.6 -8.9407e-08 0 75628.1 1.3411e-07 0 54793.5 -1.19209e-07 0 35576.2 5.96046e-08 0 17459 0 0 -5.96046e-08 1.19209e-06 0 133100 -467106 0 189728 -413822 0 202636 -351039 0 195577 -293453 0 179851 -245174 0 160856 -206199 0 141138 -175239 0 121864 -150803 0 103515 -131564 0 86233 -116451 0 69996.1 -104639 0 54700.6 -95503.8 0 40207.4 -88588 0 26363.4 -83559.4 0 13012.4 -80187.5 0 9.51695e-09 -78325.7 0 -14530.3 -393830 0 -1005.2 -340725 0 12259.9 -304705 0 22653.6 -276020 0 29659.9 -251141 0 33573.1 -228967 0 34937.2 -209207 0 34311.8 -191777 0 32188.2 -176614 0 28967.3 -163622 0 24964.4 -152680 0 20422.2 -143655 0 15526.5 -136417 0 10419.6 -130849 0 5213.47 -126853 0 -5.68107e-08 -124352 0 -85322 -235016 0 -69290.1 -237640 0 -55701.7 -230682 0 -44210.5 -220380 0 -34578.7 -209282 0 -26607.9 -198390 0 -20110.9 -188105 0 -14903.6 -178600 0 -10806.5 -169952 0 -7646.78 -162202 0 -5261.29 -155370 0 -3497.91 -149461 0 -2215.84 -144472 0 -1284.92 -140392 0 -584.188 -137204 0 8.82428e-08 -134889 0 -96965 -187667 0 -84875.9 -176708 0 -74192 -170303 0 -64562.9 -165407 0 -55846.8 -160912 0 -47966.8 -156500 0 -40860 -152131 0 -34462.3 -147859 0 -28704.1 -143751 0 -23512.2 -139870 0 -18810.7 -136266 0 -14522.9 -132977 0 -10572.5 -130026 0 -6884.1 -127431 0 -3383.94 -125199 0 -1.00583e-07 -123329 0 -86169.2 -116820 0 -78535.2 -120456 0 -70839.1 -121182 0 -63430 -120677 0 -56412 -119620 0 -49799.9 -118284 0 -43577.5 -116786 0 -37718.2 -115188 0 -32191.7 -113531 0 -26965.9 -111848 0 -22007.6 -110167 0 -17282.3 -108511 0 -12754.6 -106900 0 -8388.91 -105347 0 -4149.25 -103862 0 1.18278e-07 -102450 0 -70811.8 -85880.1 0 -64635.3 -85355.3 0 -58973.2 -85696.8 0 -53569.7 -86162.8 0 -48344.9 -86492.6 0 -43278.3 -86618.4 0 -38366.1 -86540.6 0 -33606.1 -86281 0 -28993.8 -85865.2 0 -24522 -85316.9 0 -20180.9 -84656.7 0 -15959.1 -83901.7 0 -11843.9 -83065.5 0 -7821.72 -82159 0 -3878.48 -81189.8 0 -1.02445e-07 -80163 0 -53127.9 -55961.3 0 -49559.6 -58276.1 0 -45770.8 -59789.6 0 -41945.8 -60877.2 0 -38149 -61691.2 0 -34401.5 -62293.2 0 -30709.8 -62712 0 -27075.9 -62964.2 0 -23500.2 -63062.7 0 -19982.4 -63018.5 0 -16521.7 -62841.8 0 -13116.5 -62541.6 0 -9764.5 -62125.8 0 -6463.14 -61601.2 0 -3209.39 -60973.2 0 1.22935e-07 -60245.9 0 -39442.3 -39631.6 0 -36630.5 -40620.1 0 -33938.5 -41669.2 0 -31270.2 -42633.1 0 -28600.1 -43462.1 0 -25926.4 -44144.4 0 -23254.3 -44681.9 0 -20589.7 -45080.6 0 -17937.9 -45347.3 0 -15303 -45488.7 0 -12688.6 -45510.7 0 -10097.1 -45418.8 0 -7530.88 -45217.5 0 -4991.63 -44911.3 0 -2480.9 -44503.5 0 -1.19209e-07 -43997.4 0 -28014.3 -26728.2 0 -26341.3 -27897.7 0 -24547.6 -28858.3 0 -22700.3 -29672.1 0 -20824.9 -30364.2 0 -18931.8 -30945.1 0 -17027 -31420 0 -15114.8 -31792.7 0 -13199.3 -32065.9 0 -11284.4 -32242.7 0 -9373.8 -32325.8 0 -7470.93 -32318 0 -5579.1 -32221.8 0 -3701.41 -32039.7 0 -1840.78 -31773.9 0 8.19564e-08 -31426.7 0 -20047.1 -18501.8 0 -18769.4 -19210.9 0 -17503.4 -19869.5 0 -16220.7 -20460.2 0 -14915.3 -20977.4 0 -13589 -21419.9 0 -12245.6 -21788.3 0 -10889.2 -22083.9 0 -9523.79 -22308 0 -8153.07 -22462.2 0 -6780.51 -22548 0 -5409.39 -22566.7 0 -4042.83 -22519.8 0 -2683.83 -22408.9 0 -1335.28 -22235.3 0 -4.84288e-08 -22000.4 0 -14173.3 -12488.5 0 -13356.2 -13006.8 0 -12487.8 -13470.7 0 -11588.8 -13882.5 0 -10667.9 -14243.3 0 -9729.49 -14553.9 0 -8776.72 -14814.7 0 -7812.39 -15026.5 0 -6839.22 -15189.6 0 -5859.9 -15304.9 0 -4877.09 -15373 0 -3893.42 -15394.7 0 -2911.41 -15370.7 0 -1933.57 -15301.9 0 -962.308 -15189.2 0 0 -15033.4 0 -10310.7 -8196.55 0 -9688.02 -8533.14 0 -9056.82 -8833.25 0 -8410.49 -9100.03 0 -7748.5 -9334.6 0 -7072.39 -9537.31 0 -6384.27 -9708.36 0 -5686.34 -9847.94 0 -4980.79 -9956.28 0 -4269.73 -10033.7 0 -3555.23 -10080.4 0 -2839.29 -10097 0 -2123.88 -10083.8 0 -1410.94 -10041.3 0 -702.366 -9969.94 0 1.49012e-08 -9870.39 0 -7776.73 -4984.98 0 -7326.95 -5167.64 0 -6855.58 -5338.89 0 -6368.47 -5493.94 0 -5868.54 -5631.12 0 -5357.75 -5749.95 0 -4837.75 -5850.34 0 -4310.1 -5932.36 0 -3776.38 -5996.11 0 -3238.15 -6041.74 0 -2696.97 -6069.42 0 -2154.38 -6079.36 0 -1611.9 -6071.78 0 -1071.03 -6046.93 0 -533.252 -6005.11 0 1.49012e-08 -5946.61 0 -6370.93 -2343.7 0 -5993.98 -2439.68 0 -5606.2 -2520.38 0 -5207.56 -2590.64 0 -4798.92 -2652.08 0 -4381.44 -2705.18 0 -3956.41 -2750.05 0 -3525.11 -2786.7 0 -3088.81 -2815.16 0 -2648.79 -2835.45 0 -2206.31 -2847.65 0 -1762.62 -2851.83 0 -1318.93 -2848.09 0 -876.475 -2836.53 0 -436.439 -2817.27 0 0 -2790.47 0 -5844.77 -1.90735e-06 0 -5491.7 1.91154e-07 0 -5133.7 -6.79865e-08 0 -4767.23 5.99772e-07 0 -4392.09 -5.7742e-07 0 -4009.17 3.50177e-07 0 -3619.58 -4.47035e-08 0 -3224.49 -3.57628e-07 0 -2825.06 4.76837e-07 0 -2422.41 -2.5332e-07 0 -2017.65 2.68221e-07 0 -1611.87 -4.17233e-07 0 -1206.16 2.38419e-07 0 -801.577 -1.19209e-07 0 -399.179 -1.19209e-07 0 0 4.05312e-06 0 </DataArray> 
</PointData> 
<Points> 
<DataArray type="Float32" NumberOfComponents="3"> 
0.2525 0.035 0 0.2525 0.0356667 0 0.2525 0.0363333 0 0.2525 0.037 0 0.2525 0.0376667 0 0.2525 0.0383333 0 0.2525 0.039 0 0.2525 0.0396667 0 0.2525 0.0403333 0 0.2525 0.041 0 0.2525 0.0416667 0 0.2525 0.0423333 0 0.2525 0.043 0 0.2525 0.0436667 0 0.2525 0.0443333 0 0.2525 0.045 0 0.2558 0.0351867 0 0.2558 0.0358409 0 0.2558 0.0364951 0 0.2558 0.0371493 0 0.2558 0.0378036 0 0.2558 0.0384578 0 0.2558 0.039112 0 0.2558 0.0397662 0 0.2558 0.0404204 0 0.2558 0.0410747 0 0.2558 0.0417289 0 0.2558 0.0423831 0 0.2558 0.0430373 0 0.2558 0.0436916 0 0.2558 0.0443458 0 0.2558 0.045 0 0.2591 0.0353733 0 0.2591 0.0360151 0 0.2591 0.0366569 0 0.2591 0.0372987 0 0.2591 0.0379404 0 0.2591 0.0385822 0 0.2591 0.039224 0 0.2591 0.0398658 0 0.2591 0.0405076 0 0.2591 0.0411493 0 0.2591 0.0417911 0 0.2591 0.0424329 0 0.2591 0.0430747 0 0.2591 0.0437164 0 0.2591 0.0443582 0 0.2591 0.045 0 0.2624 0.03556 0 0.2624 0.0361893 0 0.2624 0.0368187 0 0.2624 0.037448 0 0.2624 0.0380773 0 0.2624 0.0387067 0 0.2624 0.039336 0 0.2624 0.0399653 0 0.2624 0.0405947 0 0.2624 0.041224 0 0.2624 0.0418533 0 0.2624 0.0424827 0 0.2624 0.043112 0 0.2624 0.0437413 0 0.2624 0.0443707 0 0.2624 0.045 0 0.2657 0.0357467 0 0.2657 0.0363636 0 0.2657 0.0369804 0 0.2657 0.0375973 0 0.2657 0.0382142 0 0.2657 0.0388311 0 0.2657 0.039448 0 0.2657 0.0400649 0 0.2657 0.0406818 0 0.2657 0.0412987 0 0.2657 0.0419156 0 0.2657 0.0425324 0 0.2657 0.0431493 0 0.2657 0.0437662 0 0.2657 0.0443831 0 0.2657 0.045 0 0.269 0.0359333 0 0.269 0.0365378 0 0.269 0.0371422 0 0.269 0.0377467 0 0.269 0.0383511 0 0.269 0.0389556 0 0.269 0.03956 0 0.269 0.0401644 0 0.269 0.0407689 0 0.269 0.0413733 0 0.269 0.0419778 0 0.269 0.0425822 0 0.269 0.0431867 0 0.269 0.0437911 0 0.269 0.0443956 0 0.269 0.045 0 0.2723 0.03612 0 0.2723 0.036712 0 0.2723 0.037304 0 0.2723 0.037896 0 0.2723 0.038488 0 0.2723 0.03908 0 0.2723 0.039672 0 0.2723 0.040264 0 0.2723 0.040856 0 0.2723 0.041448 0 0.2723 0.04204 0 0.2723 0.042632 0 0.2723 0.043224 0 0.2723 0.043816 0 0.2723 0.044408 0 0.2723 0.045 0 0.2756 0.0363067 0 0.2756 0.0368862 0 0.2756 0.0374658 0 0.2756 0.0380453 0 0.2756 0.0386249 0 0.2756 0.0392044 0 0.2756 0.039784 0 0.2756 0.0403636 0 0.2756 0.0409431 0 0.2756 0.0415227 0 0.2756 0.0421022 0 0.2756 0.0426818 0 0.2756 0.0432613 0 0.2756 0.0438409 0 0.2756 0.0444204 0 0.2756 0.045 0 0.2789 0.0364933 0 0.2789 0.0370604 0 0.2789 0.0376276 0 0.2789 0.0381947 0 0.2789 0.0387618 0 0.2789 0.0393289 0 0.2789 0.039896 0 0.2789 0.0404631 0 0.2789 0.0410302 0 0.2789 0.0415973 0 0.2789 0.0421644 0 0.2789 0.0427316 0 0.2789 0.0432987 0 0.2789 0.0438658 0 0.2789 0.0444329 0 0.2789 0.045 0 0.2822 0.03668 0 0.2822 0.0372347 0 0.2822 0.0377893 0 0.2822 0.038344 0 0.2822 0.0388987 0 0.2822 0.0394533 0 0.2822 0.040008 0 0.2822 0.0405627 0 0.2822 0.0411173 0 0.2822 0.041672 0 0.2822 0.0422267 0 0.2822 0.0427813 0 0.2822 0.043336 0 0.2822 0.0438907 0 0.2822 0.0444453 0 0.2822 0.045 0 0.2855 0.0368667 0 0.2855 0.0374089 0 0.2855 0.0379511 0 0.2855 0.0384933 0 0.2855 0.0390356 0 0.2855 0.0395778 0 0.2855 0.04012 0 0.2855 0.0406622 0 0.2855 0.0412044 0 0.2855 0.0417467 0 0.2855 0.0422889 0 0.2855 0.0428311 0 0.2855 0.0433733 0 0.2855 0.0439156 0 0.2855 0.0444578 0 0.2855 0.045 0 0.2888 0.0370533 0 0.2888 0.0375831 0 0.2888 0.0381129 0 0.2888 0.0386427 0 0.2888 0.0391724 0 0.2888 0.0397022 0 0.2888 0.040232 0 0.2888 0.0407618 0 0.2888 0.0412916 0 0.2888 0.0418213 0 0.2888 0.0423511 0 0.2888 0.0428809 0 0.2888 0.0434107 0 0.2888 0.0439404 0 0.2888 0.0444702 0 0.2888 0.045 0 0.2921 0.03724 0 0.2921 0.0377573 0 0.2921 0.0382747 0 0.2921 0.038792 0 0.2921 0.0393093 0 0.2921 0.0398267 0 0.2921 0.040344 0 0.2921 0.0408613 0 0.2921 0.0413787 0 0.2921 0.041896 0 0.2921 0.0424133 0 0.2921 0.0429307 0 0.2921 0.043448 0 0.2921 0.0439653 0 0.2921 0.0444827 0 0.2921 0.045 0 0.2954 0.0374267 0 0.2954 0.0379316 0 0.2954 0.0384364 0 0.2954 0.0389413 0 0.2954 0.0394462 0 0.2954 0.0399511 0 0.2954 0.040456 0 0.2954 0.0409609 0 0.2954 0.0414658 0 0.2954 0.0419707 0 0.2954 0.0424756 0 0.2954 0.0429804 0 0.2954 0.0434853 0 0.2954 0.0439902 0 0.2954 0.0444951 0 0.2954 0.045 0 0.2987 0.0376133 0 0.2987 0.0381058 0 0.2987 0.0385982 0 0.2987 0.0390907 0 0.2987 0.0395831 0 0.2987 0.0400756 0 0.2987 0.040568 0 0.2987 0.0410604 0 0.2987 0.0415529 0 0.2987 0.0420453 0 0.2987 0.0425378 0 0.2987 0.0430302 0 0.2987 0.0435227 0 0.2987 0.0440151 0 0.2987 0.0445076 0 0.2987 0.045 0 0.302 0.0378 0 0.302 0.03828 0 0.302 0.03876 0 0.302 0.03924 0 0.302 0.03972 0 0.302 0.0402 0 0.302 0.04068 0 0.302 0.04116 0 0.302 0.04164 0 0.302 0.04212 0 0.302 0.0426 0 0.302 0.04308 0 0.302 0.04356 0 0.302 0.04404 0 0.302 0.04452 0 0.302 0.045 0 
</DataArray>
</Points> 
</Piece> 
</StructuredGrid> 
</VTKFile> 
