<?xml version="1.0"?> 
<VTKFile type="StructuredGrid" version="0.1"> 
<StructuredGrid WholeExtent="0 15 0 15 0 0"> 
<Piece Extent="0 15 0 15 0 0"> 
<PointData>
<DataArray type="Float32" Name="E" format="ascii" NumberOfComponents="3"> 
1.78491e+06 9.04162 0 1.78458e+06 86359 0 1.78356e+06 173858 0 1.78182e+06 263695 0 1.77926e+06 357205 0 1.77577e+06 455946 0 1.77119e+06 561825 0 1.76536e+06 677278 0 1.75813e+06 805563 0 1.74942e+06 951252 0 1.73941e+06 1.12111e+06 0 1.72885e+06 1.32576e+06 0 1.71957e+06 1.58297e+06 0 1.71578e+06 1.92453e+06 0 1.72566e+06 2.41108e+06 0 1.76169e+06 3.1625e+06 0 1.71446e+06 7.88962 0 1.71426e+06 82874.1 0 1.71286e+06 167043 0 1.71016e+06 253584 0 1.70602e+06 343715 0 1.70021e+06 438869 0 1.69241e+06 540808 0 1.6822e+06 651791 0 1.66901e+06 774841 0 1.6521e+06 914204 0 1.63048e+06 1.07613e+06 0 1.60283e+06 1.27041e+06 0 1.56714e+06 1.51328e+06 0 1.51996e+06 1.8335e+06 0 1.45435e+06 2.28562e+06 0 1.3534e+06 2.97582e+06 0 1.64443e+06 6.97605 0 1.64413e+06 79664.8 0 1.64216e+06 160735 0 1.63839e+06 244184 0 1.6326e+06 331118 0 1.62446e+06 422850 0 1.6135e+06 520993 0 1.59906e+06 627621 0 1.5802e+06 745497 0 1.5556e+06 878483 0 1.52326e+06 1.03222e+06 0 1.4801e+06 1.21545e+06 0 1.42093e+06 1.44244e+06 0 1.33612e+06 1.73802e+06 0 1.20619e+06 2.14839e+06 0 988192 2.76311e+06 0 1.57503e+06 6.21081 0 1.57443e+06 76751 0 1.57175e+06 154977 0 1.5668e+06 235556 0 1.5593e+06 319493 0 1.54882e+06 407982 0 1.53475e+06 502492 0 1.51622e+06 604897 0 1.49196e+06 717684 0 1.46012e+06 844290 0 1.41789e+06 989673 0 1.36072e+06 1.16136e+06 0 1.28088e+06 1.37133e+06 0 1.16394e+06 1.63984e+06 0 980912 2.0031e+06 0 668345 2.52923e+06 0 1.50645e+06 5.61997 0 1.5054e+06 74145.8 0 1.50188e+06 149796 0 1.49567e+06 227743 0 1.48642e+06 308898 0 1.4736e+06 394339 0 1.45648e+06 485387 0 1.43398e+06 583716 0 1.40456e+06 691518 0 1.36593e+06 811776 0 1.31457e+06 948700 0 1.24481e+06 1.10849e+06 0 1.14695e+06 1.30067e+06 0 1.00319e+06 1.54042e+06 0 778200 1.85302e+06 0 395737 2.28155e+06 0 1.43887e+06 5.1329 0 1.43726e+06 71855.8 0 1.43284e+06 145209 0 1.42531e+06 220773 0 1.41428e+06 299370 0 1.39914e+06 381965 0 1.37901e+06 469733 0 1.35267e+06 564139 0 1.31832e+06 667071 0 1.2733e+06 781035 0 1.21355e+06 909448 0 1.13254e+06 1.05712e+06 0 1.01922e+06 1.23097e+06 0 853718 1.44096e+06 0 597637 1.70111e+06 0 170687 2.02835e+06 0 1.37246e+06 4.72284 0 1.37025e+06 69881.1 0 1.36488e+06 141217 0 1.35602e+06 214652 0 1.3432e+06 290920 0 1.32575e+06 370877 0 1.30268e+06 455549 0 1.27262e+06 546190 0 1.23356e+06 644372 0 1.18256e+06 752104 0 1.11513e+06 871987 0 1.02415e+06 1.0074e+06 0 897809 1.16261e+06 0 715428 1.34241e+06 0 438648 1.54996e+06 0 -8365.51 1.77776e+06 0 1.30738e+06 4.33694 0 1.30457e+06 68215.3 0 1.29825e+06 137814 0 1.28806e+06 209371 0 1.27348e+06 283538 0 1.25376e+06 361063 0 1.22782e+06 442821 0 1.19417e+06 529850 0 1.15063e+06 623399 0 1.09403e+06 724968 0 1.0196e+06 836320 0 919897 959393 0 782891 1.09585e+06 0 588265 1.24556e+06 0 300478 1.40184e+06 0 -144736 1.53695e+06 0 1.24379e+06 3.95649 0 1.24042e+06 66846.8 0 1.23318e+06 134977 0 1.2217e+06 204901 0 1.2054e+06 277190 0 1.18346e+06 352482 0 1.15474e+06 431501 0 1.11763e+06 515064 0 1.06984e+06 604090 0 1.00802e+06 699556 0 927270 802387 0 820062 913092 0 674664 1.03084e+06 0 472184 1.15101e+06 0 182183 1.25865e+06 0 -243098 1.31164e+06 0 1.1818e+06 3.58103 0 1.17796e+06 65758.7 0 1.16988e+06 132676 0 1.15716e+06 201201 0 1.1392e+06 271823 0 1.11512e+06 345070 0 1.08371e+06 421511 0 1.04329e+06 501740 0 991466 586337 0 924825 675752 0 838419 770073 0 724911 868422 0 573321 967657 0 367116 1.05924e+06 0 82642.7 1.12193e+06 0 -308957 1.1058e+06 0 1.12155e+06 3.21397 0 1.11734e+06 64929.9 0 1.10852e+06 130872 0 1.09465e+06 198215 0 1.0751e+06 267366 0 1.04896e+06 338740 0 1.01498e+06 412750 0 971391 489758 0 915769 570000 0 844690 653401 0 753301 739220 0 634685 825264 0 479035 906307 0 272944 970646 0 575.233 992909 0 -348096 921700 0 1.06312e+06 2.84712 0 1.0587e+06 64336.2 0 1.04925e+06 129521 0 1.03433e+06 195879 0 1.01329e+06 263735 0 985182 333389 0 948723 405092 0 902126 478972 0 842945 554914 0 767820 632317 0 672127 709638 0 549586 783464 0 391943 846772 0 189484 885521 0 -65424.9 872454 0 -366082 759989 0 1.0066e+06 2.44628 0 1.00214e+06 63951.2 0 992192 128572 0 976332 194121 0 953891 260837 0 923916 328904 0 885095 398402 0 835641 469221 0 773142 540892 0 694371 612295 0 595057 681117 0 469770 742851 0 312128 789015 0 116474 804125 0 -116842 761157 0 -367873 620020 0 952067 1.993 0 947736 63747.1 0 937440 127972 0 920754 192866 0 897012 258576 0 865262 325163 0 824190 392535 0 772032 460336 0 706458 527741 0 624446 593123 0 522208 653447 0 395347 703259 0 239619 733009 0 53569.1 726679 0 -155182 659344 0 -357496 500106 0 899557 1.44237 0 895555 63695.7 0 885054 127670 0 867656 192038 0 842709 256852 0 809273 322044 0 766056 387345 0 711346 452144 0 642943 515265 0 558106 574587 0 453653 626421 0 326381 664536 0 174391 678748 0 337.17 653383 0 -181883 567160 0 -337709 397709 0 849112 0.778288 0 845630 63769.1 0 835067 127612 0 817065 191562 0 791001 255568 0 755961 319428 0 710698 382686 0 653585 444477 0 582599 503274 0 495363 556485 0 389415 599852 0 262880 626560 0 116349 626256 0 -43767.4 584437 0 -198193 484669 0 -309432 309432 0 </DataArray> 
</PointData> 
<Points> 
<DataArray type="Float32" NumberOfComponents="3"> 
0.392738 0 0 0.392738 0.000693704 0 0.392738 0.00138741 0 0.392738 0.00208111 0 0.392738 0.00277482 0 0.392738 0.00346852 0 0.392738 0.00416223 0 0.392738 0.00485593 0 0.392738 0.00554964 0 0.392738 0.00624334 0 0.392738 0.00693704 0 0.392738 0.00763075 0 0.392738 0.00832445 0 0.392738 0.00901816 0 0.392738 0.00971186 0 0.392738 0.0104056 0 0.393022 0 0 0.39302 0.000668877 0 0.393019 0.00134 0 0.393017 0.00201339 0 0.393016 0.00268905 0 0.393014 0.00336699 0 0.393012 0.00404723 0 0.393011 0.00472977 0 0.393009 0.00541464 0 0.393007 0.00610183 0 0.393006 0.00679137 0 0.393004 0.00748326 0 0.393002 0.00817752 0 0.393001 0.00887415 0 0.392999 0.00957318 0 0.392997 0.0102746 0 0.393306 0 0 0.393304 0.000647908 0 0.393302 0.00129987 0 0.3933 0.00195594 0 0.393298 0.00261613 0 0.393296 0.00328051 0 0.393293 0.00394909 0 0.393291 0.00462193 0 0.393289 0.00529907 0 0.393287 0.00598054 0 0.393284 0.00666639 0 0.393282 0.00735666 0 0.39328 0.00805139 0 0.393278 0.00875063 0 0.393275 0.00945442 0 0.393273 0.0101628 0 0.39359 0 0 0.393589 0.00063083 0 0.393587 0.00126714 0 0.393585 0.00190901 0 0.393583 0.00255651 0 0.393582 0.00320971 0 0.39358 0.00386869 0 0.393578 0.00453353 0 0.393576 0.0052043 0 0.393575 0.00588109 0 0.393573 0.00656397 0 0.393571 0.00725303 0 0.393569 0.00794835 0 0.393567 0.00865002 0 0.393565 0.00935813 0 0.393563 0.0100728 0 0.393874 0 0 0.393874 0.000617669 0 0.393873 0.00124191 0 0.393873 0.00187284 0 0.393872 0.00251055 0 0.393872 0.00315517 0 0.393871 0.00380679 0 0.39387 0.00446555 0 0.39387 0.00513154 0 0.393869 0.0058049 0 0.393868 0.00648575 0 0.393868 0.00717421 0 0.393867 0.00787042 0 0.393867 0.00857449 0 0.393866 0.00928658 0 0.393865 0.0100068 0 0.394159 0 0 0.39416 0.000608446 0 0.394161 0.00122426 0 0.394162 0.00184759 0 0.394163 0.00247856 0 0.394164 0.00311731 0 0.394165 0.00376399 0 0.394166 0.00441876 0 0.394167 0.00508175 0 0.394169 0.00575314 0 0.39417 0.00643307 0 0.394171 0.00712171 0 0.394172 0.00781924 0 0.394174 0.00852582 0 0.394175 0.00924163 0 0.394176 0.00996685 0 0.394443 0 0 0.394446 0.000603176 0 0.394449 0.00121425 0 0.394452 0.00183339 0 0.394455 0.00246073 0 0.394458 0.00309646 0 0.394461 0.00374074 0 0.394465 0.00439375 0 0.394468 0.00505565 0 0.394471 0.00572665 0 0.394475 0.00640691 0 0.394478 0.00709665 0 0.394481 0.00779604 0 0.394485 0.00850532 0 0.394489 0.00922467 0 0.394492 0.00995432 0 0.394727 0 0 0.394732 0.00060187 0 0.394737 0.00121192 0 0.394742 0.00183031 0 0.394747 0.00245723 0 0.394753 0.00309284 0 0.394758 0.00373733 0 0.394764 0.00439088 0 0.394769 0.00505369 0 0.394775 0.00572596 0 0.39478 0.00640789 0 0.394786 0.00709969 0 0.394792 0.00780158 0 0.394798 0.00851377 0 0.394804 0.0092365 0 0.39481 0.00997001 0 0.395011 0 0 0.395018 0.000604529 0 0.395025 0.00121727 0 0.395032 0.0018384 0 0.395039 0.00246809 0 0.395047 0.0031065 0 0.395054 0.00375384 0 0.395062 0.00441028 0 0.395069 0.00507603 0 0.395077 0.00575127 0 0.395085 0.00643621 0 0.395093 0.00713107 0 0.395101 0.00783605 0 0.395109 0.00855139 0 0.395118 0.00927732 0 0.395126 0.0100141 0 0.395295 0 0 0.395304 0.000611154 0 0.395312 0.00123031 0 0.395321 0.00185763 0 0.39533 0.00249328 0 0.395339 0.00313742 0 0.395348 0.00379022 0 0.395357 0.00445186 0 0.395367 0.00512252 0 0.395376 0.00580238 0 0.395386 0.00649165 0 0.395396 0.0071905 0 0.395406 0.00789915 0 0.395416 0.0086178 0 0.395426 0.00934667 0 0.395436 0.010086 0 0.395579 0 0 0.395589 0.000621735 0 0.395599 0.001251 0 0.395609 0.00188794 0 0.395618 0.00253269 0 0.395629 0.00318539 0 0.395639 0.0038462 0 0.395649 0.00451527 0 0.39566 0.00519274 0 0.39567 0.00587879 0 0.395681 0.00657357 0 0.395692 0.00727726 0 0.395703 0.00799002 0 0.395714 0.00871203 0 0.395725 0.00944348 0 0.395737 0.0101845 0 0.395863 0 0 0.395873 0.00063626 0 0.395883 0.00127929 0 0.395894 0.00192921 0 0.395904 0.00258612 0 0.395914 0.00325014 0 0.395925 0.00392138 0 0.395935 0.00459996 0 0.395946 0.005286 0 0.395957 0.00597963 0 0.395968 0.00668097 0 0.395979 0.00739015 0 0.39599 0.00810731 0 0.396002 0.00883258 0 0.396013 0.0095661 0 0.396025 0.010308 0 0.396148 0 0 0.396157 0.00065471 0 0.396166 0.00131511 0 0.396176 0.00198128 0 0.396186 0.00265329 0 0.396195 0.00333122 0 0.396205 0.00401515 0 0.396215 0.00470515 0 0.396225 0.00540131 0 0.396235 0.00610372 0 0.396245 0.00681245 0 0.396255 0.0075276 0 0.396266 0.00824924 0 0.396276 0.00897747 0 0.396287 0.00971239 0 0.396297 0.0104541 0 0.396432 0 0 0.396439 0.00067706 0 0.396447 0.00135836 0 0.396455 0.00204394 0 0.396463 0.00273384 0 0.39647 0.00342811 0 0.396478 0.00412678 0 0.396486 0.00482989 0 0.396494 0.00553749 0 0.396502 0.00624963 0 0.39651 0.00696633 0 0.396519 0.00768766 0 0.396527 0.00841365 0 0.396535 0.00914436 0 0.396543 0.00987981 0 0.396552 0.0106201 0 0.396716 0 0 0.39672 0.000703279 0 0.396725 0.00140892 0 0.39673 0.00211695 0 0.396734 0.00282736 0 0.396739 0.00354017 0 0.396744 0.00425539 0 0.396748 0.00497304 0 0.396753 0.00569313 0 0.396758 0.00641567 0 0.396762 0.00714067 0 0.396767 0.00786815 0 0.396772 0.00859812 0 0.396777 0.00933058 0 0.396782 0.0100656 0 0.396786 0.0108031 0 0.397 0 0 0.397 0.000733333 0 0.397 0.00146667 0 0.397 0.0022 0 0.397 0.00293333 0 0.397 0.00366667 0 0.397 0.0044 0 0.397 0.00513333 0 0.397 0.00586667 0 0.397 0.0066 0 0.397 0.00733333 0 0.397 0.00806667 0 0.397 0.0088 0 0.397 0.00953333 0 0.397 0.0102667 0 0.397 0.011 0 
</DataArray>
</Points> 
</Piece> 
</StructuredGrid> 
</VTKFile> 
