<?xml version="1.0"?> 
<VTKFile type="StructuredGrid" version="0.1"> 
<StructuredGrid WholeExtent="0 15 0 15 0 0"> 
<Piece Extent="0 15 0 15 0 0"> 
<PointData>
<DataArray type="Float32" Name="E" format="ascii" NumberOfComponents="3"> 
-866358 -3.0545e+06 0 -852399 -3.14351e+06 0 -815757 -3.21984e+06 0 -771606 -3.29582e+06 0 -722890 -3.36955e+06 0 -671807 -3.44152e+06 0 -619556 -3.51294e+06 0 -566575 -3.58533e+06 0 -512605 -3.66016e+06 0 -456837 -3.73869e+06 0 -398019 -3.82192e+06 0 -334574 -3.91046e+06 0 -264718 -4.00455e+06 0 -186656 -4.10403e+06 0 -98757.2 -4.2083e+06 0 -1.72853e-06 -4.3166e+06 0 -835302 -2.95281e+06 0 -802941 -3.00155e+06 0 -771467 -3.06004e+06 0 -733081 -3.12428e+06 0 -688619 -3.18905e+06 0 -639936 -3.25286e+06 0 -588495 -3.31574e+06 0 -535145 -3.37832e+06 0 -480201 -3.44144e+06 0 -423520 -3.50598e+06 0 -364575 -3.5727e+06 0 -302533 -3.64219e+06 0 -236317 -3.7148e+06 0 -164694 -3.79066e+06 0 -86349 -3.86964e+06 0 4.18513e-08 -3.95141e+06 0 -806602 -2.82722e+06 0 -767734 -2.87094e+06 0 -730768 -2.91621e+06 0 -693286 -2.96557e+06 0 -652140 -3.01838e+06 0 -606864 -3.07237e+06 0 -558050 -3.12632e+06 0 -506450 -3.17992e+06 0 -452585 -3.23334e+06 0 -396683 -3.28698e+06 0 -338688 -3.34129e+06 0 -278290 -3.39667e+06 0 -214971 -3.45344e+06 0 -148042 -3.51175e+06 0 -76691.5 -3.5716e+06 0 7.45058e-08 -3.6328e+06 0 -778856 -2.70361e+06 0 -738613 -2.74144e+06 0 -698280 -2.77963e+06 0 -657986 -2.81874e+06 0 -616858 -2.85984e+06 0 -573487 -2.90286e+06 0 -527301 -2.94692e+06 0 -478318 -2.99129e+06 0 -426803 -3.03563e+06 0 -373008 -3.07986e+06 0 -317066 -3.12409e+06 0 -258966 -3.1685e+06 0 -198549 -3.21326e+06 0 -135529 -3.25849e+06 0 -69501.4 -3.3042e+06 0 -3.44589e-08 -3.3503e+06 0 -751857 -2.58236e+06 0 -711048 -2.61448e+06 0 -669804 -2.64627e+06 0 -628122 -2.67836e+06 0 -585815 -2.71091e+06 0 -542529 -2.74435e+06 0 -497651 -2.77873e+06 0 -450777 -2.81377e+06 0 -401754 -2.8491e+06 0 -350597 -2.88447e+06 0 -297376 -2.91975e+06 0 -242140 -2.95489e+06 0 -184884 -2.98993e+06 0 -125541 -3.02489e+06 0 -63985.5 -3.05978e+06 0 7.91624e-08 -3.09455e+06 0 -725343 -2.46428e+06 0 -684438 -2.49062e+06 0 -643009 -2.51669e+06 0 -601026 -2.54246e+06 0 -558441 -2.5683e+06 0 -515063 -2.59427e+06 0 -470704 -2.62055e+06 0 -425084 -2.64717e+06 0 -377968 -2.67406e+06 0 -329204 -2.70106e+06 0 -278723 -2.72802e+06 0 -226509 -2.75483e+06 0 -172555 -2.78142e+06 0 -116839 -2.80773e+06 0 -59325.9 -2.83375e+06 0 -5.21541e-08 -2.85939e+06 0 -699016 -2.3492e+06 0 -658269 -2.37031e+06 0 -617062 -2.3909e+06 0 -575344 -2.41113e+06 0 -533043 -2.43101e+06 0 -490105 -2.45074e+06 0 -446396 -2.47036e+06 0 -401794 -2.48994e+06 0 -356156 -2.50952e+06 0 -309352 -2.52905e+06 0 -261274 -2.54849e+06 0 -211846 -2.56775e+06 0 -161030 -2.58678e+06 0 -108810 -2.6055e+06 0 -55154.9 -2.62382e+06 0 2.98023e-08 -2.64186e+06 0 -672602 -2.23725e+06 0 -632147 -2.25352e+06 0 -591391 -2.26916e+06 0 -550240 -2.28425e+06 0 -508632 -2.2989e+06 0 -466490 -2.31314e+06 0 -423759 -2.32705e+06 0 -380350 -2.34068e+06 0 -336181 -2.35406e+06 0 -291170 -2.36722e+06 0 -245244 -2.38013e+06 0 -198341 -2.39278e+06 0 -150393 -2.40512e+06 0 -101347 -2.41711e+06 0 -51214.4 -2.42882e+06 0 1.11759e-07 -2.43971e+06 0 -645640 -2.12868e+06 0 -605754 -2.14036e+06 0 -565595 -2.15145e+06 0 -525183 -2.16194e+06 0 -484463 -2.17185e+06 0 -443383 -2.18126e+06 0 -401876 -2.1902e+06 0 -359883 -2.19869e+06 0 -317343 -2.20678e+06 0 -274192 -2.21448e+06 0 -230372 -2.22181e+06 0 -185837 -2.22878e+06 0 -140574 -2.23541e+06 0 -94565.5 -2.24164e+06 0 -47705.7 -2.24724e+06 0 -1.22935e-07 -2.25336e+06 0 -617773 -2.02278e+06 0 -578482 -2.03094e+06 0 -539173 -2.03791e+06 0 -499682 -2.0442e+06 0 -460003 -2.0499e+06 0 -420116 -2.05503e+06 0 -379991 -2.05962e+06 0 -339578 -2.06368e+06 0 -298824 -2.06723e+06 0 -257675 -2.07029e+06 0 -216081 -2.07285e+06 0 -173988 -2.07493e+06 0 -131321 -2.07651e+06 0 -88056.8 -2.07776e+06 0 -44324.6 -2.07896e+06 0 1.49012e-07 -2.07762e+06 0 -588159 -1.92251e+06 0 -550241 -1.9256e+06 0 -511922 -1.92876e+06 0 -473443 -1.9312e+06 0 -434844 -1.93304e+06 0 -396173 -1.93438e+06 0 -357453 -1.9352e+06 0 -318678 -1.93549e+06 0 -279808 -1.93521e+06 0 -240777 -1.93435e+06 0 -201518 -1.93292e+06 0 -161977 -1.93098e+06 0 -122145 -1.92852e+06 0 -81954.7 -1.92529e+06 0 -41159.5 -1.92096e+06 0 -1.86265e-07 -1.92054e+06 0 -556143 -1.82375e+06 0 -520220 -1.82638e+06 0 -483795 -1.82523e+06 0 -446689 -1.82346e+06 0 -409159 -1.82137e+06 0 -371474 -1.81907e+06 0 -333858 -1.81655e+06 0 -296452 -1.81372e+06 0 -259315 -1.81046e+06 0 -222425 -1.80663e+06 0 -185690 -1.80207e+06 0 -148964 -1.79671e+06 0 -112062 -1.79063e+06 0 -74907.3 -1.78436e+06 0 -37682.2 -1.77833e+06 0 1.49012e-07 -1.76319e+06 0 -519920 -1.74357e+06 0 -489346 -1.73512e+06 0 -456428 -1.72944e+06 0 -421379 -1.72235e+06 0 -384782 -1.71512e+06 0 -347352 -1.70838e+06 0 -309752 -1.7023e+06 0 -272531 -1.69676e+06 0 -236073 -1.69147e+06 0 -200583 -1.68608e+06 0 -166080 -1.68021e+06 0 -132431 -1.67354e+06 0 -99407.1 -1.66559e+06 0 -66657.4 -1.65543e+06 0 -33623.5 -1.64304e+06 0 -1.19209e-07 -1.64545e+06 0 -476877 -1.66811e+06 0 -460086 -1.6671e+06 0 -435608 -1.64938e+06 0 -404572 -1.63092e+06 0 -368528 -1.61394e+06 0 -329362 -1.59946e+06 0 -288794 -1.58784e+06 0 -248196 -1.57897e+06 0 -208721 -1.5725e+06 0 -171341 -1.56776e+06 0 -136812 -1.5638e+06 0 -105514 -1.55952e+06 0 -77181.7 -1.5541e+06 0 -50678 -1.54764e+06 0 -24473.3 -1.53895e+06 0 0 -1.50025e+06 0 -421437 -1.68707e+06 0 -448437 -1.64649e+06 0 -448080 -1.5976e+06 0 -420686 -1.55094e+06 0 -379550 -1.5127e+06 0 -332114 -1.48296e+06 0 -281711 -1.46065e+06 0 -230232 -1.44497e+06 0 -178940 -1.43554e+06 0 -129141 -1.43237e+06 0 -82612.6 -1.4356e+06 0 -42171.5 -1.44485e+06 0 -12213.7 -1.45809e+06 0 1235.02 -1.46985e+06 0 -4402.9 -1.47215e+06 0 2.98023e-08 -1.48128e+06 0 -317624 -2.32749e+06 0 -654138 -1.73188e+06 0 -599277 -1.5346e+06 0 -517164 -1.43604e+06 0 -441484 -1.37444e+06 0 -369758 -1.33056e+06 0 -300596 -1.29716e+06 0 -231871 -1.27123e+06 0 -162138 -1.25145e+06 0 -89434.1 -1.23775e+06 0 -11032.6 -1.23125e+06 0 77686.1 -1.23526e+06 0 182720 -1.25888e+06 0 304419 -1.33097e+06 0 379594 -1.55895e+06 0 -1.78814e-07 -2.37807e+06 0 </DataArray> 
</PointData> 
<Points> 
<DataArray type="Float32" NumberOfComponents="3"> 
0.236 0.027 0 0.2351 0.0275333 0 0.2342 0.0280667 0 0.2333 0.0286 0 0.2324 0.0291333 0 0.2315 0.0296667 0 0.2306 0.0302 0 0.2297 0.0307333 0 0.2288 0.0312667 0 0.2279 0.0318 0 0.227 0.0323333 0 0.2261 0.0328667 0 0.2252 0.0334 0 0.2243 0.0339333 0 0.2234 0.0344667 0 0.2225 0.035 0 0.237133 0.027 0 0.236291 0.0275333 0 0.235449 0.0280667 0 0.234607 0.0286 0 0.233764 0.0291333 0 0.232922 0.0296667 0 0.23208 0.0302 0 0.231238 0.0307333 0 0.230396 0.0312667 0 0.229553 0.0318 0 0.228711 0.0323333 0 0.227869 0.0328667 0 0.227027 0.0334 0 0.226184 0.0339333 0 0.225342 0.0344667 0 0.2245 0.035 0 0.238267 0.027 0 0.237482 0.0275333 0 0.236698 0.0280667 0 0.235913 0.0286 0 0.235129 0.0291333 0 0.234344 0.0296667 0 0.23356 0.0302 0 0.232776 0.0307333 0 0.231991 0.0312667 0 0.231207 0.0318 0 0.230422 0.0323333 0 0.229638 0.0328667 0 0.228853 0.0334 0 0.228069 0.0339333 0 0.227284 0.0344667 0 0.2265 0.035 0 0.2394 0.027 0 0.238673 0.0275333 0 0.237947 0.0280667 0 0.23722 0.0286 0 0.236493 0.0291333 0 0.235767 0.0296667 0 0.23504 0.0302 0 0.234313 0.0307333 0 0.233587 0.0312667 0 0.23286 0.0318 0 0.232133 0.0323333 0 0.231407 0.0328667 0 0.23068 0.0334 0 0.229953 0.0339333 0 0.229227 0.0344667 0 0.2285 0.035 0 0.240533 0.027 0 0.239864 0.0275333 0 0.239196 0.0280667 0 0.238527 0.0286 0 0.237858 0.0291333 0 0.237189 0.0296667 0 0.23652 0.0302 0 0.235851 0.0307333 0 0.235182 0.0312667 0 0.234513 0.0318 0 0.233844 0.0323333 0 0.233176 0.0328667 0 0.232507 0.0334 0 0.231838 0.0339333 0 0.231169 0.0344667 0 0.2305 0.035 0 0.241667 0.027 0 0.241056 0.0275333 0 0.240444 0.0280667 0 0.239833 0.0286 0 0.239222 0.0291333 0 0.238611 0.0296667 0 0.238 0.0302 0 0.237389 0.0307333 0 0.236778 0.0312667 0 0.236167 0.0318 0 0.235556 0.0323333 0 0.234944 0.0328667 0 0.234333 0.0334 0 0.233722 0.0339333 0 0.233111 0.0344667 0 0.2325 0.035 0 0.2428 0.027 0 0.242247 0.0275333 0 0.241693 0.0280667 0 0.24114 0.0286 0 0.240587 0.0291333 0 0.240033 0.0296667 0 0.23948 0.0302 0 0.238927 0.0307333 0 0.238373 0.0312667 0 0.23782 0.0318 0 0.237267 0.0323333 0 0.236713 0.0328667 0 0.23616 0.0334 0 0.235607 0.0339333 0 0.235053 0.0344667 0 0.2345 0.035 0 0.243933 0.027 0 0.243438 0.0275333 0 0.242942 0.0280667 0 0.242447 0.0286 0 0.241951 0.0291333 0 0.241456 0.0296667 0 0.24096 0.0302 0 0.240464 0.0307333 0 0.239969 0.0312667 0 0.239473 0.0318 0 0.238978 0.0323333 0 0.238482 0.0328667 0 0.237987 0.0334 0 0.237491 0.0339333 0 0.236996 0.0344667 0 0.2365 0.035 0 0.245067 0.027 0 0.244629 0.0275333 0 0.244191 0.0280667 0 0.243753 0.0286 0 0.243316 0.0291333 0 0.242878 0.0296667 0 0.24244 0.0302 0 0.242002 0.0307333 0 0.241564 0.0312667 0 0.241127 0.0318 0 0.240689 0.0323333 0 0.240251 0.0328667 0 0.239813 0.0334 0 0.239376 0.0339333 0 0.238938 0.0344667 0 0.2385 0.035 0 0.2462 0.027 0 0.24582 0.0275333 0 0.24544 0.0280667 0 0.24506 0.0286 0 0.24468 0.0291333 0 0.2443 0.0296667 0 0.24392 0.0302 0 0.24354 0.0307333 0 0.24316 0.0312667 0 0.24278 0.0318 0 0.2424 0.0323333 0 0.24202 0.0328667 0 0.24164 0.0334 0 0.24126 0.0339333 0 0.24088 0.0344667 0 0.2405 0.035 0 0.247333 0.027 0 0.247011 0.0275333 0 0.246689 0.0280667 0 0.246367 0.0286 0 0.246044 0.0291333 0 0.245722 0.0296667 0 0.2454 0.0302 0 0.245078 0.0307333 0 0.244756 0.0312667 0 0.244433 0.0318 0 0.244111 0.0323333 0 0.243789 0.0328667 0 0.243467 0.0334 0 0.243144 0.0339333 0 0.242822 0.0344667 0 0.2425 0.035 0 0.248467 0.027 0 0.248202 0.0275333 0 0.247938 0.0280667 0 0.247673 0.0286 0 0.247409 0.0291333 0 0.247144 0.0296667 0 0.24688 0.0302 0 0.246616 0.0307333 0 0.246351 0.0312667 0 0.246087 0.0318 0 0.245822 0.0323333 0 0.245558 0.0328667 0 0.245293 0.0334 0 0.245029 0.0339333 0 0.244764 0.0344667 0 0.2445 0.035 0 0.2496 0.027 0 0.249393 0.0275333 0 0.249187 0.0280667 0 0.24898 0.0286 0 0.248773 0.0291333 0 0.248567 0.0296667 0 0.24836 0.0302 0 0.248153 0.0307333 0 0.247947 0.0312667 0 0.24774 0.0318 0 0.247533 0.0323333 0 0.247327 0.0328667 0 0.24712 0.0334 0 0.246913 0.0339333 0 0.246707 0.0344667 0 0.2465 0.035 0 0.250733 0.027 0 0.250584 0.0275333 0 0.250436 0.0280667 0 0.250287 0.0286 0 0.250138 0.0291333 0 0.249989 0.0296667 0 0.24984 0.0302 0 0.249691 0.0307333 0 0.249542 0.0312667 0 0.249393 0.0318 0 0.249244 0.0323333 0 0.249096 0.0328667 0 0.248947 0.0334 0 0.248798 0.0339333 0 0.248649 0.0344667 0 0.2485 0.035 0 0.251867 0.027 0 0.251776 0.0275333 0 0.251684 0.0280667 0 0.251593 0.0286 0 0.251502 0.0291333 0 0.251411 0.0296667 0 0.25132 0.0302 0 0.251229 0.0307333 0 0.251138 0.0312667 0 0.251047 0.0318 0 0.250956 0.0323333 0 0.250864 0.0328667 0 0.250773 0.0334 0 0.250682 0.0339333 0 0.250591 0.0344667 0 0.2505 0.035 0 0.253 0.027 0 0.252967 0.0275333 0 0.252933 0.0280667 0 0.2529 0.0286 0 0.252867 0.0291333 0 0.252833 0.0296667 0 0.2528 0.0302 0 0.252767 0.0307333 0 0.252733 0.0312667 0 0.2527 0.0318 0 0.252667 0.0323333 0 0.252633 0.0328667 0 0.2526 0.0334 0 0.252567 0.0339333 0 0.252533 0.0344667 0 0.2525 0.035 0 
</DataArray>
</Points> 
</Piece> 
</StructuredGrid> 
</VTKFile> 
