<?xml version="1.0"?> 
<VTKFile type="StructuredGrid" version="0.1"> 
<StructuredGrid WholeExtent="0 15 0 15 0 0"> 
<Piece Extent="0 15 0 15 0 0"> 
<PointData>
<DataArray type="Float32" Name="E" format="ascii" NumberOfComponents="3"> 
-615212 -1.93229e+06 0 506993 -1.22304e+06 0 795426 -748003 0 847789 -399717 0 858452 -156150 0 813695 17792.5 0 756942 144956 0 683411 237767 0 603589 305326 0 518038 352874 0 430064 384585 0 341045 403231 0 252497 411049 0 165541 409660 0 81101.1 400334 0 0 383991 0 -315475 -1.70498e+06 0 486389 -1.18856e+06 0 753783 -732231 0 830537 -396668 0 836477 -158533 0 800085 12897 0 743909 138165 0 673629 230080 0 595260 296884 0 511494 344089 0 424872 375584 0 337117 394216 0 249687 402128 0 163739 400951 0 80235.1 391921 0 0 375952 0 -237195 -1.56594e+06 0 460122 -1.14868e+06 0 722986 -716730 0 808947 -393058 0 817429 -160377 0 785543 8210.2 0 731626 131701 0 663760 222554 0 587151 288644 0 505009 335441 0 419763 366724 0 333242 385317 0 246914 393318 0 161964 392339 0 79378.6 383599 0 0 367999 0 -189479 -1.46223e+06 0 435439 -1.10786e+06 0 695309 -701055 0 787190 -388937 0 799239 -161790 0 771065 3801.49 0 719641 125502 0 654004 215218 0 579182 280583 0 498614 326940 0 414732 357999 0 329423 376534 0 244180 384613 0 160214 383824 0 78533.8 375367 0 0 360131 0 -156165 -1.37759e+06 0 413028 -1.06762e+06 0 669729 -685145 0 765797 -384356 0 781648 -162817 0 756781 -316.573 0 707899 119548 0 644390 208079 0 571344 272694 0 492314 318586 0 409776 349403 0 325660 367867 0 241485 376013 0 158489 375405 0 77700.9 367223 0 0 352346 0 -130439 -1.30569e+06 0 392968 -1.02855e+06 0 645784 -669043 0 744985 -379361 0 764548 -163486 0 742749 -4147.73 0 696378 113827 0 634929 201134 0 563633 264971 0 486111 310377 0 404896 340936 0 321953 359314 0 238831 367516 0 156790 367079 0 76880.2 359166 0 0 344643 0 -108740 -1.24228e+06 0 375118 -990978 0 623228 -652808 0 724846 -373998 0 747893 -163818 0 728994 -7699.37 0 685069 108333 0 625628 194381 0 556049 257411 0 480007 302310 0 400092 332594 0 318304 350873 0 236217 359121 0 155117 358845 0 76071.8 351195 0 0 337020 0 -89914.5 -1.18524e+06 0 359220 -955044 0 601948 -636507 0 705399 -368307 0 731673 -163835 0 715526 -10981.5 0 673972 103059 0 616488 187816 0 548592 250011 0 474002 294384 0 395366 324376 0 314713 342542 0 233645 350824 0 153469 350703 0 75276 343308 0 0 329478 0 -72497.2 -1.13314e+06 0 345028 -920805 0 581839 -620206 0 686650 -362328 0 715878 -163554 0 702350 -14004.4 0 663088 97997.9 0 607512 181434 0 541263 242768 0 468099 286595 0 390718 316278 0 311179 334321 0 231113 342626 0 151848 342650 0 74492.7 335504 0 0 322013 0 -55950.4 -1.08523e+06 0 332276 -888254 0 562836 -603960 0 668584 -356096 0 700509 -162996 0 689466 -16778.5 0 652418 93145.2 0 598702 175232 0 534063 235679 0 462296 278942 0 386147 308301 0 307704 326206 0 228623 334524 0 150253 334686 0 73722.2 327783 0 0 314626 0 -39182.6 -1.04123e+06 0 320740 -857350 0 544861 -587817 0 651193 -349645 0 685563 -162177 0 676878 -19314.1 0 641963 88494.3 0 590058 169204 0 526993 228740 0 456596 271421 0 381656 300440 0 304289 318195 0 226175 326517 0 148685 326808 0 72964.4 320141 0 0 307314 0 -21485.3 -1.00127e+06 0 310204 -828016 0 527842 -571818 0 634462 -343006 0 671034 -161115 0 664586 -21621.4 0 631725 84039.1 0 581581 163348 0 520055 221948 0 450998 264030 0 377244 292694 0 300933 310288 0 223770 318603 0 147144 319016 0 72219.6 312579 0 0 300077 0 -945.084 -966449 0 300525 -800100 0 511654 -556003 0 618407 -336205 0 656905 -159827 0 652598 -23710.9 0 621701 79773.9 0 573274 157657 0 513247 215301 0 445504 256766 0 372912 285061 0 297637 302482 0 221406 310781 0 145630 311307 0 71487.9 305094 0 0 292913 0 25880.6 -938755 0 291670 -773363 0 496087 -540410 0 603092 -329266 0 643131 -158327 0 640933 -25594.1 0 611883 75693.7 0 565142 152127 0 506570 208795 0 440115 249627 0 368660 277539 0 294401 294775 0 219086 303048 0 144143 303680 0 70769.3 297685 0 0 285821 0 67044.8 -924776 0 283881 -747186 0 480682 -525125 0 588718 -322213 0 629597 -156621 0 629643 -27288.9 0 602248 71798.3 0 557195 146751 0 500019 202429 0 434833 242609 0 364489 270125 0 291227 287165 0 216809 295403 0 142683 296134 0 70064 290352 0 0 278800 0 217835 -948894 0 280622 -719555 0 461684 -510409 0 577273 -315063 0 615300 -154686 0 619202 -28838.8 0 592579 68105.2 0 549530 141509 0 493557 196209 0 429673 235704 0 360394 262821 0 288115 279649 0 214577 287845 0 141250 288667 0 69373.2 283092 0 0 271848 0 </DataArray> 
</PointData> 
<Points> 
<DataArray type="Float32" NumberOfComponents="3"> 
0.406 0.03 0 0.406 0.0365333 0 0.406 0.0430667 0 0.406 0.0496 0 0.406 0.0561333 0 0.406 0.0626667 0 0.406 0.0692 0 0.406 0.0757333 0 0.406 0.0822667 0 0.406 0.0888 0 0.406 0.0953333 0 0.406 0.101867 0 0.406 0.1084 0 0.406 0.114933 0 0.406 0.121467 0 0.406 0.128 0 0.406667 0.03 0 0.406667 0.0365333 0 0.406667 0.0430667 0 0.406667 0.0496 0 0.406667 0.0561333 0 0.406667 0.0626667 0 0.406667 0.0692 0 0.406667 0.0757333 0 0.406667 0.0822667 0 0.406667 0.0888 0 0.406667 0.0953333 0 0.406667 0.101867 0 0.406667 0.1084 0 0.406667 0.114933 0 0.406667 0.121467 0 0.406667 0.128 0 0.407333 0.03 0 0.407333 0.0365333 0 0.407333 0.0430667 0 0.407333 0.0496 0 0.407333 0.0561333 0 0.407333 0.0626667 0 0.407333 0.0692 0 0.407333 0.0757333 0 0.407333 0.0822667 0 0.407333 0.0888 0 0.407333 0.0953333 0 0.407333 0.101867 0 0.407333 0.1084 0 0.407333 0.114933 0 0.407333 0.121467 0 0.407333 0.128 0 0.408 0.03 0 0.408 0.0365333 0 0.408 0.0430667 0 0.408 0.0496 0 0.408 0.0561333 0 0.408 0.0626667 0 0.408 0.0692 0 0.408 0.0757333 0 0.408 0.0822667 0 0.408 0.0888 0 0.408 0.0953333 0 0.408 0.101867 0 0.408 0.1084 0 0.408 0.114933 0 0.408 0.121467 0 0.408 0.128 0 0.408667 0.03 0 0.408667 0.0365333 0 0.408667 0.0430667 0 0.408667 0.0496 0 0.408667 0.0561333 0 0.408667 0.0626667 0 0.408667 0.0692 0 0.408667 0.0757333 0 0.408667 0.0822667 0 0.408667 0.0888 0 0.408667 0.0953333 0 0.408667 0.101867 0 0.408667 0.1084 0 0.408667 0.114933 0 0.408667 0.121467 0 0.408667 0.128 0 0.409333 0.03 0 0.409333 0.0365333 0 0.409333 0.0430667 0 0.409333 0.0496 0 0.409333 0.0561333 0 0.409333 0.0626667 0 0.409333 0.0692 0 0.409333 0.0757333 0 0.409333 0.0822667 0 0.409333 0.0888 0 0.409333 0.0953333 0 0.409333 0.101867 0 0.409333 0.1084 0 0.409333 0.114933 0 0.409333 0.121467 0 0.409333 0.128 0 0.41 0.03 0 0.41 0.0365333 0 0.41 0.0430667 0 0.41 0.0496 0 0.41 0.0561333 0 0.41 0.0626667 0 0.41 0.0692 0 0.41 0.0757333 0 0.41 0.0822667 0 0.41 0.0888 0 0.41 0.0953333 0 0.41 0.101867 0 0.41 0.1084 0 0.41 0.114933 0 0.41 0.121467 0 0.41 0.128 0 0.410667 0.03 0 0.410667 0.0365333 0 0.410667 0.0430667 0 0.410667 0.0496 0 0.410667 0.0561333 0 0.410667 0.0626667 0 0.410667 0.0692 0 0.410667 0.0757333 0 0.410667 0.0822667 0 0.410667 0.0888 0 0.410667 0.0953333 0 0.410667 0.101867 0 0.410667 0.1084 0 0.410667 0.114933 0 0.410667 0.121467 0 0.410667 0.128 0 0.411333 0.03 0 0.411333 0.0365333 0 0.411333 0.0430667 0 0.411333 0.0496 0 0.411333 0.0561333 0 0.411333 0.0626667 0 0.411333 0.0692 0 0.411333 0.0757333 0 0.411333 0.0822667 0 0.411333 0.0888 0 0.411333 0.0953333 0 0.411333 0.101867 0 0.411333 0.1084 0 0.411333 0.114933 0 0.411333 0.121467 0 0.411333 0.128 0 0.412 0.03 0 0.412 0.0365333 0 0.412 0.0430667 0 0.412 0.0496 0 0.412 0.0561333 0 0.412 0.0626667 0 0.412 0.0692 0 0.412 0.0757333 0 0.412 0.0822667 0 0.412 0.0888 0 0.412 0.0953333 0 0.412 0.101867 0 0.412 0.1084 0 0.412 0.114933 0 0.412 0.121467 0 0.412 0.128 0 0.412667 0.03 0 0.412667 0.0365333 0 0.412667 0.0430667 0 0.412667 0.0496 0 0.412667 0.0561333 0 0.412667 0.0626667 0 0.412667 0.0692 0 0.412667 0.0757333 0 0.412667 0.0822667 0 0.412667 0.0888 0 0.412667 0.0953333 0 0.412667 0.101867 0 0.412667 0.1084 0 0.412667 0.114933 0 0.412667 0.121467 0 0.412667 0.128 0 0.413333 0.03 0 0.413333 0.0365333 0 0.413333 0.0430667 0 0.413333 0.0496 0 0.413333 0.0561333 0 0.413333 0.0626667 0 0.413333 0.0692 0 0.413333 0.0757333 0 0.413333 0.0822667 0 0.413333 0.0888 0 0.413333 0.0953333 0 0.413333 0.101867 0 0.413333 0.1084 0 0.413333 0.114933 0 0.413333 0.121467 0 0.413333 0.128 0 0.414 0.03 0 0.414 0.0365333 0 0.414 0.0430667 0 0.414 0.0496 0 0.414 0.0561333 0 0.414 0.0626667 0 0.414 0.0692 0 0.414 0.0757333 0 0.414 0.0822667 0 0.414 0.0888 0 0.414 0.0953333 0 0.414 0.101867 0 0.414 0.1084 0 0.414 0.114933 0 0.414 0.121467 0 0.414 0.128 0 0.414667 0.03 0 0.414667 0.0365333 0 0.414667 0.0430667 0 0.414667 0.0496 0 0.414667 0.0561333 0 0.414667 0.0626667 0 0.414667 0.0692 0 0.414667 0.0757333 0 0.414667 0.0822667 0 0.414667 0.0888 0 0.414667 0.0953333 0 0.414667 0.101867 0 0.414667 0.1084 0 0.414667 0.114933 0 0.414667 0.121467 0 0.414667 0.128 0 0.415333 0.03 0 0.415333 0.0365333 0 0.415333 0.0430667 0 0.415333 0.0496 0 0.415333 0.0561333 0 0.415333 0.0626667 0 0.415333 0.0692 0 0.415333 0.0757333 0 0.415333 0.0822667 0 0.415333 0.0888 0 0.415333 0.0953333 0 0.415333 0.101867 0 0.415333 0.1084 0 0.415333 0.114933 0 0.415333 0.121467 0 0.415333 0.128 0 0.416 0.03 0 0.416 0.0365333 0 0.416 0.0430667 0 0.416 0.0496 0 0.416 0.0561333 0 0.416 0.0626667 0 0.416 0.0692 0 0.416 0.0757333 0 0.416 0.0822667 0 0.416 0.0888 0 0.416 0.0953333 0 0.416 0.101867 0 0.416 0.1084 0 0.416 0.114933 0 0.416 0.121467 0 0.416 0.128 0 
</DataArray>
</Points> 
</Piece> 
</StructuredGrid> 
</VTKFile> 
