<?xml version="1.0"?> 
<VTKFile type="StructuredGrid" version="0.1"> 
<StructuredGrid WholeExtent="0 15 0 15 0 0"> 
<Piece Extent="0 15 0 15 0 0"> 
<PointData>
<DataArray type="Float32" Name="|E|" format="ascii" NumberOfComponents="3"> 
2.98023e-07 1.71661e-05 0 -4.07308e-08 834.057 0 2.69501e-08 415.247 0 2.56114e-09 199.696 0 -3.21306e-08 100.452 0 3.35276e-08 53.7914 0 -3.63216e-08 29.5367 0 3.53903e-08 17.0148 0 -3.07336e-08 9.87456 0 2.04891e-08 5.85476 0 -1.86265e-08 3.47339 0 2.23517e-08 2.06222 0 -3.35276e-08 1.20169 0 2.98023e-08 0.660297 0 7.45058e-09 0.291984 0 -2.68221e-07 4.76837e-07 0 89.7672 -1.82539e-07 0 -16.1117 833.854 0 -10.7905 415.234 0 -6.75573 199.515 0 -3.68023 100.398 0 -2.22202 53.7334 0 -1.27667 29.508 0 -0.818981 16.9938 0 -0.500634 9.86102 0 -0.328781 5.84551 0 -0.209109 3.46703 0 -0.138083 2.05788 0 -0.0913724 1.19878 0 -0.0639081 0.658475 0 -0.0495027 0.291069 0 -0.0465739 -9.48785e-08 0 179.975 -1.40443e-06 0 -32.3012 833.238 0 -21.5758 415.201 0 -13.4982 198.968 0 -7.35604 100.238 0 -4.4378 53.559 0 -2.55032 29.4224 0 -1.63572 16.9308 0 -0.999555 9.82053 0 -0.656563 5.81779 0 -0.417328 3.44797 0 -0.27561 2.0449 0 -0.182274 1.19009 0 -0.127469 0.653018 0 -0.0986914 0.288332 0 -0.0928172 1.81142e-07 0 271.069 1.33365e-06 0 -48.6461 832.184 0 -32.351 415.157 0 -20.2139 198.051 0 -11.0234 99.9768 0 -6.64088 53.2665 0 -3.81807 29.2811 0 -2.44789 16.8254 0 -1.4951 9.75341 0 -0.982336 5.77164 0 -0.623776 3.41631 0 -0.412027 2.02333 0 -0.272236 1.17565 0 -0.190337 0.643955 0 -0.147254 0.283791 0 -0.138402 -1.53668e-07 0 363.497 -8.9407e-07 0 -65.2225 830.652 0 -43.1122 415.122 0 -26.8879 196.751 0 -14.6791 99.6211 0 -8.82426 52.853 0 -5.07742 29.0865 0 -3.25302 16.6773 0 -1.98569 9.66021 0 -1.30507 5.70713 0 -0.827586 3.37224 0 -0.546787 1.99324 0 -0.360792 1.15555 0 -0.252174 0.631335 0 -0.194881 0.27748 0 -0.183002 2.55182e-07 0 457.72 1.3113e-06 0 -82.1049 828.584 0 -53.8573 415.123 0 -33.5041 195.054 0 -18.3211 99.1819 0 -10.9802 52.3144 0 -6.32643 28.8417 0 -4.04839 16.4859 0 -2.46993 9.54176 0 -1.6237 5.62433 0 -1.02792 3.31601 0 -0.679349 1.95476 0 -0.447484 1.12991 0 -0.312648 0.615223 0 -0.241271 0.269442 0 -0.226297 -1.86265e-07 0 554.208 -2.98023e-07 0 -99.3654 825.905 0 -64.5861 415.195 0 -40.0441 192.939 0 -21.9493 98.6733 0 -13.0997 51.6451 0 -7.56398 28.5511 0 -4.83085 16.2501 0 -2.94667 9.39918 0 -1.93705 5.5233 0 -1.22402 3.24794 0 -0.80917 1.90803 0 -0.531861 1.09886 0 -0.371437 0.595703 0 -0.286126 0.259737 0 -0.26797 7.07805e-08 0 653.447 -5.96046e-07 0 -117.073 822.523 0 -75.301 415.382 0 -46.4866 190.381 0 -25.566 98.1136 0 -15.1723 50.8374 0 -8.79014 28.2205 0 -5.59663 15.9687 0 -3.41517 9.23393 0 -2.24383 5.40408 0 -1.41518 3.16846 0 -0.935697 1.85321 0 -0.613497 1.0626 0 -0.42823 0.572876 0 -0.329163 0.248436 0 -0.30771 -7.45058e-09 0 755.941 -1.19209e-07 0 -135.293 818.328 0 -86.0084 415.738 0 -52.807 187.349 0 -29.1765 97.5248 0 -17.1853 49.8819 0 -10.0066 27.8571 0 -6.3411 15.6395 0 -3.87525 9.04789 0 -2.54247 5.26663 0 -1.60088 3.07808 0 -1.05834 1.7905 0 -0.691996 1.02133 0 -0.482719 0.54686 0 -0.370109 0.235621 0 -0.345206 0 0 862.218 2.6226e-06 0 -154.086 813.19 0 -96.7187 416.326 0 -58.9757 183.803 0 -32.7901 96.9342 0 -19.1231 48.7664 0 -11.2172 27.4699 0 -7.05832 15.2601 0 -4.32762 8.84343 0 -2.83099 5.11082 0 -1.78087 2.9774 0 -1.17641 1.72012 0 -0.767028 0.975266 0 -0.534594 0.517804 0 -0.408715 0.221374 0 -0.380156 -6.70552e-08 0 972.826 -3.21865e-06 0 -173.506 806.959 0 -107.448 417.223 0 -64.9578 179.7 0 -36.4212 96.3741 0 -20.9664 47.4759 0 -12.4287 27.07 0 -7.74049 14.8268 0 -4.77424 8.62347 0 -3.10676 4.93638 0 -1.95528 2.86711 0 -1.28906 1.64236 0 -0.838364 0.924625 0 -0.583527 0.485903 0 -0.444756 0.205764 0 -0.412269 1.3411e-07 0 1088.35 1.66893e-06 0 -193.603 799.465 0 -118.219 418.516 0 -70.7114 174.986 0 -40.0904 95.8829 0 -22.6911 45.9918 0 -13.6518 26.6709 0 -8.37729 14.3348 0 -5.21886 8.39159 0 -3.36611 4.74294 0 -2.12489 2.74794 0 -1.39515 1.55759 0 -0.90596 0.869562 0 -0.629134 0.45144 0 -0.478048 0.188811 0 -0.441308 -8.9407e-08 0 1209.39 -7.15256e-07 0 -214.416 790.516 0 -129.062 420.304 0 -76.1863 169.6 0 -43.8263 95.5059 0 -24.2667 44.2913 0 -14.9023 26.2892 0 -8.95482 13.7781 0 -5.6678 8.15211 0 -3.60383 4.52999 0 -2.29149 2.62058 0 -1.49301 1.46638 0 -0.970071 0.810075 0 -0.670925 0.414873 0 -0.508451 0.170401 0 -0.467183 4.47035e-08 0 1336.6 4.76837e-07 0 -235.976 779.897 0 -140.017 422.704 0 -81.3221 163.469 0 -47.667 95.296 0 -25.6548 42.3469 0 -16.2028 25.9445 0 -9.45425 13.1489 0 -6.131 7.91012 0 -3.81238 4.29696 0 -2.45841 2.48554 0 -1.58012 1.36967 0 -1.03145 0.745832 0 -0.708212 0.377 0 -0.535872 0.150135 0 -0.490203 -2.38419e-07 0 1470.67 -7.15256e-07 0 -258.306 767.368 0 -151.135 425.846 0 -86.0461 156.51 0 -51.6626 95.3146 0 -26.8066 40.1256 0 -17.5846 25.6604 0 -9.85013 12.4378 0 -6.62347 7.67152 0 -3.98079 4.04339 0 -2.63125 2.34292 0 -1.65263 1.26905 0 -1.09166 0.675842 0 -0.739971 0.339289 0 -0.56023 0.12701 0 -0.511638 2.98023e-08 0 1612.33 1.90735e-06 0 -281.414 752.667 0 -162.482 429.877 0 -90.2715 148.63 0 -55.8775 95.6322 0 -27.6606 37.5882 0 -19.0905 25.4643 0 -10.108 11.6333 0 -7.16725 7.44279 0 -4.09316 3.76923 0 -2.81911 2.19188 0 -1.70452 1.16729 0 -1.15354 0.597927 0 -0.764631 0.304404 0 -0.581331 0.0988706 0 -0.534987 9.53674e-07 0 </DataArray> 
</PointData> 
<Points> 
<DataArray type="Float32" NumberOfComponents="3"> 
0.125 0.02 0 0.129 0.02 0 0.133 0.02 0 0.137 0.02 0 0.141 0.02 0 0.145 0.02 0 0.149 0.02 0 0.153 0.02 0 0.157 0.02 0 0.161 0.02 0 0.165 0.02 0 0.169 0.02 0 0.173 0.02 0 0.177 0.02 0 0.181 0.02 0 0.185 0.02 0 0.125 0.0200667 0 0.129 0.0201067 0 0.133 0.0201467 0 0.137 0.0201867 0 0.141 0.0202267 0 0.145 0.0202667 0 0.149 0.0203067 0 0.153 0.0203467 0 0.157 0.0203867 0 0.161 0.0204267 0 0.165 0.0204667 0 0.169 0.0205067 0 0.173 0.0205467 0 0.177 0.0205867 0 0.181 0.0206267 0 0.185 0.0206667 0 0.125 0.0201333 0 0.129 0.0202133 0 0.133 0.0202933 0 0.137 0.0203733 0 0.141 0.0204533 0 0.145 0.0205333 0 0.149 0.0206133 0 0.153 0.0206933 0 0.157 0.0207733 0 0.161 0.0208533 0 0.165 0.0209333 0 0.169 0.0210133 0 0.173 0.0210933 0 0.177 0.0211733 0 0.181 0.0212533 0 0.185 0.0213333 0 0.125 0.0202 0 0.129 0.02032 0 0.133 0.02044 0 0.137 0.02056 0 0.141 0.02068 0 0.145 0.0208 0 0.149 0.02092 0 0.153 0.02104 0 0.157 0.02116 0 0.161 0.02128 0 0.165 0.0214 0 0.169 0.02152 0 0.173 0.02164 0 0.177 0.02176 0 0.181 0.02188 0 0.185 0.022 0 0.125 0.0202667 0 0.129 0.0204267 0 0.133 0.0205867 0 0.137 0.0207467 0 0.141 0.0209067 0 0.145 0.0210667 0 0.149 0.0212267 0 0.153 0.0213867 0 0.157 0.0215467 0 0.161 0.0217067 0 0.165 0.0218667 0 0.169 0.0220267 0 0.173 0.0221867 0 0.177 0.0223467 0 0.181 0.0225067 0 0.185 0.0226667 0 0.125 0.0203333 0 0.129 0.0205333 0 0.133 0.0207333 0 0.137 0.0209333 0 0.141 0.0211333 0 0.145 0.0213333 0 0.149 0.0215333 0 0.153 0.0217333 0 0.157 0.0219333 0 0.161 0.0221333 0 0.165 0.0223333 0 0.169 0.0225333 0 0.173 0.0227333 0 0.177 0.0229333 0 0.181 0.0231333 0 0.185 0.0233333 0 0.125 0.0204 0 0.129 0.02064 0 0.133 0.02088 0 0.137 0.02112 0 0.141 0.02136 0 0.145 0.0216 0 0.149 0.02184 0 0.153 0.02208 0 0.157 0.02232 0 0.161 0.02256 0 0.165 0.0228 0 0.169 0.02304 0 0.173 0.02328 0 0.177 0.02352 0 0.181 0.02376 0 0.185 0.024 0 0.125 0.0204667 0 0.129 0.0207467 0 0.133 0.0210267 0 0.137 0.0213067 0 0.141 0.0215867 0 0.145 0.0218667 0 0.149 0.0221467 0 0.153 0.0224267 0 0.157 0.0227067 0 0.161 0.0229867 0 0.165 0.0232667 0 0.169 0.0235467 0 0.173 0.0238267 0 0.177 0.0241067 0 0.181 0.0243867 0 0.185 0.0246667 0 0.125 0.0205333 0 0.129 0.0208533 0 0.133 0.0211733 0 0.137 0.0214933 0 0.141 0.0218133 0 0.145 0.0221333 0 0.149 0.0224533 0 0.153 0.0227733 0 0.157 0.0230933 0 0.161 0.0234133 0 0.165 0.0237333 0 0.169 0.0240533 0 0.173 0.0243733 0 0.177 0.0246933 0 0.181 0.0250133 0 0.185 0.0253333 0 0.125 0.0206 0 0.129 0.02096 0 0.133 0.02132 0 0.137 0.02168 0 0.141 0.02204 0 0.145 0.0224 0 0.149 0.02276 0 0.153 0.02312 0 0.157 0.02348 0 0.161 0.02384 0 0.165 0.0242 0 0.169 0.02456 0 0.173 0.02492 0 0.177 0.02528 0 0.181 0.02564 0 0.185 0.026 0 0.125 0.0206667 0 0.129 0.0210667 0 0.133 0.0214667 0 0.137 0.0218667 0 0.141 0.0222667 0 0.145 0.0226667 0 0.149 0.0230667 0 0.153 0.0234667 0 0.157 0.0238667 0 0.161 0.0242667 0 0.165 0.0246667 0 0.169 0.0250667 0 0.173 0.0254667 0 0.177 0.0258667 0 0.181 0.0262667 0 0.185 0.0266667 0 0.125 0.0207333 0 0.129 0.0211733 0 0.133 0.0216133 0 0.137 0.0220533 0 0.141 0.0224933 0 0.145 0.0229333 0 0.149 0.0233733 0 0.153 0.0238133 0 0.157 0.0242533 0 0.161 0.0246933 0 0.165 0.0251333 0 0.169 0.0255733 0 0.173 0.0260133 0 0.177 0.0264533 0 0.181 0.0268933 0 0.185 0.0273333 0 0.125 0.0208 0 0.129 0.02128 0 0.133 0.02176 0 0.137 0.02224 0 0.141 0.02272 0 0.145 0.0232 0 0.149 0.02368 0 0.153 0.02416 0 0.157 0.02464 0 0.161 0.02512 0 0.165 0.0256 0 0.169 0.02608 0 0.173 0.02656 0 0.177 0.02704 0 0.181 0.02752 0 0.185 0.028 0 0.125 0.0208667 0 0.129 0.0213867 0 0.133 0.0219067 0 0.137 0.0224267 0 0.141 0.0229467 0 0.145 0.0234667 0 0.149 0.0239867 0 0.153 0.0245067 0 0.157 0.0250267 0 0.161 0.0255467 0 0.165 0.0260667 0 0.169 0.0265867 0 0.173 0.0271067 0 0.177 0.0276267 0 0.181 0.0281467 0 0.185 0.0286667 0 0.125 0.0209333 0 0.129 0.0214933 0 0.133 0.0220533 0 0.137 0.0226133 0 0.141 0.0231733 0 0.145 0.0237333 0 0.149 0.0242933 0 0.153 0.0248533 0 0.157 0.0254133 0 0.161 0.0259733 0 0.165 0.0265333 0 0.169 0.0270933 0 0.173 0.0276533 0 0.177 0.0282133 0 0.181 0.0287733 0 0.185 0.0293333 0 0.125 0.021 0 0.129 0.0216 0 0.133 0.0222 0 0.137 0.0228 0 0.141 0.0234 0 0.145 0.024 0 0.149 0.0246 0 0.153 0.0252 0 0.157 0.0258 0 0.161 0.0264 0 0.165 0.027 0 0.169 0.0276 0 0.173 0.0282 0 0.177 0.0288 0 0.181 0.0294 0 0.185 0.03 0 
</DataArray>
</Points> 
</Piece> 
</StructuredGrid> 
</VTKFile> 
