<?xml version="1.0"?> 
<VTKFile type="StructuredGrid" version="0.1"> 
<StructuredGrid WholeExtent="0 15 0 15 0 0"> 
<Piece Extent="0 15 0 15 0 0"> 
<PointData>
<DataArray type="Float32" Name="|E|" format="ascii" NumberOfComponents="3"> 
0 0 0 0 -26661.3 0 0 -53182.2 0 0 -79416.5 0 0 -105206 0 0 -130371 0 0 -154705 0 0 -177954 0 0 -199796 0 0 -219818 0 0 -237404 0 0 -251185 0 0 -259776 0 0 -266857 0 0 -267394 0 0 0 0 -22250.3 0 0 -22178.8 -29671 0 -21960.9 -59151.7 0 -21585.2 -88242 0 -21031.6 -116722 0 -20267.3 -144338 0 -19243.1 -170783 0 -17879.6 -195673 0 -16052.3 -218498 0 -13538.8 -238541 0 -9944.72 -254753 0 -4401.32 -265069 0 6284.06 -265874 0 33047.9 -257532 0 90551.6 -261301 0 142436 -284872 0 -44580.4 0 0 -44409.8 -32807.6 0 -43887.6 -65371.7 0 -42981.9 -97435.2 0 -41633.7 -128712 0 -39747.2 -158865 0 -37168.7 -187483 0 -33649.7 -214039 0 -28763.5 -237820 0 -21717.3 -257853 0 -10827.1 -272711 0 7844.84 -281449 0 41066 -287822 0 90653 -304898 0 139063 -334220 0 186563 -373127 0 -67068.2 0 0 -66770.3 -36097.6 0 -65855.9 -71900.6 0 -64260.3 -107097 0 -61862.9 -141337 0 -58463.6 -174211 0 -53736.4 -205220 0 -47136.7 -233741 0 -37706.5 -259024 0 -23668.4 -280279 0 -1795.36 -297653 0 31886.6 -314575 0 77064.9 -338855 0 124805 -372442 0 173208 -409235 0 223263 -446527 0 -89787 0 0 -89335.2 -39563.6 0 -87944.2 -78788.6 0 -85503.7 -117317 0 -81806.2 -154753 0 -76505 -190640 0 -69030.7 -224452 0 -58435.4 -255625 0 -43129.4 -283712 0 -20605.4 -309091 0 11874 -334292 0 54363.6 -364373 0 102149 -401733 0 152997 -442781 0 207657 -487642 0 266815 -533630 0 -112804 0 0 -112175 -43222 0 -110232 -86074.7 0 -106806 -128172 0 -101582 -169097 0 -94030.3 -208399 0 -83294.3 -245629 0 -68020.7 -280488 0 -46211.8 -313282 0 -15662 -345754 0 24362.5 -381414 0 71508.3 -422998 0 123621 -469243 0 180699 -519974 0 243425 -572619 0 313890 -627779 0 -136180 0 0 -135353 -47083.2 0 -132796 -93785.4 0 -128271 -139716 0 -121336 -184476 0 -111263 -227685 0 -96922.5 -269096 0 -76679.1 -308880 0 -48619.4 -348188 0 -11508.2 -389521 0 33847.3 -435660 0 85764.8 -487050 0 143813 -543611 0 208771 -603720 0 282657 -667542 0 366961 -733922 0 -159967 0 0 -158928 -51151.8 0 -155710 -101934 0 -150002 -151981 0 -141229 -200957 0 -128475 -248627 0 -110393 -295048 0 -85300.2 -340941 0 -51698.8 -388066 0 -9331.01 -438953 0 40829.5 -495173 0 98174.6 -557285 0 163389 -624642 0 238507 -697179 0 325708 -773936 0 427023 -854047 0 -184206 0 0 -182946 -55426.2 0 -179041 -110521 0 -172103 -164977 0 -161432 -218568 0 -145947 -271270 0 -124195 -323509 0 -94614.3 -376485 0 -56256.6 -432272 0 -9331.29 -492971 0 45600.7 -559988 0 108974 -633758 0 182867 -714558 0 270247 -801693 0 373879 -893614 0 494247 -988494 0 -208931 0 0 -207448 -59900.2 0 -202848 -119535 0 -194671 -178692 0 -182105 -237297 0 -163956 -295590 0 -138744 -354369 0 -105146 -415202 0 -62661.1 -480173 0 -11621.2 -551294 0 48030.2 -630110 0 118118 -717895 0 202421 -814827 0 305235 -919075 0 428302 -1.02671e+06 0 567225 -1.13445e+06 0 -234168 0 0 -232465 -64562.9 0 -227180 -128956 0 -217793 -193094 0 -203400 -257098 0 -182738 -321501 0 -154368 -387457 0 -117218 -456727 0 -71146.6 -531399 0 -16515.1 -613718 0 47658.5 -706286 0 125331 -811157 0 222974 -927525 0 345527 -1.04988e+06 0 490192 -1.16955e+06 0 640810 -1.28162e+06 0 -259930 0 0 -258016 -69399.6 0 -252079 -138754 0 -241544 -208137 0 -225447 -277897 0 -202498 -348890 0 -171306 -422570 0 -131030 -500758 0 -81989.3 -585588 0 -24629.5 -680345 0 43663.3 -789576 0 130754 -915820 0 246763 -1.05437e+06 0 394763 -1.19179e+06 0 560052 -1.31188e+06 0 704524 -1.40905e+06 0 -286227 0 0 -284116 -74393.3 0 -277574 -148894 0 -265984 -223761 0 -248356 -299603 0 -223401 -377623 0 -189716 -459527 0 -146709 -546970 0 -95615.7 -642379 0 -37056.2 -751450 0 35081.1 -881912 0 135649 -1.03484e+06 0 278517 -1.19578e+06 0 458340 -1.33717e+06 0 636439 -1.43363e+06 0 741442 -1.48288e+06 0 -313058 0 0 -310770 -79524.5 0 -303685 -159334 0 -291160 -239901 0 -272220 -322109 0 -245595 -407576 0 -209682 -498168 0 -164326 -594964 0 -112778 -701272 0 -55515.4 -827799 0 21230.1 -986505 0 143731 -1.17163e+06 0 326500 -1.34887e+06 0 542807 -1.46994e+06 0 714090 -1.5034e+06 0 729443 -1.45889e+06 0 -340416 0 0 -337975 -84772.9 0 -330424 -170030 0 -317104 -256482 0 -297116 -345296 0 -269218 -438643 0 -231172 -538368 0 -183896 -644112 0 -134835 -761600 0 -82501.5 -911186 0 2661.45 -1.10845e+06 0 162853 -1.32906e+06 0 403010 -1.50454e+06 0 653848 -1.56319e+06 0 781840 -1.48049e+06 0 645886 -1.29177e+06 0 -368287 0 0 -365722 -90118.1 0 -357799 -180936 0 -343829 -273430 0 -323119 -369025 0 -294433 -470772 0 -253950 -580036 0 -205428 -693350 0 -164261 -822585 0 -121203 -1.00524e+06 0 -17104.8 -1.25503e+06 0 206846 -1.50775e+06 0 523407 -1.64475e+06 0 792389 -1.57947e+06 0 821222 -1.32255e+06 0 476071 -952142 0 </DataArray> 
</PointData> 
<Points> 
<DataArray type="Float32" NumberOfComponents="3"> 
0 0.016 0 0.0004 0.016 0 0.0008 0.016 0 0.0012 0.016 0 0.0016 0.016 0 0.002 0.016 0 0.0024 0.016 0 0.0028 0.016 0 0.0032 0.016 0 0.0036 0.016 0 0.004 0.016 0 0.0044 0.016 0 0.0048 0.016 0 0.0052 0.016 0 0.0056 0.016 0 0.006 0.016 0 0 0.0163333 0 0.000444444 0.0163333 0 0.000888889 0.0163333 0 0.00133333 0.0163333 0 0.00177778 0.0163333 0 0.00222222 0.0163333 0 0.00266667 0.0163333 0 0.00311111 0.0163333 0 0.00355556 0.0163333 0 0.004 0.0163333 0 0.00444444 0.0163333 0 0.00488889 0.0163333 0 0.00533333 0.0163333 0 0.00577778 0.0163333 0 0.00622222 0.0163333 0 0.00666667 0.0163333 0 0 0.0166667 0 0.000488889 0.0166667 0 0.000977778 0.0166667 0 0.00146667 0.0166667 0 0.00195556 0.0166667 0 0.00244444 0.0166667 0 0.00293333 0.0166667 0 0.00342222 0.0166667 0 0.00391111 0.0166667 0 0.0044 0.0166667 0 0.00488889 0.0166667 0 0.00537778 0.0166667 0 0.00586667 0.0166667 0 0.00635556 0.0166667 0 0.00684444 0.0166667 0 0.00733333 0.0166667 0 0 0.017 0 0.000533333 0.017 0 0.00106667 0.017 0 0.0016 0.017 0 0.00213333 0.017 0 0.00266667 0.017 0 0.0032 0.017 0 0.00373333 0.017 0 0.00426667 0.017 0 0.0048 0.017 0 0.00533333 0.017 0 0.00586667 0.017 0 0.0064 0.017 0 0.00693333 0.017 0 0.00746667 0.017 0 0.008 0.017 0 0 0.0173333 0 0.000577778 0.0173333 0 0.00115556 0.0173333 0 0.00173333 0.0173333 0 0.00231111 0.0173333 0 0.00288889 0.0173333 0 0.00346667 0.0173333 0 0.00404444 0.0173333 0 0.00462222 0.0173333 0 0.0052 0.0173333 0 0.00577778 0.0173333 0 0.00635556 0.0173333 0 0.00693333 0.0173333 0 0.00751111 0.0173333 0 0.00808889 0.0173333 0 0.00866667 0.0173333 0 0 0.0176667 0 0.000622222 0.0176667 0 0.00124444 0.0176667 0 0.00186667 0.0176667 0 0.00248889 0.0176667 0 0.00311111 0.0176667 0 0.00373333 0.0176667 0 0.00435556 0.0176667 0 0.00497778 0.0176667 0 0.0056 0.0176667 0 0.00622222 0.0176667 0 0.00684444 0.0176667 0 0.00746667 0.0176667 0 0.00808889 0.0176667 0 0.00871111 0.0176667 0 0.00933333 0.0176667 0 0 0.018 0 0.000666667 0.018 0 0.00133333 0.018 0 0.002 0.018 0 0.00266667 0.018 0 0.00333333 0.018 0 0.004 0.018 0 0.00466667 0.018 0 0.00533333 0.018 0 0.006 0.018 0 0.00666667 0.018 0 0.00733333 0.018 0 0.008 0.018 0 0.00866667 0.018 0 0.00933333 0.018 0 0.01 0.018 0 0 0.0183333 0 0.000711111 0.0183333 0 0.00142222 0.0183333 0 0.00213333 0.0183333 0 0.00284444 0.0183333 0 0.00355556 0.0183333 0 0.00426667 0.0183333 0 0.00497778 0.0183333 0 0.00568889 0.0183333 0 0.0064 0.0183333 0 0.00711111 0.0183333 0 0.00782222 0.0183333 0 0.00853333 0.0183333 0 0.00924444 0.0183333 0 0.00995556 0.0183333 0 0.0106667 0.0183333 0 0 0.0186667 0 0.000755556 0.0186667 0 0.00151111 0.0186667 0 0.00226667 0.0186667 0 0.00302222 0.0186667 0 0.00377778 0.0186667 0 0.00453333 0.0186667 0 0.00528889 0.0186667 0 0.00604444 0.0186667 0 0.0068 0.0186667 0 0.00755556 0.0186667 0 0.00831111 0.0186667 0 0.00906667 0.0186667 0 0.00982222 0.0186667 0 0.0105778 0.0186667 0 0.0113333 0.0186667 0 0 0.019 0 0.0008 0.019 0 0.0016 0.019 0 0.0024 0.019 0 0.0032 0.019 0 0.004 0.019 0 0.0048 0.019 0 0.0056 0.019 0 0.0064 0.019 0 0.0072 0.019 0 0.008 0.019 0 0.0088 0.019 0 0.0096 0.019 0 0.0104 0.019 0 0.0112 0.019 0 0.012 0.019 0 0 0.0193333 0 0.000844444 0.0193333 0 0.00168889 0.0193333 0 0.00253333 0.0193333 0 0.00337778 0.0193333 0 0.00422222 0.0193333 0 0.00506667 0.0193333 0 0.00591111 0.0193333 0 0.00675556 0.0193333 0 0.0076 0.0193333 0 0.00844444 0.0193333 0 0.00928889 0.0193333 0 0.0101333 0.0193333 0 0.0109778 0.0193333 0 0.0118222 0.0193333 0 0.0126667 0.0193333 0 0 0.0196667 0 0.000888889 0.0196667 0 0.00177778 0.0196667 0 0.00266667 0.0196667 0 0.00355556 0.0196667 0 0.00444444 0.0196667 0 0.00533333 0.0196667 0 0.00622222 0.0196667 0 0.00711111 0.0196667 0 0.008 0.0196667 0 0.00888889 0.0196667 0 0.00977778 0.0196667 0 0.0106667 0.0196667 0 0.0115556 0.0196667 0 0.0124444 0.0196667 0 0.0133333 0.0196667 0 0 0.02 0 0.000933333 0.02 0 0.00186667 0.02 0 0.0028 0.02 0 0.00373333 0.02 0 0.00466667 0.02 0 0.0056 0.02 0 0.00653333 0.02 0 0.00746667 0.02 0 0.0084 0.02 0 0.00933333 0.02 0 0.0102667 0.02 0 0.0112 0.02 0 0.0121333 0.02 0 0.0130667 0.02 0 0.014 0.02 0 0 0.0203333 0 0.000977778 0.0203333 0 0.00195556 0.0203333 0 0.00293333 0.0203333 0 0.00391111 0.0203333 0 0.00488889 0.0203333 0 0.00586667 0.0203333 0 0.00684444 0.0203333 0 0.00782222 0.0203333 0 0.0088 0.0203333 0 0.00977778 0.0203333 0 0.0107556 0.0203333 0 0.0117333 0.0203333 0 0.0127111 0.0203333 0 0.0136889 0.0203333 0 0.0146667 0.0203333 0 0 0.0206667 0 0.00102222 0.0206667 0 0.00204444 0.0206667 0 0.00306667 0.0206667 0 0.00408889 0.0206667 0 0.00511111 0.0206667 0 0.00613333 0.0206667 0 0.00715556 0.0206667 0 0.00817778 0.0206667 0 0.0092 0.0206667 0 0.0102222 0.0206667 0 0.0112444 0.0206667 0 0.0122667 0.0206667 0 0.0132889 0.0206667 0 0.0143111 0.0206667 0 0.0153333 0.0206667 0 0 0.021 0 0.00106667 0.021 0 0.00213333 0.021 0 0.0032 0.021 0 0.00426667 0.021 0 0.00533333 0.021 0 0.0064 0.021 0 0.00746667 0.021 0 0.00853333 0.021 0 0.0096 0.021 0 0.0106667 0.021 0 0.0117333 0.021 0 0.0128 0.021 0 0.0138667 0.021 0 0.0149333 0.021 0 0.016 0.021 0 
</DataArray>
</Points> 
</Piece> 
</StructuredGrid> 
</VTKFile> 
