<?xml version="1.0"?> 
<VTKFile type="StructuredGrid" version="0.1"> 
<StructuredGrid WholeExtent="0 15 0 15 0 0"> 
<Piece Extent="0 15 0 15 0 0"> 
<PointData>
<DataArray type="Float32" Name="|E|" format="ascii" NumberOfComponents="3"> 
1.66343e+06 -663502 0 1.92432e+06 -287708 0 1.9372e+06 35621.3 0 1.78507e+06 214866 0 1.58636e+06 282720 0 1.38953e+06 290434 0 1.21101e+06 270204 0 1.05525e+06 238737 0 922757 203954 0 812383 169501 0 722544 136811 0 651574 106279 0 597998 77768.7 0 560610 50896.9 0 538533 25159.9 0 531234 0 0 1.71121e+06 -682559 0 1.96815e+06 -286472 0 1.95934e+06 55372.5 0 1.79029e+06 237831 0 1.58335e+06 304094 0 1.38335e+06 309094 0 1.20412e+06 286257 0 1.04868e+06 252355 0 916907 215358 0 807331 178887 0 718235 144356 0 647889 112131 0 594802 82051 0 557760 53700.6 0 535890 26546.4 0 528660 0 0 1.76036e+06 -702164 0 2.01404e+06 -282335 0 1.98168e+06 77696.1 0 1.79505e+06 262026 0 1.57991e+06 325963 0 1.37683e+06 327880 0 1.19695e+06 302296 0 1.04187e+06 265897 0 910845 226674 0 802086 188188 0 713747 151827 0 644039 117926 0 591449 86290.4 0 554761 56476.2 0 533101 27919 0 525941 0 0 1.81131e+06 -722490 0 2.06214e+06 -275008 0 2.004e+06 102681 0 1.79923e+06 287433 0 1.57597e+06 348304 0 1.36996e+06 346778 0 1.18948e+06 318313 0 1.03482e+06 279357 0 904569 237897 0 796648 197402 0 709082 159225 0 640023 123661 0 587940 90485.9 0 551612 59223 0 530166 29277.4 0 523077 0 0 1.86461e+06 -743750 0 2.11258e+06 -264114 0 2.02609e+06 130395 0 1.80274e+06 314027 0 1.57151e+06 371087 0 1.3627e+06 365771 0 1.18172e+06 334301 0 1.02752e+06 292731 0 898078 249027 0 791018 206525 0 704240 166546 0 635843 129335 0 584277 94636.7 0 548315 61940.5 0 527087 30621.3 0 520071 0 0 1.92092e+06 -766208 0 2.16544e+06 -249185 0 2.04767e+06 160878 0 1.80545e+06 341783 0 1.56645e+06 394274 0 1.35505e+06 384844 0 1.17365e+06 350251 0 1.01998e+06 306013 0 891371 260059 0 785195 215557 0 699222 173789 0 631499 134948 0 580458 98741.8 0 544870 64628.1 0 523864 31950.3 0 516922 0 0 1.98108e+06 -790206 0 2.22079e+06 -229653 0 2.06845e+06 194133 0 1.80727e+06 370671 0 1.56077e+06 417818 0 1.34699e+06 403983 0 1.16527e+06 366150 0 1.0122e+06 319200 0 884447 270990 0 779182 224494 0 694028 180953 0 626993 140497 0 576487 102800 0 541278 67285.1 0 520498 33264.3 0 513631 0 0 2.04624e+06 -816197 0 2.27861e+06 -204850 0 2.08813e+06 230114 0 1.80808e+06 400667 0 1.55442e+06 441661 0 1.3385e+06 423179 0 1.15656e+06 381984 0 1.00416e+06 332286 0 877305 281816 0 772979 233335 0 688659 188036 0 622325 145982 0 572362 106811 0 537539 69911.1 0 516990 34562.8 0 510199 0 0 2.11795e+06 -844801 0 2.33876e+06 -174008 0 2.10634e+06 268725 0 1.80778e+06 431745 0 1.54736e+06 465731 0 1.32956e+06 442423 0 1.14753e+06 397737 0 995869 345270 0 869945 292532 0 766586 242078 0 683116 195037 0 617497 151402 0 568086 110774 0 533656 72505.3 0 513340 35845.6 0 506626 0 0 2.1984e+06 -876888 0 2.40098e+06 -136282 0 2.12272e+06 309820 0 1.80629e+06 463880 0 1.53956e+06 489948 0 1.32016e+06 461713 0 1.13816e+06 413387 0 987325 358149 0 862368 303134 0 760004 250721 0 677401 201952 0 612509 156754 0 563659 114687 0 529629 75067.3 0 509549 37112.5 0 502914 0 0 2.2907e+06 -913705 0 2.46475e+06 -90801.2 0 2.13689e+06 353222 0 1.80351e+06 497031 0 1.53102e+06 514224 0 1.31029e+06 481049 0 1.12846e+06 428910 0 978523 370923 0 854575 313614 0 753233 259262 0 671513 208780 0 607363 162039 0 559083 118550 0 525458 77596.2 0 505619 38363.1 0 499063 0 0 2.39941e+06 -957070 0 2.5292e+06 -36761.4 0 2.14852e+06 398779 0 1.79934e+06 531111 0 1.52171e+06 538487 0 1.29992e+06 500426 0 1.11844e+06 444284 0 969456 383592 0 846571 323965 0 746273 267701 0 665456 215520 0 602060 167254 0 554358 122363 0 521144 80091.5 0 501549 39597.3 0 495075 0 0 2.53128e+06 -1.00967e+06 0 2.59301e+06 26392.8 0 2.15729e+06 446469 0 1.7937e+06 565917 0 1.51163e+06 562716 0 1.28902e+06 519812 0 1.1081e+06 459496 0 960117 396150 0 838359 334183 0 739122 276035 0 659232 222168 0 596599 172399 0 549486 126123 0 516689 82552.6 0 497342 40814.9 0 490950 0 0 2.69634e+06 -1.07551e+06 0 2.65414e+06 98658.8 0 2.16298e+06 496617 0 1.78651e+06 600999 0 1.5008e+06 587017 0 1.27758e+06 539109 0 1.09746e+06 474564 0 950501 408580 0 829945 344269 0 731779 284260 0 652844 228724 0 590981 177472 0 544468 129831 0 512094 84978.7 0 492999 42015.7 0 486690 0 0 2.90972e+06 -1.16062e+06 0 2.70953e+06 178937 0 2.16555e+06 550276 0 1.77771e+06 635409 0 1.48919e+06 611777 0 1.26561e+06 558074 0 1.0865e+06 489581 0 940610 420826 0 821329 354237 0 724246 292367 0 646293 235187 0 585209 182472 0 539307 133484 0 507359 87369.8 0 488519 43198.9 0 482295 0 0 3.19433e+06 -1.27414e+06 0 2.75473e+06 264254 0 2.16512e+06 609838 0 1.7673e+06 667309 0 1.47672e+06 637906 0 1.25318e+06 576170 0 1.07517e+06 504791 0 930476 432763 0 812494 364136 0 716534 300333 0 639574 241564 0 579284 187396 0 534001 137082 0 502486 89726.8 0 483905 44362.7 0 477767 0 0 </DataArray> 
</PointData> 
<Points> 
<DataArray type="Float32" NumberOfComponents="3"> 
0.1947 0.02 0 0.206587 0.02 0 0.218473 0.02 0 0.23036 0.02 0 0.242247 0.02 0 0.254133 0.02 0 0.26602 0.02 0 0.277907 0.02 0 0.289793 0.02 0 0.30168 0.02 0 0.313567 0.02 0 0.325453 0.02 0 0.33734 0.02 0 0.349227 0.02 0 0.361113 0.02 0 0.373 0.02 0 0.195173 0.0211867 0 0.207028 0.0211867 0 0.218884 0.0211867 0 0.230739 0.0211867 0 0.242594 0.0211867 0 0.254449 0.0211867 0 0.266304 0.0211867 0 0.278159 0.0211867 0 0.290014 0.0211867 0 0.301869 0.0211867 0 0.313724 0.0211867 0 0.32558 0.0211867 0 0.337435 0.0211867 0 0.34929 0.0211867 0 0.361145 0.0211867 0 0.373 0.0211867 0 0.195647 0.0223733 0 0.20747 0.0223733 0 0.219294 0.0223733 0 0.231117 0.0223733 0 0.242941 0.0223733 0 0.254764 0.0223733 0 0.266588 0.0223733 0 0.278412 0.0223733 0 0.290235 0.0223733 0 0.302059 0.0223733 0 0.313882 0.0223733 0 0.325706 0.0223733 0 0.337529 0.0223733 0 0.349353 0.0223733 0 0.361176 0.0223733 0 0.373 0.0223733 0 0.19612 0.02356 0 0.207912 0.02356 0 0.219704 0.02356 0 0.231496 0.02356 0 0.243288 0.02356 0 0.25508 0.02356 0 0.266872 0.02356 0 0.278664 0.02356 0 0.290456 0.02356 0 0.302248 0.02356 0 0.31404 0.02356 0 0.325832 0.02356 0 0.337624 0.02356 0 0.349416 0.02356 0 0.361208 0.02356 0 0.373 0.02356 0 0.196593 0.0247467 0 0.208354 0.0247467 0 0.220114 0.0247467 0 0.231875 0.0247467 0 0.243635 0.0247467 0 0.255396 0.0247467 0 0.267156 0.0247467 0 0.278916 0.0247467 0 0.290677 0.0247467 0 0.302437 0.0247467 0 0.314198 0.0247467 0 0.325958 0.0247467 0 0.337719 0.0247467 0 0.349479 0.0247467 0 0.36124 0.0247467 0 0.373 0.0247467 0 0.197067 0.0259333 0 0.208796 0.0259333 0 0.220524 0.0259333 0 0.232253 0.0259333 0 0.243982 0.0259333 0 0.255711 0.0259333 0 0.26744 0.0259333 0 0.279169 0.0259333 0 0.290898 0.0259333 0 0.302627 0.0259333 0 0.314356 0.0259333 0 0.326084 0.0259333 0 0.337813 0.0259333 0 0.349542 0.0259333 0 0.361271 0.0259333 0 0.373 0.0259333 0 0.19754 0.02712 0 0.209237 0.02712 0 0.220935 0.02712 0 0.232632 0.02712 0 0.244329 0.02712 0 0.256027 0.02712 0 0.267724 0.02712 0 0.279421 0.02712 0 0.291119 0.02712 0 0.302816 0.02712 0 0.314513 0.02712 0 0.326211 0.02712 0 0.337908 0.02712 0 0.349605 0.02712 0 0.361303 0.02712 0 0.373 0.02712 0 0.198013 0.0283067 0 0.209679 0.0283067 0 0.221345 0.0283067 0 0.233011 0.0283067 0 0.244676 0.0283067 0 0.256342 0.0283067 0 0.268008 0.0283067 0 0.279674 0.0283067 0 0.29134 0.0283067 0 0.303005 0.0283067 0 0.314671 0.0283067 0 0.326337 0.0283067 0 0.338003 0.0283067 0 0.349668 0.0283067 0 0.361334 0.0283067 0 0.373 0.0283067 0 0.198487 0.0294933 0 0.210121 0.0294933 0 0.221755 0.0294933 0 0.233389 0.0294933 0 0.245024 0.0294933 0 0.256658 0.0294933 0 0.268292 0.0294933 0 0.279926 0.0294933 0 0.29156 0.0294933 0 0.303195 0.0294933 0 0.314829 0.0294933 0 0.326463 0.0294933 0 0.338097 0.0294933 0 0.349732 0.0294933 0 0.361366 0.0294933 0 0.373 0.0294933 0 0.19896 0.03068 0 0.210563 0.03068 0 0.222165 0.03068 0 0.233768 0.03068 0 0.245371 0.03068 0 0.256973 0.03068 0 0.268576 0.03068 0 0.280179 0.03068 0 0.291781 0.03068 0 0.303384 0.03068 0 0.314987 0.03068 0 0.326589 0.03068 0 0.338192 0.03068 0 0.349795 0.03068 0 0.361397 0.03068 0 0.373 0.03068 0 0.199433 0.0318667 0 0.211004 0.0318667 0 0.222576 0.0318667 0 0.234147 0.0318667 0 0.245718 0.0318667 0 0.257289 0.0318667 0 0.26886 0.0318667 0 0.280431 0.0318667 0 0.292002 0.0318667 0 0.303573 0.0318667 0 0.315144 0.0318667 0 0.326716 0.0318667 0 0.338287 0.0318667 0 0.349858 0.0318667 0 0.361429 0.0318667 0 0.373 0.0318667 0 0.199907 0.0330533 0 0.211446 0.0330533 0 0.222986 0.0330533 0 0.234525 0.0330533 0 0.246065 0.0330533 0 0.257604 0.0330533 0 0.269144 0.0330533 0 0.280684 0.0330533 0 0.292223 0.0330533 0 0.303763 0.0330533 0 0.315302 0.0330533 0 0.326842 0.0330533 0 0.338381 0.0330533 0 0.349921 0.0330533 0 0.36146 0.0330533 0 0.373 0.0330533 0 0.20038 0.03424 0 0.211888 0.03424 0 0.223396 0.03424 0 0.234904 0.03424 0 0.246412 0.03424 0 0.25792 0.03424 0 0.269428 0.03424 0 0.280936 0.03424 0 0.292444 0.03424 0 0.303952 0.03424 0 0.31546 0.03424 0 0.326968 0.03424 0 0.338476 0.03424 0 0.349984 0.03424 0 0.361492 0.03424 0 0.373 0.03424 0 0.200853 0.0354267 0 0.21233 0.0354267 0 0.223806 0.0354267 0 0.235283 0.0354267 0 0.246759 0.0354267 0 0.258236 0.0354267 0 0.269712 0.0354267 0 0.281188 0.0354267 0 0.292665 0.0354267 0 0.304141 0.0354267 0 0.315618 0.0354267 0 0.327094 0.0354267 0 0.338571 0.0354267 0 0.350047 0.0354267 0 0.361524 0.0354267 0 0.373 0.0354267 0 0.201327 0.0366133 0 0.212772 0.0366133 0 0.224216 0.0366133 0 0.235661 0.0366133 0 0.247106 0.0366133 0 0.258551 0.0366133 0 0.269996 0.0366133 0 0.281441 0.0366133 0 0.292886 0.0366133 0 0.304331 0.0366133 0 0.315776 0.0366133 0 0.32722 0.0366133 0 0.338665 0.0366133 0 0.35011 0.0366133 0 0.361555 0.0366133 0 0.373 0.0366133 0 0.2018 0.0378 0 0.213213 0.0378 0 0.224627 0.0378 0 0.23604 0.0378 0 0.247453 0.0378 0 0.258867 0.0378 0 0.27028 0.0378 0 0.281693 0.0378 0 0.293107 0.0378 0 0.30452 0.0378 0 0.315933 0.0378 0 0.327347 0.0378 0 0.33876 0.0378 0 0.350173 0.0378 0 0.361587 0.0378 0 0.373 0.0378 0 
</DataArray>
</Points> 
</Piece> 
</StructuredGrid> 
</VTKFile> 
