<?xml version="1.0"?> 
<VTKFile type="StructuredGrid" version="0.1"> 
<StructuredGrid WholeExtent="0 15 0 15 0 0"> 
<Piece Extent="0 15 0 15 0 0"> 
<PointData>
<DataArray type="Float32" Name="|E|" format="ascii" NumberOfComponents="3"> 
1.22241e+06 -124736 0 1.57368e+06 -103817 0 1.73018e+06 -23823.3 0 1.71616e+06 28814.2 0 1.59827e+06 60376.3 0 1.43678e+06 68397.7 0 1.26841e+06 67479.9 0 1.11114e+06 60724.6 0 972597 52555.7 0 855030 43843.8 0 758399 35473.8 0 681667 27567.8 0 623589 20169.9 0 583007 13198.1 0 559030 6520.86 0 551102 0 0 1.22494e+06 -124994 0 1.57563e+06 -110057 0 1.73234e+06 -25752.2 0 1.71717e+06 31260.6 0 1.59844e+06 64257.7 0 1.43656e+06 72999.9 0 1.268e+06 71858.6 0 1.11072e+06 64704.7 0 972190 55971.4 0 854679 46699.8 0 758094 37780.6 0 681407 29361 0 623364 21482 0 582807 14056.4 0 558845 6945.2 0 550922 0 0 1.22598e+06 -125100 0 1.57786e+06 -116341 0 1.73461e+06 -27631.3 0 1.71825e+06 33736.2 0 1.59864e+06 68161.2 0 1.43635e+06 77609.2 0 1.26758e+06 76240.5 0 1.11028e+06 68684.3 0 971769 59386 0 854312 49554.3 0 757774 40086.1 0 681134 31153 0 623126 22793.1 0 582596 14914 0 558649 7369.26 0 550731 0 0 1.22553e+06 -125054 0 1.58035e+06 -122654 0 1.73699e+06 -29471.3 0 1.71939e+06 36249.1 0 1.59886e+06 72083.9 0 1.43613e+06 82227.9 0 1.26715e+06 80624.8 0 1.10983e+06 72663.8 0 971333 62799.3 0 853929 52407.3 0 757440 42390.3 0 680848 32944 0 622876 24103.4 0 582373 15771.2 0 558442 7793.02 0 550529 0 0 1.22355e+06 -124852 0 1.58312e+06 -128981 0 1.73948e+06 -31283.3 0 1.7206e+06 38808.1 0 1.59912e+06 76022.7 0 1.43591e+06 86858.4 0 1.26672e+06 85010.9 0 1.10936e+06 76643.7 0 970882 66211.3 0 853531 55258.9 0 757092 44693 0 680548 34733.7 0 622613 25412.9 0 582137 16627.7 0 558222 8216.49 0 550315 0 0 1.22e+06 -124490 0 1.58617e+06 -135305 0 1.74207e+06 -33079.2 0 1.72189e+06 41422.1 0 1.5994e+06 79974.5 0 1.43569e+06 91503.3 0 1.26628e+06 89397.7 0 1.10888e+06 80624.7 0 970417 69621.6 0 853118 58109.2 0 756730 46994.2 0 680235 36522.3 0 622338 26721.4 0 581890 17483.7 0 557992 8639.67 0 550090 0 0 1.21485e+06 -123964 0 1.58952e+06 -141608 0 1.74477e+06 -34871.6 0 1.72323e+06 44100.7 0 1.59971e+06 83935.5 0 1.43547e+06 96165.3 0 1.26583e+06 93784.5 0 1.10838e+06 84607.2 0 969937 73030 0 852690 60958.1 0 756354 49293.9 0 679908 38309.7 0 622050 28029 0 581631 18339 0 557750 9062.56 0 549854 0 0 1.20801e+06 -123266 0 1.59317e+06 -147871 0 1.74757e+06 -36674 0 1.72465e+06 46854.2 0 1.60005e+06 87901.8 0 1.43524e+06 100847 0 1.26537e+06 98170.1 0 1.10787e+06 88591.9 0 969442 76436.4 0 852246 63805.9 0 755964 51592 0 679568 40095.9 0 621750 29335.7 0 581360 19193.7 0 557496 9485.16 0 549606 0 0 1.1994e+06 -122388 0 1.59716e+06 -154072 0 1.75048e+06 -38501.7 0 1.72613e+06 49693.8 0 1.60042e+06 91868.9 0 1.43502e+06 105553 0 1.2649e+06 102553 0 1.10734e+06 92579.6 0 968934 79840.4 0 851786 66652.6 0 755560 53888.4 0 679215 41880.8 0 621438 30641.5 0 581077 20047.7 0 557231 9907.48 0 549347 0 0 1.18894e+06 -121320 0 1.60148e+06 -160187 0 1.75349e+06 -40371.1 0 1.72767e+06 52631.7 0 1.60082e+06 95831.6 0 1.43479e+06 110285 0 1.26443e+06 106933 0 1.10679e+06 96570.9 0 968410 83241.7 0 851311 69498.2 0 755142 56183.2 0 678848 43664.5 0 621113 31946.3 0 580783 20901 0 556955 10329.5 0 549077 0 0 1.17649e+06 -120050 0 1.60618e+06 -166189 0 1.75661e+06 -42300.9 0 1.72927e+06 55681.2 0 1.60124e+06 99784.3 0 1.43455e+06 115047 0 1.26395e+06 111307 0 1.10623e+06 100567 0 967873 86640 0 850820 72343 0 754710 58476.1 0 678468 45446.9 0 620775 33250.2 0 580476 21753.6 0 556667 10751.3 0 548795 0 0 1.16194e+06 -118565 0 1.61127e+06 -172047 0 1.75982e+06 -44311.9 0 1.73094e+06 58857.3 0 1.6017e+06 103720 0 1.43431e+06 119845 0 1.26346e+06 115674 0 1.10565e+06 104568 0 967322 90034.9 0 850313 75187 0 754264 60767.3 0 678074 47227.9 0 620426 34553 0 580158 22605.5 0 556368 11172.8 0 548502 0 0 1.14511e+06 -116848 0 1.61679e+06 -177727 0 1.76312e+06 -46427.8 0 1.73267e+06 62176.4 0 1.60219e+06 107632 0 1.43406e+06 124682 0 1.26297e+06 120032 0 1.10506e+06 108577 0 966757 93425.8 0 849790 78030.4 0 753805 63056.5 0 677666 49007.6 0 620064 35855 0 579827 23456.5 0 556057 11594 0 548198 0 0 1.12585e+06 -114882 0 1.62276e+06 -183188 0 1.76652e+06 -48675.1 0 1.73446e+06 65657 0 1.6027e+06 111510 0 1.43381e+06 129564 0 1.26248e+06 124378 0 1.10444e+06 112593 0 966179 96812.3 0 849250 80873.4 0 753332 65343.7 0 677245 50786 0 619689 37155.9 0 579485 24306.8 0 555735 12015 0 547883 0 0 1.10393e+06 -112646 0 1.62923e+06 -188387 0 1.77e+06 -51084.2 0 1.7363e+06 69319.9 0 1.60325e+06 115345 0 1.43354e+06 134498 0 1.26198e+06 128710 0 1.10381e+06 116618 0 965589 100194 0 848694 83716.2 0 752846 67628.8 0 676810 52563 0 619303 38455.9 0 579131 25156.1 0 555402 12435.8 0 547557 0 0 1.07915e+06 -110117 0 1.63623e+06 -193272 0 1.77357e+06 -53688.9 0 1.7382e+06 73188 0 1.60384e+06 119125 0 1.43326e+06 139491 0 1.26148e+06 133024 0 1.10315e+06 120655 0 964986 103569 0 848121 86559.1 0 752346 69911.7 0 676361 54338.5 0 618904 39755 0 578765 26004.6 0 555057 12856.4 0 547219 0 0 </DataArray> 
</PointData> 
<Points> 
<DataArray type="Float32" NumberOfComponents="3"> 
0.19 0.005 0 0.2022 0.005 0 0.2144 0.005 0 0.2266 0.005 0 0.2388 0.005 0 0.251 0.005 0 0.2632 0.005 0 0.2754 0.005 0 0.2876 0.005 0 0.2998 0.005 0 0.312 0.005 0 0.3242 0.005 0 0.3364 0.005 0 0.3486 0.005 0 0.3608 0.005 0 0.373 0.005 0 0.190033 0.00532667 0 0.202231 0.00532667 0 0.214429 0.00532667 0 0.226627 0.00532667 0 0.238824 0.00532667 0 0.251022 0.00532667 0 0.26322 0.00532667 0 0.275418 0.00532667 0 0.287616 0.00532667 0 0.299813 0.00532667 0 0.312011 0.00532667 0 0.324209 0.00532667 0 0.336407 0.00532667 0 0.348604 0.00532667 0 0.360802 0.00532667 0 0.373 0.00532667 0 0.190067 0.00565333 0 0.202262 0.00565333 0 0.214458 0.00565333 0 0.226653 0.00565333 0 0.238849 0.00565333 0 0.251044 0.00565333 0 0.26324 0.00565333 0 0.275436 0.00565333 0 0.287631 0.00565333 0 0.299827 0.00565333 0 0.312022 0.00565333 0 0.324218 0.00565333 0 0.336413 0.00565333 0 0.348609 0.00565333 0 0.360804 0.00565333 0 0.373 0.00565333 0 0.1901 0.00598 0 0.202293 0.00598 0 0.214487 0.00598 0 0.22668 0.00598 0 0.238873 0.00598 0 0.251067 0.00598 0 0.26326 0.00598 0 0.275453 0.00598 0 0.287647 0.00598 0 0.29984 0.00598 0 0.312033 0.00598 0 0.324227 0.00598 0 0.33642 0.00598 0 0.348613 0.00598 0 0.360807 0.00598 0 0.373 0.00598 0 0.190133 0.00630667 0 0.202324 0.00630667 0 0.214516 0.00630667 0 0.226707 0.00630667 0 0.238898 0.00630667 0 0.251089 0.00630667 0 0.26328 0.00630667 0 0.275471 0.00630667 0 0.287662 0.00630667 0 0.299853 0.00630667 0 0.312044 0.00630667 0 0.324236 0.00630667 0 0.336427 0.00630667 0 0.348618 0.00630667 0 0.360809 0.00630667 0 0.373 0.00630667 0 0.190167 0.00663333 0 0.202356 0.00663333 0 0.214544 0.00663333 0 0.226733 0.00663333 0 0.238922 0.00663333 0 0.251111 0.00663333 0 0.2633 0.00663333 0 0.275489 0.00663333 0 0.287678 0.00663333 0 0.299867 0.00663333 0 0.312056 0.00663333 0 0.324244 0.00663333 0 0.336433 0.00663333 0 0.348622 0.00663333 0 0.360811 0.00663333 0 0.373 0.00663333 0 0.1902 0.00696 0 0.202387 0.00696 0 0.214573 0.00696 0 0.22676 0.00696 0 0.238947 0.00696 0 0.251133 0.00696 0 0.26332 0.00696 0 0.275507 0.00696 0 0.287693 0.00696 0 0.29988 0.00696 0 0.312067 0.00696 0 0.324253 0.00696 0 0.33644 0.00696 0 0.348627 0.00696 0 0.360813 0.00696 0 0.373 0.00696 0 0.190233 0.00728667 0 0.202418 0.00728667 0 0.214602 0.00728667 0 0.226787 0.00728667 0 0.238971 0.00728667 0 0.251156 0.00728667 0 0.26334 0.00728667 0 0.275524 0.00728667 0 0.287709 0.00728667 0 0.299893 0.00728667 0 0.312078 0.00728667 0 0.324262 0.00728667 0 0.336447 0.00728667 0 0.348631 0.00728667 0 0.360816 0.00728667 0 0.373 0.00728667 0 0.190267 0.00761333 0 0.202449 0.00761333 0 0.214631 0.00761333 0 0.226813 0.00761333 0 0.238996 0.00761333 0 0.251178 0.00761333 0 0.26336 0.00761333 0 0.275542 0.00761333 0 0.287724 0.00761333 0 0.299907 0.00761333 0 0.312089 0.00761333 0 0.324271 0.00761333 0 0.336453 0.00761333 0 0.348636 0.00761333 0 0.360818 0.00761333 0 0.373 0.00761333 0 0.1903 0.00794 0 0.20248 0.00794 0 0.21466 0.00794 0 0.22684 0.00794 0 0.23902 0.00794 0 0.2512 0.00794 0 0.26338 0.00794 0 0.27556 0.00794 0 0.28774 0.00794 0 0.29992 0.00794 0 0.3121 0.00794 0 0.32428 0.00794 0 0.33646 0.00794 0 0.34864 0.00794 0 0.36082 0.00794 0 0.373 0.00794 0 0.190333 0.00826667 0 0.202511 0.00826667 0 0.214689 0.00826667 0 0.226867 0.00826667 0 0.239044 0.00826667 0 0.251222 0.00826667 0 0.2634 0.00826667 0 0.275578 0.00826667 0 0.287756 0.00826667 0 0.299933 0.00826667 0 0.312111 0.00826667 0 0.324289 0.00826667 0 0.336467 0.00826667 0 0.348644 0.00826667 0 0.360822 0.00826667 0 0.373 0.00826667 0 0.190367 0.00859333 0 0.202542 0.00859333 0 0.214718 0.00859333 0 0.226893 0.00859333 0 0.239069 0.00859333 0 0.251244 0.00859333 0 0.26342 0.00859333 0 0.275596 0.00859333 0 0.287771 0.00859333 0 0.299947 0.00859333 0 0.312122 0.00859333 0 0.324298 0.00859333 0 0.336473 0.00859333 0 0.348649 0.00859333 0 0.360824 0.00859333 0 0.373 0.00859333 0 0.1904 0.00892 0 0.202573 0.00892 0 0.214747 0.00892 0 0.22692 0.00892 0 0.239093 0.00892 0 0.251267 0.00892 0 0.26344 0.00892 0 0.275613 0.00892 0 0.287787 0.00892 0 0.29996 0.00892 0 0.312133 0.00892 0 0.324307 0.00892 0 0.33648 0.00892 0 0.348653 0.00892 0 0.360827 0.00892 0 0.373 0.00892 0 0.190433 0.00924667 0 0.202604 0.00924667 0 0.214776 0.00924667 0 0.226947 0.00924667 0 0.239118 0.00924667 0 0.251289 0.00924667 0 0.26346 0.00924667 0 0.275631 0.00924667 0 0.287802 0.00924667 0 0.299973 0.00924667 0 0.312144 0.00924667 0 0.324316 0.00924667 0 0.336487 0.00924667 0 0.348658 0.00924667 0 0.360829 0.00924667 0 0.373 0.00924667 0 0.190467 0.00957333 0 0.202636 0.00957333 0 0.214804 0.00957333 0 0.226973 0.00957333 0 0.239142 0.00957333 0 0.251311 0.00957333 0 0.26348 0.00957333 0 0.275649 0.00957333 0 0.287818 0.00957333 0 0.299987 0.00957333 0 0.312156 0.00957333 0 0.324324 0.00957333 0 0.336493 0.00957333 0 0.348662 0.00957333 0 0.360831 0.00957333 0 0.373 0.00957333 0 0.1905 0.0099 0 0.202667 0.0099 0 0.214833 0.0099 0 0.227 0.0099 0 0.239167 0.0099 0 0.251333 0.0099 0 0.2635 0.0099 0 0.275667 0.0099 0 0.287833 0.0099 0 0.3 0.0099 0 0.312167 0.0099 0 0.324333 0.0099 0 0.3365 0.0099 0 0.348667 0.0099 0 0.360833 0.0099 0 0.373 0.0099 0 
</DataArray>
</Points> 
</Piece> 
</StructuredGrid> 
</VTKFile> 
