<?xml version="1.0"?> 
<VTKFile type="StructuredGrid" version="0.1"> 
<StructuredGrid WholeExtent="0 15 0 15 0 0"> 
<Piece Extent="0 15 0 15 0 0"> 
<PointData>
<DataArray type="Float32" Name="|E|" format="ascii" NumberOfComponents="3"> 
-336700 4.23718e+06 0 -101712 4.80438e+06 0 207212 5.2111e+06 0 573951 5.52394e+06 0 990283 5.76022e+06 0 1.44848e+06 5.92131e+06 0 1.93853e+06 6.00139e+06 0 2.4467e+06 5.99194e+06 0 2.95584e+06 5.8864e+06 0 3.44709e+06 5.6838e+06 0 3.90239e+06 5.3903e+06 0 4.30659e+06 5.01846e+06 0 4.64876e+06 4.58509e+06 0 4.92249e+06 4.10886e+06 0 5.12551e+06 3.60813e+06 0 5.25885e+06 3.09956e+06 0 746245 4.19257e+06 0 899397 4.42031e+06 0 1.16501e+06 4.58025e+06 0 1.49748e+06 4.63297e+06 0 1.84575e+06 4.57182e+06 0 2.16749e+06 4.41112e+06 0 2.43449e+06 4.17771e+06 0 2.63441e+06 3.90219e+06 0 2.76815e+06 3.61178e+06 0 2.84507e+06 3.32652e+06 0 2.87816e+06 3.0587e+06 0 2.88055e+06 2.81424e+06 0 2.86354e+06 2.59461e+06 0 2.83592e+06 2.39868e+06 0 2.80401e+06 2.22405e+06 0 2.77202e+06 2.06791e+06 0 1.03926e+06 4.05655e+06 0 1.1851e+06 4.1323e+06 0 1.40934e+06 4.13618e+06 0 1.66047e+06 4.0419e+06 0 1.88801e+06 3.85718e+06 0 2.05986e+06 3.61183e+06 0 2.16667e+06 3.34076e+06 0 2.21568e+06 3.07175e+06 0 2.22159e+06 2.82128e+06 0 2.19938e+06 2.59617e+06 0 2.16095e+06 2.39719e+06 0 2.11439e+06 2.22239e+06 0 2.06471e+06 2.06906e+06 0 2.01486e+06 1.93469e+06 0 1.96664e+06 1.81715e+06 0 1.92117e+06 1.71463e+06 0 1.09777e+06 3.93661e+06 0 1.23402e+06 3.91294e+06 0 1.41526e+06 3.82349e+06 0 1.59654e+06 3.654e+06 0 1.73797e+06 3.42211e+06 0 1.82221e+06 3.16026e+06 0 1.85241e+06 2.8977e+06 0 1.84179e+06 2.65236e+06 0 1.80472e+06 2.4318e+06 0 1.75259e+06 2.23724e+06 0 1.69332e+06 2.06714e+06 0 1.63219e+06 1.91903e+06 0 1.57274e+06 1.79013e+06 0 1.5173e+06 1.6776e+06 0 1.46725e+06 1.57857e+06 0 1.42319e+06 1.49033e+06 0 1.06661e+06 3.8365e+06 0 1.18815e+06 3.74611e+06 0 1.33368e+06 3.59766e+06 0 1.4637e+06 3.38628e+06 0 1.54919e+06 3.13365e+06 0 1.58295e+06 2.86943e+06 0 1.57349e+06 2.61612e+06 0 1.53453e+06 2.38531e+06 0 1.47851e+06 2.18058e+06 0 1.41472e+06 2.00129e+06 0 1.3495e+06 1.84488e+06 0 1.28683e+06 1.70809e+06 0 1.22886e+06 1.58758e+06 0 1.17637e+06 1.48049e+06 0 1.12931e+06 1.38471e+06 0 1.08729e+06 1.29892e+06 0 992423 3.75362e+06 0 1.10181e+06 3.61603e+06 0 1.21911e+06 3.42752e+06 0 1.31213e+06 3.18978e+06 0 1.36058e+06 2.92555e+06 0 1.3636e+06 2.66082e+06 0 1.33191e+06 2.4131e+06 0 1.27871e+06 2.19018e+06 0 1.21498e+06 1.99341e+06 0 1.14842e+06 1.82086e+06 0 1.08371e+06 1.66936e+06 0 1.02326e+06 1.53569e+06 0 968032 1.41727e+06 0 918323 1.31221e+06 0 874229 1.21907e+06 0 835772 1.13646e+06 0 900031 3.68499e+06 0 997918 3.51202e+06 0 1.09292e+06 3.29417e+06 0 1.15879e+06 3.03753e+06 0 1.18194e+06 2.7647e+06 0 1.16553e+06 2.49847e+06 0 1.12129e+06 2.25279e+06 0 1.06161e+06 2.03296e+06 0 996045 1.83889e+06 0 930699 1.66807e+06 0 868915 1.51748e+06 0 812306 1.38437e+06 0 761576 1.26642e+06 0 716907 1.1615e+06 0 678017 1.06754e+06 0 644256 982700 0 799351 3.62766e+06 0 886994 3.42703e+06 0 963986 3.18602e+06 0 1.00948e+06 2.91405e+06 0 1.015e+06 2.63325e+06 0 986392 2.36387e+06 0 935673 2.11732e+06 0 874257 1.89724e+06 0 810278 1.70279e+06 0 748570 1.53139e+06 0 691655 1.38017e+06 0 640656 1.24641e+06 0 595813 1.12765e+06 0 556779 1.02178e+06 0 522984 927275 0 493989 843171 0 696035 3.57989e+06 0 773906 3.35638e+06 0 835979 3.09572e+06 0 865905 2.80994e+06 0 859188 2.52078e+06 0 823417 2.24656e+06 0 770450 1.99697e+06 0 710579 1.77461e+06 0 650654 1.57826e+06 0 594515 1.40533e+06 0 543969 1.25286e+06 0 499550 1.11806e+06 0 461062 998521 0 428055 892279 0 400061 797600 0 376504 712643 0 592597 3.54024e+06 0 660895 3.29687e+06 0 710273 3.01838e+06 0 728241 2.71917e+06 0 713366 2.42077e+06 0 674290 2.14026e+06 0 622333 1.88617e+06 0 566575 1.66044e+06 0 512675 1.46164e+06 0 463538 1.28696e+06 0 420265 1.13332e+06 0 382932 997856 0 351177 878064 0 324480 771720 0 302204 676864 0 283779 592024 0 490309 3.50785e+06 0 548856 3.24627e+06 0 587192 2.95063e+06 0 596084 2.63762e+06 0 576407 2.32897e+06 0 537244 2.04103e+06 0 489025 1.78159e+06 0 439505 1.55217e+06 0 393151 1.35097e+06 0 351968 1.17491e+06 0 316473 1.02067e+06 0 286467 885136 0 261453 765516 0 240817 659376 0 224016 564701 0 210607 479683 0 389612 3.48207e+06 0 437990 3.20295e+06 0 466570 2.89001e+06 0 468871 2.56237e+06 0 447379 2.24244e+06 0 411004 1.94629e+06 0 368906 1.68126e+06 0 327364 1.44835e+06 0 289650 1.24531e+06 0 256968 1.06858e+06 0 229418 914444 0 206612 779407 0 187993 660376 0 173028 554715 0 161259 460142 0 152289 374687 0 290530 3.46248e+06 0 328116 3.1657e+06 0 348020 2.83465e+06 0 346051 2.49125e+06 0 325589 2.15909e+06 0 294682 1.85437e+06 0 260793 1.58399e+06 0 228588 1.34828e+06 0 200200 1.14424e+06 0 176199 967701 0 156414 814374 0 140388 680339 0 127635 562185 0 117726 456970 0 110305 362175 0 105131 275660 0 192830 3.4488e+06 0 218846 3.13358e+06 0 231069 2.78307e+06 0 227166 2.42255e+06 0 210574 2.07742e+06 0 187668 1.76421e+06 0 163770 1.48918e+06 0 141867 1.25166e+06 0 123103 1.04766e+06 0 107622 872155 0 95143 720255 0 85280.2 587581 0 77674.6 470352 0 72032 365333 0 68146.5 269761 0 65877.6 181211 0 96136.9 3.44086e+06 0 109670 3.10583e+06 0 115222 2.73401e+06 0 111879 2.35488e+06 0 102075 1.99633e+06 0 89542.5 1.67518e+06 0 77071.4 1.3966e+06 0 66033.2 1.15848e+06 0 56836.3 955545 0 49426.7 781856 0 43593.4 631858 0 39112.3 500703 0 35794 384250 0 33503.5 278955 0 32152.3 181728 0 31699 89824.8 0 0 3.43856e+06 0 0 3.08182e+06 0 0 2.68637e+06 0 0 2.2871e+06 0 0 1.91507e+06 0 0 1.58699e+06 0 0 1.30627e+06 0 0 1.06884e+06 0 0 867972 0 0 696737 0 0 548941 0 0 419291 0 0 303277 0 0 197001 0 0 96997.8 0 0 62.2272 0 </DataArray> 
</PointData> 
<Points> 
<DataArray type="Float32" NumberOfComponents="3"> 
0.188289 0.0577951 0 0.189354 0.0578489 0 0.190417 0.0578393 0 0.191469 0.0577641 0 0.192505 0.0576216 0 0.193519 0.0574112 0 0.194502 0.0571329 0 0.195449 0.0567875 0 0.196353 0.0563767 0 0.19721 0.0559032 0 0.198013 0.0553702 0 0.19876 0.0547818 0 0.199445 0.0541425 0 0.200067 0.0534574 0 0.200623 0.052732 0 0.201114 0.051972 0 0.18827 0.0614088 0 0.190096 0.0615058 0 0.191936 0.0615379 0 0.193781 0.0615029 0 0.195619 0.0613988 0 0.197441 0.0612248 0 0.199235 0.0609806 0 0.200992 0.0606669 0 0.202699 0.060285 0 0.204348 0.0598372 0 0.20593 0.0593264 0 0.207436 0.0587562 0 0.208858 0.0581309 0 0.210192 0.0574553 0 0.211431 0.0567345 0 0.212573 0.0559739 0 0.188251 0.0650224 0 0.190836 0.0651559 0 0.19345 0.0652237 0 0.196081 0.0652235 0 0.198714 0.0651534 0 0.201337 0.0650124 0 0.203934 0.0648 0 0.206492 0.0645166 0 0.208996 0.0641633 0 0.211434 0.0637421 0 0.213793 0.0632556 0 0.21606 0.0627069 0 0.218226 0.0621 0 0.220282 0.0614393 0 0.222219 0.0607295 0 0.224032 0.0599757 0 0.188231 0.0686361 0 0.191575 0.0687992 0 0.194959 0.0688967 0 0.19837 0.0689261 0 0.201791 0.0688857 0 0.205206 0.0687742 0 0.208598 0.0685912 0 0.21195 0.0683368 0 0.215245 0.068012 0 0.218467 0.0676183 0 0.221602 0.067158 0 0.224633 0.0666341 0 0.227549 0.0660499 0 0.230337 0.0654095 0 0.232987 0.0647171 0 0.235491 0.0639776 0 0.188212 0.0722497 0 0.192312 0.0724359 0 0.196463 0.072557 0 0.200648 0.0726109 0 0.20485 0.0725958 0 0.209049 0.0725105 0 0.213228 0.0723545 0 0.217366 0.0721279 0 0.221446 0.0718313 0 0.225449 0.071466 0 0.229358 0.0710341 0 0.233155 0.070538 0 0.236826 0.0699807 0 0.240357 0.0693659 0 0.243735 0.0686974 0 0.24695 0.0679795 0 0.188193 0.0758634 0 0.193048 0.0760658 0 0.197961 0.0762047 0 0.202915 0.0762779 0 0.20789 0.076284 0 0.212866 0.0762217 0 0.217824 0.0760904 0 0.222742 0.0758902 0 0.227601 0.0756216 0 0.23238 0.0752856 0 0.237062 0.074884 0 0.241627 0.0744188 0 0.246059 0.0738926 0 0.250343 0.0733087 0 0.254463 0.0726703 0 0.258409 0.0719813 0 0.188174 0.0794771 0 0.193782 0.079689 0 0.199455 0.0798398 0 0.205171 0.0799274 0 0.210913 0.0799504 0 0.216658 0.0799078 0 0.222386 0.0797991 0 0.228076 0.0796241 0 0.233708 0.0793832 0 0.239261 0.0790774 0 0.244714 0.0787079 0 0.250049 0.0782766 0 0.255248 0.0777857 0 0.260294 0.0772378 0 0.265172 0.0766359 0 0.269868 0.0759832 0 0.188154 0.0830907 0 0.194516 0.0833056 0 0.200943 0.0834623 0 0.207417 0.0835593 0 0.213917 0.0835952 0 0.220424 0.0835692 0 0.226915 0.0834808 0 0.233371 0.0833298 0 0.23977 0.0831165 0 0.246091 0.0828416 0 0.252314 0.0825063 0 0.258421 0.0821118 0 0.264392 0.0816602 0 0.270211 0.0811535 0 0.275861 0.0805942 0 0.281327 0.0799851 0 0.188135 0.0867044 0 0.195248 0.0869155 0 0.202426 0.0870724 0 0.209651 0.0871739 0 0.216904 0.0872187 0 0.224165 0.0872062 0 0.231412 0.0871359 0 0.238626 0.0870077 0 0.245786 0.0868218 0 0.252872 0.0865787 0 0.259864 0.0862792 0 0.266744 0.0859245 0 0.273493 0.0855161 0 0.280093 0.0850557 0 0.28653 0.0845452 0 0.292786 0.0839869 0 0.188116 0.090318 0 0.195978 0.0905188 0 0.203904 0.0906702 0 0.211875 0.0907712 0 0.219874 0.090821 0 0.227881 0.090819 0 0.235876 0.0907647 0 0.243841 0.0906581 0 0.251757 0.0904994 0 0.259604 0.0902888 0 0.267364 0.090027 0 0.275019 0.0897149 0 0.28255 0.0893537 0 0.289942 0.0889445 0 0.297179 0.088489 0 0.304245 0.0879888 0 0.188096 0.0939317 0 0.196707 0.0941154 0 0.205377 0.0942556 0 0.214089 0.0943514 0 0.222826 0.0944023 0 0.231572 0.0944077 0 0.240308 0.0943674 0 0.249018 0.0942814 0 0.257684 0.0941496 0 0.266288 0.0939723 0 0.274814 0.09375 0 0.283245 0.0934833 0 0.291564 0.0931729 0 0.299757 0.09282 0 0.307809 0.0924255 0 0.315705 0.0919907 0 0.188077 0.0975454 0 0.197435 0.0977055 0 0.206845 0.0978287 0 0.216292 0.0979146 0 0.225761 0.0979627 0 0.235239 0.0979727 0 0.244709 0.0979444 0 0.254156 0.0978777 0 0.263566 0.0977726 0 0.272924 0.0976294 0 0.282214 0.0974483 0 0.291423 0.0972297 0 0.300536 0.0969741 0 0.309539 0.0966822 0 0.318419 0.0963547 0 0.327164 0.0959925 0 0.188058 0.101159 0 0.198162 0.101289 0 0.208308 0.10139 0 0.218484 0.101461 0 0.22868 0.101503 0 0.238881 0.101514 0 0.249078 0.101496 0 0.259256 0.101447 0 0.269405 0.101369 0 0.279513 0.10126 0 0.289566 0.101122 0 0.299554 0.100954 0 0.309465 0.100757 0 0.319287 0.100531 0 0.32901 0.100277 0 0.338623 0.0999944 0 0.188039 0.104773 0 0.198887 0.104866 0 0.209766 0.104939 0 0.220666 0.104991 0 0.231581 0.105022 0 0.2425 0.105032 0 0.253416 0.105022 0 0.264319 0.104991 0 0.275202 0.104939 0 0.286055 0.104866 0 0.29687 0.104772 0 0.307638 0.104658 0 0.318352 0.104523 0 0.329002 0.104367 0 0.339582 0.104192 0 0.350082 0.103996 0 0.188019 0.108386 0 0.199611 0.108436 0 0.211219 0.108475 0 0.222838 0.108504 0 0.234465 0.108521 0 0.246095 0.108528 0 0.257723 0.108523 0 0.269345 0.108508 0 0.280955 0.108482 0 0.29255 0.108445 0 0.304125 0.108398 0 0.315675 0.108339 0 0.327197 0.10827 0 0.338684 0.10819 0 0.350134 0.108099 0 0.361541 0.107998 0 0.188 0.112 0 0.200333 0.112 0 0.212667 0.112 0 0.225 0.112 0 0.237333 0.112 0 0.249667 0.112 0 0.262 0.112 0 0.274333 0.112 0 0.286667 0.112 0 0.299 0.112 0 0.311333 0.112 0 0.323667 0.112 0 0.336 0.112 0 0.348333 0.112 0 0.360667 0.112 0 0.373 0.112 0 
</DataArray>
</Points> 
</Piece> 
</StructuredGrid> 
</VTKFile> 
