<?xml version="1.0"?> 
<VTKFile type="StructuredGrid" version="0.1"> 
<StructuredGrid WholeExtent="0 15 0 15 0 0"> 
<Piece Extent="0 15 0 15 0 0"> 
<PointData>
<DataArray type="Float32" Name="|E|" format="ascii" NumberOfComponents="3"> 
3.19433e+06 -1.32313e+06 0 2.75473e+06 263241 0 2.16512e+06 610508 0 1.7673e+06 667161 0 1.47672e+06 637905 0 1.25318e+06 576179 0 1.07517e+06 504775 0 930476 432771 0 812494 364133 0 716534 300336 0 639574 241565 0 579284 187397 0 534001 137083 0 502486 89726.9 0 483905 44362.7 0 477767 0 0 3.47079e+06 -1.21712e+06 0 2.7864e+06 365244 0 2.15697e+06 678903 0 1.74604e+06 718041 0 1.45063e+06 678549 0 1.22539e+06 610651 0 1.04732e+06 534953 0 903514 459556 0 786921 387920 0 692556 321228 0 617158 259520 0 558228 202278 0 513957 148687 0 482986 97796.9 0 464362 48585.9 0 457476 0 0 3.73496e+06 -1.07718e+06 0 2.81419e+06 472025 0 2.14672e+06 748772 0 1.72386e+06 769651 0 1.42407e+06 719800 0 1.19728e+06 645549 0 1.01913e+06 565350 0 876101 486359 0 760717 411539 0 667731 341812 0 593661 277074 0 535850 216718 0 492353 159867 0 461695 105519 0 442808 52599.9 0 434972 0 0 3.98619e+06 -904905 0 2.83759e+06 583108 0 2.13456e+06 819913 0 1.70091e+06 821901 0 1.39715e+06 761617 0 1.16891e+06 680836 0 990630 595954 0 848247 513174 0 733886 435001 0 642063 362105 0 569096 294250 0 512177 230742 0 469233 170648 0 438674 112914 0 419324 56418.6 0 410353 0 0 4.22317e+06 -701546 0 2.85625e+06 697953 0 2.1207e+06 892126 0 1.67735e+06 874722 0 1.36996e+06 803963 0 1.14035e+06 716491 0 961867 626757 0 819972 540007 0 706442 458319 0 615571 382129 0 543490 311072 0 487251 244378 0 444654 181056 0 413999 120004 0 394004 60055.1 0 383727 0 0 4.44413e+06 -468231 0 2.87001e+06 816000 0 2.10536e+06 965224 0 1.65335e+06 928064 0 1.34263e+06 846808 0 1.11167e+06 752500 0 932878 657762 0 791303 566868 0 678407 481514 0 588282 401906 0 516883 327568 0 461125 257652 0 418686 191115 0 387760 126808 0 366954 63521.1 0 355218 0 0 4.64689e+06 -206141 0 2.87887e+06 936691 0 2.08878e+06 1.03903e+06 0 1.62908e+06 981891 0 1.31526e+06 890129 0 1.08294e+06 788864 0 903712 688977 0 762280 593776 0 649816 504609 0 560235 421463 0 489323 343764 0 433863 270589 0 391413 200847 0 360056 133343 0 338290 66826.4 0 324956 0 0 4.829e+06 83340.2 0 2.88292e+06 1.05949e+06 0 2.07119e+06 1.1134e+06 0 1.60472e+06 1.03618e+06 0 1.28797e+06 933907 0 1.05426e+06 825590 0 874424 720417 0 732945 620754 0 620710 527628 0 531479 440828 0 460871 359685 0 405542 283212 0 362928 210270 0 330998 139623 0 308141 69979 0 293083 0 0 4.98786e+06 398521 0 2.88235e+06 1.1839e+06 0 2.05282e+06 1.18819e+06 0 1.58042e+06 1.09093e+06 0 1.26088e+06 978134 0 1.0257e+06 862694 0 845076 752102 0 703352 647828 0 591139 550602 0 502070 460028 0 431596 375356 0 376247 295543 0 333333 219402 0 300709 145660 0 276647 72984.7 0 259751 0 0 5.12085e+06 737329 0 2.87742e+06 1.30946e+06 0 2.03391e+06 1.2633e+06 0 1.55636e+06 1.14612e+06 0 1.23411e+06 1.02281e+06 0 997344 900198 0 815735 784055 0 673556 675031 0 561160 573559 0 472072 479091 0 401574 390802 0 346071 307598 0 302741 228255 0 269319 151460 0 243954 75846.7 0 225122 0 0 5.22544e+06 1.09727e+06 0 2.86842e+06 1.43579e+06 0 2.01468e+06 1.33864e+06 0 1.53267e+06 1.20177e+06 0 1.20778e+06 1.06792e+06 0 969280 938128 0 786472 816307 0 643618 702396 0 530837 596532 0 441556 498044 0 370888 406043 0 315112 319394 0 271269 236838 0 236966 157029 0 210217 78565.9 0 189365 0 0 5.29936e+06 1.47541e+06 0 2.85566e+06 1.56253e+06 0 1.99533e+06 1.41416e+06 0 1.5095e+06 1.25787e+06 0 1.182e+06 1.1135e+06 0 941592 976510 0 757364 848889 0 613602 729958 0 500234 619552 0 410593 516914 0 339624 421097 0 283476 330941 0 239042 245156 0 203793 162366 0 175599 81140.3 0 152655 0 0 5.34073e+06 1.86843e+06 0 2.83943e+06 1.68937e+06 0 1.97605e+06 1.48981e+06 0 1.48698e+06 1.31442e+06 0 1.15689e+06 1.15955e+06 0 914364 1.01537e+06 0 728489 881836 0 583575 757754 0 469424 642651 0 379258 535726 0 307871 435982 0 251267 342248 0 206185 253209 0 169946 167467 0 140266 83565.4 0 115177 0 0 5.34816e+06 2.27269e+06 0 2.81997e+06 1.81602e+06 0 1.95701e+06 1.56558e+06 0 1.46524e+06 1.37139e+06 0 1.13256e+06 1.2061e+06 0 887679 1.05474e+06 0 699927 915185 0 553603 785819 0 438477 665863 0 347628 554504 0 275721 450712 0 218593 353318 0 172825 260993 0 135576 172325 0 104388 85833.8 0 77117 0 0 5.32088e+06 2.68437e+06 0 2.7975e+06 1.94219e+06 0 1.93834e+06 1.64149e+06 0 1.44438e+06 1.42878e+06 0 1.10912e+06 1.25317e+06 0 861619 1.09462e+06 0 671758 948975 0 523752 814190 0 407465 689220 0 315776 573270 0 243262 465298 0 185560 364153 0 139092 268502 0 100831 176927 0 68138 87935.4 0 38667.4 0 0 5.25885e+06 3.09956e+06 0 2.77213e+06 2.06759e+06 0 1.92015e+06 1.71756e+06 0 1.42451e+06 1.48654e+06 0 1.08665e+06 1.30077e+06 0 836263 1.13506e+06 0 644066 983245 0 494084 842899 0 376464 712758 0 283772 592044 0 210583 479751 0 152267 374749 0 105109 275725 0 65860.6 181259 0 31687.4 89858 0 21.7317 0 0 </DataArray> 
</PointData> 
<Points> 
<DataArray type="Float32" NumberOfComponents="3"> 
0.2018 0.0378 0 0.213213 0.0378 0 0.224627 0.0378 0 0.23604 0.0378 0 0.247453 0.0378 0 0.258867 0.0378 0 0.27028 0.0378 0 0.281693 0.0378 0 0.293107 0.0378 0 0.30452 0.0378 0 0.315933 0.0378 0 0.327347 0.0378 0 0.33876 0.0378 0 0.350173 0.0378 0 0.361587 0.0378 0 0.373 0.0378 0 0.202152 0.0387215 0 0.21369 0.0389933 0 0.225206 0.0392647 0 0.236701 0.0395355 0 0.248174 0.0398058 0 0.259627 0.0400756 0 0.271058 0.0403449 0 0.282469 0.0406138 0 0.293858 0.0408821 0 0.305226 0.0411499 0 0.316574 0.0414173 0 0.3279 0.0416841 0 0.339206 0.0419505 0 0.350492 0.0422164 0 0.361756 0.0424818 0 0.373 0.0427467 0 0.202455 0.0396705 0 0.214102 0.0402184 0 0.225708 0.0407644 0 0.237274 0.0413084 0 0.248799 0.0418506 0 0.260285 0.042391 0 0.271732 0.0429294 0 0.283139 0.043466 0 0.294506 0.0440008 0 0.305835 0.0445337 0 0.317125 0.0450649 0 0.328377 0.0455941 0 0.33959 0.0461216 0 0.350764 0.0466473 0 0.361901 0.0471712 0 0.373 0.0476933 0 0.202705 0.0406422 0 0.214445 0.0414693 0 0.226127 0.0422924 0 0.237753 0.0431114 0 0.249323 0.0439266 0 0.260837 0.0447378 0 0.272296 0.0455451 0 0.283699 0.0463485 0 0.295049 0.0471481 0 0.306344 0.0479439 0 0.317585 0.0487359 0 0.328774 0.0495241 0 0.339909 0.0503086 0 0.350991 0.0510894 0 0.362022 0.0518665 0 0.373 0.05264 0 0.2029 0.0416314 0 0.214715 0.0427397 0 0.22646 0.0438413 0 0.238135 0.0449364 0 0.24974 0.046025 0 0.261277 0.0471072 0 0.272746 0.0481829 0 0.284147 0.0492524 0 0.295482 0.0503155 0 0.30675 0.0513725 0 0.317953 0.0524233 0 0.32909 0.053468 0 0.340163 0.0545066 0 0.351172 0.0555392 0 0.362117 0.0565659 0 0.373 0.0575867 0 0.203036 0.0426324 0 0.214909 0.0440226 0 0.226702 0.0454034 0 0.238415 0.0467749 0 0.250048 0.048137 0 0.261603 0.0494899 0 0.27308 0.0508337 0 0.28448 0.0521686 0 0.295804 0.0534945 0 0.307052 0.0548115 0 0.318226 0.0561199 0 0.329326 0.0574195 0 0.340352 0.0587106 0 0.351306 0.0599932 0 0.362189 0.0612674 0 0.373 0.0625333 0 0.203111 0.0436391 0 0.215025 0.045311 0 0.226851 0.0469706 0 0.23859 0.0486179 0 0.250243 0.0502532 0 0.261811 0.0518765 0 0.273294 0.053488 0 0.284694 0.0550878 0 0.296012 0.056676 0 0.307248 0.0582528 0 0.318403 0.0598183 0 0.329479 0.0613725 0 0.340475 0.0629157 0 0.351394 0.064448 0 0.362235 0.0659693 0 0.373 0.06748 0 0.203125 0.0446454 0 0.215061 0.0465974 0 0.226905 0.0485344 0 0.238659 0.0504566 0 0.250323 0.0523642 0 0.261899 0.0542573 0 0.273387 0.0561361 0 0.284789 0.0580007 0 0.296105 0.0598513 0 0.307336 0.0616881 0 0.318484 0.0635112 0 0.329549 0.0653207 0 0.340532 0.0671169 0 0.351435 0.0688999 0 0.362257 0.0706697 0 0.373 0.0724267 0 0.203076 0.045645 0 0.215016 0.0478744 0 0.226864 0.0500866 0 0.238621 0.0522819 0 0.250288 0.0544605 0 0.261867 0.0566225 0 0.273359 0.0587682 0 0.284764 0.0608978 0 0.296083 0.0630113 0 0.307318 0.0651091 0 0.318469 0.0671912 0 0.329537 0.0692578 0 0.340523 0.0713092 0 0.351429 0.0733455 0 0.362254 0.0753668 0 0.373 0.0773733 0 0.202966 0.0466318 0 0.21489 0.0491345 0 0.226726 0.0516188 0 0.238475 0.0540848 0 0.250138 0.0565327 0 0.261716 0.0589627 0 0.273209 0.0613749 0 0.284619 0.0637697 0 0.295946 0.0661472 0 0.307192 0.0685075 0 0.318356 0.0708509 0 0.329442 0.0731776 0 0.340448 0.0754876 0 0.351375 0.0777812 0 0.362226 0.0800587 0 0.373 0.08232 0 0.202795 0.0475996 0 0.214686 0.0503708 0 0.226495 0.053123 0 0.238224 0.0558565 0 0.249874 0.0585716 0 0.261445 0.0612683 0 0.272938 0.0639468 0 0.284354 0.0666074 0 0.295694 0.0692502 0 0.306959 0.0718754 0 0.318148 0.0744832 0 0.329264 0.0770737 0 0.340306 0.0796472 0 0.351276 0.0822037 0 0.362173 0.0847435 0 0.373 0.0872667 0 0.202565 0.0485429 0 0.214404 0.0515763 0 0.226171 0.0545915 0 0.237869 0.0575889 0 0.249498 0.0605684 0 0.261057 0.0635303 0 0.272549 0.0664748 0 0.283973 0.0694019 0 0.295329 0.0723118 0 0.30662 0.0752048 0 0.317844 0.0780809 0 0.329004 0.0809402 0 0.340099 0.083783 0 0.351129 0.0866094 0 0.362096 0.0894194 0 0.373 0.0922133 0 0.202279 0.0494562 0 0.214047 0.0527447 0 0.225759 0.0560172 0 0.237414 0.0592739 0 0.249013 0.0625149 0 0.260556 0.0657403 0 0.272043 0.0689502 0 0.283476 0.0721447 0 0.294853 0.0753239 0 0.306177 0.078488 0 0.317447 0.081637 0 0.328663 0.0847711 0 0.339826 0.0878903 0 0.350936 0.0909948 0 0.361994 0.0940847 0 0.373 0.09716 0 0.201939 0.0503349 0 0.213621 0.0538704 0 0.225262 0.0573936 0 0.236863 0.0609046 0 0.248423 0.0644034 0 0.259944 0.0678902 0 0.271425 0.071365 0 0.282867 0.0748277 0 0.294269 0.0782786 0 0.305632 0.0817177 0 0.316956 0.0851449 0 0.328241 0.0885605 0 0.339488 0.0919644 0 0.350697 0.0953566 0 0.361867 0.0987374 0 0.373 0.102107 0 0.201549 0.0511747 0 0.213127 0.0549482 0 0.224684 0.0587148 0 0.23622 0.0624744 0 0.247734 0.066227 0 0.259227 0.0699727 0 0.270698 0.0737116 0 0.282149 0.0774435 0 0.293579 0.0811686 0 0.304987 0.0848868 0 0.316375 0.0885982 0 0.327741 0.0923028 0 0.339087 0.0960005 0 0.350412 0.0996916 0 0.361716 0.103376 0 0.373 0.107053 0 0.201114 0.051972 0 0.212573 0.0559739 0 0.224032 0.0599757 0 0.235491 0.0639776 0 0.24695 0.0679795 0 0.258409 0.0719813 0 0.269868 0.0759832 0 0.281327 0.0799851 0 0.292786 0.0839869 0 0.304245 0.0879888 0 0.315705 0.0919907 0 0.327164 0.0959925 0 0.338623 0.0999944 0 0.350082 0.103996 0 0.361541 0.107998 0 0.373 0.112 0 
</DataArray>
</Points> 
</Piece> 
</StructuredGrid> 
</VTKFile> 
