<?xml version="1.0"?> 
<VTKFile type="StructuredGrid" version="0.1"> 
<StructuredGrid WholeExtent="0 15 0 15 0 0"> 
<Piece Extent="0 15 0 15 0 0"> 
<PointData>
<DataArray type="Float32" Name="|E|" format="ascii" NumberOfComponents="3"> 
-1.19209e-07 5.73256e+06 0 -2.21189e-09 1.85028e+06 0 -9.59262e-08 629705 0 2.27243e-07 302922 0 -3.7998e-07 199993 0 4.41447e-07 135437 0 -3.72529e-07 80100.7 0 4.20958e-07 27271.9 0 -2.90573e-07 -16561.2 0 1.04308e-07 -28567.7 0 1.04308e-07 -3996.91 0 -4.47035e-08 14890 0 1.49012e-08 8291.38 0 -2.98023e-08 -8003.73 0 5.96046e-08 -5260.76 0 -1.66893e-06 -0.000488281 0 -2.10142e+06 1.73891e+06 0 -2.1193e+06 1.61747e+06 0 -1.65746e+06 1.53971e+06 0 -1.14868e+06 1.27503e+06 0 -733036 873825 0 -422832 471398 0 -203800 175810 0 -70896.6 23712.2 0 -16436.2 -16983.3 0 -8023.25 -6368.7 0 -6653.09 5586.63 0 760.037 5040.63 0 2718.88 -3477.65 0 189.874 -2312.37 0 -1093.19 1804.1 0 -1173.04 -24666.1 0 -2.42807e+06 1.58545e+06 0 -2.27869e+06 1.709e+06 0 -2.33266e+06 1.53936e+06 0 -2.23805e+06 1.40204e+06 0 -1.95824e+06 1.23962e+06 0 -1.55652e+06 968016 0 -1.10002e+06 604259 0 -650971 251873 0 -285310 19693.3 0 -72506.8 -58690.1 0 -7706.98 -36088.8 0 -7775.7 2109.17 0 -3185.27 13482.7 0 2596.43 -1430.17 0 11559.2 52782.8 0 1322.77 13669.8 0 -2.27334e+06 2.01883e+06 0 -2.39002e+06 1.8416e+06 0 -2.37026e+06 1.81586e+06 0 -2.4097e+06 1.68699e+06 0 -2.44168e+06 1.51702e+06 0 -2.3695e+06 1.32949e+06 0 -2.13836e+06 1.0727e+06 0 -1.73378e+06 710264 0 -1.18714e+06 302453 0 -611908 -8274.17 0 -189211 -118810 0 -16836.1 -72120.5 0 -2539.58 -2664.48 0 -3691.34 20935.5 0 -1539.57 -17160.2 0 6477.67 43311.3 0 -2.29657e+06 2.03603e+06 0 -2.30706e+06 2.04305e+06 0 -2.37768e+06 1.96601e+06 0 -2.40274e+06 1.92351e+06 0 -2.43687e+06 1.83258e+06 0 -2.49439e+06 1.68187e+06 0 -2.52674e+06 1.49164e+06 0 -2.45331e+06 1.23649e+06 0 -2.18433e+06 857939 0 -1.65856e+06 372007 0 -948765 -48209.5 0 -322898 -189034 0 -24896.6 -82706.6 0 15204.2 39772.3 0 -5654.2 8351.66 0 -8710.97 -42023 0 -2.17492e+06 2.18215e+06 0 -2.23135e+06 2.14414e+06 0 -2.275e+06 2.11545e+06 0 -2.34383e+06 2.05725e+06 0 -2.39733e+06 2.00935e+06 0 -2.44221e+06 1.93728e+06 0 -2.50143e+06 1.81049e+06 0 -2.56807e+06 1.63436e+06 0 -2.58601e+06 1.39576e+06 0 -2.44018e+06 1.01464e+06 0 -1.98128e+06 439375 0 -1.19923e+06 -131235 0 -407188 -273179 0 16033.3 20541.4 0 -20312.3 -48330.7 0 -40846.3 -150279 0 -2.10799e+06 2.20276e+06 0 -2.14758e+06 2.19888e+06 0 -2.19292e+06 2.18904e+06 0 -2.24005e+06 2.1676e+06 0 -2.30598e+06 2.1228e+06 0 -2.37428e+06 2.07584e+06 0 -2.43589e+06 2.01211e+06 0 -2.50185e+06 1.89746e+06 0 -2.57842e+06 1.72792e+06 0 -2.63471e+06 1.50588e+06 0 -2.55898e+06 1.13151e+06 0 -2.1421e+06 445537 0 -1.30388e+06 -312597 0 -385945 -349442 0 18586.5 1232.38 0 44754.7 129452 0 -2.01898e+06 2.23081e+06 0 -2.06044e+06 2.23247e+06 0 -2.10855e+06 2.22491e+06 0 -2.15851e+06 2.21863e+06 0 -2.21039e+06 2.20259e+06 0 -2.27565e+06 2.16638e+06 0 -2.35073e+06 2.12232e+06 0 -2.42657e+06 2.06398e+06 0 -2.50558e+06 1.95349e+06 0 -2.59185e+06 1.77622e+06 0 -2.66124e+06 1.55753e+06 0 -2.60435e+06 1.1622e+06 0 -2.14656e+06 318045 0 -1.20435e+06 -557985 0 -168618 -173387 0 1.54767e+06 3.57472e+06 0 -1.9438e+06 2.22414e+06 0 -1.98367e+06 2.23515e+06 0 -2.02558e+06 2.24448e+06 0 -2.07548e+06 2.24311e+06 0 -2.13006e+06 2.23997e+06 0 -2.18817e+06 2.22778e+06 0 -2.25691e+06 2.19595e+06 0 -2.33769e+06 2.15204e+06 0 -2.42479e+06 2.09529e+06 0 -2.51983e+06 1.98057e+06 0 -2.61874e+06 1.78466e+06 0 -2.69563e+06 1.54757e+06 0 -2.6037e+06 1.04569e+06 0 -1.97028e+06 -20664.8 0 -811386 -649542 0 -87047.5 -161337 0 -1.86954e+06 2.20695e+06 0 -1.90886e+06 2.22578e+06 0 -1.95254e+06 2.24022e+06 0 -1.99864e+06 2.25252e+06 0 -2.05159e+06 2.25589e+06 0 -2.11097e+06 2.25538e+06 0 -2.1759e+06 2.24621e+06 0 -2.25162e+06 2.21648e+06 0 -2.34034e+06 2.17012e+06 0 -2.43951e+06 2.10924e+06 0 -2.55366e+06 1.97462e+06 0 -2.66668e+06 1.75077e+06 0 -2.75129e+06 1.44801e+06 0 -2.509e+06 683464 0 -1.51514e+06 -538359 0 -37758.2 -55893.2 0 -1.79967e+06 2.17746e+06 0 -1.83943e+06 2.20308e+06 0 -1.88214e+06 2.22619e+06 0 -1.92941e+06 2.24518e+06 0 -1.98044e+06 2.26051e+06 0 -2.03824e+06 2.26725e+06 0 -2.10376e+06 2.26799e+06 0 -2.17676e+06 2.25981e+06 0 -2.26296e+06 2.22867e+06 0 -2.3622e+06 2.17903e+06 0 -2.47991e+06 2.10387e+06 0 -2.61346e+06 1.92975e+06 0 -2.75663e+06 1.65536e+06 0 -2.79328e+06 1.17013e+06 0 -2.19103e+06 -103085 0 -248020 -288753 0 -1.73267e+06 2.13984e+06 0 -1.77331e+06 2.1723e+06 0 -1.81693e+06 2.20228e+06 0 -1.86401e+06 2.22917e+06 0 -1.9159e+06 2.252e+06 0 -1.97264e+06 2.27026e+06 0 -2.03714e+06 2.27934e+06 0 -2.11041e+06 2.28061e+06 0 -2.19459e+06 2.26993e+06 0 -2.29429e+06 2.23334e+06 0 -2.41086e+06 2.17627e+06 0 -2.55298e+06 2.07019e+06 0 -2.71932e+06 1.82643e+06 0 -2.89608e+06 1.44848e+06 0 -2.71956e+06 402126 0 -920471 -817873 0 -1.66801e+06 2.09599e+06 0 -1.71018e+06 2.13523e+06 0 -1.75507e+06 2.17231e+06 0 -1.80324e+06 2.20664e+06 0 -1.85561e+06 2.23707e+06 0 -1.91333e+06 2.26297e+06 0 -1.97732e+06 2.28305e+06 0 -2.05049e+06 2.29317e+06 0 -2.1343e+06 2.29352e+06 0 -2.23372e+06 2.27637e+06 0 -2.35187e+06 2.22961e+06 0 -2.49658e+06 2.15558e+06 0 -2.67358e+06 1.98196e+06 0 -2.91017e+06 1.63419e+06 0 -3.05623e+06 838993 0 -1.95347e+06 -1.254e+06 0 -1.60531e+06 2.04737e+06 0 -1.64957e+06 2.09357e+06 0 -1.69628e+06 2.13778e+06 0 -1.74609e+06 2.1794e+06 0 -1.7997e+06 2.21773e+06 0 -1.85841e+06 2.25134e+06 0 -1.92344e+06 2.27945e+06 0 -1.99684e+06 2.29982e+06 0 -2.08125e+06 2.30918e+06 0 -2.1806e+06 2.30517e+06 0 -2.30003e+06 2.27667e+06 0 -2.44866e+06 2.21307e+06 0 -2.63298e+06 2.09579e+06 0 -2.89197e+06 1.79917e+06 0 -3.23599e+06 1.16758e+06 0 -3.08004e+06 -1.28284e+06 0 -1.54416e+06 1.99516e+06 0 -1.59103e+06 2.04873e+06 0 -1.64012e+06 2.10033e+06 0 -1.69205e+06 2.14937e+06 0 -1.74759e+06 2.19514e+06 0 -1.80781e+06 2.23671e+06 0 -1.87423e+06 2.27271e+06 0 -1.94883e+06 2.30152e+06 0 -2.03422e+06 2.32066e+06 0 -2.1348e+06 2.32602e+06 0 -2.25543e+06 2.3131e+06 0 -2.40714e+06 2.26489e+06 0 -2.60143e+06 2.17151e+06 0 -2.87099e+06 1.94638e+06 0 -3.31702e+06 1.41827e+06 0 -4.02186e+06 -830311 0 -1.48428e+06 1.94021e+06 0 -1.53431e+06 2.00159e+06 0 -1.5863e+06 2.06093e+06 0 -1.64085e+06 2.11764e+06 0 -1.69875e+06 2.17105e+06 0 -1.7611e+06 2.22027e+06 0 -1.8294e+06 2.26401e+06 0 -1.90568e+06 2.30091e+06 0 -1.99286e+06 2.32841e+06 0 -2.09485e+06 2.34382e+06 0 -2.21848e+06 2.34074e+06 0 -2.37208e+06 2.31123e+06 0 -2.57644e+06 2.23194e+06 0 -2.85967e+06 2.06259e+06 0 -3.35468e+06 1.62672e+06 0 -4.59837e+06 -34075.4 0 </DataArray> 
</PointData> 
<Points> 
<DataArray type="Float32" NumberOfComponents="3"> 
0.1 0.045 0 0.100867 0.045 0 0.101733 0.045 0 0.1026 0.045 0 0.103467 0.045 0 0.104333 0.045 0 0.1052 0.045 0 0.106067 0.045 0 0.106933 0.045 0 0.1078 0.045 0 0.108667 0.045 0 0.109533 0.045 0 0.1104 0.045 0 0.111267 0.045 0 0.112133 0.045 0 0.113 0.045 0 0.0978533 0.0464889 0 0.0987604 0.0463947 0 0.0996718 0.0463 0 0.100588 0.0462048 0 0.101508 0.0461092 0 0.102433 0.0460131 0 0.103363 0.0459166 0 0.104297 0.0458196 0 0.105235 0.045722 0 0.106179 0.045624 0 0.107127 0.0455255 0 0.10808 0.0454266 0 0.109037 0.0453271 0 0.11 0.0452271 0 0.110967 0.0451266 0 0.111939 0.0450257 0 0.0957067 0.0479778 0 0.0966522 0.0477984 0 0.0976063 0.0476173 0 0.0985692 0.0474346 0 0.0995409 0.0472502 0 0.100522 0.0470641 0 0.101511 0.0468763 0 0.10251 0.0466867 0 0.103519 0.0464953 0 0.104536 0.0463022 0 0.105564 0.0461072 0 0.106601 0.0459104 0 0.107648 0.0457117 0 0.108705 0.0455111 0 0.109773 0.0453085 0 0.11085 0.045104 0 0.09356 0.0494667 0 0.0945443 0.0492096 0 0.0955411 0.0489494 0 0.0965505 0.0486858 0 0.0975729 0.0484188 0 0.0986085 0.0481484 0 0.0996576 0.0478745 0 0.10072 0.047597 0 0.101797 0.0473158 0 0.102888 0.047031 0 0.103994 0.0467423 0 0.105114 0.0464497 0 0.106249 0.0461532 0 0.1074 0.0458527 0 0.108567 0.0455481 0 0.10975 0.0452392 0 0.0914133 0.0509556 0 0.092439 0.0506271 0 0.0934805 0.0502936 0 0.0945384 0.0499548 0 0.0956129 0.0496107 0 0.0967044 0.0492611 0 0.0978134 0.048906 0 0.0989404 0.0485451 0 0.100086 0.0481783 0 0.10125 0.0478055 0 0.102433 0.0474266 0 0.103636 0.0470413 0 0.104859 0.0466496 0 0.106103 0.0462512 0 0.107369 0.045846 0 0.108656 0.0454338 0 0.0892667 0.0524444 0 0.0903384 0.0520493 0 0.091429 0.0516471 0 0.0925391 0.0512378 0 0.0936692 0.0508211 0 0.0948197 0.0503968 0 0.0959914 0.0499648 0 0.0971846 0.0495248 0 0.0984002 0.0490766 0 0.0996386 0.0486199 0 0.100901 0.0481546 0 0.102187 0.0476803 0 0.103498 0.0471969 0 0.104835 0.046704 0 0.106198 0.0462014 0 0.107588 0.0456887 0 0.08712 0.0539333 0 0.0882448 0.0534746 0 0.0893911 0.0530072 0 0.0905594 0.0525307 0 0.0917506 0.052045 0 0.0929651 0.0515496 0 0.0942038 0.0510445 0 0.0954673 0.0505292 0 0.0967565 0.0500035 0 0.098072 0.049467 0 0.0994148 0.0489194 0 0.100786 0.0483604 0 0.102185 0.0477896 0 0.103615 0.0472066 0 0.105075 0.046611 0 0.106568 0.0460024 0 0.0849733 0.0554222 0 0.0861604 0.0549017 0 0.0873709 0.054371 0 0.0886057 0.0538295 0 0.0898655 0.0532772 0 0.0911511 0.0527135 0 0.0924631 0.0521382 0 0.0938025 0.0515509 0 0.0951702 0.0509512 0 0.096567 0.0503388 0 0.0979939 0.0497131 0 0.0994518 0.0490739 0 0.100942 0.0484206 0 0.102465 0.0477527 0 0.104022 0.0470698 0 0.105615 0.0463714 0 0.0828267 0.0569111 0 0.0840874 0.0563291 0 0.085373 0.0557355 0 0.0866844 0.0551301 0 0.0880224 0.0545124 0 0.0893877 0.0538821 0 0.0907811 0.0532387 0 0.0922037 0.052582 0 0.0936562 0.0519114 0 0.0951396 0.0512265 0 0.096655 0.0505269 0 0.0982034 0.049812 0 0.0997859 0.0490814 0 0.101404 0.0483346 0 0.103058 0.047571 0 0.104749 0.0467899 0 0.08068 0.0584 0 0.0820279 0.0577552 0 0.0834016 0.057098 0 0.0848017 0.0564281 0 0.0862291 0.0557453 0 0.0876846 0.0550489 0 0.089169 0.0543388 0 0.0906832 0.0536144 0 0.092228 0.0528753 0 0.0938045 0.0521211 0 0.0954136 0.0513513 0 0.0970564 0.0505654 0 0.0987338 0.0497629 0 0.100447 0.0489433 0 0.102197 0.048106 0 0.103986 0.0472504 0 0.0785333 0.0598889 0 0.0799842 0.0591785 0 0.0814607 0.0584555 0 0.0829634 0.0577196 0 0.0844933 0.0569705 0 0.0860508 0.0562078 0 0.0876369 0.0554311 0 0.0892523 0.0546401 0 0.0908978 0.0538344 0 0.0925743 0.0530134 0 0.0942827 0.0521769 0 0.0960238 0.0513243 0 0.0977987 0.0504552 0 0.0996083 0.0495691 0 0.101454 0.0486655 0 0.103336 0.0477438 0 0.0763867 0.0613778 0 0.0779583 0.0605975 0 0.0795543 0.0598051 0 0.0811752 0.0590003 0 0.0828217 0.0581829 0 0.0844944 0.0573525 0 0.0861938 0.0565087 0 0.0879206 0.0556514 0 0.0896755 0.0547801 0 0.0914593 0.0538945 0 0.0932725 0.0529943 0 0.0951159 0.0520791 0 0.0969903 0.0511485 0 0.0988966 0.0502021 0 0.100835 0.0492395 0 0.102808 0.0482603 0 0.07424 0.0628667 0 0.0759523 0.0620108 0 0.0776863 0.0611441 0 0.0794423 0.0602664 0 0.0812209 0.0593774 0 0.0830224 0.058477 0 0.0848473 0.0575649 0 0.0866961 0.0566408 0 0.0885691 0.0557046 0 0.090467 0.054756 0 0.0923902 0.0537947 0 0.0943391 0.0528206 0 0.0963144 0.0518333 0 0.0983166 0.0508326 0 0.100346 0.0498181 0 0.102404 0.0487897 0 0.0720933 0.0643556 0 0.0739682 0.0634169 0 0.0758602 0.0624698 0 0.0777695 0.061514 0 0.0796963 0.0605493 0 0.081641 0.0595758 0 0.0836036 0.0585933 0 0.0855846 0.0576016 0 0.0875841 0.0566006 0 0.0896024 0.0555902 0 0.0916398 0.0545702 0 0.0936966 0.0535406 0 0.095773 0.0525011 0 0.0978692 0.0514517 0 0.0999857 0.0503921 0 0.102123 0.0493223 0 0.0699467 0.0658444 0 0.072008 0.0648145 0 0.0740795 0.0637795 0 0.0761611 0.0627394 0 0.0782529 0.0616942 0 0.0803549 0.0606439 0 0.0824674 0.0595884 0 0.0845903 0.0585276 0 0.0867237 0.0574617 0 0.0888677 0.0563904 0 0.0910224 0.0553138 0 0.0931879 0.0542318 0 0.0953642 0.0531444 0 0.0975514 0.0520515 0 0.0997496 0.0509532 0 0.101959 0.0498493 0 0.0678 0.0673333 0 0.0700736 0.066202 0 0.0723472 0.0650706 0 0.0746208 0.0639392 0 0.0768944 0.0628079 0 0.079168 0.0616765 0 0.0814417 0.0605451 0 0.0837153 0.0594138 0 0.0859889 0.0582824 0 0.0882625 0.057151 0 0.0905361 0.0560197 0 0.0928097 0.0548883 0 0.0950833 0.0537569 0 0.0973569 0.0526256 0 0.0996305 0.0514942 0 0.101904 0.0503628 0 
</DataArray>
</Points> 
</Piece> 
</StructuredGrid> 
</VTKFile> 
