<?xml version="1.0"?> 
<VTKFile type="StructuredGrid" version="0.1"> 
<StructuredGrid WholeExtent="0 15 0 15 0 0"> 
<Piece Extent="0 15 0 15 0 0"> 
<PointData>
<DataArray type="Float32" Name="|E|" format="ascii" NumberOfComponents="3"> 
-3.91575e+06 0 0 -3.36264e+06 106879 0 -3.32063e+06 74838.8 0 -3.28306e+06 19626.8 0 -3.26186e+06 20423.8 0 -3.25477e+06 7150.85 0 -3.25725e+06 8895.36 0 -3.27173e+06 7440.22 0 -3.29596e+06 9510.2 0 -3.33129e+06 11013.5 0 -3.37717e+06 12988.4 0 -3.43412e+06 14435.5 0 -3.50111e+06 14843.8 0 -3.57373e+06 13159 0 -3.63725e+06 8130.88 0 -3.66452e+06 -3.57628e-07 0 -3.71762e+06 0 0 -3.39531e+06 98762.4 0 -3.32595e+06 54253.2 0 -3.28628e+06 20965.1 0 -3.26378e+06 14149.7 0 -3.2548e+06 8438.88 0 -3.25746e+06 9620.23 0 -3.27119e+06 11403.9 0 -3.29558e+06 14897.2 0 -3.33069e+06 18629.6 0 -3.37668e+06 22568.6 0 -3.43372e+06 26069.9 0 -3.50109e+06 28153.6 0 -3.57445e+06 26631.1 0 -3.63917e+06 17646.8 0 -3.6672e+06 1.48313e-07 0 -3.61047e+06 0 0 -3.41133e+06 80861.4 0 -3.33179e+06 40327.8 0 -3.28907e+06 17416.6 0 -3.26485e+06 9980.08 0 -3.25476e+06 8401.81 0 -3.25706e+06 10858.7 0 -3.27044e+06 15063.6 0 -3.29473e+06 20381.3 0 -3.32976e+06 26198.6 0 -3.37578e+06 32174 0 -3.43297e+06 37749.7 0 -3.50083e+06 41580.1 0 -3.57543e+06 40370.4 0 -3.6424e+06 27503.8 0 -3.67196e+06 -1.76951e-07 0 -3.5507e+06 0 0 -3.41911e+06 60838.4 0 -3.3371e+06 28497.4 0 -3.29127e+06 11756.2 0 -3.26533e+06 6450.81 0 -3.25439e+06 7810.92 0 -3.25621e+06 12238.7 0 -3.26934e+06 18595.1 0 -3.2935e+06 25886.8 0 -3.32846e+06 33747.3 0 -3.37448e+06 41795.6 0 -3.43184e+06 49483.7 0 -3.5003e+06 55169.9 0 -3.57661e+06 54515 0 -3.64695e+06 37943.7 0 -3.67895e+06 2.44938e-07 0 -3.51674e+06 0 0 -3.423e+06 41522 0 -3.34147e+06 16993.9 0 -3.29277e+06 5130.52 0 -3.26528e+06 2994.07 0 -3.2536e+06 6973.94 0 -3.25495e+06 13620.2 0 -3.26787e+06 22065.6 0 -3.29188e+06 31385.2 0 -3.32677e+06 41284.1 0 -3.37279e+06 51428.7 0 -3.43032e+06 61278.5 0 -3.49947e+06 68964.1 0 -3.57792e+06 69205.3 0 -3.65285e+06 49241.1 0 -3.68838e+06 -3.50177e-07 0 -3.49773e+06 0 0 -3.42531e+06 23588.1 0 -3.34479e+06 5216.67 0 -3.29354e+06 -2010.59 0 -3.26469e+06 -577.151 0 -3.25235e+06 6006.56 0 -3.2533e+06 14958.8 0 -3.26601e+06 25499.1 0 -3.28989e+06 36866.8 0 -3.3247e+06 48810.3 0 -3.3707e+06 61070 0 -3.42839e+06 73137 0 -3.4983e+06 82996.7 0 -3.57927e+06 84576.5 0 -3.66013e+06 61719.3 0 -3.70059e+06 3.42727e-07 0 -3.4882e+06 0 0 -3.42727e+06 6839.71 0 -3.34704e+06 -7010.5 0 -3.29352e+06 -9488.34 0 -3.26353e+06 -4301.33 0 -3.25065e+06 4952.96 0 -3.25124e+06 16245.6 0 -3.26377e+06 28904.1 0 -3.28751e+06 42329.2 0 -3.32224e+06 56324.1 0 -3.3682e+06 70715.9 0 -3.42603e+06 85057.5 0 -3.49673e+06 97293.5 0 -3.58053e+06 100752 0 -3.66879e+06 75771.2 0 -3.71606e+06 -1.3411e-07 0 -3.48542e+06 0 0 -3.42954e+06 -9254.99 0 -3.34826e+06 -19735.5 0 -3.29268e+06 -17221.5 0 -3.26181e+06 -8161.38 0 -3.24848e+06 3832.77 0 -3.24878e+06 17484.2 0 -3.26113e+06 32284.2 0 -3.28476e+06 47772.1 0 -3.3194e+06 63822.3 0 -3.36529e+06 80362.5 0 -3.42322e+06 97032.4 0 -3.49469e+06 111871 0 -3.5815e+06 117834 0 -3.67882e+06 91882.9 0 -3.73551e+06 -1.19209e-07 0 -3.48816e+06 0 0 -3.43248e+06 -25353 0 -3.34844e+06 -32983 0 -3.29098e+06 -25157.8 0 -3.25948e+06 -12120 0 -3.24584e+06 2658.38 0 -3.2459e+06 18681.9 0 -3.25811e+06 35641.8 0 -3.28163e+06 53196.5 0 -3.31616e+06 71300.4 0 -3.36197e+06 90006 0 -3.41994e+06 109047 0 -3.49211e+06 126736 0 -3.58197e+06 135890 0 -3.69011e+06 110659 0 -3.76003e+06 1.3411e-07 0 -3.49613e+06 0 0 -3.43623e+06 -42169.1 0 -3.34752e+06 -46781.8 0 -3.28838e+06 -33246.3 0 -3.25655e+06 -16132.3 0 -3.24272e+06 1440.39 0 -3.2426e+06 19846.8 0 -3.25469e+06 38979.3 0 -3.27812e+06 58603.7 0 -3.31254e+06 78753.2 0 -3.35822e+06 99642.3 0 -3.41618e+06 121079 0 -3.48893e+06 141882 0 -3.58165e+06 154934 0 -3.70246e+06 132845 0 -3.79133e+06 -2.16067e-07 0 -3.50981e+06 0 0 -3.44078e+06 -60468.2 0 -3.34539e+06 -61161.2 0 -3.28483e+06 -41425.6 0 -3.25302e+06 -20150.4 0 -3.23914e+06 188.686 0 -3.23888e+06 20987.5 0 -3.25088e+06 42299.6 0 -3.27422e+06 63995.4 0 -3.30853e+06 86174.8 0 -3.35404e+06 109266 0 -3.41191e+06 133102 0 -3.48507e+06 157285 0 -3.58022e+06 174919 0 -3.71539e+06 159322 0 -3.83223e+06 3.12924e-07 0 -3.53054e+06 0 0 -3.44593e+06 -81069.6 0 -3.34186e+06 -76141.2 0 -3.28029e+06 -49613.2 0 -3.2489e+06 -24126.3 0 -3.23509e+06 -1087.02 0 -3.23473e+06 22111.4 0 -3.24668e+06 45606.5 0 -3.26995e+06 69372.6 0 -3.30414e+06 93561.3 0 -3.34942e+06 118866 0 -3.40714e+06 145095 0 -3.48048e+06 172882 0 -3.57731e+06 195752 0 -3.728e+06 191041 0 -3.88754e+06 -1.78814e-07 0 -3.56097e+06 0 0 -3.45122e+06 -104823 0 -3.33668e+06 -91736.3 0 -3.27472e+06 -57685.2 0 -3.24419e+06 -28021.1 0 -3.23057e+06 -2374.32 0 -3.23015e+06 23223.3 0 -3.24208e+06 48907.5 0 -3.26529e+06 74731.1 0 -3.29937e+06 100920 0 -3.34438e+06 128407 0 -3.40185e+06 157083 0 -3.47512e+06 188496 0 -3.57259e+06 217391 0 -3.73853e+06 228784 0 -3.96592e+06 1.63913e-07 0 -3.60606e+06 0 0 -3.45569e+06 -132495 0 -3.32956e+06 -108008 0 -3.26809e+06 -65427.7 0 -3.23893e+06 -31829.8 0 -3.2256e+06 -3647.17 0 -3.22515e+06 24317.6 0 -3.2371e+06 52220.8 0 -3.26026e+06 80049.4 0 -3.29422e+06 108293 0 -3.33891e+06 137775 0 -3.39601e+06 169238 0 -3.46896e+06 203657 0 -3.56587e+06 240163 0 -3.74366e+06 272523 0 -4.08349e+06 -1.93715e-07 0 -3.67509e+06 0 0 -3.4575e+06 -164423 0 -3.32021e+06 -125242 0 -3.2604e+06 -72414.4 0 -3.23316e+06 -35647.2 0 -3.22019e+06 -4833.3 0 -3.21971e+06 25357.5 0 -3.23172e+06 55596.9 0 -3.25488e+06 85253.5 0 -3.28865e+06 115832 0 -3.33309e+06 146643 0 -3.38955e+06 182150 0 -3.46203e+06 217104 0 -3.55735e+06 265617 0 -3.73705e+06 319855 0 -4.27124e+06 1.49012e-07 0 -3.78592e+06 0 0 -3.45309e+06 -199696 0 -3.30848e+06 -144406 0 -3.25168e+06 -77730.5 0 -3.22688e+06 -39822.3 0 -3.21438e+06 -5734 0 -3.21383e+06 26224.1 0 -3.2259e+06 59169.3 0 -3.24926e+06 90133.6 0 -3.2825e+06 123954 0 -3.32718e+06 154146 0 -3.38218e+06 197443 0 -3.45448e+06 225674 0 -3.5481e+06 298495 0 -3.70662e+06 362603 0 -4.59027e+06 -3.57628e-07 0 </DataArray> 
</PointData> 
<Points> 
<DataArray type="Float32" NumberOfComponents="3"> 
0.016 0.01 0 0.0199333 0.01 0 0.0238667 0.01 0 0.0278 0.01 0 0.0317333 0.01 0 0.0356667 0.01 0 0.0396 0.01 0 0.0435333 0.01 0 0.0474667 0.01 0 0.0514 0.01 0 0.0553333 0.01 0 0.0592667 0.01 0 0.0632 0.01 0 0.0671333 0.01 0 0.0710667 0.01 0 0.075 0.01 0 0.016 0.0107333 0 0.0199333 0.0107333 0 0.0238667 0.0107333 0 0.0278 0.0107333 0 0.0317333 0.0107333 0 0.0356667 0.0107333 0 0.0396 0.0107333 0 0.0435333 0.0107333 0 0.0474667 0.0107333 0 0.0514 0.0107333 0 0.0553333 0.0107333 0 0.0592667 0.0107333 0 0.0632 0.0107333 0 0.0671333 0.0107333 0 0.0710667 0.0107333 0 0.075 0.0107333 0 0.016 0.0114667 0 0.0199333 0.0114667 0 0.0238667 0.0114667 0 0.0278 0.0114667 0 0.0317333 0.0114667 0 0.0356667 0.0114667 0 0.0396 0.0114667 0 0.0435333 0.0114667 0 0.0474667 0.0114667 0 0.0514 0.0114667 0 0.0553333 0.0114667 0 0.0592667 0.0114667 0 0.0632 0.0114667 0 0.0671333 0.0114667 0 0.0710667 0.0114667 0 0.075 0.0114667 0 0.016 0.0122 0 0.0199333 0.0122 0 0.0238667 0.0122 0 0.0278 0.0122 0 0.0317333 0.0122 0 0.0356667 0.0122 0 0.0396 0.0122 0 0.0435333 0.0122 0 0.0474667 0.0122 0 0.0514 0.0122 0 0.0553333 0.0122 0 0.0592667 0.0122 0 0.0632 0.0122 0 0.0671333 0.0122 0 0.0710667 0.0122 0 0.075 0.0122 0 0.016 0.0129333 0 0.0199333 0.0129333 0 0.0238667 0.0129333 0 0.0278 0.0129333 0 0.0317333 0.0129333 0 0.0356667 0.0129333 0 0.0396 0.0129333 0 0.0435333 0.0129333 0 0.0474667 0.0129333 0 0.0514 0.0129333 0 0.0553333 0.0129333 0 0.0592667 0.0129333 0 0.0632 0.0129333 0 0.0671333 0.0129333 0 0.0710667 0.0129333 0 0.075 0.0129333 0 0.016 0.0136667 0 0.0199333 0.0136667 0 0.0238667 0.0136667 0 0.0278 0.0136667 0 0.0317333 0.0136667 0 0.0356667 0.0136667 0 0.0396 0.0136667 0 0.0435333 0.0136667 0 0.0474667 0.0136667 0 0.0514 0.0136667 0 0.0553333 0.0136667 0 0.0592667 0.0136667 0 0.0632 0.0136667 0 0.0671333 0.0136667 0 0.0710667 0.0136667 0 0.075 0.0136667 0 0.016 0.0144 0 0.0199333 0.0144 0 0.0238667 0.0144 0 0.0278 0.0144 0 0.0317333 0.0144 0 0.0356667 0.0144 0 0.0396 0.0144 0 0.0435333 0.0144 0 0.0474667 0.0144 0 0.0514 0.0144 0 0.0553333 0.0144 0 0.0592667 0.0144 0 0.0632 0.0144 0 0.0671333 0.0144 0 0.0710667 0.0144 0 0.075 0.0144 0 0.016 0.0151333 0 0.0199333 0.0151333 0 0.0238667 0.0151333 0 0.0278 0.0151333 0 0.0317333 0.0151333 0 0.0356667 0.0151333 0 0.0396 0.0151333 0 0.0435333 0.0151333 0 0.0474667 0.0151333 0 0.0514 0.0151333 0 0.0553333 0.0151333 0 0.0592667 0.0151333 0 0.0632 0.0151333 0 0.0671333 0.0151333 0 0.0710667 0.0151333 0 0.075 0.0151333 0 0.016 0.0158667 0 0.0199333 0.0158667 0 0.0238667 0.0158667 0 0.0278 0.0158667 0 0.0317333 0.0158667 0 0.0356667 0.0158667 0 0.0396 0.0158667 0 0.0435333 0.0158667 0 0.0474667 0.0158667 0 0.0514 0.0158667 0 0.0553333 0.0158667 0 0.0592667 0.0158667 0 0.0632 0.0158667 0 0.0671333 0.0158667 0 0.0710667 0.0158667 0 0.075 0.0158667 0 0.016 0.0166 0 0.0199333 0.0166 0 0.0238667 0.0166 0 0.0278 0.0166 0 0.0317333 0.0166 0 0.0356667 0.0166 0 0.0396 0.0166 0 0.0435333 0.0166 0 0.0474667 0.0166 0 0.0514 0.0166 0 0.0553333 0.0166 0 0.0592667 0.0166 0 0.0632 0.0166 0 0.0671333 0.0166 0 0.0710667 0.0166 0 0.075 0.0166 0 0.016 0.0173333 0 0.0199333 0.0173333 0 0.0238667 0.0173333 0 0.0278 0.0173333 0 0.0317333 0.0173333 0 0.0356667 0.0173333 0 0.0396 0.0173333 0 0.0435333 0.0173333 0 0.0474667 0.0173333 0 0.0514 0.0173333 0 0.0553333 0.0173333 0 0.0592667 0.0173333 0 0.0632 0.0173333 0 0.0671333 0.0173333 0 0.0710667 0.0173333 0 0.075 0.0173333 0 0.016 0.0180667 0 0.0199333 0.0180667 0 0.0238667 0.0180667 0 0.0278 0.0180667 0 0.0317333 0.0180667 0 0.0356667 0.0180667 0 0.0396 0.0180667 0 0.0435333 0.0180667 0 0.0474667 0.0180667 0 0.0514 0.0180667 0 0.0553333 0.0180667 0 0.0592667 0.0180667 0 0.0632 0.0180667 0 0.0671333 0.0180667 0 0.0710667 0.0180667 0 0.075 0.0180667 0 0.016 0.0188 0 0.0199333 0.0188 0 0.0238667 0.0188 0 0.0278 0.0188 0 0.0317333 0.0188 0 0.0356667 0.0188 0 0.0396 0.0188 0 0.0435333 0.0188 0 0.0474667 0.0188 0 0.0514 0.0188 0 0.0553333 0.0188 0 0.0592667 0.0188 0 0.0632 0.0188 0 0.0671333 0.0188 0 0.0710667 0.0188 0 0.075 0.0188 0 0.016 0.0195333 0 0.0199333 0.0195333 0 0.0238667 0.0195333 0 0.0278 0.0195333 0 0.0317333 0.0195333 0 0.0356667 0.0195333 0 0.0396 0.0195333 0 0.0435333 0.0195333 0 0.0474667 0.0195333 0 0.0514 0.0195333 0 0.0553333 0.0195333 0 0.0592667 0.0195333 0 0.0632 0.0195333 0 0.0671333 0.0195333 0 0.0710667 0.0195333 0 0.075 0.0195333 0 0.016 0.0202667 0 0.0199333 0.0202667 0 0.0238667 0.0202667 0 0.0278 0.0202667 0 0.0317333 0.0202667 0 0.0356667 0.0202667 0 0.0396 0.0202667 0 0.0435333 0.0202667 0 0.0474667 0.0202667 0 0.0514 0.0202667 0 0.0553333 0.0202667 0 0.0592667 0.0202667 0 0.0632 0.0202667 0 0.0671333 0.0202667 0 0.0710667 0.0202667 0 0.075 0.0202667 0 0.016 0.021 0 0.0199333 0.021 0 0.0238667 0.021 0 0.0278 0.021 0 0.0317333 0.021 0 0.0356667 0.021 0 0.0396 0.021 0 0.0435333 0.021 0 0.0474667 0.021 0 0.0514 0.021 0 0.0553333 0.021 0 0.0592667 0.021 0 0.0632 0.021 0 0.0671333 0.021 0 0.0710667 0.021 0 0.075 0.021 0 
</DataArray>
</Points> 
</Piece> 
</StructuredGrid> 
</VTKFile> 
