<?xml version="1.0"?> 
<VTKFile type="StructuredGrid" version="0.1"> 
<StructuredGrid WholeExtent="0 15 0 15 0 0"> 
<Piece Extent="0 15 0 15 0 0"> 
<PointData>
<DataArray type="Float32" Name="|E|" format="ascii" NumberOfComponents="3"> 
-1.50645e+06 0 0 -1.49458e+06 96910.2 0 -1.49026e+06 199267 0 -1.49129e+06 308424 0 -1.49536e+06 424865 0 -1.50035e+06 548280 0 -1.50463e+06 677790 0 -1.50711e+06 812198 0 -1.50725e+06 950210 0 -1.50499e+06 1.09058e+06 0 -1.50066e+06 1.2322e+06 0 -1.49498e+06 1.37418e+06 0 -1.48899e+06 1.51588e+06 0 -1.48407e+06 1.6571e+06 0 -1.48189e+06 1.79818e+06 0 -1.48426e+06 1.94024e+06 0 -1.42456e+06 0 0 -1.41206e+06 108170 0 -1.40624e+06 220790 0 -1.40528e+06 339108 0 -1.40724e+06 463628 0 -1.41032e+06 594180 0 -1.4131e+06 730084 0 -1.41465e+06 870364 0 -1.41452e+06 1.01393e+06 0 -1.41268e+06 1.15973e+06 0 -1.40955e+06 1.30685e+06 0 -1.40591e+06 1.45461e+06 0 -1.40285e+06 1.60268e+06 0 -1.40179e+06 1.75126e+06 0 -1.4043e+06 1.90126e+06 0 -1.41184e+06 2.05458e+06 0 -1.33735e+06 0 0 -1.3247e+06 118569 0 -1.31799e+06 240803 0 -1.31572e+06 367853 0 -1.31623e+06 500240 0 -1.31802e+06 637902 0 -1.31986e+06 780325 0 -1.32094e+06 926722 0 -1.3209e+06 1.0762e+06 0 -1.31981e+06 1.22789e+06 0 -1.31811e+06 1.38109e+06 0 -1.31663e+06 1.5354e+06 0 -1.31647e+06 1.69084e+06 0 -1.31892e+06 1.84806e+06 0 -1.32522e+06 2.00857e+06 0 -1.33618e+06 2.17499e+06 0 -1.24591e+06 0 0 -1.23346e+06 128282 0 -1.22633e+06 259610 0 -1.22325e+06 395050 0 -1.22285e+06 535135 0 -1.22382e+06 679892 0 -1.22512e+06 828951 0 -1.22607e+06 981694 0 -1.22639e+06 1.13741e+06 0 -1.22622e+06 1.29544e+06 0 -1.22603e+06 1.45531e+06 0 -1.22663e+06 1.61691e+06 0 -1.22902e+06 1.78064e+06 0 -1.23422e+06 1.9476e+06 0 -1.24288e+06 2.11982e+06 0 -1.25477e+06 2.30038e+06 0 -1.15103e+06 0 0 -1.13907e+06 137445 0 -1.13186e+06 277444 0 -1.12838e+06 420995 0 -1.12745e+06 568641 0 -1.12796e+06 720487 0 -1.12902e+06 876293 0 -1.13008e+06 1.0356e+06 0 -1.13092e+06 1.19787e+06 0 -1.13172e+06 1.36265e+06 0 -1.13296e+06 1.52973e+06 0 -1.13536e+06 1.69928e+06 0 -1.1397e+06 1.87204e+06 0 -1.14654e+06 2.04951e+06 0 -1.15574e+06 2.23401e+06 0 -1.16578e+06 2.42861e+06 0 -1.05336e+06 0 0 -1.04209e+06 146156 0 -1.03509e+06 294477 0 -1.0315e+06 445906 0 -1.03034e+06 600998 0 -1.03065e+06 759932 0 -1.03168e+06 922584 0 -1.03298e+06 1.08864e+06 0 -1.03439e+06 1.25775e+06 0 -1.03611e+06 1.42967e+06 0 -1.03856e+06 1.6044e+06 0 -1.04231e+06 1.78241e+06 0 -1.0478e+06 1.9647e+06 0 -1.055e+06 2.15299e+06 0 -1.06282e+06 2.34958e+06 0 -1.06847e+06 2.55695e+06 0 -953399 0 0 -942969 154489 0 -936382 310836 0 -932916 469942 0 -931727 632380 0 -932017 798399 0 -933151 967984 0 -934748 1.14097e+06 0 -936709 1.31716e+06 0 -939197 1.49651e+06 0 -942546 1.67925e+06 0 -947087 1.86603e+06 0 -952853 2.05804e+06 0 -959134 2.25697e+06 0 -963899 2.4647e+06 0 -963356 2.68261e+06 0 -851544 0 0 -842083 162497 0 -836060 326611 0 -832872 493217 0 -831808 662909 0 -832190 836004 0 -833485 1.01259e+06 0 -835377 1.19264e+06 0 -837786 1.37611e+06 0 -840829 1.56313e+06 0 -844700 1.75409e+06 0 -849450 1.94977e+06 0 -854650 2.15136e+06 0 -858933 2.36027e+06 0 -859504 2.57762e+06 0 -852011 2.80333e+06 0 -748129 0 0 -739727 170218 0 -734378 341867 0 -731579 515807 0 -730730 692662 0 -731261 872815 0 -732722 1.05646e+06 0 -734849 1.24367e+06 0 -737562 1.43457e+06 0 -740908 1.62941e+06 0 -744914 1.82868e+06 0 -749331 2.03319e+06 0 -753285 2.24395e+06 0 -754859 2.46185e+06 0 -750786 2.68698e+06 0 -736659 2.91767e+06 0 -643430 0 0 -636156 177676 0 -631556 356643 0 -629211 537760 0 -628622 721686 0 -629310 908869 0 -630899 1.09959e+06 0 -633161 1.29405e+06 0 -636005 1.49247e+06 0 -639395 1.6952e+06 0 -643180 1.90277e+06 0 -646834 2.11588e+06 0 -649109 2.3352e+06 0 -647728 2.56092e+06 0 -639284 2.79194e+06 0 -619752 3.02509e+06 0 -537686 0 0 -531588 184886 0 -527781 370962 0 -525922 559101 0 -525597 750001 0 -526412 944176 0 -528055 1.14199e+06 0 -530326 1.34374e+06 0 -533116 1.54974e+06 0 -536305 1.76037e+06 0 -539586 1.97613e+06 0 -542206 2.19751e+06 0 -542673 2.42471e+06 0 -538572 2.65703e+06 0 -526681 2.89221e+06 0 -503652 3.12575e+06 0 -431106 0 0 -426217 191855 0 -423222 384834 0 -421846 579838 0 -421757 777609 0 -422637 978724 0 -424231 1.18363e+06 0 -426368 1.39269e+06 0 -428920 1.60628e+06 0 -431701 1.82478e+06 0 -434289 2.04859e+06 0 -435793 2.27789e+06 0 -434640 2.51227e+06 0 -428513 2.75012e+06 0 -414631 2.98802e+06 0 -390472 3.22035e+06 0 -323878 0 0 -320216 198581 0 -318029 398257 0 -317107 599964 0 -317194 804495 0 -318048 1.01249e+06 0 -319471 1.22446e+06 0 -321319 1.44084e+06 0 -323461 1.66202e+06 0 -325673 1.88836e+06 0 -327485 2.12008e+06 0 -327991 2.35696e+06 0 -325713 2.59793e+06 0 -318655 2.84044e+06 0 -304657 3.07996e+06 0 -282036 3.30992e+06 0 -216177 0 0 -213747 205060 0 -212342 411218 0 -211817 619460 0 -211995 830635 0 -212708 1.04544e+06 0 -213819 1.26446e+06 0 -215219 1.48815e+06 0 -216791 1.71692e+06 0 -218323 1.95107e+06 0 -219385 2.19058e+06 0 -219197 2.43482e+06 0 -216571 2.68199e+06 0 -210024 2.92854e+06 0 -198113 3.16891e+06 0 -179913 3.39564e+06 0 -108166 0 0 -106960 211281 0 -106291 423698 0 -106082 638298 0 -106239 855994 0 -106675 1.07754e+06 0 -107316 1.30356e+06 0 -108102 1.53456e+06 0 -108959 1.77094e+06 0 -109744 2.01291e+06 0 -110176 2.26021e+06 0 -109769 2.51173e+06 0 -107825 2.76491e+06 0 -103535 3.0152e+06 0 -96198.8 3.25594e+06 0 -85482.1 3.4788e+06 0 0 0 0 0 217228 0 0 435668 0 0 656443 0 0 880531 0 0 1.10874e+06 0 0 1.34174e+06 0 0 1.58005e+06 0 0 1.82407e+06 0 0 2.07393e+06 0 0 2.32914e+06 0 0 2.58807e+06 0 0 2.84736e+06 0 0 3.10137e+06 0 0 3.34223e+06 0 0 3.56063e+06 0 </DataArray> 
</PointData> 
<Points> 
<DataArray type="Float32" NumberOfComponents="3"> 
0 0.0556667 0 0.00452 0.0564444 0 0.00904 0.0572222 0 0.01356 0.058 0 0.01808 0.0587778 0 0.0226 0.0595556 0 0.02712 0.0603333 0 0.03164 0.0611111 0 0.03616 0.0618889 0 0.04068 0.0626667 0 0.0452 0.0634444 0 0.04972 0.0642222 0 0.05424 0.065 0 0.05876 0.0657778 0 0.06328 0.0665556 0 0.0678 0.0673333 0 0 0.0594222 0 0.00472089 0.0601481 0 0.00944178 0.0608741 0 0.0141627 0.0616 0 0.0188836 0.0623259 0 0.0236044 0.0630519 0 0.0283253 0.0637778 0 0.0330462 0.0645037 0 0.0377671 0.0652296 0 0.042488 0.0659556 0 0.0472089 0.0666815 0 0.0519298 0.0674074 0 0.0566507 0.0681333 0 0.0613716 0.0688593 0 0.0660924 0.0695852 0 0.0708133 0.0703111 0 0 0.0631778 0 0.00492178 0.0638519 0 0.00984356 0.0645259 0 0.0147653 0.0652 0 0.0196871 0.0658741 0 0.0246089 0.0665481 0 0.0295307 0.0672222 0 0.0344524 0.0678963 0 0.0393742 0.0685704 0 0.044296 0.0692444 0 0.0492178 0.0699185 0 0.0541396 0.0705926 0 0.0590613 0.0712667 0 0.0639831 0.0719407 0 0.0689049 0.0726148 0 0.0738267 0.0732889 0 0 0.0669333 0 0.00512267 0.0675556 0 0.0102453 0.0681778 0 0.015368 0.0688 0 0.0204907 0.0694222 0 0.0256133 0.0700444 0 0.030736 0.0706667 0 0.0358587 0.0712889 0 0.0409813 0.0719111 0 0.046104 0.0725333 0 0.0512267 0.0731556 0 0.0563493 0.0737778 0 0.061472 0.0744 0 0.0665947 0.0750222 0 0.0717173 0.0756444 0 0.07684 0.0762667 0 0 0.0706889 0 0.00532356 0.0712593 0 0.0106471 0.0718296 0 0.0159707 0.0724 0 0.0212942 0.0729704 0 0.0266178 0.0735407 0 0.0319413 0.0741111 0 0.0372649 0.0746815 0 0.0425884 0.0752519 0 0.047912 0.0758222 0 0.0532356 0.0763926 0 0.0585591 0.076963 0 0.0638827 0.0775333 0 0.0692062 0.0781037 0 0.0745298 0.0786741 0 0.0798533 0.0792444 0 0 0.0744444 0 0.00552444 0.074963 0 0.0110489 0.0754815 0 0.0165733 0.076 0 0.0220978 0.0765185 0 0.0276222 0.077037 0 0.0331467 0.0775556 0 0.0386711 0.0780741 0 0.0441956 0.0785926 0 0.04972 0.0791111 0 0.0552444 0.0796296 0 0.0607689 0.0801481 0 0.0662933 0.0806667 0 0.0718178 0.0811852 0 0.0773422 0.0817037 0 0.0828667 0.0822222 0 0 0.0782 0 0.00572533 0.0786667 0 0.0114507 0.0791333 0 0.017176 0.0796 0 0.0229013 0.0800667 0 0.0286267 0.0805333 0 0.034352 0.081 0 0.0400773 0.0814667 0 0.0458027 0.0819333 0 0.051528 0.0824 0 0.0572533 0.0828667 0 0.0629787 0.0833333 0 0.068704 0.0838 0 0.0744293 0.0842667 0 0.0801547 0.0847333 0 0.08588 0.0852 0 0 0.0819556 0 0.00592622 0.0823704 0 0.0118524 0.0827852 0 0.0177787 0.0832 0 0.0237049 0.0836148 0 0.0296311 0.0840296 0 0.0355573 0.0844444 0 0.0414836 0.0848593 0 0.0474098 0.0852741 0 0.053336 0.0856889 0 0.0592622 0.0861037 0 0.0651884 0.0865185 0 0.0711147 0.0869333 0 0.0770409 0.0873481 0 0.0829671 0.087763 0 0.0888933 0.0881778 0 0 0.0857111 0 0.00612711 0.0860741 0 0.0122542 0.086437 0 0.0183813 0.0868 0 0.0245084 0.087163 0 0.0306356 0.0875259 0 0.0367627 0.0878889 0 0.0428898 0.0882519 0 0.0490169 0.0886148 0 0.055144 0.0889778 0 0.0612711 0.0893407 0 0.0673982 0.0897037 0 0.0735253 0.0900667 0 0.0796524 0.0904296 0 0.0857796 0.0907926 0 0.0919067 0.0911556 0 0 0.0894667 0 0.006328 0.0897778 0 0.012656 0.0900889 0 0.018984 0.0904 0 0.025312 0.0907111 0 0.03164 0.0910222 0 0.037968 0.0913333 0 0.044296 0.0916444 0 0.050624 0.0919556 0 0.056952 0.0922667 0 0.06328 0.0925778 0 0.069608 0.0928889 0 0.075936 0.0932 0 0.082264 0.0935111 0 0.088592 0.0938222 0 0.09492 0.0941333 0 0 0.0932222 0 0.00652889 0.0934815 0 0.0130578 0.0937407 0 0.0195867 0.094 0 0.0261156 0.0942593 0 0.0326444 0.0945185 0 0.0391733 0.0947778 0 0.0457022 0.095037 0 0.0522311 0.0952963 0 0.05876 0.0955556 0 0.0652889 0.0958148 0 0.0718178 0.0960741 0 0.0783467 0.0963333 0 0.0848756 0.0965926 0 0.0914044 0.0968519 0 0.0979333 0.0971111 0 0 0.0969778 0 0.00672978 0.0971852 0 0.0134596 0.0973926 0 0.0201893 0.0976 0 0.0269191 0.0978074 0 0.0336489 0.0980148 0 0.0403787 0.0982222 0 0.0471084 0.0984296 0 0.0538382 0.098637 0 0.060568 0.0988444 0 0.0672978 0.0990519 0 0.0740276 0.0992593 0 0.0807573 0.0994667 0 0.0874871 0.0996741 0 0.0942169 0.0998815 0 0.100947 0.100089 0 0 0.100733 0 0.00693067 0.100889 0 0.0138613 0.101044 0 0.020792 0.1012 0 0.0277227 0.101356 0 0.0346533 0.101511 0 0.041584 0.101667 0 0.0485147 0.101822 0 0.0554453 0.101978 0 0.062376 0.102133 0 0.0693067 0.102289 0 0.0762373 0.102444 0 0.083168 0.1026 0 0.0900987 0.102756 0 0.0970293 0.102911 0 0.10396 0.103067 0 0 0.104489 0 0.00713156 0.104593 0 0.0142631 0.104696 0 0.0213947 0.1048 0 0.0285262 0.104904 0 0.0356578 0.105007 0 0.0427893 0.105111 0 0.0499209 0.105215 0 0.0570524 0.105319 0 0.064184 0.105422 0 0.0713156 0.105526 0 0.0784471 0.10563 0 0.0855787 0.105733 0 0.0927102 0.105837 0 0.0998418 0.105941 0 0.106973 0.106044 0 0 0.108244 0 0.00733244 0.108296 0 0.0146649 0.108348 0 0.0219973 0.1084 0 0.0293298 0.108452 0 0.0366622 0.108504 0 0.0439947 0.108556 0 0.0513271 0.108607 0 0.0586596 0.108659 0 0.065992 0.108711 0 0.0733244 0.108763 0 0.0806569 0.108815 0 0.0879893 0.108867 0 0.0953218 0.108919 0 0.102654 0.10897 0 0.109987 0.109022 0 0 0.112 0 0.00753333 0.112 0 0.0150667 0.112 0 0.0226 0.112 0 0.0301333 0.112 0 0.0376667 0.112 0 0.0452 0.112 0 0.0527333 0.112 0 0.0602667 0.112 0 0.0678 0.112 0 0.0753333 0.112 0 0.0828667 0.112 0 0.0904 0.112 0 0.0979333 0.112 0 0.105467 0.112 0 0.113 0.112 0 
</DataArray>
</Points> 
</Piece> 
</StructuredGrid> 
</VTKFile> 
