<?xml version="1.0"?> 
<VTKFile type="StructuredGrid" version="0.1"> 
<StructuredGrid WholeExtent="0 15 0 15 0 0"> 
<Piece Extent="0 15 0 15 0 0"> 
<PointData>
<DataArray type="Float32" Name="|E|" format="ascii" NumberOfComponents="3"> 
-1.93793e+06 4.77702e+06 0 -1.76599e+06 4.68106e+06 0 -1.63571e+06 4.69099e+06 0 -1.51536e+06 4.73611e+06 0 -1.39612e+06 4.79654e+06 0 -1.27437e+06 4.86373e+06 0 -1.14824e+06 4.93228e+06 0 -1.0168e+06 4.99853e+06 0 -879732 5.05957e+06 0 -737104 5.113e+06 0 -589320 5.15672e+06 0 -437061 5.18882e+06 0 -281248 5.20741e+06 0 -123042 5.21046e+06 0 36126.4 5.19466e+06 0 194132 5.14949e+06 0 -1.83897e+06 4.43171e+06 0 -1.66139e+06 4.48634e+06 0 -1.51706e+06 4.54051e+06 0 -1.38862e+06 4.59994e+06 0 -1.26686e+06 4.66252e+06 0 -1.14707e+06 4.7255e+06 0 -1.02674e+06 4.78653e+06 0 -904538 4.84358e+06 0 -779844 4.89488e+06 0 -652513 4.93886e+06 0 -522762 4.97411e+06 0 -391132 4.99935e+06 0 -258498 5.01335e+06 0 -126207 5.01497e+06 0 3520.04 5.0032e+06 0 127153 4.97837e+06 0 -1.64907e+06 4.24176e+06 0 -1.50495e+06 4.32421e+06 0 -1.37581e+06 4.39738e+06 0 -1.25596e+06 4.46566e+06 0 -1.14137e+06 4.5304e+06 0 -1.02934e+06 4.5915e+06 0 -918147 4.64826e+06 0 -806753 4.69982e+06 0 -694629 4.74522e+06 0 -581610 4.78358e+06 0 -467836 4.81404e+06 0 -353715 4.83585e+06 0 -239925 4.84839e+06 0 -127435 4.85125e+06 0 -17488.2 4.84439e+06 0 88411.3 4.82849e+06 0 -1.45889e+06 4.10557e+06 0 -1.34232e+06 4.19346e+06 0 -1.23114e+06 4.27156e+06 0 -1.12455e+06 4.34246e+06 0 -1.02115e+06 4.40744e+06 0 -919704 4.46693e+06 0 -819317 4.52089e+06 0 -719384 4.56902e+06 0 -619573 4.61087e+06 0 -519788 4.64598e+06 0 -420131 4.6739e+06 0 -320889 4.69424e+06 0 -222506 4.70672e+06 0 -125562 4.71126e+06 0 -30722.5 4.70798e+06 0 61480.2 4.69732e+06 0 -1.28435e+06 3.99923e+06 0 -1.18695e+06 4.08516e+06 0 -1.09186e+06 4.16255e+06 0 -998867 4.23272e+06 0 -907568 4.29647e+06 0 -817533 4.35419e+06 0 -728382 4.40599e+06 0 -639840 4.4518e+06 0 -551757 4.49144e+06 0 -464107 4.52468e+06 0 -376980 4.55131e+06 0 -290569 4.57114e+06 0 -205155 4.58409e+06 0 -121075 4.59017e+06 0 -38677.8 4.58951e+06 0 41673.8 4.58242e+06 0 -1.12395e+06 3.91191e+06 0 -1.04229e+06 3.99369e+06 0 -961109 4.06829e+06 0 -880714 4.13628e+06 0 -801129 4.19807e+06 0 -722280 4.25391e+06 0 -644070 4.30389e+06 0 -566423 4.348e+06 0 -489307 4.38617e+06 0 -412750 4.41829e+06 0 -336835 4.44428e+06 0 -261701 4.46406e+06 0 -187527 4.47762e+06 0 -114517 4.485e+06 0 -42881 4.48633e+06 0 27211.6 4.48183e+06 0 -977589 3.8382e+06 0 -908513 3.91561e+06 0 -839341 3.98687e+06 0 -770326 4.05224e+06 0 -701620 4.11186e+06 0 -633300 4.16584e+06 0 -565403 4.21423e+06 0 -497958 4.257e+06 0 -431002 4.29412e+06 0 -364590 4.32554e+06 0 -298804 4.35122e+06 0 -233750 4.37112e+06 0 -169549 4.38527e+06 0 -106333 4.39373e+06 0 -44230.4 4.3966e+06 0 16634.6 4.39406e+06 0 -842875 3.77547e+06 0 -784628 3.84879e+06 0 -725977 3.91683e+06 0 -667188 3.9796e+06 0 -608443 4.03712e+06 0 -549868 4.08938e+06 0 -491555 4.13637e+06 0 -433577 4.17804e+06 0 -376003 4.21436e+06 0 -318902 4.24529e+06 0 -262352 4.2708e+06 0 -206438 4.29088e+06 0 -151247 4.30556e+06 0 -96870.8 4.31489e+06 0 -43394.5 4.31896e+06 0 9109.27 4.31792e+06 0 -718157 3.72206e+06 0 -669317 3.79187e+06 0 -620020 3.85704e+06 0 -570471 3.91747e+06 0 -520834 3.97308e+06 0 -471242 4.02381e+06 0 -421798 4.06958e+06 0 -372592 4.11033e+06 0 -323698 4.14601e+06 0 -275191 4.17657e+06 0 -227140 4.20197e+06 0 -179614 4.22222e+06 0 -132683 4.23733e+06 0 -86411.4 4.24736e+06 0 -40857.7 4.25237e+06 0 3925.1 4.25248e+06 0 -601624 3.67706e+06 0 -561223 3.74394e+06 0 -520377 3.80666e+06 0 -479253 3.86507e+06 0 -437988 3.91904e+06 0 -396699 3.96844e+06 0 -355485 4.01317e+06 0 -314430 4.05314e+06 0 -273609 4.08829e+06 0 -233088 4.11854e+06 0 -192929 4.14387e+06 0 -153191 4.16426e+06 0 -113927 4.17971e+06 0 -75184.3 4.19027e+06 0 -37006.5 4.19601e+06 0 571.943 4.197e+06 0 -491781 3.63985e+06 0 -459070 3.70435e+06 0 -425975 3.76506e+06 0 -392621 3.82178e+06 0 -359116 3.87436e+06 0 -325556 3.92264e+06 0 -292025 3.9665e+06 0 -258597 4.00583e+06 0 -225336 4.04052e+06 0 -192300 4.07053e+06 0 -159542 4.09579e+06 0 -127108 4.11627e+06 0 -95040.3 4.13199e+06 0 -63376.2 4.14297e+06 0 -32145.6 4.14925e+06 0 -1373.44 4.15091e+06 0 -387263 3.61003e+06 0 -361692 3.67265e+06 0 -335812 3.73174e+06 0 -309713 3.78711e+06 0 -283476 3.83855e+06 0 -257177 3.88592e+06 0 -230881 3.92906e+06 0 -204648 3.96785e+06 0 -178531 4.00218e+06 0 -152575 4.03197e+06 0 -126824 4.05716e+06 0 -101313 4.07772e+06 0 -76075.3 4.09363e+06 0 -51137.8 4.10491e+06 0 -26522.6 4.1116e+06 0 -2246.59 4.11376e+06 0 -286871 3.58735e+06 0 -268031 3.64851e+06 0 -248961 3.70635e+06 0 -229723 3.76065e+06 0 -210375 3.81121e+06 0 -190970 3.85786e+06 0 -171558 3.90043e+06 0 -152181 3.93879e+06 0 -132880 3.97283e+06 0 -113689 4.00244e+06 0 -94639.1 4.02757e+06 0 -75758 4.04816e+06 0 -57068.8 4.0642e+06 0 -38590.9 4.0757e+06 0 -20339.6 4.08268e+06 0 -2326.38 4.0852e+06 0 -189520 3.57161e+06 0 -177119 3.63171e+06 0 -164568 3.68863e+06 0 -151904 3.74214e+06 0 -139165 3.79204e+06 0 -126383 3.83815e+06 0 -113592 3.88029e+06 0 -100819 3.91832e+06 0 -88090.6 3.95213e+06 0 -75430 3.9816e+06 0 -62857.5 4.00667e+06 0 -50390.9 4.02728e+06 0 -38045.4 4.0434e+06 0 -25833.6 4.05504e+06 0 -13765 4.06221e+06 0 -1846.73 4.06497e+06 0 -94209.2 3.56272e+06 0 -88059 3.62211e+06 0 -81834.5 3.67841e+06 0 -75553.8 3.73139e+06 0 -69234.7 3.78084e+06 0 -62893.6 3.82657e+06 0 -56546 3.86841e+06 0 -50206.1 3.90622e+06 0 -43886.5 3.93986e+06 0 -37598.6 3.96922e+06 0 -31352.7 3.99424e+06 0 -25157.3 4.01484e+06 0 -19020 4.03101e+06 0 -12946.8 4.04272e+06 0 -6942.48 4.05001e+06 0 -1010.35 4.0529e+06 0 0 3.56063e+06 0 0 3.61964e+06 0 0 3.6756e+06 0 0 3.72828e+06 0 0 3.77748e+06 0 0 3.823e+06 0 0 3.86467e+06 0 0 3.90234e+06 0 0 3.93588e+06 0 0 3.96518e+06 0 0 3.99015e+06 0 0 4.01073e+06 0 0 4.0269e+06 0 0 4.03864e+06 0 0 4.04595e+06 0 0 4.04889e+06 0 </DataArray> 
</PointData> 
<Points> 
<DataArray type="Float32" NumberOfComponents="3"> 
0.112274 0.0599366 0 0.114601 0.0608475 0 0.116922 0.0616898 0 0.119236 0.0624635 0 0.121543 0.0631686 0 0.123844 0.063805 0 0.126139 0.0643728 0 0.128428 0.064872 0 0.13071 0.0653025 0 0.132985 0.0656644 0 0.135254 0.0659577 0 0.137517 0.0661823 0 0.139773 0.0663383 0 0.142023 0.0664257 0 0.144266 0.0664444 0 0.146503 0.0663945 0 0.112323 0.0634075 0 0.114643 0.0642577 0 0.116958 0.0650439 0 0.119267 0.065766 0 0.121569 0.066424 0 0.123866 0.067018 0 0.126157 0.067548 0 0.128441 0.0680138 0 0.13072 0.0684157 0 0.132993 0.0687534 0 0.135259 0.0690272 0 0.13752 0.0692368 0 0.139775 0.0693824 0 0.142024 0.069464 0 0.144266 0.0694814 0 0.146503 0.0694349 0 0.112371 0.0668784 0 0.114685 0.0676679 0 0.116994 0.0683979 0 0.119298 0.0690684 0 0.121595 0.0696794 0 0.123887 0.070231 0 0.126174 0.0707231 0 0.128455 0.0711557 0 0.13073 0.0715288 0 0.133 0.0718425 0 0.135265 0.0720966 0 0.137523 0.0722913 0 0.139777 0.0724265 0 0.142024 0.0725022 0 0.144266 0.0725185 0 0.146503 0.0724752 0 0.112419 0.0703493 0 0.114728 0.071078 0 0.117031 0.0717519 0 0.119329 0.0723708 0 0.121621 0.0729349 0 0.123909 0.073444 0 0.126191 0.0738982 0 0.128469 0.0742976 0 0.130741 0.074642 0 0.133008 0.0749315 0 0.13527 0.0751661 0 0.137527 0.0753458 0 0.139778 0.0754706 0 0.142025 0.0755405 0 0.144266 0.0755555 0 0.146503 0.0755156 0 0.112468 0.0738202 0 0.11477 0.0744882 0 0.117067 0.0751059 0 0.119359 0.0756733 0 0.121647 0.0761903 0 0.12393 0.076657 0 0.126209 0.0770734 0 0.128482 0.0774394 0 0.130751 0.0777552 0 0.133016 0.0780206 0 0.135275 0.0782356 0 0.13753 0.0784003 0 0.13978 0.0785147 0 0.142026 0.0785788 0 0.144266 0.0785926 0 0.146502 0.078556 0 0.112516 0.077291 0 0.114812 0.0778984 0 0.117103 0.0784599 0 0.11939 0.0789757 0 0.121673 0.0794457 0 0.123952 0.07987 0 0.126226 0.0802485 0 0.128496 0.0805813 0 0.130762 0.0808683 0 0.133023 0.0811096 0 0.135281 0.0813051 0 0.137533 0.0814549 0 0.139782 0.0815589 0 0.142026 0.0816171 0 0.144266 0.0816296 0 0.146502 0.0815963 0 0.112565 0.0807619 0 0.114854 0.0813085 0 0.11714 0.0818139 0 0.119421 0.0822781 0 0.121699 0.0827012 0 0.123973 0.083083 0 0.126244 0.0834237 0 0.12851 0.0837232 0 0.130772 0.0839815 0 0.133031 0.0841986 0 0.135286 0.0843746 0 0.137537 0.0845094 0 0.139784 0.084603 0 0.142027 0.0846554 0 0.144266 0.0846666 0 0.146502 0.0846367 0 0.112613 0.0842328 0 0.114896 0.0847187 0 0.117176 0.0851679 0 0.119452 0.0855806 0 0.121725 0.0859566 0 0.123995 0.086296 0 0.126261 0.0865988 0 0.128524 0.0868651 0 0.130783 0.0870947 0 0.133039 0.0872877 0 0.135291 0.0874441 0 0.13754 0.0875639 0 0.139786 0.0876471 0 0.142028 0.0876937 0 0.144266 0.0877037 0 0.146502 0.0876771 0 0.112661 0.0877037 0 0.114938 0.0881288 0 0.117212 0.0885219 0 0.119483 0.088883 0 0.121751 0.089212 0 0.124016 0.089509 0 0.126278 0.089774 0 0.128537 0.0900069 0 0.130793 0.0902078 0 0.133046 0.0903767 0 0.135296 0.0905136 0 0.137543 0.0906184 0 0.139787 0.0906912 0 0.142028 0.090732 0 0.144266 0.0907407 0 0.146502 0.0907174 0 0.11271 0.0911746 0 0.11498 0.091539 0 0.117249 0.0918759 0 0.119514 0.0921854 0 0.121777 0.0924674 0 0.124038 0.092722 0 0.126296 0.0929491 0 0.128551 0.0931488 0 0.130804 0.093321 0 0.133054 0.0934658 0 0.135302 0.0935831 0 0.137547 0.0936729 0 0.139789 0.0937353 0 0.142029 0.0937703 0 0.144267 0.0937778 0 0.146501 0.0937578 0 0.112758 0.0946455 0 0.115023 0.0949492 0 0.117285 0.0952299 0 0.119545 0.0954878 0 0.121803 0.0957229 0 0.124059 0.095935 0 0.126313 0.0961243 0 0.128565 0.0962907 0 0.130814 0.0964342 0 0.133062 0.0965548 0 0.135307 0.0966526 0 0.13755 0.0967274 0 0.139791 0.0967794 0 0.14203 0.0968086 0 0.144267 0.0968148 0 0.146501 0.0967982 0 0.112806 0.0981164 0 0.115065 0.0983593 0 0.117321 0.098584 0 0.119576 0.0987903 0 0.121829 0.0989783 0 0.124081 0.099148 0 0.12633 0.0992994 0 0.128578 0.0994325 0 0.130825 0.0995473 0 0.133069 0.0996438 0 0.135312 0.099722 0 0.137553 0.0997819 0 0.139793 0.0998235 0 0.142031 0.0998468 0 0.144267 0.0998518 0 0.146501 0.0998385 0 0.112855 0.101587 0 0.115107 0.10177 0 0.117358 0.101938 0 0.119607 0.102093 0 0.121855 0.102234 0 0.124102 0.102361 0 0.126348 0.102475 0 0.128592 0.102574 0 0.130835 0.10266 0 0.133077 0.102733 0 0.135317 0.102792 0 0.137557 0.102836 0 0.139795 0.102868 0 0.142031 0.102885 0 0.144267 0.102889 0 0.146501 0.102879 0 0.112903 0.105058 0 0.115149 0.10518 0 0.117394 0.105292 0 0.119638 0.105395 0 0.121881 0.105489 0 0.124124 0.105574 0 0.126365 0.10565 0 0.128606 0.105716 0 0.130846 0.105774 0 0.133085 0.105822 0 0.135323 0.105861 0 0.13756 0.105891 0 0.139796 0.105912 0 0.142032 0.105923 0 0.144267 0.105926 0 0.1465 0.105919 0 0.112952 0.108529 0 0.115191 0.10859 0 0.11743 0.108646 0 0.119669 0.108698 0 0.121907 0.108745 0 0.124145 0.108787 0 0.126383 0.108825 0 0.12862 0.108858 0 0.130856 0.108887 0 0.133092 0.108911 0 0.135328 0.108931 0 0.137563 0.108945 0 0.139798 0.108956 0 0.142033 0.108962 0 0.144267 0.108963 0 0.1465 0.10896 0 0.113 0.112 0 0.115233 0.112 0 0.117467 0.112 0 0.1197 0.112 0 0.121933 0.112 0 0.124167 0.112 0 0.1264 0.112 0 0.128633 0.112 0 0.130867 0.112 0 0.1331 0.112 0 0.135333 0.112 0 0.137567 0.112 0 0.1398 0.112 0 0.142033 0.112 0 0.144267 0.112 0 0.1465 0.112 0 
</DataArray>
</Points> 
</Piece> 
</StructuredGrid> 
</VTKFile> 
