<?xml version="1.0"?> 
<VTKFile type="StructuredGrid" version="0.1"> 
<StructuredGrid WholeExtent="0 15 0 15 0 0"> 
<Piece Extent="0 15 0 15 0 0"> 
<PointData>
<DataArray type="Float32" Name="|E|" format="ascii" NumberOfComponents="3"> 
-2.13276e+06 0 0 -2.13913e+06 -0.00365283 0 -2.15835e+06 -0.00748259 0 -2.19073e+06 -0.0116509 0 -2.23679e+06 -0.016253 0 -2.29731e+06 -0.0212072 0 -2.37332e+06 -0.0259328 0 -2.46612e+06 -0.0285771 0 -2.57722e+06 -0.0245538 0 -2.70807e+06 -0.00197787 0 -2.85941e+06 0.0623559 0 -3.02955e+06 0.210216 0 -3.21098e+06 0.476505 0 -3.38486e+06 0.75944 0 -3.5171e+06 0.686236 0 -3.56788e+06 3.21865e-06 0 -2.13264e+06 0 0 -2.13902e+06 1701.88 0 -2.15823e+06 3430.75 0 -2.19061e+06 5214.93 0 -2.23666e+06 7085.17 0 -2.29717e+06 9075.31 0 -2.37317e+06 11221.6 0 -2.46596e+06 13557.7 0 -2.57704e+06 16100.7 0 -2.70789e+06 18814.2 0 -2.85924e+06 21519 0 -3.02944e+06 23717.3 0 -3.21104e+06 24295.2 0 -3.38522e+06 21346.9 0 -3.51784e+06 13005.3 0 -3.56881e+06 -3.93949e-07 0 -2.1323e+06 0 0 -2.13867e+06 3403.27 0 -2.15788e+06 6860.52 0 -2.19024e+06 10428.3 0 -2.23628e+06 14168.2 0 -2.29676e+06 18147.8 0 -2.37272e+06 22439.7 0 -2.46547e+06 27111.6 0 -2.57651e+06 32198.1 0 -2.70734e+06 37628.1 0 -2.85872e+06 43046 0 -3.02911e+06 47462.1 0 -3.2112e+06 48653 0 -3.38631e+06 42793.9 0 -3.52007e+06 26101.5 0 -3.57162e+06 9.49949e-08 0 -2.13174e+06 0 0 -2.1381e+06 5103.71 0 -2.1573e+06 10288.3 0 -2.18964e+06 15638.7 0 -2.23564e+06 21247 0 -2.29607e+06 27214.8 0 -2.37198e+06 33651.1 0 -2.46466e+06 40658 0 -2.57563e+06 48289 0 -2.70642e+06 56441.4 0 -2.85786e+06 64589.1 0 -3.02856e+06 71261.4 0 -3.21146e+06 73135.4 0 -3.38812e+06 64441.3 0 -3.52379e+06 39380.6 0 -3.57632e+06 1.76951e-08 0 -2.13095e+06 0 0 -2.13731e+06 6802.72 0 -2.15648e+06 13713.2 0 -2.18879e+06 20844.5 0 -2.23474e+06 28319.4 0 -2.29511e+06 36273.5 0 -2.37093e+06 44852.2 0 -2.46352e+06 54193.1 0 -2.5744e+06 64370 0 -2.70512e+06 75253.3 0 -2.85665e+06 86155.6 0 -3.02777e+06 95141.6 0 -3.21181e+06 97804.4 0 -3.39064e+06 86391.4 0 -3.52903e+06 52938.4 0 -3.58296e+06 -9.31323e-09 0 -2.12993e+06 0 0 -2.13628e+06 8499.81 0 -2.15543e+06 17134.2 0 -2.18769e+06 26044.1 0 -2.23359e+06 35383.3 0 -2.29387e+06 45321 0 -2.36959e+06 56039.7 0 -2.46206e+06 67713 0 -2.57281e+06 80437.7 0 -2.70346e+06 94063.2 0 -2.85508e+06 107753 0 -3.02674e+06 119128 0 -3.21222e+06 122722 0 -3.39386e+06 108749 0 -3.5358e+06 66875.9 0 -3.59158e+06 -7.45058e-09 0 -2.12869e+06 0 0 -2.13503e+06 10194.5 0 -2.15415e+06 20550.3 0 -2.18636e+06 31236.2 0 -2.23218e+06 42436.5 0 -2.29236e+06 54354.6 0 -2.36796e+06 67210.1 0 -2.46027e+06 81214 0 -2.57087e+06 96488.4 0 -2.70142e+06 112870 0 -2.85315e+06 129386 0 -3.02544e+06 143246 0 -3.21267e+06 147949 0 -3.39776e+06 131621 0 -3.54415e+06 81301.7 0 -3.60227e+06 4.47035e-08 0 -2.12722e+06 0 0 -2.13355e+06 11886.4 0 -2.15264e+06 23960.5 0 -2.18478e+06 36419.2 0 -2.23051e+06 49477.1 0 -2.29058e+06 63371.6 0 -2.36602e+06 78360 0 -2.45815e+06 94692 0 -2.56857e+06 112518 0 -2.699e+06 131671 0 -2.85085e+06 151062 0 -3.02386e+06 167517 0 -3.21313e+06 173545 0 -3.40232e+06 155121 0 -3.5541e+06 96333.7 0 -3.61512e+06 7.45058e-09 0 -2.12553e+06 0 0 -2.13184e+06 13574.9 0 -2.15089e+06 27363.9 0 -2.18297e+06 41591.6 0 -2.22859e+06 56502.8 0 -2.28853e+06 72369.1 0 -2.36379e+06 89485.9 0 -2.45571e+06 108143 0 -2.56592e+06 128523 0 -2.6962e+06 150465 0 -2.84817e+06 172783 0 -3.02198e+06 191961 0 -3.21356e+06 199570 0 -3.40751e+06 179363 0 -3.5657e+06 112103 0 -3.63025e+06 8.19564e-08 0 -2.12361e+06 0 0 -2.12991e+06 15259.7 0 -2.14891e+06 30759.6 0 -2.18091e+06 46751.8 0 -2.22642e+06 63511.5 0 -2.2862e+06 81344.4 0 -2.36126e+06 100584 0 -2.45295e+06 121563 0 -2.56291e+06 144499 0 -2.69301e+06 169249 0 -2.84509e+06 194554 0 -3.01976e+06 216597 0 -3.21391e+06 226082 0 -3.41329e+06 204469 0 -3.579e+06 128754 0 -3.6478e+06 -2.6077e-07 0 -2.12147e+06 0 0 -2.12775e+06 16940.2 0 -2.1467e+06 34146.5 0 -2.17861e+06 51898.4 0 -2.224e+06 70501.2 0 -2.2836e+06 90294.7 0 -2.35844e+06 111652 0 -2.44986e+06 134948 0 -2.55954e+06 160442 0 -2.68943e+06 188019 0 -2.8416e+06 216375 0 -3.01719e+06 241440 0 -3.21413e+06 253137 0 -3.41963e+06 230566 0 -3.59407e+06 146453 0 -3.66794e+06 1.49012e-07 0 -2.1191e+06 0 0 -2.12537e+06 18616 0 -2.14426e+06 37523.8 0 -2.17608e+06 57030 0 -2.22132e+06 77469.9 0 -2.28073e+06 99217.3 0 -2.35533e+06 122684 0 -2.44645e+06 148293 0 -2.55581e+06 176346 0 -2.68546e+06 206772 0 -2.83769e+06 238248 0 -3.01422e+06 266502 0 -3.21417e+06 280787 0 -3.42646e+06 257787 0 -3.61096e+06 165387 0 -3.69091e+06 7.45058e-08 0 -2.11652e+06 0 0 -2.12276e+06 20286.6 0 -2.14159e+06 40890.5 0 -2.1733e+06 62145.1 0 -2.21839e+06 84415.3 0 -2.27759e+06 108109 0 -2.35192e+06 133679 0 -2.44272e+06 161594 0 -2.55173e+06 192206 0 -2.68107e+06 225500 0 -2.83335e+06 260169 0 -3.01083e+06 291789 0 -3.21394e+06 309083 0 -3.43371e+06 286269 0 -3.62974e+06 185772 0 -3.71695e+06 -1.93715e-07 0 -2.11371e+06 0 0 -2.11993e+06 21951.6 0 -2.1387e+06 44245.6 0 -2.17029e+06 67242.2 0 -2.21521e+06 91335.4 0 -2.27418e+06 116968 0 -2.34821e+06 144631 0 -2.43866e+06 174846 0 -2.54728e+06 208017 0 -2.67629e+06 244199 0 -2.82856e+06 282138 0 -3.00697e+06 317304 0 -3.21337e+06 338072 0 -3.4413e+06 316157 0 -3.65048e+06 207858 0 -3.74641e+06 1.93715e-07 0 -2.11068e+06 0 0 -2.11688e+06 23610.6 0 -2.13557e+06 47588.3 0 -2.16704e+06 72319.8 0 -2.21178e+06 98228.3 0 -2.27051e+06 125791 0 -2.34422e+06 155539 0 -2.43428e+06 188046 0 -2.54247e+06 223773 0 -2.67109e+06 262861 0 -2.8233e+06 304150 0 -3.0026e+06 343044 0 -3.21237e+06 367794 0 -3.44912e+06 347598 0 -3.67325e+06 231934 0 -3.77969e+06 -3.8743e-07 0 -2.10743e+06 0 0 -2.1136e+06 25263.1 0 -2.13222e+06 50917.7 0 -2.16356e+06 77376.7 0 -2.2081e+06 105092 0 -2.26657e+06 134575 0 -2.33994e+06 166397 0 -2.42958e+06 201187 0 -2.5373e+06 239469 0 -2.66547e+06 281476 0 -2.81756e+06 326199 0 -2.99769e+06 368999 0 -3.21085e+06 398285 0 -3.45706e+06 380743 0 -3.6981e+06 258334 0 -3.81731e+06 2.02656e-06 0 </DataArray> 
</PointData> 
<Points> 
<DataArray type="Float32" NumberOfComponents="3"> 
0 0 0 0.005 0 0 0.01 0 0 0.015 0 0 0.02 0 0 0.025 0 0 0.03 0 0 0.035 0 0 0.04 0 0 0.045 0 0 0.05 0 0 0.055 0 0 0.06 0 0 0.065 0 0 0.07 0 0 0.075 0 0 0 0.000666667 0 0.005 0.000666667 0 0.01 0.000666667 0 0.015 0.000666667 0 0.02 0.000666667 0 0.025 0.000666667 0 0.03 0.000666667 0 0.035 0.000666667 0 0.04 0.000666667 0 0.045 0.000666667 0 0.05 0.000666667 0 0.055 0.000666667 0 0.06 0.000666667 0 0.065 0.000666667 0 0.07 0.000666667 0 0.075 0.000666667 0 0 0.00133333 0 0.005 0.00133333 0 0.01 0.00133333 0 0.015 0.00133333 0 0.02 0.00133333 0 0.025 0.00133333 0 0.03 0.00133333 0 0.035 0.00133333 0 0.04 0.00133333 0 0.045 0.00133333 0 0.05 0.00133333 0 0.055 0.00133333 0 0.06 0.00133333 0 0.065 0.00133333 0 0.07 0.00133333 0 0.075 0.00133333 0 0 0.002 0 0.005 0.002 0 0.01 0.002 0 0.015 0.002 0 0.02 0.002 0 0.025 0.002 0 0.03 0.002 0 0.035 0.002 0 0.04 0.002 0 0.045 0.002 0 0.05 0.002 0 0.055 0.002 0 0.06 0.002 0 0.065 0.002 0 0.07 0.002 0 0.075 0.002 0 0 0.00266667 0 0.005 0.00266667 0 0.01 0.00266667 0 0.015 0.00266667 0 0.02 0.00266667 0 0.025 0.00266667 0 0.03 0.00266667 0 0.035 0.00266667 0 0.04 0.00266667 0 0.045 0.00266667 0 0.05 0.00266667 0 0.055 0.00266667 0 0.06 0.00266667 0 0.065 0.00266667 0 0.07 0.00266667 0 0.075 0.00266667 0 0 0.00333333 0 0.005 0.00333333 0 0.01 0.00333333 0 0.015 0.00333333 0 0.02 0.00333333 0 0.025 0.00333333 0 0.03 0.00333333 0 0.035 0.00333333 0 0.04 0.00333333 0 0.045 0.00333333 0 0.05 0.00333333 0 0.055 0.00333333 0 0.06 0.00333333 0 0.065 0.00333333 0 0.07 0.00333333 0 0.075 0.00333333 0 0 0.004 0 0.005 0.004 0 0.01 0.004 0 0.015 0.004 0 0.02 0.004 0 0.025 0.004 0 0.03 0.004 0 0.035 0.004 0 0.04 0.004 0 0.045 0.004 0 0.05 0.004 0 0.055 0.004 0 0.06 0.004 0 0.065 0.004 0 0.07 0.004 0 0.075 0.004 0 0 0.00466667 0 0.005 0.00466667 0 0.01 0.00466667 0 0.015 0.00466667 0 0.02 0.00466667 0 0.025 0.00466667 0 0.03 0.00466667 0 0.035 0.00466667 0 0.04 0.00466667 0 0.045 0.00466667 0 0.05 0.00466667 0 0.055 0.00466667 0 0.06 0.00466667 0 0.065 0.00466667 0 0.07 0.00466667 0 0.075 0.00466667 0 0 0.00533333 0 0.005 0.00533333 0 0.01 0.00533333 0 0.015 0.00533333 0 0.02 0.00533333 0 0.025 0.00533333 0 0.03 0.00533333 0 0.035 0.00533333 0 0.04 0.00533333 0 0.045 0.00533333 0 0.05 0.00533333 0 0.055 0.00533333 0 0.06 0.00533333 0 0.065 0.00533333 0 0.07 0.00533333 0 0.075 0.00533333 0 0 0.006 0 0.005 0.006 0 0.01 0.006 0 0.015 0.006 0 0.02 0.006 0 0.025 0.006 0 0.03 0.006 0 0.035 0.006 0 0.04 0.006 0 0.045 0.006 0 0.05 0.006 0 0.055 0.006 0 0.06 0.006 0 0.065 0.006 0 0.07 0.006 0 0.075 0.006 0 0 0.00666667 0 0.005 0.00666667 0 0.01 0.00666667 0 0.015 0.00666667 0 0.02 0.00666667 0 0.025 0.00666667 0 0.03 0.00666667 0 0.035 0.00666667 0 0.04 0.00666667 0 0.045 0.00666667 0 0.05 0.00666667 0 0.055 0.00666667 0 0.06 0.00666667 0 0.065 0.00666667 0 0.07 0.00666667 0 0.075 0.00666667 0 0 0.00733333 0 0.005 0.00733333 0 0.01 0.00733333 0 0.015 0.00733333 0 0.02 0.00733333 0 0.025 0.00733333 0 0.03 0.00733333 0 0.035 0.00733333 0 0.04 0.00733333 0 0.045 0.00733333 0 0.05 0.00733333 0 0.055 0.00733333 0 0.06 0.00733333 0 0.065 0.00733333 0 0.07 0.00733333 0 0.075 0.00733333 0 0 0.008 0 0.005 0.008 0 0.01 0.008 0 0.015 0.008 0 0.02 0.008 0 0.025 0.008 0 0.03 0.008 0 0.035 0.008 0 0.04 0.008 0 0.045 0.008 0 0.05 0.008 0 0.055 0.008 0 0.06 0.008 0 0.065 0.008 0 0.07 0.008 0 0.075 0.008 0 0 0.00866667 0 0.005 0.00866667 0 0.01 0.00866667 0 0.015 0.00866667 0 0.02 0.00866667 0 0.025 0.00866667 0 0.03 0.00866667 0 0.035 0.00866667 0 0.04 0.00866667 0 0.045 0.00866667 0 0.05 0.00866667 0 0.055 0.00866667 0 0.06 0.00866667 0 0.065 0.00866667 0 0.07 0.00866667 0 0.075 0.00866667 0 0 0.00933333 0 0.005 0.00933333 0 0.01 0.00933333 0 0.015 0.00933333 0 0.02 0.00933333 0 0.025 0.00933333 0 0.03 0.00933333 0 0.035 0.00933333 0 0.04 0.00933333 0 0.045 0.00933333 0 0.05 0.00933333 0 0.055 0.00933333 0 0.06 0.00933333 0 0.065 0.00933333 0 0.07 0.00933333 0 0.075 0.00933333 0 0 0.01 0 0.005 0.01 0 0.01 0.01 0 0.015 0.01 0 0.02 0.01 0 0.025 0.01 0 0.03 0.01 0 0.035 0.01 0 0.04 0.01 0 0.045 0.01 0 0.05 0.01 0 0.055 0.01 0 0.06 0.01 0 0.065 0.01 0 0.07 0.01 0 0.075 0.01 0 
</DataArray>
</Points> 
</Piece> 
</StructuredGrid> 
</VTKFile> 
