<?xml version="1.0"?> 
<VTKFile type="StructuredGrid" version="0.1"> 
<StructuredGrid WholeExtent="0 15 0 15 0 0"> 
<Piece Extent="0 15 0 15 0 0"> 
<PointData>
<DataArray type="Float32" Name="|E|" format="ascii" NumberOfComponents="3"> 
-1.66457e+06 0 0 -1.67091e+06 126990 0 -1.68983e+06 255882 0 -1.72102e+06 388622 0 -1.76382e+06 527259 0 -1.81698e+06 673994 0 -1.87824e+06 830743 0 -1.94334e+06 999595 0 -2.0054e+06 1.17833e+06 0 -2.05263e+06 1.3627e+06 0 -2.07564e+06 1.52362e+06 0 -2.07677e+06 1.6227e+06 0 -2.10359e+06 1.60086e+06 0 -2.24441e+06 1.37932e+06 0 -2.47201e+06 1.07816e+06 0 -3.78867e+06 2.08837e+06 0 -1.65098e+06 0 0 -1.65595e+06 125658 0 -1.67274e+06 253261 0 -1.701e+06 384601 0 -1.74011e+06 521520 0 -1.78884e+06 665954 0 -1.84531e+06 819544 0 -1.90567e+06 983786 0 -1.96492e+06 1.15713e+06 0 -2.01326e+06 1.33452e+06 0 -2.04577e+06 1.4972e+06 0 -2.06161e+06 1.60845e+06 0 -2.10273e+06 1.63426e+06 0 -2.22752e+06 1.50009e+06 0 -2.51709e+06 1.24803e+06 0 -2.83634e+06 786562 0 -1.63725e+06 0 0 -1.64085e+06 124241 0 -1.65554e+06 250466 0 -1.68094e+06 380316 0 -1.71646e+06 515447 0 -1.76093e+06 657569 0 -1.81275e+06 808064 0 -1.86856e+06 968079 0 -1.92459e+06 1.1363e+06 0 -1.97309e+06 1.30828e+06 0 -2.01134e+06 1.47001e+06 0 -2.03844e+06 1.59391e+06 0 -2.08747e+06 1.65028e+06 0 -2.20475e+06 1.59484e+06 0 -2.48154e+06 1.41701e+06 0 -2.90134e+06 948002 0 -1.62339e+06 0 0 -1.62561e+06 122741 0 -1.63821e+06 247500 0 -1.66082e+06 375773 0 -1.69285e+06 509051 0 -1.73323e+06 648838 0 -1.78055e+06 796306 0 -1.83193e+06 952350 0 -1.88449e+06 1.11584e+06 0 -1.93224e+06 1.28305e+06 0 -1.97364e+06 1.44329e+06 0 -2.00851e+06 1.57622e+06 0 -2.06173e+06 1.65756e+06 0 -2.17217e+06 1.65872e+06 0 -2.41759e+06 1.56289e+06 0 -2.86952e+06 1.30462e+06 0 -1.60938e+06 0 0 -1.61022e+06 121162 0 -1.62077e+06 244366 0 -1.64065e+06 370980 0 -1.6693e+06 502337 0 -1.70572e+06 639765 0 -1.74867e+06 784264 0 -1.79575e+06 936529 0 -1.84465e+06 1.09563e+06 0 -1.8909e+06 1.25847e+06 0 -1.93351e+06 1.41691e+06 0 -1.97318e+06 1.556e+06 0 -2.02813e+06 1.65672e+06 0 -2.13064e+06 1.70013e+06 0 -2.34234e+06 1.67354e+06 0 -2.75158e+06 1.55639e+06 0 -1.59524e+06 0 0 -1.59469e+06 119503 0 -1.60322e+06 241069 0 -1.62043e+06 365941 0 -1.64578e+06 495314 0 -1.67837e+06 630355 0 -1.71711e+06 771925 0 -1.75998e+06 920574 0 -1.8051e+06 1.07554e+06 0 -1.84922e+06 1.23433e+06 0 -1.89163e+06 1.39066e+06 0 -1.93366e+06 1.53373e+06 0 -1.98853e+06 1.64896e+06 0 -2.08242e+06 1.72366e+06 0 -2.2622e+06 1.75057e+06 0 -2.60553e+06 1.73319e+06 0 -1.58097e+06 0 0 -1.57903e+06 117768 0 -1.58555e+06 237613 0 -1.60015e+06 360663 0 -1.6223e+06 487988 0 -1.65119e+06 620612 0 -1.68583e+06 759281 0 -1.72457e+06 904440 0 -1.76585e+06 1.05547e+06 0 -1.80734e+06 1.2104e+06 0 -1.84851e+06 1.36443e+06 0 -1.89097e+06 1.50968e+06 0 -1.94444e+06 1.63551e+06 0 -2.02938e+06 1.73299e+06 0 -2.18127e+06 1.79921e+06 0 -2.4577e+06 1.84487e+06 0 -1.56657e+06 0 0 -1.56322e+06 115958 0 -1.56776e+06 234002 0 -1.57981e+06 355152 0 -1.59885e+06 480365 0 -1.62415e+06 610540 0 -1.65482e+06 746327 0 -1.68951e+06 888091 0 -1.72693e+06 1.03535e+06 0 -1.7654e+06 1.18655e+06 0 -1.80453e+06 1.33807e+06 0 -1.84599e+06 1.48418e+06 0 -1.89698e+06 1.61724e+06 0 -1.97314e+06 1.73117e+06 0 -2.10093e+06 1.82532e+06 0 -2.32207e+06 1.91203e+06 0 -1.55204e+06 0 0 -1.54729e+06 114073 0 -1.54987e+06 230238 0 -1.55941e+06 349412 0 -1.57543e+06 472451 0 -1.59724e+06 600142 0 -1.62406e+06 733055 0 -1.65479e+06 871498 0 -1.68832e+06 1.0151e+06 0 -1.72348e+06 1.16267e+06 0 -1.76e+06 1.31149e+06 0 -1.79939e+06 1.45741e+06 0 -1.84709e+06 1.59508e+06 0 -1.91483e+06 1.72039e+06 0 -2.02212e+06 1.83398e+06 0 -2.19826e+06 1.94734e+06 0 -1.53738e+06 0 0 -1.53122e+06 112118 0 -1.53187e+06 226326 0 -1.53895e+06 343450 0 -1.55202e+06 464252 0 -1.57045e+06 589423 0 -1.59354e+06 719463 0 -1.62038e+06 854636 0 -1.65004e+06 994679 0 -1.68169e+06 1.13867e+06 0 -1.71515e+06 1.28462e+06 0 -1.75172e+06 1.42953e+06 0 -1.79554e+06 1.56973e+06 0 -1.85528e+06 1.70254e+06 0 -1.94519e+06 1.82916e+06 0 -2.08564e+06 1.95917e+06 0 -1.52259e+06 0 0 -1.51502e+06 110092 0 -1.51376e+06 222269 0 -1.51844e+06 337271 0 -1.52863e+06 455775 0 -1.54378e+06 578386 0 -1.56324e+06 705546 0 -1.58627e+06 837486 0 -1.6121e+06 974028 0 -1.6401e+06 1.11448e+06 0 -1.67017e+06 1.25739e+06 0 -1.7034e+06 1.40065e+06 0 -1.74293e+06 1.54175e+06 0 -1.79511e+06 1.67908e+06 0 -1.87022e+06 1.81398e+06 0 -1.98245e+06 1.95422e+06 0 -1.50769e+06 0 0 -1.4987e+06 107997 0 -1.49554e+06 218071 0 -1.49786e+06 330880 0 -1.50525e+06 447025 0 -1.5172e+06 567036 0 -1.53315e+06 691302 0 -1.55245e+06 820032 0 -1.57448e+06 953115 0 -1.59875e+06 1.09004e+06 0 -1.62523e+06 1.22979e+06 0 -1.65476e+06 1.37086e+06 0 -1.68974e+06 1.51163e+06 0 -1.73478e+06 1.65117e+06 0 -1.79723e+06 1.79082e+06 0 -1.88685e+06 1.93666e+06 0 -1.49266e+06 0 0 -1.48225e+06 105836 0 -1.47721e+06 213735 0 -1.47722e+06 324281 0 -1.48187e+06 438007 0 -1.49072e+06 555375 0 -1.50325e+06 676731 0 -1.51891e+06 802262 0 -1.53719e+06 931911 0 -1.5577e+06 1.06532e+06 0 -1.58043e+06 1.20177e+06 0 -1.60605e+06 1.34025e+06 0 -1.63633e+06 1.47971e+06 0 -1.67463e+06 1.61971e+06 0 -1.72613e+06 1.7615e+06 0 -1.79752e+06 1.90974e+06 0 -1.47751e+06 0 0 -1.46567e+06 103609 0 -1.45878e+06 209263 0 -1.45651e+06 317480 0 -1.4585e+06 428727 0 -1.46433e+06 543410 0 -1.47353e+06 661831 0 -1.48564e+06 784164 0 -1.50023e+06 910394 0 -1.51698e+06 1.04028e+06 0 -1.53589e+06 1.17333e+06 0 -1.55745e+06 1.30888e+06 0 -1.583e+06 1.44629e+06 0 -1.61492e+06 1.58543e+06 0 -1.65685e+06 1.72742e+06 0 -1.71332e+06 1.87581e+06 0 -1.46225e+06 0 0 -1.44898e+06 101318 0 -1.44025e+06 204660 0 -1.43575e+06 310481 0 -1.43513e+06 419191 0 -1.43801e+06 531143 0 -1.44398e+06 646603 0 -1.45264e+06 765733 0 -1.4636e+06 888546 0 -1.47662e+06 1.01489e+06 0 -1.49167e+06 1.14445e+06 0 -1.50913e+06 1.2768e+06 0 -1.52995e+06 1.41159e+06 0 -1.55584e+06 1.54888e+06 0 -1.58931e+06 1.68963e+06 0 -1.63339e+06 1.83655e+06 0 -1.44687e+06 0 0 -1.43216e+06 98965.1 0 -1.42161e+06 199928 0 -1.41492e+06 303289 0 -1.41175e+06 409404 0 -1.41177e+06 518579 0 -1.4146e+06 631049 0 -1.41988e+06 746962 0 -1.42729e+06 866355 0 -1.43662e+06 989142 0 -1.44783e+06 1.11513e+06 0 -1.46118e+06 1.24407e+06 0 -1.47735e+06 1.3758e+06 0 -1.49754e+06 1.51048e+06 0 -1.52344e+06 1.64895e+06 0 -1.55706e+06 1.79324e+06 0 </DataArray> 
</PointData> 
<Points> 
<DataArray type="Float32" NumberOfComponents="3"> 
0 0.045 0 0.00666667 0.045 0 0.0133333 0.045 0 0.02 0.045 0 0.0266667 0.045 0 0.0333333 0.045 0 0.04 0.045 0 0.0466667 0.045 0 0.0533333 0.045 0 0.06 0.045 0 0.0666667 0.045 0 0.0733333 0.045 0 0.08 0.045 0 0.0866667 0.045 0 0.0933333 0.045 0 0.1 0.045 0 0 0.0457111 0 0.00652356 0.045763 0 0.0130471 0.0458148 0 0.0195707 0.0458667 0 0.0260942 0.0459185 0 0.0326178 0.0459704 0 0.0391413 0.0460222 0 0.0456649 0.0460741 0 0.0521884 0.0461259 0 0.058712 0.0461778 0 0.0652356 0.0462296 0 0.0717591 0.0462815 0 0.0782827 0.0463333 0 0.0848062 0.0463852 0 0.0913298 0.046437 0 0.0978533 0.0464889 0 0 0.0464222 0 0.00638044 0.0465259 0 0.0127609 0.0466296 0 0.0191413 0.0467333 0 0.0255218 0.046837 0 0.0319022 0.0469407 0 0.0382827 0.0470444 0 0.0446631 0.0471481 0 0.0510436 0.0472519 0 0.057424 0.0473556 0 0.0638044 0.0474593 0 0.0701849 0.047563 0 0.0765653 0.0476667 0 0.0829458 0.0477704 0 0.0893262 0.0478741 0 0.0957067 0.0479778 0 0 0.0471333 0 0.00623733 0.0472889 0 0.0124747 0.0474444 0 0.018712 0.0476 0 0.0249493 0.0477556 0 0.0311867 0.0479111 0 0.037424 0.0480667 0 0.0436613 0.0482222 0 0.0498987 0.0483778 0 0.056136 0.0485333 0 0.0623733 0.0486889 0 0.0686107 0.0488444 0 0.074848 0.049 0 0.0810853 0.0491556 0 0.0873227 0.0493111 0 0.09356 0.0494667 0 0 0.0478444 0 0.00609422 0.0480519 0 0.0121884 0.0482593 0 0.0182827 0.0484667 0 0.0243769 0.0486741 0 0.0304711 0.0488815 0 0.0365653 0.0490889 0 0.0426596 0.0492963 0 0.0487538 0.0495037 0 0.054848 0.0497111 0 0.0609422 0.0499185 0 0.0670364 0.0501259 0 0.0731307 0.0503333 0 0.0792249 0.0505407 0 0.0853191 0.0507481 0 0.0914133 0.0509556 0 0 0.0485556 0 0.00595111 0.0488148 0 0.0119022 0.0490741 0 0.0178533 0.0493333 0 0.0238044 0.0495926 0 0.0297556 0.0498519 0 0.0357067 0.0501111 0 0.0416578 0.0503704 0 0.0476089 0.0506296 0 0.05356 0.0508889 0 0.0595111 0.0511481 0 0.0654622 0.0514074 0 0.0714133 0.0516667 0 0.0773644 0.0519259 0 0.0833156 0.0521852 0 0.0892667 0.0524444 0 0 0.0492667 0 0.005808 0.0495778 0 0.011616 0.0498889 0 0.017424 0.0502 0 0.023232 0.0505111 0 0.02904 0.0508222 0 0.034848 0.0511333 0 0.040656 0.0514444 0 0.046464 0.0517556 0 0.052272 0.0520667 0 0.05808 0.0523778 0 0.063888 0.0526889 0 0.069696 0.053 0 0.075504 0.0533111 0 0.081312 0.0536222 0 0.08712 0.0539333 0 0 0.0499778 0 0.00566489 0.0503407 0 0.0113298 0.0507037 0 0.0169947 0.0510667 0 0.0226596 0.0514296 0 0.0283244 0.0517926 0 0.0339893 0.0521556 0 0.0396542 0.0525185 0 0.0453191 0.0528815 0 0.050984 0.0532444 0 0.0566489 0.0536074 0 0.0623138 0.0539704 0 0.0679787 0.0543333 0 0.0736436 0.0546963 0 0.0793084 0.0550593 0 0.0849733 0.0554222 0 0 0.0506889 0 0.00552178 0.0511037 0 0.0110436 0.0515185 0 0.0165653 0.0519333 0 0.0220871 0.0523481 0 0.0276089 0.052763 0 0.0331307 0.0531778 0 0.0386524 0.0535926 0 0.0441742 0.0540074 0 0.049696 0.0544222 0 0.0552178 0.054837 0 0.0607396 0.0552519 0 0.0662613 0.0556667 0 0.0717831 0.0560815 0 0.0773049 0.0564963 0 0.0828267 0.0569111 0 0 0.0514 0 0.00537867 0.0518667 0 0.0107573 0.0523333 0 0.016136 0.0528 0 0.0215147 0.0532667 0 0.0268933 0.0537333 0 0.032272 0.0542 0 0.0376507 0.0546667 0 0.0430293 0.0551333 0 0.048408 0.0556 0 0.0537867 0.0560667 0 0.0591653 0.0565333 0 0.064544 0.057 0 0.0699227 0.0574667 0 0.0753013 0.0579333 0 0.08068 0.0584 0 0 0.0521111 0 0.00523556 0.0526296 0 0.0104711 0.0531481 0 0.0157067 0.0536667 0 0.0209422 0.0541852 0 0.0261778 0.0547037 0 0.0314133 0.0552222 0 0.0366489 0.0557407 0 0.0418844 0.0562593 0 0.04712 0.0567778 0 0.0523556 0.0572963 0 0.0575911 0.0578148 0 0.0628267 0.0583333 0 0.0680622 0.0588519 0 0.0732978 0.0593704 0 0.0785333 0.0598889 0 0 0.0528222 0 0.00509244 0.0533926 0 0.0101849 0.053963 0 0.0152773 0.0545333 0 0.0203698 0.0551037 0 0.0254622 0.0556741 0 0.0305547 0.0562444 0 0.0356471 0.0568148 0 0.0407396 0.0573852 0 0.045832 0.0579556 0 0.0509244 0.0585259 0 0.0560169 0.0590963 0 0.0611093 0.0596667 0 0.0662018 0.060237 0 0.0712942 0.0608074 0 0.0763867 0.0613778 0 0 0.0535333 0 0.00494933 0.0541556 0 0.00989867 0.0547778 0 0.014848 0.0554 0 0.0197973 0.0560222 0 0.0247467 0.0566444 0 0.029696 0.0572667 0 0.0346453 0.0578889 0 0.0395947 0.0585111 0 0.044544 0.0591333 0 0.0494933 0.0597556 0 0.0544427 0.0603778 0 0.059392 0.061 0 0.0643413 0.0616222 0 0.0692907 0.0622444 0 0.07424 0.0628667 0 0 0.0542444 0 0.00480622 0.0549185 0 0.00961244 0.0555926 0 0.0144187 0.0562667 0 0.0192249 0.0569407 0 0.0240311 0.0576148 0 0.0288373 0.0582889 0 0.0336436 0.058963 0 0.0384498 0.059637 0 0.043256 0.0603111 0 0.0480622 0.0609852 0 0.0528684 0.0616593 0 0.0576747 0.0623333 0 0.0624809 0.0630074 0 0.0672871 0.0636815 0 0.0720933 0.0643556 0 0 0.0549556 0 0.00466311 0.0556815 0 0.00932622 0.0564074 0 0.0139893 0.0571333 0 0.0186524 0.0578593 0 0.0233156 0.0585852 0 0.0279787 0.0593111 0 0.0326418 0.060037 0 0.0373049 0.060763 0 0.041968 0.0614889 0 0.0466311 0.0622148 0 0.0512942 0.0629407 0 0.0559573 0.0636667 0 0.0606204 0.0643926 0 0.0652836 0.0651185 0 0.0699467 0.0658444 0 0 0.0556667 0 0.00452 0.0564444 0 0.00904 0.0572222 0 0.01356 0.058 0 0.01808 0.0587778 0 0.0226 0.0595556 0 0.02712 0.0603333 0 0.03164 0.0611111 0 0.03616 0.0618889 0 0.04068 0.0626667 0 0.0452 0.0634444 0 0.04972 0.0642222 0 0.05424 0.065 0 0.05876 0.0657778 0 0.06328 0.0665556 0 0.0678 0.0673333 0 
</DataArray>
</Points> 
</Piece> 
</StructuredGrid> 
</VTKFile> 
