<?xml version="1.0"?> 
<VTKFile type="StructuredGrid" version="0.1"> 
<StructuredGrid WholeExtent="0 15 0 15 0 0"> 
<Piece Extent="0 15 0 15 0 0"> 
<PointData>
<DataArray type="Float32" Name="|E|" format="ascii" NumberOfComponents="3"> 
1.70476e+06 -679989 0 1.9713e+06 -278718 0 1.96419e+06 60278.8 0 1.79172e+06 236105 0 1.58201e+06 296138 0 1.38021e+06 297490 0 1.1999e+06 273269 0 1.04382e+06 239531 0 911744 203574 0 802060 168603 0 712979 135769 0 642707 105303 0 589712 76973.5 0 552752 50342.9 0 530937 24876.8 0 523726 0 0 1.755e+06 -700027 0 2.0174e+06 -275226 0 1.98584e+06 82670.8 0 1.79566e+06 260324 0 1.57801e+06 318015 0 1.37344e+06 316287 0 1.19268e+06 289328 0 1.03709e+06 253091 0 905827 214901 0 796990 177908 0 708678 143238 0 639044 111092 0 586542 81206.6 0 549931 53113.2 0 528323 26246.6 0 521181 0 0 1.80692e+06 -720739 0 2.06573e+06 -268411 0 2.00749e+06 107781 0 1.79901e+06 285725 0 1.57354e+06 340332 0 1.36632e+06 335168 0 1.18517e+06 305351 0 1.03012e+06 266561 0 899697 226132 0 791729 187123 0 704200 150633 0 635216 116822 0 583218 85396.5 0 546962 55855.4 0 525565 27602.3 0 518493 0 0 1.86106e+06 -742331 0 2.11641e+06 -257904 0 2.02889e+06 135681 0 1.80168e+06 312281 0 1.56854e+06 363061 0 1.35882e+06 354118 0 1.17738e+06 321330 0 1.02291e+06 279936 0 893354 237264 0 786276 196247 0 699547 157951 0 631224 122492 0 579739 89542.2 0 543845 58568.7 0 522663 28943.9 0 515663 0 0 1.91803e+06 -765059 0 2.16957e+06 -243239 0 2.04976e+06 166412 0 1.80355e+06 339958 0 1.56297e+06 386165 0 1.35094e+06 373121 0 1.16928e+06 337258 0 1.01546e+06 293211 0 886797 248295 0 780632 205277 0 694718 165192 0 627069 128100 0 576107 93642.7 0 540582 61252.5 0 519619 30270.9 0 512691 0 0 1.97868e+06 -789249 0 2.22525e+06 -223841 0 2.0698e+06 199972 0 1.80451e+06 368722 0 1.55678e+06 409600 0 1.34267e+06 392162 0 1.16087e+06 353123 0 1.00776e+06 306380 0 880025 259222 0 774798 214211 0 689714 172352 0 622754 133645 0 572322 97697.3 0 537172 63906.4 0 516432 31583.1 0 509578 0 0 2.04407e+06 -815332 0 2.28347e+06 -199023 0 2.08866e+06 236309 0 1.80446e+06 398542 0 1.54992e+06 433305 0 1.33398e+06 411231 0 1.15215e+06 368913 0 999819 319440 0 873037 270041 0 768776 223047 0 684536 179432 0 618277 139127 0 568386 101705 0 533618 66529.6 0 513104 32880.1 0 506325 0 0 2.11566e+06 -843888 0 2.34413e+06 -167983 0 2.10598e+06 275309 0 1.8033e+06 429392 0 1.54238e+06 457211 0 1.32486e+06 430320 0 1.14311e+06 384611 0 991632 332389 0 865833 280747 0 762566 231783 0 679185 186429 0 613641 144543 0 564298 105665 0 529919 69121.6 0 509636 34161.7 0 502933 0 0 2.19548e+06 -875725 0 2.40696e+06 -129821 0 2.12137e+06 316791 0 1.80094e+06 461253 0 1.5341e+06 481230 0 1.31531e+06 449429 0 1.13374e+06 400198 0 983198 345223 0 858413 291337 0 756170 240418 0 673662 193341 0 608847 149892 0 560061 109576 0 526077 71681.7 0 506027 35427.5 0 499402 0 0 2.2864e+06 -911991 0 2.47152e+06 -83571.7 0 2.13441e+06 360521 0 1.79729e+06 494102 0 1.52509e+06 505264 0 1.3053e+06 468565 0 1.12405e+06 415648 0 974515 357945 0 850780 301802 0 749588 248949 0 667968 200166 0 603896 155175 0 555675 113437 0 522093 74209.5 0 502280 36677.3 0 495734 0 0 2.39259e+06 -954349 0 2.537e+06 -28281.3 0 2.14473e+06 406239 0 1.79227e+06 527898 0 1.51533e+06 529213 0 1.29481e+06 487736 0 1.11404e+06 430933 0 965576 370557 0 842936 312136 0 742819 257377 0 662105 206902 0 598788 160388 0 551141 117248 0 517967 76704.1 0 498395 37910.9 0 491929 0 0 2.52019e+06 -1.00525e+06 0 2.60217e+06 36842.6 0 2.15198e+06 453752 0 1.78581e+06 562527 0 1.50482e+06 553005 0 1.28382e+06 506938 0 1.10372e+06 446027 0 956375 383060 0 834886 322332 0 735863 265700 0 656076 213547 0 593525 165531 0 546461 121007 0 513701 79164.9 0 494374 39128.1 0 487988 0 0 2.67831e+06 -1.06831e+06 0 2.66512e+06 112171 0 2.1559e+06 503093 0 1.77781e+06 597703 0 1.49359e+06 576647 0 1.27231e+06 526131 0 1.09311e+06 460923 0 946902 395449 0 826639 332383 0 728718 273917 0 649883 220099 0 588106 170604 0 541636 124715 0 509295 81591.2 0 490216 40328.9 0 483912 0 0 2.88061e+06 -1.14901e+06 0 2.72299e+06 197204 0 2.15639e+06 554837 0 1.7682e+06 632772 0 1.48165e+06 600349 0 1.26026e+06 545171 0 1.08221e+06 475660 0 937150 407697 0 818199 342296 0 721381 282022 0 643530 226556 0 582532 175603 0 536669 128369 0 504750 83982.5 0 485923 41512.8 0 479703 0 0 3.14774e+06 -1.25556e+06 0 2.7716e+06 289797 0 2.15357e+06 610662 0 1.75695e+06 666349 0 1.46898e+06 624732 0 1.24767e+06 563693 0 1.07102e+06 490392 0 927126 419724 0 809566 352097 0 713856 290002 0 637019 232921 0 576805 180529 0 531559 131970 0 500068 86338.8 0 481497 42679 0 475362 0 0 3.51103e+06 -1.40047e+06 0 2.80483e+06 385073 0 2.14782e+06 674221 0 1.74409e+06 695750 0 1.45545e+06 651192 0 1.23468e+06 580904 0 1.05946e+06 505493 0 916880 431339 0 800713 361862 0 706160 297822 0 630342 239202 0 570930 185378 0 526308 135513 0 495250 88662.1 0 476938 43824.8 0 470889 0 0 </DataArray> 
</PointData> 
<Points> 
<DataArray type="Float32" NumberOfComponents="3"> 
0.1947 0.02 0 0.206587 0.02 0 0.218473 0.02 0 0.23036 0.02 0 0.242247 0.02 0 0.254133 0.02 0 0.26602 0.02 0 0.277907 0.02 0 0.289793 0.02 0 0.30168 0.02 0 0.313567 0.02 0 0.325453 0.02 0 0.33734 0.02 0 0.349227 0.02 0 0.361113 0.02 0 0.373 0.02 0 0.195173 0.0211867 0 0.207028 0.0211867 0 0.218884 0.0211867 0 0.230739 0.0211867 0 0.242594 0.0211867 0 0.254449 0.0211867 0 0.266304 0.0211867 0 0.278159 0.0211867 0 0.290014 0.0211867 0 0.301869 0.0211867 0 0.313724 0.0211867 0 0.32558 0.0211867 0 0.337435 0.0211867 0 0.34929 0.0211867 0 0.361145 0.0211867 0 0.373 0.0211867 0 0.195647 0.0223733 0 0.20747 0.0223733 0 0.219294 0.0223733 0 0.231117 0.0223733 0 0.242941 0.0223733 0 0.254764 0.0223733 0 0.266588 0.0223733 0 0.278412 0.0223733 0 0.290235 0.0223733 0 0.302059 0.0223733 0 0.313882 0.0223733 0 0.325706 0.0223733 0 0.337529 0.0223733 0 0.349353 0.0223733 0 0.361176 0.0223733 0 0.373 0.0223733 0 0.19612 0.02356 0 0.207912 0.02356 0 0.219704 0.02356 0 0.231496 0.02356 0 0.243288 0.02356 0 0.25508 0.02356 0 0.266872 0.02356 0 0.278664 0.02356 0 0.290456 0.02356 0 0.302248 0.02356 0 0.31404 0.02356 0 0.325832 0.02356 0 0.337624 0.02356 0 0.349416 0.02356 0 0.361208 0.02356 0 0.373 0.02356 0 0.196593 0.0247467 0 0.208354 0.0247467 0 0.220114 0.0247467 0 0.231875 0.0247467 0 0.243635 0.0247467 0 0.255396 0.0247467 0 0.267156 0.0247467 0 0.278916 0.0247467 0 0.290677 0.0247467 0 0.302437 0.0247467 0 0.314198 0.0247467 0 0.325958 0.0247467 0 0.337719 0.0247467 0 0.349479 0.0247467 0 0.36124 0.0247467 0 0.373 0.0247467 0 0.197067 0.0259333 0 0.208796 0.0259333 0 0.220524 0.0259333 0 0.232253 0.0259333 0 0.243982 0.0259333 0 0.255711 0.0259333 0 0.26744 0.0259333 0 0.279169 0.0259333 0 0.290898 0.0259333 0 0.302627 0.0259333 0 0.314356 0.0259333 0 0.326084 0.0259333 0 0.337813 0.0259333 0 0.349542 0.0259333 0 0.361271 0.0259333 0 0.373 0.0259333 0 0.19754 0.02712 0 0.209237 0.02712 0 0.220935 0.02712 0 0.232632 0.02712 0 0.244329 0.02712 0 0.256027 0.02712 0 0.267724 0.02712 0 0.279421 0.02712 0 0.291119 0.02712 0 0.302816 0.02712 0 0.314513 0.02712 0 0.326211 0.02712 0 0.337908 0.02712 0 0.349605 0.02712 0 0.361303 0.02712 0 0.373 0.02712 0 0.198013 0.0283067 0 0.209679 0.0283067 0 0.221345 0.0283067 0 0.233011 0.0283067 0 0.244676 0.0283067 0 0.256342 0.0283067 0 0.268008 0.0283067 0 0.279674 0.0283067 0 0.29134 0.0283067 0 0.303005 0.0283067 0 0.314671 0.0283067 0 0.326337 0.0283067 0 0.338003 0.0283067 0 0.349668 0.0283067 0 0.361334 0.0283067 0 0.373 0.0283067 0 0.198487 0.0294933 0 0.210121 0.0294933 0 0.221755 0.0294933 0 0.233389 0.0294933 0 0.245024 0.0294933 0 0.256658 0.0294933 0 0.268292 0.0294933 0 0.279926 0.0294933 0 0.29156 0.0294933 0 0.303195 0.0294933 0 0.314829 0.0294933 0 0.326463 0.0294933 0 0.338097 0.0294933 0 0.349732 0.0294933 0 0.361366 0.0294933 0 0.373 0.0294933 0 0.19896 0.03068 0 0.210563 0.03068 0 0.222165 0.03068 0 0.233768 0.03068 0 0.245371 0.03068 0 0.256973 0.03068 0 0.268576 0.03068 0 0.280179 0.03068 0 0.291781 0.03068 0 0.303384 0.03068 0 0.314987 0.03068 0 0.326589 0.03068 0 0.338192 0.03068 0 0.349795 0.03068 0 0.361397 0.03068 0 0.373 0.03068 0 0.199433 0.0318667 0 0.211004 0.0318667 0 0.222576 0.0318667 0 0.234147 0.0318667 0 0.245718 0.0318667 0 0.257289 0.0318667 0 0.26886 0.0318667 0 0.280431 0.0318667 0 0.292002 0.0318667 0 0.303573 0.0318667 0 0.315144 0.0318667 0 0.326716 0.0318667 0 0.338287 0.0318667 0 0.349858 0.0318667 0 0.361429 0.0318667 0 0.373 0.0318667 0 0.199907 0.0330533 0 0.211446 0.0330533 0 0.222986 0.0330533 0 0.234525 0.0330533 0 0.246065 0.0330533 0 0.257604 0.0330533 0 0.269144 0.0330533 0 0.280684 0.0330533 0 0.292223 0.0330533 0 0.303763 0.0330533 0 0.315302 0.0330533 0 0.326842 0.0330533 0 0.338381 0.0330533 0 0.349921 0.0330533 0 0.36146 0.0330533 0 0.373 0.0330533 0 0.20038 0.03424 0 0.211888 0.03424 0 0.223396 0.03424 0 0.234904 0.03424 0 0.246412 0.03424 0 0.25792 0.03424 0 0.269428 0.03424 0 0.280936 0.03424 0 0.292444 0.03424 0 0.303952 0.03424 0 0.31546 0.03424 0 0.326968 0.03424 0 0.338476 0.03424 0 0.349984 0.03424 0 0.361492 0.03424 0 0.373 0.03424 0 0.200853 0.0354267 0 0.21233 0.0354267 0 0.223806 0.0354267 0 0.235283 0.0354267 0 0.246759 0.0354267 0 0.258236 0.0354267 0 0.269712 0.0354267 0 0.281188 0.0354267 0 0.292665 0.0354267 0 0.304141 0.0354267 0 0.315618 0.0354267 0 0.327094 0.0354267 0 0.338571 0.0354267 0 0.350047 0.0354267 0 0.361524 0.0354267 0 0.373 0.0354267 0 0.201327 0.0366133 0 0.212772 0.0366133 0 0.224216 0.0366133 0 0.235661 0.0366133 0 0.247106 0.0366133 0 0.258551 0.0366133 0 0.269996 0.0366133 0 0.281441 0.0366133 0 0.292886 0.0366133 0 0.304331 0.0366133 0 0.315776 0.0366133 0 0.32722 0.0366133 0 0.338665 0.0366133 0 0.35011 0.0366133 0 0.361555 0.0366133 0 0.373 0.0366133 0 0.2018 0.0378 0 0.213213 0.0378 0 0.224627 0.0378 0 0.23604 0.0378 0 0.247453 0.0378 0 0.258867 0.0378 0 0.27028 0.0378 0 0.281693 0.0378 0 0.293107 0.0378 0 0.30452 0.0378 0 0.315933 0.0378 0 0.327347 0.0378 0 0.33876 0.0378 0 0.350173 0.0378 0 0.361587 0.0378 0 0.373 0.0378 0 
</DataArray>
</Points> 
</Piece> 
</StructuredGrid> 
</VTKFile> 
