<?xml version="1.0"?> 
<VTKFile type="StructuredGrid" version="0.1"> 
<StructuredGrid WholeExtent="0 15 0 15 0 0"> 
<Piece Extent="0 15 0 15 0 0"> 
<PointData>
<DataArray type="Float32" Name="|E|" format="ascii" NumberOfComponents="3"> 
-2.02298e+06 0 0 -2.02324e+06 10904.7 0 -2.024e+06 21816.5 0 -2.02526e+06 32742.2 0 -2.02703e+06 43689.1 0 -2.0293e+06 54664 0 -2.03209e+06 65673.9 0 -2.03538e+06 76727.8 0 -2.03919e+06 87835.3 0 -2.0435e+06 99000.2 0 -2.04833e+06 110219 0 -2.05368e+06 121494 0 -2.05955e+06 132839 0 -2.06595e+06 144283 0 -2.07286e+06 155881 0 -2.0803e+06 167664 0 -2.01325e+06 0 0 -2.01371e+06 15315.8 0 -2.01507e+06 30649.2 0 -2.01735e+06 46017.8 0 -2.02053e+06 61439.3 0 -2.02464e+06 76931.8 0 -2.02966e+06 92513.4 0 -2.0356e+06 108203 0 -2.04247e+06 124022 0 -2.05028e+06 139992 0 -2.05902e+06 156129 0 -2.0687e+06 172447 0 -2.07934e+06 188967 0 -2.09095e+06 205710 0 -2.10354e+06 222735 0 -2.11713e+06 240115 0 -2.00314e+06 0 0 -2.00385e+06 20026.4 0 -2.00598e+06 40088.7 0 -2.00955e+06 60223.3 0 -2.01454e+06 80466.8 0 -2.02097e+06 100857 0 -2.02885e+06 121433 0 -2.03818e+06 142235 0 -2.04898e+06 163305 0 -2.06125e+06 184680 0 -2.07502e+06 206405 0 -2.09031e+06 228538 0 -2.10713e+06 251147 0 -2.1255e+06 274308 0 -2.14543e+06 298075 0 -2.16694e+06 322441 0 -1.99264e+06 0 0 -1.99367e+06 25030.8 0 -1.99673e+06 50126.1 0 -2.00185e+06 75351.4 0 -2.00902e+06 100773 0 -2.01826e+06 126461 0 -2.02959e+06 152486 0 -2.04302e+06 178923 0 -2.05857e+06 205848 0 -2.07629e+06 233353 0 -2.09618e+06 261543 0 -2.11828e+06 290527 0 -2.14262e+06 320406 0 -2.16925e+06 351271 0 -2.19828e+06 383204 0 -2.22982e+06 416358 0 -1.98178e+06 0 0 -1.98316e+06 30323.2 0 -1.98731e+06 60752.3 0 -1.99423e+06 91394.9 0 -2.00393e+06 122362 0 -2.01645e+06 153768 0 -2.03179e+06 185735 0 -2.05e+06 218392 0 -2.07112e+06 251887 0 -2.09518e+06 286385 0 -2.12223e+06 322051 0 -2.15233e+06 359052 0 -2.1856e+06 397589 0 -2.22217e+06 437912 0 -2.26205e+06 480395 0 -2.30519e+06 525612 0 -1.97055e+06 0 0 -1.97234e+06 35897.8 0 -1.9777e+06 71958 0 -1.98666e+06 108346 0 -1.99924e+06 145235 0 -2.01546e+06 182804 0 -2.03537e+06 221249 0 -2.05901e+06 260787 0 -2.08643e+06 301661 0 -2.11771e+06 344128 0 -2.15294e+06 388472 0 -2.19226e+06 435071 0 -2.23578e+06 484405 0 -2.28346e+06 537098 0 -2.3354e+06 594005 0 -2.3923e+06 655732 0 -1.95895e+06 0 0 -1.96119e+06 41748.5 0 -1.96792e+06 83733.6 0 -1.97914e+06 126198 0 -1.9949e+06 169395 0 -2.01524e+06 213598 0 -2.04021e+06 259105 0 -2.06987e+06 306253 0 -2.10431e+06 355418 0 -2.14364e+06 407029 0 -2.188e+06 461645 0 -2.2375e+06 519979 0 -2.29205e+06 582881 0 -2.35207e+06 651476 0 -2.41843e+06 726761 0 -2.49094e+06 810338 0 -1.947e+06 0 0 -1.94974e+06 47869.1 0 -1.95794e+06 96069.3 0 -1.97164e+06 144942 0 -1.99087e+06 194847 0 -2.01571e+06 246179 0 -2.0462e+06 299378 0 -2.08244e+06 354944 0 -2.12454e+06 413469 0 -2.17263e+06 475675 0 -2.22681e+06 542536 0 -2.287e+06 615211 0 -2.35371e+06 695265 0 -2.42761e+06 784652 0 -2.50716e+06 886802 0 -2.59061e+06 1.00907e+06 0 -1.9347e+06 0 0 -1.93797e+06 54253.3 0 -1.94777e+06 108955 0 -1.96413e+06 164569 0 -1.98712e+06 221593 0 -2.01679e+06 280578 0 -2.05322e+06 342146 0 -2.09652e+06 407043 0 -2.14681e+06 476172 0 -2.20415e+06 550702 0 -2.26845e+06 632216 0 -2.34004e+06 722641 0 -2.41927e+06 825061 0 -2.50331e+06 944593 0 -2.59039e+06 1.09188e+06 0 -2.68056e+06 1.28382e+06 0 -1.92206e+06 0 0 -1.92589e+06 60895 0 -1.93739e+06 122380 0 -1.9566e+06 185072 0 -1.98358e+06 249636 0 -2.0184e+06 316819 0 -2.06113e+06 387496 0 -2.11188e+06 462748 0 -2.1707e+06 543895 0 -2.23743e+06 632841 0 -2.31208e+06 731937 0 -2.39467e+06 844911 0 -2.48152e+06 978443 0 -2.56928e+06 1.14423e+06 0 -2.65256e+06 1.35987e+06 0 -2.68567e+06 1.65379e+06 0 -1.90907e+06 0 0 -1.9135e+06 67787.3 0 -1.9268e+06 136334 0 -1.94902e+06 206439 0 -1.98022e+06 278974 0 -2.02045e+06 354931 0 -2.06976e+06 435520 0 -2.12825e+06 522235 0 -2.19564e+06 617085 0 -2.27165e+06 722841 0 -2.35604e+06 843362 0 -2.44477e+06 986345 0 -2.53185e+06 1.16271e+06 0 -2.607e+06 1.391e+06 0 -2.60506e+06 1.68501e+06 0 -2.40214e+06 2.00167e+06 0 -1.89574e+06 0 0 -1.90081e+06 74924.2 0 -1.916e+06 150806 0 -1.94138e+06 228661 0 -1.97698e+06 309605 0 -2.02282e+06 394944 0 -2.07895e+06 486287 0 -2.14522e+06 585737 0 -2.2209e+06 696140 0 -2.30572e+06 821450 0 -2.39584e+06 969194 0 -2.483e+06 1.14989e+06 0 -2.55396e+06 1.37899e+06 0 -2.54094e+06 1.67212e+06 0 -2.32029e+06 1.96726e+06 0 -1.88181e+06 2.03363e+06 0 -1.88209e+06 0 0 -1.88781e+06 82300.6 0 -1.90498e+06 165783 0 -1.93364e+06 251728 0 -1.97381e+06 341527 0 -2.02541e+06 436869 0 -2.08849e+06 539886 0 -2.16224e+06 653460 0 -2.24585e+06 781226 0 -2.3369e+06 930299 0 -2.42562e+06 1.11045e+06 0 -2.49839e+06 1.33351e+06 0 -2.49631e+06 1.61769e+06 0 -2.29915e+06 1.90543e+06 0 -1.90497e+06 1.9882e+06 0 -1.52379e+06 1.71602e+06 0 -1.86812e+06 0 0 -1.87452e+06 89907.4 0 -1.89373e+06 181255 0 -1.92579e+06 275628 0 -1.97062e+06 374730 0 -2.02814e+06 480720 0 -2.09805e+06 596439 0 -2.17884e+06 725313 0 -2.26926e+06 873154 0 -2.36093e+06 1.04994e+06 0 -2.43919e+06 1.26364e+06 0 -2.46155e+06 1.5326e+06 0 -2.31553e+06 1.82325e+06 0 -1.97101e+06 1.93469e+06 0 -1.60759e+06 1.69725e+06 0 -1.39265e+06 1.20507e+06 0 -1.85383e+06 0 0 -1.86093e+06 97732.3 0 -1.88225e+06 197217 0 -1.9178e+06 300339 0 -1.96737e+06 409200 0 -2.0309e+06 526545 0 -2.10722e+06 655870 0 -2.19466e+06 801436 0 -2.2886e+06 972712 0 -2.37407e+06 1.17714e+06 0 -2.42285e+06 1.42645e+06 0 -2.34338e+06 1.71765e+06 0 -2.06322e+06 1.88491e+06 0 -1.7171e+06 1.70913e+06 0 -1.49379e+06 1.22543e+06 0 -1.50024e+06 396463 0 -1.83921e+06 0 0 -1.84705e+06 105775 0 -1.87053e+06 213654 0 -1.90962e+06 325845 0 -1.96404e+06 444931 0 -2.03343e+06 574352 0 -2.11582e+06 717986 0 -2.20868e+06 882421 0 -2.30119e+06 1.07819e+06 0 -2.37138e+06 1.3083e+06 0 -2.3584e+06 1.58988e+06 0 -2.16267e+06 1.82306e+06 0 -1.84587e+06 1.74564e+06 0 -1.60726e+06 1.34348e+06 0 -1.60558e+06 676535 0 -1.79139e+06 162845 0 </DataArray> 
</PointData> 
<Points> 
<DataArray type="Float32" NumberOfComponents="3"> 
0 0.021 0 0.00106667 0.021 0 0.00213333 0.021 0 0.0032 0.021 0 0.00426667 0.021 0 0.00533333 0.021 0 0.0064 0.021 0 0.00746667 0.021 0 0.00853333 0.021 0 0.0096 0.021 0 0.0106667 0.021 0 0.0117333 0.021 0 0.0128 0.021 0 0.0138667 0.021 0 0.0149333 0.021 0 0.016 0.021 0 0 0.0219333 0 0.00144 0.0219333 0 0.00288 0.0219333 0 0.00432 0.0219333 0 0.00576 0.0219333 0 0.0072 0.0219333 0 0.00864 0.0219333 0 0.01008 0.0219333 0 0.01152 0.0219333 0 0.01296 0.0219333 0 0.0144 0.0219333 0 0.01584 0.0219333 0 0.01728 0.0219333 0 0.01872 0.0219333 0 0.02016 0.0219333 0 0.0216 0.0219333 0 0 0.0228667 0 0.00181333 0.0228667 0 0.00362667 0.0228667 0 0.00544 0.0228667 0 0.00725333 0.0228667 0 0.00906667 0.0228667 0 0.01088 0.0228667 0 0.0126933 0.0228667 0 0.0145067 0.0228667 0 0.01632 0.0228667 0 0.0181333 0.0228667 0 0.0199467 0.0228667 0 0.02176 0.0228667 0 0.0235733 0.0228667 0 0.0253867 0.0228667 0 0.0272 0.0228667 0 0 0.0238 0 0.00218667 0.0238 0 0.00437333 0.0238 0 0.00656 0.0238 0 0.00874667 0.0238 0 0.0109333 0.0238 0 0.01312 0.0238 0 0.0153067 0.0238 0 0.0174933 0.0238 0 0.01968 0.0238 0 0.0218667 0.0238 0 0.0240533 0.0238 0 0.02624 0.0238 0 0.0284267 0.0238 0 0.0306133 0.0238 0 0.0328 0.0238 0 0 0.0247333 0 0.00256 0.0247333 0 0.00512 0.0247333 0 0.00768 0.0247333 0 0.01024 0.0247333 0 0.0128 0.0247333 0 0.01536 0.0247333 0 0.01792 0.0247333 0 0.02048 0.0247333 0 0.02304 0.0247333 0 0.0256 0.0247333 0 0.02816 0.0247333 0 0.03072 0.0247333 0 0.03328 0.0247333 0 0.03584 0.0247333 0 0.0384 0.0247333 0 0 0.0256667 0 0.00293333 0.0256667 0 0.00586667 0.0256667 0 0.0088 0.0256667 0 0.0117333 0.0256667 0 0.0146667 0.0256667 0 0.0176 0.0256667 0 0.0205333 0.0256667 0 0.0234667 0.0256667 0 0.0264 0.0256667 0 0.0293333 0.0256667 0 0.0322667 0.0256667 0 0.0352 0.0256667 0 0.0381333 0.0256667 0 0.0410667 0.0256667 0 0.044 0.0256667 0 0 0.0266 0 0.00330667 0.0266 0 0.00661333 0.0266 0 0.00992 0.0266 0 0.0132267 0.0266 0 0.0165333 0.0266 0 0.01984 0.0266 0 0.0231467 0.0266 0 0.0264533 0.0266 0 0.02976 0.0266 0 0.0330667 0.0266 0 0.0363733 0.0266 0 0.03968 0.0266 0 0.0429867 0.0266 0 0.0462933 0.0266 0 0.0496 0.0266 0 0 0.0275333 0 0.00368 0.0275333 0 0.00736 0.0275333 0 0.01104 0.0275333 0 0.01472 0.0275333 0 0.0184 0.0275333 0 0.02208 0.0275333 0 0.02576 0.0275333 0 0.02944 0.0275333 0 0.03312 0.0275333 0 0.0368 0.0275333 0 0.04048 0.0275333 0 0.04416 0.0275333 0 0.04784 0.0275333 0 0.05152 0.0275333 0 0.0552 0.0275333 0 0 0.0284667 0 0.00405333 0.0284667 0 0.00810667 0.0284667 0 0.01216 0.0284667 0 0.0162133 0.0284667 0 0.0202667 0.0284667 0 0.02432 0.0284667 0 0.0283733 0.0284667 0 0.0324267 0.0284667 0 0.03648 0.0284667 0 0.0405333 0.0284667 0 0.0445867 0.0284667 0 0.04864 0.0284667 0 0.0526933 0.0284667 0 0.0567467 0.0284667 0 0.0608 0.0284667 0 0 0.0294 0 0.00442667 0.0294 0 0.00885333 0.0294 0 0.01328 0.0294 0 0.0177067 0.0294 0 0.0221333 0.0294 0 0.02656 0.0294 0 0.0309867 0.0294 0 0.0354133 0.0294 0 0.03984 0.0294 0 0.0442667 0.0294 0 0.0486933 0.0294 0 0.05312 0.0294 0 0.0575467 0.0294 0 0.0619733 0.0294 0 0.0664 0.0294 0 0 0.0303333 0 0.0048 0.0303333 0 0.0096 0.0303333 0 0.0144 0.0303333 0 0.0192 0.0303333 0 0.024 0.0303333 0 0.0288 0.0303333 0 0.0336 0.0303333 0 0.0384 0.0303333 0 0.0432 0.0303333 0 0.048 0.0303333 0 0.0528 0.0303333 0 0.0576 0.0303333 0 0.0624 0.0303333 0 0.0672 0.0303333 0 0.072 0.0303333 0 0 0.0312667 0 0.00517333 0.0312667 0 0.0103467 0.0312667 0 0.01552 0.0312667 0 0.0206933 0.0312667 0 0.0258667 0.0312667 0 0.03104 0.0312667 0 0.0362133 0.0312667 0 0.0413867 0.0312667 0 0.04656 0.0312667 0 0.0517333 0.0312667 0 0.0569067 0.0312667 0 0.06208 0.0312667 0 0.0672533 0.0312667 0 0.0724267 0.0312667 0 0.0776 0.0312667 0 0 0.0322 0 0.00554667 0.0322 0 0.0110933 0.0322 0 0.01664 0.0322 0 0.0221867 0.0322 0 0.0277333 0.0322 0 0.03328 0.0322 0 0.0388267 0.0322 0 0.0443733 0.0322 0 0.04992 0.0322 0 0.0554667 0.0322 0 0.0610133 0.0322 0 0.06656 0.0322 0 0.0721067 0.0322 0 0.0776533 0.0322 0 0.0832 0.0322 0 0 0.0331333 0 0.00592 0.0331333 0 0.01184 0.0331333 0 0.01776 0.0331333 0 0.02368 0.0331333 0 0.0296 0.0331333 0 0.03552 0.0331333 0 0.04144 0.0331333 0 0.04736 0.0331333 0 0.05328 0.0331333 0 0.0592 0.0331333 0 0.06512 0.0331333 0 0.07104 0.0331333 0 0.07696 0.0331333 0 0.08288 0.0331333 0 0.0888 0.0331333 0 0 0.0340667 0 0.00629333 0.0340667 0 0.0125867 0.0340667 0 0.01888 0.0340667 0 0.0251733 0.0340667 0 0.0314667 0.0340667 0 0.03776 0.0340667 0 0.0440533 0.0340667 0 0.0503467 0.0340667 0 0.05664 0.0340667 0 0.0629333 0.0340667 0 0.0692267 0.0340667 0 0.07552 0.0340667 0 0.0818133 0.0340667 0 0.0881067 0.0340667 0 0.0944 0.0340667 0 0 0.035 0 0.00666667 0.035 0 0.0133333 0.035 0 0.02 0.035 0 0.0266667 0.035 0 0.0333333 0.035 0 0.04 0.035 0 0.0466667 0.035 0 0.0533333 0.035 0 0.06 0.035 0 0.0666667 0.035 0 0.0733333 0.035 0 0.08 0.035 0 0.0866667 0.035 0 0.0933333 0.035 0 0.1 0.035 0 
</DataArray>
</Points> 
</Piece> 
</StructuredGrid> 
</VTKFile> 
