<?xml version="1.0"?> 
<VTKFile type="StructuredGrid" version="0.1"> 
<StructuredGrid WholeExtent="0 15 0 15 0 0"> 
<Piece Extent="0 15 0 15 0 0"> 
<PointData>
<DataArray type="Float32" Name="|E|" format="ascii" NumberOfComponents="3"> 
2.98023e-07 1.71661e-05 0 -4.07308e-08 698.504 0 2.69501e-08 357.804 0 2.56114e-09 165.982 0 -2.53785e-08 86.3598 0 3.35276e-08 45.0536 0 -3.63216e-08 25.1663 0 3.53903e-08 14.3618 0 -3.07336e-08 8.36949 0 2.04891e-08 4.9558 0 -1.86265e-08 2.94091 0 2.23517e-08 1.74568 0 -3.35276e-08 1.01785 0 2.23517e-08 0.558655 0 7.45058e-09 0.247533 0 -3.27826e-07 4.52995e-06 0 72.318 -1.82539e-07 0 -11.5962 698.345 0 -6.30567 357.871 0 -3.65222 165.873 0 -1.92487 86.3671 0 -1.08178 45.0249 0 -0.617106 25.1641 0 -0.382161 14.354 0 -0.227346 8.36708 0 -0.149824 4.95325 0 -0.0913698 2.93954 0 -0.0614048 1.74466 0 -0.0391726 1.01722 0 -0.0277073 0.558249 0 -0.0210446 0.247344 0 -0.0196021 -4.30504e-07 0 144.918 -1.40443e-06 0 -23.243 697.863 0 -12.6086 358.075 0 -7.299 165.547 0 -3.85152 86.3899 0 -2.16052 44.9385 0 -1.23505 25.1576 0 -0.763236 14.3306 0 -0.454876 8.35992 0 -0.299318 4.94557 0 -0.182723 2.93547 0 -0.122707 1.7416 0 -0.0783047 1.01533 0 -0.0553722 0.557037 0 -0.0420568 0.246769 0 -0.0391625 1.86265e-07 0 218.084 1.33365e-06 0 -34.9907 697.048 0 -18.9063 358.422 0 -10.9348 165 0 -5.78188 86.43 0 -3.23309 44.7933 0 -1.85474 25.1474 0 -1.1421 14.2913 0 -0.682801 8.34812 0 -0.448134 4.93273 0 -0.274053 2.92869 0 -0.1838 1.7365 0 -0.117358 1.01217 0 -0.0829514 0.555022 0 -0.0630046 0.24581 0 -0.0586414 -2.03028e-07 0 292.102 -8.9407e-07 0 -46.8902 695.883 0 -25.1961 358.92 0 -14.5537 164.225 0 -7.71805 86.4908 0 -4.29618 44.5878 0 -2.4772 25.1345 0 -1.51754 14.2357 0 -0.911386 8.3319 0 -0.595894 4.91468 0 -0.365369 2.91923 0 -0.244565 1.72937 0 -0.1563 1.00775 0 -0.110399 0.552212 0 -0.0838569 0.244464 0 -0.0779988 2.34693e-07 0 367.264 1.3113e-06 0 -58.9921 694.342 0 -31.476 359.582 0 -18.1497 163.217 0 -9.66248 86.5768 0 -5.34626 44.3195 0 -3.10363 25.1202 0 -1.88822 14.1633 0 -1.14098 8.31156 0 -0.74217 4.89131 0 -0.456714 2.90715 0 -0.304872 1.72022 0 -0.195106 1.00206 0 -0.137667 0.54862 0 -0.104584 0.242725 0 -0.097198 2.68221e-07 0 443.867 -2.98023e-07 0 -71.3473 692.391 0 -37.7442 360.427 0 -21.716 161.965 0 -11.6181 86.694 0 -6.37943 43.9853 0 -3.73552 25.1062 0 -2.25263 14.0731 0 -1.37204 8.28748 0 -0.886465 4.86253 0 -0.548168 2.89249 0 -0.364566 1.70905 0 -0.233763 0.9951 0 -0.1647 0.544266 0 -0.125158 0.240586 0 -0.116207 -2.90573e-07 0 522.216 -5.96046e-07 0 -84.0069 689.991 0 -43.9993 361.474 0 -25.2453 160.455 0 -13.5883 86.8502 0 -7.39134 43.5812 0 -4.37468 25.0949 0 -2.60904 13.9644 0 -1.6052 8.26018 0 -1.02819 4.82819 0 -0.639871 2.8753 0 -0.423462 1.69591 0 -0.272273 0.986857 0 -0.191437 0.539177 0 -0.145553 0.23803 0 -0.135 3.27826e-07 0 602.626 -1.19209e-07 0 -97.0221 687.094 0 -50.2407 362.75 0 -28.7296 158.674 0 -15.5774 87.0544 0 -8.37706 43.1025 0 -5.02335 25.089 0 -2.95539 13.8357 0 -1.84126 8.23026 0 -1.16662 4.78811 0 -0.732035 2.85566 0 -0.481334 1.6808 0 -0.310664 0.977309 0 -0.217808 0.533393 0 -0.165746 0.235035 0 -0.153564 -2.23517e-07 0 685.424 2.6226e-06 0 -110.444 683.642 0 -56.4683 364.286 0 -32.1596 156.604 0 -17.5904 87.3174 0 -9.33101 42.5435 0 -5.68429 25.0917 0 -3.2893 13.6858 0 -2.08129 8.19844 0 -1.3009 4.74209 0 -0.824968 2.83363 0 -0.537903 1.66379 0 -0.34899 0.96642 0 -0.243727 0.526972 0 -0.185718 0.23156 0 -0.171906 2.83122e-07 0 770.947 -3.21865e-06 0 -124.326 679.569 0 -62.6832 366.115 0 -35.5251 154.222 0 -19.6335 87.6522 0 -10.2467 41.8972 0 -6.36092 25.1069 0 -3.60792 13.5128 0 -2.32667 8.16561 0 -1.42996 4.6899 0 -0.919099 2.80929 0 -0.592823 1.64494 0 -0.387344 0.95413 0 -0.269093 0.519998 0 -0.205454 0.227548 0 -0.190063 -4.47035e-07 0 859.55 1.66893e-06 0 -138.717 674.801 0 -68.8873 368.28 0 -38.8146 151.507 0 -21.714 88.0734 0 -11.1168 41.1559 0 -7.05743 25.1392 0 -3.90783 13.3147 0 -2.57914 8.13276 0 -1.55248 4.63125 0 -1.01502 2.7827 0 -0.645653 1.62436 0 -0.425871 0.94035 0 -0.293781 0.512583 0 -0.224942 0.222909 0 -0.208118 3.27826e-07 0 951.601 -7.15256e-07 0 -153.672 669.252 0 -75.0839 370.825 0 -42.0147 148.429 0 -23.8409 88.5981 0 -11.9325 40.3104 0 -7.77892 25.1939 0 -4.18496 13.089 0 -2.84095 8.10108 0 -1.66686 4.56584 0 -1.1135 2.75391 0 -0.69584 1.60218 0 -0.464781 0.924945 0 -0.317633 0.504893 0 -0.244173 0.21751 0 -0.226228 -2.08616e-07 0 1047.49 4.76837e-07 0 -169.241 662.829 0 -81.2778 373.804 0 -45.1104 144.958 0 -26.0246 89.2457 0 -12.6839 39.3499 0 -8.53163 25.2771 0 -4.43444 12.833 0 -3.11489 8.07191 0 -1.77107 4.49333 0 -1.21558 2.72294 0 -0.74268 1.57861 0 -0.504371 0.907719 0 -0.340454 0.497156 0 -0.26314 0.211156 0 -0.244659 2.08616e-07 0 1147.63 -7.15256e-07 0 -185.478 655.423 0 -87.4754 377.274 0 -48.0845 141.058 0 -28.2779 90.0384 0 -13.3593 38.2624 0 -9.32309 25.3958 0 -4.65042 12.5433 0 -3.40446 8.04681 0 -1.86266 4.41335 0 -1.3226 2.68977 0 -0.785284 1.55394 0 -0.545045 0.888384 0 -0.361996 0.489692 0 -0.281836 0.203565 0 -0.263841 5.96046e-08 0 1252.45 1.90735e-06 0 -202.434 646.92 0 -93.6853 381.303 0 -50.9172 136.689 0 -30.6155 91.0008 0 -13.945 37.0341 0 -10.1624 25.558 0 -4.82589 12.2163 0 -3.71402 8.0275 0 -1.93857 4.32552 0 -1.43627 2.65433 0 -0.822518 1.52854 0 -0.587352 0.866544 0 -0.381946 0.482942 0 -0.300246 0.194331 0 -0.284445 -4.76837e-06 0 </DataArray> 
</PointData> 
<Points> 
<DataArray type="Float32" NumberOfComponents="3"> 
0.125 0.02 0 0.129 0.02 0 0.133 0.02 0 0.137 0.02 0 0.141 0.02 0 0.145 0.02 0 0.149 0.02 0 0.153 0.02 0 0.157 0.02 0 0.161 0.02 0 0.165 0.02 0 0.169 0.02 0 0.173 0.02 0 0.177 0.02 0 0.181 0.02 0 0.185 0.02 0 0.125 0.0200667 0 0.129 0.0200844 0 0.133 0.0201022 0 0.137 0.02012 0 0.141 0.0201378 0 0.145 0.0201556 0 0.149 0.0201733 0 0.153 0.0201911 0 0.157 0.0202089 0 0.161 0.0202267 0 0.165 0.0202444 0 0.169 0.0202622 0 0.173 0.02028 0 0.177 0.0202978 0 0.181 0.0203156 0 0.185 0.0203333 0 0.125 0.0201333 0 0.129 0.0201689 0 0.133 0.0202044 0 0.137 0.02024 0 0.141 0.0202756 0 0.145 0.0203111 0 0.149 0.0203467 0 0.153 0.0203822 0 0.157 0.0204178 0 0.161 0.0204533 0 0.165 0.0204889 0 0.169 0.0205244 0 0.173 0.02056 0 0.177 0.0205956 0 0.181 0.0206311 0 0.185 0.0206667 0 0.125 0.0202 0 0.129 0.0202533 0 0.133 0.0203067 0 0.137 0.02036 0 0.141 0.0204133 0 0.145 0.0204667 0 0.149 0.02052 0 0.153 0.0205733 0 0.157 0.0206267 0 0.161 0.02068 0 0.165 0.0207333 0 0.169 0.0207867 0 0.173 0.02084 0 0.177 0.0208933 0 0.181 0.0209467 0 0.185 0.021 0 0.125 0.0202667 0 0.129 0.0203378 0 0.133 0.0204089 0 0.137 0.02048 0 0.141 0.0205511 0 0.145 0.0206222 0 0.149 0.0206933 0 0.153 0.0207644 0 0.157 0.0208356 0 0.161 0.0209067 0 0.165 0.0209778 0 0.169 0.0210489 0 0.173 0.02112 0 0.177 0.0211911 0 0.181 0.0212622 0 0.185 0.0213333 0 0.125 0.0203333 0 0.129 0.0204222 0 0.133 0.0205111 0 0.137 0.0206 0 0.141 0.0206889 0 0.145 0.0207778 0 0.149 0.0208667 0 0.153 0.0209556 0 0.157 0.0210444 0 0.161 0.0211333 0 0.165 0.0212222 0 0.169 0.0213111 0 0.173 0.0214 0 0.177 0.0214889 0 0.181 0.0215778 0 0.185 0.0216667 0 0.125 0.0204 0 0.129 0.0205067 0 0.133 0.0206133 0 0.137 0.02072 0 0.141 0.0208267 0 0.145 0.0209333 0 0.149 0.02104 0 0.153 0.0211467 0 0.157 0.0212533 0 0.161 0.02136 0 0.165 0.0214667 0 0.169 0.0215733 0 0.173 0.02168 0 0.177 0.0217867 0 0.181 0.0218933 0 0.185 0.022 0 0.125 0.0204667 0 0.129 0.0205911 0 0.133 0.0207156 0 0.137 0.02084 0 0.141 0.0209644 0 0.145 0.0210889 0 0.149 0.0212133 0 0.153 0.0213378 0 0.157 0.0214622 0 0.161 0.0215867 0 0.165 0.0217111 0 0.169 0.0218356 0 0.173 0.02196 0 0.177 0.0220844 0 0.181 0.0222089 0 0.185 0.0223333 0 0.125 0.0205333 0 0.129 0.0206756 0 0.133 0.0208178 0 0.137 0.02096 0 0.141 0.0211022 0 0.145 0.0212444 0 0.149 0.0213867 0 0.153 0.0215289 0 0.157 0.0216711 0 0.161 0.0218133 0 0.165 0.0219556 0 0.169 0.0220978 0 0.173 0.02224 0 0.177 0.0223822 0 0.181 0.0225244 0 0.185 0.0226667 0 0.125 0.0206 0 0.129 0.02076 0 0.133 0.02092 0 0.137 0.02108 0 0.141 0.02124 0 0.145 0.0214 0 0.149 0.02156 0 0.153 0.02172 0 0.157 0.02188 0 0.161 0.02204 0 0.165 0.0222 0 0.169 0.02236 0 0.173 0.02252 0 0.177 0.02268 0 0.181 0.02284 0 0.185 0.023 0 0.125 0.0206667 0 0.129 0.0208444 0 0.133 0.0210222 0 0.137 0.0212 0 0.141 0.0213778 0 0.145 0.0215556 0 0.149 0.0217333 0 0.153 0.0219111 0 0.157 0.0220889 0 0.161 0.0222667 0 0.165 0.0224444 0 0.169 0.0226222 0 0.173 0.0228 0 0.177 0.0229778 0 0.181 0.0231556 0 0.185 0.0233333 0 0.125 0.0207333 0 0.129 0.0209289 0 0.133 0.0211244 0 0.137 0.02132 0 0.141 0.0215156 0 0.145 0.0217111 0 0.149 0.0219067 0 0.153 0.0221022 0 0.157 0.0222978 0 0.161 0.0224933 0 0.165 0.0226889 0 0.169 0.0228844 0 0.173 0.02308 0 0.177 0.0232756 0 0.181 0.0234711 0 0.185 0.0236667 0 0.125 0.0208 0 0.129 0.0210133 0 0.133 0.0212267 0 0.137 0.02144 0 0.141 0.0216533 0 0.145 0.0218667 0 0.149 0.02208 0 0.153 0.0222933 0 0.157 0.0225067 0 0.161 0.02272 0 0.165 0.0229333 0 0.169 0.0231467 0 0.173 0.02336 0 0.177 0.0235733 0 0.181 0.0237867 0 0.185 0.024 0 0.125 0.0208667 0 0.129 0.0210978 0 0.133 0.0213289 0 0.137 0.02156 0 0.141 0.0217911 0 0.145 0.0220222 0 0.149 0.0222533 0 0.153 0.0224844 0 0.157 0.0227156 0 0.161 0.0229467 0 0.165 0.0231778 0 0.169 0.0234089 0 0.173 0.02364 0 0.177 0.0238711 0 0.181 0.0241022 0 0.185 0.0243333 0 0.125 0.0209333 0 0.129 0.0211822 0 0.133 0.0214311 0 0.137 0.02168 0 0.141 0.0219289 0 0.145 0.0221778 0 0.149 0.0224267 0 0.153 0.0226756 0 0.157 0.0229244 0 0.161 0.0231733 0 0.165 0.0234222 0 0.169 0.0236711 0 0.173 0.02392 0 0.177 0.0241689 0 0.181 0.0244178 0 0.185 0.0246667 0 0.125 0.021 0 0.129 0.0212667 0 0.133 0.0215333 0 0.137 0.0218 0 0.141 0.0220667 0 0.145 0.0223333 0 0.149 0.0226 0 0.153 0.0228667 0 0.157 0.0231333 0 0.161 0.0234 0 0.165 0.0236667 0 0.169 0.0239333 0 0.173 0.0242 0 0.177 0.0244667 0 0.181 0.0247333 0 0.185 0.025 0 
</DataArray>
</Points> 
</Piece> 
</StructuredGrid> 
</VTKFile> 
