<?xml version="1.0"?> 
<VTKFile type="StructuredGrid" version="0.1"> 
<StructuredGrid WholeExtent="0 15 0 15 0 0"> 
<Piece Extent="0 15 0 15 0 0"> 
<PointData>
<DataArray type="Float32" Name="|E|" format="ascii" NumberOfComponents="3"> 
-1.19209e-07 7.55084e+06 0 -2.21189e-09 1.96927e+06 0 -9.59262e-08 354348 0 2.27243e-07 82814.8 0 -3.5204e-07 115343 0 4.41447e-07 130949 0 -4.28408e-07 83438.3 0 3.91155e-07 9841.95 0 -2.5332e-07 -35354.5 0 8.9407e-08 -20046.3 0 1.04308e-07 9498.17 0 -4.47035e-08 10037 0 1.49012e-08 4080.47 0 -2.98023e-08 -8000.1 0 5.96046e-08 -4491.99 0 -1.07288e-06 -0.000305176 0 -2.65731e+06 1.04469e+06 0 -2.75286e+06 985106 0 -2.10487e+06 1.07201e+06 0 -1.36892e+06 946808 0 -778817 648305 0 -377103 329419 0 -143571 103281 0 -39691.9 -2233.25 0 -13587.9 -22322.1 0 -10261.9 -8126.26 0 -1013 9226.54 0 1975.26 2440.44 0 1218.11 -4233.41 0 71.062 -1366.9 0 -1287.99 -2468.16 0 -1259.58 -23660.4 0 -3.05675e+06 723927 0 -2.82452e+06 948065 0 -2.91182e+06 739010 0 -2.77528e+06 630264 0 -2.35081e+06 577313 0 -1.74896e+06 462119 0 -1.11191e+06 270984 0 -567443 78880.4 0 -206430 -37775.1 0 -45799.5 -62560.8 0 -12010.3 -33773.5 0 -4389.59 6550.5 0 730.801 13756.7 0 1648.02 -1335.71 0 6906.72 29716 0 1321.92 12432.6 0 -2.78152e+06 1.4315e+06 0 -2.98121e+06 1.13949e+06 0 -2.95536e+06 1.10303e+06 0 -3.00927e+06 918956 0 -3.04311e+06 690152 0 -2.90169e+06 499416 0 -2.50603e+06 326185 0 -1.88132e+06 135270 0 -1.15378e+06 -45634.3 0 -519322 -146324 0 -141874 -137875 0 -20645 -71084.9 0 -4881.21 -10925.2 0 9498.58 52549.5 0 -5932.71 -27631.9 0 2062.38 12604.8 0 -2.7992e+06 1.48773e+06 0 -2.82116e+06 1.49482e+06 0 -2.94519e+06 1.36039e+06 0 -2.99681e+06 1.28776e+06 0 -3.05327e+06 1.15088e+06 0 -3.13451e+06 924594 0 -3.15541e+06 661632 0 -2.98048e+06 391655 0 -2.50485e+06 109836 0 -1.74511e+06 -151306 0 -903437 -290078 0 -286007 -237940 0 -31476.6 -79882.5 0 -288.496 -10955.1 0 -4720.6 48.0699 0 -12423.4 -54809.8 0 -2.58571e+06 1.76177e+06 0 -2.68494e+06 1.68606e+06 0 -2.759e+06 1.63306e+06 0 -2.87541e+06 1.52848e+06 0 -2.97094e+06 1.44181e+06 0 -3.05008e+06 1.33034e+06 0 -3.14513e+06 1.14128e+06 0 -3.23641e+06 879764 0 -3.21473e+06 567993 0 -2.91023e+06 199898 0 -2.21224e+06 -196542 0 -1.25125e+06 -450410 0 -423215 -357455 0 32262.5 107098 0 8660.56 17281.9 0 -13582.5 -45637.8 0 -2.46808e+06 1.8299e+06 0 -2.53528e+06 1.81e+06 0 -2.61465e+06 1.7791e+06 0 -2.69418e+06 1.73633e+06 0 -2.80302e+06 1.65485e+06 0 -2.91856e+06 1.56671e+06 0 -3.02372e+06 1.46174e+06 0 -3.13244e+06 1.29457e+06 0 -3.25049e+06 1.05042e+06 0 -3.30876e+06 738632 0 -3.12574e+06 322231 0 -2.49566e+06 -219967 0 -1.46106e+06 -627026 0 -480039 -470752 0 186605 451399 0 25513.6 67217.7 0 -2.31896e+06 1.91651e+06 0 -2.38773e+06 1.89984e+06 0 -2.46686e+06 1.87068e+06 0 -2.55145e+06 1.84327e+06 0 -2.63818e+06 1.80694e+06 0 -2.74435e+06 1.74179e+06 0 -2.86783e+06 1.66048e+06 0 -2.99394e+06 1.55945e+06 0 -3.12209e+06 1.39858e+06 0 -3.25803e+06 1.15701e+06 0 -3.35296e+06 845235 0 -3.2262e+06 382056 0 -2.58756e+06 -300151 0 -1.43432e+06 -770751 0 -332703 -367461 0 -161046 -337500 0 -2.19981e+06 1.9451e+06 0 -2.26268e+06 1.94205e+06 0 -2.32975e+06 1.93688e+06 0 -2.40955e+06 1.91605e+06 0 -2.49904e+06 1.89171e+06 0 -2.5947e+06 1.85811e+06 0 -2.70516e+06 1.80044e+06 0 -2.83534e+06 1.72377e+06 0 -2.97799e+06 1.62539e+06 0 -3.12843e+06 1.4624e+06 0 -3.28461e+06 1.20806e+06 0 -3.39996e+06 870969 0 -3.26249e+06 307266 0 -2.47354e+06 -520390 0 -1.10106e+06 -826183 0 -158427 -265013 0 -2.08557e+06 1.95928e+06 0 -2.14562e+06 1.96508e+06 0 -2.21312e+06 1.96486e+06 0 -2.2852e+06 1.9627e+06 0 -2.36794e+06 1.94851e+06 0 -2.46262e+06 1.92796e+06 0 -2.56768e+06 1.89701e+06 0 -2.68773e+06 1.84231e+06 0 -2.829e+06 1.76501e+06 0 -2.98933e+06 1.66296e+06 0 -3.16584e+06 1.48472e+06 0 -3.34661e+06 1.20176e+06 0 -3.47521e+06 791884 0 -3.20993e+06 29870.2 0 -2.06082e+06 -893698 0 -349149 -463099 0 -1.98258e+06 1.95402e+06 0 -2.041e+06 1.96788e+06 0 -2.10463e+06 1.97843e+06 0 -2.17622e+06 1.98319e+06 0 -2.2547e+06 1.98376e+06 0 -2.34358e+06 1.97375e+06 0 -2.44596e+06 1.95548e+06 0 -2.56203e+06 1.92609e+06 0 -2.69636e+06 1.87141e+06 0 -2.8544e+06 1.79047e+06 0 -3.03941e+06 1.67537e+06 0 -3.24741e+06 1.46266e+06 0 -3.46702e+06 1.12009e+06 0 -3.5658e+06 538722 0 -2.94991e+06 -594029 0 -912217 -941895 0 -1.88695e+06 1.93652e+06 0 -1.94469e+06 1.9581e+06 0 -2.00777e+06 1.97634e+06 0 -2.07677e+06 1.99075e+06 0 -2.15413e+06 1.9998e+06 0 -2.24029e+06 2.00337e+06 0 -2.33829e+06 1.99625e+06 0 -2.45181e+06 1.9789e+06 0 -2.58287e+06 1.94825e+06 0 -2.73718e+06 1.88939e+06 0 -2.92062e+06 1.8006e+06 0 -3.14118e+06 1.65832e+06 0 -3.39597e+06 1.38107e+06 0 -3.66881e+06 914825 0 -3.59033e+06 -116397 0 -1.91318e+06 -1.48446e+06 0 -1.79756e+06 1.90969e+06 0 -1.85564e+06 1.9385e+06 0 -1.91861e+06 1.96459e+06 0 -1.98749e+06 1.98723e+06 0 -2.06344e+06 2.00528e+06 0 -2.14875e+06 2.01768e+06 0 -2.2448e+06 2.0236e+06 0 -2.35532e+06 2.01818e+06 0 -2.48427e+06 2.00074e+06 0 -2.63655e+06 1.96548e+06 0 -2.81893e+06 1.89751e+06 0 -3.04227e+06 1.79241e+06 0 -3.3157e+06 1.59408e+06 0 -3.66032e+06 1.20316e+06 0 -3.96024e+06 368898 0 -3.16967e+06 -1.73103e+06 0 -1.71335e+06 1.87577e+06 0 -1.77258e+06 1.91183e+06 0 -1.83634e+06 1.94548e+06 0 -1.90572e+06 1.97606e+06 0 -1.98188e+06 2.00285e+06 0 -2.06664e+06 2.02429e+06 0 -2.16241e+06 2.03938e+06 0 -2.27173e+06 2.04645e+06 0 -2.39917e+06 2.04125e+06 0 -2.55015e+06 2.02158e+06 0 -2.73231e+06 1.97775e+06 0 -2.9578e+06 1.89444e+06 0 -3.24189e+06 1.75418e+06 0 -3.61887e+06 1.44637e+06 0 -4.13158e+06 786422 0 -4.37936e+06 -1.47083e+06 0 -1.63341e+06 1.83652e+06 0 -1.69445e+06 1.88005e+06 0 -1.75983e+06 1.92134e+06 0 -1.83046e+06 1.95979e+06 0 -1.9077e+06 1.99462e+06 0 -1.99309e+06 2.02499e+06 0 -2.08908e+06 2.04933e+06 0 -2.19868e+06 2.06625e+06 0 -2.32584e+06 2.07336e+06 0 -2.4768e+06 2.0665e+06 0 -2.65932e+06 2.04145e+06 0 -2.88689e+06 1.98309e+06 0 -3.18036e+06 1.87487e+06 0 -3.57681e+06 1.65251e+06 0 -4.19285e+06 1.13367e+06 0 -5.27297e+06 -736953 0 -1.55707e+06 1.79322e+06 0 -1.6206e+06 1.84452e+06 0 -1.68823e+06 1.89364e+06 0 -1.76088e+06 1.94003e+06 0 -1.83981e+06 1.98301e+06 0 -1.92673e+06 2.02173e+06 0 -2.02393e+06 2.05492e+06 0 -2.13449e+06 2.08139e+06 0 -2.26273e+06 2.09891e+06 0 -2.41443e+06 2.10496e+06 0 -2.59899e+06 2.0942e+06 0 -2.8289e+06 2.05917e+06 0 -3.13004e+06 1.97939e+06 0 -3.54605e+06 1.81853e+06 0 -4.21217e+06 1.43539e+06 0 -5.69362e+06 263116 0 </DataArray> 
</PointData> 
<Points> 
<DataArray type="Float32" NumberOfComponents="3"> 
0.1 0.045 0 0.100867 0.045 0 0.101733 0.045 0 0.1026 0.045 0 0.103467 0.045 0 0.104333 0.045 0 0.1052 0.045 0 0.106067 0.045 0 0.106933 0.045 0 0.1078 0.045 0 0.108667 0.045 0 0.109533 0.045 0 0.1104 0.045 0 0.111267 0.045 0 0.112133 0.045 0 0.113 0.045 0 0.0978533 0.0464889 0 0.0987501 0.0463952 0 0.0996512 0.0463011 0 0.100557 0.0462065 0 0.101467 0.0461115 0 0.102381 0.046016 0 0.1033 0.04592 0 0.104224 0.0458235 0 0.105152 0.0457266 0 0.106084 0.0456292 0 0.107022 0.0455313 0 0.107964 0.0454329 0 0.108911 0.045334 0 0.109862 0.0452346 0 0.110818 0.0451347 0 0.111779 0.0450343 0 0.0957067 0.0479778 0 0.0966322 0.0478002 0 0.0975662 0.047621 0 0.0985087 0.0474402 0 0.0994598 0.0472577 0 0.10042 0.0470735 0 0.101389 0.0468876 0 0.102367 0.0467 0 0.103354 0.0465106 0 0.10435 0.0463195 0 0.105356 0.0461265 0 0.106371 0.0459317 0 0.107396 0.0457351 0 0.108431 0.0455365 0 0.109476 0.0453361 0 0.11053 0.0451337 0 0.09356 0.0494667 0 0.0945152 0.0492135 0 0.0954825 0.0489572 0 0.0964621 0.0486976 0 0.0974543 0.0484347 0 0.0984593 0.0481683 0 0.0994773 0.0478986 0 0.100509 0.0476252 0 0.101554 0.0473483 0 0.102612 0.0470678 0 0.103685 0.0467835 0 0.104772 0.0464953 0 0.105874 0.0462033 0 0.106991 0.0459073 0 0.108123 0.0456073 0 0.109271 0.0453031 0 0.0914133 0.0509556 0 0.0924014 0.0506338 0 0.0934047 0.050307 0 0.0944238 0.0499751 0 0.0954589 0.049638 0 0.0965104 0.0492955 0 0.0975788 0.0489475 0 0.0986644 0.048594 0 0.0997677 0.0482346 0 0.100889 0.0478694 0 0.102029 0.0474982 0 0.103188 0.0471207 0 0.104366 0.0467369 0 0.105565 0.0463466 0 0.106784 0.0459496 0 0.108023 0.0455458 0 0.0892667 0.0524444 0 0.0902929 0.0520594 0 0.0913372 0.0516676 0 0.0924002 0.0512688 0 0.0934823 0.0508629 0 0.094584 0.0504495 0 0.0957059 0.0500287 0 0.0968485 0.0496 0 0.0980124 0.0491633 0 0.0991983 0.0487184 0 0.100407 0.0482651 0 0.101638 0.047803 0 0.102894 0.047332 0 0.104174 0.0468518 0 0.105479 0.0463621 0 0.10681 0.0458627 0 0.08712 0.0539333 0 0.088192 0.0534891 0 0.0892845 0.0530363 0 0.0903981 0.0525748 0 0.0915333 0.0521044 0 0.0926909 0.0516246 0 0.0938715 0.0511354 0 0.0950757 0.0506363 0 0.0963044 0.0501272 0 0.0975582 0.0496075 0 0.098838 0.0490772 0 0.100144 0.0485358 0 0.101479 0.0479829 0 0.102841 0.0474182 0 0.104233 0.0468414 0 0.105655 0.0462519 0 0.0849733 0.0554222 0 0.086101 0.0549212 0 0.087251 0.0544102 0 0.088424 0.053889 0 0.0896207 0.0533572 0 0.0908419 0.0528146 0 0.0920883 0.0522608 0 0.0933607 0.0516954 0 0.0946599 0.0511181 0 0.0959868 0.0505285 0 0.0973423 0.0499262 0 0.0987272 0.0493108 0 0.100143 0.0486819 0 0.10159 0.0480389 0 0.103069 0.0473815 0 0.104582 0.0467092 0 0.0828267 0.0569111 0 0.084022 0.0563542 0 0.0852409 0.0557863 0 0.0864843 0.055207 0 0.0877529 0.054616 0 0.0890473 0.0540129 0 0.0903685 0.0533974 0 0.0917172 0.052769 0 0.0930944 0.0521274 0 0.0945009 0.0514721 0 0.0959377 0.0508027 0 0.0974057 0.0501188 0 0.0989061 0.0494198 0 0.10044 0.0487052 0 0.102008 0.0479746 0 0.103612 0.0472273 0 0.08068 0.0584 0 0.0819572 0.0577868 0 0.0832587 0.0571618 0 0.0845854 0.0565248 0 0.0859379 0.0558754 0 0.087317 0.0552132 0 0.0887234 0.0545378 0 0.0901581 0.0538489 0 0.0916219 0.0531461 0 0.0931157 0.0524288 0 0.0946403 0.0516967 0 0.0961968 0.0509494 0 0.0977862 0.0501862 0 0.0994095 0.0494067 0 0.101068 0.0486105 0 0.102762 0.0477968 0 0.0785333 0.0598889 0 0.0799087 0.0592172 0 0.0813084 0.0585337 0 0.0827331 0.057838 0 0.0841833 0.0571298 0 0.0856599 0.0564087 0 0.0871635 0.0556744 0 0.0886949 0.0549266 0 0.0902549 0.0541648 0 0.0918442 0.0533887 0 0.0934637 0.0525978 0 0.0951143 0.0517917 0 0.0967969 0.05097 0 0.0985124 0.0501323 0 0.100262 0.049278 0 0.102046 0.0484066 0 0.0763867 0.0613778 0 0.0778788 0.0606441 0 0.0793941 0.0598991 0 0.0809331 0.0591425 0 0.0824963 0.0583739 0 0.0840843 0.0575931 0 0.0856978 0.0567998 0 0.0873373 0.0559938 0 0.0890035 0.0551746 0 0.090697 0.0543419 0 0.0924185 0.0534955 0 0.0941687 0.052635 0 0.0959483 0.0517601 0 0.0977581 0.0508702 0 0.0995989 0.0499652 0 0.101471 0.0490446 0 0.07424 0.0628667 0 0.0758694 0.062066 0 0.0775195 0.0612553 0 0.0791906 0.0604342 0 0.0808831 0.0596026 0 0.0825974 0.0587603 0 0.084334 0.057907 0 0.0860933 0.0570426 0 0.0878757 0.0561668 0 0.0896817 0.0552794 0 0.0915118 0.0543802 0 0.0933665 0.0534689 0 0.0952462 0.0525453 0 0.0971515 0.0516092 0 0.0990828 0.0506602 0 0.101041 0.0496981 0 0.0720933 0.0643556 0 0.0738826 0.0634814 0 0.0756883 0.0625994 0 0.0775104 0.0617092 0 0.0793493 0.0608109 0 0.0812051 0.0599043 0 0.0830782 0.0589892 0 0.0849687 0.0580657 0 0.086877 0.0571335 0 0.0888032 0.0561925 0 0.0907476 0.0552426 0 0.0927104 0.0542837 0 0.094692 0.0533157 0 0.0966926 0.0523384 0 0.0987125 0.0513516 0 0.100752 0.0503554 0 0.0699467 0.0658444 0 0.0719204 0.0648889 0 0.0739038 0.0639287 0 0.0758968 0.0629638 0 0.0778997 0.0619941 0 0.0799124 0.0610197 0 0.081935 0.0600405 0 0.0839676 0.0590565 0 0.0860103 0.0580675 0 0.0880632 0.0570737 0 0.0901263 0.0560749 0 0.0921997 0.0550711 0 0.0942834 0.0540623 0 0.0963776 0.0530484 0 0.0984824 0.0520294 0 0.100598 0.0510053 0 0.0678 0.0673333 0 0.0699846 0.066287 0 0.0721691 0.0652407 0 0.0743537 0.0641944 0 0.0765382 0.063148 0 0.0787228 0.0621017 0 0.0809073 0.0610554 0 0.0830919 0.0600091 0 0.0852764 0.0589627 0 0.087461 0.0579164 0 0.0896455 0.0568701 0 0.0918301 0.0558238 0 0.0940146 0.0547774 0 0.0961992 0.0537311 0 0.0983837 0.0526848 0 0.100568 0.0516385 0 
</DataArray>
</Points> 
</Piece> 
</StructuredGrid> 
</VTKFile> 
