<?xml version="1.0"?> 
<VTKFile type="StructuredGrid" version="0.1"> 
<StructuredGrid WholeExtent="0 15 0 15 0 0"> 
<Piece Extent="0 15 0 15 0 0"> 
<PointData>
<DataArray type="Float32" Name="|E|" format="ascii" NumberOfComponents="3"> 
1088.82 2454.48 0 -209.915 759.141 0 -87.7621 292.454 0 -53.9542 182.244 0 -29.1692 69.3068 0 -14.6118 47.0356 0 -9.86725 21.1313 0 -4.95068 14.0881 0 -3.66462 7.28651 0 -1.95602 4.58728 0 -1.43142 2.58152 0 -0.822822 1.5331 0 -0.58838 0.881974 0 -0.380652 0.463534 0 -0.301516 0.213388 0 -0.284446 7.39098e-06 0 -25.1293 1799.15 0 -263.536 667.875 0 -140.853 287.104 0 -70.9323 149.658 0 -36.9666 69.0838 0 -18.8475 40.2544 0 -11.355 20.8544 0 -6.15888 12.6305 0 -4.0443 7.06301 0 -2.31133 4.25646 0 -1.54839 2.47281 0 -0.92817 1.45604 0 -0.628735 0.839962 0 -0.41456 0.448867 0 -0.320002 0.199958 0 -0.296409 -6.11646e-07 0 -541.768 1504.12 0 -349.929 578.183 0 -177.936 253.867 0 -85.49 126.903 0 -43.28 62.9704 0 -22.2434 35.5783 0 -12.7941 19.4435 0 -7.12418 11.5392 0 -4.44742 6.64258 0 -2.60191 3.9717 0 -1.67399 2.33725 0 -1.01754 1.37813 0 -0.671175 0.797792 0 -0.444773 0.429839 0 -0.338534 0.189973 0 -0.309969 -3.42727e-07 0 -851.482 1231.09 0 -425.368 477.396 0 -204.42 211.645 0 -96.482 106.088 0 -48.1753 55.1769 0 -24.9395 31.338 0 -14.0575 17.6935 0 -7.92892 10.5096 0 -4.82496 6.15692 0 -2.85316 3.68886 0 -1.79451 2.19026 0 -1.09743 1.29723 0 -0.712328 0.754244 0 -0.472772 0.409065 0 -0.356512 0.18061 0 -0.3237 4.91738e-07 0 -1044.79 942.684 0 -478.393 368.049 0 -221.325 166.291 0 -103.784 85.8897 0 -51.6929 46.8686 0 -26.998 27.21 0 -15.1114 15.8128 0 -8.5971 9.48135 0 -5.16341 5.64005 0 -3.07161 3.39974 0 -1.90623 2.03608 0 -1.16936 1.21323 0 -0.751299 0.709181 0 -0.498867 0.387201 0 -0.373771 0.171245 0 -0.337221 -5.36442e-07 0 -1149.49 648.024 0 -506.384 255.696 0 -229.084 120.738 0 -107.578 66.3954 0 -53.8998 38.5143 0 -28.4707 23.1623 0 -15.9464 13.8775 0 -9.14101 8.44797 0 -5.45719 5.10411 0 -3.26011 3.10409 0 -2.00751 1.87641 0 -1.23391 1.12644 0 -0.787676 0.662719 0 -0.52315 0.364448 0 -0.390231 0.16176 0 -0.350357 8.64267e-07 0 -1180.14 361.475 0 -509.974 145.966 0 -228.315 77.097 0 -108.186 47.9729 0 -54.899 30.3945 0 -29.4077 19.2216 0 -16.5647 11.9326 0 -9.56903 7.41332 0 -5.70396 4.55673 0 -3.42027 2.80313 0 -2.09746 1.71249 0 -1.29136 1.03726 0 -0.821211 0.615011 0 -0.545648 0.340939 0 -0.405836 0.152123 0 -0.363006 -8.19564e-07 0 -1148.24 95.5566 0 -491.373 43.8127 0 -219.954 37.0562 0 -106.026 31.0073 0 -54.8214 22.707 0 -29.8611 15.4264 0 -16.9749 10.011 0 -9.88838 6.38391 0 -5.90294 4.00399 0 -3.55325 2.49841 0 -2.17554 1.54542 0 -1.34191 0.946111 0 -0.851726 0.566228 0 -0.566371 0.316781 0 -0.420538 0.142325 0 -0.375089 8.34465e-07 0 -1064.88 -140.127 0 -453.674 -46.6765 0 -205.233 1.94876 0 -101.577 15.8164 0 -53.8188 15.5961 0 -29.8838 11.8114 0 -17.1905 8.14034 0 -10.1053 5.36591 0 -6.05478 3.45157 0 -3.65987 2.19142 0 -2.24157 1.37632 0 -1.38562 0.853393 0 -0.879118 0.51653 0 -0.585305 0.2921 0 -0.4343 0.132342 0 -0.386562 -6.85453e-07 0 -941.191 -338.823 0 -400.452 -122.255 0 -185.631 -27.2873 0 -95.3552 2.63807 0 -52.0542 9.15011 0 -29.5288 8.41015 0 -17.2284 6.34025 0 -10.2255 4.36635 0 -6.16113 2.90411 0 -3.74068 1.88378 0 -2.29562 1.20616 0 -1.42251 0.759517 0 -0.903348 0.466089 0 -0.602416 0.267001 0 -0.447095 0.122169 0 -0.397405 6.25849e-07 0 -787.807 -496.961 0 -335.55 -180.439 0 -162.816 -50.1301 0 -87.8762 -8.38662 0 -49.6947 3.40997 0 -28.8475 5.25157 0 -17.1083 4.62534 0 -10.2539 3.39172 0 -6.22479 2.36588 0 -3.79582 1.57697 0 -2.33815 1.03597 0 -1.45241 0.664881 0 -0.924475 0.41506 0 -0.617633 0.241617 0 -0.458911 0.111769 0 -0.407646 -6.85453e-07 0 -614.493 -613.726 0 -262.92 -219.247 0 -138.588 -66.6363 0 -79.6295 -17.1223 0 -46.8963 -1.68476 0 -27.8951 2.394 0 -16.8466 2.98627 0 -10.1978 2.45786 0 -6.24756 1.83604 0 -3.8262 1.27433 0 -2.36934 0.866032 0 -1.47539 0.570002 0 -0.942495 0.363671 0 -0.630929 0.215938 0 -0.469723 0.101269 0 -0.417289 5.36442e-07 0 -426.971 -692.915 0 -186.911 -237.146 0 -114.755 -77.3891 0 -71.0526 -23.4703 0 -43.7928 -6.27416 0 -26.7337 -0.0791186 0 -16.453 1.39101 0 -10.0693 1.59021 0 -6.22891 1.30824 0 -3.83426 0.981349 0 -2.38866 0.69579 0 -1.4919 0.475545 0 -0.957215 0.312239 0 -0.642376 0.189775 0 -0.479471 0.0910017 0 -0.426263 -8.9407e-08 0 -223.242 -746.463 0 -112.974 -233.494 0 -92.8769 -83.1321 0 -62.5679 -27.5471 0 -40.4459 -10.4871 0 -25.4649 -2.08895 0 -15.9063 -0.206786 0 -9.90018 0.823407 0 -6.15622 0.769331 0 -3.82962 0.706746 0 -2.39167 0.523265 0 -1.50455 0.382501 0 -0.967375 0.261218 0 -0.652569 0.162606 0 -0.487927 0.0817078 0 -0.433987 -2.08616e-07 0 36.9999 -818.622 0 -52.0742 -211.948 0 -73.2496 -81.6271 0 -54.7136 -31.6327 0 -36.8583 -13.3061 0 -24.1842 -4.16825 0 -15.1929 -1.5564 0 -9.7155 0.050806 0 -6.02104 0.267542 0 -3.81978 0.43442 0 -2.37513 0.354765 0 -1.51535 0.290204 0 -0.972068 0.210279 0 -0.661896 0.135454 0 -0.495005 0.0723613 0 -0.439953 2.38419e-07 0 561.347 -1197.31 0 -39.9443 -204.942 0 -50.1693 -44.5428 0 -49.1524 -54.7352 0 -32.9572 -4.06744 0 -22.7475 -12.1422 0 -14.5464 0.345016 0 -9.35115 -2.19277 0 -5.94101 0.475721 0 -3.73448 -0.112315 0 -2.38147 0.286978 0 -1.50055 0.180374 0 -0.984585 0.148983 0 -0.66306 0.128696 0 -0.504265 0.0395434 0 -0.44978 -1.66893e-06 0 </DataArray> 
</PointData> 
<Points> 
<DataArray type="Float32" NumberOfComponents="3"> 
0.125 0.021 0 0.129 0.0212667 0 0.133 0.0215333 0 0.137 0.0218 0 0.141 0.0220667 0 0.145 0.0223333 0 0.149 0.0226 0 0.153 0.0228667 0 0.157 0.0231333 0 0.161 0.0234 0 0.165 0.0236667 0 0.169 0.0239333 0 0.173 0.0242 0 0.177 0.0244667 0 0.181 0.0247333 0 0.185 0.025 0 0.125333 0.0219333 0 0.129311 0.02216 0 0.133289 0.0223867 0 0.137267 0.0226133 0 0.141244 0.02284 0 0.145222 0.0230667 0 0.1492 0.0232933 0 0.153178 0.02352 0 0.157156 0.0237467 0 0.161133 0.0239733 0 0.165111 0.0242 0 0.169089 0.0244267 0 0.173067 0.0246533 0 0.177044 0.02488 0 0.181022 0.0251067 0 0.185 0.0253333 0 0.125667 0.0228667 0 0.129622 0.0230533 0 0.133578 0.02324 0 0.137533 0.0234267 0 0.141489 0.0236133 0 0.145444 0.0238 0 0.1494 0.0239867 0 0.153356 0.0241733 0 0.157311 0.02436 0 0.161267 0.0245467 0 0.165222 0.0247333 0 0.169178 0.02492 0 0.173133 0.0251067 0 0.177089 0.0252933 0 0.181044 0.02548 0 0.185 0.0256667 0 0.126 0.0238 0 0.129933 0.0239467 0 0.133867 0.0240933 0 0.1378 0.02424 0 0.141733 0.0243867 0 0.145667 0.0245333 0 0.1496 0.02468 0 0.153533 0.0248267 0 0.157467 0.0249733 0 0.1614 0.02512 0 0.165333 0.0252667 0 0.169267 0.0254133 0 0.1732 0.02556 0 0.177133 0.0257067 0 0.181067 0.0258533 0 0.185 0.026 0 0.126333 0.0247333 0 0.130244 0.02484 0 0.134156 0.0249467 0 0.138067 0.0250533 0 0.141978 0.02516 0 0.145889 0.0252667 0 0.1498 0.0253733 0 0.153711 0.02548 0 0.157622 0.0255867 0 0.161533 0.0256933 0 0.165444 0.0258 0 0.169356 0.0259067 0 0.173267 0.0260133 0 0.177178 0.02612 0 0.181089 0.0262267 0 0.185 0.0263333 0 0.126667 0.0256667 0 0.130556 0.0257333 0 0.134444 0.0258 0 0.138333 0.0258667 0 0.142222 0.0259333 0 0.146111 0.026 0 0.15 0.0260667 0 0.153889 0.0261333 0 0.157778 0.0262 0 0.161667 0.0262667 0 0.165556 0.0263333 0 0.169444 0.0264 0 0.173333 0.0264667 0 0.177222 0.0265333 0 0.181111 0.0266 0 0.185 0.0266667 0 0.127 0.0266 0 0.130867 0.0266267 0 0.134733 0.0266533 0 0.1386 0.02668 0 0.142467 0.0267067 0 0.146333 0.0267333 0 0.1502 0.02676 0 0.154067 0.0267867 0 0.157933 0.0268133 0 0.1618 0.02684 0 0.165667 0.0268667 0 0.169533 0.0268933 0 0.1734 0.02692 0 0.177267 0.0269467 0 0.181133 0.0269733 0 0.185 0.027 0 0.127333 0.0275333 0 0.131178 0.02752 0 0.135022 0.0275067 0 0.138867 0.0274933 0 0.142711 0.02748 0 0.146556 0.0274667 0 0.1504 0.0274533 0 0.154244 0.02744 0 0.158089 0.0274267 0 0.161933 0.0274133 0 0.165778 0.0274 0 0.169622 0.0273867 0 0.173467 0.0273733 0 0.177311 0.02736 0 0.181156 0.0273467 0 0.185 0.0273333 0 0.127667 0.0284667 0 0.131489 0.0284133 0 0.135311 0.02836 0 0.139133 0.0283067 0 0.142956 0.0282533 0 0.146778 0.0282 0 0.1506 0.0281467 0 0.154422 0.0280933 0 0.158244 0.02804 0 0.162067 0.0279867 0 0.165889 0.0279333 0 0.169711 0.02788 0 0.173533 0.0278267 0 0.177356 0.0277733 0 0.181178 0.02772 0 0.185 0.0276667 0 0.128 0.0294 0 0.1318 0.0293067 0 0.1356 0.0292133 0 0.1394 0.02912 0 0.1432 0.0290267 0 0.147 0.0289333 0 0.1508 0.02884 0 0.1546 0.0287467 0 0.1584 0.0286533 0 0.1622 0.02856 0 0.166 0.0284667 0 0.1698 0.0283733 0 0.1736 0.02828 0 0.1774 0.0281867 0 0.1812 0.0280933 0 0.185 0.028 0 0.128333 0.0303333 0 0.132111 0.0302 0 0.135889 0.0300667 0 0.139667 0.0299333 0 0.143444 0.0298 0 0.147222 0.0296667 0 0.151 0.0295333 0 0.154778 0.0294 0 0.158556 0.0292667 0 0.162333 0.0291333 0 0.166111 0.029 0 0.169889 0.0288667 0 0.173667 0.0287333 0 0.177444 0.0286 0 0.181222 0.0284667 0 0.185 0.0283333 0 0.128667 0.0312667 0 0.132422 0.0310933 0 0.136178 0.03092 0 0.139933 0.0307467 0 0.143689 0.0305733 0 0.147444 0.0304 0 0.1512 0.0302267 0 0.154956 0.0300533 0 0.158711 0.02988 0 0.162467 0.0297067 0 0.166222 0.0295333 0 0.169978 0.02936 0 0.173733 0.0291867 0 0.177489 0.0290133 0 0.181244 0.02884 0 0.185 0.0286667 0 0.129 0.0322 0 0.132733 0.0319867 0 0.136467 0.0317733 0 0.1402 0.03156 0 0.143933 0.0313467 0 0.147667 0.0311333 0 0.1514 0.03092 0 0.155133 0.0307067 0 0.158867 0.0304933 0 0.1626 0.03028 0 0.166333 0.0300667 0 0.170067 0.0298533 0 0.1738 0.02964 0 0.177533 0.0294267 0 0.181267 0.0292133 0 0.185 0.029 0 0.129333 0.0331333 0 0.133044 0.03288 0 0.136756 0.0326267 0 0.140467 0.0323733 0 0.144178 0.03212 0 0.147889 0.0318667 0 0.1516 0.0316133 0 0.155311 0.03136 0 0.159022 0.0311067 0 0.162733 0.0308533 0 0.166444 0.0306 0 0.170156 0.0303467 0 0.173867 0.0300933 0 0.177578 0.02984 0 0.181289 0.0295867 0 0.185 0.0293333 0 0.129667 0.0340667 0 0.133356 0.0337733 0 0.137044 0.03348 0 0.140733 0.0331867 0 0.144422 0.0328933 0 0.148111 0.0326 0 0.1518 0.0323067 0 0.155489 0.0320133 0 0.159178 0.03172 0 0.162867 0.0314267 0 0.166556 0.0311333 0 0.170244 0.03084 0 0.173933 0.0305467 0 0.177622 0.0302533 0 0.181311 0.02996 0 0.185 0.0296667 0 0.13 0.035 0 0.133667 0.0346667 0 0.137333 0.0343333 0 0.141 0.034 0 0.144667 0.0336667 0 0.148333 0.0333333 0 0.152 0.033 0 0.155667 0.0326667 0 0.159333 0.0323333 0 0.163 0.032 0 0.166667 0.0316667 0 0.170333 0.0313333 0 0.174 0.031 0 0.177667 0.0306667 0 0.181333 0.0303333 0 0.185 0.03 0 
</DataArray>
</Points> 
</Piece> 
</StructuredGrid> 
</VTKFile> 
