<?xml version="1.0"?> 
<VTKFile type="StructuredGrid" version="0.1"> 
<StructuredGrid WholeExtent="0 15 0 15 0 0"> 
<Piece Extent="0 15 0 15 0 0"> 
<PointData>
<DataArray type="Float32" Name="|E|" format="ascii" NumberOfComponents="3"> 
-1.78814e-07 5.85323e+06 0 2.06637e-09 3.76762e+06 0 5.12227e-08 2.66654e+06 0 -4.56348e-08 2.00985e+06 0 3.49246e-08 1.51945e+06 0 -7.45058e-09 1.11349e+06 0 3.25963e-08 768992 0 -5.58794e-08 489924 0 5.40167e-08 285715 0 -5.40167e-08 153961 0 9.68575e-08 78343 0 -1.22935e-07 38486.3 0 1.08033e-07 18576.4 0 -8.56817e-08 8858.12 0 3.72529e-08 4279.28 0 0 2843.34 0 -508020 4.2285e+06 0 -272676 2.95268e+06 0 -173100 2.22402e+06 0 -133977 1.7088e+06 0 -112729 1.28974e+06 0 -96607.9 931381 0 -79113.6 628994 0 -58877.7 391759 0 -38875.5 225072 0 -22954.3 121080 0 -12473.6 62299.3 0 -6435.27 31238.4 0 -3228.39 15450.3 0 -1592.01 7608.34 0 -768.583 3756.69 0 -118.664 1832.56 0 -622930 3.13209e+06 0 -381965 2.38531e+06 0 -286955 1.86214e+06 0 -239445 1.43888e+06 0 -207028 1.07474e+06 0 -176033 758793 0 -139461 497646 0 -99484.2 301318 0 -63425.7 170018 0 -36823 91175.3 0 -20040.9 47406.1 0 -10500 24242 0 -5387.2 12297.2 0 -2728.85 6219.91 0 -1340.56 3161.6 0 -540.176 1503.55 0 -606859 2.46347e+06 0 -452884 1.96851e+06 0 -376274 1.55332e+06 0 -326698 1.19213e+06 0 -284492 871577 0 -236053 595210 0 -179224 375495 0 -122254 219773 0 -75521.8 121603 0 -43320.6 65049.8 0 -23711.1 34210.1 0 -12640.2 17849.4 0 -6639.44 9283.03 0 -3452.45 4826.15 0 -1751.72 2512.43 0 -855.265 1232.44 0 -619680 2.01961e+06 0 -517023 1.6272e+06 0 -451160 1.27788e+06 0 -399229 961059 0 -342782 677667 0 -273354 440985 0 -197350 264597 0 -128799 148970 0 -77522.1 80857.7 0 -44217.2 43247.7 0 -24450.2 23044 0 -13291.4 12276.5 0 -7155.28 6546.75 0 -3821.14 3497.42 0 -2007.57 1860.91 0 -1052.71 945.515 0 -654140 1.65799e+06 0 -575218 1.32842e+06 0 -515848 1.02261e+06 0 -454442 739443 0 -376621 491988 0 -284673 299009 0 -194589 168424 0 -122048 90826.7 0 -72168.9 48433.7 0 -41242.7 25960.8 0 -23144.4 14030.8 0 -12859.8 7633.83 0 -7102.25 4173.63 0 -3898.53 2288.13 0 -2118.98 1242.99 0 -1158.14 651.113 0 -693589 1.34225e+06 0 -630421 1.05361e+06 0 -566932 776352 0 -484151 523420 0 -379364 317901 0 -268997 175262 0 -174355 90891 0 -106096 46548.6 0 -62310.7 24301.5 0 -35956.1 13013.8 0 -20565.3 7112.54 0 -11704.1 3942.28 0 -6637.8 2204.99 0 -3748.16 1236.37 0 -2104.55 682.279 0 -1187.97 364.271 0 -739541 1.05273e+06 0 -677391 785660 0 -592016 530801 0 -476420 316320 0 -346866 164975 0 -230071 77294.9 0 -142792 34656.1 0 -85554.1 15900.9 0 -50508.1 7697.86 0 -29637.4 3930.64 0 -17339.3 2096.08 0 -10125.7 1154.16 0 -5902.46 647.938 0 -3430.55 363.004 0 -1987.26 194.363 0 -1154.99 97.9699 0 -784099 764794 0 -697418 509943 0 -570853 289142 0 -421927 133117 0 -283097 46853.8 0 -177329 10645.2 0 -107473 -654.593 0 -64538.7 -2933.42 0 -38712.6 -2679.8 0 -23226.1 -1947.75 0 -13938.3 -1294.56 0 -8364.33 -824.927 0 -5015.23 -516.837 0 -3001.28 -325.972 0 -1791.72 -211.632 0 -1070.36 -138.17 0 -798354 456272 0 -657019 230553 0 -486268 75334.3 0 -325385 -2598.15 0 -203140 -26061.9 0 -123395 -25327.8 0 -74966.5 -18805.4 0 -45829.5 -12777.1 0 -28141 -8346.96 0 -17327.4 -5336.56 0 -10688.4 -3370.64 0 -6598.31 -2116.1 0 -4072.05 -1327.18 0 -2509.27 -836.475 0 -1542.13 -532.021 0 -945.171 -337.402 0 -727187 135216 0 -528658 -12047.2 0 -346452 -70905.4 0 -212299 -73329.8 0 -128115 -55762 0 -78488.3 -38200.2 0 -48858 -25336.6 0 -30678.4 -16566.7 0 -19364.8 -10730.9 0 -12267.9 -6912.63 0 -7789.43 -4440.56 0 -4950.66 -2850.43 0 -3145.8 -1832.47 0 -1995.73 -1183.1 0 -1260.89 -767.962 0 -790.345 -496.055 0 -532841 -127615 0 -333129 -152849 0 -196823 -124327 0 -117355 -86379 0 -72717 -57450.3 0 -46235.2 -38134 0 -29715.3 -25286.9 0 -19228.4 -16703.8 0 -12508.8 -11014.5 0 -8166.14 -7258.6 0 -5341.74 -4784.19 0 -3496.89 -3156.47 0 -2288.19 -2087.48 0 -1493.66 -1386.26 0 -967.768 -924.865 0 -615.592 -613.334 0 -272455 -233382 0 -152549 -165468 0 -90648.5 -108302 0 -57823.8 -71457.9 0 -37848.9 -48207.5 0 -24945.2 -32643.6 0 -16554.8 -22061.2 0 -11067.8 -14913.4 0 -7430.89 -10095.2 0 -5002.9 -6839.09 0 -3372.7 -4638.85 0 -2274.66 -3151.64 0 -1532.42 -2147.36 0 -1027.99 -1469.79 0 -679.505 -1011.76 0 -429.863 -691.883 0 -86551.8 -178528 0 -55143 -112100 0 -37679.5 -76029.7 0 -25481.7 -53086.2 0 -17165.2 -36871.7 0 -11696.7 -25531.1 0 -8051.37 -17722.8 0 -5566.05 -12337.9 0 -3857.89 -8599.32 0 -2678.87 -6001.29 0 -1861.42 -4194.3 0 -1293.28 -2937.4 0 -896.414 -2064.07 0 -616.416 -1458.87 0 -410.559 -1040.94 0 -236.7 -741.657 0 -25256.8 -96762.7 0 -17987.3 -71846.2 0 -11856.9 -52112.3 0 -8065.02 -36933.5 0 -5707.72 -26222.1 0 -4064.25 -18747.9 0 -2896.36 -13442.3 0 -2066.68 -9648.02 0 -1479.04 -6932.28 0 -1058.79 -4988.06 0 -758.383 -3594.66 0 -542.47 -2596.93 0 -386.368 -1883.81 0 -270.893 -1378.34 0 -176.183 -1027.78 0 -44.8755 -789.381 0 1.01328e-06 -53541.1 0 -9.27248e-08 -41671.2 0 1.72295e-08 -33121.2 0 -6.98492e-09 -24499.7 0 -2.04891e-08 -17860.6 0 -1.30385e-08 -13153.5 0 8.19564e-08 -9728.93 0 -8.9407e-08 -7203.34 0 3.35276e-08 -5336.4 0 -7.07805e-08 -3959.66 0 7.45058e-08 -2943.52 0 -4.47035e-08 -2194.46 0 1.49012e-08 -1645.72 0 -8.19564e-08 -1247.4 0 4.47035e-08 -984.331 0 -2.38419e-07 -996.832 0 </DataArray> 
</PointData> 
<Points> 
<DataArray type="Float32" NumberOfComponents="3"> 
0.075 0.021 0 0.0783333 0.021 0 0.0816667 0.021 0 0.085 0.021 0 0.0883333 0.021 0 0.0916667 0.021 0 0.095 0.021 0 0.0983333 0.021 0 0.101667 0.021 0 0.105 0.021 0 0.108333 0.021 0 0.111667 0.021 0 0.115 0.021 0 0.118333 0.021 0 0.121667 0.021 0 0.125 0.021 0 0.0773333 0.0219333 0 0.0805333 0.0219333 0 0.0837333 0.0219333 0 0.0869333 0.0219333 0 0.0901333 0.0219333 0 0.0933333 0.0219333 0 0.0965333 0.0219333 0 0.0997333 0.0219333 0 0.102933 0.0219333 0 0.106133 0.0219333 0 0.109333 0.0219333 0 0.112533 0.0219333 0 0.115733 0.0219333 0 0.118933 0.0219333 0 0.122133 0.0219333 0 0.125333 0.0219333 0 0.0796667 0.0228667 0 0.0827333 0.0228667 0 0.0858 0.0228667 0 0.0888667 0.0228667 0 0.0919333 0.0228667 0 0.095 0.0228667 0 0.0980667 0.0228667 0 0.101133 0.0228667 0 0.1042 0.0228667 0 0.107267 0.0228667 0 0.110333 0.0228667 0 0.1134 0.0228667 0 0.116467 0.0228667 0 0.119533 0.0228667 0 0.1226 0.0228667 0 0.125667 0.0228667 0 0.082 0.0238 0 0.0849333 0.0238 0 0.0878667 0.0238 0 0.0908 0.0238 0 0.0937333 0.0238 0 0.0966667 0.0238 0 0.0996 0.0238 0 0.102533 0.0238 0 0.105467 0.0238 0 0.1084 0.0238 0 0.111333 0.0238 0 0.114267 0.0238 0 0.1172 0.0238 0 0.120133 0.0238 0 0.123067 0.0238 0 0.126 0.0238 0 0.0843333 0.0247333 0 0.0871333 0.0247333 0 0.0899333 0.0247333 0 0.0927333 0.0247333 0 0.0955333 0.0247333 0 0.0983333 0.0247333 0 0.101133 0.0247333 0 0.103933 0.0247333 0 0.106733 0.0247333 0 0.109533 0.0247333 0 0.112333 0.0247333 0 0.115133 0.0247333 0 0.117933 0.0247333 0 0.120733 0.0247333 0 0.123533 0.0247333 0 0.126333 0.0247333 0 0.0866667 0.0256667 0 0.0893333 0.0256667 0 0.092 0.0256667 0 0.0946667 0.0256667 0 0.0973333 0.0256667 0 0.1 0.0256667 0 0.102667 0.0256667 0 0.105333 0.0256667 0 0.108 0.0256667 0 0.110667 0.0256667 0 0.113333 0.0256667 0 0.116 0.0256667 0 0.118667 0.0256667 0 0.121333 0.0256667 0 0.124 0.0256667 0 0.126667 0.0256667 0 0.089 0.0266 0 0.0915333 0.0266 0 0.0940667 0.0266 0 0.0966 0.0266 0 0.0991333 0.0266 0 0.101667 0.0266 0 0.1042 0.0266 0 0.106733 0.0266 0 0.109267 0.0266 0 0.1118 0.0266 0 0.114333 0.0266 0 0.116867 0.0266 0 0.1194 0.0266 0 0.121933 0.0266 0 0.124467 0.0266 0 0.127 0.0266 0 0.0913333 0.0275333 0 0.0937333 0.0275333 0 0.0961333 0.0275333 0 0.0985333 0.0275333 0 0.100933 0.0275333 0 0.103333 0.0275333 0 0.105733 0.0275333 0 0.108133 0.0275333 0 0.110533 0.0275333 0 0.112933 0.0275333 0 0.115333 0.0275333 0 0.117733 0.0275333 0 0.120133 0.0275333 0 0.122533 0.0275333 0 0.124933 0.0275333 0 0.127333 0.0275333 0 0.0936667 0.0284667 0 0.0959333 0.0284667 0 0.0982 0.0284667 0 0.100467 0.0284667 0 0.102733 0.0284667 0 0.105 0.0284667 0 0.107267 0.0284667 0 0.109533 0.0284667 0 0.1118 0.0284667 0 0.114067 0.0284667 0 0.116333 0.0284667 0 0.1186 0.0284667 0 0.120867 0.0284667 0 0.123133 0.0284667 0 0.1254 0.0284667 0 0.127667 0.0284667 0 0.096 0.0294 0 0.0981333 0.0294 0 0.100267 0.0294 0 0.1024 0.0294 0 0.104533 0.0294 0 0.106667 0.0294 0 0.1088 0.0294 0 0.110933 0.0294 0 0.113067 0.0294 0 0.1152 0.0294 0 0.117333 0.0294 0 0.119467 0.0294 0 0.1216 0.0294 0 0.123733 0.0294 0 0.125867 0.0294 0 0.128 0.0294 0 0.0983333 0.0303333 0 0.100333 0.0303333 0 0.102333 0.0303333 0 0.104333 0.0303333 0 0.106333 0.0303333 0 0.108333 0.0303333 0 0.110333 0.0303333 0 0.112333 0.0303333 0 0.114333 0.0303333 0 0.116333 0.0303333 0 0.118333 0.0303333 0 0.120333 0.0303333 0 0.122333 0.0303333 0 0.124333 0.0303333 0 0.126333 0.0303333 0 0.128333 0.0303333 0 0.100667 0.0312667 0 0.102533 0.0312667 0 0.1044 0.0312667 0 0.106267 0.0312667 0 0.108133 0.0312667 0 0.11 0.0312667 0 0.111867 0.0312667 0 0.113733 0.0312667 0 0.1156 0.0312667 0 0.117467 0.0312667 0 0.119333 0.0312667 0 0.1212 0.0312667 0 0.123067 0.0312667 0 0.124933 0.0312667 0 0.1268 0.0312667 0 0.128667 0.0312667 0 0.103 0.0322 0 0.104733 0.0322 0 0.106467 0.0322 0 0.1082 0.0322 0 0.109933 0.0322 0 0.111667 0.0322 0 0.1134 0.0322 0 0.115133 0.0322 0 0.116867 0.0322 0 0.1186 0.0322 0 0.120333 0.0322 0 0.122067 0.0322 0 0.1238 0.0322 0 0.125533 0.0322 0 0.127267 0.0322 0 0.129 0.0322 0 0.105333 0.0331333 0 0.106933 0.0331333 0 0.108533 0.0331333 0 0.110133 0.0331333 0 0.111733 0.0331333 0 0.113333 0.0331333 0 0.114933 0.0331333 0 0.116533 0.0331333 0 0.118133 0.0331333 0 0.119733 0.0331333 0 0.121333 0.0331333 0 0.122933 0.0331333 0 0.124533 0.0331333 0 0.126133 0.0331333 0 0.127733 0.0331333 0 0.129333 0.0331333 0 0.107667 0.0340667 0 0.109133 0.0340667 0 0.1106 0.0340667 0 0.112067 0.0340667 0 0.113533 0.0340667 0 0.115 0.0340667 0 0.116467 0.0340667 0 0.117933 0.0340667 0 0.1194 0.0340667 0 0.120867 0.0340667 0 0.122333 0.0340667 0 0.1238 0.0340667 0 0.125267 0.0340667 0 0.126733 0.0340667 0 0.1282 0.0340667 0 0.129667 0.0340667 0 0.11 0.035 0 0.111333 0.035 0 0.112667 0.035 0 0.114 0.035 0 0.115333 0.035 0 0.116667 0.035 0 0.118 0.035 0 0.119333 0.035 0 0.120667 0.035 0 0.122 0.035 0 0.123333 0.035 0 0.124667 0.035 0 0.126 0.035 0 0.127333 0.035 0 0.128667 0.035 0 0.13 0.035 0 
</DataArray>
</Points> 
</Piece> 
</StructuredGrid> 
</VTKFile> 
