<?xml version="1.0"?> 
<VTKFile type="StructuredGrid" version="0.1"> 
<StructuredGrid WholeExtent="0 15 0 15 0 0"> 
<Piece Extent="0 15 0 15 0 0"> 
<PointData>
<DataArray type="Float32" Name="|E|" format="ascii" NumberOfComponents="3"> 
-2.08029e+06 167610 0 -2.11239e+06 211721 0 -2.15195e+06 257735 0 -2.19922e+06 306663 0 -2.25471e+06 358826 0 -2.31899e+06 414679 0 -2.39227e+06 477116 0 -2.47672e+06 542300 0 -2.57291e+06 625428 0 -2.68354e+06 715268 0 -2.8183e+06 779668 0 -2.97152e+06 1.00455e+06 0 -3.20726e+06 1.11635e+06 0 -3.49153e+06 1.03727e+06 0 -4.26943e+06 2.22067e+06 0 -8.39028e+06 2.68289e+07 0 -2.11714e+06 240161 0 -2.15674e+06 286322 0 -2.20325e+06 335172 0 -2.2571e+06 387336 0 -2.31859e+06 443727 0 -2.38806e+06 504402 0 -2.46741e+06 572911 0 -2.55649e+06 649224 0 -2.65866e+06 732634 0 -2.77967e+06 846948 0 -2.91206e+06 960132 0 -3.12107e+06 1.10342e+06 0 -3.3117e+06 1.43573e+06 0 -3.89271e+06 1.82432e+06 0 -4.19935e+06 3.52082e+06 0 196088 2.46823e+06 0 -2.16694e+06 322437 0 -2.2132e+06 371433 0 -2.26592e+06 423739 0 -2.32528e+06 480104 0 -2.39178e+06 541281 0 -2.46674e+06 609709 0 -2.55045e+06 686198 0 -2.64476e+06 771067 0 -2.75437e+06 879173 0 -2.87662e+06 991841 0 -3.04466e+06 1.15121e+06 0 -3.22136e+06 1.47499e+06 0 -3.54794e+06 1.65767e+06 0 -3.78223e+06 2.97306e+06 0 -2.02702e+06 4.39209e+06 0 -634732 3.1616e+06 0 -2.22981e+06 416344 0 -2.28175e+06 469085 0 -2.33941e+06 526109 0 -2.40346e+06 588503 0 -2.47485e+06 657452 0 -2.55386e+06 734115 0 -2.64174e+06 819772 0 -2.74184e+06 924548 0 -2.8537e+06 1.04728e+06 0 -2.992e+06 1.21485e+06 0 -3.14732e+06 1.49013e+06 0 -3.34945e+06 1.69937e+06 0 -3.4484e+06 2.72648e+06 0 -2.41565e+06 3.76945e+06 0 -1.00858e+06 3.27957e+06 0 -691258 2.67447e+06 0 -2.30519e+06 525643 0 -2.36146e+06 584098 0 -2.42354e+06 647785 0 -2.49196e+06 717027 0 -2.56665e+06 794200 0 -2.64858e+06 882600 0 -2.73979e+06 990668 0 -2.84043e+06 1.12318e+06 0 -2.95687e+06 1.29282e+06 0 -3.08519e+06 1.53546e+06 0 -3.20375e+06 1.81094e+06 0 -3.16508e+06 2.61728e+06 0 -2.42894e+06 3.33698e+06 0 -1.3629e+06 3.1186e+06 0 -831118 2.49656e+06 0 -604701 1.98216e+06 0 -2.39236e+06 656064 0 -2.45273e+06 720288 0 -2.5181e+06 790589 0 -2.58799e+06 871316 0 -2.66352e+06 966460 0 -2.74586e+06 1.08139e+06 0 -2.83502e+06 1.22022e+06 0 -2.93183e+06 1.39188e+06 0 -3.0238e+06 1.62962e+06 0 -3.05922e+06 1.95741e+06 0 -2.90214e+06 2.58412e+06 0 -2.30043e+06 3.04056e+06 0 -1.51059e+06 2.88565e+06 0 -1.02166e+06 2.45434e+06 0 -792442 2.04534e+06 0 -652643 1.65424e+06 0 -2.49071e+06 808939 0 -2.55189e+06 885003 0 -2.61592e+06 973603 0 -2.68468e+06 1.07753e+06 0 -2.75788e+06 1.19874e+06 0 -2.83307e+06 1.34358e+06 0 -2.90269e+06 1.52599e+06 0 -2.93974e+06 1.77735e+06 0 -2.88106e+06 2.11835e+06 0 -2.63047e+06 2.5737e+06 0 -2.11134e+06 2.81271e+06 0 -1.52987e+06 2.65342e+06 0 -1.14361e+06 2.33313e+06 0 -924897 1.99606e+06 0 -783000 1.65826e+06 0 -695092 1.34601e+06 0 -2.59117e+06 1.01241e+06 0 -2.64846e+06 1.10779e+06 0 -2.70952e+06 1.22035e+06 0 -2.7688e+06 1.34879e+06 0 -2.81826e+06 1.50672e+06 0 -2.8402e+06 1.70746e+06 0 -2.79904e+06 1.96353e+06 0 -2.64432e+06 2.2606e+06 0 -2.33736e+06 2.53932e+06 0 -1.89983e+06 2.60508e+06 0 -1.4841e+06 2.42816e+06 0 -1.20303e+06 2.17017e+06 0 -1.01926e+06 1.89043e+06 0 -889746 1.6007e+06 0 -803221 1.32365e+06 0 -739663 1.05304e+06 0 -2.67921e+06 1.27568e+06 0 -2.72472e+06 1.40655e+06 0 -2.75229e+06 1.54553e+06 0 -2.75139e+06 1.71986e+06 0 -2.69987e+06 1.92257e+06 0 -2.56991e+06 2.13938e+06 0 -2.34357e+06 2.33426e+06 0 -2.03353e+06 2.44398e+06 0 -1.69561e+06 2.38789e+06 0 -1.41695e+06 2.20225e+06 0 -1.2238e+06 1.98106e+06 0 -1.08003e+06 1.74187e+06 0 -971333 1.49494e+06 0 -896367 1.25603e+06 0 -841023 1.01505e+06 0 -784679 766244 0 -2.68649e+06 1.65868e+06 0 -2.65041e+06 1.78254e+06 0 -2.57607e+06 1.95175e+06 0 -2.44395e+06 2.10467e+06 0 -2.24952e+06 2.22619e+06 0 -2.00848e+06 2.29316e+06 0 -1.75474e+06 2.2725e+06 0 -1.52873e+06 2.1488e+06 0 -1.35664e+06 1.96484e+06 0 -1.22576e+06 1.76587e+06 0 -1.11618e+06 1.55764e+06 0 -1.03217e+06 1.34988e+06 0 -975913 1.14564e+06 0 -933931 929091 0 -883151 693934 0 -798228 455958 0 -2.39508e+06 1.95931e+06 0 -2.26445e+06 2.11076e+06 0 -2.08834e+06 2.15094e+06 0 -1.89504e+06 2.16042e+06 0 -1.7098e+06 2.12933e+06 0 -1.54939e+06 2.03432e+06 0 -1.41893e+06 1.8797e+06 0 -1.3118e+06 1.69905e+06 0 -1.21684e+06 1.51844e+06 0 -1.13696e+06 1.34354e+06 0 -1.08362e+06 1.17393e+06 0 -1.05311e+06 995807 0 -1.02534e+06 790962 0 -973188 560769 0 -874272 329943 0 -726383 133204 0 -1.90042e+06 2.1453e+06 0 -1.73913e+06 1.98591e+06 0 -1.61817e+06 1.95026e+06 0 -1.5202e+06 1.87718e+06 0 -1.43189e+06 1.73575e+06 0 -1.34705e+06 1.55944e+06 0 -1.26769e+06 1.39001e+06 0 -1.20346e+06 1.24431e+06 0 -1.16616e+06 1.11187e+06 0 -1.15456e+06 969113 0 -1.14812e+06 792712 0 -1.11779e+06 576703 0 -1.03879e+06 341530 0 -902293 124524 0 -722944 -38125.9 0 -532090 -129491 0 -1.49542e+06 1.54582e+06 0 -1.47699e+06 1.69836e+06 0 -1.41579e+06 1.5481e+06 0 -1.34157e+06 1.33251e+06 0 -1.28029e+06 1.16089e+06 0 -1.2485e+06 1.04914e+06 0 -1.24916e+06 962369 0 -1.26881e+06 852942 0 -1.27944e+06 689861 0 -1.25034e+06 473242 0 -1.16144e+06 231466 0 -1.01044e+06 7696.01 0 -814838 -158647 0 -606409 -247664 0 -418345 -264422 0 -272712 -232741 0 -1.44927e+06 1.54478e+06 0 -1.33437e+06 924709 0 -1.31279e+06 744775 0 -1.3493e+06 738816 0 -1.40428e+06 734139 0 -1.43901e+06 645283 0 -1.4216e+06 456864 0 -1.33412e+06 203882 0 -1.17773e+06 -54755.8 0 -970653 -264833 0 -742185 -392659 0 -524806 -431225 0 -344662 -398505 0 -214528 -326181 0 -132621 -245610 0 -87167.1 -176990 0 -1.42468e+06 -56882.9 0 -1.59801e+06 409889 0 -1.62706e+06 440236 0 -1.53313e+06 222734 0 -1.34568e+06 -89187.3 0 -1.10015e+06 -382901 0 -834541 -587392 0 -583532 -675484 0 -372469 -658474 0 -215213 -568424 0 -113611 -444460 0 -58773.6 -322458 0 -35767.5 -225104 0 -29254.8 -159207 0 -27703.5 -119799 0 -25249 -96782.2 0 2.6226e-06 -1.05855e+07 0 -2.44472e-07 -4.76681e+06 0 -2.14204e-08 -1.33437e+06 0 1.96509e-07 365253 0 -6.51926e-08 920911 0 -7.45058e-09 828136 0 2.23517e-08 465561 0 -1.49012e-07 82605.9 0 2.5332e-07 -189959 0 -2.68221e-07 -314491 0 2.68221e-07 -316736 0 -1.3411e-07 -251146 0 1.78814e-07 -169895 0 -1.93715e-07 -105780 0 2.08616e-07 -68914.7 0 -1.78814e-06 -53541.1 0 </DataArray> 
</PointData> 
<Points> 
<DataArray type="Float32" NumberOfComponents="3"> 
0.016 0.021 0 0.0199333 0.021 0 0.0238667 0.021 0 0.0278 0.021 0 0.0317333 0.021 0 0.0356667 0.021 0 0.0396 0.021 0 0.0435333 0.021 0 0.0474667 0.021 0 0.0514 0.021 0 0.0553333 0.021 0 0.0592667 0.021 0 0.0632 0.021 0 0.0671333 0.021 0 0.0710667 0.021 0 0.075 0.021 0 0.0216 0.0219333 0 0.0253156 0.0219333 0 0.0290311 0.0219333 0 0.0327467 0.0219333 0 0.0364622 0.0219333 0 0.0401778 0.0219333 0 0.0438933 0.0219333 0 0.0476089 0.0219333 0 0.0513244 0.0219333 0 0.05504 0.0219333 0 0.0587556 0.0219333 0 0.0624711 0.0219333 0 0.0661867 0.0219333 0 0.0699022 0.0219333 0 0.0736178 0.0219333 0 0.0773333 0.0219333 0 0.0272 0.0228667 0 0.0306978 0.0228667 0 0.0341956 0.0228667 0 0.0376933 0.0228667 0 0.0411911 0.0228667 0 0.0446889 0.0228667 0 0.0481867 0.0228667 0 0.0516844 0.0228667 0 0.0551822 0.0228667 0 0.05868 0.0228667 0 0.0621778 0.0228667 0 0.0656756 0.0228667 0 0.0691733 0.0228667 0 0.0726711 0.0228667 0 0.0761689 0.0228667 0 0.0796667 0.0228667 0 0.0328 0.0238 0 0.03608 0.0238 0 0.03936 0.0238 0 0.04264 0.0238 0 0.04592 0.0238 0 0.0492 0.0238 0 0.05248 0.0238 0 0.05576 0.0238 0 0.05904 0.0238 0 0.06232 0.0238 0 0.0656 0.0238 0 0.06888 0.0238 0 0.07216 0.0238 0 0.07544 0.0238 0 0.07872 0.0238 0 0.082 0.0238 0 0.0384 0.0247333 0 0.0414622 0.0247333 0 0.0445244 0.0247333 0 0.0475867 0.0247333 0 0.0506489 0.0247333 0 0.0537111 0.0247333 0 0.0567733 0.0247333 0 0.0598356 0.0247333 0 0.0628978 0.0247333 0 0.06596 0.0247333 0 0.0690222 0.0247333 0 0.0720844 0.0247333 0 0.0751467 0.0247333 0 0.0782089 0.0247333 0 0.0812711 0.0247333 0 0.0843333 0.0247333 0 0.044 0.0256667 0 0.0468444 0.0256667 0 0.0496889 0.0256667 0 0.0525333 0.0256667 0 0.0553778 0.0256667 0 0.0582222 0.0256667 0 0.0610667 0.0256667 0 0.0639111 0.0256667 0 0.0667556 0.0256667 0 0.0696 0.0256667 0 0.0724444 0.0256667 0 0.0752889 0.0256667 0 0.0781333 0.0256667 0 0.0809778 0.0256667 0 0.0838222 0.0256667 0 0.0866667 0.0256667 0 0.0496 0.0266 0 0.0522267 0.0266 0 0.0548533 0.0266 0 0.05748 0.0266 0 0.0601067 0.0266 0 0.0627333 0.0266 0 0.06536 0.0266 0 0.0679867 0.0266 0 0.0706133 0.0266 0 0.07324 0.0266 0 0.0758667 0.0266 0 0.0784933 0.0266 0 0.08112 0.0266 0 0.0837467 0.0266 0 0.0863733 0.0266 0 0.089 0.0266 0 0.0552 0.0275333 0 0.0576089 0.0275333 0 0.0600178 0.0275333 0 0.0624267 0.0275333 0 0.0648356 0.0275333 0 0.0672444 0.0275333 0 0.0696533 0.0275333 0 0.0720622 0.0275333 0 0.0744711 0.0275333 0 0.07688 0.0275333 0 0.0792889 0.0275333 0 0.0816978 0.0275333 0 0.0841067 0.0275333 0 0.0865156 0.0275333 0 0.0889244 0.0275333 0 0.0913333 0.0275333 0 0.0608 0.0284667 0 0.0629911 0.0284667 0 0.0651822 0.0284667 0 0.0673733 0.0284667 0 0.0695644 0.0284667 0 0.0717556 0.0284667 0 0.0739467 0.0284667 0 0.0761378 0.0284667 0 0.0783289 0.0284667 0 0.08052 0.0284667 0 0.0827111 0.0284667 0 0.0849022 0.0284667 0 0.0870933 0.0284667 0 0.0892844 0.0284667 0 0.0914756 0.0284667 0 0.0936667 0.0284667 0 0.0664 0.0294 0 0.0683733 0.0294 0 0.0703467 0.0294 0 0.07232 0.0294 0 0.0742933 0.0294 0 0.0762667 0.0294 0 0.07824 0.0294 0 0.0802133 0.0294 0 0.0821867 0.0294 0 0.08416 0.0294 0 0.0861333 0.0294 0 0.0881067 0.0294 0 0.09008 0.0294 0 0.0920533 0.0294 0 0.0940267 0.0294 0 0.096 0.0294 0 0.072 0.0303333 0 0.0737556 0.0303333 0 0.0755111 0.0303333 0 0.0772667 0.0303333 0 0.0790222 0.0303333 0 0.0807778 0.0303333 0 0.0825333 0.0303333 0 0.0842889 0.0303333 0 0.0860444 0.0303333 0 0.0878 0.0303333 0 0.0895556 0.0303333 0 0.0913111 0.0303333 0 0.0930667 0.0303333 0 0.0948222 0.0303333 0 0.0965778 0.0303333 0 0.0983333 0.0303333 0 0.0776 0.0312667 0 0.0791378 0.0312667 0 0.0806756 0.0312667 0 0.0822133 0.0312667 0 0.0837511 0.0312667 0 0.0852889 0.0312667 0 0.0868267 0.0312667 0 0.0883644 0.0312667 0 0.0899022 0.0312667 0 0.09144 0.0312667 0 0.0929778 0.0312667 0 0.0945156 0.0312667 0 0.0960533 0.0312667 0 0.0975911 0.0312667 0 0.0991289 0.0312667 0 0.100667 0.0312667 0 0.0832 0.0322 0 0.08452 0.0322 0 0.08584 0.0322 0 0.08716 0.0322 0 0.08848 0.0322 0 0.0898 0.0322 0 0.09112 0.0322 0 0.09244 0.0322 0 0.09376 0.0322 0 0.09508 0.0322 0 0.0964 0.0322 0 0.09772 0.0322 0 0.09904 0.0322 0 0.10036 0.0322 0 0.10168 0.0322 0 0.103 0.0322 0 0.0888 0.0331333 0 0.0899022 0.0331333 0 0.0910044 0.0331333 0 0.0921067 0.0331333 0 0.0932089 0.0331333 0 0.0943111 0.0331333 0 0.0954133 0.0331333 0 0.0965156 0.0331333 0 0.0976178 0.0331333 0 0.09872 0.0331333 0 0.0998222 0.0331333 0 0.100924 0.0331333 0 0.102027 0.0331333 0 0.103129 0.0331333 0 0.104231 0.0331333 0 0.105333 0.0331333 0 0.0944 0.0340667 0 0.0952844 0.0340667 0 0.0961689 0.0340667 0 0.0970533 0.0340667 0 0.0979378 0.0340667 0 0.0988222 0.0340667 0 0.0997067 0.0340667 0 0.100591 0.0340667 0 0.101476 0.0340667 0 0.10236 0.0340667 0 0.103244 0.0340667 0 0.104129 0.0340667 0 0.105013 0.0340667 0 0.105898 0.0340667 0 0.106782 0.0340667 0 0.107667 0.0340667 0 0.1 0.035 0 0.100667 0.035 0 0.101333 0.035 0 0.102 0.035 0 0.102667 0.035 0 0.103333 0.035 0 0.104 0.035 0 0.104667 0.035 0 0.105333 0.035 0 0.106 0.035 0 0.106667 0.035 0 0.107333 0.035 0 0.108 0.035 0 0.108667 0.035 0 0.109333 0.035 0 0.11 0.035 0 
</DataArray>
</Points> 
</Piece> 
</StructuredGrid> 
</VTKFile> 
