<?xml version="1.0"?> 
<VTKFile type="StructuredGrid" version="0.1"> 
<StructuredGrid WholeExtent="0 15 0 15 0 0"> 
<Piece Extent="0 15 0 15 0 0"> 
<PointData>
<DataArray type="Float32" Name="|E|" format="ascii" NumberOfComponents="3"> 
-2.10743e+06 0 0 -2.1136e+06 25264.5 0 -2.13222e+06 50922.2 0 -2.16356e+06 77385.4 0 -2.2081e+06 105107 0 -2.26657e+06 134590 0 -2.33994e+06 166402 0 -2.42958e+06 201192 0 -2.5373e+06 239388 0 -2.66547e+06 281310 0 -2.81756e+06 326102 0 -2.99769e+06 368621 0 -3.21085e+06 397823 0 -3.45706e+06 385149 0 -3.6981e+06 270891 0 -3.81731e+06 -15743.1 0 -2.10537e+06 0 0 -2.1108e+06 24634.5 0 -2.12715e+06 49606.4 0 -2.15464e+06 75265 0 -2.19363e+06 101994 0 -2.24467e+06 130216 0 -2.30851e+06 160403 0 -2.38614e+06 193102 0 -2.47893e+06 228818 0 -2.5886e+06 267876 0 -2.71756e+06 310361 0 -2.86925e+06 354555 0 -3.04758e+06 395000 0 -3.25806e+06 418314 0 -3.49924e+06 390644 0 -3.73289e+06 238946 0 -2.10324e+06 0 0 -2.10796e+06 23882.2 0 -2.1222e+06 48049.3 0 -2.14611e+06 72794.5 0 -2.17996e+06 98436.5 0 -2.22415e+06 125325 0 -2.27926e+06 153850 0 -2.346e+06 184448 0 -2.42534e+06 217597 0 -2.51857e+06 253688 0 -2.62729e+06 292942 0 -2.75391e+06 335217 0 -2.90158e+06 378418 0 -3.07408e+06 417375 0 -3.27732e+06 438297 0 -3.51065e+06 405736 0 -2.10102e+06 0 0 -2.1051e+06 23008.1 0 -2.11738e+06 46252.5 0 -2.13796e+06 69976.2 0 -2.16707e+06 94439.5 0 -2.20498e+06 119927 0 -2.25212e+06 146752 0 -2.30899e+06 175269 0 -2.37629e+06 205857 0 -2.4549e+06 238934 0 -2.54598e+06 274774 0 -2.65096e+06 313573 0 -2.77215e+06 354952 0 -2.91224e+06 397235 0 -3.07493e+06 435454 0 -3.2658e+06 458990 0 -2.09873e+06 0 0 -2.10221e+06 22012.3 0 -2.11267e+06 44217.3 0 -2.1302e+06 66812.3 0 -2.15495e+06 90006.4 0 -2.18712e+06 114027 0 -2.22701e+06 139121 0 -2.27498e+06 165569 0 -2.3315e+06 193668 0 -2.39718e+06 223754 0 -2.47281e+06 256159 0 -2.55933e+06 291128 0 -2.65803e+06 328768 0 -2.77089e+06 368748 0 -2.90019e+06 409847 0 -3.04911e+06 449407 0 -2.09636e+06 0 0 -2.09929e+06 20895.4 0 -2.10809e+06 41944.6 0 -2.12282e+06 63304.6 0 -2.14359e+06 85140.1 0 -2.17054e+06 107629 0 -2.20387e+06 130961 0 -2.24383e+06 155351 0 -2.29075e+06 181032 0 -2.34502e+06 208254 0 -2.40715e+06 237297 0 -2.47778e+06 268423 0 -2.55768e+06 301893 0 -2.64791e+06 337748 0 -2.75001e+06 375748 0 -2.86582e+06 415517 0 -2.09392e+06 0 0 -2.09634e+06 19657.9 0 -2.10363e+06 39435.5 0 -2.11581e+06 59454.8 0 -2.13297e+06 79842.5 0 -2.15521e+06 100734 0 -2.18264e+06 122273 0 -2.21545e+06 144618 0 -2.25384e+06 167944 0 -2.29807e+06 192438 0 -2.34846e+06 218309 0 -2.40541e+06 245763 0 -2.46941e+06 275030 0 -2.54104e+06 306348 0 -2.6211e+06 339768 0 -2.71068e+06 375339 0 -2.09139e+06 0 0 -2.09336e+06 18300.3 0 -2.09928e+06 36691 0 -2.10918e+06 55264.2 0 -2.12309e+06 74114.7 0 -2.14109e+06 93342.4 0 -2.16326e+06 113054 0 -2.18971e+06 133362 0 -2.22058e+06 154393 0 -2.25602e+06 176279 0 -2.29623e+06 199172 0 -2.34145e+06 223232 0 -2.39196e+06 248614 0 -2.44813e+06 275505 0 -2.51037e+06 304096 0 -2.57919e+06 334582 0 -2.08879e+06 0 0 -2.09036e+06 16822.9 0 -2.09505e+06 33711.8 0 -2.1029e+06 50733.6 0 -2.11393e+06 67956.9 0 -2.12817e+06 85453.1 0 -2.14569e+06 103297 0 -2.16655e+06 121569 0 -2.19082e+06 140355 0 -2.21861e+06 159747 0 -2.25003e+06 179844 0 -2.28523e+06 200755 0 -2.32435e+06 222600 0 -2.36761e+06 245493 0 -2.41523e+06 269566 0 -2.46748e+06 295013 0 -2.08611e+06 0 0 -2.08732e+06 15226.4 0 -2.09094e+06 30498.9 0 -2.09699e+06 45863.9 0 -2.10547e+06 61368.9 0 -2.11643e+06 77062.9 0 -2.12987e+06 92996.8 0 -2.14586e+06 109224 0 -2.16442e+06 125801 0 -2.18562e+06 142788 0 -2.20952e+06 160251 0 -2.2362e+06 178257 0 -2.26575e+06 196883 0 -2.29827e+06 216208 0 -2.33387e+06 236309 0 -2.37271e+06 257291 0 -2.08336e+06 0 0 -2.08425e+06 13511.3 0 -2.08694e+06 27052.9 0 -2.09142e+06 40655.3 0 -2.09772e+06 54349.6 0 -2.10583e+06 68167.4 0 -2.11577e+06 82141.6 0 -2.12758e+06 96306 0 -2.14126e+06 110696 0 -2.15686e+06 125348 0 -2.1744e+06 140302 0 -2.19393e+06 155599 0 -2.21548e+06 171284 0 -2.23912e+06 187405 0 -2.2649e+06 204012 0 -2.29289e+06 221164 0 -2.08052e+06 0 0 -2.08116e+06 11678 0 -2.08305e+06 23374.5 0 -2.08621e+06 35108 0 -2.09064e+06 46897.2 0 -2.09635e+06 58761.3 0 -2.10335e+06 70719.7 0 -2.11164e+06 82792.5 0 -2.12124e+06 95000.1 0 -2.13216e+06 107364 0 -2.14441e+06 119905 0 -2.15803e+06 132648 0 -2.17302e+06 145616 0 -2.18941e+06 158834 0 -2.20723e+06 172329 0 -2.22651e+06 186133 0 -2.07761e+06 0 0 -2.07803e+06 9727.11 0 -2.07927e+06 19464.3 0 -2.08135e+06 29221.7 0 -2.08425e+06 39009.5 0 -2.08799e+06 48837.8 0 -2.09257e+06 58717.1 0 -2.09799e+06 68658.1 0 -2.10426e+06 78671.5 0 -2.11138e+06 88768.3 0 -2.11936e+06 98959.5 0 -2.12821e+06 109257 0 -2.13793e+06 119671 0 -2.14854e+06 130216 0 -2.16005e+06 140904 0 -2.17247e+06 151749 0 -2.07463e+06 0 0 -2.07487e+06 7659.13 0 -2.0756e+06 15322.9 0 -2.07682e+06 22996 0 -2.07852e+06 30683.2 0 -2.08072e+06 38388.9 0 -2.0834e+06 46117.8 0 -2.08657e+06 53874.8 0 -2.09024e+06 61664.8 0 -2.0944e+06 69492.6 0 -2.09906e+06 77362.9 0 -2.10422e+06 85280.7 0 -2.10988e+06 93250.6 0 -2.11604e+06 101277 0 -2.12272e+06 109366 0 -2.12991e+06 117521 0 -2.07157e+06 0 0 -2.07169e+06 5474.6 0 -2.07204e+06 10950.8 0 -2.07263e+06 16430.2 0 -2.07345e+06 21914.4 0 -2.07452e+06 27405.1 0 -2.07581e+06 32903.8 0 -2.07735e+06 38411.8 0 -2.07912e+06 43930.8 0 -2.08113e+06 49462.4 0 -2.08338e+06 55008.3 0 -2.08586e+06 60570.1 0 -2.08859e+06 66149.4 0 -2.09155e+06 71747.8 0 -2.09476e+06 77366.7 0 -2.09821e+06 83007.9 0 -2.06843e+06 0 0 -2.06847e+06 3174.08 0 -2.06858e+06 6348.48 0 -2.06877e+06 9523.54 0 -2.06903e+06 12699.6 0 -2.06937e+06 15876.9 0 -2.06979e+06 19055.5 0 -2.07028e+06 22235.7 0 -2.07084e+06 25418.3 0 -2.07148e+06 28604 0 -2.07219e+06 31793.4 0 -2.07299e+06 34987.2 0 -2.07385e+06 38185.5 0 -2.07479e+06 41388.7 0 -2.07581e+06 44597.4 0 -2.07691e+06 47811.8 0 </DataArray> 
</PointData> 
<Points> 
<DataArray type="Float32" NumberOfComponents="3"> 
0 0.01 0 0.005 0.01 0 0.01 0.01 0 0.015 0.01 0 0.02 0.01 0 0.025 0.01 0 0.03 0.01 0 0.035 0.01 0 0.04 0.01 0 0.045 0.01 0 0.05 0.01 0 0.055 0.01 0 0.06 0.01 0 0.065 0.01 0 0.07 0.01 0 0.075 0.01 0 0 0.0104 0 0.00469333 0.0104 0 0.00938667 0.0104 0 0.01408 0.0104 0 0.0187733 0.0104 0 0.0234667 0.0104 0 0.02816 0.0104 0 0.0328533 0.0104 0 0.0375467 0.0104 0 0.04224 0.0104 0 0.0469333 0.0104 0 0.0516267 0.0104 0 0.05632 0.0104 0 0.0610133 0.0104 0 0.0657067 0.0104 0 0.0704 0.0104 0 0 0.0108 0 0.00438667 0.0108 0 0.00877333 0.0108 0 0.01316 0.0108 0 0.0175467 0.0108 0 0.0219333 0.0108 0 0.02632 0.0108 0 0.0307067 0.0108 0 0.0350933 0.0108 0 0.03948 0.0108 0 0.0438667 0.0108 0 0.0482533 0.0108 0 0.05264 0.0108 0 0.0570267 0.0108 0 0.0614133 0.0108 0 0.0658 0.0108 0 0 0.0112 0 0.00408 0.0112 0 0.00816 0.0112 0 0.01224 0.0112 0 0.01632 0.0112 0 0.0204 0.0112 0 0.02448 0.0112 0 0.02856 0.0112 0 0.03264 0.0112 0 0.03672 0.0112 0 0.0408 0.0112 0 0.04488 0.0112 0 0.04896 0.0112 0 0.05304 0.0112 0 0.05712 0.0112 0 0.0612 0.0112 0 0 0.0116 0 0.00377333 0.0116 0 0.00754667 0.0116 0 0.01132 0.0116 0 0.0150933 0.0116 0 0.0188667 0.0116 0 0.02264 0.0116 0 0.0264133 0.0116 0 0.0301867 0.0116 0 0.03396 0.0116 0 0.0377333 0.0116 0 0.0415067 0.0116 0 0.04528 0.0116 0 0.0490533 0.0116 0 0.0528267 0.0116 0 0.0566 0.0116 0 0 0.012 0 0.00346667 0.012 0 0.00693333 0.012 0 0.0104 0.012 0 0.0138667 0.012 0 0.0173333 0.012 0 0.0208 0.012 0 0.0242667 0.012 0 0.0277333 0.012 0 0.0312 0.012 0 0.0346667 0.012 0 0.0381333 0.012 0 0.0416 0.012 0 0.0450667 0.012 0 0.0485333 0.012 0 0.052 0.012 0 0 0.0124 0 0.00316 0.0124 0 0.00632 0.0124 0 0.00948 0.0124 0 0.01264 0.0124 0 0.0158 0.0124 0 0.01896 0.0124 0 0.02212 0.0124 0 0.02528 0.0124 0 0.02844 0.0124 0 0.0316 0.0124 0 0.03476 0.0124 0 0.03792 0.0124 0 0.04108 0.0124 0 0.04424 0.0124 0 0.0474 0.0124 0 0 0.0128 0 0.00285333 0.0128 0 0.00570667 0.0128 0 0.00856 0.0128 0 0.0114133 0.0128 0 0.0142667 0.0128 0 0.01712 0.0128 0 0.0199733 0.0128 0 0.0228267 0.0128 0 0.02568 0.0128 0 0.0285333 0.0128 0 0.0313867 0.0128 0 0.03424 0.0128 0 0.0370933 0.0128 0 0.0399467 0.0128 0 0.0428 0.0128 0 0 0.0132 0 0.00254667 0.0132 0 0.00509333 0.0132 0 0.00764 0.0132 0 0.0101867 0.0132 0 0.0127333 0.0132 0 0.01528 0.0132 0 0.0178267 0.0132 0 0.0203733 0.0132 0 0.02292 0.0132 0 0.0254667 0.0132 0 0.0280133 0.0132 0 0.03056 0.0132 0 0.0331067 0.0132 0 0.0356533 0.0132 0 0.0382 0.0132 0 0 0.0136 0 0.00224 0.0136 0 0.00448 0.0136 0 0.00672 0.0136 0 0.00896 0.0136 0 0.0112 0.0136 0 0.01344 0.0136 0 0.01568 0.0136 0 0.01792 0.0136 0 0.02016 0.0136 0 0.0224 0.0136 0 0.02464 0.0136 0 0.02688 0.0136 0 0.02912 0.0136 0 0.03136 0.0136 0 0.0336 0.0136 0 0 0.014 0 0.00193333 0.014 0 0.00386667 0.014 0 0.0058 0.014 0 0.00773333 0.014 0 0.00966667 0.014 0 0.0116 0.014 0 0.0135333 0.014 0 0.0154667 0.014 0 0.0174 0.014 0 0.0193333 0.014 0 0.0212667 0.014 0 0.0232 0.014 0 0.0251333 0.014 0 0.0270667 0.014 0 0.029 0.014 0 0 0.0144 0 0.00162667 0.0144 0 0.00325333 0.0144 0 0.00488 0.0144 0 0.00650667 0.0144 0 0.00813333 0.0144 0 0.00976 0.0144 0 0.0113867 0.0144 0 0.0130133 0.0144 0 0.01464 0.0144 0 0.0162667 0.0144 0 0.0178933 0.0144 0 0.01952 0.0144 0 0.0211467 0.0144 0 0.0227733 0.0144 0 0.0244 0.0144 0 0 0.0148 0 0.00132 0.0148 0 0.00264 0.0148 0 0.00396 0.0148 0 0.00528 0.0148 0 0.0066 0.0148 0 0.00792 0.0148 0 0.00924 0.0148 0 0.01056 0.0148 0 0.01188 0.0148 0 0.0132 0.0148 0 0.01452 0.0148 0 0.01584 0.0148 0 0.01716 0.0148 0 0.01848 0.0148 0 0.0198 0.0148 0 0 0.0152 0 0.00101333 0.0152 0 0.00202667 0.0152 0 0.00304 0.0152 0 0.00405333 0.0152 0 0.00506667 0.0152 0 0.00608 0.0152 0 0.00709333 0.0152 0 0.00810667 0.0152 0 0.00912 0.0152 0 0.0101333 0.0152 0 0.0111467 0.0152 0 0.01216 0.0152 0 0.0131733 0.0152 0 0.0141867 0.0152 0 0.0152 0.0152 0 0 0.0156 0 0.000706667 0.0156 0 0.00141333 0.0156 0 0.00212 0.0156 0 0.00282667 0.0156 0 0.00353333 0.0156 0 0.00424 0.0156 0 0.00494667 0.0156 0 0.00565333 0.0156 0 0.00636 0.0156 0 0.00706667 0.0156 0 0.00777333 0.0156 0 0.00848 0.0156 0 0.00918667 0.0156 0 0.00989333 0.0156 0 0.0106 0.0156 0 0 0.016 0 0.0004 0.016 0 0.0008 0.016 0 0.0012 0.016 0 0.0016 0.016 0 0.002 0.016 0 0.0024 0.016 0 0.0028 0.016 0 0.0032 0.016 0 0.0036 0.016 0 0.004 0.016 0 0.0044 0.016 0 0.0048 0.016 0 0.0052 0.016 0 0.0056 0.016 0 0.006 0.016 0 
</DataArray>
</Points> 
</Piece> 
</StructuredGrid> 
</VTKFile> 
