<?xml version="1.0"?> 
<VTKFile type="StructuredGrid" version="0.1"> 
<StructuredGrid WholeExtent="0 15 0 15 0 0"> 
<Piece Extent="0 15 0 15 0 0"> 
<PointData>
<DataArray type="Float32" Name="|E|" format="ascii" NumberOfComponents="3"> 
345552 5.16686e+06 0 468975 5.10953e+06 0 589636 5.05306e+06 0 706687 4.991e+06 0 819516 4.92219e+06 0 927595 4.8465e+06 0 1.03043e+06 4.76403e+06 0 1.12757e+06 4.675e+06 0 1.21857e+06 4.57956e+06 0 1.30293e+06 4.47767e+06 0 1.38e+06 4.36877e+06 0 1.44877e+06 4.25143e+06 0 1.50723e+06 4.12191e+06 0 1.55122e+06 3.97185e+06 0 1.56893e+06 3.77651e+06 0 1.51443e+06 3.4393e+06 0 273671 5.00369e+06 0 391117 4.96246e+06 0 502280 4.91458e+06 0 608600 4.8607e+06 0 710572 4.80073e+06 0 808154 4.73467e+06 0 901102 4.6627e+06 0 989067 4.58505e+06 0 1.07159e+06 4.502e+06 0 1.14805e+06 4.41379e+06 0 1.21752e+06 4.32055e+06 0 1.27842e+06 4.22224e+06 0 1.32794e+06 4.11859e+06 0 1.36044e+06 4.00914e+06 0 1.36414e+06 3.89487e+06 0 1.31531e+06 3.78869e+06 0 223244 4.85972e+06 0 327717 4.82733e+06 0 427826 4.78764e+06 0 523830 4.74149e+06 0 615895 4.68936e+06 0 704042 4.63157e+06 0 788153 4.56845e+06 0 867998 4.50034e+06 0 943239 4.42766e+06 0 1.01339e+06 4.3509e+06 0 1.07777e+06 4.27063e+06 0 1.13531e+06 4.18766e+06 0 1.18439e+06 4.10321e+06 0 1.22249e+06 4.01954e+06 0 1.2459e+06 3.9413e+06 0 1.24972e+06 3.8782e+06 0 183301 4.73271e+06 0 275608 4.70615e+06 0 364851 4.67274e+06 0 450856 4.63305e+06 0 533596 4.58757e+06 0 613028 4.53674e+06 0 689067 4.48097e+06 0 761577 4.42068e+06 0 830359 4.35638e+06 0 895148 4.28863e+06 0 955594 4.21819e+06 0 1.01125e+06 4.14601e+06 0 1.06156e+06 4.07348e+06 0 1.10597e+06 4.00268e+06 0 1.14425e+06 3.93683e+06 0 1.17778e+06 3.88085e+06 0 150553 4.62053e+06 0 232084 4.59827e+06 0 311216 4.56966e+06 0 387816 4.53513e+06 0 461785 4.4951e+06 0 533057 4.44997e+06 0 601570 4.40017e+06 0 667252 4.34616e+06 0 730020 4.28843e+06 0 789784 4.22755e+06 0 846453 4.16422e+06 0 899968 4.09928e+06 0 950356 4.03383e+06 0 997855 3.96925e+06 0 1.04312e+06 3.90735e+06 0 1.08741e+06 3.8503e+06 0 123495 4.52157e+06 0 195238 4.50264e+06 0 265099 4.47779e+06 0 332942 4.44735e+06 0 398682 4.41167e+06 0 462264 4.37112e+06 0 523649 4.32611e+06 0 582816 4.27705e+06 0 639757 4.2244e+06 0 694490 4.16868e+06 0 747073 4.11045e+06 0 797630 4.05039e+06 0 846403 3.98924e+06 0 893827 3.92787e+06 0 940641 3.86721e+06 0 988083 3.80813e+06 0 100931 4.43461e+06 0 163754 4.41833e+06 0 225047 4.39644e+06 0 284725 4.36924e+06 0 342726 4.33702e+06 0 399015 4.30011e+06 0 453578 4.25888e+06 0 506425 4.21369e+06 0 557594 4.16494e+06 0 607157 4.11308e+06 0 655231 4.05856e+06 0 702004 4.00187e+06 0 747754 3.94354e+06 0 792893 3.88407e+06 0 837999 3.82397e+06 0 883819 3.76362e+06 0 82052.9 4.3587e+06 0 136599 4.34453e+06 0 189909 4.32501e+06 0 241921 4.30038e+06 0 292599 4.2709e+06 0 341926 4.23686e+06 0 389906 4.19859e+06 0 436569 4.1564e+06 0 481973 4.11065e+06 0 526208 4.0617e+06 0 569405 4.00992e+06 0 611747 3.95567e+06 0 653481 3.89932e+06 0 694933 3.84121e+06 0 736515 3.7816e+06 0 778734 3.72066e+06 0 66165.9 4.2931e+06 0 112960 4.28064e+06 0 158753 4.26299e+06 0 203509 4.24039e+06 0 247206 4.21307e+06 0 289842 4.18128e+06 0 331434 4.14532e+06 0 372019 4.10547e+06 0 411659 4.06202e+06 0 450444 4.01528e+06 0 488493 3.96556e+06 0 525962 3.91314e+06 0 563047 3.8583e+06 0 599983 3.80127e+06 0 637047 3.74223e+06 0 674538 3.6813e+06 0 52712.9 4.23724e+06 0 92163.4 4.22613e+06 0 130813 4.20997e+06 0 168640 4.18896e+06 0 205634 4.16333e+06 0 241803 4.13331e+06 0 277166 4.09914e+06 0 311763 4.06108e+06 0 345652 4.0194e+06 0 378911 3.97436e+06 0 411639 3.92622e+06 0 443960 3.87521e+06 0 476018 3.82156e+06 0 507977 3.76546e+06 0 540017 3.70705e+06 0 572320 3.64643e+06 0 41211.5 4.19066e+06 0 73642.2 4.18061e+06 0 105444 4.16561e+06 0 136603 4.14585e+06 0 167118 4.12153e+06 0 196999 4.09286e+06 0 226267 4.06007e+06 0 254958 4.02339e+06 0 283120 3.98307e+06 0 310818 3.93932e+06 0 338130 3.89239e+06 0 365147 3.84248e+06 0 391973 3.78979e+06 0 418716 3.73449e+06 0 445492 3.67672e+06 0 472404 3.61658e+06 0 31247.8 4.153e+06 0 56910.8 4.14376e+06 0 82094.6 4.12965e+06 0 106792 4.11084e+06 0 131004 4.08751e+06 0 154742 4.05987e+06 0 178024 4.02812e+06 0 200880 3.99249e+06 0 223350 3.95318e+06 0 245482 3.91041e+06 0 267334 3.8644e+06 0 288971 3.81534e+06 0 310464 3.76341e+06 0 331885 3.70879e+06 0 353302 3.6516e+06 0 374777 3.59198e+06 0 22457.3 4.12398e+06 0 41544.4 4.11534e+06 0 60285.9 4.10189e+06 0 78677.8 4.08377e+06 0 96722.8 4.06117e+06 0 114430 4.03428e+06 0 131814 4.00329e+06 0 148898 3.96841e+06 0 165710 3.92985e+06 0 182286 3.88781e+06 0 198666 3.84247e+06 0 214895 3.79405e+06 0 231017 3.74271e+06 0 247078 3.68861e+06 0 263119 3.63192e+06 0 279173 3.57277e+06 0 14514.3 4.1034e+06 0 27164.3 4.09517e+06 0 39590.2 4.08216e+06 0 51790.1 4.06452e+06 0 63766.4 4.04242e+06 0 75525.4 4.01604e+06 0 87077.9 3.98557e+06 0 98438.6 3.95121e+06 0 109626 3.91315e+06 0 120664 3.8716e+06 0 131576 3.82674e+06 0 142391 3.77875e+06 0 153134 3.72783e+06 0 163834 3.67412e+06 0 174511 3.6178e+06 0 185182 3.55902e+06 0 7121.62 4.0911e+06 0 13424.4 4.08312e+06 0 19617.1 4.07037e+06 0 25698.9 4.05301e+06 0 31671.1 4.03119e+06 0 37537 4.00511e+06 0 43302.1 3.97494e+06 0 48973.7 3.94088e+06 0 54561.2 3.90312e+06 0 60075.4 3.86185e+06 0 65528.6 3.81727e+06 0 70933.6 3.76955e+06 0 76303.1 3.71887e+06 0 81649 3.6654e+06 0 86981.2 3.60931e+06 0 92306.5 3.55076e+06 0 0 4.08701e+06 0 0 4.07911e+06 0 0 4.06645e+06 0 0 4.04917e+06 0 0 4.02746e+06 0 0 4.00147e+06 0 0 3.9714e+06 0 0 3.93744e+06 0 0 3.89978e+06 0 0 3.8586e+06 0 0 3.81411e+06 0 0 3.76647e+06 0 0 3.71588e+06 0 0 3.66249e+06 0 0 3.60648e+06 0 0 3.54801e+06 0 </DataArray> 
</PointData> 
<Points> 
<DataArray type="Float32" NumberOfComponents="3"> 
0.146503 0.0667759 0 0.148836 0.0665909 0 0.151169 0.0663477 0 0.153502 0.0660464 0 0.155835 0.065687 0 0.158169 0.0652695 0 0.160502 0.0647939 0 0.162835 0.0642601 0 0.165168 0.0636683 0 0.167502 0.0630184 0 0.169835 0.0623103 0 0.172169 0.0615442 0 0.174502 0.0607199 0 0.176836 0.0598375 0 0.17917 0.058897 0 0.181504 0.0578984 0 0.146503 0.0697909 0 0.148836 0.0696181 0 0.151169 0.0693912 0 0.153502 0.06911 0 0.155835 0.0687745 0 0.158168 0.0683848 0 0.160502 0.0679409 0 0.162835 0.0674428 0 0.165168 0.0668904 0 0.167502 0.0662838 0 0.169835 0.065623 0 0.172169 0.0649079 0 0.174502 0.0641386 0 0.176836 0.063315 0 0.17917 0.0624372 0 0.181503 0.0615052 0 0.146503 0.0728058 0 0.148836 0.0726454 0 0.151169 0.0724347 0 0.153502 0.0721735 0 0.155835 0.0718621 0 0.158168 0.0715002 0 0.160502 0.071088 0 0.162835 0.0706255 0 0.165168 0.0701125 0 0.167502 0.0695492 0 0.169835 0.0689356 0 0.172169 0.0682716 0 0.174502 0.0675572 0 0.176836 0.0667925 0 0.179169 0.0659774 0 0.181503 0.065112 0 0.146503 0.0758208 0 0.148836 0.0756727 0 0.151169 0.0754781 0 0.153502 0.0752371 0 0.155835 0.0749496 0 0.158168 0.0746156 0 0.160501 0.0742351 0 0.162835 0.0738081 0 0.165168 0.0733346 0 0.167501 0.0728147 0 0.169835 0.0722482 0 0.172168 0.0716353 0 0.174502 0.0709759 0 0.176836 0.07027 0 0.179169 0.0695176 0 0.181503 0.0687187 0 0.146502 0.0788357 0 0.148835 0.0787 0 0.151169 0.0785216 0 0.153502 0.0783007 0 0.155835 0.0780371 0 0.158168 0.077731 0 0.160501 0.0773822 0 0.162835 0.0769908 0 0.165168 0.0765568 0 0.167501 0.0760801 0 0.169835 0.0755609 0 0.172168 0.074999 0 0.174502 0.0743946 0 0.176835 0.0737475 0 0.179169 0.0730578 0 0.181503 0.0723255 0 0.146502 0.0818506 0 0.148835 0.0817272 0 0.151168 0.0815651 0 0.153501 0.0813643 0 0.155835 0.0811247 0 0.158168 0.0808463 0 0.160501 0.0805292 0 0.162834 0.0801734 0 0.165168 0.0797789 0 0.167501 0.0793456 0 0.169835 0.0788735 0 0.172168 0.0783628 0 0.174502 0.0778133 0 0.176835 0.077225 0 0.179169 0.076598 0 0.181502 0.0759323 0 0.146502 0.0848656 0 0.148835 0.0847545 0 0.151168 0.0846086 0 0.153501 0.0844278 0 0.155835 0.0842122 0 0.158168 0.0839617 0 0.160501 0.0836763 0 0.162834 0.0833561 0 0.165168 0.083001 0 0.167501 0.082611 0 0.169834 0.0821862 0 0.172168 0.0817265 0 0.174501 0.0812319 0 0.176835 0.0807025 0 0.179169 0.0801382 0 0.181502 0.0795391 0 0.146502 0.0878805 0 0.148835 0.0877818 0 0.151168 0.0876521 0 0.153501 0.0874914 0 0.155834 0.0872997 0 0.158168 0.0870771 0 0.160501 0.0868234 0 0.162834 0.0865387 0 0.165168 0.0862231 0 0.167501 0.0858765 0 0.169834 0.0854988 0 0.172168 0.0850902 0 0.174501 0.0846506 0 0.176835 0.08418 0 0.179168 0.0836784 0 0.181502 0.0831458 0 0.146502 0.0908954 0 0.148835 0.0908091 0 0.151168 0.0906956 0 0.153501 0.090555 0 0.155834 0.0903873 0 0.158168 0.0901924 0 0.160501 0.0899705 0 0.162834 0.0897214 0 0.165167 0.0894452 0 0.167501 0.0891419 0 0.169834 0.0888115 0 0.172168 0.0884539 0 0.174501 0.0880693 0 0.176835 0.0876575 0 0.179168 0.0872186 0 0.181502 0.0867526 0 0.146501 0.0939104 0 0.148834 0.0938363 0 0.151168 0.0937391 0 0.153501 0.0936186 0 0.155834 0.0934748 0 0.158167 0.0933078 0 0.160501 0.0931175 0 0.162834 0.0929041 0 0.165167 0.0926673 0 0.167501 0.0924073 0 0.169834 0.0921241 0 0.172168 0.0918177 0 0.174501 0.091488 0 0.176834 0.091135 0 0.179168 0.0907588 0 0.181501 0.0903594 0 0.146501 0.0969253 0 0.148834 0.0968636 0 0.151168 0.0967826 0 0.153501 0.0966821 0 0.155834 0.0965623 0 0.158167 0.0964232 0 0.160501 0.0962646 0 0.162834 0.0960867 0 0.165167 0.0958894 0 0.167501 0.0956728 0 0.169834 0.0954368 0 0.172167 0.0951814 0 0.174501 0.0949066 0 0.176834 0.0946125 0 0.179168 0.094299 0 0.181501 0.0939661 0 0.146501 0.0999403 0 0.148834 0.0998909 0 0.151167 0.099826 0 0.153501 0.0997457 0 0.155834 0.0996499 0 0.158167 0.0995385 0 0.1605 0.0994117 0 0.162834 0.0992694 0 0.165167 0.0991115 0 0.1675 0.0989382 0 0.169834 0.0987494 0 0.172167 0.0985451 0 0.174501 0.0983253 0 0.176834 0.09809 0 0.179167 0.0978392 0 0.181501 0.0975729 0 0.146501 0.102955 0 0.148834 0.102918 0 0.151167 0.10287 0 0.1535 0.102809 0 0.155834 0.102737 0 0.158167 0.102654 0 0.1605 0.102559 0 0.162834 0.102452 0 0.165167 0.102334 0 0.1675 0.102204 0 0.169834 0.102062 0 0.172167 0.101909 0 0.1745 0.101744 0 0.176834 0.101568 0 0.179167 0.101379 0 0.181501 0.10118 0 0.1465 0.10597 0 0.148834 0.105945 0 0.151167 0.105913 0 0.1535 0.105873 0 0.155834 0.105825 0 0.158167 0.105769 0 0.1605 0.105706 0 0.162834 0.105635 0 0.165167 0.105556 0 0.1675 0.105469 0 0.169834 0.105375 0 0.172167 0.105273 0 0.1745 0.105163 0 0.176834 0.105045 0 0.179167 0.10492 0 0.1815 0.104786 0 0.1465 0.108985 0 0.148834 0.108973 0 0.151167 0.108957 0 0.1535 0.108936 0 0.155833 0.108912 0 0.158167 0.108885 0 0.1605 0.108853 0 0.162833 0.108817 0 0.165167 0.108778 0 0.1675 0.108735 0 0.169833 0.108687 0 0.172167 0.108636 0 0.1745 0.108581 0 0.176834 0.108523 0 0.179167 0.10846 0 0.1815 0.108393 0 0.1465 0.112 0 0.148833 0.112 0 0.151167 0.112 0 0.1535 0.112 0 0.155833 0.112 0 0.158167 0.112 0 0.1605 0.112 0 0.162833 0.112 0 0.165167 0.112 0 0.1675 0.112 0 0.169833 0.112 0 0.172167 0.112 0 0.1745 0.112 0 0.176833 0.112 0 0.179167 0.112 0 0.1815 0.112 0 
</DataArray>
</Points> 
</Piece> 
</StructuredGrid> 
</VTKFile> 
