<?xml version="1.0"?> 
<VTKFile type="StructuredGrid" version="0.1"> 
<StructuredGrid WholeExtent="0 15 0 15 0 0"> 
<Piece Extent="0 15 0 15 0 0"> 
<PointData>
<DataArray type="Float32" Name="|E|" format="ascii" NumberOfComponents="3"> 
-1.55706e+06 1.79326e+06 0 -1.62059e+06 1.84453e+06 0 -1.68822e+06 1.89366e+06 0 -1.76086e+06 1.94007e+06 0 -1.8398e+06 1.98304e+06 0 -1.92673e+06 2.02173e+06 0 -2.02389e+06 2.055e+06 0 -2.13447e+06 2.08142e+06 0 -2.26264e+06 2.0991e+06 0 -2.41443e+06 2.10495e+06 0 -2.59881e+06 2.09457e+06 0 -2.82893e+06 2.05911e+06 0 -3.12965e+06 1.98021e+06 0 -3.54621e+06 1.81819e+06 0 -4.21137e+06 1.43705e+06 0 -5.69362e+06 263116 0 -1.50464e+06 1.93094e+06 0 -1.57252e+06 1.97764e+06 0 -1.64491e+06 2.02299e+06 0 -1.72274e+06 2.06657e+06 0 -1.80727e+06 2.10788e+06 0 -1.90013e+06 2.14625e+06 0 -2.00356e+06 2.18084e+06 0 -2.12058e+06 2.21051e+06 0 -2.25542e+06 2.23368e+06 0 -2.41415e+06 2.24795e+06 0 -2.6059e+06 2.24953e+06 0 -2.84506e+06 2.2315e+06 0 -3.15736e+06 2.18034e+06 0 -3.59471e+06 2.06627e+06 0 -4.29389e+06 1.80564e+06 0 -5.8345e+06 1.12922e+06 0 -1.44352e+06 2.07832e+06 0 -1.5151e+06 2.12176e+06 0 -1.59148e+06 2.16457e+06 0 -1.67359e+06 2.20647e+06 0 -1.76268e+06 2.24713e+06 0 -1.86036e+06 2.28609e+06 0 -1.96882e+06 2.32279e+06 0 -2.09107e+06 2.35641e+06 0 -2.23131e+06 2.38581e+06 0 -2.39563e+06 2.40927e+06 0 -2.59328e+06 2.42409e+06 0 -2.8391e+06 2.42546e+06 0 -3.15922e+06 2.40462e+06 0 -3.60694e+06 2.34337e+06 0 -4.3133e+06 2.20156e+06 0 -5.76795e+06 1.92577e+06 0 -1.37016e+06 2.23281e+06 0 -1.44474e+06 2.27401e+06 0 -1.5243e+06 2.31522e+06 0 -1.60976e+06 2.3563e+06 0 -1.70235e+06 2.39709e+06 0 -1.80367e+06 2.43734e+06 0 -1.91589e+06 2.47675e+06 0 -2.04194e+06 2.51487e+06 0 -2.18599e+06 2.55106e+06 0 -2.35406e+06 2.58434e+06 0 -2.55534e+06 2.61323e+06 0 -2.80453e+06 2.63514e+06 0 -3.12722e+06 2.6458e+06 0 -3.57419e+06 2.63784e+06 0 -4.26228e+06 2.60393e+06 0 -5.55778e+06 2.61025e+06 0 -1.28234e+06 2.39037e+06 0 -1.35925e+06 2.43001e+06 0 -1.4412e+06 2.47025e+06 0 -1.52911e+06 2.51108e+06 0 -1.62417e+06 2.55248e+06 0 -1.72796e+06 2.59443e+06 0 -1.84258e+06 2.63689e+06 0 -1.97091e+06 2.67976e+06 0 -2.11698e+06 2.72293e+06 0 -2.28665e+06 2.76619e+06 0 -2.48881e+06 2.80927e+06 0 -2.73759e+06 2.85169e+06 0 -3.05714e+06 2.89315e+06 0 -3.49334e+06 2.9349e+06 0 -4.14436e+06 2.99105e+06 0 -5.26399e+06 3.17515e+06 0 -1.17979e+06 2.54625e+06 0 -1.25845e+06 2.5847e+06 0 -1.34211e+06 2.62429e+06 0 -1.43167e+06 2.66511e+06 0 -1.52827e+06 2.7073e+06 0 -1.63345e+06 2.75103e+06 0 -1.7492e+06 2.7965e+06 0 -1.8783e+06 2.84399e+06 0 -2.0246e+06 2.89386e+06 0 -2.19368e+06 2.94666e+06 0 -2.39393e+06 3.00321e+06 0 -2.63859e+06 3.06495e+06 0 -2.9498e+06 3.13477e+06 0 -3.36773e+06 3.22003e+06 0 -3.97179e+06 3.34636e+06 0 -4.9314e+06 3.63295e+06 0 -1.06428e+06 2.69604e+06 0 -1.14428e+06 2.73341e+06 0 -1.22913e+06 2.77237e+06 0 -1.31971e+06 2.81315e+06 0 -1.41711e+06 2.856e+06 0 -1.52276e+06 2.90127e+06 0 -1.63859e+06 2.94939e+06 0 -1.76718e+06 3.00095e+06 0 -1.91214e+06 3.05678e+06 0 -2.07867e+06 3.11807e+06 0 -2.27454e+06 3.18666e+06 0 -2.5119e+06 3.26557e+06 0 -2.81067e+06 3.36022e+06 0 -3.2056e+06 3.48193e+06 0 -3.76031e+06 3.66098e+06 0 -4.58824e+06 4.00346e+06 0 -939100 2.83656e+06 0 -1.0202e+06 2.8727e+06 0 -1.10594e+06 2.91085e+06 0 -1.19714e+06 2.95132e+06 0 -1.29482e+06 2.99447e+06 0 -1.40035e+06 3.0408e+06 0 -1.51548e+06 3.09094e+06 0 -1.64262e+06 3.14573e+06 0 -1.78507e+06 3.2064e+06 0 -1.94756e+06 3.2747e+06 0 -2.13715e+06 3.35333e+06 0 -2.36475e+06 3.44665e+06 0 -2.64811e+06 3.5621e+06 0 -3.01738e+06 3.71368e+06 0 -3.52464e+06 3.93258e+06 0 -4.24964e+06 4.30625e+06 0 -808246 2.9662e+06 0 -890415 3.0008e+06 0 -976940 3.03777e+06 0 -1.06858e+06 3.07751e+06 0 -1.16632e+06 3.12046e+06 0 -1.27138e+06 3.16723e+06 0 -1.38541e+06 3.2186e+06 0 -1.51056e+06 3.27563e+06 0 -1.64981e+06 3.33983e+06 0 -1.80738e+06 3.41341e+06 0 -1.98947e+06 3.49977e+06 0 -2.20568e+06 3.60437e+06 0 -2.47158e+06 3.7364e+06 0 -2.81355e+06 3.91209e+06 0 -3.27622e+06 4.16257e+06 0 -3.92199e+06 4.55748e+06 0 -675698 3.08482e+06 0 -759057 3.1174e+06 0 -846432 3.15273e+06 0 -938544 3.19122e+06 0 -1.0363e+06 3.23341e+06 0 -1.14085e+06 3.27997e+06 0 -1.25366e+06 3.33177e+06 0 -1.37668e+06 3.39004e+06 0 -1.51253e+06 3.45647e+06 0 -1.66486e+06 3.53358e+06 0 -1.839e+06 3.62529e+06 0 -2.04307e+06 3.7379e+06 0 -2.29032e+06 3.8821e+06 0 -2.60361e+06 4.07651e+06 0 -3.02321e+06 4.35348e+06 0 -3.60636e+06 4.76898e+06 0 -544950 3.19335e+06 0 -629714 3.22333e+06 0 -718111 3.25644e+06 0 -810832 3.29314e+06 0 -908733 3.33399e+06 0 -1.01288e+06 3.37971e+06 0 -1.1246e+06 3.43124e+06 0 -1.24564e+06 3.48986e+06 0 -1.37826e+06 3.55738e+06 0 -1.52558e+06 3.63647e+06 0 -1.692e+06 3.73132e+06 0 -1.8841e+06 3.84878e+06 0 -2.1125e+06 4.00063e+06 0 -2.39606e+06 4.208e+06 0 -2.77156e+06 4.50735e+06 0 -3.30083e+06 4.94832e+06 0 -418849 3.29335e+06 0 -505259 3.31999e+06 0 -594876 3.35023e+06 0 -688380 3.38454e+06 0 -786597 3.4235e+06 0 -890526 3.46783e+06 0 -1.0014e+06 3.51849e+06 0 -1.12076e+06 3.57677e+06 0 -1.25059e+06 3.6445e+06 0 -1.39348e+06 3.72437e+06 0 -1.55298e+06 3.8206e+06 0 -1.7341e+06 3.94015e+06 0 -1.94464e+06 4.09535e+06 0 -2.19847e+06 4.30913e+06 0 -2.52662e+06 4.62515e+06 0 -3.00191e+06 5.0991e+06 0 -299646 3.38666e+06 0 -387890 3.40903e+06 0 -478875 3.43563e+06 0 -573296 3.4669e+06 0 -671971 3.50341e+06 0 -775863 3.54588e+06 0 -886127 3.59521e+06 0 -1.00417e+06 3.65268e+06 0 -1.13171e+06 3.72003e+06 0 -1.27093e+06 3.79986e+06 0 -1.42459e+06 3.89624e+06 0 -1.59636e+06 4.01586e+06 0 -1.79113e+06 4.17081e+06 0 -2.01725e+06 4.38426e+06 0 -2.29469e+06 4.70727e+06 0 -2.70522e+06 5.22074e+06 0 -189137 3.47514e+06 0 -279274 3.49209e+06 0 -371654 3.51412e+06 0 -467015 3.54163e+06 0 -566192 3.57514e+06 0 -670141 3.6153e+06 0 -779973 3.66297e+06 0 -896991 3.71931e+06 0 -1.02273e+06 3.78596e+06 0 -1.15904e+06 3.86533e+06 0 -1.30799e+06 3.96116e+06 0 -1.47224e+06 4.07965e+06 0 -1.65414e+06 4.23185e+06 0 -1.8565e+06 4.43951e+06 0 -2.08414e+06 4.75519e+06 0 -2.40538e+06 5.30646e+06 0 -88813.6 3.56055e+06 0 -180689 3.57064e+06 0 -274305 3.587e+06 0 -370462 3.60995e+06 0 -470039 3.63987e+06 0 -574012 3.67734e+06 0 -683469 3.72308e+06 0 -799660 3.77814e+06 0 -923970 3.84395e+06 0 -1.05797e+06 3.92274e+06 0 -1.2034e+06 4.01773e+06 0 -1.36154e+06 4.13463e+06 0 -1.53413e+06 4.28278e+06 0 -1.71723e+06 4.48166e+06 0 -1.9042e+06 4.77475e+06 0 -2.09431e+06 5.33569e+06 0 1.01556 3.64445e+06 0 -93152.9 3.64593e+06 0 -187591 3.65535e+06 0 -284197 3.67281e+06 0 -383907 3.69856e+06 0 -487723 3.73295e+06 0 -596752 3.77659e+06 0 -712173 3.83029e+06 0 -835327 3.89535e+06 0 -967543 3.97354e+06 0 -1.11013e+06 4.06791e+06 0 -1.26425e+06 4.18296e+06 0 -1.42857e+06 4.3271e+06 0 -1.60117e+06 4.5158e+06 0 -1.75713e+06 4.78101e+06 0 -1.75672e+06 5.25002e+06 0 </DataArray> 
</PointData> 
<Points> 
<DataArray type="Float32" NumberOfComponents="3"> 
0.0678 0.0673333 0 0.0699846 0.066287 0 0.0721691 0.0652407 0 0.0743537 0.0641944 0 0.0765382 0.063148 0 0.0787228 0.0621017 0 0.0809073 0.0610554 0 0.0830919 0.0600091 0 0.0852764 0.0589627 0 0.087461 0.0579164 0 0.0896455 0.0568701 0 0.0918301 0.0558238 0 0.0940146 0.0547774 0 0.0961992 0.0537311 0 0.0983837 0.0526848 0 0.100568 0.0516385 0 0.0708133 0.0703111 0 0.0727344 0.0691505 0 0.0746649 0.0679843 0 0.0766048 0.0668123 0 0.0785543 0.0656346 0 0.0805133 0.0644511 0 0.0824821 0.0632618 0 0.0844605 0.0620666 0 0.0864487 0.0608654 0 0.0884469 0.0596583 0 0.0904549 0.0584452 0 0.092473 0.057226 0 0.0945012 0.0560008 0 0.0965396 0.0547693 0 0.0985883 0.0535317 0 0.100647 0.0522878 0 0.0738267 0.0732889 0 0.0755128 0.0720215 0 0.0772143 0.0707425 0 0.0789314 0.0694518 0 0.0806643 0.0681493 0 0.0824132 0.0668347 0 0.0841783 0.0655079 0 0.0859598 0.0641688 0 0.087758 0.0628171 0 0.0895732 0.0614527 0 0.0914055 0.0600755 0 0.0932552 0.0586851 0 0.0951225 0.0572815 0 0.0970078 0.0558644 0 0.0989112 0.0544337 0 0.100833 0.0529891 0 0.07684 0.0762667 0 0.078317 0.0748968 0 0.0798127 0.0735096 0 0.0813275 0.0721048 0 0.0828616 0.0706819 0 0.0844156 0.0692407 0 0.0859897 0.0677807 0 0.0875844 0.0663017 0 0.0892001 0.0648033 0 0.0908371 0.063285 0 0.092496 0.0617464 0 0.0941772 0.0601872 0 0.095881 0.058607 0 0.0976081 0.0570052 0 0.0993588 0.0553815 0 0.101134 0.0537355 0 0.0798533 0.0792444 0 0.0811442 0.0777736 0 0.082455 0.0762799 0 0.0837863 0.0747629 0 0.0851387 0.073222 0 0.0865124 0.0716567 0 0.0879082 0.0700662 0 0.0893265 0.0684501 0 0.0907679 0.0668078 0 0.0922329 0.0651384 0 0.0937221 0.0634415 0 0.0952362 0.0617163 0 0.0967757 0.0599621 0 0.0983414 0.0581781 0 0.0999338 0.0563636 0 0.101554 0.0545178 0 0.0828667 0.0822222 0 0.0839914 0.0806488 0 0.085136 0.0790476 0 0.086301 0.0774179 0 0.087487 0.0757589 0 0.0886944 0.0740697 0 0.089924 0.0723497 0 0.0911763 0.0705978 0 0.092452 0.0688133 0 0.0937517 0.0669952 0 0.095076 0.0651425 0 0.0964258 0.0632543 0 0.0978018 0.0613295 0 0.0992046 0.059367 0 0.100635 0.0573658 0 0.102094 0.0553246 0 0.08588 0.0852 0 0.0868558 0.0835194 0 0.0878503 0.0818068 0 0.088864 0.0800611 0 0.0898973 0.0782814 0 0.0909511 0.0764667 0 0.0920257 0.0746159 0 0.0931219 0.072728 0 0.0942403 0.0708019 0 0.0953816 0.0688363 0 0.0965466 0.0668301 0 0.0977358 0.064782 0 0.0989502 0.0626905 0 0.100191 0.0605545 0 0.101458 0.0583724 0 0.102752 0.0561426 0 0.0888933 0.0881778 0 0.0897344 0.0863824 0 0.0905922 0.0845515 0 0.0914672 0.0826838 0 0.0923599 0.0807784 0 0.0932708 0.0788341 0 0.0942005 0.0768496 0 0.0951496 0.0748238 0 0.0961187 0.0727552 0 0.0971084 0.0706426 0 0.0981195 0.0684845 0 0.0991525 0.0662794 0 0.100208 0.0640258 0 0.101288 0.061722 0 0.102391 0.0593664 0 0.10352 0.0569572 0 0.0919067 0.0911556 0 0.0926242 0.0892347 0 0.093356 0.0872758 0 0.0941025 0.0852777 0 0.0948641 0.0832392 0 0.0956412 0.081159 0 0.0964343 0.0790359 0 0.097244 0.0768685 0 0.0980708 0.0746554 0 0.0989152 0.0723951 0 0.0997777 0.0700862 0 0.100659 0.067727 0 0.10156 0.065316 0 0.102481 0.0628512 0 0.103422 0.060331 0 0.104385 0.0577535 0 0.09492 0.0941333 0 0.0955222 0.0920734 0 0.0961359 0.0899741 0 0.0967614 0.0878344 0 0.0973991 0.085653 0 0.0980494 0.0834286 0 0.0987125 0.0811601 0 0.099389 0.0788461 0 0.100079 0.0764852 0 0.100783 0.0740759 0 0.101502 0.0716169 0 0.102236 0.0691064 0 0.102986 0.0665429 0 0.103751 0.0639247 0 0.104533 0.06125 0 0.105332 0.0585169 0 0.0979333 0.0971111 0 0.0984252 0.0948955 0 0.0989258 0.0926407 0 0.0994353 0.0903458 0 0.0999539 0.0880095 0 0.100482 0.0856309 0 0.10102 0.0832088 0 0.101567 0.0807419 0 0.102125 0.0782289 0 0.102694 0.0756687 0 0.103273 0.0730598 0 0.103863 0.0704008 0 0.104465 0.0676903 0 0.105078 0.0649268 0 0.105704 0.0621087 0 0.106342 0.0592344 0 0.100947 0.100089 0 0.10133 0.097698 0 0.10172 0.09527 0 0.102116 0.0928041 0 0.102517 0.0902993 0 0.102926 0.0877547 0 0.10334 0.0851694 0 0.103762 0.0825424 0 0.10419 0.0798726 0 0.104626 0.0771591 0 0.105068 0.0744007 0 0.105518 0.0715963 0 0.105976 0.0687447 0 0.106441 0.0658448 0 0.106914 0.0628953 0 0.107396 0.0598949 0 0.10396 0.103067 0 0.104234 0.100478 0 0.104512 0.0978567 0 0.104793 0.095202 0 0.105078 0.0925133 0 0.105367 0.0897898 0 0.105659 0.087031 0 0.105956 0.0842362 0 0.106256 0.0814046 0 0.10656 0.0785355 0 0.106868 0.0756281 0 0.10718 0.0726817 0 0.107497 0.0696956 0 0.107817 0.0666688 0 0.108143 0.0636005 0 0.108472 0.06049 0 0.106973 0.106044 0 0.107134 0.103233 0 0.107297 0.100396 0 0.107461 0.0975328 0 0.107626 0.0946434 0 0.107793 0.0917273 0 0.107962 0.0887842 0 0.108132 0.0858137 0 0.108304 0.0828153 0 0.108477 0.0797888 0 0.108652 0.0767336 0 0.108828 0.0736494 0 0.109007 0.0705358 0 0.109187 0.0673923 0 0.109369 0.0642186 0 0.109552 0.0610141 0 0.109987 0.109022 0 0.110027 0.10596 0 0.110068 0.102882 0 0.110109 0.09979 0 0.11015 0.0966825 0 0.110192 0.0935596 0 0.110233 0.0904213 0 0.110275 0.0872675 0 0.110317 0.084098 0 0.110359 0.0809129 0 0.110402 0.0777118 0 0.110445 0.0744948 0 0.110487 0.0712617 0 0.110531 0.0680123 0 0.110574 0.0647466 0 0.110617 0.0614644 0 0.113 0.112 0 0.11291 0.108656 0 0.11282 0.105312 0 0.112731 0.101968 0 0.112641 0.0986242 0 0.112551 0.0952803 0 0.112461 0.0919364 0 0.112371 0.0885924 0 0.112282 0.0852485 0 0.112192 0.0819045 0 0.112102 0.0785606 0 0.112012 0.0752167 0 0.111922 0.0718727 0 0.111833 0.0685288 0 0.111743 0.0651848 0 0.111653 0.0618409 0 
</DataArray>
</Points> 
</Piece> 
</StructuredGrid> 
</VTKFile> 
