<?xml version="1.0"?> 
<VTKFile type="StructuredGrid" version="0.1"> 
<StructuredGrid WholeExtent="0 7 0 7 0 0"> 
<Piece Extent="0 7 0 7 0 0"> 
<PointData>
<DataArray type="Float32" Name="|E|" format="ascii" NumberOfComponents="3"> 
3.26783e+06 -1.35358e+06 0 2.09048e+06 614626 0 1.41373e+06 618812 0 1.00869e+06 474149 0 756952 326675 0 595914 202745 0 506610 96491.4 0 477849 0 0 3.82137e+06 -1.0183e+06 0 2.06897e+06 754219 0 1.35447e+06 703401 0 950173 535676 0 703030 374010 0 548411 236144 0 462686 114426 0 431986 0 0 4.29457e+06 -539921 0 2.04154e+06 900217 0 1.29382e+06 790484 0 890165 598197 0 645597 420398 0 495308 267744 0 410943 130901 0 376237 0 0 4.66788e+06 57011.4 0 2.00932e+06 1.05215e+06 0 1.23287e+06 879836 0 828794 661761 0 584878 466076 0 436983 297801 0 352221 146073 0 311989 0 0 4.92457e+06 744999 0 1.97344e+06 1.20941e+06 0 1.17281e+06 971507 0 766318 726508 0 521300 511334 0 374089 326536 0 287560 160094 0 240628 0 0 5.05251e+06 1.49356e+06 0 1.93503e+06 1.37117e+06 0 1.11483e+06 1.06579e+06 0 703140 792632 0 455441 556479 0 307475 354117 0 218186 173044 0 163717 0 0 5.04562e+06 2.27008e+06 0 1.89519e+06 1.53644e+06 0 1.05997e+06 1.16311e+06 0 639811 860354 0 387954 601807 0 238120 380655 0 145440 184908 0 82966.6 0 0 4.90458e+06 3.04125e+06 0 1.85502e+06 1.70407e+06 0 1.00905e+06 1.26392e+06 0 577016 929918 0 319484 647579 0 167073 406208 0 70685.6 195520 0 -41.8293 0 0 </DataArray> 
</PointData> 
<Points> 
<DataArray type="Float32" NumberOfComponents="3"> 
0.2018 0.0378 0 0.226257 0.0378 0 0.250714 0.0378 0 0.275171 0.0378 0 0.299629 0.0378 0 0.324086 0.0378 0 0.348543 0.0378 0 0.373 0.0378 0 0.202484 0.0398184 0 0.22742 0.0410734 0 0.25216 0.0423185 0 0.276707 0.0435538 0 0.301062 0.0447796 0 0.325227 0.0459958 0 0.349206 0.0472025 0 0.373 0.0484 0 0.202901 0.0419587 0 0.228176 0.0444908 0 0.253114 0.0469893 0 0.277724 0.0494548 0 0.302011 0.051888 0 0.325982 0.0542895 0 0.349643 0.05666 0 0.373 0.059 0 0.203026 0.0441667 0 0.228486 0.0479763 0 0.253537 0.0517247 0 0.27819 0.0554136 0 0.302454 0.0590442 0 0.326338 0.0626179 0 0.34985 0.0661361 0 0.373 0.0696 0 0.202846 0.0463814 0 0.228333 0.051447 0 0.253411 0.0564313 0 0.27809 0.0613363 0 0.302379 0.0661639 0 0.326288 0.0709159 0 0.349826 0.075594 0 0.373 0.0802 0 0.202366 0.0485402 0 0.22772 0.0548194 0 0.252737 0.0610152 0 0.277424 0.0671293 0 0.301788 0.0731633 0 0.325834 0.0791187 0 0.34957 0.0849971 0 0.373 0.0908 0 0.201608 0.0505849 0 0.226672 0.0580161 0 0.251539 0.0653888 0 0.276212 0.0727039 0 0.300692 0.0799618 0 0.324982 0.0871634 0 0.349084 0.0943093 0 0.373 0.1014 0 0.200607 0.0524662 0 0.225234 0.0609711 0 0.249862 0.0694759 0 0.27449 0.0779807 0 0.299117 0.0864855 0 0.323745 0.0949904 0 0.348372 0.103495 0 0.373 0.112 0 
</DataArray>
</Points> 
</Piece> 
</StructuredGrid> 
</VTKFile> 
