<?xml version="1.0"?> 
<VTKFile type="StructuredGrid" version="0.1"> 
<StructuredGrid WholeExtent="0 7 0 7 0 0"> 
<Piece Extent="0 7 0 7 0 0"> 
<PointData>
<DataArray type="Float32" Name="|E|" format="ascii" NumberOfComponents="3"> 
-2.07969e+06 48002 0 -2.13809e+06 121980 0 -2.24638e+06 195817 0 -2.41327e+06 271623 0 -2.65245e+06 356238 0 -2.9923e+06 437358 0 -3.46991e+06 420857 0 -3.80223e+06 0 0 -2.07868e+06 61779.7 0 -2.14096e+06 138839 0 -2.25113e+06 217655 0 -2.41831e+06 301267 0 -2.65497e+06 397050 0 -2.99477e+06 496266 0 -3.49821e+06 503415 0 -3.90359e+06 5.17466e-08 0 -2.07783e+06 76494 0 -2.14398e+06 156753 0 -2.25567e+06 240668 0 -2.42265e+06 332077 0 -2.65575e+06 439036 0 -2.99522e+06 557609 0 -3.52553e+06 600197 0 -4.04138e+06 -1.07684e-07 0 -2.07738e+06 91949.3 0 -2.14709e+06 175649 0 -2.25999e+06 264910 0 -2.4263e+06 364006 0 -2.65443e+06 482205 0 -2.99362e+06 621311 0 -3.54806e+06 714804 0 -4.23393e+06 8.26549e-08 0 -2.07741e+06 108363 0 -2.15022e+06 195469 0 -2.26406e+06 290500 0 -2.42925e+06 396875 0 -2.65055e+06 526685 0 -2.98999e+06 687081 0 -3.55969e+06 850519 0 -4.51897e+06 -7.82311e-08 0 -2.07822e+06 126504 0 -2.15331e+06 216213 0 -2.26788e+06 317793 0 -2.43145e+06 430050 0 -2.64377e+06 573068 0 -2.98415e+06 754525 0 -3.55122e+06 1.00695e+06 0 -4.97997e+06 1.78814e-07 0 -2.08078e+06 148045 0 -2.15644e+06 238018 0 -2.27146e+06 347843 0 -2.43248e+06 461526 0 -2.63463e+06 623382 0 -2.97395e+06 823840 0 -3.5109e+06 1.16957e+06 0 -5.81801e+06 -2.30968e-07 0 -2.08699e+06 175462 0 -2.16016e+06 261064 0 -2.2749e+06 383759 0 -2.43066e+06 485355 0 -2.62752e+06 683771 0 -2.94872e+06 898804 0 -3.4304e+06 1.27641e+06 0 -7.55505e+06 -3.57628e-07 0 </DataArray> 
</PointData> 
<Points> 
<DataArray type="Float32" NumberOfComponents="3"> 
0.006 0.016 0 0.0158571 0.0151429 0 0.0257143 0.0142857 0 0.0355714 0.0134286 0 0.0454286 0.0125714 0 0.0552857 0.0117143 0 0.0651429 0.0108571 0 0.075 0.01 0 0.00742857 0.0167143 0 0.0170816 0.0159796 0 0.0267347 0.0152449 0 0.0363878 0.0145102 0 0.0460408 0.0137755 0 0.0556939 0.0130408 0 0.0653469 0.0123061 0 0.075 0.0115714 0 0.00885714 0.0174286 0 0.0183061 0.0168163 0 0.0277551 0.0162041 0 0.0372041 0.0155918 0 0.0466531 0.0149796 0 0.056102 0.0143673 0 0.065551 0.0137551 0 0.075 0.0131429 0 0.0102857 0.0181429 0 0.0195306 0.0176531 0 0.0287755 0.0171633 0 0.0380204 0.0166735 0 0.0472653 0.0161837 0 0.0565102 0.0156939 0 0.0657551 0.0152041 0 0.075 0.0147143 0 0.0117143 0.0188571 0 0.0207551 0.0184898 0 0.0297959 0.0181224 0 0.0388367 0.0177551 0 0.0478776 0.0173878 0 0.0569184 0.0170204 0 0.0659592 0.0166531 0 0.075 0.0162857 0 0.0131429 0.0195714 0 0.0219796 0.0193265 0 0.0308163 0.0190816 0 0.0396531 0.0188367 0 0.0484898 0.0185918 0 0.0573265 0.0183469 0 0.0661633 0.018102 0 0.075 0.0178571 0 0.0145714 0.0202857 0 0.0232041 0.0201633 0 0.0318367 0.0200408 0 0.0404694 0.0199184 0 0.049102 0.0197959 0 0.0577347 0.0196735 0 0.0663673 0.019551 0 0.075 0.0194286 0 0.016 0.021 0 0.0244286 0.021 0 0.0328571 0.021 0 0.0412857 0.021 0 0.0497143 0.021 0 0.0581429 0.021 0 0.0665714 0.021 0 0.075 0.021 0 
</DataArray>
</Points> 
</Piece> 
</StructuredGrid> 
</VTKFile> 
