<?xml version="1.0"?> 
<VTKFile type="StructuredGrid" version="0.1"> 
<StructuredGrid WholeExtent="0 7 0 7 0 0"> 
<Piece Extent="0 7 0 7 0 0"> 
<PointData>
<DataArray type="Float32" Name="|E|" format="ascii" NumberOfComponents="3"> 
-2.11021e+06 0 0 -2.13863e+06 54395.4 0 -2.22576e+06 113051 0 -2.37805e+06 180130 0 -2.60893e+06 261227 0 -2.9417e+06 358159 0 -3.41644e+06 396164 0 -3.80582e+06 -41325.7 0 -2.10581e+06 0 0 -2.12707e+06 51059.3 0 -2.19188e+06 105005 0 -2.30387e+06 165086 0 -2.46991e+06 234681 0 -2.70174e+06 318237 0 -3.02297e+06 408622 0 -3.47137e+06 404069 0 -2.10099e+06 0 0 -2.11617e+06 46573.1 0 -2.16225e+06 94880.2 0 -2.24114e+06 147281 0 -2.35579e+06 205872 0 -2.51213e+06 273250 0 -2.71821e+06 351720 0 -2.99269e+06 432867 0 -2.09575e+06 0 0 -2.10593e+06 40902.7 0 -2.13673e+06 82828.2 0 -2.18888e+06 126945 0 -2.26377e+06 174840 0 -2.36347e+06 227700 0 -2.49153e+06 287943 0 -2.65242e+06 356591 0 -2.09016e+06 0 0 -2.09635e+06 34063.5 0 -2.11508e+06 68723.1 0 -2.14649e+06 104308 0 -2.19112e+06 141741 0 -2.24972e+06 181631 0 -2.32323e+06 224716 0 -2.41322e+06 272182 0 -2.08426e+06 0 0 -2.08747e+06 26091.6 0 -2.09713e+06 52446.4 0 -2.11337e+06 79215.8 0 -2.13617e+06 106537 0 -2.16574e+06 134786 0 -2.20241e+06 164129 0 -2.24645e+06 195100 0 -2.07801e+06 0 0 -2.07922e+06 17009 0 -2.08284e+06 34029.2 0 -2.08889e+06 51239.8 0 -2.09747e+06 68678.4 0 -2.10854e+06 86316 0 -2.12205e+06 104181 0 -2.13807e+06 122187 0 -2.0714e+06 0 0 -2.07157e+06 6770.47 0 -2.07207e+06 13542.4 0 -2.07295e+06 20665.5 0 -2.07419e+06 27736.4 0 -2.07574e+06 34224.3 0 -2.07759e+06 40402.4 0 -2.07976e+06 47148.9 0 </DataArray> 
</PointData> 
<Points> 
<DataArray type="Float32" NumberOfComponents="3"> 
0 0.01 0 0.0107143 0.01 0 0.0214286 0.01 0 0.0321429 0.01 0 0.0428571 0.01 0 0.0535714 0.01 0 0.0642857 0.01 0 0.075 0.01 0 0 0.0108571 0 0.00930612 0.0108571 0 0.0186122 0.0108571 0 0.0279184 0.0108571 0 0.0372245 0.0108571 0 0.0465306 0.0108571 0 0.0558367 0.0108571 0 0.0651429 0.0108571 0 0 0.0117143 0 0.00789796 0.0117143 0 0.0157959 0.0117143 0 0.0236939 0.0117143 0 0.0315918 0.0117143 0 0.0394898 0.0117143 0 0.0473878 0.0117143 0 0.0552857 0.0117143 0 0 0.0125714 0 0.0064898 0.0125714 0 0.0129796 0.0125714 0 0.0194694 0.0125714 0 0.0259592 0.0125714 0 0.032449 0.0125714 0 0.0389388 0.0125714 0 0.0454286 0.0125714 0 0 0.0134286 0 0.00508163 0.0134286 0 0.0101633 0.0134286 0 0.0152449 0.0134286 0 0.0203265 0.0134286 0 0.0254082 0.0134286 0 0.0304898 0.0134286 0 0.0355714 0.0134286 0 0 0.0142857 0 0.00367347 0.0142857 0 0.00734694 0.0142857 0 0.0110204 0.0142857 0 0.0146939 0.0142857 0 0.0183673 0.0142857 0 0.0220408 0.0142857 0 0.0257143 0.0142857 0 0 0.0151429 0 0.00226531 0.0151429 0 0.00453061 0.0151429 0 0.00679592 0.0151429 0 0.00906122 0.0151429 0 0.0113265 0.0151429 0 0.0135918 0.0151429 0 0.0158571 0.0151429 0 0 0.016 0 0.000857143 0.016 0 0.00171429 0.016 0 0.00257143 0.016 0 0.00342857 0.016 0 0.00428571 0.016 0 0.00514286 0.016 0 0.006 0.016 0 
</DataArray>
</Points> 
</Piece> 
</StructuredGrid> 
</VTKFile> 
