<?xml version="1.0"?> 
<VTKFile type="StructuredGrid" version="0.1"> 
<StructuredGrid WholeExtent="0 7 0 7 0 0"> 
<Piece Extent="0 7 0 7 0 0"> 
<PointData>
<DataArray type="Float32" Name="|E|" format="ascii" NumberOfComponents="3"> 
460276 6.98106e+06 0 346664 5.25788e+06 0 317060 4.80888e+06 0 301381 4.57107e+06 0 291583 4.42247e+06 0 284877 4.32075e+06 0 280231 4.25028e+06 0 276966 4.20077e+06 0 -869900 5.07795e+06 0 -349944 4.92552e+06 0 -81019.9 4.6992e+06 0 49870 4.52367e+06 0 120759 4.39766e+06 0 164122 4.30633e+06 0 193539 4.23965e+06 0 215985 4.19106e+06 0 -807982 4.40382e+06 0 -502702 4.46191e+06 0 -270911 4.42972e+06 0 -113072 4.36556e+06 0 -7905.67 4.29897e+06 0 64051.5 4.24016e+06 0 116089 4.19082e+06 0 156870 4.15056e+06 0 -644473 4.0577e+06 0 -461279 4.15204e+06 0 -301455 4.1905e+06 0 -172684 4.19259e+06 0 -73843.6 4.17537e+06 0 1145.92 4.14948e+06 0 59305.4 4.12073e+06 0 106768 4.09176e+06 0 -469433 3.85122e+06 0 -362709 3.95246e+06 0 -258077 4.01657e+06 0 -166178 4.05071e+06 0 -89509.9 4.06311e+06 0 -26859.3 4.06077e+06 0 24559.9 4.04863e+06 0 68116.2 4.02983e+06 0 -313114 3.7279e+06 0 -246078 3.82855e+06 0 -182695 3.90177e+06 0 -124585 3.9504e+06 0 -73589.4 3.9785e+06 0 -30000.5 3.99021e+06 0 7172.58 3.98899e+06 0 39541.2 3.97744e+06 0 -153507 3.66136e+06 0 -123831 3.76043e+06 0 -93851.9 3.83669e+06 0 -65753.8 3.89144e+06 0 -40500.8 3.92692e+06 0 -18358.5 3.94574e+06 0 940.913 3.95042e+06 0 18018.9 3.94301e+06 0 0 3.64041e+06 0 0 3.7387e+06 0 0 3.8156e+06 0 0 3.87203e+06 0 0 3.90967e+06 0 0 3.93063e+06 0 0 3.93715e+06 0 0 3.93107e+06 0 </DataArray> 
</PointData> 
<Points> 
<DataArray type="Float32" NumberOfComponents="3"> 
0.113 0.065 0 0.117786 0.0646845 0 0.122571 0.0643689 0 0.127357 0.0640534 0 0.132143 0.0637379 0 0.136929 0.0634223 0 0.141714 0.0631068 0 0.1465 0.0627913 0 0.113 0.0717143 0 0.117786 0.0714438 0 0.122571 0.0711734 0 0.127357 0.0709029 0 0.132143 0.0706325 0 0.136929 0.070362 0 0.141714 0.0700915 0 0.1465 0.0698211 0 0.113 0.0784286 0 0.117786 0.0782032 0 0.122571 0.0779778 0 0.127357 0.0777524 0 0.132143 0.077527 0 0.136929 0.0773017 0 0.141714 0.0770763 0 0.1465 0.0768509 0 0.113 0.0851429 0 0.117786 0.0849626 0 0.122571 0.0847822 0 0.127357 0.0846019 0 0.132143 0.0844216 0 0.136929 0.0842413 0 0.141714 0.084061 0 0.1465 0.0838807 0 0.113 0.0918571 0 0.117786 0.0917219 0 0.122571 0.0915867 0 0.127357 0.0914515 0 0.132143 0.0913162 0 0.136929 0.091181 0 0.141714 0.0910458 0 0.1465 0.0909105 0 0.113 0.0985714 0 0.117786 0.0984813 0 0.122571 0.0983911 0 0.127357 0.098301 0 0.132143 0.0982108 0 0.136929 0.0981207 0 0.141714 0.0980305 0 0.1465 0.0979404 0 0.113 0.105286 0 0.117786 0.105241 0 0.122571 0.105196 0 0.127357 0.10515 0 0.132143 0.105105 0 0.136929 0.10506 0 0.141714 0.105015 0 0.1465 0.10497 0 0.113 0.112 0 0.117786 0.112 0 0.122571 0.112 0 0.127357 0.112 0 0.132143 0.112 0 0.136929 0.112 0 0.141714 0.112 0 0.1465 0.112 0 
</DataArray>
</Points> 
</Piece> 
</StructuredGrid> 
</VTKFile> 
