<?xml version="1.0"?> 
<VTKFile type="StructuredGrid" version="0.1"> 
<StructuredGrid WholeExtent="0 7 0 7 0 0"> 
<Piece Extent="0 7 0 7 0 0"> 
<PointData>
<DataArray type="Float32" Name="|E|" format="ascii" NumberOfComponents="3"> 
276966 4.20077e+06 0 274753 4.1672e+06 0 273653 4.15052e+06 0 273744 4.1519e+06 0 275313 4.17569e+06 0 278979 4.2313e+06 0 286041 4.33842e+06 0 299697 4.54553e+06 0 215937 4.19106e+06 0 236512 4.15592e+06 0 257721 4.13514e+06 0 283142 4.12904e+06 0 317462 4.13986e+06 0 368354 4.17204e+06 0 450497 4.23215e+06 0 595913 4.32513e+06 0 156874 4.15056e+06 0 193944 4.11721e+06 0 230646 4.09202e+06 0 272028 4.07458e+06 0 323840 4.06455e+06 0 393630 4.06087e+06 0 491849 4.05972e+06 0 631707 4.05013e+06 0 106779 4.09176e+06 0 150462 4.06242e+06 0 193015 4.03421e+06 0 239041 4.00658e+06 0 293170 3.97816e+06 0 360244 3.94616e+06 0 444996 3.90551e+06 0 550602 3.84781e+06 0 68106.7 4.02983e+06 0 108848 4.00492e+06 0 148257 3.97534e+06 0 189656 3.94079e+06 0 236094 3.90001e+06 0 290205 3.85062e+06 0 353784 3.789e+06 0 427066 3.71048e+06 0 39547.1 3.97744e+06 0 70247.6 3.95613e+06 0 99867.6 3.92626e+06 0 130409 3.88783e+06 0 163608 3.84004e+06 0 200766 3.78133e+06 0 242507 3.70958e+06 0 288450 3.62242e+06 0 18018.3 3.94301e+06 0 34355.5 3.92394e+06 0 50106.6 3.89419e+06 0 66184.4 3.85396e+06 0 83356.7 3.8028e+06 0 102151 3.73976e+06 0 122750 3.66361e+06 0 144895 3.57313e+06 0 0 3.93107e+06 0 0 3.91275e+06 0 0 3.88309e+06 0 0 3.84235e+06 0 0 3.79021e+06 0 0 3.72593e+06 0 0 3.64856e+06 0 0 3.55724e+06 0 </DataArray> 
</PointData> 
<Points> 
<DataArray type="Float32" NumberOfComponents="3"> 
0.1465 0.0627913 0 0.1515 0.0624616 0 0.1565 0.0621319 0 0.1615 0.0618023 0 0.1665 0.0614726 0 0.1715 0.061143 0 0.1765 0.0608133 0 0.1815 0.0604836 0 0.1465 0.0698211 0 0.1515 0.0695385 0 0.1565 0.069256 0 0.1615 0.0689734 0 0.1665 0.0686908 0 0.1715 0.0684083 0 0.1765 0.0681257 0 0.1815 0.0678431 0 0.1465 0.0768509 0 0.1515 0.0766154 0 0.1565 0.07638 0 0.1615 0.0761445 0 0.1665 0.075909 0 0.1715 0.0756735 0 0.1765 0.0754381 0 0.1815 0.0752026 0 0.1465 0.0838807 0 0.1515 0.0836923 0 0.1565 0.083504 0 0.1615 0.0833156 0 0.1665 0.0831272 0 0.1715 0.0829388 0 0.1765 0.0827505 0 0.1815 0.0825621 0 0.1465 0.0909105 0 0.1515 0.0907693 0 0.1565 0.090628 0 0.1615 0.0904867 0 0.1665 0.0903454 0 0.1715 0.0902041 0 0.1765 0.0900628 0 0.1815 0.0899216 0 0.1465 0.0979404 0 0.1515 0.0978462 0 0.1565 0.097752 0 0.1615 0.0976578 0 0.1665 0.0975636 0 0.1715 0.0974694 0 0.1765 0.0973752 0 0.1815 0.097281 0 0.1465 0.10497 0 0.1515 0.104923 0 0.1565 0.104876 0 0.1615 0.104829 0 0.1665 0.104782 0 0.1715 0.104735 0 0.1765 0.104688 0 0.1815 0.104641 0 0.1465 0.112 0 0.1515 0.112 0 0.1565 0.112 0 0.1615 0.112 0 0.1665 0.112 0 0.1715 0.112 0 0.1765 0.112 0 0.1815 0.112 0 
</DataArray>
</Points> 
</Piece> 
</StructuredGrid> 
</VTKFile> 
