<?xml version="1.0"?> 
<VTKFile type="StructuredGrid" version="0.1"> 
<StructuredGrid WholeExtent="0 7 0 7 0 0"> 
<Piece Extent="0 7 0 7 0 0"> 
<PointData>
<DataArray type="Float32" Name="|E|" format="ascii" NumberOfComponents="3"> 
299697 4.54553e+06 0 303581 4.60444e+06 0 308176 4.67414e+06 0 313736 4.75846e+06 0 320670 4.86364e+06 0 329686 5.00038e+06 0 342044 5.18782e+06 0 360079 5.46134e+06 0 595944 4.32513e+06 0 634741 4.34526e+06 0 678647 4.3656e+06 0 728299 4.38555e+06 0 784197 4.40429e+06 0 846403 4.42081e+06 0 913925 4.43401e+06 0 983413 4.44307e+06 0 631695 4.05013e+06 0 663232 4.04577e+06 0 696610 4.04013e+06 0 731821 4.03302e+06 0 768827 4.02417e+06 0 807582 4.01327e+06 0 848059 3.99979e+06 0 890338 3.9827e+06 0 550597 3.84781e+06 0 572493 3.83429e+06 0 595035 3.81967e+06 0 618177 3.80385e+06 0 641877 3.78675e+06 0 666124 3.7683e+06 0 691006 3.74854e+06 0 716858 3.72771e+06 0 427066 3.71048e+06 0 441626 3.69363e+06 0 456439 3.67599e+06 0 471477 3.65755e+06 0 486690 3.63826e+06 0 501982 3.61811e+06 0 517142 3.59704e+06 0 531688 3.57496e+06 0 288449 3.62242e+06 0 297326 3.60435e+06 0 306270 3.58567e+06 0 315266 3.56636e+06 0 324305 3.54642e+06 0 333406 3.52584e+06 0 342656 3.5046e+06 0 352312 3.48268e+06 0 144895 3.57313e+06 0 149128 3.55467e+06 0 153386 3.53567e+06 0 157659 3.51613e+06 0 161938 3.49604e+06 0 166204 3.47541e+06 0 170427 3.45426e+06 0 174559 3.43269e+06 0 0 3.55724e+06 0 0 3.53869e+06 0 0 3.51963e+06 0 0 3.50005e+06 0 0 3.47994e+06 0 0 3.4593e+06 0 0 3.43817e+06 0 0 3.41678e+06 0 </DataArray> 
</PointData> 
<Points> 
<DataArray type="Float32" NumberOfComponents="3"> 
0.1815 0.0604836 0 0.182429 0.0604224 0 0.183357 0.0603612 0 0.184286 0.0603 0 0.185214 0.0602388 0 0.186143 0.0601775 0 0.187071 0.0601163 0 0.188 0.0600551 0 0.1815 0.0678431 0 0.182429 0.0677906 0 0.183357 0.0677382 0 0.184286 0.0676857 0 0.185214 0.0676332 0 0.186143 0.0675807 0 0.187071 0.0675283 0 0.188 0.0674758 0 0.1815 0.0752026 0 0.182429 0.0751589 0 0.183357 0.0751151 0 0.184286 0.0750714 0 0.185214 0.0750277 0 0.186143 0.0749839 0 0.187071 0.0749402 0 0.188 0.0748965 0 0.1815 0.0825621 0 0.182429 0.0825271 0 0.183357 0.0824921 0 0.184286 0.0824571 0 0.185214 0.0824221 0 0.186143 0.0823872 0 0.187071 0.0823522 0 0.188 0.0823172 0 0.1815 0.0899216 0 0.182429 0.0898953 0 0.183357 0.0898691 0 0.184286 0.0898428 0 0.185214 0.0898166 0 0.186143 0.0897904 0 0.187071 0.0897641 0 0.188 0.0897379 0 0.1815 0.097281 0 0.182429 0.0972635 0 0.183357 0.0972461 0 0.184286 0.0972286 0 0.185214 0.0972111 0 0.186143 0.0971936 0 0.187071 0.0971761 0 0.188 0.0971586 0 0.1815 0.104641 0 0.182429 0.104632 0 0.183357 0.104623 0 0.184286 0.104614 0 0.185214 0.104606 0 0.186143 0.104597 0 0.187071 0.104588 0 0.188 0.104579 0 0.1815 0.112 0 0.182429 0.112 0 0.183357 0.112 0 0.184286 0.112 0 0.185214 0.112 0 0.186143 0.112 0 0.187071 0.112 0 0.188 0.112 0 
</DataArray>
</Points> 
</Piece> 
</StructuredGrid> 
</VTKFile> 
