<?xml version="1.0"?> 
<VTKFile type="StructuredGrid" version="0.1"> 
<StructuredGrid WholeExtent="0 63 0 63 0 0"> 
<Piece Extent="0 63 0 63 0 0"> 
<PointData>
<DataArray type="Float32" Name="|E|" format="ascii" NumberOfComponents="3"> 
470291 7.13295e+06 0 427316 6.48115e+06 0 406133 6.15985e+06 0 391617 5.93969e+06 0 380586 5.77238e+06 0 371593 5.63598e+06 0 364023 5.52117e+06 0 357494 5.42214e+06 0 351770 5.33534e+06 0 346689 5.25826e+06 0 342132 5.18915e+06 0 338012 5.12667e+06 0 334263 5.0698e+06 0 330831 5.01775e+06 0 327674 4.96987e+06 0 324758 4.92563e+06 0 322054 4.88462e+06 0 319538 4.84646e+06 0 317191 4.81086e+06 0 314994 4.77755e+06 0 312935 4.74631e+06 0 310998 4.71694e+06 0 309175 4.68929e+06 0 307455 4.66319e+06 0 305829 4.63853e+06 0 304289 4.61519e+06 0 302830 4.59306e+06 0 301445 4.57205e+06 0 300129 4.55208e+06 0 298876 4.53309e+06 0 297683 4.51499e+06 0 296546 4.49774e+06 0 295460 4.48127e+06 0 294423 4.46555e+06 0 293432 4.45051e+06 0 292484 4.43613e+06 0 291576 4.42236e+06 0 290707 4.40917e+06 0 289873 4.39653e+06 0 289074 4.38441e+06 0 288307 4.37278e+06 0 287571 4.36161e+06 0 286863 4.35089e+06 0 286184 4.34058e+06 0 285531 4.33068e+06 0 284904 4.32116e+06 0 284301 4.31201e+06 0 283720 4.30321e+06 0 283162 4.29475e+06 0 282626 4.28661e+06 0 282109 4.27878e+06 0 281613 4.27125e+06 0 281135 4.264e+06 0 280676 4.25703e+06 0 280234 4.25033e+06 0 279809 4.24389e+06 0 279401 4.2377e+06 0 279009 4.23176e+06 0 278633 4.22605e+06 0 278272 4.22057e+06 0 277925 4.21532e+06 0 277593 4.21029e+06 0 277276 4.20547e+06 0 276972 4.20086e+06 0 -287287 6.53719e+06 0 -33094 6.35012e+06 0 76887.7 6.11843e+06 0 138086 5.92769e+06 0 174657 5.76994e+06 0 198898 5.63803e+06 0 215750 5.5252e+06 0 228007 5.42715e+06 0 237185 5.34076e+06 0 244223 5.26382e+06 0 249719 5.19469e+06 0 254071 5.13209e+06 0 257556 5.07507e+06 0 260373 5.02283e+06 0 262664 4.97475e+06 0 264538 4.93032e+06 0 266076 4.8891e+06 0 267341 4.85075e+06 0 268383 4.81496e+06 0 269241 4.78147e+06 0 269946 4.75006e+06 0 270524 4.72054e+06 0 270994 4.69273e+06 0 271374 4.66649e+06 0 271677 4.64169e+06 0 271916 4.61821e+06 0 272100 4.59595e+06 0 272237 4.57483e+06 0 272335 4.55475e+06 0 272398 4.53565e+06 0 272432 4.51745e+06 0 272442 4.5001e+06 0 272431 4.48355e+06 0 272403 4.46773e+06 0 272360 4.45262e+06 0 272304 4.43816e+06 0 272238 4.42431e+06 0 272163 4.41105e+06 0 272082 4.39834e+06 0 271995 4.38615e+06 0 271904 4.37445e+06 0 271811 4.36322e+06 0 271715 4.35244e+06 0 271619 4.34208e+06 0 271522 4.33213e+06 0 271426 4.32256e+06 0 271331 4.31336e+06 0 271238 4.30451e+06 0 271147 4.29599e+06 0 271059 4.28781e+06 0 270975 4.27993e+06 0 270895 4.27235e+06 0 270819 4.26507e+06 0 270747 4.25806e+06 0 270681 4.25132e+06 0 270621 4.24483e+06 0 270566 4.23861e+06 0 270517 4.23262e+06 0 270475 4.22688e+06 0 270440 4.22136e+06 0 270412 4.21607e+06 0 270391 4.211e+06 0 270379 4.20615e+06 0 270374 4.20151e+06 0 -489316 6.25914e+06 0 -317397 6.12208e+06 0 -179269 5.98381e+06 0 -83293.4 5.84449e+06 0 -14804.2 5.71664e+06 0 35028.1 5.60198e+06 0 72526.4 5.49998e+06 0 101473 5.40898e+06 0 124350 5.32741e+06 0 142782 5.25387e+06 0 157876 5.18719e+06 0 170411 5.12643e+06 0 180943 5.07078e+06 0 189885 5.0196e+06 0 197543 4.97235e+06 0 204155 4.92856e+06 0 209901 4.88786e+06 0 214928 4.84992e+06 0 219348 4.81445e+06 0 223256 4.78123e+06 0 226725 4.75003e+06 0 229817 4.72067e+06 0 232585 4.693e+06 0 235071 4.66687e+06 0 237310 4.64216e+06 0 239334 4.61876e+06 0 241168 4.59656e+06 0 242835 4.57548e+06 0 244353 4.55544e+06 0 245739 4.53637e+06 0 247008 4.51819e+06 0 248172 4.50086e+06 0 249242 4.48431e+06 0 250228 4.4685e+06 0 251138 4.45338e+06 0 251980 4.43892e+06 0 252761 4.42507e+06 0 253487 4.4118e+06 0 254162 4.39908e+06 0 254793 4.38687e+06 0 255382 4.37516e+06 0 255935 4.36392e+06 0 256455 4.35312e+06 0 256945 4.34275e+06 0 257407 4.33277e+06 0 257845 4.32319e+06 0 258262 4.31397e+06 0 258658 4.3051e+06 0 259038 4.29656e+06 0 259401 4.28836e+06 0 259751 4.28046e+06 0 260089 4.27286e+06 0 260417 4.26555e+06 0 260735 4.25852e+06 0 261046 4.25175e+06 0 261351 4.24525e+06 0 261650 4.239e+06 0 261946 4.23299e+06 0 262239 4.22722e+06 0 262530 4.22168e+06 0 262821 4.21636e+06 0 263113 4.21127e+06 0 263406 4.20639e+06 0 263701 4.20172e+06 0 -646292 6.00217e+06 0 -487359 5.92498e+06 0 -358937 5.8293e+06 0 -255140 5.72991e+06 0 -173326 5.63156e+06 0 -108691 5.53815e+06 0 -57255.5 5.45116e+06 0 -15793 5.37097e+06 0 18069 5.29731e+06 0 46082.2 5.22968e+06 0 69531.7 5.16751e+06 0 89372.5 5.11023e+06 0 106322 5.05732e+06 0 120927 5.00832e+06 0 133608 4.96283e+06 0 144697 4.92048e+06 0 154453 4.88096e+06 0 163086 4.844e+06 0 170764 4.80936e+06 0 177625 4.77683e+06 0 183782 4.74621e+06 0 189329 4.71736e+06 0 194346 4.69012e+06 0 198897 4.66436e+06 0 203040 4.63996e+06 0 206822 4.61684e+06 0 210285 4.59488e+06 0 213463 4.57401e+06 0 216387 4.55415e+06 0 219084 4.53523e+06 0 221577 4.51719e+06 0 223887 4.49998e+06 0 226031 4.48354e+06 0 228026 4.46783e+06 0 229885 4.45279e+06 0 231621 4.4384e+06 0 233246 4.42462e+06 0 234769 4.41141e+06 0 236199 4.39873e+06 0 237544 4.38658e+06 0 238813 4.3749e+06 0 240011 4.36369e+06 0 241145 4.35292e+06 0 242220 4.34257e+06 0 243241 4.33262e+06 0 244213 4.32305e+06 0 245140 4.31384e+06 0 246026 4.30498e+06 0 246874 4.29646e+06 0 247689 4.28825e+06 0 248473 4.28036e+06 0 249228 4.27276e+06 0 249959 4.26545e+06 0 250667 4.25841e+06 0 251354 4.25164e+06 0 252023 4.24513e+06 0 252677 4.23887e+06 0 253316 4.23285e+06 0 253944 4.22707e+06 0 254561 4.22152e+06 0 255170 4.21619e+06 0 255773 4.21107e+06 0 256370 4.20618e+06 0 256964 4.20149e+06 0 -737847 5.79671e+06 0 -604569 5.74211e+06 0 -485906 5.67788e+06 0 -384815 5.60622e+06 0 -299697 5.53196e+06 0 -228700 5.45803e+06 0 -169511 5.38643e+06 0 -120014 5.31824e+06 0 -78375 5.25395e+06 0 -43098.7 5.19367e+06 0 -12988 5.13733e+06 0 12904.5 5.08472e+06 0 35328.6 5.03558e+06 0 54879.2 4.98967e+06 0 72030.9 4.94671e+06 0 87165.1 4.90647e+06 0 100590 4.86872e+06 0 112558 4.83325e+06 0 123275 4.79987e+06 0 132913 4.76842e+06 0 141613 4.73874e+06 0 149496 4.71069e+06 0 156662 4.68414e+06 0 163198 4.65899e+06 0 169175 4.63513e+06 0 174657 4.61247e+06 0 179699 4.59093e+06 0 184346 4.57042e+06 0 188641 4.55089e+06 0 192618 4.53226e+06 0 196309 4.51448e+06 0 199741 4.4975e+06 0 202939 4.48126e+06 0 205925 4.46573e+06 0 208718 4.45087e+06 0 211334 4.43662e+06 0 213791 4.42297e+06 0 216100 4.40988e+06 0 218276 4.39732e+06 0 220329 4.38526e+06 0 222269 4.37367e+06 0 224105 4.36254e+06 0 225847 4.35184e+06 0 227502 4.34155e+06 0 229077 4.33166e+06 0 230578 4.32214e+06 0 232011 4.31298e+06 0 233383 4.30416e+06 0 234697 4.29567e+06 0 235960 4.2875e+06 0 237174 4.27963e+06 0 238345 4.27206e+06 0 239476 4.26476e+06 0 240570 4.25774e+06 0 241631 4.25099e+06 0 242663 4.24449e+06 0 243668 4.23823e+06 0 244649 4.23222e+06 0 245609 4.22643e+06 0 246550 4.22088e+06 0 247475 4.21555e+06 0 248386 4.21043e+06 0 249286 4.20552e+06 0 250176 4.20082e+06 0 -803098 5.61411e+06 0 -684347 5.57977e+06 0 -577298 5.53495e+06 0 -482016 5.48346e+06 0 -398602 5.42774e+06 0 -326225 5.37016e+06 0 -263753 5.31244e+06 0 -209894 5.25583e+06 0 -163405 5.20108e+06 0 -123155 5.14866e+06 0 -88167.2 5.09878e+06 0 -57614.3 5.0515e+06 0 -30805.8 5.00679e+06 0 -7169.32 4.96457e+06 0 13769 4.92472e+06 0 32401.4 4.8871e+06 0 49053.7 4.85158e+06 0 63997.2 4.81802e+06 0 77459.1 4.78629e+06 0 89630.4 4.75625e+06 0 100672 4.7278e+06 0 110722 4.70082e+06 0 119897 4.67522e+06 0 128296 4.65089e+06 0 136006 4.62777e+06 0 143102 4.60575e+06 0 149648 4.58478e+06 0 155700 4.56479e+06 0 161309 4.54571e+06 0 166518 4.52749e+06 0 171364 4.51008e+06 0 175882 4.49343e+06 0 180102 4.4775e+06 0 184050 4.46224e+06 0 187751 4.44761e+06 0 191226 4.43359e+06 0 194494 4.42014e+06 0 197573 4.40723e+06 0 200478 4.39484e+06 0 203223 4.38293e+06 0 205821 4.37148e+06 0 208285 4.36047e+06 0 210624 4.34989e+06 0 212849 4.3397e+06 0 214969 4.3299e+06 0 216991 4.32047e+06 0 218923 4.31138e+06 0 220774 4.30264e+06 0 222548 4.29421e+06 0 224251 4.28609e+06 0 225891 4.27828e+06 0 227471 4.27075e+06 0 228998 4.2635e+06 0 230474 4.25651e+06 0 231905 4.24979e+06 0 233295 4.24331e+06 0 234647 4.23708e+06 0 235966 4.23108e+06 0 237254 4.22531e+06 0 238515 4.21977e+06 0 239752 4.21444e+06 0 240968 4.20933e+06 0 242166 4.20442e+06 0 243350 4.19972e+06 0 -844805 5.45551e+06 0 -740250 5.43313e+06 0 -643215 5.40273e+06 0 -554846 5.3658e+06 0 -475268 5.32431e+06 0 -404293 5.27993e+06 0 -341375 5.23408e+06 0 -285799 5.18785e+06 0 -236772 5.14209e+06 0 -193507 5.09735e+06 0 -155268 5.054e+06 0 -121392 5.01229e+06 0 -91293 4.97232e+06 0 -64465.9 4.93414e+06 0 -40475.1 4.89775e+06 0 -18948.2 4.8631e+06 0 432.458 4.83015e+06 0 17937.8 4.7988e+06 0 33799.3 4.769e+06 0 48215.1 4.74065e+06 0 61355 4.71367e+06 0 73365.3 4.68799e+06 0 84372.3 4.66354e+06 0 94485.3 4.64023e+06 0 103799 4.618e+06 0 112397 4.5968e+06 0 120351 4.57654e+06 0 127726 4.5572e+06 0 134576 4.5387e+06 0 140952 4.521e+06 0 146898 4.50406e+06 0 152452 4.48784e+06 0 157650 4.47229e+06 0 162522 4.45738e+06 0 167096 4.44308e+06 0 171399 4.42935e+06 0 175451 4.41616e+06 0 179273 4.40349e+06 0 182885 4.39132e+06 0 186303 4.37961e+06 0 189542 4.36835e+06 0 192615 4.35751e+06 0 195537 4.34708e+06 0 198318 4.33704e+06 0 200970 4.32736e+06 0 203501 4.31805e+06 0 205922 4.30907e+06 0 208241 4.30042e+06 0 210465 4.29209e+06 0 212602 4.28405e+06 0 214659 4.27631e+06 0 216641 4.26885e+06 0 218555 4.26166e+06 0 220407 4.25473e+06 0 222201 4.24805e+06 0 223943 4.24162e+06 0 225637 4.23542e+06 0 227287 4.22946e+06 0 228898 4.22372e+06 0 230474 4.21819e+06 0 232018 4.21289e+06 0 233535 4.20778e+06 0 235027 4.20289e+06 0 236498 4.19819e+06 0 -872006 5.31422e+06 0 -778495 5.30117e+06 0 -690673 5.28094e+06 0 -609150 5.25493e+06 0 -534292 5.22439e+06 0 -466132 5.19057e+06 0 -404471 5.15458e+06 0 -348936 5.11736e+06 0 -299053 5.07965e+06 0 -254305 5.04204e+06 0 -214167 5.00496e+06 0 -178136 4.96871e+06 0 -145748 4.93351e+06 0 -116581 4.89949e+06 0 -90256.6 4.86672e+06 0 -66443.4 4.83524e+06 0 -44849 4.80505e+06 0 -25217.9 4.77613e+06 0 -7327.27 4.74846e+06 0 9017.27 4.72199e+06 0 23985.2 4.69668e+06 0 37724.6 4.67248e+06 0 50364.9 4.64934e+06 0 62019.6 4.6272e+06 0 72788.2 4.60602e+06 0 82758.4 4.58575e+06 0 92007.6 4.56635e+06 0 100604 4.54776e+06 0 108609 4.52995e+06 0 116076 4.51287e+06 0 123053 4.4965e+06 0 129583 4.48078e+06 0 135705 4.4657e+06 0 141453 4.45122e+06 0 146858 4.4373e+06 0 151949 4.42392e+06 0 156751 4.41106e+06 0 161286 4.39869e+06 0 165577 4.38679e+06 0 169641 4.37533e+06 0 173497 4.36429e+06 0 177160 4.35367e+06 0 180644 4.34343e+06 0 183964 4.33356e+06 0 187131 4.32406e+06 0 190157 4.31489e+06 0 193052 4.30605e+06 0 195826 4.29753e+06 0 198489 4.28931e+06 0 201048 4.28138e+06 0 203511 4.27374e+06 0 205886 4.26636e+06 0 208179 4.25925e+06 0 210397 4.25239e+06 0 212546 4.24578e+06 0 214632 4.23941e+06 0 216660 4.23326e+06 0 218635 4.22734e+06 0 220562 4.22164e+06 0 222446 4.21616e+06 0 224291 4.21088e+06 0 226102 4.2058e+06 0 227881 4.20092e+06 0 229634 4.19624e+06 0 -887913 5.18819e+06 0 -804046 5.18166e+06 0 -724273 5.1691e+06 0 -649251 5.15132e+06 0 -579322 5.12928e+06 0 -514647 5.10389e+06 0 -455199 5.07602e+06 0 -400818 5.04643e+06 0 -351238 5.01576e+06 0 -306135 4.98457e+06 0 -265154 4.95327e+06 0 -227930 4.9222e+06 0 -194110 4.89161e+06 0 -163358 4.86168e+06 0 -135361 4.83255e+06 0 -109835 4.80429e+06 0 -86525 4.77695e+06 0 -65199.2 4.75057e+06 0 -45652.6 4.72516e+06 0 -27702.7 4.7007e+06 0 -11187.4 4.67718e+06 0 4036.99 4.65459e+06 0 18098 4.63288e+06 0 31108.5 4.61203e+06 0 43169.1 4.59202e+06 0 54368.9 4.5728e+06 0 64787.3 4.55434e+06 0 74495.3 4.53661e+06 0 83556.1 4.51957e+06 0 92026.5 4.50321e+06 0 99957.2 4.48748e+06 0 107394 4.47235e+06 0 114378 4.4578e+06 0 120946 4.44381e+06 0 127133 4.43034e+06 0 132967 4.41738e+06 0 138478 4.40489e+06 0 143690 4.39287e+06 0 148626 4.38128e+06 0 153306 4.37012e+06 0 157751 4.35936e+06 0 161977 4.34898e+06 0 166002 4.33897e+06 0 169838 4.32932e+06 0 173501 4.32e+06 0 177004 4.31102e+06 0 180356 4.30235e+06 0 183571 4.29398e+06 0 186657 4.2859e+06 0 189624 4.2781e+06 0 192481 4.27057e+06 0 195236 4.26331e+06 0 197897 4.25629e+06 0 200471 4.24953e+06 0 202966 4.243e+06 0 205386 4.2367e+06 0 207739 4.23062e+06 0 210030 4.22476e+06 0 212265 4.21911e+06 0 214449 4.21367e+06 0 216587 4.20843e+06 0 218684 4.20339e+06 0 220743 4.19854e+06 0 222771 4.19388e+06 0 -895729 5.07472e+06 0 -819995 5.07316e+06 0 -747354 5.06633e+06 0 -678315 5.05488e+06 0 -613219 5.03949e+06 0 -552270 5.02086e+06 0 -495535 4.99965e+06 0 -442974 4.97647e+06 0 -394459 4.95187e+06 0 -349799 4.92633e+06 0 -308764 4.90024e+06 0 -271100 4.87394e+06 0 -236549 4.84768e+06 0 -204851 4.82166e+06 0 -175759 4.79605e+06 0 -149038 4.77097e+06 0 -124470 4.74649e+06 0 -101855 4.72268e+06 0 -81011.1 4.69957e+06 0 -61771.8 4.67719e+06 0 -43987.7 4.65554e+06 0 -27523.9 4.63463e+06 0 -12259 4.61445e+06 0 1916.05 4.59498e+06 0 15099.1 4.57621e+06 0 27378.3 4.55812e+06 0 38832.6 4.54069e+06 0 49533.2 4.5239e+06 0 59544.3 4.50772e+06 0 68923.7 4.49213e+06 0 77723.6 4.47711e+06 0 85991.1 4.46263e+06 0 93769.1 4.44868e+06 0 101096 4.43523e+06 0 108008 4.42227e+06 0 114536 4.40977e+06 0 120710 4.39771e+06 0 126556 4.38608e+06 0 132099 4.37486e+06 0 137362 4.36403e+06 0 142364 4.35357e+06 0 147125 4.34348e+06 0 151662 4.33374e+06 0 155992 4.32433e+06 0 160128 4.31524e+06 0 164085 4.30646e+06 0 167876 4.29798e+06 0 171512 4.28979e+06 0 175005 4.28187e+06 0 178365 4.27422e+06 0 181601 4.26683e+06 0 184723 4.2597e+06 0 187739 4.2528e+06 0 190657 4.24614e+06 0 193484 4.23971e+06 0 196228 4.2335e+06 0 198895 4.2275e+06 0 201492 4.22171e+06 0 204025 4.21613e+06 0 206500 4.21075e+06 0 208922 4.20556e+06 0 211296 4.20056e+06 0 213628 4.19574e+06 0 215922 4.19111e+06 0 -897358 4.9721e+06 0 -828668 4.97424e+06 0 -762306 4.97181e+06 0 -698715 4.96527e+06 0 -638205 4.95513e+06 0 -580990 4.94193e+06 0 -527184 4.92617e+06 0 -476817 4.90836e+06 0 -429845 4.88894e+06 0 -386169 4.86832e+06 0 -345648 4.84687e+06 0 -308114 4.82487e+06 0 -273383 4.80259e+06 0 -241263 4.78024e+06 0 -211561 4.75798e+06 0 -184091 4.73595e+06 0 -158672 4.71426e+06 0 -135137 4.69298e+06 0 -113327 4.67217e+06 0 -93095.7 4.65188e+06 0 -74309.1 4.63213e+06 0 -56844.1 4.61294e+06 0 -40588.2 4.59433e+06 0 -25439.2 4.57629e+06 0 -11303.9 4.55883e+06 0 1902.18 4.54193e+06 0 14255.7 4.52558e+06 0 25826.5 4.50978e+06 0 36677.8 4.49451e+06 0 46867.2 4.47976e+06 0 56446.8 4.4655e+06 0 65464.4 4.45173e+06 0 73963.4 4.43843e+06 0 81983.3 4.42558e+06 0 89560.2 4.41316e+06 0 96727.2 4.40117e+06 0 103515 4.38958e+06 0 109950 4.37838e+06 0 116059 4.36756e+06 0 121866 4.3571e+06 0 127391 4.34698e+06 0 132654 4.33721e+06 0 137675 4.32776e+06 0 142469 4.31862e+06 0 147054 4.30978e+06 0 151443 4.30124e+06 0 155650 4.29297e+06 0 159688 4.28498e+06 0 163568 4.27725e+06 0 167303 4.26978e+06 0 170902 4.26254e+06 0 174374 4.25555e+06 0 177730 4.24879e+06 0 180977 4.24225e+06 0 184125 4.23593e+06 0 187180 4.22983e+06 0 190150 4.22392e+06 0 193041 4.21822e+06 0 195861 4.21271e+06 0 198616 4.2074e+06 0 201312 4.20227e+06 0 203954 4.19732e+06 0 206548 4.19255e+06 0 209100 4.18796e+06 0 -894308 4.8788e+06 0 -831719 4.88375e+06 0 -770909 4.88471e+06 0 -712248 4.88202e+06 0 -656014 4.87607e+06 0 -602415 4.86725e+06 0 -551585 4.85598e+06 0 -503591 4.84264e+06 0 -458444 4.82763e+06 0 -416104 4.81127e+06 0 -376493 4.79388e+06 0 -339506 4.77573e+06 0 -305017 4.75706e+06 0 -272887 4.73808e+06 0 -242973 4.71895e+06 0 -215129 4.69981e+06 0 -189210 4.68077e+06 0 -165078 4.66194e+06 0 -142599 4.64338e+06 0 -121647 4.62515e+06 0 -102105 4.60729e+06 0 -83863.4 4.58983e+06 0 -66819.7 4.57281e+06 0 -50880.5 4.55622e+06 0 -35959.2 4.54009e+06 0 -21976.6 4.52442e+06 0 -8859.71 4.5092e+06 0 3458.17 4.49443e+06 0 15038.2 4.48011e+06 0 25936.5 4.46623e+06 0 36204.3 4.45279e+06 0 45888.8 4.43976e+06 0 55033 4.42714e+06 0 63676.6 4.41493e+06 0 71855.9 4.4031e+06 0 79604.4 4.39165e+06 0 86952.7 4.38056e+06 0 93929.3 4.36983e+06 0 100560 4.35944e+06 0 106869 4.34938e+06 0 112880 4.33964e+06 0 118611 4.33021e+06 0 124083 4.32108e+06 0 129313 4.31224e+06 0 134318 4.30368e+06 0 139113 4.29539e+06 0 143713 4.28737e+06 0 148130 4.27959e+06 0 152378 4.27207e+06 0 156468 4.26478e+06 0 160411 4.25773e+06 0 164217 4.2509e+06 0 167896 4.24429e+06 0 171458 4.23789e+06 0 174911 4.23169e+06 0 178263 4.2257e+06 0 181522 4.2199e+06 0 184695 4.2143e+06 0 187791 4.20888e+06 0 190814 4.20364e+06 0 193772 4.19858e+06 0 196671 4.19369e+06 0 199517 4.18898e+06 0 202316 4.18443e+06 0 -887647 4.79359e+06 0 -830393 4.80071e+06 0 -774503 4.80431e+06 0 -720292 4.80465e+06 0 -668007 4.80204e+06 0 -617840 4.79679e+06 0 -569933 4.78921e+06 0 -524371 4.77962e+06 0 -481195 4.76834e+06 0 -440406 4.75564e+06 0 -401970 4.74181e+06 0 -365825 4.72707e+06 0 -331891 4.71165e+06 0 -300072 4.69573e+06 0 -270262 4.67947e+06 0 -242351 4.66302e+06 0 -216225 4.6465e+06 0 -191773 4.62999e+06 0 -168885 4.61359e+06 0 -147455 4.59736e+06 0 -127381 4.58135e+06 0 -108568 4.5656e+06 0 -90925.5 4.55015e+06 0 -74369.2 4.53502e+06 0 -58820.3 4.52023e+06 0 -44205.8 4.50579e+06 0 -30457.7 4.49172e+06 0 -17513.4 4.47801e+06 0 -5314.66 4.46467e+06 0 6192.01 4.45169e+06 0 17056.1 4.43908e+06 0 27323.4 4.42683e+06 0 37036 4.41493e+06 0 46232.9 4.40338e+06 0 54950 4.39217e+06 0 63220.6 4.38129e+06 0 71075.3 4.37074e+06 0 78542.7 4.3605e+06 0 85649 4.35057e+06 0 92418.6 4.34094e+06 0 98874.3 4.33159e+06 0 105037 4.32253e+06 0 110927 4.31375e+06 0 116561 4.30523e+06 0 121957 4.29697e+06 0 127131 4.28895e+06 0 132097 4.28119e+06 0 136870 4.27365e+06 0 141463 4.26635e+06 0 145887 4.25927e+06 0 150154 4.25241e+06 0 154276 4.24575e+06 0 158261 4.23931e+06 0 162121 4.23306e+06 0 165863 4.227e+06 0 169497 4.22114e+06 0 173031 4.21546e+06 0 176473 4.20996e+06 0 179830 4.20464e+06 0 183109 4.19949e+06 0 186317 4.1945e+06 0 189462 4.18969e+06 0 192548 4.18503e+06 0 195583 4.18054e+06 0 -878192 4.71548e+06 0 -825627 4.72425e+06 0 -774113 4.72992e+06 0 -723918 4.73268e+06 0 -675259 4.73276e+06 0 -628314 4.73041e+06 0 -583218 4.72588e+06 0 -540067 4.71943e+06 0 -498920 4.71131e+06 0 -459801 4.70177e+06 0 -422706 4.69102e+06 0 -387606 4.67929e+06 0 -354453 4.66675e+06 0 -323183 4.6536e+06 0 -293723 4.63997e+06 0 -265991 4.626e+06 0 -239900 4.61181e+06 0 -215362 4.5975e+06 0 -192287 4.58315e+06 0 -170589 4.56883e+06 0 -150181 4.5546e+06 0 -130982 4.54051e+06 0 -112913 4.5266e+06 0 -95899.1 4.51291e+06 0 -79870.4 4.49945e+06 0 -64760.4 4.48625e+06 0 -50507 4.47332e+06 0 -37052.1 4.46068e+06 0 -24341.4 4.44833e+06 0 -12324.5 4.43627e+06 0 -954.461 4.42452e+06 0 9812.46 4.41306e+06 0 20016.9 4.4019e+06 0 29696.4 4.39104e+06 0 38886.2 4.38046e+06 0 47618.9 4.37018e+06 0 55924.5 4.36018e+06 0 63831.4 4.35046e+06 0 71365.7 4.34101e+06 0 78551.7 4.33182e+06 0 85412.2 4.3229e+06 0 91968.4 4.31423e+06 0 98240.1 4.30581e+06 0 104246 4.29763e+06 0 110002 4.28968e+06 0 115526 4.28196e+06 0 120833 4.27447e+06 0 125936 4.26719e+06 0 130850 4.26013e+06 0 135586 4.25327e+06 0 140157 4.24661e+06 0 144574 4.24015e+06 0 148846 4.23388e+06 0 152986 4.22779e+06 0 157001 4.22189e+06 0 160901 4.21617e+06 0 164694 4.21061e+06 0 168390 4.20523e+06 0 171994 4.20001e+06 0 175516 4.19496e+06 0 178962 4.19006e+06 0 182338 4.18532e+06 0 185653 4.18074e+06 0 188912 4.1763e+06 0 -866559 4.64361e+06 0 -818140 4.65366e+06 0 -770531 4.66095e+06 0 -723964 4.66564e+06 0 -678627 4.66791e+06 0 -634682 4.66794e+06 0 -592258 4.66594e+06 0 -551451 4.66212e+06 0 -512329 4.65668e+06 0 -474932 4.64983e+06 0 -439274 4.64177e+06 0 -405350 4.63267e+06 0 -373135 4.6227e+06 0 -342591 4.61202e+06 0 -313668 4.60078e+06 0 -286307 4.58908e+06 0 -260444 4.57705e+06 0 -236011 4.56478e+06 0 -212937 4.55235e+06 0 -191150 4.53984e+06 0 -170581 4.52732e+06 0 -151159 4.51482e+06 0 -132818 4.50241e+06 0 -115491 4.49011e+06 0 -99118.4 4.47796e+06 0 -83639.4 4.46597e+06 0 -68998.3 4.45418e+06 0 -55142.2 4.4426e+06 0 -42021.1 4.43124e+06 0 -29588.3 4.42011e+06 0 -17799.6 4.40921e+06 0 -6614.03 4.39856e+06 0 4007.1 4.38815e+06 0 14099.8 4.37798e+06 0 23697.9 4.36807e+06 0 32832.7 4.35839e+06 0 41533.7 4.34897e+06 0 49828.5 4.33978e+06 0 57742.8 4.33082e+06 0 65300.6 4.32211e+06 0 72524.4 4.31362e+06 0 79435.2 4.30535e+06 0 86052.9 4.29731e+06 0 92395.9 4.28948e+06 0 98481.5 4.28187e+06 0 104326 4.27446e+06 0 109945 4.26726e+06 0 115353 4.26025e+06 0 120563 4.25344e+06 0 125588 4.24681e+06 0 130440 4.24037e+06 0 135131 4.23411e+06 0 139672 4.22803e+06 0 144072 4.22212e+06 0 148342 4.21638e+06 0 152491 4.2108e+06 0 156528 4.20539e+06 0 160461 4.20013e+06 0 164299 4.19503e+06 0 168048 4.19008e+06 0 171718 4.18527e+06 0 175314 4.18062e+06 0 178843 4.17611e+06 0 182313 4.17174e+06 0 -853225 4.57726e+06 0 -808489 4.58831e+06 0 -764378 4.59689e+06 0 -721092 4.60312e+06 0 -678796 4.60716e+06 0 -637635 4.60915e+06 0 -597728 4.60925e+06 0 -559170 4.60764e+06 0 -522032 4.60448e+06 0 -486361 4.59995e+06 0 -452187 4.59421e+06 0 -419516 4.58741e+06 0 -388344 4.57972e+06 0 -358650 4.57125e+06 0 -330402 4.56215e+06 0 -303560 4.55251e+06 0 -278079 4.54246e+06 0 -253906 4.53208e+06 0 -230986 4.52145e+06 0 -209263 4.51064e+06 0 -188680 4.49973e+06 0 -169177 4.48875e+06 0 -150699 4.47777e+06 0 -133189 4.46682e+06 0 -116594 4.45593e+06 0 -100861 4.44513e+06 0 -85941.1 4.43446e+06 0 -71785.5 4.42392e+06 0 -58349.4 4.41354e+06 0 -45589.6 4.40332e+06 0 -33465.6 4.39329e+06 0 -21939 4.38344e+06 0 -10973.6 4.37378e+06 0 -535.331 4.36433e+06 0 9407.89 4.35507e+06 0 18886.2 4.34602e+06 0 27927.8 4.33717e+06 0 36559.3 4.32852e+06 0 44805.8 4.32008e+06 0 52690.7 4.31184e+06 0 60236 4.3038e+06 0 67462.4 4.29595e+06 0 74389.5 4.2883e+06 0 81035.5 4.28084e+06 0 87417.8 4.27357e+06 0 93552.6 4.26649e+06 0 99455.3 4.25959e+06 0 105140 4.25286e+06 0 110621 4.24631e+06 0 115911 4.23993e+06 0 121023 4.23372e+06 0 125967 4.22767e+06 0 130755 4.22179e+06 0 135397 4.21606e+06 0 139903 4.21049e+06 0 144284 4.20507e+06 0 148547 4.1998e+06 0 152702 4.19468e+06 0 156757 4.1897e+06 0 160719 4.18486e+06 0 164597 4.18016e+06 0 168398 4.17559e+06 0 172130 4.17116e+06 0 175798 4.16686e+06 0 -838556 4.51585e+06 0 -797110 4.52765e+06 0 -756145 4.53725e+06 0 -715833 4.54473e+06 0 -676320 4.55021e+06 0 -637735 4.55381e+06 0 -600188 4.55567e+06 0 -563769 4.55592e+06 0 -528549 4.5547e+06 0 -494581 4.55216e+06 0 -461898 4.54843e+06 0 -430521 4.54365e+06 0 -400455 4.53795e+06 0 -371694 4.53146e+06 0 -344221 4.52428e+06 0 -318009 4.51651e+06 0 -293027 4.50826e+06 0 -269238 4.49962e+06 0 -246598 4.49065e+06 0 -225065 4.48143e+06 0 -204591 4.47203e+06 0 -185129 4.46249e+06 0 -166632 4.45287e+06 0 -149052 4.4432e+06 0 -132344 4.43353e+06 0 -116461 4.42389e+06 0 -101360 4.41429e+06 0 -86998.8 4.40478e+06 0 -73335.8 4.39535e+06 0 -60332.3 4.38604e+06 0 -47951.2 4.37686e+06 0 -36157.2 4.36781e+06 0 -24916.6 4.3589e+06 0 -14197.5 4.35015e+06 0 -3969.92 4.34156e+06 0 5794.77 4.33313e+06 0 15123.5 4.32487e+06 0 24041.6 4.31677e+06 0 32573.3 4.30885e+06 0 40741 4.30109e+06 0 48566.4 4.29351e+06 0 56069.4 4.28609e+06 0 63269.3 4.27884e+06 0 70184 4.27176e+06 0 76830.5 4.26484e+06 0 83224.9 4.25809e+06 0 89382.5 4.2515e+06 0 95317.6 4.24506e+06 0 101044 4.23878e+06 0 106574 4.23266e+06 0 111921 4.22669e+06 0 117096 4.22086e+06 0 122110 4.21518e+06 0 126974 4.20965e+06 0 131698 4.20426e+06 0 136292 4.199e+06 0 140764 4.19389e+06 0 145124 4.1889e+06 0 149380 4.18405e+06 0 153540 4.17933e+06 0 157612 4.17474e+06 0 161604 4.17027e+06 0 165522 4.16592e+06 0 169375 4.1617e+06 0 -822843 4.45884e+06 0 -784347 4.47123e+06 0 -746221 4.48163e+06 0 -708612 4.49012e+06 0 -671648 4.49678e+06 0 -635445 4.50172e+06 0 -600104 4.50504e+06 0 -565708 4.50686e+06 0 -532327 4.50729e+06 0 -500014 4.50645e+06 0 -468808 4.50447e+06 0 -438735 4.50146e+06 0 -409810 4.49752e+06 0 -382035 4.49277e+06 0 -355404 4.48731e+06 0 -329902 4.48123e+06 0 -305509 4.47463e+06 0 -282199 4.46757e+06 0 -259940 4.46013e+06 0 -238698 4.45239e+06 0 -218437 4.44439e+06 0 -199119 4.43621e+06 0 -180704 4.42787e+06 0 -163153 4.41943e+06 0 -146428 4.41092e+06 0 -130487 4.40238e+06 0 -115294 4.39383e+06 0 -100811 4.3853e+06 0 -87001.9 4.37681e+06 0 -73831.4 4.36838e+06 0 -61266 4.36003e+06 0 -49273.3 4.35177e+06 0 -37822.6 4.34361e+06 0 -26884.3 4.33556e+06 0 -16430.3 4.32762e+06 0 -6433.96 4.31982e+06 0 3130.24 4.31214e+06 0 12286.4 4.3046e+06 0 21057.4 4.29719e+06 0 29464.9 4.28992e+06 0 37529.5 4.2828e+06 0 45270.8 4.27582e+06 0 52707.2 4.26897e+06 0 59856.2 4.26228e+06 0 66734.6 4.25572e+06 0 73358 4.2493e+06 0 79741.5 4.24303e+06 0 85899.3 4.23689e+06 0 91844.8 4.23089e+06 0 97591 4.22503e+06 0 103150 4.2193e+06 0 108534 4.21371e+06 0 113753 4.20824e+06 0 118818 4.20291e+06 0 123740 4.1977e+06 0 128528 4.19262e+06 0 133191 4.18766e+06 0 137739 4.18283e+06 0 142179 4.17811e+06 0 146521 4.17351e+06 0 150771 4.16903e+06 0 154939 4.16466e+06 0 159030 4.16041e+06 0 163053 4.15627e+06 0 -806313 4.40579e+06 0 -770476 4.41863e+06 0 -734919 4.42966e+06 0 -699772 4.43896e+06 0 -665146 4.4466e+06 0 -631146 4.45264e+06 0 -597863 4.45719e+06 0 -565373 4.46034e+06 0 -533744 4.46218e+06 0 -503028 4.46281e+06 0 -473266 4.46234e+06 0 -444488 4.46087e+06 0 -416714 4.45848e+06 0 -389954 4.45528e+06 0 -364209 4.45136e+06 0 -339474 4.4468e+06 0 -315736 4.44168e+06 0 -292978 4.43607e+06 0 -271178 4.43004e+06 0 -250310 4.42365e+06 0 -230347 4.41697e+06 0 -211257 4.41004e+06 0 -193010 4.40291e+06 0 -175573 4.39563e+06 0 -158913 4.38822e+06 0 -142996 4.38073e+06 0 -127790 4.37318e+06 0 -113261 4.3656e+06 0 -99378.9 4.35802e+06 0 -86111.4 4.35045e+06 0 -73428.5 4.34291e+06 0 -61301.1 4.33542e+06 0 -49701.1 4.32798e+06 0 -38601.2 4.32062e+06 0 -27975.7 4.31334e+06 0 -17799.6 4.30615e+06 0 -8049.17 4.29905e+06 0 1298.27 4.29206e+06 0 10264.4 4.28517e+06 0 18869.7 4.2784e+06 0 27134 4.27173e+06 0 35076 4.26518e+06 0 42713.3 4.25875e+06 0 50063.1 4.25244e+06 0 57141.3 4.24625e+06 0 63963.4 4.24018e+06 0 70544.1 4.23423e+06 0 76897.1 4.22839e+06 0 83035.8 4.22268e+06 0 88973 4.21708e+06 0 94720.6 4.21161e+06 0 100290 4.20625e+06 0 105693 4.201e+06 0 110939 4.19587e+06 0 116039 4.19085e+06 0 121002 4.18595e+06 0 125838 4.18116e+06 0 130556 4.17647e+06 0 135164 4.17189e+06 0 139671 4.16742e+06 0 144084 4.16306e+06 0 148412 4.1588e+06 0 152661 4.15464e+06 0 156840 4.15059e+06 0 -789146 4.35633e+06 0 -755714 4.3695e+06 0 -722492 4.38103e+06 0 -689593 4.39099e+06 0 -657116 4.39942e+06 0 -625154 4.40638e+06 0 -593788 4.41196e+06 0 -563091 4.41623e+06 0 -533124 4.41928e+06 0 -503939 4.42118e+06 0 -475577 4.42202e+06 0 -448071 4.42189e+06 0 -421444 4.42087e+06 0 -395709 4.41905e+06 0 -370876 4.4165e+06 0 -346943 4.41329e+06 0 -323906 4.40951e+06 0 -301754 4.40522e+06 0 -280473 4.40048e+06 0 -260045 4.39534e+06 0 -240447 4.38987e+06 0 -221658 4.38412e+06 0 -203650 4.37812e+06 0 -186399 4.37192e+06 0 -169876 4.36555e+06 0 -154053 4.35906e+06 0 -138902 4.35246e+06 0 -124396 4.3458e+06 0 -110506 4.33908e+06 0 -97204.5 4.33234e+06 0 -84465.1 4.32558e+06 0 -72261.6 4.31884e+06 0 -60568.3 4.31211e+06 0 -49360.7 4.30543e+06 0 -38614.9 4.29879e+06 0 -28308 4.2922e+06 0 -18418 4.28568e+06 0 -8923.73 4.27923e+06 0 195.219 4.27286e+06 0 8958.24 4.26657e+06 0 17384 4.26036e+06 0 25490.2 4.25425e+06 0 33293.9 4.24823e+06 0 40811.4 4.24231e+06 0 48058.2 4.23648e+06 0 55049.2 4.23076e+06 0 61798.6 4.22513e+06 0 68319.8 4.2196e+06 0 74626 4.21418e+06 0 80729.4 4.20885e+06 0 86642 4.20363e+06 0 92375.1 4.19851e+06 0 97939.6 4.19349e+06 0 103346 4.18857e+06 0 108604 4.18374e+06 0 113724 4.17902e+06 0 118715 4.17439e+06 0 123585 4.16986e+06 0 128343 4.16543e+06 0 132999 4.16109e+06 0 137559 4.15685e+06 0 142031 4.1527e+06 0 146423 4.14864e+06 0 150743 4.14468e+06 0 -771487 4.31011e+06 0 -740240 4.32352e+06 0 -709146 4.33545e+06 0 -678305 4.34594e+06 0 -647806 4.35502e+06 0 -617729 4.36275e+06 0 -588151 4.3692e+06 0 -559136 4.37442e+06 0 -530743 4.3785e+06 0 -503020 4.38149e+06 0 -476008 4.38347e+06 0 -449741 4.38451e+06 0 -424243 4.3847e+06 0 -399532 4.38409e+06 0 -375620 4.38276e+06 0 -352511 4.38078e+06 0 -330206 4.37821e+06 0 -308699 4.37511e+06 0 -287983 4.37154e+06 0 -268044 4.36755e+06 0 -248867 4.3632e+06 0 -230434 4.35853e+06 0 -212725 4.35358e+06 0 -195719 4.3484e+06 0 -179394 4.34302e+06 0 -163726 4.33746e+06 0 -148692 4.33177e+06 0 -134267 4.32597e+06 0 -120427 4.32009e+06 0 -107149 4.31414e+06 0 -94408.1 4.30814e+06 0 -82181.7 4.30212e+06 0 -70446.7 4.29608e+06 0 -59180.9 4.29005e+06 0 -48362.5 4.28403e+06 0 -37970.6 4.27804e+06 0 -27984.9 4.27208e+06 0 -18385.6 4.26617e+06 0 -9153.95 4.2603e+06 0 -271.614 4.25449e+06 0 8278.9 4.24874e+06 0 16514.4 4.24306e+06 0 24451.1 4.23745e+06 0 32104.5 4.23192e+06 0 39489.5 4.22646e+06 0 46620.2 4.22108e+06 0 53510.5 4.21578e+06 0 60173.4 4.21056e+06 0 66621.5 4.20542e+06 0 72866.9 4.20037e+06 0 78921.2 4.19541e+06 0 84795.5 4.19053e+06 0 90500.4 4.18573e+06 0 96046.3 4.18102e+06 0 101443 4.1764e+06 0 106700 4.17186e+06 0 111827 4.1674e+06 0 116832 4.16303e+06 0 121724 4.15875e+06 0 126511 4.15454e+06 0 131201 4.15043e+06 0 135803 4.14639e+06 0 140323 4.14243e+06 0 144768 4.13856e+06 0 -753452 4.26684e+06 0 -724195 4.28044e+06 0 -695047 4.29267e+06 0 -666096 4.30358e+06 0 -637420 4.3132e+06 0 -609093 4.32157e+06 0 -581181 4.32875e+06 0 -553744 4.33478e+06 0 -526838 4.33974e+06 0 -500507 4.34367e+06 0 -474791 4.34664e+06 0 -449723 4.34871e+06 0 -425329 4.34996e+06 0 -401630 4.35043e+06 0 -378638 4.35019e+06 0 -356362 4.3493e+06 0 -334807 4.34782e+06 0 -313973 4.3458e+06 0 -293853 4.3433e+06 0 -274441 4.34036e+06 0 -255727 4.33704e+06 0 -237696 4.33337e+06 0 -220334 4.3294e+06 0 -203625 4.32517e+06 0 -187549 4.3207e+06 0 -172088 4.31603e+06 0 -157222 4.3112e+06 0 -142930 4.30622e+06 0 -129192 4.30112e+06 0 -115987 4.29593e+06 0 -103294 4.29066e+06 0 -91093.3 4.28533e+06 0 -79363.5 4.27996e+06 0 -68084.9 4.27456e+06 0 -57237.9 4.26915e+06 0 -46803.4 4.26373e+06 0 -36762.7 4.25832e+06 0 -27097.8 4.25293e+06 0 -17791.2 4.24756e+06 0 -8825.86 4.24223e+06 0 -185.384 4.23693e+06 0 8146.05 4.23168e+06 0 16183.7 4.22647e+