<?xml version="1.0"?> 
<VTKFile type="StructuredGrid" version="0.1"> 
<StructuredGrid WholeExtent="0 63 0 63 0 0"> 
<Piece Extent="0 63 0 63 0 0"> 
<PointData>
<DataArray type="Float32" Name="|E|" format="ascii" NumberOfComponents="3"> 
-1.66893e-06 7.30341e+06 0 4.47035e-07 4.59393e+06 0 -3.09199e-07 3.69043e+06 0 -5.96046e-08 3.10796e+06 0 6.92904e-07 2.7117e+06 0 -8.79169e-07 2.39994e+06 0 1.19209e-07 2.14777e+06 0 5.51343e-07 1.93402e+06 0 -1.10269e-06 1.74895e+06 0 9.83477e-07 1.58539e+06 0 -8.64267e-07 1.43888e+06 0 5.06639e-07 1.30623e+06 0 -6.25849e-07 1.18515e+06 0 3.57628e-07 1.07397e+06 0 -4.17233e-07 971437 0 5.96046e-08 876584 0 -2.08616e-07 788675 0 8.9407e-08 707136 0 -3.57628e-07 631513 0 5.36442e-07 561441 0 -5.96046e-07 496626 0 7.7486e-07 436827 0 0 381835 0 -2.98023e-07 331470 0 1.19209e-07 285567 0 -2.38419e-07 243966 0 1.19209e-07 206512 0 -2.98023e-07 173041 0 5.96046e-08 143383 0 -4.17233e-07 117352 0 1.78814e-07 94749.2 0 -1.19209e-07 75358 0 1.19209e-07 58945.1 0 2.38419e-07 45261.6 0 -2.98023e-07 34045.9 0 2.38419e-07 25026.6 0 -3.57628e-07 17927.9 0 2.38419e-07 12474.8 0 -1.19209e-07 8399.44 0 2.38419e-07 5447.75 0 -3.57628e-07 3385.14 0 3.57628e-07 2002.07 0 -3.57628e-07 1117.97 0 3.57628e-07 583.556 0 -3.57628e-07 281.147 0 1.19209e-07 123.006 0 1.19209e-07 47.8529 0 0 16.1132 0 1.19209e-07 4.55401 0 -2.38419e-07 1.06258 0 2.38419e-07 0.21831 0 -3.57628e-07 0.045207 0 7.15256e-07 0.00409985 0 -5.96046e-07 -0.00470924 0 3.57628e-07 -0.00147152 0 -1.19209e-07 0.0014019 0 1.19209e-07 0.000707626 0 -2.38419e-07 -0.00044632 0 2.38419e-07 -0.000307083 0 -3.57628e-07 0.000137329 0 0 0.000114441 0 4.76837e-07 -8.39233e-05 0 -7.15256e-07 -6.10352e-05 0 9.53674e-07 -1.25829e+07 0 -1.93462e+06 5.20013e+06 0 -806757 4.39755e+06 0 -497481 3.61566e+06 0 -334126 3.10841e+06 0 -252151 2.72225e+06 0 -198836 2.42213e+06 0 -163664 2.17357e+06 0 -138257 1.96283e+06 0 -119235 1.77928e+06 0 -104394 1.61681e+06 0 -92460.3 1.47097e+06 0 -82611.3 1.33873e+06 0 -74298.3 1.21785e+06 0 -67146.6 1.10671e+06 0 -60890.2 1.00406e+06 0 -55337.8 908957 0 -50348.5 820662 0 -45817.6 738604 0 -41666.3 662329 0 -37835.2 591473 0 -34279.2 525745 0 -30964.5 464903 0 -27866 408745 0 -24965.2 357094 0 -22249.1 309795 0 -19708.6 266700 0 -17338.1 227664 0 -15134.1 192543 0 -13094.9 161184 0 -11219.8 133424 0 -9508.38 109086 0 -7960.17 87978.3 0 -6573.96 69892.9 0 -5347.43 54606.2 0 -4276.82 41880 0 -3356.6 31464.5 0 -2579.35 23101.5 0 -1935.72 16529.7 0 -1414.55 11489.3 0 -1003.14 7728.23 0 -687.605 5008.26 0 -453.441 3110.25 0 -286.085 1839.12 0 -171.545 1027.34 0 -96.9815 536.883 0 -51.1897 259.29 0 -24.9251 113.928 0 -11.0305 44.6292 0 -4.35635 15.1844 0 -1.50276 4.34739 0 -0.443264 1.01953 0 -0.111038 0.200294 0 -0.0245774 0.03644 0 -0.00507453 0.00313269 0 -0.000678088 -0.0032647 0 0.00015193 -0.00130728 0 5.40137e-05 0.000658549 0 -4.83391e-05 0.000434428 0 -1.70772e-05 -0.000157312 0 1.12422e-05 -0.000139147 0 3.37348e-06 3.11136e-05 0 -2.25101e-06 2.68519e-05 0 1.58325e-08 6.02007e-06 0 1.20327e-06 0.000109434 0 -2.24684e+06 4.1256e+06 0 -1.38975e+06 3.85339e+06 0 -909944 3.41944e+06 0 -655426 3.01869e+06 0 -500063 2.68866e+06 0 -400795 2.41276e+06 0 -331659 2.17922e+06 0 -281569 1.97691e+06 0 -243521 1.79896e+06 0 -213694 1.64011e+06 0 -189606 1.49677e+06 0 -169677 1.36625e+06 0 -152835 1.24656e+06 0 -138338 1.1362e+06 0 -125656 1.03403e+06 0 -114405 939137 0 -104301 850842 0 -95130.4 768590 0 -86732.7 691943 0 -78985.2 620552 0 -71794.6 554132 0 -65090.1 492451 0 -58818.2 435314 0 -52939.2 382553 0 -47424.2 334022 0 -42253.1 289585 0 -37412.4 249110 0 -32893.9 212468 0 -28692.8 179523 0 -24807.3 150131 0 -21236.7 124139 0 -17980.7 101375 0 -15038.2 81657.3 0 -12406.7 64785.2 0 -10081.5 50544.3 0 -8054.69 38706.8 0 -6315.12 29034.2 0 -4847.99 21281 0 -3634.89 15199.2 0 -2654.01 10543.4 0 -1880.76 7076.39 0 -1288.47 4574.48 0 -849.41 2832.75 0 -535.903 1669.33 0 -321.47 928.583 0 -181.912 482.649 0 -96.1806 231.391 0 -46.9586 100.604 0 -20.8666 38.7779 0 -8.29058 12.8442 0 -2.88427 3.50193 0 -0.860316 0.7452 0 -0.218094 0.121069 0 -0.048541 0.0170274 0 -0.010009 -6.04838e-05 0 -0.00143387 -0.00320986 0 0.000224276 -0.00129192 0 0.00011038 0.000404209 0 -7.15004e-05 0.000321567 0 -3.13045e-05 -6.81877e-05 0 1.63913e-05 -5.03957e-05 0 5.29177e-06 -5.96046e-07 0 -3.32296e-06 -1.66297e-05 0 1.08033e-06 -2.38419e-07 0 -2.28749e+06 3.44447e+06 0 -1.66881e+06 3.38208e+06 0 -1.22178e+06 3.1495e+06 0 -927170 2.87487e+06 0 -731352 2.61138e+06 0 -596093 2.37419e+06 0 -499081 2.16319e+06 0 -426673 1.97528e+06 0 -370894 1.80667e+06 0 -326629 1.65423e+06 0 -290623 1.51535e+06 0 -260675 1.38801e+06 0 -235280 1.2706e+06 0 -213372 1.16188e+06 0 -194182 1.06084e+06 0 -177146 966704 0 -161843 878849 0 -147953 796771 0 -135235 720069 0 -123502 648417 0 -112611 581551 0 -102452 519252 0 -92941.5 461339 0 -84016.4 407657 0 -75630.1 358069 0 -67749.2 312452 0 -60350.6 270690 0 -53419.6 232665 0 -46947.5 198260 0 -40930.2 167349 0 -35366.4 139797 0 -30256.1 115456 0 -25599.3 94164.4 0 -21394.5 75745.2 0 -17637.9 60006.9 0 -14321.8 46743.4 0 -11434.5 35736.6 0 -8959.13 26758.6 0 -6873.71 19575.8 0 -5151.17 13952.7 0 -3759.73 9657.27 0 -2663.77 6465.88 0 -1824.88 4168.52 0 -1203.33 2573.44 0 -759.628 1511.12 0 -456.122 836.988 0 -258.494 432.722 0 -136.966 206.006 0 -67.0728 88.6965 0 -29.927 33.69 0 -11.9559 10.8917 0 -4.1894 2.83799 0 -1.26066 0.546832 0 -0.32244 0.0691371 0 -0.0720801 0.00566916 0 -0.0148706 -0.00127015 0 -0.00222913 -0.00256309 0 0.000258427 -0.00101084 0 0.000164943 0.000203878 0 -8.51564e-05 0.000135809 0 -4.14606e-05 -2.59876e-05 0 1.99359e-05 5.19156e-05 0 5.4501e-06 -9.23872e-06 0 -1.16527e-05 -0.000165939 0 -2.24497e+06 2.99009e+06 0 -1.80538e+06 2.99577e+06 0 -1.42973e+06 2.88054e+06 0 -1.1445e+06 2.70179e+06 0 -933634 2.50459e+06 0 -777824 2.31014e+06 0 -660492 2.12717e+06 0 -570185 1.95786e+06 0 -499001 1.80201e+06 0 -441641 1.65851e+06 0 -394450 1.52604e+06 0 -354888 1.40336e+06 0 -321149 1.2894e+06 0 -291927 1.18321e+06 0 -266261 1.08404e+06 0 -243434 991251 0 -222905 904323 0 -204259 822829 0 -187177 746421 0 -171412 674812 0 -156773 607767 0 -143109 545091 0 -130308 486621 0 -118281 432216 0 -106962 381756 0 -96304.1 335132 0 -86272.1 292240 0 -76843.7 252979 0 -68005 217248 0 -59748.6 184937 0 -52072 155930 0 -44975.3 130100 0 -38459.5 107305 0 -32525.1 87391.3 0 -27170.2 70188.1 0 -22389.5 55511.4 0 -18172.7 43163.6 0 -14503.9 32935.4 0 -11361 24609.1 0 -8715.03 17961.9 0 -6530.86 12770.2 0 -4767.41 8814.3 0 -3378.9 5883.27 0 -2316.21 3779.72 0 -1528.73 2324.12 0 -966.321 1358.37 0 -581.276 748.2 0 -330.21 384.172 0 -175.511 181.296 0 -86.2939 77.1462 0 -38.7005 28.8166 0 -15.5606 9.07708 0 -5.49554 2.25878 0 -1.66859 0.393636 0 -0.430286 0.0364965 0 -0.0964598 0.000375509 0 -0.01987 -0.00108927 0 -0.00308897 -0.00143203 0 0.00025747 -0.00037843 0 0.000216272 0.000112534 0 -9.13404e-05 -0.000107467 0 -4.55864e-05 -1.62125e-05 0 2.52798e-05 0.00016582 0 1.54972e-06 1.09673e-05 0 -2.19438e+06 2.66137e+06 0 -1.86908e+06 2.6909e+06 0 -1.56613e+06 2.63567e+06 0 -1.31007e+06 2.5233e+06 0 -1.10388e+06 2.38087e+06 0 -940745 2.22754e+06 0 -811749 2.07406e+06 0 -708769 1.92585e+06 0 -625445 1.78517e+06 0 -556976 1.65271e+06 0 -499837 1.52839e+06 0 -451422 1.41181e+06 0 -409809 1.30243e+06 0 -373557 1.19972e+06 0 -341584 1.10318e+06 0 -313062 1.01236e+06 0 -287354 926889 0 -263969 846424 0 -242522 770690 0 -222710 699456 0 -204299 632524 0 -187101 569730 0 -170974 510936 0 -155803 456024 0 -141505 404889 0 -128015 357438 0 -115287 313584 0 -103290 273242 0 -92003.2 236326 0 -81415 202743 0 -71520.9 172396 0 -62320.4 145176 0 -53815.5 120962 0 -46008.7 99618.5 0 -38900.8 80998.1 0 -32489.9 64937.1 0 -26769 51258.3 0 -21725.4 39771.5 0 -17339.4 30276.2 0 -13583.5 22564.1 0 -10422.6 16422.5 0 -7813.82 11638.8 0 -5707.62 8004.84 0 -4048.91 5321.44 0 -2778.88 3402.91 0 -1837.03 2081.1 0 -1163.58 1208.52 0 -701.757 660.462 0 -399.956 335.829 0 -213.448 156.508 0 -105.475 65.494 0 -47.5954 23.8974 0 -19.2804 7.26726 0 -6.86919 1.70524 0 -2.1055 0.264039 0 -0.54721 0.0171148 0 -0.122768 -0.000119656 0 -0.0251376 0.000122935 0 -0.00401263 -1.77026e-05 0 0.000223584 0.00054872 0 0.000258137 0.000176251 0 -9.62466e-05 -0.000383377 0 -4.58807e-05 -0.000101686 0 5.23925e-05 0.000450134 0 -2.1478e+06 2.41278e+06 0 -1.90019e+06 2.4462e+06 0 -1.65601e+06 2.4222e+06 0 -1.43459e+06 2.35207e+06 0 -1.24344e+06 2.25129e+06 0 -1.08305e+06 2.13332e+06 0 -949997 2.00793e+06 0 -839767 1.88132e+06 0 -747971 1.75707e+06 0 -670868 1.63711e+06 0 -605425 1.52232e+06 0 -549255 1.41305e+06 0 -500498 1.30932e+06 0 -457703 1.21099e+06 0 -419744 1.11785e+06 0 -385736 1.02965e+06 0 -354986 946179 0 -326947 867213 0 -301184 792561 0 -277352 722055 0 -255177 655549 0 -234441 592917 0 -214973 534051 0 -196636 478859 0 -179327 427257 0 -162966 379172 0 -147495 334534 0 -132873 293275 0 -119070 255323 0 -106073 220606 0 -93871.7 189042 0 -82465.6 160541 0 -71856.8 135000 0 -62049.7 112305 0 -53048.2 92328.1 0 -44853.9 74925.9 0 -37464.5 59941.3 0 -30872 47203.7 0 -25061.2 36530.2 0 -20008.6 27728.1 0 -15682.3 20598 0 -12041 14936.7 0 -9035.09 10541.7 0 -6607.2 7215.66 0 -4693.83 4770.13 0 -3227.32 3030.35 0 -2138.26 1838.66 0 -1358.12 1057.44 0 -821.845 570.929 0 -470.32 285.798 0 -252.248 130.443 0 -125.394 53.025 0 -56.9891 18.5376 0 -23.2804 5.26441 0 -8.37382 1.09014 0 -2.59208 0.12558 0 -0.67858 0.0013262 0 -0.151967 0.00189137 0 -0.0307219 0.00172293 0 -0.0049578 0.00135958 0 0.000170097 0.00167161 0 0.000282496 0.000422716 0 -0.000112854 -0.000672102 0 -3.96818e-05 -0.000292301 0 -2.11088e+06 2.21617e+06 0 -1.91606e+06 2.24684e+06 0 -1.71766e+06 2.23805e+06 0 -1.52865e+06 2.19417e+06 0 -1.35677e+06 2.12316e+06 0 -1.20524e+06 2.03362e+06 0 -1.07403e+06 1.933e+06 0 -961356 1.82691e+06 0 -864748 1.71921e+06 0 -781682 1.61241e+06 0 -709857 1.50807e+06 0 -647297 1.40706e+06 0 -592360 1.30988e+06 0 -543702 1.21674e+06 0 -500235 1.12771e+06 0 -461078 1.04276e+06 0 -425521 961847 0 -392991 884862 0 -363024 811715 0 -335247 742311 0 -309357 676562 0 -285110 614388 0 -262313 555717 0 -240810 500488 0 -220479 448641 0 -201226 400126 0 -182980 354890 0 -165691 312886 0 -149323 274058 0 -133854 238352 0 -119273 205703 0 -105576 176037 0 -92764.5 149273 0 -80845.3 125315 0 -69824.7 104054 0 -59708.4 85366.2 0 -50498.9 69115 0 -42193.9 55148.8 0 -34784.2 43302.9 0 -28252.4 33401.2 0 -22572.1 25258.7 0 -17706.8 18683.7 0 -13610 13482 0 -10225.9 9460.74 0 -7490.12 6432.05 0 -5331.51 4217.75 0 -3674.47 2653.06 0 -2441.47 1590.03 0 -1556 900.185 0 -945.441 476.072 0 -543.683 231.674 0 -293.278 101.537 0 -146.785 38.7818 0 -67.2427 12.1926 0 -27.7209 2.78617 0 -10.0718 0.283134 0 -3.14862 -0.0736977 0 -0.829449 -0.0282434 0 -0.184781 0.001436 0 -0.0365426 0.00218785 0 -0.0058261 0.00205052 0 0.000130065 0.00269866 0 0.000284657 0.000835896 0 -0.000215411 -0.00132132 0 -2.08329e+06 2.05542e+06 0 -1.92581e+06 2.081e+06 0 -1.76225e+06 2.07922e+06 0 -1.60124e+06 2.0512e+06 0 -1.44903e+06 2.00079e+06 0 -1.30942e+06 1.93305e+06 0 -1.18397e+06 1.8531e+06 0 -1.07265e+06 1.76538e+06 0 -974486 1.6734e+06 0 -888071 1.57974e+06 0 -811885 1.48621e+06 0 -744465 1.39406e+06 0 -684493 1.30409e+06 0 -630821 1.2168e+06 0 -582473 1.13252e+06 0 -538629 1.05142e+06 0 -498604 973588 0 -461832 899062 0 -427844 827847 0 -396254 759927 0 -366743 695279 0 -339052 633872 0 -312971 575677 0 -288327 520665 0 -264986 468807 0 -242841 420075 0 -221810 374441 0 -201832 331873 0 -182864 292337 0 -164879 255795 0 -147861 222200 0 -131804 191498 0 -116709 163623 0 -102583 138499 0 -89435 116036 0 -77274 96130.4 0 -66107.8 78664 0 -55940 63504.6 0 -46768.4 50505.8 0 -38583.1 39508.9 0 -31364.9 30344 0 -25084.6 22832.8 0 -19701.9 16791.4 0 -15165.8 12033.5 0 -11414.7 8375.02 0 -8378.24 5637.07 0 -5978.34 3650.71 0 -4132.22 2260.35 0 -2755.02 1326.99 0 -1762.91 730.594 0 -1076.22 371.438 0 -622.314 170.353 0 -337.86 67.7277 0 -170.362 21.4676 0 -78.7123 4.10132 0 -32.7607 -0.578221 0 -12.0242 -0.915792 0 -3.79413 -0.419873 0 -1.00387 -0.103832 0 -0.221381 -0.0122016 0 -0.0422808 -0.00201583 0 -0.00642295 0.000720143 0 0.000180274 0.00312281 0 0.000319004 0.00169683 0 -2.0641e+06 1.92021e+06 0 -1.93367e+06 1.94044e+06 0 -1.79678e+06 1.94133e+06 0 -1.65901e+06 1.92272e+06 0 -1.52504e+06 1.88624e+06 0 -1.3983e+06 1.83468e+06 0 -1.28085e+06 1.77131e+06 0 -1.17357e+06 1.69934e+06 0 -1.07648e+06 1.6216e+06 0 -989056 1.54041e+06 0 -910464 1.4576e+06 0 -839765 1.37451e+06 0 -776006 1.29214e+06 0 -718293 1.2112e+06 0 -665817 1.13218e+06 0 -617863 1.05542e+06 0 -573813 981159 0 -533137 909543 0 -495385 840675 0 -460176 774621 0 -427193 711420 0 -396169 651097 0 -366884 593668 0 -339160 539139 0 -312849 487514 0 -287835 438790 0 -264028 392963 0 -241359 350022 0 -219778 309954 0 -199250 272739 0 -179758 238347 0 -161291 206742 0 -143849 177877 0 -127440 151694 0 -112074 128122 0 -97762.9 107076 0 -84520.1 88456.7 0 -72355.1 72151 0 -61272.7 58031.3 0 -51271.2 45956.1 0 -42340.2 35771.9 0 -34459.2 27314.7 0 -27596.6 20412.5 0 -21709.2 14888.2 0 -16741.7 10563.2 0 -12628 7261.05 0 -9292 4811.19 0 -6649.7 3053.06 0 -4611.86 1839.46 0 -3086.91 1039.55 0 -1984.29 541.05 0 -1217.76 251.396 0 -708.441 97.8234 0 -387.3 26.279 0 -196.84 -0.686137 0 -91.7516 -6.8094 0 -38.5543 -5.43221 0 -14.2872 -2.81656 0 -4.54327 -1.05621 0 -1.20309 -0.284572 0 -0.260576 -0.0611537 0 -0.0471348 -0.0187898 0 -0.0064844 -0.0058912 0 0.000835359 0.00391316 0 -2.05198e+06 1.8039e+06 0 -1.94175e+06 1.81918e+06 0 -1.82544e+06 1.82055e+06 0 -1.7067e+06 1.80738e+06 0 -1.58885e+06 1.78019e+06 0 -1.47468e+06 1.74039e+06 0 -1.36619e+06 1.68993e+06 0 -1.26464e+06 1.63099e+06 0 -1.17057e+06 1.56567e+06 0 -1.08405e+06 1.49588e+06 0 -1.00481e+06 1.42325e+06 0 -932351 1.34909e+06 0 -866078 1.27444e+06 0 -805366 1.2001e+06 0 -749602 1.1267e+06 0 -698211 1.05469e+06 0 -650670 984400 0 -606512 916095 0 -565327 849961 0 -526762 786135 0 -490510 724723 0 -456313 665801 0 -423950 609431 0 -393240 555656 0 -364032 504514 0 -336203 456031 0 -309656 410226 0 -284316 367112 0 -260128 326696 0 -237054 288977 0 -215068 253944 0 -194160 221579 0 -174328 191854 0 -155578 164727 0 -137923 140147 0 -121376 118046 0 -105956 98346.5 0 -91676.9 80952.1 0 -78551.5 65754 0 -66586.1 52628.9 0 -55779.8 41440 0 -46122.2 32038.6 0 -37592 24266 0 -30155.8 17955.9 0 -23767.8 12937.8 0 -18369.7 9039.53 0 -13891 6091.85 0 -10251 3931.67 0 -7360.48 2405.94 0 -5124.35 1375.03 0 -3444.98 715.475 0 -2225.57 322.05 0 -1373.64 108.777 0 -804.303 8.86538 0 -442.915 -26.4553 0 -226.927 -30.1039 0 -106.703 -22.0597 0 -45.2408 -12.6651 0 -16.9018 -5.89894 0 -5.39926 -2.21894 0 -1.42144 -0.676204 0 -0.297946 -0.188718 0 -0.0495122 -0.0662223 0 -0.00406203 -0.0170188 0 -2.04578e+06 1.70202e+06 0 -1.951e+06 1.71298e+06 0 -1.85081e+06 1.71375e+06 0 -1.74758e+06 1.7036e+06 0 -1.64364e+06 1.68253e+06 0 -1.54111e+06 1.65114e+06 0 -1.44173e+06 1.61053e+06 0 -1.34675e+06 1.56208e+06 0 -1.25699e+06 1.50727e+06 0 -1.17286e+06 1.44755e+06 0 -1.09443e+06 1.38428e+06 0 -1.02157e+06 1.3186e+06 0 -954003 1.25152e+06 0 -891342 1.18385e+06 0 -833177 1.11625e+06 0 -779086 1.04924e+06 0 -728660 983242 0 -681515 918583 0 -637301 855520 0 -595706 794257 0 -556450 734954 0 -519291 677739 0 -484021 622715 0 -450462 569967 0 -418464 519561 0 -387903 471555 0 -358681 425994 0 -330718 382914 0 -303955 342341 0 -278351 304295 0 -253876 268784 0 -230518 235809 0 -208273 205359 0 -187146 177411 0 -167150 151932 0 -148302 128873 0 -130623 108173 0 -114133 89756.8 0 -98851.2 73532.8 0 -84792.1 59396 0 -71964.2 47227 0 -60367.7 36893.4 0 -49992.7 28250.8 0 -40817.4 21145.6 0 -32807.6 15416.6 0 -25915.6 10898.9 0 -20080.4 7426.4 0 -15228.3 4836.22 0 -11274.6 2971.83 0 -8125.43 1686.9 0 -5680.68 848.474 0 -3837.14 339.693 0 -2492.21 61.6681 0 -1547.48 -65.5931 0 -912.168 -103.346 0 -506.019 -95.3571 0 -261.312 -70.1196 0 -123.871 -43.8055 0 -52.9179 -23.5849 0 -19.8729 -10.9008 0 -6.3393 -4.2921 0 -1.63754 -1.46157 0 -0.323411 -0.483472 0 -0.0352307 -0.13309 0 -2.0445e+06 1.61146e+06 0 -1.96184e+06 1.61874e+06 0 -1.87447e+06 1.61843e+06 0 -1.78392e+06 1.60983e+06 0 -1.69183e+06 1.59272e+06 0 -1.59976e+06 1.56728e+06 0 -1.50911e+06 1.53406e+06 0 -1.42101e+06 1.4939e+06 0 -1.33631e+06 1.44777e+06 0 -1.25557e+06 1.39673e+06 0 -1.1791e+06 1.3418e+06 0 -1.107e+06 1.28396e+06 0 -1.03923e+06 1.22407e+06 0 -975618 1.16291e+06 0 -915936 1.10111e+06 0 -859912 1.03924e+06 0 -807254 977725 0 -757675 916957 0 -710896 857240 0 -666656 798825 0 -624715 741919 0 -584861 686695 0 -546901 633294 0 -510672 581834 0 -476032 532417 0 -442860 485126 0 -411058 440032 0 -380549 397194 0 -351270 356660 0 -323178 318470 0 -296242 282652 0 -270447 249223 0 -245788 218192 0 -222269 189553 0 -199904 163291 0 -178711 139376 0 -158714 117765 0 -139938 98401.4 0 -122407 81212.2 0 -106145 66110.7 0 -91168.1 52995.3 0 -77487.8 41750.2 0 -65105.8 32247 0 -54013 24345.4 0 -44188.3 17895.9 0 -35596.8 12742.5 0 -28189.8 8724.8 0 -21904.4 5682.41 0 -16664.5 3457.77 0 -12382.1 1900.13 0 -8959.49 868.954 0 -6292.02 237.123 0 -4271.5 -106.475 0 -2789.86 -255.139 0 -1742.99 -283.503 0 -1034.32 -247.763 0 -577.887 -186.975 0 -300.604 -125.319 0 -143.468 -75.0989 0 -61.593 -40.1069 0 -23.1306 -18.9472 0 -7.28518 -7.88393 0 -1.80668 -2.98719 0 -0.25598 -0.879007 0 -2.04736e+06 1.53001e+06 0 -1.97441e+06 1.53419e+06 0 -1.89737e+06 1.5326e+06 0 -1.81728e+06 1.52467e+06 0 -1.73524e+06 1.51008e+06 0 -1.65241e+06 1.48881e+06 0 -1.56986e+06 1.46109e+06 0 -1.48853e+06 1.42737e+06 0 -1.40922e+06 1.38827e+06 0 -1.33251e+06 1.34451e+06 0 -1.25882e+06 1.29685e+06 0 -1.18841e+06 1.24605e+06 0 -1.12137e+06 1.19282e+06 0 -1.05771e+06 1.13784e+06 0 -997352 1.0817e+06 0 -940152 1.02493e+06 0 -885937 967990 0 -834512 911262 0 -785675 855086 0 -739225 799745 0 -694971 745480 0 -652734 692497 0 -612351 640969 0 -573676 591047 0 -536580 542858 0 -500955 496513 0 -466705 452107 0 -433757 409722 0 -402050 369427 0 -371541 331279 0 -342198 295327 0 -314004 261606 0 -286955 230143 0 -261053 200949 0 -236313 174027 0 -212755 149366 0 -190405 126940 0 -169290 106711 0 -149441 88624.6 0 -130888 72613 0 -113657 58592.3 0 -97768.1 46464.4 0 -83235.7 36117 0 -70063.5 27424.9 0 -58244 20251.9 0 -47757 14452.5 0 -38568 9874.48 0 -30627.9 6362.16 0 -23872.7 3759.51 0 -18224.8 1913.77 0 -13593.6 678.988 0 -9878.15 -80.4653 0 -6970.03 -486.806 0 -4756.47 -646.282 0 -3124.32 -647.407 0 -1963.96 -560.14 0 -1173.01 -436.141 0 -659.675 -310.092 0 -345.245 -202.001 0 -165.519 -120.245 0 -71.0987 -65.0214 0 -26.4526 -31.7122 0 -8.0913 -14.0861 0 -1.61247 -5.06636 0 -2.05372e+06 1.45605e+06 0 -1.98869e+06 1.45761e+06 0 -1.92013e+06 1.45474e+06 0 -1.84872e+06 1.44694e+06 0 -1.77523e+06 1.43391e+06 0 -1.70048e+06 1.41552e+06 0 -1.62529e+06 1.39183e+06 0 -1.55041e+06 1.36307e+06 0 -1.47652e+06 1.32958e+06 0 -1.40417e+06 1.29183e+06 0 -1.33381e+06 1.25037e+06 0 -1.26575e+06 1.20574e+06 0 -1.2002e+06 1.15853e+06 0 -1.13727e+06 1.10928e+06 0 -1.07699e+06 1.05851e+06 0 -1.01934e+06 1.0067e+06 0 -964228 954280 0 -911555 901638 0 -861193 849111 0 -813004 796998 0 -766847 745560 0 -722586 695023 0 -680088 645587 0 -639233 597424 0 -599912 550687 0 -562028 505508 0 -525498 462004 0 -490253 420277 0 -456238 380416 0 -423411 342498 0 -391742 306589 0 -361216 272741 0 -331826 240998 0 -303577 211390 0 -276483 183937 0 -250564 158644 0 -225848 135506 0 -202367 114500 0 -180155 95592 0 -159249 78731.6 0 -139682 63853.6 0 -121484 50877.6 0 -104680 39708.8 0 -89286.3 30238 0 -75310.4 22343.6 0 -62746.8 15892.4 0 -51576.6 10742.6 0 -41766.7 6745.55 0 -33268.4 3749.31 0 -26017.5 1601.67 0 -19935.4 153.726 0 -14929.9 -736.55 0 -10897.7 -1200.86 0 -7726.92 -1357.48 0 -5300.87 -1308.75 0 -3501.62 -1139.27 0 -2214.16 -915.09 0 -1330.31 -683.919 0 -752.274 -476.479 0 -395.345 -308.791 0 -189.709 -185.304 0 -80.9261 -102.291 0 -29.4672 -52.0662 0 -7.83142 -22.6394 0 -2.06311e+06 1.38837e+06 0 -2.00465e+06 1.38773e+06 0 -1.94313e+06 1.3836e+06 0 -1.879e+06 1.37563e+06 0 -1.81279e+06 1.36351e+06 0 -1.74509e+06 1.3471e+06 0 -1.6765e+06 1.32635e+06 0 -1.60762e+06 1.30134e+06 0 -1.539e+06 1.27227e+06 0 -1.47111e+06 1.23941e+06 0 -1.40439e+06 1.20313e+06 0 -1.33915e+06 1.16383e+06 0 -1.27566e+06 1.12192e+06 0 -1.21409e+06 1.07786e+06 0 -1.15455e+06 1.03207e+06 0 -1.09709e+06 984962 0 -1.0417e+06 936922 0 -988367 888310 0 -937018 839453 0 -887579 790645 0 -839959 742154 0 -794064 694216 0 -749797 647045 0 -707067 600830 0 -665787 555740 0 -625877 511927 0 -587270 469524 0 -549905 428652 0 -513735 389416 0 -478722 351911 0 -444841 316219 0 -412076 282410 0 -380424 250543 0 -349889 220665 0 -320486 192813 0 -292237 167010 0 -265171 143266 0 -239323 121578 0 -214731 101928 0 -191435 84286.2 0 -169476 68604.5 0 -148894 54821 0 -129722 42858.7 0 -111990 32625.5 0 -95718.8 24015.5 0 -80917.4 16910 0 -67583.9 11179.1 0 -55702.1 6683.77 0 -45240.5 3278.67 0 -36151.7 814.863 0 -28372.5 -856.814 0 -21824.1 -1882.24 0 -16413.4 -2400.46 0 -12035.4 -2540.25 0 -8575.67 -2417.01 0 -5913.95 -2130.16 0 -3927.89 -1761.36 0 -2497.24 -1373.6 0 -1507.99 -1011.35 0 -856.077 -701.862 0 -450.451 -457.5 0 -215.073 -278.577 0 -90.2971 -158.429 0 -29.995 -80.1542 0 -2.07512e+06 1.32605e+06 0 -2.0222e+06 1.32352e+06 0 -1.9666e+06 1.31824e+06 0 -1.90863e+06 1.30991e+06 0 -1.84867e+06 1.29827e+06 0 -1.78712e+06 1.28318e+06 0 -1.72442e+06 1.26455e+06 0 -1.66104e+06 1.24237e+06 0 -1.5974e+06 1.21674e+06 0 -1.53392e+06 1.1878e+06 0 -1.47096e+06 1.1558e+06 0 -1.40884e+06 1.12099e+06 0 -1.34781e+06 1.0837e+06 0 -1.28809e+06 1.04424e+06 0 -1.22982e+06 1.00297e+06 0 -1.17311e+06 960213 0 -1.11801e+06 916313 0 -1.06456e+06 871586 0 -1.01275e+06 826330 0 -962549 780826 0 -913917 735332 0 -866800 690085 0 -821138 645302 0 -776868 601181 0 -733929 557901 0 -692263 515625 0 -651816 474501 0 -612542 434664 0 -574403 396232 0 -537369 359316 0 -501418 324011 0 -466540 290403 0 -432733 258567 0 -400003 228565 0 -368366 200449 0 -337846 174258 0 -308474 150019 0 -280285 127747 0 -253321 107442 0 -227628 89090.4 0 -203251 72663.4 0 -180238 58117.5 0 -158631 45393.8 0 -138470 34418.2 0 -119790 25101.6 0 -102615 17341 0 -86957.7 11020.5 0 -72820.8 6012.97 0 -60190.9 2182.17 0 -49039.2 -614.747 0 -39320.8 -2524.26 0 -30973.9 -3693.21 0 -23920.6 -4265.34 0 -18067.9 -4377.69 0 -13309.8 -4157.15 0 -9530.11 -3717.33 0 -6605.4 -3155.86 0 -4409.3 -2552.51 0 -2816.53 -1968.18 0 -1707.17 -1444.93 0 -970.674 -1007.28 0 -509.037 -663.857 0 -240.248 -413.171 0 -94.904 -235.373 0 -2.08946e+06 1.26838e+06 0 -2.04126e+06 1.26423e+06 0 -1.99071e+06 1.25788e+06 0 -1.93801e+06 1.24909e+06 0 -1.88343e+06 1.23765e+06 0 -1.82725e+06 1.22342e+06 0 -1.7698e+06 1.20629e+06 0 -1.71141e+06 1.18622e+06 0 -1.65243e+06 1.16323e+06 0 -1.59318e+06 1.13741e+06 0 -1.53398e+06 1.10889e+06 0 -1.47511e+06 1.07783e+06 0 -1.4168e+06 1.04446e+06 0 -1.35927e+06 1.00902e+06 0 -1.3027e+06 971761 0 -1.2472e+06 932962 0 -1.19289e+06 892894 0 -1.13982e+06 851829 0 -1.08803e+06 810031 0 -1.03754e+06 767754 0 -988345 725238 0 -940426 682710 0 -893758 640382 0 -848307 598452 0 -804037 557103 0 -760912 516503 0 -718895 476809 0 -677955 438163 0 -638065 400697 0 -599205 364531 0 -561360 329774 0 -524524 296525 0 -488699 264869 0 -453895 234886 0 -420129 206640 0 -387427 180185 0 -355820 155566 0 -325346 132812 0 -296051 111940 0 -267983 92954.5 0 -241191 75844.7 0 -215730 60585.4 0 -191650 47136 0 -169002 35440.7 0 -147830 25428.4 0 -128172 17012.9 0 -110059 10094.1 0 -93508.5 4558.67 0 -78526.7 282.121 0 -65104.4 -2869.52 0 -53216.9 -5036.98 0 -42822.1 -6364.89 0 -33861 -6998.54 0 -26257.4 -7080.38 0 -19919.5 -6746.43 0 -14741.2 -6122.81 0 -10605.1 -5322.48 0 -7385.3 -4442.48 0 -4951.89 -3561.88 0 -3174.71 -2740.58 0 -1927.99 -2019.39 0 -1094.11 -1420.11 0 -569.12 -951.735 0 -257.881 -595.643 0 -2.10588e+06 1.21477e+06 0 -2.06176e+06 1.20924e+06 0 -2.01555e+06 1.20191e+06 0 -1.9674e+06 1.19262e+06 0 -1.91749e+06 1.18118e+06 0 -1.86602e+06 1.16747e+06 0 -1.81323e+06 1.15138e+06 0 -1.75937e+06 1.13287e+06 0 -1.70469e+06 1.1119e+06 0 -1.64945e+06 1.08852e+06 0 -1.59391e+06 1.06279e+06 0 -1.53831e+06 1.03482e+06 0 -1.48286e+06 1.00475e+06 0 -1.42777e+06 972743 0 -1.3732e+06 938998 0 -1.31929e+06 903722 0 -1.26615e+06 867131 0 -1.21389e+06 829449 0 -1.16257e+06 790900 0 -1.11223e+06 751706 0 -1.0629e+06 712084 0 -1.01459e+06 672242 0 -967308 632379 0 -921045 592686 0 -875789 553342 0 -831524 514516 0 -788232 476367 0 -745896 439042 0 -704504 402680 0 -664044 367408 0 -624510 333344 0 -585903 300597 0 -548230 269265 0 -511502 239438 0 -475742 211193 0 -440975 184598 0 -407236 159711 0 -374566 136577 0 -343009 115230 0 -312618 95689.2 0 -283447 77962.1 0 -255554 62041.4 0 -228997 47904.7 0 -203834 35514.9 0 -180119 24819.1 0 -157905 15749.2 0 -137234 8222.23 0 -118142 2140.62 0 -100652 -2606.2 0 -84775.7 -6140.49 0 -70509.1 -8594.15 0 -57831.8 -10106.2 0 -46706.1 -10820.1 0 -37076.7 -10880.1 0 -28870.3 -10428.4 0 -21996.9 -9600.84 0 -16351.6 -8523.99 0 -11816.5 -7311.35 0 -8264.08 -6060.67 0 -5561.31 -4851.58 0 -3573.55 -3744.52 0 -2168.67 -2779.07 0 -1224.09 -1980.37 0 -619.677 -1336.97 0 -2.1242e+06 1.16479e+06 0 -2.08362e+06 1.15804e+06 0 -2.04119e+06 1.14983e+06 0 -1.99701e+06 1.14001e+06 0 -1.95118e+06 1.12845e+06 0 -1.90386e+06 1.11502e+06 0 -1.85522e+06 1.09965e+06 0 -1.80543e+06 1.08226e+06 0 -1.7547e+06 1.06282e+06 0 -1.70322e+06 1.04133e+06 0 -1.6512e+06 1.01782e+06 0 -1.59882e+06 992351 0 -1.54628e+06 965007 0 -1.49375e+06 935905 0 -1.44138e+06 905181 0 -1.38933e+06 872987 0 -1.33771e+06 839493 0 -1.28661e+06 804875 0 -1.23613e+06 769319 0 -1.18633e+06 733012 0 -1.13726e+06 696141 0 -1.08896e+06 658893 0 -1.04145e+06 621449 0 -994746 583986 0 -948857 546673 0 -903785 509676 0 -859531 473149 0 -816093 437241 0 -773470 402091 0 -731663 367832 0 -690675 334587 0 -650512 302472 0 -611187 271594 0 -572718 242050 0 -535128 213930 0 -498447 187313 0 -462710 162270 0 -427960 138858 0 -394245 117126 0 -361617 97110.1 0 -330135 78833.1 0 -299859 62305 0 -270854 47521.5 0 -243184 34463.8 0 -216913 23097.8 0 -192102 13373.9 0 -168807 5227.3 0 -147079 -1422.13 0 -126959 -6668.98 0 -108477 -10621.3 0 -91648.8 -13399.1 0 -76477.6 -15132.5 0 -62948.5 -15959.2 0 -51029.1 -16021.7 0 -40668.9 -15464.4 0 -31798.8 -14429.5 0 -24331.9 -13054.1 0 -18165.2 -11466.1 0 -13181.5 -9780.9 0 -9252.49 -8098.25 0 -6242.73 -6500.16 0 -4012.78 -5047.48 0 -2427.53 -3786.52 0 -1346.06 -2719.78 0 -2.14425e+06 1.11806e+06 0 -2.1068e+06 1.11026e+06 0 -2.06769e+06 1.10124e+06 0 -2.02697e+06 1.0909e+06 0 -1.98475e+06 1.07912e+06 0 -1.9411e+06 1.06581e+06 0 -1.89617e+06 1.05089e+06 0 -1.85006e+06 1.0343e+06 0 -1.80294e+06 1.016e+06 0 -1.75495e+06 995958 0 -1.70625e+06 974193 0 -1.657e+06 950728 0 -1.60734e+06 925616 0 -1.55743e+06 898929 0 -1.5074e+06 870761 0 -1.4574e+06 841222 0 -1.40752e+06 810438 0 -1.35788e+06 778546 0 -1.30856e+06 745694 0 -1.25965e+06 712035 0 -1.21119e+06 677728 0 -1.16326e+06 642933 0 -1.11588e+06 607810 0 -1.06909e+06 572519 0 -1.02292e+06 537218 0 -977377 502058 0 -932484 467190 0 -888251 432756 0 -844690 398895 0 -801810 365739 0 -759624 333414 0 -718147 302039 0 -677397 271726 0 -637395 242580 0 -598170 214698 0 -559754 188170 0 -522184 163074 0 -485504 139483 0 -449763 117456 0 -415018 97043.1 0 -381326 78283.5 0 -348753 61202.9 0 -317366 45814.2 0 -287234 32116.3 0 -258429 20093.8 0 -231020 9715.81 0 -205075 936.453 0 -180656 -6305.89 0 -157821 -12088.1 0 -136617 -16501.7 0 -117080 -19652.2 0 -99234.8 -21657.4 0 -83090.3 -22645.7 0 -68638.6 -22753.7 0 -55853.8 -22123.6 0 -44691.4 -20900 0 -35087.7 -19226.5 0 -26960.2 -17242 0 -20209 -15077 0 -14718.9 -12849.9 0 -10361.8 -10664.6 0 -6999.72 -8604.82 0 -4493.16 -6741.52 0 -2687.83 -5097.57 0 -2.16592e+06 1.07429e+06 0 -2.13124e+06 1.06555e+06 0 -2.09506e+06 1.0558e+06 0 -2.05742e+06 1.04495e+06 0 -2.01839e+06 1.03291e+06 0 -1.97802e+06 1.01959e+06 0 -1.9364e+06 1.00494e+06 0 -1.89363e+06 988901 0 -1.8498e+06 971422 0 -1.80504e+06 952480 0 -1.75947e+06 932066 0 -1.71319e+06 910190 0 -1.66635e+06 886878 0 -1.61905e+06 862173 0 -1.57143e+06 836138 0 -1.52359e+06 808850 0 -1.47563e+06 780399 0 -1.42766e+06 750890 0 -1.37976e+06 720436 0 -1.33201e+06 689161 0 -1.28448e+06 657195 0 -1.23724e+06 624672 0 -1.19033e+06 591731 0 -1.14379e+06 558511 0 -1.09767e+06 525153 0 -1.05199e+06 491797 0 -1.00678e+06 458581 0 -962067 425641 0 -917868 393109 0 -874206 361114 0 -831099 329781 0 -788571 299229 0 -746644 269573 0 -705346 240921 0 -664707 213376 0 -624763 187034 0 -585554 161982 0 -547124 138301 0 -509526 116063 0 -472813 95330.1 0 -437049 76153.7 0 -402298 58574.8 0 -368631 42622.3 0 -336121 28312.1 0 -304844 15646.7 0 -274877 4613.92 0 -246295 -4813.14 0 -219173 -12676.8 0 -193580 -19035.1 0 -169580 -23961.2 0 -147228 -27543.7 0 -126568 -29885.2 0 -107632 -31101 0 -90437.1 -31317.9 0 -74982.7 -30671.7 0 -61251.2 -29304.5 0 -49205.3 -27361.6 0 -38787.9 -24988.6 0 -29922.5 -22327 0 -22513.8 -19511.1 0 -16449.8 -16664.1 0 -11602.9 -13893 0 -7838.5 -11294.2 0 -4998.76 -8915.85 0 -2.1891e+06 1.03324e+06 0 -2.15689e+06 1.02367e+06 0 -2.12333e+06 1.01325e+06 0 -2.08844e+06 1.00191e+06 0 -2.05225e+06 989564 0 -2.01481e+06 976163 0 -1.97618e+06 961644 0 -1.93643e+06 945957 0 -1.89562e+06 929064 0 -1.85384e+06 910935 0 -1.81119e+06 891553 0 -1.76774e+06 870917 0 -1.72361e+06 849037 0 -1.67889e+06 825938 0 -1.63367e+06 801657 0 -1.58805e+06 776248 0 -1.54212e+06 749774 0 -1.49597e+06 722313 0 -1.44969e+06 693950 0 -1.40334e+06 664782 0 -1.35699e+06 634913 0 -1.31072e+06 604453 0 -1.26456e+06 573520 0 -1.21859e+06 542231 0 -1.17283e+06 510711 0 -1.12733e+06 479084 0 -1.08212e+06 447475 0 -1.03724e+06 416009 0 -992707 384809 0 -948560 353999 0 -904821 323699 0 -861520 294025 0 -818684 265092 0 -776346 237009 0 -734539 209880 0 -693301 183807 0 -652674 158881 0 -612704 135193 0 -573444 112820 0 -534949 91836.4 0 -497282 72304.8 0 -460508 54279.3 0 -424701 37802.9 0 -389934 22907.4 0 -356288 9612.03 0 -323843 -2077.27 0 -292683 -1