<?xml version="1.0"?> 
<VTKFile type="StructuredGrid" version="0.1"> 
<StructuredGrid WholeExtent="0 63 0 63 0 0"> 
<Piece Extent="0 63 0 63 0 0"> 
<PointData>
<DataArray type="Float32" Name="|E|" format="ascii" NumberOfComponents="3"> 
276972 4.20086e+06 0 276669 4.19627e+06 0 276381 4.1919e+06 0 276107 4.18775e+06 0 275848 4.18381e+06 0 275602 4.18008e+06 0 275371 4.17657e+06 0 275153 4.17326e+06 0 274948 4.17017e+06 0 274758 4.16727e+06 0 274581 4.16459e+06 0 274417 4.16211e+06 0 274267 4.15983e+06 0 274131 4.15777e+06 0 274008 4.15591e+06 0 273899 4.15426e+06 0 273805 4.15282e+06 0 273724 4.1516e+06 0 273658 4.15059e+06 0 273606 4.1498e+06 0 273568 4.14924e+06 0 273546 4.1489e+06 0 273539 4.1488e+06 0 273548 4.14893e+06 0 273573 4.14931e+06 0 273615 4.14994e+06 0 273673 4.15082e+06 0 273749 4.15197e+06 0 273842 4.15339e+06 0 273954 4.15509e+06 0 274086 4.15709e+06 0 274237 4.15938e+06 0 274409 4.16199e+06 0 274602 4.16492e+06 0 274818 4.16819e+06 0 275056 4.17181e+06 0 275319 4.17579e+06 0 275608 4.18017e+06 0 275922 4.18494e+06 0 276265 4.19014e+06 0 276637 4.19578e+06 0 277039 4.20188e+06 0 277474 4.20848e+06 0 277943 4.21559e+06 0 278448 4.22325e+06 0 278991 4.23149e+06 0 279575 4.24034e+06 0 280202 4.24985e+06 0 280874 4.26005e+06 0 281596 4.27099e+06 0 282370 4.28273e+06 0 283200 4.29532e+06 0 284090 4.30883e+06 0 285046 4.32332e+06 0 286071 4.33887e+06 0 287173 4.35558e+06 0 288357 4.37354e+06 0 289632 4.39287e+06 0 291005 4.4137e+06 0 292488 4.43619e+06 0 294090 4.46049e+06 0 295826 4.48682e+06 0 297712 4.51542e+06 0 299766 4.54657e+06 0 270374 4.20151e+06 0 270379 4.19688e+06 0 270393 4.19247e+06 0 270418 4.18828e+06 0 270453 4.18431e+06 0 270499 4.18055e+06 0 270557 4.177e+06 0 270627 4.17365e+06 0 270709 4.17052e+06 0 270804 4.16759e+06 0 270913 4.16486e+06 0 271036 4.16235e+06 0 271173 4.16003e+06 0 271326 4.15793e+06 0 271494 4.15603e+06 0 271680 4.15434e+06 0 271882 4.15286e+06 0 272103 4.15159e+06 0 272343 4.15054e+06 0 272602 4.1497e+06 0 272882 4.14909e+06 0 273184 4.14871e+06 0 273509 4.14856e+06 0 273857 4.14864e+06 0 274230 4.14896e+06 0 274630 4.14954e+06 0 275056 4.15036e+06 0 275512 4.15145e+06 0 275999 4.15281e+06 0 276517 4.15445e+06 0 277069 4.15637e+06 0 277657 4.1586e+06 0 278282 4.16113e+06 0 278948 4.16399e+06 0 279655 4.16717e+06 0 280408 4.17071e+06 0 281208 4.17461e+06 0 282058 4.17889e+06 0 282962 4.18356e+06 0 283924 4.18865e+06 0 284946 4.19418e+06 0 286034 4.20017e+06 0 287192 4.20664e+06 0 288425 4.21361e+06 0 289739 4.22113e+06 0 291140 4.22922e+06 0 292634 4.23791e+06 0 294230 4.24724e+06 0 295936 4.25725e+06 0 297762 4.268e+06 0 299719 4.27952e+06 0 301818 4.29187e+06 0 304074 4.30511e+06 0 306502 4.31932e+06 0 309121 4.33457e+06 0 311951 4.35094e+06 0 315017 4.36852e+06 0 318347 4.38744e+06 0 321975 4.40781e+06 0 325941 4.42977e+06 0 330292 4.45348e+06 0 335086 4.47915e+06 0 340393 4.50698e+06 0 346306 4.53724e+06 0 263701 4.20172e+06 0 264013 4.19706e+06 0 264330 4.19262e+06 0 264653 4.1884e+06 0 264982 4.18439e+06 0 265320 4.1806e+06 0 265666 4.17701e+06 0 266023 4.17364e+06 0 266391 4.17047e+06 0 266771 4.1675e+06 0 267164 4.16474e+06 0 267572 4.16218e+06 0 267995 4.15982e+06 0 268435 4.15768e+06 0 268893 4.15573e+06 0 269371 4.154e+06 0 269869 4.15247e+06 0 270388 4.15115e+06 0 270931 4.15005e+06 0 271499 4.14916e+06 0 272094 4.1485e+06 0 272716 4.14806e+06 0 273368 4.14784e+06 0 274052 4.14786e+06 0 274769 4.14812e+06 0 275522 4.14863e+06 0 276312 4.14938e+06 0 277143 4.15039e+06 0 278016 4.15167e+06 0 278934 4.15323e+06 0 279900 4.15506e+06 0 280917 4.1572e+06 0 281989 4.15963e+06 0 283118 4.16238e+06 0 284308 4.16546e+06 0 285564 4.16888e+06 0 286890 4.17266e+06 0 288291 4.1768e+06 0 289772 4.18134e+06 0 291339 4.18628e+06 0 292997 4.19165e+06 0 294754 4.19747e+06 0 296617 4.20376e+06 0 298594 4.21054e+06 0 300695 4.21785e+06 0 302929 4.22572e+06 0 305308 4.23417e+06 0 307844 4.24324e+06 0 310550 4.25297e+06 0 313444 4.26341e+06 0 316542 4.27459e+06 0 319863 4.28658e+06 0 323432 4.29943e+06 0 327273 4.31319e+06 0 331417 4.32795e+06 0 335898 4.34378e+06 0 340755 4.36077e+06 0 346036 4.37902e+06 0 351795 4.39863e+06 0 358097 4.41973e+06 0 365021 4.44247e+06 0 372661 4.46701e+06 0 381131 4.49354e+06 0 390580 4.52228e+06 0 256964 4.20149e+06 0 257582 4.19681e+06 0 258201 4.19234e+06 0 258820 4.1881e+06 0 259443 4.18407e+06 0 260070 4.18024e+06 0 260704 4.17663e+06 0 261346 4.17322e+06 0 261997 4.17001e+06 0 262660 4.16701e+06 0 263335 4.16421e+06 0 264026 4.16161e+06 0 264732 4.15921e+06 0 265457 4.15702e+06 0 266201 4.15503e+06 0 266967 4.15325e+06 0 267757 4.15167e+06 0 268572 4.1503e+06 0 269415 4.14914e+06 0 270287 4.14819e+06 0 271191 4.14746e+06 0 272129 4.14695e+06 0 273104 4.14667e+06 0 274117 4.14661e+06 0 275173 4.1468e+06 0 276272 4.14722e+06 0 277420 4.14789e+06 0 278618 4.14881e+06 0 279870 4.14999e+06 0 281180 4.15144e+06 0 282551 4.15317e+06 0 283988 4.15519e+06 0 285494 4.1575e+06 0 287076 4.16012e+06 0 288737 4.16306e+06 0 290484 4.16634e+06 0 292322 4.16996e+06 0 294257 4.17394e+06 0 296298 4.1783e+06 0 298451 4.18306e+06 0 300725 4.18822e+06 0 303129 4.19383e+06 0 305673 4.19988e+06 0 308368 4.20642e+06 0 311226 4.21346e+06 0 314261 4.22104e+06 0 317488 4.22917e+06 0 320923 4.23791e+06 0 324586 4.24727e+06 0 328497 4.25731e+06 0 332680 4.26805e+06 0 337160 4.27956e+06 0 341970 4.29188e+06 0 347142 4.30506e+06 0 352716 4.31918e+06 0 358738 4.3343e+06 0 365261 4.35049e+06 0 372344 4.36783e+06 0 380061 4.38644e+06 0 388494 4.4064e+06 0 397745 4.42784e+06 0 407934 4.45088e+06 0 419204 4.47568e+06 0 431740 4.5024e+06 0 250176 4.20082e+06 0 251098 4.19612e+06 0 252015 4.19165e+06 0 252929 4.18738e+06 0 253842 4.18333e+06 0 254756 4.17948e+06 0 255674 4.17584e+06 0 256598 4.1724e+06 0 257530 4.16916e+06 0 258473 4.16612e+06 0 259427 4.16328e+06 0 260396 4.16065e+06 0 261382 4.15821e+06 0 262388 4.15597e+06 0 263414 4.15393e+06 0 264465 4.15209e+06 0 265542 4.15045e+06 0 266647 4.14902e+06 0 267784 4.1478e+06 0 268956 4.14679e+06 0 270163 4.14599e+06 0 271411 4.1454e+06 0 272702 4.14504e+06 0 274039 4.1449e+06 0 275425 4.14499e+06 0 276864 4.14532e+06 0 278360 4.14589e+06 0 279916 4.1467e+06 0 281538 4.14777e+06 0 283229 4.1491e+06 0 284994 4.15071e+06 0 286838 4.15259e+06 0 288768 4.15476e+06 0 290788 4.15723e+06 0 292905 4.16001e+06 0 295126 4.16311e+06 0 297458 4.16654e+06 0 299910 4.17033e+06 0 302489 4.17448e+06 0 305206 4.17901e+06 0 308071 4.18393e+06 0 311095 4.18928e+06 0 314290 4.19506e+06 0 317670 4.20129e+06 0 321250 4.20801e+06 0 325046 4.21524e+06 0 329077 4.22299e+06 0 333363 4.23132e+06 0 337926 4.24023e+06 0 342793 4.24978e+06 0 347991 4.26e+06 0 353553 4.27092e+06 0 359515 4.2826e+06 0 365917 4.29508e+06 0 372807 4.30842e+06 0 380238 4.32267e+06 0 388272 4.3379e+06 0 396981 4.35417e+06 0 406446 4.37156e+06 0 416765 4.39016e+06 0 428051 4.41004e+06 0 440440 4.43132e+06 0 454088 4.45408e+06 0 469195 4.47844e+06 0 243350 4.19972e+06 0 244572 4.19502e+06 0 245784 4.19053e+06 0 246988 4.18625e+06 0 248188 4.18218e+06 0 249385 4.17831e+06 0 250584 4.17465e+06 0 251786 4.17118e+06 0 252994 4.16791e+06 0 254212 4.16484e+06 0 255441 4.16197e+06 0 256685 4.15929e+06 0 257946 4.15681e+06 0 259227 4.15452e+06 0 260530 4.15243e+06 0 261860 4.15053e+06 0 263218 4.14884e+06 0 264609 4.14735e+06 0 266034 4.14605e+06 0 267497 4.14497e+06 0 269002 4.14409e+06 0 270552 4.14342e+06 0 272151 4.14297e+06 0 273803 4.14274e+06 0 275511 4.14273e+06 0 277280 4.14295e+06 0 279114 4.14341e+06 0 281019 4.1441e+06 0 282998 4.14504e+06 0 285058 4.14624e+06 0 287205 4.14769e+06 0 289443 4.14942e+06 0 291780 4.15143e+06 0 294222 4.15372e+06 0 296778 4.15631e+06 0 299454 4.15922e+06 0 302260 4.16244e+06 0 305205 4.166e+06 0 308300 4.16991e+06 0 311554 4.17418e+06 0 314981 4.17882e+06 0 318593 4.18387e+06 0 322405 4.18932e+06 0 326432 4.19522e+06 0 330692 4.20156e+06 0 335204 4.20838e+06 0 339988 4.2157e+06 0 345067 4.22355e+06 0 350469 4.23196e+06 0 356221 4.24094e+06 0 362356 4.25055e+06 0 368910 4.26081e+06 0 375923 4.27176e+06 0 383442 4.28343e+06 0 391518 4.29588e+06 0 400210 4.30915e+06 0 409585 4.32328e+06 0 419721 4.33834e+06 0 430707 4.35437e+06 0 442645 4.37143e+06 0 455653 4.3896e+06 0 469871 4.40891e+06 0 485457 4.42945e+06 0 502611 4.45127e+06 0 236498 4.19819e+06 0 238016 4.19349e+06 0 239518 4.189e+06 0 241008 4.18471e+06 0 242489 4.18063e+06 0 243965 4.17675e+06 0 245439 4.17306e+06 0 246914 4.16958e+06 0 248393 4.16628e+06 0 249881 4.16318e+06 0 251379 4.16027e+06 0 252892 4.15755e+06 0 254421 4.15502e+06 0 255972 4.15269e+06 0 257547 4.15054e+06 0 259149 4.14859e+06 0 260783 4.14683e+06 0 262450 4.14527e+06 0 264156 4.14391e+06 0 265905 4.14274e+06 0 267698 4.14178e+06 0 269542 4.14102e+06 0 271441 4.14047e+06 0 273397 4.14014e+06 0 275417 4.14002e+06 0 277506 4.14012e+06 0 279667 4.14045e+06 0 281908 4.14101e+06 0 284232 4.14181e+06 0 286648 4.14286e+06 0 289160 4.14415e+06 0 291776 4.14571e+06 0 294504 4.14753e+06 0 297350 4.14963e+06 0 300324 4.15202e+06 0 303435 4.1547e+06 0 306692 4.15769e+06 0 310106 4.16099e+06 0 313688 4.16463e+06 0 317451 4.16861e+06 0 321408 4.17294e+06 0 325574 4.17765e+06 0 329964 4.18275e+06 0 334597 4.18825e+06 0 339490 4.19418e+06 0 344666 4.20055e+06 0 350147 4.20739e+06 0 355958 4.21471e+06 0 362129 4.22254e+06 0 368689 4.23091e+06 0 375675 4.23984e+06 0 383125 4.24936e+06 0 391081 4.2595e+06 0 399594 4.27029e+06 0 408717 4.28177e+06 0 418513 4.29396e+06 0 429051 4.30691e+06 0 440410 4.32065e+06 0 452681 4.33522e+06 0 465966 4.35066e+06 0 480382 4.367e+06 0 496065 4.38427e+06 0 513166 4.4025e+06 0 531871 4.42171e+06 0 229634 4.19624e+06 0 231441 4.19155e+06 0 233227 4.18706e+06 0 234996 4.18278e+06 0 236753 4.17869e+06 0 238501 4.1748e+06 0 240245 4.1711e+06 0 241987 4.16759e+06 0 243731 4.16427e+06 0 245482 4.16114e+06 0 247243 4.15819e+06 0 249018 4.15543e+06 0 250811 4.15286e+06 0 252624 4.15048e+06 0 254463 4.14828e+06 0 256330 4.14626e+06 0 258231 4.14444e+06 0 260168 4.14281e+06 0 262147 4.14137e+06 0 264171 4.14012e+06 0 266245 4.13906e+06 0 268373 4.13821e+06 0 270560 4.13756e+06 0 272811 4.13711e+06 0 275132 4.13688e+06 0 277528 4.13685e+06 0 280004 4.13705e+06 0 282567 4.13746e+06 0 285222 4.13811e+06 0 287978 4.13899e+06 0 290840 4.14011e+06 0 293817 4.14148e+06 0 296916 4.1431e+06 0 300147 4.14499e+06 0 303518 4.14715e+06 0 307039 4.14959e+06 0 310722 4.15231e+06 0 314578 4.15534e+06 0 318619 4.15868e+06 0 322858 4.16234e+06 0 327310 4.16634e+06 0 331992 4.17068e+06 0 336919 4.17539e+06 0 342112 4.18047e+06 0 347590 4.18595e+06 0 353375 4.19183e+06 0 359493 4.19814e+06 0 365970 4.20489e+06 0 372837 4.21211e+06 0 380125 4.21981e+06 0 387871 4.22801e+06 0 396116 4.23674e+06 0 404904 4.24602e+06 0 414285 4.25587e+06 0 424315 4.26631e+06 0 435055 4.27737e+06 0 446576 4.28908e+06 0 458955 4.30145e+06 0 472281 4.3145e+06 0 486651 4.32826e+06 0 502177 4.34273e+06 0 518985 4.35793e+06 0 537213 4.37386e+06 0 557027 4.3905e+06 0 222772 4.19388e+06 0 224860 4.1892e+06 0 226923 4.18473e+06 0 228964 4.18045e+06 0 230990 4.17636e+06 0 233003 4.17246e+06 0 235009 4.16875e+06 0 237010 4.16523e+06 0 239013 4.16189e+06 0 241021 4.15873e+06 0 243037 4.15575e+06 0 245067 4.15295e+06 0 247114 4.15034e+06 0 249182 4.1479e+06 0 251277 4.14564e+06 0 253402 4.14357e+06 0 255561 4.14168e+06 0 257759 4.13997e+06 0 260001 4.13845e+06 0 262291 4.13711e+06 0 264634 4.13596e+06 0 267036 4.13501e+06 0 269501 4.13425e+06 0 272036 4.13368e+06 0 274645 4.13332e+06 0 277335 4.13316e+06 0 280112 4.13321e+06 0 282982 4.13347e+06 0 285953 4.13395e+06 0 289032 4.13466e+06 0 292227 4.13559e+06 0 295545 4.13676e+06 0 298996 4.13817e+06 0 302589 4.13982e+06 0 306334 4.14174e+06 0 310242 4.14392e+06 0 314324 4.14637e+06 0 318592 4.1491e+06 0 323060 4.15212e+06 0 327742 4.15544e+06 0 332653 4.15907e+06 0 337811 4.16303e+06 0 343232 4.16732e+06 0 348937 4.17195e+06 0 354948 4.17694e+06 0 361287 4.18231e+06 0 367980 4.18806e+06 0 375054 4.19421e+06 0 382541 4.20077e+06 0 390474 4.20776e+06 0 398890 4.2152e+06 0 407828 4.2231e+06 0 417335 4.23148e+06 0 427460 4.24035e+06 0 438256 4.24972e+06 0 449786 4.25962e+06 0 462116 4.27005e+06 0 475320 4.28102e+06 0 489483 4.29254e+06 0 504695 4.30461e+06 0 521058 4.31723e+06 0 538685 4.3304e+06 0 557700 4.34408e+06 0 578245 4.35824e+06 0 215922 4.19111e+06 0 218284 4.18646e+06 0 220615 4.18201e+06 0 222921 4.17774e+06 0 225207 4.17366e+06 0 227478 4.16976e+06 0 229737 4.16604e+06 0 231991 4.1625e+06 0 234244 4.15914e+06 0 236500 4.15596e+06 0 238763 4.15295e+06 0 241040 4.15012e+06 0 243333 4.14745e+06 0 245648 4.14497e+06 0 247989 4.14266e+06 0 250361 4.14052e+06 0 252770 4.13856e+06 0 255219 4.13677e+06 0 257714 4.13517e+06 0 260260 4.13374e+06 0 262862 4.13249e+06 0 265526 4.13143e+06 0 268257 4.13055e+06 0 271062 4.12986e+06 0 273946 4.12937e+06 0 276916 4.12906e+06 0 279979 4.12896e+06 0 283142 4.12906e+06 0 286412 4.12936e+06 0 289796 4.12988e+06 0 293304 4.13061e+06 0 296945 4.13157e+06 0 300726 4.13275e+06 0 304659 4.13417e+06 0 308754 4.13582e+06 0 313021 4.13773e+06 0 317474 4.13988e+06 0 322125 4.1423e+06 0 326988 4.14499e+06 0 332077 4.14795e+06 0 337409 4.1512e+06 0 343001 4.15474e+06 0 348872 4.15859e+06 0 355041 4.16275e+06 0 361531 4.16724e+06 0 368366 4.17206e+06 0 375571 4.17723e+06 0 383174 4.18275e+06 0 391207 4.18863e+06 0 399702 4.1949e+06 0 408695 4.20155e+06 0 418228 4.2086e+06 0 428344 4.21605e+06 0 439090 4.22392e+06 0 450520 4.23221e+06 0 462691 4.24093e+06 0 475666 4.25008e+06 0 489516 4.25966e+06 0 504316 4.26966e+06 0 520149 4.28008e+06 0 537107 4.2909e+06 0 555288 4.30209e+06 0 574800 4.31363e+06 0 595761 4.32546e+06 0 209100 4.18796e+06 0 211725 4.18334e+06 0 214316 4.17891e+06 0 216877 4.17466e+06 0 219414 4.17059e+06 0 221933 4.1667e+06 0 224438 4.16298e+06 0 226935 4.15943e+06 0 229428 4.15605e+06 0 231924 4.15285e+06 0 234426 4.14981e+06 0 236939 4.14694e+06 0 239469 4.14423e+06 0 242021 4.1417e+06 0 244600 4.13933e+06 0 247210 4.13713e+06 0 249857 4.13509e+06 0 252547 4.13323e+06 0 255284 4.13154e+06 0 258074 4.13001e+06 0 260923 4.12866e+06 0 263837 4.12749e+06 0 266821 4.12649e+06 0 269883 4.12567e+06 0 273028 4.12504e+06 0 276264 4.12459e+06 0 279597 4.12432e+06 0 283036 4.12425e+06 0 286587 4.12437e+06 0 290259 4.12469e+06 0 294061 4.12522e+06 0 298002 4.12595e+06 0 302092 4.1269e+06 0 306341 4.12806e+06 0 310760 4.12944e+06 0 315360 4.13106e+06 0 320155 4.13291e+06 0 325157 4.135e+06 0 330381 4.13733e+06 0 335842 4.13992e+06 0 341556 4.14277e+06 0 347541 4.14589e+06 0 353815 4.14928e+06 0 360400 4.15296e+06 0 367317 4.15692e+06 0 374590 4.16118e+06 0 382245 4.16575e+06 0 390309 4.17062e+06 0 398812 4.17582e+06 0 407788 4.18134e+06 0 417272 4.18719e+06 0 427303 4.19337e+06 0 437922 4.1999e+06 0 449175 4.20677e+06 0 461112 4.21398e+06 0 473787 4.22152e+06 0 487258 4.22941e+06 0 501588 4.23762e+06 0 516847 4.24615e+06 0 533108 4.25497e+06 0 550450 4.26405e+06 0 568960 4.27338e+06 0 588727 4.2829e+06 0 609851 4.29255e+06 0 202316 4.18443e+06 0 205195 4.17985e+06 0 208034 4.17545e+06 0 210841 4.17123e+06 0 213619 4.16717e+06 0 216376 4.16329e+06 0 219117 4.15957e+06 0 221847 4.15602e+06 0 224572 4.15263e+06 0 227297 4.1494e+06 0 230028 4.14633e+06 0 232769 4.14343e+06 0 235526 4.14068e+06 0 238304 4.1381e+06 0 241110 4.13567e+06 0 243947 4.13341e+06 0 246822 4.1313e+06 0 249741 4.12936e+06 0 252709 4.12757e+06 0 255731 4.12595e+06 0 258815 4.1245e+06 0 261965 4.12321e+06 0 265190 4.12209e+06 0 268494 4.12114e+06 0 271886 4.12036e+06 0 275371 4.11975e+06 0 278958 4.11932e+06 0 282655 4.11907e+06 0 286470 4.119e+06 0 290410 4.11912e+06 0 294486 4.11943e+06 0 298706 4.11993e+06 0 303082 4.12063e+06 0 307622 4.12153e+06 0 312340 4.12264e+06 0 317245 4.12395e+06 0 322353 4.12548e+06 0 327675 4.12724e+06 0 333226 4.12921e+06 0 339022 4.13142e+06 0 345079 4.13386e+06 0 351415 4.13654e+06 0 358048 4.13946e+06 0 365000 4.14264e+06 0 372291 4.14607e+06 0 379945 4.14976e+06 0 387988 4.15371e+06 0 396447 4.15794e+06 0 405350 4.16243e+06 0 414729 4.1672e+06 0 424619 4.17225e+06 0 435056 4.17758e+06 0 446080 4.18318e+06 0 457733 4.18905e+06 0 470061 4.19519e+06 0 483114 4.20159e+06 0 496945 4.20825e+06 0 511610 4.21513e+06 0 527171 4.22224e+06 0 543692 4.22953e+06 0 561242 4.23698e+06 0 579892 4.24455e+06 0 599718 4.25219e+06 0 620801 4.25984e+06 0 195583 4.18054e+06 0 198704 4.17601e+06 0 201781 4.17165e+06 0 204822 4.16745e+06 0 207831 4.16342e+06 0 210816 4.15955e+06 0 213782 4.15583e+06 0 216735 4.15228e+06 0 219681 4.14888e+06 0 222625 4.14563e+06 0 225574 4.14254e+06 0 228532 4.1396e+06 0 231505 4.13682e+06 0 234499 4.13418e+06 0 237520 4.1317e+06 0 240574 4.12937e+06 0 243665 4.12719e+06 0 246801 4.12517e+06 0 249987 4.1233e+06 0 253230 4.12158e+06 0 256535 4.12001e+06 0 259909 4.11861e+06 0 263358 4.11736e+06 0 266891 4.11627e+06 0 270513 4.11534e+06 0 274233 4.11458e+06 0 278057 4.11398e+06 0 281995 4.11354e+06 0 286054 4.11328e+06 0 290243 4.11319e+06 0 294572 4.11328e+06 0 299049 4.11354e+06 0 303687 4.11399e+06 0 308495 4.11462e+06 0 313484 4.11544e+06 0 318667 4.11645e+06 0 324057 4.11766e+06 0 329667 4.11906e+06 0 335512 4.12067e+06 0 341607 4.12248e+06 0 347969 4.1245e+06 0 354614 4.12674e+06 0 361562 4.12919e+06 0 368833 4.13186e+06 0 376447 4.13475e+06 0 384428 4.13787e+06 0 392800 4.14121e+06 0 401589 4.14478e+06 0 410824 4.14858e+06 0 420533 4.15261e+06 0 430750 4.15686e+06 0 441509 4.16133e+06 0 452846 4.16602e+06 0 464800 4.17092e+06 0 477414 4.17602e+06 0 490733 4.18131e+06 0 504803 4.18678e+06 0 519676 4.1924e+06 0 535404 4.19815e+06 0 552043 4.20399e+06 0 569650 4.20991e+06 0 588287 4.21584e+06 0 608015 4.22175e+06 0 628897 4.22756e+06 0 188912 4.1763e+06 0 192263 4.17183e+06 0 195566 4.16751e+06 0 198829 4.16335e+06 0 202058 4.15934e+06 0 205260 4.15549e+06 0 208440 4.15178e+06 0 211605 4.14823e+06 0 214760 4.14482e+06 0 217913 4.14156e+06 0 221068 4.13845e+06 0 224231 4.13548e+06 0 227410 4.13266e+06 0 230609 4.12997e+06 0 233834 4.12744e+06 0 237091 4.12504e+06 0 240387 4.12279e+06 0 243728 4.12068e+06 0 247120 4.11872e+06 0 250569 4.1169e+06 0 254081 4.11523e+06 0 257665 4.1137e+06 0 261325 4.11232e+06 0 265071 4.1111e+06 0 268908 4.11002e+06 0 272845 4.10909e+06 0 276889 4.10832e+06 0 281050 4.1077e+06 0 285334 4.10724e+06 0 289752 4.10693e+06 0 294313 4.10679e+06 0 299026 4.10682e+06 0 303902 4.10701e+06 0 308952 4.10736e+06 0 314187 4.10789e+06 0 319620 4.10859e+06 0 325263 4.10947e+06 0 331130 4.11052e+06 0 337235 4.11176e+06 0 343593 4.11317e+06 0 350221 4.11477e+06 0 357136 4.11656e+06 0 364355 4.11853e+06 0 371899 4.1207e+06 0 379787 4.12305e+06 0 388042 4.12559e+06 0 396687 4.12833e+06 0 405747 4.13125e+06 0 415248 4.13436e+06 0 425219 4.13765e+06 0 435689 4.14111e+06 0 446691 4.14475e+06 0 458257 4.14856e+06 0 470424 4.15251e+06 0 483230 4.15661e+06 0 496715 4.16084e+06 0 510920 4.16517e+06 0 525890 4.16958e+06 0 541669 4.17405e+06 0 558307 4.17854e+06 0 575850 4.18302e+06 0 594349 4.18744e+06 0 613854 4.19176e+06 0 634415 4.1959e+06 0 182313 4.17174e+06 0 185881 4.16732e+06 0 189398 4.16305e+06 0 192872 4.15893e+06 0 196308 4.15496e+06 0 199714 4.15113e+06 0 203097 4.14744e+06 0 206462 4.14389e+06 0 209815 4.14048e+06 0 213164 4.13721e+06 0 216515 4.13407e+06 0 219872 4.13107e+06 0 223244 4.12821e+06 0 226635 4.12548e+06 0 230052 4.12289e+06 0 233502 4.12043e+06 0 236989 4.11811e+06 0 240522 4.11592e+06 0 244106 4.11386e+06 0 247748 4.11195e+06 0 251455 4.11016e+06 0 255233 4.10852e+06 0 259090 4.10701e+06 0 263032 4.10564e+06 0 267069 4.10441e+06 0 271206 4.10331e+06 0 275453 4.10236e+06 0 279817 4.10156e+06 0 284308 4.10089e+06 0 288935 4.10038e+06 0 293706 4.10001e+06 0 298632 4.09979e+06 0 303723 4.09971e+06 0 308991 4.09979e+06 0 314446 4.10003e+06 0 320101 4.10041e+06 0 325968 4.10096e+06 0 332061 4.10166e+06 0 338393 4.10252e+06 0 344980 4.10354e+06 0 351838 4.10472e+06 0 358982 4.10606e+06 0 366431 4.10756e+06 0 374203 4.10922e+06 0 382318 4.11103e+06 0 390797 4.11301e+06 0 399662 4.11514e+06 0 408936 4.11742e+06 0 418645 4.11985e+06 0 428813 4.12242e+06 0 439469 4.12513e+06 0 450642 4.12796e+06 0 462363 4.1309e+06 0 474664 4.13395e+06 0 487579 4.13709e+06 0 501142 4.14029e+06 0 515391 4.14354e+06 0 530364 4.14682e+06 0 546098 4.15009e+06 0 562636 4.15332e+06 0 580015 4.15647e+06 0 598278 4.1595e+06 0 617463 4.16236e+06 0 637611 4.16499e+06 0 175798 4.16686e+06 0 179570 4.16251e+06 0 183287 4.1583e+06 0 186958 4.15422e+06 0 190589 4.15029e+06 0 194187 4.14648e+06 0 197760 4.14281e+06 0 201312 4.13927e+06 0 204852 4.13586e+06 0 208386 4.13258e+06 0 211919 4.12942e+06 0 215459 4.1264e+06 0 219011 4.1235e+06 0 222582 4.12073e+06 0 226179 4.11808e+06 0 229807 4.11556e+06 0 233474 4.11316e+06 0 237185 4.11089e+06 0 240948 4.10875e+06 0 244769 4.10673e+06 0 248655 4.10484e+06 0 252613 4.10307e+06 0 256651 4.10143e+06 0 260775 4.09992e+06 0 264994 4.09853e+06 0 269315 4.09727e+06 0 273747 4.09615e+06 0 278297 4.09515e+06 0 282975 4.09428e+06 0 287790 4.09355e+06 0 292751 4.09295e+06 0 297868 4.09248e+06 0 303151 4.09215e+06 0 308612 4.09195e+06 0 314261 4.09189e+06 0 320111 4.09196e+06 0 326173 4.09217e+06 0 332462 4.09252e+06 0 338990 4.09301e+06 0 345772 4.09363e+06 0 352823 4.09439e+06 0 360160 4.09528e+06 0 367799 4.09631e+06 0 375758 4.09747e+06 0 384055 4.09877e+06 0 392711 4.10018e+06 0 401746 4.10172e+06 0 411182 4.10338e+06 0 421042 4.10515e+06 0 431350 4.10702e+06 0 442131 4.10899e+06 0 453412 4.11104e+06 0 465220 4.11316e+06 0 477584 4.11534e+06 0 490534 4.11755e+06 0 504101 4.11979e+06 0 518316 4.12203e+06 0 533212 4.12424e+06 0 548822 4.12639e+06 0 565179 4.12845e+06 0 582315 4.13038e+06 0 600264 4.13213e+06 0 619056 4.13367e+06 0 638723 4.13493e+06 0 169375 4.1617e+06 0 173336 4.15742e+06 0 177240 4.15327e+06 0 181095 4.14924e+06 0 184908 4.14534e+06 0 188686 4.14157e+06 0 192435 4.13792e+06 0 196163 4.13439e+06 0 199876 4.13098e+06 0 203582 4.12769e+06 0 207285 4.12452e+06 0 210994 4.12147e+06 0 214715 4.11854e+06 0 218453 4.11573e+06 0 222216 4.11303e+06 0 226011 4.11044e+06 0 229843 4.10798e+06 0 233720 4.10563e+06 0 237647 4.10339e+06 0 241633 4.10127e+06 0 245684 4.09927e+06 0 249808 4.09738e+06 0 254011 4.09561e+06 0 258301 4.09395e+06 0 262686 4.09242e+06 0 267173 4.09099e+06 0 271772 4.08969e+06 0 276489 4.0885e+06 0 281335 4.08743e+06 0 286318 4.08648e+06 0 291448 4.08565e+06 0 296734 4.08494e+06 0 302187 4.08434e+06 0 307816 4.08387e+06 0 313634 4.08351e+06 0 319653 4.08327e+06 0 325883 4.08315e+06 0 332338 4.08315e+06 0 339031 4.08327e+06 0 345975 4.0835e+06 0 353187 4.08384e+06 0 360680 4.0843e+06 0 368472 4.08486e+06 0 376578 4.08553e+06 0 385016 4.08631e+06 0 393805 4.08718e+06 0 402964 4.08814e+06 0 412514 4.08919e+06 0 422475 4.09032e+06 0 432870 4.09152e+06 0 443720 4.09277e+06 0 455051 4.09407e+06 0 466887 4.09541e+06 0 479253 4.09676e+06 0 492176 4.09811e+06 0 505681 4.09944e+06 0 519797 4.10072e+06 0 534550 4.10193e+06 0 549969 4.10304e+06 0 566080 4.10402e+06 0 582911 4.10482e+06 0 600486 4.10541e+06 0 618831 4.10575e+06 0 637967 4.10577e+06 0 163053 4.15627e+06 0 167190 4.15206e+06 0 171266 4.14797e+06 0 175292 4.144e+06 0 179272 4.14015e+06 0 183216 4.1364e+06 0 187129 4.13278e+06 0 191019 4.12926e+06 0 194893 4.12586e+06 0 198757 4.12257e+06 0 202619 4.11939e+06 0 206484 4.11632e+06 0 210360 4.11335e+06 0 214252 4.1105e+06 0 218169 4.10775e+06 0 222116 4.1051e+06 0 226100 4.10257e+06 0 230128 4.10014e+06 0 234207 4.09781e+06 0 238343 4.0956e+06 0 242545 4.09348e+06 0 246818 4.09148e+06 0 251171 4.08957e+06 0 255611 4.08778e+06 0 260145 4.08608e+06 0 264782 4.0845e+06 0 269530 4.08302e+06 0 274397 4.08164e+06 0 279391 4.08037e+06 0 284523 4.0792e+06 0 289801 4.07814e+06 0 295234 4.07718e+06 0 300833 4.07633e+06 0 306609 4.07557e+06 0 312571 4.07493e+06 0 318732 4.07438e+06 0 325103 4.07393e+06 0 331697 4.07358e+06 0 338525 4.07333e+06 0 345602 4.07318e+06 0 352941 4.07312e+06 0 360557 4.07314e+06 0 368465 4.07326e+06 0 376682 4.07345e+06 0 385222 4.07372e+06 0 394104 4.07406e+06 0 403345 4.07447e+06 0 412964 4.07493e+06 0 422981 4.07544e+06 0 433414 4.07599e+06 0 444286 4.07656e+06 0 455616 4.07715e+06 0 467428 4.07774e+06 0 479742 4.0783e+06 0 492582 4.07883e+06 0 505972 4.07931e+06 0 519933 4.0797e+06 0 534489 4.07998e+06 0 549664 4.08013e+06 0 565478 4.08011e+06 0 581954 4.07988e+06 0 599111 4.07941e+06 0 616967 4.07865e+06 0 635541 4.07756e+06 0 156840 4.15059e+06 0 161137 4.14646e+06 0 165372 4.14244e+06 0 169553 4.13852e+06 0 173688 4.13471e+06 0 177784 4.13101e+06 0 181848 4.12741e+06 0 185887 4.12392e+06 0 189908 4.12052e+06 0 193918 4.11723e+06 0 197923 4.11404e+06 0 201932 4.11095e+06 0 205950 4.10795e+06 0 209983 4.10506e+06 0 214040 4.10226e+06 0 218126 4.09956e+06 0 222248 4.09695e+06 0 226414 4.09445e+06 0 230629 4.09203e+06 0 234902 4.08972e+06 0 239239 4.0875e+06 0 243647 4.08537e+06 0 248134 4.08334e+06 0 252708 4.0814e+06 0 257375 4.07956e+06 0 262145 4.07781e+06 0 267024 4.07615e+06 0 272022 4.07459e+06 0 277147 4.07311e+06 0 282408 4.07173e+06 0 287813 4.07044e+06 0 293373 4.06924e+06 0 299097 4.06813e+06 0 304996 4.06711e+06 0 311079 4.06617e+06 0 317358 4.06532e+06 0 323844 4.06455e+06 0 330549 4.06387e+06 0 337485 4.06326e+06 0 344664 4.06272e+06 0 352101 4.06226e+06 0 359808 4.06187e+06 0 367800 4.06154e+06 0 376092 4.06127e+06 0 384699 4.06105e+06 0 393636 4.06088e+06 0 402921 4.06075e+06 0 412570 4.06064e+06 0 422600 4.06056e+06 0 433030 4.06049e+06 0 443879 4.06042e+06 0 455164 4.06032e+06 0 466905 4.0602e+06 0 479122 4.06003e+06 0 491834 4.05979e+06 0 505061 4.05946e+06 0 518823 4.05903e+06 0 533137 4.05845e+06 0 548024 4.05771e+06 0 563501 4.05677e+06 0 579585 4.0556e+06 0 596290 4.05416e+06 0 613632 4.05242e+06 0 631620 4.05033e+06 0 150743 4.14468e+06 0 155186 4.14063e+06 0 159564 4.13668e+06 0 163887 4.13283e+06 0 168162 4.12907e+06 0 172396 4.12541e+06 0 176596 4.12184e+06 0 180771 4.11836e+06 0 184925 4.11498e+06 0 189068 4.11169e+06 0 193205 4.10849e+06 0 197343 4.10538e+06 0 201489 4.10236e+06 0 205650 4.09943e+06 0 209833 4.09658e+06 0 214045 4.09382e+06 0 218291 4.09115e+06 0 222580 4.08857e+06 0 226919 4.08607e+06 0 231313 4.08366e+06 0 235771 4.08133e+06 0 240299 4.07909e+06 0 244905 4.07693e+06 0 249596 4.07486e+06 0 254381 4.07286e+06 0 259266 4.07095e+06 0 264260 4.06912e+06 0 269371 4.06737e+06 0 274607 4.0657e+06 0 279978 4.06411e+06 0 285491 4.06259e+06 0 291157 4.06116e+06 0 296985 4.05979e+06 0 302985 4.0585e+06 0 309166 4.05728e+06 0 315539 4.05613e+06 0 322116 4.05505e+06 0 328907 4.05403e+06 0 335924 4.05307e+06 0 343179 4.05217e+06 0 350684 4.05132e+06 0 358453 4.05052e+06 0 366498 4.04976e+06 0 374833 4.04904e+06 0 383473 4.04835e+06 0 392432 4.04769e+06 0 401725 4.04704e+06 0 411368 4.04639e+06 0 421375 4.04574e+06 0 431764 4.04508e+06 0 442551 4.04439e+06 0 453752 4.04366e+06 0 465384 4.04287e+06 0 477464 4.042e+06 0 490009 4.04104e+06 0 503035 4.03997e+06 0 516559 4.03876e+06 0 530596 4.03738e+06 0 545162 4.03582e+06 0 560270 4.03404e+06 0 575934 4.03201e+06 0 592165 4.0297e+06 0 608973 4.02706e+06 0 626366 4.02407e+06 0 144769 4.13856e+06 0 149341 4.1346e+06 0 153849 4.13072e+06 0 158299 4.12693e+06 0 162699 4.12323e+06 0 167057 4.11961e+06 0 171381 4.11608e+06 0 175676 4.11262e+06 0 179951 4.10926e+06 0 184212 4.10597e+06 0 188467 4.10276e+06 0 192721 4.09964e+06 0 196983 4.09659e+06 0 201258 4.09362e+06 0 205553 4.09073e+06 0 209877 4.08792e+06 0 214234 4.08519e+06 0 218632 4.08253e+06 0 223079 4.07995e+06 0 227580 4.07745e+06 0 232144 4.07501e+06 0 236777 4.07266e+06 0 241487 4.07037e+06 0 246280 4.06816e+06 0 251165 4.06602e+06 0 256150 4.06395e+06 0 261241 4.06195e+06 0 266448 4.06002e+06 0 271778 4.05815e+06 0 277240 4.05635e+06 0 282843 4.05462e+06 0 288595 4.05295e+06 0 294506 4.05134e+06 0 300585 4.04978e+06 0 306843 4.04829e+06 0 313288 4.04684e+06 0 319932 4.04545e+06 0 326785 4.04411e+06 0 333858 4.04281e+06 0 341162 4.04155e+06 0 348709 4.04032e+06 0 356512 4.03913e+06 0 364581 4.03796e+06 0 372931 4.0368e+06 0 381574 4.03566e+06 0 390524 4.03452e+06 0 399794 4.03338e+06 0 409398 4.03222e+06 0 419350 4.03103e+06 0 429664 4.02981e+06 0 440356 4.02853e+06 0 451439 4.0272e+06 0 462928 4.02578e+06 0 474838 4.02426e+06 0 487183 4.02263e+06 0 499976 4.02086e+06 0 513232 4.01893e+06 0 526963 4.01682e+06 0 541181 4.01451e+06 0 555898 4.01196e+06 0 571123 4.00914e+06 0 586864 4.00603e+06 0 603128 4.0026e+06 0 619919 3.99879e+06 0 138922 4.13226e+06 0 143609 4.12838e+06 0 148230 4.12458e+06 0 152793 4.12086e+06 0 157305 4.11722e+06 0 161773 4.11364e+06 0 166205 4.11014e+06 0 170608 4.10672e+06 0 174989 4.10336e+06 0 179356 4.10008e+06 0 183714 4.09687e+06 0 188071 4.09373e+06 0 192434 4.09067e+06 0 196810 4.08767e+06 0 201205 4.08474e+06 0 205626 4.08187e+06 0 210080 4.07908e+06 0 214574 4.07635e+06 0 219114 4.07369e+06 0 223709 4.07109e+06 0 228364 4.06856e+06 0 233087 4.06609e+06 0 237885 4.06368e+06 0 242765 4.06134e+06 0 247735 4.05905e+06 0 252802 4.05683e+06 0 257975 4.05466e+06 0 263260 4.05255e+06 0 268666 4.05049e+06 0 274202 4.04849e+06 0 279875 4.04654e+06 0 285695 4.04464e+06 0 291670 4.04279e+06 0 297809 4.04098e+06 0 304121 4.03921e+06 0 310617 4.03749e+06 0 317306 4.0358e+06 0 324198 4.03414e+06 0 331303 4.03251e+06 0 338633 4.0309e+06 0 346197 4.02931e+06 0 354008 4.02774e+06 0 362076 4.02617e+06 0 370414 4.0246e+06 0 379033 4.02303e+06 0 387945 4.02143e+06 0 397163 4.01982e+06 0 406699 4.01816e+06 0 416566 4.01647e+06 0 426777 4.01471e+06 0 437344 4.01289e+06 0 448280 4.01098e+06 0 459598 4.00897e+06 0 471309 4.00685e+06 0 483427 4.00459e+06 0 495962 4.00217e+06 0 508926 3.99959e+06 0 522328 3.9968e+06 0 536179 3.99379e+06 0 550487 3.99054e+06 0 565259 3.98701e+06 0 580501 3.98318e+06 0 596216 3.97901e+06 0 612408 3.97448e+06 0 133208 4.12579e+06 0 137995 4.12201e+06 0 142715 4.11829e+06 0 147375 4.11464e+06 0 151984 4.11105e+06 0 156548 4.10752e+06 0 161074 4.10406e+06 0 165571 4.10066e+06 0 170045 4.09733e+06 0 174503 4.09406e+06 0 178951 4.09084e+06 0 183398 4.08769e+06 0 187849 4.08461e+06 0 192311 4.08158e+06 0 196792 4.07861e+06 0 201297 4.0