<?xml version="1.0"?> 
<VTKFile type="StructuredGrid" version="0.1"> 
<StructuredGrid WholeExtent="0 63 0 63 0 0"> 
<Piece Extent="0 63 0 63 0 0"> 
<PointData>
<DataArray type="Float32" Name="|E|" format="ascii" NumberOfComponents="3"> 
1.3362e+06 0 0 1.36218e+06 0.011196 0 1.41943e+06 0.00581014 0 1.48463e+06 0.00265964 0 1.5473e+06 0.00123896 0 1.60243e+06 0.000459598 0 1.64786e+06 9.79826e-05 0 1.68291e+06 -0.000114109 0 1.70762e+06 -0.000228804 0 1.72246e+06 -0.000300094 0 1.72813e+06 -0.00033918 0 1.72549e+06 -0.000356995 0 1.71548e+06 -0.000356898 0 1.69904e+06 -0.000344574 0 1.67712e+06 -0.000324696 0 1.65061e+06 -0.000298202 0 1.62033e+06 -0.000267088 0 1.58704e+06 -0.000236839 0 1.55142e+06 -0.000207752 0 1.51405e+06 -0.00017935 0 1.47546e+06 -0.000153258 0 1.43608e+06 -0.000130117 0 1.3963e+06 -0.000108629 0 1.35644e+06 -9.04799e-05 0 1.31676e+06 -7.50721e-05 0 1.27748e+06 -6.18696e-05 0 1.23879e+06 -5.02169e-05 0 1.20083e+06 -3.96967e-05 0 1.16373e+06 -3.11434e-05 0 1.12758e+06 -2.50041e-05 0 1.09245e+06 -1.81198e-05 0 1.05841e+06 -1.36495e-05 0 1.02549e+06 -9.95398e-06 0 993718 -5.69224e-06 0 963126 -3.93391e-06 0 933722 -6.55651e-07 0 905510 6.85453e-07 0 878490 2.77162e-06 0 852658 3.15905e-06 0 828007 4.23193e-06 0 804524 4.91738e-06 0 782198 5.1856e-06 0 761013 6.07967e-06 0 740955 6.07967e-06 0 722007 6.31809e-06 0 704152 6.25849e-06 0 687373 6.16908e-06 0 671655 6.07967e-06 0 656979 5.75185e-06 0 643331 5.66244e-06 0 630696 5.27501e-06 0 619057 5.03659e-06 0 608403 4.64916e-06 0 598719 4.32134e-06 0 589994 3.8445e-06 0 582217 3.51667e-06 0 575377 3.05474e-06 0 569467 2.63751e-06 0 564478 2.14577e-06 0 560405 1.78814e-06 0 557240 1.37091e-06 0 554981 9.12696e-07 0 553623 4.54485e-07 0 553167 0 0 1.33618e+06 9.68575e-08 0 1.36217e+06 -1204.22 0 1.41943e+06 -1712.96 0 1.48463e+06 -1766.86 0 1.5473e+06 -1620.37 0 1.60243e+06 -1379.12 0 1.64787e+06 -1101.93 0 1.68292e+06 -816.783 0 1.70763e+06 -539.294 0 1.72246e+06 -278.242 0 1.72813e+06 -38.8783 0 1.72549e+06 175.853 0 1.71548e+06 364.647 0 1.69905e+06 527.443 0 1.67712e+06 665.104 0 1.65061e+06 779.144 0 1.62033e+06 871.487 0 1.58704e+06 944.28 0 1.55142e+06 999.733 0 1.51405e+06 1040.02 0 1.47546e+06 1067.19 0 1.43608e+06 1083.13 0 1.3963e+06 1089.56 0 1.35644e+06 1088 0 1.31676e+06 1079.78 0 1.27748e+06 1066.07 0 1.23879e+06 1047.85 0 1.20083e+06 1025.99 0 1.16373e+06 1001.21 0 1.12758e+06 974.131 0 1.09245e+06 945.268 0 1.05841e+06 915.057 0 1.02548e+06 883.859 0 993718 851.976 0 963126 819.655 0 933721 787.103 0 905509 754.484 0 878489 721.934 0 852658 689.561 0 828006 657.448 0 804524 625.664 0 782197 594.256 0 761013 563.261 0 740955 532.704 0 722006 502.599 0 704151 472.953 0 687373 443.766 0 671654 415.033 0 656979 386.742 0 643331 358.878 0 630695 331.425 0 619057 304.36 0 608402 277.661 0 598719 251.301 0 589994 225.256 0 582216 199.495 0 575377 173.99 0 569467 148.711 0 564478 123.626 0 560404 98.7044 0 557240 73.9134 0 554980 49.2208 0 553623 24.5939 0 553166 0 0 1.33611e+06 -7.30157e-07 0 1.36213e+06 -2409.05 0 1.41942e+06 -3426.24 0 1.48463e+06 -3533.87 0 1.54731e+06 -3240.8 0 1.60244e+06 -2758.26 0 1.64788e+06 -2203.86 0 1.68293e+06 -1633.56 0 1.70764e+06 -1078.58 0 1.72247e+06 -556.468 0 1.72814e+06 -77.738 0 1.7255e+06 351.725 0 1.71549e+06 729.313 0 1.69905e+06 1054.9 0 1.67713e+06 1330.23 0 1.65061e+06 1558.3 0 1.62034e+06 1742.99 0 1.58705e+06 1888.57 0 1.55142e+06 1999.48 0 1.51405e+06 2080.04 0 1.47546e+06 2134.38 0 1.43608e+06 2166.27 0 1.3963e+06 2179.13 0 1.35644e+06 2176.01 0 1.31676e+06 2159.57 0 1.27748e+06 2132.13 0 1.23879e+06 2095.7 0 1.20083e+06 2051.98 0 1.16373e+06 2002.42 0 1.12758e+06 1948.26 0 1.09245e+06 1890.54 0 1.05841e+06 1830.11 0 1.02548e+06 1767.72 0 993717 1703.95 0 963125 1639.31 0 933720 1574.21 0 905508 1508.97 0 878488 1443.87 0 852656 1379.12 0 828005 1314.9 0 804522 1251.33 0 782196 1188.51 0 761012 1126.52 0 740953 1065.41 0 722005 1005.2 0 704150 945.906 0 687372 887.532 0 671653 830.065 0 656978 773.483 0 643330 717.756 0 630694 662.849 0 619056 608.719 0 608401 555.321 0 598718 502.603 0 589993 450.511 0 582215 398.99 0 575376 347.981 0 569466 297.422 0 564477 247.252 0 560403 197.409 0 557239 147.827 0 554979 98.4415 0 553622 49.1878 0 553165 0 0 1.336e+06 1.2666e-06 0 1.36207e+06 -3615.12 0 1.41941e+06 -5140.15 0 1.48464e+06 -5301.17 0 1.54733e+06 -4861.37 0 1.60246e+06 -4137.45 0 1.6479e+06 -3305.81 0 1.68295e+06 -2450.32 0 1.70766e+06 -1617.83 0 1.72249e+06 -834.661 0 1.72816e+06 -116.56 0 1.72552e+06 527.636 0 1.7155e+06 1094.02 0 1.69906e+06 1582.4 0 1.67714e+06 1995.38 0 1.65062e+06 2337.5 0 1.62034e+06 2614.52 0 1.58705e+06 2832.89 0 1.55143e+06 2999.25 0 1.51406e+06 3120.09 0 1.47546e+06 3201.59 0 1.43609e+06 3249.42 0 1.3963e+06 3268.71 0 1.35644e+06 3264.03 0 1.31676e+06 3239.37 0 1.27748e+06 3198.21 0 1.23879e+06 3143.56 0 1.20083e+06 3077.97 0 1.16373e+06 3003.64 0 1.12758e+06 2922.4 0 1.09245e+06 2835.81 0 1.0584e+06 2745.17 0 1.02548e+06 2651.58 0 993714 2555.93 0 963122 2458.97 0 933718 2361.31 0 905506 2263.45 0 878486 2165.8 0 852654 2068.68 0 828003 1972.34 0 804520 1876.99 0 782194 1782.77 0 761010 1689.78 0 740951 1598.11 0 722003 1507.8 0 704148 1418.86 0 687370 1331.3 0 671651 1245.1 0 656976 1160.22 0 643328 1076.63 0 630692 994.273 0 619054 913.078 0 608400 832.981 0 598716 753.903 0 589991 675.766 0 582214 598.485 0 575374 521.971 0 569464 446.133 0 564475 370.878 0 560401 296.113 0 557237 221.74 0 554978 147.662 0 553620 73.7817 0 553164 0 0 1.33585e+06 0 0 1.36199e+06 -4823.03 0 1.41939e+06 -6855.02 0 1.48465e+06 -7068.91 0 1.54735e+06 -6482.15 0 1.60249e+06 -5516.72 0 1.64793e+06 -4407.77 0 1.68298e+06 -3267.07 0 1.70768e+06 -2157.05 0 1.72251e+06 -1112.81 0 1.72818e+06 -155.327 0 1.72554e+06 703.606 0 1.71552e+06 1458.78 0 1.69908e+06 2109.96 0 1.67715e+06 2660.59 0 1.65063e+06 3116.74 0 1.62035e+06 3486.1 0 1.58706e+06 3777.25 0 1.55143e+06 3999.05 0 1.51406e+06 4160.17 0 1.47546e+06 4268.83 0 1.43609e+06 4332.6 0 1.3963e+06 4358.31 0 1.35644e+06 4352.06 0 1.31676e+06 4319.17 0 1.27748e+06 4264.3 0 1.23878e+06 4191.42 0 1.20083e+06 4103.97 0 1.16373e+06 4004.86 0 1.12757e+06 3896.54 0 1.09245e+06 3781.08 0 1.0584e+06 3660.23 0 1.02548e+06 3535.44 0 993711 3407.91 0 963119 3278.62 0 933715 3148.41 0 905502 3017.94 0 878483 2887.73 0 852651 2758.24 0 828000 2629.79 0 804517 2502.65 0 782191 2377.02 0 761007 2253.04 0 740948 2130.81 0 722000 2010.39 0 704145 1891.81 0 687367 1775.06 0 671648 1660.13 0 656973 1546.96 0 643325 1435.51 0 630690 1325.7 0 619052 1217.44 0 608397 1110.64 0 598713 1005.2 0 589988 901.021 0 582211 797.979 0 575372 695.96 0 569462 594.843 0 564473 494.504 0 560399 394.817 0 557235 295.653 0 554975 196.883 0 553618 98.3755 0 553161 0 0 1.33566e+06 8.9407e-08 0 1.36189e+06 -6033.4 0 1.41937e+06 -8571.16 0 1.48465e+06 -8837.23 0 1.54737e+06 -8103.19 0 1.60252e+06 -6896.09 0 1.64796e+06 -5509.75 0 1.68301e+06 -4083.79 0 1.70771e+06 -2696.22 0 1.72254e+06 -1390.88 0 1.72821e+06 -194.02 0 1.72556e+06 879.654 0 1.71554e+06 1823.63 0 1.6991e+06 2637.59 0 1.67717e+06 3325.88 0 1.65064e+06 3896.04 0 1.62036e+06 4357.73 0 1.58707e+06 4721.66 0 1.55144e+06 4998.89 0 1.51406e+06 5200.28 0 1.47547e+06 5336.1 0 1.43609e+06 5415.8 0 1.3963e+06 5447.94 0 1.35644e+06 5440.11 0 1.31675e+06 5399 0 1.27747e+06 5330.4 0 1.23878e+06 5239.3 0 1.20082e+06 5129.98 0 1.16372e+06 5006.08 0 1.12757e+06 4870.68 0 1.09244e+06 4726.36 0 1.0584e+06 4575.3 0 1.02547e+06 4419.3 0 993707 4259.88 0 963115 4098.28 0 933711 3935.51 0 905498 3772.42 0 878479 3609.67 0 852647 3447.8 0 827996 3287.24 0 804513 3128.31 0 782187 2971.27 0 761003 2816.3 0 740945 2663.51 0 721997 2512.99 0 704142 2364.76 0 687364 2218.82 0 671645 2075.16 0 656970 1933.7 0 643322 1794.39 0 630686 1657.12 0 619048 1521.79 0 608394 1388.3 0 598710 1256.5 0 589985 1126.27 0 582208 997.472 0 575369 869.949 0 569459 743.553 0 564470 618.129 0 560396 493.52 0 557232 369.565 0 554972 246.103 0 553615 122.969 0 553158 0 0 1.33542e+06 2.68221e-07 0 1.36176e+06 -7246.84 0 1.41934e+06 -10288.9 0 1.48467e+06 -10606.3 0 1.54741e+06 -9724.58 0 1.60256e+06 -8275.58 0 1.648e+06 -6611.76 0 1.68305e+06 -4900.48 0 1.70776e+06 -3235.33 0 1.72258e+06 -1668.88 0 1.72824e+06 -232.62 0 1.72559e+06 1055.8 0 1.71557e+06 2188.57 0 1.69912e+06 3165.32 0 1.67718e+06 3991.25 0 1.65066e+06 4675.43 0 1.62037e+06 5229.44 0 1.58707e+06 5666.13 0 1.55144e+06 5998.8 0 1.51407e+06 6240.45 0 1.47547e+06 6403.41 0 1.43609e+06 6499.04 0 1.39631e+06 6537.59 0 1.35644e+06 6528.19 0 1.31675e+06 6478.84 0 1.27747e+06 6396.51 0 1.23878e+06 6287.19 0 1.20082e+06 6156 0 1.16372e+06 6007.32 0 1.12757e+06 5844.83 0 1.09244e+06 5671.64 0 1.05839e+06 5490.37 0 1.02547e+06 5303.17 0 993703 5111.87 0 963111 4917.94 0 933706 4722.62 0 905494 4526.9 0 878474 4331.6 0 852642 4137.36 0 827991 3944.68 0 804508 3753.97 0 782182 3565.52 0 760998 3379.56 0 740940 3196.21 0 721992 3015.58 0 704137 2837.71 0 687359 2662.59 0 671641 2490.18 0 656966 2320.44 0 643318 2153.26 0 630682 1988.54 0 619044 1826.15 0 608390 1665.95 0 598706 1507.8 0 589981 1351.53 0 582204 1196.96 0 575365 1043.94 0 569455 892.261 0 564466 741.754 0 560392 592.223 0 557228 443.478 0 554969 295.323 0 553611 147.563 0 553155 0 0 1.33514e+06 7.15256e-07 0 1.36162e+06 -8463.98 0 1.41931e+06 -12008.5 0 1.48468e+06 -12376.2 0 1.54744e+06 -11346.4 0 1.60261e+06 -9655.22 0 1.64805e+06 -7713.8 0 1.6831e+06 -5717.13 0 1.7078e+06 -3774.36 0 1.72262e+06 -1946.78 0 1.72828e+06 -271.108 0 1.72563e+06 1232.06 0 1.7156e+06 2553.62 0 1.69914e+06 3693.16 0 1.67721e+06 4656.72 0 1.65068e+06 5454.92 0 1.62039e+06 6101.23 0 1.58709e+06 6610.69 0 1.55145e+06 6998.77 0 1.51408e+06 7280.67 0 1.47547e+06 7470.77 0 1.43609e+06 7582.32 0 1.39631e+06 7627.28 0 1.35644e+06 7616.3 0 1.31675e+06 7558.71 0 1.27747e+06 7462.65 0 1.23878e+06 7335.09 0 1.20082e+06 7182.04 0 1.16371e+06 7008.57 0 1.12756e+06 6818.99 0 1.09243e+06 6616.93 0 1.05839e+06 6405.44 0 1.02546e+06 6187.04 0 993697 5963.85 0 963105 5737.6 0 933700 5509.72 0 905488 5281.39 0 878468 5053.53 0 852637 4826.91 0 827985 4602.13 0 804503 4379.63 0 782177 4159.77 0 760993 3942.81 0 740935 3728.91 0 721987 3518.17 0 704132 3310.65 0 687354 3106.35 0 671636 2905.21 0 656961 2707.17 0 643313 2512.13 0 630677 2319.96 0 619039 2130.5 0 608385 1943.61 0 598701 1759.1 0 589977 1576.78 0 582200 1396.46 0 575361 1217.92 0 569450 1040.97 0 564462 865.377 0 560388 690.925 0 557223 517.39 0 554964 344.543 0 553607 172.156 0 553150 0 0 1.33482e+06 -8.9407e-07 0 1.36144e+06 -9685.45 0 1.41927e+06 -13730.3 0 1.4847e+06 -14147.1 0 1.54749e+06 -12968.6 0 1.60266e+06 -11035 0 1.64811e+06 -8815.88 0 1.68316e+06 -6533.74 0 1.70786e+06 -4313.31 0 1.72268e+06 -2224.56 0 1.72833e+06 -309.467 0 1.72567e+06 1408.46 0 1.71563e+06 2918.82 0 1.69918e+06 4221.13 0 1.67723e+06 5322.32 0 1.6507e+06 6234.52 0 1.6204e+06 6973.13 0 1.5871e+06 7555.33 0 1.55146e+06 7998.82 0 1.51408e+06 8320.97 0 1.47548e+06 8538.19 0 1.43609e+06 8665.65 0 1.39631e+06 8717.01 0 1.35644e+06 8704.44 0 1.31675e+06 8638.61 0 1.27747e+06 8528.81 0 1.23877e+06 8383.02 0 1.20081e+06 8208.09 0 1.16371e+06 8009.82 0 1.12756e+06 7793.16 0 1.09243e+06 7562.23 0 1.05838e+06 7320.52 0 1.02546e+06 7070.91 0 993690 6815.83 0 963098 6557.26 0 933693 6296.83 0 905481 6035.87 0 878461 5775.46 0 852630 5516.47 0 827979 5259.57 0 804496 5005.29 0 782170 4754.02 0 760986 4506.06 0 740929 4261.6 0 721981 4020.76 0 704126 3783.6 0 687348 3550.1 0 671630 3320.23 0 656955 3093.91 0 643307 2871 0 630672 2651.37 0 619034 2434.86 0 608380 2221.26 0 598696 2010.39 0 589971 1802.03 0 582194 1595.95 0 575355 1391.91 0 569445 1189.68 0 564457 989 0 560383 789.627 0 557218 591.301 0 554959 393.762 0 553602 196.749 0 553145 0 0 1.33445e+06 1.37091e-06 0 1.36125e+06 -10911.9 0 1.41923e+06 -15454.6 0 1.48471e+06 -15919.2 0 1.54754e+06 -14591.4 0 1.60272e+06 -12415.1 0 1.64818e+06 -9918 0 1.68323e+06 -7350.3 0 1.70792e+06 -4852.15 0 1.72273e+06 -2502.21 0 1.72838e+06 -347.678 0 1.72572e+06 1585.01 0 1.71567e+06 3284.17 0 1.69921e+06 4749.25 0 1.67726e+06 5988.06 0 1.65072e+06 7014.24 0 1.62042e+06 7845.14 0 1.58711e+06 8500.08 0 1.55147e+06 8998.96 0 1.51409e+06 9361.34 0 1.47548e+06 9605.68 0 1.4361e+06 9749.03 0 1.39631e+06 9806.79 0 1.35643e+06 9792.62 0 1.31675e+06 9718.54 0 1.27746e+06 9595 0 1.23877e+06 9430.97 0 1.20081e+06 9234.15 0 1.1637e+06 9011.1 0 1.12755e+06 8767.34 0 1.09242e+06 8507.53 0 1.05837e+06 8235.6 0 1.02545e+06 7954.79 0 993683 7667.82 0 963091 7376.92 0 933686 7083.93 0 905473 6790.35 0 878454 6497.39 0 852623 6206.02 0 827971 5917.01 0 804489 5630.94 0 782163 5348.27 0 760979 5069.31 0 740922 4794.29 0 721974 4523.35 0 704119 4256.54 0 687341 3993.86 0 671623 3735.25 0 656948 3480.64 0 643301 3229.87 0 630666 2982.79 0 619028 2739.21 0 608373 2498.91 0 598690 2261.69 0 589965 2027.28 0 582188 1795.43 0 575349 1565.89 0 569439 1338.38 0 564451 1112.62 0 560377 888.328 0 557213 665.212 0 554953 442.981 0 553596 221.342 0 553139 0 0 1.33404e+06 -9.53674e-07 0 1.36103e+06 -12143.9 0 1.41918e+06 -17181.8 0 1.48473e+06 -17692.6 0 1.54759e+06 -16214.8 0 1.60279e+06 -13795.3 0 1.64825e+06 -11020.2 0 1.6833e+06 -8166.8 0 1.70799e+06 -5390.88 0 1.7228e+06 -2779.72 0 1.72844e+06 -385.723 0 1.72577e+06 1761.74 0 1.71572e+06 3649.69 0 1.69925e+06 5277.54 0 1.67729e+06 6653.97 0 1.65075e+06 7794.12 0 1.62044e+06 8717.29 0 1.58713e+06 9444.94 0 1.55148e+06 9999.21 0 1.5141e+06 10401.8 0 1.47549e+06 10673.2 0 1.4361e+06 10832.5 0 1.39631e+06 10896.6 0 1.35643e+06 10880.8 0 1.31674e+06 10798.5 0 1.27746e+06 10661.2 0 1.23876e+06 10478.9 0 1.2008e+06 10260.2 0 1.1637e+06 10012.4 0 1.12754e+06 9741.53 0 1.09241e+06 9452.85 0 1.05836e+06 9150.69 0 1.02544e+06 8838.67 0 993675 8519.81 0 963082 8196.58 0 933677 7871.04 0 905465 7544.83 0 878446 7219.32 0 852614 6895.57 0 827963 6574.44 0 804481 6256.59 0 782155 5942.51 0 760971 5632.56 0 740914 5326.98 0 721966 5025.93 0 704112 4729.47 0 687334 4437.61 0 671616 4150.27 0 656941 3867.36 0 643294 3588.73 0 630658 3314.2 0 619021 3043.55 0 608367 2776.56 0 598683 2512.98 0 589959 2252.52 0 582182 1994.92 0 575343 1739.88 0 569433 1487.09 0 564444 1236.24 0 560371 987.028 0 557206 739.122 0 554947 492.2 0 553590 245.935 0 553133 0 0 1.33358e+06 9.53674e-07 0 1.36079e+06 -13382.2 0 1.41913e+06 -18912 0 1.48475e+06 -19467.4 0 1.54765e+06 -17838.9 0 1.60287e+06 -15175.8 0 1.64834e+06 -12122.4 0 1.68338e+06 -8983.25 0 1.70807e+06 -5929.49 0 1.72287e+06 -3057.06 0 1.7285e+06 -423.582 0 1.72583e+06 1938.67 0 1.71577e+06 4015.41 0 1.69929e+06 5806.02 0 1.67733e+06 7320.04 0 1.65078e+06 8574.16 0 1.62047e+06 9589.58 0 1.58715e+06 10389.9 0 1.5515e+06 10999.6 0 1.51411e+06 11442.4 0 1.47549e+06 11740.9 0 1.4361e+06 11916 0 1.39631e+06 11986.5 0 1.35643e+06 11969.1 0 1.31674e+06 11878.5 0 1.27745e+06 11727.5 0 1.23876e+06 11526.9 0 1.20079e+06 11286.3 0 1.16369e+06 11013.7 0 1.12753e+06 10715.7 0 1.0924e+06 10398.2 0 1.05836e+06 10065.8 0 1.02543e+06 9722.56 0 993665 9371.8 0 963073 9016.25 0 933668 8658.14 0 905456 8299.31 0 878436 7941.25 0 852605 7585.12 0 827954 7231.88 0 804472 6882.24 0 782146 6536.75 0 760962 6195.8 0 740905 5859.67 0 721957 5528.51 0 704103 5202.41 0 687326 4881.35 0 671608 4565.29 0 656933 4254.09 0 643286 3947.59 0 630651 3645.61 0 619013 3347.9 0 608359 3054.21 0 598676 2764.26 0 589951 2477.77 0 582174 2194.41 0 575336 1913.86 0 569426 1635.79 0 564437 1359.86 0 560363 1085.73 0 557199 813.031 0 554940 541.418 0 553583 270.528 0 553126 0 0 1.33307e+06 -1.01328e-06 0 1.36053e+06 -14627.4 0 1.41907e+06 -20645.7 0 1.48478e+06 -21243.9 0 1.54772e+06 -19463.7 0 1.60295e+06 -16556.6 0 1.64843e+06 -13224.7 0 1.68347e+06 -9799.62 0 1.70816e+06 -6467.96 0 1.72295e+06 -3334.22 0 1.72858e+06 -461.238 0 1.72589e+06 2115.81 0 1.71583e+06 4381.34 0 1.69934e+06 6334.71 0 1.67737e+06 7986.31 0 1.65081e+06 9354.37 0 1.62049e+06 10462 0 1.58717e+06 11335.1 0 1.55151e+06 12000 0 1.51412e+06 12483 0 1.4755e+06 12808.6 0 1.43611e+06 12999.6 0 1.39631e+06 13076.5 0 1.35643e+06 13057.5 0 1.31674e+06 12958.6 0 1.27745e+06 12793.7 0 1.23875e+06 12575 0 1.20079e+06 12312.5 0 1.16368e+06 12015 0 1.12752e+06 11689.9 0 1.09239e+06 11343.5 0 1.05835e+06 10980.9 0 1.02542e+06 10606.5 0 993655 10223.8 0 963063 9835.92 0 933658 9445.25 0 905445 9053.79 0 878426 8663.17 0 852595 8274.67 0 827944 7889.31 0 804462 7507.88 0 782136 7130.98 0 760953 6759.04 0 740895 6392.35 0 721948 6031.09 0 704094 5675.34 0 687316 5325.1 0 671599 4980.3 0 656924 4640.81 0 643277 4306.45 0 630642 3977.01 0 619005 3652.24 0 608351 3331.85 0 598667 3015.55 0 589943 2703.01 0 582166 2393.89 0 575328 2087.84 0 569418 1784.49 0 564429 1483.48 0 560356 1184.43 0 557191 886.94 0 554932 590.635 0 553575 295.12 0 553118 0 0 1.33252e+06 7.15256e-07 0 1.36025e+06 -15880.3 0 1.41901e+06 -22383.1 0 1.48481e+06 -23022.1 0 1.54779e+06 -21089.3 0 1.60304e+06 -17937.6 0 1.64852e+06 -14327 0 1.68357e+06 -10615.9 0 1.70825e+06 -7006.28 0 1.72304e+06 -3611.19 0 1.72865e+06 -498.671 0 1.72596e+06 2293.18 0 1.71589e+06 4747.51 0 1.69939e+06 6863.62 0 1.67741e+06 8652.8 0 1.65085e+06 10134.8 0 1.62052e+06 11334.7 0 1.58719e+06 12280.4 0 1.55153e+06 13000.7 0 1.51413e+06 13523.8 0 1.47551e+06 13876.5 0 1.43611e+06 14083.3 0 1.39631e+06 14166.5 0 1.35643e+06 14145.8 0 1.31673e+06 14038.7 0 1.27744e+06 13860.1 0 1.23874e+06 13623 0 1.20078e+06 13338.6 0 1.16367e+06 13016.4 0 1.12751e+06 12664.2 0 1.09238e+06 12288.9 0 1.05834e+06 11896 0 1.02541e+06 11490.4 0 993644 11075.8 0 963052 10655.6 0 933646 10232.4 0 905434 9808.27 0 878415 9385.09 0 852584 8964.21 0 827933 8546.74 0 804451 8133.52 0 782126 7725.21 0 760942 7322.27 0 740885 6925.03 0 721938 6533.66 0 704084 6148.27 0 687307 5768.84 0 671589 5395.3 0 656915 5027.52 0 643268 4665.31 0 630633 4308.41 0 618995 3956.58 0 608342 3609.49 0 598659 3266.83 0 589934 2928.25 0 582158 2593.37 0 575319 2261.81 0 569409 1933.19 0 564421 1607.1 0 560347 1283.12 0 557183 960.847 0 554924 639.852 0 553567 319.712 0 553110 0 0 1.33193e+06 -1.19209e-06 0 1.35994e+06 -17141.3 0 1.41894e+06 -24124.5 0 1.48483e+06 -24802.1 0 1.54787e+06 -22715.7 0 1.60314e+06 -19319 0 1.64863e+06 -15429.4 0 1.68367e+06 -11432.1 0 1.70835e+06 -7544.44 0 1.72313e+06 -3887.94 0 1.72874e+06 -535.864 0 1.72603e+06 2470.8 0 1.71595e+06 5113.93 0 1.69945e+06 7392.78 0 1.67746e+06 9319.51 0 1.65088e+06 10915.4 0 1.62055e+06 12207.5 0 1.58721e+06 13225.8 0 1.55155e+06 14001.4 0 1.51414e+06 14564.7 0 1.47552e+06 14944.4 0 1.43611e+06 15167.1 0 1.39631e+06 15256.6 0 1.35643e+06 15234.3 0 1.31673e+06 15118.8 0 1.27744e+06 14926.4 0 1.23873e+06 14671.1 0 1.20077e+06 14364.8 0 1.16366e+06 14017.7 0 1.1275e+06 13638.4 0 1.09237e+06 13234.2 0 1.05832e+06 12811.1 0 1.0254e+06 12374.3 0 993632 11927.8 0 963040 11475.3 0 933634 11019.5 0 905422 10562.8 0 878403 10107 0 852572 9653.76 0 827921 9204.17 0 804439 8759.16 0 782114 8319.44 0 760931 7885.51 0 740874 7457.7 0 721927 7036.23 0 704073 6621.19 0 687296 6212.57 0 671578 5810.31 0 656904 5414.24 0 643257 5024.16 0 630623 4639.81 0 618985 4260.91 0 608332 3887.13 0 598649 3518.11 0 589925 3153.48 0 582148 2792.85 0 575310 2435.79 0 569400 2081.89 0 564412 1730.71 0 560338 1381.82 0 557174 1034.75 0 554915 689.069 0 553558 344.304 0 553101 0 0 1.33128e+06 1.43051e-06 0 1.35961e+06 -18411.4 0 1.41887e+06 -25870.3 0 1.48486e+06 -26584.2 0 1.54796e+06 -24343.1 0 1.60325e+06 -20700.7 0 1.64874e+06 -16531.9 0 1.68379e+06 -12248.3 0 1.70845e+06 -8082.42 0 1.72323e+06 -4164.46 0 1.72883e+06 -572.797 0 1.72611e+06 2648.7 0 1.71602e+06 5480.63 0 1.69951e+06 7922.2 0 1.67751e+06 9986.47 0 1.65093e+06 11696.2 0 1.62058e+06 13080.5 0 1.58724e+06 14171.5 0 1.55157e+06 15002.4 0 1.51416e+06 15605.8 0 1.47552e+06 16012.5 0 1.43612e+06 16250.9 0 1.39631e+06 16346.8 0 1.35642e+06 16322.8 0 1.31672e+06 16199 0 1.27743e+06 15992.9 0 1.23873e+06 15719.3 0 1.20076e+06 15391 0 1.16365e+06 15019.1 0 1.12749e+06 14612.7 0 1.09236e+06 14179.6 0 1.05831e+06 13726.3 0 1.02539e+06 13258.2 0 993620 12779.8 0 963027 12294.9 0 933621 11806.6 0 905409 11317.2 0 878390 10828.9 0 852559 10343.3 0 827908 9861.59 0 804427 9384.8 0 782102 8913.67 0 760919 8448.73 0 740862 7990.37 0 721915 7538.79 0 704061 7094.1 0 687284 6656.3 0 671567 6225.3 0 656893 5800.94 0 643246 5383 0 630612 4971.21 0 618975 4565.24 0 608321 4164.77 0 598638 3769.39 0 589914 3378.72 0 582138 2992.32 0 575299 2609.76 0 569390 2230.58 0 564402 1854.33 0 560328 1480.51 0 557164 1108.66 0 554905 738.284 0 553548 368.895 0 553091 0 0 1.33059e+06 -4.76837e-07 0 1.35926e+06 -19691.1 0 1.41879e+06 -27620.6 0 1.4849e+06 -28368.4 0 1.54805e+06 -25971.5 0 1.60336e+06 -22082.8 0 1.64886e+06 -17634.4 0 1.68391e+06 -13064.3 0 1.70857e+06 -8620.22 0 1.72333e+06 -4440.74 0 1.72892e+06 -609.453 0 1.7262e+06 2826.89 0 1.71609e+06 5847.61 0 1.69957e+06 8451.9 0 1.67756e+06 10653.7 0 1.65097e+06 12477.3 0 1.62062e+06 13953.7 0 1.58727e+06 15117.3 0 1.55159e+06 16003.4 0 1.51417e+06 16646.9 0 1.47553e+06 17080.7 0 1.43612e+06 17334.9 0 1.39631e+06 17437.1 0 1.35642e+06 17411.4 0 1.31672e+06 17279.3 0 1.27742e+06 17059.3 0 1.23872e+06 16767.4 0 1.20075e+06 16417.3 0 1.16364e+06 16020.5 0 1.12748e+06 15587 0 1.09235e+06 15125 0 1.0583e+06 14641.4 0 1.02537e+06 14142.1 0 993606 13631.8 0 963013 13114.6 0 933608 12593.7 0 905396 12071.7 0 878376 11550.9 0 852545 11032.8 0 827895 10519 0 804413 10010.4 0 782089 9507.88 0 760906 9011.95 0 740849 8523.03 0 721902 8041.35 0 704049 7567.02 0 687272 7100.03 0 671555 6640.3 0 656881 6187.65 0 643235 5741.84 0 630600 5302.6 0 618963 4869.57 0 608310 4442.4 0 598627 4020.66 0 589903 3603.95 0 582127 3191.79 0 575289 2783.73 0 569379 2379.28 0 564391 1977.94 0 560318 1579.2 0 557153 1182.56 0 554894 787.499 0 553537 393.486 0 553081 0 0 1.32985e+06 -1.19209e-07 0 1.35889e+06 -20981.2 0 1.41871e+06 -29375.8 0 1.48493e+06 -30155 0 1.54815e+06 -27600.9 0 1.60348e+06 -23465.3 0 1.64899e+06 -18737.1 0 1.68403e+06 -13880.2 0 1.70869e+06 -9157.81 0 1.72345e+06 -4716.75 0 1.72903e+06 -645.812 0 1.72629e+06 3005.39 0 1.71617e+06 6214.91 0 1.69964e+06 8981.91 0 1.67762e+06 11321.2 0 1.65102e+06 13258.7 0 1.62066e+06 14827.2 0 1.5873e+06 16063.3 0 1.55161e+06 17004.7 0 1.51418e+06 17688.3 0 1.47554e+06 18149 0 1.43613e+06 18419 0 1.39631e+06 18527.4 0 1.35642e+06 18500.1 0 1.31671e+06 18359.7 0 1.27742e+06 18125.9 0 1.23871e+06 17815.6 0 1.20074e+06 17443.6 0 1.16363e+06 17022 0 1.12747e+06 16561.3 0 1.09234e+06 16070.4 0 1.05829e+06 15556.6 0 1.02536e+06 15026 0 993592 14483.8 0 962998 13934.3 0 933593 13380.8 0 905381 12826.2 0 878362 12272.8 0 852531 11722.4 0 827880 11176.4 0 804399 10636.1 0 782075 10102.1 0 760892 9575.17 0 740835 9055.69 0 721889 8543.9 0 704036 8039.92 0 687259 7543.75 0 671542 7055.29 0 656869 6574.35 0 643222 6100.68 0 630588 5633.98 0 618951 5173.89 0 608298 4720.02 0 598616 4271.93 0 589892 3829.17 0 582116 3391.26 0 575277 2957.7 0 569368 2527.97 0 564380 2101.55 0 560306 1677.9 0 557142 1256.47 0 554883 836.713 0 553526 418.077 0 553070 0 0 1.32906e+06 2.38419e-07 0 1.3585e+06 -22282.5 0 1.41863e+06 -31136.1 0 1.48497e+06 -31944 0 1.54825e+06 -29231.4 0 1.60361e+06 -24848.2 0 1.64913e+06 -19839.8 0 1.68417e+06 -14696.1 0 1.70882e+06 -9695.19 0 1.72357e+06 -4992.49 0 1.72913e+06 -681.857 0 1.72639e+06 3184.22 0 1.71626e+06 6582.54 0 1.69971e+06 9512.23 0 1.67768e+06 11989 0 1.65106e+06 14040.3 0 1.6207e+06 15700.9 0 1.58733e+06 17009.6 0 1.55163e+06 18006.2 0 1.5142e+06 18729.8 0 1.47555e+06 19217.5 0 1.43613e+06 19503.2 0 1.39631e+06 19617.9 0 1.35642e+06 19588.9 0 1.31671e+06 19440.1 0 1.27741e+06 19192.4 0 1.2387e+06 18863.9 0 1.20073e+06 18469.9 0 1.16362e+06 18023.4 0 1.12746e+06 17535.6 0 1.09232e+06 17015.8 0 1.05827e+06 16471.7 0 1.02535e+06 15910 0 993576 15335.9 0 962983 14754 0 933577 14167.9 0 905365 13580.7 0 878346 12994.7 0 852515 12411.9 0 827865 11833.8 0 804384 11261.7 0 782060 10696.3 0 760877 10138.4 0 740821 9588.34 0 721875 9046.45 0 704022 8512.82 0 687245 7987.46 0 671528 7470.27 0 656855 6961.04 0 643209 6459.51 0 630575 5965.36 0 618938 5478.21 0 608285 4997.64 0 598603 4523.2 0 589879 4054.4 0 582103 3590.73 0 575265 3131.66 0 569356 2676.66 0 564368 2225.16 0 560295 1776.58 0 557130 1330.37 0 554872 885.926 0 553515 442.667 0 553058 0 0 1.32822e+06 -2.38419e-07 0 1.35808e+06 -23595.6 0 1.41854e+06 -32901.8 0 1.48501e+06 -33735.7 0 1.54836e+06 -30863.1 0 1.60375e+06 -26231.6 0 1.64927e+06 -20942.6 0 1.68431e+06 -15511.8 0 1.70896e+06 -10232.3 0 1.7237e+06 -5267.93 0 1.72925e+06 -717.567 0 1.72649e+06 3363.41 0 1.71635e+06 6950.52 0 1.69978e+06 10042.9 0 1.67774e+06 12657.1 0 1.65112e+06 14822.2 0 1.62074e+06 16574.9 0 1.58736e+06 17956.1 0 1.55165e+06 19007.9 0 1.51422e+06 19771.5 0 1.47556e+06 20286.1 0 1.43614e+06 20587.6 0 1.39631e+06 20708.5 0 1.35641e+06 20677.7 0 1.3167e+06 20520.6 0 1.2774e+06 20259.1 0 1.23869e+06 19912.2 0 1.20072e+06 19496.2 0 1.1636e+06 19024.9 0 1.12744e+06 18510 0 1.09231e+06 17961.2 0 1.05826e+06 17386.9 0 1.02533e+06 16793.9 0 993560 16187.9 0 962966 15573.6 0 933561 14955 0 905349 14335.1 0 878330 13716.6 0 852499 13101.4 0 827849 12491.2 0 804368 11887.3 0 782044 11290.5 0 760862 10701.6 0 740806 10121 0 721860 9548.99 0 704007 8985.72 0 687231 8431.17 0 671514 7885.24 0 656841 7347.73 0 643195 6818.34 0 630561 6296.74 0 618925 5782.53 0 608272 5275.26 0 598590 4774.46 0 589866 4279.62 0 582090 3790.19 0 575252 3305.63 0 569343 2825.35 0 564355 2348.76 0 560282 1875.27 0 557118 1404.27 0 554859 935.139 0 553502 467.257 0 553045 0 0 1.32733e+06 -2.38419e-07 0 1.35765e+06 -24921.4 0 1.41845e+06 -34673.2 0 1.48506e+06 -35530.1 0 1.54848e+06 -32496.1 0 1.60389e+06 -27615.4 0 1.64943e+06 -22045.5 0 1.68446e+06 -16327.4 0 1.7091e+06 -10769.3 0 1.72383e+06 -5543.05 0 1.72937e+06 -752.926 0 1.7266e+06 3542.96 0 1.71644e+06 7318.87 0 1.69986e+06 10573.9 0 1.67781e+06 13325.6 0 1.65117e+06 15604.5 0 1.62078e+06 17449.2 0 1.58739e+06 18902.8 0 1.55168e+06 20009.7 0 1.51424e+06 20813.4 0 1.47558e+06 21354.9 0 1.43614e+06 21672.1 0 1.39632e+06 21799.2 0 1.35641e+06 21766.7 0 1.3167e+06 21601.1 0 1.27739e+06 21325.8 0 1.23868e+06 20960.6 0 1.2007e+06 20522.6 0 1.16359e+06 20026.5 0 1.12743e+06 19484.4 0 1.09229e+06 18906.7 0 1.05824e+06 18302.1 0 1.02531e+06 17677.9 0 993543 17039.9 0 962949 16393.3 0 933544 15742.1 0 905331 15089.6 0 878312 14438.5 0 852482 13790.9 0 827832 13148.6 0 804351 12512.9 0 782027 11884.7 0 760845 11264.8 0 740789 10653.6 0 721844 10051.5 0 703991 9458.6 0 687215 8874.88 0 671499 8300.21 0 656826 7734.41 0 643180 7177.16 0 630547 6628.11 0 618911 6086.83 0 608258 5552.87 0 598576 5025.72 0 589852 4504.83 0 582077 3989.65 0 575239 3479.58 0 569330 2974.03 0 564342 2472.36 0 560269 1973.96 0 557105 1478.17 0 554846 984.35 0 553489 491.846 0 553032 0 0 1.32638e+06 -4.76837e-07 0 1.35719e+06 -26260.7 0 1.41835e+06 -36450.5 0 1.4851e+06 -37327.4 0 1.5486e+06 -34130.3 0 1.60404e+06 -28999.7 0 1.64959e+06 -23148.5 0 1.68462e+06 -17142.8 0 1.70925e+06 -11305.9 0 1.72397e+06 -5817.85 0 1.7295e+06 -787.913 0 1.72671e+06 3722.9 0 1.71654e+06 7687.61 0 1.69995e+06 11105.3 0 1.67788e+06 13994.4 0 1.65123e+06 16387 0 1.62083e+06 18323.7 0 1.58743e+06 19849.8 0 1.55171e+06 21011.8 0 1.51425e+06 21855.4 0 1.47559e+06 22423.8 0 1.43615e+06 22756.7 0 1.39632e+06 22890 0 1.35641e+06 22855.7 0 1.31669e+06 22681.8 0 1.27738e+06 22392.5 0 1.23867e+06 22009 0 1.20069e+06 21549.1 0 1.16357e+06 21028 0 1.12741e+06 20458.8 0 1.09227e+06 19852.2 0 1.05822e+06 19217.3 0 1.0253e+06 18561.8 0 993525 17892 0 962931 17213 0 933525 16529.2 0 905313 15844.1 0 878294 15160.4 0 852464 14480.5 0 827814 13806 0 804334 13138.5 0 782010 12478.9 0 760828 11828 0 740772 11186.3 0 721827 10554 0 703975 9931.49 0 687199 9318.57 0 671483 8715.18 0 656810 8121.08 0 643165 7535.97 0 630531 6959.47 0 618895 6391.14 0 608243 5830.48 0 598561 5276.97 0 589838 4730.04 0 582062 4189.1 0 575225 3653.54 0 569316 3122.71 0 564328 2595.96 0 560255 2072.64 0 557091 1552.07 0 554832 1033.56 0 553475 516.435 0 553019 0 0 1.32539e+06 1.07288e-06 0 1.35672e+06 -27614.2 0 1.41825e+06 -38234 0 1.48515e+06 -39127.7 0 1.54873e+06 -35765.8 0 1.6042e+06 -30384.6 0 1.64976e+06 -24251.6 0 1.68479e+06 -17958.2 0 1.70941e+06 -11842.3 0 1.72412e+06 -6092.31 0 1.72963e+06 -822.511 0 1.72683e+06 3903.26 0 1.71664e+06 8056.77 0 1.70004e+06 11637.1 0 1.67795e+06 14663.6 0 1.65129e+06 17169.9 0 1.62087e+06 19198.6 0 1.58746e+06 20797.1 0 1.55173e+06 22014.2 0 1.51427e+06 22897.7 0 1.4756e+06 23492.9 0 1.43616e+06 23841.4 0 1.39632e+06 23980.9 0 1.35641e+06 23944.8 0 1.31668e+06 23762.5 0 1.27737e+06 23459.4 0 1.23866e+06 23057.5 0 1.20068e+06 22575.6 0 1.16356e+06 22029.7 0 1.12739e+06 21433.2 0 1.09226e+06 20797.7 0 1.0582e+06 20132.5 0 1.02528e+06 19445.8 0 993506 18744 0 962912 18032.7 0 933506 17316.3 0 905294 16598.6 0 878275 15882.3 0 852445 15170 0 827795 14463.4 0 804315 13764.1 0 781991 13073.1 0 760810 12391.2 0 740755 11718.9 0 721809 11056.6 0 703957 10404.4 0 687182 9762.26 0 671466 9130.13 0 656794 8507.75 0 643149 7894.78 0 630515 7290.83 0 618880 6695.43 0 608227 6108.08 0 598546 5528.22 0 589823 4955.25 0 582047 4388.56 0 575210 3827.49 0 569301 3271.39 0 564313 2719.56 0 560240 2171.32 0 557076 1625.96 0 554818 1082.77 0 553461 541.023 0 553004 0 0 1.32433e+06 -1.19209e-07 0 1.35622e+06 -28982.9 0 1.41815e+06 -40023.9 0 1.4852e+06 -40931.2 0 1.54886e+06 -37402.8 0 1.60436e+06 -31769.9 0 1.64993e+06 -25354.8 0 1.68497e+06 -18773.3 0 1.70958e+06 -12378.5 0 1.72427e+06 -6366.4 0 1.72977e+06 -856.701 0 1.72695e+06 4084.04 0 1.71675e+06 8426.34 0 1.70013e+06 12169.3 0 1.67803e+06 15333.2 0 1.65135e+06 17953.2 0 1.62093e+06 20073.8 0 1.5875e+06 21744.7 0 1.55176e+06 23016.8 0 1.51429e+06 23940.2 0 1.47561e+06 24562.2 0 1.43616e+06 24926.4 0 1.39632e+06 25072 0 1.3564e+06 25034.1 0 1.31668e+06 24843.3 0 1.27736e+06 24526.3 0 1.23864e+06 24106 0 1.20066e+06 23602.1 0 1.16354e+06 23031.3 0 1.12738e+06 22407.7 0 1.09224e+06 21743.2 0 1.05818e+06 21047.8 0 1.02526e+06 20329.8 0 993486 19596.1 0 962892 18852.4 0 933486 18103.5 0 