<?xml version="1.0"?> 
<VTKFile type="StructuredGrid" version="0.1"> 
<StructuredGrid WholeExtent="0 63 0 63 0 0"> 
<Piece Extent="0 63 0 63 0 0"> 
<PointData>
<DataArray type="Float32" Name="|E|" format="ascii" NumberOfComponents="3"> 
372508 5.47076e+06 0 460310 5.567e+06 0 549373 5.64238e+06 0 639650 5.70426e+06 0 731057 5.75628e+06 0 823493 5.80048e+06 0 916848 5.8381e+06 0 1.01101e+06 5.86993e+06 0 1.10586e+06 5.8965e+06 0 1.20129e+06 5.91822e+06 0 1.29719e+06 5.93539e+06 0 1.39345e+06 5.94825e+06 0 1.48997e+06 5.957e+06 0 1.58664e+06 5.96178e+06 0 1.68335e+06 5.96275e+06 0 1.78002e+06 5.96003e+06 0 1.87653e+06 5.95372e+06 0 1.9728e+06 5.94393e+06 0 2.06874e+06 5.93074e+06 0 2.16424e+06 5.91425e+06 0 2.25921e+06 5.89454e+06 0 2.35358e+06 5.87169e+06 0 2.44725e+06 5.84577e+06 0 2.54015e+06 5.81686e+06 0 2.63218e+06 5.78505e+06 0 2.72327e+06 5.75039e+06 0 2.81335e+06 5.71297e+06 0 2.90233e+06 5.67286e+06 0 2.99015e+06 5.63014e+06 0 3.07674e+06 5.58488e+06 0 3.16204e+06 5.53716e+06 0 3.24597e+06 5.48705e+06 0 3.32848e+06 5.43463e+06 0 3.40951e+06 5.37999e+06 0 3.48901e+06 5.32319e+06 0 3.56693e+06 5.26431e+06 0 3.64321e+06 5.20345e+06 0 3.71781e+06 5.14067e+06 0 3.79069e+06 5.07605e+06 0 3.86181e+06 5.00968e+06 0 3.93114e+06 4.94164e+06 0 3.99864e+06 4.87201e+06 0 4.06428e+06 4.80087e+06 0 4.12803e+06 4.7283e+06 0 4.18987e+06 4.65438e+06 0 4.24979e+06 4.57918e+06 0 4.30776e+06 4.5028e+06 0 4.36376e+06 4.42531e+06 0 4.41779e+06 4.34678e+06 0 4.46984e+06 4.26729e+06 0 4.51989e+06 4.18693e+06 0 4.56795e+06 4.10576e+06 0 4.61402e+06 4.02386e+06 0 4.65809e+06 3.94131e+06 0 4.70016e+06 3.85817e+06 0 4.74025e+06 3.77451e+06 0 4.77836e+06 3.69041e+06 0 4.81451e+06 3.60593e+06 0 4.84869e+06 3.52114e+06 0 4.88093e+06 3.4361e+06 0 4.91124e+06 3.35088e+06 0 4.93965e+06 3.26553e+06 0 4.96616e+06 3.18012e+06 0 4.9908e+06 3.09471e+06 0 628003 5.2901e+06 0 682794 5.34576e+06 0 748599 5.39919e+06 0 822004 5.44719e+06 0 900877 5.48894e+06 0 983725 5.52435e+06 0 1.06951e+06 5.55363e+06 0 1.15749e+06 5.57707e+06 0 1.24707e+06 5.59494e+06 0 1.3378e+06 5.60749e+06 0 1.4293e+06 5.61497e+06 0 1.52124e+06 5.61758e+06 0 1.61335e+06 5.61553e+06 0 1.70538e+06 5.60901e+06 0 1.7971e+06 5.59817e+06 0 1.8883e+06 5.5832e+06 0 1.9788e+06 5.56426e+06 0 2.06842e+06 5.54149e+06 0 2.15702e+06 5.51507e+06 0 2.24443e+06 5.48513e+06 0 2.33053e+06 5.45183e+06 0 2.41519e+06 5.41533e+06 0 2.4983e+06 5.37576e+06 0 2.57976e+06 5.33329e+06 0 2.65947e+06 5.28805e+06 0 2.73735e+06 5.2402e+06 0 2.81333e+06 5.18988e+06 0 2.88733e+06 5.13724e+06 0 2.9593e+06 5.08241e+06 0 3.0292e+06 5.02555e+06 0 3.09698e+06 4.96679e+06 0 3.1626e+06 4.90627e+06 0 3.22604e+06 4.84413e+06 0 3.28729e+06 4.78049e+06 0 3.34632e+06 4.71548e+06 0 3.40313e+06 4.64924e+06 0 3.45772e+06 4.58189e+06 0 3.5101e+06 4.51354e+06 0 3.56027e+06 4.44432e+06 0 3.60826e+06 4.37433e+06 0 3.65407e+06 4.30368e+06 0 3.69774e+06 4.23247e+06 0 3.73929e+06 4.16081e+06 0 3.77876e+06 4.08879e+06 0 3.81617e+06 4.01651e+06 0 3.85157e+06 3.94404e+06 0 3.88499e+06 3.87147e+06 0 3.91648e+06 3.79888e+06 0 3.94607e+06 3.72635e+06 0 3.97383e+06 3.65394e+06 0 3.99978e+06 3.58172e+06 0 4.02399e+06 3.50975e+06 0 4.04649e+06 3.4381e+06 0 4.06734e+06 3.3668e+06 0 4.0866e+06 3.29591e+06 0 4.1043e+06 3.22548e+06 0 4.12049e+06 3.15556e+06 0 4.13524e+06 3.08617e+06 0 4.14859e+06 3.01736e+06 0 4.16058e+06 2.94915e+06 0 4.17127e+06 2.88158e+06 0 4.1807e+06 2.81468e+06 0 4.18892e+06 2.74846e+06 0 4.19597e+06 2.68294e+06 0 757503 5.14091e+06 0 814711 5.18165e+06 0 877717 5.21925e+06 0 946358 5.25315e+06 0 1.01987e+06 5.28257e+06 0 1.09739e+06 5.30699e+06 0 1.17808e+06 5.32614e+06 0 1.26119e+06 5.33991e+06 0 1.34607e+06 5.34832e+06 0 1.43217e+06 5.35146e+06 0 1.51899e+06 5.34946e+06 0 1.60611e+06 5.34246e+06 0 1.69314e+06 5.33065e+06 0 1.77975e+06 5.3142e+06 0 1.86564e+06 5.29331e+06 0 1.95055e+06 5.26817e+06 0 2.03423e+06 5.23899e+06 0 2.11647e+06 5.20597e+06 0 2.19708e+06 5.16932e+06 0 2.2759e+06 5.12924e+06 0 2.35277e+06 5.08594e+06 0 2.42756e+06 5.03964e+06 0 2.50016e+06 4.99053e+06 0 2.57048e+06 4.93883e+06 0 2.63844e+06 4.88474e+06 0 2.70397e+06 4.82845e+06 0 2.76703e+06 4.77017e+06 0 2.82757e+06 4.71008e+06 0 2.88558e+06 4.64837e+06 0 2.94104e+06 4.58522e+06 0 2.99395e+06 4.5208e+06 0 3.04432e+06 4.45529e+06 0 3.09216e+06 4.38884e+06 0 3.13751e+06 4.32161e+06 0 3.1804e+06 4.25375e+06 0 3.22086e+06 4.1854e+06 0 3.25895e+06 4.11668e+06 0 3.29471e+06 4.04773e+06 0 3.32821e+06 3.97867e+06 0 3.35949e+06 3.9096e+06 0 3.38863e+06 3.84062e+06 0 3.4157e+06 3.77184e+06 0 3.44076e+06 3.70334e+06 0 3.46387e+06 3.6352e+06 0 3.48513e+06 3.5675e+06 0 3.50458e+06 3.50031e+06 0 3.52232e+06 3.43369e+06 0 3.53841e+06 3.36769e+06 0 3.55292e+06 3.30238e+06 0 3.56593e+06 3.23778e+06 0 3.5775e+06 3.17395e+06 0 3.58772e+06 3.11091e+06 0 3.59664e+06 3.0487e+06 0 3.60433e+06 2.98734e+06 0 3.61087e+06 2.92687e+06 0 3.6163e+06 2.86728e+06 0 3.62071e+06 2.8086e+06 0 3.62414e+06 2.75085e+06 0 3.62665e+06 2.69402e+06 0 3.6283e+06 2.63813e+06 0 3.62915e+06 2.58317e+06 0 3.62925e+06 2.52915e+06 0 3.62865e+06 2.47607e+06 0 3.62739e+06 2.42392e+06 0 842836 5.00761e+06 0 899857 5.03771e+06 0 962084 5.06523e+06 0 1.02897e+06 5.08918e+06 0 1.09995e+06 5.10895e+06 0 1.17439e+06 5.12408e+06 0 1.25164e+06 5.13426e+06 0 1.33102e+06 5.1393e+06 0 1.41194e+06 5.13915e+06 0 1.49382e+06 5.13382e+06 0 1.57615e+06 5.12339e+06 0 1.65846e+06 5.108e+06 0 1.74033e+06 5.0878e+06 0 1.8214e+06 5.06299e+06 0 1.90132e+06 5.03379e+06 0 1.9798e+06 5.00042e+06 0 2.05658e+06 4.96312e+06 0 2.13143e+06 4.92213e+06 0 2.20416e+06 4.87771e+06 0 2.27461e+06 4.8301e+06 0 2.34262e+06 4.77957e+06 0 2.40808e+06 4.72637e+06 0 2.4709e+06 4.67073e+06 0 2.53102e+06 4.61292e+06 0 2.58837e+06 4.55316e+06 0 2.64293e+06 4.49169e+06 0 2.69468e+06 4.42873e+06 0 2.74363e+06 4.36451e+06 0 2.78979e+06 4.29922e+06 0 2.83319e+06 4.23306e+06 0 2.87387e+06 4.16622e+06 0 2.91188e+06 4.09887e+06 0 2.94727e+06 4.03119e+06 0 2.98012e+06 3.96332e+06 0 3.01049e+06 3.89541e+06 0 3.03847e+06 3.82759e+06 0 3.06413e+06 3.75999e+06 0 3.08758e+06 3.69271e+06 0 3.10888e+06 3.62587e+06 0 3.12814e+06 3.55956e+06 0 3.14544e+06 3.49386e+06 0 3.16088e+06 3.42884e+06 0 3.17456e+06 3.36457e+06 0 3.18655e+06 3.30112e+06 0 3.19696e+06 3.23853e+06 0 3.20587e+06 3.17685e+06 0 3.21337e+06 3.11612e+06 0 3.21954e+06 3.05636e+06 0 3.22447e+06 2.99761e+06 0 3.22824e+06 2.93989e+06 0 3.23092e+06 2.88321e+06 0 3.2326e+06 2.82758e+06 0 3.23333e+06 2.77301e+06 0 3.2332e+06 2.71951e+06 0 3.23227e+06 2.66707e+06 0 3.23059e+06 2.61569e+06 0 3.22824e+06 2.56537e+06 0 3.22526e+06 2.5161e+06 0 3.22171e+06 2.46787e+06 0 3.21764e+06 2.42066e+06 0 3.21311e+06 2.37447e+06 0 3.20814e+06 2.32927e+06 0 3.20279e+06 2.28506e+06 0 3.1971e+06 2.2418e+06 0 899855 4.88896e+06 0 957249 4.91125e+06 0 1.01888e+06 4.9306e+06 0 1.08446e+06 4.94646e+06 0 1.15354e+06 4.95824e+06 0 1.22557e+06 4.96552e+06 0 1.29996e+06 4.968e+06 0 1.37611e+06 4.96547e+06 0 1.45343e+06 4.95787e+06 0 1.53136e+06 4.94519e+06 0 1.60938e+06 4.9275e+06 0 1.68702e+06 4.90494e+06 0 1.76384e+06 4.87769e+06 0 1.83946e+06 4.84594e+06 0 1.91353e+06 4.80995e+06 0 1.98575e+06 4.76997e+06 0 2.05587e+06 4.72628e+06 0 2.12365e+06 4.67914e+06 0 2.18893e+06 4.62886e+06 0 2.25154e+06 4.57571e+06 0 2.31136e+06 4.51999e+06 0 2.3683e+06 4.46198e+06 0 2.42231e+06 4.40196e+06 0 2.47333e+06 4.34019e+06 0 2.52136e+06 4.27693e+06 0 2.5664e+06 4.21244e+06 0 2.60847e+06 4.14695e+06 0 2.64762e+06 4.08068e+06 0 2.68389e+06 4.01385e+06 0 2.71734e+06 3.94665e+06 0 2.74807e+06 3.87926e+06 0 2.77614e+06 3.81187e+06 0 2.80166e+06 3.74461e+06 0 2.82472e+06 3.67764e+06 0 2.84542e+06 3.61109e+06 0 2.86387e+06 3.54506e+06 0 2.88018e+06 3.47968e+06 0 2.89445e+06 3.41502e+06 0 2.9068e+06 3.35118e+06 0 2.91733e+06 3.28822e+06 0 2.92615e+06 3.2262e+06 0 2.93336e+06 3.16519e+06 0 2.93908e+06 3.10522e+06 0 2.9434e+06 3.04634e+06 0 2.94641e+06 2.98856e+06 0 2.94821e+06 2.93192e+06 0 2.9489e+06 2.87642e+06 0 2.94856e+06 2.82209e+06 0 2.94727e+06 2.76892e+06 0 2.94511e+06 2.71692e+06 0 2.94216e+06 2.66609e+06 0 2.93849e+06 2.61642e+06 0 2.93417e+06 2.5679e+06 0 2.92926e+06 2.52052e+06 0 2.92382e+06 2.47427e+06 0 2.91791e+06 2.42913e+06 0 2.91158e+06 2.38508e+06 0 2.90489e+06 2.3421e+06 0 2.89788e+06 2.30018e+06 0 2.89059e+06 2.25928e+06 0 2.88306e+06 2.2194e+06 0 2.87534e+06 2.1805e+06 0 2.86746e+06 2.14257e+06 0 2.85945e+06 2.10557e+06 0 938549 4.78194e+06 0 995721 4.79779e+06 0 1.05666e+06 4.8106e+06 0 1.12103e+06 4.81979e+06 0 1.18838e+06 4.82489e+06 0 1.25822e+06 4.82552e+06 0 1.32999e+06 4.82141e+06 0 1.40312e+06 4.81239e+06 0 1.47704e+06 4.79838e+06 0 1.5512e+06 4.77939e+06 0 1.62508e+06 4.75552e+06 0 1.69821e+06 4.72691e+06 0 1.77016e+06 4.69376e+06 0 1.84054e+06 4.6563e+06 0 1.90902e+06 4.61479e+06 0 1.9753e+06 4.56954e+06 0 2.03913e+06 4.52083e+06 0 2.10032e+06 4.46898e+06 0 2.15869e+06 4.4143e+06 0 2.21413e+06 4.35711e+06 0 2.26653e+06 4.29772e+06 0 2.31583e+06 4.23643e+06 0 2.36201e+06 4.17353e+06 0 2.40507e+06 4.10931e+06 0 2.44501e+06 4.04403e+06 0 2.48188e+06 3.97795e+06 0 2.51574e+06 3.91131e+06 0 2.54666e+06 3.84432e+06 0 2.57473e+06 3.77719e+06 0 2.60003e+06 3.71012e+06 0 2.62269e+06 3.64326e+06 0 2.6428e+06 3.57679e+06 0 2.66049e+06 3.51083e+06 0 2.67587e+06 3.44552e+06 0 2.68908e+06 3.38095e+06 0 2.70023e+06 3.31724e+06 0 2.70944e+06 3.25447e+06 0 2.71684e+06 3.1927e+06 0 2.72255e+06 3.132e+06 0 2.72669e+06 3.07242e+06 0 2.72936e+06 3.01399e+06 0 2.73068e+06 2.95676e+06 0 2.73076e+06 2.90075e+06 0 2.72969e+06 2.84596e+06 0 2.72757e+06 2.79243e+06 0 2.72451e+06 2.74013e+06 0 2.72058e+06 2.68909e+06 0 2.71587e+06 2.63929e+06 0 2.71045e+06 2.59073e+06 0 2.70441e+06 2.54338e+06 0 2.69781e+06 2.49725e+06 0 2.69072e+06 2.4523e+06 0 2.68319e+06 2.40852e+06 0 2.67529e+06 2.36589e+06 0 2.66707e+06 2.32438e+06 0 2.65858e+06 2.28398e+06 0 2.64986e+06 2.24464e+06 0 2.64096e+06 2.20635e+06 0 2.63191e+06 2.16908e+06 0 2.62275e+06 2.13281e+06 0 2.61352e+06 2.0975e+06 0 2.60424e+06 2.06312e+06 0 2.59494e+06 2.02966e+06 0 2.58565e+06 1.99707e+06 0 964022 4.68512e+06 0 1.02078e+06 4.69552e+06 0 1.08087e+06 4.70272e+06 0 1.14394e+06 4.70621e+06 0 1.20958e+06 4.70559e+06 0 1.2773e+06 4.7005e+06 0 1.34655e+06 4.69072e+06 0 1.41677e+06 4.67609e+06 0 1.48742e+06 4.65657e+06 0 1.55795e+06 4.63219e+06 0 1.62786e+06 4.60306e+06 0 1.69668e+06 4.56934e+06 0 1.76398e+06 4.53128e+06 0 1.82939e+06 4.48911e+06 0 1.8926e+06 4.44314e+06 0 1.95331e+06 4.39367e+06 0 2.01131e+06 4.34104e+06 0 2.06642e+06 4.28558e+06 0 2.11849e+06 4.22763e+06 0 2.16743e+06 4.16752e+06 0 2.21317e+06 4.10556e+06 0 2.25569e+06 4.04209e+06 0 2.29499e+06 3.97739e+06 0 2.33111e+06 3.91175e+06 0 2.36408e+06 3.84545e+06 0 2.39398e+06 3.77872e+06 0 2.42089e+06 3.7118e+06 0 2.44493e+06 3.64491e+06 0 2.4662e+06 3.57824e+06 0 2.48482e+06 3.51195e+06 0 2.50093e+06 3.44621e+06 0 2.51464e+06 3.38115e+06 0 2.5261e+06 3.31689e+06 0 2.53545e+06 3.25355e+06 0 2.54281e+06 3.1912e+06 0 2.54832e+06 3.12994e+06 0 2.55212e+06 3.06981e+06 0 2.55432e+06 3.01087e+06 0 2.55506e+06 2.95317e+06 0 2.55446e+06 2.89674e+06 0 2.55262e+06 2.84159e+06 0 2.54966e+06 2.78774e+06 0 2.54568e+06 2.73521e+06 0 2.54078e+06 2.68398e+06 0 2.53506e+06 2.63407e+06 0 2.5286e+06 2.58545e+06 0 2.52148e+06 2.53811e+06 0 2.51379e+06 2.49205e+06 0 2.5056e+06 2.44723e+06 0 2.49696e+06 2.40364e+06 0 2.48795e+06 2.36125e+06 0 2.47863e+06 2.32004e+06 0 2.46904e+06 2.27998e+06 0 2.45923e+06 2.24104e+06 0 2.44926e+06 2.20319e+06 0 2.43916e+06 2.1664e+06 0 2.42897e+06 2.13065e+06 0 2.41873e+06 2.09589e+06 0 2.40847e+06 2.06211e+06 0 2.39821e+06 2.02928e+06 0 2.38799e+06 1.99736e+06 0 2.37782e+06 1.96632e+06 0 2.36774e+06 1.93614e+06 0 2.35775e+06 1.90679e+06 0 979768 4.59702e+06 0 1.03589e+06 4.60269e+06 0 1.09499e+06 4.60504e+06 0 1.1567e+06 4.6036e+06 0 1.22061e+06 4.598e+06 0 1.28622e+06 4.58795e+06 0 1.353e+06 4.57324e+06 0 1.42042e+06 4.55375e+06 0 1.48791e+06 4.52947e+06 0 1.55496e+06 4.50046e+06 0 1.62107e+06 4.46684e+06 0 1.68578e+06 4.42882e+06 0 1.74868e+06 4.38665e+06 0 1.80942e+06 4.3406e+06 0 1.86769e+06 4.291e+06 0 1.92324e+06 4.23818e+06 0 1.97586e+06 4.18249e+06 0 2.02541e+06 4.12428e+06 0 2.07176e+06 4.0639e+06 0 2.11486e+06 4.00169e+06 0 2.15467e+06 3.93799e+06 0 2.1912e+06 3.87312e+06 0 2.22448e+06 3.80737e+06 0 2.25456e+06 3.74103e+06 0 2.28153e+06 3.67435e+06 0 2.30549e+06 3.60759e+06 0 2.32654e+06 3.54095e+06 0 2.34481e+06 3.47465e+06 0 2.36045e+06 3.40884e+06 0 2.37357e+06 3.3437e+06 0 2.38434e+06 3.27935e+06 0 2.39289e+06 3.21592e+06 0 2.39937e+06 3.15351e+06 0 2.40393e+06 3.09221e+06 0 2.4067e+06 3.03208e+06 0 2.40783e+06 2.97318e+06 0 2.40745e+06 2.91557e+06 0 2.40569e+06 2.85927e+06 0 2.40267e+06 2.8043e+06 0 2.39851e+06 2.75069e+06 0 2.39332e+06 2.69843e+06 0 2.38722e+06 2.64754e+06 0 2.38028e+06 2.598e+06 0 2.37263e+06 2.54981e+06 0 2.36433e+06 2.50294e+06 0 2.35547e+06 2.45738e+06 0 2.34613e+06 2.41311e+06 0 2.33637e+06 2.37009e+06 0 2.32627e+06 2.32832e+06 0 2.31588e+06 2.28775e+06 0 2.30526e+06 2.24835e+06 0 2.29445e+06 2.2101e+06 0 2.28351e+06 2.17296e+06 0 2.27248e+06 2.13691e+06 0 2.26139e+06 2.1019e+06 0 2.25029e+06 2.06791e+06 0 2.23919e+06 2.0349e+06 0 2.22814e+06 2.00285e+06 0 2.21715e+06 1.97172e+06 0 2.20625e+06 1.94148e+06 0 2.19546e+06 1.91211e+06 0 2.18481e+06 1.88356e+06 0 2.17429e+06 1.85582e+06 0 2.16394e+06 1.82886e+06 0 988121 4.51655e+06 0 1.04346e+06 4.51806e+06 0 1.10146e+06 4.51613e+06 0 1.16175e+06 4.51035e+06 0 1.2239e+06 4.50039e+06 0 1.28743e+06 4.48598e+06 0 1.3518e+06 4.46695e+06 0 1.41649e+06 4.44323e+06 0 1.48094e+06 4.41482e+06 0 1.54465e+06 4.38181e+06 0 1.60714e+06 4.34436e+06 0 1.66795e+06 4.30269e+06 0 1.72671e+06 4.25708e+06 0 1.78308e+06 4.20783e+06 0 1.83676e+06 4.15527e+06 0 1.88754e+06 4.09977e+06 0 1.93523e+06 4.04169e+06 0 1.97972e+06 3.98138e+06 0 2.02091e+06 3.91922e+06 0 2.05878e+06 3.85554e+06 0 2.09332e+06 3.79069e+06 0 2.12456e+06 3.72497e+06 0 2.15256e+06 3.6587e+06 0 2.17741e+06 3.59213e+06 0 2.19922e+06 3.52552e+06 0 2.2181e+06 3.4591e+06 0 2.23419e+06 3.39308e+06 0 2.24763e+06 3.32763e+06 0 2.25857e+06 3.26292e+06 0 2.26716e+06 3.19908e+06 0 2.27356e+06 3.13624e+06 0 2.27792e+06 3.07449e+06 0 2.28039e+06 3.01391e+06 0 2.28113e+06 2.95459e+06 0 2.28027e+06 2.89656e+06 0 2.27796e+06 2.83987e+06 0 2.27433e+06 2.78455e+06 0 2.26951e+06 2.73062e+06 0 2.26362e+06 2.67809e+06 0 2.25677e+06 2.62695e+06 0 2.24907e+06 2.57721e+06 0 2.24062e+06 2.52886e+06 0 2.23152e+06 2.48187e+06 0 2.22185e+06 2.43622e+06 0 2.21169e+06 2.3919e+06 0 2.20111e+06 2.34888e+06 0 2.1902e+06 2.30713e+06 0 2.179e+06 2.26661e+06 0 2.16758e+06 2.2273e+06 0 2.15599e+06 2.18916e+06 0 2.14428e+06 2.15216e+06 0 2.13249e+06 2.11627e+06 0 2.12066e+06 2.08144e+06 0 2.10883e+06 2.04765e+06 0 2.09704e+06 2.01487e+06 0 2.0853e+06 1.98305e+06 0 2.07365e+06 1.95218e+06 0 2.06211e+06 1.92221e+06 0 2.0507e+06 1.89311e+06 0 2.03943e+06 1.86485e+06 0 2.02834e+06 1.83741e+06 0 2.01742e+06 1.81076e+06 0 2.00669e+06 1.78486e+06 0 1.99617e+06 1.7597e+06 0 990755 4.44278e+06 0 1.0452e+06 4.44057e+06 0 1.10203e+06 4.43483e+06 0 1.16085e+06 4.4252e+06 0 1.22125e+06 4.41136e+06 0 1.28271e+06 4.39311e+06 0 1.34473e+06 4.37028e+06 0 1.40677e+06 4.34285e+06 0 1.4683e+06 4.31084e+06 0 1.52882e+06 4.27436e+06 0 1.58786e+06 4.23362e+06 0 1.64501e+06 4.18884e+06 0 1.69988e+06 4.14033e+06 0 1.75216e+06 4.08842e+06 0 1.80159e+06 4.03345e+06 0 1.84798e+06 3.9758e+06 0 1.89117e+06 3.91585e+06 0 1.93106e+06 3.85395e+06 0 1.9676e+06 3.79049e+06 0 2.00078e+06 3.7258e+06 0 2.03063e+06 3.66023e+06 0 2.05721e+06 3.59407e+06 0 2.0806e+06 3.52762e+06 0 2.10091e+06 3.46115e+06 0 2.11826e+06 3.39488e+06 0 2.1328e+06 3.32904e+06 0 2.14467e+06 3.26382e+06 0 2.15404e+06 3.19937e+06 0 2.16105e+06 3.13584e+06 0 2.16588e+06 3.07335e+06 0 2.16869e+06 3.01201e+06 0 2.16962e+06 2.9519e+06 0 2.16885e+06 2.89307e+06 0 2.16652e+06 2.8356e+06 0 2.16277e+06 2.7795e+06 0 2.15774e+06 2.72481e+06 0 2.15157e+06 2.67155e+06 0 2.14437e+06 2.61972e+06 0 2.13626e+06 2.56931e+06 0 2.12736e+06 2.52033e+06 0 2.11776e+06 2.47275e+06 0 2.10755e+06 2.42655e+06 0 2.09684e+06 2.38172e+06 0 2.08568e+06 2.33822e+06 0 2.07417e+06 2.29602e+06 0 2.06236e+06 2.2551e+06 0 2.05032e+06 2.21542e+06 0 2.03811e+06 2.17694e+06 0 2.02577e+06 2.13963e+06 0 2.01336e+06 2.10345e+06 0 2.00091e+06 2.06837e+06 0 1.98847e+06 2.03436e+06 0 1.97606e+06 2.00137e+06 0 1.96372e+06 1.96938e+06 0 1.95148e+06 1.93834e+06 0 1.93936e+06 1.90823e+06 0 1.92738e+06 1.87902e+06 0 1.91556e+06 1.85066e+06 0 1.90392e+06 1.82313e+06 0 1.89247e+06 1.79641e+06 0 1.88122e+06 1.77046e+06 0 1.87019e+06 1.74525e+06 0 1.85938e+06 1.72076e+06 0 1.8488e+06 1.69696e+06 0 988899 4.37493e+06 0 1.04237e+06 4.36937e+06 0 1.09797e+06 4.36021e+06 0 1.15531e+06 4.34712e+06 0 1.21395e+06 4.32983e+06 0 1.27338e+06 4.30815e+06 0 1.33311e+06 4.28196e+06 0 1.39259e+06 4.25124e+06 0 1.45132e+06 4.21607e+06 0 1.5088e+06 4.17658e+06 0 1.56459e+06 4.13298e+06 0 1.61827e+06 4.08555e+06 0 1.6695e+06 4.03459e+06 0 1.71798e+06 3.98046e+06 0 1.76349e+06 3.92352e+06 0 1.80583e+06 3.86414e+06 0 1.84491e+06 3.80272e+06 0 1.88063e+06 3.73963e+06 0 1.91298e+06 3.67523e+06 0 1.94197e+06 3.60987e+06 0 1.96766e+06 3.54388e+06 0 1.99012e+06 3.47756e+06 0 2.00946e+06 3.41119e+06 0 2.02581e+06 3.34501e+06 0 2.03932e+06 3.27926e+06 0 2.05013e+06 3.21413e+06 0 2.05841e+06 3.14979e+06 0 2.06433e+06 3.08639e+06 0 2.06805e+06 3.02406e+06 0 2.06974e+06 2.9629e+06 0 2.06957e+06 2.903e+06 0 2.0677e+06 2.84442e+06 0 2.06428e+06 2.78722e+06 0 2.05946e+06 2.73143e+06 0 2.05339e+06 2.67708e+06 0 2.0462e+06 2.62418e+06 0 2.03802e+06 2.57273e+06 0 2.02895e+06 2.52273e+06 0 2.01913e+06 2.47418e+06 0 2.00864e+06 2.42704e+06 0 1.99759e+06 2.3813e+06 0 1.98606e+06 2.33694e+06 0 1.97414e+06 2.29392e+06 0 1.96189e+06 2.25221e+06 0 1.94938e+06 2.21178e+06 0 1.93668e+06 2.17259e+06 0 1.92384e+06 2.13461e+06 0 1.91091e+06 2.09779e+06 0 1.89794e+06 2.06211e+06 0 1.88497e+06 2.02752e+06 0 1.87203e+06 1.99399e+06 0 1.85916e+06 1.96148e+06 0 1.84638e+06 1.92996e+06 0 1.83373e+06 1.89939e+06 0 1.82122e+06 1.86974e+06 0 1.80888e+06 1.84097e+06 0 1.79672e+06 1.81306e+06 0 1.78476e+06 1.78596e+06 0 1.77302e+06 1.75966e+06 0 1.76149e+06 1.73412e+06 0 1.75019e+06 1.70932e+06 0 1.73914e+06 1.68522e+06 0 1.72833e+06 1.66181e+06 0 1.71778e+06 1.63906e+06 0 983476 4.31234e+06 0 1.03592e+06 4.30373e+06 0 1.09027e+06 4.29148e+06 0 1.14611e+06 4.27527e+06 0 1.203e+06 4.25488e+06 0 1.26045e+06 4.23012e+06 0 1.31795e+06 4.20093e+06 0 1.37497e+06 4.1673e+06 0 1.43102e+06 4.12934e+06 0 1.48561e+06 4.08721e+06 0 1.53831e+06 4.04114e+06 0 1.58874e+06 3.99142e+06 0 1.63656e+06 3.93838e+06 0 1.68152e+06 3.88238e+06 0 1.72339e+06 3.82381e+06 0 1.76203e+06 3.76305e+06 0 1.79735e+06 3.70048e+06 0 1.82929e+06 3.63649e+06 0 1.85786e+06 3.57143e+06 0 1.88309e+06 3.50564e+06 0 1.90507e+06 3.43946e+06 0 1.92389e+06 3.37316e+06 0 1.93968e+06 3.30702e+06 0 1.95258e+06 3.24127e+06 0 1.96275e+06 3.17612e+06 0 1.97035e+06 3.11175e+06 0 1.97556e+06 3.04833e+06 0 1.97855e+06 2.98598e+06 0 1.97949e+06 2.92481e+06 0 1.97856e+06 2.86491e+06 0 1.97591e+06 2.80635e+06 0 1.97172e+06 2.74919e+06 0 1.96613e+06 2.69347e+06 0 1.95929e+06 2.6392e+06 0 1.95135e+06 2.5864e+06 0 1.94242e+06 2.53507e+06 0 1.93264e+06 2.48521e+06 0 1.92211e+06 2.43681e+06 0 1.91094e+06 2.38985e+06 0 1.89923e+06 2.34429e+06 0 1.88707e+06 2.30013e+06 0 1.87453e+06 2.25731e+06 0 1.8617e+06 2.21581e+06 0 1.84864e+06 2.1756e+06 0 1.83541e+06 2.13663e+06 0 1.82206e+06 2.09888e+06 0 1.80865e+06 2.06229e+06 0 1.79523e+06 2.02683e+06 0 1.78182e+06 1.99247e+06 0 1.76848e+06 1.95917e+06 0 1.75522e+06 1.92689e+06 0 1.74208e+06 1.89559e+06 0 1.72909e+06 1.86524e+06 0 1.71626e+06 1.8358e+06 0 1.70361e+06 1.80724e+06 0 1.69116e+06 1.77954e+06 0 1.67893e+06 1.75265e+06 0 1.66692e+06 1.72654e+06 0 1.65515e+06 1.7012e+06 0 1.64362e+06 1.67658e+06 0 1.63235e+06 1.65267e+06 0 1.62134e+06 1.62943e+06 0 1.61059e+06 1.60685e+06 0 1.6001e+06 1.5849e+06 0 975196 4.25444e+06 0 1.02658e+06 4.24305e+06 0 1.07964e+06 4.22798e+06 0 1.13399e+06 4.20895e+06 0 1.18917e+06 4.18574e+06 0 1.24468e+06 4.15821e+06 0 1.30002e+06 4.12632e+06 0 1.35468e+06 4.0901e+06 0 1.40816e+06 4.04966e+06 0 1.46001e+06 4.0052e+06 0 1.5098e+06 3.95697e+06 0 1.55717e+06 3.90527e+06 0 1.60182e+06 3.85045e+06 0 1.64349e+06 3.79289e+06 0 1.68201e+06 3.73296e+06 0 1.71725e+06 3.67107e+06 0 1.74913e+06 3.60761e+06 0 1.77764e+06 3.54293e+06 0 1.8028e+06 3.47742e+06 0 1.82466e+06 3.41139e+06 0 1.84333e+06 3.34517e+06 0 1.85893e+06 3.27902e+06 0 1.87159e+06 3.21321e+06 0 1.88147e+06 3.14795e+06 0 1.88873e+06 3.08345e+06 0 1.89356e+06 3.01986e+06 0 1.89614e+06 2.95734e+06 0 1.89663e+06 2.89599e+06 0 1.89521e+06 2.83592e+06 0 1.89206e+06 2.77719e+06 0 1.88735e+06 2.71987e+06 0 1.88123e+06 2.664e+06 0 1.87385e+06 2.6096e+06 0 1.86536e+06 2.55668e+06 0 1.85589e+06 2.50525e+06 0 1.84557e+06 2.4553e+06 0 1.83451e+06 2.40683e+06 0 1.82282e+06 2.3598e+06 0 1.8106e+06 2.3142e+06 0 1.79795e+06 2.26999e+06 0 1.78493e+06 2.22715e+06 0 1.77163e+06 2.18564e+06 0 1.75812e+06 2.14542e+06 0 1.74446e+06 2.10645e+06 0 1.7307e+06 2.0687e+06 0 1.7169e+06 2.03212e+06 0 1.70309e+06 1.99668e+06 0 1.68933e+06 1.96234e+06 0 1.67564e+06 1.92905e+06 0 1.66206e+06 1.89679e+06 0 1.64861e+06 1.86551e+06 0 1.63532e+06 1.83518e+06 0 1.6222e+06 1.80577e+06 0 1.60929e+06 1.77723e+06 0 1.59659e+06 1.74955e+06 0 1.58411e+06 1.72268e+06 0 1.57188e+06 1.69659e+06 0 1.55989e+06 1.67126e+06 0 1.54816e+06 1.64666e+06 0 1.53669e+06 1.62277e+06 0 1.52549e+06 1.59955e+06 0 1.51456e+06 1.57698e+06 0 1.5039e+06 1.55504e+06 0 1.49352e+06 1.53371e+06 0 964608 4.20075e+06 0 1.0149e+06 4.18681e+06 0 1.06669e+06 4.16915e+06 0 1.11955e+06 4.14753e+06 0 1.17304e+06 4.12177e+06 0 1.22667e+06 4.09173e+06 0 1.27993e+06 4.05741e+06 0 1.33231e+06 4.01886e+06 0 1.38335e+06 3.97621e+06 0 1.43259e+06 3.92968e+06 0 1.47963e+06 3.87955e+06 0 1.52414e+06 3.82613e+06 0 1.56581e+06 3.76978e+06 0 1.60444e+06 3.71088e+06 0 1.63986e+06 3.64983e+06 0 1.67197e+06 3.58702e+06 0 1.70072e+06 3.52284e+06 0 1.7261e+06 3.45766e+06 0 1.74818e+06 3.39184e+06 0 1.76702e+06 3.3257e+06 0 1.78273e+06 3.25953e+06 0 1.79546e+06 3.19362e+06 0 1.80535e+06 3.12819e+06 0 1.81258e+06 3.06346e+06 0 1.81732e+06 2.99961e+06 0 1.81974e+06 2.93679e+06 0 1.82004e+06 2.87513e+06 0 1.81839e+06 2.81473e+06 0 1.81497e+06 2.75567e+06 0 1.80996e+06 2.69802e+06 0 1.80351e+06 2.64182e+06 0 1.79578e+06 2.5871e+06 0 1.78692e+06 2.53387e+06 0 1.77707e+06 2.48214e+06 0 1.76637e+06 2.43191e+06 0 1.75492e+06 2.38317e+06 0 1.74284e+06 2.33588e+06 0 1.73023e+06 2.29004e+06 0 1.71718e+06 2.2456e+06 0 1.70379e+06 2.20254e+06 0 1.69012e+06 2.16082e+06 0 1.67624e+06 2.1204e+06 0 1.66223e+06 2.08124e+06 0 1.64813e+06 2.04331e+06 0 1.634e+06 2.00656e+06 0 1.61988e+06 1.97096e+06 0 1.60581e+06 1.93645e+06 0 1.59183e+06 1.90302e+06 0 1.57796e+06 1.87061e+06 0 1.56424e+06 1.83919e+06 0 1.55069e+06 1.80872e+06 0 1.53734e+06 1.77917e+06 0 1.52419e+06 1.7505e+06 0 1.51126e+06 1.72268e+06 0 1.49857e+06 1.69568e+06 0 1.48613e+06 1.66947e+06 0 1.47395e+06 1.64402e+06 0 1.46203e+06 1.6193e+06 0 1.45038e+06 1.59529e+06 0 1.439e+06 1.57195e+06 0 1.4279e+06 1.54927e+06 0 1.41709e+06 1.52722e+06 0 1.40655e+06 1.50577e+06 0 1.3963e+06 1.48492e+06 0 952147 4.15085e+06 0 1.00134e+06 4.13454e+06 0 1.05184e+06 4.11451e+06 0 1.10325e+06 4.09052e+06 0 1.15509e+06 4.06241e+06 0 1.20688e+06 4.0301e+06 0 1.25813e+06 3.99357e+06 0 1.30834e+06 3.95291e+06 0 1.35705e+06 3.90828e+06 0 1.40382e+06 3.85991e+06 0 1.44827e+06 3.80809e+06 0 1.49007e+06 3.75316e+06 0 1.52898e+06 3.69548e+06 0 1.56477e+06 3.63544e+06 0 1.59733e+06 3.57344e+06 0 1.62656e+06 3.50988e+06 0 1.65243e+06 3.44514e+06 0 1.67498e+06 3.37958e+06 0 1.69426e+06 3.31356e+06 0 1.71038e+06 3.24739e+06 0 1.72345e+06 3.18136e+06 0 1.73362e+06 3.11572e+06 0 1.74107e+06 3.0507e+06 0 1.74596e+06 2.9865e+06 0 1.74848e+06 2.92329e+06 0 1.74881e+06 2.8612e+06 0 1.74714e+06 2.80034e+06 0 1.74365e+06 2.74081e+06 0 1.73852e+06 2.68268e+06 0 1.73192e+06 2.626e+06 0 1.72401e+06 2.5708e+06 0 1.71494e+06 2.5171e+06 0 1.70485e+06 2.46491e+06 0 1.69389e+06 2.41423e+06 0 1.68216e+06 2.36504e+06 0 1.6698e+06 2.31733e+06 0 1.65691e+06 2.27108e+06 0 1.64357e+06 2.22624e+06 0 1.62988e+06 2.18279e+06 0 1.61591e+06 2.1407e+06 0 1.60175e+06 2.09992e+06 0 1.58745e+06 2.06041e+06 0 1.57307e+06 2.02214e+06 0 1.55866e+06 1.98507e+06 0 1.54427e+06 1.94915e+06 0 1.52994e+06 1.91434e+06 0 1.51571e+06 1.8806e+06 0 1.5016e+06 1.8479e+06 0 1.48764e+06 1.8162e+06 0 1.47387e+06 1.78546e+06 0 1.46029e+06 1.75564e+06 0 1.44693e+06 1.72671e+06 0 1.4338e+06 1.69863e+06 0 1.42092e+06 1.67139e+06 0 1.40829e+06 1.64493e+06 0 1.39593e+06 1.61924e+06 0 1.38384e+06 1.59429e+06 0 1.37202e+06 1.57004e+06 0 1.36049e+06 1.54648e+06 0 1.34924e+06 1.52358e+06 0 1.33827e+06 1.50131e+06 0 1.32759e+06 1.47965e+06 0 1.3172e+06 1.45859e+06 0 1.3071e+06 1.4381e+06 0 938159 4.10438e+06 0 986242 4.08587e+06 0 1.03548e+06 4.06364e+06 0 1.08544e+06 4.03747e+06 0 1.13568e+06 4.00721e+06 0 1.18569e+06 3.9728e+06 0 1.23501e+06 3.93426e+06 0 1.28313e+06 3.89169e+06 0 1.32961e+06 3.84527e+06 0 1.37404e+06 3.79525e+06 0 1.41604e+06 3.74193e+06 0 1.45532e+06 3.68566e+06 0 1.49163e+06 3.62682e+06 0 1.52479e+06 3.56579e+06 0 1.55469e+06 3.50299e+06 0 1.58127e+06 3.4388e+06 0 1.60452e+06 3.3736e+06 0 1.62448e+06 3.30777e+06 0 1.64123e+06 3.24162e+06 0 1.65488e+06 3.17548e+06 0 1.66558e+06 3.10962e+06 0 1.67347e+06 3.04428e+06 0 1.67874e+06 2.97968e+06 0 1.68157e+06 2.916e+06 0 1.68214e+06 2.85338e+06 0 1.68065e+06 2.79197e+06 0 1.67728e+06 2.73186e+06 0 1.6722e+06 2.67313e+06 0 1.66561e+06 2.61583e+06 0 1.65765e+06 2.56002e+06 0 1.6485e+06 2.50571e+06 0 1.63831e+06 2.45291e+06 0 1.6272e+06 2.40163e+06 0 1.61531e+06 2.35185e+06 0 1.60277e+06 2.30357e+06 0 1.58967e+06 2.25675e+06 0 1.57612e+06 2.21137e+06 0 1.56221e+06 2.16739e+06 0 1.54802e+06 2.12478e+06 0 1.53362e+06 2.0835e+06 0 1.51909e+06 2.04351e+06 0 1.50447e+06 2.00476e+06 0 1.48984e+06 1.96723e+06 0 1.47522e+06 1.93086e+06 0 1.46067e+06 1.89562e+06 0 1.44621e+06 1.86146e+06 0 1.43189e+06 1.82835e+06 0 1.41773e+06 1.79624e+06 0 1.40375e+06 1.76511e+06 0 1.38998e+06 1.73491e+06 0 1.37643e+06 1.70561e+06 0 1.36312e+06 1.67717e+06 0 1.35006e+06 1.64957e+06 0 1.33727e+06 1.62277e+06 0 1.32474e+06 1.59674e+06 0 1.31249e+06 1.57146e+06 0 1.30052e+06 1.54689e+06 0 1.28884e+06 1.52301e+06 0 1.27745e+06 1.4998e+06 0 1.26635e+06 1.47723e+06 0 1.25554e+06 1.45529e+06 0 1.24502e+06 1.43393e+06 0 1.23478e+06 1.41316e+06 0 1.22484e+06 1.39294e+06 0 922921 4.061e+06 0 969899 4.04046e+06 0 1.01788e+06 4.01619e+06 0 1.06643e+06 3.98799e+06 0 1.1151e+06 3.95574e+06 0 1.1634e+06 3.9194e+06 0 1.21085e+06 3.87902e+06 0 1.25697e+06 3.8347e+06 0 1.30134e+06 3.78666e+06 0 1.34354e+06 3.73515e+06 0 1.38323e+06 3.68048e+06 0 1.42013e+06 3.62302e+06 0 1.45401e+06 3.56315e+06 0 1.48473e+06 3.50127e+06 0 1.51217e+06 3.43777e+06 0 1.5363e+06 3.37305e+06 0 1.55714e+06 3.30749e+06 0 1.57473e+06 3.24144e+06 0 1.58918e+06 3.17523e+06 0 1.60061e+06 3.10916e+06 0 1.60917e+06 3.04349e+06 0 1.61502e+06 2.97845e+06 0 1.61836e+06 2.91425e+06 0 1.61936e+06 2.85105e+06 0 1.61822e+06 2.789e+06 0 1.61513e+06 2.72821e+06 0 1.61027e+06 2.66878e+06 0 1.60383e+06 2.61076e+06 0 1.59597e+06 2.55421e+06 0 1.58687e+06 2.49916e+06 0 1.57667e+06 2.44563e+06 0 1.56553e+06 2.39363e+06 0 1.55358e+06 2.34313e+06 0 1.54093e+06 2.29414e+06 0 1.52771e+06 2.24663e+06 0 1.51402e+06 2.20058e+06 0 1.49995e+06 2.15594e+06 0 1.4856e+06 2.11268e+06 0 1.47102e+06 2.07077e+06 0 1.45631e+06 2.03017e+06 0 1.4415e+06 1.99084e+06 0 1.42668e+06 1.95272e+06 0 1.41187e+06 1.91579e+06 0 1.39712e+06 1.88001e+06 0 1.38248e+06 1.84532e+06 0 1.36797e+06 1.81169e+06 0 1.35363e+06 1.77908e+06 0 1.33947e+06 1.74746e+06 0 1.32553e+06 1.71678e+06 0 1.31181e+06 1.68701e+06 0 1.29833e+06 1.65812e+06 0 1.28511e+06 1.63008e+06 0 1.27216e+06 1.60284e+06 0 1.25949e+06 1.57639e+06 0 1.24709e+06 1.5507e+06 0 1.23498e+06 1.52573e+06 0 1.22317e+06 1.50146e+06 0 1.21164e+06 1.47787e+06 0 1.20041e+06 1.45492e+06 0 1.18948e+06 1.43261e+06 0 1.17884e+06 1.4109e+06 0 1.1685e+06 1.38978e+06 0 1.15844e+06 1.36922e+06 0 1.14868e+06 1.34921e+06 0 906659 4.02046e+06 0 952539 3.99801e+06 0 999279 3.97182e+06 0 1.04645e+06 3.94174e+06 0 1.09359e+06 3.90765e+06 0 1.14022e+06 3.86953e+06 0 1.18588e+06 3.82744e+06 0 1.23009e+06 3.78153e+06 0 1.27244e+06 3.732e+06 0 1.31253e+06 3.67913e+06 0 1.35004e+06 3.62325e+06 0 1.3847e+06 3.56473e+06 0 1.41632e+06 3.50394e+06 0 1.44474e+06 3.4413e+06 0 1.46991e+06 3.3772e+06 0 1.49178e+06 3.31203e+06 0 1.5104e+06 3.24617e+06 0 1.52583e+06 3.17995e+06 0 1.53818e+06 3.11371e+06 0 1.54759e+06 3.04772e+06 0 1.55423e+06 2.98224e+06 0 1.55825e+06 2.9175e+06 0 1.55986e+06 2.85367e+06 0 1.55925e+06 2.79093e+06 0 1.5566e+06 2.72939e+06 0 1.5521e+06 2.66917e+06 0 1.54595e+06 2.61034e+06 0 1.53832e+06 2.55296e+06 0 1.52938e+06 2.49707e+06 0 1.5193e+06 2.44269e+06 0 1.50822e+06 2.38985e+06 0 1.49629e+06 2.33852e+06 0 1.48363e+06 2.28871e+06 0 1.47036e+06 2.24039e+06 0 1.45659e+06 2.19354e+06 0 1.44243e+06 2.14813e+06 0 1.42796e+06 2.10412e+06 0 1.41326e+06 2.06147e+06 0 1.3984e+06 2.02015e+06 0 1.38345e+06 1.98011e+06 0 1.36847e+06 1.94132e+06 0 1.3535e+06 1.90372e+06 0 1.3386e+06 1.86729e+06 0 1.32379e+06 1.83197e+06 0 1.30912e+06 1.79773e+06 0 1.29462e+06 1.76453e+06 0 1.2803e+06 1.73232e+06 0 1.2662e+06 1.70108e+06 0 1.25233e+06 1.67076e+06 0 1.23871e+06 1.64134e+06 0 1.22534e+06 1.61277e+06 0 1.21225e+06 1.58503e+06 0 1.19944e+06 1.55809e+06 0 1.18691e+06 1.53191e+06 0 1.17467e+06 1.50647e+06 0 1.16273e+06 1.48174e+06 0 1.15109e+06 1.4577e+06 0 1.13975e+06 1.43432e+06 0 1.1287e+06 1.41158e+06 0 1.11795e+06 1.38945e+06 0 1.1075e+06 1.36792e+06 0 1.09735e+06 1.34697e+06 0 1.08748e+06 1.32657e+06 0 1.07791e+06 1.30672e+06 0 889557 3.9825e+06 0 934347 3.95825e+06 0 979867 3.93028e+06 0 1.02568e+06 3.89843e+06 0 1.07134e+06 3.86262e+06 0 1.11636e+06 3.82285e+06 0 1.16029e+06 3.77919e+06 0 1.20267e+06 3.7318e+06 0 1.24309e+06 3.68091e+06 0 1.28118e+06 3.6268e+06 0 1.31663e+06 3.