<?xml version="1.0"?> 
<VTKFile type="StructuredGrid" version="0.1"> 
<StructuredGrid WholeExtent="0 63 0 63 0 0"> 
<Piece Extent="0 63 0 63 0 0"> 
<PointData>
<DataArray type="Float32" Name="|E|" format="ascii" NumberOfComponents="3"> 
-2.07795e+06 47501.8 0 -2.08208e+06 55965.1 0 -2.08678e+06 64359.9 0 -2.09206e+06 72702.9 0 -2.09793e+06 80997.7 0 -2.10437e+06 89249.9 0 -2.11141e+06 97465.2 0 -2.11905e+06 105650 0 -2.12728e+06 113809 0 -2.13613e+06 121949 0 -2.14559e+06 130076 0 -2.15568e+06 138195 0 -2.1664e+06 146313 0 -2.17776e+06 154437 0 -2.18977e+06 162571 0 -2.20244e+06 170723 0 -2.21579e+06 178899 0 -2.22982e+06 187105 0 -2.24455e+06 195349 0 -2.25999e+06 203637 0 -2.27615e+06 211975 0 -2.29306e+06 220370 0 -2.31072e+06 228829 0 -2.32916e+06 237359 0 -2.34839e+06 245966 0 -2.36843e+06 254656 0 -2.38932e+06 263435 0 -2.41106e+06 272308 0 -2.43369e+06 281281 0 -2.45724e+06 290356 0 -2.48173e+06 299537 0 -2.50719e+06 308824 0 -2.53366e+06 318216 0 -2.56119e+06 327709 0 -2.58979e+06 337298 0 -2.61953e+06 346972 0 -2.65045e+06 356714 0 -2.6826e+06 366502 0 -2.71603e+06 376308 0 -2.75081e+06 386092 0 -2.78699e+06 395802 0 -2.82465e+06 405372 0 -2.86385e+06 414718 0 -2.90468e+06 423734 0 -2.94721e+06 432285 0 -2.99151e+06 440203 0 -3.03767e+06 447278 0 -3.08574e+06 453254 0 -3.13577e+06 457813 0 -3.18778e+06 460568 0 -3.24175e+06 461052 0 -3.29757e+06 458709 0 -3.35506e+06 452889 0 -3.41388e+06 442850 0 -3.47348e+06 427776 0 -3.53307e+06 406817 0 -3.59157e+06 379159 0 -3.6475e+06 344137 0 -3.69907e+06 301397 0 -3.74419e+06 251086 0 -3.78065e+06 193981 0 -3.80637e+06 131539 0 -3.81996e+06 65547.9 0 -3.82197e+06 -1.90735e-06 0 -2.07776e+06 49002.5 0 -2.08196e+06 57487 0 -2.08672e+06 65909.6 0 -2.09206e+06 74282.7 0 -2.09798e+06 82610.3 0 -2.10448e+06 90898 0 -2.11157e+06 99151.7 0 -2.11925e+06 107377 0 -2.12753e+06 115581 0 -2.13642e+06 123767 0 -2.14592e+06 131944 0 -2.15604e+06 140116 0 -2.1668e+06 148290 0 -2.17819e+06 156472 0 -2.19023e+06 164668 0 -2.20293e+06 172885 0 -2.2163e+06 181130 0 -2.23035e+06 189408 0 -2.2451e+06 197727 0 -2.26055e+06 206093 0 -2.27673e+06 214513 0 -2.29364e+06 222995 0 -2.31131e+06 231544 0 -2.32975e+06 240168 0 -2.34898e+06 248874 0 -2.36902e+06 257667 0 -2.3899e+06 266553 0 -2.41164e+06 275539 0 -2.43425e+06 284628 0 -2.45778e+06 293826 0 -2.48225e+06 303134 0 -2.5077e+06 312555 0 -2.53415e+06 322087 0 -2.56164e+06 331727 0 -2.59022e+06 341468 0 -2.61993e+06 351302 0 -2.65082e+06 361211 0 -2.68293e+06 371176 0 -2.71634e+06 381166 0 -2.75109e+06 391144 0 -2.78724e+06 401057 0 -2.82488e+06 410842 0 -2.86408e+06 420413 0 -2.90491e+06 429665 0 -2.94746e+06 438464 0 -2.9918e+06 446642 0 -3.03802e+06 453990 0 -3.08619e+06 460248 0 -3.13636e+06 465098 0 -3.18858e+06 468147 0 -3.24281e+06 468925 0 -3.29899e+06 466864 0 -3.35693e+06 461299 0 -3.4163e+06 451467 0 -3.47659e+06 436521 0 -3.53701e+06 415573 0 -3.59646e+06 387759 0 -3.65346e+06 352361 0 -3.70616e+06 308972 0 -3.7524e+06 257691 0 -3.78988e+06 199287 0 -3.81641e+06 135231 0 -3.83057e+06 67564.6 0 -3.83233e+06 7.56234e-07 0 -2.07759e+06 50514.2 0 -2.08184e+06 59021.6 0 -2.08667e+06 67472.1 0 -2.09207e+06 75875.4 0 -2.09804e+06 84235.9 0 -2.10459e+06 92559.2 0 -2.11173e+06 100851 0 -2.11946e+06 109118 0 -2.12778e+06 117366 0 -2.13671e+06 125599 0 -2.14625e+06 133826 0 -2.15641e+06 142051 0 -2.1672e+06 150280 0 -2.17863e+06 158521 0 -2.19069e+06 166779 0 -2.20342e+06 175061 0 -2.21681e+06 183374 0 -2.23088e+06 191724 0 -2.24565e+06 200118 0 -2.26111e+06 208563 0 -2.2773e+06 217066 0 -2.29422e+06 225634 0 -2.31189e+06 234274 0 -2.33034e+06 242992 0 -2.34957e+06 251796 0 -2.36961e+06 260691 0 -2.39048e+06 269685 0 -2.4122e+06 278783 0 -2.4348e+06 287990 0 -2.45832e+06 297310 0 -2.48277e+06 306746 0 -2.50819e+06 316300 0 -2.53461e+06 325972 0 -2.56208e+06 335758 0 -2.59063e+06 345653 0 -2.62031e+06 355647 0 -2.65117e+06 365725 0 -2.68325e+06 375866 0 -2.71662e+06 386041 0 -2.75134e+06 396213 0 -2.78748e+06 406331 0 -2.8251e+06 416331 0 -2.86428e+06 426129 0 -2.90511e+06 435619 0 -2.94768e+06 444669 0 -2.99206e+06 453111 0 -3.03834e+06 460736 0 -3.08661e+06 467282 0 -3.13694e+06 472430 0 -3.18935e+06 475784 0 -3.24385e+06 476865 0 -3.30038e+06 475099 0 -3.35877e+06 469804 0 -3.41872e+06 460195 0 -3.47971e+06 445398 0 -3.54098e+06 424480 0 -3.60142e+06 396529 0 -3.65952e+06 360769 0 -3.7134e+06 316734 0 -3.76082e+06 264478 0 -3.79936e+06 204750 0 -3.82675e+06 139052 0 -3.84147e+06 69616.2 0 -3.8431e+06 -6.03497e-07 0 -2.07742e+06 52037.4 0 -2.08174e+06 60568.9 0 -2.08662e+06 69047.3 0 -2.09208e+06 77481 0 -2.0981e+06 85874.4 0 -2.10471e+06 94233.6 0 -2.11189e+06 102564 0 -2.11967e+06 110873 0 -2.12804e+06 119164 0 -2.13701e+06 127445 0 -2.14659e+06 135721 0 -2.15679e+06 143999 0 -2.16761e+06 152284 0 -2.17906e+06 160584 0 -2.19116e+06 168904 0 -2.20391e+06 177252 0 -2.21732e+06 185633 0 -2.23141e+06 194055 0 -2.24619e+06 202524 0 -2.26167e+06 211048 0 -2.27787e+06 219633 0 -2.2948e+06 228287 0 -2.31247e+06 237017 0 -2.33092e+06 245830 0 -2.35015e+06 254732 0 -2.37018e+06 263730 0 -2.39104e+06 272832 0 -2.41276e+06 282042 0 -2.43535e+06 291366 0 -2.45884e+06 300808 0 -2.48327e+06 310372 0 -2.50867e+06 320060 0 -2.53507e+06 329872 0 -2.56251e+06 339804 0 -2.59103e+06 349852 0 -2.62067e+06 360007 0 -2.6515e+06 370253 0 -2.68355e+06 380571 0 -2.71689e+06 390932 0 -2.75158e+06 401299 0 -2.78769e+06 411623 0 -2.82529e+06 421840 0 -2.86446e+06 431866 0 -2.90529e+06 441598 0 -2.94787e+06 450902 0 -2.99229e+06 459611 0 -3.03864e+06 467517 0 -3.08701e+06 474357 0 -3.13748e+06 479810 0 -3.19009e+06 483477 0 -3.24487e+06 484874 0 -3.30175e+06 483415 0 -3.3606e+06 478406 0 -3.42113e+06 469039 0 -3.48285e+06 454409 0 -3.54498e+06 433543 0 -3.60643e+06 405474 0 -3.66568e+06 369367 0 -3.72079e+06 324694 0 -3.76943e+06 271454 0 -3.8091e+06 210378 0 -3.83739e+06 143004 0 -3.85268e+06 71713.9 0 -3.85427e+06 6.18398e-07 0 -2.07726e+06 53572.9 0 -2.08164e+06 62128.8 0 -2.08659e+06 70635.3 0 -2.0921e+06 79099.4 0 -2.09817e+06 87526.1 0 -2.10483e+06 95921.2 0 -2.11206e+06 104291 0 -2.11988e+06 112640 0 -2.1283e+06 120976 0 -2.13731e+06 129304 0 -2.14693e+06 137630 0 -2.15716e+06 145961 0 -2.16801e+06 154302 0 -2.17949e+06 162661 0 -2.19162e+06 171043 0 -2.20439e+06 179456 0 -2.21783e+06 187905 0 -2.23194e+06 196399 0 -2.24673e+06 204944 0 -2.26223e+06 213546 0 -2.27843e+06 222214 0 -2.29537e+06 230955 0 -2.31305e+06 239775 0 -2.33149e+06 248681 0 -2.35072e+06 257682 0 -2.37075e+06 266783 0 -2.3916e+06 275992 0 -2.4133e+06 285314 0 -2.43588e+06 294755 0 -2.45935e+06 304320 0 -2.48376e+06 314013 0 -2.50913e+06 323834 0 -2.53551e+06 333786 0 -2.56292e+06 343865 0 -2.59141e+06 354066 0 -2.62102e+06 364382 0 -2.65181e+06 374797 0 -2.68383e+06 385292 0 -2.71713e+06 395840 0 -2.75179e+06 406403 0 -2.78787e+06 416934 0 -2.82545e+06 427368 0 -2.86461e+06 437625 0 -2.90545e+06 447600 0 -2.94804e+06 457161 0 -2.99249e+06 466142 0 -3.03891e+06 474333 0 -3.08738e+06 481474 0 -3.13799e+06 487239 0 -3.1908e+06 491228 0 -3.24585e+06 492951 0 -3.3031e+06 491814 0 -3.36242e+06 487106 0 -3.42354e+06 478001 0 -3.48599e+06 463559 0 -3.54901e+06 442766 0 -3.61151e+06 414602 0 -3.67194e+06 378164 0 -3.72832e+06 332859 0 -3.77825e+06 278630 0 -3.8191e+06 216182 0 -3.84835e+06 147091 0 -3.86423e+06 73866.4 0 -3.86584e+06 -6.10948e-07 0 -2.07711e+06 55120.6 0 -2.08155e+06 63701.5 0 -2.08655e+06 72236 0 -2.09212e+06 80730.8 0 -2.09825e+06 89190.8 0 -2.10496e+06 97621.9 0 -2.11224e+06 106030 0 -2.1201e+06 114421 0 -2.12856e+06 122801 0 -2.13761e+06 131177 0 -2.14727e+06 139553 0 -2.15753e+06 147937 0 -2.16842e+06 156334 0 -2.17993e+06 164751 0 -2.19208e+06 173196 0 -2.20488e+06 181674 0 -2.21834e+06 190192 0 -2.23246e+06 198758 0 -2.24727e+06 207378 0 -2.26278e+06 216059 0 -2.27899e+06 224810 0 -2.29594e+06 233636 0 -2.31362e+06 242546 0 -2.33206e+06 251547 0 -2.35128e+06 260646 0 -2.37131e+06 269851 0 -2.39215e+06 279167 0 -2.41384e+06 288601 0 -2.4364e+06 298159 0 -2.45985e+06 307847 0 -2.48424e+06 317667 0 -2.50959e+06 327623 0 -2.53593e+06 337714 0 -2.56331e+06 347940 0 -2.59177e+06 358295 0 -2.62135e+06 368772 0 -2.65211e+06 379356 0 -2.68409e+06 390029 0 -2.71736e+06 400763 0 -2.75199e+06 411524 0 -2.78804e+06 422262 0 -2.8256e+06 432916 0 -2.86474e+06 443405 0 -2.90557e+06 453626 0 -2.94818e+06 463447 0 -2.99267e+06 472703 0 -3.03914e+06 481185 0 -3.08771e+06 488632 0 -3.13847e+06 494717 0 -3.19148e+06 499038 0 -3.24681e+06 501099 0 -3.30442e+06 500297 0 -3.36421e+06 495908 0 -3.42593e+06 487083 0 -3.48913e+06 472852 0 -3.55307e+06 452155 0 -3.61664e+06 423916 0 -3.6783e+06 387167 0 -3.73601e+06 341239 0 -3.78728e+06 286015 0 -3.82937e+06 222171 0 -3.85964e+06 151318 0 -3.87612e+06 76081.5 0 -3.87781e+06 2.38419e-07 0 -2.07697e+06 56680.8 0 -2.08147e+06 65286.8 0 -2.08653e+06 73849.6 0 -2.09215e+06 82375.1 0 -2.09833e+06 90868.5 0 -2.10509e+06 99335.8 0 -2.11242e+06 107783 0 -2.12033e+06 116216 0 -2.12883e+06 124640 0 -2.13792e+06 133063 0 -2.14761e+06 141489 0 -2.15791e+06 149926 0 -2.16882e+06 158379 0 -2.18037e+06 166856 0 -2.19254e+06 175363 0 -2.20536e+06 183906 0 -2.21884e+06 192493 0 -2.23298e+06 201130 0 -2.24781e+06 209826 0 -2.26333e+06 218586 0 -2.27955e+06 227419 0 -2.2965e+06 236332 0 -2.31418e+06 245332 0 -2.33263e+06 254427 0 -2.35184e+06 263625 0 -2.37186e+06 272932 0 -2.39269e+06 282355 0 -2.41437e+06 291902 0 -2.43691e+06 301578 0 -2.46035e+06 311387 0 -2.48471e+06 321336 0 -2.51003e+06 331425 0 -2.53635e+06 341657 0 -2.56369e+06 352029 0 -2.59212e+06 362538 0 -2.62166e+06 373176 0 -2.65238e+06 383930 0 -2.68433e+06 394781 0 -2.71757e+06 405704 0 -2.75216e+06 416662 0 -2.78818e+06 427610 0 -2.82571e+06 438485 0 -2.86485e+06 449208 0 -2.90567e+06 459676 0 -2.94829e+06 469761 0 -2.99281e+06 479296 0 -3.03935e+06 488073 0 -3.08801e+06 495832 0 -3.13891e+06 502245 0 -3.19213e+06 506907 0 -3.24773e+06 509317 0 -3.30571e+06 508865 0 -3.36598e+06 504812 0 -3.42831e+06 496288 0 -3.49227e+06 482290 0 -3.55714e+06 461714 0 -3.62183e+06 433426 0 -3.68476e+06 396384 0 -3.74385e+06 349844 0 -3.79653e+06 293620 0 -3.83992e+06 228354 0 -3.87125e+06 155692 0 -3.88839e+06 78366.2 0 -3.89019e+06 -2.83122e-07 0 -2.07684e+06 58253.4 0 -2.0814e+06 66884.9 0 -2.08651e+06 75476 0 -2.09219e+06 84032.3 0 -2.09842e+06 92559.3 0 -2.10523e+06 101063 0 -2.1126e+06 109549 0 -2.12056e+06 118024 0 -2.1291e+06 126493 0 -2.13823e+06 134963 0 -2.14795e+06 143439 0 -2.15829e+06 151929 0 -2.16923e+06 160439 0 -2.1808e+06 168974 0 -2.193e+06 177543 0 -2.20585e+06 186152 0 -2.21934e+06 194807 0 -2.2335e+06 203517 0 -2.24834e+06 212288 0 -2.26387e+06 221127 0 -2.2801e+06 230042 0 -2.29705e+06 239042 0 -2.31474e+06 248132 0 -2.33318e+06 257322 0 -2.3524e+06 266617 0 -2.3724e+06 276027 0 -2.39322e+06 285558 0 -2.41488e+06 295217 0 -2.43741e+06 305010 0 -2.46082e+06 314942 0 -2.48516e+06 325018 0 -2.51046e+06 335242 0 -2.53675e+06 345614 0 -2.56406e+06 356133 0 -2.59245e+06 366796 0 -2.62196e+06 377596 0 -2.65264e+06 388520 0 -2.68455e+06 399549 0 -2.71775e+06 410660 0 -2.75231e+06 421818 0 -2.7883e+06 432975 0 -2.82581e+06 444073 0 -2.86492e+06 455032 0 -2.90574e+06 465751 0 -2.94837e+06 476101 0 -2.99293e+06 485919 0 -3.03952e+06 494997 0 -3.08828e+06 503074 0 -3.13932e+06 509823 0 -3.19274e+06 514836 0 -3.24862e+06 517608 0 -3.30697e+06 517520 0 -3.36772e+06 513821 0 -3.43067e+06 505618 0 -3.49541e+06 491877 0 -3.56124e+06 471449 0 -3.62706e+06 443136 0 -3.69131e+06 405823 0 -3.75184e+06 358683 0 -3.80599e+06 301455 0 -3.85076e+06 234742 0 -3.88321e+06 160221 0 -3.90104e+06 80727.4 0 -3.90298e+06 -6.85453e-07 0 -2.07671e+06 59838.5 0 -2.08133e+06 68495.7 0 -2.0865e+06 77115.2 0 -2.09223e+06 85702.5 0 -2.09852e+06 94263.2 0 -2.10537e+06 102803 0 -2.11279e+06 111328 0 -2.12079e+06 119845 0 -2.12937e+06 128359 0 -2.13854e+06 136876 0 -2.1483e+06 145403 0 -2.15867e+06 153946 0 -2.16964e+06 162512 0 -2.18124e+06 171107 0 -2.19347e+06 179738 0 -2.20633e+06 188412 0 -2.21985e+06 197136 0 -2.23402e+06 205918 0 -2.24887e+06 214764 0 -2.26441e+06 223682 0 -2.28065e+06 232680 0 -2.29761e+06 241765 0 -2.31529e+06 250946 0 -2.33373e+06 260230 0 -2.35294e+06 269624 0 -2.37294e+06 279137 0 -2.39375e+06 288775 0 -2.41539e+06 298546 0 -2.4379e+06 308456 0 -2.46129e+06 318511 0 -2.48561e+06 328715 0 -2.51088e+06 339073 0 -2.53713e+06 349585 0 -2.56441e+06 360252 0 -2.59277e+06 371069 0 -2.62224e+06 382030 0 -2.65288e+06 393124 0 -2.68476e+06 404334 0 -2.71792e+06 415633 0 -2.75244e+06 426990 0 -2.7884e+06 438359 0 -2.82588e+06 449681 0 -2.86497e+06 460877 0 -2.90579e+06 471849 0 -2.94842e+06 482469 0 -2.99301e+06 492574 0 -3.03966e+06 501957 0 -3.08852e+06 510359 0 -3.1397e+06 517451 0 -3.19332e+06 522825 0 -3.24947e+06 525971 0 -3.30819e+06 526263 0 -3.36943e+06 522936 0 -3.43301e+06 515077 0 -3.49854e+06 501618 0 -3.56535e+06 481364 0 -3.63235e+06 453054 0 -3.69795e+06 415493 0 -3.75998e+06 367767 0 -3.81567e+06 309532 0 -3.86189e+06 241347 0 -3.89553e+06 164914 0 -3.91409e+06 83171.4 0 -3.9162e+06 1.40071e-06 0 -2.07659e+06 61436.2 0 -2.08127e+06 70119.1 0 -2.0865e+06 78767.3 0 -2.09228e+06 87385.7 0 -2.09862e+06 95980.2 0 -2.10552e+06 104557 0 -2.11298e+06 113121 0 -2.12102e+06 121680 0 -2.12964e+06 130238 0 -2.13885e+06 138803 0 -2.14865e+06 147380 0 -2.15905e+06 155977 0 -2.17005e+06 164599 0 -2.18168e+06 173253 0 -2.19393e+06 181946 0 -2.20681e+06 190686 0 -2.22035e+06 199479 0 -2.23454e+06 208332 0 -2.2494e+06 217254 0 -2.26495e+06 226251 0 -2.28119e+06 235332 0 -2.29815e+06 244504 0 -2.31584e+06 253774 0 -2.33428e+06 263152 0 -2.35348e+06 272645 0 -2.37347e+06 282261 0 -2.39426e+06 292006 0 -2.41589e+06 301889 0 -2.43838e+06 311917 0 -2.46175e+06 322094 0 -2.48604e+06 332426 0 -2.51128e+06 342918 0 -2.5375e+06 353571 0 -2.56475e+06 364384 0 -2.59307e+06 375356 0 -2.6225e+06 386480 0 -2.65311e+06 397744 0 -2.68494e+06 409133 0 -2.71806e+06 420623 0 -2.75254e+06 432180 0 -2.78847e+06 443762 0 -2.82592e+06 455308 0 -2.865e+06 466745 0 -2.9058e+06 477972 0 -2.94845e+06 488864 0 -2.99306e+06 499260 0 -3.03977e+06 508954 0 -3.08872e+06 517686 0 -3.14004e+06 525130 0 -3.19386e+06 530875 0 -3.25029e+06 534408 0 -3.30938e+06 535095 0 -3.37111e+06 532160 0 -3.43532e+06 524666 0 -3.50166e+06 511515 0 -3.56947e+06 491464 0 -3.63768e+06 463187 0 -3.70469e+06 425404 0 -3.76827e+06 377106 0 -3.82558e+06 317864 0 -3.87333e+06 248180 0 -3.90822e+06 169779 0 -3.92757e+06 85705 0 -3.92987e+06 -1.01328e-06 0 -2.07648e+06 63046.4 0 -2.08122e+06 71755.4 0 -2.0865e+06 80432.2 0 -2.09233e+06 89081.9 0 -2.09872e+06 97710.4 0 -2.10567e+06 106324 0 -2.11318e+06 114927 0 -2.12126e+06 123528 0 -2.12992e+06 132131 0 -2.13917e+06 140744 0 -2.149e+06 149372 0 -2.15943e+06 158021 0 -2.17046e+06 166700 0 -2.18211e+06 175413 0 -2.19439e+06 184169 0 -2.20729e+06 192974 0 -2.22085e+06 201836 0 -2.23505e+06 210761 0 -2.24993e+06 219758 0 -2.26548e+06 228834 0 -2.28173e+06 237998 0 -2.29869e+06 247256 0 -2.31638e+06 256617 0 -2.33481e+06 266089 0 -2.35401e+06 275680 0 -2.37399e+06 285398 0 -2.39477e+06 295251 0 -2.41638e+06 305247 0 -2.43885e+06 315391 0 -2.4622e+06 325691 0 -2.48646e+06 336152 0 -2.51167e+06 346777 0 -2.53786e+06 357570 0 -2.56507e+06 368531 0 -2.59335e+06 379658 0 -2.62275e+06 390944 0 -2.65331e+06 402380 0 -2.6851e+06 413949 0 -2.71818e+06 425629 0 -2.75263e+06 437388 0 -2.78852e+06 449182 0 -2.82594e+06 460956 0 -2.86499e+06 472634 0 -2.90579e+06 484119 0 -2.94844e+06 495287 0 -2.99308e+06 505977 0 -3.03984e+06 515987 0 -3.08888e+06 525057 0 -3.14034e+06 532861 0 -3.19436e+06 538987 0 -3.25106e+06 542920 0 -3.31053e+06 544018 0 -3.37275e+06 541493 0 -3.43761e+06 534389 0 -3.50477e+06 521573 0 -3.5736e+06 501756 0 -3.64305e+06 473541 0 -3.71151e+06 435564 0 -3.77671e+06 386714 0 -3.83571e+06 326463 0 -3.88507e+06 255254 0 -3.92129e+06 174827 0 -3.94148e+06 88334.8 0 -3.944e+06 6.85453e-07 0 -2.07638e+06 64669.2 0 -2.08117e+06 73404.3 0 -2.08651e+06 82109.9 0 -2.0924e+06 90791.1 0 -2.09883e+06 99453.7 0 -2.10583e+06 108104 0 -2.11338e+06 116747 0 -2.12151e+06 125390 0 -2.13021e+06 134038 0 -2.13949e+06 142698 0 -2.14935e+06 151377 0 -2.15981e+06 160080 0 -2.17088e+06 168814 0 -2.18255e+06 177587 0 -2.19485e+06 186406 0 -2.20777e+06 195276 0 -2.22134e+06 204207 0 -2.23556e+06 213204 0 -2.25045e+06 222277 0 -2.26601e+06 231432 0 -2.28227e+06 240678 0 -2.29923e+06 250022 0 -2.31692e+06 259473 0 -2.33535e+06 269040 0 -2.35453e+06 278729 0 -2.3745e+06 288550 0 -2.39527e+06 298511 0 -2.41686e+06 308618 0 -2.43931e+06 318880 0 -2.46263e+06 329302 0 -2.48687e+06 339891 0 -2.51204e+06 350651 0 -2.5382e+06 361585 0 -2.56538e+06 372693 0 -2.59362e+06 383974 0 -2.62298e+06 395423 0 -2.6535e+06 407030 0 -2.68524e+06 418780 0 -2.71828e+06 430651 0 -2.75269e+06 442612 0 -2.78854e+06 454622 0 -2.82593e+06 466624 0 -2.86496e+06 478545 0 -2.90574e+06 490291 0 -2.9484e+06 501737 0 -2.99306e+06 512727 0 -3.03988e+06 523057 0 -3.08901e+06 532471 0 -3.1406e+06 540643 0 -3.19482e+06 547161 0 -3.2518e+06 551506 0 -3.31164e+06 553032 0 -3.37436e+06 550938 0 -3.43987e+06 544247 0 -3.50786e+06 531796 0 -3.57774e+06 512243 0 -3.64846e+06 484125 0 -3.71842e+06 445984 0 -3.7853e+06 396601 0 -3.84608e+06 335343 0 -3.89713e+06 262582 0 -3.93476e+06 180070 0 -3.95584e+06 91067.9 0 -3.95861e+06 -7.45058e-07 0 -2.07629e+06 66304.6 0 -2.08114e+06 75066 0 -2.08653e+06 83800.6 0 -2.09246e+06 92513.3 0 -2.09895e+06 101210 0 -2.10599e+06 109897 0 -2.11359e+06 118580 0 -2.12176e+06 127265 0 -2.13049e+06 135958 0 -2.13981e+06 144666 0 -2.14971e+06 153395 0 -2.1602e+06 162152 0 -2.17129e+06 170943 0 -2.18299e+06 179775 0 -2.19531e+06 188656 0 -2.20825e+06 197592 0 -2.22184e+06 206592 0 -2.23607e+06 215661 0 -2.25097e+06 224809 0 -2.26654e+06 234043 0 -2.2828e+06 243372 0 -2.29976e+06 252802 0 -2.31745e+06 262344 0 -2.33587e+06 272004 0 -2.35505e+06 281793 0 -2.375e+06 291716 0 -2.39576e+06 301784 0 -2.41733e+06 312004 0 -2.43975e+06 322382 0 -2.46305e+06 332927 0 -2.48726e+06 343644 0 -2.51241e+06 354539 0 -2.53853e+06 365613 0 -2.56567e+06 376869 0 -2.59387e+06 388305 0 -2.62319e+06 399917 0 -2.65366e+06 411696 0 -2.68537e+06 423627 0 -2.71836e+06 435689 0 -2.75273e+06 447854 0 -2.78854e+06 460079 0 -2.8259e+06 472311 0 -2.8649e+06 484479 0 -2.90567e+06 496487 0 -2.94833e+06 508215 0 -2.99301e+06 519507 0 -3.03988e+06 530164 0 -3.08909e+06 539929 0 -3.14082e+06 548477 0 -3.19523e+06 555397 0 -3.25249e+06 560169 0 -3.3127e+06 562139 0 -3.37593e+06 560496 0 -3.44209e+06 554244 0 -3.51093e+06 542186 0 -3.58187e+06 522932 0 -3.6539e+06 494946 0 -3.72541e+06 456673 0 -3.79405e+06 406781 0 -3.85668e+06 344518 0 -3.90952e+06 270180 0 -3.94864e+06 185519 0 -3.97068e+06 93911.7 0 -3.97371e+06 4.17233e-07 0 -2.0762e+06 67952.5 0 -2.08111e+06 76740.5 0 -2.08655e+06 85504.2 0 -2.09254e+06 94248.5 0 -2.09907e+06 102980 0 -2.10616e+06 111703 0 -2.1138e+06 120426 0 -2.12201e+06 129153 0 -2.13078e+06 137892 0 -2.14013e+06 146648 0 -2.15006e+06 155428 0 -2.16058e+06 164238 0 -2.1717e+06 173086 0 -2.18343e+06 181977 0 -2.19577e+06 190921 0 -2.20873e+06 199923 0 -2.22233e+06 208991 0 -2.23658e+06 218132 0 -2.25149e+06 227356 0 -2.26706e+06 236669 0 -2.28333e+06 246080 0 -2.30029e+06 255597 0 -2.31797e+06 265229 0 -2.33639e+06 274983 0 -2.35556e+06 284870 0 -2.3755e+06 294896 0 -2.39624e+06 305071 0 -2.41779e+06 315403 0 -2.44019e+06 325899 0 -2.46347e+06 336567 0 -2.48764e+06 347412 0 -2.51276e+06 358440 0 -2.53884e+06 369655 0 -2.56595e+06 381059 0 -2.59411e+06 392650 0 -2.62338e+06 404426 0 -2.65381e+06 416376 0 -2.68547e+06 428489 0 -2.71842e+06 440744 0 -2.75274e+06 453113 0 -2.78852e+06 465555 0 -2.82584e+06 478019 0 -2.86482e+06 490433 0 -2.90557e+06 502707 0 -2.94822e+06 514721 0 -2.99293e+06 526320 0 -3.03984e+06 537308 0 -3.08914e+06 547430 0 -3.141e+06 556364 0 -3.19561e+06 563697 0 -3.25313e+06 568908 0 -3.31372e+06 571340 0 -3.37745e+06 570169 0 -3.44428e+06 564381 0 -3.51397e+06 552748 0 -3.586e+06 533828 0 -3.65937e+06 506011 0 -3.73248e+06 467643 0 -3.80294e+06 417266 0 -3.86751e+06 354005 0 -3.92224e+06 278063 0 -3.96295e+06 191188 0 -3.98602e+06 96874.1 0 -3.98934e+06 -2.98023e-07 0 -2.07612e+06 69613.1 0 -2.08108e+06 78427.7 0 -2.08658e+06 87220.6 0 -2.09262e+06 95996.8 0 -2.0992e+06 104762 0 -2.10633e+06 113523 0 -2.11402e+06 122286 0 -2.12226e+06 131056 0 -2.13107e+06 139839 0 -2.14046e+06 148643 0 -2.15042e+06 157474 0 -2.16097e+06 166338 0 -2.17212e+06 175242 0 -2.18387e+06 184193 0 -2.19623e+06 193199 0 -2.20921e+06 202267 0 -2.22282e+06 211404 0 -2.23708e+06 220618 0 -2.252e+06 229917 0 -2.26758e+06 239309 0 -2.28385e+06 248802 0 -2.30081e+06 258406 0 -2.31849e+06 268128 0 -2.3369e+06 277977 0 -2.35606e+06 287961 0 -2.37599e+06 298091 0 -2.39671e+06 308373 0 -2.41824e+06 318817 0 -2.44062e+06 329430 0 -2.46387e+06 340220 0 -2.48801e+06 351194 0 -2.51309e+06 362356 0 -2.53914e+06 373712 0 -2.56621e+06 385264 0 -2.59433e+06 397010 0 -2.62355e+06 408949 0 -2.65394e+06 421072 0 -2.68555e+06 433368 0 -2.71846e+06 445816 0 -2.75273e+06 458389 0 -2.78847e+06 471050 0 -2.82575e+06 483746 0 -2.8647e+06 496410 0 -2.90543e+06 508952 0 -2.94808e+06 521254 0 -2.9928e+06 533164 0 -3.03976e+06 544489 0 -3.08914e+06 554975 0 -3.14113e+06 564302 0 -3.19593e+06 572060 0 -3.25373e+06 577725 0 -3.31469e+06 580635 0 -3.37892e+06 579958 0 -3.44642e+06 574662 0 -3.51698e+06 563485 0 -3.59012e+06 544936 0 -3.66487e+06 517328 0 -3.73963e+06 478903 0 -3.81198e+06 428071 0 -3.87859e+06 363820 0 -3.93531e+06 286248 0 -3.9777e+06 197091 0 -4.00187e+06 99963.6 0 -4.00551e+06 -2.98023e-08 0 -2.07605e+06 71286.4 0 -2.08107e+06 80127.7 0 -2.08662e+06 88950 0 -2.0927e+06 97758.2 0 -2.09933e+06 106558 0 -2.10651e+06 115357 0 -2.11424e+06 124159 0 -2.12252e+06 132971 0 -2.13137e+06 141800 0 -2.14079e+06 150652 0 -2.15078e+06 159534 0 -2.16136e+06 168451 0 -2.17253e+06 177412 0 -2.1843e+06 186423 0 -2.19669e+06 195492 0 -2.20969e+06 204625 0 -2.22332e+06 213831 0 -2.23759e+06 223117 0 -2.25251e+06 232492 0 -2.2681e+06 241963 0 -2.28437e+06 251539 0 -2.30133e+06 261229 0 -2.319e+06 271041 0 -2.3374e+06 280984 0 -2.35655e+06 291067 0 -2.37647e+06 301299 0 -2.39717e+06 311689 0 -2.41868e+06 322244 0 -2.44104e+06 332975 0 -2.46425e+06 343887 0 -2.48837e+06 354989 0 -2.51341e+06 366286 0 -2.53943e+06 377783 0 -2.56645e+06 389482 0 -2.59453e+06 401385 0 -2.62371e+06 413487 0 -2.65405e+06 425783 0 -2.68561e+06 438261 0 -2.71847e+06 450903 0 -2.7527e+06 463683 0 -2.78839e+06 476563 0 -2.82564e+06 489494 0 -2.86455e+06 502409 0 -2.90526e+06 515221 0 -2.94791e+06 527814 0 -2.99265e+06 540041 0 -3.03965e+06 551707 0 -3.0891e+06 562564 0 -3.14122e+06 572294 0 -3.1962e+06 580486 0 -3.25427e+06 586619 0 -3.31561e+06 590025 0 -3.38034e+06 589866 0 -3.44851e+06 585088 0 -3.51996e+06 574401 0 -3.59422e+06 556262 0 -3.67038e+06 528906 0 -3.74685e+06 490465 0 -3.82117e+06 439210 0 -3.88991e+06 373979 0 -3.94873e+06 294752 0 -3.99292e+06 203243 0 -4.01826e+06 103189 0 -4.02225e+06 5.96046e-08 0 -2.07599e+06 72972.3 0 -2.08106e+06 81840.6 0 -2.08666e+06 90692.4 0 -2.0928e+06 99532.7 0 -2.09947e+06 108368 0 -2.10669e+06 117203 0 -2.11446e+06 126045 0 -2.12278e+06 134901 0 -2.13167e+06 143775 0 -2.14112e+06 152675 0 -2.15115e+06 161607 0 -2.16175e+06 170579 0 -2.17295e+06 179597 0 -2.18474e+06 188667 0 -2.19714e+06 197798 0 -2.21016e+06 206998 0 -2.2238e+06 216272 0 -2.23809e+06 225631 0 -2.25302e+06 235081 0 -2.26861e+06 244631 0 -2.28488e+06 254290 0 -2.30184e+06 264066 0 -2.31951e+06 273968 0 -2.3379e+06 284005 0 -2.35704e+06 294187 0 -2.37694e+06 304521 0 -2.39762e+06 315018 0 -2.41911e+06 325686 0 -2.44144e+06 336534 0 -2.46463e+06 347569 0 -2.48871e+06 358799 0 -2.51372e+06 370230 0 -2.5397e+06 381868 0 -2.56668e+06 393716 0 -2.59471e+06 405774 0 -2.62384e+06 418040 0 -2.65414e+06 430510 0 -2.68565e+06 443171 0 -2.71846e+06 456007 0 -2.75264e+06 468993 0 -2.78829e+06 482094 0 -2.82549e+06 495261 0 -2.86438e+06 508430 0 -2.90506e+06 521514 0 -2.9477e+06 534403 0 -2.99245e+06 546949 0 -3.03949e+06 558962 0 -3.08902e+06 570197 0 -3.14126e+06 580338 0 -3.19643e+06 588977 0 -3.25476e+06 595591 0 -3.31647e+06 599513 0 -3.38171e+06 599893 0 -3.45056e+06 595662 0 -3.52289e+06 585500 0 -3.5983e+06 567812 0 -3.6759e+06 540753 0 -3.75413e+06 502340 0 -3.8305e+06 450699 0 -3.90148e+06 384501 0 -3.96252e+06 303596 0 -4.00861e+06 209660 0 -4.03521e+06 106561 0 -4.03958e+06 0 0 -2.07593e+06 74670.9 0 -2.08106e+06 83566.3 0 -2.08671e+06 92447.7 0 -2.09289e+06 101320 0 -2.09962e+06 110190 0 -2.10688e+06 119063 0 -2.11469e+06 127945 0 -2.12305e+06 136843 0 -2.13197e+06 145763 0 -2.14146e+06 154712 0 -2.15151e+06 163695 0 -2.16215e+06 172720 0 -2.17337e+06 181795 0 -2.18518e+06 190925 0 -2.1976e+06 200119 0 -2.21063e+06 209384 0 -2.22429e+06 218728 0 -2.23858e+06 228158 0 -2.25352e+06 237684 0 -2.26912e+06 247313 0 -2.28539e+06 257055 0 -2.30235e+06 266917 0 -2.32001e+06 276909 0 -2.33839e+06 287041 0 -2.35752e+06 297320 0 -2.3774e+06 307758 0 -2.39806e+06 318362 0 -2.41953e+06 329142 0 -2.44183e+06 340107 0 -2.46499e+06 351264 0 -2.48904e+06 362623 0 -2.51402e+06 374189 0 -2.53995e+06 385967 0 -2.56689e+06 397963 0 -2.59488e+06 410177 0 -2.62396e+06 422608 0 -2.65421e+06 435251 0 -2.68567e+06 448096 0 -2.71843e+06 461127 0 -2.75256e+06 474321 0 -2.78816e+06 487643 0 -2.82532e+06 501048 0 -2.86417e+06 514472 0 -2.90483e+06 527832 0 -2.94746e+06 541019 0 -2.99222e+06 553888 0 -3.03929e+06 566254 0 -3.08889e+06 577874 0 -3.14125e+06 588435 0 -3.1966e+06 597532 0 -3.2552e+06 604643 0 -3.31727e+06 609097 0 -3.38302e+06 610040 0 -3.45255e+06 606387 0 -3.52578e+06 596785 0 -3.60236e+06 579590 0 -3.68143e+06 552876 0 -3.76147e+06 514541 0 -3.83997e+06 462553 0 -3.91329e+06 395407 0 -3.97668e+06 312799 0 -4.0248e+06 216362 0 -4.05275e+06 110089 0 -4.05754e+06 -1.19209e-07 0 -2.07589e+06 76382.1 0 -2.08106e+06 85304.8 0 -2.08677e+06 94216 0 -2.093e+06 103121 0 -2.09977e+06 112026 0 -2.10707e+06 120936 0 -2.11492e+06 129859 0 -2.12332e+06 138800 0 -2.13228e+06 147765 0 -2.14179e+06 156762 0 -2.15188e+06 165796 0 -2.16254e+06 174876 0 -2.17378e+06 184007 0 -2.18562e+06 193197 0 -2.19806e+06 202454 0 -2.21111e+06 211785 0 -2.22478e+06 221197 0 -2.23908e+06 230700 0 -2.25402e+06 240302 0 -2.26962e+06 250010 0 -2.28589e+06 259834 0 -2.30285e+06 269782 0 -2.3205e+06 279865 0 -2.33888e+06 290090 0 -2.35799e+06 300468 0 -2.37785e+06 311008 0 -2.3985e+06 321720 0 -2.41994e+06 332612 0 -2.44222e+06 343694 0 -2.46535e+06 354974 0 -2.48936e+06 366461 0 -2.5143e+06 378161 0 -2.54019e+06 390081 0 -2.56709e+06 402225 0 -2.59503e+06 414595 0 -2.62406e+06 427190 0 -2.65426e+06 440007 0 -2.68567e+06 453037 0 -2.71838e+06 466264 0 -2.75246e+06 479666 0 -2.788e+06 493211 0 -2.82512e+06 506855 0 -2.86393e+06 520536 0 -2.90457e+06 534174 0 -2.94718e+06 547662 0 -2.99194e+06 560860 0 -3.03905e+06 573584 0 -3.08872e+06 585596 0 -3.14119e+06 596585 0 -3.19672e+06 606151 0 -3.25557e+06 613773 0 -3.31801e+06 618780 0 -3.38426e+06 620310 0 -3.45447e+06 617263 0 -3.52861e+06 608260 0 -3.60637e+06 591603 0 -3.68696e+06 565285 0 -3.76887e+06 527080 0 -3.84958e+06 474789 0 -3.92535e+06 406715 0 -3.99122e+06 322385 0 -4.04151e+06 223368 0 -4.07092e+06 113786 0 -4.07616e+06 -5.96046e-08 0 -2.07585e+06 78106.1 0 -2.08108e+06 87056.1 0 -2.08683e+06 95997.3 0 -2.09311e+06 104935 0 -2.09992e+06 113875 0 -2.10727e+06 122823 0 -2.11516e+06 131786 0 -2.1236e+06 140770 0 -2.13258e+06 149781 0 -2.14213e+06 158826 0 -2.15225e+06 167912 0 -2.16293e+06 177045 0 -2.1742e+06 186233 0 -2.18606e+06 195483 0 -2.19851e+06 204803 0 -2.21158e+06 214199 0 -2.22526e+06 223681 0 -2.23957e+06 233256 0 -2.25452e+06 242933 0 -2.27012e+06 252720 0 -2.28639e+06 262627 0 -2.30334e+06 272662 0 -2.32099e+06 282834 0 -2.33936e+06 293154 0 -2.35845e+06 303630 0 -2.3783e+06 314273 0 -2.39892e+06 325091 0 -2.42034e+06 336096 0 -2.44259e+06 347295 0 -2.46569e+06 358697 0 -2.48967e+06 370312 0 -2.51456e+06 382147 0 -2.54042e+06 394208 0 -2.56726e+06 406501 0 -2.59516e+06 419027 0 -2.62415e+06 431787 0 -2.65429e+06 444778 0 -2.68565e+06 457993 0 -2.7183e+06 471416 0 -2.75233e+06 485028 0 -2.78782e+06 498797 0 -2.82489e+06 512681 0 -2.86366e+06 526622 0 -2.90427e+06 540540 0 -2.94686e+06 554333 0 -2.99163e+06 567863 0 -3.03876e+06 580951 0 -3.0885e+06 593361 0 -3.14108e+06 604789 0 -3.19678e+06 614835 0 -3.25588e+06 622983 0 -3.31869e+06 628561 0 -3.38544e+06 630703 0 -3.45633e+06 628294 0 -3.53139e+06 619928 0 -3.61035e+06 603856 0 -3.69248e+06 577988 0 -3.77631e+06 539970 0 -3.85932e+06 487426 0 -3.93767e+06 418450 0 -4.00616e+06 332378 0 -4.05875e+06 230699 0 -4.08973e+06 117664 0 -4.09546e+06 3.57628e-07 0 -2.07582e+06 79842.8 0 -2.0811e+06 88820.3 0 -2.0869e+06 97791.6 0 -2.09323e+06 106762 0 -2.10008e+06 115737 0 -2.10747e+06 124723 0 -2.1154e+06 133726 0 -2.12387e+06 142753 0 -2.1329e+06 151810 0 -2.14248e+06 160904 0 -2.15262e+06 170041 0 -2.16333e+06 179228 0 -2.17462e+06 188473 0 -2.1865e+06 197783 0 -2.19897e+06 207165 0 -2.21205e+06 216628 0 -2.22574e+06 226179 0 -2.24006e+06 235826 0 -2.25501e+06 245579 0 -2.27062e+06 255445 0 -2.28689e+06 265434 0 -2.30383e+06 275556 0 -2.32147e+06 285818 0 -2.33983e+06 296232 0 -2.35891e+06 306806 0 -2.37874e+06 317552 0 -2.39934e+06 328477 0 -2.42073e+06 339593 0 -2.44295e+06 350909 0 -2.46601e+06 362435 0 -2.48996e+06 374178 0 -2.51482e+06 386148 0 -2.54062e+06 398350 0 -2.56743e+06 410791 0 -2.59527e+06 423473 0 -2.62421e+06 436399 0 -2.6543e+06 449565 0 -2.6856e+06 462964 0 -2.7182e+06 476585 0 -2.75217e+06 490406 0 -2.78761e+06 504401 0 -2.82463e+06 518527 0 -2.86336e+06 532729 0 -2.90393e+06 546931 0 -2.94651e+06 561031 0 -2.99127e+06 574898 0 -3.03843e+06 588354 0 -3.08823e+06 601170 0 -3.14091e+06 613045 0 -3.19678e+06 623584 0 -3.25613e+06 632273 0 -3.31929e+06 638442 0 -3.38655e+06 641220 0 -3.45812e+06 639482 0 -3.5341e+06 631792 0 -3.61428e+06 616355 0 -3.69798e+06 590994 0 -3.78379e+06 553223 0 -3.86919e+06 500481 0 -3.95023e+06 430633 0 -4.0215e+06 342803 0 -4.07656e+06 238378 0 -4.10922e+06 121737 0 -4.11549e+06 -6.55651e-07 0 -2.07579e+06 81592.2 0 -2.08112e+06 90597.4 0 -2.08698e+06 99598.9 0 -2.09335e+06 108602 0 -2.10025e+06 117612 0 -2.10768e+06 126636