<?xml version="1.0"?> 
<VTKFile type="StructuredGrid" version="0.1"> 
<StructuredGrid WholeExtent="0 63 0 63 0 0"> 
<Piece Extent="0 63 0 63 0 0"> 
<PointData>
<DataArray type="Float32" Name="|E|" format="ascii" NumberOfComponents="3"> 
299766 4.54657e+06 0 300167 4.55267e+06 0 300576 4.55886e+06 0 300991 4.56516e+06 0 301413 4.57157e+06 0 301843 4.57808e+06 0 302280 4.58471e+06 0 302725 4.59146e+06 0 303178 4.59832e+06 0 303638 4.60531e+06 0 304107 4.61242e+06 0 304585 4.61967e+06 0 305071 4.62704e+06 0 305566 4.63455e+06 0 306071 4.6422e+06 0 306585 4.65e+06 0 307109 4.65795e+06 0 307643 4.66605e+06 0 308188 4.67431e+06 0 308743 4.68273e+06 0 309309 4.69133e+06 0 309888 4.70009e+06 0 310478 4.70904e+06 0 311080 4.71818e+06 0 311695 4.72751e+06 0 312324 4.73704e+06 0 312966 4.74678e+06 0 313622 4.75674e+06 0 314293 4.76692e+06 0 314980 4.77733e+06 0 315683 4.78799e+06 0 316402 4.7989e+06 0 317139 4.81008e+06 0 317894 4.82153e+06 0 318668 4.83327e+06 0 319462 4.84531e+06 0 320277 4.85767e+06 0 321113 4.87036e+06 0 321973 4.8834e+06 0 322857 4.8968e+06 0 323767 4.9106e+06 0 324703 4.9248e+06 0 325668 4.93944e+06 0 326664 4.95454e+06 0 327692 4.97014e+06 0 328755 4.98626e+06 0 329855 5.00294e+06 0 330995 5.02023e+06 0 332178 5.03818e+06 0 333408 5.05683e+06 0 334689 5.07626e+06 0 336026 5.09654e+06 0 337425 5.11775e+06 0 338892 5.14001e+06 0 340437 5.16343e+06 0 342068 5.18818e+06 0 343799 5.21443e+06 0 345644 5.24242e+06 0 347623 5.27244e+06 0 349761 5.30486e+06 0 352090 5.34018e+06 0 354650 5.379e+06 0 357495 5.42216e+06 0 360699 5.47076e+06 0 346346 4.53724e+06 0 347521 4.54316e+06 0 348721 4.54916e+06 0 349948 4.55527e+06 0 351202 4.56148e+06 0 352484 4.56779e+06 0 353796 4.57421e+06 0 355138 4.58074e+06 0 356511 4.58738e+06 0 357917 4.59414e+06 0 359357 4.60101e+06 0 360832 4.608e+06 0 362343 4.61512e+06 0 363892 4.62236e+06 0 365481 4.62974e+06 0 367111 4.63725e+06 0 368784 4.6449e+06 0 370502 4.65269e+06 0 372266 4.66063e+06 0 374079 4.66871e+06 0 375943 4.67696e+06 0 377860 4.68536e+06 0 379833 4.69393e+06 0 381865 4.70267e+06 0 383958 4.71158e+06 0 386116 4.72068e+06 0 388342 4.72996e+06 0 390639 4.73944e+06 0 393011 4.74912e+06 0 395463 4.759e+06 0 397999 4.7691e+06 0 400624 4.77943e+06 0 403343 4.78998e+06 0 406161 4.80077e+06 0 409086 4.81182e+06 0 412124 4.82312e+06 0 415283 4.83469e+06 0 418570 4.84654e+06 0 421996 4.85867e+06 0 425569 4.87112e+06 0 429301 4.88388e+06 0 433204 4.89696e+06 0 437293 4.91039e+06 0 441581 4.92419e+06 0 446087 4.93835e+06 0 450830 4.95291e+06 0 455832 4.96787e+06 0 461116 4.98327e+06 0 466713 4.99911e+06 0 472652 5.01541e+06 0 478972 5.0322e+06 0 485715 5.04949e+06 0 492931 5.0673e+06 0 500677 5.08564e+06 0 509020 5.10452e+06 0 518040 5.12393e+06 0 527830 5.14387e+06 0 538503 5.16431e+06 0 550191 5.18518e+06 0 563057 5.2064e+06 0 577294 5.2278e+06 0 593140 5.24915e+06 0 610880 5.2701e+06 0 630893 5.2901e+06 0 390655 4.52228e+06 0 392534 4.52788e+06 0 394455 4.53356e+06 0 396418 4.53934e+06 0 398425 4.5452e+06 0 400477 4.55116e+06 0 402577 4.55721e+06 0 404726 4.56336e+06 0 406925 4.56961e+06 0 409176 4.57595e+06 0 411482 4.5824e+06 0 413844 4.58896e+06 0 416264 4.59562e+06 0 418745 4.60239e+06 0 421290 4.60928e+06 0 423899 4.61628e+06 0 426577 4.6234e+06 0 429326 4.63064e+06 0 432149 4.638e+06 0 435049 4.64549e+06 0 438029 4.65311e+06 0 441093 4.66086e+06 0 444245 4.66874e+06 0 447488 4.67677e+06 0 450826 4.68494e+06 0 454265 4.69325e+06 0 457808 4.70172e+06 0 461461 4.71034e+06 0 465229 4.71911e+06 0 469118 4.72805e+06 0 473134 4.73715e+06 0 477283 4.74642e+06 0 481572 4.75586e+06 0 486009 4.76548e+06 0 490602 4.77528e+06 0 495359 4.78527e+06 0 500290 4.79544e+06 0 505404 4.80581e+06 0 510712 4.81638e+06 0 516226 4.82714e+06 0 521957 4.83811e+06 0 527919 4.84929e+06 0 534125 4.86068e+06 0 540593 4.87228e+06 0 547337 4.88409e+06 0 554375 4.89612e+06 0 561727 4.90836e+06 0 569412 4.92082e+06 0 577453 4.93349e+06 0 585872 4.94636e+06 0 594695 4.95943e+06 0 603947 4.9727e+06 0 613655 4.98614e+06 0 623846 4.99975e+06 0 634551 5.01351e+06 0 645796 5.02739e+06 0 657608 5.04138e+06 0 670011 5.05545e+06 0 683026 5.06957e+06 0 696662 5.08373e+06 0 710921 5.09792e+06 0 725784 5.11214e+06 0 741210 5.12643e+06 0 757114 5.14091e+06 0 431841 4.5024e+06 0 434329 4.50759e+06 0 436870 4.51285e+06 0 439465 4.51818e+06 0 442116 4.5236e+06 0 444825 4.52909e+06 0 447594 4.53465e+06 0 450425 4.5403e+06 0 453319 4.54603e+06 0 456279 4.55185e+06 0 459307 4.55775e+06 0 462406 4.56373e+06 0 465577 4.5698e+06 0 468824 4.57596e+06 0 472149 4.58221e+06 0 475555 4.58856e+06 0 479045 4.59499e+06 0 482622 4.60152e+06 0 486288 4.60815e+06 0 490048 4.61488e+06 0 493905 4.6217e+06 0 497863 4.62863e+06 0 501926 4.63566e+06 0 506097 4.64279e+06 0 510381 4.65003e+06 0 514782 4.65738e+06 0 519305 4.66483e+06 0 523956 4.6724e+06 0 528739 4.68007e+06 0 533660 4.68786e+06 0 538724 4.69576e+06 0 543938 4.70378e+06 0 549307 4.71191e+06 0 554840 4.72016e+06 0 560541 4.72852e+06 0 566420 4.737e+06 0 572484 4.7456e+06 0 578740 4.75431e+06 0 585197 4.76315e+06 0 591864 4.77209e+06 0 598750 4.78115e+06 0 605865 4.79032e+06 0 613219 4.79961e+06 0 620822 4.809e+06 0 628685 4.81849e+06 0 636819 4.82809e+06 0 645236 4.83778e+06 0 653947 4.84756e+06 0 662964 4.85742e+06 0 672300 4.86736e+06 0 681966 4.87737e+06 0 691976 4.88744e+06 0 702341 4.89756e+06 0 713073 4.90772e+06 0 724185 4.91791e+06 0 735688 4.9281e+06 0 747595 4.9383e+06 0 759916 4.94847e+06 0 772664 4.95861e+06 0 785852 4.96869e+06 0 799496 4.97868e+06 0 813614 4.98853e+06 0 828233 4.9982e+06 0 843392 5.00761e+06 0 469314 4.47844e+06 0 472302 4.48315e+06 0 475351 4.48792e+06 0 478461 4.49275e+06 0 481634 4.49764e+06 0 484872 4.50259e+06 0 488178 4.50761e+06 0 491553 4.51269e+06 0 494998 4.51783e+06 0 498517 4.52304e+06 0 502112 4.52831e+06 0 505784 4.53365e+06 0 509537 4.53906e+06 0 513372 4.54453e+06 0 517292 4.55008e+06 0 521300 4.55569e+06 0 525399 4.56137e+06 0 529592 4.56712e+06 0 533881 4.57294e+06 0 538269 4.57883e+06 0 542761 4.58479e+06 0 547359 4.59083e+06 0 552066 4.59693e+06 0 556887 4.60311e+06 0 561825 4.60936e+06 0 566884 4.61569e+06 0 572067 4.62208e+06 0 577380 4.62855e+06 0 582826 4.63509e+06 0 588410 4.6417e+06 0 594137 4.64838e+06 0 600011 4.65513e+06 0 606037 4.66195e+06 0 612221 4.66883e+06 0 618567 4.67579e+06 0 625081 4.68281e+06 0 631769 4.68989e+06 0 638636 4.69704e+06 0 645688 4.70424e+06 0 652932 4.7115e+06 0 660373 4.71882e+06 0 668017 4.72618e+06 0 675871 4.7336e+06 0 683942 4.74105e+06 0 692236 4.74855e+06 0 700759 4.75608e+06 0 709518 4.76363e+06 0 718519 4.77121e+06 0 727770 4.77881e+06 0 737276 4.78642e+06 0 747044 4.79403e+06 0 757080 4.80163e+06 0 767390 4.80922e+06 0 777979 4.81678e+06 0 788853 4.82431e+06 0 800017 4.8318e+06 0 811475 4.83924e+06 0 823230 4.84661e+06 0 835284 4.8539e+06 0 847639 4.86111e+06 0 860293 4.86822e+06 0 873243 4.87523e+06 0 886480 4.88214e+06 0 899988 4.88896e+06 0 502739 4.45127e+06 0 506119 4.45547e+06 0 509562 4.45971e+06 0 513070 4.464e+06 0 516645 4.46834e+06 0 520288 4.47272e+06 0 524000 4.47715e+06 0 527785 4.48163e+06 0 531643 4.48616e+06 0 535577 4.49074e+06 0 539589 4.49536e+06 0 543681 4.50003e+06 0 547854 4.50475e+06 0 552111 4.50952e+06 0 556455 4.51433e+06 0 560887 4.5192e+06 0 565411 4.52411e+06 0 570028 4.52907e+06 0 574741 4.53408e+06 0 579553 4.53913e+06 0 584466 4.54424e+06 0 589483 4.54938e+06 0 594608 4.55458e+06 0 599842 4.55982e+06 0 605189 4.56511e+06 0 610652 4.57044e+06 0 616234 4.57581e+06 0 621939 4.58123e+06 0 627769 4.58668e+06 0 633728 4.59218e+06 0 639819 4.59772e+06 0 646047 4.60329e+06 0 652414 4.6089e+06 0 658924 4.61454e+06 0 665580 4.62022e+06 0 672388 4.62592e+06 0 679349 4.63165e+06 0 686469 4.63741e+06 0 693751 4.64319e+06 0 701199 4.64899e+06 0 708817 4.6548e+06 0 716608 4.66063e+06 0 724577 4.66646e+06 0 732727 4.6723e+06 0 741062 4.67815e+06 0 749587 4.68399e+06 0 758304 4.68982e+06 0 767217 4.69564e+06 0 776330 4.70144e+06 0 785646 4.70721e+06 0 795169 4.71296e+06 0 804900 4.71867e+06 0 814844 4.72434e+06 0 825002 4.72997e+06 0 835378 4.73554e+06 0 845972 4.74105e+06 0 856787 4.74649e+06 0 867825 4.75185e+06 0 879087 4.75713e+06 0 890574 4.76232e+06 0 902288 4.76741e+06 0 914232 4.77239e+06 0 926407 4.77724e+06 0 938821 4.78194e+06 0 532003 4.42171e+06 0 535673 4.42539e+06 0 539407 4.4291e+06 0 543206 4.43285e+06 0 547072 4.43663e+06 0 551006 4.44044e+06 0 555009 4.44429e+06 0 559083 4.44817e+06 0 563231 4.45208e+06 0 567453 4.45603e+06 0 571751 4.46001e+06 0 576127 4.46402e+06 0 580582 4.46807e+06 0 585120 4.47214e+06 0 589741 4.47625e+06 0 594447 4.48039e+06 0 599240 4.48456e+06 0 604123 4.48876e+06 0 609098 4.49299e+06 0 614165 4.49725e+06 0 619329 4.50154e+06 0 624590 4.50585e+06 0 629951 4.51019e+06 0 635414 4.51456e+06 0 640982 4.51895e+06 0 646656 4.52336e+06 0 652440 4.5278e+06 0 658335 4.53225e+06 0 664343 4.53673e+06 0 670468 4.54122e+06 0 676712 4.54573e+06 0 683077 4.55025e+06 0 689566 4.55479e+06 0 696181 4.55933e+06 0 702925 4.56388e+06 0 709799 4.56844e+06 0 716808 4.57301e+06 0 723952 4.57757e+06 0 731236 4.58214e+06 0 738660 4.5867e+06 0 746228 4.59125e+06 0 753941 4.59579e+06 0 761803 4.60032e+06 0 769816 4.60483e+06 0 777981 4.60933e+06 0 786301 4.6138e+06 0 794777 4.61824e+06 0 803413 4.62265e+06 0 812210 4.62702e+06 0 821168 4.63136e+06 0 830291 4.63565e+06 0 839580 4.63989e+06 0 849035 4.64407e+06 0 858658 4.6482e+06 0 868451 4.65227e+06 0 878413 4.65626e+06 0 888545 4.66018e+06 0 898848 4.66403e+06 0 909322 4.66778e+06 0 919966 4.67145e+06 0 930780 4.67502e+06 0 941763 4.67849e+06 0 952912 4.68186e+06 0 964223 4.68512e+06 0 557157 4.3905e+06 0 561030 4.39366e+06 0 564964 4.39686e+06 0 568961 4.40007e+06 0 573023 4.40331e+06 0 577150 4.40657e+06 0 581345 4.40985e+06 0 585607 4.41315e+06 0 589940 4.41648e+06 0 594343 4.41983e+06 0 598819 4.42319e+06 0 603369 4.42658e+06 0 607994 4.42999e+06 0 612696 4.43341e+06 0 617476 4.43686e+06 0 622336 4.44032e+06 0 627277 4.4438e+06 0 632301 4.44729e+06 0 637410 4.4508e+06 0 642605 4.45433e+06 0 647887 4.45787e+06 0 653259 4.46142e+06 0 658721 4.46498e+06 0 664277 4.46855e+06 0 669926 4.47213e+06 0 675672 4.47572e+06 0 681515 4.47931e+06 0 687458 4.48291e+06 0 693502 4.48652e+06 0 699648 4.49012e+06 0 705899 4.49373e+06 0 712256 4.49733e+06 0 718721 4.50094e+06 0 725296 4.50453e+06 0 731981 4.50812e+06 0 738780 4.5117e+06 0 745693 4.51527e+06 0 752721 4.51882e+06 0 759868 4.52236e+06 0 767133 4.52589e+06 0 774519 4.52939e+06 0 782027 4.53286e+06 0 789659 4.53632e+06 0 797415 4.53974e+06 0 805297 4.54313e+06 0 813306 4.54648e+06 0 821443 4.5498e+06 0 829710 4.55308e+06 0 838106 4.55631e+06 0 846634 4.5595e+06 0 855294 4.56263e+06 0 864085 4.56571e+06 0 873010 4.56873e+06 0 882068 4.57169e+06 0 891260 4.57458e+06 0 900585 4.5774e+06 0 910044 4.58016e+06 0 919637 4.58283e+06 0 929363 4.58542e+06 0 939222 4.58793e+06 0 949214 4.59035e+06 0 959338 4.59267e+06 0 969594 4.5949e+06 0 979982 4.59702e+06 0 578371 4.35824e+06 0 582370 4.36092e+06 0 586428 4.36362e+06 0 590547 4.36633e+06 0 594726 4.36905e+06 0 598967 4.37179e+06 0 603271 4.37454e+06 0 607639 4.3773e+06 0 612073 4.38008e+06 0 616572 4.38287e+06 0 621139 4.38566e+06 0 625775 4.38847e+06 0 630480 4.39129e+06 0 635257 4.39411e+06 0 640105 4.39694e+06 0 645026 4.39978e+06 0 650021 4.40263e+06 0 655093 4.40548e+06 0 660240 4.40834e+06 0 665466 4.4112e+06 0 670771 4.41406e+06 0 676156 4.41693e+06 0 681622 4.41979e+06 0 687172 4.42266e+06 0 692805 4.42552e+06 0 698523 4.42838e+06 0 704328 4.43123e+06 0 710220 4.43408e+06 0 716200 4.43692e+06 0 722271 4.43976e+06 0 728432 4.44258e+06 0 734686 4.44539e+06 0 741033 4.44819e+06 0 747474 4.45097e+06 0 754011 4.45374e+06 0 760644 4.45648e+06 0 767375 4.45921e+06 0 774204 4.46191e+06 0 781132 4.46459e+06 0 788161 4.46725e+06 0 795291 4.46987e+06 0 802523 4.47246e+06 0 809858 4.47502e+06 0 817297 4.47755e+06 0 824839 4.48003e+06 0 832487 4.48248e+06 0 840240 4.48488e+06 0 848098 4.48724e+06 0 856063 4.48955e+06 0 864135 4.49181e+06 0 872314 4.49402e+06 0 880599 4.49617e+06 0 888992 4.49826e+06 0 897492 4.50029e+06 0 906099 4.50225e+06 0 914812 4.50415e+06 0 923633 4.50598e+06 0 932560 4.50773e+06 0 941592 4.50941e+06 0 950730 4.51101e+06 0 959972 4.51252e+06 0 969318 4.51396e+06 0 978766 4.5153e+06 0 988316 4.51655e+06 0 595880 4.32546e+06 0 599946 4.32769e+06 0 604067 4.32992e+06 0 608243 4.33216e+06 0 612477 4.3344e+06 0 616768 4.33666e+06 0 621117 4.33891e+06 0 625525 4.34118e+06 0 629994 4.34344e+06 0 634523 4.34571e+06 0 639114 4.34799e+06 0 643768 4.35027e+06 0 648486 4.35254e+06 0 653267 4.35482e+06 0 658115 4.3571e+06 0 663028 4.35938e+06 0 668009 4.36166e+06 0 673057 4.36393e+06 0 678174 4.3662e+06 0 683361 4.36847e+06 0 688619 4.37073e+06 0 693948 4.37299e+06 0 699349 4.37524e+06 0 704824 4.37748e+06 0 710372 4.37971e+06 0 715995 4.38193e+06 0 721694 4.38413e+06 0 727470 4.38633e+06 0 733323 4.38851e+06 0 739254 4.39067e+06 0 745264 4.39282e+06 0 751353 4.39495e+06 0 757523 4.39706e+06 0 763774 4.39915e+06 0 770106 4.40121e+06 0 776521 4.40325e+06 0 783019 4.40526e+06 0 789600 4.40725e+06 0 796266 4.40921e+06 0 803016 4.41113e+06 0 809851 4.41302e+06 0 816772 4.41488e+06 0 823779 4.4167e+06 0 830872 4.41848e+06 0 838052 4.42022e+06 0 845318 4.42192e+06 0 852672 4.42357e+06 0 860113 4.42518e+06 0 867642 4.42674e+06 0 875258 4.42825e+06 0 882962 4.4297e+06 0 890752 4.4311e+06 0 898631 4.43244e+06 0 906596 4.43372e+06 0 914648 4.43495e+06 0 922786 4.4361e+06 0 931010 4.43719e+06 0 939320 4.43822e+06 0 947715 4.43917e+06 0 956195 4.44005e+06 0 964758 4.44085e+06 0 973404 4.44157e+06 0 982132 4.44222e+06 0 990942 4.44278e+06 0 609962 4.29255e+06 0 614045 4.29436e+06 0 618179 4.29616e+06 0 622365 4.29797e+06 0 626603 4.29977e+06 0 630893 4.30158e+06 0 635237 4.30339e+06 0 639635 4.3052e+06 0 644088 4.307e+06 0 648596 4.3088e+06 0 653161 4.3106e+06 0 657782 4.3124e+06 0 662461 4.31419e+06 0 667198 4.31598e+06 0 671993 4.31776e+06 0 676848 4.31954e+06 0 681763 4.32131e+06 0 686739 4.32307e+06 0 691776 4.32482e+06 0 696874 4.32656e+06 0 702036 4.32829e+06 0 707261 4.33001e+06 0 712549 4.33171e+06 0 717902 4.33341e+06 0 723320 4.33508e+06 0 728804 4.33674e+06 0 734353 4.33839e+06 0 739970 4.34002e+06 0 745653 4.34162e+06 0 751404 4.34321e+06 0 757223 4.34478e+06 0 763112 4.34632e+06 0 769069 4.34784e+06 0 775095 4.34933e+06 0 781192 4.3508e+06 0 787359 4.35224e+06 0 793597 4.35365e+06 0 799905 4.35503e+06 0 806285 4.35638e+06 0 812737 4.35769e+06 0 819260 4.35897e+06 0 825856 4.36021e+06 0 832523 4.36141e+06 0 839263 4.36258e+06 0 846076 4.3637e+06 0 852961 4.36478e+06 0 859918 4.36582e+06 0 866948 4.3668e+06 0 874050 4.36774e+06 0 881224 4.36864e+06 0 888471 4.36948e+06 0 895789 4.37026e+06 0 903179 4.37099e+06 0 910641 4.37167e+06 0 918173 4.37229e+06 0 925776 4.37285e+06 0 933449 4.37334e+06 0 941192 4.37377e+06 0 949004 4.37414e+06 0 956884 4.37444e+06 0 964832 4.37467e+06 0 972847 4.37483e+06 0 980928 4.37492e+06 0 989074 4.37493e+06 0 620903 4.25984e+06 0 624966 4.26126e+06 0 629075 4.26267e+06 0 633232 4.26408e+06 0 637436 4.26549e+06 0 641688 4.26689e+06 0 645988 4.26829e+06 0 650338 4.26968e+06 0 654737 4.27107e+06 0 659186 4.27245e+06 0 663686 4.27382e+06 0 668237 4.27519e+06 0 672840 4.27655e+06 0 677495 4.27789e+06 0 682202 4.27923e+06 0 686962 4.28056e+06 0 691776 4.28188e+06 0 696643 4.28318e+06 0 701565 4.28447e+06 0 706542 4.28575e+06 0 711575 4.28701e+06 0 716662 4.28826e+06 0 721806 4.28949e+06 0 727007 4.2907e+06 0 732264 4.2919e+06 0 737579 4.29307e+06 0 742951 4.29423e+06 0 748382 4.29537e+06 0 753870 4.29648e+06 0 759418 4.29757e+06 0 765024 4.29863e+06 0 770690 4.29968e+06 0 776415 4.30069e+06 0 782200 4.30168e+06 0 788044 4.30263e+06 0 793949 4.30356e+06 0 799914 4.30446e+06 0 805940 4.30533e+06 0 812027 4.30616e+06 0 818174 4.30696e+06 0 824382 4.30772e+06 0 830650 4.30844e+06 0 836980 4.30913e+06 0 843370 4.30978e+06 0 849821 4.31039e+06 0 856333 4.31095e+06 0 862906 4.31147e+06 0 869539 4.31195e+06 0 876232 4.31238e+06 0 882986 4.31276e+06 0 889799 4.31309e+06 0 896672 4.31338e+06 0 903604 4.31361e+06 0 910596 4.31379e+06 0 917645 4.31391e+06 0 924753 4.31398e+06 0 931918 4.31399e+06 0 939141 4.31394e+06 0 946420 4.31383e+06 0 953755 4.31366e+06 0 961145 4.31343e+06 0 968590 4.31313e+06 0 976089 4.31277e+06 0 983642 4.31234e+06 0 628991 4.22756e+06 0 633004 4.22863e+06 0 637060 4.22968e+06 0 641158 4.23074e+06 0 645299 4.23178e+06 0 649483 4.23282e+06 0 653712 4.23385e+06 0 657985 4.23487e+06 0 662302 4.23588e+06 0 666665 4.23688e+06 0 671073 4.23788e+06 0 675527 4.23886e+06 0 680027 4.23983e+06 0 684573 4.24078e+06 0 689166 4.24173e+06 0 693806 4.24266e+06 0 698494 4.24357e+06 0 703230 4.24447e+06 0 708014 4.24536e+06 0 712846 4.24623e+06 0 717727 4.24708e+06 0 722656 4.24791e+06 0 727636 4.24873e+06 0 732664 4.24952e+06 0 737743 4.2503e+06 0 742871 4.25105e+06 0 748050 4.25178e+06 0 753279 4.25249e+06 0 758559 4.25318e+06 0 763890 4.25384e+06 0 769271 4.25447e+06 0 774704 4.25508e+06 0 780188 4.25566e+06 0 785724 4.25622e+06 0 791311 4.25674e+06 0 796949 4.25723e+06 0 802640 4.25769e+06 0 808381 4.25812e+06 0 814175 4.25852e+06 0 820020 4.25888e+06 0 825917 4.25921e+06 0 831865 4.2595e+06 0 837865 4.25975e+06 0 843916 4.25996e+06 0 850019 4.26014e+06 0 856173 4.26027e+06 0 862377 4.26036e+06 0 868633 4.26041e+06 0 874939 4.26042e+06 0 881295 4.26038e+06 0 887701 4.26029e+06 0 894157 4.26016e+06 0 900663 4.25997e+06 0 907217 4.25974e+06 0 913820 4.25946e+06 0 920471 4.25912e+06 0 927169 4.25874e+06 0 933915 4.25829e+06 0 940708 4.2578e+06 0 947547 4.25724e+06 0 954431 4.25663e+06 0 961360 4.25596e+06 0 968333 4.25523e+06 0 975350 4.25444e+06 0 634501 4.1959e+06 0 638442 4.19665e+06 0 642421 4.19738e+06 0 646439 4.19811e+06 0 650496 4.19883e+06 0 654592 4.19954e+06 0 658728 4.20024e+06 0 662903 4.20093e+06 0 667119 4.2016e+06 0 671375 4.20226e+06 0 675672 4.20292e+06 0 680009 4.20355e+06 0 684388 4.20418e+06 0 688808 4.20479e+06 0 693269 4.20538e+06 0 697773 4.20596e+06 0 702319 4.20652e+06 0 706906 4.20707e+06 0 711537 4.2076e+06 0 716210 4.20811e+06 0 720926 4.2086e+06 0 725685 4.20907e+06 0 730487 4.20952e+06 0 735333 4.20995e+06 0 740222 4.21036e+06 0 745155 4.21075e+06 0 750132 4.21111e+06 0 755152 4.21145e+06 0 760217 4.21176e+06 0 765326 4.21205e+06 0 770479 4.21232e+06 0 775676 4.21255e+06 0 780917 4.21276e+06 0 786203 4.21294e+06 0 791533 4.21309e+06 0 796907 4.21321e+06 0 802325 4.2133e+06 0 807788 4.21336e+06 0 813295 4.21339e+06 0 818846 4.21338e+06 0 824441 4.21333e+06 0 830080 4.21325e+06 0 835763 4.21314e+06 0 841489 4.21299e+06 0 847259 4.2128e+06 0 853072 4.21257e+06 0 858928 4.2123e+06 0 864827 4.21199e+06 0 870768 4.21164e+06 0 876752 4.21125e+06 0 882778 4.21081e+06 0 888845 4.21033e+06 0 894953 4.2098e+06 0 901103 4.20923e+06 0 907293 4.20861e+06 0 913523 4.20794e+06 0 919793 4.20722e+06 0 926102 4.20645e+06 0 932450 4.20564e+06 0 938836 4.20477e+06 0 945260 4.20384e+06 0 951721 4.20287e+06 0 958218 4.20184e+06 0 964752 4.20075e+06 0 637689 4.16499e+06 0 641542 4.16545e+06 0 645429 4.1659e+06 0 649351 4.16633e+06 0 653308 4.16676e+06 0 657301 4.16717e+06 0 661329 4.16757e+06 0 665392 4.16796e+06 0 669492 4.16834e+06 0 673628 4.1687e+06 0 677800 4.16905e+06 0 682008 4.16938e+06 0 686253 4.1697e+06 0 690535 4.17e+06 0 694854 4.17028e+06 0 699210 4.17055e+06 0 703603 4.1708e+06 0 708034 4.17103e+06 0 712502 4.17125e+06 0 717008 4.17144e+06 0 721551 4.17162e+06 0 726133 4.17177e+06 0 730752 4.17191e+06 0 735409 4.17202e+06 0 740105 4.17211e+06 0 744838 4.17217e+06 0 749610 4.17222e+06 0 754420 4.17224e+06 0 759268 4.17223e+06 0 764155 4.1722e+06 0 769080 4.17214e+06 0 774043 4.17206e+06 0 779045 4.17194e+06 0 784084 4.1718e+06 0 789162 4.17164e+06 0 794278 4.17144e+06 0 799433 4.17121e+06 0 804625 4.17095e+06 0 809855 4.17066e+06 0 815123 4.17033e+06 0 820428 4.16997e+06 0 825771 4.16958e+06 0 831151 4.16916e+06 0 836568 4.16869e+06 0 842023 4.1682e+06 0 847513 4.16766e+06 0 853041 4.16709e+06 0 858605 4.16648e+06 0 864204 4.16583e+06 0 869840 4.16514e+06 0 875510 4.1644e+06 0 881216 4.16363e+06 0 886957 4.16282e+06 0 892732 4.16196e+06 0 898541 4.16106e+06 0 904383 4.16011e+06 0 910259 4.15912e+06 0 916167 4.15808e+06 0 922108 4.157e+06 0 928081 4.15587e+06 0 934085 4.15469e+06 0 940120 4.15346e+06 0 946185 4.15218e+06 0 952280 4.15085e+06 0 638794 4.13493e+06 0 642546 4.13513e+06 0 646330 4.13531e+06 0 650145 4.13549e+06 0 653992 4.13565e+06 0 657870 4.1358e+06 0 661780 4.13594e+06 0 665722 4.13606e+06 0 669696 4.13616e+06 0 673703 4.13626e+06 0 677742 4.13633e+06 0 681813 4.1364e+06 0 685917 4.13644e+06 0 690054 4.13647e+06 0 694223 4.13648e+06 0 698425 4.13647e+06 0 702660 4.13645e+06 0 706929 4.1364e+06 0 711230 4.13634e+06 0 715565 4.13626e+06 0 719932 4.13616e+06 0 724333 4.13603e+06 0 728768 4.13589e+06 0 733236 4.13572e+06 0 737737 4.13553e+06 0 742271 4.13532e+06 0 746839 4.13509e+06 0 751440 4.13483e+06 0 756075 4.13454e+06 0 760742 4.13423e+06 0 765444 4.1339e+06 0 770178 4.13354e+06 0 774945 4.13315e+06 0 779746 4.13273e+06 0 784580 4.13229e+06 0 789446 4.13181e+06 0 794345 4.13131e+06 0 799278 4.13078e+06 0 804242 4.13021e+06 0 809239 4.12962e+06 0 814268 4.12899e+06 0 819330 4.12834e+06 0 824423 4.12764e+06 0 829548 4.12692e+06 0 834704 4.12616e+06 0 839892 4.12536e+06 0 845111 4.12453e+06 0 850361 4.12367e+06 0 855641 4.12276e+06 0 860951 4.12182e+06 0 866291 4.12085e+06 0 871661 4.11983e+06 0 877061 4.11877e+06 0 882489 4.11767e+06 0 887946 4.11654e+06 0 893431 4.11536e+06 0 898944 4.11414e+06 0 904485 4.11288e+06 0 910052 4.11157e+06 0 915647 4.11022e+06 0 921267 4.10883e+06 0 926914 4.10739e+06 0 932585 4.1059e+06 0 938282 4.10438e+06 0 638031 4.10577e+06 0 641675 4.10574e+06 0 645348 4.10569e+06 0 649048 4.10563e+06 0 652777 4.10556e+06 0 656535 4.10547e+06 0 660320 4.10537e+06 0 664135 4.10525e+06 0 667978 4.10512e+06 0 671850 4.10497e+06 0 675750 4.10481e+06 0 679680 4.10463e+06 0 683638 4.10443e+06 0 687626 4.10422e+06 0 691643 4.10399e+06 0 695689 4.10374e+06 0 699763 4.10347e+06 0 703868 4.10319e+06 0 708001 4.10288e+06 0 712164 4.10255e+06 0 716356 4.10221e+06 0 720577 4.10184e+06 0 724827 4.10145e+06 0 729107 4.10104e+06 0 733416 4.10061e+06 0 737754 4.10015e+06 0 742122 4.09968e+06 0 746518 4.09917e+06 0 750944 4.09865e+06 0 755398 4.0981e+06 0 759882 4.09752e+06 0 764394 4.09692e+06 0 768936 4.09629e+06 0 773505 4.09564e+06 0 778104 4.09495e+06 0 782731 4.09424e+06 0 787386 4.09351e+06 0 792070 4.09274e+06 0 796781 4.09194e+06 0 801521 4.09112e+06 0 806288 4.09026e+06 0 811083 4.08938e+06 0 815905 4.08846e+06 0 820754 4.08751e+06 0 825630 4.08652e+06 0 830533 4.08551e+06 0 835463 4.08446e+06 0 840418 4.08338e+06 0 845400 4.08226e+06 0 850408 4.08111e+06 0 855440 4.07992e+06 0 860498 4.0787e+06 0 865581 4.07743e+06 0 870689 4.07614e+06 0 875820 4.0748e+06 0 880976 4.07343e+06 0 886155 4.07201e+06 0 891357 4.07056e+06 0 896582 4.06907e+06 0 901829 4.06754e+06 0 907098 4.06597e+06 0 912389 4.06436e+06 0 917701 4.0627e+06 0 923034 4.061e+06 0 635599 4.07756e+06 0 639129 4.07732e+06 0 642685 4.07706e+06 0 646267 4.07679e+06 0 649873 4.07651e+06 0 653505 4.07621e+06 0 657163 4.0759e+06 0 660846 4.07557e+06 0 664555 4.07522e+06 0 668289 4.07486e+06 0 672050 4.07449e+06 0 675835 4.07409e+06 0 679647 4.07368e+06 0 683485 4.07326e+06 0 687348 4.07281e+06 0 691237 4.07235e+06 0 695152 4.07187e+06 0 699092 4.07136e+06 0 703059 4.07084e+06 0 707051 4.0703e+06 0 711069 4.06974e+06 0 715113 4.06916e+06 0 719183 4.06856e+06 0 723278 4.06794e+06 0 727399 4.06729e+06 0 731546 4.06662e+06 0 735718 4.06593e+06 0 739916 4.06522e+06 0 744139 4.06448e+06 0 748387 4.06372e+06 0 752660 4.06293e+06 0 756959 4.06212e+06 0 761283 4.06129e+06 0 765632 4.06043e+06 0 770005 4.05954e+06 0 774403 4.05863e+06 0 778826 4.05769e+06 0 783273 4.05672e+06 0 787744 4.05572e+06 0 792239 4.0547e+06 0 796759 4.05364e+06 0 801302 4.05256e+06 0 805868 4.05145e+06 0 810458 4.05031e+06 0 815071 4.04913e+06 0 819707 4.04793e+06 0 824365 4.04669e+06 0 829046 4.04543e+06 0 833749 4.04413e+06 0 838474 4.0428e+06 0 843221 4.04143e+06 0 847989 4.04003e+06 0 852778 4.0386e+06 0 857588 4.03713e+06 0 862419 4.03563e+06 0 867270 4.03409e+06 0 872140 4.03251e+06 0 877031 4.0309e+06 0 881940 4.02926e+06 0 886868 4.02757e+06 0 891815 4.02585e+06 0 896780 4.02409e+06 0 901763 4.0223e+06 0 906763 4.02046e+06 0 631673 4.05033e+06 0 635087 4.0499e+06 0 638524 4.04945e+06 0 641983 4.04899e+06 0 645465 4.04852e+06 0 648970 4.04803e+06 0 652498 4.04753e+06 0 656049 4.04701e+06 0 659622 4.04648e+06 0 663219 4.04593e+06 0 666838 4.04536e+06 0 670480 4.04478e+06 0 674145 4.04418e+06 0 677833 4.04356e+06 0 681544 4.04293e+06 0 685278 4.04227e+06 0 689034 4.0416e+06 0 692814 4.04091e+06 0 696616 4.0402e+06 0 700441 4.03947e+06 0 704289 4.03872e+06 0 708160 4.03795e+06 0 712053 4.03716e+06 0 715969 4.03635e+06 0 719907 4.03552e+06 0 723868 4.03467e+06 0 727851 4.03379e+06 0 731857 4.03289e+06 0 735884 4.03197e+06 0 739934 4.03103e+06 0 744006 4.03006e+06 0 748100 4.02907e+06 0 752215 4.02805e+06 0 756353 4.02701e+06 0 760511 4.02595e+06 0 764692 4.02486e+06 0 768893 4.02374e+06 0 773116 4.0226e+06 0 777359 4.02143e+06 0 781624 4.02024e+06 0 785909 4.01901e+06 0 790214 4.01776e+06 0 794540 4.01648e+06 0 798886 4.01518e+06 0 803251 4.01384e+06 0 807637 4.01247e+06 0 812042 4.01108e+06 0 816466 4.00966e+06 0 820909 4.0082e+06 0 825371 4.00671e+06 0 829851 4.0052e+06 0 834349 4.00365e+06 0 838866 4.00207e+06 0 843400 4.00046e+06 0 847952 3.99881e+06 0 852521 3.99714e+06 0 857106 3.99543e+06 0 861708 3.99368e+06 0 866327 3.9919e+06 0 870961 3.99009e+06 0 875611 3.98825e+06 0 880276 3.98636e+06 0 884957 3.98445e+06 0 889651 3.9825e+06 0 626413 4.02407e+06 0 629709 4.02347e+06 0 633025 4.02286e+06 0 636362 4.02223e+06 0 639719 4.02159e+06 0 643096 4.02093e+06 0 646494 4.02026e+06 0 649913 4.01958e+06 0 653351 4.01887e+06 0 656810 4.01815e+06 0 660290 4.01742e+06 0 663790 4.01667e+06 0 667310 4.0159e+06 0 670851 4.01511e+06 0 674412 4.01431e+06 0 677993 4.01349e+06 0 681594 4.01265e+06 0 685216 4.01179e+06 0 688858 4.01091e+06 0 692520 4.01002e+06 0 696202 4.0091e+06 0 699904 4.00817e+06 0 703626 4.00721e+06 0 707368 4.00624e+06 0 711130 4.00524e+06 0 714912 4.00423e+06 0 718713 4.00319e+06 0 722533 4.00213e+06 0 726374 4.00105e+06 0 730233 3.99994e+06 0 734112 3.99882e+06 0 738010 3.99767e+06 0 741927 3.9965e+06 0 745863 3.9953e+06 0 749817 3.99408e+06 0 753790 3.99284e+06 0 757782 3.99157e+06 0 761792 3.99028e+06 0 765820 3.98896e+06 0 769867 3.98761e+06 0 773931 3.98625e+06 0 778012 3.98485e+06 0 782112 3.98343e+06 0 786228 3.98198e+06 0 790362 3.9805e+06 0 794512 3.979e+06 0 798680 3.97747e+06 0 802863 3.97591e+06 0 807064 3.97432e+06 0 811280 3.97271e+06 0 815512 3.97106e+06 0 819759 3.96939e+06 0 824022 3.96768e+06 0 828300 3.96595e+06 0 832593 3.96418e+06 0 836900 3.96239e+06 0 841222 3.96056e+06 0 845558 3.95871e+06 0 849907 3.95682e+06 0 854270 3.9549e+06 0 858647 3.95295e+06 0 863036 3.95096e+06 0 867437 3.94894e+06 0 871851 3.94689e+06 0 619962 3.99879e+06 0 623139 3.99804e+06 0 626335 3.99728e+06 0 629549 3.9965e+06 0 632782 3.99571e+06 0 636033 3.9949e+06 0 639302 3.99408e+06 0 642589 3.99324e+06 0 645894 3.99239e+06 0 649218 3.99152e+06 0 652560 3.99063e+06 0 655920 3.98973e+06 0 659298 3.98881e+06 0 662694 3.98788e+06 0 666109 3.98692e+06 0 669541 3.98595e+06 0 672991 3.98497e+06 0 676459 3.98396e+06 0 679945 3.98294e+06 0 683449 3.98189e+06 0 686971 3.98083e+06 0 690510 3.97975e+06 0 694067 3.97865e+06 0 697641 3.97753e+06 0 701233 3.97639e+06 0 704842 3.97523e+06 0 708468 3.97405e+06 0 712112 3.97285e+06 0 715773 3.97163e+06 0 719450 3.97039e+06 0 723145 3.96912e+06 0 726856 3.96784e+06 0 730583 3.96653e+06 0 734328 3.9652e+06 0 738088 3.96384e+06 0 741865 3.96247e+06 0 745658 3.96107e+06 0 749467 3.95964e+06 0 753291 3.9582e+06 0 757132 3.95673e+06 0 760987 3.95523e+06 0 764858 3.95371e+06 0 768744 3.95216e+06 0 772645 3.95059e+06 0 776561 3.949e+06 0 780492 3.94737e+06 0 784436 3.94573e+06 0 788395 3.94405e+06 0 792368 3.94235e+06 0 796355 3.94062e+06 0 800355 3.93887e+06 0 804369 3.93708e+06 0 808396 3.93527e+06 0 812435 3.93344e+06 0 816488 3.93157e+06 0 820552 3.92968e+06 0 824629 3.92775e+06 0 828718 3.9258e+06 0 832818 3.92382e+06 0 836930 3.92181e+06 0 841053 3.91977e+06 0 845187 3.9177e+06 0 849331 3.9156e+06 0 853486 3.91347e+06 0 612446 3.97448e+06 0 615506 3.97359e+06 0 618583 3.9727e+06 0 621676 3.97178e+06 0 624785 3.97085e+06 0 627911 3.96991e+06 0 631053 3.96896e+06 0 634211 3.96798e+06 0 637386 3.967e+06 0 640577 3.96599e+06 0 643784 3.96497e+06 0 647007 3.96394e+06 0 650247 3.96289e+06 0 653502 3.96182e+06 0 656774 3.96073e+06 0 660061 3.95963e+06 0 663365 3.95851e+06 0 666684 3.95738e+06 0 670019 3.95622e+06 0 673370 3.95505e+06 0 676737 3.95386e+06 0 680119 3.95265e+06 0 683517 3.95142e+06 0 686930 3.95018e+06 0 690358 3.94891e+06 0 693802 3.94763e+06 0 697261 3.94632e+06 0 700735 3.945e+06 0 704224 3.94365e+06 0 707728 3.94229e+06 0 711247 3.9409e+06 0 714780 3.9395e+06 0 718328 3.93807e+06 0 721890 3.93662e+06 0 725466 3.93515e+06 0 729057 3.93366e+06 0 732661 3.93214e+06 0 736280 3.9306e+06 0 739912 3.92904e+06 0 743558 3.92746e+06 0 747217 3.92586e+06 0 750889 3.92423e+06 0 754575 3.92258e+06 0 758273 3.9209e+06 0 761985 3.9192e+06 0 765708 3.91748e+06 0 769445 3.91573e+06 0 773193 3.91395e+06 0 776953 3.91215e+06 0 780726 3.91033e+06 0 784509 3.90848e+06 0 788305 3.90661e+06 0 792111 3.90471e+06 0 795929 3.90278e+06 0 799757 3.90083e+06 0 803596 3.89885e+06 0 807445 3.89684e+06 0 811305 3.89481e+06 0 815174 3.89275e+06 0 819053 3.89066e+06 0 822941 3.88855e+06 0 826838 3.8864e+06 0 830745 3.88423e+06 0 834660 3.88203e+06 0 603980 3.95112e+06 0 606925 3.95011e+06 0 609884 3.94909e+06 0 612857 3.94806e+06 0 615846 3.94701e+06 0 618849 3.94595e+06 0 621867 3.94487e+06 0 624899 3.94378e+06 0 627945 3.94267e+06 0 631007 3.94155e+06 0 634082 3.94041e+06 0 637173 3.93925e+06 0 640277 3.93808e+06 0 643396 3.9369e+06 0 646529 3.9357e+06 0 649676 3.93448e+06 0 652838 3.93324e+06 0 656013