<?xml version="1.0"?> 
<VTKFile type="StructuredGrid" version="0.1"> 
<StructuredGrid WholeExtent="0 63 0 63 0 0"> 
<Piece Extent="0 63 0 63 0 0"> 
<PointData>
<DataArray type="Float32" Name="|E|" format="ascii" NumberOfComponents="3"> 
-2.13355e+06 0 0 -2.13391e+06 2.79287e-05 0 -2.13499e+06 5.59347e-05 0 -2.1368e+06 8.41123e-05 0 -2.13932e+06 0.00011254 0 -2.14257e+06 0.000141295 0 -2.14655e+06 0.000170405 0 -2.15125e+06 0.000200057 0 -2.1567e+06 0.000230303 0 -2.16288e+06 0.000260987 0 -2.1698e+06 0.000292603 0 -2.17748e+06 0.000324912 0 -2.18591e+06 0.000357933 0 -2.19512e+06 0.000391876 0 -2.20509e+06 0.000426654 0 -2.21586e+06 0.000462335 0 -2.22741e+06 0.000499081 0 -2.23978e+06 0.000536293 0 -2.25296e+06 0.000574693 0 -2.26697e+06 0.000613447 0 -2.28182e+06 0.000652596 0 -2.29754e+06 0.000692494 0 -2.31412e+06 0.000731714 0 -2.3316e+06 0.000770584 0 -2.34999e+06 0.00080812 0 -2.3693e+06 0.000844091 0 -2.38956e+06 0.000876829 0 -2.41078e+06 0.000905663 0 -2.43299e+06 0.00092794 0 -2.4562e+06 0.000943556 0 -2.48044e+06 0.000948653 0 -2.50573e+06 0.000940591 0 -2.53209e+06 0.000915557 0 -2.55954e+06 0.000868767 0 -2.58811e+06 0.000795543 0 -2.61781e+06 0.000687659 0 -2.64865e+06 0.000537276 0 -2.68066e+06 0.00033623 0 -2.71385e+06 7.05719e-05 0 -2.74821e+06 -0.000272751 0 -2.78374e+06 -0.000709474 0 -2.82044e+06 -0.00125808 0 -2.85828e+06 -0.00193787 0 -2.89723e+06 -0.00277305 0 -2.93723e+06 -0.00378507 0 -2.9782e+06 -0.00499701 0 -3.02005e+06 -0.00642991 0 -3.06264e+06 -0.00809646 0 -3.10581e+06 -0.0100043 0 -3.14934e+06 -0.0121411 0 -3.193e+06 -0.0144742 0 -3.23647e+06 -0.016942 0 -3.27939e+06 -0.0194457 0 -3.32134e+06 -0.0218437 0 -3.36185e+06 -0.0239503 0 -3.4004e+06 -0.0255424 0 -3.43642e+06 -0.0263747 0 -3.4693e+06 -0.0262017 0 -3.49846e+06 -0.0248201 0 -3.52329e+06 -0.0221052 0 -3.54326e+06 -0.0180509 0 -3.5579e+06 -0.0128005 0 -3.56685e+06 -0.00664449 0 -3.5699e+06 -2.38419e-06 0 -2.13354e+06 0 0 -2.1339e+06 95.853 0 -2.13499e+06 191.792 0 -2.13679e+06 287.902 0 -2.13932e+06 384.27 0 -2.14257e+06 480.983 0 -2.14654e+06 578.129 0 -2.15125e+06 675.797 0 -2.15669e+06 774.078 0 -2.16287e+06 873.066 0 -2.16979e+06 972.853 0 -2.17747e+06 1073.54 0 -2.18591e+06 1175.22 0 -2.19511e+06 1277.99 0 -2.20509e+06 1381.97 0 -2.21585e+06 1487.26 0 -2.22741e+06 1593.96 0 -2.23977e+06 1702.19 0 -2.25295e+06 1812.07 0 -2.26696e+06 1923.7 0 -2.28181e+06 2037.22 0 -2.29753e+06 2152.74 0 -2.31412e+06 2270.38 0 -2.33159e+06 2390.26 0 -2.34998e+06 2512.5 0 -2.36929e+06 2637.22 0 -2.38955e+06 2764.52 0 -2.41077e+06 2894.51 0 -2.43298e+06 3027.27 0 -2.45619e+06 3162.88 0 -2.48043e+06 3301.37 0 -2.50572e+06 3442.77 0 -2.53208e+06 3587.05 0 -2.55953e+06 3734.12 0 -2.5881e+06 3883.86 0 -2.6178e+06 4036.02 0 -2.64864e+06 4190.27 0 -2.68065e+06 4346.17 0 -2.71384e+06 4503.07 0 -2.7482e+06 4660.18 0 -2.78373e+06 4816.42 0 -2.82043e+06 4970.47 0 -2.85827e+06 5120.62 0 -2.89722e+06 5264.8 0 -2.93722e+06 5400.44 0 -2.97819e+06 5524.44 0 -3.02004e+06 5633.06 0 -3.06263e+06 5721.93 0 -3.1058e+06 5785.93 0 -3.14934e+06 5819.22 0 -3.193e+06 5815.26 0 -3.23647e+06 5766.91 0 -3.27939e+06 5666.64 0 -3.32135e+06 5506.81 0 -3.36187e+06 5280.11 0 -3.40042e+06 4980.14 0 -3.43645e+06 4602.09 0 -3.46934e+06 4143.46 0 -3.4985e+06 3604.83 0 -3.52333e+06 2990.46 0 -3.54331e+06 2308.68 0 -3.55795e+06 1571.88 0 -3.56691e+06 796.061 0 -3.56995e+06 1.0021e-06 0 -2.13352e+06 0 0 -2.13388e+06 191.705 0 -2.13497e+06 383.58 0 -2.13677e+06 575.799 0 -2.1393e+06 768.533 0 -2.14255e+06 961.957 0 -2.14652e+06 1156.25 0 -2.15123e+06 1351.58 0 -2.15667e+06 1548.14 0 -2.16285e+06 1746.12 0 -2.16977e+06 1945.69 0 -2.17745e+06 2147.06 0 -2.18589e+06 2350.41 0 -2.19509e+06 2555.97 0 -2.20507e+06 2763.92 0 -2.21583e+06 2974.49 0 -2.22738e+06 3187.89 0 -2.23975e+06 3404.35 0 -2.25293e+06 3624.1 0 -2.26694e+06 3847.37 0 -2.28179e+06 4074.4 0 -2.29751e+06 4305.44 0 -2.31409e+06 4540.71 0 -2.33157e+06 4780.47 0 -2.34996e+06 5024.95 0 -2.36927e+06 5274.39 0 -2.38952e+06 5528.99 0 -2.41074e+06 5788.97 0 -2.43295e+06 6054.49 0 -2.45616e+06 6325.7 0 -2.4804e+06 6602.69 0 -2.50569e+06 6885.49 0 -2.53205e+06 7174.04 0 -2.5595e+06 7468.2 0 -2.58807e+06 7767.67 0 -2.61777e+06 8072 0 -2.64861e+06 8380.52 0 -2.68062e+06 8692.32 0 -2.71381e+06 9006.15 0 -2.74817e+06 9320.37 0 -2.7837e+06 9632.88 0 -2.8204e+06 9941 0 -2.85824e+06 10241.3 0 -2.89719e+06 10529.8 0 -2.93719e+06 10801.1 0 -2.97817e+06 11049.1 0 -3.02002e+06 11266.5 0 -3.06262e+06 11444.3 0 -3.10579e+06 11572.4 0 -3.14934e+06 11639.1 0 -3.19301e+06 11631.3 0 -3.23649e+06 11534.8 0 -3.27942e+06 11334.3 0 -3.32139e+06 11014.8 0 -3.36192e+06 10561.5 0 -3.40049e+06 9961.67 0 -3.43653e+06 9205.61 0 -3.46944e+06 8288.34 0 -3.49861e+06 7211.01 0 -3.52346e+06 5982.13 0 -3.54345e+06 4618.35 0 -3.5581e+06 3144.45 0 -3.56707e+06 1592.49 0 -3.57011e+06 -6.10948e-07 0 -2.13349e+06 0 0 -2.13385e+06 287.553 0 -2.13494e+06 575.363 0 -2.13674e+06 863.687 0 -2.13927e+06 1152.78 0 -2.14251e+06 1442.92 0 -2.14649e+06 1734.35 0 -2.1512e+06 2027.35 0 -2.15664e+06 2322.18 0 -2.16282e+06 2619.14 0 -2.16974e+06 2918.5 0 -2.17742e+06 3220.54 0 -2.18585e+06 3525.57 0 -2.19505e+06 3833.9 0 -2.20503e+06 4145.82 0 -2.21579e+06 4461.67 0 -2.22735e+06 4781.77 0 -2.23971e+06 5106.46 0 -2.25289e+06 5436.08 0 -2.2669e+06 5770.98 0 -2.28175e+06 6111.52 0 -2.29747e+06 6458.06 0 -2.31405e+06 6810.97 0 -2.33153e+06 7170.6 0 -2.34991e+06 7537.32 0 -2.36923e+06 7911.46 0 -2.38948e+06 8293.37 0 -2.4107e+06 8683.33 0 -2.43291e+06 9081.61 0 -2.45612e+06 9488.42 0 -2.48036e+06 9903.91 0 -2.50564e+06 10328.1 0 -2.532e+06 10760.9 0 -2.55945e+06 11202.2 0 -2.58802e+06 11651.4 0 -2.61772e+06 12107.9 0 -2.64856e+06 12570.7 0 -2.68057e+06 13038.4 0 -2.71375e+06 13509.2 0 -2.74811e+06 13980.6 0 -2.78365e+06 14449.4 0 -2.82035e+06 14911.7 0 -2.8582e+06 15362.3 0 -2.89715e+06 15795 0 -2.93715e+06 16202.2 0 -2.97813e+06 16574.4 0 -3.01999e+06 16900.6 0 -3.06259e+06 17167.6 0 -3.10578e+06 17360 0 -3.14933e+06 17460.3 0 -3.19301e+06 17449 0 -3.23651e+06 17304.5 0 -3.27946e+06 17004.2 0 -3.32145e+06 16525.2 0 -3.36201e+06 15845.6 0 -3.4006e+06 14946 0 -3.43667e+06 13812 0 -3.4696e+06 12436.1 0 -3.4988e+06 10819.9 0 -3.52368e+06 8976.24 0 -3.54369e+06 6930.01 0 -3.55836e+06 4718.44 0 -3.56733e+06 2389.64 0 -3.57038e+06 1.56462e-07 0 -2.13344e+06 0 0 -2.13381e+06 383.397 0 -2.13489e+06 767.136 0 -2.1367e+06 1151.56 0 -2.13922e+06 1537.02 0 -2.14247e+06 1923.85 0 -2.14644e+06 2312.42 0 -2.15115e+06 2703.08 0 -2.15659e+06 3096.19 0 -2.16277e+06 3492.12 0 -2.16969e+06 3891.25 0 -2.17737e+06 4293.97 0 -2.18581e+06 4700.67 0 -2.19501e+06 5111.76 0 -2.20498e+06 5527.65 0 -2.21574e+06 5948.78 0 -2.2273e+06 6375.57 0 -2.23966e+06 6808.47 0 -2.25284e+06 7247.95 0 -2.26685e+06 7694.48 0 -2.2817e+06 8148.52 0 -2.29741e+06 8610.57 0 -2.314e+06 9081.1 0 -2.33147e+06 9560.6 0 -2.34986e+06 10049.5 0 -2.36917e+06 10548.4 0 -2.38942e+06 11057.6 0 -2.41064e+06 11577.5 0 -2.43284e+06 12108.6 0 -2.45605e+06 12651 0 -2.48029e+06 13205 0 -2.50558e+06 13770.6 0 -2.53193e+06 14347.7 0 -2.55939e+06 14936 0 -2.58795e+06 15535 0 -2.61764e+06 16143.7 0 -2.64849e+06 16760.8 0 -2.6805e+06 17384.5 0 -2.71368e+06 18012.3 0 -2.74804e+06 18640.9 0 -2.78358e+06 19266.1 0 -2.82028e+06 19882.5 0 -2.85813e+06 20483.5 0 -2.89708e+06 21060.7 0 -2.93709e+06 21603.8 0 -2.97807e+06 22100.5 0 -3.01994e+06 22535.8 0 -3.06255e+06 22892.2 0 -3.10575e+06 23149.2 0 -3.14933e+06 23283.5 0 -3.19303e+06 23269 0 -3.23654e+06 23076.9 0 -3.27952e+06 22677.2 0 -3.32154e+06 22039.2 0 -3.36213e+06 21133.6 0 -3.40076e+06 19934.6 0 -3.43686e+06 18422.8 0 -3.46984e+06 16588.2 0 -3.49907e+06 14432.9 0 -3.52398e+06 11974 0 -3.54402e+06 9244.64 0 -3.55871e+06 6294.53 0 -3.5677e+06 3187.89 0 -3.57075e+06 4.61936e-07 0 -2.13339e+06 0 0 -2.13375e+06 479.234 0 -2.13483e+06 958.897 0 -2.13664e+06 1439.42 0 -2.13916e+06 1921.23 0 -2.14241e+06 2404.76 0 -2.14639e+06 2890.46 0 -2.15109e+06 3378.77 0 -2.15653e+06 3870.14 0 -2.16271e+06 4365.04 0 -2.16963e+06 4863.95 0 -2.17731e+06 5367.33 0 -2.18574e+06 5875.69 0 -2.19494e+06 6389.54 0 -2.20492e+06 6909.39 0 -2.21568e+06 7435.78 0 -2.22723e+06 7969.25 0 -2.23959e+06 8510.37 0 -2.25277e+06 9059.71 0 -2.26678e+06 9617.85 0 -2.28163e+06 10185.4 0 -2.29734e+06 10762.9 0 -2.31393e+06 11351.1 0 -2.3314e+06 11950.4 0 -2.34978e+06 12561.6 0 -2.36909e+06 13185.2 0 -2.38934e+06 13821.6 0 -2.41056e+06 14471.6 0 -2.43276e+06 15135.3 0 -2.45597e+06 15813.4 0 -2.48021e+06 16505.8 0 -2.50549e+06 17212.8 0 -2.53185e+06 17934.2 0 -2.5593e+06 18669.7 0 -2.58786e+06 19418.4 0 -2.61755e+06 20179.3 0 -2.6484e+06 20950.8 0 -2.6804e+06 21730.5 0 -2.71359e+06 22515.3 0 -2.74795e+06 23301.2 0 -2.78348e+06 24082.9 0 -2.82019e+06 24853.7 0 -2.85804e+06 25605.2 0 -2.897e+06 26327 0 -2.93701e+06 27006.4 0 -2.978e+06 27627.6 0 -3.01988e+06 28172.4 0 -3.06251e+06 28618.5 0 -3.10572e+06 28940.6 0 -3.14932e+06 29109.4 0 -3.19304e+06 29092.2 0 -3.23659e+06 28853.1 0 -3.2796e+06 28354.5 0 -3.32166e+06 27558 0 -3.36229e+06 26426.8 0 -3.40096e+06 24928.7 0 -3.43711e+06 23039.4 0 -3.47014e+06 20746 0 -3.49942e+06 18051.4 0 -3.52437e+06 14976.6 0 -3.54445e+06 11563.2 0 -3.55917e+06 7873.43 0 -3.56817e+06 3987.6 0 -3.57123e+06 2.98023e-08 0 -2.13332e+06 0 0 -2.13368e+06 575.065 0 -2.13476e+06 1150.64 0 -2.13657e+06 1727.25 0 -2.13909e+06 2305.4 0 -2.14234e+06 2885.62 0 -2.14631e+06 3468.44 0 -2.15102e+06 4054.4 0 -2.15646e+06 4644.03 0 -2.16264e+06 5237.89 0 -2.16956e+06 5836.56 0 -2.17724e+06 6440.6 0 -2.18567e+06 7050.62 0 -2.19487e+06 7667.21 0 -2.20484e+06 8291.01 0 -2.2156e+06 8922.66 0 -2.22716e+06 9562.8 0 -2.23951e+06 10212.1 0 -2.25269e+06 10871.3 0 -2.2667e+06 11541 0 -2.28155e+06 12222.1 0 -2.29726e+06 12915.1 0 -2.31384e+06 13620.9 0 -2.33131e+06 14340.1 0 -2.34969e+06 15073.4 0 -2.369e+06 15821.7 0 -2.38925e+06 16585.4 0 -2.41046e+06 17365.3 0 -2.43266e+06 18161.8 0 -2.45587e+06 18975.5 0 -2.4801e+06 19806.4 0 -2.50539e+06 20654.8 0 -2.53174e+06 21520.5 0 -2.55919e+06 22403.1 0 -2.58775e+06 23301.6 0 -2.61744e+06 24214.8 0 -2.64828e+06 25140.6 0 -2.68029e+06 26076.4 0 -2.71347e+06 27018.3 0 -2.74783e+06 27961.6 0 -2.78337e+06 28899.9 0 -2.82008e+06 29825.2 0 -2.85793e+06 30727.4 0 -2.89689e+06 31594.1 0 -2.93691e+06 32409.9 0 -2.97792e+06 33156.2 0 -3.01981e+06 33810.7 0 -3.06245e+06 34347.1 0 -3.10569e+06 34734.8 0 -3.14931e+06 34938.6 0 -3.19306e+06 34919.3 0 -3.23664e+06 34633.9 0 -3.27969e+06 34037.1 0 -3.3218e+06 33082.7 0 -3.36248e+06 31726.6 0 -3.40121e+06 29929.8 0 -3.43742e+06 27663.1 0 -3.4705e+06 24911 0 -3.49985e+06 21676.6 0 -3.52485e+06 17985.2 0 -3.54497e+06 13886.8 0 -3.55973e+06 9455.84 0 -3.56875e+06 4789.13 0 -3.57182e+06 -2.5332e-07 0 -2.13323e+06 0 0 -2.1336e+06 670.886 0 -2.13468e+06 1342.37 0 -2.13648e+06 2015.05 0 -2.13901e+06 2689.54 0 -2.14226e+06 3366.45 0 -2.14623e+06 4046.38 0 -2.15093e+06 4729.97 0 -2.15637e+06 5417.84 0 -2.16255e+06 6110.66 0 -2.16947e+06 6809.08 0 -2.17715e+06 7513.77 0 -2.18558e+06 8225.42 0 -2.19478e+06 8944.76 0 -2.20475e+06 9672.5 0 -2.21551e+06 10409.4 0 -2.22706e+06 11156.2 0 -2.23942e+06 11913.7 0 -2.25259e+06 12682.7 0 -2.2666e+06 13464 0 -2.28145e+06 14258.5 0 -2.29716e+06 15067 0 -2.31374e+06 15890.4 0 -2.33121e+06 16729.4 0 -2.34959e+06 17585 0 -2.36889e+06 18457.9 0 -2.38914e+06 19348.9 0 -2.41035e+06 20258.8 0 -2.43255e+06 21188.1 0 -2.45575e+06 22137.2 0 -2.47998e+06 23106.7 0 -2.50526e+06 24096.5 0 -2.53161e+06 25106.5 0 -2.55906e+06 26136.2 0 -2.58762e+06 27184.5 0 -2.61731e+06 28250 0 -2.64815e+06 29330.3 0 -2.68015e+06 30422.1 0 -2.71333e+06 31521.3 0 -2.74769e+06 32622.1 0 -2.78324e+06 33717.1 0 -2.81994e+06 34797.1 0 -2.8578e+06 35850.3 0 -2.89677e+06 36862.1 0 -2.9368e+06 37814.7 0 -2.97782e+06 38686.3 0 -3.01972e+06 39451.1 0 -3.06238e+06 40078.3 0 -3.10564e+06 40532.2 0 -3.14929e+06 40771.7 0 -3.19308e+06 40751.2 0 -3.2367e+06 40420.3 0 -3.2798e+06 39726.1 0 -3.32196e+06 38614.6 0 -3.36271e+06 37034.2 0 -3.4015e+06 34939.3 0 -3.43778e+06 32295.6 0 -3.47094e+06 29084.6 0 -3.50035e+06 25310 0 -3.52542e+06 21001.1 0 -3.54559e+06 16216.3 0 -3.56039e+06 11042.5 0 -3.56944e+06 5592.86 0 -3.57252e+06 2.38419e-07 0 -2.13314e+06 0 0 -2.1335e+06 766.696 0 -2.13458e+06 1534.08 0 -2.13639e+06 2302.83 0 -2.13891e+06 3073.64 0 -2.14216e+06 3847.21 0 -2.14613e+06 4624.25 0 -2.15084e+06 5405.46 0 -2.15627e+06 6191.57 0 -2.16245e+06 6983.33 0 -2.16937e+06 7781.48 0 -2.17705e+06 8586.81 0 -2.18548e+06 9400.09 0 -2.19468e+06 10222.2 0 -2.20465e+06 11053.8 0 -2.2154e+06 11895.9 0 -2.22695e+06 12749.4 0 -2.23931e+06 13615.1 0 -2.25248e+06 14493.9 0 -2.26649e+06 15386.8 0 -2.28133e+06 16294.8 0 -2.29704e+06 17218.7 0 -2.31362e+06 18159.6 0 -2.33109e+06 19118.5 0 -2.34946e+06 20096.3 0 -2.36876e+06 21093.8 0 -2.38901e+06 22112.1 0 -2.41022e+06 23151.9 0 -2.43241e+06 24213.9 0 -2.45561e+06 25298.7 0 -2.47984e+06 26406.6 0 -2.50512e+06 27537.8 0 -2.53147e+06 28692.2 0 -2.55891e+06 29869 0 -2.58747e+06 31067.2 0 -2.61715e+06 32285 0 -2.64799e+06 33519.7 0 -2.68e+06 34767.8 0 -2.71318e+06 36024.3 0 -2.74754e+06 37282.7 0 -2.78308e+06 38534.6 0 -2.81979e+06 39769.5 0 -2.85765e+06 40973.8 0 -2.89663e+06 42131.1 0 -2.93667e+06 43220.9 0 -2.9777e+06 44218.4 0 -3.01962e+06 45094 0 -3.0623e+06 45812.6 0 -3.10559e+06 46333.4 0 -3.14927e+06 46609.5 0 -3.1931e+06 46588.5 0 -3.23678e+06 46213.1 0 -3.27993e+06 45422.5 0 -3.32215e+06 44154.9 0 -3.36297e+06 42351 0 -3.40184e+06 39958.7 0 -3.4382e+06 36938.1 0 -3.47144e+06 33268.3 0 -3.50093e+06 28953 0 -3.52607e+06 24025.6 0 -3.5463e+06 18552.7 0 -3.56115e+06 12634.1 0 -3.57024e+06 6399.15 0 -3.57332e+06 -3.27826e-07 0 -2.13303e+06 0 0 -2.13339e+06 862.494 0 -2.13448e+06 1725.76 0 -2.13628e+06 2590.56 0 -2.1388e+06 3457.69 0 -2.14205e+06 4327.92 0 -2.14602e+06 5202.04 0 -2.15073e+06 6080.86 0 -2.15616e+06 6965.2 0 -2.16234e+06 7855.88 0 -2.16926e+06 8753.76 0 -2.17693e+06 9659.71 0 -2.18536e+06 10574.6 0 -2.19456e+06 11499.4 0 -2.20453e+06 12434.9 0 -2.21528e+06 13382.3 0 -2.22683e+06 14342.4 0 -2.23919e+06 15316.2 0 -2.25236e+06 16304.8 0 -2.26636e+06 17309.3 0 -2.2812e+06 18330.7 0 -2.29691e+06 19370.1 0 -2.31348e+06 20428.6 0 -2.33095e+06 21507.2 0 -2.34932e+06 22607.2 0 -2.36862e+06 23729.4 0 -2.38886e+06 24874.9 0 -2.41007e+06 26044.6 0 -2.43226e+06 27239.3 0 -2.45546e+06 28459.7 0 -2.47968e+06 29706.1 0 -2.50496e+06 30978.8 0 -2.5313e+06 32277.4 0 -2.55874e+06 33601.4 0 -2.58729e+06 34949.5 0 -2.61698e+06 36319.6 0 -2.64782e+06 37708.9 0 -2.67982e+06 39113.3 0 -2.713e+06 40527.2 0 -2.74736e+06 41943.3 0 -2.7829e+06 43352.4 0 -2.81962e+06 44742.4 0 -2.85749e+06 46098.2 0 -2.89647e+06 47401.3 0 -2.93652e+06 48628.7 0 -2.97756e+06 49752.6 0 -3.01951e+06 50739.6 0 -3.06222e+06 51550.4 0 -3.10553e+06 52138.9 0 -3.14925e+06 52452.6 0 -3.19313e+06 52432.2 0 -3.23686e+06 52013.3 0 -3.28008e+06 51127.4 0 -3.32237e+06 49704.7 0 -3.36326e+06 47678.3 0 -3.40223e+06 44989.2 0 -3.43867e+06 41592.3 0 -3.472e+06 37463.6 0 -3.50158e+06 32606.9 0 -3.52681e+06 27059.8 0 -3.54712e+06 20897.1 0 -3.56202e+06 14231.3 0 -3.57114e+06 7208.38 0 -3.57424e+06 5.96046e-08 0 -2.13291e+06 0 0 -2.13327e+06 958.278 0 -2.13435e+06 1917.41 0 -2.13616e+06 2878.26 0 -2.13868e+06 3841.68 0 -2.14193e+06 4808.55 0 -2.1459e+06 5779.75 0 -2.1506e+06 6756.17 0 -2.15604e+06 7738.71 0 -2.16221e+06 8728.3 0 -2.16913e+06 9725.89 0 -2.1768e+06 10732.4 0 -2.18523e+06 11748.9 0 -2.19443e+06 12776.4 0 -2.2044e+06 13815.9 0 -2.21515e+06 14868.4 0 -2.2267e+06 15935.1 0 -2.23905e+06 17017.1 0 -2.25222e+06 18115.5 0 -2.26622e+06 19231.5 0 -2.28106e+06 20366.3 0 -2.29676e+06 21521.1 0 -2.31333e+06 22697.2 0 -2.3308e+06 23895.6 0 -2.34917e+06 25117.7 0 -2.36846e+06 26364.5 0 -2.3887e+06 27637.3 0 -2.4099e+06 28936.9 0 -2.43209e+06 30264.3 0 -2.45529e+06 31620.3 0 -2.47951e+06 33005.2 0 -2.50478e+06 34419.2 0 -2.53112e+06 35862.2 0 -2.55855e+06 37333.4 0 -2.5871e+06 38831.4 0 -2.61679e+06 40353.9 0 -2.64762e+06 41897.9 0 -2.67962e+06 43458.6 0 -2.7128e+06 45030.1 0 -2.74716e+06 46604.2 0 -2.78271e+06 48170.5 0 -2.81943e+06 49715.9 0 -2.8573e+06 51223.6 0 -2.89629e+06 52672.9 0 -2.93635e+06 54038.4 0 -2.97742e+06 55289.2 0 -3.01938e+06 56388.4 0 -3.06212e+06 57292.1 0 -3.10547e+06 57949.4 0 -3.14923e+06 58301.5 0 -3.19316e+06 58283 0 -3.23695e+06 57821.9 0 -3.28024e+06 56841.8 0 -3.32261e+06 55265.2 0 -3.36359e+06 53017.4 0 -3.40265e+06 50032.3 0 -3.4392e+06 46259.5 0 -3.47263e+06 41671.8 0 -3.50232e+06 36273.2 0 -3.52764e+06 30105 0 -3.54802e+06 23250.6 0 -3.56299e+06 15834.9 0 -3.57215e+06 8020.93 0 -3.57526e+06 5.96046e-07 0 -2.13277e+06 0 0 -2.13314e+06 1054.05 0 -2.13422e+06 2109.04 0 -2.13602e+06 3165.91 0 -2.13854e+06 4225.61 0 -2.14179e+06 5289.11 0 -2.14576e+06 6357.37 0 -2.15046e+06 7431.36 0 -2.1559e+06 8512.1 0 -2.16207e+06 9600.59 0 -2.16899e+06 10697.9 0 -2.17666e+06 11805 0 -2.18509e+06 12923.1 0 -2.19428e+06 14053.2 0 -2.20425e+06 15196.6 0 -2.215e+06 16354.3 0 -2.22655e+06 17527.6 0 -2.2389e+06 18717.7 0 -2.25206e+06 19925.8 0 -2.26606e+06 21153.4 0 -2.2809e+06 22401.6 0 -2.2966e+06 23671.8 0 -2.31317e+06 24965.3 0 -2.33063e+06 26283.6 0 -2.34899e+06 27627.8 0 -2.36828e+06 28999.2 0 -2.38852e+06 30399.2 0 -2.40972e+06 31828.7 0 -2.4319e+06 33288.8 0 -2.45509e+06 34780.3 0 -2.47931e+06 36303.7 0 -2.50458e+06 37859.1 0 -2.53092e+06 39446.5 0 -2.55835e+06 41064.9 0 -2.58689e+06 42712.8 0 -2.61657e+06 44387.9 0 -2.6474e+06 46086.5 0 -2.6794e+06 47803.7 0 -2.71258e+06 49532.9 0 -2.74694e+06 51265.1 0 -2.78249e+06 52989 0 -2.81921e+06 54690.1 0 -2.85709e+06 56349.9 0 -2.89609e+06 57945.9 0 -2.93617e+06 59450.1 0 -2.97725e+06 60828.6 0 -3.01924e+06 62040.7 0 -3.06201e+06 63038.3 0 -3.1054e+06 63765.2 0 -3.14921e+06 64157.1 0 -3.19319e+06 64141.7 0 -3.23704e+06 63639.6 0 -3.28041e+06 62566.9 0 -3.32288e+06 60837.8 0 -3.36396e+06 58369.7 0 -3.40312e+06 55089.5 0 -3.43979e+06 50941.3 0 -3.47333e+06 45894.5 0 -3.50313e+06 39953.2 0 -3.52855e+06 33162.5 0 -3.54903e+06 25614.1 0 -3.56406e+06 17445.7 0 -3.57326e+06 8837.19 0 -3.57639e+06 -4.17233e-07 0 -2.13263e+06 0 0 -2.13299e+06 1149.8 0 -2.13407e+06 2300.63 0 -2.13587e+06 3453.51 0 -2.1384e+06 4609.48 0 -2.14164e+06 5769.59 0 -2.14561e+06 6934.88 0 -2.15031e+06 8106.44 0 -2.15575e+06 9285.35 0 -2.16192e+06 10472.7 0 -2.16884e+06 11669.7 0 -2.17651e+06 12877.4 0 -2.18493e+06 14097 0 -2.19412e+06 15329.8 0 -2.20409e+06 16577 0 -2.21484e+06 17839.9 0 -2.22638e+06 19119.7 0 -2.23873e+06 20417.9 0 -2.25189e+06 21735.8 0 -2.26589e+06 23074.9 0 -2.28072e+06 24436.4 0 -2.29642e+06 25822 0 -2.31298e+06 27233.1 0 -2.33044e+06 28671 0 -2.3488e+06 30137.3 0 -2.36809e+06 31633.4 0 -2.38832e+06 33160.5 0 -2.40952e+06 34719.9 0 -2.4317e+06 36312.7 0 -2.45488e+06 37939.8 0 -2.4791e+06 39601.6 0 -2.50436e+06 41298.5 0 -2.53069e+06 43030.2 0 -2.55812e+06 44795.8 0 -2.58666e+06 46593.8 0 -2.61634e+06 48421.4 0 -2.64716e+06 50274.8 0 -2.67916e+06 52148.6 0 -2.71234e+06 54035.6 0 -2.7467e+06 55926.2 0 -2.78225e+06 57807.9 0 -2.81898e+06 59665 0 -2.85686e+06 61477.4 0 -2.89588e+06 63220.6 0 -2.93597e+06 64864 0 -2.97707e+06 66370.8 0 -3.01908e+06 67696.7 0 -3.06188e+06 68789.2 0 -3.10532e+06 69587 0 -3.14918e+06 70019.9 0 -3.19322e+06 70009 0 -3.23715e+06 69467.5 0 -3.28061e+06 68303.6 0 -3.32317e+06 66423.4 0 -3.36436e+06 63736.4 0 -3.40364e+06 60162.2 0 -3.44043e+06 55639.1 0 -3.4741e+06 50133.2 0 -3.50402e+06 43648.4 0 -3.52955e+06 36233.6 0 -3.55013e+06 27988.6 0 -3.56524e+06 19064.3 0 -3.57449e+06 9657.54 0 -3.57763e+06 5.66244e-07 0 -2.13247e+06 0 0 -2.13283e+06 1245.53 0 -2.13391e+06 2492.18 0 -2.13571e+06 3741.05 0 -2.13824e+06 4993.27 0 -2.14148e+06 6249.97 0 -2.14545e+06 7512.29 0 -2.15015e+06 8781.38 0 -2.15558e+06 10058.4 0 -2.16176e+06 11344.7 0 -2.16867e+06 12641.3 0 -2.17634e+06 13949.5 0 -2.18476e+06 15270.7 0 -2.19395e+06 16606.1 0 -2.20392e+06 17957.2 0 -2.21466e+06 19325.2 0 -2.2262e+06 20711.6 0 -2.23855e+06 22117.8 0 -2.25171e+06 23545.5 0 -2.2657e+06 24996 0 -2.28053e+06 26470.9 0 -2.29622e+06 27971.8 0 -2.31279e+06 29500.3 0 -2.33024e+06 31058 0 -2.3486e+06 32646.4 0 -2.36788e+06 34267 0 -2.38811e+06 35921.3 0 -2.4093e+06 37610.6 0 -2.43147e+06 39336.1 0 -2.45466e+06 41098.6 0 -2.47886e+06 42898.9 0 -2.50412e+06 44737.3 0 -2.53045e+06 46613.3 0 -2.55787e+06 48526.2 0 -2.58641e+06 50474.2 0 -2.61608e+06 52454.4 0 -2.64691e+06 54462.7 0 -2.6789e+06 56493.3 0 -2.71207e+06 58538.3 0 -2.74644e+06 60587.5 0 -2.78199e+06 62627.3 0 -2.81872e+06 64640.6 0 -2.85662e+06 66606.1 0 -2.89564e+06 68497 0 -2.93575e+06 70280.4 0 -2.97687e+06 71916.3 0 -3.01891e+06 73356.9 0 -3.06175e+06 74545.3 0 -3.10523e+06 75415.3 0 -3.14915e+06 75890.6 0 -3.19326e+06 75885.7 0 -3.23727e+06 75306.5 0 -3.28081e+06 74053.1 0 -3.32348e+06 72023.5 0 -3.36479e+06 69118.9 0 -3.4042e+06 65251.8 0 -3.44113e+06 60354.4 0 -3.47493e+06 54389.4 0 -3.50499e+06 47360.2 0 -3.53065e+06 39319.5 0 -3.55133e+06 30375.4 0 -3.56652e+06 20691.6 0 -3.57582e+06 10482.4 0 -3.57898e+06 -9.83477e-07 0 -2.13229e+06 0 0 -2.13266e+06 1341.25 0 -2.13374e+06 2683.69 0 -2.13554e+06 4028.54 0 -2.13806e+06 5376.98 0 -2.14131e+06 6730.25 0 -2.14528e+06 8089.57 0 -2.14997e+06 9456.19 0 -2.15541e+06 10831.4 0 -2.16158e+06 12216.4 0 -2.16849e+06 13612.7 0 -2.17616e+06 15021.5 0 -2.18458e+06 16444.2 0 -2.19377e+06 17882.2 0 -2.20373e+06 19337 0 -2.21447e+06 20810.1 0 -2.22601e+06 22303 0 -2.23835e+06 23817.4 0 -2.25151e+06 25354.7 0 -2.2655e+06 26916.6 0 -2.28033e+06 28504.9 0 -2.29601e+06 30121.1 0 -2.31257e+06 31767.1 0 -2.33002e+06 33444.4 0 -2.34838e+06 35154.9 0 -2.36765e+06 36900 0 -2.38788e+06 38681.5 0 -2.40906e+06 40500.6 0 -2.43123e+06 42358.7 0 -2.45441e+06 44256.8 0 -2.47861e+06 46195.6 0 -2.50386e+06 48175.3 0 -2.53019e+06 50195.8 0 -2.5576e+06 52256 0 -2.58614e+06 54354.1 0 -2.6158e+06 56487 0 -2.64663e+06 58650.3 0 -2.67862e+06 60837.7 0 -2.71179e+06 63041 0 -2.74615e+06 65248.9 0 -2.78171e+06 67447 0 -2.81844e+06 69617.2 0 -2.85635e+06 71736.2 0 -2.89539e+06 73775.3 0 -2.93551e+06 75699.3 0 -2.97666e+06 77465.2 0 -3.01873e+06 79021.6 0 -3.06161e+06 80307.1 0 -3.10513e+06 81250.6 0 -3.14911e+06 81769.8 0 -3.1933e+06 81772.6 0 -3.23739e+06 81157.5 0 -3.28104e+06 79816.4 0 -3.32382e+06 77639.1 0 -3.36526e+06 74518.6 0 -3.40481e+06 70359.8 0 -3.44188e+06 65088.8 0 -3.47584e+06 58664.6 0 -3.50603e+06 51090 0 -3.53183e+06 42421.5 0 -3.55262e+06 32775.3 0 -3.5679e+06 22328.3 0 -3.57726e+06 11312.1 0 -3.58044e+06 7.15256e-07 0 -2.13211e+06 0 0 -2.13247e+06 1436.94 0 -2.13355e+06 2875.17 0 -2.13535e+06 4315.96 0 -2.13788e+06 5760.61 0 -2.14112e+06 7210.42 0 -2.14509e+06 8666.72 0 -2.14979e+06 10130.8 0 -2.15522e+06 11604.1 0 -2.16139e+06 13088 0 -2.1683e+06 14583.9 0 -2.17596e+06 16093.1 0 -2.18438e+06 17617.3 0 -2.19357e+06 19157.9 0 -2.20353e+06 20716.5 0 -2.21427e+06 22294.7 0 -2.2258e+06 23894.2 0 -2.23814e+06 25516.5 0 -2.2513e+06 27163.4 0 -2.26528e+06 28836.8 0 -2.28011e+06 30538.3 0 -2.29579e+06 32269.9 0 -2.31234e+06 34033.3 0 -2.32979e+06 35830.3 0 -2.34814e+06 37662.7 0 -2.36741e+06 39532.4 0 -2.38763e+06 41441 0 -2.40881e+06 43389.9 0 -2.43097e+06 45380.6 0 -2.45414e+06 47414.2 0 -2.47834e+06 49491.5 0 -2.50359e+06 51612.7 0 -2.5299e+06 53777.6 0 -2.55732e+06 55985.1 0 -2.58584e+06 58233.3 0 -2.61551e+06 60519 0 -2.64632e+06 62837.4 0 -2.67831e+06 65181.9 0 -2.71149e+06 67543.5 0 -2.74585e+06 69910.4 0 -2.78141e+06 72267.3 0 -2.81815e+06 74594.6 0 -2.85606e+06 76867.6 0 -2.89511e+06 79055.7 0 -2.93525e+06 81121.1 0 -2.97642e+06 83017.9 0 -3.01853e+06 84691 0 -3.06145e+06 86075 0 -3.10503e+06 87093.4 0 -3.14907e+06 87658.2 0 -3.19334e+06 87670.5 0 -3.23752e+06 87021.3 0 -3.28128e+06 85594.6 0 -3.32418e+06 83271.5 0 -3.36576e+06 79936.8 0 -3.40546e+06 75487.6 0 -3.44268e+06 69843.7 0 -3.4768e+06 62960.3 0 -3.50716e+06 54839.5 0 -3.5331e+06 45541.1 0 -3.55402e+06 35189.6 0 -3.56939e+06 23975.2 0 -3.57882e+06 12147.1 0 -3.58202e+06 -3.57628e-07 0 -2.13191e+06 0 0 -2.13227e+06 1532.61 0 -2.13336e+06 3066.59 0 -2.13516e+06 4603.31 0 -2.13768e+06 6144.14 0 -2.14092e+06 7690.48 0 -2.14489e+06 9243.74 0 -2.14958e+06 10805.3 0 -2.15501e+06 12376.7 0 -2.16118e+06 13959.4 0 -2.16809e+06 15554.8 0 -2.17575e+06 17164.5 0 -2.18417e+06 18790.2 0 -2.19335e+06 20433.4 0 -2.20331e+06 22095.7 0 -2.21405e+06 23779 0 -2.22558e+06 25484.8 0 -2.23792e+06 27215.2 0 -2.25107e+06 28971.8 0 -2.26505e+06 30756.5 0 -2.27987e+06 32571.3 0 -2.29555e+06 34418.1 0 -2.3121e+06 36298.8 0 -2.32954e+06 38215.5 0 -2.34788e+06 40169.9 0 -2.36715e+06 42164.1 0 -2.38736e+06 44199.7 0 -2.40854e+06 46278.5 0 -2.4307e+06 48401.8 0 -2.45386e+06 50570.9 0 -2.47805e+06 52786.6 0 -2.50329e+06 55049.3 0 -2.5296e+06 57358.6 0 -2.55701e+06 59713.5 0 -2.58553e+06 62111.9 0 -2.61519e+06 64550.4 0 -2.646e+06 67024 0 -2.67799e+06 69525.7 0 -2.71116e+06 72045.9 0 -2.74552e+06 74572.2 0 -2.78108e+06 77088.1 0 -2.81783e+06 79573 0 -2.85575e+06 82000.6 0 -2.89482e+06 84338.2 0 -2.93498e+06 86545.8 0 -2.97618e+06 88574.5 0 -3.01832e+06 90365.6 0 -3.06128e+06 91849.3 0 -3.10492e+06 92944.2 0 -3.14903e+06 93556.4 0 -3.19338e+06 93580.1 0 -3.23766e+06 92899 0 -3.28153e+06 91388.8 0 -3.32457e+06 88922 0 -3.36629e+06 85374.9 0 -3.40615e+06 80636.7 0 -3.44355e+06 74620.8 0 -3.47784e+06 67278.2 0 -3.50836e+06 58609.9 0 -3.53446e+06 48679.4 0 -3.55551e+06 37619.3 0 -3.57099e+06 25633 0 -3.58048e+06 12987.9 0 -3.5837e+06 -4.76837e-07 0 -2.1317e+06 0 0 -2.13206e+06 1628.26 0 -2.13315e+06 3257.97 0 -2.13494e+06 4890.59 0 -2.13746e+06 6527.58 0 -2.14071e+06 8170.42 0 -2.14467e+06 9820.6 0 -2.14937e+06 11479.6 0 -2.1548e+06 13149.1 0 -2.16096e+06 14830.5 0 -2.16787e+06 16525.5 0 -2.17553e+06 18235.7 0 -2.18395e+06 19962.8 0 -2.19313e+06 21708.5 0 -2.20308e+06 23474.5 0 -2.21382e+06 25262.8 0 -2.22534e+06 27075.1 0 -2.23768e+06 28913.4 0 -2.25082e+06 30779.6 0 -2.2648e+06 32675.7 0 -2.27962e+06 34603.7 0 -2.29529e+06 36565.7 0 -2.31184e+06 38563.8 0 -2.32927e+06 40600 0 -2.34761e+06 42676.4 0 -2.36687e+06 44795 0 -2.38708e+06 46957.7 0 -2.40825e+06 49166.3 0 -2.4304e+06 51422.2 0 -2.45356e+06 53726.8 0 -2.47774e+06 56080.9 0 -2.50298e+06 58485 0 -2.52928e+06 60938.8 0 -2.55668e+06 63441.1 0 -2.5852e+06 65989.7 0 -2.61485e+06 68581.2 0 -2.64566e+06 71210.1 0 -2.67764e+06 73869.2 0 -2.71081e+06 76548.2 0 -2.74518e+06 79234.1 0 -2.78074e+06 81909.5 0 -2.81749e+06 84552.4 0 -2.85542e+06 87135.1 0 -2.8945e+06 89623 0 -2.93469e+06 91973.7 0 -2.97591e+06 94135.3 0 -3.01809e+06 96045.6 0 -3.0611e+06 97630.6 0 -3.1048e+06 98803.6 0 -3.14898e+06 99465.1 0 -3.19342e+06 99502.3 0 -3.23781e+06 98791.4 0 -3.2818e+06 97199.9 0 -3.32498e+06 94591.6 0 -3.36686e+06 90834.1 0 -3.40689e+06 85808.5 0 -3.44446e+06 79421.6 0 -3.47894e+06 71619.6 0 -3.50964e+06 62402.9 0 -3.53591e+06 51838 0 -3.55711e+06 40065.6 0 -3.5727e+06 27302.7 0 -3.58225e+06 13834.7 0 -3.5855e+06 5.96046e-07 0 -2.13148e+06 0 0 -2.13184e+06 1723.88 0 -2.13292e+06 3449.29 0 -2.13472e+06 5177.79 0 -2.13724e+06 6910.91 0 -2.14048e+06 8650.22 0 -2.14445e+06 10397.3 0 -2.14914e+06 12153.8 0 -2.15457e+06 13921.2 0 -2.16073e+06 15701.4 0 -2.16764e+06 17495.9 0 -2.17529e+06 19306.5 0 -2.18371e+06 21135 0 -2.19289e+06 22983.2 0 -2.20284e+06 24852.9 0 -2.21357e+06 26746.2 0 -2.22509e+06 28664.9 0 -2.23742e+06 30611.1 0 -2.25057e+06 32586.8 0 -2.26454e+06 34594.2 0 -2.27935e+06 36635.5 0 -2.29502e+06 38712.7 0 -2.31156e+06 40828.1 0 -2.32899e+06 42983.8 0 -2.34732e+06 45182.2 0 -2.36658e+06 47425.2 0 -2.38678e+06 49714.9 0 -2.40794e+06 52053.2 0 -2.43009e+06 54441.7 0 -2.45324e+06 56881.7 0 -2.47742e+06 59374.3 0 -2.50264e+06 61919.9 0 -2.52894e+06 64518.1 0 -2.55634e+06 67167.9 0 -2.58485e+06 69866.8 0 -2.61449e+06 72611.3 0 -2.6453e+06 75395.7 0 -2.67728e+06 78212.3 0 -2.71044e+06 81050.4 0 -2.74481e+06 83896.2 0 -2.78037e+06 86731.4 0 -2.81713e+06 89532.8 0 -2.85507e+06 92271.3 0 -2.89417e+06 94910.3 0 -2.93438e+06 97405 0 -2.97563e+06 99700.6 0 -3.01785e+06 101731 0 -3.06091e+06 103419 0 -3.10467e+06 104672 0 -3.14893e+06 105385 0 -3.19346e+06 105438 0 -3.23796e+06 104700 0 -3.28209e+06 103029 0 -3.32541e+06 100282 0 -3.36746e+06 96316 0 -3.40767e+06 91004.7 0 -3.44544e+06 84247.5 0 -3.48011e+06 75986.4 0 -3.511e+06 66220 0 -3.53745e+06 55018.1 0 -3.5588e+06 42529.6 0 -3.57451e+06 28984.9 0 -3.58414e+06 14688.2 0 -3.58742e+06 -1.19209e-07 0 -2.13124e+06 0 0 -2.1316e+06 1819.47 0 -2.13268e+06 3640.57 0 -2.13448e+06 5464.91 0 -2.137e+06 7294.13 0 -2.14024e+06 9129.89 0 -2.14421e+06 10973.9 0 -2.1489e+06 12827.7 0 -2.15432e+06 14693.2 0 -2.16049e+06 16572 0 -2.16739e+06 18466 0 -2.17504e+06 20377 0 -2.18346e+06 22306.9 0 -2.19263e+06 24257.5 0 -2.20258e+06 26230.9 0 -2.21331e+06 28229.1 0 -2.22483e+06 30254.2 0 -2.23715e+06 32308.3 0 -2.25029e+06 34393.6 0 -2.26426e+06 36512.2 0 -2.27907e+06 38666.6 0 -2.29473e+06 40858.9 0 -2.31127e+06 43091.6 0 -2.32869e+06 45366.9 0 -2.34702e+06 47687.1 0 -2.36627e+06 50054.5 0 -2.38646e+06 52471.2 0 -2.40762e+06 54939.2 0 -2.42976e+06 57460.3 0 -2.4529e+06 60035.8 0 -2.47707e+06 62666.8 0 -2.50229e+06 65353.8 0 -2.52858e+06 68096.5 0 -2.55597e+06 70893.8 0 -2.58447e+06 73743.1 0 -2.61411e+06 76640.7 0 -2.64491e+06 79580.7 0 -2.67689e+06 82555 0 -2.71005e+06 85552.5 0 -2.74442e+06 88558.5 0 -2.77999e+06 91553.9 0 -2.81675e+06 94514.4 0 -2.8547e+06 97409.3 0 -2.89382e+06 100200 0 -2.93405e+06 102840 0 -2.97533e+06 105271 0 -3.01759e+06 107423 0 -3.06071e+06 109215 0 -3.10453e+06 110550 0 -3.14888e+06 111316 0 -3.1935e+06 111387 0 -3.23812e+06 110624 0 -3.28238e+06 108878 0 -3.32587e+06 105993 0 -3.36809e+06 101822 0 -3.40849e+06 96226.6 0 -3.44646e+06 89100.4 0 -3.48135e+06 80380 0 -3.51245e+06 70062.8 0 -3.53908e+06 58221.2 0 -3.56059e+06 45012.5 0 -3.57643e+06 30680.6 0 -3.58614e+06 15548.6 0 -3.58945e+06 3.57628e-07 0 -2.13099e+06 0 0 -2.13135e+06 1915.04 0 -2.13244e+06 3831.78 0 -2.13423e+06 5751.94 0 -2.13675e+06 7677.24 0 -2.13999e+06 9609.41 0 -2.14395e+06 11550.2 0 -2.14864e+06 13501.4 0 -2.15407e+06 15464.9 0 -2.16023e+06 17442.4 0 -2.16713e+06 19435.9 0 -2.17478e+06 21447.2 0 -2.18319e+06 23478.4 0 -2.19236e+06 25531.5 0 -2.20231e+06 27608.5 0 -2.21303e+06 29711.6 0 -2.22455e+06 31843 0 -2.23687e+06 34004.9 0 -2.25001e+06 36199.7 0 -2.26397e+06 38429.6 0 -2.27877e+06 40697 0 -2.29443e+0