<?xml version="1.0"?> 
<VTKFile type="StructuredGrid" version="0.1"> 
<StructuredGrid WholeExtent="0 63 0 63 0 0"> 
<Piece Extent="0 63 0 63 0 0"> 
<PointData>
<DataArray type="Float32" Name="|E|" format="ascii" NumberOfComponents="3"> 
-2.59933e+06 3.71352e+06 0 -2.61436e+06 3.74471e+06 0 -2.62921e+06 3.77711e+06 0 -2.64387e+06 3.81068e+06 0 -2.65831e+06 3.8454e+06 0 -2.67254e+06 3.88128e+06 0 -2.68652e+06 3.91829e+06 0 -2.70023e+06 3.95646e+06 0 -2.71363e+06 3.99577e+06 0 -2.72671e+06 4.03625e+06 0 -2.73941e+06 4.07789e+06 0 -2.75171e+06 4.12073e+06 0 -2.76354e+06 4.16478e+06 0 -2.77486e+06 4.21005e+06 0 -2.78563e+06 4.25659e+06 0 -2.79576e+06 4.30442e+06 0 -2.80521e+06 4.35358e+06 0 -2.8139e+06 4.40409e+06 0 -2.82174e+06 4.45599e+06 0 -2.82867e+06 4.5093e+06 0 -2.83459e+06 4.56407e+06 0 -2.8394e+06 4.62032e+06 0 -2.84302e+06 4.67808e+06 0 -2.84532e+06 4.73736e+06 0 -2.8462e+06 4.79819e+06 0 -2.84553e+06 4.86057e+06 0 -2.84318e+06 4.92451e+06 0 -2.83903e+06 4.99002e+06 0 -2.83291e+06 5.0571e+06 0 -2.82469e+06 5.12571e+06 0 -2.81421e+06 5.19585e+06 0 -2.80128e+06 5.26748e+06 0 -2.78574e+06 5.34056e+06 0 -2.7674e+06 5.41503e+06 0 -2.74607e+06 5.49081e+06 0 -2.72154e+06 5.56784e+06 0 -2.69362e+06 5.64599e+06 0 -2.66208e+06 5.72516e+06 0 -2.62671e+06 5.80519e+06 0 -2.58729e+06 5.88593e+06 0 -2.54358e+06 5.96718e+06 0 -2.49537e+06 6.04874e+06 0 -2.44241e+06 6.13035e+06 0 -2.38449e+06 6.21174e+06 0 -2.32139e+06 6.29261e+06 0 -2.25288e+06 6.37262e+06 0 -2.17878e+06 6.45139e+06 0 -2.09887e+06 6.52849e+06 0 -2.01301e+06 6.60349e+06 0 -1.92102e+06 6.67589e+06 0 -1.82279e+06 6.74514e+06 0 -1.71822e+06 6.81068e+06 0 -1.60725e+06 6.87189e+06 0 -1.48985e+06 6.92811e+06 0 -1.36605e+06 6.97864e+06 0 -1.2359e+06 7.02278e+06 0 -1.09953e+06 7.0598e+06 0 -957080 7.08899e+06 0 -808754 7.10975e+06 0 -654798 7.1217e+06 0 -495536 7.12512e+06 0 -331435 7.12189e+06 0 -164053 7.11807e+06 0 862.172 7.13295e+06 0 -2.45289e+06 3.49783e+06 0 -2.46751e+06 3.52865e+06 0 -2.48213e+06 3.56003e+06 0 -2.4967e+06 3.59206e+06 0 -2.51121e+06 3.62481e+06 0 -2.52563e+06 3.65835e+06 0 -2.53992e+06 3.69273e+06 0 -2.55405e+06 3.72801e+06 0 -2.56798e+06 3.76425e+06 0 -2.58169e+06 3.80149e+06 0 -2.59513e+06 3.83977e+06 0 -2.60827e+06 3.87915e+06 0 -2.62105e+06 3.91966e+06 0 -2.63342e+06 3.96134e+06 0 -2.64534e+06 4.00423e+06 0 -2.65675e+06 4.04835e+06 0 -2.66758e+06 4.09375e+06 0 -2.67778e+06 4.14046e+06 0 -2.68726e+06 4.1885e+06 0 -2.69596e+06 4.23791e+06 0 -2.70378e+06 4.28873e+06 0 -2.71065e+06 4.34096e+06 0 -2.71646e+06 4.39465e+06 0 -2.72113e+06 4.44981e+06 0 -2.72453e+06 4.50646e+06 0 -2.72656e+06 4.56462e+06 0 -2.7271e+06 4.62429e+06 0 -2.72601e+06 4.68548e+06 0 -2.72316e+06 4.7482e+06 0 -2.7184e+06 4.81242e+06 0 -2.71159e+06 4.87812e+06 0 -2.70256e+06 4.94529e+06 0 -2.69114e+06 5.01388e+06 0 -2.67715e+06 5.08383e+06 0 -2.66042e+06 5.15509e+06 0 -2.64075e+06 5.22757e+06 0 -2.61794e+06 5.30116e+06 0 -2.5918e+06 5.37576e+06 0 -2.56211e+06 5.45121e+06 0 -2.52867e+06 5.52737e+06 0 -2.49126e+06 5.60405e+06 0 -2.44968e+06 5.68103e+06 0 -2.4037e+06 5.75807e+06 0 -2.35314e+06 5.8349e+06 0 -2.29779e+06 5.91122e+06 0 -2.23746e+06 5.98669e+06 0 -2.17198e+06 6.06093e+06 0 -2.10121e+06 6.13353e+06 0 -2.025e+06 6.20404e+06 0 -1.94326e+06 6.27198e+06 0 -1.85591e+06 6.3368e+06 0 -1.76293e+06 6.39795e+06 0 -1.66434e+06 6.4548e+06 0 -1.56018e+06 6.5067e+06 0 -1.45059e+06 6.55296e+06 0 -1.33573e+06 6.59282e+06 0 -1.21585e+06 6.62551e+06 0 -1.09124e+06 6.65015e+06 0 -962244 6.66581e+06 0 -829226 6.67133e+06 0 -692520 6.66521e+06 0 -552240 6.64502e+06 0 -408175 6.60611e+06 0 -258264 6.53719e+06 0 -2.316e+06 3.32966e+06 0 -2.33072e+06 3.35714e+06 0 -2.34543e+06 3.38555e+06 0 -2.3601e+06 3.41486e+06 0 -2.37471e+06 3.44505e+06 0 -2.38926e+06 3.47613e+06 0 -2.4037e+06 3.50809e+06 0 -2.41803e+06 3.54095e+06 0 -2.43222e+06 3.57473e+06 0 -2.44622e+06 3.60946e+06 0 -2.46002e+06 3.64516e+06 0 -2.47357e+06 3.68187e+06 0 -2.48684e+06 3.71962e+06 0 -2.49978e+06 3.75845e+06 0 -2.51235e+06 3.79841e+06 0 -2.5245e+06 3.83952e+06 0 -2.53618e+06 3.88183e+06 0 -2.54731e+06 3.92537e+06 0 -2.55785e+06 3.97019e+06 0 -2.56772e+06 4.0163e+06 0 -2.57684e+06 4.06375e+06 0 -2.58514e+06 4.11257e+06 0 -2.59251e+06 4.16278e+06 0 -2.59888e+06 4.21441e+06 0 -2.60413e+06 4.26747e+06 0 -2.60817e+06 4.322e+06 0 -2.61087e+06 4.37798e+06 0 -2.61212e+06 4.43545e+06 0 -2.61178e+06 4.49439e+06 0 -2.60972e+06 4.5548e+06 0 -2.60579e+06 4.61666e+06 0 -2.59983e+06 4.67995e+06 0 -2.5917e+06 4.74464e+06 0 -2.58122e+06 4.81068e+06 0 -2.56822e+06 4.878e+06 0 -2.55251e+06 4.94653e+06 0 -2.53391e+06 5.01618e+06 0 -2.51222e+06 5.08684e+06 0 -2.48726e+06 5.15837e+06 0 -2.45881e+06 5.23062e+06 0 -2.42669e+06 5.30341e+06 0 -2.39069e+06 5.37654e+06 0 -2.35063e+06 5.44977e+06 0 -2.3063e+06 5.52285e+06 0 -2.25754e+06 5.59547e+06 0 -2.20418e+06 5.66732e+06 0 -2.14607e+06 5.73803e+06 0 -2.08308e+06 5.8072e+06 0 -2.01513e+06 5.87441e+06 0 -1.94213e+06 5.93917e+06 0 -1.86407e+06 6.001e+06 0 -1.78097e+06 6.05934e+06 0 -1.69289e+06 6.11363e+06 0 -1.59996e+06 6.16324e+06 0 -1.50239e+06 6.20755e+06 0 -1.40046e+06 6.24589e+06 0 -1.29452e+06 6.27755e+06 0 -1.18506e+06 6.30184e+06 0 -1.07266e+06 6.318e+06 0 -958081 6.32531e+06 0 -842279 6.32305e+06 0 -726575 6.31073e+06 0 -612783 6.28852e+06 0 -504190 6.25914e+06 0 -2.19273e+06 3.18583e+06 0 -2.207e+06 3.21233e+06 0 -2.22131e+06 3.23938e+06 0 -2.23566e+06 3.26705e+06 0 -2.25002e+06 3.29543e+06 0 -2.26436e+06 3.32456e+06 0 -2.27867e+06 3.3545e+06 0 -2.29292e+06 3.38528e+06 0 -2.30708e+06 3.41694e+06 0 -2.32113e+06 3.44951e+06 0 -2.33503e+06 3.48302e+06 0 -2.34874e+06 3.5175e+06 0 -2.36223e+06 3.55298e+06 0 -2.37546e+06 3.58949e+06 0 -2.38839e+06 3.62705e+06 0 -2.40096e+06 3.66571e+06 0 -2.41314e+06 3.7055e+06 0 -2.42486e+06 3.74644e+06 0 -2.43606e+06 3.78859e+06 0 -2.44669e+06 3.83197e+06 0 -2.45667e+06 3.87661e+06 0 -2.46594e+06 3.92254e+06 0 -2.4744e+06 3.96981e+06 0 -2.48198e+06 4.01843e+06 0 -2.48857e+06 4.06843e+06 0 -2.49408e+06 4.11982e+06 0 -2.4984e+06 4.17264e+06 0 -2.50141e+06 4.22688e+06 0 -2.50299e+06 4.28255e+06 0 -2.50302e+06 4.33965e+06 0 -2.50134e+06 4.39816e+06 0 -2.49783e+06 4.45808e+06 0 -2.49232e+06 4.51936e+06 0 -2.48466e+06 4.58197e+06 0 -2.47467e+06 4.64585e+06 0 -2.4622e+06 4.71093e+06 0 -2.44705e+06 4.77713e+06 0 -2.42904e+06 4.84435e+06 0 -2.408e+06 4.91245e+06 0 -2.38372e+06 4.9813e+06 0 -2.35603e+06 5.05072e+06 0 -2.32473e+06 5.12052e+06 0 -2.28964e+06 5.19049e+06 0 -2.2506e+06 5.26037e+06 0 -2.20742e+06 5.32988e+06 0 -2.15997e+06 5.39871e+06 0 -2.10812e+06 5.46652e+06 0 -2.05175e+06 5.53293e+06 0 -1.99079e+06 5.59753e+06 0 -1.92521e+06 5.65988e+06 0 -1.85498e+06 5.71952e+06 0 -1.78018e+06 5.77593e+06 0 -1.70089e+06 5.82859e+06 0 -1.61728e+06 5.87694e+06 0 -1.5296e+06 5.92043e+06 0 -1.43815e+06 5.95847e+06 0 -1.34336e+06 5.99048e+06 0 -1.24573e+06 6.01589e+06 0 -1.1459e+06 6.03417e+06 0 -1.0446e+06 6.0448e+06 0 -942742 6.04736e+06 0 -841335 6.04148e+06 0 -741487 6.02677e+06 0 -644232 6.00217e+06 0 -2.08048e+06 3.06333e+06 0 -2.09445e+06 3.08832e+06 0 -2.10846e+06 3.11401e+06 0 -2.12249e+06 3.1404e+06 0 -2.13654e+06 3.16748e+06 0 -2.15058e+06 3.19525e+06 0 -2.16461e+06 3.22375e+06 0 -2.17862e+06 3.25301e+06 0 -2.19257e+06 3.28305e+06 0 -2.20644e+06 3.31393e+06 0 -2.22022e+06 3.34567e+06 0 -2.23387e+06 3.37831e+06 0 -2.24736e+06 3.41189e+06 0 -2.26065e+06 3.44644e+06 0 -2.27369e+06 3.482e+06 0 -2.28646e+06 3.5186e+06 0 -2.29889e+06 3.55627e+06 0 -2.31094e+06 3.59504e+06 0 -2.32255e+06 3.63496e+06 0 -2.33366e+06 3.67604e+06 0 -2.34421e+06 3.71833e+06 0 -2.35413e+06 3.76185e+06 0 -2.36335e+06 3.80664e+06 0 -2.37178e+06 3.85272e+06 0 -2.37933e+06 3.90011e+06 0 -2.38592e+06 3.94885e+06 0 -2.39144e+06 3.99894e+06 0 -2.39578e+06 4.05041e+06 0 -2.39883e+06 4.10326e+06 0 -2.40047e+06 4.15749e+06 0 -2.40056e+06 4.21311e+06 0 -2.39897e+06 4.27008e+06 0 -2.39556e+06 4.32839e+06 0 -2.39016e+06 4.38801e+06 0 -2.38263e+06 4.44888e+06 0 -2.37279e+06 4.51094e+06 0 -2.36048e+06 4.57412e+06 0 -2.34552e+06 4.63831e+06 0 -2.32773e+06 4.70341e+06 0 -2.30694e+06 4.76927e+06 0 -2.28296e+06 4.83575e+06 0 -2.25562e+06 4.90265e+06 0 -2.22474e+06 4.96978e+06 0 -2.19016e+06 5.03689e+06 0 -2.15173e+06 5.10372e+06 0 -2.1093e+06 5.16998e+06 0 -2.06276e+06 5.23534e+06 0 -2.01202e+06 5.29944e+06 0 -1.95701e+06 5.36192e+06 0 -1.89769e+06 5.42234e+06 0 -1.83409e+06 5.48027e+06 0 -1.76627e+06 5.53525e+06 0 -1.69433e+06 5.58679e+06 0 -1.61846e+06 5.6344e+06 0 -1.53891e+06 5.67757e+06 0 -1.456e+06 5.71579e+06 0 -1.37013e+06 5.74858e+06 0 -1.28182e+06 5.77547e+06 0 -1.19164e+06 5.79605e+06 0 -1.10029e+06 5.80996e+06 0 -1.00856e+06 5.81694e+06 0 -917328 5.81688e+06 0 -827566 5.80989e+06 0 -740416 5.79671e+06 0 -1.97859e+06 2.95596e+06 0 -1.99208e+06 2.98014e+06 0 -2.00565e+06 3.00487e+06 0 -2.01928e+06 3.0302e+06 0 -2.03296e+06 3.05617e+06 0 -2.04666e+06 3.08281e+06 0 -2.06038e+06 3.11015e+06 0 -2.07409e+06 3.13822e+06 0 -2.08778e+06 3.16702e+06 0 -2.10141e+06 3.1966e+06 0 -2.11497e+06 3.22698e+06 0 -2.12844e+06 3.2582e+06 0 -2.14178e+06 3.29028e+06 0 -2.15497e+06 3.32327e+06 0 -2.16796e+06 3.3572e+06 0 -2.18073e+06 3.3921e+06 0 -2.19323e+06 3.42801e+06 0 -2.20541e+06 3.46497e+06 0 -2.21722e+06 3.50301e+06 0 -2.2286e+06 3.54216e+06 0 -2.2395e+06 3.58246e+06 0 -2.24985e+06 3.62394e+06 0 -2.25957e+06 3.66662e+06 0 -2.26859e+06 3.71054e+06 0 -2.27684e+06 3.75573e+06 0 -2.28421e+06 3.80219e+06 0 -2.29063e+06 3.84996e+06 0 -2.29598e+06 3.89905e+06 0 -2.30015e+06 3.94948e+06 0 -2.30304e+06 4.00124e+06 0 -2.30452e+06 4.05433e+06 0 -2.30446e+06 4.10875e+06 0 -2.30272e+06 4.16448e+06 0 -2.29915e+06 4.22148e+06 0 -2.29361e+06 4.27971e+06 0 -2.28593e+06 4.33912e+06 0 -2.27596e+06 4.39964e+06 0 -2.26353e+06 4.46118e+06 0 -2.24846e+06 4.52363e+06 0 -2.23059e+06 4.58687e+06 0 -2.20973e+06 4.65075e+06 0 -2.18574e+06 4.71511e+06 0 -2.15842e+06 4.77974e+06 0 -2.12764e+06 4.84442e+06 0 -2.09325e+06 4.90891e+06 0 -2.05511e+06 4.97293e+06 0 -2.01311e+06 5.03617e+06 0 -1.96717e+06 5.0983e+06 0 -1.91723e+06 5.15896e+06 0 -1.86326e+06 5.21777e+06 0 -1.80529e+06 5.2743e+06 0 -1.74338e+06 5.32814e+06 0 -1.67765e+06 5.37884e+06 0 -1.60827e+06 5.42594e+06 0 -1.5355e+06 5.469e+06 0 -1.45963e+06 5.50755e+06 0 -1.38106e+06 5.54118e+06 0 -1.30026e+06 5.5695e+06 0 -1.21776e+06 5.59216e+06 0 -1.13418e+06 5.60889e+06 0 -1.0502e+06 5.6195e+06 0 -966566 5.62391e+06 0 -884023 5.62212e+06 0 -803331 5.61411e+06 0 -1.88559e+06 2.86049e+06 0 -1.89865e+06 2.88396e+06 0 -1.91178e+06 2.90798e+06 0 -1.92498e+06 2.93257e+06 0 -1.93824e+06 2.95774e+06 0 -1.95155e+06 2.98353e+06 0 -1.96489e+06 3.00996e+06 0 -1.97825e+06 3.03706e+06 0 -1.99161e+06 3.06486e+06 0 -2.00495e+06 3.09339e+06 0 -2.01825e+06 3.12269e+06 0 -2.03148e+06 3.15277e+06 0 -2.04461e+06 3.18366e+06 0 -2.05763e+06 3.21541e+06 0 -2.07049e+06 3.24803e+06 0 -2.08315e+06 3.28157e+06 0 -2.0956e+06 3.31606e+06 0 -2.10777e+06 3.35154e+06 0 -2.11963e+06 3.38803e+06 0 -2.13113e+06 3.42557e+06 0 -2.1422e+06 3.46421e+06 0 -2.15279e+06 3.50396e+06 0 -2.16283e+06 3.54487e+06 0 -2.17226e+06 3.58695e+06 0 -2.18098e+06 3.63025e+06 0 -2.18893e+06 3.67477e+06 0 -2.196e+06 3.72055e+06 0 -2.20211e+06 3.7676e+06 0 -2.20715e+06 3.81594e+06 0 -2.21101e+06 3.86556e+06 0 -2.21358e+06 3.91648e+06 0 -2.21473e+06 3.96868e+06 0 -2.21434e+06 4.02215e+06 0 -2.21225e+06 4.07687e+06 0 -2.20834e+06 4.1328e+06 0 -2.20245e+06 4.18988e+06 0 -2.19442e+06 4.24807e+06 0 -2.18409e+06 4.30727e+06 0 -2.1713e+06 4.36739e+06 0 -2.15588e+06 4.42831e+06 0 -2.13768e+06 4.4899e+06 0 -2.11652e+06 4.552e+06 0 -2.09225e+06 4.61443e+06 0 -2.06471e+06 4.67697e+06 0 -2.03378e+06 4.73939e+06 0 -1.99931e+06 4.80144e+06 0 -1.96121e+06 4.86282e+06 0 -1.9194e+06 4.92323e+06 0 -1.87382e+06 4.98231e+06 0 -1.82444e+06 5.03972e+06 0 -1.7713e+06 5.09507e+06 0 -1.71445e+06 5.14795e+06 0 -1.65401e+06 5.19796e+06 0 -1.59014e+06 5.24467e+06 0 -1.52309e+06 5.28768e+06 0 -1.45314e+06 5.32657e+06 0 -1.38065e+06 5.36098e+06 0 -1.30606e+06 5.39055e+06 0 -1.22986e+06 5.41499e+06 0 -1.15259e+06 5.43408e+06 0 -1.07486e+06 5.44766e+06 0 -997325 5.45569e+06 0 -920628 5.45821e+06 0 -845473 5.45551e+06 0 -1.80039e+06 2.77412e+06 0 -1.81299e+06 2.79713e+06 0 -1.82568e+06 2.82063e+06 0 -1.83845e+06 2.84466e+06 0 -1.85129e+06 2.86925e+06 0 -1.8642e+06 2.89441e+06 0 -1.87714e+06 2.92017e+06 0 -1.89013e+06 2.94656e+06 0 -1.90313e+06 2.97359e+06 0 -1.91613e+06 3.00131e+06 0 -1.92911e+06 3.02974e+06 0 -1.94206e+06 3.0589e+06 0 -1.95494e+06 3.08884e+06 0 -1.96772e+06 3.11959e+06 0 -1.98039e+06 3.15116e+06 0 -1.9929e+06 3.1836e+06 0 -2.00522e+06 3.21694e+06 0 -2.01731e+06 3.2512e+06 0 -2.02913e+06 3.28643e+06 0 -2.04063e+06 3.32266e+06 0 -2.05176e+06 3.35991e+06 0 -2.06247e+06 3.39823e+06 0 -2.0727e+06 3.43764e+06 0 -2.08237e+06 3.47818e+06 0 -2.09141e+06 3.51987e+06 0 -2.09975e+06 3.56275e+06 0 -2.10731e+06 3.60682e+06 0 -2.11398e+06 3.65212e+06 0 -2.11968e+06 3.69866e+06 0 -2.12431e+06 3.74644e+06 0 -2.12774e+06 3.79547e+06 0 -2.12986e+06 3.84575e+06 0 -2.13055e+06 3.89726e+06 0 -2.12967e+06 3.94998e+06 0 -2.1271e+06 4.00389e+06 0 -2.12268e+06 4.05894e+06 0 -2.11626e+06 4.11507e+06 0 -2.1077e+06 4.17221e+06 0 -2.09683e+06 4.23027e+06 0 -2.0835e+06 4.28915e+06 0 -2.06755e+06 4.34871e+06 0 -2.04881e+06 4.40881e+06 0 -2.02715e+06 4.46928e+06 0 -2.0024e+06 4.52992e+06 0 -1.97444e+06 4.59051e+06 0 -1.94315e+06 4.65081e+06 0 -1.90842e+06 4.71054e+06 0 -1.87018e+06 4.76942e+06 0 -1.82837e+06 4.82712e+06 0 -1.78296e+06 4.8833e+06 0 -1.73399e+06 4.9376e+06 0 -1.68151e+06 4.98965e+06 0 -1.62563e+06 5.03906e+06 0 -1.5665e+06 5.08544e+06 0 -1.50435e+06 5.12842e+06 0 -1.43944e+06 5.16762e+06 0 -1.37212e+06 5.20269e+06 0 -1.30278e+06 5.23333e+06 0 -1.23186e+06 5.25928e+06 0 -1.15987e+06 5.28033e+06 0 -1.08734e+06 5.29635e+06 0 -1.01485e+06 5.3073e+06 0 -942967 5.31323e+06 0 -872275 5.31422e+06 0 -1.72194e+06 2.69492e+06 0 -1.73409e+06 2.71761e+06 0 -1.74635e+06 2.74077e+06 0 -1.75869e+06 2.76443e+06 0 -1.77111e+06 2.78859e+06 0 -1.78361e+06 2.8133e+06 0 -1.79617e+06 2.83857e+06 0 -1.80877e+06 2.86442e+06 0 -1.8214e+06 2.89089e+06 0 -1.83405e+06 2.918e+06 0 -1.8467e+06 2.94577e+06 0 -1.85933e+06 2.97424e+06 0 -1.87192e+06 3.00343e+06 0 -1.88444e+06 3.03337e+06 0 -1.89687e+06 3.06411e+06 0 -1.90917e+06 3.09566e+06 0 -1.92132e+06 3.12806e+06 0 -1.93327e+06 3.16134e+06 0 -1.94499e+06 3.19553e+06 0 -1.95643e+06 3.23067e+06 0 -1.96755e+06 3.26679e+06 0 -1.97829e+06 3.30392e+06 0 -1.98859e+06 3.34209e+06 0 -1.9984e+06 3.38134e+06 0 -2.00765e+06 3.42168e+06 0 -2.01626e+06 3.46316e+06 0 -2.02416e+06 3.50578e+06 0 -2.03125e+06 3.54958e+06 0 -2.03745e+06 3.59457e+06 0 -2.04266e+06 3.64077e+06 0 -2.04677e+06 3.68817e+06 0 -2.04967e+06 3.73677e+06 0 -2.05124e+06 3.78658e+06 0 -2.05136e+06 3.83757e+06 0 -2.04989e+06 3.88971e+06 0 -2.0467e+06 3.94298e+06 0 -2.04164e+06 3.9973e+06 0 -2.03457e+06 4.05263e+06 0 -2.02533e+06 4.10887e+06 0 -2.01377e+06 4.16593e+06 0 -1.99974e+06 4.2237e+06 0 -1.98309e+06 4.28202e+06 0 -1.96367e+06 4.34075e+06 0 -1.94133e+06 4.3997e+06 0 -1.91596e+06 4.45866e+06 0 -1.88742e+06 4.5174e+06 0 -1.85562e+06 4.57567e+06 0 -1.82049e+06 4.63318e+06 0 -1.78196e+06 4.68964e+06 0 -1.74002e+06 4.74473e+06 0 -1.69469e+06 4.7981e+06 0 -1.64601e+06 4.84941e+06 0 -1.59409e+06 4.89828e+06 0 -1.53907e+06 4.94437e+06 0 -1.48117e+06 4.98731e+06 0 -1.42062e+06 5.02676e+06 0 -1.35775e+06 5.0624e+06 0 -1.29292e+06 5.09394e+06 0 -1.22653e+06 5.12115e+06 0 -1.15904e+06 5.14384e+06 0 -1.09095e+06 5.16189e+06 0 -1.02276e+06 5.17525e+06 0 -954984 5.18397e+06 0 -888164 5.18819e+06 0 -1.64936e+06 2.62137e+06 0 -1.66108e+06 2.64389e+06 0 -1.67291e+06 2.66685e+06 0 -1.68484e+06 2.69026e+06 0 -1.69685e+06 2.71417e+06 0 -1.70894e+06 2.73857e+06 0 -1.72111e+06 2.7635e+06 0 -1.73333e+06 2.78898e+06 0 -1.74559e+06 2.81504e+06 0 -1.75789e+06 2.84169e+06 0 -1.7702e+06 2.86898e+06 0 -1.7825e+06 2.89692e+06 0 -1.79479e+06 2.92554e+06 0 -1.80702e+06 2.95488e+06 0 -1.81919e+06 2.98495e+06 0 -1.83125e+06 3.0158e+06 0 -1.84319e+06 3.04745e+06 0 -1.85496e+06 3.07994e+06 0 -1.86653e+06 3.1133e+06 0 -1.87786e+06 3.14755e+06 0 -1.88891e+06 3.18274e+06 0 -1.89962e+06 3.21888e+06 0 -1.90994e+06 3.25603e+06 0 -1.91982e+06 3.29419e+06 0 -1.92918e+06 3.33341e+06 0 -1.93797e+06 3.3737e+06 0 -1.9461e+06 3.41511e+06 0 -1.9535e+06 3.45763e+06 0 -1.96008e+06 3.5013e+06 0 -1.96574e+06 3.54613e+06 0 -1.97039e+06 3.59212e+06 0 -1.97391e+06 3.63929e+06 0 -1.9762e+06 3.68761e+06 0 -1.97713e+06 3.73709e+06 0 -1.97658e+06 3.78769e+06 0 -1.97441e+06 3.83939e+06 0 -1.9705e+06 3.89213e+06 0 -1.96469e+06 3.94586e+06 0 -1.95684e+06 4.0005e+06 0 -1.9468e+06 4.05596e+06 0 -1.93443e+06 4.11213e+06 0 -1.91958e+06 4.16888e+06 0 -1.90211e+06 4.22606e+06 0 -1.88187e+06 4.2835e+06 0 -1.85874e+06 4.341e+06 0 -1.83261e+06 4.39835e+06 0 -1.80338e+06 4.45531e+06 0 -1.77097e+06 4.5116e+06 0 -1.73533e+06 4.56696e+06 0 -1.69643e+06 4.62106e+06 0 -1.65428e+06 4.6736e+06 0 -1.60894e+06 4.72423e+06 0 -1.5605e+06 4.77263e+06 0 -1.50909e+06 4.81844e+06 0 -1.4549e+06 4.86133e+06 0 -1.39817e+06 4.90098e+06 0 -1.33918e+06 4.93709e+06 0 -1.27827e+06 4.96939e+06 0 -1.21582e+06 4.99766e+06 0 -1.15225e+06 5.02173e+06 0 -1.088e+06 5.04148e+06 0 -1.02354e+06 5.05687e+06 0 -959339 5.06791e+06 0 -895882 5.07472e+06 0 -1.58189e+06 2.55233e+06 0 -1.5932e+06 2.5748e+06 0 -1.60462e+06 2.59767e+06 0 -1.61614e+06 2.62097e+06 0 -1.62775e+06 2.64473e+06 0 -1.63946e+06 2.66896e+06 0 -1.65123e+06 2.69368e+06 0 -1.66308e+06 2.71892e+06 0 -1.67498e+06 2.74471e+06 0 -1.68692e+06 2.77105e+06 0 -1.69889e+06 2.79799e+06 0 -1.71087e+06 2.82555e+06 0 -1.72284e+06 2.85376e+06 0 -1.73478e+06 2.88263e+06 0 -1.74667e+06 2.91221e+06 0 -1.75848e+06 2.94252e+06 0 -1.77018e+06 2.97359e+06 0 -1.78175e+06 3.00545e+06 0 -1.79315e+06 3.03814e+06 0 -1.80433e+06 3.07168e+06 0 -1.81527e+06 3.1061e+06 0 -1.8259e+06 3.14145e+06 0 -1.83619e+06 3.17774e+06 0 -1.84607e+06 3.21501e+06 0 -1.85549e+06 3.25329e+06 0 -1.86439e+06 3.2926e+06 0 -1.87268e+06 3.33296e+06 0 -1.88029e+06 3.37441e+06 0 -1.88715e+06 3.41696e+06 0 -1.89316e+06 3.46062e+06 0 -1.89823e+06 3.50541e+06 0 -1.90226e+06 3.55133e+06 0 -1.90513e+06 3.59837e+06 0 -1.90673e+06 3.64654e+06 0 -1.90695e+06 3.69579e+06 0 -1.90565e+06 3.74612e+06 0 -1.9027e+06 3.79747e+06 0 -1.89797e+06 3.84979e+06 0 -1.89131e+06 3.90302e+06 0 -1.88259e+06 3.95706e+06 0 -1.87166e+06 4.01182e+06 0 -1.85837e+06 4.06717e+06 0 -1.84259e+06 4.12298e+06 0 -1.82419e+06 4.17907e+06 0 -1.80304e+06 4.23528e+06 0 -1.77902e+06 4.29138e+06 0 -1.75205e+06 4.34716e+06 0 -1.72204e+06 4.40237e+06 0 -1.68895e+06 4.45672e+06 0 -1.65273e+06 4.50995e+06 0 -1.61341e+06 4.56173e+06 0 -1.57103e+06 4.61176e+06 0 -1.52566e+06 4.65971e+06 0 -1.47744e+06 4.70526e+06 0 -1.42653e+06 4.7481e+06 0 -1.37316e+06 4.78791e+06 0 -1.3176e+06 4.82441e+06 0 -1.26015e+06 4.85736e+06 0 -1.20116e+06 4.88653e+06 0 -1.14103e+06 4.91177e+06 0 -1.08016e+06 4.93296e+06 0 -1.01899e+06 4.95006e+06 0 -957945 4.96308e+06 0 -897474 4.9721e+06 0 -1.51888e+06 2.48693e+06 0 -1.52979e+06 2.50943e+06 0 -1.54082e+06 2.53232e+06 0 -1.55195e+06 2.55561e+06 0 -1.56318e+06 2.57933e+06 0 -1.5745e+06 2.60349e+06 0 -1.58591e+06 2.62812e+06 0 -1.59739e+06 2.65324e+06 0 -1.60893e+06 2.67886e+06 0 -1.62052e+06 2.70502e+06 0 -1.63215e+06 2.73174e+06 0 -1.64381e+06 2.75904e+06 0 -1.65546e+06 2.78696e+06 0 -1.66711e+06 2.8155e+06 0 -1.67872e+06 2.84472e+06 0 -1.69026e+06 2.87462e+06 0 -1.70173e+06 2.90525e+06 0 -1.71307e+06 2.93664e+06 0 -1.72427e+06 2.9688e+06 0 -1.73529e+06 3.00178e+06 0 -1.74608e+06 3.0356e+06 0 -1.75661e+06 3.0703e+06 0 -1.76682e+06 3.1059e+06 0 -1.77667e+06 3.14243e+06 0 -1.7861e+06 3.17993e+06 0 -1.79504e+06 3.21842e+06 0 -1.80344e+06 3.25792e+06 0 -1.8112e+06 3.29847e+06 0 -1.81827e+06 3.34006e+06 0 -1.82455e+06 3.38274e+06 0 -1.82996e+06 3.42649e+06 0 -1.83438e+06 3.47134e+06 0 -1.83773e+06 3.51728e+06 0 -1.8399e+06 3.56431e+06 0 -1.84075e+06 3.6124e+06 0 -1.84019e+06 3.66153e+06 0 -1.83806e+06 3.71166e+06 0 -1.83426e+06 3.76275e+06 0 -1.82863e+06 3.81473e+06 0 -1.82105e+06 3.86752e+06 0 -1.81136e+06 3.92103e+06 0 -1.79945e+06 3.97514e+06 0 -1.78516e+06 4.02973e+06 0 -1.76837e+06 4.08463e+06 0 -1.74896e+06 4.13967e+06 0 -1.72682e+06 4.19467e+06 0 -1.70185e+06 4.24939e+06 0 -1.67397e+06 4.30362e+06 0 -1.64313e+06 4.35708e+06 0 -1.60931e+06 4.40951e+06 0 -1.5725e+06 4.46062e+06 0 -1.53275e+06 4.51009e+06 0 -1.49012e+06 4.55764e+06 0 -1.44473e+06 4.60295e+06 0 -1.39675e+06 4.64572e+06 0 -1.34638e+06 4.68566e+06 0 -1.29386e+06 4.72249e+06 0 -1.23948e+06 4.75598e+06 0 -1.18358e+06 4.78593e+06 0 -1.12651e+06 4.81217e+06 0 -1.06865e+06 4.8346e+06 0 -1.01041e+06 4.85317e+06 0 -952184 4.86788e+06 0 -894388 4.8788e+06 0 -1.45977e+06 2.42447e+06 0 -1.47031e+06 2.44709e+06 0 -1.48096e+06 2.47008e+06 0 -1.49172e+06 2.49345e+06 0 -1.50258e+06 2.51722e+06 0 -1.51353e+06 2.54141e+06 0 -1.52458e+06 2.56604e+06 0 -1.5357e+06 2.59113e+06 0 -1.5469e+06 2.6167e+06 0 -1.55815e+06 2.64277e+06 0 -1.56945e+06 2.66938e+06 0 -1.58078e+06 2.69653e+06 0 -1.59213e+06 2.72426e+06 0 -1.60348e+06 2.7526e+06 0 -1.61481e+06 2.78156e+06 0 -1.62609e+06 2.81119e+06 0 -1.6373e+06 2.8415e+06 0 -1.64842e+06 2.87252e+06 0 -1.65941e+06 2.9043e+06 0 -1.67024e+06 2.93684e+06 0 -1.68088e+06 2.97019e+06 0 -1.69127e+06 3.00438e+06 0 -1.70139e+06 3.03943e+06 0 -1.71117e+06 3.07537e+06 0 -1.72057e+06 3.11224e+06 0 -1.72952e+06 3.15005e+06 0 -1.73797e+06 3.18884e+06 0 -1.74584e+06 3.22862e+06 0 -1.75306e+06 3.26942e+06 0 -1.75954e+06 3.31126e+06 0 -1.76521e+06 3.35414e+06 0 -1.76996e+06 3.39808e+06 0 -1.77371e+06 3.44307e+06 0 -1.77634e+06 3.48911e+06 0 -1.77774e+06 3.53619e+06 0 -1.77779e+06 3.58428e+06 0 -1.77638e+06 3.63336e+06 0 -1.77337e+06 3.68337e+06 0 -1.76864e+06 3.73425e+06 0 -1.76204e+06 3.78594e+06 0 -1.75346e+06 3.83835e+06 0 -1.74274e+06 3.89136e+06 0 -1.72977e+06 3.94486e+06 0 -1.71441e+06 3.9987e+06 0 -1.69655e+06 4.05271e+06 0 -1.67607e+06 4.10671e+06 0 -1.65288e+06 4.1605e+06 0 -1.62691e+06 4.21385e+06 0 -1.59809e+06 4.26651e+06 0 -1.56641e+06 4.31822e+06 0 -1.53185e+06 4.36871e+06 0 -1.49445e+06 4.4177e+06 0 -1.45427e+06 4.46488e+06 0 -1.41143e+06 4.50996e+06 0 -1.36607e+06 4.55266e+06 0 -1.31838e+06 4.5927e+06 0 -1.2686e+06 4.62982e+06 0 -1.21698e+06 4.66378e+06 0 -1.16385e+06 4.6944e+06 0 -1.10952e+06 4.72151e+06 0 -1.05437e+06 4.74502e+06 0 -998764 4.76486e+06 0 -943080 4.78103e+06 0 -887706 4.79359e+06 0 -1.4041e+06 2.3644e+06 0 -1.41427e+06 2.38722e+06 0 -1.42457e+06 2.41039e+06 0 -1.43497e+06 2.43391e+06 0 -1.44547e+06 2.45781e+06 0 -1.45608e+06 2.48211e+06 0 -1.46678e+06 2.50682e+06 0 -1.47756e+06 2.53197e+06 0 -1.48842e+06 2.55757e+06 0 -1.49934e+06 2.58365e+06 0 -1.51032e+06 2.61022e+06 0 -1.52134e+06 2.63732e+06 0 -1.53238e+06 2.66497e+06 0 -1.54344e+06 2.69319e+06 0 -1.55448e+06 2.72202e+06 0 -1.5655e+06 2.75146e+06 0 -1.57646e+06 2.78156e+06 0 -1.58735e+06 2.81234e+06 0 -1.59812e+06 2.84383e+06 0 -1.60876e+06 2.87606e+06 0 -1.61922e+06 2.90906e+06 0 -1.62947e+06 2.94285e+06 0 -1.63947e+06 2.97747e+06 0 -1.64916e+06 3.01294e+06 0 -1.6585e+06 3.0493e+06 0 -1.66744e+06 3.08657e+06 0 -1.6759e+06 3.12477e+06 0 -1.68383e+06 3.16393e+06 0 -1.69116e+06 3.20407e+06 0 -1.6978e+06 3.2452e+06 0 -1.70367e+06 3.28735e+06 0 -1.70869e+06 3.33051e+06 0 -1.71276e+06 3.3747e+06 0 -1.71578e+06 3.4199e+06 0 -1.71764e+06 3.46611e+06 0 -1.71822e+06 3.5133e+06 0 -1.71742e+06 3.56146e+06 0 -1.71511e+06 3.61053e+06 0 -1.71115e+06 3.66046e+06 0 -1.70543e+06 3.71118e+06 0 -1.69781e+06 3.76261e+06 0 -1.68816e+06 3.81466e+06 0 -1.67636e+06 3.8672e+06 0 -1.66227e+06 3.92009e+06 0 -1.64578e+06 3.97318e+06 0 -1.62679e+06 4.0263e+06 0 -1.6052e+06 4.07925e+06 0 -1.58094e+06 4.13181e+06 0 -1.55394e+06 4.18376e+06 0 -1.52418e+06 4.23483e+06 0 -1.49164e+06 4.28477e+06 0 -1.45637e+06 4.33331e+06 0 -1.41841e+06 4.38016e+06 0 -1.37786e+06 4.42504e+06 0 -1.33487e+06 4.46767e+06 0 -1.28961e+06 4.50779e+06 0 -1.24229e+06 4.54515e+06 0 -1.19317e+06 4.57953e+06 0 -1.14253e+06 4.61073e+06 0 -1.09069e+06 4.63861e+06 0 -1.03799e+06 4.66306e+06 0 -984774 4.68402e+06 0 -931401 4.70148e+06 0 -878235 4.71548e+06 0 -1.35145e+06 2.30631e+06 0 -1.36129e+06 2.32939e+06 0 -1.37123e+06 2.35279e+06 0 -1.38129e+06 2.37653e+06 0 -1.39146e+06 2.40063e+06 0 -1.40173e+06 2.4251e+06 0 -1.41209e+06 2.44997e+06 0 -1.42254e+06 2.47524e+06 0 -1.43308e+06 2.50095e+06 0 -1.44368e+06 2.52711e+06 0 -1.45435e+06 2.55374e+06 0 -1.46506e+06 2.58087e+06 0 -1.47581e+06 2.60852e+06 0 -1.48658e+06 2.63672e+06 0 -1.49735e+06 2.66548e+06 0 -1.5081e+06 2.69484e+06 0 -1.51881e+06 2.72482e+06 0 -1.52946e+06 2.75545e+06 0 -1.54002e+06 2.78676e+06 0 -1.55046e+06 2.81877e+06 0 -1.56074e+06 2.85152e+06 0 -1.57083e+06 2.88503e+06 0 -1.5807e+06 2.91932e+06 0 -1.59029e+06 2.95444e+06 0 -1.59955e+06 2.9904e+06 0 -1.60844e+06 3.02724e+06 0 -1.6169e+06 3.06497e+06 0 -1.62485e+06 3.10363e+06 0 -1.63225e+06 3.14322e+06 0 -1.639e+06 3.18378e+06 0 -1.64504e+06 3.22531e+06 0 -1.65028e+06 3.26782e+06 0 -1.65461e+06 3.31132e+06 0 -1.65796e+06 3.35581e+06 0 -1.66021e+06 3.40128e+06 0 -1.66126e+06 3.4477e+06 0 -1.66099e+06 3.49506e+06 0 -1.65928e+06 3.54331e+06 0 -1.65601e+06 3.59241e+06 0 -1.65106e+06 3.64229e+06 0 -1.64429e+06 3.69287e+06 0 -1.63559e+06 3.74406e+06 0 -1.62483e+06 3.79575e+06 0 -1.61188e+06 3.84781e+06 0 -1.59663e+06 3.90009e+06 0 -1.57897e+06 3.95243e+06 0 -1.55882e+06 4.00463e+06 0 -1.5361e+06 4.0565e+06 0 -1.51074e+06 4.1078e+06 0 -1.48272e+06 4.1583e+06 0 -1.45202e+06 4.20775e+06 0 -1.41866e+06 4.25589e+06 0 -1.38271e+06 4.30244e+06 0 -1.34425e+06 4.34713e+06 0 -1.30341e+06 4.3897e+06 0 -1.26035e+06 4.4299e+06 0 -1.21527e+06 4.46748e+06 0 -1.16842e+06 4.50222e+06 0 -1.12006e+06 4.53394e+06 0 -1.07048e+06 4.5625e+06 0 -1.02001e+06 4.58779e+06 0 -968986 4.60973e+06 0 -917730 4.62833e+06 0 -866592 4.64361e+06 0 -1.30149e+06 2.24984e+06 0 -1.31099e+06 2.27323e+06 0 -1.32061e+06 2.29693e+06 0 -1.33034e+06 2.32094e+06 0 -1.34018e+06 2.3453e+06 0 -1.35013e+06 2.37001e+06 0 -1.36017e+06 2.39509e+06 0 -1.37031e+06 2.42056e+06 0 -1.38053e+06 2.44644e+06 0 -1.39083e+06 2.47274e+06 0 -1.40119e+06 2.4995e+06 0 -1.41161e+06 2.52673e+06 0 -1.42207e+06 2.55446e+06 0 -1.43256e+06 2.5827e+06 0 -1.44306e+06 2.61149e+06 0 -1.45355e+06 2.64084e+06 0 -1.46401e+06 2.67079e+06 0 -1.47443e+06 2.70135e+06 0 -1.48477e+06 2.73256e+06 0 -1.495e+06 2.76445e+06 0 -1.5051e+06 2.79704e+06 0 -1.51503e+06 2.83035e+06 0 -1.52475e+06 2.86442e+06 0 -1.53422e+06 2.89928e+06 0 -1.5434e+06 2.93495e+06 0 -1.55223e+06 2.97145e+06 0 -1.56065e+06 3.00882e+06 0 -1.56861e+06 3.04707e+06 0 -1.57605e+06 3.08623e+06 0 -1.58289e+06 3.12632e+06 0 -1.58905e+06 3.16734e+06 0 -1.59446e+06 3.20932e+06 0 -1.59902e+06 3.25225e+06 0 -1.60264e+06 3.29614e+06 0 -1.60523e+06 3.34097e+06 0 -1.60667e+06 3.38674e+06 0 -1.60686e+06 3.43342e+06 0 -1.60569e+06 3.48097e+06 0 -1.60303e+06 3.52934e+06 0 -1.59876e+06 3.57849e+06 0 -1.59276e+06 3.62833e+06 0 -1.5849e+06 3.67878e+06 0 -1.57507e+06 3.72972e+06 0 -1.56314e+06 3.78105e+06 0 -1.54901e+06 3.83261e+06 0 -1.53256e+06 3.88425e+06 0 -1.51371e+06 3.93579e+06 0 -1.49239e+06 3.98704e+06 0 -1.46852e+06 4.03777e+06 0 -1.44208e+06 4.08777e+06 0 -1.41305e+06 4.13678e+06 0 -1.38145e+06 4.18456e+06 0 -1.34733e+06 4.23085e+06 0 -1.31077e+06 4.27538e+06 0 -1.27188e+06 4.3179e+06 0 -1.23084e+06 4.35816e+06 0 -1.18781e+06 4.39594e+06 0 -1.14303e+06 4.43101e+06 0 -1.09675e+06 4.4632e+06 0 -1.04926e+06 4.49237e+06 0 -1.00084e+06 4.5184e+06 0 -951820 4.54123e+06 0 -902514 4.56084e+06 0 -853250 4.57726e+06 0 -1.25391e+06 2.19473e+06 0 -1.2631e+06 2.21847e+06 0 -1.2724e+06 2.24251e+06 0 -1.28182e+06 2.26685e+06 0 -1.29135e+06 2.29151e+06 0 -1.30099e+06 2.3165e+06 0 -1.31072e+06 2.34185e+06 0 -1.32055e+06 2.36757e+06 0 -1.33047e+06 2.39368e+06 0 -1.34047e+06 2.4202e+06 0 -1.35054e+06 2.44715e+06 0 -1.36067e+06 2.47454e+06 0 -1.37085e+06 2.50241e+06 0 -1.38107e+06 2.53077e+06 0 -1.3913e+06 2.55964e+06 0 -1.40154e+06 2.58906e+06 0 -1.41176e+06 2.61904e+06 0 -1.42195e+06 2.64962e+06 0 -1.43207e+06 2.68081e+06 0 -1.4421e+06 2.71265e+06 0 -1.45201e+06 2.74516e+06 0 -1.46177e+06 2.77836e+06 0 -1.47135e+06 2.81229e+06 0 -1.48069e+06 2.84698e+06 0 -1.48976e+06 2.88244e+06 0 -1.49852e+06 2.9187e+06 0 -1.50689e+06 2.9558e+06 0 -1.51484e+06 2.99375e+06 0 -1.5223e+06 3.03257e+06 0 -1.52919e+06 3.07228e+06 0 -1.53545e+06 3.1129e+06 0 -1.541e+06 3.15444e+06 0 -1.54574e+06 3.1969e+06 0 -1.5496e+06 3.24029e+06 0 -1.55248e+06 3.2846e+06 0 -1.55427e+06 3.32981e+06 0 -1.55487e+06 3.37591e+06 0 -1.55416e+06 3.42286e+06 0 -1.55204e+06 3.47061e+06 0 -1.54838e+06 3.51913e+06 0 -1.54306e+06 3.56832e+06 0 -1.53597e+06 3.61812e+06 0 -1.52698e+06 3.66842e+06 0 -1.51598e+06 3.71911e+06 0 -1.50285e+06 3.77004e+06 0 -1.4875e+06 3.82107e+06 0 -1.46984e+06 3.87203e+06 0 -1.44979e+06 3.92273e+06 0 -1.42728e+06 3.97296e+06 0 -1.40228e+06 4.02251e+06 0 -1.37478e+06 4.07114e+06 0 -1.34478e+06 4.11861e+06 0 -1.31234e+06 4.16466e+06 0 -1.27752e+06 4.20905e+06 0 -1.24044e+06 4.25153e+06 0 -1.20124e+06 4.29186e+06 0 -1.1601e+06 4.32982e+06 0 -1.11723e+06 4.36519e+06 0 -1.07287e+06 4.39781e+06 0 -1.02729e+06 4.42753e+06 0 -980762 4.45423e+06 0 -933600 4.47787e+06 0 -886100 4.4984e+06 0 -838577 4.51585e+06 0 -1.20846e+06 2.14075e+06 0 -1.21735e+06 2.16489e+06 0 -1.22635e+06 2.1893e+06 0 -1.23547e+06 2.21401e+06 0 -1.2447e+06 2.23901e+06 0 -1.25404e+06 2.26434e+06 0 -1.26348e+06 2.29001e+06 0 -1.27301e+06 2.31603e+06 0 -1.28264e+06 2.34241e+06 0 -1.29235e+06 2.36919e+06 0 -1.30214e+06 2.39638e+06 0 -1.31199e+06 2.42399e+06 0 -1.3219e+06 2.45206e+06 0 -1.33185e+06 2.48059e+06 0 -1.34183e+06 2.50962e+06 0 -1.35182e+06 2.53917e+06 0 -1.3618e+06 2.56925e+06 0 -1.37176e+06 2.5999e+06 0 -1.38166e+06 2.63115e+06 0 -1.39149e+06 2.66301e+06 0 -1.40121e+06 2.69551e+06 0 -1.4108e+06 2.72868e+06 0 -1.42023e+06 2.76254e+06 0 -1.42944e+06 2.79713e+06 0 -1.4384e+06 2.83247e+06 0 -1.44707e+06 2.86858e+06 0 -1.45539e+06 2.90549e+06 0 -1.46331e+06 2.94321e+06 0 -1.47076e+06 2.98178e+06 0 -1.47769e+06 3.02121e+06 0 -1.48402e+06 3.06151e+06 0 -1.48968e+06 3.1027e+06 0 -1.49458e+06 3.14479e+06 0 -1.49864e+06 3.18777e+0