<?xml version="1.0"?> 
<VTKFile type="StructuredGrid" version="0.1"> 
<StructuredGrid WholeExtent="0 63 0 63 0 0"> 
<Piece Extent="0 63 0 63 0 0"> 
<PointData>
<DataArray type="Float32" Name="|E|" format="ascii" NumberOfComponents="3"> 
-776317 0 0 -788304 41534.6 0 -800552 82925.8 0 -813076 124185 0 -825886 165324 0 -838996 206354 0 -852418 247288 0 -866164 288135 0 -880247 328908 0 -894677 369619 0 -909467 410278 0 -924628 450898 0 -940171 491488 0 -956108 532059 0 -972449 572623 0 -989205 613189 0 -1.00639e+06 653767 0 -1.024e+06 694365 0 -1.04207e+06 734993 0 -1.06058e+06 775657 0 -1.07957e+06 816365 0 -1.09902e+06 857122 0 -1.11896e+06 897932 0 -1.1394e+06 938797 0 -1.16034e+06 979719 0 -1.18179e+06 1.0207e+06 0 -1.20376e+06 1.06173e+06 0 -1.22628e+06 1.1028e+06 0 -1.24934e+06 1.14391e+06 0 -1.27296e+06 1.18504e+06 0 -1.29716e+06 1.22617e+06 0 -1.32196e+06 1.26729e+06 0 -1.34738e+06 1.30835e+06 0 -1.37345e+06 1.34933e+06 0 -1.4002e+06 1.39019e+06 0 -1.42768e+06 1.43086e+06 0 -1.45592e+06 1.4713e+06 0 -1.485e+06 1.51144e+06 0 -1.51499e+06 1.55118e+06 0 -1.54598e+06 1.59043e+06 0 -1.57807e+06 1.62909e+06 0 -1.61142e+06 1.66704e+06 0 -1.64617e+06 1.70412e+06 0 -1.68253e+06 1.74018e+06 0 -1.72075e+06 1.77505e+06 0 -1.7611e+06 1.80851e+06 0 -1.80393e+06 1.84034e+06 0 -1.84964e+06 1.87028e+06 0 -1.89872e+06 1.89805e+06 0 -1.95173e+06 1.92329e+06 0 -2.00932e+06 1.94562e+06 0 -2.07226e+06 1.96455e+06 0 -2.14146e+06 1.97949e+06 0 -2.21793e+06 1.98967e+06 0 -2.30287e+06 1.99408e+06 0 -2.39766e+06 1.99131e+06 0 -2.50385e+06 1.97937e+06 0 -2.62325e+06 1.95532e+06 0 -2.7579e+06 1.91471e+06 0 -2.91013e+06 1.85066e+06 0 -3.08265e+06 1.75224e+06 0 -3.27838e+06 1.60182e+06 0 -3.50125e+06 1.37065e+06 0 -3.75264e+06 1.01099e+06 0 -764448 0 0 -776552 41611.9 0 -788914 83081.6 0 -801546 124421 0 -814462 165640 0 -827674 206752 0 -841193 247767 0 -855033 288698 0 -869205 329555 0 -883722 370349 0 -898595 411093 0 -913836 451797 0 -929457 492473 0 -945468 533130 0 -961881 573779 0 -978706 614430 0 -995954 655093 0 -1.01364e+06 695777 0 -1.03176e+06 736490 0 -1.05034e+06 777239 0 -1.06938e+06 818032 0 -1.0889e+06 858873 0 -1.1089e+06 899768 0 -1.12939e+06 940718 0 -1.15039e+06 981725 0 -1.1719e+06 1.02279e+06 0 -1.19394e+06 1.0639e+06 0 -1.21651e+06 1.10506e+06 0 -1.23964e+06 1.14626e+06 0 -1.26333e+06 1.18748e+06 0 -1.2876e+06 1.2287e+06 0 -1.31248e+06 1.26991e+06 0 -1.33798e+06 1.31107e+06 0 -1.36414e+06 1.35215e+06 0 -1.39099e+06 1.39312e+06 0 -1.41856e+06 1.43391e+06 0 -1.44692e+06 1.47448e+06 0 -1.47612e+06 1.51475e+06 0 -1.50624e+06 1.55465e+06 0 -1.53738e+06 1.59408e+06 0 -1.56963e+06 1.63294e+06 0 -1.60315e+06 1.67111e+06 0 -1.63809e+06 1.70844e+06 0 -1.67465e+06 1.7448e+06 0 -1.71309e+06 1.78e+06 0 -1.75367e+06 1.81385e+06 0 -1.79675e+06 1.84613e+06 0 -1.84274e+06 1.87659e+06 0 -1.89211e+06 1.90496e+06 0 -1.94543e+06 1.9309e+06 0 -2.00337e+06 1.95402e+06 0 -2.06669e+06 1.97388e+06 0 -2.13632e+06 1.98989e+06 0 -2.21329e+06 2.00131e+06 0 -2.29883e+06 2.00716e+06 0 -2.39437e+06 2.00607e+06 0 -2.50156e+06 1.99608e+06 0 -2.62233e+06 1.97434e+06 0 -2.75896e+06 1.9365e+06 0 -2.91413e+06 1.87581e+06 0 -3.09114e+06 1.78157e+06 0 -3.29391e+06 1.63649e+06 0 -3.52797e+06 1.41238e+06 0 -3.79762e+06 1.06196e+06 0 -752557 0 0 -764779 41688.1 0 -777254 83235.1 0 -789996 124652 0 -803017 165952 0 -816329 207144 0 -829947 248240 0 -843880 289253 0 -858143 330192 0 -872747 371070 0 -887703 411898 0 -903025 452686 0 -918722 493446 0 -934808 534187 0 -951292 574921 0 -968187 615658 0 -985502 656406 0 -1.00325e+06 697175 0 -1.02144e+06 737972 0 -1.04008e+06 778807 0 -1.05918e+06 819684 0 -1.07876e+06 860610 0 -1.09882e+06 901589 0 -1.11937e+06 942623 0 -1.14043e+06 983714 0 -1.162e+06 1.02486e+06 0 -1.1841e+06 1.06606e+06 0 -1.20673e+06 1.10731e+06 0 -1.22992e+06 1.14859e+06 0 -1.25368e+06 1.1899e+06 0 -1.27802e+06 1.23121e+06 0 -1.30298e+06 1.27252e+06 0 -1.32856e+06 1.31378e+06 0 -1.3548e+06 1.35497e+06 0 -1.38174e+06 1.39604e+06 0 -1.40942e+06 1.43696e+06 0 -1.43789e+06 1.47765e+06 0 -1.46721e+06 1.51807e+06 0 -1.49746e+06 1.55812e+06 0 -1.52873e+06 1.59773e+06 0 -1.56114e+06 1.63678e+06 0 -1.59482e+06 1.67517e+06 0 -1.62994e+06 1.71277e+06 0 -1.66671e+06 1.74942e+06 0 -1.70535e+06 1.78495e+06 0 -1.74616e+06 1.81919e+06 0 -1.78948e+06 1.85192e+06 0 -1.83573e+06 1.8829e+06 0 -1.88538e+06 1.91187e+06 0 -1.939e+06 1.9385e+06 0 -1.99726e+06 1.96243e+06 0 -2.06094e+06 1.98321e+06 0 -2.13096e+06 2.00029e+06 0 -2.2084e+06 2.01296e+06 0 -2.29451e+06 2.02025e+06 0 -2.39075e+06 2.02085e+06 0 -2.49888e+06 2.01285e+06 0 -2.62096e+06 1.99348e+06 0 -2.75946e+06 1.95848e+06 0 -2.91742e+06 1.90128e+06 0 -3.09871e+06 1.81145e+06 0 -3.30821e+06 1.67209e+06 0 -3.55296e+06 1.45564e+06 0 -3.84021e+06 1.11556e+06 0 -740644 0 0 -752984 41763.1 0 -765572 83386.3 0 -778423 124881 0 -791550 166258 0 -804964 207530 0 -818679 248706 0 -832706 289800 0 -847059 330821 0 -861750 371782 0 -876790 412692 0 -892192 453564 0 -907967 494407 0 -924127 535233 0 -940684 576051 0 -957648 616872 0 -975030 657704 0 -992842 698558 0 -1.01109e+06 739440 0 -1.0298e+06 780359 0 -1.04896e+06 821320 0 -1.0686e+06 862331 0 -1.08872e+06 903394 0 -1.10933e+06 944513 0 -1.13044e+06 985689 0 -1.15207e+06 1.02692e+06 0 -1.17423e+06 1.06821e+06 0 -1.19693e+06 1.10954e+06 0 -1.22018e+06 1.15091e+06 0 -1.24401e+06 1.19231e+06 0 -1.26842e+06 1.23372e+06 0 -1.29345e+06 1.27511e+06 0 -1.31911e+06 1.31648e+06 0 -1.34544e+06 1.35777e+06 0 -1.37247e+06 1.39896e+06 0 -1.40025e+06 1.43999e+06 0 -1.42883e+06 1.48082e+06 0 -1.45826e+06 1.52137e+06 0 -1.48864e+06 1.56159e+06 0 -1.52005e+06 1.60137e+06 0 -1.5526e+06 1.64062e+06 0 -1.58645e+06 1.67924e+06 0 -1.62174e+06 1.71709e+06 0 -1.65869e+06 1.75403e+06 0 -1.69753e+06 1.78991e+06 0 -1.73856e+06 1.82453e+06 0 -1.78211e+06 1.85771e+06 0 -1.8286e+06 1.88921e+06 0 -1.87851e+06 1.91877e+06 0 -1.93242e+06 1.9461e+06 0 -1.99098e+06 1.97083e+06 0 -2.055e+06 1.99254e+06 0 -2.1254e+06 2.01069e+06 0 -2.20327e+06 2.0246e+06 0 -2.2899e+06 2.03335e+06 0 -2.38681e+06 2.03565e+06 0 -2.49582e+06 2.02967e+06 0 -2.61912e+06 2.0127e+06 0 -2.75938e+06 1.98062e+06 0 -2.91999e+06 1.92704e+06 0 -3.10534e+06 1.84182e+06 0 -3.32123e+06 1.70853e+06 0 -3.57616e+06 1.50032e+06 0 -3.88024e+06 1.17159e+06 0 -728711 0 0 -741168 41836.8 0 -753870 83535 0 -766830 125106 0 -780062 166560 0 -793578 207910 0 -807390 249166 0 -821512 290340 0 -835955 331442 0 -850733 372484 0 -865857 413476 0 -881339 454431 0 -897192 495357 0 -913427 536266 0 -930055 577168 0 -947089 618073 0 -964539 658989 0 -982416 699926 0 -1.00073e+06 740893 0 -1.0195e+06 781895 0 -1.03872e+06 822941 0 -1.05842e+06 864036 0 -1.07859e+06 905183 0 -1.09926e+06 946387 0 -1.12044e+06 987647 0 -1.14213e+06 1.02896e+06 0 -1.16435e+06 1.07034e+06 0 -1.18711e+06 1.11176e+06 0 -1.21043e+06 1.15322e+06 0 -1.23432e+06 1.1947e+06 0 -1.2588e+06 1.2362e+06 0 -1.2839e+06 1.2777e+06 0 -1.30964e+06 1.31916e+06 0 -1.33606e+06 1.36056e+06 0 -1.36318e+06 1.40186e+06 0 -1.39105e+06 1.44301e+06 0 -1.41973e+06 1.48397e+06 0 -1.44928e+06 1.52467e+06 0 -1.47978e+06 1.56504e+06 0 -1.51132e+06 1.605e+06 0 -1.54402e+06 1.64446e+06 0 -1.57802e+06 1.6833e+06 0 -1.61348e+06 1.7214e+06 0 -1.6506e+06 1.75864e+06 0 -1.68964e+06 1.79485e+06 0 -1.73087e+06 1.82987e+06 0 -1.77465e+06 1.8635e+06 0 -1.82137e+06 1.89551e+06 0 -1.87153e+06 1.92567e+06 0 -1.9257e+06 1.95368e+06 0 -1.98455e+06 1.97921e+06 0 -2.04888e+06 2.00185e+06 0 -2.11963e+06 2.02108e+06 0 -2.1979e+06 2.03624e+06 0 -2.28502e+06 2.04644e+06 0 -2.38255e+06 2.05046e+06 0 -2.49237e+06 2.04652e+06 0 -2.61681e+06 2.03199e+06 0 -2.75873e+06 2.0029e+06 0 -2.92182e+06 1.95306e+06 0 -3.11099e+06 1.87264e+06 0 -3.33292e+06 1.74574e+06 0 -3.59749e+06 1.54629e+06 0 -3.9176e+06 1.22987e+06 0 -716756 0 0 -729331 41909.4 0 -742147 83681.4 0 -755217 125327 0 -768554 166858 0 -782171 208285 0 -796081 249619 0 -810297 290872 0 -824831 332054 0 -839695 373176 0 -854903 414250 0 -870466 455286 0 -886396 496295 0 -902706 537287 0 -919407 578272 0 -936510 619260 0 -954027 660260 0 -971970 701280 0 -990349 742331 0 -1.00918e+06 783417 0 -1.02846e+06 824547 0 -1.04822e+06 865725 0 -1.06845e+06 906957 0 -1.08918e+06 948245 0 -1.11041e+06 989590 0 -1.13216e+06 1.03099e+06 0 -1.15444e+06 1.07245e+06 0 -1.17726e+06 1.11396e+06 0 -1.20065e+06 1.15551e+06 0 -1.2246e+06 1.19708e+06 0 -1.24916e+06 1.23868e+06 0 -1.27433e+06 1.28027e+06 0 -1.30015e+06 1.32183e+06 0 -1.32664e+06 1.36334e+06 0 -1.35385e+06 1.40475e+06 0 -1.38182e+06 1.44603e+06 0 -1.4106e+06 1.48712e+06 0 -1.44026e+06 1.52796e+06 0 -1.47088e+06 1.56849e+06 0 -1.50255e+06 1.60863e+06 0 -1.53539e+06 1.64828e+06 0 -1.56953e+06 1.68735e+06 0 -1.60515e+06 1.72572e+06 0 -1.64245e+06 1.76325e+06 0 -1.68167e+06 1.7998e+06 0 -1.7231e+06 1.8352e+06 0 -1.76708e+06 1.86927e+06 0 -1.81403e+06 1.90181e+06 0 -1.86442e+06 1.93256e+06 0 -1.91883e+06 1.96126e+06 0 -1.97795e+06 1.98759e+06 0 -2.04257e+06 2.01114e+06 0 -2.11364e+06 2.03145e+06 0 -2.19229e+06 2.04786e+06 0 -2.27986e+06 2.05953e+06 0 -2.37795e+06 2.06527e+06 0 -2.48853e+06 2.06338e+06 0 -2.61403e+06 2.05134e+06 0 -2.75749e+06 2.0253e+06 0 -2.9229e+06 1.9793e+06 0 -3.11565e+06 1.90386e+06 0 -3.34325e+06 1.78362e+06 0 -3.6169e+06 1.59343e+06 0 -3.95216e+06 1.2902e+06 0 -704782 0 0 -717474 41980.7 0 -730403 83825.4 0 -743582 125545 0 -757025 167151 0 -770744 208654 0 -784751 250066 0 -799061 291396 0 -813686 332658 0 -828637 373860 0 -843929 415014 0 -859573 456131 0 -875581 497222 0 -891966 538295 0 -908738 579363 0 -925912 620433 0 -943496 661516 0 -961505 702620 0 -979947 743754 0 -998836 784924 0 -1.01818e+06 826137 0 -1.038e+06 867399 0 -1.05829e+06 908715 0 -1.07908e+06 950087 0 -1.10037e+06 991518 0 -1.12218e+06 1.03301e+06 0 -1.14452e+06 1.07455e+06 0 -1.1674e+06 1.11614e+06 0 -1.19085e+06 1.15778e+06 0 -1.21487e+06 1.19945e+06 0 -1.23949e+06 1.24114e+06 0 -1.26474e+06 1.28283e+06 0 -1.29063e+06 1.32449e+06 0 -1.3172e+06 1.3661e+06 0 -1.3445e+06 1.40763e+06 0 -1.37256e+06 1.44903e+06 0 -1.40144e+06 1.49025e+06 0 -1.43121e+06 1.53124e+06 0 -1.46194e+06 1.57193e+06 0 -1.49373e+06 1.61225e+06 0 -1.52671e+06 1.6521e+06 0 -1.561e+06 1.6914e+06 0 -1.59677e+06 1.73002e+06 0 -1.63423e+06 1.76785e+06 0 -1.67363e+06 1.80473e+06 0 -1.71524e+06 1.84052e+06 0 -1.75942e+06 1.87504e+06 0 -1.80657e+06 1.90809e+06 0 -1.85719e+06 1.93943e+06 0 -1.91184e+06 1.96882e+06 0 -1.9712e+06 1.99594e+06 0 -2.03609e+06 2.02042e+06 0 -2.10746e+06 2.04179e+06 0 -2.18645e+06 2.05946e+06 0 -2.27442e+06 2.07259e+06 0 -2.37303e+06 2.08007e+06 0 -2.48431e+06 2.08026e+06 0 -2.61077e+06 2.07073e+06 0 -2.75566e+06 2.0478e+06 0 -2.92322e+06 2.00573e+06 0 -3.11931e+06 1.93542e+06 0 -3.3522e+06 1.82212e+06 0 -3.63434e+06 1.64163e+06 0 -3.98382e+06 1.35237e+06 0 -692787 0 0 -705597 42050.8 0 -718640 83967.1 0 -731928 125760 0 -745476 167440 0 -759296 209018 0 -773402 250506 0 -787806 291913 0 -802521 333253 0 -817560 374534 0 -832936 415768 0 -848660 456965 0 -864746 498136 0 -881206 539291 0 -898051 580441 0 -915294 621593 0 -932946 662759 0 -951020 703945 0 -969527 745162 0 -988478 786415 0 -1.00788e+06 827712 0 -1.02776e+06 869057 0 -1.04811e+06 910457 0 -1.06896e+06 951914 0 -1.09031e+06 993429 0 -1.11218e+06 1.035e+06 0 -1.13458e+06 1.07663e+06 0 -1.15752e+06 1.11831e+06 0 -1.18103e+06 1.16004e+06 0 -1.20511e+06 1.2018e+06 0 -1.2298e+06 1.24359e+06 0 -1.25512e+06 1.28537e+06 0 -1.28109e+06 1.32714e+06 0 -1.30774e+06 1.36886e+06 0 -1.33512e+06 1.4105e+06 0 -1.36327e+06 1.45202e+06 0 -1.39225e+06 1.49338e+06 0 -1.42212e+06 1.53451e+06 0 -1.45296e+06 1.57536e+06 0 -1.48488e+06 1.61586e+06 0 -1.51798e+06 1.65592e+06 0 -1.55241e+06 1.69544e+06 0 -1.58833e+06 1.73432e+06 0 -1.62595e+06 1.77244e+06 0 -1.66551e+06 1.80966e+06 0 -1.7073e+06 1.84584e+06 0 -1.75167e+06 1.8808e+06 0 -1.79902e+06 1.91436e+06 0 -1.84983e+06 1.94629e+06 0 -1.9047e+06 1.97637e+06 0 -1.96429e+06 2.00428e+06 0 -2.02943e+06 2.02967e+06 0 -2.10107e+06 2.05212e+06 0 -2.18036e+06 2.07103e+06 0 -2.26871e+06 2.08563e+06 0 -2.36779e+06 2.09485e+06 0 -2.4797e+06 2.09712e+06 0 -2.60705e+06 2.09014e+06 0 -2.75323e+06 2.07036e+06 0 -2.92278e+06 2.0323e+06 0 -3.12195e+06 1.96727e+06 0 -3.35975e+06 1.86113e+06 0 -3.64976e+06 1.69074e+06 0 -4.0125e+06 1.4162e+06 0 -680773 0 0 -693701 42119.8 0 -706856 84106.3 0 -720254 125971 0 -733908 167723 0 -747829 209376 0 -762033 250939 0 -776531 292423 0 -791337 333839 0 -806463 375198 0 -821922 416511 0 -837728 457788 0 -853892 499039 0 -870426 540275 0 -887344 581505 0 -904657 622740 0 -922377 663987 0 -940517 705256 0 -959087 746555 0 -978100 787891 0 -997568 829271 0 -1.0175e+06 870700 0 -1.03792e+06 912183 0 -1.05882e+06 953724 0 -1.08023e+06 995324 0 -1.10215e+06 1.03698e+06 0 -1.12461e+06 1.0787e+06 0 -1.14762e+06 1.12047e+06 0 -1.17119e+06 1.16229e+06 0 -1.19534e+06 1.20414e+06 0 -1.22009e+06 1.24602e+06 0 -1.24548e+06 1.2879e+06 0 -1.27152e+06 1.32977e+06 0 -1.29825e+06 1.3716e+06 0 -1.32571e+06 1.41335e+06 0 -1.35395e+06 1.455e+06 0 -1.38302e+06 1.49649e+06 0 -1.413e+06 1.53777e+06 0 -1.44395e+06 1.57878e+06 0 -1.47598e+06 1.61946e+06 0 -1.5092e+06 1.65972e+06 0 -1.54376e+06 1.69947e+06 0 -1.57983e+06 1.7386e+06 0 -1.6176e+06 1.77701e+06 0 -1.65732e+06 1.81457e+06 0 -1.69928e+06 1.85114e+06 0 -1.74382e+06 1.88654e+06 0 -1.79135e+06 1.92061e+06 0 -1.84236e+06 1.95314e+06 0 -1.89743e+06 1.98389e+06 0 -1.95723e+06 2.01259e+06 0 -2.02259e+06 2.0389e+06 0 -2.09447e+06 2.06241e+06 0 -2.17405e+06 2.08256e+06 0 -2.26273e+06 2.09864e+06 0 -2.36223e+06 2.1096e+06 0 -2.4747e+06 2.11397e+06 0 -2.60285e+06 2.10955e+06 0 -2.75022e+06 2.09296e+06 0 -2.92157e+06 2.05899e+06 0 -3.12356e+06 1.99935e+06 0 -3.36586e+06 1.90058e+06 0 -3.66313e+06 1.74065e+06 0 -4.03813e+06 1.48146e+06 0 -668740 0 0 -681785 42187.5 0 -695054 84243.2 0 -708561 126178 0 -722320 168003 0 -736343 209728 0 -750644 251365 0 -765237 292925 0 -780133 334417 0 -795347 375854 0 -810890 417245 0 -826777 458600 0 -843018 499931 0 -859628 541247 0 -876619 582557 0 -894002 623873 0 -911789 665201 0 -929995 706552 0 -948629 747933 0 -967704 789351 0 -987233 830814 0 -1.00723e+06 872327 0 -1.0277e+06 913893 0 -1.04866e+06 955518 0 -1.07013e+06 997203 0 -1.09211e+06 1.03895e+06 0 -1.11463e+06 1.08075e+06 0 -1.13769e+06 1.12261e+06 0 -1.16132e+06 1.16451e+06 0 -1.18554e+06 1.20646e+06 0 -1.21036e+06 1.24843e+06 0 -1.23581e+06 1.29041e+06 0 -1.26193e+06 1.33239e+06 0 -1.28874e+06 1.37432e+06 0 -1.31628e+06 1.4162e+06 0 -1.3446e+06 1.45797e+06 0 -1.37377e+06 1.49959e+06 0 -1.40384e+06 1.54102e+06 0 -1.43489e+06 1.58219e+06 0 -1.46704e+06 1.62305e+06 0 -1.50038e+06 1.66351e+06 0 -1.53507e+06 1.70348e+06 0 -1.57127e+06 1.74288e+06 0 -1.60919e+06 1.78158e+06 0 -1.64906e+06 1.81948e+06 0 -1.69118e+06 1.85642e+06 0 -1.73588e+06 1.89227e+06 0 -1.78358e+06 1.92684e+06 0 -1.83477e+06 1.95995e+06 0 -1.89002e+06 1.99138e+06 0 -1.95001e+06 2.02087e+06 0 -2.01557e+06 2.04809e+06 0 -2.08768e+06 2.07266e+06 0 -2.1675e+06 2.09406e+06 0 -2.25647e+06 2.1116e+06 0 -2.35635e+06 2.12431e+06 0 -2.46931e+06 2.13079e+06 0 -2.59818e+06 2.12894e+06 0 -2.74661e+06 2.11558e+06 0 -2.91959e+06 2.08576e+06 0 -3.12414e+06 2.03161e+06 0 -3.37054e+06 1.94039e+06 0 -3.67443e+06 1.79122e+06 0 -4.06066e+06 1.54796e+06 0 -656688 0 0 -669850 42254 0 -683232 84377.8 0 -696849 126382 0 -710713 168277 0 -724838 210075 0 -739237 251785 0 -753923 293419 0 -768910 334987 0 -784211 376500 0 -799839 417968 0 -815806 459401 0 -832126 500811 0 -848811 542206 0 -865874 583596 0 -883327 624992 0 -901183 666402 0 -919454 707834 0 -938152 749296 0 -957289 790797 0 -976879 832342 0 -996933 873937 0 -1.01746e+06 915588 0 -1.03849e+06 957296 0 -1.06001e+06 999066 0 -1.08205e+06 1.0409e+06 0 -1.10463e+06 1.08279e+06 0 -1.12775e+06 1.12473e+06 0 -1.15144e+06 1.16673e+06 0 -1.17572e+06 1.20877e+06 0 -1.20061e+06 1.25083e+06 0 -1.22613e+06 1.29291e+06 0 -1.25231e+06 1.33499e+06 0 -1.2792e+06 1.37704e+06 0 -1.30682e+06 1.41902e+06 0 -1.33523e+06 1.46092e+06 0 -1.36448e+06 1.50268e+06 0 -1.39464e+06 1.54425e+06 0 -1.4258e+06 1.58559e+06 0 -1.45805e+06 1.62663e+06 0 -1.49152e+06 1.66729e+06 0 -1.52633e+06 1.70749e+06 0 -1.56266e+06 1.74714e+06 0 -1.60071e+06 1.78614e+06 0 -1.64072e+06 1.82436e+06 0 -1.68299e+06 1.86169e+06 0 -1.72785e+06 1.89798e+06 0 -1.77571e+06 1.93306e+06 0 -1.82706e+06 1.96675e+06 0 -1.88248e+06 1.99885e+06 0 -1.94265e+06 2.02911e+06 0 -2.00839e+06 2.05724e+06 0 -2.08069e+06 2.08287e+06 0 -2.16073e+06 2.10551e+06 0 -2.24995e+06 2.12452e+06 0 -2.35015e+06 2.13897e+06 0 -2.46355e+06 2.14756e+06 0 -2.59304e+06 2.1483e+06 0 -2.74241e+06 2.1382e+06 0 -2.91684e+06 2.11257e+06 0 -3.12368e+06 2.064e+06 0 -3.37378e+06 1.98048e+06 0 -3.68364e+06 1.84233e+06 0 -4.08005e+06 1.61547e+06 0 -644617 0 0 -657896 42319.4 0 -671392 84510 0 -685118 126582 0 -699087 168548 0 -713313 210416 0 -727810 252199 0 -742591 293906 0 -757669 335548 0 -773057 377136 0 -788769 418681 0 -804817 460191 0 -821215 501679 0 -837976 543152 0 -855111 584622 0 -872634 626098 0 -890558 667588 0 -908895 709101 0 -927657 750644 0 -946856 792227 0 -966507 833854 0 -986620 875532 0 -1.00721e+06 917266 0 -1.02829e+06 959058 0 -1.04987e+06 1.00091e+06 0 -1.07197e+06 1.04283e+06 0 -1.09461e+06 1.0848e+06 0 -1.11779e+06 1.12684e+06 0 -1.14154e+06 1.16893e+06 0 -1.16588e+06 1.21106e+06 0 -1.19083e+06 1.25322e+06 0 -1.21642e+06 1.2954e+06 0 -1.24267e+06 1.33758e+06 0 -1.26963e+06 1.37974e+06 0 -1.29733e+06 1.42184e+06 0 -1.32582e+06 1.46386e+06 0 -1.35516e+06 1.50575e+06 0 -1.38542e+06 1.54748e+06 0 -1.41668e+06 1.58898e+06 0 -1.44903e+06 1.63019e+06 0 -1.4826e+06 1.67105e+06 0 -1.51753e+06 1.71148e+06 0 -1.55398e+06 1.75139e+06 0 -1.59217e+06 1.79068e+06 0 -1.63232e+06 1.82924e+06 0 -1.67472e+06 1.86694e+06 0 -1.71973e+06 1.90366e+06 0 -1.76774e+06 1.93925e+06 0 -1.81924e+06 1.97352e+06 0 -1.87481e+06 2.00629e+06 0 -1.93513e+06 2.03733e+06 0 -2.00104e+06 2.06636e+06 0 -2.0735e+06 2.09303e+06 0 -2.15372e+06 2.11691e+06 0 -2.24316e+06 2.13738e+06 0 -2.34363e+06 2.15358e+06 0 -2.45741e+06 2.16427e+06 0 -2.58743e+06 2.16762e+06 0 -2.73762e+06 2.16079e+06 0 -2.91332e+06 2.13939e+06 0 -3.1222e+06 2.09647e+06 0 -3.37558e+06 2.02077e+06 0 -3.69076e+06 1.89385e+06 0 -4.09627e+06 1.68379e+06 0 -632528 0 0 -645925 42383.5 0 -659533 84639.8 0 -673368 126779 0 -687443 168813 0 -701771 210752 0 -716365 252605 0 -731240 294385 0 -746409 336101 0 -761884 377764 0 -777680 419383 0 -793810 460970 0 -810286 502535 0 -827121 544087 0 -844330 585635 0 -861923 627190 0 -879915 668760 0 -898317 710353 0 -917143 751978 0 -936405 793641 0 -956116 835350 0 -976290 877111 0 -996938 918927 0 -1.01808e+06 960804 0 -1.03972e+06 1.00274e+06 0 -1.06187e+06 1.04474e+06 0 -1.08457e+06 1.08681e+06 0 -1.10781e+06 1.12893e+06 0 -1.13162e+06 1.17111e+06 0 -1.15602e+06 1.21333e+06 0 -1.18103e+06 1.25559e+06 0 -1.20669e+06 1.29787e+06 0 -1.23301e+06 1.34015e+06 0 -1.26004e+06 1.38242e+06 0 -1.28782e+06 1.42464e+06 0 -1.31639e+06 1.46678e+06 0 -1.34581e+06 1.50881e+06 0 -1.37616e+06 1.55069e+06 0 -1.40751e+06 1.59235e+06 0 -1.43997e+06 1.63374e+06 0 -1.47364e+06 1.67481e+06 0 -1.50868e+06 1.71546e+06 0 -1.54526e+06 1.75562e+06 0 -1.58356e+06 1.7952e+06 0 -1.62384e+06 1.83409e+06 0 -1.66638e+06 1.87218e+06 0 -1.71152e+06 1.90933e+06 0 -1.75967e+06 1.94541e+06 0 -1.81131e+06 1.98026e+06 0 -1.86701e+06 2.0137e+06 0 -1.92747e+06 2.0455e+06 0 -1.99351e+06 2.07543e+06 0 -2.06612e+06 2.10315e+06 0 -2.1465e+06 2.12825e+06 0 -2.23612e+06 2.15017e+06 0 -2.33681e+06 2.16811e+06 0 -2.45089e+06 2.18092e+06 0 -2.58136e+06 2.18687e+06 0 -2.73224e+06 2.18332e+06 0 -2.90905e+06 2.16619e+06 0 -3.11968e+06 2.12897e+06 0 -3.37593e+06 2.06117e+06 0 -3.69579e+06 1.94565e+06 0 -4.10934e+06 1.75272e+06 0 -620421 0 0 -633935 42446.4 0 -647657 84767.2 0 -661601 126973 0 -675781 169074 0 -690210 211082 0 -704902 253006 0 -719871 294857 0 -735131 336645 0 -750694 378381 0 -766574 420076 0 -782784 461739 0 -799338 503380 0 -816249 545009 0 -833530 586635 0 -851194 628269 0 -869253 669918 0 -887722 711591 0 -906611 753296 0 -925936 795040 0 -945708 836831 0 -965941 878674 0 -986648 920573 0 -1.00784e+06 962533 0 -1.02954e+06 1.00456e+06 0 -1.05176e+06 1.04664e+06 0 -1.07451e+06 1.08879e+06 0 -1.09781e+06 1.131e+06 0 -1.12168e+06 1.17327e+06 0 -1.14614e+06 1.21559e+06 0 -1.17122e+06 1.25794e+06 0 -1.19693e+06 1.30032e+06 0 -1.22332e+06 1.34271e+06 0 -1.25042e+06 1.38509e+06 0 -1.27827e+06 1.42742e+06 0 -1.30692e+06 1.46969e+06 0 -1.33643e+06 1.51186e+06 0 -1.36686e+06 1.55388e+06 0 -1.39831e+06 1.59571e+06 0 -1.43086e+06 1.63728e+06 0 -1.46464e+06 1.67855e+06 0 -1.49979e+06 1.71943e+06 0 -1.53647e+06 1.75984e+06 0 -1.5749e+06 1.79971e+06 0 -1.61529e+06 1.83893e+06 0 -1.65796e+06 1.87739e+06 0 -1.70322e+06 1.91497e+06 0 -1.75149e+06 1.95155e+06 0 -1.80326e+06 1.98697e+06 0 -1.85909e+06 2.02106e+06 0 -1.91967e+06 2.05364e+06 0 -1.98583e+06 2.08445e+06 0 -2.05855e+06 2.11321e+06 0 -2.13905e+06 2.13953e+06 0 -2.22881e+06 2.1629e+06 0 -2.32968e+06 2.18257e+06 0 -2.444e+06 2.19748e+06 0 -2.57484e+06 2.20603e+06 0 -2.72628e+06 2.20578e+06 0 -2.90401e+06 2.19292e+06 0 -3.11614e+06 2.16144e+06 0 -3.37486e+06 2.10161e+06 0 -3.69874e+06 1.99761e+06 0 -4.11925e+06 1.82203e+06 0 -608296 0 0 -621927 42508.1 0 -635762 84892.3 0 -649816 127163 0 -664100 169331 0 -678631 211406 0 -693421 253399 0 -708484 295321 0 -723834 337181 0 -739485 378990 0 -755449 420758 0 -771741 462496 0 -788373 504213 0 -805359 545918 0 -822713 587622 0 -840447 629334 0 -858574 671061 0 -877108 712814 0 -896062 754599 0 -915449 796424 0 -935281 838296 0 -955574 880220 0 -976339 922202 0 -997592 964245 0 -1.01935e+06 1.00635e+06 0 -1.04162e+06 1.04852e+06 0 -1.06443e+06 1.09076e+06 0 -1.08779e+06 1.13306e+06 0 -1.11172e+06 1.17542e+06 0 -1.13624e+06 1.21783e+06 0 -1.16138e+06 1.26028e+06 0 -1.18716e+06 1.30276e+06 0 -1.21362e+06 1.34525e+06 0 -1.24078e+06 1.38774e+06 0 -1.26871e+06 1.43019e+06 0 -1.29743e+06 1.47259e+06 0 -1.32702e+06 1.51489e+06 0 -1.35754e+06 1.55706e+06 0 -1.38907e+06 1.59905e+06 0 -1.42172e+06 1.6408e+06 0 -1.45559e+06 1.68227e+06 0 -1.49084e+06 1.72337e+06 0 -1.52764e+06 1.76404e+06 0 -1.56617e+06 1.8042e+06 0 -1.60668e+06 1.84374e+06 0 -1.64946e+06 1.88258e+06 0 -1.69484e+06 1.92059e+06 0 -1.74322e+06 1.95766e+06 0 -1.7951e+06 1.99365e+06 0 -1.85104e+06 2.02839e+06 0 -1.91172e+06 2.06172e+06 0 -1.97798e+06 2.09342e+06 0 -2.0508e+06 2.12321e+06 0 -2.13139e+06 2.15074e+06 0 -2.22125e+06 2.17555e+06 0 -2.32224e+06 2.19695e+06 0 -2.43674e+06 2.21396e+06 0 -2.56786e+06 2.2251e+06 0 -2.71976e+06 2.22814e+06 0 -2.89823e+06 2.21956e+06 0 -3.11159e+06 2.19383e+06 0 -3.37237e+06 2.14202e+06 0 -3.69964e+06 2.0496e+06 0 -4.12604e+06 1.89154e+06 0 -596154 0 0 -609903 42568.6 0 -623851 85015 0 -638013 127350 0 -652403 169583 0 -667035 211725 0 -681923 253786 0 -697080 295777 0 -712520 337708 0 -728258 379589 0 -744307 421431 0 -760679 463242 0 -777390 505034 0 -794451 546815 0 -811878 588596 0 -829682 630385 0 -847877 672191 0 -866477 714022 0 -885495 755887 0 -904944 797792 0 -924837 839745 0 -945189 881751 0 -966013 923815 0 -987323 965941 0 -1.00914e+06 1.00813e+06 0 -1.03147e+06 1.05039e+06 0 -1.05433e+06 1.09271e+06 0 -1.07775e+06 1.1351e+06 0 -1.10173e+06 1.17755e+06 0 -1.12631e+06 1.22005e+06 0 -1.15151e+06 1.2626e+06 0 -1.17736e+06 1.30518e+06 0 -1.20388e+06 1.34778e+06 0 -1.23112e+06 1.39038e+06 0 -1.25911e+06 1.43295e+06 0 -1.28791e+06 1.47547e+06 0 -1.31757e+06 1.51791e+06 0 -1.34817e+06 1.56022e+06 0 -1.37979e+06 1.60237e+06 0 -1.41253e+06 1.64431e+06 0 -1.4465e+06 1.68597e+06 0 -1.48185e+06 1.7273e+06 0 -1.51874e+06 1.76823e+06 0 -1.55738e+06 1.80867e+06 0 -1.598e+06 1.84854e+06 0 -1.64088e+06 1.88774e+06 0 -1.68637e+06 1.92618e+06 0 -1.73486e+06 1.96374e+06 0 -1.78683e+06 2.00029e+06 0 -1.84286e+06 2.03568e+06 0 -1.90363e+06 2.06976e+06 0 -1.96997e+06 2.10233e+06 0 -2.04286e+06 2.13314e+06 0 -2.12352e+06 2.16188e+06 0 -2.21344e+06 2.18811e+06 0 -2.31451e+06 2.21123e+06 0 -2.42913e+06 2.23032e+06 0 -2.56044e+06 2.24406e+06 0 -2.71266e+06 2.25038e+06 0 -2.8917e+06 2.24608e+06 0 -3.10604e+06 2.22611e+06 0 -3.36848e+06 2.18232e+06 0 -3.69851e+06 2.10153e+06 0 -4.12974e+06 1.96105e+06 0 -583996 0 0 -597861 42627.9 0 -611922 85135.3 0 -626193 127533 0 -640688 169830 0 -655421 212038 0 -670407 254166 0 -685658 296226 0 -701189 338227 0 -717014 380179 0 -733147 422093 0 -749601 463978 0 -766389 505844 0 -783526 547700 0 -801025 589557 0 -818900 631423 0 -837163 673306 0 -855829 715216 0 -874910 757160 0 -894421 799145 0 -914375 841178 0 -934786 883265 0 -955669 925411 0 -977037 967621 0 -998906 1.0099e+06 0 -1.02129e+06 1.05224e+06 0 -1.04421e+06 1.09465e+06 0 -1.06769e+06 1.13713e+06 0 -1.09173e+06 1.17966e+06 0 -1.11637e+06 1.22226e+06 0 -1.14163e+06 1.2649e+06 0 -1.16754e+06 1.30758e+06 0 -1.19413e+06 1.35029e+06 0 -1.22143e+06 1.393e+06 0 -1.24949e+06 1.43569e+06 0 -1.27836e+06 1.47833e+06 0 -1.3081e+06 1.52091e+06 0 -1.33878e+06 1.56337e+06 0 -1.37048e+06 1.60568e+06 0 -1.40331e+06 1.6478e+06 0 -1.43737e+06 1.68966e+06 0 -1.47281e+06 1.73122e+06 0 -1.5098e+06 1.77239e+06 0 -1.54853e+06 1.81312e+06 0 -1.58925e+06 1.85331e+06 0 -1.63223e+06 1.89288e+06 0 -1.67781e+06 1.93174e+06 0 -1.7264e+06 1.96978e+06 0 -1.77846e+06 2.00689e+06 0 -1.83457e+06 2.04293e+06 0 -1.89541e+06 2.07775e+06 0 -1.9618e+06 2.11119e+06 0 -2.03474e+06 2.14301e+06 0 -2.11543e+06 2.17294e+06 0 -2.20539e+06 2.20059e+06 0 -2.30649e+06 2.2254e+06 0 -2.42116e+06 2.24658e+06 0 -2.55257e+06 2.26289e+06 0 -2.70501e+06 2.27248e+06 0 -2.88445e+06 2.27245e+06 0 -3.09951e+06 2.25822e+06 0 -3.36322e+06 2.22244e+06 0 -3.69538e+06 2.15326e+06 0 -4.1304e+06 2.03037e+06 0 -571821 0 0 -585803 42686.1 0 -599976 85253.3 0 -614356 127712 0 -628956 170073 0 -643791 212345 0 -658874 254540 0 -674219 296667 0 -689841 338737 0 -705753 380760 0 -721970 422745 0 -738505 464702 0 -755371 506641 0 -772584 548573 0 -790156 590505 0 -808100 632447 0 -826432 674407 0 -845163 716395 0 -864309 758417 0 -883882 800482 0 -903896 842595 0 -924366 884763 0 -945307 926991 0 -966732 969283 0 -988658 1.01164e+06 0 -1.0111e+06 1.05407e+06 0 -1.03408e+06 1.09657e+06 0 -1.05761e+06 1.13913e+06 0 -1.08171e+06 1.18176e+06 0 -1.10641e+06 1.22445e+06 0 -1.13173e+06 1.26719e+06 0 -1.1577e+06 1.30997e+06 0 -1.18435e+06 1.35278e+06 0 -1.21171e+06 1.3956e+06 0 -1.23984e+06 1.43841e+06 0 -1.26878e+06 1.48118e+06 0 -1.2986e+06 1.52389e+06 0 -1.32935e+06 1.5665e+06 0 -1.36114e+06 1.60898e+06 0 -1.39404e+06 1.65127e+06 0 -1.42819e+06 1.69333e+06 0 -1.46372e+06 1.73511e+06 0 -1.5008e+06 1.77653e+06 0 -1.53962e+06 1.81754e+06 0 -1.58043e+06 1.85806e+06 0 -1.62351e+06 1.898e+06 0 -1.66918e+06 1.93727e+06 0 -1.71784e+06 1.97579e+06 0 -1.76998e+06 2.01345e+06 0 -1.82616e+06 2.05012e+06 0 -1.88705e+06 2.08569e+06 0 -1.95348e+06 2.11998e+06 0 -2.02644e+06 2.15281e+06 0 -2.10714e+06 2.18392e+06 0 -2.19709e+06 2.21297e+06 0 -2.29818e+06 2.23947e+06 0 -2.41284e+06 2.26271e+06 0 -2.54428e+06 2.28158e+06 0 -2.69681e+06 2.29442e+06 0 -2.87648e+06 2.29863e+06 0 -3.09201e+06 2.29012e+06 0 -3.35661e+06 2.26232e+06 0 -3.69029e+06 2.2047e+06 0 -4.12809e+06 2.09933e+06 0 -559630 0 0 -573728 42743 0 -588015 85369 0 -602503 127888 0 -617208 170311 0 -632143 212647 0 -647324 254907 0 -662763 297101 0 -678476 339239 0 -694475 381331 0 -710776 423386 0 -727392 465415 0 -744337 507428 0 -761624 549433 0 -779269 591439 0 -797284 633457 0 -815683 675494 0 -834480 717559 0 -853690 759660 0 -873325 801803 0 -893400 843996 0 -913929 886245 0 -934928 928554 0 -956410 970929 0 -978393 1.01337e+06 0 -1.00089e+06 1.05588e+06 0 -1.02392e+06 1.09847e+06 0 -1.04751e+06 1.14112e+06 0 -1.07167e+06 1.18384e+06 0 -1.09643e+06 1.22662e+06 0 -1.1218e+06 1.26946e+06 0 -1.14783e+06 1.31234e+06 0 -1.17454e+06 1.35525e+06 0 -1.20198e+06 1.39818e+06 0 -1.23017e+06 1.44111e+06 0 -1.25918e+06 1.48401e+06 0 -1.28907e+06 1.52686e+06 0 -1.3199e+06 1.56961e+06 0 -1.35175e+06 1.61225e+06 0 -1.38474e+06 1.65472e+06 0 -1.41897e+06 1.69698e+06 0 -1.45458e+06 1.73898e+06 0 -1.49175e+06 1.78066e+06 0 -1.53066e+06 1.82194e+06 0 -1.57155e+06 1.86278e+06 0 -1.61471e+06 1.90308e+06 0 -1.66046e+06 1.94277e+06 0 -1.7092e+06 1.98177e+06 0 -1.7614e+06 2.01997e+06 0 -1.81763e+06 2.05727e+06 0 -1.87856e+06 2.09357e+06 0 -1.94501e+06 2.12871e+06 0 -2.01797e+06 2.16253e+06 0 -2.09865e+06 2.19481e+06 0 -2.18855e+06 2.22525e+06 0 -2.28958e+06 2.25343e+06 0 -2.40418e+06 2.2787e+06 0 -2.53556e+06 2.30011e+06 0 -2.68808e+06 2.31618e+06 0 -2.86782e+06 2.32461e+06 0 -3.08357e+06 2.32177e+06 0 -3.34868e+06 2.30188e+06 0 -3.6833e+06 2.25574e+06 0 -4.12288e+06 2.16775e+06 0 -547423 0 0 -561638 42798.7 0 -576037 85482.2 0 -590634 128061 0 -605443 170545 0 -620480 212943 0 -635758 255268 0 -651291 297527 0 -667094 339732 0 -683181 381893 0 -699565 424018 0 -716262 466118 0 -733285 508202 0 -750648 550280 0 -768365 592361 0 -786450 634454 0 -804918 676567 0 -823781 718709 0 -843054 760887 0 -862751 803109 0 -882886 845381 0 -903475 887710 0 -924531 930101 0 -946071 972558 0 -968110 1.01508e+06 0 -990664 1.05768e+06 0 -1.01375e+06 1.10035e+06 0 -1.0374e+06 1.14309e+06 0 -1.06161e+06 1.1859e+06 0 -1.08642e+06 1.22878e+06 0 -1.11186e+06 1.27171e+06 0 -1.13795e+06 1.31469e+06 0 -1.16472e+06 1.35771e+06 0 -1.19221e+06 1.40075e+06 0 -1.22047e+06 1.4438e+06 0 -1.24955e+06 1.48682e+06 0 -1.2795e+06 1.5298e+06 0 -1.31041e+06 1.57271e+06 0 -1.34234e+06 1.61551e+06 0 -1.3754e+06 1.65816e+06 0 -1.40971e+06 1.70062e+06 0 -1.4454e+06 1.74283e+06 0 -1.48265e+06 1.78475e+06 0 -1.52164e+06 1.82632e+06 0 -1.56261e+06 1.86747e+06 0 -1.60584e+06 1.90813e+06 0 -1.65166e+06 1.94824e+06 0 -1.70046e+06 1.9877e+06 0 -1.75272e+06 2.02644e+06 0 -1.80898e+06 2.06437e+06 0 -1.86994e+06 2.10138e+06 0 -1.93639e+06 2.13737e+06 0 -2.00932e+06 2.17217e+06 0 -2.08996e+06 2.20561e+06 0 -2.17979e+06 2.23742e+06 0 -2.28071e+06 2.26725e+06 0 -2.39519e+06 2.29455e+06 0 -2.52643e+06 2.31847e+06 0 -2.67881e+06 2.33774e+06 0 -2.85847e+06 2.35034e+06 0 -3.07421e+06 2.35312e+06 0 -3.33946e+06 2.34108e+06 0 -3.67445e+06 2.30628e+06 0 -4.11485e+06 2.23546e+06 0 -535200 0 0 -549532 42853.2 0 -564043 85593