<?xml version="1.0"?> 
<VTKFile type="StructuredGrid" version="0.1"> 
<StructuredGrid WholeExtent="0 15 0 15 0 0"> 
<Piece Extent="0 15 0 15 0 0"> 
<PointData>
<DataArray type="Float32" Name="|E|" format="ascii" NumberOfComponents="3"> 
2.26343e+06 4.55409e+06 0 2.34172e+06 4.54637e+06 0 2.44938e+06 4.54398e+06 0 2.57819e+06 4.52663e+06 0 2.71819e+06 4.48038e+06 0 2.85575e+06 4.39725e+06 0 2.97626e+06 4.27912e+06 0 3.0684e+06 4.1383e+06 0 3.12752e+06 3.99323e+06 0 3.15646e+06 3.86239e+06 0 3.16428e+06 3.76058e+06 0 3.16434e+06 3.69895e+06 0 3.17311e+06 3.68795e+06 0 3.21074e+06 3.74175e+06 0 3.30328e+06 3.8837e+06 0 3.48718e+06 4.15337e+06 0 2.04232e+06 4.37025e+06 0 2.14845e+06 4.26831e+06 0 2.25297e+06 4.15461e+06 0 2.34875e+06 4.0264e+06 0 2.42911e+06 3.88759e+06 0 2.49286e+06 3.74514e+06 0 2.54372e+06 3.60411e+06 0 2.58685e+06 3.4659e+06 0 2.62627e+06 3.32913e+06 0 2.66407e+06 3.19121e+06 0 2.70047e+06 3.04935e+06 0 2.73418e+06 2.90123e+06 0 2.76245e+06 2.74555e+06 0 2.78081e+06 2.58269e+06 0 2.78246e+06 2.41598e+06 0 2.7573e+06 2.2534e+06 0 1.81006e+06 4.22293e+06 0 1.91854e+06 4.06855e+06 0 2.01394e+06 3.90047e+06 0 2.09166e+06 3.72151e+06 0 2.15006e+06 3.53718e+06 0 2.19078e+06 3.35198e+06 0 2.21616e+06 3.1681e+06 0 2.22757e+06 2.98658e+06 0 2.22553e+06 2.80859e+06 0 2.21043e+06 2.63596e+06 0 2.18312e+06 2.47092e+06 0 2.14514e+06 2.31567e+06 0 2.09888e+06 2.17157e+06 0 2.04754e+06 2.03817e+06 0 1.99523e+06 1.91157e+06 0 1.94716e+06 1.78204e+06 0 1.5954e+06 4.10137e+06 0 1.7036e+06 3.91094e+06 0 1.79092e+06 3.70576e+06 0 1.85409e+06 3.491e+06 0 1.89253e+06 3.2729e+06 0 1.90768e+06 3.05679e+06 0 1.90167e+06 2.84703e+06 0 1.87724e+06 2.6475e+06 0 1.83804e+06 2.46142e+06 0 1.78849e+06 2.29067e+06 0 1.73312e+06 2.13534e+06 0 1.67585e+06 1.9938e+06 0 1.61929e+06 1.86336e+06 0 1.56443e+06 1.74165e+06 0 1.51065e+06 1.6287e+06 0 1.456e+06 1.52997e+06 0 1.40099e+06 3.99798e+06 0 1.50728e+06 3.78104e+06 0 1.58618e+06 3.54825e+06 0 1.63517e+06 3.3071e+06 0 1.65458e+06 3.06573e+06 0 1.64712e+06 2.83146e+06 0 1.61728e+06 2.61027e+06 0 1.57085e+06 2.40621e+06 0 1.51401e+06 2.22087e+06 0 1.45211e+06 2.05362e+06 0 1.38886e+06 1.90253e+06 0 1.32632e+06 1.76568e+06 0 1.26556e+06 1.64203e+06 0 1.20753e+06 1.53128e+06 0 1.15371e+06 1.43235e+06 0 1.10616e+06 1.34032e+06 0 1.22503e+06 3.90916e+06 0 1.32784e+06 3.67184e+06 0 1.39801e+06 3.41761e+06 0 1.43385e+06 3.1565e+06 0 1.43717e+06 2.89874e+06 0 1.4129e+06 2.65304e+06 0 1.36803e+06 2.42539e+06 0 1.31005e+06 2.21855e+06 0 1.24541e+06 2.03249e+06 0 1.17868e+06 1.86569e+06 0 1.11287e+06 1.71641e+06 0 1.05013e+06 1.58298e+06 0 992138 1.46334e+06 0 939878 1.35468e+06 0 893125 1.2541e+06 0 850408 1.16125e+06 0 1.06495e+06 3.83274e+06 0 1.16282e+06 3.57895e+06 0 1.22417e+06 3.30718e+06 0 1.24836e+06 3.03e+06 0 1.23902e+06 2.75945e+06 0 1.20323e+06 2.50483e+06 0 1.1496e+06 2.27155e+06 0 1.08611e+06 2.06128e+06 0 1.01888e+06 1.8733e+06 0 952176 1.70587e+06 0 888915 1.55671e+06 0 830807 1.42316e+06 0 778318 1.3026e+06 0 731044 1.19332e+06 0 688620 1.09492e+06 0 651444 1.00669e+06 0 918186 3.76719e+06 0 1.00976e+06 3.4993e+06 0 1.06238e+06 3.21224e+06 0 1.07655e+06 2.921e+06 0 1.0577e+06 2.63912e+06 0 1.01459e+06 2.37617e+06 0 956647 2.137e+06 0 891857 1.92266e+06 0 826046 1.73195e+06 0 763059 1.56257e+06 0 705003 1.4117e+06 0 652572 1.27672e+06 0 605791 1.15576e+06 0 564690 1.04728e+06 0 529191 949288 0 498510 859427 0 782447 3.71137e+06 0 866472 3.4306e+06 0 910525 3.12925e+06 0 916290 2.82469e+06 0 890736 2.5318e+06 0 843735 2.26036e+06 0 785022 2.01488e+06 0 722315 1.79594e+06 0 660871 1.60185e+06 0 603697 1.42989e+06 0 552072 1.27723e+06 0 506380 1.14145e+06 0 466648 1.02034e+06 0 432483 911660 0 403111 813686 0 378068 725771 0 655728 3.6644e+06 0 731009 3.37106e+06 0 766749 3.05551e+06 0 765711 2.73754e+06 0 736032 2.43334e+06 0 688162 2.15304e+06 0 631700 1.90092e+06 0 573753 1.67715e+06 0 518710 1.47962e+06 0 468734 1.30541e+06 0 424632 1.15159e+06 0 386506 1.01537e+06 0 353946 894158 0 326319 785894 0 303200 688970 0 284138 601437 0 536287 3.62559e+06 0 601673 3.31927e+06 0 629448 2.9889e+06 0 623264 2.65685e+06 0 591957 2.34079e+06 0 546011 2.05128e+06 0 494418 1.79246e+06 0 443341 1.56409e+06 0 396192 1.36367e+06 0 354440 1.18795e+06 0 318452 1.03361e+06 0 287940 897480 0 262357 776898 0 241213 669575 0 223959 573352 0 210067 486565 0 422597 3.59439e+06 0 476975 3.27404e+06 0 497267 2.92766e+06 0 487725 2.58053e+06 0 457312 2.25199e+06 0 415923 1.95316e+06 0 371473 1.68795e+06 0 328930 1.45564e+06 0 290745 1.25321e+06 0 257766 1.07686e+06 0 229946 922770 0 206834 787476 0 187924 667966 0 172677 561552 0 160626 466023 0 151473 379485 0 313304 3.57041e+06 0 355595 3.23439e+06 0 369076 2.87034e+06 0 358172 2.50691e+06 0 331249 2.16538e+06 0 296916 1.8574e+06 0 261555 1.58651e+06 0 228803 1.35127e+06 0 200210 1.14789e+06 0 176098 971867 0 156191 818832 0 140035 684888 0 127142 566611 0 117084 461116 0 109551 365941 0 104276 278893 0 207184 3.55331e+06 0 236346 3.19945e+06 0 243942 2.81565e+06 0 233948 2.43463e+06 0 213208 2.07983e+06 0 188273 1.76326e+06 0 163607 1.48776e+06 0 141483 1.25082e+06 0 122682 1.04762e+06 0 107190 872839 0 94690.4 721500 0 84790.7 589207 0 77131.5 472218 0 71441.9 367335 0 67509.1 271781 0 65216.8 183170 0 103106 3.54288e+06 0 118148 3.16842e+06 0 121112 2.76244e+06 0 114630 2.36256e+06 0 102850 1.99454e+06 0 89449.8 1.67034e+06 0 76706.8 1.39159e+06 0 65630.7 1.15428e+06 0 56458.7 952373 0 49075.4 779634 0 43257.3 630435 0 38776.8 499937 0 35454.5 384026 0 33154 279177 0 31795.7 182332 0 31337.5 90758.2 0 0 3.539e+06 0 0 3.14057e+06 0 0 2.70964e+06 0 0 2.28979e+06 0 0 1.90901e+06 0 0 1.57856e+06 0 0 1.29811e+06 0 0 1.0618e+06 0 0 862185 0 0 692109 0 0 545329 0 0 416555 0 0 301315 0 0 195736 0 0 96374.2 0 0 67.3053 0 </DataArray> 
</PointData> 
<Points> 
<DataArray type="Float32" NumberOfComponents="3"> 
0.187674 0.0599007 0 0.18857 0.0594477 0 0.189385 0.0590185 0 0.19013 0.0586064 0 0.190815 0.0582042 0 0.191452 0.0578044 0 0.192055 0.0573991 0 0.192637 0.0569806 0 0.193214 0.0565408 0 0.193799 0.0560723 0 0.194406 0.0555678 0 0.19505 0.0550206 0 0.195744 0.0544247 0 0.1965 0.0537749 0 0.197329 0.0530666 0 0.19824 0.0522963 0 0.187695 0.063374 0 0.189364 0.0629966 0 0.190975 0.0626366 0 0.192534 0.0622871 0 0.194046 0.0619409 0 0.195519 0.0615905 0 0.19696 0.0612282 0 0.198378 0.0608464 0 0.19978 0.0604376 0 0.201176 0.0599944 0 0.202575 0.0595102 0 0.203984 0.0589785 0 0.205413 0.0583937 0 0.206869 0.0577511 0 0.208359 0.0570464 0 0.209891 0.0562766 0 0.187717 0.0668472 0 0.190157 0.0665389 0 0.19256 0.0662421 0 0.194926 0.0659499 0 0.197258 0.0656553 0 0.199558 0.0653508 0 0.201829 0.065029 0 0.204074 0.0646826 0 0.206296 0.0643045 0 0.208499 0.0638876 0 0.210688 0.0634256 0 0.212865 0.0629127 0 0.215035 0.0623434 0 0.217202 0.0617134 0 0.219369 0.0610189 0 0.221542 0.0602568 0 0.187739 0.0703205 0 0.190949 0.0700747 0 0.194138 0.0698352 0 0.197306 0.0695951 0 0.200451 0.0693476 0 0.20357 0.0690855 0 0.206662 0.0688018 0 0.209726 0.0684895 0 0.212762 0.0681417 0 0.215769 0.0677521 0 0.218745 0.0673145 0 0.221692 0.0668234 0 0.22461 0.0662741 0 0.227498 0.0656621 0 0.230359 0.064984 0 0.233192 0.0642371 0 0.187761 0.0737938 0 0.191739 0.073604 0 0.195712 0.0734158 0 0.199675 0.0732226 0 0.203625 0.0730179 0 0.207554 0.0727949 0 0.21146 0.0725469 0 0.215336 0.0722673 0 0.219179 0.0719498 0 0.222984 0.0715882 0 0.226748 0.071177 0 0.230467 0.070711 0 0.234139 0.0701857 0 0.23776 0.0695971 0 0.241328 0.0689418 0 0.244843 0.0682173 0 0.187782 0.0772671 0 0.192527 0.0771268 0 0.19728 0.076984 0 0.202033 0.0768327 0 0.20678 0.0766666 0 0.211512 0.0764793 0 0.216222 0.0762647 0 0.220903 0.0760165 0 0.225547 0.0757289 0 0.230147 0.0753963 0 0.234697 0.0750134 0 0.239191 0.0745756 0 0.243622 0.0740785 0 0.247985 0.0735185 0 0.252277 0.0728923 0 0.256494 0.0721976 0 0.187804 0.0807404 0 0.193314 0.080643 0 0.198842 0.0805399 0 0.204379 0.0804255 0 0.209916 0.0802937 0 0.215443 0.0801389 0 0.22095 0.0799553 0 0.226428 0.0797373 0 0.231867 0.0794794 0 0.237258 0.0791766 0 0.242593 0.0788241 0 0.247863 0.0784174 0 0.253059 0.0779526 0 0.258176 0.0774263 0 0.263206 0.0768355 0 0.268144 0.0761778 0 0.187826 0.0842137 0 0.1941 0.0841528 0 0.2004 0.0840836 0 0.206715 0.084001 0 0.213034 0.0838995 0 0.219347 0.083774 0 0.225643 0.0836192 0 0.231911 0.0834301 0 0.238139 0.0832017 0 0.244318 0.0829295 0 0.250436 0.0826092 0 0.256483 0.0822366 0 0.262452 0.0818082 0 0.268331 0.0813207 0 0.274115 0.0807715 0 0.279795 0.080158 0 0.187848 0.087687 0 0.194884 0.0876561 0 0.201951 0.0876152 0 0.209038 0.0875594 0 0.216134 0.0874842 0 0.223226 0.0873848 0 0.230303 0.0872566 0 0.237353 0.0870951 0 0.244365 0.0868961 0 0.251326 0.0866553 0 0.258226 0.0863689 0 0.265054 0.0860334 0 0.271799 0.0856453 0 0.278452 0.0852018 0 0.285004 0.0847002 0 0.291446 0.0841383 0 0.187869 0.0911603 0 0.195667 0.091153 0 0.203498 0.0911346 0 0.211351 0.0911009 0 0.219215 0.0910479 0 0.227079 0.0909715 0 0.234929 0.0908678 0 0.242755 0.0907328 0 0.250543 0.0905628 0 0.258284 0.0903542 0 0.265964 0.0901037 0 0.273574 0.089808 0 0.281102 0.0894641 0 0.288538 0.0890695 0 0.295872 0.0886217 0 0.303096 0.0881185 0 0.187891 0.0946336 0 0.196448 0.0946434 0 0.205039 0.0946419 0 0.213653 0.0946255 0 0.222279 0.0945908 0 0.230906 0.0945344 0 0.239522 0.094453 0 0.248116 0.0943433 0 0.256676 0.0942022 0 0.265192 0.0940266 0 0.273651 0.0938136 0 0.282044 0.0935605 0 0.29036 0.0932648 0 0.298589 0.092924 0 0.306721 0.0925359 0 0.314747 0.0920988 0 0.187913 0.0981068 0 0.197228 0.0981275 0 0.206575 0.0981373 0 0.215944 0.0981334 0 0.225325 0.0981131 0 0.234708 0.0980738 0 0.244082 0.0980126 0 0.253437 0.0979271 0 0.262763 0.0978146 0 0.27205 0.0976727 0 0.281287 0.097499 0 0.290466 0.0972913 0 0.299575 0.0970474 0 0.308606 0.0967653 0 0.31755 0.096443 0 0.326397 0.096079 0 0.187935 0.10158 0 0.198007 0.101605 0 0.208106 0.101621 0 0.218224 0.101625 0 0.228353 0.101615 0 0.238484 0.10159 0 0.248609 0.101547 0 0.258719 0.101484 0 0.268805 0.1014 0 0.27886 0.101293 0 0.288873 0.10116 0 0.298838 0.101 0 0.308746 0.100812 0 0.318589 0.100593 0 0.328359 0.100343 0 0.338048 0.100059 0 0.187956 0.105053 0 0.198784 0.105076 0 0.209631 0.105092 0 0.220493 0.105099 0 0.231364 0.105097 0 0.242236 0.105083 0 0.253105 0.105056 0 0.263962 0.105015 0 0.274803 0.10496 0 0.285621 0.104887 0 0.296409 0.104797 0 0.307162 0.104688 0 0.317873 0.104559 0 0.328537 0.104409 0 0.339148 0.104236 0 0.349699 0.10404 0 0.187978 0.108527 0 0.199559 0.108541 0 0.211152 0.108552 0 0.222752 0.108558 0 0.234357 0.108558 0 0.245964 0.108553 0 0.257568 0.10854 0 0.269167 0.108521 0 0.280757 0.108493 0 0.292334 0.108456 0 0.303896 0.10841 0 0.315438 0.108355 0 0.326958 0.108288 0 0.338452 0.108211 0 0.349917 0.108121 0 0.361349 0.10802 0 0.188 0.112 0 0.200333 0.112 0 0.212667 0.112 0 0.225 0.112 0 0.237333 0.112 0 0.249667 0.112 0 0.262 0.112 0 0.274333 0.112 0 0.286667 0.112 0 0.299 0.112 0 0.311333 0.112 0 0.323667 0.112 0 0.336 0.112 0 0.348333 0.112 0 0.360667 0.112 0 0.373 0.112 0 
</DataArray>
</Points> 
</Piece> 
</StructuredGrid> 
</VTKFile> 
