<?xml version="1.0"?> 
<VTKFile type="StructuredGrid" version="0.1"> 
<StructuredGrid WholeExtent="0 15 0 15 0 0"> 
<Piece Extent="0 15 0 15 0 0"> 
<PointData>
<DataArray type="Float32" Name="|E|" format="ascii" NumberOfComponents="3"> 
-3.78742e+06 -1.20115e+06 0 -3.45422e+06 -2.01322e+06 0 -3.30945e+06 -1.3178e+06 0 -3.25254e+06 -732627 0 -3.22762e+06 -366669 0 -3.215e+06 -63230.8 0 -3.21431e+06 244442 0 -3.22622e+06 548732 0 -3.24941e+06 848126 0 -3.28246e+06 1.15009e+06 0 -3.32691e+06 1.45464e+06 0 -3.38166e+06 1.82136e+06 0 -3.45367e+06 2.21029e+06 0 -3.54693e+06 2.52552e+06 0 -3.70496e+06 3.59019e+06 0 -4.58658e+06 1.70559e+07 0 -3.21397e+06 -1.94201e+06 0 -3.12948e+06 -1.15977e+06 0 -3.14617e+06 -627257 0 -3.14937e+06 -287892 0 -3.14111e+06 886.659 0 -3.14221e+06 291298 0 -3.1566e+06 580247 0 -3.17939e+06 864373 0 -3.20863e+06 1.15045e+06 0 -3.24605e+06 1.4531e+06 0 -3.28821e+06 1.76965e+06 0 -3.34792e+06 2.12309e+06 0 -3.37983e+06 2.58082e+06 0 -3.50316e+06 3.19243e+06 0 -2.98751e+06 4.43646e+06 0 5902.35 3.20973e+06 0 -3.0202e+06 -825697 0 -3.07421e+06 -439593 0 -3.07592e+06 -167792 0 -3.06622e+06 97066.1 0 -3.07129e+06 372847 0 -3.08924e+06 646293 0 -3.11199e+06 915321 0 -3.13787e+06 1.18706e+06 0 -3.16952e+06 1.47305e+06 0 -3.20394e+06 1.77349e+06 0 -3.24454e+06 2.10792e+06 0 -3.26358e+06 2.52977e+06 0 -3.27985e+06 2.95961e+06 0 -2.9572e+06 3.94559e+06 0 -1.45285e+06 4.48617e+06 0 -574557 3.45528e+06 0 -3.00928e+06 -262836 0 -2.9934e+06 -27452.5 0 -2.98925e+06 228767 0 -3.00382e+06 490721 0 -3.02554e+06 746648 0 -3.04699e+06 999654 0 -3.06942e+06 1.25764e+06 0 -3.09588e+06 1.52914e+06 0 -3.12297e+06 1.81733e+06 0 -3.14791e+06 2.13261e+06 0 -3.153e+06 2.50724e+06 0 -3.11173e+06 2.89335e+06 0 -2.83315e+06 3.66179e+06 0 -1.84307e+06 4.11295e+06 0 -852452 3.50401e+06 0 -621384 2.88399e+06 0 -2.90871e+06 156977 0 -2.92273e+06 399147 0 -2.94523e+06 641526 0 -2.96569e+06 879458 0 -2.98313e+06 1.11838e+06 0 -3.00191e+06 1.36484e+06 0 -3.02336e+06 1.62409e+06 0 -3.04261e+06 1.89898e+06 0 -3.05363e+06 2.1942e+06 0 -3.03996e+06 2.53152e+06 0 -2.95636e+06 2.90278e+06 0 -2.66952e+06 3.4887e+06 0 -1.94358e+06 3.7987e+06 0 -1.15279e+06 3.43156e+06 0 -787736 2.83574e+06 0 -628001 2.30617e+06 0 -2.87146e+06 596921 0 -2.89021e+06 825426 0 -2.90447e+06 1.04946e+06 0 -2.91804e+06 1.27652e+06 0 -2.93403e+06 1.51185e+06 0 -2.95018e+06 1.75805e+06 0 -2.96001e+06 2.01715e+06 0 -2.9551e+06 2.29352e+06 0 -2.91486e+06 2.60456e+06 0 -2.78796e+06 2.95296e+06 0 -2.48227e+06 3.38002e+06 0 -1.91071e+06 3.54966e+06 0 -1.31306e+06 3.27341e+06 0 -970835 2.82137e+06 0 -809875 2.3786e+06 0 -713457 1.9486e+06 0 -2.8293e+06 1.05357e+06 0 -2.84033e+06 1.26064e+06 0 -2.85239e+06 1.47421e+06 0 -2.86516e+06 1.69712e+06 0 -2.87322e+06 1.92875e+06 0 -2.86892e+06 2.17214e+06 0 -2.84077e+06 2.43239e+06 0 -2.76334e+06 2.71794e+06 0 -2.59074e+06 3.01703e+06 0 -2.27406e+06 3.29301e+06 0 -1.81418e+06 3.33512e+06 0 -1.37747e+06 3.08829e+06 0 -1.10598e+06 2.72903e+06 0 -954392 2.34863e+06 0 -856305 1.965e+06 0 -790727 1.59781e+06 0 -2.77719e+06 1.50691e+06 0 -2.78521e+06 1.70833e+06 0 -2.79e+06 1.92059e+06 0 -2.78284e+06 2.13748e+06 0 -2.75511e+06 2.36578e+06 0 -2.6924e+06 2.6049e+06 0 -2.56964e+06 2.84636e+06 0 -2.35868e+06 3.06021e+06 0 -2.05272e+06 3.18933e+06 0 -1.69495e+06 3.12662e+06 0 -1.39219e+06 2.88844e+06 0 -1.19796e+06 2.58511e+06 0 -1.07287e+06 2.25558e+06 0 -983890 1.91631e+06 0 -920060 1.58475e+06 0 -865706 1.25686e+06 0 -2.70407e+06 1.98167e+06 0 -2.69301e+06 2.18746e+06 0 -2.65881e+06 2.38182e+06 0 -2.59606e+06 2.5853e+06 0 -2.49062e+06 2.77864e+06 0 -2.32687e+06 2.93981e+06 0 -2.10202e+06 3.03936e+06 0 -1.83901e+06 3.0388e+06 0 -1.58575e+06 2.9033e+06 0 -1.39383e+06 2.67053e+06 0 -1.26546e+06 2.4002e+06 0 -1.16946e+06 2.10776e+06 0 -1.09446e+06 1.80852e+06 0 -1.03846e+06 1.51408e+06 0 -990332 1.21573e+06 0 -929822 910724 0 -2.54876e+06 2.48976e+06 0 -2.47277e+06 2.62298e+06 0 -2.37144e+06 2.77775e+06 0 -2.23074e+06 2.88393e+06 0 -2.05235e+06 2.93385e+06 0 -1.85517e+06 2.92018e+06 0 -1.6682e+06 2.82753e+06 0 -1.51671e+06 2.6517e+06 0 -1.40782e+06 2.42258e+06 0 -1.32395e+06 2.17066e+06 0 -1.2502e+06 1.9077e+06 0 -1.1906e+06 1.64645e+06 0 -1.14729e+06 1.38683e+06 0 -1.10857e+06 1.1141e+06 0 -1.05052e+06 824217 0 -947271 536316 0 -2.20497e+06 2.74521e+06 0 -2.09225e+06 2.85957e+06 0 -1.9489e+06 2.83872e+06 0 -1.80403e+06 2.78529e+06 0 -1.67865e+06 2.69771e+06 0 -1.58068e+06 2.55348e+06 0 -1.50511e+06 2.35272e+06 0 -1.43983e+06 2.12157e+06 0 -1.37601e+06 1.88573e+06 0 -1.3192e+06 1.65702e+06 0 -1.28011e+06 1.43493e+06 0 -1.25541e+06 1.20309e+06 0 -1.22495e+06 944019 0 -1.15974e+06 661385 0 -1.03714e+06 384068 0 -857725 151638 0 -1.85196e+06 2.80978e+06 0 -1.73833e+06 2.58201e+06 0 -1.67073e+06 2.50242e+06 0 -1.62372e+06 2.38716e+06 0 -1.57782e+06 2.19815e+06 0 -1.52457e+06 1.96932e+06 0 -1.46778e+06 1.7456e+06 0 -1.42019e+06 1.54743e+06 0 -1.39414e+06 1.36541e+06 0 -1.38735e+06 1.17312e+06 0 -1.37841e+06 945311 0 -1.33636e+06 677557 0 -1.23492e+06 394210 0 -1.06672e+06 137740 0 -850776 -51499.3 0 -624137 -155971 0 -1.65033e+06 2.02235e+06 0 -1.6724e+06 2.16653e+06 0 -1.63755e+06 1.96547e+06 0 -1.57998e+06 1.68965e+06 0 -1.53004e+06 1.46312e+06 0 -1.50702e+06 1.30433e+06 0 -1.51381e+06 1.17449e+06 0 -1.53455e+06 1.02114e+06 0 -1.53875e+06 810921 0 -1.49374e+06 545120 0 -1.37844e+06 256793 0 -1.19217e+06 -4969.3 0 -956816 -196388 0 -709618 -296483 0 -488580 -312771 0 -318417 -273692 0 -1.75175e+06 1.90473e+06 0 -1.62937e+06 1.16787e+06 0 -1.60819e+06 934464 0 -1.64787e+06 899952 0 -1.70321e+06 868126 0 -1.73071e+06 743385 0 -1.69571e+06 510913 0 -1.58004e+06 211667 0 -1.38652e+06 -88426.6 0 -1.13704e+06 -328465 0 -865995 -471142 0 -610718 -510418 0 -400607 -468357 0 -249542 -381933 0 -154718 -287222 0 -102072 -207112 0 -1.73029e+06 -65804.3 0 -1.91226e+06 449572 0 -1.92785e+06 469342 0 -1.80313e+06 211373 0 -1.57342e+06 -147721 0 -1.2804e+06 -479639 0 -967706 -706293 0 -674478 -799589 0 -429459 -772852 0 -247996 -663472 0 -131293 -517285 0 -68523.5 -375130 0 -42247.3 -262318 0 -34717.9 -186173 0 -32736.1 -140582 0 -29680.3 -113766 0 2.6226e-06 -1.20605e+07 0 -2.44472e-07 -5.40113e+06 0 -2.14204e-08 -1.49271e+06 0 1.96509e-07 428234 0 -6.51926e-08 1.045e+06 0 -7.45058e-09 927709 0 2.23517e-08 508545 0 -1.49012e-07 71603.4 0 2.5332e-07 -235053 0 -2.68221e-07 -371348 0 2.68221e-07 -368956 0 -1.3411e-07 -290730 0 1.78814e-07 -196242 0 -1.93715e-07 -122500 0 2.08616e-07 -80389.3 0 -1.78814e-06 -62869 0 </DataArray> 
</PointData> 
<Points> 
<DataArray type="Float32" NumberOfComponents="3"> 
0.016 0.021 0 0.0199333 0.021 0 0.0238667 0.021 0 0.0278 0.021 0 0.0317333 0.021 0 0.0356667 0.021 0 0.0396 0.021 0 0.0435333 0.021 0 0.0474667 0.021 0 0.0514 0.021 0 0.0553333 0.021 0 0.0592667 0.021 0 0.0632 0.021 0 0.0671333 0.021 0 0.0710667 0.021 0 0.075 0.021 0 0.0216 0.0219333 0 0.0253156 0.0219333 0 0.0290311 0.0219333 0 0.0327467 0.0219333 0 0.0364622 0.0219333 0 0.0401778 0.0219333 0 0.0438933 0.0219333 0 0.0476089 0.0219333 0 0.0513244 0.0219333 0 0.05504 0.0219333 0 0.0587556 0.0219333 0 0.0624711 0.0219333 0 0.0661867 0.0219333 0 0.0699022 0.0219333 0 0.0736178 0.0219333 0 0.0773333 0.0219333 0 0.0272 0.0228667 0 0.0306978 0.0228667 0 0.0341956 0.0228667 0 0.0376933 0.0228667 0 0.0411911 0.0228667 0 0.0446889 0.0228667 0 0.0481867 0.0228667 0 0.0516844 0.0228667 0 0.0551822 0.0228667 0 0.05868 0.0228667 0 0.0621778 0.0228667 0 0.0656756 0.0228667 0 0.0691733 0.0228667 0 0.0726711 0.0228667 0 0.0761689 0.0228667 0 0.0796667 0.0228667 0 0.0328 0.0238 0 0.03608 0.0238 0 0.03936 0.0238 0 0.04264 0.0238 0 0.04592 0.0238 0 0.0492 0.0238 0 0.05248 0.0238 0 0.05576 0.0238 0 0.05904 0.0238 0 0.06232 0.0238 0 0.0656 0.0238 0 0.06888 0.0238 0 0.07216 0.0238 0 0.07544 0.0238 0 0.07872 0.0238 0 0.082 0.0238 0 0.0384 0.0247333 0 0.0414622 0.0247333 0 0.0445244 0.0247333 0 0.0475867 0.0247333 0 0.0506489 0.0247333 0 0.0537111 0.0247333 0 0.0567733 0.0247333 0 0.0598356 0.0247333 0 0.0628978 0.0247333 0 0.06596 0.0247333 0 0.0690222 0.0247333 0 0.0720844 0.0247333 0 0.0751467 0.0247333 0 0.0782089 0.0247333 0 0.0812711 0.0247333 0 0.0843333 0.0247333 0 0.044 0.0256667 0 0.0468444 0.0256667 0 0.0496889 0.0256667 0 0.0525333 0.0256667 0 0.0553778 0.0256667 0 0.0582222 0.0256667 0 0.0610667 0.0256667 0 0.0639111 0.0256667 0 0.0667556 0.0256667 0 0.0696 0.0256667 0 0.0724444 0.0256667 0 0.0752889 0.0256667 0 0.0781333 0.0256667 0 0.0809778 0.0256667 0 0.0838222 0.0256667 0 0.0866667 0.0256667 0 0.0496 0.0266 0 0.0522267 0.0266 0 0.0548533 0.0266 0 0.05748 0.0266 0 0.0601067 0.0266 0 0.0627333 0.0266 0 0.06536 0.0266 0 0.0679867 0.0266 0 0.0706133 0.0266 0 0.07324 0.0266 0 0.0758667 0.0266 0 0.0784933 0.0266 0 0.08112 0.0266 0 0.0837467 0.0266 0 0.0863733 0.0266 0 0.089 0.0266 0 0.0552 0.0275333 0 0.0576089 0.0275333 0 0.0600178 0.0275333 0 0.0624267 0.0275333 0 0.0648356 0.0275333 0 0.0672444 0.0275333 0 0.0696533 0.0275333 0 0.0720622 0.0275333 0 0.0744711 0.0275333 0 0.07688 0.0275333 0 0.0792889 0.0275333 0 0.0816978 0.0275333 0 0.0841067 0.0275333 0 0.0865156 0.0275333 0 0.0889244 0.0275333 0 0.0913333 0.0275333 0 0.0608 0.0284667 0 0.0629911 0.0284667 0 0.0651822 0.0284667 0 0.0673733 0.0284667 0 0.0695644 0.0284667 0 0.0717556 0.0284667 0 0.0739467 0.0284667 0 0.0761378 0.0284667 0 0.0783289 0.0284667 0 0.08052 0.0284667 0 0.0827111 0.0284667 0 0.0849022 0.0284667 0 0.0870933 0.0284667 0 0.0892844 0.0284667 0 0.0914756 0.0284667 0 0.0936667 0.0284667 0 0.0664 0.0294 0 0.0683733 0.0294 0 0.0703467 0.0294 0 0.07232 0.0294 0 0.0742933 0.0294 0 0.0762667 0.0294 0 0.07824 0.0294 0 0.0802133 0.0294 0 0.0821867 0.0294 0 0.08416 0.0294 0 0.0861333 0.0294 0 0.0881067 0.0294 0 0.09008 0.0294 0 0.0920533 0.0294 0 0.0940267 0.0294 0 0.096 0.0294 0 0.072 0.0303333 0 0.0737556 0.0303333 0 0.0755111 0.0303333 0 0.0772667 0.0303333 0 0.0790222 0.0303333 0 0.0807778 0.0303333 0 0.0825333 0.0303333 0 0.0842889 0.0303333 0 0.0860444 0.0303333 0 0.0878 0.0303333 0 0.0895556 0.0303333 0 0.0913111 0.0303333 0 0.0930667 0.0303333 0 0.0948222 0.0303333 0 0.0965778 0.0303333 0 0.0983333 0.0303333 0 0.0776 0.0312667 0 0.0791378 0.0312667 0 0.0806756 0.0312667 0 0.0822133 0.0312667 0 0.0837511 0.0312667 0 0.0852889 0.0312667 0 0.0868267 0.0312667 0 0.0883644 0.0312667 0 0.0899022 0.0312667 0 0.09144 0.0312667 0 0.0929778 0.0312667 0 0.0945156 0.0312667 0 0.0960533 0.0312667 0 0.0975911 0.0312667 0 0.0991289 0.0312667 0 0.100667 0.0312667 0 0.0832 0.0322 0 0.08452 0.0322 0 0.08584 0.0322 0 0.08716 0.0322 0 0.08848 0.0322 0 0.0898 0.0322 0 0.09112 0.0322 0 0.09244 0.0322 0 0.09376 0.0322 0 0.09508 0.0322 0 0.0964 0.0322 0 0.09772 0.0322 0 0.09904 0.0322 0 0.10036 0.0322 0 0.10168 0.0322 0 0.103 0.0322 0 0.0888 0.0331333 0 0.0899022 0.0331333 0 0.0910044 0.0331333 0 0.0921067 0.0331333 0 0.0932089 0.0331333 0 0.0943111 0.0331333 0 0.0954133 0.0331333 0 0.0965156 0.0331333 0 0.0976178 0.0331333 0 0.09872 0.0331333 0 0.0998222 0.0331333 0 0.100924 0.0331333 0 0.102027 0.0331333 0 0.103129 0.0331333 0 0.104231 0.0331333 0 0.105333 0.0331333 0 0.0944 0.0340667 0 0.0952844 0.0340667 0 0.0961689 0.0340667 0 0.0970533 0.0340667 0 0.0979378 0.0340667 0 0.0988222 0.0340667 0 0.0997067 0.0340667 0 0.100591 0.0340667 0 0.101476 0.0340667 0 0.10236 0.0340667 0 0.103244 0.0340667 0 0.104129 0.0340667 0 0.105013 0.0340667 0 0.105898 0.0340667 0 0.106782 0.0340667 0 0.107667 0.0340667 0 0.1 0.035 0 0.100667 0.035 0 0.101333 0.035 0 0.102 0.035 0 0.102667 0.035 0 0.103333 0.035 0 0.104 0.035 0 0.104667 0.035 0 0.105333 0.035 0 0.106 0.035 0 0.106667 0.035 0 0.107333 0.035 0 0.108 0.035 0 0.108667 0.035 0 0.109333 0.035 0 0.11 0.035 0 
</DataArray>
</Points> 
</Piece> 
</StructuredGrid> 
</VTKFile> 
