<?xml version="1.0"?> 
<VTKFile type="StructuredGrid" version="0.1"> 
<StructuredGrid WholeExtent="0 15 0 15 0 0"> 
<Piece Extent="0 15 0 15 0 0"> 
<PointData>
<DataArray type="Float32" Name="|E|" format="ascii" NumberOfComponents="3"> 
-883649 5.28717e+06 0 -811840 4.66618e+06 0 -790569 4.55177e+06 0 -759583 4.5707e+06 0 -703334 4.64411e+06 0 -615296 4.75392e+06 0 -488217 4.87738e+06 0 -317195 5.00135e+06 0 -98985.1 5.10959e+06 0 166374 5.18706e+06 0 474578 5.21857e+06 0 816326 5.19155e+06 0 1.17782e+06 5.09897e+06 0 1.54318e+06 4.94294e+06 0 1.90091e+06 4.74194e+06 0 2.26343e+06 4.55409e+06 0 -1.22342e+06 4.73924e+06 0 -917232 4.5768e+06 0 -802328 4.51597e+06 0 -724013 4.53411e+06 0 -642436 4.59989e+06 0 -541240 4.69005e+06 0 -411702 4.79022e+06 0 -248564 4.88652e+06 0 -49312.1 4.9665e+06 0 185620 5.01793e+06 0 452712 5.02992e+06 0 745433 4.99395e+06 0 1.0552e+06 4.90546e+06 0 1.37357e+06 4.76549e+06 0 1.69697e+06 4.58213e+06 0 2.04123e+06 4.37025e+06 0 -1.21753e+06 4.44923e+06 0 -946299 4.44834e+06 0 -793833 4.44678e+06 0 -687129 4.48112e+06 0 -588198 4.54351e+06 0 -479096 4.62168e+06 0 -350211 4.70401e+06 0 -196221 4.77963e+06 0 -14845.6 4.83827e+06 0 193619 4.87044e+06 0 426521 4.86799e+06 0 679338 4.82486e+06 0 946601 4.73781e+06 0 1.22352e+06 4.60688e+06 0 1.50879e+06 4.43475e+06 0 1.8096e+06 4.22293e+06 0 -1.14281e+06 4.25224e+06 0 -921094 4.32212e+06 0 -764865 4.36556e+06 0 -645754 4.41698e+06 0 -537868 4.48059e+06 0 -425685 4.55111e+06 0 -300156 4.62061e+06 0 -156219 4.68079e+06 0 8329.43 4.72351e+06 0 193452 4.74135e+06 0 397283 4.72812e+06 0 616695 4.67934e+06 0 848074 4.59255e+06 0 1.0884e+06 4.46725e+06 0 1.33671e+06 4.30396e+06 0 1.59525e+06 4.10137e+06 0 -1.04921e+06 4.10677e+06 0 -866379 4.21025e+06 0 -720096 4.28271e+06 0 -599611 4.34845e+06 0 -489677 4.41493e+06 0 -378591 4.48086e+06 0 -258696 4.54129e+06 0 -125489 4.5901e+06 0 23126.4 4.62099e+06 0 187351 4.62817e+06 0 365942 4.60688e+06 0 556727 4.55371e+06 0 757216 4.46678e+06 0 965285 4.34546e+06 0 1.17985e+06 4.18964e+06 0 1.40091e+06 3.99798e+06 0 -947867 3.99412e+06 0 -796728 4.11369e+06 0 -664796 4.20382e+06 0 -549586 4.28014e+06 0 -442698 4.34966e+06 0 -336044 4.41294e+06 0 -223635 4.46704e+06 0 -101676 4.50758e+06 0 31733.6 4.52973e+06 0 176961 4.529e+06 0 333217 4.50169e+06 0 498983 4.4452e+06 0 672468 4.3581e+06 0 852040 4.23989e+06 0 1.03654e+06 4.09047e+06 0 1.22502e+06 3.90916e+06 0 -845716 3.90389e+06 0 -719595 4.03097e+06 0 -603156 4.13144e+06 0 -496873 4.21502e+06 0 -396510 4.28712e+06 0 -296798 4.34889e+06 0 -193305 4.39863e+06 0 -82988.7 4.43319e+06 0 35799.6 4.44894e+06 0 163508 4.44237e+06 0 299660 4.41061e+06 0 443184 4.35167e+06 0 592743 4.26451e+06 0 747017 4.14888e+06 0 904840 4.00494e+06 0 1.06496e+06 3.83274e+06 0 -744499 3.83031e+06 0 -639211 3.96033e+06 0 -537994 4.0666e+06 0 -442541 4.15488e+06 0 -350954 4.22894e+06 0 -259971 4.28985e+06 0 -166457 4.3366e+06 0 -68068.7 4.36691e+06 0 36566.4 4.378e+06 0 147908 4.36716e+06 0 265686 4.33214e+06 0 389132 4.27144e+06 0 517224 4.18437e+06 0 648864 4.07094e+06 0 782954 3.93166e+06 0 918216 3.76719e+06 0 -645421 3.76955e+06 0 -557762 3.90025e+06 0 -471117 4.00959e+06 0 -387389 4.10078e+06 0 -305969 4.17621e+06 0 -224938 4.23664e+06 0 -142159 4.28135e+06 0 -55889.4 4.30866e+06 0 34970.6 4.31641e+06 0 130848 4.30247e+06 0 231597 4.2651e+06 0 336665 4.20319e+06 0 445252 4.11632e+06 0 556444 4.0048e+06 0 669249 3.86942e+06 0 782488 3.71137e+06 0 -548600 3.71935e+06 0 -476409 3.84957e+06 0 -403593 3.96036e+06 0 -331946 4.05329e+06 0 -261511 4.12963e+06 0 -191234 4.18979e+06 0 -119707 4.23316e+06 0 -45673.1 4.25838e+06 0 31718 4.26377e+06 0 112835 4.24762e+06 0 197607 4.20859e+06 0 285628 4.14586e+06 0 376271 4.05928e+06 0 468779 3.94937e+06 0 562289 3.81723e+06 0 655776 3.6644e+06 0 -453964 3.6781e+06 0 -395664 3.8074e+06 0 -336004 3.91877e+06 0 -276511 4.01268e+06 0 -217517 4.08964e+06 0 -158499 4.14968e+06 0 -98562.4 4.19217e+06 0 -36827.7 4.21599e+06 0 27341.3 4.21975e+06 0 94244.1 4.20207e+06 0 163850 4.16188e+06 0 235862 4.09863e+06 0 309789 4.01236e+06 0 385013 3.9038e+06 0 460815 3.77426e+06 0 536337 3.62558e+06 0 -361191 3.64476e+06 0 -315675 3.77308e+06 0 -268607 3.8846e+06 0 -221205 3.97909e+06 0 -173887 4.05648e+06 0 -126436 4.11651e+06 0 -78303.6 4.15849e+06 0 -28896.1 4.18141e+06 0 22245 4.18409e+06 0 75349.8 4.16538e+06 0 130408 4.12443e+06 0 187201 4.06086e+06 0 245355 3.97489e+06 0 304383 3.8674e+06 0 363707 3.73988e+06 0 422646 3.59439e+06 0 -269884 3.61861e+06 0 -236364 3.74613e+06 0 -201445 3.85766e+06 0 -166025 3.95253e+06 0 -130492 4.03029e+06 0 -94785.2 4.09041e+06 0 -58589.1 4.13215e+06 0 -21518.5 4.15457e+06 0 16739.5 4.15659e+06 0 56350.2 4.13724e+06 0 97311.2 4.09581e+06 0 139469 4.03206e+06 0 182551 3.94633e+06 0 226193 3.83963e+06 0 269962 3.71359e+06 0 313349 3.57041e+06 0 -179580 3.59917e+06 0 -157521 3.72618e+06 0 -134421 3.83778e+06 0 -110874 3.93299e+06 0 -87168.6 4.01111e+06 0 -63310.8 4.07144e+06 0 -39131.5 4.11318e+06 0 -14403.1 4.1354e+06 0 11068.7 4.1371e+06 0 37390.1 4.11741e+06 0 64561.5 4.07572e+06 0 92484 4.01187e+06 0 120978 3.92631e+06 0 149801 3.82011e+06 0 178661 3.695e+06 0 207220 3.55331e+06 0 -89789 3.58608e+06 0 -78847.8 3.713e+06 0 -67351.6 3.82483e+06 0 -55596.8 3.92044e+06 0 -43736.7 3.99898e+06 0 -31788.2 4.05963e+06 0 -19678.9 4.10157e+06 0 -7303.39 4.12384e+06 0 5431.43 4.1255e+06 0 18577.7 4.10572e+06 0 32136.1 4.06394e+06 0 46057.7 4.00005e+06 0 60252.4 3.91455e+06 0 74597.9 3.80856e+06 0 88946.8 3.68388e+06 0 103128 3.54288e+06 0 0 3.57915e+06 0 0 3.70642e+06 0 0 3.81871e+06 0 0 3.91484e+06 0 0 3.99388e+06 0 0 4.05499e+06 0 0 4.09729e+06 0 0 4.11986e+06 0 0 4.12173e+06 0 0 4.10208e+06 0 0 4.06035e+06 0 0 3.99646e+06 0 0 3.91091e+06 0 0 3.80483e+06 0 0 3.68006e+06 0 0 3.539e+06 0 </DataArray> 
</PointData> 
<Points> 
<DataArray type="Float32" NumberOfComponents="3"> 
0.115184 0.0617521 0 0.120077 0.0625896 0 0.12496 0.0634413 0 0.129833 0.0642723 0 0.134696 0.0650476 0 0.13955 0.0657323 0 0.144395 0.0662913 0 0.149232 0.0666898 0 0.154061 0.0668927 0 0.158882 0.0668651 0 0.163696 0.066572 0 0.168504 0.0659784 0 0.173305 0.0650495 0 0.1781 0.0637502 0 0.182889 0.0620456 0 0.187674 0.0599007 0 0.115039 0.065102 0 0.119939 0.0658836 0 0.12483 0.0666786 0 0.129711 0.0674542 0 0.134583 0.0681778 0 0.139447 0.0688168 0 0.144302 0.0693386 0 0.14915 0.0697105 0 0.15399 0.0698998 0 0.158823 0.0698741 0 0.16365 0.0696005 0 0.16847 0.0690465 0 0.173284 0.0681795 0 0.178093 0.0669669 0 0.182897 0.0653759 0 0.187695 0.063374 0 0.114893 0.0684518 0 0.1198 0.0691777 0 0.124699 0.0699158 0 0.129589 0.070636 0 0.13447 0.071308 0 0.139344 0.0719013 0 0.144209 0.0723858 0 0.149068 0.0727311 0 0.15392 0.072907 0 0.158765 0.072883 0 0.163604 0.072629 0 0.168437 0.0721146 0 0.173264 0.0713096 0 0.178086 0.0701835 0 0.182904 0.0687062 0 0.187717 0.0668472 0 0.114747 0.0718017 0 0.119662 0.0724717 0 0.124568 0.0731531 0 0.129467 0.0738179 0 0.134357 0.0744381 0 0.13924 0.0749858 0 0.144116 0.0754331 0 0.148986 0.0757518 0 0.153849 0.0759141 0 0.158706 0.075892 0 0.163557 0.0756576 0 0.168403 0.0751828 0 0.173244 0.0744396 0 0.17808 0.0734002 0 0.182911 0.0720365 0 0.187739 0.0703205 0 0.114602 0.0751516 0 0.119523 0.0757657 0 0.124438 0.0763903 0 0.129344 0.0769997 0 0.134244 0.0775683 0 0.139137 0.0780703 0 0.144023 0.0784803 0 0.148904 0.0787725 0 0.153778 0.0789213 0 0.158647 0.078901 0 0.163511 0.0786861 0 0.168369 0.0782509 0 0.173223 0.0775696 0 0.178073 0.0766168 0 0.182919 0.0753668 0 0.187761 0.0737938 0 0.114456 0.0785014 0 0.119385 0.0790597 0 0.124307 0.0796276 0 0.129222 0.0801816 0 0.134131 0.0806984 0 0.139034 0.0811549 0 0.14393 0.0815275 0 0.148822 0.0817932 0 0.153707 0.0819284 0 0.158588 0.08191 0 0.163464 0.0817146 0 0.168336 0.081319 0 0.173203 0.0806997 0 0.178066 0.0798335 0 0.182926 0.0786971 0 0.187782 0.0772671 0 0.114311 0.0818513 0 0.119246 0.0823538 0 0.124176 0.0828648 0 0.1291 0.0833634 0 0.134018 0.0838286 0 0.13893 0.0842394 0 0.143837 0.0845748 0 0.148739 0.0848139 0 0.153637 0.0849356 0 0.158529 0.084919 0 0.163418 0.0847432 0 0.168302 0.0843871 0 0.173183 0.0838297 0 0.17806 0.0830501 0 0.182934 0.0820274 0 0.187804 0.0807404 0 0.114165 0.0852011 0 0.119108 0.0856478 0 0.124046 0.086102 0 0.128978 0.0865452 0 0.133905 0.0869587 0 0.138827 0.0873239 0 0.143744 0.087622 0 0.148657 0.0878345 0 0.153566 0.0879428 0 0.158471 0.087928 0 0.163371 0.0877717 0 0.168269 0.0874552 0 0.173162 0.0869597 0 0.178053 0.0862668 0 0.182941 0.0853576 0 0.187826 0.0842137 0 0.114019 0.088551 0 0.118969 0.0889418 0 0.123915 0.0893393 0 0.128855 0.0897271 0 0.133792 0.0900889 0 0.138723 0.0904084 0 0.143651 0.0906693 0 0.148575 0.0908552 0 0.153495 0.0909499 0 0.158412 0.090937 0 0.163325 0.0908003 0 0.168235 0.0905233 0 0.173142 0.0900898 0 0.178047 0.0894834 0 0.182948 0.0886879 0 0.187848 0.087687 0 0.113874 0.0919008 0 0.118831 0.0922358 0 0.123784 0.0925765 0 0.128733 0.0929089 0 0.133679 0.0932191 0 0.13862 0.0934929 0 0.143558 0.0937165 0 0.148493 0.0938759 0 0.153424 0.0939571 0 0.158353 0.093946 0 0.163279 0.0938288 0 0.168201 0.0935914 0 0.173122 0.0932198 0 0.17804 0.0927001 0 0.182956 0.0920182 0 0.187869 0.0911603 0 0.113728 0.0952507 0 0.118692 0.0955299 0 0.123653 0.0958138 0 0.128611 0.0960908 0 0.133565 0.0963492 0 0.138517 0.0965774 0 0.143465 0.0967638 0 0.148411 0.0968966 0 0.153354 0.0969642 0 0.158294 0.096955 0 0.163232 0.0968573 0 0.168168 0.0966595 0 0.173102 0.0963498 0 0.178033 0.0959167 0 0.182963 0.0953485 0 0.187891 0.0946336 0 0.113582 0.0986006 0 0.118554 0.0988239 0 0.123523 0.099051 0 0.128489 0.0992726 0 0.133452 0.0994794 0 0.138413 0.0996619 0 0.143372 0.099811 0 0.148329 0.0999173 0 0.153283 0.0999714 0 0.158235 0.099964 0 0.163186 0.0998859 0 0.168134 0.0997276 0 0.173081 0.0994799 0 0.178027 0.0991334 0 0.18297 0.0986788 0 0.187913 0.0981068 0 0.113437 0.10195 0 0.118415 0.102118 0 0.123392 0.102288 0 0.128367 0.102454 0 0.133339 0.10261 0 0.13831 0.102746 0 0.143279 0.102858 0 0.148246 0.102938 0 0.153212 0.102979 0 0.158176 0.102973 0 0.163139 0.102914 0 0.168101 0.102796 0 0.173061 0.10261 0 0.17802 0.10235 0 0.182978 0.102009 0 0.187935 0.10158 0 0.113291 0.1053 0 0.118277 0.105412 0 0.123261 0.105526 0 0.128244 0.105636 0 0.133226 0.10574 0 0.138207 0.105831 0 0.143186 0.105906 0 0.148164 0.105959 0 0.153141 0.105986 0 0.158118 0.105982 0 0.163093 0.105943 0 0.168067 0.105864 0 0.173041 0.10574 0 0.178013 0.105567 0 0.182985 0.105339 0 0.187956 0.105053 0 0.113146 0.10865 0 0.118138 0.108706 0 0.123131 0.108763 0 0.128122 0.108818 0 0.133113 0.10887 0 0.138103 0.108915 0 0.143093 0.108953 0 0.148082 0.108979 0 0.153071 0.108993 0 0.158059 0.108991 0 0.163046 0.108971 0 0.168034 0.108932 0 0.17302 0.10887 0 0.178007 0.108783 0 0.182993 0.10867 0 0.187978 0.108527 0 0.113 0.112 0 0.118 0.112 0 0.123 0.112 0 0.128 0.112 0 0.133 0.112 0 0.138 0.112 0 0.143 0.112 0 0.148 0.112 0 0.153 0.112 0 0.158 0.112 0 0.163 0.112 0 0.168 0.112 0 0.173 0.112 0 0.178 0.112 0 0.183 0.112 0 0.188 0.112 0 
</DataArray>
</Points> 
</Piece> 
</StructuredGrid> 
</VTKFile> 
