<?xml version="1.0"?> 
<VTKFile type="StructuredGrid" version="0.1"> 
<StructuredGrid WholeExtent="0 15 0 15 0 0"> 
<Piece Extent="0 15 0 15 0 0"> 
<PointData>
<DataArray type="Float32" Name="|E|" format="ascii" NumberOfComponents="3"> 
-1.50888e+06 0 0 -1.50398e+06 96133.7 0 -1.50737e+06 196627 0 -1.51716e+06 303266 0 -1.53109e+06 417007 0 -1.54692e+06 537948 0 -1.56273e+06 665458 0 -1.57712e+06 798420 0 -1.58925e+06 935471 0 -1.59883e+06 1.07518e+06 0 -1.60601e+06 1.21616e+06 0 -1.61144e+06 1.35711e+06 0 -1.6162e+06 1.49687e+06 0 -1.62197e+06 1.63455e+06 0 -1.63107e+06 1.76966e+06 0 -1.64656e+06 1.90245e+06 0 -1.42708e+06 0 0 -1.42153e+06 107573 0 -1.42324e+06 218750 0 -1.43063e+06 335097 0 -1.44182e+06 457478 0 -1.45492e+06 586025 0 -1.46833e+06 720251 0 -1.48085e+06 859235 0 -1.49182e+06 1.00182e+06 0 -1.50107e+06 1.14677e+06 0 -1.50891e+06 1.29289e+06 0 -1.51614e+06 1.43912e+06 0 -1.52411e+06 1.58466e+06 0 -1.53473e+06 1.72912e+06 0 -1.55058e+06 1.87288e+06 0 -1.57481e+06 2.01748e+06 0 -1.33993e+06 0 0 -1.33407e+06 118127 0 -1.3346e+06 239256 0 -1.34023e+06 364777 0 -1.34937e+06 495480 0 -1.36044e+06 631532 0 -1.37208e+06 772565 0 -1.38331e+06 917827 0 -1.39363e+06 1.06635e+06 0 -1.403e+06 1.21711e+06 0 -1.41188e+06 1.36916e+06 0 -1.42124e+06 1.52175e+06 0 -1.43254e+06 1.67454e+06 0 -1.44782e+06 1.82787e+06 0 -1.46954e+06 1.98313e+06 0 -1.5003e+06 2.14341e+06 0 -1.24851e+06 0 0 -1.24257e+06 127978 0 -1.24232e+06 258482 0 -1.24667e+06 392757 0 -1.25429e+06 531540 0 -1.26385e+06 675033 0 -1.2742e+06 822974 0 -1.28457e+06 974766 0 -1.2946e+06 1.12964e+06 0 -1.30436e+06 1.28678e+06 0 -1.31444e+06 1.44555e+06 0 -1.32589e+06 1.60557e+06 0 -1.34018e+06 1.76708e+06 0 -1.35915e+06 1.93117e+06 0 -1.38469e+06 2.10033e+06 0 -1.41806e+06 2.27901e+06 0 -1.15361e+06 0 0 -1.1478e+06 137266 0 -1.14707e+06 276682 0 -1.15051e+06 419378 0 -1.157e+06 566052 0 -1.16543e+06 716946 0 -1.17485e+06 871900 0 -1.18464e+06 1.03047e+06 0 -1.19457e+06 1.19207e+06 0 -1.20482e+06 1.35616e+06 0 -1.21602e+06 1.52239e+06 0 -1.2292e+06 1.69083e+06 0 -1.24565e+06 1.86227e+06 0 -1.26668e+06 2.03855e+06 0 -1.29308e+06 2.223e+06 0 -1.32406e+06 2.42076e+06 0 -1.05588e+06 0 0 -1.05034e+06 146095 0 -1.04935e+06 294042 0 -1.05215e+06 444885 0 -1.05781e+06 599301 0 -1.06538e+06 757572 0 -1.0741e+06 919640 0 -1.08348e+06 1.08521e+06 0 -1.09337e+06 1.25391e+06 0 -1.10404e+06 1.42543e+06 0 -1.11608e+06 1.59976e+06 0 -1.13034e+06 1.77738e+06 0 -1.14775e+06 1.95957e+06 0 -1.16877e+06 2.14871e+06 0 -1.1927e+06 2.34844e+06 0 -1.21641e+06 2.56348e+06 0 -955815 0 0 -950651 154539 0 -949568 310699 0 -951934 469459 0 -956962 631488 0 -963869 797117 0 -972022 966391 0 -981040 1.13917e+06 0 -990857 1.31526e+06 0 -1.00172e+06 1.49462e+06 0 -1.01413e+06 1.67752e+06 0 -1.02867e+06 1.86479e+06 0 -1.04565e+06 2.05805e+06 0 -1.06454e+06 2.25982e+06 0 -1.08302e+06 2.47335e+06 0 -1.09596e+06 2.70182e+06 0 -853815 0 0 -849113 162654 0 -848060 326749 0 -850129 493223 0 -854661 662750 0 -861006 835717 0 -868644 1.01227e+06 0 -877279 1.19241e+06 0 -886876 1.37613e+06 0 -897634 1.56361e+06 0 -909873 1.75536e+06 0 -923788 1.95243e+06 0 -939017 2.15652e+06 0 -953978 2.36985e+06 0 -965010 2.59462e+06 0 -965851 2.83163e+06 0 -750215 0 0 -746035 170475 0 -745096 342257 0 -746957 516261 0 -751069 693176 0 -756892 873450 0 -764003 1.05733e+06 0 -772162 1.24494e+06 0 -781335 1.43646e+06 0 -791628 1.63223e+06 0 -803132 1.83291e+06 0 -815611 2.03961e+06 0 -828031 2.25382e+06 0 -837928 2.47708e+06 0 -840829 2.70999e+06 0 -830414 2.9508e+06 0 -645294 0 0 -641681 178027 0 -640906 357264 0 -642605 538621 0 -646324 722814 0 -651618 910352 0 -658137 1.10157e+06 0 -665681 1.29674e+06 0 -674191 1.49615e+06 0 -683658 1.70025e+06 0 -693922 1.90977e+06 0 -704338 2.12568e+06 0 -713310 2.34902e+06 0 -717815 2.58028e+06 0 -713211 2.81835e+06 0 -694015 3.05918e+06 0 -539294 0 0 -536276 185323 0 -535691 371793 0 -537241 560329 0 -540553 751684 0 -545265 946429 0 -551089 1.14499e+06 0 -557850 1.34774e+06 0 -565451 1.55505e+06 0 -573763 1.76745e+06 0 -582400 1.98559e+06 0 -590387 2.21015e+06 0 -595770 2.44149e+06 0 -595352 2.67893e+06 0 -584900 2.91967e+06 0 -560285 3.15804e+06 0 -432429 0 0 -430023 192369 0 -429629 385851 0 -431010 581390 0 -433868 779782 0 -437912 981663 0 -442910 1.18754e+06 0 -448703 1.39786e+06 0 -455161 1.61307e+06 0 -462053 1.83366e+06 0 -468827 2.06014e+06 0 -474315 2.29276e+06 0 -476455 2.53107e+06 0 -472253 2.77315e+06 0 -458280 3.01482e+06 0 -431878 3.24933e+06 0 -324893 0 0 -323104 199163 0 -322884 399433 0 -324050 601792 0 -326375 807089 0 -329637 1.01602e+06 0 -333655 1.22917e+06 0 -338291 1.44704e+06 0 -343394 1.67009e+06 0 -348676 1.89877e+06 0 -353516 2.13332e+06 0 -356723 2.37347e+06 0 -356393 2.61792e+06 0 -350042 2.86357e+06 0 -335231 3.10511e+06 0 -310586 3.33521e+06 0 -216864 0 0 -215689 205697 0 -215604 412524 0 -216484 621514 0 -218172 833573 0 -220514 1.04946e+06 0 -223382 1.26982e+06 0 -226668 1.4952e+06 0 -230231 1.72607e+06 0 -233791 1.96273e+06 0 -236778 2.20516e+06 0 -238179 2.4525e+06 0 -236496 2.70257e+06 0 -229973 2.9512e+06 0 -217161 3.19213e+06 0 -197611 3.4177e+06 0 -108512 0 0 -107936 211959 0 -107931 425100 0 -108431 640522 0 -109352 859194 0 -110613 1.08194e+06 0 -112147 1.30945e+06 0 -113890 1.5423e+06 0 -115749 1.78095e+06 0 -117536 2.02558e+06 0 -118879 2.27582e+06 0 -119156 2.53026e+06 0 -117509 2.7858e+06 0 -113032 3.03724e+06 0 -105130 3.27748e+06 0 -93830.5 3.49853e+06 0 0 0 0 0 217934 0 0 437132 0 0 658774 0 0 883902 0 0 1.11339e+06 0 0 1.34799e+06 0 0 1.58829e+06 0 0 1.83474e+06 0 0 2.0874e+06 0 0 2.3456e+06 0 0 2.60732e+06 0 0 2.86856e+06 0 0 3.12303e+06 0 0 3.36269e+06 0 0 3.57914e+06 0 </DataArray> 
</PointData> 
<Points> 
<DataArray type="Float32" NumberOfComponents="3"> 
0 0.0556667 0 0.00452 0.0561222 0 0.00904 0.0565778 0 0.01356 0.0570333 0 0.01808 0.0574889 0 0.0226 0.0579444 0 0.02712 0.0584 0 0.03164 0.0588556 0 0.03616 0.0593111 0 0.04068 0.0597667 0 0.0452 0.0602222 0 0.04972 0.0606778 0 0.05424 0.0611333 0 0.05876 0.0615889 0 0.06328 0.0620444 0 0.0678 0.0625 0 0 0.0594222 0 0.00472089 0.0598474 0 0.00944178 0.0602726 0 0.0141627 0.0606978 0 0.0188836 0.061123 0 0.0236044 0.0615481 0 0.0283253 0.0619733 0 0.0330462 0.0623985 0 0.0377671 0.0628237 0 0.042488 0.0632489 0 0.0472089 0.0636741 0 0.0519298 0.0640993 0 0.0566507 0.0645244 0 0.0613716 0.0649496 0 0.0660924 0.0653748 0 0.0708133 0.0658 0 0 0.0631778 0 0.00492178 0.0635726 0 0.00984356 0.0639674 0 0.0147653 0.0643622 0 0.0196871 0.064757 0 0.0246089 0.0651519 0 0.0295307 0.0655467 0 0.0344524 0.0659415 0 0.0393742 0.0663363 0 0.044296 0.0667311 0 0.0492178 0.0671259 0 0.0541396 0.0675207 0 0.0590613 0.0679156 0 0.0639831 0.0683104 0 0.0689049 0.0687052 0 0.0738267 0.0691 0 0 0.0669333 0 0.00512267 0.0672978 0 0.0102453 0.0676622 0 0.015368 0.0680267 0 0.0204907 0.0683911 0 0.0256133 0.0687556 0 0.030736 0.06912 0 0.0358587 0.0694844 0 0.0409813 0.0698489 0 0.046104 0.0702133 0 0.0512267 0.0705778 0 0.0563493 0.0709422 0 0.061472 0.0713067 0 0.0665947 0.0716711 0 0.0717173 0.0720356 0 0.07684 0.0724 0 0 0.0706889 0 0.00532356 0.071023 0 0.0106471 0.071357 0 0.0159707 0.0716911 0 0.0212942 0.0720252 0 0.0266178 0.0723593 0 0.0319413 0.0726933 0 0.0372649 0.0730274 0 0.0425884 0.0733615 0 0.047912 0.0736956 0 0.0532356 0.0740296 0 0.0585591 0.0743637 0 0.0638827 0.0746978 0 0.0692062 0.0750319 0 0.0745298 0.0753659 0 0.0798533 0.0757 0 0 0.0744444 0 0.00552444 0.0747481 0 0.0110489 0.0750519 0 0.0165733 0.0753556 0 0.0220978 0.0756593 0 0.0276222 0.075963 0 0.0331467 0.0762667 0 0.0386711 0.0765704 0 0.0441956 0.0768741 0 0.04972 0.0771778 0 0.0552444 0.0774815 0 0.0607689 0.0777852 0 0.0662933 0.0780889 0 0.0718178 0.0783926 0 0.0773422 0.0786963 0 0.0828667 0.079 0 0 0.0782 0 0.00572533 0.0784733 0 0.0114507 0.0787467 0 0.017176 0.07902 0 0.0229013 0.0792933 0 0.0286267 0.0795667 0 0.034352 0.07984 0 0.0400773 0.0801133 0 0.0458027 0.0803867 0 0.051528 0.08066 0 0.0572533 0.0809333 0 0.0629787 0.0812067 0 0.068704 0.08148 0 0.0744293 0.0817533 0 0.0801547 0.0820267 0 0.08588 0.0823 0 0 0.0819556 0 0.00592622 0.0821985 0 0.0118524 0.0824415 0 0.0177787 0.0826844 0 0.0237049 0.0829274 0 0.0296311 0.0831704 0 0.0355573 0.0834133 0 0.0414836 0.0836563 0 0.0474098 0.0838993 0 0.053336 0.0841422 0 0.0592622 0.0843852 0 0.0651884 0.0846281 0 0.0711147 0.0848711 0 0.0770409 0.0851141 0 0.0829671 0.085357 0 0.0888933 0.0856 0 0 0.0857111 0 0.00612711 0.0859237 0 0.0122542 0.0861363 0 0.0183813 0.0863489 0 0.0245084 0.0865615 0 0.0306356 0.0867741 0 0.0367627 0.0869867 0 0.0428898 0.0871993 0 0.0490169 0.0874119 0 0.055144 0.0876244 0 0.0612711 0.087837 0 0.0673982 0.0880496 0 0.0735253 0.0882622 0 0.0796524 0.0884748 0 0.0857796 0.0886874 0 0.0919067 0.0889 0 0 0.0894667 0 0.006328 0.0896489 0 0.012656 0.0898311 0 0.018984 0.0900133 0 0.025312 0.0901956 0 0.03164 0.0903778 0 0.037968 0.09056 0 0.044296 0.0907422 0 0.050624 0.0909244 0 0.056952 0.0911067 0 0.06328 0.0912889 0 0.069608 0.0914711 0 0.075936 0.0916533 0 0.082264 0.0918356 0 0.088592 0.0920178 0 0.09492 0.0922 0 0 0.0932222 0 0.00652889 0.0933741 0 0.0130578 0.0935259 0 0.0195867 0.0936778 0 0.0261156 0.0938296 0 0.0326444 0.0939815 0 0.0391733 0.0941333 0 0.0457022 0.0942852 0 0.0522311 0.094437 0 0.05876 0.0945889 0 0.0652889 0.0947407 0 0.0718178 0.0948926 0 0.0783467 0.0950444 0 0.0848756 0.0951963 0 0.0914044 0.0953481 0 0.0979333 0.0955 0 0 0.0969778 0 0.00672978 0.0970993 0 0.0134596 0.0972207 0 0.0201893 0.0973422 0 0.0269191 0.0974637 0 0.0336489 0.0975852 0 0.0403787 0.0977067 0 0.0471084 0.0978281 0 0.0538382 0.0979496 0 0.060568 0.0980711 0 0.0672978 0.0981926 0 0.0740276 0.0983141 0 0.0807573 0.0984356 0 0.0874871 0.098557 0 0.0942169 0.0986785 0 0.100947 0.0988 0 0 0.100733 0 0.00693067 0.100824 0 0.0138613 0.100916 0 0.020792 0.101007 0 0.0277227 0.101098 0 0.0346533 0.101189 0 0.041584 0.10128 0 0.0485147 0.101371 0 0.0554453 0.101462 0 0.062376 0.101553 0 0.0693067 0.101644 0 0.0762373 0.101736 0 0.083168 0.101827 0 0.0900987 0.101918 0 0.0970293 0.102009 0 0.10396 0.1021 0 0 0.104489 0 0.00713156 0.10455 0 0.0142631 0.10461 0 0.0213947 0.104671 0 0.0285262 0.104732 0 0.0356578 0.104793 0 0.0427893 0.104853 0 0.0499209 0.104914 0 0.0570524 0.104975 0 0.064184 0.105036 0 0.0713156 0.105096 0 0.0784471 0.105157 0 0.0855787 0.105218 0 0.0927102 0.105279 0 0.0998418 0.105339 0 0.106973 0.1054 0 0 0.108244 0 0.00733244 0.108275 0 0.0146649 0.108305 0 0.0219973 0.108336 0 0.0293298 0.108366 0 0.0366622 0.108396 0 0.0439947 0.108427 0 0.0513271 0.108457 0 0.0586596 0.108487 0 0.065992 0.108518 0 0.0733244 0.108548 0 0.0806569 0.108579 0 0.0879893 0.108609 0 0.0953218 0.108639 0 0.102654 0.10867 0 0.109987 0.1087 0 0 0.112 0 0.00753333 0.112 0 0.0150667 0.112 0 0.0226 0.112 0 0.0301333 0.112 0 0.0376667 0.112 0 0.0452 0.112 0 0.0527333 0.112 0 0.0602667 0.112 0 0.0678 0.112 0 0.0753333 0.112 0 0.0828667 0.112 0 0.0904 0.112 0 0.0979333 0.112 0 0.105467 0.112 0 0.113 0.112 0 
</DataArray>
</Points> 
</Piece> 
</StructuredGrid> 
</VTKFile> 
