<?xml version="1.0"?> 
<VTKFile type="StructuredGrid" version="0.1"> 
<StructuredGrid WholeExtent="0 15 0 15 0 0"> 
<Piece Extent="0 15 0 15 0 0"> 
<PointData>
<DataArray type="Float32" Name="|E|" format="ascii" NumberOfComponents="3"> 
-516073 -1.9353 0 -556930 -1.95246 0 -603151 -1.86805 0 -654986 -1.65489 0 -712670 -1.28206 0 -776399 -0.720325 0 -846308 0.0501539 0 -922447 1.05093 0 -1.00475e+06 2.24143 0 -1.093e+06 3.65242 0 -1.18683e+06 5.05515 0 -1.28565e+06 6.66047 0 -1.38871e+06 7.70438 0 -1.49506e+06 9.22311 0 -1.60358e+06 9.04586 0 -1.71308e+06 8.71455 0 -513521 38223.8 0 -554249 43455.8 0 -600342 48946.8 0 -652059 54686.9 0 -709642 60649.3 0 -773301 66786 0 -843183 73024.6 0 -919353 79264.3 0 -1.00176e+06 85374.6 0 -1.0902e+06 91196.2 0 -1.18431e+06 96546.4 0 -1.28352e+06 101228 0 -1.38706e+06 105045 0 -1.49396e+06 107821 0 -1.6031e+06 109414 0 -1.71323e+06 109742 0 -505871 76189.2 0 -546205 86649.4 0 -591908 97640.9 0 -643259 109147 0 -700530 121119 0 -763965 133465 0 -833751 146043 0 -909999 158654 0 -992700 171035 0 -1.0817e+06 182863 0 -1.17666e+06 193763 0 -1.27702e+06 203327 0 -1.38201e+06 211143 0 -1.49061e+06 216836 0 -1.60162e+06 220109 0 -1.71372e+06 220784 0 -493137 113629 0 -532796 129307 0 -577823 145815 0 -628534 163136 0 -685247 181207 0 -748263 199903 0 -817840 219019 0 -894164 238262 0 -977312 257238 0 -1.06721e+06 275452 0 -1.16356e+06 292316 0 -1.26587e+06 307180 0 -1.37332e+06 319377 0 -1.48483e+06 328291 0 -1.59908e+06 333427 0 -1.71455e+06 334483 0 -475348 150258 0 -514024 171130 0 -558055 193166 0 -607804 216363 0 -663655 240658 0 -725988 265904 0 -795162 291850 0 -871480 318120 0 -955143 344189 0 -1.0462e+06 369381 0 -1.14448e+06 392867 0 -1.24952e+06 413708 0 -1.36051e+06 430917 0 -1.47628e+06 443556 0 -1.5953e+06 450870 0 -1.71578e+06 452383 0 -452555 185762 0 -489905 211781 0 -532571 239344 0 -580974 268478 0 -635576 299139 0 -696863 331182 0 -765324 364333 0 -841422 398150 0 -925544 431993 0 -1.01793e+06 464994 0 -1.11858e+06 496055 0 -1.22715e+06 523880 0 -1.34287e+06 547053 0 -1.46444e+06 564206 0 -1.59005e+06 574173 0 -1.71752e+06 576232 0 -424842 219797 0 -460481 250880 0 -501356 283938 0 -547950 319050 0 -600815 356216 0 -660560 395325 0 -727837 436115 0 -803318 478116 0 -887641 520598 0 -981329 562512 0 -1.08467e+06 602461 0 -1.19756e+06 638701 0 -1.3193e+06 669260 0 -1.44849e+06 692098 0 -1.58295e+06 705496 0 -1.71977e+06 708310 0 -392335 251983 0 -425837 287995 0 -464431 326466 0 -508665 367549 0 -559182 411323 0 -616727 457754 0 -682142 506641 0 -756354 557546 0 -840334 609707 0 -935011 661937 0 -1.04112e+06 712524 0 -1.15898e+06 759208 0 -1.28815e+06 799209 0 -1.42719e+06 829576 0 -1.57334e+06 847537 0 -1.72308e+06 851296 0 -355222 281906 0 -386120 322643 0 -421884 366368 0 -463113 413337 0 -510540 463745 0 -565040 517686 0 -627659 575092 0 -699618 635647 0 -782300 698660 0 -877190 762899 0 -985703 826413 0 -1.10889e+06 886329 0 -1.24694e+06 938879 0 -1.39853e+06 979550 0 -1.56041e+06 1.00407e+06 0 -1.72674e+06 1.00935e+06 0 -313761 309126 0 -341559 354297 0 -373891 403018 0 -411390 455671 0 -454852 512608 0 -505266 574111 0 -563866 640333 0 -632175 711201 0 -712055 786259 0 -805683 864440 0 -915474 943712 0 -1.0437e+06 1.02073e+06 0 -1.19183e+06 1.09036e+06 0 -1.35934e+06 1.146e+06 0 -1.54212e+06 1.18023e+06 0 -1.73387e+06 1.18749e+06 0 -268300 333189 0 -292488 382399 0 -320756 435729 0 -353739 493711 0 -392255 556885 0 -437359 625780 0 -490420 700866 0 -553227 782461 0 -628095 870583 0 -718018 964643 0 -826667 1.063e+06 0 -958288 1.16214e+06 0 -1.11678e+06 1.2558e+06 0 -1.30389e+06 1.33398e+06 0 -1.51636e+06 1.3842e+06 0 -1.73964e+06 1.39529e+06 0 -219283 353645 0 -239364 406385 0 -262937 463793 0 -290594 526557 0 -323123 595432 0 -361563 671237 0 -407325 754839 0 -462322 847106 0 -529226 948786 0 -611705 1.06027e+06 0 -714917 1.181e+06 0 -845636 1.30847e+06 0 -1.01223e+06 1.43602e+06 0 -1.2222e+06 1.55028e+06 0 -1.47477e+06 1.62871e+06 0 -1.75972e+06 1.64656e+06 0 -167257 370070 0 -182777 425714 0 -201064 486511 0 -222623 553304 0 -248137 627059 0 -278537 708900 0 -315109 800134 0 -359707 902279 0 -414988 1.01706e+06 0 -485020 1.14632e+06 0 -575872 1.29166e+06 0 -697188 1.45346e+06 0 -863287 1.62807e+06 0 -1.09364e+06 1.8012e+06 0 -1.40602e+06 1.93662e+06 0 -1.77069e+06 1.97345e+06 0 -112868 382095 0 -123446 439907 0 -135946 503256 0 -150737 573113 0 -168330 650632 0 -189420 737205 0 -215025 834557 0 -246592 944841 0 -286415 1.07084e+06 0 -337971 1.2161e+06 0 -407350 1.38536e+06 0 -504824 1.58401e+06 0 -650146 1.81808e+06 0 -880483 2.08431e+06 0 -1.25582e+06 2.34526e+06 0 -1.83595e+06 2.45379e+06 0 -56850.3 389434 0 -62211.1 448586 0 -68557.3 513523 0 -76087.1 585301 0 -85064.6 665201 0 -95885 754809 0 -109069 856133 0 -125501 971853 0 -146365 1.10546e+06 0 -173993 1.26228e+06 0 -211847 1.44925e+06 0 -267703 1.67938e+06 0 -356957 1.9693e+06 0 -520282 2.35784e+06 0 -890230 2.87928e+06 0 -1.81314e+06 3.33028e+06 0 0 391901 0 0 451509 0 0 516983 0 0 589418 0 0 670136 0 0 760779 0 0 863532 0 0 981034 0 0 1.11771e+06 0 0 1.27795e+06 0 0 1.47351e+06 0 0 1.71226e+06 0 0 2.036e+06 0 0 2.47608e+06 0 0 3.27991e+06 0 0 6.03638e+06 0 </DataArray> 
</PointData> 
<Points> 
<DataArray type="Float32" NumberOfComponents="3"> 
0.006 0 0 0.00666667 0 0 0.00733333 0 0 0.008 0 0 0.00866667 0 0 0.00933333 0 0 0.01 0 0 0.0106667 0 0 0.0113333 0 0 0.012 0 0 0.0126667 0 0 0.0133333 0 0 0.014 0 0 0.0146667 0 0 0.0153333 0 0 0.016 0 0 0.006 0.000666667 0 0.00666667 0.000666667 0 0.00733333 0.000666667 0 0.008 0.000666667 0 0.00866667 0.000666667 0 0.00933333 0.000666667 0 0.01 0.000666667 0 0.0106667 0.000666667 0 0.0113333 0.000666667 0 0.012 0.000666667 0 0.0126667 0.000666667 0 0.0133333 0.000666667 0 0.014 0.000666667 0 0.0146667 0.000666667 0 0.0153333 0.000666667 0 0.016 0.000666667 0 0.006 0.00133333 0 0.00666667 0.00133333 0 0.00733333 0.00133333 0 0.008 0.00133333 0 0.00866667 0.00133333 0 0.00933333 0.00133333 0 0.01 0.00133333 0 0.0106667 0.00133333 0 0.0113333 0.00133333 0 0.012 0.00133333 0 0.0126667 0.00133333 0 0.0133333 0.00133333 0 0.014 0.00133333 0 0.0146667 0.00133333 0 0.0153333 0.00133333 0 0.016 0.00133333 0 0.006 0.002 0 0.00666667 0.002 0 0.00733333 0.002 0 0.008 0.002 0 0.00866667 0.002 0 0.00933333 0.002 0 0.01 0.002 0 0.0106667 0.002 0 0.0113333 0.002 0 0.012 0.002 0 0.0126667 0.002 0 0.0133333 0.002 0 0.014 0.002 0 0.0146667 0.002 0 0.0153333 0.002 0 0.016 0.002 0 0.006 0.00266667 0 0.00666667 0.00266667 0 0.00733333 0.00266667 0 0.008 0.00266667 0 0.00866667 0.00266667 0 0.00933333 0.00266667 0 0.01 0.00266667 0 0.0106667 0.00266667 0 0.0113333 0.00266667 0 0.012 0.00266667 0 0.0126667 0.00266667 0 0.0133333 0.00266667 0 0.014 0.00266667 0 0.0146667 0.00266667 0 0.0153333 0.00266667 0 0.016 0.00266667 0 0.006 0.00333333 0 0.00666667 0.00333333 0 0.00733333 0.00333333 0 0.008 0.00333333 0 0.00866667 0.00333333 0 0.00933333 0.00333333 0 0.01 0.00333333 0 0.0106667 0.00333333 0 0.0113333 0.00333333 0 0.012 0.00333333 0 0.0126667 0.00333333 0 0.0133333 0.00333333 0 0.014 0.00333333 0 0.0146667 0.00333333 0 0.0153333 0.00333333 0 0.016 0.00333333 0 0.006 0.004 0 0.00666667 0.004 0 0.00733333 0.004 0 0.008 0.004 0 0.00866667 0.004 0 0.00933333 0.004 0 0.01 0.004 0 0.0106667 0.004 0 0.0113333 0.004 0 0.012 0.004 0 0.0126667 0.004 0 0.0133333 0.004 0 0.014 0.004 0 0.0146667 0.004 0 0.0153333 0.004 0 0.016 0.004 0 0.006 0.00466667 0 0.00666667 0.00466667 0 0.00733333 0.00466667 0 0.008 0.00466667 0 0.00866667 0.00466667 0 0.00933333 0.00466667 0 0.01 0.00466667 0 0.0106667 0.00466667 0 0.0113333 0.00466667 0 0.012 0.00466667 0 0.0126667 0.00466667 0 0.0133333 0.00466667 0 0.014 0.00466667 0 0.0146667 0.00466667 0 0.0153333 0.00466667 0 0.016 0.00466667 0 0.006 0.00533333 0 0.00666667 0.00533333 0 0.00733333 0.00533333 0 0.008 0.00533333 0 0.00866667 0.00533333 0 0.00933333 0.00533333 0 0.01 0.00533333 0 0.0106667 0.00533333 0 0.0113333 0.00533333 0 0.012 0.00533333 0 0.0126667 0.00533333 0 0.0133333 0.00533333 0 0.014 0.00533333 0 0.0146667 0.00533333 0 0.0153333 0.00533333 0 0.016 0.00533333 0 0.006 0.006 0 0.00666667 0.006 0 0.00733333 0.006 0 0.008 0.006 0 0.00866667 0.006 0 0.00933333 0.006 0 0.01 0.006 0 0.0106667 0.006 0 0.0113333 0.006 0 0.012 0.006 0 0.0126667 0.006 0 0.0133333 0.006 0 0.014 0.006 0 0.0146667 0.006 0 0.0153333 0.006 0 0.016 0.006 0 0.006 0.00666667 0 0.00666667 0.00666667 0 0.00733333 0.00666667 0 0.008 0.00666667 0 0.00866667 0.00666667 0 0.00933333 0.00666667 0 0.01 0.00666667 0 0.0106667 0.00666667 0 0.0113333 0.00666667 0 0.012 0.00666667 0 0.0126667 0.00666667 0 0.0133333 0.00666667 0 0.014 0.00666667 0 0.0146667 0.00666667 0 0.0153333 0.00666667 0 0.016 0.00666667 0 0.006 0.00733333 0 0.00666667 0.00733333 0 0.00733333 0.00733333 0 0.008 0.00733333 0 0.00866667 0.00733333 0 0.00933333 0.00733333 0 0.01 0.00733333 0 0.0106667 0.00733333 0 0.0113333 0.00733333 0 0.012 0.00733333 0 0.0126667 0.00733333 0 0.0133333 0.00733333 0 0.014 0.00733333 0 0.0146667 0.00733333 0 0.0153333 0.00733333 0 0.016 0.00733333 0 0.006 0.008 0 0.00666667 0.008 0 0.00733333 0.008 0 0.008 0.008 0 0.00866667 0.008 0 0.00933333 0.008 0 0.01 0.008 0 0.0106667 0.008 0 0.0113333 0.008 0 0.012 0.008 0 0.0126667 0.008 0 0.0133333 0.008 0 0.014 0.008 0 0.0146667 0.008 0 0.0153333 0.008 0 0.016 0.008 0 0.006 0.00866667 0 0.00666667 0.00866667 0 0.00733333 0.00866667 0 0.008 0.00866667 0 0.00866667 0.00866667 0 0.00933333 0.00866667 0 0.01 0.00866667 0 0.0106667 0.00866667 0 0.0113333 0.00866667 0 0.012 0.00866667 0 0.0126667 0.00866667 0 0.0133333 0.00866667 0 0.014 0.00866667 0 0.0146667 0.00866667 0 0.0153333 0.00866667 0 0.016 0.00866667 0 0.006 0.00933333 0 0.00666667 0.00933333 0 0.00733333 0.00933333 0 0.008 0.00933333 0 0.00866667 0.00933333 0 0.00933333 0.00933333 0 0.01 0.00933333 0 0.0106667 0.00933333 0 0.0113333 0.00933333 0 0.012 0.00933333 0 0.0126667 0.00933333 0 0.0133333 0.00933333 0 0.014 0.00933333 0 0.0146667 0.00933333 0 0.0153333 0.00933333 0 0.016 0.00933333 0 0.006 0.01 0 0.00666667 0.01 0 0.00733333 0.01 0 0.008 0.01 0 0.00866667 0.01 0 0.00933333 0.01 0 0.01 0.01 0 0.0106667 0.01 0 0.0113333 0.01 0 0.012 0.01 0 0.0126667 0.01 0 0.0133333 0.01 0 0.014 0.01 0 0.0146667 0.01 0 0.0153333 0.01 0 0.016 0.01 0 
</DataArray>
</Points> 
</Piece> 
</StructuredGrid> 
</VTKFile> 
