<?xml version="1.0"?> 
<VTKFile type="StructuredGrid" version="0.1"> 
<StructuredGrid WholeExtent="0 15 0 15 0 0"> 
<Piece Extent="0 15 0 15 0 0"> 
<PointData>
<DataArray type="Float32" Name="|E|" format="ascii" NumberOfComponents="3"> 
0 0 0 0 -26688.7 0 0 -53236.9 0 0 -79498 0 0 -105314 0 0 -130505 0 0 -154863 0 0 -178136 0 0 -200000 0 0 -220043 0 0 -237646 0 0 -251441 0 0 -260040 0 0 -267128 0 0 -267665 0 0 0 0 -22273.1 0 0 -22201.6 -29701.5 0 -21983.4 -59212.4 0 -21607.3 -88332.6 0 -21053.1 -116842 0 -20288 -144486 0 -19262.7 -170958 0 -17897.8 -195873 0 -16068.5 -218721 0 -13552.3 -238785 0 -9954.56 -255012 0 -4405.47 -265339 0 6290.77 -266144 0 33081.7 -257794 0 90643.5 -261565 0 142580 -285159 0 -44626.2 0 0 -44455.4 -32841.3 0 -43932.7 -65438.8 0 -43026 -97535.3 0 -41676.3 -128844 0 -39787.7 -159028 0 -37206.4 -187675 0 -33683.7 -214258 0 -28792.4 -238063 0 -21738.8 -258116 0 -10837.4 -272988 0 7853.52 -281735 0 41108.4 -288114 0 90745.3 -305206 0 139204 -334557 0 186751 -373502 0 -67137.1 0 0 -66838.9 -36134.8 0 -65923.5 -71974.5 0 -64326.1 -107207 0 -61926.1 -141482 0 -58523.1 -174389 0 -53790.8 -205430 0 -47184.1 -233980 0 -37744 -259288 0 -23691.5 -280564 0 -1796.01 -297956 0 31920.1 -314893 0 77144 -339197 0 124932 -372817 0 173382 -409646 0 223487 -446974 0 -89879.3 0 0 -89427 -39604.3 0 -88034.5 -78869.7 0 -85591.2 -117438 0 -81889.7 -154912 0 -76582.8 -190836 0 -69100.4 -224682 0 -58493.9 -255886 0 -43171.9 -284001 0 -20624.7 -309405 0 11887.9 -334631 0 54420.5 -364741 0 102253 -402137 0 153152 -443225 0 207865 -488129 0 267081 -534161 0 -112920 0 0 -112290 -43266.5 0 -110345 -86163.4 0 -106916 -128304 0 -101686 -169271 0 -94125.7 -208612 0 -83378.2 -245881 0 -68088.4 -280774 0 -46256.8 -313601 0 -15675.4 -346105 0 24389.8 -381799 0 71583.2 -423424 0 123748 -469713 0 180882 -520493 0 243669 -573187 0 314199 -628399 0 -136321 0 0 -135493 -47131.8 0 -132932 -93882.2 0 -128402 -139860 0 -121460 -184665 0 -111376 -227919 0 -97019.7 -269371 0 -76754.9 -309196 0 -48665.9 -348543 0 -11516.3 -389916 0 33885.4 -436100 0 85855.2 -487538 0 143961 -544153 0 208982 -604317 0 282938 -668198 0 367320 -734639 0 -160132 0 0 -159091 -51204.7 0 -155870 -102039 0 -150155 -152138 0 -141373 -201164 0 -128605 -248882 0 -110503 -295350 0 -85383.7 -341289 0 -51747.2 -388460 0 -9335.54 -439397 0 40876.2 -495670 0 98278.9 -557841 0 163558 -625261 0 238747 -697864 0 326030 -774690 0 427436 -854872 0 -184396 0 0 -183135 -55483.7 0 -179225 -110635 0 -172279 -165148 0 -161596 -218794 0 -146094 -271549 0 -124319 -323841 0 -94706.1 -376869 0 -56308 -432711 0 -9333.93 -493468 0 45654.4 -560549 0 109091 -634387 0 183056 -715260 0 270518 -802472 0 374244 -894475 0 494719 -989438 0 -209147 0 0 -207662 -59962.4 0 -203056 -119659 0 -194870 -178877 0 -182290 -237542 0 -164120 -295894 0 -138881 -354732 0 -105247 -415625 0 -62717 -480660 0 -11623.7 -551848 0 48089.2 -630738 0 118247 -718603 0 202631 -815620 0 305540 -919959 0 428716 -1.02769e+06 0 567762 -1.13552e+06 0 -234410 0 0 -232704 -64630.1 0 -227414 -129090 0 -218016 -193294 0 -203606 -257364 0 -182921 -321833 0 -154520 -387854 0 -117329 -457193 0 -71208.6 -531937 0 -16519.1 -614333 0 47721.2 -706987 0 125472 -811950 0 223206 -928418 0 345868 -1.05088e+06 0 490660 -1.17065e+06 0 641414 -1.28283e+06 0 -260199 0 0 -258283 -69472.1 0 -252338 -138899 0 -241791 -208353 0 -225675 -278185 0 -202700 -349250 0 -171473 -423004 0 -131153 -501269 0 -82059 -586180 0 -24637.1 -681025 0 43727.6 -790355 0 130904 -916707 0 247019 -1.05538e+06 0 395147 -1.19292e+06 0 560580 -1.31311e+06 0 705192 -1.41038e+06 0 -286523 0 0 -284410 -74471.3 0 -277859 -149050 0 -266256 -223995 0 -248607 -299915 0 -223624 -378014 0 -189900 -459999 0 -146846 -547527 0 -95695 -643028 0 -37070 -752199 0 35144.3 -882774 0 135809 -1.03583e+06 0 278801 -1.1969e+06 0 458775 -1.33842e+06 0 637031 -1.43499e+06 0 742164 -1.48433e+06 0 -313383 0 0 -311092 -79608.2 0 -303998 -159501 0 -291458 -240152 0 -272495 -322445 0 -245838 -407998 0 -209884 -498680 0 -164477 -595570 0 -112869 -701980 0 -55539 -828620 0 21289.2 -987460 0 143902 -1.17274e+06 0 326820 -1.35013e+06 0 543303 -1.47132e+06 0 714750 -1.50486e+06 0 730196 -1.46039e+06 0 -340770 0 0 -338325 -84862.3 0 -330765 -170209 0 -317428 -256751 0 -297416 -345656 0 -269484 -439097 0 -231393 -538922 0 -184063 -644770 0 -134942 -762369 0 -82539.6 -912086 0 2713.5 -1.10951e+06 0 163040 -1.33029e+06 0 403382 -1.50593e+06 0 654422 -1.56468e+06 0 782564 -1.48202e+06 0 646636 -1.29327e+06 0 -368670 0 0 -366101 -90213.5 0 -358168 -181128 0 -344181 -273718 0 -323445 -369412 0 -294722 -471261 0 -254193 -580633 0 -205613 -694059 0 -164386 -823417 0 -121262 -1.00622e+06 0 -17061.2 -1.25621e+06 0 207061 -1.50913e+06 0 523854 -1.64627e+06 0 793055 -1.58104e+06 0 821999 -1.32407e+06 0 476775 -953550 0 </DataArray> 
</PointData> 
<Points> 
<DataArray type="Float32" NumberOfComponents="3"> 
0 0.016 0 0.0004 0.016 0 0.0008 0.016 0 0.0012 0.016 0 0.0016 0.016 0 0.002 0.016 0 0.0024 0.016 0 0.0028 0.016 0 0.0032 0.016 0 0.0036 0.016 0 0.004 0.016 0 0.0044 0.016 0 0.0048 0.016 0 0.0052 0.016 0 0.0056 0.016 0 0.006 0.016 0 0 0.0163333 0 0.000444444 0.0163333 0 0.000888889 0.0163333 0 0.00133333 0.0163333 0 0.00177778 0.0163333 0 0.00222222 0.0163333 0 0.00266667 0.0163333 0 0.00311111 0.0163333 0 0.00355556 0.0163333 0 0.004 0.0163333 0 0.00444444 0.0163333 0 0.00488889 0.0163333 0 0.00533333 0.0163333 0 0.00577778 0.0163333 0 0.00622222 0.0163333 0 0.00666667 0.0163333 0 0 0.0166667 0 0.000488889 0.0166667 0 0.000977778 0.0166667 0 0.00146667 0.0166667 0 0.00195556 0.0166667 0 0.00244444 0.0166667 0 0.00293333 0.0166667 0 0.00342222 0.0166667 0 0.00391111 0.0166667 0 0.0044 0.0166667 0 0.00488889 0.0166667 0 0.00537778 0.0166667 0 0.00586667 0.0166667 0 0.00635556 0.0166667 0 0.00684444 0.0166667 0 0.00733333 0.0166667 0 0 0.017 0 0.000533333 0.017 0 0.00106667 0.017 0 0.0016 0.017 0 0.00213333 0.017 0 0.00266667 0.017 0 0.0032 0.017 0 0.00373333 0.017 0 0.00426667 0.017 0 0.0048 0.017 0 0.00533333 0.017 0 0.00586667 0.017 0 0.0064 0.017 0 0.00693333 0.017 0 0.00746667 0.017 0 0.008 0.017 0 0 0.0173333 0 0.000577778 0.0173333 0 0.00115556 0.0173333 0 0.00173333 0.0173333 0 0.00231111 0.0173333 0 0.00288889 0.0173333 0 0.00346667 0.0173333 0 0.00404444 0.0173333 0 0.00462222 0.0173333 0 0.0052 0.0173333 0 0.00577778 0.0173333 0 0.00635556 0.0173333 0 0.00693333 0.0173333 0 0.00751111 0.0173333 0 0.00808889 0.0173333 0 0.00866667 0.0173333 0 0 0.0176667 0 0.000622222 0.0176667 0 0.00124444 0.0176667 0 0.00186667 0.0176667 0 0.00248889 0.0176667 0 0.00311111 0.0176667 0 0.00373333 0.0176667 0 0.00435556 0.0176667 0 0.00497778 0.0176667 0 0.0056 0.0176667 0 0.00622222 0.0176667 0 0.00684444 0.0176667 0 0.00746667 0.0176667 0 0.00808889 0.0176667 0 0.00871111 0.0176667 0 0.00933333 0.0176667 0 0 0.018 0 0.000666667 0.018 0 0.00133333 0.018 0 0.002 0.018 0 0.00266667 0.018 0 0.00333333 0.018 0 0.004 0.018 0 0.00466667 0.018 0 0.00533333 0.018 0 0.006 0.018 0 0.00666667 0.018 0 0.00733333 0.018 0 0.008 0.018 0 0.00866667 0.018 0 0.00933333 0.018 0 0.01 0.018 0 0 0.0183333 0 0.000711111 0.0183333 0 0.00142222 0.0183333 0 0.00213333 0.0183333 0 0.00284444 0.0183333 0 0.00355556 0.0183333 0 0.00426667 0.0183333 0 0.00497778 0.0183333 0 0.00568889 0.0183333 0 0.0064 0.0183333 0 0.00711111 0.0183333 0 0.00782222 0.0183333 0 0.00853333 0.0183333 0 0.00924444 0.0183333 0 0.00995556 0.0183333 0 0.0106667 0.0183333 0 0 0.0186667 0 0.000755556 0.0186667 0 0.00151111 0.0186667 0 0.00226667 0.0186667 0 0.00302222 0.0186667 0 0.00377778 0.0186667 0 0.00453333 0.0186667 0 0.00528889 0.0186667 0 0.00604444 0.0186667 0 0.0068 0.0186667 0 0.00755556 0.0186667 0 0.00831111 0.0186667 0 0.00906667 0.0186667 0 0.00982222 0.0186667 0 0.0105778 0.0186667 0 0.0113333 0.0186667 0 0 0.019 0 0.0008 0.019 0 0.0016 0.019 0 0.0024 0.019 0 0.0032 0.019 0 0.004 0.019 0 0.0048 0.019 0 0.0056 0.019 0 0.0064 0.019 0 0.0072 0.019 0 0.008 0.019 0 0.0088 0.019 0 0.0096 0.019 0 0.0104 0.019 0 0.0112 0.019 0 0.012 0.019 0 0 0.0193333 0 0.000844444 0.0193333 0 0.00168889 0.0193333 0 0.00253333 0.0193333 0 0.00337778 0.0193333 0 0.00422222 0.0193333 0 0.00506667 0.0193333 0 0.00591111 0.0193333 0 0.00675556 0.0193333 0 0.0076 0.0193333 0 0.00844444 0.0193333 0 0.00928889 0.0193333 0 0.0101333 0.0193333 0 0.0109778 0.0193333 0 0.0118222 0.0193333 0 0.0126667 0.0193333 0 0 0.0196667 0 0.000888889 0.0196667 0 0.00177778 0.0196667 0 0.00266667 0.0196667 0 0.00355556 0.0196667 0 0.00444444 0.0196667 0 0.00533333 0.0196667 0 0.00622222 0.0196667 0 0.00711111 0.0196667 0 0.008 0.0196667 0 0.00888889 0.0196667 0 0.00977778 0.0196667 0 0.0106667 0.0196667 0 0.0115556 0.0196667 0 0.0124444 0.0196667 0 0.0133333 0.0196667 0 0 0.02 0 0.000933333 0.02 0 0.00186667 0.02 0 0.0028 0.02 0 0.00373333 0.02 0 0.00466667 0.02 0 0.0056 0.02 0 0.00653333 0.02 0 0.00746667 0.02 0 0.0084 0.02 0 0.00933333 0.02 0 0.0102667 0.02 0 0.0112 0.02 0 0.0121333 0.02 0 0.0130667 0.02 0 0.014 0.02 0 0 0.0203333 0 0.000977778 0.0203333 0 0.00195556 0.0203333 0 0.00293333 0.0203333 0 0.00391111 0.0203333 0 0.00488889 0.0203333 0 0.00586667 0.0203333 0 0.00684444 0.0203333 0 0.00782222 0.0203333 0 0.0088 0.0203333 0 0.00977778 0.0203333 0 0.0107556 0.0203333 0 0.0117333 0.0203333 0 0.0127111 0.0203333 0 0.0136889 0.0203333 0 0.0146667 0.0203333 0 0 0.0206667 0 0.00102222 0.0206667 0 0.00204444 0.0206667 0 0.00306667 0.0206667 0 0.00408889 0.0206667 0 0.00511111 0.0206667 0 0.00613333 0.0206667 0 0.00715556 0.0206667 0 0.00817778 0.0206667 0 0.0092 0.0206667 0 0.0102222 0.0206667 0 0.0112444 0.0206667 0 0.0122667 0.0206667 0 0.0132889 0.0206667 0 0.0143111 0.0206667 0 0.0153333 0.0206667 0 0 0.021 0 0.00106667 0.021 0 0.00213333 0.021 0 0.0032 0.021 0 0.00426667 0.021 0 0.00533333 0.021 0 0.0064 0.021 0 0.00746667 0.021 0 0.00853333 0.021 0 0.0096 0.021 0 0.0106667 0.021 0 0.0117333 0.021 0 0.0128 0.021 0 0.0138667 0.021 0 0.0149333 0.021 0 0.016 0.021 0 
</DataArray>
</Points> 
</Piece> 
</StructuredGrid> 
</VTKFile> 
