<?xml version="1.0"?> 
<VTKFile type="StructuredGrid" version="0.1"> 
<StructuredGrid WholeExtent="0 15 0 15 0 0"> 
<Piece Extent="0 15 0 15 0 0"> 
<PointData>
<DataArray type="Float32" Name="|E|" format="ascii" NumberOfComponents="3"> 
-1.69785e+06 0 0 -1.71904e+06 93929 0 -1.77786e+06 206867 0 -1.85932e+06 353466 0 -1.94309e+06 536075 0 -2.01446e+06 745398 0 -2.06779e+06 969561 0 -2.10184e+06 1.19933e+06 0 -2.1166e+06 1.42579e+06 0 -2.11122e+06 1.64014e+06 0 -2.08795e+06 1.82438e+06 0 -2.05381e+06 1.95967e+06 0 -2.02923e+06 2.01221e+06 0 -2.03912e+06 1.93895e+06 0 -2.08977e+06 1.6824e+06 0 -2.38293e+06 2.02103e+06 0 -1.68793e+06 0 0 -1.70679e+06 96190.6 0 -1.75988e+06 209560 0 -1.83414e+06 352960 0 -1.91191e+06 529000 0 -1.97969e+06 730270 0 -2.03169e+06 946351 0 -2.06626e+06 1.16855e+06 0 -2.08362e+06 1.38885e+06 0 -2.08325e+06 1.59872e+06 0 -2.06796e+06 1.785e+06 0 -2.04331e+06 1.92821e+06 0 -2.0286e+06 2.00797e+06 0 -2.0461e+06 1.97984e+06 0 -2.13256e+06 1.79626e+06 0 -2.18081e+06 1.43047e+06 0 -1.67755e+06 0 0 -1.69419e+06 98063.8 0 -1.74196e+06 211652 0 -1.80946e+06 352034 0 -1.88138e+06 521942 0 -1.94545e+06 715529 0 -1.99581e+06 923749 0 -2.03058e+06 1.13856e+06 0 -2.04991e+06 1.35262e+06 0 -2.05372e+06 1.5582e+06 0 -2.04476e+06 1.74453e+06 0 -2.02814e+06 1.89574e+06 0 -2.02025e+06 1.99373e+06 0 -2.04292e+06 2.00976e+06 0 -2.13736e+06 1.89455e+06 0 -2.28853e+06 1.52132e+06 0 -1.66672e+06 0 0 -1.68126e+06 99571.8 0 -1.72407e+06 213175 0 -1.78523e+06 350686 0 -1.85148e+06 514856 0 -1.91173e+06 701126 0 -1.96021e+06 901717 0 -1.99482e+06 1.1093e+06 0 -2.01562e+06 1.31712e+06 0 -2.0228e+06 1.51829e+06 0 -2.01893e+06 1.70373e+06 0 -2.00881e+06 1.86088e+06 0 -2.00585e+06 1.97405e+06 0 -2.03099e+06 2.02351e+06 0 -2.12101e+06 1.97155e+06 0 -2.31839e+06 1.74239e+06 0 -1.65547e+06 0 0 -1.668e+06 100738 0 -1.7062e+06 214159 0 -1.76143e+06 348915 0 -1.82218e+06 507702 0 -1.87854e+06 687009 0 -1.92491e+06 880214 0 -1.95905e+06 1.0807e+06 0 -1.98084e+06 1.28232e+06 0 -1.99068e+06 1.47889e+06 0 -1.99085e+06 1.6628e+06 0 -1.98588e+06 1.82388e+06 0 -1.98661e+06 1.94941e+06 0 -2.0119e+06 2.02463e+06 0 -2.09348e+06 2.02416e+06 0 -2.28495e+06 1.90107e+06 0 -1.64381e+06 0 0 -1.65443e+06 101582 0 -1.68833e+06 214634 0 -1.738e+06 346725 0 -1.79346e+06 500444 0 -1.84589e+06 673128 0 -1.88996e+06 859194 0 -1.92331e+06 1.05273e+06 0 -1.94567e+06 1.24817e+06 0 -1.95753e+06 1.44001e+06 0 -1.96088e+06 1.62174e+06 0 -1.95991e+06 1.78525e+06 0 -1.96336e+06 1.92018e+06 0 -1.98752e+06 2.01555e+06 0 -2.05875e+06 2.05468e+06 0 -2.22723e+06 2.01172e+06 0 -1.63178e+06 0 0 -1.64056e+06 102124 0 -1.67045e+06 214625 0 -1.7149e+06 344118 0 -1.76529e+06 493049 0 -1.81378e+06 659436 0 -1.85536e+06 838611 0 -1.88765e+06 1.02536e+06 0 -1.9102e+06 1.21465e+06 0 -1.9235e+06 1.4016e+06 0 -1.92931e+06 1.58065e+06 0 -1.93135e+06 1.74521e+06 0 -1.93679e+06 1.88712e+06 0 -1.95913e+06 1.99782e+06 0 -2.0201e+06 2.06686e+06 0 -2.15956e+06 2.08076e+06 0 -1.61938e+06 0 0 -1.6264e+06 102384 0 -1.65255e+06 214160 0 -1.69211e+06 341102 0 -1.73763e+06 485492 0 -1.78219e+06 645886 0 -1.82115e+06 818418 0 -1.85212e+06 998528 0 -1.87451e+06 1.18173e+06 0 -1.88876e+06 1.36365e+06 0 -1.89638e+06 1.53957e+06 0 -1.90064e+06 1.70408e+06 0 -1.90744e+06 1.85077e+06 0 -1.92772e+06 1.97304e+06 0 -1.97912e+06 2.06415e+06 0 -2.09222e+06 2.11742e+06 0 -1.60663e+06 0 0 -1.61196e+06 102377 0 -1.63461e+06 213262 0 -1.66958e+06 337683 0 -1.71044e+06 477747 0 -1.75113e+06 632435 0 -1.78734e+06 798568 0 -1.81677e+06 972202 0 -1.83868e+06 1.14935e+06 0 -1.85343e+06 1.32615e+06 0 -1.86232e+06 1.49855e+06 0 -1.86813e+06 1.66208e+06 0 -1.87577e+06 1.81172e+06 0 -1.89398e+06 1.94239e+06 0 -1.93682e+06 2.04964e+06 0 -2.02748e+06 2.13088e+06 0 -1.59355e+06 0 0 -1.59726e+06 102121 0 -1.61663e+06 211953 0 -1.64729e+06 333869 0 -1.68371e+06 469796 0 -1.72057e+06 619041 0 -1.75395e+06 779015 0 -1.78162e+06 946337 0 -1.80278e+06 1.1175e+06 0 -1.81764e+06 1.28909e+06 0 -1.82731e+06 1.45763e+06 0 -1.83414e+06 1.61941e+06 0 -1.84219e+06 1.77048e+06 0 -1.85838e+06 1.90692e+06 0 -1.89383e+06 2.02574e+06 0 -1.96587e+06 2.12624e+06 0 -1.58015e+06 0 0 -1.5823e+06 101631 0 -1.59859e+06 210256 0 -1.62522e+06 329670 0 -1.6574e+06 461620 0 -1.6905e+06 605665 0 -1.72099e+06 759713 0 -1.74674e+06 920890 0 -1.76687e+06 1.08614e+06 0 -1.7815e+06 1.25246e+06 0 -1.79154e+06 1.41685e+06 0 -1.79893e+06 1.57624e+06 0 -1.80702e+06 1.72746e+06 0 -1.8213e+06 1.86753e+06 0 -1.85043e+06 1.99436e+06 0 -1.90746e+06 2.10817e+06 0 -1.56645e+06 0 0 -1.5671e+06 100920 0 -1.58049e+06 208190 0 -1.60332e+06 325095 0 -1.63147e+06 453207 0 -1.66091e+06 592272 0 -1.68846e+06 740616 0 -1.71213e+06 895818 0 -1.73102e+06 1.05523e+06 0 -1.74511e+06 1.21624e+06 0 -1.75514e+06 1.37625e+06 0 -1.76272e+06 1.5327e+06 0 -1.77056e+06 1.68304e+06 0 -1.78302e+06 1.82499e+06 0 -1.8068e+06 1.95705e+06 0 -1.85168e+06 2.0798e+06 0 -1.55246e+06 0 0 -1.55166e+06 100002 0 -1.56232e+06 205776 0 -1.58159e+06 320155 0 -1.60591e+06 444545 0 -1.63177e+06 578830 0 -1.65637e+06 721681 0 -1.67785e+06 871077 0 -1.69528e+06 1.02475e+06 0 -1.70857e+06 1.18042e+06 0 -1.71828e+06 1.33586e+06 0 -1.7257e+06 1.48892e+06 0 -1.73305e+06 1.63753e+06 0 -1.74377e+06 1.77992e+06 0 -1.76302e+06 1.91502e+06 0 -1.79812e+06 2.04342e+06 0 -1.53819e+06 0 0 -1.53598e+06 98890.3 0 -1.54408e+06 203031 0 -1.56e+06 314861 0 -1.58067e+06 435626 0 -1.60308e+06 565310 0 -1.62472e+06 702867 0 -1.6439e+06 846624 0 -1.65971e+06 994650 0 -1.67196e+06 1.14498e+06 0 -1.68106e+06 1.2957e+06 0 -1.68805e+06 1.445e+06 0 -1.69471e+06 1.59119e+06 0 -1.70374e+06 1.73287e+06 0 -1.71912e+06 1.86926e+06 0 -1.74632e+06 2.00089e+06 0 -1.52366e+06 0 0 -1.52009e+06 97595.6 0 -1.52577e+06 199972 0 -1.53853e+06 309222 0 -1.55574e+06 426442 0 -1.5748e+06 551685 0 -1.59351e+06 684135 0 -1.61032e+06 822416 0 -1.62436e+06 964900 0 -1.63535e+06 1.1099e+06 0 -1.6436e+06 1.25579e+06 0 -1.64991e+06 1.40103e+06 0 -1.6557e+06 1.54423e+06 0 -1.66309e+06 1.68428e+06 0 -1.67512e+06 1.82057e+06 0 -1.6959e+06 1.95355e+06 0 -1.50888e+06 0 0 -1.50398e+06 96129.1 0 -1.50737e+06 196616 0 -1.51716e+06 303251 0 -1.53109e+06 416991 0 -1.54692e+06 537933 0 -1.56273e+06 665447 0 -1.57712e+06 798411 0 -1.58925e+06 935462 0 -1.59883e+06 1.07517e+06 0 -1.60601e+06 1.21614e+06 0 -1.61143e+06 1.35707e+06 0 -1.6162e+06 1.49682e+06 0 -1.62196e+06 1.63449e+06 0 -1.63106e+06 1.7696e+06 0 -1.64657e+06 1.90248e+06 0 </DataArray> 
</PointData> 
<Points> 
<DataArray type="Float32" NumberOfComponents="3"> 
0 0.045 0 0.00666667 0.045 0 0.0133333 0.045 0 0.02 0.045 0 0.0266667 0.045 0 0.0333333 0.045 0 0.04 0.045 0 0.0466667 0.045 0 0.0533333 0.045 0 0.06 0.045 0 0.0666667 0.045 0 0.0733333 0.045 0 0.08 0.045 0 0.0866667 0.045 0 0.0933333 0.045 0 0.1 0.045 0 0 0.0457111 0 0.00652356 0.0457415 0 0.0130471 0.0457719 0 0.0195707 0.0458022 0 0.0260942 0.0458326 0 0.0326178 0.045863 0 0.0391413 0.0458933 0 0.0456649 0.0459237 0 0.0521884 0.0459541 0 0.058712 0.0459844 0 0.0652356 0.0460148 0 0.0717591 0.0460452 0 0.0782827 0.0460756 0 0.0848062 0.0461059 0 0.0913298 0.0461363 0 0.0978533 0.0461667 0 0 0.0464222 0 0.00638044 0.046483 0 0.0127609 0.0465437 0 0.0191413 0.0466044 0 0.0255218 0.0466652 0 0.0319022 0.0467259 0 0.0382827 0.0467867 0 0.0446631 0.0468474 0 0.0510436 0.0469081 0 0.057424 0.0469689 0 0.0638044 0.0470296 0 0.0701849 0.0470904 0 0.0765653 0.0471511 0 0.0829458 0.0472119 0 0.0893262 0.0472726 0 0.0957067 0.0473333 0 0 0.0471333 0 0.00623733 0.0472244 0 0.0124747 0.0473156 0 0.018712 0.0474067 0 0.0249493 0.0474978 0 0.0311867 0.0475889 0 0.037424 0.04768 0 0.0436613 0.0477711 0 0.0498987 0.0478622 0 0.056136 0.0479533 0 0.0623733 0.0480444 0 0.0686107 0.0481356 0 0.074848 0.0482267 0 0.0810853 0.0483178 0 0.0873227 0.0484089 0 0.09356 0.0485 0 0 0.0478444 0 0.00609422 0.0479659 0 0.0121884 0.0480874 0 0.0182827 0.0482089 0 0.0243769 0.0483304 0 0.0304711 0.0484519 0 0.0365653 0.0485733 0 0.0426596 0.0486948 0 0.0487538 0.0488163 0 0.054848 0.0489378 0 0.0609422 0.0490593 0 0.0670364 0.0491807 0 0.0731307 0.0493022 0 0.0792249 0.0494237 0 0.0853191 0.0495452 0 0.0914133 0.0496667 0 0 0.0485556 0 0.00595111 0.0487074 0 0.0119022 0.0488593 0 0.0178533 0.0490111 0 0.0238044 0.049163 0 0.0297556 0.0493148 0 0.0357067 0.0494667 0 0.0416578 0.0496185 0 0.0476089 0.0497704 0 0.05356 0.0499222 0 0.0595111 0.0500741 0 0.0654622 0.0502259 0 0.0714133 0.0503778 0 0.0773644 0.0505296 0 0.0833156 0.0506815 0 0.0892667 0.0508333 0 0 0.0492667 0 0.005808 0.0494489 0 0.011616 0.0496311 0 0.017424 0.0498133 0 0.023232 0.0499956 0 0.02904 0.0501778 0 0.034848 0.05036 0 0.040656 0.0505422 0 0.046464 0.0507244 0 0.052272 0.0509067 0 0.05808 0.0510889 0 0.063888 0.0512711 0 0.069696 0.0514533 0 0.075504 0.0516356 0 0.081312 0.0518178 0 0.08712 0.052 0 0 0.0499778 0 0.00566489 0.0501904 0 0.0113298 0.050403 0 0.0169947 0.0506156 0 0.0226596 0.0508281 0 0.0283244 0.0510407 0 0.0339893 0.0512533 0 0.0396542 0.0514659 0 0.0453191 0.0516785 0 0.050984 0.0518911 0 0.0566489 0.0521037 0 0.0623138 0.0523163 0 0.0679787 0.0525289 0 0.0736436 0.0527415 0 0.0793084 0.0529541 0 0.0849733 0.0531667 0 0 0.0506889 0 0.00552178 0.0509319 0 0.0110436 0.0511748 0 0.0165653 0.0514178 0 0.0220871 0.0516607 0 0.0276089 0.0519037 0 0.0331307 0.0521467 0 0.0386524 0.0523896 0 0.0441742 0.0526326 0 0.049696 0.0528756 0 0.0552178 0.0531185 0 0.0607396 0.0533615 0 0.0662613 0.0536044 0 0.0717831 0.0538474 0 0.0773049 0.0540904 0 0.0828267 0.0543333 0 0 0.0514 0 0.00537867 0.0516733 0 0.0107573 0.0519467 0 0.016136 0.05222 0 0.0215147 0.0524933 0 0.0268933 0.0527667 0 0.032272 0.05304 0 0.0376507 0.0533133 0 0.0430293 0.0535867 0 0.048408 0.05386 0 0.0537867 0.0541333 0 0.0591653 0.0544067 0 0.064544 0.05468 0 0.0699227 0.0549533 0 0.0753013 0.0552267 0 0.08068 0.0555 0 0 0.0521111 0 0.00523556 0.0524148 0 0.0104711 0.0527185 0 0.0157067 0.0530222 0 0.0209422 0.0533259 0 0.0261778 0.0536296 0 0.0314133 0.0539333 0 0.0366489 0.054237 0 0.0418844 0.0545407 0 0.04712 0.0548444 0 0.0523556 0.0551481 0 0.0575911 0.0554519 0 0.0628267 0.0557556 0 0.0680622 0.0560593 0 0.0732978 0.056363 0 0.0785333 0.0566667 0 0 0.0528222 0 0.00509244 0.0531563 0 0.0101849 0.0534904 0 0.0152773 0.0538244 0 0.0203698 0.0541585 0 0.0254622 0.0544926 0 0.0305547 0.0548267 0 0.0356471 0.0551607 0 0.0407396 0.0554948 0 0.045832 0.0558289 0 0.0509244 0.056163 0 0.0560169 0.056497 0 0.0611093 0.0568311 0 0.0662018 0.0571652 0 0.0712942 0.0574993 0 0.0763867 0.0578333 0 0 0.0535333 0 0.00494933 0.0538978 0 0.00989867 0.0542622 0 0.014848 0.0546267 0 0.0197973 0.0549911 0 0.0247467 0.0553556 0 0.029696 0.05572 0 0.0346453 0.0560844 0 0.0395947 0.0564489 0 0.044544 0.0568133 0 0.0494933 0.0571778 0 0.0544427 0.0575422 0 0.059392 0.0579067 0 0.0643413 0.0582711 0 0.0692907 0.0586356 0 0.07424 0.059 0 0 0.0542444 0 0.00480622 0.0546393 0 0.00961244 0.0550341 0 0.0144187 0.0554289 0 0.0192249 0.0558237 0 0.0240311 0.0562185 0 0.0288373 0.0566133 0 0.0336436 0.0570081 0 0.0384498 0.057403 0 0.043256 0.0577978 0 0.0480622 0.0581926 0 0.0528684 0.0585874 0 0.0576747 0.0589822 0 0.0624809 0.059377 0 0.0672871 0.0597719 0 0.0720933 0.0601667 0 0 0.0549556 0 0.00466311 0.0553807 0 0.00932622 0.0558059 0 0.0139893 0.0562311 0 0.0186524 0.0566563 0 0.0233156 0.0570815 0 0.0279787 0.0575067 0 0.0326418 0.0579319 0 0.0373049 0.058357 0 0.041968 0.0587822 0 0.0466311 0.0592074 0 0.0512942 0.0596326 0 0.0559573 0.0600578 0 0.0606204 0.060483 0 0.0652836 0.0609081 0 0.0699467 0.0613333 0 0 0.0556667 0 0.00452 0.0561222 0 0.00904 0.0565778 0 0.01356 0.0570333 0 0.01808 0.0574889 0 0.0226 0.0579444 0 0.02712 0.0584 0 0.03164 0.0588556 0 0.03616 0.0593111 0 0.04068 0.0597667 0 0.0452 0.0602222 0 0.04972 0.0606778 0 0.05424 0.0611333 0 0.05876 0.0615889 0 0.06328 0.0620444 0 0.0678 0.0625 0 
</DataArray>
</Points> 
</Piece> 
</StructuredGrid> 
</VTKFile> 
