<?xml version="1.0"?> 
<VTKFile type="StructuredGrid" version="0.1"> 
<StructuredGrid WholeExtent="0 15 0 15 0 0"> 
<Piece Extent="0 15 0 15 0 0"> 
<PointData>
<DataArray type="Float32" Name="E" format="ascii" NumberOfComponents="3"> 
571923 6.28124e+06 0 417518 5.9595e+06 0 337595 5.68558e+06 0 281067 5.45115e+06 0 235347 5.24853e+06 0 197192 5.07302e+06 0 164046 4.92125e+06 0 134997 4.79073e+06 0 109257 4.67953e+06 0 86416.7 4.58609e+06 0 66163.8 4.50916e+06 0 48316.1 4.44772e+06 0 32770.6 4.40094e+06 0 19499.8 4.36819e+06 0 8542.48 4.34903e+06 0 0 4.34315e+06 0 692700 6.21644e+06 0 548092 5.93622e+06 0 453385 5.67282e+06 0 383023 5.4419e+06 0 326357 5.24059e+06 0 277989 5.06547e+06 0 235672 4.91373e+06 0 197920 4.78309e+06 0 163926 4.67173e+06 0 133105 4.57815e+06 0 105071 4.50113e+06 0 79550.8 4.43966e+06 0 56361 4.39295e+06 0 35392.6 4.3604e+06 0 16600.9 4.34157e+06 0 0 4.33619e+06 0 813508 6.17121e+06 0 672844 5.907e+06 0 566923 5.65418e+06 0 485002 5.42742e+06 0 417475 5.22778e+06 0 359288 5.05327e+06 0 307758 4.90166e+06 0 261339 4.77096e+06 0 219043 4.65947e+06 0 180204 4.56575e+06 0 144337 4.48862e+06 0 111088 4.42708e+06 0 80191 4.38038e+06 0 51455.1 4.34792e+06 0 24750 4.32928e+06 0 0 4.32422e+06 0 933254 6.13053e+06 0 792614 5.87504e+06 0 678605 5.63065e+06 0 586417 5.40807e+06 0 508701 5.21026e+06 0 440879 5.03647e+06 0 380235 4.88508e+06 0 325144 4.75437e+06 0 274526 4.64277e+06 0 227629 4.54891e+06 0 183886 4.47163e+06 0 142860 4.40999e+06 0 104206 4.36322e+06 0 67647.4 4.33074e+06 0 32967.9 4.31216e+06 0 0 4.30723e+06 0 1.05156e+06 6.0906e+06 0 909040 5.84124e+06 0 788523 5.60316e+06 0 687218 5.38428e+06 0 599906 5.18823e+06 0 522679 5.01519e+06 0 453004 4.86403e+06 0 389249 4.73333e+06 0 330289 4.62163e+06 0 275300 4.52762e+06 0 223643 4.45019e+06 0 174802 4.38839e+06 0 128350 4.34148e+06 0 83929.1 4.30888e+06 0 41232.8 4.29021e+06 0 0 4.28523e+06 0 1.16829e+06 6.05047e+06 0 1.02323e+06 5.80591e+06 0 897009 5.57237e+06 0 787468 5.35644e+06 0 691044 5.1619e+06 0 604627 4.98951e+06 0 525990 4.83858e+06 0 453576 4.70788e+06 0 386249 4.59608e+06 0 323136 4.50192e+06 0 263531 4.42431e+06 0 206844 4.36232e+06 0 152568 4.31519e+06 0 100259 4.28237e+06 0 49522.1 4.26347e+06 0 0 4.25825e+06 0 1.28341e+06 6.01005e+06 0 1.13594e+06 5.76927e+06 0 1.0045e+06 5.53877e+06 0 887324 5.3249e+06 0 782143 5.13145e+06 0 686693 4.95955e+06 0 599135 4.80878e+06 0 518052 4.67806e+06 0 442328 4.56616e+06 0 371058 4.47184e+06 0 303476 4.39404e+06 0 238921 4.33181e+06 0 176804 4.28441e+06 0 116597 4.25127e+06 0 57813.4 4.23199e+06 0 0 4.22635e+06 0 1.39698e+06 5.9697e+06 0 1.24775e+06 5.73159e+06 0 1.11148e+06 5.50271e+06 0 987019 5.28991e+06 0 873287 5.09705e+06 0 768878 4.9254e+06 0 672399 4.77469e+06 0 582612 4.64393e+06 0 498451 4.53191e+06 0 418987 4.43744e+06 0 343402 4.35942e+06 0 270962 4.29692e+06 0 201000 4.24919e+06 0 132900 4.21564e+06 0 66083.8 4.19586e+06 0 0 4.18962e+06 0 1.50917e+06 5.93008e+06 0 1.35923e+06 5.69323e+06 0 1.21845e+06 5.46447e+06 0 1.08684e+06 5.25168e+06 0 964602 5.05882e+06 0 851211 4.88713e+06 0 745753 4.73636e+06 0 647200 4.60551e+06 0 554545 4.49339e+06 0 466846 4.39876e+06 0 383233 4.32053e+06 0 302900 4.25774e+06 0 225100 4.20962e+06 0 149127 4.17557e+06 0 74310.4 4.15516e+06 0 0 4.14814e+06 0 1.62029e+06 5.89212e+06 0 1.47102e+06 5.65462e+06 0 1.32598e+06 5.42425e+06 0 1.18714e+06 5.21032e+06 0 1.05625e+06 5.01682e+06 0 933737 4.84479e+06 0 819177 4.69383e+06 0 711758 4.56287e+06 0 610536 4.45064e+06 0 514555 4.35588e+06 0 422891 4.27744e+06 0 334665 4.21434e+06 0 249044 4.1658e+06 0 165234 4.13117e+06 0 82469.8 4.11002e+06 0 0 4.10205e+06 0 1.73081e+06 5.85713e+06 0 1.58395e+06 5.61627e+06 0 1.43469e+06 5.38218e+06 0 1.28828e+06 5.16586e+06 0 1.1484e+06 4.97106e+06 0 1.01651e+06 4.79839e+06 0 892655 4.64713e+06 0 776230 4.51604e+06 0 666349 4.40373e+06 0 562033 4.30885e+06 0 462296 4.23023e+06 0 366184 4.16683e+06 0 272774 4.11782e+06 0 181179 4.08256e+06 0 90538.8 4.06055e+06 0 0 4.05148e+06 0 1.84151e+06 5.82694e+06 0 1.69917e+06 5.57872e+06 0 1.54535e+06 5.33828e+06 0 1.39067e+06 5.11821e+06 0 1.24125e+06 4.92148e+06 0 1.09958e+06 4.74789e+06 0 966162 4.59626e+06 0 840556 4.46505e+06 0 721905 4.3527e+06 0 609194 4.25777e+06 0 501368 4.179e+06 0 397384 4.11531e+06 0 296228 4.06583e+06 0 196919 4.02987e+06 0 98493.5 4.00691e+06 0 0 3.99659e+06 0 1.9536e+06 5.80433e+06 0 1.81829e+06 5.54249e+06 0 1.65883e+06 5.29238e+06 0 1.49475e+06 5.0672e+06 0 1.33496e+06 4.86794e+06 0 1.183e+06 4.69324e+06 0 1.03967e+06 4.5412e+06 0 904664 4.40992e+06 0 777116 4.29761e+06 0 655949 4.20271e+06 0 540020 4.12385e+06 0 428190 4.05991e+06 0 319347 4.00996e+06 0 212407 3.97327e+06 0 106310 3.94927e+06 0 0 3.93757e+06 0 2.06929e+06 5.79412e+06 0 1.94365e+06 5.50777e+06 0 1.77611e+06 5.24403e+06 0 1.6009e+06 5.01246e+06 0 1.42969e+06 4.81025e+06 0 1.26676e+06 4.63431e+06 0 1.11312e+06 4.48192e+06 0 968470 4.35067e+06 0 831887 4.23853e+06 0 702201 4.14376e+06 0 578163 4.06491e+06 0 458524 4.00077e+06 0 342066 3.95036e+06 0 227601 3.91291e+06 0 113965 3.8878e+06 0 0 3.8746e+06 0 2.19329e+06 5.80681e+06 0 2.07845e+06 5.47371e+06 0 1.8983e+06 5.19239e+06 0 1.70944e+06 4.9535e+06 0 1.52555e+06 4.74811e+06 0 1.35086e+06 4.57097e+06 0 1.18644e+06 4.41837e+06 0 1.03187e+06 4.28733e+06 0 886110 4.17553e+06 0 747847 4.08103e+06 0 615704 4.00229e+06 0 488307 3.93803e+06 0 364323 3.8872e+06 0 242455 3.84898e+06 0 121434 3.82271e+06 0 0 3.8079e+06 0 2.33866e+06 5.87163e+06 0 2.22565e+06 5.43558e+06 0 2.02696e+06 5.13625e+06 0 1.82021e+06 4.88967e+06 0 1.62274e+06 4.68112e+06 0 1.43513e+06 4.50307e+06 0 1.25956e+06 4.35047e+06 0 1.09473e+06 4.21991e+06 0 939672 4.10865e+06 0 792774 4.01463e+06 0 652545 3.93614e+06 0 517457 3.87185e+06 0 386054 3.82065e+06 0 256924 3.78167e+06 0 128693 3.7542e+06 0 0 3.73769e+06 0 </DataArray> 
</PointData> 
<Points> 
<DataArray type="Float32" NumberOfComponents="3"> 
0.273438 0.0667922 0 0.273042 0.0708727 0 0.272646 0.0749533 0 0.27225 0.0790338 0 0.271854 0.0831143 0 0.271458 0.0871948 0 0.271063 0.0912753 0 0.270667 0.0953558 0 0.270271 0.0994364 0 0.269875 0.103517 0 0.269479 0.107597 0 0.269083 0.111678 0 0.268688 0.115758 0 0.268292 0.119839 0 0.267896 0.123919 0 0.2675 0.128 0 0.275157 0.0666181 0 0.274813 0.0707103 0 0.27447 0.0748024 0 0.274126 0.0788945 0 0.273782 0.0829866 0 0.273438 0.0870788 0 0.273094 0.0911709 0 0.27275 0.095263 0 0.272407 0.0993551 0 0.272063 0.103447 0 0.271719 0.107539 0 0.271375 0.111632 0 0.271031 0.115724 0 0.270688 0.119816 0 0.270344 0.123908 0 0.27 0.128 0 0.276876 0.0664091 0 0.276584 0.0705151 0 0.276293 0.0746212 0 0.276001 0.0787273 0 0.275709 0.0828333 0 0.275417 0.0869394 0 0.275126 0.0910454 0 0.274834 0.0951515 0 0.274542 0.0992576 0 0.27425 0.103364 0 0.273959 0.10747 0 0.273667 0.111576 0 0.273375 0.115682 0 0.273083 0.119788 0 0.272792 0.123894 0 0.2725 0.128 0 0.278594 0.066165 0 0.278355 0.0702874 0 0.278115 0.0744097 0 0.277875 0.078532 0 0.277636 0.0826544 0 0.277396 0.0867767 0 0.277157 0.090899 0 0.276917 0.0950213 0 0.276677 0.0991437 0 0.276438 0.103266 0 0.276198 0.107388 0 0.275958 0.111511 0 0.275719 0.115633 0 0.275479 0.119755 0 0.27524 0.123878 0 0.275 0.128 0 0.280312 0.065886 0 0.280124 0.0700269 0 0.279937 0.0741679 0 0.27975 0.0783088 0 0.279562 0.0824497 0 0.279375 0.0865907 0 0.279187 0.0907316 0 0.279 0.0948725 0 0.278812 0.0990135 0 0.278625 0.103154 0 0.278437 0.107295 0 0.27825 0.111436 0 0.278062 0.115577 0 0.277875 0.119718 0 0.277687 0.123859 0 0.2775 0.128 0 0.282029 0.065572 0 0.281894 0.0697339 0 0.281758 0.0738958 0 0.281623 0.0780576 0 0.281488 0.0822195 0 0.281353 0.0863813 0 0.281217 0.0905432 0 0.281082 0.0947051 0 0.280947 0.0988669 0 0.280812 0.103029 0 0.280676 0.107191 0 0.280541 0.111353 0 0.280406 0.115514 0 0.280271 0.119676 0 0.280135 0.123838 0 0.28 0.128 0 0.283745 0.0652231 0 0.283662 0.0694082 0 0.283579 0.0735933 0 0.283496 0.0777784 0 0.283413 0.0819636 0 0.28333 0.0861487 0 0.283247 0.0903338 0 0.283164 0.094519 0 0.283081 0.0987041 0 0.282998 0.102889 0 0.282915 0.107074 0 0.282832 0.111259 0 0.282749 0.115445 0 0.282666 0.11963 0 0.282583 0.123815 0 0.2825 0.128 0 0.285461 0.0648391 0 0.28543 0.0690498 0 0.2854 0.0732606 0 0.285369 0.0774713 0 0.285338 0.081682 0 0.285307 0.0858927 0 0.285277 0.0901035 0 0.285246 0.0943142 0 0.285215 0.0985249 0 0.285184 0.102736 0 0.285154 0.106946 0 0.285123 0.111157 0 0.285092 0.115368 0 0.285061 0.119579 0 0.285031 0.123789 0 0.285 0.128 0 0.287176 0.0644202 0 0.287198 0.0686588 0 0.287219 0.0728975 0 0.287241 0.0771362 0 0.287263 0.0813748 0 0.287284 0.0856135 0 0.287306 0.0898521 0 0.287327 0.0940908 0 0.287349 0.0983294 0 0.28737 0.102568 0 0.287392 0.106807 0 0.287414 0.111045 0 0.287435 0.115284 0 0.287457 0.119523 0 0.287478 0.123761 0 0.2875 0.128 0 0.288891 0.0639663 0 0.288965 0.0682352 0 0.289039 0.0725041 0 0.289113 0.076773 0 0.289187 0.0810419 0 0.28926 0.0853109 0 0.289334 0.0895798 0 0.289408 0.0938487 0 0.289482 0.0981176 0 0.289556 0.102387 0 0.28963 0.106655 0 0.289704 0.110924 0 0.289778 0.115193 0 0.289852 0.119462 0 0.289926 0.123731 0 0.29 0.128 0 0.290605 0.0634774 0 0.290731 0.0677789 0 0.290857 0.0720804 0 0.290984 0.0763819 0 0.29111 0.0806834 0 0.291236 0.0849849 0 0.291363 0.0892865 0 0.291489 0.093588 0 0.291615 0.0978895 0 0.291742 0.102191 0 0.291868 0.106492 0 0.291995 0.110794 0 0.292121 0.115095 0 0.292247 0.119397 0 0.292374 0.123698 0 0.2925 0.128 0 0.292318 0.0629536 0 0.292497 0.06729 0 0.292675 0.0716264 0 0.292854 0.0759629 0 0.293033 0.0802993 0 0.293212 0.0846357 0 0.293391 0.0889721 0 0.293569 0.0933086 0 0.293748 0.097645 0 0.293927 0.101981 0 0.294106 0.106318 0 0.294285 0.110654 0 0.294464 0.114991 0 0.294642 0.119327 0 0.294821 0.123664 0 0.295 0.128 0 0.29403 0.0623947 0 0.294262 0.0667684 0 0.294493 0.0711421 0 0.294724 0.0755158 0 0.294956 0.0798895 0 0.295187 0.0842632 0 0.295418 0.0886368 0 0.29565 0.0930105 0 0.295881 0.0973842 0 0.296112 0.101758 0 0.296343 0.106132 0 0.296575 0.110505 0 0.296806 0.114879 0 0.297037 0.119253 0 0.297269 0.123626 0 0.2975 0.128 0 0.295742 0.0618009 0 0.296026 0.0662142 0 0.29631 0.0706275 0 0.296594 0.0750408 0 0.296878 0.079454 0 0.297162 0.0838673 0 0.297445 0.0882806 0 0.297729 0.0926938 0 0.298013 0.0971071 0 0.298297 0.10152 0 0.298581 0.105934 0 0.298865 0.110347 0 0.299148 0.11476 0 0.299432 0.119173 0 0.299716 0.123587 0 0.3 0.128 0 0.297454 0.0611722 0 0.29779 0.0656274 0 0.298127 0.0700825 0 0.298463 0.0745377 0 0.298799 0.0789929 0 0.299136 0.0834481 0 0.299472 0.0879033 0 0.299809 0.0923585 0 0.300145 0.0968137 0 0.300481 0.101269 0 0.300818 0.105724 0 0.301154 0.110179 0 0.301491 0.114634 0 0.301827 0.11909 0 0.302164 0.123545 0 0.3025 0.128 0 0.299164 0.0605084 0 0.299553 0.0650079 0 0.299942 0.0695073 0 0.300331 0.0740067 0 0.300721 0.0785062 0 0.30111 0.0830056 0 0.301499 0.087505 0 0.301888 0.0920045 0 0.302277 0.0965039 0 0.302666 0.101003 0 0.303055 0.105503 0 0.303444 0.110002 0 0.303833 0.114502 0 0.304222 0.119001 0 0.304611 0.123501 0 0.305 0.128 0 
</DataArray>
</Points> 
</Piece> 
</StructuredGrid> 
</VTKFile> 
