<?xml version="1.0"?> 
<VTKFile type="StructuredGrid" version="0.1"> 
<StructuredGrid WholeExtent="0 15 0 15 0 0"> 
<Piece Extent="0 15 0 15 0 0"> 
<PointData>
<DataArray type="Float32" Name="E" format="ascii" NumberOfComponents="3"> 
-537453 -1.67836e+06 0 515049 -1.27514e+06 0 860427 -917904 0 958642 -598597 0 1.00594e+06 -341534 0 983687 -134560 0 941834 35039.9 0 873933 173836 0 792714 288138 0 698404 381200 0 595020 456138 0 484153 514860 0 367737 559035 0 247321 589777 0 124290 607913 0 0 613905 0 -277140 -1.47638e+06 0 493126 -1.23543e+06 0 812808 -896827 0 937167 -591214 0 978957 -340996 0 966660 -137466 0 925437 29259.5 0 861575 166412 0 782087 279171 0 689985 371205 0 588252 445239 0 478956 503319 0 363955 546992 0 244847 577401 0 123075 595335 0 0 601260 0 -210936 -1.35317e+06 0 464432 -1.19125e+06 0 777139 -875966 0 910869 -583302 0 955459 -339802 0 948466 -140139 0 909967 23887.9 0 849064 159176 0 771723 270457 0 681616 361375 0 581578 434518 0 473818 491923 0 360214 535090 0 242404 565152 0 121871 582882 0 0 588741 0 -171107 -1.26126e+06 0 437334 -1.14666e+06 0 745004 -854980 0 884481 -574873 0 932989 -338104 0 930339 -142484 0 894849 18842.2 0 836668 152172 0 761514 261965 0 673341 351723 0 574986 423963 0 468740 480673 0 356516 523325 0 239990 553031 0 120679 570553 0 0 576343 0 -143703 -1.18608e+06 0 412633 -1.10297e+06 0 715290 -833849 0 858600 -565971 0 911245 -335964 0 912444 -144483 0 880011 14093.8 0 824426 145407 0 751449 253684 0 665168 342252 0 568476 413571 0 463723 469568 0 352862 511694 0 237605 541037 0 119502 558346 0 0 564066 0 -122817 -1.12199e+06 0 390450 -1.0607e+06 0 687492 -812630 0 833468 -556649 0 890104 -333418 0 894852 -146142 0 865431 9629.19 0 812355 138880 0 741525 245607 0 657102 332960 0 562051 403337 0 458770 458607 0 349254 500196 0 235249 529167 0 118339 546259 0 0 551907 0 -105360 -1.06521e+06 0 370659 -1.02011e+06 0 661338 -791395 0 809187 -546959 0 869515 -330496 0 877597 -147470 0 851098 5438.07 0 800465 132588 0 731742 237730 0 649145 323845 0 555712 393260 0 453882 447789 0 345692 488829 0 232924 517421 0 117191 534291 0 0 539866 0 -90357.9 -1.01386e+06 0 353002 -981320 0 636700 -770219 0 785771 -536950 0 849466 -327223 0 860691 -148482 0 837015 1512.38 0 788760 126526 0 722104 230051 0 641301 314903 0 549459 383337 0 449060 437111 0 342178 477591 0 230630 505797 0 116058 522441 0 0 527941 0 -76549.7 -966632 0 337232 -944350 0 613462 -749168 0 763228 -526669 0 829950 -323626 0 844143 -149191 0 823185 -2155.76 0 777247 120688 0 712611 222564 0 633571 306133 0 543295 373567 0 444305 426571 0 338713 466481 0 228367 494293 0 114940 510706 0 0 516130 0 -63492 -922821 0 323078 -909185 0 591550 -728302 0 741534 -516159 0 810968 -319726 0 827955 -149610 0 809611 -5574.18 0 765926 115070 0 703268 215267 0 625958 297530 0 537222 363946 0 439618 416168 0 335296 455497 0 226135 482908 0 113839 499086 0 0 504432 0 -50267.3 -882097 0 310314 -875778 0 570874 -707670 0 720676 -505459 0 792518 -315547 0 812131 -149753 0 796297 -8750.83 0 754801 109665 0 694076 208155 0 618463 289093 0 531241 354472 0 435002 405898 0 331930 444636 0 223937 471639 0 112753 487577 0 0 492845 0 -36298.8 -844435 0 298717 -844063 0 551359 -687311 0 700630 -494606 0 774597 -311112 0 796673 -149634 0 783246 -11693.9 0 743876 104468 0 685038 201225 0 611089 280817 0 525353 345143 0 430456 395760 0 328615 433897 0 221772 460486 0 111683 476180 0 0 481368 0 -20007 -810619 0 288136 -813915 0 532876 -667260 0 681405 -483631 0 757189 -306442 0 781589 -149265 0 770458 -14411 0 733153 99473.6 0 676155 194473 0 603837 272700 0 519560 335957 0 425982 385752 0 325352 423278 0 219640 449445 0 110630 464892 0 0 469998 0 1432.88 -782086 0 278528 -785151 0 515218 -647552 0 663053 -472564 0 740247 -301554 0 766899 -148662 0 757927 -16909.1 0 722640 94675.9 0 667429 187896 0 596710 264739 0 513863 326910 0 421581 375872 0 322142 412777 0 217542 438516 0 109594 453712 0 0 458735 0 34595.8 -764110 0 270127 -757277 0 497932 -628247 0 645769 -461436 0 723653 -296458 0 752661 -147846 0 745626 -19189.6 0 712350 90065.2 0 658855 181491 0 589711 256929 0 508263 318002 0 417255 366116 0 318986 402392 0 215479 427697 0 108576 442637 0 0 447576 0 158768 -776929 0 266663 -728624 0 477183 -609547 0 631659 -450289 0 706293 -291124 0 739424 -146871 0 733297 -21231.1 0 702405 85617.5 0 650388 175266 0 582861 249261 0 502756 309232 0 413005 356482 0 315885 392123 0 213450 416984 0 107576 431666 0 0 436520 0 </DataArray> 
</PointData> 
<Points> 
<DataArray type="Float32" NumberOfComponents="3"> 
0.406 0.03 0 0.406 0.0365333 0 0.406 0.0430667 0 0.406 0.0496 0 0.406 0.0561333 0 0.406 0.0626667 0 0.406 0.0692 0 0.406 0.0757333 0 0.406 0.0822667 0 0.406 0.0888 0 0.406 0.0953333 0 0.406 0.101867 0 0.406 0.1084 0 0.406 0.114933 0 0.406 0.121467 0 0.406 0.128 0 0.406667 0.03 0 0.406667 0.0365333 0 0.406667 0.0430667 0 0.406667 0.0496 0 0.406667 0.0561333 0 0.406667 0.0626667 0 0.406667 0.0692 0 0.406667 0.0757333 0 0.406667 0.0822667 0 0.406667 0.0888 0 0.406667 0.0953333 0 0.406667 0.101867 0 0.406667 0.1084 0 0.406667 0.114933 0 0.406667 0.121467 0 0.406667 0.128 0 0.407333 0.03 0 0.407333 0.0365333 0 0.407333 0.0430667 0 0.407333 0.0496 0 0.407333 0.0561333 0 0.407333 0.0626667 0 0.407333 0.0692 0 0.407333 0.0757333 0 0.407333 0.0822667 0 0.407333 0.0888 0 0.407333 0.0953333 0 0.407333 0.101867 0 0.407333 0.1084 0 0.407333 0.114933 0 0.407333 0.121467 0 0.407333 0.128 0 0.408 0.03 0 0.408 0.0365333 0 0.408 0.0430667 0 0.408 0.0496 0 0.408 0.0561333 0 0.408 0.0626667 0 0.408 0.0692 0 0.408 0.0757333 0 0.408 0.0822667 0 0.408 0.0888 0 0.408 0.0953333 0 0.408 0.101867 0 0.408 0.1084 0 0.408 0.114933 0 0.408 0.121467 0 0.408 0.128 0 0.408667 0.03 0 0.408667 0.0365333 0 0.408667 0.0430667 0 0.408667 0.0496 0 0.408667 0.0561333 0 0.408667 0.0626667 0 0.408667 0.0692 0 0.408667 0.0757333 0 0.408667 0.0822667 0 0.408667 0.0888 0 0.408667 0.0953333 0 0.408667 0.101867 0 0.408667 0.1084 0 0.408667 0.114933 0 0.408667 0.121467 0 0.408667 0.128 0 0.409333 0.03 0 0.409333 0.0365333 0 0.409333 0.0430667 0 0.409333 0.0496 0 0.409333 0.0561333 0 0.409333 0.0626667 0 0.409333 0.0692 0 0.409333 0.0757333 0 0.409333 0.0822667 0 0.409333 0.0888 0 0.409333 0.0953333 0 0.409333 0.101867 0 0.409333 0.1084 0 0.409333 0.114933 0 0.409333 0.121467 0 0.409333 0.128 0 0.41 0.03 0 0.41 0.0365333 0 0.41 0.0430667 0 0.41 0.0496 0 0.41 0.0561333 0 0.41 0.0626667 0 0.41 0.0692 0 0.41 0.0757333 0 0.41 0.0822667 0 0.41 0.0888 0 0.41 0.0953333 0 0.41 0.101867 0 0.41 0.1084 0 0.41 0.114933 0 0.41 0.121467 0 0.41 0.128 0 0.410667 0.03 0 0.410667 0.0365333 0 0.410667 0.0430667 0 0.410667 0.0496 0 0.410667 0.0561333 0 0.410667 0.0626667 0 0.410667 0.0692 0 0.410667 0.0757333 0 0.410667 0.0822667 0 0.410667 0.0888 0 0.410667 0.0953333 0 0.410667 0.101867 0 0.410667 0.1084 0 0.410667 0.114933 0 0.410667 0.121467 0 0.410667 0.128 0 0.411333 0.03 0 0.411333 0.0365333 0 0.411333 0.0430667 0 0.411333 0.0496 0 0.411333 0.0561333 0 0.411333 0.0626667 0 0.411333 0.0692 0 0.411333 0.0757333 0 0.411333 0.0822667 0 0.411333 0.0888 0 0.411333 0.0953333 0 0.411333 0.101867 0 0.411333 0.1084 0 0.411333 0.114933 0 0.411333 0.121467 0 0.411333 0.128 0 0.412 0.03 0 0.412 0.0365333 0 0.412 0.0430667 0 0.412 0.0496 0 0.412 0.0561333 0 0.412 0.0626667 0 0.412 0.0692 0 0.412 0.0757333 0 0.412 0.0822667 0 0.412 0.0888 0 0.412 0.0953333 0 0.412 0.101867 0 0.412 0.1084 0 0.412 0.114933 0 0.412 0.121467 0 0.412 0.128 0 0.412667 0.03 0 0.412667 0.0365333 0 0.412667 0.0430667 0 0.412667 0.0496 0 0.412667 0.0561333 0 0.412667 0.0626667 0 0.412667 0.0692 0 0.412667 0.0757333 0 0.412667 0.0822667 0 0.412667 0.0888 0 0.412667 0.0953333 0 0.412667 0.101867 0 0.412667 0.1084 0 0.412667 0.114933 0 0.412667 0.121467 0 0.412667 0.128 0 0.413333 0.03 0 0.413333 0.0365333 0 0.413333 0.0430667 0 0.413333 0.0496 0 0.413333 0.0561333 0 0.413333 0.0626667 0 0.413333 0.0692 0 0.413333 0.0757333 0 0.413333 0.0822667 0 0.413333 0.0888 0 0.413333 0.0953333 0 0.413333 0.101867 0 0.413333 0.1084 0 0.413333 0.114933 0 0.413333 0.121467 0 0.413333 0.128 0 0.414 0.03 0 0.414 0.0365333 0 0.414 0.0430667 0 0.414 0.0496 0 0.414 0.0561333 0 0.414 0.0626667 0 0.414 0.0692 0 0.414 0.0757333 0 0.414 0.0822667 0 0.414 0.0888 0 0.414 0.0953333 0 0.414 0.101867 0 0.414 0.1084 0 0.414 0.114933 0 0.414 0.121467 0 0.414 0.128 0 0.414667 0.03 0 0.414667 0.0365333 0 0.414667 0.0430667 0 0.414667 0.0496 0 0.414667 0.0561333 0 0.414667 0.0626667 0 0.414667 0.0692 0 0.414667 0.0757333 0 0.414667 0.0822667 0 0.414667 0.0888 0 0.414667 0.0953333 0 0.414667 0.101867 0 0.414667 0.1084 0 0.414667 0.114933 0 0.414667 0.121467 0 0.414667 0.128 0 0.415333 0.03 0 0.415333 0.0365333 0 0.415333 0.0430667 0 0.415333 0.0496 0 0.415333 0.0561333 0 0.415333 0.0626667 0 0.415333 0.0692 0 0.415333 0.0757333 0 0.415333 0.0822667 0 0.415333 0.0888 0 0.415333 0.0953333 0 0.415333 0.101867 0 0.415333 0.1084 0 0.415333 0.114933 0 0.415333 0.121467 0 0.415333 0.128 0 0.416 0.03 0 0.416 0.0365333 0 0.416 0.0430667 0 0.416 0.0496 0 0.416 0.0561333 0 0.416 0.0626667 0 0.416 0.0692 0 0.416 0.0757333 0 0.416 0.0822667 0 0.416 0.0888 0 0.416 0.0953333 0 0.416 0.101867 0 0.416 0.1084 0 0.416 0.114933 0 0.416 0.121467 0 0.416 0.128 0 
</DataArray>
</Points> 
</Piece> 
</StructuredGrid> 
</VTKFile> 
