<?xml version="1.0"?> 
<VTKFile type="StructuredGrid" version="0.1"> 
<StructuredGrid WholeExtent="0 127 0 127 0 0"> 
<Piece Extent="0 127 0 127 0 0"> 
<PointData>
<DataArray type="Float32" Name="E" format="ascii" NumberOfComponents="3"> 
-1.0004e+06 0 0 -999156 0 0 -997911 0 0 -996665 0 0 -995419 0 0 -994171 0 0 -992923 0 0 -991673 0 0 -990423 0 0 -989172 0 0 -987919 0 0 -986666 0 0 -985412 0 0 -984157 0 0 -982901 0 0 -981643 0 0 -980385 0 0 -979126 0 0 -977866 0 0 -976605 0 0 -975343 0 0 -974081 0 0 -972817 0 0 -971552 0 0 -970286 0 0 -969019 0 0 -967751 0 0 -966482 0 0 -965212 0 0 -963941 0 0 -962669 0 0 -961396 0 0 -960122 0 0 -958846 0 0 -957570 0 0 -956293 0 0 -955014 0 0 -953734 0 0 -952454 0 0 -951172 0 0 -949888 0 0 -948604 0 0 -947318 0 0 -946031 0 0 -944743 0 0 -943454 0 0 -942163 0 0 -940871 0 0 -939577 0 0 -938282 0 0 -936986 0 0 -935688 0 0 -934389 0 0 -933088 0 0 -931786 0 0 -930481 0 0 -929176 0 0 -927868 0 0 -926559 0 0 -925248 0 0 -923935 0 0 -922620 0 0 -921303 0 0 -919984 0 0 -918663 0 0 -917340 0 0 -916014 0 0 -914686 0 0 -913356 0 0 -912023 0 0 -910688 0 0 -909350 0 0 -908010 0 0 -906666 0 0 -905320 0 0 -903970 0 0 -902618 0 0 -901262 0 0 -899903 0 0 -898540 0 0 -897174 0 0 -895804 0 0 -894430 0 0 -893053 0 0 -891671 0 0 -890285 0 0 -888895 0 0 -887500 0 0 -886100 0 0 -884696 0 0 -883287 0 0 -881873 0 0 -880453 0 0 -879028 0 0 -877597 0 0 -876161 0 0 -874719 0 0 -873270 0 0 -871816 0 0 -870355 0 0 -868887 0 0 -867413 0 0 -865932 0 0 -864444 0 0 -862949 0 0 -861446 0 0 -859936 0 0 -858419 0 0 -856893 0 0 -855360 0 0 -853819 0 0 -852270 0 0 -850712 0 0 -849147 0 0 -847573 0 0 -845991 0 0 -844400 0 0 -842801 0 0 -841193 0 0 -839577 0 0 -837952 0 0 -836319 0 0 -834678 0 0 -833028 0 0 -831370 0 0 -829703 0 0 -828029 0 0 -826347 0 0 -1.0004e+06 2287.66 0 -999157 2276.28 0 -997913 2264.87 0 -996667 2253.44 0 -995420 2242 0 -994173 2230.53 0 -992924 2219.05 0 -991675 2207.55 0 -990424 2196.03 0 -989173 2184.49 0 -987921 2172.93 0 -986667 2161.36 0 -985413 2149.77 0 -984158 2138.16 0 -982902 2126.54 0 -981645 2114.9 0 -980387 2103.24 0 -979128 2091.57 0 -977868 2079.89 0 -976607 2068.19 0 -975345 2056.48 0 -974082 2044.75 0 -972818 2033.01 0 -971553 2021.26 0 -970287 2009.5 0 -969020 1997.72 0 -967752 1985.94 0 -966483 1974.15 0 -965213 1962.35 0 -963942 1950.54 0 -962670 1938.72 0 -961397 1926.9 0 -960123 1915.08 0 -958848 1903.24 0 -957571 1891.41 0 -956294 1879.57 0 -955015 1867.73 0 -953736 1855.89 0 -952455 1844.05 0 -951173 1832.2 0 -949890 1820.37 0 -948605 1808.53 0 -947320 1796.7 0 -946033 1784.87 0 -944744 1773.05 0 -943455 1761.24 0 -942164 1749.44 0 -940872 1737.64 0 -939579 1725.86 0 -938284 1714.09 0 -936987 1702.34 0 -935690 1690.59 0 -934390 1678.87 0 -933089 1667.16 0 -931787 1655.47 0 -930483 1643.8 0 -929177 1632.16 0 -927870 1620.53 0 -926560 1608.93 0 -925249 1597.36 0 -923936 1585.81 0 -922621 1574.29 0 -921304 1562.8 0 -919986 1551.34 0 -918664 1539.91 0 -917341 1528.52 0 -916016 1517.16 0 -914688 1505.84 0 -913358 1494.56 0 -912025 1483.31 0 -910690 1472.1 0 -909352 1460.94 0 -908011 1449.81 0 -906668 1438.73 0 -905321 1427.69 0 -903972 1416.69 0 -902620 1405.74 0 -901264 1394.84 0 -899905 1383.98 0 -898542 1373.16 0 -897176 1362.39 0 -895806 1351.66 0 -894432 1340.98 0 -893055 1330.34 0 -891673 1319.75 0 -890287 1309.2 0 -888897 1298.69 0 -887502 1288.22 0 -886102 1277.78 0 -884698 1267.38 0 -883289 1257.02 0 -881875 1246.68 0 -880455 1236.38 0 -879030 1226.09 0 -877599 1215.83 0 -876163 1205.58 0 -874721 1195.34 0 -873272 1185.11 0 -871818 1174.88 0 -870357 1164.65 0 -868889 1154.4 0 -867415 1144.14 0 -865934 1133.86 0 -864446 1123.54 0 -862951 1113.18 0 -861448 1102.77 0 -859938 1092.31 0 -858421 1081.79 0 -856895 1071.19 0 -855362 1060.51 0 -853821 1049.74 0 -852272 1038.86 0 -850714 1027.88 0 -849149 1016.77 0 -847575 1005.53 0 -845992 994.146 0 -844401 982.612 0 -842802 970.917 0 -841194 959.05 0 -839578 947.001 0 -837954 934.762 0 -836320 922.324 0 -834679 909.677 0 -833029 896.814 0 -831371 883.728 0 -829705 870.41 0 -828030 856.855 0 -826348 843.057 0 -1.00041e+06 4575.33 0 -999162 4552.55 0 -997917 4529.74 0 -996672 4506.88 0 -995425 4483.99 0 -994177 4461.06 0 -992929 4438.1 0 -991679 4415.09 0 -990429 4392.05 0 -989177 4368.97 0 -987925 4345.86 0 -986672 4322.71 0 -985417 4299.53 0 -984162 4276.31 0 -982906 4253.07 0 -981649 4229.79 0 -980391 4206.47 0 -979132 4183.13 0 -977872 4159.76 0 -976611 4136.36 0 -975349 4112.93 0 -974086 4089.48 0 -972822 4066 0 -971557 4042.49 0 -970291 4018.97 0 -969024 3995.42 0 -967756 3971.85 0 -966487 3948.27 0 -965217 3924.66 0 -963946 3901.04 0 -962674 3877.41 0 -961401 3853.77 0 -960127 3830.11 0 -958851 3806.44 0 -957575 3782.77 0 -956298 3759.09 0 -955019 3735.41 0 -953739 3711.72 0 -952458 3688.04 0 -951176 3664.35 0 -949893 3640.68 0 -948609 3617 0 -947323 3593.34 0 -946036 3569.68 0 -944748 3546.04 0 -943459 3522.42 0 -942168 3498.81 0 -940876 3475.22 0 -939582 3451.65 0 -938288 3428.11 0 -936991 3404.59 0 -935693 3381.11 0 -934394 3357.65 0 -933093 3334.24 0 -931791 3310.86 0 -930487 3287.52 0 -929181 3264.22 0 -927874 3240.97 0 -926564 3217.76 0 -925253 3194.61 0 -923940 3171.52 0 -922626 3148.47 0 -921309 3125.49 0 -919990 3102.57 0 -918669 3079.72 0 -917346 3056.93 0 -916020 3034.21 0 -914693 3011.57 0 -913362 2989 0 -912030 2966.5 0 -910695 2944.09 0 -909357 2921.75 0 -908016 2899.5 0 -906673 2877.34 0 -905327 2855.26 0 -903977 2833.27 0 -902625 2811.36 0 -901269 2789.55 0 -899910 2767.83 0 -898548 2746.2 0 -897181 2724.66 0 -895812 2703.2 0 -894438 2681.84 0 -893060 2660.57 0 -891679 2639.38 0 -890293 2618.28 0 -888903 2597.26 0 -887508 2576.32 0 -886108 2555.45 0 -884704 2534.66 0 -883295 2513.93 0 -881881 2493.26 0 -880461 2472.65 0 -879036 2452.08 0 -877606 2431.56 0 -876169 2411.07 0 -874727 2390.6 0 -873279 2370.14 0 -871824 2349.68 0 -870363 2329.22 0 -868896 2308.73 0 -867421 2288.21 0 -865940 2267.64 0 -864452 2247.01 0 -862957 2226.3 0 -861454 2205.49 0 -859944 2184.58 0 -858426 2163.53 0 -856901 2142.34 0 -855368 2120.98 0 -853826 2099.44 0 -852277 2077.7 0 -850720 2055.73 0 -849154 2033.52 0 -847580 2011.04 0 -845997 1988.28 0 -844406 1965.22 0 -842807 1941.83 0 -841199 1918.1 0 -839583 1894.01 0 -837958 1869.53 0 -836324 1844.66 0 -834683 1819.37 0 -833033 1793.64 0 -831374 1767.47 0 -829708 1740.84 0 -828033 1713.73 0 -826351 1686.13 0 -1.00041e+06 6862.98 0 -999170 6828.82 0 -997925 6794.6 0 -996679 6760.32 0 -995433 6725.98 0 -994185 6691.58 0 -992936 6657.13 0 -991687 6622.62 0 -990436 6588.06 0 -989185 6553.44 0 -987932 6518.77 0 -986679 6484.05 0 -985424 6449.27 0 -984169 6414.45 0 -982913 6379.57 0 -981656 6344.64 0 -980398 6309.67 0 -979138 6274.66 0 -977878 6239.59 0 -976617 6204.49 0 -975355 6169.34 0 -974092 6134.16 0 -972828 6098.94 0 -971563 6063.68 0 -970297 6028.38 0 -969030 5993.06 0 -967762 5957.7 0 -966493 5922.32 0 -965223 5886.91 0 -963952 5851.48 0 -962680 5816.02 0 -961407 5780.55 0 -960133 5745.06 0 -958857 5709.56 0 -957581 5674.04 0 -956304 5638.52 0 -955025 5602.99 0 -953745 5567.46 0 -952464 5531.92 0 -951182 5496.39 0 -949899 5460.87 0 -948615 5425.36 0 -947329 5389.85 0 -946042 5354.37 0 -944754 5318.9 0 -943465 5283.45 0 -942174 5248.03 0 -940882 5212.64 0 -939589 5177.29 0 -938294 5141.97 0 -936998 5106.69 0 -935700 5071.46 0 -934401 5036.27 0 -933100 5001.14 0 -931797 4966.06 0 -930493 4931.05 0 -929188 4896.1 0 -927880 4861.21 0 -926571 4826.41 0 -925260 4791.67 0 -923947 4757.02 0 -922633 4722.46 0 -921316 4687.98 0 -919997 4653.59 0 -918676 4619.31 0 -917353 4585.12 0 -916028 4551.04 0 -914700 4517.07 0 -913370 4483.21 0 -912038 4449.46 0 -910703 4415.84 0 -909365 4382.34 0 -908025 4348.96 0 -906681 4315.71 0 -905335 4282.59 0 -903986 4249.6 0 -902634 4216.74 0 -901278 4184.02 0 -899919 4151.44 0 -898557 4118.99 0 -897191 4086.68 0 -895821 4054.5 0 -894447 4022.46 0 -893070 3990.55 0 -891688 3958.77 0 -890303 3927.12 0 -888912 3895.6 0 -887518 3864.19 0 -886118 3832.89 0 -884714 3801.71 0 -883305 3770.62 0 -881891 3739.63 0 -880471 3708.71 0 -879046 3677.87 0 -877616 3647.09 0 -876180 3616.36 0 -874737 3585.66 0 -873289 3554.99 0 -871834 3524.31 0 -870374 3493.62 0 -868906 3462.91 0 -867432 3432.14 0 -865951 3401.29 0 -864462 3370.35 0 -862967 3339.3 0 -861464 3308.1 0 -859954 3276.74 0 -858436 3245.19 0 -856911 3213.41 0 -855377 3181.39 0 -853836 3149.08 0 -852286 3116.48 0 -850729 3083.54 0 -849163 3050.23 0 -847588 3016.53 0 -846005 2982.4 0 -844414 2947.81 0 -842815 2912.74 0 -841207 2877.15 0 -839590 2841.02 0 -837965 2804.31 0 -836331 2767.01 0 -834689 2729.08 0 -833039 2690.5 0 -831380 2651.25 0 -829713 2611.3 0 -828039 2570.64 0 -826356 2529.25 0 -1.00043e+06 9150.64 0 -999181 9105.09 0 -997936 9059.45 0 -996690 9013.74 0 -995443 8967.96 0 -994196 8922.1 0 -992947 8876.16 0 -991697 8830.14 0 -990446 8784.05 0 -989195 8737.89 0 -987942 8691.66 0 -986689 8645.36 0 -985434 8598.98 0 -984179 8552.54 0 -982923 8506.04 0 -981665 8459.46 0 -980407 8412.83 0 -979148 8366.13 0 -977888 8319.38 0 -976626 8272.57 0 -975364 8225.7 0 -974101 8178.78 0 -972837 8131.81 0 -971572 8084.79 0 -970306 8037.72 0 -969039 7990.62 0 -967771 7943.47 0 -966502 7896.28 0 -965232 7849.06 0 -963961 7801.81 0 -962689 7754.53 0 -961415 7707.22 0 -960141 7659.89 0 -958866 7612.55 0 -957589 7565.18 0 -956312 7517.81 0 -955033 7470.43 0 -953754 7423.04 0 -952473 7375.65 0 -951191 7328.27 0 -949908 7280.89 0 -948623 7233.53 0 -947338 7186.18 0 -946051 7138.86 0 -944763 7091.56 0 -943473 7044.29 0 -942183 6997.05 0 -940891 6949.86 0 -939597 6902.7 0 -938303 6855.6 0 -937006 6808.55 0 -935709 6761.56 0 -934410 6714.64 0 -933109 6667.79 0 -931807 6621.01 0 -930503 6574.31 0 -929197 6527.7 0 -927890 6481.18 0 -926581 6434.76 0 -925270 6388.44 0 -923957 6342.23 0 -922643 6296.13 0 -921326 6250.15 0 -920007 6204.3 0 -918687 6158.57 0 -917364 6112.98 0 -916039 6067.54 0 -914711 6022.23 0 -913381 5977.08 0 -912049 5932.08 0 -910714 5887.24 0 -909376 5842.56 0 -908036 5798.05 0 -906693 5753.72 0 -905347 5709.55 0 -903998 5665.56 0 -902646 5621.75 0 -901290 5578.12 0 -899932 5534.68 0 -898569 5491.41 0 -897203 5448.33 0 -895834 5405.43 0 -894461 5362.71 0 -893083 5320.17 0 -891702 5277.81 0 -890316 5235.61 0 -888926 5193.58 0 -887532 5151.71 0 -886132 5109.99 0 -884728 5068.42 0 -883319 5026.98 0 -881905 4985.67 0 -880486 4944.46 0 -879061 4903.35 0 -877630 4862.33 0 -876194 4821.37 0 -874752 4780.45 0 -873304 4739.57 0 -871849 4698.69 0 -870388 4657.79 0 -868920 4616.85 0 -867446 4575.84 0 -865965 4534.74 0 -864477 4493.51 0 -862981 4452.12 0 -861478 4410.55 0 -859968 4368.75 0 -858450 4326.7 0 -856924 4284.35 0 -855390 4241.68 0 -853849 4198.63 0 -852299 4155.18 0 -850741 4111.28 0 -849175 4066.89 0 -847600 4021.97 0 -846017 3976.48 0 -844426 3930.38 0 -842826 3883.64 0 -841217 3836.2 0 -839600 3788.04 0 -837974 3739.12 0 -836340 3689.39 0 -834698 3638.83 0 -833047 3587.4 0 -831388 3535.08 0 -829721 3481.82 0 -828046 3427.62 0 -826363 3372.44 0 -1.00044e+06 11438.3 0 -999195 11381.3 0 -997950 11324.3 0 -996704 11267.2 0 -995457 11209.9 0 -994209 11152.6 0 -992960 11095.2 0 -991710 11037.6 0 -990460 10980 0 -989208 10922.3 0 -987955 10864.5 0 -986701 10806.6 0 -985447 10748.7 0 -984191 10690.6 0 -982935 10632.5 0 -981677 10574.2 0 -980419 10515.9 0 -979160 10457.6 0 -977899 10399.1 0 -976638 10340.6 0 -975376 10282 0 -974113 10223.3 0 -972849 10164.6 0 -971584 10105.8 0 -970317 10047 0 -969050 9988.06 0 -967782 9929.11 0 -966513 9870.12 0 -965243 9811.08 0 -963972 9752 0 -962700 9692.89 0 -961426 9633.74 0 -960152 9574.56 0 -958877 9515.36 0 -957600 9456.15 0 -956323 9396.91 0 -955044 9337.67 0 -953765 9278.42 0 -952484 9219.17 0 -951202 9159.93 0 -949919 9100.69 0 -948634 9041.47 0 -947349 8982.27 0 -946062 8923.1 0 -944774 8863.96 0 -943484 8804.85 0 -942194 8745.79 0 -940902 8686.78 0 -939609 8627.82 0 -938314 8568.93 0 -937018 8510.1 0 -935720 8451.35 0 -934421 8392.68 0 -933121 8334.09 0 -931818 8275.6 0 -930515 8217.21 0 -929209 8158.93 0 -927902 8100.77 0 -926593 8042.73 0 -925282 7984.81 0 -923970 7927.03 0 -922655 7869.4 0 -921339 7811.91 0 -920020 7754.58 0 -918700 7697.41 0 -917377 7640.41 0 -916052 7583.59 0 -914725 7526.95 0 -913395 7470.49 0 -912063 7414.23 0 -910728 7358.17 0 -909391 7302.32 0 -908051 7246.68 0 -906708 7191.25 0 -905362 7136.03 0 -904013 7081.04 0 -902661 7026.28 0 -901306 6971.74 0 -899948 6917.43 0 -898586 6863.35 0 -897220 6809.5 0 -895851 6755.88 0 -894477 6702.48 0 -893100 6649.31 0 -891719 6596.36 0 -890334 6543.62 0 -888944 6491.1 0 -887549 6438.77 0 -886150 6386.64 0 -884746 6334.69 0 -883338 6282.9 0 -881923 6231.28 0 -880504 6179.79 0 -879079 6128.43 0 -877649 6077.17 0 -876213 6025.99 0 -874771 5974.87 0 -873322 5923.79 0 -871868 5872.72 0 -870407 5821.63 0 -868939 5770.48 0 -867465 5719.26 0 -865983 5667.91 0 -864495 5616.41 0 -862999 5564.71 0 -861496 5512.77 0 -859986 5460.56 0 -858468 5408.03 0 -856942 5355.13 0 -855408 5301.82 0 -853866 5248.05 0 -852316 5193.77 0 -850757 5138.92 0 -849191 5083.47 0 -847616 5027.35 0 -846032 4970.52 0 -844440 4912.93 0 -842840 4854.53 0 -841231 4795.26 0 -839613 4735.08 0 -837987 4673.95 0 -836352 4611.81 0 -834710 4548.63 0 -833058 4484.36 0 -831399 4418.97 0 -829731 4352.42 0 -828055 4284.67 0 -826371 4215.71 0 -1.00046e+06 13725.9 0 -999213 13657.6 0 -997967 13589.1 0 -996721 13520.6 0 -995474 13451.9 0 -994226 13383.1 0 -992977 13314.2 0 -991727 13245.1 0 -990476 13176 0 -989224 13106.7 0 -987971 13037.3 0 -986717 12967.9 0 -985462 12898.3 0 -984207 12828.6 0 -982950 12758.8 0 -981692 12688.9 0 -980434 12619 0 -979174 12548.9 0 -977914 12478.7 0 -976653 12408.5 0 -975390 12338.2 0 -974127 12267.7 0 -972863 12197.3 0 -971597 12126.7 0 -970331 12056.1 0 -969064 11985.4 0 -967796 11914.6 0 -966527 11843.8 0 -965256 11772.9 0 -963985 11702 0 -962713 11631.1 0 -961440 11560.1 0 -960165 11489 0 -958890 11418 0 -957614 11346.9 0 -956336 11275.8 0 -955057 11204.7 0 -953778 11133.6 0 -952497 11062.4 0 -951215 10991.3 0 -949932 10920.2 0 -948647 10849.1 0 -947362 10778.1 0 -946075 10707 0 -944787 10636 0 -943498 10565.1 0 -942207 10494.2 0 -940915 10423.3 0 -939622 10352.6 0 -938328 10281.9 0 -937032 10211.3 0 -935734 10140.7 0 -934435 10070.3 0 -933135 9999.97 0 -931833 9929.76 0 -930529 9859.67 0 -929224 9789.71 0 -927917 9719.89 0 -926608 9650.22 0 -925298 9580.7 0 -923985 9511.34 0 -922671 9442.15 0 -921355 9373.15 0 -920036 9304.33 0 -918716 9235.71 0 -917393 9167.29 0 -916069 9099.08 0 -914742 9031.1 0 -913412 8963.34 0 -912080 8895.81 0 -910746 8828.53 0 -909409 8761.49 0 -908069 8694.7 0 -906726 8628.18 0 -905381 8561.91 0 -904032 8495.92 0 -902680 8430.19 0 -901325 8364.74 0 -899967 8299.57 0 -898605 8234.67 0 -897240 8170.05 0 -895871 8105.71 0 -894498 8041.64 0 -893121 7977.84 0 -891740 7914.31 0 -890355 7851.04 0 -888965 7788.02 0 -887571 7725.25 0 -886172 7662.71 0 -884768 7600.39 0 -883360 7538.27 0 -881946 7476.35 0 -880527 7414.59 0 -879102 7352.99 0 -877672 7291.51 0 -876236 7230.13 0 -874793 7168.83 0 -873345 7107.57 0 -871891 7046.33 0 -870430 6985.06 0 -868962 6923.73 0 -867487 6862.3 0 -866006 6800.74 0 -864517 6738.98 0 -863022 6676.99 0 -861518 6614.72 0 -860008 6552.12 0 -858489 6489.14 0 -856963 6425.71 0 -855428 6361.79 0 -853886 6297.31 0 -852336 6232.22 0 -850777 6166.45 0 -849210 6099.95 0 -847634 6032.66 0 -846050 5964.51 0 -844458 5895.44 0 -842857 5825.4 0 -841247 5754.32 0 -839629 5682.14 0 -838002 5608.81 0 -836367 5534.28 0 -834724 5458.49 0 -833072 5381.39 0 -831411 5302.94 0 -829743 5223.1 0 -828066 5141.82 0 -826382 5059.08 0 -1.00048e+06 16013.6 0 -999233 15933.9 0 -997988 15854 0 -996741 15774 0 -995494 15693.8 0 -994245 15613.6 0 -992996 15533.1 0 -991746 15452.6 0 -990495 15371.9 0 -989242 15291.1 0 -987989 15210.1 0 -986735 15129.1 0 -985480 15047.9 0 -984225 14966.6 0 -982968 14885.1 0 -981710 14803.6 0 -980451 14721.9 0 -979192 14640.2 0 -977931 14558.3 0 -976670 14476.3 0 -975407 14394.2 0 -974144 14312.1 0 -972879 14229.8 0 -971614 14147.5 0 -970348 14065 0 -969080 13982.5 0 -967812 13900 0 -966543 13817.3 0 -965272 13734.6 0 -964001 13651.8 0 -962729 13569 0 -961455 13486.2 0 -960181 13403.3 0 -958906 13320.3 0 -957629 13237.4 0 -956352 13154.4 0 -955073 13071.4 0 -953793 12988.4 0 -952512 12905.4 0 -951230 12822.4 0 -949947 12739.4 0 -948663 12656.4 0 -947378 12573.5 0 -946091 12490.6 0 -944803 12407.7 0 -943514 12324.9 0 -942223 12242.2 0 -940931 12159.5 0 -939638 12076.9 0 -938344 11994.4 0 -937048 11911.9 0 -935751 11829.6 0 -934452 11747.4 0 -933151 11665.4 0 -931850 11583.4 0 -930546 11501.6 0 -929241 11419.9 0 -927934 11338.5 0 -926626 11257.1 0 -925315 11176 0 -924003 11095 0 -922689 11014.3 0 -921373 10933.8 0 -920055 10853.5 0 -918735 10773.4 0 -917413 10693.5 0 -916088 10613.9 0 -914761 10534.6 0 -913432 10455.5 0 -912101 10376.7 0 -910766 10298.2 0 -909430 10220 0 -908090 10142 0 -906748 10064.4 0 -905403 9987.07 0 -904054 9910.06 0 -902703 9833.38 0 -901348 9757.01 0 -899990 9680.97 0 -898629 9605.26 0 -897264 9529.87 0 -895895 9454.81 0 -894522 9380.07 0 -893146 9305.65 0 -891765 9231.55 0 -890380 9157.75 0 -888991 9084.25 0 -887597 9011.03 0 -886198 8938.1 0 -884795 8865.42 0 -883386 8792.98 0 -881972 8720.77 0 -880553 8648.76 0 -879129 8576.93 0 -877698 8505.26 0 -876262 8433.7 0 -874820 8362.23 0 -873372 8290.82 0 -871918 8219.42 0 -870457 8148 0 -868989 8076.51 0 -867514 8004.91 0 -866033 7933.15 0 -864544 7861.17 0 -863048 7788.92 0 -861544 7716.34 0 -860033 7643.37 0 -858515 7569.96 0 -856988 7496.03 0 -855453 7421.53 0 -853910 7346.37 0 -852359 7270.5 0 -850800 7193.84 0 -849233 7116.33 0 -847657 7037.88 0 -846072 6958.44 0 -844479 6877.92 0 -842877 6796.25 0 -841267 6713.38 0 -839648 6629.22 0 -838021 6543.72 0 -836385 6456.81 0 -834740 6368.42 0 -833087 6278.51 0 -831426 6187.02 0 -829757 6093.9 0 -828080 5999.1 0 -826395 5902.58 0 -1.0005e+06 18301.2 0 -999257 18210.1 0 -998011 18118.8 0 -996764 18027.4 0 -995517 17935.8 0 -994268 17844 0 -993018 17752.1 0 -991768 17660 0 -990517 17567.8 0 -989264 17475.4 0 -988011 17382.9 0 -986757 17290.2 0 -985501 17197.4 0 -984245 17104.5 0 -982988 17011.4 0 -981730 16918.1 0 -980471 16824.8 0 -979212 16731.3 0 -977951 16637.7 0 -976689 16544 0 -975426 16450.2 0 -974163 16356.2 0 -972898 16262.2 0 -971633 16168.1 0 -970366 16073.8 0 -969099 15979.5 0 -967830 15885.1 0 -966561 15790.6 0 -965291 15696.1 0 -964019 15601.4 0 -962747 15506.8 0 -961473 15412 0 -960199 15317.2 0 -958924 15222.4 0 -957647 15127.6 0 -956369 15032.7 0 -955091 14937.8 0 -953811 14842.9 0 -952530 14748 0 -951248 14653.1 0 -949965 14558.2 0 -948681 14463.3 0 -947395 14368.5 0 -946109 14273.7 0 -944821 14179 0 -943532 14084.3 0 -942241 13989.7 0 -940950 13895.1 0 -939657 13800.7 0 -938362 13706.3 0 -937067 13612.1 0 -935769 13518 0 -934471 13424 0 -933171 13330.1 0 -931869 13236.4 0 -930566 13142.9 0 -929261 13049.5 0 -927954 12956.4 0 -926646 12863.4 0 -925336 12770.6 0 -924024 12678.1 0 -922710 12585.7 0 -921394 12493.7 0 -920077 12401.8 0 -918757 12310.3 0 -917435 12219 0 -916111 12128 0 -914784 12037.3 0 -913455 11946.9 0 -912124 11856.8 0 -910790 11767 0 -909454 11677.6 0 -908115 11588.5 0 -906773 11499.8 0 -905428 11411.4 0 -904080 11323.4 0 -902729 11235.7 0 -901374 11148.4 0 -900017 11061.5 0 -898656 10975 0 -897291 10888.8 0 -895923 10803.1 0 -894550 10717.7 0 -893174 10632.6 0 -891794 10547.9 0 -890409 10463.6 0 -889020 10379.6 0 -887626 10296 0 -886228 10212.7 0 -884825 10129.7 0 -883416 10046.9 0 -882003 9964.44 0 -880584 9882.19 0 -879160 9800.16 0 -877729 9718.3 0 -876293 9636.59 0 -874852 9554.98 0 -873403 9473.43 0 -871949 9391.91 0 -870488 9310.37 0 -869020 9228.75 0 -867545 9147 0 -866063 9065.07 0 -864575 8982.9 0 -863078 8900.42 0 -861575 8817.56 0 -860063 8734.27 0 -858544 8650.46 0 -857017 8566.07 0 -855482 8481.01 0 -853939 8395.21 0 -852387 8308.59 0 -850827 8221.07 0 -849259 8132.57 0 -847682 8043 0 -846097 7952.29 0 -844503 7860.34 0 -842901 7767.09 0 -841290 7672.44 0 -839670 7576.33 0 -838042 7478.67 0 -836405 7379.4 0 -834759 7278.44 0 -833106 7175.73 0 -831444 7071.21 0 -829774 6964.82 0 -828095 6856.51 0 -826409 6746.23 0 -1.00053e+06 20588.9 0 -999284 20486.4 0 -998038 20383.7 0 -996791 20280.8 0 -995543 20177.7 0 -994294 20074.5 0 -993044 19971 0 -991793 19867.4 0 -990541 19763.7 0 -989289 19659.7 0 -988035 19555.6 0 -986781 19451.3 0 -985525 19346.9 0 -984269 19242.3 0 -983011 19137.5 0 -981753 19032.6 0 -980494 18927.6 0 -979234 18822.4 0 -977973 18717 0 -976711 18611.6 0 -975448 18506 0 -974185 18400.3 0 -972920 18294.4 0 -971654 18188.5 0 -970387 18082.4 0 -969120 17976.3 0 -967851 17870 0 -966582 17763.7 0 -965311 17657.3 0 -964040 17550.8 0 -962767 17444.2 0 -961494 17337.6 0 -960219 17230.9 0 -958944 17124.2 0 -957667 17017.4 0 -956390 16910.6 0 -955111 16803.8 0 -953831 16697 0 -952550 16590.2 0 -951268 16483.4 0 -949985 16376.6 0 -948701 16269.8 0 -947416 16163 0 -946129 16056.4 0 -944841 15949.7 0 -943552 15843.1 0 -942262 15736.6 0 -940970 15630.2 0 -939678 15523.9 0 -938383 15417.7 0 -937088 15311.6 0 -935791 15205.7 0 -934492 15099.9 0 -933192 14994.3 0 -931891 14888.8 0 -930588 14783.5 0 -929283 14678.4 0 -927977 14573.6 0 -926669 14468.9 0 -925359 14364.5 0 -924047 14260.3 0 -922734 14156.4 0 -921418 14052.7 0 -920101 13949.4 0 -918781 13846.3 0 -917460 13743.6 0 -916136 13641.2 0 -914810 13539.1 0 -913481 13437.3 0 -912150 13336 0 -910817 13234.9 0 -909481 13134.3 0 -908142 13034 0 -906801 12934.2 0 -905456 12834.7 0 -904109 12735.7 0 -902758 12637.1 0 -901404 12538.9 0 -900047 12441.1 0 -898686 12343.7 0 -897322 12246.8 0 -895954 12150.3 0 -894582 12054.3 0 -893206 11958.6 0 -891826 11863.4 0 -890442 11768.5 0 -889053 11674.1 0 -887660 11580 0 -886262 11486.3 0 -884859 11393 0 -883451 11300 0 -882037 11207.2 0 -880619 11114.8 0 -879194 11022.6 0 -877764 10930.5 0 -876329 10838.7 0 -874887 10747 0 -873439 10655.3 0 -871984 10563.7 0 -870523 10472.1 0 -869055 10380.4 0 -867580 10288.5 0 -866098 10196.4 0 -864609 10104.1 0 -863113 10011.4 0 -861609 9918.34 0 -860097 9824.75 0 -858577 9730.58 0 -857050 9635.76 0 -855514 9540.19 0 -853970 9443.78 0 -852418 9346.45 0 -850858 9248.11 0 -849289 9148.65 0 -847711 9048 0 -846125 8946.05 0 -844531 8842.71 0 -842927 8737.89 0 -841315 8631.51 0 -839695 8523.46 0 -838065 8413.68 0 -836428 8302.07 0 -834781 8188.56 0 -833127 8073.07 0 -831464 7955.53 0 -829792 7835.89 0 -828113 7714.08 0 -826426 7590.05 0 -1.00056e+06 22876.6 0 -999314 22762.7 0 -998067 22648.5 0 -996820 22534.2 0 -995572 22419.7 0 -994322 22304.9 0 -993072 22190 0 -991821 22074.9 0 -990569 21959.5 0 -989316 21844 0 -988062 21728.3 0 -986807 21612.4 0 -985551 21496.3 0 -984295 21380.1 0 -983037 21263.6 0 -981779 21147 0 -980519 21030.3 0 -979259 20913.3 0 -977998 20796.3 0 -976736 20679 0 -975473 20561.6 0 -974209 20444.1 0 -972944 20326.5 0 -971678 20208.7 0 -970411 20090.8 0 -969143 19972.8 0 -967875 19854.7 0 -966605 19736.5 0 -965334 19618.2 0 -964063 19499.8 0 -962790 19381.4 0 -961516 19262.8 0 -960242 19144.2 0 -958966 19025.6 0 -957690 18906.9 0 -956412 18788.2 0 -955133 18669.5 0 -953853 18550.7 0 -952573 18431.9 0 -951291 18313.2 0 -950008 18194.5 0 -948723 18075.7 0 -947438 17957.1 0 -946152 17838.5 0 -944864 17719.9 0 -943575 17601.4 0 -942285 17483 0 -940993 17364.7 0 -939701 17246.5 0 -938407 17128.4 0 -937111 17010.5 0 -935814 16892.7 0 -934516 16775.1 0 -933216 16657.7 0 -931915 16540.4 0 -930612 16423.3 0 -929308 16306.5 0 -928002 16189.9 0 -926694 16073.6 0 -925384 15957.5 0 -924073 15841.7 0 -922760 15726.1 0 -921445 15610.9 0 -920128 15496 0 -918809 15381.4 0 -917488 15267.2 0 -916164 15153.4 0 -914838 15039.9 0 -913510 14926.8 0 -912180 14814.1 0 -910847 14701.8 0 -909511 14590 0 -908173 14478.5 0 -906832 14367.5 0 -905488 14257 0 -904141 14146.9 0 -902790 14037.3 0 -901437 13928.2 0 -900080 13819.6 0 -898720 13711.4 0 -897356 13603.7 0 -895989 13496.5 0 -894617 13389.8 0 -893242 13283.5 0 -891862 13177.7 0 -890478 13072.4 0 -889090 12967.5 0 -887697 12863 0 -886299 12759 0 -884897 12655.3 0 -883489 12552 0 -882076 12449 0 -880657 12346.4 0 -879233 12244 0 -877804 12141.9 0 -876368 12039.9 0 -874926 11938.1 0 -873478 11836.4 0 -872024 11734.7 0 -870562 11633 0 -869094 11531.3 0 -867620 11429.3 0 -866137 11327.2 0 -864648 11224.7 0 -863151 11121.9 0 -861647 11018.6 0 -860135 10914.8 0 -858615 10810.3 0 -857087 10705.1 0 -855551 10599 0 -854006 10492.1 0 -852453 10384.1 0 -850892 10274.9 0 -849322 10164.6 0 -847744 10052.9 0 -846157 9939.71 0 -844561 9825.01 0 -842957 9708.67 0 -841344 9590.57 0 -839722 9470.63 0 -838092 9348.74 0 -836453 9224.82 0 -834806 9098.78 0 -833150 8970.53 0 -831486 8840.01 0 -829813 8707.13 0 -828133 8571.83 0 -826444 8434.06 0 -1.00059e+06 25164.3 0 -999347 25039 0 -998100 24913.4 0 -996852 24787.7 0 -995604 24661.6 0 -994354 24535.4 0 -993103 24408.9 0 -991852 24282.3 0 -990599 24155.4 0 -989346 24028.3 0 -988092 23900.9 0 -986837 23773.4 0 -985581 23645.7 0 -984324 23517.8 0 -983066 23389.6 0 -981807 23261.3 0 -980547 23132.8 0 -979287 23004.2 0 -978025 22875.3 0 -976763 22746.3 0 -975499 22617.2 0 -974235 22487.8 0 -972970 22358.4 0 -971704 22228.8 0 -970437 22099 0 -969169 21969.2 0 -967900 21839.2 0 -966630 21709.1 0 -965359 21578.9 0 -964088 21448.6 0 -962815 21318.2 0 -961541 21187.7 0 -960267 21057.2 0 -958991 20926.6 0 -957714 20796 0 -956436 20665.3 0 -955158 20534.7 0 -953878 20403.9 0 -952597 20273.2 0 -951315 20142.5 0 -950032 20011.8 0 -948748 19881.2 0 -947463 19750.5 0 -946176 19620 0 -944889 19489.5 0 -943600 19359.1 0 -942310 19228.7 0 -941018 19098.5 0 -939726 18968.4 0 -938432 18838.4 0 -937137 18708.6 0 -935840 18579 0 -934542 18449.5 0 -933243 18320.2 0 -931942 18191.2 0 -930639 18062.3 0 -929335 17933.7 0 -928029 17805.4 0 -926722 17677.3 0 -925413 17549.5 0 -924102 17422 0 -922789 17294.9 0 -921474 17168.1 0 -920157 17041.6 0 -918839 16915.5 0 -917518 16789.8 0 -916195 16664.5 0 -914870 16539.6 0 -913542 16415.1 0 -912212 16291.1 0 -910880 16167.5 0 -909544 16044.4 0 -908207 15921.8 0 -906866 15799.7 0 -905522 15678.1 0 -904176 15557 0 -902826 15436.4 0 -901473 15316.3 0 -900117 15196.8 0 -898757 15077.8 0 -897394 14959.4 0 -896027 14841.4 0 -894656 14724 0 -893281 14607.2 0 -891902 14490.8 0 -890518 14375 0 -889131 14259.7 0 -887738 14144.8 0 -886341 14030.4 0 -884938 13916.5 0 -883531 13802.9 0 -882118 13689.8 0 -880700 13576.9 0 -879276 13464.4 0 -877847 13352.2 0 -876411 13240.2 0 -874970 13128.3 0 -873522 13016.6 0 -872067 12904.9 0 -870606 12793.2 0 -869138 12681.4 0 -867663 12569.4 0 -866181 12457.2 0 -864691 12344.7 0 -863194 12231.7 0 -861689 12118.3 0 -860177 12004.2 0 -858656 11889.5 0 -857128 11773.9 0 -855591 11657.5 0 -854046 11540 0 -852492 11421.4 0 -850930 11301.5 0 -849359 11180.3 0 -847780 11057.6 0 -846192 10933.3 0 -844596 10807.2 0 -842990 10679.4 0 -841376 10549.6 0 -839753 10417.8 0 -838122 10283.9 0 -836482 10147.7 0 -834833 10009.1 0 -833176 9868.14 0 -831510 9724.64 0 -829836 9578.54 0 -828155 9429.78 0 -826465 9278.28 0 -1.00063e+06 27452.1 0 -999383 27315.4 0 -998136 27178.4 0 -996888 27041.1 0 -995639 26903.6 0 -994388 26765.9 0 -993137 26627.9 0 -991886 26489.7 0 -990633 26351.2 0 -989379 26212.5 0 -988124 26073.6 0 -986869 25934.4 0 -985612 25795 0 -984355 25655.4 0 -983097 25515.6 0 -981838 25375.6 0 -980578 25235.3 0 -979317 25094.9 0 -978055 24954.3 0 -976792 24813.5 0 -975529 24672.5 0 -974264 24531.4 0 -972999 24390.1 0 -971732 24248.6 0 -970465 24107 0 -969197 23965.2 0 -967928 23823.4 0 -966658 23681.3 0 -965387 23539.2 0 -964115 23397 0 -962842 23254.7 0 -961568 23112.3 0 -960294 22969.8 0 -959018 22827.3 0 -957741 22684.7 0 -956463 22542 0 -955184 22399.4 0 -953905 22256.7 0 -952624 22114 0 -951342 21971.3 0 -950059 21828.6 0 -948775 21686 0 -947489 21543.4 0 -946203 21400.9 0 -944916 21258.4 0 -943627 21116 0 -942337 20973.7 0 -941046 20831.6 0 -939753 20689.5 0 -938460 20547.7 0 -937165 20405.9 0 -935868 20264.4 0 -934570 20123 0 -933271 19981.9 0 -931970 19841 0 -930668 19700.4 0 -929364 19560 0 -928059 19419.8 0 -926752 19280 0 -925443 19140.5 0 -924133 19001.4 0 -922820 18862.6 0 -921506 18724.1 0 -920190 18586.1 0 -918871 18448.4 0 -917551 18311.2 0 -916229 18174.4 0 -914904 18038.1 0 -913577 17902.2 0 -912247 17766.9 0 -910915 17632 0 -909581 17497.7 0 -908243 17363.8 0 -906903 17230.6 0 -905560 17097.8 0 -904214 16965.7 0 -902865 16834.1 0 -901513 16703.1 0 -900157 16572.7 0 -898798 16442.9 0 -897435 16313.7 0 -896069 16185 0 -894698 16057 0 -893324 15929.5 0 -891945 15802.6 0 -890562 15676.3 0 -889175 15550.6 0 -887783 15425.3 0 -886386 15300.6 0 -884984 15176.4 0 -883577 15052.6 0 -882165 14929.3 0 -880747 14806.3 0 -879324 14683.7 0 -877894 14561.4 0 -876459 14439.3 0 -875017 14317.5 0 -873570 14195.7 0 -872115 14074 0 -870654 13952.3 0 -869186 13830.6 0 -867711 13708.6 0 -866228 13586.4 0 -864738 13463.9 0 -863241 13340.9 0 -861736 13217.3 0 -860223 13093.2 0 -858702 12968.2 0 -857172 12842.4 0 -855635 12715.5 0 -854089 12587.6 0 -852535 12458.4 0 -850972 12327.8 0 -849400 12195.8 0 -847820 12062.1 0 -846231 11926.7 0 -844633 11789.4 0 -843026 11650.1 0 -841411 11508.7 0 -839787 11365.1 0 -838154 11219.1 0 -836513 11070.6 0 -834863 10919.6 0 -833204 10765.9 0 -831537 10609.5 0 -829862 10450.2 0 -828179 10287.9 0 -826487 10122.7 0 -1.00067e+06 29739.9 0 -999423 29591.8 0 -998175 29443.4 0 -996926 29294.7 0 -995677 29145.7 0 -994426 28996.4 0 -993174 28846.9 0 -991922 28697.1 0 -990669 28547.1 0 -989415 28396.8 0 -988160 28246.2 0 -986904 28095.4 0 -985647 27944.3 0 -984389 27793 0 -983131 27641.5 0 -981871 27489.7 0 -980611 27337.7 0 -979349 27185.5 0 -978087 27033.1 0 -976824 26880.5 0 -975560 26727.7 0 -974296 26574.7 0 -973030 26421.5 0 -971763 26268.2 0 -970496 26114.7 0 -969227 25961.1 0 -967958 25807.3 0 -966688 25653.3 0 -965417 25499.3 0 -964145 25345.1 0 -962872 25190.8 0 -961598 25036.5 0 -960323 24882 0 -959047 24727.5 0 -957770 24572.9 0 -956492 24418.3 0 -955213 24263.6 0 -953933 24108.9 0 -952652 23954.2 0 -951371 23799.5 0 -950088 23644.8 0 -948803 23490.2 0 -947518 23335.6 