<?xml version="1.0"?> 
<VTKFile type="StructuredGrid" version="0.1"> 
<StructuredGrid WholeExtent="0 15 0 15 0 0"> 
<Piece Extent="0 15 0 15 0 0"> 
<PointData>
<DataArray type="Float32" Name="E" format="ascii" NumberOfComponents="3"> 
-150088 2.79397e-09 0 -127611 -1.80535e-10 0 -122994 1.12777e-09 0 -121778 -7.60338e-10 0 -122004 -1.16415e-10 0 -123646 1.30967e-10 0 -126519 -1.17871e-09 0 -130792 2.91038e-10 0 -136747 7.27596e-10 0 -144694 -1.68802e-09 0 -155657 2.50293e-09 0 -170125 -2.32831e-09 0 -191921 1.57161e-09 0 -223036 -6.98492e-10 0 -286162 9.31323e-10 0 -537453 3.72529e-09 0 -125976 12051.9 0 -124278 5386.76 0 -121875 2144.03 0 -120952 353.244 0 -121392 -993.341 0 -123008 -2230.3 0 -125834 -3517.17 0 -129986 -4995.27 0 -135700 -6790.49 0 -143389 -9126.03 0 -153601 -12292.7 0 -167438 -16961.9 0 -186220 -24413 0 -213279 -38080.4 0 -250993 -69389 0 -277140 -144317 0 -119978 12237.8 0 -119706 6946.45 0 -119042 3193.23 0 -118897 334.903 0 -119579 -2082.01 0 -121200 -4396.95 0 -123839 -6855.94 0 -127627 -9667.56 0 -132759 -13084 0 -139510 -17427.4 0 -148267 -23235 0 -159471 -31366.8 0 -173628 -43481.2 0 -190416 -62654.2 0 -206675 -93614.4 0 -210936 -142217 0 -115151 11278.1 0 -115471 7166.27 0 -115606 3301.87 0 -115967 -93.9917 0 -116837 -3252.16 0 -118378 -6421.64 0 -120707 -9840.2 0 -123939 -13759.1 0 -128208 -18464.7 0 -133663 -24345.1 0 -140443 -31933.7 0 -148586 -42054.7 0 -157802 -55895.2 0 -166914 -75051.7 0 -172968 -101010 0 -171107 -130534 0 -110890 10951.7 0 -111441 6798.87 0 -111913 2935.52 0 -112509 -763.036 0 -113416 -4410.93 0 -114770 -8195.23 0 -116676 -12334.9 0 -119218 -17073.9 0 -122470 -22705.2 0 -126478 -29586 0 -131213 -38185.4 0 -136494 -49085.7 0 -141793 -62989.3 0 -146035 -80509.1 0 -147375 -101539 0 -143703 -125698 0 -106865 10166.1 0 -107497 6260.17 0 -108089 2369.99 0 -108735 -1491.89 0 -109543 -5436.24 0 -110608 -9619.72 0 -112005 -14235.5 0 -113783 -19511.2 0 -115968 -25709.1 0 -118538 -33138.1 0 -121391 -42147.5 0 -124276 -53119.4 0 -126726 -66384.3 0 -127947 -82072.6 0 -126946 -99898.2 0 -122817 -118397 0 -102917 9513.14 0 -103608 5628.45 0 -104214 1771.83 0 -104793 -2146.94 0 -105408 -6229.2 0 -106112 -10616.5 0 -106948 -15483.5 0 -107936 -21032.4 0 -109067 -27492.4 0 -110292 -35111.9 0 -111492 -44147.5 0 -112452 -54824.5 0 -112818 -67277.7 0 -112118 -81442 0 -109788 -96911.7 0 -105360 -113154 0 -99107.4 8728.96 0 -99804 4995.39 0 -100367 1225.65 0 -100817 -2644.94 0 -101180 -6722.3 0 -101481 -11139 0 -101735 -16053.6 0 -101937 -21647 0 -102063 -28116.8 0 -102054 -35667.5 0 -101814 -44489 0 -101189 -54723.3 0 -99975.9 -66407.6 0 -97912.8 -79409.6 0 -94760.4 -93378.5 0 -90357.9 -107663 0 -95433.2 7954.82 0 -96138.3 4378.69 0 -96634.9 777.343 0 -96924.8 -2941.1 0 -97011.8 -6880.71 0 -96896 -11167.5 0 -96569.2 -15948 0 -96010.8 -21386.3 0 -95184.9 -27658.9 0 -94039.7 -34943.8 0 -92507.2 -43401.6 0 -90511.9 -53142.5 0 -87971.1 -64180.7 0 -84826.7 -76381.1 0 -81026.5 -89418.1 0 -76549.7 -102782 0 -91967.8 7114.03 0 -92681.6 3793.95 0 -93109.4 441.593 0 -93235.7 -3019.8 0 -93045.1 -6695.39 0 -92519.2 -10705.6 0 -91632.3 -15187 0 -90348.7 -20292 0 -88624 -26185.9 0 -86409.5 -33039.3 0 -83665.6 -41015 0 -80376.9 -50238.9 0 -76584.8 -60759.3 0 -72387.4 -72484.2 0 -67961.8 -85110.8 0 -63492 -98221.2 0 -88772 6258.27 0 -89510.2 3225.58 0 -89885.6 213.315 0 -89862.9 -2887.2 0 -89412.2 -6178.4 0 -88501.8 -9775.1 0 -87090.4 -13804.7 0 -85127.2 -18410.3 0 -82553.4 -23751.7 0 -79314 -30007.5 0 -75375 -37366.4 0 -70763.2 -46016.7 0 -65605 -56099.7 0 -60193.4 -67633.7 0 -54942.2 -80410.1 0 -50267.3 -93641.3 0 -85892.5 5258.41 0 -86705.4 2655.17 0 -87061.5 69.2023 0 -86916.9 -2565.61 0 -86237.8 -5358.08 0 -84983.1 -8414.45 0 -83099 -11849.8 0 -80515.8 -15795.2 0 -77152.5 -20406.7 0 -72925.9 -25871.1 0 -67777.8 -32422.7 0 -61716.7 -40340.3 0 -54918.2 -49947 0 -47827.8 -61509 0 -41286.4 -74939 0 -36298.8 -90007.6 0 -83406.7 4243.08 0 -84359.7 2018.25 0 -84738.8 -21.4457 0 -84504.8 -2086.75 0 -83636 -4275.58 0 -82091.3 -6677.74 0 -79804.4 -9388.44 0 -76684.2 -12520.6 0 -72617 -16214.3 0 -67471.6 -20659.8 0 -61115.5 -26116.1 0 -53461.5 -32975.4 0 -44580.4 -41797.4 0 -34975 -53332.9 0 -26013.7 -68281.7 0 -20007 -85110.9 0 -81390.6 2702.1 0 -82606.1 1284.09 0 -83029.5 -86.5503 0 -82723.6 -1482.29 0 -81705.7 -2980.76 0 -79937.8 -4635.42 0 -77338.8 -6511.23 0 -73796.5 -8690.26 0 -69158.7 -11285.8 0 -63233.9 -14452.2 0 -55772.5 -18446 0 -46498.7 -23676.8 0 -35107.1 -30932.8 0 -21691.1 -41679.1 0 -7701.77 -58179.8 0 1432.88 -83265.3 0 -79887.4 766.993 0 -81695.9 417.368 0 -82039.3 -96.7894 0 -81639.8 -775.905 0 -80522.1 -1532.34 0 -78608.3 -2374.96 0 -75811.8 -3333.93 0 -71995.1 -4454.61 0 -66983.4 -5793.86 0 -60514.3 -7454.88 0 -52262.2 -9577.09 0 -41637.4 -12479.6 0 -27946 -16772.1 0 -9538.02 -24091.7 0 14792 -39884.7 0 34595.8 -76561.7 0 -84629.5 0 0 -81729.1 0 0 -81711.4 0 0 -81296.1 0 0 -80115.8 0 0 -78163 0 0 -75290.7 0 0 -71387.6 0 0 -66226.2 0 0 -59602.3 0 0 -50960.2 0 0 -40001.9 0 0 -24843.5 0 0 -4466.33 0 0 31990.6 0 0 158768 0 0 </DataArray> 
</PointData> 
<Points> 
<DataArray type="Float32" NumberOfComponents="3"> 
0.406 0.02 0 0.406 0.0206667 0 0.406 0.0213333 0 0.406 0.022 0 0.406 0.0226667 0 0.406 0.0233333 0 0.406 0.024 0 0.406 0.0246667 0 0.406 0.0253333 0 0.406 0.026 0 0.406 0.0266667 0 0.406 0.0273333 0 0.406 0.028 0 0.406 0.0286667 0 0.406 0.0293333 0 0.406 0.03 0 0.406667 0.02 0 0.406667 0.0206667 0 0.406667 0.0213333 0 0.406667 0.022 0 0.406667 0.0226667 0 0.406667 0.0233333 0 0.406667 0.024 0 0.406667 0.0246667 0 0.406667 0.0253333 0 0.406667 0.026 0 0.406667 0.0266667 0 0.406667 0.0273333 0 0.406667 0.028 0 0.406667 0.0286667 0 0.406667 0.0293333 0 0.406667 0.03 0 0.407333 0.02 0 0.407333 0.0206667 0 0.407333 0.0213333 0 0.407333 0.022 0 0.407333 0.0226667 0 0.407333 0.0233333 0 0.407333 0.024 0 0.407333 0.0246667 0 0.407333 0.0253333 0 0.407333 0.026 0 0.407333 0.0266667 0 0.407333 0.0273333 0 0.407333 0.028 0 0.407333 0.0286667 0 0.407333 0.0293333 0 0.407333 0.03 0 0.408 0.02 0 0.408 0.0206667 0 0.408 0.0213333 0 0.408 0.022 0 0.408 0.0226667 0 0.408 0.0233333 0 0.408 0.024 0 0.408 0.0246667 0 0.408 0.0253333 0 0.408 0.026 0 0.408 0.0266667 0 0.408 0.0273333 0 0.408 0.028 0 0.408 0.0286667 0 0.408 0.0293333 0 0.408 0.03 0 0.408667 0.02 0 0.408667 0.0206667 0 0.408667 0.0213333 0 0.408667 0.022 0 0.408667 0.0226667 0 0.408667 0.0233333 0 0.408667 0.024 0 0.408667 0.0246667 0 0.408667 0.0253333 0 0.408667 0.026 0 0.408667 0.0266667 0 0.408667 0.0273333 0 0.408667 0.028 0 0.408667 0.0286667 0 0.408667 0.0293333 0 0.408667 0.03 0 0.409333 0.02 0 0.409333 0.0206667 0 0.409333 0.0213333 0 0.409333 0.022 0 0.409333 0.0226667 0 0.409333 0.0233333 0 0.409333 0.024 0 0.409333 0.0246667 0 0.409333 0.0253333 0 0.409333 0.026 0 0.409333 0.0266667 0 0.409333 0.0273333 0 0.409333 0.028 0 0.409333 0.0286667 0 0.409333 0.0293333 0 0.409333 0.03 0 0.41 0.02 0 0.41 0.0206667 0 0.41 0.0213333 0 0.41 0.022 0 0.41 0.0226667 0 0.41 0.0233333 0 0.41 0.024 0 0.41 0.0246667 0 0.41 0.0253333 0 0.41 0.026 0 0.41 0.0266667 0 0.41 0.0273333 0 0.41 0.028 0 0.41 0.0286667 0 0.41 0.0293333 0 0.41 0.03 0 0.410667 0.02 0 0.410667 0.0206667 0 0.410667 0.0213333 0 0.410667 0.022 0 0.410667 0.0226667 0 0.410667 0.0233333 0 0.410667 0.024 0 0.410667 0.0246667 0 0.410667 0.0253333 0 0.410667 0.026 0 0.410667 0.0266667 0 0.410667 0.0273333 0 0.410667 0.028 0 0.410667 0.0286667 0 0.410667 0.0293333 0 0.410667 0.03 0 0.411333 0.02 0 0.411333 0.0206667 0 0.411333 0.0213333 0 0.411333 0.022 0 0.411333 0.0226667 0 0.411333 0.0233333 0 0.411333 0.024 0 0.411333 0.0246667 0 0.411333 0.0253333 0 0.411333 0.026 0 0.411333 0.0266667 0 0.411333 0.0273333 0 0.411333 0.028 0 0.411333 0.0286667 0 0.411333 0.0293333 0 0.411333 0.03 0 0.412 0.02 0 0.412 0.0206667 0 0.412 0.0213333 0 0.412 0.022 0 0.412 0.0226667 0 0.412 0.0233333 0 0.412 0.024 0 0.412 0.0246667 0 0.412 0.0253333 0 0.412 0.026 0 0.412 0.0266667 0 0.412 0.0273333 0 0.412 0.028 0 0.412 0.0286667 0 0.412 0.0293333 0 0.412 0.03 0 0.412667 0.02 0 0.412667 0.0206667 0 0.412667 0.0213333 0 0.412667 0.022 0 0.412667 0.0226667 0 0.412667 0.0233333 0 0.412667 0.024 0 0.412667 0.0246667 0 0.412667 0.0253333 0 0.412667 0.026 0 0.412667 0.0266667 0 0.412667 0.0273333 0 0.412667 0.028 0 0.412667 0.0286667 0 0.412667 0.0293333 0 0.412667 0.03 0 0.413333 0.02 0 0.413333 0.0206667 0 0.413333 0.0213333 0 0.413333 0.022 0 0.413333 0.0226667 0 0.413333 0.0233333 0 0.413333 0.024 0 0.413333 0.0246667 0 0.413333 0.0253333 0 0.413333 0.026 0 0.413333 0.0266667 0 0.413333 0.0273333 0 0.413333 0.028 0 0.413333 0.0286667 0 0.413333 0.0293333 0 0.413333 0.03 0 0.414 0.02 0 0.414 0.0206667 0 0.414 0.0213333 0 0.414 0.022 0 0.414 0.0226667 0 0.414 0.0233333 0 0.414 0.024 0 0.414 0.0246667 0 0.414 0.0253333 0 0.414 0.026 0 0.414 0.0266667 0 0.414 0.0273333 0 0.414 0.028 0 0.414 0.0286667 0 0.414 0.0293333 0 0.414 0.03 0 0.414667 0.02 0 0.414667 0.0206667 0 0.414667 0.0213333 0 0.414667 0.022 0 0.414667 0.0226667 0 0.414667 0.0233333 0 0.414667 0.024 0 0.414667 0.0246667 0 0.414667 0.0253333 0 0.414667 0.026 0 0.414667 0.0266667 0 0.414667 0.0273333 0 0.414667 0.028 0 0.414667 0.0286667 0 0.414667 0.0293333 0 0.414667 0.03 0 0.415333 0.02 0 0.415333 0.0206667 0 0.415333 0.0213333 0 0.415333 0.022 0 0.415333 0.0226667 0 0.415333 0.0233333 0 0.415333 0.024 0 0.415333 0.0246667 0 0.415333 0.0253333 0 0.415333 0.026 0 0.415333 0.0266667 0 0.415333 0.0273333 0 0.415333 0.028 0 0.415333 0.0286667 0 0.415333 0.0293333 0 0.415333 0.03 0 0.416 0.02 0 0.416 0.0206667 0 0.416 0.0213333 0 0.416 0.022 0 0.416 0.0226667 0 0.416 0.0233333 0 0.416 0.024 0 0.416 0.0246667 0 0.416 0.0253333 0 0.416 0.026 0 0.416 0.0266667 0 0.416 0.0273333 0 0.416 0.028 0 0.416 0.0286667 0 0.416 0.0293333 0 0.416 0.03 0 
</DataArray>
</Points> 
</Piece> 
</StructuredGrid> 
</VTKFile> 
