<?xml version="1.0"?> 
<VTKFile type="StructuredGrid" version="0.1"> 
<StructuredGrid WholeExtent="0 15 0 15 0 0"> 
<Piece Extent="0 15 0 15 0 0"> 
<PointData>
<DataArray type="Float32" Name="E" format="ascii" NumberOfComponents="3"> 
297662 -21.514 0 291616 55791.9 0 273770 108808 0 245036 156350 0 207022 195890 0 162085 225314 0 113262 243252 0 64025.2 249418 0 17710.4 244819 0 -22893.1 231608 0 -56422.9 212682 0 -82040.3 191011 0 -101316 169263 0 -113543 149598 0 -123580 133468 0 -150088 130873 0 271007 -19.1659 0 265618 50101.9 0 249728 97717.8 0 224190 140460 0 190467 176139 0 150640 202976 0 107324 219854 0 63419.3 226567 0 21732.2 223936 0 -15497.6 213708 0 -46857.3 198216 0 -71991.7 179951 0 -91158.3 161181 0 -105591 143783 0 -116488 129186 0 -125976 115556 0 247057 -17.1345 0 242256 45033.4 0 228111 87851.1 0 205404 126345 0 175449 158616 0 140075 183152 0 101528 199027 0 62255.4 206077 0 24598.4 204971 0 -9543.93 197124 0 -38967.8 184442 0 -63236.8 168999 0 -82604.2 152742 0 -97835 137303 0 -110105 123761 0 -119978 111771 0 225520 -15.2818 0 221244 40519.3 0 208649 79070.5 0 188443 113796 0 161796 143041 0 130310 165514 0 95911.6 180430 0 60674.6 187646 0 26569.8 187705 0 -4795.77 181752 0 -32374 171355 0 -55742.1 158242 0 -75054 144086 0 -90893.1 130314 0 -104099 117912 0 -115151 107615 0 206133 -13.5693 0 202323 36497.8 0 191102 71251.8 0 173103 102625 0 149363 129174 0 121277 149782 0 90502.1 163776 0 58801.3 171023 0 27841.7 171952 0 -1011.16 167497 0 -26847.1 158943 0 -49273.6 147741 0 -68376.9 135323 0 -84608.1 122957 0 -98593.5 111629 0 -110890 102075 0 188663 -12.034 0 185265 32913.3 0 175259 64283.5 0 159208 92667.9 0 138023 116804 0 112919 135718 0 85321.6 148825 0 56734.7 155992 0 28574.6 157555 0 2005.71 154270 0 -22185.6 147193 0 -43644.6 137538 0 -62424.2 126539 0 -78879 115336 0 -93512.1 104883 0 -106865 95964 0 172902 -10.6548 0 169869 29715.5 0 160937 58066.4 0 146604 83780.4 0 127668 105748 0 105186 123119 0 80386.3 135372 0 54554.7 142373 0 28899.7 144379 0 4416.44 141996 0 -18217.8 136087 0 -38694.2 127668 0 -57055.2 117802 0 -73606.7 107521 0 -88758.4 97762.5 0 -102917 89233 0 158666 -9.43209 0 155956 26859.8 0 147974 52512.7 0 135157 75835.7 0 118205 95851.6 0 98035 111809 0 75706.9 123243 0 52324.8 130013 0 28923.4 132308 0 6355.16 130607 0 -14799 125610 0 -34279.3 118159 0 -52142.2 109165 0 -68681 99570.9 0 -84256.8 90315.7 0 -99107.4 82152.1 0 145793 -8.34922 0 143369 24306.6 0 136226 47545.5 0 124750 68723.5 0 109550 86976.9 0 91424.4 101639 0 71289 112289 0 50094.9 118780 0 28731.4 121242 0 7931.68 120045 0 -11807.3 115749 0 -30275.5 109037 0 -47561.8 100677 0 -63992.6 91532.5 0 -79932.8 82583.1 0 -95433.2 74720.6 0 134138 -7.39726 0 131968 22021.3 0 125569 43096.9 0 115278 62347.2 0 101630 79006.4 0 85317.3 92479.7 0 67134.3 102382 0 47903.1 108561 0 28392.3 111095 0 9235.27 110261 0 -9141.29 106493 0 -26574 100328 0 -43197.1 92389.9 0 -59418.1 83445.7 0 -75703.4 74557.4 0 -91967.8 66953.8 0 123576 -6.55662 0 121629 19973.1 0 115889 39107.6 0 106650 56622.9 0 94378.5 71837.9 0 79678.5 84219.1 0 63240.2 93412.4 0 45777.7 99259.6 0 27959.1 101794 0 10336.8 101214 0 -6719.43 97838.5 0 -23082.4 92066.8 0 -38936.6 84361.2 0 -54813.1 75353.2 0 -71446.9 66192.6 0 -88772 58690 0 113992 -5.82664 0 112245 18135.3 0 107089 35525.7 0 98783.7 51477.4 0 87736.6 65382.7 0 74475 76760.9 0 59601 85284.4 0 43738.1 90790.5 0 27472 93274.9 0 11290.3 92866.5 0 -4478.67 89784.6 0 -19728.6 84291.8 0 -34677 76669.7 0 -50006.1 67325.1 0 -66946.6 57386.6 0 -85892.5 49703.5 0 105287 -5.16806 0 103716 16484.2 0 99080.7 32305.8 0 91606.1 46846.7 0 81650.5 59563.1 0 69675.3 70020.8 0 56208 77915.1 0 41796.8 83080.6 0 26959.8 85481.5 0 12134.6 85189.4 0 -2375.31 82332.9 0 -16463.6 77051.7 0 -30336.7 69421.5 0 -44797.4 59499.4 0 -61803.5 48028.5 0 -83406.7 39269.1 0 97371.7 -4.61771 0 95958.3 14999.2 0 91785.5 29408.1 0 85051.6 42674.8 0 76071 54311.8 0 65249 63925.2 0 53050.4 71231.7 0 39959.6 76064.3 0 26441.7 78364 0 12893.6 78151.8 0 -381.815 75488.1 0 -13273 70394.1 0 -25867.5 62753.8 0 -39015.3 52160.8 0 -55248 38064.3 0 -81390.6 26141.1 0 90166.7 -4.12353 0 88893.6 13662.2 0 85133.5 26797.6 0 79061.3 38912.6 0 70953.5 49569.3 0 61167.5 58409.1 0 50115.6 65170.3 0 38226.7 69682.6 0 25930.2 71877 0 13577.3 71724.1 0 1513.92 69250.9 0 -10176.2 64360.9 0 -21294 56816.9 0 -32613.5 45768.7 0 -45979.1 28229.3 0 -79887.4 4647.12 0 83601.6 -3.37441 0 82453.7 12457.4 0 79063.3 24443.4 0 73582.2 35517.6 0 66256.9 45282 0 57405.8 53418.5 0 47381.3 59667.4 0 36617.2 63893.5 0 25376.6 65957.6 0 14306.4 65907.1 0 3057.57 63566.2 0 -6715.48 59029.7 0 -17689.9 51719.7 0 -24175.4 40552.1 0 -34841 23552.8 0 -84629.5 -54153.4 0 </DataArray> 
</PointData> 
<Points> 
<DataArray type="Float32" NumberOfComponents="3"> 
0.406 0 0 0.406 0.00133333 0 0.406 0.00266667 0 0.406 0.004 0 0.406 0.00533333 0 0.406 0.00666667 0 0.406 0.008 0 0.406 0.00933333 0 0.406 0.0106667 0 0.406 0.012 0 0.406 0.0133333 0 0.406 0.0146667 0 0.406 0.016 0 0.406 0.0173333 0 0.406 0.0186667 0 0.406 0.02 0 0.406667 0 0 0.406667 0.00133333 0 0.406667 0.00266667 0 0.406667 0.004 0 0.406667 0.00533333 0 0.406667 0.00666667 0 0.406667 0.008 0 0.406667 0.00933333 0 0.406667 0.0106667 0 0.406667 0.012 0 0.406667 0.0133333 0 0.406667 0.0146667 0 0.406667 0.016 0 0.406667 0.0173333 0 0.406667 0.0186667 0 0.406667 0.02 0 0.407333 0 0 0.407333 0.00133333 0 0.407333 0.00266667 0 0.407333 0.004 0 0.407333 0.00533333 0 0.407333 0.00666667 0 0.407333 0.008 0 0.407333 0.00933333 0 0.407333 0.0106667 0 0.407333 0.012 0 0.407333 0.0133333 0 0.407333 0.0146667 0 0.407333 0.016 0 0.407333 0.0173333 0 0.407333 0.0186667 0 0.407333 0.02 0 0.408 0 0 0.408 0.00133333 0 0.408 0.00266667 0 0.408 0.004 0 0.408 0.00533333 0 0.408 0.00666667 0 0.408 0.008 0 0.408 0.00933333 0 0.408 0.0106667 0 0.408 0.012 0 0.408 0.0133333 0 0.408 0.0146667 0 0.408 0.016 0 0.408 0.0173333 0 0.408 0.0186667 0 0.408 0.02 0 0.408667 0 0 0.408667 0.00133333 0 0.408667 0.00266667 0 0.408667 0.004 0 0.408667 0.00533333 0 0.408667 0.00666667 0 0.408667 0.008 0 0.408667 0.00933333 0 0.408667 0.0106667 0 0.408667 0.012 0 0.408667 0.0133333 0 0.408667 0.0146667 0 0.408667 0.016 0 0.408667 0.0173333 0 0.408667 0.0186667 0 0.408667 0.02 0 0.409333 0 0 0.409333 0.00133333 0 0.409333 0.00266667 0 0.409333 0.004 0 0.409333 0.00533333 0 0.409333 0.00666667 0 0.409333 0.008 0 0.409333 0.00933333 0 0.409333 0.0106667 0 0.409333 0.012 0 0.409333 0.0133333 0 0.409333 0.0146667 0 0.409333 0.016 0 0.409333 0.0173333 0 0.409333 0.0186667 0 0.409333 0.02 0 0.41 0 0 0.41 0.00133333 0 0.41 0.00266667 0 0.41 0.004 0 0.41 0.00533333 0 0.41 0.00666667 0 0.41 0.008 0 0.41 0.00933333 0 0.41 0.0106667 0 0.41 0.012 0 0.41 0.0133333 0 0.41 0.0146667 0 0.41 0.016 0 0.41 0.0173333 0 0.41 0.0186667 0 0.41 0.02 0 0.410667 0 0 0.410667 0.00133333 0 0.410667 0.00266667 0 0.410667 0.004 0 0.410667 0.00533333 0 0.410667 0.00666667 0 0.410667 0.008 0 0.410667 0.00933333 0 0.410667 0.0106667 0 0.410667 0.012 0 0.410667 0.0133333 0 0.410667 0.0146667 0 0.410667 0.016 0 0.410667 0.0173333 0 0.410667 0.0186667 0 0.410667 0.02 0 0.411333 0 0 0.411333 0.00133333 0 0.411333 0.00266667 0 0.411333 0.004 0 0.411333 0.00533333 0 0.411333 0.00666667 0 0.411333 0.008 0 0.411333 0.00933333 0 0.411333 0.0106667 0 0.411333 0.012 0 0.411333 0.0133333 0 0.411333 0.0146667 0 0.411333 0.016 0 0.411333 0.0173333 0 0.411333 0.0186667 0 0.411333 0.02 0 0.412 0 0 0.412 0.00133333 0 0.412 0.00266667 0 0.412 0.004 0 0.412 0.00533333 0 0.412 0.00666667 0 0.412 0.008 0 0.412 0.00933333 0 0.412 0.0106667 0 0.412 0.012 0 0.412 0.0133333 0 0.412 0.0146667 0 0.412 0.016 0 0.412 0.0173333 0 0.412 0.0186667 0 0.412 0.02 0 0.412667 0 0 0.412667 0.00133333 0 0.412667 0.00266667 0 0.412667 0.004 0 0.412667 0.00533333 0 0.412667 0.00666667 0 0.412667 0.008 0 0.412667 0.00933333 0 0.412667 0.0106667 0 0.412667 0.012 0 0.412667 0.0133333 0 0.412667 0.0146667 0 0.412667 0.016 0 0.412667 0.0173333 0 0.412667 0.0186667 0 0.412667 0.02 0 0.413333 0 0 0.413333 0.00133333 0 0.413333 0.00266667 0 0.413333 0.004 0 0.413333 0.00533333 0 0.413333 0.00666667 0 0.413333 0.008 0 0.413333 0.00933333 0 0.413333 0.0106667 0 0.413333 0.012 0 0.413333 0.0133333 0 0.413333 0.0146667 0 0.413333 0.016 0 0.413333 0.0173333 0 0.413333 0.0186667 0 0.413333 0.02 0 0.414 0 0 0.414 0.00133333 0 0.414 0.00266667 0 0.414 0.004 0 0.414 0.00533333 0 0.414 0.00666667 0 0.414 0.008 0 0.414 0.00933333 0 0.414 0.0106667 0 0.414 0.012 0 0.414 0.0133333 0 0.414 0.0146667 0 0.414 0.016 0 0.414 0.0173333 0 0.414 0.0186667 0 0.414 0.02 0 0.414667 0 0 0.414667 0.00133333 0 0.414667 0.00266667 0 0.414667 0.004 0 0.414667 0.00533333 0 0.414667 0.00666667 0 0.414667 0.008 0 0.414667 0.00933333 0 0.414667 0.0106667 0 0.414667 0.012 0 0.414667 0.0133333 0 0.414667 0.0146667 0 0.414667 0.016 0 0.414667 0.0173333 0 0.414667 0.0186667 0 0.414667 0.02 0 0.415333 0 0 0.415333 0.00133333 0 0.415333 0.00266667 0 0.415333 0.004 0 0.415333 0.00533333 0 0.415333 0.00666667 0 0.415333 0.008 0 0.415333 0.00933333 0 0.415333 0.0106667 0 0.415333 0.012 0 0.415333 0.0133333 0 0.415333 0.0146667 0 0.415333 0.016 0 0.415333 0.0173333 0 0.415333 0.0186667 0 0.415333 0.02 0 0.416 0 0 0.416 0.00133333 0 0.416 0.00266667 0 0.416 0.004 0 0.416 0.00533333 0 0.416 0.00666667 0 0.416 0.008 0 0.416 0.00933333 0 0.416 0.0106667 0 0.416 0.012 0 0.416 0.0133333 0 0.416 0.0146667 0 0.416 0.016 0 0.416 0.0173333 0 0.416 0.0186667 0 0.416 0.02 0 
</DataArray>
</Points> 
</Piece> 
</StructuredGrid> 
</VTKFile> 
