<?xml version="1.0"?> 
<VTKFile type="StructuredGrid" version="0.1"> 
<StructuredGrid WholeExtent="0 127 0 127 0 0"> 
<Piece Extent="0 127 0 127 0 0"> 
<PointData>
<DataArray type="Float32" Name="E" format="ascii" NumberOfComponents="3"> 
-2.24528e+06 5.58129e+06 0 -2.18989e+06 5.52055e+06 0 -2.14868e+06 5.4954e+06 0 -2.11317e+06 5.48534e+06 0 -2.08118e+06 5.48536e+06 0 -2.05141e+06 5.49244e+06 0 -2.02314e+06 5.50495e+06 0 -1.99584e+06 5.52173e+06 0 -1.96915e+06 5.542e+06 0 -1.94279e+06 5.56516e+06 0 -1.91655e+06 5.59075e+06 0 -1.89024e+06 5.61841e+06 0 -1.86373e+06 5.64783e+06 0 -1.8369e+06 5.67877e+06 0 -1.80962e+06 5.71103e+06 0 -1.78183e+06 5.74443e+06 0 -1.75344e+06 5.77882e+06 0 -1.72438e+06 5.81405e+06 0 -1.69459e+06 5.85e+06 0 -1.66401e+06 5.88658e+06 0 -1.63259e+06 5.92368e+06 0 -1.6003e+06 5.9612e+06 0 -1.56709e+06 5.99906e+06 0 -1.53291e+06 6.03718e+06 0 -1.49775e+06 6.07549e+06 0 -1.46156e+06 6.11392e+06 0 -1.42432e+06 6.15238e+06 0 -1.38601e+06 6.19083e+06 0 -1.3466e+06 6.22918e+06 0 -1.30608e+06 6.26739e+06 0 -1.26442e+06 6.30538e+06 0 -1.2216e+06 6.34309e+06 0 -1.17763e+06 6.38047e+06 0 -1.13248e+06 6.41746e+06 0 -1.08616e+06 6.454e+06 0 -1.03864e+06 6.49002e+06 0 -989937 6.52548e+06 0 -940041 6.56031e+06 0 -888957 6.59446e+06 0 -836687 6.62786e+06 0 -783238 6.66047e+06 0 -728620 6.69223e+06 0 -672843 6.72308e+06 0 -615923 6.75297e+06 0 -557875 6.78184e+06 0 -498721 6.80964e+06 0 -438481 6.83632e+06 0 -377180 6.86182e+06 0 -314847 6.88609e+06 0 -251511 6.90909e+06 0 -187205 6.93076e+06 0 -121965 6.95105e+06 0 -55829.2 6.96993e+06 0 11162.4 6.98735e+06 0 78966.2 7.00326e+06 0 147537 7.01762e+06 0 216826 7.03041e+06 0 286783 7.04157e+06 0 357357 7.05108e+06 0 428491 7.0589e+06 0 500131 7.06501e+06 0 572218 7.06939e+06 0 644691 7.072e+06 0 717490 7.07283e+06 0 790552 7.07186e+06 0 863813 7.06909e+06 0 937209 7.06449e+06 0 1.01067e+06 7.05807e+06 0 1.08414e+06 7.04981e+06 0 1.15754e+06 7.03973e+06 0 1.23082e+06 7.02782e+06 0 1.30389e+06 7.0141e+06 0 1.37671e+06 6.99857e+06 0 1.44919e+06 6.98125e+06 0 1.52129e+06 6.96215e+06 0 1.59292e+06 6.9413e+06 0 1.66404e+06 6.91873e+06 0 1.73457e+06 6.89446e+06 0 1.80447e+06 6.86852e+06 0 1.87366e+06 6.84095e+06 0 1.9421e+06 6.81179e+06 0 2.00973e+06 6.78108e+06 0 2.0765e+06 6.74887e+06 0 2.14236e+06 6.71519e+06 0 2.20727e+06 6.6801e+06 0 2.27117e+06 6.64365e+06 0 2.33404e+06 6.6059e+06 0 2.39582e+06 6.5669e+06 0 2.45649e+06 6.52671e+06 0 2.51602e+06 6.48538e+06 0 2.57438e+06 6.44299e+06 0 2.63154e+06 6.39959e+06 0 2.68748e+06 6.35524e+06 0 2.74218e+06 6.31002e+06 0 2.79563e+06 6.26399e+06 0 2.84783e+06 6.21721e+06 0 2.89875e+06 6.16975e+06 0 2.94839e+06 6.12168e+06 0 2.99677e+06 6.07308e+06 0 3.04387e+06 6.02399e+06 0 3.08971e+06 5.97451e+06 0 3.13429e+06 5.92469e+06 0 3.17763e+06 5.87461e+06 0 3.21976e+06 5.82433e+06 0 3.26068e+06 5.77392e+06 0 3.30042e+06 5.72346e+06 0 3.33902e+06 5.67301e+06 0 3.3765e+06 5.62265e+06 0 3.41289e+06 5.57243e+06 0 3.44825e+06 5.52244e+06 0 3.48262e+06 5.47275e+06 0 3.51603e+06 5.42343e+06 0 3.54855e+06 5.37455e+06 0 3.58024e+06 5.32619e+06 0 3.61116e+06 5.27843e+06 0 3.64139e+06 5.23136e+06 0 3.671e+06 5.18507e+06 0 3.70008e+06 5.13964e+06 0 3.72874e+06 5.0952e+06 0 3.75709e+06 5.05185e+06 0 3.78527e+06 5.00974e+06 0 3.81345e+06 4.96903e+06 0 3.84182e+06 4.92993e+06 0 3.87066e+06 4.89269e+06 0 3.90031e+06 4.8577e+06 0 3.93133e+06 4.82554e+06 0 3.9647e+06 4.79728e+06 0 4.00305e+06 4.7759e+06 0 -2.26748e+06 5.49879e+06 0 -2.19887e+06 5.47411e+06 0 -2.14882e+06 5.46013e+06 0 -2.10687e+06 5.45661e+06 0 -2.07009e+06 5.46055e+06 0 -2.0365e+06 5.4703e+06 0 -2.0051e+06 5.48459e+06 0 -1.97516e+06 5.50257e+06 0 -1.94621e+06 5.5236e+06 0 -1.91788e+06 5.54717e+06 0 -1.8899e+06 5.57291e+06 0 -1.86206e+06 5.60049e+06 0 -1.83417e+06 5.62966e+06 0 -1.8061e+06 5.66019e+06 0 -1.77773e+06 5.6919e+06 0 -1.74894e+06 5.72463e+06 0 -1.71966e+06 5.75823e+06 0 -1.68981e+06 5.79259e+06 0 -1.65932e+06 5.82759e+06 0 -1.62813e+06 5.86313e+06 0 -1.59618e+06 5.89912e+06 0 -1.56343e+06 5.93546e+06 0 -1.52984e+06 5.97209e+06 0 -1.49537e+06 6.00892e+06 0 -1.45999e+06 6.04588e+06 0 -1.42366e+06 6.08291e+06 0 -1.38635e+06 6.11994e+06 0 -1.34805e+06 6.15691e+06 0 -1.30873e+06 6.19375e+06 0 -1.26837e+06 6.23041e+06 0 -1.22695e+06 6.26682e+06 0 -1.18446e+06 6.30293e+06 0 -1.14089e+06 6.33869e+06 0 -1.09623e+06 6.37404e+06 0 -1.05048e+06 6.40892e+06 0 -1.00362e+06 6.44327e+06 0 -955655 6.47706e+06 0 -906587 6.51021e+06 0 -856416 6.54268e+06 0 -805148 6.57442e+06 0 -752789 6.60538e+06 0 -699348 6.6355e+06 0 -644838 6.66473e+06 0 -589272 6.69302e+06 0 -532667 6.72033e+06 0 -475041 6.7466e+06 0 -416417 6.77179e+06 0 -356817 6.79585e+06 0 -296267 6.81873e+06 0 -234796 6.84039e+06 0 -172434 6.86079e+06 0 -109215 6.87988e+06 0 -45173.5 6.89762e+06 0 19652.8 6.91398e+06 0 85224.3 6.92891e+06 0 151499 6.94238e+06 0 218434 6.95435e+06 0 285983 6.9648e+06 0 354098 6.9737e+06 0 422731 6.98101e+06 0 491830 6.98671e+06 0 561343 6.99078e+06 0 631216 6.9932e+06 0 701394 6.99395e+06 0 771820 6.99302e+06 0 842438 6.99039e+06 0 913189 6.98606e+06 0 984015 6.98001e+06 0 1.05486e+06 6.97226e+06 0 1.12565e+06 6.96279e+06 0 1.19635e+06 6.95161e+06 0 1.26688e+06 6.93872e+06 0 1.33719e+06 6.92414e+06 0 1.40721e+06 6.90788e+06 0 1.4769e+06 6.88995e+06 0 1.54619e+06 6.87038e+06 0 1.61503e+06 6.84917e+06 0 1.68335e+06 6.82637e+06 0 1.75111e+06 6.80198e+06 0 1.81826e+06 6.77606e+06 0 1.88473e+06 6.74862e+06 0 1.95049e+06 6.7197e+06 0 2.01548e+06 6.68935e+06 0 2.07967e+06 6.6576e+06 0 2.143e+06 6.62449e+06 0 2.20543e+06 6.59008e+06 0 2.26693e+06 6.5544e+06 0 2.32746e+06 6.51751e+06 0 2.38699e+06 6.47946e+06 0 2.44549e+06 6.4403e+06 0 2.50292e+06 6.40009e+06 0 2.55927e+06 6.35888e+06 0 2.61452e+06 6.31673e+06 0 2.66863e+06 6.27369e+06 0 2.72161e+06 6.22983e+06 0 2.77343e+06 6.18521e+06 0 2.82409e+06 6.13989e+06 0 2.87358e+06 6.09392e+06 0 2.9219e+06 6.04738e+06 0 2.96904e+06 6.00033e+06 0 3.01502e+06 5.95282e+06 0 3.05984e+06 5.90492e+06 0 3.10351e+06 5.8567e+06 0 3.14604e+06 5.80822e+06 0 3.18745e+06 5.75954e+06 0 3.22777e+06 5.71072e+06 0 3.26701e+06 5.66185e+06 0 3.3052e+06 5.61296e+06 0 3.34238e+06 5.56414e+06 0 3.37859e+06 5.51545e+06 0 3.41385e+06 5.46696e+06 0 3.44822e+06 5.41872e+06 0 3.48176e+06 5.37082e+06 0 3.5145e+06 5.32331e+06 0 3.54652e+06 5.27628e+06 0 3.57788e+06 5.22979e+06 0 3.60866e+06 5.18393e+06 0 3.63895e+06 5.13878e+06 0 3.66885e+06 5.09442e+06 0 3.69846e+06 5.05096e+06 0 3.72793e+06 5.00849e+06 0 3.75742e+06 4.96715e+06 0 3.78712e+06 4.92706e+06 0 3.81729e+06 4.88839e+06 0 3.84827e+06 4.85134e+06 0 3.88058e+06 4.81614e+06 0 3.91495e+06 4.783e+06 0 3.95306e+06 4.75166e+06 0 -2.26449e+06 5.43312e+06 0 -2.19589e+06 5.42519e+06 0 -2.14171e+06 5.42221e+06 0 -2.09598e+06 5.42519e+06 0 -2.05582e+06 5.43341e+06 0 -2.01936e+06 5.44604e+06 0 -1.98548e+06 5.46233e+06 0 -1.95338e+06 5.48166e+06 0 -1.92254e+06 5.50358e+06 0 -1.89254e+06 5.52769e+06 0 -1.86307e+06 5.55367e+06 0 -1.83389e+06 5.58127e+06 0 -1.80482e+06 5.61026e+06 0 -1.77567e+06 5.64045e+06 0 -1.74634e+06 5.67168e+06 0 -1.71669e+06 5.7038e+06 0 -1.68664e+06 5.7367e+06 0 -1.6561e+06 5.77025e+06 0 -1.62501e+06 5.80436e+06 0 -1.5933e+06 5.83893e+06 0 -1.56091e+06 5.87388e+06 0 -1.52779e+06 5.90912e+06 0 -1.4939e+06 5.94458e+06 0 -1.45921e+06 5.98019e+06 0 -1.42367e+06 6.01589e+06 0 -1.38726e+06 6.05161e+06 0 -1.34995e+06 6.08729e+06 0 -1.31171e+06 6.12286e+06 0 -1.27253e+06 6.15828e+06 0 -1.23238e+06 6.19348e+06 0 -1.19124e+06 6.22841e+06 0 -1.14912e+06 6.26302e+06 0 -1.10599e+06 6.29726e+06 0 -1.06185e+06 6.33107e+06 0 -1.01668e+06 6.3644e+06 0 -970494 6.3972e+06 0 -923281 6.42942e+06 0 -875043 6.46101e+06 0 -825783 6.49193e+06 0 -775506 6.52212e+06 0 -724218 6.55154e+06 0 -671931 6.58014e+06 0 -618654 6.60787e+06 0 -564402 6.63469e+06 0 -509190 6.66056e+06 0 -453037 6.68542e+06 0 -395963 6.70924e+06 0 -337990 6.73197e+06 0 -279143 6.75358e+06 0 -219448 6.77402e+06 0 -158933 6.79325e+06 0 -97629.7 6.81123e+06 0 -35570.2 6.82793e+06 0 27211.1 6.84331e+06 0 90677.7 6.85735e+06 0 154791 6.87e+06 0 219512 6.88124e+06 0 284799 6.89104e+06 0 350608 6.89937e+06 0 416895 6.9062e+06 0 483614 6.91153e+06 0 550717 6.91532e+06 0 618155 6.91755e+06 0 685880 6.91822e+06 0 753841 6.91731e+06 0 821985 6.91481e+06 0 890261 6.91071e+06 0 958617 6.905e+06 0 1.027e+06 6.89768e+06 0 1.09535e+06 6.88876e+06 0 1.16362e+06 6.87823e+06 0 1.23176e+06 6.8661e+06 0 1.29971e+06 6.85237e+06 0 1.36742e+06 6.83706e+06 0 1.43484e+06 6.82018e+06 0 1.50191e+06 6.80175e+06 0 1.56858e+06 6.78178e+06 0 1.6348e+06 6.76029e+06 0 1.70053e+06 6.73732e+06 0 1.76571e+06 6.71288e+06 0 1.8303e+06 6.687e+06 0 1.89425e+06 6.65971e+06 0 1.95752e+06 6.63105e+06 0 2.02007e+06 6.60106e+06 0 2.08186e+06 6.56976e+06 0 2.14284e+06 6.53721e+06 0 2.20298e+06 6.50343e+06 0 2.26226e+06 6.46849e+06 0 2.32063e+06 6.43241e+06 0 2.37806e+06 6.39524e+06 0 2.43454e+06 6.35705e+06 0 2.49004e+06 6.31786e+06 0 2.54452e+06 6.27775e+06 0 2.59799e+06 6.23675e+06 0 2.65041e+06 6.19492e+06 0 2.70178e+06 6.15232e+06 0 2.75208e+06 6.109e+06 0 2.80132e+06 6.06501e+06 0 2.84947e+06 6.02042e+06 0 2.89655e+06 5.97528e+06 0 2.94255e+06 5.92965e+06 0 2.98747e+06 5.88358e+06 0 3.03133e+06 5.83714e+06 0 3.07413e+06 5.79039e+06 0 3.1159e+06 5.74337e+06 0 3.15664e+06 5.69616e+06 0 3.19638e+06 5.64881e+06 0 3.23514e+06 5.60138e+06 0 3.27295e+06 5.55393e+06 0 3.30984e+06 5.50652e+06 0 3.34585e+06 5.45922e+06 0 3.38102e+06 5.41208e+06 0 3.4154e+06 5.36517e+06 0 3.44903e+06 5.31855e+06 0 3.48198e+06 5.27228e+06 0 3.5143e+06 5.22643e+06 0 3.54608e+06 5.18107e+06 0 3.57739e+06 5.13627e+06 0 3.60832e+06 5.09211e+06 0 3.63898e+06 5.04865e+06 0 3.6695e+06 5.00598e+06 0 3.70002e+06 4.96419e+06 0 3.73073e+06 4.92337e+06 0 3.76186e+06 4.88362e+06 0 3.79368e+06 4.84503e+06 0 3.82661e+06 4.80768e+06 0 3.86116e+06 4.77161e+06 0 3.89823e+06 4.73664e+06 0 -2.25063e+06 5.37461e+06 0 -2.184e+06 5.37825e+06 0 -2.1286e+06 5.3837e+06 0 -2.08088e+06 5.39252e+06 0 -2.03858e+06 5.40482e+06 0 -2.00008e+06 5.42032e+06 0 -1.96432e+06 5.43863e+06 0 -1.93053e+06 5.45938e+06 0 -1.89815e+06 5.48225e+06 0 -1.86677e+06 5.50695e+06 0 -1.83605e+06 5.53325e+06 0 -1.80575e+06 5.56092e+06 0 -1.77565e+06 5.58979e+06 0 -1.74559e+06 5.6197e+06 0 -1.71543e+06 5.65051e+06 0 -1.68504e+06 5.68209e+06 0 -1.65434e+06 5.71434e+06 0 -1.62322e+06 5.74715e+06 0 -1.59162e+06 5.78042e+06 0 -1.55948e+06 5.81409e+06 0 -1.52672e+06 5.84806e+06 0 -1.49331e+06 5.88226e+06 0 -1.4592e+06 5.91663e+06 0 -1.42435e+06 5.9511e+06 0 -1.38873e+06 5.9856e+06 0 -1.3523e+06 6.02008e+06 0 -1.31503e+06 6.05449e+06 0 -1.27691e+06 6.08875e+06 0 -1.23791e+06 6.12283e+06 0 -1.19801e+06 6.15667e+06 0 -1.15721e+06 6.19021e+06 0 -1.11547e+06 6.22341e+06 0 -1.07281e+06 6.25622e+06 0 -1.0292e+06 6.28859e+06 0 -984648 6.32047e+06 0 -939143 6.35182e+06 0 -892686 6.38258e+06 0 -845278 6.41272e+06 0 -796921 6.44219e+06 0 -747622 6.47095e+06 0 -697387 6.49894e+06 0 -646225 6.52613e+06 0 -594149 6.55247e+06 0 -541170 6.57793e+06 0 -487305 6.60247e+06 0 -432570 6.62603e+06 0 -376984 6.64859e+06 0 -320570 6.6701e+06 0 -263348 6.69053e+06 0 -205345 6.70984e+06 0 -146587 6.72799e+06 0 -87101.3 6.74496e+06 0 -26919.2 6.7607e+06 0 33927.9 6.77519e+06 0 95406.7 6.78841e+06 0 157482 6.8003e+06 0 220118 6.81087e+06 0 283276 6.82006e+06 0 346917 6.82788e+06 0 411000 6.83428e+06 0 475484 6.83925e+06 0 540326 6.84278e+06 0 605482 6.84485e+06 0 670907 6.84544e+06 0 736555 6.84454e+06 0 802380 6.84214e+06 0 868335 6.83824e+06 0 934372 6.83283e+06 0 1.00044e+06 6.82591e+06 0 1.0665e+06 6.81747e+06 0 1.1325e+06 6.80752e+06 0 1.19838e+06 6.79606e+06 0 1.26411e+06 6.7831e+06 0 1.32963e+06 6.76865e+06 0 1.3949e+06 6.75272e+06 0 1.45987e+06 6.73532e+06 0 1.52449e+06 6.71646e+06 0 1.58871e+06 6.69617e+06 0 1.6525e+06 6.67447e+06 0 1.7158e+06 6.65137e+06 0 1.77858e+06 6.62691e+06 0 1.84079e+06 6.60111e+06 0 1.9024e+06 6.574e+06 0 1.96335e+06 6.54561e+06 0 2.02363e+06 6.51596e+06 0 2.08319e+06 6.48511e+06 0 2.14199e+06 6.45308e+06 0 2.20001e+06 6.41992e+06 0 2.25722e+06 6.38565e+06 0 2.31358e+06 6.35033e+06 0 2.36907e+06 6.314e+06 0 2.42367e+06 6.27669e+06 0 2.47736e+06 6.23847e+06 0 2.53012e+06 6.19936e+06 0 2.58193e+06 6.15943e+06 0 2.63277e+06 6.11872e+06 0 2.68264e+06 6.07728e+06 0 2.73153e+06 6.03515e+06 0 2.77943e+06 5.9924e+06 0 2.82633e+06 5.94907e+06 0 2.87224e+06 5.90522e+06 0 2.91716e+06 5.8609e+06 0 2.9611e+06 5.81616e+06 0 3.00405e+06 5.77105e+06 0 3.04604e+06 5.72564e+06 0 3.08708e+06 5.67997e+06 0 3.12719e+06 5.6341e+06 0 3.16637e+06 5.58808e+06 0 3.20468e+06 5.54198e+06 0 3.24212e+06 5.49584e+06 0 3.27873e+06 5.44972e+06 0 3.31455e+06 5.40368e+06 0 3.34963e+06 5.35777e+06 0 3.384e+06 5.31205e+06 0 3.41772e+06 5.26658e+06 0 3.45085e+06 5.22142e+06 0 3.48345e+06 5.17662e+06 0 3.5156e+06 5.13225e+06 0 3.54739e+06 5.08837e+06 0 3.57892e+06 5.04503e+06 0 3.61029e+06 5.00231e+06 0 3.64164e+06 4.96026e+06 0 3.67312e+06 4.91894e+06 0 3.70494e+06 4.87842e+06 0 3.73733e+06 4.83873e+06 0 3.77058e+06 4.7999e+06 0 3.80506e+06 4.76189e+06 0 3.8413e+06 4.7245e+06 0 -2.22999e+06 5.32193e+06 0 -2.16588e+06 5.33358e+06 0 -2.1107e+06 5.34565e+06 0 -2.06218e+06 5.35945e+06 0 -2.01866e+06 5.37542e+06 0 -1.97882e+06 5.39361e+06 0 -1.94172e+06 5.41387e+06 0 -1.90665e+06 5.43602e+06 0 -1.87308e+06 5.45985e+06 0 -1.84058e+06 5.48518e+06 0 -1.80885e+06 5.51182e+06 0 -1.77761e+06 5.53961e+06 0 -1.74666e+06 5.56841e+06 0 -1.71583e+06 5.59808e+06 0 -1.68498e+06 5.62852e+06 0 -1.65397e+06 5.65961e+06 0 -1.62272e+06 5.69126e+06 0 -1.59112e+06 5.72337e+06 0 -1.55911e+06 5.75588e+06 0 -1.52662e+06 5.7887e+06 0 -1.49358e+06 5.82175e+06 0 -1.45995e+06 5.85498e+06 0 -1.42569e+06 5.88832e+06 0 -1.39075e+06 5.92171e+06 0 -1.35509e+06 5.95509e+06 0 -1.31869e+06 5.98841e+06 0 -1.28153e+06 6.02162e+06 0 -1.24356e+06 6.05465e+06 0 -1.20479e+06 6.08747e+06 0 -1.16519e+06 6.12002e+06 0 -1.12473e+06 6.15226e+06 0 -1.08342e+06 6.18414e+06 0 -1.04125e+06 6.21562e+06 0 -998196 6.24664e+06 0 -954265 6.27717e+06 0 -909449 6.30716e+06 0 -863750 6.33656e+06 0 -817168 6.36535e+06 0 -769706 6.39347e+06 0 -721370 6.42088e+06 0 -672166 6.44755e+06 0 -622104 6.47344e+06 0 -571194 6.4985e+06 0 -519449 6.52269e+06 0 -466884 6.54599e+06 0 -413514 6.56835e+06 0 -359358 6.58974e+06 0 -304436 6.61013e+06 0 -248768 6.62947e+06 0 -192378 6.64774e+06 0 -135291 6.66491e+06 0 -77533.4 6.68094e+06 0 -19131.9 6.69581e+06 0 39883.7 6.70948e+06 0 99482.6 6.72193e+06 0 159633 6.73314e+06 0 220301 6.74308e+06 0 281453 6.75172e+06 0 343052 6.75906e+06 0 405062 6.76506e+06 0 467445 6.76971e+06 0 530162 6.77299e+06 0 593172 6.7749e+06 0 656436 6.77541e+06 0 719912 6.77451e+06 0 783558 6.77221e+06 0 847332 6.76848e+06 0 911190 6.76334e+06 0 975090 6.75676e+06 0 1.03899e+06 6.74876e+06 0 1.10284e+06 6.73933e+06 0 1.1666e+06 6.72848e+06 0 1.23023e+06 6.71621e+06 0 1.29369e+06 6.70253e+06 0 1.35692e+06 6.68745e+06 0 1.41989e+06 6.67098e+06 0 1.48256e+06 6.65314e+06 0 1.54488e+06 6.63393e+06 0 1.60682e+06 6.61338e+06 0 1.66832e+06 6.59151e+06 0 1.72936e+06 6.56834e+06 0 1.7899e+06 6.54389e+06 0 1.84989e+06 6.51818e+06 0 1.90931e+06 6.49125e+06 0 1.96811e+06 6.46313e+06 0 2.02627e+06 6.43384e+06 0 2.08376e+06 6.40341e+06 0 2.14053e+06 6.37188e+06 0 2.19657e+06 6.33929e+06 0 2.25185e+06 6.30567e+06 0 2.30635e+06 6.27106e+06 0 2.36003e+06 6.2355e+06 0 2.41289e+06 6.19902e+06 0 2.46489e+06 6.16168e+06 0 2.51603e+06 6.12352e+06 0 2.56629e+06 6.08457e+06 0 2.61566e+06 6.04489e+06 0 2.66413e+06 6.00451e+06 0 2.71169e+06 5.96349e+06 0 2.75834e+06 5.92187e+06 0 2.80408e+06 5.87971e+06 0 2.84889e+06 5.83704e+06 0 2.8928e+06 5.79392e+06 0 2.9358e+06 5.75039e+06 0 2.9779e+06 5.70651e+06 0 3.01912e+06 5.66233e+06 0 3.05947e+06 5.61789e+06 0 3.09897e+06 5.57325e+06 0 3.13763e+06 5.52845e+06 0 3.17549e+06 5.48356e+06 0 3.21258e+06 5.43861e+06 0 3.24892e+06 5.39366e+06 0 3.28455e+06 5.34876e+06 0 3.31952e+06 5.30396e+06 0 3.35387e+06 5.25932e+06 0 3.38766e+06 5.21488e+06 0 3.42095e+06 5.1707e+06 0 3.4538e+06 5.12682e+06 0 3.48629e+06 5.08331e+06 0 3.51852e+06 5.0402e+06 0 3.55057e+06 4.99755e+06 0 3.58257e+06 4.9554e+06 0 3.61466e+06 4.9138e+06 0 3.647e+06 4.87277e+06 0 3.67977e+06 4.83235e+06 0 3.7132e+06 4.79252e+06 0 3.74757e+06 4.75323e+06 0 3.78323e+06 4.71435e+06 0 -2.20479e+06 5.2736e+06 0 -2.14331e+06 5.29131e+06 0 -2.08905e+06 5.30857e+06 0 -2.04051e+06 5.32652e+06 0 -1.99645e+06 5.34569e+06 0 -1.95582e+06 5.36631e+06 0 -1.91784e+06 5.38839e+06 0 -1.88185e+06 5.41186e+06 0 -1.84737e+06 5.43663e+06 0 -1.81402e+06 5.46257e+06 0 -1.78148e+06 5.48956e+06 0 -1.74949e+06 5.51749e+06 0 -1.71786e+06 5.54625e+06 0 -1.6864e+06 5.57572e+06 0 -1.65498e+06 5.60583e+06 0 -1.62347e+06 5.63647e+06 0 -1.59177e+06 5.66756e+06 0 -1.55979e+06 5.69904e+06 0 -1.52745e+06 5.73082e+06 0 -1.49469e+06 5.76284e+06 0 -1.46144e+06 5.79504e+06 0 -1.42766e+06 5.82736e+06 0 -1.3933e+06 5.85973e+06 0 -1.35833e+06 5.8921e+06 0 -1.3227e+06 5.92443e+06 0 -1.28638e+06 5.95666e+06 0 -1.24936e+06 5.98873e+06 0 -1.2116e+06 6.02061e+06 0 -1.17309e+06 6.05225e+06 0 -1.13381e+06 6.0836e+06 0 -1.09374e+06 6.11462e+06 0 -1.05288e+06 6.14526e+06 0 -1.01121e+06 6.17548e+06 0 -968724 6.20524e+06 0 -925424 6.2345e+06 0 -881304 6.26322e+06 0 -836363 6.29136e+06 0 -790601 6.31889e+06 0 -744023 6.34575e+06 0 -696634 6.37192e+06 0 -648439 6.39736e+06 0 -599449 6.42203e+06 0 -549672 6.44589e+06 0 -499122 6.46892e+06 0 -447812 6.49108e+06 0 -395757 6.51233e+06 0 -342974 6.53264e+06 0 -289481 6.55198e+06 0 -235299 6.57032e+06 0 -180450 6.58764e+06 0 -124955 6.60389e+06 0 -68839.3 6.61906e+06 0 -12128.6 6.63311e+06 0 45150.3 6.64603e+06 0 102969 6.65779e+06 0 161298 6.66836e+06 0 220108 6.67772e+06 0 279366 6.68586e+06 0 339039 6.69275e+06 0 399095 6.69838e+06 0 459497 6.70273e+06 0 520213 6.70578e+06 0 581203 6.70753e+06 0 642433 6.70796e+06 0 703865 6.70707e+06 0 765460 6.70484e+06 0 827181 6.70127e+06 0 888987 6.69636e+06 0 950841 6.69009e+06 0 1.0127e+06 6.68248e+06 0 1.07453e+06 6.67352e+06 0 1.13629e+06 6.66321e+06 0 1.19794e+06 6.65157e+06 0 1.25943e+06 6.63859e+06 0 1.32074e+06 6.62428e+06 0 1.38182e+06 6.60865e+06 0 1.44263e+06 6.59172e+06 0 1.50314e+06 6.5735e+06 0 1.56331e+06 6.554e+06 0 1.62309e+06 6.53324e+06 0 1.68247e+06 6.51125e+06 0 1.74139e+06 6.48803e+06 0 1.79983e+06 6.46361e+06 0 1.85775e+06 6.43802e+06 0 1.91512e+06 6.41128e+06 0 1.97192e+06 6.38342e+06 0 2.0281e+06 6.35446e+06 0 2.08365e+06 6.32444e+06 0 2.13853e+06 6.29339e+06 0 2.19273e+06 6.26134e+06 0 2.24621e+06 6.22832e+06 0 2.29896e+06 6.19437e+06 0 2.35096e+06 6.15953e+06 0 2.40218e+06 6.12383e+06 0 2.45261e+06 6.08731e+06 0 2.50224e+06 6.05001e+06 0 2.55106e+06 6.01198e+06 0 2.59905e+06 5.97324e+06 0 2.6462e+06 5.93385e+06 0 2.69252e+06 5.89385e+06 0 2.73799e+06 5.85327e+06 0 2.78262e+06 5.81217e+06 0 2.82641e+06 5.77059e+06 0 2.86936e+06 5.72857e+06 0 2.91148e+06 5.68616e+06 0 2.95278e+06 5.64341e+06 0 2.99326e+06 5.60035e+06 0 3.03296e+06 5.55704e+06 0 3.07187e+06 5.51352e+06 0 3.11004e+06 5.46984e+06 0 3.14747e+06 5.42604e+06 0 3.18421e+06 5.38217e+06 0 3.22028e+06 5.33828e+06 0 3.25572e+06 5.29442e+06 0 3.29057e+06 5.25062e+06 0 3.32489e+06 5.20693e+06 0 3.35873e+06 5.16341e+06 0 3.39214e+06 5.12009e+06 0 3.42521e+06 5.07701e+06 0 3.45799e+06 5.03422e+06 0 3.49059e+06 4.99176e+06 0 3.52311e+06 4.94966e+06 0 3.55566e+06 4.90795e+06 0 3.58838e+06 4.86665e+06 0 3.62142e+06 4.82576e+06 0 3.65496e+06 4.78527e+06 0 3.68921e+06 4.74514e+06 0 3.7244e+06 4.70525e+06 0 -2.17635e+06 5.22899e+06 0 -2.11746e+06 5.25131e+06 0 -2.06451e+06 5.27268e+06 0 -2.01643e+06 5.29404e+06 0 -1.97231e+06 5.31596e+06 0 -1.93133e+06 5.33872e+06 0 -1.89281e+06 5.36244e+06 0 -1.85622e+06 5.38713e+06 0 -1.82112e+06 5.41277e+06 0 -1.78713e+06 5.4393e+06 0 -1.75397e+06 5.46664e+06 0 -1.72141e+06 5.49471e+06 0 -1.68923e+06 5.52344e+06 0 -1.65728e+06 5.55274e+06 0 -1.62541e+06 5.58254e+06 0 -1.5935e+06 5.61277e+06 0 -1.56145e+06 5.64336e+06 0 -1.52917e+06 5.67423e+06 0 -1.49659e+06 5.70534e+06 0 -1.46364e+06 5.73662e+06 0 -1.43025e+06 5.76801e+06 0 -1.39639e+06 5.79946e+06 0 -1.36199e+06 5.83093e+06 0 -1.32704e+06 5.86235e+06 0 -1.29148e+06 5.89368e+06 0 -1.2553e+06 5.92488e+06 0 -1.21846e+06 5.9559e+06 0 -1.18094e+06 5.98669e+06 0 -1.14272e+06 6.01722e+06 0 -1.10379e+06 6.04744e+06 0 -1.06413e+06 6.0773e+06 0 -1.02374e+06 6.10678e+06 0 -982590 6.13583e+06 0 -940689 6.16442e+06 0 -898028 6.19249e+06 0 -854605 6.22003e+06 0 -810419 6.24699e+06 0 -765471 6.27333e+06 0 -719765 6.29902e+06 0 -673305 6.32403e+06 0 -626097 6.34833e+06 0 -578151 6.37187e+06 0 -529475 6.39463e+06 0 -480082 6.41657e+06 0 -429983 6.43766e+06 0 -379194 6.45788e+06 0 -327730 6.4772e+06 0 -275609 6.49558e+06 0 -222849 6.51299e+06 0 -169470 6.52942e+06 0 -115493 6.54483e+06 0 -60941.5 6.5592e+06 0 -5838.11 6.57251e+06 0 49792 6.58473e+06 0 105923 6.59584e+06 0 162527 6.60582e+06 0 219578 6.61466e+06 0 277045 6.62232e+06 0 334898 6.6288e+06 0 393108 6.63409e+06 0 451643 6.63816e+06 0 510470 6.641e+06 0 569556 6.6426e+06 0 628869 6.64296e+06 0 688373 6.64206e+06 0 748034 6.63989e+06 0 807818 6.63646e+06 0 867690 6.63175e+06 0 927612 6.62576e+06 0 987551 6.6185e+06 0 1.04747e+06 6.60996e+06 0 1.10733e+06 6.60015e+06 0 1.1671e+06 6.58906e+06 0 1.22674e+06 6.57671e+06 0 1.28622e+06 6.5631e+06 0 1.34551e+06 6.54824e+06 0 1.40455e+06 6.53214e+06 0 1.46333e+06 6.51481e+06 0 1.52181e+06 6.49627e+06 0 1.57995e+06 6.47653e+06 0 1.63772e+06 6.4556e+06 0 1.69509e+06 6.43351e+06 0 1.75203e+06 6.41027e+06 0 1.8085e+06 6.3859e+06 0 1.86449e+06 6.36044e+06 0 1.91995e+06 6.33389e+06 0 1.97486e+06 6.30629e+06 0 2.0292e+06 6.27766e+06 0 2.08294e+06 6.24802e+06 0 2.13605e+06 6.21742e+06 0 2.18852e+06 6.18588e+06 0 2.24032e+06 6.15343e+06 0 2.29144e+06 6.12009e+06 0 2.34186e+06 6.08592e+06 0 2.39155e+06 6.05094e+06 0 2.44051e+06 6.01518e+06 0 2.48872e+06 5.97868e+06 0 2.53618e+06 5.94148e+06 0 2.58288e+06 5.90362e+06 0 2.6288e+06 5.86514e+06 0 2.67394e+06 5.82607e+06 0 2.71831e+06 5.78646e+06 0 2.7619e+06 5.74634e+06 0 2.80472e+06 5.70575e+06 0 2.84677e+06 5.66475e+06 0 2.88805e+06 5.62336e+06 0 2.92858e+06 5.58163e+06 0 2.96837e+06 5.5396e+06 0 3.00743e+06 5.49732e+06 0 3.04579e+06 5.45482e+06 0 3.08347e+06 5.41215e+06 0 3.12049e+06 5.36936e+06 0 3.15689e+06 5.32647e+06 0 3.19269e+06 5.28353e+06 0 3.22793e+06 5.24059e+06 0 3.26266e+06 5.19769e+06 0 3.29693e+06 5.15486e+06 0 3.33079e+06 5.11213e+06 0 3.3643e+06 5.06956e+06 0 3.39753e+06 5.02717e+06 0 3.43056e+06 4.985e+06 0 3.46347e+06 4.94306e+06 0 3.49637e+06 4.90139e+06 0 3.52937e+06 4.85999e+06 0 3.56259e+06 4.81886e+06 0 3.59619e+06 4.77799e+06 0 3.63031e+06 4.73733e+06 0 3.66514e+06 4.69679e+06 0 -2.14559e+06 5.1875e+06 0 -2.0892e+06 5.21342e+06 0 -2.03774e+06 5.23805e+06 0 -1.99043e+06 5.26223e+06 0 -1.94659e+06 5.28646e+06 0 -1.90558e+06 5.31107e+06 0 -1.86683e+06 5.33623e+06 0 -1.8299e+06 5.36202e+06 0 -1.79438e+06 5.38846e+06 0 -1.75996e+06 5.41553e+06 0 -1.72637e+06 5.44319e+06 0 -1.69338e+06 5.4714e+06 0 -1.6608e+06 5.50011e+06 0 -1.62847e+06 5.52925e+06 0 -1.59627e+06 5.55877e+06 0 -1.56406e+06 5.58862e+06 0 -1.53175e+06 5.61872e+06 0 -1.49926e+06 5.64904e+06 0 -1.46651e+06 5.67951e+06 0 -1.43343e+06 5.71009e+06 0 -1.39997e+06 5.74073e+06 0 -1.36608e+06 5.77137e+06 0 -1.33171e+06 5.80198e+06 0 -1.29682e+06 5.83251e+06 0 -1.26139e+06 5.8629e+06 0 -1.22537e+06 5.89314e+06 0 -1.18876e+06 5.92316e+06 0 -1.15151e+06 5.95293e+06 0 -1.11362e+06 5.98241e+06 0 -1.07507e+06 6.01157e+06 0 -1.03584e+06 6.04036e+06 0 -995923 6.06875e+06 0 -955314 6.0967e+06 0 -914002 6.12418e+06 0 -871985 6.15115e+06 0 -829259 6.17758e+06 0 -785824 6.20343e+06 0 -741680 6.22868e+06 0 -696832 6.25328e+06 0 -651283 6.27721e+06 0 -605040 6.30044e+06 0 -558111 6.32293e+06 0 -510504 6.34466e+06 0 -462230 6.36559e+06 0 -413302 6.3857e+06 0 -363732 6.40497e+06 0 -313537 6.42335e+06 0 -262731 6.44084e+06 0 -211332 6.4574e+06 0 -159359 6.47301e+06 0 -106832 6.48764e+06 0 -53770 6.50127e+06 0 -196.378 6.51389e+06 0 53866.4 6.52546e+06 0 108394 6.53598e+06 0 163363 6.54542e+06 0 218746 6.55376e+06 0 274517 6.56099e+06 0 330649 6.56709e+06 0 387114 6.57205e+06 0 443882 6.57586e+06 0 500925 6.5785e+06 0 558213 6.57997e+06 0 615714 6.58025e+06 0 673398 6.57933e+06 0 731233 6.57722e+06 0 789188 6.5739e+06 0 847231 6.56938e+06 0 905328 6.56364e+06 0 963448 6.55669e+06 0 1.02156e+06 6.54853e+06 0 1.07963e+06 6.53916e+06 0 1.13762e+06 6.52859e+06 0 1.1955e+06 6.51681e+06 0 1.25324e+06 6.50383e+06 0 1.31082e+06 6.48967e+06 0 1.36818e+06 6.47432e+06 0 1.42531e+06 6.45781e+06 0 1.48217e+06 6.44014e+06 0 1.53874e+06 6.42132e+06 0 1.59497e+06 6.40137e+06 0 1.65085e+06 6.38031e+06 0 1.70634e+06 6.35815e+06 0 1.76142e+06 6.3349e+06 0 1.81605e+06 6.3106e+06 0 1.87021e+06 6.28526e+06 0 1.92388e+06 6.25891e+06 0 1.97703e+06 6.23155e+06 0 2.02964e+06 6.20323e+06 0 2.08168e+06 6.17397e+06 0 2.13314e+06 6.14379e+06 0 2.18399e+06 6.11273e+06 0 2.23422e+06 6.0808e+06 0 2.2838e+06 6.04804e+06 0 2.33273e+06 6.01449e+06 0 2.38099e+06 5.98017e+06 0 2.42857e+06 5.94511e+06 0 2.47545e+06 5.90936e+06 0 2.52164e+06 5.87294e+06 0 2.56711e+06 5.83588e+06 0 2.61187e+06 5.79824e+06 0 2.65591e+06 5.76003e+06 0 2.69924e+06 5.72129e+06 0 2.74185e+06 5.68207e+06 0 2.78374e+06 5.64241e+06 0 2.82493e+06 5.60233e+06 0 2.86542e+06 5.56187e+06 0 2.90522e+06 5.52108e+06 0 2.94434e+06 5.48e+06 0 2.9828e+06 5.43865e+06 0 3.02063e+06 5.39709e+06 0 3.05784e+06 5.35534e+06 0 3.09445e+06 5.31344e+06 0 3.13051e+06 5.27144e+06 0 3.16604e+06 5.22936e+06 0 3.20108e+06 5.18725e+06 0 3.23567e+06 5.14514e+06 0 3.26987e+06 5.10306e+06 0 3.30372e+06 5.06104e+06 0 3.33728e+06 5.01912e+06 0 3.37063e+06 4.97731e+06 0 3.40384e+06 4.93564e+06 0 3.437e+06 4.89413e+06 0 3.4702e+06 4.85277e+06 0 3.50354e+06 4.81158e+06 0 3.53714e+06 4.77052e+06 0 3.57113e+06 4.72957e+06 0 3.60566e+06 4.68866e+06 0 -2.11315e+06 5.14875e+06 0 -2.05916e+06 5.17746e+06 0 -2.00927e+06 5.20471e+06 0 -1.96292e+06 5.23117e+06 0 -1.9196e+06 5.25734e+06 0 -1.8788e+06 5.28353e+06 0 -1.84006e+06 5.30995e+06 0 -1.803e+06 5.3367e+06 0 -1.76727e+06 5.36384e+06 0 -1.73259e+06 5.39139e+06 0 -1.69871e+06 5.41935e+06 0 -1.66543e+06 5.44768e+06 0 -1.63257e+06 5.47636e+06 0 -1.59999e+06 5.50536e+06 0 -1.56754e+06 5.53461e+06 0 -1.53513e+06 5.56409e+06 0 -1.50265e+06 5.59375e+06 0 -1.47003e+06 5.62354e+06 0 -1.43718e+06 5.65342e+06 0 -1.40404e+06 5.68334e+06 0 -1.37057e+06 5.71327e+06 0 -1.3367e+06 5.74315e+06 0 -1.3024e+06 5.77295e+06 0 -1.26763e+06 5.80263e+06 0 -1.23236e+06 5.83215e+06 0 -1.19655e+06 5.86147e+06 0 -1.16019e+06 5.89056e+06 0 -1.12325e+06 5.91937e+06 0 -1.08571e+06 5.94787e+06 0 -1.04755e+06 5.97603e+06 0 -1.00877e+06 6.00382e+06 0 -969357 6.03118e+06 0 -929294 6.05811e+06 0 -888579 6.08455e+06 0 -847207 6.11049e+06 0 -805176 6.13588e+06 0 -762486 6.1607e+06 0 -719138 6.18492e+06 0 -675134 6.2085e+06 0 -630478 6.23142e+06 0 -585177 6.25366e+06 0 -539237 6.27517e+06 0 -492667 6.29594e+06 0 -445478 6.31594e+06 0 -397680 6.33514e+06 0 -349286 6.35351e+06 0 -300310 6.37104e+06 0 -250767 6.3877e+06 0 -200673 6.40346e+06 0 -150045 6.41831e+06 0 -98901.8 6.43222e+06 0 -47261.9 6.44517e+06 0 4854.22 6.45715e+06 0 57425.3 6.46813e+06 0 110430 6.47809e+06 0 163844 6.48702e+06 0 217645 6.49491e+06 0 271808 6.50173e+06 0 326308 6.50748e+06 0 381120 6.51215e+06 0 436216 6.51571e+06 0 491571 6.51816e+06 0 547156 6.51949e+06 0 602944 6.5197e+06 0 658906 6.51877e+06 0 715014 6.5167e+06 0 771238 6.51349e+06 0 827550 6.50913e+06 0 883920 6.50361e+06 0 940318 6.49695e+06 0 996715 6.48913e+06 0 1.05308e+06 6.48016e+06 0 1.10938e+06 6.47004e+06 0 1.1656e+06 6.45878e+06 0 1.22169e+06 6.44638e+06 0 1.27763e+06 6.43285e+06 0 1.3334e+06 6.4182e+06 0 1.38895e+06 6.40242e+06 0 1.44427e+06 6.38555e+06 0 1.49932e+06 6.36757e+06 0 1.55408e+06 6.34852e+06 0 1.60852e+06 6.3284e+06 0 1.66262e+06 6.30723e+06 0 1.71634e+06 6.28501e+06 0 1.76966e+06 6.26179e+06 0 1.82256e+06 6.23756e+06 0 1.87501e+06 6.21234e+06 0 1.927e+06 6.18617e+06 0 1.97849e+06 6.15906e+06 0 2.02948e+06 6.13104e+06 0 2.07993e+06 6.10212e+06 0 2.12983e+06 6.07234e+06 0 2.17916e+06 6.04172e+06 0 2.2279e+06 6.01029e+06 0 2.27605e+06 5.97806e+06 0 2.32359e+06 5.94509e+06 0 2.3705e+06 5.91138e+06 0 2.41678e+06 5.87698e+06 0 2.46241e+06 5.8419e+06 0 2.50739e+06 5.8062e+06 0 2.55171e+06 5.76989e+06 0 2.59537e+06 5.73301e+06 0 2.63837e+06 5.69559e+06 0 2.68071e+06 5.65767e+06 0 2.72239e+06 5.61927e+06 0 2.76341e+06 5.58044e+06 0 2.80378e+06 5.54121e+06 0 2.84351e+06 5.50161e+06 0 2.88261e+06 5.46168e+06 0 2.92109e+06 5.42145e+06 0 2.95898e+06 5.38096e+06 0 2.99628e+06 5.34024e+06 0 3.03303e+06 5.29932e+06 0 3.06925e+06 5.25824e+06 0 3.10497e+06 5.21703e+06 0 3.14023e+06 5.17572e+06 0 3.17505e+06 5.13435e+06 0 3.20948e+06 5.09294e+06 0 3.24358e+06 5.05152e+06 0 3.27739e+06 5.01011e+06 0 3.31098e+06 4.96874e+06 0 3.3444e+06 4.92742e+06 0 3.37773e+06 4.88617e+06 0 3.41105e+06 4.84498e+06 0 3.44445e+06 4.80386e+06 0 3.47803e+06 4.76278e+06 0 3.51189e+06 4.72172e+06 0 3.54614e+06 4.68063e+06 0 -2.07954e+06 5.11239e+06 0 -2.02781e+06 5.14329e+06 0 -1.97951e+06 5.1726e+06 0 -1.93425e+06 5.20093e+06 0 -1.89161e+06 5.2287e+06 0 -1.8512e+06 5.25622e+06 0 -1.81265e+06 5.2837e+06 0 -1.77564e+06 5.31128e+06 0 -1.73985e+06 5.33904e+06 0 -1.70506e+06 5.36701e+06 0 -1.67104e+06 5.39522e+06 0 -1.6376e+06 5.42365e+06 0 -1.60457e+06 5.4523e+06 0 -1.57183e+06 5.48115e+06 0 -1.53924e+06 5.51015e+06 0 -1.50671e+06 5.53929e+06 0 -1.47413e+06 5.56852e+06 0 -1.44144e+06 5.59781e+06 0 -1.40856e+06 5.62713e+06 0 -1.37543e+06 5.65643e+06 0 -1.34199e+06 5.68569e+06 0 -1.3082e+06 5.71485e+06 0 -1.27402e+06 5.7439e+06 0 -1.23941e+06 5.77278e+06 0 -1.20434e+06 5.80147e+06 0 -1.16878e+06 5.82994e+06 0 -1.1327e+06 5.85814e+06 0 -1.09609e+06 5.88605e+06 0 -1.05892e+06 5.91364e+06 0 -1.02119e+06 5.94086e+06 0 -982870 5.96769e+06 0 -943962 5.9941e+06 0 -904454 6.02006e+06 0 -864339 6.04554e+06 0 -823614 6.0705e+06 0 -782276 6.09493e+06 0 -740325 6.11878e+06 0 -697760 6.14204e+06 0 -654585 6.16467e+06 0 -610804 6.18666e+06 0 -566421 6.20796e+06 0 -521445 6.22857e+06 0 -475882 6.24844e+06 0 -429743 6.26757e+06 0 -383037 6.28