<?xml version="1.0"?> 
<VTKFile type="StructuredGrid" version="0.1"> 
<StructuredGrid WholeExtent="0 15 0 15 0 0"> 
<Piece Extent="0 15 0 15 0 0"> 
<PointData>
<DataArray type="Float32" Name="E" format="ascii" NumberOfComponents="3"> 
-1.80621e+06 5.89553e+06 0 -1.80354e+06 5.38123e+06 0 -1.62344e+06 5.08204e+06 0 -1.42947e+06 4.85948e+06 0 -1.25243e+06 4.68196e+06 0 -1.08958e+06 4.53643e+06 0 -943611 4.41435e+06 0 -810969 4.3114e+06 0 -690075 4.22413e+06 0 -578369 4.15044e+06 0 -473920 4.08862e+06 0 -374811 4.03742e+06 0 -279367 3.99579e+06 0 -186037 3.96288e+06 0 -93372.4 3.93793e+06 0 0 3.92025e+06 0 -1.63988e+06 5.72911e+06 0 -1.6045e+06 5.43647e+06 0 -1.46511e+06 5.16956e+06 0 -1.30608e+06 4.95082e+06 0 -1.15072e+06 4.76967e+06 0 -1.0067e+06 4.6178e+06 0 -874799 4.48959e+06 0 -754269 4.3809e+06 0 -643428 4.28885e+06 0 -540537 4.21119e+06 0 -443845 4.14626e+06 0 -351728 4.09269e+06 0 -262668 4.04942e+06 0 -175247 4.01552e+06 0 -88124.3 3.99021e+06 0 0 3.9728e+06 0 -1.51602e+06 5.71214e+06 0 -1.44215e+06 5.48126e+06 0 -1.32149e+06 5.24229e+06 0 -1.18491e+06 5.02985e+06 0 -1.04961e+06 4.84716e+06 0 -922210 4.69113e+06 0 -804338 4.5581e+06 0 -695681 4.44486e+06 0 -595098 4.3488e+06 0 -501188 4.26782e+06 0 -412496 4.20023e+06 0 -327612 4.14467e+06 0 -245184 4.10003e+06 0 -163929 4.06536e+06 0 -82605.7 4.03988e+06 0 0 4.02288e+06 0 -1.40053e+06 5.7439e+06 0 -1.30134e+06 5.53088e+06 0 -1.18783e+06 5.30695e+06 0 -1.06745e+06 5.09929e+06 0 -949072 4.91588e+06 0 -836993 4.75685e+06 0 -732566 4.62013e+06 0 -635623 4.50324e+06 0 -545315 4.4039e+06 0 -460510 4.32014e+06 0 -379992 4.25034e+06 0 -302541 4.19313e+06 0 -226965 4.14739e+06 0 -152106 4.11218e+06 0 -76827.4 4.08668e+06 0 0 4.07023e+06 0 -1.28418e+06 5.79833e+06 0 -1.17007e+06 5.58586e+06 0 -1.06066e+06 5.36691e+06 0 -952981 5.16122e+06 0 -849303 4.97692e+06 0 -751395 4.81552e+06 0 -659843 4.67587e+06 0 -574386 4.55605e+06 0 -494308 4.45405e+06 0 -418671 4.36803e+06 0 -346450 4.29642e+06 0 -276595 4.23788e+06 0 -208060 4.19129e+06 0 -139806 4.15572e+06 0 -70800.3 4.13038e+06 0 0 4.11459e+06 0 -1.16306e+06 5.86531e+06 0 -1.04172e+06 5.64406e+06 0 -936951 5.42337e+06 0 -840499 5.21688e+06 0 -750194 5.03109e+06 0 -665589 4.86757e+06 0 -586417 4.72554e+06 0 -512202 4.60337e+06 0 -442271 4.49922e+06 0 -375820 4.41137e+06 0 -311980 4.33831e+06 0 -249850 4.27873e+06 0 -188515 4.23153e+06 0 -127055 4.19578e+06 0 -64536 4.17072e+06 0 0 4.15571e+06 0 -1.0348e+06 5.93871e+06 0 -912529 5.70323e+06 0 -814390 5.47637e+06 0 -729060 5.26687e+06 0 -651507 5.07892e+06 0 -579640 4.91336e+06 0 -512457 4.76933e+06 0 -449255 4.64525e+06 0 -389366 4.53939e+06 0 -332088 4.45009e+06 0 -276681 4.37589e+06 0 -222375 4.31552e+06 0 -168380 4.26791e+06 0 -113883 4.23215e+06 0 -58046.5 4.20751e+06 0 0 4.19336e+06 0 -897835 6.01448e+06 0 -780277 5.7612e+06 0 -691410 5.52538e+06 0 -617898 5.31137e+06 0 -552995 5.12073e+06 0 -493555 4.95317e+06 0 -438075 4.80741e+06 0 -385686 4.68177e+06 0 -335729 4.57454e+06 0 -287590 4.48411e+06 0 -240644 4.40905e+06 0 -194239 4.34811e+06 0 -147699 4.30027e+06 0 -100315 4.26464e+06 0 -51344 4.24051e+06 0 0 4.22729e+06 0 -751032 6.08925e+06 0 -643668 5.81597e+06 0 -567030 5.56965e+06 0 -506482 5.35029e+06 0 -454458 5.15668e+06 0 -407325 4.98717e+06 0 -363350 4.8399e+06 0 -321605 4.71301e+06 0 -281472 4.60471e+06 0 -242426 4.51341e+06 0 -203949 4.4377e+06 0 -165503 4.37639e+06 0 -126516 4.32846e+06 0 -86379.2 4.29307e+06 0 -44440.7 4.26954e+06 0 0 4.25731e+06 0 -593608 6.16004e+06 0 -502037 5.86564e+06 0 -440751 5.60833e+06 0 -394520 5.3834e+06 0 -355780 5.18682e+06 0 -320952 5.0155e+06 0 -288347 4.86695e+06 0 -257103 4.73903e+06 0 -226689 4.6299e+06 0 -196681 4.53795e+06 0 -166670 4.46179e+06 0 -136223 4.40026e+06 0 -104871 4.35237e+06 0 -72099.7 4.3173e+06 0 -37348.3 4.29442e+06 0 0 4.2832e+06 0 -425071 6.22389e+06 0 -355251 5.90837e+06 0 -312485 5.64056e+06 0 -281942 5.41046e+06 0 -256940 5.21117e+06 0 -234461 5.03827e+06 0 -213126 4.88864e+06 0 -192256 4.75992e+06 0 -171459 4.65015e+06 0 -150429 4.55773e+06 0 -128869 4.48127e+06 0 -106449 4.41964e+06 0 -82800.3 4.37187e+06 0 -57501.3 4.33719e+06 0 -30078.5 4.31499e+06 0 0 4.30479e+06 0 -245245 6.27763e+06 0 -203685 5.94232e+06 0 -182507 5.66556e+06 0 -168878 5.43123e+06 0 -158001 5.22975e+06 0 -147907 5.05557e+06 0 -137747 4.9051e+06 0 -127133 4.77576e+06 0 -115852 4.66552e+06 0 -103736 4.57276e+06 0 -90603.6 4.49611e+06 0 -76229.7 4.43446e+06 0 -60340.5 4.38688e+06 0 -42607 4.35262e+06 0 -22642.7 4.33111e+06 0 0 4.32192e+06 0 -54333 6.31754e+06 0 -48314.9 5.96569e+06 0 -51436 5.68271e+06 0 -55623.3 5.44558e+06 0 -59100.6 5.24262e+06 0 -61370.9 5.06754e+06 0 -62276.8 4.91645e+06 0 -61794.6 4.78664e+06 0 -59927.7 4.67606e+06 0 -56659 4.58306e+06 0 -51924.9 4.5063e+06 0 -45606.2 4.44469e+06 0 -37523.8 4.39733e+06 0 -27439 4.3635e+06 0 -15052 4.34266e+06 0 0 4.33443e+06 0 146946 6.33874e+06 0 109089 5.97678e+06 0 79797.9 5.69166e+06 0 57402.6 5.45351e+06 0 39575.9 5.24988e+06 0 25049.2 5.0743e+06 0 13221.5 4.92281e+06 0 3702.98 4.79268e+06 0 -3738.78 4.68184e+06 0 -9246.6 4.58867e+06 0 -12878 4.51185e+06 0 -14617.5 4.45031e+06 0 -14380.8 4.40317e+06 0 -12018.4 4.36976e+06 0 -7317.08 4.34955e+06 0 0 4.3422e+06 0 356987 6.33313e+06 0 265656 5.97437e+06 0 210001 5.69245e+06 0 169730 5.45523e+06 0 137818 5.25176e+06 0 111255 5.07606e+06 0 88685.2 4.92435e+06 0 69311.5 4.794e+06 0 52669.6 4.68296e+06 0 38457.5 4.58966e+06 0 26497.1 4.51279e+06 0 16700.8 4.45131e+06 0 9059.73 4.40438e+06 0 3634.52 4.37133e+06 0 551.284 4.35169e+06 0 0 4.34514e+06 0 571923 6.28124e+06 0 417624 5.95951e+06 0 337558 5.68558e+06 0 281097 5.45115e+06 0 235330 5.24853e+06 0 197199 5.07302e+06 0 164040 4.92125e+06 0 134998 4.79073e+06 0 109255 4.67953e+06 0 86416.1 4.58609e+06 0 66163 4.50916e+06 0 48315.7 4.44772e+06 0 32770.3 4.40094e+06 0 19499.6 4.36819e+06 0 8542.46 4.34903e+06 0 0 4.34315e+06 0 </DataArray> 
</PointData> 
<Points> 
<DataArray type="Float32" NumberOfComponents="3"> 
0.23996 0.0622248 0 0.239296 0.0666098 0 0.238632 0.0709948 0 0.237968 0.0753798 0 0.237304 0.0797649 0 0.23664 0.0841499 0 0.235976 0.0885349 0 0.235312 0.0929199 0 0.234648 0.0973049 0 0.233984 0.10169 0 0.23332 0.106075 0 0.232656 0.11046 0 0.231992 0.114845 0 0.231328 0.11923 0 0.230664 0.123615 0 0.23 0.128 0 0.242494 0.0629757 0 0.241828 0.0673106 0 0.241161 0.0716456 0 0.240495 0.0759806 0 0.239829 0.0803155 0 0.239163 0.0846505 0 0.238496 0.0889854 0 0.23783 0.0933204 0 0.237164 0.0976553 0 0.236498 0.10199 0 0.235831 0.106325 0 0.235165 0.11066 0 0.234499 0.114995 0 0.233833 0.11933 0 0.233166 0.123665 0 0.2325 0.128 0 0.244984 0.0636628 0 0.244319 0.067952 0 0.243653 0.0722411 0 0.242987 0.0765302 0 0.242322 0.0808194 0 0.241656 0.0851085 0 0.240991 0.0893977 0 0.240325 0.0936868 0 0.239659 0.097976 0 0.238994 0.102265 0 0.238328 0.106554 0 0.237662 0.110843 0 0.236997 0.115133 0 0.236331 0.119422 0 0.235666 0.123711 0 0.235 0.128 0 0.247431 0.0642862 0 0.246769 0.0685337 0 0.246107 0.0727813 0 0.245445 0.0770289 0 0.244783 0.0812765 0 0.244121 0.0855241 0 0.243459 0.0897717 0 0.242797 0.0940193 0 0.242135 0.0982669 0 0.241473 0.102514 0 0.24081 0.106762 0 0.240148 0.11101 0 0.239486 0.115257 0 0.238824 0.119505 0 0.238162 0.123752 0 0.2375 0.128 0 0.249836 0.0648457 0 0.24918 0.069056 0 0.248524 0.0732663 0 0.247869 0.0774766 0 0.247213 0.0816869 0 0.246557 0.0858972 0 0.245901 0.0901074 0 0.245246 0.0943177 0 0.24459 0.098528 0 0.243934 0.102738 0 0.243279 0.106949 0 0.242623 0.111159 0 0.241967 0.115369 0 0.241311 0.119579 0 0.240656 0.12379 0 0.24 0.128 0 0.252197 0.0653415 0 0.25155 0.0695188 0 0.250904 0.073696 0 0.250257 0.0778732 0 0.249611 0.0820505 0 0.248965 0.0862277 0 0.248318 0.0904049 0 0.247672 0.0945822 0 0.247025 0.0987594 0 0.246379 0.102937 0 0.245732 0.107114 0 0.245086 0.111291 0 0.244439 0.115468 0 0.243793 0.119646 0 0.243146 0.123823 0 0.2425 0.128 0 0.254515 0.0657736 0 0.25388 0.069922 0 0.253246 0.0740704 0 0.252612 0.0782189 0 0.251977 0.0823673 0 0.251343 0.0865157 0 0.250709 0.0906641 0 0.250075 0.0948126 0 0.24944 0.098961 0 0.248806 0.103109 0 0.248172 0.107258 0 0.247537 0.111406 0 0.246903 0.115555 0 0.246269 0.119703 0 0.245634 0.123852 0 0.245 0.128 0 0.25679 0.0661418 0 0.25617 0.0702657 0 0.255551 0.0743896 0 0.254932 0.0785135 0 0.254312 0.0826373 0 0.253693 0.0867612 0 0.253074 0.0908851 0 0.252454 0.095009 0 0.251835 0.0991329 0 0.251216 0.103257 0 0.250597 0.107381 0 0.249977 0.111504 0 0.249358 0.115628 0 0.248739 0.119752 0 0.248119 0.123876 0 0.2475 0.128 0 0.259021 0.0664463 0 0.25842 0.0705499 0 0.257819 0.0746535 0 0.257217 0.0787571 0 0.256616 0.0828606 0 0.256014 0.0869642 0 0.255413 0.0910678 0 0.254811 0.0951714 0 0.25421 0.099275 0 0.253609 0.103379 0 0.253007 0.107482 0 0.252406 0.111586 0 0.251804 0.115689 0 0.251203 0.119793 0 0.250601 0.123896 0 0.25 0.128 0 0.26121 0.0666871 0 0.26063 0.0707746 0 0.260049 0.0748621 0 0.259468 0.0789496 0 0.258887 0.0830372 0 0.258307 0.0871247 0 0.257726 0.0912122 0 0.257145 0.0952998 0 0.256565 0.0993873 0 0.255984 0.103475 0 0.255403 0.107562 0 0.254823 0.11165 0 0.254242 0.115737 0 0.253661 0.119825 0 0.253081 0.123912 0 0.2525 0.128 0 0.263356 0.066864 0 0.262799 0.0709397 0 0.262242 0.0750155 0 0.261685 0.0790912 0 0.261128 0.0831669 0 0.260571 0.0872427 0 0.260013 0.0913184 0 0.259456 0.0953941 0 0.258899 0.0994699 0 0.258342 0.103546 0 0.257785 0.107621 0 0.257228 0.111697 0 0.256671 0.115773 0 0.256114 0.119849 0 0.255557 0.123924 0 0.255 0.128 0 0.265458 0.0669772 0 0.264928 0.0710454 0 0.264397 0.0751136 0 0.263867 0.0791818 0 0.263336 0.0832499 0 0.262806 0.0873181 0 0.262275 0.0913863 0 0.261744 0.0954545 0 0.261214 0.0995227 0 0.260683 0.103591 0 0.260153 0.107659 0 0.259622 0.111727 0 0.259092 0.115795 0 0.258561 0.119864 0 0.258031 0.123932 0 0.2575 0.128 0 0.267518 0.0670266 0 0.267017 0.0710915 0 0.266515 0.0751564 0 0.266014 0.0792213 0 0.265513 0.0832862 0 0.265012 0.0873511 0 0.264511 0.091416 0 0.264009 0.0954809 0 0.263508 0.0995457 0 0.263007 0.103611 0 0.262506 0.107676 0 0.262005 0.11174 0 0.261504 0.115805 0 0.261002 0.11987 0 0.260501 0.123935 0 0.26 0.128 0 0.269534 0.0670122 0 0.269065 0.0710781 0 0.268596 0.0751439 0 0.268127 0.0792098 0 0.267658 0.0832756 0 0.267189 0.0873415 0 0.26672 0.0914073 0 0.266252 0.0954732 0 0.265783 0.099539 0 0.265314 0.103605 0 0.264845 0.107671 0 0.264376 0.111737 0 0.263907 0.115802 0 0.263438 0.119868 0 0.262969 0.123934 0 0.2625 0.128 0 0.271507 0.0669341 0 0.271074 0.0710052 0 0.27064 0.0750762 0 0.270206 0.0791473 0 0.269772 0.0832183 0 0.269338 0.0872894 0 0.268904 0.0913605 0 0.268471 0.0954315 0 0.268037 0.0995026 0 0.267603 0.103574 0 0.267169 0.107645 0 0.266735 0.111716 0 0.266301 0.115787 0 0.265868 0.119858 0 0.265434 0.123929 0 0.265 0.128 0 0.273438 0.0667922 0 0.273042 0.0708727 0 0.272646 0.0749533 0 0.27225 0.0790338 0 0.271854 0.0831143 0 0.271458 0.0871948 0 0.271063 0.0912753 0 0.270667 0.0953558 0 0.270271 0.0994364 0 0.269875 0.103517 0 0.269479 0.107597 0 0.269083 0.111678 0 0.268688 0.115758 0 0.268292 0.119839 0 0.267896 0.123919 0 0.2675 0.128 0 
</DataArray>
</Points> 
</Piece> 
</StructuredGrid> 
</VTKFile> 
