<?xml version="1.0"?> 
<VTKFile type="StructuredGrid" version="0.1"> 
<StructuredGrid WholeExtent="0 127 0 127 0 0"> 
<Piece Extent="0 127 0 127 0 0"> 
<PointData>
<DataArray type="Float32" Name="E" format="ascii" NumberOfComponents="3"> 
-994205 0.0065074 0 -994195 -1565.95 0 -994165 -3132.24 0 -994117 -4699.23 0 -994048 -6267.25 0 -993960 -7836.67 0 -993852 -9407.82 0 -993725 -10981.1 0 -993578 -12556.7 0 -993411 -14135.2 0 -993225 -15716.7 0 -993019 -17301.8 0 -992794 -18890.7 0 -992548 -20483.7 0 -992284 -22081.3 0 -991999 -23683.8 0 -991695 -25291.6 0 -991371 -26904.9 0 -991028 -28524.2 0 -990665 -30149.8 0 -990282 -31782 0 -989879 -33421.4 0 -989457 -35068.1 0 -989015 -36722.5 0 -988553 -38385.1 0 -988072 -40056.2 0 -987571 -41736.2 0 -987050 -43425.4 0 -986509 -45124.2 0 -985949 -46833 0 -985368 -48552.1 0 -984768 -50281.9 0 -984148 -52022.9 0 -983509 -53775.3 0 -982850 -55539.6 0 -982170 -57316.1 0 -981472 -59105.2 0 -980753 -60907.3 0 -980015 -62722.8 0 -979257 -64552.1 0 -978479 -66395.5 0 -977681 -68253.4 0 -976864 -70126.2 0 -976027 -72014.3 0 -975171 -73918 0 -974295 -75837.8 0 -973399 -77774 0 -972484 -79727 0 -971550 -81697.2 0 -970596 -83685 0 -969622 -85690.6 0 -968629 -87714.6 0 -967617 -89757.2 0 -966586 -91818.8 0 -965535 -93899.9 0 -964465 -96000.7 0 -963377 -98121.5 0 -962269 -100263 0 -961142 -102425 0 -959996 -104608 0 -958832 -106813 0 -957648 -109039 0 -956447 -111288 0 -955226 -113559 0 -953987 -115853 0 -952730 -118169 0 -951455 -120509 0 -950161 -122873 0 -948850 -125260 0 -947520 -127672 0 -946172 -130108 0 -944807 -132568 0 -943424 -135053 0 -942024 -137563 0 -940606 -140099 0 -939171 -142659 0 -937719 -145245 0 -936250 -147857 0 -934763 -150495 0 -933260 -153158 0 -931740 -155848 0 -930204 -158563 0 -928651 -161304 0 -927081 -164072 0 -925496 -166866 0 -923894 -169686 0 -922276 -172531 0 -920642 -175403 0 -918992 -178301 0 -917326 -181225 0 -915645 -184174 0 -913948 -187149 0 -912235 -190149 0 -910506 -193174 0 -908762 -196223 0 -907003 -199298 0 -905228 -202397 0 -903438 -205519 0 -901633 -208665 0 -899812 -211834 0 -897975 -215026 0 -896123 -218240 0 -894256 -221476 0 -892373 -224733 0 -890475 -228010 0 -888561 -231307 0 -886631 -234624 0 -884685 -237959 0 -882724 -241312 0 -880746 -244683 0 -878753 -248069 0 -876743 -251472 0 -874716 -254888 0 -872673 -258319 0 -870613 -261762 0 -868536 -265218 0 -866442 -268684 0 -864331 -272160 0 -862201 -275644 0 -860054 -279136 0 -857889 -282635 0 -855705 -286138 0 -853503 -289646 0 -851282 -293156 0 -849041 -296668 0 -846782 -300180 0 -844502 -303690 0 -842208 -307196 0 -993223 0.00649735 0 -993213 -1553.54 0 -993183 -3107.43 0 -993133 -4662.01 0 -993064 -6217.64 0 -992975 -7774.65 0 -992866 -9333.39 0 -992737 -10894.2 0 -992589 -12457.5 0 -992420 -14023.5 0 -992232 -15592.6 0 -992024 -17165.3 0 -991796 -18741.7 0 -991548 -20322.3 0 -991280 -21907.5 0 -990993 -23497.5 0 -990685 -25092.8 0 -990358 -26693.7 0 -990010 -28300.5 0 -989643 -29913.6 0 -989256 -31533.4 0 -988849 -33160.2 0 -988422 -34794.4 0 -987975 -36436.4 0 -987508 -38086.5 0 -987021 -39745.1 0 -986514 -41412.6 0 -985987 -43089.3 0 -985440 -44775.5 0 -984873 -46471.8 0 -984287 -48178.4 0 -983680 -49895.7 0 -983053 -51624.1 0 -982406 -53364 0 -981739 -55115.8 0 -981052 -56879.8 0 -980345 -58656.4 0 -979618 -60446 0 -978871 -62249 0 -978104 -64065.8 0 -977318 -65896.7 0 -976511 -67742.1 0 -975684 -69602.5 0 -974838 -71478.1 0 -973971 -73369.4 0 -973085 -75276.8 0 -972179 -77200.6 0 -971253 -79141.3 0 -970308 -81099.1 0 -969342 -83074.6 0 -968358 -85068 0 -967353 -87079.7 0 -966329 -89110.1 0 -965285 -91159.5 0 -964223 -93228.4 0 -963140 -95317.1 0 -962039 -97425.9 0 -960918 -99555.2 0 -959778 -101705 0 -958619 -103877 0 -957440 -106069 0 -956243 -108284 0 -955028 -110521 0 -953793 -112780 0 -952540 -115062 0 -951268 -117367 0 -949978 -119696 0 -948669 -122048 0 -947342 -124424 0 -945998 -126824 0 -944635 -129249 0 -943254 -131698 0 -941855 -134172 0 -940439 -136671 0 -939005 -139195 0 -937554 -141745 0 -936086 -144321 0 -934600 -146922 0 -933098 -149548 0 -931578 -152201 0 -930042 -154880 0 -928489 -157585 0 -926920 -160316 0 -925334 -163074 0 -923732 -165857 0 -922113 -168667 0 -920479 -171502 0 -918829 -174364 0 -917162 -177252 0 -915480 -180166 0 -913783 -183105 0 -912070 -186070 0 -910341 -189060 0 -908597 -192076 0 -906837 -195116 0 -905063 -198180 0 -903273 -201269 0 -901468 -204382 0 -899647 -207519 0 -897812 -210678 0 -895961 -213861 0 -894096 -217065 0 -892215 -220291 0 -890319 -223538 0 -888408 -226806 0 -886482 -230093 0 -884540 -233400 0 -882583 -236726 0 -880610 -240069 0 -878622 -243429 0 -876619 -246806 0 -874599 -250198 0 -872564 -253605 0 -870513 -257025 0 -868445 -260458 0 -866361 -263902 0 -864260 -267358 0 -862143 -270823 0 -860009 -274296 0 -857857 -277777 0 -855688 -281264 0 -853502 -284757 0 -851297 -288253 0 -849075 -291752 0 -846834 -295251 0 -844575 -298751 0 -842297 -302250 0 -840001 -305746 0 -992248 0.00648674 0 -992238 -1541 0 -992208 -3082.35 0 -992158 -4624.39 0 -992088 -6167.47 0 -991998 -7711.94 0 -991888 -9258.13 0 -991758 -10806.4 0 -991608 -12357.1 0 -991437 -13910.6 0 -991247 -15467.2 0 -991036 -17027.2 0 -990806 -18591.1 0 -990555 -20159.1 0 -990285 -21731.7 0 -989994 -23309.1 0 -989683 -24891.8 0 -989352 -26480.1 0 -989001 -28074.3 0 -988629 -29674.8 0 -988238 -31282 0 -987826 -32896.2 0 -987395 -34517.8 0 -986943 -36147.1 0 -986470 -37784.5 0 -985978 -39430.5 0 -985465 -41085.3 0 -984933 -42749.3 0 -984380 -44422.9 0 -983806 -46106.5 0 -983213 -47800.4 0 -982599 -49505.1 0 -981965 -51220.8 0 -981311 -52948.1 0 -980636 -54687.2 0 -979941 -56438.5 0 -979226 -58202.4 0 -978491 -59979.4 0 -977736 -61769.7 0 -976960 -63573.9 0 -976164 -65392.1 0 -975348 -67224.9 0 -974512 -69072.7 0 -973656 -70935.7 0 -972779 -72814.5 0 -971883 -74709.3 0 -970966 -76620.6 0 -970030 -78548.7 0 -969073 -80494.1 0 -968097 -82457.1 0 -967101 -84438 0 -966085 -86437.3 0 -965049 -88455.4 0 -963993 -90492.5 0 -962918 -92549.1 0 -961823 -94625.5 0 -960708 -96722.2 0 -959574 -98839.3 0 -958421 -100977 0 -957249 -103137 0 -956057 -105317 0 -954846 -107520 0 -953616 -109745 0 -952367 -111992 0 -951099 -114263 0 -949813 -116556 0 -948508 -118873 0 -947184 -121214 0 -945842 -123578 0 -944482 -125967 0 -943104 -128380 0 -941708 -130818 0 -940293 -133281 0 -938861 -135769 0 -937412 -138282 0 -935944 -140821 0 -934460 -143385 0 -932958 -145976 0 -931439 -148592 0 -929903 -151234 0 -928350 -153902 0 -926781 -156597 0 -925195 -159318 0 -923593 -162065 0 -921974 -164838 0 -920339 -167637 0 -918688 -170463 0 -917022 -173315 0 -915339 -176193 0 -913641 -179097 0 -911927 -182026 0 -910198 -184981 0 -908453 -187962 0 -906694 -190968 0 -904919 -193998 0 -903128 -197053 0 -901323 -200133 0 -899503 -203236 0 -897668 -206363 0 -895818 -209513 0 -893954 -212686 0 -892074 -215881 0 -890180 -219098 0 -888271 -222336 0 -886347 -225594 0 -884408 -228872 0 -882455 -232169 0 -880486 -235485 0 -878503 -238819 0 -876504 -242169 0 -874491 -245536 0 -872462 -248919 0 -870418 -252315 0 -868358 -255726 0 -866283 -259148 0 -864192 -262583 0 -862085 -266028 0 -859962 -269483 0 -857823 -272946 0 -855667 -276416 0 -853494 -279892 0 -851305 -283374 0 -849099 -286859 0 -846875 -290346 0 -844634 -293835 0 -842375 -297323 0 -840099 -300810 0 -837804 -304295 0 -991282 0.00647606 0 -991272 -1528.33 0 -991242 -3057 0 -991191 -4586.36 0 -991120 -6116.76 0 -991029 -7648.54 0 -990918 -9182.05 0 -990786 -10717.6 0 -990634 -12255.6 0 -990462 -13796.4 0 -990270 -15340.3 0 -990057 -16887.6 0 -989824 -18438.8 0 -989571 -19994.1 0 -989297 -21554 0 -989003 -23118.7 0 -988689 -24688.6 0 -988354 -26264.1 0 -987999 -27845.6 0 -987624 -29433.3 0 -987228 -31027.8 0 -986812 -32629.2 0 -986375 -34238 0 -985918 -35854.5 0 -985441 -37479.2 0 -984943 -39112.3 0 -984425 -40754.3 0 -983886 -42405.5 0 -983327 -44066.3 0 -982747 -45737.1 0 -982147 -47418.2 0 -981526 -49110.1 0 -980885 -50813 0 -980223 -52527.4 0 -979541 -54253.7 0 -978839 -55992.2 0 -978116 -57743.3 0 -977372 -59507.5 0 -976608 -61285 0 -975824 -63076.3 0 -975019 -64881.8 0 -974194 -66701.9 0 -973348 -68536.8 0 -972482 -70387.1 0 -971596 -72253.2 0 -970689 -74135.3 0 -969762 -76033.9 0 -968815 -77949.4 0 -967847 -79882.1 0 -966859 -81832.5 0 -965852 -83800.8 0 -964824 -85787.6 0 -963776 -87793.1 0 -962708 -89817.8 0 -961620 -91862 0 -960513 -93926 0 -959386 -96010.3 0 -958239 -98115.1 0 -957072 -100241 0 -955886 -102388 0 -954681 -104557 0 -953456 -106747 0 -952212 -108960 0 -950949 -111196 0 -949666 -113454 0 -948365 -115736 0 -947045 -118041 0 -945707 -120370 0 -944350 -122723 0 -942974 -125100 0 -941580 -127502 0 -940168 -129928 0 -938738 -132380 0 -937290 -134857 0 -935825 -137359 0 -934341 -139887 0 -932840 -142440 0 -931322 -145020 0 -929787 -147625 0 -928235 -150257 0 -926665 -152914 0 -925080 -155598 0 -923477 -158309 0 -921858 -161045 0 -920223 -163809 0 -918572 -166598 0 -916904 -169414 0 -915221 -172255 0 -913522 -175123 0 -911808 -178017 0 -910078 -180937 0 -908332 -183883 0 -906572 -186854 0 -904796 -189850 0 -903006 -192871 0 -901200 -195917 0 -899380 -198987 0 -897545 -202081 0 -895695 -205199 0 -893831 -208340 0 -891952 -211503 0 -890059 -214689 0 -888151 -217896 0 -886229 -221125 0 -884292 -224374 0 -882341 -227643 0 -880376 -230931 0 -878396 -234238 0 -876402 -237562 0 -874393 -240903 0 -872369 -244261 0 -870331 -247634 0 -868278 -251021 0 -866210 -254421 0 -864127 -257835 0 -862029 -261259 0 -859916 -264695 0 -857787 -268139 0 -855643 -271592 0 -853483 -275052 0 -851307 -278518 0 -849115 -281989 0 -846907 -285464 0 -844682 -288940 0 -842441 -292418 0 -840183 -295896 0 -837907 -299372 0 -835615 -302845 0 -990324 0.00646458 0 -990314 -1515.51 0 -990283 -3031.37 0 -990232 -4547.92 0 -990160 -6065.5 0 -990068 -7584.47 0 -989956 -9105.15 0 -989823 -10627.9 0 -989669 -12153.1 0 -989495 -13681 0 -989301 -15212.1 0 -989086 -16746.6 0 -988850 -18284.9 0 -988594 -19827.3 0 -988317 -21374.3 0 -988020 -22926.2 0 -987703 -24483.2 0 -987364 -26045.9 0 -987006 -27614.4 0 -986626 -29189.3 0 -986226 -30770.8 0 -985805 -32359.3 0 -985364 -33955.1 0 -984902 -35558.8 0 -984419 -37170.5 0 -983916 -38790.7 0 -983392 -40419.7 0 -982847 -42058 0 -982282 -43705.8 0 -981696 -45363.6 0 -981089 -47031.8 0 -980462 -48710.6 0 -979813 -50400.6 0 -979144 -52102 0 -978455 -53815.3 0 -977744 -55540.9 0 -977013 -57279 0 -976261 -59030.2 0 -975489 -60794.8 0 -974696 -62573.2 0 -973882 -64365.7 0 -973047 -66172.8 0 -972192 -67994.9 0 -971316 -69832.3 0 -970420 -71685.5 0 -969503 -73554.7 0 -968565 -75440.5 0 -967607 -77343.2 0 -966629 -79263.1 0 -965630 -81200.7 0 -964611 -83156.3 0 -963571 -85130.4 0 -962511 -87123.3 0 -961431 -89135.3 0 -960331 -91166.9 0 -959211 -93218.4 0 -958071 -95290.2 0 -956911 -97382.6 0 -955731 -99496 0 -954531 -101631 0 -953312 -103787 0 -952073 -105966 0 -950815 -108166 0 -949538 -110390 0 -948241 -112636 0 -946925 -114906 0 -945590 -117199 0 -944237 -119516 0 -942864 -121858 0 -941473 -124223 0 -940064 -126613 0 -938636 -129029 0 -937190 -131469 0 -935726 -133934 0 -934245 -136425 0 -932745 -138942 0 -931228 -141485 0 -929693 -144053 0 -928142 -146648 0 -926573 -149269 0 -924987 -151916 0 -923385 -154589 0 -921766 -157289 0 -920130 -160016 0 -918478 -162769 0 -916810 -165548 0 -915126 -168354 0 -913427 -171185 0 -911711 -174044 0 -909980 -176928 0 -908234 -179838 0 -906473 -182774 0 -904696 -185735 0 -902905 -188722 0 -901099 -191734 0 -899278 -194771 0 -897442 -197831 0 -895592 -200916 0 -893728 -204025 0 -891849 -207157 0 -889956 -210311 0 -888049 -213488 0 -886128 -216686 0 -884192 -219906 0 -882243 -223146 0 -880280 -226406 0 -878302 -229685 0 -876311 -232983 0 -874306 -236298 0 -872286 -239631 0 -870253 -242979 0 -868205 -246343 0 -866144 -249721 0 -864068 -253112 0 -861977 -256516 0 -859872 -259931 0 -857753 -263357 0 -855619 -266792 0 -853470 -270236 0 -851306 -273686 0 -849126 -277142 0 -846932 -280603 0 -844722 -284068 0 -842496 -287534 0 -840255 -291002 0 -837997 -294469 0 -835723 -297934 0 -833433 -301397 0 -989374 0.00645135 0 -989364 -1502.56 0 -989333 -3005.47 0 -989281 -4509.07 0 -989209 -6013.7 0 -989115 -7519.7 0 -989002 -9027.43 0 -988867 -10537.2 0 -988712 -12049.4 0 -988536 -13564.4 0 -988340 -15082.5 0 -988122 -16604 0 -987884 -18129.3 0 -987626 -19658.8 0 -987346 -21192.7 0 -987046 -22731.6 0 -986725 -24275.6 0 -986383 -25825.2 0 -986020 -27380.7 0 -985637 -28942.5 0 -985232 -30511 0 -984807 -32086.4 0 -984361 -33669.2 0 -983894 -35259.8 0 -983406 -36858.4 0 -982897 -38465.5 0 -982368 -40081.5 0 -981817 -41706.6 0 -981246 -43341.4 0 -980653 -44986.1 0 -980040 -46641.1 0 -979405 -48306.8 0 -978750 -49983.7 0 -978074 -51672 0 -977376 -53372.1 0 -976658 -55084.6 0 -975919 -56809.6 0 -975159 -58547.7 0 -974378 -60299.1 0 -973576 -62064.4 0 -972753 -63843.9 0 -971909 -65637.9 0 -971044 -67446.9 0 -970158 -69271.3 0 -969252 -71111.4 0 -968325 -72967.6 0 -967377 -74840.4 0 -966408 -76730.1 0 -965418 -78637.1 0 -964408 -80561.8 0 -963378 -82504.5 0 -962326 -84465.8 0 -961255 -86445.8 0 -960162 -88445.1 0 -959050 -90464 0 -957917 -92502.8 0 -956764 -94562 0 -955591 -96641.8 0 -954398 -98742.7 0 -953184 -100865 0 -951951 -103009 0 -950699 -105175 0 -949426 -107364 0 -948134 -109575 0 -946823 -111809 0 -945492 -114067 0 -944143 -116348 0 -942774 -118653 0 -941386 -120983 0 -939980 -123337 0 -938555 -125715 0 -937111 -128119 0 -935649 -130548 0 -934170 -133002 0 -932672 -135482 0 -931156 -137987 0 -929622 -140519 0 -928071 -143076 0 -926503 -145660 0 -924918 -148270 0 -923315 -150907 0 -921696 -153570 0 -920060 -156259 0 -918408 -158976 0 -916740 -161718 0 -915055 -164487 0 -913355 -167283 0 -911638 -170105 0 -909906 -172954 0 -908159 -175828 0 -906397 -178729 0 -904619 -181655 0 -902827 -184607 0 -901019 -187585 0 -899197 -190587 0 -897361 -193615 0 -895510 -196666 0 -893645 -199742 0 -891766 -202842 0 -889873 -205965 0 -887965 -209110 0 -886045 -212278 0 -884110 -215468 0 -882161 -218679 0 -880199 -221910 0 -878224 -225162 0 -876235 -228432 0 -874232 -231721 0 -872216 -235028 0 -870186 -238351 0 -868143 -241691 0 -866086 -245046 0 -864015 -248415 0 -861931 -251798 0 -859833 -255193 0 -857721 -258600 0 -855596 -262016 0 -853456 -265442 0 -851302 -268876 0 -849134 -272318 0 -846952 -275765 0 -844755 -279216 0 -842543 -282671 0 -840316 -286128 0 -838074 -289586 0 -835818 -293043 0 -833545 -296498 0 -831257 -299950 0 -988432 0.00643827 0 -988422 -1489.48 0 -988390 -2979.3 0 -988338 -4469.81 0 -988265 -5961.35 0 -988171 -7454.26 0 -988056 -8948.89 0 -987920 -10445.6 0 -987763 -11944.7 0 -987586 -13446.5 0 -987387 -14951.5 0 -987167 -16459.9 0 -986927 -17972.1 0 -986665 -19488.4 0 -986383 -21009.2 0 -986079 -22534.9 0 -985755 -24065.8 0 -985409 -25602.2 0 -985043 -27144.6 0 -984655 -28693.2 0 -984247 -30248.4 0 -983817 -31810.7 0 -983366 -33380.3 0 -982894 -34957.6 0 -982401 -36543 0 -981887 -38136.9 0 -981352 -39739.6 0 -980795 -41351.5 0 -980217 -42972.9 0 -979619 -44604.4 0 -978999 -46246.1 0 -978357 -47898.6 0 -977695 -49562.2 0 -977011 -51237.2 0 -976306 -52924.1 0 -975580 -54623.2 0 -974833 -56335 0 -974064 -58059.8 0 -973275 -59798 0 -972464 -61550 0 -971632 -63316.2 0 -970779 -65097 0 -969904 -66892.8 0 -969009 -68704 0 -968093 -70530.9 0 -967155 -72374 0 -966196 -74233.6 0 -965217 -76110.2 0 -964216 -78004.1 0 -963195 -79915.7 0 -962153 -81845.4 0 -961090 -83793.7 0 -960006 -85760.8 0 -958901 -87747.1 0 -957776 -89753.1 0 -956631 -91779.2 0 -955465 -93825.5 0 -954279 -95892.7 0 -953072 -97980.9 0 -951845 -100091 0 -950599 -102222 0 -949332 -104376 0 -948045 -106552 0 -946739 -108751 0 -945413 -110973 0 -944067 -113218 0 -942703 -115487 0 -941319 -117781 0 -939916 -120098 0 -938494 -122440 0 -937053 -124807 0 -935594 -127199 0 -934116 -129617 0 -932620 -132059 0 -931106 -134528 0 -929574 -137022 0 -928024 -139543 0 -926456 -142089 0 -924872 -144662 0 -923269 -147262 0 -921650 -149887 0 -920015 -152540 0 -918362 -155219 0 -916693 -157925 0 -915008 -160657 0 -913306 -163416 0 -911589 -166202 0 -909856 -169014 0 -908108 -171853 0 -906344 -174718 0 -904565 -177609 0 -902771 -180526 0 -900963 -183469 0 -899139 -186437 0 -897302 -189431 0 -895450 -192449 0 -893584 -195492 0 -891704 -198559 0 -889810 -201650 0 -887902 -204764 0 -885980 -207901 0 -884046 -211060 0 -882097 -214241 0 -880136 -217444 0 -878161 -220667 0 -876173 -223910 0 -874172 -227172 0 -872158 -230452 0 -870131 -233751 0 -868091 -237066 0 -866038 -240397 0 -863972 -243744 0 -861892 -247105 0 -859800 -250479 0 -857695 -253866 0 -855576 -257264 0 -853444 -260672 0 -851299 -264089 0 -849141 -267514 0 -846968 -270947 0 -844783 -274385 0 -842583 -277827 0 -840370 -281273 0 -838142 -284721 0 -835900 -288170 0 -833644 -291617 0 -831374 -295063 0 -829088 -298506 0 -987498 0.00642414 0 -987488 -1476.26 0 -987456 -2952.85 0 -987403 -4430.14 0 -987330 -5908.46 0 -987235 -7388.14 0 -987118 -8869.54 0 -986981 -10353 0 -986823 -11838.9 0 -986643 -13327.5 0 -986443 -14819.2 0 -986221 -16314.3 0 -985978 -17813.2 0 -985713 -19316.3 0 -985428 -20823.8 0 -985121 -22336.2 0 -984794 -23853.8 0 -984444 -25376.9 0 -984074 -26905.9 0 -983682 -28441.2 0 -983270 -29983.1 0 -982835 -31532 0 -982380 -33088.2 0 -981903 -34652.2 0 -981405 -36224.2 0 -980885 -37804.7 0 -980344 -39394 0 -979781 -40992.5 0 -979198 -42600.6 0 -978592 -44218.6 0 -977966 -45846.9 0 -977318 -47486 0 -976648 -49136.1 0 -975957 -50797.7 0 -975245 -52471.2 0 -974511 -54156.9 0 -973755 -55855.2 0 -972979 -57566.6 0 -972180 -59291.4 0 -971361 -61030 0 -970520 -62782.8 0 -969657 -64550.2 0 -968773 -66332.6 0 -967868 -68130.4 0 -966941 -69944 0 -965994 -71773.7 0 -965024 -73620.1 0 -964034 -75483.4 0 -963023 -77364 0 -961990 -79262.4 0 -960936 -81179 0 -959861 -83114.1 0 -958765 -85068.1 0 -957649 -87041.4 0 -956511 -89034.4 0 -955353 -91047.4 0 -954174 -93080.9 0 -952975 -95135.2 0 -951755 -97210.6 0 -950514 -99307.5 0 -949254 -101426 0 -947973 -103567 0 -946672 -105731 0 -945351 -107917 0 -944010 -110127 0 -942650 -112360 0 -941270 -114617 0 -939871 -116898 0 -938453 -119204 0 -937015 -121534 0 -935559 -123889 0 -934083 -126270 0 -932590 -128675 0 -931077 -131107 0 -929547 -133564 0 -927998 -136047 0 -926432 -138556 0 -924848 -141092 0 -923247 -143654 0 -921628 -146242 0 -919992 -148857 0 -918339 -151499 0 -916670 -154168 0 -914984 -156864 0 -913282 -159586 0 -911564 -162335 0 -909830 -165111 0 -908080 -167913 0 -906315 -170742 0 -904535 -173598 0 -902740 -176479 0 -900930 -179387 0 -899105 -182320 0 -897265 -185280 0 -895412 -188264 0 -893544 -191273 0 -891663 -194308 0 -889768 -197366 0 -887859 -200448 0 -885936 -203554 0 -884001 -206682 0 -882052 -209834 0 -880090 -213006 0 -878116 -216201 0 -876128 -219415 0 -874128 -222650 0 -872115 -225904 0 -870089 -229177 0 -868051 -232467 0 -866001 -235774 0 -863938 -239098 0 -861862 -242436 0 -859774 -245789 0 -857674 -249155 0 -855561 -252534 0 -853436 -255923 0 -851298 -259323 0 -849147 -262733 0 -846984 -266150 0 -844808 -269574 0 -842619 -273003 0 -840417 -276438 0 -838202 -279875 0 -835974 -283314 0 -833732 -286754 0 -831477 -290193 0 -829208 -293630 0 -826925 -297063 0 -986573 0.00640896 0 -986562 -1462.9 0 -986531 -2926.14 0 -986477 -4390.07 0 -986403 -5855.02 0 -986307 -7321.34 0 -986189 -8789.37 0 -986051 -10259.5 0 -985891 -11731.9 0 -985709 -13207.1 0 -985507 -14685.5 0 -985282 -16167.2 0 -985037 -17652.7 0 -984770 -19142.3 0 -984482 -20636.5 0 -984172 -22135.4 0 -983841 -23639.6 0 -983488 -25149.2 0 -983114 -26664.8 0 -982718 -28186.6 0 -982301 -29715 0 -981862 -31250.4 0 -981402 -32793.2 0 -980920 -34343.6 0 -980416 -35902.1 0 -979891 -37469.1 0 -979345 -39044.8 0 -978776 -40629.8 0 -978186 -42224.3 0 -977575 -43828.7 0 -976941 -45443.5 0 -976286 -47069 0 -975610 -48705.5 0 -974912 -50353.5 0 -974191 -52013.4 0 -973450 -53685.6 0 -972686 -55370.3 0 -971901 -57068.1 0 -971094 -58779.3 0 -970266 -60504.4 0 -969416 -62243.6 0 -968544 -63997.5 0 -967650 -65766.3 0 -966735 -67550.6 0 -965799 -69350.7 0 -964841 -71167 0 -963861 -72999.8 0 -962860 -74849.7 0 -961837 -76716.9 0 -960793 -78602 0 -959728 -80505.2 0 -958641 -82427 0 -957533 -84367.7 0 -956404 -86327.8 0 -955254 -88307.6 0 -954083 -90307.6 0 -952891 -92328 0 -951679 -94369.2 0 -950445 -96431.7 0 -949191 -98515.8 0 -947917 -100622 0 -946622 -102750 0 -945306 -104901 0 -943971 -107075 0 -942616 -109272 0 -941240 -111493 0 -939845 -113738 0 -938431 -116007 0 -936997 -118300 0 -935544 -120618 0 -934072 -122961 0 -932580 -125330 0 -931070 -127724 0 -929542 -130144 0 -927995 -132589 0 -926430 -135061 0 -924847 -137559 0 -923247 -140083 0 -921629 -142635 0 -919993 -145212 0 -918340 -147817 0 -916671 -150448 0 -914985 -153106 0 -913282 -155792 0 -911563 -158504 0 -909828 -161243 0 -908077 -164009 0 -906311 -166801 0 -904529 -169621 0 -902732 -172467 0 -900920 -175339 0 -899093 -178237 0 -897252 -181162 0 -895397 -184112 0 -893528 -187088 0 -891644 -190088 0 -889748 -193114 0 -887837 -196164 0 -885913 -199237 0 -883976 -202335 0 -882026 -205455 0 -880064 -208598 0 -878088 -211763 0 -876100 -214949 0 -874100 -218156 0 -872087 -221383 0 -870063 -224629 0 -868026 -227894 0 -865977 -231176 0 -863916 -234476 0 -861843 -237792 0 -859758 -241123 0 -857662 -244468 0 -855553 -247826 0 -853433 -251197 0 -851301 -254579 0 -849157 -257972 0 -847001 -261373 0 -844833 -264782 0 -842653 -268199 0 -840461 -271620 0 -838257 -275046 0 -836040 -278476 0 -833811 -281907 0 -831569 -285338 0 -829315 -288769 0 -827048 -292197 0 -824768 -295622 0 -985656 0.00639321 0 -985646 -1449.41 0 -985613 -2899.16 0 -985559 -4349.59 0 -985484 -5801.04 0 -985387 -7253.86 0 -985269 -8708.39 0 -985129 -10165 0 -984967 -11623.9 0 -984784 -13085.6 0 -984579 -14550.4 0 -984353 -16018.6 0 -984105 -17490.6 0 -983835 -18966.7 0 -983544 -20447.2 0 -983231 -21932.6 0 -982896 -23423.1 0 -982540 -24919.2 0 -982162 -26421.2 0 -981762 -27929.4 0 -981341 -29444.2 0 -980897 -30965.9 0 -980432 -32495 0 -979945 -34031.8 0 -979437 -35576.6 0 -978906 -37129.9 0 -978354 -38692 0 -977780 -40263.2 0 -977184 -41844 0 -976566 -43434.8 0 -975926 -45035.8 0 -975264 -46647.6 0 -974580 -48270.4 0 -973875 -49904.7 0 -973147 -51550.8 0 -972397 -53209.2 0 -971626 -54880.2 0 -970832 -56564.3 0 -970017 -58261.8 0 -969180 -59973.1 0 -968320 -61698.6 0 -967439 -63438.8 0 -966536 -65193.9 0 -965611 -66964.5 0 -964665 -68751 0 -963696 -70553.6 0 -962706 -72372.8 0 -961694 -74209.1 0 -960660 -76062.8 0 -959605 -77934.3 0 -958528 -79824 0 -957429 -81732.4 0 -956310 -83659.7 0 -955168 -85606.4 0 -954006 -87572.9 0 -952822 -89559.6 0 -951617 -91566.8 0 -950391 -93594.9 0 -949144 -95644.3 0 -947876 -97715.4 0 -946588 -99808.5 0 -945279 -101924 0 -943949 -104062 0 -942599 -106223 0 -941229 -108408 0 -939839 -110616 0 -938428 -112848 0 -936999 -115105 0 -935549 -117386 0 -934080 -119692 0 -932592 -122023 0 -931085 -124380 0 -929559 -126762 0 -928014 -129170 0 -926451 -131604 0 -924869 -134065 0 -923270 -136551 0 -921652 -139065 0 -920017 -141605 0 -918365 -144172 0 -916695 -146766 0 -915009 -149386 0 -913306 -152034 0 -911586 -154709 0 -909850 -157411 0 -908098 -160140 0 -906330 -162896 0 -904547 -165679 0 -902748 -168489 0 -900935 -171325 0 -899106 -174188 0 -897263 -177078 0 -895406 -179993 0 -893534 -182934 0 -891649 -185901 0 -889750 -188893 0 -887837 -191910 0 -885912 -194952 0 -883973 -198017 0 -882021 -201107 0 -880057 -204219 0 -878080 -207354 0 -876091 -210511 0 -874090 -213689 0 -872077 -216889 0 -870052 -220108 0 -868015 -223347 0 -865967 -226604 0 -863907 -229879 0 -861835 -233171 0 -859753 -236480 0 -857659 -239803 0 -855553 -243141 0 -853437 -246493 0 -851309 -249856 0 -849170 -253231 0 -847020 -256616 0 -844859 -260010 0 -842686 -263412 0 -840503 -266821 0 -838307 -270235 0 -836101 -273654 0 -833883 -277076 0 -831653 -280499 0 -829411 -283923 0 -827158 -287346 0 -824893 -290767 0 -822615 -294184 0 -984748 0.0063764 0 -984737 -1435.78 0 -984705 -2871.9 0 -984650 -4308.7 0 -984574 -5746.53 0 -984476 -7185.71 0 -984357 -8626.6 0 -984215 -10069.5 0 -984052 -11514.8 0 -983867 -12962.9 0 -983660 -14414 0 -983431 -15868.5 0 -983181 -17326.8 0 -982909 -18789.2 0 -982614 -20256 0 -982298 -21727.7 0 -981960 -23204.5 0 -981600 -24686.9 0 -981219 -26175.1 0 -980815 -27669.5 0 -980389 -29170.6 0 -979941 -30678.5 0 -979472 -32193.8 0 -978980 -33716.8 0 -978466 -35247.8 0 -977930 -36787.3 0 -977372 -38335.5 0 -976792 -39892.9 0 -976190 -41459.9 0 -975565 -43036.7 0 -974919 -44623.9 0 -974250 -46221.8 0 -973559 -47830.7 0 -972846 -49451.1 0 -972111 -51083.3 0 -971354 -52727.8 0 -970574 -54385 0 -969772 -56055.1 0 -968948 -57738.7 0 -968102 -59436.2 0 -967234 -61147.8 0 -966343 -62874.1 0 -965431 -64615.4 0 -964496 -66372.2 0 -963539 -68144.8 0 -962560 -69933.6 0 -961560 -71739.1 0 -960537 -73561.6 0 -959492 -75401.6 0 -958425 -77259.4 0 -957337 -79135.5 0 -956226 -81030.2 0 -955094 -82944 0 -953941 -84877.2 0 -952766 -86830.2 0 -951569 -88803.5 0 -950351 -90797.3 0 -949111 -92812.2 0 -947851 -94848.4 0 -946569 -96906.3 0 -945267 -98986.3 0 -943944 -101089 0 -942600 -103214 0 -941235 -105362 0 -939850 -107534 0 -938445 -109730 0 -937019 -111949 0 -935574 -114194 0 -934109 -116462 0 -932624 -118756 0 -931120 -121075 0 -929597 -123420 0 -928055 -125790 0 -926493 -128187 0 -924914 -130609 0 -923316 -133058 0 -921699 -135533 0 -920065 -138036 0 -918413 -140565 0 -916744 -143121 0 -915057 -145704 0 -913354 -148314 0 -911633 -150951 0 -909896 -153616 0 -908143 -156308 0 -906374 -159027 0 -904589 -161773 0 -902789 -164546 0 -900974 -167346 0 -899143 -170173 0 -897298 -173027 0 -895439 -175907 0 -893565 -178814 0 -891677 -181746 0 -889776 -184705 0 -887861 -187688 0 -885933 -190697 0 -883992 -193730 0 -882038 -196788 0 -880071 -199869 0 -878093 -202974 0 -876102 -206101 0 -874099 -209250 0 -872085 -212421 0 -870059 -215613 0 -868021 -218825 0 -865972 -222057 0 -863912 -225307 0 -861841 -228575 0 -859760 -231860 0 -857667 -235162 0 -855564 -238479 0 -853450 -241810 0 -851325 -245154 0 -849190 -248511 0 -847044 -251879 0 -844888 -255257 0 -842722 -258644 0 -840544 -262039 0 -838357 -265441 0 -836158 -268849 0 -833949 -272260 0 -831730 -275675 0 -829499 -279091 0 -827258 -282508 0 -825006 -285924 0 -822742 -289337 0 -820468 -292747 0 -983848 0.00635853 0 -983837 -1422.02 0 -983805 -2844.38 0 -983750 -4267.42 0 -983673 -5691.47 0 -983574 -7116.89 0 -983453 -8543.99 0 -983310 -9973.14 0 -983145 -11404.7 0 -982959 -12838.9 0 -982750 -14276.2 0 -982519 -15716.9 0 -982266 -17161.4 0 -981991 -18610 0 -981694 -20063 0 -981374 -21520.8 0 -981033 -22983.7 0 -980670 -24452.2 0 -980284 -25926.5 0 -979876 -27407.1 0 -979446 -28894.2 0 -978994 -30388.3 0 -978520 -31889.6 0 -978023 -33398.6 0 -977504 -34915.7 0 -976962 -36441.2 0 -976399 -37975.4 0 -975813 -39518.8 0 -975204 -41071.7 0 -974574 -42634.6 0 -973921 -44207.7 0 -973245 -45791.6 0 -972547 -47386.5 0 -971827 -48992.8 0 -971084 -50611 0 -970319 -52241.5 0 -969531 -53884.6 0 -968721 -55540.7 0 -967888 -57210.2 0 -967033 -58893.6 0 -966156 -60591.2 0 -965256 -62303.5 0 -964334 -64030.8 0 -963389 -65773.6 0 -962423 -67532.2 0 -961433 -69307.1 0 -960422 -71098.6 0 -959388 -72907.2 0 -958332 -74733.3 0 -957254 -76577.3 0 -956154 -78439.6 0 -955032 -80320.5 0 -953888 -82220.6 0 -952722 -84140.1 0 -951534 -86079.5 0 -950324 -88039.2 0 -949093 -90019.6 0 -947840 -92020.9 0 -946566 -94043.8 0 -945271 -96088.4 0 -943954 -98155.1 0 -942617 -100244 0 -941258 -102357 0 -939879 -104492 0 -938479 -106651 0 -937059 -108834 0 -935618 -111041 0 -934157 -113272 0 -932676 -115529 0 -931176 -117810 0 -929656 -120117 0 -928116 -122450 0 -926558 -124808 0 -924980 -127193 0 -923384 -129603 0 -921769 -132041 0 -920136 -134505 0 -918485 -136996 0 -916816 -139514 0 -915129 -142059 0 -913426 -144631 0 -911705 -147230 0 -909967 -149857 0 -908213 -152512 0 -906443 -155193 0 -904657 -157902 0 -902855 -160639 0 -901038 -163402 0 -899205 -166193 0 -897358 -169011 0 -895496 -171856 0 -893620 -174727 0 -891729 -177625 0 -889825 -180548 0 -887908 -183498 0 -885977 -186474 0 -884033 -189474 0 -882077 -192499 0 -880108 -195549 0 -878126 -198623 0 -876133 -201720 0 -874128 -204839 0 -872112 -207981 0 -870084 -211145 0 -868045 -214330 0 -865995 -217535 0 -863934 -220760 0 -861862 -224003 0 -859780 -227264 0 -857688 -230543 0 -855585 -233838 0 -853473 -237148 0 -851350 -240473 0 -849217 -243811 0 -847075 -247161 0 -844922 -250523 0 -842760 -253894 0 -840588 -257275 0 -838407 -260664 0 -836215 -264059 0 -834014 -267460 0 -831802 -270866 0 -829581 -274274 0 -827350 -277684 0 -825109 -281094 0 -822858 -284503 0 -820596 -287909 0 -818324 -291312 0 -982958 0.00633911 0 -982946 -1408.12 0 -982913 -2816.59 0 -982858 -4225.73 0 -982780 -5635.88 0 -982680 -7047.39 0 -982558 -8460.59 0 -982414 -9875.82 0 -982248 -11293.4 0 -982059 -12713.7 0 -981848 -14137.1 0 -981615 -15563.9 0 -981359 -16994.4 0 -981082 -18429 0 -980782 -19868 0 -980459 -21311.8 0 -980115 -22760.8 0 -979748 -24215.2 0 -979358 -25675.5 0 -978946 -27142 0 -978512 -28615.1 0 -978055 -30095.1 0 -977576 -31582.3 0 -977075 -33077.3 0 -976550 -34580.2 0 -976004 -36091.6 0 -975434 -37611.7 0 -974843 -39140.9 0 -974228 -40679.7 0 -973591 -42228.4 0 -972931 -43787.4 0 -972249 -45357 0 -971544 -46937.7 0 -970816 -48529.9 0 -970066 -50133.9 0 -969293 -51750.1 0 -968497 -53379 0 -967679 -55020.9 0 -966837 -56676.2 0 -965974 -58345.4 0 -965087 -60028.8 0 -964178 -61726.9 0 -963246 -63440.1 0 -962292 -65168.7 0 -961315 -66913.1 0 -960315 -68673.9 0 -959293 -70451.4 0 -958248 -72245.9 0 -957181 -74058 0 -956092 -75887.9 0 -954980 -77736.2 0 -953846 -79603.3 0 -952690 -81489.4 0 -951511 -83395.1 0 -950311 -85320.8 0 -949088 -87266.7 0 -947844 -89233.4 0 -946578 -91221.2 0 -945290 -93230.5 0 -943981 -95261.7 0 -942650 -97315.1 0 -941298 -99391.1 0 -939925 -101490 0 -938531 -103612 0 -937116 -105758 0 -935681 -107928 0 -934225 -110123 0 -932748 -112341 0 -931252 -114585 0 -929735 -116854 0 -928199 -119149 0 -926643 -121469 0 -925068 -123816 0 -923474 -126188 0 -921861 -128587 0 -920230 -131013 0 -918580 -133466 0 -916911 -135945 0 -915225 -138452 0 -913522 -140986 0 -911801 -143547 0 -910063 