<?xml version="1.0"?> 
<VTKFile type="StructuredGrid" version="0.1"> 
<StructuredGrid WholeExtent="0 15 0 15 0 0"> 
<Piece Extent="0 15 0 15 0 0"> 
<PointData>
<DataArray type="Float32" Name="E" format="ascii" NumberOfComponents="3"> 
2.65863e+06 5.24521e-06 0 2.65785e+06 -6.72881e-07 0 2.65551e+06 5.15953e-07 0 2.65156e+06 -6.14673e-07 0 2.64592e+06 7.45058e-07 0 2.63849e+06 -5.28991e-07 0 2.6291e+06 6.70552e-07 0 2.61755e+06 -3.27826e-07 0 2.6036e+06 4.47035e-07 0 2.58689e+06 -3.8743e-07 0 2.56702e+06 5.96046e-08 0 2.54347e+06 5.96046e-08 0 2.51556e+06 0 0 2.48247e+06 -5.96046e-08 0 2.44316e+06 -4.76837e-07 0 2.39631e+06 6.67572e-06 0 2.8154e+06 -0.417974 0 2.81526e+06 -15130.2 0 2.81481e+06 -30315 0 2.81409e+06 -45607.7 0 2.8131e+06 -61060.2 0 2.81186e+06 -76721.3 0 2.81042e+06 -92635.5 0 2.8088e+06 -108841 0 2.80708e+06 -125368 0 2.80531e+06 -142232 0 2.80357e+06 -159436 0 2.80197e+06 -176955 0 2.80063e+06 -194738 0 2.79971e+06 -212690 0 2.79938e+06 -230660 0 2.79986e+06 -248428 0 3.06543e+06 -0.109373 0 3.06552e+06 -15970.7 0 3.06582e+06 -31955.9 0 3.06631e+06 -47970.3 0 3.067e+06 -64029.3 0 3.0679e+06 -80149.4 0 3.06902e+06 -96348.8 0 3.07035e+06 -112649 0 3.0719e+06 -129074 0 3.07369e+06 -145655 0 3.07572e+06 -162432 0 3.07801e+06 -179456 0 3.08055e+06 -196794 0 3.08335e+06 -214537 0 3.08644e+06 -232808 0 3.08981e+06 -251773 0 3.2787e+06 -0.00415756 0 3.27885e+06 -13046.2 0 3.27933e+06 -26092.9 0 3.28012e+06 -39140.1 0 3.28123e+06 -52187.4 0 3.28266e+06 -65233.4 0 3.28441e+06 -78275.1 0 3.28649e+06 -91307.6 0 3.2889e+06 -104323 0 3.29164e+06 -117309 0 3.29471e+06 -130248 0 3.29813e+06 -143114 0 3.30188e+06 -155872 0 3.30597e+06 -168470 0 3.3104e+06 -180837 0 3.31514e+06 -192876 0 3.43128e+06 0.0351107 0 3.43144e+06 -9202.41 0 3.43192e+06 -18400.2 0 3.43272e+06 -27589.1 0 3.43385e+06 -36764.6 0 3.43529e+06 -45923 0 3.43706e+06 -55060.9 0 3.43915e+06 -64175.8 0 3.44157e+06 -73266.6 0 3.44431e+06 -82334.1 0 3.44739e+06 -91381.5 0 3.4508e+06 -100416 0 3.45455e+06 -109450 0 3.45864e+06 -118504 0 3.46311e+06 -127607 0 3.46796e+06 -136802 0 3.52744e+06 0.0529919 0 3.52758e+06 -5699.44 0 3.528e+06 -11391.9 0 3.52869e+06 -17070.3 0 3.52967e+06 -22727.6 0 3.53093e+06 -28356.3 0 3.53247e+06 -33948.6 0 3.53429e+06 -39496.3 0 3.53638e+06 -44990.2 0 3.53877e+06 -50420.2 0 3.54143e+06 -55774.6 0 3.54437e+06 -61039.9 0 3.54759e+06 -66200.1 0 3.55109e+06 -71236.8 0 3.55484e+06 -76129.5 0 3.55884e+06 -80856.6 0 3.57951e+06 0.0658014 0 3.57961e+06 -2901.15 0 3.57992e+06 -5793.67 0 3.58044e+06 -8669 0 3.58116e+06 -11518.6 0 3.58209e+06 -14334.1 0 3.58323e+06 -17107.2 0 3.58457e+06 -19829.9 0 3.58611e+06 -22494.7 0 3.58786e+06 -25094.6 0 3.58982e+06 -27622.8 0 3.59197e+06 -30073.2 0 3.59434e+06 -32438.6 0 3.5969e+06 -34708.9 0 3.59969e+06 -36864.9 0 3.60272e+06 -38871.2 0 3.60184e+06 0.0585905 0 3.6019e+06 -1058.21 0 3.60209e+06 -2108.69 0 3.6024e+06 -3143.73 0 3.60284e+06 -4155.45 0 3.6034e+06 -5135.81 0 3.60408e+06 -6076.44 0 3.60488e+06 -6968.55 0 3.6058e+06 -7802.8 0 3.60684e+06 -8569.27 0 3.608e+06 -9257.9 0 3.60927e+06 -9859.73 0 3.61066e+06 -10370.3 0 3.61216e+06 -10797.4 0 3.61374e+06 -11176.6 0 3.61537e+06 -11593.6 0 3.60754e+06 0.05495 0 3.60757e+06 -85.4963 0 3.60765e+06 -163.818 0 3.60778e+06 -227.912 0 3.60797e+06 -270.878 0 3.60822e+06 -286.142 0 3.60851e+06 -267.651 0 3.60885e+06 -210.089 0 3.60925e+06 -109.053 0 3.60968e+06 39.1078 0 3.61016e+06 238.327 0 3.61067e+06 496.142 0 3.61122e+06 831.859 0 3.61181e+06 1294.77 0 3.61245e+06 2001.48 0 3.6132e+06 3186.85 0 3.60667e+06 -0.00155527 0 3.60668e+06 153.692 0 3.60668e+06 307.322 0 3.60669e+06 461.105 0 3.6067e+06 615.864 0 3.6067e+06 773.446 0 3.60669e+06 937.245 0 3.60667e+06 1112.78 0 3.60663e+06 1308.17 0 3.60656e+06 1533.83 0 3.60647e+06 1800.29 0 3.60635e+06 2111.06 0 3.60618e+06 2444.91 0 3.60596e+06 2716.45 0 3.60565e+06 2695.17 0 3.60513e+06 1894.75 0 3.60413e+06 -0.0712776 0 3.60416e+06 440.104 0 3.60425e+06 870.639 0 3.6044e+06 1281.72 0 3.60461e+06 1662.56 0 3.60486e+06 2000.84 0 3.60516e+06 2281.8 0 3.60549e+06 2487.14 0 3.60584e+06 2594.25 0 3.6062e+06 2576.82 0 3.60656e+06 2409.41 0 3.60689e+06 2082.2 0 3.60718e+06 1637.37 0 3.60742e+06 1250.24 0 3.60763e+06 1395.79 0 3.6079e+06 3076.43 0 3.59451e+06 -0.406916 0 3.59467e+06 1875.57 0 3.59516e+06 3698.58 0 3.59595e+06 5418.7 0 3.59704e+06 6989.34 0 3.59839e+06 8370.44 0 3.59999e+06 9531.31 0 3.60179e+06 10453.8 0 3.60376e+06 11135.1 0 3.60585e+06 11587.2 0 3.608e+06 11829.6 0 3.61018e+06 11860.4 0 3.61232e+06 11586.2 0 3.61435e+06 10662.5 0 3.6162e+06 8166.74 0 3.61771e+06 2148.54 0 3.55022e+06 -1.23968 0 3.55087e+06 9076.37 0 3.55284e+06 17989.2 0 3.55609e+06 26574.7 0 3.56058e+06 34665.7 0 3.56626e+06 42090.1 0 3.57305e+06 48667.6 0 3.58087e+06 54206.2 0 3.58962e+06 58499.8 0 3.5992e+06 61330.9 0 3.60949e+06 62488.1 0 3.62036e+06 61821.3 0 3.63171e+06 59376.6 0 3.64336e+06 55698 0 3.65514e+06 52445.1 0 3.66672e+06 53240.1 0 3.38532e+06 -3.06137 0 3.38734e+06 31337.5 0 3.39339e+06 62273.3 0 3.40342e+06 92408.5 0 3.41739e+06 121345 0 3.43517e+06 148689 0 3.45662e+06 174063 0 3.48151e+06 197108 0 3.50953e+06 217502 0 3.54026e+06 234961 0 3.57315e+06 249230 0 3.6075e+06 260004 0 3.64251e+06 266729 0 3.67737e+06 268115 0 3.7115e+06 261105 0 3.74512e+06 239451 0 2.89718e+06 -0.685104 0 2.90101e+06 86200.8 0 2.91256e+06 172295 0 2.93213e+06 258136 0 2.96016e+06 343496 0 2.99731e+06 428013 0 3.04449e+06 511130 0 3.10279e+06 592020 0 3.17359e+06 669497 0 3.25849e+06 741904 0 3.35925e+06 807019 0 3.47761e+06 861986 0 3.61485e+06 903375 0 3.77082e+06 927547 0 3.94208e+06 931622 0 4.11836e+06 915213 0 1.90984e+06 13.5869 0 1.90991e+06 137971 0 1.91013e+06 277759 0 1.91056e+06 421276 0 1.91132e+06 570651 0 1.91261e+06 728373 0 1.9149e+06 897482 0 1.91898e+06 1.08186e+06 0 1.92644e+06 1.28666e+06 0 1.94024e+06 1.51906e+06 0 1.96599e+06 1.78947e+06 0 2.01439e+06 2.11373e+06 0 2.10585e+06 2.51701e+06 0 2.27951e+06 3.04074e+06 0 2.60971e+06 3.75402e+06 0 3.23533e+06 4.75964e+06 0 </DataArray> 
</PointData> 
<Points> 
<DataArray type="Float32" NumberOfComponents="3"> 
0.307 0 0 0.307 0.000333333 0 0.307 0.000666667 0 0.307 0.001 0 0.307 0.00133333 0 0.307 0.00166667 0 0.307 0.002 0 0.307 0.00233333 0 0.307 0.00266667 0 0.307 0.003 0 0.307 0.00333333 0 0.307 0.00366667 0 0.307 0.004 0 0.307 0.00433333 0 0.307 0.00466667 0 0.307 0.005 0 0.312716 0 0 0.312716 0.000357358 0 0.312716 0.000714716 0 0.312716 0.00107207 0 0.312716 0.00142943 0 0.312716 0.00178679 0 0.312716 0.00214415 0 0.312716 0.00250151 0 0.312716 0.00285886 0 0.312716 0.00321622 0 0.312716 0.00357358 0 0.312716 0.00393094 0 0.312716 0.0042883 0 0.312716 0.00464565 0 0.312716 0.00500301 0 0.312716 0.00536037 0 0.318432 0 0 0.318432 0.000381383 0 0.318432 0.000762766 0 0.318432 0.00114415 0 0.318432 0.00152553 0 0.318432 0.00190691 0 0.318432 0.0022883 0 0.318432 0.00266968 0 0.318432 0.00305106 0 0.318432 0.00343245 0 0.318432 0.00381383 0 0.318432 0.00419521 0 0.318432 0.00457659 0 0.318432 0.00495798 0 0.318432 0.00533936 0 0.318432 0.00572074 0 0.324148 0 0 0.324148 0.000405408 0 0.324148 0.000810815 0 0.324148 0.00121622 0 0.324148 0.00162163 0 0.324148 0.00202704 0 0.324148 0.00243245 0 0.324148 0.00283785 0 0.324148 0.00324326 0 0.324148 0.00364867 0 0.324148 0.00405408 0 0.324148 0.00445948 0 0.324148 0.00486489 0 0.324148 0.0052703 0 0.324148 0.00567571 0 0.324148 0.00608111 0 0.329863 0 0 0.329863 0.000429432 0 0.329863 0.000858865 0 0.329863 0.0012883 0 0.329863 0.00171773 0 0.329863 0.00214716 0 0.329863 0.00257659 0 0.329863 0.00300603 0 0.329863 0.00343546 0 0.329863 0.00386489 0 0.329863 0.00429432 0 0.329863 0.00472376 0 0.329863 0.00515319 0 0.329863 0.00558262 0 0.329863 0.00601205 0 0.329863 0.00644148 0 0.335579 0 0 0.335579 0.000453457 0 0.335579 0.000906914 0 0.335579 0.00136037 0 0.335579 0.00181383 0 0.335579 0.00226729 0 0.335579 0.00272074 0 0.335579 0.0031742 0 0.335579 0.00362766 0 0.335579 0.00408111 0 0.335579 0.00453457 0 0.335579 0.00498803 0 0.335579 0.00544148 0 0.335579 0.00589494 0 0.335579 0.0063484 0 0.335579 0.00680186 0 0.341295 0 0 0.341295 0.000477482 0 0.341295 0.000954964 0 0.341295 0.00143245 0 0.341295 0.00190993 0 0.341295 0.00238741 0 0.341295 0.00286489 0 0.341295 0.00334237 0 0.341295 0.00381985 0 0.341295 0.00429734 0 0.341295 0.00477482 0 0.341295 0.0052523 0 0.341295 0.00572978 0 0.341295 0.00620726 0 0.341295 0.00668474 0 0.341295 0.00716223 0 0.347011 0 0 0.347011 0.000501506 0 0.347011 0.00100301 0 0.347011 0.00150452 0 0.347011 0.00200603 0 0.347011 0.00250753 0 0.347011 0.00300904 0 0.347011 0.00351055 0 0.347011 0.00401205 0 0.347011 0.00451356 0 0.347011 0.00501506 0 0.347011 0.00551657 0 0.347011 0.00601808 0 0.347011 0.00651958 0 0.347011 0.00702109 0 0.347011 0.0075226 0 0.352727 0 0 0.352727 0.000525531 0 0.352727 0.00105106 0 0.352727 0.00157659 0 0.352727 0.00210212 0 0.352727 0.00262766 0 0.352727 0.00315319 0 0.352727 0.00367872 0 0.352727 0.00420425 0 0.352727 0.00472978 0 0.352727 0.00525531 0 0.352727 0.00578084 0 0.352727 0.00630637 0 0.352727 0.00683191 0 0.352727 0.00735744 0 0.352727 0.00788297 0 0.358443 0 0 0.358443 0.000549556 0 0.358443 0.00109911 0 0.358443 0.00164867 0 0.358443 0.00219822 0 0.358443 0.00274778 0 0.358443 0.00329734 0 0.358443 0.00384689 0 0.358443 0.00439645 0 0.358443 0.004946 0 0.358443 0.00549556 0 0.358443 0.00604512 0 0.358443 0.00659467 0 0.358443 0.00714423 0 0.358443 0.00769378 0 0.358443 0.00824334 0 0.364159 0 0 0.364159 0.000573581 0 0.364159 0.00114716 0 0.364159 0.00172074 0 0.364159 0.00229432 0 0.364159 0.0028679 0 0.364159 0.00344148 0 0.364159 0.00401506 0 0.364159 0.00458865 0 0.364159 0.00516223 0 0.364159 0.00573581 0 0.364159 0.00630939 0 0.364159 0.00688297 0 0.364159 0.00745655 0 0.364159 0.00803013 0 0.364159 0.00860371 0 0.369874 0 0 0.369874 0.000597605 0 0.369874 0.00119521 0 0.369874 0.00179282 0 0.369874 0.00239042 0 0.369874 0.00298803 0 0.369874 0.00358563 0 0.369874 0.00418324 0 0.369874 0.00478084 0 0.369874 0.00537845 0 0.369874 0.00597605 0 0.369874 0.00657366 0 0.369874 0.00717127 0 0.369874 0.00776887 0 0.369874 0.00836648 0 0.369874 0.00896408 0 0.37559 0 0 0.37559 0.00062163 0 0.37559 0.00124326 0 0.37559 0.00186489 0 0.37559 0.00248652 0 0.37559 0.00310815 0 0.37559 0.00372978 0 0.37559 0.00435141 0 0.37559 0.00497304 0 0.37559 0.00559467 0 0.37559 0.0062163 0 0.37559 0.00683793 0 0.37559 0.00745956 0 0.37559 0.00808119 0 0.37559 0.00870282 0 0.37559 0.00932445 0 0.381306 0 0 0.381306 0.000645655 0 0.381306 0.00129131 0 0.381306 0.00193696 0 0.381306 0.00258262 0 0.381306 0.00322827 0 0.381306 0.00387393 0 0.381306 0.00451958 0 0.381306 0.00516524 0 0.381306 0.00581089 0 0.381306 0.00645655 0 0.381306 0.0071022 0 0.381306 0.00774786 0 0.381306 0.00839351 0 0.381306 0.00903917 0 0.381306 0.00968482 0 0.387022 0 0 0.387022 0.00066968 0 0.387022 0.00133936 0 0.387022 0.00200904 0 0.387022 0.00267872 0 0.387022 0.0033484 0 0.387022 0.00401808 0 0.387022 0.00468776 0 0.387022 0.00535744 0 0.387022 0.00602712 0 0.387022 0.0066968 0 0.387022 0.00736648 0 0.387022 0.00803616 0 0.387022 0.00870584 0 0.387022 0.00937552 0 0.387022 0.0100452 0 0.392738 0 0 0.392738 0.000693704 0 0.392738 0.00138741 0 0.392738 0.00208111 0 0.392738 0.00277482 0 0.392738 0.00346852 0 0.392738 0.00416223 0 0.392738 0.00485593 0 0.392738 0.00554964 0 0.392738 0.00624334 0 0.392738 0.00693704 0 0.392738 0.00763075 0 0.392738 0.00832445 0 0.392738 0.00901816 0 0.392738 0.00971186 0 0.392738 0.0104056 0 
</DataArray>
</Points> 
</Piece> 
</StructuredGrid> 
</VTKFile> 
