<?xml version="1.0"?> 
<VTKFile type="StructuredGrid" version="0.1"> 
<StructuredGrid WholeExtent="0 127 0 127 0 0"> 
<Piece Extent="0 127 0 127 0 0"> 
<PointData>
<DataArray type="Float32" Name="E" format="ascii" NumberOfComponents="3"> 
-953889 -0.017056 0 -953879 615.143 0 -953850 1231.19 0 -953802 1849.06 0 -953734 2469.67 0 -953647 3093.9 0 -953540 3722.69 0 -953413 4356.92 0 -953266 4997.53 0 -953099 5645.4 0 -952911 6301.47 0 -952702 6966.63 0 -952471 7641.81 0 -952218 8327.92 0 -951943 9025.87 0 -951645 9736.58 0 -951324 10461 0 -950978 11199.9 0 -950608 11954.4 0 -950212 12725.3 0 -949790 13513.5 0 -949340 14319.9 0 -948863 15145.4 0 -948356 15990.9 0 -947820 16857.4 0 -947253 17745.6 0 -946654 18656.4 0 -946021 19590.7 0 -945354 20549.4 0 -944650 21533.1 0 -943910 22542.8 0 -943131 23579.2 0 -942311 24643 0 -941450 25735 0 -940545 26855.8 0 -939594 28006 0 -938596 29186.3 0 -937549 30397.3 0 -936451 31639.3 0 -935299 32912.8 0 -934091 34218.2 0 -932825 35555.7 0 -931499 36925.7 0 -930110 38328.1 0 -928655 39763 0 -927132 41230.4 0 -925537 42730 0 -923869 44261.6 0 -922124 45824.7 0 -920299 47418.7 0 -918391 49042.9 0 -916397 50696.5 0 -914313 52378.3 0 -912136 54087.2 0 -909864 55821.7 0 -907492 57580.4 0 -905016 59361.3 0 -902435 61162.4 0 -899743 62981.6 0 -896939 64816.5 0 -894017 66664.3 0 -890975 68522.1 0 -887810 70386.8 0 -884518 72255.1 0 -881096 74123.2 0 -877540 75987.5 0 -873849 77843.8 0 -870018 79687.8 0 -866046 81514.9 0 -861930 83320.4 0 -857666 85099.5 0 -853254 86846.8 0 -848691 88557.2 0 -843976 90225.1 0 -839106 91844.9 0 -834081 93410.8 0 -828900 94917.1 0 -823561 96357.7 0 -818065 97726.6 0 -812410 99017.7 0 -806597 100225 0 -800627 101342 0 -794498 102364 0 -788213 103283 0 -781772 104094 0 -775175 104792 0 -768423 105369 0 -761518 105821 0 -754462 106141 0 -747254 106324 0 -739897 106365 0 -732391 106257 0 -724738 105996 0 -716939 105577 0 -708993 104992 0 -700903 104239 0 -692667 103310 0 -684286 102200 0 -675758 100904 0 -667084 99414.7 0 -658261 97727 0 -649286 95833.7 0 -640157 93727.5 0 -630869 91400.4 0 -621416 88843.7 0 -611794 86047.5 0 -601993 83000.8 0 -592005 79691.1 0 -581818 76103.8 0 -571419 72222.2 0 -560791 68026.6 0 -549915 63493.8 0 -538768 58595.9 0 -527321 53299.5 0 -515540 47563.5 0 -503383 41337.2 0 -490797 34556.7 0 -477716 27139.8 0 -464054 18980.5 0 -449703 9930.21 0 -434492 -195.606 0 -418265 -11747.4 0 -400528 -24949.9 0 -381248 -41306.6 0 -358329 -59561.9 0 -332206 -90853.3 0 -294219 -118006 0 -143124 -287040 0 -954141 -0.0171826 0 -954131 621.185 0 -954103 1243.28 0 -954056 1867.22 0 -953990 2493.9 0 -953905 3124.26 0 -953801 3759.19 0 -953677 4399.62 0 -953534 5046.46 0 -953371 5700.65 0 -953187 6363.08 0 -952983 7034.7 0 -952758 7716.41 0 -952511 8409.15 0 -952243 9113.84 0 -951952 9831.4 0 -951638 10562.8 0 -951301 11308.8 0 -950939 12070.6 0 -950553 12848.9 0 -950140 13644.7 0 -949701 14458.9 0 -949235 15292.5 0 -948740 16146.3 0 -948216 17021.2 0 -947662 17918.1 0 -947076 18838 0 -946457 19781.6 0 -945804 20749.9 0 -945117 21743.7 0 -944392 22763.8 0 -943629 23811 0 -942827 24886 0 -941984 25989.6 0 -941097 27122.6 0 -940166 28285.6 0 -939188 29479.1 0 -938161 30703.9 0 -937084 31960.4 0 -935954 33249.1 0 -934769 34570.3 0 -933527 35924.5 0 -932225 37311.9 0 -930860 38732.6 0 -929431 40186.7 0 -927934 41674.3 0 -926366 43195 0 -924726 44748.8 0 -923009 46335.2 0 -921212 47953.6 0 -919334 49603.6 0 -917369 51284.1 0 -915316 52994.2 0 -913170 54732.8 0 -910929 56498.5 0 -908588 58289.9 0 -906145 60105 0 -903595 61942.1 0 -900936 63798.9 0 -898164 65673 0 -895275 67561.9 0 -892266 69462.6 0 -889134 71372.1 0 -885874 73287.1 0 -882484 75204 0 -878961 77118.9 0 -875301 79027.9 0 -871501 80926.5 0 -867560 82810.4 0 -863473 84674.8 0 -859238 86514.6 0 -854854 88324.9 0 -850318 90100.2 0 -845629 91835.1 0 -840784 93523.9 0 -835783 95160.8 0 -830623 96740 0 -825305 98255.4 0 -819828 99701.1 0 -814191 101071 0 -808395 102358 0 -802438 103558 0 -796323 104663 0 -790048 105668 0 -783616 106566 0 -777026 107352 0 -770281 108020 0 -763380 108564 0 -756325 108977 0 -749118 109256 0 -741760 109393 0 -734251 109384 0 -726593 109223 0 -718787 108906 0 -710834 108426 0 -702735 107778 0 -694488 106958 0 -686095 105960 0 -677555 104778 0 -668866 103406 0 -660027 101840 0 -651035 100072 0 -641888 98095.9 0 -632581 95904.2 0 -623109 93489.1 0 -613466 90841.5 0 -603643 87951.5 0 -593632 84807.9 0 -583420 81397.6 0 -572995 77705.8 0 -562340 73714.9 0 -551435 69404.7 0 -540257 64750.6 0 -528776 59723.5 0 -516958 54288.1 0 -504760 48400.7 0 -492127 42007.4 0 -478992 35039 0 -465265 27408.6 0 -450834 18993.7 0 -435527 9653.73 0 -419152 -895.506 0 -401286 -12800.3 0 -381582 -27102.2 0 -358658 -43268.5 0 -331193 -66358.8 0 -292421 -92665.6 0 -219613 -143423 0 -954396 -0.0173094 0 -954387 627.032 0 -954359 1254.98 0 -954314 1884.79 0 -954249 2517.36 0 -954166 3153.63 0 -954065 3794.51 0 -953944 4440.93 0 -953805 5093.82 0 -953645 5754.1 0 -953467 6422.7 0 -953268 7100.56 0 -953048 7788.6 0 -952808 8487.75 0 -952546 9198.96 0 -952262 9923.15 0 -951956 10661.3 0 -951627 11414.2 0 -951274 12183 0 -950897 12968.5 0 -950494 13771.7 0 -950066 14593.5 0 -949611 15434.8 0 -949128 16296.6 0 -948616 17179.7 0 -948074 18085.2 0 -947502 19013.8 0 -946897 19966.5 0 -946259 20944.2 0 -945587 21947.7 0 -944878 22977.8 0 -944132 24035.5 0 -943348 25121.5 0 -942522 26236.5 0 -941654 27381.3 0 -940742 28556.6 0 -939785 29763.1 0 -938779 31001.4 0 -937723 32272 0 -936616 33575.4 0 -935454 34912.2 0 -934235 36282.7 0 -932957 37687.1 0 -931618 39125.7 0 -930214 40598.6 0 -928744 42105.9 0 -927203 43647.4 0 -925590 45222.9 0 -923902 46832.2 0 -922135 48474.7 0 -920285 50149.9 0 -918351 51857 0 -916329 53595.1 0 -914214 55363 0 -912004 57159.5 0 -909696 58983.1 0 -907285 60832.1 0 -904769 62704.7 0 -902143 64598.7 0 -899404 66511.8 0 -896549 68441.5 0 -893573 70384.8 0 -890474 72338.9 0 -887248 74300.3 0 -883891 76265.6 0 -880400 78231 0 -876773 80192.4 0 -873005 82145.6 0 -869095 84086.1 0 -865039 86009.2 0 -860834 87909.8 0 -856479 89783 0 -851972 91623.3 0 -847309 93425.2 0 -842490 95183.1 0 -837513 96891.1 0 -832377 98543.4 0 -827081 100134 0 -821624 101656 0 -816006 103105 0 -810227 104473 0 -804286 105755 0 -798184 106944 0 -791922 108035 0 -785500 109021 0 -778919 109896 0 -772180 110654 0 -765284 111290 0 -758232 111798 0 -751026 112172 0 -743668 112406 0 -736157 112496 0 -728496 112436 0 -720685 112220 0 -712726 111844 0 -704618 111303 0 -696362 110592 0 -687959 109705 0 -679407 108637 0 -670705 107382 0 -661853 105936 0 -652846 104293 0 -643684 102446 0 -634360 100389 0 -624871 98113.4 0 -615210 95612.6 0 -605369 92877.2 0 -595339 89897.1 0 -585108 86660.7 0 -574663 83155 0 -563988 79364.6 0 -553062 75271.6 0 -541862 70854.9 0 -530359 66089.4 0 -518519 60944.9 0 -506297 55384.5 0 -493640 49363.1 0 -480480 42823.7 0 -466727 35695.9 0 -452268 27882.5 0 -436938 19273.6 0 -420530 9665.17 0 -402674 -1080.8 0 -382944 -13541.8 0 -360238 -27727.7 0 -333250 -45423.7 0 -297210 -66464.9 0 -242256 -90879.7 0 -954654 -0.0174326 0 -954646 632.682 0 -954619 1266.29 0 -954574 1901.76 0 -954512 2540.03 0 -954431 3182.01 0 -954332 3828.64 0 -954215 4480.86 0 -954078 5139.59 0 -953923 5805.76 0 -953749 6480.32 0 -953555 7164.21 0 -953342 7858.36 0 -953107 8563.71 0 -952852 9281.22 0 -952576 10011.8 0 -952277 10756.5 0 -951957 11516.1 0 -951613 12291.7 0 -951245 13084.2 0 -950852 13894.5 0 -950434 14723.6 0 -949990 15572.4 0 -949519 16441.9 0 -949019 17333 0 -948490 18246.7 0 -947931 19183.8 0 -947341 20145.3 0 -946718 21132 0 -946061 22145 0 -945369 23184.9 0 -944640 24252.7 0 -943872 25349.3 0 -943065 26475.3 0 -942216 27631.7 0 -941324 28819 0 -940386 30038.1 0 -939402 31289.5 0 -938368 32573.9 0 -937282 33891.8 0 -936144 35243.7 0 -934949 36630 0 -933696 38051.1 0 -932382 39507.2 0 -931004 40998.5 0 -929560 42525.1 0 -928047 44086.9 0 -926463 45683.9 0 -924803 47315.6 0 -923065 48981.8 0 -921246 50681.9 0 -919343 52415.1 0 -917351 54180.7 0 -915269 55977.5 0 -913091 57804.3 0 -910816 59659.8 0 -908438 61542.4 0 -905955 63450.1 0 -903363 65380.9 0 -900658 67332.6 0 -897837 69302.7 0 -894896 71288.3 0 -891831 73286.6 0 -888639 75294.2 0 -885316 77307.6 0 -881859 79323.2 0 -878265 81336.9 0 -874530 83344.5 0 -870652 85341.5 0 -866628 87323.1 0 -862454 89284.6 0 -858130 91220.6 0 -853651 93125.8 0 -849016 94994.8 0 -844224 96821.9 0 -839273 98601.1 0 -834162 100327 0 -828888 101992 0 -823453 103592 0 -817855 105120 0 -812094 106569 0 -806170 107933 0 -800083 109207 0 -793833 110384 0 -787423 111457 0 -780851 112422 0 -774120 113271 0 -767230 114000 0 -760183 114602 0 -752979 115071 0 -745622 115403 0 -738110 115592 0 -730447 115632 0 -722632 115519 0 -714667 115248 0 -706553 114813 0 -698289 114210 0 -689877 113434 0 -681314 112479 0 -672602 111342 0 -663737 110016 0 -654718 108496 0 -645542 106777 0 -636205 104853 0 -626701 102716 0 -617025 100360 0 -607169 97776.9 0 -597124 94957.6 0 -586879 91892 0 -576419 88568.5 0 -565729 84973.9 0 -554790 81092.6 0 -543578 76906.7 0 -532063 72394.6 0 -520213 67530.9 0 -507983 62284.8 0 -495321 56619.3 0 -482160 50488.2 0 -468413 43835.4 0 -453969 36586.2 0 -438671 28655.6 0 -422316 19905.2 0 -404577 10217.3 0 -385020 -711.227 0 -362800 -12997.1 0 -336637 -27228.1 0 -303801 -43378.9 0 -259003 -58969.9 0 -954916 -0.0175509 0 -954907 638.135 0 -954881 1277.2 0 -954838 1918.15 0 -954777 2561.9 0 -954698 3209.4 0 -954602 3861.59 0 -954488 4519.39 0 -954355 5183.75 0 -954204 5855.62 0 -954035 6535.93 0 -953846 7225.63 0 -953638 7925.68 0 -953410 8637.02 0 -953162 9360.6 0 -952892 10097.4 0 -952602 10848.3 0 -952289 11614.4 0 -951954 12396.6 0 -951596 13195.8 0 -951213 14013 0 -950806 14849.1 0 -950373 15705.2 0 -949913 16582.2 0 -949426 17481 0 -948910 18402.6 0 -948365 19347.9 0 -947789 20317.9 0 -947181 21313.4 0 -946539 22335.5 0 -945863 23384.9 0 -945151 24462.6 0 -944401 25569.5 0 -943612 26706.2 0 -942782 27873.7 0 -941910 29072.8 0 -940993 30304 0 -940029 31568.3 0 -939017 32866 0 -937955 34198 0 -936839 35564.6 0 -935668 36966.4 0 -934440 38403.8 0 -933152 39877 0 -931800 41386.3 0 -930384 42931.8 0 -928899 44513.6 0 -927343 46131.4 0 -925712 47785.3 0 -924004 49474.7 0 -922216 51199.2 0 -920343 52958.1 0 -918384 54750.7 0 -916334 56576 0 -914189 58432.8 0 -911947 60319.8 0 -909603 62235.4 0 -907154 64177.8 0 -904596 66145.1 0 -901926 68135 0 -899140 70145.1 0 -896234 72172.7 0 -893204 74214.9 0 -890047 76268.3 0 -886759 78329.7 0 -883337 80395.2 0 -879777 82461 0 -876076 84522.7 0 -872231 86576 0 -868240 88616.2 0 -864098 90638.2 0 -859805 92637 0 -855356 94607.3 0 -850751 96543.4 0 -845987 98439.6 0 -841062 100290 0 -835976 102089 0 -830727 103830 0 -825314 105507 0 -819737 107114 0 -813995 108644 0 -808089 110092 0 -802018 111450 0 -795783 112714 0 -789385 113876 0 -782824 114930 0 -776101 115871 0 -769219 116692 0 -762177 117388 0 -754977 117954 0 -747621 118383 0 -740110 118671 0 -732445 118812 0 -724628 118802 0 -716659 118635 0 -708539 118307 0 -700269 117812 0 -691848 117146 0 -683277 116305 0 -674555 115284 0 -665680 114077 0 -656650 112681 0 -647462 111088 0 -638113 109296 0 -628598 107296 0 -618910 105083 0 -609043 102650 0 -598986 99988.6 0 -588730 97090.4 0 -578260 93945.2 0 -567562 90541.6 0 -556616 86866.5 0 -545398 82904.3 0 -533881 78637.2 0 -522032 74043.9 0 -509808 69099.3 0 -497158 63773.2 0 -484017 58029.2 0 -470302 51823.4 0 -455906 45100.3 0 -440684 37796.2 0 -424444 29820.5 0 -406897 21087.6 0 -387643 11446.3 0 -366014 812.222 0 -340962 -10913.5 0 -310641 -23589.2 0 -271909 -34906.5 0 -955180 -0.0176644 0 -955172 643.389 0 -955146 1287.72 0 -955104 1933.94 0 -955045 2582.98 0 -954969 3235.8 0 -954875 3893.33 0 -954764 4556.51 0 -954635 5226.31 0 -954488 5903.65 0 -954324 6589.5 0 -954140 7284.82 0 -953938 7990.55 0 -953716 8707.65 0 -953474 9437.1 0 -953212 10179.8 0 -952929 10936.9 0 -952625 11709.1 0 -952299 12497.6 0 -951950 13303.3 0 -951577 14127.1 0 -951181 14970.1 0 -950759 15833.2 0 -950311 16717.4 0 -949836 17623.6 0 -949334 18552.9 0 -948802 19506.1 0 -948240 20484.3 0 -947647 21488.4 0 -947021 22519.3 0 -946362 23577.9 0 -945666 24665.1 0 -944934 25781.9 0 -944164 26929 0 -943353 28107.4 0 -942500 29317.8 0 -941604 30560.9 0 -940662 31837.5 0 -939672 33148.3 0 -938632 34494 0 -937540 35875 0 -936394 37291.9 0 -935191 38745.1 0 -933928 40235 0 -932603 41761.9 0 -931214 43325.9 0 -929757 44927.1 0 -928230 46565.5 0 -926629 48240.9 0 -924952 49953.1 0 -923194 51701.6 0 -921353 53485.8 0 -919426 55305.1 0 -917408 57158.4 0 -915297 59044.7 0 -913089 60962.7 0 -910780 62910.9 0 -908365 64887.7 0 -905843 66891 0 -903208 68918.7 0 -900457 70968.5 0 -897587 73037.7 0 -894593 75123.4 0 -891472 77222.4 0 -888219 79331.4 0 -884833 81446.6 0 -881308 83564.1 0 -877642 85679.9 0 -873832 87789.3 0 -869874 89887.8 0 -865766 91970.3 0 -861504 94031.9 0 -857087 96067 0 -852512 98070.2 0 -847777 100036 0 -842881 101958 0 -837821 103830 0 -832598 105647 0 -827209 107401 0 -821654 109088 0 -815932 110699 0 -810045 112230 0 -803991 113674 0 -797771 115024 0 -791386 116274 0 -784837 117419 0 -778125 118451 0 -771250 119366 0 -764215 120157 0 -757020 120819 0 -749667 121346 0 -742157 121734 0 -734492 121976 0 -726673 122068 0 -718701 122006 0 -710576 121784 0 -702301 121397 0 -693874 120842 0 -685295 120114 0 -676565 119208 0 -667681 118120 0 -658642 116846 0 -649444 115380 0 -640086 113717 0 -630561 111853 0 -620863 109781 0 -610987 107495 0 -600922 104989 0 -590659 102255 0 -580184 99284.2 0 -569482 96066.9 0 -558534 92592 0 -547319 88846.6 0 -535808 84815.9 0 -523969 80482.6 0 -511762 75826.3 0 -499137 70823.3 0 -486033 65445.2 0 -472371 59658.8 0 -458050 53424.1 0 -442938 46696.1 0 -426855 39418.2 0 -409551 31536.8 0 -390672 22988 0 -369682 13745.7 0 -345753 3899.8 0 -317647 -6262.78 0 -283308 -14997.8 0 -955447 -0.017774 0 -955439 648.444 0 -955415 1297.83 0 -955374 1949.12 0 -955316 2603.26 0 -955242 3261.19 0 -955151 3923.86 0 -955043 4592.23 0 -954918 5267.25 0 -954775 5949.86 0 -954615 6641.05 0 -954437 7341.75 0 -954240 8052.95 0 -954024 8775.6 0 -953789 9510.68 0 -953535 10259.2 0 -953260 11022 0 -952964 11800.3 0 -952647 12594.8 0 -952307 13406.8 0 -951945 14237 0 -951559 15086.5 0 -951148 15956.4 0 -950712 16847.5 0 -950250 17760.9 0 -949760 18697.5 0 -949243 19658.4 0 -948695 20644.5 0 -948117 21656.8 0 -947507 22696.2 0 -946864 23763.7 0 -946186 24860.1 0 -945471 25986.5 0 -944719 27143.7 0 -943928 28332.6 0 -943095 29553.9 0 -942219 30808.5 0 -941299 32097.2 0 -940331 33420.7 0 -939314 34779.6 0 -938246 36174.6 0 -937124 37606.2 0 -935947 39074.8 0 -934710 40581 0 -933413 42125 0 -932051 43707.1 0 -930623 45327.3 0 -929125 46985.8 0 -927554 48682.4 0 -925907 50416.9 0 -924181 52189 0 -922372 53998 0 -920477 55843.4 0 -918493 57724.3 0 -916416 59639.7 0 -914242 61588.3 0 -911968 63568.7 0 -909589 65579.3 0 -907102 67618.2 0 -904504 69683.4 0 -901789 71772.5 0 -898955 73882.9 0 -895998 76011.7 0 -892913 78155.9 0 -889698 80312.2 0 -886348 82476.8 0 -882859 84645.9 0 -879229 86815.3 0 -875454 88980.7 0 -871531 91137.4 0 -867457 93280.3 0 -863229 95404.5 0 -858844 97504.6 0 -854301 99574.9 0 -849596 101610 0 -844729 103603 0 -839697 105549 0 -834500 107441 0 -829135 109274 0 -823604 111040 0 -817904 112733 0 -812036 114348 0 -806001 115877 0 -799798 117314 0 -793428 118653 0 -786891 119888 0 -780190 121013 0 -773324 122021 0 -766296 122908 0 -759107 123666 0 -751758 124292 0 -744251 124779 0 -736586 125122 0 -728767 125318 0 -720793 125360 0 -712665 125244 0 -704385 124966 0 -695953 124521 0 -687368 123905 0 -678631 123115 0 -669739 122145 0 -660692 120991 0 -651487 119650 0 -642121 118116 0 -632588 116385 0 -622884 114453 0 -613001 112312 0 -602931 109959 0 -592664 107385 0 -582188 104585 0 -571486 101549 0 -560542 98268.5 0 -549334 94732.9 0 -537836 90930.1 0 -526016 86846.3 0 -513836 82465.5 0 -501248 77769.2 0 -488195 72736.2 0 -474602 67342.4 0 -460377 61560.3 0 -445397 55360.2 0 -429502 48710.2 0 -412472 41583.9 0 -394004 33967.8 0 -373664 25886.9 0 -350808 17500.8 0 -324558 9152.78 0 -293579 2177.61 0 -955717 -0.0178786 0 -955709 653.299 0 -955686 1307.55 0 -955646 1963.71 0 -955590 2622.73 0 -955518 3285.57 0 -955430 3953.19 0 -955325 4626.53 0 -955204 5306.56 0 -955065 5994.24 0 -954910 6690.54 0 -954736 7396.42 0 -954545 8112.87 0 -954336 8840.85 0 -954108 9581.34 0 -953860 10335.3 0 -953593 11103.8 0 -953306 11887.8 0 -952998 12688.2 0 -952668 13506.1 0 -952315 14342.5 0 -951940 15198.3 0 -951541 16074.6 0 -951117 16972.4 0 -950667 17892.7 0 -950191 18836.5 0 -949686 19804.7 0 -949154 20798.4 0 -948591 21818.6 0 -947996 22866.2 0 -947369 23942.2 0 -946709 25047.6 0 -946012 26183.3 0 -945279 27350.2 0 -944507 28549.2 0 -943694 29781.1 0 -942839 31046.9 0 -941940 32347.3 0 -940995 33683 0 -940002 35054.8 0 -938958 36463.4 0 -937861 37909.2 0 -936708 39392.9 0 -935498 40914.9 0 -934228 42475.7 0 -932894 44075.3 0 -931495 45714.2 0 -930026 47392.3 0 -928486 49109.6 0 -926870 50866 0 -925175 52661.1 0 -923399 54494.5 0 -921538 56365.6 0 -919588 58273.6 0 -917545 60217.5 0 -915406 62196.2 0 -913167 64208.4 0 -910825 66252.4 0 -908374 68326.5 0 -905813 70428.7 0 -903135 72556.6 0 -900339 74707.8 0 -897419 76879.4 0 -894372 79068.5 0 -891194 81271.7 0 -887881 83485.4 0 -884430 85705.8 0 -880837 87928.7 0 -877098 90149.8 0 -873211 92364.4 0 -869172 94567.7 0 -864978 96754.4 0 -860627 98919.2 0 -856116 101057 0 -851443 103161 0 -846606 105226 0 -841603 107245 0 -836433 109214 0 -831095 111124 0 -825588 112970 0 -819911 114745 0 -814064 116444 0 -808048 118059 0 -801863 119583 0 -795508 121012 0 -788986 122338 0 -782297 123555 0 -775442 124657 0 -768422 125639 0 -761239 126495 0 -753895 127219 0 -746392 127806 0 -738729 128251 0 -730910 128549 0 -722935 128696 0 -714805 128686 0 -706522 128516 0 -698085 128182 0 -689496 127678 0 -680753 127002 0 -671855 126150 0 -662802 125116 0 -653590 123899 0 -644217 122493 0 -634679 120894 0 -624970 119098 0 -615083 117101 0 -605011 114897 0 -594743 112481 0 -584268 109847 0 -573572 106987 0 -562636 103895 0 -551441 100563 0 -539961 96979.5 0 -528166 93134.9 0 -516021 89016.8 0 -503480 84611.4 0 -490489 79903.5 0 -476979 74876.6 0 -462864 69513.1 0 -448034 63796 0 -432345 57710.9 0 -415607 51252.8 0 -397562 44438.3 0 -377857 37325.6 0 -355994 30097.6 0 -331340 23100.7 0 -302988 17363.3 0 -955990 -0.0179773 0 -955982 657.952 0 -955959 1316.86 0 -955921 1977.69 0 -955867 2641.4 0 -955797 3308.95 0 -955711 3981.29 0 -955610 4659.4 0 -955492 5344.24 0 -955358 6036.77 0 -955207 6737.97 0 -955039 7448.82 0 -954854 8170.3 0 -954650 8903.38 0 -954429 9649.06 0 -954189 10408.3 0 -953930 11182.2 0 -953651 11971.6 0 -953351 12777.7 0 -953031 13601.3 0 -952689 14443.6 0 -952324 15305.5 0 -951936 16188 0 -951524 17092.2 0 -951087 18019.1 0 -950624 18969.7 0 -950134 19945 0 -949615 20946 0 -949067 21973.8 0 -948489 23029.3 0 -947879 24113.6 0 -947235 25227.5 0 -946557 26372.2 0 -945842 27548.4 0 -945090 28757.2 0 -944297 29999.4 0 -943464 31275.9 0 -942586 32587.6 0 -941664 33935.2 0 -940694 35319.5 0 -939674 36741.2 0 -938602 38200.9 0 -937476 39699.2 0 -936292 41236.7 0 -935049 42813.6 0 -933744 44430.5 0 -932373 46087.5 0 -930935 47784.8 0 -929425 49522.3 0 -927840 51300 0 -926178 53117.7 0 -924435 54975 0 -922607 56871.3 0 -920691 58805.9 0 -918684 60777.9 0 -916580 62786.3 0 -914378 64829.8 0 -912072 66906.7 0 -909659 69015.6 0 -907135 71154.2 0 -904495 73320.6 0 -901737 75512.1 0 -898855 77726.2 0 -895847 79959.7 0 -892707 82209.5 0 -889433 84471.9 0 -886019 86743.3 0 -882464 89019.4 0 -878763 91296 0 -874913 93568.4 0 -870910 95831.8 0 -866752 98080.9 0 -862435 100311 0 -857958 102515 0 -853317 104688 0 -848512 106825 0 -843539 108918 0 -838398 110963 0 -833087 112951 0 -827606 114877 0 -821953 116735 0 -816129 118518 0 -810133 120218 0 -803966 121831 0 -797629 123349 0 -791122 124766 0 -784446 126076 0 -777602 127273 0 -770592 128351 0 -763417 129304 0 -756079 130127 0 -748580 130814 0 -740920 131361 0 -733102 131762 0 -725127 132014 0 -716997 132110 0 -708711 132049 0 -700271 131824 0 -691678 131432 0 -682930 130871 0 -674028 130135 0 -664969 129221 0 -655753 128126 0 -646375 126846 0 -636833 125378 0 -627120 123717 0 -617232 121861 0 -607160 119803 0 -596894 117541 0 -586424 115069 0 -575735 112382 0 -564811 109473 0 -553633 106336 0 -542177 102964 0 -530414 99348.7 0 -518310 95480.9 0 -505823 91351.2 0 -492903 86949.3 0 -479485 82265 0 -465492 77288.5 0 -450823 72012.8 0 -435352 66436.5 0 -418913 60569.7 0 -401289 54447.4 0 -382192 48146.8 0 -361235 41851.9 0 -337951 35886.2 0 -311716 31055.6 0 -956266 -0.0180723 0 -956258 662.402 0 -956236 1325.76 0 -956198 1991.06 0 -956146 2659.25 0 -956078 3331.3 0 -955995 4008.17 0 -955897 4690.84 0 -955783 5380.27 0 -955653 6077.45 0 -955507 6783.34 0 -955344 7498.94 0 -955164 8225.22 0 -954968 8963.18 0 -954753 9713.83 0 -954520 10478.1 0 -954269 11257.1 0 -953998 12051.8 0 -953708 12863.3 0 -953397 13692.4 0 -953065 14540.3 0 -952711 15408 0 -952335 16296.4 0 -951935 17206.8 0 -951510 18140 0 -951060 19097.1 0 -950584 20079.2 0 -950080 21087.3 0 -949548 22122.3 0 -948985 23185.5 0 -948392 24277.6 0 -947766 25399.8 0 -947105 26553 0 -946410 27738.3 0 -945677 28956.5 0 -944905 30208.6 0 -944092 31495.5 0 -943237 32818.1 0 -942337 34177.2 0 -941390 35573.6 0 -940395 37008 0 -939348 38481.2 0 -938248 39993.7 0 -937091 41546.1 0 -935876 43138.8 0 -934599 44772.4 0 -933258 46447.1 0 -931850 48163 0 -930371 49920.3 0 -928818 51719 0 -927189 53558.8 0 -925479 55439.4 0 -923685 57360.4 0 -921804 59321.1 0 -919832 61320.7 0 -917765 63358.3 0 -915599 65432.5 0 -913331 67541.9 0 -910955 69685 0 -908469 71859.7 0 -905869 74064 0 -903149 76295.5 0 -900307 78551.5 0 -897337 80829.1 0 -894237 83125.1 0 -891002 85435.9 0 -887628 87757.9 0 -884112 90087 0 -880449 92418.8 0 -876637 94748.8 0 -872671 97072.1 0 -868550 99383.5 0 -864269 101678 0 -859827 103949 0 -855220 106192 0 -850447 108400 0 -845506 110568 0 -840394 112688 0 -835112 114755 0 -829658 116761 0 -824030 118701 0 -818229 120568 0 -812256 122356 0 -806109 124056 0 -799789 125664 0 -793298 127173 0 -786637 128576 0 -779805 129868 0 -772806 131042 0 -765640 132093 0 -758309 133015 0 -750815 133803 0 -743160 134452 0 -735344 134957 0 -727370 135313 0 -719239 135516 0 -710952 135562 0 -702510 135447 0 -693914 135167 0 -685163 134719 0 -676257 134099 0 -667194 133304 0 -657974 132331 0 -648593 131176 0 -639048 129837 0 -629335 128310 0 -619446 126591 0 -609376 124678 0 -599114 122566 0 -588651 120253 0 -577974 117732 0 -567066 115001 0 -555909 112053 0 -544480 108885 0 -532753 105488 0 -520696 101859 0 -508270 97990.6 0 -495426 93876.4 0 -482108 89511.7 0 -468244 84893.1 0 -453744 80021.1 0 -438495 74903.5 0 -422356 69561.1 0 -405142 64039.6 0 -386619 58425 0 -366484 52892.9 0 -344386 47733.8 0 -319885 43586.5 0 -956544 -0.0181627 0 -956536 666.649 0 -956515 1334.26 0 -956479 2003.82 0 -956428 2676.29 0 -956363 3352.63 0 -956282 4033.83 0 -956187 4720.84 0 -956077 5414.66 0 -955951 6116.26 0 -955809 6826.63 0 -955652 7546.75 0 -955478 8277.63 0 -955287 9020.25 0 -955080 9775.62 0 -954854 10544.8 0 -954611 11328.7 0 -954349 12128.4 0 -954067 12944.9 0 -953766 13779.3 0 -953444 14632.6 0 -953101 15505.8 0 -952736 16399.9 0 -952348 17316.1 0 -951936 18255.4 0 -951500 19218.8 0 -951037 20207.3 0 -950548 21222.1 0 -950031 22264.2 0 -949485 23334.6 0 -948908 24434.3 0 -948299 25564.4 0 -947657 26725.9 0 -946980 27919.8 0 -946267 29147.1 0 -945516 30408.7 0 -944724 31705.6 0 -943891 33038.8 0 -943014 34408.9 0 -942091 35817 0 -941120 37263.7 0 -940099 38749.9 0 -939025 40276.1 0 -937896 41843 0 -936709 43451.1 0 -935461 45101 0 -934149 46792.8 0 -932771 48526.9 0 -931324 50303.5 0 -929803 52122.5 0 -928207 53983.9 0 -926531 55887.4 0 -924772 57832.6 0 -922926 59818.9 0 -920990 61845.7 0 -918960 63911.8 0 -916831 66016.3 0 -914601 68157.7 0 -912264 70334.5 0 -909817 72544.8 0 -907256 74786.6 0 -904576 77057.6 0 -901774 79355.1 0 -898844 81676.3 0 -895784 84018.1 0 -892589 86377 0 -889255 88749.3 0 -885779 91131 0 -882156 93517.8 0 -878382 95905.1 0 -874455 98288.1 0 -870372 100662 0 -866128 103020 0 -861722 105359 0 -857150 107671 0 -852411 109951 0 -847502 112192 0 -842422 114389 0 -837170 116534 0 -831743 118621 0 -826142 120644 0 -820367 122596 0 -814416 124469 0 -808290 126259 0 -801990 127957 0 -795516 129558 0 -788870 131055 0 -782052 132442 0 -775064 133713 0 -767908 134862 0 -760586 135883 0 -753098 136772 0 -745447 137523 0 -737635 138132 0 -729663 138593 0 -721533 138903 0 -713246 139057 0 -704803 139051 0 -696204 138883 0 -687451 138548 0 -678542 138044 0 -669477 137366 0 -660254 136514 0 -650871 135483 0 -641325 134271 0 -631612 132875 0 -621725 131292 0 -611658 129520 0 -601403 127556 0 -590950 125397 0 -580285 123039 0 -569395 120479 0 -558262 117715 0 -546865 114741 0 -535179 111555 0 -523173 108153 0 -510811 104532 0 -498050 100688 0 -484836 96621.8 0 -471105 92334.1 0 -456777 87831.4 0 -441753 83128.2 0 -425909 78252.2 0 -409090 73254.8 0 -391105 68224.6 0 -371713 63324.4 0 -350648 58809.8 0 -327593 55193.2 0 -956824 -0.0182463 0 -956817 670.692 0 -956796 1342.35 0 -956761 2015.97 0 -956712 2692.51 0 -956649 3372.94 0 -956572 4058.25 0 -956480 4749.4 0 -956373 5447.4 0 -956251 6153.21 0 -956115 6867.84 0 -955962 7592.27 0 -955794 8327.51 0 -955610 9074.56 0 -955409 9834.44 0 -955191 10608.2 0 -954955 11396.7 0 -954702 12201.2 0 -954429 13022.6 0 -954138 13862 0 -953826 14720.4 0 -953494 15598.9 0 -953140 16498.4 0 -952764 17420.2 0 -952365 18365.3 0 -951942 19334.6 0 -951494 20329.4 0 -951019 21350.6 0 -950517 22399.3 0 -949987 23476.6 0 -949427 24583.6 0 -948836 25721.3 0 -948212 26890.7 0 -947554 28092.9 0 -946861 29328.9 0 -946130 30599.7 0 -945360 31906.2 0 -944549 33249.4 0 -943696 34630.3 0 -942797 36049.6 0 -941851 37508.2 0 -940855 39006.9 0 -939807 40546.4 0 -938705 42127.4 0 -937546 43750.4 0 -936327 45416 0 -935046 47124.5 0 -933699 48876.4 0 -932283 50671.7 0 -930795 52510.6 0 -929232 54393 0 -927591 56318.9 0 -925867 58287.7 0 -924057 60299.1 0 -922157 62352.4 0 -920164 64446.7 0 -918074 66580.9 0 -915882 68753.7 0 -913584 70963.7 0 -911177 73209.1 0 -908656 75487.9 0 -906017 77797.9 0 -903255 80136.5 0 -900367 82500.9 0 -897348 84888 0 -894194 87294.6 0 -890901 89716.8 0 -887466 92150.8 0 -883883 94592.2 0 -880150 97036.6 0 -876263 99479.1 0 -872218 101915 0 -868013 104338 0 -863644 106743 0 -859108 109124 0 -854404 111476 0 -849529 113791 0 -844482 116064 0 -839260 118288 0 -833863 120456 0 -828290 122562 0 -822540 124599 0 -816613 126559 0 -810510 128438 0 -804230 130227 0 -797775 131920 0 -791145 133511 0 -784342 134993 0 -777368 136361 0 -770222 137609 0 -762909 138731 0 -755429 139721 0 -747784 140574 0 -739976 141287 0 -732007 141853 0 -723878 142269 0 -715592 142531 0 -707148 142635 0 -698549 142578 0 -689794 142356 0 -680883 141967 0 -671816 141407 0 -662592 140674 0 -653209 139765 0 -643663 138679 0 -633950 137412 0 -624066 135964 0 -614005 134330 0 -603758 132510 0 -593316 130502 0 -582667 128302 0 -571798 125909 0 -560692 123321 0 -549328 120535 0 -537685 117551 0 -525733 114365 0 -513440 110977 0 -500764 107388 0 -487658 103600 0 -474063 99619.1 0 -459908 95454.8 0 -445106 91126.7 0 -429550 86666.7 0 -413109 82129 0 -395624 77600.6 0 -376905 73230.1 0 -356747 69240.7 0 -334914 66047.3 0 -957107 -0.0183269 0 -957100 674.53 0 -957080 1350.03 0 -957047 2027.5 0 -956999 2707.9 0 -956938 3392.22 0 -956864 4081.42 0 -956775 4776.51 0 -956672 5478.47 0 -956554 6188.28 0 -956422 6906.95 0 -956275 7635.47 0 -956113 8374.85 0 -955935 9126.11 0 -955741 9890.26 0 -955530 10668.3 0 -955302 11461.3 0 -955057 12270.3 0 -954794 13096.4 0 -954512 13940.5 0 -954211 14803.8 0 -953889 15687.2 0 -953547 16591.9 0 -953183 17519 0 -952797 18469.5 0 -952387 19444.6 0 -951953 20445.2 0 -951493 21472.5 0 -951007 22527.6 0 -950493 23611.5 0 -949949 24725.4 0 -949376 25870.3 0 -948771 27047.3 0 -948132 28257.5 0 -947458 29501.8 0 -946748 30781.3 0 -946000 32097.1 0 -945212 33450 0 -944381 34841.1 0 -943506 36271.3 0 -942585 37741.4 0 -941615 39252.2 0 -940594 40804.5 0 -939520 42399.1 0 -938389 44036.5 0 -937200 45717.4 0 -935948 47442.1 0 -934633 49211.1 0 -933249 51024.7 0 -931794 52883 0 -930265 54786 0 -928658 56733.6 0 -926969 58725.6 0 -925196 60761.5 0 -923334 62840.8 0 -921378 64962.6 0 -919326 67126 0 -917174 69329.7 0 -914916 71572.4 0 -912549 73852.3 0 -910069 76167.6 0 -907471 78516.1 0 -904751 80895.2 0 -901905 83302.4 0 -898928 85734.5 0 -895816 88188.2 0 -892565 90660 0 -889172 93145.9 0 -885631 95641.7 0 -881939 98142.8 0 -878093 100645 0 -874088 103142 0 -869922 105629 0 -865592 108101 0 -861094 110552 0 -856426 112975 0 -851586 115364 0 -846573 117714 0 -841383 120016 0 -836017 122265 0 -830473 124454 0 -824750 126576 0 -818849 128624 0 -812769 130592 0 -806511 132472 0 -800076 134258 0 -793464 135944 0 -786676 137522 0 -779715 138988 0 -772582 140334 0 -765279 141556 0 -757807 142648 0 -750169 143605 0 -742366 144421 0 -734401 145093 0 -726275 145616 0 -717990 145986 0 -709547 146200 0 -700947 146253 0 -692192 146144 0 -683280 145869 0 -674213 145425 0 -664988 144811 0 -655604 144024 0 -646059 143062 0 -636350 141923 0 -626470 140606 0 -616415 139108 0 -606178 137430 0 -595749 135568 0 -585117 133522 0 -574270 131291 0 -563193 128873 0 -551866 126268 0 -540268 123476 0 -528373 120496 0 -516150 117330 0 -503562 113981 0 -490566 110453 0 -477108 106756 0 -463125 102902 0 -448540 98914.1 0 -433262 94826.7 0 -417179 90694.2 0 -400160 86600.1 0 -382052 82678.8 0 -362694 79124.5 0 -341909 76276.8 0 -957393 -0.0184023 0 -957386 678.163 0 -957367 1357.3 0 -957334 2038.41 0 -957289 2722.47 0 -957230 3410.46 0 -957158 4103.36 0 -957072 4802.17 0 -956973 5507.87 0 -956860 6221.46 0 -956732 6943.95 0 -956591 7676.34 0 -956434 8419.65 0 -956262 9174.88 0 -956075 9943.07 0 -955872 10725.3 0 -955652 11522.5 0 -955415 12335.7 0 -955161 13166.2 0 -954889 14014.8 0 -954598 14882.6 0 -954287 15770.8 0 -953957 16680.4 0 -953605 17