<?xml version="1.0"?> 
<VTKFile type="StructuredGrid" version="0.1"> 
<StructuredGrid WholeExtent="0 15 0 15 0 0"> 
<Piece Extent="0 15 0 15 0 0"> 
<PointData>
<DataArray type="Float32" Name="E" format="ascii" NumberOfComponents="3"> 
2.03794e+06 -807105 0 2.16602e+06 -857831 0 2.27324e+06 -900293 0 2.36482e+06 -936561 0 2.44457e+06 -968146 0 2.5153e+06 -996157 0 2.57907e+06 -1.02141e+06 0 2.63741e+06 -1.04452e+06 0 2.69148e+06 -1.06593e+06 0 2.74212e+06 -1.08599e+06 0 2.78998e+06 -1.10494e+06 0 2.83555e+06 -1.12299e+06 0 2.87916e+06 -1.14026e+06 0 2.92106e+06 -1.15686e+06 0 2.96139e+06 -1.17283e+06 0 3.00017e+06 -1.18819e+06 0 2.85739e+06 -582618 0 2.87815e+06 -613680 0 2.90249e+06 -643608 0 2.9294e+06 -672241 0 2.95812e+06 -699524 0 2.98816e+06 -725470 0 3.01914e+06 -750131 0 3.05081e+06 -773581 0 3.083e+06 -795909 0 3.1156e+06 -817204 0 3.14854e+06 -837561 0 3.18179e+06 -857065 0 3.21536e+06 -875801 0 3.24925e+06 -893838 0 3.28351e+06 -911238 0 3.31819e+06 -928039 0 3.17624e+06 -461149 0 3.19873e+06 -481586 0 3.22162e+06 -500914 0 3.24501e+06 -519240 0 3.26892e+06 -536638 0 3.2934e+06 -553159 0 3.31845e+06 -568836 0 3.34408e+06 -583694 0 3.37028e+06 -597747 0 3.39707e+06 -611003 0 3.42443e+06 -623466 0 3.45238e+06 -635135 0 3.48091e+06 -646005 0 3.51003e+06 -656068 0 3.53975e+06 -665319 0 3.57008e+06 -673754 0 3.40134e+06 -344905 0 3.41916e+06 -355222 0 3.43752e+06 -365085 0 3.45641e+06 -374427 0 3.47579e+06 -383196 0 3.49566e+06 -391349 0 3.51599e+06 -398853 0 3.53677e+06 -405676 0 3.55799e+06 -411792 0 3.57964e+06 -417175 0 3.60171e+06 -421801 0 3.62418e+06 -425646 0 3.64705e+06 -428685 0 3.67032e+06 -430893 0 3.69395e+06 -432239 0 3.71796e+06 -432690 0 3.54018e+06 -225021 0 3.55408e+06 -230036 0 3.56827e+06 -234421 0 3.58273e+06 -238172 0 3.59744e+06 -241281 0 3.6124e+06 -243739 0 3.62759e+06 -245534 0 3.64301e+06 -246655 0 3.65863e+06 -247085 0 3.67445e+06 -246810 0 3.69045e+06 -245813 0 3.7066e+06 -244076 0 3.72289e+06 -241581 0 3.73929e+06 -238309 0 3.75579e+06 -234244 0 3.77236e+06 -229368 0 3.61422e+06 -127032 0 3.62369e+06 -127772 0 3.63327e+06 -127986 0 3.64296e+06 -127684 0 3.65277e+06 -126868 0 3.66266e+06 -125529 0 3.67262e+06 -123658 0 3.68263e+06 -121244 0 3.69267e+06 -118276 0 3.70271e+06 -114744 0 3.71274e+06 -110639 0 3.72273e+06 -105952 0 3.73266e+06 -100676 0 3.74252e+06 -94802.9 0 3.75228e+06 -88327.2 0 3.76192e+06 -81241.2 0 3.63992e+06 -54350.2 0 3.64547e+06 -52649.2 0 3.65107e+06 -50692 0 3.65666e+06 -48396.6 0 3.6622e+06 -45721 0 3.66768e+06 -42645.8 0 3.67308e+06 -39162.4 0 3.6784e+06 -35267.9 0 3.68362e+06 -30961 0 3.68872e+06 -26241.3 0 3.6937e+06 -21108 0 3.69853e+06 -15560.1 0 3.7032e+06 -9596.47 0 3.70768e+06 -3216.1 0 3.71195e+06 3581.61 0 3.716e+06 10796.3 0 3.63674e+06 -8845.05 0 3.63916e+06 -6868.76 0 3.6414e+06 -4324.99 0 3.64353e+06 -1398.09 0 3.64557e+06 1820.55 0 3.64752e+06 5292.15 0 3.64936e+06 9004.83 0 3.65106e+06 12959.2 0 3.6526e+06 17160.6 0 3.65396e+06 21615.2 0 3.65513e+06 26328.1 0 3.65609e+06 31303.2 0 3.65682e+06 36542.5 0 3.65732e+06 42047 0 3.65757e+06 47816.9 0 3.65756e+06 53852.1 0 3.61977e+06 10342.9 0 3.61978e+06 13334 0 3.61985e+06 15767.4 0 3.61979e+06 18042.1 0 3.61954e+06 20365 0 3.61906e+06 22831.1 0 3.61836e+06 25475.5 0 3.61743e+06 28304.1 0 3.61627e+06 31309.5 0 3.61489e+06 34480.1 0 3.61327e+06 37804.5 0 3.6114e+06 41272.7 0 3.60928e+06 44876.6 0 3.60688e+06 48609.7 0 3.6042e+06 52465.9 0 3.60121e+06 56439.4 0 3.60338e+06 12279.7 0 3.60228e+06 11145.5 0 3.60069e+06 11485.7 0 3.59884e+06 12510 0 3.59683e+06 13792.7 0 3.59468e+06 15127 0 3.59238e+06 16427 0 3.58988e+06 17669.3 0 3.58717e+06 18861.2 0 3.5842e+06 20021.7 0 3.58096e+06 21172.7 0 3.57744e+06 22335.4 0 3.57361e+06 23528.4 0 3.56947e+06 24769.3 0 3.565e+06 26075.2 0 3.56022e+06 27464.8 0 3.59744e+06 -6506.82 0 3.5956e+06 -3317.26 0 3.59406e+06 -3085.33 0 3.59241e+06 -4341.89 0 3.59047e+06 -6266.12 0 3.58816e+06 -8438.04 0 3.58547e+06 -10665.4 0 3.5824e+06 -12880.1 0 3.57896e+06 -15076.8 0 3.57515e+06 -17278.6 0 3.57096e+06 -19517.7 0 3.5664e+06 -21827.4 0 3.56143e+06 -24239 0 3.55605e+06 -26781.7 0 3.55023e+06 -29486.2 0 3.54395e+06 -32387.7 0 3.61819e+06 -12799.7 0 3.61849e+06 -25327.4 0 3.61782e+06 -32911.6 0 3.61666e+06 -38154.2 0 3.61521e+06 -42559.8 0 3.61351e+06 -46932.7 0 3.61152e+06 -51664.6 0 3.60919e+06 -56910.5 0 3.60646e+06 -62695.1 0 3.60327e+06 -68976.8 0 3.59956e+06 -75682 0 3.59529e+06 -82723.2 0 3.59043e+06 -90005.7 0 3.58494e+06 -97427.3 0 3.57881e+06 -104873 0 3.57202e+06 -112208 0 3.68447e+06 -39512.4 0 3.68853e+06 -32750.1 0 3.69267e+06 -36221.5 0 3.69635e+06 -45550.7 0 3.6993e+06 -58102.2 0 3.70139e+06 -72379.6 0 3.70255e+06 -87574.2 0 3.70277e+06 -103284 0 3.70202e+06 -119338 0 3.70029e+06 -135693 0 3.69755e+06 -152371 0 3.6938e+06 -169430 0 3.68901e+06 -186952 0 3.68318e+06 -205045 0 3.67632e+06 -223855 0 3.66845e+06 -243585 0 3.85604e+06 55309.3 0 3.869e+06 4957.32 0 3.88152e+06 -32177 0 3.89299e+06 -62602.5 0 3.90287e+06 -90205.8 0 3.91081e+06 -117119 0 3.91654e+06 -144395 0 3.91995e+06 -172439 0 3.92101e+06 -201283 0 3.91975e+06 -230758 0 3.91624e+06 -260596 0 3.91059e+06 -290483 0 3.90287e+06 -320080 0 3.89312e+06 -349015 0 3.88131e+06 -376855 0 3.8673e+06 -403062 0 4.34053e+06 99001.5 0 4.38969e+06 47618.5 0 4.41382e+06 -19856.5 0 4.41976e+06 -93884.6 0 4.41268e+06 -168467 0 4.39649e+06 -240101 0 4.37415e+06 -306905 0 4.34798e+06 -368041 0 4.31975e+06 -423338 0 4.29095e+06 -473045 0 4.26282e+06 -517686 0 4.23652e+06 -557973 0 4.21326e+06 -594785 0 4.19438e+06 -629184 0 4.18156e+06 -662485 0 4.17699e+06 -696356 0 6.35342e+06 -1.65936e+06 0 5.81964e+06 -1.51995e+06 0 5.42393e+06 -1.4166e+06 0 5.12616e+06 -1.33883e+06 0 4.89799e+06 -1.27924e+06 0 4.71927e+06 -1.23256e+06 0 4.57561e+06 -1.19504e+06 0 4.45651e+06 -1.16393e+06 0 4.3541e+06 -1.13719e+06 0 4.2622e+06 -1.11319e+06 0 4.17555e+06 -1.09055e+06 0 4.08921e+06 -1.06801e+06 0 3.99798e+06 -1.04418e+06 0 3.89574e+06 -1.01747e+06 0 3.77478e+06 -985883 0 3.6248e+06 -946711 0 </DataArray> 
</PointData> 
<Points> 
<DataArray type="Float32" NumberOfComponents="3"> 
0.3075 0.0099 0 0.307701 0.0104067 0 0.307901 0.0109133 0 0.308102 0.01142 0 0.308303 0.0119267 0 0.308503 0.0124333 0 0.308704 0.01294 0 0.308905 0.0134467 0 0.309105 0.0139533 0 0.309306 0.01446 0 0.309507 0.0149667 0 0.309707 0.0154733 0 0.309908 0.01598 0 0.310109 0.0164867 0 0.310309 0.0169933 0 0.31051 0.0175 0 0.313067 0.0101962 0 0.313263 0.0107031 0 0.313459 0.01121 0 0.313655 0.0117169 0 0.313851 0.0122238 0 0.314048 0.0127308 0 0.314244 0.0132377 0 0.31444 0.0137446 0 0.314636 0.0142515 0 0.314832 0.0147585 0 0.315028 0.0152654 0 0.315225 0.0157723 0 0.315421 0.0162792 0 0.315617 0.0167862 0 0.315813 0.0172931 0 0.316009 0.0178 0 0.318633 0.0104923 0 0.318825 0.0109995 0 0.319017 0.0115067 0 0.319208 0.0120138 0 0.3194 0.012521 0 0.319592 0.0130282 0 0.319783 0.0135354 0 0.319975 0.0140426 0 0.320167 0.0145497 0 0.320358 0.0150569 0 0.32055 0.0155641 0 0.320742 0.0160713 0 0.320934 0.0165785 0 0.321125 0.0170856 0 0.321317 0.0175928 0 0.321509 0.0181 0 0.3242 0.0107885 0 0.324387 0.0112959 0 0.324574 0.0118033 0 0.324762 0.0123108 0 0.324949 0.0128182 0 0.325136 0.0133256 0 0.325323 0.0138331 0 0.32551 0.0143405 0 0.325698 0.014848 0 0.325885 0.0153554 0 0.326072 0.0158628 0 0.326259 0.0163703 0 0.326446 0.0168777 0 0.326634 0.0173851 0 0.326821 0.0178926 0 0.327008 0.0184 0 0.329767 0.0110846 0 0.329949 0.0115923 0 0.330132 0.0121 0 0.330315 0.0126077 0 0.330497 0.0131154 0 0.33068 0.0136231 0 0.330863 0.0141308 0 0.331046 0.0146385 0 0.331228 0.0151462 0 0.331411 0.0156538 0 0.331594 0.0161615 0 0.331776 0.0166692 0 0.331959 0.0171769 0 0.332142 0.0176846 0 0.332325 0.0181923 0 0.332507 0.0187 0 0.335333 0.0113808 0 0.335512 0.0118887 0 0.33569 0.0123967 0 0.335868 0.0129046 0 0.336046 0.0134126 0 0.336224 0.0139205 0 0.336403 0.0144285 0 0.336581 0.0149364 0 0.336759 0.0154444 0 0.336937 0.0159523 0 0.337116 0.0164603 0 0.337294 0.0169682 0 0.337472 0.0174762 0 0.33765 0.0179841 0 0.337828 0.0184921 0 0.338007 0.019 0 0.3409 0.0116769 0 0.341074 0.0121851 0 0.341247 0.0126933 0 0.341421 0.0132015 0 0.341595 0.0137098 0 0.341769 0.014218 0 0.341942 0.0147262 0 0.342116 0.0152344 0 0.34229 0.0157426 0 0.342464 0.0162508 0 0.342637 0.016759 0 0.342811 0.0172672 0 0.342985 0.0177754 0 0.343158 0.0182836 0 0.343332 0.0187918 0 0.343506 0.0193 0 0.346467 0.0119731 0 0.346636 0.0124816 0 0.346805 0.01299 0 0.346974 0.0134985 0 0.347144 0.0140069 0 0.347313 0.0145154 0 0.347482 0.0150239 0 0.347651 0.0155323 0 0.347821 0.0160408 0 0.34799 0.0165492 0 0.348159 0.0170577 0 0.348328 0.0175662 0 0.348498 0.0180746 0 0.348667 0.0185831 0 0.348836 0.0190915 0 0.349005 0.0196 0 0.352033 0.0122692 0 0.352198 0.012778 0 0.352363 0.0132867 0 0.352528 0.0137954 0 0.352692 0.0143041 0 0.352857 0.0148128 0 0.353022 0.0153215 0 0.353187 0.0158303 0 0.353351 0.016339 0 0.353516 0.0168477 0 0.353681 0.0173564 0 0.353846 0.0178651 0 0.35401 0.0183738 0 0.354175 0.0188826 0 0.35434 0.0193913 0 0.354505 0.0199 0 0.3576 0.0125654 0 0.35776 0.0130744 0 0.357921 0.0135833 0 0.358081 0.0140923 0 0.358241 0.0146013 0 0.358401 0.0151103 0 0.358562 0.0156192 0 0.358722 0.0161282 0 0.358882 0.0166372 0 0.359042 0.0171462 0 0.359203 0.0176551 0 0.359363 0.0181641 0 0.359523 0.0186731 0 0.359683 0.0191821 0 0.359844 0.019691 0 0.360004 0.0202 0 0.363167 0.0128616 0 0.363322 0.0133708 0 0.363478 0.01388 0 0.363634 0.0143892 0 0.36379 0.0148985 0 0.363946 0.0154077 0 0.364101 0.0159169 0 0.364257 0.0164262 0 0.364413 0.0169354 0 0.364569 0.0174446 0 0.364724 0.0179539 0 0.36488 0.0184631 0 0.365036 0.0189723 0 0.365192 0.0194815 0 0.365348 0.0199908 0 0.365503 0.0205 0 0.368733 0.0131577 0 0.368885 0.0136672 0 0.369036 0.0141767 0 0.369187 0.0146862 0 0.369338 0.0151957 0 0.36949 0.0157051 0 0.369641 0.0162146 0 0.369792 0.0167241 0 0.369944 0.0172336 0 0.370095 0.0177431 0 0.370246 0.0182526 0 0.370397 0.0187621 0 0.370549 0.0192715 0 0.3707 0.019781 0 0.370851 0.0202905 0 0.371003 0.0208 0 0.3743 0.0134539 0 0.374447 0.0139636 0 0.374594 0.0144734 0 0.37474 0.0149831 0 0.374887 0.0154928 0 0.375034 0.0160026 0 0.375181 0.0165123 0 0.375328 0.0170221 0 0.375474 0.0175318 0 0.375621 0.0180415 0 0.375768 0.0185513 0 0.375915 0.019061 0 0.376062 0.0195708 0 0.376208 0.0200805 0 0.376355 0.0205903 0 0.376502 0.0211 0 0.379867 0.01375 0 0.380009 0.01426 0 0.380151 0.01477 0 0.380294 0.01528 0 0.380436 0.01579 0 0.380578 0.0163 0 0.380721 0.01681 0 0.380863 0.01732 0 0.381005 0.01783 0 0.381147 0.01834 0 0.38129 0.01885 0 0.381432 0.01936 0 0.381574 0.01987 0 0.381717 0.02038 0 0.381859 0.02089 0 0.382001 0.0214 0 0.385433 0.0140462 0 0.385571 0.0145564 0 0.385709 0.0150667 0 0.385847 0.0155769 0 0.385985 0.0160872 0 0.386122 0.0165975 0 0.38626 0.0171077 0 0.386398 0.017618 0 0.386536 0.0181282 0 0.386674 0.0186385 0 0.386812 0.0191487 0 0.386949 0.019659 0 0.387087 0.0201692 0 0.387225 0.0206795 0 0.387363 0.0211897 0 0.387501 0.0217 0 0.391 0.0143423 0 0.391133 0.0148528 0 0.391267 0.0153634 0 0.3914 0.0158739 0 0.391533 0.0163844 0 0.391667 0.0168949 0 0.3918 0.0174054 0 0.391933 0.0179159 0 0.392067 0.0184264 0 0.3922 0.0189369 0 0.392333 0.0194474 0 0.392467 0.019958 0 0.3926 0.0204685 0 0.392733 0.020979 0 0.392867 0.0214895 0 0.393 0.022 0 
</DataArray>
</Points> 
</Piece> 
</StructuredGrid> 
</VTKFile> 
