<?xml version="1.0"?> 
<VTKFile type="StructuredGrid" version="0.1"> 
<StructuredGrid WholeExtent="0 127 0 127 0 0"> 
<Piece Extent="0 127 0 127 0 0"> 
<PointData>
<DataArray type="Float32" Name="E" format="ascii" NumberOfComponents="3"> 
5.72205e-06 1.01323e+07 0 -3.60156e+06 1.52431e+06 0 -2.86388e+06 1.99598e+06 0 -3.06641e+06 1.2716e+06 0 -2.97266e+06 1.28552e+06 0 -3.01895e+06 1.14463e+06 0 -3.02805e+06 1.13331e+06 0 -3.05463e+06 1.11904e+06 0 -3.07376e+06 1.13386e+06 0 -3.09139e+06 1.15748e+06 0 -3.10413e+06 1.19088e+06 0 -3.11272e+06 1.22962e+06 0 -3.11705e+06 1.2722e+06 0 -3.11754e+06 1.31697e+06 0 -3.11456e+06 1.36286e+06 0 -3.10854e+06 1.40905e+06 0 -3.09988e+06 1.45491e+06 0 -3.08896e+06 1.5e+06 0 -3.07612e+06 1.54401e+06 0 -3.06164e+06 1.5867e+06 0 -3.04578e+06 1.62793e+06 0 -3.02878e+06 1.66761e+06 0 -3.01082e+06 1.7057e+06 0 -2.99208e+06 1.74217e+06 0 -2.9727e+06 1.77703e+06 0 -2.9528e+06 1.81032e+06 0 -2.9325e+06 1.84207e+06 0 -2.91189e+06 1.87232e+06 0 -2.89104e+06 1.90114e+06 0 -2.87004e+06 1.92857e+06 0 -2.84893e+06 1.95467e+06 0 -2.82778e+06 1.97951e+06 0 -2.80663e+06 2.00313e+06 0 -2.7855e+06 2.02559e+06 0 -2.76445e+06 2.04696e+06 0 -2.74349e+06 2.06727e+06 0 -2.72265e+06 2.08658e+06 0 -2.70194e+06 2.10495e+06 0 -2.68139e+06 2.12241e+06 0 -2.66101e+06 2.139e+06 0 -2.64081e+06 2.15478e+06 0 -2.62079e+06 2.16979e+06 0 -2.60097e+06 2.18405e+06 0 -2.58136e+06 2.1976e+06 0 -2.56195e+06 2.21049e+06 0 -2.54275e+06 2.22273e+06 0 -2.52377e+06 2.23437e+06 0 -2.50499e+06 2.24543e+06 0 -2.48644e+06 2.25593e+06 0 -2.4681e+06 2.26591e+06 0 -2.44997e+06 2.27539e+06 0 -2.43206e+06 2.28438e+06 0 -2.41437e+06 2.29292e+06 0 -2.39688e+06 2.30102e+06 0 -2.37961e+06 2.30871e+06 0 -2.36254e+06 2.31599e+06 0 -2.34567e+06 2.3229e+06 0 -2.32902e+06 2.32944e+06 0 -2.31256e+06 2.33563e+06 0 -2.2963e+06 2.34149e+06 0 -2.28023e+06 2.34703e+06 0 -2.26435e+06 2.35226e+06 0 -2.24867e+06 2.35719e+06 0 -2.23317e+06 2.36185e+06 0 -2.21785e+06 2.36623e+06 0 -2.20272e+06 2.37036e+06 0 -2.18776e+06 2.37424e+06 0 -2.17298e+06 2.37788e+06 0 -2.15836e+06 2.38129e+06 0 -2.14392e+06 2.38447e+06 0 -2.12964e+06 2.38745e+06 0 -2.11552e+06 2.39022e+06 0 -2.10156e+06 2.3928e+06 0 -2.08776e+06 2.39518e+06 0 -2.07412e+06 2.39739e+06 0 -2.06062e+06 2.39941e+06 0 -2.04727e+06 2.40127e+06 0 -2.03407e+06 2.40297e+06 0 -2.02101e+06 2.40451e+06 0 -2.00809e+06 2.4059e+06 0 -1.99531e+06 2.40714e+06 0 -1.98267e+06 2.40824e+06 0 -1.97016e+06 2.4092e+06 0 -1.95777e+06 2.41004e+06 0 -1.94552e+06 2.41074e+06 0 -1.93339e+06 2.41132e+06 0 -1.92139e+06 2.41179e+06 0 -1.90951e+06 2.41214e+06 0 -1.89775e+06 2.41237e+06 0 -1.8861e+06 2.4125e+06 0 -1.87457e+06 2.41253e+06 0 -1.86315e+06 2.41245e+06 0 -1.85185e+06 2.41228e+06 0 -1.84065e+06 2.41201e+06 0 -1.82956e+06 2.41166e+06 0 -1.81858e+06 2.41121e+06 0 -1.8077e+06 2.41067e+06 0 -1.79692e+06 2.41005e+06 0 -1.78624e+06 2.40936e+06 0 -1.77566e+06 2.40858e+06 0 -1.76518e+06 2.40772e+06 0 -1.75479e+06 2.4068e+06 0 -1.7445e+06 2.40579e+06 0 -1.7343e+06 2.40472e+06 0 -1.72419e+06 2.40359e+06 0 -1.71416e+06 2.40238e+06 0 -1.70423e+06 2.40111e+06 0 -1.69438e+06 2.39978e+06 0 -1.68462e+06 2.39839e+06 0 -1.67493e+06 2.39694e+06 0 -1.66534e+06 2.39543e+06 0 -1.65582e+06 2.39387e+06 0 -1.64638e+06 2.39225e+06 0 -1.63702e+06 2.39058e+06 0 -1.62774e+06 2.38885e+06 0 -1.61853e+06 2.38708e+06 0 -1.6094e+06 2.38526e+06 0 -1.60034e+06 2.38338e+06 0 -1.59135e+06 2.38147e+06 0 -1.58243e+06 2.37951e+06 0 -1.57359e+06 2.3775e+06 0 -1.56481e+06 2.37545e+06 0 -1.5561e+06 2.37336e+06 0 -1.54746e+06 2.37122e+06 0 -1.53889e+06 2.36905e+06 0 -1.53037e+06 2.36684e+06 0 -1.52193e+06 2.36459e+06 0 -1.51353e+06 2.36231e+06 0 7.6741e-07 7.13812e+06 0 -3.14904e+06 2.81899e+06 0 -3.0007e+06 1.65663e+06 0 -2.96279e+06 1.49732e+06 0 -3.00212e+06 1.22858e+06 0 -2.99391e+06 1.18429e+06 0 -3.02864e+06 1.12399e+06 0 -3.04793e+06 1.12123e+06 0 -3.072e+06 1.12748e+06 0 -3.08992e+06 1.15116e+06 0 -3.10439e+06 1.1826e+06 0 -3.11402e+06 1.22068e+06 0 -3.1194e+06 1.26264e+06 0 -3.12074e+06 1.3071e+06 0 -3.11851e+06 1.35283e+06 0 -3.11312e+06 1.39899e+06 0 -3.10499e+06 1.44492e+06 0 -3.09451e+06 1.49015e+06 0 -3.08204e+06 1.53434e+06 0 -3.06787e+06 1.57726e+06 0 -3.05227e+06 1.61875e+06 0 -3.03548e+06 1.65871e+06 0 -3.01769e+06 1.69707e+06 0 -2.99909e+06 1.73384e+06 0 -2.97983e+06 1.76899e+06 0 -2.96002e+06 1.80257e+06 0 -2.9398e+06 1.83461e+06 0 -2.91924e+06 1.86515e+06 0 -2.89844e+06 1.89424e+06 0 -2.87747e+06 1.92194e+06 0 -2.85638e+06 1.9483e+06 0 -2.83524e+06 1.97339e+06 0 -2.81409e+06 1.99726e+06 0 -2.79296e+06 2.01996e+06 0 -2.7719e+06 2.04155e+06 0 -2.75093e+06 2.06209e+06 0 -2.73007e+06 2.08162e+06 0 -2.70934e+06 2.10019e+06 0 -2.68877e+06 2.11784e+06 0 -2.66836e+06 2.13463e+06 0 -2.64813e+06 2.1506e+06 0 -2.62809e+06 2.16578e+06 0 -2.60824e+06 2.18021e+06 0 -2.58859e+06 2.19394e+06 0 -2.56915e+06 2.20698e+06 0 -2.54991e+06 2.21938e+06 0 -2.53089e+06 2.23117e+06 0 -2.51209e+06 2.24237e+06 0 -2.49349e+06 2.25302e+06 0 -2.47512e+06 2.26314e+06 0 -2.45696e+06 2.27274e+06 0 -2.43901e+06 2.28187e+06 0 -2.42128e+06 2.29053e+06 0 -2.40376e+06 2.29875e+06 0 -2.38645e+06 2.30656e+06 0 -2.36934e+06 2.31396e+06 0 -2.35245e+06 2.32097e+06 0 -2.33575e+06 2.32762e+06 0 -2.31926e+06 2.33391e+06 0 -2.30296e+06 2.33987e+06 0 -2.28686e+06 2.34551e+06 0 -2.27096e+06 2.35084e+06 0 -2.25524e+06 2.35587e+06 0 -2.23971e+06 2.36061e+06 0 -2.22436e+06 2.36509e+06 0 -2.20919e+06 2.3693e+06 0 -2.1942e+06 2.37326e+06 0 -2.17939e+06 2.37698e+06 0 -2.16475e+06 2.38047e+06 0 -2.15027e+06 2.38374e+06 0 -2.13596e+06 2.38679e+06 0 -2.12182e+06 2.38964e+06 0 -2.10783e+06 2.39229e+06 0 -2.09401e+06 2.39475e+06 0 -2.08033e+06 2.39702e+06 0 -2.06681e+06 2.39912e+06 0 -2.05344e+06 2.40105e+06 0 -2.04021e+06 2.40281e+06 0 -2.02713e+06 2.40442e+06 0 -2.01418e+06 2.40587e+06 0 -2.00138e+06 2.40718e+06 0 -1.98871e+06 2.40834e+06 0 -1.97618e+06 2.40937e+06 0 -1.96377e+06 2.41026e+06 0 -1.9515e+06 2.41102e+06 0 -1.93935e+06 2.41167e+06 0 -1.92732e+06 2.41219e+06 0 -1.91542e+06 2.41259e+06 0 -1.90364e+06 2.41289e+06 0 -1.89197e+06 2.41307e+06 0 -1.88042e+06 2.41315e+06 0 -1.86899e+06 2.41313e+06 0 -1.85766e+06 2.41302e+06 0 -1.84645e+06 2.4128e+06 0 -1.83534e+06 2.41249e+06 0 -1.82434e+06 2.4121e+06 0 -1.81344e+06 2.41162e+06 0 -1.80265e+06 2.41105e+06 0 -1.79196e+06 2.4104e+06 0 -1.78136e+06 2.40967e+06 0 -1.77086e+06 2.40887e+06 0 -1.76046e+06 2.40799e+06 0 -1.75015e+06 2.40704e+06 0 -1.73994e+06 2.40602e+06 0 -1.72981e+06 2.40493e+06 0 -1.71978e+06 2.40377e+06 0 -1.70983e+06 2.40255e+06 0 -1.69997e+06 2.40127e+06 0 -1.69019e+06 2.39992e+06 0 -1.6805e+06 2.39852e+06 0 -1.67089e+06 2.39706e+06 0 -1.66136e+06 2.39554e+06 0 -1.65191e+06 2.39397e+06 0 -1.64254e+06 2.39234e+06 0 -1.63325e+06 2.39066e+06 0 -1.62403e+06 2.38894e+06 0 -1.61489e+06 2.38716e+06 0 -1.60582e+06 2.38533e+06 0 -1.59682e+06 2.38346e+06 0 -1.5879e+06 2.38155e+06 0 -1.57905e+06 2.37958e+06 0 -1.57026e+06 2.37758e+06 0 -1.56155e+06 2.37553e+06 0 -1.5529e+06 2.37345e+06 0 -1.54432e+06 2.37132e+06 0 -1.5358e+06 2.36915e+06 0 -1.52735e+06 2.36695e+06 0 -1.51896e+06 2.3647e+06 0 -1.37091e-06 5.10973e+06 0 -2.69759e+06 3.46774e+06 0 -3.05006e+06 1.71072e+06 0 -2.91615e+06 1.5215e+06 0 -2.99056e+06 1.27712e+06 0 -2.98887e+06 1.17822e+06 0 -3.0182e+06 1.13585e+06 0 -3.04507e+06 1.11579e+06 0 -3.06791e+06 1.1246e+06 0 -3.08874e+06 1.14388e+06 0 -3.10404e+06 1.17481e+06 0 -3.11511e+06 1.21163e+06 0 -3.12148e+06 1.2531e+06 0 -3.12377e+06 1.29716e+06 0 -3.12231e+06 1.34272e+06 0 -3.11758e+06 1.38883e+06 0 -3.11001e+06 1.43481e+06 0 -3.1e+06 1.48016e+06 0 -3.08791e+06 1.52454e+06 0 -3.07406e+06 1.56769e+06 0 -3.05874e+06 1.60943e+06 0 -3.04217e+06 1.64966e+06 0 -3.02457e+06 1.68831e+06 0 -3.00612e+06 1.72537e+06 0 -2.98698e+06 1.76082e+06 0 -2.96727e+06 1.79469e+06 0 -2.94712e+06 1.82702e+06 0 -2.92663e+06 1.85784e+06 0 -2.90588e+06 1.88721e+06 0 -2.88494e+06 1.91519e+06 0 -2.86388e+06 1.94182e+06 0 -2.84275e+06 1.96716e+06 0 -2.8216e+06 1.99128e+06 0 -2.80048e+06 2.01422e+06 0 -2.77941e+06 2.03604e+06 0 -2.75842e+06 2.0568e+06 0 -2.73755e+06 2.07655e+06 0 -2.7168e+06 2.09533e+06 0 -2.69621e+06 2.11319e+06 0 -2.67577e+06 2.13017e+06 0 -2.65551e+06 2.14633e+06 0 -2.63544e+06 2.16169e+06 0 -2.61556e+06 2.1763e+06 0 -2.59588e+06 2.19019e+06 0 -2.5764e+06 2.2034e+06 0 -2.55714e+06 2.21596e+06 0 -2.53808e+06 2.2279e+06 0 -2.51924e+06 2.23925e+06 0 -2.50061e+06 2.25004e+06 0 -2.4822e+06 2.26029e+06 0 -2.464e+06 2.27004e+06 0 -2.44602e+06 2.27929e+06 0 -2.42825e+06 2.28808e+06 0 -2.4107e+06 2.29643e+06 0 -2.39335e+06 2.30435e+06 0 -2.37621e+06 2.31186e+06 0 -2.35928e+06 2.31899e+06 0 -2.34255e+06 2.32574e+06 0 -2.32602e+06 2.33215e+06 0 -2.30969e+06 2.33821e+06 0 -2.29356e+06 2.34394e+06 0 -2.27762e+06 2.34937e+06 0 -2.26187e+06 2.35449e+06 0 -2.24631e+06 2.35933e+06 0 -2.23093e+06 2.3639e+06 0 -2.21573e+06 2.3682e+06 0 -2.20071e+06 2.37225e+06 0 -2.18587e+06 2.37605e+06 0 -2.17119e+06 2.37962e+06 0 -2.15669e+06 2.38297e+06 0 -2.14235e+06 2.3861e+06 0 -2.12818e+06 2.38902e+06 0 -2.11417e+06 2.39175e+06 0 -2.10031e+06 2.39428e+06 0 -2.08661e+06 2.39663e+06 0 -2.07306e+06 2.3988e+06 0 -2.05966e+06 2.4008e+06 0 -2.04641e+06 2.40263e+06 0 -2.0333e+06 2.4043e+06 0 -2.02033e+06 2.40582e+06 0 -2.0075e+06 2.40719e+06 0 -1.99481e+06 2.40842e+06 0 -1.98225e+06 2.4095e+06 0 -1.96983e+06 2.41046e+06 0 -1.95753e+06 2.41129e+06 0 -1.94536e+06 2.41199e+06 0 -1.93332e+06 2.41257e+06 0 -1.92139e+06 2.41303e+06 0 -1.90959e+06 2.41338e+06 0 -1.8979e+06 2.41363e+06 0 -1.88634e+06 2.41376e+06 0 -1.87488e+06 2.4138e+06 0 -1.86354e+06 2.41373e+06 0 -1.85231e+06 2.41357e+06 0 -1.84118e+06 2.41332e+06 0 -1.83016e+06 2.41298e+06 0 -1.81925e+06 2.41255e+06 0 -1.80844e+06 2.41203e+06 0 -1.79773e+06 2.41143e+06 0 -1.78712e+06 2.41076e+06 0 -1.77661e+06 2.41e+06 0 -1.76619e+06 2.40918e+06 0 -1.75587e+06 2.40827e+06 0 -1.74564e+06 2.4073e+06 0 -1.7355e+06 2.40626e+06 0 -1.72545e+06 2.40515e+06 0 -1.71549e+06 2.40398e+06 0 -1.70561e+06 2.40275e+06 0 -1.69583e+06 2.40145e+06 0 -1.68612e+06 2.40009e+06 0 -1.6765e+06 2.39868e+06 0 -1.66696e+06 2.39721e+06 0 -1.6575e+06 2.39568e+06 0 -1.64812e+06 2.3941e+06 0 -1.63882e+06 2.39247e+06 0 -1.62959e+06 2.39079e+06 0 -1.62044e+06 2.38906e+06 0 -1.61136e+06 2.38728e+06 0 -1.60236e+06 2.38546e+06 0 -1.59342e+06 2.38359e+06 0 -1.58456e+06 2.38167e+06 0 -1.57577e+06 2.37971e+06 0 -1.56705e+06 2.37771e+06 0 -1.55839e+06 2.37567e+06 0 -1.5498e+06 2.37359e+06 0 -1.54128e+06 2.37147e+06 0 -1.53282e+06 2.36931e+06 0 -1.52443e+06 2.36711e+06 0 -4.91738e-07 3.76297e+06 0 -2.27525e+06 3.69737e+06 0 -3.01485e+06 1.94113e+06 0 -2.90258e+06 1.50172e+06 0 -2.96093e+06 1.33363e+06 0 -2.98637e+06 1.18088e+06 0 -3.00729e+06 1.14151e+06 0 -3.04025e+06 1.11562e+06 0 -3.06425e+06 1.11962e+06 0 -3.08655e+06 1.13798e+06 0 -3.10359e+06 1.16664e+06 0 -3.11577e+06 1.20282e+06 0 -3.12335e+06 1.24347e+06 0 -3.12657e+06 1.2872e+06 0 -3.12594e+06 1.33252e+06 0 -3.12191e+06 1.37856e+06 0 -3.11493e+06 1.42458e+06 0 -3.10541e+06 1.47006e+06 0 -3.09373e+06 1.51461e+06 0 -3.08023e+06 1.55798e+06 0 -3.06518e+06 1.59997e+06 0 -3.04885e+06 1.64047e+06 0 -3.03145e+06 1.67941e+06 0 -3.01316e+06 1.71675e+06 0 -2.99415e+06 1.7525e+06 0 -2.97455e+06 1.78667e+06 0 -2.95448e+06 1.81929e+06 0 -2.93406e+06 1.8504e+06 0 -2.91335e+06 1.88006e+06 0 -2.89245e+06 1.90831e+06 0 -2.87142e+06 1.9352e+06 0 -2.85031e+06 1.96081e+06 0 -2.82917e+06 1.98518e+06 0 -2.80805e+06 2.00836e+06 0 -2.78697e+06 2.03042e+06 0 -2.76598e+06 2.05141e+06 0 -2.74509e+06 2.07138e+06 0 -2.72432e+06 2.09037e+06 0 -2.7037e+06 2.10843e+06 0 -2.68325e+06 2.12562e+06 0 -2.66296e+06 2.14196e+06 0 -2.64286e+06 2.15751e+06 0 -2.62295e+06 2.1723e+06 0 -2.60323e+06 2.18636e+06 0 -2.58373e+06 2.19974e+06 0 -2.56442e+06 2.21246e+06 0 -2.54533e+06 2.22455e+06 0 -2.52646e+06 2.23605e+06 0 -2.5078e+06 2.24699e+06 0 -2.48935e+06 2.25738e+06 0 -2.47112e+06 2.26726e+06 0 -2.4531e+06 2.27665e+06 0 -2.43529e+06 2.28557e+06 0 -2.4177e+06 2.29404e+06 0 -2.40032e+06 2.30208e+06 0 -2.38315e+06 2.30971e+06 0 -2.36618e+06 2.31695e+06 0 -2.34941e+06 2.32382e+06 0 -2.33285e+06 2.33033e+06 0 -2.31649e+06 2.33649e+06 0 -2.30032e+06 2.34233e+06 0 -2.28435e+06 2.34785e+06 0 -2.26857e+06 2.35307e+06 0 -2.25297e+06 2.35801e+06 0 -2.23756e+06 2.36266e+06 0 -2.22233e+06 2.36705e+06 0 -2.20728e+06 2.37119e+06 0 -2.1924e+06 2.37508e+06 0 -2.1777e+06 2.37873e+06 0 -2.16317e+06 2.38216e+06 0 -2.1488e+06 2.38537e+06 0 -2.1346e+06 2.38837e+06 0 -2.12056e+06 2.39118e+06 0 -2.10668e+06 2.39378e+06 0 -2.09295e+06 2.3962e+06 0 -2.07937e+06 2.39844e+06 0 -2.06595e+06 2.40051e+06 0 -2.05267e+06 2.40241e+06 0 -2.03954e+06 2.40415e+06 0 -2.02654e+06 2.40574e+06 0 -2.01369e+06 2.40717e+06 0 -2.00098e+06 2.40847e+06 0 -1.9884e+06 2.40962e+06 0 -1.97595e+06 2.41064e+06 0 -1.96363e+06 2.41152e+06 0 -1.95144e+06 2.41229e+06 0 -1.93937e+06 2.41293e+06 0 -1.92742e+06 2.41345e+06 0 -1.9156e+06 2.41386e+06 0 -1.9039e+06 2.41416e+06 0 -1.89231e+06 2.41435e+06 0 -1.88084e+06 2.41444e+06 0 -1.86947e+06 2.41443e+06 0 -1.85822e+06 2.41433e+06 0 -1.84708e+06 2.41413e+06 0 -1.83605e+06 2.41384e+06 0 -1.82512e+06 2.41346e+06 0 -1.81429e+06 2.413e+06 0 -1.80356e+06 2.41246e+06 0 -1.79294e+06 2.41183e+06 0 -1.78241e+06 2.41113e+06 0 -1.77198e+06 2.41035e+06 0 -1.76164e+06 2.4095e+06 0 -1.75139e+06 2.40858e+06 0 -1.74124e+06 2.40759e+06 0 -1.73118e+06 2.40653e+06 0 -1.72121e+06 2.4054e+06 0 -1.71132e+06 2.40422e+06 0 -1.70152e+06 2.40297e+06 0 -1.6918e+06 2.40166e+06 0 -1.68217e+06 2.40029e+06 0 -1.67262e+06 2.39887e+06 0 -1.66315e+06 2.39739e+06 0 -1.65376e+06 2.39586e+06 0 -1.64445e+06 2.39428e+06 0 -1.63521e+06 2.39264e+06 0 -1.62605e+06 2.39096e+06 0 -1.61696e+06 2.38923e+06 0 -1.60795e+06 2.38745e+06 0 -1.59901e+06 2.38562e+06 0 -1.59014e+06 2.38376e+06 0 -1.58134e+06 2.38184e+06 0 -1.57261e+06 2.37989e+06 0 -1.56395e+06 2.37789e+06 0 -1.55535e+06 2.37586e+06 0 -1.54682e+06 2.37378e+06 0 -1.53836e+06 2.37167e+06 0 -1.52996e+06 2.36952e+06 0 3.99351e-06 2.887e+06 0 -1.89531e+06 3.67204e+06 0 -2.90889e+06 2.2141e+06 0 -2.89953e+06 1.50928e+06 0 -2.92766e+06 1.36963e+06 0 -2.97869e+06 1.19945e+06 0 -2.99841e+06 1.14225e+06 0 -3.03307e+06 1.11787e+06 0 -3.06057e+06 1.11494e+06 0 -3.08376e+06 1.13205e+06 0 -3.10271e+06 1.15885e+06 0 -3.11615e+06 1.1939e+06 0 -3.12492e+06 1.23391e+06 0 -3.12916e+06 1.27715e+06 0 -3.1294e+06 1.32226e+06 0 -3.1261e+06 1.3682e+06 0 -3.11973e+06 1.41424e+06 0 -3.11074e+06 1.45982e+06 0 -3.09949e+06 1.50455e+06 0 -3.08635e+06 1.54813e+06 0 -3.07161e+06 1.59037e+06 0 -3.05552e+06 1.63114e+06 0 -3.03833e+06 1.67036e+06 0 -3.02021e+06 1.708e+06 0 -3.00133e+06 1.74405e+06 0 -2.98185e+06 1.77851e+06 0 -2.96187e+06 1.81143e+06 0 -2.94152e+06 1.84283e+06 0 -2.92087e+06 1.87277e+06 0 -2.90001e+06 1.9013e+06 0 -2.87901e+06 1.92847e+06 0 -2.85792e+06 1.95433e+06 0 -2.83679e+06 1.97896e+06 0 -2.81567e+06 2.00239e+06 0 -2.79459e+06 2.02469e+06 0 -2.77359e+06 2.04591e+06 0 -2.75269e+06 2.0661e+06 0 -2.7319e+06 2.08531e+06 0 -2.71126e+06 2.10358e+06 0 -2.69078e+06 2.12096e+06 0 -2.67047e+06 2.1375e+06 0 -2.65034e+06 2.15324e+06 0 -2.6304e+06 2.16821e+06 0 -2.61065e+06 2.18245e+06 0 -2.59111e+06 2.19599e+06 0 -2.57178e+06 2.20887e+06 0 -2.55265e+06 2.22113e+06 0 -2.53374e+06 2.23278e+06 0 -2.51505e+06 2.24387e+06 0 -2.49656e+06 2.2544e+06 0 -2.47829e+06 2.26442e+06 0 -2.46024e+06 2.27394e+06 0 -2.4424e+06 2.28299e+06 0 -2.42477e+06 2.29158e+06 0 -2.40735e+06 2.29975e+06 0 -2.39015e+06 2.3075e+06 0 -2.37314e+06 2.31485e+06 0 -2.35634e+06 2.32183e+06 0 -2.33975e+06 2.32845e+06 0 -2.32335e+06 2.33472e+06 0 -2.30715e+06 2.34066e+06 0 -2.29114e+06 2.34629e+06 0 -2.27533e+06 2.35161e+06 0 -2.2597e+06 2.35664e+06 0 -2.24426e+06 2.36138e+06 0 -2.229e+06 2.36587e+06 0 -2.21391e+06 2.37009e+06 0 -2.19901e+06 2.37407e+06 0 -2.18428e+06 2.37781e+06 0 -2.16971e+06 2.38132e+06 0 -2.15532e+06 2.38461e+06 0 -2.14109e+06 2.38769e+06 0 -2.12702e+06 2.39057e+06 0 -2.11311e+06 2.39325e+06 0 -2.09935e+06 2.39574e+06 0 -2.08575e+06 2.39806e+06 0 -2.0723e+06 2.4002e+06 0 -2.05899e+06 2.40217e+06 0 -2.04584e+06 2.40398e+06 0 -2.03282e+06 2.40563e+06 0 -2.01994e+06 2.40713e+06 0 -2.0072e+06 2.40849e+06 0 -1.9946e+06 2.40971e+06 0 -1.98213e+06 2.41079e+06 0 -1.96979e+06 2.41174e+06 0 -1.95757e+06 2.41256e+06 0 -1.94548e+06 2.41326e+06 0 -1.93352e+06 2.41385e+06 0 -1.92168e+06 2.41431e+06 0 -1.90995e+06 2.41467e+06 0 -1.89834e+06 2.41492e+06 0 -1.88685e+06 2.41507e+06 0 -1.87547e+06 2.41512e+06 0 -1.8642e+06 2.41507e+06 0 -1.85304e+06 2.41492e+06 0 -1.84199e+06 2.41469e+06 0 -1.83104e+06 2.41437e+06 0 -1.8202e+06 2.41396e+06 0 -1.80946e+06 2.41346e+06 0 -1.79881e+06 2.41289e+06 0 -1.78827e+06 2.41224e+06 0 -1.77782e+06 2.41151e+06 0 -1.76747e+06 2.41071e+06 0 -1.75721e+06 2.40984e+06 0 -1.74705e+06 2.4089e+06 0 -1.73697e+06 2.40789e+06 0 -1.72699e+06 2.40682e+06 0 -1.71709e+06 2.40568e+06 0 -1.70727e+06 2.40448e+06 0 -1.69755e+06 2.40322e+06 0 -1.6879e+06 2.4019e+06 0 -1.67834e+06 2.40053e+06 0 -1.66886e+06 2.3991e+06 0 -1.65946e+06 2.39762e+06 0 -1.65013e+06 2.39608e+06 0 -1.64089e+06 2.39449e+06 0 -1.63172e+06 2.39286e+06 0 -1.62262e+06 2.39117e+06 0 -1.6136e+06 2.38944e+06 0 -1.60465e+06 2.38766e+06 0 -1.59578e+06 2.38584e+06 0 -1.58697e+06 2.38398e+06 0 -1.57823e+06 2.38207e+06 0 -1.56956e+06 2.38012e+06 0 -1.56096e+06 2.37813e+06 0 -1.55243e+06 2.3761e+06 0 -1.54396e+06 2.37404e+06 0 -1.53555e+06 2.37193e+06 0 -4.73857e-06 2.32782e+06 0 -1.56437e+06 3.50266e+06 0 -2.74849e+06 2.45636e+06 0 -2.88956e+06 1.56554e+06 0 -2.89784e+06 1.38682e+06 0 -2.96381e+06 1.22705e+06 0 -2.99079e+06 1.14381e+06 0 -3.02449e+06 1.11962e+06 0 -3.05613e+06 1.11174e+06 0 -3.08065e+06 1.12587e+06 0 -3.10127e+06 1.15138e+06 0 -3.11624e+06 1.18501e+06 0 -3.12619e+06 1.22434e+06 0 -3.13152e+06 1.26706e+06 0 -3.13266e+06 1.31191e+06 0 -3.13014e+06 1.35774e+06 0 -3.12442e+06 1.40378e+06 0 -3.11597e+06 1.44946e+06 0 -3.10519e+06 1.49434e+06 0 -3.09243e+06 1.53813e+06 0 -3.078e+06 1.58062e+06 0 -3.06218e+06 1.62166e+06 0 -3.0452e+06 1.66116e+06 0 -3.02726e+06 1.6991e+06 0 -3.00854e+06 1.73544e+06 0 -2.98917e+06 1.77021e+06 0 -2.9693e+06 1.80342e+06 0 -2.94902e+06 1.83512e+06 0 -2.92843e+06 1.86535e+06 0 -2.90762e+06 1.89416e+06 0 -2.88665e+06 1.9216e+06 0 -2.86558e+06 1.94774e+06 0 -2.84446e+06 1.97262e+06 0 -2.82335e+06 1.9963e+06 0 -2.80227e+06 2.01885e+06 0 -2.78126e+06 2.0403e+06 0 -2.76034e+06 2.06071e+06 0 -2.73955e+06 2.08014e+06 0 -2.71889e+06 2.09862e+06 0 -2.69838e+06 2.11621e+06 0 -2.67804e+06 2.13295e+06 0 -2.65788e+06 2.14887e+06 0 -2.63791e+06 2.16403e+06 0 -2.61814e+06 2.17844e+06 0 -2.59856e+06 2.19216e+06 0 -2.5792e+06 2.20521e+06 0 -2.56004e+06 2.21762e+06 0 -2.54109e+06 2.22943e+06 0 -2.52236e+06 2.24067e+06 0 -2.50384e+06 2.25135e+06 0 -2.48554e+06 2.26151e+06 0 -2.46745e+06 2.27116e+06 0 -2.44957e+06 2.28034e+06 0 -2.43191e+06 2.28907e+06 0 -2.41446e+06 2.29736e+06 0 -2.39721e+06 2.30523e+06 0 -2.38017e+06 2.3127e+06 0 -2.36334e+06 2.31979e+06 0 -2.34671e+06 2.32652e+06 0 -2.33028e+06 2.3329e+06 0 -2.31404e+06 2.33895e+06 0 -2.298e+06 2.34467e+06 0 -2.28216e+06 2.35009e+06 0 -2.26649e+06 2.35522e+06 0 -2.25102e+06 2.36006e+06 0 -2.23573e+06 2.36463e+06 0 -2.22061e+06 2.36895e+06 0 -2.20568e+06 2.37301e+06 0 -2.19091e+06 2.37684e+06 0 -2.17632e+06 2.38043e+06 0 -2.1619e+06 2.3838e+06 0 -2.14764e+06 2.38697e+06 0 -2.13354e+06 2.38992e+06 0 -2.1196e+06 2.39268e+06 0 -2.10582e+06 2.39525e+06 0 -2.09219e+06 2.39764e+06 0 -2.07871e+06 2.39985e+06 0 -2.06538e+06 2.4019e+06 0 -2.0522e+06 2.40377e+06 0 -2.03916e+06 2.4055e+06 0 -2.02626e+06 2.40707e+06 0 -2.0135e+06 2.40849e+06 0 -2.00087e+06 2.40977e+06 0 -1.98837e+06 2.41092e+06 0 -1.97601e+06 2.41193e+06 0 -1.96377e+06 2.41282e+06 0 -1.95166e+06 2.41358e+06 0 -1.93968e+06 2.41422e+06 0 -1.92781e+06 2.41475e+06 0 -1.91607e+06 2.41517e+06 0 -1.90444e+06 2.41548e+06 0 -1.89293e+06 2.41568e+06 0 -1.88153e+06 2.41579e+06 0 -1.87024e+06 2.41579e+06 0 -1.85907e+06 2.4157e+06 0 -1.848e+06 2.41552e+06 0 -1.83703e+06 2.41525e+06 0 -1.82617e+06 2.4149e+06 0 -1.81541e+06 2.41446e+06 0 -1.80475e+06 2.41394e+06 0 -1.7942e+06 2.41334e+06 0 -1.78373e+06 2.41267e+06 0 -1.77337e+06 2.41192e+06 0 -1.7631e+06 2.4111e+06 0 -1.75292e+06 2.41021e+06 0 -1.74283e+06 2.40925e+06 0 -1.73283e+06 2.40823e+06 0 -1.72292e+06 2.40714e+06 0 -1.71309e+06 2.40599e+06 0 -1.70335e+06 2.40478e+06 0 -1.6937e+06 2.40351e+06 0 -1.68412e+06 2.40218e+06 0 -1.67463e+06 2.4008e+06 0 -1.66522e+06 2.39937e+06 0 -1.65589e+06 2.39788e+06 0 -1.64663e+06 2.39634e+06 0 -1.63745e+06 2.39475e+06 0 -1.62835e+06 2.39312e+06 0 -1.61932e+06 2.39143e+06 0 -1.61036e+06 2.3897e+06 0 -1.60147e+06 2.38793e+06 0 -1.59266e+06 2.38611e+06 0 -1.58392e+06 2.38425e+06 0 -1.57524e+06 2.38235e+06 0 -1.56663e+06 2.38041e+06 0 -1.55809e+06 2.37842e+06 0 -1.54961e+06 2.3764e+06 0 -1.5412e+06 2.37435e+06 0 1.60933e-06 1.97535e+06 0 -1.28341e+06 3.26272e+06 0 -2.55078e+06 2.63338e+06 0 -2.8606e+06 1.66522e+06 0 -2.87291e+06 1.39779e+06 0 -2.94292e+06 1.25505e+06 0 -2.98249e+06 1.15019e+06 0 -3.0155e+06 1.11997e+06 0 -3.05047e+06 1.10988e+06 0 -3.07725e+06 1.11984e+06 0 -3.0993e+06 1.14402e+06 0 -3.11595e+06 1.17626e+06 0 -3.12715e+06 1.21473e+06 0 -3.13362e+06 1.25696e+06 0 -3.13572e+06 1.30148e+06 0 -3.13401e+06 1.34718e+06 0 -3.12899e+06 1.39321e+06 0 -3.12111e+06 1.43897e+06 0 -3.11081e+06 1.48401e+06 0 -3.09845e+06 1.528e+06 0 -3.08436e+06 1.57072e+06 0 -3.06882e+06 1.61203e+06 0 -3.05207e+06 1.65182e+06 0 -3.03433e+06 1.69005e+06 0 -3.01576e+06 1.72669e+06 0 -2.99652e+06 1.76176e+06 0 -2.97675e+06 1.79528e+06 0 -2.95655e+06 1.82727e+06 0 -2.93603e+06 1.85779e+06 0 -2.91526e+06 1.88689e+06 0 -2.89433e+06 1.91461e+06 0 -2.87329e+06 1.94101e+06 0 -2.85219e+06 1.96616e+06 0 -2.83108e+06 1.9901e+06 0 -2.81e+06 2.01288e+06 0 -2.78899e+06 2.03457e+06 0 -2.76806e+06 2.05522e+06 0 -2.74725e+06 2.07487e+06 0 -2.72657e+06 2.09357e+06 0 -2.70604e+06 2.11136e+06 0 -2.68568e+06 2.1283e+06 0 -2.66549e+06 2.14442e+06 0 -2.64549e+06 2.15976e+06 0 -2.62569e+06 2.17435e+06 0 -2.60608e+06 2.18824e+06 0 -2.58668e+06 2.20146e+06 0 -2.56749e+06 2.21404e+06 0 -2.54851e+06 2.22601e+06 0 -2.52974e+06 2.23739e+06 0 -2.51119e+06 2.24822e+06 0 -2.49285e+06 2.25852e+06 0 -2.47473e+06 2.26832e+06 0 -2.45681e+06 2.27763e+06 0 -2.43911e+06 2.28649e+06 0 -2.42163e+06 2.2949e+06 0 -2.40435e+06 2.30289e+06 0 -2.38727e+06 2.31049e+06 0 -2.3704e+06 2.31769e+06 0 -2.35374e+06 2.32453e+06 0 -2.33727e+06 2.33102e+06 0 -2.32101e+06 2.33718e+06 0 -2.30493e+06 2.343e+06 0 -2.28905e+06 2.34852e+06 0 -2.27336e+06 2.35375e+06 0 -2.25785e+06 2.35869e+06 0 -2.24252e+06 2.36335e+06 0 -2.22738e+06 2.36776e+06 0 -2.21241e+06 2.37191e+06 0 -2.19762e+06 2.37583e+06 0 -2.183e+06 2.37951e+06 0 -2.16854e+06 2.38296e+06 0 -2.15426e+06 2.38621e+06 0 -2.14013e+06 2.38924e+06 0 -2.12616e+06 2.39208e+06 0 -2.11235e+06 2.39473e+06 0 -2.0987e+06 2.39719e+06 0 -2.08519e+06 2.39947e+06 0 -2.07184e+06 2.40159e+06 0 -2.05863e+06 2.40354e+06 0 -2.04556e+06 2.40533e+06 0 -2.03264e+06 2.40697e+06 0 -2.01985e+06 2.40846e+06 0 -2.0072e+06 2.40981e+06 0 -1.99468e+06 2.41102e+06 0 -1.9823e+06 2.4121e+06 0 -1.97004e+06 2.41305e+06 0 -1.95791e+06 2.41387e+06 0 -1.9459e+06 2.41458e+06 0 -1.93402e+06 2.41516e+06 0 -1.92225e+06 2.41564e+06 0 -1.9106e+06 2.41601e+06 0 -1.89907e+06 2.41627e+06 0 -1.88765e+06 2.41643e+06 0 -1.87635e+06 2.4165e+06 0 -1.86515e+06 2.41647e+06 0 -1.85407e+06 2.41634e+06 0 -1.84308e+06 2.41613e+06 0 -1.83221e+06 2.41583e+06 0 -1.82143e+06 2.41544e+06 0 -1.81076e+06 2.41498e+06 0 -1.80018e+06 2.41443e+06 0 -1.78971e+06 2.41381e+06 0 -1.77933e+06 2.41311e+06 0 -1.76904e+06 2.41234e+06 0 -1.75885e+06 2.4115e+06 0 -1.74874e+06 2.4106e+06 0 -1.73873e+06 2.40962e+06 0 -1.72881e+06 2.40859e+06 0 -1.71897e+06 2.40749e+06 0 -1.70922e+06 2.40633e+06 0 -1.69955e+06 2.40511e+06 0 -1.68997e+06 2.40383e+06 0 -1.68046e+06 2.4025e+06 0 -1.67104e+06 2.40111e+06 0 -1.6617e+06 2.39968e+06 0 -1.65243e+06 2.39819e+06 0 -1.64325e+06 2.39665e+06 0 -1.63413e+06 2.39506e+06 0 -1.62509e+06 2.39342e+06 0 -1.61613e+06 2.39174e+06 0 -1.60724e+06 2.39001e+06 0 -1.59841e+06 2.38824e+06 0 -1.58966e+06 2.38643e+06 0 -1.58098e+06 2.38458e+06 0 -1.57236e+06 2.38268e+06 0 -1.56382e+06 2.38075e+06 0 -1.55534e+06 2.37878e+06 0 -1.54692e+06 2.37677e+06 0 -4.17233e-06 1.75281e+06 0 -1.05e+06 2.99846e+06 0 -2.33156e+06 2.73522e+06 0 -2.80595e+06 1.79144e+06 0 -2.85055e+06 1.41529e+06 0 -2.91832e+06 1.27852e+06 0 -2.97173e+06 1.162e+06 0 -3.0065e+06 1.11994e+06 0 -3.04359e+06 1.10853e+06 0 -3.07333e+06 1.11443e+06 0 -3.09687e+06 1.13664e+06 0 -3.11521e+06 1.16767e+06 0 -3.12781e+06 1.20512e+06 0 -3.13544e+06 1.24682e+06 0 -3.13857e+06 1.29099e+06 0 -3.13771e+06 1.33653e+06 0 -3.13341e+06 1.38253e+06 0 -3.12614e+06 1.42836e+06 0 -3.11635e+06 1.47353e+06 0 -3.10442e+06 1.51772e+06 0 -3.09068e+06 1.56068e+06 0 -3.07544e+06 1.60225e+06 0 -3.05894e+06 1.64232e+06 0 -3.04139e+06 1.68085e+06 0 -3.02299e+06 1.71779e+06 0 -3.00389e+06 1.75317e+06 0 -2.98422e+06 1.78698e+06 0 -2.96411e+06 1.81928e+06 0 -2.94366e+06 1.85009e+06 0 -2.92295e+06 1.87948e+06 0 -2.90206e+06 1.90748e+06 0 -2.88105e+06 1.93416e+06 0 -2.85997e+06 1.95957e+06 0 -2.83887e+06 1.98377e+06 0 -2.81779e+06 2.0068e+06 0 -2.79677e+06 2.02873e+06 0 -2.77584e+06 2.04961e+06 0 -2.75501e+06 2.06949e+06 0 -2.73432e+06 2.0884e+06 0 -2.71377e+06 2.10641e+06 0 -2.69338e+06 2.12355e+06 0 -2.67317e+06 2.13986e+06 0 -2.65314e+06 2.15539e+06 0 -2.63331e+06 2.17017e+06 0 -2.61367e+06 2.18424e+06 0 -2.59424e+06 2.19763e+06 0 -2.57501e+06 2.21037e+06 0 -2.556e+06 2.2225e+06 0 -2.53719e+06 2.23404e+06 0 -2.51861e+06 2.24502e+06 0 -2.50023e+06 2.25546e+06 0 -2.48207e+06 2.2654e+06 0 -2.46412e+06 2.27485e+06 0 -2.44639e+06 2.28384e+06 0 -2.42886e+06 2.29238e+06 0 -2.41155e+06 2.3005e+06 0 -2.39444e+06 2.30821e+06 0 -2.37754e+06 2.31554e+06 0 -2.36084e+06 2.32249e+06 0 -2.34434e+06 2.32909e+06 0 -2.32804e+06 2.33535e+06 0 -2.31193e+06 2.34128e+06 0 -2.29601e+06 2.34691e+06 0 -2.28029e+06 2.35223e+06 0 -2.26475e+06 2.35727e+06 0 -2.24939e+06 2.36203e+06 0 -2.23421e+06 2.36653e+06 0 -2.21922e+06 2.37077e+06 0 -2.20439e+06 2.37477e+06 0 -2.18974e+06 2.37854e+06 0 -2.17526e+06 2.38208e+06 0 -2.16094e+06 2.3854e+06 0 -2.14679e+06 2.38852e+06 0 -2.13279e+06 2.39144e+06 0 -2.11895e+06 2.39416e+06 0 -2.10527e+06 2.3967e+06 0 -2.09174e+06 2.39906e+06 0 -2.07836e+06 2.40125e+06 0 -2.06513e+06 2.40327e+06 0 -2.05203e+06 2.40514e+06 0 -2.03908e+06 2.40684e+06 0 -2.02627e+06 2.4084e+06 0 -2.0136e+06 2.40982e+06 0 -2.00106e+06 2.41109e+06 0 -1.98865e+06 2.41224e+06 0 -1.97637e+06 2.41325e+06 0 -1.96422e+06 2.41414e+06 0 -1.95219e+06 2.41491e+06 0 -1.94028e+06 2.41556e+06 0 -1.9285e+06 2.41609e+06 0 -1.91683e+06 2.41652e+06 0 -1.90528e+06 2.41684e+06 0 -1.89384e+06 2.41706e+06 0 -1.88252e+06 2.41719e+06 0 -1.87131e+06 2.41721e+06 0 -1.8602e+06 2.41714e+06 0 -1.8492e+06 2.41698e+06 0 -1.83831e+06 2.41674e+06 0 -1.82752e+06 2.41641e+06 0 -1.81683e+06 2.416e+06 0 -1.80624e+06 2.41551e+06 0 -1.79575e+06 2.41494e+06 0 -1.78535e+06 2.41429e+06 0 -1.77505e+06 2.41358e+06 0 -1.76484e+06 2.41279e+06 0 -1.75473e+06 2.41194e+06 0 -1.7447e+06 2.41101e+06 0 -1.73476e+06 2.41003e+06 0 -1.72491e+06 2.40898e+06 0 -1.71515e+06 2.40787e+06 0 -1.70547e+06 2.4067e+06 0 -1.69588e+06 2.40548e+06 0 -1.68636e+06 2.40419e+06 0 -1.67693e+06 2.40286e+06 0 -1.66758e+06 2.40147e+06 0 -1.6583e+06 2.40003e+06 0 -1.6491e+06 2.39853e+06 0 -1.63998e+06 2.39699e+06 0 -1.63093e+06 2.39541e+06 0 -1.62196e+06 2.39377e+06 0 -1.61306e+06 2.3921e+06 0 -1.60423e+06 2.39037e+06 0 -1.59547e+06 2.38861e+06 0 -1.58678e+06 2.3868e+06 0 -1.57816e+06 2.38496e+06 0 -1.56961e+06 2.38307e+06 0 -1.56112e+06 2.38115e+06 0 -1.5527e+06 2.37919e+06 0 2.32458e-06 1.60811e+06 0 -859613 2.73722e+06 0 -2.10431e+06 2.76599e+06 0 -2.72352e+06 1.92481e+06 0 -2.82649e+06 1.44752e+06 0 -2.8921e+06 1.29688e+06 0 -2.95754e+06 1.17759e+06 0 -2.99725e+06 1.1211e+06 0 -3.03573e+06 1.10708e+06 0 -3.06866e+06 1.10979e+06 0 -3.09403e+06 1.12935e+06 0 -3.114e+06 1.15918e+06 0 -3.12813e+06 1.19557e+06 0 -3.13697e+06 1.23663e+06 0 -3.14117e+06 1.28044e+06 0 -3.14122e+06 1.32578e+06 0 -3.13768e+06 1.37173e+06 0 -3.13106e+06 1.41761e+06 0 -3.1218e+06 1.46292e+06 0 -3.11032e+06 1.5073e+06 0 -3.09696e+06 1.55049e+06 0 -3.08203e+06 1.59232e+06 0 -3.06578e+06 1.63267e+06 0 -3.04845e+06 1.67149e+06 0 -3.03023e+06 1.70874e+06 0 -3.01127e+06 1.74442e+06 0 -2.99172e+06 1.77854e+06 0 -2.97171e+06 1.81114e+06 0 -2.95134e+06 1.84225e+06 0 -2.93068e+06 1.87193e+06 0 -2.90984e+06 1.90021e+06 0 -2.88886e+06 1.92717e+06 0 -2.8678e+06 1.95285e+06 0 -2.84671e+06 1.97731e+06 0 -2.82564e+06 2.0006e+06 0 -2.80462e+06 2.02278e+06 0 -2.78368e+06 2.04389e+06 0 -2.76284e+06 2.06399e+06 0 -2.74213e+06 2.08313e+06 0 -2.72156e+06 2.10135e+06 0 -2.70115e+06 2.11869e+06 0 -2.68091e+06 2.13521e+06 0 -2.66086e+06 2.15093e+06 0 -2.64099e+06 2.16589e+06 0 -2.62132e+06 2.18014e+06 0 -2.60186e+06 2.19371e+06 0 -2.5826e+06 2.20662e+06 0 -2.56355e+06 2.21891e+06 0 -2.54471e+06 2.2306e+06 0 -2.52609e+06 2.24173e+06 0 -2.50768e+06 2.25233e+06 0 -2.48948e+06 2.26241e+06 0 -2.4715e+06 2.272e+06 0 -2.45373e+06 2.28112e+06 0 -2.43617e+06 2.28979e+06 0 -2.41882e+06 2.29803e+06 0 -2.40168e+06 2.30587e+06 0 -2.38474e+06 2.31331e+06 0 -2.368e+06 2.32039e+06 0 -2.35147e+06 2.3271e+06 0 -2.33513e+06 2.33347e+06 0 -2.31899e+06 2.33951e+06 0 -2.30304e+06 2.34524e+06 0 -2.28729e+06 2.35066e+06 0 -2.27171e+06 2.3558e+06 0 -2.25633e+06 2.36065e+06 0 -2.24112e+06 2.36525e+06 0 -2.22609e+06 2.36958e+06 0 -2.21123e+06 2.37367e+06 0 -2.19655e+06 2.37753e+06 0 -2.18204e+06 2.38115e+06 0 -2.16769e+06 2.38456e+06 0 -2.15351e+06 2.38776e+06 0 -2.13949e+06 2.39076e+06 0 -2.12562e+06 2.39357e+06 0 -2.11191e+06 2.39618e+06 0 -2.09836e+06 2.39862e+06 0 -2.08495e+06 2.40088e+06 0 -2.07169e+06 2.40298e+06 0 -2.05857e+06 2.40491e+06 0 -2.0456e+06 2.40669e+06 0 -2.03276e+06 2.40832e+06 0 -2.02006e+06 2.4098e+06 0 -2.0075e+06 2.41114e+06 0 -1.99507e+06 2.41235e+06 0 -1.98277e+06 2.41343e+06 0 -1.97059e+06 2.41438e+06 0 -1.95854e+06 2.41521e+06 0 