<?xml version="1.0"?> 
<VTKFile type="StructuredGrid" version="0.1"> 
<StructuredGrid WholeExtent="0 15 0 15 0 0"> 
<Piece Extent="0 15 0 15 0 0"> 
<PointData>
<DataArray type="Float32" Name="E" format="ascii" NumberOfComponents="3"> 
3.16272e+06 -1.29707e+06 0 3.26749e+06 -1.34004e+06 0 3.36924e+06 -1.38177e+06 0 3.47107e+06 -1.42353e+06 0 3.57523e+06 -1.46625e+06 0 3.68364e+06 -1.51071e+06 0 3.79816e+06 -1.55767e+06 0 3.92085e+06 -1.60799e+06 0 4.05423e+06 -1.66269e+06 0 4.20164e+06 -1.72315e+06 0 4.36804e+06 -1.79139e+06 0 4.56212e+06 -1.87098e+06 0 4.80127e+06 -1.96906e+06 0 5.12356e+06 -2.10123e+06 0 5.61307e+06 -2.30199e+06 0 6.45152e+06 -2.64585e+06 0 3.49924e+06 -1.0067e+06 0 3.57805e+06 -1.04566e+06 0 3.66349e+06 -1.08143e+06 0 3.75589e+06 -1.11371e+06 0 3.85596e+06 -1.14206e+06 0 3.9648e+06 -1.16582e+06 0 4.08382e+06 -1.18387e+06 0 4.21471e+06 -1.19446e+06 0 4.35943e+06 -1.19479e+06 0 4.51996e+06 -1.18058e+06 0 4.6979e+06 -1.14532e+06 0 4.89346e+06 -1.07976e+06 0 5.10359e+06 -971903 0 5.31841e+06 -809243 0 5.51491e+06 -586283 0 5.64611e+06 -321017 0 3.72984e+06 -709520 0 3.79502e+06 -734911 0 3.86699e+06 -754793 0 3.94592e+06 -768058 0 4.03188e+06 -773272 0 4.12475e+06 -768639 0 4.22412e+06 -751939 0 4.32899e+06 -720509 0 4.4375e+06 -671344 0 4.54648e+06 -601440 0 4.65116e+06 -508529 0 4.745e+06 -392263 0 4.8202e+06 -255555 0 4.8692e+06 -104720 0 4.88768e+06 54982.9 0 4.87937e+06 234999 0 3.8449e+06 -427793 0 3.89556e+06 -438805 0 3.9511e+06 -443566 0 4.01106e+06 -440650 0 4.07463e+06 -428552 0 4.14058e+06 -405751 0 4.20717e+06 -370819 0 4.27204e+06 -322627 0 4.33228e+06 -260631 0 4.3845e+06 -185192 0 4.42518e+06 -97788.4 0 4.45122e+06 -884.739 0 4.46047e+06 102689 0 4.45204e+06 210315 0 4.42588e+06 317618 0 4.38168e+06 407641 0 3.8599e+06 -198522 0 3.89693e+06 -199417 0 3.9364e+06 -194516 0 3.97749e+06 -182782 0 4.01907e+06 -163238 0 4.05965e+06 -135095 0 4.09744e+06 -97898 0 4.13041e+06 -51662.1 0 4.15636e+06 3015.55 0 4.17322e+06 64920.1 0 4.17921e+06 132250 0 4.17318e+06 202654 0 4.15465e+06 273122 0 4.12399e+06 339890 0 4.08264e+06 399834 0 4.03316e+06 458661 0 3.81314e+06 -39859.6 0 3.83868e+06 -34120.3 0 3.86481e+06 -24002.8 0 3.89067e+06 -8785.23 0 3.91522e+06 12054.1 0 3.93713e+06 38780.8 0 3.95495e+06 71331.9 0 3.96718e+06 109250 0 3.97245e+06 151632 0 3.96969e+06 197112 0 3.95821e+06 243927 0 3.93783e+06 290118 0 3.90885e+06 333930 0 3.87201e+06 374388 0 3.82818e+06 411129 0 3.77811e+06 439378 0 3.73825e+06 52612.1 0 3.75461e+06 62218.1 0 3.77048e+06 74741 0 3.78504e+06 90560.2 0 3.79736e+06 109905 0 3.80645e+06 132795 0 3.81131e+06 158939 0 3.81103e+06 187688 0 3.80477e+06 218081 0 3.79192e+06 248967 0 3.77219e+06 279152 0 3.74571e+06 307483 0 3.71298e+06 332803 0 3.67482e+06 353695 0 3.63235e+06 368474 0 3.58696e+06 378111 0 3.65767e+06 89885 0 3.66637e+06 101501 0 3.67403e+06 114858 0 3.68006e+06 130110 0 3.68377e+06 147159 0 3.68436e+06 165712 0 3.68101e+06 185342 0 3.67302e+06 205532 0 3.65994e+06 225648 0 3.64165e+06 244864 0 3.61833e+06 262122 0 3.59035e+06 276220 0 3.55819e+06 286060 0 3.52242e+06 291038 0 3.48372e+06 291326 0 3.44272e+06 286278 0 3.58478e+06 83521.8 0 3.58698e+06 95968.9 0 3.58811e+06 108847 0 3.5875e+06 122174 0 3.58453e+06 135943 0 3.57869e+06 150055 0 3.56962e+06 164148 0 3.55706e+06 177506 0 3.54079e+06 189140 0 3.52063e+06 198048 0 3.49652e+06 203498 0 3.4687e+06 205138 0 3.43776e+06 202865 0 3.4046e+06 196461 0 3.37021e+06 185237 0 3.33555e+06 168636 0 3.5299e+06 39599.9 0 3.52539e+06 51269.8 0 3.51999e+06 63216.8 0 3.51342e+06 75127.8 0 3.5053e+06 86346.3 0 3.49515e+06 96101.1 0 3.4824e+06 103741 0 3.46662e+06 108924 0 3.44768e+06 111593 0 3.42585e+06 111720 0 3.40172e+06 108948 0 3.37598e+06 102409 0 3.34914e+06 90867.2 0 3.32145e+06 73224 0 3.29299e+06 49131.1 0 3.26384e+06 18906.7 0 3.50158e+06 -34747.2 0 3.49079e+06 -25068.9 0 3.47961e+06 -16894.2 0 3.46744e+06 -10188.4 0 3.45389e+06 -4756.44 0 3.43876e+06 -413.583 0 3.42214e+06 2670.97 0 3.4042e+06 3718.94 0 3.38507e+06 1355.43 0 3.36467e+06 -6031.34 0 3.34277e+06 -19700.4 0 3.31921e+06 -40031.9 0 3.29416e+06 -66378.3 0 3.26833e+06 -97440.5 0 3.24287e+06 -132018 0 3.21909e+06 -169780 0 3.51426e+06 -153290 0 3.49464e+06 -145974 0 3.47541e+06 -138780 0 3.45654e+06 -132755 0 3.43788e+06 -129383 0 3.41906e+06 -130205 0 3.39957e+06 -136398 0 3.37898e+06 -148390 0 3.35714e+06 -165702 0 3.33436e+06 -187190 0 3.31146e+06 -211631 0 3.28953e+06 -238464 0 3.26951e+06 -268319 0 3.25183e+06 -303070 0 3.23617e+06 -345296 0 3.22154e+06 -397538 0 3.58474e+06 -306913 0 3.55611e+06 -309405 0 3.52873e+06 -315146 0 3.50212e+06 -323653 0 3.47603e+06 -334208 0 3.45051e+06 -346065 0 3.42583e+06 -358858 0 3.4024e+06 -373020 0 3.38054e+06 -390021 0 3.36023e+06 -412311 0 3.34105e+06 -442868 0 3.32225e+06 -484462 0 3.30306e+06 -538831 0 3.28309e+06 -606072 0 3.26276e+06 -684394 0 3.24342e+06 -770519 0 3.74674e+06 -573644 0 3.70685e+06 -574684 0 3.66781e+06 -577659 0 3.62998e+06 -584068 0 3.59356e+06 -595907 0 3.55855e+06 -615373 0 3.52488e+06 -644549 0 3.49249e+06 -685010 0 3.46152e+06 -737487 0 3.43247e+06 -801678 0 3.40624e+06 -876308 0 3.38408e+06 -959452 0 3.3673e+06 -1.04909e+06 0 3.35683e+06 -1.14378e+06 0 3.35271e+06 -1.24352e+06 0 3.35357e+06 -1.35127e+06 0 4.03971e+06 -860787 0 3.99338e+06 -910918 0 3.95189e+06 -964874 0 3.91543e+06 -1.02397e+06 0 3.88404e+06 -1.08963e+06 0 3.85743e+06 -1.16327e+06 0 3.83475e+06 -1.24628e+06 0 3.81447e+06 -1.34001e+06 0 3.7942e+06 -1.44571e+06 0 3.77069e+06 -1.56453e+06 0 3.73982e+06 -1.69742e+06 0 3.69679e+06 -1.84508e+06 0 3.63638e+06 -2.00772e+06 0 3.55342e+06 -2.18461e+06 0 3.44331e+06 -2.37259e+06 0 3.30293e+06 -2.56083e+06 0 5.25462e+06 -1.39698e-08 0 5.56042e+06 -535921 0 5.73332e+06 -1.13595e+06 0 5.77351e+06 -1.77465e+06 0 5.68353e+06 -2.4265e+06 0 5.46911e+06 -3.06631e+06 0 5.13959e+06 -3.6699e+06 0 4.70806e+06 -4.21489e+06 0 4.1911e+06 -4.68149e+06 0 3.60802e+06 -5.05294e+06 0 2.97994e+06 -5.31506e+06 0 2.32857e+06 -5.45416e+06 0 1.67545e+06 -5.45077e+06 0 1.04257e+06 -5.26199e+06 0 458816 -4.76043e+06 0 4.06988e-07 -3.40104e+06 0 </DataArray> 
</PointData> 
<Points> 
<DataArray type="Float32" NumberOfComponents="3"> 
0.3115 0.02 0 0.311987 0.0211867 0 0.312473 0.0223733 0 0.31296 0.02356 0 0.313447 0.0247467 0 0.313933 0.0259333 0 0.31442 0.02712 0 0.314907 0.0283067 0 0.315393 0.0294933 0 0.31588 0.03068 0 0.316367 0.0318667 0 0.316853 0.0330533 0 0.31734 0.03424 0 0.317827 0.0354267 0 0.318313 0.0366133 0 0.3188 0.0378 0 0.316933 0.0203333 0 0.317205 0.0214631 0 0.317507 0.022598 0 0.31784 0.0237369 0 0.318203 0.0248785 0 0.318596 0.0260218 0 0.319019 0.0271654 0 0.319471 0.0283083 0 0.319952 0.0294492 0 0.320461 0.0305868 0 0.320999 0.0317201 0 0.321563 0.0328478 0 0.322155 0.0339688 0 0.322772 0.0350819 0 0.323414 0.036186 0 0.32408 0.03728 0 0.322367 0.0206667 0 0.322449 0.0217409 0 0.322587 0.0228247 0 0.322781 0.023916 0 0.323033 0.0250124 0 0.323341 0.0261118 0 0.323705 0.0272117 0 0.324125 0.02831 0 0.324601 0.0294041 0 0.32513 0.0304919 0 0.325713 0.031571 0 0.326347 0.0326391 0 0.32703 0.0336942 0 0.327762 0.034734 0 0.328539 0.0357566 0 0.32936 0.03676 0 0.3278 0.021 0 0.327718 0.0220201 0 0.327713 0.0230535 0 0.327786 0.0240974 0 0.327938 0.0251484 0 0.32817 0.0262034 0 0.328482 0.0272589 0 0.328873 0.0283117 0 0.329343 0.0293582 0 0.329889 0.0303951 0 0.330511 0.0314192 0 0.331205 0.0324272 0 0.331968 0.033416 0 0.332797 0.0343829 0 0.333689 0.035325 0 0.33464 0.03624 0 0.333233 0.0213333 0 0.333013 0.0223006 0 0.332886 0.0232844 0 0.332854 0.0242811 0 0.33292 0.0252865 0 0.333086 0.0262966 0 0.333352 0.027307 0 0.333717 0.0283134 0 0.334181 0.0293113 0 0.334741 0.0302964 0 0.335395 0.0312646 0 0.336139 0.0322119 0 0.336969 0.0331343 0 0.337879 0.0340286 0 0.338865 0.0348914 0 0.33992 0.03572 0 0.338667 0.0216667 0 0.338334 0.0225825 0 0.338107 0.0235174 0 0.337988 0.0244671 0 0.337982 0.0254269 0 0.338092 0.0263916 0 0.338317 0.0273561 0 0.33866 0.0283152 0 0.339118 0.0292635 0 0.339688 0.0301958 0 0.340368 0.0311073 0 0.341152 0.0319931 0 0.342034 0.032849 0 0.343008 0.033671 0 0.344066 0.0344556 0 0.3452 0.0352 0 0.3441 0.022 0 0.343682 0.0228658 0 0.343376 0.0237526 0 0.343189 0.0246556 0 0.343125 0.0255694 0 0.343189 0.0264883 0 0.343382 0.0274061 0 0.343705 0.028317 0 0.344156 0.0292146 0 0.344734 0.0300932 0 0.345432 0.0309471 0 0.346245 0.0317709 0 0.347166 0.03256 0 0.348185 0.0333101 0 0.349293 0.0340177 0 0.35048 0.03468 0 0.349533 0.0223333 0 0.349056 0.0231505 0 0.348694 0.02399 0 0.348457 0.0248466 0 0.348351 0.0257143 0 0.34838 0.0265867 0 0.348548 0.0274572 0 0.348855 0.0283188 0 0.3493 0.0291648 0 0.34988 0.0299886 0 0.35059 0.0307839 0 0.35142 0.0315451 0 0.352364 0.0322672 0 0.35341 0.0329458 0 0.354546 0.0335776 0 0.35576 0.03416 0 0.354967 0.0226667 0 0.354456 0.0234366 0 0.354063 0.0242296 0 0.353795 0.0250401 0 0.353661 0.0258615 0 0.353668 0.026687 0 0.353818 0.0275092 0 0.354113 0.0283207 0 0.354552 0.0291139 0 0.355131 0.0298818 0 0.355843 0.0306177 0 0.35668 0.0313156 0 0.357631 0.0319705 0 0.358683 0.0325781 0 0.359824 0.0331353 0 0.36104 0.03364 0 0.3604 0.023 0 0.359884 0.0237241 0 0.359481 0.0244715 0 0.359203 0.0252361 0 0.359059 0.0260112 0 0.359055 0.0267892 0 0.359197 0.0275624 0 0.359484 0.0283226 0 0.359917 0.0290619 0 0.36049 0.0297728 0 0.361196 0.0304484 0 0.362026 0.0310824 0 0.362967 0.0316699 0 0.364006 0.032207 0 0.365129 0.0326908 0 0.36632 0.03312 0 0.365833 0.0233333 0 0.365338 0.024013 0 0.364951 0.0247156 0 0.364684 0.0254347 0 0.364546 0.0261633 0 0.364545 0.0268934 0 0.364686 0.0276166 0 0.36497 0.0283246 0 0.365396 0.0290088 0 0.365959 0.0296616 0 0.36665 0.0302758 0 0.36746 0.0308453 0 0.368375 0.0313653 0 0.36938 0.0318323 0 0.37046 0.0322442 0 0.3716 0.0326 0 0.371267 0.0236667 0 0.37082 0.0243034 0 0.370473 0.0249621 0 0.370238 0.0256361 0 0.370125 0.0263179 0 0.370141 0.0269995 0 0.370291 0.027672 0 0.370576 0.0283266 0 0.370995 0.0289546 0 0.371542 0.0295481 0 0.372209 0.0300999 0 0.372985 0.0306042 0 0.373855 0.0310566 0 0.374805 0.0314541 0 0.375818 0.0317952 0 0.37688 0.03208 0 0.3767 0.024 0 0.376329 0.0245953 0 0.376048 0.0252109 0 0.375867 0.0258401 0 0.375797 0.0264752 0 0.375845 0.0271077 0 0.376014 0.0277285 0 0.376305 0.0283286 0 0.376717 0.0288992 0 0.377244 0.0294321 0 0.377876 0.0299206 0 0.378602 0.0303591 0 0.379409 0.0307438 0 0.380281 0.0310723 0 0.381203 0.0313441 0 0.38216 0.03156 0 0.382133 0.0243333 0 0.381866 0.0248886 0 0.381676 0.0254621 0 0.381573 0.0260469 0 0.381566 0.0266351 0 0.38166 0.027218 0 0.381858 0.0277863 0 0.382162 0.0283307 0 0.382567 0.0288425 0 0.383067 0.0293137 0 0.383654 0.0297378 0 0.384315 0.0301099 0 0.385039 0.0304267 0 0.38581 0.0306868 0 0.386615 0.0308907 0 0.38744 0.03104 0 0.387567 0.0246667 0 0.38743 0.0251834 0 0.387358 0.0257157 0 0.387357 0.0262565 0 0.387433 0.0267978 0 0.38759 0.0273305 0 0.38783 0.0278453 0 0.38815 0.0283328 0 0.388548 0.0287845 0 0.389016 0.0291927 0 0.389545 0.0295514 0 0.390126 0.0298563 0 0.390745 0.0301052 0 0.391392 0.0302976 0 0.392054 0.0304349 0 0.39272 0.03052 0 0.393 0.025 0 0.393023 0.0254797 0 0.393095 0.0259718 0 0.393221 0.0264691 0 0.393402 0.0269632 0 0.393639 0.0274452 0 0.393931 0.0279055 0 0.394275 0.028335 0 0.394665 0.0287253 0 0.395094 0.0290691 0 0.395555 0.0293613 0 0.396037 0.0295984 0 0.396531 0.0297793 0 0.397028 0.0299047 0 0.39752 0.0299769 0 0.398 0.03 0 
</DataArray>
</Points> 
</Piece> 
</StructuredGrid> 
</VTKFile> 
