<?xml version="1.0"?> 
<VTKFile type="StructuredGrid" version="0.1"> 
<StructuredGrid WholeExtent="0 15 0 15 0 0"> 
<Piece Extent="0 15 0 15 0 0"> 
<PointData>
<DataArray type="Float32" Name="E" format="ascii" NumberOfComponents="3"> 
-1.00039e+06 0 0 -989813 0 0 -979163 0 0 -968444 0 0 -957651 0 0 -946779 0 0 -935817 0 0 -924746 0 0 -913539 0 0 -902156 0 0 -890539 0 0 -878613 0 0 -866286 0 0 -853464 0 0 -840067 0 0 -826067 0 0 -1.00051e+06 19407.2 0 -989917 18583.6 0 -979259 17748.7 0 -968533 16904.6 0 -957737 16054.2 0 -946865 15201.9 0 -935907 14352.8 0 -924844 13513.3 0 -913649 12690.3 0 -902279 11890.5 0 -890676 11118.3 0 -878759 10371.8 0 -866433 9637.59 0 -853598 8886.56 0 -840174 8073.49 0 -826137 7147.76 0 -1.00085e+06 38816.8 0 -990226 37166.5 0 -979539 35491 0 -968792 33794.9 0 -957984 32084.9 0 -947112 30369.6 0 -936165 28660 0 -925125 26969.5 0 -913965 25313.6 0 -902639 23708 0 -891080 22163.9 0 -879197 20680.1 0 -866877 19230.4 0 -854004 17752.2 0 -840498 16147.6 0 -826351 14308.5 0 -1.00142e+06 58244.6 0 -990730 55759.7 0 -979987 53231.8 0 -969198 50668.6 0 -958364 48080.7 0 -947484 45481.4 0 -936550 42887.8 0 -925547 40322 0 -914447 37810.4 0 -903199 35381.9 0 -891727 33061.4 0 -879916 30854.8 0 -867622 28725.4 0 -854699 26570.2 0 -841056 24220.8 0 -826716 21494.2 0 -1.00222e+06 77725.1 0 -991416 74391.9 0 -980582 70994.3 0 -969721 67543.2 0 -958838 64052.2 0 -947935 60539 0 -937007 57027 0 -926046 53547.1 0 -915024 50139.4 0 -903893 46852 0 -892564 43734 0 -880891 40813.4 0 -868675 38053 0 -855708 35301.2 0 -841876 32285.9 0 -827255 28716.5 0 -1.00324e+06 97309.1 0 -992279 93107.6 0 -981310 88819.3 0 -970339 84456.5 0 -959373 80034.4 0 -948417 75573.1 0 -937475 71100.6 0 -926543 66655.7 0 -915608 62292.6 0 -904625 58083.2 0 -893502 54114.8 0 -882064 50461.9 0 -870026 47118.4 0 -857064 43882.2 0 -842998 40327.8 0 -827987 35989.7 0 -1.00449e+06 117050 0 -993321 111957 0 -982170 106756 0 -971044 101459 0 -959951 96079.7 0 -948901 90638.3 0 -937905 85163.6 0 -926973 79699.2 0 -916103 74308.7 0 -905275 69088.3 0 -894412 64169.4 0 -883323 59710.5 0 -871632 55794.4 0 -858798 52215.4 0 -844487 48312.4 0 -828963 43312.2 0 -1.00597e+06 136991 0 -994553 130983 0 -983175 124851 0 -971847 118601 0 -960579 112245 0 -949385 105799 0 -938284 99290.7 0 -927296 92759.2 0 -916443 86274.2 0 -905733 79940.9 0 -895133 73935.2 0 -884494 68507.4 0 -873373 63938.3 0 -860930 60139.5 0 -846416 56181.4 0 -830213 50717.5 0 -1.0077e+06 157155 0 -995990 150213 0 -984347 143134 0 -972775 135920 0 -961285 128576 0 -949896 121114 0 -938630 113553 0 -927521 105929 0 -916608 98297.2 0 -905936 90772 0 -895534 83531.3 0 -885345 76911.8 0 -875025 71426 0 -863397 67429.7 0 -848913 63808.7 0 -831856 58123.7 0 -1.00966e+06 177541 0 -997649 169652 0 -985711 161618 0 -973860 153433 0 -962109 145099 0 -950477 136617 0 -938991 128004 0 -927693 119276 0 -916635 110488 0 -905897 101714 0 -895562 93150.7 0 -885699 85107.1 0 -876217 78297.9 0 -866002 73780.6 0 -852089 70965.1 0 -833923 65660 0 -1.01188e+06 198131 0 -999543 189290 0 -987290 180295 0 -975134 171139 0 -963089 161815 0 -951177 152324 0 -939425 142661 0 -927879 132850 0 -916601 122901 0 -905680 112897 0 -895276 102941 0 -885515 93395.8 0 -876620 84814.7 0 -868205 79029.5 0 -856086 77173.8 0 -836705 72952 0 -1.01436e+06 218898 0 -1.00168e+06 209103 0 -989097 199148 0 -976617 189020 0 -964256 178715 0 -952036 168216 0 -939985 157533 0 -928144 146639 0 -916587 135579 0 -905406 124352 0 -894759 113067 0 -884957 101926 0 -876138 91527.4 0 -869250 83355.5 0 -860649 81706.8 0 -840287 80927.5 0 -1.01709e+06 239810 0 -1.00407e+06 229065 0 -991141 218151 0 -978323 207057 0 -965631 195770 0 -953083 184287 0 -940709 172573 0 -928548 160662 0 -916660 148473 0 -905176 136112 0 -894175 123541 0 -884105 110876 0 -875221 98647.1 0 -868445 87760 0 -864806 83876.8 0 -845371 89398.8 0 -1.02009e+06 260837 0 -1.00671e+06 249147 0 -993425 237278 0 -980258 225220 0 -967222 212962 0 -954335 200487 0 -941621 187793 0 -929124 174816 0 -916891 161643 0 -905019 148066 0 -893733 134363 0 -883027 120342 0 -874196 106176 0 -866446 93103.7 0 -866016 84030.9 0 -853235 102359 0 -1.02334e+06 281952 0 -1.00959e+06 269325 0 -995948 256506 0 -982422 243488 0 -969032 230261 0 -955795 216809 0 -942738 203113 0 -929882 189166 0 -917304 174883 0 -905050 160374 0 -893293 145350 0 -882390 130122 0 -872260 114785 0 -865673 98332.5 0 -861329 85710 0 -866354 111189 0 -1.02686e+06 303128 0 -1.01273e+06 289574 0 -998709 275813 0 -984811 261839 0 -971057 247645 0 -957463 233219 0 -944052 218540 0 -930842 203598 0 -917914 188303 0 -905210 172800 0 -893274 156466 0 -881160 140844 0 -872341 121840 0 -860658 109157 0 -861299 85382.5 0 -942255 -36089 0 </DataArray> 
</PointData> 
<Points> 
<DataArray type="Float32" NumberOfComponents="3"> 
0 0.027 0 0 0.0286667 0 0 0.0303333 0 0 0.032 0 0 0.0336667 0 0 0.0353333 0 0 0.037 0 0 0.0386667 0 0 0.0403333 0 0 0.042 0 0 0.0436667 0 0 0.0453333 0 0 0.047 0 0 0.0486667 0 0 0.0503333 0 0 0.052 0 0.00306667 0.027 0 0.00291778 0.0286667 0 0.00276889 0.0303333 0 0.00262 0.032 0 0.00247111 0.0336667 0 0.00232222 0.0353333 0 0.00217333 0.037 0 0.00202444 0.0386667 0 0.00187556 0.0403333 0 0.00172667 0.042 0 0.00157778 0.0436667 0 0.00142889 0.0453333 0 0.00128 0.047 0 0.00113111 0.0486667 0 0.000982222 0.0503333 0 0.000833333 0.052 0 0.00613333 0.027 0 0.00583556 0.0286667 0 0.00553778 0.0303333 0 0.00524 0.032 0 0.00494222 0.0336667 0 0.00464444 0.0353333 0 0.00434667 0.037 0 0.00404889 0.0386667 0 0.00375111 0.0403333 0 0.00345333 0.042 0 0.00315556 0.0436667 0 0.00285778 0.0453333 0 0.00256 0.047 0 0.00226222 0.0486667 0 0.00196444 0.0503333 0 0.00166667 0.052 0 0.0092 0.027 0 0.00875333 0.0286667 0 0.00830667 0.0303333 0 0.00786 0.032 0 0.00741333 0.0336667 0 0.00696667 0.0353333 0 0.00652 0.037 0 0.00607333 0.0386667 0 0.00562667 0.0403333 0 0.00518 0.042 0 0.00473333 0.0436667 0 0.00428667 0.0453333 0 0.00384 0.047 0 0.00339333 0.0486667 0 0.00294667 0.0503333 0 0.0025 0.052 0 0.0122667 0.027 0 0.0116711 0.0286667 0 0.0110756 0.0303333 0 0.01048 0.032 0 0.00988444 0.0336667 0 0.00928889 0.0353333 0 0.00869333 0.037 0 0.00809778 0.0386667 0 0.00750222 0.0403333 0 0.00690667 0.042 0 0.00631111 0.0436667 0 0.00571556 0.0453333 0 0.00512 0.047 0 0.00452444 0.0486667 0 0.00392889 0.0503333 0 0.00333333 0.052 0 0.0153333 0.027 0 0.0145889 0.0286667 0 0.0138444 0.0303333 0 0.0131 0.032 0 0.0123556 0.0336667 0 0.0116111 0.0353333 0 0.0108667 0.037 0 0.0101222 0.0386667 0 0.00937778 0.0403333 0 0.00863333 0.042 0 0.00788889 0.0436667 0 0.00714444 0.0453333 0 0.0064 0.047 0 0.00565556 0.0486667 0 0.00491111 0.0503333 0 0.00416667 0.052 0 0.0184 0.027 0 0.0175067 0.0286667 0 0.0166133 0.0303333 0 0.01572 0.032 0 0.0148267 0.0336667 0 0.0139333 0.0353333 0 0.01304 0.037 0 0.0121467 0.0386667 0 0.0112533 0.0403333 0 0.01036 0.042 0 0.00946667 0.0436667 0 0.00857333 0.0453333 0 0.00768 0.047 0 0.00678667 0.0486667 0 0.00589333 0.0503333 0 0.005 0.052 0 0.0214667 0.027 0 0.0204244 0.0286667 0 0.0193822 0.0303333 0 0.01834 0.032 0 0.0172978 0.0336667 0 0.0162556 0.0353333 0 0.0152133 0.037 0 0.0141711 0.0386667 0 0.0131289 0.0403333 0 0.0120867 0.042 0 0.0110444 0.0436667 0 0.0100022 0.0453333 0 0.00896 0.047 0 0.00791778 0.0486667 0 0.00687556 0.0503333 0 0.00583333 0.052 0 0.0245333 0.027 0 0.0233422 0.0286667 0 0.0221511 0.0303333 0 0.02096 0.032 0 0.0197689 0.0336667 0 0.0185778 0.0353333 0 0.0173867 0.037 0 0.0161956 0.0386667 0 0.0150044 0.0403333 0 0.0138133 0.042 0 0.0126222 0.0436667 0 0.0114311 0.0453333 0 0.01024 0.047 0 0.00904889 0.0486667 0 0.00785778 0.0503333 0 0.00666667 0.052 0 0.0276 0.027 0 0.02626 0.0286667 0 0.02492 0.0303333 0 0.02358 0.032 0 0.02224 0.0336667 0 0.0209 0.0353333 0 0.01956 0.037 0 0.01822 0.0386667 0 0.01688 0.0403333 0 0.01554 0.042 0 0.0142 0.0436667 0 0.01286 0.0453333 0 0.01152 0.047 0 0.01018 0.0486667 0 0.00884 0.0503333 0 0.0075 0.052 0 0.0306667 0.027 0 0.0291778 0.0286667 0 0.0276889 0.0303333 0 0.0262 0.032 0 0.0247111 0.0336667 0 0.0232222 0.0353333 0 0.0217333 0.037 0 0.0202444 0.0386667 0 0.0187556 0.0403333 0 0.0172667 0.042 0 0.0157778 0.0436667 0 0.0142889 0.0453333 0 0.0128 0.047 0 0.0113111 0.0486667 0 0.00982222 0.0503333 0 0.00833333 0.052 0 0.0337333 0.027 0 0.0320956 0.0286667 0 0.0304578 0.0303333 0 0.02882 0.032 0 0.0271822 0.0336667 0 0.0255444 0.0353333 0 0.0239067 0.037 0 0.0222689 0.0386667 0 0.0206311 0.0403333 0 0.0189933 0.042 0 0.0173556 0.0436667 0 0.0157178 0.0453333 0 0.01408 0.047 0 0.0124422 0.0486667 0 0.0108044 0.0503333 0 0.00916667 0.052 0 0.0368 0.027 0 0.0350133 0.0286667 0 0.0332267 0.0303333 0 0.03144 0.032 0 0.0296533 0.0336667 0 0.0278667 0.0353333 0 0.02608 0.037 0 0.0242933 0.0386667 0 0.0225067 0.0403333 0 0.02072 0.042 0 0.0189333 0.0436667 0 0.0171467 0.0453333 0 0.01536 0.047 0 0.0135733 0.0486667 0 0.0117867 0.0503333 0 0.01 0.052 0 0.0398667 0.027 0 0.0379311 0.0286667 0 0.0359956 0.0303333 0 0.03406 0.032 0 0.0321244 0.0336667 0 0.0301889 0.0353333 0 0.0282533 0.037 0 0.0263178 0.0386667 0 0.0243822 0.0403333 0 0.0224467 0.042 0 0.0205111 0.0436667 0 0.0185756 0.0453333 0 0.01664 0.047 0 0.0147044 0.0486667 0 0.0127689 0.0503333 0 0.0108333 0.052 0 0.0429333 0.027 0 0.0408489 0.0286667 0 0.0387644 0.0303333 0 0.03668 0.032 0 0.0345956 0.0336667 0 0.0325111 0.0353333 0 0.0304267 0.037 0 0.0283422 0.0386667 0 0.0262578 0.0403333 0 0.0241733 0.042 0 0.0220889 0.0436667 0 0.0200044 0.0453333 0 0.01792 0.047 0 0.0158356 0.0486667 0 0.0137511 0.0503333 0 0.0116667 0.052 0 0.046 0.027 0 0.0437667 0.0286667 0 0.0415333 0.0303333 0 0.0393 0.032 0 0.0370667 0.0336667 0 0.0348333 0.0353333 0 0.0326 0.037 0 0.0303667 0.0386667 0 0.0281333 0.0403333 0 0.0259 0.042 0 0.0236667 0.0436667 0 0.0214333 0.0453333 0 0.0192 0.047 0 0.0169667 0.0486667 0 0.0147333 0.0503333 0 0.0125 0.052 0 
</DataArray>
</Points> 
</Piece> 
</StructuredGrid> 
</VTKFile> 
