<?xml version="1.0"?> 
<VTKFile type="StructuredGrid" version="0.1"> 
<StructuredGrid WholeExtent="0 127 0 127 0 0"> 
<Piece Extent="0 127 0 127 0 0"> 
<PointData>
<DataArray type="Float32" Name="|E|" format="ascii" NumberOfComponents="3"> 
-2.0811e+06 166899 0 -2.0845e+06 171999 0 -2.08799e+06 177117 0 -2.09159e+06 182258 0 -2.09529e+06 187424 0 -2.09908e+06 192615 0 -2.10299e+06 197831 0 -2.10699e+06 203073 0 -2.1111e+06 208343 0 -2.1153e+06 213640 0 -2.11962e+06 218967 0 -2.12404e+06 224324 0 -2.12856e+06 229711 0 -2.13318e+06 235130 0 -2.13792e+06 240582 0 -2.14276e+06 246067 0 -2.1477e+06 251586 0 -2.15275e+06 257142 0 -2.15791e+06 262734 0 -2.16318e+06 268363 0 -2.16856e+06 274032 0 -2.17404e+06 279740 0 -2.17964e+06 285489 0 -2.18534e+06 291280 0 -2.19116e+06 297114 0 -2.19709e+06 302993 0 -2.20313e+06 308917 0 -2.20929e+06 314889 0 -2.21555e+06 320909 0 -2.22194e+06 326978 0 -2.22844e+06 333098 0 -2.23505e+06 339271 0 -2.24178e+06 345497 0 -2.24863e+06 351778 0 -2.2556e+06 358117 0 -2.26269e+06 364513 0 -2.26991e+06 370970 0 -2.27724e+06 377488 0 -2.28469e+06 384069 0 -2.29228e+06 390716 0 -2.29998e+06 397429 0 -2.30781e+06 404211 0 -2.31577e+06 411063 0 -2.32387e+06 417988 0 -2.33209e+06 424988 0 -2.34044e+06 432064 0 -2.34893e+06 439219 0 -2.35755e+06 446455 0 -2.36631e+06 453775 0 -2.37521e+06 461180 0 -2.38425e+06 468674 0 -2.39343e+06 476258 0 -2.40275e+06 483936 0 -2.41223e+06 491711 0 -2.42185e+06 499585 0 -2.43162e+06 507561 0 -2.44155e+06 515642 0 -2.45164e+06 523832 0 -2.46188e+06 532134 0 -2.47229e+06 540551 0 -2.48287e+06 549088 0 -2.49361e+06 557748 0 -2.50453e+06 566535 0 -2.51562e+06 575453 0 -2.5269e+06 584507 0 -2.53836e+06 593701 0 -2.55001e+06 603040 0 -2.56186e+06 612530 0 -2.5739e+06 622175 0 -2.58616e+06 631982 0 -2.59862e+06 641956 0 -2.61131e+06 652103 0 -2.62422e+06 662431 0 -2.63736e+06 672946 0 -2.65075e+06 683657 0 -2.66439e+06 694569 0 -2.67828e+06 705694 0 -2.69245e+06 717038 0 -2.7069e+06 728612 0 -2.72164e+06 740427 0 -2.73669e+06 752492 0 -2.75205e+06 764821 0 -2.76775e+06 777425 0 -2.78381e+06 790318 0 -2.80023e+06 803516 0 -2.81705e+06 817033 0 -2.83427e+06 830886 0 -2.85193e+06 845095 0 -2.87005e+06 859680 0 -2.88866e+06 874662 0 -2.90778e+06 890065 0 -2.92747e+06 905917 0 -2.94774e+06 922244 0 -2.96865e+06 939079 0 -2.99024e+06 956457 0 -3.01256e+06 974417 0 -3.03567e+06 992999 0 -3.05964e+06 1.01225e+06 0 -3.08454e+06 1.03223e+06 0 -3.11045e+06 1.05299e+06 0 -3.13746e+06 1.0746e+06 0 -3.16569e+06 1.09713e+06 0 -3.19524e+06 1.12068e+06 0 -3.22626e+06 1.14533e+06 0 -3.2589e+06 1.17119e+06 0 -3.29336e+06 1.1984e+06 0 -3.32984e+06 1.22709e+06 0 -3.36859e+06 1.25745e+06 0 -3.40992e+06 1.28966e+06 0 -3.45416e+06 1.32397e+06 0 -3.50174e+06 1.36066e+06 0 -3.55317e+06 1.40006e+06 0 -3.60908e+06 1.44257e+06 0 -3.67024e+06 1.48872e+06 0 -3.73762e+06 1.5391e+06 0 -3.81247e+06 1.59453e+06 0 -3.89641e+06 1.65604e+06 0 -3.9916e+06 1.7248e+06 0 -4.10093e+06 1.8027e+06 0 -4.2285e+06 1.89373e+06 0 -4.381e+06 1.99465e+06 0 -4.56683e+06 2.12003e+06 0 -4.7958e+06 2.3063e+06 0 -5.12477e+06 2.38444e+06 0 -5.56155e+06 2.75703e+06 0 -6.08995e+06 3.98258e+06 0 -8.1606e+06 -2.70539e+06 0 -1.39434e+07 4.49676e+07 0 -2.08475e+06 174986 0 -2.08826e+06 180105 0 -2.09187e+06 185246 0 -2.09557e+06 190413 0 -2.09938e+06 195603 0 -2.10329e+06 200820 0 -2.1073e+06 206063 0 -2.11141e+06 211333 0 -2.11563e+06 216631 0 -2.11994e+06 221958 0 -2.12436e+06 227315 0 -2.12889e+06 232703 0 -2.13351e+06 238123 0 -2.13824e+06 243575 0 -2.14307e+06 249061 0 -2.14801e+06 254581 0 -2.15306e+06 260137 0 -2.15821e+06 265730 0 -2.16347e+06 271360 0 -2.16883e+06 277029 0 -2.1743e+06 282737 0 -2.17988e+06 288487 0 -2.18557e+06 294278 0 -2.19137e+06 300113 0 -2.19728e+06 305992 0 -2.2033e+06 311917 0 -2.20944e+06 317888 0 -2.21568e+06 323908 0 -2.22204e+06 329977 0 -2.22851e+06 336096 0 -2.2351e+06 342268 0 -2.2418e+06 348494 0 -2.24862e+06 354775 0 -2.25555e+06 361112 0 -2.26261e+06 367507 0 -2.26978e+06 373962 0 -2.27707e+06 380479 0 -2.28449e+06 387058 0 -2.29203e+06 393702 0 -2.29969e+06 400413 0 -2.30747e+06 407192 0 -2.31538e+06 414041 0 -2.32342e+06 420963 0 -2.33159e+06 427958 0 -2.33989e+06 435030 0 -2.34832e+06 442181 0 -2.35688e+06 449412 0 -2.36558e+06 456727 0 -2.37442e+06 464126 0 -2.38339e+06 471614 0 -2.39251e+06 479192 0 -2.40176e+06 486863 0 -2.41116e+06 494630 0 -2.42071e+06 502496 0 -2.43041e+06 510464 0 -2.44026e+06 518536 0 -2.45026e+06 526716 0 -2.46042e+06 535008 0 -2.47074e+06 543415 0 -2.48123e+06 551940 0 -2.49188e+06 560588 0 -2.5027e+06 569362 0 -2.51369e+06 578267 0 -2.52486e+06 587307 0 -2.53622e+06 596486 0 -2.54776e+06 605810 0 -2.55949e+06 615284 0 -2.57142e+06 624912 0 -2.58355e+06 634701 0 -2.59589e+06 644656 0 -2.60844e+06 654784 0 -2.62121e+06 665091 0 -2.63422e+06 675585 0 -2.64746e+06 686273 0 -2.66094e+06 697163 0 -2.67468e+06 708263 0 -2.68868e+06 719582 0 -2.70296e+06 731130 0 -2.71752e+06 742917 0 -2.73238e+06 754954 0 -2.74755e+06 767253 0 -2.76305e+06 779826 0 -2.77889e+06 792687 0 -2.79509e+06 805851 0 -2.81166e+06 819333 0 -2.82864e+06 833150 0 -2.84604e+06 847321 0 -2.86388e+06 861867 0 -2.8822e+06 876808 0 -2.90102e+06 892169 0 -2.92037e+06 907975 0 -2.94029e+06 924257 0 -2.96083e+06 941043 0 -2.98202e+06 958371 0 -3.00391e+06 976277 0 -3.02656e+06 994804 0 -3.05004e+06 1.014e+06 0 -3.0744e+06 1.03392e+06 0 -3.09972e+06 1.05461e+06 0 -3.1261e+06 1.07615e+06 0 -3.15363e+06 1.09862e+06 0 -3.18242e+06 1.12208e+06 0 -3.2126e+06 1.14665e+06 0 -3.24432e+06 1.17243e+06 0 -3.27775e+06 1.19954e+06 0 -3.31308e+06 1.22814e+06 0 -3.35054e+06 1.25838e+06 0 -3.3904e+06 1.29048e+06 0 -3.43299e+06 1.32466e+06 0 -3.47867e+06 1.36121e+06 0 -3.52792e+06 1.40045e+06 0 -3.58128e+06 1.4428e+06 0 -3.63944e+06 1.48875e+06 0 -3.70327e+06 1.53892e+06 0 -3.77383e+06 1.59411e+06 0 -3.85254e+06 1.65531e+06 0 -3.94124e+06 1.72381e+06 0 -4.04234e+06 1.80147e+06 0 -4.15908e+06 1.89095e+06 0 -4.29749e+06 1.99411e+06 0 -4.46328e+06 2.11994e+06 0 -4.6613e+06 2.27941e+06 0 -4.94503e+06 2.43906e+06 0 -5.30965e+06 2.77536e+06 0 -5.63749e+06 3.2543e+06 0 -7.21533e+06 2.58819e+06 0 -8.55372e+06 1.13504e+07 0 -1.37583e+06 1.09397e+07 0 -2.08858e+06 183183 0 -2.0922e+06 188325 0 -2.09592e+06 193491 0 -2.09974e+06 198682 0 -2.10366e+06 203899 0 -2.10767e+06 209142 0 -2.11179e+06 214413 0 -2.11601e+06 219712 0 -2.12033e+06 225040 0 -2.12475e+06 230398 0 -2.12928e+06 235786 0 -2.1339e+06 241207 0 -2.13863e+06 246660 0 -2.14346e+06 252146 0 -2.14839e+06 257667 0 -2.15343e+06 263224 0 -2.15857e+06 268817 0 -2.16382e+06 274448 0 -2.16918e+06 280118 0 -2.17464e+06 285827 0 -2.1802e+06 291577 0 -2.18588e+06 297369 0 -2.19166e+06 303204 0 -2.19755e+06 309084 0 -2.20355e+06 315009 0 -2.20966e+06 320980 0 -2.21588e+06 327000 0 -2.22222e+06 333069 0 -2.22866e+06 339189 0 -2.23522e+06 345360 0 -2.24189e+06 351585 0 -2.24868e+06 357866 0 -2.25558e+06 364202 0 -2.2626e+06 370596 0 -2.26974e+06 377050 0 -2.277e+06 383565 0 -2.28437e+06 390143 0 -2.29187e+06 396785 0 -2.29948e+06 403494 0 -2.30722e+06 410270 0 -2.31509e+06 417117 0 -2.32308e+06 424035 0 -2.3312e+06 431028 0 -2.33944e+06 438096 0 -2.34782e+06 445243 0 -2.35632e+06 452470 0 -2.36496e+06 459780 0 -2.37374e+06 467174 0 -2.38265e+06 474656 0 -2.39169e+06 482229 0 -2.40088e+06 489893 0 -2.41021e+06 497654 0 -2.41969e+06 505512 0 -2.42931e+06 513472 0 -2.43908e+06 521536 0 -2.449e+06 529708 0 -2.45908e+06 537990 0 -2.46932e+06 546387 0 -2.47971e+06 554902 0 -2.49027e+06 563538 0 -2.50099e+06 572301 0 -2.51189e+06 581193 0 -2.52296e+06 590220 0 -2.53421e+06 599386 0 -2.54564e+06 608695 0 -2.55726e+06 618154 0 -2.56908e+06 627766 0 -2.58109e+06 637538 0 -2.5933e+06 647476 0 -2.60573e+06 657586 0 -2.61837e+06 667874 0 -2.63123e+06 678348 0 -2.64433e+06 689015 0 -2.65766e+06 699883 0 -2.67125e+06 710960 0 -2.68509e+06 722255 0 -2.6992e+06 733778 0 -2.71358e+06 745539 0 -2.72826e+06 757549 0 -2.74324e+06 769820 0 -2.75854e+06 782364 0 -2.77418e+06 795194 0 -2.79016e+06 808326 0 -2.80651e+06 821775 0 -2.82324e+06 835558 0 -2.84039e+06 849693 0 -2.85796e+06 864201 0 -2.87599e+06 879103 0 -2.89451e+06 894422 0 -2.91355e+06 910186 0 -2.93313e+06 926422 0 -2.95331e+06 943162 0 -2.97411e+06 960440 0 -2.99559e+06 978295 0 -3.0178e+06 996768 0 -3.0408e+06 1.01591e+06 0 -3.06464e+06 1.03576e+06 0 -3.08941e+06 1.05639e+06 0 -3.11518e+06 1.07787e+06 0 -3.14204e+06 1.10025e+06 0 -3.17011e+06 1.12364e+06 0 -3.19949e+06 1.14813e+06 0 -3.23033e+06 1.17381e+06 0 -3.26278e+06 1.20083e+06 0 -3.29702e+06 1.22932e+06 0 -3.33326e+06 1.25944e+06 0 -3.37175e+06 1.29141e+06 0 -3.41278e+06 1.32545e+06 0 -3.45668e+06 1.36183e+06 0 -3.50388e+06 1.40088e+06 0 -3.55487e+06 1.44302e+06 0 -3.61026e+06 1.48872e+06 0 -3.6708e+06 1.5386e+06 0 -3.73744e+06 1.59344e+06 0 -3.81138e+06 1.65421e+06 0 -3.89421e+06 1.7222e+06 0 -3.98794e+06 1.7992e+06 0 -4.09522e+06 1.88765e+06 0 -4.22084e+06 1.99009e+06 0 -4.36972e+06 2.11392e+06 0 -4.54488e+06 2.26786e+06 0 -4.78185e+06 2.43872e+06 0 -5.09321e+06 2.73633e+06 0 -5.37028e+06 3.17369e+06 0 -6.27598e+06 3.13282e+06 0 -7.43572e+06 7.13936e+06 0 -4.35173e+06 1.01624e+07 0 975.407 5.21972e+06 0 -2.09259e+06 191496 0 -2.09632e+06 196662 0 -2.10015e+06 201854 0 -2.10408e+06 207071 0 -2.10811e+06 212315 0 -2.11223e+06 217586 0 -2.11646e+06 222885 0 -2.12078e+06 228214 0 -2.1252e+06 233573 0 -2.12973e+06 238962 0 -2.13435e+06 244383 0 -2.13908e+06 249837 0 -2.14391e+06 255325 0 -2.14884e+06 260847 0 -2.15387e+06 266404 0 -2.15901e+06 271999 0 -2.16425e+06 277630 0 -2.16959e+06 283301 0 -2.17504e+06 289011 0 -2.1806e+06 294762 0 -2.18626e+06 300554 0 -2.19202e+06 306390 0 -2.1979e+06 312270 0 -2.20388e+06 318196 0 -2.20997e+06 324168 0 -2.21617e+06 330188 0 -2.22248e+06 336257 0 -2.2289e+06 342377 0 -2.23543e+06 348548 0 -2.24207e+06 354773 0 -2.24883e+06 361053 0 -2.2557e+06 367389 0 -2.26269e+06 373783 0 -2.26979e+06 380236 0 -2.27701e+06 386750 0 -2.28434e+06 393326 0 -2.2918e+06 399967 0 -2.29937e+06 406674 0 -2.30707e+06 413448 0 -2.31489e+06 420293 0 -2.32283e+06 427209 0 -2.3309e+06 434198 0 -2.33909e+06 441264 0 -2.34741e+06 448407 0 -2.35587e+06 455630 0 -2.36445e+06 462936 0 -2.37316e+06 470326 0 -2.38201e+06 477803 0 -2.39099e+06 485370 0 -2.40011e+06 493029 0 -2.40938e+06 500783 0 -2.41878e+06 508635 0 -2.42833e+06 516588 0 -2.43802e+06 524644 0 -2.44787e+06 532808 0 -2.45786e+06 541082 0 -2.46801e+06 549470 0 -2.47832e+06 557975 0 -2.48879e+06 566601 0 -2.49942e+06 575353 0 -2.51022e+06 584234 0 -2.5212e+06 593249 0 -2.53234e+06 602402 0 -2.54367e+06 611698 0 -2.55518e+06 621142 0 -2.56688e+06 630740 0 -2.57878e+06 640497 0 -2.59087e+06 650418 0 -2.60317e+06 660511 0 -2.61568e+06 670781 0 -2.62841e+06 681236 0 -2.64137e+06 691884 0 -2.65456e+06 702731 0 -2.66799e+06 713787 0 -2.68167e+06 725060 0 -2.69562e+06 736560 0 -2.70984e+06 748296 0 -2.72434e+06 760281 0 -2.73913e+06 772525 0 -2.75424e+06 785042 0 -2.76967e+06 797843 0 -2.78544e+06 810945 0 -2.80157e+06 824362 0 -2.81807e+06 838112 0 -2.83497e+06 852213 0 -2.85228e+06 866685 0 -2.87004e+06 881550 0 -2.88827e+06 896830 0 -2.90699e+06 912553 0 -2.92625e+06 928746 0 -2.94608e+06 945441 0 -2.96651e+06 962671 0 -2.98759e+06 980475 0 -3.00938e+06 998895 0 -3.03191e+06 1.01798e+06 0 -3.05526e+06 1.03777e+06 0 -3.07949e+06 1.05834e+06 0 -3.10468e+06 1.07975e+06 0 -3.13091e+06 1.10206e+06 0 -3.15828e+06 1.12537e+06 0 -3.1869e+06 1.14977e+06 0 -3.2169e+06 1.17536e+06 0 -3.24842e+06 1.20227e+06 0 -3.28163e+06 1.23065e+06 0 -3.31671e+06 1.26065e+06 0 -3.3539e+06 1.29248e+06 0 -3.39346e+06 1.32636e+06 0 -3.4357e+06 1.36256e+06 0 -3.48098e+06 1.40141e+06 0 -3.52976e+06 1.4433e+06 0 -3.58257e+06 1.48871e+06 0 -3.64009e+06 1.53825e+06 0 -3.70312e+06 1.59266e+06 0 -3.7727e+06 1.65291e+06 0 -3.8502e+06 1.72024e+06 0 -3.9373e+06 1.79637e+06 0 -4.03619e+06 1.88361e+06 0 -4.15059e+06 1.98466e+06 0 -4.28474e+06 2.10581e+06 0 -4.44098e+06 2.25491e+06 0 -4.64129e+06 2.42812e+06 0 -4.90382e+06 2.6941e+06 0 -5.15408e+06 3.09585e+06 0 -5.69347e+06 3.30189e+06 0 -6.57335e+06 5.39928e+06 0 -5.31735e+06 8.35175e+06 0 -2.02297e+06 7.68728e+06 0 -536249 5.55117e+06 0 -2.09678e+06 199927 0 -2.10062e+06 205118 0 -2.10456e+06 210336 0 -2.1086e+06 215581 0 -2.11273e+06 220853 0 -2.11696e+06 226153 0 -2.12129e+06 231482 0 -2.12572e+06 236842 0 -2.13025e+06 242232 0 -2.13487e+06 247654 0 -2.1396e+06 253109 0 -2.14443e+06 258598 0 -2.14935e+06 264121 0 -2.15438e+06 269679 0 -2.15951e+06 275275 0 -2.16474e+06 280907 0 -2.17008e+06 286579 0 -2.17552e+06 292290 0 -2.18106e+06 298042 0 -2.18671e+06 303835 0 -2.19246e+06 309672 0 -2.19832e+06 315553 0 -2.20428e+06 321479 0 -2.21035e+06 327452 0 -2.21653e+06 333473 0 -2.22282e+06 339542 0 -2.22921e+06 345662 0 -2.23572e+06 351834 0 -2.24233e+06 358059 0 -2.24906e+06 364339 0 -2.2559e+06 370675 0 -2.26286e+06 377068 0 -2.26992e+06 383521 0 -2.27711e+06 390034 0 -2.28441e+06 396610 0 -2.29182e+06 403249 0 -2.29936e+06 409955 0 -2.30701e+06 416728 0 -2.31479e+06 423570 0 -2.32268e+06 430484 0 -2.3307e+06 437472 0 -2.33884e+06 444534 0 -2.34711e+06 451675 0 -2.35551e+06 458895 0 -2.36404e+06 466196 0 -2.37269e+06 473583 0 -2.38148e+06 481056 0 -2.3904e+06 488618 0 -2.39946e+06 496272 0 -2.40865e+06 504021 0 -2.41799e+06 511867 0 -2.42746e+06 519813 0 -2.43708e+06 527863 0 -2.44685e+06 536019 0 -2.45677e+06 544286 0 -2.46684e+06 552665 0 -2.47706e+06 561162 0 -2.48744e+06 569779 0 -2.49798e+06 578521 0 -2.50869e+06 587391 0 -2.51957e+06 596395 0 -2.53061e+06 605536 0 -2.54184e+06 614820 0 -2.55324e+06 624251 0 -2.56483e+06 633835 0 -2.57661e+06 643578 0 -2.58859e+06 653484 0 -2.60076e+06 663561 0 -2.61315e+06 673815 0 -2.62575e+06 684253 0 -2.63857e+06 694882 0 -2.65162e+06 705710 0 -2.6649e+06 716746 0 -2.67843e+06 727998 0 -2.69222e+06 739476 0 -2.70627e+06 751191 0 -2.7206e+06 763151 0 -2.73522e+06 775371 0 -2.75013e+06 787861 0 -2.76537e+06 800636 0 -2.78093e+06 813709 0 -2.79684e+06 827097 0 -2.81311e+06 840816 0 -2.82977e+06 854885 0 -2.84684e+06 869323 0 -2.86433e+06 884152 0 -2.88228e+06 899395 0 -2.9007e+06 915079 0 -2.91965e+06 931231 0 -2.93914e+06 947882 0 -2.95921e+06 965067 0 -2.97991e+06 982823 0 -3.00128e+06 1.00119e+06 0 -3.02337e+06 1.02022e+06 0 -3.04624e+06 1.03996e+06 0 -3.06996e+06 1.06046e+06 0 -3.09459e+06 1.0818e+06 0 -3.12021e+06 1.10404e+06 0 -3.14692e+06 1.12727e+06 0 -3.17481e+06 1.15158e+06 0 -3.20401e+06 1.17708e+06 0 -3.23464e+06 1.20389e+06 0 -3.26687e+06 1.23215e+06 0 -3.30086e+06 1.26203e+06 0 -3.33682e+06 1.29371e+06 0 -3.375e+06 1.32742e+06 0 -3.41566e+06 1.36343e+06 0 -3.45915e+06 1.40205e+06 0 -3.50587e+06 1.44368e+06 0 -3.55628e+06 1.48878e+06 0 -3.61098e+06 1.53793e+06 0 -3.67069e+06 1.59187e+06 0 -3.73629e+06 1.65153e+06 0 -3.80894e+06 1.7181e+06 0 -3.89006e+06 1.79323e+06 0 -3.98147e+06 1.87908e+06 0 -4.08605e+06 1.9784e+06 0 -4.20729e+06 2.09652e+06 0 -4.34736e+06 2.24063e+06 0 -4.51938e+06 2.4122e+06 0 -4.73992e+06 2.65403e+06 0 -4.96505e+06 3.01434e+06 0 -5.31725e+06 3.33424e+06 0 -5.92261e+06 4.55195e+06 0 -5.51869e+06 6.85408e+06 0 -3.28356e+06 7.61614e+06 0 -1.27269e+06 6.45465e+06 0 -799474 5.69014e+06 0 -2.10116e+06 208479 0 -2.10511e+06 213697 0 -2.10915e+06 218942 0 -2.1133e+06 224215 0 -2.11753e+06 229516 0 -2.12187e+06 234846 0 -2.1263e+06 240206 0 -2.13083e+06 245598 0 -2.13546e+06 251021 0 -2.14019e+06 256477 0 -2.14501e+06 261967 0 -2.14994e+06 267491 0 -2.15496e+06 273051 0 -2.16009e+06 278647 0 -2.16531e+06 284281 0 -2.17064e+06 289954 0 -2.17607e+06 295666 0 -2.1816e+06 301419 0 -2.18723e+06 307214 0 -2.19297e+06 313052 0 -2.19881e+06 318934 0 -2.20476e+06 324861 0 -2.21081e+06 330834 0 -2.21697e+06 336856 0 -2.22324e+06 342926 0 -2.22961e+06 349047 0 -2.23609e+06 355220 0 -2.24268e+06 361445 0 -2.24938e+06 367725 0 -2.25619e+06 374061 0 -2.26311e+06 380454 0 -2.27015e+06 386907 0 -2.2773e+06 393420 0 -2.28456e+06 399995 0 -2.29194e+06 406634 0 -2.29943e+06 413338 0 -2.30705e+06 420110 0 -2.31478e+06 426951 0 -2.32263e+06 433864 0 -2.3306e+06 440849 0 -2.3387e+06 447910 0 -2.34691e+06 455048 0 -2.35526e+06 462265 0 -2.36373e+06 469564 0 -2.37233e+06 476947 0 -2.38106e+06 484416 0 -2.38992e+06 491974 0 -2.39891e+06 499624 0 -2.40804e+06 507368 0 -2.41731e+06 515209 0 -2.42671e+06 523150 0 -2.43626e+06 531193 0 -2.44595e+06 539343 0 -2.45579e+06 547603 0 -2.46578e+06 555975 0 -2.47592e+06 564463 0 -2.48622e+06 573072 0 -2.49667e+06 581805 0 -2.50729e+06 590666 0 -2.51807e+06 599660 0 -2.52902e+06 608791 0 -2.54014e+06 618063 0 -2.55144e+06 627483 0 -2.56292e+06 637054 0 -2.57459e+06 646783 0 -2.58645e+06 656676 0 -2.59851e+06 666739 0 -2.61077e+06 676977 0 -2.62324e+06 687399 0 -2.63593e+06 698012 0 -2.64884e+06 708822 0 -2.66198e+06 719840 0 -2.67536e+06 731073 0 -2.689e+06 742531 0 -2.70289e+06 754224 0 -2.71705e+06 766163 0 -2.73149e+06 778359 0 -2.74622e+06 790825 0 -2.76126e+06 803575 0 -2.77662e+06 816622 0 -2.79232e+06 829982 0 -2.80838e+06 843672 0 -2.8248e+06 857710 0 -2.84162e+06 872116 0 -2.85886e+06 886912 0 -2.87653e+06 902120 0 -2.89467e+06 917767 0 -2.91331e+06 933880 0 -2.93247e+06 950490 0 -2.95219e+06 967631 0 -2.97252e+06 985341 0 -2.9935e+06 1.00366e+06 0 -3.01516e+06 1.02263e+06 0 -3.03757e+06 1.04232e+06 0 -3.06079e+06 1.06276e+06 0 -3.08489e+06 1.08403e+06 0 -3.10992e+06 1.10621e+06 0 -3.136e+06 1.12936e+06 0 -3.1632e+06 1.15358e+06 0 -3.19163e+06 1.17899e+06 0 -3.22142e+06 1.20569e+06 0 -3.25271e+06 1.23384e+06 0 -3.28567e+06 1.26358e+06 0 -3.32047e+06 1.29511e+06 0 -3.35733e+06 1.32865e+06 0 -3.39652e+06 1.36446e+06 0 -3.43832e+06 1.40285e+06 0 -3.4831e+06 1.44419e+06 0 -3.53129e+06 1.48896e+06 0 -3.58338e+06 1.5377e+06 0 -3.64001e+06 1.59114e+06 0 -3.70196e+06 1.65016e+06 0 -3.77018e+06 1.71591e+06 0 -3.8459e+06 1.78995e+06 0 -3.9306e+06 1.87432e+06 0 -4.02653e+06 1.97169e+06 0 -4.1365e+06 2.08666e+06 0 -4.26247e+06 2.22573e+06 0 -4.41227e+06 2.39322e+06 0 -4.59842e+06 2.61667e+06 0 -4.79743e+06 2.93856e+06 0 -5.05082e+06 3.29548e+06 0 -5.45618e+06 4.10652e+06 0 -5.39647e+06 5.76739e+06 0 -4.01833e+06 7.01587e+06 0 -2.10142e+06 6.68281e+06 0 -1.09154e+06 5.83493e+06 0 -813597 5.37502e+06 0 -2.10572e+06 217154 0 -2.10977e+06 222400 0 -2.11392e+06 227674 0 -2.11817e+06 232976 0 -2.12251e+06 238307 0 -2.12695e+06 243668 0 -2.13148e+06 249061 0 -2.13611e+06 254485 0 -2.14084e+06 259943 0 -2.14567e+06 265434 0 -2.15059e+06 270959 0 -2.15561e+06 276520 0 -2.16073e+06 282118 0 -2.16595e+06 287753 0 -2.17127e+06 293427 0 -2.17669e+06 299141 0 -2.18221e+06 304895 0 -2.18784e+06 310691 0 -2.19356e+06 316531 0 -2.19939e+06 322414 0 -2.20532e+06 328342 0 -2.21135e+06 334317 0 -2.21749e+06 340339 0 -2.22374e+06 346411 0 -2.23009e+06 352532 0 -2.23655e+06 358706 0 -2.24311e+06 364932 0 -2.24979e+06 371213 0 -2.25657e+06 377549 0 -2.26346e+06 383943 0 -2.27046e+06 390395 0 -2.27758e+06 396908 0 -2.28481e+06 403483 0 -2.29215e+06 410122 0 -2.29961e+06 416826 0 -2.30718e+06 423597 0 -2.31487e+06 430438 0 -2.32267e+06 437349 0 -2.3306e+06 444333 0 -2.33865e+06 451392 0 -2.34682e+06 458528 0 -2.35511e+06 465743 0 -2.36353e+06 473039 0 -2.37207e+06 480420 0 -2.38074e+06 487886 0 -2.38954e+06 495441 0 -2.39847e+06 503087 0 -2.40754e+06 510826 0 -2.41674e+06 518663 0 -2.42608e+06 526599 0 -2.43556e+06 534637 0 -2.44518e+06 542782 0 -2.45494e+06 551035 0 -2.46485e+06 559401 0 -2.47491e+06 567882 0 -2.48512e+06 576484 0 -2.49549e+06 585208 0 -2.50602e+06 594061 0 -2.51671e+06 603046 0 -2.52756e+06 612167 0 -2.53859e+06 621430 0 -2.54978e+06 630838 0 -2.56116e+06 640399 0 -2.57272e+06 650116 0 -2.58447e+06 659996 0 -2.59641e+06 670045 0 -2.60855e+06 680270 0 -2.62089e+06 690677 0 -2.63345e+06 701275 0 -2.64623e+06 712069 0 -2.65923e+06 723070 0 -2.67246e+06 734285 0 -2.68594e+06 745725 0 -2.69968e+06 757398 0 -2.71367e+06 769317 0 -2.72794e+06 781492 0 -2.7425e+06 793936 0 -2.75735e+06 806662 0 -2.77252e+06 819684 0 -2.78801e+06 833019 0 -2.80385e+06 846682 0 -2.82005e+06 860692 0 -2.83663e+06 875069 0 -2.85362e+06 889833 0 -2.87103e+06 905008 0 -2.88889e+06 920620 0 -2.90723e+06 936697 0 -2.92607e+06 953268 0 -2.94546e+06 970368 0 -2.96543e+06 988034 0 -2.98602e+06 1.00631e+06 0 -3.00727e+06 1.02523e+06 0 -3.02924e+06 1.04486e+06 0 -3.05199e+06 1.06524e+06 0 -3.07556e+06 1.08645e+06 0 -3.10004e+06 1.10856e+06 0 -3.1255e+06 1.13163e+06 0 -3.15204e+06 1.15578e+06 0 -3.17974e+06 1.18109e+06 0 -3.20873e+06 1.20769e+06 0 -3.23913e+06 1.23572e+06 0 -3.2711e+06 1.26533e+06 0 -3.30479e+06 1.2967e+06 0 -3.34042e+06 1.33007e+06 0 -3.37821e+06 1.36567e+06 0 -3.41843e+06 1.40382e+06 0 -3.4614e+06 1.44488e+06 0 -3.5075e+06 1.4893e+06 0 -3.55716e+06 1.53762e+06 0 -3.61096e+06 1.59053e+06 0 -3.66953e+06 1.64888e+06 0 -3.73371e+06 1.71377e+06 0 -3.80452e+06 1.78667e+06 0 -3.88319e+06 1.86951e+06 0 -3.97146e+06 1.96482e+06 0 -4.07154e+06 2.07664e+06 0 -4.18517e+06 2.21078e+06 0 -4.31703e+06 2.37281e+06 0 -4.47562e+06 2.58162e+06 0 -4.64906e+06 2.8711e+06 0 -4.84564e+06 3.22587e+06 0 -5.12059e+06 3.83777e+06 0 -5.17633e+06 5.03319e+06 0 -4.36536e+06 6.29395e+06 0 -2.81057e+06 6.56599e+06 0 -1.55757e+06 5.98342e+06 0 -1.02375e+06 5.40822e+06 0 -762581 4.97995e+06 0 -2.11046e+06 225957 0 -2.11462e+06 231231 0 -2.11887e+06 236534 0 -2.12322e+06 241867 0 -2.12766e+06 247229 0 -2.1322e+06 252623 0 -2.13684e+06 258049 0 -2.14157e+06 263507 0 -2.14639e+06 269000 0 -2.15131e+06 274527 0 -2.15633e+06 280089 0 -2.16145e+06 285689 0 -2.16666e+06 291326 0 -2.17198e+06 297001 0 -2.17739e+06 302716 0 -2.1829e+06 308472 0 -2.18851e+06 314270 0 -2.19423e+06 320110 0 -2.20004e+06 325995 0 -2.20596e+06 331925 0 -2.21198e+06 337901 0 -2.2181e+06 343925 0 -2.22432e+06 349998 0 -2.23065e+06 356120 0 -2.23709e+06 362295 0 -2.24363e+06 368522 0 -2.25028e+06 374804 0 -2.25703e+06 381141 0 -2.2639e+06 387535 0 -2.27087e+06 393988 0 -2.27795e+06 400502 0 -2.28514e+06 407077 0 -2.29245e+06 413716 0 -2.29987e+06 420420 0 -2.3074e+06 427191 0 -2.31505e+06 434031 0 -2.32282e+06 440941 0 -2.3307e+06 447925 0 -2.3387e+06 454982 0 -2.34682e+06 462117 0 -2.35506e+06 469331 0 -2.36343e+06 476625 0 -2.37192e+06 484003 0 -2.38053e+06 491467 0 -2.38928e+06 499019 0 -2.39815e+06 506662 0 -2.40715e+06 514399 0 -2.41629e+06 522231 0 -2.42556e+06 530163 0 -2.43497e+06 538197 0 -2.44452e+06 546337 0 -2.45421e+06 554585 0 -2.46404e+06 562945 0 -2.47402e+06 571420 0 -2.48415e+06 580015 0 -2.49444e+06 588733 0 -2.50488e+06 597578 0 -2.51547e+06 606555 0 -2.52624e+06 615668 0 -2.53716e+06 624921 0 -2.54826e+06 634320 0 -2.55954e+06 643871 0 -2.57099e+06 653577 0 -2.58263e+06 663446 0 -2.59445e+06 673484 0 -2.60647e+06 683696 0 -2.6187e+06 694090 0 -2.63113e+06 704673 0 -2.64377e+06 715453 0 -2.65664e+06 726439 0 -2.66973e+06 737638 0 -2.68306e+06 749060 0 -2.69664e+06 760716 0 -2.71048e+06 772616 0 -2.72458e+06 784772 0 -2.73896e+06 797196 0 -2.75364e+06 809900 0 -2.76861e+06 822900 0 -2.78391e+06 836211 0 -2.79954e+06 849850 0 -2.81552e+06 863834 0 -2.83187e+06 878183 0 -2.84861e+06 892918 0 -2.86576e+06 908063 0 -2.88335e+06 923643 0 -2.9014e+06 939685 0 -2.91994e+06 956220 0 -2.939e+06 973281 0 -2.95862e+06 990905 0 -2.97884e+06 1.00913e+06 0 -2.9997e+06 1.02801e+06 0 -3.02124e+06 1.04759e+06 0 -3.04352e+06 1.06792e+06 0 -3.0666e+06 1.08906e+06 0 -3.09054e+06 1.1111e+06 0 -3.11542e+06 1.1341e+06 0 -3.14132e+06 1.15817e+06 0 -3.16832e+06 1.18339e+06 0 -3.19654e+06 1.20989e+06 0 -3.22609e+06 1.2378e+06 0 -3.25712e+06 1.26728e+06 0 -3.28977e+06 1.2985e+06 0 -3.32423e+06 1.33169e+06 0 -3.3607e+06 1.36709e+06 0 -3.39942e+06 1.40499e+06 0 -3.44069e+06 1.44576e+06 0 -3.48483e+06 1.48983e+06 0 -3.53224e+06 1.53772e+06 0 -3.58339e+06 1.59008e+06 0 -3.63886e+06 1.64775e+06 0 -3.69933e+06 1.71177e+06 0 -3.76567e+06 1.78351e+06 0 -3.83888e+06 1.86479e+06 0 -3.92034e+06 1.958e+06 0 -4.01173e+06 2.06673e+06 0 -4.11451e+06 2.19612e+06 0 -4.2315e+06 2.35212e+06 0 -4.36802e+06 2.54859e+06 0 -4.51807e+06 2.81161e+06 0 -4.67789e+06 3.14724e+06 0 -4.8712e+06 3.64979e+06 0 -4.95051e+06 4.5388e+06 0 -4.47918e+06 5.64287e+06 0 -3.31559e+06 6.23268e+06 0 -2.06463e+06 6.01047e+06 0 -1.31307e+06 5.48975e+06 0 -957526 5.0484e+06 0 -722587 4.65284e+06 0 -2.11538e+06 234889 0 -2.11964e+06 240193 0 -2.124e+06 245527 0 -2.12845e+06 250890 0 -2.13299e+06 256286 0 -2.13763e+06 261713 0 -2.14236e+06 267173 0 -2.14719e+06 272667 0 -2.15211e+06 278195 0 -2.15713e+06 283760 0 -2.16224e+06 289361 0 -2.16745e+06 294999 0 -2.17276e+06 300677 0 -2.17817e+06 306394 0 -2.18367e+06 312151 0 -2.18927e+06 317951 0 -2.19497e+06 323793 0 -2.20077e+06 329679 0 -2.20668e+06 335611 0 -2.21268e+06 341589 0 -2.21878e+06 347614 0 -2.22499e+06 353688 0 -2.2313e+06 359813 0 -2.23771e+06 365989 0 -2.24423e+06 372217 0 -2.25085e+06 378500 0 -2.25758e+06 384838 0 -2.26442e+06 391234 0 -2.27136e+06 397688 0 -2.27841e+06 404202 0 -2.28558e+06 410778 0 -2.29285e+06 417417 0 -2.30023e+06 424122 0 -2.30772e+06 430893 0 -2.31533e+06 437733 0 -2.32306e+06 444643 0 -2.3309e+06 451626 0 -2.33885e+06 458684 0 -2.34693e+06 465817 0 -2.35512e+06 473030 0 -2.36343e+06 480323 0 -2.37187e+06 487700 0 -2.38043e+06 495162 0 -2.38912e+06 502712 0 -2.39793e+06 510352 0 -2.40687e+06 518086 0 -2.41595e+06 525916 0 -2.42515e+06 533844 0 -2.4345e+06 541875 0 -2.44397e+06 550010 0 -2.45359e+06 558254 0 -2.46335e+06 566609 0 -2.47326e+06 575079 0 -2.48331e+06 583668 0 -2.49351e+06 592380 0 -2.50386e+06 601219 0 -2.51437e+06 610189 0 -2.52504e+06 619294 0 -2.53588e+06 628540 0 -2.54688e+06 637931 0 -2.55805e+06 647472 0 -2.5694e+06 657170 0 -2.58093e+06 667029 0 -2.59265e+06 677055 0 -2.60455e+06 687256 0 -2.61666e+06 697639 0 -2.62896e+06 708210 0 -2.64148e+06 718977 0 -2.65421e+06 729948 0 -2.66716e+06 741133 0 -2.68035e+06 752541 0 -2.69378e+06 764181 0 -2.70746e+06 776064 0 -2.7214e+06 788202 0 -2.73561e+06 800607 0 -2.75011e+06 813292 0 -2.7649e+06 826272 0 -2.78e+06 839562 0 -2.79542e+06 853177 0 -2.81119e+06 867138 0 -2.82732e+06 881461 0 -2.84382e+06 896170 0 -2.86072e+06 911287 0 -2.87804e+06 926837 0 -2.89581e+06 942848 0 -2.91406e+06 959349 0 -2.93281e+06 976374 0 -2.95209e+06 993960 0 -2.97195e+06 1.01215e+06 0 -2.99243e+06 1.03098e+06 0 -3.01356e+06 1.0505e+06 0 -3.0354e+06 1.07078e+06 0 -3.058e+06 1.09187e+06 0 -3.08142e+06 1.11385e+06 0 -3.10573e+06 1.13678e+06 0 -3.13101e+06 1.16076e+06 0 -3.15735e+06 1.1859e+06 0 -3.18483e+06 1.2123e+06 0 -3.21358e+06 1.24009e+06 0 -3.24371e+06 1.26944e+06 0 -3.27536e+06 1.30052e+06 0 -3.30871e+06 1.33353e+06 0 -3.34393e+06 1.36873e+06 0 -3.38124e+06 1.40639e+06 0 -3.42091e+06 1.44687e+06 0 -3.46321e+06 1.49058e+06 0 -3.50851e+06 1.53803e+06 0 -3.5572e+06 1.58985e+06 0 -3.60979e+06 1.64683e+06 0 -3.66686e+06 1.70997e+06 0 -3.72911e+06 1.78056e+06 0 -3.79738e+06 1.86028e+06 0 -3.87273e+06 1.9514e+06 0 -3.95645e+06 2.05711e+06 0 -4.04967e+06 2.18201e+06 0 -4.1541e+06 2.33185e+06 0 -4.27277e+06 2.5175e+06 0 -4.40233e+06 2.7589e+06 0 -4.53561e+06 3.06999e+06 0 -4.67763e+06 3.50298e+06 0 -4.74924e+06 4.19482e+06 0 -4.47003e+06 5.11452e+06 0 -3.63122e+06 5.81633e+06 0 -2.5184e+06 5.89755e+06 0 -1.65267e+06 5.53379e+06 0 -1.17409e+06 5.11062e+06 0 -894173 4.73847e+06 0 -699682 4.39968e+06 0 -2.12048e+06 243953 0 -2.12484e+06 249288 0 -2.1293e+06 254654 0 -2.13385e+06 260050 0 -2.13849e+06 265479 0 -2.14323e+06 270941 0 -2.14806e+06 276437 0 -2.15298e+06 281967 0 -2.158e+06 287533 0 -2.16311e+06 293136 0 -2.16832e+06 298777 0 -2.17362e+06 304456 0 -2.17902e+06 310175 0 -2.18451e+06 315934 0 -2.19011e+06 321736 0 -2.1958e+06 327580 0 -2.20159e+06 333468 0 -2.20748e+06 339402 0 -2.21346e+06 345382 0 -2.21955e+06 351409 0 -2.22574e+06 357485 0 -2.23203e+06 363611 0 -2.23842e+06 369789 0 -2.24492e+06 376019 0 -2.25152e+06 382304 0 -2.25822e+06 388643 0 -2.26503e+06 395040 0 -2.27195e+06 401496 0 -2.27897e+06 408011 0 -2.2861e+06 414588 0 -2.29334e+06 421228 0 -2.30068e+06 427934 0 -2.30814e+06 434705 0 -2.31571e+06 441546 0 -2.3234e+06 448457 0 -2.33119e+06 455440 0 -2.3391e+06 462497 0 -2.34713e+06 469631 0 -2.35528e+06 476843 0 -2.36354e+06 484135 0 -2.37193e+06 491511 0 -2.38044e+06 498972 0 -2.38907e+06 506520 0 -2.39783e+06 514159 0 -2.40671e+06 521891 0 -2.41572e+06 529718 0 -2.42486e+06 537644 0 -2.43414e+06 545672 0 -2.44355e+06 553804 0 -2.4531e+06 562044 0 -2.46278e+06 570396 0 -2.47261e+06 578862 0 -2.48259e+06 587446 0 -2.49271e+06 596153 0 -2.50298e+06 604987 0 -2.5134e+06 613951 0 -2.52398e+06 623050 0 -2.53473e+06 632289 0 -2.54563e+06 641672 0 -2.55671e+06 651206 0 -2.56795e+06 660895 0 -2.57938e+06 670745 0 -2.59098e+06 680763 0 -2.60278e+06 690954 0 -2.61476e+06 701326 0 -2.62695e+06 711886 0 -2.63934e+06 722642 0 -2.65194e+06 733602 0 -2.66476e+06 744774 0 -2.67781e+06 756168 0 -2.69109e+06 767794 0 -2.70462e+06 779662 0 -2.7184e+06 791784 0 -2.73244e+06 804173 0 -2.74676e+06 816841 0 -2.76137e+06 829802 0 -2.77629e+06 843072 0 -2.79151e+06 856668 0 -2.80707e+06 870607 0 -2.82298e+06 884908 0 -2.83925e+06 899593 0 -2.85591e+06 914684 0 -2.87297e+06 930207 0 -2.89047e+06 946188 0 -2.90843e+06 962659 0 -2.92687e+06 979651 0 -2.94583e+06 997201 0 -2.96534e+06 1.01535e+06 0 -2.98545e+06 1.03414e+06 0 -3.00618e+06 1.05362e+06 0 -3.02759e+06 1.07385e+06 0 -3.04973e+06 1.09488e+06 0 -3.07265e+06 1.1168e+06 0 -3.09642e+06 1.13966e+06 0 -3.12112e+06 1.16357e+06 0 -3.14681e+06 1.18862e+06 0 -3.17359e+06 1.21492e+06 0 -3.20156e+06 1.24261e+06 0 -3.23083e+06 1.27184e+06 0 -3.26154e+06 1.30277e+06 0 -3.29382e+06 1.33561e+06 0 -3.32786e+06 1.3706e+06 0 -3.36384e+06 1.40802e+06 0 -3.40199e+06 1.44821e+06 0 -3.44257e+06 1.49157e+06 0 -3.48589e+06 1.53858e+06 0 -3.5323e+06 1.58987e+06 0 -3.58222e+06 1.64617e+06 0 -3.63614e+06 1.70843e+06 0 -3.69464e+06 1.77787e+06 0 -3.75842e+06 1.85608e+06 0 -3.82827e+06 1.94513e+06 0 -3.90517e+06 2.04794e+06 0 -3.98995e+06 2.16859e+06 0 -4.08359e+06 2.31243e+06 0 -4.18761e+06 2.48837e+06 0 -4.29965e+06 2.71184e+06 0 -4.41225e+06 2.99833e+06 0 -4.52092e+06 3.38096e+06 0 -4.57752e+06 3.94352e+06 0 -4.40381e+06 4.70189e+06 0 -3.80485e+06 5.40191e+06 0 -2.87666e+06 5.68314e+06 0 -1.99831e+06 5.50905e+06 0 -1.41681e+06 5.15052e+06 0 -1.07283e+06 4.79729e+06 0 -843221 4.4764e+06 0 -684447 4.19095e+06 0 -2.12576e+06 253154 0 