<?xml version="1.0"?> 
<VTKFile type="StructuredGrid" version="0.1"> 
<StructuredGrid WholeExtent="0 127 0 127 0 0"> 
<Piece Extent="0 127 0 127 0 0"> 
<PointData>
<DataArray type="Float32" Name="|E|" format="ascii" NumberOfComponents="3"> 
-2.59723e+06 3.72201e+06 0 -2.60465e+06 3.7376e+06 0 -2.61202e+06 3.75348e+06 0 -2.61935e+06 3.76964e+06 0 -2.62663e+06 3.78607e+06 0 -2.63388e+06 3.80276e+06 0 -2.64109e+06 3.81971e+06 0 -2.64825e+06 3.83692e+06 0 -2.65536e+06 3.85438e+06 0 -2.66243e+06 3.8721e+06 0 -2.66945e+06 3.89007e+06 0 -2.67641e+06 3.90829e+06 0 -2.68332e+06 3.92677e+06 0 -2.69016e+06 3.94551e+06 0 -2.69695e+06 3.9645e+06 0 -2.70366e+06 3.98376e+06 0 -2.71031e+06 4.00328e+06 0 -2.71687e+06 4.02307e+06 0 -2.72336e+06 4.04314e+06 0 -2.72975e+06 4.06348e+06 0 -2.73605e+06 4.0841e+06 0 -2.74226e+06 4.105e+06 0 -2.74836e+06 4.1262e+06 0 -2.75435e+06 4.14769e+06 0 -2.76022e+06 4.16948e+06 0 -2.76597e+06 4.19157e+06 0 -2.77159e+06 4.21397e+06 0 -2.77707e+06 4.23668e+06 0 -2.78241e+06 4.25971e+06 0 -2.78759e+06 4.28306e+06 0 -2.79261e+06 4.30674e+06 0 -2.79747e+06 4.33074e+06 0 -2.80215e+06 4.35508e+06 0 -2.80664e+06 4.37975e+06 0 -2.81093e+06 4.40477e+06 0 -2.81502e+06 4.43013e+06 0 -2.8189e+06 4.45584e+06 0 -2.82255e+06 4.4819e+06 0 -2.82597e+06 4.50832e+06 0 -2.82914e+06 4.5351e+06 0 -2.83206e+06 4.56224e+06 0 -2.83471e+06 4.58974e+06 0 -2.83708e+06 4.61762e+06 0 -2.83915e+06 4.64587e+06 0 -2.84092e+06 4.67449e+06 0 -2.84237e+06 4.7035e+06 0 -2.84349e+06 4.73288e+06 0 -2.84426e+06 4.76264e+06 0 -2.84468e+06 4.79278e+06 0 -2.84471e+06 4.82332e+06 0 -2.84436e+06 4.85423e+06 0 -2.8436e+06 4.88553e+06 0 -2.84242e+06 4.91723e+06 0 -2.8408e+06 4.9493e+06 0 -2.83872e+06 4.98177e+06 0 -2.83617e+06 5.01462e+06 0 -2.83313e+06 5.04785e+06 0 -2.82958e+06 5.08147e+06 0 -2.82549e+06 5.11547e+06 0 -2.82086e+06 5.14985e+06 0 -2.81565e+06 5.18461e+06 0 -2.80986e+06 5.21973e+06 0 -2.80346e+06 5.25523e+06 0 -2.79642e+06 5.29108e+06 0 -2.78873e+06 5.32729e+06 0 -2.78035e+06 5.36384e+06 0 -2.77128e+06 5.40074e+06 0 -2.76149e+06 5.43797e+06 0 -2.75094e+06 5.47552e+06 0 -2.73962e+06 5.51339e+06 0 -2.72751e+06 5.55155e+06 0 -2.71457e+06 5.59001e+06 0 -2.70078e+06 5.62874e+06 0 -2.68612e+06 5.66773e+06 0 -2.67056e+06 5.70696e+06 0 -2.65407e+06 5.74642e+06 0 -2.63662e+06 5.78609e+06 0 -2.61819e+06 5.82595e+06 0 -2.59876e+06 5.86598e+06 0 -2.57828e+06 5.90615e+06 0 -2.55674e+06 5.94644e+06 0 -2.5341e+06 5.98682e+06 0 -2.51035e+06 6.02727e+06 0 -2.48544e+06 6.06776e+06 0 -2.45936e+06 6.10826e+06 0 -2.43207e+06 6.14873e+06 0 -2.40356e+06 6.18913e+06 0 -2.37378e+06 6.22944e+06 0 -2.34271e+06 6.26961e+06 0 -2.31034e+06 6.3096e+06 0 -2.27662e+06 6.34936e+06 0 -2.24155e+06 6.38886e+06 0 -2.20508e+06 6.42805e+06 0 -2.1672e+06 6.46686e+06 0 -2.12789e+06 6.50526e+06 0 -2.08713e+06 6.54319e+06 0 -2.04489e+06 6.58059e+06 0 -2.00115e+06 6.6174e+06 0 -1.95591e+06 6.65355e+06 0 -1.90913e+06 6.68899e+06 0 -1.86082e+06 6.72365e+06 0 -1.81095e+06 6.75745e+06 0 -1.75951e+06 6.79033e+06 0 -1.70651e+06 6.82222e+06 0 -1.65192e+06 6.85302e+06 0 -1.59575e+06 6.88268e+06 0 -1.538e+06 6.91109e+06 0 -1.47866e+06 6.93819e+06 0 -1.41775e+06 6.96388e+06 0 -1.35526e+06 6.98809e+06 0 -1.29121e+06 7.01072e+06 0 -1.22561e+06 7.03168e+06 0 -1.15848e+06 7.05089e+06 0 -1.08982e+06 7.06826e+06 0 -1.01966e+06 7.08371e+06 0 -948029 7.09716e+06 0 -874936 7.10854e+06 0 -800406 7.11781e+06 0 -724458 7.12494e+06 0 -647105 7.12995e+06 0 -568352 7.13293e+06 0 -488192 7.13412e+06 0 -406597 7.13399e+06 0 -323538 7.13356e+06 0 -239039 7.13487e+06 0 -153318 7.14247e+06 0 -68326 7.16681e+06 0 8266.17 7.23544e+06 0 -2.52336e+06 3.6091e+06 0 -2.53067e+06 3.62458e+06 0 -2.53798e+06 3.6402e+06 0 -2.54528e+06 3.65599e+06 0 -2.55257e+06 3.67196e+06 0 -2.55984e+06 3.68812e+06 0 -2.56708e+06 3.70447e+06 0 -2.57431e+06 3.72103e+06 0 -2.5815e+06 3.73781e+06 0 -2.58866e+06 3.7548e+06 0 -2.59578e+06 3.77203e+06 0 -2.60286e+06 3.7895e+06 0 -2.6099e+06 3.8072e+06 0 -2.61688e+06 3.82515e+06 0 -2.62382e+06 3.84335e+06 0 -2.63069e+06 3.8618e+06 0 -2.63751e+06 3.88052e+06 0 -2.64426e+06 3.89949e+06 0 -2.65093e+06 3.91873e+06 0 -2.65753e+06 3.93824e+06 0 -2.66405e+06 3.95803e+06 0 -2.67048e+06 3.9781e+06 0 -2.67682e+06 3.99845e+06 0 -2.68306e+06 4.01908e+06 0 -2.68919e+06 4.04001e+06 0 -2.69522e+06 4.06123e+06 0 -2.70112e+06 4.08275e+06 0 -2.7069e+06 4.10457e+06 0 -2.71256e+06 4.1267e+06 0 -2.71807e+06 4.14915e+06 0 -2.72343e+06 4.17191e+06 0 -2.72865e+06 4.19499e+06 0 -2.7337e+06 4.21839e+06 0 -2.73858e+06 4.24213e+06 0 -2.74328e+06 4.26619e+06 0 -2.74779e+06 4.2906e+06 0 -2.75211e+06 4.31534e+06 0 -2.75622e+06 4.34043e+06 0 -2.76011e+06 4.36587e+06 0 -2.76377e+06 4.39166e+06 0 -2.76719e+06 4.4178e+06 0 -2.77037e+06 4.4443e+06 0 -2.77328e+06 4.47117e+06 0 -2.77592e+06 4.4984e+06 0 -2.77827e+06 4.526e+06 0 -2.78033e+06 4.55396e+06 0 -2.78207e+06 4.5823e+06 0 -2.78349e+06 4.61102e+06 0 -2.78457e+06 4.64011e+06 0 -2.7853e+06 4.66958e+06 0 -2.78566e+06 4.69943e+06 0 -2.78563e+06 4.72966e+06 0 -2.78521e+06 4.76027e+06 0 -2.78437e+06 4.79126e+06 0 -2.78309e+06 4.82264e+06 0 -2.78137e+06 4.85439e+06 0 -2.77918e+06 4.88653e+06 0 -2.7765e+06 4.91904e+06 0 -2.77332e+06 4.95193e+06 0 -2.76962e+06 4.98519e+06 0 -2.76538e+06 5.01882e+06 0 -2.76057e+06 5.05282e+06 0 -2.75517e+06 5.08719e+06 0 -2.74917e+06 5.12191e+06 0 -2.74255e+06 5.15698e+06 0 -2.73528e+06 5.19239e+06 0 -2.72733e+06 5.22815e+06 0 -2.71869e+06 5.26423e+06 0 -2.70934e+06 5.30063e+06 0 -2.69924e+06 5.33734e+06 0 -2.68837e+06 5.37435e+06 0 -2.67672e+06 5.41165e+06 0 -2.66425e+06 5.44921e+06 0 -2.65094e+06 5.48704e+06 0 -2.63676e+06 5.52511e+06 0 -2.62169e+06 5.5634e+06 0 -2.60571e+06 5.6019e+06 0 -2.58877e+06 5.64059e+06 0 -2.57087e+06 5.67945e+06 0 -2.55196e+06 5.71844e+06 0 -2.53204e+06 5.75756e+06 0 -2.51105e+06 5.79677e+06 0 -2.48899e+06 5.83604e+06 0 -2.46583e+06 5.87535e+06 0 -2.44153e+06 5.91466e+06 0 -2.41607e+06 5.95395e+06 0 -2.38943e+06 5.99317e+06 0 -2.36157e+06 6.03229e+06 0 -2.33248e+06 6.07127e+06 0 -2.30213e+06 6.11007e+06 0 -2.2705e+06 6.14865e+06 0 -2.23756e+06 6.18695e+06 0 -2.20329e+06 6.22494e+06 0 -2.16767e+06 6.26257e+06 0 -2.13068e+06 6.29977e+06 0 -2.09229e+06 6.3365e+06 0 -2.05251e+06 6.37269e+06 0 -2.0113e+06 6.4083e+06 0 -1.96865e+06 6.44325e+06 0 -1.92455e+06 6.47748e+06 0 -1.879e+06 6.51092e+06 0 -1.83197e+06 6.54351e+06 0 -1.78347e+06 6.57518e+06 0 -1.7335e+06 6.60584e+06 0 -1.68204e+06 6.63542e+06 0 -1.6291e+06 6.66384e+06 0 -1.5747e+06 6.69102e+06 0 -1.51882e+06 6.71688e+06 0 -1.46149e+06 6.74132e+06 0 -1.40271e+06 6.76426e+06 0 -1.3425e+06 6.78561e+06 0 -1.28089e+06 6.80527e+06 0 -1.21788e+06 6.82316e+06 0 -1.1535e+06 6.83916e+06 0 -1.08777e+06 6.85318e+06 0 -1.02072e+06 6.86513e+06 0 -952361 6.87489e+06 0 -882710 6.88237e+06 0 -811769 6.88745e+06 0 -739519 6.89002e+06 0 -665909 6.88994e+06 0 -590834 6.88704e+06 0 -514092 6.88108e+06 0 -435311 6.87162e+06 0 -353840 6.8578e+06 0 -268389 6.83766e+06 0 -176730 6.80665e+06 0 -72956.4 6.75269e+06 0 -2.45148e+06 3.50988e+06 0 -2.45887e+06 3.52446e+06 0 -2.46625e+06 3.53927e+06 0 -2.4736e+06 3.55432e+06 0 -2.48094e+06 3.5696e+06 0 -2.48826e+06 3.5851e+06 0 -2.49555e+06 3.60081e+06 0 -2.50283e+06 3.61674e+06 0 -2.51007e+06 3.63289e+06 0 -2.51729e+06 3.64925e+06 0 -2.52448e+06 3.66584e+06 0 -2.53163e+06 3.68265e+06 0 -2.53874e+06 3.69969e+06 0 -2.54581e+06 3.71697e+06 0 -2.55284e+06 3.73448e+06 0 -2.55982e+06 3.75223e+06 0 -2.56674e+06 3.77023e+06 0 -2.57361e+06 3.78848e+06 0 -2.58042e+06 3.80698e+06 0 -2.58716e+06 3.82575e+06 0 -2.59383e+06 3.84478e+06 0 -2.60042e+06 3.86408e+06 0 -2.60693e+06 3.88366e+06 0 -2.61336e+06 3.90351e+06 0 -2.61969e+06 3.92365e+06 0 -2.62592e+06 3.94407e+06 0 -2.63205e+06 3.96479e+06 0 -2.63806e+06 3.9858e+06 0 -2.64396e+06 4.00711e+06 0 -2.64973e+06 4.02872e+06 0 -2.65537e+06 4.05064e+06 0 -2.66087e+06 4.07288e+06 0 -2.66622e+06 4.09543e+06 0 -2.67141e+06 4.1183e+06 0 -2.67644e+06 4.14149e+06 0 -2.6813e+06 4.16502e+06 0 -2.68597e+06 4.18887e+06 0 -2.69046e+06 4.21307e+06 0 -2.69474e+06 4.2376e+06 0 -2.69881e+06 4.26248e+06 0 -2.70266e+06 4.2877e+06 0 -2.70627e+06 4.31327e+06 0 -2.70964e+06 4.3392e+06 0 -2.71276e+06 4.36549e+06 0 -2.71561e+06 4.39214e+06 0 -2.71818e+06 4.41915e+06 0 -2.72046e+06 4.44652e+06 0 -2.72243e+06 4.47426e+06 0 -2.72409e+06 4.50238e+06 0 -2.72541e+06 4.53086e+06 0 -2.72638e+06 4.55972e+06 0 -2.72699e+06 4.58895e+06 0 -2.72722e+06 4.61856e+06 0 -2.72707e+06 4.64854e+06 0 -2.7265e+06 4.6789e+06 0 -2.7255e+06 4.70963e+06 0 -2.72406e+06 4.74074e+06 0 -2.72216e+06 4.77222e+06 0 -2.71978e+06 4.80407e+06 0 -2.7169e+06 4.83629e+06 0 -2.7135e+06 4.86888e+06 0 -2.70957e+06 4.90183e+06 0 -2.70508e+06 4.93514e+06 0 -2.70001e+06 4.9688e+06 0 -2.69434e+06 5.00281e+06 0 -2.68805e+06 5.03717e+06 0 -2.68112e+06 5.07185e+06 0 -2.67352e+06 5.10687e+06 0 -2.66523e+06 5.1422e+06 0 -2.65624e+06 5.17784e+06 0 -2.64651e+06 5.21377e+06 0 -2.63602e+06 5.24999e+06 0 -2.62475e+06 5.28648e+06 0 -2.61266e+06 5.32323e+06 0 -2.59975e+06 5.36022e+06 0 -2.58598e+06 5.39743e+06 0 -2.57132e+06 5.43485e+06 0 -2.55576e+06 5.47246e+06 0 -2.53925e+06 5.51023e+06 0 -2.52179e+06 5.54815e+06 0 -2.50334e+06 5.58619e+06 0 -2.48388e+06 5.62432e+06 0 -2.46338e+06 5.66252e+06 0 -2.44181e+06 5.70075e+06 0 -2.41915e+06 5.73899e+06 0 -2.39538e+06 5.77721e+06 0 -2.37047e+06 5.81536e+06 0 -2.3444e+06 5.85342e+06 0 -2.31713e+06 5.89134e+06 0 -2.28866e+06 5.92908e+06 0 -2.25895e+06 5.9666e+06 0 -2.22799e+06 6.00386e+06 0 -2.19575e+06 6.04081e+06 0 -2.16222e+06 6.07739e+06 0 -2.12738e+06 6.11355e+06 0 -2.09121e+06 6.14925e+06 0 -2.0537e+06 6.18442e+06 0 -2.01483e+06 6.21901e+06 0 -1.9746e+06 6.25295e+06 0 -1.93299e+06 6.28618e+06 0 -1.88999e+06 6.31863e+06 0 -1.84561e+06 6.35024e+06 0 -1.79984e+06 6.38093e+06 0 -1.75268e+06 6.41063e+06 0 -1.70414e+06 6.43926e+06 0 -1.65421e+06 6.46674e+06 0 -1.60292e+06 6.493e+06 0 -1.55027e+06 6.51794e+06 0 -1.49628e+06 6.54149e+06 0 -1.44097e+06 6.56355e+06 0 -1.38437e+06 6.58403e+06 0 -1.3265e+06 6.60284e+06 0 -1.26739e+06 6.61988e+06 0 -1.20707e+06 6.63505e+06 0 -1.1456e+06 6.64824e+06 0 -1.083e+06 6.65935e+06 0 -1.01932e+06 6.66826e+06 0 -954610 6.67485e+06 0 -888913 6.67898e+06 0 -822280 6.68051e+06 0 -754760 6.67925e+06 0 -686410 6.67501e+06 0 -617295 6.66755e+06 0 -547519 6.65656e+06 0 -477262 6.64173e+06 0 -406932 6.62286e+06 0 -337358 6.60031e+06 0 -270909 6.57676e+06 0 -2.38292e+06 3.41936e+06 0 -2.39023e+06 3.43359e+06 0 -2.39754e+06 3.44797e+06 0 -2.40485e+06 3.46252e+06 0 -2.41216e+06 3.47724e+06 0 -2.41947e+06 3.49216e+06 0 -2.42676e+06 3.50729e+06 0 -2.43404e+06 3.52262e+06 0 -2.4413e+06 3.53816e+06 0 -2.44854e+06 3.55392e+06 0 -2.45575e+06 3.56989e+06 0 -2.46294e+06 3.58609e+06 0 -2.4701e+06 3.60252e+06 0 -2.47722e+06 3.61918e+06 0 -2.48431e+06 3.63607e+06 0 -2.49135e+06 3.65319e+06 0 -2.49835e+06 3.67055e+06 0 -2.50529e+06 3.68816e+06 0 -2.51219e+06 3.70601e+06 0 -2.51902e+06 3.72411e+06 0 -2.52579e+06 3.74247e+06 0 -2.5325e+06 3.76109e+06 0 -2.53913e+06 3.77997e+06 0 -2.54569e+06 3.79912e+06 0 -2.55216e+06 3.81854e+06 0 -2.55855e+06 3.83824e+06 0 -2.56484e+06 3.85823e+06 0 -2.57103e+06 3.87849e+06 0 -2.57711e+06 3.89905e+06 0 -2.58308e+06 3.91991e+06 0 -2.58893e+06 3.94106e+06 0 -2.59465e+06 3.96252e+06 0 -2.60024e+06 3.98429e+06 0 -2.60569e+06 4.00637e+06 0 -2.61098e+06 4.02876e+06 0 -2.61611e+06 4.05148e+06 0 -2.62108e+06 4.07451e+06 0 -2.62587e+06 4.09788e+06 0 -2.63047e+06 4.12158e+06 0 -2.63488e+06 4.14562e+06 0 -2.63908e+06 4.16999e+06 0 -2.64306e+06 4.19471e+06 0 -2.64682e+06 4.21978e+06 0 -2.65034e+06 4.24519e+06 0 -2.65361e+06 4.27096e+06 0 -2.65662e+06 4.29708e+06 0 -2.65935e+06 4.32356e+06 0 -2.6618e+06 4.3504e+06 0 -2.66394e+06 4.3776e+06 0 -2.66578e+06 4.40517e+06 0 -2.66728e+06 4.43311e+06 0 -2.66844e+06 4.46141e+06 0 -2.66925e+06 4.49008e+06 0 -2.66968e+06 4.51913e+06 0 -2.66973e+06 4.54854e+06 0 -2.66937e+06 4.57832e+06 0 -2.66859e+06 4.60847e+06 0 -2.66737e+06 4.63899e+06 0 -2.66569e+06 4.66987e+06 0 -2.66354e+06 4.70112e+06 0 -2.6609e+06 4.73274e+06 0 -2.65774e+06 4.76471e+06 0 -2.65405e+06 4.79703e+06 0 -2.64981e+06 4.82971e+06 0 -2.645e+06 4.86273e+06 0 -2.63959e+06 4.89609e+06 0 -2.63357e+06 4.92978e+06 0 -2.62691e+06 4.96379e+06 0 -2.61959e+06 4.99812e+06 0 -2.61159e+06 5.03276e+06 0 -2.60289e+06 5.06769e+06 0 -2.59345e+06 5.10291e+06 0 -2.58326e+06 5.13839e+06 0 -2.5723e+06 5.17414e+06 0 -2.56053e+06 5.21012e+06 0 -2.54794e+06 5.24633e+06 0 -2.5345e+06 5.28275e+06 0 -2.52018e+06 5.31936e+06 0 -2.50497e+06 5.35613e+06 0 -2.48882e+06 5.39305e+06 0 -2.47173e+06 5.43009e+06 0 -2.45366e+06 5.46723e+06 0 -2.43459e+06 5.50444e+06 0 -2.41449e+06 5.54169e+06 0 -2.39335e+06 5.57895e+06 0 -2.37113e+06 5.61619e+06 0 -2.34781e+06 5.65337e+06 0 -2.32338e+06 5.69046e+06 0 -2.2978e+06 5.72742e+06 0 -2.27105e+06 5.76421e+06 0 -2.24313e+06 5.80079e+06 0 -2.21399e+06 5.83711e+06 0 -2.18364e+06 5.87312e+06 0 -2.15204e+06 5.90878e+06 0 -2.11918e+06 5.94404e+06 0 -2.08506e+06 5.97884e+06 0 -2.04965e+06 6.01313e+06 0 -2.01295e+06 6.04684e+06 0 -1.97495e+06 6.07993e+06 0 -1.93563e+06 6.11232e+06 0 -1.89501e+06 6.14394e+06 0 -1.85307e+06 6.17475e+06 0 -1.80981e+06 6.20465e+06 0 -1.76525e+06 6.23358e+06 0 -1.71939e+06 6.26147e+06 0 -1.67224e+06 6.28824e+06 0 -1.62381e+06 6.31381e+06 0 -1.57413e+06 6.3381e+06 0 -1.52321e+06 6.36103e+06 0 -1.47109e+06 6.3825e+06 0 -1.41779e+06 6.40244e+06 0 -1.36335e+06 6.42075e+06 0 -1.30782e+06 6.43734e+06 0 -1.25124e+06 6.45211e+06 0 -1.19365e+06 6.46497e+06 0 -1.13513e+06 6.4758e+06 0 -1.07574e+06 6.48452e+06 0 -1.01554e+06 6.491e+06 0 -954625 6.49513e+06 0 -893082 6.49679e+06 0 -831019 6.49583e+06 0 -768560 6.49213e+06 0 -705853 6.48551e+06 0 -643078 6.47582e+06 0 -580452 6.46286e+06 0 -518222 6.44638e+06 0 -456623 6.4259e+06 0 -395623 6.40014e+06 0 -2.31725e+06 3.33727e+06 0 -2.32454e+06 3.35095e+06 0 -2.33182e+06 3.36483e+06 0 -2.33909e+06 3.37891e+06 0 -2.34636e+06 3.39317e+06 0 -2.35363e+06 3.40762e+06 0 -2.36088e+06 3.42226e+06 0 -2.36813e+06 3.4371e+06 0 -2.37536e+06 3.45213e+06 0 -2.38258e+06 3.46736e+06 0 -2.38979e+06 3.4828e+06 0 -2.39697e+06 3.49846e+06 0 -2.40413e+06 3.51433e+06 0 -2.41127e+06 3.53041e+06 0 -2.41837e+06 3.54673e+06 0 -2.42544e+06 3.56327e+06 0 -2.43247e+06 3.58005e+06 0 -2.43946e+06 3.59706e+06 0 -2.44641e+06 3.61432e+06 0 -2.4533e+06 3.63182e+06 0 -2.46014e+06 3.64956e+06 0 -2.46693e+06 3.66756e+06 0 -2.47364e+06 3.68582e+06 0 -2.48029e+06 3.70433e+06 0 -2.48686e+06 3.72311e+06 0 -2.49336e+06 3.74216e+06 0 -2.49977e+06 3.76148e+06 0 -2.50609e+06 3.78108e+06 0 -2.51231e+06 3.80096e+06 0 -2.51843e+06 3.82112e+06 0 -2.52444e+06 3.84158e+06 0 -2.53034e+06 3.86233e+06 0 -2.53611e+06 3.88338e+06 0 -2.54175e+06 3.90473e+06 0 -2.54725e+06 3.9264e+06 0 -2.55261e+06 3.94837e+06 0 -2.55781e+06 3.97066e+06 0 -2.56284e+06 3.99327e+06 0 -2.56771e+06 4.0162e+06 0 -2.57239e+06 4.03946e+06 0 -2.57688e+06 4.06305e+06 0 -2.58118e+06 4.08698e+06 0 -2.58525e+06 4.11125e+06 0 -2.58911e+06 4.13586e+06 0 -2.59273e+06 4.16081e+06 0 -2.59611e+06 4.18611e+06 0 -2.59923e+06 4.21177e+06 0 -2.60208e+06 4.23777e+06 0 -2.60465e+06 4.26413e+06 0 -2.60692e+06 4.29085e+06 0 -2.60888e+06 4.31793e+06 0 -2.61052e+06 4.34537e+06 0 -2.61182e+06 4.37318e+06 0 -2.61277e+06 4.40134e+06 0 -2.61336e+06 4.42988e+06 0 -2.61355e+06 4.45877e+06 0 -2.61335e+06 4.48803e+06 0 -2.61273e+06 4.51765e+06 0 -2.61168e+06 4.54764e+06 0 -2.61017e+06 4.57798e+06 0 -2.6082e+06 4.60868e+06 0 -2.60573e+06 4.63974e+06 0 -2.60276e+06 4.67114e+06 0 -2.59926e+06 4.7029e+06 0 -2.59521e+06 4.73499e+06 0 -2.59059e+06 4.76742e+06 0 -2.58539e+06 4.80018e+06 0 -2.57957e+06 4.83327e+06 0 -2.57312e+06 4.86666e+06 0 -2.56602e+06 4.90036e+06 0 -2.55824e+06 4.93436e+06 0 -2.54976e+06 4.96864e+06 0 -2.54055e+06 5.00318e+06 0 -2.5306e+06 5.03799e+06 0 -2.51988e+06 5.07304e+06 0 -2.50836e+06 5.10831e+06 0 -2.49603e+06 5.1438e+06 0 -2.48285e+06 5.17947e+06 0 -2.46881e+06 5.21531e+06 0 -2.45387e+06 5.25131e+06 0 -2.43802e+06 5.28742e+06 0 -2.42123e+06 5.32364e+06 0 -2.40347e+06 5.35994e+06 0 -2.38473e+06 5.39628e+06 0 -2.36497e+06 5.43263e+06 0 -2.34418e+06 5.46897e+06 0 -2.32233e+06 5.50527e+06 0 -2.29941e+06 5.54147e+06 0 -2.27538e+06 5.57756e+06 0 -2.25023e+06 5.61348e+06 0 -2.22394e+06 5.64921e+06 0 -2.19649e+06 5.68468e+06 0 -2.16787e+06 5.71987e+06 0 -2.13805e+06 5.75471e+06 0 -2.10703e+06 5.78916e+06 0 -2.07479e+06 5.82317e+06 0 -2.04133e+06 5.85668e+06 0 -2.00662e+06 5.88964e+06 0 -1.97067e+06 5.92199e+06 0 -1.93347e+06 5.95366e+06 0 -1.89502e+06 5.98459e+06 0 -1.85533e+06 6.01473e+06 0 -1.81439e+06 6.04399e+06 0 -1.77221e+06 6.07231e+06 0 -1.72881e+06 6.09962e+06 0 -1.68419e+06 6.12584e+06 0 -1.63839e+06 6.1509e+06 0 -1.59141e+06 6.17472e+06 0 -1.54329e+06 6.19723e+06 0 -1.49407e+06 6.21833e+06 0 -1.44376e+06 6.23795e+06 0 -1.39243e+06 6.25601e+06 0 -1.34012e+06 6.27241e+06 0 -1.28688e+06 6.28708e+06 0 -1.23277e+06 6.29992e+06 0 -1.17787e+06 6.31083e+06 0 -1.12224e+06 6.31974e+06 0 -1.06599e+06 6.32655e+06 0 -1.00919e+06 6.33116e+06 0 -951966 6.33347e+06 0 -894436 6.3334e+06 0 -836740 6.33085e+06 0 -779039 6.32572e+06 0 -721518 6.31793e+06 0 -664394 6.30742e+06 0 -607928 6.29416e+06 0 -552441 6.27826e+06 0 -498445 6.26025e+06 0 -2.25462e+06 3.26206e+06 0 -2.26182e+06 3.27537e+06 0 -2.26903e+06 3.28884e+06 0 -2.27624e+06 3.30249e+06 0 -2.28345e+06 3.31631e+06 0 -2.29067e+06 3.33032e+06 0 -2.29788e+06 3.34452e+06 0 -2.30508e+06 3.3589e+06 0 -2.31227e+06 3.37348e+06 0 -2.31946e+06 3.38826e+06 0 -2.32663e+06 3.40324e+06 0 -2.33378e+06 3.41842e+06 0 -2.34092e+06 3.4338e+06 0 -2.34804e+06 3.4494e+06 0 -2.35513e+06 3.46521e+06 0 -2.36219e+06 3.48123e+06 0 -2.36923e+06 3.49749e+06 0 -2.37623e+06 3.51397e+06 0 -2.38319e+06 3.53068e+06 0 -2.39011e+06 3.54763e+06 0 -2.39698e+06 3.56481e+06 0 -2.4038e+06 3.58225e+06 0 -2.41057e+06 3.59993e+06 0 -2.41727e+06 3.61786e+06 0 -2.42391e+06 3.63606e+06 0 -2.43048e+06 3.65451e+06 0 -2.43698e+06 3.67323e+06 0 -2.44339e+06 3.69222e+06 0 -2.44971e+06 3.71148e+06 0 -2.45595e+06 3.73102e+06 0 -2.46208e+06 3.75084e+06 0 -2.4681e+06 3.77095e+06 0 -2.47401e+06 3.79135e+06 0 -2.47981e+06 3.81204e+06 0 -2.48547e+06 3.83303e+06 0 -2.491e+06 3.85433e+06 0 -2.49639e+06 3.87593e+06 0 -2.50163e+06 3.89784e+06 0 -2.5067e+06 3.92007e+06 0 -2.51161e+06 3.94262e+06 0 -2.51634e+06 3.96549e+06 0 -2.52089e+06 3.98869e+06 0 -2.52523e+06 4.01223e+06 0 -2.52937e+06 4.03609e+06 0 -2.53329e+06 4.06029e+06 0 -2.53697e+06 4.08484e+06 0 -2.54042e+06 4.10972e+06 0 -2.54361e+06 4.13496e+06 0 -2.54654e+06 4.16054e+06 0 -2.54919e+06 4.18647e+06 0 -2.55155e+06 4.21276e+06 0 -2.5536e+06 4.2394e+06 0 -2.55533e+06 4.26639e+06 0 -2.55673e+06 4.29375e+06 0 -2.55778e+06 4.32146e+06 0 -2.55847e+06 4.34953e+06 0 -2.55877e+06 4.37796e+06 0 -2.55868e+06 4.40675e+06 0 -2.55817e+06 4.43589e+06 0 -2.55724e+06 4.46539e+06 0 -2.55585e+06 4.49524e+06 0 -2.554e+06 4.52544e+06 0 -2.55167e+06 4.55599e+06 0 -2.54882e+06 4.58688e+06 0 -2.54546e+06 4.61811e+06 0 -2.54155e+06 4.64967e+06 0 -2.53708e+06 4.68157e+06 0 -2.53202e+06 4.71378e+06 0 -2.52635e+06 4.7463e+06 0 -2.52006e+06 4.77912e+06 0 -2.51311e+06 4.81224e+06 0 -2.5055e+06 4.84564e+06 0 -2.49719e+06 4.87931e+06 0 -2.48816e+06 4.91324e+06 0 -2.47838e+06 4.94742e+06 0 -2.46785e+06 4.98182e+06 0 -2.45652e+06 5.01643e+06 0 -2.44439e+06 5.05123e+06 0 -2.43141e+06 5.08621e+06 0 -2.41758e+06 5.12134e+06 0 -2.40287e+06 5.1566e+06 0 -2.38724e+06 5.19196e+06 0 -2.37069e+06 5.2274e+06 0 -2.35319e+06 5.2629e+06 0 -2.33471e+06 5.29842e+06 0 -2.31523e+06 5.33393e+06 0 -2.29473e+06 5.3694e+06 0 -2.27319e+06 5.4048e+06 0 -2.2506e+06 5.44008e+06 0 -2.22692e+06 5.47521e+06 0 -2.20214e+06 5.51016e+06 0 -2.17624e+06 5.54486e+06 0 -2.14922e+06 5.57929e+06 0 -2.12105e+06 5.6134e+06 0 -2.09171e+06 5.64713e+06 0 -2.06121e+06 5.68043e+06 0 -2.02953e+06 5.71326e+06 0 -1.99666e+06 5.74555e+06 0 -1.9626e+06 5.77726e+06 0 -1.92735e+06 5.80831e+06 0 -1.89091e+06 5.83865e+06 0 -1.85327e+06 5.86821e+06 0 -1.81445e+06 5.89694e+06 0 -1.77446e+06 5.92476e+06 0 -1.7333e+06 5.9516e+06 0 -1.69101e+06 5.9774e+06 0 -1.64759e+06 6.00208e+06 0 -1.60307e+06 6.02557e+06 0 -1.55749e+06 6.04779e+06 0 -1.51088e+06 6.06867e+06 0 -1.46328e+06 6.08813e+06 0 -1.41474e+06 6.1061e+06 0 -1.36531e+06 6.12249e+06 0 -1.31504e+06 6.13722e+06 0 -1.26401e+06 6.15023e+06 0 -1.21228e+06 6.16142e+06 0 -1.15994e+06 6.17073e+06 0 -1.10709e+06 6.17807e+06 0 -1.0538e+06 6.18338e+06 0 -1.00021e+06 6.18657e+06 0 -946429 6.18759e+06 0 -892593 6.18636e+06 0 -838854 6.18284e+06 0 -785374 6.17698e+06 0 -732334 6.16875e+06 0 -679922 6.15813e+06 0 -628327 6.14509e+06 0 -577702 6.12945e+06 0 -2.19488e+06 3.1929e+06 0 -2.202e+06 3.20584e+06 0 -2.20913e+06 3.21895e+06 0 -2.21626e+06 3.23222e+06 0 -2.22339e+06 3.24567e+06 0 -2.23053e+06 3.2593e+06 0 -2.23767e+06 3.2731e+06 0 -2.24481e+06 3.28708e+06 0 -2.25195e+06 3.30125e+06 0 -2.25908e+06 3.31561e+06 0 -2.2662e+06 3.33017e+06 0 -2.27332e+06 3.34492e+06 0 -2.28041e+06 3.35987e+06 0 -2.2875e+06 3.37502e+06 0 -2.29456e+06 3.39039e+06 0 -2.3016e+06 3.40596e+06 0 -2.30861e+06 3.42175e+06 0 -2.3156e+06 3.43776e+06 0 -2.32255e+06 3.45399e+06 0 -2.32947e+06 3.47045e+06 0 -2.33634e+06 3.48713e+06 0 -2.34318e+06 3.50406e+06 0 -2.34996e+06 3.52122e+06 0 -2.35669e+06 3.53863e+06 0 -2.36337e+06 3.55629e+06 0 -2.36998e+06 3.5742e+06 0 -2.37652e+06 3.59237e+06 0 -2.383e+06 3.61081e+06 0 -2.38939e+06 3.6295e+06 0 -2.3957e+06 3.64847e+06 0 -2.40192e+06 3.66771e+06 0 -2.40804e+06 3.68723e+06 0 -2.41406e+06 3.70703e+06 0 -2.41997e+06 3.72712e+06 0 -2.42576e+06 3.7475e+06 0 -2.43142e+06 3.76818e+06 0 -2.43696e+06 3.78915e+06 0 -2.44235e+06 3.81043e+06 0 -2.4476e+06 3.83202e+06 0 -2.45269e+06 3.85391e+06 0 -2.45762e+06 3.87612e+06 0 -2.46236e+06 3.89866e+06 0 -2.46693e+06 3.92151e+06 0 -2.4713e+06 3.94469e+06 0 -2.47547e+06 3.9682e+06 0 -2.47941e+06 3.99204e+06 0 -2.48314e+06 4.01622e+06 0 -2.48662e+06 4.04074e+06 0 -2.48986e+06 4.0656e+06 0 -2.49283e+06 4.0908e+06 0 -2.49552e+06 4.11635e+06 0 -2.49793e+06 4.14225e+06 0 -2.50003e+06 4.1685e+06 0 -2.50182e+06 4.1951e+06 0 -2.50328e+06 4.22205e+06 0 -2.50439e+06 4.24935e+06 0 -2.50514e+06 4.27701e+06 0 -2.50551e+06 4.30502e+06 0 -2.50549e+06 4.33338e+06 0 -2.50506e+06 4.36209e+06 0 -2.5042e+06 4.39115e+06 0 -2.50289e+06 4.42055e+06 0 -2.50112e+06 4.4503e+06 0 -2.49887e+06 4.48038e+06 0 -2.49612e+06 4.51081e+06 0 -2.49284e+06 4.54156e+06 0 -2.48902e+06 4.57264e+06 0 -2.48465e+06 4.60403e+06 0 -2.47969e+06 4.63573e+06 0 -2.47412e+06 4.66774e+06 0 -2.46794e+06 4.70004e+06 0 -2.4611e+06 4.73262e+06 0 -2.4536e+06 4.76547e+06 0 -2.4454e+06 4.79858e+06 0 -2.4365e+06 4.83193e+06 0 -2.42685e+06 4.86551e+06 0 -2.41645e+06 4.89931e+06 0 -2.40526e+06 4.9333e+06 0 -2.39327e+06 4.96746e+06 0 -2.38044e+06 5.00179e+06 0 -2.36677e+06 5.03624e+06 0 -2.35222e+06 5.07081e+06 0 -2.33678e+06 5.10546e+06 0 -2.32041e+06 5.14017e+06 0 -2.3031e+06 5.17492e+06 0 -2.28483e+06 5.20966e+06 0 -2.26558e+06 5.24437e+06 0 -2.24532e+06 5.27901e+06 0 -2.22403e+06 5.31355e+06 0 -2.20171e+06 5.34796e+06 0 -2.17832e+06 5.38218e+06 0 -2.15386e+06 5.41619e+06 0 -2.12831e+06 5.44993e+06 0 -2.10165e+06 5.48336e+06 0 -2.07387e+06 5.51644e+06 0 -2.04497e+06 5.54911e+06 0 -2.01494e+06 5.58132e+06 0 -1.98376e+06 5.61302e+06 0 -1.95144e+06 5.64415e+06 0 -1.91798e+06 5.67466e+06 0 -1.88337e+06 5.70448e+06 0 -1.84763e+06 5.73356e+06 0 -1.81075e+06 5.76184e+06 0 -1.77276e+06 5.78924e+06 0 -1.73366e+06 5.81571e+06 0 -1.69348e+06 5.84117e+06 0 -1.65224e+06 5.86555e+06 0 -1.60996e+06 5.8888e+06 0 -1.56668e+06 5.91084e+06 0 -1.52244e+06 5.93159e+06 0 -1.47727e+06 5.95098e+06 0 -1.43123e+06 5.96896e+06 0 -1.38437e+06 5.98543e+06 0 -1.33675e+06 6.00034e+06 0 -1.28844e+06 6.01361e+06 0 -1.23951e+06 6.02518e+06 0 -1.19004e+06 6.03498e+06 0 -1.14012e+06 6.04294e+06 0 -1.08985e+06 6.04901e+06 0 -1.03934e+06 6.05313e+06 0 -988702 6.05526e+06 0 -938059 6.05534e+06 0 -887548 6.05335e+06 0 -837315 6.04926e+06 0 -787514 6.04307e+06 0 -738310 6.03478e+06 0 -689876 6.02446e+06 0 -642420 6.01221e+06 0 -2.13793e+06 3.1289e+06 0 -2.14495e+06 3.14154e+06 0 -2.15198e+06 3.15433e+06 0 -2.15903e+06 3.16728e+06 0 -2.16608e+06 3.18039e+06 0 -2.17313e+06 3.19368e+06 0 -2.18019e+06 3.20714e+06 0 -2.18726e+06 3.22077e+06 0 -2.19432e+06 3.23458e+06 0 -2.20138e+06 3.24857e+06 0 -2.20844e+06 3.26275e+06 0 -2.21549e+06 3.27712e+06 0 -2.22253e+06 3.29168e+06 0 -2.22956e+06 3.30644e+06 0 -2.23658e+06 3.3214e+06 0 -2.24358e+06 3.33656e+06 0 -2.25056e+06 3.35193e+06 0 -2.25751e+06 3.36752e+06 0 -2.26444e+06 3.38332e+06 0 -2.27133e+06 3.39933e+06 0 -2.2782e+06 3.41558e+06 0 -2.28502e+06 3.43205e+06 0 -2.2918e+06 3.44875e+06 0 -2.29854e+06 3.46569e+06 0 -2.30522e+06 3.48287e+06 0 -2.31185e+06 3.50029e+06 0 -2.31842e+06 3.51797e+06 0 -2.32492e+06 3.53589e+06 0 -2.33136e+06 3.55408e+06 0 -2.33771e+06 3.57252e+06 0 -2.34399e+06 3.59123e+06 0 -2.35018e+06 3.61022e+06 0 -2.35627e+06 3.62947e+06 0 -2.36226e+06 3.64901e+06 0 -2.36815e+06 3.66883e+06 0 -2.37392e+06 3.68894e+06 0 -2.37957e+06 3.70934e+06 0 -2.38509e+06 3.73003e+06 0 -2.39047e+06 3.75103e+06 0 -2.3957e+06 3.77233e+06 0 -2.40079e+06 3.79393e+06 0 -2.4057e+06 3.81585e+06 0 -2.41045e+06 3.83808e+06 0 -2.41501e+06 3.86063e+06 0 -2.41938e+06 3.8835e+06 0 -2.42355e+06 3.9067e+06 0 -2.4275e+06 3.93023e+06 0 -2.43124e+06 3.95408e+06 0 -2.43473e+06 3.97828e+06 0 -2.43798e+06 4.0028e+06 0 -2.44096e+06 4.02767e+06 0 -2.44367e+06 4.05288e+06 0 -2.4461e+06 4.07844e+06 0 -2.44823e+06 4.10433e+06 0 -2.45004e+06 4.13058e+06 0 -2.45152e+06 4.15717e+06 0 -2.45266e+06 4.1841e+06 0 -2.45344e+06 4.21139e+06 0 -2.45384e+06 4.23902e+06 0 -2.45386e+06 4.26699e+06 0 -2.45346e+06 4.29531e+06 0 -2.45264e+06 4.32397e+06 0 -2.45137e+06 4.35297e+06 0 -2.44965e+06 4.38231e+06 0 -2.44744e+06 4.41197e+06 0 -2.44473e+06 4.44197e+06 0 -2.44151e+06 4.47228e+06 0 -2.43774e+06 4.50291e+06 0 -2.43342e+06 4.53385e+06 0 -2.42852e+06 4.56509e+06 0 -2.42301e+06 4.59662e+06 0 -2.41689e+06 4.62843e+06 0 -2.41012e+06 4.66051e+06 0 -2.40268e+06 4.69285e+06 0 -2.39456e+06 4.72544e+06 0 -2.38573e+06 4.75825e+06 0 -2.37616e+06 4.79128e+06 0 -2.36584e+06 4.82451e+06 0 -2.35474e+06 4.85792e+06 0 -2.34285e+06 4.89149e+06 0 -2.33013e+06 4.92519e+06 0 -2.31656e+06 4.95901e+06 0 -2.30213e+06 4.99293e+06 0 -2.28681e+06 5.02691e+06 0 -2.27058e+06 5.06092e+06 0 -2.25342e+06 5.09495e+06 0 -2.23531e+06 5.12895e+06 0 -2.21623e+06 5.16289e+06 0 -2.19616e+06 5.19675e+06 0 -2.17508e+06 5.23048e+06 0 -2.15298e+06 5.26404e+06 0 -2.12984e+06 5.2974e+06 0 -2.10564e+06 5.3305e+06 0 -2.08038e+06 5.36332e+06 0 -2.05404e+06 5.3958e+06 0 -2.02662e+06 5.42789e+06 0 -1.9981e+06 5.45954e+06 0 -1.96849e+06 5.4907e+06 0 -1.93777e+06 5.52133e+06 0 -1.90595e+06 5.55135e+06 0 -1.87304e+06 5.58072e+06 0 -1.83903e+06 5.60938e+06 0 -1.80394e+06 5.63726e+06 0 -1.76778e+06 5.66431e+06 0 -1.73057e+06 5.69046e+06 0 -1.69232e+06 5.71564e+06 0 -1.65306e+06 5.7398e+06 0 -1.61282e+06 5.76287e+06 0 -1.57163e+06 5.78478e+06 0 -1.52953e+06 5.80547e+06 0 -1.48656e+06 5.82486e+06 0 -1.44277e+06 5.8429e+06 0 -1.39822e+06 5.85952e+06 0 -1.35296e+06 5.87465e+06 0 -1.30707e+06 5.88824e+06 0 -1.26061e+06 5.90022e+06 0 -1.21366e+06 5.91054e+06 0 -1.16631e+06 5.91914e+06 0 -1.11865e+06 5.92597e+06 0 -1.07079e+06 5.931e+06 0 -1.02283e+06 5.93418e+06 0 -974885 5.93548e+06 0 -927078 5.93489e+06 0 -879538 5.93239e+06 0 -832396 5.92798e+06 0 -785792 5.92169e+06 0 -739860 5.91353e+06 0 -694735 5.90351e+06 0 -2.08362e+06 3.06941e+06 0 -2.09054e+06 3.08177e+06 0 -2.09747e+06 3.09428e+06 0 -2.10441e+06 3.10694e+06 0 -2.11137e+06 3.11977e+06 0 -2.11833e+06 3.13275e+06 0 -2.1253e+06 3.14591e+06 0 -2.13228e+06 3.15923e+06 0 -2.13926e+06 3.17272e+06 0 -2.14625e+06 3.18639e+06 0 -2.15323e+06 3.20024e+06 0 -2.16021e+06 3.21427e+06 0 -2.16718e+06 3.22849e+06 0 -2.17415e+06 3.24289e+06 0 -2.1811e+06 3.25749e+06 0 -2.18805e+06 3.27229e+06 0 -2.19497e+06 3.28728e+06 0 -2.20188e+06 3.30249e+06 0 -2.20877e+06 3.3179e+06 0 -2.21563e+06 3.33352e+06 0 -2.22246e+06 3.34936e+06 0 -2.22926e+06 3.36542e+06 0 -2.23602e+06 3.38171e+06 0 -2.24274e+06 3.39823e+06 0 -2.24941e+06 3.41497e+06 0 -2.25604e+06 3.43196e+06 0 -2.26261e+06 3.44918e+06 0 -2.26913e+06 3.46665e+06 0 -2.27558e+06 3.48437e+06 0 -2.28196e+06 3.50235e+06 0 -2.28827e+06 3.52058e+06 0 -2.2945e+06 3.53908e+06 0 -2.30064e+06 3.55784e+06 0 -2.30669e+06 3.57687e+06 0 -2.31264e+06 3.59618e+06 0 -2.31849e+06 3.61577e+06 0 -2.32422e+06 3.63564e+06 0 -2.32984e+06 3.6558e+06 0 -2.33532e+06 3.67625e+06 0 -2.34067e+06 3.697e+06 0 -2.34588e+06 3.71805e+06 0 -2.35093e+06 3.7394e+06 0 -2.35583e+06 3.76106e+06 0 -2.36055e+06 3.78303e+06 0 -2.36509e+06 3.80531e+06 0 -2.36944e+06 3.82792e+06 0 -2.37359e+06 3.85084e+06 0 -2.37753e+06 3.87409e+06 0 -2.38124e+06 3.89767e+06 0 -2.38472e+06 3.92157e+06 0 -2.38795e+06 3.94581e+06 0 -2.39093e+06 3.97038e+06 0 -2.39363e+06 3.99529e+06 0 -2.39605e+06 4.02054e+06 0 -2.39817e+06 4.04613e+06 0 -2.39998e+06 4.07205e+06 0 -2.40146e+06 4.09832e+06 0 -2.4026e+06 4.12493e+06 0 -2.40338e+06 4.15188e+06 0 -2.40378e+06 4.17917e+06 0 -2.4038e+06 4.2068e+06 0 -2.40341e+06 4.23477e+06 0 -2.40259e+06 4.26307e+06 0 -2.40133e+06 4.2917e+06 0 -2.39962e+06 4.32066e+06 0 -2.39742e+06 4.34995e+06 0 -2.39472e+06 4.37955e+06 0 -2.39151e+06 4.40946e+06 0 -2.38776e+06 4.43969e+06 0 -2.38345e+06 4.47021e+06 0 -2.37857e+06 4.50102e+06 0 -2.37309e+06 4.53211e+06 0 -2.36698e+06 4.56347e+06 0 -2.36024e+06 4.59509e+06 0 -2.35283e+06 4.62695e+06 0 -2.34474e+06 4.65905e+06 0 -2.33594e+06 4.69136e+06 0 -2.32641e+06 4.72388e+06 0 -2.31614e+06 4.75657e+06 0 -2.30509e+06 4.78943e+06 0 -2.29324e+06 4.82243e+06 0 -2.28058e+06 4.85555e+06 0 -2.26708e+06 4.88877e+06 0 -2.25272e+06 4.92207e+06 0 -2.23749e+06 4.9554e+06 0 -2.22135e+06 4.98876e+06 0 -2.20429e+06 5.0221e+06 0 -2.1863e+06 5.05539e+06 0 -2.16734e+06 5.0886e+06 0 -2.14742e+06 5.1217e+06 0 -2.1265e+06 5.15465e+06 0 -2.10458e+06 5.18741e+06 0 -2.08164e+06 5.21993e+06 0 -2.05767e+06 5.25217e+06 0 -2.03265e+06 5.2841e+06 0 -2.00659e+06 5.31566e+06 0 -1.97948e+06 5.3468e+06 0 -1.9513e+06 5.37748e+06 0 -1.92206e+06 5.40764e+06 0 -1.89176e+06 5.43723e+06 0 -1.86041e+0