<?xml version="1.0"?> 
<VTKFile type="StructuredGrid" version="0.1"> 
<StructuredGrid WholeExtent="0 127 0 127 0 0"> 
<Piece Extent="0 127 0 127 0 0"> 
<PointData>
<DataArray type="Float32" Name="|E|" format="ascii" NumberOfComponents="3"> 
932619 -387822 0 1.22185e+06 -305589 0 1.30363e+06 -312749 0 1.38413e+06 -299201 0 1.44143e+06 -285105 0 1.49355e+06 -268111 0 1.53796e+06 -250144 0 1.57766e+06 -231287 0 1.61272e+06 -211945 0 1.64385e+06 -192316 0 1.67125e+06 -172591 0 1.69516e+06 -152925 0 1.71575e+06 -133455 0 1.73315e+06 -114302 0 1.74748e+06 -95576.5 0 1.75887e+06 -77374.7 0 1.76746e+06 -59781.6 0 1.77337e+06 -42869.9 0 1.77674e+06 -26699.8 0 1.77771e+06 -11319.1 0 1.77644e+06 3236.52 0 1.77306e+06 16943.1 0 1.76774e+06 29787.4 0 1.7606e+06 41765.8 0 1.7518e+06 52883.8 0 1.74148e+06 63154 0 1.72978e+06 72595.9 0 1.71682e+06 81234 0 1.70272e+06 89096.9 0 1.68761e+06 96216.8 0 1.6716e+06 102628 0 1.65478e+06 108366 0 1.63726e+06 113468 0 1.61912e+06 117971 0 1.60045e+06 121912 0 1.58133e+06 125327 0 1.56183e+06 128252 0 1.54201e+06 130721 0 1.52194e+06 132767 0 1.50167e+06 134421 0 1.48125e+06 135713 0 1.46074e+06 136673 0 1.44017e+06 137327 0 1.41957e+06 137699 0 1.399e+06 137815 0 1.37848e+06 137695 0 1.35803e+06 137361 0 1.3377e+06 136832 0 1.31749e+06 136126 0 1.29743e+06 135259 0 1.27755e+06 134247 0 1.25785e+06 133104 0 1.23835e+06 131843 0 1.21908e+06 130476 0 1.20003e+06 129014 0 1.18123e+06 127468 0 1.16268e+06 125847 0 1.14438e+06 124159 0 1.12636e+06 122413 0 1.1086e+06 120616 0 1.09113e+06 118774 0 1.07394e+06 116893 0 1.05704e+06 114980 0 1.04043e+06 113038 0 1.02411e+06 111073 0 1.00809e+06 109090 0 992364 107090 0 976939 105079 0 961814 103060 0 946989 101034 0 932464 99005.6 0 918238 96975.9 0 904312 94947.3 0 890684 92921.7 0 877354 90900.7 0 864320 88885.9 0 851580 86878.6 0 839134 84879.9 0 826980 82890.8 0 815116 80912.3 0 803540 78945.2 0 792250 76990.1 0 781244 75047.6 0 770520 73118.1 0 760076 71202.2 0 749910 69300 0 740020 67411.8 0 730403 65537.9 0 721057 63678.3 0 711980 61833.1 0 703170 60002.4 0 694625 58186 0 686342 56383.9 0 678319 54596.1 0 670555 52822.3 0 663046 51062.4 0 655792 49316.2 0 648789 47583.4 0 642036 45863.8 0 635532 44157.1 0 629273 42463 0 623259 40781.1 0 617487 39111.1 0 611956 37452.7 0 606664 35805.4 0 601609 34168.9 0 596790 32542.9 0 592206 30926.8 0 587854 29320.2 0 583734 27722.8 0 579844 26134 0 576184 24553.5 0 572751 22980.8 0 569544 21415.3 0 566564 19856.8 0 563807 18304.6 0 561275 16758.3 0 558966 15217.5 0 556879 13681.6 0 555013 12150.1 0 553368 10622.7 0 551944 9098.69 0 550739 7577.68 0 549754 6059.16 0 548987 4542.63 0 548440 3027.59 0 548111 1513.55 0 548001 0 0 954708 -397007 0 1.22181e+06 -314897 0 1.30689e+06 -316946 0 1.38607e+06 -302632 0 1.44366e+06 -287775 0 1.49555e+06 -270373 0 1.53992e+06 -252061 0 1.57953e+06 -232931 0 1.61452e+06 -213351 0 1.64557e+06 -193509 0 1.67289e+06 -173588 0 1.69672e+06 -153740 0 1.71722e+06 -134099 0 1.73453e+06 -114784 0 1.74877e+06 -95905.7 0 1.76007e+06 -77559.6 0 1.76856e+06 -59831 0 1.77438e+06 -42792.3 0 1.77766e+06 -26503.9 0 1.77854e+06 -11013.4 0 1.77718e+06 3643.58 0 1.77372e+06 17443.2 0 1.7683e+06 30372.5 0 1.76109e+06 42428.2 0 1.75222e+06 53616 0 1.74183e+06 63949.1 0 1.73005e+06 73447.2 0 1.71703e+06 82135.2 0 1.70288e+06 90042.3 0 1.68771e+06 97200.9 0 1.67164e+06 103646 0 1.65478e+06 109413 0 1.63721e+06 114540 0 1.61904e+06 119064 0 1.60034e+06 123022 0 1.58118e+06 126451 0 1.56165e+06 129386 0 1.54181e+06 131863 0 1.52172e+06 133914 0 1.50143e+06 135571 0 1.48099e+06 136865 0 1.46046e+06 137823 0 1.43988e+06 138474 0 1.41927e+06 138843 0 1.39869e+06 138952 0 1.37816e+06 138826 0 1.35771e+06 138484 0 1.33737e+06 137946 0 1.31716e+06 137229 0 1.2971e+06 136351 0 1.27721e+06 135328 0 1.25751e+06 134172 0 1.23802e+06 132898 0 1.21874e+06 131517 0 1.1997e+06 130042 0 1.1809e+06 128481 0 1.16235e+06 126845 0 1.14406e+06 125142 0 1.12603e+06 123381 0 1.10828e+06 121568 0 1.09082e+06 119710 0 1.07363e+06 117814 0 1.05673e+06 115884 0 1.04013e+06 113926 0 1.02381e+06 111946 0 1.0078e+06 109945 0 992080 107930 0 976661 105903 0 961542 103867 0 946722 101825 0 932202 99780 0 917983 97734.1 0 904062 95689.4 0 890440 93647.7 0 877115 91610.7 0 864086 89579.9 0 851353 87556.8 0 838912 85542.3 0 826763 83537.6 0 814904 81543.6 0 803333 79561 0 792048 77590.6 0 781048 75632.9 0 770329 73688.3 0 759890 71757.4 0 749728 69840.3 0 739843 67937.5 0 730230 66048.9 0 720889 64174.8 0 711816 62315.2 0 703011 60470.2 0 694469 58639.7 0 686190 56823.6 0 678172 55021.8 0 670411 53234.2 0 662906 51460.6 0 655655 49700.8 0 648656 47954.5 0 641906 46221.5 0 635405 44501.5 0 629149 42794.2 0 623138 41099.2 0 617369 39416.2 0 611841 37744.8 0 606551 36084.8 0 601499 34435.5 0 596682 32796.8 0 592100 31168.1 0 587751 29549 0 583633 27939.1 0 579745 26338 0 576086 24745.1 0 572654 23160.1 0 569450 21582.5 0 566470 20011.8 0 563716 18447.5 0 561185 16889.1 0 558876 15336.3 0 556790 13788.4 0 554925 12245 0 553281 10705.6 0 551857 9169.72 0 550653 7636.84 0 549669 6106.46 0 548903 4578.09 0 548356 3051.23 0 548027 1525.37 0 547917 0 0 975049 -405466 0 1.22251e+06 -323668 0 1.31008e+06 -321145 0 1.38808e+06 -306022 0 1.4459e+06 -290433 0 1.49757e+06 -272621 0 1.5419e+06 -253968 0 1.58141e+06 -234566 0 1.61633e+06 -214748 0 1.6473e+06 -194693 0 1.67454e+06 -174577 0 1.69828e+06 -154547 0 1.7187e+06 -134734 0 1.73591e+06 -115258 0 1.75006e+06 -96226.8 0 1.76127e+06 -77736.6 0 1.76967e+06 -59872.5 0 1.7754e+06 -42707.1 0 1.77858e+06 -26300.6 0 1.77937e+06 -10700.6 0 1.77792e+06 4057.44 0 1.77437e+06 17949.8 0 1.76888e+06 30963.8 0 1.76158e+06 43096.4 0 1.75263e+06 54353.7 0 1.74217e+06 64749.3 0 1.73033e+06 74303.2 0 1.71724e+06 83040.9 0 1.70303e+06 90991.8 0 1.68781e+06 98188.7 0 1.67169e+06 104667 0 1.65478e+06 110463 0 1.63717e+06 115614 0 1.61896e+06 120158 0 1.60022e+06 124133 0 1.58104e+06 127576 0 1.56148e+06 130522 0 1.54161e+06 133006 0 1.52149e+06 135063 0 1.50118e+06 136723 0 1.48073e+06 138017 0 1.46019e+06 138975 0 1.43959e+06 139623 0 1.41897e+06 139987 0 1.39838e+06 140091 0 1.37784e+06 139957 0 1.35739e+06 139607 0 1.33704e+06 139059 0 1.31682e+06 138333 0 1.29676e+06 137444 0 1.27687e+06 136408 0 1.25717e+06 135240 0 1.23768e+06 133953 0 1.21841e+06 132559 0 1.19936e+06 131069 0 1.18056e+06 129494 0 1.16202e+06 127843 0 1.14373e+06 126125 0 1.12571e+06 124348 0 1.10797e+06 122520 0 1.0905e+06 120646 0 1.07332e+06 118734 0 1.05643e+06 116788 0 1.03983e+06 114815 0 1.02352e+06 112817 0 1.00751e+06 110801 0 991796 108769 0 976382 106726 0 961268 104673 0 946454 102615 0 931940 100554 0 917726 98492 0 903811 96431.1 0 890195 94373.3 0 876875 92320.3 0 863852 90273.7 0 851124 88234.6 0 838689 86204.4 0 826546 84184.1 0 814692 82174.6 0 803126 80176.6 0 791846 78190.8 0 780851 76217.9 0 770137 74258.3 0 759703 72312.4 0 749546 70380.5 0 739665 68462.8 0 730057 66559.7 0 720720 64671.1 0 711652 62797.1 0 702850 60937.8 0 694313 59093.1 0 686038 57263 0 678023 55447.3 0 670266 53645.9 0 662765 51858.6 0 655518 50085.2 0 648522 48325.5 0 641776 46579.1 0 635277 44845.8 0 629025 43125.2 0 623016 41417.1 0 617250 39721.1 0 611724 38036.9 0 606438 36364 0 601388 34702 0 596574 33050.6 0 591994 31409.3 0 587646 29777.7 0 583530 28155.3 0 579644 26541.8 0 575987 24936.7 0 572558 23339.4 0 569354 21749.6 0 566377 20166.7 0 563623 18590.3 0 561093 17019.9 0 558786 15455 0 556701 13895.2 0 554837 12339.8 0 553194 10788.5 0 551771 9240.72 0 550567 7695.97 0 549583 6153.75 0 548818 4613.54 0 548271 3074.86 0 547942 1537.18 0 547832 0 0 993843 -413281 0 1.22385e+06 -331953 0 1.31323e+06 -325334 0 1.39018e+06 -309374 0 1.44815e+06 -293076 0 1.49961e+06 -274855 0 1.54389e+06 -255864 0 1.58331e+06 -236191 0 1.61816e+06 -216136 0 1.64904e+06 -195869 0 1.67619e+06 -175558 0 1.69986e+06 -155346 0 1.72018e+06 -135362 0 1.73731e+06 -115724 0 1.75137e+06 -96539.7 0 1.76248e+06 -77905.7 0 1.77079e+06 -59906.3 0 1.77642e+06 -42614.3 0 1.77951e+06 -26089.9 0 1.78021e+06 -10380.6 0 1.77867e+06 4478.14 0 1.77503e+06 18462.9 0 1.76945e+06 31561.2 0 1.76208e+06 43770.4 0 1.75305e+06 55096.9 0 1.74252e+06 65554.6 0 1.73061e+06 75164 0 1.71746e+06 83950.9 0 1.70318e+06 91945.3 0 1.68791e+06 99180.3 0 1.67174e+06 105692 0 1.65478e+06 111516 0 1.63713e+06 116691 0 1.61888e+06 121256 0 1.60011e+06 125247 0 1.58089e+06 128703 0 1.5613e+06 131660 0 1.54141e+06 134151 0 1.52127e+06 136213 0 1.50094e+06 137876 0 1.48047e+06 139171 0 1.45991e+06 140127 0 1.4393e+06 140772 0 1.41867e+06 141132 0 1.39807e+06 141230 0 1.37752e+06 141089 0 1.35706e+06 140730 0 1.33671e+06 140173 0 1.31649e+06 139436 0 1.29643e+06 138536 0 1.27653e+06 137489 0 1.25684e+06 136308 0 1.23734e+06 135008 0 1.21807e+06 133600 0 1.19903e+06 132096 0 1.18023e+06 130507 0 1.16169e+06 128841 0 1.1434e+06 127108 0 1.12539e+06 125316 0 1.10765e+06 123472 0 1.09018e+06 121582 0 1.07301e+06 119654 0 1.05612e+06 117692 0 1.03952e+06 115702 0 1.02322e+06 113689 0 1.00722e+06 111656 0 991510 109608 0 976102 107548 0 960994 105480 0 946186 103405 0 931677 101328 0 917469 99249.5 0 903559 97172.5 0 889948 95098.6 0 876635 93029.6 0 863617 90967 0 850895 88912.2 0 838465 86866.3 0 826327 84830.3 0 814479 82805.2 0 802918 80791.8 0 791643 78790.7 0 780653 76802.6 0 769944 74827.9 0 759515 72867 0 749363 70920.3 0 739486 68987.9 0 729883 67070.1 0 720550 65167.1 0 711487 63278.7 0 702689 61405.2 0 694156 59546.4 0 685885 57702.2 0 677874 55872.6 0 670121 54057.4 0 662623 52256.4 0 655379 50469.4 0 648387 48696.2 0 641644 46936.4 0 635149 45189.8 0 628900 43456.1 0 622894 41734.9 0 617131 40025.9 0 611608 38328.8 0 606323 36643 0 601276 34968.3 0 596464 33304.2 0 591887 31650.4 0 587541 30006.2 0 583427 28371.5 0 579543 26745.6 0 575888 25128.1 0 572460 23518.6 0 569258 21916.5 0 566282 20321.5 0 563530 18733 0 561001 17150.6 0 558695 15573.7 0 556611 14001.9 0 554748 12434.6 0 553106 10871.4 0 551683 9311.69 0 550481 7755.07 0 549497 6201.01 0 548732 4648.98 0 548185 3098.47 0 547857 1548.98 0 547747 0 0 1.01127e+06 -420528 0 1.22573e+06 -339792 0 1.31635e+06 -329502 0 1.39235e+06 -312688 0 1.45041e+06 -295704 0 1.50167e+06 -277075 0 1.5459e+06 -257749 0 1.58522e+06 -237806 0 1.61999e+06 -217515 0 1.65079e+06 -197036 0 1.67786e+06 -176530 0 1.70144e+06 -156136 0 1.72167e+06 -135981 0 1.73871e+06 -116181 0 1.75267e+06 -96844.6 0 1.7637e+06 -78066.7 0 1.77191e+06 -59932.2 0 1.77744e+06 -42513.8 0 1.78044e+06 -25871.7 0 1.78105e+06 -10053.5 0 1.77942e+06 4905.69 0 1.77569e+06 18982.6 0 1.77003e+06 32164.8 0 1.76257e+06 44450.3 0 1.75347e+06 55845.6 0 1.74287e+06 66365.1 0 1.73089e+06 76029.6 0 1.71767e+06 84865.4 0 1.70334e+06 92902.9 0 1.68801e+06 100176 0 1.67179e+06 106720 0 1.65479e+06 112572 0 1.63709e+06 117771 0 1.6188e+06 122356 0 1.59999e+06 126364 0 1.58074e+06 129833 0 1.56113e+06 132799 0 1.54121e+06 135298 0 1.52104e+06 137364 0 1.5007e+06 139030 0 1.48021e+06 140325 0 1.45963e+06 141280 0 1.43901e+06 141922 0 1.41837e+06 142277 0 1.39776e+06 142369 0 1.37721e+06 142221 0 1.35674e+06 141854 0 1.33638e+06 141287 0 1.31616e+06 140540 0 1.29609e+06 139629 0 1.2762e+06 138570 0 1.2565e+06 137376 0 1.237e+06 136063 0 1.21773e+06 134642 0 1.19869e+06 133124 0 1.1799e+06 131519 0 1.16135e+06 129839 0 1.14307e+06 128091 0 1.12506e+06 126283 0 1.10732e+06 124423 0 1.08987e+06 122518 0 1.0727e+06 120574 0 1.05581e+06 118596 0 1.03922e+06 116590 0 1.02293e+06 114560 0 1.00693e+06 112511 0 991224 110447 0 975822 108371 0 960719 106286 0 945916 104195 0 931413 102101 0 917210 100007 0 903307 97913.5 0 889702 95823.6 0 876394 93738.6 0 863382 91660.1 0 850664 89589.4 0 838240 87527.7 0 826108 85476.1 0 814264 83435.5 0 802709 81406.7 0 791440 79390.4 0 780454 77387 0 769750 75397.3 0 759326 73421.4 0 749179 71459.8 0 739307 69512.8 0 729708 67580.4 0 720380 65662.8 0 711321 63760.1 0 702527 61872.3 0 693999 59999.4 0 685732 58141.2 0 677724 56297.7 0 669975 54468.7 0 662481 52654 0 655240 50853.4 0 648251 49066.7 0 641512 47293.5 0 635020 45533.7 0 628774 43786.8 0 622771 42052.5 0 617010 40330.6 0 611490 38620.5 0 606208 36921.9 0 601164 35234.5 0 596354 33557.8 0 591779 31891.3 0 587436 30234.7 0 583324 28587.5 0 579442 26949.2 0 575788 25319.4 0 572362 23697.7 0 569162 22083.4 0 566187 20476.3 0 563436 18875.7 0 560909 17281.2 0 558604 15692.3 0 556521 14108.5 0 554659 12529.3 0 553017 10954.2 0 551595 9382.62 0 550393 7814.15 0 549410 6248.24 0 548645 4684.39 0 548099 3122.07 0 547771 1560.78 0 547661 0 0 1.02748e+06 -427268 0 1.22806e+06 -347223 0 1.31946e+06 -333640 0 1.39458e+06 -315965 0 1.45269e+06 -298316 0 1.50376e+06 -279280 0 1.54792e+06 -259623 0 1.58714e+06 -239411 0 1.62183e+06 -218884 0 1.65255e+06 -198194 0 1.67953e+06 -177494 0 1.70302e+06 -156918 0 1.72317e+06 -136591 0 1.74012e+06 -116630 0 1.75399e+06 -97141.3 0 1.76492e+06 -78219.7 0 1.77303e+06 -59950.2 0 1.77847e+06 -42405.7 0 1.78138e+06 -25646.2 0 1.78189e+06 -9719.23 0 1.78017e+06 5340.11 0 1.77636e+06 19508.8 0 1.77061e+06 32774.7 0 1.76308e+06 45136 0 1.7539e+06 56599.7 0 1.74322e+06 67180.6 0 1.73117e+06 76900 0 1.71789e+06 85784.3 0 1.7035e+06 93864.6 0 1.68811e+06 101175 0 1.67184e+06 107751 0 1.65479e+06 113631 0 1.63705e+06 118854 0 1.61872e+06 123458 0 1.59988e+06 127482 0 1.5806e+06 130964 0 1.56095e+06 133940 0 1.54101e+06 136447 0 1.52082e+06 138517 0 1.50045e+06 140185 0 1.47995e+06 141481 0 1.45935e+06 142435 0 1.43872e+06 143073 0 1.41807e+06 143423 0 1.39745e+06 143509 0 1.37689e+06 143354 0 1.35641e+06 142978 0 1.33605e+06 142402 0 1.31582e+06 141644 0 1.29575e+06 140722 0 1.27586e+06 139650 0 1.25616e+06 138445 0 1.23666e+06 137118 0 1.21739e+06 135683 0 1.19835e+06 134151 0 1.17956e+06 132532 0 1.16102e+06 130837 0 1.14274e+06 129073 0 1.12474e+06 127250 0 1.107e+06 125374 0 1.08955e+06 123453 0 1.07238e+06 121493 0 1.05551e+06 119499 0 1.03892e+06 117477 0 1.02263e+06 115431 0 1.00663e+06 113366 0 990937 111285 0 975540 109192 0 960443 107091 0 945645 104984 0 931149 102874 0 916951 100764 0 903053 98654.2 0 889454 96548.2 0 876151 94447.2 0 863145 92352.8 0 850433 90266.3 0 838015 88188.9 0 825887 86121.7 0 814050 84065.6 0 802500 82021.3 0 791235 79989.7 0 780255 77971.2 0 769556 75966.3 0 759136 73975.5 0 748994 71999.1 0 739127 70037.3 0 729532 68090.3 0 720209 66158.3 0 711154 64241.2 0 702365 62339.2 0 693840 60452.1 0 685577 58579.9 0 677574 56722.5 0 669828 54879.7 0 662338 53051.4 0 655101 51237.2 0 648115 49437 0 641379 47650.5 0 634890 45877.4 0 628647 44117.3 0 622647 42370 0 616889 40635 0 611372 38912.1 0 606093 37200.7 0 601050 35500.5 0 596243 33811.2 0 591670 32132.1 0 587329 30463 0 583219 28803.4 0 579339 27152.8 0 575687 25510.7 0 572263 23876.7 0 569064 22250.3 0 566091 20631 0 563342 19018.3 0 560815 17411.8 0 558512 15810.9 0 556430 14215.1 0 554569 12623.9 0 552928 11036.9 0 551507 9453.51 0 550305 7873.19 0 549322 6295.45 0 548558 4719.78 0 548012 3145.66 0 547684 1572.58 0 547574 0 0 1.04261e+06 -433560 0 1.23077e+06 -354281 0 1.32257e+06 -337740 0 1.39688e+06 -319206 0 1.45498e+06 -300912 0 1.50587e+06 -281472 0 1.54995e+06 -261487 0 1.58908e+06 -241007 0 1.62369e+06 -220245 0 1.65432e+06 -199344 0 1.68122e+06 -178449 0 1.70462e+06 -157691 0 1.72468e+06 -137194 0 1.74153e+06 -117071 0 1.75531e+06 -97429.8 0 1.76615e+06 -78364.6 0 1.77417e+06 -59960.3 0 1.77951e+06 -42289.8 0 1.78232e+06 -25413.1 0 1.78274e+06 -9377.76 0 1.78093e+06 5781.42 0 1.77703e+06 20041.5 0 1.7712e+06 33390.8 0 1.76358e+06 45827.6 0 1.75432e+06 57359.4 0 1.74357e+06 68001.3 0 1.73145e+06 77775.1 0 1.71811e+06 86707.7 0 1.70366e+06 94830.4 0 1.68822e+06 102178 0 1.67189e+06 108786 0 1.6548e+06 114694 0 1.63702e+06 119940 0 1.61864e+06 124564 0 1.59976e+06 128603 0 1.58045e+06 132098 0 1.56078e+06 135084 0 1.5408e+06 137597 0 1.5206e+06 139672 0 1.50021e+06 141342 0 1.47968e+06 142638 0 1.45908e+06 143590 0 1.43842e+06 144225 0 1.41777e+06 144570 0 1.39714e+06 144650 0 1.37657e+06 144487 0 1.35608e+06 144102 0 1.33572e+06 143517 0 1.31548e+06 142749 0 1.29541e+06 141815 0 1.27552e+06 140731 0 1.25582e+06 139513 0 1.23632e+06 138173 0 1.21705e+06 136724 0 1.19802e+06 135178 0 1.17923e+06 133544 0 1.16069e+06 131834 0 1.14241e+06 130055 0 1.12441e+06 128217 0 1.10668e+06 126325 0 1.08923e+06 124389 0 1.07207e+06 122412 0 1.0552e+06 120402 0 1.03862e+06 118364 0 1.02233e+06 116302 0 1.00634e+06 114220 0 990649 112123 0 975257 110014 0 960166 107897 0 945374 105773 0 930883 103647 0 916691 101520 0 902799 99394.6 0 889205 97272.5 0 875908 95155.5 0 862907 93045.2 0 850201 90942.9 0 837788 88849.7 0 825666 86766.9 0 813834 84695.3 0 802289 82635.6 0 791030 80588.7 0 780054 78555 0 769360 76535.1 0 758946 74529.4 0 748808 72538.1 0 738946 70561.6 0 729356 68600.1 0 720037 66653.5 0 710986 64722.1 0 702201 62805.8 0 693681 60904.6 0 685422 59018.5 0 677422 57147.1 0 669680 55290.6 0 662194 53448.5 0 654960 51620.8 0 647978 49807.2 0 641245 48007.3 0 634759 46220.9 0 628519 44447.7 0 622523 42687.3 0 616768 40939.4 0 611253 39203.5 0 605976 37479.3 0 600937 35766.5 0 596132 34064.4 0 591561 32372.8 0 587222 30691.2 0 583114 29019.2 0 579236 27356.2 0 575586 25701.8 0 572163 24055.6 0 568966 22417 0 565994 20785.6 0 563246 19160.8 0 560722 17542.3 0 558419 15929.4 0 556338 14321.6 0 554478 12718.6 0 552838 11119.6 0 551417 9524.37 0 550216 7932.2 0 549234 6342.64 0 548470 4755.16 0 547924 3169.24 0 547597 1584.36 0 547487 0 0 1.05677e+06 -439451 0 1.23381e+06 -360996 0 1.32567e+06 -341798 0 1.39923e+06 -322411 0 1.45729e+06 -303490 0 1.508e+06 -283649 0 1.552e+06 -263339 0 1.59103e+06 -242592 0 1.62555e+06 -221596 0 1.65609e+06 -200484 0 1.68291e+06 -179395 0 1.70623e+06 -158456 0 1.72619e+06 -137788 0 1.74295e+06 -117504 0 1.75664e+06 -97710.1 0 1.76738e+06 -78501.4 0 1.7753e+06 -59962.5 0 1.78055e+06 -42166.2 0 1.78326e+06 -25172.6 0 1.78359e+06 -9029.08 0 1.78169e+06 6229.64 0 1.7777e+06 20580.8 0 1.77178e+06 34013.1 0 1.76408e+06 46525.1 0 1.75475e+06 58124.6 0 1.74392e+06 68827.2 0 1.73174e+06 78655 0 1.71833e+06 87635.5 0 1.70382e+06 95800.3 0 1.68832e+06 103184 0 1.67195e+06 109824 0 1.6548e+06 115759 0 1.63698e+06 121029 0 1.61857e+06 125671 0 1.59965e+06 129727 0 1.5803e+06 133233 0 1.5606e+06 136229 0 1.5406e+06 138749 0 1.52037e+06 140828 0 1.49996e+06 142500 0 1.47942e+06 143796 0 1.4588e+06 144746 0 1.43813e+06 145378 0 1.41746e+06 145718 0 1.39682e+06 145791 0 1.37624e+06 145620 0 1.35576e+06 145227 0 1.33538e+06 144632 0 1.31515e+06 143853 0 1.29507e+06 142908 0 1.27518e+06 141812 0 1.25547e+06 140581 0 1.23598e+06 139228 0 1.21671e+06 137765 0 1.19768e+06 136204 0 1.17889e+06 134557 0 1.16035e+06 132831 0 1.14208e+06 131037 0 1.12408e+06 129183 0 1.10636e+06 127276 0 1.08891e+06 125323 0 1.07176e+06 123331 0 1.05489e+06 121305 0 1.03831e+06 119250 0 1.02203e+06 117172 0 1.00605e+06 115074 0 990360 112961 0 974974 110835 0 959888 108701 0 945102 106562 0 930616 104419 0 916430 102276 0 902544 100135 0 888955 97996.4 0 875664 95863.5 0 862669 93737.2 0 849968 91619.1 0 837561 89510.3 0 825444 87411.8 0 813617 85324.7 0 802078 83249.6 0 790824 81187.4 0 779853 79138.6 0 769164 77103.6 0 758754 75082.9 0 748622 73076.8 0 738764 71085.6 0 729179 69109.5 0 719864 67148.5 0 710818 65202.8 0 702037 63272.2 0 693521 61356.9 0 685266 59456.7 0 677270 57571.6 0 669532 55701.2 0 662049 53845.5 0 654819 52004.2 0 647840 50177.1 0 641111 48363.9 0 634628 46564.3 0 628391 44777.9 0 622397 43004.4 0 616645 41243.5 0 611133 39494.8 0 605859 37757.8 0 600822 36032.2 0 596020 34317.6 0 591451 32613.4 0 587114 30919.3 0 583009 29234.9 0 579132 27559.5 0 575484 25892.9 0 572063 24234.4 0 568867 22583.6 0 565897 20940.1 0 563150 19303.3 0 560627 17672.7 0 558325 16047.8 0 556245 14428.1 0 554386 12813.1 0 552747 11202.3 0 551327 9595.19 0 550127 7991.19 0 549145 6389.81 0 548381 4790.52 0 547836 3192.81 0 547508 1596.14 0 547399 0 0 1.07008e+06 -444984 0 1.23713e+06 -367395 0 1.32879e+06 -345809 0 1.40163e+06 -325580 0 1.45962e+06 -306051 0 1.51014e+06 -285812 0 1.55406e+06 -265180 0 1.59299e+06 -244168 0 1.62743e+06 -222938 0 1.65788e+06 -201616 0 1.68461e+06 -180333 0 1.70784e+06 -159212 0 1.72772e+06 -138373 0 1.74438e+06 -117928 0 1.75797e+06 -97982.1 0 1.76862e+06 -78630.1 0 1.77644e+06 -59956.8 0 1.7816e+06 -42034.9 0 1.78421e+06 -24924.6 0 1.78445e+06 -8673.16 0 1.78245e+06 6684.79 0 1.77838e+06 21126.8 0 1.77237e+06 34641.6 0 1.76459e+06 47228.4 0 1.75518e+06 58895.3 0 1.74428e+06 69658.2 0 1.73203e+06 79539.8 0 1.71855e+06 88567.7 0 1.70398e+06 96774.3 0 1.68842e+06 104195 0 1.672e+06 110866 0 1.65481e+06 116828 0 1.63694e+06 122120 0 1.61849e+06 126782 0 1.59954e+06 130852 0 1.58016e+06 134371 0 1.56042e+06 137376 0 1.5404e+06 139902 0 1.52015e+06 141985 0 1.49972e+06 143659 0 1.47916e+06 144955 0 1.45852e+06 145903 0 1.43784e+06 146531 0 1.41716e+06 146866 0 1.39651e+06 146933 0 1.37592e+06 146754 0 1.35543e+06 146353 0 1.33505e+06 145748 0 1.31481e+06 144958 0 1.29473e+06 144001 0 1.27483e+06 142893 0 1.25513e+06 141649 0 1.23564e+06 140283 0 1.21637e+06 138806 0 1.19734e+06 137231 0 1.17855e+06 135569 0 1.16002e+06 133828 0 1.14175e+06 132019 0 1.12375e+06 130149 0 1.10603e+06 128227 0 1.08859e+06 126258 0 1.07144e+06 124250 0 1.05458e+06 122207 0 1.038e+06 120136 0 1.02173e+06 118042 0 1.00575e+06 115927 0 990070 113798 0 974689 111656 0 959609 109506 0 944829 107350 0 930349 105191 0 916169 103032 0 902288 100874 0 888705 98720 0 875419 96571.1 0 862430 94428.9 0 849735 92295 0 837332 90170.5 0 825221 88056.4 0 813400 85953.8 0 801865 83863.3 0 790617 81785.8 0 779651 79721.8 0 768967 77671.8 0 758562 75636.2 0 748434 73615.3 0 738581 71609.4 0 729001 69618.7 0 719690 67643.2 0 710648 65683.1 0 701872 63738.4 0 693360 61809 0 685109 59894.8 0 677117 57995.7 0 669383 56111.6 0 661903 54242.3 0 654677 52387.4 0 647702 50546.9 0 640975 48720.3 0 634496 46907.4 0 628262 45107.9 0 622271 43321.4 0 616522 41547.5 0 611013 39785.9 0 605741 38036.2 0 600707 36297.9 0 595907 34570.6 0 591340 32853.9 0 587006 31147.3 0 582902 29450.4 0 579028 27762.8 0 575381 26083.8 0 571962 24413.1 0 568768 22750.2 0 565799 21094.5 0 563054 19445.7 0 560532 17803 0 558231 16166.2 0 556152 14534.5 0 554294 12907.7 0 552656 11285 0 551237 9665.97 0 550037 8050.14 0 549055 6436.95 0 548292 4825.86 0 547747 3216.37 0 547420 1607.92 0 547310 0 0 1.08262e+06 -450197 0 1.24067e+06 -373503 0 1.33192e+06 -349768 0 1.40408e+06 -328714 0 1.46197e+06 -308594 0 1.51231e+06 -287961 0 1.55613e+06 -267009 0 1.59496e+06 -245733 0 1.62931e+06 -224271 0 1.65968e+06 -202739 0 1.68632e+06 -181262 0 1.70946e+06 -159960 0 1.72925e+06 -138950 0 1.74582e+06 -118344 0 1.75932e+06 -98245.8 0 1.76986e+06 -78750.6 0 1.77759e+06 -59943 0 1.78265e+06 -41895.8 0 1.78517e+06 -24669 0 1.78531e+06 -8309.99 0 1.78322e+06 7146.89 0 1.77906e+06 21679.3 0 1.77297e+06 35276.5 0 1.7651e+06 47937.7 0 1.75561e+06 59671.6 0 1.74464e+06 70494.5 0 1.73231e+06 80429.3 0 1.71877e+06 89504.4 0 1.70414e+06 97752.4 0 1.68853e+06 105209 0 1.67205e+06 111912 0 1.65481e+06 117900 0 1.6369e+06 123214 0 1.61841e+06 127894 0 1.59942e+06 131980 0 1.58001e+06 135511 0 1.56025e+06 138524 0 1.5402e+06 141057 0 1.51992e+06 143144 0 1.49947e+06 144820 0 1.47889e+06 146115 0 1.45824e+06 147061 0 1.43755e+06 147685 0 1.41685e+06 148015 0 1.39619e+06 148075 0 1.3756e+06 147889 0 1.3551e+06 147478 0 1.33472e+06 146863 0 1.31447e+06 146063 0 1.29439e+06 145095 0 1.27449e+06 143975 0 1.25479e+06 142718 0 1.2353e+06 141338 0 1.21603e+06 139847 0 1.197e+06 138258 0 1.17821e+06 136580 0 1.15968e+06 134825 0 1.14142e+06 133001 0 1.12342e+06 131115 0 1.10571e+06 129177 0 1.08827e+06 127192 0 1.07112e+06 125168 0 1.05426e+06 123109 0 1.0377e+06 121022 0 1.02143e+06 118911 0 1.00545e+06 116781 0 989779 114635 0 974404 112477 0 959329 110310 0 944555 108138 0 930080 105963 0 915906 103788 0 902031 101614 0 888454 99443.3 0 875174 97278.4 0 862190 95120.3 0 849500 92970.6 0 837103 90830.3 0 824998 88700.7 0 813181 86582.5 0 801652 84476.7 0 790409 82383.9 0 779448 80304.7 0 768769 78239.7 0 758369 76189.2 0 748246 74153.5 0 738398 72132.9 0 728822 70127.6 0 719516 68137.7 0 710478 66163.3 0 701706 64204.3 0 693198 62260.8 0 684951 60332.6 0 676963 58419.7 0 669233 56521.8 0 661757 54638.8 0 654534 52770.4 0 647562 50916.4 0 640839 49076.5 0 634363 47250.4 0 628132 45437.8 0 622145 43638.2 0 616398 41851.4 0 610892 40076.9 0 605623 38314.4 0 600591 36563.4 0 595793 34823.5 0 591229 33094.2 0 586897 31375.2 0 582795 29665.9 0 578922 27965.9 0 575278 26274.7 0 571860 24591.8 0 568668 22916.7 0 565700 21248.9 0 562957 19588 0 560435 17933.3 0 558136 16284.5 0 556058 14640.9 0 554201 13002.1 0 552563 11367.6 0 551145 9736.72 0 549946 8109.06 0 548965 6484.06 0 548202 4861.19 0 547657 3239.91 0 547330 1619.69 0 547220 0 0 1.09446e+06 -455124 0 1.24441e+06 -379343 0 1.33507e+06 -353674 0 1.40657e+06 -331814 0 1.46433e+06 -311119 0 1.51449e+06 -290095 0 1.55822e+06 -268827 0 1.59694e+06 -247288 0 1.63121e+06 -225595 0 1.66149e+06 -203853 0 1.68804e+06 -182182 0 1.71109e+06 -160699 0 1.73078e+06 -139519 0 1.74726e+06 -118752 0 1.76066e+06 -98501.3 0 1.77111e+06 -78863 0 1.77874e+06 -59921.3 0 1.7837e+06 -41748.9 0 1.78613e+06 -24405.9 0 1.78617e+06 -7939.54 0 1.78399e+06 7615.95 0 1.77974e+06 22238.5 0 1.77356e+06 35917.6 0 1.76562e+06 48652.9 0 1.75605e+06 60453.4 0 1.745e+06 71335.9 0 1.7326e+06 81323.7 0 1.719e+06 90445.6 0 1.7043e+06 98734.6 0 1.68864e+06 106227 0 1.67211e+06 112960 0 1.65482e+06 118975 0 1.63686e+06 124311 0 1.61833e+06 129010 0 1.59931e+06 133111 0 1.57987e+06 136653 0 1.56007e+06 139675 0 1.54e+06 142214 0 1.5197e+06 144305 0 1.49922e+06 145982 0 1.47863e+06 147277 0 1.45796e+06 148220 0 1.43725e+06 148841 0 1.41655e+06 149165 0 1.39588e+06 149218 0 1.37528e+06 149024 0 1.35477e+06 148604 0 1.33438e+06 147979 0 1.31413e+06 147168 0 1.29405e+06 146188 0 1.27415e+06 145056 0 1.25444e+06 143786 0 1.23495e+06 142392 0 1.21568e+06 140888 0 1.19666e+06 139284 0 1.17787e+06 137592 0 1.15935e+06 135822 0 1.14108e+06 133982 0 1.12309e+06 132081 0 1.10538e+06 130127 0 1.08795e+06 128126 0 1.07081e+06 126086 0 1.05395e+06 124011 0 1.03739e+06 121908 0 1.02113e+06 119781 0 1.00516e+06 117634 0 989488 115471 0 974118 113297 0 959049 111114 0 944280 108926 0 929811 106734 0 915642 104543 0 901773 102353 0 888201 100166 0 874927 97985.3 0 861949 95811.4 0 849265 93645.8 0 836873 91489.9 0 824773 89344.6 0 812962 87211 0 801438 85089.8 0 790200 82981.7 0 779245 80887.4 0 768571 78807.3 0 758175 76741.8 0 748057 74691.4 0 738213 72656.1 0 728642 70636.2 0 719341 68631.9 0 710307 66643.2 0 701540 64670 0 693036 62712.4 0 684793 60770.2 0 676809 58843.4 0 669082 56931.8 0 661610 55035.1 0 654391 53153.2 0 647422 51285.8 0 640703 49432.6 0 634230 47593.2 0 628002 45767.4 0 622017 43954.8 0 616274 42155.1 0 610770 40367.7 0 605504 38592.4 0 600474 36828.7 0 595679 35076.2 0 591117 33334.4 0 586787 31602.9 0 582687 29881.2 0 578817 28168.9 0 575174 26465.4 0 571758 24770.3 0 568567 23083.1 0 565601 21403.2 0 562859 19730.2 0 560339 18063.5 0 558041 16402.7 0 555964 14747.2 0 554107 13096.5 0 552471 11450.1 0 551053 9807.43 0 549854 8167.96 0 548874 6531.15 0 548112 4896.49 0 547567 3263.44 0 547240 1631.45 0 547130 0 0 1.10569e+06 -459792 0 1.24831e+06 -384934 0 1.33823e+06 -357524 0 1.4091e+06 -334879 0 1.46671e+06 -313624 0 1.5167e+06 -292214 0 1.56031e+06 -270633 0 1.59894e+06 -248832 0 1.63311e+06 -226909 0 1.6633e+06 -204958 0 1.68977e+06 -183094 0 1.71273e+06 -161430 0 1.73233e+06 -140079 0 1.74871e+06 -119151 0 1.76202e+06 -98748.4 0 1.77237e+06 -78967.1 0 1.7799e+06 -59891.5 0 1.78476e+06 -41594.1 0 1.78709e+06 -24135.2 0 1.78704e+06 -7561.79 0 1.78477e+06 8092 0 1.78042e+06 22804.4 0 1.77416e+06 36565 0 1.76613e+06 49374 0 1.75648e+06 61240.8 0 1.74536e+06 72182.5 0 1.7329e+06 82222.9 0 1.71922e+06 91391.3 0 1.70447e+06 99720.9 0 1.68875e+06 107248 0 1.67216e+06 114013 0 1.65483e+06 120053 0 1.63683e+06 125411 0 1.61826e+06 130128 0 1.59919e+06 134243 0 1.57972e+06 137797 0 1.5599e+06 140828 0 1.5398e+06 143372 0 1.51947e+06 145467 0 1.49898e+06 147145 0 1.47837e+06 148439 0 1.45768e+06 149380 0 1.43696e+06 149997 0 1.41624e+06 150315 0 1.39556e+06 150362 0 1.37495e+06 150160 0 1.35444e+06 149731 0 1.33405e+06 149096 0 1.3138e+06 148274 0 1.29371e+06 147282 0 1.2738e+06 146137 0 1.2541e+06 144854 0 1.23461e+06 143447 0 1.21534e+06 141929 0 1.19631e+06 140311 0 1.17753e+06 138604 0 1.15901e+06 136818 0 1.14075e+06 134963 0 1.12276e+06 133047 0 1.10505e+06 131077 0 1.08763e+06 129060 0 1.07049e+06 127004 0 1.05364e+06 124913 0 1.03708e+06 122793 0 1.02082e+06 120650 0 1.00486e+06 118486 0 989195 116308 0 973831 114117 0 958767 111918 0 944004 109713 0 929541 107505 0 915378 105297 0 901514 103091 0 887948 100889 0 874680 98691.9 0 861707 96502.1 0 849028 94320.7 0 836642 92149.1 0 824548 89988.2 0 812742 87839.1 0 801223 85702.5 0 789990 83579.2 0 779040 81469.7 0 768371 79374.6 0 757981 77294.3 0 747867 75229 0 738028 73179 0 728462 71144.6 0 719165 69125.9 0 710136 67122.8 0 701372 65135.4 0 692872 63163.7 0 684633 61207.6 0 676654 59267 0 668930 57341.6 0 661462 55431.3 0 654247 53535.8 0 647282 51655 0 640565 49788.4 0 634096 47935.9 0 627871 46096.9 0 621889 44271.3 0 616148 42458.6 0 610647 40658.4 0 605384 38870.3 0 600356 37093.9 0 595564 35328.8 0 591004 33574.5 0 586676 31830.6 0 582579 30096.5 0 578710 28371.8 0 575069 26656.1 0 571655 24948.7 0 568466 23249.4 0 565501 21557.4 0 562760 19872.3 0 560241 18193.7 0 557945 16520.9 0 555869 14853.5 0 554013 13190.9 0 552377 11532.6 0 550960 9878.11 0 549762 8226.82 0 548782 6578.22 0 548020 4931.78 0 547476 3286.96 0 547149 1643.21 0 547040 0 0 1.11636e+06 -464229 0 1.25233e+06 -390296 0 1.34142e+06 -361316 0 1.41167e+06 -337910 0 1.46911e+06 -316111 0 1.51892e+06 -294319 0 1.56243e+06 -272428 0 1.60095e+06 -250367 0 1.63503e+06 -228213 0 1.66513e+06 -206054 0 1.69151e+06 -183997 0 1.71437e+06 -162152 0 1.73388e+06 -140630 0 1.75017e+06 -119541 0 1.76338e+06 -98987.1 0 1.77363e+06 -79063.1 0 1.78107e+06 -59853.6 0 1.78583e+06 -41431.5 0 1.78806e+06 -238