<?xml version="1.0"?> 
<VTKFile type="StructuredGrid" version="0.1"> 
<StructuredGrid WholeExtent="0 127 0 127 0 0"> 
<Piece Extent="0 127 0 127 0 0"> 
<PointData>
<DataArray type="Float32" Name="|E|" format="ascii" NumberOfComponents="3"> 
-1.841e+06 0 0 -1.84111e+06 12405.3 0 -1.84144e+06 24813.9 0 -1.84199e+06 37229.1 0 -1.84275e+06 49654.3 0 -1.84373e+06 62092.7 0 -1.84493e+06 74547.8 0 -1.84635e+06 87022.9 0 -1.84799e+06 99521.4 0 -1.84984e+06 112047 0 -1.85191e+06 124602 0 -1.8542e+06 137192 0 -1.85671e+06 149818 0 -1.85943e+06 162485 0 -1.86237e+06 175197 0 -1.86553e+06 187957 0 -1.86891e+06 200768 0 -1.8725e+06 213635 0 -1.87631e+06 226561 0 -1.88034e+06 239550 0 -1.88458e+06 252606 0 -1.88904e+06 265734 0 -1.89372e+06 278936 0 -1.89861e+06 292218 0 -1.90371e+06 305584 0 -1.90903e+06 319038 0 -1.91456e+06 332585 0 -1.92031e+06 346229 0 -1.92627e+06 359975 0 -1.93244e+06 373828 0 -1.93882e+06 387793 0 -1.94542e+06 401875 0 -1.95222e+06 416080 0 -1.95923e+06 430412 0 -1.96644e+06 444878 0 -1.97387e+06 459484 0 -1.98149e+06 474235 0 -1.98932e+06 489138 0 -1.99734e+06 504200 0 -2.00557e+06 519427 0 -2.01399e+06 534827 0 -2.0226e+06 550406 0 -2.0314e+06 566172 0 -2.04039e+06 582134 0 -2.04956e+06 598299 0 -2.05891e+06 614677 0 -2.06843e+06 631276 0 -2.07813e+06 648106 0 -2.08798e+06 665177 0 -2.098e+06 682499 0 -2.10816e+06 700083 0 -2.11847e+06 717941 0 -2.12891e+06 736085 0 -2.13948e+06 754527 0 -2.15016e+06 773280 0 -2.16095e+06 792358 0 -2.17183e+06 811777 0 -2.18279e+06 831550 0 -2.1938e+06 851695 0 -2.20486e+06 872228 0 -2.21595e+06 893167 0 -2.22703e+06 914529 0 -2.23809e+06 936334 0 -2.2491e+06 958602 0 -2.26002e+06 981352 0 -2.27083e+06 1.00461e+06 0 -2.28147e+06 1.02839e+06 0 -2.29192e+06 1.05271e+06 0 -2.30211e+06 1.07761e+06 0 -2.31199e+06 1.10309e+06 0 -2.3215e+06 1.12918e+06 0 -2.33057e+06 1.1559e+06 0 -2.33913e+06 1.18325e+06 0 -2.34707e+06 1.21127e+06 0 -2.3543e+06 1.23995e+06 0 -2.36073e+06 1.26929e+06 0 -2.36621e+06 1.29928e+06 0 -2.37062e+06 1.32992e+06 0 -2.37382e+06 1.36117e+06 0 -2.37563e+06 1.39298e+06 0 -2.3759e+06 1.42529e+06 0 -2.37444e+06 1.458e+06 0 -2.37104e+06 1.49099e+06 0 -2.36553e+06 1.52412e+06 0 -2.35768e+06 1.55718e+06 0 -2.34732e+06 1.58994e+06 0 -2.33426e+06 1.62211e+06 0 -2.31834e+06 1.65337e+06 0 -2.29944e+06 1.68333e+06 0 -2.2775e+06 1.71157e+06 0 -2.2525e+06 1.73763e+06 0 -2.2245e+06 1.76101e+06 0 -2.19365e+06 1.78123e+06 0 -2.16019e+06 1.7978e+06 0 -2.12444e+06 1.81026e+06 0 -2.08678e+06 1.8182e+06 0 -2.04771e+06 1.82129e+06 0 -2.00772e+06 1.81928e+06 0 -1.96736e+06 1.81201e+06 0 -1.92718e+06 1.79943e+06 0 -1.88769e+06 1.78156e+06 0 -1.84939e+06 1.75851e+06 0 -1.8127e+06 1.73047e+06 0 -1.77798e+06 1.69763e+06 0 -1.74553e+06 1.66026e+06 0 -1.71558e+06 1.61859e+06 0 -1.68829e+06 1.5729e+06 0 -1.66375e+06 1.5234e+06 0 -1.64202e+06 1.47029e+06 0 -1.6231e+06 1.41373e+06 0 -1.60695e+06 1.35385e+06 0 -1.59353e+06 1.2907e+06 0 -1.58275e+06 1.22428e+06 0 -1.5745e+06 1.15455e+06 0 -1.56869e+06 1.08136e+06 0 -1.56519e+06 1.00453e+06 0 -1.56388e+06 923723 0 -1.56469e+06 838538 0 -1.56762e+06 748457 0 -1.57258e+06 652849 0 -1.57952e+06 550249 0 -1.58988e+06 439048 0 -1.60669e+06 318447 0 -1.62756e+06 189059 0 -1.64813e+06 22267.9 0 -1.7334e+06 -202063 0 -2.05843e+06 -409241 0 -2.66156e+06 0 0 -1.83976e+06 0 0 -1.83987e+06 12427.1 0 -1.8402e+06 24857.4 0 -1.84074e+06 37294.4 0 -1.84151e+06 49741.4 0 -1.84249e+06 62201.7 0 -1.84368e+06 74678.5 0 -1.8451e+06 87175.4 0 -1.84673e+06 99695.7 0 -1.84858e+06 112243 0 -1.85065e+06 124820 0 -1.85294e+06 137431 0 -1.85544e+06 150079 0 -1.85816e+06 162768 0 -1.8611e+06 175502 0 -1.86425e+06 188283 0 -1.86762e+06 201116 0 -1.87121e+06 214004 0 -1.87502e+06 226952 0 -1.87904e+06 239963 0 -1.88327e+06 253041 0 -1.88772e+06 266190 0 -1.89239e+06 279414 0 -1.89727e+06 292718 0 -1.90237e+06 306105 0 -1.90768e+06 319581 0 -1.9132e+06 333149 0 -1.91894e+06 346814 0 -1.92489e+06 360581 0 -1.93105e+06 374455 0 -1.93742e+06 388441 0 -1.944e+06 402544 0 -1.95079e+06 416769 0 -1.95779e+06 431123 0 -1.96499e+06 445609 0 -1.9724e+06 460235 0 -1.98001e+06 475007 0 -1.98782e+06 489930 0 -1.99583e+06 505012 0 -2.00404e+06 520259 0 -2.01244e+06 535677 0 -2.02103e+06 551276 0 -2.02981e+06 567061 0 -2.03878e+06 583041 0 -2.04793e+06 599224 0 -2.05726e+06 615620 0 -2.06676e+06 632236 0 -2.07643e+06 649082 0 -2.08626e+06 666169 0 -2.09625e+06 683507 0 -2.10639e+06 701106 0 -2.11667e+06 718978 0 -2.12708e+06 737134 0 -2.13762e+06 755588 0 -2.14827e+06 774352 0 -2.15903e+06 793440 0 -2.16987e+06 812867 0 -2.18079e+06 832648 0 -2.19177e+06 852798 0 -2.20279e+06 873334 0 -2.21383e+06 894273 0 -2.22487e+06 915634 0 -2.23589e+06 937436 0 -2.24685e+06 959697 0 -2.25772e+06 982437 0 -2.26847e+06 1.00568e+06 0 -2.27907e+06 1.02944e+06 0 -2.28946e+06 1.05374e+06 0 -2.29959e+06 1.07861e+06 0 -2.30941e+06 1.10406e+06 0 -2.31887e+06 1.13011e+06 0 -2.32787e+06 1.15677e+06 0 -2.33636e+06 1.18408e+06 0 -2.34424e+06 1.21203e+06 0 -2.35141e+06 1.24063e+06 0 -2.35776e+06 1.26988e+06 0 -2.36318e+06 1.29978e+06 0 -2.36753e+06 1.3303e+06 0 -2.37067e+06 1.36142e+06 0 -2.37244e+06 1.39309e+06 0 -2.37266e+06 1.42523e+06 0 -2.37116e+06 1.45776e+06 0 -2.36775e+06 1.49055e+06 0 -2.36222e+06 1.52345e+06 0 -2.3544e+06 1.55627e+06 0 -2.34408e+06 1.58877e+06 0 -2.33109e+06 1.62067e+06 0 -2.31529e+06 1.65164e+06 0 -2.29654e+06 1.6813e+06 0 -2.27479e+06 1.70923e+06 0 -2.25003e+06 1.73499e+06 0 -2.22233e+06 1.75808e+06 0 -2.19182e+06 1.77803e+06 0 -2.15875e+06 1.79435e+06 0 -2.12342e+06 1.8066e+06 0 -2.08624e+06 1.81438e+06 0 -2.04765e+06 1.81735e+06 0 -2.00818e+06 1.81528e+06 0 -1.96835e+06 1.808e+06 0 -1.9287e+06 1.79546e+06 0 -1.88973e+06 1.77769e+06 0 -1.85194e+06 1.75478e+06 0 -1.81573e+06 1.72691e+06 0 -1.78148e+06 1.69429e+06 0 -1.74948e+06 1.65715e+06 0 -1.71994e+06 1.61575e+06 0 -1.69304e+06 1.57033e+06 0 -1.66887e+06 1.5211e+06 0 -1.64749e+06 1.46827e+06 0 -1.62891e+06 1.412e+06 0 -1.61309e+06 1.35239e+06 0 -1.6e+06 1.28951e+06 0 -1.58954e+06 1.22335e+06 0 -1.58163e+06 1.15387e+06 0 -1.57617e+06 1.08092e+06 0 -1.57305e+06 1.00431e+06 0 -1.57216e+06 923722 0 -1.57343e+06 838749 0 -1.57688e+06 748886 0 -1.58243e+06 653466 0 -1.59018e+06 551159 0 -1.60143e+06 440365 0 -1.61918e+06 320600 0 -1.64099e+06 190797 0 -1.66785e+06 27742.3 0 -1.75739e+06 -185549 0 -2.07201e+06 -356399 0 -2.57069e+06 -1.54227e-06 0 -1.83852e+06 0 0 -1.83863e+06 12448.8 0 -1.83895e+06 24900.9 0 -1.8395e+06 37359.7 0 -1.84026e+06 49828.4 0 -1.84124e+06 62310.4 0 -1.84244e+06 74809.1 0 -1.84385e+06 87327.7 0 -1.84548e+06 99869.7 0 -1.84733e+06 112438 0 -1.84939e+06 125038 0 -1.85167e+06 137670 0 -1.85417e+06 150340 0 -1.85689e+06 163051 0 -1.85982e+06 175806 0 -1.86297e+06 188609 0 -1.86634e+06 201464 0 -1.86992e+06 214374 0 -1.87372e+06 227343 0 -1.87773e+06 240375 0 -1.88196e+06 253475 0 -1.8864e+06 266645 0 -1.89106e+06 279891 0 -1.89594e+06 293216 0 -1.90102e+06 306625 0 -1.90633e+06 320122 0 -1.91184e+06 333711 0 -1.91757e+06 347398 0 -1.92351e+06 361186 0 -1.92966e+06 375081 0 -1.93602e+06 389088 0 -1.94258e+06 403212 0 -1.94936e+06 417458 0 -1.95634e+06 431832 0 -1.96353e+06 446339 0 -1.97093e+06 460986 0 -1.97852e+06 475777 0 -1.98632e+06 490721 0 -1.99431e+06 505822 0 -2.0025e+06 521088 0 -2.01089e+06 536526 0 -2.01946e+06 552143 0 -2.02822e+06 567947 0 -2.03717e+06 583946 0 -2.0463e+06 600147 0 -2.05561e+06 616560 0 -2.06509e+06 633193 0 -2.07473e+06 650056 0 -2.08454e+06 667159 0 -2.0945e+06 684512 0 -2.10461e+06 702126 0 -2.11487e+06 720011 0 -2.12525e+06 738180 0 -2.13576e+06 756646 0 -2.14638e+06 775421 0 -2.1571e+06 794519 0 -2.16791e+06 813954 0 -2.1788e+06 833741 0 -2.18974e+06 853896 0 -2.20072e+06 874435 0 -2.21172e+06 895376 0 -2.22271e+06 916735 0 -2.23368e+06 938533 0 -2.2446e+06 960787 0 -2.25542e+06 983517 0 -2.26613e+06 1.00674e+06 0 -2.27667e+06 1.03049e+06 0 -2.287e+06 1.05477e+06 0 -2.29708e+06 1.0796e+06 0 -2.30684e+06 1.10502e+06 0 -2.31623e+06 1.13103e+06 0 -2.32518e+06 1.15765e+06 0 -2.3336e+06 1.18489e+06 0 -2.34141e+06 1.21278e+06 0 -2.34852e+06 1.2413e+06 0 -2.35481e+06 1.27047e+06 0 -2.36017e+06 1.30027e+06 0 -2.36446e+06 1.33068e+06 0 -2.36754e+06 1.36167e+06 0 -2.36925e+06 1.39319e+06 0 -2.36943e+06 1.42517e+06 0 -2.3679e+06 1.45751e+06 0 -2.36447e+06 1.49011e+06 0 -2.35895e+06 1.52279e+06 0 -2.35114e+06 1.55537e+06 0 -2.34087e+06 1.58761e+06 0 -2.32796e+06 1.61924e+06 0 -2.31226e+06 1.64992e+06 0 -2.29367e+06 1.67928e+06 0 -2.27212e+06 1.70692e+06 0 -2.2476e+06 1.73238e+06 0 -2.22018e+06 1.75519e+06 0 -2.19001e+06 1.77487e+06 0 -2.15732e+06 1.79095e+06 0 -2.12242e+06 1.80299e+06 0 -2.0857e+06 1.8106e+06 0 -2.04761e+06 1.81346e+06 0 -2.00865e+06 1.81133e+06 0 -1.96934e+06 1.80404e+06 0 -1.93021e+06 1.79155e+06 0 -1.89176e+06 1.77387e+06 0 -1.85447e+06 1.7511e+06 0 -1.81875e+06 1.72341e+06 0 -1.78496e+06 1.691e+06 0 -1.7534e+06 1.6541e+06 0 -1.72427e+06 1.61295e+06 0 -1.69776e+06 1.56779e+06 0 -1.67396e+06 1.51884e+06 0 -1.65293e+06 1.46629e+06 0 -1.63469e+06 1.4103e+06 0 -1.6192e+06 1.35096e+06 0 -1.60644e+06 1.28835e+06 0 -1.59631e+06 1.22245e+06 0 -1.58874e+06 1.15322e+06 0 -1.58363e+06 1.08051e+06 0 -1.58089e+06 1.00413e+06 0 -1.58041e+06 923765 0 -1.58215e+06 839010 0 -1.58612e+06 749368 0 -1.59227e+06 654156 0 -1.60079e+06 552144 0 -1.61294e+06 441801 0 -1.63154e+06 322771 0 -1.65459e+06 192993 0 -1.68662e+06 33490.1 0 -1.78011e+06 -168420 0 -2.08028e+06 -310428 0 -2.4952e+06 2.6077e-06 0 -1.83727e+06 0 0 -1.83738e+06 12470.5 0 -1.83771e+06 24944.4 0 -1.83825e+06 37424.9 0 -1.83901e+06 49915.3 0 -1.83999e+06 62419 0 -1.84118e+06 74939.4 0 -1.84259e+06 87479.7 0 -1.84422e+06 100043 0 -1.84607e+06 112634 0 -1.84813e+06 125255 0 -1.85041e+06 137909 0 -1.8529e+06 150601 0 -1.85561e+06 163333 0 -1.85854e+06 176110 0 -1.86169e+06 188934 0 -1.86505e+06 201811 0 -1.86862e+06 214742 0 -1.87242e+06 227733 0 -1.87642e+06 240787 0 -1.88064e+06 253908 0 -1.88508e+06 267100 0 -1.88973e+06 280367 0 -1.8946e+06 293714 0 -1.89968e+06 307144 0 -1.90497e+06 320662 0 -1.91048e+06 334273 0 -1.91619e+06 347980 0 -1.92212e+06 361790 0 -1.92826e+06 375706 0 -1.93461e+06 389734 0 -1.94116e+06 403879 0 -1.94793e+06 418145 0 -1.9549e+06 432540 0 -1.96207e+06 447067 0 -1.96945e+06 461734 0 -1.97703e+06 476546 0 -1.98481e+06 491509 0 -1.99279e+06 506630 0 -2.00097e+06 521916 0 -2.00933e+06 537373 0 -2.01789e+06 553009 0 -2.02663e+06 568832 0 -2.03556e+06 584849 0 -2.04467e+06 601068 0 -2.05396e+06 617498 0 -2.06341e+06 634148 0 -2.07303e+06 651028 0 -2.08282e+06 668147 0 -2.09275e+06 685515 0 -2.10284e+06 703142 0 -2.11306e+06 721042 0 -2.12342e+06 739224 0 -2.1339e+06 757701 0 -2.14449e+06 776487 0 -2.15517e+06 795594 0 -2.16595e+06 815037 0 -2.1768e+06 834831 0 -2.1877e+06 854991 0 -2.19864e+06 875533 0 -2.2096e+06 896474 0 -2.22056e+06 917832 0 -2.23148e+06 939625 0 -2.24235e+06 961872 0 -2.25313e+06 984591 0 -2.26378e+06 1.0078e+06 0 -2.27427e+06 1.03153e+06 0 -2.28454e+06 1.05579e+06 0 -2.29457e+06 1.08059e+06 0 -2.30427e+06 1.10597e+06 0 -2.3136e+06 1.13194e+06 0 -2.32249e+06 1.15852e+06 0 -2.33085e+06 1.18571e+06 0 -2.3386e+06 1.21352e+06 0 -2.34564e+06 1.24197e+06 0 -2.35187e+06 1.27105e+06 0 -2.35716e+06 1.30075e+06 0 -2.36139e+06 1.33104e+06 0 -2.36442e+06 1.36191e+06 0 -2.36608e+06 1.39328e+06 0 -2.36622e+06 1.4251e+06 0 -2.36466e+06 1.45727e+06 0 -2.36121e+06 1.48966e+06 0 -2.35569e+06 1.52213e+06 0 -2.34791e+06 1.55447e+06 0 -2.33769e+06 1.58646e+06 0 -2.32485e+06 1.61781e+06 0 -2.30927e+06 1.64821e+06 0 -2.29083e+06 1.67728e+06 0 -2.26947e+06 1.70462e+06 0 -2.24519e+06 1.72979e+06 0 -2.21806e+06 1.75232e+06 0 -2.18823e+06 1.77174e+06 0 -2.15592e+06 1.78758e+06 0 -2.12144e+06 1.79942e+06 0 -2.08518e+06 1.80688e+06 0 -2.04758e+06 1.80963e+06 0 -2.00912e+06 1.80743e+06 0 -1.97033e+06 1.80014e+06 0 -1.93172e+06 1.78769e+06 0 -1.89378e+06 1.7701e+06 0 -1.85699e+06 1.74747e+06 0 -1.82175e+06 1.71995e+06 0 -1.78842e+06 1.68775e+06 0 -1.75729e+06 1.65108e+06 0 -1.72858e+06 1.61019e+06 0 -1.70246e+06 1.56529e+06 0 -1.67902e+06 1.51662e+06 0 -1.65835e+06 1.46435e+06 0 -1.64044e+06 1.40863e+06 0 -1.62529e+06 1.34957e+06 0 -1.61285e+06 1.28722e+06 0 -1.60305e+06 1.22159e+06 0 -1.59582e+06 1.1526e+06 0 -1.59107e+06 1.08014e+06 0 -1.58871e+06 1.00399e+06 0 -1.58865e+06 923851 0 -1.59085e+06 839320 0 -1.59533e+06 749903 0 -1.60208e+06 654916 0 -1.61136e+06 553207 0 -1.6244e+06 443343 0 -1.64382e+06 324994 0 -1.66826e+06 195567 0 -1.70459e+06 39530.6 0 -1.80136e+06 -151113 0 -2.08482e+06 -270248 0 -2.43222e+06 -1.81049e-06 0 -1.83602e+06 0 0 -1.83613e+06 12492.2 0 -1.83646e+06 24987.8 0 -1.837e+06 37489.9 0 -1.83776e+06 50002.1 0 -1.83874e+06 62527.5 0 -1.83993e+06 75069.5 0 -1.84134e+06 87631.5 0 -1.84296e+06 100217 0 -1.84481e+06 112829 0 -1.84686e+06 125471 0 -1.84914e+06 138147 0 -1.85163e+06 150861 0 -1.85434e+06 163615 0 -1.85726e+06 176413 0 -1.8604e+06 189259 0 -1.86376e+06 202157 0 -1.86733e+06 215110 0 -1.87111e+06 228123 0 -1.87511e+06 241198 0 -1.87933e+06 254341 0 -1.88376e+06 267554 0 -1.8884e+06 280843 0 -1.89326e+06 294211 0 -1.89833e+06 307662 0 -1.90361e+06 321201 0 -1.90911e+06 334833 0 -1.91482e+06 348562 0 -1.92073e+06 362393 0 -1.92686e+06 376330 0 -1.9332e+06 390378 0 -1.93974e+06 404544 0 -1.94649e+06 418831 0 -1.95345e+06 433246 0 -1.96061e+06 447794 0 -1.96798e+06 462481 0 -1.97554e+06 477313 0 -1.98331e+06 492296 0 -1.99127e+06 507437 0 -1.99943e+06 522742 0 -2.00778e+06 538219 0 -2.01632e+06 553874 0 -2.02504e+06 569715 0 -2.03395e+06 585750 0 -2.04304e+06 601987 0 -2.0523e+06 618434 0 -2.06173e+06 635101 0 -2.07133e+06 651997 0 -2.08109e+06 669131 0 -2.091e+06 686514 0 -2.10106e+06 704157 0 -2.11126e+06 722069 0 -2.12159e+06 740264 0 -2.13203e+06 758753 0 -2.14259e+06 777549 0 -2.15325e+06 796666 0 -2.16399e+06 816117 0 -2.1748e+06 835917 0 -2.18567e+06 856081 0 -2.19657e+06 876626 0 -2.20749e+06 897568 0 -2.2184e+06 918924 0 -2.22928e+06 940713 0 -2.2401e+06 962952 0 -2.25083e+06 985661 0 -2.26143e+06 1.00886e+06 0 -2.27187e+06 1.03257e+06 0 -2.28209e+06 1.0568e+06 0 -2.29206e+06 1.08158e+06 0 -2.30171e+06 1.10692e+06 0 -2.31098e+06 1.13285e+06 0 -2.3198e+06 1.15938e+06 0 -2.3281e+06 1.18651e+06 0 -2.33579e+06 1.21426e+06 0 -2.34277e+06 1.24263e+06 0 -2.34893e+06 1.27163e+06 0 -2.35417e+06 1.30122e+06 0 -2.35834e+06 1.33141e+06 0 -2.36131e+06 1.36214e+06 0 -2.36293e+06 1.39337e+06 0 -2.36303e+06 1.42503e+06 0 -2.36144e+06 1.45702e+06 0 -2.35798e+06 1.48922e+06 0 -2.35246e+06 1.52147e+06 0 -2.3447e+06 1.55358e+06 0 -2.33453e+06 1.58531e+06 0 -2.32177e+06 1.6164e+06 0 -2.30631e+06 1.64652e+06 0 -2.28802e+06 1.6753e+06 0 -2.26685e+06 1.70235e+06 0 -2.24281e+06 1.72723e+06 0 -2.21597e+06 1.74948e+06 0 -2.18647e+06 1.76864e+06 0 -2.15454e+06 1.78426e+06 0 -2.12048e+06 1.7959e+06 0 -2.08467e+06 1.8032e+06 0 -2.04755e+06 1.80584e+06 0 -2.0096e+06 1.80358e+06 0 -1.97131e+06 1.79629e+06 0 -1.93322e+06 1.78388e+06 0 -1.89579e+06 1.76638e+06 0 -1.85949e+06 1.74389e+06 0 -1.82473e+06 1.71654e+06 0 -1.79186e+06 1.68454e+06 0 -1.76116e+06 1.64811e+06 0 -1.73286e+06 1.60746e+06 0 -1.70712e+06 1.56283e+06 0 -1.68406e+06 1.51443e+06 0 -1.66374e+06 1.46244e+06 0 -1.64617e+06 1.40699e+06 0 -1.63135e+06 1.34821e+06 0 -1.61923e+06 1.28613e+06 0 -1.60977e+06 1.22075e+06 0 -1.60288e+06 1.15202e+06 0 -1.59848e+06 1.0798e+06 0 -1.5965e+06 1.00389e+06 0 -1.59686e+06 923981 0 -1.59952e+06 839679 0 -1.60452e+06 750494 0 -1.61187e+06 655745 0 -1.62188e+06 554348 0 -1.6358e+06 444980 0 -1.65601e+06 327288 0 -1.68192e+06 198462 0 -1.72187e+06 45850.3 0 -1.8211e+06 -133923 0 -2.08678e+06 -235019 0 -2.37945e+06 4.61936e-07 0 -1.83477e+06 0 0 -1.83488e+06 12513.9 0 -1.83521e+06 25031.1 0 -1.83575e+06 37554.9 0 -1.83651e+06 50088.7 0 -1.83748e+06 62635.7 0 -1.83867e+06 75199.4 0 -1.84008e+06 87783 0 -1.8417e+06 100390 0 -1.84354e+06 113024 0 -1.8456e+06 125688 0 -1.84787e+06 138386 0 -1.85036e+06 151120 0 -1.85306e+06 163896 0 -1.85598e+06 176716 0 -1.85911e+06 189584 0 -1.86246e+06 202503 0 -1.86603e+06 215478 0 -1.86981e+06 228512 0 -1.8738e+06 241609 0 -1.87801e+06 254773 0 -1.88243e+06 268007 0 -1.88707e+06 281317 0 -1.89192e+06 294707 0 -1.89698e+06 308179 0 -1.90225e+06 321740 0 -1.90774e+06 335393 0 -1.91344e+06 349143 0 -1.91934e+06 362994 0 -1.92546e+06 376952 0 -1.93179e+06 391022 0 -1.93832e+06 405208 0 -1.94506e+06 419516 0 -1.952e+06 433952 0 -1.95915e+06 448520 0 -1.9665e+06 463227 0 -1.97405e+06 478079 0 -1.9818e+06 493082 0 -1.98975e+06 508242 0 -1.99789e+06 523567 0 -2.00622e+06 539062 0 -2.01474e+06 554736 0 -2.02345e+06 570595 0 -2.03234e+06 586648 0 -2.0414e+06 602903 0 -2.05064e+06 619368 0 -2.06005e+06 636052 0 -2.06963e+06 652964 0 -2.07936e+06 670114 0 -2.08925e+06 687512 0 -2.09928e+06 705168 0 -2.10945e+06 723094 0 -2.11975e+06 741302 0 -2.13017e+06 759802 0 -2.1407e+06 778609 0 -2.15132e+06 797734 0 -2.16203e+06 817193 0 -2.1728e+06 836999 0 -2.18363e+06 857168 0 -2.19449e+06 877716 0 -2.20537e+06 898658 0 -2.21624e+06 920012 0 -2.22708e+06 941796 0 -2.23785e+06 964028 0 -2.24854e+06 986726 0 -2.25909e+06 1.00991e+06 0 -2.26947e+06 1.0336e+06 0 -2.27964e+06 1.05781e+06 0 -2.28955e+06 1.08256e+06 0 -2.29915e+06 1.10787e+06 0 -2.30836e+06 1.13375e+06 0 -2.31712e+06 1.16023e+06 0 -2.32536e+06 1.18731e+06 0 -2.33298e+06 1.21499e+06 0 -2.3399e+06 1.24329e+06 0 -2.34601e+06 1.27219e+06 0 -2.35118e+06 1.30169e+06 0 -2.3553e+06 1.33176e+06 0 -2.35822e+06 1.36237e+06 0 -2.35979e+06 1.39346e+06 0 -2.35985e+06 1.42496e+06 0 -2.35824e+06 1.45677e+06 0 -2.35476e+06 1.48877e+06 0 -2.34925e+06 1.52081e+06 0 -2.34152e+06 1.55268e+06 0 -2.3314e+06 1.58417e+06 0 -2.31872e+06 1.61499e+06 0 -2.30337e+06 1.64484e+06 0 -2.28523e+06 1.67334e+06 0 -2.26426e+06 1.7001e+06 0 -2.24046e+06 1.7247e+06 0 -2.21391e+06 1.74668e+06 0 -2.18474e+06 1.76558e+06 0 -2.15318e+06 1.78097e+06 0 -2.11954e+06 1.79242e+06 0 -2.08418e+06 1.79957e+06 0 -2.04753e+06 1.8021e+06 0 -2.01007e+06 1.79979e+06 0 -1.9723e+06 1.79248e+06 0 -1.93471e+06 1.78012e+06 0 -1.89779e+06 1.76271e+06 0 -1.86198e+06 1.74035e+06 0 -1.82769e+06 1.71318e+06 0 -1.79527e+06 1.68138e+06 0 -1.76501e+06 1.64518e+06 0 -1.73711e+06 1.60478e+06 0 -1.71177e+06 1.56041e+06 0 -1.68907e+06 1.51228e+06 0 -1.6691e+06 1.46056e+06 0 -1.65187e+06 1.40539e+06 0 -1.63738e+06 1.34688e+06 0 -1.62559e+06 1.28507e+06 0 -1.61646e+06 1.21996e+06 0 -1.60991e+06 1.15148e+06 0 -1.60587e+06 1.07951e+06 0 -1.60427e+06 1.00383e+06 0 -1.60505e+06 924155 0 -1.60817e+06 840087 0 -1.61368e+06 751139 0 -1.62163e+06 656641 0 -1.63237e+06 555567 0 -1.64714e+06 446706 0 -1.66815e+06 329667 0 -1.6955e+06 201633 0 -1.73852e+06 52419.8 0 -1.83933e+06 -117067 0 -2.08703e+06 -204020 0 -2.33511e+06 3.72529e-07 0 -1.83352e+06 0 0 -1.83363e+06 12535.5 0 -1.83395e+06 25074.3 0 -1.8345e+06 37619.8 0 -1.83525e+06 50175.2 0 -1.83623e+06 62743.8 0 -1.83741e+06 75329.1 0 -1.83882e+06 87934.4 0 -1.84044e+06 100563 0 -1.84228e+06 113218 0 -1.84433e+06 125904 0 -1.8466e+06 138623 0 -1.84908e+06 151380 0 -1.85178e+06 164177 0 -1.85469e+06 177018 0 -1.85782e+06 189907 0 -1.86117e+06 202848 0 -1.86473e+06 215845 0 -1.8685e+06 228900 0 -1.87249e+06 242018 0 -1.87669e+06 255204 0 -1.8811e+06 268460 0 -1.88573e+06 281791 0 -1.89057e+06 295202 0 -1.89563e+06 308696 0 -1.90089e+06 322277 0 -1.90637e+06 335951 0 -1.91206e+06 349722 0 -1.91795e+06 363595 0 -1.92406e+06 377574 0 -1.93037e+06 391664 0 -1.93689e+06 405871 0 -1.94362e+06 420200 0 -1.95055e+06 434656 0 -1.95769e+06 449244 0 -1.96502e+06 463972 0 -1.97256e+06 478843 0 -1.98029e+06 493866 0 -1.98822e+06 509046 0 -1.99635e+06 524390 0 -2.00466e+06 539904 0 -2.01316e+06 555596 0 -2.02185e+06 571474 0 -2.03072e+06 587545 0 -2.03977e+06 603818 0 -2.04899e+06 620300 0 -2.05837e+06 637000 0 -2.06793e+06 653928 0 -2.07764e+06 671094 0 -2.0875e+06 688507 0 -2.0975e+06 706177 0 -2.10765e+06 724117 0 -2.11791e+06 742336 0 -2.1283e+06 760848 0 -2.1388e+06 779665 0 -2.14939e+06 798799 0 -2.16006e+06 818266 0 -2.1708e+06 838078 0 -2.1816e+06 858251 0 -2.19242e+06 878801 0 -2.20326e+06 899744 0 -2.21409e+06 921096 0 -2.22488e+06 942875 0 -2.23561e+06 965099 0 -2.24624e+06 987786 0 -2.25675e+06 1.01095e+06 0 -2.26708e+06 1.03462e+06 0 -2.2772e+06 1.05881e+06 0 -2.28705e+06 1.08353e+06 0 -2.29659e+06 1.10881e+06 0 -2.30574e+06 1.13465e+06 0 -2.31445e+06 1.16108e+06 0 -2.32262e+06 1.1881e+06 0 -2.33019e+06 1.21572e+06 0 -2.33705e+06 1.24394e+06 0 -2.34309e+06 1.27276e+06 0 -2.34821e+06 1.30216e+06 0 -2.35227e+06 1.33212e+06 0 -2.35514e+06 1.3626e+06 0 -2.35667e+06 1.39354e+06 0 -2.3567e+06 1.42488e+06 0 -2.35505e+06 1.45652e+06 0 -2.35157e+06 1.48833e+06 0 -2.34606e+06 1.52015e+06 0 -2.33836e+06 1.5518e+06 0 -2.32829e+06 1.58304e+06 0 -2.3157e+06 1.6136e+06 0 -2.30046e+06 1.64317e+06 0 -2.28248e+06 1.67139e+06 0 -2.2617e+06 1.69787e+06 0 -2.23814e+06 1.72219e+06 0 -2.21187e+06 1.7439e+06 0 -2.18303e+06 1.76256e+06 0 -2.15185e+06 1.77772e+06 0 -2.11861e+06 1.78899e+06 0 -2.0837e+06 1.79598e+06 0 -2.04752e+06 1.79841e+06 0 -2.01055e+06 1.79604e+06 0 -1.97328e+06 1.78873e+06 0 -1.93619e+06 1.77641e+06 0 -1.89977e+06 1.7591e+06 0 -1.86445e+06 1.73687e+06 0 -1.83064e+06 1.70986e+06 0 -1.79867e+06 1.67827e+06 0 -1.76883e+06 1.64229e+06 0 -1.74134e+06 1.60213e+06 0 -1.71638e+06 1.55803e+06 0 -1.69405e+06 1.51017e+06 0 -1.67443e+06 1.45872e+06 0 -1.65754e+06 1.40383e+06 0 -1.64338e+06 1.34558e+06 0 -1.63192e+06 1.28404e+06 0 -1.62312e+06 1.21919e+06 0 -1.61692e+06 1.15097e+06 0 -1.61324e+06 1.07924e+06 0 -1.61202e+06 1.00381e+06 0 -1.61322e+06 924373 0 -1.6168e+06 840543 0 -1.62282e+06 751839 0 -1.63137e+06 657603 0 -1.64282e+06 556863 0 -1.65842e+06 448518 0 -1.68021e+06 332136 0 -1.70897e+06 205041 0 -1.75459e+06 59199.5 0 -1.85616e+06 -100693 0 -2.0862e+06 -176652 0 -2.29774e+06 2.38419e-07 0 -1.83227e+06 0 0 -1.83238e+06 12557.1 0 -1.8327e+06 25117.5 0 -1.83324e+06 37684.5 0 -1.834e+06 50261.5 0 -1.83497e+06 62851.7 0 -1.83615e+06 75458.6 0 -1.83756e+06 88085.4 0 -1.83917e+06 100736 0 -1.84101e+06 113413 0 -1.84306e+06 126120 0 -1.84532e+06 138861 0 -1.8478e+06 151638 0 -1.8505e+06 164457 0 -1.85341e+06 177320 0 -1.85653e+06 190231 0 -1.85987e+06 203193 0 -1.86342e+06 216211 0 -1.86719e+06 229288 0 -1.87117e+06 242427 0 -1.87537e+06 255634 0 -1.87977e+06 268912 0 -1.88439e+06 282264 0 -1.88923e+06 295696 0 -1.89427e+06 309211 0 -1.89953e+06 322814 0 -1.905e+06 336509 0 -1.91067e+06 350301 0 -1.91656e+06 364194 0 -1.92265e+06 378194 0 -1.92896e+06 392305 0 -1.93547e+06 406533 0 -1.94218e+06 420882 0 -1.9491e+06 435358 0 -1.95622e+06 449967 0 -1.96354e+06 464714 0 -1.97106e+06 479606 0 -1.97878e+06 494648 0 -1.9867e+06 509848 0 -1.9948e+06 525211 0 -2.0031e+06 540744 0 -2.01158e+06 556455 0 -2.02025e+06 572351 0 -2.0291e+06 588440 0 -2.03813e+06 604730 0 -2.04733e+06 621229 0 -2.05669e+06 637946 0 -2.06622e+06 654890 0 -2.07591e+06 672071 0 -2.08574e+06 689499 0 -2.09572e+06 707183 0 -2.10584e+06 725136 0 -2.11608e+06 743368 0 -2.12644e+06 761891 0 -2.1369e+06 780718 0 -2.14746e+06 799861 0 -2.1581e+06 819335 0 -2.1688e+06 839153 0 -2.17956e+06 859331 0 -2.19035e+06 879883 0 -2.20114e+06 900826 0 -2.21193e+06 922176 0 -2.22268e+06 943950 0 -2.23336e+06 966166 0 -2.24395e+06 988841 0 -2.2544e+06 1.01199e+06 0 -2.26469e+06 1.03564e+06 0 -2.27475e+06 1.05981e+06 0 -2.28455e+06 1.0845e+06 0 -2.29403e+06 1.10974e+06 0 -2.30313e+06 1.13554e+06 0 -2.31178e+06 1.16192e+06 0 -2.31989e+06 1.18889e+06 0 -2.3274e+06 1.21644e+06 0 -2.3342e+06 1.24458e+06 0 -2.34018e+06 1.27332e+06 0 -2.34525e+06 1.30262e+06 0 -2.34925e+06 1.33246e+06 0 -2.35208e+06 1.36282e+06 0 -2.35356e+06 1.39362e+06 0 -2.35355e+06 1.4248e+06 0 -2.35189e+06 1.45626e+06 0 -2.3484e+06 1.48788e+06 0 -2.3429e+06 1.51949e+06 0 -2.33522e+06 1.55091e+06 0 -2.32521e+06 1.58191e+06 0 -2.3127e+06 1.61221e+06 0 -2.29758e+06 1.64152e+06 0 -2.27975e+06 1.66946e+06 0 -2.25917e+06 1.69567e+06 0 -2.23585e+06 1.71971e+06 0 -2.20986e+06 1.74116e+06 0 -2.18134e+06 1.75957e+06 0 -2.15053e+06 1.77452e+06 0 -2.1177e+06 1.78559e+06 0 -2.08323e+06 1.79244e+06 0 -2.04752e+06 1.79477e+06 0 -2.01104e+06 1.79235e+06 0 -1.97426e+06 1.78503e+06 0 -1.93767e+06 1.77275e+06 0 -1.90174e+06 1.75553e+06 0 -1.86691e+06 1.73343e+06 0 -1.83356e+06 1.70659e+06 0 -1.80204e+06 1.6752e+06 0 -1.77263e+06 1.63944e+06 0 -1.74555e+06 1.59953e+06 0 -1.72097e+06 1.55568e+06 0 -1.69901e+06 1.50809e+06 0 -1.67973e+06 1.45691e+06 0 -1.66318e+06 1.40229e+06 0 -1.64936e+06 1.34432e+06 0 -1.63823e+06 1.28304e+06 0 -1.62976e+06 1.21846e+06 0 -1.6239e+06 1.15049e+06 0 -1.62058e+06 1.07902e+06 0 -1.61975e+06 1.00383e+06 0 -1.62136e+06 924635 0 -1.6254e+06 841048 0 -1.63194e+06 752595 0 -1.64108e+06 658630 0 -1.65324e+06 558236 0 -1.66963e+06 450411 0 -1.69221e+06 334700 0 -1.72231e+06 208656 0 -1.77011e+06 66145.9 0 -1.87167e+06 -84901.9 0 -2.08476e+06 -152408 0 -2.26619e+06 -3.57628e-07 0 -1.83101e+06 0 0 -1.83112e+06 12578.7 0 -1.83144e+06 25160.6 0 -1.83198e+06 37749.2 0 -1.83274e+06 50347.7 0 -1.83371e+06 62959.5 0 -1.83489e+06 75587.9 0 -1.83629e+06 88236.3 0 -1.83791e+06 100908 0 -1.83974e+06 113606 0 -1.84178e+06 126335 0 -1.84404e+06 139097 0 -1.84652e+06 151897 0 -1.84921e+06 164737 0 -1.85212e+06 177621 0 -1.85524e+06 190554 0 -1.85857e+06 203537 0 -1.86212e+06 216577 0 -1.86588e+06 229675 0 -1.86985e+06 242836 0 -1.87404e+06 256064 0 -1.87844e+06 269363 0 -1.88305e+06 282737 0 -1.88788e+06 296189 0 -1.89292e+06 309726 0 -1.89816e+06 323350 0 -1.90362e+06 337066 0 -1.90929e+06 350879 0 -1.91516e+06 364793 0 -1.92125e+06 378814 0 -1.92754e+06 392945 0 -1.93404e+06 407193 0 -1.94074e+06 421563 0 -1.94764e+06 436060 0 -1.95475e+06 450689 0 -1.96206e+06 465456 0 -1.96957e+06 480367 0 -1.97727e+06 495429 0 -1.98517e+06 510648 0 -1.99326e+06 526030 0 -2.00154e+06 541582 0 -2.01e+06 557312 0 -2.01865e+06 573226 0 -2.02748e+06 589333 0 -2.03649e+06 605640 0 -2.04566e+06 622156 0 -2.05501e+06 638890 0 -2.06451e+06 655850 0 -2.07418e+06 673046 0 -2.08399e+06 690488 0 -2.09394e+06 708187 0 -2.10403e+06 726152 0 -2.11424e+06 744396 0 -2.12457e+06 762931 0 -2.135e+06 781767 0 -2.14553e+06 800920 0 -2.15613e+06 820401 0 -2.1668e+06 840225 0 -2.17752e+06 860406 0 -2.18827e+06 880961 0 -2.19903e+06 901903 0 -2.20977e+06 923251 0 -2.22048e+06 945020 0 -2.23112e+06 967228 0 -2.24166e+06 989892 0 -2.25207e+06 1.01303e+06 0 -2.2623e+06 1.03666e+06 0 -2.27231e+06 1.0608e+06 0 -2.28206e+06 1.08546e+06 0 -2.29148e+06 1.11067e+06 0 -2.30052e+06 1.13643e+06 0 -2.30911e+06 1.16276e+06 0 -2.31717e+06 1.18967e+06 0 -2.32462e+06 1.21715e+06 0 -2.33136e+06 1.24522e+06 0 -2.33729e+06 1.27387e+06 0 -2.34229e+06 1.30307e+06 0 -2.34625e+06 1.33281e+06 0 -2.34902e+06 1.36303e+06 0 -2.35047e+06 1.3937e+06 0 -2.35043e+06 1.42472e+06 0 -2.34874e+06 1.45601e+06 0 -2.34524e+06 1.48743e+06 0 -2.33975e+06 1.51884e+06 0 -2.33211e+06 1.55003e+06 0 -2.32215e+06 1.58079e+06 0 -2.30973e+06 1.61084e+06 0 -2.29472e+06 1.63988e+06 0 -2.27705e+06 1.66755e+06 0 -2.25667e+06 1.69348e+06 0 -2.23358e+06 1.71726e+06 0 -2.20787e+06 1.73844e+06 0 -2.17968e+06 1.75662e+06 0 -2.14923e+06 1.77135e+06 0 -2.11681e+06 1.78224e+06 0 -2.08277e+06 1.78895e+06 0 -2.04753e+06 1.79118e+06 0 -2.01152e+06 1.7887e+06 0 -1.97524e+06 1.78138e+06 0 -1.93915e+06 1.76914e+06 0 -1.90371e+06 1.75201e+06 0 -1.86935e+06 1.73004e+06 0 -1.83647e+06 1.70337e+06 0 -1.80539e+06 1.67217e+06 0 -1.7764e+06 1.63663e+06 0 -1.74973e+06 1.59697e+06 0 -1.72553e+06 1.55337e+06 0 -1.70394e+06 1.50604e+06 0 -1.68501e+06 1.45514e+06 0 -1.6688e+06 1.40079e+06 0 -1.65531e+06 1.34309e+06 0 -1.64451e+06 1.28208e+06 0 -1.63637e+06 1.21776e+06 0 -1.63085e+06 1.15005e+06 0 -1.62789e+06 1.07883e+06 0 -1.62745e+06 1.00389e+06 0 -1.62948e+06 924940 0 -1.63398e+06 841602 0 -1.64103e+06 753405 0 -1.65076e+06 659721 0 -1.66361e+06 559683 0 -1.68077e+06 452384 0 -1.70413e+06 337358 0 -1.7355e+06 212450 0 -1.78512e+06 73214.8 0 -1.88601e+06 -69754.5 0 -2.08303e+06 -130862 0 -2.23953e+06 2.98023e-08 0 -1.82975e+06 0 0 -1.82986e+06 12600.2 0 -1.83018e+06 25203.7 0 -1.83072e+06 37813.8 0 -1.83147e+06 50433.8 0 -1.83244e+06 63067.1 0 -1.83363e+06 75717 0 -1.83502e+06 88386.9 0 -1.83664e+06 101080 0 -1.83847e+06 113800 0 -1.84051e+06 126550 0 -1.84277e+06 139334 0 -1.84524e+06 152155 0 -1.84792e+06 165017 0 -1.85082e+06 177922 0 -1.85394e+06 190876 0 -1.85727e+06 203881 0 -1.86081e+06 216942 0 -1.86456e+06 230061 0 -1.86853e+06 243244 0 -1.87271e+06 256493 0 -1.87711e+06 269813 0 -1.88171e+06 283208 0 -1.88653e+06 296682 0 -1.89156e+06 310239 0 -1.89679e+06 323884 0 -1.90224e+06 337622 0 -1.9079e+06 351455 0 -1.91377e+06 365390 0 -1.91984e+06 379432 0 -1.92612e+06 393584 0 -1.9326e+06 407853 0 -1.93929e+06 422243 0 -1.94619e+06 436759 0 -1.95328e+06 451409 0 -1.96057e+06 466196 0 -1.96807e+06 481127 0 -1.97575e+06 496209 0 -1.98364e+06 511447 0 -1.99171e+06 526848 0 -1.99997e+06 542419 0 -2.00842e+06 558167 0 -2.01705e+06 574099 0 -2.02586e+06 590224 0 -2.03485e+06 606548 0 -2.044e+06 623081 0 -2.05332e+06 639831 0 -2.06281e+06 656807 0 -2.07244e+06 674019 0 -2.08223e+06 691475 0 -2.09216e+06 709188 0 -2.10222e+06 727166 0 -2.1124e+06 745422 0 -2.1227e+06 763967 0 -2.1331e+06 782814 0 -2.1436e+06 801975 0 -2.15417e+06 821463 0 -2.1648e+06 841293 0 -2.17549e+06 861478 0 -2.1862e+06 882034 0 -2.19692e+06 902977 0 -2.20762e+06 924322 0 -2.21828e+06 946086 0 -2.22888e+06 968285 0 -2.23937e+06 990937 0 -2.24973e+06 1.01406e+06 0 -2.25991e+06 1.03767e+06 0 -2.26987e+06 1.06178e+06 0 -2.27957e+06 1.08642e+06 0 -2.28894e+06 1.11159e+06 0 -2.29792e+06 1.13731e+06 0 -2.30645e+06 1.16359e+06 0 -2.31446e+06 1.19044e+06 0 -2.32184e+06 1.21786e+06 0 -2.32853e+06 1.24586e+06 0 -2.3344e+06 1.27441e+06 0 -2.33935e+06 1.30352e+06 0 -2.34326e+06 1.33314e+06 0 -2.34598e+06 1.36324e+06 0 -2.34739e+06 1.39377e+06 0 -2.34732e+06 1.42464e+06 0 -2.34561e+06 1.45575e+06 0 -2.34211e+06 1.48699e+06 0 -2.33663e+06 1.51819e+06 0 -2.32902e+06 1.54916e+06 0 -2.31912e+06 1.57968e+06 0 -2.30678e+06 1.60948e+06 0 -2.2919e+06 1.63825e+06 0 -2.27438e+06 1.66566e+06 0 -2.25419e+06 1.69132e+06 0 -2.23134e+06 1.71483e+06 0 -2.20591e+06 1.73576e+06 0 -2.17804e+06 1.7537e+06 0 -2.14795e+06 1.76822e+06 0 -2.11593e+06 1.77893e+06 0 -2.08