<?xml version="1.0"?> 
<VTKFile type="StructuredGrid" version="0.1"> 
<StructuredGrid WholeExtent="0 127 0 127 0 0"> 
<Piece Extent="0 127 0 127 0 0"> 
<PointData>
<DataArray type="Float32" Name="|E|" format="ascii" NumberOfComponents="3"> 
-2.02404e+06 0 0 -2.02405e+06 1282.38 0 -2.02406e+06 2564.78 0 -2.02407e+06 3847.21 0 -2.0241e+06 5129.67 0 -2.02413e+06 6412.18 0 -2.02417e+06 7694.75 0 -2.02421e+06 8977.39 0 -2.02427e+06 10260.1 0 -2.02433e+06 11542.9 0 -2.02439e+06 12825.9 0 -2.02447e+06 14108.9 0 -2.02455e+06 15392.1 0 -2.02464e+06 16675.4 0 -2.02473e+06 17958.9 0 -2.02483e+06 19242.5 0 -2.02494e+06 20526.3 0 -2.02506e+06 21810.3 0 -2.02518e+06 23094.5 0 -2.02531e+06 24378.9 0 -2.02545e+06 25663.6 0 -2.02559e+06 26948.4 0 -2.02574e+06 28233.5 0 -2.0259e+06 29518.9 0 -2.02606e+06 30804.5 0 -2.02624e+06 32090.5 0 -2.02642e+06 33376.7 0 -2.0266e+06 34663.2 0 -2.02679e+06 35950 0 -2.02699e+06 37237.2 0 -2.0272e+06 38524.7 0 -2.02742e+06 39812.5 0 -2.02764e+06 41100.7 0 -2.02787e+06 42389.3 0 -2.0281e+06 43678.3 0 -2.02834e+06 44967.7 0 -2.02859e+06 46257.5 0 -2.02885e+06 47547.7 0 -2.02911e+06 48838.3 0 -2.02938e+06 50129.4 0 -2.02966e+06 51420.9 0 -2.02995e+06 52712.9 0 -2.03024e+06 54005.4 0 -2.03054e+06 55298.4 0 -2.03084e+06 56591.9 0 -2.03115e+06 57885.9 0 -2.03147e+06 59180.5 0 -2.0318e+06 60475.5 0 -2.03214e+06 61771.2 0 -2.03248e+06 63067.4 0 -2.03283e+06 64364.1 0 -2.03318e+06 65661.5 0 -2.03354e+06 66959.5 0 -2.03391e+06 68258 0 -2.03429e+06 69557.3 0 -2.03467e+06 70857.1 0 -2.03506e+06 72157.6 0 -2.03546e+06 73458.7 0 -2.03587e+06 74760.6 0 -2.03628e+06 76063.1 0 -2.0367e+06 77366.3 0 -2.03712e+06 78670.2 0 -2.03756e+06 79974.9 0 -2.038e+06 81280.3 0 -2.03844e+06 82586.4 0 -2.0389e+06 83893.3 0 -2.03936e+06 85201 0 -2.03983e+06 86509.5 0 -2.0403e+06 87818.7 0 -2.04079e+06 89128.8 0 -2.04128e+06 90439.7 0 -2.04178e+06 91751.4 0 -2.04228e+06 93064 0 -2.04279e+06 94377.4 0 -2.04331e+06 95691.7 0 -2.04384e+06 97006.9 0 -2.04437e+06 98323 0 -2.04491e+06 99640.1 0 -2.04546e+06 100958 0 -2.04601e+06 102277 0 -2.04657e+06 103597 0 -2.04714e+06 104917 0 -2.04772e+06 106239 0 -2.0483e+06 107562 0 -2.04889e+06 108886 0 -2.04949e+06 110211 0 -2.05009e+06 111536 0 -2.0507e+06 112863 0 -2.05132e+06 114191 0 -2.05195e+06 115520 0 -2.05258e+06 116850 0 -2.05322e+06 118181 0 -2.05387e+06 119514 0 -2.05452e+06 120847 0 -2.05519e+06 122182 0 -2.05586e+06 123517 0 -2.05653e+06 124854 0 -2.05722e+06 126192 0 -2.05791e+06 127531 0 -2.05861e+06 128872 0 -2.05931e+06 130213 0 -2.06002e+06 131556 0 -2.06074e+06 132900 0 -2.06147e+06 134246 0 -2.06221e+06 135592 0 -2.06295e+06 136940 0 -2.0637e+06 138290 0 -2.06445e+06 139640 0 -2.06522e+06 140992 0 -2.06599e+06 142345 0 -2.06677e+06 143700 0 -2.06755e+06 145056 0 -2.06834e+06 146413 0 -2.06914e+06 147772 0 -2.06995e+06 149132 0 -2.07077e+06 150494 0 -2.07159e+06 151857 0 -2.07242e+06 153221 0 -2.07325e+06 154587 0 -2.0741e+06 155955 0 -2.07495e+06 157324 0 -2.07581e+06 158694 0 -2.07667e+06 160066 0 -2.07755e+06 161440 0 -2.07843e+06 162815 0 -2.07932e+06 164193 0 -2.08021e+06 165571 0 -2.08111e+06 166952 0 -2.02292e+06 0 0 -2.02292e+06 1341.79 0 -2.02293e+06 2683.6 0 -2.02295e+06 4025.43 0 -2.02298e+06 5367.31 0 -2.02301e+06 6709.24 0 -2.02305e+06 8051.24 0 -2.0231e+06 9393.33 0 -2.02316e+06 10735.5 0 -2.02323e+06 12077.8 0 -2.0233e+06 13420.2 0 -2.02338e+06 14762.7 0 -2.02346e+06 16105.4 0 -2.02356e+06 17448.2 0 -2.02366e+06 18791.3 0 -2.02377e+06 20134.5 0 -2.02389e+06 21477.9 0 -2.02402e+06 22821.5 0 -2.02415e+06 24165.3 0 -2.02429e+06 25509.4 0 -2.02444e+06 26853.7 0 -2.02459e+06 28198.3 0 -2.02476e+06 29543.2 0 -2.02493e+06 30888.3 0 -2.02511e+06 32233.8 0 -2.02529e+06 33579.6 0 -2.02549e+06 34925.7 0 -2.02569e+06 36272.1 0 -2.0259e+06 37618.9 0 -2.02611e+06 38966.1 0 -2.02634e+06 40313.7 0 -2.02657e+06 41661.6 0 -2.02681e+06 43010 0 -2.02706e+06 44358.8 0 -2.02731e+06 45708 0 -2.02757e+06 47057.7 0 -2.02784e+06 48407.8 0 -2.02812e+06 49758.4 0 -2.02841e+06 51109.5 0 -2.0287e+06 52461.2 0 -2.029e+06 53813.3 0 -2.02931e+06 55165.9 0 -2.02963e+06 56519.1 0 -2.02995e+06 57872.9 0 -2.03028e+06 59227.2 0 -2.03062e+06 60582.1 0 -2.03097e+06 61937.6 0 -2.03132e+06 63293.8 0 -2.03168e+06 64650.5 0 -2.03205e+06 66007.9 0 -2.03243e+06 67365.9 0 -2.03281e+06 68724.6 0 -2.03321e+06 70084 0 -2.03361e+06 71444.1 0 -2.03401e+06 72804.9 0 -2.03443e+06 74166.4 0 -2.03485e+06 75528.6 0 -2.03528e+06 76891.6 0 -2.03572e+06 78255.4 0 -2.03617e+06 79619.9 0 -2.03662e+06 80985.2 0 -2.03708e+06 82351.3 0 -2.03755e+06 83718.3 0 -2.03803e+06 85086 0 -2.03851e+06 86454.7 0 -2.03901e+06 87824.1 0 -2.03951e+06 89194.5 0 -2.04002e+06 90565.7 0 -2.04053e+06 91937.9 0 -2.04105e+06 93311 0 -2.04158e+06 94685 0 -2.04212e+06 96059.9 0 -2.04267e+06 97435.8 0 -2.04322e+06 98812.7 0 -2.04379e+06 100191 0 -2.04436e+06 101569 0 -2.04493e+06 102949 0 -2.04552e+06 104330 0 -2.04611e+06 105712 0 -2.04671e+06 107095 0 -2.04732e+06 108479 0 -2.04794e+06 109865 0 -2.04856e+06 111251 0 -2.04919e+06 112638 0 -2.04983e+06 114027 0 -2.05048e+06 115417 0 -2.05113e+06 116807 0 -2.0518e+06 118200 0 -2.05247e+06 119593 0 -2.05315e+06 120987 0 -2.05383e+06 122383 0 -2.05453e+06 123780 0 -2.05523e+06 125178 0 -2.05594e+06 126578 0 -2.05665e+06 127978 0 -2.05738e+06 129380 0 -2.05811e+06 130784 0 -2.05885e+06 132189 0 -2.0596e+06 133595 0 -2.06036e+06 135002 0 -2.06112e+06 136411 0 -2.0619e+06 137821 0 -2.06268e+06 139233 0 -2.06346e+06 140646 0 -2.06426e+06 142060 0 -2.06506e+06 143476 0 -2.06588e+06 144894 0 -2.0667e+06 146313 0 -2.06752e+06 147733 0 -2.06836e+06 149155 0 -2.0692e+06 150579 0 -2.07005e+06 152004 0 -2.07091e+06 153430 0 -2.07178e+06 154859 0 -2.07266e+06 156288 0 -2.07354e+06 157720 0 -2.07443e+06 159153 0 -2.07533e+06 160588 0 -2.07624e+06 162024 0 -2.07715e+06 163462 0 -2.07807e+06 164902 0 -2.079e+06 166344 0 -2.07994e+06 167787 0 -2.08089e+06 169232 0 -2.08185e+06 170679 0 -2.08281e+06 172127 0 -2.08378e+06 173577 0 -2.08476e+06 175029 0 -2.02179e+06 0 0 -2.02179e+06 1401.69 0 -2.0218e+06 2803.41 0 -2.02182e+06 4205.15 0 -2.02185e+06 5606.94 0 -2.02189e+06 7008.79 0 -2.02193e+06 8410.72 0 -2.02199e+06 9812.74 0 -2.02205e+06 11214.9 0 -2.02212e+06 12617.1 0 -2.0222e+06 14019.5 0 -2.02228e+06 15422 0 -2.02238e+06 16824.7 0 -2.02248e+06 18227.6 0 -2.02259e+06 19630.7 0 -2.02271e+06 21033.9 0 -2.02284e+06 22437.4 0 -2.02297e+06 23841.2 0 -2.02312e+06 25245.2 0 -2.02327e+06 26649.4 0 -2.02343e+06 28054 0 -2.0236e+06 29458.8 0 -2.02377e+06 30864 0 -2.02396e+06 32269.4 0 -2.02415e+06 33675.3 0 -2.02435e+06 35081.4 0 -2.02456e+06 36488 0 -2.02478e+06 37894.9 0 -2.025e+06 39302.3 0 -2.02524e+06 40710 0 -2.02548e+06 42118.2 0 -2.02573e+06 43526.8 0 -2.02599e+06 44935.9 0 -2.02626e+06 46345.5 0 -2.02653e+06 47755.5 0 -2.02681e+06 49166.1 0 -2.02711e+06 50577.2 0 -2.02741e+06 51988.8 0 -2.02771e+06 53401 0 -2.02803e+06 54813.7 0 -2.02836e+06 56227 0 -2.02869e+06 57640.9 0 -2.02903e+06 59055.5 0 -2.02938e+06 60470.6 0 -2.02974e+06 61886.4 0 -2.0301e+06 63302.9 0 -2.03048e+06 64720 0 -2.03086e+06 66137.8 0 -2.03125e+06 67556.3 0 -2.03165e+06 68975.5 0 -2.03206e+06 70395.5 0 -2.03247e+06 71816.2 0 -2.03289e+06 73237.7 0 -2.03333e+06 74660 0 -2.03377e+06 76083.1 0 -2.03422e+06 77506.9 0 -2.03467e+06 78931.6 0 -2.03514e+06 80357.2 0 -2.03561e+06 81783.6 0 -2.03609e+06 83210.9 0 -2.03658e+06 84639 0 -2.03708e+06 86068.1 0 -2.03759e+06 87498.1 0 -2.0381e+06 88929.1 0 -2.03863e+06 90361 0 -2.03916e+06 91793.8 0 -2.0397e+06 93227.7 0 -2.04025e+06 94662.5 0 -2.0408e+06 96098.4 0 -2.04137e+06 97535.3 0 -2.04194e+06 98973.2 0 -2.04252e+06 100412 0 -2.04311e+06 101852 0 -2.04371e+06 103294 0 -2.04432e+06 104736 0 -2.04493e+06 106179 0 -2.04556e+06 107624 0 -2.04619e+06 109070 0 -2.04683e+06 110517 0 -2.04748e+06 111965 0 -2.04814e+06 113414 0 -2.0488e+06 114865 0 -2.04947e+06 116317 0 -2.05016e+06 117770 0 -2.05085e+06 119224 0 -2.05155e+06 120680 0 -2.05225e+06 122137 0 -2.05297e+06 123595 0 -2.05369e+06 125055 0 -2.05443e+06 126516 0 -2.05517e+06 127978 0 -2.05592e+06 129442 0 -2.05668e+06 130907 0 -2.05744e+06 132374 0 -2.05822e+06 133842 0 -2.059e+06 135312 0 -2.05979e+06 136783 0 -2.06059e+06 138256 0 -2.0614e+06 139730 0 -2.06222e+06 141206 0 -2.06305e+06 142683 0 -2.06388e+06 144162 0 -2.06472e+06 145642 0 -2.06557e+06 147124 0 -2.06644e+06 148608 0 -2.0673e+06 150093 0 -2.06818e+06 151580 0 -2.06907e+06 153069 0 -2.06996e+06 154559 0 -2.07086e+06 156052 0 -2.07177e+06 157545 0 -2.07269e+06 159041 0 -2.07362e+06 160538 0 -2.07456e+06 162038 0 -2.07551e+06 163539 0 -2.07646e+06 165042 0 -2.07742e+06 166546 0 -2.07839e+06 168053 0 -2.07937e+06 169562 0 -2.08036e+06 171072 0 -2.08136e+06 172584 0 -2.08237e+06 174099 0 -2.08338e+06 175615 0 -2.08441e+06 177133 0 -2.08544e+06 178653 0 -2.08648e+06 180176 0 -2.08753e+06 181701 0 -2.08859e+06 183228 0 -2.02065e+06 0 0 -2.02066e+06 1462.09 0 -2.02067e+06 2924.21 0 -2.02069e+06 4386.36 0 -2.02072e+06 5848.56 0 -2.02076e+06 7310.83 0 -2.02081e+06 8773.19 0 -2.02087e+06 10235.6 0 -2.02093e+06 11698.2 0 -2.02101e+06 13160.9 0 -2.02109e+06 14623.8 0 -2.02119e+06 16086.8 0 -2.02129e+06 17550 0 -2.0214e+06 19013.5 0 -2.02152e+06 20477.1 0 -2.02164e+06 21941 0 -2.02178e+06 23405.1 0 -2.02193e+06 24869.5 0 -2.02208e+06 26334.1 0 -2.02225e+06 27799.1 0 -2.02242e+06 29264.4 0 -2.0226e+06 30730 0 -2.02279e+06 32195.9 0 -2.02299e+06 33662.3 0 -2.0232e+06 35129 0 -2.02341e+06 36596.1 0 -2.02364e+06 38063.6 0 -2.02387e+06 39531.6 0 -2.02411e+06 41000 0 -2.02437e+06 42468.9 0 -2.02463e+06 43938.2 0 -2.0249e+06 45408.1 0 -2.02517e+06 46878.5 0 -2.02546e+06 48349.4 0 -2.02576e+06 49820.8 0 -2.02606e+06 51292.9 0 -2.02638e+06 52765.5 0 -2.0267e+06 54238.7 0 -2.02703e+06 55712.5 0 -2.02737e+06 57187 0 -2.02772e+06 58662.1 0 -2.02808e+06 60137.9 0 -2.02845e+06 61614.3 0 -2.02882e+06 63091.5 0 -2.02921e+06 64569.4 0 -2.0296e+06 66048 0 -2.03e+06 67527.4 0 -2.03042e+06 69007.6 0 -2.03084e+06 70488.5 0 -2.03127e+06 71970.3 0 -2.0317e+06 73452.8 0 -2.03215e+06 74936.3 0 -2.03261e+06 76420.5 0 -2.03307e+06 77905.7 0 -2.03355e+06 79391.7 0 -2.03403e+06 80878.7 0 -2.03452e+06 82366.5 0 -2.03502e+06 83855.4 0 -2.03553e+06 85345.2 0 -2.03605e+06 86835.9 0 -2.03658e+06 88327.7 0 -2.03711e+06 89820.5 0 -2.03766e+06 91314.3 0 -2.03821e+06 92809.2 0 -2.03878e+06 94305.2 0 -2.03935e+06 95802.2 0 -2.03993e+06 97300.3 0 -2.04052e+06 98799.6 0 -2.04112e+06 100300 0 -2.04173e+06 101802 0 -2.04235e+06 103304 0 -2.04297e+06 104808 0 -2.04361e+06 106313 0 -2.04425e+06 107820 0 -2.04491e+06 109328 0 -2.04557e+06 110836 0 -2.04624e+06 112347 0 -2.04692e+06 113858 0 -2.04761e+06 115371 0 -2.04831e+06 116885 0 -2.04902e+06 118401 0 -2.04973e+06 119918 0 -2.05046e+06 121436 0 -2.05119e+06 122956 0 -2.05194e+06 124477 0 -2.05269e+06 126000 0 -2.05345e+06 127524 0 -2.05422e+06 129050 0 -2.055e+06 130577 0 -2.05579e+06 132106 0 -2.05659e+06 133636 0 -2.0574e+06 135168 0 -2.05822e+06 136701 0 -2.05904e+06 138236 0 -2.05988e+06 139773 0 -2.06072e+06 141311 0 -2.06157e+06 142851 0 -2.06243e+06 144393 0 -2.06331e+06 145937 0 -2.06419e+06 147482 0 -2.06508e+06 149029 0 -2.06598e+06 150577 0 -2.06688e+06 152128 0 -2.0678e+06 153680 0 -2.06873e+06 155235 0 -2.06966e+06 156791 0 -2.07061e+06 158349 0 -2.07156e+06 159908 0 -2.07253e+06 161470 0 -2.0735e+06 163034 0 -2.07448e+06 164600 0 -2.07547e+06 166167 0 -2.07647e+06 167737 0 -2.07748e+06 169309 0 -2.0785e+06 170882 0 -2.07953e+06 172458 0 -2.08057e+06 174036 0 -2.08161e+06 175616 0 -2.08267e+06 177198 0 -2.08374e+06 178783 0 -2.08481e+06 180369 0 -2.08589e+06 181958 0 -2.08699e+06 183549 0 -2.08809e+06 185143 0 -2.0892e+06 186738 0 -2.09032e+06 188336 0 -2.09146e+06 189936 0 -2.0926e+06 191539 0 -2.01951e+06 0 0 -2.01951e+06 1522.99 0 -2.01953e+06 3046 0 -2.01955e+06 4569.05 0 -2.01959e+06 6092.16 0 -2.01963e+06 7615.35 0 -2.01968e+06 9138.63 0 -2.01974e+06 10662 0 -2.01981e+06 12185.6 0 -2.01989e+06 13709.2 0 -2.01998e+06 15233.1 0 -2.02008e+06 16757.1 0 -2.02019e+06 18281.3 0 -2.02031e+06 19805.8 0 -2.02044e+06 21330.5 0 -2.02058e+06 22855.5 0 -2.02072e+06 24380.7 0 -2.02088e+06 25906.3 0 -2.02105e+06 27432.1 0 -2.02122e+06 28958.3 0 -2.02141e+06 30484.9 0 -2.0216e+06 32011.8 0 -2.0218e+06 33539.1 0 -2.02202e+06 35066.8 0 -2.02224e+06 36594.9 0 -2.02247e+06 38123.5 0 -2.02271e+06 39652.6 0 -2.02297e+06 41182.1 0 -2.02323e+06 42712.1 0 -2.0235e+06 44242.7 0 -2.02378e+06 45773.8 0 -2.02407e+06 47305.4 0 -2.02437e+06 48837.7 0 -2.02467e+06 50370.5 0 -2.02499e+06 51903.9 0 -2.02532e+06 53438 0 -2.02566e+06 54972.7 0 -2.026e+06 56508.1 0 -2.02636e+06 58044.2 0 -2.02672e+06 59581 0 -2.0271e+06 61118.5 0 -2.02748e+06 62656.8 0 -2.02788e+06 64195.8 0 -2.02828e+06 65735.7 0 -2.0287e+06 67276.3 0 -2.02912e+06 68817.7 0 -2.02955e+06 70360 0 -2.02999e+06 71903.2 0 -2.03044e+06 73447.2 0 -2.0309e+06 74992.1 0 -2.03138e+06 76538 0 -2.03186e+06 78084.8 0 -2.03235e+06 79632.5 0 -2.03284e+06 81181.3 0 -2.03335e+06 82731 0 -2.03387e+06 84281.7 0 -2.0344e+06 85833.5 0 -2.03494e+06 87386.4 0 -2.03549e+06 88940.3 0 -2.03604e+06 90495.3 0 -2.03661e+06 92051.5 0 -2.03718e+06 93608.7 0 -2.03777e+06 95167.2 0 -2.03837e+06 96726.8 0 -2.03897e+06 98287.6 0 -2.03959e+06 99849.6 0 -2.04021e+06 101413 0 -2.04084e+06 102977 0 -2.04149e+06 104543 0 -2.04214e+06 106110 0 -2.0428e+06 107679 0 -2.04348e+06 109248 0 -2.04416e+06 110820 0 -2.04485e+06 112392 0 -2.04555e+06 113966 0 -2.04626e+06 115541 0 -2.04698e+06 117118 0 -2.04771e+06 118696 0 -2.04846e+06 120276 0 -2.04921e+06 121857 0 -2.04997e+06 123440 0 -2.05074e+06 125024 0 -2.05151e+06 126610 0 -2.0523e+06 128198 0 -2.0531e+06 129787 0 -2.05391e+06 131378 0 -2.05473e+06 132970 0 -2.05556e+06 134564 0 -2.0564e+06 136160 0 -2.05724e+06 137757 0 -2.0581e+06 139357 0 -2.05897e+06 140958 0 -2.05985e+06 142560 0 -2.06073e+06 144165 0 -2.06163e+06 145772 0 -2.06254e+06 147380 0 -2.06345e+06 148990 0 -2.06438e+06 150602 0 -2.06531e+06 152216 0 -2.06626e+06 153832 0 -2.06722e+06 155450 0 -2.06818e+06 157070 0 -2.06916e+06 158692 0 -2.07014e+06 160316 0 -2.07114e+06 161942 0 -2.07214e+06 163570 0 -2.07316e+06 165201 0 -2.07418e+06 166833 0 -2.07522e+06 168468 0 -2.07626e+06 170104 0 -2.07732e+06 171743 0 -2.07838e+06 173385 0 -2.07946e+06 175028 0 -2.08054e+06 176674 0 -2.08164e+06 178322 0 -2.08274e+06 179972 0 -2.08386e+06 181625 0 -2.08498e+06 183280 0 -2.08612e+06 184938 0 -2.08727e+06 186598 0 -2.08842e+06 188260 0 -2.08959e+06 189925 0 -2.09076e+06 191593 0 -2.09195e+06 193263 0 -2.09314e+06 194935 0 -2.09435e+06 196611 0 -2.09556e+06 198288 0 -2.09679e+06 199969 0 -2.01836e+06 0 0 -2.01837e+06 1584.38 0 -2.01838e+06 3168.78 0 -2.01841e+06 4753.23 0 -2.01845e+06 6337.74 0 -2.01849e+06 7922.34 0 -2.01855e+06 9507.04 0 -2.01861e+06 11091.9 0 -2.01869e+06 12676.8 0 -2.01878e+06 14262 0 -2.01887e+06 15847.3 0 -2.01898e+06 17432.9 0 -2.01909e+06 19018.6 0 -2.01922e+06 20604.6 0 -2.01936e+06 22190.9 0 -2.01951e+06 23777.5 0 -2.01966e+06 25364.4 0 -2.01983e+06 26951.6 0 -2.02001e+06 28539.2 0 -2.0202e+06 30127.1 0 -2.02039e+06 31715.4 0 -2.0206e+06 33304.2 0 -2.02082e+06 34893.4 0 -2.02105e+06 36483 0 -2.02129e+06 38073.1 0 -2.02154e+06 39663.7 0 -2.0218e+06 41254.8 0 -2.02206e+06 42846.5 0 -2.02234e+06 44438.7 0 -2.02263e+06 46031.5 0 -2.02293e+06 47624.9 0 -2.02324e+06 49218.9 0 -2.02356e+06 50813.5 0 -2.02389e+06 52408.8 0 -2.02423e+06 54004.8 0 -2.02458e+06 55601.6 0 -2.02494e+06 57199 0 -2.02532e+06 58797.2 0 -2.0257e+06 60396.1 0 -2.02609e+06 61995.8 0 -2.02649e+06 63596.4 0 -2.0269e+06 65197.7 0 -2.02732e+06 66800 0 -2.02776e+06 68403.1 0 -2.0282e+06 70007.1 0 -2.02865e+06 71612 0 -2.02911e+06 73217.8 0 -2.02959e+06 74824.6 0 -2.03007e+06 76432.4 0 -2.03056e+06 78041.2 0 -2.03107e+06 79651 0 -2.03158e+06 81261.9 0 -2.03211e+06 82873.8 0 -2.03264e+06 84486.9 0 -2.03319e+06 86101 0 -2.03374e+06 87716.3 0 -2.03431e+06 89332.7 0 -2.03488e+06 90950.3 0 -2.03547e+06 92569.1 0 -2.03607e+06 94189.1 0 -2.03667e+06 95810.4 0 -2.03729e+06 97432.9 0 -2.03792e+06 99056.8 0 -2.03856e+06 100682 0 -2.0392e+06 102308 0 -2.03986e+06 103936 0 -2.04053e+06 105565 0 -2.04121e+06 107196 0 -2.0419e+06 108828 0 -2.0426e+06 110462 0 -2.04331e+06 112097 0 -2.04403e+06 113733 0 -2.04476e+06 115371 0 -2.0455e+06 117011 0 -2.04625e+06 118652 0 -2.04701e+06 120294 0 -2.04779e+06 121939 0 -2.04857e+06 123584 0 -2.04936e+06 125232 0 -2.05017e+06 126881 0 -2.05098e+06 128532 0 -2.0518e+06 130185 0 -2.05264e+06 131839 0 -2.05349e+06 133496 0 -2.05434e+06 135154 0 -2.05521e+06 136814 0 -2.05608e+06 138475 0 -2.05697e+06 140139 0 -2.05787e+06 141804 0 -2.05878e+06 143472 0 -2.0597e+06 145141 0 -2.06063e+06 146813 0 -2.06157e+06 148486 0 -2.06252e+06 150161 0 -2.06348e+06 151839 0 -2.06445e+06 153518 0 -2.06543e+06 155200 0 -2.06642e+06 156884 0 -2.06743e+06 158570 0 -2.06844e+06 160258 0 -2.06946e+06 161948 0 -2.0705e+06 163640 0 -2.07154e+06 165335 0 -2.0726e+06 167032 0 -2.07367e+06 168732 0 -2.07474e+06 170433 0 -2.07583e+06 172138 0 -2.07693e+06 173844 0 -2.07804e+06 175553 0 -2.07916e+06 177264 0 -2.08029e+06 178978 0 -2.08143e+06 180694 0 -2.08259e+06 182413 0 -2.08375e+06 184135 0 -2.08492e+06 185859 0 -2.08611e+06 187586 0 -2.0873e+06 189315 0 -2.08851e+06 191047 0 -2.08973e+06 192781 0 -2.09095e+06 194519 0 -2.09219e+06 196259 0 -2.09344e+06 198002 0 -2.0947e+06 199748 0 -2.09597e+06 201496 0 -2.09725e+06 203248 0 -2.09855e+06 205002 0 -2.09985e+06 206760 0 -2.10116e+06 208520 0 -2.01721e+06 0 0 -2.01722e+06 1646.26 0 -2.01723e+06 3292.55 0 -2.01726e+06 4938.89 0 -2.0173e+06 6585.3 0 -2.01735e+06 8231.8 0 -2.01741e+06 9878.42 0 -2.01748e+06 11525.2 0 -2.01756e+06 13172.1 0 -2.01765e+06 14819.2 0 -2.01775e+06 16466.5 0 -2.01787e+06 18114.1 0 -2.01799e+06 19761.9 0 -2.01813e+06 21409.9 0 -2.01827e+06 23058.3 0 -2.01843e+06 24707 0 -2.0186e+06 26356 0 -2.01878e+06 28005.4 0 -2.01897e+06 29655.2 0 -2.01917e+06 31305.4 0 -2.01938e+06 32956.1 0 -2.0196e+06 34607.2 0 -2.01984e+06 36258.8 0 -2.02008e+06 37910.8 0 -2.02034e+06 39563.5 0 -2.0206e+06 41216.6 0 -2.02088e+06 42870.3 0 -2.02116e+06 44524.7 0 -2.02146e+06 46179.6 0 -2.02177e+06 47835.2 0 -2.02209e+06 49491.4 0 -2.02242e+06 51148.4 0 -2.02277e+06 52806 0 -2.02312e+06 54464.4 0 -2.02348e+06 56123.6 0 -2.02386e+06 57783.5 0 -2.02424e+06 59444.2 0 -2.02464e+06 61105.8 0 -2.02505e+06 62768.2 0 -2.02546e+06 64431.5 0 -2.02589e+06 66095.6 0 -2.02633e+06 67760.7 0 -2.02678e+06 69426.8 0 -2.02725e+06 71093.8 0 -2.02772e+06 72761.8 0 -2.0282e+06 74430.8 0 -2.0287e+06 76100.9 0 -2.0292e+06 77772.1 0 -2.02972e+06 79444.3 0 -2.03025e+06 81117.6 0 -2.03078e+06 82792.1 0 -2.03133e+06 84467.7 0 -2.03189e+06 86144.5 0 -2.03247e+06 87822.6 0 -2.03305e+06 89501.8 0 -2.03364e+06 91182.4 0 -2.03425e+06 92864.2 0 -2.03486e+06 94547.3 0 -2.03549e+06 96231.7 0 -2.03612e+06 97917.6 0 -2.03677e+06 99604.7 0 -2.03743e+06 101293 0 -2.0381e+06 102983 0 -2.03878e+06 104675 0 -2.03948e+06 106368 0 -2.04018e+06 108062 0 -2.04089e+06 109758 0 -2.04162e+06 111456 0 -2.04236e+06 113155 0 -2.0431e+06 114856 0 -2.04386e+06 116558 0 -2.04463e+06 118262 0 -2.04541e+06 119968 0 -2.04621e+06 121676 0 -2.04701e+06 123385 0 -2.04782e+06 125096 0 -2.04865e+06 126808 0 -2.04948e+06 128523 0 -2.05033e+06 130240 0 -2.05119e+06 131958 0 -2.05206e+06 133678 0 -2.05294e+06 135400 0 -2.05383e+06 137124 0 -2.05474e+06 138850 0 -2.05565e+06 140578 0 -2.05658e+06 142309 0 -2.05752e+06 144041 0 -2.05846e+06 145775 0 -2.05942e+06 147511 0 -2.06039e+06 149250 0 -2.06138e+06 150991 0 -2.06237e+06 152733 0 -2.06337e+06 154479 0 -2.06439e+06 156226 0 -2.06542e+06 157976 0 -2.06646e+06 159728 0 -2.06751e+06 161482 0 -2.06857e+06 163239 0 -2.06964e+06 164998 0 -2.07072e+06 166759 0 -2.07182e+06 168523 0 -2.07293e+06 170290 0 -2.07404e+06 172059 0 -2.07517e+06 173830 0 -2.07631e+06 175605 0 -2.07747e+06 177381 0 -2.07863e+06 179161 0 -2.0798e+06 180943 0 -2.08099e+06 182728 0 -2.08219e+06 184515 0 -2.0834e+06 186306 0 -2.08462e+06 188099 0 -2.08585e+06 189895 0 -2.08709e+06 191693 0 -2.08835e+06 193495 0 -2.08962e+06 195300 0 -2.09089e+06 197107 0 -2.09218e+06 198918 0 -2.09349e+06 200731 0 -2.0948e+06 202548 0 -2.09612e+06 204368 0 -2.09746e+06 206190 0 -2.09881e+06 208016 0 -2.10017e+06 209845 0 -2.10154e+06 211678 0 -2.10292e+06 213513 0 -2.10432e+06 215352 0 -2.10572e+06 217195 0 -2.01606e+06 0 0 -2.01606e+06 1708.64 0 -2.01608e+06 3417.3 0 -2.01611e+06 5126.02 0 -2.01615e+06 6834.82 0 -2.0162e+06 8543.73 0 -2.01626e+06 10252.8 0 -2.01634e+06 11961.9 0 -2.01643e+06 13671.3 0 -2.01652e+06 15380.9 0 -2.01663e+06 17090.7 0 -2.01675e+06 18800.7 0 -2.01689e+06 20511.1 0 -2.01703e+06 22221.7 0 -2.01719e+06 23932.7 0 -2.01736e+06 25644 0 -2.01753e+06 27355.7 0 -2.01773e+06 29067.8 0 -2.01793e+06 30780.3 0 -2.01814e+06 32493.3 0 -2.01837e+06 34206.8 0 -2.0186e+06 35920.8 0 -2.01885e+06 37635.3 0 -2.01911e+06 39350.3 0 -2.01938e+06 41066 0 -2.01967e+06 42782.3 0 -2.01996e+06 44499.1 0 -2.02027e+06 46216.7 0 -2.02059e+06 47934.9 0 -2.02092e+06 49653.9 0 -2.02126e+06 51373.5 0 -2.02161e+06 53094 0 -2.02197e+06 54815.2 0 -2.02235e+06 56537.2 0 -2.02274e+06 58260.1 0 -2.02314e+06 59983.8 0 -2.02355e+06 61708.4 0 -2.02397e+06 63434 0 -2.0244e+06 65160.5 0 -2.02485e+06 66887.9 0 -2.02531e+06 68616.3 0 -2.02578e+06 70345.8 0 -2.02626e+06 72076.3 0 -2.02675e+06 73807.9 0 -2.02725e+06 75540.6 0 -2.02777e+06 77274.4 0 -2.0283e+06 79009.3 0 -2.02883e+06 80745.5 0 -2.02939e+06 82482.8 0 -2.02995e+06 84221.4 0 -2.03052e+06 85961.2 0 -2.03111e+06 87702.3 0 -2.0317e+06 89444.7 0 -2.03231e+06 91188.5 0 -2.03293e+06 92933.6 0 -2.03357e+06 94680.1 0 -2.03421e+06 96428.1 0 -2.03487e+06 98177.5 0 -2.03553e+06 99928.4 0 -2.03621e+06 101681 0 -2.03691e+06 103435 0 -2.03761e+06 105190 0 -2.03832e+06 106947 0 -2.03905e+06 108706 0 -2.03979e+06 110466 0 -2.04054e+06 112228 0 -2.0413e+06 113992 0 -2.04207e+06 115757 0 -2.04286e+06 117524 0 -2.04366e+06 119293 0 -2.04446e+06 121064 0 -2.04529e+06 122837 0 -2.04612e+06 124611 0 -2.04696e+06 126388 0 -2.04782e+06 128166 0 -2.04869e+06 129946 0 -2.04957e+06 131728 0 -2.05046e+06 133513 0 -2.05136e+06 135299 0 -2.05228e+06 137087 0 -2.05321e+06 138878 0 -2.05415e+06 140670 0 -2.0551e+06 142465 0 -2.05606e+06 144262 0 -2.05704e+06 146061 0 -2.05803e+06 147863 0 -2.05903e+06 149667 0 -2.06004e+06 151473 0 -2.06106e+06 153281 0 -2.0621e+06 155092 0 -2.06314e+06 156905 0 -2.0642e+06 158721 0 -2.06527e+06 160539 0 -2.06636e+06 162360 0 -2.06745e+06 164183 0 -2.06856e+06 166009 0 -2.06968e+06 167837 0 -2.07081e+06 169668 0 -2.07196e+06 171502 0 -2.07311e+06 173338 0 -2.07428e+06 175178 0 -2.07546e+06 177020 0 -2.07665e+06 178864 0 -2.07786e+06 180712 0 -2.07908e+06 182562 0 -2.08031e+06 184416 0 -2.08155e+06 186272 0 -2.0828e+06 188131 0 -2.08407e+06 189993 0 -2.08534e+06 191859 0 -2.08663e+06 193727 0 -2.08794e+06 195599 0 -2.08925e+06 197473 0 -2.09058e+06 199351 0 -2.09192e+06 201232 0 -2.09327e+06 203117 0 -2.09464e+06 205004 0 -2.09601e+06 206895 0 -2.0974e+06 208789 0 -2.0988e+06 210687 0 -2.10022e+06 212588 0 -2.10164e+06 214493 0 -2.10308e+06 216401 0 -2.10453e+06 218313 0 -2.106e+06 220228 0 -2.10747e+06 222147 0 -2.10896e+06 224070 0 -2.11046e+06 225996 0 -2.01489e+06 0 0 -2.0149e+06 1771.5 0 -2.01492e+06 3543.04 0 -2.01495e+06 5314.63 0 -2.01499e+06 7086.31 0 -2.01505e+06 8858.11 0 -2.01511e+06 10630 0 -2.01519e+06 12402.2 0 -2.01529e+06 14174.5 0 -2.01539e+06 15947 0 -2.01551e+06 17719.8 0 -2.01564e+06 19492.8 0 -2.01578e+06 21266.2 0 -2.01593e+06 23039.9 0 -2.0161e+06 24814 0 -2.01628e+06 26588.4 0 -2.01647e+06 28363.3 0 -2.01667e+06 30138.6 0 -2.01688e+06 31914.4 0 -2.01711e+06 33690.7 0 -2.01735e+06 35467.6 0 -2.0176e+06 37244.9 0 -2.01787e+06 39022.9 0 -2.01814e+06 40801.5 0 -2.01843e+06 42580.7 0 -2.01873e+06 44360.6 0 -2.01905e+06 46141.2 0 -2.01937e+06 47922.5 0 -2.01971e+06 49704.6 0 -2.02006e+06 51487.4 0 -2.02043e+06 53271.1 0 -2.0208e+06 55055.6 0 -2.02119e+06 56841 0 -2.02159e+06 58627.2 0 -2.022e+06 60414.4 0 -2.02243e+06 62202.5 0 -2.02286e+06 63991.7 0 -2.02331e+06 65781.8 0 -2.02377e+06 67572.9 0 -2.02425e+06 69365.2 0 -2.02473e+06 71158.5 0 -2.02523e+06 72953 0 -2.02574e+06 74748.6 0 -2.02627e+06 76545.3 0 -2.0268e+06 78343.3 0 -2.02735e+06 80142.6 0 -2.02791e+06 81943.1 0 -2.02849e+06 83744.9 0 -2.02907e+06 85548 0 -2.02967e+06 87352.5 0 -2.03028e+06 89158.4 0 -2.0309e+06 90965.7 0 -2.03154e+06 92774.5 0 -2.03219e+06 94584.7 0 -2.03285e+06 96396.5 0 -2.03352e+06 98209.7 0 -2.03421e+06 100025 0 -2.0349e+06 101841 0 -2.03561e+06 103659 0 -2.03634e+06 105479 0 -2.03707e+06 107300 0 -2.03782e+06 109123 0 -2.03858e+06 110948 0 -2.03935e+06 112775 0 -2.04014e+06 114603 0 -2.04094e+06 116434 0 -2.04175e+06 118266 0 -2.04257e+06 120100 0 -2.04341e+06 121936 0 -2.04426e+06 123774 0 -2.04512e+06 125614 0 -2.04599e+06 127456 0 -2.04688e+06 129301 0 -2.04777e+06 131147 0 -2.04869e+06 132995 0 -2.04961e+06 134846 0 -2.05055e+06 136698 0 -2.0515e+06 138553 0 -2.05246e+06 140411 0 -2.05343e+06 142270 0 -2.05442e+06 144132 0 -2.05542e+06 145996 0 -2.05643e+06 147863 0 -2.05746e+06 149732 0 -2.0585e+06 151604 0 -2.05955e+06 153478 0 -2.06061e+06 155354 0 -2.06169e+06 157233 0 -2.06278e+06 159115 0 -2.06388e+06 160999 0 -2.06499e+06 162886 0 -2.06612e+06 164776 0 -2.06726e+06 166669 0 -2.06842e+06 168564 0 -2.06958e+06 170462 0 -2.07076e+06 172363 0 -2.07195e+06 174267 0 -2.07316e+06 176174 0 -2.07438e+06 178083 0 -2.07561e+06 179996 0 -2.07685e+06 181912 0 -2.07811e+06 183831 0 -2.07938e+06 185753 0 -2.08066e+06 187678 0 -2.08196e+06 189606 0 -2.08327e+06 191538 0 -2.08459e+06 193472 0 -2.08592e+06 195410 0 -2.08727e+06 197352 0 -2.08863e+06 199297 0 -2.09e+06 201245 0 -2.09139e+06 203197 0 -2.09279e+06 205152 0 -2.09421e+06 207110 0 -2.09563e+06 209073 0 -2.09707e+06 211039 0 -2.09852e+06 213008 0 -2.09999e+06 214981 0 -2.10147e+06 216958 0 -2.10296e+06 218939 0 -2.10447e+06 220924 0 -2.10599e+06 222912 0 -2.10752e+06 224905 0 -2.10907e+06 226901 0 -2.11063e+06 228902 0 -2.1122e+06 230906 0 -2.11378e+06 232914 0 -2.11538e+06 234927 0 -2.01373e+06 0 0 -2.01373e+06 1834.86 0 -2.01375e+06 3669.75 0 -2.01378e+06 5504.71 0 -2.01383e+06 7339.76 0 -2.01389e+06 9174.94 0 -2.01396e+06 11010.3 0 -2.01405e+06 12845.8 0 -2.01414e+06 14681.5 0 -2.01425e+06 16517.5 0 -2.01438e+06 18353.8 0 -2.01451e+06 20190.4 0 -2.01466e+06 22027.3 0 -2.01483e+06 23864.5 0 -2.015e+06 25702.2 0 -2.01519e+06 27540.3 0 -2.0154e+06 29378.9 0 -2.01561e+06 31217.9 0 -2.01584e+06 33057.5 0 -2.01608e+06 34897.6 0 -2.01633e+06 36738.3 0 -2.0166e+06 38579.7 0 -2.01688e+06 40421.6 0 -2.01718e+06 42264.3 0 -2.01748e+06 44107.6 0 -2.0178e+06 45951.7 0 -2.01814e+06 47796.5 0 -2.01848e+06 49642.1 0 -2.01884e+06 51488.6 0 -2.01921e+06 53335.9 0 -2.0196e+06 55184.2 0 -2.02e+06 57033.3 0 -2.02041e+06 58883.4 0 -2.02083e+06 60734.5 0 -2.02127e+06 62586.5 0 -2.02172e+06 64439.7 0 -2.02219e+06 66293.9 0 -2.02266e+06 68149.2 0 -2.02315e+06 70005.7 0 -2.02366e+06 71863.3 0 -2.02417e+06 73722.2 0 -2.0247e+06 75582.2 0 -2.02525e+06 77443.6 0 -2.0258e+06 79306.2 0 -2.02637e+06 81170.2 0 -2.02695e+06 83035.6 0 -2.02755e+06 84902.3 0 -2.02816e+06 86770.5 0 -2.02878e+06 88640.1 0 -2.02941e+06 90511.2 0 -2.03006e+06 92383.9 0 -2.03072e+06 94258.1 0 -2.0314e+06 96133.9 0 -2.03209e+06 98011.4 0 -2.03279e+06 99890.5 0 -2.0335e+06 101771 0 -2.03423e+06 103654 0 -2.03497e+06 105538 0 -2.03573e+06 107424 0 -2.03649e+06 109312 0 -2.03727e+06 111202 0 -2.03807e+06 113093 0 -2.03888e+06 114987 0 -2.0397e+06 116883 0 -2.04053e+06 118780 0 -2.04138e+06 120680 0 -2.04224e+06 122581 0 -2.04311e+06 124485 0 -2.044e+06 126391 0 -2.0449e+06 128299 0 -2.04582e+06 130209 0 -2.04674e+06 132122 0 -2.04768e+06 134037 0 -2.04864e+06 135954 0 -2.04961e+06 137873 0 -2.05059e+06 139795 0 -2.05158e+06 141719 0 -2.05259e+06 143646 0 -2.05361e+06 145575 0 -2.05465e+06 147507 0 -2.0557e+06 149442 0 -2.05676e+06 151378 0 -2.05784e+06 153318 0 -2.05893e+06 155260 0 -2.06003e+06 157205 0 -2.06114e+06 159153 0 -2.06227e+06 161104 0 -2.06342e+06 163057 0 -2.06458e+06 165013 0 -2.06575e+06 166973 0 -2.06693e+06 168935 0 -2.06813e+06 170900 0 -2.06934e+06 172868 0 -2.07057e+06 174839 0 -2.07181e+06 176814 0 -2.07306e+06 178791 0 -2.07433e+06 180772 0 -2.07561e+06 182756 0 -2.0769e+06 184743 0 -2.07821e+06 186733 0 -2.07953e+06 188727 0 -2.08086e+06 190725 0 -2.08221e+06 192725 0 -2.08358e+06 194730 0 -2.08495e+06 196737 0 -2.08634e+06 198749 0 -2.08775e+06 200764 0 -2.08917e+06 202782 0 -2.0906e+06 204804 0 -2.09205e+06 206830 0 -2.09351e+06 208860 0 -2.09498e+06 210894 0 -2.09647e+06 212931 0 -2.09797e+06 214973 0 -2.09949e+06 217018 0 -2.10102e+06 219068 0 -2.10256e+06 221121 0 -2.10412e+06 223179 0 -2.10569e+06 225240 0 -2.10728e+06 227306 0 -2.10888e+06 229377 0 -2.1105e+06 231451 0 -2.11213e+06 233530 0 -2.11377e+06 235613 0 -2.11543e+06 237701 0 -2.1171e+06 239793 0 -2.11878e+06 241890 0 -2.12048e+06 243991 0 -2.01255e+06 0 0 -2.01256e+06 1898.7 0 -2.01258e+06 3797.44 0 -2.01261e+06 5696.26 0 -2.01266e+06 7595.17 0 -2.01273e+06 9494.23 0 -2.0128e+06 11393.5 0 -2.01289e+06 13292.9 0 -2.01299e+06 15192.5 0 -2.01311e+06 17092.5 0 -2.01324e+06 18992.7 0 -2.01339e+06 20893.3 0 -2.01355e+06 22794.2 0 -2.01372e+06 24695.6 0 -2.01391e+06 26597.4 0 -2.01411e+06 28499.6 0 -2.01432e+06 30402.4 0 -2.01455e+06 32305.7 0 -2.01479e+06 34209.6 0 -2.01505e+06 36114 0 -2.01532e+06 38019.1 0 -2.0156e+06 39924.9 0 -2.0159e+06 41831.4 0 -2.01621e+06 43738.6 0 -2.01653e+06 45646.6 0 -2.01687e+06 47555.4 0 -2.01723e+06 49465.1 0 -2.01759e+06 51375.6 0 -2.01797e+06 53287 0 -2.01837e+06 55199.4 0 -2.01878e+06 57112.7 0 -2.0192e+06 59027 0 -2.01963e+06 60942.4 0 -2.02008e+06 62858.9 0 -2.02055e+06 64776.5 0 -2.02103e+06 66695.2 0 -2.02152e+06 68615.1 0 -2.02202e+06 70536.3 0 -2.02254e+06 72458.7 0 -2.02308e+06 74382.3 0 -2.02362e+06 76307.3 0 -2.02418e+06 78233.7 0 -2.02476e+06 80161.4 0 -2.02535e+06 82090.6 0 -2.02595e+06 84021.2 0 -2.02657e+06 85953.3 0 -2.0272e+06 87887 0 -2.02785e+06 89822.2 0 -2.0285e+06 91759 0 -2.02918e+06 93697.5 0 -2.02987e+06 95637.7 0 -2.03057e+06 97579.5 0 -2.03128e+06 99523.1 0 -2.03201e+06 101469 0 -2.03275e+06 103416 0 -2.03351e+06 105365 0 -2.03428e+06 1073