<?xml version="1.0"?> 
<VTKFile type="StructuredGrid" version="0.1"> 
<StructuredGrid WholeExtent="0 127 0 127 0 0"> 
<Piece Extent="0 127 0 127 0 0"> 
<PointData>
<DataArray type="Float32" Name="E" format="ascii" NumberOfComponents="3"> 
4.3625e+06 -1.78912e+06 0 4.42642e+06 -1.77782e+06 0 4.48459e+06 -1.76447e+06 0 4.53817e+06 -1.74962e+06 0 4.58804e+06 -1.73368e+06 0 4.63487e+06 -1.71694e+06 0 4.67917e+06 -1.69963e+06 0 4.72137e+06 -1.68192e+06 0 4.76176e+06 -1.66392e+06 0 4.80061e+06 -1.64572e+06 0 4.83812e+06 -1.6274e+06 0 4.87447e+06 -1.60901e+06 0 4.90978e+06 -1.59059e+06 0 4.94419e+06 -1.57215e+06 0 4.97779e+06 -1.55373e+06 0 5.01067e+06 -1.53534e+06 0 5.0429e+06 -1.51698e+06 0 5.07454e+06 -1.49868e+06 0 5.10567e+06 -1.48042e+06 0 5.13633e+06 -1.46221e+06 0 5.16656e+06 -1.44405e+06 0 5.1964e+06 -1.42593e+06 0 5.2259e+06 -1.40786e+06 0 5.25509e+06 -1.38983e+06 0 5.28399e+06 -1.37183e+06 0 5.31264e+06 -1.35385e+06 0 5.34106e+06 -1.3359e+06 0 5.36927e+06 -1.31796e+06 0 5.39729e+06 -1.30002e+06 0 5.42514e+06 -1.28208e+06 0 5.45284e+06 -1.26413e+06 0 5.48041e+06 -1.24616e+06 0 5.50785e+06 -1.22816e+06 0 5.53519e+06 -1.21013e+06 0 5.56243e+06 -1.19205e+06 0 5.58958e+06 -1.17391e+06 0 5.61666e+06 -1.15571e+06 0 5.64367e+06 -1.13745e+06 0 5.67063e+06 -1.1191e+06 0 5.69753e+06 -1.10066e+06 0 5.72439e+06 -1.08213e+06 0 5.75121e+06 -1.06349e+06 0 5.778e+06 -1.04473e+06 0 5.80476e+06 -1.02585e+06 0 5.8315e+06 -1.00684e+06 0 5.85822e+06 -987695 0 5.88492e+06 -968398 0 5.91161e+06 -948944 0 5.93829e+06 -929326 0 5.96496e+06 -909535 0 5.99162e+06 -889565 0 6.01828e+06 -869405 0 6.04493e+06 -849050 0 6.07157e+06 -828491 0 6.09821e+06 -807721 0 6.12485e+06 -786732 0 6.15148e+06 -765517 0 6.1781e+06 -744068 0 6.20472e+06 -722379 0 6.23133e+06 -700442 0 6.25792e+06 -678250 0 6.28451e+06 -655797 0 6.31108e+06 -633076 0 6.33764e+06 -610079 0 6.36417e+06 -586801 0 6.39069e+06 -563235 0 6.41718e+06 -539375 0 6.44364e+06 -515214 0 6.47007e+06 -490747 0 6.49646e+06 -465967 0 6.52281e+06 -440869 0 6.54912e+06 -415446 0 6.57538e+06 -389695 0 6.60159e+06 -363608 0 6.62774e+06 -337181 0 6.65383e+06 -310408 0 6.67984e+06 -283284 0 6.70579e+06 -255806 0 6.73166e+06 -227967 0 6.75744e+06 -199763 0 6.78314e+06 -171191 0 6.80873e+06 -142244 0 6.83423e+06 -112921 0 6.85961e+06 -83215.6 0 6.88488e+06 -53125.3 0 6.91003e+06 -22646.3 0 6.93505e+06 8224.96 0 6.95993e+06 39491.6 0 6.98467e+06 71156.7 0 7.00926e+06 103223 0 7.0337e+06 135693 0 7.05796e+06 168570 0 7.08206e+06 201856 0 7.10597e+06 235552 0 7.1297e+06 269661 0 7.15323e+06 304183 0 7.17655e+06 339122 0 7.19967e+06 374477 0 7.22256e+06 410250 0 7.24522e+06 446442 0 7.26764e+06 483053 0 7.28982e+06 520082 0 7.31175e+06 557532 0 7.33341e+06 595400 0 7.35479e+06 633687 0 7.3759e+06 672392 0 7.39672e+06 711515 0 7.41724e+06 751053 0 7.43745e+06 791005 0 7.45735e+06 831370 0 7.47692e+06 872147 0 7.49615e+06 913331 0 7.51505e+06 954922 0 7.53359e+06 996916 0 7.55177e+06 1.03931e+06 0 7.56959e+06 1.0821e+06 0 7.58702e+06 1.12529e+06 0 7.60407e+06 1.16886e+06 0 7.62072e+06 1.21282e+06 0 7.63697e+06 1.25717e+06 0 7.65281e+06 1.30189e+06 0 7.66822e+06 1.34698e+06 0 7.68321e+06 1.39244e+06 0 7.69776e+06 1.43826e+06 0 7.71186e+06 1.48444e+06 0 7.72551e+06 1.53096e+06 0 7.73869e+06 1.57783e+06 0 7.75141e+06 1.62504e+06 0 4.53468e+06 -1.52962e+06 0 4.56771e+06 -1.52691e+06 0 4.60157e+06 -1.52216e+06 0 4.6358e+06 -1.51574e+06 0 4.67008e+06 -1.50793e+06 0 4.70422e+06 -1.49895e+06 0 4.73805e+06 -1.48899e+06 0 4.77151e+06 -1.4782e+06 0 4.80453e+06 -1.46671e+06 0 4.83709e+06 -1.45461e+06 0 4.86919e+06 -1.442e+06 0 4.90083e+06 -1.42895e+06 0 4.93203e+06 -1.4155e+06 0 4.96279e+06 -1.40173e+06 0 4.99313e+06 -1.38766e+06 0 5.02309e+06 -1.37333e+06 0 5.05267e+06 -1.35878e+06 0 5.08191e+06 -1.34402e+06 0 5.11083e+06 -1.32908e+06 0 5.13944e+06 -1.31398e+06 0 5.16776e+06 -1.29872e+06 0 5.19582e+06 -1.28333e+06 0 5.22364e+06 -1.26781e+06 0 5.25123e+06 -1.25216e+06 0 5.2786e+06 -1.2364e+06 0 5.30578e+06 -1.22052e+06 0 5.33277e+06 -1.20454e+06 0 5.3596e+06 -1.18844e+06 0 5.38628e+06 -1.17224e+06 0 5.41281e+06 -1.15593e+06 0 5.43921e+06 -1.13951e+06 0 5.46548e+06 -1.12299e+06 0 5.49165e+06 -1.10635e+06 0 5.51771e+06 -1.08959e+06 0 5.54368e+06 -1.07272e+06 0 5.56957e+06 -1.05573e+06 0 5.59537e+06 -1.03861e+06 0 5.62111e+06 -1.02136e+06 0 5.64677e+06 -1.00397e+06 0 5.67238e+06 -986452 0 5.69793e+06 -968787 0 5.72342e+06 -950973 0 5.74887e+06 -933005 0 5.77428e+06 -914878 0 5.79965e+06 -896587 0 5.82497e+06 -878126 0 5.85027e+06 -859490 0 5.87552e+06 -840673 0 5.90075e+06 -821669 0 5.92595e+06 -802474 0 5.95111e+06 -783080 0 5.97625e+06 -763483 0 6.00135e+06 -743677 0 6.02643e+06 -723657 0 6.05148e+06 -703416 0 6.0765e+06 -682950 0 6.10149e+06 -662253 0 6.12644e+06 -641319 0 6.15137e+06 -620143 0 6.17626e+06 -598719 0 6.20111e+06 -577043 0 6.22592e+06 -555110 0 6.2507e+06 -532914 0 6.27542e+06 -510449 0 6.30011e+06 -487713 0 6.32474e+06 -464698 0 6.34932e+06 -441401 0 6.37385e+06 -417818 0 6.39831e+06 -393942 0 6.42272e+06 -369771 0 6.44705e+06 -345300 0 6.47132e+06 -320524 0 6.49551e+06 -295440 0 6.51962e+06 -270044 0 6.54365e+06 -244331 0 6.56758e+06 -218299 0 6.59143e+06 -191943 0 6.61517e+06 -165260 0 6.63881e+06 -138247 0 6.66235e+06 -110901 0 6.68576e+06 -83219 0 6.70906e+06 -55198 0 6.73223e+06 -26835.4 0 6.75527e+06 1871.3 0 6.77817e+06 30924.3 0 6.80093e+06 60325.9 0 6.82353e+06 90078 0 6.84598e+06 120182 0 6.86827e+06 150641 0 6.89039e+06 181455 0 6.91233e+06 212625 0 6.9341e+06 244154 0 6.95567e+06 276041 0 6.97705e+06 308288 0 6.99822e+06 340894 0 7.01919e+06 373861 0 7.03994e+06 407189 0 7.06046e+06 440877 0 7.08076e+06 474925 0 7.10082e+06 509333 0 7.12064e+06 544101 0 7.1402e+06 579226 0 7.15951e+06 614709 0 7.17855e+06 650548 0 7.19732e+06 686742 0 7.21581e+06 723288 0 7.23402e+06 760186 0 7.25193e+06 797433 0 7.26954e+06 835027 0 7.28685e+06 872965 0 7.30384e+06 911245 0 7.32051e+06 949864 0 7.33685e+06 988819 0 7.35286e+06 1.02811e+06 0 7.36852e+06 1.06772e+06 0 7.38384e+06 1.10767e+06 0 7.3988e+06 1.14793e+06 0 7.41341e+06 1.18851e+06 0 7.42764e+06 1.22941e+06 0 7.4415e+06 1.27061e+06 0 7.45498e+06 1.31212e+06 0 7.46808e+06 1.35393e+06 0 7.48078e+06 1.39604e+06 0 7.49308e+06 1.43843e+06 0 7.50499e+06 1.48111e+06 0 7.51648e+06 1.52406e+06 0 7.52756e+06 1.5673e+06 0 7.53821e+06 1.61079e+06 0 4.62156e+06 -1.35973e+06 0 4.64989e+06 -1.35453e+06 0 4.67819e+06 -1.34875e+06 0 4.70647e+06 -1.3424e+06 0 4.73472e+06 -1.33546e+06 0 4.76293e+06 -1.32794e+06 0 4.79108e+06 -1.31988e+06 0 4.81915e+06 -1.31128e+06 0 4.84713e+06 -1.30218e+06 0 4.87498e+06 -1.2926e+06 0 4.90271e+06 -1.28259e+06 0 4.9303e+06 -1.27216e+06 0 4.95773e+06 -1.26133e+06 0 4.98501e+06 -1.25015e+06 0 5.01212e+06 -1.23862e+06 0 5.03907e+06 -1.22678e+06 0 5.06585e+06 -1.21464e+06 0 5.09247e+06 -1.20222e+06 0 5.11893e+06 -1.18954e+06 0 5.14522e+06 -1.1766e+06 0 5.17137e+06 -1.16343e+06 0 5.19736e+06 -1.15004e+06 0 5.22322e+06 -1.13643e+06 0 5.24893e+06 -1.12262e+06 0 5.27451e+06 -1.1086e+06 0 5.29996e+06 -1.0944e+06 0 5.32529e+06 -1.08001e+06 0 5.35051e+06 -1.06544e+06 0 5.37562e+06 -1.0507e+06 0 5.40062e+06 -1.03577e+06 0 5.42552e+06 -1.02068e+06 0 5.45034e+06 -1.00542e+06 0 5.47506e+06 -989981 0 5.4997e+06 -974376 0 5.52426e+06 -958602 0 5.54875e+06 -942658 0 5.57316e+06 -926542 0 5.59751e+06 -910253 0 5.6218e+06 -893789 0 5.64602e+06 -877149 0 5.67019e+06 -860330 0 5.6943e+06 -843330 0 5.71836e+06 -826145 0 5.74237e+06 -808774 0 5.76633e+06 -791211 0 5.79024e+06 -773456 0 5.8141e+06 -755503 0 5.83791e+06 -737350 0 5.86169e+06 -718992 0 5.88541e+06 -700427 0 5.90909e+06 -681650 0 5.93273e+06 -662658 0 5.95631e+06 -643447 0 5.97986e+06 -624013 0 6.00335e+06 -604351 0 6.0268e+06 -584459 0 6.05019e+06 -564333 0 6.07354e+06 -543968 0 6.09683e+06 -523360 0 6.12007e+06 -502507 0 6.14325e+06 -481403 0 6.16636e+06 -460046 0 6.18942e+06 -438432 0 6.21241e+06 -416558 0 6.23534e+06 -394419 0 6.25819e+06 -372012 0 6.28097e+06 -349335 0 6.30367e+06 -326383 0 6.32629e+06 -303153 0 6.34883e+06 -279644 0 6.37128e+06 -255850 0 6.39363e+06 -231771 0 6.41589e+06 -207402 0 6.43804e+06 -182742 0 6.4601e+06 -157787 0 6.48204e+06 -132536 0 6.50386e+06 -106986 0 6.52557e+06 -81135.2 0 6.54715e+06 -54981.3 0 6.56861e+06 -28522.5 0 6.58993e+06 -1757.13 0 6.61111e+06 25316.3 0 6.63214e+06 52699.3 0 6.65303e+06 80393.2 0 6.67376e+06 108399 0 6.69433e+06 136718 0 6.71473e+06 165350 0 6.73496e+06 194297 0 6.75501e+06 223559 0 6.77488e+06 253135 0 6.79457e+06 283028 0 6.81405e+06 313235 0 6.83334e+06 343758 0 6.85242e+06 374596 0 6.87129e+06 405748 0 6.88994e+06 437214 0 6.90837e+06 468993 0 6.92656e+06 501083 0 6.94452e+06 533484 0 6.96224e+06 566195 0 6.97972e+06 599214 0 6.99694e+06 632538 0 7.0139e+06 666167 0 7.0306e+06 700098 0 7.04702e+06 734330 0 7.06318e+06 768859 0 7.07905e+06 803684 0 7.09463e+06 838801 0 7.10992e+06 874207 0 7.12491e+06 909901 0 7.1396e+06 945878 0 7.15398e+06 982136 0 7.16805e+06 1.01867e+06 0 7.1818e+06 1.05548e+06 0 7.19522e+06 1.09256e+06 0 7.20832e+06 1.1299e+06 0 7.22108e+06 1.1675e+06 0 7.2335e+06 1.20537e+06 0 7.24558e+06 1.24348e+06 0 7.25731e+06 1.28185e+06 0 7.26869e+06 1.32046e+06 0 7.27972e+06 1.3593e+06 0 7.29038e+06 1.39839e+06 0 7.30068e+06 1.4377e+06 0 7.31061e+06 1.47724e+06 0 7.32017e+06 1.517e+06 0 7.32935e+06 1.55697e+06 0 7.33815e+06 1.59716e+06 0 4.69109e+06 -1.21029e+06 0 4.71451e+06 -1.20528e+06 0 4.73817e+06 -1.19985e+06 0 4.76202e+06 -1.194e+06 0 4.78604e+06 -1.18773e+06 0 4.81018e+06 -1.18105e+06 0 4.83443e+06 -1.17397e+06 0 4.85875e+06 -1.16649e+06 0 4.88312e+06 -1.15863e+06 0 4.90752e+06 -1.15039e+06 0 4.93194e+06 -1.14178e+06 0 4.95636e+06 -1.13282e+06 0 4.98077e+06 -1.12351e+06 0 5.00516e+06 -1.11387e+06 0 5.02952e+06 -1.10391e+06 0 5.05383e+06 -1.09364e+06 0 5.0781e+06 -1.08307e+06 0 5.10231e+06 -1.0722e+06 0 5.12646e+06 -1.06105e+06 0 5.15055e+06 -1.04963e+06 0 5.17458e+06 -1.03795e+06 0 5.19854e+06 -1.02601e+06 0 5.22243e+06 -1.01383e+06 0 5.24626e+06 -1.0014e+06 0 5.27001e+06 -988733 0 5.29369e+06 -975839 0 5.31731e+06 -962721 0 5.34086e+06 -949382 0 5.36433e+06 -935826 0 5.38774e+06 -922057 0 5.41109e+06 -908078 0 5.43437e+06 -893890 0 5.45759e+06 -879497 0 5.48075e+06 -864899 0 5.50384e+06 -850097 0 5.52688e+06 -835093 0 5.54986e+06 -819886 0 5.57278e+06 -804477 0 5.59565e+06 -788865 0 5.61846e+06 -773051 0 5.64121e+06 -757032 0 5.66392e+06 -740808 0 5.68657e+06 -724378 0 5.70916e+06 -707741 0 5.73171e+06 -690894 0 5.75419e+06 -673837 0 5.77663e+06 -656566 0 5.79902e+06 -639081 0 5.82134e+06 -621379 0 5.84362e+06 -603458 0 5.86584e+06 -585315 0 5.888e+06 -566948 0 5.9101e+06 -548355 0 5.93215e+06 -529533 0 5.95413e+06 -510480 0 5.97606e+06 -491193 0 5.99791e+06 -471670 0 6.01971e+06 -451909 0 6.04143e+06 -431905 0 6.06308e+06 -411659 0 6.08466e+06 -391165 0 6.10616e+06 -370423 0 6.12759e+06 -349430 0 6.14893e+06 -328184 0 6.17018e+06 -306682 0 6.19135e+06 -284922 0 6.21243e+06 -262901 0 6.23341e+06 -240619 0 6.2543e+06 -218073 0 6.27508e+06 -195260 0 6.29575e+06 -172180 0 6.31632e+06 -148830 0 6.33677e+06 -125208 0 6.3571e+06 -101315 0 6.37731e+06 -77146.6 0 6.3974e+06 -52703.2 0 6.41735e+06 -27983.2 0 6.43717e+06 -2985.62 0 6.45684e+06 22290.5 0 6.47638e+06 47845.9 0 6.49576e+06 73681.4 0 6.51499e+06 99797.3 0 6.53406e+06 126194 0 6.55296e+06 152872 0 6.5717e+06 179832 0 6.59026e+06 207072 0 6.60865e+06 234594 0 6.62685e+06 262397 0 6.64486e+06 290480 0 6.66268e+06 318843 0 6.6803e+06 347485 0 6.69772e+06 376405 0 6.71493e+06 405602 0 6.73192e+06 435076 0 6.7487e+06 464824 0 6.76525e+06 494845 0 6.78157e+06 525137 0 6.79766e+06 555700 0 6.81351e+06 586530 0 6.82912e+06 617627 0 6.84448e+06 648987 0 6.85959e+06 680608 0 6.87444e+06 712488 0 6.88903e+06 744624 0 6.90335e+06 777014 0 6.9174e+06 809655 0 6.93117e+06 842543 0 6.94467e+06 875676 0 6.95788e+06 909050 0 6.9708e+06 942662 0 6.98343e+06 976509 0 6.99576e+06 1.01059e+06 0 7.00779e+06 1.04489e+06 0 7.01952e+06 1.07942e+06 0 7.03094e+06 1.11417e+06 0 7.04204e+06 1.14913e+06 0 7.05284e+06 1.1843e+06 0 7.06331e+06 1.21968e+06 0 7.07346e+06 1.25527e+06 0 7.08329e+06 1.29105e+06 0 7.09279e+06 1.32703e+06 0 7.10196e+06 1.36319e+06 0 7.1108e+06 1.39954e+06 0 7.1193e+06 1.43607e+06 0 7.12746e+06 1.47278e+06 0 7.13528e+06 1.50965e+06 0 7.14276e+06 1.5467e+06 0 7.14989e+06 1.5839e+06 0 4.74281e+06 -1.07817e+06 0 4.76347e+06 -1.07321e+06 0 4.7843e+06 -1.06796e+06 0 4.8053e+06 -1.06241e+06 0 4.82645e+06 -1.05655e+06 0 4.84774e+06 -1.05039e+06 0 4.86915e+06 -1.04391e+06 0 4.89068e+06 -1.03712e+06 0 4.91232e+06 -1.03002e+06 0 4.93404e+06 -1.02261e+06 0 4.95585e+06 -1.01489e+06 0 4.97772e+06 -1.00687e+06 0 4.99965e+06 -998541 0 5.02162e+06 -989915 0 5.04363e+06 -980993 0 5.06567e+06 -971780 0 5.08772e+06 -962282 0 5.10979e+06 -952502 0 5.13187e+06 -942446 0 5.15394e+06 -932118 0 5.17601e+06 -921523 0 5.19806e+06 -910666 0 5.2201e+06 -899550 0 5.24211e+06 -888181 0 5.26411e+06 -876562 0 5.28607e+06 -864698 0 5.30801e+06 -852591 0 5.32991e+06 -840245 0 5.35178e+06 -827664 0 5.37361e+06 -814849 0 5.39541e+06 -801803 0 5.41716e+06 -788529 0 5.43888e+06 -775028 0 5.46055e+06 -761302 0 5.48218e+06 -747353 0 5.50377e+06 -733181 0 5.52531e+06 -718788 0 5.5468e+06 -704174 0 5.56825e+06 -689340 0 5.58965e+06 -674285 0 5.611e+06 -659010 0 5.6323e+06 -643515 0 5.65355e+06 -627800 0 5.67474e+06 -611863 0 5.69589e+06 -595705 0 5.71698e+06 -579325 0 5.73801e+06 -562721 0 5.75898e+06 -545893 0 5.7799e+06 -528839 0 5.80076e+06 -511560 0 5.82155e+06 -494052 0 5.84228e+06 -476316 0 5.86294e+06 -458349 0 5.88354e+06 -440151 0 5.90406e+06 -421719 0 5.92451e+06 -403053 0 5.94489e+06 -384151 0 5.96519e+06 -365011 0 5.98541e+06 -345633 0 6.00555e+06 -326014 0 6.0256e+06 -306153 0 6.04556e+06 -286050 0 6.06543e+06 -265702 0 6.08521e+06 -245108 0 6.10488e+06 -224267 0 6.12446e+06 -203177 0 6.14393e+06 -181839 0 6.16329e+06 -160250 0 6.18254e+06 -138409 0 6.20167e+06 -116316 0 6.22069e+06 -93969.8 0 6.23958e+06 -71369.7 0 6.25834e+06 -48515 0 6.27697e+06 -25405.1 0 6.29547e+06 -2039.59 0 6.31382e+06 21581.9 0 6.33203e+06 45459.6 0 6.3501e+06 69593.6 0 6.36801e+06 93984.1 0 6.38576e+06 118631 0 6.40335e+06 143534 0 6.42078e+06 168692 0 6.43804e+06 194106 0 6.45512e+06 219774 0 6.47203e+06 245697 0 6.48875e+06 271873 0 6.50528e+06 298300 0 6.52162e+06 324979 0 6.53776e+06 351908 0 6.55371e+06 379086 0 6.56945e+06 406511 0 6.58497e+06 434181 0 6.60029e+06 462095 0 6.61538e+06 490251 0 6.63026e+06 518646 0 6.6449e+06 547280 0 6.65932e+06 576150 0 6.6735e+06 605252 0 6.68744e+06 634586 0 6.70114e+06 664148 0 6.71459e+06 693935 0 6.72778e+06 723945 0 6.74073e+06 754175 0 6.75341e+06 784621 0 6.76584e+06 815281 0 6.77799e+06 846152 0 6.78988e+06 877230 0 6.80149e+06 908511 0 6.81283e+06 939992 0 6.82389e+06 971669 0 6.83467e+06 1.00354e+06 0 6.84516e+06 1.0356e+06 0 6.85537e+06 1.06784e+06 0 6.86528e+06 1.10027e+06 0 6.87491e+06 1.13287e+06 0 6.88423e+06 1.16565e+06 0 6.89326e+06 1.19859e+06 0 6.90199e+06 1.2317e+06 0 6.91041e+06 1.26497e+06 0 6.91853e+06 1.29839e+06 0 6.92634e+06 1.33197e+06 0 6.93385e+06 1.36569e+06 0 6.94105e+06 1.39956e+06 0 6.94793e+06 1.43356e+06 0 6.9545e+06 1.4677e+06 0 6.96076e+06 1.50197e+06 0 6.96671e+06 1.53636e+06 0 6.97234e+06 1.57087e+06 0 4.78381e+06 -957912 0 4.8021e+06 -953186 0 4.82058e+06 -948213 0 4.83925e+06 -942987 0 4.85809e+06 -937504 0 4.8771e+06 -931760 0 4.89625e+06 -925752 0 4.91555e+06 -919476 0 4.93498e+06 -912932 0 4.95453e+06 -906117 0 4.97418e+06 -899030 0 4.99394e+06 -891671 0 5.01379e+06 -884040 0 5.03372e+06 -876137 0 5.05373e+06 -867963 0 5.0738e+06 -859519 0 5.09393e+06 -850807 0 5.11411e+06 -841827 0 5.13432e+06 -832583 0 5.15458e+06 -823075 0 5.17486e+06 -813306 0 5.19517e+06 -803278 0 5.21549e+06 -792994 0 5.23583e+06 -782455 0 5.25617e+06 -771664 0 5.27652e+06 -760624 0 5.29686e+06 -749336 0 5.3172e+06 -737802 0 5.33753e+06 -726025 0 5.35784e+06 -714006 0 5.37814e+06 -701748 0 5.39841e+06 -689251 0 5.41867e+06 -676518 0 5.4389e+06 -663549 0 5.45909e+06 -650347 0 5.47926e+06 -636911 0 5.49939e+06 -623244 0 5.51949e+06 -609345 0 5.53955e+06 -595217 0 5.55956e+06 -580858 0 5.57954e+06 -566270 0 5.59947e+06 -551453 0 5.61934e+06 -536407 0 5.63917e+06 -521133 0 5.65895e+06 -505629 0 5.67867e+06 -489897 0 5.69834e+06 -473936 0 5.71795e+06 -457745 0 5.73749e+06 -441325 0 5.75697e+06 -424675 0 5.77638e+06 -407794 0 5.79573e+06 -390682 0 5.815e+06 -373338 0 5.8342e+06 -355763 0 5.85332e+06 -337954 0 5.87236e+06 -319913 0 5.89132e+06 -301637 0 5.91019e+06 -283127 0 5.92897e+06 -264382 0 5.94766e+06 -245401 0 5.96626e+06 -226184 0 5.98476e+06 -206730 0 6.00315e+06 -187038 0 6.02144e+06 -167109 0 6.03963e+06 -146942 0 6.0577e+06 -126536 0 6.07565e+06 -105892 0 6.09349e+06 -85008.3 0 6.1112e+06 -63885.5 0 6.12878e+06 -42523.4 0 6.14624e+06 -20922 0 6.16356e+06 918.674 0 6.18074e+06 22998.4 0 6.19779e+06 45317 0 6.21468e+06 67874.1 0 6.23143e+06 90669.3 0 6.24802e+06 113702 0 6.26445e+06 136972 0 6.28072e+06 160478 0 6.29683e+06 184219 0 6.31277e+06 208195 0 6.32853e+06 232404 0 6.34411e+06 256845 0 6.35952e+06 281517 0 6.37473e+06 306419 0 6.38976e+06 331549 0 6.40459e+06 356905 0 6.41922e+06 382486 0 6.43365e+06 408290 0 6.44788e+06 434315 0 6.46189e+06 460559 0 6.4757e+06 487019 0 6.48928e+06 513694 0 6.50265e+06 540582 0 6.51578e+06 567678 0 6.5287e+06 594982 0 6.54137e+06 622490 0 6.55382e+06 650200 0 6.56602e+06 678108 0 6.57799e+06 706212 0 6.58971e+06 734508 0 6.60118e+06 762994 0 6.61239e+06 791666 0 6.62336e+06 820520 0 6.63407e+06 849554 0 6.64451e+06 878763 0 6.6547e+06 908145 0 6.66462e+06 937695 0 6.67427e+06 967410 0 6.68365e+06 997286 0 6.69277e+06 1.02732e+06 0 6.7016e+06 1.05751e+06 0 6.71016e+06 1.08784e+06 0 6.71845e+06 1.11832e+06 0 6.72645e+06 1.14894e+06 0 6.73417e+06 1.1797e+06 0 6.74162e+06 1.21059e+06 0 6.74877e+06 1.24161e+06 0 6.75564e+06 1.27276e+06 0 6.76223e+06 1.30402e+06 0 6.76853e+06 1.33541e+06 0 6.77454e+06 1.3669e+06 0 6.78026e+06 1.3985e+06 0 6.78569e+06 1.4302e+06 0 6.79083e+06 1.46201e+06 0 6.79568e+06 1.4939e+06 0 6.80024e+06 1.52589e+06 0 6.80451e+06 1.55796e+06 0 4.81529e+06 -847676 0 4.83173e+06 -843166 0 4.84836e+06 -838441 0 4.86517e+06 -833496 0 4.88215e+06 -828325 0 4.89929e+06 -822925 0 4.91659e+06 -817290 0 4.93404e+06 -811419 0 4.95163e+06 -805307 0 4.96936e+06 -798951 0 4.98721e+06 -792350 0 5.00517e+06 -785500 0 5.02324e+06 -778401 0 5.04142e+06 -771051 0 5.05968e+06 -763450 0 5.07803e+06 -755596 0 5.09646e+06 -747489 0 5.11497e+06 -739129 0 5.13353e+06 -730517 0 5.15215e+06 -721652 0 5.17083e+06 -712535 0 5.18954e+06 -703166 0 5.2083e+06 -693547 0 5.22709e+06 -683678 0 5.24591e+06 -673561 0 5.26474e+06 -663196 0 5.2836e+06 -652584 0 5.30246e+06 -641727 0 5.32134e+06 -630625 0 5.34021e+06 -619281 0 5.35909e+06 -607694 0 5.37795e+06 -595866 0 5.39681e+06 -583799 0 5.41565e+06 -571492 0 5.43448e+06 -558948 0 5.45328e+06 -546167 0 5.47206e+06 -533149 0 5.49081e+06 -519896 0 5.50952e+06 -506409 0 5.5282e+06 -492687 0 5.54685e+06 -478732 0 5.56545e+06 -464544 0 5.58401e+06 -450123 0 5.60251e+06 -435471 0 5.62097e+06 -420587 0 5.63937e+06 -405471 0 5.65772e+06 -390124 0 5.67601e+06 -374547 0 5.69423e+06 -358738 0 5.71238e+06 -342699 0 5.73047e+06 -326430 0 5.74848e+06 -309929 0 5.76642e+06 -293199 0 5.78428e+06 -276238 0 5.80206e+06 -259046 0 5.81975e+06 -241625 0 5.83735e+06 -223973 0 5.85486e+06 -206091 0 5.87228e+06 -187979 0 5.88959e+06 -169636 0 5.90681e+06 -151064 0 5.92391e+06 -132262 0 5.94091e+06 -113231 0 5.9578e+06 -93969.9 0 5.97457e+06 -74480 0 5.99122e+06 -54761.4 0 6.00774e+06 -34814.6 0 6.02414e+06 -14639.8 0 6.04041e+06 5762.21 0 6.05654e+06 26391 0 6.07254e+06 47245.8 0 6.08839e+06 68326 0 6.1041e+06 89630.6 0 6.11965e+06 111159 0 6.13505e+06 132910 0 6.1503e+06 154882 0 6.16538e+06 177075 0 6.1803e+06 199487 0 6.19505e+06 222116 0 6.20963e+06 244962 0 6.22403e+06 268023 0 6.23825e+06 291297 0 6.25229e+06 314782 0 6.26614e+06 338477 0 6.2798e+06 362379 0 6.29326e+06 386487 0 6.30653e+06 410799 0 6.31959e+06 435311 0 6.33245e+06 460023 0 6.3451e+06 484931 0 6.35754e+06 510033 0 6.36976e+06 535326 0 6.38176e+06 560808 0 6.39354e+06 586476 0 6.4051e+06 612326 0 6.41643e+06 638357 0 6.42753e+06 664564 0 6.43839e+06 690946 0 6.44901e+06 717498 0 6.4594e+06 744217 0 6.46955e+06 771100 0 6.47945e+06 798143 0 6.4891e+06 825343 0 6.4985e+06 852697 0 6.50766e+06 880200 0 6.51656e+06 907849 0 6.5252e+06 935641 0 6.53359e+06 963570 0 6.54172e+06 991635 0 6.54959e+06 1.01983e+06 0 6.55719e+06 1.04815e+06 0 6.56454e+06 1.0766e+06 0 6.57162e+06 1.10516e+06 0 6.57843e+06 1.13384e+06 0 6.58498e+06 1.16263e+06 0 6.59125e+06 1.19152e+06 0 6.59726e+06 1.22052e+06 0 6.60301e+06 1.24961e+06 0 6.60848e+06 1.2788e+06 0 6.61368e+06 1.30809e+06 0 6.61861e+06 1.33745e+06 0 6.62327e+06 1.3669e+06 0 6.62766e+06 1.39643e+06 0 6.63179e+06 1.42603e+06 0 6.63564e+06 1.4557e+06 0 6.63922e+06 1.48543e+06 0 6.64253e+06 1.51523e+06 0 6.64557e+06 1.54508e+06 0 4.83903e+06 -745830 0 4.8539e+06 -741543 0 4.86896e+06 -737060 0 4.8842e+06 -732375 0 4.8996e+06 -727485 0 4.91517e+06 -722384 0 4.9309e+06 -717068 0 4.94678e+06 -711535 0 4.9628e+06 -705779 0 4.97896e+06 -699799 0 4.99525e+06 -693592 0 5.01166e+06 -687154 0 5.02819e+06 -680484 0 5.04483e+06 -673579 0 5.06157e+06 -666437 0 5.07841e+06 -659058 0 5.09533e+06 -651439 0 5.11234e+06 -643580 0 5.12943e+06 -635480 0 5.14658e+06 -627137 0 5.1638e+06 -618553 0 5.18107e+06 -609725 0 5.1984e+06 -600655 0 5.21577e+06 -591342 0 5.23318e+06 -581787 0 5.25062e+06 -571988 0 5.2681e+06 -561948 0 5.28559e+06 -551666 0 5.30311e+06 -541142 0 5.32063e+06 -530378 0 5.33817e+06 -519373 0 5.3557e+06 -508129 0 5.37324e+06 -496646 0 5.39077e+06 -484925 0 5.40829e+06 -472966 0 5.4258e+06 -460770 0 5.44328e+06 -448338 0 5.46075e+06 -435670 0 5.47818e+06 -422767 0 5.49559e+06 -409630 0 5.51296e+06 -396259 0 5.53029e+06 -382655 0 5.54758e+06 -368818 0 5.56482e+06 -354750 0 5.58201e+06 -340450 0 5.59915e+06 -325919 0 5.61624e+06 -311158 0 5.63326e+06 -296167 0 5.65021e+06 -280946 0 5.6671e+06 -265497 0 5.68392e+06 -249820 0 5.70066e+06 -233914 0 5.71733e+06 -217781 0 5.73391e+06 -201422 0 5.7504e+06 -184836 0 5.76681e+06 -168024 0 5.78312e+06 -150987 0 5.79933e+06 -133725 0 5.81545e+06 -116239 0 5.83146e+06 -98529.5 0 5.84736e+06 -80597.3 0 5.86316e+06 -62442.9 0 5.87883e+06 -44067.2 0 5.89439e+06 -25471 0 5.90983e+06 -6654.97 0 5.92514e+06 12379.9 0 5.94032e+06 31632.5 0 5.95537e+06 51102.1 0 5.97028e+06 70787.3 0 5.98505e+06 90687.2 0 5.99967e+06 110801 0 6.01415e+06 131126 0 6.02847e+06 151662 0 6.04264e+06 172407 0 6.05665e+06 193360 0 6.0705e+06 214520 0 6.08418e+06 235883 0 6.09769e+06 257450 0 6.11103e+06 279217 0 6.12419e+06 301183 0 6.13716e+06 323346 0 6.14996e+06 345704 0 6.16257e+06 368254 0 6.17498e+06 390994 0 6.1872e+06 413922 0 6.19923e+06 437036 0 6.21105e+06 460332 0 6.22267e+06 483809 0 6.23408e+06 507463 0 6.24528e+06 531292 0 6.25627e+06 555292 0 6.26704e+06 579461 0 6.27759e+06 603796 0 6.28792e+06 628294 0 6.29803e+06 652951 0 6.30791e+06 677765 0 6.31756e+06 702731 0 6.32698e+06 727847 0 6.33617e+06 753108 0 6.34512e+06 778512 0 6.35383e+06 804055 0 6.36231e+06 829734 0 6.37054e+06 855544 0 6.37853e+06 881481 0 6.38627e+06 907543 0 6.39376e+06 933725 0 6.40101e+06 960024 0 6.40801e+06 986435 0 6.41476e+06 1.01295e+06 0 6.42126e+06 1.03958e+06 0 6.4275e+06 1.0663e+06 0 6.43349e+06 1.09312e+06 0 6.43923e+06 1.12004e+06 0 6.44472e+06 1.14704e+06 0 6.44994e+06 1.17413e+06 0 6.45492e+06 1.2013e+06 0 6.45964e+06 1.22854e+06 0 6.4641e+06 1.25586e+06 0 6.46831e+06 1.28325e+06 0 6.47226e+06 1.3107e+06 0 6.47596e+06 1.33821e+06 0 6.47941e+06 1.36578e+06 0 6.4826e+06 1.3934e+06 0 6.48553e+06 1.42107e+06 0 6.48822e+06 1.44878e+06 0 6.49065e+06 1.47654e+06 0 6.49283e+06 1.50433e+06 0 6.49477e+06 1.53216e+06 0 4.85599e+06 -651384 0 4.86953e+06 -647306 0 4.88325e+06 -643045 0 4.89714e+06 -638596 0 4.9112e+06 -633954 0 4.92541e+06 -629116 0 4.93978e+06 -624077 0 4.9543e+06 -618834 0 4.96896e+06 -613383 0 4.98376e+06 -607722 0 4.99869e+06 -601846 0 5.01374e+06 -595754 0 5.02892e+06 -589442 0 5.0442e+06 -582908 0 5.05959e+06 -576150 0 5.07508e+06 -569167 0 5.09067e+06 -561955 0 5.10634e+06 -554514 0 5.12209e+06 -546843 0 5.13792e+06 -538939 0 5.15382e+06 -530803 0 5.16979e+06 -522432 0 5.18581e+06 -513827 0 5.20188e+06 -504987 0 5.218e+06 -495911 0 5.23416e+06 -486600 0 5.25035e+06 -477052 0 5.26658e+06 -467268 0 5.28283e+06 -457247 0 5.29909e+06 -446991 0 5.31538e+06 -436499 0 5.33167e+06 -425771 0 5.34797e+06 -414807 0 5.36426e+06 -403609 0 5.38055e+06 -392176 0 5.39683e+06 -380509 0 5.4131e+06 -368608 0 5.42934e+06 -356474 0 5.44556e+06 -344108 0 5.46176e+06 -331509 0 5.47792e+06 -318679 0 5.49404e+06 -305619 0 5.51013e+06 -292328 0 5.52616e+06 -278808 0 5.54215e+06 -265059 0 5.55809e+06 -251082 0 5.57397e+06 -236878 0 5.58978e+06 -222447 0 5.60554e+06 -207790 0 5.62122e+06 -192908 0 5.63683e+06 -177801 0 5.65236e+06 -162471 0 5.66781e+06 -146918 0 5.68318e+06 -131143 0 5.69845e+06 -115148 0 5.71364e+06 -98931.5 0 5.72873e+06 -82496.2 0 5.74371e+06 -65842.6 0 5.7586e+06 -48971.7 0 5.77337e+06 -31884.6 0 5.78804e+06 -14582.4 0 5.80259e+06 2933.85 0 5.81702e+06 20662.9 0 5.83132e+06 38603.5 0 5.8455e+06 56754.3 0 5.85955e+06 75114.1 0 5.87347e+06 93681.4 0 5.88725e+06 112455 0 5.90088e+06 131433 0 5.91437e+06 150613 0 5.92771e+06 169995 0 5.9409e+06 189577 0 5.95394e+06 209356 0 5.96681e+06 229331 0 5.97952e+06 249499 0 5.99206e+06 269860 0 6.00444e+06 290410 0 6.01663e+06 311148 0 6.02866e+06 332071 0 6.0405e+06 353176 0 6.05216e+06 374462 0 6.06363e+06 395926 0 6.07491e+06 417566 0 6.086e+06 439378 0 6.09689e+06 461360 0 6.10758e+06 483509 0 6.11807e+06 505823 0 6.12836e+06 528297 0 6.13844e+06 550931 0 6.14831e+06 573719 0 6.15796e+06 596659 0 6.1674e+06 619748 0 6.17663e+06 642983 0 6.18563e+06 666359 0 6.19441e+06 689875 0 6.20297e+06 713525 0 6.2113e+06 737308 0 6.2194e+06 761218 0 6.22727e+06 785253 0 6.23491e+06 809409 0 6.24231e+06 833681 0 6.24949e+06 858067 0 6.25642e+06 882563 0 6.26312e+06 907165 0 6.26958e+06 931868 0 6.2758e+06 956669 0 6.28178e+06 981564 0 6.28751e+06 1.00655e+06 0 6.29301e+06 1.03162e+06 0 6.29826e+06 1.05678e+06 0 6.30327e+06 1.08201e+06 0 6.30804e+06 1.10731e+06 0 6.31256e+06 1.13269e+06 0 6.31684e+06 1.15813e+06 0 6.32088e+06 1.18364e+06 0 6.32467e+06 1.20921e+06 0 6.32822e+06 1.23482e+06 0 6.33153e+06 1.26049e+06 0 6.3346e+06 1.28621e+06 0 6.33742e+06 1.31197e+06 0 6.34001e+06 1.33777e+06 0 6.34235e+06 1.3636e+06 0 6.34445e+06 1.38947e+06 0 6.34632e+06 1.41536e+06 0 6.34795e+06 1.44128e+06 0 6.34935e+06 1.46722e+06 0 6.35051e+06 1.49318e+06 0 6.35144e+06 1.51915e+06 0 4.867e+06 -563551 0 4.87939e+06 -559670 0 4.89195e+06 -555615 0 4.90467e+06 -551380 0 4.91756e+06 -546963 0 4.93059e+06 -542359 0 4.94378e+06 -537565 0 4.9571e+06 -532577 0 4.97057e+06 -527392 0 4.98417e+06 -522006 0 4.9979e+06 -516417 0 5.01175e+06 -510623 0 5.02572e+06 -504619 0 5.0398e+06 -498404 0 5.05399e+06 -491976 0 5.06828e+06 -485331 0 5.08266e+06 -478469 0 5.09713e+06 -471387 0 5.11168e+06 -464084 0 5.12631e+06 -456558 0 5.14101e+06 -448808 0 5.15578e+06 -440833 0 5.17061e+06 -432631 0 5.18549e+06 -424201 0 5.20043e+06 -415544 0 5.21541e+06 -406658 0 5.23042e+06 -397543 0 5.24547e+06 -388198 0 5.26055e+06 -378623 0 5.27565e+06 -368818 0 5.29076e+06 -358782 0 5.30589e+06 -348517 0 5.32103e+06 -338021 0 5.33617e+06 -327295 0 5.3513e+06 -316339 0 5.36643e+06 -305154 0 5.38155e+06 -293739 0 5.39665e+06 -282096 0 5.41172e+06 -270225 0 5.42677e+06 -258125 0 5.44179e+06 -245799 0 5.45677e+06 -233246 0 5.47171e+06 -220467 0 5.48661e+06 -207463 0 5.50146e+06 -194235 0 5.51625e+06 -180783 0 5.53099e+06 -167108 0 5.54567e+06 -153211 0 5.56028e+06 -139093 0 5.57481e+06 -124755 0 5.58928e+06 -110198 0 5.60366e+06 -95422.4 0 5.61796e+06 -80430 0 5.63218e+06 -65221.7 0 5.6463e+06 -49798.5 0 5.66033e+06 -34161.7 0 5.67426e+06 -18312.5 0 5.68809e+06 -2252.12 0 5.70181e+06 14018.1 0 5.71542e+06 30496.7 0 5.72891e+06 47182.3 0 5.74229e+06 64073.5 0 5.75554e+06 81168.7 0 5.76867e+06 98466.3 0 5.78167e+06 115965 0 5.79453e+06 133662 0 5.80726e+06 151557 0 5.81984e+06 169647 0 5.83228e+06 187931 0 5.84458e+06 206406 0 5.85672e+06 225071 0 5.8687e+06 243923 0 5.88052e+06 262961 0 5.89219e+06 282181 0 5.90368e+06 301583 0 5.91501e+06 321162 0 5.92617e+06 340918 0 5.93714e+06 360847 0 5.94794e+06 380946 0 5.95856e+06 401214 0 5.96899e+06 421647 0 5.97924e+06 442243 0 5.98929e+06 462998 0 5.99915e+06 483910 0 6.00881e+06 504976 0 6.01828e+06 526193 0 6.02754e+06 547557 0 6.0366e+06 569065 0 6.04545e+06 590715 0 6.05409e+06 612502 0 6.06252e+06 634423 0 6.07073e+06 656476 0 6.07873e+06 678656 0 6.08651e+06 700959 0 6.09408e+06 723383 0 6.10142e+06 745924 0 6.10854e+06 768578 0 6.11543e+06 791341 0 6.1221e+06 814210 0 6.12854e+06 837180 0 6.13475e+06 860249 0 6.14073e+06 883411 0 6.14649e+06 906664 0 6.15201e+06 930003 0 6.1573e+06 953425 0 6.16236e+06 976926 0 6.16718e+06 1.0005e+06 0 6.17177e+06 1.02415e+06 0 6.17613e+06 1.04786e+06 0 6.18025e+06 1.07164e+06 0 6.18414e+06 1.09547e+06 0 6.18779e+06 1.11936e+06 0 6.19121e+06 1.1433e+06 0 6.1944e+06 1.16729e+06 0 6.19736e+06 1.19132e+06 0 6.20008e+06 1.2154e+06 0 6.20257e+06 1.2395e+06 0 6.20483e+06 1.26364e+06 0 6.20686e+06 1.28781e+06 0 6.20866e+06 1.31201e+06 0 6.21024e+06 1.33622e+06 0 6.21158e+06 1.36045e+06 0 6.21271e+06 1.3847e+06 0 6.2136e+06 1.40895e+06 0 6.21428e+06 1.43322e+06 0 6.21473e+06 1.45748e+06 0 6.21497e+06 1.48175e+06 0 6.21499e+06 1.50601e+06 0 4.87273e+06 -481734 0 4.88412e+06 -478035 0 4.89566e+06 -474167 0 4.90736e+06 -470128 0 4.91921e+06 -465913 0 4.93121e+06 -461519 0 4.94335e+06 -456944 0 4.95563e+06 -452182 0 4.96804e+06 -447232 0 4.98058e+06 -442091 0 4.99324e+06 -436755 0 5.00602e+06 -431222 0 5.01891e+06 -425488 0 5.03192e+06 -419553 0 5.04502e+06 -413412 0 5.05823e+06 -407065 0 5.07152e+06 -400508 0 5.08491e+06 -393741 0 5.09837e+06 -386761 0 5.11191e+06 -379567 0 5.12553e+06 -372156 0 5.13921e+06 -364529 0 5.15295e+06 -356683 0 5.16674e+06 -348617 0 5.18059e+06 -340331 0 5.19448e+06 -331824 0 5.20841e+06 -323094 0 5.22237e+06 -3141