<?xml version="1.0"?> 
<VTKFile type="StructuredGrid" version="0.1"> 
<StructuredGrid WholeExtent="0 127 0 127 0 0"> 
<Piece Extent="0 127 0 127 0 0"> 
<PointData>
<DataArray type="Float32" Name="E" format="ascii" NumberOfComponents="3"> 
-4.76837e-07 9.83525e+06 0 -2.37576e+06 2.40732e+06 0 -2.2812e+06 1.49551e+06 0 -2.036e+06 1.29889e+06 0 -1.83365e+06 1.18974e+06 0 -1.69482e+06 1.11955e+06 0 -1.60323e+06 1.04033e+06 0 -1.53913e+06 966455 0 -1.49168e+06 897135 0 -1.45415e+06 834296 0 -1.42308e+06 777602 0 -1.39655e+06 726328 0 -1.37346e+06 679652 0 -1.35312e+06 636814 0 -1.33503e+06 597199 0 -1.31885e+06 560314 0 -1.30427e+06 525768 0 -1.29107e+06 493252 0 -1.27906e+06 462514 0 -1.26808e+06 433347 0 -1.25801e+06 405577 0 -1.24873e+06 379057 0 -1.24017e+06 353663 0 -1.23223e+06 329286 0 -1.22487e+06 305833 0 -1.21801e+06 283222 0 -1.21162e+06 261380 0 -1.20565e+06 240245 0 -1.20007e+06 219760 0 -1.19484e+06 199874 0 -1.18994e+06 180542 0 -1.18533e+06 161724 0 -1.18101e+06 143382 0 -1.17694e+06 125484 0 -1.17311e+06 107999 0 -1.16951e+06 90898.8 0 -1.16612e+06 74158.9 0 -1.16293e+06 57755.6 0 -1.15993e+06 41667.2 0 -1.1571e+06 25874 0 -1.15444e+06 10357.2 0 -1.15193e+06 -4900.12 0 -1.14958e+06 -19914.2 0 -1.14737e+06 -34699.9 0 -1.1453e+06 -49271.4 0 -1.14336e+06 -63641.9 0 -1.14155e+06 -77823.8 0 -1.13985e+06 -91828.9 0 -1.13827e+06 -105668 0 -1.13681e+06 -119353 0 -1.13545e+06 -132892 0 -1.1342e+06 -146296 0 -1.13305e+06 -159574 0 -1.132e+06 -172734 0 -1.13104e+06 -185785 0 -1.13018e+06 -198736 0 -1.12941e+06 -211593 0 -1.12874e+06 -224365 0 -1.12815e+06 -237060 0 -1.12765e+06 -249683 0 -1.12723e+06 -262243 0 -1.12691e+06 -274745 0 -1.12666e+06 -287198 0 -1.1265e+06 -299607 0 -1.12642e+06 -311979 0 -1.12642e+06 -324320 0 -1.12651e+06 -336637 0 -1.12668e+06 -348937 0 -1.12693e+06 -361224 0 -1.12726e+06 -373507 0 -1.12767e+06 -385791 0 -1.12817e+06 -398082 0 -1.12875e+06 -410387 0 -1.12941e+06 -422712 0 -1.13016e+06 -435064 0 -1.131e+06 -447450 0 -1.13192e+06 -459877 0 -1.13293e+06 -472350 0 -1.13403e+06 -484878 0 -1.13523e+06 -497469 0 -1.13651e+06 -510128 0 -1.1379e+06 -522864 0 -1.13938e+06 -535686 0 -1.14096e+06 -548602 0 -1.14264e+06 -561619 0 -1.14444e+06 -574749 0 -1.14634e+06 -587999 0 -1.14835e+06 -601381 0 -1.15048e+06 -614904 0 -1.15273e+06 -628580 0 -1.15511e+06 -642421 0 -1.15762e+06 -656439 0 -1.16027e+06 -670649 0 -1.16305e+06 -685063 0 -1.16599e+06 -699699 0 -1.16908e+06 -714572 0 -1.17234e+06 -729700 0 -1.17577e+06 -745104 0 -1.17939e+06 -760803 0 -1.18319e+06 -776822 0 -1.1872e+06 -793186 0 -1.19143e+06 -809923 0 -1.19589e+06 -827064 0 -1.2006e+06 -844644 0 -1.20558e+06 -862700 0 -1.21085e+06 -881278 0 -1.21643e+06 -900424 0 -1.22235e+06 -920196 0 -1.22864e+06 -940658 0 -1.23534e+06 -961882 0 -1.24249e+06 -983955 0 -1.25014e+06 -1.00698e+06 0 -1.25835e+06 -1.03107e+06 0 -1.26719e+06 -1.05636e+06 0 -1.27675e+06 -1.08304e+06 0 -1.28713e+06 -1.11132e+06 0 -1.29848e+06 -1.14146e+06 0 -1.31096e+06 -1.1738e+06 0 -1.32482e+06 -1.20881e+06 0 -1.34039e+06 -1.24711e+06 0 -1.35815e+06 -1.28958e+06 0 -1.3788e+06 -1.33747e+06 0 -1.4034e+06 -1.39264e+06 0 -1.43353e+06 -1.45787e+06 0 -1.47145e+06 -1.53746e+06 0 -1.52021e+06 -1.6411e+06 0 -1.58096e+06 -1.78492e+06 0 -1.64149e+06 -2.08327e+06 0 4.65661e-08 1.51086e+06 0 -183890 3.03144e+06 0 -869564 2.61202e+06 0 -1.24816e+06 2.16692e+06 0 -1.42166e+06 1.82096e+06 0 -1.47618e+06 1.56503e+06 0 -1.47575e+06 1.37805e+06 0 -1.45398e+06 1.23429e+06 0 -1.42624e+06 1.11991e+06 0 -1.3989e+06 1.02536e+06 0 -1.37398e+06 945009 0 -1.35182e+06 875221 0 -1.33217e+06 813588 0 -1.31466e+06 758428 0 -1.29894e+06 708518 0 -1.28473e+06 662940 0 -1.27182e+06 620984 0 -1.26003e+06 582097 0 -1.24922e+06 545835 0 -1.23927e+06 511844 0 -1.23009e+06 479832 0 -1.22159e+06 449558 0 -1.2137e+06 420824 0 -1.20637e+06 393459 0 -1.19954e+06 367321 0 -1.19315e+06 342287 0 -1.18718e+06 318252 0 -1.18159e+06 295123 0 -1.17634e+06 272819 0 -1.17141e+06 251271 0 -1.16677e+06 230416 0 -1.1624e+06 210198 0 -1.15829e+06 190568 0 -1.15441e+06 171481 0 -1.15075e+06 152897 0 -1.14729e+06 134781 0 -1.14402e+06 117098 0 -1.14094e+06 99820.5 0 -1.13803e+06 82919.7 0 -1.13528e+06 66371 0 -1.13268e+06 50151.4 0 -1.13022e+06 34239.5 0 -1.1279e+06 18615.9 0 -1.12572e+06 3262.14 0 -1.12365e+06 -11838.6 0 -1.12171e+06 -26702.2 0 -1.11988e+06 -41343.4 0 -1.11816e+06 -55776.2 0 -1.11655e+06 -70013.4 0 -1.11504e+06 -84067.6 0 -1.11363e+06 -97950.2 0 -1.11231e+06 -111672 0 -1.11108e+06 -125244 0 -1.10995e+06 -138676 0 -1.1089e+06 -151978 0 -1.10793e+06 -165157 0 -1.10705e+06 -178224 0 -1.10625e+06 -191187 0 -1.10553e+06 -204053 0 -1.10488e+06 -216831 0 -1.10431e+06 -229527 0 -1.10382e+06 -242150 0 -1.1034e+06 -254707 0 -1.10305e+06 -267204 0 -1.10278e+06 -279648 0 -1.10257e+06 -292047 0 -1.10244e+06 -304406 0 -1.10238e+06 -316732 0 -1.10239e+06 -329033 0 -1.10246e+06 -341313 0 -1.10261e+06 -353579 0 -1.10283e+06 -365839 0 -1.10312e+06 -378098 0 -1.10348e+06 -390362 0 -1.10391e+06 -402638 0 -1.10441e+06 -414933 0 -1.10498e+06 -427253 0 -1.10562e+06 -439605 0 -1.10634e+06 -451996 0 -1.10713e+06 -464432 0 -1.108e+06 -476921 0 -1.10894e+06 -489470 0 -1.10996e+06 -502086 0 -1.11106e+06 -514777 0 -1.11224e+06 -527552 0 -1.1135e+06 -540418 0 -1.11484e+06 -553385 0 -1.11627e+06 -566461 0 -1.11779e+06 -579655 0 -1.1194e+06 -592979 0 -1.1211e+06 -606441 0 -1.1229e+06 -620054 0 -1.1248e+06 -633829 0 -1.12679e+06 -647779 0 -1.1289e+06 -661916 0 -1.13111e+06 -676255 0 -1.13343e+06 -690811 0 -1.13588e+06 -705601 0 -1.13844e+06 -720642 0 -1.14113e+06 -735953 0 -1.14395e+06 -751555 0 -1.14691e+06 -767471 0 -1.15001e+06 -783725 0 -1.15327e+06 -800346 0 -1.15668e+06 -817362 0 -1.16025e+06 -834808 0 -1.16401e+06 -852720 0 -1.16794e+06 -871141 0 -1.17207e+06 -890118 0 -1.1764e+06 -909704 0 -1.18094e+06 -929960 0 -1.18572e+06 -950956 0 -1.19073e+06 -972773 0 -1.19599e+06 -995504 0 -1.20151e+06 -1.01926e+06 0 -1.20731e+06 -1.04417e+06 0 -1.21339e+06 -1.07038e+06 0 -1.21974e+06 -1.09809e+06 0 -1.22634e+06 -1.12751e+06 0 -1.23314e+06 -1.15892e+06 0 -1.24003e+06 -1.19269e+06 0 -1.24683e+06 -1.22929e+06 0 -1.25324e+06 -1.26935e+06 0 -1.25877e+06 -1.31387e+06 0 -1.26269e+06 -1.36399e+06 0 -1.26398e+06 -1.4222e+06 0 -1.26139e+06 -1.48984e+06 0 -1.25443e+06 -1.5714e+06 0 3.241e-07 1.88949e+06 0 -101134 1.61257e+06 0 -163563 1.96045e+06 0 -414890 2.03969e+06 0 -681176 1.96516e+06 0 -899639 1.81862e+06 0 -1.05231e+06 1.65381e+06 0 -1.14863e+06 1.49744e+06 0 -1.20421e+06 1.35814e+06 0 -1.2331e+06 1.23735e+06 0 -1.24566e+06 1.13318e+06 0 -1.2487e+06 1.043e+06 0 -1.24642e+06 964226 0 -1.24128e+06 894714 0 -1.23469e+06 832735 0 -1.22744e+06 776935 0 -1.21999e+06 726256 0 -1.21257e+06 679867 0 -1.20532e+06 637107 0 -1.19831e+06 597450 0 -1.19159e+06 560467 0 -1.18517e+06 525806 0 -1.17906e+06 493180 0 -1.17325e+06 462346 0 -1.16773e+06 433101 0 -1.1625e+06 405274 0 -1.15753e+06 378716 0 -1.15282e+06 353302 0 -1.14835e+06 328922 0 -1.1441e+06 305481 0 -1.14008e+06 282895 0 -1.13626e+06 261091 0 -1.13263e+06 240004 0 -1.12919e+06 219577 0 -1.12592e+06 199757 0 -1.12281e+06 180498 0 -1.11986e+06 161759 0 -1.11705e+06 143503 0 -1.11439e+06 125694 0 -1.11185e+06 108302 0 -1.10945e+06 91298.9 0 -1.10716e+06 74658.2 0 -1.105e+06 58356.2 0 -1.10294e+06 42370.9 0 -1.10098e+06 26681.9 0 -1.09913e+06 11270.4 0 -1.09738e+06 -3881.06 0 -1.09572e+06 -18788.9 0 -1.09415e+06 -33468.4 0 -1.09267e+06 -47933.8 0 -1.09128e+06 -62198.5 0 -1.08996e+06 -76275.2 0 -1.08873e+06 -90175.8 0 -1.08757e+06 -103912 0 -1.08649e+06 -117493 0 -1.08548e+06 -130931 0 -1.08454e+06 -144235 0 -1.08367e+06 -157413 0 -1.08287e+06 -170476 0 -1.08214e+06 -183431 0 -1.08147e+06 -196286 0 -1.08087e+06 -209051 0 -1.08033e+06 -221731 0 -1.07985e+06 -234335 0 -1.07943e+06 -246871 0 -1.07908e+06 -259344 0 -1.07878e+06 -271762 0 -1.07854e+06 -284132 0 -1.07836e+06 -296460 0 -1.07825e+06 -308753 0 -1.07818e+06 -321017 0 -1.07818e+06 -333259 0 -1.07824e+06 -345486 0 -1.07835e+06 -357703 0 -1.07852e+06 -369916 0 -1.07875e+06 -382133 0 -1.07904e+06 -394360 0 -1.07938e+06 -406603 0 -1.07979e+06 -418868 0 -1.08025e+06 -431163 0 -1.08077e+06 -443494 0 -1.08135e+06 -455867 0 -1.082e+06 -468290 0 -1.0827e+06 -480771 0 -1.08346e+06 -493315 0 -1.08429e+06 -505932 0 -1.08518e+06 -518629 0 -1.08614e+06 -531413 0 -1.08716e+06 -544294 0 -1.08825e+06 -557281 0 -1.0894e+06 -570381 0 -1.09063e+06 -583606 0 -1.09192e+06 -596965 0 -1.09329e+06 -610470 0 -1.09473e+06 -624130 0 -1.09624e+06 -637959 0 -1.09783e+06 -651969 0 -1.0995e+06 -666173 0 -1.10124e+06 -680587 0 -1.10307e+06 -695225 0 -1.10499e+06 -710105 0 -1.10698e+06 -725244 0 -1.10907e+06 -740662 0 -1.11124e+06 -756380 0 -1.1135e+06 -772423 0 -1.11586e+06 -788814 0 -1.11831e+06 -805582 0 -1.12085e+06 -822758 0 -1.12349e+06 -840376 0 -1.12622e+06 -858475 0 -1.12906e+06 -877096 0 -1.13198e+06 -896288 0 -1.135e+06 -916106 0 -1.1381e+06 -936612 0 -1.14129e+06 -957879 0 -1.14456e+06 -979989 0 -1.14789e+06 -1.00304e+06 0 -1.15127e+06 -1.02715e+06 0 -1.15469e+06 -1.05246e+06 0 -1.15813e+06 -1.07913e+06 0 -1.16155e+06 -1.10736e+06 0 -1.16491e+06 -1.1374e+06 0 -1.16811e+06 -1.16954e+06 0 -1.171e+06 -1.20414e+06 0 -1.17328e+06 -1.24167e+06 0 -1.17442e+06 -1.28263e+06 0 -1.17342e+06 -1.32797e+06 0 -1.16852e+06 -1.37877e+06 0 -4.47035e-07 1.31884e+06 0 -70583.3 1.51454e+06 0 -162111 1.46178e+06 0 -216325 1.54514e+06 0 -317908 1.61822e+06 0 -455088 1.6443e+06 0 -603789 1.61824e+06 0 -741370 1.554e+06 0 -856233 1.46824e+06 0 -945454 1.37378e+06 0 -1.01121e+06 1.279e+06 0 -1.05778e+06 1.18855e+06 0 -1.08968e+06 1.10452e+06 0 -1.11088e+06 1.02753e+06 0 -1.12448e+06 957394 0 -1.13276e+06 893538 0 -1.13738e+06 835281 0 -1.13947e+06 781939 0 -1.13982e+06 732881 0 -1.13897e+06 687553 0 -1.1373e+06 645477 0 -1.13508e+06 606245 0 -1.13248e+06 569511 0 -1.12965e+06 534979 0 -1.12667e+06 502399 0 -1.12362e+06 471554 0 -1.12054e+06 442262 0 -1.11748e+06 414364 0 -1.11445e+06 387720 0 -1.11148e+06 362213 0 -1.10857e+06 337736 0 -1.10574e+06 314197 0 -1.103e+06 291517 0 -1.10034e+06 269622 0 -1.09777e+06 248449 0 -1.0953e+06 227940 0 -1.09291e+06 208045 0 -1.09061e+06 188717 0 -1.0884e+06 169914 0 -1.08628e+06 151600 0 -1.08424e+06 133739 0 -1.08229e+06 116301 0 -1.08042e+06 99256.8 0 -1.07863e+06 82580.4 0 -1.07691e+06 66247.6 0 -1.07527e+06 50236.2 0 -1.0737e+06 34525.7 0 -1.07221e+06 19097.1 0 -1.07078e+06 3932.54 0 -1.06943e+06 -10984.4 0 -1.06813e+06 -25669.2 0 -1.06691e+06 -40136.3 0 -1.06574e+06 -54399.3 0 -1.06464e+06 -68471 0 -1.0636e+06 -82363.4 0 -1.06261e+06 -96087.9 0 -1.06169e+06 -109655 0 -1.06082e+06 -123076 0 -1.06e+06 -136360 0 -1.05924e+06 -149516 0 -1.05853e+06 -162553 0 -1.05788e+06 -175481 0 -1.05727e+06 -188306 0 -1.05672e+06 -201038 0 -1.05622e+06 -213683 0 -1.05576e+06 -226250 0 -1.05536e+06 -238745 0 -1.055e+06 -251176 0 -1.05469e+06 -263550 0 -1.05443e+06 -275872 0 -1.05422e+06 -288151 0 -1.05405e+06 -300392 0 -1.05393e+06 -312602 0 -1.05386e+06 -324787 0 -1.05383e+06 -336954 0 -1.05384e+06 -349109 0 -1.05391e+06 -361258 0 -1.05402e+06 -373407 0 -1.05417e+06 -385563 0 -1.05437e+06 -397732 0 -1.05462e+06 -409921 0 -1.05492e+06 -422136 0 -1.05525e+06 -434383 0 -1.05564e+06 -446670 0 -1.05607e+06 -459002 0 -1.05655e+06 -471388 0 -1.05708e+06 -483834 0 -1.05765e+06 -496347 0 -1.05827e+06 -508936 0 -1.05894e+06 -521607 0 -1.05965e+06 -534370 0 -1.06042e+06 -547232 0 -1.06123e+06 -560203 0 -1.06209e+06 -573291 0 -1.063e+06 -586506 0 -1.06396e+06 -599858 0 -1.06497e+06 -613359 0 -1.06603e+06 -627018 0 -1.06714e+06 -640849 0 -1.0683e+06 -654863 0 -1.06951e+06 -669075 0 -1.07077e+06 -683498 0 -1.07208e+06 -698148 0 -1.07343e+06 -713041 0 -1.07484e+06 -728196 0 -1.07628e+06 -743631 0 -1.07778e+06 -759367 0 -1.07931e+06 -775427 0 -1.08089e+06 -791835 0 -1.0825e+06 -808618 0 -1.08414e+06 -825807 0 -1.0858e+06 -843431 0 -1.08748e+06 -861529 0 -1.08917e+06 -880138 0 -1.09085e+06 -899303 0 -1.0925e+06 -919072 0 -1.09411e+06 -939497 0 -1.09563e+06 -960639 0 -1.09705e+06 -982565 0 -1.0983e+06 -1.00535e+06 0 -1.09934e+06 -1.02908e+06 0 -1.10009e+06 -1.05386e+06 0 -1.10047e+06 -1.0798e+06 0 -1.10038e+06 -1.10703e+06 0 -1.09973e+06 -1.13572e+06 0 -1.0984e+06 -1.16605e+06 0 -1.09629e+06 -1.19814e+06 0 -1.09324e+06 -1.2324e+06 0 6.29574e-07 1.22608e+06 0 -35474.5 1.22103e+06 0 -84831.6 1.30851e+06 0 -158088 1.32137e+06 0 -220816 1.34691e+06 0 -289202 1.37793e+06 0 -370191 1.40243e+06 0 -463093 1.40877e+06 0 -560850 1.3932e+06 0 -655656 1.35789e+06 0 -741633 1.3077e+06 0 -815622 1.24804e+06 0 -876786 1.18357e+06 0 -925830 1.11776e+06 0 -964266 1.05297e+06 0 -993873 990622 0 -1.01638e+06 931460 0 -1.0333e+06 875785 0 -1.0459e+06 823616 0 -1.05516e+06 774814 0 -1.06188e+06 729157 0 -1.06664e+06 686391 0 -1.06991e+06 646256 0 -1.07203e+06 608504 0 -1.07326e+06 572903 0 -1.07382e+06 539245 0 -1.07385e+06 507341 0 -1.07347e+06 477022 0 -1.07278e+06 448141 0 -1.07186e+06 420563 0 -1.07076e+06 394173 0 -1.06952e+06 368865 0 -1.06819e+06 344546 0 -1.06678e+06 321134 0 -1.06534e+06 298555 0 -1.06386e+06 276742 0 -1.06237e+06 255635 0 -1.06088e+06 235181 0 -1.0594e+06 215332 0 -1.05793e+06 196043 0 -1.05649e+06 177274 0 -1.05507e+06 158990 0 -1.05368e+06 141157 0 -1.05233e+06 123745 0 -1.05101e+06 106726 0 -1.04973e+06 90073.8 0 -1.04848e+06 73765.5 0 -1.04728e+06 57778.9 0 -1.04611e+06 42093.8 0 -1.04499e+06 26691.4 0 -1.0439e+06 11554.1 0 -1.04286e+06 -3334.37 0 -1.04186e+06 -17989.4 0 -1.0409e+06 -32425.3 0 -1.03998e+06 -46655.6 0 -1.0391e+06 -60693 0 -1.03826e+06 -74549.5 0 -1.03746e+06 -88236.5 0 -1.0367e+06 -101765 0 -1.03598e+06 -115144 0 -1.0353e+06 -128385 0 -1.03465e+06 -141497 0 -1.03405e+06 -154488 0 -1.03348e+06 -167366 0 -1.03295e+06 -180142 0 -1.03246e+06 -192821 0 -1.032e+06 -205412 0 -1.03159e+06 -217922 0 -1.0312e+06 -230359 0 -1.03086e+06 -242729 0 -1.03055e+06 -255040 0 -1.03027e+06 -267297 0 -1.03003e+06 -279508 0 -1.02983e+06 -291679 0 -1.02966e+06 -303816 0 -1.02952e+06 -315926 0 -1.02942e+06 -328015 0 -1.02935e+06 -340089 0 -1.02932e+06 -352154 0 -1.02932e+06 -364216 0 -1.02936e+06 -376282 0 -1.02943e+06 -388357 0 -1.02953e+06 -400449 0 -1.02967e+06 -412562 0 -1.02984e+06 -424705 0 -1.03005e+06 -436882 0 -1.03028e+06 -449101 0 -1.03055e+06 -461368 0 -1.03086e+06 -473690 0 -1.03119e+06 -486074 0 -1.03156e+06 -498528 0 -1.03196e+06 -511059 0 -1.03239e+06 -523674 0 -1.03286e+06 -536382 0 -1.03335e+06 -549191 0 -1.03388e+06 -562109 0 -1.03443e+06 -575145 0 -1.03502e+06 -588309 0 -1.03563e+06 -601611 0 -1.03628e+06 -615061 0 -1.03695e+06 -628670 0 -1.03764e+06 -642449 0 -1.03836e+06 -656412 0 -1.0391e+06 -670569 0 -1.03986e+06 -684936 0 -1.04063e+06 -699528 0 -1.04143e+06 -714359 0 -1.04223e+06 -729447 0 -1.04304e+06 -744809 0 -1.04385e+06 -760466 0 -1.04465e+06 -776438 0 -1.04545e+06 -792749 0 -1.04623e+06 -809422 0 -1.04697e+06 -826486 0 -1.04768e+06 -843969 0 -1.04834e+06 -861905 0 -1.04893e+06 -880329 0 -1.04943e+06 -899281 0 -1.04982e+06 -918803 0 -1.05008e+06 -938942 0 -1.05016e+06 -959751 0 -1.05002e+06 -981285 0 -1.04961e+06 -1.0036e+06 0 -1.04884e+06 -1.02677e+06 0 -1.04762e+06 -1.05085e+06 0 -1.04583e+06 -1.07591e+06 0 -1.04331e+06 -1.10204e+06 0 -1.03993e+06 -1.12926e+06 0 -1.2964e-06 1.0594e+06 0 -33764.7 1.10275e+06 0 -66590.7 1.11403e+06 0 -101937 1.15779e+06 0 -151997 1.18479e+06 0 -205896 1.20554e+06 0 -262442 1.22303e+06 0 -322743 1.23762e+06 0 -388167 1.246e+06 0 -457964 1.24484e+06 0 -529698 1.23246e+06 0 -600255 1.20901e+06 0 -666802 1.17601e+06 0 -727306 1.13564e+06 0 -780660 1.09024e+06 0 -826566 1.04188e+06 0 -865305 992269 0 -897513 942685 0 -923994 894019 0 -945586 846850 0 -963086 801515 0 -977203 758180 0 -988547 716890 0 -997632 677618 0 -1.00488e+06 640285 0 -1.01063e+06 604788 0 -1.01517e+06 571011 0 -1.01871e+06 538834 0 -1.02145e+06 508140 0 -1.02353e+06 478815 0 -1.02507e+06 450755 0 -1.02617e+06 423859 0 -1.0269e+06 398037 0 -1.02734e+06 373207 0 -1.02753e+06 349293 0 -1.02752e+06 326224 0 -1.02735e+06 303938 0 -1.02704e+06 282378 0 -1.02662e+06 261491 0 -1.02612e+06 241229 0 -1.02554e+06 221548 0 -1.02491e+06 202409 0 -1.02424e+06 183775 0 -1.02353e+06 165611 0 -1.0228e+06 147888 0 -1.02205e+06 130577 0 -1.0213e+06 113651 0 -1.02053e+06 97086.1 0 -1.01977e+06 80859.6 0 -1.01901e+06 64950.8 0 -1.01826e+06 49340 0 -1.01752e+06 34009.2 0 -1.01679e+06 18941.3 0 -1.01607e+06 4120.56 0 -1.01537e+06 -10468 0 -1.01469e+06 -24838.3 0 -1.01402e+06 -39003.6 0 -1.01337e+06 -52976.3 0 -1.01275e+06 -66768.1 0 -1.01214e+06 -80390.1 0 -1.01156e+06 -93853 0 -1.011e+06 -107167 0 -1.01046e+06 -120341 0 -1.00995e+06 -133385 0 -1.00945e+06 -146308 0 -1.00899e+06 -159117 0 -1.00854e+06 -171821 0 -1.00812e+06 -184428 0 -1.00772e+06 -196945 0 -1.00735e+06 -209380 0 -1.007e+06 -221739 0 -1.00667e+06 -234030 0 -1.00637e+06 -246259 0 -1.00609e+06 -258434 0 -1.00583e+06 -270559 0 -1.0056e+06 -282642 0 -1.0054e+06 -294689 0 -1.00521e+06 -306705 0 -1.00505e+06 -318698 0 -1.00491e+06 -330673 0 -1.0048e+06 -342635 0 -1.0047e+06 -354592 0 -1.00463e+06 -366549 0 -1.00459e+06 -378512 0 -1.00456e+06 -390486 0 -1.00456e+06 -402479 0 -1.00457e+06 -414496 0 -1.00461e+06 -426543 0 -1.00467e+06 -438626 0 -1.00475e+06 -450753 0 -1.00485e+06 -462929 0 -1.00497e+06 -475161 0 -1.00511e+06 -487456 0 -1.00527e+06 -499822 0 -1.00544e+06 -512264 0 -1.00563e+06 -524791 0 -1.00583e+06 -537410 0 -1.00605e+06 -550129 0 -1.00629e+06 -562957 0 -1.00653e+06 -575901 0 -1.00679e+06 -588972 0 -1.00705e+06 -602179 0 -1.00732e+06 -615530 0 -1.00759e+06 -629038 0 -1.00787e+06 -642712 0 -1.00814e+06 -656564 0 -1.00841e+06 -670605 0 -1.00868e+06 -684850 0 -1.00892e+06 -699311 0 -1.00916e+06 -714003 0 -1.00936e+06 -728941 0 -1.00954e+06 -744141 0 -1.00968e+06 -759620 0 -1.00977e+06 -775397 0 -1.0098e+06 -791492 0 -1.00977e+06 -807925 0 -1.00965e+06 -824720 0 -1.00942e+06 -841899 0 -1.00909e+06 -859490 0 -1.00861e+06 -877519 0 -1.00796e+06 -896018 0 -1.00712e+06 -915018 0 -1.00606e+06 -934555 0 -1.00473e+06 -954666 0 -1.00309e+06 -975391 0 -1.00109e+06 -996774 0 -998657 -1.01885e+06 0 -995689 -1.04169e+06 0 1.40816e-06 959989 0 -23516.9 978943 0 -52484 1.00802e+06 0 -83741 1.02322e+06 0 -114895 1.04709e+06 0 -151889 1.06919e+06 0 -193771 1.08793e+06 0 -239351 1.10269e+06 0 -287741 1.11387e+06 0 -338815 1.12108e+06 0 -392415 1.1233e+06 0 -447911 1.11943e+06 0 -504155 1.10878e+06 0 -559704 1.0913e+06 0 -613118 1.0675e+06 0 -663191 1.03833e+06 0 -709082 1.00493e+06 0 -750327 968476 0 -786799 930058 0 -818629 890602 0 -846118 850856 0 -869669 811392 0 -889724 772623 0 -906725 734831 0 -921092 698195 0 -933206 662817 0 -943401 628739 0 -951972 595965 0 -959168 564469 0 -965202 534207 0 -970255 505125 0 -974477 477164 0 -977995 450260 0 -980918 424350 0 -983335 399372 0 -985322 375267 0 -986942 351978 0 -988251 329453 0 -989293 307641 0 -990107 286497 0 -990727 265976 0 -991181 246038 0 -991493 226646 0 -991684 207766 0 -991771 189365 0 -991770 171413 0 -991694 153882 0 -991554 136747 0 -991360 119983 0 -991121 103569 0 -990845 87483.3 0 -990537 71706.4 0 -990204 56220.1 0 -989850 41007.4 0 -989479 26052.3 0 -989097 11339.7 0 -988705 -3144.54 0 -988307 -17413.8 0 -987905 -31480.8 0 -987502 -45357.3 0 -987099 -59054.7 0 -986698 -72583.7 0 -986302 -85954.6 0 -985910 -99177.1 0 -985525 -112260 0 -985147 -125214 0 -984777 -138045 0 -984416 -150763 0 -984065 -163375 0 -983724 -175890 0 -983394 -188313 0 -983075 -200653 0 -982767 -212917 0 -982472 -225110 0 -982188 -237240 0 -981917 -249313 0 -981658 -261335 0 -981411 -273312 0 -981177 -285251 0 -980955 -297157 0 -980745 -309037 0 -980548 -320895 0 -980363 -332738 0 -980190 -344572 0 -980028 -356402 0 -979878 -368234 0 -979739 -380074 0 -979611 -391928 0 -979493 -403801 0 -979384 -415699 0 -979285 -427628 0 -979194 -439595 0 -979111 -451605 0 -979036 -463664 0 -978966 -475780 0 -978902 -487957 0 -978841 -500205 0 -978784 -512528 0 -978728 -524934 0 -978672 -537430 0 -978614 -550025 0 -978553 -562725 0 -978486 -575539 0 -978411 -588475 0 -978326 -601542 0 -978227 -614749 0 -978112 -628105 0 -977976 -641621 0 -977815 -655307 0 -977626 -669174 0 -977402 -683234 0 -977139 -697498 0 -976829 -711979 0 -976465 -726692 0 -976039 -741649 0 -975541 -756867 0 -974961 -772360 0 -974286 -788145 0 -973502 -804241 0 -972593 -820663 0 -971539 -837433 0 -970320 -854569 0 -968910 -872092 0 -967280 -890022 0 -965400 -908381 0 -963233 -927191 0 -960740 -946473 0 -957883 -966248 0 -1.46776e-06 870614 0 -20269.5 889855 0 -41388.4 906129 0 -65524.1 927224 0 -92830.8 943080 0 -121145 959571 0 -151856 975690 0 -185512 990581 0 -222146 1.00319e+06 0 -261342 1.01303e+06 0 -302702 1.01983e+06 0 -345896 1.02322e+06 0 -390562 1.02276e+06 0 -436198 1.01801e+06 0 -482136 1.0087e+06 0 -527593 994784 0 -571768 976484 0 -613937 954241 0 -653519 928644 0 -690113 900353 0 -723496 870037 0 -753605 838321 0 -780507 805759 0 -804356 772817 0 -825371 739872 0 -843799 707218 0 -859901 675075 0 -873934 643601 0 -886139 612902 0 -896741 583045 0 -905943 554065 0 -913926 525974 0 -920847 498766 0 -926847 472425 0 -932046 446926 0 -936550 422235 0 -940450 398321 0 -943825 375145 0 -946741 352672 0 -949259 330864 0 -951428 309686 0 -953293 289104 0 -954892 269083 0 -956257 249593 0 -957419 230603 0 -958400 212085 0 -959225 194012 0 -959911 176358 0 -960475 159100 0 -960931 142216 0 -961294 125683 0 -961574 109483 0 -961780 93596.2 0 -961923 78005.5 0 -962009 62694.2 0 -962045 47646.7 0 -962038 32848.1 0 -961993 18284.7 0 -961914 3943.11 0 -961807 -10189.1 0 -961674 -24123.7 0 -961520 -37872.1 0 -961347 -51444.8 0 -961157 -64852.2 0 -960954 -78103.8 0 -960740 -91209.1 0 -960516 -104177 0 -960283 -117015 0 -960045 -129733 0 -959801 -142338 0 -959553 -154838 0 -959302 -167239 0 -959049 -179549 0 -958795 -191775 0 -958541 -203924 0 -958286 -216002 0 -958032 -228014 0 -957779 -239969 0 -957527 -251870 0 -957277 -263725 0 -957029 -275539 0 -956782 -287318 0 -956537 -299068 0 -956294 -310794 0 -956053 -322501 0 -955814 -334195 0 -955576 -345882 0 -955339 -357567 0 -955102 -369256 0 -954866 -380954 0 -954630 -392666 0 -954393 -404398 0 -954154 -416156 0 -953913 -427945 0 -953669 -439771 0 -953421 -451640 0 -953167 -463558 0 -952908 -475530 0 -952640 -487564 0 -952364 -499664 0 -952076 -511838 0 -951776 -524092 0 -951462 -536433 0 -951130 -548868 0 -950780 -561405 0 -950407 -574049 0 -950010 -586811 0 -949585 -599696 0 -949127 -612714 0 -948634 -625873 0 -948100 -639181 0 -947521 -652649 0 -946891 -666286 0 -946204 -680102 0 -945453 -694107 0 -944630 -708312 0 -943727 -722728 0 -942734 -737367 0 -941641 -752242 0 -940435 -767364 0 -939104 -782748 0 -937632 -798406 0 -936003 -814352 0 -934197 -830601 0 -932192 -847167 0 -929963 -864063 0 -927482 -881302 0 -924716 -898902 0 1.12504e-06 797881 0 -16652.5 812779 0 -35081 828391 0 -54484.6 842167 0 -75417.6 857816 0 -98702 871951 0 -123611 885304 0 -150173 897866 0 -178554 909527 0 -208923 919835 0 -241243 928346 0 -275340 934702 0 -310972 938612 0 -347865 939812 0 -385702 938054 0 -424112 933133 0 -462660 924922 0 -500869 913408 0 -538250 898702 0 -574346 881034 0 -608761 860723 0 -641188 838153 0 -671411 813735 0 -699311 787878 0 -724852 760972 0 -748068 733369 0 -769045 705375 0 -787906 677249 0 -804799 649201 0 -819883 621401 0 -833319 593979 0 -845267 567029 0 -855879 540623 0 -865295 514804 0 -873646 489603 0 -881050 465033 0 -887614 441096 0 -893433 417788 0 -898590 395096 0 -903163 373005 0 -907216 351496 0 -910809 330547 0 -913994 310137 0 -916815 290242 0 -919314 270840 0 -921526 251907 0 -923481 233421 0 -925209 215360 0 -926733 197703 0 -928075 180430 0 -929254 163520 0 -930287 146957 0 -931190 130721 0 -931975 114796 0 -932655 99165.4 0 -933241 83814.1 0 -933741 68727.5 0 -934164 53891.6 0 -934519 39293.2 0 -934811 24919.7 0 -935047 10759.2 0 -935233 -3199.73 0 -935372 -16968 0 -935471 -30556.1 0 -935532 -43973.7 0 -935559 -57230.5 0 -935555 -70335.5 0 -935524 -83297.4 0 -935468 -96124.5 0 -935389 -108825 0 -935289 -121406 0 -935170 -133876 0 -935034 -146242 0 -934882 -158510 0 -934715 -170687 0 -934536 -182781 0 -934344 -194796 0 -934141 -206740 0 -933927 -218618 0 -933704 -230436 0 -933471 -242201 0 -933229 -253917 0 -932978 -265590 0 -932720 -277226 0 -932453 -288830 0 -932178 -300407 0 -931895 -311963 0 -931604 -323503 0 -931304 -335032 0 -930996 -346555 0 -930679 -358077 0 -930352 -369604 0 -930016 -381140 0 -929669 -392691 0 -929311 -404262 0 -928940 -415859 0 -928557 -427486 0 -928159 -439150 0 -927746 -450854 0 -927316 -462606 0 -926869 -474410 0 -926401 -486272 0 -925912 -498199 0 -925400 -510195 0 -924861 -522267 0 -924295 -534422 0 -923699 -546665 0 -923068 -559004 0 -922402 -571444 0 -921695 -583993 0 -920944 -596659 0 -920145 -609447 0 -919293 -622366 0 -918384 -635424 0 -917411 -648628 0 -916369 -661987 0 -915251 -675509 0 -914048 -689203 0 -912754 -703077 0 -911358 -717142 0 -909851 -731406 0 -908221 -745878 0 -906456 -760568 0 -904542 -775487 0 -902465 -790643 0 -900208 -806047 0 -897752 -821707 0 -895077 -837635 0 -8.9407e-07 735376 0 -14286.7 748055 0 -29518.6 760555 0 -46115.9 773479 0 -63818.4 785363 0 -82557.9 797600 0 -102793 809371 0 -124479 820518 0 -147569 830883 0 -172038 840393 0 -197919 848877 0 -225222 856102 0 -253892 861816 0 -283813 865782 0 -314818 867793 0 -346704 867666 0 -379233 865247 0 -412137 860421 0 -445119 853121 0 -477863 843344 0 -510052 831152 0 -541380 816675 0 -571572 800099 0 -600397 781653 0 -627677 761595 0 -653287 740195 0 -677156 717720 0 -699260 694427 0 -719617 670550 0 -738275 646300 0 -755309 621860 0 -770809 597385 0 -784874 573003 0 -797611 548820 0 -809126 524917 0 -819523 501358 0 -828902 478190 0 -837357 455448 0 -844977 433153 0 -851841 411320 0 -858024 389952 0 -863594 369052 0 -868611 348615 0 -873131 328633 0 -877203 309095 0 -880872 289989 0 -884178 271302 0 -887156 253018 0 -889839 235124 0 -892254 217604 0 -894429 200442 0 -896386 183623 0 -898145 167133 0 -899726 150956 0 -901144 135078 0 -902415 119486 0 -903551 104166 0 -904566 89105.2 0 -905470 74291.2 0 -906273 59712 0 -906983 45356.2 0 -907608 31212.8 0 -908156 17271.1 0 -908633 3520.97 0 -909045 -10047.3 0 -909397 -23443.1 0 -909695 -36675.4 0 -909941 -49752.9 0 -910141 -62683.9 0 -910298 -75476.5 0 -910415 -88138.2 0 -910495 -100677 0 -910540 -113099 0 -910553 -125412 0 -910536 -137623 0 -910491 -149737 0 -910420 -161762 0 -910324 -173704 0 -910204 -185568 0 -910062 -197361 0 -909899 -209087 0 -909716 -220753 0 -909513 -232364 0 -909291 -243925 0 -909051 -255442 0 -908792 -266920 0 -908516 -278363 0 -908223 -289778 0 -907912 -301168 0 -907584 -312539 0 -907239 -323895 0 -906876 -335242 0 -906495 -346584 0 -906095 -357926 0 -905677 -369274 0 -905239 -380630 0 -904781 -392002 0 -904302 -403393 0 -903801 -414808 0 -903276 -426253 0 -902727 -437732 0 -902153 -449250 0 -901551 -460812 0 -900921 -472424 0 -900259 -484091 0 -899565 -495817 0 -898836 -507609 0 -898069 -519472 0 -897263 -531412 0 -896413 -543434 0 -895517 -555543 0 -894571 -567747 0 -893572 -580051 0 -892515 -592461 0 -891396 -604984 0 -890210 -617626 0 -888952 -630394 0 -887615 -643294 0 -886193 -656333 0 -884680 -669518 0 -883067 -682856 0 -881345 -696355 0 -879506 -710021 0 -877540 -723861 0 -875435 -737883 0 -873179 -752093 0 -870759 -766498 0 -868160 -781106 0 7.30157e-07 681136 0 -12364.9 691947 0 -25574.5 702748 0 -39560.2 713335 0 -54541.4 724103 0 -70540.6 734358 0 -87448 744437 0 -105399 754190 0 -124458 763496 0 -144649 772197 0 -165957 780178 0 -188369 787324 0 -211868 793500 0 -236424 798553 0 -261976 802323 0 -288432 804656 0 -315669 805408 0 -343536 804456 0 -371859 801702 0 -400446 797070 0 -429087 790523 0 -457565 782057 0 -485661 771711 0 -513161 759561 0 -539871 745721 0 -565617 730334 0 -590256 713565 0 -613677 695593 0 -635802 676603 0 -656585 656778 0 -676009 636293 0 -694082 615313 0 -710832 593987 0 -726305 572448 0 -740558 550812 0 -753655 529178 0 -765667 507630 0 -776667 486236 0 -786726 465054 0 -795917 444125 0 -804308 423486 0 -811965 403161 0 -818948 383168 0 -825316 363519 0 -831122 344221 0 -836415 325277 0 -841241 306687 0 -845639 288446 0 -849649 270549 0 -853304 252990 0 -856636 235761 0 -859673 218851 0 -862440 202251 0 -864962 185952 0 -867258 169942 0 -869348 154210 0 -871251 138747 0 -872980 123541 0 -874551 108582 0 -875976 93859.2 0 -877268 79363 0 -878436 65083.5 0 -879491 51010.9 0 -880442 37135.9 0 -881295 23449.4 0 -882059 9942.79 0 -882741 -3392.62 0 -883346 -16565 0 -883879 -29582.3 0 -884346 -42452.4 0 -884751 -55182.5 0 -885099 -67780 0 -885392 -80251.9 0 -885635 -92604.9 0 -885831 -104846 0 -885982 -116980 0 -886091 -129016 0 -886160 -140957 0 -886191 -152811 0 -886186 -164582 0 -886148 -176277 0 -886076 -187901 0 -885973 -199459 0 -885840 -210957 0 -885678 -222398 0 -885487 -233790 0 -885269 -245136 0 -885023 -256441 0 -884751 -267709 0 -884453 -278947 0 -884128 -290158 0 -883778 -301347 0 -883402 -312518 0 -882999 -323676 0 -882571 -334826 0 -882116 -345971 0 -881633 -357118 0 -881124 -368269 0 -880585 -379429 0 -880018 -390603 0 -879420 -401795 0 -878792 -413011 0 -878131 -424253 0 -877436 -435527 0 -876706 -446838 0 -875939 -458190 0 -875134 -469588 0 -874288 -481036 0 -873399 -492540 0 -872464 -504104 0 -871482 -515732 0 -870449 -527431 0 -869362 -539205 0 -868218 -551059 0 -867013 -562998 0 -865744 -575028 0 -864405 -587153 0 -862992 -599380 0 -861500 -611714 0 -859924 -624159 0 -858257 -636723 0 -856493 -649409 0 -854625 -662224 0 -852646 -675173 0 -850547 -688261 0 -848319 -701494 0 -845952 -714878 0 -843436 -728417 0 -8.34465e-07 633473 0 -10836.9 642795 0 -22319.9 652096 0 -34516.9 661370 0 -47389.4 670444 0 -61013.6 679511 0 -75467.6 688309 0 -90723.7 696843 0 -106808 705058 0 -123752 712890 0 -141585 720246 0 -160314 727026 0 -179931 733135 0 -200419 738474 0 -221750 742941 0 -243885 746427 0 -266766 748823 0 -290319 750024 0 -314447 749933 0 -339039 748466 0 -363966 745555 0 -389089 741152 0 -414256 735231 0 -439313 727787 0 -464103 718846 0 -488473 708453 0 -512279 696681 0 -535391 683622 0 -557695 669384 0 -579098 654087 0 -599527 637861 0 -618930 620835 0 -637274 603139 0 -654547 584899 0 -670752 566233 0 -685904 547249 