<?xml version="1.0"?> 
<VTKFile type="StructuredGrid" version="0.1"> 
<StructuredGrid WholeExtent="0 127 0 127 0 0"> 
<Piece Extent="0 127 0 127 0 0"> 
<PointData>
<DataArray type="Float32" Name="E" format="ascii" NumberOfComponents="3"> 
82231 0.0253907 0 82197.9 1880.39 0 82098.6 3759.02 0 81933.1 5634.14 0 81701.6 7504.02 0 81404.4 9366.9 0 81041.7 11221.1 0 80613.9 13064.8 0 80121.4 14896.3 0 79564.6 16714.1 0 78944.3 18516.2 0 78260.8 20301.1 0 77514.9 22067.2 0 76707.4 23812.7 0 75839.1 25536.1 0 74910.7 27235.7 0 73923.3 28910.1 0 72877.8 30557.5 0 71775.3 32176.6 0 70616.9 33765.9 0 69403.7 35323.8 0 68137.1 36849 0 66818.3 38340.1 0 65448.7 39795.8 0 64029.7 41214.7 0 62562.7 42595.7 0 61049.5 43937.5 0 59491.4 45238.9 0 57890.2 46499 0 56247.7 47716.6 0 54565.4 48890.7 0 52845.3 50020.6 0 51089.2 51105.2 0 49299.1 52143.9 0 47476.7 53135.9 0 45624.2 54080.6 0 43743.5 54977.5 0 41836.7 55826 0 39905.8 56625.7 0 37953.1 57376.4 0 35980.5 58077.9 0 33990.2 58729.9 0 31984.5 59332.4 0 29965.3 59885.5 0 27935.1 60389.2 0 25895.8 60843.9 0 23849.6 61249.8 0 21798.7 61607.3 0 19745.3 61916.9 0 17691.4 62179.3 0 15639.1 62395.1 0 13590.5 62565.1 0 11547.5 62690.2 0 9512.22 62771.2 0 7486.45 62809.4 0 5472.07 62805.8 0 3470.9 62761.6 0 1484.65 62678.2 0 -485 62556.8 0 -2436.47 62399 0 -4368.26 62206.2 0 -6278.94 61980.1 0 -8167.18 61722.3 0 -10031.7 61434.5 0 -11871.4 61118.3 0 -13685.2 60775.7 0 -15472.1 60408.4 0 -17231.3 60018.3 0 -18962 59607.3 0 -20663.6 59177.4 0 -22335.5 58730.4 0 -23977.2 58268.4 0 -25588.4 57793.2 0 -27168.9 57307 0 -28718.5 56811.6 0 -30237.1 56309 0 -31724.8 55801.2 0 -33181.7 55290.2 0 -34608.1 54777.9 0 -36004.3 54266.3 0 -37370.6 53757.2 0 -38707.6 53252.5 0 -40015.9 52754.2 0 -41296.1 52264.1 0 -42548.9 51784 0 -43775.1 51315.8 0 -44975.6 50861.1 0 -46151.4 50421.9 0 -47303.4 49999.9 0 -48432.6 49596.8 0 -49540.3 49214.4 0 -50627.6 48854.3 0 -51695.7 48518.4 0 -52746 48208.4 0 -53779.8 47926.1 0 -54798.5 47673.2 0 -55803.6 47451.5 0 -56796.7 47263 0 -57779.3 47109.6 0 -58753.3 46993.2 0 -59720.3 46916.1 0 -60682.3 46880.3 0 -61641.2 46888.2 0 -62599.2 46942.5 0 -63558.6 47045.7 0 -64521.7 47201 0 -65491.2 47411.6 0 -66470 47681.1 0 -67461.4 48013.7 0 -68468.7 48413.9 0 -69496 48887.1 0 -70547.8 49439.4 0 -71629.3 50078 0 -72746.7 50811.2 0 -73907 51649.2 0 -75119.2 52604.1 0 -76393.7 53691.2 0 -77744.6 54929.5 0 -79187.8 56343 0 -80750.6 57964.9 0 -82453.8 59836.5 0 -84373.9 62027.1 0 -86496.4 64606.6 0 -89172.7 67799.5 0 -91960.3 71608.8 0 -97150.8 77436.7 0 -100896 83880.7 0 -140950 109630 0 80367.1 0.0250149 0 80334.6 1847.55 0 80236.9 3693.37 0 80074.3 5535.74 0 79846.9 7372.96 0 79554.8 9203.32 0 79198.5 11025.1 0 78778.1 12836.7 0 78294.2 14636.3 0 77747.2 16422.3 0 77137.7 18193 0 76466.2 19946.9 0 75733.3 21682.2 0 74940 23397.3 0 74086.8 25090.7 0 73174.7 26760.9 0 72204.5 28406.2 0 71177.4 30025.1 0 70094.2 31616.2 0 68956 33178.1 0 67764.2 34709.2 0 66519.8 36208.2 0 65224.1 37673.8 0 63878.6 39104.6 0 62484.5 40499.5 0 61043.3 41857.1 0 59556.6 43176.2 0 58025.9 44455.9 0 56452.8 45695 0 54839.1 46892.5 0 53186.3 48047.5 0 51496.4 49159 0 49771 50226.2 0 48012.1 51248.5 0 46221.6 52225.1 0 44401.3 53155.3 0 42553.4 54038.7 0 40679.7 54874.7 0 38782.2 55663.1 0 36863.2 56403.4 0 34924.5 57095.5 0 32968.4 57739.3 0 30996.9 58334.6 0 29012.1 58881.6 0 27016.1 59380.3 0 25011.1 59831 0 22999.2 60233.9 0 20982.4 60589.6 0 18962.8 60898.4 0 16942.5 61161 0 14923.5 61378 0 12907.7 61550.2 0 10897.3 61678.5 0 8893.93 61763.8 0 6899.61 61807 0 4916.1 61809.4 0 2945.16 61772.1 0 988.459 61696.4 0 -952.382 61583.5 0 -2875.82 61435 0 -4780.4 61252.2 0 -6664.72 61036.8 0 -8527.51 60790.3 0 -10367.5 60514.3 0 -12183.7 60210.6 0 -13974.9 59881 0 -15740.3 59527.1 0 -17479.1 59150.8 0 -19190.4 58753.9 0 -20873.7 58338.4 0 -22528.3 57906.2 0 -24154 57459 0 -25750.3 56998.9 0 -27317 56527.8 0 -28853.9 56047.5 0 -30361 55560.2 0 -31838.4 55067.5 0 -33286.2 54571.6 0 -34704.6 54074.2 0 -36093.9 53577.2 0 -37454.5 53082.6 0 -38787 52592.2 0 -40091.8 52107.9 0 -41369.7 51631.3 0 -42621.3 51164.5 0 -43847.5 50709 0 -45049.1 50266.7 0 -46227 49839.4 0 -47382.2 49428.7 0 -48515.8 49036.4 0 -49629 48664.2 0 -50722.8 48313.8 0 -51798.6 47986.9 0 -52857.6 47685.2 0 -53901.2 47410.5 0 -54931 47164.4 0 -55948.2 46948.9 0 -56954.7 46765.7 0 -57951.9 46616.8 0 -58941.7 46504 0 -59925.9 46429.5 0 -60906.4 46395.4 0 -61885.3 46404 0 -62864.9 46457.7 0 -63847.5 46559.3 0 -64835.7 46711.6 0 -65832.3 46917.7 0 -66840.3 47181.3 0 -67863.3 47506.1 0 -68905 47896.7 0 -69969.9 48358 0 -71062.8 48895.9 0 -72189.5 49517.1 0 -73356.9 50229.4 0 -74573.1 51042.3 0 -75848.1 51967 0 -77194.3 53017.5 0 -78627.1 54210.7 0 -80167.8 55569.1 0 -81842 57119.2 0 -83693.8 58903.8 0 -85766.4 60961 0 -88181.3 63403.5 0 -91008.8 66242.9 0 -94717.5 69921.8 0 -99541.6 74083.9 0 -108490 80896.5 0 -125616 83915.7 0 78535.8 0.0245682 0 78503.8 1815.28 0 78407.9 3628.86 0 78248.1 5439.06 0 78024.6 7244.2 0 77737.6 9042.6 0 77387.5 10832.6 0 76974.5 12612.5 0 76499 14380.7 0 75961.5 16135.6 0 75362.6 17875.5 0 74702.8 19598.8 0 73982.8 21303.9 0 73203.3 22989.2 0 72365 24653.2 0 71468.8 26294.3 0 70515.7 27911.1 0 69506.5 29502 0 68442.2 31065.7 0 67324 32600.6 0 66153 34105.3 0 64930.4 35578.6 0 63657.5 37019.2 0 62335.5 38425.6 0 60965.8 39796.7 0 59549.9 41131.4 0 58089.2 42428.4 0 56585.4 43686.6 0 55039.8 44905.1 0 53454.3 46082.9 0 51830.5 47218.9 0 50170 48312.5 0 48474.8 49362.6 0 46746.5 50368.7 0 44987.2 51330.1 0 43198.5 52246 0 41382.6 53116.2 0 39541.3 53939.9 0 37676.6 54717 0 35790.5 55447.1 0 33885.1 56130 0 31962.4 56765.6 0 30024.4 57353.8 0 28073.2 57894.6 0 26110.8 58388.3 0 24139.4 58835 0 22160.9 59234.9 0 20177.4 59588.7 0 18191 59896.6 0 16203.5 60159.2 0 14217.1 60377.3 0 12233.6 60551.6 0 10254.8 60682.8 0 8282.82 60772 0 6319.28 60820.1 0 4365.98 60828.2 0 2424.62 60797.4 0 496.845 60729 0 -1415.79 60624.3 0 -3311.78 60484.7 0 -5189.7 60311.5 0 -7048.22 60106.3 0 -8886.07 59870.6 0 -10702.1 59606.1 0 -12495.1 59314.4 0 -14264.3 58997.1 0 -16008.6 58656.1 0 -17727.2 58293.1 0 -19419.5 57909.9 0 -21084.8 57508.3 0 -22722.6 57090.1 0 -24332.5 56657.3 0 -25914.1 56211.7 0 -27467.2 55755.1 0 -28991.7 55289.5 0 -30487.5 54816.7 0 -31954.6 54338.7 0 -33393.3 53857.2 0 -34803.8 53374.1 0 -36186.3 52891.3 0 -37541.2 52410.7 0 -38869.1 51934 0 -40170.5 51463 0 -41446.1 50999.5 0 -42696.4 50545.2 0 -43922.5 50102 0 -45125 49671.6 0 -46304.9 49255.5 0 -47463.2 48855.7 0 -48601 48473.6 0 -49719.4 48111.1 0 -50819.5 47769.8 0 -51902.7 47451.3 0 -52970.2 47157.4 0 -54023.5 46889.7 0 -55063.9 46650 0 -56093 46440 0 -57112.4 46261.6 0 -58123.8 46116.5 0 -59129 46006.7 0 -60129.9 45934.2 0 -61128.5 45901 0 -62126.9 45909.5 0 -63127.5 45962 0 -64132.7 46061 0 -65145.2 46209.3 0 -66168.1 46410 0 -67204.6 46666.5 0 -68258.2 46982.3 0 -69333.3 47361.8 0 -70434.3 47809.6 0 -71566.8 48331.2 0 -72737 48932.9 0 -73952.4 49621.8 0 -75221.9 50406.5 0 -76556.6 51297.3 0 -77970.2 52306.5 0 -79480.3 53449.3 0 -81109.7 54744.3 0 -82890.2 56215.5 0 -84864.5 57892.5 0 -87098.5 59817.5 0 -89689.9 62039.6 0 -92807.6 64632.4 0 -96763.9 67687.6 0 -102173 71196.8 0 -110604 75056.5 0 -123228 74887 0 76736.4 0.0241222 0 76705 1783.57 0 76610.7 3565.47 0 76453.7 5344.05 0 76234.1 7117.67 0 75952.2 8884.67 0 75608.1 10643.4 0 75202.3 12392.3 0 74735.1 14129.7 0 74207 15853.9 0 73618.5 17563.5 0 72970.2 19256.8 0 72262.7 20932.2 0 71496.8 22588.2 0 70673.2 24223.3 0 69792.7 25836 0 68856.1 27424.7 0 67864.5 28988.1 0 66818.9 30524.7 0 65720.3 32033.2 0 64569.7 33512.1 0 63368.5 34960.1 0 62117.8 36376 0 60818.9 37758.4 0 59473.2 39106.3 0 58082.1 40418.4 0 56647 41693.6 0 55169.3 42930.8 0 53650.8 44129.1 0 52093 45287.4 0 50497.4 46404.9 0 48865.9 47480.7 0 47200.2 48514.1 0 45502 49504.3 0 43773.1 50450.6 0 42015.5 51352.6 0 40230.9 52209.6 0 38421.3 53021.3 0 36588.7 53787.2 0 34734.9 54507.2 0 32862 55181 0 30972 55808.4 0 29066.8 56389.5 0 27148.4 56924.3 0 25219 57412.9 0 23280.4 57855.5 0 21334.7 58252.5 0 19383.8 58604.2 0 17429.8 58911 0 15474.5 59173.6 0 13519.9 59392.6 0 11567.9 59568.7 0 9620.26 59702.8 0 7678.86 59795.6 0 5745.45 59848.3 0 3821.72 59861.7 0 1909.33 59837.2 0 9.8671 59775.8 0 -1875.15 59678.9 0 -3744.26 59547.7 0 -5596.08 59383.7 0 -7429.31 59188.3 0 -9242.72 58963.1 0 -11035.2 58709.6 0 -12805.6 58429.3 0 -14553.1 58124 0 -16276.6 57795.4 0 -17975.6 57445.1 0 -19649.2 57075 0 -21296.8 56686.8 0 -22918 56282.2 0 -24512.3 55863.2 0 -26079.5 55431.5 0 -27619.2 54988.9 0 -29131.5 54537.4 0 -30616.1 54078.6 0 -32073.2 53614.6 0 -33502.9 53147 0 -34905.5 52677.7 0 -36281.3 52208.6 0 -37630.6 51741.3 0 -38953.9 51277.7 0 -40251.8 50819.5 0 -41524.9 50368.5 0 -42774 49926.4 0 -43999.7 49494.9 0 -45203 49075.7 0 -46384.8 48670.5 0 -47546.1 48280.9 0 -48687.9 47908.5 0 -49811.3 47555.2 0 -50917.5 47222.4 0 -52007.8 46911.8 0 -53083.6 46625.1 0 -54146.1 46363.9 0 -55196.9 46130 0 -56237.5 45925 0 -57269.5 45750.7 0 -58294.7 45608.9 0 -59314.9 45501.4 0 -60332 45430.2 0 -61348.2 45397.4 0 -62365.5 45405 0 -63386.5 45455.4 0 -64413.6 45551.1 0 -65449.8 45694.6 0 -66498.1 45888.9 0 -67562 46137.2 0 -68645.4 46442.8 0 -69752.5 46809.9 0 -70888.4 47242.7 0 -72058.8 47746.3 0 -73270.6 48326.4 0 -74531.6 48989.5 0 -75851.6 49743.4 0 -77242.4 50597 0 -78719 51561.1 0 -80300.2 52648.3 0 -82011.1 53874.1 0 -83885.2 55257.1 0 -85969.5 56819.9 0 -88331.8 58589.6 0 -91077.4 60595.8 0 -94369.7 62866.5 0 -98509.5 65397.8 0 -103971 68041.2 0 -111652 70141 0 -120857 68914.5 0 74968.5 0.0236808 0 74937.6 1752.41 0 74845 3503.19 0 74690.7 5250.7 0 74474.9 6993.34 0 74197.9 8729.49 0 73859.8 10457.5 0 73461 12175.9 0 73002 13883 0 72483 15577.2 0 71904.8 17256.9 0 71267.8 18920.7 0 70572.7 20567 0 69820.1 22194.2 0 69010.8 23800.9 0 68145.6 25385.6 0 67225.4 26946.8 0 66251.1 28483.2 0 65223.7 29993.2 0 64144.3 31475.7 0 63013.8 32929.2 0 61833.6 34352.4 0 60604.7 35744 0 59328.5 37103 0 58006.3 38427.9 0 56639.4 39717.9 0 55229.3 40971.6 0 53777.4 42188.2 0 52285.3 43366.5 0 50754.6 44505.8 0 49186.8 45605 0 47583.7 46663.4 0 45946.8 47680.2 0 44278 48654.8 0 42579.1 49586.4 0 40851.7 50474.5 0 39097.9 51318.6 0 37319.4 52118.4 0 35518.1 52873.4 0 33696 53583.3 0 31854.9 54248.1 0 29996.9 54867.5 0 28123.8 55441.6 0 26237.7 55970.3 0 24340.4 56453.8 0 22434 56892.4 0 20520.3 57286.2 0 18601.4 57635.8 0 16679.1 57941.5 0 14755.3 58203.9 0 12831.8 58423.6 0 10910.6 58601.4 0 8993.46 58737.9 0 7082.05 58834.2 0 5178.13 58891.2 0 3283.35 58909.8 0 1399.32 58891.2 0 -472.425 58836.5 0 -2330.39 58746.9 0 -4173.17 58623.9 0 -5999.42 58468.7 0 -7807.88 58282.7 0 -9597.34 58067.5 0 -11366.7 57824.4 0 -13115 57555.2 0 -14841.1 57261.4 0 -16544.4 56944.7 0 -18224 56606.7 0 -19879.2 56249.1 0 -21509.5 55873.7 0 -23114.4 55482.3 0 -24693.5 55076.5 0 -26246.4 54658.2 0 -27773 54229.1 0 -29273.1 53791 0 -30746.7 53345.8 0 -32193.9 52895.2 0 -33614.7 52441 0 -35009.5 51985 0 -36378.5 51528.9 0 -37722.2 51074.4 0 -39040.9 50623.4 0 -40335.3 50177.5 0 -41606 49738.5 0 -42853.6 49308 0 -44079 48887.6 0 -45283 48479.2 0 -46466.6 48084.2 0 -47630.6 47704.4 0 -48776.1 47341.3 0 -49904.4 46996.5 0 -51016.5 46671.7 0 -52113.7 46368.5 0 -53197.3 46088.5 0 -54268.8 45833.4 0 -55329.7 45604.6 0 -56381.4 45404.1 0 -57425.7 45233.3 0 -58464.2 45094.2 0 -59499 44988.5 0 -60531.8 44918 0 -61565 44884.8 0 -62600.7 44890.9 0 -63641.4 44938.5 0 -64689.8 45030 0 -65748.9 45167.9 0 -66821.8 45354.8 0 -67912.2 45593.8 0 -69024 45888.2 0 -70162 46241.6 0 -71331.2 46658.1 0 -72537.9 47142.1 0 -73789.1 47698.8 0 -75093.3 48334.1 0 -76460.7 49054.6 0 -77903.8 49868.1 0 -79438.4 50783.5 0 -81084.5 51811.1 0 -82868.1 52962.8 0 -84824.2 54251.8 0 -87000.7 55692.8 0 -89466.7 57300.1 0 -92322.3 59081.3 0 -95724.6 61028.9 0 -99909.5 63066.6 0 -105238 64969.5 0 -112011 65983.7 0 -119646 64664.3 0 73231.4 0.0232463 0 73201.1 1721.8 0 73110 3441.99 0 72958.5 5158.98 0 72746.4 6871.18 0 72474.2 8577.01 0 72142 10274.9 0 71750.1 11963.3 0 71299.1 13640.5 0 70789.2 15305.2 0 70221 16955.7 0 69595.1 18590.5 0 68912 20208.1 0 68172.5 21807 0 67377.3 23385.8 0 66527.2 24943 0 65623 26477.2 0 64665.7 27987 0 63656.2 29471 0 62595.5 30927.9 0 61484.8 32356.4 0 60325.1 33755.2 0 59117.6 35123.1 0 57863.7 36458.9 0 56564.5 37761.4 0 55221.4 39029.5 0 53835.8 40262.2 0 52409.2 41458.5 0 50943 42617.3 0 49438.9 43737.8 0 47898.3 44819 0 46322.9 45860.3 0 44714.4 46860.8 0 43074.4 47820 0 41404.7 48737 0 39707.1 49611.5 0 37983.3 50443 0 36235.3 51230.9 0 34464.7 51975.1 0 32673.6 52675.2 0 30863.7 53331 0 29037 53942.5 0 27195.3 54509.5 0 25340.7 55032.2 0 23474.9 55510.6 0 21600 55945.1 0 19717.7 56335.8 0 17830 56683.1 0 15938.7 56987.6 0 14045.7 57249.6 0 12152.8 57469.9 0 10261.8 57649.1 0 8374.42 57788.1 0 6492.37 57887.6 0 4617.32 57948.5 0 2750.88 57972 0 894.61 57959 0 -949.981 57910.7 0 -2781.46 57828.2 0 -4598.45 57712.9 0 -6399.65 57566.1 0 -8183.82 57389.1 0 -9949.82 57183.4 0 -11696.6 56950.5 0 -13423 56691.9 0 -15128.4 56409.1 0 -16811.7 56103.8 0 -18472.3 55777.6 0 -20109.5 55432.1 0 -21722.8 55069 0 -23311.6 54690.1 0 -24875.6 54297.1 0 -26414.5 53891.6 0 -27928.2 53475.5 0 -29416.3 53050.5 0 -30879.1 52618.2 0 -32316.4 52180.6 0 -33728.5 51739.2 0 -35115.5 51295.9 0 -36477.9 50852.3 0 -37815.9 50410.2 0 -39130 49971.2 0 -40420.9 49537.1 0 -41689 49109.5 0 -42935.2 48690 0 -44160.1 48280.3 0 -45364.7 47882.1 0 -46549.8 47496.9 0 -47716.4 47126.3 0 -48865.6 46771.9 0 -49998.4 46435.2 0 -51116.1 46118 0 -52219.9 45821.6 0 -53311.2 45547.8 0 -54391.4 45298.1 0 -55461.9 45074.1 0 -56524.4 44877.4 0 -57580.6 44709.7 0 -58632.1 44572.6 0 -59680.9 44468 0 -60729 44397.7 0 -61778.7 44363.5 0 -62832.1 44367.4 0 -63891.9 44411.5 0 -64960.9 44498.1 0 -66041.9 44629.5 0 -67138.5 44808.2 0 -68254.3 45037.1 0 -69393.6 45319.1 0 -70561 45657.7 0 -71762.1 46056.4 0 -73003.1 46519.4 0 -74291.6 47051.1 0 -75636.2 47656.7 0 -77047.8 48341.8 0 -78539.2 49112.9 0 -80126.8 49976.9 0 -81831 50941.6 0 -83678.4 52015.5 0 -85704.2 53206.6 0 -87955.9 54521.9 0 -90499.4 55963.7 0 -93428.2 57522.3 0 -96875.4 59159 0 -101026 60764 0 -106092 62070.4 0 -112139 62475.1 0 -118573 61150.8 0 71524.7 0.0228185 0 71494.9 1691.71 0 71405.4 3381.85 0 71256.5 5068.84 0 71048.1 6751.14 0 70780.6 8427.18 0 70454.2 10095.4 0 70069.1 11754.3 0 69625.9 13402.3 0 69124.9 15038 0 68566.5 16659.7 0 67951.5 18266 0 67280.3 19855.5 0 66553.6 21426.6 0 65772.3 22978 0 64936.9 24508.2 0 64048.5 26015.8 0 63107.8 27499.5 0 62115.9 28957.9 0 61073.6 30389.7 0 59982.2 31793.6 0 58842.7 33168.5 0 57656.2 34513 0 56424 35826 0 55147.4 37106.5 0 53827.6 38353.2 0 52466.1 39565.2 0 51064.2 40741.4 0 49623.5 41881 0 48145.4 42983 0 46631.4 44046.6 0 45083.3 45071.1 0 43502.5 46055.6 0 41890.7 46999.5 0 40249.7 47902.3 0 38581.2 48763.4 0 36886.9 49582.3 0 35168.6 50358.6 0 33428.2 51092.1 0 31667.3 51782.4 0 29888 52429.4 0 28092 53032.9 0 26281.1 53593 0 24457.3 54109.7 0 22622.4 54583 0 20778.2 55013.3 0 18926.7 55400.8 0 17069.5 55745.9 0 15208.7 56048.9 0 13345.8 56310.5 0 11482.8 56531.3 0 9621.33 56711.8 0 7763.11 56852.9 0 5909.79 56955.3 0 4063.01 57020.1 0 2224.32 57048.1 0 395.246 57040.4 0 -1422.76 56998.1 0 -3228.29 56922.4 0 -5020.01 56814.5 0 -6796.66 56675.7 0 -8557.04 56507.4 0 -10300 56310.9 0 -12024.6 56087.6 0 -13729.7 55839.1 0 -15414.6 55566.9 0 -17078.3 55272.6 0 -18720.3 54957.6 0 -20339.8 54623.8 0 -21936.3 54272.6 0 -23509.3 53905.7 0 -25058.6 53524.9 0 -26583.7 53131.8 0 -28084.5 52728.1 0 -29561 52315.5 0 -31013 51895.8 0 -32440.6 51470.5 0 -33843.9 51041.5 0 -35223.3 50610.3 0 -36579 50178.8 0 -37911.4 49748.4 0 -39221 49321 0 -40508.2 48898.1 0 -41773.8 48481.5 0 -43018.4 48072.6 0 -44242.8 47673 0 -45447.7 47284.5 0 -46634.3 46908.5 0 -47803.3 46546.7 0 -48955.8 46200.5 0 -50093.1 45871.5 0 -51216.1 45561.2 0 -52326.3 45271.2 0 -53425 45003.1 0 -54513.5 44758.3 0 -55593.5 44538.5 0 -56666.3 44345.1 0 -57733.9 44179.9 0 -58797.9 44044.4 0 -59860.3 43940.4 0 -60923.2 43869.6 0 -61988.8 43833.8 0 -63059.3 43834.9 0 -64137.6 43874.8 0 -65226.3 43955.7 0 -66328.5 44079.9 0 -67447.9 44249.6 0 -68588.1 44467.4 0 -69753.4 44736.2 0 -70948.9 45058.9 0 -72180.2 45438.7 0 -73453.7 45879.4 0 -74777.1 46384.7 0 -76159.5 46959 0 -77611.8 47607 0 -79147.4 48333.5 0 -80782.5 49144 0 -82538.1 50043.6 0 -84440.3 51037.4 0 -86523.7 52128.6 0 -88833.8 53317.2 0 -91431.5 54595.4 0 -94399 55939.4 0 -97845.2 57291.7 0 -101900 58525.2 0 -106678 59386 0 -112117 59420 0 -117776 58166.8 0 69847.8 0.0223975 0 69818.5 1662.15 0 69730.6 3322.75 0 69584.2 4980.27 0 69379.5 6633.17 0 69116.6 8279.94 0 68795.8 9919.05 0 68417.5 11549 0 67981.9 13168.3 0 67489.6 14775.4 0 66940.9 16368.8 0 66336.5 17947.2 0 65677 19509 0 64963 21052.8 0 64195.1 22577.2 0 63374.3 24080.9 0 62501.3 25562.4 0 61576.9 27020.4 0 60602.2 28453.7 0 59578.1 29860.8 0 58505.6 31240.6 0 57385.8 32591.9 0 56219.9 33913.5 0 55009.1 35204.2 0 53754.6 36462.9 0 52457.7 37688.6 0 51119.8 38880.2 0 49742.2 40036.8 0 48326.3 41157.5 0 46873.7 42241.4 0 45385.9 43287.6 0 43864.4 44295.4 0 42310.8 45264.2 0 40726.7 46193.2 0 39113.8 47081.9 0 37473.8 47929.7 0 35808.3 48736.3 0 34119.2 49501.2 0 32408.2 50224 0 30677.1 50904.7 0 28927.6 51542.9 0 27161.7 52138.6 0 25380.9 52691.8 0 23587.3 53202.4 0 21782.6 53670.7 0 19968.6 54096.8 0 18147.1 54481 0 16319.9 54823.7 0 14488.8 55125.3 0 12655.5 55386.3 0 10821.7 55607.3 0 8989.16 55788.9 0 7159.49 55932 0 5334.32 56037.2 0 3515.21 56105.5 0 1703.7 56137.8 0 -98.7454 56135.1 0 -1890.7 56098.6 0 -3670.81 56029.3 0 -5437.78 55928.5 0 -7190.37 55797.3 0 -8927.42 55637.2 0 -10647.9 55449.5 0 -12350.6 55235.5 0 -14034.8 54996.7 0 -15699.6 54734.6 0 -17344.2 54450.8 0 -18967.8 54146.7 0 -20569.9 53824 0 -22149.9 53484.1 0 -23707.5 53128.9 0 -25242.2 52759.8 0 -26753.7 52378.6 0 -28241.9 51986.8 0 -29706.8 51586.2 0 -31148.1 51178.4 0 -32566.1 50765.1 0 -33960.9 50347.8 0 -35332.7 49928.4 0 -36681.7 49508.3 0 -38008.5 49089.3 0 -39313.4 48672.9 0 -40597.1 48260.8 0 -41860 47854.5 0 -43102.9 47455.7 0 -44326.6 47065.8 0 -45531.9 46686.5 0 -46719.7 46319.3 0 -47891 45965.7 0 -49046.7 45627.2 0 -50188.1 45305.3 0 -51316.3 45001.6 0 -52432.6 44717.5 0 -53538.4 44454.5 0 -54634.9 44214.2 0 -55723.9 43998 0 -56806.8 43807.5 0 -57885.4 43644.3 0 -58961.5 43509.8 0 -60037 43405.9 0 -61114.1 43334 0 -62194.9 43296 0 -63282 43293.6 0 -64378 43328.8 0 -65485.7 43403.4 0 -66608.3 43519.5 0 -67749.3 43679.4 0 -68912.8 43885.4 0 -70103 44140 0 -71325.1 44445.9 0 -72584.9 44805.8 0 -73888.8 45223.1 0 -75244.9 45700.8 0 -76662.2 46242.5 0 -78151.9 46851.8 0 -79727.3 47532.4 0 -81404.7 48287.8 0 -83204.8 49120.9 0 -85153 50033.5 0 -87282.4 51024.5 0 -89635.2 52088 0 -92266 53208.2 0 -95244.5 54351.2 0 -98654.7 55449.2 0 -102583 56373.9 0 -107074 56903.2 0 -112026 56710.9 0 -117086 55522.9 0 68200.2 0.0219833 0 68171.4 1633.1 0 68085.1 3264.68 0 67941.2 4893.23 0 67740 6517.26 0 67481.7 8135.26 0 67166.5 9745.74 0 66794.6 11347.2 0 66366.6 12938.2 0 65882.8 14517.3 0 65343.7 16083 0 64749.7 17633.9 0 64101.6 19168.5 0 63400 20685.5 0 62645.5 22183.4 0 61838.8 23661 0 60980.9 25116.9 0 60072.6 26549.7 0 59114.8 27958.2 0 58108.4 29341.1 0 57054.5 30697.2 0 55954.1 32025.3 0 54808.4 33324.3 0 53618.5 34593.1 0 52385.7 35830.4 0 51111.3 37035.4 0 49796.4 38207.1 0 48442.6 39344.4 0 47051.2 40446.4 0 45623.6 41512.5 0 44161.3 42541.6 0 42665.9 43533.1 0 41138.9 44486.4 0 39581.9 45400.7 0 37996.6 46275.5 0 36384.5 47110.3 0 34747.3 47904.6 0 33086.8 48658.2 0 31404.7 49370.6 0 29702.6 50041.7 0 27982.4 50671.3 0 26245.8 51259.2 0 24494.6 51805.4 0 22730.6 52310.1 0 20955.4 52773.3 0 19170.9 53195.2 0 17378.9 53576.1 0 15581 53916.3 0 13779 54216.4 0 11974.6 54476.6 0 10169.5 54697.7 0 8365.25 54880.3 0 6563.53 55025.1 0 4765.91 55132.9 0 2973.91 55204.5 0 1189.02 55240.8 0 -587.336 55242.9 0 -2353.78 55211.8 0 -4108.98 55148.6 0 -5851.68 55054.5 0 -7580.69 54930.7 0 -9294.88 54778.4 0 -10993.2 54599 0 -12674.6 54393.9 0 -14338.3 54164.4 0 -15983.3 53912.1 0 -17609 53638.3 0 -19214.7 53344.6 0 -20799.7 53032.6 0 -22363.5 52703.7 0 -23905.8 52359.5 0 -25426.1 52001.7 0 -26924.3 51631.9 0 -28400.1 51251.6 0 -29853.5 50862.4 0 -31284.4 50466.1 0 -32692.9 50064.1 0 -34079.1 49658.2 0 -35443.3 49249.9 0 -36785.8 48840.9 0 -38107 48432.7 0 -39407.2 48026.8 0 -40687.2 47625 0 -41947.4 47228.6 0 -43188.6 46839.4 0 -44411.6 46458.7 0 -45617 46088.1 0 -46805.9 45729.2 0 -47979.2 45383.4 0 -49138 45052.1 0 -50283.4 44736.9 0 -51416.5 44439.2 0 -52538.6 44160.5 0 -53651.1 43902.2 0 -54755.3 43665.9 0 -55853 43452.9 0 -56945.5 43264.7 0 -58034.7 43103 0 -59122.4 42969.1 0 -60210.6 42864.6 0 -61301.3 42791.2 0 -62396.9 42750.4 0 -63499.8 42744 0 -64612.8 42773.7 0 -65738.6 42841.4 0 -66880.7 42948.9 0 -68042.5 43098.3 0 -69228.1 43291.7 0 -70441.9 43531.3 0 -71689.2 43819.5 0 -72975.6 44158.7 0 -74308 44551.5 0 -75694.3 45000.6 0 -77143.7 45508.7 0 -78667.2 46078.3 0 -80278.2 46711.9 0 -81992.7 47411.4 0 -83830.6 48177.4 0 -85816.4 49008.8 0 -87980.9 49900.9 0 -90362.4 50842.8 0 -93008.4 51813 0 -95975.8 52771.4 0 -99326.8 53646.5 0 -103113 54318.1 0 -107339 54601.7 0 -111891 54264 0 -116500 53139.7 0 66581.4 0.0215759 0 66553.1 1604.55 0 66468.2 3207.61 0 66326.9 4807.7 0 66129.2 6403.34 0 65875.3 7993.08 0 65565.5 9575.43 0 65200.2 11149 0 64779.5 12712.2 0 64304.1 14263.7 0 63774.3 15802.1 0 63190.6 17326 0 62553.7 18833.9 0 61864.2 20324.5 0 61122.7 21796.5 0 60330.1 23248.4 0 59487 24679 0 58594.4 26087.1 0 57653.1 27471.3 0 56664.1 28830.4 0 55628.4 30163.2 0 54547.1 31468.6 0 53421.2 32745.4 0 52251.8 33992.5 0 51040.3 35208.9 0 49787.8 36393.6 0 48495.7 37545.5 0 47165.1 38663.8 0 45797.6 39747.6 0 44394.6 40796.1 0 42957.4 41808.4 0 41487.6 42783.9 0 39986.7 43721.8 0 38456.2 44621.6 0 36897.8 45482.8 0 35313 46304.7 0 33703.6 47087.1 0 32071.1 47829.5 0 30417.2 48531.6 0 28743.6 49193.2 0 27052.1 49814.1 0 25344.3 50394.3 0 23622 50933.7 0 21886.9 51432.4 0 20140.7 51890.5 0 18385.1 52308.2 0 16621.9 52685.7 0 14852.7 53023.4 0 13079.2 53321.8 0 11303.1 53581.2 0 9526.04 53802.3 0 7749.54 53985.6 0 5975.21 54132 0 4204.57 54242.1 0 2439.12 54316.7 0 680.302 54356.9 0 -1070.5 54363.5 0 -2811.94 54337.5 0 -4542.73 54280.1 0 -6261.66 54192.4 0 -7967.55 54075.5 0 -9659.32 53930.7 0 -11335.9 53759.4 0 -12996.4 53562.7 0 -14639.9 53342.2 0 -16265.6 53099.1 0 -17872.8 52835 0 -19460.7 52551.2 0 -21028.9 52249.4 0 -22576.9 51931 0 -24104.1 51597.5 0 -25610.4 51250.5 0 -27095.4 50891.5 0 -28558.9 50522.2 0 -30001 50144.1 0 -31421.5 49758.7 0 -32820.6 49367.7 0 -34198.3 48972.6 0 -35555 48575.1 0 -36891 48176.5 0 -38206.5 47778.6 0 -39502.2 47382.8 0 -40778.4 46990.8 0 -42035.9 46603.9 0 -43275.3 46223.7 0 -44497.3 45851.8 0 -45702.8 45489.5 0 -46892.6 45138.4 0 -48067.8 44799.8 0 -49229.4 44475.3 0 -50378.5 44166.3 0 -51516.2 43874.2 0 -52643.9 43600.5 0 -53762.8 43346.4 0 -54874.5 43113.6 0 -55980.4 42903.3 0 -57082.2 42717 0 -58181.6 42556.2 0 -59280.5 42422.3 0 -60380.7 42316.9 0 -61484.6 42241.4 0 -62594.3 42197.3 0 -63712.4 42186.3 0 -64841.6 42210.1 0 -65984.9 42270.2 0 -67145.4 42368.5 0 -68327 42506.7 0 -69533.5 42686.9 0 -70769.6 42910.8 0 -72040.5 43180.6 0 -73351.9 43498.2 0 -74710.7 43865.9 0 -76124.8 44285.5 0 -77603.4 44759.2 0 -79157.4 45288.4 0 -80799.7 45874.4 0 -82546.1 46517.5 0 -84415.5 47216.5 0 -86431 47967.8 0 -88620.6 48763.4 0 -91018.5 49589 0 -93664.9 50419 0 -96604.7 51210.2 0 -99881.7 51892.5 0 -103523 52357.9 0 -107509 52457.5 0 -111731 52024.2 0 -115979 50954.4 0 64990.9 0.0211752 0 64963.1 1576.5 0 64879.7 3151.53 0 64740.8 4723.64 0 64546.5 6291.4 0 64297 7853.35 0 63992.6 9408.07 0 63633.5 10954.1 0 63220.1 12490.1 0 62752.9 14014.5 0 62232.2 15526.1 0 61658.7 17023.4 0 61032.8 18505.1 0 60355.2 19969.8 0 59626.5 21416.2 0 58847.5 22842.9 0 58019 24248.8 0 57141.8 25632.5 0 56216.8 26992.8 0 55244.9 28328.5 0 54227 29638.4 0 53164.3 30921.4 0 52057.8 32176.4 0 50908.7 33402.3 0 49718 34598.1 0 48487 35762.8 0 47217.1 36895.4 0 45909.4 37995 0 44565.3 39060.8 0 43186.3 40092 0 41773.7 41087.8 0 40329 42047.4 0 38853.6 42970.3 0 37349.2 43855.9 0 35817.2 44703.5 0 34259.2 45512.8 0 32676.9 46283.3 0 31071.8 47014.6 0 29445.6 47706.5 0 27799.9 48358.8 0 26136.4 48971.2 0 24456.9 49543.8 0 22762.9 50076.4 0 21056.1 50569.1 0 19338.2 51022 0 17611 51435.4 0 15876 51809.5 0 14134.9 52144.7 0 12389.4 52441.2 0 10641 52699.7 0 8891.33 52920.6 0 7141.99 53104.6 0 5394.48 53252.3 0 3650.27 53364.5 0 1910.83 53442 0 177.554 53485.7 0 -1548.21 53496.5 0 -3265.15 53475.4 0 -4972.02 53423.5 0 -6667.63 53341.8 0 -8350.86 53231.6 0 -10020.6 53094 0 -11676 52930.3 0 -13315.9 52741.7 0 -14939.6 52529.7 0 -16546.3 52295.5 0 -18135.3 52040.6 0 -19705.9 51766.4 0 -21257.5 51474.4 0 -22789.8 51166 0 -24302.3 50842.7 0 -25794.7 50506 0 -27266.6 50157.5 0 -28718.1 49798.7 0 -30149 49431.1 0 -31559.3 49056.3 0 -32949 48675.7 0 -34318.4 48291 0 -35667.6 47903.7 0 -36997 47515.2 0 -38307 47127.1 0 -39598 46741 0 -40870.4 46358.2 0 -42125.1 45980.3 0 -43362.5 45608.8 0 -44583.5 45245.1 0 -45788.9 44890.6 0 -46979.6 44546.8 0 -48156.5 44215.2 0 -49320.7 43897 0 -50473.2 43593.7 0 -51615.4 43306.8 0 -52748.3 43037.5 0 -53873.4 42787.2 0 -54992.1 42557.4 0 -56106 42349.4 0 -57216.7 42164.5 0 -58325.8 42004.2 0 -59435.3 41869.9 0 -60547.2 41763 0 -61663.7 41684.9 0 -62786.9 41637.1 0 -63919.5 41621 0 -65064.2 41638.2 0 -66224 41690.3 0 -67402.2 41778.7 0 -68602.4 41905.3 0 -69828.7 42071.5 0 -71085.8 42279.2 0 -72378.7 42529.9 0 -73713.4 42825.4 0 -75096.6 43167.2 0 -76536.1 43556.8 0 -78041 43995.5 0 -79622 44483.9 0 -81291.7 45022.1 0 -83065 45609.1 0 -84959.9 46241.9 0 -86997.7 46914.7 0 -89203.7 47617.4 0 -91607.4 48332.9 0 -94242.3 49033.2 0 -97142.6 49674.7 0 -100337 50191.3 0 -103837 50489 0 -107608 50449.2 0 -111554 49950.9 0 -115510 48928.3 0 63428.2 0.0207813 0 63400.9 1548.92 0 63318.9 3096.41 0 63182.4 4641.04 0 62991.5 6181.38 0 62746.3 7716.04 0 62447.1 9243.59 0 62094.2 10762.6 0 61688 12271.8 0 61228.8 13769.7 0 60717.1 15254.9 0 60153.4 16726.1 0 59538.3 18182 0 58872.4 19621.2 0 58156.3 21042.4 0 57390.8 22444.5 0 56576.5 23826 0 55714.4 25185.7 0 54805.4 26522.6 0 53850.2 27835.3 0 52849.9 29122.7 0 51805.5 30383.7 0 50718 31617.3 0 49588.6 32822.3 0 48418.3 33997.8 0 47208.5 35142.8 0 45960.3 36256.4 0 44675 37337.6 0 43353.9 38385.8 0 41998.5 39399.9 0 40609.9 40379.4 0 39189.8 41323.5 0 37739.5 42231.6 0 36260.5 43103.1 0 34754.4 43937.4 0 33222.7 44734.2 0 31666.9 45493 0 30088.7 46213.4 0 28489.6 46895.3 0 26871.2 47538.3 0 25235.3 48142.3 0 23583.3 48707.2 0 21917 49233 0 20238 49719.8 0 18547.9 50167.6 0 16848.4 50576.7 0 15141 50947.3 0 13427.5 51279.8 0 11709.3 51574.5 0 9988.05 51831.8 0 8265.3 52052.5 0 6542.56 52236.9 0 4821.31 52385.8 0 3103 52499.9 0 1389.04 52580.1 0 -319.212 52627.1 0 -2020.44 52641.8 0 -3713.37 52625.3 0 -5396.79 52578.6 0 -7069.55 52502.7 0 -8730.55 52398.8 0 -10378.8 52268 0 -12013.2 52111.5 0 -13633 51930.7 0 -15237.3 51726.8 0 -16825.3 51501.1 0 -18396.4 51255.1 0 -19949.9 50990 0 -21485.3 50707.3 0 -23002.2 50408.5 0 -24500.1 50095 0 -25978.8 49768.2 0 -27438 49429.7 0 -28877.5 49081 0 -30297.4 48723.5 0 -31697.5 48358.7 0 -33078 47988.2 0 -34439.1 47613.4 0 -35780.9 47235.8 0 -37103.8 46856.9 0 -38408.2 46478.2 0 -39694.4 46101.2 0 -40963.1 45727.3 0 -42214.8 45358 0 -43450.3 44994.6 0 -44670.2 44638.7 0 -45875.3 44291.6 0 -47066.6 43954.8 0 -48245.1 43629.5 0 -49411.6 43317.2 0 -50567.4 43019.2 0 -51713.7 42737 0 -52851.6 42471.7 0 -53982.6 42224.8 0 -55108 41997.6 0 -56229.5 41791.4 0 -57348.6 41607.5 0 -58467.1 41447.3 0 -59586.8 41312.1 0 -60709.8 41203.2 0 -61838.2 41122.1 0 -62974.4 41070 0 -64120.8 41048.3 0 -65280.2 41058.6 0 -66455.7 41102 0 -67650.5 41180.2 0 -68868.4 41294.5 0 -70113.4 41446.3 0 -71390 41637.2 0 -72703.5 41868.3 0 -74059.6 42141.1 0 -75465.2 42456.6 0 -76927.7 42815.8 0 -78456.2 43219.2 0 -80060.9 43666.6 0 -81754 44157.2 0 -83549.7 44688.6 0 -85464.5 45256.5 0 -87518 45853.4 0 -89732.5 46467.3 0 -92133.4 47079.5 0 -94747.6 47661 0 -97600.3 48169.5 0 -100709 48544.3 0 -104073 48705.2 0 -107654 48558.1 0 -111367 48014.8 0 -115080 47032.2 0 61892.9 0.020394 0 61866 1521.83 0 61785.5 3042.24 0 61651.3 4559.86 0 61463.6 6073.27 0 61222.7 7581.09 0 60928.6 9081.95 0 60581.8 10574.5 0 60182.6 12057.2 0 59731.3 13529 0 59228.4 14988.3 0 58674.5 16433.9 0 58070 17864.4 0 57415.5 19278.6 0 56711.7 20675.2 0 55959.3 22052.8 0 55159.1 23410.4 0 54311.9 24746.7 0 53418.4 26060.4 0 52479.6 27350.5 0 51496.5 28615.8 0 50470 29855.2 0 49401.2 31067.7 0 48291.2 32252.2 0 47141 33407.8 0 45951.9 34533.5 0 44725 35628.3 0 43461.7 36691.5 0 42163.1 37722.2 0 40830.7 38719.6 0 39465.8 39683.1 0 38069.7 40611.9 0 36644 41505.3 0 35190 42363 0 33709.2 43184.3 0 32203.2 43968.7 0 30673.5 44715.9 0 29121.5 45425.6 0 27549 46097.5 0 25957.4 46731.3 0 24348.4 47326.9 0 22723.5 47884.3 0 21084.3 48403.3 0 19432.5 48884.2 0 17769.6 49326.9 0 16097.2 49731.7 0 14416.9 50098.7 0 12730.3 50428.5 0 11038.9 50721.2 0 9344.28 50977.4 0 7647.87 51197.5 0 5951.19 51382.3 0 4255.68 51532.2 0 2562.74 51648.1 0 873.74 51730.6 0 -809.986 51780.7 0 -2487.16 51799.2 0 -4156.56 51787 0 -5816.99 51745.2 0 -7467.34 51674.7 0 -9106.55 51576.8 0 -10733.6 51452.5 0 -12347.6 51303 0 -13947.5 51129.5 0 -15532.8 50933.4 0 -17102.5 50715.8 0 -18656 50478.2 0 -20192.7 50221.8 0 -21712.2 49948.1 0 -23213.9 49658.5 0 -24697.5 49354.3 0 -26162.6 49037 0 -27609.2 48708.1 0 -29037 48369 0 -30445.9 48021.1 0 -31836.1 47665.9 0 -33207.4 47305 0 -34560.2 46939.6 0 -35894.7 46571.4 0 -37211.1 46201.6 0 -38509.8 45831.9 0 -39791.3 45463.6 0 -41056.1 45098.1 0 -42304.9 44736.9 0 -43538.2 44381.3 0 -44756.9 44032.7 0 -45961.7 43692.6 0 -47153.5 43362.2 0 -48333.2 43042.9 0 -49502 42736 0 -50660.8 42442.9 0 -51810.9 42164.9 0 -52953.6 41903.3 0 -54090.1 41659.3 0 -55221.9 41434.3 0 -56350.6 41229.4 0 -57477.8 41046.1 0 -58605.1 40885.5 0 -59734.6 40749 0 -60868.2 40637.8 0 -62008 40553.2 0 -63156.4 40496.4 0 -64316 40468.7 0 -65489.4 40471.5 0 -66679.8 40505.9 0 -67890.3 