<?xml version="1.0"?> 
<VTKFile type="StructuredGrid" version="0.1"> 
<StructuredGrid WholeExtent="0 127 0 127 0 0"> 
<Piece Extent="0 127 0 127 0 0"> 
<PointData>
<DataArray type="Float32" Name="E" format="ascii" NumberOfComponents="3"> 
-482366 0 0 -482313 0 0 -482259 0 0 -482204 0 0 -482148 0 0 -482092 0 0 -482035 0 0 -481976 0 0 -481917 0 0 -481857 0 0 -481797 0 0 -481735 0 0 -481673 0 0 -481610 0 0 -481546 0 0 -481481 0 0 -481415 0 0 -481349 0 0 -481282 0 0 -481214 0 0 -481145 0 0 -481076 0 0 -481005 0 0 -480934 0 0 -480863 0 0 -480790 0 0 -480717 0 0 -480643 0 0 -480568 0 0 -480493 0 0 -480417 0 0 -480340 0 0 -480263 0 0 -480185 0 0 -480106 0 0 -480027 0 0 -479947 0 0 -479867 0 0 -479785 0 0 -479704 0 0 -479621 0 0 -479539 0 0 -479455 0 0 -479371 0 0 -479287 0 0 -479202 0 0 -479116 0 0 -479030 0 0 -478943 0 0 -478857 0 0 -478769 0 0 -478681 0 0 -478593 0 0 -478504 0 0 -478415 0 0 -478325 0 0 -478235 0 0 -478145 0 0 -478054 0 0 -477963 0 0 -477872 0 0 -477780 0 0 -477689 0 0 -477596 0 0 -477504 0 0 -477411 0 0 -477318 0 0 -477225 0 0 -477131 0 0 -477037 0 0 -476944 0 0 -476849 0 0 -476755 0 0 -476661 0 0 -476566 0 0 -476471 0 0 -476376 0 0 -476282 0 0 -476186 0 0 -476091 0 0 -475996 0 0 -475901 0 0 -475805 0 0 -475710 0 0 -475615 0 0 -475519 0 0 -475424 0 0 -475328 0 0 -475233 0 0 -475137 0 0 -475042 0 0 -474947 0 0 -474851 0 0 -474756 0 0 -474661 0 0 -474566 0 0 -474471 0 0 -474376 0 0 -474281 0 0 -474187 0 0 -474092 0 0 -473998 0 0 -473904 0 0 -473810 0 0 -473716 0 0 -473622 0 0 -473529 0 0 -473435 0 0 -473342 0 0 -473249 0 0 -473156 0 0 -473064 0 0 -472971 0 0 -472879 0 0 -472787 0 0 -472695 0 0 -472604 0 0 -472513 0 0 -472421 0 0 -472331 0 0 -472240 0 0 -472150 0 0 -472060 0 0 -471970 0 0 -471880 0 0 -471791 0 0 -471702 0 0 -471613 0 0 -482367 65.7936 0 -482314 66.8723 0 -482260 67.9481 0 -482205 69.0207 0 -482149 70.0896 0 -482093 71.1545 0 -482035 72.215 0 -481977 73.2708 0 -481918 74.3214 0 -481858 75.3665 0 -481797 76.4058 0 -481736 77.4388 0 -481674 78.4653 0 -481610 79.4849 0 -481546 80.4971 0 -481482 81.5018 0 -481416 82.4985 0 -481350 83.4869 0 -481282 84.4667 0 -481214 85.4376 0 -481146 86.3991 0 -481076 87.3511 0 -481006 88.2932 0 -480935 89.2251 0 -480863 90.1464 0 -480791 91.057 0 -480717 91.9565 0 -480644 92.8447 0 -480569 93.7212 0 -480494 94.5858 0 -480418 95.4382 0 -480341 96.2782 0 -480264 97.1056 0 -480186 97.92 0 -480107 98.7214 0 -480028 99.5093 0 -479948 100.284 0 -479867 101.044 0 -479786 101.791 0 -479704 102.523 0 -479622 103.242 0 -479539 103.945 0 -479456 104.634 0 -479372 105.308 0 -479287 105.967 0 -479202 106.611 0 -479117 107.239 0 -479030 107.852 0 -478944 108.45 0 -478857 109.031 0 -478770 109.597 0 -478682 110.147 0 -478593 110.682 0 -478505 111.2 0 -478415 111.702 0 -478326 112.188 0 -478236 112.658 0 -478146 113.111 0 -478055 113.548 0 -477964 113.969 0 -477872 114.374 0 -477781 114.762 0 -477689 115.134 0 -477597 115.49 0 -477504 115.829 0 -477411 116.152 0 -477318 116.459 0 -477225 116.75 0 -477131 117.024 0 -477038 117.283 0 -476944 117.525 0 -476850 117.752 0 -476755 117.962 0 -476661 118.157 0 -476566 118.337 0 -476472 118.5 0 -476377 118.649 0 -476282 118.782 0 -476187 118.9 0 -476091 119.003 0 -475996 119.091 0 -475901 119.164 0 -475806 119.223 0 -475710 119.268 0 -475615 119.298 0 -475519 119.315 0 -475424 119.318 0 -475328 119.307 0 -475233 119.283 0 -475137 119.245 0 -475042 119.195 0 -474947 119.132 0 -474851 119.057 0 -474756 118.969 0 -474661 118.87 0 -474566 118.759 0 -474471 118.636 0 -474376 118.503 0 -474282 118.358 0 -474187 118.203 0 -474092 118.037 0 -473998 117.862 0 -473904 117.677 0 -473810 117.482 0 -473716 117.279 0 -473622 117.066 0 -473529 116.845 0 -473435 116.616 0 -473342 116.379 0 -473249 116.135 0 -473156 115.883 0 -473063 115.624 0 -472971 115.359 0 -472879 115.088 0 -472787 114.811 0 -472695 114.529 0 -472604 114.241 0 -472512 113.949 0 -472421 113.652 0 -472331 113.351 0 -472240 113.047 0 -472150 112.739 0 -472060 112.428 0 -471970 112.114 0 -471880 111.798 0 -471791 111.48 0 -471702 111.16 0 -471613 110.84 0 -482369 131.589 0 -482316 133.747 0 -482262 135.899 0 -482207 138.045 0 -482151 140.183 0 -482095 142.314 0 -482037 144.435 0 -481979 146.547 0 -481920 148.649 0 -481860 150.74 0 -481800 152.819 0 -481738 154.886 0 -481676 156.939 0 -481613 158.979 0 -481549 161.004 0 -481484 163.014 0 -481418 165.008 0 -481352 166.985 0 -481284 168.945 0 -481217 170.888 0 -481148 172.811 0 -481078 174.716 0 -481008 176.6 0 -480937 178.465 0 -480865 180.308 0 -480793 182.13 0 -480719 183.929 0 -480645 185.706 0 -480571 187.459 0 -480495 189.189 0 -480419 190.894 0 -480343 192.575 0 -480265 194.23 0 -480187 195.859 0 -480109 197.462 0 -480029 199.038 0 -479949 200.588 0 -479869 202.109 0 -479788 203.603 0 -479706 205.068 0 -479624 206.505 0 -479541 207.912 0 -479457 209.29 0 -479373 210.638 0 -479289 211.956 0 -479204 213.244 0 -479118 214.501 0 -479032 215.727 0 -478945 216.923 0 -478858 218.086 0 -478771 219.219 0 -478683 220.319 0 -478595 221.388 0 -478506 222.424 0 -478417 223.429 0 -478327 224.401 0 -478237 225.34 0 -478147 226.247 0 -478056 227.122 0 -477965 227.964 0 -477874 228.773 0 -477782 229.549 0 -477690 230.293 0 -477598 231.005 0 -477505 231.683 0 -477412 232.329 0 -477319 232.943 0 -477226 233.524 0 -477132 234.073 0 -477038 234.59 0 -476944 235.075 0 -476850 235.528 0 -476756 235.949 0 -476662 236.339 0 -476567 236.697 0 -476472 237.025 0 -476377 237.321 0 -476282 237.587 0 -476187 237.823 0 -476092 238.029 0 -475997 238.205 0 -475901 238.352 0 -475806 238.469 0 -475711 238.558 0 -475615 238.619 0 -475520 238.652 0 -475424 238.657 0 -475329 238.635 0 -475233 238.586 0 -475138 238.511 0 -475042 238.41 0 -474947 238.284 0 -474852 238.133 0 -474756 237.958 0 -474661 237.759 0 -474566 237.536 0 -474471 237.29 0 -474376 237.023 0 -474282 236.733 0 -474187 236.422 0 -474092 236.091 0 -473998 235.74 0 -473904 235.369 0 -473810 234.979 0 -473716 234.572 0 -473622 234.146 0 -473528 233.704 0 -473435 233.245 0 -473342 232.771 0 -473249 232.281 0 -473156 231.777 0 -473063 231.26 0 -472971 230.729 0 -472879 230.187 0 -472787 229.632 0 -472695 229.067 0 -472603 228.491 0 -472512 227.906 0 -472421 227.311 0 -472330 226.709 0 -472240 226.099 0 -472149 225.483 0 -472059 224.86 0 -471970 224.232 0 -471880 223.6 0 -471791 222.963 0 -471702 222.324 0 -471613 221.682 0 -482372 197.387 0 -482319 200.626 0 -482265 203.856 0 -482211 207.076 0 -482155 210.285 0 -482099 213.482 0 -482041 216.666 0 -481983 219.835 0 -481924 222.99 0 -481864 226.127 0 -481803 229.248 0 -481742 232.349 0 -481679 235.431 0 -481616 238.492 0 -481552 241.531 0 -481487 244.547 0 -481422 247.539 0 -481355 250.507 0 -481288 253.448 0 -481220 256.363 0 -481151 259.25 0 -481082 262.108 0 -481011 264.936 0 -480940 267.734 0 -480868 270.5 0 -480796 273.233 0 -480723 275.934 0 -480649 278.6 0 -480574 281.231 0 -480499 283.827 0 -480423 286.386 0 -480346 288.908 0 -480268 291.391 0 -480190 293.836 0 -480112 296.242 0 -480032 298.607 0 -479952 300.932 0 -479872 303.215 0 -479790 305.456 0 -479709 307.655 0 -479626 309.81 0 -479543 311.922 0 -479460 313.99 0 -479376 316.013 0 -479291 317.991 0 -479206 319.923 0 -479120 321.809 0 -479034 323.649 0 -478948 325.443 0 -478861 327.189 0 -478773 328.888 0 -478685 330.539 0 -478597 332.142 0 -478508 333.697 0 -478419 335.204 0 -478329 336.662 0 -478239 338.072 0 -478149 339.433 0 -478058 340.745 0 -477967 342.008 0 -477875 343.222 0 -477784 344.387 0 -477691 345.503 0 -477599 346.569 0 -477507 347.587 0 -477414 348.557 0 -477321 349.477 0 -477227 350.349 0 -477134 351.172 0 -477040 351.947 0 -476946 352.674 0 -476852 353.353 0 -476757 353.985 0 -476663 354.569 0 -476568 355.106 0 -476473 355.597 0 -476378 356.042 0 -476283 356.44 0 -476188 356.793 0 -476093 357.102 0 -475997 357.365 0 -475902 357.585 0 -475807 357.761 0 -475711 357.893 0 -475616 357.984 0 -475520 358.032 0 -475425 358.039 0 -475329 358.005 0 -475234 357.931 0 -475138 357.818 0 -475043 357.666 0 -474947 357.476 0 -474852 357.249 0 -474757 356.985 0 -474661 356.685 0 -474566 356.35 0 -474471 355.981 0 -474376 355.578 0 -474282 355.143 0 -474187 354.675 0 -474092 354.177 0 -473998 353.649 0 -473904 353.092 0 -473809 352.506 0 -473716 351.893 0 -473622 351.254 0 -473528 350.589 0 -473435 349.9 0 -473341 349.187 0 -473248 348.452 0 -473156 347.695 0 -473063 346.917 0 -472971 346.12 0 -472878 345.305 0 -472786 344.472 0 -472695 343.622 0 -472603 342.757 0 -472512 341.878 0 -472421 340.985 0 -472330 340.081 0 -472239 339.164 0 -472149 338.238 0 -472059 337.303 0 -471969 336.36 0 -471879 335.409 0 -471790 334.453 0 -471701 333.493 0 -471612 332.528 0 -482378 263.19 0 -482325 267.511 0 -482271 271.821 0 -482216 276.117 0 -482160 280.399 0 -482104 284.664 0 -482046 288.912 0 -481988 293.141 0 -481929 297.349 0 -481869 301.536 0 -481808 305.699 0 -481747 309.837 0 -481684 313.948 0 -481621 318.032 0 -481557 322.087 0 -481492 326.111 0 -481426 330.104 0 -481360 334.063 0 -481293 337.987 0 -481225 341.876 0 -481156 345.727 0 -481086 349.54 0 -481016 353.314 0 -480945 357.046 0 -480873 360.737 0 -480800 364.384 0 -480727 367.986 0 -480653 371.544 0 -480578 375.054 0 -480503 378.517 0 -480427 381.931 0 -480350 385.295 0 -480273 388.609 0 -480194 391.87 0 -480116 395.08 0 -480036 398.235 0 -479956 401.337 0 -479876 404.382 0 -479794 407.372 0 -479712 410.305 0 -479630 413.181 0 -479547 415.998 0 -479463 418.756 0 -479379 421.455 0 -479295 424.093 0 -479209 426.671 0 -479124 429.187 0 -479038 431.641 0 -478951 434.033 0 -478864 436.363 0 -478776 438.628 0 -478688 440.831 0 -478600 442.969 0 -478511 445.043 0 -478421 447.053 0 -478332 448.998 0 -478242 450.878 0 -478151 452.693 0 -478060 454.443 0 -477969 456.127 0 -477878 457.746 0 -477786 459.299 0 -477694 460.787 0 -477601 462.21 0 -477509 463.567 0 -477416 464.859 0 -477323 466.086 0 -477229 467.248 0 -477135 468.346 0 -477042 469.379 0 -476947 470.347 0 -476853 471.253 0 -476759 472.094 0 -476664 472.873 0 -476569 473.588 0 -476475 474.242 0 -476380 474.834 0 -476284 475.365 0 -476189 475.835 0 -476094 476.244 0 -475998 476.595 0 -475903 476.886 0 -475808 477.12 0 -475712 477.296 0 -475616 477.415 0 -475521 477.478 0 -475425 477.486 0 -475330 477.44 0 -475234 477.34 0 -475139 477.187 0 -475043 476.983 0 -474948 476.728 0 -474852 476.423 0 -474757 476.069 0 -474662 475.668 0 -474566 475.219 0 -474471 474.725 0 -474376 474.186 0 -474282 473.604 0 -474187 472.979 0 -474092 472.313 0 -473998 471.606 0 -473903 470.861 0 -473809 470.078 0 -473715 469.259 0 -473621 468.404 0 -473528 467.516 0 -473434 466.594 0 -473341 465.642 0 -473248 464.659 0 -473155 463.647 0 -473062 462.608 0 -472970 461.543 0 -472878 460.453 0 -472786 459.34 0 -472694 458.205 0 -472602 457.049 0 -472511 455.874 0 -472420 454.681 0 -472329 453.472 0 -472239 452.248 0 -472148 451.011 0 -472058 449.761 0 -471968 448.501 0 -471879 447.231 0 -471789 445.954 0 -471700 444.67 0 -471611 443.381 0 -482384 329 0 -482331 334.406 0 -482277 339.797 0 -482222 345.172 0 -482167 350.528 0 -482110 355.865 0 -482053 361.179 0 -481995 366.47 0 -481935 371.735 0 -481876 376.972 0 -481815 382.18 0 -481753 387.357 0 -481691 392.501 0 -481627 397.61 0 -481563 402.683 0 -481498 407.717 0 -481433 412.712 0 -481366 417.665 0 -481299 422.574 0 -481231 427.439 0 -481162 432.257 0 -481092 437.028 0 -481022 441.748 0 -480951 446.417 0 -480879 451.034 0 -480806 455.596 0 -480733 460.103 0 -480659 464.553 0 -480584 468.945 0 -480509 473.277 0 -480432 477.547 0 -480356 481.756 0 -480278 485.901 0 -480200 489.981 0 -480121 493.995 0 -480041 497.943 0 -479961 501.822 0 -479881 505.632 0 -479799 509.372 0 -479717 513.041 0 -479635 516.637 0 -479552 520.161 0 -479468 523.611 0 -479384 526.986 0 -479299 530.286 0 -479214 533.51 0 -479128 536.657 0 -479042 539.727 0 -478955 542.718 0 -478868 545.631 0 -478780 548.465 0 -478692 551.219 0 -478604 553.894 0 -478515 556.487 0 -478425 559.001 0 -478335 561.433 0 -478245 563.783 0 -478155 566.053 0 -478064 568.24 0 -477972 570.346 0 -477881 572.37 0 -477789 574.312 0 -477697 576.172 0 -477604 577.95 0 -477511 579.647 0 -477418 581.262 0 -477325 582.795 0 -477232 584.248 0 -477138 585.619 0 -477044 586.91 0 -476950 588.12 0 -476855 589.251 0 -476761 590.302 0 -476666 591.274 0 -476571 592.168 0 -476476 592.984 0 -476381 593.722 0 -476286 594.384 0 -476191 594.97 0 -476095 595.481 0 -476000 595.917 0 -475904 596.28 0 -475809 596.57 0 -475713 596.788 0 -475617 596.935 0 -475522 597.011 0 -475426 597.019 0 -475330 596.959 0 -475235 596.832 0 -475139 596.639 0 -475044 596.381 0 -474948 596.059 0 -474853 595.675 0 -474757 595.23 0 -474662 594.726 0 -474567 594.162 0 -474472 593.541 0 -474377 592.865 0 -474282 592.134 0 -474187 591.349 0 -474092 590.513 0 -473998 589.627 0 -473903 588.692 0 -473809 587.71 0 -473715 586.682 0 -473621 585.611 0 -473527 584.496 0 -473434 583.341 0 -473341 582.146 0 -473247 580.914 0 -473155 579.645 0 -473062 578.343 0 -472969 577.007 0 -472877 575.641 0 -472785 574.246 0 -472693 572.823 0 -472602 571.374 0 -472510 569.901 0 -472419 568.406 0 -472328 566.891 0 -472238 565.356 0 -472147 563.805 0 -472057 562.239 0 -471967 560.66 0 -471878 559.069 0 -471788 557.468 0 -471699 555.859 0 -471610 554.244 0 -482392 394.817 0 -482339 401.311 0 -482285 407.787 0 -482231 414.243 0 -482175 420.678 0 -482118 427.088 0 -482061 433.472 0 -482003 439.828 0 -481943 446.152 0 -481884 452.444 0 -481823 458.7 0 -481761 464.918 0 -481699 471.097 0 -481635 477.234 0 -481571 483.328 0 -481506 489.375 0 -481440 495.375 0 -481374 501.324 0 -481307 507.222 0 -481238 513.065 0 -481169 518.853 0 -481100 524.583 0 -481029 530.253 0 -480958 535.862 0 -480886 541.407 0 -480813 546.887 0 -480740 552.301 0 -480666 557.646 0 -480591 562.92 0 -480515 568.123 0 -480439 573.253 0 -480362 578.308 0 -480285 583.286 0 -480206 588.187 0 -480127 593.008 0 -480048 597.749 0 -479968 602.408 0 -479887 606.984 0 -479805 611.476 0 -479723 615.882 0 -479641 620.202 0 -479558 624.433 0 -479474 628.577 0 -479390 632.63 0 -479305 636.593 0 -479219 640.464 0 -479133 644.243 0 -479047 647.929 0 -478960 651.521 0 -478873 655.019 0 -478785 658.422 0 -478697 661.729 0 -478608 664.94 0 -478519 668.054 0 -478430 671.071 0 -478340 673.991 0 -478249 676.813 0 -478159 679.537 0 -478068 682.163 0 -477976 684.69 0 -477885 687.12 0 -477793 689.45 0 -477700 691.683 0 -477608 693.817 0 -477515 695.853 0 -477422 697.79 0 -477328 699.63 0 -477235 701.372 0 -477141 703.017 0 -477047 704.565 0 -476952 706.017 0 -476858 707.372 0 -476763 708.632 0 -476669 709.798 0 -476574 710.868 0 -476478 711.846 0 -476383 712.73 0 -476288 713.523 0 -476193 714.224 0 -476097 714.834 0 -476001 715.355 0 -475906 715.788 0 -475810 716.133 0 -475714 716.392 0 -475619 716.565 0 -475523 716.654 0 -475427 716.661 0 -475331 716.585 0 -475236 716.429 0 -475140 716.193 0 -475044 715.88 0 -474949 715.491 0 -474853 715.026 0 -474758 714.488 0 -474662 713.878 0 -474567 713.198 0 -474472 712.448 0 -474377 711.632 0 -474282 710.75 0 -474187 709.804 0 -474092 708.796 0 -473997 707.728 0 -473903 706.601 0 -473809 705.417 0 -473715 704.179 0 -473621 702.887 0 -473527 701.544 0 -473433 700.152 0 -473340 698.713 0 -473247 697.229 0 -473154 695.701 0 -473061 694.132 0 -472968 692.524 0 -472876 690.879 0 -472784 689.199 0 -472692 687.485 0 -472601 685.741 0 -472509 683.967 0 -472418 682.167 0 -472327 680.343 0 -472236 678.496 0 -472146 676.628 0 -472056 674.743 0 -471966 672.841 0 -471876 670.926 0 -471787 668.999 0 -471698 667.062 0 -471609 665.118 0 -482402 460.644 0 -482349 468.229 0 -482295 475.794 0 -482240 483.336 0 -482184 490.852 0 -482128 498.34 0 -482070 505.797 0 -482012 513.221 0 -481953 520.608 0 -481893 527.957 0 -481832 535.265 0 -481770 542.528 0 -481708 549.746 0 -481645 556.915 0 -481580 564.032 0 -481515 571.096 0 -481450 578.104 0 -481383 585.053 0 -481316 591.942 0 -481247 598.767 0 -481178 605.528 0 -481109 612.22 0 -481038 618.843 0 -480967 625.394 0 -480895 631.871 0 -480822 638.272 0 -480748 644.595 0 -480674 650.837 0 -480599 656.998 0 -480524 663.075 0 -480447 669.066 0 -480370 674.97 0 -480292 680.784 0 -480214 686.508 0 -480135 692.138 0 -480055 697.675 0 -479975 703.116 0 -479894 708.46 0 -479813 713.706 0 -479730 718.851 0 -479648 723.895 0 -479564 728.837 0 -479481 733.675 0 -479396 738.408 0 -479311 743.036 0 -479226 747.556 0 -479140 751.968 0 -479053 756.272 0 -478966 760.466 0 -478879 764.55 0 -478791 768.522 0 -478703 772.383 0 -478614 776.132 0 -478525 779.767 0 -478435 783.289 0 -478345 786.697 0 -478254 789.991 0 -478164 793.171 0 -478072 796.235 0 -477981 799.185 0 -477889 802.02 0 -477797 804.74 0 -477705 807.345 0 -477612 809.834 0 -477519 812.209 0 -477426 814.47 0 -477332 816.615 0 -477238 818.647 0 -477144 820.565 0 -477050 822.37 0 -476956 824.062 0 -476861 825.642 0 -476766 827.111 0 -476671 828.468 0 -476576 829.715 0 -476481 830.853 0 -476386 831.883 0 -476290 832.804 0 -476195 833.619 0 -476099 834.328 0 -476003 834.933 0 -475908 835.434 0 -475812 835.833 0 -475716 836.131 0 -475620 836.329 0 -475524 836.429 0 -475428 836.432 0 -475333 836.339 0 -475237 836.152 0 -475141 835.872 0 -475045 835.502 0 -474949 835.042 0 -474854 834.495 0 -474758 833.861 0 -474663 833.144 0 -474567 832.344 0 -474472 831.464 0 -474377 830.505 0 -474282 829.469 0 -474187 828.359 0 -474092 827.177 0 -473997 825.924 0 -473903 824.602 0 -473808 823.214 0 -473714 821.762 0 -473620 820.248 0 -473526 818.674 0 -473433 817.043 0 -473339 815.356 0 -473246 813.617 0 -473153 811.827 0 -473060 809.989 0 -472967 808.105 0 -472875 806.177 0 -472783 804.208 0 -472691 802.201 0 -472599 800.158 0 -472508 798.081 0 -472417 795.973 0 -472326 793.836 0 -472235 791.672 0 -472145 789.485 0 -472055 787.277 0 -471965 785.05 0 -471875 782.807 0 -471786 780.55 0 -471696 778.282 0 -471608 776.006 0 -482413 526.483 0 -482360 535.163 0 -482306 543.821 0 -482251 552.452 0 -482195 561.054 0 -482139 569.624 0 -482081 578.158 0 -482023 586.654 0 -481964 595.109 0 -481904 603.52 0 -481843 611.883 0 -481781 620.196 0 -481719 628.456 0 -481655 636.66 0 -481591 644.806 0 -481526 652.89 0 -481460 660.91 0 -481393 668.863 0 -481326 676.747 0 -481258 684.558 0 -481189 692.294 0 -481119 699.953 0 -481048 707.532 0 -480977 715.029 0 -480905 722.441 0 -480832 729.766 0 -480758 737.002 0 -480684 744.145 0 -480609 751.195 0 -480533 758.149 0 -480456 765.005 0 -480379 771.76 0 -480302 778.413 0 -480223 784.962 0 -480144 791.405 0 -480064 797.741 0 -479984 803.966 0 -479903 810.081 0 -479821 816.082 0 -479739 821.969 0 -479656 827.74 0 -479572 833.394 0 -479488 838.929 0 -479404 844.344 0 -479319 849.638 0 -479233 854.809 0 -479147 859.856 0 -479060 864.779 0 -478973 869.577 0 -478886 874.248 0 -478798 878.792 0 -478709 883.207 0 -478620 887.494 0 -478531 891.652 0 -478441 895.68 0 -478351 899.577 0 -478260 903.344 0 -478169 906.979 0 -478078 910.483 0 -477986 913.856 0 -477894 917.097 0 -477802 920.206 0 -477709 923.183 0 -477617 926.028 0 -477523 928.743 0 -477430 931.325 0 -477336 933.777 0 -477242 936.098 0 -477148 938.289 0 -477054 940.35 0 -476959 942.282 0 -476865 944.086 0 -476770 945.762 0 -476675 947.311 0 -476579 948.733 0 -476484 950.03 0 -476389 951.203 0 -476293 952.253 0 -476197 953.18 0 -476102 953.987 0 -476006 954.674 0 -475910 955.242 0 -475814 955.693 0 -475718 956.028 0 -475622 956.249 0 -475526 956.358 0 -475430 956.355 0 -475334 956.242 0 -475238 956.022 0 -475142 955.696 0 -475046 955.266 0 -474950 954.734 0 -474854 954.101 0 -474759 953.37 0 -474663 952.542 0 -474568 951.62 0 -474472 950.606 0 -474377 949.502 0 -474282 948.31 0 -474187 947.033 0 -474092 945.673 0 -473997 944.232 0 -473902 942.712 0 -473808 941.117 0 -473714 939.448 0 -473619 937.708 0 -473526 935.899 0 -473432 934.025 0 -473338 932.088 0 -473245 930.089 0 -473152 928.034 0 -473059 925.922 0 -472966 923.759 0 -472874 921.545 0 -472782 919.285 0 -472690 916.98 0 -472598 914.634 0 -472506 912.249 0 -472415 909.829 0 -472324 907.376 0 -472234 904.892 0 -472143 902.382 0 -472053 899.847 0 -471963 897.291 0 -471873 894.716 0 -471784 892.126 0 -471695 889.523 0 -471606 886.91 0 -482426 592.333 0 -482373 602.115 0 -482319 611.87 0 -482264 621.596 0 -482208 631.289 0 -482151 640.945 0 -482094 650.561 0 -482036 660.135 0 -481976 669.662 0 -481916 679.138 0 -481855 688.562 0 -481793 697.929 0 -481731 707.236 0 -481667 716.481 0 -481603 725.659 0 -481538 734.768 0 -481472 743.805 0 -481405 752.766 0 -481338 761.648 0 -481269 770.45 0 -481200 779.166 0 -481130 787.796 0 -481059 796.335 0 -480988 804.782 0 -480916 813.133 0 -480843 821.386 0 -480769 829.538 0 -480695 837.586 0 -480619 845.529 0 -480544 853.363 0 -480467 861.087 0 -480390 868.697 0 -480312 876.193 0 -480233 883.571 0 -480154 890.829 0 -480074 897.966 0 -479993 904.979 0 -479912 911.866 0 -479830 918.627 0 -479748 925.258 0 -479665 931.759 0 -479581 938.127 0 -479497 944.361 0 -479413 950.46 0 -479327 956.422 0 -479242 962.246 0 -479155 967.931 0 -479068 973.475 0 -478981 978.877 0 -478893 984.137 0 -478805 989.254 0 -478717 994.226 0 -478627 999.053 0 -478538 1003.73 0 -478448 1008.27 0 -478358 1012.66 0 -478267 1016.9 0 -478176 1020.99 0 -478084 1024.93 0 -477992 1028.73 0 -477900 1032.37 0 -477808 1035.87 0 -477715 1039.22 0 -477622 1042.42 0 -477529 1045.48 0 -477435 1048.38 0 -477341 1051.14 0 -477247 1053.75 0 -477153 1056.21 0 -477058 1058.53 0 -476964 1060.7 0 -476869 1062.73 0 -476774 1064.61 0 -476678 1066.35 0 -476583 1067.95 0 -476487 1069.4 0 -476392 1070.72 0 -476296 1071.89 0 -476200 1072.93 0 -476104 1073.83 0 -476008 1074.6 0 -475912 1075.23 0 -475816 1075.74 0 -475720 1076.11 0 -475624 1076.35 0 -475528 1076.46 0 -475432 1076.45 0 -475335 1076.32 0 -475239 1076.06 0 -475143 1075.69 0 -475047 1075.19 0 -474951 1074.59 0 -474855 1073.86 0 -474759 1073.03 0 -474664 1072.09 0 -474568 1071.04 0 -474472 1069.89 0 -474377 1068.64 0 -474282 1067.29 0 -474187 1065.84 0 -474091 1064.3 0 -473997 1062.67 0 -473902 1060.95 0 -473807 1059.14 0 -473713 1057.25 0 -473619 1055.28 0 -473525 1053.23 0 -473431 1051.11 0 -473337 1048.92 0 -473244 1046.66 0 -473151 1044.33 0 -473058 1041.94 0 -472965 1039.5 0 -472872 1036.99 0 -472780 1034.44 0 -472688 1031.83 0 -472596 1029.18 0 -472505 1026.48 0 -472414 1023.74 0 -472323 1020.97 0 -472232 1018.16 0 -472141 1015.32 0 -472051 1012.46 0 -471961 1009.57 0 -471871 1006.66 0 -471782 1003.73 0 -471693 1000.79 0 -471604 997.832 0 -482440 658.198 0 -482387 669.086 0 -482333 679.945 0 -482278 690.77 0 -482222 701.559 0 -482165 712.308 0 -482108 723.012 0 -482049 733.668 0 -481990 744.272 0 -481930 754.821 0 -481869 765.31 0 -481807 775.736 0 -481744 786.096 0 -481681 796.386 0 -481617 806.602 0 -481551 816.741 0 -481485 826.799 0 -481418 836.773 0 -481351 846.66 0 -481282 856.456 0 -481213 866.158 0 -481143 875.762 0 -481072 885.267 0 -481001 894.668 0 -480928 903.962 0 -480855 913.147 0 -480781 922.22 0 -480707 931.178 0 -480632 940.017 0 -480555 948.736 0 -480479 957.331 0 -480401 965.801 0 -480323 974.142 0 -480245 982.352 0 -480165 990.429 0 -480085 998.371 0 -480004 1006.17 0 -479923 1013.84 0 -479841 1021.36 0 -479758 1028.74 0 -479675 1035.97 0 -479591 1043.06 0 -479507 1049.99 0 -479422 1056.78 0 -479337 1063.41 0 -479251 1069.89 0 -479165 1076.22 0 -479078 1082.38 0 -478990 1088.39 0 -478902 1094.24 0 -478814 1099.93 0 -478725 1105.46 0 -478636 1110.83 0 -478546 1116.04 0 -478456 1121.08 0 -478365 1125.96 0 -478274 1130.67 0 -478183 1135.22 0 -478091 1139.61 0 -477999 1143.83 0 -477907 1147.88 0 -477814 1151.77 0 -477721 1155.49 0 -477628 1159.05 0 -477534 1162.44 0 -477441 1165.67 0 -477347 1168.73 0 -477252 1171.63 0 -477158 1174.37 0 -477063 1176.94 0 -476968 1179.35 0 -476873 1181.6 0 -476778 1183.68 0 -476682 1185.61 0 -476587 1187.38 0 -476491 1188.99 0 -476395 1190.45 0 -476299 1191.75 0 -476203 1192.9 0 -476107 1193.89 0 -476011 1194.74 0 -475915 1195.43 0 -475819 1195.98 0 -475722 1196.39 0 -475626 1196.65 0 -475530 1196.77 0 -475433 1196.74 0 -475337 1196.59 0 -475241 1196.29 0 -475144 1195.86 0 -475048 1195.31 0 -474952 1194.62 0 -474856 1193.81 0 -474760 1192.87 0 -474664 1191.81 0 -474568 1190.64 0 -474473 1189.35 0 -474377 1187.94 0 -474282 1186.43 0 -474186 1184.8 0 -474091 1183.08 0 -473996 1181.25 0 -473901 1179.32 0 -473807 1177.3 0 -473712 1175.18 0 -473618 1172.98 0 -473524 1170.69 0 -473430 1168.32 0 -473336 1165.87 0 -473243 1163.34 0 -473149 1160.74 0 -473056 1158.07 0 -472963 1155.33 0 -472871 1152.53 0 -472779 1149.68 0 -472686 1146.76 0 -472595 1143.8 0 -472503 1140.78 0 -472412 1137.72 0 -472321 1134.63 0 -472230 1131.49 0 -472139 1128.32 0 -472049 1125.11 0 -471959 1121.89 0 -471869 1118.63 0 -471780 1115.36 0 -471691 1112.07 0 -471602 1108.77 0 -482456 724.079 0 -482402 736.079 0 -482348 748.047 0 -482293 759.979 0 -482238 771.871 0 -482181 783.717 0 -482123 795.515 0 -482065 807.26 0 -482006 818.947 0 -481945 830.574 0 -481884 842.134 0 -481822 853.626 0 -481760 865.044 0 -481696 876.385 0 -481631 887.644 0 -481566 898.819 0 -481500 909.904 0 -481433 920.897 0 -481365 931.793 0 -481297 942.589 0 -481227 953.282 0 -481157 963.867 0 -481086 974.341 0 -481015 984.702 0 -480942 994.945 0 -480869 1005.07 0 -480795 1015.06 0 -480720 1024.94 0 -480645 1034.68 0 -480569 1044.28 0 -480492 1053.76 0 -480414 1063.09 0 -480336 1072.28 0 -480257 1081.33 0 -480177 1090.23 0 -480097 1098.98 0 -480016 1107.57 0 -479935 1116.02 0 -479853 1124.31 0 -479770 1132.44 0 -479687 1140.4 0 -479603 1148.21 0 -479518 1155.85 0 -479433 1163.33 0 -479348 1170.63 0 -479261 1177.77 0 -479175 1184.73 0 -479088 1191.53 0 -479000 1198.15 0 -478912 1204.59 0 -478823 1210.86 0 -478734 1216.95 0 -478645 1222.86 0 -478555 1228.59 0 -478464 1234.14 0 -478374 1239.51 0 -478282 1244.7 0 -478191 1249.71 0 -478099 1254.54 0 -478007 1259.18 0 -477914 1263.64 0 -477821 1267.92 0 -477728 1272.01 0 -477635 1275.93 0 -477541 1279.66 0 -477447 1283.21 0 -477353 1286.58 0 -477258 1289.76 0 -477163 1292.77 0 -477069 1295.59 0 -476973 1298.24 0 -476878 1300.71 0 -476783 1303 0 -476687 1305.12 0 -476591 1307.06 0 -476495 1308.83 0 -476399 1310.42 0 -476303 1311.85 0 -476207 1313.1 0 -476111 1314.19 0 -476014 1315.11 0 -475918 1315.87 0 -475821 1316.46 0 -475725 1316.9 0 -475628 1317.17 0 -475532 1317.29 0 -475435 1317.26 0 -475339 1317.07 0 -475242 1316.73 0 -475146 1316.25 0 -475050 1315.62 0 -474953 1314.86 0 -474857 1313.95 0 -474761 1312.9 0 -474665 1311.72 0 -474569 1310.42 0 -474473 1308.98 0 -474377 1307.42 0 -474282 1305.74 0 -474186 1303.93 0 -474091 1302.02 0 -473996 1299.99 0 -473901 1297.85 0 -473806 1295.61 0 -473711 1293.27 0 -473617 1290.82 0 -473523 1288.29 0 -473429 1285.66 0 -473335 1282.94 0 -473241 1280.14 0 -473148 1277.26 0 -473055 1274.3 0 -472962 1271.27 0 -472869 1268.17 0 -472777 1265.01 0 -472685 1261.78 0 -472593 1258.5 0 -472501 1255.17 0 -472410 1251.78 0 -472318 1248.35 0 -472227 1244.88 0 -472137 1241.37 0 -472047 1237.82 0 -471957 1234.25 0 -471867 1230.65 0 -471777 1227.03 0 -471688 1223.39 0 -471599 1219.74 0 -482473 789.978 0 -482420 803.097 0 -482365 816.181 0 -482311 829.226 0 -482255 842.226 0 -482198 855.178 0 -482140 868.076 0 -482082 880.916 0 -482022 893.694 0 -481962 906.404 0 -481901 919.044 0 -481839 931.607 0 -481776 944.089 0 -481712 956.488 0 -481648 968.797 0 -481582 981.013 0 -481516 993.132 0 -481449 1005.15 0 -481381 1017.06 0 -481313 1028.86 0 -481243 1040.55 0 -481173 1052.12 0 -481102 1063.57 0 -481030 1074.9 0 -480957 1086.1 0 -480884 1097.16 0 -480810 1108.09 0 -480735 1118.88 0 -480659 1129.53 0 -480583 1140.03 0 -480506 1150.38 0 -480428 1160.58 0 -480350 1170.63 0 -480271 1180.51 0 -480191 1190.24 0 -480111 1199.8 0 -480030 1209.2 0 -479948 1218.43 0 -479866 1227.49 0 -479783 1236.37 0 -479699 1245.08 0 -479615 1253.61 0 -479530 1261.95 0 -479445 1270.12 0 -479359 1278.1 0 -479273 1285.9 0 -479186 1293.51 0 -479099 1300.93 0 -479011 1308.16 0 -478922 1315.2 0 -478833 1322.05 0 -478744 1328.7 0 -478654 1335.15 0 -478564 1341.41 0 -478474 1347.47 0 -478383 1353.34 0 -478291 1359.01 0 -478200 1364.47 0 -478107 1369.74 0 -478015 1374.81 0 -477922 1379.68 0 -477829 1384.35 0 -477736 1388.82 0 -477642 1393.09 0 -477548 1397.16 0 -477454 1401.03 0 -477359 1404.7 0 -477265 1408.17 0 -477170 1411.45 0 -477074 1414.53 0 -476979 1417.41 0 -476883 1420.1 0 -476788 1422.6 0 -476692 1424.9 0 -476596 1427.01 0 -476500 1428.93 0 -476404 1430.66 0 -476307 1432.21 0 -476211 1433.57 0 -476114 1434.75 0 -476018 1435.74 0 -475921 1436.56 0 -475824 1437.19 0 -475728 1437.65 0 -475631 1437.94 0 -475534 1438.06 0 -475437 1438.01 0 -475341 1437.79 0 -475244 1437.41 0 -475147 1436.87 0 -475051 1436.17 0 -474954 1435.31 0 -474858 1434.31 0 -474762 1433.15 0 -474665 1431.85 0 -474569 1430.4 0 -474473 1428.82 0 -474377 1427.09 0 -474282 1425.24 0 -474186 1423.25 0 -474091 1421.14 0 -473995 1418.91 0 -473900 1416.56 0 -473805 1414.09 0 -473710 1411.51 0 -473616 1408.82 0 -473522 1406.03 0 -473427 1403.14 0 -473333 1400.15 0 -473240 1397.08 0 -473146 1393.91 0 -473053 1390.66 0 -472960 1387.33 0 -472867 1383.92 0 -472775 1380.45 0 -472682 1376.9 0 -472590 1373.3 0 -472499 1369.63 0 -472407 1365.92 0 -472316 1362.15 0 -472225 1358.33 0 -472134 1354.48 0 -472044 1350.59 0 -471954 1346.66 0 -471864 1342.71 0 -471775 1338.74 0 -471685 1334.74 0 -471596 1330.73 0 -482491 855.895 0 -482438 870.141 0 -482384 884.349 0 -482329 898.514 0 -482273 912.631 0 -482216 926.695 0 -482159 940.701 0 -482100 954.644 0 -482041 968.519 0 -481980 982.321 0 -481919 996.045 0 -481857 1009.69 0 -481794 1023.24 0 -481730 1036.7 0 -481666 1050.07 0 -481600 1063.33 0 -481534 1076.49 0 -481467 1089.54 0 -481399 1102.48 0 -481330 1115.29 0 -481260 1127.98 0 -481190 1140.55 0 -481119 1152.98 0 -481047 1165.27 0 -480974 1177.43 0 -480900 1189.44 0 -480826 1201.31 0 -480751 1213.02 0 -480675 1224.58 0 -480599 1235.98 0 -480522 1247.22 0 -480444 1258.3 0 -480365 1269.2 0 -480286 1279.93 0 -480206 1290.49 0 -480125 1300.87 0 -480044 1311.07 0 -479962 1321.09 0 -479880 1330.92 0 -479796 1340.56 0 -479713 1350.01 0 