<?xml version="1.0"?> 
<VTKFile type="StructuredGrid" version="0.1"> 
<StructuredGrid WholeExtent="0 127 0 127 0 0"> 
<Piece Extent="0 127 0 127 0 0"> 
<PointData>
<DataArray type="Float32" Name="E" format="ascii" NumberOfComponents="3"> 
-140950 0 0 -127818 6.8685e-09 0 -124289 -6.69388e-09 0 -122274 2.03727e-09 0 -121055 -4.07454e-10 0 -120167 -2.85218e-09 0 -119512 -1.39698e-09 0 -119005 1.5134e-09 0 -118608 -8.14907e-10 0 -118296 -9.31323e-10 0 -118049 1.28057e-09 0 -117858 -5.82077e-09 0 -117712 9.31323e-09 0 -117605 -8.3819e-09 0 -117532 8.61473e-09 0 -117490 -1.04774e-08 0 -117476 2.32831e-09 0 -117486 -2.32831e-10 0 -117519 9.31323e-10 0 -117574 -2.79397e-09 0 -117648 -2.32831e-10 0 -117742 -1.39698e-09 0 -117853 0 0 -117982 0 0 -118127 4.65661e-10 0 -118289 -4.65661e-10 0 -118466 9.31323e-10 0 -118658 4.65661e-10 0 -118865 -1.39698e-09 0 -119087 0 0 -119324 1.39698e-09 0 -119575 3.72529e-09 0 -119840 -1.39698e-09 0 -120120 3.72529e-09 0 -120414 4.65661e-10 0 -120722 -4.65661e-10 0 -121044 9.31323e-10 0 -121381 -9.31323e-10 0 -121733 -4.65661e-10 0 -122099 0 0 -122479 -1.86265e-09 0 -122875 0 0 -123285 -9.31323e-10 0 -123711 9.31323e-10 0 -124153 -1.86265e-09 0 -124610 0 0 -125083 0 0 -125572 0 0 -126078 0 0 -126600 0 0 -127140 0 0 -127698 9.31323e-10 0 -128273 0 0 -128867 9.31323e-10 0 -129480 -9.31323e-10 0 -130112 0 0 -130764 0 0 -131436 0 0 -132129 9.31323e-10 0 -132843 9.31323e-10 0 -133579 0 0 -134338 -9.31323e-10 0 -135120 9.31323e-10 0 -135926 0 0 -136756 -1.86265e-09 0 -137612 1.86265e-09 0 -138494 -9.31323e-10 0 -139403 0 0 -140340 0 0 -141306 -9.31323e-10 0 -142301 0 0 -143328 0 0 -144386 0 0 -145478 9.31323e-10 0 -146603 0 0 -147765 0 0 -148963 -9.31323e-10 0 -150200 1.86265e-09 0 -151476 -3.72529e-09 0 -152794 2.79397e-09 0 -154156 9.31323e-10 0 -155563 -1.86265e-09 0 -157017 1.86265e-09 0 -158520 0 0 -160074 -1.86265e-09 0 -161683 3.72529e-09 0 -163348 -3.72529e-09 0 -165073 3.72529e-09 0 -166860 -1.86265e-09 0 -168712 0 0 -170634 -1.86265e-09 0 -172629 0 0 -174700 -1.86265e-09 0 -176854 0 0 -179094 -1.86265e-09 0 -181425 0 0 -183855 0 0 -186388 3.72529e-09 0 -189033 0 0 -191798 3.72529e-09 0 -194690 -7.45058e-09 0 -197720 1.86265e-09 0 -200900 -1.86265e-09 0 -204240 3.72529e-09 0 -207756 -5.58794e-09 0 -211464 7.45058e-09 0 -215380 -7.45058e-09 0 -219527 1.30385e-08 0 -223929 -7.45058e-09 0 -228613 5.58794e-09 0 -233613 1.86265e-09 0 -238968 0 0 -244726 -7.45058e-09 0 -250942 5.58794e-09 0 -257689 -3.72529e-09 0 -265052 3.72529e-09 0 -273142 -1.86265e-09 0 -282102 1.86265e-09 0 -292122 -9.31323e-09 0 -303460 1.67638e-08 0 -316472 -1.86265e-08 0 -331715 1.30385e-08 0 -349956 -7.45058e-09 0 -372807 3.72529e-09 0 -402303 0 0 -446405 1.86265e-09 0 -518138 -5.58794e-09 0 -740169 1.11759e-08 0 -125616 9152.35 0 -125817 3699.48 0 -123504 2157.08 0 -122002 1370.51 0 -120877 978.814 0 -120065 725.566 0 -119438 558.506 0 -118952 436.902 0 -118567 345.262 0 -118263 273.014 0 -118023 214.382 0 -117835 165.495 0 -117692 123.843 0 -117588 87.6758 0 -117517 55.755 0 -117477 27.1759 0 -117463 1.2641 0 -117474 -22.4942 0 -117508 -44.497 0 -117564 -65.0573 0 -117639 -84.4253 0 -117733 -102.803 0 -117844 -120.357 0 -117973 -137.223 0 -118119 -153.518 0 -118280 -169.337 0 -118458 -184.764 0 -118650 -199.87 0 -118857 -214.718 0 -119079 -229.362 0 -119316 -243.85 0 -119567 -258.226 0 -119832 -272.528 0 -120112 -286.791 0 -120406 -301.049 0 -120714 -315.33 0 -121037 -329.662 0 -121373 -344.072 0 -121725 -358.584 0 -122091 -373.222 0 -122471 -388.007 0 -122867 -402.962 0 -123277 -418.108 0 -123703 -433.465 0 -124144 -449.055 0 -124601 -464.896 0 -125074 -481.01 0 -125563 -497.417 0 -126068 -514.136 0 -126591 -531.189 0 -127131 -548.597 0 -127688 -566.381 0 -128263 -584.562 0 -128857 -603.164 0 -129469 -622.209 0 -130101 -641.722 0 -130753 -661.727 0 -131424 -682.25 0 -132117 -703.319 0 -132831 -724.961 0 -133567 -747.206 0 -134325 -770.085 0 -135107 -793.63 0 -135912 -817.876 0 -136742 -842.86 0 -137598 -868.618 0 -138479 -895.193 0 -139388 -922.626 0 -140324 -950.965 0 -141289 -980.257 0 -142284 -1010.55 0 -143310 -1041.91 0 -144368 -1074.39 0 -145459 -1108.06 0 -146584 -1142.98 0 -147744 -1179.22 0 -148942 -1216.87 0 -150178 -1256.02 0 -151453 -1296.74 0 -152771 -1339.16 0 -154131 -1383.37 0 -155537 -1429.48 0 -156989 -1477.65 0 -158491 -1527.99 0 -160045 -1580.67 0 -161652 -1635.85 0 -163316 -1693.73 0 -165039 -1754.5 0 -166824 -1818.39 0 -168675 -1885.65 0 -170594 -1956.56 0 -172587 -2031.42 0 -174656 -2110.58 0 -176807 -2194.42 0 -179044 -2283.38 0 -181373 -2377.95 0 -183799 -2478.67 0 -186328 -2586.17 0 -188969 -2701.16 0 -191729 -2824.46 0 -194616 -2957.01 0 -197641 -3099.89 0 -200814 -3254.37 0 -204147 -3421.92 0 -207655 -3604.27 0 -211353 -3803.49 0 -215259 -4022 0 -219393 -4262.77 0 -223780 -4529.35 0 -228448 -4826.12 0 -233427 -5158.48 0 -238759 -5533.17 0 -244487 -5958.78 0 -250668 -6446.32 0 -257370 -7010.19 0 -264677 -7669.58 0 -272696 -8450.56 0 -281561 -9389.65 0 -291453 -10538.8 0 -302609 -11976.8 0 -315367 -13820.8 0 -330185 -16277.6 0 -347828 -19656.8 0 -369268 -24709.2 0 -396831 -32463.4 0 -432345 -47335.5 0 -483496 -75827.4 0 -506986 -168723 0 -123228 7640.21 0 -122890 5340.34 0 -122198 3502.92 0 -121250 2473.03 0 -120443 1810.42 0 -119772 1378.69 0 -119234 1071.97 0 -118799 846.078 0 -118449 671.765 0 -118168 533.046 0 -117944 419.381 0 -117769 324.046 0 -117635 242.418 0 -117538 171.281 0 -117472 108.313 0 -117436 51.8083 0 -117426 0.482277 0 -117440 -46.6486 0 -117476 -90.3504 0 -117533 -131.228 0 -117610 -169.768 0 -117705 -206.363 0 -117818 -241.337 0 -117948 -274.959 0 -118094 -307.453 0 -118256 -339.011 0 -118434 -369.795 0 -118626 -399.947 0 -118834 -429.589 0 -119056 -458.83 0 -119293 -487.764 0 -119544 -516.477 0 -119810 -545.047 0 -120089 -573.542 0 -120383 -602.028 0 -120691 -630.562 0 -121013 -659.202 0 -121350 -687.997 0 -121701 -716.997 0 -122067 -746.25 0 -122447 -775.798 0 -122842 -805.687 0 -123252 -835.958 0 -123677 -866.652 0 -124118 -897.81 0 -124574 -929.472 0 -125047 -961.679 0 -125535 -994.471 0 -126040 -1027.89 0 -126562 -1061.97 0 -127101 -1096.77 0 -127658 -1132.31 0 -128233 -1168.65 0 -128826 -1205.83 0 -129437 -1243.89 0 -130068 -1282.89 0 -130719 -1322.88 0 -131390 -1363.9 0 -132081 -1406 0 -132794 -1449.26 0 -133529 -1493.71 0 -134287 -1539.44 0 -135067 -1586.49 0 -135871 -1634.95 0 -136700 -1684.87 0 -137554 -1736.35 0 -138434 -1789.45 0 -139342 -1844.27 0 -140276 -1900.9 0 -141240 -1959.43 0 -142233 -2019.96 0 -143257 -2082.62 0 -144313 -2147.51 0 -145402 -2214.77 0 -146525 -2284.53 0 -147683 -2356.94 0 -148878 -2432.15 0 -150112 -2510.34 0 -151385 -2591.69 0 -152699 -2676.41 0 -154057 -2764.7 0 -155459 -2856.8 0 -156909 -2952.98 0 -158407 -3053.5 0 -159957 -3158.69 0 -161560 -3268.86 0 -163219 -3384.4 0 -164937 -3505.71 0 -166718 -3633.23 0 -168563 -3767.47 0 -170476 -3908.97 0 -172462 -4058.34 0 -174525 -4216.26 0 -176668 -4383.51 0 -178896 -4560.93 0 -181216 -4749.49 0 -183632 -4950.29 0 -186150 -5164.56 0 -188779 -5393.71 0 -191525 -5639.35 0 -194397 -5903.34 0 -197405 -6187.82 0 -200559 -6495.28 0 -203871 -6828.62 0 -207354 -7191.24 0 -211024 -7587.18 0 -214898 -8021.24 0 -218996 -8499.17 0 -223340 -9027.93 0 -227957 -9616.02 0 -232878 -10273.9 0 -238138 -11014.7 0 -243782 -11854.9 0 -249859 -12815.6 0 -256432 -13924.3 0 -263577 -15217.1 0 -271387 -16743.2 0 -279980 -18569.8 0 -289506 -20792.8 0 -300158 -23550.4 0 -312183 -27055.5 0 -325922 -31631.1 0 -341781 -37845.1 0 -360357 -46579.9 0 -381939 -59786.4 0 -406690 -80256.9 0 -428747 -115836 0 -442107 -165196 0 -120857 7366.13 0 -121181 5609.14 0 -120874 4223.36 0 -120387 3181.28 0 -119850 2444.1 0 -119357 1908.21 0 -118927 1510.68 0 -118565 1205.35 0 -118264 964.372 0 -118017 768.941 0 -117819 606.782 0 -117662 469.413 0 -117542 350.921 0 -117456 247.053 0 -117399 154.691 0 -117370 71.504 0 -117365 -4.28303 0 -117383 -74.0438 0 -117423 -138.857 0 -117483 -199.582 0 -117562 -256.911 0 -117659 -311.41 0 -117774 -363.544 0 -117905 -413.701 0 -118053 -462.21 0 -118216 -509.348 0 -118394 -555.352 0 -118587 -600.431 0 -118795 -644.762 0 -119018 -688.506 0 -119255 -731.803 0 -119506 -774.778 0 -119772 -817.546 0 -120051 -860.21 0 -120345 -902.865 0 -120653 -945.599 0 -120975 -988.493 0 -121311 -1031.63 0 -121661 -1075.07 0 -122027 -1118.89 0 -122406 -1163.16 0 -122801 -1207.94 0 -123210 -1253.29 0 -123635 -1299.28 0 -124075 -1345.97 0 -124531 -1393.41 0 -125002 -1441.67 0 -125490 -1490.8 0 -125994 -1540.87 0 -126515 -1591.95 0 -127053 -1644.08 0 -127608 -1697.34 0 -128182 -1751.79 0 -128774 -1807.5 0 -129384 -1864.54 0 -130014 -1922.97 0 -130663 -1982.88 0 -131332 -2044.33 0 -132022 -2107.42 0 -132734 -2172.22 0 -133467 -2238.83 0 -134222 -2307.33 0 -135001 -2377.82 0 -135803 -2450.41 0 -136630 -2525.2 0 -137482 -2602.3 0 -138360 -2681.84 0 -139265 -2763.95 0 -140197 -2848.76 0 -141158 -2936.42 0 -142149 -3027.08 0 -143170 -3120.91 0 -144222 -3218.09 0 -145308 -3318.79 0 -146427 -3423.24 0 -147582 -3531.65 0 -148773 -3644.24 0 -150003 -3761.29 0 -151271 -3883.05 0 -152581 -4009.84 0 -153934 -4141.97 0 -155331 -4279.8 0 -156775 -4423.7 0 -158267 -4574.09 0 -159811 -4731.43 0 -161407 -4896.22 0 -163059 -5069 0 -164769 -5250.38 0 -166541 -5441.02 0 -168377 -5641.67 0 -170281 -5853.12 0 -172256 -6076.3 0 -174307 -6312.2 0 -176437 -6561.97 0 -178652 -6826.86 0 -180956 -7108.31 0 -183355 -7407.91 0 -185855 -7727.51 0 -188464 -8069.16 0 -191187 -8435.25 0 -194035 -8828.5 0 -197014 -9252.05 0 -200137 -9709.53 0 -203414 -10205.2 0 -206857 -10744 0 -210482 -11331.8 0 -214303 -11975.6 0 -218341 -12683.6 0 -222616 -13466 0 -227151 -14334.8 0 -231976 -15305.1 0 -237122 -16395.5 0 -242628 -17629.1 0 -248539 -19035.5 0 -254906 -20652.8 0 -261794 -22530.5 0 -269279 -24734.8 0 -277451 -27355 0 -286419 -30514.7 0 -296312 -34389.1 0 -307284 -39230.7 0 -319490 -45419.5 0 -333082 -53521.5 0 -348047 -64448.3 0 -364082 -79500.9 0 -379625 -100724 0 -391944 -129542 0 -393747 -166354 0 -119646 6825.29 0 -119827 5649.83 0 -119783 4525.71 0 -119538 3606.3 0 -119215 2876.02 0 -118875 2307.32 0 -118555 1859.91 0 -118271 1503.1 0 -118026 1213.04 0 -117820 972.849 0 -117652 770.308 0 -117518 596.629 0 -117417 445.38 0 -117344 311.797 0 -117299 192.299 0 -117278 84.1506 0 -117281 -14.7656 0 -117305 -106.11 0 -117350 -191.202 0 -117414 -271.102 0 -117496 -346.672 0 -117596 -418.622 0 -117713 -487.538 0 -117846 -553.914 0 -117995 -618.167 0 -118159 -680.653 0 -118339 -741.677 0 -118533 -801.506 0 -118741 -860.373 0 -118964 -918.483 0 -119202 -976.019 0 -119453 -1033.14 0 -119718 -1090.01 0 -119998 -1146.75 0 -120291 -1203.49 0 -120599 -1260.34 0 -120920 -1317.41 0 -121256 -1374.81 0 -121606 -1432.62 0 -121971 -1490.94 0 -122350 -1549.87 0 -122743 -1609.47 0 -123152 -1669.85 0 -123576 -1731.07 0 -124015 -1793.22 0 -124469 -1856.38 0 -124940 -1920.63 0 -125426 -1986.05 0 -125929 -2052.71 0 -126448 -2120.71 0 -126985 -2190.11 0 -127539 -2261.02 0 -128111 -2333.51 0 -128701 -2407.68 0 -129310 -2483.61 0 -129937 -2561.4 0 -130585 -2641.15 0 -131252 -2722.96 0 -131940 -2806.94 0 -132649 -2893.2 0 -133380 -2981.86 0 -134133 -3073.03 0 -134909 -3166.85 0 -135708 -3263.46 0 -136532 -3362.99 0 -137381 -3465.6 0 -138256 -3571.44 0 -139157 -3680.7 0 -140086 -3793.54 0 -141043 -3910.17 0 -142030 -4030.78 0 -143047 -4155.6 0 -144095 -4284.85 0 -145176 -4418.8 0 -146291 -4557.71 0 -147441 -4701.86 0 -148627 -4851.58 0 -149850 -5007.19 0 -151113 -5169.06 0 -152416 -5337.59 0 -153762 -5513.19 0 -155152 -5696.34 0 -156588 -5887.53 0 -158072 -6087.31 0 -159607 -6296.29 0 -161193 -6515.12 0 -162835 -6744.53 0 -164535 -6985.29 0 -166294 -7238.3 0 -168118 -7504.51 0 -170008 -7784.99 0 -171968 -8080.93 0 -174003 -8393.66 0 -176115 -8724.64 0 -178311 -9075.54 0 -180594 -9448.21 0 -182970 -9844.76 0 -185445 -10267.6 0 -188026 -10719.3 0 -190718 -11203 0 -193531 -11722.4 0 -196473 -12281.3 0 -199552 -12884.4 0 -202780 -13537.4 0 -206169 -14246.4 0 -209732 -15019 0 -213483 -15864.1 0 -217439 -16792.1 0 -221619 -17815.7 0 -226044 -18950.2 0 -230740 -20214.3 0 -235733 -21630.8 0 -241057 -23228.2 0 -246746 -25042.3 0 -252845 -27118.5 0 -259400 -29515.4 0 -266466 -32309.1 0 -274106 -35600.5 0 -282385 -39524.8 0 -291369 -44265.8 0 -301114 -50077.6 0 -311643 -57310.3 0 -322883 -66455.1 0 -334588 -78157.7 0 -346087 -93262.6 0 -356175 -112487 0 -362515 -136287 0 -363595 -162477 0 -118573 6500.64 0 -118824 5539.72 0 -118864 4636.46 0 -118769 3831.75 0 -118589 3151.49 0 -118371 2587.01 0 -118148 2121.7 0 -117937 1736.13 0 -117748 1413.59 0 -117586 1140.42 0 -117451 906.032 0 -117343 702.265 0 -117262 522.875 0 -117206 363.052 0 -117174 219.069 0 -117164 88.0118 0 -117175 -32.4225 0 -117207 -144.07 0 -117257 -248.411 0 -117326 -346.65 0 -117412 -439.774 0 -117516 -528.603 0 -117635 -613.824 0 -117771 -696.014 0 -117921 -775.666 0 -118087 -853.202 0 -118268 -928.987 0 -118463 -1003.34 0 -118672 -1076.54 0 -118896 -1148.84 0 -119133 -1220.45 0 -119385 -1291.58 0 -119650 -1362.41 0 -119930 -1433.1 0 -120223 -1503.81 0 -120530 -1574.67 0 -120851 -1645.82 0 -121186 -1717.39 0 -121535 -1789.48 0 -121899 -1862.22 0 -122277 -1935.71 0 -122670 -2010.06 0 -123077 -2085.37 0 -123500 -2161.74 0 -123937 -2239.28 0 -124391 -2318.07 0 -124859 -2398.23 0 -125344 -2479.84 0 -125846 -2563.02 0 -126363 -2647.85 0 -126898 -2734.44 0 -127450 -2822.91 0 -128020 -2913.35 0 -128608 -3005.87 0 -129214 -3100.6 0 -129839 -3197.65 0 -130484 -3297.13 0 -131149 -3399.18 0 -131834 -3503.94 0 -132540 -3611.53 0 -133268 -3722.11 0 -134018 -3835.82 0 -134790 -3952.83 0 -135586 -4073.31 0 -136407 -4197.42 0 -137252 -4325.37 0 -138122 -4457.34 0 -139019 -4593.55 0 -139944 -4734.23 0 -140896 -4879.6 0 -141878 -5029.94 0 -142890 -5185.49 0 -143933 -5346.57 0 -145008 -5513.47 0 -146116 -5686.53 0 -147259 -5866.12 0 -148438 -6052.6 0 -149655 -6246.4 0 -150910 -6447.97 0 -152205 -6657.79 0 -153542 -6876.39 0 -154923 -7104.33 0 -156349 -7342.24 0 -157822 -7590.8 0 -159345 -7850.74 0 -160920 -8122.86 0 -162549 -8408.07 0 -164234 -8707.32 0 -165979 -9021.69 0 -167786 -9352.36 0 -169659 -9700.64 0 -171601 -10068 0 -173615 -10456 0 -175705 -10866.5 0 -177876 -11301.5 0 -180133 -11763.3 0 -182480 -12254.3 0 -184923 -12777.5 0 -187468 -13336.2 0 -190122 -13934 0 -192891 -14575.3 0 -195785 -15264.7 0 -198810 -16008.1 0 -201978 -16811.8 0 -205298 -17683.5 0 -208783 -18631.9 0 -212446 -19667.5 0 -216301 -20802.7 0 -220365 -22052.2 0 -224656 -23433.6 0 -229194 -24968.3 0 -234002 -26682.2 0 -239105 -28607.5 0 -244531 -30783.6 0 -250311 -33260.3 0 -256477 -36100.1 0 -263063 -39382.7 0 -270103 -43210.6 0 -277622 -47716.6 0 -285635 -53073.2 0 -294126 -59504.3 0 -303022 -67298.9 0 -312150 -76814.3 0 -321158 -88471.5 0 -329440 -102669 0 -336012 -119659 0 -339746 -139121 0 -339245 -160164 0 -117776 6173.53 0 -117994 5399.1 0 -118093 4636.31 0 -118082 3934.48 0 -117999 3310.62 0 -117872 2769.76 0 -117728 2305.54 0 -117582 1908.02 0 -117445 1566.32 0 -117325 1270.54 0 -117223 1012.23 0 -117142 784.454 0 -117083 581.593 0 -117044 399.148 0 -117026 233.511 0 -117028 81.7802 0 -117049 -58.3896 0 -117089 -188.905 0 -117146 -311.327 0 -117220 -426.944 0 -117311 -536.827 0 -117418 -641.871 0 -117541 -742.835 0 -117679 -840.361 0 -117832 -935.002 0 -118000 -1027.23 0 -118182 -1117.47 0 -118378 -1206.07 0 -118588 -1293.37 0 -118812 -1379.63 0 -119050 -1465.13 0 -119302 -1550.09 0 -119567 -1634.72 0 -119846 -1719.21 0 -120139 -1803.75 0 -120446 -1888.49 0 -120766 -1973.59 0 -121101 -2059.21 0 -121449 -2145.47 0 -121812 -2232.51 0 -122189 -2320.47 0 -122580 -2409.45 0 -122986 -2499.6 0 -123407 -2591.02 0 -123843 -2683.84 0 -124295 -2778.17 0 -124762 -2874.13 0 -125245 -2971.84 0 -125744 -3071.41 0 -126259 -3172.97 0 -126792 -3276.65 0 -127342 -3382.56 0 -127909 -3490.83 0 -128494 -3601.6 0 -129098 -3714.99 0 -129720 -3831.17 0 -130362 -3950.25 0 -131023 -4072.41 0 -131705 -4197.79 0 -132408 -4326.57 0 -133132 -4458.91 0 -133878 -4594.99 0 -134646 -4735.01 0 -135438 -4879.17 0 -136254 -5027.67 0 -137094 -5180.74 0 -137960 -5338.62 0 -138852 -5501.55 0 -139771 -5669.81 0 -140717 -5843.67 0 -141693 -6023.44 0 -142698 -6209.44 0 -143735 -6402.01 0 -144803 -6601.52 0 -145904 -6808.37 0 -147039 -7022.97 0 -148210 -7245.79 0 -149417 -7477.31 0 -150663 -7718.07 0 -151948 -7968.64 0 -153274 -8229.63 0 -154644 -8501.73 0 -156058 -8785.66 0 -157519 -9082.22 0 -159028 -9392.28 0 -160588 -9716.79 0 -162201 -10056.8 0 -163870 -10413.4 0 -165597 -10787.9 0 -167384 -11181.7 0 -169236 -11596.3 0 -171155 -12033.4 0 -173144 -12494.9 0 -175208 -12982.8 0 -177350 -13499.6 0 -179575 -14047.8 0 -181887 -14630.4 0 -184292 -15250.7 0 -186795 -15912.5 0 -189402 -16620.1 0 -192120 -17378.2 0 -194956 -18192.6 0 -197918 -19069.5 0 -201014 -20016.3 0 -204254 -21041.5 0 -207648 -22155.2 0 -211207 -23368.9 0 -214945 -24696.4 0 -218873 -26153.8 0 -223008 -27760.5 0 -227365 -29539.5 0 -231962 -31518.7 0 -236816 -33731.8 0 -241947 -36220.2 0 -247375 -39034.5 0 -253117 -42237.1 0 -259189 -45906 0 -265598 -50137.6 0 -272342 -55052.4 0 -279395 -60799.4 0 -286695 -67560.4 0 -294122 -75550.1 0 -301466 -85008.6 0 -308389 -96168.2 0 -314385 -109199 0 -318808 -124070 0 -320897 -140484 0 -320170 -157567 0 -117086 5900.41 0 -117304 5234.87 0 -117426 4579.09 0 -117469 3957.63 0 -117450 3387.99 0 -117391 2876.91 0 -117308 2424.28 0 -117217 2025.59 0 -117126 1674.55 0 -117044 1364.45 0 -116975 1089.02 0 -116921 842.694 0 -116883 620.744 0 -116862 419.187 0 -116859 234.715 0 -116873 64.5881 0 -116905 -93.4662 0 -116953 -241.334 0 -117017 -380.587 0 -117098 -512.544 0 -117194 -638.315 0 -117305 -758.84 0 -117432 -874.922 0 -117573 -987.248 0 -117728 -1096.41 0 -117897 -1202.94 0 -118081 -1307.27 0 -118278 -1409.82 0 -118490 -1510.92 0 -118714 -1610.91 0 -118953 -1710.07 0 -119204 -1808.65 0 -119470 -1906.89 0 -119749 -2005.01 0 -120041 -2103.21 0 -120347 -2201.67 0 -120667 -2300.59 0 -121000 -2400.11 0 -121347 -2500.41 0 -121709 -2601.62 0 -122084 -2703.91 0 -122474 -2807.42 0 -122879 -2912.27 0 -123298 -3018.62 0 -123732 -3126.6 0 -124182 -3236.35 0 -124647 -3347.99 0 -125127 -3461.67 0 -125624 -3577.52 0 -126137 -3695.69 0 -126667 -3816.31 0 -127214 -3939.53 0 -127778 -4065.49 0 -128360 -4194.36 0 -128960 -4326.29 0 -129579 -4461.43 0 -130218 -4599.96 0 -130875 -4742.05 0 -131553 -4887.9 0 -132251 -5037.67 0 -132971 -5191.58 0 -133712 -5349.84 0 -134476 -5512.66 0 -135263 -5680.27 0 -136073 -5852.93 0 -136908 -6030.88 0 -137768 -6214.4 0 -138654 -6403.77 0 -139567 -6599.32 0 -140507 -6801.35 0 -141475 -7010.22 0 -142473 -7226.29 0 -143501 -7449.97 0 -144561 -7681.68 0 -145653 -7921.86 0 -146779 -8171.01 0 -147940 -8429.65 0 -149137 -8698.35 0 -150372 -8977.7 0 -151646 -9268.37 0 -152960 -9571.06 0 -154316 -9886.55 0 -155716 -10215.7 0 -157162 -10559.3 0 -158656 -10918.5 0 -160199 -11294.3 0 -161794 -11688 0 -163443 -12100.7 0 -165148 -12533.9 0 -166913 -12989.2 0 -168740 -13468.3 0 -170633 -13973.2 0 -172594 -14506 0 -174626 -15069 0 -176735 -15664.8 0 -178923 -16296.4 0 -181195 -16967.2 0 -183555 -17680.8 0 -186010 -18441.3 0 -188564 -19253.7 0 -191223 -20123.1 0 -193993 -21055.7 0 -196882 -22058.6 0 -199897 -23139.8 0 -203046 -24308.6 0 -206337 -25575.7 0 -209781 -26953.6 0 -213387 -28456.9 0 -217165 -30102.7 0 -221127 -31911.2 0 -225286 -33906.4 0 -229652 -36116.7 0 -234237 -38576.1 0 -239054 -41325.6 0 -244110 -44414.4 0 -249411 -47901.7 0 -254958 -51859.4 0 -260739 -56373.4 0 -266730 -61546.7 0 -272880 -67500.1 0 -279104 -74371.2 0 -285265 -82309.4 0 -291159 -91460.3 0 -296494 -101939 0 -300889 -113780 0 -303894 -126879 0 -305079 -140923 0 -304084 -155392 0 -116500 5646.78 0 -116705 5066.28 0 -116842 4487.31 0 -116917 3930.21 0 -116943 3407.55 0 -116931 2926.87 0 -116897 2490.39 0 -116850 2096.91 0 -116799 1743.15 0 -116752 1424.91 0 -116712 1137.79 0 -116682 877.551 0 -116665 640.39 0 -116663 422.941 0 -116674 222.3 0 -116701 35.9823 0 -116743 -138.125 0 -116800 -301.818 0 -116872 -456.624 0 -116959 -603.845 0 -117061 -744.591 0 -117177 -879.818 0 -117307 -1010.35 0 -117451 -1136.9 0 -117609 -1260.09 0 -117780 -1380.46 0 -117966 -1498.51 0 -118164 -1614.64 0 -118376 -1729.26 0 -118602 -1842.69 0 -118840 -1955.24 0 -119092 -2067.21 0 -119358 -2178.85 0 -119636 -2290.4 0 -119928 -2402.08 0 -120233 -2514.1 0 -120552 -2626.65 0 -120884 -2739.93 0 -121231 -2854.1 0 -121590 -2969.35 0 -121964 -3085.83 0 -122353 -3203.7 0 -122755 -3323.13 0 -123173 -3444.27 0 -123605 -3567.27 0 -124052 -3692.29 0 -124514 -3819.48 0 -124992 -3948.98 0 -125486 -4080.97 0 -125996 -4215.59 0 -126523 -4353.01 0 -127067 -4493.38 0 -127627 -4636.89 0 -128206 -4783.69 0 -128802 -4933.97 0 -129418 -5087.91 0 -130051 -5245.7 0 -130705 -5407.54 0 -131378 -5573.64 0 -132072 -5744.21 0 -132786 -5919.47 0 -133523 -6099.67 0 -134281 -6285.04 0 -135062 -6475.86 0 -135866 -6672.4 0 -136695 -6874.94 0 -137548 -7083.8 0 -138427 -7299.3 0 -139332 -7521.78 0 -140264 -7751.62 0 -141225 -7989.2 0 -142214 -8234.94 0 -143234 -8489.28 0 -144284 -8752.71 0 -145366 -9025.73 0 -146482 -9308.88 0 -147631 -9602.75 0 -148816 -9907.98 0 -150039 -10225.2 0 -151299 -10555.3 0 -152599 -10898.9 0 -153940 -11256.9 0 -155325 -11630.3 0 -156753 -12020 0 -158229 -12427.2 0 -159753 -12853.1 0 -161327 -13299 0 -162954 -13766.3 0 -164635 -14256.6 0 -166375 -14771.6 0 -168174 -15313.4 0 -170037 -15883.8 0 -171965 -16485.4 0 -173963 -17120.7 0 -176033 -17792.6 0 -178180 -18504.3 0 -180407 -19259.4 0 -182719 -20062 0 -185119 -20916.4 0 -187613 -21828 0 -190207 -22802.4 0 -192905 -23846.2 0 -195713 -24967 0 -198638 -26173.1 0 -201687 -27474.4 0 -204866 -28882.2 0 -208183 -30409.4 0 -211646 -32071.1 0 -215262 -33884.8 0 -219040 -35870.9 0 -222987 -38053.4 0 -227110 -40460.3 0 -231415 -43124.7 0 -235906 -46085.6 0 -240585 -49388.8 0 -245445 -53088.3 0 -250475 -57247.5 0 -255652 -61939.7 0 -260937 -67248.6 0 -266266 -73267.4 0 -271547 -80094.7 0 -276646 -87827.5 0 -281381 -96546.4 0 -285515 -106293 0 -288765 -117042 0 -290829 -128661 0 -291424 -140903 0 -290374 -153365 0 -115979 5416.23 0 -116175 4895.99 0 -116319 4375.91 0 -116416 3869.29 0 -116471 3386.4 0 -116496 2933.82 0 -116498 2514.78 0 -116487 2129.77 0 -116469 1777.47 0 -116452 1455.44 0 -116438 1160.75 0 -116431 890.337 0 -116434 641.241 0 -116448 410.725 0 -116475 196.329 0 -116514 -4.12454 0 -116566 -192.541 0 -116633 -370.578 0 -116712 -539.676 0 -116806 -701.08 0 -116913 -855.877 0 -117033 -1005.01 0 -117167 -1149.3 0 -117315 -1289.47 0 -117475 -1426.15 0 -117649 -1559.91 0 -117836 -1691.25 0 -118036 -1820.6 0 -118249 -1948.39 0 -118475 -2074.95 0 -118714 -2200.64 0 -118966 -2325.74 0 -119231 -2450.55 0 -119509 -2575.3 0 -119801 -2700.25 0 -120105 -2825.63 0 -120423 -2951.64 0 -120754 -3078.49 0 -121098 -3206.37 0 -121457 -3335.47 0 -121829 -3465.98 0 -122215 -3598.07 0 -122616 -3731.91 0 -123031 -3867.68 0 -123460 -4005.55 0 -123905 -4145.68 0 -124364 -4288.25 0 -124840 -4433.43 0 -125330 -4581.39 0 -125837 -4732.3 0 -126360 -4886.34 0 -126900 -5043.7 0 -127457 -5204.56 0 -128032 -5369.11 0 -128624 -5537.55 0 -129235 -5710.09 0 -129864 -5886.93 0 -130512 -6068.3 0 -131181 -6254.43 0 -131869 -6445.55 0 -132578 -6641.92 0 -133308 -6843.8 0 -134060 -7051.46 0 -134835 -7265.19 0 -135632 -7485.3 0 -136454 -7712.11 0 -137300 -7945.97 0 -138171 -8187.23 0 -139068 -8436.27 0 -139991 -8693.5 0 -140943 -8959.35 0 -141922 -9234.29 0 -142932 -9518.81 0 -143971 -9813.42 0 -145042 -10118.7 0 -146146 -10435.2 0 -147283 -10763.7 0 -148455 -11104.7 0 -149663 -11459.1 0 -150909 -11827.7 0 -152193 -12211.3 0 -153518 -12610.9 0 -154884 -13027.4 0 -156294 -13462.1 0 -157749 -13916.1 0 -159251 -14390.7 0 -160803 -14887.3 0 -162405 -15407.6 0 -164060 -15953.2 0 -165771 -16526 0 -167540 -17128.1 0 -169370 -17761.8 0 -171262 -18429.6 0 -173222 -19134.3 0 -175250 -19878.9 0 -177351 -20666.9 0 -179529 -21502.2 0 -181786 -22389 0 -184127 -23332.2 0 -186557 -24337.1 0 -189079 -25409.8 0 -191698 -26557.2 0 -194419 -27787 0 -197248 -29108 0 -200189 -30530.4 0 -203248 -32065.6 0 -206430 -33726.8 0 -209742 -35529.1 0 -213187 -37489.9 0 -216772 -39629.4 0 -220500 -41970.6 0 -224374 -44540.6 0 -228394 -47370.4 0 -232560 -50496 0 -236863 -53958.8 0 -241293 -57806.4 0 -245830 -62092.5 0 -250441 -66877.3 0 -255080 -72226.5 0 -259681 -78208.6 0 -264151 -84890.8 0 -268370 -92331.6 0 -272183 -100569 0 -275404 -109603 0 -277825 -119381 0 -279236 -129778 0 -279458 -140591 0 -278372 -151537 0 -115510 5201.31 0 -115697 4727.71 0 -115845 4252.57 0 -115954 3786.15 0 -116031 3336.22 0 -116082 2908.52 0 -116112 2506.4 0 -116130 2131.19 0 -116140 1782.73 0 -116147 1459.78 0 -116157 1160.52 0 -116171 882.815 0 -116192 624.448 0 -116222 383.26 0 -116262 157.223 0 -116313 -55.5177 0 -116376 -256.635 0 -116451 -447.622 0 -116538 -629.8 0 -116638 -804.339 0 -116751 -972.271 0 -116876 -1134.51 0 -117014 -1291.85 0 -117165 -1445.03 0 -117328 -1594.66 0 -117504 -1741.32 0 -117693 -1885.51 0 -117894 -2027.7 0 -118108 -2168.3 0 -118335 -2307.68 0 -118574 -2446.2 0 -118826 -2584.17 0 -119091 -2721.87 0 -119369 -2859.6 0 -119659 -2997.6 0 -119962 -3136.12 0 -120279 -3275.38 0 -120609 -3415.61 0 -120952 -3557.01 0 -121308 -3699.79 0 -121678 -3844.15 0 -122062 -3990.27 0 -122460 -4138.36 0 -122873 -4288.58 0 -123300 -4441.14 0 -123741 -4596.22 0 -124198 -4753.99 0 -124670 -4914.66 0 -125157 -5078.41 0 -125660 -5245.42 0 -126179 -5415.9 0 -126715 -5590.05 0 -127268 -5768.06 0 -127838 -5950.16 0 -128426 -6136.55 0 -129031 -6327.46 0 -129655 -6523.12 0 -130298 -6723.78 0 -130961 -6929.69 0 -131643 -7141.1 0 -132346 -7358.3 0 -133070 -7581.56 0 -133815 -7811.2 0 -134582 -8047.53 0 -135372 -8290.88 0 -136186 -8541.6 0 -137023 -8800.07 0 -137886 -9066.69 0 -138773 -9341.86 0 -139688 -9626.03 0 -140629 -9919.68 0 -141598 -10223.3 0 -142596 -10537.4 0 -143624 -10862.7 0 -144683 -11199.6 0 -145773 -11548.8 0 -146897 -11911.1 0 -148054 -12287.2 0 -149247 -12677.9 0 -150476 -13084.1 0 -151743 -13506.7 0 -153049 -13946.8 0 -154396 -14405.4 0 -155785 -14883.7 0 -157218 -15383.1 0 -158697 -15904.9 0 -160223 -16450.7 0 -161798 -17022.2 0 -163425 -17621.1 0 -165104 -18249.6 0 -166840 -18909.7 0 -168634 -19604 0 -170488 -20335.1 0 -172405 -21105.9 0 -174388 -21919.7 0 -176440 -22780.2 0 -178564 -23691.3 0 -180763 -24657.5 0 -183041 -25683.8 0 -185401 -26775.7 0 -187846 -27939.7 0 -190381 -29182.6 0 -193010 -30512.5 0 -195736 -31938.2 0 -198564 -33469.9 0 -201497 -35119.2 0 -204539 -36898.9 0 -207694 -38824.1 0 -210964 -40911.5 0 -214352 -43180.6 0 -217857 -45653.3 0 -221480 -48354.7 0 -225218 -51313.3 0 -229062 -54561.4 0 -233003 -58135.5 0 -237022 -62076 0 -241095 -66427.4 0 -245186 -71237.6 0 -249246 -76556.1 0 -253208 -82431.3 0 -256990 -88906.5 0 -260484 -96013.1 0 -263564 -103762 0 -266084 -112133 0 -267892 -121064 0 -268840 -130442 0 -268808 -140109 0 -267726 -149849 0 -115080 5000.33 0 -115259 4562.35 0 -115407 4122.38 0 -115526 3687.94 0 -115618 3265.22 0 -115687 2858.97 0 -115740 2472.38 0 -115780 2107.11 0 -115812 1763.65 0 -115841 1441.57 0 -115870 1139.82 0 -115903 856.972 0 -115940 591.431 0 -115985 341.537 0 -116038 105.66 0 -116100 -117.747 0 -116173 -330.12 0 -116257 -532.774 0 -116351 -726.901 0 -116458 -913.574 0 -116576 -1093.76 0 -116706 -1268.32 0 -116848 -1438.03 0 -117002 -1603.59 0 -117168 -1765.62 0 -117346 -1924.68 0 -117537 -2081.29 0 -117739 -2235.91 0 -117954 -2388.95 0 -118181 -2540.82 0 -118421 -2691.85 0 -118673 -2842.39 0 -118937 -2992.74 0 -119214 -3143.18 0 -119503 -3293.99 0 -119806 -3445.42 0 -120121 -3597.72 0 -120449 -3751.11 0 -120790 -3905.83 0 -121144 -4062.09 0 -121512 -4220.1 0 -121894 -4380.06 0 -122290 -4542.2 0 -122699 -4706.69 0 -123123 -4873.75 0 -123561 -5043.58 0 -124014 -5216.37 0 -124482 -5392.33 0 -124966 -5571.67 0 -125465 -5754.58 0 -125980 -5941.29 0 -126512 -6132.01 0 -127060 -6326.96 0 -127625 -6526.37 0 -128207 -6730.47 0 -128807 -6939.52 0 -129426 -7153.75 0 -130063 -7373.43 0 -130719 -7598.84 0 -131395 -7830.26 0 -132091 -8067.98 0 -132807 -8312.32 0 -133545 -8563.6 0 -134304 -8822.17 0 -135086 -9088.39 0 -135891 -9362.63 0 -136720 -9645.31 0 -137572 -9936.84 0 -138450 -10237.7 0 -139354 -10548.3 0 -140284 -10869.2 0 -141242 -11201 0 -142228 -11544.1 0 -143243 -11899.3 0 -144288 -12267.1 0 -145364 -12648.4 0 -146473 -13043.7 0 -147614 -13454 0 -148790 -13880.1 0 -150002 -14323 0 -151250 -14783.5 0 -152536 -15262.9 0 -153862 -15762.3 0 -155229 -16283 0 -156638 -16826.3 0 -158091 -17393.8 0 -159589 -17987 0 -161135 -18607.7 0 -162731 -19258 0 -164377 -19939.7 0 -166077 -20655.4 0 -167832 -21407.5 0 -169644 -22198.9 0 -171517 -23032.5 0 -173451 -23911.8 0 -175451 -24840.5 0 -177518 -25822.8 0 -179655 -26863.2 0 -181866 -27966.9 0 -184152 -29139.6 0 -186517 -30387.5 0 -188964 -31717.9 0 -191496 -33138.7 0 -194116 -34658.7 0 -196826 -36288 0 -199629 -38037.9 0 -202527 -39921 0 -205522 -41951.7 0 -208614 -44146.1 0 -211803 -46522.4 0 -215087 -49100.9 0 -218463 -51904.5 0 -221922 -54959 0 -225457 -58292.5 0 -229051 -61936.3 0 -232685 -65924.1 0 -236330 -70291.8 0 -239949 -75076.1 0 -243494 -80313.2 0 -246904 -86035.9 0 -250103 -92269.7 0 -253000 -99028 0 -255494 -106306 0 -257471 -114072 0 -258818 -122266 0 -259430 -130791 0 -259224 -139518 0 -258154 -148287 0 -114680 4810.63 0 -114852 4400.63 0 -115000 3988.31 0 -115124 3579.53 0 -115226 3179.14 0 -115310 2791.12 0 -115379 2418.31 0 -115437 2062.46 0 -115488 1724.39 0 -115535 1404.17 0 -115581 1101.28 0 -115629 814.848 0 -115681 543.739 0 -115739 286.713 0 -115804 42.4911 0 -115877 -190.192 0 -115959 -412.549 0 -116051 -625.717 0 -116153 -830.753 0 -116265 -1028.63 0 -116388 -1220.23 0 -116523 -1406.37 0 -116669 -1587.77 0 -116826 -1765.11 0 -116995 -1938.99 0 -117175 -2109.96 0 -117367 -2278.53 0 -117571 -2445.16 0 -117787 -2610.28 0 -118014 -2774.27 0 -118254 -2937.5 0 -118506 -3100.31 0 -118769 -3263.01 0 -119045 -3425.9 0 -119334 -3589.27 0 -119635 -3753.37 0 -119948 -3918.47 0 -120275 -4084.81 0 -120614 -4252.62 0 -120966 -4422.14 0 -121332 -4593.59 0 -121711 -4767.2 0 -122103 -4943.17 0 -122510 -5121.73 0 -122930 -5303.09 0 -123365 -5487.45 0 -123814 -5675.05 0 -124278 -5866.