<?xml version="1.0"?> 
<VTKFile type="StructuredGrid" version="0.1"> 
<StructuredGrid WholeExtent="0 127 0 127 0 0"> 
<Piece Extent="0 127 0 127 0 0"> 
<PointData>
<DataArray type="Float32" Name="E" format="ascii" NumberOfComponents="3"> 
-660346 0 0 -660346 0 0 -660344 0 0 -660340 0 0 -660335 0 0 -660328 0 0 -660320 0 0 -660310 0 0 -660299 0 0 -660286 0 0 -660272 0 0 -660257 0 0 -660240 0 0 -660221 0 0 -660201 0 0 -660180 0 0 -660157 0 0 -660132 0 0 -660106 0 0 -660079 0 0 -660050 0 0 -660020 0 0 -659988 0 0 -659955 0 0 -659920 0 0 -659884 0 0 -659846 0 0 -659807 0 0 -659766 0 0 -659724 0 0 -659680 0 0 -659635 0 0 -659588 0 0 -659540 0 0 -659490 0 0 -659439 0 0 -659387 0 0 -659333 0 0 -659277 0 0 -659220 0 0 -659162 0 0 -659102 0 0 -659041 0 0 -658978 0 0 -658913 0 0 -658847 0 0 -658780 0 0 -658711 0 0 -658641 0 0 -658569 0 0 -658496 0 0 -658421 0 0 -658345 0 0 -658268 0 0 -658189 0 0 -658108 0 0 -658026 0 0 -657942 0 0 -657857 0 0 -657771 0 0 -657683 0 0 -657594 0 0 -657503 0 0 -657410 0 0 -657317 0 0 -657221 0 0 -657125 0 0 -657026 0 0 -656927 0 0 -656825 0 0 -656723 0 0 -656619 0 0 -656513 0 0 -656406 0 0 -656298 0 0 -656188 0 0 -656076 0 0 -655963 0 0 -655849 0 0 -655733 0 0 -655616 0 0 -655497 0 0 -655377 0 0 -655255 0 0 -655132 0 0 -655008 0 0 -654882 0 0 -654754 0 0 -654625 0 0 -654495 0 0 -654363 0 0 -654230 0 0 -654095 0 0 -653959 0 0 -653821 0 0 -653682 0 0 -653541 0 0 -653399 0 0 -653256 0 0 -653111 0 0 -652964 0 0 -652816 0 0 -652667 0 0 -652516 0 0 -652364 0 0 -652210 0 0 -652055 0 0 -651899 0 0 -651741 0 0 -651581 0 0 -651420 0 0 -651258 0 0 -651094 0 0 -650929 0 0 -650762 0 0 -650594 0 0 -650424 0 0 -650253 0 0 -650081 0 0 -649907 0 0 -649732 0 0 -649555 0 0 -649376 0 0 -649197 0 0 -649016 0 0 -648833 0 0 -648649 0 0 -648464 0 0 -660351 1.54146e-07 0 -660350 2.52414 0 -660348 5.04828 0 -660344 7.57239 0 -660339 10.0965 0 -660332 12.6205 0 -660324 15.1445 0 -660315 17.6684 0 -660303 20.1923 0 -660291 22.716 0 -660277 25.2397 0 -660261 27.7632 0 -660244 30.2867 0 -660226 32.81 0 -660206 35.3332 0 -660184 37.8562 0 -660161 40.3791 0 -660137 42.9018 0 -660111 45.4243 0 -660083 47.9466 0 -660055 50.4688 0 -660024 52.9907 0 -659992 55.5124 0 -659959 58.0338 0 -659924 60.5551 0 -659888 63.076 0 -659850 65.5967 0 -659811 68.1171 0 -659770 70.6373 0 -659728 73.1571 0 -659684 75.6767 0 -659639 78.1959 0 -659593 80.7148 0 -659544 83.2333 0 -659495 85.7515 0 -659444 88.2694 0 -659391 90.7868 0 -659337 93.3039 0 -659282 95.8206 0 -659225 98.3369 0 -659166 100.853 0 -659106 103.368 0 -659045 105.883 0 -658982 108.398 0 -658918 110.912 0 -658852 113.426 0 -658784 115.939 0 -658716 118.452 0 -658645 120.964 0 -658574 123.476 0 -658500 125.987 0 -658426 128.497 0 -658350 131.008 0 -658272 133.517 0 -658193 136.026 0 -658112 138.535 0 -658030 141.043 0 -657947 143.55 0 -657862 146.057 0 -657775 148.563 0 -657687 151.068 0 -657598 153.573 0 -657507 156.078 0 -657415 158.581 0 -657321 161.084 0 -657226 163.586 0 -657129 166.088 0 -657031 168.589 0 -656931 171.089 0 -656830 173.589 0 -656727 176.088 0 -656623 178.586 0 -656518 181.083 0 -656411 183.58 0 -656302 186.076 0 -656192 188.571 0 -656081 191.066 0 -655968 193.559 0 -655853 196.052 0 -655738 198.545 0 -655620 201.036 0 -655502 203.527 0 -655381 206.016 0 -655260 208.505 0 -655137 210.994 0 -655012 213.481 0 -654886 215.968 0 -654759 218.453 0 -654630 220.938 0 -654499 223.422 0 -654367 225.906 0 -654234 228.388 0 -654099 230.87 0 -653963 233.35 0 -653825 235.83 0 -653686 238.309 0 -653546 240.788 0 -653403 243.265 0 -653260 245.741 0 -653115 248.217 0 -652969 250.692 0 -652821 253.166 0 -652671 255.639 0 -652521 258.111 0 -652368 260.583 0 -652215 263.054 0 -652060 265.523 0 -651903 267.992 0 -651745 270.461 0 -651585 272.928 0 -651425 275.395 0 -651262 277.861 0 -651098 280.326 0 -650933 282.79 0 -650766 285.254 0 -650598 287.717 0 -650429 290.179 0 -650258 292.641 0 -650085 295.102 0 -649911 297.562 0 -649736 300.022 0 -649559 302.481 0 -649381 304.939 0 -649201 307.397 0 -649020 309.855 0 -648837 312.312 0 -648653 314.769 0 -648468 317.225 0 -660364 3.07403e-07 0 -660363 5.04833 0 -660361 10.0966 0 -660357 15.1449 0 -660352 20.1931 0 -660345 25.2412 0 -660337 30.2892 0 -660327 35.3371 0 -660316 40.3848 0 -660304 45.4324 0 -660290 50.4798 0 -660274 55.5269 0 -660257 60.5739 0 -660239 65.6205 0 -660219 70.6669 0 -660197 75.713 0 -660174 80.7588 0 -660150 85.8043 0 -660124 90.8493 0 -660096 95.894 0 -660067 100.938 0 -660037 105.982 0 -660005 111.026 0 -659972 116.069 0 -659937 121.111 0 -659901 126.153 0 -659863 131.194 0 -659824 136.235 0 -659783 141.276 0 -659741 146.315 0 -659697 151.355 0 -659652 156.393 0 -659605 161.431 0 -659557 166.468 0 -659508 171.504 0 -659457 176.54 0 -659404 181.575 0 -659350 186.609 0 -659295 191.643 0 -659238 196.675 0 -659179 201.707 0 -659119 206.738 0 -659058 211.768 0 -658995 216.798 0 -658931 221.826 0 -658865 226.853 0 -658797 231.88 0 -658729 236.905 0 -658658 241.93 0 -658587 246.953 0 -658513 251.976 0 -658439 256.997 0 -658363 262.017 0 -658285 267.037 0 -658206 272.055 0 -658125 277.072 0 -658043 282.088 0 -657960 287.102 0 -657875 292.116 0 -657788 297.128 0 -657700 302.139 0 -657611 307.149 0 -657520 312.158 0 -657428 317.165 0 -657334 322.171 0 -657238 327.175 0 -657142 332.179 0 -657043 337.181 0 -656944 342.181 0 -656843 347.18 0 -656740 352.178 0 -656636 357.175 0 -656530 362.169 0 -656423 367.163 0 -656315 372.155 0 -656205 377.145 0 -656093 382.134 0 -655981 387.122 0 -655866 392.108 0 -655750 397.092 0 -655633 402.075 0 -655514 407.056 0 -655394 412.036 0 -655273 417.014 0 -655149 421.99 0 -655025 426.965 0 -654899 431.938 0 -654771 436.91 0 -654642 441.88 0 -654512 446.848 0 -654380 451.814 0 -654247 456.779 0 -654112 461.743 0 -653976 466.704 0 -653838 471.664 0 -653699 476.622 0 -653558 481.578 0 -653416 486.533 0 -653273 491.486 0 -653128 496.438 0 -652981 501.387 0 -652833 506.335 0 -652684 511.282 0 -652533 516.226 0 -652381 521.169 0 -652227 526.111 0 -652072 531.05 0 -651916 535.988 0 -651758 540.925 0 -651598 545.86 0 -651437 550.793 0 -651275 555.725 0 -651111 560.655 0 -650946 565.584 0 -650779 570.511 0 -650611 575.437 0 -650441 580.361 0 -650270 585.284 0 -650098 590.206 0 -649924 595.127 0 -649749 600.046 0 -649572 604.964 0 -649393 609.881 0 -649214 614.797 0 -649033 619.712 0 -648850 624.626 0 -648666 629.539 0 -648480 634.452 0 -660385 4.6306e-07 0 -660385 7.57259 0 -660382 15.1452 0 -660379 22.7177 0 -660373 30.2901 0 -660367 37.8623 0 -660359 45.4344 0 -660349 53.0064 0 -660338 60.5781 0 -660325 68.1495 0 -660311 75.7207 0 -660296 83.2915 0 -660279 90.862 0 -660260 98.4321 0 -660240 106.002 0 -660219 113.571 0 -660196 121.14 0 -660171 128.708 0 -660145 136.276 0 -660118 143.843 0 -660089 151.41 0 -660059 158.975 0 -660027 166.541 0 -659993 174.105 0 -659959 181.669 0 -659922 189.232 0 -659885 196.794 0 -659845 204.356 0 -659805 211.916 0 -659762 219.476 0 -659719 227.035 0 -659674 234.593 0 -659627 242.15 0 -659579 249.705 0 -659529 257.26 0 -659478 264.814 0 -659426 272.366 0 -659372 279.918 0 -659316 287.468 0 -659259 295.017 0 -659201 302.565 0 -659141 310.112 0 -659079 317.657 0 -659016 325.201 0 -658952 332.743 0 -658886 340.285 0 -658819 347.824 0 -658750 355.363 0 -658680 362.899 0 -658608 370.435 0 -658535 377.969 0 -658460 385.501 0 -658384 393.031 0 -658306 400.56 0 -658227 408.088 0 -658147 415.613 0 -658065 423.137 0 -657981 430.659 0 -657896 438.18 0 -657810 445.698 0 -657722 453.215 0 -657632 460.73 0 -657541 468.243 0 -657449 475.754 0 -657355 483.263 0 -657260 490.77 0 -657163 498.275 0 -657065 505.778 0 -656965 513.279 0 -656864 520.777 0 -656761 528.274 0 -656657 535.769 0 -656552 543.261 0 -656445 550.752 0 -656336 558.24 0 -656226 565.725 0 -656115 573.209 0 -656002 580.69 0 -655888 588.169 0 -655772 595.646 0 -655655 603.12 0 -655536 610.592 0 -655416 618.062 0 -655294 625.529 0 -655171 632.993 0 -655046 640.456 0 -654920 647.916 0 -654793 655.373 0 -654664 662.828 0 -654533 670.28 0 -654401 677.73 0 -654268 685.177 0 -654133 692.622 0 -653997 700.064 0 -653859 707.504 0 -653720 714.941 0 -653580 722.376 0 -653438 729.808 0 -653294 737.238 0 -653149 744.665 0 -653003 752.089 0 -652855 759.511 0 -652705 766.931 0 -652555 774.348 0 -652402 781.762 0 -652249 789.174 0 -652094 796.584 0 -651937 803.991 0 -651779 811.395 0 -651619 818.798 0 -651459 826.197 0 -651296 833.595 0 -651132 840.99 0 -650967 848.383 0 -650800 855.774 0 -650632 863.163 0 -650463 870.549 0 -650291 877.934 0 -650119 885.316 0 -649945 892.697 0 -649770 900.075 0 -649593 907.452 0 -649415 914.828 0 -649235 922.201 0 -649054 929.574 0 -648871 936.944 0 -648687 944.314 0 -648502 951.682 0 -660415 6.17884e-07 0 -660415 10.097 0 -660412 20.1939 0 -660409 30.2908 0 -660404 40.3875 0 -660397 50.4841 0 -660389 60.5804 0 -660379 70.6765 0 -660368 80.7723 0 -660355 90.8677 0 -660341 100.963 0 -660326 111.057 0 -660309 121.152 0 -660290 131.245 0 -660270 141.338 0 -660249 151.431 0 -660226 161.523 0 -660201 171.614 0 -660175 181.705 0 -660148 191.794 0 -660119 201.883 0 -660089 211.971 0 -660057 222.059 0 -660024 232.145 0 -659989 242.23 0 -659952 252.314 0 -659915 262.398 0 -659875 272.48 0 -659835 282.561 0 -659793 292.64 0 -659749 302.719 0 -659704 312.796 0 -659657 322.872 0 -659609 332.947 0 -659559 343.02 0 -659508 353.092 0 -659456 363.162 0 -659402 373.231 0 -659346 383.298 0 -659289 393.364 0 -659231 403.428 0 -659171 413.49 0 -659109 423.55 0 -659046 433.609 0 -658982 443.666 0 -658916 453.721 0 -658849 463.775 0 -658780 473.826 0 -658710 483.875 0 -658638 493.922 0 -658565 503.968 0 -658490 514.011 0 -658414 524.052 0 -658336 534.09 0 -658257 544.127 0 -658177 554.161 0 -658095 564.193 0 -658011 574.223 0 -657926 584.25 0 -657840 594.275 0 -657752 604.298 0 -657662 614.318 0 -657571 624.335 0 -657479 634.35 0 -657385 644.362 0 -657290 654.372 0 -657193 664.379 0 -657095 674.383 0 -656995 684.384 0 -656894 694.383 0 -656791 704.379 0 -656687 714.372 0 -656582 724.362 0 -656475 734.349 0 -656366 744.333 0 -656256 754.314 0 -656145 764.292 0 -656032 774.268 0 -655917 784.24 0 -655802 794.209 0 -655684 804.175 0 -655566 814.137 0 -655445 824.097 0 -655324 834.053 0 -655201 844.006 0 -655076 853.956 0 -654950 863.902 0 -654822 873.846 0 -654694 883.786 0 -654563 893.722 0 -654431 903.655 0 -654298 913.585 0 -654163 923.512 0 -654027 933.435 0 -653889 943.355 0 -653750 953.271 0 -653609 963.184 0 -653467 973.094 0 -653324 983 0 -653179 992.902 0 -653032 1002.8 0 -652884 1012.7 0 -652735 1022.59 0 -652584 1032.48 0 -652432 1042.37 0 -652278 1052.25 0 -652123 1062.13 0 -651967 1072 0 -651809 1081.88 0 -651649 1091.75 0 -651488 1101.61 0 -651326 1111.47 0 -651162 1121.34 0 -650997 1131.19 0 -650830 1141.05 0 -650662 1150.9 0 -650492 1160.75 0 -650321 1170.59 0 -650149 1180.43 0 -649975 1190.28 0 -649799 1200.11 0 -649622 1209.95 0 -649444 1219.78 0 -649264 1229.61 0 -649083 1239.44 0 -648901 1249.27 0 -648717 1259.09 0 -648531 1268.92 0 -660454 7.70979e-07 0 -660453 12.6215 0 -660451 25.243 0 -660447 37.8644 0 -660442 50.4856 0 -660436 63.1066 0 -660427 75.7274 0 -660418 88.3478 0 -660407 100.968 0 -660394 113.587 0 -660380 126.207 0 -660365 138.825 0 -660347 151.443 0 -660329 164.061 0 -660309 176.677 0 -660287 189.293 0 -660264 201.909 0 -660240 214.523 0 -660214 227.136 0 -660187 239.749 0 -660158 252.36 0 -660127 264.971 0 -660096 277.58 0 -660062 290.188 0 -660027 302.795 0 -659991 315.401 0 -659953 328.005 0 -659914 340.608 0 -659873 353.209 0 -659831 365.809 0 -659788 378.408 0 -659742 391.005 0 -659696 403.6 0 -659648 416.194 0 -659598 428.785 0 -659547 441.375 0 -659494 453.964 0 -659440 466.55 0 -659385 479.134 0 -659328 491.717 0 -659269 504.297 0 -659209 516.875 0 -659148 529.451 0 -659085 542.025 0 -659021 554.596 0 -658955 567.165 0 -658888 579.732 0 -658819 592.297 0 -658748 604.858 0 -658677 617.418 0 -658603 629.975 0 -658529 642.529 0 -658453 655.08 0 -658375 667.629 0 -658296 680.175 0 -658215 692.718 0 -658133 705.259 0 -658050 717.796 0 -657965 730.33 0 -657878 742.862 0 -657790 755.39 0 -657701 767.915 0 -657610 780.437 0 -657517 792.956 0 -657424 805.472 0 -657328 817.984 0 -657232 830.493 0 -657133 842.998 0 -657034 855.5 0 -656932 867.999 0 -656830 880.494 0 -656726 892.986 0 -656620 905.473 0 -656513 917.958 0 -656405 930.438 0 -656295 942.915 0 -656183 955.388 0 -656070 967.857 0 -655956 980.322 0 -655840 992.784 0 -655723 1005.24 0 -655604 1017.69 0 -655484 1030.14 0 -655362 1042.59 0 -655239 1055.03 0 -655114 1067.47 0 -654988 1079.9 0 -654861 1092.33 0 -654732 1104.76 0 -654601 1117.18 0 -654470 1129.59 0 -654336 1142.01 0 -654201 1154.41 0 -654065 1166.82 0 -653927 1179.22 0 -653788 1191.61 0 -653648 1204.01 0 -653506 1216.39 0 -653362 1228.78 0 -653217 1241.15 0 -653071 1253.53 0 -652923 1265.9 0 -652773 1278.26 0 -652622 1290.62 0 -652470 1302.98 0 -652317 1315.34 0 -652161 1327.68 0 -652005 1340.03 0 -651847 1352.37 0 -651687 1364.71 0 -651526 1377.04 0 -651364 1389.37 0 -651200 1401.69 0 -651035 1414.01 0 -650868 1426.33 0 -650700 1438.64 0 -650530 1450.95 0 -650359 1463.26 0 -650187 1475.56 0 -650013 1487.86 0 -649837 1500.16 0 -649660 1512.46 0 -649482 1524.75 0 -649302 1537.03 0 -649121 1549.32 0 -648939 1561.6 0 -648755 1573.88 0 -648569 1586.16 0 -660501 9.28878e-07 0 -660501 15.1463 0 -660499 30.2925 0 -660495 45.4386 0 -660490 60.5845 0 -660483 75.7302 0 -660475 90.8755 0 -660465 106.02 0 -660454 121.165 0 -660441 136.309 0 -660427 151.452 0 -660412 166.595 0 -660395 181.737 0 -660376 196.879 0 -660356 212.019 0 -660335 227.159 0 -660312 242.297 0 -660287 257.435 0 -660261 272.572 0 -660234 287.707 0 -660205 302.841 0 -660175 317.974 0 -660143 333.106 0 -660110 348.236 0 -660075 363.365 0 -660038 378.492 0 -660001 393.618 0 -659961 408.742 0 -659921 423.864 0 -659878 438.984 0 -659835 454.103 0 -659790 469.22 0 -659743 484.334 0 -659695 499.447 0 -659645 514.558 0 -659594 529.666 0 -659542 544.773 0 -659488 559.877 0 -659432 574.978 0 -659375 590.077 0 -659317 605.174 0 -659257 620.268 0 -659195 635.36 0 -659132 650.449 0 -659068 665.535 0 -659002 680.619 0 -658935 695.699 0 -658866 710.777 0 -658796 725.852 0 -658724 740.923 0 -658651 755.992 0 -658576 771.057 0 -658500 786.12 0 -658422 801.179 0 -658343 816.234 0 -658262 831.287 0 -658180 846.335 0 -658097 861.381 0 -658012 876.422 0 -657925 891.46 0 -657837 906.495 0 -657748 921.526 0 -657657 936.552 0 -657565 951.575 0 -657471 966.594 0 -657375 981.61 0 -657279 996.621 0 -657180 1011.63 0 -657081 1026.63 0 -656979 1041.63 0 -656877 1056.62 0 -656773 1071.61 0 -656667 1086.6 0 -656560 1101.58 0 -656452 1116.56 0 -656342 1131.53 0 -656230 1146.5 0 -656117 1161.46 0 -656003 1176.42 0 -655887 1191.37 0 -655770 1206.32 0 -655651 1221.27 0 -655531 1236.21 0 -655409 1251.14 0 -655286 1266.07 0 -655161 1281 0 -655035 1295.92 0 -654908 1310.83 0 -654779 1325.74 0 -654648 1340.65 0 -654516 1355.55 0 -654383 1370.44 0 -654248 1385.33 0 -654112 1400.22 0 -653974 1415.1 0 -653835 1429.97 0 -653694 1444.84 0 -653552 1459.71 0 -653409 1474.57 0 -653264 1489.42 0 -653117 1504.27 0 -652969 1519.11 0 -652820 1533.95 0 -652669 1548.79 0 -652517 1563.62 0 -652363 1578.44 0 -652208 1593.26 0 -652051 1608.07 0 -651893 1622.88 0 -651734 1637.68 0 -651573 1652.48 0 -651411 1667.28 0 -651247 1682.07 0 -651081 1696.85 0 -650915 1711.63 0 -650746 1726.41 0 -650577 1741.18 0 -650406 1755.95 0 -650233 1770.71 0 -650059 1785.47 0 -649884 1800.22 0 -649707 1814.98 0 -649529 1829.72 0 -649349 1844.47 0 -649168 1859.21 0 -648985 1873.95 0 -648801 1888.68 0 -648616 1903.42 0 -660557 1.08045e-06 0 -660557 17.6713 0 -660554 35.3425 0 -660551 53.0136 0 -660546 70.6844 0 -660539 88.355 0 -660531 106.025 0 -660521 123.695 0 -660510 141.364 0 -660497 159.033 0 -660483 176.701 0 -660468 194.368 0 -660451 212.034 0 -660432 229.7 0 -660412 247.364 0 -660391 265.028 0 -660368 282.69 0 -660343 300.351 0 -660317 318.011 0 -660290 335.67 0 -660261 353.327 0 -660231 370.983 0 -660199 388.637 0 -660165 406.29 0 -660131 423.94 0 -660094 441.589 0 -660057 459.237 0 -660017 476.882 0 -659977 494.525 0 -659934 512.166 0 -659891 529.805 0 -659845 547.442 0 -659799 565.077 0 -659751 582.709 0 -659701 600.339 0 -659650 617.966 0 -659597 635.59 0 -659543 653.212 0 -659488 670.831 0 -659431 688.448 0 -659372 706.061 0 -659312 723.672 0 -659251 741.279 0 -659188 758.884 0 -659124 776.485 0 -659058 794.083 0 -658990 811.678 0 -658922 829.269 0 -658851 846.857 0 -658780 864.441 0 -658706 882.022 0 -658632 899.599 0 -658555 917.172 0 -658478 934.741 0 -658399 952.307 0 -658318 969.868 0 -658236 987.426 0 -658152 1004.98 0 -658067 1022.53 0 -657981 1040.07 0 -657893 1057.61 0 -657803 1075.15 0 -657713 1092.68 0 -657620 1110.21 0 -657526 1127.73 0 -657431 1145.25 0 -657334 1162.76 0 -657236 1180.27 0 -657136 1197.78 0 -657035 1215.28 0 -656932 1232.77 0 -656828 1250.26 0 -656723 1267.74 0 -656616 1285.22 0 -656507 1302.69 0 -656397 1320.16 0 -656286 1337.63 0 -656173 1355.08 0 -656058 1372.54 0 -655942 1389.98 0 -655825 1407.42 0 -655706 1424.86 0 -655586 1442.29 0 -655464 1459.71 0 -655341 1477.13 0 -655217 1494.55 0 -655091 1511.95 0 -654963 1529.36 0 -654834 1546.75 0 -654704 1564.14 0 -654572 1581.52 0 -654438 1598.9 0 -654303 1616.27 0 -654167 1633.64 0 -654029 1651 0 -653890 1668.35 0 -653750 1685.7 0 -653607 1703.04 0 -653464 1720.38 0 -653319 1737.71 0 -653172 1755.03 0 -653025 1772.35 0 -652875 1789.66 0 -652724 1806.97 0 -652572 1824.27 0 -652418 1841.56 0 -652263 1858.85 0 -652107 1876.13 0 -651948 1893.41 0 -651789 1910.68 0 -651628 1927.95 0 -651466 1945.21 0 -651302 1962.46 0 -651136 1979.71 0 -650970 1996.95 0 -650801 2014.19 0 -650632 2031.42 0 -650461 2048.65 0 -650288 2065.87 0 -650114 2083.09 0 -649939 2100.3 0 -649762 2117.51 0 -649584 2134.72 0 -649404 2151.92 0 -649223 2169.11 0 -649040 2186.31 0 -648856 2203.5 0 -648670 2220.69 0 -660622 1.23409e-06 0 -660621 20.1966 0 -660619 40.3931 0 -660615 60.5894 0 -660610 80.7855 0 -660603 100.981 0 -660595 121.177 0 -660586 141.371 0 -660575 161.566 0 -660562 181.759 0 -660548 201.952 0 -660532 222.144 0 -660515 242.335 0 -660497 262.525 0 -660477 282.714 0 -660455 302.901 0 -660432 323.088 0 -660408 343.273 0 -660382 363.456 0 -660354 383.638 0 -660326 403.819 0 -660295 423.998 0 -660263 444.175 0 -660230 464.35 0 -660195 484.523 0 -660159 504.694 0 -660121 524.863 0 -660082 545.03 0 -660041 565.195 0 -659999 585.357 0 -659955 605.516 0 -659910 625.674 0 -659863 645.828 0 -659815 665.98 0 -659766 686.129 0 -659714 706.275 0 -659662 726.418 0 -659608 746.559 0 -659552 766.696 0 -659495 786.829 0 -659437 806.96 0 -659377 827.087 0 -659315 847.211 0 -659252 867.331 0 -659188 887.447 0 -659122 907.56 0 -659055 927.669 0 -658986 947.774 0 -658916 967.875 0 -658844 987.972 0 -658771 1008.07 0 -658696 1028.15 0 -658620 1048.24 0 -658542 1068.32 0 -658463 1088.39 0 -658382 1108.47 0 -658300 1128.53 0 -658217 1148.59 0 -658132 1168.65 0 -658045 1188.7 0 -657957 1208.75 0 -657868 1228.79 0 -657777 1248.83 0 -657684 1268.86 0 -657591 1288.89 0 -657495 1308.91 0 -657398 1328.93 0 -657300 1348.94 0 -657200 1368.94 0 -657099 1388.94 0 -656996 1408.94 0 -656892 1428.92 0 -656787 1448.91 0 -656680 1468.88 0 -656571 1488.85 0 -656461 1508.82 0 -656350 1528.78 0 -656237 1548.73 0 -656122 1568.67 0 -656006 1588.61 0 -655889 1608.55 0 -655770 1628.47 0 -655650 1648.39 0 -655528 1668.31 0 -655405 1688.22 0 -655281 1708.12 0 -655154 1728.01 0 -655027 1747.9 0 -654898 1767.78 0 -654767 1787.66 0 -654636 1807.52 0 -654502 1827.38 0 -654367 1847.24 0 -654231 1867.09 0 -654093 1886.93 0 -653954 1906.76 0 -653813 1926.59 0 -653671 1946.41 0 -653528 1966.22 0 -653383 1986.02 0 -653236 2005.82 0 -653088 2025.61 0 -652939 2045.4 0 -652788 2065.18 0 -652636 2084.95 0 -652482 2104.71 0 -652327 2124.47 0 -652170 2144.22 0 -652012 2163.96 0 -651852 2183.7 0 -651692 2203.43 0 -651529 2223.16 0 -651365 2242.88 0 -651200 2262.59 0 -651033 2282.29 0 -650865 2301.99 0 -650695 2321.69 0 -650524 2341.37 0 -650352 2361.05 0 -650178 2380.73 0 -650002 2400.4 0 -649825 2420.07 0 -649647 2439.73 0 -649467 2459.39 0 -649286 2479.04 0 -649103 2498.68 0 -648919 2518.33 0 -648734 2537.97 0 -660695 1.38987e-06 0 -660694 22.7222 0 -660692 45.4443 0 -660688 68.1662 0 -660683 90.8879 0 -660677 113.609 0 -660668 136.33 0 -660659 159.05 0 -660648 181.77 0 -660635 204.488 0 -660621 227.206 0 -660605 249.923 0 -660588 272.639 0 -660570 295.354 0 -660550 318.067 0 -660528 340.78 0 -660505 363.49 0 -660481 386.2 0 -660455 408.907 0 -660428 431.613 0 -660399 454.317 0 -660368 477.019 0 -660336 499.72 0 -660303 522.418 0 -660268 545.114 0 -660232 567.807 0 -660194 590.498 0 -660155 613.187 0 -660114 635.873 0 -660072 658.557 0 -660028 681.237 0 -659983 703.915 0 -659936 726.59 0 -659888 749.262 0 -659839 771.931 0 -659787 794.596 0 -659735 817.258 0 -659681 839.917 0 -659625 862.572 0 -659568 885.224 0 -659510 907.872 0 -659450 930.516 0 -659388 953.156 0 -659325 975.792 0 -659261 998.424 0 -659195 1021.05 0 -659128 1043.68 0 -659059 1066.29 0 -658989 1088.91 0 -658917 1111.52 0 -658844 1134.13 0 -658769 1156.73 0 -658693 1179.32 0 -658615 1201.91 0 -658536 1224.5 0 -658455 1247.08 0 -658373 1269.66 0 -658289 1292.23 0 -658204 1314.79 0 -658118 1337.35 0 -658030 1359.91 0 -657940 1382.45 0 -657850 1405 0 -657757 1427.53 0 -657663 1450.07 0 -657568 1472.59 0 -657471 1495.11 0 -657373 1517.62 0 -657273 1540.13 0 -657172 1562.63 0 -657069 1585.12 0 -656965 1607.61 0 -656859 1630.09 0 -656752 1652.57 0 -656644 1675.03 0 -656534 1697.49 0 -656422 1719.95 0 -656309 1742.4 0 -656195 1764.84 0 -656079 1787.27 0 -655962 1809.69 0 -655843 1832.11 0 -655723 1854.52 0 -655601 1876.93 0 -655478 1899.33 0 -655353 1921.72 0 -655227 1944.1 0 -655099 1966.47 0 -654970 1988.84 0 -654840 2011.2 0 -654708 2033.55 0 -654574 2055.89 0 -654440 2078.23 0 -654303 2100.56 0 -654165 2122.88 0 -654026 2145.19 0 -653886 2167.5 0 -653743 2189.79 0 -653600 2212.08 0 -653455 2234.36 0 -653308 2256.64 0 -653160 2278.9 0 -653011 2301.16 0 -652860 2323.41 0 -652708 2345.65 0 -652554 2367.89 0 -652399 2390.12 0 -652242 2412.33 0 -652084 2434.55 0 -651925 2456.75 0 -651764 2478.95 0 -651601 2501.14 0 -651437 2523.32 0 -651272 2545.49 0 -651105 2567.66 0 -650937 2589.82 0 -650767 2611.97 0 -650596 2634.12 0 -650423 2656.26 0 -650249 2678.4 0 -650074 2700.52 0 -649897 2722.65 0 -649719 2744.76 0 -649539 2766.87 0 -649358 2788.98 0 -649175 2811.08 0 -648991 2833.18 0 -648806 2855.27 0 -660777 1.5477e-06 0 -660776 25.2482 0 -660774 50.4963 0 -660770 75.7442 0 -660765 100.992 0 -660758 126.239 0 -660750 151.485 0 -660741 176.731 0 -660729 201.977 0 -660717 227.221 0 -660703 252.464 0 -660687 277.707 0 -660670 302.948 0 -660652 328.188 0 -660632 353.426 0 -660610 378.664 0 -660587 403.899 0 -660563 429.133 0 -660537 454.365 0 -660509 479.595 0 -660480 504.823 0 -660450 530.049 0 -660418 555.273 0 -660385 580.494 0 -660350 605.713 0 -660314 630.929 0 -660276 656.143 0 -660237 681.354 0 -660196 706.562 0 -660154 731.767 0 -660110 756.969 0 -660065 782.168 0 -660018 807.364 0 -659970 832.556 0 -659920 857.745 0 -659869 882.93 0 -659816 908.111 0 -659762 933.289 0 -659707 958.463 0 -659650 983.633 0 -659591 1008.8 0 -659531 1033.96 0 -659470 1059.12 0 -659407 1084.27 0 -659343 1109.42 0 -659277 1134.56 0 -659209 1159.7 0 -659140 1184.83 0 -659070 1209.96 0 -658998 1235.09 0 -658925 1260.2 0 -658850 1285.32 0 -658774 1310.43 0 -658696 1335.53 0 -658617 1360.62 0 -658537 1385.72 0 -658454 1410.8 0 -658371 1435.88 0 -658286 1460.95 0 -658199 1486.02 0 -658111 1511.08 0 -658022 1536.14 0 -657931 1561.19 0 -657838 1586.23 0 -657745 1611.27 0 -657649 1636.29 0 -657552 1661.32 0 -657454 1686.33 0 -657354 1711.34 0 -657253 1736.34 0 -657150 1761.34 0 -657046 1786.32 0 -656941 1811.3 0 -656833 1836.28 0 -656725 1861.24 0 -656615 1886.2 0 -656503 1911.15 0 -656390 1936.09 0 -656276 1961.02 0 -656160 1985.95 0 -656043 2010.87 0 -655924 2035.78 0 -655804 2060.68 0 -655682 2085.58 0 -655559 2110.46 0 -655434 2135.34 0 -655308 2160.21 0 -655180 2185.07 0 -655051 2209.93 0 -654921 2234.77 0 -654789 2259.61 0 -654655 2284.43 0 -654520 2309.25 0 -654384 2334.06 0 -654246 2358.86 0 -654107 2383.65 0 -653966 2408.44 0 -653824 2433.21 0 -653681 2457.98 0 -653535 2482.74 0 -653389 2507.48 0 -653241 2532.22 0 -653092 2556.96 0 -652941 2581.68 0 -652788 2606.39 0 -652635 2631.1 0 -652479 2655.79 0 -652323 2680.48 0 -652165 2705.16 0 -652005 2729.83 0 -651844 2754.49 0 -651682 2779.14 0 -651518 2803.79 0 -651352 2828.43 0 -651185 2853.06 0 -651017 2877.68 0 -650847 2902.29 0 -650676 2926.9 0 -650504 2951.5 0 -650330 2976.09 0 -650154 3000.67 0 -649977 3025.25 0 -649799 3049.82 0 -649619 3074.39 0 -649438 3098.95 0 -649255 3123.5 0 -649071 3148.05 0 -648886 3172.59 0 -660867 1.69664e-06 0 -660867 27.7746 0 -660864 55.5491 0 -660861 83.3233 0 -660855 111.097 0 -660849 138.871 0 -660841 166.643 0 -660831 194.416 0 -660820 222.187 0 -660807 249.957 0 -660793 277.727 0 -660778 305.495 0 -660760 333.262 0 -660742 361.027 0 -660722 388.791 0 -660700 416.554 0 -660677 444.314 0 -660653 472.073 0 -660627 499.83 0 -660600 527.584 0 -660571 555.337 0 -660540 583.087 0 -660508 610.834 0 -660475 638.58 0 -660440 666.322 0 -660404 694.062 0 -660366 721.798 0 -660327 749.532 0 -660286 777.262 0 -660244 804.99 0 -660200 832.714 0 -660155 860.434 0 -660108 888.151 0 -660060 915.864 0 -660010 943.573 0 -659959 971.278 0 -659907 998.979 0 -659853 1026.68 0 -659797 1054.37 0 -659740 1082.06 0 -659681 1109.74 0 -659622 1137.42 0 -659560 1165.09 0 -659497 1192.76 0 -659433 1220.43 0 -659367 1248.09 0 -659299 1275.74 0 -659231 1303.39 0 -659160 1331.03 0 -659088 1358.67 0 -659015 1386.3 0 -658940 1413.93 0 -658864 1441.55 0 -658786 1469.16 0 -658707 1496.77 0 -658627 1524.37 0 -658544 1551.97 0 -658461 1579.56 0 -658376 1607.14 0 -658289 1634.72 0 -658201 1662.29 0 -658112 1689.85 0 -658021 1717.4 0 -657928 1744.95 0 -657834 1772.49 0 -657739 1800.02 0 -657642 1827.55 0 -657544 1855.07 0 -657444 1882.58 0 -657343 1910.08 0 -657240 1937.58 0 -657136 1965.06 0 -657030 1992.54 0 -656923 2020.01 0 -656815 2047.48 0 -656704 2074.93 0 -656593 2102.38 0 -656480 2129.82 0 -656366 2157.24 0 -656250 2184.67 0 -656132 2212.08 0 -656013 2239.48 0 -655893 2266.87 0 -655771 2294.26 0 -655648 2321.63 0 -655523 2349 0 -655397 2376.36 0 -655270 2403.71 0 -655141 2431.05 0 -655010 2458.37 0 -654878 2485.69 0 -654745 2513.01 0 -654610 2540.31 0 -654473 2567.6 0 -654336 2594.88 0 -654196 2622.15 0 -654056 2649.41 0 -653913 2676.67 0 -653770 2703.91 0 -653625 2731.14 0 -653478 2758.37 0 -653330 2785.58 0 -653181 2812.78 0 -653030 2839.98 0 -652877 2867.16 0 -652724 2894.34 0 -652568 2921.5 0 -652412 2948.66 0 -652254 2975.81 0 -652094 3002.94 0 -651933 3030.07 0 -651770 3057.19 0 -651606 3084.3 0 -651441 3111.4 0 -651274 3138.49 0 -651106 3165.57 0 -650936 3192.64 0 -650765 3219.71 0 -650593 3246.76 0 -650419 3273.81 0 -650243 3300.85 0 -650066 3327.88 0 -649888 3354.91 0 -649708 3381.93 0 -649527 3408.94 0 -649344 3435.94 0 -649160 3462.94 0 -648974 3489.93 0 -660966 1.85135e-06 0 -660965 30.3014 0 -660963 60.6028 0 -660960 90.9038 0 -660954 121.204 0 -660948 151.505 0 -660940 181.804 0 -660930 212.103 0 -660919 242.401 0 -660906 272.698 0 -660892 302.993 0 -660876 333.288 0 -660859 363.581 0 -660841 393.872 0 -660821 424.162 0 -660799 454.45 0 -660776 484.737 0 -660752 515.021 0 -660726 545.303 0 -660699 575.582 0 -660670 605.86 0 -660639 636.134 0 -660607 666.406 0 -660574 696.676 0 -660539 726.942 0 -660503 757.205 0 -660465 787.465 0 -660426 817.722 0 -660385 847.976 0 -660343 878.225 0 -660299 908.471 0 -660254 938.714 0 -660207 968.952 0 -660159 999.186 0 -660109 1029.42 0 -660058 1059.64 0 -660005 1089.86 0 -659951 1120.08 0 -659896 1150.29 0 -659839 1180.5 0 -659780 1210.7 0 -659720 1240.9 0 -659659 1271.09 0 -659596 1301.28 0 -659531 1331.46 0 -659465 1361.63 0 -659398 1391.8 0 -659329 1421.97 0 -659259 1452.13 0 -659187 1482.28 0 -659114 1512.42 0 -659039 1542.56 0 -658963 1572.7 0 -658885 1602.82 0 -658806 1632.94 0 -658725 1663.06 0 -658643 1693.16 0 -658559 1723.26 0 -658474 1753.35 0 -658388 1783.44 0 -658300 1813.51 0 -658210 1843.58 0 -658119 1873.64 0 -658027 1903.7 0 -657933 1933.74 0 -657837 1963.78 0 -657741 1993.81 0 -657642 2023.83 0 -657542 2053.85 0 -657441 2083.85 0 -657338 2113.85 0 -657234 2143.84 0 -657129 2173.82 0 -657021 2203.79 0 -656913 2233.75 0 -656803 2263.7 0 -656691 2293.64 0 -656578 2323.57 0 -656464 2353.5 0 -656348 2383.41 0 -656230 2413.32 0 -656111 2443.21 0 -655991 2473.1 0 -655869 2502.97 0 -655746 2532.84 0 -655621 2562.7 0 -655495 2592.54 0 -655368 2622.38 0 -655239 2652.2 0 -655108 2682.02 0 -654976 2711.82 0 -654842 2741.62 0 -654708 2771.4 0 -654571 2801.17 0 -654433 2830.94 0 -654294 2860.69 0 -654153 2890.43 0 -654011 2920.16 0 -653867 2949.88 0 -653722 2979.59 0 -653576 3009.29 0 -653428 3038.97 0 -653278 3068.65 0 -653127 3098.32 0 -652975 3127.97 0 -652821 3157.62 0 -652666 3187.25 0 -652509 3216.88 0 -652351 3246.49 0 -652191 3276.09 0 -652030 3305.69 0 -651868 3335.27 0 -651704 3364.84 0 -651538 3394.4 0 -651372 3423.95 0 -651203 3453.5 0 -651034 3483.03 0 -650862 3512.55 0 -650690 3542.06 0 -650516 3571.57 0 -650340 3601.06 0 -650163 3630.55 0 -649985 3660.03 0 -649805 3689.5 0 -649624 3718.96 0 -649441 3748.42 0 -649257 3777.86 0 -649071 3807.3 0 -661074 2.00473e-06 0 -661073 32.8288 0 -661071 65.6574 0 -661067 98.4858 0 -661062 131.314 0 -661055 164.141 0 -661047 196.968 0 -661037 229.794 0 -661026 262.619 0 -661014 295.443 0 -661000 328.265 0 -660984 361.086 0 -660967 393.906 0 -660948 426.724 0 -660928 459.54 0 -660907 492.355 0 -660884 525.167 0 -660859 557.977 0 -660833 590.785 0 -660806 623.59 0 -660777 656.392 0 -660747 689.192 0 -660715 721.989 0 -660681 754.783 0 -660647 787.574 0 -660610 820.361 0 -660572 853.145 0 -660533 885.926 0 -660492 918.702 0 -660450 951.475 0 -660406 984.244 0 -660361 1017.01 0 -660314 1049.77 0 -660266 1082.53 0 -660217 1115.28 0 -660165 1148.02 0 -660113 1180.77 0 -660059 1213.5 0 -660003 1246.2