<?xml version="1.0"?> 
<VTKFile type="StructuredGrid" version="0.1"> 
<StructuredGrid WholeExtent="0 127 0 127 0 0"> 
<Piece Extent="0 127 0 127 0 0"> 
<PointData>
<DataArray type="Float32" Name="E" format="ascii" NumberOfComponents="3"> 
2.76335e+06 1.90735e-06 0 2.23738e+06 -1.75089e-07 0 1.87855e+06 1.52737e-06 0 1.62412e+06 -1.53482e-06 0 1.43703e+06 -7.59959e-07 0 1.29446e+06 5.96046e-08 0 1.18222e+06 2.17557e-06 0 1.09128e+06 -2.6226e-06 0 1.01574e+06 2.23517e-06 0 951657 -3.99351e-06 0 896324 2.32458e-06 0 847843 -1.01328e-06 0 804842 2.5034e-06 0 766310 -1.78814e-06 0 731481 1.60933e-06 0 699768 -1.3113e-06 0 670708 1.2517e-06 0 643932 -9.53674e-07 0 619142 7.15256e-07 0 596093 -7.15256e-07 0 574582 1.43051e-06 0 554440 -1.3113e-06 0 535521 1.07288e-06 0 517702 -1.3113e-06 0 500879 5.96046e-07 0 484958 -1.43051e-06 0 469860 7.15256e-07 0 455515 -8.34465e-07 0 441861 9.53674e-07 0 428843 -9.53674e-07 0 416412 7.15256e-07 0 404526 -1.19209e-06 0 393145 -7.15256e-07 0 382233 5.96046e-07 0 371760 8.34465e-07 0 361696 -1.54972e-06 0 352015 1.66893e-06 0 342692 -1.43051e-06 0 333708 9.53674e-07 0 325040 -1.19209e-06 0 316672 9.53674e-07 0 308586 -9.53674e-07 0 300766 1.19209e-06 0 293198 -1.19209e-06 0 285869 1.19209e-06 0 278767 -4.76837e-07 0 271879 9.53674e-07 0 265195 -9.53674e-07 0 258705 9.53674e-07 0 252400 -4.76837e-07 0 246271 7.15256e-07 0 240309 -4.76837e-07 0 234508 7.15256e-07 0 228859 -9.53674e-07 0 223357 2.38419e-07 0 217994 -4.76837e-07 0 212765 0 0 207663 -4.76837e-07 0 202685 2.38419e-07 0 197824 -2.38419e-07 0 193075 0 0 188435 2.38419e-07 0 183898 4.76837e-07 0 179461 -4.76837e-07 0 175120 7.15256e-07 0 170871 0 0 166710 0 0 162635 2.38419e-07 0 158642 0 0 154727 2.38419e-07 0 150888 2.38419e-07 0 147123 2.38419e-07 0 143428 0 0 139801 4.76837e-07 0 136239 -4.76837e-07 0 132741 0 0 129303 -4.76837e-07 0 125925 0 0 122602 -4.76837e-07 0 119335 0 0 116120 -4.76837e-07 0 112955 0 0 109840 -4.76837e-07 0 106773 0 0 103751 -4.76837e-07 0 100772 0 0 97837 -4.76837e-07 0 94942.6 4.76837e-07 0 92087.8 0 0 89271.1 4.76837e-07 0 86491.4 0 0 83747.1 4.76837e-07 0 81037.2 -4.76837e-07 0 78360.3 0 0 75715.2 -4.76837e-07 0 73100.9 0 0 70516.1 -4.76837e-07 0 67959.8 4.76837e-07 0 65430.9 -4.76837e-07 0 62928.3 4.76837e-07 0 60451.1 -4.76837e-07 0 57998.3 9.53674e-07 0 55568.9 -4.76837e-07 0 53162 9.53674e-07 0 50776.6 -4.76837e-07 0 48411.9 0 0 46067 -4.76837e-07 0 43741 9.53674e-07 0 41433.1 -1.90735e-06 0 39142.4 2.38419e-06 0 36868.2 -2.38419e-06 0 34609.7 1.43051e-06 0 32366 -1.43051e-06 0 30136.5 9.53674e-07 0 27920.3 -1.43051e-06 0 25716.7 0 0 23525 4.76837e-07 0 21344.5 -1.90735e-06 0 19174.4 4.76837e-07 0 17014.1 0 0 14862.8 -4.76837e-07 0 12719.9 1.90735e-06 0 10584.6 -1.43051e-06 0 8456.38 9.53674e-07 0 6334.46 -1.90735e-06 0 4218.19 4.29153e-06 0 2106.93 -6.19888e-06 0 -1.90735e-06 1.04904e-05 0 916131 -1.0512e+06 0 1.04291e+06 -834543 0 1.08436e+06 -676995 0 1.08087e+06 -559286 0 1.05434e+06 -469868 0 1.01696e+06 -400631 0 975315 -346119 0 932941 -302511 0 891648 -267116 0 852307 -238000 0 815267 -213756 0 780604 -193341 0 748250 -175977 0 718069 -161071 0 689901 -148166 0 663577 -136909 0 638935 -127020 0 615824 -118277 0 594108 -110502 0 573660 -103552 0 554371 -97307.2 0 536140 -91671.5 0 518877 -86563.9 0 502504 -81917.1 0 486949 -77674.3 0 472147 -73787.6 0 458041 -70216 0 444581 -66924.6 0 431718 -63883.2 0 419411 -61065.8 0 407622 -58449.8 0 396316 -56015.4 0 385462 -53745.3 0 375031 -51624.4 0 364996 -49639.2 0 355333 -47777.8 0 346021 -46029.6 0 337038 -44385.3 0 328367 -42836.4 0 319989 -41375.4 0 311889 -39995.5 0 304052 -38690.6 0 296464 -37455.1 0 289112 -36284.1 0 281984 -35173 0 275069 -34117.7 0 268357 -33114.4 0 261839 -32159.7 0 255504 -31250.5 0 249344 -30383.8 0 243352 -29557 0 237520 -28767.8 0 231840 -28013.7 0 226307 -27292.9 0 220913 -26603.3 0 215653 -25943.2 0 210522 -25310.9 0 205513 -24705 0 200622 -24124.1 0 195844 -23566.7 0 191175 -23031.7 0 186610 -22518 0 182145 -22024.5 0 177777 -21550.2 0 173501 -21094.1 0 169315 -20655.5 0 165214 -20233.4 0 161195 -19827.1 0 157256 -19436 0 153394 -19059.3 0 149605 -18696.3 0 145888 -18346.6 0 142239 -18009.5 0 138656 -17684.6 0 135137 -17371.2 0 131679 -17069 0 128281 -16777.4 0 124940 -16496.2 0 121654 -16224.8 0 118421 -15963 0 115240 -15710.3 0 112109 -15466.4 0 109025 -15231 0 105988 -15003.7 0 102995 -14784.4 0 100045 -14572.8 0 97137.3 -14368.5 0 94269.5 -14171.4 0 91440.4 -13981.1 0 88648.7 -13797.5 0 85893.1 -13620.4 0 83172.4 -13449.6 0 80485.2 -13284.9 0 77830.4 -13126.1 0 75206.9 -12973 0 72613.5 -12825.4 0 70049.1 -12683.3 0 67512.6 -12546.5 0 65003 -12414.8 0 62519.3 -12288.1 0 60060.5 -12166.2 0 57625.7 -12049.2 0 55213.8 -11936.7 0 52824.1 -11828.8 0 50455.5 -11725.3 0 48107.2 -11626.2 0 45778.4 -11531.3 0 43468.1 -11440.5 0 41175.7 -11353.8 0 38900.3 -11271.1 0 36641 -11192.4 0 34397.2 -11117.4 0 32167.9 -11046.3 0 29952.6 -10978.9 0 27750.5 -10915.1 0 25560.8 -10855 0 23382.7 -10798.4 0 21215.7 -10745.4 0 19059 -10695.8 0 16911.9 -10649.6 0 14773.7 -10606.9 0 12643.7 -10567.4 0 10521.3 -10531.4 0 8405.87 -10498.6 0 6296.66 -10469.1 0 4193.04 -10442.9 0 2094.37 -10419.9 0 1.09803e-06 -10400.1 0 808099 -686531 0 778053 -670669 0 768151 -636364 0 763932 -594662 0 759333 -550964 0 752129 -508337 0 741918 -468256 0 729042 -431358 0 714090 -397799 0 697662 -367486 0 680286 -340197 0 662389 -315665 0 644300 -293607 0 626262 -273752 0 608453 -255850 0 590995 -239675 0 573973 -225026 0 557437 -211726 0 541420 -199620 0 525935 -188571 0 510985 -178464 0 496565 -169193 0 482665 -160669 0 469268 -152815 0 456359 -145560 0 443919 -138844 0 431928 -132615 0 420367 -126826 0 409216 -121435 0 398457 -116406 0 388071 -111706 0 378041 -107307 0 368350 -103183 0 358981 -99310.8 0 349920 -95669.6 0 341151 -92241.2 0 332660 -89008.9 0 324436 -85957.5 0 316464 -83073.6 0 308735 -80344.9 0 301235 -77760.1 0 293956 -75309.2 0 286887 -72982.8 0 280019 -70772.6 0 273343 -68670.8 0 266850 -66670.4 0 260533 -64764.9 0 254384 -62948.3 0 248397 -61215.3 0 242564 -59560.6 0 236878 -57979.7 0 231335 -56468.3 0 225928 -55022.3 0 220652 -53638.2 0 215501 -52312.5 0 210471 -51042 0 205557 -49823.7 0 200754 -48654.9 0 196059 -47533.1 0 191467 -46455.9 0 186974 -45421 0 182577 -44426.3 0 178272 -43470 0 174056 -42550.1 0 169925 -41664.9 0 165877 -40812.9 0 161908 -39992.6 0 158016 -39202.5 0 154198 -38441.2 0 150451 -37707.6 0 146774 -37000.4 0 143162 -36318.6 0 139615 -35661.1 0 136130 -35026.8 0 132704 -34415 0 129337 -33824.6 0 126025 -33254.8 0 122767 -32704.8 0 119561 -32174 0 116406 -31661.5 0 113299 -31166.8 0 110239 -30689.1 0 107225 -30227.9 0 104254 -29782.6 0 101326 -29352.7 0 98438.8 -28937.5 0 95591.2 -28536.8 0 92781.8 -28149.9 0 90009.4 -27776.4 0 87272.6 -27416 0 84570.2 -27068.1 0 81901.2 -26732.5 0 79264.1 -26408.8 0 76658.1 -26096.5 0 74082 -25795.5 0 71534.6 -25505.4 0 69015.1 -25225.9 0 66522.3 -24956.6 0 64055.3 -24697.4 0 61613.1 -24448 0 59194.9 -24208.1 0 56799.6 -23977.6 0 54426.5 -23756.1 0 52074.5 -23543.5 0 49743 -23339.6 0 47431 -23144.2 0 45137.7 -22957.1 0 42862.4 -22778.2 0 40604.2 -22607.3 0 38362.4 -22444.2 0 36136.1 -22288.8 0 33924.8 -22140.9 0 31727.6 -22000.6 0 29543.9 -21867.5 0 27372.8 -21741.6 0 25213.8 -21622.9 0 23066.1 -21511.1 0 20929 -21406.3 0 18802 -21308.3 0 16684.2 -21217.1 0 14575.1 -21132.5 0 12474 -21054.6 0 10380.3 -20983.2 0 8293.31 -20918.3 0 6212.41 -20859.9 0 4136.98 -20807.8 0 2066.38 -20762.2 0 -7.76723e-07 -20722.9 0 553920 -703045 0 577812 -658221 0 588589 -621185 0 592832 -587927 0 593403 -556890 0 591596 -527370 0 587998 -499160 0 582921 -472237 0 576579 -446641 0 569155 -422413 0 560819 -399575 0 551737 -378123 0 542064 -358029 0 531938 -339245 0 521487 -321712 0 510819 -305362 0 500027 -290122 0 489187 -275919 0 478365 -262679 0 467611 -250333 0 456968 -238813 0 446468 -228057 0 436135 -218004 0 425990 -208601 0 416046 -199797 0 406313 -191545 0 396797 -183802 0 387502 -176530 0 378429 -169692 0 369577 -163256 0 360946 -157192 0 352531 -151473 0 344330 -146072 0 336337 -140968 0 328549 -136140 0 320960 -131568 0 313564 -127235 0 306357 -123124 0 299332 -119221 0 292484 -115512 0 285807 -111985 0 279297 -108627 0 272946 -105429 0 266751 -102381 0 260706 -99473.2 0 254805 -96697.4 0 249045 -94045.9 0 243419 -91511.6 0 237925 -89087.8 0 232556 -86768.2 0 227309 -84547.1 0 222180 -82419.2 0 217165 -80379.5 0 212259 -78423.2 0 207459 -76546.2 0 202762 -74744.2 0 198164 -73013.6 0 193661 -71350.7 0 189250 -69752.3 0 184929 -68215.3 0 180695 -66736.7 0 176543 -65313.8 0 172472 -63944 0 168480 -62624.9 0 164562 -61354.2 0 160718 -60129.8 0 156944 -58949.7 0 153239 -57811.9 0 149599 -56714.8 0 146023 -55656.5 0 142509 -54635.5 0 139055 -53650.2 0 135659 -52699.3 0 132319 -51781.4 0 129033 -50895.2 0 125799 -50039.5 0 122616 -49213.2 0 119483 -48415.1 0 116396 -47644.2 0 113356 -46899.6 0 110361 -46180.3 0 107408 -45485.4 0 104498 -44814.1 0 101627 -44165.7 0 98796.1 -43539.2 0 96002.7 -42934.1 0 93245.8 -42349.7 0 90524.3 -41785.2 0 87837.1 -41240 0 85182.9 -40713.7 0 82560.7 -40205.5 0 79969.5 -39715 0 77408.1 -39241.7 0 74875.6 -38785.1 0 72371 -38344.6 0 69893.2 -37920 0 67441.5 -37510.7 0 65014.8 -37116.4 0 62612.2 -36736.6 0 60233 -36371.1 0 57876.1 -36019.5 0 55540.9 -35681.4 0 53226.4 -35356.5 0 50931.9 -35044.6 0 48656.6 -34745.3 0 46399.7 -34458.4 0 44160.5 -34183.7 0 41938.1 -33920.8 0 39732 -33669.7 0 37541.3 -33429.9 0 35365.4 -33201.5 0 33203.6 -32984.1 0 31055.2 -32777.6 0 28919.5 -32581.8 0 26795.9 -32396.5 0 24683.7 -32221.7 0 22582.2 -32057.1 0 20490.9 -31902.6 0 18409.1 -31758.1 0 16336.2 -31623.6 0 14271.6 -31498.8 0 12214.6 -31383.7 0 10164.7 -31278.3 0 8121.19 -31182.4 0 6083.58 -31095.9 0 4051.23 -31018.9 0 2023.57 -30951.2 0 5.51343e-07 -30892.8 0 466930 -626595 0 465640 -610353 0 467793 -590547 0 470470 -569346 0 472530 -547704 0 473564 -526151 0 473490 -504963 0 472350 -484297 0 470234 -464252 0 467243 -444889 0 463477 -426250 0 459033 -408361 0 454002 -391235 0 448468 -374875 0 442507 -359276 0 436192 -344425 0 429586 -330305 0 422749 -316892 0 415732 -304162 0 408581 -292085 0 401337 -280634 0 394036 -269778 0 386707 -259486 0 379378 -249730 0 372070 -240479 0 364803 -231706 0 357593 -223384 0 350453 -215487 0 343395 -207989 0 336426 -200868 0 329555 -194102 0 322787 -187668 0 316127 -181549 0 309577 -175725 0 303139 -170179 0 296817 -164895 0 290609 -159858 0 284516 -155053 0 278538 -150468 0 272674 -146089 0 266923 -141906 0 261284 -137907 0 255754 -134082 0 250333 -130423 0 245019 -126919 0 239808 -123562 0 234699 -120346 0 229691 -117262 0 224780 -114304 0 219964 -111465 0 215241 -108740 0 210609 -106122 0 206066 -103607 0 201609 -101189 0 197235 -98863.7 0 192943 -96627 0 188731 -94474.6 0 184596 -92402.6 0 180536 -90407.3 0 176550 -88485.2 0 172634 -86633.2 0 168788 -84848.1 0 165009 -83127.1 0 161295 -81467.3 0 157644 -79866.3 0 154056 -78321.6 0 150526 -76830.8 0 147056 -75391.7 0 143641 -74002.4 0 140281 -72660.8 0 136975 -71365 0 133720 -70113.4 0 130516 -68904.1 0 127360 -67735.7 0 124252 -66606.6 0 121189 -65515.4 0 118171 -64460.7 0 115196 -63441.3 0 112263 -62455.8 0 109371 -61503.2 0 106519 -60582.2 0 103705 -59691.9 0 100927 -58831.3 0 98186.4 -57999.3 0 95480.2 -57195.1 0 92808 -56417.8 0 90168.5 -55666.5 0 87560.9 -54940.5 0 84984.2 -54239 0 82437.2 -53561.3 0 79919.2 -52906.7 0 77429.2 -52274.6 0 74966.3 -51664.2 0 72529.6 -51075.1 0 70118.2 -50506.6 0 67731.3 -49958.3 0 65368.2 -49429.5 0 63027.8 -48919.9 0 60709.6 -48428.9 0 58412.7 -47956.1 0 56136.3 -47501 0 53879.8 -47063.3 0 51642.3 -46642.6 0 49423.2 -46238.5 0 47221.8 -45850.6 0 45037.3 -45478.7 0 42869.1 -45122.4 0 40716.6 -44781.4 0 38579 -44455.4 0 36455.7 -44144.1 0 34346.2 -43847.4 0 32249.6 -43564.9 0 30165.6 -43296.5 0 28093.4 -43041.9 0 26032.4 -42800.9 0 23982 -42573.3 0 21941.7 -42359 0 19910.9 -42157.8 0 17889 -41969.5 0 15875.4 -41794 0 13869.6 -41631.2 0 11871 -41480.9 0 9879.03 -41343.1 0 7893.19 -41217.6 0 5912.9 -41104.4 0 3937.63 -41003.4 0 1966.85 -40914.4 0 -5.96046e-07 -40837.5 0 366435 -606173 0 374015 -586422 0 378827 -568202 0 382177 -550652 0 384568 -533476 0 386199 -516562 0 387145 -499901 0 387443 -483520 0 387121 -467458 0 386210 -451754 0 384745 -436441 0 382768 -421549 0 380319 -407099 0 377441 -393107 0 374176 -379584 0 370566 -366534 0 366650 -353960 0 362467 -341859 0 358052 -330226 0 353437 -319052 0 348654 -308329 0 343730 -298043 0 338691 -288183 0 333561 -278735 0 328359 -269685 0 323105 -261017 0 317816 -252716 0 312507 -244768 0 307190 -237158 0 301878 -229872 0 296580 -222894 0 291307 -216211 0 286064 -209809 0 280860 -203676 0 275699 -197799 0 270588 -192166 0 265528 -186765 0 260526 -181585 0 255582 -176617 0 250700 -171849 0 245880 -167272 0 241126 -162878 0 236437 -158658 0 231814 -154603 0 227259 -150706 0 222770 -146960 0 218348 -143357 0 213993 -139891 0 209704 -136556 0 205481 -133346 0 201324 -130255 0 197231 -127278 0 193201 -124410 0 189235 -121646 0 185330 -118982 0 181486 -116413 0 177701 -113935 0 173976 -111545 0 170308 -109239 0 166696 -107013 0 163140 -104865 0 159638 -102790 0 156188 -100786 0 152791 -98850.5 0 149444 -96980.5 0 146147 -95173.4 0 142899 -93427 0 139697 -91738.7 0 136542 -90106.6 0 133432 -88528.5 0 130365 -87002.4 0 127342 -85526.5 0 124360 -84099 0 121419 -82718.1 0 118518 -81382.2 0 115655 -80089.8 0 112830 -78839.5 0 110042 -77629.7 0 107289 -76459.1 0 104571 -75326.6 0 101887 -74230.8 0 99236.1 -73170.5 0 96617 -72144.8 0 94029.1 -71152.4 0 91471.4 -70192.4 0 88943.2 -69263.8 0 86443.5 -68365.7 0 83971.5 -67497.2 0 81526.6 -66657.5 0 79107.7 -65845.7 0 76714.3 -65061.1 0 74345.5 -64303 0 72000.6 -63570.5 0 69678.9 -62863.2 0 67379.6 -62180.3 0 65102 -61521.1 0 62845.4 -60885.2 0 60609.2 -60272 0 58392.7 -59680.9 0 56195.3 -59111.4 0 54016.1 -58563 0 51854.8 -58035.3 0 49710.5 -57527.8 0 47582.8 -57040.2 0 45470.9 -56571.9 0 43374.3 -56122.7 0 41292.5 -55692.1 0 39224.7 -55279.9 0 37170.5 -54885.6 0 35129.3 -54509 0 33100.5 -54149.8 0 31083.5 -53807.7 0 29077.9 -53482.5 0 27083.1 -53173.8 0 25098.6 -52881.5 0 23123.7 -52605.4 0 21158.1 -52345.1 0 19201.2 -52100.7 0 17252.5 -51871.8 0 15311.4 -51658.3 0 13377.6 -51460.1 0 11450.4 -51277 0 9529.35 -51108.8 0 7614.04 -50955.6 0 5703.93 -50817.1 0 3798.54 -50693.3 0 1897.39 -50584.1 0 7.22706e-07 -50489.4 0 302217 -572382 0 305216 -559462 0 308551 -545861 0 311650 -532035 0 314310 -518174 0 316472 -504383 0 318129 -490721 0 319298 -477224 0 319998 -463924 0 320254 -450845 0 320088 -438009 0 319526 -425434 0 318591 -413137 0 317308 -401132 0 315701 -389429 0 313796 -378038 0 311616 -366964 0 309186 -356212 0 306528 -345783 0 303664 -335677 0 300616 -325893 0 297404 -316428 0 294046 -307278 0 290560 -298437 0 286963 -289901 0 283271 -281660 0 279498 -273710 0 275656 -266041 0 271758 -258646 0 267816 -251516 0 263838 -244643 0 259835 -238019 0 255815 -231634 0 251784 -225482 0 247751 -219552 0 243721 -213838 0 239699 -208330 0 235690 -203022 0 231699 -197905 0 227730 -192972 0 223785 -188216 0 219868 -183631 0 215981 -179208 0 212127 -174943 0 208307 -170828 0 204522 -166858 0 200776 -163026 0 197067 -159329 0 193398 -155759 0 189769 -152313 0 186181 -148984 0 182634 -145770 0 179128 -142665 0 175663 -139665 0 172241 -136765 0 168859 -133963 0 165519 -131255 0 162220 -128636 0 158962 -126103 0 155745 -123654 0 152568 -121285 0 149430 -118993 0 146332 -116776 0 143272 -114630 0 140251 -112553 0 137267 -110543 0 134320 -108597 0 131409 -106714 0 128535 -104890 0 125695 -103124 0 122890 -101414 0 120119 -99758.4 0 117381 -98154.6 0 114676 -96601.5 0 112003 -95097.1 0 109360 -93640.1 0 106749 -92228.9 0 104167 -90862 0 101614 -89538.1 0 99089.9 -88255.9 0 96593.7 -87014 0 94124.7 -85811.4 0 91682.3 -84646.8 0 89265.9 -83519.1 0 86874.7 -82427.3 0 84508.2 -81370.4 0 82165.8 -80347.3 0 79846.8 -79357.2 0 77550.6 -78399.2 0 75276.7 -77472.4 0 73024.3 -76576 0 70793 -75709.2 0 68582.1 -74871.2 0 66391.1 -74061.4 0 64219.3 -73279.1 0 62066.3 -72523.6 0 59931.4 -71794.2 0 57814.2 -71090.4 0 55714 -70411.7 0 53630.4 -69757.4 0 51562.8 -69127 0 49510.6 -68520.1 0 47473.4 -67936.1 0 45450.7 -67374.6 0 43441.9 -66835.1 0 41446.6 -66317.4 0 39464.2 -65820.8 0 37494.2 -65345.2 0 35536.3 -64890 0 33589.8 -64455.1 0 31654.4 -64040 0 29729.5 -63644.4 0 27814.7 -63268.2 0 25909.6 -62910.9 0 24013.6 -62572.3 0 22126.3 -62252.3 0 20247.4 -61950.5 0 18376.2 -61666.8 0 16512.5 -61401 0 14655.6 -61152.8 0 12805.4 -60922.2 0 10961.2 -60708.9 0 9122.63 -60512.9 0 7289.33 -60333.9 0 5460.83 -60171.9 0 3636.73 -60026.8 0 1816.59 -59898.5 0 -6.63102e-07 -59786.9 0 243688 -549728 0 248014 -537572 0 251595 -525712 0 254683 -513985 0 257369 -502345 0 259684 -490786 0 261641 -479317 0 263247 -467955 0 264511 -456717 0 265442 -445621 0 266051 -434681 0 266350 -423914 0 266354 -413330 0 266077 -402941 0 265534 -392758 0 264740 -382787 0 263710 -373035 0 262459 -363509 0 261003 -354211 0 259356 -345144 0 257532 -336311 0 255546 -327712 0 253412 -319346 0 251142 -311213 0 248748 -303311 0 246243 -295638 0 243637 -288189 0 240942 -280962 0 238167 -273954 0 235322 -267159 0 232415 -260572 0 229455 -254191 0 226449 -248008 0 223404 -242020 0 220326 -236220 0 217223 -230604 0 214098 -225167 0 210958 -219903 0 207808 -214808 0 204650 -209875 0 201489 -205099 0 198330 -200477 0 195174 -196002 0 192025 -191670 0 188885 -187477 0 185758 -183417 0 182644 -179487 0 179546 -175681 0 176466 -171997 0 173404 -168428 0 170363 -164973 0 167344 -161626 0 164347 -158385 0 161373 -155245 0 158423 -152203 0 155498 -149256 0 152599 -146401 0 149725 -143634 0 146877 -140953 0 144055 -138355 0 141260 -135837 0 138491 -133396 0 135749 -131029 0 133034 -128736 0 130345 -126512 0 127683 -124356 0 125047 -122265 0 122438 -120238 0 119854 -118273 0 117296 -116367 0 114764 -114519 0 112256 -112726 0 109774 -110988 0 107317 -109303 0 104883 -107668 0 102474 -106083 0 100088 -104546 0 97725 -103056 0 95385.1 -101610 0 93067.5 -100209 0 90771.9 -98850.8 0 88497.9 -97534 0 86245.1 -96257.5 0 84013 -95020.3 0 81801.2 -93821.4 0 79609.3 -92659.8 0 77436.9 -91534.4 0 75283.5 -90444.4 0 73148.7 -89388.8 0 71032.1 -88366.8 0 68933.3 -87377.5 0 66851.8 -86420.2 0 64787.2 -85494.1 0 62739 -84598.5 0 60706.9 -83732.7 0 58690.4 -82895.9 0 56689.2 -82087.6 0 54702.7 -81307.2 0 52730.5 -80554 0 50772.3 -79827.5 0 48827.7 -79127.1 0 46896.1 -78452.4 0 44977.3 -77802.8 0 43070.8 -77177.8 0 41176.2 -76577.1 0 39293.1 -76000.1 0 37421.2 -75446.5 0 35559.9 -74915.9 0 33709 -74407.8 0 31868 -73922 0 30036.5 -73458.1 0 28214.2 -73015.8 0 26400.7 -72594.8 0 24595.6 -72194.8 0 22798.6 -71815.5 0 21009.2 -71456.6 0 19227 -71118 0 17451.8 -70799.4 0 15683.2 -70500.6 0 13920.7 -70221.4 0 12164 -69961.6 0 10412.8 -69721.1 0 8666.65 -69499.8 0 6925.27 -69297.3 0 5188.26 -69113.8 0 3455.29 -68948.9 0 1725.98 -68802.7 0 5.1409e-07 -68675.1 0 197300 -526220 0 200683 -516405 0 203932 -506470 0 206937 -496515 0 209666 -486579 0 212110 -476688 0 214271 -466860 0 216156 -457107 0 217770 -447442 0 219122 -437876 0 220218 -428420 0 221068 -419083 0 221680 -409875 0 222062 -400804 0 222225 -391878 0 222178 -383102 0 221930 -374484 0 221492 -366027 0 220874 -357737 0 220086 -349616 0 219138 -341667 0 218039 -333893 0 216799 -326295 0 215428 -318872 0 213935 -311627 0 212329 -304557 0 210617 -297664 0 208809 -290944 0 206912 -284397 0 204934 -278021 0 202881 -271814 0 200761 -265773 0 198581 -259895 0 196345 -254178 0 194060 -248619 0 191732 -243214 0 189365 -237960 0 186964 -232853 0 184534 -227892 0 182079 -223071 0 179602 -218388 0 177107 -213838 0 174597 -209420 0 172077 -205128 0 169547 -200961 0 167012 -196913 0 164473 -192983 0 161933 -189166 0 159394 -185460 0 156857 -181862 0 154325 -178367 0 151799 -174974 0 149280 -171680 0 146769 -168480 0 144269 -165374 0 141779 -162357 0 139302 -159428 0 136837 -156584 0 134385 -153821 0 131948 -151139 0 129525 -148534 0 127117 -146004 0 124725 -143548 0 122349 -141162 0 119990 -138845 0 117647 -136594 0 115321 -134409 0 113012 -132286 0 110720 -130225 0 108445 -128224 0 106188 -126280 0 103947 -124392 0 101725 -122559 0 99519 -120779 0 97330.6 -119051 0 95159.3 -117372 0 93004.9 -115743 0 90867.5 -114161 0 88746.7 -112626 0 86642.5 -111136 0 84554.6 -109689 0 82482.9 -108286 0 80427.1 -106924 0 78387.1 -105603 0 76362.5 -104321 0 74353.3 -103078 0 72359 -101873 0 70379.5 -100704 0 68414.5 -99571.7 0 66463.8 -98474.3 0 64527 -97411.2 0 62603.9 -96381.7 0 60694.2 -95384.9 0 58797.6 -94420.3 0 56913.9 -93486.9 0 55042.7 -92584.3 0 53183.7 -91711.8 0 51336.7 -90868.8 0 49501.4 -90054.6 0 47677.4 -89268.8 0 45864.4 -88510.7 0 44062.3 -87779.9 0 42270.5 -87075.9 0 40489 -86398.1 0 38717.3 -85746.2 0 36955.1 -85119.7 0 35202.2 -84518.2 0 33458.2 -83941.3 0 31722.9 -83388.5 0 29996 -82859.7 0 28277 -82354.3 0 26565.9 -81872.2 0 24862.2 -81412.9 0 23165.6 -80976.2 0 21475.9 -80561.8 0 19792.7 -80169.4 0 18115.9 -79798.9 0 16444.9 -79449.9 0 14779.7 -79122.4 0 13119.8 -78815.9 0 11465.1 -78530.5 0 9815.11 -78265.8 0 8169.66 -78021.8 0 6528.43 -77798.4 0 4891.14 -77595.2 0 3257.49 -77412.4 0 1627.21 -77249.7 0 -7.45058e-07 -77107.1 0 156840 -505644 0 160330 -496895 0 163523 -488206 0 166470 -479554 0 169185 -470936 0 171675 -462356 0 173943 -453823 0 175993 -445344 0 177827 -436928 0 179451 -428584 0 180868 -420319 0 182083 -412141 0 183103 -404056 0 183933 -396071 0 184580 -388192 0 185049 -380423 0 185349 -372771 0 185484 -365238 0 185463 -357829 0 185293 -350546 0 184979 -343394 0 184530 -336374 0 183952 -329488 0 183252 -322738 0 182437 -316124 0 181513 -309648 0 180486 -303309 0 179364 -297108 0 178152 -291044 0 176855 -285117 0 175481 -279326 0 174033 -273669 0 172518 -268147 0 170941 -262756 0 169305 -257496 0 167617 -252365 0 165880 -247360 0 164099 -242480 0 162276 -237723 0 160418 -233087 0 158525 -228569 0 156603 -224166 0 154654 -219878 0 152682 -215700 0 150688 -211632 0 148676 -207670 0 146648 -203812 0 144606 -200056 0 142553 -196400 0 140490 -192840 0 138420 -189375 0 136344 -186002 0 134264 -182720 0 132181 -179525 0 130096 -176417 0 128012 -173391 0 125928 -170447 0 123847 -167582 0 121769 -164795 0 119695 -162083 0 117626 -159444 0 115563 -156877 0 113506 -154380 0 111456 -151950 0 109414 -149586 0 107380 -147287 0 105355 -145050 0 103338 -142875 0 101332 -140759 0 99334.6 -138701 0 97347.6 -136700 0 95370.8 -134754 0 93404.6 -132861 0 91449 -131021 0 89504.2 -129233 0 87570.4 -127494 0 85647.7 -125803 0 83736 -124160 0 81835.5 -122563 0 79946.1 -121012 0 78068 -119504 0 76201 -118040 0 74345.1 -116617 0 72500.3 -115236 0 70666.5 -113895 0 68843.6 -112593 0 67031.5 -111329 0 65230.3 -110103 0 63439.6 -108913 0 61659.4 -107759 0 59889.6 -106641 0 58130 -105557 0 56380.5 -104506 0 54640.9 -103489 0 52911 -102504 0 51190.7 -101550 0 49479.9 -100628 0 47778.2 -99736.2 0 46085.6 -98874.3 0 44401.8 -98041.8 0 42726.7 -97238.1 0 41060 -96462.8 0 39401.6 -95715.4 0 37751.3 -94995.5 0 36108.8 -94302.5 0 34473.9 -93636 0 32846.4 -92995.7 0 31226.2 -92381.2 0 29612.9 -91792 0 28006.5 -91227.9 0 26406.6 -90688.4 0 24813 -90173.4 0 23225.6 -89682.4 0 21644.1 -89215.1 0 20068.3 -88771.4 0 18497.9 -88350.9 0 16932.8 -87953.5 0 15372.8 -87578.7 0 13817.5 -87226.6 0 12266.8 -86896.8 0 10720.5 -86589.2 0 9178.34 -86303.5 0 7640.09 -86039.7 0 6105.55 -85797.6 0 4574.49 -85577.1 0 3046.69 -85378 0 1521.93 -85200.2 0 3.35276e-07 -85043.7 0 122469 -485799 0 125694 -478232 0 128759 -470652 0 131645 -463079 0 134346 -455526 0 136863 -448001 0 139198 -440512 0 141352 -433065 0 143329 -425665 0 145131 -418319 0 146763 -411033 0 148227 -403811 0 149528 -396660 0 150669 -389583 0 151655 -382586 0 152491 -375672 0 153181 -368846 0 153729 -362110 0 154141 -355469 0 154422 -348925 0 154576 -342481 0 154609 -336139 0 154526 -329901 0 154332 -323768 0 154031 -317742 0 153629 -311825 0 153131 -306016 0 152540 -300317 0 151863 -294728 0 151104 -289249 0 150267 -283880 0 149356 -278621 0 148376 -273470 0 147332 -268429 0 146225 -263495 0 145062 -258669 0 143845 -253948 0 142578 -249333 0 141264 -244821 0 139907 -240411 0 138510 -236103 0 137075 -231894 0 135606 -227783 0 134106 -223769 0 132576 -219849 0 131019 -216023 0 129438 -212288 0 127835 -208643 0 126212 -205086 0 124570 -201616 0 122913 -198231 0 121240 -194928 0 119555 -191707 0 117859 -188566 0 116153 -185503 0 114438 -182516 0 112716 -179604 0 110989 -176765 0 109256 -173997 0 107520 -171299 0 105780 -168670 0 104039 -166107 0 102297 -163610 0 100555 -161176 0 98812.8 -158805 0 97072 -156495 0 95333 -154245 0 93596.5 -152052 0 91862.8 -149917 0 90132.5 -147837 0 88406.1 -145812 0 86684 -143839 0 84966.5 -141919 0 83254 -140049 0 81546.8 -138230 0 79845.1 -136458 0 78149.3 -134734 0 76459.5 -133057 0 74775.9 -131425 0 73098.7 -129837 0 71428.1 -128292 0 69764.2 -126791 0 68107 -125330 0 66456.7 -123911 0 64813.3 -122531 0 63177 -121191 0 61547.6 -119889 0 59925.3 -118624 0 58310.1 -117396 0 56701.9 -116204 0 55100.8 -115047 0 53506.7 -113925 0 51919.6 -112837 0 50339.4 -111782 0 48766 -110760 0 47199.5 -109770 0 45639.8 -108811 0 44086.7 -107884 0 42540.1 -106987 0 41000.1 -106120 0 39466.4 -105282 0 37939 -104474 0 36417.7 -103694 0 34902.5 -102942 0 33393.3 -102217 0 31889.8 -101520 0 30392.1 -100850 0 28899.9 -100206 0 27413 -99588.5 0 25931.5 -98996.7 0 24455.1 -98430.3 0 22983.8 -97889.2 0 21517.2 -97372.8 0 20055.4 -96881.1 0 18598.2 -96413.7 0 17145.3 -95970.3 0 15696.8 -95550.8 0 14252.3 -95154.9 0 12811.8 -94782.4 0 11375.1 -94433 0 9942.04 -94106.7 0 8512.5 -93803.2 0 7086.29 -93522.4 0 5663.28 -93264.2 0 4243.3 -93028.3 0 2826.19 -92814.7 0 1411.81 -92623.3 0 -3.35276e-07 -92454 0 92479.3 -467163 0 95633.8 -460440 0 98620 -453733 0 101448 -447042 0 104120 -440369 0 106639 -433719 0 109006 -427096 0 111222 -420506 0 113290 -413952 0 115212 -407440 0 116989 -400973 0 118625 -394556 0 120122 -388192 0 121483 -381886 0 122712 -375641 0 123811 -369460 0 124783 -363346 0 125633 -357303 0 126364 -351333 0 126980 -345439 0 127483 -339622 0 127879 -333886 0 128170 -328231 0 128360 -322659 0 128453 -317173 0 128454 -311772 0 128365 -306459 0 128190 -301233 0 127933 -296096 0 127598 -291048 0 127188 -286090 0 126706 -281221 0 126157 -276442 0 125543 -271753 0 124867 -267152 0 124133 -262641 0 123344 -258219 0 122503 -253885 0 121612 -249638 0 120675 -245478 0 119693 -241404 0 118671 -237414 0 117610 -233509 0 116512 -229688 0 115380 -225948 0 114216 -222289 0 113022 -218711 0 111801 -215211 0 110554 -211789 0 109282 -208443 0 107989 -205173 0 106675 -201976 0 105342 -198853 0 103991 -195801 0 102624 -192819 0 101243 -189906 0 99848.6 -187061 0 98441.9 -184282 0 97024.2 -181569 0 95596.7 -178920 0 94160.3 -176333 0 92716.1 -173809 0 91265 -171345 0 89807.8 -168940 0 88345.4 -166593 0 86878.6 -164303 0 85408 -162069 0 83934.4 -159889 0 82458.3 -157764 0 80980.5 -155691 0 79501.3 -153669 0 78021.4 -151698 0 76541.3 -149776 0 75061.3 -147903 0 73582 -146077 0 72103.6 -144298 0 70626.6 -142565 0 69151.2 -140876 0 67677.9 -139232 0 66206.8 -137630 0 64738.3 -136070 0 63272.5 -134552 0 61809.7 -133074 0 60350 -131636 0 58893.7 -130238 0 57440.9 -128877 0 55991.8 -127554 0 54546.4 -126268 0 53104.9 -125018 0 51667.4 -123804 0 50234 -122625 0 48804.6 -121480 0 47379.5 -120369 0 45958.6 -119291 0 44541.9 -118245 0 43129.5 -117232 0 41721.5 -116250 0 40317.7 -115299 0 38918.3 -114379 0 37523.2 -113488 0 36132.3 -112628 0 34745.7 -111796 0 33363.4 -110993 0 31985.2 -110219 0 30611.2 -109472 0 29241.3 -108753 0 27875.5 -108061 0 26513.6 -107397 0 25155.7 -106758 0 23801.7 -106146 0 22451.5 -105559 0 21104.9 -104999 0 19762.1 -104463 0 18422.8 -103953 0 17087 -103467 0 15754.7 -103006 0 14425.6 -102569 0 13099.8 -102156 0 11777.2 -101767 0 10457.6 -101402 0 9140.98 -101060 0 7827.25 -100742 0 6516.3 -100447 0 5208.04 -100175 0 3902.37 -99925.9 0 2599.21 -99699.7 0 1298.45 -99496.1 0 3.72529e-07 -99315.2 0 66378.1 -449274 0 69407.2 -443318 0 72308.6 -437366 0 75078.9 -431422 0 77717.9 -425492 0 80226.3 -419580 0 82605.2 -413689 0 84855.9 -407824 0 86979.9 -401987 0 88978.8 -396182 0 90854.4 -390413 0 92608.6 -384682 0 94243.4 -378993 0 95761 -373349 0 97163.8 -367753 0 98454 -362206 0 99634.3 -356713 0 100707 -351275 0 101675 -345895 0 102541 -340574 0 103307 -335315 0 103978 -330119 0 104554 -324988 0 105039 -319924 0 105437 -314928 0 105750 -310001 0 105980 -305144 0 106131 -300359 0 106206 -295645 0 106207 -291004 0 106138 -286436 0 106000 -281942 0 105797 -277522 0 105532 -273176 0 105207 -268904 0 104824 -264707 0 104387 -260584 0 103897 -256535 0 103357 -252559 0 102770 -248657 0 102137 -244828 0 101462 -241072 0 100745 -237388 0 99989.6 -233775 0 99197.3 -230233 0 98370.1 -226762 0 97509.8 -223360 0 96618.4 -220026 0 95697.5 -216761 0 94748.8 -213563 0 93774 -210431 0 92774.5 -207365 0 91751.9 -204363 0 90707.6 -201425 0 89642.9 -198550 0 88559.2 -195737 0 87457.7 -192985 0 86339.6 -190293 0 85206.1 -187660 0 84058.2 -185085 0 82897 -182568 0 81723.4 -180107 0 80538.4 -177701 0 79342.9 -175350 0 78137.8 -173052 0 76923.8 -170807 0 75701.8 -168614 0 74472.3 -166471 0 73236.2 -164379 0 71994.1 -162336 0 70746.6 -160341 0 69494.3 -158393 0 68237.7 -156493 0 66977.4 -154637 0 65713.8 -152827 0 64447.4 -151061 0 63178.6 -149339 0 61907.9 -147659 0 60635.6 -146021 0 59362 -144424 0 58087.6 -142867 0 56812.7 -141351 0 55537.4 -139873 0 54262.2 -138434 0 52987.2 -137032 0 51712.7 -135668 0 50438.9 -134340 0 49166 -133048 0 47894.2 -131791 0 46623.7 -130569 0 45354.7 -129382 0 44087.2 -128227 0 42821.4 -127106 0 41557.5 -126018 0 40295.5 -124961 0 39035.6 -123936 0 37777.8 -122942 0 36522.2 -121979 0 35268.9 -121046 0 34017.9 -120143 0 32769.3 -119269 0 31523.2 -118424 0 30279.5 -117608 0 29038.4 -116820 0 27799.8 -116059 0 26563.8 -115327 0 25330.3 -114621 0 24099.4 -113942 0 22871.1 -113290 0 21645.3 -112664 0 20422.2 -112064 0 19201.6 -111489 0 17983.5 -110940 0 16768 -110416 0 15554.9 -109918 0 14344.4 -109443 0 13136.3 -108994 0 11930.7 -108568 0 10727.4 -108167 0 9526.5 -107789 0 8327.94 -107435 0 7131.6