<?xml version="1.0"?> 
<VTKFile type="StructuredGrid" version="0.1"> 
<StructuredGrid WholeExtent="0 127 0 127 0 0"> 
<Piece Extent="0 127 0 127 0 0"> 
<PointData>
<DataArray type="Float32" Name="E" format="ascii" NumberOfComponents="3"> 
1.56064e+06 -0.0264275 0 1.56064e+06 8915.17 0 1.56063e+06 17832 0 1.56061e+06 26752.1 0 1.56058e+06 35677.1 0 1.56055e+06 44608.6 0 1.56051e+06 53548.3 0 1.56046e+06 62497.9 0 1.5604e+06 71459 0 1.56033e+06 80433.2 0 1.56026e+06 89422.3 0 1.56018e+06 98427.8 0 1.56009e+06 107452 0 1.55999e+06 116495 0 1.55989e+06 125561 0 1.55977e+06 134650 0 1.55965e+06 143764 0 1.55952e+06 152905 0 1.55938e+06 162075 0 1.55923e+06 171275 0 1.55908e+06 180508 0 1.55891e+06 189776 0 1.55874e+06 199079 0 1.55856e+06 208421 0 1.55837e+06 217804 0 1.55817e+06 227228 0 1.55796e+06 236697 0 1.55774e+06 246212 0 1.55751e+06 255776 0 1.55727e+06 265390 0 1.55702e+06 275057 0 1.55676e+06 284780 0 1.55649e+06 294560 0 1.55622e+06 304400 0 1.55593e+06 314302 0 1.55562e+06 324269 0 1.55531e+06 334304 0 1.55499e+06 344408 0 1.55465e+06 354585 0 1.55431e+06 364837 0 1.55395e+06 375168 0 1.55358e+06 385579 0 1.55319e+06 396075 0 1.5528e+06 406658 0 1.55239e+06 417331 0 1.55197e+06 428098 0 1.55153e+06 438962 0 1.55108e+06 449926 0 1.55062e+06 460994 0 1.55014e+06 472170 0 1.54964e+06 483457 0 1.54913e+06 494860 0 1.54861e+06 506382 0 1.54807e+06 518028 0 1.54751e+06 529802 0 1.54694e+06 541708 0 1.54634e+06 553752 0 1.54574e+06 565938 0 1.54511e+06 578270 0 1.54446e+06 590756 0 1.5438e+06 603399 0 1.54311e+06 616205 0 1.54241e+06 629180 0 1.54169e+06 642331 0 1.54094e+06 655664 0 1.54017e+06 669185 0 1.53939e+06 682901 0 1.53858e+06 696820 0 1.53774e+06 710948 0 1.53688e+06 725294 0 1.536e+06 739866 0 1.5351e+06 754673 0 1.53417e+06 769723 0 1.53321e+06 785025 0 1.53223e+06 800590 0 1.53122e+06 816428 0 1.53018e+06 832549 0 1.52912e+06 848965 0 1.52802e+06 865688 0 1.5269e+06 882729 0 1.52575e+06 900103 0 1.52457e+06 917822 0 1.52336e+06 935902 0 1.52211e+06 954358 0 1.52084e+06 973204 0 1.51954e+06 992460 0 1.5182e+06 1.01214e+06 0 1.51683e+06 1.03227e+06 0 1.51543e+06 1.05286e+06 0 1.514e+06 1.07394e+06 0 1.51254e+06 1.09553e+06 0 1.51104e+06 1.11765e+06 0 1.50952e+06 1.14032e+06 0 1.50797e+06 1.16358e+06 0 1.50638e+06 1.18746e+06 0 1.50477e+06 1.21197e+06 0 1.50314e+06 1.23716e+06 0 1.50148e+06 1.26306e+06 0 1.4998e+06 1.28971e+06 0 1.4981e+06 1.31714e+06 0 1.49638e+06 1.34539e+06 0 1.49466e+06 1.37451e+06 0 1.49292e+06 1.40455e+06 0 1.49119e+06 1.43556e+06 0 1.48946e+06 1.46759e+06 0 1.48775e+06 1.5007e+06 0 1.48606e+06 1.53495e+06 0 1.48441e+06 1.57042e+06 0 1.4828e+06 1.60716e+06 0 1.48125e+06 1.64527e+06 0 1.47978e+06 1.68482e+06 0 1.47841e+06 1.72591e+06 0 1.47716e+06 1.76863e+06 0 1.47606e+06 1.8131e+06 0 1.47514e+06 1.85942e+06 0 1.47443e+06 1.90772e+06 0 1.47399e+06 1.95814e+06 0 1.47385e+06 2.01082e+06 0 1.47408e+06 2.06593e+06 0 1.47474e+06 2.12365e+06 0 1.47592e+06 2.18415e+06 0 1.47771e+06 2.24766e+06 0 1.48022e+06 2.31441e+06 0 1.48357e+06 2.38466e+06 0 1.48792e+06 2.4587e+06 0 1.49342e+06 2.53688e+06 0 1.50024e+06 2.61962e+06 0 1.50828e+06 2.70759e+06 0 1.55334e+06 -0.182957 0 1.55334e+06 8869.86 0 1.55334e+06 17741.9 0 1.55332e+06 26617.6 0 1.5533e+06 35498.6 0 1.55327e+06 44386.5 0 1.55323e+06 53282.9 0 1.55318e+06 62189.4 0 1.55312e+06 71107.7 0 1.55306e+06 80039.4 0 1.55298e+06 88986.3 0 1.5529e+06 97949.8 0 1.55281e+06 106932 0 1.55271e+06 115934 0 1.5526e+06 124958 0 1.55248e+06 134005 0 1.55235e+06 143078 0 1.55221e+06 152178 0 1.55207e+06 161307 0 1.55191e+06 170466 0 1.55174e+06 179658 0 1.55157e+06 188884 0 1.55138e+06 198147 0 1.55119e+06 207448 0 1.55099e+06 216789 0 1.55077e+06 226172 0 1.55055e+06 235599 0 1.55031e+06 245073 0 1.55006e+06 254595 0 1.54981e+06 264168 0 1.54954e+06 273793 0 1.54926e+06 283474 0 1.54897e+06 293211 0 1.54867e+06 303008 0 1.54835e+06 312868 0 1.54803e+06 322791 0 1.54769e+06 332782 0 1.54734e+06 342842 0 1.54698e+06 352975 0 1.5466e+06 363183 0 1.54621e+06 373468 0 1.54581e+06 383834 0 1.54539e+06 394284 0 1.54496e+06 404820 0 1.54452e+06 415446 0 1.54406e+06 426165 0 1.54358e+06 436980 0 1.54309e+06 447895 0 1.54258e+06 458914 0 1.54206e+06 470039 0 1.54152e+06 481275 0 1.54096e+06 492626 0 1.54039e+06 504095 0 1.5398e+06 515687 0 1.53919e+06 527406 0 1.53856e+06 539257 0 1.53791e+06 551244 0 1.53724e+06 563372 0 1.53656e+06 575647 0 1.53585e+06 588072 0 1.53512e+06 600654 0 1.53437e+06 613398 0 1.53359e+06 626310 0 1.5328e+06 639396 0 1.53197e+06 652663 0 1.53113e+06 666116 0 1.53026e+06 679763 0 1.52937e+06 693611 0 1.52844e+06 707667 0 1.5275e+06 721939 0 1.52652e+06 736435 0 1.52552e+06 751163 0 1.52449e+06 766133 0 1.52342e+06 781354 0 1.52233e+06 796834 0 1.52121e+06 812586 0 1.52005e+06 828618 0 1.51886e+06 844943 0 1.51764e+06 861572 0 1.51639e+06 878517 0 1.5151e+06 895791 0 1.51377e+06 913409 0 1.51241e+06 931383 0 1.51101e+06 949730 0 1.50957e+06 968465 0 1.50809e+06 987605 0 1.50658e+06 1.00717e+06 0 1.50502e+06 1.02717e+06 0 1.50343e+06 1.04764e+06 0 1.50179e+06 1.06859e+06 0 1.50012e+06 1.09004e+06 0 1.4984e+06 1.11202e+06 0 1.49664e+06 1.13455e+06 0 1.49484e+06 1.15766e+06 0 1.493e+06 1.18138e+06 0 1.49112e+06 1.20574e+06 0 1.4892e+06 1.23076e+06 0 1.48724e+06 1.25649e+06 0 1.48524e+06 1.28296e+06 0 1.48321e+06 1.3102e+06 0 1.48115e+06 1.33826e+06 0 1.47905e+06 1.36719e+06 0 1.47693e+06 1.39702e+06 0 1.47478e+06 1.42782e+06 0 1.47262e+06 1.45963e+06 0 1.47045e+06 1.49251e+06 0 1.46827e+06 1.52652e+06 0 1.46609e+06 1.56174e+06 0 1.46393e+06 1.59823e+06 0 1.4618e+06 1.63607e+06 0 1.4597e+06 1.67535e+06 0 1.45766e+06 1.71616e+06 0 1.4557e+06 1.75859e+06 0 1.45384e+06 1.80276e+06 0 1.4521e+06 1.84877e+06 0 1.45052e+06 1.89675e+06 0 1.44914e+06 1.94684e+06 0 1.44799e+06 1.9992e+06 0 1.44714e+06 2.05397e+06 0 1.44663e+06 2.11133e+06 0 1.44654e+06 2.17149e+06 0 1.44696e+06 2.23465e+06 0 1.44798e+06 2.30105e+06 0 1.44971e+06 2.37094e+06 0 1.45229e+06 2.44464e+06 0 1.45586e+06 2.52247e+06 0 1.46055e+06 2.60483e+06 0 1.46636e+06 2.69222e+06 0 1.54604e+06 -0.337294 0 1.54605e+06 8824.96 0 1.54605e+06 17652.6 0 1.54604e+06 26484.3 0 1.54602e+06 35321.6 0 1.54599e+06 44166.2 0 1.54595e+06 53019.6 0 1.5459e+06 61883.5 0 1.54585e+06 70759.4 0 1.54578e+06 79648.9 0 1.5457e+06 88553.8 0 1.54562e+06 97475.6 0 1.54552e+06 106416 0 1.54542e+06 115377 0 1.5453e+06 124359 0 1.54518e+06 133366 0 1.54504e+06 142398 0 1.5449e+06 151457 0 1.54475e+06 160544 0 1.54458e+06 169663 0 1.54441e+06 178814 0 1.54422e+06 188000 0 1.54402e+06 197222 0 1.54382e+06 206482 0 1.5436e+06 215782 0 1.54337e+06 225124 0 1.54313e+06 234510 0 1.54288e+06 243943 0 1.54261e+06 253423 0 1.54234e+06 262954 0 1.54205e+06 272538 0 1.54175e+06 282176 0 1.54144e+06 291872 0 1.54111e+06 301626 0 1.54078e+06 311443 0 1.54043e+06 321323 0 1.54006e+06 331271 0 1.53969e+06 341287 0 1.53929e+06 351376 0 1.53889e+06 361539 0 1.53847e+06 371779 0 1.53803e+06 382100 0 1.53758e+06 392503 0 1.53712e+06 402993 0 1.53664e+06 413572 0 1.53614e+06 424243 0 1.53563e+06 435010 0 1.53509e+06 445877 0 1.53455e+06 456845 0 1.53398e+06 467921 0 1.53339e+06 479105 0 1.53279e+06 490404 0 1.53217e+06 501821 0 1.53153e+06 513360 0 1.53086e+06 525024 0 1.53018e+06 536820 0 1.52948e+06 548751 0 1.52875e+06 560821 0 1.528e+06 573037 0 1.52723e+06 585403 0 1.52644e+06 597924 0 1.52562e+06 610606 0 1.52477e+06 623455 0 1.5239e+06 636476 0 1.52301e+06 649676 0 1.52209e+06 663062 0 1.52114e+06 676640 0 1.52016e+06 690417 0 1.51915e+06 704400 0 1.51811e+06 718598 0 1.51704e+06 733018 0 1.51594e+06 747669 0 1.51481e+06 762559 0 1.51364e+06 777697 0 1.51244e+06 793094 0 1.5112e+06 808759 0 1.50993e+06 824702 0 1.50862e+06 840936 0 1.50727e+06 857471 0 1.50589e+06 874319 0 1.50446e+06 891494 0 1.50299e+06 909009 0 1.50148e+06 926878 0 1.49992e+06 945116 0 1.49832e+06 963739 0 1.49667e+06 982763 0 1.49498e+06 1.00221e+06 0 1.49324e+06 1.02209e+06 0 1.49146e+06 1.04243e+06 0 1.48962e+06 1.06324e+06 0 1.48773e+06 1.08456e+06 0 1.48579e+06 1.1064e+06 0 1.4838e+06 1.12878e+06 0 1.48176e+06 1.15174e+06 0 1.47966e+06 1.17531e+06 0 1.47751e+06 1.1995e+06 0 1.47531e+06 1.22436e+06 0 1.47306e+06 1.24991e+06 0 1.47075e+06 1.2762e+06 0 1.46839e+06 1.30326e+06 0 1.46598e+06 1.33113e+06 0 1.46352e+06 1.35985e+06 0 1.46101e+06 1.38948e+06 0 1.45846e+06 1.42005e+06 0 1.45586e+06 1.45164e+06 0 1.45323e+06 1.48429e+06 0 1.45057e+06 1.51806e+06 0 1.44788e+06 1.55303e+06 0 1.44518e+06 1.58926e+06 0 1.44246e+06 1.62683e+06 0 1.43975e+06 1.66583e+06 0 1.43705e+06 1.70635e+06 0 1.43438e+06 1.74848e+06 0 1.43177e+06 1.79233e+06 0 1.42923e+06 1.83802e+06 0 1.42679e+06 1.88567e+06 0 1.42447e+06 1.93542e+06 0 1.42233e+06 1.98742e+06 0 1.4204e+06 2.04183e+06 0 1.41874e+06 2.09883e+06 0 1.4174e+06 2.15861e+06 0 1.41646e+06 2.22139e+06 0 1.41601e+06 2.2874e+06 0 1.41615e+06 2.35691e+06 0 1.41698e+06 2.43022e+06 0 1.41865e+06 2.50766e+06 0 1.42125e+06 2.5896e+06 0 1.42486e+06 2.67647e+06 0 1.53875e+06 -0.48807 0 1.53876e+06 8780.46 0 1.53876e+06 17564.1 0 1.53876e+06 26352.2 0 1.53874e+06 35146.2 0 1.53871e+06 43947.9 0 1.53868e+06 52758.7 0 1.53863e+06 61580.2 0 1.53857e+06 70414 0 1.5385e+06 79261.7 0 1.53843e+06 88125 0 1.53834e+06 97005.4 0 1.53824e+06 105905 0 1.53813e+06 114824 0 1.53801e+06 123766 0 1.53788e+06 132732 0 1.53774e+06 141723 0 1.53759e+06 150741 0 1.53742e+06 159788 0 1.53725e+06 168866 0 1.53706e+06 177977 0 1.53687e+06 187122 0 1.53666e+06 196303 0 1.53644e+06 205523 0 1.53621e+06 214782 0 1.53596e+06 224083 0 1.53571e+06 233429 0 1.53544e+06 242820 0 1.53516e+06 252260 0 1.53486e+06 261750 0 1.53456e+06 271292 0 1.53424e+06 280888 0 1.5339e+06 290542 0 1.53356e+06 300254 0 1.5332e+06 310028 0 1.53282e+06 319866 0 1.53243e+06 329770 0 1.53203e+06 339743 0 1.53161e+06 349787 0 1.53117e+06 359906 0 1.53072e+06 370102 0 1.53026e+06 380377 0 1.52977e+06 390735 0 1.52927e+06 401178 0 1.52875e+06 411710 0 1.52822e+06 422334 0 1.52767e+06 433053 0 1.52709e+06 443871 0 1.5265e+06 454790 0 1.52589e+06 465815 0 1.52527e+06 476949 0 1.52462e+06 488196 0 1.52394e+06 499560 0 1.52325e+06 511046 0 1.52254e+06 522656 0 1.5218e+06 534396 0 1.52104e+06 546271 0 1.52026e+06 558284 0 1.51945e+06 570442 0 1.51861e+06 582748 0 1.51776e+06 595208 0 1.51687e+06 607829 0 1.51596e+06 620614 0 1.51502e+06 633571 0 1.51404e+06 646705 0 1.51305e+06 660023 0 1.51201e+06 673532 0 1.51095e+06 687238 0 1.50986e+06 701150 0 1.50873e+06 715273 0 1.50757e+06 729617 0 1.50637e+06 744190 0 1.50514e+06 759000 0 1.50387e+06 774056 0 1.50256e+06 789369 0 1.50121e+06 804947 0 1.49982e+06 820802 0 1.49839e+06 836944 0 1.49692e+06 853385 0 1.4954e+06 870136 0 1.49383e+06 887211 0 1.49222e+06 904623 0 1.49056e+06 922386 0 1.48885e+06 940515 0 1.48709e+06 959026 0 1.48528e+06 977934 0 1.48341e+06 997257 0 1.48149e+06 1.01701e+06 0 1.47951e+06 1.03722e+06 0 1.47747e+06 1.05791e+06 0 1.47538e+06 1.07909e+06 0 1.47322e+06 1.10078e+06 0 1.471e+06 1.12302e+06 0 1.46871e+06 1.14583e+06 0 1.46637e+06 1.16924e+06 0 1.46395e+06 1.19327e+06 0 1.46147e+06 1.21796e+06 0 1.45893e+06 1.24334e+06 0 1.45631e+06 1.26944e+06 0 1.45363e+06 1.29631e+06 0 1.45087e+06 1.32398e+06 0 1.44805e+06 1.3525e+06 0 1.44517e+06 1.38192e+06 0 1.44221e+06 1.41228e+06 0 1.43919e+06 1.44363e+06 0 1.43611e+06 1.47604e+06 0 1.43297e+06 1.50957e+06 0 1.42978e+06 1.54428e+06 0 1.42653e+06 1.58024e+06 0 1.42324e+06 1.61754e+06 0 1.41992e+06 1.65625e+06 0 1.41657e+06 1.69647e+06 0 1.41321e+06 1.73829e+06 0 1.40986e+06 1.78182e+06 0 1.40652e+06 1.82717e+06 0 1.40322e+06 1.87448e+06 0 1.4e+06 1.92387e+06 0 1.39687e+06 1.9755e+06 0 1.39388e+06 2.02953e+06 0 1.39107e+06 2.08614e+06 0 1.3885e+06 2.14552e+06 0 1.38622e+06 2.20789e+06 0 1.38432e+06 2.27349e+06 0 1.38288e+06 2.34258e+06 0 1.38199e+06 2.41545e+06 0 1.38177e+06 2.49245e+06 0 1.38233e+06 2.57392e+06 0 1.38375e+06 2.66028e+06 0 1.53145e+06 -0.635042 0 1.53147e+06 8736.37 0 1.53148e+06 17476.4 0 1.53148e+06 26221.2 0 1.53146e+06 34972.4 0 1.53144e+06 43731.5 0 1.5314e+06 52500 0 1.53135e+06 61279.5 0 1.5313e+06 70071.6 0 1.53123e+06 78877.8 0 1.53115e+06 87699.8 0 1.53106e+06 96539.2 0 1.53095e+06 105397 0 1.53084e+06 114276 0 1.53071e+06 123177 0 1.53058e+06 132103 0 1.53043e+06 141053 0 1.53027e+06 150031 0 1.5301e+06 159038 0 1.52991e+06 168076 0 1.52972e+06 177146 0 1.52951e+06 186251 0 1.52929e+06 195392 0 1.52906e+06 204571 0 1.52881e+06 213790 0 1.52855e+06 223051 0 1.52828e+06 232356 0 1.528e+06 241706 0 1.5277e+06 251105 0 1.52739e+06 260554 0 1.52706e+06 270054 0 1.52672e+06 279609 0 1.52637e+06 289221 0 1.526e+06 298892 0 1.52561e+06 308623 0 1.52521e+06 318418 0 1.5248e+06 328280 0 1.52436e+06 338209 0 1.52392e+06 348210 0 1.52345e+06 358284 0 1.52297e+06 368435 0 1.52247e+06 378666 0 1.52196e+06 388978 0 1.52142e+06 399375 0 1.52087e+06 409861 0 1.52029e+06 420437 0 1.5197e+06 431109 0 1.51909e+06 441877 0 1.51846e+06 452748 0 1.51781e+06 463723 0 1.51713e+06 474806 0 1.51644e+06 486002 0 1.51572e+06 497314 0 1.51497e+06 508746 0 1.51421e+06 520302 0 1.51342e+06 531987 0 1.5126e+06 543806 0 1.51176e+06 555762 0 1.51089e+06 567861 0 1.51e+06 580108 0 1.50907e+06 592508 0 1.50812e+06 605066 0 1.50714e+06 617789 0 1.50613e+06 630681 0 1.50508e+06 643749 0 1.50401e+06 657000 0 1.5029e+06 670440 0 1.50175e+06 684076 0 1.50057e+06 697915 0 1.49936e+06 711964 0 1.4981e+06 726232 0 1.49681e+06 740727 0 1.49548e+06 755457 0 1.4941e+06 770432 0 1.49269e+06 785660 0 1.49123e+06 801151 0 1.48972e+06 816917 0 1.48817e+06 832967 0 1.48657e+06 849314 0 1.48492e+06 865969 0 1.48322e+06 882944 0 1.48147e+06 900253 0 1.47967e+06 917910 0 1.4778e+06 935929 0 1.47588e+06 954327 0 1.4739e+06 973118 0 1.47186e+06 992321 0 1.46976e+06 1.01195e+06 0 1.46759e+06 1.03203e+06 0 1.46536e+06 1.05258e+06 0 1.46305e+06 1.07363e+06 0 1.46068e+06 1.09518e+06 0 1.45823e+06 1.11727e+06 0 1.45571e+06 1.13993e+06 0 1.45311e+06 1.16318e+06 0 1.45044e+06 1.18704e+06 0 1.44769e+06 1.21156e+06 0 1.44485e+06 1.23676e+06 0 1.44193e+06 1.26268e+06 0 1.43893e+06 1.28936e+06 0 1.43584e+06 1.31683e+06 0 1.43266e+06 1.34515e+06 0 1.4294e+06 1.37435e+06 0 1.42605e+06 1.40448e+06 0 1.42261e+06 1.4356e+06 0 1.41908e+06 1.46777e+06 0 1.41547e+06 1.50105e+06 0 1.41178e+06 1.5355e+06 0 1.408e+06 1.57119e+06 0 1.40415e+06 1.6082e+06 0 1.40022e+06 1.64662e+06 0 1.39623e+06 1.68652e+06 0 1.39219e+06 1.72803e+06 0 1.3881e+06 1.77122e+06 0 1.38398e+06 1.81623e+06 0 1.37984e+06 1.86318e+06 0 1.37571e+06 1.9122e+06 0 1.37161e+06 1.96344e+06 0 1.36758e+06 2.01707e+06 0 1.36364e+06 2.07327e+06 0 1.35984e+06 2.13223e+06 0 1.35625e+06 2.19416e+06 0 1.35291e+06 2.25931e+06 0 1.3499e+06 2.32794e+06 0 1.34732e+06 2.40035e+06 0 1.34524e+06 2.47686e+06 0 1.34378e+06 2.55783e+06 0 1.34303e+06 2.64366e+06 0 1.52416e+06 -0.778201 0 1.52419e+06 8692.69 0 1.5242e+06 17389.5 0 1.5242e+06 26091.5 0 1.52419e+06 34800.1 0 1.52416e+06 43517 0 1.52413e+06 52243.6 0 1.52408e+06 60981.5 0 1.52402e+06 69732.2 0 1.52395e+06 78497.3 0 1.52387e+06 87278.4 0 1.52377e+06 96076.9 0 1.52367e+06 104895 0 1.52355e+06 113733 0 1.52342e+06 122594 0 1.52327e+06 131479 0 1.52312e+06 140389 0 1.52295e+06 149327 0 1.52277e+06 158294 0 1.52258e+06 167292 0 1.52237e+06 176322 0 1.52215e+06 185387 0 1.52192e+06 194488 0 1.52167e+06 203627 0 1.52141e+06 212806 0 1.52114e+06 222026 0 1.52085e+06 231291 0 1.52055e+06 240601 0 1.52024e+06 249959 0 1.51991e+06 259367 0 1.51956e+06 268826 0 1.5192e+06 278340 0 1.51882e+06 287910 0 1.51843e+06 297539 0 1.51802e+06 307229 0 1.5176e+06 316981 0 1.51715e+06 326800 0 1.5167e+06 336686 0 1.51622e+06 346644 0 1.51573e+06 356674 0 1.51521e+06 366781 0 1.51468e+06 376966 0 1.51413e+06 387233 0 1.51357e+06 397584 0 1.51298e+06 408023 0 1.51237e+06 418553 0 1.51174e+06 429177 0 1.51109e+06 439897 0 1.51041e+06 450718 0 1.50972e+06 461644 0 1.509e+06 472677 0 1.50825e+06 483821 0 1.50749e+06 495081 0 1.50669e+06 506460 0 1.50588e+06 517962 0 1.50503e+06 529593 0 1.50416e+06 541355 0 1.50326e+06 553255 0 1.50233e+06 565296 0 1.50138e+06 577483 0 1.50039e+06 589823 0 1.49937e+06 602319 0 1.49832e+06 614979 0 1.49724e+06 627807 0 1.49612e+06 640809 0 1.49497e+06 653993 0 1.49378e+06 667364 0 1.49255e+06 680929 0 1.49129e+06 694696 0 1.48998e+06 708671 0 1.48864e+06 722863 0 1.48725e+06 737280 0 1.48582e+06 751930 0 1.48435e+06 766823 0 1.48282e+06 781967 0 1.48125e+06 797372 0 1.47963e+06 813048 0 1.47796e+06 829007 0 1.47624e+06 845259 0 1.47446e+06 861817 0 1.47263e+06 878692 0 1.47074e+06 895898 0 1.46879e+06 913448 0 1.46677e+06 931358 0 1.4647e+06 949642 0 1.46255e+06 968316 0 1.46034e+06 987398 0 1.45806e+06 1.00691e+06 0 1.4557e+06 1.02686e+06 0 1.45327e+06 1.04727e+06 0 1.45076e+06 1.06818e+06 0 1.44818e+06 1.08959e+06 0 1.44551e+06 1.11153e+06 0 1.44275e+06 1.13403e+06 0 1.43991e+06 1.15712e+06 0 1.43697e+06 1.18082e+06 0 1.43395e+06 1.20517e+06 0 1.43083e+06 1.23019e+06 0 1.42761e+06 1.25592e+06 0 1.42429e+06 1.28241e+06 0 1.42086e+06 1.30968e+06 0 1.41734e+06 1.33778e+06 0 1.4137e+06 1.36677e+06 0 1.40996e+06 1.39667e+06 0 1.40611e+06 1.42756e+06 0 1.40214e+06 1.45948e+06 0 1.39807e+06 1.4925e+06 0 1.39388e+06 1.52668e+06 0 1.38958e+06 1.5621e+06 0 1.38517e+06 1.59882e+06 0 1.38065e+06 1.63693e+06 0 1.37603e+06 1.67652e+06 0 1.37131e+06 1.7177e+06 0 1.36649e+06 1.76055e+06 0 1.3616e+06 1.8052e+06 0 1.35663e+06 1.85178e+06 0 1.35161e+06 1.90041e+06 0 1.34656e+06 1.95125e+06 0 1.34149e+06 2.00447e+06 0 1.33644e+06 2.06023e+06 0 1.33144e+06 2.11873e+06 0 1.32653e+06 2.1802e+06 0 1.32178e+06 2.24488e+06 0 1.31723e+06 2.31302e+06 0 1.31297e+06 2.38491e+06 0 1.30907e+06 2.4609e+06 0 1.30562e+06 2.54133e+06 0 1.30271e+06 2.62659e+06 0 1.51688e+06 -0.91757 0 1.51691e+06 8649.43 0 1.51692e+06 17303.4 0 1.51692e+06 25963 0 1.51691e+06 34629.5 0 1.51689e+06 43304.6 0 1.51685e+06 51989.6 0 1.51681e+06 60686.2 0 1.51675e+06 69395.9 0 1.51667e+06 78120.2 0 1.51659e+06 86860.6 0 1.51649e+06 95618.8 0 1.51638e+06 104396 0 1.51626e+06 113195 0 1.51612e+06 122015 0 1.51597e+06 130860 0 1.51581e+06 139731 0 1.51563e+06 148629 0 1.51544e+06 157556 0 1.51524e+06 166515 0 1.51502e+06 175505 0 1.51479e+06 184530 0 1.51455e+06 193591 0 1.51429e+06 202691 0 1.51401e+06 211829 0 1.51373e+06 221010 0 1.51342e+06 230234 0 1.5131e+06 239504 0 1.51277e+06 248822 0 1.51242e+06 258189 0 1.51205e+06 267608 0 1.51167e+06 277081 0 1.51128e+06 286610 0 1.51086e+06 296197 0 1.51043e+06 305844 0 1.50998e+06 315555 0 1.50951e+06 325331 0 1.50903e+06 335174 0 1.50852e+06 345088 0 1.508e+06 355075 0 1.50746e+06 365138 0 1.50689e+06 375278 0 1.50631e+06 385500 0 1.50571e+06 395806 0 1.50508e+06 406199 0 1.50444e+06 416682 0 1.50377e+06 427258 0 1.50308e+06 437930 0 1.50236e+06 448702 0 1.50162e+06 459578 0 1.50086e+06 470561 0 1.50007e+06 481654 0 1.49925e+06 492862 0 1.49841e+06 504188 0 1.49754e+06 515637 0 1.49665e+06 527212 0 1.49572e+06 538919 0 1.49476e+06 550762 0 1.49378e+06 562745 0 1.49276e+06 574874 0 1.49171e+06 587153 0 1.49062e+06 599588 0 1.48951e+06 612185 0 1.48835e+06 624948 0 1.48716e+06 637885 0 1.48593e+06 651002 0 1.48467e+06 664304 0 1.48336e+06 677798 0 1.48201e+06 691493 0 1.48062e+06 705395 0 1.47918e+06 719511 0 1.4777e+06 733850 0 1.47617e+06 748420 0 1.4746e+06 763231 0 1.47297e+06 778290 0 1.47129e+06 793609 0 1.46956e+06 809196 0 1.46777e+06 825063 0 1.46592e+06 841221 0 1.46402e+06 857681 0 1.46205e+06 874456 0 1.46002e+06 891558 0 1.45793e+06 909002 0 1.45576e+06 926802 0 1.45353e+06 944972 0 1.45122e+06 963529 0 1.44884e+06 982489 0 1.44638e+06 1.00187e+06 0 1.44384e+06 1.02169e+06 0 1.44122e+06 1.04198e+06 0 1.43851e+06 1.06274e+06 0 1.43571e+06 1.08401e+06 0 1.43282e+06 1.1058e+06 0 1.42983e+06 1.12815e+06 0 1.42674e+06 1.15107e+06 0 1.42355e+06 1.1746e+06 0 1.42026e+06 1.19878e+06 0 1.41685e+06 1.22362e+06 0 1.41334e+06 1.24916e+06 0 1.40971e+06 1.27545e+06 0 1.40596e+06 1.30252e+06 0 1.40208e+06 1.33041e+06 0 1.39808e+06 1.35918e+06 0 1.39395e+06 1.38885e+06 0 1.38969e+06 1.4195e+06 0 1.3853e+06 1.45117e+06 0 1.38076e+06 1.48393e+06 0 1.37609e+06 1.51784e+06 0 1.37127e+06 1.55297e+06 0 1.36631e+06 1.58939e+06 0 1.3612e+06 1.6272e+06 0 1.35596e+06 1.66647e+06 0 1.35057e+06 1.7073e+06 0 1.34505e+06 1.7498e+06 0 1.33939e+06 1.79409e+06 0 1.3336e+06 1.84028e+06 0 1.32771e+06 1.88851e+06 0 1.3217e+06 1.93893e+06 0 1.31562e+06 1.99171e+06 0 1.30947e+06 2.04702e+06 0 1.30328e+06 2.10505e+06 0 1.29709e+06 2.16603e+06 0 1.29093e+06 2.2302e+06 0 1.28487e+06 2.29781e+06 0 1.27895e+06 2.36916e+06 0 1.27325e+06 2.44458e+06 0 1.26783e+06 2.52442e+06 0 1.2628e+06 2.60907e+06 0 1.5096e+06 -1.05318 0 1.50963e+06 8606.59 0 1.50965e+06 17218.2 0 1.50965e+06 25835.7 0 1.50964e+06 34460.5 0 1.50962e+06 43094.1 0 1.50958e+06 51738 0 1.50954e+06 60393.7 0 1.50947e+06 69062.7 0 1.5094e+06 77746.5 0 1.50931e+06 86446.7 0 1.50921e+06 95164.8 0 1.50909e+06 103902 0 1.50897e+06 112661 0 1.50882e+06 121442 0 1.50867e+06 130247 0 1.5085e+06 139078 0 1.50831e+06 147937 0 1.50811e+06 156825 0 1.5079e+06 165744 0 1.50767e+06 174695 0 1.50743e+06 183681 0 1.50717e+06 192702 0 1.5069e+06 201762 0 1.50661e+06 210861 0 1.50631e+06 220002 0 1.50599e+06 229187 0 1.50565e+06 238416 0 1.5053e+06 247694 0 1.50493e+06 257021 0 1.50455e+06 266399 0 1.50415e+06 275831 0 1.50373e+06 285319 0 1.50329e+06 294864 0 1.50283e+06 304471 0 1.50236e+06 314139 0 1.50186e+06 323873 0 1.50135e+06 333674 0 1.50082e+06 343545 0 1.50027e+06 353488 0 1.49969e+06 363506 0 1.4991e+06 373603 0 1.49848e+06 383780 0 1.49785e+06 394040 0 1.49718e+06 404387 0 1.4965e+06 414823 0 1.49579e+06 425352 0 1.49506e+06 435976 0 1.49431e+06 446700 0 1.49352e+06 457526 0 1.49272e+06 468459 0 1.49188e+06 479501 0 1.49102e+06 490657 0 1.49013e+06 501931 0 1.48921e+06 513326 0 1.48826e+06 524847 0 1.48728e+06 536498 0 1.48626e+06 548284 0 1.48522e+06 560210 0 1.48414e+06 572280 0 1.48303e+06 584499 0 1.48188e+06 596873 0 1.48069e+06 609406 0 1.47947e+06 622106 0 1.4782e+06 634977 0 1.4769e+06 648027 0 1.47556e+06 661260 0 1.47417e+06 674684 0 1.47273e+06 688307 0 1.47126e+06 702135 0 1.46973e+06 716175 0 1.46816e+06 730436 0 1.46653e+06 744927 0 1.46485e+06 759655 0 1.46312e+06 774630 0 1.46133e+06 789862 0 1.45949e+06 805360 0 1.45758e+06 821136 0 1.45562e+06 837199 0 1.45359e+06 853561 0 1.45149e+06 870236 0 1.44932e+06 887235 0 1.44708e+06 904572 0 1.44477e+06 922261 0 1.44239e+06 940317 0 1.43992e+06 958756 0 1.43737e+06 977595 0 1.43473e+06 996851 0 1.43201e+06 1.01654e+06 0 1.42919e+06 1.03669e+06 0 1.42628e+06 1.05731e+06 0 1.42327e+06 1.07843e+06 0 1.42016e+06 1.10008e+06 0 1.41695e+06 1.12227e+06 0 1.41362e+06 1.14503e+06 0 1.41018e+06 1.16839e+06 0 1.40662e+06 1.19239e+06 0 1.40294e+06 1.21705e+06 0 1.39913e+06 1.24241e+06 0 1.39519e+06 1.2685e+06 0 1.39111e+06 1.29536e+06 0 1.3869e+06 1.32304e+06 0 1.38254e+06 1.35158e+06 0 1.37803e+06 1.38102e+06 0 1.37336e+06 1.41143e+06 0 1.36854e+06 1.44285e+06 0 1.36355e+06 1.47534e+06 0 1.3584e+06 1.50897e+06 0 1.35307e+06 1.54381e+06 0 1.34757e+06 1.57993e+06 0 1.34189e+06 1.61742e+06 0 1.33603e+06 1.65636e+06 0 1.32998e+06 1.69684e+06 0 1.32375e+06 1.73898e+06 0 1.31734e+06 1.78289e+06 0 1.31076e+06 1.82868e+06 0 1.30399e+06 1.8765e+06 0 1.29706e+06 1.92649e+06 0 1.28997e+06 1.97881e+06 0 1.28273e+06 2.03364e+06 0 1.27538e+06 2.09118e+06 0 1.26792e+06 2.15165e+06 0 1.26038e+06 2.21527e+06 0 1.25282e+06 2.28233e+06 0 1.24527e+06 2.3531e+06 0 1.23779e+06 2.42791e+06 0 1.23044e+06 2.50712e+06 0 1.22329e+06 2.59112e+06 0 1.50233e+06 -1.18507 0 1.50236e+06 8564.17 0 1.50238e+06 17133.8 0 1.50238e+06 25709.6 0 1.50237e+06 34293.1 0 1.50235e+06 42885.7 0 1.50232e+06 51488.8 0 1.50227e+06 60103.9 0 1.5022e+06 68732.6 0 1.50213e+06 77376.4 0 1.50203e+06 86036.6 0 1.50193e+06 94714.9 0 1.50181e+06 103413 0 1.50167e+06 112132 0 1.50153e+06 120874 0 1.50136e+06 129640 0 1.50118e+06 138432 0 1.50099e+06 147251 0 1.50078e+06 156100 0 1.50056e+06 164979 0 1.50032e+06 173892 0 1.50007e+06 182838 0 1.4998e+06 191821 0 1.49951e+06 200841 0 1.49921e+06 209901 0 1.49889e+06 219002 0 1.49855e+06 228147 0 1.4982e+06 237337 0 1.49783e+06 246575 0 1.49744e+06 255862 0 1.49704e+06 265200 0 1.49661e+06 274591 0 1.49617e+06 284038 0 1.49571e+06 293543 0 1.49523e+06 303107 0 1.49473e+06 312734 0 1.49421e+06 322426 0 1.49367e+06 332184 0 1.49311e+06 342012 0 1.49253e+06 351913 0 1.49193e+06 361887 0 1.4913e+06 371939 0 1.49065e+06 382072 0 1.48998e+06 392287 0 1.48928e+06 402588 0 1.48856e+06 412977 0 1.48782e+06 423459 0 1.48705e+06 434036 0 1.48625e+06 444711 0 1.48543e+06 455489 0 1.48457e+06 466371 0 1.48369e+06 477363 0 1.48278e+06 488467 0 1.48184e+06 499688 0 1.48087e+06 511030 0 1.47987e+06 522497 0 1.47883e+06 534093 0 1.47777e+06 545822 0 1.47666e+06 557690 0 1.47552e+06 569701 0 1.47435e+06 581860 0 1.47313e+06 594173 0 1.47188e+06 606644 0 1.47058e+06 619280 0 1.46925e+06 632086 0 1.46787e+06 645068 0 1.46645e+06 658233 0 1.46498e+06 671587 0 1.46346e+06 685138 0 1.4619e+06 698892 0 1.46028e+06 712856 0 1.45862e+06 727040 0 1.4569e+06 741451 0 1.45512e+06 756097 0 1.45328e+06 770988 0 1.45139e+06 786133 0 1.44943e+06 801542 0 1.44741e+06 817225 0 1.44533e+06 833194 0 1.44317e+06 849459 0 1.44094e+06 866033 0 1.43864e+06 882928 0 1.43626e+06 900158 0 1.4338e+06 917736 0 1.43126e+06 935678 0 1.42863e+06 953999 0 1.42592e+06 972715 0 1.42311e+06 991844 0 1.42021e+06 1.0114e+06 0 1.4172e+06 1.03142e+06 0 1.41409e+06 1.0519e+06 0 1.41088e+06 1.07287e+06 0 1.40755e+06 1.09437e+06 0 1.40411e+06 1.1164e+06 0 1.40054e+06 1.139e+06 0 1.39685e+06 1.16219e+06 0 1.39303e+06 1.18601e+06 0 1.38907e+06 1.21049e+06 0 1.38498e+06 1.23565e+06 0 1.38073e+06 1.26154e+06 0 1.37634e+06 1.2882e+06 0 1.37178e+06 1.31566e+06 0 1.36707e+06 1.34397e+06 0 1.36218e+06 1.37318e+06 0 1.35712e+06 1.40334e+06 0 1.35187e+06 1.4345e+06 0 1.34644e+06 1.46672e+06 0 1.34081e+06 1.50007e+06 0 1.33498e+06 1.53462e+06 0 1.32895e+06 1.57043e+06 0 1.3227e+06 1.60759e+06 0 1.31623e+06 1.64619e+06 0 1.30954e+06 1.68632e+06 0 1.30262e+06 1.72809e+06 0 1.29547e+06 1.77161e+06 0 1.28809e+06 1.81699e+06 0 1.28047e+06 1.86438e+06 0 1.27262e+06 1.91392e+06 0 1.26454e+06 1.96577e+06 0 1.25624e+06 2.02011e+06 0 1.24773e+06 2.07714e+06 0 1.23902e+06 2.13706e+06 0 1.23013e+06 2.20012e+06 0 1.22109e+06 2.26658e+06 0 1.21194e+06 2.33673e+06 0 1.2027e+06 2.4109e+06 0 1.19343e+06 2.48943e+06 0 1.18421e+06 2.57273e+06 0 1.49505e+06 -1.31327 0 1.49509e+06 8522.19 0 1.49511e+06 17050.2 0 1.49512e+06 25584.8 0 1.49511e+06 34127.4 0 1.49509e+06 42679.3 0 1.49505e+06 51242 0 1.495e+06 59817 0 1.49494e+06 68405.7 0 1.49485e+06 77009.7 0 1.49476e+06 85630.4 0 1.49465e+06 94269.3 0 1.49452e+06 102928 0 1.49438e+06 111608 0 1.49423e+06 120311 0 1.49406e+06 129038 0 1.49387e+06 137791 0 1.49367e+06 146571 0 1.49345e+06 155381 0 1.49322e+06 164222 0 1.49297e+06 173095 0 1.4927e+06 182003 0 1.49242e+06 190947 0 1.49212e+06 199928 0 1.4918e+06 208949 0 1.49147e+06 218011 0 1.49111e+06 227117 0 1.49074e+06 236267 0 1.49036e+06 245465 0 1.48995e+06 254712 0 1.48953e+06 264010 0 1.48908e+06 273361 0 1.48862e+06 282768 0 1.48813e+06 292231 0 1.48763e+06 301755 0 1.48711e+06 311340 0 1.48656e+06 320990 0 1.48599e+06 330707 0 1.4854e+06 340492 0 1.48479e+06 350349 0 1.48416e+06 360280 0 1.4835e+06 370288 0 1.48282e+06 380376 0 1.48211e+06 390546 0 1.48138e+06 400801 0 1.48063e+06 411145 0 1.47984e+06 421580 0 1.47903e+06 432109 0 1.47819e+06 442737 0 1.47733e+06 453465 0 1.47643e+06 464298 0 1.4755e+06 475239 0 1.47455e+06 486292 0 1.47356e+06 497461 0 1.47254e+06 508749 0 1.47148e+06 520162 0 1.47039e+06 531703 0 1.46927e+06 543376 0 1.4681e+06 555186 0 1.4669e+06 567139 0 1.46567e+06 579238 0 1.46439e+06 591490 0 1.46307e+06 603899 0 1.4617e+06 616470 0 1.4603e+06 629211 0 1.45884e+06 642126 0 1.45735e+06 655223 0 1.4558e+06 668507 0 1.4542e+06 681986 0 1.45255e+06 695666 0 1.45085e+06 709555 0 1.44909e+06 723661 0 1.44727e+06 737992 0 1.44539e+06 752556 0 1.44346e+06 767363 0 1.44146e+06 782421 0 1.43939e+06 797740 0 1.43725e+06 813332 0 1.43505e+06 829206 0 1.43277e+06 845373 0 1.43041e+06 861846 0 1.42797e+06 878637 0 1.42546e+06 895760 0 1.42285e+06 913227 0 1.42016e+06 931055 0 1.41737e+06 949257 0 1.41449e+06 967850 0 1.41151e+06 986853 0 1.40843e+06 1.00628e+06 0 1.40524e+06 1.02616e+06 0 1.40193e+06 1.0465e+06 0 1.39851e+06 1.06733e+06 0 1.39497e+06 1.08866e+06 0 1.3913e+06 1.11054e+06 0 1.38751e+06 1.13297e+06 0 1.38357e+06 1.156e+06 0 1.37949e+06 1.17964e+06 0 1.37526e+06 1.20393e+06 0 1.37088e+06 1.2289e+06 0 1.36634e+06 1.25459e+06 0 1.36162e+06 1.28104e+06 0 1.35674e+06 1.30828e+06 0 1.35167e+06 1.33636e+06 0 1.34641e+06 1.36533e+06 0 1.34096e+06 1.39524e+06 0 1.3353e+06 1.42614e+06 0 1.32943e+06 1.45809e+06 0 1.32333e+06 1.49115e+06 0 1.31701e+06 1.52539e+06 0 1.31045e+06 1.56089e+06 0 1.30364e+06 1.59773e+06 0 1.29657e+06 1.63598e+06 0 1.28924e+06 1.67575e+06 0 1.28164e+06 1.71713e+06 0 1.27376e+06 1.76025e+06 0 1.2656e+06 1.80521e+06 0 1.25714e+06 1.85216e+06 0 1.24839e+06 1.90124e+06 0 1.23934e+06 1.9526e+06 0 1.22999e+06 2.00643e+06 0 1.22034e+06 2.06291e+06 0 1.2104e+06 2.12227e+06 0 1.20018e+06 2.18474e+06 0 1.18969e+06 2.25058e+06 0 1.17895e+06 2.32007e+06 0 1.16798e+06 2.39355e+06 0 1.15683e+06 2.47137e+06 0 1.14555e+06 2.55392e+06 0 1.48779e+06 -1.43782 0 1.48783e+06 8480.64 0 1.48785e+06 16967.5 0 1.48786e+06 25461.3 0 1.48785e+06 33963.3 0 1.48783e+06 42474.9 0 1.48779e+06 50997.6 0 1.48774e+06 59532.8 0 1.48767e+06 68082 0 1.48759e+06 76646.6 0 1.48749e+06 85228.1 0 1.48737e+06 93827.9 0 1.48724e+06 102448 0 1.48709e+06 111089 0 1.48693e+06 119753 0 1.48675e+06 128441 0 1.48656e+06 137156 0 1.48635e+06 145898 0 1.48612e+06 154669 0 1.48588e+06 163471 0 1.48561e+06 172306 0 1.48533e+06 181175 0 1.48504e+06 190080 0 1.48472e+06 199023 0 1.48439e+06 208005 0 1.48404e+06 217028 0 1.48367e+06 226095 0 1.48329e+06 235206 0 1.48288e+06 244365 0 1.48246e+06 253572 0 1.48201e+06 262830 0 1.48155e+06 272141 0 1.48106e+06 281508 0 1.48055e+06 290931 0 1.48003e+06 300413 0 1.47948e+06 309958 0 1.47891e+06 319566 0 1.47831e+06 329240 0 1.47769e+06 338983 0 1.47705e+06 348798 0 1.47639e+06 358686 0 1.4757e+06 368650 0 1.4749