<?xml version="1.0"?> 
<VTKFile type="StructuredGrid" version="0.1"> 
<StructuredGrid WholeExtent="0 127 0 127 0 0"> 
<Piece Extent="0 127 0 127 0 0"> 
<PointData>
<DataArray type="Float32" Name="E" format="ascii" NumberOfComponents="3"> 
-891113 -3.18443e+06 0 -886405 -3.19162e+06 0 -881705 -3.19884e+06 0 -877001 -3.20607e+06 0 -872292 -3.2133e+06 0 -867580 -3.22054e+06 0 -862865 -3.22778e+06 0 -858148 -3.23502e+06 0 -853430 -3.24227e+06 0 -848711 -3.24953e+06 0 -843992 -3.2568e+06 0 -839275 -3.26407e+06 0 -834559 -3.27135e+06 0 -829846 -3.27864e+06 0 -825137 -3.28594e+06 0 -820432 -3.29325e+06 0 -815733 -3.30057e+06 0 -811040 -3.30791e+06 0 -806355 -3.31526e+06 0 -801678 -3.32262e+06 0 -797011 -3.32999e+06 0 -792355 -3.33739e+06 0 -787711 -3.3448e+06 0 -783080 -3.35223e+06 0 -778464 -3.35968e+06 0 -773862 -3.36715e+06 0 -769278 -3.37464e+06 0 -764712 -3.38216e+06 0 -760166 -3.3897e+06 0 -755641 -3.39727e+06 0 -751137 -3.40487e+06 0 -746658 -3.4125e+06 0 -742204 -3.42017e+06 0 -737777 -3.42787e+06 0 -733377 -3.43561e+06 0 -729008 -3.44338e+06 0 -724670 -3.4512e+06 0 -720365 -3.45907e+06 0 -716095 -3.46698e+06 0 -711861 -3.47494e+06 0 -707666 -3.48296e+06 0 -703509 -3.49103e+06 0 -699395 -3.49917e+06 0 -695323 -3.50736e+06 0 -691297 -3.51562e+06 0 -687317 -3.52396e+06 0 -683386 -3.53237e+06 0 -679505 -3.54085e+06 0 -675677 -3.54942e+06 0 -671902 -3.55808e+06 0 -668184 -3.56683e+06 0 -664524 -3.57568e+06 0 -660923 -3.58463e+06 0 -657384 -3.59369e+06 0 -653909 -3.60287e+06 0 -650499 -3.61216e+06 0 -647157 -3.62158e+06 0 -643884 -3.63114e+06 0 -640682 -3.64083e+06 0 -637554 -3.65067e+06 0 -634502 -3.66067e+06 0 -631526 -3.67083e+06 0 -628631 -3.68116e+06 0 -625817 -3.69167e+06 0 -623087 -3.70237e+06 0 -620443 -3.71327e+06 0 -617887 -3.72437e+06 0 -615421 -3.7357e+06 0 -613049 -3.74726e+06 0 -610771 -3.75906e+06 0 -608592 -3.77111e+06 0 -606513 -3.78343e+06 0 -604537 -3.79604e+06 0 -602667 -3.80894e+06 0 -600906 -3.82216e+06 0 -599258 -3.8357e+06 0 -597725 -3.8496e+06 0 -596311 -3.86385e+06 0 -595019 -3.8785e+06 0 -593854 -3.89356e+06 0 -592818 -3.90904e+06 0 -591916 -3.92499e+06 0 -591153 -3.94142e+06 0 -590531 -3.95837e+06 0 -590055 -3.97587e+06 0 -589729 -3.99394e+06 0 -589556 -4.01264e+06 0 -589540 -4.032e+06 0 -589683 -4.05207e+06 0 -589988 -4.07289e+06 0 -590456 -4.09452e+06 0 -591086 -4.11702e+06 0 -591878 -4.14044e+06 0 -592827 -4.16487e+06 0 -593928 -4.19037e+06 0 -595172 -4.21702e+06 0 -596547 -4.24491e+06 0 -598037 -4.27415e+06 0 -599619 -4.30483e+06 0 -601267 -4.33706e+06 0 -602946 -4.37098e+06 0 -604614 -4.4067e+06 0 -606219 -4.44438e+06 0 -607698 -4.48417e+06 0 -608976 -4.52624e+06 0 -609964 -4.57075e+06 0 -610555 -4.6179e+06 0 -610625 -4.66789e+06 0 -610027 -4.72094e+06 0 -608594 -4.77726e+06 0 -606129 -4.8371e+06 0 -602405 -4.90071e+06 0 -597163 -4.96834e+06 0 -590106 -5.04028e+06 0 -580896 -5.11681e+06 0 -569148 -5.19821e+06 0 -554427 -5.28478e+06 0 -536239 -5.37684e+06 0 -514030 -5.47468e+06 0 -487175 -5.57862e+06 0 -454972 -5.68895e+06 0 -416633 -5.80597e+06 0 -371276 -5.92998e+06 0 -317909 -6.06122e+06 0 -255419 -6.19997e+06 0 -182567 -6.34634e+06 0 -97866.5 -6.50079e+06 0 -2.86102e-06 -6.66241e+06 0 -887398 -3.16817e+06 0 -882686 -3.1753e+06 0 -877963 -3.18242e+06 0 -873238 -3.18954e+06 0 -868509 -3.19667e+06 0 -863775 -3.2038e+06 0 -859038 -3.21093e+06 0 -854298 -3.21807e+06 0 -849555 -3.22522e+06 0 -844811 -3.23237e+06 0 -840066 -3.23954e+06 0 -835321 -3.2467e+06 0 -830577 -3.25388e+06 0 -825833 -3.26106e+06 0 -821093 -3.26826e+06 0 -816355 -3.27546e+06 0 -811621 -3.28268e+06 0 -806892 -3.28991e+06 0 -802168 -3.29715e+06 0 -797452 -3.3044e+06 0 -792743 -3.31167e+06 0 -788043 -3.31895e+06 0 -783352 -3.32625e+06 0 -778673 -3.33357e+06 0 -774005 -3.34091e+06 0 -769351 -3.34827e+06 0 -764711 -3.35565e+06 0 -760086 -3.36305e+06 0 -755478 -3.37048e+06 0 -750889 -3.37793e+06 0 -746318 -3.38542e+06 0 -741768 -3.39293e+06 0 -737239 -3.40047e+06 0 -732734 -3.40805e+06 0 -728253 -3.41566e+06 0 -723799 -3.42331e+06 0 -719371 -3.431e+06 0 -714973 -3.43874e+06 0 -710605 -3.44652e+06 0 -706269 -3.45434e+06 0 -701966 -3.46222e+06 0 -697697 -3.47015e+06 0 -693466 -3.47814e+06 0 -689272 -3.48619e+06 0 -685117 -3.4943e+06 0 -681004 -3.50248e+06 0 -676933 -3.51073e+06 0 -672907 -3.51905e+06 0 -668926 -3.52745e+06 0 -664993 -3.53593e+06 0 -661109 -3.5445e+06 0 -657276 -3.55317e+06 0 -653495 -3.56193e+06 0 -649769 -3.57079e+06 0 -646098 -3.57976e+06 0 -642484 -3.58884e+06 0 -638929 -3.59804e+06 0 -635435 -3.60737e+06 0 -632002 -3.61683e+06 0 -628634 -3.62642e+06 0 -625331 -3.63616e+06 0 -622095 -3.64606e+06 0 -618928 -3.65611e+06 0 -615832 -3.66633e+06 0 -612807 -3.67673e+06 0 -609856 -3.68732e+06 0 -606980 -3.6981e+06 0 -604181 -3.70908e+06 0 -601461 -3.72028e+06 0 -598822 -3.73171e+06 0 -596264 -3.74337e+06 0 -593791 -3.75529e+06 0 -591403 -3.76746e+06 0 -589104 -3.77991e+06 0 -586893 -3.79266e+06 0 -584775 -3.80571e+06 0 -582750 -3.81908e+06 0 -580821 -3.83278e+06 0 -578989 -3.84685e+06 0 -577258 -3.86129e+06 0 -575629 -3.87614e+06 0 -574104 -3.8914e+06 0 -572685 -3.90711e+06 0 -571374 -3.92329e+06 0 -570173 -3.93997e+06 0 -569084 -3.95717e+06 0 -568107 -3.97495e+06 0 -567245 -3.99332e+06 0 -566496 -4.01233e+06 0 -565860 -4.03201e+06 0 -565337 -4.05242e+06 0 -564923 -4.07361e+06 0 -564614 -4.09562e+06 0 -564405 -4.11852e+06 0 -564288 -4.14236e+06 0 -564252 -4.16723e+06 0 -564284 -4.19318e+06 0 -564367 -4.2203e+06 0 -564479 -4.24869e+06 0 -564594 -4.27842e+06 0 -564679 -4.3096e+06 0 -564695 -4.34235e+06 0 -564596 -4.37677e+06 0 -564325 -4.413e+06 0 -563815 -4.45117e+06 0 -562988 -4.49142e+06 0 -561753 -4.53391e+06 0 -560001 -4.5788e+06 0 -557609 -4.62626e+06 0 -554433 -4.67648e+06 0 -550306 -4.72964e+06 0 -545038 -4.78595e+06 0 -538412 -4.84562e+06 0 -530181 -4.90887e+06 0 -520061 -4.97593e+06 0 -507736 -5.04701e+06 0 -492843 -5.12237e+06 0 -474978 -5.20224e+06 0 -453685 -5.28685e+06 0 -428451 -5.37646e+06 0 -398706 -5.47128e+06 0 -363808 -5.57156e+06 0 -323045 -5.67749e+06 0 -275622 -5.78927e+06 0 -220651 -5.90707e+06 0 -157151 -6.03103e+06 0 -84020.3 -6.16122e+06 0 1.83843e-06 -6.29782e+06 0 -883711 -3.152e+06 0 -878981 -3.15902e+06 0 -874244 -3.16603e+06 0 -869499 -3.17305e+06 0 -864749 -3.18008e+06 0 -859995 -3.1871e+06 0 -855237 -3.19413e+06 0 -850475 -3.20117e+06 0 -845710 -3.20821e+06 0 -840942 -3.21526e+06 0 -836172 -3.22232e+06 0 -831401 -3.22938e+06 0 -826629 -3.23645e+06 0 -821857 -3.24353e+06 0 -817087 -3.25062e+06 0 -812318 -3.25772e+06 0 -807551 -3.26483e+06 0 -802788 -3.27195e+06 0 -798029 -3.27908e+06 0 -793274 -3.28623e+06 0 -788526 -3.29338e+06 0 -783785 -3.30056e+06 0 -779051 -3.30775e+06 0 -774326 -3.31496e+06 0 -769611 -3.32218e+06 0 -764907 -3.32943e+06 0 -760215 -3.3367e+06 0 -755536 -3.34398e+06 0 -750870 -3.3513e+06 0 -746220 -3.35863e+06 0 -741586 -3.366e+06 0 -736970 -3.37339e+06 0 -732372 -3.38081e+06 0 -727795 -3.38827e+06 0 -723238 -3.39576e+06 0 -718704 -3.40328e+06 0 -714194 -3.41085e+06 0 -709708 -3.41845e+06 0 -705249 -3.4261e+06 0 -700817 -3.43379e+06 0 -696415 -3.44153e+06 0 -692043 -3.44932e+06 0 -687702 -3.45716e+06 0 -683394 -3.46506e+06 0 -679121 -3.47302e+06 0 -674884 -3.48104e+06 0 -670684 -3.48913e+06 0 -666523 -3.49729e+06 0 -662401 -3.50553e+06 0 -658322 -3.51384e+06 0 -654285 -3.52223e+06 0 -650292 -3.53071e+06 0 -646345 -3.53929e+06 0 -642444 -3.54795e+06 0 -638593 -3.55672e+06 0 -634791 -3.5656e+06 0 -631040 -3.57458e+06 0 -627342 -3.58368e+06 0 -623697 -3.59291e+06 0 -620108 -3.60227e+06 0 -616575 -3.61176e+06 0 -613100 -3.62139e+06 0 -609684 -3.63118e+06 0 -606328 -3.64112e+06 0 -603034 -3.65122e+06 0 -599802 -3.6615e+06 0 -596634 -3.67197e+06 0 -593531 -3.68262e+06 0 -590495 -3.69347e+06 0 -587525 -3.70454e+06 0 -584625 -3.71582e+06 0 -581794 -3.72734e+06 0 -579034 -3.7391e+06 0 -576345 -3.75112e+06 0 -573730 -3.76341e+06 0 -571189 -3.77598e+06 0 -568722 -3.78885e+06 0 -566332 -3.80203e+06 0 -564019 -3.81554e+06 0 -561784 -3.8294e+06 0 -559627 -3.84362e+06 0 -557550 -3.85823e+06 0 -555553 -3.87325e+06 0 -553636 -3.8887e+06 0 -551800 -3.90461e+06 0 -550045 -3.92099e+06 0 -548369 -3.93789e+06 0 -546772 -3.95533e+06 0 -545252 -3.97335e+06 0 -543808 -3.99198e+06 0 -542435 -4.01125e+06 0 -541129 -4.03122e+06 0 -539884 -4.05193e+06 0 -538694 -4.07342e+06 0 -537549 -4.09575e+06 0 -536437 -4.11898e+06 0 -535344 -4.14317e+06 0 -534254 -4.16839e+06 0 -533144 -4.1947e+06 0 -531990 -4.22219e+06 0 -530761 -4.25094e+06 0 -529422 -4.28103e+06 0 -527929 -4.31258e+06 0 -526232 -4.34567e+06 0 -524273 -4.38042e+06 0 -521983 -4.41695e+06 0 -519281 -4.45538e+06 0 -516076 -4.49584e+06 0 -512260 -4.53848e+06 0 -507712 -4.58343e+06 0 -502290 -4.63087e+06 0 -495833 -4.68094e+06 0 -488161 -4.73382e+06 0 -479064 -4.78968e+06 0 -468308 -4.84871e+06 0 -455630 -4.91107e+06 0 -440729 -4.97697e+06 0 -423273 -5.04659e+06 0 -402885 -5.12012e+06 0 -379146 -5.19774e+06 0 -351589 -5.27964e+06 0 -319692 -5.36597e+06 0 -282878 -5.45691e+06 0 -240503 -5.5526e+06 0 -191857 -5.65315e+06 0 -136151 -5.75866e+06 0 -72517.6 -5.86916e+06 0 -8.56817e-07 -5.98476e+06 0 -880045 -3.13587e+06 0 -875297 -3.14278e+06 0 -870543 -3.14969e+06 0 -865782 -3.15661e+06 0 -861013 -3.16353e+06 0 -856240 -3.17045e+06 0 -851461 -3.17738e+06 0 -846678 -3.18431e+06 0 -841892 -3.19125e+06 0 -837101 -3.1982e+06 0 -832308 -3.20515e+06 0 -827512 -3.2121e+06 0 -822715 -3.21907e+06 0 -817916 -3.22604e+06 0 -813118 -3.23303e+06 0 -808319 -3.24002e+06 0 -803522 -3.24702e+06 0 -798727 -3.25403e+06 0 -793934 -3.26106e+06 0 -789145 -3.26809e+06 0 -784360 -3.27514e+06 0 -779580 -3.28221e+06 0 -774806 -3.28929e+06 0 -770038 -3.29639e+06 0 -765279 -3.3035e+06 0 -760528 -3.31063e+06 0 -755787 -3.31779e+06 0 -751057 -3.32496e+06 0 -746338 -3.33216e+06 0 -741631 -3.33938e+06 0 -736939 -3.34662e+06 0 -732261 -3.3539e+06 0 -727599 -3.3612e+06 0 -722954 -3.36853e+06 0 -718326 -3.3759e+06 0 -713718 -3.3833e+06 0 -709130 -3.39073e+06 0 -704564 -3.3982e+06 0 -700020 -3.40572e+06 0 -695500 -3.41327e+06 0 -691005 -3.42088e+06 0 -686537 -3.42853e+06 0 -682095 -3.43623e+06 0 -677682 -3.44398e+06 0 -673299 -3.45179e+06 0 -668947 -3.45966e+06 0 -664627 -3.4676e+06 0 -660341 -3.47559e+06 0 -656089 -3.48366e+06 0 -651874 -3.49181e+06 0 -647695 -3.50002e+06 0 -643555 -3.50832e+06 0 -639454 -3.51671e+06 0 -635394 -3.52519e+06 0 -631376 -3.53376e+06 0 -627400 -3.54243e+06 0 -623469 -3.5512e+06 0 -619583 -3.56009e+06 0 -615743 -3.56909e+06 0 -611951 -3.57821e+06 0 -608207 -3.58745e+06 0 -604512 -3.59684e+06 0 -600867 -3.60636e+06 0 -597274 -3.61603e+06 0 -593732 -3.62585e+06 0 -590244 -3.63583e+06 0 -586809 -3.64599e+06 0 -583429 -3.65632e+06 0 -580104 -3.66684e+06 0 -576835 -3.67755e+06 0 -573623 -3.68847e+06 0 -570467 -3.69961e+06 0 -567369 -3.71097e+06 0 -564330 -3.72257e+06 0 -561349 -3.73442e+06 0 -558427 -3.74653e+06 0 -555564 -3.75891e+06 0 -552761 -3.77159e+06 0 -550016 -3.78457e+06 0 -547332 -3.79787e+06 0 -544706 -3.8115e+06 0 -542140 -3.82549e+06 0 -539632 -3.83985e+06 0 -537181 -3.85461e+06 0 -534787 -3.86978e+06 0 -532448 -3.88539e+06 0 -530161 -3.90146e+06 0 -527926 -3.91803e+06 0 -525739 -3.93511e+06 0 -523595 -3.95275e+06 0 -521491 -3.97097e+06 0 -519421 -3.9898e+06 0 -517378 -4.0093e+06 0 -515354 -4.0295e+06 0 -513338 -4.05044e+06 0 -511318 -4.07217e+06 0 -509281 -4.09475e+06 0 -507209 -4.11823e+06 0 -505081 -4.14267e+06 0 -502874 -4.16814e+06 0 -500560 -4.1947e+06 0 -498105 -4.22244e+06 0 -495470 -4.25142e+06 0 -492611 -4.28173e+06 0 -489476 -4.31347e+06 0 -486004 -4.34672e+06 0 -482126 -4.3816e+06 0 -477762 -4.4182e+06 0 -472819 -4.45665e+06 0 -467194 -4.49706e+06 0 -460767 -4.53956e+06 0 -453403 -4.58427e+06 0 -444948 -4.63133e+06 0 -435227 -4.68089e+06 0 -424046 -4.73308e+06 0 -411185 -4.78805e+06 0 -396395 -4.84595e+06 0 -379401 -4.90693e+06 0 -359894 -4.97113e+06 0 -337529 -5.0387e+06 0 -311924 -5.10977e+06 0 -282654 -5.18449e+06 0 -249248 -5.26296e+06 0 -211187 -5.3453e+06 0 -167897 -5.43159e+06 0 -118744 -5.52189e+06 0 -63033.8 -5.61622e+06 0 -4.20958e-07 -5.71465e+06 0 -876397 -3.11978e+06 0 -871634 -3.12659e+06 0 -866863 -3.1334e+06 0 -862085 -3.14021e+06 0 -857300 -3.14703e+06 0 -852508 -3.15385e+06 0 -847711 -3.16067e+06 0 -842908 -3.1675e+06 0 -838101 -3.17433e+06 0 -833289 -3.18117e+06 0 -828473 -3.18802e+06 0 -823655 -3.19487e+06 0 -818833 -3.20173e+06 0 -814010 -3.2086e+06 0 -809185 -3.21548e+06 0 -804359 -3.22236e+06 0 -799533 -3.22926e+06 0 -794708 -3.23616e+06 0 -789883 -3.24308e+06 0 -785061 -3.25001e+06 0 -780241 -3.25695e+06 0 -775425 -3.26391e+06 0 -770613 -3.27088e+06 0 -765807 -3.27786e+06 0 -761006 -3.28486e+06 0 -756211 -3.29188e+06 0 -751425 -3.29892e+06 0 -746646 -3.30598e+06 0 -741878 -3.31306e+06 0 -737119 -3.32017e+06 0 -732372 -3.3273e+06 0 -727636 -3.33445e+06 0 -722914 -3.34163e+06 0 -718206 -3.34884e+06 0 -713513 -3.35608e+06 0 -708837 -3.36336e+06 0 -704177 -3.37066e+06 0 -699535 -3.37801e+06 0 -694913 -3.38539e+06 0 -690311 -3.39281e+06 0 -685730 -3.40028e+06 0 -681172 -3.40779e+06 0 -676637 -3.41535e+06 0 -672127 -3.42296e+06 0 -667642 -3.43062e+06 0 -663183 -3.43834e+06 0 -658753 -3.44611e+06 0 -654351 -3.45395e+06 0 -649979 -3.46186e+06 0 -645638 -3.46983e+06 0 -641328 -3.47788e+06 0 -637052 -3.486e+06 0 -632810 -3.49421e+06 0 -628602 -3.5025e+06 0 -624430 -3.51087e+06 0 -620295 -3.51934e+06 0 -616198 -3.52791e+06 0 -612139 -3.53658e+06 0 -608120 -3.54536e+06 0 -604140 -3.55425e+06 0 -600202 -3.56326e+06 0 -596306 -3.57239e+06 0 -592452 -3.58166e+06 0 -588641 -3.59106e+06 0 -584874 -3.60061e+06 0 -581151 -3.61031e+06 0 -577473 -3.62016e+06 0 -573840 -3.63018e+06 0 -570252 -3.64038e+06 0 -566710 -3.65075e+06 0 -563215 -3.66132e+06 0 -559765 -3.67209e+06 0 -556362 -3.68306e+06 0 -553005 -3.69426e+06 0 -549694 -3.70569e+06 0 -546430 -3.71736e+06 0 -543211 -3.72928e+06 0 -540037 -3.74147e+06 0 -536907 -3.75394e+06 0 -533822 -3.7667e+06 0 -530779 -3.77978e+06 0 -527778 -3.79317e+06 0 -524818 -3.80691e+06 0 -521896 -3.82101e+06 0 -519011 -3.83549e+06 0 -516160 -3.85036e+06 0 -513341 -3.86566e+06 0 -510550 -3.8814e+06 0 -507784 -3.89761e+06 0 -505037 -3.91432e+06 0 -502304 -3.93155e+06 0 -499578 -3.94934e+06 0 -496853 -3.96772e+06 0 -494119 -3.98672e+06 0 -491365 -4.00638e+06 0 -488580 -4.02674e+06 0 -485749 -4.04785e+06 0 -482855 -4.06976e+06 0 -479879 -4.0925e+06 0 -476799 -4.11615e+06 0 -473588 -4.14075e+06 0 -470216 -4.16636e+06 0 -466647 -4.19305e+06 0 -462843 -4.2209e+06 0 -458756 -4.24997e+06 0 -454333 -4.28034e+06 0 -449515 -4.3121e+06 0 -444230 -4.34533e+06 0 -438402 -4.38013e+06 0 -431939 -4.41659e+06 0 -424741 -4.45481e+06 0 -416692 -4.4949e+06 0 -407664 -4.53697e+06 0 -397510 -4.58112e+06 0 -386067 -4.62748e+06 0 -373151 -4.67615e+06 0 -358556 -4.72726e+06 0 -342055 -4.78092e+06 0 -323392 -4.83724e+06 0 -302284 -4.89635e+06 0 -278417 -4.95834e+06 0 -251445 -5.02332e+06 0 -220983 -5.09138e+06 0 -186609 -5.1626e+06 0 -147858 -5.23703e+06 0 -104221 -5.31472e+06 0 -55139.3 -5.39568e+06 0 1.15484e-06 -5.47996e+06 0 -872769 -3.10374e+06 0 -867990 -3.11044e+06 0 -863204 -3.11715e+06 0 -858409 -3.12386e+06 0 -853608 -3.13057e+06 0 -848799 -3.13729e+06 0 -843984 -3.14401e+06 0 -839163 -3.15073e+06 0 -834336 -3.15746e+06 0 -829504 -3.1642e+06 0 -824668 -3.17094e+06 0 -819828 -3.17769e+06 0 -814983 -3.18444e+06 0 -810136 -3.19121e+06 0 -805287 -3.19798e+06 0 -800435 -3.20475e+06 0 -795582 -3.21154e+06 0 -790729 -3.21834e+06 0 -785875 -3.22515e+06 0 -781022 -3.23197e+06 0 -776170 -3.2388e+06 0 -771320 -3.24565e+06 0 -766473 -3.25251e+06 0 -761629 -3.25938e+06 0 -756789 -3.26627e+06 0 -751954 -3.27318e+06 0 -747125 -3.28011e+06 0 -742303 -3.28705e+06 0 -737487 -3.29402e+06 0 -732680 -3.30101e+06 0 -727882 -3.30802e+06 0 -723093 -3.31505e+06 0 -718315 -3.32211e+06 0 -713549 -3.3292e+06 0 -708795 -3.33632e+06 0 -704054 -3.34347e+06 0 -699328 -3.35065e+06 0 -694617 -3.35786e+06 0 -689922 -3.36511e+06 0 -685243 -3.3724e+06 0 -680583 -3.37973e+06 0 -675942 -3.3871e+06 0 -671320 -3.39452e+06 0 -666719 -3.40199e+06 0 -662140 -3.4095e+06 0 -657584 -3.41707e+06 0 -653051 -3.42469e+06 0 -648542 -3.43238e+06 0 -644059 -3.44012e+06 0 -639602 -3.44793e+06 0 -635172 -3.45581e+06 0 -630770 -3.46376e+06 0 -626397 -3.47178e+06 0 -622053 -3.47988e+06 0 -617740 -3.48807e+06 0 -613458 -3.49634e+06 0 -609208 -3.50471e+06 0 -604991 -3.51317e+06 0 -600806 -3.52173e+06 0 -596656 -3.5304e+06 0 -592540 -3.53918e+06 0 -588459 -3.54807e+06 0 -584413 -3.55709e+06 0 -580404 -3.56623e+06 0 -576430 -3.57551e+06 0 -572493 -3.58493e+06 0 -568593 -3.59449e+06 0 -564729 -3.60421e+06 0 -560902 -3.61409e+06 0 -557113 -3.62414e+06 0 -553360 -3.63437e+06 0 -549644 -3.64478e+06 0 -545964 -3.65539e+06 0 -542321 -3.6662e+06 0 -538713 -3.67722e+06 0 -535139 -3.68847e+06 0 -531600 -3.69995e+06 0 -528094 -3.71168e+06 0 -524620 -3.72366e+06 0 -521177 -3.73591e+06 0 -517763 -3.74845e+06 0 -514377 -3.76128e+06 0 -511016 -3.77443e+06 0 -507678 -3.78791e+06 0 -504361 -3.80173e+06 0 -501062 -3.81591e+06 0 -497776 -3.83048e+06 0 -494501 -3.84544e+06 0 -491232 -3.86084e+06 0 -487962 -3.87668e+06 0 -484687 -3.89299e+06 0 -481399 -3.9098e+06 0 -478090 -3.92714e+06 0 -474751 -3.94503e+06 0 -471371 -3.96352e+06 0 -467939 -3.98262e+06 0 -464440 -4.00239e+06 0 -460858 -4.02285e+06 0 -457176 -4.04406e+06 0 -453371 -4.06606e+06 0 -449419 -4.08888e+06 0 -445293 -4.11259e+06 0 -440962 -4.13725e+06 0 -436389 -4.16289e+06 0 -431533 -4.18959e+06 0 -426348 -4.21742e+06 0 -420780 -4.24643e+06 0 -414770 -4.2767e+06 0 -408248 -4.30831e+06 0 -401140 -4.34132e+06 0 -393357 -4.37584e+06 0 -384802 -4.41192e+06 0 -375366 -4.44968e+06 0 -364927 -4.48919e+06 0 -353346 -4.53054e+06 0 -340471 -4.57383e+06 0 -326131 -4.61915e+06 0 -310136 -4.66659e+06 0 -292276 -4.71624e+06 0 -272317 -4.7682e+06 0 -250000 -4.82253e+06 0 -225043 -4.87933e+06 0 -197132 -4.93865e+06 0 -165921 -5.00056e+06 0 -131035 -5.0651e+06 0 -92060.5 -5.13231e+06 0 -48546 -5.20216e+06 0 -1.06543e-06 -5.2747e+06 0 -869159 -3.08774e+06 0 -864366 -3.09434e+06 0 -859564 -3.10094e+06 0 -854755 -3.10755e+06 0 -849938 -3.11416e+06 0 -845113 -3.12077e+06 0 -840281 -3.12739e+06 0 -835442 -3.13401e+06 0 -830597 -3.14064e+06 0 -825747 -3.14727e+06 0 -820891 -3.15391e+06 0 -816030 -3.16055e+06 0 -811164 -3.1672e+06 0 -806295 -3.17386e+06 0 -801422 -3.18052e+06 0 -796547 -3.1872e+06 0 -791668 -3.19388e+06 0 -786788 -3.20057e+06 0 -781907 -3.20727e+06 0 -777025 -3.21398e+06 0 -772143 -3.22071e+06 0 -767262 -3.22744e+06 0 -762382 -3.23419e+06 0 -757503 -3.24096e+06 0 -752627 -3.24773e+06 0 -747755 -3.25453e+06 0 -742886 -3.26134e+06 0 -738022 -3.26817e+06 0 -733164 -3.27502e+06 0 -728311 -3.2819e+06 0 -723465 -3.28879e+06 0 -718627 -3.2957e+06 0 -713797 -3.30264e+06 0 -708977 -3.30961e+06 0 -704166 -3.3166e+06 0 -699367 -3.32363e+06 0 -694578 -3.33068e+06 0 -689802 -3.33777e+06 0 -685040 -3.34489e+06 0 -680291 -3.35205e+06 0 -675557 -3.35924e+06 0 -670839 -3.36648e+06 0 -666138 -3.37375e+06 0 -661453 -3.38108e+06 0 -656787 -3.38845e+06 0 -652140 -3.39587e+06 0 -647512 -3.40334e+06 0 -642905 -3.41087e+06 0 -638319 -3.41845e+06 0 -633755 -3.4261e+06 0 -629214 -3.43381e+06 0 -624697 -3.44158e+06 0 -620203 -3.44943e+06 0 -615735 -3.45735e+06 0 -611291 -3.46535e+06 0 -606874 -3.47343e+06 0 -602484 -3.4816e+06 0 -598121 -3.48985e+06 0 -593785 -3.4982e+06 0 -589478 -3.50665e+06 0 -585199 -3.51521e+06 0 -580949 -3.52387e+06 0 -576728 -3.53264e+06 0 -572536 -3.54154e+06 0 -568374 -3.55055e+06 0 -564241 -3.5597e+06 0 -560139 -3.56899e+06 0 -556065 -3.57842e+06 0 -552022 -3.588e+06 0 -548007 -3.59773e+06 0 -544021 -3.60763e+06 0 -540063 -3.6177e+06 0 -536134 -3.62795e+06 0 -532231 -3.63839e+06 0 -528355 -3.64902e+06 0 -524504 -3.65986e+06 0 -520677 -3.67092e+06 0 -516873 -3.6822e+06 0 -513091 -3.69372e+06 0 -509329 -3.70549e+06 0 -505584 -3.71752e+06 0 -501855 -3.72982e+06 0 -498140 -3.7424e+06 0 -494435 -3.75529e+06 0 -490737 -3.76849e+06 0 -487044 -3.78202e+06 0 -483351 -3.7959e+06 0 -479653 -3.81014e+06 0 -475946 -3.82476e+06 0 -472224 -3.83979e+06 0 -468481 -3.85525e+06 0 -464709 -3.87115e+06 0 -460900 -3.88753e+06 0 -457046 -3.9044e+06 0 -453135 -3.92179e+06 0 -449156 -3.93974e+06 0 -445095 -3.95828e+06 0 -440937 -3.97743e+06 0 -436664 -3.99724e+06 0 -432258 -4.01774e+06 0 -427695 -4.03896e+06 0 -422951 -4.06096e+06 0 -417997 -4.08378e+06 0 -412801 -4.10746e+06 0 -407326 -4.13205e+06 0 -401531 -4.15762e+06 0 -395369 -4.1842e+06 0 -388789 -4.21186e+06 0 -381732 -4.24066e+06 0 -374130 -4.27067e+06 0 -365911 -4.30195e+06 0 -356992 -4.33456e+06 0 -347278 -4.36858e+06 0 -336668 -4.40407e+06 0 -325046 -4.44112e+06 0 -312283 -4.47979e+06 0 -298237 -4.52016e+06 0 -282750 -4.5623e+06 0 -265648 -4.60627e+06 0 -246737 -4.65216e+06 0 -225806 -4.70002e+06 0 -202621 -4.74991e+06 0 -176926 -4.80188e+06 0 -148439 -4.85598e+06 0 -116853 -4.91223e+06 0 -81833.4 -4.97066e+06 0 -43014.8 -5.03125e+06 0 7.45058e-08 -5.09403e+06 0 -865566 -3.07178e+06 0 -860760 -3.07828e+06 0 -855944 -3.08479e+06 0 -851121 -3.09129e+06 0 -846288 -3.0978e+06 0 -841448 -3.10431e+06 0 -836601 -3.11082e+06 0 -831746 -3.11734e+06 0 -826884 -3.12386e+06 0 -822015 -3.13039e+06 0 -817141 -3.13693e+06 0 -812261 -3.14346e+06 0 -807375 -3.15001e+06 0 -802485 -3.15656e+06 0 -797591 -3.16312e+06 0 -792692 -3.16968e+06 0 -787790 -3.17626e+06 0 -782886 -3.18284e+06 0 -777979 -3.18944e+06 0 -773070 -3.19604e+06 0 -768160 -3.20266e+06 0 -763249 -3.20928e+06 0 -758338 -3.21592e+06 0 -753428 -3.22258e+06 0 -748518 -3.22925e+06 0 -743611 -3.23593e+06 0 -738705 -3.24263e+06 0 -733803 -3.24935e+06 0 -728904 -3.25608e+06 0 -724009 -3.26284e+06 0 -719120 -3.26961e+06 0 -714235 -3.27641e+06 0 -709358 -3.28323e+06 0 -704487 -3.29008e+06 0 -699624 -3.29695e+06 0 -694769 -3.30385e+06 0 -689924 -3.31077e+06 0 -685088 -3.31773e+06 0 -680263 -3.32472e+06 0 -675449 -3.33175e+06 0 -670647 -3.33881e+06 0 -665858 -3.34591e+06 0 -661083 -3.35305e+06 0 -656321 -3.36023e+06 0 -651574 -3.36746e+06 0 -646843 -3.37473e+06 0 -642128 -3.38205e+06 0 -637431 -3.38942e+06 0 -632750 -3.39685e+06 0 -628088 -3.40434e+06 0 -623444 -3.41188e+06 0 -618820 -3.41949e+06 0 -614216 -3.42716e+06 0 -609633 -3.43491e+06 0 -605070 -3.44272e+06 0 -600529 -3.45061e+06 0 -596010 -3.45859e+06 0 -591513 -3.46664e+06 0 -587038 -3.47479e+06 0 -582587 -3.48302e+06 0 -578159 -3.49136e+06 0 -573754 -3.49979e+06 0 -569373 -3.50833e+06 0 -565015 -3.51698e+06 0 -560681 -3.52574e+06 0 -556371 -3.53463e+06 0 -552083 -3.54365e+06 0 -547819 -3.55279e+06 0 -543578 -3.56208e+06 0 -539359 -3.57151e+06 0 -535162 -3.58109e+06 0 -530985 -3.59083e+06 0 -526830 -3.60074e+06 0 -522693 -3.61082e+06 0 -518575 -3.62109e+06 0 -514475 -3.63154e+06 0 -510390 -3.64219e+06 0 -506319 -3.65305e+06 0 -502261 -3.66413e+06 0 -498214 -3.67543e+06 0 -494175 -3.68697e+06 0 -490142 -3.69877e+06 0 -486112 -3.71082e+06 0 -482082 -3.72315e+06 0 -478050 -3.73576e+06 0 -474010 -3.74868e+06 0 -469960 -3.76191e+06 0 -465893 -3.77547e+06 0 -461806 -3.78937e+06 0 -457692 -3.80365e+06 0 -453544 -3.8183e+06 0 -449356 -3.83336e+06 0 -445119 -3.84884e+06 0 -440825 -3.86476e+06 0 -436462 -3.88116e+06 0 -432020 -3.89804e+06 0 -427486 -3.91545e+06 0 -422845 -3.9334e+06 0 -418081 -3.95193e+06 0 -413176 -3.97107e+06 0 -408110 -3.99085e+06 0 -402859 -4.0113e+06 0 -397397 -4.03247e+06 0 -391697 -4.05438e+06 0 -385725 -4.07709e+06 0 -379445 -4.10064e+06 0 -372816 -4.12507e+06 0 -365793 -4.15042e+06 0 -358325 -4.17676e+06 0 -350354 -4.20412e+06 0 -341817 -4.23256e+06 0 -332644 -4.26214e+06 0 -322755 -4.29291e+06 0 -312063 -4.32493e+06 0 -300471 -4.35826e+06 0 -287871 -4.39295e+06 0 -274143 -4.42907e+06 0 -259158 -4.46666e+06 0 -242768 -4.50579e+06 0 -224816 -4.54651e+06 0 -205125 -4.58886e+06 0 -183503 -4.6329e+06 0 -159740 -4.67866e+06 0 -133606 -4.72616e+06 0 -104850 -4.77544e+06 0 -73198.2 -4.82651e+06 0 -38355.6 -4.87935e+06 0 4.76837e-07 -4.93397e+06 0 -861992 -3.05588e+06 0 -857172 -3.06228e+06 0 -852344 -3.06868e+06 0 -847506 -3.07508e+06 0 -842660 -3.08148e+06 0 -837805 -3.08789e+06 0 -832943 -3.0943e+06 0 -828072 -3.10072e+06 0 -823194 -3.10714e+06 0 -818309 -3.11356e+06 0 -813417 -3.11999e+06 0 -808519 -3.12642e+06 0 -803615 -3.13286e+06 0 -798705 -3.13931e+06 0 -793791 -3.14576e+06 0 -788871 -3.15223e+06 0 -783947 -3.15869e+06 0 -779020 -3.16517e+06 0 -774089 -3.17166e+06 0 -769155 -3.17815e+06 0 -764219 -3.18466e+06 0 -759280 -3.19118e+06 0 -754341 -3.19771e+06 0 -749400 -3.20425e+06 0 -744460 -3.21081e+06 0 -739519 -3.21738e+06 0 -734580 -3.22397e+06 0 -729642 -3.23057e+06 0 -724705 -3.23719e+06 0 -719772 -3.24383e+06 0 -714841 -3.25049e+06 0 -709915 -3.25717e+06 0 -704992 -3.26387e+06 0 -700075 -3.2706e+06 0 -695163 -3.27734e+06 0 -690258 -3.28412e+06 0 -685360 -3.29092e+06 0 -680469 -3.29775e+06 0 -675586 -3.30462e+06 0 -670712 -3.31151e+06 0 -665847 -3.31844e+06 0 -660992 -3.3254e+06 0 -656149 -3.33241e+06 0 -651316 -3.33945e+06 0 -646495 -3.34653e+06 0 -641687 -3.35366e+06 0 -636891 -3.36083e+06 0 -632110 -3.36805e+06 0 -627342 -3.37533e+06 0 -622589 -3.38265e+06 0 -617852 -3.39004e+06 0 -613130 -3.39748e+06 0 -608424 -3.40498e+06 0 -603735 -3.41255e+06 0 -599063 -3.42018e+06 0 -594408 -3.42789e+06 0 -589770 -3.43567e+06 0 -585151 -3.44353e+06 0 -580550 -3.45148e+06 0 -575967 -3.45951e+06 0 -571402 -3.46762e+06 0 -566856 -3.47584e+06 0 -562328 -3.48415e+06 0 -557819 -3.49256e+06 0 -553328 -3.50108e+06 0 -548856 -3.50972e+06 0 -544401 -3.51847e+06 0 -539963 -3.52734e+06 0 -535542 -3.53635e+06 0 -531138 -3.54548e+06 0 -526749 -3.55476e+06 0 -522375 -3.56419e+06 0 -518015 -3.57377e+06 0 -513668 -3.5835e+06 0 -509333 -3.59341e+06 0 -505007 -3.60349e+06 0 -500691 -3.61376e+06 0 -496381 -3.62421e+06 0 -492076 -3.63487e+06 0 -487775 -3.64573e+06 0 -483473 -3.65681e+06 0 -479170 -3.66812e+06 0 -474862 -3.67967e+06 0 -470546 -3.69147e+06 0 -466217 -3.70353e+06 0 -461874 -3.71587e+06 0 -457510 -3.72849e+06 0 -453122 -3.74141e+06 0 -448703 -3.75464e+06 0 -444249 -3.7682e+06 0 -439752 -3.78211e+06 0 -435206 -3.79638e+06 0 -430602 -3.81103e+06 0 -425932 -3.82608e+06 0 -421186 -3.84155e+06 0 -416352 -3.85745e+06 0 -411419 -3.87382e+06 0 -406374 -3.89067e+06 0 -401200 -3.90804e+06 0 -395882 -3.92594e+06 0 -390401 -3.9444e+06 0 -384735 -3.96345e+06 0 -378862 -3.98313e+06 0 -372755 -4.00346e+06 0 -366386 -4.02448e+06 0 -359722 -4.04623e+06 0 -352729 -4.06874e+06 0 -345365 -4.09205e+06 0 -337586 -4.1162e+06 0 -329344 -4.14123e+06 0 -320584 -4.16718e+06 0 -311245 -4.19411e+06 0 -301259 -4.22204e+06 0 -290553 -4.25104e+06 0 -279045 -4.28114e+06 0 -266643 -4.31239e+06 0 -253249 -4.34483e+06 0 -238752 -4.37852e+06 0 -223030 -4.41349e+06 0 -205953 -4.44979e+06 0 -187374 -4.48745e+06 0 -167136 -4.52651e+06 0 -145064 -4.56699e+06 0 -120970 -4.60892e+06 0 -94648.6 -4.65231e+06 0 -65877.4 -4.69717e+06 0 -34415 -4.74348e+06 0 -2.98023e-08 -4.79126e+06 0 -858434 -3.04002e+06 0 -853603 -3.04631e+06 0 -848761 -3.05261e+06 0 -843911 -3.05891e+06 0 -839051 -3.06522e+06 0 -834183 -3.07152e+06 0 -829306 -3.07783e+06 0 -824421 -3.08414e+06 0 -819528 -3.09046e+06 0 -814628 -3.09678e+06 0 -809720 -3.10311e+06 0 -804805 -3.10944e+06 0 -799883 -3.11577e+06 0 -794955 -3.12211e+06 0 -790021 -3.12846e+06 0 -785082 -3.13482e+06 0 -780138 -3.14118e+06 0 -775189 -3.14755e+06 0 -770235 -3.15393e+06 0 -765278 -3.16032e+06 0 -760317 -3.16672e+06 0 -755354 -3.17313e+06 0 -750388 -3.17955e+06 0 -745420 -3.18598e+06 0 -740450 -3.19243e+06 0 -735479 -3.19889e+06 0 -730508 -3.20536e+06 0 -725537 -3.21185e+06 0 -720566 -3.21836e+06 0 -715596 -3.22488e+06 0 -710628 -3.23142e+06 0 -705662 -3.23799e+06 0 -700698 -3.24457e+06 0 -695738 -3.25117e+06 0 -690782 -3.2578e+06 0 -685829 -3.26445e+06 0 -680882 -3.27113e+06 0 -675940 -3.27784e+06 0 -671004 -3.28457e+06 0 -666074 -3.29134e+06 0 -661151 -3.29813e+06 0 -656236 -3.30496e+06 0 -651329 -3.31183e+06 0 -646431 -3.31873e+06 0 -641542 -3.32568e+06 0 -636663 -3.33266e+06 0 -631793 -3.33969e+06 0 -626935 -3.34676e+06 0 -622087 -3.35388e+06 0 -617251 -3.36105e+06 0 -612427 -3.36827e+06 0 -607615 -3.37555e+06 0 -602816 -3.38289e+06 0 -598030 -3.39028e+06 0 -593257 -3.39774e+06 0 -588498 -3.40527e+06 0 -583752 -3.41286e+06 0 -579021 -3.42053e+06 0 -574303 -3.42828e+06 0 -569600 -3.43611e+06 0 -564911 -3.44401e+06 0 -560236 -3.45201e+06 0 -555575 -3.4601e+06 0 -550928 -3.46828e+06 0 -546294 -3.47657e+06 0 -541674 -3.48496e+06 0 -537066 -3.49345e+06 0 -532471 -3.50207e+06 0 -527888 -3.5108e+06 0 -523316 -3.51965e+06 0 -518754 -3.52864e+06 0 -514201 -3.53776e+06 0 -509657 -3.54702e+06 0 -505119 -3.55643e+06 0 -500588 -3.56599e+06 0 -496061 -3.57572e+06 0 -491536 -3.58562e+06 0 -487012 -3.59569e+06 0 -482487 -3.60594e+06 0 -477959 -3.61638e+06 0 -473424 -3.62703e+06 0 -468881 -3.63788e+06 0 -464326 -3.64895e+06 0 -459756 -3.66025e+06 0 -455168 -3.67179e+06 0 -450557 -3.68358e+06 0 -445919 -3.69562e+06 0 -441249 -3.70794e+06 0 -436542 -3.72054e+06 0 -431793 -3.73344e+06 0 -426994 -3.74666e+06 0 -422139 -3.76019e+06 0 -417221 -3.77407e+06 0 -412230 -3.78831e+06 0 -407157 -3.80292e+06 0 -401993 -3.81792e+06 0 -396725 -3.83333e+06 0 -391340 -3.84917e+06 0 -385826 -3.86547e+06 0 -380166 -3.88223e+06 0 -374343 -3.8995e+06 0 -368339 -3.91728e+06 0 -362132 -3.93561e+06 0 -355700 -3.95452e+06 0 -349015 -3.97402e+06 0 -342051 -3.99416e+06 0 -334775 -4.01495e+06 0 -327153 -4.03644e+06 0 -319146 -4.05865e+06 0 -310711 -4.08162e+06 0 -301801 -4.10538e+06 0 -292365 -4.12997e+06 0 -282344 -4.15542e+06 0 -271675 -4.18177e+06 0 -260290 -4.20906e+06 0 -248111 -4.23732e+06 0 -235055 -4.26659e+06 0 -221029 -4.2969e+06 0 -205932 -4.32829e+06 0 -189655 -4.36079e+06 0 -172076 -4.39443e+06 0 -153065 -4.42924e+06 0 -132478 -4.46522e+06 0 -110161 -4.50241e+06 0 -85943.7 -4.5408e+06 0 -59645.3 -4.58041e+06 0 -31068.3 -4.62121e+06 0 5.36442e-07 -4.66322e+06 0 -854894 -3.0242e+06 0 -850050 -3.0304e+06 0 -845197 -3.0366e+06 0 -840335 -3.0428e+06 0 -835462 -3.049e+06 0 -830581 -3.0552e+06 0 -825691 -3.06141e+06 0 -820792 -3.06762e+06 0 -815885 -3.07383e+06 0 -810970 -3.08005e+06 0 -806047 -3.08627e+06 0 -801116 -3.0925e+06 0 -796178 -3.09873e+06 0 -791233 -3.10497e+06 0 -786282 -3.11121e+06 0 -781324 -3.11746e+06 0 -776361 -3.12372e+06 0 -771392