<?xml version="1.0"?> 
<VTKFile type="StructuredGrid" version="0.1"> 
<StructuredGrid WholeExtent="0 127 0 127 0 0"> 
<Piece Extent="0 127 0 127 0 0"> 
<PointData>
<DataArray type="Float32" Name="E" format="ascii" NumberOfComponents="3"> 
-272684 93592.3 0 -270151 93305.6 0 -267625 93021.1 0 -265107 92738.9 0 -262596 92458.7 0 -260092 92180.7 0 -257596 91904.7 0 -255106 91630.7 0 -252624 91358.7 0 -250149 91088.6 0 -247680 90820.5 0 -245219 90554.1 0 -242765 90289.6 0 -240318 90026.9 0 -237877 89765.9 0 -235443 89506.6 0 -233017 89249 0 -230597 88993 0 -228183 88738.7 0 -225777 88485.9 0 -223377 88234.7 0 -220984 87985 0 -218597 87736.8 0 -216217 87490.1 0 -213844 87244.8 0 -211477 87001 0 -209116 86758.5 0 -206762 86517.4 0 -204414 86277.6 0 -202073 86039.2 0 -199738 85802 0 -197410 85566.1 0 -195087 85331.4 0 -192771 85098 0 -190462 84865.8 0 -188158 84634.7 0 -185861 84404.9 0 -183569 84176.1 0 -181284 83948.5 0 -179005 83722 0 -176732 83496.5 0 -174466 83272.2 0 -172205 83048.8 0 -169950 82826.5 0 -167701 82605.2 0 -165458 82384.9 0 -163221 82165.6 0 -160990 81947.2 0 -158765 81729.8 0 -156545 81513.3 0 -154331 81297.7 0 -152124 81083 0 -149922 80869.2 0 -147725 80656.2 0 -145535 80444.1 0 -143350 80232.9 0 -141171 80022.4 0 -138998 79812.8 0 -136830 79603.9 0 -134668 79395.9 0 -132511 79188.6 0 -130360 78982.1 0 -128215 78776.3 0 -126075 78571.3 0 -123941 78366.9 0 -121812 78163.3 0 -119689 77960.4 0 -117571 77758.2 0 -115458 77556.6 0 -113352 77355.7 0 -111250 77155.5 0 -109154 76955.9 0 -107063 76756.9 0 -104978 76558.5 0 -102898 76360.8 0 -100824 76163.6 0 -98754.5 75967.1 0 -96690.6 75771.1 0 -94632 75575.7 0 -92578.7 75380.9 0 -90530.7 75186.6 0 -88487.9 74992.9 0 -86450.4 74799.7 0 -84418.1 74607 0 -82391 74414.9 0 -80369.1 74223.2 0 -78352.4 74032.1 0 -76340.9 73841.4 0 -74334.6 73651.3 0 -72333.4 73461.6 0 -70337.4 73272.4 0 -68346.4 73083.6 0 -66360.6 72895.3 0 -64379.9 72707.5 0 -62404.3 72520.1 0 -60433.8 72333.1 0 -58468.3 72146.6 0 -56507.9 71960.5 0 -54552.6 71774.8 0 -52602.3 71589.5 0 -50657 71404.6 0 -48716.7 71220.1 0 -46781.5 71035.9 0 -44851.2 70852.2 0 -42925.9 70668.8 0 -41005.6 70485.9 0 -39090.3 70303.2 0 -37179.9 70121 0 -35274.5 69939.1 0 -33374 69757.5 0 -31478.4 69576.3 0 -29587.8 69395.4 0 -27702 69214.8 0 -25821.2 69034.6 0 -23945.3 68854.7 0 -22074.2 68675.1 0 -20208.1 68495.8 0 -18346.8 68316.9 0 -16490.3 68138.2 0 -14638.8 67959.8 0 -12792 67781.7 0 -10950.1 67603.9 0 -9113.07 67426.4 0 -7280.84 67249.2 0 -5453.42 67072.3 0 -3630.81 66895.6 0 -1813.01 66719.2 0 0 66543 0 -274228 103919 0 -271682 103621 0 -269143 103326 0 -266611 103034 0 -264086 102743 0 -261569 102454 0 -259059 102168 0 -256556 101884 0 -254060 101601 0 -251571 101321 0 -249089 101043 0 -246614 100766 0 -244146 100492 0 -241686 100219 0 -239232 99948 0 -236784 99678.9 0 -234344 99411.4 0 -231911 99145.7 0 -229484 98881.7 0 -227064 98619.3 0 -224651 98358.4 0 -222244 98099.2 0 -219844 97841.5 0 -217451 97585.4 0 -215064 97330.7 0 -212684 97077.5 0 -210310 96825.7 0 -207942 96575.4 0 -205582 96326.4 0 -203227 96078.7 0 -200879 95832.5 0 -198537 95587.5 0 -196202 95343.8 0 -193873 95101.3 0 -191550 94860.1 0 -189233 94620.2 0 -186923 94381.4 0 -184619 94143.8 0 -182321 93907.3 0 -180029 93672 0 -177743 93437.7 0 -175463 93204.6 0 -173189 92972.5 0 -170922 92741.5 0 -168660 92511.5 0 -166404 92282.6 0 -164154 92054.6 0 -161910 91827.6 0 -159673 91601.6 0 -157440 91376.5 0 -155214 91152.3 0 -152994 90929.1 0 -150779 90706.7 0 -148570 90485.3 0 -146367 90264.7 0 -144170 90044.9 0 -141979 89826 0 -139793 89607.9 0 -137613 89390.5 0 -135438 89174 0 -133269 88958.3 0 -131106 88743.3 0 -128948 88529.1 0 -126796 88315.5 0 -124650 88102.8 0 -122509 87890.7 0 -120373 87679.3 0 -118243 87468.6 0 -116119 87258.6 0 -114000 87049.2 0 -111886 86840.5 0 -109778 86632.4 0 -107676 86425 0 -105579 86218.1 0 -103487 86011.9 0 -101400 85806.2 0 -99319.2 85601.1 0 -97243.5 85396.6 0 -95173.1 85192.7 0 -93108 84989.3 0 -91048.3 84786.4 0 -88993.8 84584.1 0 -86944.6 84382.3 0 -84900.6 84181 0 -82861.9 83980.2 0 -80828.4 83779.9 0 -78800.2 83580.1 0 -76777.2 83380.7 0 -74759.3 83181.9 0 -72746.7 82983.4 0 -70739.2 82785.5 0 -68736.8 82587.9 0 -66739.7 82390.8 0 -64747.6 82194.2 0 -62760.7 81997.9 0 -60778.9 81802.1 0 -58802.1 81606.6 0 -56830.5 81411.6 0 -54864 81216.9 0 -52902.5 81022.6 0 -50946.1 80828.7 0 -48994.7 80635.1 0 -47048.3 80441.9 0 -45107 80249.1 0 -43170.7 80056.6 0 -41239.4 79864.4 0 -39313.2 79672.6 0 -37391.8 79481.1 0 -35475.5 79289.9 0 -33564.2 79099 0 -31657.8 78908.5 0 -29756.3 78718.2 0 -27859.8 78528.2 0 -25968.3 78338.5 0 -24081.6 78149.2 0 -22199.9 77960 0 -20323.1 77771.2 0 -18451.2 77582.6 0 -16584.2 77394.3 0 -14722 77206.3 0 -12864.8 77018.5 0 -11012.4 76830.9 0 -9164.88 76643.6 0 -7322.22 76456.5 0 -5484.41 76269.7 0 -3651.44 76083.1 0 -1823.3 75896.7 0 0 75710.6 0 -275822 114281 0 -273261 113973 0 -270708 113667 0 -268163 113364 0 -265624 113062 0 -263093 112763 0 -260569 112467 0 -258052 112172 0 -255542 111879 0 -253039 111589 0 -250543 111300 0 -248055 111013 0 -245573 110729 0 -243098 110446 0 -240630 110165 0 -238169 109886 0 -235715 109608 0 -233268 109333 0 -230828 109059 0 -228394 108787 0 -225967 108516 0 -223546 108247 0 -221133 107980 0 -218726 107714 0 -216325 107450 0 -213931 107188 0 -211544 106926 0 -209163 106667 0 -206789 106408 0 -204421 106151 0 -202059 105896 0 -199704 105642 0 -197355 105389 0 -195013 105137 0 -192676 104887 0 -190346 104638 0 -188023 104390 0 -185705 104143 0 -183394 103898 0 -181089 103654 0 -178789 103411 0 -176496 103169 0 -174210 102928 0 -171929 102688 0 -169654 102449 0 -167385 102211 0 -165122 101975 0 -162865 101739 0 -160614 101504 0 -158369 101270 0 -156130 101037 0 -153897 100806 0 -151669 100574 0 -149448 100344 0 -147232 100115 0 -145021 99886.7 0 -142817 99659.1 0 -140618 99432.4 0 -138426 99206.5 0 -136238 98981.4 0 -134057 98757 0 -131881 98533.5 0 -129710 98310.6 0 -127546 98088.5 0 -125387 97867.2 0 -123233 97646.5 0 -121085 97426.5 0 -118943 97207.2 0 -116806 96988.6 0 -114674 96770.6 0 -112549 96553.3 0 -110428 96336.6 0 -108313 96120.5 0 -106204 95905.1 0 -104099 95690.2 0 -102001 95475.9 0 -99907.4 95262.2 0 -97819.4 95049 0 -95736.8 94836.4 0 -93659.5 94624.3 0 -91587.6 94412.7 0 -89521 94201.6 0 -87459.7 93991.1 0 -85403.7 93781 0 -83352.9 93571.5 0 -81307.5 93362.4 0 -79267.2 93153.7 0 -77232.2 92945.6 0 -75202.5 92737.8 0 -73177.9 92530.5 0 -71158.5 92323.7 0 -69144.4 92117.2 0 -67135.4 91911.2 0 -65131.5 91705.5 0 -63132.8 91500.3 0 -61139.3 91295.4 0 -59150.8 91090.9 0 -57167.5 90886.8 0 -55189.3 90683 0 -53216.2 90479.6 0 -51248.2 90276.5 0 -49285.3 90073.7 0 -47327.4 89871.3 0 -45374.6 89669.2 0 -43426.8 89467.4 0 -41484 89265.9 0 -39546.3 89064.8 0 -37613.6 88863.9 0 -35685.9 88663.3 0 -33763.2 88462.9 0 -31845.5 88262.9 0 -29932.8 88063.1 0 -28025.1 87863.6 0 -26122.3 87664.3 0 -24224.4 87465.2 0 -22331.5 87266.4 0 -20443.6 87067.9 0 -18560.6 86869.6 0 -16682.5 86671.5 0 -14809.3 86473.6 0 -12941.1 86275.9 0 -11077.7 86078.4 0 -9219.21 85881.2 0 -7365.62 85684.1 0 -5516.92 85487.2 0 -3673.08 85290.5 0 -1834.11 85094 0 0 84897.7 0 -277466 124681 0 -274891 124362 0 -272324 124046 0 -269764 123732 0 -267211 123420 0 -264665 123110 0 -262127 122803 0 -259596 122497 0 -257071 122194 0 -254554 121893 0 -252044 121594 0 -249542 121297 0 -247046 121002 0 -244557 120709 0 -242075 120418 0 -239600 120129 0 -237131 119842 0 -234670 119556 0 -232215 119273 0 -229768 118990 0 -227327 118710 0 -224892 118432 0 -222465 118155 0 -220044 117879 0 -217629 117605 0 -215221 117333 0 -212820 117062 0 -210425 116793 0 -208037 116525 0 -205655 116259 0 -203280 115994 0 -200911 115731 0 -198548 115468 0 -196192 115208 0 -193842 114948 0 -191498 114690 0 -189161 114433 0 -186830 114177 0 -184505 113923 0 -182186 113669 0 -179873 113417 0 -177567 113166 0 -175266 112916 0 -172972 112667 0 -170684 112420 0 -168402 112173 0 -166125 111927 0 -163855 111683 0 -161591 111439 0 -159332 111196 0 -157080 110955 0 -154833 110714 0 -152592 110474 0 -150357 110235 0 -148128 109997 0 -145905 109760 0 -143687 109524 0 -141476 109288 0 -139270 109054 0 -137069 108820 0 -134875 108587 0 -132686 108355 0 -130502 108123 0 -128325 107892 0 -126152 107662 0 -123986 107433 0 -121825 107204 0 -119670 106976 0 -117520 106749 0 -115376 106522 0 -113237 106296 0 -111104 106071 0 -108976 105846 0 -106854 105621 0 -104737 105398 0 -102625 105175 0 -100519 104952 0 -98418.8 104730 0 -96323.6 104509 0 -94233.7 104288 0 -92149.2 104068 0 -90070.1 103848 0 -87996.2 103628 0 -85927.7 103409 0 -83864.5 103191 0 -81806.6 102973 0 -79753.9 102755 0 -77706.5 102538 0 -75664.4 102321 0 -73627.5 102105 0 -71595.8 101889 0 -69569.3 101674 0 -67548.1 101459 0 -65532 101244 0 -63521.1 101029 0 -61515.3 100815 0 -59514.7 100602 0 -57519.3 100388 0 -55529 100175 0 -53543.8 99962.6 0 -51563.7 99750.2 0 -49588.7 99538.2 0 -47618.9 99326.4 0 -45654 99114.9 0 -43694.3 98903.7 0 -41739.6 98692.7 0 -39790 98482.1 0 -37845.4 98271.6 0 -35905.9 98061.5 0 -33971.4 97851.6 0 -32041.9 97641.9 0 -30117.4 97432.4 0 -28197.9 97223.2 0 -26283.4 97014.1 0 -24373.9 96805.3 0 -22469.3 96596.7 0 -20569.7 96388.3 0 -18675.1 96180.1 0 -16785.4 95972 0 -14900.7 95764.2 0 -13020.9 95556.5 0 -11146.1 95348.9 0 -9276.12 95141.5 0 -7411.1 94934.3 0 -5550.98 94727.3 0 -3695.76 94520.3 0 -1845.44 94313.5 0 0 94106.9 0 -279163 135122 0 -276574 134792 0 -273991 134464 0 -271416 134139 0 -268848 133817 0 -266288 133496 0 -263735 133178 0 -261189 132862 0 -258650 132549 0 -256118 132237 0 -253594 131928 0 -251076 131620 0 -248566 131315 0 -246062 131012 0 -243566 130710 0 -241076 130411 0 -238594 130114 0 -236118 129818 0 -233649 129524 0 -231187 129232 0 -228731 128942 0 -226283 128653 0 -223841 128366 0 -221405 128081 0 -218977 127798 0 -216554 127516 0 -214139 127235 0 -211730 126956 0 -209328 126679 0 -206932 126403 0 -204542 126129 0 -202159 125856 0 -199782 125584 0 -197412 125314 0 -195048 125045 0 -192690 124778 0 -190339 124511 0 -187994 124246 0 -185655 123983 0 -183322 123720 0 -180995 123459 0 -178675 123199 0 -176361 122940 0 -174053 122682 0 -171750 122425 0 -169454 122169 0 -167164 121915 0 -164880 121661 0 -162602 121409 0 -160330 121157 0 -158064 120906 0 -155804 120657 0 -153549 120408 0 -151301 120160 0 -149058 119913 0 -146821 119667 0 -144590 119422 0 -142365 119178 0 -140145 118934 0 -137931 118692 0 -135723 118450 0 -133521 118209 0 -131324 117968 0 -129133 117729 0 -126948 117490 0 -124768 117251 0 -122594 117014 0 -120425 116777 0 -118262 116541 0 -116104 116305 0 -113952 116071 0 -111806 115836 0 -109665 115603 0 -107530 115369 0 -105400 115137 0 -103275 114905 0 -101156 114674 0 -99042.2 114443 0 -96933.9 114212 0 -94831 113982 0 -92733.5 113753 0 -90641.4 113524 0 -88554.6 113296 0 -86473.2 113068 0 -84397 112840 0 -82326.2 112613 0 -80260.7 112387 0 -78200.5 112160 0 -76145.5 111935 0 -74095.8 111709 0 -72051.4 111484 0 -70012.1 111259 0 -67978.1 111035 0 -65949.4 110811 0 -63925.8 110588 0 -61907.4 110364 0 -59894.2 110141 0 -57886.1 109919 0 -55883.2 109696 0 -53885.5 109474 0 -51892.8 109252 0 -49905.3 109031 0 -47923 108809 0 -45945.7 108588 0 -43973.5 108368 0 -42006.4 108147 0 -40044.4 107927 0 -38087.5 107707 0 -36135.6 107487 0 -34188.8 107267 0 -32247 107048 0 -30310.2 106829 0 -28378.5 106609 0 -26451.7 106391 0 -24530 106172 0 -22613.3 105953 0 -20701.6 105735 0 -18794.9 105517 0 -16893.1 105298 0 -14996.3 105080 0 -13104.5 104863 0 -11217.6 104645 0 -9335.66 104427 0 -7458.68 104210 0 -5586.62 103992 0 -3719.5 103775 0 -1857.29 103558 0 0 103341 0 -280914 145605 0 -278309 145264 0 -275711 144926 0 -273121 144589 0 -270538 144256 0 -267962 143925 0 -265394 143596 0 -262833 143269 0 -260279 142945 0 -257732 142622 0 -255193 142302 0 -252660 141984 0 -250135 141669 0 -247616 141355 0 -245105 141043 0 -242601 140733 0 -240103 140426 0 -237612 140120 0 -235129 139816 0 -232652 139514 0 -230182 139213 0 -227718 138915 0 -225262 138618 0 -222812 138323 0 -220368 138029 0 -217932 137737 0 -215502 137447 0 -213078 137159 0 -210661 136872 0 -208251 136586 0 -205847 136302 0 -203449 136020 0 -201058 135738 0 -198673 135459 0 -196295 135180 0 -193923 134904 0 -191557 134628 0 -189197 134354 0 -186844 134080 0 -184497 133809 0 -182156 133538 0 -179822 133269 0 -177493 133000 0 -175171 132733 0 -172855 132467 0 -170544 132203 0 -168240 131939 0 -165942 131676 0 -163650 131415 0 -161364 131154 0 -159083 130894 0 -156809 130636 0 -154541 130378 0 -152278 130121 0 -150021 129865 0 -147771 129610 0 -145526 129356 0 -143286 129103 0 -141053 128850 0 -138825 128599 0 -136603 128348 0 -134387 128098 0 -132177 127848 0 -129972 127600 0 -127773 127352 0 -125579 127105 0 -123391 126858 0 -121209 126613 0 -119032 126367 0 -116861 126123 0 -114695 125879 0 -112535 125636 0 -110381 125393 0 -108232 125151 0 -106088 124910 0 -103950 124669 0 -101817 124428 0 -99690.1 124188 0 -97568.3 123949 0 -95452 123710 0 -93341 123472 0 -91235.5 123234 0 -89135.3 122996 0 -87040.5 122759 0 -84951 122522 0 -82866.8 122286 0 -80788 122050 0 -78714.5 121815 0 -76646.2 121580 0 -74583.3 121345 0 -72525.6 121111 0 -70473.1 120877 0 -68425.9 120643 0 -66384 120410 0 -64347.2 120177 0 -62315.7 119944 0 -60289.4 119712 0 -58268.3 119480 0 -56252.3 119248 0 -54241.5 119016 0 -52235.9 118785 0 -50235.4 118554 0 -48240 118323 0 -46249.8 118092 0 -44264.7 117862 0 -42284.7 117632 0 -40309.8 117402 0 -38340 117172 0 -36375.2 116942 0 -34415.6 116712 0 -32461 116483 0 -30511.4 116254 0 -28566.9 116025 0 -26627.5 115796 0 -24693.1 115567 0 -22763.7 115338 0 -20839.3 115110 0 -18919.9 114881 0 -17005.5 114653 0 -15096.1 114425 0 -13191.8 114197 0 -11292.3 113969 0 -9397.89 113741 0 -7508.41 113513 0 -5623.88 113285 0 -3744.31 113057 0 -1869.69 112829 0 0 112601 0 -282719 156134 0 -280098 155782 0 -277485 155432 0 -274879 155084 0 -272280 154740 0 -269689 154397 0 -267105 154057 0 -264529 153719 0 -261959 153384 0 -259397 153051 0 -256842 152720 0 -254294 152392 0 -251754 152065 0 -249220 151741 0 -246693 151418 0 -244174 151098 0 -241661 150780 0 -239155 150464 0 -236656 150149 0 -234164 149837 0 -231679 149526 0 -229200 149218 0 -226729 148911 0 -224264 148606 0 -221806 148302 0 -219354 148000 0 -216909 147700 0 -214471 147402 0 -212039 147105 0 -209613 146810 0 -207194 146516 0 -204782 146224 0 -202376 145933 0 -199977 145644 0 -197584 145356 0 -195197 145069 0 -192816 144784 0 -190442 144500 0 -188074 144218 0 -185713 143936 0 -183357 143656 0 -181008 143378 0 -178665 143100 0 -176328 142824 0 -173997 142549 0 -171672 142275 0 -169354 142002 0 -167041 141730 0 -164734 141459 0 -162434 141189 0 -160139 140920 0 -157850 140652 0 -155568 140386 0 -153291 140120 0 -151020 139855 0 -148754 139591 0 -146495 139327 0 -144242 139065 0 -141994 138803 0 -139752 138543 0 -137516 138283 0 -135285 138024 0 -133060 137765 0 -130841 137508 0 -128628 137251 0 -126420 136995 0 -124218 136739 0 -122022 136484 0 -119831 136230 0 -117646 135977 0 -115466 135724 0 -113292 135471 0 -111123 135220 0 -108960 134969 0 -106803 134718 0 -104651 134468 0 -102504 134218 0 -100363 133969 0 -98227.2 133721 0 -96097 133473 0 -93972.2 133225 0 -91852.7 132978 0 -89738.7 132731 0 -87630 132485 0 -85526.7 132239 0 -83428.8 131994 0 -81336.2 131749 0 -79248.9 131504 0 -77166.9 131259 0 -75090.2 131015 0 -73018.8 130772 0 -70952.7 130528 0 -68891.8 130285 0 -66836.2 130043 0 -64785.8 129800 0 -62740.7 129558 0 -60700.8 129316 0 -58666.1 129074 0 -56636.6 128833 0 -54612.2 128591 0 -52593.1 128350 0 -50579.1 128110 0 -48570.2 127869 0 -46566.6 127629 0 -44568 127388 0 -42574.6 127148 0 -40586.3 126908 0 -38603.1 126669 0 -36625 126429 0 -34652 126190 0 -32684.1 125950 0 -30721.3 125711 0 -28763.5 125472 0 -26810.8 125233 0 -24863.1 124994 0 -22920.5 124755 0 -20982.9 124516 0 -19050.4 124277 0 -17122.9 124038 0 -15200.4 123800 0 -13282.9 123561 0 -11370.4 123323 0 -9462.85 123084 0 -7560.33 122846 0 -5662.79 122607 0 -3770.23 122368 0 -1882.63 122130 0 0 121891 0 -284580 166711 0 -281943 166347 0 -279314 165985 0 -276691 165626 0 -274077 165270 0 -271470 164916 0 -268870 164565 0 -266277 164216 0 -263692 163870 0 -261114 163526 0 -258543 163184 0 -255980 162844 0 -253423 162507 0 -250874 162172 0 -248331 161838 0 -245796 161508 0 -243268 161179 0 -240747 160852 0 -238232 160527 0 -235725 160204 0 -233224 159883 0 -230730 159564 0 -228243 159247 0 -225763 158932 0 -223289 158618 0 -220822 158306 0 -218362 157996 0 -215908 157688 0 -213461 157381 0 -211021 157076 0 -208587 156772 0 -206159 156470 0 -203738 156169 0 -201323 155870 0 -198915 155573 0 -196513 155277 0 -194118 154982 0 -191729 154688 0 -189346 154396 0 -186969 154106 0 -184599 153816 0 -182234 153528 0 -179876 153241 0 -177524 152955 0 -175179 152671 0 -172839 152387 0 -170505 152105 0 -168178 151824 0 -165856 151544 0 -163541 151264 0 -161232 150986 0 -158928 150709 0 -156630 150433 0 -154339 150158 0 -152053 149884 0 -149773 149611 0 -147499 149338 0 -145231 149067 0 -142968 148796 0 -140712 148526 0 -138461 148257 0 -136216 147989 0 -133976 147722 0 -131743 147455 0 -129515 147189 0 -127292 146923 0 -125076 146659 0 -122865 146395 0 -120659 146132 0 -118460 145869 0 -116265 145607 0 -114077 145345 0 -111894 145084 0 -109716 144824 0 -107544 144564 0 -105378 144305 0 -103217 144046 0 -101061 143788 0 -98911.2 143530 0 -96766.6 143273 0 -94627.5 143016 0 -92493.7 142760 0 -90365.3 142504 0 -88242.4 142248 0 -86124.8 141993 0 -84012.6 141738 0 -81905.7 141484 0 -79804.2 141229 0 -77708 140976 0 -75617.1 140722 0 -73531.5 140469 0 -71451.2 140216 0 -69376.2 139964 0 -67306.4 139711 0 -65241.9 139459 0 -63182.7 139207 0 -61128.7 138956 0 -59079.9 138704 0 -57036.3 138453 0 -54997.9 138202 0 -52964.8 137951 0 -50936.8 137701 0 -48914 137450 0 -46896.3 137200 0 -44883.8 136950 0 -42876.4 136700 0 -40874.2 136450 0 -38877.1 136200 0 -36885.2 135950 0 -34898.3 135701 0 -32916.5 135451 0 -30939.9 135202 0 -28968.3 134953 0 -27001.8 134703 0 -25040.4 134454 0 -23084 134205 0 -21132.7 133956 0 -19186.4 133706 0 -17245.2 133457 0 -15309 133208 0 -13377.9 132959 0 -11451.7 132710 0 -9530.62 132460 0 -7614.5 132211 0 -5703.39 131962 0 -3797.27 131712 0 -1896.14 131463 0 0 131214 0 -286498 177338 0 -283844 176962 0 -281198 176589 0 -278559 176218 0 -275928 175850 0 -273304 175484 0 -270688 175122 0 -268079 174761 0 -265478 174403 0 -262883 174048 0 -260297 173695 0 -257717 173344 0 -255144 172996 0 -252579 172649 0 -250021 172305 0 -247469 171964 0 -244925 171624 0 -242388 171286 0 -239858 170951 0 -237334 170617 0 -234818 170286 0 -232308 169957 0 -229806 169629 0 -227310 169303 0 -224820 168979 0 -222338 168657 0 -219862 168337 0 -217392 168018 0 -214930 167701 0 -212474 167386 0 -210024 167073 0 -207581 166761 0 -205144 166450 0 -202714 166141 0 -200291 165834 0 -197873 165528 0 -195462 165223 0 -193058 164920 0 -190659 164619 0 -188267 164318 0 -185882 164019 0 -183502 163721 0 -181129 163425 0 -178761 163130 0 -176400 162836 0 -174045 162543 0 -171697 162251 0 -169354 161960 0 -167017 161671 0 -164686 161382 0 -162362 161095 0 -160043 160809 0 -157730 160523 0 -155423 160239 0 -153122 159955 0 -150827 159673 0 -148538 159391 0 -146255 159110 0 -143977 158830 0 -141706 158551 0 -139440 158273 0 -137179 157996 0 -134925 157719 0 -132676 157443 0 -130433 157168 0 -128196 156893 0 -125964 156619 0 -123738 156346 0 -121518 156074 0 -119303 155802 0 -117094 155530 0 -114891 155260 0 -112693 154989 0 -110500 154720 0 -108313 154451 0 -106132 154182 0 -103956 153914 0 -101786 153647 0 -99620.9 153380 0 -97461.4 153113 0 -95307.4 152847 0 -93158.9 152581 0 -91015.7 152316 0 -88878 152051 0 -86745.6 151786 0 -84618.7 151522 0 -82497.1 151258 0 -80380.8 150994 0 -78269.9 150731 0 -76164.3 150468 0 -74064 150205 0 -71969.1 149942 0 -69879.4 149680 0 -67795 149418 0 -65715.9 149157 0 -63642 148895 0 -61573.4 148634 0 -59510.1 148372 0 -57451.9 148112 0 -55399 147851 0 -53351.3 147590 0 -51308.8 147330 0 -49271.4 147069 0 -47239.3 146809 0 -45212.3 146549 0 -43190.5 146289 0 -41173.8 146029 0 -39162.3 145769 0 -37155.9 145509 0 -35154.6 145249 0 -33158.5 144989 0 -31167.4 144730 0 -29181.5 144470 0 -27200.7 144210 0 -25224.9 143951 0 -23254.3 143691 0 -21288.7 143431 0 -19328.1 143171 0 -17372.7 142912 0 -15422.3 142652 0 -13476.9 142392 0 -11536.5 142132 0 -9601.24 141872 0 -7670.96 141612 0 -5745.71 141352 0 -3825.47 141091 0 -1910.23 140831 0 0 140571 0 -288471 188018 0 -285801 187629 0 -283138 187244 0 -280482 186861 0 -277834 186481 0 -275194 186104 0 -272561 185729 0 -269935 185357 0 -267317 184987 0 -264707 184620 0 -262103 184256 0 -259507 183893 0 -256918 183534 0 -254336 183176 0 -251762 182821 0 -249194 182468 0 -246634 182118 0 -244080 181769 0 -241534 181423 0 -238994 181079 0 -236462 180737 0 -233936 180396 0 -231417 180058 0 -228905 179722 0 -226400 179388 0 -223901 179055 0 -221409 178725 0 -218924 178396 0 -216445 178069 0 -213973 177743 0 -211508 177420 0 -209049 177097 0 -206596 176777 0 -204150 176458 0 -201711 176141 0 -199277 175825 0 -196851 175511 0 -194430 175198 0 -192016 174886 0 -189608 174576 0 -187207 174267 0 -184811 173960 0 -182422 173654 0 -180039 173349 0 -177663 173045 0 -175292 172743 0 -172928 172442 0 -170569 172142 0 -168217 171843 0 -165870 171545 0 -163530 171248 0 -161196 170952 0 -158867 170657 0 -156545 170363 0 -154229 170071 0 -151918 169779 0 -149613 169488 0 -147314 169198 0 -145021 168908 0 -142734 168620 0 -140453 168332 0 -138177 168046 0 -135907 167760 0 -133643 167474 0 -131384 167190 0 -129132 166906 0 -126885 166623 0 -124643 166340 0 -122407 166059 0 -120177 165777 0 -117953 165497 0 -115734 165217 0 -113520 164937 0 -111313 164658 0 -109110 164380 0 -106914 164102 0 -104723 163824 0 -102537 163548 0 -100357 163271 0 -98181.9 162995 0 -96012.6 162719 0 -93848.7 162444 0 -91690.3 162169 0 -89537.3 161895 0 -87389.7 161621 0 -85247.5 161347 0 -83110.7 161073 0 -80979.2 160800 0 -78853.1 160527 0 -76732.3 160254 0 -74616.9 159982 0 -72506.7 159710 0 -70401.9 159438 0 -68302.4 159166 0 -66208.1 158895 0 -64119.1 158623 0 -62035.4 158352 0 -59956.9 158081 0 -57883.7 157810 0 -55815.7 157540 0 -53752.9 157269 0 -51695.3 156998 0 -49643 156728 0 -47595.8 156458 0 -45553.8 156187 0 -43516.9 155917 0 -41485.3 155647 0 -39458.8 155377 0 -37437.4 155107 0 -35421.2 154837 0 -33410.1 154567 0 -31404.2 154296 0 -29403.3 154026 0 -27407.6 153756 0 -25417 153486 0 -23431.4 153216 0 -21451 152945 0 -19475.6 152675 0 -17505.3 152404 0 -15540.1 152134 0 -13580 151863 0 -11624.8 151592 0 -9674.79 151321 0 -7729.77 151050 0 -5789.79 150779 0 -3854.83 150508 0 -1924.91 150236 0 0 149965 0 -290503 198752 0 -287815 198351 0 -285134 197953 0 -282462 197558 0 -279797 197165 0 -277139 196776 0 -274489 196389 0 -271847 196005 0 -269212 195623 0 -266584 195244 0 -263964 194868 0 -261351 194494 0 -258745 194123 0 -256147 193754 0 -253555 193388 0 -250971 193024 0 -248394 192662 0 -245824 192302 0 -243261 191945 0 -240705 191590 0 -238156 191237 0 -235614 190886 0 -233078 190537 0 -230550 190190 0 -228028 189845 0 -225513 189502 0 -223005 189161 0 -220503 188822 0 -218008 188485 0 -215520 188149 0 -213038 187815 0 -210563 187483 0 -208094 187152 0 -205632 186823 0 -203176 186496 0 -200727 186170 0 -198284 185846 0 -195847 185523 0 -193417 185202 0 -190993 184882 0 -188575 184563 0 -186164 184246 0 -183759 183930 0 -181360 183616 0 -178967 183302 0 -176580 182990 0 -174200 182679 0 -171825 182370 0 -169457 182061 0 -167094 181754 0 -164738 181447 0 -162388 181142 0 -160043 180838 0 -157705 180534 0 -155372 180232 0 -153046 179931 0 -150725 179630 0 -148410 179331 0 -146101 179032 0 -143798 178735 0 -141501 178438 0 -139209 178141 0 -136923 177846 0 -134643 177551 0 -132369 177257 0 -130100 176964 0 -127837 176672 0 -125580 176380 0 -123328 176089 0 -121082 175798 0 -118842 175508 0 -116607 175219 0 -114378 174930 0 -112154 174641 0 -109936 174353 0 -107724 174066 0 -105517 173779 0 -103315 173493 0 -101119 173207 0 -98928.6 172921 0 -96743.5 172636 0 -94563.9 172351 0 -92389.7 172067 0 -90221 171783 0 -88057.6 171499 0 -85899.7 171216 0 -83747.1 170933 0 -81599.9 170650 0 -79458.1 170367 0 -77321.6 170085 0 -75190.4 169803 0 -73064.6 169521 0 -70944.1 169239 0 -68828.9 168957 0 -66719 168676 0 -64614.3 168395 0 -62515 168114 0 -60420.8 167833 0 -58332 167552 0 -56248.4 167271 0 -54170 166991 0 -52096.8 166710 0 -50028.8 166429 0 -47966.1 166149 0 -45908.5 165868 0 -43856.1 165588 0 -41808.9 165308 0 -39766.9 165027 0 -37730 164747 0 -35698.3 164466 0 -33671.7 164185 0 -31650.3 163905 0 -29634 163624 0 -27622.8 163343 0 -25616.7 163063 0 -23615.7 162782 0 -21619.8 162501 0 -19629.1 162219 0 -17643.4 161938 0 -15662.7 161657 0 -13687.2 161375 0 -11716.7 161093 0 -9751.32 160811 0 -7790.97 160529 0 -5835.66 160247 0 -3885.41 159964 0 -1940.19 159682 0 0 159399 0 -292592 209543 0 -289886 209129 0 -287188 208718 0 -284498 208310 0 -281816 207905 0 -279141 207503 0 -276474 207103 0 -273814 206707 0 -271162 206313 0 -268517 205923 0 -265879 205534 0 -263249 205149 0 -260627 204766 0 -258011 204385 0 -255403 204007 0 -252802 203632 0 -250208 203259 0 -247621 202888 0 -245041 202519 0 -242468 202153 0 -239902 201789 0 -237343 201427 0 -234791 201068 0 -232245 200710 0 -229707 200354 0 -227175 200001 0 -224650 199649 0 -222132 199299 0 -219620 198951 0 -217115 198605 0 -214617 198261 0 -212125 197918 0 -209639 197578 0 -207160 197238 0 -204688 196901 0 -202222 196565 0 -199763 196231 0 -197309 195898 0 -194863 195567 0 -192422 195237 0 -189988 194908 0 -187560 194581 0 -185138 194256 0 -182723 193931 0 -180313 193608 0 -177910 193287 0 -175513 192966 0 -173122 192647 0 -170737 192328 0 -168359 192011 0 -165986 191695 0 -163619 191381 0 -161258 191067 0 -158903 190754 0 -156554 190442 0 -154211 190131 0 -151874 189821 0 -149543 189512 0 -147218 189204 0 -144898 188897 0 -142584 188591 0 -140276 188285 0 -137974 187980 0 -135678 187676 0 -133387 187373 0 -131102 187070 0 -128823 186768 0 -126549 186467 0 -124281 186166 0 -122019 185866 0 -119762 185567 0 -117511 185268 0 -115265 184969 0 -113026 184672 0 -110791 184374 0 -108562 184077 0 -106339 183781 0 -104121 183485 0 -101909 183190 0 -99702.1 182894 0 -97500.7 182600 0 -95304.8 182305 0 -93114.4 182011 0 -90929.4 181718 0 -88749.8 181424 0 -86575.6 181131 0 -84406.8 180838 0 -82243.3 180546 0 -80085.3 180253 0 -77932.6 179961 0 -75785.2 179669 0 -73643.1 179377 0 -71506.4 179086 0 -69375 178794 0 -67248.9 178503 0 -65128.1 178212 0 -63012.5 177921 0 -60902.2 177630 0 -58797.2 177339 0 -56697.4 177048 0 -54602.9 176757 0 -52513.5 176467 0 -50429.4 176176 0 -48350.5 175885 0 -46276.8 175594 0 -44208.4 175304 0 -42145 175013 0 -40086.9 174722 0 -38033.9 174431 0 -35986.1 174140 0 -33943.5 173849 0 -31906 173558 0 -29873.6 173266 0 -27846.3 172975 0 -25824.2 172683 0 -23807.2 172392 0 -21795.3 172100 0 -19788.5 171808 0 -17786.8 171515 0 -15790.2 171223 0 -13798.7 170930 0 -11812.3 170637 0 -9830.91 170344 0 -7854.62 170051 0 -5883.38 169758 0 -3917.2 169464 0 -1956.08 169170 0 0 168875 0 -294740 220392 0 -292016 219964 0 -289300 219540 0 -286593 219119 0 -283892 218701 0 -281200 218286 0 -278515 217875 0 -275838 217466 0 -273168 217060 0 -270506 216657 0 -267851 216256 0 -265203 215859 0 -262563 215464 0 -259930 215071 0 -257304 214682 0 -254686 214295 0 -252075 213910 0 -249470 213528 0 -246873 213148 0 -244283 212770 0 -241700 212395 0 -239124 212022 0 -236555 211652 0 -233992 211283 0 -231436 210916 0 -228888 210552 0 -226345 210190 0 -223810 209829 0 -221281 209471 0 -218759 209114 0 -216244 208759 0 -213735 208406 0 -211233 208055 0 -208737 207706 0 -206247 207358 0 -203765 207012 0 -201288 206668 0 -198818 206325 0 -196354 205983 0 -193897 205644 0 -191446 205305 0 -189001 204968 0 -186562 204633 0 -184130 204298 0 -181703 203966 0 -179283 203634 0 -176869 203304 0 -174462 202975 0 -172060 202647 0 -169664 202320 0 -167274 201994 0 -164891 201670 0 -162513 201346 0 -160141 201024 0 -157776 200703 0 -155416 200382 0 -153062 200063 0 -150714 199744 0 -148372 199427 0 -146035 199110 0 -143705 198794 0 -141380 198479 0 -139061 198165 0 -136748 197851 0 -134440 197538 0 -132138 197226 0 -129842 196914 0 -127552 196604 0 -125267 196294 0 -122988 195984 0 -120714 195675 0 -118446 195367 0 -116184 195059 0 -113927 194751 0 -111676 194444 0 -109430 194138 0 -107190 193832 0 -104956 193527 0 -102727 193221 0 -100503 192917 0 -98284.8 192612 0 -96072.2 192308 0 -93864.9 192005 0 -91663.2 191701 0 -89466.8 191398 0 -87275.8 191095 0 -85090.2 190793 0 -82910 190490 0 -80735.2 190188 0 -78565.7 189886 0 -76401.6 189584 0 -74242.8 189283 0 -72089.3 188981 0 -69941.1 188680 0 -67798.3 188378 0 -65660.7 188077 0 -63528.4 187776 0 -61401.4 187475 0 -59279.6 187174 0 -57163.1 186873 0 -55051.9 186572 0 -52945.8 186271 0 -50845 185970 0 -48749.4 185669 0 -46659 185368 0 -44573.9 185067 0 -42493.8 184765 0 -40419 184464 0 -38349.4 184162 0 -36284.9 183861 0 -34225.6 183559 0 -32171.4 183257 0 -30122.4 182955 0 -28078.5 182653 0 -26039.7 182351 0 -24006.1 182048 0 -21977.6 181745 0 -19954.2 181442 0 -17935.9 181139 0 -15922.7 180835 0 -13914.6 180532 0 -11911.6 180228 0 -9913.63 179923 0 -7920.77 179619 0 -5932.98 179314 0 -3950.26 179009 0 -1972.6 178703 0 0 178397 0 -296947 231301 0 -294205 230860 0 -291471 230422 0 -288746 229988 0 -286027 229557 0 -283317 229129 0 -280614 228704 0 -277919 228282 0 -275231 227864 0 -272551 227448 0 -269879 227036 0 -267213 226626 0 -264556 226219 0 -261905 225814 0 -259262 225413 0 -256626 225014 0 -253997 224618 0 -251375 224224 0 -248760 223832 0 -246152 223444 0 -243552 223057 0 -240958 222673 0 -238371 222291 0 -235791 221911 0 -233218 221534 0 -230652 221159 0 -228092 220785 0 -225540 220414 0 -222993 220045 0 -220454 219678 0 -217921 219312 0 -215395 218949 0 -212875 218587 0 -210362 218228 0 -207855 217870 0 -205355 217513 0 -202861 217159 0 -200374 216806 0 -197892 216454 0 -195418 216104 0 -192949 215756 0 -190487 215409 0 -188031 215063 0 -185581 21471