<?xml version="1.0"?> 
<VTKFile type="StructuredGrid" version="0.1"> 
<StructuredGrid WholeExtent="0 127 0 127 0 0"> 
<Piece Extent="0 127 0 127 0 0"> 
<PointData>
<DataArray type="Float32" Name="E" format="ascii" NumberOfComponents="3"> 
3.72069e+06 -1.47354e+06 0 3.72455e+06 -1.47507e+06 0 3.72841e+06 -1.4766e+06 0 3.73228e+06 -1.47813e+06 0 3.73615e+06 -1.47967e+06 0 3.74004e+06 -1.4812e+06 0 3.74394e+06 -1.48275e+06 0 3.74784e+06 -1.48429e+06 0 3.75176e+06 -1.48584e+06 0 3.75568e+06 -1.4874e+06 0 3.75962e+06 -1.48896e+06 0 3.76356e+06 -1.49052e+06 0 3.76751e+06 -1.49208e+06 0 3.77148e+06 -1.49365e+06 0 3.77545e+06 -1.49523e+06 0 3.77943e+06 -1.4968e+06 0 3.78342e+06 -1.49839e+06 0 3.78743e+06 -1.49997e+06 0 3.79144e+06 -1.50156e+06 0 3.79547e+06 -1.50315e+06 0 3.7995e+06 -1.50475e+06 0 3.80355e+06 -1.50636e+06 0 3.8076e+06 -1.50796e+06 0 3.81167e+06 -1.50957e+06 0 3.81575e+06 -1.51119e+06 0 3.81984e+06 -1.51281e+06 0 3.82395e+06 -1.51443e+06 0 3.82806e+06 -1.51606e+06 0 3.83219e+06 -1.5177e+06 0 3.83632e+06 -1.51934e+06 0 3.84047e+06 -1.52098e+06 0 3.84464e+06 -1.52263e+06 0 3.84881e+06 -1.52428e+06 0 3.853e+06 -1.52594e+06 0 3.8572e+06 -1.5276e+06 0 3.86141e+06 -1.52927e+06 0 3.86564e+06 -1.53095e+06 0 3.86988e+06 -1.53262e+06 0 3.87413e+06 -1.53431e+06 0 3.8784e+06 -1.536e+06 0 3.88268e+06 -1.53769e+06 0 3.88697e+06 -1.53939e+06 0 3.89128e+06 -1.5411e+06 0 3.8956e+06 -1.54281e+06 0 3.89994e+06 -1.54453e+06 0 3.90429e+06 -1.54625e+06 0 3.90866e+06 -1.54798e+06 0 3.91304e+06 -1.54972e+06 0 3.91744e+06 -1.55146e+06 0 3.92185e+06 -1.55321e+06 0 3.92628e+06 -1.55496e+06 0 3.93073e+06 -1.55672e+06 0 3.93519e+06 -1.55849e+06 0 3.93967e+06 -1.56027e+06 0 3.94417e+06 -1.56205e+06 0 3.94868e+06 -1.56383e+06 0 3.95321e+06 -1.56563e+06 0 3.95776e+06 -1.56743e+06 0 3.96233e+06 -1.56924e+06 0 3.96691e+06 -1.57105e+06 0 3.97151e+06 -1.57288e+06 0 3.97614e+06 -1.57471e+06 0 3.98078e+06 -1.57655e+06 0 3.98544e+06 -1.57839e+06 0 3.99012e+06 -1.58025e+06 0 3.99482e+06 -1.58211e+06 0 3.99954e+06 -1.58398e+06 0 4.00429e+06 -1.58586e+06 0 4.00905e+06 -1.58774e+06 0 4.01384e+06 -1.58964e+06 0 4.01865e+06 -1.59154e+06 0 4.02348e+06 -1.59346e+06 0 4.02833e+06 -1.59538e+06 0 4.03321e+06 -1.59731e+06 0 4.03811e+06 -1.59925e+06 0 4.04304e+06 -1.6012e+06 0 4.04799e+06 -1.60316e+06 0 4.05297e+06 -1.60514e+06 0 4.05797e+06 -1.60712e+06 0 4.063e+06 -1.60911e+06 0 4.06805e+06 -1.61111e+06 0 4.07314e+06 -1.61312e+06 0 4.07825e+06 -1.61515e+06 0 4.08339e+06 -1.61719e+06 0 4.08857e+06 -1.61923e+06 0 4.09377e+06 -1.62129e+06 0 4.099e+06 -1.62337e+06 0 4.10427e+06 -1.62545e+06 0 4.10957e+06 -1.62755e+06 0 4.1149e+06 -1.62966e+06 0 4.12026e+06 -1.63179e+06 0 4.12567e+06 -1.63393e+06 0 4.13111e+06 -1.63608e+06 0 4.13658e+06 -1.63825e+06 0 4.1421e+06 -1.64043e+06 0 4.14765e+06 -1.64263e+06 0 4.15325e+06 -1.64485e+06 0 4.15889e+06 -1.64708e+06 0 4.16457e+06 -1.64933e+06 0 4.1703e+06 -1.6516e+06 0 4.17607e+06 -1.65389e+06 0 4.18189e+06 -1.6562e+06 0 4.18777e+06 -1.65852e+06 0 4.19369e+06 -1.66087e+06 0 4.19967e+06 -1.66323e+06 0 4.2057e+06 -1.66562e+06 0 4.21179e+06 -1.66804e+06 0 4.21794e+06 -1.67047e+06 0 4.22415e+06 -1.67293e+06 0 4.23043e+06 -1.67542e+06 0 4.23677e+06 -1.67793e+06 0 4.24319e+06 -1.68047e+06 0 4.24967e+06 -1.68304e+06 0 4.25624e+06 -1.68564e+06 0 4.26288e+06 -1.68827e+06 0 4.26961e+06 -1.69093e+06 0 4.27643e+06 -1.69363e+06 0 4.28333e+06 -1.69637e+06 0 4.29034e+06 -1.69914e+06 0 4.29744e+06 -1.70196e+06 0 4.30465e+06 -1.70481e+06 0 4.31198e+06 -1.70771e+06 0 4.31942e+06 -1.71066e+06 0 4.32699e+06 -1.71366e+06 0 4.33468e+06 -1.71671e+06 0 4.34252e+06 -1.71981e+06 0 4.3505e+06 -1.72297e+06 0 4.35864e+06 -1.72619e+06 0 3.85585e+06 -1.39968e+06 0 3.85988e+06 -1.40097e+06 0 3.86391e+06 -1.40226e+06 0 3.86796e+06 -1.40355e+06 0 3.87201e+06 -1.40485e+06 0 3.87608e+06 -1.40614e+06 0 3.88016e+06 -1.40744e+06 0 3.88425e+06 -1.40874e+06 0 3.88835e+06 -1.41003e+06 0 3.89246e+06 -1.41133e+06 0 3.89659e+06 -1.41263e+06 0 3.90073e+06 -1.41393e+06 0 3.90487e+06 -1.41523e+06 0 3.90904e+06 -1.41653e+06 0 3.91321e+06 -1.41783e+06 0 3.9174e+06 -1.41913e+06 0 3.92159e+06 -1.42044e+06 0 3.92581e+06 -1.42174e+06 0 3.93003e+06 -1.42304e+06 0 3.93427e+06 -1.42435e+06 0 3.93852e+06 -1.42565e+06 0 3.94278e+06 -1.42696e+06 0 3.94706e+06 -1.42826e+06 0 3.95135e+06 -1.42957e+06 0 3.95566e+06 -1.43088e+06 0 3.95998e+06 -1.43218e+06 0 3.96432e+06 -1.43349e+06 0 3.96866e+06 -1.4348e+06 0 3.97303e+06 -1.43611e+06 0 3.97741e+06 -1.43742e+06 0 3.9818e+06 -1.43872e+06 0 3.98621e+06 -1.44003e+06 0 3.99064e+06 -1.44134e+06 0 3.99508e+06 -1.44265e+06 0 3.99953e+06 -1.44396e+06 0 4.004e+06 -1.44527e+06 0 4.00849e+06 -1.44658e+06 0 4.013e+06 -1.44789e+06 0 4.01752e+06 -1.4492e+06 0 4.02206e+06 -1.45051e+06 0 4.02662e+06 -1.45182e+06 0 4.03119e+06 -1.45313e+06 0 4.03578e+06 -1.45444e+06 0 4.04039e+06 -1.45575e+06 0 4.04502e+06 -1.45706e+06 0 4.04967e+06 -1.45837e+06 0 4.05434e+06 -1.45968e+06 0 4.05902e+06 -1.46098e+06 0 4.06372e+06 -1.46229e+06 0 4.06845e+06 -1.4636e+06 0 4.07319e+06 -1.4649e+06 0 4.07796e+06 -1.46621e+06 0 4.08274e+06 -1.46751e+06 0 4.08755e+06 -1.46881e+06 0 4.09237e+06 -1.47011e+06 0 4.09722e+06 -1.47141e+06 0 4.10209e+06 -1.47271e+06 0 4.10699e+06 -1.47401e+06 0 4.1119e+06 -1.47531e+06 0 4.11684e+06 -1.4766e+06 0 4.1218e+06 -1.47789e+06 0 4.12679e+06 -1.47918e+06 0 4.1318e+06 -1.48047e+06 0 4.13683e+06 -1.48176e+06 0 4.14189e+06 -1.48304e+06 0 4.14697e+06 -1.48432e+06 0 4.15208e+06 -1.4856e+06 0 4.15722e+06 -1.48688e+06 0 4.16238e+06 -1.48815e+06 0 4.16757e+06 -1.48942e+06 0 4.17279e+06 -1.49068e+06 0 4.17803e+06 -1.49194e+06 0 4.18331e+06 -1.4932e+06 0 4.18861e+06 -1.49445e+06 0 4.19394e+06 -1.4957e+06 0 4.1993e+06 -1.49694e+06 0 4.2047e+06 -1.49818e+06 0 4.21012e+06 -1.49941e+06 0 4.21557e+06 -1.50064e+06 0 4.22106e+06 -1.50186e+06 0 4.22658e+06 -1.50308e+06 0 4.23214e+06 -1.50429e+06 0 4.23772e+06 -1.50549e+06 0 4.24335e+06 -1.50668e+06 0 4.249e+06 -1.50786e+06 0 4.2547e+06 -1.50904e+06 0 4.26043e+06 -1.51021e+06 0 4.2662e+06 -1.51137e+06 0 4.272e+06 -1.51251e+06 0 4.27784e+06 -1.51365e+06 0 4.28373e+06 -1.51478e+06 0 4.28965e+06 -1.51589e+06 0 4.29561e+06 -1.51699e+06 0 4.30162e+06 -1.51808e+06 0 4.30767e+06 -1.51915e+06 0 4.31376e+06 -1.52021e+06 0 4.31989e+06 -1.52126e+06 0 4.32607e+06 -1.52229e+06 0 4.33229e+06 -1.5233e+06 0 4.33856e+06 -1.52429e+06 0 4.34488e+06 -1.52526e+06 0 4.35124e+06 -1.52621e+06 0 4.35766e+06 -1.52714e+06 0 4.36412e+06 -1.52805e+06 0 4.37063e+06 -1.52894e+06 0 4.37719e+06 -1.52979e+06 0 4.3838e+06 -1.53063e+06 0 4.39047e+06 -1.53143e+06 0 4.39719e+06 -1.5322e+06 0 4.40396e+06 -1.53294e+06 0 4.41078e+06 -1.53365e+06 0 4.41766e+06 -1.53432e+06 0 4.42459e+06 -1.53496e+06 0 4.43158e+06 -1.53555e+06 0 4.43863e+06 -1.53611e+06 0 4.44573e+06 -1.53662e+06 0 4.45288e+06 -1.53708e+06 0 4.4601e+06 -1.53749e+06 0 4.46736e+06 -1.53785e+06 0 4.47469e+06 -1.53816e+06 0 4.48207e+06 -1.5384e+06 0 4.4895e+06 -1.53859e+06 0 4.49699e+06 -1.53871e+06 0 4.50453e+06 -1.53876e+06 0 4.51213e+06 -1.53873e+06 0 4.51977e+06 -1.53863e+06 0 4.52747e+06 -1.53844e+06 0 4.53521e+06 -1.53817e+06 0 3.98232e+06 -1.31726e+06 0 3.98643e+06 -1.31824e+06 0 3.99056e+06 -1.31921e+06 0 3.9947e+06 -1.32019e+06 0 3.99885e+06 -1.32116e+06 0 4.00302e+06 -1.32212e+06 0 4.00719e+06 -1.32309e+06 0 4.01138e+06 -1.32405e+06 0 4.01558e+06 -1.32501e+06 0 4.01979e+06 -1.32596e+06 0 4.02401e+06 -1.32692e+06 0 4.02825e+06 -1.32786e+06 0 4.0325e+06 -1.32881e+06 0 4.03676e+06 -1.32975e+06 0 4.04103e+06 -1.33069e+06 0 4.04531e+06 -1.33162e+06 0 4.04961e+06 -1.33255e+06 0 4.05393e+06 -1.33348e+06 0 4.05825e+06 -1.3344e+06 0 4.06259e+06 -1.33531e+06 0 4.06694e+06 -1.33623e+06 0 4.07131e+06 -1.33714e+06 0 4.07568e+06 -1.33804e+06 0 4.08008e+06 -1.33894e+06 0 4.08448e+06 -1.33984e+06 0 4.08891e+06 -1.34073e+06 0 4.09334e+06 -1.34161e+06 0 4.09779e+06 -1.3425e+06 0 4.10225e+06 -1.34337e+06 0 4.10673e+06 -1.34424e+06 0 4.11122e+06 -1.34511e+06 0 4.11573e+06 -1.34597e+06 0 4.12026e+06 -1.34682e+06 0 4.12479e+06 -1.34767e+06 0 4.12935e+06 -1.34851e+06 0 4.13392e+06 -1.34935e+06 0 4.1385e+06 -1.35018e+06 0 4.1431e+06 -1.351e+06 0 4.14771e+06 -1.35182e+06 0 4.15235e+06 -1.35263e+06 0 4.15699e+06 -1.35343e+06 0 4.16166e+06 -1.35423e+06 0 4.16634e+06 -1.35501e+06 0 4.17104e+06 -1.3558e+06 0 4.17575e+06 -1.35657e+06 0 4.18048e+06 -1.35733e+06 0 4.18523e+06 -1.35809e+06 0 4.18999e+06 -1.35884e+06 0 4.19477e+06 -1.35958e+06 0 4.19957e+06 -1.36031e+06 0 4.20439e+06 -1.36104e+06 0 4.20922e+06 -1.36175e+06 0 4.21407e+06 -1.36246e+06 0 4.21894e+06 -1.36315e+06 0 4.22383e+06 -1.36384e+06 0 4.22873e+06 -1.36451e+06 0 4.23366e+06 -1.36517e+06 0 4.2386e+06 -1.36583e+06 0 4.24356e+06 -1.36647e+06 0 4.24854e+06 -1.3671e+06 0 4.25353e+06 -1.36772e+06 0 4.25855e+06 -1.36832e+06 0 4.26359e+06 -1.36892e+06 0 4.26864e+06 -1.3695e+06 0 4.27371e+06 -1.37007e+06 0 4.2788e+06 -1.37062e+06 0 4.28391e+06 -1.37117e+06 0 4.28904e+06 -1.37169e+06 0 4.29419e+06 -1.37221e+06 0 4.29936e+06 -1.3727e+06 0 4.30455e+06 -1.37319e+06 0 4.30976e+06 -1.37365e+06 0 4.31498e+06 -1.3741e+06 0 4.32023e+06 -1.37454e+06 0 4.32549e+06 -1.37495e+06 0 4.33078e+06 -1.37535e+06 0 4.33608e+06 -1.37573e+06 0 4.3414e+06 -1.3761e+06 0 4.34675e+06 -1.37644e+06 0 4.35211e+06 -1.37676e+06 0 4.35749e+06 -1.37707e+06 0 4.36289e+06 -1.37735e+06 0 4.3683e+06 -1.37761e+06 0 4.37374e+06 -1.37785e+06 0 4.37919e+06 -1.37807e+06 0 4.38466e+06 -1.37827e+06 0 4.39015e+06 -1.37844e+06 0 4.39566e+06 -1.37858e+06 0 4.40118e+06 -1.37871e+06 0 4.40673e+06 -1.3788e+06 0 4.41228e+06 -1.37887e+06 0 4.41786e+06 -1.37892e+06 0 4.42345e+06 -1.37893e+06 0 4.42905e+06 -1.37892e+06 0 4.43467e+06 -1.37888e+06 0 4.4403e+06 -1.37881e+06 0 4.44595e+06 -1.37871e+06 0 4.45161e+06 -1.37858e+06 0 4.45728e+06 -1.37842e+06 0 4.46296e+06 -1.37822e+06 0 4.46865e+06 -1.37799e+06 0 4.47435e+06 -1.37773e+06 0 4.48007e+06 -1.37743e+06 0 4.48578e+06 -1.3771e+06 0 4.49151e+06 -1.37673e+06 0 4.49724e+06 -1.37633e+06 0 4.50297e+06 -1.37588e+06 0 4.50871e+06 -1.3754e+06 0 4.51445e+06 -1.37488e+06 0 4.52019e+06 -1.37432e+06 0 4.52592e+06 -1.37372e+06 0 4.53166e+06 -1.37307e+06 0 4.53739e+06 -1.37239e+06 0 4.54311e+06 -1.37166e+06 0 4.54883e+06 -1.37089e+06 0 4.55453e+06 -1.37008e+06 0 4.56022e+06 -1.36922e+06 0 4.5659e+06 -1.36832e+06 0 4.57157e+06 -1.36738e+06 0 4.57721e+06 -1.36638e+06 0 4.58283e+06 -1.36535e+06 0 4.58843e+06 -1.36427e+06 0 4.594e+06 -1.36314e+06 0 4.59955e+06 -1.36197e+06 0 4.60506e+06 -1.36076e+06 0 4.61054e+06 -1.3595e+06 0 4.61598e+06 -1.3582e+06 0 4.62139e+06 -1.35686e+06 0 4.09671e+06 -1.22807e+06 0 4.10081e+06 -1.2287e+06 0 4.10492e+06 -1.22932e+06 0 4.10903e+06 -1.22994e+06 0 4.11316e+06 -1.23055e+06 0 4.1173e+06 -1.23116e+06 0 4.12145e+06 -1.23175e+06 0 4.12561e+06 -1.23235e+06 0 4.12978e+06 -1.23293e+06 0 4.13395e+06 -1.23351e+06 0 4.13814e+06 -1.23408e+06 0 4.14234e+06 -1.23464e+06 0 4.14655e+06 -1.2352e+06 0 4.15077e+06 -1.23575e+06 0 4.15501e+06 -1.23629e+06 0 4.15925e+06 -1.23683e+06 0 4.1635e+06 -1.23736e+06 0 4.16776e+06 -1.23788e+06 0 4.17204e+06 -1.23839e+06 0 4.17632e+06 -1.23889e+06 0 4.18062e+06 -1.23939e+06 0 4.18492e+06 -1.23988e+06 0 4.18924e+06 -1.24036e+06 0 4.19357e+06 -1.24083e+06 0 4.19791e+06 -1.24129e+06 0 4.20226e+06 -1.24174e+06 0 4.20662e+06 -1.24219e+06 0 4.21099e+06 -1.24262e+06 0 4.21537e+06 -1.24305e+06 0 4.21977e+06 -1.24347e+06 0 4.22417e+06 -1.24388e+06 0 4.22859e+06 -1.24427e+06 0 4.23302e+06 -1.24466e+06 0 4.23746e+06 -1.24504e+06 0 4.24191e+06 -1.24541e+06 0 4.24637e+06 -1.24577e+06 0 4.25084e+06 -1.24612e+06 0 4.25532e+06 -1.24645e+06 0 4.25981e+06 -1.24678e+06 0 4.26432e+06 -1.24709e+06 0 4.26884e+06 -1.2474e+06 0 4.27336e+06 -1.24769e+06 0 4.2779e+06 -1.24797e+06 0 4.28245e+06 -1.24824e+06 0 4.28701e+06 -1.2485e+06 0 4.29158e+06 -1.24874e+06 0 4.29617e+06 -1.24898e+06 0 4.30076e+06 -1.2492e+06 0 4.30536e+06 -1.24941e+06 0 4.30998e+06 -1.2496e+06 0 4.3146e+06 -1.24978e+06 0 4.31924e+06 -1.24995e+06 0 4.32389e+06 -1.25011e+06 0 4.32855e+06 -1.25025e+06 0 4.33322e+06 -1.25038e+06 0 4.33789e+06 -1.25049e+06 0 4.34258e+06 -1.25059e+06 0 4.34728e+06 -1.25068e+06 0 4.35199e+06 -1.25075e+06 0 4.35671e+06 -1.2508e+06 0 4.36144e+06 -1.25084e+06 0 4.36618e+06 -1.25086e+06 0 4.37093e+06 -1.25087e+06 0 4.37569e+06 -1.25087e+06 0 4.38046e+06 -1.25084e+06 0 4.38524e+06 -1.2508e+06 0 4.39002e+06 -1.25075e+06 0 4.39482e+06 -1.25067e+06 0 4.39962e+06 -1.25058e+06 0 4.40444e+06 -1.25048e+06 0 4.40926e+06 -1.25035e+06 0 4.41409e+06 -1.25021e+06 0 4.41892e+06 -1.25005e+06 0 4.42377e+06 -1.24987e+06 0 4.42862e+06 -1.24968e+06 0 4.43348e+06 -1.24946e+06 0 4.43835e+06 -1.24923e+06 0 4.44323e+06 -1.24898e+06 0 4.44811e+06 -1.2487e+06 0 4.453e+06 -1.24841e+06 0 4.45789e+06 -1.2481e+06 0 4.46279e+06 -1.24778e+06 0 4.4677e+06 -1.24743e+06 0 4.47261e+06 -1.24706e+06 0 4.47753e+06 -1.24667e+06 0 4.48245e+06 -1.24626e+06 0 4.48737e+06 -1.24583e+06 0 4.49231e+06 -1.24538e+06 0 4.49724e+06 -1.24491e+06 0 4.50218e+06 -1.24442e+06 0 4.50712e+06 -1.24391e+06 0 4.51207e+06 -1.24338e+06 0 4.51701e+06 -1.24282e+06 0 4.52196e+06 -1.24225e+06 0 4.52692e+06 -1.24165e+06 0 4.53187e+06 -1.24104e+06 0 4.53683e+06 -1.2404e+06 0 4.54178e+06 -1.23974e+06 0 4.54674e+06 -1.23906e+06 0 4.5517e+06 -1.23837e+06 0 4.55667e+06 -1.23765e+06 0 4.56163e+06 -1.23691e+06 0 4.56659e+06 -1.23615e+06 0 4.57155e+06 -1.23537e+06 0 4.57651e+06 -1.23456e+06 0 4.58148e+06 -1.23374e+06 0 4.58644e+06 -1.2329e+06 0 4.5914e+06 -1.23205e+06 0 4.59637e+06 -1.23117e+06 0 4.60133e+06 -1.23027e+06 0 4.60629e+06 -1.22936e+06 0 4.61126e+06 -1.22842e+06 0 4.61622e+06 -1.22747e+06 0 4.62119e+06 -1.22651e+06 0 4.62615e+06 -1.22552e+06 0 4.63112e+06 -1.22452e+06 0 4.63609e+06 -1.22351e+06 0 4.64106e+06 -1.22248e+06 0 4.64604e+06 -1.22143e+06 0 4.65102e+06 -1.22037e+06 0 4.65601e+06 -1.2193e+06 0 4.661e+06 -1.21822e+06 0 4.666e+06 -1.21712e+06 0 4.67101e+06 -1.21602e+06 0 4.67603e+06 -1.2149e+06 0 4.68106e+06 -1.21377e+06 0 4.6861e+06 -1.21263e+06 0 4.69116e+06 -1.21149e+06 0 4.19724e+06 -1.1351e+06 0 4.20122e+06 -1.13539e+06 0 4.2052e+06 -1.13568e+06 0 4.20918e+06 -1.13596e+06 0 4.21318e+06 -1.13623e+06 0 4.21718e+06 -1.1365e+06 0 4.22119e+06 -1.13675e+06 0 4.22521e+06 -1.137e+06 0 4.22924e+06 -1.13724e+06 0 4.23327e+06 -1.13747e+06 0 4.23731e+06 -1.13769e+06 0 4.24136e+06 -1.1379e+06 0 4.24541e+06 -1.1381e+06 0 4.24947e+06 -1.1383e+06 0 4.25354e+06 -1.13848e+06 0 4.25762e+06 -1.13866e+06 0 4.26171e+06 -1.13882e+06 0 4.2658e+06 -1.13898e+06 0 4.2699e+06 -1.13913e+06 0 4.274e+06 -1.13927e+06 0 4.27812e+06 -1.1394e+06 0 4.28224e+06 -1.13951e+06 0 4.28637e+06 -1.13962e+06 0 4.2905e+06 -1.13972e+06 0 4.29464e+06 -1.13981e+06 0 4.29879e+06 -1.13989e+06 0 4.30295e+06 -1.13996e+06 0 4.30711e+06 -1.14001e+06 0 4.31128e+06 -1.14006e+06 0 4.31546e+06 -1.1401e+06 0 4.31965e+06 -1.14012e+06 0 4.32384e+06 -1.14013e+06 0 4.32804e+06 -1.14014e+06 0 4.33224e+06 -1.14013e+06 0 4.33645e+06 -1.14011e+06 0 4.34067e+06 -1.14008e+06 0 4.34489e+06 -1.14004e+06 0 4.34913e+06 -1.13999e+06 0 4.35336e+06 -1.13992e+06 0 4.35761e+06 -1.13984e+06 0 4.36186e+06 -1.13976e+06 0 4.36611e+06 -1.13966e+06 0 4.37038e+06 -1.13954e+06 0 4.37464e+06 -1.13942e+06 0 4.37892e+06 -1.13928e+06 0 4.3832e+06 -1.13913e+06 0 4.38749e+06 -1.13897e+06 0 4.39178e+06 -1.1388e+06 0 4.39608e+06 -1.13861e+06 0 4.40038e+06 -1.13841e+06 0 4.40469e+06 -1.1382e+06 0 4.409e+06 -1.13797e+06 0 4.41332e+06 -1.13773e+06 0 4.41765e+06 -1.13748e+06 0 4.42198e+06 -1.13721e+06 0 4.42631e+06 -1.13693e+06 0 4.43065e+06 -1.13664e+06 0 4.435e+06 -1.13634e+06 0 4.43934e+06 -1.13602e+06 0 4.4437e+06 -1.13568e+06 0 4.44806e+06 -1.13534e+06 0 4.45242e+06 -1.13497e+06 0 4.45678e+06 -1.1346e+06 0 4.46115e+06 -1.13421e+06 0 4.46553e+06 -1.13381e+06 0 4.46991e+06 -1.13339e+06 0 4.47429e+06 -1.13296e+06 0 4.47867e+06 -1.13251e+06 0 4.48306e+06 -1.13205e+06 0 4.48745e+06 -1.13157e+06 0 4.49185e+06 -1.13108e+06 0 4.49625e+06 -1.13058e+06 0 4.50065e+06 -1.13006e+06 0 4.50505e+06 -1.12953e+06 0 4.50946e+06 -1.12898e+06 0 4.51387e+06 -1.12841e+06 0 4.51828e+06 -1.12784e+06 0 4.52269e+06 -1.12724e+06 0 4.52711e+06 -1.12663e+06 0 4.53152e+06 -1.12601e+06 0 4.53594e+06 -1.12537e+06 0 4.54037e+06 -1.12472e+06 0 4.54479e+06 -1.12405e+06 0 4.54921e+06 -1.12337e+06 0 4.55364e+06 -1.12267e+06 0 4.55807e+06 -1.12195e+06 0 4.56249e+06 -1.12122e+06 0 4.56692e+06 -1.12048e+06 0 4.57135e+06 -1.11972e+06 0 4.57578e+06 -1.11895e+06 0 4.58021e+06 -1.11816e+06 0 4.58464e+06 -1.11735e+06 0 4.58908e+06 -1.11653e+06 0 4.59351e+06 -1.1157e+06 0 4.59794e+06 -1.11484e+06 0 4.60237e+06 -1.11398e+06 0 4.6068e+06 -1.1131e+06 0 4.61123e+06 -1.1122e+06 0 4.61567e+06 -1.11129e+06 0 4.6201e+06 -1.11036e+06 0 4.62453e+06 -1.10942e+06 0 4.62895e+06 -1.10846e+06 0 4.63338e+06 -1.10749e+06 0 4.63781e+06 -1.1065e+06 0 4.64223e+06 -1.10549e+06 0 4.64665e+06 -1.10447e+06 0 4.65108e+06 -1.10343e+06 0 4.6555e+06 -1.10238e+06 0 4.65991e+06 -1.10131e+06 0 4.66433e+06 -1.10023e+06 0 4.66874e+06 -1.09913e+06 0 4.67315e+06 -1.09801e+06 0 4.67755e+06 -1.09688e+06 0 4.68195e+06 -1.09573e+06 0 4.68635e+06 -1.09456e+06 0 4.69074e+06 -1.09338e+06 0 4.69512e+06 -1.09217e+06 0 4.6995e+06 -1.09096e+06 0 4.70388e+06 -1.08972e+06 0 4.70824e+06 -1.08846e+06 0 4.7126e+06 -1.08719e+06 0 4.71695e+06 -1.08589e+06 0 4.72128e+06 -1.08458e+06 0 4.72561e+06 -1.08325e+06 0 4.72993e+06 -1.0819e+06 0 4.73423e+06 -1.08052e+06 0 4.73851e+06 -1.07913e+06 0 4.74278e+06 -1.07771e+06 0 4.28381e+06 -1.04134e+06 0 4.28758e+06 -1.04135e+06 0 4.29137e+06 -1.04136e+06 0 4.29515e+06 -1.04135e+06 0 4.29895e+06 -1.04134e+06 0 4.30274e+06 -1.04132e+06 0 4.30655e+06 -1.04129e+06 0 4.31035e+06 -1.04126e+06 0 4.31416e+06 -1.04121e+06 0 4.31798e+06 -1.04115e+06 0 4.3218e+06 -1.04109e+06 0 4.32563e+06 -1.04101e+06 0 4.32946e+06 -1.04093e+06 0 4.33329e+06 -1.04084e+06 0 4.33713e+06 -1.04073e+06 0 4.34098e+06 -1.04062e+06 0 4.34483e+06 -1.0405e+06 0 4.34868e+06 -1.04037e+06 0 4.35254e+06 -1.04023e+06 0 4.3564e+06 -1.04008e+06 0 4.36027e+06 -1.03992e+06 0 4.36414e+06 -1.03975e+06 0 4.36801e+06 -1.03957e+06 0 4.37189e+06 -1.03938e+06 0 4.37578e+06 -1.03919e+06 0 4.37966e+06 -1.03898e+06 0 4.38356e+06 -1.03876e+06 0 4.38745e+06 -1.03853e+06 0 4.39135e+06 -1.03829e+06 0 4.39526e+06 -1.03804e+06 0 4.39916e+06 -1.03778e+06 0 4.40307e+06 -1.03751e+06 0 4.40699e+06 -1.03723e+06 0 4.41091e+06 -1.03694e+06 0 4.41483e+06 -1.03663e+06 0 4.41876e+06 -1.03632e+06 0 4.42268e+06 -1.036e+06 0 4.42662e+06 -1.03566e+06 0 4.43055e+06 -1.03532e+06 0 4.43449e+06 -1.03496e+06 0 4.43843e+06 -1.0346e+06 0 4.44238e+06 -1.03422e+06 0 4.44633e+06 -1.03383e+06 0 4.45028e+06 -1.03343e+06 0 4.45423e+06 -1.03302e+06 0 4.45819e+06 -1.0326e+06 0 4.46215e+06 -1.03217e+06 0 4.46611e+06 -1.03172e+06 0 4.47007e+06 -1.03127e+06 0 4.47404e+06 -1.0308e+06 0 4.47801e+06 -1.03032e+06 0 4.48198e+06 -1.02983e+06 0 4.48596e+06 -1.02933e+06 0 4.48993e+06 -1.02882e+06 0 4.49391e+06 -1.02829e+06 0 4.49789e+06 -1.02776e+06 0 4.50187e+06 -1.02721e+06 0 4.50586e+06 -1.02665e+06 0 4.50984e+06 -1.02608e+06 0 4.51383e+06 -1.0255e+06 0 4.51782e+06 -1.02491e+06 0 4.52181e+06 -1.0243e+06 0 4.5258e+06 -1.02368e+06 0 4.5298e+06 -1.02305e+06 0 4.53379e+06 -1.02241e+06 0 4.53779e+06 -1.02176e+06 0 4.54178e+06 -1.02109e+06 0 4.54578e+06 -1.02042e+06 0 4.54978e+06 -1.01973e+06 0 4.55378e+06 -1.01903e+06 0 4.55778e+06 -1.01831e+06 0 4.56178e+06 -1.01759e+06 0 4.56578e+06 -1.01685e+06 0 4.56978e+06 -1.0161e+06 0 4.57378e+06 -1.01534e+06 0 4.57779e+06 -1.01457e+06 0 4.58179e+06 -1.01378e+06 0 4.58579e+06 -1.01299e+06 0 4.58979e+06 -1.01218e+06 0 4.59379e+06 -1.01136e+06 0 4.59779e+06 -1.01052e+06 0 4.6018e+06 -1.00968e+06 0 4.6058e+06 -1.00882e+06 0 4.6098e+06 -1.00795e+06 0 4.61379e+06 -1.00707e+06 0 4.61779e+06 -1.00617e+06 0 4.62179e+06 -1.00527e+06 0 4.62579e+06 -1.00435e+06 0 4.62978e+06 -1.00342e+06 0 4.63378e+06 -1.00247e+06 0 4.63777e+06 -1.00152e+06 0 4.64176e+06 -1.00055e+06 0 4.64575e+06 -999572 0 4.64974e+06 -998580 0 4.65372e+06 -997577 0 4.65771e+06 -996561 0 4.66169e+06 -995533 0 4.66567e+06 -994493 0 4.66965e+06 -993442 0 4.67362e+06 -992378 0 4.6776e+06 -991302 0 4.68157e+06 -990214 0 4.68553e+06 -989115 0 4.6895e+06 -988004 0 4.69346e+06 -986881 0 4.69742e+06 -985746 0 4.70138e+06 -984600 0 4.70533e+06 -983442 0 4.70928e+06 -982273 0 4.71323e+06 -981093 0 4.71717e+06 -979901 0 4.72111e+06 -978699 0 4.72505e+06 -977485 0 4.72898e+06 -976261 0 4.73291e+06 -975027 0 4.73684e+06 -973782 0 4.74077e+06 -972527 0 4.74469e+06 -971262 0 4.74861e+06 -969988 0 4.75252e+06 -968704 0 4.75644e+06 -967412 0 4.76035e+06 -966111 0 4.76427e+06 -964802 0 4.76818e+06 -963485 0 4.77209e+06 -962161 0 4.776e+06 -960830 0 4.77991e+06 -959492 0 4.78382e+06 -958149 0 4.3574e+06 -949072 0 4.36095e+06 -948863 0 4.3645e+06 -948646 0 4.36806e+06 -948421 0 4.37161e+06 -948187 0 4.37517e+06 -947944 0 4.37873e+06 -947694 0 4.3823e+06 -947434 0 4.38587e+06 -947166 0 4.38944e+06 -946890 0 4.39301e+06 -946604 0 4.39659e+06 -946310 0 4.40017e+06 -946008 0 4.40375e+06 -945696 0 4.40734e+06 -945376 0 4.41092e+06 -945047 0 4.41451e+06 -944709 0 4.4181e+06 -944362 0 4.4217e+06 -944006 0 4.4253e+06 -943642 0 4.4289e+06 -943268 0 4.4325e+06 -942885 0 4.4361e+06 -942493 0 4.43971e+06 -942092 0 4.44331e+06 -941682 0 4.44692e+06 -941263 0 4.45054e+06 -940834 0 4.45415e+06 -940396 0 4.45777e+06 -939949 0 4.46139e+06 -939493 0 4.46501e+06 -939027 0 4.46863e+06 -938552 0 4.47225e+06 -938068 0 4.47588e+06 -937574 0 4.4795e+06 -937071 0 4.48313e+06 -936558 0 4.48676e+06 -936036 0 4.49039e+06 -935504 0 4.49402e+06 -934963 0 4.49766e+06 -934412 0 4.50129e+06 -933852 0 4.50493e+06 -933282 0 4.50857e+06 -932702 0 4.51221e+06 -932113 0 4.51585e+06 -931514 0 4.51949e+06 -930905 0 4.52313e+06 -930287 0 4.52677e+06 -929659 0 4.53041e+06 -929021 0 4.53406e+06 -928373 0 4.5377e+06 -927716 0 4.54135e+06 -927049 0 4.54499e+06 -926372 0 4.54864e+06 -925685 0 4.55229e+06 -924988 0 4.55593e+06 -924282 0 4.55958e+06 -923565 0 4.56323e+06 -922839 0 4.56688e+06 -922103 0 4.57052e+06 -921357 0 4.57417e+06 -920601 0 4.57782e+06 -919835 0 4.58147e+06 -919059 0 4.58511e+06 -918274 0 4.58876e+06 -917478 0 4.59241e+06 -916672 0 4.59605e+06 -915857 0 4.5997e+06 -915032 0 4.60335e+06 -914196 0 4.60699e+06 -913351 0 4.61064e+06 -912496 0 4.61428e+06 -911630 0 4.61792e+06 -910755 0 4.62156e+06 -909870 0 4.62521e+06 -908975 0 4.62885e+06 -908070 0 4.63248e+06 -907155 0 4.63612e+06 -906231 0 4.63976e+06 -905296 0 4.6434e+06 -904351 0 4.64703e+06 -903397 0 4.65066e+06 -902433 0 4.65429e+06 -901458 0 4.65792e+06 -900474 0 4.66155e+06 -899481 0 4.66518e+06 -898477 0 4.66881e+06 -897463 0 4.67243e+06 -896440 0 4.67605e+06 -895407 0 4.67967e+06 -894364 0 4.68329e+06 -893312 0 4.68691e+06 -892250 0 4.69052e+06 -891178 0 4.69413e+06 -890097 0 4.69774e+06 -889005 0 4.70135e+06 -887905 0 4.70496e+06 -886794 0 4.70856e+06 -885674 0 4.71216e+06 -884545 0 4.71576e+06 -883406 0 4.71936e+06 -882258 0 4.72295e+06 -881100 0 4.72654e+06 -879932 0 4.73013e+06 -878755 0 4.73372e+06 -877569 0 4.7373e+06 -876374 0 4.74088e+06 -875168 0 4.74446e+06 -873954 0 4.74803e+06 -872730 0 4.75161e+06 -871497 0 4.75518e+06 -870254 0 4.75874e+06 -869002 0 4.76231e+06 -867740 0 4.76587e+06 -866469 0 4.76943e+06 -865189 0 4.77298e+06 -863899 0 4.77653e+06 -862599 0 4.78008e+06 -861289 0 4.78362e+06 -859970 0 4.78716e+06 -858641 0 4.79069e+06 -857301 0 4.79422e+06 -855952 0 4.79775e+06 -854592 0 4.80127e+06 -853222 0 4.80478e+06 -851840 0 4.80829e+06 -850448 0 4.81179e+06 -849044 0 4.81528e+06 -847629 0 4.41943e+06 -859714 0 4.42273e+06 -859334 0 4.42604e+06 -858945 0 4.42935e+06 -858548 0 4.43267e+06 -858144 0 4.43598e+06 -857732 0 4.4393e+06 -857312 0 4.44261e+06 -856885 0 4.44593e+06 -856449 0 4.44925e+06 -856006 0 4.45258e+06 -855554 0 4.4559e+06 -855095 0 4.45922e+06 -854628 0 4.46255e+06 -854152 0 4.46588e+06 -853669 0 4.4692e+06 -853178 0 4.47253e+06 -852678 0 4.47586e+06 -852171 0 4.4792e+06 -851656 0 4.48253e+06 -851132 0 4.48586e+06 -850600 0 4.4892e+06 -850061 0 4.49253e+06 -849513 0 4.49587e+06 -848957 0 4.49921e+06 -848392 0 4.50255e+06 -847820 0 4.50589e+06 -847239 0 4.50923e+06 -846650 0 4.51257e+06 -846053 0 4.51591e+06 -845448 0 4.51925e+06 -844834 0 4.52259e+06 -844213 0 4.52593e+06 -843582 0 4.52928e+06 -842944 0 4.53262e+06 -842297 0 4.53596e+06 -841642 0 4.53931e+06 -840979 0 4.54265e+06 -840307 0 4.546e+06 -839627 0 4.54934e+06 -838939 0 4.55269e+06 -838242 0 4.55603e+06 -837537 0 4.55938e+06 -836823 0 4.56273e+06 -836102 0 4.56607e+06 -835371 0 4.56942e+06 -834633 0 4.57276e+06 -833885 0 4.57611e+06 -833130 0 4.57945e+06 -832366 0 4.58279e+06 -831594 0 4.58614e+06 -830813 0 4.58948e+06 -830024 0 4.59283e+06 -829226 0 4.59617e+06 -828420 0 4.59951e+06 -827606 0 4.60285e+06 -826783 0 4.60619e+06 -825952 0 4.60953e+06 -825112 0 4.61287e+06 -824264 0 4.61621e+06 -823407 0 4.61955e+06 -822542 0 4.62289e+06 -821669 0 4.62623e+06 -820787 0 4.62956e+06 -819897 0 4.6329e+06 -818998 0 4.63623e+06 -818091 0 4.63956e+06 -817175 0 4.64289e+06 -816251 0 4.64622e+06 -815319 0 4.64955e+06 -814378 0 4.65288e+06 -813429 0 4.65621e+06 -812472 0 4.65953e+06 -811506 0 4.66286e+06 -810532 0 4.66618e+06 -809549 0 4.6695e+06 -808558 0 4.67282e+06 -807559 0 4.67614e+06 -806551 0 4.67945e+06 -805535 0 4.68277e+06 -804511 0 4.68608e+06 -803479 0 4.68939e+06 -802438 0 4.6927e+06 -801389 0 4.69601e+06 -800331 0 4.69931e+06 -799266 0 4.70261e+06 -798192 0 4.70592e+06 -797110 0 4.70921e+06 -796019 0 4.71251e+06 -794921 0 4.71581e+06 -793814 0 4.7191e+06 -792699 0 4.72239e+06 -791576 0 4.72568e+06 -790445 0 4.72897e+06 -789305 0 4.73225e+06 -788158 0 4.73553e+06 -787002 0 4.73881e+06 -785838 0 4.74209e+06 -784666 0 4.74536e+06 -783486 0 4.74863e+06 -782298 0 4.7519e+06 -781102 0 4.75517e+06 -779898 0 4.75843e+06 -778686 0 4.76169e+06 -777466 0 4.76495e+06 -776238 0 4.7682e+06 -775002 0 4.77145e+06 -773758 0 4.7747e+06 -772506 0 4.77795e+06 -771247 0 4.78119e+06 -769979 0 4.78443e+06 -768704 0 4.78767e+06 -767421 0 4.7909e+06 -766130 0 4.79413e+06 -764832 0 4.79736e+06 -763526 0 4.80058e+06 -762213 0 4.8038e+06 -760892 0 4.80702e+06 -759563 0 4.81024e+06 -758228 0 4.81345e+06 -756885 0 4.81666e+06 -755535 0 4.81986e+06 -754178 0 4.82306e+06 -752815 0 4.82626e+06 -751445 0 4.82946e+06 -750068 0 4.83265e+06 -748685 0 4.83585e+06 -747296 0 4.83904e+06 -745901 0 4.47125e+06 -774027 0 4.47432e+06 -773515 0 4.47739e+06 -772995 0 4.48046e+06 -772469 0 4.48354e+06 -771935 0 4.48661e+06 -771394 0 4.48969e+06 -770846 0 4.49276e+06 -770291 0 4.49584e+06 -769728 0 4.49891e+06 -769159 0 4.50199e+06 -768583 0 4.50507e+06 -767999 0 4.50815e+06 -767408 0 4.51122e+06 -766810 0 4.5143e+06 -766205 0 4.51738e+06 -765593 0 4.52046e+06 -764973 0 4.52354e+06 -764346 0 4.52662e+06 -763712 0 4.5297e+06 -763071 0 4.53278e+06 -762423 0 4.53586e+06 -761767 0 4.53894e+06 -761104 0 4.54202e+06 -760434 0 4.5451e+06 -759756 0 4.54818e+06 -759072 0 4.55126e+06 -758380 0 4.55434e+06 -757680 0 4.55742e+06 -756974 0 4.56051e+06 -756260 0 4.56359e+06 -755539 0 4.56666e+06 -754810 0 4.56974e+06 -754075 0 4.57282e+06 -753332 0 4.5759e+06 -752581 0 4.57898e+06 -751824 0 4.58206e+06 -751059 0 4.58514e+06 -750286 0 4.58821e+06 -749507 0 4.59129e+06 -748720 0 4.59437e+06 -747926 0 4.59744e+06 -747124 0 4.60052e+06 -746315 0 4.60359e+06 -745499 0 4.60667e+06 -744676 0 4.60974e+06 -743845 0 4.61281e+06 -743007 0 4.61588e+06 -742161 0 4.61895e+06 -741309 0 4.62202e+06 -740448 0 4.62509e+06 -739581 0 4.62816e+06 -738706 0 4.63123e+06 -737824 0 4.63429e+06 -736935 0 4.63736e+06 -736038 0 4.64042e+06 -735134 0 4.64349e+06 -734223 0 4.64655e+06 -733304 0 4.64961e+06 -732379 0 4.65267e+06 -731446 0 4.65573e+06 -730505 0 4.65878e+06 -729557 0 4.66184e+06 -728602 0 4.66489e+06 -727640 0 4.66794e+06 -726671 0 4.671e+06 -725694 0 4.67405e+06 -724710 0 4.67709e+06 -723719 0 4.68014e+06 -722720 0 4.68319e+06 -721715 0 4.68623e+06 -720702 0 4.68927e+06 -719682 0 4.69231e+06 -718654 0 4.69535e+06 -717620 0 4.69839e+06 -716578 0 4.70142e+06 -715529 0 4.70446e+06 -714473 0 4.70749e+06 -713410 0 4.71052e+06 -712340 0 4.71354e+06 -711262 0 4.71657e+06 -710177 0 4.71959e+06 -709086 0 4.72261e+06 -707987 0 4.72563e+06 -706881 0 4.72865e+06 -705768 0 4.73167e+06 -704648 0 4.73468e+06 -703521 0 4.73769e+06 -702387 0 4.7407e+06 -701245 0 4.74371e+06 -700097 0 4.74671e+06 -698942 0 4.74971e+06 -697780 0 4.75271e+06 -696611 0 4.75571e+06 -695435 0 4.7587e+06 -694252 0 4.7617e+06 -693062 0 4.76469e+06 -691865 0 4.76767e+06 -690661 0 4.77066e+06 -689450 0 4.77364e+06 -688233 0 4.77662e+06 -687009 0 4.7796e+06 -685777 0 4.78257e+06 -684539 0 4.78554e+06 -683295 0 4.78851e+06 -682043 0 4.79148e+06 -680785 0 4.79444e+06 -679520 0 4.7974e+06 -678248 0 4.80036e+06 -676970 0 4.80332e+06 -675684 0 4.80627e+06 -674393 0 4.80922e+06 -673094 0 4.81217e+06 -671789 0 4.81511e+06 -670477 0 4.81805e+06 -669159 0 4.82099e+06 -667833 0 4.82392e+06 -666502 0 4.82686e+06 -665163 0 4.82978e+06 -663818 0 4.83271e+06 -662466 0 4.83563e+06 -661108 0 4.83855e+06 -659742 0 4.84147e+06 -658370 0 4.84438e+06 -656991 0 4.84729e+06 -655605 0 4.85019e+06 -654212 0 4.85309e+06 -652812 0 4.85599e+06 -651405 0 4.51409e+06 -692369 0 4.51694e+06 -691756 0 4.51978e+06 -691136 0 4.52263e+06 -690510 0 4.52547e+06 -689877 0 4.52831e+06 -689238 0 4.53116e+06 -688592 0 4.534e+06 -687940 0 4.53685e+06 -687282 0 4.53969e+06 -686617 0 4.54254e+06 -685946 0 4.54538e+06 -685268 0 4.54823e+06 -684584 0 4.55107e+06 -683894 0 4.55391e+06 -683197 0 4.55676e+06 -682494 0 4.5596e+06 -681784 0 4.56244e+06 -681068 0 4.56529e+06 -680345 0 4.56813e+06 -679616 0 4.57097e+06 -678881 0 4.57381e+06 -678139 0 4.57665e+06 -677390 0 4.57949e+06 -676635 0 4.58233e+06 -675874 0 4.58517e+06 -675106 0 4.58801e+06 -674332 0 4.59085e+06 -673551 0 4.59369e+06 -672764 0 4.59652e+06 -671970 0 4.59936e+06 -671170 0 4.6022e+06 -670363 0 4.60503e+06 -669550 0 4.60786e+06 -668730 0 4.6107e+06 -667904 0 4.61353e+06 -667072 0 4.61636e+06 -666233 0 4.61919e+06 -665388 0 4.62202e+06 -664536 0 4.62485e+06 -663677 0 4.62768e+06 -662813 0 4.63051e+06 -661941 0 4.63333e+06 -661064 0 4.63616e+06 -660180 0 4.6