<?xml version="1.0"?> 
<VTKFile type="StructuredGrid" version="0.1"> 
<StructuredGrid WholeExtent="0 127 0 127 0 0"> 
<Piece Extent="0 127 0 127 0 0"> 
<PointData>
<DataArray type="Float32" Name="E" format="ascii" NumberOfComponents="3"> 
4.84288e-08 -3.36874e+06 0 515072 -2.99653e+06 0 734026 -2.66986e+06 0 869175 -2.39431e+06 0 950639 -2.15931e+06 0 1.00436e+06 -1.95715e+06 0 1.03936e+06 -1.78119e+06 0 1.06266e+06 -1.6265e+06 0 1.07783e+06 -1.48928e+06 0 1.08741e+06 -1.36657e+06 0 1.09296e+06 -1.25607e+06 0 1.09556e+06 -1.15596e+06 0 1.09596e+06 -1.06474e+06 0 1.09469e+06 -981234 0 1.09213e+06 -904443 0 1.08854e+06 -833551 0 1.08414e+06 -767869 0 1.07907e+06 -706816 0 1.07347e+06 -649896 0 1.06741e+06 -596687 0 1.06097e+06 -546822 0 1.05421e+06 -499984 0 1.04717e+06 -455897 0 1.03988e+06 -414317 0 1.03237e+06 -375033 0 1.02468e+06 -337856 0 1.01681e+06 -302618 0 1.00878e+06 -269170 0 1.0006e+06 -237380 0 992294 -207128 0 983862 -178307 0 975314 -150819 0 966656 -124578 0 957895 -99504.3 0 949036 -75525.1 0 940084 -52574.9 0 931042 -30593.6 0 921914 -9526.13 0 912704 10677.9 0 903415 30065 0 894049 48677.8 0 884610 66555.7 0 875100 83735 0 865522 100250 0 855877 116131 0 846167 131407 0 836396 146107 0 826565 160254 0 816677 173872 0 806732 186983 0 796734 199607 0 786683 211765 0 776583 223473 0 766435 234750 0 756241 245610 0 746002 256068 0 735721 266140 0 725400 275837 0 715040 285174 0 704643 294161 0 694211 302810 0 683746 311131 0 673250 319136 0 662725 326833 0 652171 334231 0 641592 341340 0 630989 348167 0 620363 354721 0 609717 361010 0 599052 367039 0 588370 372817 0 577673 378349 0 566962 383643 0 556239 388704 0 545506 393538 0 534765 398151 0 524017 402547 0 513263 406733 0 502506 410713 0 491747 414491 0 480987 418073 0 470229 421463 0 459473 424665 0 448722 427683 0 437976 430521 0 427238 433183 0 416509 435672 0 405789 437993 0 395082 440148 0 384387 442142 0 373708 443976 0 363044 445655 0 352397 447180 0 341769 448557 0 331161 449786 0 320574 450870 0 310010 451814 0 299469 452618 0 288954 453285 0 278465 453818 0 268004 454220 0 257571 454492 0 247169 454636 0 236797 454655 0 226458 454551 0 216152 454326 0 205881 453981 0 195646 453519 0 185447 452941 0 175286 452249 0 165164 451445 0 155081 450531 0 145040 449507 0 135041 448376 0 125084 447139 0 115172 445798 0 105305 444353 0 95483 442807 0 85708.4 441160 0 75981.6 439414 0 66303.6 437570 0 56675.3 435630 0 47097.6 433593 0 37571.4 431462 0 28097.7 429238 0 18677.3 426921 0 9310.84 424513 0 0 422014 0 -1.42172e-08 -3.30858e+06 0 490374 -2.97438e+06 0 716027 -2.65569e+06 0 852868 -2.3862e+06 0 937191 -2.15387e+06 0 992614 -1.95365e+06 0 1.02919e+06 -1.77883e+06 0 1.05368e+06 -1.62495e+06 0 1.06986e+06 -1.48826e+06 0 1.08025e+06 -1.36595e+06 0 1.08648e+06 -1.25573e+06 0 1.08966e+06 -1.15582e+06 0 1.09056e+06 -1.06477e+06 0 1.08971e+06 -981380 0 1.0875e+06 -904685 0 1.08424e+06 -833868 0 1.08011e+06 -768247 0 1.0753e+06 -707243 0 1.06991e+06 -650365 0 1.06405e+06 -597190 0 1.05779e+06 -547355 0 1.05118e+06 -500542 0 1.04429e+06 -456476 0 1.03713e+06 -414916 0 1.02974e+06 -375649 0 1.02216e+06 -338487 0 1.01439e+06 -303263 0 1.00645e+06 -269828 0 998362 -238049 0 990134 -207808 0 981777 -178997 0 973299 -151519 0 964707 -125287 0 956008 -100221 0 947207 -76249.9 0 938309 -53307.3 0 929319 -31333.2 0 920241 -10272.7 0 911078 9924.71 0 901833 29305.3 0 892511 47911.9 0 883113 65783.8 0 873642 82957.4 0 864100 99466.5 0 854491 115342 0 844817 130614 0 835079 145308 0 825281 159450 0 815423 173063 0 805509 186170 0 795540 198790 0 785518 210944 0 775445 222648 0 765324 233920 0 755155 244777 0 744942 255232 0 734686 265300 0 724389 274994 0 714052 284327 0 703679 293311 0 693269 301958 0 682826 310277 0 672352 318279 0 661847 325973 0 651314 333369 0 640756 340476 0 630172 347302 0 619566 353854 0 608939 360141 0 598293 366169 0 587630 371945 0 576950 377476 0 566258 382769 0 555552 387829 0 544837 392662 0 534112 397274 0 523381 401670 0 512644 405856 0 501903 409835 0 491160 413614 0 480416 417196 0 469673 420586 0 458933 423788 0 448197 426806 0 437466 429644 0 426743 432307 0 416028 434797 0 405323 437119 0 394630 439275 0 383949 441270 0 373283 443105 0 362633 444785 0 352000 446313 0 341385 447690 0 330790 448921 0 320217 450008 0 309665 450953 0 299138 451759 0 288635 452428 0 278159 452964 0 267710 453368 0 257289 453642 0 246899 453789 0 236539 453810 0 226212 453709 0 215918 453486 0 205658 453144 0 195434 452685 0 185247 452110 0 175097 451422 0 164986 450621 0 154915 449710 0 144885 448689 0 134896 447562 0 124951 446329 0 115049 444991 0 105192 443550 0 95381.5 442007 0 85617.4 440365 0 75901 438623 0 66233.3 436783 0 56615.2 434846 0 47047.7 432814 0 37531.7 430687 0 28068 428467 0 18657.5 426155 0 9301.03 423751 0 0 421256 0 1.5978e-08 -3.25336e+06 0 467825 -2.9512e+06 0 698321 -2.64157e+06 0 836984 -2.37776e+06 0 923876 -2.1483e+06 0 981001 -1.95e+06 0 1.0191e+06 -1.77637e+06 0 1.04476e+06 -1.62331e+06 0 1.06192e+06 -1.48718e+06 0 1.07312e+06 -1.36526e+06 0 1.08003e+06 -1.25534e+06 0 1.08378e+06 -1.15565e+06 0 1.08516e+06 -1.06475e+06 0 1.08473e+06 -981494 0 1.08289e+06 -904898 0 1.07994e+06 -834161 0 1.07609e+06 -768603 0 1.07152e+06 -707652 0 1.06636e+06 -650817 0 1.06069e+06 -597679 0 1.05461e+06 -547874 0 1.04816e+06 -501087 0 1.04141e+06 -457045 0 1.03438e+06 -415505 0 1.02711e+06 -376256 0 1.01964e+06 -339110 0 1.01197e+06 -303900 0 1.00412e+06 -270479 0 996123 -238712 0 987976 -208482 0 979694 -179681 0 971285 -152213 0 962759 -125990 0 954122 -100933 0 945379 -76970 0 936536 -54035.3 0 927598 -32068.7 0 918569 -11015.3 0 909453 9175.22 0 900253 28549.3 0 890973 47149.5 0 881616 65015.3 0 872184 82183 0 862680 98686.3 0 853108 114557 0 843468 129823 0 833764 144512 0 823997 158649 0 814171 172257 0 804287 185360 0 794347 197975 0 784353 210125 0 774308 221825 0 764213 233093 0 754071 243946 0 743883 254397 0 733652 264462 0 723379 274153 0 713066 283483 0 702715 292464 0 692328 301107 0 681907 309424 0 671454 317423 0 660971 325115 0 650459 332509 0 639920 339614 0 629356 346438 0 618770 352988 0 608162 359273 0 597535 365300 0 586890 371075 0 576229 376605 0 565554 381896 0 554866 386956 0 544168 391788 0 533460 396399 0 522745 400795 0 512025 404980 0 501300 408959 0 490573 412737 0 479845 416319 0 469118 419709 0 458393 422912 0 447672 425930 0 436957 428769 0 426248 431433 0 415548 433924 0 404857 436246 0 394178 438403 0 383512 440399 0 372859 442236 0 362223 443917 0 351603 445446 0 341002 446825 0 330420 448058 0 319860 449146 0 309321 450093 0 298806 450901 0 288316 451573 0 277852 452110 0 267416 452516 0 257008 452793 0 246629 452942 0 236282 452967 0 225966 452868 0 215684 452648 0 205436 452309 0 195223 451852 0 185047 451281 0 174909 450595 0 164809 449798 0 154749 448890 0 144730 447873 0 134752 446749 0 124818 445519 0 114927 444185 0 105081 442748 0 95280.2 441209 0 85526.5 439570 0 75820.5 437832 0 66163.1 435996 0 56555.3 434063 0 46997.9 432035 0 37492 429913 0 28038.3 427697 0 18637.8 425389 0 9291.22 422990 0 0 420500 0 -1.65892e-08 -3.20237e+06 0 447168 -2.92736e+06 0 680986 -2.62744e+06 0 821493 -2.36905e+06 0 910712 -2.14261e+06 0 969519 -1.94621e+06 0 1.00907e+06 -1.7738e+06 0 1.03589e+06 -1.62157e+06 0 1.05402e+06 -1.48602e+06 0 1.06601e+06 -1.36452e+06 0 1.07359e+06 -1.25489e+06 0 1.07791e+06 -1.15543e+06 0 1.07978e+06 -1.0647e+06 0 1.07976e+06 -981577 0 1.07829e+06 -905084 0 1.07565e+06 -834429 0 1.07208e+06 -768938 0 1.06776e+06 -708042 0 1.06281e+06 -651252 0 1.05734e+06 -598152 0 1.05143e+06 -548379 0 1.04514e+06 -501621 0 1.03853e+06 -457602 0 1.03163e+06 -416084 0 1.02449e+06 -376854 0 1.01712e+06 -339724 0 1.00955e+06 -304530 0 1.0018e+06 -271122 0 993886 -239368 0 985819 -209150 0 977612 -180359 0 969274 -152901 0 960813 -126688 0 952237 -101640 0 943552 -77685.6 0 934765 -54758.9 0 925879 -32800 0 916899 -11754 0 907830 8429.46 0 898675 27796.7 0 889437 46390.4 0 880121 64249.9 0 870728 81411.6 0 861262 97909.2 0 851725 113774 0 842120 129035 0 832449 143718 0 822715 157850 0 812920 171454 0 803066 184552 0 793155 197163 0 783190 209308 0 773172 221004 0 763104 232268 0 752988 243117 0 742825 253565 0 732619 263626 0 722370 273313 0 712080 282640 0 701752 291618 0 691388 300259 0 680989 308573 0 670557 316569 0 660095 324259 0 649603 331651 0 639085 338753 0 628541 345575 0 617974 352124 0 607386 358407 0 596777 364432 0 586150 370206 0 575508 375735 0 564850 381025 0 554180 386083 0 543499 390915 0 532809 395526 0 522111 399921 0 511407 404105 0 500698 408084 0 489987 411862 0 479275 415444 0 468564 418834 0 457854 422037 0 447148 425056 0 436447 427896 0 425753 430559 0 415068 433051 0 404392 435374 0 393727 437533 0 383074 439529 0 372436 441367 0 361813 443050 0 351207 444580 0 340619 445961 0 330050 447195 0 319503 448285 0 308977 449234 0 298475 450044 0 287998 450718 0 277546 451258 0 267122 451666 0 256726 451945 0 246360 452097 0 236024 452124 0 225721 452027 0 215450 451810 0 205214 451474 0 195013 451021 0 184848 450452 0 174721 449770 0 164632 448975 0 154583 448070 0 144575 447057 0 134608 445936 0 124684 444710 0 114804 443380 0 104969 441946 0 95178.9 440411 0 85435.7 438776 0 75740.1 437042 0 66093 435210 0 56495.4 433282 0 46948.2 431258 0 37452.3 429140 0 28008.6 426928 0 18618.1 424625 0 9281.42 422230 0 0 419744 0 1.50758e-08 -3.15504e+06 0 428193 -2.90314e+06 0 664073 -2.61325e+06 0 806372 -2.3601e+06 0 897712 -2.13677e+06 0 958165 -1.94229e+06 0 999122 -1.77114e+06 0 1.02708e+06 -1.61975e+06 0 1.04615e+06 -1.4848e+06 0 1.05893e+06 -1.36371e+06 0 1.06718e+06 -1.2544e+06 0 1.07206e+06 -1.15516e+06 0 1.0744e+06 -1.06462e+06 0 1.0748e+06 -981628 0 1.07369e+06 -905243 0 1.07136e+06 -834674 0 1.06807e+06 -769252 0 1.064e+06 -708412 0 1.05926e+06 -651670 0 1.05399e+06 -598610 0 1.04825e+06 -548871 0 1.04212e+06 -502142 0 1.03566e+06 -458149 0 1.02889e+06 -416652 0 1.02186e+06 -377442 0 1.0146e+06 -340330 0 1.00714e+06 -305151 0 999479 -271758 0 991651 -240017 0 983664 -209811 0 975532 -181032 0 967263 -153584 0 958868 -127381 0 950354 -102342 0 941727 -78396.5 0 932994 -55478.1 0 924160 -33527.2 0 915230 -12488.8 0 906208 7687.44 0 897097 27047.8 0 887903 45634.8 0 878627 63487.9 0 869273 80643.4 0 859844 97135 0 850343 112994 0 840773 128249 0 831135 142928 0 821434 157055 0 811669 170653 0 801846 183746 0 791964 196353 0 782027 208493 0 772037 220185 0 761996 231446 0 751906 242290 0 741769 252734 0 731586 262792 0 721361 272476 0 711095 281800 0 700791 290775 0 690449 299412 0 680072 307723 0 669661 315717 0 659220 323405 0 648749 330794 0 638251 337895 0 627727 344714 0 617180 351261 0 606610 357543 0 596020 363566 0 585412 369338 0 574787 374866 0 564148 380155 0 553495 385213 0 542832 390043 0 532158 394653 0 521477 399048 0 510789 403232 0 500097 407210 0 489402 410988 0 478706 414570 0 468010 417961 0 457315 421163 0 446625 424183 0 435939 427023 0 425260 429687 0 414588 432180 0 403927 434504 0 393276 436663 0 382638 438661 0 372013 440500 0 361404 442184 0 350811 443716 0 340236 445098 0 329681 446334 0 319147 447426 0 308634 448376 0 298145 449188 0 287680 449864 0 277241 450406 0 266829 450817 0 256445 451098 0 246091 451252 0 235767 451282 0 225475 451188 0 215217 450974 0 204992 450640 0 194802 450190 0 184649 449624 0 174533 448945 0 164456 448154 0 154418 447252 0 144420 446242 0 134465 445125 0 124552 443902 0 114682 442575 0 104857 441145 0 95077.7 439614 0 85345 437983 0 75659.7 436253 0 66022.9 434425 0 56435.5 432501 0 46898.5 430481 0 37412.7 428367 0 27979 426160 0 18598.4 423861 0 9271.63 421470 0 0 418989 0 -2.08383e-08 -3.11088e+06 0 410715 -2.87874e+06 0 647621 -2.59897e+06 0 791603 -2.35097e+06 0 884886 -2.1308e+06 0 946937 -1.93823e+06 0 989251 -1.76837e+06 0 1.01832e+06 -1.61785e+06 0 1.03832e+06 -1.4835e+06 0 1.05189e+06 -1.36285e+06 0 1.06078e+06 -1.25386e+06 0 1.06622e+06 -1.15486e+06 0 1.06904e+06 -1.0645e+06 0 1.06986e+06 -981648 0 1.0691e+06 -905374 0 1.06709e+06 -834894 0 1.06407e+06 -769545 0 1.06024e+06 -708765 0 1.05572e+06 -652072 0 1.05064e+06 -599053 0 1.04508e+06 -549350 0 1.03911e+06 -502651 0 1.03278e+06 -458684 0 1.02615e+06 -417211 0 1.01924e+06 -378021 0 1.01209e+06 -340927 0 1.00472e+06 -305765 0 997160 -272386 0 989417 -240659 0 981511 -210466 0 973453 -181699 0 965255 -154262 0 956925 -128069 0 948472 -103039 0 939904 -79102.8 0 931226 -56193 0 922444 -34250.3 0 913563 -13219.6 0 904587 6949.15 0 895521 26302.3 0 886369 44882.5 0 877134 62729.1 0 867819 79878.3 0 858428 96363.8 0 848963 112217 0 839427 127467 0 829823 142140 0 820153 156261 0 810421 169855 0 800627 182943 0 790775 195545 0 780866 207681 0 770903 219369 0 760889 230625 0 750825 241466 0 740713 251906 0 730555 261960 0 720354 271641 0 710112 280961 0 699830 289933 0 689510 298568 0 679155 306876 0 668767 314867 0 658346 322552 0 647896 329939 0 637418 337037 0 626914 343855 0 616386 350400 0 605835 356680 0 595264 362702 0 584674 368472 0 574068 373999 0 563446 379287 0 552811 384343 0 542165 389173 0 531508 393782 0 520844 398176 0 510173 402360 0 499497 406338 0 488818 410116 0 478137 413698 0 467456 417088 0 456777 420291 0 446102 423311 0 435431 426151 0 424766 428816 0 414110 431310 0 403462 433635 0 392826 435795 0 382201 437794 0 371590 439634 0 360995 441319 0 350416 442852 0 339854 444236 0 329312 445473 0 318791 446567 0 308291 447520 0 297814 448333 0 287362 449011 0 276935 449555 0 266536 449968 0 256164 450252 0 245822 450409 0 235510 450441 0 225230 450350 0 214983 450138 0 204770 449808 0 194592 449360 0 184450 448797 0 174345 448121 0 164279 447333 0 154252 446435 0 144266 445428 0 134321 444314 0 124419 443095 0 114560 441772 0 104746 440346 0 94976.7 438818 0 85254.4 437191 0 75579.5 435464 0 65952.9 433641 0 56375.8 431720 0 46848.8 429705 0 37373.1 427595 0 27949.4 425392 0 18578.7 423097 0 9261.84 420711 0 0 418235 0 2.22353e-08 -3.0695e+06 0 394575 -2.85434e+06 0 631653 -2.5846e+06 0 777174 -2.34166e+06 0 872240 -2.12469e+06 0 935835 -1.93406e+06 0 979459 -1.76551e+06 0 1.00963e+06 -1.61586e+06 0 1.03054e+06 -1.48214e+06 0 1.04487e+06 -1.36193e+06 0 1.05441e+06 -1.25327e+06 0 1.0604e+06 -1.15451e+06 0 1.0637e+06 -1.06434e+06 0 1.06492e+06 -981636 0 1.06452e+06 -905478 0 1.06282e+06 -835091 0 1.06008e+06 -769817 0 1.05648e+06 -709098 0 1.05219e+06 -652457 0 1.0473e+06 -599481 0 1.04191e+06 -549815 0 1.0361e+06 -503147 0 1.02992e+06 -459208 0 1.02341e+06 -417759 0 1.01662e+06 -378590 0 1.00958e+06 -341516 0 1.00231e+06 -306371 0 994843 -273008 0 987186 -241295 0 979360 -211114 0 971376 -182359 0 963248 -154934 0 954984 -128751 0 946593 -103732 0 938082 -79804.5 0 929459 -56903.6 0 920728 -34969.2 0 911896 -13946.6 0 902968 6214.59 0 893947 25560.5 0 884837 44133.7 0 875643 61973.5 0 866367 79116.3 0 857013 95595.7 0 847584 111443 0 838083 126687 0 828512 141354 0 818875 155471 0 809173 169059 0 799409 182142 0 789586 194740 0 779706 206871 0 769771 218554 0 759783 229806 0 749745 240643 0 739658 251080 0 729525 261130 0 719348 270807 0 709129 280124 0 698870 289093 0 688573 297725 0 678240 306030 0 667872 314019 0 657473 321701 0 647043 329086 0 636586 336182 0 626101 342997 0 615593 349540 0 605061 355818 0 594509 361839 0 583938 367608 0 573349 373133 0 562745 378420 0 552128 383475 0 541498 388304 0 530859 392913 0 520211 397306 0 509556 401489 0 498897 405467 0 488234 409245 0 477569 412827 0 466904 416217 0 456240 419420 0 445579 422440 0 434923 425281 0 424274 427947 0 413631 430441 0 402998 432766 0 392376 434928 0 381765 436927 0 371168 438769 0 360586 440455 0 350021 441990 0 339473 443375 0 328944 444614 0 318435 445710 0 307948 446664 0 297484 447480 0 287045 448160 0 276630 448706 0 266243 449121 0 255884 449407 0 245554 449566 0 235254 449601 0 224986 449512 0 214750 449304 0 204548 448976 0 194382 448531 0 184251 447971 0 174158 447298 0 164103 446513 0 154087 445618 0 144112 444615 0 134178 443505 0 124286 442289 0 114438 440969 0 104634 439547 0 94875.8 438023 0 85163.8 436399 0 75499.3 434677 0 65883 432857 0 56316 430941 0 46799.2 428930 0 37333.5 426824 0 27919.8 424626 0 18559.1 422335 0 9252.06 419953 0 0 417481 0 -8.84756e-09 -3.03054e+06 0 379631 -2.83006e+06 0 616183 -2.57014e+06 0 763075 -2.33221e+06 0 859779 -2.11845e+06 0 924858 -1.92978e+06 0 969749 -1.76255e+06 0 1.00098e+06 -1.6138e+06 0 1.02279e+06 -1.4807e+06 0 1.03788e+06 -1.36096e+06 0 1.04806e+06 -1.25263e+06 0 1.0546e+06 -1.15413e+06 0 1.05837e+06 -1.06415e+06 0 1.05999e+06 -981594 0 1.05994e+06 -905556 0 1.05856e+06 -835264 0 1.05609e+06 -770067 0 1.05274e+06 -709413 0 1.04866e+06 -652825 0 1.04396e+06 -599894 0 1.03875e+06 -550266 0 1.03309e+06 -503632 0 1.02705e+06 -459721 0 1.02067e+06 -418297 0 1.014e+06 -379150 0 1.00707e+06 -342096 0 999905 -306969 0 992527 -273622 0 984957 -241924 0 977210 -211757 0 969301 -183014 0 961242 -155600 0 953044 -129428 0 944714 -104419 0 936262 -80501.7 0 927693 -57609.8 0 919015 -35684 0 910232 -14669.6 0 901350 5483.76 0 892373 24822.2 0 883306 43388.3 0 874153 61221.2 0 864916 78357.4 0 855599 94830.5 0 846206 110672 0 836740 125910 0 827202 140572 0 817597 154683 0 807926 168266 0 798193 181344 0 788399 193937 0 778547 206063 0 768639 217742 0 758678 228990 0 748665 239823 0 738604 250255 0 728496 260302 0 718343 269976 0 708147 279289 0 697911 288255 0 687636 296883 0 677325 305186 0 666979 313172 0 656601 320852 0 646192 328234 0 635754 335328 0 625290 342141 0 614800 348682 0 604288 354959 0 593754 360977 0 583201 366745 0 572631 372269 0 562045 377555 0 551445 382609 0 540833 387437 0 530210 392045 0 519579 396437 0 508941 400620 0 498297 404597 0 487650 408375 0 477001 411957 0 466351 415347 0 455703 418550 0 445058 421571 0 434416 424412 0 423781 427078 0 413154 429573 0 402535 431899 0 391926 434062 0 381330 436062 0 370747 437905 0 360178 439593 0 349626 441129 0 339091 442515 0 328575 443756 0 318080 444853 0 307606 445809 0 297155 446627 0 286727 447309 0 276326 447857 0 265951 448275 0 255603 448563 0 245285 448725 0 234997 448762 0 224741 448676 0 214517 448470 0 204327 448145 0 194172 447703 0 184053 447146 0 173971 446476 0 163927 445695 0 153922 444803 0 143957 443803 0 134034 442696 0 124153 441484 0 114316 440167 0 104523 438749 0 94774.9 437229 0 85073.4 435609 0 75419.2 433891 0 65813.2 432075 0 56256.4 430162 0 46749.7 428155 0 37294 426054 0 27890.3 423860 0 18539.4 421573 0 9242.29 419196 0 0 416729 0 1.04774e-09 -2.99374e+06 0 365761 -2.806e+06 0 601218 -2.5556e+06 0 749298 -2.32263e+06 0 847508 -2.11208e+06 0 914007 -1.92538e+06 0 960123 -1.75949e+06 0 992402 -1.61165e+06 0 1.01509e+06 -1.4792e+06 0 1.03092e+06 -1.35992e+06 0 1.04174e+06 -1.25194e+06 0 1.04881e+06 -1.1537e+06 0 1.05305e+06 -1.06392e+06 0 1.05508e+06 -981521 0 1.05538e+06 -905606 0 1.0543e+06 -835413 0 1.0521e+06 -770297 0 1.049e+06 -709709 0 1.04513e+06 -653177 0 1.04063e+06 -600292 0 1.03559e+06 -550704 0 1.03009e+06 -504104 0 1.02419e+06 -460223 0 1.01794e+06 -418825 0 1.01139e+06 -379701 0 1.00457e+06 -342667 0 997499 -307559 0 990214 -274228 0 982729 -242546 0 975062 -212393 0 967228 -183663 0 959239 -156261 0 951105 -130101 0 942837 -105102 0 934443 -81194.2 0 925929 -58311.7 0 917302 -36394.7 0 908569 -15388.7 0 899733 4756.65 0 890801 24087.4 0 881777 42646.2 0 872664 60472.2 0 863466 77601.7 0 854187 94068.3 0 844830 109903 0 835398 125135 0 825894 139792 0 816320 153897 0 806681 167475 0 796977 180548 0 787212 193136 0 777389 205258 0 767508 216932 0 757574 228176 0 747587 239005 0 737551 249433 0 727468 259476 0 717339 269146 0 707167 278456 0 696953 287419 0 686701 296044 0 676411 304343 0 666087 312327 0 655730 320004 0 645341 327384 0 634924 334475 0 624479 341287 0 614009 347826 0 603515 354100 0 593001 360117 0 582466 365884 0 571914 371406 0 561345 376691 0 550763 381744 0 540168 386571 0 529562 391178 0 518948 395570 0 508326 399752 0 497699 403729 0 487067 407506 0 476434 411088 0 465800 414478 0 455167 417682 0 444536 420702 0 433910 423544 0 423290 426211 0 412676 428706 0 402072 431034 0 391478 433197 0 380895 435198 0 370326 437042 0 359771 438731 0 349232 440269 0 338710 441657 0 328208 442899 0 317725 443998 0 307264 444956 0 296825 445775 0 286411 446459 0 276021 447010 0 265659 447429 0 255323 447720 0 245017 447884 0 234741 447924 0 224497 447841 0 214285 447637 0 204106 447315 0 193962 446876 0 183854 446322 0 173784 445655 0 163751 444877 0 153757 443988 0 143803 442992 0 133891 441888 0 124021 440679 0 114194 439367 0 104412 437952 0 94674.2 436435 0 84983.1 434819 0 75339.2 433105 0 65743.4 431293 0 56196.8 429385 0 46700.2 427382 0 37254.5 425285 0 27860.8 423095 0 18519.8 420813 0 9232.53 418440 0 0 415977 0 -2.32831e-09 -2.95884e+06 0 352858 -2.78222e+06 0 586757 -2.54099e+06 0 735838 -2.31294e+06 0 835428 -2.10558e+06 0 903283 -1.92088e+06 0 950582 -1.75635e+06 0 983878 -1.60943e+06 0 1.00743e+06 -1.47764e+06 0 1.02399e+06 -1.35883e+06 0 1.03543e+06 -1.2512e+06 0 1.04305e+06 -1.15323e+06 0 1.04774e+06 -1.06365e+06 0 1.05017e+06 -981417 0 1.05082e+06 -905629 0 1.05005e+06 -835538 0 1.04813e+06 -770506 0 1.04526e+06 -709987 0 1.04161e+06 -653512 0 1.0373e+06 -600676 0 1.03243e+06 -551129 0 1.02708e+06 -504564 0 1.02133e+06 -460714 0 1.01521e+06 -419343 0 1.00878e+06 -380243 0 1.00206e+06 -343230 0 995095 -308141 0 987902 -274828 0 980503 -243161 0 972916 -213022 0 965157 -184306 0 957237 -156917 0 949169 -130768 0 940962 -105780 0 932625 -81882.1 0 924166 -59009.2 0 915591 -37101.3 0 906907 -16103.9 0 898118 4033.26 0 889231 23356.2 0 880249 41907.5 0 871176 59726.4 0 862017 76849 0 852776 93309.1 0 843454 109138 0 834057 124364 0 824586 139014 0 815045 153114 0 805436 166687 0 795763 179755 0 786027 192338 0 776232 204455 0 766379 216125 0 756471 227364 0 746510 238188 0 736500 248613 0 726441 258652 0 716336 268318 0 706187 277625 0 695996 286584 0 685766 295206 0 675499 303503 0 665196 311484 0 654859 319158 0 644491 326535 0 634094 333625 0 623669 340434 0 613218 346971 0 602744 353244 0 592248 359259 0 581731 365024 0 571197 370545 0 560647 375828 0 550082 380880 0 539504 385706 0 528915 390312 0 518317 394704 0 507712 398885 0 497100 402862 0 486485 406639 0 475867 410220 0 465249 413611 0 454631 416815 0 444016 419835 0 433404 422678 0 422798 425345 0 412200 427841 0 401609 430169 0 391029 432333 0 380460 434336 0 369905 436181 0 359364 437871 0 348838 439409 0 338330 440799 0 327840 442043 0 317371 443143 0 306922 444103 0 296496 444925 0 286094 445611 0 275717 446163 0 265367 446585 0 255044 446878 0 244750 447044 0 234486 447086 0 224253 447006 0 214052 446805 0 203885 446486 0 193753 446050 0 183656 445499 0 173597 444835 0 163575 444060 0 153592 443175 0 143650 442181 0 133748 441081 0 123889 439876 0 114072 438567 0 104300 437155 0 94573.6 435643 0 84892.9 434031 0 75259.3 432320 0 65673.8 430512 0 56137.3 428608 0 46650.7 426609 0 37215.1 424516 0 27831.3 422330 0 18500.2 420053 0 9222.78 417684 0 0 415226 0 -3.49246e-09 -2.92565e+06 0 340828 -2.75879e+06 0 572795 -2.52634e+06 0 722688 -2.30315e+06 0 823540 -2.09897e+06 0 892685 -1.91628e+06 0 941127 -1.75311e+06 0 975415 -1.60713e+06 0 999810 -1.47601e+06 0 1.01709e+06 -1.35769e+06 0 1.02915e+06 -1.25042e+06 0 1.0373e+06 -1.15272e+06 0 1.04245e+06 -1.06336e+06 0 1.04528e+06 -981283 0 1.04628e+06 -905626 0 1.04581e+06 -835641 0 1.04416e+06 -770695 0 1.04153e+06 -710246 0 1.03809e+06 -653830 0 1.03397e+06 -601044 0 1.02927e+06 -551540 0 1.02409e+06 -505012 0 1.01847e+06 -461194 0 1.01248e+06 -419851 0 1.00617e+06 -380776 0 999560 -343785 0 992694 -308715 0 985593 -275420 0 978280 -243769 0 970772 -213646 0 963087 -184943 0 955237 -157567 0 947234 -131429 0 939089 -106453 0 930810 -82565.5 0 922405 -59702.4 0 913882 -37803.8 0 905247 -16815.2 0 896505 3313.59 0 887662 22628.6 0 878722 41172.3 0 869690 58983.8 0 860570 76099.5 0 851366 92552.8 0 842080 108375 0 832717 123595 0 823280 138239 0 813771 152334 0 804193 165901 0 794550 178964 0 784843 191542 0 775076 203654 0 765250 215319 0 755369 226554 0 745435 237374 0 735449 247795 0 725414 257830 0 715333 267493 0 705208 276796 0 695040 285752 0 684833 294371 0 674587 302664 0 664305 310642 0 653990 318314 0 643642 325689 0 633265 332776 0 622860 339583 0 612428 346118 0 601973 352388 0 591495 358402 0 580998 364165 0 570481 369685 0 559949 374967 0 549401 380018 0 538840 384843 0 528268 389448 0 517687 393839 0 507098 398020 0 496503 401996 0 485904 405773 0 475301 409354 0 464698 412745 0 454096 415948 0 443495 418970 0 432899 421812 0 422308 424480 0 411723 426976 0 401147 429305 0 390581 431470 0 380026 433474 0 369485 435320 0 358957 437012 0 348445 438551 0 337950 439943 0 327473 441188 0 317017 442290 0 306581 443252 0 296168 444075 0 285778 444763 0 275414 445318 0 265075 445742 0 254764 446037 0 244482 446206 0 234230 446250 0 224009 446172 0 213820 445974 0 203665 445658 0 193544 445225 0 183459 444677 0 173410 444016 0 163399 443244 0 153428 442362 0 143496 441372 0 133605 440275 0 123757 439073 0 113951 437768 0 104189 436360 0 94473.1 434851 0 84802.7 433243 0 75179.4 431536 0 65604.1 429732 0 56077.8 427832 0 46601.4 425837 0 37175.7 423748 0 27801.9 421567 0 18480.7 419294 0 9213.04 416930 0 0 414476 0 3.25963e-09 -2.89399e+06 0 329588 -2.73572e+06 0 559323 -2.51165e+06 0 709843 -2.29327e+06 0 811846 -2.09226e+06 0 882215 -1.91159e+06 0 931759 -1.74979e+06 0 967013 -1.60476e+06 0 992237 -1.47432e+06 0 1.01023e+06 -1.35649e+06 0 1.0229e+06 -1.24959e+06 0 1.03157e+06 -1.15217e+06 0 1.03718e+06 -1.06302e+06 0 1.0404e+06 -981119 0 1.04174e+06 -905596 0 1.04158e+06 -835720 0 1.04019e+06 -770862 0 1.0378e+06 -710487 0 1.03458e+06 -654132 0 1.03065e+06 -601398 0 1.02612e+06 -551938 0 1.02109e+06 -505448 0 1.01562e+06 -461662 0 1.00976e+06 -420348 0 1.00356e+06 -381299 0 997061 -344331 0 990295 -309282 0 983286 -276005 0 976058 -244371 0 968630 -214263 0 961019 -185575 0 953239 -158211 0 945301 -132086 0 937217 -107121 0 928995 -83244.3 0 920645 -60391.2 0 912174 -38502.1 0 903588 -17522.6 0 894893 2597.64 0 886094 21904.5 0 877197 40440.4 0 868205 58244.5 0 859124 75353.1 0 849957 91799.6 0 840708 107615 0 831379 122829 0 821975 137467 0 812498 151556 0 802951 165118 0 793338 178175 0 783660 190748 0 773921 202855 0 764123 214516 0 754268 225746 0 744360 236562 0 734399 246979 0 724389 257010 0 714332 266669 0 704230 275969 0 694085 284921 0 683900 293537 0 673676 301827 0 663416 309802 0 653121 317471 0 642794 324844 0 632437 331928 0 622051 338733 0 611639 345266 0 601203 351535 0 590744 357546 0 580265 363308 0 569766 368826 0 559251 374107 0 548721 379157 0 538178 383981 0 527623 388585 0 517058 392975 0 506485 397156 0 495906 401132 0 485323 404908 0 474736 408489 0 464149 411880 0 453561 415084 0 442976 418105 0 432394 420948 0 421817 423616 0 411248 426113 0 400686 428443 0 390134 430609 0 379593 432613 0 369065 434461 0 358551 436153 0 348052 437695 0 337570 439087 0 327107 440334 0 316663 441438 0 306240 442401 0 295839 443226 0 285462 443916 0 275110 444473 0 264784 444899 0 254485 445197 0 244215 445368 0 233975 445415 0 223766 445340 0 213588 445144 0 203444 444831 0 193335 444400 0 183261 443855 0 173224 443198 0 163224 442428 0 153263 441550 0 143342 440563 0 133462 439470 0 123625 438271 0 113830 436969 0 104079 435565 0 94372.7 434060 0 84712.7 432456 0 75099.7 430753 0 65534.6 428953 0 56018.4 427057 0 46552 425066 0 37136.4 422981 0 27772.5 420804 0 18461.1 418535 0 9203.3 416176 0 0 413726 0 6.0536e-09 -2.86371e+06 0 319063 -2.71306e+06 0 546331 -2.49696e+06 0 697299 -2.28331e+06 0 800346 -2.08544e+06 0 871872 -1.9068e+06 0 922479 -1.74639e+06 0 958672 -1.60232e+06 0 984708 -1.47257e+06 0 1.0034e+06 -1.35524e+06 0 1.01667e+06 -1.24872e+06 0 1.02586e+06 -1.15158e+06 0 1.03192e+06 -1.06265e+06 0 1.03553e+06 -980925 0 1.03722e+06 -905541 0 1.03736e+06 -835775 0 1.03624e+06 -771009 0 1.03408e+06 -710710 0 1.03107e+06 -654418 0 1.02733e+06 -601737 0 1.02298e+06 -552322 0 1.0181e+06 -505871 0 1.01277e+06 -462120 0 1.00704e+06 -420836 0 1.00096e+06 -381813 0 994565 -344869 0 987898 -309840 0 980981 -276583 0 973839 -244966 0 966490 -214874 0 958953 -186200 0 951242 -158850 0 943369 -132738 0 935346 -107784 0 927183 -83918.4 0 918887 -61075.7 0 910468 -39196.4 0 901930 -18226 0 893282 1885.4 0 884528 21183.9 0 875673 39711.9 0 866722 57508.4 0 857680 74609.7 0 848550 91049.4 0 839336 106858 0 830042 122066 0 820671 136698 0 811226 150781 0 801711 164337 0 792127 177389 0 782479 189956 0 772768 202059 0 762997 213715 0 753169 224941 0 743286 235752 0 733351 246164 0 723365 256192 0 713332 265847 0 703253 275143 0 693131 284092 0 682968 292705 0 672766 300992 0 662527 308964 0 652253 316630 0 641947 324000 0 631610 331082 0 621244 337885 0 610851 344416 0 600434 350683 0 589993 356693 0 579532 362453 0 569052 367969 0 558555 373249 0 548042 378297 0 537515 383121 0 526977 387724 0 516429 392113 0 505873 396293 0 495310 400269 0 484742 404045 0 474172 407626 0 463599 411016 0 453027 414220 0 442457 417242 0 431890 420085 0 421328 422754 0 410772 425251 0 400225 427582 0 389687 429748 0 379160 431754 0 368645 433602 0 358145 435296 0 347659 436839 0 337191 438233 0 326741 439481 0 316310 440587 0 305899 441552 0 295512 442379 0 285147 443071 0 274807 443630 0 264493 444058 0 254207 444358 0 243949 444531 0 233720 444581 0 223522 444508 0 213357 444315 0 203224 444004 0 193126 443577 0 183063 443035 0 173037 442380 0 163049 441614 0 153099 440739 0 143189 439755 0 133320 438665 0 123493 437470 0 113708 436172 0 103968 434771 0 94272.4 433270 0 84622.8 431669 0 75020 429970 0 65465.1 428174 0 55959.1 426282 0 46502.7 424295 0 37097.1 422215 0 27743.1 420042 0 18441.6 417778 0 9193.58 415422 0 0 412978 0 -9.77889e-09 -2.83468e+06 0 309188 -2.69081e+06 0 533804 -2.48227e+06 0 685050 -2.27329e+06 0 789038 -2.07853e+06 0 861658 -1.90192e+06 0 913287 -1.7429e+06 0 950394 -1.59981e+06 0 977224 -1.47075e+06 0 996603 -1.35394e+06 0 1.01047e+06 -1.2478e+06 0 1.02017e+06 -1.15096e+06 0 1.02667e+06 -1.06225e+06 0 1.03068e+06 -980701 0 1.0327e+06 -905459 0 1.03314e+06 -835808 0 1.