<?xml version="1.0"?> 
<VTKFile type="StructuredGrid" version="0.1"> 
<StructuredGrid WholeExtent="0 127 0 127 0 0"> 
<Piece Extent="0 127 0 127 0 0"> 
<PointData>
<DataArray type="Float32" Name="E" format="ascii" NumberOfComponents="3"> 
2.56622e+06 -261859 0 2.58414e+06 -263688 0 2.60027e+06 -265334 0 2.61481e+06 -266818 0 2.62796e+06 -268159 0 2.63986e+06 -269374 0 2.65067e+06 -270477 0 2.6605e+06 -271480 0 2.66946e+06 -272394 0 2.67764e+06 -273229 0 2.68513e+06 -273993 0 2.692e+06 -274694 0 2.69831e+06 -275337 0 2.70411e+06 -275929 0 2.70946e+06 -276475 0 2.71439e+06 -276979 0 2.71895e+06 -277444 0 2.72317e+06 -277875 0 2.72708e+06 -278273 0 2.7307e+06 -278642 0 2.73405e+06 -278985 0 2.73716e+06 -279302 0 2.74005e+06 -279597 0 2.74273e+06 -279870 0 2.74521e+06 -280124 0 2.74751e+06 -280358 0 2.74964e+06 -280575 0 2.75161e+06 -280776 0 2.75342e+06 -280961 0 2.75509e+06 -281132 0 2.75663e+06 -281288 0 2.75803e+06 -281431 0 2.75931e+06 -281562 0 2.76046e+06 -281680 0 2.76151e+06 -281786 0 2.76244e+06 -281882 0 2.76326e+06 -281966 0 2.76398e+06 -282039 0 2.7646e+06 -282102 0 2.76512e+06 -282155 0 2.76555e+06 -282199 0 2.76588e+06 -282232 0 2.76611e+06 -282257 0 2.76626e+06 -282271 0 2.76632e+06 -282277 0 2.76629e+06 -282274 0 2.76617e+06 -282262 0 2.76596e+06 -282241 0 2.76567e+06 -282211 0 2.76529e+06 -282173 0 2.76483e+06 -282126 0 2.76429e+06 -282070 0 2.76365e+06 -282006 0 2.76294e+06 -281932 0 2.76214e+06 -281851 0 2.76125e+06 -281760 0 2.76028e+06 -281661 0 2.75922e+06 -281553 0 2.75807e+06 -281436 0 2.75684e+06 -281310 0 2.75552e+06 -281175 0 2.75411e+06 -281031 0 2.7526e+06 -280878 0 2.75101e+06 -280715 0 2.74932e+06 -280543 0 2.74754e+06 -280361 0 2.74566e+06 -280169 0 2.74368e+06 -279967 0 2.7416e+06 -279755 0 2.73942e+06 -279533 0 2.73713e+06 -279299 0 2.73474e+06 -279055 0 2.73224e+06 -278800 0 2.72962e+06 -278533 0 2.72689e+06 -278254 0 2.72404e+06 -277964 0 2.72107e+06 -277660 0 2.71797e+06 -277344 0 2.71474e+06 -277015 0 2.71138e+06 -276671 0 2.70788e+06 -276314 0 2.70423e+06 -275942 0 2.70044e+06 -275555 0 2.69649e+06 -275152 0 2.69238e+06 -274732 0 2.6881e+06 -274296 0 2.68364e+06 -273841 0 2.679e+06 -273368 0 2.67418e+06 -272875 0 2.66915e+06 -272362 0 2.66391e+06 -271827 0 2.65844e+06 -271270 0 2.65275e+06 -270689 0 2.64681e+06 -270082 0 2.6406e+06 -269449 0 2.63412e+06 -268788 0 2.62735e+06 -268097 0 2.62026e+06 -267373 0 2.61284e+06 -266616 0 2.60505e+06 -265822 0 2.59689e+06 -264989 0 2.58831e+06 -264113 0 2.57929e+06 -263193 0 2.56978e+06 -262223 0 2.55975e+06 -261199 0 2.54916e+06 -260118 0 2.53794e+06 -258974 0 2.52605e+06 -257760 0 2.51342e+06 -256471 0 2.49997e+06 -255099 0 2.48563e+06 -253635 0 2.47029e+06 -252070 0 2.45385e+06 -250393 0 2.4362e+06 -248592 0 2.41718e+06 -246651 0 2.39665e+06 -244556 0 2.37442e+06 -242288 0 2.35029e+06 -239826 0 2.32403e+06 -237146 0 2.29535e+06 -234220 0 2.26396e+06 -231017 0 2.22951e+06 -227501 0 2.19158e+06 -223630 0 2.14971e+06 -219358 0 2.10336e+06 -214629 0 2.05194e+06 -209381 0 1.99472e+06 -203543 0 1.9309e+06 -197030 0 2.80251e+06 -159989 0 2.79852e+06 -168367 0 2.79541e+06 -176095 0 2.79303e+06 -183238 0 2.79128e+06 -189852 0 2.79004e+06 -195984 0 2.78924e+06 -201682 0 2.7888e+06 -206983 0 2.78865e+06 -211925 0 2.78874e+06 -216539 0 2.78903e+06 -220856 0 2.78947e+06 -224900 0 2.79003e+06 -228695 0 2.79069e+06 -232263 0 2.79141e+06 -235624 0 2.79218e+06 -238794 0 2.79298e+06 -241790 0 2.7938e+06 -244625 0 2.79462e+06 -247313 0 2.79543e+06 -249866 0 2.79623e+06 -252295 0 2.797e+06 -254608 0 2.79774e+06 -256817 0 2.79844e+06 -258927 0 2.79911e+06 -260948 0 2.79972e+06 -262885 0 2.80029e+06 -264746 0 2.80082e+06 -266536 0 2.80128e+06 -268260 0 2.8017e+06 -269924 0 2.80205e+06 -271532 0 2.80235e+06 -273088 0 2.8026e+06 -274596 0 2.80278e+06 -276060 0 2.8029e+06 -277483 0 2.80296e+06 -278869 0 2.80296e+06 -280220 0 2.8029e+06 -281539 0 2.80277e+06 -282829 0 2.80259e+06 -284092 0 2.80233e+06 -285331 0 2.80202e+06 -286547 0 2.80164e+06 -287744 0 2.8012e+06 -288922 0 2.80069e+06 -290084 0 2.80012e+06 -291232 0 2.79948e+06 -292368 0 2.79877e+06 -293492 0 2.798e+06 -294607 0 2.79716e+06 -295714 0 2.79625e+06 -296816 0 2.79527e+06 -297912 0 2.79422e+06 -299006 0 2.79311e+06 -300098 0 2.79192e+06 -301190 0 2.79066e+06 -302283 0 2.78933e+06 -303380 0 2.78792e+06 -304480 0 2.78644e+06 -305586 0 2.78488e+06 -306700 0 2.78325e+06 -307822 0 2.78154e+06 -308954 0 2.77975e+06 -310098 0 2.77788e+06 -311256 0 2.77593e+06 -312429 0 2.77389e+06 -313619 0 2.77177e+06 -314827 0 2.76956e+06 -316055 0 2.76727e+06 -317306 0 2.76489e+06 -318580 0 2.76241e+06 -319881 0 2.75984e+06 -321211 0 2.75717e+06 -322571 0 2.75441e+06 -323964 0 2.75155e+06 -325392 0 2.74858e+06 -326859 0 2.74551e+06 -328367 0 2.74234e+06 -329918 0 2.73905e+06 -331516 0 2.73566e+06 -333165 0 2.73215e+06 -334868 0 2.72852e+06 -336628 0 2.72477e+06 -338450 0 2.72089e+06 -340338 0 2.7169e+06 -342296 0 2.71277e+06 -344330 0 2.70851e+06 -346445 0 2.70411e+06 -348646 0 2.69958e+06 -350940 0 2.6949e+06 -353334 0 2.69008e+06 -355834 0 2.68512e+06 -358448 0 2.68e+06 -361184 0 2.67472e+06 -364053 0 2.6693e+06 -367062 0 2.66371e+06 -370223 0 2.65796e+06 -373548 0 2.65205e+06 -377049 0 2.64598e+06 -380739 0 2.63975e+06 -384634 0 2.63336e+06 -388749 0 2.62681e+06 -393102 0 2.6201e+06 -397713 0 2.61325e+06 -402601 0 2.60625e+06 -407791 0 2.59912e+06 -413307 0 2.59188e+06 -419177 0 2.58453e+06 -425431 0 2.57711e+06 -432101 0 2.56963e+06 -439225 0 2.56213e+06 -446842 0 2.55465e+06 -454996 0 2.54724e+06 -463735 0 2.53996e+06 -473112 0 2.53287e+06 -483186 0 2.52607e+06 -494022 0 2.51965e+06 -505689 0 2.51374e+06 -518268 0 2.50848e+06 -531844 0 2.50405e+06 -546512 0 2.50064e+06 -562380 0 2.49849e+06 -579564 0 2.4979e+06 -598193 0 2.49918e+06 -618412 0 2.50275e+06 -640377 0 2.50905e+06 -664267 0 2.51863e+06 -690275 0 2.53213e+06 -718621 0 2.8746e+06 -203113 0 2.8747e+06 -205147 0 2.8746e+06 -207368 0 2.87434e+06 -209737 0 2.87396e+06 -212224 0 2.87349e+06 -214800 0 2.87296e+06 -217444 0 2.87239e+06 -220136 0 2.87181e+06 -222859 0 2.87121e+06 -225600 0 2.87061e+06 -228346 0 2.87002e+06 -231090 0 2.86943e+06 -233822 0 2.86887e+06 -236537 0 2.86831e+06 -239229 0 2.86778e+06 -241895 0 2.86725e+06 -244530 0 2.86675e+06 -247134 0 2.86625e+06 -249703 0 2.86577e+06 -252238 0 2.8653e+06 -254736 0 2.86483e+06 -257200 0 2.86437e+06 -259627 0 2.86391e+06 -262019 0 2.86345e+06 -264377 0 2.86299e+06 -266701 0 2.86252e+06 -268992 0 2.86204e+06 -271252 0 2.86156e+06 -273482 0 2.86106e+06 -275683 0 2.86055e+06 -277857 0 2.86003e+06 -280005 0 2.85948e+06 -282130 0 2.85892e+06 -284231 0 2.85833e+06 -286312 0 2.85772e+06 -288374 0 2.85709e+06 -290419 0 2.85643e+06 -292448 0 2.85574e+06 -294463 0 2.85502e+06 -296466 0 2.85428e+06 -298458 0 2.8535e+06 -300441 0 2.85269e+06 -302418 0 2.85184e+06 -304389 0 2.85096e+06 -306356 0 2.85004e+06 -308322 0 2.84909e+06 -310287 0 2.8481e+06 -312255 0 2.84707e+06 -314225 0 2.84601e+06 -316201 0 2.8449e+06 -318184 0 2.84375e+06 -320176 0 2.84256e+06 -322178 0 2.84132e+06 -324193 0 2.84005e+06 -326222 0 2.83873e+06 -328268 0 2.83736e+06 -330331 0 2.83595e+06 -332415 0 2.8345e+06 -334520 0 2.833e+06 -336650 0 2.83145e+06 -338806 0 2.82986e+06 -340990 0 2.82822e+06 -343205 0 2.82653e+06 -345452 0 2.82479e+06 -347735 0 2.82301e+06 -350055 0 2.82117e+06 -352414 0 2.81929e+06 -354815 0 2.81736e+06 -357262 0 2.81538e+06 -359756 0 2.81335e+06 -362299 0 2.81127e+06 -364896 0 2.80914e+06 -367549 0 2.80697e+06 -370260 0 2.80474e+06 -373033 0 2.80247e+06 -375871 0 2.80015e+06 -378778 0 2.79779e+06 -381757 0 2.79538e+06 -384810 0 2.79292e+06 -387943 0 2.79042e+06 -391159 0 2.78788e+06 -394461 0 2.7853e+06 -397854 0 2.78269e+06 -401342 0 2.78003e+06 -404929 0 2.77735e+06 -408620 0 2.77463e+06 -412419 0 2.77188e+06 -416330 0 2.76912e+06 -420359 0 2.76633e+06 -424510 0 2.76352e+06 -428789 0 2.76071e+06 -433200 0 2.75789e+06 -437748 0 2.75507e+06 -442438 0 2.75226e+06 -447276 0 2.74947e+06 -452267 0 2.7467e+06 -457415 0 2.74396e+06 -462725 0 2.74126e+06 -468202 0 2.73861e+06 -473851 0 2.73602e+06 -479675 0 2.73351e+06 -485677 0 2.73108e+06 -491862 0 2.72875e+06 -498231 0 2.72653e+06 -504786 0 2.72443e+06 -511527 0 2.72248e+06 -518453 0 2.72068e+06 -525562 0 2.71904e+06 -532849 0 2.7176e+06 -540310 0 2.71634e+06 -547934 0 2.7153e+06 -555711 0 2.71447e+06 -563626 0 2.71386e+06 -571658 0 2.71348e+06 -579786 0 2.71333e+06 -587980 0 2.71339e+06 -596206 0 2.71365e+06 -604420 0 2.71407e+06 -612572 0 2.71463e+06 -620603 0 2.71525e+06 -628442 0 2.71585e+06 -636005 0 2.71634e+06 -643193 0 2.71657e+06 -649894 0 2.71637e+06 -655972 0 2.71551e+06 -661274 0 2.71373e+06 -665619 0 2.71068e+06 -668794 0 2.95584e+06 -216049 0 2.95414e+06 -218983 0 2.95258e+06 -221834 0 2.95113e+06 -224616 0 2.94978e+06 -227343 0 2.94851e+06 -230025 0 2.9473e+06 -232670 0 2.94615e+06 -235284 0 2.94504e+06 -237873 0 2.94397e+06 -240441 0 2.94293e+06 -242992 0 2.94193e+06 -245528 0 2.94094e+06 -248051 0 2.93998e+06 -250562 0 2.93904e+06 -253063 0 2.93812e+06 -255556 0 2.93721e+06 -258039 0 2.93631e+06 -260515 0 2.93542e+06 -262983 0 2.93455e+06 -265444 0 2.93368e+06 -267898 0 2.93283e+06 -270345 0 2.93198e+06 -272786 0 2.93113e+06 -275221 0 2.93029e+06 -277651 0 2.92946e+06 -280075 0 2.92862e+06 -282495 0 2.92779e+06 -284910 0 2.92696e+06 -287321 0 2.92613e+06 -289728 0 2.92529e+06 -292133 0 2.92446e+06 -294536 0 2.92362e+06 -296937 0 2.92277e+06 -299338 0 2.92193e+06 -301739 0 2.92107e+06 -304140 0 2.92021e+06 -306544 0 2.91934e+06 -308951 0 2.91847e+06 -311361 0 2.91758e+06 -313776 0 2.91669e+06 -316197 0 2.91579e+06 -318624 0 2.91487e+06 -321060 0 2.91394e+06 -323505 0 2.913e+06 -325961 0 2.91205e+06 -328428 0 2.91109e+06 -330909 0 2.91011e+06 -333403 0 2.90912e+06 -335914 0 2.90812e+06 -338441 0 2.9071e+06 -340986 0 2.90606e+06 -343552 0 2.90501e+06 -346138 0 2.90395e+06 -348748 0 2.90287e+06 -351381 0 2.90178e+06 -354040 0 2.90067e+06 -356727 0 2.89955e+06 -359443 0 2.89841e+06 -362189 0 2.89726e+06 -364967 0 2.8961e+06 -367779 0 2.89492e+06 -370627 0 2.89373e+06 -373512 0 2.89252e+06 -376435 0 2.8913e+06 -379400 0 2.89008e+06 -382407 0 2.88884e+06 -385458 0 2.88759e+06 -388556 0 2.88633e+06 -391701 0 2.88507e+06 -394897 0 2.8838e+06 -398144 0 2.88252e+06 -401444 0 2.88124e+06 -404800 0 2.87996e+06 -408213 0 2.87868e+06 -411685 0 2.87739e+06 -415218 0 2.87612e+06 -418814 0 2.87484e+06 -422474 0 2.87357e+06 -426201 0 2.87232e+06 -429996 0 2.87107e+06 -433860 0 2.86984e+06 -437796 0 2.86862e+06 -441805 0 2.86742e+06 -445889 0 2.86625e+06 -450049 0 2.8651e+06 -454286 0 2.86399e+06 -458601 0 2.8629e+06 -462996 0 2.86185e+06 -467471 0 2.86084e+06 -472028 0 2.85987e+06 -476666 0 2.85895e+06 -481387 0 2.85808e+06 -486190 0 2.85727e+06 -491076 0 2.85651e+06 -496043 0 2.85582e+06 -501092 0 2.85519e+06 -506222 0 2.85464e+06 -511431 0 2.85416e+06 -516718 0 2.85375e+06 -522081 0 2.85343e+06 -527518 0 2.8532e+06 -533027 0 2.85305e+06 -538604 0 2.85299e+06 -544247 0 2.85302e+06 -549951 0 2.85315e+06 -555714 0 2.85337e+06 -561532 0 2.8537e+06 -567400 0 2.85412e+06 -573314 0 2.85463e+06 -579271 0 2.85525e+06 -585266 0 2.85596e+06 -591297 0 2.85678e+06 -597362 0 2.85769e+06 -603458 0 2.8587e+06 -609587 0 2.85982e+06 -615749 0 2.86104e+06 -621951 0 2.86238e+06 -628198 0 2.86385e+06 -634504 0 2.86546e+06 -640884 0 2.86725e+06 -647363 0 2.86924e+06 -653969 0 2.87149e+06 -660744 0 2.87405e+06 -667737 0 2.87702e+06 -675013 0 2.88051e+06 -682652 0 2.88466e+06 -690752 0 2.88966e+06 -699438 0 3.02636e+06 -235793 0 3.0253e+06 -237878 0 3.0242e+06 -240018 0 3.02307e+06 -242204 0 3.02193e+06 -244429 0 3.02078e+06 -246686 0 3.01962e+06 -248971 0 3.01847e+06 -251279 0 3.01732e+06 -253607 0 3.01618e+06 -255952 0 3.01505e+06 -258313 0 3.01393e+06 -260686 0 3.01282e+06 -263072 0 3.01173e+06 -265467 0 3.01064e+06 -267873 0 3.00958e+06 -270287 0 3.00852e+06 -272710 0 3.00748e+06 -275141 0 3.00645e+06 -277580 0 3.00544e+06 -280026 0 3.00443e+06 -282479 0 3.00344e+06 -284939 0 3.00246e+06 -287407 0 3.00149e+06 -289882 0 3.00054e+06 -292365 0 2.99959e+06 -294855 0 2.99866e+06 -297353 0 2.99773e+06 -299859 0 2.99682e+06 -302373 0 2.99591e+06 -304897 0 2.99501e+06 -307429 0 2.99412e+06 -309971 0 2.99324e+06 -312522 0 2.99237e+06 -315085 0 2.9915e+06 -317658 0 2.99064e+06 -320242 0 2.98979e+06 -322839 0 2.98894e+06 -325448 0 2.9881e+06 -328070 0 2.98727e+06 -330707 0 2.98644e+06 -333358 0 2.98562e+06 -336024 0 2.9848e+06 -338706 0 2.98399e+06 -341405 0 2.98318e+06 -344122 0 2.98238e+06 -346857 0 2.98159e+06 -349611 0 2.9808e+06 -352385 0 2.98002e+06 -355181 0 2.97924e+06 -357998 0 2.97847e+06 -360838 0 2.97771e+06 -363701 0 2.97695e+06 -366589 0 2.9762e+06 -369503 0 2.97546e+06 -372443 0 2.97472e+06 -375410 0 2.97399e+06 -378406 0 2.97328e+06 -381431 0 2.97257e+06 -384486 0 2.97187e+06 -387573 0 2.97118e+06 -390692 0 2.9705e+06 -393845 0 2.96984e+06 -397031 0 2.96919e+06 -400253 0 2.96855e+06 -403511 0 2.96793e+06 -406805 0 2.96732e+06 -410138 0 2.96674e+06 -413510 0 2.96617e+06 -416921 0 2.96562e+06 -420373 0 2.96509e+06 -423867 0 2.96458e+06 -427402 0 2.9641e+06 -430981 0 2.96364e+06 -434603 0 2.96321e+06 -438269 0 2.96281e+06 -441980 0 2.96244e+06 -445737 0 2.9621e+06 -449539 0 2.96179e+06 -453388 0 2.96152e+06 -457283 0 2.96128e+06 -461226 0 2.96109e+06 -465215 0 2.96094e+06 -469252 0 2.96083e+06 -473336 0 2.96076e+06 -477468 0 2.96075e+06 -481647 0 2.96078e+06 -485872 0 2.96086e+06 -490144 0 2.961e+06 -494463 0 2.96119e+06 -498827 0 2.96144e+06 -503236 0 2.96176e+06 -507689 0 2.96213e+06 -512186 0 2.96256e+06 -516726 0 2.96307e+06 -521307 0 2.96364e+06 -525928 0 2.96428e+06 -530589 0 2.96499e+06 -535287 0 2.96578e+06 -540022 0 2.96664e+06 -544792 0 2.96758e+06 -549596 0 2.9686e+06 -554432 0 2.9697e+06 -559298 0 2.97088e+06 -564194 0 2.97215e+06 -569117 0 2.97351e+06 -574065 0 2.97496e+06 -579037 0 2.9765e+06 -584031 0 2.97813e+06 -589046 0 2.97985e+06 -594078 0 2.98168e+06 -599127 0 2.98361e+06 -604189 0 2.98563e+06 -609262 0 2.98777e+06 -614343 0 2.99001e+06 -619427 0 2.99235e+06 -624510 0 2.9948e+06 -629586 0 2.99736e+06 -634647 0 3.00001e+06 -639683 0 3.00276e+06 -644682 0 3.0056e+06 -649628 0 3.0085e+06 -654500 0 3.01145e+06 -659272 0 3.01442e+06 -663913 0 3.01735e+06 -668380 0 3.02019e+06 -672621 0 3.02286e+06 -676571 0 3.02525e+06 -680148 0 3.10072e+06 -247692 0 3.09932e+06 -250028 0 3.09796e+06 -252352 0 3.09663e+06 -254670 0 3.09534e+06 -256985 0 3.09407e+06 -259302 0 3.09282e+06 -261621 0 3.0916e+06 -263945 0 3.0904e+06 -266276 0 3.08921e+06 -268615 0 3.08805e+06 -270963 0 3.0869e+06 -273320 0 3.08577e+06 -275688 0 3.08465e+06 -278066 0 3.08355e+06 -280455 0 3.08247e+06 -282855 0 3.0814e+06 -285266 0 3.08035e+06 -287689 0 3.07932e+06 -290124 0 3.0783e+06 -292571 0 3.0773e+06 -295030 0 3.07632e+06 -297501 0 3.07535e+06 -299984 0 3.07439e+06 -302481 0 3.07346e+06 -304989 0 3.07254e+06 -307511 0 3.07163e+06 -310046 0 3.07075e+06 -312593 0 3.06988e+06 -315155 0 3.06902e+06 -317730 0 3.06818e+06 -320319 0 3.06736e+06 -322922 0 3.06656e+06 -325540 0 3.06577e+06 -328173 0 3.065e+06 -330820 0 3.06424e+06 -333483 0 3.06351e+06 -336162 0 3.06279e+06 -338858 0 3.06208e+06 -341569 0 3.0614e+06 -344298 0 3.06073e+06 -347044 0 3.06008e+06 -349808 0 3.05944e+06 -352590 0 3.05883e+06 -355390 0 3.05823e+06 -358210 0 3.05766e+06 -361049 0 3.0571e+06 -363909 0 3.05656e+06 -366788 0 3.05604e+06 -369689 0 3.05554e+06 -372612 0 3.05506e+06 -375556 0 3.05461e+06 -378522 0 3.05417e+06 -381512 0 3.05376e+06 -384525 0 3.05337e+06 -387562 0 3.053e+06 -390623 0 3.05266e+06 -393709 0 3.05234e+06 -396820 0 3.05204e+06 -399957 0 3.05178e+06 -403120 0 3.05154e+06 -406310 0 3.05132e+06 -409527 0 3.05114e+06 -412771 0 3.05098e+06 -416043 0 3.05086e+06 -419343 0 3.05076e+06 -422671 0 3.0507e+06 -426029 0 3.05067e+06 -429415 0 3.05068e+06 -432830 0 3.05072e+06 -436275 0 3.0508e+06 -439750 0 3.05091e+06 -443254 0 3.05107e+06 -446788 0 3.05126e+06 -450352 0 3.05149e+06 -453946 0 3.05177e+06 -457570 0 3.05209e+06 -461223 0 3.05245e+06 -464906 0 3.05286e+06 -468619 0 3.05332e+06 -472361 0 3.05383e+06 -476132 0 3.05438e+06 -479932 0 3.05499e+06 -483760 0 3.05565e+06 -487616 0 3.05636e+06 -491499 0 3.05713e+06 -495409 0 3.05796e+06 -499345 0 3.05884e+06 -503307 0 3.05978e+06 -507294 0 3.06079e+06 -511304 0 3.06185e+06 -515338 0 3.06298e+06 -519393 0 3.06417e+06 -523471 0 3.06542e+06 -527568 0 3.06675e+06 -531685 0 3.06814e+06 -535819 0 3.0696e+06 -539971 0 3.07112e+06 -544138 0 3.07272e+06 -548319 0 3.07439e+06 -552513 0 3.07613e+06 -556719 0 3.07795e+06 -560934 0 3.07984e+06 -565158 0 3.0818e+06 -569389 0 3.08384e+06 -573624 0 3.08595e+06 -577863 0 3.08813e+06 -582104 0 3.0904e+06 -586344 0 3.09273e+06 -590581 0 3.09514e+06 -594815 0 3.09763e+06 -599042 0 3.10019e+06 -603262 0 3.10282e+06 -607471 0 3.10552e+06 -611669 0 3.10829e+06 -615855 0 3.11113e+06 -620027 0 3.11403e+06 -624185 0 3.11701e+06 -628329 0 3.12005e+06 -632462 0 3.12316e+06 -636585 0 3.12634e+06 -640704 0 3.1296e+06 -644827 0 3.13295e+06 -648964 0 3.13639e+06 -653131 0 3.13996e+06 -657348 0 3.14368e+06 -661642 0 3.14759e+06 -666050 0 3.15175e+06 -670621 0 3.17478e+06 -257456 0 3.17348e+06 -259627 0 3.17218e+06 -261822 0 3.17089e+06 -264038 0 3.16962e+06 -266273 0 3.16835e+06 -268525 0 3.16711e+06 -270794 0 3.16588e+06 -273078 0 3.16467e+06 -275377 0 3.16348e+06 -277690 0 3.1623e+06 -280016 0 3.16115e+06 -282356 0 3.16002e+06 -284709 0 3.15891e+06 -287074 0 3.15781e+06 -289453 0 3.15674e+06 -291845 0 3.15569e+06 -294250 0 3.15466e+06 -296667 0 3.15365e+06 -299098 0 3.15267e+06 -301542 0 3.1517e+06 -303999 0 3.15076e+06 -306470 0 3.14984e+06 -308954 0 3.14894e+06 -311451 0 3.14806e+06 -313962 0 3.14721e+06 -316487 0 3.14638e+06 -319026 0 3.14557e+06 -321579 0 3.14478e+06 -324147 0 3.14402e+06 -326729 0 3.14328e+06 -329325 0 3.14256e+06 -331937 0 3.14187e+06 -334563 0 3.1412e+06 -337205 0 3.14056e+06 -339862 0 3.13994e+06 -342534 0 3.13935e+06 -345222 0 3.13878e+06 -347927 0 3.13824e+06 -350647 0 3.13772e+06 -353384 0 3.13723e+06 -356138 0 3.13677e+06 -358908 0 3.13633e+06 -361695 0 3.13592e+06 -364500 0 3.13554e+06 -367322 0 3.13519e+06 -370162 0 3.13486e+06 -373020 0 3.13456e+06 -375896 0 3.1343e+06 -378790 0 3.13406e+06 -381702 0 3.13386e+06 -384634 0 3.13368e+06 -387584 0 3.13354e+06 -390554 0 3.13343e+06 -393542 0 3.13335e+06 -396550 0 3.13331e+06 -399578 0 3.1333e+06 -402625 0 3.13332e+06 -405692 0 3.13338e+06 -408780 0 3.13348e+06 -411887 0 3.13361e+06 -415014 0 3.13378e+06 -418162 0 3.13399e+06 -421329 0 3.13423e+06 -424517 0 3.13452e+06 -427725 0 3.13485e+06 -430954 0 3.13522e+06 -434203 0 3.13563e+06 -437471 0 3.13608e+06 -440760 0 3.13658e+06 -444068 0 3.13712e+06 -447397 0 3.13771e+06 -450744 0 3.13835e+06 -454112 0 3.13903e+06 -457498 0 3.13976e+06 -460903 0 3.14054e+06 -464326 0 3.14137e+06 -467768 0 3.14225e+06 -471227 0 3.14318e+06 -474703 0 3.14416e+06 -478197 0 3.1452e+06 -481707 0 3.14629e+06 -485232 0 3.14744e+06 -488773 0 3.14864e+06 -492329 0 3.1499e+06 -495899 0 3.15122e+06 -499482 0 3.15259e+06 -503078 0 3.15403e+06 -506686 0 3.15552e+06 -510305 0 3.15708e+06 -513935 0 3.1587e+06 -517574 0 3.16037e+06 -521222 0 3.16212e+06 -524878 0 3.16392e+06 -528541 0 3.16579e+06 -532209 0 3.16772e+06 -535883 0 3.16972e+06 -539561 0 3.17178e+06 -543242 0 3.17391e+06 -546925 0 3.17611e+06 -550609 0 3.17837e+06 -554293 0 3.1807e+06 -557976 0 3.18309e+06 -561657 0 3.18555e+06 -565335 0 3.18808e+06 -569009 0 3.19068e+06 -572678 0 3.19335e+06 -576340 0 3.19608e+06 -579996 0 3.19888e+06 -583644 0 3.20175e+06 -587283 0 3.20469e+06 -590913 0 3.2077e+06 -594532 0 3.21078e+06 -598141 0 3.21392e+06 -601737 0 3.21714e+06 -605320 0 3.22043e+06 -608890 0 3.22379e+06 -612444 0 3.22722e+06 -615982 0 3.23073e+06 -619501 0 3.2343e+06 -622999 0 3.23795e+06 -626472 0 3.24166e+06 -629915 0 3.24543e+06 -633321 0 3.24926e+06 -636681 0 3.25314e+06 -639982 0 3.25704e+06 -643208 0 3.26095e+06 -646336 0 3.26484e+06 -649337 0 3.2496e+06 -262530 0 3.24821e+06 -264764 0 3.24685e+06 -267003 0 3.24551e+06 -269248 0 3.2442e+06 -271501 0 3.24291e+06 -273763 0 3.24165e+06 -276035 0 3.24041e+06 -278317 0 3.2392e+06 -280610 0 3.23801e+06 -282913 0 3.23684e+06 -285228 0 3.2357e+06 -287555 0 3.23458e+06 -289893 0 3.23348e+06 -292244 0 3.23241e+06 -294606 0 3.23137e+06 -296980 0 3.23035e+06 -299367 0 3.22936e+06 -301767 0 3.22839e+06 -304178 0 3.22745e+06 -306603 0 3.22653e+06 -309039 0 3.22564e+06 -311489 0 3.22478e+06 -313952 0 3.22394e+06 -316427 0 3.22313e+06 -318915 0 3.22235e+06 -321417 0 3.2216e+06 -323931 0 3.22087e+06 -326459 0 3.22017e+06 -329000 0 3.2195e+06 -331554 0 3.21887e+06 -334122 0 3.21826e+06 -336704 0 3.21768e+06 -339299 0 3.21713e+06 -341908 0 3.21661e+06 -344530 0 3.21612e+06 -347167 0 3.21566e+06 -349817 0 3.21524e+06 -352482 0 3.21485e+06 -355161 0 3.21448e+06 -357854 0 3.21416e+06 -360561 0 3.21386e+06 -363283 0 3.2136e+06 -366019 0 3.21337e+06 -368769 0 3.21318e+06 -371534 0 3.21302e+06 -374314 0 3.2129e+06 -377108 0 3.21281e+06 -379917 0 3.21276e+06 -382741 0 3.21275e+06 -385579 0 3.21277e+06 -388432 0 3.21283e+06 -391300 0 3.21294e+06 -394182 0 3.21307e+06 -397080 0 3.21325e+06 -399991 0 3.21347e+06 -402918 0 3.21373e+06 -405859 0 3.21403e+06 -408814 0 3.21438e+06 -411784 0 3.21476e+06 -414768 0 3.21519e+06 -417766 0 3.21566e+06 -420779 0 3.21618e+06 -423805 0 3.21674e+06 -426845 0 3.21734e+06 -429898 0 3.218e+06 -432965 0 3.2187e+06 -436045 0 3.21944e+06 -439137 0 3.22024e+06 -442243 0 3.22108e+06 -445360 0 3.22198e+06 -448489 0 3.22292e+06 -451630 0 3.22391e+06 -454783 0 3.22496e+06 -457946 0 3.22605e+06 -461120 0 3.2272e+06 -464303 0 3.22841e+06 -467497 0 3.22966e+06 -470699 0 3.23098e+06 -473910 0 3.23234e+06 -477129 0 3.23376e+06 -480356 0 3.23524e+06 -483590 0 3.23678e+06 -486831 0 3.23837e+06 -490077 0 3.24002e+06 -493328 0 3.24173e+06 -496584 0 3.24349e+06 -499844 0 3.24532e+06 -503108 0 3.24721e+06 -506373 0 3.24915e+06 -509641 0 3.25116e+06 -512910 0 3.25323e+06 -516179 0 3.25536e+06 -519447 0 3.25755e+06 -522715 0 3.2598e+06 -525980 0 3.26212e+06 -529243 0 3.2645e+06 -532502 0 3.26694e+06 -535757 0 3.26944e+06 -539006 0 3.27201e+06 -542250 0 3.27464e+06 -545486 0 3.27734e+06 -548715 0 3.2801e+06 -551936 0 3.28292e+06 -555146 0 3.28581e+06 -558347 0 3.28876e+06 -561536 0 3.29178e+06 -564713 0 3.29486e+06 -567877 0 3.298e+06 -571027 0 3.30121e+06 -574163 0 3.30448e+06 -577282 0 3.30781e+06 -580384 0 3.31121e+06 -583469 0 3.31467e+06 -586534 0 3.31819e+06 -589580 0 3.32177e+06 -592605 0 3.32542e+06 -595609 0 3.32912e+06 -598590 0 3.33288e+06 -601548 0 3.33671e+06 -604484 0 3.34059e+06 -607396 0 3.34452e+06 -610288 0 3.34852e+06 -613160 0 3.35258e+06 -616016 0 3.35671e+06 -618861 0 3.36091e+06 -621704 0 3.36519e+06 -624556 0 3.36957e+06 -627433 0 3.3237e+06 -264301 0 3.3223e+06 -266491 0 3.32093e+06 -268694 0 3.31958e+06 -270910 0 3.31825e+06 -273138 0 3.31695e+06 -275377 0 3.31568e+06 -277628 0 3.31443e+06 -279889 0 3.31321e+06 -282162 0 3.31202e+06 -284445 0 3.31085e+06 -286739 0 3.30971e+06 -289044 0 3.3086e+06 -291360 0 3.30752e+06 -293686 0 3.30647e+06 -296024 0 3.30545e+06 -298372 0 3.30445e+06 -300731 0 3.30349e+06 -303101 0 3.30255e+06 -305481 0 3.30165e+06 -307873 0 3.30078e+06 -310276 0 3.29993e+06 -312690 0 3.29912e+06 -315116 0 3.29834e+06 -317552 0 3.29759e+06 -320000 0 3.29687e+06 -322459 0 3.29619e+06 -324929 0 3.29554e+06 -327411 0 3.29492e+06 -329904 0 3.29433e+06 -332408 0 3.29378e+06 -334924 0 3.29326e+06 -337452 0 3.29278e+06 -339990 0 3.29233e+06 -342540 0 3.29192e+06 -345102 0 3.29154e+06 -347675 0 3.2912e+06 -350260 0 3.2909e+06 -352856 0 3.29063e+06 -355463 0 3.2904e+06 -358082 0 3.29021e+06 -360712 0 3.29005e+06 -363354 0 3.28994e+06 -366007 0 3.28986e+06 -368671 0 3.28982e+06 -371346 0 3.28982e+06 -374033 0 3.28987e+06 -376730 0 3.28995e+06 -379439 0 3.29007e+06 -382158 0 3.29024e+06 -384889 0 3.29045e+06 -387630 0 3.2907e+06 -390381 0 3.29099e+06 -393143 0 3.29133e+06 -395916 0 3.29171e+06 -398699 0 3.29214e+06 -401491 0 3.29261e+06 -404294 0 3.29313e+06 -407106 0 3.29369e+06 -409927 0 3.2943e+06 -412758 0 3.29496e+06 -415598 0 3.29566e+06 -418447 0 3.29641e+06 -421304 0 3.29721e+06 -424169 0 3.29807e+06 -427042 0 3.29897e+06 -429923 0 3.29992e+06 -432811 0 3.30092e+06 -435707 0 3.30197e+06 -438609 0 3.30307e+06 -441517 0 3.30423e+06 -444431 0 3.30544e+06 -447350 0 3.3067e+06 -450275 0 3.30802e+06 -453204 0 3.30939e+06 -456138 0 3.31081e+06 -459075 0 3.31229e+06 -462015 0 3.31382e+06 -464959 0 3.31541e+06 -467904 0 3.31706e+06 -470851 0 3.31877e+06 -473800 0 3.32053e+06 -476749 0 3.32234e+06 -479698 0 3.32422e+06 -482646 0 3.32615e+06 -485594 0 3.32815e+06 -488539 0 3.3302e+06 -491483 0 3.33231e+06 -494423 0 3.33448e+06 -497360 0 3.33671e+06 -500292 0 3.339e+06 -503220 0 3.34135e+06 -506142 0 3.34376e+06 -509057 0 3.34623e+06 -511966 0 3.34876e+06 -514867 0 3.35136e+06 -517759 0 3.35401e+06 -520642 0 3.35672e+06 -523516 0 3.3595e+06 -526379 0 3.36234e+06 -529230 0 3.36523e+06 -532070 0 3.36819e+06 -534896 0 3.37121e+06 -537710 0 3.3743e+06 -540509 0 3.37744e+06 -543293 0 3.38064e+06 -546062 0 3.38391e+06 -548814 0 3.38723e+06 -551549 0 3.39062e+06 -554266 0 3.39406e+06 -556965 0 3.39757e+06 -559646 0 3.40114e+06 -562306 0 3.40476e+06 -564946 0 3.40845e+06 -567565 0 3.4122e+06 -570163 0 3.416e+06 -572739 0 3.41987e+06 -575293 0 3.42379e+06 -577824 0 3.42778e+06 -580330 0 3.43182e+06 -582813 0 3.43593e+06 -585270 0 3.44009e+06 -587700 0 3.44431e+06 -590101 0 3.44858e+06 -592472 0 3.45291e+06 -594807 0 3.4573e+06 -597103 0 3.46172e+06 -599351 0 3.46618e+06 -601543 0 3.39647e+06 -262678 0 3.39504e+06 -264868 0 3.39363e+06 -267065 0 3.39226e+06 -269269 0 3.39091e+06 -271482 0 3.3896e+06 -273703 0 3.38831e+06 -275933 0 3.38705e+06 -278171 0 3.38583e+06 -280418 0 3.38463e+06 -282674 0 3.38347e+06 -284939 0 3.38234e+06 -287214 0 3.38123e+06 -289497 0 3.38016e+06 -291790 0 3.37913e+06 -294091 0 3.37812e+06 -296402 0 3.37715e+06 -298723 0 3.37621e+06 -301052 0 3.3753e+06 -303391 0 3.37443e+06 -305739 0 3.37359e+06 -308096 0 3.37278e+06 -310463 0 3.37201e+06 -312838 0 3.37128e+06 -315223 0 3.37058e+06 -317618 0 3.36991e+06 -320021 0 3.36928e+06 -322434 0 3.36869e+06 -324856 0 3.36814e+06 -327286 0 3.36762e+06 -329727 0 3.36714e+06 -332176 0 3.36669e+06 -334634 0 3.36629e+06 -337101 0 3.36592e+06 -339577 0 3.3656e+06 -342062 0 3.36531e+06 -344556 0 3.36506e+06 -347058 0 3.36485e+06 -349569 0 3.36469e+06 -352089 0 3.36456e+06 -354617 0 3.36448e+06 -357154 0 3.36443e+06 -359698 0 3.36443e+06 -362251 0 3.36447e+06 -364813 0 3.36456e+06 -367382 0 3.36469e+06 -369958 0 3.36486e+06 -372543 0 3.36508e+06 -375135 0 3.36534e+06 -377734 0 3.36564e+06 -380341 0 3.36599e+06 -382954 0 3.36639e+06 -385574 0 3.36684e+06 -388201 0 3.36733e+06 -390835 0 3.36787e+06 -393474 0 3.36845e+06 -396119 0 3.36909e+06 -398770 0 3.36977e+06 -401427 0 3.3705e+06 -404088 0 3.37129e+06 -406755 0 3.37212e+06 -409426 0 3.373e+06 -412101 0 3.37393e+06 -414780 0 3.37491e+06 -417463 0 3.37595e+06 -420150 0 3.37704e+06 -422839 0 3.37818e+06 -425531 0 3.37937e+06 -428225 0 3.38062e+06 -430920 0 3.38191e+06 -433618 0 3.38327e+06 -436316 0 3.38468e+06 -439015 0 3.38614e+06 -441714 0 3.38765e+06 -444412 0 3.38923e+06 -447110 0 3.39086e+06 -449807 0 3.39254e+06 -452502 0 3.39428e+06 -455194 0 3.39608e+06 -457884 0 3.39793e+06 -460571 0 3.39984e+06 -463254 0 3.40181e+06 -465932 0 3.40384e+06 -468606 0 3.40592e+06 -471274 0 3.40807e+06 -473936 0 3.41027e+06 -476592 0 3.41253e+06 -479240 0 3.41485e+06 -481881 0 3.41723e+06 -484513 0 3.41966e+06 -487136 0 3.42216e+06 -489750 0 3.42471e+06 -492353 0 3.42733e+06 -494946 0 3.43e+06 -497527 0 3.43274e+06 -500096 0 3.43553e+06 -502653 0 3.43838e+06 -505196 0 3.44129e+06 -507725 0 3.44427e+06 -510239 0 3.4473e+06 -512738 0 3.45039e+06 -515221 0 3.45354e+06 -517688 0 3.45675e+06 -520137 0 3.46002e+06 -522569 0 3.46335e+06 -524982 0 3.46673e+06 -527376 0 3.47018e+06 -529750 0 3.47368e+06 -532104 0 3.47725e+06 -534437 0 3.48087e+06 -536748 0 3.48455e+06 -539037 0 3.48829e+06 -541303 0 3.49208e+06 -543546 0 3.49593e+06 -545764 0 3.49984e+06 -547957 0 3.50381e+06 -550125 0 3.50783e+06 -552267 0 3.51191e+06 -554381 0 3.51604e+06 -556468 0 3.52023e+06 -558527 0 3.52447e+06 -560558 0 3.52877e+06 -562559 0 3.53312e+06 -564532 0 3.53752e+06 -566477 0 3.54197e+06 -568393 0 3.54648e+06 -570284 0 3.55105e+06 -572153 0 3.55568e+06 -574003 0 3.46714e+06 -258316 0 3.46568e+06 -260475 0 3.46426e+06 -262641 0 3.46287e+06 -264816 0 3.46151e+06 -266999 0 3.46018e+06 -269189 0 3.45888e+06 -271388 0 3.45762e+06 -273594 0 3.45639e+06 -275807 0 3.45519e+06 -278029 0 3.45403e+06 -280257 0 3.4529e+06 -282494 0 3.4518e+06 -284738 0 3.45074e+06 -286989 0 3.44971e+06 -289248 0 3.44872e+06 -291514 0 3.44776e+06 -293788 0 3.44684e+06 -296070 0 3.44595e+06 -298358 0 3.44511e+06 -300654 0 3.44429e+06 -302958 0 3.44352e+06 -305268 0 3.44278e+06 -307586 0 3.44208e+06 -309911 0 3.44142e+06 -312243 0 3.4408e+06 -314582 0 3.44021e+06 -316929 0 3.43967e+06 -319282 0 3.43916e+06 -321642 0 3.4387e+06 -324009 0 3.43827e+06 -326382 0 3.43789e+06 -328762 0 3.43755e+06 -331149 0 3.43724e+06 -333542 0 3.43698e+06 -335942 0 3.43677e+06 -338347 0 3.43659e+06 -340759 0 3.43646e+06 -343176 0 3.43637e+06 -345600 0 3.43633e+06 -348029 0 3.43633e+06 -350463 0 3.43637e+06 -352903 0 3.43646e+06 -355349 0 3.43659e+06 -357799 0 3.43677e+06 -360254 0 3.437e+06 -362714 0 3.43727e+06 -365178 0 3.43759e+06 -367646 0 3.43796e+06 -370119 0 3.43837e+06 -372595 0 3.43883e+06 -375075 0 3.43935e+06 -377559 0 3.43991e+06 -380045 0 3.44051e+06 -382534 0 3.44117e+06 -385026 0 3.44188e+06 -387520 0 3.44264e+06 -390017 0 3.44345e+06 -392515 0 3.44431e+06 -395014 0 3.44522e+06 -397514 0 3.44619e+06 -400016 0 3.4472e+06 -402517 0 3.44827e+06 -405019 0 3.44939e+06 -407520 0 3.45056e+06 -410021 0 3.45179e+06 -412521 0 3.45307e+06 -415019 0 3.45441e+06 -417516 0 3.4558e+06 -420010 0 3.45724e+06 -422502 0 3.45874e+06 -424991 0 3.4603e+06 -427476 0 3.46191e+06 -429957 0 3.46358e+06 -432434 0 3.4653e+06 -434905 0 3.46708e+06 -437372 0 3.46891e+06 -439833 0 3.47081e+06 -442287 0 3.47276e+06 -444734 0 3.47476e+06 -447174 0 3