<?xml version="1.0"?> 
<VTKFile type="StructuredGrid" version="0.1"> 
<StructuredGrid WholeExtent="0 127 0 127 0 0"> 
<Piece Extent="0 127 0 127 0 0"> 
<PointData>
<DataArray type="Float32" Name="E" format="ascii" NumberOfComponents="3"> 
0 -861582 0 61327 -760590 0 65818 -749505 0 93147.3 -725938 0 116955 -709075 0 143886 -689564 0 169890 -670544 0 195897 -650612 0 221075 -630338 0 245464 -609569 0 268845 -588474 0 291172 -567107 0 312378 -545569 0 332439 -523940 0 351345 -502300 0 369099 -480722 0 385718 -459269 0 401224 -437999 0 415647 -416962 0 429021 -396201 0 441384 -375754 0 452773 -355652 0 463230 -335919 0 472794 -316577 0 481506 -297642 0 489406 -279127 0 496532 -261041 0 502923 -243390 0 508614 -226177 0 513641 -209405 0 518037 -193071 0 521834 -177175 0 525063 -161713 0 527752 -146679 0 529929 -132068 0 531620 -117873 0 532849 -104088 0 533640 -90705.2 0 534015 -77715.6 0 533994 -65111.3 0 533597 -52884 0 532842 -41024.9 0 531747 -29525.3 0 530328 -18376.6 0 528601 -7570.03 0 526580 2902.99 0 524279 13051 0 521711 22882.3 0 518890 32405.2 0 515825 41627.7 0 512529 50557.9 0 509012 59203.3 0 505284 67571.5 0 501354 75669.8 0 497232 83505.5 0 492926 91085.3 0 488444 98416.1 0 483794 105504 0 478983 112357 0 474019 118979 0 468908 125377 0 463656 131557 0 458271 137524 0 452757 143283 0 447121 148841 0 441368 154202 0 435503 159370 0 429531 164352 0 423457 169150 0 417286 173770 0 411022 178216 0 404670 182492 0 398233 186602 0 391717 190551 0 385124 194340 0 378459 197976 0 371725 201460 0 364926 204796 0 358066 207988 0 351147 211039 0 344173 213952 0 337148 216729 0 330073 219374 0 322953 221890 0 315790 224278 0 308587 226543 0 301347 228686 0 294072 230710 0 286766 232617 0 279431 234410 0 272068 236090 0 264682 237660 0 257274 239123 0 249846 240479 0 242401 241732 0 234942 242882 0 227470 243932 0 219987 244884 0 212496 245739 0 204999 246500 0 197497 247167 0 189994 247742 0 182490 248227 0 174988 248624 0 167490 248933 0 159997 249157 0 152512 249296 0 145035 249352 0 137570 249326 0 130118 249219 0 122680 249033 0 115258 248769 0 107854 248428 0 100469 248011 0 93105.4 247519 0 85764.5 246953 0 78448 246314 0 71157.2 245603 0 63893.9 244821 0 56659.4 243969 0 49455.3 243048 0 42283.1 242059 0 35144.3 241002 0 28040.2 239878 0 20972.3 238689 0 13942 237434 0 6950.82 236114 0 0 234731 0 0 -822834 0 49761.1 -763777 0 67103 -739651 0 91625.6 -719273 0 116620 -700383 0 142630 -681477 0 168494 -662247 0 194008 -642606 0 218859 -622526 0 242888 -602066 0 265966 -581284 0 288013 -560261 0 308976 -539076 0 328826 -517808 0 347551 -496529 0 365154 -475308 0 381646 -454207 0 397051 -433281 0 411394 -412578 0 424707 -392141 0 437026 -372006 0 448388 -352202 0 458831 -332756 0 468393 -313688 0 477114 -295015 0 485032 -276749 0 492184 -258901 0 498608 -241475 0 504338 -224477 0 509409 -207909 0 513853 -191769 0 517702 -176057 0 520986 -160769 0 523733 -145901 0 525969 -131448 0 527722 -117403 0 529013 -103760 0 529868 -90511.7 0 530307 -77650.4 0 530350 -65168.1 0 530018 -53056.7 0 529328 -41308 0 528298 -29913.4 0 526943 -18864.7 0 525280 -8153.36 0 523323 2228.92 0 521086 12290.4 0 518581 22039.2 0 515821 31483.5 0 512818 40630.9 0 509583 49489.4 0 506126 58066.4 0 502457 66369.2 0 498586 74405.2 0 494521 82181.1 0 490272 89704 0 485846 96980.3 0 481252 104017 0 476496 110819 0 471585 117393 0 466527 123746 0 461328 129882 0 455994 135808 0 450532 141528 0 444945 147047 0 439242 152372 0 433425 157506 0 427501 162454 0 421475 167221 0 415350 171810 0 409132 176228 0 402825 180476 0 396434 184561 0 389961 188484 0 383412 192250 0 376790 195863 0 370098 199326 0 363341 202642 0 356522 205815 0 349644 208848 0 342710 211744 0 335724 214505 0 328688 217135 0 321607 219637 0 314482 222012 0 307316 224265 0 300114 226396 0 292876 228409 0 285606 230307 0 278306 232090 0 270979 233763 0 263628 235326 0 256254 236781 0 248861 238132 0 241450 239379 0 234023 240525 0 226584 241572 0 219134 242521 0 211676 243374 0 204211 244132 0 196741 244798 0 189269 245373 0 181796 245859 0 174325 246256 0 166857 246567 0 159394 246792 0 151939 246934 0 144492 246993 0 137056 246971 0 129633 246869 0 122223 246687 0 114830 246429 0 107454 246093 0 100098 245683 0 92762 245197 0 85448.7 244639 0 78159.5 244008 0 70896 243305 0 63659.6 242532 0 56451.9 241690 0 49274.4 240779 0 42128.5 239800 0 35015.9 238753 0 27937.8 237641 0 20895.8 236463 0 13891.2 235220 0 6925.47 233913 0 0 232543 0 0 -798498 0 42846 -758660 0 66290.3 -731893 0 90616.9 -711570 0 115840 -692215 0 141463 -673315 0 167017 -654150 0 192157 -634684 0 216663 -614839 0 240362 -594658 0 263142 -574187 0 284920 -553496 0 305646 -532655 0 325289 -511737 0 343836 -490810 0 361288 -469938 0 377655 -449182 0 392957 -428593 0 407219 -408217 0 420470 -388098 0 432744 -368268 0 444076 -348759 0 454503 -329596 0 464061 -310798 0 472788 -292384 0 480722 -274365 0 487898 -256751 0 494352 -239549 0 500119 -222765 0 505232 -206398 0 509723 -190451 0 513622 -174922 0 516959 -159808 0 519761 -145105 0 522056 -130809 0 523867 -116913 0 525220 -103412 0 526136 -90298.3 0 526638 -77565 0 526745 -65204.6 0 526476 -53209.2 0 525849 -41570.8 0 524882 -30281.3 0 523591 -19332.6 0 521991 -8716.61 0 520097 1574.79 0 517922 11549.6 0 515479 21215.8 0 512780 30581.1 0 509838 39653.3 0 506662 48439.9 0 503264 56948.2 0 499654 65185.5 0 495841 73158.8 0 491834 80874.9 0 487641 88340.5 0 483270 95562 0 478731 102546 0 474029 109298 0 469172 115825 0 464166 122132 0 459019 128224 0 453736 134108 0 448324 139788 0 442787 145269 0 437132 150557 0 431364 155656 0 425488 160571 0 419508 165306 0 413430 169865 0 407257 174254 0 400995 178475 0 394648 182533 0 388219 186431 0 381713 190174 0 375133 193764 0 368484 197205 0 361768 200501 0 354989 203655 0 348151 206670 0 341257 209548 0 334311 212293 0 327314 214908 0 320271 217395 0 313183 219758 0 306055 221998 0 298889 224118 0 291688 226120 0 284454 228008 0 277190 229783 0 269898 231447 0 262581 233002 0 255242 234451 0 247882 235796 0 240505 237038 0 233112 238179 0 225706 239222 0 218288 240168 0 210862 241018 0 203428 241775 0 195990 242440 0 188549 243014 0 181107 243500 0 173666 243898 0 166229 244210 0 158796 244437 0 151370 244581 0 143953 244644 0 136546 244625 0 129151 244527 0 121771 244351 0 114406 244097 0 107058 243768 0 99729.2 243363 0 92421.1 242885 0 85135.3 242333 0 77873.3 241710 0 70636.7 241016 0 63427 240252 0 56245.9 239419 0 49094.8 238517 0 41975.1 237548 0 34888.4 236513 0 27836.2 235412 0 20819.8 234245 0 13840.7 233014 0 6900.3 231720 0 0 230363 0 0 -780922 0 38433.8 -750468 0 64836.4 -724291 0 89626.2 -703640 0 114895 -684174 0 140271 -665230 0 165516 -646169 0 190320 -626869 0 214495 -607257 0 237881 -587347 0 260372 -567179 0 281891 -546809 0 302385 -526303 0 321825 -505726 0 340197 -485142 0 357499 -464612 0 373742 -444192 0 388941 -423933 0 403121 -403879 0 416309 -384071 0 428537 -364543 0 439837 -345324 0 450246 -326439 0 459798 -307908 0 468529 -289749 0 476476 -271974 0 483674 -254593 0 490157 -237613 0 495958 -221040 0 501111 -204874 0 505646 -189119 0 509593 -173771 0 512981 -158830 0 515837 -144292 0 518187 -130152 0 520057 -116404 0 521469 -103045 0 522446 -90065.4 0 523008 -77460.1 0 523176 -65221.3 0 522970 -53341.7 0 522405 -41813.6 0 521501 -30629.2 0 520272 -19780.7 0 518734 -9260.13 0 516901 940.269 0 514787 10828.3 0 512405 20411.6 0 509767 29697.9 0 506884 38694.7 0 503768 47409.1 0 500429 55848.6 0 496876 64020.1 0 493120 71930.4 0 489169 79586.4 0 485032 86994.5 0 480716 94161.1 0 476231 101092 0 471582 107794 0 466778 114273 0 461824 120534 0 456729 126582 0 451496 132424 0 446134 138064 0 440646 143507 0 435040 148758 0 429319 153822 0 423490 158703 0 417557 163406 0 411524 167935 0 405397 172294 0 399180 176487 0 392876 180519 0 386491 184392 0 380027 188110 0 373490 191678 0 366882 195098 0 360207 198373 0 353469 201508 0 346671 204504 0 339816 207365 0 332908 210094 0 325950 212693 0 318945 215166 0 311895 217515 0 304804 219743 0 297674 221851 0 290509 223843 0 283311 225720 0 276082 227486 0 268825 229141 0 261543 230689 0 254237 232132 0 246911 233470 0 239567 234707 0 232207 235844 0 224834 236883 0 217448 237825 0 210054 238673 0 202652 239428 0 195245 240092 0 187835 240665 0 180423 241151 0 173013 241549 0 165605 241863 0 158202 242092 0 150806 242238 0 143418 242303 0 136040 242288 0 128674 242194 0 121321 242023 0 113984 241774 0 106665 241451 0 99363.5 241052 0 92082.8 240581 0 84824.1 240037 0 77589.1 239421 0 70379.3 238735 0 63196.2 237980 0 56041.4 237156 0 48916.5 236264 0 41822.8 235305 0 34762 234281 0 27735.3 233190 0 20744.4 232035 0 13790.6 230817 0 6875.33 229535 0 0 228190 0 0 -766802 0 35517.5 -741177 0 63238.7 -716429 0 88581.2 -695646 0 113856 -676180 0 139044 -657234 0 164000 -638288 0 188494 -619159 0 212354 -599775 0 235442 -580130 0 257655 -560256 0 278921 -540199 0 299190 -520019 0 318431 -499774 0 336631 -479525 0 353786 -459329 0 369904 -439238 0 385001 -419302 0 399098 -399564 0 412222 -380062 0 424402 -360830 0 435669 -341896 0 446058 -323286 0 455602 -305019 0 464335 -287112 0 472294 -269578 0 479511 -252427 0 486020 -235667 0 491854 -219303 0 497044 -203338 0 501621 -187772 0 505614 -172605 0 509052 -157836 0 511960 -143461 0 514364 -129477 0 516290 -115878 0 517760 -102659 0 518795 -89813.5 0 519417 -77335.9 0 519646 -65218.7 0 519500 -53454.8 0 518997 -42037 0 518153 -30957.7 0 516985 -20209.3 0 515508 -9784.25 0 513736 325.043 0 511683 10126.1 0 509360 19626.5 0 506781 28833.6 0 503957 37754.6 0 500899 46396.9 0 497618 54767.2 0 494122 62872.7 0 490422 70719.9 0 486527 78315.6 0 482445 85666 0 478184 92777.4 0 473752 99655.9 0 469156 106307 0 464404 112738 0 459502 118952 0 454457 124956 0 449275 130756 0 443961 136355 0 438523 141759 0 432964 146974 0 427291 152002 0 421508 156850 0 415621 161520 0 409634 166019 0 403551 170348 0 397378 174514 0 391118 178519 0 384776 182366 0 378355 186061 0 371859 189605 0 365292 193003 0 358658 196258 0 351960 199373 0 345202 202351 0 338386 205194 0 331517 207907 0 324597 210491 0 317629 212949 0 310616 215284 0 303562 217499 0 296469 219596 0 289339 221576 0 282176 223444 0 274982 225200 0 267760 226847 0 260512 228387 0 253240 229823 0 245948 231155 0 238637 232386 0 231310 233518 0 223968 234553 0 216615 235492 0 209252 236338 0 201881 237091 0 194505 237753 0 187126 238326 0 179745 238811 0 172364 239210 0 164986 239525 0 157613 239756 0 150246 239904 0 142886 239972 0 135537 239961 0 128200 239871 0 120875 239704 0 113566 239461 0 106274 239142 0 99000.5 238750 0 91747 238285 0 84515.4 237748 0 77307.1 237141 0 70123.9 236463 0 62967.2 235716 0 55838.5 234902 0 48739.6 234019 0 41671.7 233071 0 34636.4 232056 0 27635.2 230977 0 20669.6 229834 0 13740.9 228627 0 6850.54 227357 0 0 226026 0 0 -754548 0 33495 -731598 0 61718 -708285 0 87483.9 -687620 0 112764 -668214 0 137783 -649320 0 162477 -630498 0 186679 -611547 0 210242 -592388 0 233043 -573003 0 254989 -553415 0 276010 -533664 0 296059 -513801 0 315106 -493881 0 333135 -473958 0 350145 -454088 0 366140 -434320 0 381135 -414701 0 395149 -395272 0 408208 -376071 0 420339 -357130 0 431571 -338478 0 441938 -320138 0 451472 -302131 0 460206 -284473 0 468173 -267178 0 475408 -250255 0 481941 -233712 0 487806 -217556 0 493031 -201788 0 497649 -186411 0 501686 -171424 0 505171 -156826 0 508129 -142614 0 510586 -128784 0 512566 -115333 0 514092 -102254 0 515185 -89543.2 0 515865 -77192.9 0 516153 -65197.1 0 516066 -53548.9 0 515623 -42241.2 0 514839 -31267 0 513731 -20618.8 0 512314 -10289.3 0 510602 -271.213 0 508607 9442.83 0 506344 18860.1 0 503823 27987.8 0 501058 36833 0 498057 45402.8 0 494832 53703.9 0 491393 61743.1 0 487749 69527.1 0 483908 77062.1 0 479880 84354.6 0 475673 91410.6 0 471294 98236.1 0 466751 104837 0 462050 111219 0 457199 117387 0 452204 123347 0 447071 129103 0 441807 134662 0 436416 140027 0 430905 145204 0 425279 150197 0 419542 155011 0 413701 159649 0 407759 164117 0 401721 168417 0 395591 172554 0 389374 176532 0 383074 180354 0 376695 184024 0 370241 187546 0 363715 190922 0 357121 194156 0 350463 197251 0 343744 200210 0 336967 203036 0 330136 205732 0 323254 208300 0 316323 210744 0 309348 213065 0 302330 215267 0 295273 217352 0 288179 219321 0 281051 221179 0 273891 222925 0 266703 224564 0 259489 226096 0 252251 227524 0 244992 228850 0 237714 230076 0 230419 231203 0 223109 232234 0 215788 233170 0 208456 234012 0 201117 234763 0 193771 235424 0 186422 235996 0 179071 236481 0 171721 236881 0 164372 237196 0 157028 237429 0 149690 237580 0 142359 237651 0 135038 237642 0 127729 237556 0 120433 237394 0 113151 237155 0 105887 236843 0 98640.3 236457 0 91413.8 235998 0 84209 235469 0 77027.3 234869 0 69870.4 234199 0 62739.8 233461 0 55637.2 232655 0 48564 231783 0 41521.7 230844 0 34511.8 229840 0 27535.9 228772 0 20595.3 227640 0 13691.5 226445 0 6825.94 225188 0 0 223869 0 0 -743386 0 32032.6 -722034 0 60336.7 -699950 0 86365.6 -679565 0 111636 -660278 0 136497 -641479 0 160948 -622795 0 184876 -604028 0 208156 -585091 0 230684 -565963 0 252371 -546655 0 273155 -527202 0 292990 -507648 0 311846 -488044 0 329709 -468441 0 346575 -448890 0 362448 -429437 0 377341 -410128 0 391272 -391003 0 404265 -372097 0 416345 -353443 0 427542 -335068 0 437885 -316995 0 447407 -299244 0 456140 -281833 0 464115 -264773 0 471364 -248076 0 477920 -231749 0 483813 -215798 0 489073 -200227 0 493728 -185037 0 497808 -170229 0 501338 -155800 0 504345 -141751 0 506853 -128075 0 508886 -114771 0 510466 -101833 0 511615 -89254.7 0 512352 -77031.6 0 512697 -65156.9 0 512668 -53624.2 0 512284 -42426.7 0 511559 -31557.5 0 510510 -21009.5 0 509151 -10775.6 0 507497 -848.814 0 505561 8778.08 0 503356 18112.1 0 500893 27160.3 0 498184 35929.5 0 495240 44426.6 0 492072 52658.3 0 488688 60631.1 0 485099 68351.6 0 481313 75825.9 0 477338 83060.2 0 473184 90060.5 0 468857 96832.8 0 464366 103383 0 459716 109716 0 454915 115837 0 449970 121752 0 444886 127466 0 439670 132984 0 434327 138310 0 428863 143450 0 423283 148407 0 417593 153187 0 411796 157792 0 405899 162229 0 399904 166499 0 393818 170608 0 387644 174559 0 381386 178355 0 375049 182001 0 368636 185499 0 362150 188853 0 355596 192066 0 348978 195141 0 342298 198081 0 335559 200889 0 328766 203569 0 321921 206121 0 315028 208550 0 308089 210858 0 301107 213046 0 294086 215119 0 287027 217077 0 279934 218924 0 272809 220661 0 265655 222291 0 258475 223816 0 251270 225237 0 244043 226556 0 236798 227776 0 229535 228898 0 222257 229925 0 214967 230857 0 207667 231696 0 200358 232445 0 193043 233104 0 185724 233676 0 178403 234161 0 171082 234560 0 163763 234877 0 156448 235111 0 149138 235264 0 141836 235338 0 134544 235333 0 127262 235251 0 119994 235092 0 112740 234859 0 105502 234552 0 98282.9 234172 0 91083.2 233720 0 83904.9 233197 0 76749.6 232605 0 69618.8 231943 0 62514.3 231214 0 55437.4 230417 0 48389.7 229554 0 41372.9 228625 0 34388.2 227632 0 27437.3 226575 0 20521.6 225454 0 13642.5 224271 0 6801.53 223026 0 0 221720 0 0 -732912 0 30929.9 -712596 0 59103.1 -691512 0 85252 -671491 0 110489 -652373 0 135195 -633705 0 159418 -615174 0 183086 -596595 0 206098 -577882 0 228362 -559005 0 249801 -539972 0 270355 -520810 0 289981 -501558 0 308651 -482263 0 326350 -462973 0 343074 -443733 0 358826 -424590 0 373617 -405585 0 387465 -386758 0 400391 -368143 0 412420 -349770 0 423580 -331668 0 433899 -313858 0 443407 -296360 0 452136 -279192 0 460117 -262365 0 467380 -245891 0 473956 -229778 0 479875 -214031 0 485167 -198655 0 489859 -183651 0 493979 -169020 0 497553 -154761 0 500607 -140872 0 503164 -127350 0 505248 -114192 0 506881 -101394 0 508084 -88948.7 0 508877 -76852.4 0 509278 -65098.7 0 509307 -53681.3 0 508979 -42593.9 0 508312 -31829.6 0 507321 -21381.8 0 506020 -11243.6 0 504423 -1408.08 0 502545 8131.59 0 500396 17382.3 0 497990 26350.8 0 495338 35043.9 0 492450 43468.2 0 489336 51630.3 0 486007 59536.5 0 482472 67193.2 0 478740 74606.6 0 474819 81782.6 0 470717 88727.1 0 466442 95445.9 0 462001 101945 0 457402 108229 0 452651 114303 0 447755 120174 0 442720 125845 0 437551 131321 0 432256 136608 0 426838 141710 0 421304 146632 0 415659 151377 0 409907 155950 0 404054 160354 0 398103 164595 0 392060 168675 0 385928 172599 0 379712 176369 0 373416 179990 0 367043 183465 0 360598 186797 0 354084 189989 0 347504 193044 0 340863 195965 0 334163 198755 0 327407 201417 0 320600 203954 0 313743 206368 0 306840 208661 0 299894 210837 0 292908 212897 0 285884 214845 0 278826 216681 0 271735 218408 0 264615 220029 0 257468 221545 0 250296 222959 0 243102 224272 0 235889 225486 0 228658 226604 0 221412 227626 0 214153 228554 0 206883 229391 0 199605 230137 0 192320 230794 0 185031 231365 0 177740 231849 0 170449 232249 0 163159 232567 0 155872 232802 0 148591 232957 0 141317 233034 0 134053 233032 0 126799 232954 0 119558 232800 0 112331 232571 0 105121 232269 0 97928.2 231895 0 90755.1 231450 0 83603.2 230934 0 76474 230349 0 69369.3 229696 0 62290.4 228975 0 55239.1 228187 0 48216.9 227333 0 41225.2 226415 0 34265.6 225432 0 27339.5 224385 0 20448.5 223276 0 13593.9 222105 0 6777.31 220872 0 0 219579 0 0 -722903 0 30065.6 -703314 0 58002.7 -683037 0 84160.9 -663414 0 109334 -644503 0 133885 -625994 0 157891 -607631 0 181310 -589246 0 204065 -570756 0 226077 -552128 0 247276 -533363 0 267607 -514486 0 287030 -495530 0 305518 -476538 0 323056 -457552 0 339640 -438618 0 355272 -419777 0 369962 -401071 0 383727 -382536 0 396586 -364207 0 408563 -346111 0 419684 -328277 0 429977 -310727 0 439470 -293479 0 448194 -276551 0 456178 -259955 0 463453 -243702 0 470048 -227800 0 475992 -212255 0 481314 -197072 0 486040 -182253 0 490199 -167798 0 493816 -153707 0 496914 -139978 0 499520 -126610 0 501653 -113597 0 503338 -100938 0 504594 -88625.5 0 505440 -76655.8 0 505897 -65022.8 0 505981 -53720.6 0 505709 -42743 0 505099 -32083.6 0 504164 -21736 0 502920 -11693.4 0 501380 -1949.31 0 499558 7503.05 0 497465 16670.3 0 495115 25559.1 0 492518 34175.9 0 489685 42527.3 0 486626 50619.5 0 483351 58459 0 479870 66051.8 0 476190 73404 0 472321 80521.5 0 468271 87410 0 464047 94075.2 0 459657 100522 0 455108 106757 0 450406 112785 0 445559 118610 0 440571 124238 0 435450 129674 0 430202 134921 0 424830 139985 0 419342 144871 0 413741 149581 0 408034 154121 0 402224 158494 0 396316 162705 0 390316 166756 0 384226 170652 0 378051 174397 0 371796 177993 0 365464 181444 0 359058 184753 0 352584 187924 0 346043 190958 0 339440 193861 0 332777 196633 0 326059 199278 0 319289 201798 0 312468 204197 0 305601 206477 0 298691 208639 0 291740 210687 0 284751 212623 0 277727 214448 0 270670 216166 0 263583 217778 0 256469 219286 0 249330 220692 0 242168 221998 0 234987 223207 0 227788 224319 0 220573 225336 0 213345 226261 0 206106 227094 0 198858 227838 0 191604 228494 0 184344 229063 0 177082 229547 0 169820 229948 0 162559 230266 0 155301 230503 0 148048 230660 0 140802 230739 0 133566 230740 0 126339 230665 0 119126 230516 0 111926 230292 0 104742 229996 0 97576.4 229627 0 90429.6 229188 0 83303.9 228680 0 76200.7 228102 0 69121.6 227456 0 62068.4 226744 0 55042.4 225965 0 48045.3 225121 0 41078.7 224212 0 34143.9 223239 0 27242.5 222204 0 20375.9 221106 0 13545.7 219946 0 6753.28 218726 0 0 217445 0 0 -713230 0 29363.8 -694190 0 57015.4 -674572 0 83102.1 -655347 0 108181 -636671 0 132573 -618344 0 156368 -600161 0 179551 -581976 0 202060 -563709 0 223828 -545327 0 244795 -526827 0 264910 -508229 0 284135 -489563 0 302445 -470865 0 319826 -452178 0 336271 -433543 0 351785 -414999 0 366374 -396586 0 380056 -378339 0 392847 -360289 0 404772 -342467 0 415853 -324897 0 426118 -307602 0 435595 -290601 0 444312 -273910 0 452299 -257542 0 459584 -241507 0 466195 -225815 0 472162 -210471 0 477512 -195479 0 482272 -180843 0 486468 -166563 0 490125 -152639 0 493268 -139070 0 495919 -125854 0 498101 -112987 0 499835 -100466 0 501143 -88285.6 0 502042 -76442.1 0 502552 -64929.5 0 502691 -53742.3 0 502474 -42874.5 0 501919 -32320 0 501039 -22072.4 0 499851 -12125.5 0 498367 -2472.82 0 496600 6892.17 0 494563 15975.9 0 492268 24784.8 0 489725 33325.2 0 486946 41603.5 0 483941 49625.9 0 480720 57398.4 0 477291 64927.2 0 473664 72218 0 469846 79276.8 0 465847 86109.1 0 461674 92720.4 0 457334 99116.2 0 452834 105302 0 448181 111282 0 443381 117062 0 438442 122647 0 433367 128041 0 428165 133248 0 422839 138275 0 417396 143124 0 411840 147799 0 406176 152306 0 400410 156648 0 394545 160828 0 388586 164850 0 382538 168719 0 376404 172437 0 370190 176008 0 363897 179435 0 357531 182722 0 351095 185871 0 344593 188886 0 338028 191768 0 331403 194522 0 324722 197150 0 317988 199654 0 311204 202038 0 304373 204303 0 297497 206452 0 290581 208487 0 283626 210411 0 276636 212226 0 269613 213934 0 262559 215537 0 255478 217037 0 248371 218435 0 241242 219735 0 234092 220937 0 226924 222044 0 219741 223057 0 212543 223978 0 205335 224808 0 198117 225549 0 190892 226203 0 183663 226771 0 176430 227255 0 169196 227655 0 161964 227974 0 154734 228212 0 147509 228371 0 140292 228452 0 133082 228457 0 125883 228386 0 118697 228240 0 111524 228021 0 104367 227730 0 97227.3 227368 0 90106.7 226935 0 83006.9 226433 0 75929.4 225863 0 68875.9 225225 0 61848 224521 0 54847.3 223751 0 47875.2 222916 0 40933.3 222017 0 34023.1 221055 0 27146.2 220030 0 20304 218943 0 13497.9 217795 0 6729.44 216587 0 0 215319 0 0 -703816 0 28775.6 -685217 0 56121.7 -666146 0 82079.9 -647306 0 107038 -628882 0 131264 -610754 0 154855 -592762 0 177809 -574782 0 200081 -556739 0 221616 -538600 0 242358 -520361 0 262262 -502037 0 281295 -483654 0 299431 -465246 0 316657 -446851 0 332967 -428509 0 348362 -410256 0 362852 -392130 0 376450 -374165 0 389174 -356391 0 401045 -338837 0 412086 -321528 0 422322 -304485 0 431782 -287727 0 440491 -271270 0 448478 -255127 0 455771 -239309 0 462398 -223824 0 468386 -208679 0 473763 -193877 0 478554 -179422 0 482785 -165316 0 486481 -151558 0 489666 -138148 0 492361 -125083 0 494590 -112361 0 496374 -99977.6 0 497731 -87929.5 0 498682 -76211.8 0 499244 -64819.4 0 499436 -53746.9 0 499273 -42988.7 0 498772 -32538.9 0 497947 -22391.5 0 496813 -12540.2 0 495383 -2978.92 0 493671 6298.66 0 491689 15298.8 0 489447 24027.7 0 486959 32491.7 0 484233 40696.7 0 481281 48649 0 478112 56354.5 0 474736 63819 0 471160 71048.4 0 467394 78048.2 0 463445 84824.1 0 459322 91381.4 0 455031 97725.5 0 450580 103861 0 445975 109794 0 441223 115529 0 436330 121070 0 431302 126422 0 426145 131590 0 420865 136578 0 415466 141391 0 409954 146032 0 404334 150505 0 398610 154814 0 392788 158964 0 386871 162958 0 380864 166799 0 374771 170490 0 368596 174036 0 362344 177439 0 356017 180703 0 349620 183831 0 343155 186825 0 336628 189688 0 330040 192423 0 323396 195034 0 316698 197522 0 309949 199890 0 303154 202141 0 296313 204276 0 289432 206299 0 282511 208211 0 275554 210015 0 268565 211713 0 261544 213306 0 254495 214798 0 247421 216189 0 240323 217481 0 233205 218677 0 226068 219779 0 218915 220787 0 211748 221704 0 204570 222531 0 197382 223269 0 190187 223921 0 182986 224488 0 175783 224971 0 168578 225371 0 161373 225691 0 154172 225930 0 146975 226091 0 139785 226175 0 132603 226182 0 125431 226114 0 118271 225973 0 111125 225759 0 103994 225473 0 96881 225116 0 89786.4 224690 0 82712.3 224195 0 75660.4 223632 0 68632.2 223002 0 61629.5 222306 0 54653.7 221545 0 47706.3 220719 0 40789.1 219830 0 33903.4 218878 0 27050.7 217864 0 20232.6 216788 0 13450.5 215652 0 6705.78 214456 0 0 213200 0 0 -694608 0 28268.7 -676382 0 55304.4 -657777 0 81095.2 -639303 0 105909 -621139 0 129963 -603223 0 153353 -585432 0 176086 -567661 0 198130 -549843 0 219438 -531946 0 239963 -513963 0 259664 -495907 0 278508 -477802 0 296474 -459678 0 313548 -441570 0 329724 -423514 0 345003 -405547 0 359394 -387703 0 372910 -370015 0 385565 -352512 0 397382 -335222 0 408381 -318170 0 418588 -301375 0 428029 -284857 0 436728 -268632 0 444714 -252712 0 452014 -237107 0 458655 -221828 0 464663 -206879 0 470065 -192266 0 474885 -177992 0 479150 -164058 0 482884 -150465 0 486109 -137212 0 488848 -124298 0 491122 -111720 0 492952 -99474.2 0 494358 -87557.4 0 495359 -75965.2 0 495973 -64692.7 0 496217 -53734.8 0 496106 -43086.1 0 495658 -32740.9 0 494887 -22693.4 0 493806 -12937.8 0 492430 -3467.9 0 490772 5722.23 0 488843 14638.7 0 486655 23287.6 0 484219 31674.9 0 481546 39806.7 0 478647 47688.7 0 475529 55327 0 472204 62727.1 0 468679 69894.8 0 464963 76835.6 0 461065 83555 0 456991 90058.1 0 452748 96350.2 0 448345 102436 0 443788 108322 0 439083 114010 0 434237 119508 0 429255 124818 0 424144 129946 0 418908 134896 0 413553 139672 0 408085 144277 0 402507 148717 0 396826 152995 0 391046 157114 0 385170 161078 0 379204 164891 0 373151 168556 0 367016 172077 0 360803 175456 0 354515 178697 0 348156 181802 0 341730 184776 0 335239 187619 0 328688 190336 0 322080 192929 0 315418 195401 0 308706 197753 0 301945 199989 0 295139 202111 0 288292 204121 0 281405 206021 0 274482 207814 0 267525 209502 0 260537 211086 0 253520 212569 0 246478 213952 0 239412 215238 0 232325 216428 0 225219 217523 0 218096 218527 0 210960 219440 0 203811 220263 0 196653 220999 0 189487 221649 0 182316 222214 0 175141 222696 0 167964 223097 0 160788 223417 0 153614 223657 0 146445 223820 0 139282 223906 0 132127 223916 0 124982 223852 0 117849 223714 0 110729 223505 0 103625 223224 0 96537.5 222873 0 89468.6 222453 0 82420.1 221964 0 75393.5 221409 0 68390.5 220787 0 61412.7 220099 0 54461.6 219346 0 47538.9 218530 0 40646 217651 0 33784.6 216709 0 26956 215705 0 20161.8 214641 0 13403.4 213516 0 6682.32 212332 0 0 211089 0 0 -685574 0 27821.5 -667675 0 54549.6 -649476 0 80147.1 -631346 0 104798 -613447 0 128675 -595752 0 151865 -578169 0 174383 -560610 0 196206 -543018 0 217295 -525360 0 237609 -507631 0 257112 -489839 0 275773 -472006 0 293573 -454160 0 310497 -436333 0 326542 -418559 0 341706 -400872 0 355999 -383304 0 369432 -365888 0 382019 -348652 0 393781 -331623 0 404739 -314823 0 414915 -298273 0 424335 -281992 0 433024 -265995 0 441008 -250295 0 448313 -234903 0 454965 -219826 0 460992 -205072 0 466417 -190646 0 471266 -176551 0 475563 -162789 0 479332 -149360 0 482596 -136264 0 485377 -123499 0 487695 -111064 0 489571 -98955.7 0 491025 -87169.9 0 492075 -75702.8 0 492738 -64549.9 0 493033 -53706.3 0 492974 -43166.9 0 492578 -32926.2 0 491859 -22978.6 0 490831 -13318.5 0 489508 -3940.07 0 487902 5162.59 0 486025 13995.4 0 483890 22564.1 0 481506 30874.8 0 478885 38933.1 0 476037 46744.8 0 472971 54315.7 0 469696 61651.3 0 466222 68757.2 0 462556 75638.8 0 458706 82301.4 0 454681 88750.1 0 450487 94990.2 0 446131 101026 0 441621 106864 0 436963 112507 0 432162 117960 0 427226 123229 0 422159 128317 0 416968 133228 0 411657 137967 0 406231 142537 0 400697 146943 0 395058 151188 0 389318 155277 0 383484 159212 0 377558 162996 0 371545 166635 0 365450 170130 0 359275 173485 0 353026 176702 0 346705 179786 0 340316 182738 0 333862 185562 0 327348 188261 0 320776 190836 0 314150 193291 0 307472 195628 0 300746 197849 0 293975 199957 0 287161 201954 0 280308 203842 0 273418 205624 0 266494 207301 0 259538 208876 0 252553 210350 0 245543 211725 0 238508 213004 0 231452 214188 0 224376 215278 0 217284 216276 0 210178 217185 0 203059 218005 0 195930 218738 0 188793 219386 0 181650 219950 0 174504 220431 0 167355 220831 0 160207 221151 0 153061 221393 0 145919 221557 0 138784 221645 0 131656 221658 0 124537 221598 0 117431 221464 0 110337 221259 0 103259 220983 0 96196.8 220638 0 89153.4 220224 0 82130.2 219742 0 75128.8 219194 0 68150.7 218579 0 61197.6 217900 0 54271.1 217156 0 47372.8 216349 0 40504.1 215479 0 33666.7 214547 0 26862 213554 0 20091.5 212501 0 13356.7 211388 0 6659.05 210216 0 0 208985 0 0 -676689 0 27418.9 -659087 0 53845.9 -641249 0 79233.4 -623443 0 103706 -605809 0 127401 -588341 0 150393 -570971 0 172701 -553629 0 194309 -536262 0 215186 -518842 0 235296 -501363 0 254606 -483831 0 273089 -466265 0 290725 -448692 0 307504 -431140 0 323418 -413642 0 338470 -396230 0 352665 -378934 0 366015 -361786 0 378535 -344812 0 390242 -328038 0 401156 -311487 0 411301 -295179 0 420700 -279132 0 429376 -263361 0 437357 -247878 0 444666 -232695 0 451329 -217820 0 457372 -203259 0 462819 -189019 0 467695 -175101 0 472023 -161509 0 475826 -148243 0 479128 -135303 0 481948 -122687 0 484309 -110395 0 486230 -98422.8 0 487730 -86767.4 0 488827 -75425 0 489540 -64391.3 0 489884 -53661.8 0 489876 -43231.4 0 489530 -33095.1 0 488863 -23247.4 0 487886 -13682.8 0 486615 -4395.72 0 485061 4619.46 0 483236 13368.5 0 481152 21857.1 0 478820 30090.9 0 476250 38075.7 0 473452 45817 0 470437 53320.4 0 467212 60591.4 0 463787 67635.3 0 460170 74457.5 0 456369 81063.2 0 452392 87457.4 0 448245 93645.2 0 443937 99631.4 0 439474 105421 0 434861 111018 0 430106 116427 0 425215 121654 0 420192 126701 0 415044 131573 0 409777 136275 0 404394 140810 0 398902 145182 0 393304 149395 0 387606 153452 0 381812 157358 0 375926 161114 0 369953 164726 0 363897 168195 0 357761 171525 0 351549 174720 0 345266 177781 0 338914 180713 0 332497 183517 0 326019 186196 0 319483 188754 0 312891 191192 0 306249 193513 0 299557 195719 0 292820 197814 0 286040 199798 0 279220 201674 0 272363 203444 0 265471 205111 0 258547 206676 0 251595 208141 0 244615 209509 0 237612 210780 0 230586 211957 0 223541 213042 0 216479 214035 0 209402 214939 0 202313 215756 0 195213 216486 0 188105 217132 0 180990 217694 0 173872 218174 0 166752 218574 0 159631 218895 0 152513 219137 0 145398 219303 0 138289 219393 0 131188 219409 0 124096 219352 0 117015 219222 0 109948 219022 0 102895 218751 0 95858.9 218411 0 88840.9 218003 0 81842.8 217528 0 74866.2 216986 0 67912.9 216380 0 60984.4 215708 0 54082.2 214973 0 47208.1 214175 0 40363.4 213315 0 33549.8 212393 0 26768.8 211411 0 20021.8 210369 0 13310.4 209267 0 6635.98 208107 0 0 206889 0 0 -667937 0 27050.6 -650611 0 53184.4 -633099 0 78351.5 -615600 0 102636 -598228 0 126143 -580991 0 148938 -563838 0 171041 -546714 0 192441 -529573