<?xml version="1.0"?> 
<VTKFile type="StructuredGrid" version="0.1"> 
<StructuredGrid WholeExtent="0 127 0 127 0 0"> 
<Piece Extent="0 127 0 127 0 0"> 
<PointData>
<DataArray type="Float32" Name="E" format="ascii" NumberOfComponents="3"> 
-731078 1.0848e-05 0 -731078 332.612 0 -731075 665.224 0 -731071 997.834 0 -731065 1330.44 0 -731058 1663.05 0 -731049 1995.65 0 -731039 2328.25 0 -731026 2660.84 0 -731012 2993.42 0 -730997 3326 0 -730980 3658.57 0 -730961 3991.14 0 -730941 4323.69 0 -730919 4656.23 0 -730895 4988.77 0 -730870 5321.29 0 -730843 5653.8 0 -730815 5986.3 0 -730784 6318.79 0 -730753 6651.26 0 -730719 6983.71 0 -730684 7316.16 0 -730648 7648.58 0 -730609 7980.99 0 -730569 8313.38 0 -730528 8645.75 0 -730485 8978.1 0 -730440 9310.43 0 -730393 9642.74 0 -730345 9975.03 0 -730296 10307.3 0 -730244 10639.5 0 -730191 10971.8 0 -730137 11304 0 -730081 11636.1 0 -730023 11968.3 0 -729963 12300.4 0 -729902 12632.5 0 -729839 12964.5 0 -729775 13296.6 0 -729709 13628.6 0 -729642 13960.5 0 -729572 14292.5 0 -729501 14624.4 0 -729429 14956.3 0 -729355 15288.1 0 -729279 15619.9 0 -729202 15951.7 0 -729123 16283.4 0 -729042 16615.1 0 -728960 16946.8 0 -728876 17278.4 0 -728790 17610 0 -728703 17941.5 0 -728614 18273.1 0 -728524 18604.5 0 -728432 18935.9 0 -728338 19267.3 0 -728243 19598.7 0 -728146 19930 0 -728047 20261.2 0 -727947 20592.4 0 -727845 20923.6 0 -727742 21254.7 0 -727637 21585.7 0 -727530 21916.8 0 -727422 22247.7 0 -727312 22578.6 0 -727200 22909.5 0 -727087 23240.3 0 -726972 23571.1 0 -726856 23901.8 0 -726738 24232.4 0 -726618 24563 0 -726497 24893.6 0 -726374 25224.1 0 -726249 25554.5 0 -726123 25884.9 0 -725995 26215.2 0 -725865 26545.4 0 -725734 26875.6 0 -725601 27205.8 0 -725467 27535.9 0 -725331 27865.9 0 -725193 28195.8 0 -725054 28525.7 0 -724913 28855.5 0 -724771 29185.3 0 -724627 29515 0 -724481 29844.6 0 -724333 30174.2 0 -724184 30503.7 0 -724034 30833.1 0 -723881 31162.4 0 -723727 31491.7 0 -723572 31820.9 0 -723415 32150.1 0 -723256 32479.1 0 -723095 32808.1 0 -722933 33137.1 0 -722770 33465.9 0 -722604 33794.7 0 -722437 34123.4 0 -722269 34452 0 -722099 34780.5 0 -721927 35109 0 -721753 35437.4 0 -721578 35765.7 0 -721401 36093.9 0 -721223 36422.1 0 -721043 36750.1 0 -720861 37078.1 0 -720678 37406 0 -720493 37733.8 0 -720307 38061.5 0 -720119 38389.2 0 -719929 38716.7 0 -719738 39044.2 0 -719545 39371.6 0 -719350 39698.9 0 -719154 40026.1 0 -718956 40353.2 0 -718756 40680.3 0 -718555 41007.2 0 -718353 41334.1 0 -718148 41660.9 0 -717942 41987.8 0 -735841 1.07888e-05 0 -735840 344.102 0 -735838 688.203 0 -735834 1032.3 0 -735828 1376.4 0 -735821 1720.49 0 -735812 2064.58 0 -735801 2408.67 0 -735789 2752.75 0 -735775 3096.83 0 -735759 3440.89 0 -735742 3784.95 0 -735723 4129.01 0 -735703 4473.05 0 -735681 4817.08 0 -735657 5161.11 0 -735632 5505.12 0 -735605 5849.12 0 -735576 6193.11 0 -735546 6537.08 0 -735514 6881.04 0 -735480 7224.99 0 -735445 7568.92 0 -735408 7912.83 0 -735370 8256.73 0 -735330 8600.6 0 -735288 8944.46 0 -735245 9288.3 0 -735200 9632.12 0 -735153 9975.92 0 -735105 10319.7 0 -735055 10663.5 0 -735003 11007.2 0 -734950 11350.9 0 -734895 11694.6 0 -734839 12038.2 0 -734781 12381.9 0 -734721 12725.5 0 -734660 13069.1 0 -734597 13412.6 0 -734532 13756.1 0 -734466 14099.6 0 -734398 14443.1 0 -734328 14786.5 0 -734257 15129.9 0 -734184 15473.3 0 -734110 15816.6 0 -734034 16159.9 0 -733956 16503.1 0 -733877 16846.4 0 -733796 17189.6 0 -733713 17532.7 0 -733629 17875.8 0 -733543 18218.9 0 -733456 18561.9 0 -733366 18904.9 0 -733276 19247.9 0 -733183 19590.8 0 -733089 19933.7 0 -732993 20276.5 0 -732896 20619.3 0 -732797 20962 0 -732696 21304.7 0 -732594 21647.3 0 -732490 21989.9 0 -732385 22332.5 0 -732278 22675 0 -732169 23017.4 0 -732058 23359.8 0 -731946 23702.2 0 -731833 24044.5 0 -731717 24386.7 0 -731600 24728.9 0 -731482 25071.1 0 -731361 25413.2 0 -731240 25755.2 0 -731116 26097.2 0 -730991 26439.1 0 -730864 26780.9 0 -730736 27122.7 0 -730606 27464.5 0 -730474 27806.2 0 -730341 28147.8 0 -730206 28489.3 0 -730069 28830.8 0 -729931 29172.3 0 -729791 29513.6 0 -729649 29855 0 -729506 30196.2 0 -729361 30537.4 0 -729215 30878.5 0 -729067 31219.5 0 -728917 31560.5 0 -728766 31901.4 0 -728613 32242.2 0 -728458 32583 0 -728302 32923.7 0 -728144 33264.3 0 -727985 33604.9 0 -727824 33945.4 0 -727661 34285.8 0 -727496 34626.1 0 -727330 34966.3 0 -727163 35306.5 0 -726993 35646.6 0 -726823 35986.6 0 -726650 36326.6 0 -726476 36666.4 0 -726300 37006.2 0 -726122 37345.9 0 -725943 37685.6 0 -725763 38025.1 0 -725580 38364.6 0 -725396 38703.9 0 -725210 39043.2 0 -725023 39382.4 0 -724834 39721.5 0 -724644 40060.6 0 -724451 40399.5 0 -724258 40738.4 0 -724062 41077.1 0 -723865 41415.8 0 -723666 41754.4 0 -723466 42092.9 0 -723264 42431.3 0 -723060 42769.6 0 -722855 43107.8 0 -722648 43445.9 0 -740766 1.08494e-05 0 -740765 355.64 0 -740762 711.28 0 -740758 1066.92 0 -740753 1422.55 0 -740745 1778.19 0 -740736 2133.81 0 -740725 2489.44 0 -740713 2845.06 0 -740699 3200.67 0 -740684 3556.28 0 -740666 3911.88 0 -740647 4267.47 0 -740627 4623.05 0 -740605 4978.62 0 -740581 5334.18 0 -740555 5689.73 0 -740528 6045.27 0 -740499 6400.8 0 -740469 6756.31 0 -740437 7111.81 0 -740403 7467.29 0 -740368 7822.76 0 -740331 8178.21 0 -740292 8533.65 0 -740252 8889.06 0 -740210 9244.46 0 -740167 9599.84 0 -740122 9955.2 0 -740075 10310.5 0 -740026 10665.9 0 -739976 11021.1 0 -739924 11376.4 0 -739871 11731.7 0 -739816 12086.9 0 -739759 12442.1 0 -739701 12797.2 0 -739641 13152.4 0 -739579 13507.5 0 -739516 13862.6 0 -739451 14217.7 0 -739385 14572.7 0 -739316 14927.7 0 -739247 15282.6 0 -739175 15637.6 0 -739102 15992.5 0 -739027 16347.3 0 -738951 16702.2 0 -738873 17057 0 -738793 17411.7 0 -738712 17766.5 0 -738629 18121.2 0 -738544 18475.8 0 -738458 18830.4 0 -738370 19185 0 -738280 19539.5 0 -738189 19894 0 -738096 20248.5 0 -738002 20602.9 0 -737906 20957.2 0 -737808 21311.5 0 -737709 21665.8 0 -737608 22020 0 -737505 22374.2 0 -737401 22728.4 0 -737295 23082.4 0 -737187 23436.5 0 -737078 23790.5 0 -736967 24144.4 0 -736854 24498.3 0 -736740 24852.1 0 -736624 25205.9 0 -736507 25559.6 0 -736388 25913.3 0 -736267 26266.9 0 -736144 26620.5 0 -736020 26974 0 -735895 27327.5 0 -735767 27680.9 0 -735638 28034.2 0 -735508 28387.5 0 -735375 28740.7 0 -735242 29093.8 0 -735106 29446.9 0 -734969 29800 0 -734830 30152.9 0 -734690 30505.8 0 -734547 30858.7 0 -734404 31211.5 0 -734258 31564.2 0 -734111 31916.8 0 -733962 32269.4 0 -733812 32621.9 0 -733660 32974.3 0 -733507 33326.7 0 -733351 33679 0 -733194 34031.2 0 -733036 34383.4 0 -732876 34735.4 0 -732714 35087.5 0 -732550 35439.4 0 -732385 35791.2 0 -732219 36143 0 -732050 36494.7 0 -731880 36846.4 0 -731708 37197.9 0 -731535 37549.4 0 -731360 37900.8 0 -731184 38252.1 0 -731005 38603.3 0 -730825 38954.5 0 -730644 39305.5 0 -730461 39656.5 0 -730276 40007.4 0 -730089 40358.2 0 -729901 40709 0 -729712 41059.6 0 -729520 41410.2 0 -729327 41760.6 0 -729133 42111 0 -728936 42461.3 0 -728738 42811.5 0 -728539 43161.6 0 -728338 43511.7 0 -728135 43861.6 0 -727930 44211.4 0 -727724 44561.2 0 -727516 44910.9 0 -745853 1.08809e-05 0 -745852 367.228 0 -745850 734.455 0 -745846 1101.68 0 -745840 1468.9 0 -745832 1836.12 0 -745823 2203.34 0 -745813 2570.55 0 -745800 2937.76 0 -745786 3304.96 0 -745771 3672.15 0 -745753 4039.34 0 -745734 4406.52 0 -745714 4773.69 0 -745691 5140.85 0 -745667 5508 0 -745642 5875.14 0 -745615 6242.26 0 -745586 6609.38 0 -745555 6976.48 0 -745523 7343.56 0 -745489 7710.63 0 -745454 8077.69 0 -745417 8444.73 0 -745378 8811.75 0 -745337 9178.75 0 -745295 9545.74 0 -745252 9912.71 0 -745206 10279.7 0 -745159 10646.6 0 -745110 11013.5 0 -745060 11380.4 0 -745008 11747.2 0 -744955 12114.1 0 -744899 12480.9 0 -744842 12847.6 0 -744784 13214.4 0 -744723 13581.1 0 -744662 13947.8 0 -744598 14314.5 0 -744533 14681.2 0 -744466 15047.8 0 -744398 15414.4 0 -744327 15780.9 0 -744256 16147.4 0 -744182 16513.9 0 -744107 16880.4 0 -744030 17246.8 0 -743952 17613.2 0 -743872 17979.5 0 -743790 18345.8 0 -743707 18712.1 0 -743622 19078.3 0 -743535 19444.5 0 -743447 19810.7 0 -743357 20176.8 0 -743266 20542.9 0 -743172 20908.9 0 -743077 21274.9 0 -742981 21640.9 0 -742883 22006.8 0 -742783 22372.6 0 -742681 22738.4 0 -742578 23104.2 0 -742474 23469.9 0 -742367 23835.6 0 -742259 24201.2 0 -742149 24566.8 0 -742038 24932.3 0 -741925 25297.8 0 -741810 25663.2 0 -741694 26028.6 0 -741576 26393.9 0 -741456 26759.2 0 -741335 27124.4 0 -741212 27489.5 0 -741087 27854.6 0 -740961 28219.6 0 -740833 28584.6 0 -740704 28949.5 0 -740573 29314.4 0 -740440 29679.2 0 -740305 30043.9 0 -740169 30408.6 0 -740031 30773.2 0 -739892 31137.8 0 -739751 31502.3 0 -739608 31866.7 0 -739464 32231.1 0 -739318 32595.4 0 -739170 32959.6 0 -739021 33323.7 0 -738870 33687.8 0 -738717 34051.8 0 -738563 34415.8 0 -738407 34779.7 0 -738249 35143.5 0 -738090 35507.2 0 -737929 35870.9 0 -737767 36234.5 0 -737603 36598 0 -737437 36961.4 0 -737269 37324.8 0 -737100 37688.1 0 -736929 38051.3 0 -736757 38414.4 0 -736583 38777.4 0 -736407 39140.4 0 -736230 39503.3 0 -736051 39866.1 0 -735870 40228.8 0 -735688 40591.5 0 -735504 40954 0 -735318 41316.5 0 -735131 41678.9 0 -734942 42041.2 0 -734752 42403.4 0 -734559 42765.6 0 -734366 43127.6 0 -734170 43489.6 0 -733973 43851.4 0 -733774 44213.2 0 -733574 44574.9 0 -733372 44936.5 0 -733168 45298 0 -732963 45659.4 0 -732756 46020.7 0 -732547 46381.9 0 -751104 1.08535e-05 0 -751103 378.865 0 -751100 757.729 0 -751096 1136.59 0 -751091 1515.45 0 -751083 1894.31 0 -751074 2273.16 0 -751063 2652.01 0 -751051 3030.85 0 -751037 3409.69 0 -751021 3788.52 0 -751004 4167.35 0 -750984 4546.16 0 -750964 4924.97 0 -750941 5303.77 0 -750917 5682.55 0 -750892 6061.33 0 -750864 6440.09 0 -750835 6818.84 0 -750805 7197.58 0 -750772 7576.3 0 -750738 7955.01 0 -750703 8333.7 0 -750665 8712.38 0 -750627 9091.04 0 -750586 9469.68 0 -750544 9848.3 0 -750500 10226.9 0 -750454 10605.5 0 -750407 10984 0 -750358 11362.6 0 -750308 11741.1 0 -750255 12119.6 0 -750201 12498.1 0 -750146 12876.5 0 -750089 13254.9 0 -750030 13633.3 0 -749969 14011.7 0 -749907 14390 0 -749844 14768.3 0 -749778 15146.6 0 -749711 15524.9 0 -749642 15903.1 0 -749572 16281.3 0 -749500 16659.4 0 -749426 17037.6 0 -749351 17415.7 0 -749273 17793.7 0 -749195 18171.7 0 -749114 18549.7 0 -749032 18927.7 0 -748949 19305.6 0 -748863 19683.5 0 -748776 20061.3 0 -748688 20439.1 0 -748597 20816.8 0 -748505 21194.6 0 -748412 21572.2 0 -748316 21949.9 0 -748219 22327.4 0 -748121 22705 0 -748021 23082.5 0 -747919 23459.9 0 -747815 23837.3 0 -747710 24214.7 0 -747603 24592 0 -747494 24969.3 0 -747384 25346.5 0 -747272 25723.6 0 -747159 26100.7 0 -747044 26477.8 0 -746927 26854.8 0 -746808 27231.7 0 -746688 27608.6 0 -746566 27985.5 0 -746443 28362.3 0 -746318 28739 0 -746191 29115.7 0 -746063 29492.3 0 -745933 29868.8 0 -745801 30245.3 0 -745667 30621.8 0 -745532 30998.1 0 -745396 31374.4 0 -745257 31750.7 0 -745117 32126.9 0 -744976 32503 0 -744832 32879.1 0 -744687 33255 0 -744541 33631 0 -744392 34006.8 0 -744242 34382.6 0 -744091 34758.3 0 -743937 35134 0 -743783 35509.6 0 -743626 35885.1 0 -743468 36260.5 0 -743308 36635.9 0 -743146 37011.2 0 -742983 37386.4 0 -742818 37761.5 0 -742652 38136.6 0 -742483 38511.6 0 -742314 38886.5 0 -742142 39261.3 0 -741969 39636.1 0 -741794 40010.8 0 -741618 40385.4 0 -741440 40759.9 0 -741260 41134.3 0 -741078 41508.7 0 -740895 41882.9 0 -740711 42257.1 0 -740524 42631.2 0 -740336 43005.2 0 -740146 43379.2 0 -739955 43753 0 -739762 44126.8 0 -739567 44500.4 0 -739371 44874 0 -739173 45247.5 0 -738973 45620.9 0 -738772 45994.2 0 -738569 46367.4 0 -738364 46740.5 0 -738158 47113.5 0 -737950 47486.5 0 -737741 47859.3 0 -756519 1.08564e-05 0 -756518 390.551 0 -756515 781.101 0 -756511 1171.65 0 -756505 1562.2 0 -756498 1952.74 0 -756489 2343.28 0 -756478 2733.81 0 -756465 3124.34 0 -756451 3514.87 0 -756435 3905.39 0 -756418 4295.89 0 -756399 4686.4 0 -756378 5076.89 0 -756356 5467.37 0 -756331 5857.84 0 -756306 6248.31 0 -756278 6638.76 0 -756249 7029.19 0 -756218 7419.62 0 -756186 7810.02 0 -756152 8200.42 0 -756116 8590.8 0 -756079 8981.16 0 -756039 9371.5 0 -755999 9761.83 0 -755956 10152.1 0 -755912 10542.4 0 -755866 10932.7 0 -755819 11322.9 0 -755770 11713.2 0 -755719 12103.4 0 -755667 12493.6 0 -755613 12883.7 0 -755557 13273.8 0 -755499 13664 0 -755440 14054 0 -755380 14444.1 0 -755317 14834.1 0 -755253 15224.1 0 -755187 15614.1 0 -755120 16004 0 -755051 16393.9 0 -754980 16783.8 0 -754908 17173.6 0 -754834 17563.5 0 -754758 17953.2 0 -754681 18343 0 -754602 18732.7 0 -754521 19122.4 0 -754438 19512 0 -754354 19901.6 0 -754269 20291.2 0 -754181 20680.7 0 -754092 21070.2 0 -754002 21459.6 0 -753909 21849 0 -753815 22238.3 0 -753720 22627.7 0 -753622 23016.9 0 -753523 23406.2 0 -753422 23795.3 0 -753320 24184.5 0 -753216 24573.6 0 -753110 24962.6 0 -753003 25351.6 0 -752894 25740.5 0 -752783 26129.4 0 -752671 26518.3 0 -752557 26907.1 0 -752441 27295.8 0 -752324 27684.5 0 -752205 28073.1 0 -752084 28461.7 0 -751962 28850.3 0 -751838 29238.7 0 -751713 29627.1 0 -751585 30015.5 0 -751456 30403.8 0 -751326 30792 0 -751193 31180.2 0 -751059 31568.3 0 -750924 31956.4 0 -750786 32344.4 0 -750647 32732.3 0 -750507 33120.2 0 -750365 33508 0 -750221 33895.7 0 -750075 34283.4 0 -749928 34671 0 -749779 35058.6 0 -749628 35446 0 -749476 35833.4 0 -749322 36220.8 0 -749166 36608 0 -749009 36995.2 0 -748850 37382.3 0 -748690 37769.4 0 -748527 38156.4 0 -748363 38543.3 0 -748198 38930.1 0 -748031 39316.8 0 -747862 39703.5 0 -747691 40090.1 0 -747519 40476.6 0 -747345 40863 0 -747169 41249.4 0 -746992 41635.7 0 -746813 42021.9 0 -746633 42408 0 -746450 42794 0 -746267 43180 0 -746081 43565.8 0 -745894 43951.6 0 -745705 44337.3 0 -745514 44722.9 0 -745322 45108.4 0 -745128 45493.8 0 -744933 45879.2 0 -744736 46264.4 0 -744537 46649.6 0 -744336 47034.6 0 -744134 47419.6 0 -743930 47804.5 0 -743725 48189.3 0 -743518 48573.9 0 -743309 48958.5 0 -743099 49343 0 -762098 1.08302e-05 0 -762098 402.286 0 -762095 804.572 0 -762091 1206.86 0 -762085 1609.14 0 -762078 2011.42 0 -762068 2413.69 0 -762057 2815.96 0 -762045 3218.23 0 -762031 3620.49 0 -762015 4022.74 0 -761997 4424.98 0 -761978 4827.22 0 -761957 5229.45 0 -761935 5631.67 0 -761910 6033.88 0 -761884 6436.07 0 -761857 6838.26 0 -761828 7240.43 0 -761797 7642.59 0 -761764 8044.73 0 -761730 8446.86 0 -761694 8848.98 0 -761656 9251.07 0 -761617 9653.15 0 -761576 10055.2 0 -761534 10457.3 0 -761489 10859.3 0 -761443 11261.3 0 -761396 11663.3 0 -761346 12065.2 0 -761295 12467.2 0 -761243 12869.1 0 -761188 13271 0 -761132 13672.9 0 -761075 14074.7 0 -761015 14476.5 0 -760954 14878.3 0 -760892 15280.1 0 -760827 15681.8 0 -760761 16083.5 0 -760694 16485.2 0 -760624 16886.8 0 -760553 17288.4 0 -760481 17690 0 -760406 18091.6 0 -760330 18493.1 0 -760253 18894.6 0 -760173 19296 0 -760092 19697.4 0 -760009 20098.8 0 -759925 20500.1 0 -759839 20901.4 0 -759751 21302.7 0 -759662 21703.9 0 -759571 22105.1 0 -759478 22506.2 0 -759384 22907.3 0 -759287 23308.3 0 -759190 23709.3 0 -759090 24110.3 0 -758989 24511.2 0 -758886 24912.1 0 -758782 25312.9 0 -758676 25713.7 0 -758568 26114.4 0 -758459 26515.1 0 -758347 26915.7 0 -758235 27316.3 0 -758120 27716.9 0 -758004 28117.3 0 -757886 28517.8 0 -757767 28918.1 0 -757645 29318.4 0 -757523 29718.7 0 -757398 30118.9 0 -757272 30519.1 0 -757144 30919.2 0 -757015 31319.2 0 -756883 31719.2 0 -756750 32119.1 0 -756616 32518.9 0 -756480 32918.7 0 -756342 33318.5 0 -756202 33718.1 0 -756061 34117.7 0 -755918 34517.3 0 -755774 34916.7 0 -755627 35316.2 0 -755479 35715.5 0 -755330 36114.8 0 -755179 36514 0 -755026 36913.1 0 -754871 37312.2 0 -754715 37711.2 0 -754557 38110.1 0 -754397 38509 0 -754236 38907.7 0 -754073 39306.4 0 -753908 39705.1 0 -753742 40103.6 0 -753574 40502.1 0 -753405 40900.5 0 -753233 41298.8 0 -753060 41697.1 0 -752886 42095.3 0 -752709 42493.3 0 -752531 42891.3 0 -752352 43289.3 0 -752170 43687.1 0 -751987 44084.9 0 -751803 44482.5 0 -751616 44880.1 0 -751428 45277.6 0 -751239 45675.1 0 -751047 46072.4 0 -750854 46469.6 0 -750660 46866.8 0 -750463 47263.8 0 -750265 47660.8 0 -750066 48057.7 0 -749864 48454.5 0 -749661 48851.2 0 -749456 49247.8 0 -749250 49644.3 0 -749042 50040.7 0 -748832 50437 0 -748621 50833.2 0 -767844 1.07453e-05 0 -767843 414.071 0 -767840 828.14 0 -767836 1242.21 0 -767830 1656.27 0 -767823 2070.34 0 -767813 2484.4 0 -767803 2898.45 0 -767790 3312.5 0 -767776 3726.55 0 -767760 4140.58 0 -767742 4554.61 0 -767723 4968.63 0 -767702 5382.65 0 -767679 5796.65 0 -767655 6210.64 0 -767629 6624.62 0 -767601 7038.59 0 -767572 7452.55 0 -767541 7866.49 0 -767508 8280.42 0 -767474 8694.34 0 -767438 9108.24 0 -767400 9522.12 0 -767360 9935.99 0 -767319 10349.8 0 -767276 10763.7 0 -767232 11177.5 0 -767186 11591.3 0 -767138 12005 0 -767088 12418.8 0 -767037 12832.5 0 -766984 13246.2 0 -766930 13659.9 0 -766874 14073.5 0 -766816 14487.2 0 -766756 14900.8 0 -766695 15314.3 0 -766632 15727.9 0 -766567 16141.4 0 -766501 16554.9 0 -766433 16968.4 0 -766363 17381.8 0 -766292 17795.2 0 -766219 18208.6 0 -766144 18621.9 0 -766068 19035.2 0 -765990 19448.5 0 -765910 19861.7 0 -765829 20274.9 0 -765746 20688 0 -765661 21101.2 0 -765575 21514.2 0 -765487 21927.3 0 -765397 22340.3 0 -765305 22753.3 0 -765212 23166.2 0 -765117 23579.1 0 -765021 23991.9 0 -764923 24404.7 0 -764823 24817.4 0 -764721 25230.1 0 -764618 25642.8 0 -764513 26055.4 0 -764407 26468 0 -764298 26880.5 0 -764188 27293 0 -764077 27705.4 0 -763964 28117.7 0 -763849 28530.1 0 -763732 28942.3 0 -763614 29354.5 0 -763494 29766.7 0 -763372 30178.8 0 -763249 30590.8 0 -763124 31002.8 0 -762997 31414.8 0 -762868 31826.7 0 -762738 32238.5 0 -762607 32650.2 0 -762473 33061.9 0 -762338 33473.6 0 -762201 33885.2 0 -762063 34296.7 0 -761923 34708.1 0 -761781 35119.5 0 -761637 35530.9 0 -761492 35942.1 0 -761345 36353.3 0 -761197 36764.4 0 -761047 37175.5 0 -760895 37586.5 0 -760741 37997.4 0 -760586 38408.3 0 -760429 38819.1 0 -760270 39229.8 0 -760110 39640.4 0 -759948 40051 0 -759784 40461.5 0 -759619 40871.9 0 -759452 41282.2 0 -759283 41692.5 0 -759113 42102.7 0 -758941 42512.8 0 -758767 42922.8 0 -758592 43332.8 0 -758415 43742.6 0 -758236 44152.4 0 -758056 44562.1 0 -757874 44971.7 0 -757690 45381.3 0 -757504 45790.7 0 -757317 46200.1 0 -757128 46609.4 0 -756938 47018.6 0 -756746 47427.7 0 -756552 47836.7 0 -756356 48245.6 0 -756159 48654.5 0 -755960 49063.2 0 -755760 49471.9 0 -755557 49880.4 0 -755354 50288.9 0 -755148 50697.3 0 -754941 51105.6 0 -754732 51513.7 0 -754521 51921.8 0 -754309 52329.8 0 -773755 1.08393e-05 0 -773754 425.904 0 -773752 851.807 0 -773747 1277.71 0 -773742 1703.61 0 -773734 2129.51 0 -773725 2555.4 0 -773714 2981.29 0 -773701 3407.17 0 -773687 3833.05 0 -773671 4258.92 0 -773653 4684.78 0 -773634 5110.64 0 -773613 5536.48 0 -773590 5962.32 0 -773565 6388.15 0 -773539 6813.96 0 -773512 7239.76 0 -773482 7665.55 0 -773451 8091.33 0 -773418 8517.1 0 -773383 8942.84 0 -773347 9368.58 0 -773309 9794.29 0 -773270 10220 0 -773228 10645.7 0 -773185 11071.3 0 -773141 11497 0 -773094 11922.6 0 -773046 12348.2 0 -772997 12773.8 0 -772945 13199.4 0 -772892 13624.9 0 -772837 14050.4 0 -772781 14475.9 0 -772723 14901.4 0 -772663 15326.8 0 -772602 15752.2 0 -772538 16177.6 0 -772473 16602.9 0 -772407 17028.3 0 -772339 17453.6 0 -772269 17878.8 0 -772197 18304.1 0 -772124 18729.3 0 -772049 19154.4 0 -771972 19579.6 0 -771894 20004.7 0 -771814 20429.7 0 -771732 20854.8 0 -771649 21279.8 0 -771563 21704.7 0 -771477 22129.6 0 -771388 22554.5 0 -771298 22979.4 0 -771206 23404.2 0 -771113 23828.9 0 -771017 24253.6 0 -770921 24678.3 0 -770822 25102.9 0 -770722 25527.5 0 -770620 25952.1 0 -770516 26376.6 0 -770411 26801 0 -770304 27225.4 0 -770195 27649.8 0 -770085 28074.1 0 -769973 28498.3 0 -769859 28922.5 0 -769743 29346.7 0 -769626 29770.8 0 -769507 30194.8 0 -769387 30618.8 0 -769265 31042.8 0 -769141 31466.7 0 -769015 31890.5 0 -768888 32314.3 0 -768759 32738 0 -768628 33161.7 0 -768496 33585.3 0 -768362 34008.8 0 -768226 34432.3 0 -768089 34855.7 0 -767950 35279.1 0 -767809 35702.3 0 -767667 36125.6 0 -767523 36548.7 0 -767377 36971.8 0 -767229 37394.9 0 -767080 37817.8 0 -766929 38240.7 0 -766777 38663.6 0 -766623 39086.3 0 -766467 39509 0 -766309 39931.6 0 -766150 40354.2 0 -765989 40776.7 0 -765826 41199.1 0 -765662 41621.4 0 -765496 42043.6 0 -765328 42465.8 0 -765159 42887.9 0 -764988 43309.9 0 -764815 43731.9 0 -764640 44153.8 0 -764464 44575.5 0 -764287 44997.3 0 -764107 45418.9 0 -763926 45840.4 0 -763743 46261.9 0 -763558 46683.2 0 -763372 47104.5 0 -763184 47525.7 0 -762995 47946.9 0 -762803 48367.9 0 -762610 48788.8 0 -762416 49209.7 0 -762219 49630.4 0 -762021 50051.1 0 -761821 50471.7 0 -761620 50892.2 0 -761417 51312.6 0 -761212 51732.9 0 -761006 52153.1 0 -760797 52573.2 0 -760588 52993.2 0 -760376 53413.1 0 -760163 53832.9 0 -779833 1.07253e-05 0 -779832 437.786 0 -779830 875.572 0 -779826 1313.36 0 -779820 1751.14 0 -779812 2188.92 0 -779803 2626.69 0 -779792 3064.46 0 -779779 3502.23 0 -779765 3939.99 0 -779749 4377.74 0 -779731 4815.49 0 -779711 5253.22 0 -779690 5690.95 0 -779667 6128.67 0 -779643 6566.38 0 -779617 7004.08 0 -779589 7441.76 0 -779559 7879.44 0 -779528 8317.1 0 -779495 8754.74 0 -779460 9192.38 0 -779424 9629.99 0 -779386 10067.6 0 -779346 10505.2 0 -779305 10942.7 0 -779261 11380.3 0 -779217 11817.8 0 -779170 12255.3 0 -779122 12692.8 0 -779072 13130.3 0 -779020 13567.7 0 -778967 14005.1 0 -778912 14442.5 0 -778855 14879.9 0 -778797 15317.3 0 -778737 15754.6 0 -778675 16191.9 0 -778612 16629.1 0 -778547 17066.4 0 -778480 17503.6 0 -778411 17940.8 0 -778341 18377.9 0 -778269 18815 0 -778195 19252.1 0 -778120 19689.2 0 -778043 20126.2 0 -777964 20563.2 0 -777884 21000.1 0 -777802 21437.1 0 -777718 21873.9 0 -777633 22310.8 0 -777546 22747.6 0 -777457 23184.4 0 -777366 23621.1 0 -777274 24057.8 0 -777180 24494.4 0 -777084 24931 0 -776987 25367.6 0 -776888 25804.1 0 -776787 26240.6 0 -776685 26677 0 -776581 27113.4 0 -776475 27549.7 0 -776368 27986 0 -776259 28422.3 0 -776148 28858.5 0 -776035 29294.6 0 -775921 29730.7 0 -775805 30166.7 0 -775687 30602.7 0 -775568 31038.7 0 -775447 31474.6 0 -775324 31910.4 0 -775200 32346.2 0 -775074 32781.9 0 -774946 33217.6 0 -774817 33653.2 0 -774685 34088.7 0 -774553 34524.2 0 -774418 34959.6 0 -774282 35395 0 -774144 35830.3 0 -774004 36265.6 0 -773863 36700.7 0 -773720 37135.9 0 -773575 37570.9 0 -773429 38005.9 0 -773281 38440.8 0 -773131 38875.7 0 -772979 39310.5 0 -772826 39745.2 0 -772671 40179.9 0 -772515 40614.4 0 -772356 41049 0 -772196 41483.4 0 -772035 41917.8 0 -771871 42352.1 0 -771706 42786.3 0 -771540 43220.4 0 -771371 43654.5 0 -771201 44088.5 0 -771029 44522.4 0 -770856 44956.2 0 -770681 45390 0 -770504 45823.7 0 -770325 46257.2 0 -770145 46690.8 0 -769963 47124.2 0 -769779 47557.5 0 -769594 47990.8 0 -769407 48424 0 -769218 48857.1 0 -769028 49290.1 0 -768835 49723 0 -768642 50155.8 0 -768446 50588.6 0 -768249 51021.2 0 -768050 51453.8 0 -767849 51886.2 0 -767647 52318.6 0 -767443 52750.9 0 -767237 53183.1 0 -767030 53615.2 0 -766821 54047.2 0 -766610 54479.1 0 -766398 54910.9 0 -766184 55342.6 0 -786079 1.05829e-05 0 -786078 449.717 0 -786076 899.433 0 -786072 1349.15 0 -786066 1798.86 0 -786058 2248.57 0 -786049 2698.28 0 -786038 3147.98 0 -786025 3597.67 0 -786010 4047.36 0 -785994 4497.05 0 -785976 4946.72 0 -785957 5396.39 0 -785936 5846.05 0 -785913 6295.7 0 -785888 6745.34 0 -785862 7194.97 0 -785834 7644.59 0 -785804 8094.2 0 -785773 8543.79 0 -785739 8993.37 0 -785705 9442.93 0 -785668 9892.48 0 -785630 10342 0 -785590 10791.5 0 -785548 11241 0 -785505 11690.5 0 -785460 12140 0 -785413 12589.4 0 -785365 13038.8 0 -785315 13488.2 0 -785263 13937.6 0 -785209 14387 0 -785154 14836.3 0 -785097 15285.6 0 -785039 15734.9 0 -784978 16184.1 0 -784916 16633.4 0 -784853 17082.6 0 -784787 17531.7 0 -784720 17980.9 0 -784651 18430 0 -784581 18879.1 0 -784508 19328.1 0 -784435 19777.2 0 -784359 20226.1 0 -784282 20675.1 0 -784203 21124 0 -784122 21572.9 0 -784040 22021.8 0 -783955 22470.6 0 -783870 22919.4 0 -783782 23368.1 0 -783693 23816.8 0 -783602 24265.5 0 -783509 24714.1 0 -783415 25162.7 0 -783319 25611.2 0 -783221 26059.7 0 -783122 26508.2 0 -783021 26956.6 0 -782918 27405 0 -782813 27853.3 0 -782707 28301.6 0 -782599 28749.8 0 -782490 29198 0 -782378 29646.1 0 -782265 30094.2 0 -782151 30542.2 0 -782034 30990.2 0 -781916 31438.1 0 -781796 31886 0 -781675 32333.9 0 -781552 32781.6 0 -781427 33229.3 0 -781300 33677 0 -781172 34124.6 0 -781042 34572.2 0 -780910 35019.7 0 -780777 35467.1 0 -780642 35914.5 0 -780505 36361.8 0 -780366 36809 0 -780226 37256.2 0 -780084 37703.3 0 -779940 38150.4 0 -779795 38597.4 0 -779648 39044.3 0 -779499 39491.2 0 -779349 39938 0 -779197 40384.7 0 -779043 40831.4 0 -778887 41278 0 -778730 41724.5 0 -778571 42171 0 -778411 42617.4 0 -778248 43063.7 0 -778084 43509.9 0 -777919 43956.1 0 -777751 44402.2 0 -777582 44848.2 0 -777411 45294.1 0 -777239 45740 0 -777064 46185.8 0 -776888 46631.5 0 -776711 47077.1 0 -776531 47522.6 0 -776350 47968.1 0 -776168 48413.5 0 -775983 48858.7 0 -775797 49304 0 -775609 49749.1 0 -775420 50194.1 0 -775228 50639.1 0 -775035 51083.9 0 -774841 51528.7 0 -774644 51973.4 0 -774446 52418 0 -774247 52862.5 0 -774045 53306.9 0 -773842 53751.2 0 -773637 54195.4 0 -773431 54639.5 0 -773222 55083.6 0 -773012 55527.5 0 -772801 55971.4 0 -772587 56415.1 0 -772372 56858.7 0 -792493 1.05e-05 0 -792492 461.696 0 -792490 923.391 0 -792486 1385.08 0 -792480 1846.78 0 -792472 2308.46 0 -792463 2770.15 0 -792451 3231.83 0 -792439 3693.5 0 -792424 4155.17 0 -792408 4616.84 0 -792390 5078.49 0 -792370 5540.14 0 -792349 6001.78 0 -792326 6463.41 0 -792301 6925.03 0 -792275 7386.64 0 -792247 7848.24 0 -792217 8309.82 0 -792185 8771.39 0 -792152 9232.95 0 -792117 9694.49 0 -792080 10156 0 -792042 10617.5 0 -792002 11079 0 -791960 11540.5 0 -791917 12002 0 -791872 12463.4 0 -791825 12924.8 0 -791776 13386.2 0 -791726 13847.6 0 -791674 14309 0 -791620 14770.3 0 -791564 15231.6 0 -791507 15692.9 0 -791448 16154.2 0 -791388 16615.4 0 -791326 17076.6 0 -791262 17537.8 0 -791196 17999 0 -791129 18460.1 0 -791060 18921.2 0 -790989 19382.3 0 -790916 19843.3 0 -790842 20304.3 0 -790766 20765.3 0 -790688 21226.2 0 -790609 21687.1 0 -790528 22148 0 -790445 22608.9 0 -790361 23069.7 0 -790275 23530.4 0 -790187 23991.2 0 -790097 24451.8 0 -790006 24912.5 0 -789913 25373.1 0 -789818 25833.7 0 -789722 26294.2 0 -789624 26754.7 0 -789524 27215.1 0 -789423 27675.5 0 -789319 28135.9 0 -789214 28596.2 0 -789108 29056.5 0 -788999 29516.7 0 -788889 29976.9 0 -788778 30437 0 -788664 30897.1 0 -788549 31357.1 0 -788432 31817.1 0 -788313 32277 0 -788193 32736.9 0 -788071 33196.7 0 -787947 33656.5 0 -787822 34116.2 0 -787695 34575.8 0 -787566 35035.4 0 -787435 35495 0 -787303 35954.5 0 -787169 36413.9 0 -787034 36873.3 0 -786896 37332.6 0 -786757 37791.8 0 -786616 38251 0 -786474 38710.1 0 -786330 39169.2 0 -786184 39628.2 0 -786036 40087.1 0 -785887 40546 0 -785736 41004.8 0 -785583 41463.5 0 -785428 41922.2 0 -785272 42380.8 0 -785114 42839.3 0 -784955 43297.7 0 -784793 43756.1 0 -784630 44214.4 0 -784466 44672.7 0 -784299 45130.8 0 -784131 45588.9 0 -783961 46046.9 0 -783790 46504.9 0 -783616 46962.7 0 -783441 47420.5 0 -783265 47878.2 0 -783086 48335.8 0 -782906 48793.4 0 -782724 49250.8 0 -782541 49708.2 0 -782356 50165.5 0 -782169 50622.7 0 -781980 51079.8 0 -781790 51536.8 0 -781598 51993.8 0 -781404 52450.7 0 -781208 52907.4 0 -781011 53364.1 0 -780812 53820.7 0 -780612 54277.2 0 -780409 54733.6 0 -780205 55189.9 0 -779999 55646.2 0 -779792 56102.3 0 -779583 56558.3 0 -779372 57014.3 0 -779159 57470.1 0 -778945 57925.8 0 -778729 58381.5 0 -799076 1.05056e-05 0 -799075 473.722 0 -799073 947.444 0 -799069 1421.16 0 -799063 1894.88 0 -799055 2368.6 0 -799045 2842.31 0 -799034 3316.02 0 -799022 3789.72 0 -799007 4263.41 0 -798991 4737.1 0 -798973 5210.79 0 -798953 5684.46 0 -798932 6158.13 0 -798908 6631.79 0 -798884 7105.43 0 -798857 7579.07 0 -798829 8052.69 0 -798799 8526.31 0 -798767 8999.91 0 -798734 9473.49 0 -798699 9947.07 0 -798662 10420.6 0 -798623 10894.2 0 -798583 11367.7 0 -798541 11841.2 0 -798497 12314.7 0 -798452 12788.2 0 -798405 13261.6 0 -798356 13735 0 -798306 14208.4 0 -798253 14681.8 0 -798199 15155.2 0 -798144 15628.5 0 -798086 16101.9 0 -798027 16575.2 0 -797967 17048.4 0 -797904 17521.7 0 -797840 17994.9 0 -797774 18468.1 0 -797706 18941.2 0 -797637 19414.4 0 -797566 19887.5 0 -797493 20360.6 0 -797418 20833.6 0 -797342 21306.6 0 -797264 21779.6 0 -797185 22252.5 0 -797103 22725.4 0 -797020 23198.3 0 -796935 23671.1 0 -796849 24144 0 -796761 24616.7 0 -796671 25089.4 0 -796579 25562.1 0 -796486 26034.8 0 -796391 26507.4 0 -796294 26980 0 -796195 27452.5 0 -796095 27925 0 -795993 28397.4 0 -795890 28869.8 0 -795784 29342.2 0 -795677 29814.5 0 -795568 30286.7 0 -795458 30759 0 -795346 31231.1 0 -795232 31703.2 0 -795116 32175.3 0 -794999 32647.3 0 -794880 33119.3 0 -794759 33591.2 0 -794636 34063.1 0 -794512 34534.9 0 -794386 35006.6 0 -794259 35478.3 0 -794129 35950 0 -793998 36421.6 0 -793865 36893.1 0 -793731 37364.6 0 -793595 37836 0 -793457 38307.4 0 -793317 38778.6 0 -793176 39249.9 0 -793032 39721.1 0 -792888 40192.2 0 -792741 40663.2 0 -792593 41134.2 0 -792443 41605.1 0 -792291 42076 0 -792138 42546.7 0 -791983 43017.4 0 -791826 43488.1 0 -791667 43958.7 0 -791507 44429.2 0 -791345 44899.6 0 -791181 45370 0 -791016 45840.3 0 -790849 46310.5 0 -790680 46780.6 0 -790510 47250.7 0 -790337 47720.7 0 -790163 48190.6 0 -789988 48660.4 0 -789810 49130.2 0 -789631 49599.9 0 -789450 50069.5 0 -789268 50539 0 -789083 51008.4 0 -788897 51477.7 0 -788709 51947 0 -788520 52416.2 0 -788329 52885.3 0 -788136 53354.3 0 -787941 53823.2 0 -787745 54292 0 -787547 54760.8 0 -787347 55229.4 0 -787146 55698 0 -786943 56166.5 0 -786738 56634.8 0 -786531 57103.1 0 -786323 57571.3 0 -786113 58039.4 0 -785901 58507.4 0 -785687 58975.3 0 -785472 59443.1 0 -785255 59910.8 0 -805829 1.0245e-05 0 -805828 485.