<?xml version="1.0"?> 
<VTKFile type="StructuredGrid" version="0.1"> 
<StructuredGrid WholeExtent="0 127 0 127 0 0"> 
<Piece Extent="0 127 0 127 0 0"> 
<PointData>
<DataArray type="Float32" Name="u" format="ascii" NumberOfComponents="1"> 
-200000 -197627 -195210 -192742 -190224 -187659 -185052 -182408 -179732 -177030 -174308 -171570 -168823 -166072 -163322 -160577 -157840 -155117 -152410 -149722 -147055 -144413 -141795 -139205 -136644 -134112 -131611 -129142 -126704 -124300 -121928 -119589 -117284 -115012 -112773 -110568 -108396 -106257 -104151 -102078 -100037 -98027.6 -96050.3 -94104.3 -92189.4 -90305 -88450.9 -86626.5 -84831.6 -83065.5 -81328 -79618.6 -77936.8 -76282.1 -74654.2 -73052.5 -71476.6 -69926.1 -68400.5 -66899.3 -65422.1 -63968.4 -62537.8 -61129.8 -59743.9 -58379.8 -57037 -55715.1 -54413.5 -53131.9 -51869.9 -50626.9 -49402.7 -48196.7 -47008.6 -45838 -44684.4 -43547.4 -42426.7 -41321.8 -40232.3 -39157.9 -38098.2 -37052.8 -36021.2 -35003.3 -33998.5 -33006.5 -32026.9 -31059.5 -30103.7 -29159.4 -28226 -27303.4 -26391.1 -25488.8 -24596.2 -23712.9 -22838.6 -21973 -21115.7 -20266.5 -19424.9 -18590.8 -17763.8 -16943.5 -16129.7 -15322 -14520.1 -13723.8 -12932.8 -12146.7 -11365.2 -10588 -9814.92 -9045.57 -8279.67 -7516.93 -6757.07 -5999.8 -5244.81 -4491.83 -3740.57 -2990.74 -2242.06 -1494.23 -746.971 0 -200000 -197621 -195196 -192720 -190194 -187622 -185008 -182357 -179675 -176967 -174238 -171495 -168743 -165988 -163233 -160484 -157744 -155018 -152309 -149618 -146950 -144306 -141687 -139096 -136534 -134002 -131501 -129032 -126595 -124191 -121819 -119482 -117177 -114906 -112669 -110465 -108294 -106157 -104052 -101980 -99940.4 -97933 -95957.2 -94012.9 -92099.6 -90216.9 -88364.4 -86541.7 -84748.4 -82984 -81248.2 -79540.4 -77860.2 -76207.2 -74580.9 -72980.8 -71406.5 -69857.6 -68333.5 -66833.9 -65358.2 -63906 -62476.9 -61070.3 -59686 -58323.3 -56981.9 -55661.3 -54361.1 -53080.9 -51820.1 -50578.5 -49355.5 -48150.8 -46964 -45794.5 -44642.1 -43506.3 -42386.7 -41283 -40194.6 -39121.3 -38062.7 -37018.3 -35987.8 -34970.9 -33967.1 -32976.1 -31997.5 -31031 -30076.2 -29132.8 -28200.4 -27278.6 -26367.2 -25465.8 -24574 -23691.5 -22818.1 -21953.3 -21096.8 -20248.4 -19407.6 -18574.3 -17748 -16928.4 -16115.4 -15308.4 -14507.3 -13711.7 -12921.4 -12136 -11355.2 -10578.7 -9806.31 -9037.64 -8272.42 -7510.36 -6751.17 -5994.56 -5240.23 -4487.92 -3737.31 -2988.14 -2240.1 -1492.93 -746.321 0 -200000 -197614 -195181 -192698 -190165 -187585 -184964 -182307 -179618 -176903 -174168 -171420 -168663 -165902 -163144 -160391 -157648 -154919 -152207 -149514 -146844 -144198 -141579 -138987 -136424 -133892 -131391 -128922 -126485 -124081 -121711 -119374 -117070 -114800 -112564 -110361 -108192 -106056 -103952 -101882 -99844 -97838.1 -95863.9 -93921.2 -92009.5 -90128.4 -88277.6 -86456.6 -84664.9 -82902.2 -81168 -79461.9 -77783.4 -76132 -74507.3 -72908.9 -71336.2 -69788.8 -68266.4 -66768.3 -65294.1 -63843.4 -62415.8 -61010.7 -59627.8 -58266.6 -56926.6 -55607.4 -54308.5 -53029.6 -51770.2 -50529.9 -49308.2 -48104.8 -46919.2 -45751 -44599.7 -43465.1 -42346.7 -41244 -40156.8 -39084.6 -38027.1 -36983.7 -35954.3 -34938.4 -33935.6 -32945.6 -31968 -31002.4 -30048.6 -29106.1 -28174.6 -27253.7 -26343.2 -25442.6 -24551.7 -23670.1 -22797.5 -21933.5 -21077.8 -20230.2 -19390.2 -18557.7 -17732.1 -16913.4 -16101 -15294.8 -14494.4 -13699.6 -12910 -12125.2 -11345.2 -10569.4 -9797.67 -9029.68 -8265.14 -7503.76 -6745.24 -5989.29 -5235.64 -4483.98 -3734.04 -2985.52 -2238.14 -1491.62 -745.667 0 -200000 -197607 -195167 -192676 -190135 -187549 -184920 -182256 -179560 -176839 -174098 -171344 -168582 -165817 -163054 -160297 -157551 -154819 -152104 -149409 -146737 -144090 -141470 -138877 -136314 -133782 -131280 -128811 -126375 -123972 -121602 -119265 -116963 -114694 -112459 -110257 -108089 -105954 -103853 -101784 -99747.2 -97742.9 -95770.3 -93829.2 -91919.2 -90039.7 -88190.6 -86371.2 -84581.2 -82820.2 -81087.7 -79383.2 -77706.3 -76056.6 -74433.6 -72836.7 -71265.7 -69719.9 -68199 -66702.4 -65229.8 -63780.7 -62354.5 -60950.9 -59569.5 -58209.7 -56871.1 -55553.3 -54255.8 -52978.3 -51720.2 -50481.2 -49260.8 -48058.6 -46874.2 -45707.2 -44557.2 -43423.8 -42306.5 -41205 -40118.9 -39047.8 -37991.3 -36949.1 -35920.7 -34905.8 -33904 -32915 -31938.4 -30973.8 -30020.9 -29079.3 -28148.7 -27228.7 -26319.1 -25419.4 -24529.4 -23648.6 -22776.8 -21913.6 -21058.8 -20211.9 -19372.8 -18541 -17716.2 -16898.2 -16086.6 -15281.2 -14481.5 -13687.4 -12898.5 -12114.5 -11335.1 -10560 -9789 -9021.7 -8257.84 -7497.13 -6739.29 -5984.01 -5231.02 -4480.03 -3730.75 -2982.89 -2236.17 -1490.31 -745.011 0 -200000 -197601 -195153 -192654 -190106 -187511 -184876 -182204 -179502 -176774 -174028 -171268 -168501 -165731 -162964 -160203 -157454 -154718 -152001 -149304 -146631 -143982 -141360 -138767 -136203 -133671 -131169 -128700 -126264 -123862 -121492 -119157 -116855 -114587 -112353 -110153 -107986 -105853 -103753 -101685 -99650.2 -97647.4 -95676.5 -93737 -91828.5 -89950.8 -88103.3 -86285.6 -84497.3 -82738 -81007.1 -79304.3 -77629.1 -75981 -74359.6 -72764.4 -71194.9 -69650.7 -68131.4 -66636.4 -65165.3 -63717.7 -62293.1 -60891 -59510.9 -58152.6 -56815.4 -55499 -54202.9 -52926.7 -51670 -50432.3 -49213.2 -48012.2 -46829.1 -45663.3 -44514.5 -43382.3 -42266.2 -41165.8 -40080.8 -39010.8 -37955.4 -36914.3 -35886.9 -34873.1 -33872.3 -32884.3 -31908.6 -30945 -29993 -29052.4 -28122.7 -27203.7 -26294.9 -25396.1 -24506.9 -23627 -22756 -21893.7 -21039.7 -20193.6 -19355.3 -18524.2 -17700.2 -16883 -16072.2 -15267.4 -14468.5 -13675.1 -12886.9 -12103.7 -11325 -10550.6 -9780.29 -9013.68 -8250.51 -7490.48 -6733.31 -5978.71 -5226.39 -4476.06 -3727.45 -2980.25 -2234.19 -1488.99 -744.353 0 -200000 -197594 -195138 -192631 -190076 -187474 -184832 -182153 -179444 -176710 -173957 -171192 -168419 -165645 -162873 -160109 -157356 -154618 -151898 -149199 -146523 -143873 -141250 -138656 -136092 -133559 -131058 -128589 -126153 -123751 -121383 -119048 -116747 -114480 -112248 -110049 -107883 -105751 -103652 -101586 -99552.8 -97551.6 -95582.3 -93644.4 -91737.7 -89861.6 -88015.7 -86199.7 -84413.1 -82655.4 -80926.3 -79225.1 -77551.6 -75905.1 -74285.4 -72691.8 -71123.9 -69581.4 -68063.6 -66570.2 -65100.6 -63654.5 -62231.4 -60830.8 -59452.2 -58095.3 -56759.6 -55444.6 -54149.8 -52875 -51619.6 -50383.2 -49165.4 -47965.7 -46783.9 -45619.3 -44471.7 -43340.6 -42225.7 -41126.5 -40042.6 -38973.7 -37919.4 -36879.3 -35853 -34840.2 -33840.5 -32853.4 -31878.8 -30916.1 -29965.1 -29025.4 -28096.7 -27178.5 -26270.7 -25372.7 -24484.4 -23605.3 -22735.2 -21873.7 -21020.5 -20175.2 -19337.7 -18507.4 -17684.2 -16867.7 -16057.7 -15253.7 -14455.5 -13662.8 -12875.4 -12092.8 -11314.8 -10541.2 -9771.54 -9005.63 -8243.14 -7483.8 -6727.31 -5973.39 -5221.74 -4472.08 -3724.13 -2977.6 -2232.21 -1487.67 -743.692 0 -200000 -197587 -195123 -192609 -190046 -187437 -184787 -182101 -179385 -176645 -173886 -171115 -168337 -165558 -162782 -160014 -157257 -154516 -151794 -149093 -146416 -143764 -141140 -138545 -135981 -133447 -130946 -128477 -126042 -123640 -121272 -118939 -116639 -114373 -112141 -109944 -107780 -105649 -103552 -101487 -99455.2 -97455.6 -95487.9 -93551.6 -91646.5 -89772.1 -87927.9 -86113.6 -84328.7 -82572.7 -80845.2 -79145.7 -77473.8 -75829.1 -74210.9 -72619 -71052.8 -69511.8 -67995.6 -66503.7 -65035.8 -63591.2 -62169.5 -60770.4 -59393.3 -58037.9 -56703.5 -55389.9 -54096.6 -52823.1 -51569 -50334 -49117.4 -47919.1 -46738.4 -45575.1 -44428.7 -43298.8 -42185.1 -41087 -40004.3 -38936.5 -37883.3 -36844.3 -35819.1 -34807.3 -33808.5 -32822.5 -31848.8 -30887.1 -29937.1 -28998.3 -28070.5 -27153.3 -26246.3 -25349.2 -24461.8 -23583.6 -22714.3 -21853.6 -21001.2 -20156.8 -19320 -18490.6 -17668.1 -16852.4 -16043.1 -15239.9 -14442.4 -13650.5 -12863.8 -12081.9 -11304.7 -10531.7 -9762.77 -8997.55 -8235.75 -7477.1 -6721.29 -5968.04 -5217.07 -4468.09 -3720.81 -2974.94 -2230.22 -1486.34 -743.028 0 -200000 -197580 -195109 -192587 -190016 -187399 -184742 -182049 -179326 -176579 -173815 -171038 -168255 -165471 -162691 -159919 -157159 -154415 -151690 -148987 -146307 -143655 -141029 -138434 -135869 -133335 -130834 -128365 -125930 -123529 -121162 -118829 -116530 -114265 -112035 -109838 -107676 -105546 -103451 -101388 -99357.3 -97359.2 -95393.1 -93458.5 -91555.1 -89682.3 -87839.9 -86027.2 -84244 -82489.7 -80763.9 -79066.1 -77395.9 -75752.8 -74136.3 -72546 -70981.4 -69442 -67927.4 -66437.1 -64970.7 -63527.6 -62107.5 -60709.9 -59334.3 -57980.2 -56647.3 -55335.1 -54043.2 -52771.1 -51518.3 -50284.6 -49069.4 -47872.3 -46692.9 -45530.8 -44385.6 -43256.9 -42144.3 -41047.4 -39965.9 -38899.2 -37847.1 -36809.1 -35784.9 -34774.2 -33776.5 -32791.5 -31818.8 -30858.1 -29909 -28971.2 -28044.3 -27127.9 -26221.9 -25325.7 -24439.1 -23561.7 -22693.3 -21833.5 -20981.9 -20138.3 -19302.3 -18473.6 -17652 -16837 -16028.5 -15226 -14429.3 -13638.1 -12852.1 -12071 -11294.4 -10522.2 -9753.96 -8989.44 -8228.33 -7470.37 -6715.24 -5962.68 -5212.38 -4464.08 -3717.47 -2972.28 -2228.22 -1485.01 -742.362 0 -200000 -197573 -195094 -192564 -189986 -187362 -184697 -181997 -179267 -176514 -173743 -170961 -168172 -165383 -162599 -159823 -157060 -154313 -151585 -148880 -146199 -143544 -140918 -138322 -135756 -133222 -130721 -128253 -125818 -123417 -121051 -118719 -116421 -114157 -111928 -109733 -107572 -105444 -103349 -101288 -99259 -97262.6 -95298.1 -93365.2 -91463.4 -89592.3 -87751.5 -85940.6 -84159 -82406.4 -80682.3 -78986.2 -77317.7 -75676.2 -74061.4 -72472.7 -70909.8 -69372 -67859 -66370.3 -64905.4 -63463.9 -62045.3 -60649.1 -59275 -57922.4 -56591 -55280.2 -53989.6 -52718.9 -51467.5 -50235 -49021.1 -47825.3 -46647.2 -45486.3 -44342.4 -43214.9 -42103.5 -41007.7 -39927.3 -38861.7 -37810.7 -36773.8 -35750.7 -34741 -33744.3 -32760.3 -31788.6 -30828.9 -29880.8 -28943.9 -28017.9 -27102.5 -26197.3 -25302 -24416.3 -23539.8 -22672.2 -21813.2 -20962.5 -20119.7 -19284.5 -18456.6 -17635.8 -16821.6 -16013.8 -15212.1 -14416.1 -13625.7 -12840.4 -12060 -11284.2 -10512.6 -9745.12 -8981.29 -8220.89 -7463.61 -6709.18 -5957.29 -5207.68 -4460.05 -3714.12 -2969.6 -2226.21 -1483.67 -741.693 0 -200000 -197565 -195079 -192542 -189955 -187324 -184652 -181944 -179208 -176448 -173671 -170883 -168089 -165295 -162506 -159727 -156960 -154210 -151480 -148772 -146090 -143434 -140807 -138209 -135643 -133109 -130608 -128140 -125706 -123305 -120940 -118608 -116312 -114049 -111821 -109627 -107467 -105341 -103248 -101188 -99160.5 -97165.7 -95202.8 -93271.5 -91371.4 -89502 -87662.9 -85853.7 -84073.8 -82322.9 -80600.5 -78906.1 -77239.3 -75599.5 -73986.3 -72399.3 -70837.9 -69301.8 -67790.4 -66303.2 -64839.9 -63399.9 -61982.9 -60588.2 -59215.6 -57864.4 -56534.4 -55225 -53935.9 -52666.5 -51416.4 -50185.3 -48972.7 -47778.2 -46601.3 -45441.7 -44299 -43172.7 -42062.5 -40967.9 -39888.6 -38824.1 -37774.2 -36738.4 -35716.4 -34707.7 -33712.1 -32729.1 -31758.4 -30799.6 -29852.4 -28916.5 -27991.5 -27077 -26172.7 -25278.3 -24393.5 -23517.8 -22651.1 -21792.9 -20943 -20101 -19266.7 -18439.6 -17619.5 -16806.1 -15999.1 -15198.1 -14402.9 -13613.2 -12828.6 -12049 -11273.9 -10503.1 -9736.24 -8973.12 -8213.41 -7456.83 -6703.08 -5951.89 -5202.96 -4456.01 -3710.75 -2966.91 -2224.19 -1482.32 -741.021 0 -200000 -197558 -195064 -192519 -189925 -187286 -184606 -181891 -179148 -176382 -173598 -170805 -168006 -165207 -162414 -159630 -156860 -154107 -151374 -148665 -145980 -143323 -140695 -138097 -135530 -132996 -130494 -128026 -125593 -123193 -120828 -118498 -116202 -113940 -111714 -109521 -107362 -105237 -103146 -101087 -99061.7 -97068.5 -95107.2 -93177.6 -91279.2 -89411.5 -87574.1 -85766.5 -83988.4 -82239.2 -80518.5 -78825.8 -77160.6 -75522.5 -73911 -72325.6 -70765.9 -69231.4 -67721.6 -66236 -64774.2 -63335.8 -61920.2 -60527.1 -59155.9 -57806.3 -56477.7 -55169.7 -53881.9 -52613.9 -51365.3 -50135.5 -48924.2 -47730.9 -46555.3 -45397 -44255.5 -43130.4 -42021.3 -40927.9 -39849.7 -38786.4 -37737.6 -36702.9 -35681.9 -34674.3 -33679.7 -32697.7 -31728 -30770.2 -29824 -28889 -27964.9 -27051.4 -26148 -25254.5 -24370.5 -23495.8 -22629.9 -21772.6 -20923.5 -20082.3 -19248.7 -18422.5 -17603.2 -16790.5 -15984.3 -15184.1 -14389.6 -13600.7 -12816.9 -12037.9 -11263.5 -10493.4 -9727.33 -8964.92 -8205.91 -7450.02 -6696.97 -5946.46 -5198.22 -4451.95 -3707.37 -2964.21 -2222.17 -1480.98 -740.347 0 -200000 -197551 -195049 -192496 -189894 -187247 -184560 -181838 -179088 -176315 -173525 -170726 -167922 -165118 -162320 -159533 -156759 -154003 -151268 -148556 -145870 -143212 -140582 -137983 -135416 -132882 -130380 -127913 -125479 -123080 -120716 -118387 -116092 -113831 -111606 -109414 -107257 -105133 -103043 -100987 -98962.6 -96971 -95011.4 -93083.4 -91186.7 -89320.7 -87485 -85679.1 -83902.7 -82155.2 -80436.2 -78745.2 -77081.7 -75445.3 -73835.4 -72251.7 -70693.6 -69160.7 -67652.5 -66168.6 -64708.4 -63271.5 -61857.4 -60465.8 -59096.1 -57747.9 -56420.8 -55114.2 -53827.9 -52561.2 -51313.9 -50085.5 -48875.5 -47683.5 -46509.2 -45352.1 -44211.8 -43087.9 -41980 -40887.8 -39810.7 -38748.6 -37700.9 -36667.2 -35647.3 -34640.8 -33647.2 -32666.2 -31697.5 -30740.7 -29795.5 -28861.5 -27938.3 -27025.7 -26123.2 -25230.6 -24347.5 -23473.6 -22608.6 -21752.1 -20903.9 -20063.5 -19230.8 -18405.3 -17586.8 -16774.9 -15969.4 -15170 -14376.3 -13588.1 -12805 -12026.8 -11253.2 -10483.8 -9718.39 -8956.68 -8198.38 -7443.19 -6690.83 -5941.02 -5193.46 -4447.87 -3703.98 -2961.5 -2220.14 -1479.62 -739.671 0 -200000 -197544 -195034 -192473 -189864 -187209 -184514 -181785 -179028 -176248 -173452 -170647 -167837 -165029 -162227 -159435 -156658 -153899 -151161 -148448 -145760 -143100 -140469 -137870 -135302 -132767 -130266 -127798 -125366 -122967 -120604 -118275 -115981 -113722 -111498 -109307 -107152 -105029 -102941 -100886 -98863.2 -96873.2 -94915.2 -92989 -91093.9 -89229.6 -87395.6 -85591.5 -83816.8 -82071 -80353.7 -78664.4 -77002.6 -75367.8 -73759.7 -72177.6 -70621.2 -69089.9 -67583.3 -66100.9 -64642.3 -63207 -61794.5 -60404.3 -59036.1 -57689.4 -56363.7 -55058.6 -53773.6 -52508.4 -51262.4 -50035.3 -48826.6 -47635.9 -46462.9 -45307 -44168 -43045.3 -41938.6 -40847.5 -39771.6 -38710.6 -37664 -36631.5 -35612.6 -34607.1 -33614.6 -32634.7 -31667 -30711.2 -29766.9 -28833.8 -27911.6 -26999.9 -26098.3 -25206.6 -24324.4 -23451.4 -22587.2 -21731.6 -20884.2 -20044.7 -19212.7 -18388 -17570.3 -16759.3 -15954.6 -15155.9 -14363 -13575.5 -12793.1 -12015.7 -11242.7 -10474.1 -9709.41 -8948.42 -8190.82 -7436.33 -6684.67 -5935.55 -5188.68 -4443.79 -3700.58 -2958.78 -2218.1 -1478.26 -738.992 0 -200000 -197536 -195019 -192450 -189833 -187170 -184468 -181731 -178967 -176180 -173379 -170567 -167752 -164939 -162132 -159337 -156556 -153795 -151054 -148338 -145649 -142987 -140356 -137756 -135187 -132652 -130151 -127684 -125251 -122854 -120491 -118163 -115870 -113612 -111389 -109200 -107046 -104925 -102838 -100784 -98763.4 -96775.1 -94818.8 -92894.2 -91000.8 -89138.2 -87305.9 -85503.6 -83730.6 -81986.5 -80270.9 -78583.3 -76923.2 -75290.2 -73683.7 -72103.3 -70548.5 -69018.8 -67513.8 -66033.1 -64576 -63142.2 -61731.3 -60342.7 -58975.9 -57630.7 -56306.4 -55002.7 -53719.2 -52455.3 -51210.7 -49984.9 -48777.6 -47588.2 -46416.4 -45261.8 -44124 -43002.5 -41897.1 -40807.1 -39732.4 -38672.5 -37627 -36595.6 -35577.8 -34573.4 -33581.9 -32603 -31636.3 -30681.5 -29738.2 -28806.1 -27884.8 -26974 -26073.4 -25182.6 -24301.3 -23429.1 -22565.8 -21711 -20864.4 -20025.7 -19194.6 -18370.7 -17553.8 -16743.5 -15939.6 -15141.7 -14349.5 -13562.8 -12781.2 -12004.5 -11232.3 -10464.4 -9700.4 -8940.12 -8183.23 -7429.45 -6678.49 -5930.06 -5183.89 -4439.68 -3697.16 -2956.05 -2216.05 -1476.9 -738.31 0 -200000 -197529 -195004 -192427 -189802 -187132 -184422 -181678 -178906 -176113 -173304 -170487 -167667 -164849 -162038 -159238 -156454 -153690 -150947 -148229 -145537 -142875 -140242 -137641 -135072 -132537 -130036 -127569 -125137 -122740 -120378 -118051 -115759 -113502 -111280 -109093 -106940 -104820 -102735 -100683 -98663.4 -96676.7 -94722.1 -92799.2 -90907.5 -89046.6 -87216 -85415.4 -83644.1 -81901.8 -80187.9 -78502 -76843.6 -75212.3 -73607.5 -72028.7 -70475.6 -68947.6 -67444.2 -65965 -64509.5 -63077.3 -61667.9 -60280.8 -58915.6 -57571.8 -56249 -54946.8 -53664.6 -52402.1 -51158.9 -49934.4 -48728.4 -47540.3 -46369.9 -45216.5 -44079.9 -42959.7 -41855.4 -40766.6 -39693.1 -38634.3 -37589.9 -36559.6 -35542.9 -34539.5 -33549.1 -32571.2 -31605.5 -30651.7 -29709.4 -28778.2 -27857.9 -26948 -26048.3 -25158.4 -24278 -23406.7 -22544.3 -21690.4 -20844.6 -20006.7 -19176.4 -18353.4 -17537.3 -16727.8 -15924.6 -15127.5 -14336.1 -13550.1 -12769.3 -11993.3 -11221.8 -10454.6 -9691.36 -8931.79 -8175.62 -7422.54 -6672.28 -5924.56 -5179.08 -4435.56 -3693.73 -2953.31 -2214 -1475.53 -737.626 0 -200000 -197521 -194989 -192404 -189771 -187093 -184375 -181623 -178844 -176045 -173230 -170407 -167581 -164758 -161942 -159139 -156352 -153584 -150839 -148118 -145425 -142761 -140128 -137526 -134957 -132421 -129920 -127454 -125022 -122625 -120264 -117938 -115648 -113392 -111171 -108985 -106833 -104715 -102631 -100581 -98563.1 -96578 -94625.1 -92703.9 -90813.9 -88954.7 -87125.9 -85326.9 -83557.4 -81816.8 -80104.7 -78420.5 -76763.8 -75134.1 -73531 -71954 -70402.5 -68876.1 -67374.3 -65896.8 -64442.9 -63012.2 -61604.3 -60218.8 -58855.1 -57512.7 -56191.4 -54890.6 -53609.8 -52348.8 -51106.9 -49883.8 -48679.1 -47492.3 -46323.1 -45171 -44035.7 -42916.6 -41813.5 -40726 -39653.6 -38595.9 -37552.7 -36523.5 -35507.9 -34505.5 -33516.1 -32539.3 -31574.6 -30621.8 -29680.5 -28750.3 -27830.9 -26922 -26023.2 -25134.2 -24254.7 -23384.3 -22522.7 -21669.6 -20824.7 -19987.7 -19158.2 -18335.9 -17520.6 -16711.9 -15909.6 -15113.2 -14322.6 -13537.3 -12757.2 -11982 -11211.3 -10444.8 -9682.28 -8923.44 -8167.97 -7415.61 -6666.05 -5919.03 -5174.25 -4431.43 -3690.29 -2950.56 -2211.94 -1474.16 -736.94 0 -200000 -197514 -194973 -192381 -189739 -187053 -184328 -181569 -178783 -175976 -173155 -170326 -167495 -164667 -161847 -159039 -156249 -153478 -150730 -148008 -145313 -142647 -140013 -137410 -134841 -132305 -129804 -127338 -124907 -122511 -120150 -117825 -115536 -113281 -111062 -108877 -106726 -104610 -102528 -100479 -98462.5 -96479.1 -94527.8 -92608.3 -90720 -88862.6 -87035.5 -85238.3 -83470.5 -81731.6 -80021.2 -78338.7 -76683.8 -75055.8 -73454.4 -71879 -70329.2 -68804.4 -67304.3 -65828.3 -64376 -62946.9 -61540.6 -60156.5 -58794.3 -57453.5 -56133.6 -54834.2 -53554.9 -52295.2 -51054.7 -49833 -48629.6 -47444.2 -46276.2 -45125.4 -43991.3 -42873.5 -41771.6 -40685.2 -39614 -38557.5 -37515.4 -36487.2 -35472.7 -34471.5 -33483.1 -32507.3 -31543.6 -30591.8 -29651.4 -28722.2 -27803.8 -26895.8 -25998 -25109.9 -24231.2 -23361.7 -22501 -21648.8 -20804.8 -19968.6 -19139.9 -18318.5 -17503.9 -16696 -15894.4 -15098.9 -14309 -13524.5 -12745.2 -11970.7 -11200.7 -10435 -9673.17 -8915.05 -8160.3 -7408.65 -6659.8 -5913.48 -5169.4 -4427.28 -3686.84 -2947.79 -2209.87 -1472.78 -736.25 0 -200000 -197506 -194958 -192357 -189708 -187014 -184281 -181514 -178721 -175907 -173080 -170245 -167408 -164575 -161750 -158939 -156145 -153371 -150621 -147897 -145200 -142533 -139898 -137294 -134725 -132189 -129688 -127222 -124791 -122396 -120036 -117712 -115423 -113170 -110952 -108768 -106619 -104504 -102424 -100376 -98361.6 -96379.8 -94430.2 -92512.4 -90625.9 -88770.1 -86944.8 -85149.3 -83383.3 -81646.1 -79937.4 -78256.7 -76603.5 -74977.2 -73377.5 -71803.8 -70255.6 -68732.5 -67234 -65759.7 -64309 -62881.4 -61476.6 -60094.1 -58733.4 -57394.1 -56075.7 -54777.7 -53499.8 -52241.5 -51002.4 -49782 -48580 -47395.8 -46229.2 -45079.6 -43946.8 -42830.2 -41729.5 -40644.3 -39574.2 -38518.9 -37477.9 -36450.9 -35437.4 -34437.3 -33450 -32475.2 -31512.5 -30561.7 -29622.3 -28694.1 -27776.6 -26869.6 -25972.6 -25085.5 -24207.7 -23339.1 -22479.3 -21627.9 -20784.7 -19949.4 -19121.5 -18300.9 -17487.2 -16680.1 -15879.3 -15084.5 -14295.4 -13511.7 -12733.1 -11959.3 -11190.1 -10425.1 -9664.03 -8906.63 -8152.6 -7401.66 -6653.53 -5907.91 -5164.54 -4423.12 -3683.37 -2945.02 -2207.79 -1471.4 -735.559 0 -200000 -197499 -194942 -192334 -189676 -186974 -184233 -181459 -178658 -175838 -173004 -170163 -167320 -164482 -161654 -158839 -156041 -153264 -150511 -147785 -145087 -142418 -139782 -137178 -134608 -132072 -129571 -127105 -124675 -122280 -119921 -117598 -115311 -113058 -110841 -108659 -106512 -104398 -102319 -100273 -98260.4 -96280.3 -94332.4 -92416.3 -90531.4 -88677.5 -86853.8 -85060.1 -83295.8 -81560.4 -79853.5 -78174.5 -76523 -74898.4 -73300.4 -71728.4 -70181.9 -68660.4 -67163.6 -65690.8 -64241.7 -62815.8 -61412.5 -60031.5 -58672.3 -57334.5 -56017.5 -54721.1 -53444.6 -52187.7 -50949.9 -49730.9 -48530.2 -47347.4 -46182 -45033.7 -43902.1 -42786.8 -41687.3 -40603.3 -39534.4 -38480.2 -37440.3 -36414.4 -35402.1 -34402.9 -33416.7 -32442.9 -31481.3 -30531.5 -29593.1 -28665.9 -27749.4 -26843.3 -25947.2 -25061 -24184.2 -23316.4 -22457.5 -21607 -20764.6 -19930.1 -19103.1 -18283.3 -17470.4 -16664.1 -15864.1 -15070 -14281.7 -13498.8 -12721 -11947.9 -11179.5 -10415.2 -9654.86 -8898.18 -8144.88 -7394.65 -6647.23 -5902.32 -5159.65 -4418.94 -3679.89 -2942.24 -2205.71 -1470.01 -734.865 0 -200000 -197491 -194927 -192310 -189644 -186934 -184185 -181403 -178595 -175768 -172927 -170080 -167233 -164390 -161557 -158737 -155936 -153157 -150401 -147673 -144973 -142303 -139666 -137061 -134490 -131954 -129453 -126988 -124558 -122164 -119806 -117484 -115198 -112947 -110731 -108550 -106404 -104292 -102214 -100170 -98158.9 -96180.5 -94234.3 -92319.8 -90436.7 -88584.5 -86762.6 -84970.7 -83208.1 -81474.5 -79769.3 -78092 -76442.2 -74819.4 -73223.1 -71652.7 -70107.9 -68588.1 -67092.9 -65621.8 -64174.2 -62749.9 -61348.2 -59968.8 -58611.1 -57274.7 -55959.2 -54664.2 -53389.1 -52133.7 -50897.3 -49679.6 -48480.3 -47298.7 -46134.7 -44987.7 -43857.3 -42743.2 -41644.9 -40562.1 -39494.4 -38441.3 -37402.6 -36377.8 -35366.6 -34368.5 -33383.3 -32410.6 -31450 -30501.2 -29563.8 -28637.5 -27722 -26816.8 -25921.8 -25036.4 -24160.5 -23293.7 -22435.6 -21585.9 -20744.5 -19910.8 -19084.6 -18265.6 -17453.5 -16648 -15848.8 -15055.6 -14268 -13485.8 -12708.8 -11936.5 -11168.8 -10405.2 -9645.65 -8889.7 -8137.12 -7387.62 -6640.91 -5896.72 -5154.75 -4414.74 -3676.4 -2939.45 -2203.62 -1468.61 -734.168 0 -200000 -197483 -194911 -192286 -189612 -186894 -184137 -181348 -178532 -175698 -172851 -169998 -167144 -164296 -161459 -158636 -155831 -153049 -150291 -147560 -144858 -142188 -139549 -136944 -134373 -131836 -129336 -126871 -124441 -122048 -119691 -117370 -115084 -112834 -110620 -108441 -106296 -104186 -102109 -100067 -98057.1 -96080.4 -94135.8 -92223.1 -90341.8 -88491.3 -86671.2 -84881 -83120.2 -81388.3 -79684.8 -78009.3 -76361.3 -74740.2 -73145.5 -71576.9 -70033.7 -68515.6 -67022 -65552.5 -64106.6 -62683.8 -61283.7 -59905.8 -58549.6 -57214.8 -55900.8 -54607.2 -53333.6 -52079.5 -50844.5 -49628.2 -48430.2 -47250 -46087.2 -44941.5 -43812.4 -42699.5 -41602.4 -40520.8 -39454.3 -38402.4 -37364.8 -36341.1 -35330.9 -34334 -33349.9 -32378.2 -31418.6 -30470.8 -29534.4 -28609.1 -27694.5 -26790.3 -25896.2 -25011.8 -24136.7 -23270.8 -22413.6 -21564.9 -20724.2 -19891.4 -19066 -18247.9 -17436.6 -16631.9 -15833.5 -15041 -14254.3 -13472.9 -12696.6 -11925.1 -11158.1 -10395.3 -9636.41 -8881.2 -8129.34 -7380.56 -6634.57 -5891.09 -5149.84 -4410.53 -3672.9 -2936.65 -2201.52 -1467.21 -733.469 0 -200000 -197475 -194895 -192262 -189580 -186854 -184089 -181292 -178469 -175627 -172774 -169914 -167056 -164203 -161360 -158533 -155726 -152940 -150180 -147447 -144743 -142071 -139432 -136826 -134254 -131718 -129217 -126753 -124324 -121931 -119575 -117255 -114970 -112722 -110509 -108331 -106187 -104079 -102004 -99962.9 -97955.1 -95979.9 -94037.1 -92126.2 -90246.5 -88397.8 -86579.5 -84791 -83032 -81301.8 -79600.2 -77926.4 -76280.1 -74660.7 -73067.8 -71500.8 -69959.3 -68442.9 -66951 -65483.1 -64038.8 -62617.6 -61219 -59842.6 -58488 -57154.7 -55842.1 -54550 -53277.8 -52025.1 -50791.5 -49576.6 -48379.9 -47201.1 -46039.6 -44895.2 -43767.3 -42655.7 -41559.8 -40479.4 -39414 -38363.3 -37326.8 -36304.2 -35295.2 -34299.3 -33316.3 -32345.7 -31387.1 -30440.3 -29505 -28580.6 -27667 -26763.7 -25870.5 -24987 -24112.9 -23247.9 -22391.6 -21543.7 -20703.9 -19871.9 -19047.4 -18230.1 -17419.6 -16615.7 -15818.1 -15026.4 -14240.4 -13459.8 -12684.3 -11913.5 -11147.3 -10385.3 -9627.14 -8872.66 -8121.53 -7373.47 -6628.2 -5885.44 -5144.9 -4406.31 -3669.38 -2933.84 -2199.41 -1465.81 -732.767 0 -200000 -197468 -194879 -192238 -189548 -186813 -184040 -181235 -178405 -175556 -172696 -169831 -166966 -164108 -161262 -158431 -155619 -152831 -150068 -147333 -144628 -141955 -139314 -136708 -134136 -131599 -129099 -126634 -124206 -121814 -119459 -117140 -114856 -112609 -110397 -108220 -106079 -103971 -101898 -99858.9 -97852.7 -95879.2 -93938.1 -92028.9 -90151 -88304.1 -86487.5 -84700.8 -82943.5 -81215.2 -79515.2 -77843.2 -76198.6 -74581 -72989.8 -71424.5 -69884.8 -68370 -66879.7 -65413.4 -63970.7 -62551.1 -61154.1 -59779.3 -58426.2 -57094.4 -55783.3 -54492.6 -53221.9 -51970.6 -50738.4 -49524.9 -48329.5 -47152 -45991.8 -44848.7 -43722.1 -42611.7 -41517.1 -40437.8 -39373.6 -38324.1 -37288.7 -36267.3 -35259.4 -34264.6 -33282.6 -32313 -31355.5 -30409.8 -29475.4 -28552 -27639.4 -26737.1 -25844.8 -24962.2 -24089 -23224.9 -22369.5 -21522.4 -20683.5 -19852.4 -19028.7 -18212.2 -17402.6 -16599.5 -15802.7 -15011.8 -14226.6 -13446.8 -12672 -11902 -11136.5 -10375.2 -9617.83 -8864.09 -8113.69 -7366.36 -6621.82 -5879.77 -5139.95 -4402.07 -3665.85 -2931.02 -2197.3 -1464.4 -732.063 0 -200000 -197460 -194863 -192214 -189515 -186772 -183991 -181178 -178340 -175485 -172618 -169746 -166876 -164013 -161162 -158327 -155513 -152721 -149956 -147219 -144512 -141837 -139196 -136589 -134017 -131480 -128980 -126516 -124088 -121697 -119342 -117024 -114742 -112496 -110285 -108110 -105970 -103864 -101792 -99754.5 -97750 -95778.3 -93838.9 -91931.4 -90055.3 -88210 -86395.2 -84610.3 -82854.8 -81128.2 -79430.1 -77759.8 -76117 -74501.1 -72911.6 -71348 -69809.9 -68296.8 -66808.2 -65343.6 -63902.5 -62484.5 -61089.1 -59715.8 -58364.2 -57033.9 -55724.3 -54435.1 -53165.8 -51916 -50685.2 -49473 -48279 -47102.8 -45943.9 -44802.1 -43676.7 -42567.6 -41474.2 -40396.2 -39333.1 -38284.7 -37250.5 -36230.2 -35223.4 -34229.7 -33248.8 -32280.3 -31323.8 -30379.1 -29445.7 -28523.3 -27611.6 -26710.3 -25819 -24937.3 -24065 -23201.8 -22347.3 -21501.1 -20663.1 -19832.8 -19010 -18194.3 -17385.5 -16583.2 -15787.2 -14997.1 -14212.7 -13433.6 -12659.6 -11890.4 -11125.7 -10365.1 -9608.49 -8855.49 -8105.83 -7359.23 -6615.41 -5874.08 -5134.98 -4397.81 -3662.31 -2928.19 -2195.17 -1462.99 -731.356 0 -200000 -197452 -194847 -192189 -189482 -186731 -183942 -181121 -178276 -175413 -172539 -169662 -166786 -163918 -161062 -158223 -155405 -152611 -149843 -147104 -144396 -141720 -139077 -136470 -133897 -131361 -128860 -126396 -123969 -121579 -119225 -116908 -114627 -112382 -110173 -107999 -105860 -103756 -101686 -99649.9 -97647 -95677 -93739.3 -91833.6 -89959.2 -88115.8 -86302.7 -84519.6 -82765.9 -81041.1 -79344.7 -77676.2 -76035.1 -74420.9 -72833.2 -71271.3 -69734.9 -68223.5 -66736.5 -65273.5 -63834.1 -62417.6 -61023.8 -59652.1 -58302.1 -56973.2 -55665.2 -54377.4 -53109.5 -51861.1 -50631.7 -49420.9 -48228.3 -47053.4 -45895.9 -44755.3 -43631.2 -42523.3 -41431.2 -40354.4 -39292.5 -38245.3 -37212.2 -36193 -35187.3 -34194.7 -33214.9 -32247.4 -31292 -30348.3 -29415.9 -28494.5 -27583.8 -26683.4 -25793.1 -24912.3 -24041 -23178.6 -22325 -21479.7 -20642.6 -19813.1 -18991.2 -18176.3 -17368.3 -16566.9 -15771.7 -14982.4 -14198.7 -13420.5 -12647.2 -11878.8 -11114.8 -10355 -9599.12 -8846.86 -8097.93 -7352.07 -6608.97 -5868.37 -5129.99 -4393.54 -3658.75 -2925.35 -2193.04 -1461.57 -730.647 0 -200000 -197444 -194831 -192165 -189449 -186690 -183892 -181063 -178210 -175340 -172460 -169576 -166695 -163822 -160962 -158119 -155297 -152500 -149730 -146989 -144279 -141601 -138958 -136350 -133777 -131240 -128740 -126277 -123850 -121461 -119108 -116792 -114512 -112268 -110060 -107888 -105750 -103648 -101579 -99544.9 -97543.7 -95575.4 -93639.5 -91735.5 -89862.9 -88021.2 -86210 -84428.6 -82676.7 -80953.7 -79259 -77592.3 -75953 -74340.5 -72754.5 -71194.4 -69659.7 -68149.9 -66664.6 -65203.3 -63765.4 -62350.6 -60958.4 -59588.2 -58239.7 -56912.4 -55605.8 -54319.5 -53053.1 -51806.1 -50578.1 -49368.7 -48177.4 -47003.9 -45847.7 -44708.4 -43585.6 -42479 -41388 -40312.4 -39251.8 -38205.7 -37173.8 -36155.7 -35151.1 -34159.6 -33180.9 -32214.5 -31260.1 -30317.4 -29386 -28465.6 -27555.9 -26656.5 -25767.1 -24887.3 -24016.8 -23155.4 -22302.7 -21458.3 -20622 -19793.4 -18972.3 -18158.3 -17351.1 -16550.5 -15756.1 -14967.6 -14184.7 -13407.2 -12634.8 -11867.1 -11103.9 -10344.9 -9589.72 -8838.2 -8090.01 -7344.88 -6602.52 -5862.65 -5124.98 -4389.26 -3655.19 -2922.5 -2190.91 -1460.15 -729.935 0 -200000 -197436 -194815 -192140 -189416 -186648 -183842 -181005 -178145 -175267 -172380 -169491 -166604 -163725 -160861 -158014 -155189 -152389 -149616 -146873 -144161 -141483 -138839 -136230 -133657 -131120 -128620 -126157 -123731 -121342 -118990 -116675 -114396 -112154 -109947 -107776 -105640 -103539 -101473 -99439.6 -97440.1 -95473.5 -93539.3 -91637.1 -89766.3 -87926.4 -86116.9 -84337.4 -82587.2 -80866 -79173.1 -77508.2 -75870.6 -74259.9 -72675.6 -71117.2 -69584.3 -68076.2 -66592.5 -65132.8 -63696.6 -62283.4 -60892.7 -59524.2 -58177.2 -56851.4 -55546.3 -54261.5 -52996.5 -51751 -50524.4 -49316.4 -48126.4 -46954.2 -45799.3 -44661.4 -43539.8 -42434.4 -41344.7 -40270.3 -39210.9 -38166 -37135.3 -36118.3 -35114.8 -34124.4 -33146.7 -32181.4 -31228.1 -30286.4 -29356 -28436.7 -27527.9 -26629.5 -25741 -24862.1 -23992.6 -23132.1 -22280.2 -21436.8 -20601.3 -19773.6 -18953.3 -18140.2 -17333.8 -16534 -15740.4 -14952.7 -14170.7 -13394 -12622.3 -11855.4 -11092.9 -10334.7 -9580.28 -8829.51 -8082.07 -7337.67 -6596.04 -5856.9 -5119.96 -4384.96 -3651.61 -2919.63 -2188.76 -1458.72 -729.221 0 -200000 -197428 -194798 -192115 -189383 -186606 -183792 -180947 -178079 -175194 -172300 -169404 -166512 -163628 -160759 -157908 -155080 -152277 -149501 -146756 -144043 -141364 -138718 -136109 -133536 -130999 -128499 -126037 -123611 -121223 -118872 -116558 -114280 -112039 -109834 -107664 -105530 -103430 -101365 -99334.1 -97336.2 -95371.4 -93438.9 -9153