<?xml version="1.0"?> 
<VTKFile type="StructuredGrid" version="0.1"> 
<StructuredGrid WholeExtent="0 127 0 127 0 0"> 
<Piece Extent="0 127 0 127 0 0"> 
<PointData>
<DataArray type="Float32" Name="u" format="ascii" NumberOfComponents="1"> 
-200000 -200000 -200000 -200000 -200000 -200000 -200000 -200000 -200000 -200000 -200000 -200000 -200000 -200000 -200000 -200000 -200000 -200000 -200000 -200000 -200000 -200000 -200000 -200000 -200000 -200000 -200000 -200000 -200000 -200000 -200000 -200000 -200000 -200000 -200000 -200000 -200000 -200000 -200000 -200000 -200000 -200000 -200000 -200000 -200000 -200000 -200000 -200000 -200000 -200000 -200000 -200000 -200000 -200000 -200000 -200000 -200000 -200000 -200000 -200000 -200000 -200000 -200000 -200000 -200000 -200000 -200000 -200000 -200000 -200000 -200000 -200000 -200000 -200000 -200000 -200000 -200000 -200000 -200000 -200000 -200000 -200000 -200000 -200000 -200000 -200000 -200000 -200000 -200000 -200000 -200000 -200000 -200000 -200000 -200000 -200000 -200000 -200000 -200000 -200000 -200000 -200000 -200000 -200000 -200000 -200000 -200000 -200000 -200000 -200000 -200000 -200000 -200000 -200000 -200000 -200000 -200000 -200000 -200000 -200000 -200000 -200000 -200000 -200000 -200000 -200000 -200000 -200000 -199287 -199510 -199607 -199665 -199704 -199734 -199757 -199777 -199793 -199808 -199821 -199832 -199843 -199852 -199861 -199869 -199876 -199883 -199890 -199896 -199902 -199907 -199912 -199917 -199922 -199926 -199930 -199934 -199938 -199942 -199945 -199948 -199952 -199954 -199957 -199960 -199963 -199965 -199967 -199970 -199972 -199974 -199975 -199977 -199979 -199981 -199982 -199983 -199985 -199986 -199987 -199988 -199989 -199990 -199991 -199992 -199993 -199994 -199994 -199995 -199995 -199996 -199996 -199997 -199997 -199998 -199998 -199998 -199998 -199999 -199999 -199999 -199999 -199999 -199999 -200000 -200000 -200000 -200000 -200000 -200000 -200000 -200000 -200000 -200000 -200000 -200000 -200000 -200000 -200000 -200000 -200000 -200000 -200000 -200000 -200000 -200000 -200000 -200000 -200000 -200000 -200000 -200000 -200000 -200000 -200000 -200000 -200000 -200000 -200000 -200000 -200000 -200000 -200000 -200000 -200000 -200000 -200000 -200000 -200000 -200000 -200000 -200000 -200000 -200000 -200000 -200000 -200000 -198815 -199074 -199231 -199335 -199410 -199467 -199513 -199552 -199585 -199614 -199639 -199662 -199683 -199701 -199719 -199735 -199750 -199764 -199777 -199789 -199801 -199812 -199822 -199832 -199841 -199850 -199858 -199866 -199874 -199881 -199888 -199894 -199901 -199907 -199912 -199918 -199923 -199928 -199933 -199937 -199941 -199945 -199949 -199953 -199956 -199959 -199963 -199965 -199968 -199971 -199973 -199976 -199978 -199980 -199982 -199983 -199985 -199986 -199988 -199989 -199990 -199991 -199992 -199993 -199994 -199995 -199995 -199996 -199997 -199997 -199997 -199998 -199998 -199998 -199999 -199999 -199999 -199999 -199999 -200000 -200000 -200000 -200000 -200000 -200000 -200000 -200000 -200000 -200000 -200000 -200000 -200000 -200000 -200000 -200000 -200000 -200000 -200000 -200000 -200000 -200000 -200000 -200000 -200000 -200000 -200000 -200000 -200000 -200000 -200000 -200000 -200000 -200000 -200000 -200000 -200000 -200000 -200000 -200000 -200000 -200000 -200000 -200000 -200000 -200000 -200000 -200000 -200000 -198441 -198697 -198883 -199018 -199121 -199203 -199270 -199326 -199375 -199418 -199455 -199489 -199520 -199549 -199574 -199599 -199621 -199642 -199661 -199680 -199697 -199714 -199729 -199744 -199758 -199771 -199784 -199796 -199807 -199818 -199828 -199838 -199848 -199857 -199865 -199873 -199881 -199889 -199896 -199903 -199909 -199915 -199921 -199927 -199932 -199937 -199941 -199946 -199950 -199954 -199958 -199961 -199965 -199968 -199971 -199973 -199976 -199978 -199980 -199982 -199984 -199986 -199987 -199989 -199990 -199991 -199992 -199993 -199994 -199995 -199996 -199996 -199997 -199997 -199998 -199998 -199998 -199999 -199999 -199999 -199999 -199999 -200000 -200000 -200000 -200000 -200000 -200000 -200000 -200000 -200000 -200000 -200000 -200000 -200000 -200000 -200000 -200000 -200000 -200000 -200000 -200000 -200000 -200000 -200000 -200000 -200000 -200000 -200000 -200000 -200000 -200000 -200000 -200000 -200000 -200000 -200000 -200000 -200000 -200000 -200000 -200000 -200000 -200000 -200000 -200000 -200000 -200000 -198119 -198366 -198563 -198718 -198843 -198944 -199029 -199102 -199165 -199221 -199271 -199315 -199356 -199394 -199428 -199460 -199490 -199517 -199543 -199568 -199591 -199613 -199634 -199653 -199672 -199690 -199706 -199722 -199738 -199752 -199766 -199780 -199792 -199804 -199816 -199827 -199837 -199847 -199857 -199866 -199875 -199883 -199891 -199898 -199906 -199912 -199919 -199925 -199931 -199936 -199941 -199946 -199950 -199955 -199959 -199962 -199966 -199969 -199972 -199975 -199977 -199980 -199982 -199984 -199986 -199987 -199989 -199990 -199992 -199993 -199994 -199995 -199995 -199996 -199997 -199997 -199998 -199998 -199998 -199999 -199999 -199999 -199999 -199999 -200000 -200000 -200000 -200000 -200000 -200000 -200000 -200000 -200000 -200000 -200000 -200000 -200000 -200000 -200000 -200000 -200000 -200000 -200000 -200000 -200000 -200000 -200000 -200000 -200000 -200000 -200000 -200000 -200000 -200000 -200000 -200000 -200000 -200000 -200000 -200000 -200000 -200000 -200000 -200000 -200000 -200000 -200000 -200000 -197830 -198067 -198268 -198436 -198575 -198693 -198793 -198880 -198957 -199024 -199085 -199140 -199191 -199237 -199280 -199319 -199356 -199391 -199423 -199454 -199483 -199510 -199536 -199560 -199584 -199606 -199627 -199647 -199666 -199684 -199702 -199719 -199734 -199750 -199764 -199778 -199791 -199804 -199816 -199828 -199839 -199849 -199859 -199869 -199878 -199886 -199894 -199902 -199909 -199916 -199923 -199929 -199935 -199940 -199945 -199950 -199955 -199959 -199963 -199966 -199970 -199973 -199976 -199978 -199981 -199983 -199985 -199987 -199988 -199990 -199991 -199992 -199993 -199994 -199995 -199996 -199997 -199997 -199998 -199998 -199998 -199999 -199999 -199999 -199999 -200000 -200000 -200000 -200000 -200000 -200000 -200000 -200000 -200000 -200000 -200000 -200000 -200000 -200000 -200000 -200000 -200000 -200000 -200000 -200000 -200000 -200000 -200000 -200000 -200000 -200000 -200000 -200000 -200000 -200000 -200000 -200000 -200000 -200000 -200000 -200000 -200000 -200000 -200000 -200000 -200000 -200000 -200000 -197564 -197794 -197995 -198169 -198320 -198449 -198562 -198662 -198750 -198829 -198900 -198965 -199024 -199079 -199130 -199177 -199221 -199262 -199301 -199337 -199372 -199405 -199435 -199465 -199493 -199519 -199545 -199569 -199592 -199614 -199635 -199655 -199674 -199693 -199710 -199727 -199743 -199758 -199773 -199787 -199800 -199813 -199825 -199837 -199848 -199858 -199868 -199878 -199886 -199895 -199903 -199911 -199918 -199924 -199931 -199937 -199942 -199947 -199952 -199957 -199961 -199965 -199968 -199972 -199975 -199978 -199980 -199982 -199985 -199987 -199988 -199990 -199991 -199992 -199994 -199995 -199995 -199996 -199997 -199997 -199998 -199998 -199999 -199999 -199999 -199999 -199999 -200000 -200000 -200000 -200000 -200000 -200000 -200000 -200000 -200000 -200000 -200000 -200000 -200000 -200000 -200000 -200000 -200000 -200000 -200000 -200000 -200000 -200000 -200000 -200000 -200000 -200000 -200000 -200000 -200000 -200000 -200000 -200000 -200000 -200000 -200000 -200000 -200000 -200000 -200000 -200000 -200000 -197318 -197540 -197740 -197918 -198075 -198214 -198338 -198447 -198546 -198635 -198716 -198790 -198858 -198920 -198979 -199033 -199084 -199132 -199177 -199219 -199259 -199297 -199333 -199367 -199400 -199431 -199460 -199489 -199516 -199541 -199566 -199589 -199612 -199633 -199654 -199674 -199693 -199711 -199728 -199744 -199760 -199775 -199789 -199803 -199816 -199828 -199840 -199851 -199862 -199872 -199882 -199891 -199899 -199907 -199915 -199922 -199929 -199935 -199941 -199946 -199951 -199956 -199960 -199964 -199968 -199972 -199975 -199978 -199980 -199983 -199985 -199987 -199989 -199990 -199991 -199993 -199994 -199995 -199996 -199996 -199997 -199998 -199998 -199998 -199999 -199999 -199999 -199999 -200000 -200000 -200000 -200000 -200000 -200000 -200000 -200000 -200000 -200000 -200000 -200000 -200000 -200000 -200000 -200000 -200000 -200000 -200000 -200000 -200000 -200000 -200000 -200000 -200000 -200000 -200000 -200000 -200000 -200000 -200000 -200000 -200000 -200000 -200000 -200000 -200000 -200000 -200000 -200000 -197086 -197302 -197501 -197680 -197842 -197988 -198119 -198238 -198345 -198443 -198532 -198615 -198691 -198761 -198827 -198888 -198946 -199000 -199051 -199099 -199144 -199187 -199228 -199267 -199305 -199340 -199374 -199406 -199437 -199466 -199494 -199521 -199547 -199572 -199596 -199618 -199640 -199661 -199681 -199700 -199718 -199735 -199752 -199767 -199782 -199797 -199810 -199823 -199836 -199848 -199859 -199869 -199879 -199889 -199897 -199906 -199914 -199921 -199928 -199934 -199941 -199946 -199951 -199956 -199961 -199965 -199969 -199972 -199975 -199978 -199981 -199983 -199985 -199987 -199989 -199991 -199992 -199993 -199994 -199995 -199996 -199997 -199997 -199998 -199998 -199999 -199999 -199999 -199999 -199999 -200000 -200000 -200000 -200000 -200000 -200000 -200000 -200000 -200000 -200000 -200000 -200000 -200000 -200000 -200000 -200000 -200000 -200000 -200000 -200000 -200000 -200000 -200000 -200000 -200000 -200000 -200000 -200000 -200000 -200000 -200000 -200000 -200000 -200000 -200000 -200000 -200000 -200000 -196868 -197078 -197274 -197454 -197620 -197770 -197908 -198033 -198148 -198254 -198351 -198441 -198524 -198602 -198674 -198742 -198806 -198866 -198923 -198977 -199027 -199076 -199122 -199165 -199207 -199247 -199285 -199321 -199356 -199389 -199421 -199451 -199480 -199508 -199535 -199561 -199585 -199609 -199631 -199653 -199673 -199693 -199712 -199730 -199747 -199763 -199779 -199794 -199808 -199821 -199834 -199846 -199858 -199868 -199879 -199888 -199897 -199906 -199914 -199922 -199929 -199935 -199941 -199947 -199952 -199957 -199962 -199966 -199970 -199973 -199976 -199979 -199982 -199984 -199986 -199988 -199990 -199991 -199993 -199994 -199995 -199996 -199996 -199997 -199998 -199998 -199998 -199999 -199999 -199999 -199999 -200000 -200000 -200000 -200000 -200000 -200000 -200000 -200000 -200000 -200000 -200000 -200000 -200000 -200000 -200000 -200000 -200000 -200000 -200000 -200000 -200000 -200000 -200000 -200000 -200000 -200000 -200000 -200000 -200000 -200000 -200000 -200000 -200000 -200000 -200000 -200000 -200000 -196660 -196866 -197059 -197239 -197406 -197561 -197703 -197834 -197956 -198068 -198172 -198268 -198359 -198443 -198522 -198596 -198666 -198732 -198794 -198853 -198909 -198962 -199013 -199061 -199108 -199152 -199194 -199234 -199273 -199309 -199345 -199379 -199411 -199442 -199472 -199501 -199528 -199554 -199579 -199603 -199627 -199649 -199670 -199690 -199709 -199728 -199745 -199762 -199778 -199793 -199808 -199821 -199834 -199847 -199858 -199869 -199880 -199890 -199899 -199908 -199916 -199923 -199930 -199937 -199943 -199949 -199954 -199959 -199963 -199967 -199971 -199974 -199978 -199980 -199983 -199985 -199987 -199989 -199991 -199992 -199993 -199994 -199995 -199996 -199997 -199997 -199998 -199998 -199999 -199999 -199999 -199999 -200000 -200000 -200000 -200000 -200000 -200000 -200000 -200000 -200000 -200000 -200000 -200000 -200000 -200000 -200000 -200000 -200000 -200000 -200000 -200000 -200000 -200000 -200000 -200000 -200000 -200000 -200000 -200000 -200000 -200000 -200000 -200000 -200000 -200000 -200000 -200000 -196462 -196663 -196854 -197034 -197202 -197359 -197505 -197641 -197767 -197885 -197995 -198098 -198194 -198284 -198369 -198449 -198525 -198596 -198664 -198728 -198789 -198847 -198903 -198956 -199006 -199054 -199101 -199145 -199187 -199228 -199267 -199304 -199340 -199374 -199407 -199438 -199469 -199498 -199526 -199552 -199578 -199602 -199626 -199648 -199670 -199690 -199710 -199729 -199746 -199763 -199780 -199795 -199810 -199824 -199837 -199849 -199861 -199872 -199882 -199892 -199901 -199910 -199918 -199926 -199933 -199939 -199945 -199951 -199956 -199961 -199965 -199969 -199973 -199976 -199979 -199982 -199984 -199986 -199988 -199990 -199991 -199993 -199994 -199995 -199996 -199997 -199997 -199998 -199998 -199999 -199999 -199999 -199999 -199999 -200000 -200000 -200000 -200000 -200000 -200000 -200000 -200000 -200000 -200000 -200000 -200000 -200000 -200000 -200000 -200000 -200000 -200000 -200000 -200000 -200000 -200000 -200000 -200000 -200000 -200000 -200000 -200000 -200000 -200000 -200000 -200000 -200000 -200000 -196272 -196470 -196658 -196837 -197005 -197164 -197313 -197452 -197583 -197706 -197821 -197929 -198031 -198127 -198217 -198303 -198383 -198460 -198533 -198602 -198668 -198731 -198791 -198848 -198903 -198955 -199006 -199054 -199100 -199144 -199186 -199227 -199266 -199303 -199339 -199374 -199407 -199439 -199470 -199499 -199527 -199554 -199580 -199605 -199628 -199651 -199673 -199693 -199713 -199732 -199750 -199767 -199783 -199799 -199813 -199827 -199840 -199853 -199864 -199875 -199886 -199896 -199905 -199913 -199921 -199929 -199936 -199942 -199948 -199953 -199958 -199963 -199967 -199971 -199975 -199978 -199981 -199983 -199985 -199987 -199989 -199991 -199992 -199994 -199995 -199996 -199996 -199997 -199998 -199998 -199998 -199999 -199999 -199999 -199999 -200000 -200000 -200000 -200000 -200000 -200000 -200000 -200000 -200000 -200000 -200000 -200000 -200000 -200000 -200000 -200000 -200000 -200000 -200000 -200000 -200000 -200000 -200000 -200000 -200000 -200000 -200000 -200000 -200000 -200000 -200000 -200000 -200000 -196090 -196284 -196470 -196647 -196816 -196976 -197127 -197269 -197404 -197530 -197650 -197763 -197869 -197970 -198066 -198156 -198242 -198324 -198401 -198475 -198546 -198613 -198678 -198739 -198798 -198854 -198909 -198960 -199010 -199058 -199104 -199148 -199190 -199231 -199270 -199307 -199344 -199378 -199411 -199443 -199474 -199503 -199532 -199559 -199585 -199609 -199633 -199656 -199678 -199698 -199718 -199737 -199755 -199772 -199788 -199804 -199818 -199832 -199845 -199857 -199869 -199880 -199890 -199900 -199909 -199917 -199925 -199932 -199939 -199945 -199951 -199956 -199961 -199965 -199970 -199973 -199977 -199980 -199982 -199985 -199987 -199989 -199990 -199992 -199993 -199994 -199995 -199996 -199997 -199997 -199998 -199998 -199999 -199999 -199999 -199999 -200000 -200000 -200000 -200000 -200000 -200000 -200000 -200000 -200000 -200000 -200000 -200000 -200000 -200000 -200000 -200000 -200000 -200000 -200000 -200000 -200000 -200000 -200000 -200000 -200000 -200000 -200000 -200000 -200000 -200000 -200000 -200000 -195915 -196106 -196289 -196465 -196633 -196794 -196946 -197091 -197228 -197358 -197482 -197599 -197710 -197815 -197915 -198010 -198101 -198187 -198269 -198348 -198423 -198494 -198563 -198629 -198692 -198752 -198810 -198865 -198919 -198970 -199019 -199067 -199112 -199156 -199198 -199239 -199278 -199315 -199351 -199386 -199419 -199451 -199481 -199511 -199539 -199566 -199592 -199617 -199640 -199663 -199685 -199705 -199725 -199744 -199762 -199779 -199795 -199810 -199824 -199838 -199851 -199863 -199874 -199885 -199895 -199904 -199913 -199921 -199929 -199936 -199943 -199949 -199954 -199959 -199964 -199968 -199972 -199975 -199979 -199981 -199984 -199986 -199988 -199990 -199991 -199993 -199994 -199995 -199996 -199997 -199997 -199998 -199998 -199999 -199999 -199999 -199999 -200000 -200000 -200000 -200000 -200000 -200000 -200000 -200000 -200000 -200000 -200000 -200000 -200000 -200000 -200000 -200000 -200000 -200000 -200000 -200000 -200000 -200000 -200000 -200000 -200000 -200000 -200000 -200000 -200000 -200000 -200000 -195746 -195934 -196115 -196290 -196457 -196618 -196771 -196918 -197057 -197190 -197317 -197437 -197552 -197662 -197766 -197865 -197960 -198050 -198137 -198220 -198299 -198374 -198447 -198517 -198584 -198648 -198709 -198769 -198826 -198880 -198933 -198984 -199032 -199079 -199125 -199168 -199210 -199250 -199289 -199326 -199362 -199396 -199429 -199461 -199491 -199521 -199549 -199575 -199601 -199626 -199649 -199672 -199693 -199714 -199733 -199752 -199769 -199786 -199802 -199817 -199831 -199844 -199857 -199869 -199880 -199891 -199900 -199910 -199918 -199926 -199933 -199940 -199946 -199952 -199957 -199962 -199967 -199971 -199974 -199978 -199981 -199983 -199985 -199988 -199989 -199991 -199992 -199994 -199995 -199996 -199996 -199997 -199998 -199998 -199999 -199999 -199999 -199999 -199999 -200000 -200000 -200000 -200000 -200000 -200000 -200000 -200000 -200000 -200000 -200000 -200000 -200000 -200000 -200000 -200000 -200000 -200000 -200000 -200000 -200000 -200000 -200000 -200000 -200000 -200000 -200000 -200000 -200000 -195583 -195768 -195947 -196120 -196287 -196447 -196601 -196749 -196891 -197026 -197155 -197279 -197397 -197510 -197618 -197721 -197819 -197914 -198004 -198091 -198174 -198254 -198330 -198404 -198474 -198542 -198607 -198670 -198731 -198789 -198845 -198899 -198951 -199001 -199049 -199095 -199140 -199183 -199224 -199264 -199302 -199339 -199375 -199409 -199442 -199473 -199503 -199532 -199560 -199587 -199612 -199636 -199660 -199682 -199703 -199723 -199742 -199761 -199778 -199794 -199810 -199825 -199839 -199852 -199864 -199875 -199886 -199896 -199906 -199915 -199923 -199931 -199938 -199944 -199950 -199956 -199961 -199965 -199969 -199973 -199977 -199980 -199982 -199985 -199987 -199989 -199991 -199992 -199993 -199995 -199995 -199996 -199997 -199998 -199998 -199998 -199999 -199999 -199999 -199999 -200000 -200000 -200000 -200000 -200000 -200000 -200000 -200000 -200000 -200000 -200000 -200000 -200000 -200000 -200000 -200000 -200000 -200000 -200000 -200000 -200000 -200000 -200000 -200000 -200000 -200000 -200000 -200000 -195426 -195608 -195785 -195956 -196122 -196282 -196437 -196585 -196728 -196865 -196997 -197123 -197244 -197360 -197471 -197577 -197680 -197778 -197872 -197962 -198049 -198132 -198213 -198290 -198364 -198435 -198504 -198570 -198634 -198695 -198755 -198812 -198867 -198920 -198971 -199020 -199068 -199113 -199157 -199200 -199241 -199280 -199318 -199355 -199390 -199423 -199456 -199487 -199517 -199545 -199573 -199599 -199624 -199648 -199671 -199693 -199714 -199734 -199752 -199770 -199787 -199803 -199818 -199833 -199846 -199859 -199871 -199882 -199893 -199903 -199912 -199920 -199928 -199935 -199942 -199948 -199954 -199959 -199964 -199968 -199972 -199976 -199979 -199982 -199984 -199987 -199989 -199990 -199992 -199993 -199994 -199995 -199996 -199997 -199997 -199998 -199998 -199999 -199999 -199999 -199999 -200000 -200000 -200000 -200000 -200000 -200000 -200000 -200000 -200000 -200000 -200000 -200000 -200000 -200000 -200000 -200000 -200000 -200000 -200000 -200000 -200000 -200000 -200000 -200000 -200000 -200000 -200000 -195273 -195453 -195627 -195797 -195962 -196122 -196276 -196425 -196569 -196708 -196841 -196970 -197093 -197212 -197326 -197435 -197541 -197642 -197740 -197834 -197924 -198011 -198094 -198175 -198253 -198327 -198399 -198469 -198536 -198601 -198663 -198723 -198781 -198837 -198891 -198943 -198994 -199042 -199089 -199134 -199177 -199219 -199260 -199298 -199336 -199372 -199406 -199440 -199472 -199502 -199532 -199560 -199587 -199613 -199637 -199661 -199683 -199705 -199725 -199744 -199763 -199780 -199797 -199813 -199827 -199841 -199854 -199867 -199878 -199889 -199899 -199909 -199917 -199926 -199933 -199940 -199946 -199952 -199958 -199963 -199967 -199971 -199975 -199978 -199981 -199984 -199986 -199988 -199990 -199991 -199993 -199994 -199995 -199996 -199997 -199997 -199998 -199998 -199999 -199999 -199999 -199999 -200000 -200000 -200000 -200000 -200000 -200000 -200000 -200000 -200000 -200000 -200000 -200000 -200000 -200000 -200000 -200000 -200000 -200000 -200000 -200000 -200000 -200000 -200000 -200000 -200000 -200000 -195125 -195302 -195475 -195643 -195807 -195966 -196120 -196270 -196414 -196554 -196689 -196819 -196945 -197066 -197182 -197295 -197403 -197507 -197608 -197705 -197799 -197889 -197976 -198059 -198140 -198218 -198294 -198366 -198436 -198504 -198570 -198633 -198694 -198753 -198810 -198864 -198918 -198969 -199018 -199066 -199112 -199156 -199199 -199240 -199280 -199318 -199355 -199390 -199424 -199457 -199488 -199519 -199547 -199575 -199602 -199627 -199651 -199674 -199696 -199717 -199737 -199756 -199774 -199791 -199807 -199822 -199836 -199850 -199863 -199875 -199886 -199896 -199906 -199915 -199923 -199931 -199938 -199945 -199951 -199956 -199961 -199966 -199970 -199974 -199977 -199980 -199983 -199985 -199988 -199989 -199991 -199993 -199994 -199995 -199996 -199997 -199997 -199998 -199998 -199999 -199999 -199999 -199999 -200000 -200000 -200000 -200000 -200000 -200000 -200000 -200000 -200000 -200000 -200000 -200000 -200000 -200000 -200000 -200000 -200000 -200000 -200000 -200000 -200000 -200000 -200000 -200000 -200000 -194982 -195156 -195327 -195494 -195656 -195815 -195969 -196118 -196263 -196404 -196540 -196671 -196799 -196922 -197041 -197156 -197266 -197374 -197477 -197577 -197673 -197766 -197856 -197943 -198027 -198108 -198187 -198262 -198336 -198406 -198475 -198541 -198605 -198666 -198726 -198784 -198840 -198893 -198945 -198996 -199044 -199091 -199136 -199180 -199222 -199262 -199301 -199339 -199375 -199410 -199443 -199475 -199506 -199536 -199564 -199591 -199617 -199642 -199665 -199688 -199709 -199730 -199749 -199768 -199785 -199802 -199817 -199832 -199846 -199859 -199871 -199882 -199893 -199903 -199912 -199921 -199929 -199936 -199943 -199949 -199955 -199960 -199965 -199969 -199973 -199977 -199980 -199982 -199985 -199987 -199989 -199991 -199992 -199994 -199995 -199996 -199996 -199997 -199998 -199998 -199999 -199999 -199999 -199999 -200000 -200000 -200000 -200000 -200000 -200000 -200000 -200000 -200000 -200000 -200000 -200000 -200000 -200000 -200000 -200000 -200000 -200000 -200000 -200000 -200000 -200000 -200000 -200000 -194842 -195015 -195184 -195349 -195510 -195668 -195821 -195970 -196116 -196257 -196394 -196526 -196655 -196780 -196901 -197018 -197131 -197241 -197347 -197449 -197548 -197644 -197737 -197827 -197914 -197998 -198079 -198157 -198234 -198307 -198378 -198447 -198514 -198579 -198641 -198701 -198760 -198816 -198871 -198924 -198975 -199024 -199072 -199118 -199162 -199205 -199246 -199286 -199324 -199361 -199396 -199430 -199463 -199494 -199525 -199553 -199581 -199608 -199633 -199657 -199680 -199702 -199723 -199743 -199762 -199779 -199796 -199812 -199827 -199842 -199855 -199867 -199879 -199890 -199900 -199910 -199919 -199927 -199934 -199941 -199948 -199953 -199959 -199964 -199968 -199972 -199976 -199979 -199982 -199984 -199987 -199989 -199990 -199992 -199993 -199994 -199995 -199996 -199997 -199998 -199998 -199998 -199999 -199999 -199999 -199999 -200000 -200000 -200000 -200000 -200000 -200000 -200000 -200000 -200000 -200000 -200000 -200000 -200000 -200000 -200000 -200000 -200000 -200000 -200000 -200000 -200000 -200000 -194707 -194877 -195044 -195208 -195368 -195524 -195677 -195826 -195971 -196113 -196250 -196384 -196514 -196640 -196763 -196882 -196997 -197109 -197217 -197322 -197423 -197522 -197617 -197710 -197799 -197886 -197970 -198052 -198131 -198207 -198281 -198353 -198422 -198489 -198554 -198617 -198678 -198737 -198794 -198850 -198903 -198955 -199005 -199053 -199100 -199145 -199188 -199230 -199271 -199310 -199347 -199383 -199418 -199451 -199483 -199514 -199543 -199572 -199599 -199624 -199649 -199673 -199695 -199716 -199737 -199756 -199774 -199791 -199808 -199823 -199837 -199851 -199864 -199876 -199887 -199898 -199907 -199916 -199925 -199932 -199940 -199946 -199952 -199958 -199963 -199967 -199971 -199975 -199978 -199981 -199984 -199986 -199988 -199990 -199992 -199993 -199994 -199995 -199996 -199997 -199997 -199998 -199998 -199999 -199999 -199999 -199999 -200000 -200000 -200000 -200000 -200000 -200000 -200000 -200000 -200000 -200000 -200000 -200000 -200000 -200000 -200000 -200000 -200000 -200000 -200000 -200000 -200000 -194575 -194743 -194908 -195070 -195229 -195384 -195537 -195685 -195830 -195972 -196110 -196245 -196376 -196503 -196627 -196747 -196864 -196978 -197088 -197195 -197299 -197400 -197498 -197593 -197685 -197774 -197861 -197945 -198026 -198106 -198182 -198256 -198328 -198398 -198466 -198532 -198595 -198657 -198716 -198774 -198830 -198884 -198936 -198987 -199036 -199083 -199129 -199173 -199215 -199256 -199296 -199334 -199371 -199406 -199440 -199472 -199504 -199534 -199562 -199590 -199616 -199641 -199665 -199688 -199710 -199730 -199750 -199769 -199786 -199803 -199819 -199833 -199847 -199860 -199873 -199884 -199895 -199905 -199914 -199923 -199931 -199938 -199945 -199951 -199956 -199962 -199966 -199970 -199974 -199978 -199981 -199983 -199986 -199988 -199990 -199991 -199993 -199994 -199995 -199996 -199997 -199997 -199998 -199998 -199999 -199999 -199999 -199999 -200000 -200000 -200000 -200000 -200000 -200000 -200000 -200000 -200000 -200000 -200000 -200000 -200000 -200000 -200000 -200000 -200000 -200000 -200000 -200000 -194447 -194613 -194776 -194936 -195094 -195248 -195400 -195548 -195693 -195834 -195973 -196108 -196239 -196368 -196493 -196615 -196733 -196848 -196961 -197070 -197176 -197279 -197379 -197476 -197570 -197662 -197751 -197838 -197922 -198003 -198082 -198159 -198234 -198306 -198376 -198444 -198510 -198574 -198636 -198696 -198755 -198811 -198866 -198919 -198970 -199019 -199067 -199113 -199158 -199201 -199243 -199283 -199322 -199359 -199395 -199429 -199462 -199494 -199524 -199554 -199582 -199608 -199634 -199658 -199681 -199704 -199725 -199745 -199764 -199782 -199798 -199815 -199830 -199844 -199857 -199870 -199881 -199892 -199902 -199912 -199921 -199929 -199936 -199943 -199949 -199955 -199960 -199965 -199970 -199973 -199977 -199980 -199983 -199985 -199988 -199989 -199991 -199993 -199994 -199995 -199996 -199997 -199997 -199998 -199998 -199999 -199999 -199999 -199999 -200000 -200000 -200000 -200000 -200000 -200000 -200000 -200000 -200000 -200000 -200000 -200000 -200000 -200000 -200000 -200000 -200000 -200000 -200000 -194322 -194486 -194647 -194806 -194962 -195115 -195266 -195414 -195558 -195700 -195838 -195973 -196106 -196235 -196361 -196484 -196603 -196720 -196834 -196945 -197053 -197157 -197260 -197359 -197456 -197550 -197641 -197730 -197816 -197900 -197982 -198061 -198138 -198212 -198285 -198356 -198424 -198490 -198555 -198617 -198678 -198737 -198793 -198849 -198902 -198954 -199004 -199052 -199099 -199144 -199188 -199230 -199270 -199310 -199347 -199384 -199419 -199452 -199484 -199515 -199545 -199573 -199601 -199627 -199651 -199675 -199697 -199719 -199739 -199759 -199777 -199794 -199810 -199826 -199840 -199854 -199867 -199879 -199890 -199900 -199910 -199919 -199927 -199935 -199942 -199948 -199954 -199959 -199964 -199969 -199973 -199976 -199979 -199982 -199985 -199987 -199989 -199991 -199992 -199994 -199995 -199996 -199996 -199997 -199998 -199998 -199999 -199999 -199999 -199999 -200000 -200000 -200000 -200000 -200000 -200000 -200000 -200000 -200000 -200000 -200000 -200000 -200000 -200000 -200000 -200000 -200000 -200000 -194200 -194362 -194522 -194679 -194834 -194986 -195135 -195282 -195426 -195568 -195706 -195842 -195974 -196104 -196231 -196355 -196475 -196593 -196709 -196821 -196930 -197037 -197141 -197242 -197341 -197437 -197530 -197621 -197710 -197796 -197880 -197961 -198041 -198118 -198193 -198265 -198336 -198405 -198472 -198536 -198599 -198660 -198719 -198777 -198832 -198886 -198938 -198989 -199038 -199085 -199131 -199175 -199217 -199258 -199298 -199336 -199373 -199409 -199443 -199475 -199507 -199537 -199566 -199593 -199619 -199645 -199669 -199692 -199713 -199734 -199754 -199772 -199790 -199806 -199822 -199837 -199851 -199864 -199876 -199887 -199898 -199908 -199917 -199925 -199933 -199940 -199947 -199953 -199958 -199963 -199968 -199972 -199976 -199979 -199982 -199984 -199987 -199989 -199991 -199992 -199993 -199995 -199996 -199996 -199997 -199998 -199998 -199999 -199999 -199999 -199999 -200000 -200000 -200000 -200000 -200000 -200000 -200000 -200000 -200000 -200000 -200000 -200000 -200000 -200000 -200000 -200000 -200000 -194081 -194241 -194399 -194555 -194708 -194859 -195008 -195154 -195298 -195438 -195577 -195712 -195845 -195975 -196103 -196227 -196349 -196468 -196584 -196698 -196809 -196917 -197023 -197126 -197226 -197324 -197420 -197513 -197603 -197692 -197778 -197861 -197943 -198022 -198099 -198174 -198247 -198318 -198387 -198454 -198519 -198582 -198643 -198703 -198761 -198817 -198871 -198924 -198975 -199024 -199072 -199118 -199162 -199205 -199247 -199287 -199326 -199363 -199399 -199433 -199466 -199498 -199529 -199558 -199586 -199613 -199638 -199662 -199686 -199708 -199729 -199749 -199768 -199785 -199802 -199818 -199833 -199847 -199861 -199873 -199885 -199895 -199905 -199915 -199923 -199931 -199939 -199945 -199951 -199957 -199962 -199967 -199971 -199975 -199978 -199981 -199984 -199986 -199988 -199990 -199992 -199993 -199994 -199995 -199996 -199997 -199998 -199998 -199998 -199999 -199999 -199999 -199999 -200000 -200000 -200000 -200000 -200000 -200000 -200000 -200000 -200000 -200000 -200000 -200000 -200000 -200000 -200000 -193965 -194123 -194280 -194434 -194586 -194736 -194883 -195029 -195171 -195312 -195450 -195585 -195718 -195849 -195976 -196102 -196224 -196344 -196462 -196576 -196689 -196798 -196905 -197010 -197112 -197212 -197309 -197404 -197496 -197587 -197675 -197760 -197844 -197925 -198004 -198081 -198157 -198230 -198301 -198370 -198437 -198502 -198566 -198628 -198687 -198746 -198802 -198857 -198910 -198961 -199011 -199059 -199105 -199150 -199194 -199236 -199276 -199315 -199353 -199389 -199424 -199458 -199490 -199521 -199550 -199579 -199606 -199632 -199656 -199680 -199702 -199724 -199744 -199763 -199781 -199798 -199815 -199830 -199844 -199858 -199870 -199882 -199893 -199903 -199913 -199921 -199930 -199937 -199944 -199950 -199956 -199961 -199966 -199970 -199974 -199978 -199981 -199983 -199986 -199988 -199990 -199992 -199993 -199994 -199995 -199996 -199997 -199997 -199998 -199998 -199999 -199999 -199999 -199999 -200000 -200000 -200000 -200000 -200000 -200000 -200000 -200000 -200000 -200000 -200000 -200000 -200000 -200000 -193852 -194008 -194163 -194315 -194466 -194615 -194761 -194906 -