<?xml version="1.0"?> 
<VTKFile type="StructuredGrid" version="0.1"> 
<StructuredGrid WholeExtent="0 127 0 127 0 0"> 
<Piece Extent="0 127 0 127 0 0"> 
<PointData>
<DataArray type="Float32" Name="u" format="ascii" NumberOfComponents="1"> 
-200000 -198217 -196337 -194394 -192391 -190330 -188212 -186041 -183821 -181555 -179248 -176903 -174524 -172117 -169684 -167229 -164757 -162271 -159774 -157271 -154764 -152257 -149752 -147252 -144760 -142278 -139808 -137352 -134913 -132492 -130090 -127710 -125351 -123016 -120705 -118419 -116159 -113925 -111719 -109540 -107389 -105267 -103173 -101107 -99070.8 -97063 -95084 -93133.8 -91212.2 -89319.1 -87454.4 -85617.8 -83809.1 -82028.1 -80274.5 -78548 -76848.2 -75174.9 -73527.6 -71906.1 -70310 -68738.7 -67192.1 -65669.7 -64171 -62695.6 -61243.3 -59813.4 -58405.6 -57019.6 -55654.8 -54310.8 -52987.2 -51683.6 -50399.5 -49134.6 -47888.4 -46660.5 -45450.4 -44257.8 -43082.2 -41923.2 -40780.4 -39653.5 -38541.9 -37445.3 -36363.2 -35295.4 -34241.4 -33200.7 -32173.1 -31158.1 -30155.4 -29164.5 -28185.1 -27216.9 -26259.3 -25312.2 -24375.1 -23447.6 -22529.4 -21620.2 -20719.5 -19827.1 -18942.6 -18065.5 -17195.7 -16332.8 -15476.3 -14626 -13781.6 -12942.6 -12108.8 -11279.9 -10455.4 -9635.14 -8818.72 -8005.83 -7196.15 -6389.34 -5585.09 -4783.07 -3982.97 -3184.46 -2387.23 -1590.96 -795.32 0 -200000 -198215 -196336 -194393 -192390 -190329 -188211 -186040 -183819 -181553 -179245 -176900 -174521 -172113 -169680 -167225 -164752 -162266 -159769 -157266 -154759 -152251 -149746 -147246 -144753 -142271 -139801 -137346 -134906 -132485 -130083 -127703 -125344 -123009 -120698 -118412 -116152 -113918 -111712 -109533 -107383 -105260 -103166 -101101 -99064.5 -97056.8 -95077.9 -93127.8 -91206.3 -89313.3 -87448.7 -85612.2 -83803.7 -82022.8 -80269.3 -78542.8 -76843.2 -75170 -73522.8 -71901.4 -70305.3 -68734.2 -67187.7 -65665.4 -64166.8 -62691.6 -61239.3 -59809.5 -58401.9 -57015.9 -55651.2 -54307.3 -52983.8 -51680.3 -50396.3 -49131.5 -47885.3 -46657.5 -45447.5 -44255 -43079.5 -41920.6 -40777.9 -39651 -38539.4 -37442.9 -36361 -35293.2 -34239.2 -33198.7 -32171.1 -31156.2 -30153.5 -29162.7 -28183.4 -27215.2 -26257.7 -25310.7 -24373.6 -23446.2 -22528.1 -21618.9 -20718.3 -19825.9 -18941.4 -18064.5 -17194.7 -16331.8 -15475.4 -14625.1 -13780.7 -12941.8 -12108.1 -11279.2 -10454.8 -9634.57 -8818.2 -8005.36 -7195.72 -6388.96 -5584.76 -4782.79 -3982.74 -3184.28 -2387.09 -1590.86 -795.273 0 -200000 -198214 -196335 -194392 -192390 -190328 -188210 -186038 -183818 -181551 -179243 -176897 -174518 -172110 -169676 -167221 -164748 -162261 -159764 -157260 -154753 -152245 -149740 -147239 -144747 -142265 -139795 -137339 -134900 -132478 -130077 -127696 -125337 -123002 -120691 -118405 -116145 -113912 -111705 -109527 -107376 -105254 -103160 -101095 -99058.2 -97050.6 -95071.8 -93121.8 -91200.4 -89307.5 -87443 -85606.6 -83798.2 -82017.4 -80264 -78537.7 -76838.1 -75165 -73518 -71896.7 -70300.7 -68729.7 -67183.3 -65661.1 -64162.6 -62687.4 -61235.3 -59805.6 -58398 -57012.2 -55647.5 -54303.7 -52980.3 -51676.9 -50393 -49128.3 -47882.3 -46654.5 -45444.6 -44252.1 -43076.7 -41917.9 -40775.3 -39648.5 -38537 -37440.6 -36358.7 -35291 -34237.1 -33196.6 -32169.1 -31154.3 -30151.7 -29160.9 -28181.7 -27213.5 -26256.1 -25309.1 -24372.1 -23444.8 -22526.7 -21617.6 -20717 -19824.7 -18940.3 -18063.4 -17193.7 -16330.8 -15474.4 -14624.3 -13779.9 -12941.1 -12107.4 -11278.5 -10454.2 -9633.99 -8817.68 -8004.88 -7195.29 -6388.58 -5584.43 -4782.51 -3982.5 -3184.09 -2386.95 -1590.77 -795.226 0 -200000 -198212 -196333 -194391 -192389 -190327 -188209 -186037 -183816 -181549 -179240 -176894 -174515 -172106 -169672 -167216 -164743 -162256 -159759 -157255 -154747 -152239 -149734 -147233 -144740 -142258 -139788 -137332 -134893 -132471 -130070 -127689 -125330 -122995 -120684 -118398 -116138 -113905 -111699 -109520 -107369 -105247 -103153 -101088 -99051.9 -97044.4 -95065.7 -93115.8 -91194.5 -89301.7 -87437.3 -85601 -83792.7 -82012 -80258.7 -78532.5 -76833.1 -75160 -73513.1 -71891.9 -70296.1 -68725.2 -67178.9 -65656.7 -64158.3 -62683.3 -61231.2 -59801.7 -58394.2 -57008.4 -55643.9 -54300.2 -52976.9 -51673.6 -50389.8 -49125.1 -47879.2 -46651.5 -45441.7 -44249.3 -43074 -41915.2 -40772.7 -39645.9 -38534.6 -37438.2 -36356.4 -35288.8 -34235 -33194.5 -32167.1 -31152.3 -30149.8 -29159.1 -28179.9 -27211.8 -26254.5 -25307.6 -24370.6 -23443.3 -22525.3 -21616.2 -20715.8 -19823.5 -18939.1 -18062.3 -17192.6 -16329.8 -15473.5 -14623.4 -13779.1 -12940.3 -12106.6 -11277.8 -10453.5 -9633.42 -8817.15 -8004.41 -7194.86 -6388.2 -5584.09 -4782.22 -3982.26 -3183.9 -2386.81 -1590.68 -795.178 0 -200000 -198211 -196332 -194391 -192388 -190327 -188208 -186036 -183814 -181547 -179238 -176892 -174512 -172102 -169668 -167212 -164739 -162251 -159754 -157249 -154742 -152233 -149727 -147227 -144734 -142251 -139781 -137325 -134886 -132465 -130063 -127682 -125323 -122988 -120677 -118391 -116131 -113898 -111692 -109513 -107363 -105241 -103147 -101082 -99045.6 -97038.2 -95059.6 -93109.7 -91188.5 -89295.8 -87431.5 -85595.4 -83787.1 -82006.6 -80253.4 -78527.3 -76828 -75155.1 -73508.3 -71887.2 -70291.4 -68720.6 -67174.4 -65652.4 -64154.1 -62679.2 -61227.2 -59797.7 -58390.4 -57004.7 -55640.3 -54296.6 -52973.4 -51670.2 -50386.5 -49121.9 -47876.1 -46648.5 -45438.8 -44246.5 -43071.2 -41912.5 -40770.1 -39643.4 -38532.1 -37435.8 -36354.1 -35286.5 -34232.8 -33192.4 -32165.1 -31150.4 -30147.9 -29157.3 -28178.2 -27210.2 -26252.9 -25306 -24369.1 -23441.9 -22523.9 -21614.9 -20714.5 -19822.3 -18938 -18061.2 -17191.6 -16328.8 -15472.6 -14622.5 -13778.2 -12939.5 -12105.9 -11277.2 -10452.9 -9632.84 -8816.62 -8003.92 -7194.43 -6387.82 -5583.76 -4781.93 -3982.02 -3183.71 -2386.67 -1590.58 -795.131 0 -200000 -198209 -196331 -194390 -192388 -190326 -188207 -186035 -183813 -181545 -179236 -176889 -174509 -172099 -169664 -167208 -164734 -162246 -159749 -157244 -154736 -152227 -149721 -147221 -144728 -142245 -139775 -137319 -134879 -132458 -130056 -127675 -125316 -122981 -120670 -118384 -116124 -113891 -111685 -109506 -107356 -105234 -103140 -101075 -99039.2 -97031.9 -95053.4 -93103.6 -91182.5 -89290 -87425.8 -85589.7 -83781.6 -82001.1 -80248.1 -78522.1 -76822.9 -75150.1 -73503.4 -71882.4 -70286.7 -68716.1 -67170 -65648 -64149.8 -62675 -61223.1 -59793.8 -58386.5 -57000.9 -55636.6 -54293.1 -52970 -51666.8 -50383.2 -49118.7 -47873 -46645.5 -45435.8 -44243.6 -43068.4 -41909.8 -40767.5 -39640.9 -38529.7 -37433.4 -36351.8 -35284.3 -34230.6 -33190.3 -32163.1 -31148.4 -30146 -29155.5 -28176.4 -27208.5 -26251.3 -25304.4 -24367.6 -23440.4 -22522.5 -21613.6 -20713.2 -19821.1 -18936.8 -18060.1 -17190.5 -16327.8 -15471.6 -14621.6 -13777.4 -12938.7 -12105.2 -11276.5 -10452.3 -9632.26 -8816.09 -8003.44 -7194 -6387.43 -5583.42 -4781.65 -3981.78 -3183.52 -2386.52 -1590.48 -795.083 0 -200000 -198208 -196330 -194390 -192387 -190325 -188206 -186034 -183811 -181543 -179233 -176886 -174505 -172095 -169660 -167204 -164729 -162242 -159743 -157239 -154730 -152221 -149715 -147214 -144721 -142238 -139768 -137312 -134872 -132451 -130049 -127668 -125309 -122974 -120663 -118377 -116117 -113884 -111678 -109500 -107349 -105227 -103134 -101069 -99032.8 -97025.6 -95047.2 -93097.5 -91176.6 -89284.1 -87420 -85584 -83776 -81995.7 -80242.7 -78516.8 -76817.7 -75145 -73498.4 -71877.6 -70282 -68711.5 -67165.5 -65643.6 -64145.6 -62670.9 -61219.1 -59789.8 -58382.6 -56997.2 -55632.9 -54289.5 -52966.5 -51663.4 -50379.9 -49115.5 -47869.8 -46642.4 -45432.9 -44240.7 -43065.6 -41907.1 -40764.8 -39638.3 -38527.2 -37431 -36349.5 -35282.1 -34228.5 -33188.2 -32161 -31146.5 -30144.1 -29153.6 -28174.6 -27206.8 -26249.6 -25302.8 -24366.1 -23439 -22521.1 -21612.3 -20711.9 -19819.9 -18935.6 -18059 -17189.5 -16326.8 -15470.7 -14620.7 -13776.6 -12937.9 -12104.4 -11275.8 -10451.6 -9631.67 -8815.55 -8002.96 -7193.56 -6387.05 -5583.09 -4781.36 -3981.54 -3183.32 -2386.38 -1590.39 -795.035 0 -200000 -198207 -196329 -194389 -192387 -190325 -188205 -186033 -183810 -181541 -179231 -176883 -174502 -172092 -169656 -167199 -164725 -162237 -159738 -157233 -154725 -152216 -149709 -147208 -144715 -142232 -139761 -137305 -134865 -132444 -130042 -127661 -125302 -122967 -120656 -118370 -116110 -113877 -111671 -109493 -107343 -105221 -103127 -101062 -99026.4 -97019.3 -95041 -93091.4 -91170.5 -89278.2 -87414.2 -85578.4 -83770.4 -81990.2 -80237.3 -78511.6 -76812.6 -75140 -73493.5 -71872.7 -70277.3 -68706.9 -67161 -65639.2 -64141.3 -62666.7 -61215 -59785.8 -58378.8 -56993.4 -55629.2 -54285.9 -52963 -51660 -50376.6 -49112.3 -47866.7 -46639.4 -45429.9 -44237.8 -43062.8 -41904.4 -40762.2 -39635.8 -38524.7 -37428.6 -36347.1 -35279.8 -34226.3 -33186.1 -32159 -31144.5 -30142.2 -29151.8 -28172.9 -27205 -26248 -25301.3 -24364.6 -23437.5 -22519.7 -21610.9 -20710.7 -19818.6 -18934.5 -18057.8 -17188.4 -16325.8 -15469.7 -14619.8 -13775.7 -12937.1 -12103.7 -11275.1 -10451 -9631.08 -8815.01 -8002.47 -7193.13 -6386.66 -5582.75 -4781.07 -3981.3 -3183.13 -2386.23 -1590.29 -794.987 0 -200000 -198205 -196329 -194388 -192386 -190324 -188205 -186031 -183808 -181539 -179229 -176881 -174499 -172089 -169653 -167195 -164720 -162232 -159733 -157228 -154719 -152210 -149703 -147202 -144708 -142225 -139754 -137298 -134859 -132437 -130035 -127654 -125295 -122960 -120649 -118363 -116103 -113870 -111664 -109486 -107336 -105214 -103121 -101056 -99020 -97013 -95034.7 -93085.3 -91164.5 -89272.3 -87408.4 -85572.6 -83764.8 -81984.7 -80232 -78506.3 -76807.4 -75134.9 -73488.6 -71867.9 -70272.6 -68702.2 -67156.4 -65634.8 -64137 -62662.5 -61210.9 -59781.8 -58374.9 -56989.6 -55625.5 -54282.3 -52959.4 -51656.6 -50373.3 -49109 -47863.5 -46636.3 -45426.9 -44234.9 -43060 -41901.7 -40759.5 -39633.2 -38522.2 -37426.2 -36344.8 -35277.5 -34224.1 -33184 -32156.9 -31142.5 -30140.3 -29149.9 -28171.1 -27203.3 -26246.3 -25299.7 -24363 -23436 -22518.3 -21609.6 -20709.4 -19817.4 -18933.3 -18056.7 -17187.3 -16324.8 -15468.8 -14618.9 -13774.9 -12936.3 -12102.9 -11274.4 -10450.4 -9630.49 -8814.47 -8001.98 -7192.69 -6386.27 -5582.4 -4780.78 -3981.06 -3182.94 -2386.09 -1590.2 -794.938 0 -200000 -198204 -196328 -194388 -192386 -190324 -188204 -186030 -183807 -181538 -179227 -176878 -174496 -172085 -169649 -167191 -164716 -162227 -159728 -157222 -154713 -152204 -149697 -147195 -144702 -142219 -139748 -137291 -134852 -132430 -130028 -127647 -125288 -122953 -120642 -118356 -116096 -113863 -111657 -109479 -107329 -105207 -103114 -101049 -99013.6 -97006.6 -95028.5 -93079.1 -91158.5 -89266.3 -87402.5 -85566.9 -83759.2 -81979.2 -80226.6 -78501 -76802.2 -75129.9 -73483.6 -71863 -70267.8 -68697.6 -67151.9 -65630.4 -64132.6 -62658.2 -61206.8 -59777.8 -58370.9 -56985.7 -55621.8 -54278.7 -52955.9 -51653.1 -50369.9 -49105.8 -47860.4 -46633.2 -45423.9 -44232 -43057.2 -41898.9 -40756.9 -39630.6 -38519.7 -37423.8 -36342.4 -35275.3 -34221.9 -33181.9 -32154.9 -31140.5 -30138.4 -29148.1 -28169.3 -27201.6 -26244.6 -25298.1 -24361.5 -23434.6 -22516.9 -21608.2 -20708.1 -19816.1 -18932.1 -18055.6 -17186.3 -16323.8 -15467.8 -14618 -13774 -12935.5 -12102.2 -11273.7 -10449.7 -9629.9 -8813.93 -8001.49 -7192.24 -6385.88 -5582.06 -4780.48 -3980.82 -3182.74 -2385.94 -1590.1 -794.89 0 -200000 -198203 -196327 -194388 -192386 -190323 -188203 -186029 -183806 -181536 -179224 -176876 -174493 -172082 -169645 -167187 -164711 -162222 -159723 -157217 -154708 -152198 -149691 -147189 -144695 -142212 -139741 -137285 -134845 -132423 -130021 -127640 -125281 -122946 -120635 -118349 -116089 -113856 -111651 -109472 -107322 -105201 -103107 -101043 -99007.1 -97000.3 -95022.2 -93073 -91152.4 -89260.3 -87396.7 -85561.2 -83753.6 -81973.7 -80221.1 -78495.7 -76797 -75124.8 -73478.6 -71858.2 -70263.1 -68692.9 -67147.4 -65626 -64128.3 -62654 -61202.6 -59773.8 -58367 -56981.9 -55618.1 -54275 -52952.4 -51649.7 -50366.5 -49102.5 -47857.2 -46630.1 -45420.9 -44229.1 -43054.3 -41896.2 -40754.2 -39628 -38517.2 -37421.3 -36340.1 -35273 -34219.6 -33179.7 -32152.8 -31138.5 -30136.4 -29146.2 -28167.5 -27199.9 -26243 -25296.5 -24359.9 -23433.1 -22515.5 -21606.8 -20706.8 -19814.9 -18930.9 -18054.5 -17185.2 -16322.8 -15466.9 -14617.1 -13773.2 -12934.7 -12101.5 -11273 -10449.1 -9629.3 -8813.39 -8000.99 -7191.8 -6385.48 -5581.72 -4780.19 -3980.57 -3182.55 -2385.8 -1590 -794.841 0 -200000 -198202 -196326 -194387 -192385 -190323 -188203 -186028 -183804 -181534 -179222 -176873 -174490 -172078 -169641 -167183 -164707 -162217 -159718 -157212 -154702 -152192 -149685 -147183 -144689 -142205 -139734 -137278 -134838 -132416 -130014 -127633 -125274 -122939 -120628 -118342 -116082 -113849 -111644 -109466 -107315 -105194 -103101 -101036 -99000.6 -96993.9 -95015.9 -93066.8 -91146.3 -89254.4 -87390.8 -85555.4 -83747.9 -81968.1 -80215.7 -78490.4 -76791.8 -75119.7 -73473.6 -71853.3 -70258.3 -68688.3 -67142.8 -65621.5 -64123.9 -62649.7 -61198.5 -59769.7 -58363.1 -56978.1 -55614.3 -54271.4 -52948.8 -51646.2 -50363.2 -49099.2 -47854 -46627 -45417.9 -44226.2 -43051.5 -41893.4 -40751.5 -39625.4 -38514.7 -37418.9 -36337.7 -35270.7 -34217.4 -33177.6 -32150.7 -31136.5 -30134.5 -29144.3 -28165.7 -27198.1 -26241.3 -25294.8 -24358.4 -23431.6 -22514.1 -21605.5 -20705.5 -19813.7 -18929.7 -18053.3 -17184.1 -16321.8 -15465.9 -14616.2 -13772.3 -12933.9 -12100.7 -11272.3 -10448.4 -9628.71 -8812.84 -8000.5 -7191.35 -6385.09 -5581.37 -4779.89 -3980.32 -3182.35 -2385.65 -1589.9 -794.792 0 -200000 -198201 -196326 -194387 -192385 -190322 -188202 -186027 -183803 -181532 -179220 -176870 -174487 -172075 -169637 -167179 -164702 -162213 -159713 -157206 -154696 -152186 -149679 -147176 -144682 -142199 -139728 -137271 -134831 -132409 -130007 -127626 -125267 -122931 -120620 -118335 -116075 -113842 -111637 -109459 -107309 -105187 -103094 -101030 -98994.1 -96987.5 -95009.6 -93060.6 -91140.2 -89248.4 -87384.9 -85549.6 -83742.2 -81962.5 -80210.2 -78485 -76786.5 -75114.5 -73468.6 -71848.4 -70253.5 -68683.6 -67138.2 -65617 -64119.6 -62645.5 -61194.3 -59765.7 -58359.1 -56974.2 -55610.5 -54267.7 -52945.2 -51642.7 -50359.8 -49095.9 -47850.8 -46623.9 -45414.9 -44223.2 -43048.6 -41890.6 -40748.8 -39622.8 -38512.1 -37416.4 -36335.3 -35268.4 -34215.2 -33175.4 -32148.6 -31134.5 -30132.5 -29142.5 -28163.9 -27196.4 -26239.6 -25293.2 -24356.8 -23430.1 -22512.6 -21604.1 -20704.1 -19812.4 -18928.5 -18052.2 -17183 -16320.7 -15464.9 -14615.3 -13771.4 -12933.1 -12099.9 -11271.6 -10447.8 -9628.1 -8812.29 -8000 -7190.91 -6384.69 -5581.03 -4779.6 -3980.08 -3182.15 -2385.5 -1589.8 -794.742 0 -200000 -198200 -196325 -194386 -192385 -190322 -188201 -186026 -183802 -181531 -179218 -176868 -174484 -172072 -169634 -167174 -164698 -162208 -159708 -157201 -154691 -152180 -149672 -147170 -144676 -142192 -139721 -137264 -134824 -132402 -130000 -127618 -125260 -122924 -120613 -118328 -116068 -113835 -111630 -109452 -107302 -105180 -103087 -101023 -98987.6 -96981 -95003.3 -93054.3 -91134.1 -89242.3 -87379 -85543.8 -83736.5 -81956.9 -80204.7 -78479.6 -76781.3 -75109.4 -73463.5 -71843.4 -70248.7 -68678.9 -67133.6 -65612.5 -64115.2 -62641.2 -61190.1 -59761.6 -58355.1 -56970.3 -55606.8 -54264 -52941.7 -51639.3 -50356.4 -49092.6 -47847.6 -46620.8 -45411.8 -44220.3 -43045.8 -41887.8 -40746.1 -39620.2 -38509.6 -37414 -36332.9 -35266 -34212.9 -33173.2 -32146.5 -31132.4 -30130.6 -29140.6 -28162 -27194.6 -26237.9 -25291.6 -24355.3 -23428.6 -22511.2 -21602.7 -20702.8 -19811.1 -18927.3 -18051 -17181.9 -16319.7 -15463.9 -14614.3 -13770.6 -12932.3 -12099.2 -11270.9 -10447.1 -9627.5 -8811.74 -7999.5 -7190.46 -6384.29 -5580.68 -4779.3 -3979.83 -3181.95 -2385.35 -1589.7 -794.693 0 -200000 -198199 -196325 -194386 -192385 -190322 -188201 -186026 -183800 -181529 -179216 -176865 -174481 -172068 -169630 -167170 -164693 -162203 -159702 -157195 -154685 -152174 -149666 -147164 -144669 -142185 -139714 -137257 -134817 -132395 -129993 -127611 -125252 -122917 -120606 -118321 -116061 -113828 -111623 -109445 -107295 -105173 -103081 -101016 -98981.1 -96974.6 -94996.9 -93048.1 -91127.9 -89236.3 -87373 -85537.9 -83730.8 -81951.3 -80199.2 -78474.2 -76776 -75104.2 -73458.5 -71838.5 -70243.8 -68674.1 -67129 -65608 -64110.8 -62636.9 -61185.9 -59757.5 -58351.1 -56966.4 -55603 -54260.3 -52938 -51635.7 -50353 -49089.3 -47844.3 -46617.6 -45408.8 -44217.3 -43042.9 -41885 -40743.4 -39617.5 -38507 -37411.5 -36330.5 -35263.7 -34210.7 -33171.1 -32144.4 -31130.4 -30128.6 -29138.7 -28160.2 -27192.8 -26236.2 -25290 -24353.7 -23427.1 -22509.7 -21601.3 -20701.5 -19809.9 -18926.1 -18049.9 -17180.9 -16318.7 -15462.9 -14613.4 -13769.7 -12931.5 -12098.4 -11270.2 -10446.5 -9626.89 -8811.18 -7998.99 -7190 -6383.89 -5580.33 -4779 -3979.58 -3181.75 -2385.2 -1589.6 -794.643 0 -200000 -198198 -196324 -194386 -192384 -190321 -188200 -186025 -183799 -181527 -179214 -176863 -174478 -172065 -169626 -167166 -164689 -162198 -159697 -157190 -154679 -152168 -149660 -147158 -144663 -142179 -139707 -137250 -134810 -132388 -129985 -127604 -125245 -122910 -120599 -118313 -116054 -113821 -111616 -109438 -107288 -105167 -103074 -101010 -98974.5 -96968.1 -94990.5 -93041.8 -91121.7 -89230.2 -87367.1 -85532.1 -83725.1 -81945.7 -80193.7 -78468.8 -76770.7 -75099 -73453.4 -71833.5 -70239 -68669.4 -67124.3 -65603.5 -64106.3 -62632.6 -61181.7 -59753.4 -58347.1 -56962.5 -55599.2 -54256.6 -52934.4 -51632.2 -50349.5 -49086 -47841.1 -46614.5 -45405.7 -44214.3 -43040 -41882.2 -40740.7 -39614.9 -38504.4 -37409 -36328.1 -35261.4 -34208.4 -33168.9 -32142.3 -31128.4 -30126.6 -29136.8 -28158.4 -27191.1 -26234.5 -25288.3 -24352.1 -23425.6 -22508.3 -21599.9 -20700.2 -19808.6 -18924.9 -18048.7 -17179.8 -16317.6 -15462 -14612.5 -13768.8 -12930.7 -12097.6 -11269.5 -10445.8 -9626.28 -8810.63 -7998.49 -7189.55 -6383.49 -5579.97 -4778.7 -3979.33 -3181.55 -2385.05 -1589.5 -794.593 0 -200000 -198197 -196324 -194386 -192384 -190321 -188200 -186024 -183798 -181526 -179212 -176860 -174476 -172062 -169622 -167162 -164684 -162193 -159692 -157184 -154674 -152162 -149654 -147151 -144656 -142172 -139700 -137243 -134803 -132381 -129978 -127597 -125238 -122903 -120592 -118306 -116047 -113814 -111609 -109431 -107281 -105160 -103067 -101003 -98967.9 -96961.6 -94984.2 -93035.5 -91115.5 -89224.1 -87361.1 -85526.2 -83719.3 -81940 -80188.2 -78463.4 -76765.4 -75093.8 -73448.3 -71828.5 -70234.1 -68664.6 -67119.7 -65598.9 -64101.9 -62628.2 -61177.5 -59749.2 -58343.1 -56958.6 -55595.3 -54252.9 -52930.8 -51628.7 -50346.1 -49082.6 -47837.8 -46611.3 -45402.6 -44211.3 -43037.1 -41879.4 -40737.9 -39612.2 -38501.9 -37406.5 -36325.7 -35259 -34206.2 -33166.7 -32140.2 -31126.3 -30124.6 -29134.8 -28156.5 -27189.3 -26232.8 -25286.7 -24350.5 -23424 -22506.8 -21598.5 -20698.8 -19807.3 -18923.7 -18047.6 -17178.6 -16316.6 -15461 -14611.5 -13767.9 -12929.8 -12096.9 -11268.7 -10445.1 -9625.67 -8810.07 -7997.98 -7189.09 -6383.08 -5579.62 -4778.39 -3979.08 -3181.35 -2384.9 -1589.4 -794.543 0 -200000 -198196 -196323 -194386 -192384 -190321 -188199 -186023 -183797 -181524 -179210 -176858 -174473 -172058 -169619 -167158 -164680 -162189 -159687 -157179 -154668 -152156 -149648 -147145 -144650 -142165 -139694 -137236 -134796 -132374 -129971 -127590 -125231 -122896 -120585 -118299 -116040 -113807 -111602 -109424 -107274 -105153 -103060 -100996 -98961.3 -96955.1 -94977.7 -93029.2 -91109.3 -89218 -87355.1 -85520.3 -83713.5 -81934.4 -80182.6 -78457.9 -76760.1 -75088.6 -73443.2 -71823.5 -70229.2 -68659.8 -67115 -65594.4 -64097.4 -62623.9 -61173.2 -59745.1 -58339 -56954.6 -55591.5 -54249.1 -52927.2 -51625.1 -50342.7 -49079.3 -47834.6 -46608.1 -45399.5 -44208.3 -43034.2 -41876.6 -40735.2 -39609.5 -38499.3 -37404 -36323.2 -35256.7 -34203.9 -33164.5 -32138 -31124.2 -30122.7 -29132.9 -28154.7 -27187.5 -26231.1 -25285 -24348.9 -23422.5 -22505.4 -21597.1 -20697.5 -19806 -18922.5 -18046.4 -17177.5 -16315.5 -15460 -14610.6 -13767.1 -12929 -12096.1 -11268 -10444.5 -9625.06 -8809.5 -7997.47 -7188.64 -6382.67 -5579.27 -4778.09 -3978.82 -3181.15 -2384.75 -1589.3 -794.492 0 -200000 -198195 -196323 -194386 -192384 -190321 -188199 -186022 -183795 -181523 -179208 -176855 -174470 -172055 -169615 -167154 -164676 -162184 -159682 -157174 -154662 -152151 -149642 -147138 -144643 -142159 -139687 -137230 -134789 -132367 -129964 -127583 -125224 -122888 -120577 -118292 -116033 -113800 -111594 -109417 -107267 -105146 -103053 -100990 -98954.7 -96948.5 -94971.3 -93022.8 -91103.1 -89211.9 -87349.1 -85514.4 -83707.7 -81928.7 -80177 -78452.5 -76754.7 -75083.3 -73438.1 -71818.5 -70224.3 -68655 -67110.3 -65589.8 -64093 -62619.5 -61169 -59740.9 -58335 -56950.7 -55587.6 -54245.4 -52923.5 -51621.6 -50339.2 -49075.9 -47831.3 -46604.9 -45396.4 -44205.3 -43031.2 -41873.7 -40732.4 -39606.9 -38496.7 -37401.4 -36320.8 -35254.3 -34201.6 -33162.2 -32135.9 -31122.2 -30120.6 -29131 -28152.8 -27185.7 -26229.3 -25283.3 -24347.3 -23421 -22503.9 -21595.7 -20696.1 -19804.7 -18921.2 -18045.2 -17176.4 -16314.5 -15459 -14609.7 -13766.2 -12928.2 -12095.3 -11267.3 -10443.8 -9624.44 -8808.94 -7996.96 -7188.18 -6382.27 -5578.91 -4777.78 -3978.57 -3180.95 -2384.6 -1589.2 -794.442 0 -200000 -198194 -196323 -194386 -192384 -190321 -188199 -186022 -183794 -181521 -179206 -176853 -174467 -172052 -169611 -167150 -164671 -162179 -159677 -157168 -154656 -152145 -149636 -147132 -144637 -142152 -139680 -137223 -134782 -132359 -129957 -127575 -125217 -122881 -120570 -118285 -116025 -113793 -111587 -109410 -107260 -105139 -103047 -100983 -98948 -96942 -94964.8 -93016.5 -91096.8 -89205.7 -87343 -85508.5 -83701.9 -81923 -80171.4 -78447 -76749.3 -75078.1 -73432.9 -71813.5 -70219.4 -68650.2 -67105.6 -65585.2 -64088.5 -62615.1 -61164.7 -59736.8 -58330.9 -56946.7 -55583.8 -54241.6 -52919.8 -51618 -50335.7 -49072.5 -47828 -46601.7 -45393.3 -44202.3 -43028.3 -41870.9 -40729.6 -39604.2 -38494.1 -37398.9 -36318.3 -35251.9 -34199.3 -33160 -32133.7 -31120.1 -30118.6 -29129 -28150.9 -27183.9 -26227.6 -25281.7 -24345.7 -23419.4 -22502.4 -21594.3 -20694.8 -19803.4 -18920 -18044.1 -17175.3 -16313.4 -15458 -14608.7 -13765.3 -12927.3 -12094.5 -11266.6 -10443.1 -9623.82 -8808.37 -7996.44 -7187.71 -6381.86 -5578.55 -4777.48 -3978.31 -3180.74 -2384.44 -1589.1 -794.391 0 -200000 -198194 -196322 -194386 -192384 -190321 -188198 -186021 -183793 -181519 -179204 -176851 -174464 -172048 -169608 -167146 -164667 -162174 -159672 -157163 -154651 -152139 -149629 -147126 -144630 -142145 -139673 -137216 -134775 -132352 -129950 -127568 -125209 -122874 -120563 -118277 -116018 -113786 -111580 -109403 -107253 -105132 -103040 -100976 -98941.3 -96935.4 -94958.4 -93010.1 -91090.6 -89199.6 -87337 -85502.5 -83696 -81917.2 -80165.8 -78441.5 -76743.9 -75072.8 -73427.8 -71808.4 -70214.4 -68645.4 -67100.9 -65580.6 -64084 -62610.7 -61160.4 -59732.6 -58326.8 -56942.7 -55579.9 -54237.8 -52916.1 -51614.4 -50332.2 -49069.1 -47824.7 -46598.5 -45390.2 -44199.2 -43025.3 -41868 -40726.8 -39601.5 -38491.4 -37396.4 -36315.9 -35249.5 -34197 -33157.8 -32131.6 -31118 -30116.6 -29127.1 -28149 -27182.1 -26225.9 -25280 -24344.1 -23417.9 -22500.9 -21592.9 -20693.4 -19802.1 -18918.8 -18042.9 -17174.2 -16312.3 -15457 -14607.8 -13764.4 -12926.5 -12093.8 -11265.8 -10442.4 -9623.2 -8807.8 -7995.93 -7187.25 -6381.44 -5578.19 -4777.17 -3978.06 -3180.54 -2384.29 -1589 -794.339 0 -200000 -198193 -196322 -194386 -192385 -190321 -188198 -186020 -183792 -181518 -179202 -176848 -174461 -172045 -169604 -167142 -164662 -162169 -159667 -157157 -154645 -152133 -149623 -147119 -144624 -142139 -139666 -137209 -134768 -132345 -129942 -127561 -125202 -122867 -120556 -118270 -116011 -113778 -111573 -109396 -107246 -105125 -103033 -100969 -98934.7 -96928.8 -94951.9 -93003.7 -91084.3 -89193.4 -87330.9 -85496.6 -83690.2 -81911.5 -80160.2 -78436 -76738.5 -75067.5 -73422.6 -71803.3 -70209.5 -68640.5 -67096.1 -65575.9 -64079.4 -62606.3 -61156.1 -59728.4 -58322.7 -56938.7 -55576 -54234 -52912.4 -51610.8 -50328.7 -49065.7 -47821.3 -46595.3 -45387 -44196.2 -43022.4 -41865.1 -40724 -39598.7 -38488.8 -37393.8 -36313.4 -35247.1 -34194.6 -33155.5 -32129.4 -31115.9 -30114.6 -29125.1 -28147.2 -27180.3 -26224.1 -25278.3 -24342.5 -23416.3 -22499.4 -21591.4 -20692 -19800.8 -18917.5 -18041.7 -17173.1 -16311.3 -15456 -14606.8 -13763.5 -12925.6 -12093 -11265.1 -10441.8 -9622.57 -8807.23 -7995.41 -7186.78 -6381.03 -5577.83 -4776.86 -3977.8 -3180.33 -2384.14 -1588.89 -794.288 0 -200000 -198193 -196322 -194386 -192385 -190321 -188198 -186020 -183791 -181517 -179200 -176846 -174458 -172042 -169600 -167138 -164658 -162165 -159662 -157152 -154639 -152127 -149617 -147113 -144617 -142132 -139659 -137202 -134761 -132338 -129935 -127554 -125195 -122859 -120548 -118263 -116004 -113771 -111566 -109389 -107239 -105118 -103026 -100963 -98927.9 -96922.2 -94945.3 -92997.3 -91077.9 -89187.2 -87324.8 -85490.6 -83684.3 -81905.7 -80154.5 -78430.4 -76733.1 -75062.2 -73417.4 -71798.3 -70204.5 -68635.7 -67091.4 -65571.3 -64074.9 -62601.9 -61151.8 -59724.1 -58318.6 -56934.7 -55572.1 -54230.2 -52908.7 -51607.2 -50325.2 -49062.3 -47818 -46592 -45383.9 -44193.1 -43019.4 -41862.2 -40721.2 -39596 -38486.2 -37391.3 -36310.9 -35244.7 -34192.3 -33153.3 -32127.2 -31113.8 -30112.6 -29123.2 -28145.3 -27178.4 -26222.3 -25276.6 -24340.9 -23414.8 -22497.9 -21590 -20690.7 -19799.5 -18916.3 -18040.5 -17171.9 -16310.2 -15454.9 -14605.8 -13762.6 -12924.8 -12092.2 -11264.4 -10441.1 -9621.94 -8806.66 -7994.89 -7186.31 -6380.61 -5577.47 -4776.55 -3977.54 -3180.12 -2383.98 -1588.79 -794.236 0 -200000 -198192 -196322 -194386 -192385 -190321 -188197 -186019 -183790 -181515 -179198 -176844 -174456 -172039 -169597 -167134 -164653 -162160 -159656 -157147 -154634 -152121 -149611 -147107 -144611 -142125 -139652 -137195 -134754 -132331 -129928 -127546 -125187 -122852 -120541 -118256 -115996 -113764 -111559 -109381 -107232 -105111 -103019 -100956 -98921.2 -96915.6 -94938.8 -92990.9 -91071.6 -89180.9 -87318.7 -85484.6 -83678.4 -81899.9 -80148.8 -78424.9 -76727.6 -75056.9 -73412.1 -71793.1 -70199.5 -68630.8 -67086.6 -65566.6 -64070.3 -62597.4 -61147.4 -59719.9 -58314.5 -56930.7 -55568.1 -54226.4 -52905 -51603.6 -50321.6 -49058.8 -47814.7 -46588.8 -45380.7 -44190 -43016.4 -41859.3 -40718.4 -39593.3 -38483.5 -37388.7 -36308.4 -35242.3 -34190 -33151 -32125 -31111.7 -30110.5 -29121.2 -28143.4 -27176.6 -26220.6 -25274.9 -24339.2 -23413.2 -22496.4 -21588.6 -20689.3 -19798.2 -18915 -18039.3 -17170.8 -16309.1 -15453.9 -14604.9 -13761.7 -12923.9 -12091.4 -11263.6 -10440.4 -9621.31 -8806.08 -7994.36 -7185.84 -6380.2 -5577.1 -4776.24 -3977.28 -3179.92 -2383.83 -1588.69 -794.185 0 -200000 -198192 -196322 -194386 -192385 -190321 -188197 -186019 -183789 -181514 -179196 -176841 -174453 -172036 -169593 -167130 -164649 -162155 -159651 -157141 -154628 -152115 -149605 -147100 -144604 -142118 -139646 -137188 -134746 -132324 -129921 -127539 -125180 -122845 -120534 -118248 -115989 -113757 -111552 -109374 -107225 -105104 -103012 -100949 -98914.5 -96908.9 -94932.2 -92984.4 -91065.3 -89174.7 -87312.5 -85478.5 -83672.5 -81894.1 -80143.1 -78419.3 -76722.2 -75051.5 -73406.9 -71788 -70194.5 -68625.9 -67081.8 -65561.9 -64065.8 -62593 -61143.1 -59715.7 -58310.3 -56926.6 -55564.2 -54222.5 -52901.2 -51599.9 -50318.1 -49055.4 -47811.3 -46585.5 -45377.5 -44187 -43013.4 -41856.4 -40715.6 -39590.5 -38480.8 -37386.1 -36305.9 -35239.9 -34187.6 -33148.7 -32122.8 -31109.5 -30108.5 -29119.2 -28141.4 -27174.8 -26218.8 -25273.2 -24337.6 -23411.6 -22494.9 -21587.1 -20687.9 -19796.9 -18913.7 -18038.1 -17169.6 -16308 -15452.9 -14603.9 -13760.8 -12923.1 -12090.6 -11262.9 -10439.7 -9620.68 -8805.5 -7993.84 -7185.37 -6379.78 -5576.73 -4775.92 -3977.02 -3179.71 -2383.67 -1588.58 -794.133 0 -200000 -198191 -196322 -194387 -192385 -190321 -188197 -186018 -183788 -181512 -179194 -176839 -174450 -172032 -169589 -167126 -164645 -162150 -159646 -157136 -154622 -152109 -149598 -147094 -144597 -142112 -139639 -137181 -134739 -132316 -129913 -127532 -125173 -122837 -120526 -118241 -115982 -113749 -111544 -109367 -107218 -105097 -103005 -100942 -98907.7 -96902.2 -94925.7 -92977.9 -91058.9 -89168.4 -87306.4 -85472.5 -83666.5 -81888.3 -80137.4 -78413.7 -76716.7 -75046.1 -73401.6 -71782.9 -70189.4 -68620.9 -67077 -65557.2 -64061.2 -62588.5 -61138.7 -59711.4 -58306.2 -56922.6 -55560.2 -54218.7 -52897.5 -51596.2 -50314.5 -49051.9 -47807.9 -46582.2 -45374.3 -44183.9 -43010.4 -41853.5 -40712.7 -39587.8 -38478.2 -37383.5 -36303.4 -35237.5 -34185.3 -33146.5 -32120.6 -31107.4 -30106.4 -29117.2 -28139.5 -27172.9 -26217 -25271.5 -24335.9 -23410 -22493.4 -21585.7 -20686.5 -19795.6 -18912.5 -18036.9 -17168.5 -16306.9 -15451.9 -14602.9 -13759.8 -12922.2 -12089.8 -11262.1 -10439 -9620.04 -8804.92 -7993.31 -7184.9 -6379.36 -5576.37 -4775.61 -3976.76 -3179.5 -2383.51 -1588.48 -794.08 0 -200000 -198191 -196322 -194387 -192386 -190321 -188197 -186018 -183787 -181511 -179193 -176837 -174447 -172029 -169586 -167122 -164640 -162146 -159641 -157130 -154617 -152103 -149592 -147087 -144591 -142105 -139632 -137174 -134732 -132309 -129906 -127525 -125165 -122830 -120519 -118234 -115974 -113742 -111537 -109360 -107211 -105090 -102998 -100935 -98900.9 -96895.5 -94919.1 -92971.4 -91052.5 -89162.1 -87300.2 -85466.4 -83660.6 -81882.4 -80131.7 -78408.1 -76711.2 -75040.7 -73396.4 -71777.7 -70184.4 -68616 -67072.2 -65552.5 -64056.6 -62584 -61134.3 -59707.1 -58302 -56918.5 -55556.3 -54214.8 -52893.7 -51592.6 -50310.9 -49048.4 -47804.5 -46578.9 -45371.1 -44180.7 -43007.3 -41850.5 -40709.9 -39585 -38475.5 -37380.9 -36300.9 -35235 -34182.9 -33144.2 -32118.4 -31105.3 -30104.3 -29115.2 -28137.6 -27171.1 -26215.2 -25269.8 -24334.3 -23408.4 -22491.9 -21584.2 -20685.1 -19794.2 -18911.2 -18035.7 -17167.3 -16305.8 -15450.8 -14602 -13758.9 -12921.4 -12089 -11261.4 -10438.3 -9619.4 -8804.33 -7992.78 -7184.42 -6378.93 -5576 -4775.29 -3976.49 -3179.29 -2383.35 -1588.37 -794.028 0 -200000 -198190 -196322 -194387 -192386 -190321 -188197 -186017 -183787 -181510 -179191 -176834 -174445 -172026 -169582 -167118 -164636 -162141 -159636 -157125 -154611 -152097 -149586 -147081 -144584 -142098 -139625 -137167 -134725 -132302 -129899 -127517 -125158 -122823 -120512 -118226 -115967 -113735 -111530 -109353 -107204 -105083 -102991 -100928 -98894.1 -96888.8 -94912.4 -92964.9 -91046.1 -89155.8 -87294 -85460.3 -83654.6 -81876.6 -80125.9 -78402.4 -7