<?xml version="1.0"?> 
<VTKFile type="StructuredGrid" version="0.1"> 
<StructuredGrid WholeExtent="0 127 0 127 0 0"> 
<Piece Extent="0 127 0 127 0 0"> 
<PointData>
<DataArray type="Float32" Name="u" format="ascii" NumberOfComponents="1"> 
-200000 -197415 -194945 -192545 -190202 -187909 -185663 -183458 -181292 -179162 -177065 -174999 -172963 -170955 -168973 -167015 -165081 -163169 -161278 -159407 -157554 -155720 -153903 -152103 -150319 -148549 -146794 -145053 -143325 -141610 -139907 -138216 -136537 -134868 -133210 -131562 -129924 -128296 -126677 -125066 -123464 -121871 -120285 -118707 -117137 -115574 -114018 -112469 -110927 -109391 -107861 -106338 -104820 -103308 -101802 -100301 -98805.1 -97314.5 -95828.9 -94348.1 -92872 -91400.5 -89933.4 -88470.7 -87012.1 -85557.7 -84107.2 -82660.6 -81217.7 -79778.6 -78342.9 -76910.8 -75482.1 -74056.6 -72634.3 -71215.1 -69799 -68385.8 -66975.4 -65567.8 -64162.9 -62760.7 -61361 -59963.7 -58568.9 -57176.4 -55786.1 -54398.1 -53012.1 -51628.3 -50246.4 -48866.4 -47488.4 -46112.1 -44737.6 -43364.8 -41993.6 -40623.9 -39255.8 -37889.1 -36523.9 -35160 -33797.3 -32435.9 -31075.7 -29716.6 -28358.6 -27001.6 -25645.6 -24290.5 -22936.3 -21582.9 -20230.3 -18878.4 -17527.1 -16176.5 -14826.5 -13476.9 -12127.9 -10779.3 -9431.03 -8083.12 -6735.5 -5388.12 -4040.92 -2693.87 -1346.91 0 -200000 -197626 -195271 -192951 -190667 -188421 -186211 -184036 -181893 -179782 -177700 -175646 -173619 -171618 -169641 -167686 -165754 -163843 -161951 -160079 -158225 -156389 -154569 -152765 -150976 -149202 -147442 -145696 -143963 -142242 -140534 -138837 -137151 -135477 -133812 -132158 -130514 -128878 -127253 -125635 -124027 -122426 -120834 -119249 -117672 -116102 -114539 -112983 -111434 -109891 -108355 -106824 -105300 -103781 -102267 -100760 -99256.9 -97759.5 -96267 -94779.3 -93296.4 -91818.1 -90344.2 -88874.6 -87409.3 -85948.1 -84490.9 -83037.6 -81588 -80142.2 -78699.9 -77261.1 -75825.8 -74393.7 -72964.8 -71539.1 -70116.4 -68696.6 -67279.7 -65865.7 -64454.3 -63045.6 -61639.4 -60235.7 -58834.5 -57435.6 -56038.9 -54644.5 -53252.2 -51862 -50473.8 -49087.6 -47703.2 -46320.6 -44939.9 -43560.8 -42183.3 -40807.4 -39433.1 -38060.2 -36688.8 -35318.6 -33949.8 -32582.3 -31215.9 -29850.6 -28486.5 -27123.3 -25761.2 -24400 -23039.6 -21680.1 -20321.4 -18963.4 -17606 -16249.3 -14893.2 -13537.6 -12182.5 -10827.8 -9473.48 -8119.5 -6765.81 -5412.37 -4059.11 -2705.99 -1352.97 0 -200000 -197740 -195485 -193245 -191026 -188832 -186664 -184524 -182410 -180322 -178259 -176222 -174208 -172217 -170248 -168300 -166373 -164465 -162576 -160705 -158851 -157014 -155193 -153387 -151596 -149820 -148057 -146307 -144570 -142845 -141132 -139430 -137739 -136059 -134389 -132730 -131079 -129439 -127807 -126183 -124569 -122962 -121364 -119773 -118189 -116613 -115044 -113481 -111926 -110376 -108833 -107296 -105765 -104240 -102720 -101205 -99696.4 -98192.3 -96693.3 -95199.2 -93709.7 -92224.8 -90744.5 -89268.4 -87796.6 -86328.9 -84865.2 -83405.5 -81949.5 -80497.2 -79048.5 -77603.3 -76161.5 -74723.1 -73287.8 -71855.7 -70426.7 -69000.6 -67577.4 -66157 -64739.4 -63324.3 -61911.9 -60502 -59094.5 -57689.3 -56286.5 -54885.9 -53487.4 -52091 -50696.6 -49304.2 -47913.7 -46525 -45138.1 -43752.9 -42369.3 -40987.3 -39606.9 -38228 -36850.4 -35474.2 -34099.4 -32725.8 -31353.3 -29982.1 -28611.9 -27242.7 -25874.6 -24507.4 -23141 -21775.5 -20410.8 -19046.8 -17683.5 -16320.8 -14958.7 -13597.1 -12236 -10875.4 -9515.13 -8155.2 -6795.56 -5436.16 -4076.95 -2717.89 -1358.92 0 -200000 -197819 -195639 -193467 -191308 -189165 -187041 -184937 -182854 -180792 -178752 -176733 -174735 -172758 -170800 -168861 -166941 -165039 -163154 -161286 -159435 -157599 -155779 -153973 -152181 -150403 -148637 -146885 -145145 -143417 -141701 -139995 -138300 -136616 -134942 -133277 -131622 -129976 -128339 -126711 -125091 -123479 -121874 -120278 -118689 -117107 -115531 -113963 -112401 -110846 -109297 -107754 -106217 -104685 -103159 -101639 -100123 -98613.2 -97107.9 -95607.6 -94111.9 -92620.9 -91134.3 -89652 -88174 -86700.1 -85230.2 -83764.2 -82302 -80843.6 -79388.7 -77937.3 -76489.4 -75044.7 -73603.3 -72165.1 -70729.9 -69297.7 -67868.3 -66441.8 -65018.1 -63597 -62178.4 -60762.4 -59348.9 -57937.7 -56528.7 -55122.1 -53717.6 -52315.1 -50914.8 -49516.3 -48119.8 -46725.1 -45332.2 -43941 -42551.5 -41163.6 -39777.2 -38392.3 -37008.8 -35626.7 -34245.9 -32866.4 -31488.1 -30110.9 -28734.8 -27359.8 -25985.7 -24612.6 -23240.4 -21869 -20498.5 -19128.6 -17759.4 -16390.9 -15022.9 -13655.5 -12288.6 -10922.1 -9555.98 -8190.21 -6824.73 -5459.5 -4094.45 -2729.56 -1364.75 0 -200000 -197880 -195760 -193644 -191536 -189440 -187356 -185288 -183237 -181203 -179187 -177188 -175208 -173245 -171300 -169372 -167461 -165567 -163688 -161826 -159978 -158145 -156326 -154522 -152730 -150952 -149186 -147433 -145691 -143961 -142242 -140533 -138835 -137148 -135470 -133801 -132142 -130492 -128850 -127217 -125593 -123976 -122366 -120765 -119170 -117583 -116003 -114429 -112862 -111301 -109746 -108197 -106654 -105117 -103585 -102059 -100538 -99021.9 -97510.8 -96004.6 -94503 -93006.1 -91513.5 -90025.4 -88541.4 -87061.6 -85585.7 -84113.8 -82645.7 -81181.3 -79720.4 -78263.1 -76809.2 -75358.6 -73911.3 -72467.1 -71025.9 -69587.8 -68152.5 -66720.1 -65290.4 -63863.4 -62439 -61017 -59597.6 -58180.5 -56765.7 -55353.1 -53942.7 -52534.4 -51128.2 -49723.9 -48321.5 -46921 -45522.3 -44125.3 -42729.9 -41336.2 -39944 -38553.3 -37164 -35776.1 -34389.5 -33004.2 -31620.1 -30237.1 -28855.3 -27474.5 -26094.7 -24715.8 -23337.8 -21960.7 -20584.4 -19208.8 -17833.9 -16459.6 -15085.9 -13712.7 -12340.1 -10967.9 -9596.03 -8224.54 -6853.34 -5482.38 -4111.61 -2740.99 -1370.47 0 -200000 -197930 -195859 -193790 -191726 -189671 -187625 -185591 -183570 -181563 -179571 -177593 -175632 -173685 -171754 -169838 -167938 -166052 -164181 -162325 -160482 -158654 -156838 -155036 -153246 -151469 -149704 -147950 -146207 -144476 -142756 -141045 -139345 -137655 -135974 -134302 -132640 -130986 -129341 -127704 -126075 -124453 -122840 -121234 -119635 -118042 -116457 -114878 -113306 -111740 -110180 -108626 -107078 -105536 -103998 -102467 -100940 -99418.6 -97902 -96390.2 -94883 -93380.5 -91882.3 -90388.5 -88898.9 -87413.4 -85931.9 -84454.3 -82980.4 -81510.3 -80043.7 -78580.7 -77121.1 -75664.7 -74211.7 -72761.7 -71314.9 -69871 -68430 -66991.8 -65556.4 -64123.6 -62693.5 -61265.8 -59840.6 -58417.8 -56997.3 -55579 -54162.9 -52748.9 -51336.9 -49926.9 -48518.9 -47112.7 -45708.2 -44305.5 -42904.5 -41505.1 -40107.2 -38710.8 -37315.9 -35922.3 -34530.1 -33139.1 -31749.3 -30360.7 -28973.2 -27586.8 -26201.4 -24816.9 -23433.3 -22050.5 -20668.5 -19287.3 -17906.8 -16526.9 -15147.6 -13768.8 -12390.5 -11012.7 -9635.27 -8258.17 -6881.36 -5504.8 -4128.43 -2752.2 -1376.08 0 -200000 -197971 -195941 -193913 -191888 -189869 -187857 -185854 -183862 -181881 -179912 -177956 -176012 -174083 -172166 -170264 -168375 -166499 -164637 -162787 -160951 -159128 -157316 -155517 -153730 -151955 -150191 -148438 -146696 -144964 -143243 -141532 -139830 -138138 -136455 -134781 -133116 -131459 -129811 -128170 -126538 -124913 -123295 -121685 -120082 -118485 -116896 -115312 -113735 -112165 -110600 -109041 -107488 -105941 -104399 -102862 -101330 -99803.3 -98281.5 -96764.4 -95252 -93744.1 -92240.7 -90741.5 -89246.5 -87755.6 -86268.6 -84785.5 -83306.2 -81830.6 -80358.6 -78890.1 -77424.9 -75963.1 -74504.5 -73049 -71596.6 -70147.2 -68700.6 -67256.9 -65815.9 -64377.6 -62941.9 -61508.7 -60078 -58649.6 -57223.5 -55799.7 -54378 -52958.5 -51540.9 -50125.4 -48711.8 -47300 -45890 -44481.8 -43075.2 -41670.3 -40266.9 -38864.9 -37464.5 -36065.4 -34667.6 -33271.1 -31875.8 -30481.7 -29088.7 -27696.7 -26305.8 -24915.8 -23526.7 -22138.4 -20750.9 -19364.2 -17978.2 -16592.8 -15208 -13823.7 -12440 -11056.6 -9673.69 -8291.1 -6908.8 -5526.75 -4144.89 -2763.18 -1381.57 0 -200000 -198007 -196012 -194018 -192027 -190040 -188059 -186085 -184119 -182163 -180216 -178280 -176356 -174442 -172541 -170652 -168775 -166910 -165057 -163215 -161386 -159569 -157763 -155968 -154185 -152412 -150650 -148899 -147158 -145427 -143705 -141994 -140291 -138598 -136913 -135238 -133570 -131911 -130260 -128617 -126981 -125353 -123732 -122119 -120512 -118911 -117318 -115731 -114150 -112575 -111006 -109442 -107885 -106333 -104786 -103244 -101708 -100176 -98649.4 -97127.4 -95610 -94097.1 -92588.6 -91084.3 -89584.2 -88088.1 -86596 -85107.7 -83623.2 -82142.3 -80665 -79191.2 -77720.8 -76253.7 -74789.7 -73329 -71871.2 -70416.4 -68964.5 -67515.5 -66069.1 -64625.4 -63184.3 -61745.7 -60309.6 -58875.8 -57444.4 -56015.2 -54588.1 -53163.1 -51740.2 -50319.3 -48900.3 -47483.1 -46067.7 -44654.1 -43242.1 -41831.8 -40422.9 -39015.6 -37609.8 -36205.3 -34802.1 -33400.2 -31999.5 -30600 -29201.6 -27804.3 -26408 -25012.6 -23618.1 -22224.4 -20831.6 -19439.5 -18048.1 -16657.3 -15267.1 -13877.5 -12488.3 -11099.6 -9711.31 -8323.34 -6935.67 -5548.24 -4161.01 -2773.92 -1386.94 0 -200000 -198037 -196074 -194111 -192149 -190191 -188237 -186289 -184348 -182414 -180489 -178573 -176666 -174769 -172883 -171007 -169142 -167288 -165444 -163612 -161790 -159980 -158179 -156390 -154610 -152841 -151082 -149333 -147594 -145864 -144143 -142432 -140729 -139035 -137350 -135673 -134004 -132343 -130690 -129045 -127407 -125776 -124152 -122535 -120925 -119322 -117724 -116134 -114549 -112970 -111397 -109830 -108268 -106711 -105160 -103614 -102073 -100537 -99005.9 -97479.2 -95957.1 -94439.5 -92926.1 -91417 -89912.1 -88411.1 -86914 -85420.8 -83931.3 -82445.4 -80963.1 -79484.2 -78008.7 -76536.5 -75067.5 -73601.6 -72138.7 -70678.8 -69221.7 -67767.4 -66315.9 -64867 -63420.7 -61976.9 -60535.6 -59096.6 -57659.9 -56225.4 -54793.1 -53363 -51934.8 -50508.6 -49084.4 -47661.9 -46241.3 -44822.4 -43405.2 -41989.5 -40575.5 -39162.9 -37751.8 -36342 -34933.6 -33526.4 -32120.5 -30715.7 -29312.1 -27909.5 -26507.9 -25107.2 -23707.5 -22308.5 -20910.4 -19513.1 -18116.4 -16720.4 -15324.9 -13930 -12535.6 -11141.7 -9748.1 -8354.88 -6961.95 -5569.27 -4176.78 -2784.44 -1392.19 0 -200000 -198065 -196128 -194192 -192257 -190324 -188396 -186471 -184552 -182640 -180735 -178837 -176947 -175067 -173195 -171332 -169480 -167636 -165803 -163979 -162166 -160362 -158568 -156784 -155009 -153244 -151489 -149742 -148005 -146277 -144558 -142847 -141145 -139451 -137765 -136088 -134418 -132756 -131101 -129454 -127814 -126181 -124555 -122935 -121322 -119716 -118115 -116521 -114933 -113351 -111774 -110203 -108638 -107077 -105522 -103972 -102427 -100887 -99350.9 -97819.9 -96293.4 -94771.3 -93253.5 -91739.8 -90230.2 -88724.6 -87222.8 -85724.9 -84230.6 -82740 -81252.9 -79769.1 -78288.8 -76811.7 -75337.7 -73866.9 -72399 -70934.2 -69472.1 -68012.9 -66556.3 -65102.5 -63651.1 -62202.3 -60755.9 -59311.8 -57870.1 -56430.5 -54993.2 -53557.9 -52124.6 -50693.4 -49264 -47836.5 -46410.7 -44986.7 -43564.4 -42143.6 -40724.4 -39306.7 -37890.5 -36475.6 -35062 -33649.8 -32238.7 -30828.8 -29420 -28012.2 -26605.5 -25199.7 -23794.8 -22390.8 -20987.5 -19585 -18183.2 -16782 -15381.5 -13981.4 -12581.9 -11182.8 -9784.08 -8385.72 -6987.65 -5589.83 -4192.2 -2794.72 -1397.33 0 -200000 -198089 -196177 -194264 -192353 -190444 -188537 -186635 -184737 -182844 -180957 -179077 -177204 -175338 -173481 -171631 -169790 -167958 -166135 -164320 -162515 -160718 -158931 -157153 -155383 -153623 -151871 -150128 -148393 -146667 -144950 -143240 -141539 -139846 -138160 -136483 -134812 -133149 -131494 -129845 -128204 -126569 -124940 -123319 -121703 -120094 -118491 -116894 -115303 -113718 -112138 -110563 -108994 -107430 -105872 -104318 -102769 -101224 -99684.8 -98149.7 -96619.1 -95092.7 -93570.6 -92052.7 -90538.7 -89028.7 -87522.5 -86020 -84521.3 -83026 -81534.3 -80046 -78560.9 -77079.1 -75600.5 -74124.9 -72652.3 -71182.7 -69715.9 -68251.8 -66790.4 -65331.7 -63875.5 -62421.8 -60970.5 -59521.6 -58074.9 -56630.5 -55188.2 -53748 -52309.8 -50873.6 -49439.2 -48006.8 -46576 -45147.1 -43719.7 -42294 -40869.8 -39447.2 -38025.9 -36606 -35187.5 -33770.2 -32354.1 -30939.2 -29525.4 -28112.6 -26700.9 -25290.1 -23880.2 -22471.1 -21062.9 -19655.3 -18248.5 -16842.3 -15436.7 -14031.7 -12627.1 -11223 -9819.24 -8415.86 -7012.77 -5609.92 -4207.27 -2804.76 -1402.36 0 -200000 -198111 -196220 -194329 -192439 -190551 -188665 -186782 -184903 -183029 -181159 -179295 -177438 -175587 -173743 -171906 -170077 -168255 -166442 -164637 -162839 -161051 -159270 -157498 -155734 -153978 -152230 -150491 -148760 -147036 -145321 -143613 -141913 -140221 -138536 -136858 -135188 -133525 -131868 -130219 -128576 -126940 -125310 -123687 -122069 -120458 -118853 -117253 -115659 -114071 -112488 -110911 -109338 -107771 -106209 -104651 -103099 -101551 -100008 -98468.7 -96934.2 -95403.9 -93877.8 -92355.7 -90837.6 -89323.5 -87813 -86306.3 -84803.2 -83303.7 -81807.6 -80314.8 -78825.3 -77339 -75855.9 -74375.8 -72898.6 -71424.4 -69952.9 -68484.3 -67018.2 -65554.8 -64094 -62635.6 -61179.6 -59725.9 -58274.5 -56825.3 -55378.2 -53933.2 -52490.2 -51049.2 -49610.1 -48172.8 -46737.3 -45303.4 -43871.3 -42440.7 -41011.7 -39584.1 -38158 -36733.3 -35309.9 -33887.7 -32466.8 -31047 -29628.3 -28210.7 -26794 -25378.3 -23963.5 -22549.6 -21136.4 -19724 -18312.3 -16901.2 -15490.7 -14080.7 -12671.2 -11262.2 -9853.59 -8445.3 -7037.3 -5629.55 -4221.99 -2814.58 -1407.26 0 -200000 -198130 -196259 -194388 -192518 -190648 -188781 -186916 -185055 -183197 -181344 -179495 -177652 -175815 -173984 -172159 -170342 -168531 -166727 -164931 -163142 -161360 -159587 -157821 -156062 -154311 -152568 -150833 -149105 -147385 -145672 -143966 -142268 -140577 -138893 -137216 -135546 -133883 -132226 -130576 -128932 -127295 -125664 -124039 -122420 -120807 -119199 -117598 -116001 -114411 -112825 -111245 -109670 -108099 -106534 -104974 -103418 -101866 -100320 -98777.1 -97238.9 -95704.9 -94175 -92649.1 -91127.2 -89609 -88094.6 -86583.9 -85076.7 -83573 -82072.7 -80575.7 -79082 -77591.4 -76103.9 -74619.5 -73137.9 -71659.3 -70183.4 -68710.3 -67239.8 -65771.9 -64306.5 -62843.5 -61383 -59924.7 -58468.7 -57014.9 -55563.3 -54113.6 -52666 -51220.4 -49776.6 -48334.6 -46894.4 -45455.9 -44019 -42583.7 -41150 -39717.7 -38286.9 -36857.4 -35429.3 -34002.4 -32576.7 -31152.1 -29728.7 -28306.3 -26884.9 -25464.4 -24044.9 -22626.1 -21208.2 -19791 -18374.5 -16958.6 -15543.3 -14128.6 -12714.4 -11300.5 -9887.12 -8474.04 -7061.26 -5648.71 -4236.36 -2824.16 -1412.06 0 -200000 -198148 -196295 -194442 -192589 -190737 -188886 -187038 -185193 -183351 -181512 -179679 -177849 -176025 -174206 -172393 -170587 -168786 -166992 -165204 -163424 -161650 -159883 -158123 -156370 -154625 -152886 -151155 -149431 -147714 -146004 -144301 -142604 -140915 -139232 -137556 -135886 -134223 -132567 -130917 -129272 -127634 -126002 -124376 -122756 -121141 -119532 -117928 -116330 -114737 -113149 -111567 -109989 -108416 -106848 -105284 -103725 -102171 -100621 -99075 -97533.4 -95996 -94462.5 -92933 -91407.4 -89885.5 -88367.4 -86852.8 -85341.7 -83834.1 -82329.8 -80828.8 -79331 -77836.3 -76344.7 -74856.1 -73370.4 -71887.5 -70407.4 -68929.9 -67455.1 -65982.9 -64513.1 -63045.8 -61580.9 -60118.2 -58657.8 -57199.5 -55743.4 -54289.3 -52837.2 -51387 -49938.7 -48492.2 -47047.4 -45604.4 -44162.9 -42723.1 -41284.8 -39847.9 -38412.5 -36978.4 -35545.7 -34114.1 -32683.8 -31254.7 -29826.6 -28399.6 -26973.5 -25548.4 -24124.2 -22700.8 -21278.2 -19856.4 -18435.2 -17014.7 -15594.7 -14175.3 -12756.4 -11337.9 -9919.84 -8502.09 -7084.63 -5667.41 -4250.39 -2833.51 -1416.73 0 -200000 -198164 -196327 -194490 -192653 -190817 -188983 -187150 -185319 -183492 -181668 -179847 -178031 -176219 -174412 -172610 -170814 -169023 -167238 -165459 -163686 -161920 -160160 -158407 -156660 -154919 -153186 -151459 -149738 -148025 -146318 -144617 -142923 -141235 -139554 -137879 -136211 -134548 -132892 -131242 -129597 -127959 -126326 -124699 -123078 -121462 -119851 -118246 -116646 -115051 -113461 -111876 -110296 -108720 -107150 -105584 -104022 -102464 -100911 -99362.6 -97817.9 -96277.2 -94740.4 -93207.6 -91678.5 -90153.1 -88631.3 -87113.1 -85598.4 -84087 -82578.9 -81074.1 -79572.5 -78073.9 -76578.3 -75085.7 -73596 -72109 -70624.8 -69143.3 -67664.3 -66187.9 -64714 -63242.4 -61773.2 -60306.3 -58841.6 -57379.1 -55918.6 -54460.2 -53003.7 -51549.2 -50096.5 -48645.6 -47196.4 -45748.9 -44303.1 -42858.8 -41416.1 -39974.8 -38534.9 -37096.3 -35659.1 -34223.1 -32788.3 -31354.6 -29922 -28490.5 -27059.9 -25630.3 -24201.6 -22773.6 -21346.5 -19920.1 -18494.4 -17069.4 -15644.9 -14220.9 -12797.4 -11374.4 -9951.75 -8529.45 -7107.43 -5685.65 -4264.07 -2842.63 -1421.29 0 -200000 -198179 -196357 -194535 -192713 -190891 -189071 -187252 -185436 -183622 -181810 -180003 -178198 -176398 -174602 -172811 -171024 -169243 -167467 -165697 -163932 -162173 -160420 -158672 -156931 -155196 -153467 -151745 -150028 -148318 -146614 -144917 -143225 -141539 -139860 -138186 -136519 -134857 -133202 -131552 -129907 -128269 -126636 -125008 -123386 -121769 -120157 -118550 -116949 -115352 -113760 -112174 -110591 -109014 -107441 -105872 -104308 -102748 -101192 -99640.1 -98092.5 -96548.8 -95008.9 -93472.9 -91940.6 -90411.9 -88886.7 -87365.1 -85846.8 -84331.9 -82820.3 -81311.8 -79806.5 -78304.2 -76804.8 -75308.4 -73814.8 -72324 -70835.8 -69350.3 -67867.4 -66387 -64909 -63433.4 -61960.2 -60489.1 -59020.3 -57553.6 -56089 -54626.3 -53165.7 -51706.9 -50250 -48794.8 -47341.4 -45889.7 -44439.5 -42990.9 -41543.9 -40098.2 -38654 -37211.1 -35769.5 -34329.2 -32890 -31451.9 -30015 -28579 -27144.1 -25710.1 -24276.9 -22844.6 -21413.1 -19982.3 -18552.1 -17122.6 -15693.7 -14265.3 -12837.4 -11409.9 -9982.86 -8556.11 -7129.65 -5703.43 -4277.41 -2851.52 -1425.74 0 -200000 -198193 -196384 -194576 -192767 -190959 -189153 -187347 -185543 -183742 -181942 -180146 -178353 -176564 -174779 -172997 -171221 -169448 -167681 -165918 -164161 -162409 -160663 -158922 -157186 -155457 -153733 -152015 -150302 -148596 -146895 -145200 -143511 -141828 -140150 -138478 -136812 -135152 -133497 -131847 -130203 -128565 -126931 -125303 -123681 -122063 -120450 -118842 -117239 -115641 -114048 -112459 -110875 -109296 -107720 -106150 -104583 -103021 -101462 -99907.8 -98357.5 -96810.9 -95268.2 -93729.2 -92193.8 -90662 -89133.7 -87608.8 -86087.2 -84569 -83053.9 -81542 -80033.1 -78527.2 -77024.3 -75524.2 -74027 -72532.4 -71040.5 -69551.2 -68064.5 -66580.2 -65098.4 -63618.9 -62141.7 -60666.7 -59193.9 -57723.2 -56254.5 -54787.8 -53323.1 -51860.3 -50399.2 -48940 -47482.4 -46026.5 -44572.2 -43119.5 -41668.2 -40218.4 -38769.9 -37322.8 -35877 -34432.4 -32989 -31546.7 -30105.5 -28665.3 -27226.1 -25787.8 -24350.3 -22913.7 -21477.9 -20042.8 -18608.3 -17174.5 -15741.3 -14308.6 -12876.4 -11444.6 -10013.2 -8582.09 -7151.3 -5720.76 -4290.4 -2860.19 -1430.07 0 -200000 -198205 -196410 -194614 -192818 -191022 -189228 -187434 -185642 -183852 -182065 -180280 -178497 -176718 -174943 -173171 -171403 -169640 -167880 -166126 -164376 -162631 -160891 -159156 -157426 -155702 -153983 -152269 -150561 -148858 -147161 -145469 -143782 -142101 -140426 -138756 -137091 -135432 -133778 -132129 -130486 -128847 -127214 -125586 -123963 -122344 -120731 -119122 -117518 -115919 -114324 -112734 -111148 -109567 -107990 -106417 -104848 -103283 -101723 -100166 -98613 -97063.8 -95518.4 -93976.6 -92438.4 -90903.6 -89372.3 -87844.4 -86319.7 -84798.3 -83280 -81764.7 -80252.5 -78743.3 -77236.9 -75733.3 -74232.5 -72734.4 -71239 -69746.1 -68255.6 -66767.7 -65282.1 -63798.8 -62317.8 -60839 -59362.4 -57887.8 -56415.3 -54944.7 -53476 -52009.2 -50544.3 -49081 -47619.5 -46159.6 -44701.2 -43244.4 -41789.1 -40335.2 -38882.7 -37431.5 -35981.6 -34532.9 -33085.3 -31638.9 -30193.5 -28749.2 -27305.8 -25863.4 -24421.8 -22981 -21541 -20101.7 -18663.1 -17225.1 -15787.6 -14350.7 -12914.3 -11478.3 -10042.7 -8607.39 -7172.39 -5737.62 -4303.05 -2868.62 -1434.29 0 -200000 -198217 -196433 -194649 -192864 -191081 -189297 -187515 -185734 -183955 -182178 -180403 -178631 -176862 -175096 -173333 -171574 -169818 -168067 -166320 -164577 -162839 -161105 -159376 -157652 -155932 -154218 -152509 -150805 -149106 -147412 -145723 -144039 -142361 -140688 -139019 -137356 -135698 -134046 -132398 -130755 -129117 -127484 -125856 -124232 -122614 -121000 -119390 -117785 -116185 -114589 -112998 -111410 -109827 -108249 -106674 -105103 -103536 -101974 -100415 -98859.3 -97307.7 -95759.7 -94215.4 -92674.4 -91137 -89602.8 -88072 -86544.4 -85019.9 -83498.5 -81980.2 -80464.8 -78952.3 -77442.7 -75935.8 -74431.7 -72930.1 -71431.2 -69934.8 -68440.9 -66949.4 -65460.2 -63973.4 -62488.7 -61006.2 -59525.9 -58047.6 -56571.3 -55097 -53624.5 -52153.9 -50685.1 -49218 -47752.6 -46288.8 -44826.6 -43365.9 -41906.6 -40448.8 -38992.3 -37537.2 -36083.3 -34630.6 -33179 -31728.6 -30279.2 -28830.8 -27383.4 -25936.9 -24491.3 -23046.4 -21602.4 -20159 -18716.3 -17274.2 -15832.7 -14391.7 -12951.2 -11511.1 -10071.4 -8632.01 -7192.91 -5754.04 -4315.37 -2876.83 -1438.39 0 -200000 -198228 -196455 -194681 -192908 -191134 -189362 -187590 -185820 -184051 -182284 -180518 -178756 -176995 -175238 -173484 -171733 -169985 -168242 -166502 -164766 -163034 -161306 -159583 -157864 -156150 -154440 -152735 -151035 -149340 -147649 -145964 -144283 -142607 -140936 -139270 -137608 -135952 -134300 -132654 -131011 -129374 -127741 -126113 -124490 -122871 -121257 -119647 -118041 -116440 -114843 -113251 -111662 -110078 -108497 -106921 -105348 -103780 -102215 -100654 -99096.5 -97542.7 -95992.4 -94445.6 -92902.2 -91362.1 -89825.3 -88291.8 -86761.4 -85234.1 -83709.8 -82188.5 -80670.1 -79154.5 -77641.8 -76131.8 -74624.4 -73119.6 -71617.4 -70117.7 -68620.4 -67125.5 -65632.9 -64142.5 -62654.4 -61168.4 -59684.5 -58202.6 -56722.7 -55244.7 -53768.6 -52294.4 -50821.8 -49351 -47881.9 -46414.3 -44948.3 -43483.8 -42020.8 -40559.1 -39098.8 -37639.8 -36182.1 -34725.5 -33270.1 -31815.7 -30362.5 -28910.2 -27458.9 -26008.4 -24558.8 -23110.1 -21662 -20214.7 -18768.1 -17322 -15876.6 -14431.6 -12987.1 -11543 -10099.3 -8655.96 -7212.87 -5770.01 -4327.35 -2884.82 -1442.39 0 -200000 -198238 -196475 -194711 -192948 -191185 -189422 -187660 -185899 -184140 -182382 -180626 -178872 -177120 -175371 -173625 -171882 -170142 -168405 -166672 -164942 -163217 -161495 -159777 -158064 -156355 -154650 -152949 -151253 -149561 -147874 -146192 -144514 -142840 -141172 -139508 -137848 -136193 -134543 -132897 -131256 -129620 -127987 -126360 -124736 -123117 -121503 -119893 -118287 -116685 -115087 -113493 -111904 -110318 -108736 -107158 -105584 -104014 -102447 -100884 -99325 -97769.1 -96216.6 -94667.5 -93121.8 -91579.3 -90040 -88503.9 -86970.9 -85440.9 -83913.9 -82389.8 -80868.5 -79350 -77834.3 -76321.3 -74810.8 -73303 -71797.6 -70294.7 -68794.2 -67296 -65800.1 -64306.4 -62814.9 -61325.5 -59838.2 -58352.9 -56869.5 -55388 -53908.4 -52430.6 -50954.5 -49480.1 -48007.3 -46536.1 -45066.5 -43598.3 -42131.6 -40666.3 -39202.2 -37739.5 -36278 -34817.7 -33358.5 -31900.4 -30443.4 -28987.3 -27532.2 -26077.9 -24624.5 -23171.9 -21720.1 -20268.9 -18818.4 -17368.5 -15919.2 -14470.3 -13022 -11574.1 -10126.5 -8679.24 -7232.27 -5785.54 -4338.99 -2892.58 -1446.27 0 -200000 -198247 -196493 -194739 -192985 -191231 -189478 -187725 -185973 -184222 -182473 -180726 -178980 -177237 -175496 -173757 -172021 -170288 -168558 -166832 -165109 -163389 -161673 -159961 -158252 -156548 -154847 -153151 -151459 -149771 -148087 -146408 -144733 -143062 -141396 -139734 -138076 -136423 -134774 -133130 -131489 -129854 -128222 -126595 -124972 -123353 -121738 -120128 -118521 -116919 -115320 -113726 -112135 -110549 -108966 -107387 -105811 -104239 -102671 -101106 -99544.9 -97987 -96432.5 -94881.3 -93333.4 -91788.7 -90247.1 -88708.6 -87173.1 -85640.5 -84110.9 -82584.1 -81060.2 -79538.9 -78020.4 -76504.5 -74991.1 -73480.3 -71971.9 -70466 -68962.4 -67461.1 -65962 -64465.1 -62970.4 -61477.7 -59987.1 -58498.5 -57011.8 -55526.9 -54043.9 -52562.6 -51083.1 -49605.2 -48129 -46654.3 -45181.1 -43709.4 -42239.1 -40770.2 -39302.6 -37836.3 -36371.2 -34907.2 -33444.4 -31982.6 -30521.9 -29062.2 -27603.3 -26145.4 -24688.3 -23232 -21776.4 -20321.5 -18867.3 -17413.7 -15960.6 -14508 -13055.9 -11604.2 -10152.9 -8701.86 -7251.13 -5800.63 -4350.31 -2900.13 -1450.04 0 -200000 -198256 -196511 -194765 -193020 -191275 -189530 -187786 -186042 -184300 -182559 -180819 -179082 -177346 -175612 -173881 -172152 -170426 -168702 -166982 -165265 -163551 -161840 -160133 -158430 -156730 -155034 -153342 -151653 -149969 -148289 -146612 -144940 -143272 -141608 -139948 -138293 -136641 -134994 -133351 -131712 -130077 -128446 -126819 -125197 -123578 -121963 -120353 -118746 -117143 -115544 -113949 -112358 -110770 -109186 -107606 -106029 -104455 -102886 -101319 -99756.4 -98196.8 -96640.4 -95087.2 -93537.3 -91990.4 -90446.6 -88905.8 -87368 -85833.1 -84301 -82771.7 -81245.2 -79721.3 -78200.1 -76681.5 -75165.3 -73651.7 -72140.4 -70631.6 -69125 -67620.7 -66118.6 -64618.7 -63120.9 -61625.1 -60131.3 -58639.5 -57149.5 -55661.4 -54175.1 -52690.6 -51207.7 -49726.5 -48246.9 -46768.8 -45292.3 -43817.1 -42343.4 -40871 -39400 -37930.1 -36461.5 -34994.1 -33527.7 -32062.4 -30598.1 -29134.8 -27672.4 -26210.9 -24750.2 -23290.3 -21831.1 -20372.6 -18914.8 -17457.5 -16000.8 -14544.6 -13088.8 -11633.5 -10178.5 -8723.83 -7269.44 -5815.28 -4361.3 -2907.46 -1453.71 0 -200000 -198264 -196527 -194790 -193053 -191315 -189579 -187842 -186107 -184372 -182639 -180907 -179177 -177448 -175721 -173997 -172274 -170555 -168838 -167123 -165412 -163703 -161998 -160296 -158597 -156902 -155210 -153522 -151837 -150156 -148479 -146806 -145137 -143471 -141810 -140152 -138499 -136849 -135203 -133561 -131923 -130290 -128660 -127033 -125411 -123793 -122178 -120568 -118961 -117358 -115758 -114163 -112571 -110982 -109397 -107816 -106238 -104663 -103092 -101524 -99959.8 -98398.5 -96840.4 -95285.4 -93733.6 -92184.7 -90638.9 -89096 -87556 -86018.8 -84484.4 -82952.7 -81423.7 -79897.4 -78373.6 -76852.4 -75333.6 -73817.2 -72303.3 -70791.6 -69282.2 -67775.1 -66270.1 -64767.2 -63266.4 -61767.6 -60270.8 -58775.9 -57282.9 -55791.7 -54302.2 -52814.5 -51328.5 -49844 -48361.2 -46879.8 -45400 -43921.5 -42444.5 -40968.8 -39494.3 -38021.1 -36549.1 -35078.3 -33608.5 -32139.8 -30672 -29205.3 -27739.4 -26274.4 -24810.3 -23346.9 -21884.2 -20422.2 -18960.8 -17500 -16039.8 -14580.1 -13120.8 -11661.9 -10203.4 -8745.15 -7287.21 -5829.5 -4371.97 -2914.57 -1457.26 0 -200000 -198271 -196542 -194813 -193083 -191354 -189624 -187895 -186167 -184440 -182714 -180989 -179266 -177544 -175824 -174106 -172390 -170676 -168965 -167256 -165550 -163847 -162146 -160449 -158755 -157064 -155376 -153692 -152011 -150334 -148660 -146990 -145323 -143661 -142001 -140346 -138694 -137046 -135402 -133762 -132125 -130492 -128863 -127238 -125616 -123998 -122384 -120773 -119167 -117563 -115963 -114367 -112775 -111185 -109600 -108017 -106438 -104863 -103290 -101721 -100155 -98592.4 -97032.7 -95476.1 -93922.4 -92371.8 -90824 -89279.1 -87737 -86197.7 -84661.1 -83127.2 -81595.9 -80067.2 -78541 -77017.3 -75496 -73977.1 -72460.5 -70946.2 -69434.2 -67924.3 -66416.5 -64910.8 -63407.2 -61905.5 -60405.8 -58907.9 -57411.9 -55917.7 -54425.2 -52934.4 -51445.3 -49957.8 -48471.8 -46987.3 -45504.3 -44022.6 -42542.4 -41063.4 -39585.8 -38109.3 -36634 -35159.9 -33686.8 -32214.8 -30743.7 -29273.6 -27804.4 -26336 -24868.5 -23401.7 -21935.6 -20470.2 -19005.5 -17541.3 -16077.6 -14614.5 -13151.8 -11689.4 -10227.5 -8765.83 -7304.45 -5843.29 -4382.31 -2921.47 -1460.71 0 -200000 -198278 -196556 -194834 -193112 -191389 -189667 -187945 -186224 -184504 -182784 -181066 -179349 -177634 -175920 -174208 -172498 -170790 -169084 -167381 -165680 -163982 -162286 -160594 -158904 -157217 -155534 -153853 -152176 -150502 -148831 -147164 -145500 -143840 -142183 -140530 -138880 -137234 -135592 -133953 -132317 -130686 -129057 -127433 -125812 -124194 -122580 -120970 -119363 -117760 -116160 -114563 -112970 -111380 -109794 -108211 -106631 -105054 -103481 -101910 -100343 -98778.8 -97217.6 -95659.4 -94104.1 -92551.7 -91002.1 -89455.4 -87911.4 -86370.1 -84831.4 -83295.4 -81761.9 -80231 -78702.5 -77176.4 -75652.7 -74131.4 -72612.3 -71095.5 -69580.8 -68068.3 -66557.9 -65049.5 -63543.1 -62038.7 -60536.2 -59035.5 -57536.7 -56039.6 -54544.2 -53050.4 -51558.3 -50067.8 -48578.8 -47091.3 -45605.2 -44120.5 -42637.2 -41155.1 -39674.3 -38194.7 -36716.2 -35238.9 -33762.6 -32287.4 -30813.1 -29339.8 -27867.3 -26395.7 -24924.9 -23454.9 -21985.5 -20516.8 -19048.8 -17581.3 -16114.3 -14647.8 -13181.8 -11716.1 -10250.9 -8785.88 -7321.16 -5856.66 -4392.34 -2928.16 -1464.06 0 -200000 -198285 -196570 -194854 -193138 -191423 -189707 -187992 -186277 -184563 -182850 -181138 -179427 -177718 -176010 -174304 -172600 -170897 -169197 -167499 -165803 -164109 -162418 -160730 -159045 -157362 -155682 -154005 -152332 -150661 -148993 -147329 -145668 -144010 -142356 -140705 -139057 -137413 -135772 -134134 -132500 -130870 -129242 -127619 -125998 -124381 -122768 -121158 -119551 -117948 -116348 -114751 -113157 -111567 -109980 -108396 -106815 -105238 -103663 -102092 -100523 -98957.8 -97395.2 -95835.6 -94278.7 -92724.7 -91173.5 -89625 -88079.2 -86536 -84995.4 -83457.3 -81921.8 -80388.7 -78858.1 -77329.8 -75803.8 -74280.2 -72758.7 -71239.5 -69722.4 -68207.4 -66694.4 -65183.5 -63674.5 -62167.4 -60662.2 -59158.8 -57657.2 -56157.3 -54659.1 -53162.6 -51667.6 -50174.2 -48682.3 -47191.9 -45702.9 -44215.2 -42728.9 -41243.8 -39760 -38277.3 -36795.8 -35315.4 -33836.1 -32357.7 -30880.3 -29403.9 -27928.3 -26453.5 -24979.6 -23506.3 -22033.8 -20562 -19090.7 -17620 -16149.8 -14680.1 -13210.9 -11742 -10273.5 -8805.3 -7337.35 -5869.62 -4402.06 -2934.64 -1467.3 0 -200000 -198291 -196582 -194873 -193163 -191454 -189745 -188036 -186327 -184619 -182912 -181206 -179501 -177797 -176095 -174394 -172695 -170998 -169303 -167610 -165918 -164230 -162543 -160859 -159178 -157499 -155823 -154150 -152479 -150812 -149147 -147486 -145827 -144172 -142520 -140871 -139225 -137582 -135943 -134307 -132674 -131045 -129419 -127796 -126176 -124560 -122947 -121337 -119731 -118127 -116527 -114930 -113336 -111746 -110158 -108574 -106992 -105414 -103838 -102266 -100696 -99129.6 -97565.8 -96004.8 -94446.6 -92891.1 -91338.3 -89788.1 -88240.6 -86695.6 -85153.2 -83613.3 -82075.8 -80540.7 -79008 -77477.6 -75949.5 -74423.6 -72899.9 -71378.3 -69858.9 -68341.5 -66826.1 -65312.7 -63801.2 -62291.6 -60783.8 -59277.8 -57773.6 -56271.1 -54770.2 -53270.9 -51773.2 -50277.