<?xml version="1.0"?> 
<VTKFile type="StructuredGrid" version="0.1"> 
<StructuredGrid WholeExtent="0 127 0 127 0 0"> 
<Piece Extent="0 127 0 127 0 0"> 
<PointData>
<DataArray type="Float32" Name="u" format="ascii" NumberOfComponents="1"> 
-32686.4 -33653.9 -34623.1 -35593.9 -36566.4 -37540.6 -38516.6 -39494.5 -40474.2 -41455.9 -42439.6 -43425.2 -44413 -45402.9 -46394.9 -47389.2 -48385.8 -49384.6 -50385.9 -51389.5 -52395.7 -53404.3 -54415.6 -55429.4 -56446 -57465.2 -58487.3 -59512.1 -60539.9 -61570.6 -62604.3 -63641 -64680.9 -65723.8 -66770.1 -67819.5 -68872.3 -69928.5 -70988.1 -72051.2 -73117.8 -74188.1 -75262 -76339.6 -77421.1 -78506.3 -79595.5 -80688.7 -81785.9 -82887.2 -83992.7 -85102.4 -86216.4 -87334.8 -88457.6 -89584.9 -90716.8 -91853.3 -92994.6 -94140.6 -95291.5 -96447.4 -97608.3 -98774.3 -99945.5 -101122 -102304 -103491 -104684 -105883 -107087 -108297 -109513 -110735 -111963 -113198 -114439 -115686 -116940 -118201 -119469 -120744 -122026 -123315 -124612 -125917 -127229 -128550 -129879 -131216 -132563 -133918 -135282 -136657 -138040 -139435 -140839 -142255 -143682 -145121 -146572 -148035 -149513 -151004 -152510 -154032 -155570 -157125 -158699 -160293 -161908 -163546 -165209 -166900 -168619 -170372 -172162 -173993 -175871 -177804 -179802 -181876 -184049 -186346 -188813 -191552 -194731 -200000 -34045.2 -35008.1 -35972.7 -36938.9 -37906.9 -38876.7 -39848.3 -40821.8 -41797.2 -42774.6 -43754 -44735.4 -45719 -46704.7 -47692.6 -48682.8 -49675.3 -50670.1 -51667.3 -52667 -53669.2 -54673.9 -55681.3 -56691.3 -57704 -58719.4 -59737.7 -60758.8 -61782.8 -62809.7 -63839.7 -64872.8 -65908.9 -66948.3 -67990.9 -69036.7 -70085.9 -71138.5 -72194.5 -73254.1 -74317.2 -75383.9 -76454.3 -77528.4 -78606.4 -79688.2 -80773.9 -81863.6 -82957.4 -84055.3 -85157.3 -86263.6 -87374.2 -88489.1 -89608.5 -90732.4 -91860.9 -92994 -94131.9 -95274.6 -96422.1 -97574.6 -98732.1 -99894.7 -101063 -102236 -103414 -104598 -105788 -106983 -108184 -109390 -110603 -111822 -113047 -114278 -115515 -116759 -118010 -119268 -120532 -121804 -123082 -124369 -125662 -126964 -128273 -129591 -130916 -132251 -133594 -134946 -136308 -137679 -139060 -140452 -141854 -143267 -144691 -146128 -147577 -149038 -150514 -152003 -153508 -155029 -156566 -158121 -159695 -161290 -162906 -164546 -166211 -167905 -169629 -171388 -173185 -175027 -176917 -178867 -180884 -182989 -185201 -187543 -190124 -192935 -196591 -198932 -35405.5 -36363.9 -37323.9 -38285.7 -39249.3 -40214.7 -41181.9 -42151.1 -43122.2 -44095.3 -45070.5 -46047.7 -47027.1 -48008.7 -48992.6 -49978.7 -50967.1 -51958 -52951.3 -53947 -54945.3 -55946.1 -56949.6 -57955.7 -58964.6 -59976.3 -60990.8 -62008.1 -63028.4 -64051.7 -65078 -66107.4 -67139.9 -68175.6 -69214.6 -70256.8 -71302.4 -72351.4 -73403.9 -74459.9 -75519.5 -76582.7 -77649.6 -78720.3 -79794.8 -80873.1 -81955.4 -83041.6 -84131.9 -85226.4 -86325 -87427.8 -88535 -89646.5 -90762.5 -91883 -93008.1 -94137.8 -95272.3 -96411.6 -97555.7 -98704.8 -99858.9 -101018 -102183 -103352 -104527 -105708 -106894 -108086 -109283 -110487 -111696 -112911 -114133 -115361 -116595 -117836 -119083 -120337 -121598 -122867 -124142 -125425 -126715 -128014 -129320 -130634 -131957 -133288 -134628 -135978 -137336 -138705 -140083 -141472 -142871 -144282 -145704 -147138 -148585 -150044 -151518 -153006 -154510 -156029 -157566 -159121 -160695 -162290 -163908 -165549 -167218 -168915 -170645 -172410 -174216 -176066 -177972 -179937 -181979 -184115 -186357 -188788 -191390 -194459 -197338 -198301 -36767.5 -37721.4 -38677 -39634.4 -40593.6 -41554.6 -42517.5 -43482.4 -44449.3 -45418.2 -46389.2 -47362.3 -48337.6 -49315.1 -50294.9 -51277 -52261.5 -53248.4 -54237.7 -55229.5 -56223.9 -57220.9 -58220.6 -59222.9 -60228 -61235.9 -62246.7 -63260.3 -64276.9 -65296.5 -66319.1 -67344.8 -68373.7 -69405.9 -70441.2 -71479.9 -72521.9 -73567.4 -74616.4 -75668.8 -76724.9 -77784.6 -78848 -79915.2 -80986.2 -82061.1 -83139.9 -84222.7 -85309.6 -86400.6 -87495.8 -88595.2 -89698.9 -90807 -91919.6 -93036.7 -94158.4 -95284.7 -96415.8 -97551.7 -98692.4 -99838.1 -100989 -102145 -103306 -104472 -105644 -106821 -108004 -109192 -110386 -111586 -112792 -114004 -115222 -116447 -117678 -118915 -120159 -121410 -122668 -123933 -125205 -126484 -127772 -129067 -130370 -131681 -133000 -134328 -135666 -137012 -138368 -139733 -141109 -142495 -143891 -145299 -146719 -148151 -149596 -151054 -152526 -154012 -155515 -157033 -158569 -160124 -161698 -163294 -164913 -166557 -168229 -169930 -171665 -173437 -175251 -177114 -179032 -181016 -183084 -185240 -187545 -189992 -192707 -195502 -197196 -197802 -38131.4 -39080.8 -40032 -40985 -41939.8 -42896.6 -43855.3 -44815.9 -45778.6 -46743.3 -47710.2 -48679.2 -49650.5 -50624 -51599.7 -52577.9 -53558.4 -54541.3 -55526.8 -56514.7 -57505.3 -58498.5 -59494.3 -60492.9 -61494.2 -62498.4 -63505.4 -64515.3 -65528.3 -66544.2 -67563.2 -68585.3 -69610.6 -70639.1 -71670.9 -72706 -73744.5 -74786.4 -75831.9 -76880.8 -77933.4 -78989.6 -80049.6 -81113.3 -82180.8 -83252.2 -84327.6 -85406.9 -86490.4 -87577.9 -88669.7 -89765.7 -90866 -91970.7 -93079.9 -94193.6 -95311.8 -96434.8 -97562.4 -98694.9 -99832.2 -100975 -102122 -103274 -104432 -105595 -106763 -107937 -109116 -110301 -111492 -112689 -113891 -115100 -116315 -117536 -118763 -119997 -121238 -122485 -123740 -125001 -126270 -127547 -128831 -130122 -131422 -132730 -134047 -135372 -136706 -138049 -139402 -140764 -142137 -143520 -144915 -146320 -147738 -149167 -150610 -152066 -153536 -155022 -156523 -158041 -159576 -161131 -162706 -164302 -165923 -167569 -169244 -170949 -172690 -174469 -176292 -178166 -180098 -182103 -184186 -186383 -188705 -191189 -193801 -195854 -196864 -197368 -39497.1 -40442.1 -41389 -42337.7 -43288.2 -44240.7 -45195.2 -46151.7 -47110.2 -48070.8 -49033.6 -49998.6 -50965.8 -51935.3 -52907.1 -53881.3 -54857.9 -55837 -56818.5 -57802.7 -58789.4 -59778.8 -60770.8 -61765.7 -62763.3 -63763.7 -64767.1 -65773.3 -66782.6 -67794.9 -68810.3 -69828.8 -70850.5 -71875.4 -72903.6 -73935.2 -74970.2 -76008.6 -77050.5 -78095.9 -79145 -80197.8 -81254.2 -82314.5 -83378.5 -84446.5 -85518.4 -86594.3 -87674.3 -88758.5 -89846.8 -90939.4 -92036.3 -93137.6 -94243.3 -95353.6 -96468.4 -97588 -98712.2 -99841.3 -100975 -102114 -103258 -104407 -105561 -106721 -107886 -109056 -110232 -111414 -112601 -113794 -114993 -116199 -117410 -118628 -119852 -121082 -122320 -123564 -124815 -126073 -127339 -128612 -129893 -131181 -132478 -133782 -135096 -136418 -137749 -139089 -140439 -141799 -143169 -144549 -145941 -147344 -148759 -150187 -151627 -153082 -154550 -156034 -157534 -159051 -160586 -162141 -163716 -165314 -166936 -168585 -170263 -171973 -173719 -175505 -177337 -179221 -181169 -183186 -185294 -187507 -189832 -192263 -194430 -195812 -196534 -196979 -40864.8 -41805.5 -42748.1 -43692.5 -44638.8 -45587.1 -46537.4 -47489.8 -48444.2 -49400.8 -50359.5 -51320.5 -52283.7 -53249.2 -54217.1 -55187.4 -56160.1 -57135.3 -58113.1 -59093.4 -60076.3 -61062 -62050.3 -63041.4 -64035.3 -65032 -66031.7 -67034.3 -68039.9 -69048.6 -70060.4 -71075.3 -72093.4 -73114.8 -74139.5 -75167.5 -76199 -77233.9 -78272.3 -79314.2 -80359.8 -81409.1 -82462.1 -83518.9 -84579.5 -85644 -86712.5 -87785 -88861.5 -89942.2 -91027.1 -92116.3 -93209.8 -94307.6 -95410 -96516.8 -97628.2 -98744.4 -99865.2 -100991 -102121 -103257 -104397 -105543 -106694 -107850 -109011 -110178 -111351 -112529 -113713 -114903 -116099 -117300 -118508 -119723 -120943 -122171 -123405 -124645 -125893 -127148 -128410 -129680 -130958 -132243 -133536 -134838 -136148 -137467 -138795 -140132 -141479 -142836 -144203 -145581 -146970 -148371 -149784 -151209 -152648 -154100 -155567 -157050 -158549 -160065 -161600 -163154 -164730 -166329 -167953 -169604 -171285 -173000 -174751 -176544 -178384 -180280 -182237 -184268 -186387 -188591 -190871 -193032 -194657 -195629 -196222 -196625 -42234.6 -43171.1 -44109.4 -45049.6 -45991.7 -46935.9 -47882.1 -48830.3 -49780.7 -50733.3 -51688 -52645 -53604.3 -54565.9 -55529.9 -56496.3 -57465.1 -58436.5 -59410.5 -60387 -61366.2 -62348.1 -63332.7 -64320.1 -65310.3 -66303.4 -67299.4 -68298.4 -69300.4 -70305.5 -71313.7 -72325 -73339.6 -74357.4 -75378.6 -76403.1 -77431 -78462.4 -79497.3 -80535.8 -81577.9 -82623.7 -83673.2 -84726.5 -85783.7 -86844.8 -87909.8 -88978.8 -90052 -91129.2 -92210.7 -93296.4 -94386.5 -95480.9 -96579.8 -97683.3 -98791.3 -99904 -101021 -102144 -103271 -104403 -105540 -106682 -107829 -108982 -110140 -111304 -112473 -113648 -114828 -116014 -117207 -118405 -119610 -120821 -122038 -123262 -124492 -125730 -126974 -128226 -129485 -130751 -132025 -133307 -134598 -135896 -137203 -138519 -139844 -141178 -142522 -143876 -145241 -146616 -148002 -149401 -150811 -152234 -153671 -155122 -156587 -158068 -159566 -161082 -162616 -164171 -165747 -167347 -168973 -170626 -172311 -174029 -175785 -177584 -179432 -181334 -183299 -185336 -187441 -189601 -191705 -193459 -194655 -195411 -195926 -196300 -43606.7 -44538.9 -45473 -46409 -47347.1 -48287.1 -49229.2 -50173.4 -51119.8 -52068.3 -53019.1 -53972.2 -54927.5 -55885.3 -56845.4 -57808 -58773 -59740.6 -60710.8 -61683.6 -62659 -63637.2 -64618.1 -65601.8 -66588.4 -67577.8 -68570.2 -69565.6 -70564 -71565.5 -72570.1 -73577.9 -74588.9 -75603.2 -76620.8 -77641.8 -78666.3 -79694.2 -80725.6 -81760.6 -82799.2 -83841.5 -84887.6 -85937.5 -86991.2 -88048.8 -89110.4 -90176 -91245.7 -92319.5 -93397.6 -94479.9 -95566.5 -96657.5 -97753 -98853 -99957.6 -101067 -102181 -103300 -104423 -105552 -106686 -107824 -108968 -110118 -111272 -112432 -113598 -114769 -115946 -117129 -118318 -119513 -120714 -121922 -123136 -124356 -125583 -126817 -128058 -129307 -130562 -131825 -133096 -134375 -135662 -136957 -138261 -139574 -140896 -142227 -143568 -144919 -146281 -147654 -149038 -150433 -151841 -153263 -154697 -156146 -157610 -159090 -160587 -162102 -163636 -165190 -166767 -168368 -169995 -171651 -173338 -175059 -176820 -178623 -180476 -182381 -184346 -186367 -188429 -190461 -192266 -193631 -194552 -195185 -195644 -195997 -44981 -45909.1 -46839 -47771 -48704.9 -49640.9 -50579 -51519.2 -52461.6 -53406.2 -54353 -55302.2 -56253.7 -57207.5 -58163.8 -59122.6 -60083.9 -61047.7 -62014.1 -62983.2 -63954.9 -64929.4 -65906.6 -66886.7 -67869.6 -68855.4 -69844.2 -70836 -71830.8 -72828.7 -73829.8 -74834.1 -75841.5 -76852.3 -77866.4 -78883.9 -79904.8 -80929.2 -81957.2 -82988.7 -84023.9 -85062.8 -86105.4 -87151.8 -88202 -89256.2 -90314.3 -91376.5 -92442.8 -93513.2 -94587.8 -95666.6 -96749.8 -97837.4 -98929.5 -100026 -101127 -102233 -103344 -104459 -105579 -106704 -107835 -108970 -110110 -111256 -112407 -113564 -114726 -115894 -117068 -118247 -119433 -120624 -121822 -123026 -124236 -125453 -126677 -127908 -129145 -130390 -131643 -132902 -134170 -135445 -136729 -138021 -139322 -140631 -141950 -143279 -144617 -145965 -147324 -148694 -150075 -151469 -152875 -154294 -155726 -157173 -158636 -160114 -161610 -163124 -164658 -166212 -167789 -169391 -171019 -172676 -174365 -176089 -177852 -179658 -181509 -183411 -185359 -187339 -189300 -191109 -192584 -193653 -194407 -194958 -195379 -195715 -46357.8 -47281.7 -48207.6 -49135.4 -50065.3 -50997.3 -51931.4 -52867.6 -53806.1 -54746.8 -55689.7 -56635 -57582.7 -58532.7 -59485.2 -60440.2 -61397.7 -62357.8 -63320.5 -64285.8 -65253.9 -66224.7 -67198.3 -68174.7 -69154 -70136.3 -71121.4 -72109.7 -73100.9 -74095.3 -75092.8 -76093.5 -77097.5 -78104.7 -79115.3 -80129.3 -81146.8 -82167.7 -83192.2 -84220.2 -85251.9 -86287.3 -87326.5 -88369.4 -89416.3 -90467 -91521.7 -92580.4 -93643.2 -94710.2 -95781.3 -96856.8 -97936.5 -99020.6 -100109 -101202 -102300 -103402 -104510 -105621 -106738 -107860 -108987 -110119 -111256 -112398 -113546 -114699 -115858 -117022 -118192 -119368 -120550 -121738 -122932 -124133 -125340 -126554 -127774 -129001 -130235 -131477 -132726 -133982 -135247 -136519 -137799 -139088 -140386 -141692 -143008 -144333 -145668 -147014 -148370 -149737 -151116 -152507 -153910 -155327 -156758 -158203 -159664 -161141 -162636 -164149 -165681 -167236 -168813 -170415 -172043 -173701 -175391 -177116 -178879 -180681 -182526 -184410 -186319 -188214 -190002 -191539 -192728 -193598 -194242 -194736 -195128 -195451 -47737.2 -48657 -49578.8 -50502.6 -51428.5 -52356.5 -53286.6 -54218.9 -55153.5 -56090.3 -57029.4 -57970.8 -58914.7 -59860.9 -60809.6 -61760.9 -62714.7 -63671 -64630 -65591.7 -66556.1 -67523.3 -68493.2 -69466 -70441.7 -71420.4 -72402 -73386.6 -74374.3 -75365.2 -76359.2 -77356.4 -78356.8 -79360.6 -80367.7 -81378.2 -82392.1 -83409.6 -84430.6 -85455.1 -86483.4 -87515.3 -88551 -89590.5 -90633.9 -91681.2 -92732.4 -93787.7 -94847.1 -95910.6 -96978.3 -98050.3 -99126.6 -100207 -101292 -102382 -103476 -104575 -105679 -106787 -107901 -109019 -110142 -111271 -112404 -113543 -114687 -115837 -116992 -118153 -119320 -120492 -121671 -122855 -124046 -125243 -126447 -127657 -128874 -130098 -131329 -132567 -133812 -135065 -136326 -137595 -138872 -140158 -141452 -142755 -144068 -145390 -146723 -148065 -149419 -150783 -152159 -153548 -154949 -156363 -157792 -159235 -160694 -162170 -163663 -165175 -166707 -168260 -169837 -171439 -173067 -174725 -176413 -178136 -179894 -181687 -183513 -185359 -187194 -188951 -190516 -191792 -192767 -193503 -194070 -194521 -194891 -195202 -49119.1 -50034.9 -50952.7 -51872.5 -52794.4 -53718.5 -54644.7 -55573.1 -56503.8 -57436.8 -58372 -59309.7 -60249.7 -61192.2 -62137.2 -63084.7 -64034.8 -64987.5 -65942.8 -66900.8 -67861.6 -68825.1 -69791.5 -70760.7 -71732.8 -72707.9 -73685.9 -74667 -75651.2 -76638.5 -77628.9 -78622.6 -79619.6 -80619.8 -81623.4 -82630.4 -83640.9 -84654.9 -85672.4 -86693.5 -87718.3 -88746.8 -89779 -90815.1 -91855 -92898.8 -93946.6 -94998.4 -96054.4 -97114.4 -98178.7 -99247.2 -100320 -101397 -102479 -103565 -104656 -105751 -106852 -107957 -109066 -110181 -111301 -112426 -113556 -114691 -115832 -116978 -118130 -119287 -120451 -121620 -122795 -123976 -125163 -126357 -127557 -128763 -129977 -131197 -132425 -133659 -134901 -136151 -137409 -138674 -139948 -141230 -142521 -143822 -145131 -146450 -147780 -149119 -150470 -151832 -153205 -154591 -155990 -157402 -158828 -160270 -161727 -163200 -164692 -166203 -167733 -169286 -170861 -172461 -174088 -175743 -177428 -179144 -180891 -182665 -184454 -186235 -187954 -189526 -190860 -191922 -192744 -193384 -193895 -194314 -194666 -194967 -50503.8 -51415.6 -52329.4 -53245.3 -54163.3 -55083.4 -56005.8 -56930.3 -57857.2 -58786.3 -59717.8 -60651.7 -61588 -62526.7 -63468 -64411.8 -65358.2 -66307.2 -67258.9 -68213.3 -69170.4 -70130.3 -71093.1 -72058.7 -73027.3 -73998.8 -74973.3 -75950.8 -76931.5 -77915.2 -78902.2 -79892.4 -80885.8 -81882.6 -82882.7 -83886.2 -84893.2 -85903.7 -86917.8 -87935.4 -88956.8 -89981.8 -91010.6 -92043.1 -93079.6 -94120 -95164.3 -96212.7 -97265.1 -98321.7 -99382.5 -100448 -101517 -102591 -103669 -104752 -105839 -106931 -108028 -109129 -110235 -111347 -112463 -113584 -114711 -115843 -116980 -118123 -119271 -120425 -121584 -122750 -123921 -125099 -126283 -127473 -128669 -129873 -131083 -132300 -133524 -134755 -135993 -137240 -138494 -139756 -141027 -142306 -143594 -144891 -146197 -147513 -148839 -150176 -151524 -152883 -154253 -155637 -157033 -158442 -159866 -161306 -162760 -164232 -165722 -167231 -168759 -170310 -171883 -173480 -175104 -176754 -178431 -180134 -181861 -183599 -185329 -187010 -188574 -189944 -191074 -191972 -192683 -193254 -193723 -194116 -194452 -194745 -51891.4 -52799.2 -53709 -54621 -55535.1 -56451.4 -57369.9 -58290.6 -59213.7 -60139 -61066.7 -61996.9 -62929.4 -63864.5 -64802.1 -65742.2 -66684.9 -67630.3 -68578.4 -69529.1 -70482.7 -71439 -72398.2 -73360.2 -74325.2 -75293.2 -76264.1 -77238.1 -78215.3 -79195.5 -80179 -81165.6 -82155.6 -83148.9 -84145.5 -85145.6 -86149.1 -87156.1 -88166.7 -89180.9 -90198.7 -91220.3 -92245.6 -93274.7 -94307.7 -95344.6 -96385.5 -97430.4 -98479.4 -99532.5 -100590 -101651 -102717 -103788 -104862 -105942 -107025 -108114 -109207 -110305 -111408 -112516 -113628 -114746 -115869 -116998 -118131 -119270 -120415 -121565 -122722 -123884 -125051 -126226 -127406 -128592 -129785 -130985 -132192 -133405 -134625 -135853 -137088 -138331 -139582 -140841 -142108 -143384 -144668 -145962 -147265 -148578 -149901 -151235 -152580 -153936 -155304 -156684 -158078 -159485 -160906 -162343 -163795 -165265 -166752 -168258 -169784 -171332 -172901 -174494 -176111 -177752 -179415 -181097 -182790 -184473 -186116 -187663 -189051 -190231 -191194 -191971 -192600 -193118 -193554 -193926 -194250 -194535 -53281.8 -54185.7 -55091.7 -55999.8 -56910 -57822.5 -58737.2 -59654.1 -60573.4 -61495 -62419 -63345.4 -64274.2 -65205.6 -66139.5 -67076 -68015.1 -68956.8 -69901.3 -70848.4 -71798.4 -72751.1 -73706.7 -74665.2 -75626.7 -76591.1 -77558.5 -78529 -79502.6 -80479.4 -81459.3 -82442.5 -83429 -84418.8 -85411.9 -86408.5 -87408.5 -88412.1 -89419.2 -90429.9 -91444.3 -92462.4 -93484.3 -94509.9 -95539.4 -96572.9 -97610.3 -98651.7 -99697.2 -100747 -101801 -102859 -103921 -104988 -106059 -107135 -108215 -109300 -110390 -111484 -112584 -113688 -114797 -115911 -117031 -118156 -119286 -120421 -121563 -122709 -123862 -125020 -126185 -127355 -128532 -129715 -130904 -132100 -133303 -134513 -135730 -136955 -138186 -139426 -140673 -141928 -143192 -144465 -145746 -147036 -148336 -149646 -150966 -152296 -153638 -154991 -156356 -157733 -159124 -160528 -161947 -163381 -164831 -166297 -167781 -169284 -170806 -172349 -173913 -175498 -177105 -178731 -180373 -182022 -183663 -185268 -186794 -188188 -189402 -190418 -191252 -191936 -192504 -192981 -193389 -193745 -194058 -194337 -54675.4 -55575.4 -56477.5 -57381.7 -58288.1 -59196.8 -60107.7 -61020.9 -61936.4 -62854.3 -63774.5 -64697.3 -65622.4 -66550.1 -67480.4 -68413.2 -69348.7 -70286.8 -71227.7 -72171.3 -73117.6 -74066.8 -75018.9 -75973.8 -76931.7 -77892.6 -78856.5 -79823.5 -80793.6 -81766.9 -82743.3 -83723 -84706 -85692.3 -86682 -87675.1 -88671.6 -89671.7 -90675.4 -91682.6 -92693.5 -93708.1 -94726.5 -95748.7 -96774.7 -97804.7 -98838.6 -99876.5 -100919 -101965 -103015 -104070 -105129 -106192 -107260 -108332 -109409 -110490 -111576 -112667 -113763 -114863 -115969 -117080 -118196 -119317 -120444 -121576 -122713 -123856 -125005 -126160 -127321 -128488 -129661 -130840 -132026 -133219 -134418 -135624 -136838 -138059 -139287 -140523 -141767 -143019 -144279 -145548 -146826 -148113 -149409 -150716 -152032 -153360 -154698 -156048 -157410 -158784 -160172 -161573 -162988 -164419 -165865 -167328 -168808 -170307 -171824 -173360 -174915 -176490 -178081 -179685 -181294 -182895 -184464 -185966 -187356 -188591 -189649 -190533 -191268 -191881 -192400 -192844 -193231 -193571 -193875 -194149 -56072.1 -56968.2 -57866.5 -58766.9 -59669.5 -60574.4 -61481.5 -62391 -63302.8 -64217 -65133.6 -66052.6 -66974.1 -67898.2 -68824.8 -69754 -70685.9 -71620.4 -72557.7 -73497.7 -74440.5 -75386.2 -76334.7 -77286.1 -78240.5 -79197.8 -80158.2 -81121.7 -82088.3 -83058.1 -84031 -85007.2 -85986.7 -86969.5 -87955.7 -88945.4 -89938.4 -90935 -91935.2 -92939 -93946.4 -94957.5 -95972.4 -96991.1 -98013.7 -99040.1 -100071 -101105 -102144 -103186 -104233 -105284 -106339 -107399 -108463 -109532 -110605 -111683 -112766 -113853 -114945 -116042 -117144 -118252 -119364 -120482 -121605 -122733 -123867 -125007 -126152 -127303 -128460 -129624 -130793 -131969 -133151 -134340 -135536 -136739 -137948 -139166 -140390 -141623 -142863 -144111 -145368 -146633 -147908 -149191 -150485 -151788 -153101 -154425 -155760 -157106 -158465 -159836 -161220 -162617 -164029 -165456 -166898 -168357 -169832 -171324 -172834 -174361 -175904 -177462 -179031 -180602 -182166 -183700 -185177 -186558 -187804 -188892 -189818 -190597 -191254 -191812 -192292 -192710 -193078 -193406 -193702 -193970 -57472 -58364.3 -59258.8 -60155.4 -61054.3 -61955.4 -62858.8 -63764.6 -64672.7 -65583.2 -66496.1 -67411.5 -68329.4 -69249.8 -70172.8 -71098.4 -72026.7 -72957.7 -73891.4 -74827.8 -75767.1 -76709.2 -77654.2 -78602.1 -79552.9 -80506.8 -81463.7 -82423.6 -83386.7 -84353 -85322.5 -86295.2 -87271.2 -88250.5 -89233.2 -90219.4 -91209 -92202.1 -93198.8 -94199.1 -95203 -96210.6 -97222 -98237.2 -99256.3 -100279 -101306 -102337 -103372 -104411 -105455 -106502 -107554 -108610 -109671 -110736 -111806 -112880 -113959 -115043 -116131 -117225 -118323 -119427 -120536 -121650 -122769 -123894 -125024 -126160 -127302 -128449 -129603 -130762 -131928 -133100 -134279 -135464 -136656 -137855 -139062 -140275 -141496 -142725 -143962 -145206 -146460 -147721 -148992 -150272 -151562 -152861 -154171 -155492 -156823 -158166 -159521 -160888 -162268 -163662 -165069 -166491 -167929 -169381 -170850 -172334 -173833 -175348 -176874 -178409 -179946 -181474 -182975 -184426 -185793 -187043 -188152 -189111 -189929 -190626 -191221 -191735 -192183 -192578 -192931 -193249 -193537 -193801 -58875.3 -59763.8 -60654.5 -61547.4 -62442.5 -63339.9 -64239.6 -65141.7 -66046.1 -66952.9 -67862.2 -68774 -69688.3 -70605.1 -71524.5 -72446.5 -73371.2 -74298.6 -75228.8 -76161.7 -77097.4 -78036 -78977.4 -79921.8 -80869.1 -81819.5 -82772.9 -83729.3 -84688.9 -85651.7 -86617.7 -87586.9 -88559.4 -89535.3 -90514.5 -91497.2 -92483.3 -93472.9 -94466.1 -95462.9 -96463.3 -97467.5 -98475.4 -99487.1 -100503 -101522 -102545 -103573 -104604 -105640 -106680 -107724 -108772 -109825 -110882 -111943 -113009 -114080 -115155 -116236 -117321 -118410 -119505 -120605 -121710 -122821 -123936 -125058 -126184 -127316 -128454 -129598 -130748 -131904 -133066 -134235 -135410 -136591 -137780 -138975 -140178 -141387 -142605 -143830 -145063 -146304 -147553 -148812 -150079 -151355 -152641 -153937 -155243 -156559 -157887 -159226 -160577 -161940 -163315 -164704 -166107 -167524 -168954 -170400 -171859 -173333 -174819 -176315 -177819 -179323 -180817 -182287 -183711 -185062 -186310 -187432 -188416 -189267 -189999 -190629 -191175 -191652 -192075 -192451 -192791 -193099 -193381 -193641 -60282 -61166.8 -62053.7 -62942.9 -63834.3 -64728 -65624 -66522.4 -67423.2 -68326.4 -69232.1 -70140.2 -71050.9 -71964.1 -72879.9 -73798.4 -74719.5 -75643.4 -76570 -77499.3 -78431.5 -79366.6 -80304.5 -81245.4 -82189.2 -83136 -84085.9 -85038.9 -85995 -86954.3 -87916.8 -88882.5 -89851.5 -90823.9 -91799.6 -92778.8 -93761.4 -94747.5 -95737.2 -96730.5 -97727.5 -98728.1 -99732.5 -100741 -101753 -102769 -103788 -104812 -105840 -106872 -107908 -108949 -109994 -111043 -112096 -113154 -114217 -115284 -116355 -117432 -118513 -119600 -120691 -121787 -122889 -123995 -125107 -126225 -127348 -128476 -129610 -130751 -131897 -133049 -134207 -135372 -136543 -137721 -138906 -140097 -141296 -142502 -143716 -144937 -146166 -147403 -148649 -149904 -151167 -152439 -153721 -155013 -156315 -157628 -158951 -160286 -161632 -162990 -164361 -165745 -167141 -168551 -169974 -171409 -172858 -174317 -175785 -177258 -178731 -180193 -181633 -183030 -184363 -185605 -186733 -187737 -188614 -189377 -190038 -190614 -191120 -191568 -191968 -192329 -192657 -192957 -193233 -193490 -61692.3 -62573.3 -63456.5 -64342 -65229.7 -66119.8 -67012.1 -67906.9 -68804 -69703.6 -70605.6 -71510.2 -72417.3 -73326.9 -74239.2 -75154.1 -76071.7 -76992 -77915.1 -78840.9 -79769.6 -80701.1 -81635.5 -82572.8 -83513.2 -84456.5 -85402.9 -86352.4 -87305 -88260.8 -89219.7 -90182 -91147.5 -92116.4 -93088.6 -94064.3 -95043.4 -96026 -97012.2 -98002 -98995.4 -99992.5 -100993 -101998 -103006 -104019 -105035 -106055 -107080 -108108 -109141 -110178 -111219 -112264 -113314 -114369 -115427 -116491 -117559 -118632 -119709 -120792 -121880 -122972 -124070 -125173 -126281 -127395 -128514 -129639 -130769 -131906 -133048 -134196 -135351 -136512 -137679 -138854 -140034 -141222 -142417 -143619 -144829 -146046 -147272 -148505 -149747 -150997 -152257 -153525 -154803 -156091 -157388 -158696 -160015 -161345 -162686 -164039 -165404 -166781 -168170 -169571 -170984 -172408 -173841 -175282 -176726 -178169 -179601 -181011 -182383 -183696 -184928 -186058 -187074 -187973 -188761 -189451 -190054 -190587 -191059 -191482 -191864 -192211 -192529 -192822 -193093 -193346 -63106.2 -63983.5 -64863 -65744.8 -66628.9 -67515.3 -68404 -69295.1 -70188.7 -71084.6 -71983.1 -72884.1 -73787.6 -74693.7 -75602.4 -76513.7 -77427.8 -78344.5 -79264.1 -80186.4 -81111.5 -82039.5 -82970.4 -83904.3 -84841.1 -85780.9 -86723.8 -87669.8 -88618.9 -89571.2 -90526.7 -91485.4 -92447.4 -93412.8 -94381.5 -95353.6 -96329.3 -97308.4 -98291 -99277.3 -100267 -101261 -102258 -103259 -104264 -105273 -106286 -107302 -108323 -109348 -110377 -111410 -112448 -113490 -114536 -115586 -116642 -117701 -118766 -119835 -120909 -121988 -123072 -124161 -125255 -126354 -127458 -128568 -129684 -130805 -131931 -133064 -134202 -135347 -136498 -137655 -138818 -139989 -141166 -142349 -143540 -144739 -145944 -147158 -148379 -149608 -150846 -152092 -153347 -154612 -155885 -157168 -158461 -159765 -161078 -162403 -163738 -165085 -166442 -167811 -169191 -170582 -171982 -173390 -174805 -176222 -177636 -179039 -180421 -181767 -183060 -184280 -185408 -186432 -187347 -188156 -188869 -189498 -190055 -190551 -190996 -191398 -191763 -192098 -192407 -192694 -192961 -193211 -64523.8 -65397.4 -66273.3 -67151.5 -68031.9 -68914.6 -69799.8 -70687.3 -71577.2 -72469.6 -73364.5 -74261.8 -75161.8 -76064.3 -76969.5 -77877.3 -78787.8 -79701.1 -80617.1 -81535.9 -82457.5 -83382 -84309.4 -85239.7 -86173 -87109.3 -88048.7 -88991.2 -89936.8 -90885.6 -91837.6 -92792.8 -93751.3 -94713.1 -95678.3 -96647 -97619.1 -98594.6 -99573.8 -100556 -101543 -102533 -103527 -104524 -105525 -106531 -107540 -108553 -109570 -110591 -111617 -112646 -113680 -114718 -115761 -116808 -117859 -118916 -119976 -121042 -122112 -123187 -124267 -125352 -126442 -127538 -128639 -129745 -130856 -131973 -133096 -134225 -135360 -136500 -137647 -138800 -139960 -141126 -142299 -143479 -144666 -145860 -147062 -148271 -149488 -150713 -151947 -153189 -154439 -155699 -156967 -158246 -159534 -160831 -162139 -163458 -164786 -166125 -167475 -168834 -170203 -171580 -172964 -174353 -175744 -177130 -178506 -179861 -181182 -182454 -183660 -184782 -185810 -186736 -187563 -188297 -188948 -189527 -190044 -190510 -190931 -191315 -191667 -191991 -192292 -192573 -192836 -193083 -65945.3 -66815.3 -67687.5 -68562 -69438.8 -70317.9 -71199.4 -72083.4 -72969.7 -73858.5 -74749.8 -75643.7 -76540 -77439 -78340.7 -79245 -80151.9 -81061.6 -81974.1 -82889.4 -83807.5 -84728.5 -85652.4 -86579.2 -87509 -88441.8 -89377.7 -90316.7 -91258.8 -92204 -93152.5 -94104.2 -95059.2 -96017.5 -96979.2 -97944.3 -98912.8 -99884.9 -100860 -101840 -102822 -103809 -104799 -105793 -106791 -107792 -108798 -109807 -110821 -111839 -112860 -113886 -114916 -115951 -116990 -118033 -119081 -120133 -121190 -122252 -123318 -124390 -125466 -126547 -127634 -128725 -129822 -130924 -132032 -133145 -134264 -135389 -136520 -137656 -138799 -139948 -141104 -142266 -143435 -144611 -145793 -146983 -148181 -149386 -150598 -151819 -153048 -154285 -155531 -156786 -158049 -159322 -160604 -161896 -163197 -164509 -165829 -167159 -168499 -169846 -171201 -172562 -173927 -175292 -176652 -178000 -179329 -180626 -181877 -183067 -184182 -185209 -186143 -186983 -187734 -188404 -189003 -189541 -190026 -190465 -190866 -191234 -191574 -191889 -192183 -192458 -192718 -192963 -67370.7 -68237 -69105.6 -69976.5 -70849.7 -71725.2 -72603.2 -73483.5 -74366.3 -75251.5 -76139.3 -77029.5 -77922.4 -78817.9 -79715.9 -80616.7 -81520.2 -82426.3 -83335.3 -84247.1 -85161.7 -86079.1 -86999.5 -87922.8 -88849.1 -89778.4 -90710.8 -91646.2 -92584.8 -93526.5 -94471.5 -95419.7 -96371.1 -97325.9 -98284.1 -99245.6 -100211 -101179 -102151 -103127 -104106 -105089 -106075 -107066 -108060 -109058 -110060 -111066 -112075 -113089 -114107 -115130 -116156 -117187 -118222 -119262 -120306 -121354 -122407 -123465 -124528 -125595 -126668 -127745 -128828 -129916 -131008 -132107 -133211 -134320 -135435 -136556 -137682 -138815 -139954 -141099 -142250 -143408 -144573 -145744 -146923 -148108 -149301 -150502 -151710 -152926 -154150 -155382 -156623 -157872 -159130 -160397 -161673 -162957 -164251 -165554 -166865 -168185 -169512 -170845 -172184 -173524 -174864 -176199 -177522 -178825 -180098 -181328 -182502 -183606 -184631 -185568 -186418 -187183 -187870 -188486 -189042 -189544 -190001 -190419 -190802 -191156 -191485 -191792 -192080 -192351 -192607 -192850 -68800.1 -69662.8 -70527.8 -71395.1 -72264.7 -73136.6 -74011 -74887.8 -75767 -76648.7 -77532.9 -78419.6 -79308.9 -80200.8 -81095.4 -81992.6 -82892.6 -83795.2 -84700.7 -85608.9 -86520 -87434 -88350.8 -89270.6 -90193.4 -91119.2 -92048 -92979.9 -93915 -94853.2 -95794.6 -96739.2 -97687.2 -98638.4 -99593 -100551 -101512 -102477 -103446 -104418 -105393 -106373 -107356 -108342 -109333 -110327 -111325 -112328 -113334 -114344 -115358 -116377 -117400 -118427 -119458 -120494 -121534 -122579 -123628 -124682 -125741 -126805 -127873 -128947 -130025 -131109 -132198 -133292 -134392 -135497 -136608 -137725 -138847 -139976 -141110 -142251 -143398 -144552 -145712 -146879 -148053 -149234 -150423 -151618 -152822 -154033 -155252 -156478 -157713 -158957 -160208 -161468 -162737 -164014 -165299 -166592 -167892 -169199 -170512 -171828 -173145 -174461 -175771 -177068 -178347 -179596 -180806 -181963 -183056 -184075 -185013 -185869 -186645 -187345 -187977 -188549 -189068 -189540 -189973 -190371 -190740 -191082 -191401 -191701 -191983 -192250 -192503 -192743 -70233.6 -71092.7 -71954.1 -72817.8 -73683.8 -74552.2 -75423 -76296.2 -77171.9 -78050 -78930.7 -79813.9 -80699.7 -81588.1 -82479.1 -83372.8 -84269.2 -85168.4 -86070.3 -86975 -87882.6 -88793 -89706.4 -90622.6 -91541.9 -92464.1 -93389.5 -94317.8 -95249.4 -96184 -97121.9 -98063 -99007.3 -99955 -100906 -101860 -102818 -103780 -104744 -105713 -106685 -107660 -108640 -109623 -110610 -111600 -112595 -113593 -114596 -115602 -116613 -117628 -118647 -119670 -120697 -121729 -122766 -123807 -124852 -125902 -126957 -128017 -129081 -130151 -131226 -132305 -133390 -134480 -135576 -136677 -137784 -138897 -140015 -141139 -142269 -143406 -144549 -145698 -146854 -148016 -149185 -150362 -151545 -152736 -153934 -155139 -156353 -157574 -158802 -160039 -161284 -162536 -163796 -165064 -166339 -167620 -168908 -170199 -171494 -172789 -174081 -175367 -176640 -177895 -179121 -180309 -181449 -182529 -183541 -184478 -185338 -186121 -186833 -187478 -188064 -188597 -189084 -189531 -189943 -190325 -190680 -191011 -191322 -191615 