<?xml version="1.0"?> 
<VTKFile type="StructuredGrid" version="0.1"> 
<StructuredGrid WholeExtent="0 127 0 127 0 0"> 
<Piece Extent="0 127 0 127 0 0"> 
<PointData>
<DataArray type="Float32" Name="u" format="ascii" NumberOfComponents="1"> 
-200000 -200000 -200000 -200000 -200000 -200000 -200000 -200000 -200000 -200000 -200000 -200000 -200000 -200000 -200000 -200000 -200000 -200000 -200000 -200000 -200000 -200000 -200000 -200000 -200000 -200000 -200000 -200000 -200000 -200000 -200000 -200000 -200000 -200000 -200000 -200000 -200000 -200000 -200000 -200000 -200000 -200000 -200000 -200000 -200000 -200000 -200000 -200000 -200000 -200000 -200000 -200000 -200000 -200000 -200000 -200000 -200000 -200000 -200000 -200000 -200000 -200000 -200000 -200000 -200000 -200000 -200000 -200000 -200000 -200000 -200000 -200000 -200000 -200000 -200000 -200000 -200000 -200000 -200000 -200000 -200000 -200000 -200000 -200000 -200000 -200000 -200000 -200000 -200000 -200000 -200000 -200000 -200000 -200000 -200000 -200000 -200000 -200000 -200000 -200000 -200000 -200000 -200000 -200000 -200000 -200000 -200000 -200000 -200000 -200000 -200000 -200000 -200000 -200000 -200000 -200000 -200000 -200000 -200000 -200000 -200000 -200000 -200000 -200000 -200000 -200000 -200000 -200000 -198932 -199200 -199324 -199401 -199455 -199496 -199529 -199557 -199581 -199601 -199620 -199636 -199651 -199665 -199678 -199689 -199700 -199711 -199720 -199730 -199739 -199747 -199755 -199763 -199770 -199778 -199785 -199792 -199798 -199805 -199811 -199817 -199823 -199829 -199834 -199840 -199845 -199851 -199856 -199861 -199866 -199871 -199876 -199881 -199886 -199890 -199895 -199899 -199904 -199908 -199912 -199916 -199920 -199924 -199928 -199931 -199935 -199938 -199942 -199945 -199948 -199951 -199954 -199957 -199959 -199962 -199964 -199967 -199969 -199971 -199973 -199975 -199976 -199978 -199980 -199981 -199982 -199984 -199985 -199986 -199987 -199988 -199989 -199990 -199991 -199991 -199992 -199993 -199993 -199994 -199994 -199995 -199995 -199996 -199996 -199996 -199997 -199997 -199997 -199997 -199998 -199998 -199998 -199998 -199998 -199998 -199999 -199999 -199999 -199999 -199999 -199999 -199999 -199999 -199999 -199999 -199999 -199999 -199999 -200000 -200000 -200000 -200000 -200000 -200000 -200000 -200000 -200000 -198301 -198592 -198763 -198880 -198969 -199039 -199097 -199147 -199190 -199228 -199262 -199292 -199320 -199346 -199370 -199393 -199414 -199434 -199453 -199471 -199488 -199504 -199520 -199535 -199550 -199564 -199577 -199591 -199604 -199616 -199629 -199641 -199652 -199664 -199675 -199686 -199697 -199707 -199718 -199728 -199738 -199748 -199757 -199767 -199776 -199785 -199794 -199803 -199811 -199820 -199828 -199836 -199844 -199851 -199859 -199866 -199873 -199880 -199886 -199892 -199899 -199904 -199910 -199915 -199921 -199926 -199930 -199935 -199939 -199943 -199947 -199951 -199954 -199957 -199960 -199963 -199966 -199968 -199971 -199973 -199975 -199977 -199979 -199980 -199982 -199983 -199985 -199986 -199987 -199988 -199989 -199990 -199991 -199991 -199992 -199993 -199993 -199994 -199994 -199995 -199995 -199996 -199996 -199996 -199997 -199997 -199997 -199997 -199998 -199998 -199998 -199998 -199998 -199998 -199999 -199999 -199999 -199999 -199999 -199999 -199999 -199999 -199999 -199999 -199999 -199999 -199999 -199999 -197802 -198085 -198276 -198418 -198530 -198621 -198698 -198765 -198824 -198876 -198924 -198967 -199006 -199043 -199077 -199110 -199140 -199169 -199196 -199222 -199247 -199270 -199293 -199316 -199337 -199358 -199378 -199397 -199416 -199435 -199453 -199471 -199488 -199505 -199521 -199538 -199554 -199569 -199585 -199600 -199614 -199629 -199643 -199657 -199671 -199684 -199697 -199710 -199723 -199735 -199747 -199759 -199771 -199782 -199793 -199803 -199814 -199824 -199833 -199843 -199852 -199860 -199868 -199876 -199884 -199891 -199898 -199905 -199911 -199917 -199923 -199928 -199933 -199938 -199942 -199946 -199950 -199954 -199957 -199960 -199963 -199966 -199969 -199971 -199973 -199975 -199977 -199979 -199981 -199982 -199984 -199985 -199986 -199987 -199988 -199989 -199990 -199991 -199992 -199992 -199993 -199994 -199994 -199995 -199995 -199995 -199996 -199996 -199996 -199997 -199997 -199997 -199998 -199998 -199998 -199998 -199998 -199998 -199999 -199999 -199999 -199999 -199999 -199999 -199999 -199999 -199999 -199999 -197368 -197642 -197843 -198000 -198128 -198235 -198328 -198408 -198480 -198545 -198604 -198658 -198708 -198755 -198798 -198839 -198878 -198915 -198950 -198983 -199015 -199046 -199076 -199105 -199133 -199160 -199186 -199211 -199236 -199260 -199284 -199307 -199330 -199352 -199374 -199395 -199416 -199437 -199457 -199477 -199496 -199515 -199534 -199552 -199570 -199588 -199605 -199622 -199639 -199655 -199671 -199686 -199701 -199716 -199730 -199744 -199758 -199771 -199783 -199795 -199807 -199818 -199829 -199839 -199849 -199859 -199868 -199876 -199884 -199892 -199900 -199906 -199913 -199919 -199925 -199930 -199935 -199940 -199944 -199949 -199953 -199956 -199959 -199963 -199965 -199968 -199971 -199973 -199975 -199977 -199979 -199981 -199982 -199984 -199985 -199986 -199987 -199988 -199989 -199990 -199991 -199992 -199992 -199993 -199994 -199994 -199995 -199995 -199995 -199996 -199996 -199996 -199997 -199997 -199997 -199997 -199998 -199998 -199998 -199998 -199998 -199998 -199999 -199999 -199999 -199999 -199999 -199999 -196979 -197245 -197452 -197618 -197758 -197877 -197981 -198074 -198157 -198232 -198301 -198365 -198424 -198479 -198531 -198581 -198627 -198671 -198714 -198754 -198793 -198831 -198867 -198902 -198936 -198969 -199001 -199032 -199063 -199093 -199122 -199150 -199178 -199205 -199232 -199258 -199284 -199309 -199334 -199359 -199383 -199406 -199429 -199452 -199474 -199496 -199517 -199538 -199558 -199578 -199598 -199617 -199635 -199653 -199671 -199688 -199704 -199720 -199736 -199751 -199765 -199779 -199792 -199804 -199817 -199828 -199839 -199850 -199859 -199869 -199878 -199886 -199894 -199902 -199909 -199915 -199921 -199927 -199932 -199937 -199942 -199947 -199951 -199954 -199958 -199961 -199964 -199967 -199970 -199972 -199974 -199976 -199978 -199980 -199982 -199983 -199984 -199986 -199987 -199988 -199989 -199990 -199991 -199991 -199992 -199993 -199993 -199994 -199994 -199995 -199995 -199996 -199996 -199996 -199997 -199997 -199997 -199997 -199998 -199998 -199998 -199998 -199998 -199998 -199998 -199999 -199999 -199998 -196625 -196884 -197093 -197266 -197414 -197543 -197657 -197759 -197852 -197936 -198014 -198086 -198154 -198217 -198277 -198333 -198387 -198439 -198488 -198535 -198580 -198624 -198667 -198708 -198747 -198786 -198824 -198861 -198896 -198932 -198966 -198999 -199032 -199064 -199096 -199127 -199158 -199187 -199217 -199246 -199274 -199302 -199329 -199356 -199382 -199408 -199433 -199458 -199482 -199505 -199528 -199551 -199573 -199594 -199614 -199635 -199654 -199673 -199691 -199708 -199725 -199741 -199757 -199772 -199786 -199799 -199812 -199824 -199836 -199847 -199857 -199867 -199876 -199885 -199893 -199901 -199908 -199915 -199921 -199927 -199932 -199938 -199942 -199947 -199951 -199955 -199958 -199961 -199964 -199967 -199970 -199972 -199974 -199976 -199978 -199980 -199982 -199983 -199984 -199986 -199987 -199988 -199989 -199990 -199991 -199991 -199992 -199993 -199993 -199994 -199994 -199995 -199995 -199996 -199996 -199996 -199997 -199997 -199997 -199997 -199998 -199998 -199998 -199998 -199998 -199998 -199998 -199998 -196300 -196552 -196762 -196940 -197094 -197231 -197352 -197463 -197563 -197656 -197741 -197821 -197896 -197967 -198034 -198097 -198158 -198216 -198271 -198325 -198376 -198426 -198474 -198521 -198566 -198611 -198654 -198696 -198737 -198777 -198816 -198855 -198892 -198929 -198966 -199001 -199036 -199071 -199104 -199138 -199170 -199202 -199233 -199264 -199294 -199324 -199353 -199381 -199409 -199436 -199462 -199488 -199513 -199537 -199561 -199584 -199606 -199628 -199648 -199668 -199688 -199706 -199724 -199741 -199757 -199772 -199787 -199801 -199814 -199826 -199838 -199849 -199860 -199870 -199879 -199888 -199896 -199903 -199910 -199917 -199923 -199929 -199934 -199939 -199944 -199948 -199952 -199956 -199960 -199963 -199966 -199968 -199971 -199973 -199975 -199977 -199979 -199981 -199982 -199984 -199985 -199986 -199987 -199988 -199989 -199990 -199991 -199992 -199992 -199993 -199994 -199994 -199995 -199995 -199995 -199996 -199996 -199996 -199997 -199997 -199997 -199997 -199998 -199998 -199998 -199998 -199998 -199998 -195997 -196244 -196454 -196635 -196795 -196937 -197065 -197182 -197290 -197390 -197482 -197569 -197651 -197728 -197802 -197871 -197938 -198002 -198064 -198123 -198180 -198236 -198290 -198342 -198393 -198442 -198490 -198537 -198584 -198629 -198673 -198716 -198758 -198800 -198841 -198881 -198920 -198959 -198997 -199034 -199071 -199107 -199142 -199177 -199211 -199244 -199277 -199309 -199340 -199370 -199400 -199429 -199457 -199484 -199511 -199536 -199561 -199585 -199609 -199631 -199652 -199673 -199693 -199711 -199729 -199747 -199763 -199778 -199793 -199807 -199820 -199832 -199844 -199855 -199865 -199875 -199884 -199893 -199900 -199908 -199915 -199921 -199927 -199933 -199938 -199943 -199947 -199951 -199955 -199958 -199962 -199965 -199967 -199970 -199972 -199975 -199977 -199978 -199980 -199982 -199983 -199985 -199986 -199987 -199988 -199989 -199990 -199991 -199991 -199992 -199993 -199993 -199994 -199994 -199995 -199995 -199996 -199996 -199996 -199997 -199997 -199997 -199997 -199997 -199998 -199998 -199998 -199998 -195715 -195957 -196166 -196350 -196513 -196660 -196794 -196917 -197031 -197137 -197236 -197329 -197417 -197500 -197580 -197656 -197728 -197798 -197865 -197930 -197993 -198054 -198113 -198170 -198226 -198281 -198334 -198386 -198437 -198487 -198535 -198583 -198630 -198676 -198722 -198766 -198810 -198853 -198895 -198936 -198977 -199017 -199056 -199094 -199132 -199169 -199205 -199240 -199274 -199308 -199341 -199373 -199404 -199434 -199463 -199492 -199519 -199546 -199571 -199596 -199619 -199642 -199663 -199684 -199704 -199723 -199741 -199758 -199774 -199789 -199803 -199817 -199829 -199841 -199853 -199863 -199873 -199882 -199891 -199899 -199907 -199914 -199920 -199926 -199932 -199937 -199942 -199946 -199951 -199954 -199958 -199961 -199964 -199967 -199970 -199972 -199974 -199976 -199978 -199980 -199982 -199983 -199984 -199986 -199987 -199988 -199989 -199990 -199991 -199991 -199992 -199993 -199993 -199994 -199994 -199995 -199995 -199996 -199996 -199996 -199996 -199997 -199997 -199997 -199997 -199997 -199998 -199998 -195451 -195688 -195896 -196081 -196248 -196399 -196538 -196666 -196786 -196897 -197002 -197100 -197194 -197283 -197368 -197449 -197528 -197603 -197675 -197745 -197813 -197879 -197944 -198006 -198067 -198126 -198184 -198241 -198296 -198351 -198404 -198457 -198508 -198558 -198608 -198656 -198704 -198751 -198797 -198843 -198887 -198931 -198974 -199016 -199057 -199097 -199136 -199175 -199213 -199249 -199285 -199320 -199354 -199387 -199419 -199450 -199479 -199508 -199536 -199563 -199588 -199613 -199636 -199659 -199680 -199700 -199720 -199738 -199755 -199772 -199787 -199802 -199816 -199829 -199841 -199852 -199863 -199873 -199882 -199891 -199899 -199907 -199914 -199920 -199926 -199932 -199937 -199942 -199946 -199951 -199954 -199958 -199961 -199964 -199967 -199970 -199972 -199974 -199976 -199978 -199980 -199982 -199983 -199984 -199986 -199987 -199988 -199989 -199990 -199990 -199991 -199992 -199993 -199993 -199994 -199994 -199995 -199995 -199995 -199996 -199996 -199996 -199997 -199997 -199997 -199997 -199997 -199997 -195202 -195435 -195642 -195829 -195998 -196153 -196296 -196429 -196553 -196669 -196779 -196883 -196981 -197076 -197166 -197253 -197336 -197416 -197494 -197569 -197642 -197713 -197782 -197849 -197914 -197978 -198041 -198102 -198162 -198221 -198279 -198335 -198391 -198446 -198499 -198552 -198604 -198655 -198705 -198754 -198802 -198849 -198896 -198941 -198986 -199029 -199072 -199114 -199154 -199194 -199233 -199270 -199307 -199343 -199377 -199410 -199442 -199473 -199503 -199532 -199559 -199586 -199611 -199635 -199658 -199680 -199700 -199720 -199739 -199756 -199773 -199788 -199803 -199817 -199830 -199842 -199854 -199864 -199874 -199883 -199892 -199900 -199908 -199915 -199921 -199927 -199933 -199938 -199943 -199947 -199951 -199955 -199958 -199962 -199965 -199967 -199970 -199972 -199975 -199977 -199978 -199980 -199982 -199983 -199984 -199986 -199987 -199988 -199989 -199990 -199991 -199991 -199992 -199993 -199993 -199994 -199994 -199995 -199995 -199995 -199996 -199996 -199996 -199997 -199997 -199997 -199997 -199997 -194967 -195197 -195403 -195590 -195762 -195920 -196066 -196203 -196331 -196452 -196567 -196675 -196779 -196878 -196973 -197065 -197153 -197238 -197320 -197400 -197478 -197553 -197627 -197699 -197769 -197837 -197904 -197970 -198034 -198097 -198159 -198220 -198280 -198338 -198396 -198453 -198508 -198563 -198617 -198669 -198721 -198772 -198822 -198871 -198919 -198965 -199011 -199056 -199100 -199142 -199184 -199224 -199263 -199301 -199338 -199373 -199408 -199441 -199473 -199503 -199532 -199561 -199587 -199613 -199637 -199660 -199682 -199703 -199723 -199742 -199759 -199776 -199791 -199806 -199820 -199833 -199845 -199856 -199867 -199876 -199885 -199894 -199902 -199909 -199916 -199923 -199928 -199934 -199939 -199944 -199948 -199952 -199956 -199959 -199962 -199965 -199968 -199971 -199973 -199975 -199977 -199979 -199980 -199982 -199983 -199985 -199986 -199987 -199988 -199989 -199990 -199991 -199991 -199992 -199993 -199993 -199994 -199994 -199995 -199995 -199995 -199996 -199996 -199996 -199997 -199997 -199997 -199997 -194745 -194972 -195177 -195365 -195538 -195699 -195848 -195989 -196121 -196246 -196365 -196478 -196586 -196690 -196789 -196885 -196978 -197068 -197155 -197239 -197321 -197401 -197479 -197555 -197630 -197702 -197774 -197844 -197912 -197979 -198045 -198110 -198174 -198236 -198298 -198358 -198418 -198476 -198533 -198590 -198645 -198699 -198752 -198805 -198856 -198905 -198954 -199002 -199048 -199094 -199138 -199181 -199222 -199263 -199302 -199339 -199376 -199411 -199444 -199477 -199508 -199537 -199566 -199593 -199618 -199643 -199666 -199688 -199709 -199728 -199747 -199764 -199781 -199796 -199810 -199824 -199837 -199848 -199859 -199870 -199879 -199888 -199897 -199904 -199912 -199918 -199925 -199930 -199936 -199941 -199945 -199949 -199953 -199957 -199960 -199963 -199966 -199969 -199971 -199973 -199976 -199977 -199979 -199981 -199982 -199984 -199985 -199986 -199987 -199988 -199989 -199990 -199991 -199992 -199992 -199993 -199993 -199994 -199994 -199995 -199995 -199996 -199996 -199996 -199996 -199997 -199997 -199997 -194535 -194759 -194964 -195152 -195327 -195489 -195642 -195785 -195921 -196050 -196173 -196290 -196402 -196510 -196614 -196714 -196811 -196905 -196997 -197085 -197172 -197256 -197338 -197419 -197497 -197574 -197650 -197723 -197796 -197867 -197937 -198006 -198073 -198140 -198205 -198269 -198332 -198394 -198455 -198515 -198573 -198631 -198687 -198742 -198796 -198849 -198901 -198951 -199000 -199048 -199095 -199140 -199184 -199227 -199268 -199308 -199346 -199383 -199418 -199452 -199485 -199516 -199546 -199574 -199601 -199626 -199651 -199674 -199695 -199716 -199735 -199753 -199771 -199787 -199802 -199816 -199829 -199841 -199853 -199864 -199874 -199883 -199892 -199900 -199907 -199914 -199921 -199927 -199932 -199938 -199942 -199947 -199951 -199955 -199958 -199961 -199964 -199967 -199970 -199972 -199974 -199976 -199978 -199980 -199981 -199983 -199984 -199985 -199987 -199988 -199989 -199989 -199990 -199991 -199992 -199992 -199993 -199994 -199994 -199994 -199995 -199995 -199996 -199996 -199996 -199996 -199997 -199997 -194337 -194558 -194762 -194950 -195126 -195291 -195446 -195592 -195731 -195864 -195990 -196111 -196227 -196339 -196447 -196551 -196653 -196751 -196846 -196939 -197029 -197118 -197204 -197288 -197371 -197452 -197531 -197609 -197686 -197761 -197835 -197907 -197978 -198048 -198117 -198185 -198251 -198317 -198381 -198444 -198506 -198566 -198626 -198684 -198741 -198797 -198851 -198904 -198956 -199006 -199055 -199103 -199149 -199193 -199237 -199278 -199318 -199357 -199394 -199430 -199464 -199496 -199527 -199557 -199585 -199611 -199637 -199661 -199683 -199705 -199725 -199744 -199761 -199778 -199794 -199809 -199822 -199835 -199847 -199858 -199869 -199878 -199887 -199896 -199904 -199911 -199918 -199924 -199930 -199935 -199940 -199944 -199949 -199953 -199956 -199960 -199963 -199966 -199968 -199971 -199973 -199975 -199977 -199979 -199981 -199982 -199983 -199985 -199986 -199987 -199988 -199989 -199990 -199991 -199991 -199992 -199993 -199993 -199994 -199994 -199995 -199995 -199995 -199996 -199996 -199996 -199996 -199997 -194149 -194368 -194570 -194759 -194936 -195103 -195260 -195409 -195551 -195687 -195816 -195941 -196061 -196176 -196288 -196396 -196502 -196604 -196703 -196800 -196894 -196986 -197077 -197165 -197251 -197336 -197419 -197501 -197581 -197660 -197737 -197814 -197888 -197962 -198034 -198105 -198175 -198244 -198311 -198377 -198442 -198506 -198568 -198629 -198689 -198748 -198805 -198860 -198915 -198967 -199018 -199068 -199116 -199163 -199208 -199251 -199293 -199333 -199372 -199409 -199444 -199478 -199510 -199541 -199570 -199598 -199624 -199649 -199672 -199694 -199715 -199735 -199753 -199770 -199787 -199802 -199816 -199829 -199842 -199853 -199864 -199874 -199883 -199892 -199900 -199907 -199914 -199921 -199927 -199932 -199938 -199942 -199947 -199951 -199955 -199958 -199961 -199964 -199967 -199970 -199972 -199974 -199976 -199978 -199980 -199981 -199983 -199984 -199985 -199986 -199987 -199988 -199989 -199990 -199991 -199992 -199992 -199993 -199993 -199994 -199994 -199995 -199995 -199995 -199996 -199996 -199996 -199996 -193970 -194187 -194389 -194579 -194757 -194925 -195084 -195235 -195380 -195519 -195652 -195779 -195903 -196022 -196137 -196249 -196358 -196464 -196567 -196667 -196766 -196862 -196956 -197048 -197138 -197226 -197313 -197399 -197482 -197565 -197646 -197725 -197804 -197881 -197956 -198031 -198104 -198176 -198246 -198315 -198383 -198450 -198515 -198579 -198641 -198702 -198762 -198820 -198876 -198931 -198985 -199036 -199086 -199135 -199182 -199227 -199270 -199312 -199352 -199390 -199427 -199462 -199495 -199527 -199557 -199585 -199612 -199638 -199662 -199685 -199706 -199727 -199746 -199763 -199780 -199796 -199810 -199824 -199837 -199849 -199860 -199870 -199879 -199888 -199897 -199904 -199912 -199918 -199924 -199930 -199935 -199940 -199945 -199949 -199953 -199957 -199960 -199963 -199966 -199968 -199971 -199973 -199975 -199977 -199979 -199980 -199982 -199983 -199985 -199986 -199987 -199988 -199989 -199990 -199991 -199991 -199992 -199993 -199993 -199994 -199994 -199994 -199995 -199995 -199996 -199996 -199996 -199996 -193801 -194017 -194218 -194407 -194586 -194756 -194917 -195071 -195218 -195359 -195495 -195626 -195753 -195875 -195994 -196109 -196222 -196331 -196438 -196542 -196644 -196743 -196841 -196937 -197030 -197123 -197213 -197302 -197389 -197475 -197559 -197642 -197724 -197804 -197883 -197961 -198037 -198112 -198185 -198257 -198328 -198398 -198466 -198532 -198597 -198660 -198722 -198783 -198841 -198898 -198954 -199007 -199059 -199109 -199158 -199204 -199249 -199292 -199334 -199373 -199411 -199447 -199481 -199514 -199545 -199574 -199602 -199628 -199653 -199677 -199699 -199719 -199739 -199757 -199774 -199790 -199805 -199819 -199832 -199844 -199856 -199866 -199876 -199885 -199894 -199902 -199909 -199916 -199922 -199928 -199933 -199938 -199943 -199947 -199951 -199955 -199959 -199962 -199965 -199967 -199970 -199972 -199974 -199976 -199978 -199980 -199981 -199983 -199984 -199985 -199986 -199987 -199988 -199989 -199990 -199991 -199992 -199992 -199993 -199993 -199994 -199994 -199995 -199995 -199995 -199996 -199996 -199996 -193641 -193855 -194056 -194245 -194425 -194596 -194759 -194915 -195064 -195208 -195347 -195481 -195610 -195736 -195858 -195977 -196093 -196205 -196315 -196423 -196528 -196632 -196733 -196832 -196929 -197025 -197118 -197211 -197301 -197391 -197478 -197565 -197649 -197733 -197815 -197895 -197975 -198052 -198129 -198204 -198277 -198349 -198420 -198489 -198556 -198622 -198686 -198749 -198809 -198868 -198926 -198981 -199035 -199086 -199136 -199184 -199231 -199275 -199317 -199358 -199397 -199434 -199469 -199503 -199534 -199564 -199593 -199620 -199645 -199669 -199692 -199713 -199733 -199751 -199769 -199785 -199800 -199815 -199828 -199841 -199852 -199863 -199873 -199882 -199891 -199899 -199907 -199914 -199920 -199926 -199932 -199937 -199941 -199946 -199950 -199954 -199957 -199961 -199964 -199966 -199969 -199971 -199973 -199975 -199977 -199979 -199981 -199982 -199984 -199985 -199986 -199987 -199988 -199989 -199990 -199991 -199991 -199992 -199992 -199993 -199994 -199994 -199994 -199995 -199995 -199995 -199996 -199996 -193490 -193702 -193902 -194092 -194272 -194444 -194609 -194767 -194919 -195065 -195206 -195343 -195476 -195605 -195730 -195852 -195970 -196087 -196200 -196311 -196420 -196526 -196630 -196733 -196834 -196932 -197030 -197125 -197219 -197311 -197402 -197492 -197580 -197666 -197751 -197835 -197917 -197997 -198077 -198154 -198230 -198305 -198378 -198449 -198519 -198587 -198653 -198718 -198780 -198841 -198900 -198957 -199012 -199066 -199117 -199166 -199214 -199259 -199303 -199345 -199384 -199422 -199458 -199492 -199525 -199556 -199585 -199612 -199638 -199663 -199686 -199707 -199727 -199746 -199764 -199781 -199796 -199811 -199824 -199837 -199849 -199860 -199870 -199880 -199889 -199897 -199904 -199912 -199918 -199924 -199930 -199935 -199940 -199945 -199949 -199953 -199956 -199959 -199963 -199965 -199968 -199970 -199973 -199975 -199977 -199978 -199980 -199982 -199983 -199984 -199985 -199987 -199988 -199989 -199989 -199990 -199991 -199992 -199992 -199993 -199993 -199994 -199994 -199995 -199995 -199995 -199996 -199996 -193346 -193557 -193757 -193947 -194128 -194301 -194468 -194627 -194781 -194930 -195074 -195213 -195349 -195480 -195608 -195733 -195855 -195974 -196091 -196205 -196317 -196427 -196534 -196640 -196744 -196846 -196946 -197045 -197142 -197238 -197332 -197424 -197515 -197604 -197692 -197779 -197863 -197947 -198029 -198109 -198187 -198264 -198340 -198413 -198485 -198555 -198623 -198690 -198754 -198817 -198877 -198936 -198993 -199047 -199100 -199151 -199199 -199246 -199290 -199333 -199373 -199412 -199449 -199484 -199517 -199548 -199578 -199606 -199632 -199657 -199680 -199702 -199723 -199742 -199760 -199777 -199793 -199808 -199821 -199834 -199846 -199857 -199868 -199877 -199886 -199895 -199903 -199910 -199916 -199923 -199928 -199934 -199939 -199943 -199948 -199951 -199955 -199959 -199962 -199965 -199967 -199970 -199972 -199974 -199976 -199978 -199980 -199981 -199983 -199984 -199985 -199986 -199987 -199988 -199989 -199990 -199991 -199991 -199992 -199993 -199993 -199994 -199994 -199994 -199995 -199995 -199995 -199996 -193211 -193421 -193620 -193810 -193992 -194166 -194334 -194496 -194652 -194802 -194949 -195091 -195229 -195363 -195494 -195622 -195747 -195869 -195988 -196106 -196221 -196333 -196444 -196553 -196660 -196765 -196869 -196970 -197070 -197169 -197266 -197361 -197455 -197547 -197638 -197727 -197814 -197900 -197985 -198067 -198148 -198227 -198305 -198381 -198454 -198526 -198597 -198665 -198731 -198795 -198857 -198917 -198975 -199031 -199085 -199137 -199186 -199234 -199279 -199323 -199364 -199403 -199441 -199476 -199510 -199541 -199572 -199600 -199627 -199652 -199675 -199698 -199719 -199738 -199756 -199774 -199790 -199805 -199819 -199832 -199844 -199855 -199866 -199875 -199884 -199893 -199901 -199908 -199915 -199921 -199927 -199932 -199938 -199942 -199946 -199950 -199954 -199958 -199961 -199964 -199966 -199969 -199971 -199973 -199975 -199977 -199979 -199981 -199982 -199983 -199985 -199986 -199987 -199988 -199989 -199990 -199990 -199991 -199992 -199992 -199993 -199993 -199994 -199994 -199995 -199995 -199995 -199996 -193083 -193292 -193491 -193681 -193864 -194039 -194208 -194371 -194529 -194682 -194831 -194975 -195116 -195253 -195386 -195517 -195645 -195770 -195892 -196012 -196130 -196246 -196360 -196472 -196582 -196690 -196796 -196901 -197004 -197105 -197205 -197303 -197400 -197495 -197588 -197680 -197770 -197858 -197945 -198030 -198113 -198194 -198274 -198351 -198427 -198501 -198573 -198643 -198710 -198776 -198840 -198901 -198960 -199017 -199072 -199125 -199175 -199224 -199270 -199314 -199356 -199396 -199434 -199470 -199504 -199536 -199566 -199595 -199622 -199648 -199672 -199694 -199715 -199735 -199753 -199771 -199787 -199802 -199816 -199829 -199842 -199853 -199864 -199874 -199883 -199891 -199899 -199907 -199914 -199920 -199926 -199931 -199936 -199941 -199946 -199950 -199953 -199957 -199960 -199963 -199966 -199968 -199971 -199973 -199975 -199977 -199979 -199980 -199982 -199983 -199984 -199985 -199987 -199988 -199988 -199989 -199990 -199991 -199991 -199992 -199993 -199993 -199994 -199994 -199994 -199995 -199995 -199995 -192963 -193170 -193369 -193560 -193743 -193919 -194090 -194255 -194414 -194569 -194720 -194867 -195010 -195149 -195285 -195419 -195549 -195677 -195802 -195925 -196046 -196165 -196282 -196396 -196509 -196620 -196729 -196837 -196943 -197047 -197149 -197250 -197349 -197447 -197542 -197637 -197729 -197820 -197909 -197996 -198081 -198165 -198246 -198326 -198403 -198479 -198552 -198624 -198693 -198760 -198825 -198887 -198947 -199005 -199061 -199115 -199166 -199215 -199262 -199307 -199349 -199390 -199428 -199464 -199499 -199531 -199562 -199591 -199618 -199644 -199668 -199691 -199712 -199732 -199751 -199768 -199785 -199800 -199814 -199827 -199840 -199851 -199862 -199872 -199881 -199890 -199898 -199905 -199912 -199919 -199925 -199930 -199935 -199940 -199945 -199949 -199953 -199956 -199959 -199962 -199965 -199968 -199970 -199972 -199974 -199976 -199978 -199980 -199981 -199983 -199984 -199985 -199986 -199987 -199988 -199989 -199990 -199991 -199991 -199992 -199992 -199993 -199993 -199994 -199994 -199995 -199995 -199995 -192850 -193056 -193255 -193446 -193630 -193807 -193979 -194145 -194306 -194463 -194616 -194765 -194910 -195052 -195191 -195327 -195460 -195590 -195719 -195844 -195968 -196089 -196209 -196326 -196442 -196556 -196668 -196778 -196886 -196993 -197098 -197201 -197303 -197403 -197501 -197598 -197693 -197786 -197877 -197966 -198053 -198139 -198222 -198303 -198382 -198460 -198534 -198607 -198678 -198746 -198812 -198875 -198937 -198996 -199052 -199107 -199159 -199208 -199256 -199301 -199344 -199385 -199424 -199460 -199495 -199528 -199559 -199588 -199616 -199641 -199666 -199689 -199710 -199730 -199749 -199766 -199783 -199798 -199812 -199826 -199838 -199850 -199861 -199871 -199880 -199889 -199897 -199904 -199911 -199918 -199924 -199929 -199935 -199939 -199944 -199948 -199952 -199955 -199959 -199962 -199965 -199967 -199970 -199972 -199974 -199976 -199978 -199979 -199981 -199982 -199984 -199985 -199986 -199987 -199988 -199989 -199990 -199990 -199991 -199992 -199992 -199993 -199993 -199994 -199994 -199995 -199995 -199995 -192743 -192950 -193148 -193339 -193523 -193702 -193875 -194043 -194206 -194364 -194519 -194670 -194818 -194962 -195103 -195241 -195377 -195510 -195641 -195769 -195895 -196020 -196142 -196262 -196380 -196496 -196611 -196724 -196835 -196944 -197052 -197158 -197262 -197364 -197465 -197563 -197660 -197755 -197848 -197940 -198029 -198116 -198201 -198284 -198365 -198443 -198519 -198593 -198665 -198734 -198801 -198866 -198928 -198988 -199045 -199100 -199153 -199203 -199251 -199296 -199340 -199381 -199420 -199457 -199492 -199525 -199556 -199586 -199613 -199639 -199664 -199687 -199708 -199728 -199747 -199765 -199781 -199797 -199811 -199825 -199837 -199849 -199860 -199870 -199879 -199888 -199896 -199903 -199910 -199917 -199923 -199929 -199934 -199939 -199943 -199947 -199951 -199955 -199958 -199961 -199964 -199967 -199969 -199971 -199974 -199976 -199977 -199979 -199981 -199982 -199983 -199985 -199986 -199987 -199988 -199989 -199989 -199990 -199991 -199992 -199992 -199993 -199993 -199994 -199994 -199994 -199995 -199995 -192644 -192850 -193048 -193239 -193424 -193604 -193778 -193947 -194112 -194272 -194429 -194582 -194731 -194878 -195021 -195162 -195300 -195436 -195569 -195700 -195829 -195955 -196080 -196203 -196324 -196443 -196560 -196675 -196789 -196900 -197010 -197118 -197225 -197329 -197432 -197533 -197632 -197729 -197824 -197917 -198008 -198097 -198183 -198268 -198350 -198430 -198507 -198582 -198655 -198725 -198793 -198859 -198922 -198982 -199040 -199095 -199148 -199199 -199247 -199293 -199337 -199379 -199418 -199455 -199490 -199523 -199555 -199584 -199612 -199638 -199662 -199685 -199707 -199727 -199746 -199764 -199780 -199796 -199810 -199824 -199836 -199848 -199859 -199869 -199878 -199887 -199895 -199903 -199910 -199916 -199922 -199928 -199933 -199938 -199943 -199947 -199951 -199954 -199958 -199961 -199964 -199966 -199969 -199971 -199973 -199975 -199977 -199979 -199980 -199982 -199983 -199984 -199985 -199986 -199987 -199988 -199989 -199990 -199991 -199991 -199992 -199993 -199993 -199993 -199994 -199994 -199995 -199995 -192551 -192756 -192955 -193146 -193332 -193512 -193687 -193858 -194024 -194186 -194345 -194500 -194652 -194800 -194946 -195089 -195229 -195367 -195503 -195636 -195768 -195897 -196024 -196149 -196272 -196394 -196513 -196631 -196747 -196861 -196973 -197084 -197192 -197299 -197404 -197507 -197607 -197706 -197803 -197898 -197990 -198081 -198169 -198255 -198338 -198419 -198498 -198574 -198648 -198719 -198787 -198853 -198917 -198978 -199036 -199092 -199146 -199197 -199245 -199292 -199335 -199377 -199417 -199454 -199489 -199522 -199554 -199583 -199611 -199637 -199662 -199685 -199706 -199726 -199745 -199763 -199780 -199795 -199809 -199823 -199835 -199847 -199858 -199868 -199878 -199886 -199894 -199902 -199909 -199916 -199922 -199927 -199933 -199938 -199942 -199946 -199950 -199954 -199957 -199960 -199963 -199966 -199968 -199971 -199973 -199975 -199977 -199978 -199980 -199981 -199983 -199984 -199985 -199986 -199987 -199988 -199989 -199990 -199991 -199991 -199992 -199992 -199993 -199993 -199994 -199994 -199995 -199995 -192465 -192670 -192868 -193060 -193246 -193428 -193604 -193776 -