<?xml version="1.0"?> 
<VTKFile type="StructuredGrid" version="0.1"> 
<StructuredGrid WholeExtent="0 127 0 127 0 0"> 
<Piece Extent="0 127 0 127 0 0"> 
<PointData>
<DataArray type="Float32" Name="u" format="ascii" NumberOfComponents="1"> 
0 -717.003 -1441.52 -2173.62 -2913.34 -3660.75 -4415.89 -5178.84 -5949.65 -6728.38 -7515.09 -8309.86 -9112.73 -9923.79 -10743.1 -11570.7 -12406.7 -13251.2 -14104.2 -14965.8 -15836.1 -16715.1 -17603 -18499.7 -19405.5 -20320.3 -21244.3 -22177.5 -23120.1 -24072 -25033.4 -26004.4 -26985.1 -27975.5 -28975.7 -29985.9 -31006.1 -32036.4 -33076.8 -34127.6 -35188.8 -36260.5 -37342.7 -38435.6 -39539.3 -40653.9 -41779.4 -42915.9 -44063.7 -45222.7 -46393 -47574.8 -48768.2 -49973.2 -51190 -52418.7 -53659.3 -54912 -56176.9 -57454 -58743.6 -60045.6 -61360.2 -62687.5 -64027.6 -65380.7 -66746.7 -68126 -69518.4 -70924.3 -72343.6 -73776.6 -75223.3 -76683.8 -78158.4 -79647.1 -81150.1 -82667.5 -84199.5 -85746.2 -87307.9 -88884.6 -90476.6 -92084.2 -93707.4 -95346.6 -97002 -98673.8 -100362 -102068 -103791 -105532 -107291 -109068 -110864 -112680 -114516 -116373 -118251 -120151 -122074 -124020 -125990 -127986 -130008 -132057 -134135 -136243 -138382 -140553 -142759 -145000 -147279 -149598 -151958 -154361 -156810 -159306 -161853 -164453 -167107 -169819 -172592 -175426 -178326 -181293 -184329 -187435 0 -711.709 -1431 -2157.92 -2892.54 -3634.9 -4385.06 -5143.08 -5909.02 -6682.94 -7464.91 -8254.98 -9053.22 -9859.7 -10674.5 -11497.6 -12329.2 -13169.3 -14018 -14875.4 -15741.5 -16616.4 -17500.2 -18392.9 -19294.7 -20205.6 -21125.7 -22055.1 -22993.9 -23942.1 -24899.8 -25867.2 -26844.3 -27831.2 -28827.9 -29834.7 -30851.5 -31878.5 -32915.7 -33963.2 -35021.2 -36089.8 -37168.9 -38258.8 -39359.5 -40471.1 -41593.8 -42727.5 -43872.4 -45028.7 -46196.4 -47375.5 -48566.3 -49768.8 -50983.1 -52209.3 -53447.6 -54697.9 -55960.5 -57235.4 -58522.8 -59822.7 -61135.2 -62460.5 -63798.7 -65149.8 -66514 -67891.5 -69282.2 -70686.4 -72104.1 -73535.5 -74980.7 -76439.9 -77913.1 -79400.5 -80902.3 -82418.6 -83949.5 -85495.2 -87056 -88631.9 -90223.2 -91830 -93452.7 -95091.3 -96746.3 -98417.8 -100106 -101812 -103535 -105275 -107034 -108812 -110609 -112425 -114262 -116119 -117998 -119899 -121823 -123770 -125742 -127739 -129763 -131814 -133894 -136004 -138145 -140319 -142527 -144772 -147054 -149376 -151739 -154146 -156600 -159101 -161653 -164259 -166920 -169640 -172421 -175267 -178178 -181159 -184211 -187338 0 -706.408 -1420.46 -2142.21 -2871.71 -3609.01 -4354.18 -5107.27 -5868.34 -6637.45 -7414.65 -8200.03 -8993.63 -9795.53 -10605.8 -11424.5 -12251.6 -13087.4 -13931.8 -14784.9 -15646.8 -16517.5 -17397.2 -18285.9 -19183.7 -20090.7 -21006.9 -21932.5 -22867.5 -23812 -24766.1 -25729.8 -26703.3 -27686.7 -28680 -29683.3 -30696.7 -31720.4 -32754.3 -33798.6 -34853.5 -35918.9 -36994.9 -38081.8 -39179.5 -40288.2 -41407.9 -42538.8 -43681 -44834.5 -45999.5 -47176 -48364.2 -49564.1 -50776 -51999.7 -53235.6 -54483.6 -55743.9 -57016.6 -58301.7 -59599.5 -60910 -62233.3 -63569.5 -64918.7 -66281.1 -67656.7 -69045.7 -70448.2 -71864.3 -73294.2 -74737.9 -76195.7 -77667.5 -79153.7 -80654.2 -82169.3 -83699.2 -85243.9 -86803.8 -88378.8 -89969.4 -91575.5 -93197.6 -94835.8 -96490.3 -98161.5 -99849.6 -101555 -103278 -105019 -106778 -108556 -110353 -112170 -114007 -115865 -117745 -119647 -121571 -123520 -125493 -127492 -129517 -131570 -133652 -135764 -137907 -140084 -142295 -144542 -146827 -149152 -151520 -153931 -156389 -158895 -161453 -164064 -166732 -169460 -172250 -175105 -178028 -181023 -184092 -187238 0 -701.1 -1409.91 -2126.47 -2850.85 -3583.1 -4323.27 -5071.42 -5827.6 -6591.89 -7364.34 -8145.01 -8933.96 -9731.27 -10537 -11351.2 -12174 -13005.3 -13845.4 -14694.3 -15552 -16418.6 -17294.2 -18178.8 -19072.6 -19975.7 -20888 -21809.8 -22741 -23681.7 -24632.1 -25592.2 -26562.2 -27542 -28531.8 -29531.7 -30541.8 -31562.1 -32592.7 -33633.8 -34685.5 -35747.7 -36820.7 -37904.6 -38999.3 -40105 -41221.9 -42349.9 -43489.3 -44640.1 -45802.3 -46976.2 -48161.8 -49359.2 -50568.6 -51789.9 -53023.3 -54269 -55527 -56797.5 -58080.5 -59376.1 -60684.5 -62005.7 -63340 -64687.3 -66047.8 -67421.7 -68808.9 -70209.8 -71624.3 -73052.6 -74494.8 -75951.1 -77421.7 -78906.5 -80405.8 -81919.8 -83448.6 -84992.4 -86551.3 -88125.5 -89715.2 -91320.7 -92942.2 -94579.8 -96233.9 -97904.8 -99592.6 -101298 -103021 -104762 -106521 -108299 -110097 -111914 -113752 -115611 -117491 -119394 -121320 -123269 -125244 -127244 -129271 -131325 -133409 -135523 -137669 -139848 -142061 -144312 -146600 -148928 -151299 -153715 -156177 -158688 -161251 -163868 -166543 -169278 -172077 -174942 -177877 -180885 -183970 -187135 0 -695.786 -1399.34 -2110.72 -2829.97 -3557.15 -4292.31 -5035.51 -5786.82 -6546.28 -7313.95 -8089.91 -8874.22 -9666.93 -10468.1 -11277.8 -12096.2 -12923.2 -13759 -14603.5 -15457 -16319.5 -17191 -18071.6 -18961.4 -19860.5 -20769 -21686.9 -22614.3 -23551.3 -24498 -25454.5 -26420.8 -27397.1 -28383.5 -29379.9 -30386.6 -31403.6 -32431 -33468.8 -34517.3 -35576.4 -36646.3 -37727.1 -38818.8 -39921.6 -41035.6 -42160.8 -43297.4 -44445.4 -45605 -46776.2 -47959.2 -49154.1 -50360.9 -51579.8 -52810.9 -54054.2 -55309.9 -56578.1 -57858.9 -59152.4 -60458.7 -61778 -63110.2 -64455.6 -65814.3 -67186.4 -68571.9 -69971.1 -71383.9 -72810.7 -74251.5 -75706.4 -77175.5 -78659.1 -80157.2 -81670 -83197.7 -84740.5 -86298.4 -87871.8 -89460.8 -91065.6 -92686.4 -94323.6 -95977.2 -97647.7 -99335.3 -101040 -102763 -104504 -106264 -108042 -109840 -111658 -113496 -115356 -117237 -119141 -121067 -123018 -124994 -126996 -129024 -131080 -133166 -135282 -137430 -139611 -141827 -144080 -146372 -148704 -151078 -153497 -155963 -158479 -161048 -163671 -166353 -169095 -171902 -174777 -177724 -180746 -183847 -187031 0 -690.465 -1388.76 -2094.94 -2809.06 -3531.17 -4261.32 -4999.57 -5745.98 -6500.6 -7263.51 -8034.75 -8814.39 -9602.5 -10399.1 -11204.4 -12018.3 -12840.9 -13672.4 -14512.7 -15362 -16220.3 -17087.6 -17964.2 -18850 -19745.2 -20649.7 -21563.8 -22487.4 -23420.7 -24363.7 -25316.6 -26279.3 -27252.1 -28235 -29228 -30231.3 -31244.9 -32269 -33303.6 -34348.9 -35404.9 -36471.7 -37549.4 -38638.2 -39738 -40849.1 -41971.4 -43105.2 -44250.5 -45407.4 -46576 -47756.4 -48948.7 -50153 -51369.4 -52598.1 -53839.1 -55092.5 -56358.5 -57637.1 -58928.5 -60232.7 -61549.9 -62880.2 -64223.7 -65580.5 -66950.8 -68334.6 -69732.1 -71143.3 -72568.5 -74007.8 -75461.3 -76929.1 -78411.3 -79908.2 -81419.9 -82946.5 -84488.3 -86045.3 -87617.8 -89206 -90810.1 -92430.4 -94067 -95720.2 -97390.3 -99077.7 -100783 -102505 -104246 -106006 -107785 -109583 -111401 -113240 -115100 -116982 -118887 -120815 -122767 -124744 -126747 -128776 -130835 -132922 -135040 -137190 -139374 -141593 -143848 -146143 -148478 -150856 -153279 -155749 -158270 -160843 -163473 -166161 -168911 -171726 -174611 -177569 -180604 -183721 -186924 0 -685.137 -1378.17 -2079.15 -2788.12 -3505.15 -4230.28 -4963.58 -5705.09 -6454.87 -7213 -7979.52 -8754.5 -9538 -10330.1 -11130.8 -11940.3 -12758.6 -13585.7 -14421.7 -15266.8 -16120.9 -16984.2 -17856.7 -18738.5 -19629.7 -20530.4 -21440.6 -22360.4 -23290 -24229.3 -25178.5 -26137.7 -27106.9 -28086.2 -29075.8 -30075.7 -31086 -32106.8 -33138.2 -34180.3 -35233.1 -36296.8 -37371.5 -38457.3 -39554.2 -40662.3 -41781.9 -42912.8 -44055.4 -45209.5 -46375.5 -47553.3 -48743 -49944.9 -51158.9 -52385.1 -53623.8 -54874.9 -56138.6 -57415 -58704.3 -60006.4 -61321.6 -62649.9 -63991.5 -65346.5 -66714.9 -68097 -69492.8 -70902.4 -72326.1 -73763.9 -75215.9 -76682.3 -78163.3 -79659 -81169.5 -82695 -84235.8 -85791.9 -87363.5 -88950.9 -90554.3 -92174 -93810 -95462.8 -97132.6 -98819.7 -100524 -102247 -103988 -105748 -107527 -109325 -111144 -112983 -114844 -116727 -118632 -120561 -122514 -124493 -126497 -128528 -130588 -132677 -134798 -136950 -139136 -141357 -143615 -145913 -148251 -150632 -153059 -155534 -158059 -160638 -163273 -165967 -168725 -171549 -174443 -177412 -180461 -183593 -186815 0 -679.803 -1367.56 -2063.33 -2767.16 -3479.1 -4199.21 -4927.54 -5664.14 -6409.09 -7162.42 -7924.22 -8694.53 -9473.42 -10261 -11057.2 -11862.2 -12676.1 -13498.9 -14330.6 -15171.5 -16021.4 -16880.6 -17749.1 -18626.9 -19514.1 -20410.9 -21317.2 -22233.3 -23159 -24094.7 -25040.2 -25995.8 -26961.5 -27937.3 -28923.5 -29920 -30926.9 -31944.4 -32972.6 -34011.5 -35061.2 -36121.8 -37193.4 -38276.2 -39370.1 -40475.4 -41592 -42720.2 -43860 -45011.5 -46174.8 -47350 -48537.2 -49736.5 -50948 -52171.9 -53408.2 -54657 -55918.5 -57192.7 -58479.8 -59779.9 -61093 -62419.4 -63759.1 -65112.2 -66478.8 -67859.1 -69253.2 -70661.3 -72083.4 -73519.6 -74970.2 -76435.3 -77915 -79409.4 -80918.8 -82443.2 -83982.9 -85538.1 -87108.9 -88695.5 -90298.2 -91917.2 -93552.8 -95205.1 -96874.5 -98561.3 -100266 -101988 -103729 -105489 -107268 -109067 -110886 -112726 -114588 -116471 -118377 -120307 -122262 -124241 -126247 -128280 -130341 -132432 -134554 -136709 -138897 -141121 -143382 -145682 -148023 -150408 -152839 -155318 -157848 -160431 -163072 -165773 -168538 -171370 -174274 -177254 -180315 -183463 -186704 0 -674.462 -1356.94 -2047.5 -2746.17 -3453.02 -4168.1 -4891.46 -5623.15 -6363.24 -7111.79 -7868.85 -8634.48 -9408.75 -10191.7 -10983.5 -11784 -12593.5 -13412 -14239.5 -15076.1 -15921.8 -16776.9 -17641.3 -18515.1 -19398.3 -20291.2 -21193.7 -22105.9 -23028 -23959.9 -24901.8 -25853.8 -26815.9 -27788.3 -28771 -29764.1 -30767.7 -31781.9 -32806.8 -33842.4 -34889 -35946.5 -37015.1 -38094.8 -39185.8 -40288.2 -41402 -42527.4 -43664.4 -44813.2 -45973.8 -47146.4 -48331 -49527.9 -50736.9 -51958.4 -53192.4 -54438.9 -55698.1 -56970.2 -58255.1 -59553.1 -60864.2 -62188.6 -63526.3 -64877.6 -66242.4 -67621 -69013.4 -70419.8 -71840.4 -73275.1 -74724.3 -76188 -77666.4 -79159.6 -80667.8 -82191.1 -83729.8 -85284 -86854 -88439.8 -90041.8 -91660.2 -93295.1 -94947 -96616 -98302.6 -100007 -101729 -103470 -105230 -107010 -108809 -110628 -112469 -114331 -116215 -118122 -120053 -122008 -123989 -125996 -128030 -130094 -132186 -134310 -136467 -138657 -140883 -143147 -145450 -147795 -150183 -152618 -155101 -157635 -160224 -162870 -165577 -168349 -171189 -174103 -177094 -180168 -183331 -186590 0 -669.114 -1346.31 -2031.65 -2725.16 -3426.91 -4136.95 -4855.33 -5582.11 -6317.34 -7061.09 -7813.41 -8574.36 -9344 -10122.4 -10909.6 -11705.8 -12510.8 -13324.9 -14148.1 -14980.5 -15822.1 -16673 -17533.4 -18403.1 -19282.5 -20171.4 -21070 -21978.4 -22896.7 -23825 -24763.2 -25711.6 -26670.2 -27639 -28618.2 -29607.9 -30608.2 -31619.1 -32640.7 -33673.2 -34716.6 -35771 -36836.5 -37913.3 -39001.3 -40100.8 -41211.7 -42334.3 -43468.6 -44614.6 -45772.6 -46942.6 -48124.7 -49319 -50525.6 -51744.7 -52976.3 -54220.5 -55477.5 -56747.3 -58030.1 -59326 -60635.1 -61957.5 -63293.3 -64642.7 -66005.8 -67382.6 -68773.3 -70178.1 -71597.1 -73030.4 -74478.1 -75940.4 -77417.5 -78909.4 -80416.5 -81938.7 -83476.4 -85029.7 -86598.7 -88183.8 -89785 -91402.8 -93037.2 -94688.6 -96357.2 -98043.5 -99747.6 -101470 -103211 -104971 -106750 -108550 -110370 -112211 -114073 -115958 -117866 -119798 -121754 -123736 -125745 -127781 -129845 -131940 -134066 -136224 -138417 -140645 -142912 -145218 -147565 -149957 -152395 -154882 -157421 -160015 -162666 -165380 -168159 -171007 -173930 -176932 -180019 -183197 -186473 0 -663.761 -1335.67 -2015.77 -2704.12 -3400.77 -4105.76 -4819.16 -5541.02 -6271.39 -7010.33 -7757.9 -8514.16 -9279.18 -10053 -10835.7 -11627.4 -12428.1 -13237.8 -14056.7 -14884.9 -15722.3 -16569.1 -17425.3 -18291.1 -19166.4 -20051.4 -20946.2 -21850.8 -22765.3 -23689.8 -24624.4 -25569.2 -26524.2 -27489.6 -28465.4 -29451.6 -30448.5 -31456.1 -32474.5 -33503.8 -34544 -35595.3 -36657.8 -37731.5 -38816.6 -39913.2 -41021.3 -42141 -43272.5 -44415.9 -45571.2 -46738.5 -47918.1 -49109.9 -50314 -51530.7 -52759.9 -54001.9 -55256.6 -56524.2 -57804.9 -59098.7 -60405.8 -61726.2 -63060.1 -64407.6 -65768.8 -67143.9 -68533 -69936.1 -71353.5 -72785.3 -74231.6 -75692.5 -77168.3 -78659 -80164.9 -81686 -83222.7 -84775 -86343.1 -87927.4 -89527.9 -91145 -92778.9 -94429.8 -96098.1 -97784 -99487.9 -101210 -102951 -104711 -106491 -108291 -110111 -111952 -113816 -115701 -117610 -119543 -121500 -123483 -125493 -127530 -129596 -131693 -133820 -135981 -138176 -140407 -142676 -144984 -147335 -149730 -152172 -154663 -157206 -159805 -162462 -165181 -167967 -170823 -173755 -176768 -179867 -183060 -186355 0 -658.4 -1325.01 -1999.88 -2683.06 -3374.59 -4074.54 -4782.95 -5499.87 -6225.37 -6959.51 -7702.33 -8453.9 -9214.28 -9983.53 -10761.7 -11548.9 -12345.2 -13150.6 -13965.2 -14789.1 -15622.3 -16465 -17317.1 -18178.9 -19050.2 -19931.3 -20822.2 -21723 -22633.8 -23554.6 -24485.5 -25426.7 -26378.1 -27340 -28312.3 -29295.2 -30288.7 -31293 -32308.1 -33334.2 -34371.2 -35419.4 -36478.8 -37549.6 -38631.7 -39725.3 -40830.5 -41947.5 -43076.2 -44216.9 -45369.5 -46534.3 -47711.2 -48900.5 -50102.2 -51316.5 -52543.4 -53783 -55035.5 -56300.9 -57579.4 -58871.1 -60176.2 -61494.6 -62826.6 -64172.2 -65531.6 -66905 -68292.3 -69693.9 -71109.7 -72540 -73984.8 -75444.4 -76918.8 -78408.3 -79913 -81433 -82968.6 -84520 -86087.3 -87670.7 -89270.5 -90887 -92520.3 -94170.7 -95838.6 -97524.2 -99227.8 -100950 -102691 -104451 -106231 -108031 -109851 -111693 -113557 -115443 -117353 -119287 -121245 -123229 -125240 -127279 -129347 -131445 -133574 -135737 -137934 -140167 -142439 -144750 -147104 -149502 -151947 -154442 -156990 -159593 -162256 -164981 -167774 -170638 -173579 -176602 -179714 -182922 -186233 0 -653.034 -1314.34 -1983.97 -2661.97 -3348.39 -4043.28 -4746.69 -5458.68 -6179.31 -6908.62 -7646.69 -8393.56 -9149.3 -9913.97 -10687.6 -11470.4 -12262.2 -13063.3 -13873.6 -14693.2 -15522.2 -16360.8 -17208.8 -18066.5 -18933.9 -19811.1 -20698.1 -21595.1 -22502.1 -23419.1 -24346.4 -25283.9 -26231.8 -27190.2 -28159 -29138.5 -30128.7 -31129.6 -32141.5 -33164.3 -34198.2 -35243.3 -36299.7 -37367.4 -38446.5 -39537.2 -40639.6 -41753.7 -42879.7 -44017.6 -45167.6 -46329.8 -47504.2 -48690.9 -49890.2 -51102 -52326.5 -53563.9 -54814.1 -56077.3 -57353.7 -58643.3 -59946.3 -61262.7 -62592.8 -63936.6 -65294.2 -66665.8 -68051.4 -69451.3 -70865.6 -72294.3 -73737.7 -75195.9 -76669 -78157.3 -79660.8 -81179.7 -82714.3 -84264.7 -85831.1 -87413.7 -89012.8 -90628.6 -92261.3 -93911.2 -95578.7 -97264 -98967.4 -100689 -102430 -104190 -105970 -107771 -109592 -111434 -113298 -115185 -117096 -119030 -120990 -122975 -124987 -127027 -129096 -131196 -133327 -135492 -137691 -139927 -142201 -144515 -146872 -149273 -151722 -154221 -156773 -159381 -162049 -164780 -167579 -170451 -173401 -176435 -179558 -182780 -186109 0 -647.661 -1303.66 -1968.04 -2640.86 -3322.15 -4011.98 -4710.39 -5417.44 -6133.19 -6857.68 -7590.98 -8333.14 -9084.24 -9844.32 -10613.5 -11391.7 -12179.1 -12975.8 -13781.8 -14597.2 -15422 -16256.4 -17100.4 -17954 -18817.4 -19690.7 -20573.8 -21467 -22370.2 -23283.5 -24207.1 -25141.1 -26085.4 -27040.2 -28005.6 -28981.6 -29968.4 -30966.1 -31974.7 -32994.3 -34025.1 -35067 -36120.3 -37185 -38261.2 -39349 -40448.5 -41559.8 -42683 -43818.2 -44965.5 -46125 -47296.8 -48481.1 -49677.9 -50887.3 -52109.5 -53344.5 -54592.4 -55853.5 -57127.7 -58415.2 -59716.2 -61030.6 -62358.8 -63700.7 -65056.4 -66426.3 -67810.2 -69208.5 -70621.2 -72048.4 -73490.4 -74947.2 -76419 -77906 -79408.3 -80926.1 -82459.6 -84009.1 -85574.6 -87156.4 -88754.7 -90369.8 -92002 -93651.4 -95318.5 -97003.4 -98706.6 -100428 -102169 -103929 -105710 -107510 -109331 -111174 -113039 -114927 -116838 -118773 -120734 -122720 -124733 -126775 -128846 -130947 -133080 -135246 -137448 -139686 -141962 -144279 -146639 -149043 -151496 -153998 -156554 -159167 -161840 -164577 -167383 -170263 -173221 -176265 -179401 -182637 -185983 0 -642.282 -1292.96 -1952.09 -2619.72 -3295.88 -3980.64 -4674.05 -5376.15 -6087.01 -6806.68 -7535.21 -8272.66 -9019.1 -9774.59 -10539.2 -11313 -12096 -12888.3 -13689.9 -14501.1 -15321.7 -16151.9 -16991.8 -17841.4 -18700.8 -19570.1 -20449.4 -21338.7 -22238.2 -23147.8 -24067.7 -24998 -25938.7 -26890 -27851.9 -28824.6 -29808 -30802.4 -31807.7 -32824.1 -33851.7 -34890.5 -35940.7 -37002.4 -38075.6 -39160.5 -40257.1 -41365.6 -42486 -43618.5 -44763.1 -45920 -47089.3 -48271 -49465.4 -50672.4 -51892.1 -53124.8 -54370.6 -55629.4 -56901.5 -58186.9 -59485.8 -60798.3 -62124.5 -63464.5 -64818.5 -66186.5 -67568.8 -68965.4 -70376.5 -71802.2 -73242.7 -74698.1 -76168.6 -77654.4 -79155.5 -80672.2 -82204.7 -83753.1 -85317.7 -86898.7 -88496.3 -90110.8 -91742.3 -93391.3 -95057.9 -96742.5 -98445.5 -100167 -101908 -103668 -105448 -107249 -109071 -110914 -112779 -114668 -116579 -118516 -120477 -122464 -124479 -126522 -128594 -130697 -132832 -135000 -137204 -139444 -141723 -144042 -146405 -148812 -151268 -153775 -156335 -158952 -161630 -164373 -167186 -170073 -173040 -176094 -179241 -182491 -185853 0 -636.897 -1282.26 -1936.13 -2598.56 -3269.59 -3949.27 -4637.67 -5334.82 -6040.78 -6755.61 -7479.37 -8212.11 -8953.89 -9704.78 -10464.8 -11234.1 -12012.7 -12800.6 -13598 -14404.8 -15221.3 -16047.3 -16883.1 -17728.7 -18584.1 -19449.5 -20324.8 -21210.3 -22106 -23011.9 -23928.1 -24854.8 -25791.9 -26739.7 -27698.1 -28667.4 -29647.4 -30638.4 -31640.5 -32653.7 -33678.1 -34713.8 -35760.9 -36819.5 -37889.8 -38971.7 -40065.5 -41171.2 -42288.8 -43418.6 -44560.5 -45714.8 -46881.5 -48060.7 -49252.6 -50457.2 -51674.6 -52905 -54148.4 -55405 -56675 -57958.3 -59255.1 -60565.6 -61889.9 -63228 -64580.2 -65946.5 -67327.1 -68722 -70131.6 -71555.8 -72994.8 -74448.8 -75918 -77402.5 -78902.4 -80418 -81949.4 -83496.9 -85060.6 -86640.8 -88237.6 -89851.4 -91482.3 -93130.8 -94797 -96481.2 -98183.9 -99905.4 -101646 -103406 -105187 -106988 -108810 -110653 -112519 -114408 -116320 -118258 -120220 -122208 -124224 -126268 -128342 -130446 -132583 -134753 -136959 -139201 -141482 -143804 -146170 -148581 -151040 -153550 -156114 -158736 -161419 -164168 -166987 -169881 -172857 -175920 -179079 -182343 -185722 0 -631.506 -1271.54 -1920.14 -2577.37 -3243.26 -3917.87 -4601.24 -5293.43 -5994.5 -6704.49 -7423.47 -8151.48 -8888.6 -9634.88 -10390.4 -11155.2 -11929.3 -12712.9 -13505.9 -14308.5 -15120.7 -15942.6 -16774.3 -17615.8 -18467.2 -19328.7 -20200.1 -21081.8 -21973.6 -22875.8 -23788.4 -24711.4 -25645 -26589.2 -27544.2 -28509.9 -29486.6 -30474.3 -31473.1 -32483 -33504.3 -34536.9 -35580.9 -36636.5 -37703.8 -38782.8 -39873.7 -40976.5 -42091.4 -43218.4 -44357.7 -45509.4 -46673.5 -47850.2 -49039.6 -50241.7 -51456.8 -52684.9 -53926 -55180.5 -56448.2 -57729.4 -59024.2 -60332.7 -61655.1 -62991.3 -64341.7 -65706.2 -67085.1 -68478.4 -69886.3 -71309 -72746.6 -74199.2 -75667.1 -77150.3 -78649 -80163.5 -81693.9 -83240.3 -84803.1 -86382.5 -87978.5 -89591.6 -91222 -92869.9 -94535.7 -96219.6 -97922 -99643.3 -101384 -103144 -104925 -106726 -108548 -110392 -112258 -114148 -116061 -117999 -119962 -121952 -123969 -126014 -128089 -130195 -132334 -134506 -136713 -138958 -141241 -143566 -145934 -148348 -150810 -153324 -155892 -158519 -161207 -163961 -166786 -169688 -172672 -175745 -178915 -182192 -185587 0 -626.109 -1260.81 -1904.14 -2556.16 -3216.9 -3886.42 -4564.77 -5252 -5948.16 -6653.31 -7367.5 -8090.79 -8823.24 -9564.91 -10315.9 -11076.1 -11845.8 -12625 -13413.7 -14212 -15020 -15837.8 -16665.3 -17502.8 -18350.2 -19207.7 -20075.3 -20953.1 -21841.1 -22739.6 -23648.4 -24567.8 -25497.8 -26438.5 -27390 -28352.4 -29325.7 -30310 -31305.5 -32312.2 -33330.3 -34359.7 -35400.7 -36453.3 -37517.6 -38593.7 -39681.7 -40781.7 -41893.8 -43018.1 -44154.7 -45303.7 -46465.3 -47639.4 -48826.3 -50026.1 -51238.7 -52464.5 -53703.4 -54955.6 -56221.2 -57500.3 -58793.1 -60099.6 -61420 -62754.4 -64102.9 -65465.6 -66842.8 -68234.5 -69640.8 -71062 -72498.1 -73949.3 -75415.9 -76897.8 -78395.3 -79908.7 -81438 -82983.5 -84545.4 -86123.9 -87719.2 -89331.6 -90961.3 -92608.7 -94274 -95957.6 -97659.8 -99380.9 -101121 -102882 -104662 -106463 -108286 -110130 -111997 -113887 -115801 -117740 -119704 -121695 -123713 -125759 -127836 -129943 -132083 -134257 -136467 -138713 -140999 -143326 -145697 -148114 -150580 -153097 -155669 -158300 -160993 -163753 -166584 -169493 -172485 -175568 -178749 -182039 -185450 0 -620.705 -1250.06 -1888.12 -2534.92 -3190.51 -3854.94 -4528.26 -5210.52 -5901.77 -6602.07 -7311.47 -8030.03 -8757.8 -9494.85 -10241.2 -10997 -11762.3 -12537.1 -13321.4 -14115.5 -14919.2 -15732.8 -16556.3 -17389.7 -18233.1 -19086.6 -19950.3 -20824.2 -21708.5 -22603.2 -23508.4 -24424.1 -25350.5 -26287.7 -27235.7 -28194.6 -29164.5 -30145.5 -31137.7 -32141.2 -33156.1 -34182.4 -35220.3 -36269.8 -37331.1 -38404.3 -39489.4 -40586.6 -41695.9 -42817.5 -43951.4 -45097.8 -46256.8 -47428.4 -48612.8 -49810.1 -51020.5 -52243.9 -53480.5 -54730.5 -55994 -57271 -58561.7 -59866.2 -61184.6 -62517.1 -63863.8 -65224.8 -66600.3 -67990.3 -69395.1 -70814.7 -72249.3 -73699.2 -75164.3 -76645 -78141.4 -79653.6 -81181.8 -82726.3 -84287.3 -85864.9 -87459.5 -89071.2 -90700.3 -92347.2 -94012 -95695.2 -97397.1 -99118 -100858 -102619 -104399 -106201 -108023 -109868 -111736 -113626 -115541 -117480 -119445 -121437 -123456 -125504 -127582 -129691 -131832 -134008 -136219 -138468 -140756 -143086 -145460 -147879 -150348 -152869 -155445 -158080 -160778 -163543 -166381 -169296 -172296 -175388 -178581 -181884 -185310 0 -615.296 -1239.31 -1872.08 -2513.66 -3164.1 -3823.43 -4491.71 -5169 -5855.33 -6550.77 -7255.38 -7969.2 -8692.29 -9424.72 -10166.5 -10917.8 -11678.6 -12449 -13229 -14018.8 -14818.3 -15627.7 -16447.1 -17276.4 -18115.8 -18965.4 -19825.1 -20695.2 -21575.7 -22466.6 -23368.1 -24280.2 -25203 -26136.7 -27081.2 -28036.6 -29003.2 -29980.8 -30969.8 -31970 -32981.7 -34004.9 -35039.7 -36086.2 -37144.5 -38214.7 -39297 -40391.3 -41497.8 -42616.7 -43747.9 -44891.7 -46048.1 -47217.2 -48399.1 -49594 -50801.9 -52023 -53257.4 -54505.2 -55766.5 -57041.4 -58330 -59632.5 -60949 -62279.6 -63624.5 -64983.7 -66357.4 -67745.8 -69149 -70567.1 -72000.3 -73448.7 -74912.6 -76392 -77887.1 -79398.2 -80925.4 -82468.9 -84028.9 -85605.7 -87199.4 -88810.5 -90439 -92085.3 -93749.7 -95432.5 -97134.1 -98854.8 -100595 -102355 -104136 -105938 -107761 -109606 -111473 -113365 -115280 -117220 -119186 -121179 -123199 -125248 -127327 -129438 -131581 -133758 -135971 -138222 -140513 -142845 -145221 -147644 -150116 -152640 -155220 -157859 -160562 -163332 -166176 -169098 -172106 -175207 -178410 -181726 -185167 0 -609.881 -1228.54 -1856.03 -2492.38 -3137.65 -3791.88 -4455.12 -5127.43 -5808.84 -6499.42 -7199.22 -7908.3 -8626.71 -9354.51 -10091.8 -10838.5 -11594.9 -12360.9 -13136.6 -13922 -14717.3 -15522.5 -16337.7 -17163 -17998.4 -18844 -19699.9 -20566.1 -21442.7 -22329.9 -23227.7 -24136.2 -25055.4 -25985.5 -26926.5 -27878.5 -28841.6 -29816 -30801.6 -31798.6 -32807.1 -33827.1 -34858.9 -35902.3 -36957.7 -38024.9 -39104.3 -40195.8 -41299.5 -42415.6 -43544.2 -44685.3 -45839.1 -47005.7 -48185.2 -49377.6 -50583.2 -51801.9 -53034 -54279.6 -55538.7 -56811.5 -58098.1 -59398.6 -60713.1 -62041.9 -63384.9 -64742.3 -66114.4 -67501.1 -68902.7 -70319.2 -71751 -73198 -74660.5 -76138.6 -77632.5 -79142.5 -80668.6 -82211.1 -83770.2 -85346.1 -86939.1 -88549.4 -90177.3 -91823.1 -93487 -95169.4 -96870.7 -98591.2 -100331 -102092 -103872 -105674 -107497 -109343 -111211 -113103 -115019 -116959 -118926 -120920 -122941 -124992 -127072 -129184 -131329 -133508 -135723 -137976 -140268 -142603 -144982 -147407 -149882 -152410 -154994 -157637 -160344 -163120 -165969 -168898 -171914 -175024 -178237 -181566 -185021 0 -604.46 -1217.76 -1839.96 -2471.08 -3111.18 -3760.3 -4418.49 -5085.81 -5762.3 -6448.01 -7143 -7847.33 -8561.05 -9284.22 -10016.9 -10759.1 -11511 -12272.6 -13044 -13825.1 -14616.2 -15417.2 -16228.3 -17049.5 -17880.9 -18722.5 -19574.4 -20436.8 -21309.7 -22193.1 -23087.2 -23992 -24907.6 -25834.1 -26771.6 -27720.2 -28679.9 -29650.9 -30633.3 -31627 -32632.3 -33649.2 -34677.8 -35718.3 -36770.6 -37835 -38911.4 -40000.1 -41101 -42214.4 -43340.2 -44478.7 -45629.9 -46794 -47971 -49161 -50364.2 -51580.6 -52810.4 -54053.8 -55310.7 -56581.4 -57865.9 -59164.4 -60477 -61803.9 -63145 -64500.7 -65871 -67256.1 -68656.1 -70071.1 -71501.4 -72947 -74408.1 -75885 -77377.7 -78886.4 -80411.5 -81953 -83511.1 -85086.2 -86678.4 -88288 -89915.3 -91560.5 -93223.9 -94906 -96607 -98327.2 -100067 -101827 -103608 -105410 -107233 -109079 -110948 -112840 -114757 -116698 -118666 -120660 -122683 -124734 -126816 -128929 -131076 -133256 -135473 -137728 -140023 -142360 -144741 -147170 -149648 -152179 -154766 -157413 -160125 -162906 -165761 -168697 -171720 -174839 -178063 -181403 -184873 0 -599.033 -1206.97 -1823.87 -2449.75 -3084.67 -3728.68 -4381.82 -5044.15 -5715.7 -6396.54 -7086.72 -7786.3 -8495.32 -9213.85 -9941.95 -10679.7 -11427.1 -12184.3 -12951.2 -13728.1 -14514.9 -15311.8 -16118.7 -16935.8 -17763.2 -18600.8 -19448.9 -20307.4 -21176.4 -22056.1 -22946.4 -23847.6 -24759.6 -25682.6 -26616.6 -27561.7 -28518.1 -29485.7 -30464.7 -31455.2 -32457.3 -33471.1 -34496.6 -35534 -36583.4 -37644.8 -38718.3 -39804.1 -40902.3 -42012.9 -43136.1 -44271.9 -45420.5 -46582 -47756.5 -48944.1 -50144.9 -51359 -52586.6 -53827.7 -55082.5 -56351 -57633.5 -58930 -60240.6 -61565.6 -62904.9 -64258.8 -65627.4 -67010.8 -68409.2 -69822.7 -71251.5 -72695.7 -74155.5 -75631 -77122.5 -78630.1 -80154.1 -81694.6 -83251.8 -84826 -86417.4 -88026.3 -89652.9 -91297.6 -92960.5 -94642.2 -96342.8 -98062.9 -99802.7 -101563 -103344 -105146 -106969 -108815 -110684 -112577 -114494 -116437 -118405 -120400 -122424 -124477 -126560 -128674 -130822 -133004 -135223 -137480 -139777 -142116 -144500 -146931 -149412 -151946 -154537 -157189 -159905 -162691 -165552 -168494 -171524 -174651 -177885 -181237 -184721 0 -593.601 -1196.17 -1807.76 -2428.4 -3058.14 -3697.03 -4345.12 -5002.44 -5669.06 -6345.02 -7030.38 -7725.2 -8429.52 -9143.4 -9866.92 -10600.1 -11343.1 -12095.8 -12858.4 -13631 -14413.6 -15206.2 -16009 -16822.1 -17645.4 -18479 -19323.2 -20177.8 -21043 -21918.9 -22805.6 -23703.1 -24611.5 -25530.9 -26461.4 -27403 -28356 -29320.3 -30296 -31283.3 -32282.2 -33292.8 -34315.2 -35349.5 -36395.9 -37454.3 -38525 -39608 -40703.3 -41811.2 -42931.7 -44064.9 -45210.9 -46369.9 -47541.9 -48727 -49925.4 -51137.2 -52362.5 -53601.4 -54854 -56120.4 -57400.8 -58695.3 -60004 -61327 -62664.6 -64016.7 -65383.5 -66765.3 -68162.1 -69574 -71001.3 -72444.1 -73902.5 -75376.8 -76867.1 -78373.5 -79896.4 -81435.9 -82992.2 -84565.5 -86156.1 -87764.2 -89390.2 -91034.3 -92696.8 -94378 -96078.3 -97798.1 -99537.8 -101298 -103079 -104881 -106705 -108551 -110420 -112314 -114231 -116174 -118144 -120140 -122164 -124218 -126302 -128418 -130568 -132752 -134972 -137231 -139530 -141871 -144258 -146691 -149176 -151713 -154307 -156963 -159683 -162474 -165340 -168289 -171327 -174462 -177706 -181069 -184567 0 -588.163 -1185.36 -1791.64 -2407.03 -3031.58 -3665.35 -4308.37 -4960.69 -5622.36 -6293.44 -6973.98 -7664.03 -8363.64 -9072.88 -9791.81 -10520.5 -11258.9 -12007.3 -12765.5 -13533.8 -14312.1 -15100.6 -15899.2 -16708.2 -17527.4 -18357.1 -19197.3 -20048.1 -20909.5 -21781.6 -22664.5 -23558.4 -24463.2 -25379 -26306 -27244.2 -28193.7 -29154.7 -30127.1 -31111.1 -32106.8 -33114.3 -34133.6 -35164.9 -36208.2 -37263.7 -38331.5 -39411.6 -40504.1 -41609.3 -42727.1 -43857.6 -45001.1 -46157.5 -47327 -48509.7 -49705.7 -50915.2 -52138.2 -53374.8 -54625.2 -55889.5 -57167.9 -58460.4 -59767.1 -61088.2 -62423.9 -63774.3 -65139.4 -66519.5 -67914.6 -69325 -70750.8 -72192.2 -73649.3 -75122.3 -76611.3 -78116.6 -79638.4 -81176.9 -82732.2 -84304.6 -85894.4 -87501.9 -89127.2 -90770.7 -92432.7 -94113.5 -95813.5 -97533 -99272.5 -101032 -102813 -104615 -106440 -108286 -110156 -112050 -113968 -115912 -117882 -119879 -121904 -123959 -126045 -128162 -130313 -132498 -134721 -136981 -139282 -141626 -144015 -146451 -148938 -151479 -154076 -156736 -159461 -162256 -165128 -168082 -171127 -174271 -177524 -180899 -184410 0 -582.719 -1174.54 -1775.49 -2385.63 -3005 -3633.63 -4271.58 -4918.89 -5575.62 -6241.81 -6917.52 -7602.8 -8297.7 -9002.29 -9716.61 -10440.7 -11174.7 -11918.6 -12672.5 -13436.5 -14210.5 -14994.8 -15789.3 -16594.1 -17409.4 -18235.1 -19071.3 -19918.2 -20775.8 -21644.1 -22523.4 -23413.5 -24314.7 -25227 -26150.5 -27085.2 -28031.3 -28988.9 -29958 -30938.8 -31931.3 -32935.6 -33951.8 -34980 -36020.3 -37072.9 -38137.7 -39215 -40304.8 -41407.1 -42522.2 -43650.1 -44791 -45944.8 -47111.9 -48292.1 -49485.8 -50692.9 -51913.6 -53148 -54396.2 -55658.4 -56934.7 -58225.2 -59529.9 -60849.2 -62183 -63531.6 -64895 -66273.4 -67666.9 -69075.8 -70500.1 -71940.1 -73395.8 -74867.5 -76355.3 -77859.4 -79380.1 -80917.5 -82471.9 -84043.5 -85632.5 -87239.2 -88863.8 -90506.7 -92168.2 -93848.6 -95548.2 -97267.5 -99006.8 -100767 -102547 -104350 -106174 -108021 -109891 -111785 -113704 -115648 -117619 -119617 -121644 -123700 -125786 -127905 -130057 -132244 -134468 -136731 -139034 -141380 -143771 -146210 -148699 -151243 -153844 -156507 -159236 -162037 -164914 -167874 -170926 -174078 -177340 -180726 -184250 0 -577.27 -1163.7 -1759.34 -2364.22 -2978.38 -3601.88 -4234.75 -4877.05 -5528.83 -6190.13 -6861 -7541.5 -8231.69 -8931.62 -9641.34 -10360.9 -11090.4 -11829.9 -12579.4 -13339.1 -14108.9 -14888.9 -15679.3 -16480 -17291.2 -18112.9 -18945.2 -19788.2 -20642 -21506.5 -22382 -23268.5 -24166.1 -25074.8 -25994.7 -26926 -27868.7 -28822.9 -29788.8 -30766.2 -31755.5 -32756.7 -33769.8 -34794.9 -35832.3 -36881.9 -37943.8 -39018.2 -40105.2 -41204.8 -42317.2 -43442.4 -44580.7 -45732 -46896.5 -48074.3 -49265.6 -50470.3 -51688.8 -52920.9 -54167 -55427.1 -56701.3 -57989.7 -59292.5 -60609.9 -61941.9 -63288.6 -64650.3 -66027 -67419 -68826.3 -70249.1 -71687.6 -73142 -74612.4 -76098.9 -77601.9 -79121.5 -80657.9 -82211.3 -83782 -85370.2 -86976.1 -88600.1 -90242.4 -91903.4 -93583.3 -95282.6 -97001.6 -98740.8 -100500 -102281 -104084 -105908 -107755 -109626 -111520 -113440 -115385 -117356 -119355 -121382 -123439 -125527 -127647 -129801 -131989 -134215 -136479 -138784 -141132 -143526 -145967 -148460 -151006 -153611 -156278 -159011 -161816 -164698 -167664 -170723 -173882 -177154 -180550 -184087 0 -571.815 -1152.86 -1743.16 -2342.78 -2951.74 -3570.1 -4197.89 -4835.17 -5481.99 -6138.38 -6804.42 -7480.14 -8165.61 -8860.87 -9565.99 -10281 -11006 -11741.1 -12486.2 -13241.5 -14007.1 -14782.9 -15569.1 -16365.7 -17172.9 -17990.6 -18819 -19658.1 -20508 -21368.8 -22240.5 -23123.3 -24017.3 -24922.4 -25838.9 -26766.7 -27706 -28656.8 -29619.3 -30593.5 -31579.6 -32577.6 -33587.6 -34609.7 -35644 -36690.6 -37749.7 -38821.2 -39