<?xml version="1.0"?> 
<VTKFile type="StructuredGrid" version="0.1"> 
<StructuredGrid WholeExtent="0 127 0 127 0 0"> 
<Piece Extent="0 127 0 127 0 0"> 
<PointData>
<DataArray type="Float32" Name="u" format="ascii" NumberOfComponents="1"> 
0 -97.7575 -195.515 -293.273 -391.03 -488.788 -586.546 -684.305 -782.064 -879.823 -977.583 -1075.34 -1173.1 -1270.86 -1368.63 -1466.39 -1564.15 -1661.92 -1759.68 -1857.45 -1955.21 -2052.98 -2150.75 -2248.52 -2346.29 -2444.06 -2541.84 -2639.61 -2737.39 -2835.17 -2932.95 -3030.73 -3128.51 -3226.29 -3324.08 -3421.86 -3519.65 -3617.44 -3715.23 -3813.03 -3910.82 -4008.62 -4106.42 -4204.22 -4302.03 -4399.83 -4497.64 -4595.45 -4693.27 -4791.08 -4888.9 -4986.72 -5084.54 -5182.37 -5280.2 -5378.03 -5475.86 -5573.7 -5671.54 -5769.38 -5867.22 -5965.07 -6062.92 -6160.78 -6258.63 -6356.49 -6454.36 -6552.22 -6650.09 -6747.97 -6845.84 -6943.72 -7041.61 -7139.49 -7237.39 -7335.28 -7433.18 -7531.08 -7628.99 -7726.9 -7824.81 -7922.73 -8020.65 -8118.57 -8216.5 -8314.44 -8412.37 -8510.32 -8608.26 -8706.21 -8804.17 -8902.13 -9000.09 -9098.06 -9196.04 -9294.01 -9392 -9489.98 -9587.98 -9685.97 -9783.98 -9881.98 -9979.99 -10078 -10176 -10274.1 -10372.1 -10470.1 -10568.2 -10666.2 -10764.3 -10862.3 -10960.4 -11058.5 -11156.5 -11254.6 -11352.7 -11450.8 -11548.9 -11647 -11745.1 -11843.2 -11941.4 -12039.5 -12137.6 -12235.8 -12333.9 -12432.1 0 -99.0255 -198.051 -297.077 -396.102 -495.128 -594.155 -693.181 -792.208 -891.235 -990.263 -1089.29 -1188.32 -1287.35 -1386.38 -1485.41 -1584.44 -1683.47 -1782.51 -1881.54 -1980.58 -2079.61 -2178.65 -2277.69 -2376.73 -2475.77 -2574.81 -2673.86 -2772.9 -2871.95 -2970.99 -3070.04 -3169.09 -3268.15 -3367.2 -3466.26 -3565.31 -3664.37 -3763.44 -3862.5 -3961.57 -4060.63 -4159.7 -4258.77 -4357.85 -4456.92 -4556 -4655.08 -4754.17 -4853.25 -4952.34 -5051.43 -5150.53 -5249.62 -5348.72 -5447.82 -5546.93 -5646.03 -5745.14 -5844.26 -5943.37 -6042.49 -6141.62 -6240.74 -6339.87 -6439 -6538.14 -6637.28 -6736.42 -6835.57 -6934.71 -7033.87 -7133.02 -7232.18 -7331.35 -7430.52 -7529.69 -7628.86 -7728.04 -7827.23 -7926.42 -8025.61 -8124.8 -8224 -8323.21 -8422.42 -8521.63 -8620.85 -8720.07 -8819.3 -8918.53 -9017.76 -9117 -9216.25 -9315.5 -9414.75 -9514.01 -9613.28 -9712.55 -9811.82 -9911.1 -10010.4 -10109.7 -10209 -10308.3 -10407.6 -10506.9 -10606.2 -10705.5 -10804.9 -10904.2 -11003.5 -11102.9 -11202.2 -11301.6 -11400.9 -11500.3 -11599.7 -11699.1 -11798.4 -11897.8 -11997.2 -12096.6 -12196.1 -12295.5 -12394.9 -12494.3 -12593.8 0 -100.293 -200.586 -300.879 -401.173 -501.466 -601.76 -702.054 -802.349 -902.644 -1002.94 -1103.24 -1203.53 -1303.83 -1404.13 -1504.43 -1604.72 -1705.03 -1805.33 -1905.63 -2005.93 -2106.24 -2206.54 -2306.85 -2407.16 -2507.46 -2607.77 -2708.09 -2808.4 -2908.71 -3009.03 -3109.35 -3209.67 -3309.99 -3410.31 -3510.64 -3610.96 -3711.29 -3811.62 -3911.95 -4012.29 -4112.63 -4212.97 -4313.31 -4413.65 -4514 -4614.34 -4714.69 -4815.05 -4915.4 -5015.76 -5116.12 -5216.49 -5316.85 -5417.22 -5517.59 -5617.97 -5718.35 -5818.73 -5919.11 -6019.5 -6119.89 -6220.29 -6320.68 -6421.08 -6521.49 -6621.89 -6722.31 -6822.72 -6923.14 -7023.56 -7123.99 -7224.41 -7324.85 -7425.28 -7525.73 -7626.17 -7726.62 -7827.07 -7927.53 -8027.99 -8128.46 -8228.93 -8329.4 -8429.88 -8530.36 -8630.85 -8731.35 -8831.84 -8932.34 -9032.85 -9133.36 -9233.88 -9334.4 -9434.93 -9535.46 -9635.99 -9736.54 -9837.08 -9937.63 -10038.2 -10138.8 -10239.3 -10339.9 -10440.5 -10541.1 -10641.6 -10742.2 -10842.8 -10943.5 -11044.1 -11144.7 -11245.3 -11345.9 -11446.6 -11547.2 -11647.9 -11748.5 -11849.2 -11949.9 -12050.5 -12151.2 -12251.9 -12352.6 -12453.3 -12554 -12654.7 -12755.4 0 -101.56 -203.12 -304.681 -406.241 -507.802 -609.363 -710.924 -812.486 -914.048 -1015.61 -1117.17 -1218.74 -1320.3 -1421.87 -1523.43 -1625 -1726.57 -1828.14 -1929.71 -2031.28 -2132.85 -2234.42 -2336 -2437.57 -2539.15 -2640.73 -2742.31 -2843.89 -2945.47 -3047.05 -3148.64 -3250.23 -3351.82 -3453.41 -3555 -3656.6 -3758.19 -3859.79 -3961.39 -4063 -4164.6 -4266.21 -4367.82 -4469.43 -4571.05 -4672.67 -4774.29 -4875.91 -4977.53 -5079.16 -5180.79 -5282.43 -5384.06 -5485.7 -5587.34 -5688.99 -5790.64 -5892.29 -5993.95 -6095.6 -6197.27 -6298.93 -6400.6 -6502.27 -6603.95 -6705.62 -6807.31 -6908.99 -7010.68 -7112.38 -7214.08 -7315.78 -7417.48 -7519.19 -7620.91 -7722.62 -7824.35 -7926.07 -8027.8 -8129.54 -8231.28 -8333.02 -8434.77 -8536.52 -8638.28 -8740.05 -8841.81 -8943.59 -9045.36 -9147.14 -9248.93 -9350.72 -9452.52 -9554.32 -9656.13 -9757.94 -9859.76 -9961.58 -10063.4 -10165.2 -10267.1 -10368.9 -10470.8 -10572.6 -10674.5 -10776.4 -10878.2 -10980.1 -11082 -11183.9 -11285.8 -11387.7 -11489.6 -11591.5 -11693.5 -11795.4 -11897.3 -11999.3 -12101.2 -12203.2 -12305.1 -12407.1 -12509.1 -12611.1 -12713.1 -12815.1 -12917.1 0 -102.827 -205.654 -308.481 -411.308 -514.136 -616.964 -719.792 -822.62 -925.449 -1028.28 -1131.11 -1233.94 -1336.77 -1439.6 -1542.44 -1645.27 -1748.1 -1850.94 -1953.78 -2056.61 -2159.45 -2262.29 -2365.14 -2467.98 -2570.82 -2673.67 -2776.51 -2879.36 -2982.21 -3085.07 -3187.92 -3290.77 -3393.63 -3496.49 -3599.35 -3702.22 -3805.08 -3907.95 -4010.82 -4113.69 -4216.56 -4319.44 -4422.32 -4525.2 -4628.08 -4730.97 -4833.86 -4936.75 -5039.65 -5142.54 -5245.44 -5348.35 -5451.25 -5554.16 -5657.07 -5759.99 -5862.91 -5965.83 -6068.75 -6171.68 -6274.62 -6377.55 -6480.49 -6583.43 -6686.38 -6789.33 -6892.28 -6995.24 -7098.2 -7201.17 -7304.14 -7407.11 -7510.09 -7613.07 -7716.06 -7819.05 -7922.04 -8025.04 -8128.05 -8231.06 -8334.07 -8437.09 -8540.11 -8643.14 -8746.17 -8849.21 -8952.25 -9055.3 -9158.35 -9261.41 -9364.47 -9467.54 -9570.61 -9673.69 -9776.77 -9879.86 -9982.95 -10086.1 -10189.2 -10292.3 -10395.4 -10498.5 -10601.6 -10704.8 -10807.9 -10911.1 -11014.2 -11117.4 -11220.5 -11323.7 -11426.9 -11530.1 -11633.3 -11736.5 -11839.7 -11942.9 -12046.1 -12149.3 -12252.6 -12355.8 -12459 -12562.3 -12665.5 -12768.8 -12872.1 -12975.4 -13078.7 0 -104.093 -208.187 -312.28 -416.373 -520.467 -624.561 -728.656 -832.751 -936.846 -1040.94 -1145.04 -1249.14 -1353.23 -1457.33 -1561.43 -1665.53 -1769.63 -1873.74 -1977.84 -2081.94 -2186.05 -2290.16 -2394.26 -2498.37 -2602.49 -2706.6 -2810.71 -2914.83 -3018.95 -3123.06 -3227.19 -3331.31 -3435.43 -3539.56 -3643.69 -3747.82 -3851.95 -3956.09 -4060.22 -4164.36 -4268.51 -4372.65 -4476.8 -4580.95 -4685.1 -4789.25 -4893.41 -4997.57 -5101.74 -5205.9 -5310.07 -5414.24 -5518.42 -5622.6 -5726.78 -5830.96 -5935.15 -6039.34 -6143.54 -6247.74 -6351.94 -6456.15 -6560.36 -6664.57 -6768.79 -6873.01 -6977.23 -7081.46 -7185.7 -7289.93 -7394.17 -7498.42 -7602.67 -7706.92 -7811.18 -7915.45 -8019.71 -8123.99 -8228.26 -8332.55 -8436.83 -8541.12 -8645.42 -8749.72 -8854.03 -8958.34 -9062.65 -9166.98 -9271.3 -9375.63 -9479.97 -9584.32 -9688.66 -9793.02 -9897.38 -10001.7 -10106.1 -10210.5 -10314.9 -10419.3 -10523.7 -10628.1 -10732.5 -10836.9 -10941.3 -11045.7 -11150.2 -11254.6 -11359 -11463.5 -11567.9 -11672.4 -11776.9 -11881.4 -11985.8 -12090.3 -12194.8 -12299.3 -12403.8 -12508.4 -12612.9 -12717.4 -12822 -12926.5 -13031.1 -13135.6 -13240.2 0 -105.359 -210.718 -316.078 -421.437 -526.797 -632.157 -737.517 -842.878 -948.239 -1053.6 -1158.96 -1264.33 -1369.69 -1475.06 -1580.42 -1685.79 -1791.16 -1896.52 -2001.89 -2107.26 -2212.64 -2318.01 -2423.38 -2528.76 -2634.14 -2739.52 -2844.9 -2950.28 -3055.66 -3161.05 -3266.44 -3371.83 -3477.22 -3582.61 -3688.01 -3793.41 -3898.81 -4004.21 -4109.62 -4215.02 -4320.43 -4425.85 -4531.26 -4636.68 -4742.1 -4847.52 -4952.95 -5058.38 -5163.81 -5269.24 -5374.68 -5480.12 -5585.57 -5691.01 -5796.46 -5901.92 -6007.38 -6112.84 -6218.3 -6323.77 -6429.24 -6534.72 -6640.2 -6745.68 -6851.17 -6956.66 -7062.16 -7167.66 -7273.16 -7378.67 -7484.18 -7589.7 -7695.22 -7800.75 -7906.28 -8011.81 -8117.35 -8222.9 -8328.45 -8434 -8539.56 -8645.13 -8750.7 -8856.27 -8961.85 -9067.44 -9173.03 -9278.62 -9384.22 -9489.83 -9595.44 -9701.06 -9806.69 -9912.32 -10018 -10123.6 -10229.2 -10334.9 -10440.6 -10546.2 -10651.9 -10757.6 -10863.3 -10968.9 -11074.6 -11180.3 -11286.1 -11391.8 -11497.5 -11603.2 -11709 -11814.7 -11920.5 -12026.2 -12132 -12237.7 -12343.5 -12449.3 -12555.1 -12660.9 -12766.7 -12872.5 -12978.4 -13084.2 -13190 -13295.9 -13401.7 0 -106.625 -213.249 -319.874 -426.499 -533.124 -639.75 -746.375 -853.002 -959.629 -1066.26 -1172.88 -1279.51 -1386.14 -1492.77 -1599.4 -1706.04 -1812.67 -1919.3 -2025.94 -2132.58 -2239.21 -2345.85 -2452.49 -2559.14 -2665.78 -2772.43 -2879.07 -2985.72 -3092.37 -3199.02 -3305.68 -3412.34 -3518.99 -3625.65 -3732.32 -3838.98 -3945.65 -4052.32 -4158.99 -4265.67 -4372.34 -4479.02 -4585.7 -4692.39 -4799.08 -4905.77 -5012.46 -5119.16 -5225.86 -5332.56 -5439.27 -5545.98 -5652.69 -5759.41 -5866.13 -5972.85 -6079.58 -6186.31 -6293.04 -6399.78 -6506.52 -6613.27 -6720.02 -6826.77 -6933.53 -7040.29 -7147.06 -7253.83 -7360.6 -7467.38 -7574.17 -7680.95 -7787.75 -7894.54 -8001.35 -8108.15 -8214.97 -8321.78 -8428.61 -8535.43 -8642.26 -8749.1 -8855.94 -8962.79 -9069.65 -9176.51 -9283.37 -9390.24 -9497.12 -9604 -9710.88 -9817.78 -9924.68 -10031.6 -10138.5 -10245.4 -10352.3 -10459.3 -10566.2 -10673.1 -10780.1 -10887 -10994 -11101 -11207.9 -11314.9 -11421.9 -11528.9 -11635.9 -11742.9 -11849.9 -11957 -12064 -12171 -12278.1 -12385.1 -12492.2 -12599.3 -12706.3 -12813.4 -12920.5 -13027.6 -13134.7 -13241.8 -13348.9 -13456.1 -13563.2 0 -107.89 -215.779 -323.669 -431.559 -539.449 -647.34 -755.231 -863.122 -971.014 -1078.91 -1186.8 -1294.69 -1402.59 -1510.48 -1618.38 -1726.28 -1834.18 -1942.08 -2049.98 -2157.88 -2265.78 -2373.69 -2481.59 -2589.5 -2697.41 -2805.32 -2913.24 -3021.15 -3129.07 -3236.99 -3344.91 -3452.83 -3560.75 -3668.68 -3776.61 -3884.54 -3992.47 -4100.41 -4208.35 -4316.29 -4424.23 -4532.18 -4640.13 -4748.08 -4856.04 -4964 -5071.96 -5179.92 -5287.89 -5395.86 -5503.84 -5611.81 -5719.79 -5827.78 -5935.77 -6043.76 -6151.75 -6259.75 -6367.76 -6475.76 -6583.77 -6691.79 -6799.81 -6907.83 -7015.86 -7123.89 -7231.93 -7339.97 -7448.02 -7556.07 -7664.12 -7772.18 -7880.24 -7988.31 -8096.39 -8204.46 -8312.55 -8420.64 -8528.73 -8636.83 -8744.94 -8853.05 -8961.16 -9069.28 -9177.41 -9285.54 -9393.68 -9501.82 -9609.97 -9718.13 -9826.29 -9934.46 -10042.6 -10150.8 -10259 -10367.2 -10475.4 -10583.6 -10691.8 -10800 -10908.3 -11016.5 -11124.7 -11233 -11341.2 -11449.5 -11557.7 -11666 -11774.3 -11882.6 -11990.9 -12099.2 -12207.5 -12315.8 -12424.1 -12532.5 -12640.8 -12749.2 -12857.5 -12965.9 -13074.3 -13182.6 -13291 -13399.4 -13507.8 -13616.2 -13724.7 0 -109.154 -218.308 -327.463 -436.617 -545.772 -654.927 -764.083 -873.239 -982.396 -1091.55 -1200.71 -1309.87 -1419.03 -1528.19 -1637.35 -1746.51 -1855.68 -1964.84 -2074.01 -2183.17 -2292.34 -2401.51 -2510.68 -2619.86 -2729.03 -2838.21 -2947.39 -3056.57 -3165.75 -3274.93 -3384.12 -3493.31 -3602.5 -3711.69 -3820.89 -3930.08 -4039.28 -4148.49 -4257.69 -4366.9 -4476.11 -4585.32 -4694.54 -4803.76 -4912.98 -5022.21 -5131.43 -5240.67 -5349.9 -5459.14 -5568.38 -5677.63 -5786.88 -5896.13 -6005.38 -6114.64 -6223.91 -6333.18 -6442.45 -6551.72 -6661 -6770.29 -6879.58 -6988.87 -7098.17 -7207.47 -7316.78 -7426.09 -7535.4 -7644.72 -7754.05 -7863.38 -7972.71 -8082.05 -8191.4 -8300.75 -8410.1 -8519.46 -8628.83 -8738.2 -8847.58 -8956.96 -9066.35 -9175.74 -9285.14 -9394.55 -9503.96 -9613.38 -9722.8 -9832.23 -9941.67 -10051.1 -10160.6 -10270 -10379.5 -10488.9 -10598.4 -10707.9 -10817.4 -10926.9 -11036.4 -11145.9 -11255.4 -11364.9 -11474.5 -11584 -11693.5 -11803.1 -11912.7 -12022.2 -12131.8 -12241.4 -12351 -12460.6 -12570.2 -12679.8 -12789.4 -12899 -13008.7 -13118.3 -13228 -13337.6 -13447.3 -13557 -13666.7 -13776.4 -13886.1 0 -110.418 -220.837 -331.255 -441.674 -552.093 -662.512 -772.932 -883.353 -993.773 -1104.19 -1214.62 -1325.04 -1435.46 -1545.89 -1656.31 -1766.74 -1877.17 -1987.6 -2098.03 -2208.46 -2318.89 -2429.33 -2539.77 -2650.2 -2760.64 -2871.08 -2981.53 -3091.97 -3202.42 -3312.87 -3423.32 -3533.77 -3644.23 -3754.69 -3865.15 -3975.61 -4086.08 -4196.55 -4307.02 -4417.49 -4527.97 -4638.45 -4748.93 -4859.42 -4969.9 -5080.4 -5190.89 -5301.39 -5411.89 -5522.4 -5632.91 -5743.42 -5853.94 -5964.46 -6074.98 -6185.51 -6296.04 -6406.58 -6517.12 -6627.66 -6738.21 -6848.76 -6959.32 -7069.88 -7180.45 -7291.02 -7401.6 -7512.18 -7622.76 -7733.35 -7843.95 -7954.55 -8065.15 -8175.76 -8286.38 -8397 -8507.63 -8618.26 -8728.9 -8839.54 -8950.19 -9060.84 -9171.5 -9282.17 -9392.84 -9503.52 -9614.21 -9724.9 -9835.6 -9946.3 -10057 -10167.7 -10278.4 -10389.2 -10499.9 -10610.7 -10721.4 -10832.2 -10942.9 -11053.7 -11164.5 -11275.3 -11386.1 -11496.9 -11607.7 -11718.5 -11829.3 -11940.1 -12051 -12161.8 -12272.7 -12383.5 -12494.4 -12605.3 -12716.2 -12827.1 -12938 -13048.9 -13159.8 -13270.7 -13381.6 -13492.6 -13603.5 -13714.5 -13825.5 -13936.5 -14047.4 0 -111.682 -223.364 -335.046 -446.729 -558.412 -670.095 -781.778 -893.463 -1005.15 -1116.83 -1228.52 -1340.21 -1451.89 -1563.58 -1675.27 -1786.96 -1898.65 -2010.35 -2122.04 -2233.74 -2345.44 -2457.14 -2568.84 -2680.54 -2792.24 -2903.95 -3015.66 -3127.37 -3239.08 -3350.79 -3462.51 -3574.23 -3685.95 -3797.67 -3909.4 -4021.13 -4132.86 -4244.59 -4356.33 -4468.07 -4579.81 -4691.55 -4803.3 -4915.06 -5026.81 -5138.57 -5250.33 -5362.1 -5473.86 -5585.64 -5697.41 -5809.19 -5920.98 -6032.76 -6144.55 -6256.35 -6368.15 -6479.95 -6591.76 -6703.57 -6815.39 -6927.21 -7039.04 -7150.87 -7262.7 -7374.54 -7486.39 -7598.24 -7710.09 -7821.95 -7933.82 -8045.69 -8157.56 -8269.45 -8381.33 -8493.22 -8605.12 -8717.03 -8828.93 -8940.85 -9052.77 -9164.7 -9276.63 -9388.57 -9500.51 -9612.47 -9724.42 -9836.39 -9948.36 -10060.3 -10172.3 -10284.3 -10396.3 -10508.3 -10620.3 -10732.3 -10844.4 -10956.4 -11068.4 -11180.5 -11292.5 -11404.6 -11516.7 -11628.7 -11740.8 -11852.9 -11965 -12077.1 -12189.2 -12301.4 -12413.5 -12525.6 -12637.8 -12750 -12862.1 -12974.3 -13086.5 -13198.7 -13310.9 -13423.1 -13535.3 -13647.5 -13759.8 -13872 -13984.3 -14096.5 -14208.8 0 -112.945 -225.891 -338.836 -451.782 -564.728 -677.675 -790.622 -903.569 -1016.52 -1129.47 -1242.42 -1355.37 -1468.32 -1581.27 -1694.22 -1807.18 -1920.13 -2033.09 -2146.05 -2259.01 -2371.97 -2484.93 -2597.9 -2710.86 -2823.83 -2936.8 -3049.77 -3162.75 -3275.72 -3388.7 -3501.68 -3614.67 -3727.65 -3840.64 -3953.63 -4066.62 -4179.62 -4292.62 -4405.62 -4518.63 -4631.63 -4744.64 -4857.66 -4970.68 -5083.7 -5196.72 -5309.75 -5422.78 -5535.81 -5648.85 -5761.9 -5874.94 -5987.99 -6101.05 -6214.11 -6327.17 -6440.24 -6553.31 -6666.38 -6779.46 -6892.55 -7005.64 -7118.73 -7231.83 -7344.93 -7458.04 -7571.16 -7684.28 -7797.4 -7910.53 -8023.66 -8136.8 -8249.95 -8363.1 -8476.26 -8589.42 -8702.59 -8815.76 -8928.94 -9042.13 -9155.32 -9268.52 -9381.72 -9494.94 -9608.15 -9721.38 -9834.61 -9947.84 -10061.1 -10174.3 -10287.6 -10400.9 -10514.1 -10627.4 -10740.7 -10854 -10967.3 -11080.6 -11193.9 -11307.2 -11420.6 -11533.9 -11647.3 -11760.6 -11874 -11987.3 -12100.7 -12214.1 -12327.5 -12440.9 -12554.3 -12667.7 -12781.2 -12894.6 -13008 -13121.5 -13235 -13348.4 -13461.9 -13575.4 -13688.9 -13802.4 -13915.9 -14029.5 -14143 -14256.5 -14370.1 0 -114.208 -228.416 -342.625 -456.834 -571.043 -685.252 -799.462 -913.672 -1027.88 -1142.09 -1256.31 -1370.52 -1484.74 -1598.95 -1713.17 -1827.38 -1941.6 -2055.82 -2170.05 -2284.27 -2398.49 -2512.72 -2626.95 -2741.18 -2855.41 -2969.64 -3083.88 -3198.12 -3312.36 -3426.6 -3540.84 -3655.09 -3769.34 -3883.59 -3997.85 -4112.11 -4226.37 -4340.63 -4454.9 -4569.17 -4683.44 -4797.72 -4912 -5026.28 -5140.56 -5254.85 -5369.15 -5483.44 -5597.75 -5712.05 -5826.36 -5940.67 -6054.99 -6169.31 -6283.63 -6397.96 -6512.3 -6626.64 -6740.98 -6855.33 -6969.68 -7084.04 -7198.4 -7312.77 -7427.14 -7541.51 -7655.9 -7770.28 -7884.68 -7999.08 -8113.48 -8227.89 -8342.31 -8456.73 -8571.15 -8685.59 -8800.03 -8914.47 -9028.92 -9143.38 -9257.84 -9372.31 -9486.79 -9601.27 -9715.76 -9830.26 -9944.76 -10059.3 -10173.8 -10288.3 -10402.8 -10517.4 -10631.9 -10746.5 -10861 -10975.6 -11090.2 -11204.8 -11319.4 -11434 -11548.6 -11663.2 -11777.8 -11892.4 -12007.1 -12121.7 -12236.4 -12351 -12465.7 -12580.4 -12695.1 -12809.8 -12924.5 -13039.2 -13153.9 -13268.7 -13383.4 -13498.2 -13612.9 -13727.7 -13842.5 -13957.3 -14072.1 -14186.9 -14301.7 -14416.5 -14531.4 0 -115.471 -230.941 -346.412 -461.883 -577.355 -692.826 -808.299 -923.772 -1039.25 -1154.72 -1270.19 -1385.67 -1501.15 -1616.63 -1732.1 -1847.59 -1963.07 -2078.55 -2194.03 -2309.52 -2425.01 -2540.5 -2655.99 -2771.48 -2886.98 -3002.47 -3117.97 -3233.47 -3348.98 -3464.48 -3579.99 -3695.5 -3811.02 -3926.53 -4042.05 -4157.57 -4273.1 -4388.63 -4504.16 -4619.69 -4735.23 -4850.77 -4966.31 -5081.86 -5197.41 -5312.97 -5428.53 -5544.09 -5659.66 -5775.23 -5890.8 -6006.38 -6121.96 -6237.55 -6353.14 -6468.74 -6584.34 -6699.94 -6815.55 -6931.17 -7046.79 -7162.41 -7278.04 -7393.68 -7509.32 -7624.96 -7740.61 -7856.27 -7971.93 -8087.6 -8203.27 -8318.95 -8434.63 -8550.32 -8666.02 -8781.72 -8897.43 -9013.15 -9128.87 -9244.6 -9360.33 -9476.07 -9591.82 -9707.58 -9823.34 -9939.11 -10054.9 -10170.7 -10286.5 -10402.3 -10518.1 -10633.9 -10749.7 -10865.5 -10981.3 -11097.2 -11213 -11328.9 -11444.8 -11560.6 -11676.5 -11792.4 -11908.3 -12024.2 -12140.1 -12256.1 -12372 -12487.9 -12603.9 -12719.8 -12835.8 -12951.8 -13067.8 -13183.8 -13299.8 -13415.8 -13531.8 -13647.8 -13763.9 -13879.9 -13996 -14112.1 -14228.2 -14344.3 -14460.4 -14576.5 -14692.6 0 -116.733 -233.465 -350.198 -466.931 -583.665 -700.398 -817.133 -933.868 -1050.6 -1167.34 -1284.08 -1400.82 -1517.55 -1634.29 -1751.04 -1867.78 -1984.52 -2101.27 -2218.02 -2334.76 -2451.51 -2568.27 -2685.02 -2801.78 -2918.53 -3035.29 -3152.06 -3268.82 -3385.59 -3502.36 -3619.13 -3735.9 -3852.68 -3969.46 -4086.24 -4203.03 -4319.82 -4436.61 -4553.4 -4670.2 -4787 -4903.81 -5020.62 -5137.43 -5254.24 -5371.06 -5487.89 -5604.71 -5721.55 -5838.38 -5955.22 -6072.07 -6188.91 -6305.77 -6422.62 -6539.49 -6656.35 -6773.23 -6890.1 -7006.98 -7123.87 -7240.76 -7357.66 -7474.56 -7591.47 -7708.38 -7825.3 -7942.22 -8059.15 -8176.09 -8293.03 -8409.98 -8526.93 -8643.89 -8760.86 -8877.83 -8994.81 -9111.8 -9228.79 -9345.79 -9462.79 -9579.8 -9696.82 -9813.85 -9930.88 -10047.9 -10165 -10282 -10399.1 -10516.2 -10633.2 -10750.3 -10867.4 -10984.5 -11101.6 -11218.7 -11335.9 -11453 -11570.1 -11687.3 -11804.4 -11921.6 -12038.8 -12156 -12273.2 -12390.4 -12507.6 -12624.8 -12742 -12859.3 -12976.5 -13093.8 -13211 -13328.3 -13445.6 -13562.9 -13680.2 -13797.5 -13914.8 -14032.2 -14149.5 -14266.9 -14384.2 -14501.6 -14619 -14736.4 -14853.8 0 -117.994 -235.988 -353.983 -471.977 -589.972 -707.968 -825.964 -943.96 -1061.96 -1179.96 -1297.95 -1415.95 -1533.96 -1651.96 -1769.96 -1887.97 -2005.97 -2123.98 -2241.99 -2360 -2478.01 -2596.02 -2714.04 -2832.06 -2950.08 -3068.1 -3186.13 -3304.15 -3422.18 -3540.21 -3658.25 -3776.29 -3894.33 -4012.37 -4130.41 -4248.46 -4366.52 -4484.57 -4602.63 -4720.69 -4838.76 -4956.83 -5074.9 -5192.97 -5311.05 -5429.14 -5547.23 -5665.32 -5783.42 -5901.52 -6019.62 -6137.73 -6255.84 -6373.96 -6492.09 -6610.21 -6728.35 -6846.48 -6964.63 -7082.77 -7200.93 -7319.09 -7437.25 -7555.42 -7673.59 -7791.78 -7909.96 -8028.15 -8146.35 -8264.56 -8382.77 -8500.98 -8619.2 -8737.43 -8855.67 -8973.91 -9092.16 -9210.41 -9328.68 -9446.95 -9565.22 -9683.5 -9801.79 -9920.09 -10038.4 -10156.7 -10275 -10393.4 -10511.7 -10630 -10748.4 -10866.7 -10985.1 -11103.5 -11221.9 -11340.3 -11458.7 -11577.1 -11695.5 -11813.9 -11932.3 -12050.8 -12169.2 -12287.7 -12406.2 -12524.6 -12643.1 -12761.6 -12880.1 -12998.6 -13117.2 -13235.7 -13354.2 -13472.8 -13591.4 -13709.9 -13828.5 -13947.1 -14065.7 -14184.3 -14303 -14421.6 -14540.3 -14658.9 -14777.6 -14896.3 -15014.9 0 -119.255 -238.511 -357.766 -477.022 -596.278 -715.534 -834.792 -954.049 -1073.31 -1192.57 -1311.83 -1431.09 -1550.35 -1669.61 -1788.88 -1908.14 -2027.41 -2146.68 -2265.95 -2385.22 -2504.5 -2623.77 -2743.05 -2862.33 -2981.61 -3100.9 -3220.18 -3339.47 -3458.77 -3578.06 -3697.36 -3816.66 -3935.96 -4055.26 -4174.57 -4293.88 -4413.2 -4532.52 -4651.84 -4771.17 -4890.49 -5009.83 -5129.16 -5248.5 -5367.85 -5487.19 -5606.55 -5725.9 -5845.26 -5964.63 -6084 -6203.37 -6322.75 -6442.14 -6561.52 -6680.92 -6800.32 -6919.72 -7039.13 -7158.54 -7277.96 -7397.39 -7516.82 -7636.25 -7755.7 -7875.14 -7994.6 -8114.06 -8233.52 -8352.99 -8472.47 -8591.96 -8711.45 -8830.95 -8950.45 -9069.96 -9189.48 -9309 -9428.54 -9548.07 -9667.62 -9787.17 -9906.73 -10026.3 -10145.9 -10265.5 -10385.1 -10504.7 -10624.3 -10743.9 -10863.5 -10983.1 -11102.8 -11222.4 -11342.1 -11461.7 -11581.4 -11701.1 -11820.8 -11940.5 -12060.2 -12179.9 -12299.6 -12419.4 -12539.1 -12658.9 -12778.6 -12898.4 -13018.2 -13138 -13257.8 -13377.6 -13497.4 -13617.3 -13737.1 -13857 -13976.8 -14096.7 -14216.6 -14336.5 -14456.4 -14576.3 -14696.2 -14816.2 -14936.1 -15056.1 -15176.1 0 -120.516 -241.032 -361.548 -482.064 -602.581 -723.098 -843.616 -964.135 -1084.65 -1205.17 -1325.7 -1446.22 -1566.74 -1687.26 -1807.79 -1928.32 -2048.85 -2169.38 -2289.91 -2410.44 -2530.98 -2651.51 -2772.05 -2892.59 -3013.14 -3133.68 -3254.23 -3374.78 -3495.34 -3615.89 -3736.45 -3857.01 -3977.58 -4098.15 -4218.72 -4339.29 -4459.87 -4580.45 -4701.03 -4821.62 -4942.21 -5062.81 -5183.41 -5304.01 -5424.62 -5545.23 -5665.85 -5786.47 -5907.09 -6027.72 -6148.36 -6268.99 -6389.64 -6510.29 -6630.94 -6751.6 -6872.26 -6992.93 -7113.61 -7234.29 -7354.97 -7475.66 -7596.36 -7717.06 -7837.77 -7958.48 -8079.2 -8199.93 -8320.66 -8441.4 -8562.15 -8682.9 -8803.66 -8924.43 -9045.2 -9165.98 -9286.77 -9407.56 -9528.36 -9649.17 -9769.99 -9890.81 -10011.6 -10132.5 -10253.3 -10374.2 -10495 -10615.9 -10736.8 -10857.7 -10978.6 -11099.5 -11220.4 -11341.3 -11462.2 -11583.2 -11704.1 -11825.1 -11946.1 -12067 -12188 -12309 -12430 -12551 -12672 -12793.1 -12914.1 -13035.2 -13156.2 -13277.3 -13398.4 -13519.5 -13640.6 -13761.7 -13882.8 -14003.9 -14125.1 -14246.3 -14367.4 -14488.6 -14609.8 -14731 -14852.2 -14973.4 -15094.7 -15215.9 -15337.2 0 -121.776 -243.552 -365.329 -487.105 -608.882 -730.66 -852.438 -974.217 -1096 -1217.78 -1339.56 -1461.34 -1583.12 -1704.91 -1826.69 -1948.48 -2070.27 -2192.06 -2313.85 -2435.65 -2557.44 -2679.24 -2801.04 -2922.85 -3044.65 -3166.46 -3288.27 -3410.08 -3531.89 -3653.71 -3775.53 -3897.36 -4019.18 -4141.01 -4262.85 -4384.68 -4506.52 -4628.36 -4750.21 -4872.06 -4993.92 -5115.77 -5237.64 -5359.5 -5481.37 -5603.25 -5725.13 -5847.01 -5968.9 -6090.79 -6212.69 -6334.59 -6456.5 -6578.42 -6700.33 -6822.26 -6944.18 -7066.12 -7188.06 -7310 -7431.95 -7553.91 -7675.87 -7797.84 -7919.82 -8041.8 -8163.79 -8285.78 -8407.78 -8529.79 -8651.8 -8773.82 -8895.85 -9017.88 -9139.92 -9261.97 -9384.03 -9506.09 -9628.16 -9750.24 -9872.33 -9994.42 -10116.5 -10238.6 -10360.7 -10482.9 -10605 -10727.1 -10849.3 -10971.5 -11093.6 -11215.8 -11338 -11460.2 -11582.4 -11704.6 -11826.8 -11949 -12071.3 -12193.5 -12315.8 -12438.1 -12560.3 -12682.6 -12804.9 -12927.2 -13049.6 -13171.9 -13294.2 -13416.6 -13538.9 -13661.3 -13783.7 -13906.1 -14028.5 -14150.9 -14273.3 -14395.8 -14518.2 -14640.7 -14763.1 -14885.6 -15008.1 -15130.6 -15253.1 -15375.7 -15498.2 0 -123.036 -246.072 -369.108 -492.144 -615.181 -738.219 -861.256 -984.295 -1107.33 -1230.37 -1353.42 -1476.46 -1599.5 -1722.55 -1845.59 -1968.64 -2091.69 -2214.74 -2337.79 -2460.85 -2583.9 -2706.96 -2830.02 -2953.09 -3076.15 -3199.22 -3322.29 -3445.36 -3568.44 -3691.52 -3814.6 -3937.68 -4060.77 -4183.86 -4306.96 -4430.06 -4553.16 -4676.26 -4799.37 -4922.48 -5045.6 -5168.72 -5291.85 -5414.98 -5538.11 -5661.25 -5784.39 -5907.54 -6030.69 -6153.84 -6277.01 -6400.17 -6523.34 -6646.52 -6769.7 -6892.89 -7016.08 -7139.28 -7262.49 -7385.7 -7508.91 -7632.14 -7755.36 -7878.6 -8001.84 -8125.09 -8248.34 -8371.6 -8494.87 -8618.14 -8741.42 -8864.71 -8988.01 -9111.31 -9234.62 -9357.93 -9481.26 -9604.59 -9727.93 -9851.28 -9974.63 -10098 -10221.4 -10344.7 -10468.1 -10591.5 -10714.9 -10838.4 -10961.8 -11085.2 -11208.6 -11332.1 -11455.5 -11579 -11702.5 -11826 -11949.5 -12073 -12196.5 -12320 -12443.6 -12567.1 -12690.6 -12814.2 -12937.8 -13061.4 -13185 -13308.6 -13432.2 -13555.8 -13679.5 -13803.1 -13926.8 -14050.4 -14174.1 -14297.8 -14421.5 -14545.2 -14669 -14792.7 -14916.5 -15040.2 -15164 -15287.8 -15411.6 -15535.4 -15659.2 0 -124.295 -248.59 -372.886 -497.182 -621.478 -745.775 -870.072 -994.37 -1118.67 -1242.97 -1367.27 -1491.57 -1615.87 -1740.18 -1864.48 -1988.79 -2113.1 -2237.41 -2361.72 -2486.04 -2610.36 -2734.67 -2858.99 -2983.32 -3107.64 -3231.97 -3356.3 -3480.64 -3604.97 -3729.31 -3853.65 -3978 -4102.35 -4226.7 -4351.06 -4475.42 -4599.78 -4724.14 -4848.52 -4972.89 -5097.27 -5221.65 -5346.04 -5470.43 -5594.82 -5719.23 -5843.63 -5968.04 -6092.45 -6216.87 -6341.3 -6465.73 -6590.16 -6714.6 -6839.05 -6963.5 -7087.96 -7212.42 -7336.89 -7461.37 -7585.85 -7710.34 -7834.83 -7959.33 -8083.84 -8208.35 -8332.87 -8457.4 -8581.93 -8706.47 -8831.02 -8955.57 -9080.14 -9204.7 -9329.28 -9453.87 -9578.46 -9703.06 -9827.67 -9952.29 -10076.9 -10201.5 -10326.2 -10450.8 -10575.5 -10700.2 -10824.8 -10949.5 -11074.2 -11198.9 -11323.6 -11448.3 -11573.1 -11697.8 -11822.6 -11947.3 -12072.1 -12196.9 -12321.7 -12446.5 -12571.3 -12696.1 -12820.9 -12945.8 -13070.6 -13195.5 -13320.3 -13445.2 -13570.1 -13695 -13819.9 -13944.9 -14069.8 -14194.8 -14319.7 -14444.7 -14569.7 -14694.7 -14819.7 -14944.7 -15069.7 -15194.8 -15319.8 -15444.9 -15570 -15695.1 -15820.2 0 -125.554 -251.108 -376.663 -502.217 -627.772 -753.328 -878.884 -1004.44 -1130 -1255.56 -1381.12 -1506.68 -1632.24 -1757.8 -1883.37 -2008.94 -2134.5 -2260.07 -2385.65 -2511.22 -2636.8 -2762.37 -2887.95 -3013.54 -3139.12 -3264.71 -3390.3 -3515.9 -3641.49 -3767.09 -3892.69 -4018.3 -4143.91 -4269.52 -4395.14 -4520.76 -4646.38 -4772.01 -4897.64 -5023.28 -5148.92 -5274.56 -5400.21 -5525.86 -5651.52 -5777.18 -5902.85 -6028.52 -6154.2 -6279.88 -6405.57 -6531.26 -6656.96 -6782.67 -6908.38 -7034.09 -7159.81 -7285.54 -7411.27 -7537.01 -7662.76 -7788.51 -7914.27 -8040.03 -8165.81 -8291.58 -8417.37 -8543.16 -8668.96 -8794.77 -8920.58 -9046.41 -9172.24 -9298.07 -9423.92 -9549.77 -9675.63 -9801.5 -9927.38 -10053.3 -10179.2 -10305.1 -10431 -10556.9 -10682.8 -10808.8 -10934.7 -11060.7 -11186.6 -11312.6 -11438.6 -11564.6 -11690.6 -11816.6 -11942.6 -12068.6 -12194.7 -12320.7 -12446.8 -12572.9 -12699 -12825 -12951.2 -13077.3 -13203.4 -13329.5 -13455.7 -13581.8 -13708 -13834.2 -13960.4 -14086.6 -14212.8 -14339 -14465.3 -14591.5 -14717.8 -14844.1 -14970.4 -15096.7 -15223 -15349.3 -15475.7 -15602 -15728.4 -15854.8 -15981.2 0 -126.812 -253.625 -380.438 -507.251 -634.064 -760.879 -887.693 -1014.51 -1141.33 -1268.14 -1394.96 -1521.78 -1648.6 -1775.42 -1902.25 -2029.07 -2155.9 -2282.73 -2409.56 -2536.39 -2663.23 -2790.07 -2916.91 -3043.75 -3170.59 -3297.44 -3424.29 -3551.14 -3678 -3804.86 -3931.72 -4058.59 -4185.46 -4312.33 -4439.21 -4566.09 -4692.97 -4819.86 -4946.75 -5073.65 -5200.55 -5327.46 -5454.37 -5581.28 -5708.2 -5835.12 -5962.05 -6088.99 -6215.93 -6342.87 -6469.82 -6596.78 -6723.74 -6850.7 -6977.68 -7104.66 -7231.64 -7358.63 -7485.63 -7612.63 -7739.64 -7866.66 -7993.68 -8120.71 -8247.75 -8374.79 -8501.84 -8628.9 -8755.97 -8883.04 -9010.12 -9137.21 -9264.31 -9391.41 -9518.52 -9645.64 -9772.77 -9899.91 -10027.1 -10154.2 -10281.4 -10408.5 -10535.7 -10662.9 -10790.1 -10917.3 -11044.5 -11171.8 -11299 -11426.2 -11553.5 -11680.8 -11808 -11935.3 -12062.6 -12189.9 -12317.2 -12444.6 -12571.9 -12699.2 -12826.6 -12954 -13081.3 -13208.7 -13336.1 -13463.6 -13591 -13718.4 -13845.9 -13973.3 -14100.8 -14228.3 -14355.8 -14483.3 -14610.8 -14738.3 -14865.9 -14993.5 -15121 -15248.6 -15376.2 -15503.8 -15631.4 -15759.1 -15886.7 -16014.4 -16142.1 0 -128.07 -256.141 -384.212 -512.283 -640.354 -768.426 -896.499 -1024.57 -1152.65 -1280.72 -1408.8 -1536.88 -1664.96 -1793.04 -1921.12 -2049.2 -2177.29 -2305.38 -2433.46 -2561.56 -2689.65 -2817.75 -2945.84 -3073.95 -3202.05 -3330.16 -3458.27 -3586.38 -3714.49 -3842.61 -3970.73 -4098.86 -4226.99 -4355.12 -4483.26 -4611.4 -4739.54 -4867.69 -4995.85 -5124 -5252.16 -5380.33 -5508.5 -5636.68 -5764.86 -5893.04 -6021.23 -6149.43 -6277.63 -6405.84 -6534.05 -6662.27 -6790.49 -6918.72 -7046.96 -7175.2 -7303.45 -7431.7 -7559.96 -7688.23 -7816.5 -7944.78 -8073.07 -8201.36 -8329.67 -8457.97 -8586.29 -8714.61 -8842.95 -8971.29 -9099.63 -9227.99 -9356.35 -9484.72 -9613.1 -9741.49 -9869.88 -9998.29 -10126.7 -10255.1 -10383.6 -10512 -10640.4 -10768.9 -10897.4 -11025.8 -11154.3 -11282.8 -11411.3 -11539.9 -11668.4 -11796.9 -11925.5 -12054 -12182.6 -12311.2 -12439.8 -12568.4 -12697 -12825.6 -12954.2 -13082.9 -13211.5 -13340.2 -13468.9 -13597.5 -13726.3 -13855 -13983.7 -14112.4 -14241.2 -14369.9 -14498.7 -14627.5 -14756.3 -14885.1 -15013.9 -15142.8 -15271.6 -15400.5 -15529.4 -15658.3 -15787.2 -15916.1 -16045 -16174 -16302.9 0 -129.328 -258.656 -387.984 -517.313 -646.642 -775.972 -905.302 -1034.63 -1163.97 -1293.3 -1422.63 -1551.97 -1681.31 -1810.64 -1939.98 -2069.33 -2198.67 -2328.01 -2457.36 -2586.71 -2716.06 -2845.42 -2974.77 -3104.13 -3233.5 -3362.86 -3492.23 -3621.6 -3750.98 -3880.35 -4009.73 -4139.12 -4268.51 -4397.9 -4527.3 -4656.7 -4786.1 -4915.51 -5044.92 -5174.34 -5303.76 -5433.19 -5562.62 -5692.05 -5821.5 -5950.94 -6080.39 -6209.85 -6339.31 -6468.78 -6598.26 -6727.74 -6857.22 -6986.71 -7116.21 -7245.72 -7375.23 -7504.74 -7634.27 -7763.8 -7893.34 -8022.88 -8152.43 -8281.99 -8411.56 -8541.13 -8670.71 -8800.3 -8929.9 -9059.5 -9189.11 -9318.73 -9448.36 -9578 -9707.65 -9837.3 -9966.96 -10096.6 -10226.3 -10356 -10485.7 -10615.4 -10745.1 -10874.9 -11004.6 -11134.3 -11264.1 -11393.9 -11523.6 -11653.4 -11783.2 -11913 -12042.9 -12172.7 -12302.5 -12432.4 -12562.2 -12692.1 -12822 -12951.9 -13081.8 -13211.7 -13341.6 -13471.6 -13601.5 -13731.5 -13861.5 -13991.5 -14121.5 -14251.5 -14381.5 -14511.6 -14641.6 -14771.7 -14901.8 -15031.9 -15162 -15292.1 -15422.2 -15552.4 -15682.5 -15812.7 -15942.9 -16073.1 -16203.3 -16333.5 -16463.8 0 -130.585 -261.17 -391.756 -522.341 -652.927 -783.514 -914.102 -1044.69 -1175.28 -1305.87 -1436.46 -1567.05 -1697.65 -1828.24 -1958.84 -2089.44 -2220.04 -2350.64 -2481.25 -2611.86 -2742.47 -2873.08 -3003.69 -3134.31 -3264.93 -3395.56 -3526.18 -3656.81 -3787.44 -3918.08 -4048.72 -4179.36 -4310.01 -4440.66 -4571.32 -4701.98 -4832.64 -4963.31 -5093.98 -5224.66 -5355.34 -5486.03 -5616.72 -5747.41 -5878.11 -6008.82 -6139.53 -6270.25 -6400.98 -6531.71 -6662.44 -6793.18