<?xml version="1.0"?> 
<VTKFile type="StructuredGrid" version="0.1"> 
<StructuredGrid WholeExtent="0 127 0 127 0 0"> 
<Piece Extent="0 127 0 127 0 0"> 
<PointData>
<DataArray type="Float32" Name="u" format="ascii" NumberOfComponents="1"> 
0 -1259.81 -2519.73 -3779.86 -5040.3 -6301.16 -7562.54 -8824.55 -10087.3 -11350.9 -12615.4 -13881 -15147.7 -16415.7 -17685 -18955.9 -20228.3 -21502.4 -22778.2 -24056 -25335.8 -26617.7 -27901.9 -29188.4 -30477.3 -31768.8 -33063 -34360 -35659.8 -36962.7 -38268.7 -39577.9 -40890.5 -42206.5 -43526.2 -44849.5 -46176.7 -47507.9 -48843.1 -50182.4 -51526.2 -52874.3 -54227 -55584.4 -56946.6 -58313.7 -59685.9 -61063.4 -62446.1 -63834.4 -65228.2 -66627.8 -68033.2 -69444.7 -70862.3 -72286.3 -73716.6 -75153.6 -76597.3 -78047.9 -79505.5 -80970.2 -82442.4 -83922 -85409.2 -86904.3 -88407.3 -89918.5 -91437.9 -92965.8 -94502.3 -96047.6 -97601.8 -99165.1 -100738 -102320 -103911 -105513 -107124 -108746 -110378 -112020 -113673 -115337 -117012 -118698 -120395 -122104 -123825 -125557 -127301 -129057 -130825 -132606 -134399 -136205 -138023 -139854 -141698 -143554 -145423 -147305 -149200 -151108 -153028 -154961 -156906 -158864 -160834 -162815 -164809 -166813 -168828 -170854 -172890 -174936 -176990 -179054 -181125 -183203 -185288 -187378 -189474 -191574 -193678 -195784 -197891 -200000 0 -1259.81 -2519.73 -3779.86 -5040.3 -6301.16 -7562.54 -8824.55 -10087.3 -11350.9 -12615.4 -13881 -15147.7 -16415.7 -17685 -18955.8 -20228.2 -21502.3 -22778.2 -24056 -25335.8 -26617.7 -27901.9 -29188.4 -30477.3 -31768.8 -33063 -34359.9 -35659.8 -36962.6 -38268.6 -39577.9 -40890.4 -42206.5 -43526.2 -44849.5 -46176.7 -47507.8 -48843 -50182.4 -51526.1 -52874.2 -54226.9 -55584.3 -56946.5 -58313.7 -59685.9 -61063.3 -62446.1 -63834.3 -65228.1 -66627.7 -68033.2 -69444.6 -70862.3 -72286.2 -73716.6 -75153.5 -76597.2 -78047.8 -79505.4 -80970.2 -82442.3 -83921.9 -85409.2 -86904.2 -88407.3 -89918.4 -91437.8 -92965.7 -94502.2 -96047.5 -97601.7 -99165 -100738 -102320 -103911 -105513 -107124 -108746 -110378 -112020 -113673 -115337 -117012 -118698 -120395 -122104 -123825 -125557 -127301 -129057 -130825 -132606 -134399 -136205 -138023 -139854 -141698 -143554 -145423 -147305 -149200 -151108 -153028 -154961 -156906 -158864 -160834 -162815 -164808 -166813 -168828 -170854 -172890 -174936 -176990 -179054 -181125 -183203 -185288 -187378 -189474 -191574 -193678 -195784 -197891 -200000 0 -1259.81 -2519.73 -3779.85 -5040.29 -6301.14 -7562.52 -8824.53 -10087.3 -11350.8 -12615.4 -13880.9 -15147.7 -16415.6 -17685 -18955.8 -20228.2 -21502.3 -22778.2 -24056 -25335.8 -26617.7 -27901.8 -29188.3 -30477.2 -31768.7 -33062.9 -34359.8 -35659.7 -36962.6 -38268.5 -39577.8 -40890.4 -42206.4 -43526.1 -44849.4 -46176.6 -47507.7 -48842.9 -50182.3 -51526 -52874.1 -54226.8 -55584.2 -56946.4 -58313.5 -59685.8 -61063.2 -62445.9 -63834.2 -65228 -66627.6 -68033 -69444.5 -70862.1 -72286 -73716.4 -75153.3 -76597 -78047.6 -79505.2 -80970 -82442.1 -83921.7 -85409 -86904 -88407 -89918.2 -91437.6 -92965.5 -94502 -96047.2 -97601.5 -99164.8 -100737 -102319 -103911 -105513 -107124 -108746 -110378 -112020 -113673 -115337 -117012 -118698 -120395 -122104 -123824 -125556 -127301 -129057 -130825 -132606 -134399 -136204 -138023 -139854 -141697 -143554 -145423 -147305 -149200 -151107 -153028 -154961 -156906 -158864 -160833 -162815 -164808 -166813 -168828 -170854 -172890 -174935 -176990 -179053 -181124 -183203 -185288 -187378 -189474 -191574 -193678 -195784 -197891 -200000 0 -1259.81 -2519.72 -3779.84 -5040.27 -6301.12 -7562.49 -8824.5 -10087.2 -11350.8 -12615.3 -13880.9 -15147.6 -16415.6 -17684.9 -18955.7 -20228.1 -21502.2 -22778.1 -24055.9 -25335.7 -26617.6 -27901.7 -29188.2 -30477.1 -31768.6 -33062.8 -34359.7 -35659.6 -36962.4 -38268.4 -39577.6 -40890.2 -42206.3 -43525.9 -44849.2 -46176.4 -47507.5 -48842.7 -50182.1 -51525.8 -52873.9 -54226.6 -55584 -56946.2 -58313.3 -59685.5 -61062.9 -62445.7 -63833.9 -65227.7 -66627.3 -68032.7 -69444.2 -70861.8 -72285.7 -73716.1 -75153 -76596.7 -78047.3 -79504.9 -80969.7 -82441.8 -83921.4 -85408.6 -86903.7 -88406.7 -89917.8 -91437.2 -92965.1 -94501.6 -96046.8 -97601.1 -99164.4 -100737 -102319 -103911 -105512 -107124 -108745 -110377 -112019 -113673 -115336 -117011 -118697 -120395 -122103 -123824 -125556 -127300 -129056 -130825 -132605 -134398 -136204 -138022 -139853 -141697 -143553 -145422 -147304 -149199 -151107 -153027 -154960 -156905 -158863 -160833 -162814 -164808 -166812 -168827 -170853 -172889 -174935 -176990 -179053 -181124 -183202 -185287 -187378 -189474 -191574 -193677 -195783 -197891 -200000 0 -1259.8 -2519.7 -3779.82 -5040.24 -6301.09 -7562.46 -8824.45 -10087.2 -11350.7 -12615.2 -13880.8 -15147.5 -16415.5 -17684.8 -18955.6 -20228 -21502.1 -22778 -24055.7 -25335.5 -26617.4 -27901.6 -29188 -30477 -31768.4 -33062.6 -34359.5 -35659.4 -36962.2 -38268.2 -39577.4 -40890 -42206 -43525.7 -44849 -46176.2 -47507.3 -48842.5 -50181.8 -51525.5 -52873.6 -54226.3 -55583.7 -56945.9 -58313 -59685.2 -61062.6 -62445.4 -63833.6 -65227.4 -66626.9 -68032.4 -69443.8 -70861.4 -72285.3 -73715.7 -75152.6 -76596.3 -78046.8 -79504.4 -80969.2 -82441.3 -83920.9 -85408.1 -86903.2 -88406.2 -89917.3 -91436.7 -92964.6 -94501 -96046.3 -97600.5 -99163.8 -100736 -102318 -103910 -105512 -107123 -108745 -110376 -112019 -113672 -115336 -117011 -118697 -120394 -122103 -123823 -125555 -127299 -129055 -130824 -132604 -134397 -136203 -138021 -139852 -141696 -143552 -145422 -147304 -149199 -151106 -153026 -154959 -156905 -158862 -160832 -162814 -164807 -166811 -168827 -170853 -172889 -174934 -176989 -179052 -181124 -183202 -185287 -187378 -189474 -191574 -193677 -195783 -197891 -200000 0 -1259.79 -2519.69 -3779.79 -5040.21 -6301.05 -7562.41 -8824.39 -10087.1 -11350.7 -12615.2 -13880.7 -15147.4 -16415.4 -17684.7 -18955.5 -20227.9 -21502 -22777.8 -24055.6 -25335.4 -26617.3 -27901.4 -29187.8 -30476.8 -31768.2 -33062.4 -34359.3 -35659.1 -36962 -38267.9 -39577.1 -40889.7 -42205.7 -43525.4 -44848.7 -46175.9 -47507 -48842.1 -50181.5 -51525.2 -52873.3 -54225.9 -55583.3 -56945.5 -58312.6 -59684.8 -61062.2 -62444.9 -63833.1 -65226.9 -66626.5 -68031.9 -69443.3 -70860.9 -72284.8 -73715.2 -75152.1 -76595.7 -78046.3 -79503.9 -80968.6 -82440.7 -83920.3 -85407.5 -86902.5 -88405.5 -89916.6 -91436 -92963.9 -94500.3 -96045.6 -97599.8 -99163.1 -100736 -102318 -103909 -105511 -107122 -108744 -110376 -112018 -113671 -115335 -117010 -118696 -120393 -122102 -123822 -125554 -127298 -129054 -130823 -132603 -134396 -136202 -138020 -139851 -141695 -143551 -145421 -147303 -149197 -151105 -153025 -154958 -156904 -158861 -160831 -162813 -164806 -166811 -168826 -170852 -172888 -174934 -176989 -179052 -181123 -183202 -185287 -187377 -189473 -191573 -193677 -195783 -197891 -200000 0 -1259.78 -2519.67 -3779.76 -5040.17 -6301 -7562.34 -8824.32 -10087 -11350.6 -12615.1 -13880.6 -15147.3 -16415.2 -17684.6 -18955.4 -20227.7 -21501.8 -22777.6 -24055.4 -25335.1 -26617 -27901.1 -29187.6 -30476.5 -31768 -33062.1 -34359 -35658.8 -36961.7 -38267.6 -39576.8 -40889.4 -42205.4 -43525 -44848.3 -46175.5 -47506.6 -48841.7 -50181.1 -51524.7 -52872.8 -54225.5 -55582.8 -56945 -58312.1 -59684.3 -61061.7 -62444.4 -63832.6 -65226.4 -66625.9 -68031.3 -69442.7 -70860.3 -72284.2 -73714.5 -75151.4 -76595.1 -78045.6 -79503.2 -80967.9 -82440 -83919.5 -85406.7 -86901.8 -88404.7 -89915.8 -91435.2 -92963 -94499.5 -96044.7 -97598.9 -99162.1 -100735 -102317 -103908 -105510 -107121 -108743 -110375 -112017 -113670 -115334 -117009 -118694 -120392 -122101 -123821 -125553 -127297 -129053 -130822 -132602 -134395 -136201 -138019 -139850 -141694 -143550 -145419 -147301 -149196 -151104 -153024 -154957 -156903 -158860 -160830 -162812 -164805 -166809 -168825 -170851 -172887 -174933 -176988 -179051 -181122 -183201 -185286 -187377 -189473 -191573 -193677 -195783 -197891 -200000 0 -1259.77 -2519.64 -3779.73 -5040.12 -6300.93 -7562.27 -8824.24 -10086.9 -11350.5 -12614.9 -13880.5 -15147.1 -16415.1 -17684.4 -18955.2 -20227.5 -21501.6 -22777.4 -24055.2 -25334.9 -26616.8 -27900.9 -29187.3 -30476.2 -31767.7 -33061.8 -34358.7 -35658.5 -36961.3 -38267.3 -39576.4 -40889 -42205 -43524.6 -44847.9 -46175 -47506.1 -48841.2 -50180.6 -51524.2 -52872.3 -54224.9 -55582.3 -56944.4 -58311.5 -59683.7 -61061 -62443.8 -63831.9 -65225.7 -66625.2 -68030.6 -69442 -70859.6 -72283.4 -73713.8 -75150.6 -76594.3 -78044.8 -79502.3 -80967.1 -82439.1 -83918.7 -85405.8 -86900.8 -88403.8 -89914.9 -91434.2 -92962 -94498.5 -96043.7 -97597.8 -99161.1 -100734 -102316 -103907 -105509 -107120 -108742 -110373 -112016 -113669 -115332 -117007 -118693 -120390 -122099 -123820 -125552 -127296 -129052 -130820 -132601 -134394 -136199 -138018 -139848 -141692 -143549 -145418 -147300 -149195 -151102 -153023 -154956 -156901 -158859 -160829 -162810 -164804 -166808 -168824 -170850 -172886 -174932 -176987 -179050 -181122 -183200 -185285 -187376 -189472 -191573 -193676 -195783 -197891 -200000 0 -1259.76 -2519.61 -3779.68 -5040.07 -6300.87 -7562.19 -8824.14 -10086.8 -11350.3 -12614.8 -13880.3 -15147 -16414.9 -17684.2 -18955 -20227.3 -21501.3 -22777.2 -24054.9 -25334.6 -26616.5 -27900.6 -29187 -30475.9 -31767.3 -33061.4 -34358.3 -35658.1 -36960.9 -38266.8 -39576 -40888.5 -42204.5 -43524.1 -44847.4 -46174.5 -47505.5 -48840.7 -50180 -51523.6 -52871.7 -54224.3 -55581.6 -56943.8 -58310.8 -59683 -61060.3 -62443 -63831.2 -65224.9 -66624.4 -68029.8 -69441.2 -70858.7 -72282.6 -73712.9 -75149.8 -76593.4 -78043.8 -79501.4 -80966.1 -82438.1 -83917.6 -85404.8 -86899.8 -88402.7 -89913.8 -91433.1 -92960.9 -94497.3 -96042.5 -97596.6 -99159.8 -100732 -102314 -103906 -105507 -107119 -108740 -110372 -112014 -113667 -115331 -117006 -118692 -120389 -122098 -123818 -125550 -127294 -129050 -130818 -132599 -134392 -136198 -138016 -139847 -141690 -143547 -145416 -147298 -149193 -151101 -153021 -154954 -156899 -158857 -160827 -162809 -164802 -166807 -168822 -170848 -172885 -174931 -176986 -179049 -181121 -183199 -185285 -187376 -189472 -191572 -193676 -195783 -197891 -200000 0 -1259.74 -2519.58 -3779.64 -5040 -6300.79 -7562.09 -8824.03 -10086.7 -11350.2 -12614.6 -13880.1 -15146.8 -16414.7 -17684 -18954.7 -20227 -21501.1 -22776.9 -24054.6 -25334.3 -26616.1 -27900.2 -29186.6 -30475.5 -31766.9 -33061 -34357.9 -35657.6 -36960.4 -38266.3 -39575.5 -40888 -42204 -43523.5 -44846.8 -46173.9 -47504.9 -48840 -50179.3 -51523 -52871 -54223.6 -55580.9 -56943 -58310.1 -59682.2 -61059.5 -62442.2 -63830.3 -65224.1 -66623.5 -68028.9 -69440.3 -70857.8 -72281.6 -73711.9 -75148.7 -76592.3 -78042.8 -79500.3 -80965 -82437 -83916.5 -85403.6 -86898.6 -88401.5 -89912.5 -91431.8 -92959.6 -94496 -96041.1 -97595.2 -99158.4 -100731 -102313 -103904 -105506 -107117 -108739 -110370 -112013 -113666 -115329 -117004 -118690 -120387 -122096 -123816 -125548 -127292 -129048 -130817 -132597 -134390 -136196 -138014 -139845 -141688 -143545 -145414 -147296 -149191 -151099 -153019 -154952 -156898 -158855 -160825 -162807 -164800 -166805 -168821 -170847 -172883 -174929 -176984 -179048 -181119 -183198 -185284 -187375 -189471 -191572 -193676 -195782 -197891 -200000 0 -1259.72 -2519.55 -3779.58 -5039.93 -6300.7 -7561.99 -8823.9 -10086.6 -11350 -12614.5 -13879.9 -15146.6 -16414.5 -17683.7 -18954.5 -20226.8 -21500.8 -22776.5 -24054.2 -25333.9 -26615.8 -27899.8 -29186.2 -30475 -31766.4 -33060.5 -34357.4 -35657.1 -36959.9 -38265.8 -39574.9 -40887.4 -42203.3 -43522.9 -44846.1 -46173.2 -47504.2 -48839.3 -50178.6 -51522.2 -52870.2 -54222.8 -55580.1 -56942.2 -58309.2 -59681.3 -61058.6 -62441.3 -63829.4 -65223.1 -66622.5 -68027.9 -69439.2 -70856.7 -72280.5 -73710.8 -75147.6 -76591.2 -78041.6 -79499.1 -80963.7 -82435.7 -83915.2 -85402.3 -86897.2 -88400.1 -89911.1 -91430.4 -92958.1 -94494.5 -96039.6 -97593.7 -99156.9 -100729 -102311 -103903 -105504 -107115 -108737 -110369 -112011 -113664 -115327 -117002 -118688 -120385 -122094 -123814 -125546 -127290 -129046 -130815 -132595 -134388 -136194 -138012 -139843 -141686 -143543 -145412 -147294 -149189 -151097 -153017 -154950 -156896 -158853 -160823 -162805 -164798 -166803 -168819 -170845 -172882 -174928 -176983 -179047 -181118 -183197 -185283 -187374 -189470 -191571 -193675 -195782 -197891 -200000 0 -1259.7 -2519.51 -3779.52 -5039.85 -6300.6 -7561.87 -8823.77 -10086.4 -11349.9 -12614.3 -13879.7 -15146.3 -16414.2 -17683.4 -18954.2 -20226.4 -21500.4 -22776.2 -24053.9 -25333.5 -26615.3 -27899.4 -29185.8 -30474.6 -31765.9 -33060 -34356.8 -35656.6 -36959.3 -38265.2 -39574.3 -40886.7 -42202.7 -43522.2 -44845.4 -46172.5 -47503.5 -48838.6 -50177.8 -51521.4 -52869.4 -54221.9 -55579.2 -56941.3 -58308.3 -59680.4 -61057.6 -62440.3 -63828.3 -65222 -66621.5 -68026.8 -69438.1 -70855.6 -72279.3 -73709.5 -75146.3 -76589.9 -78040.3 -79497.7 -80962.4 -82434.3 -83913.8 -85400.9 -86895.7 -88398.6 -89909.6 -91428.8 -92956.5 -94492.8 -96037.9 -97592 -99155.1 -100728 -102309 -103901 -105502 -107114 -108735 -110367 -112009 -113662 -115325 -117000 -118686 -120383 -122092 -123812 -125544 -127288 -129044 -130812 -132593 -134386 -136191 -138009 -139840 -141684 -143540 -145410 -147292 -149187 -151094 -153015 -154948 -156893 -158851 -160821 -162803 -164796 -166801 -168817 -170843 -172880 -174926 -176981 -179045 -181117 -183196 -185282 -187373 -189470 -191570 -193675 -195782 -197890 -200000 0 -1259.68 -2519.47 -3779.46 -5039.77 -6300.49 -7561.74 -8823.62 -10086.2 -11349.7 -12614.1 -13879.5 -15146.1 -16413.9 -17683.1 -18953.8 -20226.1 -21500.1 -22775.8 -24053.5 -25333.1 -26614.9 -27898.9 -29185.2 -30474 -31765.4 -33059.4 -34356.2 -35656 -36958.7 -38264.5 -39573.6 -40886 -42201.9 -43521.4 -44844.6 -46171.7 -47502.7 -48837.7 -50176.9 -51520.5 -52868.5 -54221 -55578.2 -56940.3 -58307.2 -59679.3 -61056.5 -62439.1 -63827.2 -65220.9 -66620.2 -68025.5 -69436.8 -70854.3 -72278 -73708.2 -75145 -76588.5 -78038.9 -79496.3 -80960.9 -82432.8 -83912.2 -85399.3 -86894.1 -88396.9 -89907.9 -91427.1 -92954.8 -94491.1 -96036.1 -97590.1 -99153.2 -100726 -102307 -103899 -105500 -107111 -108733 -110365 -112007 -113660 -115323 -116998 -118684 -120381 -122089 -123810 -125542 -127286 -129042 -130810 -132590 -134383 -136189 -138007 -139838 -141681 -143538 -145407 -147289 -149184 -151092 -153012 -154945 -156891 -158849 -160819 -162801 -164794 -166799 -168815 -170841 -172878 -174924 -176980 -179043 -181115 -183195 -185280 -187372 -189469 -191570 -193674 -195781 -197890 -200000 0 -1259.66 -2519.42 -3779.39 -5039.67 -6300.38 -7561.6 -8823.45 -10086 -11349.5 -12613.8 -13879.2 -15145.8 -16413.6 -17682.8 -18953.5 -20225.7 -21499.7 -22775.4 -24053 -25332.6 -26614.4 -27898.4 -29184.7 -30473.5 -31764.8 -33058.8 -34355.6 -35655.3 -36958 -38263.8 -39572.9 -40885.3 -42201.1 -43520.6 -44843.8 -46170.8 -47501.8 -48836.8 -50176 -51519.5 -52867.4 -54219.9 -55577.1 -56939.2 -58306.1 -59678.1 -61055.4 -62437.9 -63825.9 -65219.6 -66618.9 -68024.2 -69435.4 -70852.9 -72276.6 -73706.7 -75143.5 -76586.9 -78037.3 -79494.7 -80959.2 -82431.1 -83910.5 -85397.5 -86892.3 -88395.1 -89906 -91425.2 -92952.9 -94489.1 -96034.1 -97588.1 -99151.2 -100724 -102305 -103897 -105498 -107109 -108731 -110362 -112004 -113657 -115321 -116995 -118681 -120378 -122087 -123807 -125539 -127283 -129039 -130807 -132588 -134380 -136186 -138004 -139835 -141678 -143535 -145404 -147286 -149181 -151089 -153009 -154942 -156888 -158846 -160816 -162798 -164792 -166797 -168812 -170839 -172876 -174922 -176978 -179042 -181114 -183193 -185279 -187371 -189468 -191569 -193674 -195781 -197890 -200000 0 -1259.63 -2519.37 -3779.32 -5039.57 -6300.25 -7561.45 -8823.28 -10085.8 -11349.2 -12613.6 -13879 -15145.5 -16413.3 -17682.5 -18953.1 -20225.3 -21499.2 -22774.9 -24052.5 -25332.1 -26613.9 -27897.8 -29184.1 -30472.9 -31764.2 -33058.1 -34354.9 -35654.6 -36957.2 -38263 -39572 -40884.4 -42200.3 -43519.7 -44842.9 -46169.9 -47500.8 -48835.8 -50174.9 -51518.4 -52866.3 -54218.8 -55576 -56938 -58304.9 -59676.9 -61054.1 -62436.6 -63824.6 -65218.2 -66617.5 -68022.7 -69434 -70851.4 -72275 -73705.1 -75141.9 -76585.3 -78035.6 -79492.9 -80957.5 -82429.3 -83908.7 -85395.7 -86890.4 -88393.2 -89904.1 -91423.2 -92950.8 -94487 -96032 -97585.9 -99148.9 -100721 -102303 -103894 -105496 -107107 -108728 -110360 -112002 -113655 -115318 -116993 -118678 -120375 -122084 -123804 -125536 -127280 -129036 -130804 -132585 -134377 -136183 -138001 -139832 -141675 -143532 -145401 -147283 -149178 -151086 -153006 -154939 -156885 -158843 -160813 -162795 -164789 -166794 -168810 -170837 -172873 -174920 -176976 -179040 -181112 -183192 -185278 -187370 -189467 -191568 -193673 -195781 -197890 -200000 0 -1259.61 -2519.32 -3779.23 -5039.47 -6300.12 -7561.29 -8823.09 -10085.6 -11349 -12613.3 -13878.7 -15145.2 -16412.9 -17682.1 -18952.7 -20224.9 -21498.8 -22774.4 -24052 -25331.6 -26613.3 -27897.2 -29183.5 -30472.2 -31763.5 -33057.4 -34354.2 -35653.8 -36956.4 -38262.2 -39571.2 -40883.5 -42199.4 -43518.8 -44841.9 -46168.8 -47499.7 -48834.7 -50173.8 -51517.3 -52865.2 -54217.6 -55574.7 -56936.7 -58303.6 -59675.5 -61052.7 -62435.2 -63823.2 -65216.7 -66616 -68021.2 -69432.4 -70849.7 -72273.4 -73703.5 -75140.1 -76583.5 -78033.8 -79491.1 -80955.6 -82427.4 -83906.7 -85393.6 -86888.4 -88391.1 -89901.9 -91421 -92948.6 -94484.7 -96029.7 -97583.6 -99146.5 -100719 -102301 -103892 -105493 -107104 -108725 -110357 -111999 -113652 -115315 -116990 -118675 -120372 -122081 -123801 -125533 -127277 -129033 -130801 -132581 -134374 -136180 -137998 -139829 -141672 -143529 -145398 -147280 -149175 -151083 -153003 -154936 -156882 -158840 -160810 -162792 -164786 -166791 -168807 -170834 -172871 -174918 -176973 -179038 -181110 -183190 -185276 -187368 -189466 -191567 -193672 -195780 -197890 -200000 0 -1259.58 -2519.26 -3779.15 -5039.35 -6299.97 -7561.12 -8822.89 -10085.4 -11348.7 -12613 -13878.3 -15144.8 -16412.6 -17681.7 -18952.3 -20224.4 -21498.3 -22773.9 -24051.5 -25331 -26612.7 -27896.6 -29182.8 -30471.5 -31762.7 -33056.7 -34353.4 -35653 -36955.6 -38261.3 -39570.3 -40882.6 -42198.4 -43517.8 -44840.8 -46167.7 -47498.6 -48833.5 -50172.6 -51516.1 -52863.9 -54216.3 -55573.4 -56935.3 -58302.2 -59674.1 -61051.2 -62433.7 -63821.6 -65215.1 -66614.4 -68019.5 -69430.7 -70848 -72271.6 -73701.6 -75138.3 -76581.6 -78031.9 -79489.1 -80953.6 -82425.3 -83904.6 -85391.5 -86886.2 -88388.9 -89899.6 -91418.7 -92946.2 -94482.3 -96027.2 -97581 -99144 -100716 -102298 -103889 -105490 -107101 -108723 -110354 -111996 -113649 -115312 -116987 -118672 -120369 -122078 -123798 -125530 -127274 -129029 -130797 -132578 -134371 -136176 -137994 -139825 -141669 -143525 -145394 -147276 -149171 -151079 -153000 -154933 -156878 -158837 -160807 -162789 -164783 -166788 -168804 -170831 -172868 -174915 -176971 -179036 -181108 -183188 -185275 -187367 -189464 -191566 -193672 -195780 -197889 -200000 0 -1259.55 -2519.2 -3779.06 -5039.23 -6299.82 -7560.93 -8822.67 -10085.1 -11348.5 -12612.7 -13878 -15144.5 -16412.2 -17681.2 -18951.8 -20223.9 -21497.7 -22773.4 -24050.9 -25330.4 -26612 -27895.9 -29182.1 -30470.7 -31762 -33055.8 -34352.5 -35652.1 -36954.6 -38260.3 -39569.3 -40881.6 -42197.3 -43516.7 -44839.7 -46166.6 -47497.4 -48832.3 -50171.4 -51514.8 -52862.6 -54214.9 -55572 -56933.9 -58300.7 -59672.6 -61049.7 -62432.1 -63820 -65213.5 -66612.7 -68017.8 -69428.9 -70846.1 -72269.7 -73699.7 -75136.3 -76579.6 -78029.8 -79487 -80951.4 -82423.1 -83902.3 -85389.2 -86883.9 -88386.5 -89897.2 -91416.2 -92943.7 -94479.7 -96024.6 -97578.4 -99141.3 -100713 -102295 -103886 -105487 -107098 -108720 -110351 -111993 -113646 -115309 -116983 -118669 -120366 -122074 -123794 -125526 -127270 -129026 -130794 -132574 -134367 -136172 -137991 -139821 -141665 -143521 -145390 -147273 -149168 -151075 -152996 -154929 -156875 -158833 -160803 -162786 -164780 -166785 -168801 -170828 -172865 -174912 -176969 -179033 -181106 -183186 -185273 -187365 -189463 -191565 -193671 -195779 -197889 -200000 0 -1259.51 -2519.13 -3778.96 -5039.1 -6299.66 -7560.74 -8822.45 -10084.9 -11348.2 -12612.4 -13877.6 -15144.1 -16411.7 -17680.8 -18951.3 -20223.4 -21497.2 -22772.8 -24050.2 -25329.7 -26611.3 -27895.2 -29181.3 -30469.9 -31761.1 -33055 -34351.6 -35651.1 -36953.7 -38259.3 -39568.2 -40880.5 -42196.2 -43515.5 -44838.5 -46165.4 -47496.1 -48831 -50170 -51513.4 -52861.2 -54213.5 -55570.5 -56932.3 -58299.1 -59671 -61048 -62430.4 -63818.2 -65211.7 -66610.8 -68015.9 -69427 -70844.2 -72267.7 -73697.7 -75134.2 -76577.5 -78027.6 -79484.8 -80949.1 -82420.8 -83900 -85386.8 -86881.4 -88383.9 -89894.6 -91413.6 -92941 -94477 -96021.8 -97575.5 -99138.4 -100711 -102292 -103883 -105484 -107095 -108716 -110348 -111990 -113642 -115306 -116980 -118666 -120362 -122071 -123791 -125522 -127266 -129022 -130790 -132570 -134363 -136169 -137987 -139817 -141661 -143517 -145386 -147269 -149164 -151071 -152992 -154925 -156871 -158829 -160800 -162782 -164776 -166781 -168798 -170825 -172862 -174910 -176966 -179031 -181104 -183184 -185271 -187364 -189462 -191564 -193670 -195779 -197889 -200000 0 -1259.48 -2519.06 -3778.86 -5038.96 -6299.49 -7560.53 -8822.2 -10084.6 -11347.9 -12612 -13877.3 -15143.7 -16411.3 -17680.3 -18950.8 -20222.8 -21496.6 -22772.1 -24049.6 -25329 -26610.6 -27894.4 -29180.5 -30469.1 -31760.2 -33054.1 -34350.7 -35650.1 -36952.6 -38258.3 -39567.1 -40879.3 -42195 -43514.3 -44837.3 -46164.1 -47494.8 -48829.6 -50168.6 -51511.9 -52859.7 -54211.9 -55568.9 -56930.7 -58297.5 -59669.3 -61046.3 -62428.6 -63816.4 -65209.8 -66608.9 -68013.9 -69424.9 -70842.1 -72265.6 -73695.5 -75132 -76575.2 -78025.3 -79482.4 -80946.7 -82418.3 -83897.5 -85384.2 -86878.8 -88381.3 -89891.9 -91410.8 -92938.2 -94474.1 -96018.9 -97572.5 -99135.3 -100707 -102289 -103880 -105481 -107092 -108713 -110344 -111986 -113639 -115302 -116976 -118662 -120359 -122067 -123787 -125519 -127262 -129018 -130786 -132566 -134359 -136164 -137982 -139813 -141657 -143513 -145382 -147264 -149159 -151067 -152988 -154921 -156867 -158825 -160796 -162778 -164772 -166778 -168794 -170822 -172859 -174907 -176963 -179028 -181101 -183182 -185269 -187362 -189461 -191563 -193669 -195778 -197889 -200000 0 -1259.44 -2518.99 -3778.75 -5038.82 -6299.3 -7560.31 -8821.95 -10084.3 -11347.5 -12611.7 -13876.9 -15143.2 -16410.8 -17679.8 -18950.2 -20222.3 -21496 -22771.5 -24048.9 -25328.3 -26609.8 -27893.6 -29179.7 -30468.2 -31759.3 -33053.1 -34349.7 -35649.1 -36951.6 -38257.1 -39566 -40878.1 -42193.8 -43513 -44835.9 -46162.7 -47493.4 -48828.2 -50167.1 -51510.4 -52858.1 -54210.3 -55567.3 -56929 -58295.7 -59667.4 -61044.4 -62426.7 -63814.4 -65207.8 -66606.9 -68011.8 -69422.8 -70839.9 -72263.3 -73693.2 -75129.6 -76572.8 -78022.9 -79479.9 -80944.2 -82415.7 -83894.8 -85381.5 -86876 -88378.5 -89889 -91407.9 -92935.2 -94471.1 -96015.8 -97569.4 -99132.1 -100704 -102286 -103877 -105478 -107088 -108709 -110341 -111982 -113635 -115298 -116972 -118658 -120355 -122063 -123783 -125514 -127258 -129014 -130782 -132562 -134355 -136160 -137978 -139809 -141652 -143509 -145378 -147260 -149155 -151063 -152983 -154917 -156863 -158821 -160792 -162774 -164768 -166774 -168791 -170818 -172856 -174903 -176960 -179025 -181099 -183180 -185267 -187360 -189459 -191562 -193668 -195777 -197888 -200000 0 -1259.41 -2518.91 -3778.63 -5038.66 -6299.11 -7560.09 -8821.68 -10084 -11347.2 -12611.3 -13876.4 -15142.8 -16410.3 -17679.3 -18949.7 -20221.6 -21495.3 -22770.8 -24048.1 -25327.5 -26609 -27892.7 -29178.8 -30467.3 -31758.3 -33052.1 -34348.6 -35648 -36950.4 -38256 -39564.7 -40876.9 -42192.5 -43511.7 -44834.5 -46161.3 -47491.9 -48826.6 -50165.5 -51508.8 -52856.4 -54208.6 -55565.5 -56927.2 -58293.8 -59665.6 -61042.5 -62424.7 -63812.4 -65205.7 -66604.7 -68009.6 -69420.6 -70837.6 -72261 -73690.8 -75127.2 -76570.3 -78020.3 -79477.3 -80941.5 -82413 -83892 -85378.7 -86873.1 -88375.5 -89886 -91404.8 -92932 -94467.9 -96012.5 -97566.1 -99128.7 -100701 -102282 -103873 -105474 -107085 -108706 -110337 -111979 -113631 -115294 -116968 -118654 -120350 -122059 -123778 -125510 -127254 -129009 -130777 -132557 -134350 -136155 -137973 -139804 -141648 -143504 -145373 -147255 -149150 -151058 -152979 -154912 -156858 -158817 -160787 -162770 -164764 -166770 -168787 -170815 -172852 -174900 -176957 -179023 -181096 -183177 -185265 -187359 -189457 -191561 -193667 -195777 -197888 -200000 0 -1259.37 -2518.83 -3778.51 -5038.5 -6298.91 -7559.85 -8821.4 -10083.7 -11346.8 -12610.9 -13876 -15142.3 -16409.8 -17678.7 -18949.1 -20221 -21494.6 -22770.1 -24047.4 -25326.7 -26608.2 -27891.8 -29177.8 -30466.3 -31757.3 -33051 -34347.5 -35646.9 -36949.2 -38254.7 -39563.5 -40875.5 -42191.1 -43510.2 -44833.1 -46159.8 -47490.4 -48825 -50163.9 -51507.1 -52854.7 -54206.8 -55563.7 -56925.3 -58291.9 -59663.6 -61040.4 -62422.6 -63810.3 -65203.5 -66602.5 -68007.3 -69418.2 -70835.2 -72258.5 -73688.3 -75124.6 -76567.7 -78017.6 -79474.6 -80938.7 -82410.2 -83889.1 -85375.7 -86870.1 -88372.4 -89882.8 -91401.6 -92928.7 -94464.5 -96009.1 -97562.6 -99125.2 -100697 -102278 -103869 -105470 -107081 -108702 -110333 -111975 -113627 -115290 -116964 -118649 -120346 -122054 -123774 -125506 -127249 -129005 -130773 -132553 -134345 -136151 -137968 -139799 -141643 -143499 -145368 -147250 -149145 -151053 -152974 -154907 -156853 -158812 -160783 -162765 -164760 -166766 -168783 -170811 -172849 -174897 -176954 -179020 -181093 -183175 -185263 -187357 -189456 -191559 -193666 -195776 -197888 -200000 0 -1259.32 -2518.75 -3778.39 -5038.34 -6298.7 -7559.59 -8821.11 -10083.4 -11346.4 -12610.5 -13875.5 -15141.8 -16409.3 -17678.1 -18948.4 -20220.3 -21493.9 -22769.3 -24046.6 -25325.9 -26607.3 -27890.9 -29176.9 -30465.3 -31756.3 -33049.9 -34346.3 -35645.7 -36948 -38253.4 -39562.1 -40874.2 -42189.7 -43508.8 -44831.6 -46158.2 -47488.7 -48823.4 -50162.2 -51505.3 -52852.8 -54205 -55561.7 -56923.3 -58289.9 -59661.5 -61038.3 -62420.4 -63808 -65201.2 -66600.1 -68004.9 -69415.7 -70832.7 -72256 -73685.7 -75121.9 -76564.9 -78014.8 -79471.7 -80935.8 -82407.2 -83886 -85372.6 -86866.9 -88369.1 -89879.5 -91398.2 -92925.3 -94461 -96005.5 -97558.9 -99121.5 -100693 -102275 -103865 -105466 -107077 -108698 -110329 -111970 -113623 -115286 -116960 -118645 -120341 -122050 -123769 -125501 -127244 -129000 -130768 -132548 -134340 -136146 -137963 -139794 -141637 -143494 -145363 -147245 -149140 -151048 -152969 -154902 -156849 -158807 -160778 -162761 -164755 -166761 -168779 -170807 -172845 -174893 -176950 -179016 -181090 -183172 -185260 -187355 -189454 -191558 -193665 -195775 -197887 -200000 0 -1259.28 -2518.66 -3778.26 -5038.16 -6298.49 -7559.33 -8820.8 -10083 -11346 -12610 -13875.1 -15141.2 -16408.7 -17677.5 -18947.8 -20219.6 -21493.2 -22768.5 -24045.7 -25325 -26606.3 -27889.9 -29175.8 -30464.2 -31755.1 -33048.7 -34345.1 -35644.4 -36946.7 -38252.1 -39560.7 -40872.7 -42188.2 -43507.2 -44830 -46156.5 -47487 -48821.6 -50160.4 -51503.4 -52850.9 -54203 -55559.7 -56921.3 -58287.8 -59659.3 -61036.1 -62418.1 -63805.7 -65198.8 -66597.7 -68002.4 -69413.2 -70830.1 -72253.3 -73682.9 -75119.1 -76562 -78011.9 -79468.7 -80932.7 -82404 -83882.8 -85369.3 -86863.6 -88365.8 -89876.1 -91394.7 -92921.7 -94457.3 -96001.8 -97555.1 -99117.6 -100689 -102271 -103861 -105462 -107073 -108693 -110324 -111966 -113618 -115281 -116955 -118640 -120337 -122045 -123764 -125496 -127239 -128995 -130762 -132543 -134335 -136140 -137958 -139789 -141632 -143488 -145358 -147240 -149135 -151043 -152964 -154897 -156843 -158802 -160773 -162756 -164751 -166757 -168774 -170802 -172841 -174889 -176947 -179013 -181087 -183169 -185258 -187352 -189452 -191556 -193664 -195775 -197887 -200000 0 -1259.23 -2518.57 -3778.12 -5037.98 -6298.26 -7559.06 -8820.49 -10082.6 -11345.6 -12609.6 -13874.6 -15140.7 -16408.1 -17676.9 -18947.1 -20218.9 -21492.4 -22767.7 -24044.9 -25324.1 -26605.4 -27888.9 -29174.8 -30463.1 -31754 -33047.5 -34343.9 -35643.1 -36945.3 -38250.7 -39559.3 -40871.2 -42186.6 -43505.6 -44828.3 -46154.8 -47485.3 -48819.8 -50158.5 -51501.5 -52849 -54201 -55557.6 -56919.1 -58285.6 -59657 -61033.7 -62415.8 -63803.2 -65196.3 -66595.1 -67999.8 -69410.5 -70827.3 -72250.5 -73680 -75116.2 -76559 -78008.8 -79465.6 -80929.5 -82400.8 -83879.5 -85365.9 -86860.1 -88362.2 -89872.5 -91391 -92918 -94453.5 -95997.9 -97551.2 -99113.5 -100685 -102266 -103857 -105458 -107068 -108689 -110320 -111961 -113613 -115276 -116950 -118635 -120332 -122040 -123759 -125491 -127234 -128989 -130757 -132537 -134330 -136135 -137953 -139783 -141627 -143483 -145352 -147234 -149129 -151037 -152958 -154892 -156838 -158797 -160768 -162751 -164746 -166752 -168770 -170798 -172837 -174885 -176943 -179010 -181084 -183166 -185255 -187350 -189450 -191555 -193663 -195774 -197886 -200000 0 -1259.19 -2518.48 -3777.98 -5037.79 -6298.02 -7558.77 -8820.15 -10082.3 -11345.2 -12609.1 -13874 -15140.1 -16407.5 -17676.2 -18946.4 -20218.1 -21491.6 -22766.8 -24043.9 -25323.1 -26604.4 -27887.8 -29173.7 -30461.9 -31752.8 -33046.3 -34342.5 -35641.7 -36943.9 -38249.2 -39557.7 -40869.6 -42185 -43503.9 -44826.6 -46153 -47483.4 -48817.9 -50156.5 -51499.5 -52846.9 -54198.8 -55555.5 -56916.9 -58283.3 -59654.7 -61031.3 -62413.3 -63800.7 -65193.7 -66592.5 -67997.1 -69407.7 -70824.5 -72247.5 -73677 -75113.1 -76555.9 -78005.6 -79462.3 -80926.2 -82397.4 -83876.1 -85362.4 -86856.5 -88358.5 -89868.7 -91387.2 -92914.1 -94449.5 -95993.8 -97547 -99109.3 -100681 -102262 -103853 -105453 -107064 -108684 -110315 -111956 -113608 -115271 -116945 -118630 -120326 -122034 -123754 -125485 -127228 -128984 -130751 -132531 -134324 -136129 -137947 -139777 -141621 -143477 -145346 -147228 -149124 -151032 -152952 -154886 -156832 -158791 -160762 -162745 -164740 -166747 -168765 -170793 -172832 -174881 -176939 -179006 -181081 -183163 -185253 -187348 -189448 -191553 -193662 -195773 -197886 -200000 0 -1259.14 -2518.38 -3777.83 -5037.59 -6297.78 -7558.48 -8819.81 -10081.9 -11344.8 -12608.6 -13873.5 -15139.5 -16406.8 -17675.5 -18945.6 -20217.3 -21490.7 -22765.9 -24043 -25322.1 -26603.3 -27886.7 -29172.5 -30460.7 -31751.5 -33045 -34341.2 -35640.3 -36942.4 -38247.7 -39556.2 -40868 -42183.3 -43502.2 -44824.8 -46151.2 -47481.5 -48815.9 -50154.5 -51497.4 -52844.7 -54196.6 -55553.2 -56914.6 -58280.9 -59652.2 -61028.8 -62410.7 -63798.1 -65191 -66589.7 -67994.2 -69404.8 -70821.5 -72244.5 -73673.9 -75110 -76552.7 -78002.3 -79458.9 -80922.7 -82393.8 -83872.5 -85358.7 -86852.7 -88354.7 -89864.8 -91383.2 -92910 -94445.4 -95989.6 -97542.7 -99105 -100676 -102257 -103848 -105448