<?xml version="1.0"?> 
<VTKFile type="StructuredGrid" version="0.1"> 
<StructuredGrid WholeExtent="0 127 0 127 0 0"> 
<Piece Extent="0 127 0 127 0 0"> 
<PointData>
<DataArray type="Float32" Name="u" format="ascii" NumberOfComponents="1"> 
-200000 -195737 -191414 -187129 -182920 -178809 -174803 -170908 -167122 -163445 -159872 -156401 -153027 -149747 -146556 -143450 -140425 -137479 -134607 -131807 -129075 -126408 -123804 -121261 -118775 -116346 -113970 -111646 -109372 -107147 -104968 -102834 -100744 -98696.7 -96690.2 -94723.5 -92795.4 -90904.9 -89050.9 -87232.3 -85448.2 -83697.7 -81979.9 -80293.8 -78638.8 -77013.9 -75418.4 -73851.7 -72312.9 -70801.4 -69316.5 -67857.6 -66424 -65015.2 -63630.6 -62269.5 -60931.4 -59615.7 -58322.1 -57049.8 -55798.5 -54567.5 -53356.6 -52165.1 -50992.6 -49838.6 -48702.8 -47584.7 -46483.8 -45399.8 -44332.2 -43280.6 -42244.7 -41224.1 -40218.3 -39227.1 -38250 -37286.7 -36336.8 -35400 -34476 -33564.3 -32664.7 -31776.9 -30900.4 -30035.1 -29180.6 -28336.5 -27502.6 -26678.6 -25864.2 -25059 -24262.8 -23475.4 -22696.3 -21925.4 -21162.3 -20406.8 -19658.7 -18917.5 -18183.2 -17455.3 -16733.8 -16018.2 -15308.3 -14603.9 -13904.8 -13210.6 -12521.2 -11836.2 -11155.5 -10478.8 -9805.84 -9136.38 -8470.19 -7807.03 -7146.66 -6488.86 -5833.37 -5179.97 -4528.43 -3878.51 -3229.97 -2582.59 -1936.13 -1290.37 -645.07 0 -200000 -195688 -191331 -187018 -182787 -178656 -174634 -170724 -166926 -163238 -159656 -156176 -152794 -149507 -146310 -143199 -140169 -137219 -134343 -131539 -128804 -126135 -123529 -120984 -118497 -116066 -113689 -111364 -109090 -106864 -104685 -102551 -100461 -98413.9 -96407.9 -94441.9 -92514.6 -90625.1 -88772.1 -86954.8 -85172.1 -83423 -81706.7 -80022.4 -78369.1 -76746.1 -75152.6 -73587.9 -72051.2 -70541.9 -69059.3 -67602.7 -66171.6 -64765.2 -63383.1 -62024.5 -60689.1 -59376.1 -58085.2 -56815.7 -55567.1 -54339 -53130.9 -51942.3 -50772.8 -49621.8 -48489 -47373.9 -46276 -45195.1 -44130.6 -43082.1 -42049.4 -41031.9 -40029.3 -39041.2 -38067.3 -37107.2 -36160.5 -35227 -34306.1 -33397.7 -32501.4 -31616.8 -30743.7 -29881.7 -29030.4 -28189.7 -27359.1 -26538.4 -25727.3 -24925.5 -24132.7 -23348.6 -22572.9 -21805.4 -21045.7 -20293.6 -19548.9 -18811.2 -18080.3 -17356 -16637.9 -15925.8 -15219.4 -14518.6 -13823 -13132.4 -12446.6 -11765.3 -11088.2 -10415.2 -9745.9 -9080.17 -8417.74 -7758.38 -7101.84 -6447.9 -5796.31 -5146.85 -4499.29 -3853.38 -3208.91 -2565.64 -1923.35 -1281.79 -640.754 0 -200000 -195639 -191248 -186908 -182654 -178504 -174466 -170541 -166731 -163031 -159439 -155951 -152562 -149268 -146065 -142948 -139914 -136959 -134080 -131273 -128535 -125863 -123254 -120707 -118219 -115786 -113408 -111083 -108808 -106581 -104402 -102268 -100179 -98131.8 -96126.2 -94160.9 -92234.5 -90345.9 -88494 -86677.9 -84896.5 -83148.9 -81434.2 -79751.5 -78099.9 -76478.8 -74887.2 -73324.5 -71790 -70282.9 -68802.5 -67348.3 -65919.5 -64515.6 -63135.9 -61780 -60447.1 -59136.8 -57848.6 -56581.8 -55336.1 -54110.8 -52905.6 -51719.9 -50553.2 -49405.2 -48275.4 -47163.2 -46068.5 -44990.5 -43929.1 -42883.8 -41854.1 -40839.8 -39840.3 -38855.4 -37884.7 -36927.7 -35984.3 -35053.9 -34136.3 -33231.2 -32338.1 -31456.8 -30586.9 -29728.2 -28880.2 -28042.8 -27215.5 -26398.2 -25590.4 -24791.9 -24002.4 -23221.7 -22449.4 -21685.2 -20929 -20180.3 -19439 -18704.8 -17977.3 -17256.4 -16541.8 -15833.2 -15130.4 -14433.1 -13741.1 -13054.1 -12371.9 -11694.2 -11020.8 -10351.4 -9685.85 -9023.86 -8365.2 -7709.63 -7056.93 -6406.85 -5759.17 -5113.66 -4470.08 -3828.2 -3187.81 -2548.66 -1910.53 -1273.19 -636.427 0 -200000 -195591 -191166 -186799 -182522 -178352 -174297 -170359 -166536 -162825 -159224 -155727 -152330 -149029 -145820 -142698 -139659 -136700 -133817 -131006 -128265 -125591 -122981 -120431 -117941 -115508 -113128 -110802 -108526 -106299 -104120 -101986 -99896.8 -97850.3 -95845.3 -93880.5 -91954.9 -90067.3 -88216.5 -86401.6 -84621.5 -82875.3 -81162.2 -79481.1 -77831.3 -76212 -74622.4 -73061.7 -71529.3 -70024.3 -68546.2 -67094.3 -65667.9 -64266.4 -62889.2 -61535.8 -60205.5 -58897.9 -57612.3 -56348.3 -55105.3 -53882.9 -52680.5 -51497.6 -50333.9 -49188.8 -48061.9 -46952.8 -45861 -44786.2 -43727.8 -42685.5 -41659 -40647.7 -39651.4 -38669.6 -37702.1 -36748.3 -35808.1 -34880.9 -33966.5 -33064.6 -32174.8 -31296.7 -30430.1 -29574.6 -28730 -27895.8 -27071.8 -26257.8 -25453.3 -24658.2 -23872.1 -23094.7 -22325.8 -21565 -20812.1 -20066.9 -19329 -18598.2 -17874.2 -17156.8 -16445.6 -15740.6 -15041.3 -14347.5 -13659.1 -12975.6 -12297 -11623 -10953.2 -10287.5 -9625.68 -8967.43 -8312.54 -7660.79 -7011.92 -6365.72 -5721.96 -5080.39 -4440.81 -3802.97 -3166.66 -2531.63 -1897.68 -1264.58 -632.09 0 -200000 -195544 -191084 -186689 -182390 -178201 -174130 -170177 -166341 -162620 -159009 -155503 -152099 -148792 -145576 -142449 -139405 -136442 -133555 -130741 -127997 -125320 -122707 -120156 -117664 -115229 -112849 -110522 -108246 -106018 -103839 -101705 -99615.7 -97569.4 -95564.9 -93600.9 -91676 -89789.3 -87939.6 -86125.9 -84347.1 -82602.4 -80890.8 -79211.3 -77563.3 -75945.8 -74358.1 -72799.4 -71269 -69766.3 -68290.4 -66840.7 -65416.7 -64017.6 -62642.9 -61292 -59964.3 -58659.3 -57376.4 -56115.1 -54874.8 -53655.2 -52455.6 -51275.6 -50114.8 -48972.6 -47848.7 -46742.6 -45653.8 -44581.9 -43526.6 -42487.4 -41463.9 -40455.8 -39462.6 -38483.9 -37519.5 -36569 -35631.9 -34707.9 -33796.7 -32898 -32011.4 -31136.6 -30273.2 -29421 -28579.6 -27748.7 -26928.1 -26117.3 -25316.2 -24524.4 -23741.6 -22967.6 -22202 -21444.6 -20695.2 -19953.3 -19218.8 -18491.5 -17770.9 -17057 -16349.3 -15647.8 -14952 -14261.8 -13576.9 -12897.1 -12222 -11551.6 -10885.5 -10223.5 -9565.4 -8910.9 -8259.79 -7611.84 -6966.83 -6324.51 -5684.66 -5047.06 -4411.48 -3777.68 -3145.46 -2514.57 -1884.81 -1255.94 -627.744 0 -200000 -195496 -191003 -186581 -182258 -178050 -173962 -169995 -166147 -162415 -158794 -155280 -151868 -148554 -145333 -142200 -139152 -136184 -133293 -130476 -127729 -125050 -122435 -119882 -117388 -114952 -112571 -110243 -107966 -105738 -103558 -101424 -99335.2 -97289.3 -95285.3 -93321.8 -91397.8 -89512 -87663.4 -85850.8 -84073.4 -82330 -80619.9 -78942.1 -77295.8 -75680.1 -74094.3 -72537.6 -71009.3 -69508.7 -68035 -66587.6 -65165.9 -63769.2 -62397 -61048.6 -59723.5 -58421 -57140.8 -55882.2 -54644.7 -53427.8 -52231 -51053.9 -49895.9 -48756.7 -47635.7 -46532.5 -45446.7 -44377.8 -43325.5 -42289.4 -41269 -40263.9 -39273.8 -38298.3 -37337 -36389.6 -35455.7 -34534.9 -33626.9 -32731.4 -31848 -30976.4 -30116.3 -29267.4 -28429.2 -27601.6 -26784.3 -25976.8 -25179 -24390.5 -23611.1 -22840.4 -22078.2 -21324.2 -20578.1 -19839.6 -19108.6 -18384.6 -17667.5 -16957 -16252.9 -15554.8 -14862.6 -14175.9 -13494.6 -12818.3 -12146.9 -11480.1 -10817.7 -10159.4 -9505.01 -8854.26 -8206.93 -7562.8 -6921.64 -6283.21 -5647.29 -5013.66 -4382.08 -3752.34 -3124.21 -2497.47 -1871.91 -1247.28 -623.388 0 -200000 -195450 -190922 -186472 -182127 -177900 -173795 -169814 -165953 -162210 -158580 -155058 -151638 -148317 -145090 -141952 -138899 -135927 -133033 -130212 -127462 -124780 -122163 -119608 -117113 -114675 -112293 -109964 -107686 -105458 -103278 -101144 -99055.4 -97009.8 -95006.3 -93043.5 -91120.2 -89235.3 -87387.7 -85576.4 -83800.2 -82058.3 -80349.7 -78673.5 -77028.9 -75415 -73831.1 -72276.3 -70750.1 -69251.5 -67780 -66334.9 -64915.5 -63521.2 -62151.4 -60805.5 -59483 -58183.1 -56905.5 -55649.6 -54414.8 -53200.7 -52006.7 -50832.4 -49677.3 -48540.9 -47422.8 -46322.6 -45239.7 -44173.9 -43124.6 -42091.5 -41074.1 -40072.1 -39085.1 -38112.7 -37154.6 -36210.3 -35279.5 -34361.9 -33457.1 -32564.8 -31684.6 -30816.2 -29959.4 -29113.6 -28278.8 -27454.5 -26640.4 -25836.2 -25041.7 -24256.5 -23480.4 -22713.1 -21954.2 -21203.6 -20460.9 -19725.8 -18998.2 -18277.7 -17564 -16857 -16156.3 -15461.8 -14773 -14089.9 -13412.1 -12739.5 -12071.7 -11408.6 -10749.8 -10095.2 -9444.51 -8797.52 -8153.98 -7513.67 -6876.36 -6241.83 -5609.84 -4980.18 -4352.63 -3726.95 -3102.92 -2480.34 -1858.97 -1238.61 -619.022 0 -200000 -195404 -190842 -186364 -181996 -177750 -173629 -169633 -165760 -162006 -158366 -154836 -151409 -148081 -144848 -141705 -138647 -135671 -132773 -129949 -127196 -124512 -121892 -119335 -116839 -114400 -112016 -109686 -107408 -105179 -102999 -100865 -98776.4 -96731.1 -94728 -92765.8 -90843.3 -88959.3 -87112.8 -85302.5 -83527.6 -81787.1 -80080 -78405.4 -76762.5 -75150.4 -73568.3 -72015.6 -70491.3 -68994.9 -67525.6 -66082.7 -64665.6 -63273.7 -61906.3 -60562.9 -59242.8 -57945.6 -56670.6 -55417.3 -54185.2 -52973.8 -51782.6 -50611.1 -49458.8 -48325.3 -47210.2 -46112.8 -45033 -43970.1 -42923.8 -41893.7 -40879.4 -39880.5 -38896.5 -37927.2 -36972.2 -36031 -35103.4 -34188.9 -33287.3 -32398.2 -31521.2 -30656 -29802.4 -28959.9 -28128.3 -27307.2 -26496.4 -25695.5 -24904.3 -24122.4 -23349.6 -22585.6 -21830.1 -21082.9 -20343.5 -19611.9 -18887.7 -18170.6 -17460.4 -16756.8 -16059.6 -15368.6 -14683.4 -14003.8 -13329.6 -12660.5 -11996.4 -11336.9 -10681.8 -10030.9 -9383.9 -8740.67 -8100.92 -7464.44 -6831 -6200.37 -5572.32 -4946.64 -4323.11 -3701.5 -3081.59 -2463.17 -1846.02 -1229.91 -614.647 0 -200000 -195358 -190762 -186256 -181866 -177600 -173463 -169453 -165568 -161803 -158154 -154614 -151180 -147846 -144607 -141458 -138396 -135415 -132513 -129686 -126931 -124243 -121622 -119063 -116565 -114124 -111740 -109409 -107130 -104901 -102721 -100587 -98498 -96453 -94450.4 -92488.8 -90567.1 -88684 -86838.4 -85029.3 -83255.7 -81516.5 -79810.9 -78137.9 -76496.6 -74886.3 -73306.1 -71755.3 -70233.1 -68738.7 -67271.6 -65830.9 -64416.1 -63026.5 -61661.6 -60320.6 -59003 -57708.3 -56435.9 -55185.3 -53955.9 -52747.2 -51558.8 -50390.1 -49240.6 -48110 -46997.7 -45903.3 -44826.3 -43766.4 -42723.1 -41696 -40684.8 -39688.9 -38708 -37741.8 -36789.8 -35851.8 -34927.3 -34016 -33117.5 -32231.6 -31357.8 -30495.8 -29645.3 -28806.1 -27977.7 -27159.9 -26352.3 -25554.7 -24766.8 -23988.3 -23218.8 -22458.1 -21706 -20962 -20226.1 -19497.8 -18777 -18063.4 -17356.6 -16656.5 -15962.8 -15275.2 -14593.6 -13917.5 -13246.9 -12581.4 -11920.9 -11265 -10613.6 -9966.41 -9323.18 -8683.72 -8047.77 -7415.12 -6785.55 -6158.82 -5534.73 -4913.04 -4293.53 -3676 -3060.21 -2445.96 -1833.03 -1221.2 -610.262 0 -200000 -195312 -190682 -186149 -181736 -177451 -173297 -169273 -165376 -161600 -157941 -154394 -150952 -147611 -144366 -141212 -138145 -135160 -132255 -129424 -126666 -123976 -121352 -118792 -116292 -113850 -111464 -109133 -106853 -104624 -102443 -100309 -98220.3 -96175.6 -94173.4 -92212.5 -90291.5 -88409.3 -86564.7 -84756.8 -82984.4 -81246.6 -79542.4 -77871 -76231.4 -74622.8 -73044.5 -71495.5 -69975.3 -68483 -67018 -65579.6 -64167 -62779.8 -61417.2 -60078.7 -58763.6 -57471.5 -56201.6 -54953.6 -53726.9 -52520.9 -51335.2 -50169.3 -49022.7 -47894.9 -46785.4 -45693.9 -44619.9 -43562.9 -42522.6 -41498.5 -40490.2 -39497.4 -38519.6 -37556.4 -36607.5 -35672.6 -34751.2 -33843 -32947.7 -32064.9 -31194.3 -30335.5 -29488.3 -28652.2 -27827.1 -27012.5 -26208.2 -25413.9 -24629.2 -23854 -23087.8 -22330.5 -21581.7 -20841.1 -20108.5 -19383.7 -18666.2 -17956 -17252.7 -16556.1 -15865.8 -15181.8 -14503.6 -13831.1 -13164.1 -12502.2 -11845.3 -11193.1 -10545.3 -9901.84 -9262.36 -8626.66 -7994.52 -7365.71 -6740.01 -6117.2 -5497.06 -4879.36 -4263.9 -3650.44 -3038.79 -2428.72 -1820.02 -1212.47 -605.868 0 -200000 -195267 -190602 -186042 -181606 -177302 -173132 -169094 -165184 -161398 -157729 -154173 -150724 -147377 -144126 -140967 -137895 -134906 -131997 -129163 -126402 -123710 -121083 -118521 -116019 -113576 -111189 -108857 -106577 -104347 -102166 -100032 -97943.4 -95898.9 -93897.2 -91936.8 -90016.6 -88135.2 -86291.7 -84484.9 -82713.7 -80977.3 -79274.5 -77604.6 -75966.7 -74359.9 -72783.3 -71236.3 -69718.1 -68227.8 -66764.9 -65328.7 -63918.4 -62533.5 -61173.3 -59837.1 -58524.6 -57234.9 -55967.7 -54722.3 -53498.2 -52294.9 -51111.9 -49948.8 -48804.9 -47679.9 -46573.4 -45484.7 -44413.6 -43359.6 -42322.2 -41301.1 -40295.8 -39305.9 -38331.2 -37371.1 -36425.3 -35493.4 -34575.1 -33670.1 -32777.9 -31898.3 -31030.8 -30175.2 -29331.2 -28498.3 -27676.4 -26865.1 -26064 -25273 -24491.6 -23719.6 -22956.8 -22202.7 -21457.3 -20720.1 -19990.9 -19269.4 -18555.4 -17848.5 -17148.7 -16455.5 -15768.8 -15088.2 -14413.6 -13744.6 -13081.2 -12422.9 -11769.6 -11121 -10477 -9837.17 -9201.43 -8569.5 -7941.17 -7316.21 -6694.39 -6075.5 -5459.31 -4845.62 -4234.2 -3624.84 -3017.32 -2411.44 -1806.97 -1203.72 -601.465 0 -200000 -195222 -190523 -185936 -181477 -177154 -172967 -168915 -164993 -161196 -157518 -153954 -150497 -147143 -143887 -140722 -137646 -134653 -131740 -128903 -126139 -123444 -120815 -118251 -115748 -113303 -110915 -108582 -106301 -104071 -101890 -99755.5 -97667.1 -95623 -93621.7 -91661.9 -89742.3 -87861.9 -86019.3 -84213.6 -82443.7 -80708.5 -79007.2 -77338.9 -75702.6 -74097.4 -72522.7 -70977.6 -69461.3 -67973.1 -66512.3 -65078.2 -63670.2 -62287.6 -60929.7 -59596 -58285.9 -56998.7 -55734 -54491.2 -53269.8 -52069.2 -50888.9 -49728.5 -48587.4 -47465.2 -46361.5 -45275.7 -44207.5 -43156.4 -42121.9 -41103.7 -40101.4 -39114.6 -38142.9 -37185.8 -36243.1 -35314.3 -34399.1 -33497.2 -32608.1 -31731.6 -30867.3 -30014.9 -29174 -28344.4 -27525.7 -26717.5 -25919.7 -25131.9 -24353.8 -23585.2 -22825.6 -22074.9 -21332.8 -20598.9 -19873.1 -19155 -18444.4 -17741 -17044.5 -16354.8 -15671.5 -14994.5 -14323.4 -13658 -12998.1 -12343.4 -11693.7 -11048.8 -10408.5 -9772.39 -9140.39 -8512.25 -7887.73 -7266.61 -6648.68 -6033.72 -5421.5 -4811.81 -4204.45 -3599.18 -2995.81 -2394.12 -1793.91 -1194.95 -597.053 0 -200000 -195178 -190445 -185830 -181348 -177006 -172803 -168737 -164803 -160995 -157308 -153735 -150271 -146911 -143648 -140478 -137397 -134400 -131483 -128643 -125876 -123179 -120548 -117982 -115477 -113031 -110642 -108308 -106026 -103796 -101614 -99479.9 -97391.7 -95347.8 -93346.9 -91387.6 -89468.8 -87589.2 -85747.6 -83942.9 -82174.2 -80440.4 -78740.5 -77073.7 -75439 -73835.6 -72262.7 -70719.4 -69205 -67718.9 -66260.2 -64828.3 -63422.4 -62042.1 -60686.5 -59355.2 -58047.5 -56762.9 -55500.7 -54260.5 -53041.6 -51843.7 -50666.1 -49508.4 -48370.1 -47250.7 -46149.8 -45066.9 -44001.5 -42953.3 -41921.8 -40906.5 -39907.2 -38923.4 -37954.6 -37000.6 -36060.9 -35135.2 -34223.1 -33324.2 -32438.3 -31564.9 -30703.8 -29854.5 -29016.8 -28190.4 -27374.9 -26570 -25775.4 -24990.8 -24216 -23450.6 -22694.4 -21947 -21208.1 -20477.6 -19755.1 -19040.4 -18333.2 -17633.2 -16940.3 -16254 -15574.2 -14900.7 -14233.1 -13571.2 -12914.9 -12263.8 -11617.8 -10976.5 -10339.9 -9707.5 -9079.25 -8454.89 -7834.19 -7216.93 -6602.89 -5991.85 -5383.61 -4777.94 -4174.63 -3573.48 -2974.26 -2376.78 -1780.81 -1186.17 -592.631 0 -200000 -195134 -190367 -185724 -181220 -176858 -172639 -168559 -164613 -160795 -157098 -153517 -150046 -146679 -143410 -140235 -137149 -134148 -131228 -128384 -125614 -122914 -120282 -117713 -115207 -112760 -110370 -108035 -105752 -103521 -101339 -99205.1 -97116.9 -95073.3 -93072.8 -91114.1 -89196 -87317.1 -85476.5 -83673 -81905.4 -80172.9 -78474.4 -76809.1 -75176 -73574.3 -72003.1 -70461.7 -68949.3 -67465.1 -66008.5 -64578.7 -63175.1 -61797 -60443.8 -59114.8 -57809.5 -56527.4 -55267.7 -54030 -52813.8 -51618.5 -50443.6 -49288.6 -48153 -47036.4 -45938.3 -44858.2 -43795.7 -42750.3 -41721.7 -40709.5 -39713.1 -38732.2 -37766.5 -36815.4 -35878.8 -34956.1 -34047.1 -33151.3 -32268.5 -31398.2 -30540.2 -29694.1 -28859.6 -28036.3 -27224 -26422.3 -25631 -24849.7 -24078.1 -23316 -22563 -21818.9 -21083.4 -20356.2 -19637.1 -18925.8 -18222 -17525.4 -16835.9 -16153.1 -15476.8 -14806.7 -14142.6 -13484.4 -12831.6 -12184.1 -11541.7 -10904.1 -10271.1 -9642.49 -9018 -8397.43 -7780.55 -7167.15 -6557.01 -5949.92 -5345.65 -4744 -4144.76 -3547.72 -2952.67 -2359.39 -1767.69 -1177.36 -588.201 0 -200000 -195090 -190289 -185619 -181092 -176712 -172476 -168382 -164424 -160595 -156889 -153300 -149821 -146447 -143173 -139993 -136902 -133897 -130973 -128126 -125353 -122651 -120016 -117446 -114938 -112489 -110098 -107762 -105479 -103248 -101065 -98931 -96842.9 -94799.5 -92799.4 -90841.3 -88923.8 -87045.8 -85206.1 -83403.6 -81637.3 -79906 -78209 -76545.1 -74913.6 -73313.5 -71744.1 -70204.6 -68694.1 -67211.9 -65757.3 -64329.6 -62928.2 -61552.3 -60201.4 -58874.8 -57571.9 -56292.2 -55035 -53799.9 -52586.3 -51393.6 -50221.3 -49069 -47936.2 -46822.3 -45727 -44649.7 -43590 -42547.6 -41521.8 -40512.5 -39519 -38541.1 -37578.4 -36630.4 -35696.7 -34777.1 -33871.1 -32978.4 -32098.7 -31231.5 -30376.6 -29533.7 -28702.3 -27882.2 -27073.1 -26274.6 -25486.5 -24708.4 -23940.1 -23181.2 -22431.5 -21690.8 -20958.6 -20234.7 -19519 -18811 -18110.6 -17417.5 -16731.3 -16052 -15379.2 -14712.6 -14052.1 -13397.4 -12748.2 -12104.3 -11465.5 -10831.6 -10202.3 -9577.39 -8956.65 -8339.87 -7726.82 -7117.29 -6511.05 -5907.9 -5307.62 -4710 -4114.84 -3521.91 -2931.03 -2341.97 -1754.55 -1168.54 -583.762 0 -200000 -195046 -190211 -185514 -180965 -176565 -172314 -168206 -164235 -160396 -156680 -153083 -149597 -146217 -142937 -139751 -136656 -133647 -130719 -127869 -125093 -122388 -119751 -117179 -114669 -112220 -109827 -107490 -105207 -102975 -100792 -98657.7 -96569.6 -94526.5 -92526.8 -90569.2 -88652.4 -86775.2 -84936.4 -83135 -81369.8 -79639.8 -77944.1 -76281.7 -74651.8 -73053.4 -71485.7 -69947.9 -68439.3 -66959.1 -65506.6 -64081 -62681.7 -61308.1 -59959.4 -58635.2 -57334.7 -56057.4 -54802.7 -53570.1 -52359 -51168.9 -49999.3 -48849.7 -47719.5 -46608.4 -45515.8 -44441.4 -43384.5 -42344.9 -41322.1 -40315.6 -39325.1 -38350.1 -37390.3 -36445.3 -35514.7 -34598.1 -33695.2 -32805.5 -31928.9 -31064.8 -30213 -29373.2 -28545 -27728 -26922.1 -26126.8 -25341.9 -24567.1 -23802 -23046.4 -22300 -21562.5 -20833.6 -20113.1 -19400.7 -18696.1 -17999.1 -17309.4 -16626.7 -15950.8 -15281.5 -14618.4 -13961.4 -13310.2 -12664.6 -12024.4 -11389.2 -10759 -10133.3 -9512.17 -8895.2 -8282.21 -7673 -7067.33 -6465.01 -5865.8 -5269.52 -4675.94 -4084.85 -3496.06 -2909.35 -2324.52 -1741.37 -1159.71 -579.313 0 -200000 -195003 -190134 -185410 -180838 -176419 -172152 -168030 -164047 -160197 -156473 -152867 -149374 -145987 -142701 -139511 -136411 -133397 -130466 -127613 -124834 -122127 -119487 -116913 -114402 -111951 -109557 -107219 -104935 -102702 -100520 -98385.1 -96297.1 -94254.2 -92254.8 -90297.8 -88381.6 -86505.2 -84667.4 -82866.9 -81102.9 -79374.2 -77679.8 -76018.9 -74390.5 -72793.7 -71227.8 -69691.8 -68185.1 -66706.8 -65256.3 -63832.8 -62435.7 -61064.2 -59717.9 -58395.9 -57097.8 -55822.9 -54570.7 -53340.6 -52132 -50944.5 -49777.5 -48630.6 -47503.1 -46394.7 -45304.9 -44233.2 -43179.2 -42142.4 -41122.4 -40118.9 -39131.2 -38159.2 -37202.4 -36260.3 -35332.7 -34419.1 -33519.2 -32632.6 -31759 -30898.1 -30049.4 -29212.7 -28387.6 -27573.8 -26771.1 -25979 -25197.3 -24425.6 -23663.8 -22911.5 -22168.3 -21434.1 -20708.6 -19991.4 -19282.4 -18581.1 -17887.5 -17201.2 -16521.9 -15849.5 -15183.6 -14524.1 -13870.6 -13223 -12581 -11944.3 -11312.8 -10686.2 -10064.3 -9446.85 -8833.64 -8224.46 -7619.08 -7017.29 -6418.88 -5823.63 -5231.35 -4641.81 -4054.81 -3470.15 -2887.63 -2307.04 -1728.18 -1150.85 -574.856 0 -200000 -194960 -190057 -185306 -180711 -176274 -171990 -167855 -163860 -159999 -156265 -152652 -149151 -145758 -142466 -139271 -136166 -133149 -130214 -127357 -124576 -121866 -119224 -116648 -114135 -111683 -109288 -106949 -104664 -102431 -100248 -98113.4 -96025.4 -93982.7 -91983.7 -90027.1 -88111.6 -86236 -84399 -82599.6 -80836.7 -79109.2 -77416.2 -75756.7 -74129.8 -72534.7 -70970.4 -69436.2 -67931.4 -66455 -65006.5 -63585.1 -62190.1 -60820.8 -59476.7 -58157 -56861.3 -55588.8 -54339 -53111.4 -51905.3 -50720.4 -49556 -48411.7 -47286.9 -46181.2 -45094.1 -44025.2 -42974 -41940 -40922.9 -39922.2 -38937.5 -37968.4 -37014.5 -36075.4 -35150.8 -34240.2 -33343.3 -32459.8 -31589.2 -30731.3 -29885.8 -29052.1 -28230.2 -27419.6 -26620 -25831.1 -25052.6 -24284.1 -23525.5 -22776.5 -22036.6 -21305.7 -20583.4 -19869.6 -19163.9 -18466 -17775.8 -17092.9 -16417 -15748.1 -15085.7 -14429.6 -13779.7 -13135.6 -12497.2 -11864.1 -11236.3 -10613.3 -9995.13 -9381.42 -8771.98 -8166.6 -7565.07 -6967.16 -6372.67 -5781.39 -5193.1 -4607.61 -4024.71 -3444.2 -2865.86 -2289.52 -1714.95 -1141.98 -570.39 0 -200000 -194917 -189981 -185202 -180585 -176129 -171830 -167680 -163673 -159802 -156059 -152437 -148929 -145530 -142232 -139031 -135923 -132901 -129962 -127102 -124318 -121606 -118962 -116384 -113869 -111415 -109020 -106680 -104394 -102161 -99977.2 -97842.4 -95754.5 -93711.9 -91713.2 -89757.1 -87842.3 -85967.4 -84131.3 -82332.9 -80571.1 -78844.9 -77153.2 -75495.1 -73869.7 -72276.2 -70713.6 -69181.2 -67678.1 -66203.7 -64757.2 -63337.8 -61944.9 -60577.8 -59235.9 -57918.5 -56625.1 -55355 -54107.6 -52882.5 -51678.9 -50496.5 -49334.8 -48193 -47070.9 -45967.9 -44883.6 -43817.4 -42769 -41737.8 -40723.5 -39725.7 -38743.8 -37777.6 -36826.7 -35890.5 -34968.9 -34061.3 -33167.4 -32286.9 -31419.4 -30564.6 -29722.1 -28891.6 -28072.7 -27265.3 -26468.8 -25683.1 -24907.8 -24142.6 -23387.2 -22641.3 -21904.7 -21177.1 -20458.2 -19747.7 -19045.3 -18350.8 -17663.9 -16984.4 -16312 -15646.5 -14987.6 -14335 -13688.6 -13048.1 -12413.3 -11783.8 -11159.6 -10540.4 -9925.85 -9315.88 -8710.22 -8108.65 -7510.96 -6916.94 -6326.38 -5739.06 -5154.79 -4573.36 -3994.56 -3418.19 -2844.06 -2271.96 -1701.7 -1133.09 -565.916 0 -200000 -194875 -189905 -185099 -180460 -175985 -171669 -167506 -163487 -159606 -155853 -152223 -148708 -145302 -141999 -138793 -135680 -132654 -129712 -126849 -124061 -121346 -118700 -116121 -113604 -111149 -108752 -106411 -104125 -101891 -99707.2 -97572.2 -95484.3 -93441.9 -91443.6 -89487.9 -87573.7 -85699.6 -83864.3 -82066.9 -80306.2 -78581.2 -76890.8 -75234.1 -73610.2 -72018.2 -70457.3 -68926.7 -67425.4 -65952.9 -64508.3 -63091 -61700.2 -60335.2 -58995.5 -57680.4 -56389.3 -55121.5 -53876.6 -52653.9 -51452.8 -50273 -49113.7 -47974.6 -46855.2 -45754.8 -44673.2 -43609.8 -42564.1 -41535.7 -40524.2 -39529.2 -38550.3 -37587 -36638.9 -35705.7 -34787 -33882.4 -32991.5 -32114 -31249.6 -30397.8 -29558.4 -28731 -27915.2 -27110.9 -26317.6 -25535 -24762.9 -24000.9 -23248.7 -22506.1 -21772.8 -21048.4 -20332.8 -19625.6 -18926.6 -18235.4 -17551.9 -16875.8 -16206.9 -15544.8 -14889.4 -14240.3 -13597.5 -12960.5 -12329.2 -11703.4 -11082.8 -10467.3 -9856.47 -9250.24 -8648.35 -8050.6 -7456.76 -6866.64 -6280 -5696.66 -5116.41 -4539.04 -3964.35 -3392.14 -2822.21 -2254.37 -1688.43 -1124.18 -561.432 0 -200000 -194833 -189829 -184996 -180335 -175841 -171510 -167333 -163302 -159410 -155649 -152010 -148488 -145075 -141767 -138556 -135438 -132408 -129462 -126596 -123805 -121088 -118440 -115858 -113340 -110883 -108485 -106144 -103857 -101622 -99437.9 -97302.8 -95214.9 -93172.7 -91174.7 -89219.5 -87305.8 -85432.4 -83598 -81801.6 -80042 -78318.1 -76629 -74973.7 -73351.3 -71760.9 -70201.6 -68672.7 -67173.3 -65702.6 -64260 -62844.6 -61455.9 -60093.1 -58755.6 -57442.7 -56153.8 -54888.4 -53645.8 -52425.6 -51227 -50049.7 -48893 -47756.5 -46639.6 -45542 -44463 -43402.3 -42359.4 -41333.8 -40325.1 -39332.9 -38356.8 -37396.4 -36451.2 -35520.9 -34605.2 -33703.5 -32815.6 -31941.2 -31079.7 -30231 -29394.6 -28570.3 -27757.7 -26956.5 -26166.3 -25386.9 -24617.9 -23859.1 -23110.2 -22370.8 -21640.7 -20919.7 -20207.3 -19503.4 -18807.7 -18120 -17439.9 -16767.2 -16101.6 -15443 -14791 -14145.5 -13506.2 -12872.8 -12245.1 -11622.9 -11005.9 -10394 -9786.97 -9184.49 -8586.39 -7992.45 -7402.47 -6816.24 -6233.55 -5654.19 -5077.96 -4504.66 -3934.08 -3366.04 -2800.33 -2236.75 -1675.13 -1115.25 -556.94 0 -200000 -194791 -189754 -184894 -180210 -175698 -171351 -167160 -163117 -159215 -155444 -151798 -148269 -144850 -141535 -138319 -135196 -132163 -129213 -126343 -123550 -120830 -118180 -115596 -113077 -110619 -108219 -105877 -103589 -101354 -99169.5 -97034.2 -94946.3 -92904.2 -90906.5 -88951.8 -87038.7 -85166 -83332.5 -81537 -79778.4 -78055.7 -76367.8 -74713.9 -73093 -71504.1 -69946.5 -68419.2 -66921.6 -65452.8 -64012.1 -62598.7 -61212 -59851.3 -58516 -57205.3 -55918.7 -54655.6 -53415.4 -52197.6 -51001.5 -49826.6 -48672.5 -47538.5 -46424.3 -45329.3 -44253 -43195 -42154.8 -41131.9 -40126.1 -39136.7 -38163.4 -37205.9 -36263.6 -35336.2 -34423.4 -33524.7 -32639.8 -31768.3 -30909.9 -30064.2 -29230.9 -28409.6 -27600.1 -26802 -26015 -25238.7 -24472.9 -23717.3 -22971.6 -22235.4 -21508.6 -20790.8 -20081.7 -19381.2 -18688.8 -18004.4 -17327.6 -16658.4 -15996.2 -15341.1 -14692.6 -14050.6 -13414.7 -12784.9 -12160.8 -11542.2 -10928.9 -10320.7 -9717.36 -9118.63 -8524.32 -7934.21 -7348.09 -6765.76 -6187.01 -5611.64 -5039.44 -4470.21 -3903.76 -3339.89 -2778.4 -2219.1 -1661.8 -1106.31 -552.439 0 -200000 -194749 -189679 -184792 -180086 -175556 -171192 -166988 -162934 -159021 -155241 -151587 -148050 -144625 -141304 -138083 -134956 -131918 -128965 -126092 -123296 -120574 -117921 -115336 -112814 -110355 -107954 -105611 -103322 -101087 -98901.9 -96766.4 -94678.4 -92636.5 -90639.1 -88684.8 -86772.3 -84900.3 -83067.6 -81273 -79515.5 -77793.9 -76107.3 -74454.7 -72835.2 -71247.9 -69691.9 -68166.3 -66670.4 -65203.5 -63764.6 -62353.3 -60968.6 -59610 -58276.8 -56968.3 -55684 -54423.2 -53185.4 -51969.9 -50776.2 -49603.9 -48452.2 -47320.8 -46209.2 -45116.8 -44043.2 -42987.8 -41950.3 -40930.3 -39927.2 -38940.6 -37970.2 -37015.4 -36076 -35151.6 -34241.6 -33345.9 -32463.9 -31595.4 -30740 -29897.4 -29067.1 -28248.9 -27442.5 -26647.5 -25863.5 -25090.4 -24327.8 -23575.4 -22832.9 -22099.9 -21376.4 -20661.8 -19956 -19258.8 -18569.7 -17888.7 -17215.3 -16549.4 -15890.7 -15239 -14594 -13955.5 -13323.2 -12696.9 -12076.4 -11461.5 -10851.8 -10247.3 -9647.65 -9052.67 -8462.15 -7875.87 -7293.62 -6715.19 -6140.39 -5569.01 -5000.85 -4435.7 -3873.38 -3313.69 -2756.43 -2201.41 -1648.45 -1097.35 -547.93 0 -200000 -194707 -189605 -184691 -179963 -175414 -171034 -166816 -162750 -158827 -155038 -151376 -147832 -144401 -141075 -137848 -134717 -131675 -128718 -125842 -123043 -120318 -117663 -115076 -112553 -110092 -107690 -105346 -103057 -100820 -98635.1 -96499.4 -94411.4 -92369.6 -90372.5 -88418.6 -86506.6 -84635.3 -82803.4 -81009.7 -79253.2 -77532.8 -75847.4 -74196.2 -72578.1 -70992.2 -69437.8 -67913.9 -66419.8 -64954.6 -63517.7 -62108.3 -60725.6 -59369.1 -58038 -56731.7 -55449.6 -54191.1 -52955.6 -51742.5 -50551.3 -49381.4 -48232.2 -47103.4 -45994.3 -44904.5 -43833.5 -42780.8 -41746.1 -40728.7 -39728.4 -38744.6 -37777 -36825.1 -35888.5 -34966.9 -34059.9 -33167.1 -32288.1 -31422.6 -30570.2 -29730.5 -28903.3 -28088.2 -27284.8 -26492.9 -25712.1 -24942.1 -24182.6 -23433.4 -22694 -21964.4 -21244 -20532.7 -19830.2 -19136.3 -18450.6 -17772.8 -17102.9 -16440.4 -15785.1 -15136.8 -14495.3 -13860.3 -13231.5 -12608.8 -11991.9 -11380.6 -10774.6 -10173.7 -9577.82 -8986.6 -8399.88 -7817.43 -7239.05 -6664.54 -6093.69 -5526.31 -4962.19 -4401.13 -3842.95 -3287.44 -2734.42 -2183.69 -1635.07 -1088.37 -543.411 0 -200000 -194666 -189530 -184590 -179840 -175272 -170877 -166646 -162568 -158635 -154837 -151166 -147615 -144177 -140846 -137614 -134478 -131432 -128472 -125593 -122791 -120063 -117406 -114817 -112292 -109830 -107427 -105082 -102792 -100555 -98369.2 -96233.3 -94145.2 -92103.5 -90106.6 -88153.2 -86241.7 -84371 -82539.9 -80747.1 -78991.6 -77272.3 -75588.2 -73938.2 -72321.5 -70737.2 -69184.3 -67662.1 -66169.7 -64706.3 -63271.2 -61863.7 -60483.1 -59128.6 -57799.6 -56495.5 -55215.6 -53959.4 -52726.2 -51515.4 -50326.6 -49159.1 -48012.5 -46886.1 -45779.6 -44692.4 -43624 -42574 -41541.9 -40527.3 -39529.7 -38548.7 -37583.8 -36634.8 -35701.1 -34782.4 -33878.2 -32988.3 -32112.3 -31249.7 -30400.3 -29563.6 -28739.4 -27927.4 -27127.1 -26338.2 -25560.5 -24793.7 -24037.4 -23291.3 -22555.1 -21828.7 -21111.5 -20403.5 -19704.3 -19013.6 -18331.3 -17656.9 -16990.3 -16331.2 -15679.4 -15034.5 -14396.5 -13765 -13139.7 -12520.6 -11907.3 -11299.6 -10697.2 -10100.1 -9507.89 -8920.43 -8337.5 -7758.89 -7184.39 -6613.8 -6046.91 -5483.53 -4923.46 -4366.5 -3812.46 -3261.14 -2712.36 -2165.94 -1621.67 -1079.38 -538.885 0 -200000 -194625 -189457 -184490 -179718 -175131 -170721 -166476 -162386 -158443 -154636 -150957 -147399 -143955 -140618 -137381 -134241 -131191 -128226 -125344 -122540 -119809 -117150 -114559 -112032 -109569 -107165 -104818 -102527 -100290 -98104.1 -95967.9 -93879.8 -91838.2 -89841.6 -87888.5 -85977.6 -84107.5 -82277.1 -80485.3 -78730.7 -77012.5 -75329.6 -73680.9 -72065.6 -70482.7 -68931.4 -67410.8 -65920.1 -64458.5 -63025.2 -61619.7 -60241 -58888.5 -57561.6 -56259.7 -54982 -53728 -52497.1 -51288.7 -50102.2 -48937.2 -47793 -46669.1 -45565.2 -44480.5 -43414.7 -42367.4 -41337.9 -40326 -39331.1 -38352.9 -37390.8 -36444.6 -35513.7 -34597.8 -33696.6 -32809.6 -31936.5 -31076.9 -30230.4 -29396.7 -28575.6 -27766.5 -26969.3 -26183.5 -25408.9 -24645.2 -23892 -23149.1 -22416.2 -21692.9 -20979 -20274.2 -19578.3 -18890.9 -18211.8 -17540.8 -16877.6 -16221.9 -15573.5 -14932.1 -14297.5 -13669.5 -13047.8 -12432.2 -11822.5 -11218.4 -10619.8 -10026.3 -9437.84 -8854.15 -8275.03 -7700.26 -7129.64 -6562.97 -6000.05 -5440.68 -4884.66 -4331.8 -3781.91 -3234.8 -2690.27 -2148.15 -1608.24 -1070.37 -534.349 0 -200000 -194584 -189383 -184390 -179596 -174991 -170565 -166307 -162205 -158252 -154436 -150749 -147184 -143733 -140390 -137149 -134004 -130950 -127982 -125096 -122289 -119556 -116895 -114302 -111774 -109308 -106903 -104556 -102264 -100026 -97839.8 -95703.4 -93615.3 -91573.7 -89577.3 -87624.6 -85714.1 -83844.7 -82015.1 -80224.1 -78470.5 -76753.4 -75071.6 -73424.2 -71810.2 -70228.8 -68679 -67160 -65671 -64211.1 -62779.7 -61376 -59999.3 -58648.9 -57324.1 -56024.2 -54748.7 -53496.9 -52268.3 -51062.2 -49878.1 -48715.5 -47573.7 -46452.4 -45350.9 -44268.8 -43205.6 -42160.9 -41134.1 -40124.9 -39132.7 -38157.2 -37197.9 -36254.4 -35326.4 -34413.4 -33515 -32630.9 -31760.7 -30904 -30060.5 -29229.8 -28411.7 -27605.6 -26811.4 -26028.8 -25257.3 -24496.6 -23746.6 -23006.8 -22277.1 -21557 -20846.3 -20144.8 -19452.1 -18768.1 -18092.3 -17424.6 -16764.8 -16112.5 -15467.5 -14829.5 -14198.4 -13573.9 -12955.8 -12343.8 -11737.6 -11137.2 -10542.2 -9952.42 -9367.69 -8787.77 -8212.45 -7641.53 -7074.79 -6512.05 -5953.1 -5397.75 -4845.79 -4297.04 -3751.31 -3208.4 -2668.14 -2130.33 -1594.79 -1061.34 -529.805 0 -200000 -194543 -189310 -184290 -179475 -174852 -170410 -166138 -162025 -158061 -154236 -150542 -146970 -143513 -140164 -136918 -133768 -130710 -127739 -124850