<?xml version="1.0"?> 
<VTKFile type="StructuredGrid" version="0.1"> 
<StructuredGrid WholeExtent="0 8 0 8 0 0"> 
<Piece Extent="0 8 0 8 0 0"> 
<CellData>
<DataArray type="Float32" Name="err_h1" format="ascii" NumberOfComponents="1"> 
180.942 167.381 190.439 193.025 187.771 193.002 171.37 180.271 217.736 211.316 188.243 207.061 188.357 184.651 205.165 167.907 330.253 332.462 389.123 354.076 391.901 365.974 345.458 315.947 237.152 509.939 374.575 400.284 451.46 308.884 376.302 272.155 711.644 476.145 791.379 612.034 653.623 587.484 502.497 495.821 434.161 365.914 343.857 871.186 358.061 740.41 610.069 314.51 1106.13 893.712 771.284 596.95 861.561 698.019 888.066 751.324 2677.84 1951.96 1546.67 1036.88 1218.15 1102.66 1347.41 1349.37 
</DataArray> 
</CellData> 
<Points> 
<DataArray type="Float32" NumberOfComponents="3"> 
-0.05 0.025 0 -0.05 0.0271875 0 -0.05 0.029375 0 -0.05 0.0315625 0 -0.05 0.03375 0 -0.05 0.0359375 0 -0.05 0.038125 0 -0.05 0.0403125 0 -0.05 0.0425 0 -0.0428125 0.02625 0 -0.0433796 0.0281236 0 -0.0438243 0.030069 0 -0.0441413 0.0320738 0 -0.0443271 0.0341246 0 -0.0443798 0.0362072 0 -0.0442996 0.0383071 0 -0.0440884 0.0404095 0 -0.04375 0.0425 0 -0.035625 0.0275 0 -0.0366515 0.029075 0 -0.0374743 0.0307826 0 -0.0380744 0.0326033 0 -0.0384385 0.0345134 0 -0.0385598 0.0364866 0 -0.0384383 0.0384944 0 -0.0380807 0.0405081 0 -0.0375 0.0425 0 -0.0284375 0.02875 0 -0.029813 0.030042 0 -0.0309424 0.0315167 0 -0.031788 0.0331519 0 -0.0323219 0.0349173 0 -0.0325293 0.036776 0 -0.0324091 0.038687 0 -0.0319743 0.0406084 0 -0.03125 0.0425 0 -0.02125 0.03 0 -0.0228613 0.031025 0 -0.0242208 0.0322721 0 -0.0252699 0.0337208 0 -0.0259636 0.0353372 0 -0.0262765 0.0370761 0 -0.0262047 0.0388852 0 -0.0257669 0.0407103 0 -0.025 0.0425 0 -0.0140625 0.03125 0 -0.0157936 0.0320244 0 -0.0173009 0.0330497 0 -0.018507 0.034311 0 -0.0193491 0.035774 0 -0.0197889 0.0373875 0 -0.0198174 0.0390893 0 -0.0194558 0.0408139 0 -0.01875 0.0425 0 -0.006875 0.0325 0 -0.00860695 0.0330406 0 -0.010174 0.0338506 0 -0.0114854 0.0349238 0 -0.0124626 0.0362287 0 -0.0130531 0.0377108 0 -0.013239 0.0392995 0 -0.0130387 0.0409192 0 -0.0125 0.0425 0 0.0003125 0.03375 0 -0.00129837 0.0340741 0 -0.00283063 0.0346759 0 -0.00418986 0.0355605 0 -0.00528683 0.0367025 0 -0.00605449 0.0380467 0 -0.00646076 0.039516 0 -0.00651257 0.0410263 0 -0.00625 0.0425 0 0.0075 0.035 0 0.00613528 0.0351252 0 0.00473929 0.0355266 0 0.00339593 0.0362225 0 0.0021967 0.0371967 0 0.00122253 0.0383959 0 0.000526588 0.0397393 0 0.00012521 0.0411353 0 0 0.0425 0 
</DataArray>
</Points> 
</Piece> 
</StructuredGrid> 
</VTKFile> 
