<?xml version="1.0"?> 
<VTKFile type="StructuredGrid" version="0.1"> 
<StructuredGrid WholeExtent="0 8 0 8 0 0"> 
<Piece Extent="0 8 0 8 0 0"> 
<CellData>
<DataArray type="Float32" Name="err_h1" format="ascii" NumberOfComponents="1"> 
70.456 70.8343 71.5482 72.6096 73.8245 75.307 76.5385 77.8705 64.4176 64.7015 65.2327 66.0073 66.6084 67.5695 67.3758 67.6449 39.4253 40.3274 43.3271 46.2132 52.1178 57.7366 67.2076 77.6024 33.232 33.8805 40.5403 42.4216 56.0011 59.3032 82.489 88.68 19.3662 20.2323 28.4888 30.8344 45.3459 49.3429 70.7331 74.7345 17.6811 17.542 18.5051 18.1285 19.5726 21.3403 31.0661 50.7343 59.5648 59.5583 59.3055 59.2614 58.1578 64.2869 86.2182 156.803 114.926 119.963 131.078 151.062 184.45 241.86 337.707 507.065 
</DataArray> 
</CellData> 
<Points> 
<DataArray type="Float32" NumberOfComponents="3"> 
-0.05 0 0 -0.05 0.0015625 0 -0.05 0.003125 0 -0.05 0.0046875 0 -0.05 0.00625 0 -0.05 0.0078125 0 -0.05 0.009375 0 -0.05 0.0109375 0 -0.05 0.0125 0 -0.0428125 0 0 -0.0428125 0.0015625 0 -0.0428125 0.003125 0 -0.0428125 0.0046875 0 -0.0428125 0.00625 0 -0.0428125 0.0078125 0 -0.0428125 0.009375 0 -0.0428125 0.0109375 0 -0.0428125 0.0125 0 -0.035625 0 0 -0.035625 0.0015625 0 -0.035625 0.003125 0 -0.035625 0.0046875 0 -0.035625 0.00625 0 -0.035625 0.0078125 0 -0.035625 0.009375 0 -0.035625 0.0109375 0 -0.035625 0.0125 0 -0.0284375 0 0 -0.0284375 0.0015625 0 -0.0284375 0.003125 0 -0.0284375 0.0046875 0 -0.0284375 0.00625 0 -0.0284375 0.0078125 0 -0.0284375 0.009375 0 -0.0284375 0.0109375 0 -0.0284375 0.0125 0 -0.02125 0 0 -0.02125 0.0015625 0 -0.02125 0.003125 0 -0.02125 0.0046875 0 -0.02125 0.00625 0 -0.02125 0.0078125 0 -0.02125 0.009375 0 -0.02125 0.0109375 0 -0.02125 0.0125 0 -0.0140625 0 0 -0.0140625 0.0015625 0 -0.0140625 0.003125 0 -0.0140625 0.0046875 0 -0.0140625 0.00625 0 -0.0140625 0.0078125 0 -0.0140625 0.009375 0 -0.0140625 0.0109375 0 -0.0140625 0.0125 0 -0.006875 0 0 -0.006875 0.0015625 0 -0.006875 0.003125 0 -0.006875 0.0046875 0 -0.006875 0.00625 0 -0.006875 0.0078125 0 -0.006875 0.009375 0 -0.006875 0.0109375 0 -0.006875 0.0125 0 0.0003125 0 0 0.0003125 0.0015625 0 0.0003125 0.003125 0 0.0003125 0.0046875 0 0.0003125 0.00625 0 0.0003125 0.0078125 0 0.0003125 0.009375 0 0.0003125 0.0109375 0 0.0003125 0.0125 0 0.0075 0 0 0.0075 0.0015625 0 0.0075 0.003125 0 0.0075 0.0046875 0 0.0075 0.00625 0 0.0075 0.0078125 0 0.0075 0.009375 0 0.0075 0.0109375 0 0.0075 0.0125 0 
</DataArray>
</Points> 
</Piece> 
</StructuredGrid> 
</VTKFile> 
