<?xml version="1.0"?> 
<VTKFile type="StructuredGrid" version="0.1"> 
<StructuredGrid WholeExtent="0 8 0 8 0 0"> 
<Piece Extent="0 8 0 8 0 0"> 
<CellData>
<DataArray type="Float32" Name="err_h1" format="ascii" NumberOfComponents="1"> 
61.772 62.7731 63.7657 64.4592 65.3022 66.002 66.9415 68.084 54.0575 55.4918 55.6496 56.5405 57.1654 58.2405 59.6938 61.7448 106.434 109.184 111.04 115.006 116.654 119.366 119.096 117.756 68.2835 70.391 68.266 70.7324 61.929 62.5244 60.2598 51.9978 134.385 133.377 160.798 174.274 215.266 245.763 307.128 360.899 241.118 233.399 294.911 288.78 388.5 390.16 543.73 559.036 275.939 303.458 384.487 479.846 606.566 749.097 946.891 1176.35 511.09 409.044 369.996 434.06 534.707 741.722 993.261 1410.17 
</DataArray> 
</CellData> 
<Points> 
<DataArray type="Float32" NumberOfComponents="3"> 
-0.05 0.01875 0 -0.05 0.0195312 0 -0.05 0.0203125 0 -0.05 0.0210938 0 -0.05 0.021875 0 -0.05 0.0226562 0 -0.05 0.0234375 0 -0.05 0.0242188 0 -0.05 0.025 0 -0.0428125 0.0195312 0 -0.0428125 0.0203711 0 -0.0428125 0.0212109 0 -0.0428125 0.0220508 0 -0.0428125 0.0228906 0 -0.0428125 0.0237305 0 -0.0428125 0.0245703 0 -0.0428125 0.0254102 0 -0.0428125 0.02625 0 -0.035625 0.0203125 0 -0.035625 0.0212109 0 -0.035625 0.0221094 0 -0.035625 0.0230078 0 -0.035625 0.0239063 0 -0.035625 0.0248047 0 -0.035625 0.0257031 0 -0.035625 0.0266016 0 -0.035625 0.0275 0 -0.0284375 0.0210938 0 -0.0284375 0.0220508 0 -0.0284375 0.0230078 0 -0.0284375 0.0239648 0 -0.0284375 0.0249219 0 -0.0284375 0.0258789 0 -0.0284375 0.0268359 0 -0.0284375 0.027793 0 -0.0284375 0.02875 0 -0.02125 0.021875 0 -0.02125 0.0228906 0 -0.02125 0.0239062 0 -0.02125 0.0249219 0 -0.02125 0.0259375 0 -0.02125 0.0269531 0 -0.02125 0.0279688 0 -0.02125 0.0289844 0 -0.02125 0.03 0 -0.0140625 0.0226562 0 -0.0140625 0.0237305 0 -0.0140625 0.0248047 0 -0.0140625 0.0258789 0 -0.0140625 0.0269531 0 -0.0140625 0.0280273 0 -0.0140625 0.0291016 0 -0.0140625 0.0301758 0 -0.0140625 0.03125 0 -0.006875 0.0234375 0 -0.006875 0.0245703 0 -0.006875 0.0257031 0 -0.006875 0.0268359 0 -0.006875 0.0279688 0 -0.006875 0.0291016 0 -0.006875 0.0302344 0 -0.006875 0.0313672 0 -0.006875 0.0325 0 0.0003125 0.0242188 0 0.0003125 0.0254102 0 0.0003125 0.0266016 0 0.0003125 0.027793 0 0.0003125 0.0289844 0 0.0003125 0.0301758 0 0.0003125 0.0313672 0 0.0003125 0.0325586 0 0.0003125 0.03375 0 0.0075 0.025 0 0.0075 0.02625 0 0.0075 0.0275 0 0.0075 0.02875 0 0.0075 0.03 0 0.0075 0.03125 0 0.0075 0.0325 0 0.0075 0.03375 0 0.0075 0.035 0 
</DataArray>
</Points> 
</Piece> 
</StructuredGrid> 
</VTKFile> 
