<?xml version="1.0"?> 
<VTKFile type="StructuredGrid" version="0.1"> 
<StructuredGrid WholeExtent="0 8 0 8 0 0"> 
<Piece Extent="0 8 0 8 0 0"> 
<CellData>
<DataArray type="Float32" Name="err_h1" format="ascii" NumberOfComponents="1"> 
637.879 514.415 488.401 403.504 365.022 372.676 366.715 535.343 99.687 152.513 197.159 109.157 155.972 132.906 112.171 261.008 76.7208 114.598 126.692 155.013 153.161 193.342 125.6 215.885 21.9125 47.5415 37.8452 45.1814 55.9005 59.1047 57.3877 145.451 9.61048 23.0339 28.4473 43.3774 58.5345 82.905 57.9035 126.124 4.67659 14.4235 10.3723 17.8652 19.5126 21.9635 31.9417 88.2952 2.0949 6.89585 6.82837 11.3172 18.2954 29.9477 26.575 74.2308 1.40894 5.21871 3.10139 8.39999 6.46273 11.1214 20.7727 55.0702 
</DataArray> 
</CellData> 
<Points> 
<DataArray type="Float32" NumberOfComponents="3"> 
0.0075 0.0125 0 0.0075 0.0140625 0 0.0075 0.015625 0 0.0075 0.0171875 0 0.0075 0.01875 0 0.0075 0.0203125 0 0.0075 0.021875 0 0.0075 0.0234375 0 0.0075 0.025 0 0.01124 0.0125 0 0.0109288 0.0140625 0 0.0106175 0.015625 0 0.0103062 0.0171875 0 0.009995 0.01875 0 0.00968375 0.0203125 0 0.0093725 0.021875 0 0.00906125 0.0234375 0 0.00875 0.025 0 0.01498 0.0125 0 0.0143575 0.0140625 0 0.013735 0.015625 0 0.0131125 0.0171875 0 0.01249 0.01875 0 0.0118675 0.0203125 0 0.011245 0.021875 0 0.0106225 0.0234375 0 0.01 0.025 0 0.01872 0.0125 0 0.0177862 0.0140625 0 0.0168525 0.015625 0 0.0159188 0.0171875 0 0.014985 0.01875 0 0.0140512 0.0203125 0 0.0131175 0.021875 0 0.0121838 0.0234375 0 0.01125 0.025 0 0.02246 0.0125 0 0.021215 0.0140625 0 0.01997 0.015625 0 0.018725 0.0171875 0 0.01748 0.01875 0 0.016235 0.0203125 0 0.01499 0.021875 0 0.013745 0.0234375 0 0.0125 0.025 0 0.0262 0.0125 0 0.0246438 0.0140625 0 0.0230875 0.015625 0 0.0215313 0.0171875 0 0.019975 0.01875 0 0.0184188 0.0203125 0 0.0168625 0.021875 0 0.0153063 0.0234375 0 0.01375 0.025 0 0.02994 0.0125 0 0.0280725 0.0140625 0 0.026205 0.015625 0 0.0243375 0.0171875 0 0.02247 0.01875 0 0.0206025 0.0203125 0 0.018735 0.021875 0 0.0168675 0.0234375 0 0.015 0.025 0 0.03368 0.0125 0 0.0315013 0.0140625 0 0.0293225 0.015625 0 0.0271438 0.0171875 0 0.024965 0.01875 0 0.0227863 0.0203125 0 0.0206075 0.021875 0 0.0184288 0.0234375 0 0.01625 0.025 0 0.03742 0.0125 0 0.03493 0.0140625 0 0.03244 0.015625 0 0.02995 0.0171875 0 0.02746 0.01875 0 0.02497 0.0203125 0 0.02248 0.021875 0 0.01999 0.0234375 0 0.0175 0.025 0 
</DataArray>
</Points> 
</Piece> 
</StructuredGrid> 
</VTKFile> 
