<?xml version="1.0"?> 
<VTKFile type="StructuredGrid" version="0.1"> 
<StructuredGrid WholeExtent="0 8 0 8 0 0"> 
<Piece Extent="0 8 0 8 0 0"> 
<CellData>
<DataArray type="Float32" Name="err_h1" format="ascii" NumberOfComponents="1"> 
2.8298 3.85315 4.30532 5.63749 4.67869 5.88136 5.36511 4.56374 0.758522 1.41307 1.56513 1.41605 1.87012 3.03936 3.19504 4.47034 0.386119 0.505755 0.663052 0.803289 0.849296 1.32275 0.850242 1.50084 0.123449 0.168064 0.206084 0.198787 0.171851 0.224675 0.237845 0.296407 0.0309023 0.0376819 0.155475 0.159383 0.145693 0.162946 0.248545 0.275178 0.0111578 0.0154304 0.0475253 0.0673595 0.0759784 0.0684425 0.0830427 0.075828 0.00528243 0.00555554 0.0193467 0.0186787 0.0144032 0.0123415 0.00281686 0.00234294 0.00166101 0.00254041 0.00733319 0.00855277 0.00720938 0.00559853 0.00133861 0.000905036 
</DataArray> 
</CellData> 
<Points> 
<DataArray type="Float32" NumberOfComponents="3"> 
0.03742 0.02 0 0.03493 0.021875 0 0.03244 0.02375 0 0.02995 0.025625 0 0.02746 0.0275 0 0.02497 0.029375 0 0.02248 0.03125 0 0.01999 0.033125 0 0.0175 0.035 0 0.0428375 0.02 0 0.0406588 0.021875 0 0.03848 0.02375 0 0.0363013 0.025625 0 0.0341225 0.0275 0 0.0319437 0.029375 0 0.029765 0.03125 0 0.0275862 0.033125 0 0.0254075 0.035 0 0.048255 0.02 0 0.0463875 0.021875 0 0.04452 0.02375 0 0.0426525 0.025625 0 0.040785 0.0275 0 0.0389175 0.029375 0 0.03705 0.03125 0 0.0351825 0.033125 0 0.033315 0.035 0 0.0536725 0.02 0 0.0521162 0.021875 0 0.05056 0.02375 0 0.0490037 0.025625 0 0.0474475 0.0275 0 0.0458912 0.029375 0 0.044335 0.03125 0 0.0427788 0.033125 0 0.0412225 0.035 0 0.05909 0.02 0 0.057845 0.021875 0 0.0566 0.02375 0 0.055355 0.025625 0 0.05411 0.0275 0 0.052865 0.029375 0 0.05162 0.03125 0 0.050375 0.033125 0 0.04913 0.035 0 0.0645075 0.02 0 0.0635737 0.021875 0 0.06264 0.02375 0 0.0617062 0.025625 0 0.0607725 0.0275 0 0.0598387 0.029375 0 0.058905 0.03125 0 0.0579712 0.033125 0 0.0570375 0.035 0 0.069925 0.02 0 0.0693025 0.021875 0 0.06868 0.02375 0 0.0680575 0.025625 0 0.067435 0.0275 0 0.0668125 0.029375 0 0.06619 0.03125 0 0.0655675 0.033125 0 0.064945 0.035 0 0.0753425 0.02 0 0.0750313 0.021875 0 0.07472 0.02375 0 0.0744087 0.025625 0 0.0740975 0.0275 0 0.0737862 0.029375 0 0.073475 0.03125 0 0.0731637 0.033125 0 0.0728525 0.035 0 0.08076 0.02 0 0.08076 0.021875 0 0.08076 0.02375 0 0.08076 0.025625 0 0.08076 0.0275 0 0.08076 0.029375 0 0.08076 0.03125 0 0.08076 0.033125 0 0.08076 0.035 0 
</DataArray>
</Points> 
</Piece> 
</StructuredGrid> 
</VTKFile> 
