<?xml version="1.0"?> 
<VTKFile type="StructuredGrid" version="0.1"> 
<StructuredGrid WholeExtent="0 8 0 8 0 0"> 
<Piece Extent="0 8 0 8 0 0"> 
<CellData>
<DataArray type="Float32" Name="err_h1" format="ascii" NumberOfComponents="1"> 
497.997 395.251 322.879 319.944 329.517 457.457 598.804 965.725 501.883 440.431 385.54 385.322 340.05 453.487 427.271 686.71 96.4534 131.511 131.073 166.885 152.819 164.379 228.184 190.618 190.311 223.061 226.278 263.271 263.922 291.907 282.745 280.536 85.328 72.3641 93.502 76.8251 93.5976 76.8243 74.4215 67.3282 172.068 170.935 167.753 164.182 159.633 155.499 152.124 153.097 46.5466 43.5396 45.0587 43.992 45.0094 45.138 47.0305 45.1399 98.835 97.4309 96.5672 95.7125 95.149 94.5841 93.8256 92.3531 
</DataArray> 
</CellData> 
<Points> 
<DataArray type="Float32" NumberOfComponents="3"> 
0.09021 0.0098 0 0.0912962 0.0123258 0 0.0923823 0.0148516 0 0.0934685 0.0173774 0 0.0945546 0.0199032 0 0.0956408 0.022429 0 0.096727 0.0249548 0 0.0978131 0.0274806 0 0.0988993 0.0300064 0 0.103934 0.0098 0 0.104884 0.0123258 0 0.105835 0.0148516 0 0.106785 0.0173774 0 0.107735 0.0199032 0 0.108686 0.022429 0 0.109636 0.0249548 0 0.110586 0.0274806 0 0.111537 0.0300064 0 0.117657 0.0098 0 0.118472 0.0123258 0 0.119287 0.0148516 0 0.120101 0.0173774 0 0.120916 0.0199032 0 0.121731 0.022429 0 0.122545 0.0249548 0 0.12336 0.0274806 0 0.124174 0.0300064 0 0.131381 0.0098 0 0.13206 0.0123258 0 0.132739 0.0148516 0 0.133418 0.0173774 0 0.134097 0.0199032 0 0.134776 0.022429 0 0.135454 0.0249548 0 0.136133 0.0274806 0 0.136812 0.0300064 0 0.145105 0.0098 0 0.145648 0.0123258 0 0.146191 0.0148516 0 0.146734 0.0173774 0 0.147277 0.0199032 0 0.14782 0.022429 0 0.148363 0.0249548 0 0.148907 0.0274806 0 0.14945 0.0300064 0 0.158829 0.0098 0 0.159236 0.0123258 0 0.159643 0.0148516 0 0.160051 0.0173774 0 0.160458 0.0199032 0 0.160865 0.022429 0 0.161273 0.0249548 0 0.16168 0.0274806 0 0.162087 0.0300064 0 0.172553 0.0098 0 0.172824 0.0123258 0 0.173096 0.0148516 0 0.173367 0.0173774 0 0.173639 0.0199032 0 0.17391 0.022429 0 0.174182 0.0249548 0 0.174453 0.0274806 0 0.174725 0.0300064 0 0.186276 0.0098 0 0.186412 0.0123258 0 0.186548 0.0148516 0 0.186684 0.0173774 0 0.186819 0.0199032 0 0.186955 0.022429 0 0.187091 0.0249548 0 0.187227 0.0274806 0 0.187362 0.0300064 0 0.2 0.0098 0 0.2 0.0123258 0 0.2 0.0148516 0 0.2 0.0173774 0 0.2 0.0199032 0 0.2 0.022429 0 0.2 0.0249548 0 0.2 0.0274806 0 0.2 0.0300064 0 
</DataArray>
</Points> 
</Piece> 
</StructuredGrid> 
</VTKFile> 
