<?xml version="1.0"?> 
<VTKFile type="StructuredGrid" version="0.1"> 
<StructuredGrid WholeExtent="0 8 0 8 0 0"> 
<Piece Extent="0 8 0 8 0 0"> 
<CellData>
<DataArray type="Float32" Name="err_h1" format="ascii" NumberOfComponents="1"> 
3283.29 3812.61 1251.24 1494.64 895.746 987.868 861.158 759.844 640.183 1222.12 1849.1 1247.87 1082.11 784.165 781.854 646.037 417.493 862.12 1068.69 1479.9 677.739 864.524 522.049 549.235 379.329 419.155 735.657 785.921 812.022 643.742 468.78 399.143 348.077 319.984 570.403 765.018 520.682 690.398 280.491 354.237 537.408 442.268 603.418 576.352 468.803 475.759 246.765 243.048 654.262 506.188 571.914 639.213 434.778 483.439 226.714 237.659 1628.55 1295.09 758.228 702.736 400.539 409.178 181.185 196.405 
</DataArray> 
</CellData> 
<Points> 
<DataArray type="Float32" NumberOfComponents="3"> 
0.0075 0.05 0 0.0003125 0.0625 0 -0.006875 0.075 0 -0.0140625 0.0875 0 -0.02125 0.1 0 -0.0284375 0.1125 0 -0.035625 0.125 0 -0.0428125 0.1375 0 -0.05 0.15 0 0.017255 0.05 0 0.0109659 0.0625 0 0.00467687 0.075 0 -0.00161219 0.0875 0 -0.00790125 0.1 0 -0.0141903 0.1125 0 -0.0204794 0.125 0 -0.0267684 0.1375 0 -0.0330575 0.15 0 0.02701 0.05 0 0.0216194 0.0625 0 0.0162287 0.075 0 0.0108381 0.0875 0 0.0054475 0.1 0 5.6875e-05 0.1125 0 -0.00533375 0.125 0 -0.0107244 0.1375 0 -0.016115 0.15 0 0.036765 0.05 0 0.0322728 0.0625 0 0.0277806 0.075 0 0.0232884 0.0875 0 0.0187963 0.1 0 0.0143041 0.1125 0 0.00981188 0.125 0 0.00531969 0.1375 0 0.0008275 0.15 0 0.04652 0.05 0 0.0429263 0.0625 0 0.0393325 0.075 0 0.0357388 0.0875 0 0.032145 0.1 0 0.0285513 0.1125 0 0.0249575 0.125 0 0.0213638 0.1375 0 0.01777 0.15 0 0.056275 0.05 0 0.0535797 0.0625 0 0.0508844 0.075 0 0.0481891 0.0875 0 0.0454937 0.1 0 0.0427984 0.1125 0 0.0401031 0.125 0 0.0374078 0.1375 0 0.0347125 0.15 0 0.06603 0.05 0 0.0642331 0.0625 0 0.0624363 0.075 0 0.0606394 0.0875 0 0.0588425 0.1 0 0.0570456 0.1125 0 0.0552488 0.125 0 0.0534519 0.1375 0 0.051655 0.15 0 0.075785 0.05 0 0.0748866 0.0625 0 0.0739881 0.075 0 0.0730897 0.0875 0 0.0721913 0.1 0 0.0712928 0.1125 0 0.0703944 0.125 0 0.0694959 0.1375 0 0.0685975 0.15 0 0.08554 0.05 0 0.08554 0.0625 0 0.08554 0.075 0 0.08554 0.0875 0 0.08554 0.1 0 0.08554 0.1125 0 0.08554 0.125 0 0.08554 0.1375 0 0.08554 0.15 0 
</DataArray>
</Points> 
</Piece> 
</StructuredGrid> 
</VTKFile> 
