<?xml version="1.0"?> 
<VTKFile type="StructuredGrid" version="0.1"> 
<StructuredGrid WholeExtent="0 8 0 8 0 0"> 
<Piece Extent="0 8 0 8 0 0"> 
<CellData>
<DataArray type="Float32" Name="err_h1" format="ascii" NumberOfComponents="1"> 
111.424 121.24 136.291 163.753 193.071 237.974 284.873 352.653 242.807 246.515 254.556 266.046 283.192 303.736 332.526 364.876 69.4782 70.6334 81.8562 84.8812 104.615 108.785 135.129 139.866 78.1567 80.2196 83.4937 89.555 96.0811 105.937 115.826 129.47 45.9187 45.3467 47.5928 45.7545 50.9015 47.4607 56.8764 51.4135 125.556 125.408 125.304 124.81 124.52 123.528 122.887 121.133 30.4803 30.4801 30.4651 30.5085 30.4308 30.6519 30.4602 31.0859 69.018 69.0192 69.0249 69.0409 69.0688 69.138 69.226 69.4175 
</DataArray> 
</CellData> 
<Points> 
<DataArray type="Float32" NumberOfComponents="3"> 
0.09021 0 0 0.09021 0.001225 0 0.09021 0.00245 0 0.09021 0.003675 0 0.09021 0.0049 0 0.09021 0.006125 0 0.09021 0.00735 0 0.09021 0.008575 0 0.09021 0.0098 0 0.103934 0 0 0.103934 0.001225 0 0.103934 0.00245 0 0.103934 0.003675 0 0.103934 0.0049 0 0.103934 0.006125 0 0.103934 0.00735 0 0.103934 0.008575 0 0.103934 0.0098 0 0.117657 0 0 0.117657 0.001225 0 0.117657 0.00245 0 0.117657 0.003675 0 0.117657 0.0049 0 0.117657 0.006125 0 0.117657 0.00735 0 0.117657 0.008575 0 0.117657 0.0098 0 0.131381 0 0 0.131381 0.001225 0 0.131381 0.00245 0 0.131381 0.003675 0 0.131381 0.0049 0 0.131381 0.006125 0 0.131381 0.00735 0 0.131381 0.008575 0 0.131381 0.0098 0 0.145105 0 0 0.145105 0.001225 0 0.145105 0.00245 0 0.145105 0.003675 0 0.145105 0.0049 0 0.145105 0.006125 0 0.145105 0.00735 0 0.145105 0.008575 0 0.145105 0.0098 0 0.158829 0 0 0.158829 0.001225 0 0.158829 0.00245 0 0.158829 0.003675 0 0.158829 0.0049 0 0.158829 0.006125 0 0.158829 0.00735 0 0.158829 0.008575 0 0.158829 0.0098 0 0.172553 0 0 0.172553 0.001225 0 0.172553 0.00245 0 0.172553 0.003675 0 0.172553 0.0049 0 0.172553 0.006125 0 0.172553 0.00735 0 0.172553 0.008575 0 0.172553 0.0098 0 0.186276 0 0 0.186276 0.001225 0 0.186276 0.00245 0 0.186276 0.003675 0 0.186276 0.0049 0 0.186276 0.006125 0 0.186276 0.00735 0 0.186276 0.008575 0 0.186276 0.0098 0 0.2 0 0 0.2 0.001225 0 0.2 0.00245 0 0.2 0.003675 0 0.2 0.0049 0 0.2 0.006125 0 0.2 0.00735 0 0.2 0.008575 0 0.2 0.0098 0 
</DataArray>
</Points> 
</Piece> 
</StructuredGrid> 
</VTKFile> 
