<?xml version="1.0"?> 
<VTKFile type="StructuredGrid" version="0.1"> 
<StructuredGrid WholeExtent="0 15 0 15 0 0"> 
<Piece Extent="0 15 0 15 0 0"> 
<PointData>
<DataArray type="Float32" Name="|E|" format="ascii" NumberOfComponents="3"> 
-1.78814e-07 5.55879e+06 0 2.06637e-09 3.85504e+06 0 5.12227e-08 2.90385e+06 0 -4.56348e-08 2.266e+06 0 3.49246e-08 1.74533e+06 0 -7.45058e-09 1.29042e+06 0 3.25963e-08 893891 0 -5.58794e-08 569535 0 5.40167e-08 331807 0 -5.40167e-08 178625 0 9.68575e-08 90832.4 0 -1.22935e-07 44606.3 0 1.08033e-07 21526.1 0 -8.56817e-08 10264.4 0 3.72529e-08 4957.73 0 0 3279.73 0 -414813 4.23488e+06 0 -240489 3.16396e+06 0 -171122 2.48371e+06 0 -143466 1.95178e+06 0 -126749 1.49061e+06 0 -111313 1.0818e+06 0 -91985.8 731397 0 -68547.1 455223 0 -45203 261263 0 -26652.4 140432 0 -14467.8 72219.3 0 -7460.38 36202.9 0 -3741.34 17903.2 0 -1844.81 8815.55 0 -890.583 4352.81 0 -138.156 2127.29 0 -534991 3.33306e+06 0 -366912 2.65025e+06 0 -300904 2.11947e+06 0 -265345 1.65983e+06 0 -236859 1.24762e+06 0 -204186 882527 0 -162387 578548 0 -115770 349914 0 -73700.8 197247 0 -42732.6 105709 0 -23239.5 54944.6 0 -12170.7 28091.9 0 -6242.97 14248.8 0 -3162.03 7206.83 0 -1553.31 3663.14 0 -624.68 1742.32 0 -573697 2.74508e+06 0 -467598 2.24043e+06 0 -411924 1.79182e+06 0 -371133 1.38445e+06 0 -329090 1.01435e+06 0 -274772 692401 0 -208707 436213 0 -142160 255008 0 -87691.7 140989 0 -50250.1 75392.2 0 -27489.3 39642.5 0 -14649.6 20682 0 -7693.85 10755.8 0 -4000.34 5591.74 0 -2029.59 2910.98 0 -990.294 1427.3 0 -635129 2.30887e+06 0 -561601 1.88184e+06 0 -509755 1.48695e+06 0 -460791 1.12018e+06 0 -398887 789104 0 -318520 512518 0 -229642 307010 0 -149630 172681 0 -89950.2 93689.5 0 -51270.9 50106.6 0 -28340 26698.1 0 -15402.8 14223.4 0 -8291.16 7585.04 0 -4427.43 4052.08 0 -2325.97 2156.06 0 -1219.69 1095.06 0 -708862 1.92766e+06 0 -648495 1.55164e+06 0 -594861 1.19502e+06 0 -528967 862361 0 -439165 572120 0 -331491 346868 0 -226158 195108 0 -141649 105170 0 -83689.4 56085.6 0 -47807 30067.7 0 -26821.9 16252.5 0 -14901.5 8843.49 0 -8229.3 4835.23 0 -4517.03 2650.92 0 -2455.06 1440.05 0 -1341.96 754.178 0 -783376 1.57664e+06 0 -727858 1.23571e+06 0 -660704 907208 0 -565145 609041 0 -442078 368587 0 -312753 202767 0 -202375 105086 0 -123031 53835.3 0 -72225.4 28121.1 0 -41668.9 15066.1 0 -23830.1 8236.65 0 -13561.4 4566.28 0 -7690.87 2554.28 0 -4342.72 1432.32 0 -2438.35 790.388 0 -1376.52 421.971 0 -856994 1.23993e+06 0 -791265 919930 0 -692033 617785 0 -555575 366277 0 -403371 190366 0 -267017 89059.7 0 -165552 39943.5 0 -99151.5 18347.7 0 -58527 8892.68 0 -34340.5 4545.02 0 -20090.2 2425.39 0 -11732 1336.15 0 -6838.68 750.326 0 -3974.67 420.437 0 -2302.46 225.096 0 -1338.26 113.476 0 -918930 896738 0 -816503 592956 0 -666037 333771 0 -490604 152687 0 -328423 53401.7 0 -205502 11977.5 0 -124513 -882.414 0 -74770.1 -3441.89 0 -44850.5 -3120.44 0 -26909 -2262.33 0 -16148.6 -1501.93 0 -9690.82 -956.499 0 -5810.61 -599.087 0 -3477.28 -377.789 0 -2075.91 -245.267 0 -1240.17 -160.096 0 -935783 528714 0 -766508 264112 0 -565031 84701.7 0 -377147 -4327.16 0 -235231 -30679.3 0 -142886 -29499.8 0 -86824.8 -21841.4 0 -53086.2 -14823.7 0 -32599.4 -9678.5 0 -20073.7 -6185.84 0 -12382.8 -3906.33 0 -7644.54 -2452.15 0 -4717.78 -1537.85 0 -2907.22 -969.224 0 -1786.72 -616.447 0 -1095.1 -390.928 0 -847339 151175 0 -613312 -17623 0 -400950 -83752.8 0 -245556 -85447.4 0 -148252 -64733.5 0 -90872 -44302 0 -56582 -29373.3 0 -35533.7 -19201.5 0 -22431.8 -12435.7 0 -14211.8 -8010.09 0 -9024.15 -5145.3 0 -5735.56 -3302.71 0 -3644.62 -2123.2 0 -2312.23 -1370.79 0 -1460.88 -889.791 0 -915.701 -574.742 0 -616404 -152137 0 -384654 -178491 0 -227332 -144287 0 -135717 -100092 0 -84167.5 -66571.3 0 -53534.1 -44190.7 0 -34412.6 -29300.7 0 -22271.3 -19354.1 0 -14489.9 -12761.9 0 -9460.08 -8410 0 -6188.42 -5543.05 0 -4051.29 -3657.13 0 -2651.02 -2418.58 0 -1730.53 -1606.15 0 -1121.27 -1071.57 0 -713.236 -710.64 0 -313675 -270825 0 -175992 -191434 0 -104827 -125337 0 -66930.3 -82769.4 0 -43817.5 -55851.1 0 -28883.7 -37817.7 0 -19172.5 -25557.7 0 -12819.7 -17277.7 0 -8607.89 -11695.8 0 -5795.66 -7923.59 0 -3907.3 -5374.49 0 -2635.28 -3651.47 0 -1775.41 -2487.93 0 -1191.02 -1702.9 0 -787.305 -1172.24 0 -498.019 -801.71 0 -99987.6 -206039 0 -63865.8 -129718 0 -43623.1 -88085.6 0 -29491.1 -61497.9 0 -19871.9 -42708.1 0 -13545.4 -29574.2 0 -9325.43 -20531.2 0 -6447.38 -14293.5 0 -4469.08 -9962.59 0 -3103.41 -6952.84 0 -2156.49 -4859.39 0 -1498.32 -3403.22 0 -1038.56 -2391.4 0 -714.192 -1690.23 0 -475.745 -1206.03 0 -274.434 -859.499 0 -29288.8 -112225 0 -20785.2 -83277.6 0 -13709.3 -60350.9 0 -9337.7 -42770.6 0 -6610.63 -30373.2 0 -4707.36 -21718.2 0 -3354.84 -15572.6 0 -2394.05 -11177.3 0 -1713.41 -8031.3 0 -1226.61 -5778.94 0 -878.611 -4164.66 0 -628.483 -3008.75 0 -447.645 -2182.55 0 -313.88 -1596.89 0 -204.254 -1190.71 0 -52.9049 -915.077 0 1.01328e-06 -62040.7 0 -9.27248e-08 -48400.2 0 1.72295e-08 -38381.2 0 -6.98492e-09 -28369.7 0 -2.04891e-08 -20687.6 0 -1.30385e-08 -15238 0 8.19564e-08 -11271.2 0 -8.9407e-08 -8345.26 0 3.35276e-08 -6182.49 0 -7.07805e-08 -4587.52 0 7.45058e-08 -3410.28 0 -4.47035e-08 -2542.47 0 1.49012e-08 -1906.67 0 -8.19564e-08 -1445.18 0 4.47035e-08 -1140.05 0 -2.38419e-07 -1149.77 0 </DataArray> 
</PointData> 
<Points> 
<DataArray type="Float32" NumberOfComponents="3"> 
0.075 0.021 0 0.0783333 0.021 0 0.0816667 0.021 0 0.085 0.021 0 0.0883333 0.021 0 0.0916667 0.021 0 0.095 0.021 0 0.0983333 0.021 0 0.101667 0.021 0 0.105 0.021 0 0.108333 0.021 0 0.111667 0.021 0 0.115 0.021 0 0.118333 0.021 0 0.121667 0.021 0 0.125 0.021 0 0.0773333 0.0219333 0 0.0805333 0.0219333 0 0.0837333 0.0219333 0 0.0869333 0.0219333 0 0.0901333 0.0219333 0 0.0933333 0.0219333 0 0.0965333 0.0219333 0 0.0997333 0.0219333 0 0.102933 0.0219333 0 0.106133 0.0219333 0 0.109333 0.0219333 0 0.112533 0.0219333 0 0.115733 0.0219333 0 0.118933 0.0219333 0 0.122133 0.0219333 0 0.125333 0.0219333 0 0.0796667 0.0228667 0 0.0827333 0.0228667 0 0.0858 0.0228667 0 0.0888667 0.0228667 0 0.0919333 0.0228667 0 0.095 0.0228667 0 0.0980667 0.0228667 0 0.101133 0.0228667 0 0.1042 0.0228667 0 0.107267 0.0228667 0 0.110333 0.0228667 0 0.1134 0.0228667 0 0.116467 0.0228667 0 0.119533 0.0228667 0 0.1226 0.0228667 0 0.125667 0.0228667 0 0.082 0.0238 0 0.0849333 0.0238 0 0.0878667 0.0238 0 0.0908 0.0238 0 0.0937333 0.0238 0 0.0966667 0.0238 0 0.0996 0.0238 0 0.102533 0.0238 0 0.105467 0.0238 0 0.1084 0.0238 0 0.111333 0.0238 0 0.114267 0.0238 0 0.1172 0.0238 0 0.120133 0.0238 0 0.123067 0.0238 0 0.126 0.0238 0 0.0843333 0.0247333 0 0.0871333 0.0247333 0 0.0899333 0.0247333 0 0.0927333 0.0247333 0 0.0955333 0.0247333 0 0.0983333 0.0247333 0 0.101133 0.0247333 0 0.103933 0.0247333 0 0.106733 0.0247333 0 0.109533 0.0247333 0 0.112333 0.0247333 0 0.115133 0.0247333 0 0.117933 0.0247333 0 0.120733 0.0247333 0 0.123533 0.0247333 0 0.126333 0.0247333 0 0.0866667 0.0256667 0 0.0893333 0.0256667 0 0.092 0.0256667 0 0.0946667 0.0256667 0 0.0973333 0.0256667 0 0.1 0.0256667 0 0.102667 0.0256667 0 0.105333 0.0256667 0 0.108 0.0256667 0 0.110667 0.0256667 0 0.113333 0.0256667 0 0.116 0.0256667 0 0.118667 0.0256667 0 0.121333 0.0256667 0 0.124 0.0256667 0 0.126667 0.0256667 0 0.089 0.0266 0 0.0915333 0.0266 0 0.0940667 0.0266 0 0.0966 0.0266 0 0.0991333 0.0266 0 0.101667 0.0266 0 0.1042 0.0266 0 0.106733 0.0266 0 0.109267 0.0266 0 0.1118 0.0266 0 0.114333 0.0266 0 0.116867 0.0266 0 0.1194 0.0266 0 0.121933 0.0266 0 0.124467 0.0266 0 0.127 0.0266 0 0.0913333 0.0275333 0 0.0937333 0.0275333 0 0.0961333 0.0275333 0 0.0985333 0.0275333 0 0.100933 0.0275333 0 0.103333 0.0275333 0 0.105733 0.0275333 0 0.108133 0.0275333 0 0.110533 0.0275333 0 0.112933 0.0275333 0 0.115333 0.0275333 0 0.117733 0.0275333 0 0.120133 0.0275333 0 0.122533 0.0275333 0 0.124933 0.0275333 0 0.127333 0.0275333 0 0.0936667 0.0284667 0 0.0959333 0.0284667 0 0.0982 0.0284667 0 0.100467 0.0284667 0 0.102733 0.0284667 0 0.105 0.0284667 0 0.107267 0.0284667 0 0.109533 0.0284667 0 0.1118 0.0284667 0 0.114067 0.0284667 0 0.116333 0.0284667 0 0.1186 0.0284667 0 0.120867 0.0284667 0 0.123133 0.0284667 0 0.1254 0.0284667 0 0.127667 0.0284667 0 0.096 0.0294 0 0.0981333 0.0294 0 0.100267 0.0294 0 0.1024 0.0294 0 0.104533 0.0294 0 0.106667 0.0294 0 0.1088 0.0294 0 0.110933 0.0294 0 0.113067 0.0294 0 0.1152 0.0294 0 0.117333 0.0294 0 0.119467 0.0294 0 0.1216 0.0294 0 0.123733 0.0294 0 0.125867 0.0294 0 0.128 0.0294 0 0.0983333 0.0303333 0 0.100333 0.0303333 0 0.102333 0.0303333 0 0.104333 0.0303333 0 0.106333 0.0303333 0 0.108333 0.0303333 0 0.110333 0.0303333 0 0.112333 0.0303333 0 0.114333 0.0303333 0 0.116333 0.0303333 0 0.118333 0.0303333 0 0.120333 0.0303333 0 0.122333 0.0303333 0 0.124333 0.0303333 0 0.126333 0.0303333 0 0.128333 0.0303333 0 0.100667 0.0312667 0 0.102533 0.0312667 0 0.1044 0.0312667 0 0.106267 0.0312667 0 0.108133 0.0312667 0 0.11 0.0312667 0 0.111867 0.0312667 0 0.113733 0.0312667 0 0.1156 0.0312667 0 0.117467 0.0312667 0 0.119333 0.0312667 0 0.1212 0.0312667 0 0.123067 0.0312667 0 0.124933 0.0312667 0 0.1268 0.0312667 0 0.128667 0.0312667 0 0.103 0.0322 0 0.104733 0.0322 0 0.106467 0.0322 0 0.1082 0.0322 0 0.109933 0.0322 0 0.111667 0.0322 0 0.1134 0.0322 0 0.115133 0.0322 0 0.116867 0.0322 0 0.1186 0.0322 0 0.120333 0.0322 0 0.122067 0.0322 0 0.1238 0.0322 0 0.125533 0.0322 0 0.127267 0.0322 0 0.129 0.0322 0 0.105333 0.0331333 0 0.106933 0.0331333 0 0.108533 0.0331333 0 0.110133 0.0331333 0 0.111733 0.0331333 0 0.113333 0.0331333 0 0.114933 0.0331333 0 0.116533 0.0331333 0 0.118133 0.0331333 0 0.119733 0.0331333 0 0.121333 0.0331333 0 0.122933 0.0331333 0 0.124533 0.0331333 0 0.126133 0.0331333 0 0.127733 0.0331333 0 0.129333 0.0331333 0 0.107667 0.0340667 0 0.109133 0.0340667 0 0.1106 0.0340667 0 0.112067 0.0340667 0 0.113533 0.0340667 0 0.115 0.0340667 0 0.116467 0.0340667 0 0.117933 0.0340667 0 0.1194 0.0340667 0 0.120867 0.0340667 0 0.122333 0.0340667 0 0.1238 0.0340667 0 0.125267 0.0340667 0 0.126733 0.0340667 0 0.1282 0.0340667 0 0.129667 0.0340667 0 0.11 0.035 0 0.111333 0.035 0 0.112667 0.035 0 0.114 0.035 0 0.115333 0.035 0 0.116667 0.035 0 0.118 0.035 0 0.119333 0.035 0 0.120667 0.035 0 0.122 0.035 0 0.123333 0.035 0 0.124667 0.035 0 0.126 0.035 0 0.127333 0.035 0 0.128667 0.035 0 0.13 0.035 0 
</DataArray>
</Points> 
</Piece> 
</StructuredGrid> 
</VTKFile> 
