<?xml version="1.0"?> 
<VTKFile type="StructuredGrid" version="0.1"> 
<StructuredGrid WholeExtent="0 15 0 15 0 0"> 
<Piece Extent="0 15 0 15 0 0"> 
<PointData>
<DataArray type="Float32" Name="|E|" format="ascii" NumberOfComponents="3"> 
728.886 1.19209e-06 0 -27.0197 -178.023 0 -48.9733 -108.747 0 -46.4581 -33.8965 0 -34.1733 -27.7723 0 -22.8792 -9.63564 0 -15.4464 -7.96558 0 -9.78819 -3.43262 0 -6.41052 -2.56218 0 -4.02309 -1.34496 0 -2.60608 -0.895167 0 -1.65581 -0.529831 0 -1.0954 -0.316324 0 -0.749644 -0.185353 0 -0.57318 -0.075964 0 -0.519249 3.09944e-06 0 458.269 -2.15136e-07 0 16.4149 -167.029 0 -39.9486 -93.216 0 -40.997 -43.2798 0 -31.0998 -25.8484 0 -21.861 -13.2016 0 -14.4688 -8.18747 0 -9.52773 -4.61635 0 -6.08751 -2.89356 0 -3.92862 -1.73484 0 -2.49526 -1.08245 0 -1.61453 -0.661489 0 -1.05478 -0.398732 0 -0.72886 -0.225531 0 -0.554678 -0.100942 0 -0.500385 -2.45171e-07 0 305.846 1.20606e-07 0 36.6377 -145.602 0 -30.6072 -85.3718 0 -35.7207 -46.8309 0 -28.3724 -26.3111 0 -20.441 -15.246 0 -13.6421 -8.98057 0 -9.0725 -5.45948 0 -5.80746 -3.32622 0 -3.76323 -2.06339 0 -2.39172 -1.27547 0 -1.54983 -0.787046 0 -1.01295 -0.475264 0 -0.700255 -0.267994 0 -0.533035 -0.121303 0 -0.481045 6.14673e-08 0 215.606 -1.85333e-07 0 44.5878 -123.074 0 -22.2358 -80.0166 0 -30.8062 -47.897 0 -25.7414 -27.4536 0 -18.8887 -16.6545 0 -12.801 -9.91342 0 -8.5375 -6.15657 0 -5.50775 -3.77326 0 -3.56512 -2.3607 0 -2.27638 -1.46369 0 -1.47258 -0.90619 0 -0.965065 -0.547765 0 -0.666397 -0.309438 0 -0.507796 -0.139913 0 -0.4586 -2.18861e-07 0 159.09 3.31551e-07 0 46.0571 -102.956 0 -15.2935 -75.269 0 -26.3151 -47.8958 0 -23.155 -28.6207 0 -17.2955 -17.7741 0 -11.9038 -10.8223 0 -7.95877 -6.77855 0 -5.1732 -4.20151 0 -3.34554 -2.63668 0 -2.14508 -1.64243 0 -1.38587 -1.01854 0 -0.910261 -0.616352 0 -0.628064 -0.348759 0 -0.478986 -0.157459 0 -0.432744 2.47732e-07 0 121.535 -2.90573e-07 0 44.1507 -86.1645 0 -9.83273 -70.6294 0 -22.264 -47.4086 0 -20.6226 -29.6036 0 -15.691 -18.7284 0 -10.9492 -11.6534 0 -7.34639 -7.34691 0 -4.80387 -4.59933 0 -3.10741 -2.89335 0 -1.99828 -1.80946 0 -1.29055 -1.12356 0 -0.848853 -0.68065 0 -0.585554 -0.38554 0 -0.446796 -0.173969 0 -0.40371 -1.08033e-07 0 95.1089 7.07805e-08 0 40.5425 -72.603 0 -5.72234 -66.0905 0 -18.6479 -46.6844 0 -18.1656 -30.3645 0 -14.0848 -19.5582 0 -9.94706 -12.3936 0 -6.70339 -7.86577 0 -4.40369 -4.96275 0 -2.8517 -3.13012 0 -1.83748 -1.96352 0 -1.18703 -1.22067 0 -0.781421 -0.740209 0 -0.539098 -0.419549 0 -0.411469 -0.189316 0 -0.371796 8.56817e-08 0 75.5099 8.19564e-08 0 36.139 -61.8389 0 -2.76416 -61.7785 0 -15.4477 -45.8451 0 -15.801 -30.9249 0 -12.4818 -20.2768 0 -8.90783 -13.0431 0 -6.03185 -8.33413 0 -3.97695 -5.29032 0 -2.57936 -3.34567 0 -1.6643 -2.10369 0 -1.0758 -1.30927 0 -0.708561 -0.794606 0 -0.488966 -0.450588 0 -0.373271 -0.203366 0 -0.337278 -3.72529e-08 0 60.2882 -9.68575e-08 0 31.4258 -53.3847 0 -0.750094 -57.8233 0 -12.6332 -44.9647 0 -13.5376 -31.3218 0 -10.8855 -20.8903 0 -7.84035 -13.6056 0 -5.33432 -8.75006 0 -3.52747 -5.58128 0 -2.29169 -3.53869 0 -1.48021 -2.22921 0 -0.957473 -1.38881 0 -0.63085 -0.843469 0 -0.435476 -0.478469 0 -0.332478 -0.216004 0 -0.300419 1.41561e-07 0 47.9824 8.9407e-08 0 26.6559 -46.805 0 0.512009 -54.3195 0 -10.1662 -44.0983 0 -11.3767 -31.5924 0 -9.29872 -21.4041 0 -6.75148 -14.0852 0 -4.61389 -9.11201 0 -3.05862 -5.83498 0 -1.99029 -3.70803 0 -1.2866 -2.33941 0 -0.832796 -1.45877 0 -0.548856 -0.886473 0 -0.378989 -0.503017 0 -0.289378 -0.227136 0 -0.261479 -2.98023e-07 0 37.6771 1.04308e-07 0 21.9518 -41.744 0 1.18913 -51.325 0 -8.00255 -43.2911 0 -9.31329 -31.7692 0 -7.72335 -21.8242 0 -5.64653 -14.4855 0 -3.87395 -9.41896 0 -2.57343 -6.05083 0 -1.67697 -3.85276 0 -1.0848 -2.4337 0 -0.702591 -1.51871 0 -0.463151 -0.923339 0 -0.319891 -0.524071 0 -0.244274 -0.236685 0 -0.220729 1.93715e-07 0 28.7672 -2.38419e-07 0 17.3625 -37.9263 0 1.42199 -48.8688 0 -6.09415 -42.5809 0 -7.33732 -31.8791 0 -6.16007 -22.157 0 -4.52963 -14.8093 0 -3.11796 -9.67037 0 -2.07478 -6.22826 0 -1.35364 -3.97214 0 -0.876141 -2.51157 0 -0.567726 -1.56827 0 -0.374322 -0.953829 0 -0.258591 -0.541492 0 -0.197479 -0.244585 0 -0.178449 -1.19209e-07 0 20.8293 1.49012e-07 0 12.8951 -35.1464 0 1.3279 -46.9614 0 -4.39091 -41.9978 0 -5.4352 -31.9432 0 -4.6083 -22.4086 0 -3.40406 -15.0588 0 -2.34932 -9.86598 0 -1.56541 -6.36679 0 -1.02227 -4.06557 0 -0.661964 -2.57257 0 -0.429106 -1.60713 0 -0.28297 -0.977748 0 -0.195514 -0.555163 0 -0.149317 -0.250785 0 -0.134932 7.45058e-08 0 13.5489 -1.93715e-07 0 8.53306 -33.2574 0 1.00509 -45.6034 0 -2.84173 -41.5652 0 -3.59059 -31.9777 0 -3.06627 -22.5841 0 -2.27249 -15.2359 0 -1.57134 -10.0057 0 -1.04804 -6.46601 0 -0.684873 -4.13262 0 -0.443629 -2.61639 0 -0.287651 -1.63506 0 -0.189712 -0.994943 0 -0.131093 -0.564993 0 -0.100122 -0.255243 0 -0.090478 -5.96046e-08 0 6.67663 1.78814e-07 0 4.24684 -32.1613 0 0.537564 -44.791 0 -1.39522 -41.2992 0 -1.78532 -31.994 0 -1.53129 -22.6878 0 -1.13715 -15.3416 0 -0.787197 -10.0895 0 -0.525348 -6.52566 0 -0.343444 -4.17297 0 -0.222511 -2.64278 0 -0.144301 -1.65188 0 -0.0951763 -1.0053 0 -0.0657721 -0.570918 0 -0.0502349 -0.257929 0 -0.0453966 8.9407e-08 0 3.57628e-07 -1.19209e-06 0 2.6921e-09 -31.8021 0 -4.7381e-08 -44.5207 0 4.51691e-08 -41.2095 0 -2.84053e-08 -31.9986 0 -1.86265e-09 -22.7221 0 4.09782e-08 -15.3767 0 -3.35276e-08 -10.1175 0 9.31323e-09 -6.54557 0 -1.86265e-09 -4.18644 0 -1.11759e-08 -2.65159 0 3.72529e-09 -1.6575 0 7.45058e-09 -1.00876 0 -1.11759e-08 -0.572897 0 -2.23517e-08 -0.258827 0 1.78814e-07 -5.96046e-07 0 </DataArray> 
</PointData> 
<Points> 
<DataArray type="Float32" NumberOfComponents="3"> 
0.13 0.035 0 0.133667 0.035 0 0.137333 0.035 0 0.141 0.035 0 0.144667 0.035 0 0.148333 0.035 0 0.152 0.035 0 0.155667 0.035 0 0.159333 0.035 0 0.163 0.035 0 0.166667 0.035 0 0.170333 0.035 0 0.174 0.035 0 0.177667 0.035 0 0.181333 0.035 0 0.185 0.035 0 0.13 0.0356667 0 0.133667 0.0356667 0 0.137333 0.0356667 0 0.141 0.0356667 0 0.144667 0.0356667 0 0.148333 0.0356667 0 0.152 0.0356667 0 0.155667 0.0356667 0 0.159333 0.0356667 0 0.163 0.0356667 0 0.166667 0.0356667 0 0.170333 0.0356667 0 0.174 0.0356667 0 0.177667 0.0356667 0 0.181333 0.0356667 0 0.185 0.0356667 0 0.13 0.0363333 0 0.133667 0.0363333 0 0.137333 0.0363333 0 0.141 0.0363333 0 0.144667 0.0363333 0 0.148333 0.0363333 0 0.152 0.0363333 0 0.155667 0.0363333 0 0.159333 0.0363333 0 0.163 0.0363333 0 0.166667 0.0363333 0 0.170333 0.0363333 0 0.174 0.0363333 0 0.177667 0.0363333 0 0.181333 0.0363333 0 0.185 0.0363333 0 0.13 0.037 0 0.133667 0.037 0 0.137333 0.037 0 0.141 0.037 0 0.144667 0.037 0 0.148333 0.037 0 0.152 0.037 0 0.155667 0.037 0 0.159333 0.037 0 0.163 0.037 0 0.166667 0.037 0 0.170333 0.037 0 0.174 0.037 0 0.177667 0.037 0 0.181333 0.037 0 0.185 0.037 0 0.13 0.0376667 0 0.133667 0.0376667 0 0.137333 0.0376667 0 0.141 0.0376667 0 0.144667 0.0376667 0 0.148333 0.0376667 0 0.152 0.0376667 0 0.155667 0.0376667 0 0.159333 0.0376667 0 0.163 0.0376667 0 0.166667 0.0376667 0 0.170333 0.0376667 0 0.174 0.0376667 0 0.177667 0.0376667 0 0.181333 0.0376667 0 0.185 0.0376667 0 0.13 0.0383333 0 0.133667 0.0383333 0 0.137333 0.0383333 0 0.141 0.0383333 0 0.144667 0.0383333 0 0.148333 0.0383333 0 0.152 0.0383333 0 0.155667 0.0383333 0 0.159333 0.0383333 0 0.163 0.0383333 0 0.166667 0.0383333 0 0.170333 0.0383333 0 0.174 0.0383333 0 0.177667 0.0383333 0 0.181333 0.0383333 0 0.185 0.0383333 0 0.13 0.039 0 0.133667 0.039 0 0.137333 0.039 0 0.141 0.039 0 0.144667 0.039 0 0.148333 0.039 0 0.152 0.039 0 0.155667 0.039 0 0.159333 0.039 0 0.163 0.039 0 0.166667 0.039 0 0.170333 0.039 0 0.174 0.039 0 0.177667 0.039 0 0.181333 0.039 0 0.185 0.039 0 0.13 0.0396667 0 0.133667 0.0396667 0 0.137333 0.0396667 0 0.141 0.0396667 0 0.144667 0.0396667 0 0.148333 0.0396667 0 0.152 0.0396667 0 0.155667 0.0396667 0 0.159333 0.0396667 0 0.163 0.0396667 0 0.166667 0.0396667 0 0.170333 0.0396667 0 0.174 0.0396667 0 0.177667 0.0396667 0 0.181333 0.0396667 0 0.185 0.0396667 0 0.13 0.0403333 0 0.133667 0.0403333 0 0.137333 0.0403333 0 0.141 0.0403333 0 0.144667 0.0403333 0 0.148333 0.0403333 0 0.152 0.0403333 0 0.155667 0.0403333 0 0.159333 0.0403333 0 0.163 0.0403333 0 0.166667 0.0403333 0 0.170333 0.0403333 0 0.174 0.0403333 0 0.177667 0.0403333 0 0.181333 0.0403333 0 0.185 0.0403333 0 0.13 0.041 0 0.133667 0.041 0 0.137333 0.041 0 0.141 0.041 0 0.144667 0.041 0 0.148333 0.041 0 0.152 0.041 0 0.155667 0.041 0 0.159333 0.041 0 0.163 0.041 0 0.166667 0.041 0 0.170333 0.041 0 0.174 0.041 0 0.177667 0.041 0 0.181333 0.041 0 0.185 0.041 0 0.13 0.0416667 0 0.133667 0.0416667 0 0.137333 0.0416667 0 0.141 0.0416667 0 0.144667 0.0416667 0 0.148333 0.0416667 0 0.152 0.0416667 0 0.155667 0.0416667 0 0.159333 0.0416667 0 0.163 0.0416667 0 0.166667 0.0416667 0 0.170333 0.0416667 0 0.174 0.0416667 0 0.177667 0.0416667 0 0.181333 0.0416667 0 0.185 0.0416667 0 0.13 0.0423333 0 0.133667 0.0423333 0 0.137333 0.0423333 0 0.141 0.0423333 0 0.144667 0.0423333 0 0.148333 0.0423333 0 0.152 0.0423333 0 0.155667 0.0423333 0 0.159333 0.0423333 0 0.163 0.0423333 0 0.166667 0.0423333 0 0.170333 0.0423333 0 0.174 0.0423333 0 0.177667 0.0423333 0 0.181333 0.0423333 0 0.185 0.0423333 0 0.13 0.043 0 0.133667 0.043 0 0.137333 0.043 0 0.141 0.043 0 0.144667 0.043 0 0.148333 0.043 0 0.152 0.043 0 0.155667 0.043 0 0.159333 0.043 0 0.163 0.043 0 0.166667 0.043 0 0.170333 0.043 0 0.174 0.043 0 0.177667 0.043 0 0.181333 0.043 0 0.185 0.043 0 0.13 0.0436667 0 0.133667 0.0436667 0 0.137333 0.0436667 0 0.141 0.0436667 0 0.144667 0.0436667 0 0.148333 0.0436667 0 0.152 0.0436667 0 0.155667 0.0436667 0 0.159333 0.0436667 0 0.163 0.0436667 0 0.166667 0.0436667 0 0.170333 0.0436667 0 0.174 0.0436667 0 0.177667 0.0436667 0 0.181333 0.0436667 0 0.185 0.0436667 0 0.13 0.0443333 0 0.133667 0.0443333 0 0.137333 0.0443333 0 0.141 0.0443333 0 0.144667 0.0443333 0 0.148333 0.0443333 0 0.152 0.0443333 0 0.155667 0.0443333 0 0.159333 0.0443333 0 0.163 0.0443333 0 0.166667 0.0443333 0 0.170333 0.0443333 0 0.174 0.0443333 0 0.177667 0.0443333 0 0.181333 0.0443333 0 0.185 0.0443333 0 0.13 0.045 0 0.133667 0.045 0 0.137333 0.045 0 0.141 0.045 0 0.144667 0.045 0 0.148333 0.045 0 0.152 0.045 0 0.155667 0.045 0 0.159333 0.045 0 0.163 0.045 0 0.166667 0.045 0 0.170333 0.045 0 0.174 0.045 0 0.177667 0.045 0 0.181333 0.045 0 0.185 0.045 0 
</DataArray>
</Points> 
</Piece> 
</StructuredGrid> 
</VTKFile> 
