<?xml version="1.0"?> 
<VTKFile type="StructuredGrid" version="0.1"> 
<StructuredGrid WholeExtent="0 15 0 15 0 0"> 
<Piece Extent="0 15 0 15 0 0"> 
<PointData>
<DataArray type="Float32" Name="|E|" format="ascii" NumberOfComponents="3"> 
-4.81766e+06 -547199 0 -5.58965e+06 989976 0 -5.55151e+06 2.26536e+06 0 -5.1997e+06 3.17204e+06 0 -4.77013e+06 3.823e+06 0 -4.33647e+06 4.31753e+06 0 -3.91145e+06 4.71104e+06 0 -3.49184e+06 5.02893e+06 0 -3.07368e+06 5.27863e+06 0 -2.65798e+06 5.45741e+06 0 -2.2533e+06 5.55821e+06 0 -1.87674e+06 5.57507e+06 0 -1.55329e+06 5.50867e+06 0 -1.31407e+06 5.37273e+06 0 -1.19552e+06 5.20576e+06 0 -1.24851e+06 5.10497e+06 0 -3.85976e+06 1.26641e+06 0 -4.0442e+06 1.70677e+06 0 -4.16963e+06 2.23782e+06 0 -4.1548e+06 2.80953e+06 0 -4.00117e+06 3.34992e+06 0 -3.75206e+06 3.81786e+06 0 -3.44872e+06 4.204e+06 0 -3.11856e+06 4.51158e+06 0 -2.77992e+06 4.74491e+06 0 -2.44825e+06 4.90732e+06 0 -2.13916e+06 5.00337e+06 0 -1.86808e+06 5.04187e+06 0 -1.64725e+06 5.03773e+06 0 -1.48135e+06 5.01106e+06 0 -1.36394e+06 4.98238e+06 0 -1.28171e+06 4.96112e+06 0 -3.27221e+06 1.72275e+06 0 -3.398e+06 1.98925e+06 0 -3.48897e+06 2.33009e+06 0 -3.51068e+06 2.72728e+06 0 -3.4407e+06 3.14319e+06 0 -3.28309e+06 3.53688e+06 0 -3.06056e+06 3.88069e+06 0 -2.79968e+06 4.16235e+06 0 -2.52394e+06 4.37942e+06 0 -2.253e+06 4.53521e+06 0 -2.00277e+06 4.63749e+06 0 -1.78441e+06 4.69775e+06 0 -1.60297e+06 4.72953e+06 0 -1.45726e+06 4.74532e+06 0 -1.34177e+06 4.75386e+06 0 -1.24742e+06 4.76e+06 0 -2.91558e+06 1.91657e+06 0 -2.99992e+06 2.12836e+06 0 -3.06594e+06 2.38802e+06 0 -3.0871e+06 2.69556e+06 0 -3.04189e+06 3.03078e+06 0 -2.92546e+06 3.36292e+06 0 -2.74957e+06 3.66465e+06 0 -2.53481e+06 3.91939e+06 0 -2.30301e+06 4.12112e+06 0 -2.07318e+06 4.27178e+06 0 -1.85966e+06 4.37862e+06 0 -1.6711e+06 4.45184e+06 0 -1.51045e+06 4.5019e+06 0 -1.37621e+06 4.53746e+06 0 -1.26435e+06 4.56428e+06 0 -1.17152e+06 4.58527e+06 0 -2.66029e+06 2.0353e+06 0 -2.72341e+06 2.20212e+06 0 -2.77103e+06 2.4155e+06 0 -2.78395e+06 2.67107e+06 0 -2.74531e+06 2.95425e+06 0 -2.64829e+06 3.2417e+06 0 -2.49938e+06 3.5097e+06 0 -2.31443e+06 3.7416e+06 0 -2.11229e+06 3.93014e+06 0 -1.91002e+06 4.07596e+06 0 -1.72021e+06 4.18499e+06 0 -1.55013e+06 4.26552e+06 0 -1.40222e+06 4.32573e+06 0 -1.27557e+06 4.37213e+06 0 -1.16765e+06 4.40909e+06 0 -1.07504e+06 4.43932e+06 0 -2.47059e+06 2.09253e+06 0 -2.51685e+06 2.23916e+06 0 -2.54942e+06 2.4236e+06 0 -2.5535e+06 2.64533e+06 0 -2.51498e+06 2.89333e+06 0 -2.42722e+06 3.14868e+06 0 -2.29423e+06 3.39097e+06 0 -2.1286e+06 3.60475e+06 0 -1.94643e+06 3.78251e+06 0 -1.76273e+06 3.92397e+06 0 -1.58863e+06 4.03376e+06 0 -1.43058e+06 4.11854e+06 0 -1.29093e+06 4.18487e+06 0 -1.1693e+06 4.23799e+06 0 -1.06383e+06 4.28151e+06 0 -972498 4.31766e+06 0 -2.32216e+06 2.12342e+06 0 -2.35481e+06 2.25279e+06 0 -2.37504e+06 2.41793e+06 0 -2.37045e+06 2.61674e+06 0 -2.32938e+06 2.84006e+06 0 -2.24575e+06 3.07203e+06 0 -2.12225e+06 3.2949e+06 0 -1.96922e+06 3.4946e+06 0 -1.80054e+06 3.66379e+06 0 -1.62945e+06 3.80157e+06 0 -1.4659e+06 3.91149e+06 0 -1.31578e+06 3.99898e+06 0 -1.18147e+06 4.06943e+06 0 -1.06301e+06 4.12719e+06 0 -959183 4.17535e+06 0 -868273 4.21602e+06 0 -2.20292e+06 2.13152e+06 0 -2.2237e+06 2.25098e+06 0 -2.23288e+06 2.40268e+06 0 -2.22012e+06 2.5853e+06 0 -2.17531e+06 2.79085e+06 0 -2.09297e+06 3.00556e+06 0 -1.97504e+06 3.21374e+06 0 -1.83022e+06 3.40259e+06 0 -1.67066e+06 3.56508e+06 0 -1.50813e+06 3.69992e+06 0 -1.35164e+06 3.80984e+06 0 -1.20669e+06 3.89932e+06 0 -1.07572e+06 3.9729e+06 0 -959097 4.0343e+06 0 -856006 4.08627e+06 0 -765219 4.13066e+06 0 -2.10497e+06 2.12568e+06 0 -2.1147e+06 2.2378e+06 0 -2.11389e+06 2.38029e+06 0 -2.09338e+06 2.55141e+06 0 -2.04427e+06 2.744e+06 0 -1.96156e+06 2.94584e+06 0 -1.84668e+06 3.14287e+06 0 -1.70713e+06 3.32339e+06 0 -1.55366e+06 3.48073e+06 0 -1.39686e+06 3.61335e+06 0 -1.245e+06 3.72338e+06 0 -1.10327e+06 3.81459e+06 0 -974158 3.89087e+06 0 -858321 3.95551e+06 0 -755294 4.01095e+06 0 -664163 4.05894e+06 0 -2.02297e+06 2.10822e+06 0 -2.02226e+06 2.2162e+06 0 -2.01211e+06 2.35251e+06 0 -1.98423e+06 2.5155e+06 0 -1.93056e+06 2.69861e+06 0 -1.84645e+06 2.89082e+06 0 -1.73296e+06 3.07939e+06 0 -1.59664e+06 3.25356e+06 0 -1.44712e+06 3.40701e+06 0 -1.29403e+06 3.53808e+06 0 -1.14502e+06 3.64846e+06 0 -1.00505e+06 3.74137e+06 0 -876683 3.82027e+06 0 -760794 3.88808e+06 0 -657229 3.94706e+06 0 -565354 3.99881e+06 0 -1.95314e+06 2.08197e+06 0 -1.94241e+06 2.18797e+06 0 -1.92346e+06 2.32052e+06 0 -1.88856e+06 2.47794e+06 0 -1.83023e+06 2.6542e+06 0 -1.74406e+06 2.83925e+06 0 -1.63082e+06 3.02142e+06 0 -1.4963e+06 3.19079e+06 0 -1.34916e+06 3.34139e+06 0 -1.19828e+06 3.47152e+06 0 -1.0508e+06 3.58253e+06 0 -911471 3.67727e+06 0 -782937 3.75887e+06 0 -666285 3.83003e+06 0 -561631 3.89283e+06 0 -468617 3.9488e+06 0 -1.8927e+06 2.04843e+06 0 -1.87234e+06 2.15445e+06 0 -1.84504e+06 2.28519e+06 0 -1.80344e+06 2.43906e+06 0 -1.74044e+06 2.61051e+06 0 -1.6518e+06 2.79029e+06 0 -1.53801e+06 2.9677e+06 0 -1.40422e+06 3.13351e+06 0 -1.25833e+06 3.28211e+06 0 -1.10852e+06 3.41181e+06 0 -961516 3.52375e+06 0 -821938 3.62054e+06 0 -692477 3.70505e+06 0 -574420 3.77984e+06 0 -468150 3.84694e+06 0 -373575 3.90781e+06 0 -1.8395e+06 2.00889e+06 0 -1.80993e+06 2.11664e+06 0 -1.77472e+06 2.24718e+06 0 -1.72671e+06 2.39912e+06 0 -1.65911e+06 2.56737e+06 0 -1.56774e+06 2.7434e+06 0 -1.45284e+06 2.91733e+06 0 -1.319e+06 3.08058e+06 0 -1.17346e+06 3.22789e+06 0 -1.02383e+06 3.35761e+06 0 -876485 3.47079e+06 0 -735903 3.56985e+06 0 -604841 3.65755e+06 0 -484775 3.73639e+06 0 -376347 3.80837e+06 0 -279749 3.87499e+06 0 -1.79197e+06 1.96433e+06 0 -1.75362e+06 2.07529e+06 0 -1.71089e+06 2.20702e+06 0 -1.6568e+06 2.35837e+06 0 -1.58468e+06 2.52471e+06 0 -1.49042e+06 2.6982e+06 0 -1.37399e+06 2.86969e+06 0 -1.23951e+06 3.03119e+06 0 -1.09364e+06 3.17779e+06 0 -943494 3.30793e+06 0 -795112 3.42262e+06 0 -652873 3.52421e+06 0 -519588 3.61542e+06 0 -396911 3.69878e+06 0 -285750 3.77635e+06 0 -186599 3.84974e+06 0 -1.74882e+06 1.91555e+06 0 -1.70217e+06 2.03104e+06 0 -1.65236e+06 2.16512e+06 0 -1.59247e+06 2.31698e+06 0 -1.51596e+06 2.48248e+06 0 -1.41871e+06 2.65442e+06 0 -1.30046e+06 2.8243e+06 0 -1.16489e+06 2.98472e+06 0 -1.01815e+06 3.13108e+06 0 -866897 3.26198e+06 0 -716894 3.37844e+06 0 -572410 3.48282e+06 0 -436306 3.57789e+06 0 -310402 3.66628e+06 0 -195873 3.75024e+06 0 -93551.3 3.8316e+06 0 -1.70909e+06 1.86324e+06 0 -1.65466e+06 1.9844e+06 0 -1.59817e+06 2.12183e+06 0 -1.53279e+06 2.27513e+06 0 -1.45204e+06 2.44067e+06 0 -1.35176e+06 2.61186e+06 0 -1.23147e+06 2.78084e+06 0 -1.09446e+06 2.94071e+06 0 -946398 3.08724e+06 0 -793554 3.21919e+06 0 -641416 3.33765e+06 0 -494142 3.44507e+06 0 -354626 3.54434e+06 0 -224844 3.63832e+06 0 -106235 3.72956e+06 0 -5.2743 3.82022e+06 0 </DataArray> 
</PointData> 
<Points> 
<DataArray type="Float32" NumberOfComponents="3"> 
0.101808 0.0541471 0 0.101846 0.0550626 0 0.102149 0.0560793 0 0.102701 0.0571602 0 0.103483 0.0582664 0 0.104463 0.0593594 0 0.105609 0.0604035 0 0.106879 0.0613677 0 0.108233 0.0622288 0 0.109626 0.062972 0 0.11102 0.0635927 0 0.112379 0.0640957 0 0.113675 0.0644952 0 0.114886 0.0648123 0 0.115999 0.065074 0 0.117008 0.0653102 0 0.0995408 0.0547039 0 0.0997045 0.0558037 0 0.100133 0.0570059 0 0.100812 0.0582736 0 0.101719 0.0595678 0 0.102824 0.0608499 0 0.104095 0.0620837 0 0.105491 0.0632377 0 0.106973 0.0642869 0 0.108498 0.0652148 0 0.110027 0.066014 0 0.111526 0.0666863 0 0.112965 0.0672425 0 0.114323 0.0677006 0 0.115584 0.0680848 0 0.116741 0.0684229 0 0.0972736 0.0552608 0 0.0975736 0.056541 0 0.0981372 0.0579236 0 0.0989484 0.0593718 0 0.0999847 0.0608471 0 0.101218 0.0623112 0 0.102613 0.0637281 0 0.104134 0.065066 0 0.105741 0.0662993 0 0.107393 0.0674098 0 0.109053 0.068388 0 0.110687 0.069233 0 0.112265 0.0699524 0 0.113765 0.0705613 0 0.115171 0.0710805 0 0.116474 0.0715355 0 0.0950064 0.0558177 0 0.0954533 0.0572746 0 0.0961601 0.0588326 0 0.0971099 0.0604552 0 0.0982799 0.0621049 0 0.0996419 0.0637442 0 0.101163 0.0653377 0 0.102807 0.0668541 0 0.104536 0.0682673 0 0.106312 0.0695584 0 0.108099 0.0707159 0 0.109862 0.0717368 0 0.111575 0.0726258 0 0.113213 0.0733946 0 0.11476 0.0740612 0 0.116207 0.0746482 0 0.0927392 0.0563745 0 0.0933435 0.0580046 0 0.0942017 0.0597329 0 0.0952961 0.0615241 0 0.0966035 0.0633417 0 0.0980964 0.0651497 0 0.0997431 0.0669137 0 0.101509 0.0686033 0 0.103358 0.0701926 0 0.105254 0.0716621 0 0.107162 0.0729992 0 0.109051 0.0741989 0 0.110893 0.0752632 0 0.112666 0.076201 0 0.114352 0.0770271 0 0.115939 0.0777608 0 0.090472 0.0569314 0 0.0912443 0.0587309 0 0.0922619 0.0606247 0 0.0935064 0.0625787 0 0.0949549 0.0645581 0 0.0965803 0.0665284 0 0.0983525 0.0684571 0 0.100239 0.0703148 0 0.102205 0.0720763 0 0.104217 0.0737222 0 0.106243 0.0752392 0 0.108253 0.0766203 0 0.110221 0.0778656 0 0.112124 0.0789809 0 0.113945 0.0799781 0 0.115672 0.0808735 0 0.0882048 0.0574882 0 0.0891555 0.0594536 0 0.0903404 0.0615081 0 0.0917405 0.0636193 0 0.0933333 0.0657545 0 0.0950928 0.0678812 0 0.0969903 0.069969 0 0.0989953 0.0719898 0 0.101076 0.07392 0 0.103202 0.0757402 0 0.105342 0.0774369 0 0.107469 0.079002 0 0.109558 0.0804334 0 0.111587 0.0817347 0 0.11354 0.0829145 0 0.115405 0.0839861 0 0.0859376 0.0580451 0 0.0870771 0.0601727 0 0.0884368 0.0623832 0 0.0899977 0.0646463 0 0.091738 0.0669315 0 0.093633 0.0692088 0 0.0956558 0.0714501 0 0.0977782 0.0736296 0 0.0999715 0.0757248 0 0.102207 0.0777173 0 0.104457 0.0795936 0 0.106697 0.0813449 0 0.108903 0.0829675 0 0.111055 0.0844627 0 0.113138 0.0858364 0 0.115138 0.0870988 0 0.0836704 0.058602 0 0.085009 0.0608883 0 0.0865509 0.0632502 0 0.0882778 0.0656599 0 0.0901685 0.0680894 0 0.0922001 0.0705119 0 0.094348 0.0729016 0 0.0965865 0.0752351 0 0.0988898 0.0774919 0 0.101232 0.0796548 0 0.103589 0.0817105 0 0.105938 0.08365 0 0.108257 0.0854684 0 0.110528 0.0871652 0 0.112737 0.0887438 0 0.11487 0.0902114 0 0.0814032 0.0591588 0 0.082951 0.0616004 0 0.0846826 0.0641092 0 0.0865802 0.0666602 0 0.0886242 0.0692289 0 0.0907936 0.0717911 0 0.0930662 0.0743242 0 0.0954194 0.0768075 0 0.0978304 0.0792226 0 0.100277 0.0815538 0 0.102737 0.0837887 0 0.10519 0.0859182 0 0.107619 0.0879369 0 0.110006 0.0898427 0 0.112338 0.0916369 0 0.114603 0.0933241 0 0.079136 0.0597157 0 0.0809032 0.0623089 0 0.0828315 0.0649602 0 0.0849045 0.0676477 0 0.0871043 0.0703502 0 0.0894125 0.0730471 0 0.0918096 0.0757189 0 0.0942762 0.0783478 0 0.0967927 0.0809179 0 0.09934 0.0834154 0 0.1019 0.0858291 0 0.104455 0.0881504 0 0.106989 0.0903736 0 0.109489 0.0924954 0 0.111941 0.0945157 0 0.114336 0.0964367 0 0.0768688 0.0602726 0 0.0788654 0.063014 0 0.0809974 0.0658034 0 0.0832502 0.0686225 0 0.0856084 0.0714539 0 0.0880562 0.0742805 0 0.0905775 0.0770864 0 0.0931561 0.0798569 0 0.095776 0.0825789 0 0.0984216 0.0852407 0 0.101078 0.0878328 0 0.103731 0.0903475 0 0.106368 0.092779 0 0.108977 0.0951238 0 0.111547 0.0973804 0 0.114069 0.0995494 0 0.0746016 0.0608294 0 0.0768376 0.0637156 0 0.0791801 0.0666388 0 0.0816171 0.0695849 0 0.0841359 0.0725403 0 0.0867242 0.0754919 0 0.0893692 0.0784275 0 0.0920584 0.0813358 0 0.0947796 0.0842066 0 0.0975209 0.0870309 0 0.100271 0.0898009 0 0.103019 0.0925101 0 0.105755 0.0951537 0 0.108469 0.0977281 0 0.111154 0.100231 0 0.113802 0.102662 0 0.0723344 0.0613863 0 0.0748197 0.0644138 0 0.0773794 0.0674667 0 0.0800046 0.0705352 0 0.0826863 0.0736099 0 0.0854156 0.0766819 0 0.0881839 0.079743 0 0.0909824 0.0827854 0 0.093803 0.0858021 0 0.0966374 0.0887868 0 0.0994779 0.0917341 0 0.102317 0.0946393 0 0.105149 0.0974985 0 0.107966 0.100309 0 0.110763 0.103068 0 0.113534 0.105775 0 0.0700672 0.0619431 0 0.0728116 0.0651086 0 0.075595 0.068287 0 0.0784123 0.0714734 0 0.0812589 0.074663 0 0.08413 0.0778511 0 0.087021 0.0810336 0 0.0899276 0.0842065 0 0.0928455 0.0873662 0 0.0957706 0.0905096 0 0.0986989 0.0936335 0 0.101627 0.0967357 0 0.104551 0.0998137 0 0.107467 0.102866 0 0.110374 0.105891 0 0.113267 0.108887 0 0.0678 0.0625 0 0.0708133 0.0658 0 0.0738267 0.0691 0 0.07684 0.0724 0 0.0798533 0.0757 0 0.0828667 0.079 0 0.08588 0.0823 0 0.0888933 0.0856 0 0.0919067 0.0889 0 0.09492 0.0922 0 0.0979333 0.0955 0 0.100947 0.0988 0 0.10396 0.1021 0 0.106973 0.1054 0 0.109987 0.1087 0 0.113 0.112 0 
</DataArray>
</Points> 
</Piece> 
</StructuredGrid> 
</VTKFile> 
