<?xml version="1.0"?> 
<VTKFile type="StructuredGrid" version="0.1"> 
<StructuredGrid WholeExtent="0 15 0 15 0 0"> 
<Piece Extent="0 15 0 15 0 0"> 
<PointData>
<DataArray type="Float32" Name="|E|" format="ascii" NumberOfComponents="3"> 
1.22358e+06 -124855 0 1.57482e+06 -103539 0 1.73004e+06 -23189.4 0 1.71462e+06 29217.6 0 1.59628e+06 60363.3 0 1.43518e+06 68153.1 0 1.2675e+06 67198.7 0 1.11086e+06 60498.2 0 972780 52403 0 855505 43752.8 0 759038 35425.6 0 682386 27545.9 0 624341 20162.2 0 583767 13196.7 0 559791 6521.2 0 551862 0 0 1.22611e+06 -125114 0 1.57679e+06 -109759 0 1.73221e+06 -25074.7 0 1.71561e+06 31690.5 0 1.59644e+06 64242.1 0 1.43496e+06 72738.3 0 1.26709e+06 71558.7 0 1.11044e+06 64463.6 0 972376 55808.9 0 855155 46603 0 758733 37729.4 0 682127 29337.7 0 624116 21473.8 0 583568 14054.9 0 559606 6945.58 0 551682 0 0 1.22716e+06 -125221 0 1.57902e+06 -116022 0 1.73447e+06 -26909.6 0 1.71668e+06 34192.4 0 1.59663e+06 68142.7 0 1.43474e+06 77330.6 0 1.26667e+06 75921.8 0 1.11001e+06 68428.4 0 971957 59213.7 0 854790 49451.7 0 758414 40031.9 0 681854 31128.4 0 623878 22784.5 0 583357 14912.5 0 559410 7369.66 0 551491 0 0 1.22671e+06 -125175 0 1.58153e+06 -122315 0 1.73685e+06 -28704.9 0 1.71781e+06 36731.8 0 1.59684e+06 72062.2 0 1.43452e+06 81932 0 1.26625e+06 80287.3 0 1.10956e+06 72393.2 0 971524 62617.2 0 854409 52299 0 758081 42333.1 0 681569 32918 0 623628 24094.3 0 583133 15769.6 0 559202 7793.46 0 551289 0 0 1.22473e+06 -124973 0 1.58431e+06 -128621 0 1.73933e+06 -30471.6 0 1.719e+06 39317.1 0 1.59709e+06 75997.5 0 1.4343e+06 86545 0 1.26581e+06 84654.4 0 1.10909e+06 76358.5 0 971076 66019.4 0 854013 55144.8 0 757735 44632.8 0 681269 34706.4 0 623366 25403.3 0 582898 16626.1 0 558983 8216.97 0 551075 0 0 1.22119e+06 -124612 0 1.58738e+06 -134923 0 1.74192e+06 -32221.5 0 1.72027e+06 41957.6 0 1.59736e+06 79945.5 0 1.43408e+06 91172.3 0 1.26537e+06 89022.3 0 1.10862e+06 80324.7 0 970614 69420 0 853602 57989.4 0 757374 46931 0 680957 36493.7 0 623091 26711.4 0 582651 17481.9 0 558753 8640.18 0 550850 0 0 1.21604e+06 -124085 0 1.59075e+06 -141205 0 1.74462e+06 -33967.3 0 1.7216e+06 44662.7 0 1.59766e+06 83902.4 0 1.43385e+06 95816.4 0 1.26493e+06 93390 0 1.10812e+06 84292.5 0 970137 72818.7 0 853176 60832.7 0 756999 49227.7 0 680631 38279.8 0 622803 28018.6 0 582392 18337.2 0 558510 9063.11 0 550613 0 0 1.2092e+06 -123388 0 1.59442e+06 -147445 0 1.74742e+06 -35722.6 0 1.72299e+06 47442.8 0 1.59798e+06 87864.2 0 1.43362e+06 100480 0 1.26447e+06 97756.4 0 1.10761e+06 88262.5 0 969645 76215.4 0 852734 63674.8 0 756610 51522.9 0 680292 40064.7 0 622504 29324.9 0 582121 19191.9 0 558257 9485.76 0 550366 0 0 1.20059e+06 -122510 0 1.59843e+06 -153624 0 1.75033e+06 -37502.3 0 1.72445e+06 50309.1 0 1.59834e+06 91826.4 0 1.4334e+06 105167 0 1.26401e+06 102120 0 1.10709e+06 92235.5 0 969140 79609.7 0 852277 66515.8 0 756208 53816.4 0 679939 41848.3 0 622192 30630.2 0 581839 20045.8 0 557992 9908.12 0 550107 0 0 1.19012e+06 -121441 0 1.60278e+06 -159716 0 1.75334e+06 -39323.1 0 1.72597e+06 53273.6 0 1.59872e+06 95783.9 0 1.43316e+06 109881 0 1.26354e+06 106481 0 1.10655e+06 96212.2 0 968620 83001.4 0 851804 69355.9 0 755791 56108.3 0 679573 43630.7 0 621867 31934.6 0 581544 20899.1 0 557716 10330.2 0 549836 0 0 1.17768e+06 -120171 0 1.6075e+06 -165694 0 1.75645e+06 -41203.6 0 1.72756e+06 56350 0 1.59913e+06 99730.8 0 1.43292e+06 114625 0 1.26306e+06 110835 0 1.10599e+06 100193 0 968086 86390.1 0 851316 72195.1 0 755361 58398.4 0 679194 45411.8 0 621530 33238.1 0 581238 21751.7 0 557428 10752 0 549555 0 0 1.16311e+06 -118685 0 1.61261e+06 -171528 0 1.75966e+06 -43164.6 0 1.7292e+06 59552.9 0 1.59957e+06 103661 0 1.43268e+06 119403 0 1.26258e+06 115183 0 1.10541e+06 104180 0 967539 89775.4 0 850811 75033.6 0 754917 60686.7 0 678800 47191.7 0 621181 34540.6 0 580920 22603.5 0 557129 11173.6 0 549262 0 0 1.14628e+06 -116967 0 1.61815e+06 -177183 0 1.76296e+06 -45229.7 0 1.73091e+06 62899.1 0 1.60004e+06 107565 0 1.43243e+06 124221 0 1.26209e+06 119521 0 1.10482e+06 108174 0 966978 93156.8 0 850291 77871.5 0 754459 62973.1 0 678394 48970.2 0 620819 35842.2 0 580589 23454.5 0 556818 11594.9 0 548958 0 0 1.127e+06 -115000 0 1.62415e+06 -182620 0 1.76635e+06 -47425.5 0 1.73267e+06 66406.9 0 1.60054e+06 111437 0 1.43217e+06 129084 0 1.2616e+06 123848 0 1.10421e+06 112175 0 966404 96533.7 0 849754 80709 0 753988 65257.5 0 677974 50747.3 0 620446 37142.8 0 580247 24304.8 0 556496 12015.9 0 548643 0 0 1.10507e+06 -112762 0 1.63065e+06 -187792 0 1.76983e+06 -49782.2 0 1.73449e+06 70097.1 0 1.60108e+06 115264 0 1.4319e+06 133999 0 1.2611e+06 128160 0 1.10358e+06 116186 0 965817 99905.7 0 849201 83546.4 0 753504 67539.8 0 677540 52523.1 0 620060 38442.4 0 579893 25154.1 0 556163 12436.8 0 548316 0 0 1.08026e+06 -110231 0 1.63769e+06 -192651 0 1.77339e+06 -52333.9 0 1.73636e+06 73992.7 0 1.60165e+06 119036 0 1.43161e+06 138971 0 1.2606e+06 132454 0 1.10293e+06 120208 0 965218 103272 0 848631 86383.9 0 753006 69820 0 677092 54297.5 0 619662 39741.1 0 579527 26002.6 0 555818 12857.4 0 547979 0 0 </DataArray> 
</PointData> 
<Points> 
<DataArray type="Float32" NumberOfComponents="3"> 
0.19 0.005 0 0.2022 0.005 0 0.2144 0.005 0 0.2266 0.005 0 0.2388 0.005 0 0.251 0.005 0 0.2632 0.005 0 0.2754 0.005 0 0.2876 0.005 0 0.2998 0.005 0 0.312 0.005 0 0.3242 0.005 0 0.3364 0.005 0 0.3486 0.005 0 0.3608 0.005 0 0.373 0.005 0 0.190033 0.00532667 0 0.202231 0.00532667 0 0.214429 0.00532667 0 0.226627 0.00532667 0 0.238824 0.00532667 0 0.251022 0.00532667 0 0.26322 0.00532667 0 0.275418 0.00532667 0 0.287616 0.00532667 0 0.299813 0.00532667 0 0.312011 0.00532667 0 0.324209 0.00532667 0 0.336407 0.00532667 0 0.348604 0.00532667 0 0.360802 0.00532667 0 0.373 0.00532667 0 0.190067 0.00565333 0 0.202262 0.00565333 0 0.214458 0.00565333 0 0.226653 0.00565333 0 0.238849 0.00565333 0 0.251044 0.00565333 0 0.26324 0.00565333 0 0.275436 0.00565333 0 0.287631 0.00565333 0 0.299827 0.00565333 0 0.312022 0.00565333 0 0.324218 0.00565333 0 0.336413 0.00565333 0 0.348609 0.00565333 0 0.360804 0.00565333 0 0.373 0.00565333 0 0.1901 0.00598 0 0.202293 0.00598 0 0.214487 0.00598 0 0.22668 0.00598 0 0.238873 0.00598 0 0.251067 0.00598 0 0.26326 0.00598 0 0.275453 0.00598 0 0.287647 0.00598 0 0.29984 0.00598 0 0.312033 0.00598 0 0.324227 0.00598 0 0.33642 0.00598 0 0.348613 0.00598 0 0.360807 0.00598 0 0.373 0.00598 0 0.190133 0.00630667 0 0.202324 0.00630667 0 0.214516 0.00630667 0 0.226707 0.00630667 0 0.238898 0.00630667 0 0.251089 0.00630667 0 0.26328 0.00630667 0 0.275471 0.00630667 0 0.287662 0.00630667 0 0.299853 0.00630667 0 0.312044 0.00630667 0 0.324236 0.00630667 0 0.336427 0.00630667 0 0.348618 0.00630667 0 0.360809 0.00630667 0 0.373 0.00630667 0 0.190167 0.00663333 0 0.202356 0.00663333 0 0.214544 0.00663333 0 0.226733 0.00663333 0 0.238922 0.00663333 0 0.251111 0.00663333 0 0.2633 0.00663333 0 0.275489 0.00663333 0 0.287678 0.00663333 0 0.299867 0.00663333 0 0.312056 0.00663333 0 0.324244 0.00663333 0 0.336433 0.00663333 0 0.348622 0.00663333 0 0.360811 0.00663333 0 0.373 0.00663333 0 0.1902 0.00696 0 0.202387 0.00696 0 0.214573 0.00696 0 0.22676 0.00696 0 0.238947 0.00696 0 0.251133 0.00696 0 0.26332 0.00696 0 0.275507 0.00696 0 0.287693 0.00696 0 0.29988 0.00696 0 0.312067 0.00696 0 0.324253 0.00696 0 0.33644 0.00696 0 0.348627 0.00696 0 0.360813 0.00696 0 0.373 0.00696 0 0.190233 0.00728667 0 0.202418 0.00728667 0 0.214602 0.00728667 0 0.226787 0.00728667 0 0.238971 0.00728667 0 0.251156 0.00728667 0 0.26334 0.00728667 0 0.275524 0.00728667 0 0.287709 0.00728667 0 0.299893 0.00728667 0 0.312078 0.00728667 0 0.324262 0.00728667 0 0.336447 0.00728667 0 0.348631 0.00728667 0 0.360816 0.00728667 0 0.373 0.00728667 0 0.190267 0.00761333 0 0.202449 0.00761333 0 0.214631 0.00761333 0 0.226813 0.00761333 0 0.238996 0.00761333 0 0.251178 0.00761333 0 0.26336 0.00761333 0 0.275542 0.00761333 0 0.287724 0.00761333 0 0.299907 0.00761333 0 0.312089 0.00761333 0 0.324271 0.00761333 0 0.336453 0.00761333 0 0.348636 0.00761333 0 0.360818 0.00761333 0 0.373 0.00761333 0 0.1903 0.00794 0 0.20248 0.00794 0 0.21466 0.00794 0 0.22684 0.00794 0 0.23902 0.00794 0 0.2512 0.00794 0 0.26338 0.00794 0 0.27556 0.00794 0 0.28774 0.00794 0 0.29992 0.00794 0 0.3121 0.00794 0 0.32428 0.00794 0 0.33646 0.00794 0 0.34864 0.00794 0 0.36082 0.00794 0 0.373 0.00794 0 0.190333 0.00826667 0 0.202511 0.00826667 0 0.214689 0.00826667 0 0.226867 0.00826667 0 0.239044 0.00826667 0 0.251222 0.00826667 0 0.2634 0.00826667 0 0.275578 0.00826667 0 0.287756 0.00826667 0 0.299933 0.00826667 0 0.312111 0.00826667 0 0.324289 0.00826667 0 0.336467 0.00826667 0 0.348644 0.00826667 0 0.360822 0.00826667 0 0.373 0.00826667 0 0.190367 0.00859333 0 0.202542 0.00859333 0 0.214718 0.00859333 0 0.226893 0.00859333 0 0.239069 0.00859333 0 0.251244 0.00859333 0 0.26342 0.00859333 0 0.275596 0.00859333 0 0.287771 0.00859333 0 0.299947 0.00859333 0 0.312122 0.00859333 0 0.324298 0.00859333 0 0.336473 0.00859333 0 0.348649 0.00859333 0 0.360824 0.00859333 0 0.373 0.00859333 0 0.1904 0.00892 0 0.202573 0.00892 0 0.214747 0.00892 0 0.22692 0.00892 0 0.239093 0.00892 0 0.251267 0.00892 0 0.26344 0.00892 0 0.275613 0.00892 0 0.287787 0.00892 0 0.29996 0.00892 0 0.312133 0.00892 0 0.324307 0.00892 0 0.33648 0.00892 0 0.348653 0.00892 0 0.360827 0.00892 0 0.373 0.00892 0 0.190433 0.00924667 0 0.202604 0.00924667 0 0.214776 0.00924667 0 0.226947 0.00924667 0 0.239118 0.00924667 0 0.251289 0.00924667 0 0.26346 0.00924667 0 0.275631 0.00924667 0 0.287802 0.00924667 0 0.299973 0.00924667 0 0.312144 0.00924667 0 0.324316 0.00924667 0 0.336487 0.00924667 0 0.348658 0.00924667 0 0.360829 0.00924667 0 0.373 0.00924667 0 0.190467 0.00957333 0 0.202636 0.00957333 0 0.214804 0.00957333 0 0.226973 0.00957333 0 0.239142 0.00957333 0 0.251311 0.00957333 0 0.26348 0.00957333 0 0.275649 0.00957333 0 0.287818 0.00957333 0 0.299987 0.00957333 0 0.312156 0.00957333 0 0.324324 0.00957333 0 0.336493 0.00957333 0 0.348662 0.00957333 0 0.360831 0.00957333 0 0.373 0.00957333 0 0.1905 0.0099 0 0.202667 0.0099 0 0.214833 0.0099 0 0.227 0.0099 0 0.239167 0.0099 0 0.251333 0.0099 0 0.2635 0.0099 0 0.275667 0.0099 0 0.287833 0.0099 0 0.3 0.0099 0 0.312167 0.0099 0 0.324333 0.0099 0 0.3365 0.0099 0 0.348667 0.0099 0 0.360833 0.0099 0 0.373 0.0099 0 
</DataArray>
</Points> 
</Piece> 
</StructuredGrid> 
</VTKFile> 
