<?xml version="1.0"?> 
<VTKFile type="StructuredGrid" version="0.1"> 
<StructuredGrid WholeExtent="0 15 0 15 0 0"> 
<Piece Extent="0 15 0 15 0 0"> 
<PointData>
<DataArray type="Float32" Name="|E|" format="ascii" NumberOfComponents="3"> 
1.08026e+06 -449218 0 1.63769e+06 -207536 0 1.77339e+06 -38517.2 0 1.73636e+06 66677.2 0 1.60165e+06 122857 0 1.43161e+06 137177 0 1.2606e+06 133310 0 1.10293e+06 119836 0 965218 103428 0 848631 86327.1 0 753006 69837.6 0 677092 54296.5 0 619662 39738.4 0 579527 26007.1 0 555818 12853.3 0 547979 0 0 1.13664e+06 -472664 0 1.6509e+06 -217208 0 1.7824e+06 -38364.1 0 1.73901e+06 74228 0 1.60065e+06 132153 0 1.42913e+06 146971 0 1.2577e+06 142327 0 1.10024e+06 127850 0 962870 110269 0 846693 92024.3 0 751431 74439.4 0 675825 57874.4 0 618630 42358.2 0 578664 27722.1 0 555053 13701.6 0 547246 0 0 1.18788e+06 -493969 0 1.6654e+06 -226415 0 1.79168e+06 -37481.2 0 1.74179e+06 82065.4 0 1.59966e+06 141648 0 1.4266e+06 156807 0 1.25476e+06 151351 0 1.09748e+06 135843 0 960458 117086 0 844693 97698 0 749797 79021.2 0 674504 61436.5 0 617547 44966.6 0 577750 29429.7 0 554239 14546.1 0 546465 0 0 1.23488e+06 -513516 0 1.68101e+06 -235085 0 1.80126e+06 -35885.9 0 1.74467e+06 90209.3 0 1.59868e+06 151336 0 1.42403e+06 166688 0 1.25175e+06 160381 0 1.09465e+06 143817 0 957983 123879 0 842631 103348 0 748105 83582.9 0 673127 64982.7 0 616412 47563.2 0 576787 31129.8 0 553377 15387 0 545637 0 0 1.27843e+06 -531626 0 1.69762e+06 -243165 0 1.81112e+06 -33588.4 0 1.74766e+06 98676.9 0 1.5977e+06 161215 0 1.4214e+06 176616 0 1.24869e+06 169417 0 1.09175e+06 151770 0 955445 130648 0 840507 108974 0 746356 88124.2 0 671695 68512.8 0 615226 50148 0 575774 32822.1 0 552467 16224 0 544760 0 0 1.31917e+06 -548566 0 1.71511e+06 -250614 0 1.82126e+06 -30592.6 0 1.75071e+06 107482 0 1.5967e+06 171280 0 1.41872e+06 186594 0 1.24557e+06 178458 0 1.08879e+06 159704 0 952842 137392 0 838320 114575 0 744548 92644.8 0 670209 72026.5 0 613987 52720.8 0 574711 34506.7 0 551508 17057.1 0 543836 0 0 1.35765e+06 -564566 0 1.73342e+06 -257397 0 1.83168e+06 -26897.3 0 1.75383e+06 116637 0 1.59567e+06 181531 0 1.41598e+06 196622 0 1.24238e+06 187503 0 1.08576e+06 167617 0 950175 144112 0 836071 120152 0 742682 97144.5 0 668667 75523.7 0 612697 55281.5 0 573599 36183.4 0 550502 17886.4 0 542865 0 0 1.39433e+06 -579819 0 1.75246e+06 -263492 0 1.84237e+06 -22496.3 0 1.75699e+06 126148 0 1.59461e+06 191966 0 1.41318e+06 206701 0 1.23913e+06 196552 0 1.08266e+06 175511 0 947444 150807 0 833760 125705 0 740759 101623 0 667071 79004.1 0 611355 57829.8 0 572438 37852.1 0 549448 18711.6 0 541846 0 0 1.42962e+06 -594498 0 1.7722e+06 -268877 0 1.85331e+06 -17379 0 1.76017e+06 136024 0 1.5935e+06 202583 0 1.41031e+06 216831 0 1.23581e+06 205604 0 1.0795e+06 183385 0 944647 157476 0 831387 131233 0 738777 106080 0 665421 82467.5 0 609962 60365.6 0 571227 39512.6 0 548345 19532.9 0 540779 0 0 1.4639e+06 -608752 0 1.79259e+06 -273538 0 1.86449e+06 -11530.3 0 1.76336e+06 146266 0 1.59233e+06 213384 0 1.40737e+06 227009 0 1.23242e+06 214660 0 1.07626e+06 191237 0 941785 164119 0 828951 136735 0 736738 110516 0 663716 85913.7 0 608517 62888.8 0 569967 41164.9 0 547195 20350.1 0 539665 0 0 1.4975e+06 -622722 0 1.8136e+06 -277464 0 1.8759e+06 -4930.26 0 1.76654e+06 156875 0 1.5911e+06 224368 0 1.40435e+06 237234 0 1.22895e+06 223718 0 1.07295e+06 199068 0 938858 170737 0 826454 142212 0 734641 114930 0 661957 89342.5 0 607021 65399.2 0 568658 42808.9 0 545997 21163.2 0 538504 0 0 1.53072e+06 -636538 0 1.8352e+06 -280648 0 1.88752e+06 2446.51 0 1.76969e+06 167847 0 1.58979e+06 235538 0 1.40124e+06 247504 0 1.22541e+06 232779 0 1.06957e+06 206877 0 935864 177328 0 823894 147663 0 732486 119322 0 660143 92753.7 0 605474 67896.6 0 567300 44444.3 0 544751 21972 0 537296 0 0 1.56388e+06 -650328 0 1.85737e+06 -283089 0 1.89933e+06 10631.7 0 1.77278e+06 179172 0 1.5884e+06 246898 0 1.39806e+06 257812 0 1.2218e+06 241845 0 1.06612e+06 214662 0 932804 183894 0 821273 153087 0 730274 123691 0 658276 96147.1 0 603876 70380.8 0 565893 46071.2 0 543458 22776.7 0 536040 0 0 1.5973e+06 -664223 0 1.88009e+06 -284790 0 1.9113e+06 19664.8 0 1.77581e+06 190838 0 1.5869e+06 258456 0 1.39478e+06 268153 0 1.2181e+06 250918 0 1.06259e+06 222422 0 929677 190434 0 818590 158485 0 728004 128038 0 656354 99522.4 0 602227 72851.7 0 564437 47689.4 0 542117 23576.9 0 534737 0 0 1.63129e+06 -678359 0 1.90334e+06 -285764 0 1.92342e+06 29595.1 0 1.77875e+06 202821 0 1.5853e+06 270222 0 1.39142e+06 278517 0 1.21432e+06 260000 0 1.059e+06 230153 0 926482 196948 0 815845 163855 0 725677 132363 0 654379 102879 0 600527 75309.2 0 562932 49299 0 540728 24372.8 0 533388 0 0 1.66623e+06 -692888 0 1.92708e+06 -286032 0 1.93566e+06 40483.9 0 1.78159e+06 215091 0 1.58357e+06 282212 0 1.38796e+06 288891 0 1.21045e+06 269096 0 1.05533e+06 237852 0 923218 203439 0 813040 169197 0 723291 136664 0 652351 106218 0 598776 77752.9 0 561379 50899.7 0 539293 25164.1 0 531991 0 0 </DataArray> 
</PointData> 
<Points> 
<DataArray type="Float32" NumberOfComponents="3"> 
0.1905 0.0099 0 0.202667 0.0099 0 0.214833 0.0099 0 0.227 0.0099 0 0.239167 0.0099 0 0.251333 0.0099 0 0.2635 0.0099 0 0.275667 0.0099 0 0.287833 0.0099 0 0.3 0.0099 0 0.312167 0.0099 0 0.324333 0.0099 0 0.3365 0.0099 0 0.348667 0.0099 0 0.360833 0.0099 0 0.373 0.0099 0 0.19078 0.0105733 0 0.202928 0.0105733 0 0.215076 0.0105733 0 0.227224 0.0105733 0 0.239372 0.0105733 0 0.25152 0.0105733 0 0.263668 0.0105733 0 0.275816 0.0105733 0 0.287964 0.0105733 0 0.300112 0.0105733 0 0.31226 0.0105733 0 0.324408 0.0105733 0 0.336556 0.0105733 0 0.348704 0.0105733 0 0.360852 0.0105733 0 0.373 0.0105733 0 0.19106 0.0112467 0 0.203189 0.0112467 0 0.215319 0.0112467 0 0.227448 0.0112467 0 0.239577 0.0112467 0 0.251707 0.0112467 0 0.263836 0.0112467 0 0.275965 0.0112467 0 0.288095 0.0112467 0 0.300224 0.0112467 0 0.312353 0.0112467 0 0.324483 0.0112467 0 0.336612 0.0112467 0 0.348741 0.0112467 0 0.360871 0.0112467 0 0.373 0.0112467 0 0.19134 0.01192 0 0.203451 0.01192 0 0.215561 0.01192 0 0.227672 0.01192 0 0.239783 0.01192 0 0.251893 0.01192 0 0.264004 0.01192 0 0.276115 0.01192 0 0.288225 0.01192 0 0.300336 0.01192 0 0.312447 0.01192 0 0.324557 0.01192 0 0.336668 0.01192 0 0.348779 0.01192 0 0.360889 0.01192 0 0.373 0.01192 0 0.19162 0.0125933 0 0.203712 0.0125933 0 0.215804 0.0125933 0 0.227896 0.0125933 0 0.239988 0.0125933 0 0.25208 0.0125933 0 0.264172 0.0125933 0 0.276264 0.0125933 0 0.288356 0.0125933 0 0.300448 0.0125933 0 0.31254 0.0125933 0 0.324632 0.0125933 0 0.336724 0.0125933 0 0.348816 0.0125933 0 0.360908 0.0125933 0 0.373 0.0125933 0 0.1919 0.0132667 0 0.203973 0.0132667 0 0.216047 0.0132667 0 0.22812 0.0132667 0 0.240193 0.0132667 0 0.252267 0.0132667 0 0.26434 0.0132667 0 0.276413 0.0132667 0 0.288487 0.0132667 0 0.30056 0.0132667 0 0.312633 0.0132667 0 0.324707 0.0132667 0 0.33678 0.0132667 0 0.348853 0.0132667 0 0.360927 0.0132667 0 0.373 0.0132667 0 0.19218 0.01394 0 0.204235 0.01394 0 0.216289 0.01394 0 0.228344 0.01394 0 0.240399 0.01394 0 0.252453 0.01394 0 0.264508 0.01394 0 0.276563 0.01394 0 0.288617 0.01394 0 0.300672 0.01394 0 0.312727 0.01394 0 0.324781 0.01394 0 0.336836 0.01394 0 0.348891 0.01394 0 0.360945 0.01394 0 0.373 0.01394 0 0.19246 0.0146133 0 0.204496 0.0146133 0 0.216532 0.0146133 0 0.228568 0.0146133 0 0.240604 0.0146133 0 0.25264 0.0146133 0 0.264676 0.0146133 0 0.276712 0.0146133 0 0.288748 0.0146133 0 0.300784 0.0146133 0 0.31282 0.0146133 0 0.324856 0.0146133 0 0.336892 0.0146133 0 0.348928 0.0146133 0 0.360964 0.0146133 0 0.373 0.0146133 0 0.19274 0.0152867 0 0.204757 0.0152867 0 0.216775 0.0152867 0 0.228792 0.0152867 0 0.240809 0.0152867 0 0.252827 0.0152867 0 0.264844 0.0152867 0 0.276861 0.0152867 0 0.288879 0.0152867 0 0.300896 0.0152867 0 0.312913 0.0152867 0 0.324931 0.0152867 0 0.336948 0.0152867 0 0.348965 0.0152867 0 0.360983 0.0152867 0 0.373 0.0152867 0 0.19302 0.01596 0 0.205019 0.01596 0 0.217017 0.01596 0 0.229016 0.01596 0 0.241015 0.01596 0 0.253013 0.01596 0 0.265012 0.01596 0 0.277011 0.01596 0 0.289009 0.01596 0 0.301008 0.01596 0 0.313007 0.01596 0 0.325005 0.01596 0 0.337004 0.01596 0 0.349003 0.01596 0 0.361001 0.01596 0 0.373 0.01596 0 0.1933 0.0166333 0 0.20528 0.0166333 0 0.21726 0.0166333 0 0.22924 0.0166333 0 0.24122 0.0166333 0 0.2532 0.0166333 0 0.26518 0.0166333 0 0.27716 0.0166333 0 0.28914 0.0166333 0 0.30112 0.0166333 0 0.3131 0.0166333 0 0.32508 0.0166333 0 0.33706 0.0166333 0 0.34904 0.0166333 0 0.36102 0.0166333 0 0.373 0.0166333 0 0.19358 0.0173067 0 0.205541 0.0173067 0 0.217503 0.0173067 0 0.229464 0.0173067 0 0.241425 0.0173067 0 0.253387 0.0173067 0 0.265348 0.0173067 0 0.277309 0.0173067 0 0.289271 0.0173067 0 0.301232 0.0173067 0 0.313193 0.0173067 0 0.325155 0.0173067 0 0.337116 0.0173067 0 0.349077 0.0173067 0 0.361039 0.0173067 0 0.373 0.0173067 0 0.19386 0.01798 0 0.205803 0.01798 0 0.217745 0.01798 0 0.229688 0.01798 0 0.241631 0.01798 0 0.253573 0.01798 0 0.265516 0.01798 0 0.277459 0.01798 0 0.289401 0.01798 0 0.301344 0.01798 0 0.313287 0.01798 0 0.325229 0.01798 0 0.337172 0.01798 0 0.349115 0.01798 0 0.361057 0.01798 0 0.373 0.01798 0 0.19414 0.0186533 0 0.206064 0.0186533 0 0.217988 0.0186533 0 0.229912 0.0186533 0 0.241836 0.0186533 0 0.25376 0.0186533 0 0.265684 0.0186533 0 0.277608 0.0186533 0 0.289532 0.0186533 0 0.301456 0.0186533 0 0.31338 0.0186533 0 0.325304 0.0186533 0 0.337228 0.0186533 0 0.349152 0.0186533 0 0.361076 0.0186533 0 0.373 0.0186533 0 0.19442 0.0193267 0 0.206325 0.0193267 0 0.218231 0.0193267 0 0.230136 0.0193267 0 0.242041 0.0193267 0 0.253947 0.0193267 0 0.265852 0.0193267 0 0.277757 0.0193267 0 0.289663 0.0193267 0 0.301568 0.0193267 0 0.313473 0.0193267 0 0.325379 0.0193267 0 0.337284 0.0193267 0 0.349189 0.0193267 0 0.361095 0.0193267 0 0.373 0.0193267 0 0.1947 0.02 0 0.206587 0.02 0 0.218473 0.02 0 0.23036 0.02 0 0.242247 0.02 0 0.254133 0.02 0 0.26602 0.02 0 0.277907 0.02 0 0.289793 0.02 0 0.30168 0.02 0 0.313567 0.02 0 0.325453 0.02 0 0.33734 0.02 0 0.349227 0.02 0 0.361113 0.02 0 0.373 0.02 0 
</DataArray>
</Points> 
</Piece> 
</StructuredGrid> 
</VTKFile> 
