<?xml version="1.0"?> 
<VTKFile type="StructuredGrid" version="0.1"> 
<StructuredGrid WholeExtent="0 15 0 15 0 0"> 
<Piece Extent="0 15 0 15 0 0"> 
<PointData>
<DataArray type="Float32" Name="|E|" format="ascii" NumberOfComponents="3"> 
3.27176e+06 -1.35521e+06 0 2.74496e+06 290027 0 2.14994e+06 612220 0 1.7604e+06 662445 0 1.47444e+06 633251 0 1.253e+06 572939 0 1.07591e+06 502687 0 931488 431571 0 813568 363486 0 717558 300035 0 640527 241457 0 580163 187390 0 534818 137116 0 503258 89764.7 0 484650 44385.9 0 478502 0 0 3.57127e+06 -1.22852e+06 0 2.7703e+06 393241 0 2.14082e+06 678974 0 1.73936e+06 712232 0 1.44885e+06 673509 0 1.22559e+06 607286 0 1.04834e+06 532869 0 904712 458406 0 788116 387331 0 693651 320982 0 618150 259458 0 559123 202306 0 514777 148746 0 483752 97851.8 0 465096 48617.7 0 458199 0 0 3.85651e+06 -1.0612e+06 0 2.79132e+06 500379 0 2.12999e+06 747206 0 1.71763e+06 762772 0 1.42289e+06 714524 0 1.19793e+06 642147 0 1.02047e+06 563359 0 877496 485320 0 762037 411057 0 668894 341656 0 594687 277083 0 536756 216799 0 493170 159964 0 462449 105598 0 443526 52643.5 0 435678 0 0 4.12582e+06 -852540 0 2.80756e+06 610912 0 2.11769e+06 816769 0 1.69538e+06 814023 0 1.39668e+06 756287 0 1.17006e+06 677501 0 992311 594158 0 849850 512317 0 735331 434682 0 643291 362079 0 570151 294359 0 513087 230897 0 470039 170796 0 439409 113025 0 420020 56477.7 0 411037 0 0 4.37573e+06 -601048 0 2.81889e+06 724298 0 2.1042e+06 887477 0 1.67282e+06 865995 0 1.37032e+06 798784 0 1.14209e+06 713351 0 963911 625278 0 821795 539414 0 708009 458230 0 616858 382280 0 544565 311316 0 488156 244631 0 445441 181271 0 414708 120157 0 394672 60134.3 0 384386 0 0 4.60098e+06 -305210 0 2.82551e+06 840065 0 2.08982e+06 959129 0 1.65014e+06 918757 0 1.34394e+06 841998 0 1.11408e+06 749724 0 935309 656738 0 793365 566638 0 680095 481730 0 589623 402290 0 517968 327988 0 462015 258032 0 419445 191417 0 388433 127015 0 367585 63626 0 355844 0 0 4.79452e+06 35686.4 0 2.82789e+06 957878 0 2.07488e+06 1.03152e+06 0 1.62757e+06 972436 0 1.31767e+06 885913 0 1.08615e+06 786677 0 906558 688566 0 764602 594032 0 651621 505223 0 561625 422148 0 490407 344409 0 434727 271130 0 392131 201260 0 360684 133619 0 338877 66964.3 0 325543 0 0 4.94792e+06 420632 0 2.82674e+06 1.07758e+06 0 2.05972e+06 1.1045e+06 0 1.60529e+06 1.0272e+06 0 1.29167e+06 930530 0 1.05837e+06 824290 0 877728 720803 0 735555 621651 0 622631 528752 0 532913 441898 0 461942 360617 0 406367 283959 0 363592 210824 0 331570 139987 0 308675 70158.8 0 293626 0 0 5.05191e+06 845976 0 2.82294e+06 1.19923e+06 0 2.0447e+06 1.17799e+06 0 1.5835e+06 1.08322e+06 0 1.26613e+06 975874 0 1.03083e+06 862658 0 848899 753503 0 706274 649562 0 593178 552371 0 503541 461588 0 432640 376651 0 377019 296550 0 333931 220134 0 301213 146134 0 277118 73217.4 0 260243 0 0 5.09725e+06 1.3046e+06 0 2.81745e+06 1.32303e+06 0 2.03017e+06 1.25204e+06 0 1.56238e+06 1.14067e+06 0 1.24124e+06 1.02202e+06 0 1.00361e+06 901884 0 820162 786740 0 676812 677837 0 563324 576138 0 473572 481268 0 402576 392550 0 346773 308931 0 303256 229210 0 269743 152074 0 244354 76145.9 0 225557 0 0 5.07569e+06 1.78531e+06 0 2.81123e+06 1.44939e+06 0 2.01644e+06 1.32689e+06 0 1.54212e+06 1.19965e+06 0 1.21717e+06 1.06912e+06 0 976804 942065 0 791613 820613 0 647227 706559 0 533133 600122 0 443068 500992 0 371832 408355 0 315727 321133 0 271686 238070 0 237296 157815 0 210537 78947.9 0 189737 0 0 4.98122e+06 2.27271e+06 0 2.80509e+06 1.57876e+06 0 2.00375e+06 1.40299e+06 0 1.52292e+06 1.26024e+06 0 1.19411e+06 1.11739e+06 0 950500 983289 0 763340 855246 0 617577 735811 0 502672 624401 0 412096 520817 0 340489 424109 0 283978 333181 0 239341 246730 0 204015 163365 0 175829 81624.4 0 152960 0 0 4.81097e+06 2.74744e+06 0 2.79959e+06 1.71164e+06 0 1.99225e+06 1.48097e+06 0 1.50502e+06 1.32242e+06 0 1.17215e+06 1.1671e+06 0 924817 1.02564e+06 0 735422 890787 0 587931 765683 0 472004 649060 0 380726 540801 0 308631 439852 0 251629 345100 0 206345 255201 0 170045 168726 0 140397 84173.8 0 115409 0 0 4.56605e+06 3.18712e+06 0 2.79498e+06 1.8485e+06 0 1.98199e+06 1.56159e+06 0 1.48871e+06 1.38621e+06 0 1.15139e+06 1.21858e+06 0 899894 1.06921e+06 0 707913 927396 0 558364 796271 0 441182 674189 0 349028 561003 0 276336 455626 0 218781 356912 0 172821 263492 0 135534 173896 0 104413 86592 0 77274.1 0 0 4.25171e+06 3.5676e+06 0 2.79118e+06 1.98977e+06 0 1.97294e+06 1.64564e+06 0 1.47427e+06 1.45168e+06 0 1.13185e+06 1.27212e+06 0 875892 1.11413e+06 0 680853 965236 0 528960 827688 0 410249 699881 0 317071 581490 0 243679 471471 0 185533 368638 0 138890 271606 0 100630 178872 0 68046.3 88871.7 0 38747.3 0 0 3.87693e+06 3.8643e+06 0 2.78776e+06 2.13573e+06 0 1.96502e+06 1.73382e+06 0 1.46196e+06 1.519e+06 0 1.11354e+06 1.32798e+06 0 852974 1.16057e+06 0 654261 1.00446e+06 0 499808 860066 0 379235 726227 0 284925 602332 0 210721 487425 0 151982 380298 0 104669 279543 0 65479.4 183645 0 31471.1 91002 0 22.7397 0 0 </DataArray> 
</PointData> 
<Points> 
<DataArray type="Float32" NumberOfComponents="3"> 
0.2018 0.0378 0 0.213213 0.0378 0 0.224627 0.0378 0 0.23604 0.0378 0 0.247453 0.0378 0 0.258867 0.0378 0 0.27028 0.0378 0 0.281693 0.0378 0 0.293107 0.0378 0 0.30452 0.0378 0 0.315933 0.0378 0 0.327347 0.0378 0 0.33876 0.0378 0 0.350173 0.0378 0 0.361587 0.0378 0 0.373 0.0378 0 0.20215 0.0387237 0 0.213688 0.0389954 0 0.225204 0.0392666 0 0.236699 0.0395372 0 0.248173 0.0398074 0 0.259625 0.0400771 0 0.271057 0.0403463 0 0.282467 0.0406149 0 0.293857 0.0408831 0 0.305225 0.0411508 0 0.316573 0.041418 0 0.3279 0.0416847 0 0.339206 0.0419509 0 0.350491 0.0422167 0 0.361756 0.0424819 0 0.373 0.0427467 0 0.202446 0.0396795 0 0.214093 0.0402268 0 0.225699 0.0407722 0 0.237266 0.0413156 0 0.248792 0.0418572 0 0.260279 0.0423969 0 0.271726 0.0429348 0 0.283134 0.0434708 0 0.294502 0.044005 0 0.305831 0.0445373 0 0.317122 0.0450678 0 0.328374 0.0455965 0 0.339588 0.0461234 0 0.350763 0.0466485 0 0.3619 0.0471718 0 0.373 0.0476933 0 0.202682 0.0406628 0 0.214423 0.0414885 0 0.226107 0.0423101 0 0.237735 0.0431278 0 0.249306 0.0439415 0 0.260822 0.0447513 0 0.272282 0.0455572 0 0.283687 0.0463593 0 0.295038 0.0471575 0 0.306335 0.0479519 0 0.317578 0.0487426 0 0.328768 0.0495295 0 0.339904 0.0503126 0 0.350988 0.0510921 0 0.36202 0.0518679 0 0.373 0.05264 0 0.202855 0.0416684 0 0.214674 0.0427741 0 0.226421 0.0438732 0 0.238099 0.0449658 0 0.249708 0.0460518 0 0.261248 0.0471315 0 0.27272 0.0482048 0 0.284124 0.0492717 0 0.295462 0.0503324 0 0.306733 0.0513869 0 0.317938 0.0524353 0 0.329079 0.0534775 0 0.340155 0.0545137 0 0.351166 0.055544 0 0.362115 0.0565683 0 0.373 0.0575867 0 0.202959 0.0426908 0 0.214838 0.044077 0 0.226637 0.0454538 0 0.238354 0.0468212 0 0.249993 0.0481793 0 0.261553 0.0495283 0 0.273035 0.0508681 0 0.28444 0.052199 0 0.295769 0.053521 0 0.307022 0.0548342 0 0.318201 0.0561387 0 0.329306 0.0574346 0 0.340338 0.0587219 0 0.351297 0.0600007 0 0.362184 0.0612712 0 0.373 0.0625333 0 0.20299 0.0437241 0 0.214913 0.0453901 0 0.226747 0.0470437 0 0.238494 0.0486852 0 0.250156 0.0503147 0 0.261731 0.0519322 0 0.273223 0.0535379 0 0.284631 0.055132 0 0.295957 0.0567146 0 0.307201 0.0582857 0 0.318364 0.0598456 0 0.329448 0.0613943 0 0.340452 0.062932 0 0.351379 0.0644588 0 0.362228 0.0659747 0 0.373 0.06748 0 0.202942 0.0447621 0 0.214891 0.046706 0 0.226749 0.0486349 0 0.238515 0.050549 0 0.250192 0.0524485 0 0.26178 0.0543337 0 0.27328 0.0562045 0 0.284694 0.0580613 0 0.296022 0.0599042 0 0.307266 0.0617332 0 0.318426 0.0635487 0 0.329503 0.0653506 0 0.340498 0.0671392 0 0.351412 0.0689147 0 0.362245 0.0706771 0 0.373 0.0724267 0 0.202812 0.0457987 0 0.21477 0.0480172 0 0.226636 0.0502188 0 0.238412 0.0524034 0 0.250098 0.0545715 0 0.261695 0.056723 0 0.273204 0.0588584 0 0.284627 0.0609776 0 0.295963 0.0630809 0 0.307216 0.0651685 0 0.318384 0.0672405 0 0.329469 0.0692971 0 0.340473 0.0713386 0 0.351395 0.073365 0 0.362237 0.0753765 0 0.373 0.0773733 0 0.202595 0.0468275 0 0.214545 0.0493165 0 0.226407 0.0517872 0 0.238182 0.0542396 0 0.24987 0.0566741 0 0.261473 0.0590908 0 0.272991 0.0614898 0 0.284426 0.0638715 0 0.295778 0.0662359 0 0.307048 0.0685833 0 0.318237 0.0709138 0 0.329346 0.0732277 0 0.340377 0.0755251 0 0.351328 0.0778061 0 0.362202 0.0800711 0 0.373 0.08232 0 0.202287 0.0478426 0 0.214213 0.0505967 0 0.226058 0.0533321 0 0.237822 0.0560489 0 0.249507 0.0587473 0 0.261112 0.0614275 0 0.27264 0.0640896 0 0.28409 0.0667339 0 0.295464 0.0693605 0 0.306762 0.0719697 0 0.317985 0.0745615 0 0.329133 0.0771361 0 0.340208 0.0796938 0 0.351211 0.0822347 0 0.362141 0.0847589 0 0.373 0.0872667 0 0.201886 0.048838 0 0.213772 0.0518509 0 0.225587 0.0548458 0 0.237331 0.0578229 0 0.249006 0.0607823 0 0.260611 0.0637242 0 0.272149 0.0666487 0 0.283618 0.0695561 0 0.29502 0.0724464 0 0.306355 0.0753197 0 0.317625 0.0781764 0 0.328829 0.0810164 0 0.339967 0.08384 0 0.351042 0.0866472 0 0.362053 0.0894383 0 0.373 0.0922133 0 0.201389 0.0498086 0 0.213219 0.0530727 0 0.224992 0.0563211 0 0.236707 0.0595538 0 0.248367 0.0627708 0 0.25997 0.0659723 0 0.271517 0.0691585 0 0.283009 0.0723294 0 0.294446 0.0754852 0 0.305829 0.0786259 0 0.317157 0.0817516 0 0.328432 0.0848626 0 0.339653 0.0879588 0 0.350821 0.0910403 0 0.361937 0.0941074 0 0.373 0.09716 0 0.200793 0.0507492 0 0.212553 0.0542564 0 0.224272 0.0577514 0 0.235951 0.0612343 0 0.247589 0.0647051 0 0.259187 0.068164 0 0.270745 0.0716109 0 0.282263 0.075046 0 0.293742 0.0784693 0 0.305181 0.0818808 0 0.316581 0.0852806 0 0.327942 0.0886689 0 0.339264 0.0920455 0 0.350548 0.0954107 0 0.361793 0.0987644 0 0.373 0.102107 0 0.200098 0.0516555 0 0.211775 0.0553966 0 0.223429 0.0591307 0 0.235062 0.062858 0 0.246674 0.0665783 0 0.258264 0.0702918 0 0.269833 0.0739985 0 0.28138 0.0776983 0 0.292907 0.0813913 0 0.304412 0.0850775 0 0.315895 0.088757 0 0.327358 0.0924297 0 0.3388 0.0960956 0 0.350221 0.0997549 0 0.361621 0.103407 0 0.373 0.107053 0 0.199303 0.0525238 0 0.210883 0.0564889 0 0.222463 0.060454 0 0.234043 0.064419 0 0.245622 0.0683841 0 0.257202 0.0723492 0 0.268782 0.0763143 0 0.280362 0.0802794 0 0.291941 0.0842444 0 0.303521 0.0882095 0 0.315101 0.0921746 0 0.326681 0.0961397 0 0.338261 0.100105 0 0.34984 0.10407 0 0.36142 0.108035 0 0.373 0.112 0 
</DataArray>
</Points> 
</Piece> 
</StructuredGrid> 
</VTKFile> 
