<?xml version="1.0"?> 
<VTKFile type="StructuredGrid" version="0.1"> 
<StructuredGrid WholeExtent="0 15 0 15 0 0"> 
<Piece Extent="0 15 0 15 0 0"> 
<PointData>
<DataArray type="Float32" Name="|E|" format="ascii" NumberOfComponents="3"> 
-1.66734e+06 0 0 -1.69402e+06 -59799.4 0 -1.77607e+06 -105493 0 -1.8927e+06 -109070 0 -1.99925e+06 -70955.9 0 -2.07829e+06 -18568.5 0 -2.13303e+06 35488.3 0 -2.16724e+06 89099.3 0 -2.18126e+06 143398 0 -2.1723e+06 198715 0 -2.13413e+06 251064 0 -2.06315e+06 279719 0 -1.98622e+06 255536 0 -1.94116e+06 186358 0 -1.95108e+06 76512.4 0 -2.00197e+06 4.05312e-06 0 -1.67323e+06 0 0 -1.69944e+06 -54474.9 0 -1.77868e+06 -95097.7 0 -1.8906e+06 -97419.5 0 -1.99453e+06 -61743.8 0 -2.073e+06 -11965.3 0 -2.12776e+06 39898.2 0 -2.16196e+06 91529.8 0 -2.17589e+06 143719 0 -2.16692e+06 196510 0 -2.12973e+06 245606 0 -2.06261e+06 271727 0 -1.99102e+06 249517 0 -1.95014e+06 183984 0 -1.96179e+06 81085.6 0 -2.00589e+06 -3.65078e-07 0 -1.67858e+06 0 0 -1.70431e+06 -49264.4 0 -1.78094e+06 -85115.2 0 -1.88861e+06 -86175.3 0 -1.99008e+06 -52653.2 0 -2.06795e+06 -5377.05 0 -2.1227e+06 44313.6 0 -2.15689e+06 93953.7 0 -2.17073e+06 144032 0 -2.16183e+06 194331 0 -2.12566e+06 240358 0 -2.06215e+06 264271 0 -1.99549e+06 243900 0 -1.9586e+06 182055 0 -1.972e+06 85429 0 -2.01165e+06 -5.40167e-08 0 -1.68342e+06 0 0 -1.70866e+06 -44169.2 0 -1.78286e+06 -75505.9 0 -1.88672e+06 -75300.4 0 -1.98588e+06 -43684.5 0 -2.06313e+06 1192.96 0 -2.11783e+06 48732.4 0 -2.15201e+06 96372.5 0 -2.1658e+06 144339 0 -2.15701e+06 192184 0 -2.12188e+06 235317 0 -2.06173e+06 257300 0 -1.99963e+06 238674 0 -1.96654e+06 180533 0 -1.98182e+06 89634.1 0 -2.01896e+06 4.19095e-08 0 -1.68775e+06 0 0 -1.7125e+06 -39187.9 0 -1.78447e+06 -66233.5 0 -1.88489e+06 -64760.1 0 -1.98191e+06 -34835.8 0 -2.05854e+06 7742.19 0 -2.11317e+06 53152.7 0 -2.14734e+06 98787.3 0 -2.1611e+06 144644 0 -2.15246e+06 190073 0 -2.11837e+06 230477 0 -2.06135e+06 250770 0 -2.00345e+06 233826 0 -1.97399e+06 179387 0 -1.99131e+06 93793.9 0 -2.02767e+06 -7.63685e-08 0 -1.69158e+06 0 0 -1.71585e+06 -34317 0 -1.78579e+06 -57264.8 0 -1.88311e+06 -54521.9 0 -1.97815e+06 -26103.7 0 -2.05416e+06 14268.7 0 -2.10871e+06 57573.1 0 -2.14287e+06 101199 0 -2.15662e+06 144950 0 -2.14817e+06 188004 0 -2.11512e+06 225830 0 -2.06099e+06 244640 0 -2.00698e+06 229339 0 -1.98095e+06 178592 0 -2.0005e+06 97998.1 0 -2.03773e+06 5.58794e-08 0 -1.69492e+06 0 0 -1.71874e+06 -29551.4 0 -1.78681e+06 -48568.9 0 -1.88138e+06 -44555.7 0 -1.9746e+06 -17483 0 -2.05001e+06 20771 0 -2.10446e+06 61992.3 0 -2.13861e+06 103609 0 -2.15236e+06 145261 0 -2.14412e+06 185979 0 -2.11209e+06 221367 0 -2.06064e+06 238876 0 -2.01021e+06 225196 0 -1.98743e+06 178129 0 -2.00941e+06 102330 0 -2.04921e+06 -7.45058e-08 0 -1.69778e+06 0 0 -1.72117e+06 -24884.9 0 -1.78756e+06 -40116.8 0 -1.87967e+06 -34833.2 0 -1.97124e+06 -8967.93 0 -2.04607e+06 27248.4 0 -2.1004e+06 66409.4 0 -2.13454e+06 106018 0 -2.14831e+06 145578 0 -2.14032e+06 184000 0 -2.10927e+06 217077 0 -2.06029e+06 233446 0 -2.01315e+06 221374 0 -1.99345e+06 177986 0 -2.01803e+06 106864 0 -2.06227e+06 1.63913e-07 0 -1.70017e+06 0 0 -1.72315e+06 -20310.1 0 -1.78804e+06 -31881.5 0 -1.87798e+06 -25327.8 0 -1.96806e+06 -551.39 0 -2.04233e+06 33700.7 0 -2.09655e+06 70823.7 0 -2.13068e+06 108428 0 -2.14449e+06 145904 0 -2.13675e+06 182069 0 -2.10664e+06 212947 0 -2.05992e+06 228322 0 -2.01581e+06 217845 0 -1.99901e+06 178160 0 -2.02631e+06 111658 0 -2.07722e+06 -1.04308e-07 0 -1.70209e+06 0 0 -1.72471e+06 -15819.4 0 -1.78826e+06 -23837.2 0 -1.8763e+06 -16014.2 0 -1.96504e+06 7774.23 0 -2.0388e+06 40128 0 -2.0929e+06 75234.3 0 -2.12703e+06 110839 0 -2.14088e+06 146239 0 -2.13341e+06 180188 0 -2.1042e+06 208962 0 -2.05954e+06 223484 0 -2.01818e+06 214576 0 -2.00412e+06 178665 0 -2.03417e+06 116745 0 -2.09454e+06 8.19564e-08 0 -1.70356e+06 0 0 -1.72584e+06 -11404.1 0 -1.78822e+06 -15959.7 0 -1.87462e+06 -6868.36 0 -1.96218e+06 16017.1 0 -2.03547e+06 46531.2 0 -2.08944e+06 79640.8 0 -2.12357e+06 113252 0 -2.13748e+06 146584 0 -2.13029e+06 178361 0 -2.10192e+06 205104 0 -2.05913e+06 218918 0 -2.02027e+06 211518 0 -2.0088e+06 179534 0 -2.04148e+06 122120 0 -2.11495e+06 -1.04308e-07 0 -1.70458e+06 0 0 -1.72657e+06 -7055.64 0 -1.78794e+06 -8225.47 0 -1.87294e+06 2132.79 0 -1.95948e+06 24185.9 0 -2.03233e+06 52911.4 0 -2.08619e+06 84042.6 0 -2.12031e+06 115670 0 -2.1343e+06 146937 0 -2.12739e+06 176592 0 -2.0998e+06 201349 0 -2.05868e+06 214624 0 -2.02208e+06 208605 0 -2.01307e+06 180838 0 -2.04805e+06 127717 0 -2.13951e+06 1.19209e-07 0 -1.70515e+06 0 0 -1.72689e+06 -2764.99 0 -1.78742e+06 -612.116 0 -1.87125e+06 11011.4 0 -1.95692e+06 32289.4 0 -2.02939e+06 59270.3 0 -2.08313e+06 88438.8 0 -2.11726e+06 118096 0 -2.13133e+06 147295 0 -2.12469e+06 174889 0 -2.09784e+06 197662 0 -2.05818e+06 210619 0 -2.0236e+06 205734 0 -2.01695e+06 182704 0 -2.0536e+06 133371 0 -2.16978e+06 -2.98023e-08 0 -1.70528e+06 0 0 -1.72681e+06 1476.96 0 -1.78666e+06 6902.25 0 -1.86954e+06 19789 0 -1.95451e+06 40337 0 -2.02663e+06 65609.8 0 -2.08027e+06 92828.1 0 -2.11439e+06 120533 0 -2.12857e+06 147651 0 -2.12219e+06 173269 0 -2.09604e+06 193995 0 -2.05762e+06 206949 0 -2.02484e+06 202755 0 -2.02049e+06 185348 0 -2.0577e+06 138762 0 -2.208e+06 -1.3411e-07 0 -1.70498e+06 0 0 -1.72634e+06 5679.33 0 -1.78566e+06 14339.1 0 -1.86783e+06 28486.4 0 -1.95223e+06 48337.8 0 -2.02407e+06 71932.3 0 -2.07762e+06 97208.4 0 -2.11172e+06 122987 0 -2.12604e+06 147992 0 -2.11986e+06 171759 0 -2.09441e+06 190275 0 -2.05695e+06 203707 0 -2.02581e+06 199430 0 -2.02377e+06 189136 0 -2.05974e+06 143331 0 -2.25748e+06 8.9407e-08 0 -1.70424e+06 0 0 -1.72548e+06 9850.99 0 -1.78443e+06 21719.3 0 -1.86609e+06 37123.7 0 -1.95009e+06 56301.2 0 -2.02168e+06 78241.1 0 -2.07516e+06 101576 0 -2.10923e+06 125470 0 -2.12374e+06 148297 0 -2.11769e+06 170404 0 -2.09298e+06 186394 0 -2.05615e+06 201056 0 -2.02652e+06 195395 0 -2.0269e+06 194647 0 -2.05886e+06 146160 0 -2.32304e+06 -4.76837e-07 0 </DataArray> 
</PointData> 
<Points> 
<DataArray type="Float32" NumberOfComponents="3"> 
0 0.035 0 0.00666667 0.035 0 0.0133333 0.035 0 0.02 0.035 0 0.0266667 0.035 0 0.0333333 0.035 0 0.04 0.035 0 0.0466667 0.035 0 0.0533333 0.035 0 0.06 0.035 0 0.0666667 0.035 0 0.0733333 0.035 0 0.08 0.035 0 0.0866667 0.035 0 0.0933333 0.035 0 0.1 0.035 0 0 0.0356667 0 0.00666667 0.0356667 0 0.0133333 0.0356667 0 0.02 0.0356667 0 0.0266667 0.0356667 0 0.0333333 0.0356667 0 0.04 0.0356667 0 0.0466667 0.0356667 0 0.0533333 0.0356667 0 0.06 0.0356667 0 0.0666667 0.0356667 0 0.0733333 0.0356667 0 0.08 0.0356667 0 0.0866667 0.0356667 0 0.0933333 0.0356667 0 0.1 0.0356667 0 0 0.0363333 0 0.00666667 0.0363333 0 0.0133333 0.0363333 0 0.02 0.0363333 0 0.0266667 0.0363333 0 0.0333333 0.0363333 0 0.04 0.0363333 0 0.0466667 0.0363333 0 0.0533333 0.0363333 0 0.06 0.0363333 0 0.0666667 0.0363333 0 0.0733333 0.0363333 0 0.08 0.0363333 0 0.0866667 0.0363333 0 0.0933333 0.0363333 0 0.1 0.0363333 0 0 0.037 0 0.00666667 0.037 0 0.0133333 0.037 0 0.02 0.037 0 0.0266667 0.037 0 0.0333333 0.037 0 0.04 0.037 0 0.0466667 0.037 0 0.0533333 0.037 0 0.06 0.037 0 0.0666667 0.037 0 0.0733333 0.037 0 0.08 0.037 0 0.0866667 0.037 0 0.0933333 0.037 0 0.1 0.037 0 0 0.0376667 0 0.00666667 0.0376667 0 0.0133333 0.0376667 0 0.02 0.0376667 0 0.0266667 0.0376667 0 0.0333333 0.0376667 0 0.04 0.0376667 0 0.0466667 0.0376667 0 0.0533333 0.0376667 0 0.06 0.0376667 0 0.0666667 0.0376667 0 0.0733333 0.0376667 0 0.08 0.0376667 0 0.0866667 0.0376667 0 0.0933333 0.0376667 0 0.1 0.0376667 0 0 0.0383333 0 0.00666667 0.0383333 0 0.0133333 0.0383333 0 0.02 0.0383333 0 0.0266667 0.0383333 0 0.0333333 0.0383333 0 0.04 0.0383333 0 0.0466667 0.0383333 0 0.0533333 0.0383333 0 0.06 0.0383333 0 0.0666667 0.0383333 0 0.0733333 0.0383333 0 0.08 0.0383333 0 0.0866667 0.0383333 0 0.0933333 0.0383333 0 0.1 0.0383333 0 0 0.039 0 0.00666667 0.039 0 0.0133333 0.039 0 0.02 0.039 0 0.0266667 0.039 0 0.0333333 0.039 0 0.04 0.039 0 0.0466667 0.039 0 0.0533333 0.039 0 0.06 0.039 0 0.0666667 0.039 0 0.0733333 0.039 0 0.08 0.039 0 0.0866667 0.039 0 0.0933333 0.039 0 0.1 0.039 0 0 0.0396667 0 0.00666667 0.0396667 0 0.0133333 0.0396667 0 0.02 0.0396667 0 0.0266667 0.0396667 0 0.0333333 0.0396667 0 0.04 0.0396667 0 0.0466667 0.0396667 0 0.0533333 0.0396667 0 0.06 0.0396667 0 0.0666667 0.0396667 0 0.0733333 0.0396667 0 0.08 0.0396667 0 0.0866667 0.0396667 0 0.0933333 0.0396667 0 0.1 0.0396667 0 0 0.0403333 0 0.00666667 0.0403333 0 0.0133333 0.0403333 0 0.02 0.0403333 0 0.0266667 0.0403333 0 0.0333333 0.0403333 0 0.04 0.0403333 0 0.0466667 0.0403333 0 0.0533333 0.0403333 0 0.06 0.0403333 0 0.0666667 0.0403333 0 0.0733333 0.0403333 0 0.08 0.0403333 0 0.0866667 0.0403333 0 0.0933333 0.0403333 0 0.1 0.0403333 0 0 0.041 0 0.00666667 0.041 0 0.0133333 0.041 0 0.02 0.041 0 0.0266667 0.041 0 0.0333333 0.041 0 0.04 0.041 0 0.0466667 0.041 0 0.0533333 0.041 0 0.06 0.041 0 0.0666667 0.041 0 0.0733333 0.041 0 0.08 0.041 0 0.0866667 0.041 0 0.0933333 0.041 0 0.1 0.041 0 0 0.0416667 0 0.00666667 0.0416667 0 0.0133333 0.0416667 0 0.02 0.0416667 0 0.0266667 0.0416667 0 0.0333333 0.0416667 0 0.04 0.0416667 0 0.0466667 0.0416667 0 0.0533333 0.0416667 0 0.06 0.0416667 0 0.0666667 0.0416667 0 0.0733333 0.0416667 0 0.08 0.0416667 0 0.0866667 0.0416667 0 0.0933333 0.0416667 0 0.1 0.0416667 0 0 0.0423333 0 0.00666667 0.0423333 0 0.0133333 0.0423333 0 0.02 0.0423333 0 0.0266667 0.0423333 0 0.0333333 0.0423333 0 0.04 0.0423333 0 0.0466667 0.0423333 0 0.0533333 0.0423333 0 0.06 0.0423333 0 0.0666667 0.0423333 0 0.0733333 0.0423333 0 0.08 0.0423333 0 0.0866667 0.0423333 0 0.0933333 0.0423333 0 0.1 0.0423333 0 0 0.043 0 0.00666667 0.043 0 0.0133333 0.043 0 0.02 0.043 0 0.0266667 0.043 0 0.0333333 0.043 0 0.04 0.043 0 0.0466667 0.043 0 0.0533333 0.043 0 0.06 0.043 0 0.0666667 0.043 0 0.0733333 0.043 0 0.08 0.043 0 0.0866667 0.043 0 0.0933333 0.043 0 0.1 0.043 0 0 0.0436667 0 0.00666667 0.0436667 0 0.0133333 0.0436667 0 0.02 0.0436667 0 0.0266667 0.0436667 0 0.0333333 0.0436667 0 0.04 0.0436667 0 0.0466667 0.0436667 0 0.0533333 0.0436667 0 0.06 0.0436667 0 0.0666667 0.0436667 0 0.0733333 0.0436667 0 0.08 0.0436667 0 0.0866667 0.0436667 0 0.0933333 0.0436667 0 0.1 0.0436667 0 0 0.0443333 0 0.00666667 0.0443333 0 0.0133333 0.0443333 0 0.02 0.0443333 0 0.0266667 0.0443333 0 0.0333333 0.0443333 0 0.04 0.0443333 0 0.0466667 0.0443333 0 0.0533333 0.0443333 0 0.06 0.0443333 0 0.0666667 0.0443333 0 0.0733333 0.0443333 0 0.08 0.0443333 0 0.0866667 0.0443333 0 0.0933333 0.0443333 0 0.1 0.0443333 0 0 0.045 0 0.00666667 0.045 0 0.0133333 0.045 0 0.02 0.045 0 0.0266667 0.045 0 0.0333333 0.045 0 0.04 0.045 0 0.0466667 0.045 0 0.0533333 0.045 0 0.06 0.045 0 0.0666667 0.045 0 0.0733333 0.045 0 0.08 0.045 0 0.0866667 0.045 0 0.0933333 0.045 0 0.1 0.045 0 
</DataArray>
</Points> 
</Piece> 
</StructuredGrid> 
</VTKFile> 
