<?xml version="1.0"?> 
<VTKFile type="StructuredGrid" version="0.1"> 
<StructuredGrid WholeExtent="0 15 0 15 0 0"> 
<Piece Extent="0 15 0 15 0 0"> 
<PointData>
<DataArray type="Float32" Name="E" format="ascii" NumberOfComponents="3"> 
-907581 2.30982 0 -907040 -1416.74 0 -905390 -2586.94 0 -902531 -3249.27 0 -898283 -3126.25 0 -892338 -1896.29 0 -884200 733.047 0 -873146 5087.33 0 -857994 11186.4 0 -837482 18943.3 0 -809173 27177 0 -772452 34473.5 0 -721925 37528.7 0 -661574 32265.4 0 -568018 13753.9 0 -313221 -103001 0 -907074 1.89518 0 -906600 -982.175 0 -905154 -1705.63 0 -902653 -1895.41 0 -898940 -1243.21 0 -893742 604.547 0 -886608 4036.39 0 -876827 9452.68 0 -863290 17137.6 0 -844456 27100.9 0 -818211 38684.3 0 -782367 50379.1 0 -734292 59602.1 0 -671429 63556.2 0 -585417 59364.6 0 -442893 62604.4 0 -906729 1.9445 0 -906322 -603.317 0 -905083 -940.827 0 -902946 -727.105 0 -899783 366.261 0 -895363 2727.9 0 -889290 6815.34 0 -880907 13139.2 0 -869152 22181.3 0 -852421 34207.1 0 -828495 48911.5 0 -794740 65030.8 0 -748575 80246.4 0 -687424 92099 0 -607179 100294 0 -497608 118979 0 -906526 1.96143 0 -906186 -281.338 0 -905154 -294.795 0 -903383 250.146 0 -900776 1694.54 0 -897151 4454.47 0 -892181 9043.8 0 -885289 16078.7 0 -875492 26229.9 0 -861199 40056.1 0 -840064 57641.3 0 -809121 78060.2 0 -765445 99106.8 0 -706858 118153 0 -631757 134929 0 -538658 157720 0 -906446 1.93045 0 -906172 -16.5184 0 -905344 231.754 0 -903933 1034.5 0 -901878 2737.62 0 -899051 5774.44 0 -895205 10701.1 0 -889867 18224.7 0 -882173 29193.1 0 -870615 44475.7 0 -852784 64607.2 0 -825358 89119.6 0 -784872 115909 0 -729136 141787 0 -658164 165295 0 -574123 190832 0 -906468 1.85807 0 -906258 191.797 0 -905627 640.101 0 -904565 1627.59 0 -903048 3496.89 0 -901005 6686.67 0 -898277 11778.9 0 -894519 19549.1 0 -889027 31000.9 0 -880459 47311 0 -866431 69531.7 0 -843311 97819.5 0 -806817 130331 0 -754194 163101 0 -686251 192810 0 -607377 220871 0 -906572 1.78424 0 -906422 345.268 0 -905977 933.651 0 -905247 2034.9 0 -904242 3979.59 0 -902952 7199.87 0 -901311 12283.3 0 -899113 20047.4 0 -895864 31612.3 0 -890458 48440.3 0 -880711 72137.4 0 -862744 103708 0 -831325 141917 0 -782252 182066 0 -716415 218376 0 -639912 249414 0 -906736 1.57193 0 -906641 446.548 0 -906369 1118.17 0 -905946 2265.53 0 -905418 4199.86 0 -904831 7332.26 0 -904212 12238.5 0 -903513 19739.3 0 -902461 31030.7 0 -900310 47787.5 0 -895189 72183 0 -883336 106253 0 -858355 149997 0 -813871 198386 0 -749362 242565 0 -672978 277494 0 -906939 1.589 0 -906895 499.402 0 -906778 1201.36 0 -906633 2333.18 0 -906534 4176.99 0 -906583 7114.99 0 -906899 11682.7 0 -907575 18681.4 0 -908612 29299.7 0 -909621 45366 0 -909381 69484.2 0 -904425 104911 0 -887859 153570 0 -849677 211346 0 -786419 265684 0 -707624 306057 0 -907161 1.01659 0 -907161 508.38 0 -907181 1193.83 0 -907277 2253.69 0 -907553 3939.57 0 -908157 6583.82 0 -909284 10680.9 0 -911184 16945.6 0 -914068 26543.7 0 -918064 41254.8 0 -922546 64044.2 0 -925252 99149.5 0 -919075 151341 0 -890794 219438 0 -829233 287673 0 -745454 336409 0 -907385 1.52947 0 -907422 479.366 0 -907555 1106.47 0 -907854 2049.83 0 -908442 3514.79 0 -909503 5796.42 0 -911310 9292.66 0 -914202 14669.5 0 -918686 22888.6 0 -925169 35730.3 0 -934132 55972.8 0 -944326 88827.8 0 -950959 141644 0 -937446 220014 0 -881301 307770 0 -788521 369386 0 -907592 0.0392317 0 -907658 418.175 0 -907883 955.086 0 -908342 1740.21 0 -909173 2948.09 0 -910592 4792.76 0 -912906 7634.22 0 -916590 11941.5 0 -922223 18627.4 0 -930803 29012.2 0 -943158 45883.7 0 -960605 74037.4 0 -980294 123389 0 -989585 208393 0 -946976 323038 0 -840048 409686 0 -907770 2.12249 0 -907858 332.774 0 -908148 750.783 0 -908722 1358.38 0 -909727 2263.08 0 -911390 3664.14 0 -914063 5749.72 0 -918240 9000.77 0 -924698 13877.7 0 -934557 21722.9 0 -949465 34230 0 -972056 56113.1 0 -1.0042e+06 96354.6 0 -1.04142e+06 178382 0 -1.03409e+06 326157 0 -908487 457211 0 -907904 -1.97007 0 -908006 228.559 0 -908339 516.671 0 -908985 914.889 0 -910091 1532.88 0 -911897 2415.35 0 -914743 3843.63 0 -919192 5830.29 0 -926009 9184.88 0 -936455 13919.9 0 -952800 22463.4 0 -977510 36061.8 0 -1.01954e+06 64008.2 0 -1.08017e+06 125105 0 -1.14839e+06 293384 0 -1.00208e+06 546300 0 -907989 2.87326 0 -908098 116.468 0 -908449 256.321 0 -909122 464.228 0 -910265 742.717 0 -912098 1218.52 0 -914987 1812.78 0 -919421 2936.15 0 -926230 4222.06 0 -936717 6968.96 0 -952578 10182.9 0 -979117 17569 0 -1.01887e+06 29531.7 0 -1.10264e+06 58389.4 0 -1.24404e+06 176608 0 -1.18755e+06 690421 0 -908021 -1.43051e-06 0 -908129 1.78872e-07 0 -908469 -3.1665e-08 0 -909136 -4.09782e-08 0 -910251 5.7742e-08 0 -912001 3.35276e-08 0 -914866 -7.07805e-08 0 -918820 1.08033e-07 0 -925995 -8.9407e-08 0 -934043 5.96046e-08 0 -953146 -2.23517e-08 0 -968013 4.47035e-08 0 -1.02567e+06 -7.45058e-08 0 -1.06023e+06 1.49012e-08 0 -1.26133e+06 0 0 -2.89178e+06 2.38419e-07 0 </DataArray> 
</PointData> 
<Points> 
<DataArray type="Float32" NumberOfComponents="3"> 
0.253 0 0 0.253 0.0018 0 0.253 0.0036 0 0.253 0.0054 0 0.253 0.0072 0 0.253 0.009 0 0.253 0.0108 0 0.253 0.0126 0 0.253 0.0144 0 0.253 0.0162 0 0.253 0.018 0 0.253 0.0198 0 0.253 0.0216 0 0.253 0.0234 0 0.253 0.0252 0 0.253 0.027 0 0.253733 0 0 0.253733 0.00177333 0 0.253733 0.00354667 0 0.253733 0.00532 0 0.253733 0.00709333 0 0.253733 0.00886667 0 0.253733 0.01064 0 0.253733 0.0124133 0 0.253733 0.0141867 0 0.253733 0.01596 0 0.253733 0.0177333 0 0.253733 0.0195067 0 0.253733 0.02128 0 0.253733 0.0230533 0 0.253733 0.0248267 0 0.253733 0.0266 0 0.254467 0 0 0.254467 0.00174667 0 0.254467 0.00349333 0 0.254467 0.00524 0 0.254467 0.00698667 0 0.254467 0.00873333 0 0.254467 0.01048 0 0.254467 0.0122267 0 0.254467 0.0139733 0 0.254467 0.01572 0 0.254467 0.0174667 0 0.254467 0.0192133 0 0.254467 0.02096 0 0.254467 0.0227067 0 0.254467 0.0244533 0 0.254467 0.0262 0 0.2552 0 0 0.2552 0.00172 0 0.2552 0.00344 0 0.2552 0.00516 0 0.2552 0.00688 0 0.2552 0.0086 0 0.2552 0.01032 0 0.2552 0.01204 0 0.2552 0.01376 0 0.2552 0.01548 0 0.2552 0.0172 0 0.2552 0.01892 0 0.2552 0.02064 0 0.2552 0.02236 0 0.2552 0.02408 0 0.2552 0.0258 0 0.255933 0 0 0.255933 0.00169333 0 0.255933 0.00338667 0 0.255933 0.00508 0 0.255933 0.00677333 0 0.255933 0.00846667 0 0.255933 0.01016 0 0.255933 0.0118533 0 0.255933 0.0135467 0 0.255933 0.01524 0 0.255933 0.0169333 0 0.255933 0.0186267 0 0.255933 0.02032 0 0.255933 0.0220133 0 0.255933 0.0237067 0 0.255933 0.0254 0 0.256667 0 0 0.256667 0.00166667 0 0.256667 0.00333333 0 0.256667 0.005 0 0.256667 0.00666667 0 0.256667 0.00833333 0 0.256667 0.01 0 0.256667 0.0116667 0 0.256667 0.0133333 0 0.256667 0.015 0 0.256667 0.0166667 0 0.256667 0.0183333 0 0.256667 0.02 0 0.256667 0.0216667 0 0.256667 0.0233333 0 0.256667 0.025 0 0.2574 0 0 0.2574 0.00164 0 0.2574 0.00328 0 0.2574 0.00492 0 0.2574 0.00656 0 0.2574 0.0082 0 0.2574 0.00984 0 0.2574 0.01148 0 0.2574 0.01312 0 0.2574 0.01476 0 0.2574 0.0164 0 0.2574 0.01804 0 0.2574 0.01968 0 0.2574 0.02132 0 0.2574 0.02296 0 0.2574 0.0246 0 0.258133 0 0 0.258133 0.00161333 0 0.258133 0.00322667 0 0.258133 0.00484 0 0.258133 0.00645333 0 0.258133 0.00806667 0 0.258133 0.00968 0 0.258133 0.0112933 0 0.258133 0.0129067 0 0.258133 0.01452 0 0.258133 0.0161333 0 0.258133 0.0177467 0 0.258133 0.01936 0 0.258133 0.0209733 0 0.258133 0.0225867 0 0.258133 0.0242 0 0.258867 0 0 0.258867 0.00158667 0 0.258867 0.00317333 0 0.258867 0.00476 0 0.258867 0.00634667 0 0.258867 0.00793333 0 0.258867 0.00952 0 0.258867 0.0111067 0 0.258867 0.0126933 0 0.258867 0.01428 0 0.258867 0.0158667 0 0.258867 0.0174533 0 0.258867 0.01904 0 0.258867 0.0206267 0 0.258867 0.0222133 0 0.258867 0.0238 0 0.2596 0 0 0.2596 0.00156 0 0.2596 0.00312 0 0.2596 0.00468 0 0.2596 0.00624 0 0.2596 0.0078 0 0.2596 0.00936 0 0.2596 0.01092 0 0.2596 0.01248 0 0.2596 0.01404 0 0.2596 0.0156 0 0.2596 0.01716 0 0.2596 0.01872 0 0.2596 0.02028 0 0.2596 0.02184 0 0.2596 0.0234 0 0.260333 0 0 0.260333 0.00153333 0 0.260333 0.00306667 0 0.260333 0.0046 0 0.260333 0.00613333 0 0.260333 0.00766667 0 0.260333 0.0092 0 0.260333 0.0107333 0 0.260333 0.0122667 0 0.260333 0.0138 0 0.260333 0.0153333 0 0.260333 0.0168667 0 0.260333 0.0184 0 0.260333 0.0199333 0 0.260333 0.0214667 0 0.260333 0.023 0 0.261067 0 0 0.261067 0.00150667 0 0.261067 0.00301333 0 0.261067 0.00452 0 0.261067 0.00602667 0 0.261067 0.00753333 0 0.261067 0.00904 0 0.261067 0.0105467 0 0.261067 0.0120533 0 0.261067 0.01356 0 0.261067 0.0150667 0 0.261067 0.0165733 0 0.261067 0.01808 0 0.261067 0.0195867 0 0.261067 0.0210933 0 0.261067 0.0226 0 0.2618 0 0 0.2618 0.00148 0 0.2618 0.00296 0 0.2618 0.00444 0 0.2618 0.00592 0 0.2618 0.0074 0 0.2618 0.00888 0 0.2618 0.01036 0 0.2618 0.01184 0 0.2618 0.01332 0 0.2618 0.0148 0 0.2618 0.01628 0 0.2618 0.01776 0 0.2618 0.01924 0 0.2618 0.02072 0 0.2618 0.0222 0 0.262533 0 0 0.262533 0.00145333 0 0.262533 0.00290667 0 0.262533 0.00436 0 0.262533 0.00581333 0 0.262533 0.00726667 0 0.262533 0.00872 0 0.262533 0.0101733 0 0.262533 0.0116267 0 0.262533 0.01308 0 0.262533 0.0145333 0 0.262533 0.0159867 0 0.262533 0.01744 0 0.262533 0.0188933 0 0.262533 0.0203467 0 0.262533 0.0218 0 0.263267 0 0 0.263267 0.00142667 0 0.263267 0.00285333 0 0.263267 0.00428 0 0.263267 0.00570667 0 0.263267 0.00713333 0 0.263267 0.00856 0 0.263267 0.00998667 0 0.263267 0.0114133 0 0.263267 0.01284 0 0.263267 0.0142667 0 0.263267 0.0156933 0 0.263267 0.01712 0 0.263267 0.0185467 0 0.263267 0.0199733 0 0.263267 0.0214 0 0.264 0 0 0.264 0.0014 0 0.264 0.0028 0 0.264 0.0042 0 0.264 0.0056 0 0.264 0.007 0 0.264 0.0084 0 0.264 0.0098 0 0.264 0.0112 0 0.264 0.0126 0 0.264 0.014 0 0.264 0.0154 0 0.264 0.0168 0 0.264 0.0182 0 0.264 0.0196 0 0.264 0.021 0 
</DataArray>
</Points> 
</Piece> 
</StructuredGrid> 
</VTKFile> 
