<?xml version="1.0"?> 
<VTKFile type="StructuredGrid" version="0.1"> 
<StructuredGrid WholeExtent="0 15 0 15 0 0"> 
<Piece Extent="0 15 0 15 0 0"> 
<PointData>
<DataArray type="Float32" Name="E" format="ascii" NumberOfComponents="3"> 
-548399 -1.71914e+06 0 528394 -1.30858e+06 0 882592 -943473 0 984295 -616646 0 1.03381e+06 -353017 0 1.01196e+06 -140274 0 969676 34432.5 0 900365 177688 0 817067 295827 0 720081 392095 0 613589 469634 0 499294 530383 0 379239 576063 0 255051 607834 0 128171 626567 0 0 632754 0 -281693 -1.51277e+06 0 506034 -1.26787e+06 0 833889 -921803 0 962279 -608972 0 1.00613e+06 -352360 0 994424 -143175 0 952775 28554.3 0 887597 170090 0 806081 286616 0 711369 381806 0 606587 458402 0 493920 518484 0 375330 563643 0 252494 595069 0 126917 613596 0 0 619715 0 -213848 -1.38698e+06 0 476737 -1.22261e+06 0 797414 -900358 0 935328 -600762 0 982005 -351036 0 975700 -145838 0 936828 23093.6 0 874676 162685 0 795366 277667 0 702711 371688 0 599681 447354 0 488605 506733 0 371462 551368 0 249970 582438 0 125672 600755 0 0 606805 0 -173023 -1.29315e+06 0 449068 -1.17694e+06 0 764548 -878790 0 908287 -592026 0 958940 -349201 0 957049 -148167 0 921243 17965.5 0 861876 155517 0 784813 268945 0 694152 361755 0 592862 436479 0 483353 495134 0 367639 539236 0 247476 569938 0 124442 588041 0 0 594021 0 -144926 -1.21641e+06 0 423844 -1.1322e+06 0 734152 -857077 0 881766 -582810 0 936618 -346916 0 938639 -150145 0 905950 13141 0 849236 148594 0 774410 260440 0 685699 352008 0 586129 425771 0 478166 483686 0 363862 527243 0 245011 557570 0 123226 575453 0 0 581361 0 -123505 -1.15099e+06 0 401190 -1.08891e+06 0 705712 -835280 0 856011 -573170 0 914915 -344219 0 920542 -151776 0 890922 8606.08 0 836775 141916 0 764154 252145 0 677358 342446 0 579484 415227 0 473044 472387 0 360132 515387 0 242577 545330 0 122024 562990 0 0 568824 0 -105596 -1.09303e+06 0 380973 -1.04737e+06 0 678950 -813468 0 831128 -563156 0 893778 -341140 0 902794 -153072 0 876152 4350.36 0 824503 135478 0 754045 244057 0 669131 333066 0 572927 404846 0 467989 461235 0 356450 503667 0 240175 533218 0 120838 550649 0 0 556408 0 -90201.4 -1.04062e+06 0 362929 -1.00766e+06 0 653736 -791720 0 807131 -552819 0 873196 -337706 0 885405 -154044 0 861641 365.587 0 812424 129276 0 744087 236171 0 661021 323865 0 566462 394624 0 463003 450229 0 352818 492080 0 237804 521233 0 119668 538430 0 0 544112 0 -76027.1 -992424 0 346805 -969824 0 629950 -770103 0 784026 -542208 0 853160 -333941 0 868385 -154709 0 847391 -3356.3 0 800543 123304 0 734281 228484 0 653031 314841 0 560088 384559 0 458086 439365 0 349236 480626 0 235465 509371 0 118513 526330 0 0 531934 0 -62618.4 -947733 0 332325 -933832 0 607518 -748678 0 761791 -531365 0 833674 -329870 0 851737 -155078 0 833406 -6823.29 0 788863 117556 0 724629 220991 0 645161 305991 0 553809 374649 0 453241 428643 0 345704 469301 0 233159 497632 0 117375 514348 0 0 519872 0 -49032.5 -906222 0 319256 -899640 0 586347 -727494 0 740411 -520330 0 814732 -325517 0 835464 -155167 0 819691 -10043.5 0 777386 112027 0 715136 213689 0 637415 297310 0 547625 364892 0 448468 418058 0 342225 458104 0 230887 486014 0 116253 502483 0 0 507926 0 -34676.2 -867877 0 307371 -867176 0 566359 -706591 0 719863 -509141 0 796334 -320903 0 819567 -154989 0 806247 -13025.3 0 766115 106712 0 705802 206574 0 629794 288796 0 541538 355283 0 443768 407611 0 338798 447034 0 228650 474514 0 115148 490732 0 0 496092 0 -17922.8 -833526 0 296519 -836310 0 547423 -686005 0 700155 -497830 0 778460 -316050 0 804056 -154557 0 793076 -15776.4 0 755055 101603 0 696630 199643 0 622300 280446 0 535550 345822 0 439143 397297 0 335426 436087 0 226447 463132 0 114060 479094 0 0 484370 0 4137.18 -804671 0 286657 -806849 0 529322 -665771 0 681344 -486427 0 761064 -310977 0 788952 -153887 0 780168 -18304 0 744213 96696.5 0 687620 192890 0 614936 272257 0 529661 336506 0 434594 387116 0 332108 425263 0 224279 451865 0 112990 467567 0 0 472757 0 38278 -786778 0 278033 -778279 0 511589 -645953 0 663632 -474963 0 744022 -305692 0 774314 -153000 0 767499 -20609.2 0 733602 91980.9 0 678768 186315 0 607706 264223 0 523873 327332 0 430122 377063 0 328845 414559 0 222147 440711 0 111937 456149 0 0 461252 0 166175 -800745 0 274498 -748873 0 490269 -626757 0 649193 -463481 0 726185 -300164 0 760709 -151953 0 754801 -22669.8 0 723347 87431.9 0 670027 179924 0 600630 256335 0 518182 318301 0 425729 367136 0 325640 403974 0 220050 429668 0 110904 444839 0 0 449854 0 </DataArray> 
</PointData> 
<Points> 
<DataArray type="Float32" NumberOfComponents="3"> 
0.406 0.03 0 0.406 0.0365333 0 0.406 0.0430667 0 0.406 0.0496 0 0.406 0.0561333 0 0.406 0.0626667 0 0.406 0.0692 0 0.406 0.0757333 0 0.406 0.0822667 0 0.406 0.0888 0 0.406 0.0953333 0 0.406 0.101867 0 0.406 0.1084 0 0.406 0.114933 0 0.406 0.121467 0 0.406 0.128 0 0.406667 0.03 0 0.406667 0.0365333 0 0.406667 0.0430667 0 0.406667 0.0496 0 0.406667 0.0561333 0 0.406667 0.0626667 0 0.406667 0.0692 0 0.406667 0.0757333 0 0.406667 0.0822667 0 0.406667 0.0888 0 0.406667 0.0953333 0 0.406667 0.101867 0 0.406667 0.1084 0 0.406667 0.114933 0 0.406667 0.121467 0 0.406667 0.128 0 0.407333 0.03 0 0.407333 0.0365333 0 0.407333 0.0430667 0 0.407333 0.0496 0 0.407333 0.0561333 0 0.407333 0.0626667 0 0.407333 0.0692 0 0.407333 0.0757333 0 0.407333 0.0822667 0 0.407333 0.0888 0 0.407333 0.0953333 0 0.407333 0.101867 0 0.407333 0.1084 0 0.407333 0.114933 0 0.407333 0.121467 0 0.407333 0.128 0 0.408 0.03 0 0.408 0.0365333 0 0.408 0.0430667 0 0.408 0.0496 0 0.408 0.0561333 0 0.408 0.0626667 0 0.408 0.0692 0 0.408 0.0757333 0 0.408 0.0822667 0 0.408 0.0888 0 0.408 0.0953333 0 0.408 0.101867 0 0.408 0.1084 0 0.408 0.114933 0 0.408 0.121467 0 0.408 0.128 0 0.408667 0.03 0 0.408667 0.0365333 0 0.408667 0.0430667 0 0.408667 0.0496 0 0.408667 0.0561333 0 0.408667 0.0626667 0 0.408667 0.0692 0 0.408667 0.0757333 0 0.408667 0.0822667 0 0.408667 0.0888 0 0.408667 0.0953333 0 0.408667 0.101867 0 0.408667 0.1084 0 0.408667 0.114933 0 0.408667 0.121467 0 0.408667 0.128 0 0.409333 0.03 0 0.409333 0.0365333 0 0.409333 0.0430667 0 0.409333 0.0496 0 0.409333 0.0561333 0 0.409333 0.0626667 0 0.409333 0.0692 0 0.409333 0.0757333 0 0.409333 0.0822667 0 0.409333 0.0888 0 0.409333 0.0953333 0 0.409333 0.101867 0 0.409333 0.1084 0 0.409333 0.114933 0 0.409333 0.121467 0 0.409333 0.128 0 0.41 0.03 0 0.41 0.0365333 0 0.41 0.0430667 0 0.41 0.0496 0 0.41 0.0561333 0 0.41 0.0626667 0 0.41 0.0692 0 0.41 0.0757333 0 0.41 0.0822667 0 0.41 0.0888 0 0.41 0.0953333 0 0.41 0.101867 0 0.41 0.1084 0 0.41 0.114933 0 0.41 0.121467 0 0.41 0.128 0 0.410667 0.03 0 0.410667 0.0365333 0 0.410667 0.0430667 0 0.410667 0.0496 0 0.410667 0.0561333 0 0.410667 0.0626667 0 0.410667 0.0692 0 0.410667 0.0757333 0 0.410667 0.0822667 0 0.410667 0.0888 0 0.410667 0.0953333 0 0.410667 0.101867 0 0.410667 0.1084 0 0.410667 0.114933 0 0.410667 0.121467 0 0.410667 0.128 0 0.411333 0.03 0 0.411333 0.0365333 0 0.411333 0.0430667 0 0.411333 0.0496 0 0.411333 0.0561333 0 0.411333 0.0626667 0 0.411333 0.0692 0 0.411333 0.0757333 0 0.411333 0.0822667 0 0.411333 0.0888 0 0.411333 0.0953333 0 0.411333 0.101867 0 0.411333 0.1084 0 0.411333 0.114933 0 0.411333 0.121467 0 0.411333 0.128 0 0.412 0.03 0 0.412 0.0365333 0 0.412 0.0430667 0 0.412 0.0496 0 0.412 0.0561333 0 0.412 0.0626667 0 0.412 0.0692 0 0.412 0.0757333 0 0.412 0.0822667 0 0.412 0.0888 0 0.412 0.0953333 0 0.412 0.101867 0 0.412 0.1084 0 0.412 0.114933 0 0.412 0.121467 0 0.412 0.128 0 0.412667 0.03 0 0.412667 0.0365333 0 0.412667 0.0430667 0 0.412667 0.0496 0 0.412667 0.0561333 0 0.412667 0.0626667 0 0.412667 0.0692 0 0.412667 0.0757333 0 0.412667 0.0822667 0 0.412667 0.0888 0 0.412667 0.0953333 0 0.412667 0.101867 0 0.412667 0.1084 0 0.412667 0.114933 0 0.412667 0.121467 0 0.412667 0.128 0 0.413333 0.03 0 0.413333 0.0365333 0 0.413333 0.0430667 0 0.413333 0.0496 0 0.413333 0.0561333 0 0.413333 0.0626667 0 0.413333 0.0692 0 0.413333 0.0757333 0 0.413333 0.0822667 0 0.413333 0.0888 0 0.413333 0.0953333 0 0.413333 0.101867 0 0.413333 0.1084 0 0.413333 0.114933 0 0.413333 0.121467 0 0.413333 0.128 0 0.414 0.03 0 0.414 0.0365333 0 0.414 0.0430667 0 0.414 0.0496 0 0.414 0.0561333 0 0.414 0.0626667 0 0.414 0.0692 0 0.414 0.0757333 0 0.414 0.0822667 0 0.414 0.0888 0 0.414 0.0953333 0 0.414 0.101867 0 0.414 0.1084 0 0.414 0.114933 0 0.414 0.121467 0 0.414 0.128 0 0.414667 0.03 0 0.414667 0.0365333 0 0.414667 0.0430667 0 0.414667 0.0496 0 0.414667 0.0561333 0 0.414667 0.0626667 0 0.414667 0.0692 0 0.414667 0.0757333 0 0.414667 0.0822667 0 0.414667 0.0888 0 0.414667 0.0953333 0 0.414667 0.101867 0 0.414667 0.1084 0 0.414667 0.114933 0 0.414667 0.121467 0 0.414667 0.128 0 0.415333 0.03 0 0.415333 0.0365333 0 0.415333 0.0430667 0 0.415333 0.0496 0 0.415333 0.0561333 0 0.415333 0.0626667 0 0.415333 0.0692 0 0.415333 0.0757333 0 0.415333 0.0822667 0 0.415333 0.0888 0 0.415333 0.0953333 0 0.415333 0.101867 0 0.415333 0.1084 0 0.415333 0.114933 0 0.415333 0.121467 0 0.415333 0.128 0 0.416 0.03 0 0.416 0.0365333 0 0.416 0.0430667 0 0.416 0.0496 0 0.416 0.0561333 0 0.416 0.0626667 0 0.416 0.0692 0 0.416 0.0757333 0 0.416 0.0822667 0 0.416 0.0888 0 0.416 0.0953333 0 0.416 0.101867 0 0.416 0.1084 0 0.416 0.114933 0 0.416 0.121467 0 0.416 0.128 0 
</DataArray>
</Points> 
</Piece> 
</StructuredGrid> 
</VTKFile> 
