<?xml version="1.0"?> 
<VTKFile type="StructuredGrid" version="0.1"> 
<StructuredGrid WholeExtent="0 15 0 15 0 0"> 
<Piece Extent="0 15 0 15 0 0"> 
<PointData>
<DataArray type="Float32" Name="E" format="ascii" NumberOfComponents="3"> 
324616 4.92347e+06 0 308690 4.91544e+06 0 289242 4.88857e+06 0 267130 4.84547e+06 0 243387 4.78992e+06 0 218959 4.72621e+06 0 194559 4.65856e+06 0 170629 4.59072e+06 0 147380 4.52577e+06 0 124860 4.46611e+06 0 103015 4.41349e+06 0 81743.2 4.36917e+06 0 60924.9 4.33401e+06 0 40438 4.30856e+06 0 20166.2 4.29317e+06 0 0 4.28802e+06 0 324303 4.91874e+06 0 319736 4.90904e+06 0 310508 4.88045e+06 0 296650 4.83582e+06 0 278740 4.77906e+06 0 257640 4.71448e+06 0 234260 4.64625e+06 0 209396 4.57806e+06 0 183662 4.51289e+06 0 157486 4.4531e+06 0 131140 4.4004e+06 0 104780 4.35603e+06 0 78480.5 4.32083e+06 0 52261.6 4.29535e+06 0 26111.5 4.27994e+06 0 0 4.27479e+06 0 324438 4.92078e+06 0 331560 4.90903e+06 0 332704 4.87776e+06 0 327089 4.83027e+06 0 314895 4.77083e+06 0 296965 4.70398e+06 0 274448 4.63395e+06 0 248518 4.5644e+06 0 220195 4.49825e+06 0 190289 4.43776e+06 0 159389 4.38458e+06 0 127903 4.33988e+06 0 96093.5 4.30446e+06 0 64120.5 4.27885e+06 0 32073.7 4.26337e+06 0 0 4.25819e+06 0 325041 4.92992e+06 0 344567 4.91564e+06 0 356515 4.88061e+06 0 359272 4.82882e+06 0 352689 4.76518e+06 0 337688 4.69462e+06 0 315753 4.62156e+06 0 288487 4.54966e+06 0 257350 4.48178e+06 0 223534 4.42004e+06 0 187946 4.366e+06 0 151233 4.32071e+06 0 113841 4.28491e+06 0 76059.9 4.25906e+06 0 38073.3 4.24345e+06 0 0 4.23823e+06 0 326148 4.94672e+06 0 359232 4.92931e+06 0 382717 4.88924e+06 0 394101 4.83152e+06 0 393003 4.762e+06 0 380586 4.68623e+06 0 358804 4.60889e+06 0 329790 4.53369e+06 0 295483 4.46335e+06 0 257475 4.39986e+06 0 216983 4.34459e+06 0 174886 4.29848e+06 0 131796 4.26214e+06 0 88121.5 4.23595e+06 0 44129.5 4.22016e+06 0 0 4.21488e+06 0 327818 4.97205e+06 0 376138 4.95071e+06 0 412225 4.904e+06 0 432591 4.83842e+06 0 436785 4.76115e+06 0 426453 4.67857e+06 0 404228 4.5957e+06 0 372892 4.51624e+06 0 334929 4.44277e+06 0 292344 4.37706e+06 0 246656 4.32025e+06 0 198962 4.27311e+06 0 150021 4.2361e+06 0 100341 4.2095e+06 0 50258.2 4.19349e+06 0 0 4.18815e+06 0 330131 5.00712e+06 0 396042 4.9808e+06 0 446166 4.92539e+06 0 475926 4.84958e+06 0 485079 4.76241e+06 0 476121 4.67129e+06 0 452640 4.58161e+06 0 418233 4.49699e+06 0 375989 4.41979e+06 0 328340 4.35144e+06 0 277096 4.29284e+06 0 223543 4.2445e+06 0 168563 4.20672e+06 0 112745 4.17967e+06 0 56471.2 4.16341e+06 0 0 4.15799e+06 0 333201 5.05369e+06 0 419963 5.0209e+06 0 485987 4.95401e+06 0 525527 4.865e+06 0 539049 4.7654e+06 0 530448 4.66389e+06 0 504639 4.56613e+06 0 466210 4.47554e+06 0 418920 4.39407e+06 0 365627 4.32277e+06 0 308400 4.26218e+06 0 248685 4.21255e+06 0 187456 4.17394e+06 0 125350 4.14639e+06 0 62775.4 4.12988e+06 0 0 4.12437e+06 0 337190 5.11419e+06 0 449332 5.07277e+06 0 533601 4.99057e+06 0 583126 4.88454e+06 0 599995 4.76958e+06 0 590314 4.6557e+06 0 560782 4.54864e+06 0 517165 4.45136e+06 0 463923 4.36523e+06 0 404316 4.29077e+06 0 340629 4.22809e+06 0 274419 4.17711e+06 0 206711 4.13767e+06 0 138160 4.10963e+06 0 69171.6 4.09286e+06 0 0 4.08728e+06 0 342328 5.19212e+06 0 486269 5.13882e+06 0 591607 5.03582e+06 0 650852 4.9078e+06 0 669351 4.77409e+06 0 656587 4.64582e+06 0 621561 4.52837e+06 0 571356 4.42385e+06 0 511125 4.33282e+06 0 444461 4.25512e+06 0 373796 4.19034e+06 0 300740 4.13805e+06 0 226318 4.09781e+06 0 151165 4.06932e+06 0 75653.9 4.05231e+06 0 0 4.04666e+06 0 348960 5.29271e+06 0 534020 5.22226e+06 0 663611 5.09034e+06 0 731292 4.93391e+06 0 748649 4.77763e+06 0 730067 4.63306e+06 0 687351 4.50436e+06 0 628934 4.39232e+06 0 560562 4.29634e+06 0 486045 4.21548e+06 0 407866 4.14872e+06 0 327608 4.09522e+06 0 246243 4.05429e+06 0 164341 4.0254e+06 0 82209.7 4.00821e+06 0 0 4.0025e+06 0 357613 5.42394e+06 0 597924 5.32746e+06 0 754644 5.15423e+06 0 827516 4.96121e+06 0 839407 4.77837e+06 0 811396 4.6159e+06 0 758357 4.47551e+06 0 689905 4.35597e+06 0 612160 4.25527e+06 0 528973 4.17149e+06 0 442747 4.10299e+06 0 354945 4.04849e+06 0 266425 4.00701e+06 0 177647 3.97784e+06 0 88818.9 3.96053e+06 0 0 3.95478e+06 0 369214 5.59991e+06 0 687202 5.46e+06 0 871667 5.22617e+06 0 942920 4.98673e+06 0 942931 4.77371e+06 0 900923 4.59247e+06 0 834539 4.44054e+06 0 754095 4.31398e+06 0 665722 4.20907e+06 0 573064 4.12283e+06 0 478286 4.05296e+06 0 382635 3.99773e+06 0 286781 3.95591e+06 0 191029 3.92661e+06 0 95454.5 3.90925e+06 0 0 3.9035e+06 0 385494 5.84682e+06 0 818928 5.62639e+06 0 1.02369e+06 5.30168e+06 0 1.08081e+06 5.00563e+06 0 1.05995e+06 4.76026e+06 0 998557 4.56058e+06 0 915536 4.39809e+06 0 821126 4.26549e+06 0 720911 4.1572e+06 0 618046 4.06916e+06 0 514275 3.99842e+06 0 410520 3.94285e+06 0 307199 3.90096e+06 0 204416 3.8717e+06 0 102083 3.8544e+06 0 0 3.84868e+06 0 411086 6.23498e+06 0 1.02567e+06 5.82808e+06 0 1.22051e+06 5.37007e+06 0 1.24347e+06 5.01078e+06 0 1.19007e+06 4.73392e+06 0 1.10363e+06 4.51786e+06 0 1.00057e+06 4.3468e+06 0 890401 4.20968e+06 0 777244 4.09921e+06 0 663562 4.01022e+06 0 550445 3.93924e+06 0 438409 3.88377e+06 0 327547 3.84212e+06 0 217725 3.81312e+06 0 108663 3.796e+06 0 0 3.79034e+06 0 463672 7.03256e+06 0 1.35267e+06 6.02909e+06 0 1.47499e+06 5.41238e+06 0 1.42689e+06 4.99291e+06 0 1.33325e+06 4.6901e+06 0 1.21387e+06 4.46204e+06 0 1.08887e+06 4.28538e+06 0 960933 4.1459e+06 0 834180 4.03468e+06 0 709152 3.9458e+06 0 586493 3.87531e+06 0 466081 3.82047e+06 0 347676 3.77942e+06 0 230865 3.7509e+06 0 115151 3.73409e+06 0 0 3.72854e+06 0 </DataArray> 
</PointData> 
<Points> 
<DataArray type="Float32" NumberOfComponents="3"> 
0.2675 0.0625275 0 0.2675 0.0668924 0 0.2675 0.0712572 0 0.2675 0.075622 0 0.2675 0.0799869 0 0.2675 0.0843517 0 0.2675 0.0887165 0 0.2675 0.0930814 0 0.2675 0.0974462 0 0.2675 0.101811 0 0.2675 0.106176 0 0.2675 0.110541 0 0.2675 0.114906 0 0.2675 0.11927 0 0.2675 0.123635 0 0.2675 0.128 0 0.27 0.0623627 0 0.27 0.0667385 0 0.27 0.0711144 0 0.27 0.0754902 0 0.27 0.079866 0 0.27 0.0842418 0 0.27 0.0886176 0 0.27 0.0929934 0 0.27 0.0973693 0 0.27 0.101745 0 0.27 0.106121 0 0.27 0.110497 0 0.27 0.114873 0 0.27 0.119248 0 0.27 0.123624 0 0.27 0.128 0 0.2725 0.0621979 0 0.2725 0.0665847 0 0.2725 0.0709715 0 0.2725 0.0753583 0 0.2725 0.0797451 0 0.2725 0.0841319 0 0.2725 0.0885187 0 0.2725 0.0929055 0 0.2725 0.0972923 0 0.2725 0.101679 0 0.2725 0.106066 0 0.2725 0.110453 0 0.2725 0.11484 0 0.2725 0.119226 0 0.2725 0.123613 0 0.2725 0.128 0 0.275 0.0620331 0 0.275 0.0664308 0 0.275 0.0708286 0 0.275 0.0752264 0 0.275 0.0796242 0 0.275 0.084022 0 0.275 0.0884198 0 0.275 0.0928176 0 0.275 0.0972154 0 0.275 0.101613 0 0.275 0.106011 0 0.275 0.110409 0 0.275 0.114807 0 0.275 0.119204 0 0.275 0.123602 0 0.275 0.128 0 0.2775 0.0618682 0 0.2775 0.066277 0 0.2775 0.0706858 0 0.2775 0.0750946 0 0.2775 0.0795034 0 0.2775 0.0839121 0 0.2775 0.0883209 0 0.2775 0.0927297 0 0.2775 0.0971385 0 0.2775 0.101547 0 0.2775 0.105956 0 0.2775 0.110365 0 0.2775 0.114774 0 0.2775 0.119182 0 0.2775 0.123591 0 0.2775 0.128 0 0.28 0.0617034 0 0.28 0.0661232 0 0.28 0.0705429 0 0.28 0.0749627 0 0.28 0.0793825 0 0.28 0.0838023 0 0.28 0.088222 0 0.28 0.0926418 0 0.28 0.0970616 0 0.28 0.101481 0 0.28 0.105901 0 0.28 0.110321 0 0.28 0.114741 0 0.28 0.11916 0 0.28 0.12358 0 0.28 0.128 0 0.2825 0.0615386 0 0.2825 0.0659693 0 0.2825 0.0704001 0 0.2825 0.0748308 0 0.2825 0.0792616 0 0.2825 0.0836924 0 0.2825 0.0881231 0 0.2825 0.0925539 0 0.2825 0.0969847 0 0.2825 0.101415 0 0.2825 0.105846 0 0.2825 0.110277 0 0.2825 0.114708 0 0.2825 0.119138 0 0.2825 0.123569 0 0.2825 0.128 0 0.285 0.0613737 0 0.285 0.0658155 0 0.285 0.0702572 0 0.285 0.074699 0 0.285 0.0791407 0 0.285 0.0835825 0 0.285 0.0880242 0 0.285 0.092466 0 0.285 0.0969077 0 0.285 0.101349 0 0.285 0.105791 0 0.285 0.110233 0 0.285 0.114675 0 0.285 0.119116 0 0.285 0.123558 0 0.285 0.128 0 0.2875 0.0612089 0 0.2875 0.0656616 0 0.2875 0.0701144 0 0.2875 0.0745671 0 0.2875 0.0790199 0 0.2875 0.0834726 0 0.2875 0.0879253 0 0.2875 0.0923781 0 0.2875 0.0968308 0 0.2875 0.101284 0 0.2875 0.105736 0 0.2875 0.110189 0 0.2875 0.114642 0 0.2875 0.119095 0 0.2875 0.123547 0 0.2875 0.128 0 0.29 0.0610441 0 0.29 0.0655078 0 0.29 0.0699715 0 0.29 0.0744353 0 0.29 0.078899 0 0.29 0.0833627 0 0.29 0.0878264 0 0.29 0.0922902 0 0.29 0.0967539 0 0.29 0.101218 0 0.29 0.105681 0 0.29 0.110145 0 0.29 0.114609 0 0.29 0.119073 0 0.29 0.123536 0 0.29 0.128 0 0.2925 0.0608792 0 0.2925 0.065354 0 0.2925 0.0698287 0 0.2925 0.0743034 0 0.2925 0.0787781 0 0.2925 0.0832528 0 0.2925 0.0877275 0 0.2925 0.0922023 0 0.2925 0.096677 0 0.2925 0.101152 0 0.2925 0.105626 0 0.2925 0.110101 0 0.2925 0.114576 0 0.2925 0.119051 0 0.2925 0.123525 0 0.2925 0.128 0 0.295 0.0607144 0 0.295 0.0652001 0 0.295 0.0696858 0 0.295 0.0741715 0 0.295 0.0786572 0 0.295 0.0831429 0 0.295 0.0876286 0 0.295 0.0921144 0 0.295 0.0966001 0 0.295 0.101086 0 0.295 0.105571 0 0.295 0.110057 0 0.295 0.114543 0 0.295 0.119029 0 0.295 0.123514 0 0.295 0.128 0 0.2975 0.0605496 0 0.2975 0.0650463 0 0.2975 0.069543 0 0.2975 0.0740397 0 0.2975 0.0785364 0 0.2975 0.0830331 0 0.2975 0.0875297 0 0.2975 0.0920264 0 0.2975 0.0965231 0 0.2975 0.10102 0 0.2975 0.105517 0 0.2975 0.110013 0 0.2975 0.11451 0 0.2975 0.119007 0 0.2975 0.123503 0 0.2975 0.128 0 0.3 0.0603847 0 0.3 0.0648924 0 0.3 0.0694001 0 0.3 0.0739078 0 0.3 0.0784155 0 0.3 0.0829232 0 0.3 0.0874308 0 0.3 0.0919385 0 0.3 0.0964462 0 0.3 0.100954 0 0.3 0.105462 0 0.3 0.109969 0 0.3 0.114477 0 0.3 0.118985 0 0.3 0.123492 0 0.3 0.128 0 0.3025 0.0602199 0 0.3025 0.0647386 0 0.3025 0.0692573 0 0.3025 0.0737759 0 0.3025 0.0782946 0 0.3025 0.0828133 0 0.3025 0.0873319 0 0.3025 0.0918506 0 0.3025 0.0963693 0 0.3025 0.100888 0 0.3025 0.105407 0 0.3025 0.109925 0 0.3025 0.114444 0 0.3025 0.118963 0 0.3025 0.123481 0 0.3025 0.128 0 0.305 0.0600551 0 0.305 0.0645847 0 0.305 0.0691144 0 0.305 0.0736441 0 0.305 0.0781737 0 0.305 0.0827034 0 0.305 0.0872331 0 0.305 0.0917627 0 0.305 0.0962924 0 0.305 0.100822 0 0.305 0.105352 0 0.305 0.109881 0 0.305 0.114411 0 0.305 0.118941 0 0.305 0.12347 0 0.305 0.128 0 
</DataArray>
</Points> 
</Piece> 
</StructuredGrid> 
</VTKFile> 
