<?xml version="1.0"?> 
<VTKFile type="StructuredGrid" version="0.1"> 
<StructuredGrid WholeExtent="0 15 0 15 0 0"> 
<Piece Extent="0 15 0 15 0 0"> 
<PointData>
<DataArray type="Float32" Name="E" format="ascii" NumberOfComponents="3"> 
-851097 -2.72607e+06 0 -827654 -2.84943e+06 0 -787140 -2.96325e+06 0 -741120 -3.07778e+06 0 -691681 -3.19162e+06 0 -640456 -3.3052e+06 0 -588352 -3.41944e+06 0 -535712 -3.53554e+06 0 -482338 -3.65468e+06 0 -427591 -3.77795e+06 0 -370460 -3.90624e+06 0 -309646 -4.0402e+06 0 -243646 -4.18017e+06 0 -170919 -4.32621e+06 0 -90021.4 -4.47804e+06 0 -7.15256e-07 -4.63521e+06 0 -833507 -2.6331e+06 0 -796626 -2.72404e+06 0 -760120 -2.82307e+06 0 -718259 -2.92708e+06 0 -671754 -3.03227e+06 0 -621993 -3.13763e+06 0 -570071 -3.24322e+06 0 -516626 -3.34955e+06 0 -461894 -3.45731e+06 0 -405756 -3.56723e+06 0 -347781 -3.67998e+06 0 -287277 -3.7961e+06 0 -223341 -3.91599e+06 0 -154915 -4.03983e+06 0 -80850.3 -4.16767e+06 0 4.13274e-08 -4.29937e+06 0 -817791 -2.52061e+06 0 -775780 -2.60602e+06 0 -735112 -2.69318e+06 0 -693877 -2.7841e+06 0 -649696 -2.8783e+06 0 -602239 -2.9741e+06 0 -551953 -3.07065e+06 0 -499403 -3.16776e+06 0 -444979 -3.26558e+06 0 -388845 -3.36447e+06 0 -330944 -3.46481e+06 0 -271009 -3.56698e+06 0 -208598 -3.67128e+06 0 -143117 -3.77788e+06 0 -73857.8 -3.88687e+06 0 -1.3737e-08 -3.99816e+06 0 -802519 -2.40842e+06 0 -759321 -2.48748e+06 0 -715908 -2.56735e+06 0 -672378 -2.64845e+06 0 -628035 -2.73165e+06 0 -581792 -2.81691e+06 0 -533206 -2.90359e+06 0 -482284 -2.9912e+06 0 -429221 -3.07947e+06 0 -374199 -3.1684e+06 0 -317311 -3.2581e+06 0 -258531 -3.34874e+06 0 -197713 -3.44048e+06 0 -134601 -3.53346e+06 0 -68836.3 -3.62771e+06 0 3.72529e-08 -3.72322e+06 0 -787517 -2.29667e+06 0 -743732 -2.36949e+06 0 -699448 -2.44249e+06 0 -654643 -2.51615e+06 0 -609170 -2.59063e+06 0 -562741 -2.66627e+06 0 -514868 -2.74314e+06 0 -465229 -2.82105e+06 0 -413694 -2.89976e+06 0 -360264 -2.97908e+06 0 -304982 -3.05895e+06 0 -247872 -3.13935e+06 0 -188918 -3.22032e+06 0 -128049 -3.30192e+06 0 -65144.8 -3.38416e+06 0 1.86265e-09 -3.46704e+06 0 -772577 -2.18604e+06 0 -728535 -2.25248e+06 0 -683910 -2.31905e+06 0 -638663 -2.38574e+06 0 -592735 -2.45282e+06 0 -545968 -2.52037e+06 0 -498200 -2.58855e+06 0 -449203 -2.65739e+06 0 -398779 -2.72687e+06 0 -346798 -2.79689e+06 0 -293196 -2.86735e+06 0 -237949 -2.9382e+06 0 -181039 -3.00937e+06 0 -122435 -3.08085e+06 0 -62095 -3.15264e+06 0 -8.9407e-08 -3.22468e+06 0 -757444 -2.07632e+06 0 -713296 -2.13676e+06 0 -668623 -2.19704e+06 0 -623351 -2.25729e+06 0 -577403 -2.31751e+06 0 -530715 -2.37786e+06 0 -483166 -2.43839e+06 0 -434645 -2.49917e+06 0 -385028 -2.56024e+06 0 -334198 -2.62159e+06 0 -282061 -2.68322e+06 0 -228544 -2.74506e+06 0 -173609 -2.80709e+06 0 -117237 -2.86927e+06 0 -59391 -2.93152e+06 0 1.71363e-07 -2.99398e+06 0 -741901 -1.96755e+06 0 -697680 -2.02225e+06 0 -653080 -2.07662e+06 0 -607992 -2.13072e+06 0 -562332 -2.18461e+06 0 -516009 -2.23831e+06 0 -468955 -2.29189e+06 0 -421080 -2.34541e+06 0 -372301 -2.39891e+06 0 -322538 -2.45242e+06 0 -271721 -2.50594e+06 0 -219792 -2.55949e+06 0 -166685 -2.61302e+06 0 -112345 -2.66653e+06 0 -56781.7 -2.7201e+06 0 -2.42144e-07 -2.77321e+06 0 -725508 -1.85971e+06 0 -681340 -1.90889e+06 0 -636868 -1.95769e+06 0 -592055 -2.00606e+06 0 -546816 -2.05402e+06 0 -501068 -2.10159e+06 0 -454725 -2.14881e+06 0 -407710 -2.19572e+06 0 -359949 -2.24234e+06 0 -311368 -2.2887e+06 0 -261906 -2.33485e+06 0 -211509 -2.3808e+06 0 -160164 -2.42661e+06 0 -107852 -2.47221e+06 0 -54462.7 -2.51741e+06 0 3.27826e-07 -2.56339e+06 0 -707978 -1.75204e+06 0 -663711 -1.79654e+06 0 -619433 -1.84016e+06 0 -574959 -1.8832e+06 0 -530218 -1.92569e+06 0 -485141 -1.96764e+06 0 -439654 -2.00906e+06 0 -393674 -2.04994e+06 0 -347122 -2.09032e+06 0 -299923 -2.13022e+06 0 -252012 -2.16966e+06 0 -203323 -2.20866e+06 0 -153771 -2.24722e+06 0 -103324 -2.28552e+06 0 -52110.1 -2.32389e+06 0 -3.53903e-07 -2.35976e+06 0 -688397 -1.64633e+06 0 -644439 -1.68513e+06 0 -600322 -1.72391e+06 0 -556143 -1.76203e+06 0 -511861 -1.7995e+06 0 -467443 -1.83634e+06 0 -422840 -1.87255e+06 0 -377992 -1.90807e+06 0 -332811 -1.94289e+06 0 -287199 -1.977e+06 0 -241059 -2.01043e+06 0 -194316 -2.04324e+06 0 -146942 -2.07546e+06 0 -98856.6 -2.10685e+06 0 -49797.1 -2.13707e+06 0 4.02331e-07 -2.17134e+06 0 -666159 -1.53866e+06 0 -622553 -1.57549e+06 0 -578989 -1.60942e+06 0 -535206 -1.64262e+06 0 -491270 -1.67527e+06 0 -447280 -1.7074e+06 0 -403323 -1.73897e+06 0 -359437 -1.7699e+06 0 -315605 -1.80008e+06 0 -271750 -1.82938e+06 0 -227739 -1.85768e+06 0 -183394 -1.88491e+06 0 -138499 -1.91117e+06 0 -92953.3 -1.93702e+06 0 -46923.7 -1.96295e+06 0 -3.05474e-07 -1.97928e+06 0 -639108 -1.44106e+06 0 -597803 -1.46836e+06 0 -555693 -1.49765e+06 0 -512653 -1.5256e+06 0 -468875 -1.55294e+06 0 -424713 -1.58012e+06 0 -380542 -1.60725e+06 0 -336705 -1.63426e+06 0 -293449 -1.66093e+06 0 -250887 -1.68696e+06 0 -208989 -1.71205e+06 0 -167587 -1.73588e+06 0 -126426 -1.75801e+06 0 -85129.8 -1.77748e+06 0 -43103.4 -1.79425e+06 0 1.19209e-07 -1.82602e+06 0 -603795 -1.33919e+06 0 -570053 -1.373e+06 0 -532679 -1.39401e+06 0 -491939 -1.41331e+06 0 -448300 -1.43255e+06 0 -402685 -1.45264e+06 0 -356119 -1.47404e+06 0 -309537 -1.4969e+06 0 -263831 -1.52107e+06 0 -219834 -1.5461e+06 0 -178251 -1.57122e+06 0 -139465 -1.59542e+06 0 -103241 -1.61794e+06 0 -68455.4 -1.6389e+06 0 -33551.4 -1.65713e+06 0 -5.96046e-08 -1.64364e+06 0 -553164 -1.29462e+06 0 -543778 -1.30605e+06 0 -523814 -1.30911e+06 0 -487562 -1.30963e+06 0 -441984 -1.31287e+06 0 -391456 -1.31998e+06 0 -338057 -1.33106e+06 0 -283094 -1.34621e+06 0 -227571 -1.36572e+06 0 -172671 -1.39014e+06 0 -120142 -1.42e+06 0 -72857.6 -1.45533e+06 0 -35399.9 -1.49438e+06 0 -14184.5 -1.53177e+06 0 -12296.9 -1.55923e+06 0 1.3411e-07 -1.5935e+06 0 -392434 -1.6662e+06 0 -633805 -1.32883e+06 0 -597064 -1.23302e+06 0 -533665 -1.19391e+06 0 -469678 -1.17545e+06 0 -405022 -1.16678e+06 0 -339544 -1.16397e+06 0 -272091 -1.16554e+06 0 -201651 -1.17103e+06 0 -126522 -1.18089e+06 0 -44041.3 -1.19667e+06 0 50525.3 -1.22204e+06 0 163538 -1.26669e+06 0 295901 -1.36091e+06 0 383118 -1.61749e+06 0 -1.49012e-06 -2.49561e+06 0 </DataArray> 
</PointData> 
<Points> 
<DataArray type="Float32" NumberOfComponents="3"> 
0.236 0.027 0 0.2351 0.0275333 0 0.2342 0.0280667 0 0.2333 0.0286 0 0.2324 0.0291333 0 0.2315 0.0296667 0 0.2306 0.0302 0 0.2297 0.0307333 0 0.2288 0.0312667 0 0.2279 0.0318 0 0.227 0.0323333 0 0.2261 0.0328667 0 0.2252 0.0334 0 0.2243 0.0339333 0 0.2234 0.0344667 0 0.2225 0.035 0 0.237133 0.027 0 0.236291 0.0275333 0 0.235449 0.0280667 0 0.234607 0.0286 0 0.233764 0.0291333 0 0.232922 0.0296667 0 0.23208 0.0302 0 0.231238 0.0307333 0 0.230396 0.0312667 0 0.229553 0.0318 0 0.228711 0.0323333 0 0.227869 0.0328667 0 0.227027 0.0334 0 0.226184 0.0339333 0 0.225342 0.0344667 0 0.2245 0.035 0 0.238267 0.027 0 0.237482 0.0275333 0 0.236698 0.0280667 0 0.235913 0.0286 0 0.235129 0.0291333 0 0.234344 0.0296667 0 0.23356 0.0302 0 0.232776 0.0307333 0 0.231991 0.0312667 0 0.231207 0.0318 0 0.230422 0.0323333 0 0.229638 0.0328667 0 0.228853 0.0334 0 0.228069 0.0339333 0 0.227284 0.0344667 0 0.2265 0.035 0 0.2394 0.027 0 0.238673 0.0275333 0 0.237947 0.0280667 0 0.23722 0.0286 0 0.236493 0.0291333 0 0.235767 0.0296667 0 0.23504 0.0302 0 0.234313 0.0307333 0 0.233587 0.0312667 0 0.23286 0.0318 0 0.232133 0.0323333 0 0.231407 0.0328667 0 0.23068 0.0334 0 0.229953 0.0339333 0 0.229227 0.0344667 0 0.2285 0.035 0 0.240533 0.027 0 0.239864 0.0275333 0 0.239196 0.0280667 0 0.238527 0.0286 0 0.237858 0.0291333 0 0.237189 0.0296667 0 0.23652 0.0302 0 0.235851 0.0307333 0 0.235182 0.0312667 0 0.234513 0.0318 0 0.233844 0.0323333 0 0.233176 0.0328667 0 0.232507 0.0334 0 0.231838 0.0339333 0 0.231169 0.0344667 0 0.2305 0.035 0 0.241667 0.027 0 0.241056 0.0275333 0 0.240444 0.0280667 0 0.239833 0.0286 0 0.239222 0.0291333 0 0.238611 0.0296667 0 0.238 0.0302 0 0.237389 0.0307333 0 0.236778 0.0312667 0 0.236167 0.0318 0 0.235556 0.0323333 0 0.234944 0.0328667 0 0.234333 0.0334 0 0.233722 0.0339333 0 0.233111 0.0344667 0 0.2325 0.035 0 0.2428 0.027 0 0.242247 0.0275333 0 0.241693 0.0280667 0 0.24114 0.0286 0 0.240587 0.0291333 0 0.240033 0.0296667 0 0.23948 0.0302 0 0.238927 0.0307333 0 0.238373 0.0312667 0 0.23782 0.0318 0 0.237267 0.0323333 0 0.236713 0.0328667 0 0.23616 0.0334 0 0.235607 0.0339333 0 0.235053 0.0344667 0 0.2345 0.035 0 0.243933 0.027 0 0.243438 0.0275333 0 0.242942 0.0280667 0 0.242447 0.0286 0 0.241951 0.0291333 0 0.241456 0.0296667 0 0.24096 0.0302 0 0.240464 0.0307333 0 0.239969 0.0312667 0 0.239473 0.0318 0 0.238978 0.0323333 0 0.238482 0.0328667 0 0.237987 0.0334 0 0.237491 0.0339333 0 0.236996 0.0344667 0 0.2365 0.035 0 0.245067 0.027 0 0.244629 0.0275333 0 0.244191 0.0280667 0 0.243753 0.0286 0 0.243316 0.0291333 0 0.242878 0.0296667 0 0.24244 0.0302 0 0.242002 0.0307333 0 0.241564 0.0312667 0 0.241127 0.0318 0 0.240689 0.0323333 0 0.240251 0.0328667 0 0.239813 0.0334 0 0.239376 0.0339333 0 0.238938 0.0344667 0 0.2385 0.035 0 0.2462 0.027 0 0.24582 0.0275333 0 0.24544 0.0280667 0 0.24506 0.0286 0 0.24468 0.0291333 0 0.2443 0.0296667 0 0.24392 0.0302 0 0.24354 0.0307333 0 0.24316 0.0312667 0 0.24278 0.0318 0 0.2424 0.0323333 0 0.24202 0.0328667 0 0.24164 0.0334 0 0.24126 0.0339333 0 0.24088 0.0344667 0 0.2405 0.035 0 0.247333 0.027 0 0.247011 0.0275333 0 0.246689 0.0280667 0 0.246367 0.0286 0 0.246044 0.0291333 0 0.245722 0.0296667 0 0.2454 0.0302 0 0.245078 0.0307333 0 0.244756 0.0312667 0 0.244433 0.0318 0 0.244111 0.0323333 0 0.243789 0.0328667 0 0.243467 0.0334 0 0.243144 0.0339333 0 0.242822 0.0344667 0 0.2425 0.035 0 0.248467 0.027 0 0.248202 0.0275333 0 0.247938 0.0280667 0 0.247673 0.0286 0 0.247409 0.0291333 0 0.247144 0.0296667 0 0.24688 0.0302 0 0.246616 0.0307333 0 0.246351 0.0312667 0 0.246087 0.0318 0 0.245822 0.0323333 0 0.245558 0.0328667 0 0.245293 0.0334 0 0.245029 0.0339333 0 0.244764 0.0344667 0 0.2445 0.035 0 0.2496 0.027 0 0.249393 0.0275333 0 0.249187 0.0280667 0 0.24898 0.0286 0 0.248773 0.0291333 0 0.248567 0.0296667 0 0.24836 0.0302 0 0.248153 0.0307333 0 0.247947 0.0312667 0 0.24774 0.0318 0 0.247533 0.0323333 0 0.247327 0.0328667 0 0.24712 0.0334 0 0.246913 0.0339333 0 0.246707 0.0344667 0 0.2465 0.035 0 0.250733 0.027 0 0.250584 0.0275333 0 0.250436 0.0280667 0 0.250287 0.0286 0 0.250138 0.0291333 0 0.249989 0.0296667 0 0.24984 0.0302 0 0.249691 0.0307333 0 0.249542 0.0312667 0 0.249393 0.0318 0 0.249244 0.0323333 0 0.249096 0.0328667 0 0.248947 0.0334 0 0.248798 0.0339333 0 0.248649 0.0344667 0 0.2485 0.035 0 0.251867 0.027 0 0.251776 0.0275333 0 0.251684 0.0280667 0 0.251593 0.0286 0 0.251502 0.0291333 0 0.251411 0.0296667 0 0.25132 0.0302 0 0.251229 0.0307333 0 0.251138 0.0312667 0 0.251047 0.0318 0 0.250956 0.0323333 0 0.250864 0.0328667 0 0.250773 0.0334 0 0.250682 0.0339333 0 0.250591 0.0344667 0 0.2505 0.035 0 0.253 0.027 0 0.252967 0.0275333 0 0.252933 0.0280667 0 0.2529 0.0286 0 0.252867 0.0291333 0 0.252833 0.0296667 0 0.2528 0.0302 0 0.252767 0.0307333 0 0.252733 0.0312667 0 0.2527 0.0318 0 0.252667 0.0323333 0 0.252633 0.0328667 0 0.2526 0.0334 0 0.252567 0.0339333 0 0.252533 0.0344667 0 0.2525 0.035 0 
</DataArray>
</Points> 
</Piece> 
</StructuredGrid> 
</VTKFile> 
