<?xml version="1.0"?> 
<VTKFile type="StructuredGrid" version="0.1"> 
<StructuredGrid WholeExtent="0 15 0 15 0 0"> 
<Piece Extent="0 15 0 15 0 0"> 
<PointData>
<DataArray type="Float32" Name="E" format="ascii" NumberOfComponents="3"> 
1.99313e+06 -789360 0 2.11813e+06 -838865 0 2.22267e+06 -880267 0 2.31187e+06 -915592 0 2.38945e+06 -946316 0 2.45815e+06 -973525 0 2.51999e+06 -998017 0 2.57648e+06 -1.02039e+06 0 2.62872e+06 -1.04108e+06 0 2.67755e+06 -1.06042e+06 0 2.7236e+06 -1.07865e+06 0 2.76733e+06 -1.09597e+06 0 2.80909e+06 -1.11251e+06 0 2.8491e+06 -1.12836e+06 0 2.88749e+06 -1.14356e+06 0 2.92429e+06 -1.15813e+06 0 2.79358e+06 -574066 0 2.81331e+06 -604731 0 2.8365e+06 -634295 0 2.86213e+06 -662597 0 2.88949e+06 -689586 0 2.91807e+06 -715275 0 2.9475e+06 -739714 0 2.97754e+06 -762979 0 3.00802e+06 -785155 0 3.03881e+06 -806333 0 3.06986e+06 -826605 0 3.10113e+06 -846058 0 3.13261e+06 -864773 0 3.1643e+06 -882824 0 3.19625e+06 -900271 0 3.22851e+06 -917155 0 3.10817e+06 -463024 0 3.12956e+06 -483865 0 3.1513e+06 -503656 0 3.17347e+06 -522504 0 3.1961e+06 -540485 0 3.21922e+06 -557650 0 3.24285e+06 -574037 0 3.26697e+06 -589672 0 3.2916e+06 -604573 0 3.31673e+06 -618754 0 3.34236e+06 -632222 0 3.36849e+06 -644982 0 3.39511e+06 -657035 0 3.42224e+06 -668381 0 3.44988e+06 -679019 0 3.47803e+06 -688957 0 3.33692e+06 -358490 0 3.35399e+06 -369987 0 3.37156e+06 -381094 0 3.38962e+06 -391748 0 3.40814e+06 -401901 0 3.42711e+06 -411515 0 3.4465e+06 -420562 0 3.46632e+06 -429014 0 3.48654e+06 -436851 0 3.50716e+06 -444051 0 3.52817e+06 -450597 0 3.54956e+06 -456470 0 3.57133e+06 -461652 0 3.59347e+06 -466123 0 3.61597e+06 -469861 0 3.63883e+06 -472838 0 3.48702e+06 -248980 0 3.50069e+06 -255619 0 3.51464e+06 -261691 0 3.52885e+06 -267194 0 3.54333e+06 -272123 0 3.55805e+06 -276471 0 3.57302e+06 -280229 0 3.58822e+06 -283386 0 3.60365e+06 -285929 0 3.61929e+06 -287847 0 3.63514e+06 -289124 0 3.65117e+06 -289746 0 3.66738e+06 -289695 0 3.68374e+06 -288955 0 3.70024e+06 -287511 0 3.71687e+06 -285349 0 3.57725e+06 -157473 0 3.58699e+06 -159961 0 3.59686e+06 -161962 0 3.60688e+06 -163489 0 3.61702e+06 -164541 0 3.62729e+06 -165113 0 3.63766e+06 -165194 0 3.64812e+06 -164775 0 3.65864e+06 -163843 0 3.66921e+06 -162388 0 3.67982e+06 -160400 0 3.69044e+06 -157871 0 3.70107e+06 -154791 0 3.71168e+06 -151152 0 3.72225e+06 -146946 0 3.73277e+06 -142164 0 3.62084e+06 -87033.5 0 3.62701e+06 -86942.4 0 3.63327e+06 -86613 0 3.63954e+06 -85961.3 0 3.6458e+06 -84944 0 3.65203e+06 -83540.5 0 3.65823e+06 -81741.2 0 3.66438e+06 -79541.9 0 3.67047e+06 -76940.2 0 3.6765e+06 -73934.1 0 3.68244e+06 -70521.3 0 3.68829e+06 -66698.9 0 3.69402e+06 -62463.8 0 3.69962e+06 -57812.9 0 3.70508e+06 -52743.2 0 3.71036e+06 -47252.5 0 3.63472e+06 -40458.5 0 3.63793e+06 -39850.6 0 3.64097e+06 -38668.1 0 3.64394e+06 -37097.4 0 3.64685e+06 -35230.3 0 3.6497e+06 -33105.3 0 3.65247e+06 -30733.2 0 3.65514e+06 -28112.1 0 3.65768e+06 -25235.2 0 3.66008e+06 -22094.6 0 3.66232e+06 -18683.6 0 3.66438e+06 -14996.6 0 3.66626e+06 -11029.7 0 3.66794e+06 -6780.11 0 3.66941e+06 -2245.6 0 3.67065e+06 2575.74 0 3.63267e+06 -18294.8 0 3.63347e+06 -16386.2 0 3.63436e+06 -15035.3 0 3.63514e+06 -13835.9 0 3.63576e+06 -12576.6 0 3.63617e+06 -11160.1 0 3.63637e+06 -9549.5 0 3.63638e+06 -7738.04 0 3.63618e+06 -5732.09 0 3.63577e+06 -3542.23 0 3.63516e+06 -1179.04 0 3.63432e+06 1348.58 0 3.63324e+06 4033.6 0 3.63191e+06 6870.55 0 3.63032e+06 9854.63 0 3.62845e+06 12981 0 3.62871e+06 -12569.2 0 3.62835e+06 -14606.9 0 3.62749e+06 -15132.4 0 3.6264e+06 -14948.1 0 3.62517e+06 -14486 0 3.62382e+06 -13955.8 0 3.62232e+06 -13444.3 0 3.62065e+06 -12974.4 0 3.61877e+06 -12538.2 0 3.61665e+06 -12115.6 0 3.61428e+06 -11683.7 0 3.61163e+06 -11220.3 0 3.60869e+06 -10705.4 0 3.60545e+06 -10120.8 0 3.6019e+06 -9448.19 0 3.59804e+06 -8667.76 0 3.63292e+06 -27621.5 0 3.63171e+06 -25057.1 0 3.63083e+06 -25484.9 0 3.62985e+06 -27411.3 0 3.62858e+06 -30001.7 0 3.62696e+06 -32829 0 3.62496e+06 -35697.2 0 3.62258e+06 -38536.7 0 3.61985e+06 -41341.7 0 3.61674e+06 -44135 0 3.61327e+06 -46949.3 0 3.60942e+06 -49817.9 0 3.60518e+06 -52772.1 0 3.60053e+06 -55841.6 0 3.59543e+06 -59057 0 3.58988e+06 -62454.1 0 3.66211e+06 -30092.9 0 3.66299e+06 -43343.7 0 3.66289e+06 -51557.5 0 3.66231e+06 -57378.3 0 3.66144e+06 -62334.9 0 3.66032e+06 -67244.8 0 3.65892e+06 -72506 0 3.65719e+06 -78275.9 0 3.65505e+06 -84579.6 0 3.65246e+06 -91374.8 0 3.64934e+06 -98586.5 0 3.64567e+06 -106126 0 3.64139e+06 -113896 0 3.6365e+06 -121792 0 3.63095e+06 -129699 0 3.62473e+06 -137478 0 3.73577e+06 -53639.8 0 3.74039e+06 -47143.4 0 3.74511e+06 -51038.3 0 3.74936e+06 -60878 0 3.75288e+06 -73984.4 0 3.75552e+06 -88836.8 0 3.75725e+06 -104613 0 3.75801e+06 -120905 0 3.7578e+06 -137539 0 3.7566e+06 -154470 0 3.75438e+06 -171722 0 3.75114e+06 -189353 0 3.74684e+06 -207447 0 3.7415e+06 -226115 0 3.73511e+06 -245504 0 3.72769e+06 -265822 0 3.91497e+06 46299.1 0 3.92859e+06 -5143.76 0 3.94178e+06 -43149.1 0 3.9539e+06 -74330.9 0 3.96442e+06 -102639 0 3.97297e+06 -130241 0 3.9793e+06 -158207 0 3.98327e+06 -186949 0 3.98486e+06 -216499 0 3.9841e+06 -246689 0 3.98106e+06 -277244 0 3.97585e+06 -307847 0 3.96854e+06 -338153 0 3.95917e+06 -367783 0 3.94771e+06 -396296 0 3.93402e+06 -423145 0 4.41078e+06 94384.1 0 4.4612e+06 42051.6 0 4.48621e+06 -26638.8 0 4.49276e+06 -101995 0 4.48609e+06 -177922 0 4.47016e+06 -250861 0 4.44801e+06 -318898 0 4.42196e+06 -381182 0 4.39384e+06 -437540 0 4.36515e+06 -488225 0 4.33714e+06 -533768 0 4.31101e+06 -574894 0 4.28798e+06 -612498 0 4.26942e+06 -647660 0 4.25704e+06 -681721 0 4.25308e+06 -716380 0 6.45874e+06 -1.68687e+06 0 5.91703e+06 -1.54539e+06 0 5.51559e+06 -1.44054e+06 0 5.21364e+06 -1.36168e+06 0 4.98239e+06 -1.30128e+06 0 4.80139e+06 -1.25401e+06 0 4.656e+06 -1.21604e+06 0 4.53555e+06 -1.18458e+06 0 4.43206e+06 -1.15755e+06 0 4.33922e+06 -1.1333e+06 0 4.25171e+06 -1.11045e+06 0 4.16448e+06 -1.08766e+06 0 4.07224e+06 -1.06357e+06 0 3.96876e+06 -1.03655e+06 0 3.84618e+06 -1.00453e+06 0 3.694e+06 -964784 0 </DataArray> 
</PointData> 
<Points> 
<DataArray type="Float32" NumberOfComponents="3"> 
0.3075 0.0099 0 0.307701 0.0104067 0 0.307901 0.0109133 0 0.308102 0.01142 0 0.308303 0.0119267 0 0.308503 0.0124333 0 0.308704 0.01294 0 0.308905 0.0134467 0 0.309105 0.0139533 0 0.309306 0.01446 0 0.309507 0.0149667 0 0.309707 0.0154733 0 0.309908 0.01598 0 0.310109 0.0164867 0 0.310309 0.0169933 0 0.31051 0.0175 0 0.313067 0.0101962 0 0.313263 0.0107031 0 0.313459 0.01121 0 0.313655 0.0117169 0 0.313851 0.0122238 0 0.314048 0.0127308 0 0.314244 0.0132377 0 0.31444 0.0137446 0 0.314636 0.0142515 0 0.314832 0.0147585 0 0.315028 0.0152654 0 0.315225 0.0157723 0 0.315421 0.0162792 0 0.315617 0.0167862 0 0.315813 0.0172931 0 0.316009 0.0178 0 0.318633 0.0104923 0 0.318825 0.0109995 0 0.319017 0.0115067 0 0.319208 0.0120138 0 0.3194 0.012521 0 0.319592 0.0130282 0 0.319783 0.0135354 0 0.319975 0.0140426 0 0.320167 0.0145497 0 0.320358 0.0150569 0 0.32055 0.0155641 0 0.320742 0.0160713 0 0.320934 0.0165785 0 0.321125 0.0170856 0 0.321317 0.0175928 0 0.321509 0.0181 0 0.3242 0.0107885 0 0.324387 0.0112959 0 0.324574 0.0118033 0 0.324762 0.0123108 0 0.324949 0.0128182 0 0.325136 0.0133256 0 0.325323 0.0138331 0 0.32551 0.0143405 0 0.325698 0.014848 0 0.325885 0.0153554 0 0.326072 0.0158628 0 0.326259 0.0163703 0 0.326446 0.0168777 0 0.326634 0.0173851 0 0.326821 0.0178926 0 0.327008 0.0184 0 0.329767 0.0110846 0 0.329949 0.0115923 0 0.330132 0.0121 0 0.330315 0.0126077 0 0.330497 0.0131154 0 0.33068 0.0136231 0 0.330863 0.0141308 0 0.331046 0.0146385 0 0.331228 0.0151462 0 0.331411 0.0156538 0 0.331594 0.0161615 0 0.331776 0.0166692 0 0.331959 0.0171769 0 0.332142 0.0176846 0 0.332325 0.0181923 0 0.332507 0.0187 0 0.335333 0.0113808 0 0.335512 0.0118887 0 0.33569 0.0123967 0 0.335868 0.0129046 0 0.336046 0.0134126 0 0.336224 0.0139205 0 0.336403 0.0144285 0 0.336581 0.0149364 0 0.336759 0.0154444 0 0.336937 0.0159523 0 0.337116 0.0164603 0 0.337294 0.0169682 0 0.337472 0.0174762 0 0.33765 0.0179841 0 0.337828 0.0184921 0 0.338007 0.019 0 0.3409 0.0116769 0 0.341074 0.0121851 0 0.341247 0.0126933 0 0.341421 0.0132015 0 0.341595 0.0137098 0 0.341769 0.014218 0 0.341942 0.0147262 0 0.342116 0.0152344 0 0.34229 0.0157426 0 0.342464 0.0162508 0 0.342637 0.016759 0 0.342811 0.0172672 0 0.342985 0.0177754 0 0.343158 0.0182836 0 0.343332 0.0187918 0 0.343506 0.0193 0 0.346467 0.0119731 0 0.346636 0.0124816 0 0.346805 0.01299 0 0.346974 0.0134985 0 0.347144 0.0140069 0 0.347313 0.0145154 0 0.347482 0.0150239 0 0.347651 0.0155323 0 0.347821 0.0160408 0 0.34799 0.0165492 0 0.348159 0.0170577 0 0.348328 0.0175662 0 0.348498 0.0180746 0 0.348667 0.0185831 0 0.348836 0.0190915 0 0.349005 0.0196 0 0.352033 0.0122692 0 0.352198 0.012778 0 0.352363 0.0132867 0 0.352528 0.0137954 0 0.352692 0.0143041 0 0.352857 0.0148128 0 0.353022 0.0153215 0 0.353187 0.0158303 0 0.353351 0.016339 0 0.353516 0.0168477 0 0.353681 0.0173564 0 0.353846 0.0178651 0 0.35401 0.0183738 0 0.354175 0.0188826 0 0.35434 0.0193913 0 0.354505 0.0199 0 0.3576 0.0125654 0 0.35776 0.0130744 0 0.357921 0.0135833 0 0.358081 0.0140923 0 0.358241 0.0146013 0 0.358401 0.0151103 0 0.358562 0.0156192 0 0.358722 0.0161282 0 0.358882 0.0166372 0 0.359042 0.0171462 0 0.359203 0.0176551 0 0.359363 0.0181641 0 0.359523 0.0186731 0 0.359683 0.0191821 0 0.359844 0.019691 0 0.360004 0.0202 0 0.363167 0.0128616 0 0.363322 0.0133708 0 0.363478 0.01388 0 0.363634 0.0143892 0 0.36379 0.0148985 0 0.363946 0.0154077 0 0.364101 0.0159169 0 0.364257 0.0164262 0 0.364413 0.0169354 0 0.364569 0.0174446 0 0.364724 0.0179539 0 0.36488 0.0184631 0 0.365036 0.0189723 0 0.365192 0.0194815 0 0.365348 0.0199908 0 0.365503 0.0205 0 0.368733 0.0131577 0 0.368885 0.0136672 0 0.369036 0.0141767 0 0.369187 0.0146862 0 0.369338 0.0151957 0 0.36949 0.0157051 0 0.369641 0.0162146 0 0.369792 0.0167241 0 0.369944 0.0172336 0 0.370095 0.0177431 0 0.370246 0.0182526 0 0.370397 0.0187621 0 0.370549 0.0192715 0 0.3707 0.019781 0 0.370851 0.0202905 0 0.371003 0.0208 0 0.3743 0.0134539 0 0.374447 0.0139636 0 0.374594 0.0144734 0 0.37474 0.0149831 0 0.374887 0.0154928 0 0.375034 0.0160026 0 0.375181 0.0165123 0 0.375328 0.0170221 0 0.375474 0.0175318 0 0.375621 0.0180415 0 0.375768 0.0185513 0 0.375915 0.019061 0 0.376062 0.0195708 0 0.376208 0.0200805 0 0.376355 0.0205903 0 0.376502 0.0211 0 0.379867 0.01375 0 0.380009 0.01426 0 0.380151 0.01477 0 0.380294 0.01528 0 0.380436 0.01579 0 0.380578 0.0163 0 0.380721 0.01681 0 0.380863 0.01732 0 0.381005 0.01783 0 0.381147 0.01834 0 0.38129 0.01885 0 0.381432 0.01936 0 0.381574 0.01987 0 0.381717 0.02038 0 0.381859 0.02089 0 0.382001 0.0214 0 0.385433 0.0140462 0 0.385571 0.0145564 0 0.385709 0.0150667 0 0.385847 0.0155769 0 0.385985 0.0160872 0 0.386122 0.0165975 0 0.38626 0.0171077 0 0.386398 0.017618 0 0.386536 0.0181282 0 0.386674 0.0186385 0 0.386812 0.0191487 0 0.386949 0.019659 0 0.387087 0.0201692 0 0.387225 0.0206795 0 0.387363 0.0211897 0 0.387501 0.0217 0 0.391 0.0143423 0 0.391133 0.0148528 0 0.391267 0.0153634 0 0.3914 0.0158739 0 0.391533 0.0163844 0 0.391667 0.0168949 0 0.3918 0.0174054 0 0.391933 0.0179159 0 0.392067 0.0184264 0 0.3922 0.0189369 0 0.392333 0.0194474 0 0.392467 0.019958 0 0.3926 0.0204685 0 0.392733 0.020979 0 0.392867 0.0214895 0 0.393 0.022 0 
</DataArray>
</Points> 
</Piece> 
</StructuredGrid> 
</VTKFile> 
