<?xml version="1.0"?> 
<VTKFile type="StructuredGrid" version="0.1"> 
<StructuredGrid WholeExtent="0 15 0 15 0 0"> 
<Piece Extent="0 15 0 15 0 0"> 
<PointData>
<DataArray type="Float32" Name="E" format="ascii" NumberOfComponents="3"> 
-1.01876e+06 0 0 -1.01872e+06 0 0 -1.0186e+06 0 0 -1.01839e+06 0 0 -1.01811e+06 0 0 -1.01774e+06 0 0 -1.01729e+06 0 0 -1.01676e+06 0 0 -1.01614e+06 0 0 -1.01545e+06 0 0 -1.01467e+06 0 0 -1.01382e+06 0 0 -1.01288e+06 0 0 -1.01187e+06 0 0 -1.01077e+06 0 0 -1.0096e+06 0 0 -1.01888e+06 -0.000384704 0 -1.01884e+06 139.683 0 -1.01872e+06 279.316 0 -1.01851e+06 418.847 0 -1.01822e+06 558.226 0 -1.01786e+06 697.401 0 -1.01741e+06 836.32 0 -1.01687e+06 974.931 0 -1.01626e+06 1113.18 0 -1.01557e+06 1251.03 0 -1.01479e+06 1388.43 0 -1.01394e+06 1525.35 0 -1.013e+06 1661.78 0 -1.01198e+06 1797.74 0 -1.01089e+06 1933.29 0 -1.00972e+06 2068.58 0 -1.01924e+06 -0.000763067 0 -1.0192e+06 279.513 0 -1.01907e+06 558.925 0 -1.01887e+06 838.137 0 -1.01858e+06 1117.04 0 -1.01821e+06 1395.55 0 -1.01776e+06 1673.53 0 -1.01723e+06 1950.91 0 -1.01661e+06 2227.55 0 -1.01592e+06 2503.37 0 -1.01514e+06 2778.26 0 -1.01429e+06 3052.15 0 -1.01335e+06 3324.97 0 -1.01233e+06 3596.72 0 -1.01124e+06 3867.44 0 -1.01006e+06 4137.32 0 -1.01983e+06 -0.00112566 0 -1.01979e+06 419.633 0 -1.01967e+06 839.117 0 -1.01946e+06 1258.3 0 -1.01917e+06 1677.04 0 -1.0188e+06 2095.18 0 -1.01835e+06 2512.54 0 -1.01782e+06 2928.99 0 -1.0172e+06 3344.33 0 -1.0165e+06 3758.41 0 -1.01573e+06 4171.04 0 -1.01487e+06 4582.07 0 -1.01393e+06 4991.35 0 -1.01291e+06 5398.75 0 -1.01181e+06 5804.21 0 -1.01063e+06 6207.75 0 -1.02067e+06 -0.00145836 0 -1.02063e+06 560.181 0 -1.0205e+06 1120.17 0 -1.0203e+06 1679.77 0 -1.02001e+06 2238.79 0 -1.01963e+06 2797.02 0 -1.01918e+06 3354.24 0 -1.01864e+06 3910.25 0 -1.01803e+06 4464.79 0 -1.01733e+06 5017.62 0 -1.01655e+06 5568.49 0 -1.01568e+06 6117.12 0 -1.01474e+06 6663.22 0 -1.01372e+06 7206.51 0 -1.01261e+06 7746.7 0 -1.01143e+06 8283.49 0 -1.02174e+06 -0.00174302 0 -1.0217e+06 701.284 0 -1.02158e+06 1402.34 0 -1.02137e+06 2102.93 0 -1.02108e+06 2802.82 0 -1.0207e+06 3501.76 0 -1.02025e+06 4199.49 0 -1.01971e+06 4895.73 0 -1.01909e+06 5590.19 0 -1.01839e+06 6282.54 0 -1.0176e+06 6972.44 0 -1.01673e+06 7659.49 0 -1.01578e+06 8343.27 0 -1.01476e+06 9023.3 0 -1.01365e+06 9699.04 0 -1.01246e+06 10369.9 0 -1.02306e+06 -0.00196025 0 -1.02302e+06 843.05 0 -1.02289e+06 1685.84 0 -1.02268e+06 2528.11 0 -1.02239e+06 3369.59 0 -1.02201e+06 4210 0 -1.02156e+06 5049.03 0 -1.02101e+06 5886.37 0 -1.02039e+06 6721.68 0 -1.01968e+06 7554.56 0 -1.01889e+06 8384.59 0 -1.01802e+06 9211.3 0 -1.01706e+06 10034.1 0 -1.01603e+06 10852.5 0 -1.01491e+06 11665.6 0 -1.01371e+06 12472.5 0 -1.02462e+06 -0.00209318 0 -1.02457e+06 985.562 0 -1.02445e+06 1970.85 0 -1.02424e+06 2955.58 0 -1.02394e+06 3939.46 0 -1.02357e+06 4922.19 0 -1.02311e+06 5903.46 0 -1.02256e+06 6882.9 0 -1.02193e+06 7860.15 0 -1.02122e+06 8834.79 0 -1.02042e+06 9806.34 0 -1.01954e+06 10774.3 0 -1.01858e+06 11738 0 -1.01754e+06 12696.8 0 -1.01641e+06 13649.7 0 -1.0152e+06 14596 0 -1.02642e+06 -0.00213075 0 -1.02637e+06 1128.87 0 -1.02625e+06 2257.46 0 -1.02604e+06 3385.48 0 -1.02574e+06 4512.65 0 -1.02536e+06 5638.64 0 -1.0249e+06 6763.13 0 -1.02435e+06 7885.77 0 -1.02372e+06 9006.17 0 -1.023e+06 10123.9 0 -1.0222e+06 11238.5 0 -1.02131e+06 12349.4 0 -1.02034e+06 13456 0 -1.01929e+06 14557.6 0 -1.01815e+06 15653.4 0 -1.01692e+06 16742.4 0 -1.02846e+06 -0.00206961 0 -1.02842e+06 1272.99 0 -1.02829e+06 2545.71 0 -1.02808e+06 3817.88 0 -1.02778e+06 5089.21 0 -1.0274e+06 6359.41 0 -1.02693e+06 7628.15 0 -1.02638e+06 8895.1 0 -1.02575e+06 10159.9 0 -1.02502e+06 11422.1 0 -1.02422e+06 12681.3 0 -1.02332e+06 13936.9 0 -1.02235e+06 15188.5 0 -1.02128e+06 16435.3 0 -1.02013e+06 17676.7 0 -1.0189e+06 18911.8 0 -1.03075e+06 -0.00191409 0 -1.03071e+06 1417.9 0 -1.03058e+06 2835.55 0 -1.03037e+06 4252.69 0 -1.03007e+06 5669.05 0 -1.02969e+06 7084.37 0 -1.02922e+06 8498.35 0 -1.02866e+06 9910.68 0 -1.02802e+06 11321 0 -1.0273e+06 12729 0 -1.02648e+06 14134.2 0 -1.02558e+06 15536.3 0 -1.0246e+06 16934.6 0 -1.02353e+06 18328.8 0 -1.02237e+06 19718.1 0 -1.02112e+06 21102 0 -1.03329e+06 -0.00167429 0 -1.03325e+06 1563.54 0 -1.03312e+06 3126.85 0 -1.03291e+06 4689.72 0 -1.03261e+06 6251.92 0 -1.03222e+06 7813.2 0 -1.03175e+06 9373.32 0 -1.03119e+06 10932 0 -1.03055e+06 12488.9 0 -1.02982e+06 14043.9 0 -1.029e+06 15596.4 0 -1.0281e+06 17146.2 0 -1.02711e+06 18692.9 0 -1.02603e+06 20236.1 0 -1.02486e+06 21775.3 0 -1.0236e+06 23310 0 -1.03608e+06 -0.00136373 0 -1.03604e+06 1709.81 0 -1.03591e+06 3419.44 0 -1.0357e+06 5128.71 0 -1.03539e+06 6837.43 0 -1.03501e+06 8545.41 0 -1.03453e+06 10252.4 0 -1.03397e+06 11958.3 0 -1.03333e+06 13662.8 0 -1.03259e+06 15365.6 0 -1.03177e+06 17066.5 0 -1.03086e+06 18765.2 0 -1.02986e+06 20461.5 0 -1.02878e+06 22155 0 -1.02761e+06 23845.3 0 -1.02634e+06 25532.3 0 -1.03912e+06 -0.000996534 0 -1.03908e+06 1856.6 0 -1.03895e+06 3713.08 0 -1.03873e+06 5569.28 0 -1.03843e+06 7425.09 0 -1.03804e+06 9280.35 0 -1.03757e+06 11134.9 0 -1.037e+06 12988.6 0 -1.03635e+06 14841.3 0 -1.03562e+06 16692.8 0 -1.03479e+06 18542.9 0 -1.03388e+06 20391.4 0 -1.03288e+06 22238.1 0 -1.03179e+06 24082.8 0 -1.03061e+06 25925.3 0 -1.02934e+06 27765.3 0 -1.04241e+06 -0.000585647 0 -1.04237e+06 2003.78 0 -1.04224e+06 4007.48 0 -1.04202e+06 6011.02 0 -1.04172e+06 8014.32 0 -1.04133e+06 10017.3 0 -1.04085e+06 12019.9 0 -1.04029e+06 14021.9 0 -1.03964e+06 16023.4 0 -1.0389e+06 18024.1 0 -1.03807e+06 20023.9 0 -1.03716e+06 22022.8 0 -1.03615e+06 24020.6 0 -1.03506e+06 26017.2 0 -1.03388e+06 28012.4 0 -1.03261e+06 30006.1 0 -1.04595e+06 -0.000141025 0 -1.04591e+06 2151.17 0 -1.04578e+06 4302.33 0 -1.04556e+06 6453.44 0 -1.04526e+06 8604.49 0 -1.04487e+06 10755.5 0 -1.04439e+06 12906.3 0 -1.04382e+06 15057 0 -1.04317e+06 17207.5 0 -1.04243e+06 19357.8 0 -1.04161e+06 21507.8 0 -1.04069e+06 23657.4 0 -1.03969e+06 25806.7 0 -1.03859e+06 27955.5 0 -1.03741e+06 30103.8 0 -1.03614e+06 32251.4 0 </DataArray> 
</PointData> 
<Points> 
<DataArray type="Float32" NumberOfComponents="3"> 
0 0 0 0 0.0018 0 0 0.0036 0 0 0.0054 0 0 0.0072 0 0 0.009 0 0 0.0108 0 0 0.0126 0 0 0.0144 0 0 0.0162 0 0 0.018 0 0 0.0198 0 0 0.0216 0 0 0.0234 0 0 0.0252 0 0 0.027 0 0.00306667 0 0 0.00306667 0.0018 0 0.00306667 0.0036 0 0.00306667 0.0054 0 0.00306667 0.0072 0 0.00306667 0.009 0 0.00306667 0.0108 0 0.00306667 0.0126 0 0.00306667 0.0144 0 0.00306667 0.0162 0 0.00306667 0.018 0 0.00306667 0.0198 0 0.00306667 0.0216 0 0.00306667 0.0234 0 0.00306667 0.0252 0 0.00306667 0.027 0 0.00613333 0 0 0.00613333 0.0018 0 0.00613333 0.0036 0 0.00613333 0.0054 0 0.00613333 0.0072 0 0.00613333 0.009 0 0.00613333 0.0108 0 0.00613333 0.0126 0 0.00613333 0.0144 0 0.00613333 0.0162 0 0.00613333 0.018 0 0.00613333 0.0198 0 0.00613333 0.0216 0 0.00613333 0.0234 0 0.00613333 0.0252 0 0.00613333 0.027 0 0.0092 0 0 0.0092 0.0018 0 0.0092 0.0036 0 0.0092 0.0054 0 0.0092 0.0072 0 0.0092 0.009 0 0.0092 0.0108 0 0.0092 0.0126 0 0.0092 0.0144 0 0.0092 0.0162 0 0.0092 0.018 0 0.0092 0.0198 0 0.0092 0.0216 0 0.0092 0.0234 0 0.0092 0.0252 0 0.0092 0.027 0 0.0122667 0 0 0.0122667 0.0018 0 0.0122667 0.0036 0 0.0122667 0.0054 0 0.0122667 0.0072 0 0.0122667 0.009 0 0.0122667 0.0108 0 0.0122667 0.0126 0 0.0122667 0.0144 0 0.0122667 0.0162 0 0.0122667 0.018 0 0.0122667 0.0198 0 0.0122667 0.0216 0 0.0122667 0.0234 0 0.0122667 0.0252 0 0.0122667 0.027 0 0.0153333 0 0 0.0153333 0.0018 0 0.0153333 0.0036 0 0.0153333 0.0054 0 0.0153333 0.0072 0 0.0153333 0.009 0 0.0153333 0.0108 0 0.0153333 0.0126 0 0.0153333 0.0144 0 0.0153333 0.0162 0 0.0153333 0.018 0 0.0153333 0.0198 0 0.0153333 0.0216 0 0.0153333 0.0234 0 0.0153333 0.0252 0 0.0153333 0.027 0 0.0184 0 0 0.0184 0.0018 0 0.0184 0.0036 0 0.0184 0.0054 0 0.0184 0.0072 0 0.0184 0.009 0 0.0184 0.0108 0 0.0184 0.0126 0 0.0184 0.0144 0 0.0184 0.0162 0 0.0184 0.018 0 0.0184 0.0198 0 0.0184 0.0216 0 0.0184 0.0234 0 0.0184 0.0252 0 0.0184 0.027 0 0.0214667 0 0 0.0214667 0.0018 0 0.0214667 0.0036 0 0.0214667 0.0054 0 0.0214667 0.0072 0 0.0214667 0.009 0 0.0214667 0.0108 0 0.0214667 0.0126 0 0.0214667 0.0144 0 0.0214667 0.0162 0 0.0214667 0.018 0 0.0214667 0.0198 0 0.0214667 0.0216 0 0.0214667 0.0234 0 0.0214667 0.0252 0 0.0214667 0.027 0 0.0245333 0 0 0.0245333 0.0018 0 0.0245333 0.0036 0 0.0245333 0.0054 0 0.0245333 0.0072 0 0.0245333 0.009 0 0.0245333 0.0108 0 0.0245333 0.0126 0 0.0245333 0.0144 0 0.0245333 0.0162 0 0.0245333 0.018 0 0.0245333 0.0198 0 0.0245333 0.0216 0 0.0245333 0.0234 0 0.0245333 0.0252 0 0.0245333 0.027 0 0.0276 0 0 0.0276 0.0018 0 0.0276 0.0036 0 0.0276 0.0054 0 0.0276 0.0072 0 0.0276 0.009 0 0.0276 0.0108 0 0.0276 0.0126 0 0.0276 0.0144 0 0.0276 0.0162 0 0.0276 0.018 0 0.0276 0.0198 0 0.0276 0.0216 0 0.0276 0.0234 0 0.0276 0.0252 0 0.0276 0.027 0 0.0306667 0 0 0.0306667 0.0018 0 0.0306667 0.0036 0 0.0306667 0.0054 0 0.0306667 0.0072 0 0.0306667 0.009 0 0.0306667 0.0108 0 0.0306667 0.0126 0 0.0306667 0.0144 0 0.0306667 0.0162 0 0.0306667 0.018 0 0.0306667 0.0198 0 0.0306667 0.0216 0 0.0306667 0.0234 0 0.0306667 0.0252 0 0.0306667 0.027 0 0.0337333 0 0 0.0337333 0.0018 0 0.0337333 0.0036 0 0.0337333 0.0054 0 0.0337333 0.0072 0 0.0337333 0.009 0 0.0337333 0.0108 0 0.0337333 0.0126 0 0.0337333 0.0144 0 0.0337333 0.0162 0 0.0337333 0.018 0 0.0337333 0.0198 0 0.0337333 0.0216 0 0.0337333 0.0234 0 0.0337333 0.0252 0 0.0337333 0.027 0 0.0368 0 0 0.0368 0.0018 0 0.0368 0.0036 0 0.0368 0.0054 0 0.0368 0.0072 0 0.0368 0.009 0 0.0368 0.0108 0 0.0368 0.0126 0 0.0368 0.0144 0 0.0368 0.0162 0 0.0368 0.018 0 0.0368 0.0198 0 0.0368 0.0216 0 0.0368 0.0234 0 0.0368 0.0252 0 0.0368 0.027 0 0.0398667 0 0 0.0398667 0.0018 0 0.0398667 0.0036 0 0.0398667 0.0054 0 0.0398667 0.0072 0 0.0398667 0.009 0 0.0398667 0.0108 0 0.0398667 0.0126 0 0.0398667 0.0144 0 0.0398667 0.0162 0 0.0398667 0.018 0 0.0398667 0.0198 0 0.0398667 0.0216 0 0.0398667 0.0234 0 0.0398667 0.0252 0 0.0398667 0.027 0 0.0429333 0 0 0.0429333 0.0018 0 0.0429333 0.0036 0 0.0429333 0.0054 0 0.0429333 0.0072 0 0.0429333 0.009 0 0.0429333 0.0108 0 0.0429333 0.0126 0 0.0429333 0.0144 0 0.0429333 0.0162 0 0.0429333 0.018 0 0.0429333 0.0198 0 0.0429333 0.0216 0 0.0429333 0.0234 0 0.0429333 0.0252 0 0.0429333 0.027 0 0.046 0 0 0.046 0.0018 0 0.046 0.0036 0 0.046 0.0054 0 0.046 0.0072 0 0.046 0.009 0 0.046 0.0108 0 0.046 0.0126 0 0.046 0.0144 0 0.046 0.0162 0 0.046 0.018 0 0.046 0.0198 0 0.046 0.0216 0 0.046 0.0234 0 0.046 0.0252 0 0.046 0.027 0 
</DataArray>
</Points> 
</Piece> 
</StructuredGrid> 
</VTKFile> 
