<?xml version="1.0"?> 
<VTKFile type="StructuredGrid" version="0.1"> 
<StructuredGrid WholeExtent="0 15 0 15 0 0"> 
<Piece Extent="0 15 0 15 0 0"> 
<PointData>
<DataArray type="Float32" Name="E" format="ascii" NumberOfComponents="3"> 
-1.03614e+06 303165 0 -1.02203e+06 289670 0 -1.00803e+06 275962 0 -994134 262034 0 -980374 247879 0 -966763 233489 0 -953317 218850 0 -940064 203944 0 -927045 188733 0 -914336 173185 0 -902067 157232 0 -890460 140857 0 -879963 124026 0 -871403 107100 0 -866779 90367.6 0 -869246 74168.8 0 -1.05349e+06 390224 0 -1.0393e+06 377922 0 -1.02511e+06 365401 0 -1.01095e+06 352657 0 -996821 339683 0 -982749 326476 0 -968748 313035 0 -954835 299358 0 -941023 285446 0 -927317 271291 0 -913715 256879 0 -900204 242190 0 -886760 227206 0 -873339 211919 0 -859865 196253 0 -846266 179842 0 -1.07531e+06 475778 0 -1.0613e+06 464886 0 -1.04722e+06 453778 0 -1.0331e+06 442447 0 -1.01896e+06 430887 0 -1.00479e+06 419092 0 -990619 407054 0 -976448 394766 0 -962290 382225 0 -948160 369431 0 -934082 356386 0 -920080 343093 0 -906173 329540 0 -892361 315694 0 -878628 301574 0 -864969 287386 0 -1.10153e+06 557740 0 -1.08803e+06 548546 0 -1.07437e+06 539121 0 -1.06056e+06 529459 0 -1.04664e+06 519553 0 -1.03262e+06 509401 0 -1.01854e+06 498999 0 -1.00442e+06 488346 0 -990285 477442 0 -976127 466283 0 -961943 454864 0 -947728 443185 0 -933493 431252 0 -919277 419084 0 -905135 406660 0 -891042 393841 0 -1.13195e+06 633143 0 -1.11936e+06 626003 0 -1.10651e+06 618616 0 -1.09343e+06 610975 0 -1.08014e+06 603078 0 -1.06663e+06 594920 0 -1.05293e+06 586495 0 -1.03905e+06 577792 0 -1.02503e+06 568803 0 -1.01092e+06 559519 0 -996760 549941 0 -982604 540074 0 -968445 529935 0 -954234 519534 0 -939914 508876 0 -925618 497921 0 -1.16636e+06 697808 0 -1.15518e+06 693324 0 -1.14355e+06 688543 0 -1.13153e+06 683441 0 -1.11918e+06 678005 0 -1.10656e+06 672234 0 -1.09371e+06 666139 0 -1.08065e+06 659741 0 -1.06736e+06 653065 0 -1.05384e+06 646123 0 -1.04004e+06 638904 0 -1.026e+06 631362 0 -1.01179e+06 623426 0 -997568 615054 0 -983431 606352 0 -969111 597839 0 -1.20428e+06 744015 0 -1.19543e+06 743024 0 -1.18593e+06 741742 0 -1.1758e+06 740160 0 -1.16504e+06 738250 0 -1.15371e+06 735969 0 -1.14184e+06 733257 0 -1.12955e+06 730052 0 -1.11694e+06 726314 0 -1.10412e+06 722051 0 -1.09118e+06 717343 0 -1.07811e+06 712347 0 -1.06479e+06 707243 0 -1.05105e+06 702071 0 -1.03686e+06 696388 0 -1.02285e+06 688638 0 -1.24491e+06 762525 0 -1.2391e+06 766126 0 -1.23241e+06 769195 0 -1.22495e+06 771742 0 -1.21682e+06 773819 0 -1.20805e+06 775510 0 -1.19865e+06 776908 0 -1.18856e+06 778078 0 -1.17773e+06 779016 0 -1.16614e+06 779605 0 -1.15383e+06 779594 0 -1.14099e+06 778641 0 -1.12793e+06 776474 0 -1.11498e+06 773262 0 -1.10209e+06 770319 0 -1.08814e+06 771244 0 -1.28747e+06 732581 0 -1.28691e+06 743799 0 -1.28476e+06 754502 0 -1.2811e+06 764537 0 -1.27606e+06 773724 0 -1.26983e+06 781886 0 -1.26264e+06 788900 0 -1.25473e+06 794759 0 -1.24631e+06 799633 0 -1.23748e+06 803902 0 -1.2282e+06 808124 0 -1.21823e+06 812876 0 -1.20721e+06 818382 0 -1.1949e+06 823806 0 -1.18174e+06 826062 0 -1.16982e+06 818030 0 -1.32931e+06 627124 0 -1.33574e+06 646474 0 -1.3405e+06 665255 0 -1.34366e+06 683672 0 -1.34521e+06 701922 0 -1.34508e+06 720120 0 -1.34317e+06 738216 0 -1.33941e+06 755922 0 -1.33382e+06 772664 0 -1.32659e+06 787612 0 -1.31814e+06 799842 0 -1.30905e+06 808718 0 -1.29996e+06 814580 0 -1.29112e+06 819905 0 -1.28166e+06 831088 0 -1.26833e+06 860869 0 -1.3687e+06 403143 0 -1.38579e+06 440062 0 -1.39949e+06 474810 0 -1.41021e+06 507091 0 -1.41842e+06 536771 0 -1.42459e+06 563975 0 -1.42916e+06 589172 0 -1.43244e+06 613211 0 -1.43451e+06 637284 0 -1.43521e+06 662738 0 -1.43412e+06 690681 0 -1.43065e+06 721277 0 -1.42438e+06 752632 0 -1.41558e+06 779131 0 -1.4062e+06 789054 0 -1.40125e+06 761633 0 -1.39871e+06 -52264.9 0 -1.43356e+06 6753.19 0 -1.46457e+06 66172.2 0 -1.49161e+06 125842 0 -1.51451e+06 185284 0 -1.53316e+06 243607 0 -1.54757e+06 299483 0 -1.55796e+06 351222 0 -1.56483e+06 396993 0 -1.56898e+06 435252 0 -1.57139e+06 465465 0 -1.57305e+06 489189 0 -1.57454e+06 511625 0 -1.57525e+06 543736 0 -1.57239e+06 605088 0 -1.5594e+06 727018 0 -1.40823e+06 -798495 0 -1.46525e+06 -713487 0 -1.51574e+06 -633170 0 -1.56071e+06 -556746 0 -1.60108e+06 -482903 0 -1.63759e+06 -409844 0 -1.67073e+06 -335409 0 -1.70063e+06 -257355 0 -1.72707e+06 -173837 0 -1.74951e+06 -84150 0 -1.76723e+06 10216.8 0 -1.77968e+06 104142 0 -1.78697e+06 187001 0 -1.79071e+06 240276 0 -1.79508e+06 234549 0 -1.80831e+06 126525 0 -1.36226e+06 -2.20799e+06 0 -1.46485e+06 -2.05136e+06 0 -1.56112e+06 -1.89611e+06 0 -1.6493e+06 -1.74428e+06 0 -1.72812e+06 -1.59853e+06 0 -1.79685e+06 -1.46178e+06 0 -1.85537e+06 -1.33691e+06 0 -1.90421e+06 -1.22615e+06 0 -1.94447e+06 -1.1304e+06 0 -1.97773e+06 -1.04816e+06 0 -2.00581e+06 -974265 0 -2.03037e+06 -898332 0 -2.05235e+06 -802789 0 -2.07122e+06 -660612 0 -2.08395e+06 -432562 0 -2.08378e+06 -64946.7 0 -1.12837e+06 -3.6866e+06 0 -1.18562e+06 -3.6577e+06 0 -1.26419e+06 -3.6126e+06 0 -1.3621e+06 -3.54909e+06 0 -1.47684e+06 -3.46488e+06 0 -1.60535e+06 -3.35795e+06 0 -1.7439e+06 -3.22703e+06 0 -1.88811e+06 -3.0722e+06 0 -2.03296e+06 -2.8956e+06 0 -2.17281e+06 -2.7023e+06 0 -2.30159e+06 -2.50136e+06 0 -2.413e+06 -2.30701e+06 0 -2.5008e+06 -2.14001e+06 0 -2.55929e+06 -2.02917e+06 0 -2.58384e+06 -2.01315e+06 0 -2.57154e+06 -2.1413e+06 0 -848027 -2.72089e+06 0 -785077 -2.77758e+06 0 -703678 -2.82241e+06 0 -609469 -2.85562e+06 0 -508031 -2.88171e+06 0 -405964 -2.90949e+06 0 -311872 -2.95288e+06 0 -237434 -3.03219e+06 0 -198569 -3.17582e+06 0 -216768 -3.42218e+06 0 -320585 -3.82207e+06 0 -547308 -4.44125e+06 0 -944794 -5.36336e+06 0 -1.57346e+06 -6.69301e+06 0 -2.50839e+06 -8.55905e+06 0 -3.84149e+06 -1.11177e+07 0 </DataArray> 
</PointData> 
<Points> 
<DataArray type="Float32" NumberOfComponents="3"> 
0.046 0.027 0 0.0437667 0.0286667 0 0.0415333 0.0303333 0 0.0393 0.032 0 0.0370667 0.0336667 0 0.0348333 0.0353333 0 0.0326 0.037 0 0.0303667 0.0386667 0 0.0281333 0.0403333 0 0.0259 0.042 0 0.0236667 0.0436667 0 0.0214333 0.0453333 0 0.0192 0.047 0 0.0169667 0.0486667 0 0.0147333 0.0503333 0 0.0125 0.052 0 0.0586667 0.027 0 0.0565222 0.0285911 0 0.0543778 0.0301822 0 0.0522333 0.0317733 0 0.0500889 0.0333644 0 0.0479444 0.0349556 0 0.0458 0.0365467 0 0.0436556 0.0381378 0 0.0415111 0.0397289 0 0.0393667 0.04132 0 0.0372222 0.0429111 0 0.0350778 0.0445022 0 0.0329333 0.0460933 0 0.0307889 0.0476844 0 0.0286444 0.0492756 0 0.0265 0.0508667 0 0.0713333 0.027 0 0.0692778 0.0285156 0 0.0672222 0.0300311 0 0.0651667 0.0315467 0 0.0631111 0.0330622 0 0.0610556 0.0345778 0 0.059 0.0360933 0 0.0569444 0.0376089 0 0.0548889 0.0391244 0 0.0528333 0.04064 0 0.0507778 0.0421556 0 0.0487222 0.0436711 0 0.0466667 0.0451867 0 0.0446111 0.0467022 0 0.0425556 0.0482178 0 0.0405 0.0497333 0 0.084 0.027 0 0.0820333 0.02844 0 0.0800667 0.02988 0 0.0781 0.03132 0 0.0761333 0.03276 0 0.0741667 0.0342 0 0.0722 0.03564 0 0.0702333 0.03708 0 0.0682667 0.03852 0 0.0663 0.03996 0 0.0643333 0.0414 0 0.0623667 0.04284 0 0.0604 0.04428 0 0.0584333 0.04572 0 0.0564667 0.04716 0 0.0545 0.0486 0 0.0966667 0.027 0 0.0947889 0.0283644 0 0.0929111 0.0297289 0 0.0910333 0.0310933 0 0.0891556 0.0324578 0 0.0872778 0.0338222 0 0.0854 0.0351867 0 0.0835222 0.0365511 0 0.0816444 0.0379156 0 0.0797667 0.03928 0 0.0778889 0.0406444 0 0.0760111 0.0420089 0 0.0741333 0.0433733 0 0.0722556 0.0447378 0 0.0703778 0.0461022 0 0.0685 0.0474667 0 0.109333 0.027 0 0.107544 0.0282889 0 0.105756 0.0295778 0 0.103967 0.0308667 0 0.102178 0.0321556 0 0.100389 0.0334444 0 0.0986 0.0347333 0 0.0968111 0.0360222 0 0.0950222 0.0373111 0 0.0932333 0.0386 0 0.0914444 0.0398889 0 0.0896556 0.0411778 0 0.0878667 0.0424667 0 0.0860778 0.0437556 0 0.0842889 0.0450444 0 0.0825 0.0463333 0 0.122 0.027 0 0.1203 0.0282133 0 0.1186 0.0294267 0 0.1169 0.03064 0 0.1152 0.0318533 0 0.1135 0.0330667 0 0.1118 0.03428 0 0.1101 0.0354933 0 0.1084 0.0367067 0 0.1067 0.03792 0 0.105 0.0391333 0 0.1033 0.0403467 0 0.1016 0.04156 0 0.0999 0.0427733 0 0.0982 0.0439867 0 0.0965 0.0452 0 0.134667 0.027 0 0.133056 0.0281378 0 0.131444 0.0292756 0 0.129833 0.0304133 0 0.128222 0.0315511 0 0.126611 0.0326889 0 0.125 0.0338267 0 0.123389 0.0349644 0 0.121778 0.0361022 0 0.120167 0.03724 0 0.118556 0.0383778 0 0.116944 0.0395156 0 0.115333 0.0406533 0 0.113722 0.0417911 0 0.112111 0.0429289 0 0.1105 0.0440667 0 0.147333 0.027 0 0.145811 0.0280622 0 0.144289 0.0291244 0 0.142767 0.0301867 0 0.141244 0.0312489 0 0.139722 0.0323111 0 0.1382 0.0333733 0 0.136678 0.0344356 0 0.135156 0.0354978 0 0.133633 0.03656 0 0.132111 0.0376222 0 0.130589 0.0386844 0 0.129067 0.0397467 0 0.127544 0.0408089 0 0.126022 0.0418711 0 0.1245 0.0429333 0 0.16 0.027 0 0.158567 0.0279867 0 0.157133 0.0289733 0 0.1557 0.02996 0 0.154267 0.0309467 0 0.152833 0.0319333 0 0.1514 0.03292 0 0.149967 0.0339067 0 0.148533 0.0348933 0 0.1471 0.03588 0 0.145667 0.0368667 0 0.144233 0.0378533 0 0.1428 0.03884 0 0.141367 0.0398267 0 0.139933 0.0408133 0 0.1385 0.0418 0 0.172667 0.027 0 0.171322 0.0279111 0 0.169978 0.0288222 0 0.168633 0.0297333 0 0.167289 0.0306444 0 0.165944 0.0315556 0 0.1646 0.0324667 0 0.163256 0.0333778 0 0.161911 0.0342889 0 0.160567 0.0352 0 0.159222 0.0361111 0 0.157878 0.0370222 0 0.156533 0.0379333 0 0.155189 0.0388444 0 0.153844 0.0397556 0 0.1525 0.0406667 0 0.185333 0.027 0 0.184078 0.0278356 0 0.182822 0.0286711 0 0.181567 0.0295067 0 0.180311 0.0303422 0 0.179056 0.0311778 0 0.1778 0.0320133 0 0.176544 0.0328489 0 0.175289 0.0336844 0 0.174033 0.03452 0 0.172778 0.0353556 0 0.171522 0.0361911 0 0.170267 0.0370267 0 0.169011 0.0378622 0 0.167756 0.0386978 0 0.1665 0.0395333 0 0.198 0.027 0 0.196833 0.02776 0 0.195667 0.02852 0 0.1945 0.02928 0 0.193333 0.03004 0 0.192167 0.0308 0 0.191 0.03156 0 0.189833 0.03232 0 0.188667 0.03308 0 0.1875 0.03384 0 0.186333 0.0346 0 0.185167 0.03536 0 0.184 0.03612 0 0.182833 0.03688 0 0.181667 0.03764 0 0.1805 0.0384 0 0.210667 0.027 0 0.209589 0.0276844 0 0.208511 0.0283689 0 0.207433 0.0290533 0 0.206356 0.0297378 0 0.205278 0.0304222 0 0.2042 0.0311067 0 0.203122 0.0317911 0 0.202044 0.0324756 0 0.200967 0.03316 0 0.199889 0.0338444 0 0.198811 0.0345289 0 0.197733 0.0352133 0 0.196656 0.0358978 0 0.195578 0.0365822 0 0.1945 0.0372667 0 0.223333 0.027 0 0.222344 0.0276089 0 0.221356 0.0282178 0 0.220367 0.0288267 0 0.219378 0.0294356 0 0.218389 0.0300444 0 0.2174 0.0306533 0 0.216411 0.0312622 0 0.215422 0.0318711 0 0.214433 0.03248 0 0.213444 0.0330889 0 0.212456 0.0336978 0 0.211467 0.0343067 0 0.210478 0.0349156 0 0.209489 0.0355244 0 0.2085 0.0361333 0 0.236 0.027 0 0.2351 0.0275333 0 0.2342 0.0280667 0 0.2333 0.0286 0 0.2324 0.0291333 0 0.2315 0.0296667 0 0.2306 0.0302 0 0.2297 0.0307333 0 0.2288 0.0312667 0 0.2279 0.0318 0 0.227 0.0323333 0 0.2261 0.0328667 0 0.2252 0.0334 0 0.2243 0.0339333 0 0.2234 0.0344667 0 0.2225 0.035 0 
</DataArray>
</Points> 
</Piece> 
</StructuredGrid> 
</VTKFile> 
