<?xml version="1.0"?> 
<VTKFile type="StructuredGrid" version="0.1"> 
<StructuredGrid WholeExtent="0 15 0 15 0 0"> 
<Piece Extent="0 15 0 15 0 0"> 
<PointData>
<DataArray type="Float32" Name="E" format="ascii" NumberOfComponents="3"> 
302597 -21.8422 0 296461 56625.9 0 278349 110434 0 249188 158683 0 210610 198808 0 165008 228661 0 115466 246852 0 65509.5 253088 0 18526.1 248389 0 -22653.5 234941 0 -56640.6 215681 0 -82591.5 193620 0 -102079 171460 0 -114419 151381 0 -124460 134836 0 -150768 131674 0 275543 -19.4591 0 270074 50851.4 0 253949 99178.7 0 228032 142558 0 193811 178765 0 153398 205994 0 109448 223112 0 64906.9 229906 0 22623.9 227209 0 -15125.7 216794 0 -46906.3 201024 0 -72353.8 182428 0 -91728.2 163299 0 -106269 145537 0 -117171 130577 0 -126472 116620 0 251234 -17.3966 0 246363 45707.9 0 232009 89166.1 0 208966 128234 0 178571 160984 0 142680 185880 0 103573 201982 0 63735.9 209121 0 25546.8 207977 0 -9064.83 199983 0 -38874.8 187074 0 -63437 171349 0 -83004.2 154782 0 -98343.3 139026 0 -110627 125178 0 -120401 112953 0 229374 -15.5152 0 225035 41127.2 0 212256 80256.3 0 191753 115501 0 164717 145182 0 132773 167985 0 97878.4 183117 0 62139.8 190429 0 27559 190471 0 -4230.62 184406 0 -32162.5 173823 0 -55804 160473 0 -75306.7 146050 0 -91254.9 132004 0 -104490 119342 0 -115503 108847 0 209696 -13.7764 0 205830 37046.7 0 194445 72323 0 176183 104167 0 152099 131113 0 123607 152027 0 92392.1 166225 0 60244.5 173572 0 28858.4 174503 0 -377.768 169965 0 -26537.3 161260 0 -49218 149859 0 -68502.6 137214 0 -84843.4 124611 0 -98872.3 113057 0 -111167 103320 0 191963 -12.2171 0 188515 33409.8 0 178364 65253.1 0 162080 94065.1 0 140589 118564 0 115125 137761 0 87136.4 151063 0 58150.9 158333 0 29608 159913 0 2692.21 156568 0 -21795.1 149370 0 -43489.8 139550 0 -62441 128359 0 -79004.6 116952 0 -93691.4 106300 0 -107065 97206.2 0 175963 -10.8165 0 172887 30165.6 0 163826 58945.8 0 149285 85049.3 0 130078 107350 0 107276 124983 0 82127.7 137421 0 55939.7 144527 0 29940.6 146562 0 5143.17 144140 0 -17761.7 138137 0 -38456.3 129582 0 -56978.9 119553 0 -73636.6 109096 0 -88847 99160.8 0 -103037 90462.9 0 161511 -9.57456 0 158763 27268.6 0 150666 53312.2 0 137665 76990.6 0 120471 97311.9 0 100016 113514 0 77376.8 125124 0 53675.5 132000 0 29964.2 134333 0 7111.11 132610 0 -14290.6 127542 0 -33972.6 119981 0 -51987 110851 0 -68627.4 101107 0 -84262 91693.2 0 -99145.1 83367.8 0 148442 -8.47468 0 145983 24678.8 0 138739 48273.7 0 127098 69776.8 0 111683 88311.6 0 93303.3 103201 0 72889.6 114019 0 51408.8 120616 0 29765.8 123124 0 8707.42 121920 0 -11258.1 117572 0 -29912.6 110774 0 -47340.3 102303 0 -63866.5 93030 0 -79861.4 83940.3 0 -95388.9 75924.3 0 136609 -7.50767 0 134407 22360.7 0 127917 43761.7 0 117480 63310.1 0 103640 80229 0 87099.9 93914.7 0 68667.5 103977 0 49178.5 110262 0 29415 112848 0 10022.7 112020 0 -8561.49 108217 0 -26166.3 101986 0 -42920.7 93958.5 0 -59230 84908 0 -75562.6 75897.6 0 -91843.7 68150.7 0 125883 -6.65379 0 123909 20283.4 0 118087 39715.8 0 108717 57505.2 0 96274.1 72960.3 0 81370.5 85540.2 0 64708.1 94885.8 0 47013.1 100838 0 28965.6 103430 0 11128.9 102866 0 -6117.95 99470.8 0 -22640.2 93651.2 0 -38616.4 85876.8 0 -54573.3 76784 0 -71244.5 67520.8 0 -88571.2 59888.1 0 116150 -5.91206 0 114377 18419.6 0 109149 36083.4 0 100727 52287.4 0 89525.9 66415.2 0 76081.5 77979.5 0 61005.7 86648.5 0 44932.8 92257.7 0 28458.8 94804.4 0 12081.1 94420.9 0 -3863.4 91332.2 0 -19261.2 85807.9 0 -34323.4 78136.3 0 -49725.7 68728.7 0 -66692.1 58710 0 -85620 50911.2 0 107307 -5.24339 0 105715 16745.2 0 101014 32818.2 0 93434.5 47592 0 83340.6 60515.1 0 71200.9 71147.4 0 57551.6 79180.4 0 42950.1 84447.5 0 27923.8 86913.7 0 12919 86654 0 -1753.2 83802 0 -15979.5 78503.9 0 -29959.8 70842.3 0 -44488.2 60879.6 0 -61508.6 49355.7 0 -83066.5 40501.7 0 99266.1 -4.6838 0 97832.8 15239.3 0 93601.5 29879.8 0 86773.7 43361.9 0 77668.6 55191.2 0 66698.3 64968.7 0 54335 72407.7 0 41071.3 77339.9 0 27380.6 79707.2 0 13667.1 79533.7 0 241.055 76884.2 0 -12779.9 71786.1 0 -25477.2 64130.8 0 -38690.5 53519.8 0 -54930.1 39406.4 0 -80982.8 27414.2 0 91945.1 -4.18188 0 90654.2 13883.6 0 86841.4 27232.9 0 80684.6 39547.4 0 72464.5 50383.4 0 62544.4 59377.5 0 51343.1 66265.2 0 39296.8 70875 0 26841.8 73138.6 0 14336.5 73029.4 0 2132.16 70578.5 0 -9680.5 65695.5 0 -20899.7 58150.9 0 -32285.9 47105.4 0 -45666.6 29594.5 0 -79405.4 6027.38 0 85273.1 -3.42872 0 84109.1 12661.8 0 80671.3 24845.8 0 75113.7 36105.2 0 67686.9 46037 0 58714.2 54318.8 0 48554 60688.5 0 37645.7 65009.6 0 26260.1 67144.2 0 15047 67141 0 3669.46 64829.6 0 -6228.34 60308.5 0 -17288.8 53009.9 0 -23876 41863.2 0 -34554.6 24910.3 0 -83830.4 -52266.7 0 </DataArray> 
</PointData> 
<Points> 
<DataArray type="Float32" NumberOfComponents="3"> 
0.406 0 0 0.406 0.00133333 0 0.406 0.00266667 0 0.406 0.004 0 0.406 0.00533333 0 0.406 0.00666667 0 0.406 0.008 0 0.406 0.00933333 0 0.406 0.0106667 0 0.406 0.012 0 0.406 0.0133333 0 0.406 0.0146667 0 0.406 0.016 0 0.406 0.0173333 0 0.406 0.0186667 0 0.406 0.02 0 0.406667 0 0 0.406667 0.00133333 0 0.406667 0.00266667 0 0.406667 0.004 0 0.406667 0.00533333 0 0.406667 0.00666667 0 0.406667 0.008 0 0.406667 0.00933333 0 0.406667 0.0106667 0 0.406667 0.012 0 0.406667 0.0133333 0 0.406667 0.0146667 0 0.406667 0.016 0 0.406667 0.0173333 0 0.406667 0.0186667 0 0.406667 0.02 0 0.407333 0 0 0.407333 0.00133333 0 0.407333 0.00266667 0 0.407333 0.004 0 0.407333 0.00533333 0 0.407333 0.00666667 0 0.407333 0.008 0 0.407333 0.00933333 0 0.407333 0.0106667 0 0.407333 0.012 0 0.407333 0.0133333 0 0.407333 0.0146667 0 0.407333 0.016 0 0.407333 0.0173333 0 0.407333 0.0186667 0 0.407333 0.02 0 0.408 0 0 0.408 0.00133333 0 0.408 0.00266667 0 0.408 0.004 0 0.408 0.00533333 0 0.408 0.00666667 0 0.408 0.008 0 0.408 0.00933333 0 0.408 0.0106667 0 0.408 0.012 0 0.408 0.0133333 0 0.408 0.0146667 0 0.408 0.016 0 0.408 0.0173333 0 0.408 0.0186667 0 0.408 0.02 0 0.408667 0 0 0.408667 0.00133333 0 0.408667 0.00266667 0 0.408667 0.004 0 0.408667 0.00533333 0 0.408667 0.00666667 0 0.408667 0.008 0 0.408667 0.00933333 0 0.408667 0.0106667 0 0.408667 0.012 0 0.408667 0.0133333 0 0.408667 0.0146667 0 0.408667 0.016 0 0.408667 0.0173333 0 0.408667 0.0186667 0 0.408667 0.02 0 0.409333 0 0 0.409333 0.00133333 0 0.409333 0.00266667 0 0.409333 0.004 0 0.409333 0.00533333 0 0.409333 0.00666667 0 0.409333 0.008 0 0.409333 0.00933333 0 0.409333 0.0106667 0 0.409333 0.012 0 0.409333 0.0133333 0 0.409333 0.0146667 0 0.409333 0.016 0 0.409333 0.0173333 0 0.409333 0.0186667 0 0.409333 0.02 0 0.41 0 0 0.41 0.00133333 0 0.41 0.00266667 0 0.41 0.004 0 0.41 0.00533333 0 0.41 0.00666667 0 0.41 0.008 0 0.41 0.00933333 0 0.41 0.0106667 0 0.41 0.012 0 0.41 0.0133333 0 0.41 0.0146667 0 0.41 0.016 0 0.41 0.0173333 0 0.41 0.0186667 0 0.41 0.02 0 0.410667 0 0 0.410667 0.00133333 0 0.410667 0.00266667 0 0.410667 0.004 0 0.410667 0.00533333 0 0.410667 0.00666667 0 0.410667 0.008 0 0.410667 0.00933333 0 0.410667 0.0106667 0 0.410667 0.012 0 0.410667 0.0133333 0 0.410667 0.0146667 0 0.410667 0.016 0 0.410667 0.0173333 0 0.410667 0.0186667 0 0.410667 0.02 0 0.411333 0 0 0.411333 0.00133333 0 0.411333 0.00266667 0 0.411333 0.004 0 0.411333 0.00533333 0 0.411333 0.00666667 0 0.411333 0.008 0 0.411333 0.00933333 0 0.411333 0.0106667 0 0.411333 0.012 0 0.411333 0.0133333 0 0.411333 0.0146667 0 0.411333 0.016 0 0.411333 0.0173333 0 0.411333 0.0186667 0 0.411333 0.02 0 0.412 0 0 0.412 0.00133333 0 0.412 0.00266667 0 0.412 0.004 0 0.412 0.00533333 0 0.412 0.00666667 0 0.412 0.008 0 0.412 0.00933333 0 0.412 0.0106667 0 0.412 0.012 0 0.412 0.0133333 0 0.412 0.0146667 0 0.412 0.016 0 0.412 0.0173333 0 0.412 0.0186667 0 0.412 0.02 0 0.412667 0 0 0.412667 0.00133333 0 0.412667 0.00266667 0 0.412667 0.004 0 0.412667 0.00533333 0 0.412667 0.00666667 0 0.412667 0.008 0 0.412667 0.00933333 0 0.412667 0.0106667 0 0.412667 0.012 0 0.412667 0.0133333 0 0.412667 0.0146667 0 0.412667 0.016 0 0.412667 0.0173333 0 0.412667 0.0186667 0 0.412667 0.02 0 0.413333 0 0 0.413333 0.00133333 0 0.413333 0.00266667 0 0.413333 0.004 0 0.413333 0.00533333 0 0.413333 0.00666667 0 0.413333 0.008 0 0.413333 0.00933333 0 0.413333 0.0106667 0 0.413333 0.012 0 0.413333 0.0133333 0 0.413333 0.0146667 0 0.413333 0.016 0 0.413333 0.0173333 0 0.413333 0.0186667 0 0.413333 0.02 0 0.414 0 0 0.414 0.00133333 0 0.414 0.00266667 0 0.414 0.004 0 0.414 0.00533333 0 0.414 0.00666667 0 0.414 0.008 0 0.414 0.00933333 0 0.414 0.0106667 0 0.414 0.012 0 0.414 0.0133333 0 0.414 0.0146667 0 0.414 0.016 0 0.414 0.0173333 0 0.414 0.0186667 0 0.414 0.02 0 0.414667 0 0 0.414667 0.00133333 0 0.414667 0.00266667 0 0.414667 0.004 0 0.414667 0.00533333 0 0.414667 0.00666667 0 0.414667 0.008 0 0.414667 0.00933333 0 0.414667 0.0106667 0 0.414667 0.012 0 0.414667 0.0133333 0 0.414667 0.0146667 0 0.414667 0.016 0 0.414667 0.0173333 0 0.414667 0.0186667 0 0.414667 0.02 0 0.415333 0 0 0.415333 0.00133333 0 0.415333 0.00266667 0 0.415333 0.004 0 0.415333 0.00533333 0 0.415333 0.00666667 0 0.415333 0.008 0 0.415333 0.00933333 0 0.415333 0.0106667 0 0.415333 0.012 0 0.415333 0.0133333 0 0.415333 0.0146667 0 0.415333 0.016 0 0.415333 0.0173333 0 0.415333 0.0186667 0 0.415333 0.02 0 0.416 0 0 0.416 0.00133333 0 0.416 0.00266667 0 0.416 0.004 0 0.416 0.00533333 0 0.416 0.00666667 0 0.416 0.008 0 0.416 0.00933333 0 0.416 0.0106667 0 0.416 0.012 0 0.416 0.0133333 0 0.416 0.0146667 0 0.416 0.016 0 0.416 0.0173333 0 0.416 0.0186667 0 0.416 0.02 0 
</DataArray>
</Points> 
</Piece> 
</StructuredGrid> 
</VTKFile> 
