<?xml version="1.0"?> 
<VTKFile type="StructuredGrid" version="0.1"> 
<StructuredGrid WholeExtent="0 15 0 15 0 0"> 
<Piece Extent="0 15 0 15 0 0"> 
<PointData>
<DataArray type="Float32" Name="E" format="ascii" NumberOfComponents="3"> 
-983626 -1.08088 0 -983095 -14472.2 0 -981497 -29087.4 0 -978816 -43990.6 0 -975028 -59332.4 0 -970098 -75269.5 0 -963992 -91964.2 0 -956669 -109581 0 -948094 -128279 0 -938220 -148199 0 -927023 -169444 0 -914415 -192053 0 -900391 -215955 0 -884685 -240906 0 -867450 -266319 0 -851097 -290112 0 -974744 -1.02167 0 -974170 -13775.5 0 -972440 -27686.5 0 -969536 -41871.4 0 -965429 -56475.1 0 -960082 -71650.8 0 -953455 -87559.5 0 -945508 -104367 0 -936209 -122234 0 -925539 -141307 0 -913485 -161689 0 -900055 -183417 0 -885244 -206411 0 -869097 -230430 0 -851698 -255023 0 -833507 -280019 0 -966317 -0.949843 0 -965702 -13025.3 0 -963848 -26177.4 0 -960733 -39586.5 0 -956323 -53391.5 0 -950575 -67741.9 0 -943442 -82798.5 0 -934883 -98731 0 -924872 -115710 0 -913403 -133892 0 -900500 -153396 0 -886224 -174271 0 -870667 -196450 0 -853957 -219717 0 -836283 -243719 0 -817791 -268181 0 -958378 -0.867486 0 -957725 -12225.2 0 -955755 -24566.7 0 -952443 -37145.2 0 -947747 -50092.3 0 -941616 -63553.5 0 -933994 -77690.4 0 -924835 -92680 0 -914114 -108707 0 -901837 -125950 0 -888061 -144555 0 -872905 -164601 0 -856545 -186051 0 -839211 -208715 0 -821153 -232252 0 -802519 -256207 0 -950956 -0.766745 0 -950268 -11379.5 0 -948194 -22862.6 0 -944702 -34558.6 0 -939741 -46590.1 0 -933248 -59097.9 0 -925157 -72244.9 0 -915409 -86217.4 0 -903974 -101220 0 -890867 -117464 0 -876173 -135137 0 -860065 -154366 0 -842810 -175162 0 -824749 -197363 0 -806236 -220606 0 -787517 -244341 0 -944078 -0.647212 0 -943360 -10493.1 0 -941195 -21074.6 0 -937542 -31839.9 0 -932341 -42900.3 0 -925514 -54390.1 0 -916977 -66473 0 -906654 -79346.8 0 -894501 -93241.3 0 -880531 -108409 0 -864850 -125096 0 -847683 -143503 0 -829395 -163707 0 -810461 -185590 0 -791390 -208762 0 -772577 -232562 0 -937767 -0.504169 0 -937025 -9572.24 0 -934783 -19214.5 0 -930995 -29005.3 0 -925586 -39041.7 0 -918459 -49448.7 0 -909507 -60389.3 0 -898628 -72072.5 0 -885752 -84757.7 0 -870880 -98748.2 0 -854122 -114369 0 -835752 -131917 0 -816237 -151575 0 -796223 -173292 0 -776430 -196664 0 -757444 -220892 0 -932043 -0.334947 0 -931283 -8624.07 0 -928984 -17296.3 0 -925090 -26074.7 0 -919511 -35038 0 -912127 -44298.2 0 -902802 -54013.7 0 -891395 -64403.4 0 -877801 -75757.7 0 -861983 -88440.5 0 -844043 -102873 0 -824284 -119484 0 -803282 -138609 0 -781890 -160319 0 -761132 -184213 0 -741901 -209339 0 -926920 -0.137697 0 -926149 -7657.3 0 -923815 -15337.1 0 -919851 -23072.3 0 -914151 -30918.9 0 -906566 -38970 0 -896923 -47374.2 0 -885034 -56355.6 0 -870736 -66234.1 0 -853938 -77439.8 0 -834697 -90509 0 -813324 -106043 0 -790488 -124597 0 -767304 -146450 0 -745206 -171269 0 -725508 -197822 0 -922406 0.0906018 0 -921634 -6682.13 0 -919290 -13356.8 0 -915300 -20027.5 0 -909535 -26721.3 0 -901820 -33505.6 0 -891934 -40510.7 0 -879631 -47957.4 0 -864670 -56189.7 0 -846872 -65703.8 0 -826215 -77166.7 0 -802962 -91393.4 0 -777855 -109248 0 -752278 -131365 0 -728286 -157589 0 -707978 -186502 0 -918503 0.345423 0 -917738 -5710.37 0 -915416 -11379.2 0 -911449 -16975.5 0 -905691 -22490.7 0 -897933 -27957.9 0 -887905 -33477.8 0 -875285 -39255.4 0 -859735 -45645.1 0 -840954 -53203.3 0 -818782 -62731.3 0 -793371 -75297.5 0 -765436 -92176.3 0 -736641 -114578 0 -709852 -142844 0 -688397 -174989 0 -915203 0.630886 0 -914458 -4755.45 0 -912190 -9431.45 0 -908306 -13957.4 0 -902638 -18282.3 0 -894944 -22394.3 0 -884901 -26350.2 0 -872102 -30320 0 -856088 -34649.8 0 -836393 -39934 0 -812660 -47103.7 0 -784820 -57490.6 0 -753427 -72882.2 0 -720239 -95369.3 0 -689198 -126349 0 -666159 -164190 0 -912491 0.929535 0 -911777 -3832.28 0 -909603 -7544.02 0 -905865 -11020.7 0 -900383 -14161.5 0 -892883 -16897.9 0 -882986 -19225 0 -870194 -21254.5 0 -853903 -23290.8 0 -833446 -25938.6 0 -808191 -30219.3 0 -777737 -37720.7 0 -742219 -50761.7 0 -703134 -72617 0 -665253 -107095 0 -639108 -152661 0 -910342 1.25151 0 -909673 -2956.95 0 -907632 -5750.4 0 -904112 -8218.41 0 -898923 -10203.9 0 -891767 -11569 0 -882212 -12227.3 0 -869670 -12199.7 0 -853370 -11710.6 0 -832412 -11320.3 0 -805802 -12094.4 0 -772720 -15796.9 0 -732550 -25190.4 0 -685895 -44757.7 0 -636634 -82345.5 0 -603795 -144609 0 -908721 1.49246 0 -908109 -2146.26 0 -906243 -4085.87 0 -903017 -5608.42 0 -898237 -6493.83 0 -891594 -6526.1 0 -882617 -5509.36 0 -870624 -3346.37 0 -854690 -110.699 0 -833604 3720.54 0 -806037 7157.02 0 -770452 8299.69 0 -725766 4274.82 0 -669946 -9911.67 0 -603008 -46492.7 0 -553164 -138028 0 -907582 2.30982 0 -907041 -1416.74 0 -905390 -2586.94 0 -902532 -3249.27 0 -898284 -3126.25 0 -892336 -1896.29 0 -884209 733.047 0 -873121 5087.33 0 -858057 11186.4 0 -837325 18943.3 0 -809510 27177 0 -771685 34473.5 0 -723488 37528.7 0 -658466 32265.4 0 -571774 13753.9 0 -392434 -103001 0 </DataArray> 
</PointData> 
<Points> 
<DataArray type="Float32" NumberOfComponents="3"> 
0.236 0 0 0.236 0.0018 0 0.236 0.0036 0 0.236 0.0054 0 0.236 0.0072 0 0.236 0.009 0 0.236 0.0108 0 0.236 0.0126 0 0.236 0.0144 0 0.236 0.0162 0 0.236 0.018 0 0.236 0.0198 0 0.236 0.0216 0 0.236 0.0234 0 0.236 0.0252 0 0.236 0.027 0 0.237133 0 0 0.237133 0.0018 0 0.237133 0.0036 0 0.237133 0.0054 0 0.237133 0.0072 0 0.237133 0.009 0 0.237133 0.0108 0 0.237133 0.0126 0 0.237133 0.0144 0 0.237133 0.0162 0 0.237133 0.018 0 0.237133 0.0198 0 0.237133 0.0216 0 0.237133 0.0234 0 0.237133 0.0252 0 0.237133 0.027 0 0.238267 0 0 0.238267 0.0018 0 0.238267 0.0036 0 0.238267 0.0054 0 0.238267 0.0072 0 0.238267 0.009 0 0.238267 0.0108 0 0.238267 0.0126 0 0.238267 0.0144 0 0.238267 0.0162 0 0.238267 0.018 0 0.238267 0.0198 0 0.238267 0.0216 0 0.238267 0.0234 0 0.238267 0.0252 0 0.238267 0.027 0 0.2394 0 0 0.2394 0.0018 0 0.2394 0.0036 0 0.2394 0.0054 0 0.2394 0.0072 0 0.2394 0.009 0 0.2394 0.0108 0 0.2394 0.0126 0 0.2394 0.0144 0 0.2394 0.0162 0 0.2394 0.018 0 0.2394 0.0198 0 0.2394 0.0216 0 0.2394 0.0234 0 0.2394 0.0252 0 0.2394 0.027 0 0.240533 0 0 0.240533 0.0018 0 0.240533 0.0036 0 0.240533 0.0054 0 0.240533 0.0072 0 0.240533 0.009 0 0.240533 0.0108 0 0.240533 0.0126 0 0.240533 0.0144 0 0.240533 0.0162 0 0.240533 0.018 0 0.240533 0.0198 0 0.240533 0.0216 0 0.240533 0.0234 0 0.240533 0.0252 0 0.240533 0.027 0 0.241667 0 0 0.241667 0.0018 0 0.241667 0.0036 0 0.241667 0.0054 0 0.241667 0.0072 0 0.241667 0.009 0 0.241667 0.0108 0 0.241667 0.0126 0 0.241667 0.0144 0 0.241667 0.0162 0 0.241667 0.018 0 0.241667 0.0198 0 0.241667 0.0216 0 0.241667 0.0234 0 0.241667 0.0252 0 0.241667 0.027 0 0.2428 0 0 0.2428 0.0018 0 0.2428 0.0036 0 0.2428 0.0054 0 0.2428 0.0072 0 0.2428 0.009 0 0.2428 0.0108 0 0.2428 0.0126 0 0.2428 0.0144 0 0.2428 0.0162 0 0.2428 0.018 0 0.2428 0.0198 0 0.2428 0.0216 0 0.2428 0.0234 0 0.2428 0.0252 0 0.2428 0.027 0 0.243933 0 0 0.243933 0.0018 0 0.243933 0.0036 0 0.243933 0.0054 0 0.243933 0.0072 0 0.243933 0.009 0 0.243933 0.0108 0 0.243933 0.0126 0 0.243933 0.0144 0 0.243933 0.0162 0 0.243933 0.018 0 0.243933 0.0198 0 0.243933 0.0216 0 0.243933 0.0234 0 0.243933 0.0252 0 0.243933 0.027 0 0.245067 0 0 0.245067 0.0018 0 0.245067 0.0036 0 0.245067 0.0054 0 0.245067 0.0072 0 0.245067 0.009 0 0.245067 0.0108 0 0.245067 0.0126 0 0.245067 0.0144 0 0.245067 0.0162 0 0.245067 0.018 0 0.245067 0.0198 0 0.245067 0.0216 0 0.245067 0.0234 0 0.245067 0.0252 0 0.245067 0.027 0 0.2462 0 0 0.2462 0.0018 0 0.2462 0.0036 0 0.2462 0.0054 0 0.2462 0.0072 0 0.2462 0.009 0 0.2462 0.0108 0 0.2462 0.0126 0 0.2462 0.0144 0 0.2462 0.0162 0 0.2462 0.018 0 0.2462 0.0198 0 0.2462 0.0216 0 0.2462 0.0234 0 0.2462 0.0252 0 0.2462 0.027 0 0.247333 0 0 0.247333 0.0018 0 0.247333 0.0036 0 0.247333 0.0054 0 0.247333 0.0072 0 0.247333 0.009 0 0.247333 0.0108 0 0.247333 0.0126 0 0.247333 0.0144 0 0.247333 0.0162 0 0.247333 0.018 0 0.247333 0.0198 0 0.247333 0.0216 0 0.247333 0.0234 0 0.247333 0.0252 0 0.247333 0.027 0 0.248467 0 0 0.248467 0.0018 0 0.248467 0.0036 0 0.248467 0.0054 0 0.248467 0.0072 0 0.248467 0.009 0 0.248467 0.0108 0 0.248467 0.0126 0 0.248467 0.0144 0 0.248467 0.0162 0 0.248467 0.018 0 0.248467 0.0198 0 0.248467 0.0216 0 0.248467 0.0234 0 0.248467 0.0252 0 0.248467 0.027 0 0.2496 0 0 0.2496 0.0018 0 0.2496 0.0036 0 0.2496 0.0054 0 0.2496 0.0072 0 0.2496 0.009 0 0.2496 0.0108 0 0.2496 0.0126 0 0.2496 0.0144 0 0.2496 0.0162 0 0.2496 0.018 0 0.2496 0.0198 0 0.2496 0.0216 0 0.2496 0.0234 0 0.2496 0.0252 0 0.2496 0.027 0 0.250733 0 0 0.250733 0.0018 0 0.250733 0.0036 0 0.250733 0.0054 0 0.250733 0.0072 0 0.250733 0.009 0 0.250733 0.0108 0 0.250733 0.0126 0 0.250733 0.0144 0 0.250733 0.0162 0 0.250733 0.018 0 0.250733 0.0198 0 0.250733 0.0216 0 0.250733 0.0234 0 0.250733 0.0252 0 0.250733 0.027 0 0.251867 0 0 0.251867 0.0018 0 0.251867 0.0036 0 0.251867 0.0054 0 0.251867 0.0072 0 0.251867 0.009 0 0.251867 0.0108 0 0.251867 0.0126 0 0.251867 0.0144 0 0.251867 0.0162 0 0.251867 0.018 0 0.251867 0.0198 0 0.251867 0.0216 0 0.251867 0.0234 0 0.251867 0.0252 0 0.251867 0.027 0 0.253 0 0 0.253 0.0018 0 0.253 0.0036 0 0.253 0.0054 0 0.253 0.0072 0 0.253 0.009 0 0.253 0.0108 0 0.253 0.0126 0 0.253 0.0144 0 0.253 0.0162 0 0.253 0.018 0 0.253 0.0198 0 0.253 0.0216 0 0.253 0.0234 0 0.253 0.0252 0 0.253 0.027 0 
</DataArray>
</Points> 
</Piece> 
</StructuredGrid> 
</VTKFile> 
