<?xml version="1.0"?> 
<VTKFile type="StructuredGrid" version="0.1"> 
<StructuredGrid WholeExtent="0 15 0 15 0 0"> 
<Piece Extent="0 15 0 15 0 0"> 
<PointData>
<DataArray type="Float32" Name="E" format="ascii" NumberOfComponents="3"> 
-150768 3.72529e-09 0 -128114 -1.80535e-10 0 -123465 1.12777e-09 0 -122257 -7.60338e-10 0 -122516 -1.16415e-10 0 -124217 1.30967e-10 0 -127177 -1.17871e-09 0 -131571 2.91038e-10 0 -137687 7.27596e-10 0 -145845 -1.68802e-09 0 -157095 2.50293e-09 0 -171937 -2.32831e-09 0 -194291 1.57161e-09 0 -226196 -6.98492e-10 0 -290903 9.31323e-10 0 -548399 3.72529e-09 0 -126472 12164.5 0 -124749 5431.79 0 -122331 2150.44 0 -121417 332.196 0 -121892 -1039.44 0 -123565 -2302.6 0 -126477 -3619.08 0 -130745 -5132.81 0 -136615 -6972.42 0 -144508 -9366.39 0 -154988 -12612.6 0 -169183 -17399 0 -188448 -25036.3 0 -216196 -39043.5 0 -254866 -71126.5 0 -281693 -147903 0 -120401 12366 0 -120121 7005.88 0 -119457 3197.64 0 -119326 290.983 0 -120041 -2172.98 0 -121717 -4538.03 0 -124434 -7054.08 0 -128328 -9933.77 0 -133600 -13434.9 0 -140531 -17887.2 0 -149519 -23840.9 0 -161016 -32177.3 0 -175541 -44595.5 0 -192765 -64247.3 0 -209451 -95978.3 0 -213848 -145789 0 -115503 11408 0 -115821 7227.55 0 -115962 3297.39 0 -116340 -161.824 0 -117241 -3384.81 0 -118831 -6624.69 0 -121228 -10123.6 0 -124550 -14138.1 0 -128935 -18960.7 0 -134537 -24989.1 0 -141498 -32769.3 0 -149857 -43146 0 -159318 -57335.4 0 -168676 -76973.5 0 -174902 -103583 0 -173023 -133850 0 -111167 11084.8 0 -111720 6856.64 0 -112201 2919.71 0 -112813 -853.357 0 -113746 -4579.74 0 -115139 -8450.38 0 -117099 -12688.7 0 -119712 -17544.2 0 -123053 -23316.4 0 -127170 -30371.2 0 -132034 -39188.8 0 -137459 -50366.1 0 -142904 -64622.7 0 -147270 -82586.6 0 -148664 -104150 0 -144926 -128922 0 -107065 10297.9 0 -107700 6313.36 0 -108299 2343.52 0 -108957 -1600.84 0 -109785 -5633.48 0 -110879 -9914.76 0 -112314 -14642.2 0 -114142 -20048.7 0 -116387 -26402.8 0 -119028 -34020.8 0 -121961 -43260.4 0 -124929 -54513.2 0 -127454 -68117.6 0 -128722 -84207.5 0 -127714 -102490 0 -123505 -121464 0 -103037 9644.08 0 -103730 5677.5 0 -104341 1737.41 0 -104928 -2268.84 0 -105554 -6445.5 0 -106275 -10937.7 0 -107133 -15924.1 0 -108147 -21612.1 0 -109311 -28236.2 0 -110572 -36051 0 -111808 -45319.3 0 -112801 -56272 0 -113187 -69047.2 0 -112485 -83578 0 -110115 -99448.5 0 -105596 -116112 0 -99145.1 8858.26 0 -99843.2 5041.94 0 -100408 1187.18 0 -100860 -2772.99 0 -101226 -6947.3 0 -101531 -11471.8 0 -101789 -16508.7 0 -101997 -22243.8 0 -102127 -28879.5 0 -102121 -36625.4 0 -101879 -45676.2 0 -101245 -56177.5 0 -100012 -68167.3 0 -97909.6 -81510 0 -94694.5 -95845.5 0 -90201.4 -110506 0 -95388.9 8082.75 0 -96094.1 4424.92 0 -96588.9 739.298 0 -96875.1 -3068.02 0 -96956.2 -7103.76 0 -96831.6 -11497.2 0 -96492.8 -16398.5 0 -95918.1 -21976.2 0 -95070.6 -28411.1 0 -93897.4 -35886.2 0 -92328.7 -44566.1 0 -90287.8 -54564 0 -87690.6 -65894.7 0 -84478 -78419.2 0 -80597.3 -91803.3 0 -76027.1 -105523 0 -91843.7 7241.6 0 -92555.9 3842.19 0 -92978.6 408.501 0 -93095.6 -3138.41 0 -92890.6 -6906.11 0 -92344.2 -11018 0 -91429.5 -15614.4 0 -90109.4 -20851.8 0 -88338.3 -26899.8 0 -86066.3 -33934 0 -83253 -42121.5 0 -79883.2 -51591.9 0 -76000.1 -62394.8 0 -71705.4 -74436 0 -67181.6 -87404.2 0 -62618.4 -100870 0 -88571.2 6385.11 0 -89306.7 3278.18 0 -89674.2 189.218 0 -89637.4 -2991.03 0 -89165 -6367.26 0 -88223.3 -10057.2 0 -86769.6 -14191.8 0 -84751.1 -18918.2 0 -82107.5 -24400.8 0 -78782 -30823.3 0 -74740.2 -38379.9 0 -70010.1 -47264.3 0 -64722.4 -57622.1 0 -59179 -69472.5 0 -53806.4 -82600.8 0 -49032.5 -96196.1 0 -85620 5388.14 0 -86428.8 2713.54 0 -86775.5 57.0834 0 -86613.8 -2649.5 0 -85907.2 -5516.96 0 -84612.4 -8654.53 0 -82673.3 -12180.8 0 -80017.8 -16230.9 0 -76562.5 -20965.5 0 -72222.2 -26577 0 -66937 -33306.5 0 -60716.1 -41441.3 0 -53740.9 -51313.8 0 -46470.4 -63198.4 0 -39770.6 -77005.1 0 -34676.2 -92497.6 0 -83066.5 4371.77 0 -84015.2 2083.19 0 -84386 -20.7616 0 -84134.3 -2147.63 0 -83234.8 -4398.34 0 -81643.2 -6866.14 0 -79290.8 -9649.76 0 -76083.8 -12865.9 0 -71905 -16659.1 0 -66619.8 -21225.3 0 -60092 -26831.2 0 -52232.1 -33880.8 0 -43113.5 -42950.5 0 -33254.5 -54813.2 0 -24064.4 -70189.6 0 -17922.8 -87500.1 0 -80982.8 2842.12 0 -82197.5 1351.54 0 -82619.3 -75.8602 0 -82299.3 -1519.93 0 -81249.9 -3063.65 0 -79430.8 -4764.86 0 -76758.8 -6691.9 0 -73118.2 -8929.89 0 -68352.9 -11595.8 0 -62266.1 -14848.8 0 -54601 -18952.9 0 -45074 -24330.3 0 -33371.1 -31792.4 0 -19588.8 -42848.1 0 -5222.36 -59829 0 4137.18 -85649.1 0 -79405.4 909.22 0 -81224.2 474.341 0 -81585.2 -85.2845 0 -81179.4 -793.036 0 -80031.4 -1573.85 0 -78064.5 -2440.81 0 -75190.1 -3426.22 0 -71267.9 -4577.43 0 -66118.3 -5953.15 0 -59471.6 -7659.78 0 -50992.9 -9840.94 0 -40075.2 -12825.3 0 -26004.4 -17240.7 0 -7081.63 -24773.3 0 17933.7 -41032.4 0 38278 -78799.9 0 -83830.4 0 0 -81213.1 0 0 -81240.6 0 0 -80821.9 0 0 -79613.4 0 0 -77606.4 0 0 -74654.9 0 0 -70643.9 0 0 -65340.5 0 0 -58534.5 0 0 -49654.3 0 0 -38393.4 0 0 -22811.9 0 0 -1861.38 0 0 35644.3 0 0 166175 0 0 </DataArray> 
</PointData> 
<Points> 
<DataArray type="Float32" NumberOfComponents="3"> 
0.406 0.02 0 0.406 0.0206667 0 0.406 0.0213333 0 0.406 0.022 0 0.406 0.0226667 0 0.406 0.0233333 0 0.406 0.024 0 0.406 0.0246667 0 0.406 0.0253333 0 0.406 0.026 0 0.406 0.0266667 0 0.406 0.0273333 0 0.406 0.028 0 0.406 0.0286667 0 0.406 0.0293333 0 0.406 0.03 0 0.406667 0.02 0 0.406667 0.0206667 0 0.406667 0.0213333 0 0.406667 0.022 0 0.406667 0.0226667 0 0.406667 0.0233333 0 0.406667 0.024 0 0.406667 0.0246667 0 0.406667 0.0253333 0 0.406667 0.026 0 0.406667 0.0266667 0 0.406667 0.0273333 0 0.406667 0.028 0 0.406667 0.0286667 0 0.406667 0.0293333 0 0.406667 0.03 0 0.407333 0.02 0 0.407333 0.0206667 0 0.407333 0.0213333 0 0.407333 0.022 0 0.407333 0.0226667 0 0.407333 0.0233333 0 0.407333 0.024 0 0.407333 0.0246667 0 0.407333 0.0253333 0 0.407333 0.026 0 0.407333 0.0266667 0 0.407333 0.0273333 0 0.407333 0.028 0 0.407333 0.0286667 0 0.407333 0.0293333 0 0.407333 0.03 0 0.408 0.02 0 0.408 0.0206667 0 0.408 0.0213333 0 0.408 0.022 0 0.408 0.0226667 0 0.408 0.0233333 0 0.408 0.024 0 0.408 0.0246667 0 0.408 0.0253333 0 0.408 0.026 0 0.408 0.0266667 0 0.408 0.0273333 0 0.408 0.028 0 0.408 0.0286667 0 0.408 0.0293333 0 0.408 0.03 0 0.408667 0.02 0 0.408667 0.0206667 0 0.408667 0.0213333 0 0.408667 0.022 0 0.408667 0.0226667 0 0.408667 0.0233333 0 0.408667 0.024 0 0.408667 0.0246667 0 0.408667 0.0253333 0 0.408667 0.026 0 0.408667 0.0266667 0 0.408667 0.0273333 0 0.408667 0.028 0 0.408667 0.0286667 0 0.408667 0.0293333 0 0.408667 0.03 0 0.409333 0.02 0 0.409333 0.0206667 0 0.409333 0.0213333 0 0.409333 0.022 0 0.409333 0.0226667 0 0.409333 0.0233333 0 0.409333 0.024 0 0.409333 0.0246667 0 0.409333 0.0253333 0 0.409333 0.026 0 0.409333 0.0266667 0 0.409333 0.0273333 0 0.409333 0.028 0 0.409333 0.0286667 0 0.409333 0.0293333 0 0.409333 0.03 0 0.41 0.02 0 0.41 0.0206667 0 0.41 0.0213333 0 0.41 0.022 0 0.41 0.0226667 0 0.41 0.0233333 0 0.41 0.024 0 0.41 0.0246667 0 0.41 0.0253333 0 0.41 0.026 0 0.41 0.0266667 0 0.41 0.0273333 0 0.41 0.028 0 0.41 0.0286667 0 0.41 0.0293333 0 0.41 0.03 0 0.410667 0.02 0 0.410667 0.0206667 0 0.410667 0.0213333 0 0.410667 0.022 0 0.410667 0.0226667 0 0.410667 0.0233333 0 0.410667 0.024 0 0.410667 0.0246667 0 0.410667 0.0253333 0 0.410667 0.026 0 0.410667 0.0266667 0 0.410667 0.0273333 0 0.410667 0.028 0 0.410667 0.0286667 0 0.410667 0.0293333 0 0.410667 0.03 0 0.411333 0.02 0 0.411333 0.0206667 0 0.411333 0.0213333 0 0.411333 0.022 0 0.411333 0.0226667 0 0.411333 0.0233333 0 0.411333 0.024 0 0.411333 0.0246667 0 0.411333 0.0253333 0 0.411333 0.026 0 0.411333 0.0266667 0 0.411333 0.0273333 0 0.411333 0.028 0 0.411333 0.0286667 0 0.411333 0.0293333 0 0.411333 0.03 0 0.412 0.02 0 0.412 0.0206667 0 0.412 0.0213333 0 0.412 0.022 0 0.412 0.0226667 0 0.412 0.0233333 0 0.412 0.024 0 0.412 0.0246667 0 0.412 0.0253333 0 0.412 0.026 0 0.412 0.0266667 0 0.412 0.0273333 0 0.412 0.028 0 0.412 0.0286667 0 0.412 0.0293333 0 0.412 0.03 0 0.412667 0.02 0 0.412667 0.0206667 0 0.412667 0.0213333 0 0.412667 0.022 0 0.412667 0.0226667 0 0.412667 0.0233333 0 0.412667 0.024 0 0.412667 0.0246667 0 0.412667 0.0253333 0 0.412667 0.026 0 0.412667 0.0266667 0 0.412667 0.0273333 0 0.412667 0.028 0 0.412667 0.0286667 0 0.412667 0.0293333 0 0.412667 0.03 0 0.413333 0.02 0 0.413333 0.0206667 0 0.413333 0.0213333 0 0.413333 0.022 0 0.413333 0.0226667 0 0.413333 0.0233333 0 0.413333 0.024 0 0.413333 0.0246667 0 0.413333 0.0253333 0 0.413333 0.026 0 0.413333 0.0266667 0 0.413333 0.0273333 0 0.413333 0.028 0 0.413333 0.0286667 0 0.413333 0.0293333 0 0.413333 0.03 0 0.414 0.02 0 0.414 0.0206667 0 0.414 0.0213333 0 0.414 0.022 0 0.414 0.0226667 0 0.414 0.0233333 0 0.414 0.024 0 0.414 0.0246667 0 0.414 0.0253333 0 0.414 0.026 0 0.414 0.0266667 0 0.414 0.0273333 0 0.414 0.028 0 0.414 0.0286667 0 0.414 0.0293333 0 0.414 0.03 0 0.414667 0.02 0 0.414667 0.0206667 0 0.414667 0.0213333 0 0.414667 0.022 0 0.414667 0.0226667 0 0.414667 0.0233333 0 0.414667 0.024 0 0.414667 0.0246667 0 0.414667 0.0253333 0 0.414667 0.026 0 0.414667 0.0266667 0 0.414667 0.0273333 0 0.414667 0.028 0 0.414667 0.0286667 0 0.414667 0.0293333 0 0.414667 0.03 0 0.415333 0.02 0 0.415333 0.0206667 0 0.415333 0.0213333 0 0.415333 0.022 0 0.415333 0.0226667 0 0.415333 0.0233333 0 0.415333 0.024 0 0.415333 0.0246667 0 0.415333 0.0253333 0 0.415333 0.026 0 0.415333 0.0266667 0 0.415333 0.0273333 0 0.415333 0.028 0 0.415333 0.0286667 0 0.415333 0.0293333 0 0.415333 0.03 0 0.416 0.02 0 0.416 0.0206667 0 0.416 0.0213333 0 0.416 0.022 0 0.416 0.0226667 0 0.416 0.0233333 0 0.416 0.024 0 0.416 0.0246667 0 0.416 0.0253333 0 0.416 0.026 0 0.416 0.0266667 0 0.416 0.0273333 0 0.416 0.028 0 0.416 0.0286667 0 0.416 0.0293333 0 0.416 0.03 0 
</DataArray>
</Points> 
</Piece> 
</StructuredGrid> 
</VTKFile> 
