<?xml version="1.0"?> 
<VTKFile type="StructuredGrid" version="0.1"> 
<StructuredGrid WholeExtent="0 15 0 15 0 0"> 
<Piece Extent="0 15 0 15 0 0"> 
<PointData>
<DataArray type="Float32" Name="E" format="ascii" NumberOfComponents="3"> 
3.07642e+06 -1.26168e+06 0 3.17446e+06 -1.30188e+06 0 3.2687e+06 -1.34053e+06 0 3.36201e+06 -1.3788e+06 0 3.4564e+06 -1.41751e+06 0 3.55342e+06 -1.4573e+06 0 3.65455e+06 -1.49877e+06 0 3.76132e+06 -1.54256e+06 0 3.87553e+06 -1.5894e+06 0 3.99942e+06 -1.64021e+06 0 4.13614e+06 -1.69628e+06 0 4.29076e+06 -1.75969e+06 0 4.47277e+06 -1.83434e+06 0 4.70197e+06 -1.92834e+06 0 5.02109e+06 -2.05921e+06 0 5.5214e+06 -2.2644e+06 0 3.39526e+06 -996563 0 3.46654e+06 -1.0353e+06 0 3.54329e+06 -1.07113e+06 0 3.6256e+06 -1.10388e+06 0 3.71394e+06 -1.1333e+06 0 3.80904e+06 -1.15901e+06 0 3.91189e+06 -1.18036e+06 0 4.02373e+06 -1.19626e+06 0 4.14596e+06 -1.20503e+06 0 4.28012e+06 -1.20403e+06 0 4.42762e+06 -1.18932e+06 0 4.58922e+06 -1.1552e+06 0 4.76409e+06 -1.09407e+06 0 4.94788e+06 -997305 0 5.12945e+06 -858634 0 5.28514e+06 -682068 0 3.62499e+06 -733720 0 3.68321e+06 -762127 0 3.74743e+06 -785974 0 3.81779e+06 -804447 0 3.89436e+06 -816497 0 3.97713e+06 -820826 0 4.06589e+06 -815830 0 4.16012e+06 -799563 0 4.25875e+06 -769767 0 4.35992e+06 -724028 0 4.46069e+06 -660152 0 4.55689e+06 -576825 0 4.64318e+06 -474456 0 4.71378e+06 -355610 0 4.76392e+06 -223420 0 4.79241e+06 -74584.5 0 3.7591e+06 -482543 0 3.80487e+06 -498796 0 3.8555e+06 -509884 0 3.91066e+06 -514609 0 3.96983e+06 -511700 0 4.03216e+06 -499843 0 4.0964e+06 -477742 0 4.1609e+06 -444235 0 4.22347e+06 -398478 0 4.28151e+06 -340180 0 4.3321e+06 -269805 0 4.37233e+06 -188644 0 4.39968e+06 -98615.2 0 4.41234e+06 -1964.5 0 4.40926e+06 98042.3 0 4.38976e+06 192548 0 3.80455e+06 -269757 0 3.83899e+06 -276417 0 3.87636e+06 -278044 0 3.91607e+06 -273659 0 3.95724e+06 -262294 0 3.99872e+06 -243093 0 4.03906e+06 -215417 0 4.07655e+06 -178964 0 4.10924e+06 -133877 0 4.13514e+06 -80816.2 0 4.15239e+06 -20992.6 0 4.15948e+06 43834.9 0 4.15542e+06 111339 0 4.13987e+06 178624 0 4.11326e+06 242858 0 4.07691e+06 304964 0 3.78853e+06 -113551 0 3.81313e+06 -113027 0 3.83896e+06 -108482 0 3.86537e+06 -99150 0 3.89146e+06 -84412.2 0 3.91611e+06 -63842.1 0 3.93799e+06 -37272.9 0 3.95567e+06 -4865.71 0 3.96776e+06 32819.8 0 3.97306e+06 74782 0 3.97059e+06 119603 0 3.95975e+06 165573 0 3.94037e+06 210947 0 3.91271e+06 254291 0 3.87742e+06 294540 0 3.8353e+06 328966 0 3.7389e+06 -14995.4 0 3.75522e+06 -9659.06 0 3.77167e+06 -1485.55 0 3.78753e+06 9990.76 0 3.80196e+06 25123.2 0 3.81403e+06 44091.1 0 3.82277e+06 66792 0 3.82722e+06 92780.9 0 3.82643e+06 121291 0 3.81959e+06 151326 0 3.80618e+06 181769 0 3.78606e+06 211442 0 3.75952e+06 239110 0 3.72715e+06 263403 0 3.68982e+06 282852 0 3.64858e+06 297180 0 3.67711e+06 31771.4 0 3.68617e+06 40073 0 3.69468e+06 50183.1 0 3.70212e+06 62347.4 0 3.70782e+06 76573.6 0 3.711e+06 92691.7 0 3.7108e+06 110401 0 3.70644e+06 129306 0 3.69735e+06 148869 0 3.68328e+06 168327 0 3.66425e+06 186637 0 3.64042e+06 202577 0 3.61209e+06 214985 0 3.5797e+06 223054 0 3.54386e+06 226528 0 3.50532e+06 224982 0 3.61761e+06 35186.3 0 3.62028e+06 45155.1 0 3.62224e+06 55670.9 0 3.62286e+06 66829 0 3.62152e+06 78711.3 0 3.6177e+06 91313.3 0 3.61098e+06 104358 0 3.60104e+06 117193 0 3.58756e+06 128867 0 3.57025e+06 138385 0 3.54891e+06 144980 0 3.52368e+06 148234 0 3.49508e+06 147937 0 3.46398e+06 143779 0 3.43133e+06 135105 0 3.39799e+06 121164 0 3.57227e+06 -192.033 0 3.56816e+06 9664.08 0 3.56343e+06 19930.7 0 3.55782e+06 30351 0 3.55093e+06 40325.1 0 3.54225e+06 49132.6 0 3.53117e+06 56167.7 0 3.51719e+06 61123.5 0 3.50011e+06 63966.3 0 3.48013e+06 64666.4 0 3.45777e+06 62838 0 3.43367e+06 57551.3 0 3.40829e+06 47498.8 0 3.38183e+06 31490 0 3.35433e+06 9023.7 0 3.32594e+06 -19663.4 0 3.55101e+06 -67713.3 0 3.5405e+06 -59340.7 0 3.52979e+06 -52381.4 0 3.51829e+06 -46754 0 3.50557e+06 -42209 0 3.49143e+06 -38510.3 0 3.47591e+06 -35790.7 0 3.45916e+06 -34816.9 0 3.44125e+06 -36981.9 0 3.42206e+06 -43940.5 0 3.40129e+06 -57006.5 0 3.37873e+06 -76612.9 0 3.35453e+06 -102158 0 3.32939e+06 -132378 0 3.30448e+06 -166079 0 3.28112e+06 -202936 0 3.56949e+06 -181497 0 3.54994e+06 -175118 0 3.53092e+06 -168756 0 3.51243e+06 -163445 0 3.49427e+06 -160660 0 3.47605e+06 -161946 0 3.45726e+06 -168484 0 3.43739e+06 -180702 0 3.41627e+06 -198113 0 3.39418e+06 -219560 0 3.37192e+06 -243814 0 3.35057e+06 -270326 0 3.3311e+06 -299770 0 3.31393e+06 -334089 0 3.29871e+06 -375956 0 3.28446e+06 -428022 0 3.64551e+06 -332049 0 3.61674e+06 -335357 0 3.58935e+06 -341894 0 3.56283e+06 -351149 0 3.53693e+06 -362365 0 3.51166e+06 -374758 0 3.48731e+06 -387940 0 3.46427e+06 -402337 0 3.44283e+06 -419447 0 3.42297e+06 -441777 0 3.40423e+06 -472389 0 3.38583e+06 -514140 0 3.36697e+06 -568842 0 3.34727e+06 -636631 0 3.32712e+06 -715719 0 3.30791e+06 -802780 0 3.81414e+06 -598561 0 3.77388e+06 -600210 0 3.73455e+06 -603750 0 3.69652e+06 -610693 0 3.65997e+06 -623061 0 3.62491e+06 -643088 0 3.59123e+06 -672899 0 3.55887e+06 -714109 0 3.52797e+06 -767477 0 3.499e+06 -832714 0 3.47289e+06 -908538 0 3.45091e+06 -993002 0 3.43438e+06 -1.08405e+06 0 3.42426e+06 -1.18025e+06 0 3.42062e+06 -1.28158e+06 0 3.42205e+06 -1.39106e+06 0 4.11658e+06 -885877 0 4.06977e+06 -937521 0 4.02794e+06 -993019 0 3.99128e+06 -1.05371e+06 0 3.95984e+06 -1.12103e+06 0 3.93331e+06 -1.19642e+06 0 3.91082e+06 -1.28132e+06 0 3.89082e+06 -1.37709e+06 0 3.87086e+06 -1.48503e+06 0 3.84762e+06 -1.60631e+06 0 3.81687e+06 -1.74192e+06 0 3.77371e+06 -1.89259e+06 0 3.71279e+06 -2.05856e+06 0 3.62882e+06 -2.23908e+06 0 3.51707e+06 -2.43093e+06 0 3.37434e+06 -2.62309e+06 0 5.3607e+06 -1.39698e-08 0 5.67387e+06 -546855 0 5.85163e+06 -1.1594e+06 0 5.89409e+06 -1.81172e+06 0 5.80374e+06 -2.47782e+06 0 5.5863e+06 -3.13202e+06 0 5.2512e+06 -3.74959e+06 0 4.81169e+06 -4.30766e+06 0 4.28461e+06 -4.78595e+06 0 3.68964e+06 -5.16724e+06 0 3.04829e+06 -5.43697e+06 0 2.38276e+06 -5.58108e+06 0 1.71506e+06 -5.57964e+06 0 1.0677e+06 -5.38884e+06 0 470227 -4.87882e+06 0 4.16301e-07 -3.49396e+06 0 </DataArray> 
</PointData> 
<Points> 
<DataArray type="Float32" NumberOfComponents="3"> 
0.3115 0.02 0 0.311987 0.0211867 0 0.312473 0.0223733 0 0.31296 0.02356 0 0.313447 0.0247467 0 0.313933 0.0259333 0 0.31442 0.02712 0 0.314907 0.0283067 0 0.315393 0.0294933 0 0.31588 0.03068 0 0.316367 0.0318667 0 0.316853 0.0330533 0 0.31734 0.03424 0 0.317827 0.0354267 0 0.318313 0.0366133 0 0.3188 0.0378 0 0.316933 0.0203333 0 0.317205 0.0214631 0 0.317507 0.022598 0 0.31784 0.0237369 0 0.318203 0.0248785 0 0.318596 0.0260218 0 0.319019 0.0271654 0 0.319471 0.0283083 0 0.319952 0.0294492 0 0.320461 0.0305868 0 0.320999 0.0317201 0 0.321563 0.0328478 0 0.322155 0.0339688 0 0.322772 0.0350819 0 0.323414 0.036186 0 0.32408 0.03728 0 0.322367 0.0206667 0 0.322449 0.0217409 0 0.322587 0.0228247 0 0.322781 0.023916 0 0.323033 0.0250124 0 0.323341 0.0261118 0 0.323705 0.0272117 0 0.324125 0.02831 0 0.324601 0.0294041 0 0.32513 0.0304919 0 0.325713 0.031571 0 0.326347 0.0326391 0 0.32703 0.0336942 0 0.327762 0.034734 0 0.328539 0.0357566 0 0.32936 0.03676 0 0.3278 0.021 0 0.327718 0.0220201 0 0.327713 0.0230535 0 0.327786 0.0240974 0 0.327938 0.0251484 0 0.32817 0.0262034 0 0.328482 0.0272589 0 0.328873 0.0283117 0 0.329343 0.0293582 0 0.329889 0.0303951 0 0.330511 0.0314192 0 0.331205 0.0324272 0 0.331968 0.033416 0 0.332797 0.0343829 0 0.333689 0.035325 0 0.33464 0.03624 0 0.333233 0.0213333 0 0.333013 0.0223006 0 0.332886 0.0232844 0 0.332854 0.0242811 0 0.33292 0.0252865 0 0.333086 0.0262966 0 0.333352 0.027307 0 0.333717 0.0283134 0 0.334181 0.0293113 0 0.334741 0.0302964 0 0.335395 0.0312646 0 0.336139 0.0322119 0 0.336969 0.0331343 0 0.337879 0.0340286 0 0.338865 0.0348914 0 0.33992 0.03572 0 0.338667 0.0216667 0 0.338334 0.0225825 0 0.338107 0.0235174 0 0.337988 0.0244671 0 0.337982 0.0254269 0 0.338092 0.0263916 0 0.338317 0.0273561 0 0.33866 0.0283152 0 0.339118 0.0292635 0 0.339688 0.0301958 0 0.340368 0.0311073 0 0.341152 0.0319931 0 0.342034 0.032849 0 0.343008 0.033671 0 0.344066 0.0344556 0 0.3452 0.0352 0 0.3441 0.022 0 0.343682 0.0228658 0 0.343376 0.0237526 0 0.343189 0.0246556 0 0.343125 0.0255694 0 0.343189 0.0264883 0 0.343382 0.0274061 0 0.343705 0.028317 0 0.344156 0.0292146 0 0.344734 0.0300932 0 0.345432 0.0309471 0 0.346245 0.0317709 0 0.347166 0.03256 0 0.348185 0.0333101 0 0.349293 0.0340177 0 0.35048 0.03468 0 0.349533 0.0223333 0 0.349056 0.0231505 0 0.348694 0.02399 0 0.348457 0.0248466 0 0.348351 0.0257143 0 0.34838 0.0265867 0 0.348548 0.0274572 0 0.348855 0.0283188 0 0.3493 0.0291648 0 0.34988 0.0299886 0 0.35059 0.0307839 0 0.35142 0.0315451 0 0.352364 0.0322672 0 0.35341 0.0329458 0 0.354546 0.0335776 0 0.35576 0.03416 0 0.354967 0.0226667 0 0.354456 0.0234366 0 0.354063 0.0242296 0 0.353795 0.0250401 0 0.353661 0.0258615 0 0.353668 0.026687 0 0.353818 0.0275092 0 0.354113 0.0283207 0 0.354552 0.0291139 0 0.355131 0.0298818 0 0.355843 0.0306177 0 0.35668 0.0313156 0 0.357631 0.0319705 0 0.358683 0.0325781 0 0.359824 0.0331353 0 0.36104 0.03364 0 0.3604 0.023 0 0.359884 0.0237241 0 0.359481 0.0244715 0 0.359203 0.0252361 0 0.359059 0.0260112 0 0.359055 0.0267892 0 0.359197 0.0275624 0 0.359484 0.0283226 0 0.359917 0.0290619 0 0.36049 0.0297728 0 0.361196 0.0304484 0 0.362026 0.0310824 0 0.362967 0.0316699 0 0.364006 0.032207 0 0.365129 0.0326908 0 0.36632 0.03312 0 0.365833 0.0233333 0 0.365338 0.024013 0 0.364951 0.0247156 0 0.364684 0.0254347 0 0.364546 0.0261633 0 0.364545 0.0268934 0 0.364686 0.0276166 0 0.36497 0.0283246 0 0.365396 0.0290088 0 0.365959 0.0296616 0 0.36665 0.0302758 0 0.36746 0.0308453 0 0.368375 0.0313653 0 0.36938 0.0318323 0 0.37046 0.0322442 0 0.3716 0.0326 0 0.371267 0.0236667 0 0.37082 0.0243034 0 0.370473 0.0249621 0 0.370238 0.0256361 0 0.370125 0.0263179 0 0.370141 0.0269995 0 0.370291 0.027672 0 0.370576 0.0283266 0 0.370995 0.0289546 0 0.371542 0.0295481 0 0.372209 0.0300999 0 0.372985 0.0306042 0 0.373855 0.0310566 0 0.374805 0.0314541 0 0.375818 0.0317952 0 0.37688 0.03208 0 0.3767 0.024 0 0.376329 0.0245953 0 0.376048 0.0252109 0 0.375867 0.0258401 0 0.375797 0.0264752 0 0.375845 0.0271077 0 0.376014 0.0277285 0 0.376305 0.0283286 0 0.376717 0.0288992 0 0.377244 0.0294321 0 0.377876 0.0299206 0 0.378602 0.0303591 0 0.379409 0.0307438 0 0.380281 0.0310723 0 0.381203 0.0313441 0 0.38216 0.03156 0 0.382133 0.0243333 0 0.381866 0.0248886 0 0.381676 0.0254621 0 0.381573 0.0260469 0 0.381566 0.0266351 0 0.38166 0.027218 0 0.381858 0.0277863 0 0.382162 0.0283307 0 0.382567 0.0288425 0 0.383067 0.0293137 0 0.383654 0.0297378 0 0.384315 0.0301099 0 0.385039 0.0304267 0 0.38581 0.0306868 0 0.386615 0.0308907 0 0.38744 0.03104 0 0.387567 0.0246667 0 0.38743 0.0251834 0 0.387358 0.0257157 0 0.387357 0.0262565 0 0.387433 0.0267978 0 0.38759 0.0273305 0 0.38783 0.0278453 0 0.38815 0.0283328 0 0.388548 0.0287845 0 0.389016 0.0291927 0 0.389545 0.0295514 0 0.390126 0.0298563 0 0.390745 0.0301052 0 0.391392 0.0302976 0 0.392054 0.0304349 0 0.39272 0.03052 0 0.393 0.025 0 0.393023 0.0254797 0 0.393095 0.0259718 0 0.393221 0.0264691 0 0.393402 0.0269632 0 0.393639 0.0274452 0 0.393931 0.0279055 0 0.394275 0.028335 0 0.394665 0.0287253 0 0.395094 0.0290691 0 0.395555 0.0293613 0 0.396037 0.0295984 0 0.396531 0.0297793 0 0.397028 0.0299047 0 0.39752 0.0299769 0 0.398 0.03 0 
</DataArray>
</Points> 
</Piece> 
</StructuredGrid> 
</VTKFile> 
