<?xml version="1.0"?> 
<VTKFile type="StructuredGrid" version="0.1"> 
<StructuredGrid WholeExtent="0 63 0 63 0 0"> 
<Piece Extent="0 63 0 63 0 0"> 
<PointData>
<DataArray type="Float32" Name="|E|" format="ascii" NumberOfComponents="3"> 
-2.0218e+06 0 0 -2.02181e+06 2598.01 0 -2.02186e+06 5196.17 0 -2.02193e+06 7794.57 0 -2.02203e+06 10393.3 0 -2.02216e+06 12992.5 0 -2.02232e+06 15592.2 0 -2.0225e+06 18192.6 0 -2.02272e+06 20793.7 0 -2.02296e+06 23395.6 0 -2.02323e+06 25998.5 0 -2.02354e+06 28602.5 0 -2.02387e+06 31207.6 0 -2.02422e+06 33813.9 0 -2.02461e+06 36421.6 0 -2.02503e+06 39030.7 0 -2.02547e+06 41641.4 0 -2.02595e+06 44253.7 0 -2.02645e+06 46867.8 0 -2.02698e+06 49483.8 0 -2.02754e+06 52101.7 0 -2.02813e+06 54721.7 0 -2.02875e+06 57343.9 0 -2.02939e+06 59968.3 0 -2.03007e+06 62595.1 0 -2.03077e+06 65224.4 0 -2.03151e+06 67856.3 0 -2.03227e+06 70490.9 0 -2.03306e+06 73128.3 0 -2.03388e+06 75768.5 0 -2.03473e+06 78411.8 0 -2.03561e+06 81058.2 0 -2.03651e+06 83707.9 0 -2.03745e+06 86360.8 0 -2.03841e+06 89017.3 0 -2.03941e+06 91677.2 0 -2.04043e+06 94340.8 0 -2.04148e+06 97008.2 0 -2.04256e+06 99679.5 0 -2.04368e+06 102355 0 -2.04482e+06 105034 0 -2.04598e+06 107718 0 -2.04718e+06 110406 0 -2.04841e+06 113098 0 -2.04967e+06 115795 0 -2.05095e+06 118497 0 -2.05227e+06 121203 0 -2.05362e+06 123914 0 -2.05499e+06 126631 0 -2.0564e+06 129352 0 -2.05783e+06 132079 0 -2.05929e+06 134811 0 -2.06079e+06 137548 0 -2.06231e+06 140291 0 -2.06386e+06 143041 0 -2.06545e+06 145796 0 -2.06706e+06 148557 0 -2.0687e+06 151325 0 -2.07037e+06 154099 0 -2.07207e+06 156879 0 -2.07381e+06 159666 0 -2.07557e+06 162459 0 -2.07736e+06 165258 0 -2.07918e+06 168064 0 -2.01951e+06 0 0 -2.01953e+06 2841.74 0 -2.01958e+06 5683.66 0 -2.01967e+06 8525.87 0 -2.01978e+06 11368.5 0 -2.01993e+06 14211.7 0 -2.02012e+06 17055.5 0 -2.02034e+06 19900.2 0 -2.02059e+06 22745.8 0 -2.02088e+06 25592.4 0 -2.02119e+06 28440.2 0 -2.02155e+06 31289.3 0 -2.02193e+06 34139.8 0 -2.02235e+06 36991.9 0 -2.02281e+06 39845.6 0 -2.02329e+06 42701.2 0 -2.02381e+06 45558.7 0 -2.02437e+06 48418.2 0 -2.02496e+06 51280 0 -2.02558e+06 54144 0 -2.02623e+06 57010.5 0 -2.02692e+06 59879.6 0 -2.02765e+06 62751.4 0 -2.0284e+06 65626 0 -2.02919e+06 68503.6 0 -2.03002e+06 71384.3 0 -2.03088e+06 74268.2 0 -2.03177e+06 77155.4 0 -2.03269e+06 80046.2 0 -2.03365e+06 82940.6 0 -2.03465e+06 85838.7 0 -2.03568e+06 88740.8 0 -2.03674e+06 91646.8 0 -2.03783e+06 94557.1 0 -2.03896e+06 97471.6 0 -2.04013e+06 100391 0 -2.04133e+06 103314 0 -2.04256e+06 106242 0 -2.04383e+06 109176 0 -2.04513e+06 112114 0 -2.04646e+06 115057 0 -2.04783e+06 118005 0 -2.04924e+06 120959 0 -2.05068e+06 123919 0 -2.05215e+06 126884 0 -2.05366e+06 129855 0 -2.0552e+06 132832 0 -2.05678e+06 135816 0 -2.05839e+06 138805 0 -2.06003e+06 141801 0 -2.06172e+06 144804 0 -2.06343e+06 147814 0 -2.06518e+06 150830 0 -2.06697e+06 153853 0 -2.06879e+06 156884 0 -2.07064e+06 159922 0 -2.07253e+06 162968 0 -2.07446e+06 166021 0 -2.07642e+06 169082 0 -2.07842e+06 172150 0 -2.08045e+06 175227 0 -2.08252e+06 178311 0 -2.08462e+06 181405 0 -2.08676e+06 184507 0 -2.01721e+06 0 0 -2.01723e+06 3089.54 0 -2.01729e+06 6179.29 0 -2.01738e+06 9269.4 0 -2.01752e+06 12360 0 -2.01769e+06 15451.3 0 -2.01791e+06 18543.5 0 -2.01816e+06 21636.6 0 -2.01845e+06 24730.8 0 -2.01878e+06 27826.4 0 -2.01915e+06 30923.4 0 -2.01956e+06 34022 0 -2.02e+06 37122.4 0 -2.02049e+06 40224.7 0 -2.02101e+06 43329 0 -2.02158e+06 46435.6 0 -2.02218e+06 49544.6 0 -2.02282e+06 52656.2 0 -2.0235e+06 55770.4 0 -2.02422e+06 58887.5 0 -2.02498e+06 62007.7 0 -2.02578e+06 65131 0 -2.02661e+06 68257.7 0 -2.02749e+06 71387.9 0 -2.0284e+06 74521.8 0 -2.02936e+06 77659.5 0 -2.03035e+06 80801.2 0 -2.03138e+06 83947.1 0 -2.03245e+06 87097.4 0 -2.03356e+06 90252.1 0 -2.03471e+06 93411.5 0 -2.0359e+06 96575.7 0 -2.03713e+06 99744.9 0 -2.0384e+06 102919 0 -2.03971e+06 106099 0 -2.04106e+06 109284 0 -2.04244e+06 112475 0 -2.04387e+06 115672 0 -2.04534e+06 118875 0 -2.04684e+06 122084 0 -2.04839e+06 125300 0 -2.04998e+06 128522 0 -2.0516e+06 131751 0 -2.05327e+06 134986 0 -2.05497e+06 138229 0 -2.05672e+06 141480 0 -2.05851e+06 144737 0 -2.06033e+06 148003 0 -2.0622e+06 151276 0 -2.06411e+06 154557 0 -2.06605e+06 157847 0 -2.06804e+06 161145 0 -2.07007e+06 164452 0 -2.07214e+06 167767 0 -2.07425e+06 171092 0 -2.0764e+06 174425 0 -2.07859e+06 177769 0 -2.08083e+06 181121 0 -2.0831e+06 184484 0 -2.08541e+06 187857 0 -2.08777e+06 191241 0 -2.09017e+06 194636 0 -2.09261e+06 198041 0 -2.09509e+06 201459 0 -2.01488e+06 0 0 -2.0149e+06 3341.41 0 -2.01497e+06 6683.07 0 -2.01508e+06 10025.2 0 -2.01523e+06 13367.9 0 -2.01543e+06 16711.5 0 -2.01568e+06 20056 0 -2.01597e+06 23401.8 0 -2.0163e+06 26748.9 0 -2.01668e+06 30097.7 0 -2.0171e+06 33448.2 0 -2.01757e+06 36800.7 0 -2.01808e+06 40155.3 0 -2.01864e+06 43512.3 0 -2.01924e+06 46871.8 0 -2.01988e+06 50234 0 -2.02057e+06 53599.2 0 -2.0213e+06 56967.5 0 -2.02208e+06 60339.1 0 -2.02291e+06 63714.2 0 -2.02377e+06 67093.1 0 -2.02469e+06 70475.8 0 -2.02565e+06 73862.7 0 -2.02665e+06 77253.8 0 -2.0277e+06 80649.5 0 -2.02879e+06 84049.9 0 -2.02992e+06 87455.1 0 -2.03111e+06 90865.5 0 -2.03233e+06 94281.3 0 -2.03361e+06 97702.5 0 -2.03492e+06 101129 0 -2.03629e+06 104562 0 -2.03769e+06 108001 0 -2.03915e+06 111447 0 -2.04065e+06 114899 0 -2.04219e+06 118358 0 -2.04378e+06 121823 0 -2.04541e+06 125297 0 -2.04709e+06 128777 0 -2.04882e+06 132265 0 -2.05059e+06 135761 0 -2.05241e+06 139265 0 -2.05427e+06 142778 0 -2.05618e+06 146299 0 -2.05814e+06 149829 0 -2.06014e+06 153368 0 -2.06219e+06 156916 0 -2.06428e+06 160473 0 -2.06642e+06 164041 0 -2.06861e+06 167618 0 -2.07084e+06 171205 0 -2.07312e+06 174803 0 -2.07545e+06 178412 0 -2.07782e+06 182032 0 -2.08024e+06 185662 0 -2.08271e+06 189305 0 -2.08523e+06 192959 0 -2.08779e+06 196626 0 -2.0904e+06 200305 0 -2.09305e+06 203997 0 -2.09576e+06 207701 0 -2.09851e+06 211418 0 -2.10131e+06 215148 0 -2.10416e+06 218892 0 -2.01253e+06 0 0 -2.01255e+06 3597.32 0 -2.01263e+06 7194.95 0 -2.01276e+06 10793.1 0 -2.01293e+06 14392 0 -2.01316e+06 17991.9 0 -2.01344e+06 21593.1 0 -2.01376e+06 25195.6 0 -2.01414e+06 28799.9 0 -2.01457e+06 32406.1 0 -2.01505e+06 36014.4 0 -2.01558e+06 39625.1 0 -2.01616e+06 43238.4 0 -2.01679e+06 46854.5 0 -2.01747e+06 50473.7 0 -2.0182e+06 54096.3 0 -2.01899e+06 57722.3 0 -2.01982e+06 61352.2 0 -2.0207e+06 64986.1 0 -2.02164e+06 68624.2 0 -2.02262e+06 72266.9 0 -2.02366e+06 75914.3 0 -2.02474e+06 79566.7 0 -2.02588e+06 83224.3 0 -2.02707e+06 86887.3 0 -2.02831e+06 90556.1 0 -2.0296e+06 94230.9 0 -2.03094e+06 97911.9 0 -2.03234e+06 101599 0 -2.03378e+06 105293 0 -2.03528e+06 108995 0 -2.03682e+06 112703 0 -2.03842e+06 116419 0 -2.04007e+06 120142 0 -2.04177e+06 123874 0 -2.04352e+06 127614 0 -2.04533e+06 131362 0 -2.04719e+06 135120 0 -2.04909e+06 138886 0 -2.05105e+06 142662 0 -2.05307e+06 146447 0 -2.05513e+06 150242 0 -2.05725e+06 154047 0 -2.05942e+06 157863 0 -2.06164e+06 161690 0 -2.06391e+06 165527 0 -2.06624e+06 169376 0 -2.06862e+06 173237 0 -2.07105e+06 177109 0 -2.07354e+06 180994 0 -2.07608e+06 184892 0 -2.07867e+06 188802 0 -2.08132e+06 192725 0 -2.08401e+06 196662 0 -2.08677e+06 200613 0 -2.08957e+06 204579 0 -2.09243e+06 208558 0 -2.09535e+06 212553 0 -2.09832e+06 216562 0 -2.10134e+06 220587 0 -2.10442e+06 224627 0 -2.10755e+06 228684 0 -2.11073e+06 232757 0 -2.11398e+06 236848 0 -2.01015e+06 0 0 -2.01018e+06 3857.27 0 -2.01027e+06 7714.9 0 -2.01041e+06 11573.2 0 -2.01061e+06 15432.3 0 -2.01087e+06 19292.7 0 -2.01118e+06 23154.5 0 -2.01155e+06 27018 0 -2.01197e+06 30883.6 0 -2.01246e+06 34751.5 0 -2.01299e+06 38621.9 0 -2.01359e+06 42495.2 0 -2.01424e+06 46371.6 0 -2.01495e+06 50251.4 0 -2.01572e+06 54134.9 0 -2.01654e+06 58022.4 0 -2.01742e+06 61914.1 0 -2.01836e+06 65810.4 0 -2.01936e+06 69711.5 0 -2.02041e+06 73617.7 0 -2.02152e+06 77529.4 0 -2.02268e+06 81446.7 0 -2.02391e+06 85370.1 0 -2.02519e+06 89299.7 0 -2.02653e+06 93235.9 0 -2.02792e+06 97179 0 -2.02938e+06 101129 0 -2.03089e+06 105087 0 -2.03246e+06 109053 0 -2.03408e+06 113026 0 -2.03577e+06 117008 0 -2.03751e+06 120999 0 -2.03931e+06 124999 0 -2.04117e+06 129008 0 -2.04309e+06 133027 0 -2.04506e+06 137056 0 -2.04709e+06 141095 0 -2.04919e+06 145144 0 -2.05134e+06 149205 0 -2.05355e+06 153277 0 -2.05581e+06 157361 0 -2.05814e+06 161457 0 -2.06053e+06 165565 0 -2.06297e+06 169685 0 -2.06548e+06 173819 0 -2.06804e+06 177966 0 -2.07067e+06 182127 0 -2.07335e+06 186302 0 -2.07609e+06 190492 0 -2.0789e+06 194696 0 -2.08176e+06 198916 0 -2.08468e+06 203152 0 -2.08767e+06 207403 0 -2.09071e+06 211671 0 -2.09382e+06 215956 0 -2.09698e+06 220258 0 -2.10021e+06 224578 0 -2.1035e+06 228916 0 -2.10685e+06 233272 0 -2.11026e+06 237647 0 -2.11374e+06 242041 0 -2.11727e+06 246456 0 -2.12087e+06 250891 0 -2.12453e+06 255346 0 -2.00776e+06 0 0 -2.00779e+06 4121.23 0 -2.00789e+06 8242.88 0 -2.00805e+06 12365.3 0 -2.00827e+06 16488.8 0 -2.00856e+06 20613.6 0 -2.0089e+06 24740.2 0 -2.00932e+06 28868.9 0 -2.00979e+06 33000 0 -2.01033e+06 37133.7 0 -2.01093e+06 41270.6 0 -2.0116e+06 45410.8 0 -2.01233e+06 49554.7 0 -2.01312e+06 53702.7 0 -2.01398e+06 57855.1 0 -2.0149e+06 62012.2 0 -2.01589e+06 66174.4 0 -2.01694e+06 70342 0 -2.01805e+06 74515.4 0 -2.01922e+06 78694.8 0 -2.02046e+06 82880.7 0 -2.02177e+06 87073.4 0 -2.02314e+06 91273.3 0 -2.02457e+06 95480.6 0 -2.02607e+06 99695.8 0 -2.02763e+06 103919 0 -2.02925e+06 108151 0 -2.03094e+06 112392 0 -2.0327e+06 116642 0 -2.03452e+06 120902 0 -2.0364e+06 125172 0 -2.03835e+06 129452 0 -2.04036e+06 133743 0 -2.04244e+06 138046 0 -2.04459e+06 142360 0 -2.0468e+06 146686 0 -2.04907e+06 151024 0 -2.05141e+06 155375 0 -2.05382e+06 159739 0 -2.05629e+06 164116 0 -2.05883e+06 168508 0 -2.06144e+06 172914 0 -2.06411e+06 177335 0 -2.06684e+06 181771 0 -2.06965e+06 186223 0 -2.07252e+06 190691 0 -2.07546e+06 195175 0 -2.07846e+06 199677 0 -2.08154e+06 204196 0 -2.08468e+06 208734 0 -2.08788e+06 213289 0 -2.09116e+06 217864 0 -2.0945e+06 222457 0 -2.09791e+06 227071 0 -2.10139e+06 231705 0 -2.10494e+06 236360 0 -2.10856e+06 241036 0 -2.11225e+06 245734 0 -2.116e+06 250455 0 -2.11983e+06 255198 0 -2.12373e+06 259966 0 -2.12769e+06 264757 0 -2.13173e+06 269573 0 -2.13583e+06 274415 0 -2.00534e+06 0 0 -2.00538e+06 4389.19 0 -2.00549e+06 8778.86 0 -2.00566e+06 13169.4 0 -2.00591e+06 17561.2 0 -2.00623e+06 21954.7 0 -2.00662e+06 26350.2 0 -2.00707e+06 30748.1 0 -2.0076e+06 35148.8 0 -2.0082e+06 39552.8 0 -2.00887e+06 43960.3 0 -2.00961e+06 48371.9 0 -2.01042e+06 52787.8 0 -2.0113e+06 57208.5 0 -2.01226e+06 61634.4 0 -2.01328e+06 66065.9 0 -2.01437e+06 70503.4 0 -2.01554e+06 74947.2 0 -2.01677e+06 79397.9 0 -2.01808e+06 83855.7 0 -2.01946e+06 88321.2 0 -2.02091e+06 92794.7 0 -2.02243e+06 97276.6 0 -2.02402e+06 101767 0 -2.02568e+06 106268 0 -2.02742e+06 110777 0 -2.02923e+06 115297 0 -2.0311e+06 119828 0 -2.03305e+06 124369 0 -2.03508e+06 128922 0 -2.03717e+06 133487 0 -2.03934e+06 138065 0 -2.04158e+06 142655 0 -2.04389e+06 147258 0 -2.04627e+06 151875 0 -2.04873e+06 156507 0 -2.05126e+06 161153 0 -2.05386e+06 165814 0 -2.05654e+06 170491 0 -2.05929e+06 175184 0 -2.06212e+06 179893 0 -2.06501e+06 184620 0 -2.06798e+06 189364 0 -2.07103e+06 194127 0 -2.07415e+06 198909 0 -2.07735e+06 203709 0 -2.08062e+06 208530 0 -2.08396e+06 213371 0 -2.08738e+06 218233 0 -2.09088e+06 223116 0 -2.09445e+06 228021 0 -2.09809e+06 232949 0 -2.10182e+06 237901 0 -2.10562e+06 242876 0 -2.10949e+06 247875 0 -2.11344e+06 252900 0 -2.11747e+06 257950 0 -2.12158e+06 263027 0 -2.12577e+06 268131 0 -2.13003e+06 273263 0 -2.13437e+06 278423 0 -2.13879e+06 283612 0 -2.14329e+06 288831 0 -2.14787e+06 294081 0 -2.00291e+06 0 0 -2.00295e+06 4661.11 0 -2.00306e+06 9322.79 0 -2.00326e+06 13985.5 0 -2.00353e+06 18649.6 0 -2.00388e+06 23315.7 0 -2.00431e+06 27984.2 0 -2.00482e+06 32655.5 0 -2.0054e+06 37330.1 0 -2.00606e+06 42008.5 0 -2.0068e+06 46691 0 -2.00762e+06 51378.3 0 -2.00852e+06 56070.6 0 -2.00949e+06 60768.6 0 -2.01054e+06 65472.7 0 -2.01167e+06 70183.2 0 -2.01288e+06 74900.8 0 -2.01417e+06 79625.9 0 -2.01553e+06 84359 0 -2.01698e+06 89100.5 0 -2.0185e+06 93850.9 0 -2.0201e+06 98610.8 0 -2.02178e+06 103381 0 -2.02354e+06 108161 0 -2.02538e+06 112952 0 -2.0273e+06 117754 0 -2.02929e+06 122569 0 -2.03137e+06 127396 0 -2.03353e+06 132235 0 -2.03576e+06 137089 0 -2.03808e+06 141956 0 -2.04047e+06 146838 0 -2.04295e+06 151735 0 -2.04551e+06 156647 0 -2.04814e+06 161576 0 -2.05086e+06 166522 0 -2.05366e+06 171485 0 -2.05654e+06 176465 0 -2.0595e+06 181465 0 -2.06254e+06 186483 0 -2.06566e+06 191521 0 -2.06887e+06 196580 0 -2.07216e+06 201659 0 -2.07553e+06 206760 0 -2.07898e+06 211883 0 -2.08252e+06 217029 0 -2.08614e+06 222199 0 -2.08984e+06 227392 0 -2.09362e+06 232611 0 -2.09749e+06 237855 0 -2.10145e+06 243125 0 -2.10548e+06 248422 0 -2.10961e+06 253747 0 -2.11382e+06 259101 0 -2.11811e+06 264483 0 -2.12249e+06 269896 0 -2.12695e+06 275339 0 -2.1315e+06 280814 0 -2.13614e+06 286322 0 -2.14087e+06 291862 0 -2.14568e+06 297437 0 -2.15058e+06 303046 0 -2.15557e+06 308692 0 -2.16065e+06 314374 0 -2.00045e+06 0 0 -2.00049e+06 4936.99 0 -2.00062e+06 9874.63 0 -2.00084e+06 14813.4 0 -2.00114e+06 19754 0 -2.00152e+06 24696.7 0 -2.00199e+06 29642.2 0 -2.00255e+06 34591 0 -2.00319e+06 39543.7 0 -2.00392e+06 44500.7 0 -2.00473e+06 49462.5 0 -2.00563e+06 54429.9 0 -2.00661e+06 59403.1 0 -2.00768e+06 64382.9 0 -2.00884e+06 69369.8 0 -2.01008e+06 74364.3 0 -2.01141e+06 79366.9 0 -2.01283e+06 84378.2 0 -2.01433e+06 89398.8 0 -2.01592e+06 94429.3 0 -2.01759e+06 99470.2 0 -2.01935e+06 104522 0 -2.0212e+06 109585 0 -2.02313e+06 114661 0 -2.02516e+06 119749 0 -2.02726e+06 124851 0 -2.02946e+06 129966 0 -2.03174e+06 135096 0 -2.03411e+06 140241 0 -2.03657e+06 145402 0 -2.03912e+06 150580 0 -2.04176e+06 155774 0 -2.04448e+06 160986 0 -2.04729e+06 166216 0 -2.05019e+06 171465 0 -2.05318e+06 176734 0 -2.05626e+06 182023 0 -2.05943e+06 187334 0 -2.06269e+06 192666 0 -2.06604e+06 198020 0 -2.06948e+06 203398 0 -2.073e+06 208799 0 -2.07662e+06 214225 0 -2.08033e+06 219677 0 -2.08414e+06 225154 0 -2.08803e+06 230659 0 -2.09201e+06 236191 0 -2.09609e+06 241751 0 -2.10026e+06 247341 0 -2.10452e+06 252961 0 -2.10888e+06 258613 0 -2.11333e+06 264296 0 -2.11787e+06 270012 0 -2.12251e+06 275762 0 -2.12724e+06 281546 0 -2.13207e+06 287366 0 -2.13699e+06 293223 0 -2.14201e+06 299117 0 -2.14712e+06 305049 0 -2.15233e+06 311022 0 -2.15764e+06 317034 0 -2.16305e+06 323089 0 -2.16855e+06 329187 0 -2.17415e+06 335329 0 -1.99797e+06 0 0 -1.99802e+06 5216.8 0 -1.99816e+06 10434.4 0 -1.99839e+06 15653.3 0 -1.99872e+06 20874.1 0 -1.99914e+06 26097.5 0 -1.99966e+06 31324.2 0 -2.00026e+06 36554.6 0 -2.00097e+06 41789.4 0 -2.00176e+06 47029.2 0 -2.00265e+06 52274.8 0 -2.00364e+06 57526.5 0 -2.00471e+06 62785.2 0 -2.00589e+06 68051.4 0 -2.00715e+06 73325.8 0 -2.00851e+06 78608.9 0 -2.00997e+06 83901.5 0 -2.01151e+06 89204.2 0 -2.01316e+06 94517.6 0 -2.01489e+06 99842.3 0 -2.01673e+06 105179 0 -2.01865e+06 110529 0 -2.02068e+06 115892 0 -2.02279e+06 121269 0 -2.02501e+06 126660 0 -2.02732e+06 132068 0 -2.02972e+06 137491 0 -2.03222e+06 142931 0 -2.03482e+06 148389 0 -2.03751e+06 153865 0 -2.0403e+06 159360 0 -2.04318e+06 164875 0 -2.04617e+06 170410 0 -2.04925e+06 175967 0 -2.05242e+06 181546 0 -2.0557e+06 187147 0 -2.05907e+06 192773 0 -2.06254e+06 198422 0 -2.06611e+06 204098 0 -2.06978e+06 209799 0 -2.07355e+06 215527 0 -2.07741e+06 221284 0 -2.08138e+06 227069 0 -2.08545e+06 232884 0 -2.08961e+06 238729 0 -2.09388e+06 244606 0 -2.09825e+06 250515 0 -2.10272e+06 256458 0 -2.10729e+06 262435 0 -2.11197e+06 268448 0 -2.11674e+06 274497 0 -2.12162e+06 280584 0 -2.12661e+06 286710 0 -2.1317e+06 292875 0 -2.13689e+06 299081 0 -2.14218e+06 305329 0 -2.14759e+06 311621 0 -2.15309e+06 317957 0 -2.15871e+06 324338 0 -2.16443e+06 330767 0 -2.17026e+06 337244 0 -2.17619e+06 343771 0 -2.18224e+06 350348 0 -2.18839e+06 356978 0 -1.99547e+06 0 0 -1.99552e+06 5500.53 0 -1.99567e+06 11001.9 0 -1.99593e+06 16504.8 0 -1.99629e+06 22010 0 -1.99674e+06 27518.1 0 -1.99731e+06 33029.9 0 -1.99797e+06 38546 0 -1.99873e+06 44067.2 0 -1.9996e+06 49594.1 0 -2.00057e+06 55127.5 0 -2.00164e+06 60668.2 0 -2.00282e+06 66216.7 0 -2.00409e+06 71773.9 0 -2.00547e+06 77340.5 0 -2.00696e+06 82917.2 0 -2.00854e+06 88504.7 0 -2.01023e+06 94103.8 0 -2.01202e+06 99715.2 0 -2.01391e+06 105340 0 -2.01591e+06 110978 0 -2.01801e+06 116631 0 -2.02021e+06 122300 0 -2.02252e+06 127984 0 -2.02493e+06 133686 0 -2.02745e+06 139405 0 -2.03007e+06 145143 0 -2.0328e+06 150901 0 -2.03563e+06 156679 0 -2.03856e+06 162478 0 -2.04161e+06 168298 0 -2.04475e+06 174142 0 -2.04801e+06 180010 0 -2.05136e+06 185902 0 -2.05483e+06 191820 0 -2.0584e+06 197764 0 -2.06208e+06 203736 0 -2.06587e+06 209736 0 -2.06976e+06 215765 0 -2.07377e+06 221825 0 -2.07788e+06 227916 0 -2.0821e+06 234040 0 -2.08642e+06 240197 0 -2.09086e+06 246389 0 -2.09541e+06 252616 0 -2.10007e+06 258880 0 -2.10484e+06 265182 0 -2.10972e+06 271523 0 -2.11471e+06 277904 0 -2.11982e+06 284327 0 -2.12504e+06 290792 0 -2.13037e+06 297302 0 -2.13581e+06 303857 0 -2.14137e+06 310458 0 -2.14704e+06 317108 0 -2.15283e+06 323807 0 -2.15873e+06 330557 0 -2.16475e+06 337359 0 -2.17089e+06 344215 0 -2.17715e+06 351127 0 -2.18352e+06 358096 0 -2.19002e+06 365123 0 -2.19663e+06 372211 0 -2.20336e+06 379362 0 -1.99294e+06 0 0 -1.993e+06 5788.16 0 -1.99317e+06 11577.3 0 -1.99344e+06 17368.1 0 -1.99383e+06 23161.6 0 -1.99433e+06 28958.3 0 -1.99494e+06 34759.3 0 -1.99566e+06 40565.2 0 -1.99649e+06 46376.9 0 -1.99743e+06 52195.1 0 -1.99848e+06 58020.8 0 -1.99965e+06 63854.7 0 -2.00092e+06 69697.6 0 -2.00231e+06 75550.4 0 -2.00381e+06 81413.9 0 -2.00541e+06 87289 0 -2.00714e+06 93176.4 0 -2.00897e+06 99077.1 0 -2.01091e+06 104992 0 -2.01297e+06 110922 0 -2.01514e+06 116867 0 -2.01742e+06 122830 0 -2.01981e+06 128810 0 -2.02232e+06 134809 0 -2.02494e+06 140827 0 -2.02767e+06 146865 0 -2.03052e+06 152925 0 -2.03348e+06 159007 0 -2.03655e+06 165113 0 -2.03974e+06 171242 0 -2.04304e+06 177397 0 -2.04646e+06 183579 0 -2.05e+06 189787 0 -2.05365e+06 196024 0 -2.05741e+06 202291 0 -2.06129e+06 208588 0 -2.06529e+06 214916 0 -2.06941e+06 221278 0 -2.07364e+06 227673 0 -2.07799e+06 234103 0 -2.08246e+06 240570 0 -2.08705e+06 247074 0 -2.09175e+06 253617 0 -2.09658e+06 260199 0 -2.10153e+06 266824 0 -2.10659e+06 273490 0 -2.11178e+06 280201 0 -2.11709e+06 286957 0 -2.12252e+06 293760 0 -2.12807e+06 300612 0 -2.13375e+06 307513 0 -2.13955e+06 314465 0 -2.14548e+06 321470 0 -2.15153e+06 328530 0 -2.1577e+06 335646 0 -2.164e+06 342820 0 -2.17043e+06 350054 0 -2.17699e+06 357349 0 -2.18367e+06 364707 0 -2.19049e+06 372131 0 -2.19743e+06 379622 0 -2.20451e+06 387182 0 -2.21171e+06 394813 0 -2.21905e+06 402519 0 -1.9904e+06 0 0 -1.99046e+06 6079.66 0 -1.99064e+06 12160.4 0 -1.99094e+06 18243.1 0 -1.99136e+06 24328.7 0 -1.9919e+06 30418.1 0 -1.99256e+06 36512.3 0 -1.99334e+06 42612 0 -1.99424e+06 48718.4 0 -1.99525e+06 54832.2 0 -1.99639e+06 60954.4 0 -1.99765e+06 67085.9 0 -1.99903e+06 73227.7 0 -2.00053e+06 79380.8 0 -2.00215e+06 85546 0 -2.00389e+06 91724.3 0 -2.00575e+06 97916.7 0 -2.00773e+06 104124 0 -2.00984e+06 110348 0 -2.01206e+06 116588 0 -2.01441e+06 122847 0 -2.01688e+06 129125 0 -2.01947e+06 135423 0 -2.02218e+06 141742 0 -2.02501e+06 148083 0 -2.02797e+06 154448 0 -2.03105e+06 160837 0 -2.03426e+06 167251 0 -2.03758e+06 173692 0 -2.04104e+06 180161 0 -2.04461e+06 186658 0 -2.04831e+06 193186 0 -2.05214e+06 199745 0 -2.05609e+06 206336 0 -2.06017e+06 212962 0 -2.06437e+06 219622 0 -2.0687e+06 226318 0 -2.07316e+06 233052 0 -2.07774e+06 239826 0 -2.08245e+06 246639 0 -2.0873e+06 253494 0 -2.09227e+06 260392 0 -2.09736e+06 267335 0 -2.10259e+06 274324 0 -2.10795e+06 281361 0 -2.11344e+06 288447 0 -2.11907e+06 295584 0 -2.12482e+06 302773 0 -2.13071e+06 310017 0 -2.13673e+06 317316 0 -2.14289e+06 324673 0 -2.14918e+06 332090 0 -2.1556e+06 339569 0 -2.16216e+06 347111 0 -2.16886e+06 354718 0 -2.1757e+06 362393 0 -2.18268e+06 370137 0 -2.18979e+06 377954 0 -2.19705e+06 385845 0 -2.20444e+06 393812 0 -2.21198e+06 401858 0 -2.21967e+06 409986 0 -2.22749e+06 418197 0 -2.23547e+06 426496 0 -1.98784e+06 0 0 -1.9879e+06 6375.01 0 -1.9881e+06 12751.2 0 -1.98842e+06 19129.7 0 -1.98887e+06 25511.4 0 -1.98945e+06 31897.4 0 -1.99016e+06 38288.7 0 -1.991e+06 44686.4 0 -1.99197e+06 51091.6 0 -1.99307e+06 57505.1 0 -1.9943e+06 63928.1 0 -1.99565e+06 70361.7 0 -1.99714e+06 76807 0 -1.99876e+06 83264.9 0 -2.0005e+06 89736.6 0 -2.00238e+06 96223.1 0 -2.00439e+06 102726 0 -2.00652e+06 109245 0 -2.00879e+06 115783 0 -2.01119e+06 122340 0 -2.01372e+06 128918 0 -2.01638e+06 135517 0 -2.01918e+06 142139 0 -2.0221e+06 148785 0 -2.02516e+06 155456 0 -2.02835e+06 162154 0 -2.03168e+06 168879 0 -2.03513e+06 175633 0 -2.03872e+06 182418 0 -2.04245e+06 189234 0 -2.04631e+06 196083 0 -2.0503e+06 202966 0 -2.05443e+06 209885 0 -2.05869e+06 216841 0 -2.06309e+06 223836 0 -2.06763e+06 230870 0 -2.0723e+06 237946 0 -2.07712e+06 245065 0 -2.08207e+06 252228 0 -2.08715e+06 259438 0 -2.09238e+06 266695 0 -2.09775e+06 274002 0 -2.10325e+06 281360 0 -2.1089e+06 288771 0 -2.11469e+06 296237 0 -2.12062e+06 303759 0 -2.1267e+06 311341 0 -2.13291e+06 318982 0 -2.13928e+06 326686 0 -2.14578e+06 334455 0 -2.15243e+06 342290 0 -2.15923e+06 350195 0 -2.16618e+06 358171 0 -2.17327e+06 366220 0 -2.18052e+06 374346 0 -2.18791e+06 382550 0 -2.19546e+06 390835 0 -2.20315e+06 399204 0 -2.211e+06 407659 0 -2.21901e+06 416204 0 -2.22717e+06 424842 0 -2.23549e+06 433575 0 -2.24396e+06 442407 0 -2.25259e+06 451342 0 -1.98525e+06 0 0 -1.98532e+06 6674.2 0 -1.98553e+06 13349.7 0 -1.98588e+06 20027.8 0 -1.98636e+06 26709.5 0 -1.98699e+06 33396.1 0 -1.98775e+06 40088.6 0 -1.98865e+06 46788.3 0 -1.98969e+06 53496.3 0 -1.99088e+06 60213.8 0 -1.99219e+06 66942 0 -1.99365e+06 73682.1 0 -1.99525e+06 80435.2 0 -1.99699e+06 87202.7 0 -1.99887e+06 93985.7 0 -2.00089e+06 100785 0 -2.00304e+06 107603 0 -2.00534e+06 114440 0 -2.00778e+06 121297 0 -2.01036e+06 128177 0 -2.01308e+06 135079 0 -2.01594e+06 142006 0 -2.01895e+06 148958 0 -2.02209e+06 155938 0 -2.02538e+06 162946 0 -2.02881e+06 169984 0 -2.03239e+06 177054 0 -2.03611e+06 184156 0 -2.03997e+06 191292 0 -2.04398e+06 198464 0 -2.04813e+06 205674 0 -2.05242e+06 212922 0 -2.05687e+06 220211 0 -2.06145e+06 227542 0 -2.06619e+06 234916 0 -2.07107e+06 242336 0 -2.0761e+06 249804 0 -2.08128e+06 257320 0 -2.08661e+06 264887 0 -2.09208e+06 272506 0 -2.09771e+06 280180 0 -2.10349e+06 287911 0 -2.10942e+06 295700 0 -2.1155e+06 303549 0 -2.12173e+06 311462 0 -2.12812e+06 319439 0 -2.13466e+06 327484 0 -2.14136e+06 335598 0 -2.14822e+06 343784 0 -2.15523e+06 352044 0 -2.16239e+06 360381 0 -2.16972e+06 368798 0 -2.17721e+06 377297 0 -2.18486e+06 385882 0 -2.19267e+06 394554 0 -2.20064e+06 403317 0 -2.20877e+06 412175 0 -2.21708e+06 421130 0 -2.22554e+06 430187 0 -2.23418e+06 439347 0 -2.24298e+06 448616 0 -2.25196e+06 457996 0 -2.26111e+06 467492 0 -2.27043e+06 477110 0 -1.98264e+06 0 0 -1.98272e+06 6977.2 0 -1.98294e+06 13955.9 0 -1.98331e+06 20937.4 0 -1.98384e+06 27923 0 -1.98451e+06 34914 0 -1.98532e+06 41911.7 0 -1.98629e+06 48917.4 0 -1.98741e+06 55932.5 0 -1.98867e+06 62958.2 0 -1.99009e+06 69995.8 0 -1.99165e+06 77046.8 0 -1.99336e+06 84112.4 0 -1.99523e+06 91194.1 0 -1.99724e+06 98293.2 0 -1.9994e+06 105411 0 -2.00172e+06 112549 0 -2.00418e+06 119709 0 -2.0068e+06 126891 0 -2.00956e+06 134099 0 -2.01248e+06 141332 0 -2.01555e+06 148592 0 -2.01877e+06 155882 0 -2.02215e+06 163202 0 -2.02567e+06 170554 0 -2.02935e+06 177940 0 -2.03319e+06 185361 0 -2.03718e+06 192820 0 -2.04132e+06 200316 0 -2.04562e+06 207853 0 -2.05007e+06 215433 0 -2.05468e+06 223056 0 -2.05945e+06 230725 0 -2.06437e+06 238441 0 -2.06945e+06 246207 0 -2.07469e+06 254024 0 -2.08009e+06 261895 0 -2.08565e+06 269821 0 -2.09137e+06 277805 0 -2.09724e+06 285849 0 -2.10329e+06 293955 0 -2.10949e+06 302125 0 -2.11585e+06 310362 0 -2.12238e+06 318668 0 -2.12908e+06 327045 0 -2.13594e+06 335497 0 -2.14297e+06 344025 0 -2.15016e+06 352633 0 -2.15753e+06 361324 0 -2.16506e+06 370099 0 -2.17276e+06 378964 0 -2.18063e+06 387919 0 -2.18868e+06 396970 0 -2.1969e+06 406119 0 -2.2053e+06 415369 0 -2.21387e+06 424725 0 -2.22262e+06 434190 0 -2.23155e+06 443769 0 -2.24066e+06 453464 0 -2.24995e+06 463281 0 -2.25942e+06 473225 0 -2.26908e+06 483299 0 -2.27892e+06 493508 0 -2.28896e+06 503860 0 -1.98001e+06 0 0 -1.9801e+06 7284 0 -1.98033e+06 14569.7 0 -1.98073e+06 21858.5 0 -1.98129e+06 29151.8 0 -1.98201e+06 36451.2 0 -1.98288e+06 43758 0 -1.98392e+06 51073.8 0 -1.98511e+06 58400 0 -1.98646e+06 65738 0 -1.98797e+06 73089.5 0 -1.98965e+06 80455.8 0 -1.99148e+06 87838.4 0 -1.99347e+06 95239 0 -1.99562e+06 102659 0 -1.99794e+06 110100 0 -2.00041e+06 117564 0 -2.00305e+06 125051 0 -2.00584e+06 132565 0 -2.0088e+06 140106 0 -2.01192e+06 147676 0 -2.01521e+06 155277 0 -2.01865e+06 162910 0 -2.02226e+06 170578 0 -2.02603e+06 178281 0 -2.02997e+06 186022 0 -2.03407e+06 193803 0 -2.03834e+06 201626 0 -2.04277e+06 209491 0 -2.04737e+06 217403 0 -2.05214e+06 225361 0 -2.05707e+06 233369 0 -2.06217e+06 241429 0 -2.06744e+06 249542 0 -2.07288e+06 257711 0 -2.07849e+06 265938 0 -2.08426e+06 274225 0 -2.09021e+06 282575 0 -2.09634e+06 290990 0 -2.10263e+06 299473 0 -2.1091e+06 308027 0 -2.11574e+06 316653 0 -2.12256e+06 325355 0 -2.12955e+06 334136 0 -2.13672e+06 342998 0 -2.14407e+06 351944 0 -2.1516e+06 360978 0 -2.15931e+06 370103 0 -2.1672e+06 379322 0 -2.17527e+06 388639 0 -2.18353e+06 398057 0 -2.19197e+06 407580 0 -2.20059e+06 417212 0 -2.2094e+06 426957 0 -2.21841e+06 436820 0 -2.2276e+06 446804 0 -2.23698e+06 456914 0 -2.24656e+06 467156 0 -2.25633e+06 477533 0 -2.2663e+06 488052 0 -2.27647e+06 498718 0 -2.28684e+06 509537 0 -2.29741e+06 520515 0 -2.30818e+06 531659 0 -1.97737e+06 0 0 -1.97745e+06 7594.57 0 -1.97771e+06 15191 0 -1.97813e+06 22790.9 0 -1.97873e+06 30395.8 0 -1.97949e+06 38007.4 0 -1.98042e+06 45627.4 0 -1.98153e+06 53257.2 0 -1.9828e+06 60898.6 0 -1.98424e+06 68553.3 0 -1.98586e+06 76222.8 0 -1.98764e+06 83908.8 0 -1.98959e+06 91613.1 0 -1.99172e+06 99337.4 0 -1.99402e+06 107083 0 -1.99648e+06 114852 0 -1.99912e+06 122647 0 -2.00194e+06 130468 0 -2.00492e+06 138318 0 -2.00808e+06 146199 0 -2.01141e+06 154112 0 -2.01491e+06 162060 0 -2.01859e+06 170043 0 -2.02244e+06 178065 0 -2.02646e+06 186127 0 -2.03067e+06 194232 0 -2.03504e+06 202380 0 -2.0396e+06 210576 0 -2.04433e+06 218819 0 -2.04924e+06 227114 0 -2.05432e+06 235462 0 -2.05959e+06 243865 0 -2.06503e+06 252326 0 -2.07066e+06 260847 0 -2.07647e+06 269431 0 -2.08245e+06 278081 0 -2.08862e+06 286798 0 -2.09498e+06 295586 0 -2.10152e+06 304448 0 -2.10824e+06 313386 0 -2.11515e+06 322403 0 -2.12224e+06 331503 0 -2.12953e+06 340689 0 -2.137e+06 349963 0 -2.14466e+06 359331 0 -2.15251e+06 368794 0 -2.16056e+06 378356 0 -2.1688e+06 388022 0 -2.17723e+06 397796 0 -2.18586e+06 407681 0 -2.19468e+06 417682 0 -2.20371e+06 427803 0 -2.21293e+06 438049 0 -2.22236e+06 448425 0 -2.23199e+06 458936 0 -2.24182e+06 469587 0 -2.25186e+06 480384 0 -2.26211e+06 491333 0 -2.27256e+06 502439 0 -2.28324e+06 513710 0 -2.29412e+06 525152 0 -2.30522e+06 536773 0 -2.31654e+06 548579 0 -2.32808e+06 560581 0 -1.9747e+06 0 0 -1.97479e+06 7908.89 0 -1.97506e+06 15819.8 0 -1.97551e+06 23734.6 0 -1.97614e+06 31654.9 0 -1.97696e+06 39582.7 0 -1.97795e+06 47519.7 0 -1.97912e+06 55467.6 0 -1.98048e+06 63428.4 0 -1.98202e+06 71403.8 0 -1.98373e+06 79395.7 0 -1.98563e+06 87405.9 0 -1.98771e+06 95436.4 0 -1.98997e+06 103489 0 -1.99242e+06 111566 0 -1.99504e+06 119668 0 -1.99785e+06 127799 0 -2.00085e+06 135959 0 -2.00402e+06 144151 0 -2.00738e+06 152378 0 -2.01093e+06 160640 0 -2.01466e+06 168941 0 -2.01857e+06 177282 0 -2.02267e+06 185665 0 -2.02696e+06 194094 0 -2.03143e+06 202569 0 -2.03609e+06 211094 0 -2.04094e+06 219671 0 -2.04598e+06 228302 0 -2.05121e+06 236989 0 -2.05663e+06 245737 0 -2.06224e+06 254546 0 -2.06804e+06 263419 0 -2.07403e+06 272361 0 -2.08021e+06 281372 0 -2.08659e+06 290457 0 -2.09317e+06 299619 0 -2.09994e+06 308859 0 -2.1069e+06 318183 0 -2.11407e+06 327592 0 -2.12143e+06 337091 0 -2.12899e+06 346683 0 -2.13675e+06 356372 0 -2.14472e+06 366162 0 -2.15289e+06 376056 0 -2.16126e+06 386058 0 -2.16984e+06 396174 0 -2.17862e+06 406407 0 -2.18761e+06 416763 0 -2.19681e+06 427245 0 -2.20623e+06 437860 0 -2.21585e+06 448612 0 -2.22569e+06 459507 0 -2.23575e+06 470551 0 -2.24603e+06 481750 0 -2.25652e+06 493111 0 -2.26724e+06 504640 0 -2.27818e+06 516344 0 -2.28934e+06 528231 0 -2.30073e+06 540309 0 -2.31236e+06 552586 0 -2.32422e+06 565072 0 -2.33631e+06 577775 0 -2.34864e+06 590708 0 -1.97201e+06 0 0 -1.9721e+06 8226.95 0 -1.97239e+06 16456.1 0 -1.97287e+06 24689.5 0 -1.97354e+06 32929.1 0 -1.97441e+06 41176.9 0 -1.97546e+06 49434.8 0 -1.97671e+06 57704.8 0 -1.97815e+06 65989 0 -1.97978e+06 74289.4 0 -1.9816e+06 82608 0 -1.98362e+06 90946.9 0 -1.98583e+06 99308.2 0 -1.98823e+06 107694 0 -1.99083e+06 116106 0 -1.99362e+06 124547 0 -1.9966e+06 133019 0 -1.99978e+06 141524 0 -2.00315e+06 150065 0 -2.00672e+06 158643 0 -2.01049e+06 167261 0 -2.01445e+06 175921 0 -2.01861e+06 184626 0 -2.02297e+06 193379 0 -2.02752e+06 202181 0 -2.03227e+06 211036 0 -2.03723e+06 219945 0 -2.04238e+06 228912 0 -2.04773e+06 237940 0 -2.05329e+06 247031 0 -2.05905e+06 256188 0 -2.06501e+06 265414 0 -2.07117e+06 274712 0 -2.07754e+06 284086 0 -2.08412e+06 293538 0 -2.0909e+06 303072 0 -2.09789e+06 312692 0 -2.10508e+06 322401 0 -2.11249e+06 332202 0 -2.12011e+06 342100 0 -2.12794e+06 352099 0 -2.13598e+06 362203 0 -2.14424e+06 372415 0 -2.15271e+06 382741 0 -2.1614e+06 393185 0 -2.1703e+06 403752 0 -2.17943e+06 414447 0 -2.18877e+06 425275 0 -2.19834e+06 436242 0 -2.20813e+06 447353 0 -2.21815e+06 458615 0 -2.2284e+06 470034 0 -2.23887e+06 481616 0 -2.24958e+06 493368 0 -2.26052e+06 505299 0 -2.27169e+06 517415 0 -2.2831e+06 529726 0 -2.29475e+06 542239 0 -2.30665e+06 554964 0 -2.31879e+06 567910 0 -2.33117e+06 581089 0 -2.34381e+06 594511 0 -2.3567e+06 608188 0 -2.36985e+06 622135 0 -1.96929e+06 0 0 -1.9694e+06 8548.72 0 -1.9697e+06 17099