<?xml version="1.0"?> 
<VTKFile type="StructuredGrid" version="0.1"> 
<StructuredGrid WholeExtent="0 63 0 63 0 0"> 
<Piece Extent="0 63 0 63 0 0"> 
<PointData>
<DataArray type="Float32" Name="|E|" format="ascii" NumberOfComponents="3"> 
-1.19209e-07 7.92442e+06 0 -7.91624e-08 6.3681e+06 0 -6.33299e-08 5.15886e+06 0 1.76951e-07 4.40456e+06 0 -1.78814e-07 3.8972e+06 0 2.90573e-07 3.51824e+06 0 -2.45869e-07 3.21702e+06 0 1.63913e-07 2.96643e+06 0 -2.16067e-07 2.7511e+06 0 5.96046e-08 2.56162e+06 0 1.3411e-07 2.39173e+06 0 -2.01166e-07 2.23709e+06 0 8.9407e-08 2.0946e+06 0 -2.98023e-08 1.96198e+06 0 -4.47035e-08 1.83752e+06 0 1.11759e-07 1.71993e+06 0 -9.68575e-08 1.6082e+06 0 1.3411e-07 1.50157e+06 0 -1.19209e-07 1.39946e+06 0 1.49012e-07 1.30145e+06 0 -1.49012e-08 1.20721e+06 0 -4.47035e-08 1.11655e+06 0 0 1.02935e+06 0 1.49012e-08 945559 0 2.98023e-08 865199 0 -4.47035e-08 788344 0 1.49012e-08 715103 0 7.45058e-08 645614 0 -1.49012e-08 580024 0 -5.96046e-08 518476 0 -4.47035e-08 461094 0 -1.49012e-08 407967 0 -2.98023e-08 359138 0 4.47035e-08 314596 0 2.98023e-08 274273 0 -8.9407e-08 238042 0 5.96046e-08 205726 0 2.98023e-08 177104 0 -8.9407e-08 151919 0 8.9407e-08 129893 0 0 110739 0 -8.9407e-08 94166.4 0 8.9407e-08 79892 0 -8.9407e-08 67646.8 0 1.19209e-07 57179.6 0 -5.96046e-08 48259.9 0 5.96046e-08 40679.6 0 -2.98023e-08 34252.4 0 5.96046e-08 28813.9 0 -5.96046e-08 24220 0 2.98023e-08 20345.2 0 -5.96046e-08 17081.2 0 -2.98023e-08 14334.8 0 8.9407e-08 12026.2 0 -1.19209e-07 10087.4 0 5.96046e-08 8460.75 0 -5.96046e-08 7097 0 2.98023e-08 5956.47 0 2.98023e-08 5001.02 0 5.96046e-08 4214.05 0 -5.96046e-08 3544.28 0 1.78814e-07 3066.09 0 -3.27826e-07 2567.71 0 2.38419e-07 3737.26 0 -440646 6.88602e+06 0 -311616 5.45498e+06 0 -192912 4.58245e+06 0 -133689 4.03425e+06 0 -101666 3.63012e+06 0 -81705.4 3.3116e+06 0 -68517 3.0492e+06 0 -59194.2 2.82527e+06 0 -52296.7 2.62935e+06 0 -47036.2 2.45453e+06 0 -42916.3 2.29606e+06 0 -39618.4 2.15054e+06 0 -36929 2.0155e+06 0 -34697.8 1.88908e+06 0 -32816.4 1.76988e+06 0 -31203.7 1.65681e+06 0 -29797.3 1.54904e+06 0 -28548.2 1.44594e+06 0 -27416.4 1.34703e+06 0 -26368.9 1.25195e+06 0 -25377.7 1.16046e+06 0 -24419 1.0724e+06 0 -23472.4 987704 0 -22520.5 906353 0 -21549.2 828396 0 -20547.8 753922 0 -19509.2 683054 0 -18430.1 615931 0 -17311.5 552698 0 -16158.6 493487 0 -14980.4 438406 0 -13789.1 387525 0 -12599.3 340865 0 -11426.5 298394 0 -10286.4 260022 0 -9193.4 225607 0 -8159.83 194959 0 -7195.24 167849 0 -6306.14 144019 0 -5496.05 123194 0 -4765.73 105092 0 -4113.62 89432.4 0 -3536.32 75943.7 0 -3029.14 64369.1 0 -2586.54 54470.2 0 -2202.55 46029.1 0 -1871.12 38849.4 0 -1586.29 32755.9 0 -1342.45 27594.2 0 -1134.35 23228.8 0 -957.251 19542.1 0 -806.875 16432.4 0 -679.429 13812.1 0 -571.587 11606.3 0 -480.418 9751.23 0 -403.425 8192.31 0 -338.342 6884.02 0 -283.255 5786.59 0 -236.717 4870.9 0 -195.142 4102.99 0 -163.695 3484 0 -111.924 2957.24 0 -103.954 2686.41 0 427.185 2451.67 0 -700021 5.66208e+06 0 -440122 4.74987e+06 0 -292112 4.16123e+06 0 -219130 3.73779e+06 0 -174030 3.40232e+06 0 -144533 3.12869e+06 0 -124018 2.89662e+06 0 -108956 2.69456e+06 0 -97542.9 2.51507e+06 0 -88657.9 2.35295e+06 0 -81580.6 2.20455e+06 0 -75835.1 2.0672e+06 0 -71089.9 1.93892e+06 0 -67107 1.81819e+06 0 -63710.3 1.70386e+06 0 -60765.8 1.59502e+06 0 -58168.4 1.49099e+06 0 -55833.5 1.39125e+06 0 -53691.6 1.29541e+06 0 -51684.3 1.20317e+06 0 -49761.8 1.11435e+06 0 -47881.3 1.02884e+06 0 -46006.3 946609 0 -44106.1 867670 0 -42156.6 792095 0 -40140 719987 0 -38046.1 651476 0 -35872.3 586705 0 -33624.4 525812 0 -31315.6 468919 0 -28966.6 416116 0 -26603.1 367453 0 -24254.8 322931 0 -21952.4 282495 0 -19725.8 246038 0 -17601.4 213401 0 -15601.5 184384 0 -13742.5 158752 0 -12034.9 136245 0 -10483.6 116592 0 -9088.34 99517.6 0 -7844.87 84750.4 0 -6745.62 72030.3 0 -5780.81 61112.5 0 -4939.35 51771.1 0 -4209.49 43800.4 0 -3579.47 37015.3 0 -3037.86 31251.4 0 -2573.91 26363.7 0 -2177.68 22225.2 0 -1840.15 18725.8 0 -1553.24 15770.2 0 -1309.79 13276.3 0 -1103.52 11174 0 -928.894 9403.25 0 -781.193 7913.23 0 -656.044 6660.49 0 -550.333 5609.28 0 -459.157 4728.32 0 -382.83 3994.71 0 -308.724 3390.23 0 -242.204 2900.03 0 -121.933 2584.59 0 324.846 2048.77 0 -730670 4.88592e+06 0 -480565 4.2729e+06 0 -351660 3.83017e+06 0 -277536 3.48514e+06 0 -228221 3.20212e+06 0 -194576 2.96351e+06 0 -170058 2.75617e+06 0 -151575 2.57255e+06 0 -137264 2.40717e+06 0 -125916 2.25618e+06 0 -116739 2.11674e+06 0 -109191 1.98676e+06 0 -102880 1.86464e+06 0 -97522.3 1.74915e+06 0 -92901.4 1.63935e+06 0 -88849.5 1.53449e+06 0 -85232.6 1.43401e+06 0 -81941.2 1.33747e+06 0 -78883.8 1.24457e+06 0 -75982.7 1.15508e+06 0 -73171.1 1.06887e+06 0 -70391.6 985862 0 -67595.5 906059 0 -64742.8 829506 0 -61802.6 756292 0 -58754.3 686534 0 -55588.3 620368 0 -52306.3 557935 0 -48921.9 499367 0 -45459.6 444771 0 -41953.1 394223 0 -38443 347752 0 -34973.9 305337 0 -31590.5 266904 0 -28335 232326 0 -25244 201432 0 -22346.6 174011 0 -19663.8 149823 0 -17207.7 128608 0 -14982.6 110099 0 -12986.1 94026.9 0 -11209.9 80130.9 0 -9641.85 68161.6 0 -8266.81 57886.2 0 -7068.19 49090.8 0 -6028.75 41581.4 0 -5131.39 35184.2 0 -4359.69 29744.9 0 -3698.24 25127.6 0 -3132.9 21213.7 0 -2650.86 17900.2 0 -2240.67 15097.8 0 -1892.21 12730.1 0 -1596.54 10731.4 0 -1345.93 9045.48 0 -1133.52 7624.71 0 -953.501 6428.59 0 -800.494 5423.23 0 -669.595 4579.62 0 -556.962 3876.64 0 -451.176 3292.69 0 -353.109 2826.28 0 -172.9 2451.92 0 135.803 1883.42 0 -697088 4.35656e+06 0 -500155 3.90388e+06 0 -390776 3.55702e+06 0 -319633 3.26904e+06 0 -270667 3.02498e+06 0 -235536 2.81355e+06 0 -209085 2.62647e+06 0 -188703 2.45834e+06 0 -172602 2.3051e+06 0 -159626 2.16384e+06 0 -148986 2.03238e+06 0 -140123 1.90904e+06 0 -132626 1.79254e+06 0 -126189 1.68189e+06 0 -120573 1.5763e+06 0 -115590 1.47517e+06 0 -111088 1.37805e+06 0 -106940 1.28458e+06 0 -103038 1.19451e+06 0 -99289.9 1.10769e+06 0 -95616 1.02401e+06 0 -91948.1 943458 0 -88228.9 866050 0 -84412.5 791857 0 -80465.3 720985 0 -76367.3 653562 0 -72113.1 589728 0 -67712.1 529620 0 -63188.8 473362 0 -58580.9 421048 0 -53936.8 372734 0 -49312.2 328430 0 -44765.9 288093 0 -40355.2 251630 0 -36132.6 218899 0 -32142.1 189712 0 -28417.4 163852 0 -24981.5 141074 0 -21846.1 121120 0 -19013.5 103726 0 -16477.3 88631.6 0 -14224.9 75584.8 0 -12238.9 64347.8 0 -10498.9 54699.4 0 -8982.79 46437.5 0 -7668.27 39379.6 0 -6533.26 33362.6 0 -5556.8 28242 0 -4719.35 23890.9 0 -4003.01 20198.5 0 -3391.64 17068.7 0 -2870.84 14418.4 0 -2427.86 12176.2 0 -2051.51 10280.7 0 -1732.03 8679.62 0 -1460.87 7328.37 0 -1230.63 6189.16 0 -1034.49 5230.05 0 -866.706 4424.35 0 -720.399 3751 0 -586.671 3189.98 0 -454.368 2735.59 0 -255.189 2324.16 0 -44.8906 1798.38 0 -665320 3.96508e+06 0 -512059 3.61401e+06 0 -417850 3.32719e+06 0 -352108 3.07977e+06 0 -305093 2.8656e+06 0 -269941 2.67615e+06 0 -242867 2.5059e+06 0 -221565 2.35091e+06 0 -204438 2.20819e+06 0 -190433 2.07552e+06 0 -178800 1.95117e+06 0 -168991 1.83383e+06 0 -160598 1.72247e+06 0 -153309 1.61628e+06 0 -146877 1.51463e+06 0 -141101 1.41701e+06 0 -135817 1.32307e+06 0 -130885 1.23253e+06 0 -126188 1.1452e+06 0 -121623 1.06096e+06 0 -117099 979767 0 -112543 901620 0 -107891 826574 0 -103094 754717 0 -98120.6 686171 0 -92954.4 621070 0 -87597.6 559556 0 -82070.7 501763 0 -76411.3 447802 0 -70672 397753 0 -64916.9 351654 0 -59216.4 309493 0 -53642.3 271208 0 -48262.9 236685 0 -43138.4 205766 0 -38317.8 178253 0 -33837 153919 0 -29718.6 132518 0 -25972.2 113793 0 -22596.3 97485.2 0 -19580.2 83342.4 0 -16905.8 71122.3 0 -14550.6 60598.2 0 -12488.7 51560.6 0 -10692.9 43818.9 0 -9136 37201.7 0 -7791.49 31556.4 0 -6634.31 26747.9 0 -5641.24 22658 0 -4791.1 19183.5 0 -4064.83 16234.8 0 -3445.47 13734.8 0 -2918.02 11616.8 0 -2469.32 9823.92 0 -2087.86 8307.36 0 -1763.61 7025.58 0 -1487.77 5943.33 0 -1252.43 5030.72 0 -1050.57 4262.96 0 -873.866 3619.05 0 -713.989 3081.09 0 -552.809 2633.28 0 -354.948 2209.45 0 -198.799 1734.2 0 -643255 3.66106e+06 0 -520671 3.3723e+06 0 -438385 3.12718e+06 0 -378330 2.91149e+06 0 -333827 2.72093e+06 0 -299574 2.54939e+06 0 -272657 2.39322e+06 0 -251071 2.24947e+06 0 -233451 2.11591e+06 0 -218846 1.99082e+06 0 -206564 1.87285e+06 0 -196086 1.76095e+06 0 -187019 1.6543e+06 0 -179053 1.55224e+06 0 -171939 1.45426e+06 0 -165472 1.35996e+06 0 -159481 1.26904e+06 0 -153818 1.18131e+06 0 -148357 1.09661e+06 0 -142989 1.01489e+06 0 -137617 936118 0 -132162 860338 0 -126560 787623 0 -120763 718082 0 -114742 651846 0 -108490 589057 0 -102020 529855 0 -95364.2 474367 0 -88577.4 422693 0 -81727.8 374896 0 -74895.1 330994 0 -68163.6 290955 0 -61616.9 254694 0 -55331.8 222081 0 -49373.8 192941 0 -43794.4 167067 0 -38629.2 144225 0 -33898.5 124167 0 -29608.1 106639 0 -25751.7 91387.7 0 -22313.1 78169.7 0 -19268.8 66752.9 0 -16590.8 56921.6 0 -14247.9 48477.7 0 -12208.2 41242.1 0 -10439.9 35054.2 0 -8912.52 29771.3 0 -7597.34 25267.7 0 -6467.94 21433.3 0 -5500.29 18172.4 0 -4672.83 15401.7 0 -3966.39 13049.6 0 -3364.04 11054.3 0 -2850.93 9363.01 0 -2414.1 7930.32 0 -2042.2 6717.67 0 -1725.26 5692.23 0 -1454.43 4826.14 0 -1221.48 4096.07 0 -1017.55 3481.76 0 -833.427 2965.73 0 -651.132 2525.15 0 -460.189 2105.19 0 -329.452 1675.58 0 -629293 3.40904e+06 0 -527520 3.1643e+06 0 -454897 2.95096e+06 0 -400273 2.76004e+06 0 -358534 2.58831e+06 0 -325674 2.43161e+06 0 -299367 2.28735e+06 0 -277920 2.15329e+06 0 -260169 2.02775e+06 0 -245269 1.9094e+06 0 -232589 1.79717e+06 0 -221648 1.69022e+06 0 -212071 1.5879e+06 0 -203557 1.48967e+06 0 -195861 1.39512e+06 0 -188777 1.30395e+06 0 -182129 1.21591e+06 0 -175767 1.13087e+06 0 -169558 1.04873e+06 0 -163388 969446 0 -157158 893050 0 -150788 819598 0 -144214 749190 0 -137392 681947 0 -130303 618010 0 -122949 557525 0 -115357 500629 0 -107576 447440 0 -99677.4 398045 0 -91745.5 352488 0 -83875.5 310767 0 -76164.6 272827 0 -68705.9 238565 0 -61582.2 207832 0 -54862 180439 0 -48596.4 156168 0 -42818.8 134782 0 -37545.3 116033 0 -32776.4 99668.4 0 -28500.2 85443.8 0 -24694.4 73123.3 0 -21329.9 62485.6 0 -18373.2 53326.1 0 -15788.2 45458.1 0 -13538.4 38713.8 0 -11587.9 32942.8 0 -9902.78 28012.4 0 -8451.05 23805.8 0 -7203.53 20220.8 0 -6133.77 17168.6 0 -5218.09 14572.3 0 -4435.45 12365.4 0 -3767.3 10490.9 0 -3197.38 8899.76 0 -2711.47 7550.03 0 -2297.16 6405.92 0 -1943.48 5436.91 0 -1640.74 4617.12 0 -1379.8 3924.51 0 -1151.5 3339.71 0 -945.897 2844.9 0 -748.899 2414.57 0 -564.132 2008.16 0 -442.176 1617.12 0 -619987 3.19378e+06 0 -533327 2.98196e+06 0 -468953 2.79333e+06 0 -419290 2.62208e+06 0 -380349 2.46577e+06 0 -349111 2.32153e+06 0 -323679 2.18742e+06 0 -302643 2.06177e+06 0 -285006 1.94329e+06 0 -270023 1.83095e+06 0 -257124 1.7239e+06 0 -245868 1.62147e+06 0 -235900 1.52313e+06 0 -226932 1.42846e+06 0 -218724 1.33714e+06 0 -211071 1.24893e+06 0 -203798 1.16364e+06 0 -196750 1.08119e+06 0 -189793 1.00151e+06 0 -182811 924614 0 -175705 850546 0 -168395 779392 0 -160823 711267 0 -152953 646308 0 -144775 584663 0 -136306 526478 0 -127589 471885 0 -118692 420993 0 -109704 373870 0 -100725 330543 0 -91865.5 290987 0 -83233 255127 0 -74927.9 222838 0 -67036.5 193953 0 -59627.5 168273 0 -52749.5 145570 0 -46431.3 125604 0 -40683.4 108127 0 -35499.9 92893.1 0 -30862.4 79663.5 0 -26742.4 68212.2 0 -23105.1 58328.5 0 -19911.6 49819 0 -17121.2 42508.5 0 -14693.1 36239.7 0 -12588 30872.9 0 -10768.7 26284.5 0 -9200.61 22366.4 0 -7852.13 19024 0 -6694.78 16175.3 0 -5703.12 13749.3 0 -4854.57 11684.6 0 -4129.25 9928.53 0 -3509.74 8435.9 0 -2980.78 7167.93 0 -2529.06 6091.52 0 -2142.83 5178.41 0 -1811.66 4404.5 0 -1525.81 3749.05 0 -1275.89 3193.57 0 -1052 2719.91 0 -844.678 2303.34 0 -663.283 1915.61 0 -541.273 1557.36 0 -613642 3.00611e+06 0 -538805 2.81956e+06 0 -481502 2.65059e+06 0 -436276 2.49526e+06 0 -400056 2.35174e+06 0 -370520 2.21803e+06 0 -346108 2.09266e+06 0 -325648 1.97436e+06 0 -308285 1.86215e+06 0 -293363 1.75519e+06 0 -280371 1.65283e+06 0 -268902 1.55453e+06 0 -258626 1.45988e+06 0 -249265 1.36854e+06 0 -240589 1.28025e+06 0 -232395 1.19484e+06 0 -224508 1.11218e+06 0 -216774 1.03222e+06 0 -209058 954938 0 -201244 880371 0 -193235 808591 0 -184956 739706 0 -176357 673849 0 -167412 611165 0 -158127 551809 0 -148534 495924 0 -138696 443636 0 -128700 395040 0 -118652 350186 0 -108670 309080 0 -98875.2 271675 0 -89385.1 237872 0 -80304.1 207529 0 -71719.3 180461 0 -63696.8 156458 0 -56280.6 135286 0 -49493.2 116703 0 -43337.8 100462 0 -37801.6 86322.9 0 -32859.1 74056 0 -28475.6 63444.6 0 -24610.4 54289.1 0 -21219.6 46407.2 0 -18258.2 39634.9 0 -15681.9 33825.6 0 -13448 28849.3 0 -11516.8 24591.9 0 -9851.2 20953.3 0 -8417.85 17846.3 0 -7186.57 15195.4 0 -6130.46 12935.2 0 -5225.73 11009.3 0 -4451.41 9369.1 0 -3789.14 7973.04 0 -3222.86 6785.4 0 -2738.52 5775.65 0 -2323.76 4917.69 0 -1967.56 4189.11 0 -1659.8 3570.45 0 -1390.99 3044.06 0 -1151.93 2592.01 0 -936.943 2192.26 0 -756.081 1825.68 0 -629.593 1495.84 0 -609664 2.83975e+06 0 -544383 2.67305e+06 0 -493122 2.51996e+06 0 -451854 2.37769e+06 0 -418212 2.24494e+06 0 -390369 2.12023e+06 0 -367041 2.00244e+06 0 -347251 1.89061e+06 0 -330261 1.78397e+06 0 -315493 1.68186e+06 0 -302489 1.58377e+06 0 -290874 1.48927e+06 0 -280340 1.39803e+06 0 -270624 1.3098e+06 0 -261501 1.22437e+06 0 -252774 1.14163e+06 0 -244270 1.06149e+06 0 -235836 983935 0 -227337 908982 0 -218662 836695 0 -209718 767170 0 -200437 700534 0 -190781 636932 0 -180737 576521 0 -170329 519455 0 -159609 465875 0 -148660 415897 0 -137589 369599 0 -126520 327013 0 -115586 288120 0 -104919 252850 0 -94640.6 221083 0 -84858.5 192657 0 -75657.3 167373 0 -67098.1 145011 0 -59217.9 125331 0 -52031.5 108090 0 -45534 93046.9 0 -39704.8 79967.1 0 -34511.2 68629.5 0 -29912.2 58828.1 0 -25861.5 50374.1 0 -22310.7 43096.7 0 -19210.9 36842.7 0 -16514.3 31476 0 -14175.8 26876.4 0 -12153.3 22938.4 0 -10408 19569.9 0 -8904.84 16690.8 0 -7612.41 14231.7 0 -6502.69 12132.5 0 -5550.91 10341.6 0 -4735.29 8814.37 0 -4036.74 7512.67 0 -3438.59 6403.71 0 -2926.2 5459.41 0 -2486.75 4655.68 0 -2108.81 3971.77 0 -1782.05 3389.45 0 -1497.05 2891.99 0 -1245.61 2462.27 0 -1024.47 2081.61 0 -841.942 1737.14 0 -708.985 1432.52 0 -607721 2.69018e+06 0 -550279 2.53937e+06 0 -504196 2.39929e+06 0 -466456 2.26794e+06 0 -435213 2.14434e+06 0 -409007 2.02738e+06 0 -386776 1.91623e+06 0 -367697 1.81012e+06 0 -351133 1.70846e+06 0 -336572 1.61074e+06 0 -323602 1.51655e+06 0 -311879 1.42555e+06 0 -301114 1.33748e+06 0 -291057 1.25216e+06 0 -281491 1.16944e+06 0 -272223 1.08924e+06 0 -263083 1.01152e+06 0 -253922 936296 0 -244609 863616 0 -235036 793567 0 -225119 726271 0 -214802 661868 0 -204057 600517 0 -192893 542381 0 -181352 487613 0 -169509 436348 0 -157467 388689 0 -145354 344694 0 -133311 304374 0 -121484 267685 0 -110013 234535 0 -99022.3 204780 0 -88617.9 178241 0 -78879.5 154706 0 -69861 133945 0 -61590.7 115716 0 -54074.2 99777.5 0 -47297.9 85892.3 0 -41233 73834.3 0 -35839.6 63391.6 0 -31070.5 54369.2 0 -26874.3 46589.4 0 -23198.4 39892.8 0 -19990.3 34136.8 0 -17199.7 29195.5 0 -14779.1 24958.1 0 -12684.6 21327.6 0 -10876.1 18219.4 0 -9317.21 15560.2 0 -7975.59 13286.5 0 -6822.39 11343.3 0 -5832.14 9683.33 0 -4982.46 8265.96 0 -4253.76 7056.21 0 -3628.87 6024.08 0 -3092.79 5143.82 0 -2632.34 4393.27 0 -2235.83 3753.26 0 -1892.87 3206.79 0 -1594.25 2738.13 0 -1332.78 2331.5 0 -1106.38 1971.48 0 -920.752 1649.23 0 -780.657 1367.47 0 -607533 2.55403e+06 0 -556595 2.4162e+06 0 -514976 2.28695e+06 0 -480383 2.16482e+06 0 -451350 2.04907e+06 0 -426696 1.93886e+06 0 -405538 1.83354e+06 0 -387176 1.73253e+06 0 -371056 1.63536e+06 0 -356724 1.54162e+06 0 -343808 1.45099e+06 0 -331989 1.36323e+06 0 -320998 1.27813e+06 0 -310595 1.19554e+06 0 -300572 1.11539e+06 0 -290741 1.03762e+06 0 -280936 962230 0 -271012 889269 0 -260844 818811 0 -250331 750969 0 -239400 685881 0 -228008 623705 0 -216147 564608 0 -203845 508757 0 -191167 456301 0 -178211 407365 0 -165104 362036 0 -151992 320351 0 -139032 282297 0 -126379 247805 0 -114179 216756 0 -102557 188987 0 -91611.8 164302 0 -81417 142477 0 -72016.8 123275 0 -63429.2 106454 0 -55649.9 91775.1 0 -48655.8 79006.8 0 -42409.8 67931.9 0 -36865.1 58348.9 0 -31968.6 50073.7 0 -27664.4 42940.3 0 -23895.8 36800.1 0 -20607.7 31521.2 0 -17747.3 26987.7 0 -15265.6 23097.7 0 -13117 19762.4 0 -11260.6 16904.5 0 -9659.05 14457 0 -8279.38 12362 0 -7092.15 10569.4 0 -6071.46 9036.23 0 -5194.53 7725.38 0 -4441.41 6604.97 0 -3794.66 5647.65 0 -3239.01 4829.87 0 -2761.06 4131.34 0 -2349.03 3534.36 0 -1992.54 3023.21 0 -1682.73 2583.25 0 -1413.19 2200.32 0 -1182.12 1861.87 0 -992.612 1561.53 0 -845.423 1300.84 0 -608851 2.42883e+06 0 -563376 2.30176e+06 0 -525635 2.18165e+06 0 -493847 2.0674e+06 0 -466836 1.95844e+06 0 -443633 1.85414e+06 0 -423499 1.75399e+06 0 -405833 1.65753e+06 0 -390149 1.56441e+06 0 -376044 1.4743e+06 0 -363178 1.38696e+06 0 -351257 1.3022e+06 0 -340025 1.21986e+06 0 -329256 1.13986e+06 0 -318747 1.06215e+06 0 -308318 986709 0 -297806 913576 0 -287074 842820 0 -276003 774546 0 -264503 708886 0 -252515 645996 0 -240013 586048 0 -227010 529216 0 -213558 475665 0 -199746 425541 0 -185698 378954 0 -171562 335970 0 -157504 296603 0 -143692 260814 0 -130291 228506 0 -117444 199538 0 -105274 173727 0 -93872.8 150859 0 -83303.3 130702 0 -73598.4 113015 0 -64764.8 97556.9 0 -56787.5 84092.2 0 -49633.9 72398 0 -43258.7 62266.5 0 -37608.4 53506.9 0 -32624.6 45946.7 0 -28247.1 39431 0 -24416.1 33822.5 0 -21074 28999.7 0 -18166.4 24856 0 -15642.7 21298.3 0 -13456.7 18245.7 0 -11566.5 15627.7 0 -9934.45 13383.4 0 -8527.04 11460.2 0 -7314.59 9812.72 0 -6270.94 8401.87 0 -5373.1 7193.99 0 -4600.96 6160.15 0 -3936.92 5275.46 0 -3365.6 4518.49 0 -2873.5 3870.68 0 -2448.84 3315.82 0 -2081.36 2839.4 0 -1762.59 2428.02 0 -1486.62 2069.21 0 -1251.37 1752.77 0 -1057.71 1473.82 0 -903.86 1232.81 0 -611475 2.31268e+06 0 -570642 2.19466e+06 0 -536285 2.08234e+06 0 -506999 1.97488e+06 0 -481826 1.87185e+06 0 -459964 1.77276e+06 0 -440787 1.67721e+06 0 -423775 1.58485e+06 0 -408501 1.4954e+06 0 -394601 1.40862e+06 0 -381763 1.32431e+06 0 -369714 1.24234e+06 0 -358212 1.1626e+06 0 -347042 1.08505e+06 0 -336006 1.00966e+06 0 -324931 936464 0 -313663 865518 0 -302068 796920 0 -290041 730798 0 -277504 667306 0 -264415 606614 0 -250769 548904 0 -236603 494355 0 -221996 443130 0 -207064 395363 0 -191955 351147 0 -176839 310525 0 -161898 273485 0 -147310 239957 0 -133242 209821 0 -119836 182910 0 -107207 159021 0 -95436 137930 0 -84573.6 119397 0 -74640 103177 0 -65629.8 89033.6 0 -57516.8 76736.7 0 -50259 66072.4 0 -43803.4 56843.3 0 -38090.2 48870.1 0 -33056.2 41991.9 0 -28637.6 36065.2 0 -24772 30963.3 0 -21400 26575 0 -18465.8 22803 0 -15918 19562.4 0 -13709.8 16779.7 0 -11798.9 14391 0 -10147.4 12341.3 0 -8721.83 10582.9 0 -7492.3 9074.77 0 -6432.62 7781.65 0 -5519.8 6673.07 0 -4733.68 5722.88 0 -4056.66 4908.52 0 -3473.33 4210.55 0 -2970.24 3612.09 0 -2535.69 3098.33 0 -2159.63 2656.02 0 -1833.9 2273.05 0 -1552.89 1938.55 0 -1313.99 1644.21 0 -1116.26 1386.03 0 -956.39 1163.59 0 -615244 2.20412e+06 0 -578393 2.09379e+06 0 -547001 1.98818e+06 0 -519944 1.88662e+06 0 -496433 1.7888e+06 0 -475797 1.69433e+06 0 -457498 1.6029e+06 0 -441085 1.51424e+06 0 -426175 1.42814e+06 0 -412441 1.34441e+06 0 -399593 1.26291e+06 0 -387377 1.18354e+06 0 -375562 1.10626e+06 0 -363941 1.03102e+06 0 -352326 957864 0 -340549 886833 0 -328464 818019 0 -315948 751542 0 -302906 687553 0 -289280 626223 0 -275047 567739 0 -260227 512288 0 -244885 460051 0 -229128 411184 0 -213099 365804 0 -196972 323986 0 -180937 285743 0 -165187 251035 0 -149907 219764 0 -135263 191781 0 -121391 166897 0 -108393 144894 0 -96339.3 125535 0 -85265.1 108575 0 -75177 93772.5 0 -66056.8 80892.8 0 -57867.3 69715.1 0 -50557.5 60035.1 0 -44067.1 51666.6 0 -38330.7 44442.2 0 -33280.8 38212.5 0 -28850.8 32845.5 0 -24976.3 28225.1 0 -21596.3 24249.7 0 -18654.4 20830.9 0 -16098.7 17892 0 -13882.2 15366.3 0 -11962.5 13196.3 0 -10302 11332.4 0 -8866.95 9731.55 0 -7627.85 8356.98 0 -6558.57 7176.84 0 -5636.25 6163.76 0 -4840.85 5294.16 0 -4154.86 4547.72 0 -3562.99 3906.86 0 -3051.89 3356.3 0 -2610.03 2882.59 0 -2227.61 2473.71 0 -1896.75 2118.86 0 -1611.94 1808.67 0 -1369.95 1536.25 0 -1168.49 1298.18 0 -1003.34 1093.39 0 -620027 2.10198e+06 0 -586614 1.99826e+06 0 -557828 1.89846e+06 0 -532754 1.80208e+06 0 -510736 1.70886e+06 0 -491207 1.61851e+06 0 -473699 1.53078e+06 0 -457816 1.44548e+06 0 -443214 1.36244e+06 0 -429593 1.28152e+06 0 -416684 1.20263e+06 0 -404247 1.12571e+06 0 -392062 1.05073e+06 0 -379931 977715 0 -367673 906700 0 -355128 837771 0 -342159 771043 0 -328655 706662 0 -314540 644798 0 -299773 585640 0 -284356 529384 0 -268339 476224 0 -251816 426336 0 -234924 379864 0 -217835 336909 0 -200746 297515 0 -183864 261669 0 -167390 229297 0 -151512 200272 0 -136389 174419 0 -122146 151527 0 -108873 131365 0 -96623.3 113688 0 -85416.9 98249.8 0 -75245.8 84810 0 -66079.2 73141.4 0 -57869.2 63032.4 0 -50556.2 54289.8 0 -44073.1 46739.4 0 -38349.9 40225.6 0 -33315.6 34610.7 0 -28901.3 29774 0 -25041 25609.6 0 -21673.1 22025.4 0 -18740.7 18941.6 0 -16191.9 16288.8 0 -13979.8 14007.2 0 -12062.3 12045.2 0 -10402 10358.1 0 -8965.58 8907.59 0 -7723.79 7660.57 0 -6650.84 6588.58 0 -5724.1 5667.08 0 -4923.78 4874.93 0 -4232.56 4193.9 0 -3635.37 3608.18 0 -3119.05 3103.99 0 -2672.3 2669.21 0 -2285.58 2293.04 0 -1951.24 1965.92 0 -1663.75 1679.83 0 -1419.29 1429 0 -1214.61 1210.36 0 -1044.98 1022.43 0 -625713 2.00531e+06 0 -595283 1.90731e+06 0 -568788 1.8126e+06 0 -545474 1.72078e+06 0 -524788 1.63165e+06 0 -506244 1.54499e+06 0 -489434 1.46062e+06 0 -474003 1.37838e+06 0 -459640 1.29814e+06 0 -446067 1.21983e+06 0 -433033 1.14337e+06 0 -420310 1.06874e+06 0 -407687 995960 0 -394975 925058 0 -382000 856113 0 -368613 789235 0 -354687 724563 0 -340127 662265 0 -324876 602531 0 -308918 545565 0 -292284 491571 0 -275054 440744 0 -257356 393252 0 -239359 349221 0 -221262 308727 0 -203281 271786 0 -185637 238351 0 -168536 208314 0 -152160 181519 0 -136660 157765 0 -122146 136825 0 -108691 118455 0 -96330.5 102406 0 -85069.1 88431.2 0 -74883.6 76297 0 -65730.7 65784.2 0 -57552.3 56692.1 0 -50281 48839.2 0 -43844.2 42063.5 0 -38167.5 36221.7 0 -33177.4 31187.8 0 -28803.3 26851.9 0 -24978.3 23118.1 0 -21640.5 19903.5 0 -18733.1 17136.2 0 -16204.6 14754.1 0 -14008.3 12703.7 0 -12102.9 10938.8 0 -10451.3 9419.67 0 -9020.82 8112.11 0 -7782.67 6986.63 0 -6711.46 6017.87 0 -5784.97 5183.96 0 -4983.74 4466.05 0 -4290.78 3847.85 0 -3691.27 3315.22 0 -3172.34 2855.82 0 -2722.95 2458.79 0 -2333.82 2114.52 0 -1997.5 1814.64 0 -1708.37 1552.29 0 -1462.13 1322.58 0 -1254.84 1122.7 0 -1081.53 950.926 0 -632204 1.91334e+06 0 -604370 1.82033e+06 0 -579888 1.73009e+06 0 -558129 1.64232e+06 0 -538621 1.55685e+06 0 -520940 1.47351e+06 0 -504727 1.39218e+06 0 -489662 1.31273e+06 0 -475458 1.23509e+06 0 -461857 1.15919e+06 0 -448623 1.08501e+06 0 -435537 1.01255e+06 0 -422398 941853 0 -409024 872987 0 -395251 806054 0 -380939 741188 0 -365977 678554 0 -350290 618341 0 -333843 560758 0 -316648 506018 0 -298770 454333 0 -280325 405893 0 -261473 360850 0 -242415 319311 0 -223376 281319 0 -204589 246857 0 -186281 215841 0 -168658 188132 0 -151893 163543 0 -136122 141851 0 -121437 122814 0 -107892 106181 0 -95505.6 91698.9 0 -84263.3 79127.2 0 -74128.1 68238.7 0 -65044.8 58824.5 0 -56946.3 50695.9 0 -49758.1 43684 0 -43402.7 37639.4 0 -37802.7 32430.9 0 -32882.5 27944.1 0 -28570.5 24079.7 0 -24799.7 20751.3 0 -21508.2 17884.7 0 -18639.8 15415.6 0 -16143.4 13288.8 0 -13973.4 11456.7 0 -12088.8 9878.15 0 -10453.7 8518.07 0 -9035.76 7346.08 0 -7806.95 6336.07 0 -6742.44 5465.57 0 -5820.48 4715.21 0 -5022.05 4068.25 0 -4330.55 3510.25 0 -3731.51 3028.61 0 -3212.38 2612.37 0 -2762.42 2251.88 0 -2372.63 1938.65 0 -2035.7 1665.4 0 -1745.91 1426.29 0 -1498.59 1217.14 0 -1289.38 1035.35 0 -1113.18 879.099 0 -639408 1.82542e+06 0 -613838 1.7368e+06 0 -591121 1.65052e+06 0 -570727 1.56635e+06 0 -552245 1.48416e+06 0 -535305 1.40384e+06 0 -519584 1.32527e+06 0 -504790 1.24839e+06 0 -490657 1.17313e+06 0 -476943 1.09948e+06 0 -463423 1.02744e+06 0 -449887 957038 0 -436142 888340 0 -422016 821443 0 -407354 756477 0 -392030 693600 0 -375952 633002 0 -359065 574892 0 -341364 519494 0 -322894 467033 0 -303758 417717 0 -284107 371726 0 -264139 329195 0 -244083 290200 0 -224186 254749 0 -204692 222787 0 -185831 194194 0 -167800 168796 0 -150760 146380 0 -134825 126705 0 -120071 109515 0 -106528 94555.8 0 -94194.6 81576.9 0 -83041.5 70343.3 0 -73017 60637.8 0 -64055.1 52263.4 0 -56080.4 45044 0 -49012.6 38823.9 0 -42770.4 33466.5 0 -37274 28852.7 0 -32446.6 24879.3 0 -28216.4 21457.1 0 -24516.4 18509.1 0 -21285.7 15969.2 0 -18468.5 13780.3 0 -16014.9 11893.5 0 -13880.3 10266.8 0 -12024.6 8863.98 0 -10412.7 7654.04 0 -9013.38 6610.27 0 -7799.09 5709.66 0 -6745.76 4932.44 0 -5832.22 4261.54 0 -5039.99 3682.23 0 -4352.89 3181.73 0 -3756.88 2748.96 0 -3239.78 2374.21 0 -2791.17 2048.97 0 -2402.31 1765.84 0 -2066.03 1518.53 0 -1776.52 1302.06 0 -1528.86 1112.84 0 -1318.42 948.491 0 -1140.11 807.16 0 -647245 1.74101e+06 0 -623646 1.65626e+06 0 -602470 1.57351e+06 0 -583260 1.49256e+06 0 -565659 1.41334e+06 0 -549336 1.33574e+06 0 -533996 1.2597e+06 0 -519371 1.18518e+06 0 -505212 1.11214e+06 0 -491289 1.0406e+06 0 -477386 970572 0 -463302 902126 0 -448854 835352 0 -433876 770373 0 -418228 707343 0 -401800 646449 0 -384521 587902 0 -366364 531931 0 -347358 478772 0 -327586 428654 0 -307191 381780 0 -286363 338314 0 -265335 298361 0 -244362 261962 0 -223708 229088 0 -203622 199641 0 -184329 173464 0 -166013 150351 0 -148815 130065 0 -132828 112351 0 -118102 96944.9 0 -104648 83591.3 0 -92444.9 72045.8 0 -81446.4 62082.2 0 -71588.2 53494.8 0 -62794.7 46099.9 0 -54983.4 39734.8 0 -48069.4 34257.1 0 -41968.5 29543.1 0 -36599.4 25485.5 0 -31885.1 21992.1 0 -27753.7 18983.3 0 -24139.4 16391 0 -20981.9 14156.6 0 -18226.8 12230.1 0 -15825.5 10568.3 0 -13734.3 9134.39 0 -11914.6 7896.74 0 -10332.1 6828.15 0 -8956.61 5905.27 0 -7761.48 5108.02 0 -6723.37 4419.09 0 -5821.79 3823.57 0 -5038.83 3308.56 0 -4358.83 2862.88 0 -3768.2 2476.8 0 -3255.16 2141.82 0 -2809.65 1850.52 0 -2423.18 1596.48 0 -2088.71 1374.33 0 -1800.38 1179.82 0 -1553.11 1009.86 0 -1342.15 862.289 0 -1162.49 735.317 0 -655635 1.65964e+06 0 -633747 1.57833e+06 0 -613904 1.49873e+06 0 -595710 1.42069e+06 0 -578845 1.34414e+06 0 -563011 1.26903e+06 0 -547937 1.19531e+06 0 -533372 1.12296e+06 0 -519081 1.05199e+06 0 -504843 982418 0 -490451 914304 0 -475713 847734 0 -460452 782825 0 -444515 719727 0 -427778 658623 0 -410150 599723 0 -391586 543262 0 -372095 489485 0 -351742 438636 0 -330656 390944 0 -309019 346599 0 -287064 305737 0 -265054 268431 0 -243266 234680 0 -221974 204410 0 -201425 177483 0 -181830 153702 0 -163356 132837 0 -146120 114628 0 -130188 98809.7 0 -115587 85116.2 0 -102306 73294.4 0 -90304.2 63108.5 0 -79520.3 54343.7 0 -69879 46807.9 0 -61296 40331.2 0 -53683.2 34765 0 -46952.3 29980.4 0 -41017.4 25866.3 0 -35796.3 22326.9 0 -31212.5 19280.5 0 -27195 16656.8 0 -23678.9 14395.9 0 -20605.6 12446.4 0 -17922.1 10764.7 0 -15581.1 9313.11 0 -13540.5 8059.61 0 -11762.9 6976.68 0 -10215.2 6040.74 0 -8868.31 5231.53 0 -7696.47 4531.63 0 -6677.19 3926.04 0 -5790.74 3401.82 0 -5019.83 2947.77 0 -4349.37 2554.18 0 -3766.26 2212.6 0 -3259.15 1915.65 0 -2818.33 1656.93 0 -2435.58 1430.92 0 -2103.98 1233.07 0 -1817.69 1059.77 0 -1571.55 908.372 0 -1360.77 776.934 0 -1180.47 663.769 0 -664501 1.58091e+06 0 -644090 1.50267e+06 0 -625387 1.4259e+06 0 -608044 1.35047e+06 0 -591772 1.27635e+06 0 -576298 1.20351e+06 0 -561369 1.13192e+06 0 -546747 1.06159e+06 0 -532208 992547 0 -517540 924839 0 -502543 858548 0 -487031 793787 0 -470841 730701 0 -453831 669468 0 -435895 610297 0 -416970 553425 0 -397043 499106 0 -376161 447600 0 -354435 399153 0 -332040 353985 0 -309203 312263 0 -286193 274091 0 -263303 239500 0 -240823 208440 0 -219028 180792 0 -198156 156375 0 -178399 134961 0 -159898 116291 0 -142742 100095 0 -126971 86097.9 0 -112587 74037.6 0 -99555.9 63667.9 0 -87820.4 54764 0 -77305.6 47124.9 0 -67925.9 40572.7 0 -59590.4 34952.4 0 -52206.8 30129.8 0 -45684.5 25989.3 0 -39936.6 22432.1 0 -34881.3 19373.6 0 -30442.9 16741.9 0 -26551.8 14475.5 0 -23144.9 12522.2 0 -20165.1 10837.5 0 -17561.2 9383.4 0 -15287.7 8127.56 0 -13303.8 7042.27 0 -11573.6 6103.85 0 -10065.5 5292.01 0 -8751.23 4589.34 0 -7606.32 3980.86 0 -6609.1 3453.69 0 -5740.6 2996.71 0 -4984.23 2600.29 0 -4325.52 2256.07 0 -3751.86 1956.78 0 -3252.36 1696.11 0 -2817.68 1468.56 0 -2439.85 1269.48 0 -2112.11 1095 0 -1828.68 942.125 0 -1584.38 808.563 0 -1374.46 692.605 0 -1194.21 592.711 0 -673767 1.50447e+06 0 -654616 1.42898e+06 0 -636872 1.35474e+06 0 -620220 1.28168e+06 0 -604398 1.20978e+06 0 -589149 1.13901e+06 0 -574237 1.06939e+06 0 -559433 1.00094e+06 0 -544521 933702 0 -529297 867760 0 -513567 803220 0 -497155 740220 0 -479908 678934 0 -461704 619569 0 -442459 562363 0 -422142 507576 0 -400779 455480 0 -378464 406343 0 -355358 360408 0 -331684 317875 0 -307714 278880 0 -283750 243484 0 -260104 211667 0 -237075 183331 0 -214929 158309 0 -193884 136378 0 -174108 117283 0 -155711 100745 0 -138752 86483.8 0 -123244 74225.3 0 -109161 63712.6 0 -96451.4 54710.6 0 -85041 47008.3 0 -74843.3 40419.6 0 -65764.5 34782.5 0 -57708.6 29956.9 0 -50580.3 25823 0 -44287.9 22278.3 0 -38744.8 19235.8 0 -33870.1 16621.5 0 -29589.6 14372.8 0 -25835.6 12436.7 0 -22546.9 10767.9 0 -19668.4 9328.22 0 -17150.9 8085.14 0 -14950.7 7010.94 0 -13028.7 6081.98 0 -11350.6 5278.08 0 -9885.99 4581.97 0 -8608.05 3978.83 0 -7493.25 3455.94 0 -6520.9 3002.35 0 -5672.86 2608.59 0 -4933.26 2266.48 0 -4288.26 1968.92 0 -3725.79 1709.73 0 -3235.41 1483.55 0 -2808.16 1285.75 0 -2436.35 1112.42 0 -2113.4 960.37 0 -1833.59 827.075 0 -1591.81 710.608 0 -1383.42 609.483 0 -1203.85 522.326 0 -683355 1.43001e+06 0 -665263 1.35698e+06 0 -648301 1.28504e+06 0 -632184 1.21412e+06 0 -616664 1.14424e+06 0 -601502 1.07538e+06 0 -586471 1.00757e+06 0 -571351 940871 0 -555931 875341 0 -540014 8