<?xml version="1.0"?> 
<VTKFile type="StructuredGrid" version="0.1"> 
<StructuredGrid WholeExtent="0 63 0 63 0 0"> 
<Piece Extent="0 63 0 63 0 0"> 
<PointData>
<DataArray type="Float32" Name="|E|" format="ascii" NumberOfComponents="3"> 
-1.44503e+06 0 0 -1.44113e+06 23427.4 0 -1.43748e+06 46949.8 0 -1.43408e+06 70573.1 0 -1.43091e+06 94303.2 0 -1.42798e+06 118146 0 -1.42528e+06 142107 0 -1.42281e+06 166192 0 -1.42056e+06 190406 0 -1.41853e+06 214755 0 -1.41672e+06 239245 0 -1.41512e+06 263879 0 -1.41372e+06 288664 0 -1.41253e+06 313603 0 -1.41153e+06 338703 0 -1.41073e+06 363966 0 -1.41012e+06 389399 0 -1.40968e+06 415004 0 -1.40943e+06 440787 0 -1.40935e+06 466750 0 -1.40944e+06 492898 0 -1.40969e+06 519233 0 -1.4101e+06 545759 0 -1.41067e+06 572478 0 -1.41138e+06 599394 0 -1.41223e+06 626508 0 -1.41323e+06 653823 0 -1.41436e+06 681340 0 -1.41562e+06 709060 0 -1.417e+06 736985 0 -1.41851e+06 765114 0 -1.42013e+06 793450 0 -1.42187e+06 821990 0 -1.42372e+06 850736 0 -1.42567e+06 879685 0 -1.42774e+06 908839 0 -1.42991e+06 938194 0 -1.43219e+06 967749 0 -1.43457e+06 997503 0 -1.43706e+06 1.02745e+06 0 -1.43966e+06 1.0576e+06 0 -1.44237e+06 1.08794e+06 0 -1.44519e+06 1.11847e+06 0 -1.44814e+06 1.14919e+06 0 -1.45122e+06 1.1801e+06 0 -1.45443e+06 1.21119e+06 0 -1.45779e+06 1.24247e+06 0 -1.46132e+06 1.27395e+06 0 -1.46502e+06 1.30561e+06 0 -1.4689e+06 1.33747e+06 0 -1.473e+06 1.36952e+06 0 -1.47732e+06 1.40179e+06 0 -1.48188e+06 1.43427e+06 0 -1.48672e+06 1.46699e+06 0 -1.49185e+06 1.49995e+06 0 -1.49731e+06 1.53318e+06 0 -1.50311e+06 1.5667e+06 0 -1.50929e+06 1.60055e+06 0 -1.51588e+06 1.63475e+06 0 -1.52291e+06 1.66934e+06 0 -1.53041e+06 1.70438e+06 0 -1.53841e+06 1.73993e+06 0 -1.54694e+06 1.77602e+06 0 -1.55606e+06 1.81278e+06 0 -1.42551e+06 0 0 -1.42164e+06 23888.1 0 -1.41802e+06 47868.9 0 -1.41465e+06 71948.5 0 -1.41151e+06 96133 0 -1.4086e+06 120428 0 -1.40594e+06 144840 0 -1.40349e+06 169374 0 -1.40128e+06 194036 0 -1.39928e+06 218831 0 -1.3975e+06 243765 0 -1.39593e+06 268843 0 -1.39457e+06 294071 0 -1.39341e+06 319452 0 -1.39244e+06 344992 0 -1.39168e+06 370696 0 -1.3911e+06 396568 0 -1.3907e+06 422613 0 -1.39048e+06 448834 0 -1.39044e+06 475235 0 -1.39056e+06 501820 0 -1.39085e+06 528593 0 -1.3913e+06 555556 0 -1.39191e+06 582713 0 -1.39266e+06 610066 0 -1.39356e+06 637618 0 -1.3946e+06 665370 0 -1.39577e+06 693325 0 -1.39708e+06 721484 0 -1.39851e+06 749847 0 -1.40007e+06 778417 0 -1.40175e+06 807192 0 -1.40354e+06 836174 0 -1.40545e+06 865362 0 -1.40747e+06 894755 0 -1.40961e+06 924354 0 -1.41185e+06 954156 0 -1.41421e+06 984162 0 -1.41667e+06 1.01437e+06 0 -1.41925e+06 1.04478e+06 0 -1.42194e+06 1.07538e+06 0 -1.42475e+06 1.10618e+06 0 -1.42768e+06 1.13718e+06 0 -1.43075e+06 1.16838e+06 0 -1.43396e+06 1.19977e+06 0 -1.43731e+06 1.23136e+06 0 -1.44082e+06 1.26314e+06 0 -1.4445e+06 1.29513e+06 0 -1.44837e+06 1.32732e+06 0 -1.45244e+06 1.35972e+06 0 -1.45673e+06 1.39234e+06 0 -1.46126e+06 1.42519e+06 0 -1.46605e+06 1.45828e+06 0 -1.47112e+06 1.49163e+06 0 -1.4765e+06 1.52525e+06 0 -1.48222e+06 1.55918e+06 0 -1.48829e+06 1.59344e+06 0 -1.49476e+06 1.62806e+06 0 -1.50165e+06 1.66309e+06 0 -1.50898e+06 1.69856e+06 0 -1.51679e+06 1.73455e+06 0 -1.52511e+06 1.77109e+06 0 -1.53395e+06 1.80828e+06 0 -1.54335e+06 1.84617e+06 0 -1.40582e+06 0 0 -1.40198e+06 24348.6 0 -1.39839e+06 48787.8 0 -1.39504e+06 73323.6 0 -1.39194e+06 97962.2 0 -1.38907e+06 122710 0 -1.38643e+06 147572 0 -1.38402e+06 172555 0 -1.38183e+06 197665 0 -1.37987e+06 222906 0 -1.37812e+06 248285 0 -1.37658e+06 273807 0 -1.37525e+06 299477 0 -1.37413e+06 325301 0 -1.3732e+06 351282 0 -1.37246e+06 377426 0 -1.37192e+06 403738 0 -1.37156e+06 430222 0 -1.37138e+06 456881 0 -1.37137e+06 483721 0 -1.37153e+06 510745 0 -1.37186e+06 537956 0 -1.37235e+06 565357 0 -1.373e+06 592952 0 -1.37379e+06 620744 0 -1.37473e+06 648734 0 -1.37582e+06 676925 0 -1.37704e+06 705319 0 -1.37839e+06 733918 0 -1.37988e+06 762722 0 -1.38149e+06 791733 0 -1.38322e+06 820951 0 -1.38507e+06 850376 0 -1.38704e+06 880009 0 -1.38913e+06 909850 0 -1.39133e+06 939897 0 -1.39365e+06 970151 0 -1.39608e+06 1.00061e+06 0 -1.39862e+06 1.03128e+06 0 -1.40129e+06 1.06214e+06 0 -1.40408e+06 1.09322e+06 0 -1.40699e+06 1.12449e+06 0 -1.41004e+06 1.15597e+06 0 -1.41322e+06 1.18765e+06 0 -1.41655e+06 1.21953e+06 0 -1.42004e+06 1.25163e+06 0 -1.4237e+06 1.28393e+06 0 -1.42754e+06 1.31644e+06 0 -1.43157e+06 1.34918e+06 0 -1.43582e+06 1.38214e+06 0 -1.4403e+06 1.41534e+06 0 -1.44504e+06 1.44879e+06 0 -1.45004e+06 1.48251e+06 0 -1.45534e+06 1.51652e+06 0 -1.46096e+06 1.55083e+06 0 -1.46693e+06 1.58549e+06 0 -1.47326e+06 1.62052e+06 0 -1.47999e+06 1.65596e+06 0 -1.48715e+06 1.69185e+06 0 -1.49476e+06 1.72826e+06 0 -1.50285e+06 1.76523e+06 0 -1.51143e+06 1.80283e+06 0 -1.52054e+06 1.84115e+06 0 -1.53019e+06 1.88027e+06 0 -1.38596e+06 0 0 -1.38215e+06 24808.9 0 -1.37859e+06 49706.1 0 -1.37528e+06 74698 0 -1.3722e+06 99790.7 0 -1.36936e+06 124990 0 -1.36676e+06 150303 0 -1.36438e+06 175735 0 -1.36223e+06 201292 0 -1.3603e+06 226980 0 -1.35858e+06 252804 0 -1.35708e+06 278770 0 -1.35578e+06 304883 0 -1.35469e+06 331148 0 -1.3538e+06 357571 0 -1.3531e+06 384155 0 -1.35259e+06 410907 0 -1.35226e+06 437830 0 -1.35212e+06 464929 0 -1.35215e+06 492208 0 -1.35235e+06 519670 0 -1.35272e+06 547320 0 -1.35325e+06 575160 0 -1.35394e+06 603194 0 -1.35477e+06 631425 0 -1.35576e+06 659855 0 -1.35689e+06 688486 0 -1.35815e+06 717321 0 -1.35956e+06 746361 0 -1.36109e+06 775607 0 -1.36275e+06 805062 0 -1.36454e+06 834724 0 -1.36645e+06 864596 0 -1.36848e+06 894678 0 -1.37063e+06 924969 0 -1.3729e+06 955469 0 -1.37529e+06 986179 0 -1.3778e+06 1.0171e+06 0 -1.38043e+06 1.04823e+06 0 -1.38319e+06 1.07956e+06 0 -1.38607e+06 1.11111e+06 0 -1.38909e+06 1.14286e+06 0 -1.39224e+06 1.17483e+06 0 -1.39554e+06 1.207e+06 0 -1.399e+06 1.23939e+06 0 -1.40262e+06 1.272e+06 0 -1.40643e+06 1.30483e+06 0 -1.41042e+06 1.33789e+06 0 -1.41462e+06 1.37118e+06 0 -1.41904e+06 1.40473e+06 0 -1.42371e+06 1.43853e+06 0 -1.42864e+06 1.47261e+06 0 -1.43385e+06 1.50698e+06 0 -1.43936e+06 1.54167e+06 0 -1.44521e+06 1.57671e+06 0 -1.45141e+06 1.61212e+06 0 -1.45798e+06 1.64796e+06 0 -1.46496e+06 1.68425e+06 0 -1.47236e+06 1.72105e+06 0 -1.48021e+06 1.75842e+06 0 -1.48853e+06 1.79643e+06 0 -1.49734e+06 1.83514e+06 0 -1.50666e+06 1.87464e+06 0 -1.51649e+06 1.91503e+06 0 -1.36593e+06 0 0 -1.36216e+06 25268.9 0 -1.35863e+06 50624 0 -1.35535e+06 76071.5 0 -1.35231e+06 101618 0 -1.3495e+06 127270 0 -1.34693e+06 153033 0 -1.34459e+06 178914 0 -1.34247e+06 204918 0 -1.34057e+06 231052 0 -1.33889e+06 257321 0 -1.33742e+06 283730 0 -1.33616e+06 310286 0 -1.3351e+06 336994 0 -1.33425e+06 363858 0 -1.33358e+06 390883 0 -1.33311e+06 418075 0 -1.33282e+06 445438 0 -1.33272e+06 472977 0 -1.33278e+06 500695 0 -1.33302e+06 528596 0 -1.33343e+06 556685 0 -1.334e+06 584965 0 -1.33473e+06 613439 0 -1.33561e+06 642110 0 -1.33663e+06 670980 0 -1.33781e+06 700053 0 -1.33912e+06 729330 0 -1.34057e+06 758813 0 -1.34216e+06 788504 0 -1.34387e+06 818404 0 -1.34571e+06 848514 0 -1.34768e+06 878835 0 -1.34978e+06 909368 0 -1.35199e+06 940112 0 -1.35433e+06 971070 0 -1.35679e+06 1.00224e+06 0 -1.35938e+06 1.03362e+06 0 -1.36209e+06 1.06522e+06 0 -1.36494e+06 1.09703e+06 0 -1.36791e+06 1.12906e+06 0 -1.37103e+06 1.1613e+06 0 -1.3743e+06 1.19376e+06 0 -1.37771e+06 1.22644e+06 0 -1.38129e+06 1.25935e+06 0 -1.38505e+06 1.29248e+06 0 -1.38899e+06 1.32586e+06 0 -1.39314e+06 1.35947e+06 0 -1.3975e+06 1.39334e+06 0 -1.40209e+06 1.42748e+06 0 -1.40693e+06 1.46191e+06 0 -1.41205e+06 1.49663e+06 0 -1.41745e+06 1.53168e+06 0 -1.42317e+06 1.56709e+06 0 -1.42922e+06 1.60287e+06 0 -1.43563e+06 1.63908e+06 0 -1.44242e+06 1.67575e+06 0 -1.4496e+06 1.71293e+06 0 -1.45722e+06 1.75068e+06 0 -1.46527e+06 1.78906e+06 0 -1.47378e+06 1.82814e+06 0 -1.48276e+06 1.868e+06 0 -1.49222e+06 1.90874e+06 0 -1.50216e+06 1.95045e+06 0 -1.34574e+06 0 0 -1.342e+06 25728.6 0 -1.33851e+06 51541.1 0 -1.33526e+06 77444.1 0 -1.33226e+06 103444 0 -1.32949e+06 129548 0 -1.32695e+06 155761 0 -1.32464e+06 182090 0 -1.32256e+06 208542 0 -1.32069e+06 235122 0 -1.31905e+06 261835 0 -1.31762e+06 288689 0 -1.31639e+06 315687 0 -1.31537e+06 342837 0 -1.31455e+06 370142 0 -1.31392e+06 397608 0 -1.31348e+06 425241 0 -1.31323e+06 453044 0 -1.31316e+06 481022 0 -1.31327e+06 509180 0 -1.31355e+06 537521 0 -1.314e+06 566050 0 -1.3146e+06 594770 0 -1.31537e+06 623685 0 -1.31629e+06 652797 0 -1.31737e+06 682109 0 -1.31858e+06 711624 0 -1.31994e+06 741345 0 -1.32144e+06 771273 0 -1.32308e+06 801410 0 -1.32485e+06 831758 0 -1.32674e+06 862318 0 -1.32877e+06 893091 0 -1.33092e+06 924078 0 -1.3332e+06 955281 0 -1.33561e+06 986699 0 -1.33815e+06 1.01833e+06 0 -1.34081e+06 1.05019e+06 0 -1.34361e+06 1.08226e+06 0 -1.34654e+06 1.11455e+06 0 -1.34961e+06 1.14706e+06 0 -1.35283e+06 1.1798e+06 0 -1.3562e+06 1.21277e+06 0 -1.35973e+06 1.24596e+06 0 -1.36343e+06 1.2794e+06 0 -1.36731e+06 1.31307e+06 0 -1.37139e+06 1.347e+06 0 -1.37568e+06 1.38119e+06 0 -1.38019e+06 1.41566e+06 0 -1.38495e+06 1.45042e+06 0 -1.38996e+06 1.48548e+06 0 -1.39524e+06 1.52088e+06 0 -1.40083e+06 1.55663e+06 0 -1.40673e+06 1.59277e+06 0 -1.41297e+06 1.62933e+06 0 -1.41956e+06 1.66636e+06 0 -1.42654e+06 1.7039e+06 0 -1.4339e+06 1.742e+06 0 -1.44169e+06 1.78073e+06 0 -1.4499e+06 1.82015e+06 0 -1.45854e+06 1.86035e+06 0 -1.46764e+06 1.90141e+06 0 -1.47717e+06 1.94342e+06 0 -1.48715e+06 1.9865e+06 0 -1.32539e+06 0 0 -1.32169e+06 26187.8 0 -1.31823e+06 52457.3 0 -1.31502e+06 78815.4 0 -1.31205e+06 105269 0 -1.30932e+06 131824 0 -1.30682e+06 158487 0 -1.30454e+06 185265 0 -1.3025e+06 212163 0 -1.30067e+06 239188 0 -1.29906e+06 266347 0 -1.29766e+06 293644 0 -1.29647e+06 321085 0 -1.29549e+06 348676 0 -1.2947e+06 376423 0 -1.29411e+06 404331 0 -1.29371e+06 432403 0 -1.2935e+06 460647 0 -1.29347e+06 489065 0 -1.29361e+06 517663 0 -1.29393e+06 546445 0 -1.29442e+06 575414 0 -1.29507e+06 604575 0 -1.29587e+06 633931 0 -1.29684e+06 663485 0 -1.29795e+06 693241 0 -1.29922e+06 723200 0 -1.30062e+06 753366 0 -1.30217e+06 783740 0 -1.30385e+06 814326 0 -1.30567e+06 845124 0 -1.30763e+06 876136 0 -1.30971e+06 907365 0 -1.31193e+06 938810 0 -1.31427e+06 970474 0 -1.31675e+06 1.00236e+06 0 -1.31935e+06 1.03446e+06 0 -1.32209e+06 1.06679e+06 0 -1.32497e+06 1.09934e+06 0 -1.32799e+06 1.13212e+06 0 -1.33115e+06 1.16513e+06 0 -1.33446e+06 1.19837e+06 0 -1.33794e+06 1.23185e+06 0 -1.34158e+06 1.26557e+06 0 -1.3454e+06 1.29955e+06 0 -1.34941e+06 1.33378e+06 0 -1.35361e+06 1.36828e+06 0 -1.35804e+06 1.40305e+06 0 -1.3627e+06 1.43813e+06 0 -1.3676e+06 1.47352e+06 0 -1.37276e+06 1.50925e+06 0 -1.37821e+06 1.54533e+06 0 -1.38396e+06 1.58181e+06 0 -1.39002e+06 1.61871e+06 0 -1.39642e+06 1.65608e+06 0 -1.40318e+06 1.69395e+06 0 -1.4103e+06 1.73239e+06 0 -1.41781e+06 1.77145e+06 0 -1.42572e+06 1.81119e+06 0 -1.43404e+06 1.85169e+06 0 -1.44277e+06 1.89304e+06 0 -1.45191e+06 1.93533e+06 0 -1.46144e+06 1.97866e+06 0 -1.47136e+06 2.02314e+06 0 -1.30488e+06 0 0 -1.30122e+06 26646.5 0 -1.2978e+06 53372.6 0 -1.29463e+06 80185.3 0 -1.2917e+06 107091 0 -1.289e+06 134097 0 -1.28654e+06 161210 0 -1.2843e+06 188436 0 -1.28229e+06 215781 0 -1.2805e+06 243252 0 -1.27893e+06 270854 0 -1.27757e+06 298595 0 -1.27641e+06 326479 0 -1.27546e+06 354512 0 -1.27472e+06 382700 0 -1.27416e+06 411049 0 -1.2738e+06 439562 0 -1.27362e+06 468246 0 -1.27363e+06 497105 0 -1.27381e+06 526144 0 -1.27417e+06 555366 0 -1.2747e+06 584777 0 -1.27539e+06 614379 0 -1.27623e+06 644177 0 -1.27724e+06 674175 0 -1.2784e+06 704374 0 -1.27971e+06 734779 0 -1.28116e+06 765392 0 -1.28275e+06 796215 0 -1.28449e+06 827250 0 -1.28636e+06 858501 0 -1.28837e+06 889969 0 -1.29051e+06 921655 0 -1.29278e+06 953562 0 -1.29519e+06 985691 0 -1.29773e+06 1.01804e+06 0 -1.30041e+06 1.05062e+06 0 -1.30322e+06 1.08343e+06 0 -1.30618e+06 1.11647e+06 0 -1.30928e+06 1.14974e+06 0 -1.31253e+06 1.18326e+06 0 -1.31594e+06 1.21701e+06 0 -1.31951e+06 1.25101e+06 0 -1.32326e+06 1.28527e+06 0 -1.32719e+06 1.31979e+06 0 -1.33132e+06 1.35459e+06 0 -1.33565e+06 1.38967e+06 0 -1.3402e+06 1.42505e+06 0 -1.34499e+06 1.46076e+06 0 -1.35003e+06 1.4968e+06 0 -1.35534e+06 1.5332e+06 0 -1.36092e+06 1.57e+06 0 -1.36681e+06 1.60722e+06 0 -1.37302e+06 1.64491e+06 0 -1.37956e+06 1.6831e+06 0 -1.38644e+06 1.72185e+06 0 -1.39368e+06 1.76122e+06 0 -1.4013e+06 1.80126e+06 0 -1.40929e+06 1.84204e+06 0 -1.41765e+06 1.88366e+06 0 -1.4264e+06 1.92619e+06 0 -1.43551e+06 1.96974e+06 0 -1.44496e+06 2.01442e+06 0 -1.45473e+06 2.06033e+06 0 -1.28422e+06 0 0 -1.2806e+06 27104.6 0 -1.27722e+06 54286.8 0 -1.27409e+06 81553.6 0 -1.2712e+06 108912 0 -1.26854e+06 136368 0 -1.26611e+06 163930 0 -1.26391e+06 191604 0 -1.26194e+06 219395 0 -1.26019e+06 247311 0 -1.25865e+06 275358 0 -1.25733e+06 303542 0 -1.25621e+06 331868 0 -1.2553e+06 360343 0 -1.25459e+06 388973 0 -1.25407e+06 417762 0 -1.25375e+06 446717 0 -1.25361e+06 475841 0 -1.25365e+06 505141 0 -1.25388e+06 534620 0 -1.25427e+06 564284 0 -1.25484e+06 594136 0 -1.25557e+06 624181 0 -1.25646e+06 654422 0 -1.2575e+06 684864 0 -1.2587e+06 715509 0 -1.26006e+06 746360 0 -1.26155e+06 777421 0 -1.2632e+06 808694 0 -1.26498e+06 840183 0 -1.2669e+06 871888 0 -1.26896e+06 903814 0 -1.27116e+06 935961 0 -1.27349e+06 968333 0 -1.27596e+06 1.00093e+06 0 -1.27857e+06 1.03376e+06 0 -1.28131e+06 1.06682e+06 0 -1.2842e+06 1.10011e+06 0 -1.28723e+06 1.13364e+06 0 -1.29041e+06 1.16742e+06 0 -1.29375e+06 1.20144e+06 0 -1.29725e+06 1.23571e+06 0 -1.30092e+06 1.27025e+06 0 -1.30477e+06 1.30505e+06 0 -1.3088e+06 1.34014e+06 0 -1.31304e+06 1.37551e+06 0 -1.31748e+06 1.41119e+06 0 -1.32215e+06 1.44719e+06 0 -1.32706e+06 1.48353e+06 0 -1.33223e+06 1.52024e+06 0 -1.33766e+06 1.55735e+06 0 -1.34337e+06 1.59487e+06 0 -1.34938e+06 1.63286e+06 0 -1.3557e+06 1.67136e+06 0 -1.36234e+06 1.7104e+06 0 -1.36932e+06 1.75005e+06 0 -1.37664e+06 1.79036e+06 0 -1.38431e+06 1.83141e+06 0 -1.39232e+06 1.87327e+06 0 -1.40069e+06 1.91603e+06 0 -1.40938e+06 1.95977e+06 0 -1.41838e+06 2.0046e+06 0 -1.42767e+06 2.05064e+06 0 -1.43718e+06 2.09801e+06 0 -1.26341e+06 0 0 -1.25983e+06 27562.1 0 -1.2565e+06 55199.8 0 -1.2534e+06 82920.1 0 -1.25055e+06 110730 0 -1.24793e+06 138637 0 -1.24554e+06 166647 0 -1.24339e+06 194768 0 -1.24145e+06 223005 0 -1.23974e+06 251366 0 -1.23824e+06 279856 0 -1.23695e+06 308483 0 -1.23588e+06 337252 0 -1.235e+06 366169 0 -1.23433e+06 395240 0 -1.23385e+06 424470 0 -1.23356e+06 453865 0 -1.23346e+06 483431 0 -1.23354e+06 513171 0 -1.2338e+06 543092 0 -1.23424e+06 573197 0 -1.23484e+06 603492 0 -1.23561e+06 633980 0 -1.23654e+06 664665 0 -1.23763e+06 695552 0 -1.23887e+06 726643 0 -1.24027e+06 757943 0 -1.24181e+06 789454 0 -1.2435e+06 821179 0 -1.24533e+06 853122 0 -1.2473e+06 885285 0 -1.24941e+06 917671 0 -1.25166e+06 950283 0 -1.25405e+06 983123 0 -1.25658e+06 1.01619e+06 0 -1.25925e+06 1.0495e+06 0 -1.26206e+06 1.08304e+06 0 -1.26502e+06 1.11683e+06 0 -1.26812e+06 1.15086e+06 0 -1.27138e+06 1.18514e+06 0 -1.2748e+06 1.21968e+06 0 -1.27839e+06 1.25449e+06 0 -1.28215e+06 1.28956e+06 0 -1.28609e+06 1.32492e+06 0 -1.29022e+06 1.36058e+06 0 -1.29456e+06 1.39654e+06 0 -1.29911e+06 1.43283e+06 0 -1.30389e+06 1.46946e+06 0 -1.3089e+06 1.50646e+06 0 -1.31417e+06 1.54385e+06 0 -1.31971e+06 1.58167e+06 0 -1.32552e+06 1.61995e+06 0 -1.33163e+06 1.65872e+06 0 -1.33803e+06 1.69804e+06 0 -1.34475e+06 1.73796e+06 0 -1.35178e+06 1.77853e+06 0 -1.35914e+06 1.81982e+06 0 -1.36681e+06 1.8619e+06 0 -1.3748e+06 1.90485e+06 0 -1.38309e+06 1.94876e+06 0 -1.39166e+06 1.99373e+06 0 -1.40047e+06 2.03987e+06 0 -1.40949e+06 2.08729e+06 0 -1.41865e+06 2.13612e+06 0 -1.24246e+06 0 0 -1.23892e+06 28018.9 0 -1.23563e+06 56111.4 0 -1.23258e+06 84284.6 0 -1.22976e+06 112546 0 -1.22719e+06 140902 0 -1.22484e+06 169360 0 -1.22272e+06 197927 0 -1.22082e+06 226610 0 -1.21915e+06 255415 0 -1.21769e+06 284350 0 -1.21644e+06 313419 0 -1.2154e+06 342630 0 -1.21457e+06 371988 0 -1.21393e+06 401500 0 -1.21349e+06 431171 0 -1.21324e+06 461007 0 -1.21318e+06 491014 0 -1.2133e+06 521196 0 -1.21359e+06 551558 0 -1.21407e+06 582105 0 -1.21471e+06 612843 0 -1.21552e+06 643774 0 -1.21649e+06 674905 0 -1.21762e+06 706237 0 -1.2189e+06 737777 0 -1.22034e+06 769526 0 -1.22192e+06 801488 0 -1.22366e+06 833668 0 -1.22553e+06 866067 0 -1.22756e+06 898690 0 -1.22972e+06 931539 0 -1.23202e+06 964618 0 -1.23447e+06 997930 0 -1.23705e+06 1.03148e+06 0 -1.23978e+06 1.06527e+06 0 -1.24266e+06 1.0993e+06 0 -1.24568e+06 1.13358e+06 0 -1.24886e+06 1.16812e+06 0 -1.25219e+06 1.20291e+06 0 -1.25569e+06 1.23798e+06 0 -1.25935e+06 1.27332e+06 0 -1.2632e+06 1.30895e+06 0 -1.26722e+06 1.34487e+06 0 -1.27145e+06 1.38111e+06 0 -1.27587e+06 1.41767e+06 0 -1.28052e+06 1.45458e+06 0 -1.28539e+06 1.49186e+06 0 -1.2905e+06 1.52953e+06 0 -1.29585e+06 1.56762e+06 0 -1.30147e+06 1.60617e+06 0 -1.30737e+06 1.64521e+06 0 -1.31354e+06 1.68479e+06 0 -1.32e+06 1.72495e+06 0 -1.32675e+06 1.76576e+06 0 -1.3338e+06 1.80727e+06 0 -1.34115e+06 1.84955e+06 0 -1.34877e+06 1.89267e+06 0 -1.35667e+06 1.93674e+06 0 -1.36482e+06 1.98182e+06 0 -1.37318e+06 2.02803e+06 0 -1.38172e+06 2.07548e+06 0 -1.39038e+06 2.12429e+06 0 -1.39907e+06 2.17458e+06 0 -1.22136e+06 0 0 -1.21787e+06 28475 0 -1.21462e+06 57021.5 0 -1.21161e+06 85646.8 0 -1.20884e+06 114358 0 -1.2063e+06 143164 0 -1.204e+06 172069 0 -1.20192e+06 201083 0 -1.20006e+06 230210 0 -1.19843e+06 259460 0 -1.19701e+06 288837 0 -1.1958e+06 318348 0 -1.1948e+06 348001 0 -1.194e+06 377801 0 -1.1934e+06 407754 0 -1.193e+06 437866 0 -1.19279e+06 468142 0 -1.19276e+06 498590 0 -1.19292e+06 529213 0 -1.19325e+06 560017 0 -1.19376e+06 591007 0 -1.19444e+06 622188 0 -1.19529e+06 653564 0 -1.1963e+06 685140 0 -1.19747e+06 716920 0 -1.19879e+06 748908 0 -1.20027e+06 781108 0 -1.2019e+06 813524 0 -1.20368e+06 846159 0 -1.2056e+06 879017 0 -1.20767e+06 912102 0 -1.20988e+06 945418 0 -1.21224e+06 978967 0 -1.21473e+06 1.01275e+06 0 -1.21738e+06 1.04678e+06 0 -1.22016e+06 1.08106e+06 0 -1.2231e+06 1.11559e+06 0 -1.22619e+06 1.15037e+06 0 -1.22943e+06 1.18542e+06 0 -1.23283e+06 1.22073e+06 0 -1.2364e+06 1.25633e+06 0 -1.24014e+06 1.29222e+06 0 -1.24406e+06 1.3284e+06 0 -1.24816e+06 1.3649e+06 0 -1.25246e+06 1.40173e+06 0 -1.25697e+06 1.4389e+06 0 -1.26169e+06 1.47644e+06 0 -1.26664e+06 1.51438e+06 0 -1.27183e+06 1.55273e+06 0 -1.27725e+06 1.59154e+06 0 -1.28294e+06 1.63083e+06 0 -1.28888e+06 1.67065e+06 0 -1.29509e+06 1.71105e+06 0 -1.30157e+06 1.75207e+06 0 -1.30833e+06 1.79379e+06 0 -1.31535e+06 1.83625e+06 0 -1.32263e+06 1.87953e+06 0 -1.33015e+06 1.92372e+06 0 -1.3379e+06 1.9689e+06 0 -1.34583e+06 2.01517e+06 0 -1.35391e+06 2.06263e+06 0 -1.36208e+06 2.11139e+06 0 -1.37027e+06 2.16158e+06 0 -1.37838e+06 2.21331e+06 0 -1.20012e+06 0 0 -1.19668e+06 28930.2 0 -1.19347e+06 57929.9 0 -1.19051e+06 87006.8 0 -1.18778e+06 116168 0 -1.18529e+06 145421 0 -1.18303e+06 174774 0 -1.18099e+06 204233 0 -1.17917e+06 233805 0 -1.17758e+06 263497 0 -1.1762e+06 293317 0 -1.17503e+06 323271 0 -1.17406e+06 353365 0 -1.17331e+06 383605 0 -1.17274e+06 413999 0 -1.17238e+06 444552 0 -1.1722e+06 475269 0 -1.17222e+06 506158 0 -1.17241e+06 537222 0 -1.17278e+06 568468 0 -1.17333e+06 599901 0 -1.17405e+06 631526 0 -1.17493e+06 663347 0 -1.17598e+06 695369 0 -1.17719e+06 727598 0 -1.17855e+06 760036 0 -1.18007e+06 792688 0 -1.18174e+06 825559 0 -1.18356e+06 858652 0 -1.18553e+06 891971 0 -1.18764e+06 925521 0 -1.1899e+06 959305 0 -1.1923e+06 993327 0 -1.19485e+06 1.02759e+06 0 -1.19755e+06 1.06211e+06 0 -1.20039e+06 1.09687e+06 0 -1.20338e+06 1.1319e+06 0 -1.20653e+06 1.16719e+06 0 -1.20983e+06 1.20275e+06 0 -1.2133e+06 1.2386e+06 0 -1.21693e+06 1.27473e+06 0 -1.22074e+06 1.31117e+06 0 -1.22472e+06 1.34792e+06 0 -1.2289e+06 1.385e+06 0 -1.23327e+06 1.42243e+06 0 -1.23784e+06 1.46023e+06 0 -1.24263e+06 1.49841e+06 0 -1.24764e+06 1.53702e+06 0 -1.25288e+06 1.57607e+06 0 -1.25836e+06 1.6156e+06 0 -1.26408e+06 1.65565e+06 0 -1.27005e+06 1.69626e+06 0 -1.27627e+06 1.73749e+06 0 -1.28273e+06 1.77939e+06 0 -1.28945e+06 1.82201e+06 0 -1.29639e+06 1.86544e+06 0 -1.30356e+06 1.90974e+06 0 -1.31092e+06 1.955e+06 0 -1.31844e+06 2.0013e+06 0 -1.32609e+06 2.04876e+06 0 -1.3338e+06 2.09746e+06 0 -1.34151e+06 2.14753e+06 0 -1.34913e+06 2.19908e+06 0 -1.35654e+06 2.25223e+06 0 -1.17875e+06 0 0 -1.17535e+06 29384.5 0 -1.17219e+06 58836.7 0 -1.16928e+06 88364.1 0 -1.16659e+06 117974 0 -1.16414e+06 147675 0 -1.16192e+06 177474 0 -1.15993e+06 207377 0 -1.15815e+06 237393 0 -1.1566e+06 267528 0 -1.15526e+06 297790 0 -1.15413e+06 328185 0 -1.1532e+06 358720 0 -1.15248e+06 389401 0 -1.15196e+06 420236 0 -1.15163e+06 451229 0 -1.15149e+06 482387 0 -1.15154e+06 513717 0 -1.15177e+06 545223 0 -1.15218e+06 576911 0 -1.15277e+06 608787 0 -1.15352e+06 640856 0 -1.15444e+06 673123 0 -1.15553e+06 705593 0 -1.15678e+06 738270 0 -1.15818e+06 771159 0 -1.15974e+06 804265 0 -1.16145e+06 837592 0 -1.16331e+06 871144 0 -1.16532e+06 904927 0 -1.16747e+06 938943 0 -1.16978e+06 973198 0 -1.17223e+06 1.0077e+06 0 -1.17482e+06 1.04245e+06 0 -1.17757e+06 1.07745e+06 0 -1.18046e+06 1.11271e+06 0 -1.18351e+06 1.14824e+06 0 -1.18671e+06 1.18404e+06 0 -1.19007e+06 1.22013e+06 0 -1.19359e+06 1.2565e+06 0 -1.19728e+06 1.29318e+06 0 -1.20114e+06 1.33018e+06 0 -1.20519e+06 1.36751e+06 0 -1.20942e+06 1.40518e+06 0 -1.21385e+06 1.44322e+06 0 -1.21848e+06 1.48164e+06 0 -1.22332e+06 1.52048e+06 0 -1.22837e+06 1.55976e+06 0 -1.23365e+06 1.59952e+06 0 -1.23915e+06 1.63978e+06 0 -1.24489e+06 1.6806e+06 0 -1.25085e+06 1.72202e+06 0 -1.25704e+06 1.76409e+06 0 -1.26346e+06 1.80686e+06 0 -1.27008e+06 1.85042e+06 0 -1.27691e+06 1.89482e+06 0 -1.2839e+06 1.94014e+06 0 -1.29104e+06 1.98647e+06 0 -1.29828e+06 2.0339e+06 0 -1.30556e+06 2.08253e+06 0 -1.31281e+06 2.13246e+06 0 -1.31996e+06 2.18381e+06 0 -1.32691e+06 2.2367e+06 0 -1.33351e+06 2.29123e+06 0 -1.15725e+06 0 0 -1.1539e+06 29837.9 0 -1.15079e+06 59741.5 0 -1.14791e+06 89718.6 0 -1.14528e+06 119777 0 -1.14287e+06 149924 0 -1.14069e+06 180168 0 -1.13874e+06 210516 0 -1.13701e+06 240975 0 -1.1355e+06 271552 0 -1.1342e+06 302256 0 -1.13311e+06 333091 0 -1.13222e+06 364067 0 -1.13154e+06 395188 0 -1.13105e+06 426463 0 -1.13076e+06 457896 0 -1.13066e+06 489495 0 -1.13075e+06 521266 0 -1.13101e+06 553213 0 -1.13146e+06 585344 0 -1.13208e+06 617664 0 -1.13287e+06 650177 0 -1.13383e+06 682890 0 -1.13495e+06 715808 0 -1.13623e+06 748935 0 -1.13767e+06 782277 0 -1.13927e+06 815837 0 -1.14102e+06 849622 0 -1.14292e+06 883636 0 -1.14497e+06 917883 0 -1.14716e+06 952368 0 -1.14951e+06 987098 0 -1.152e+06 1.02208e+06 0 -1.15464e+06 1.05731e+06 0 -1.15743e+06 1.0928e+06 0 -1.16037e+06 1.12856e+06 0 -1.16347e+06 1.1646e+06 0 -1.16672e+06 1.20092e+06 0 -1.17013e+06 1.23753e+06 0 -1.1737e+06 1.27445e+06 0 -1.17744e+06 1.31168e+06 0 -1.18136e+06 1.34924e+06 0 -1.18545e+06 1.38715e+06 0 -1.18973e+06 1.42542e+06 0 -1.1942e+06 1.46407e+06 0 -1.19887e+06 1.50314e+06 0 -1.20375e+06 1.54264e+06 0 -1.20883e+06 1.58261e+06 0 -1.21412e+06 1.62307e+06 0 -1.21962e+06 1.66408e+06 0 -1.22534e+06 1.70568e+06 0 -1.23127e+06 1.74791e+06 0 -1.2374e+06 1.79082e+06 0 -1.24372e+06 1.83449e+06 0 -1.25022e+06 1.87897e+06 0 -1.25687e+06 1.92434e+06 0 -1.26364e+06 1.97068e+06 0 -1.27049e+06 2.01808e+06 0 -1.27737e+06 2.06663e+06 0 -1.2842e+06 2.11642e+06 0 -1.29092e+06 2.16756e+06 0 -1.29741e+06 2.22017e+06 0 -1.30357e+06 2.27435e+06 0 -1.30924e+06 2.33021e+06 0 -1.13561e+06 0 0 -1.13231e+06 30290.3 0 -1.12925e+06 60644.4 0 -1.12642e+06 91070.2 0 -1.12383e+06 121576 0 -1.12147e+06 152169 0 -1.11934e+06 182857 0 -1.11743e+06 213648 0 -1.11574e+06 244549 0 -1.11427e+06 275568 0 -1.11301e+06 306712 0 -1.11196e+06 337988 0 -1.11111e+06 369404 0 -1.11047e+06 400965 0 -1.11002e+06 432679 0 -1.10977e+06 464553 0 -1.1097e+06 496592 0 -1.10983e+06 528803 0 -1.11013e+06 561193 0 -1.11061e+06 593766 0 -1.11126e+06 626529 0 -1.11209e+06 659488 0 -1.11308e+06 692648 0 -1.11424e+06 726014 0 -1.11556e+06 759592 0 -1.11704e+06 793387 0 -1.11867e+06 827404 0 -1.12045e+06 861648 0 -1.12239e+06 896124 0 -1.12448e+06 930838 0 -1.12671e+06 965795 0 -1.1291e+06 1.001e+06 0 -1.13163e+06 1.03646e+06 0 -1.13431e+06 1.07218e+06 0 -1.13714e+06 1.10817e+06 0 -1.14013e+06 1.14443e+06 0 -1.14326e+06 1.18098e+06 0 -1.14656e+06 1.21782e+06 0 -1.15001e+06 1.25497e+06 0 -1.15363e+06 1.29243e+06 0 -1.15741e+06 1.33021e+06 0 -1.16137e+06 1.36835e+06 0 -1.1655e+06 1.40684e+06 0 -1.16982e+06 1.44572e+06 0 -1.17432e+06 1.485e+06 0 -1.17902e+06 1.52471e+06 0 -1.1839e+06 1.56487e+06 0 -1.18899e+06 1.60554e+06 0 -1.19427e+06 1.64672e+06 0 -1.19976e+06 1.68848e+06 0 -1.20543e+06 1.73086e+06 0 -1.21129e+06 1.7739e+06 0 -1.21732e+06 1.81767e+06 0 -1.22351e+06 1.86223e+06 0 -1.22983e+06 1.90764e+06 0 -1.23626e+06 1.95399e+06 0 -1.24275e+06 2.00134e+06 0 -1.24924e+06 2.0498e+06 0 -1.25569e+06 2.09944e+06 0 -1.262e+06 2.15037e+06 0 -1.26809e+06 2.2027e+06 0 -1.27383e+06 2.25652e+06 0 -1.27911e+06 2.31194e+06 0 -1.28373e+06 2.36906e+06 0 -1.11385e+06 0 0 -1.1106e+06 30741.6 0 -1.10759e+06 61545.1 0 -1.10481e+06 92418.6 0 -1.10227e+06 123370 0 -1.09996e+06 154408 0 -1.09787e+06 185540 0 -1.096e+06 216773 0 -1.09436e+06 248116 0 -1.09293e+06 279576 0 -1.09171e+06 311160 0 -1.0907e+06 342876 0 -1.08989e+06 374731 0 -1.08928e+06 406731 0 -1.08887e+06 438885 0 -1.08866e+06 471198 0 -1.08863e+06 503677 0 -1.08878e+06 536329 0 -1.08912e+06 569160 0 -1.08964e+06 602176 0 -1.09033e+06 635384 0 -1.09119e+06 668788 0 -1.09221e+06 702395 0 -1.09341e+06 736210 0 -1.09476e+06 770240 0 -1.09627e+06 804489 0 -1.09793e+06 838963 0 -1.09975e+06 873667 0 -1.10173e+06 908608 0 -1.10385e+06 943790 0 -1.10612e+06 979221 0 -1.10854e+06 1.0149e+06 0 -1.11111e+06 1.05085e+06 0 -1.11383e+06 1.08706e+06 0 -1.1167e+06 1.12355e+06 0 -1.11972e+06 1.16032e+06 0 -1.1229e+06 1.19738e+06 0 -1.12623e+06 1.23475e+06 0 -1.12972e+06 1.27243e+06 0 -1.13337e+06 1.31043e+06 0 -1.13719e+06 1.34878e+06 0 -1.14118e+06 1.38749e+06 0 -1.14534e+06 1.42658e+06 0 -1.14968e+06 1.46607e+06 0 -1.1542e+06 1.50598e+06 0 -1.1589e+06 1.54634e+06 0 -1.16379e+06 1.58718e+06 0 -1.16886e+06 1.62854e+06 0 -1.17411e+06 1.67045e+06 0 -1.17954e+06 1.71297e+06 0 -1.18514e+06 1.75613e+06 0 -1.1909e+06 1.79999e+06 0 -1.1968e+06 1.84462e+06 0 -1.20281e+06 1.89006e+06 0 -1.20891e+06 1.9364e+06 0 -1.21506e+06 1.98371e+06 0 -1.2212e+06 2.03206e+06 0 -1.22728e+06 2.08156e+06 0 -1.23322e+06 2.13228e+06 0 -1.23893e+06 2.18432e+06 0 -1.24431e+06 2.23778e+06 0 -1.24921e+06 2.29276e+06 0 -1.25349e+06 2.34936e+06 0 -1.25696e+06 2.40765e+06 0 -1.09196e+06 0 0 -1.08877e+06 31191.7 0 -1.08581e+06 62443.5 0 -1.08308e+06 93763.7 0 -1.08059e+06 125160 0 -1.07832e+06 156642 0 -1.07628e+06 188216 0 -1.07446e+06 219891 0 -1.07285e+06 251674 0 -1.07147e+06 283574 0 -1.07029e+06 315598 0 -1.06932e+06 347753 0 -1.06855e+06 380046 0 -1.06798e+06 412486 0 -1.06761e+06 445078 0 -1.06743e+06 477830 0 -1.06743e+06 510750 0 -1.06763e+06 543842 0 -1.068e+06 577115 0 -1.06855e+06 610573 0 -1.06927e+06 644225 0 -1.07016e+06 678075 0 -1.07122e+06 712129 0 -1.07245e+06 746394 0 -1.07383e+06 780876 0 -1.07537e+06 815580 0 -1.07707e+06 850513 0 -1.07892e+06 885679 0 -1.08093e+06 921085 0 -1.08308e+06 956738 0 -1.08539e+06 992643 0 -1.08784e+06 1.02881e+06 0 -1.09044e+06 1.06524e+06 0 -1.0932e+06 1.10194e+06 0 -1.0961e+06 1.13893e+06 0 -1.09915e+06 1.17621e+06 0 -1.10236e+06 1.21379e+06 0 -1.10572e+06 1.25169e+06 0 -1.10924e+06 1.28991e+06 0 -1.11292e+06 1.32847e+06 0 -1.11677e+06 1.36738e+06 0 -1.12077e+06 1.40667e+06 0 -1.12495e+06 1.44636e+06 0 -1.1293e+06 1.48646e+06 0 -1.13382e+06 1.527e+06 0 -1.13852e+06 1.56802e+06 0 -1.14338e+06 1.60954e+06 0 -1.14842e+06 1.6516e+06 0 -1.15361e+06 1.69425e+06 0 -1.15897e+06 1.73752e+06 0 -1.16446e+06 1.78147e+06 0 -1.17008e+06 1.82615e+06 0 -1.17581e+06 1.87162e+06 0 -1.1816e+06 1.91795e+06 0 -1.18743e+06 1.96521e+06 0 -1.19325e+06 2.01346e+06 0 -1.19899e+06 2.0628e+06 0 -1.20459e+06 2.11331e+06 0 -1.20996e+06 2.16508e+06 0 -1.21499e+06 2.21819e+06 0 -1.21956e+06 2.27274e+06 0 -1.22353e+06 2.32881e+06 0 -1.22673e+06 2.38651e+06 0 -1.22895e+06 2.44589e+06 0 -1.06996e+06 0 0 -1.06682e+06 31640.6 0 -1.06391e+06 63339.5 0 -1.06123e+06 95105.1 0 -1.05879e+06 126946 0 -1.05657e+06 158870 0 -1.05457e+06 190886 0 -1.0528e+06 223001 0 -1.05124e+06 255224 0 -1.04989e+06 287563 0 -1.04875e+06 320025 0 -1.04782e+06 352618 0 -1.04709e+06 385350 0 -1.04656e+06 418227 0 -1.04623e+06 451258 0 -1.04608e+06 484450 0 -1.04612e+06 517808 0 -1.04635e+06 551341 0 -1.04676e+06 585055 0 -1.04734e+06 618956 0 -1.04809e+06 653051 0 -1.04902e+06 687347 0 -1.05011e+06 721850 0 -1.05136e+06 756565 0 -1.05278e+06 791500 0 -1.05435e+06 826660 0 -1.05608e+06 862052 0 -1.05796e+06 897681 0 -1.06e+06 933555 0 -1.06218e+06 969679 0 -1.06451e+06 1.00606e+06 0 -1.067e+06 1.04271e+06 0 -1.06963e+06 1.07963e+06 0 -1.07241e+06 1.11683e+06 0 -1.07534e+06 1.15432e+06 0 -1.07842e+06 1.19211e+06 0 -1.08166e+06 1.23022e+06 0 -1.08504e+06 1.26864e+06 0 -1.08858e+06 1.30741e+06 0 -1.09228e+06 1.34652e+06 0 -1.09614e+06 1.38601e+06 0 -1.10016e+06 1.42588e+06 0 -1.10434e+06 1.46617e+06 0 -1.10869e+06 1.50689e+06 0 -1.11319e+06 1.54807e+06 0 -1.11786e+06 1.58975e+06 0 -1.12269e+06 1.63195e+06 0 -1.12766e+06 1.67472e+06 0 -1.13278e+06 1.71809e+06 0 -1.13803e+06 1.76212e+06 0 -1.14339e+06 1.80685e+06 0 -1.14884e+06 1.85235e+06 0 -1.15435e+06 1.89866e+06 0 -1.15988e+06 1.94586e+06 0 -1.16539e+06 1.99402e+06 0 -1.17082e+06 2.04321e+06 0 -1.17611e+06 2.09351e+06 0 -1.18116e+06 2.14501e+06 0 -1.18588e+06 2.19778e+06 0 -1.19016e+06 2.25191e+06 0 -1.19385e+06 2.30748e+06 0 -1.1968e+06 2.36458e+06 0 -1.19882e+06 2.42328e+06 0 -1.19969e+06 2.48364e+06 0 -1.04784e+06 0 0 -1.04475e+06 32088.2 0 -1.04189e+06 64232.9 0 -1.03927e+06 96442.8 0 -1.03687e+06 128726 0 -1.0347e+06 161092 0 -1.03275e+06 193548 0 -1.03102e+06 226103 0 -1.02951e+06 258765 0 -1.0282e+06 291542 0 -1.02711e+06 324441 0 -1.02622e+06 357472 0 -1.02553e+06 390641 0 -1.02503e+06 423956 0 -1.02473e+06 457425 0 -1.02462e+06 491054 0 -1.0247e+06 524852 0 -1.02496e+06 558825 0 -1.0254e+06 592980 0 -1.02601e+06 627323