<?xml version="1.0"?> 
<VTKFile type="StructuredGrid" version="0.1"> 
<StructuredGrid WholeExtent="0 63 0 63 0 0"> 
<Piece Extent="0 63 0 63 0 0"> 
<PointData>
<DataArray type="Float32" Name="|E|" format="ascii" NumberOfComponents="3"> 
1840.76 3079.84 0 12.0149 1018.85 0 -18.969 1051.59 0 -160.047 870.75 0 -144.993 754.306 0 -150.512 632.206 0 -134.009 530.9 0 -120.988 443.277 0 -105.785 370.073 0 -92.2921 308.969 0 -79.8033 258.302 0 -68.8495 216.371 0 -59.249 181.697 0 -50.9629 153.015 0 -43.84 129.256 0 -37.7501 109.535 0 -32.5544 93.1224 0 -28.1282 79.422 0 -24.3579 67.9473 0 -21.1442 58.3033 0 -18.4013 50.1689 0 -16.0557 43.2832 0 -14.0452 37.4341 0 -12.3173 32.4485 0 -10.8283 28.1851 0 -9.54118 24.5279 0 -8.42531 21.3817 0 -7.45498 18.6677 0 -6.60872 16.3206 0 -5.86856 14.2861 0 -5.21943 12.5189 0 -4.64866 10.9808 0 -4.1456 9.63988 0 -3.7012 8.46889 0 -3.30783 7.44486 0 -2.95898 6.54816 0 -2.6491 5.76205 0 -2.37342 5.07213 0 -2.12785 4.46605 0 -1.90887 3.93314 0 -1.71342 3.46418 0 -1.53885 3.05116 0 -1.38283 2.68712 0 -1.24336 2.36603 0 -1.11867 2.08258 0 -1.0072 1.83216 0 -0.907595 1.61071 0 -0.818657 1.41469 0 -0.739335 1.24096 0 -0.668695 1.08678 0 -0.605924 0.949707 0 -0.550308 0.827598 0 -0.501224 0.718547 0 -0.458126 0.620861 0 -0.420541 0.533027 0 -0.388077 0.453694 0 -0.360383 0.381646 0 -0.337195 0.315788 0 -0.318285 0.255119 0 -0.303488 0.198734 0 -0.292689 0.14579 0 -0.285828 0.0955038 0 -0.282898 0.0471387 0 -0.283956 -1.90735e-06 0 882.053 2289.22 0 42.7124 1200.62 0 -99.0021 1039.77 0 -179.922 871.807 0 -177.119 740.449 0 -171.43 620.286 0 -153.284 518.949 0 -136.037 432.903 0 -118.319 361.089 0 -102.39 301.375 0 -88.0404 251.934 0 -75.5287 211.067 0 -64.6857 177.296 0 -55.3915 149.372 0 -47.4588 126.243 0 -40.7156 107.044 0 -34.9933 91.0604 0 -30.1413 77.7128 0 -26.0259 66.5279 0 -22.5315 57.1218 0 -19.5595 49.1829 0 -17.0261 42.4582 0 -14.8611 36.7418 0 -13.0056 31.8659 0 -11.4107 27.6935 0 -10.0354 24.1119 0 -8.84575 21.0288 0 -7.81354 18.3675 0 -6.91517 16.0646 0 -6.13099 14.0674 0 -5.44456 12.3317 0 -4.84211 10.8202 0 -4.31205 9.50188 0 -3.8446 8.35014 0 -3.43152 7.34253 0 -3.06577 6.45989 0 -2.74138 5.68582 0 -2.45323 5.00625 0 -2.19693 4.40907 0 -1.9687 3.88383 0 -1.76528 3.42149 0 -1.58382 3.01419 0 -1.42186 2.65511 0 -1.27725 2.33831 0 -1.14812 2.05858 0 -1.03282 1.81139 0 -0.929905 1.59276 0 -0.838107 1.39917 0 -0.756315 1.22757 0 -0.683545 1.07524 0 -0.618939 0.939793 0 -0.561744 0.819099 0 -0.511304 0.711285 0 -0.467044 0.614686 0 -0.428468 0.527809 0 -0.395159 0.449322 0 -0.366751 0.378023 0 -0.342961 0.31283 0 -0.323551 0.252766 0 -0.308339 0.196926 0 -0.297204 0.14448 0 -0.290073 0.0946561 0 -0.286934 0.0467262 0 -0.287835 9.68575e-08 0 415.41 2016.43 0 -14.851 1269.82 0 -158.576 1037.95 0 -209.391 865.282 0 -206.287 726.659 0 -192.921 607.052 0 -171.656 506.457 0 -150.665 421.998 0 -130.322 351.724 0 -112.082 293.476 0 -95.9187 245.329 0 -81.9175 205.577 0 -69.8828 172.751 0 -59.6264 145.615 0 -50.9209 123.141 0 -43.5551 104.481 0 -37.3308 88.9422 0 -32.0728 75.9589 0 -27.6283 65.0726 0 -23.866 55.9115 0 -20.6751 48.1736 0 -17.9621 41.6142 0 -15.6491 36.034 0 -13.6713 31.2706 0 -11.9746 27.1914 0 -10.5145 23.6873 0 -9.25387 20.6686 0 -8.16198 18.0613 0 -7.21329 15.8037 0 -6.38654 13.8445 0 -5.664 12.1409 0 -5.03082 10.6566 0 -4.47456 9.36135 0 -3.98472 8.22924 0 -3.55246 7.23838 0 -3.17027 6.37006 0 -2.83174 5.60826 0 -2.53143 4.93924 0 -2.26466 4.35112 0 -2.0274 3.8337 0 -1.81618 3.3781 0 -1.62798 2.97663 0 -1.46021 2.62259 0 -1.31057 2.31016 0 -1.1771 2.03422 0 -1.05804 1.79031 0 -0.951875 1.57453 0 -0.85727 1.38343 0 -0.773054 1.21399 0 -0.698192 1.06355 0 -0.631782 0.929739 0 -0.573036 0.810481 0 -0.521262 0.703925 0 -0.475859 0.608429 0 -0.436306 0.522523 0 -0.402166 0.444892 0 -0.373056 0.374354 0 -0.348674 0.309841 0 -0.328769 0.250385 0 -0.31315 0.195098 0 -0.301682 0.143155 0 -0.294285 0.0938003 0 -0.29094 0.0463085 0 -0.291684 1.63913e-07 0 137.127 1882.95 0 -97.6465 1294.73 0 -212.146 1033.92 0 -242.493 854.429 0 -234.111 711.92 0 -214.298 592.746 0 -189.285 493.365 0 -164.78 410.596 0 -141.802 341.994 0 -121.35 285.292 0 -103.435 238.504 0 -88.011 199.916 0 -74.8379 168.071 0 -63.6655 141.754 0 -54.2248 119.957 0 -46.2673 101.854 0 -39.566 86.7724 0 -33.9223 74.1638 0 -29.1647 63.5844 0 -25.1474 54.6746 0 -21.7479 47.1428 0 -18.8635 40.7527 0 -16.4092 35.3118 0 -14.3142 30.6635 0 -12.5201 26.6795 0 -10.9785 23.2545 0 -9.6496 20.3017 0 -8.50024 17.7494 0 -7.50302 15.5379 0 -6.63516 13.6176 0 -5.87769 11.9467 0 -5.21477 10.4902 0 -4.6331 9.21839 0 -4.12154 8.10628 0 -3.67065 7.13248 0 -3.27245 6.27875 0 -2.92017 5.52944 0 -2.60801 4.87114 0 -2.33102 4.29226 0 -2.08495 3.78278 0 -1.86611 3.33404 0 -1.67134 2.93849 0 -1.49787 2.58958 0 -1.34332 2.28158 0 -1.20559 2.00949 0 -1.08285 1.76893 0 -0.973501 1.55605 0 -0.876144 1.36747 0 -0.789548 1.20022 0 -0.712633 1.05169 0 -0.644452 0.919551 0 -0.584181 0.801749 0 -0.531096 0.69647 0 -0.48457 0.602093 0 -0.444057 0.517171 0 -0.4091 0.44041 0 -0.379297 0.370642 0 -0.354331 0.306815 0 -0.33394 0.247979 0 -0.317918 0.193249 0 -0.306123 0.141819 0 -0.298464 0.0929342 0 -0.294914 0.0458864 0 -0.295504 -2.83122e-07 0 -57.2506 1802.79 0 -184.796 1295.55 0 -263.659 1024.98 0 -276.799 840.299 0 -261.082 695.869 0 -235.234 577.481 0 -206.214 479.651 0 -178.33 398.727 0 -152.755 331.917 0 -130.183 276.842 0 -110.584 231.473 0 -93.8049 194.096 0 -79.5486 163.268 0 -67.507 137.796 0 -57.3695 116.697 0 -48.8515 99.1675 0 -41.6984 84.5555 0 -35.6892 72.3311 0 -30.6348 62.066 0 -26.3755 53.4132 0 -22.7777 46.0922 0 -19.7303 39.8749 0 -17.1411 34.5764 0 -14.9342 30.0454 0 -13.0469 26.1585 0 -11.4273 22.8141 0 -10.0329 19.9284 0 -8.82827 17.4322 0 -7.78432 15.2677 0 -6.87681 13.3869 0 -6.08561 11.7493 0 -5.39392 10.321 0 -4.78766 9.07311 0 -4.25503 7.98135 0 -3.78605 7.0249 0 -3.37231 6.186 0 -3.00665 5.4494 0 -2.68295 4.802 0 -2.39601 4.2325 0 -2.14134 3.7311 0 -1.91507 3.28932 0 -1.71388 2.8998 0 -1.53485 2.55609 0 -1.37549 2.2526 0 -1.23359 1.98442 0 -1.10725 1.74724 0 -0.994781 1.53731 0 -0.894725 1.35129 0 -0.805797 1.18627 0 -0.726867 1.03968 0 -0.656948 0.90923 0 -0.59518 0.792907 0 -0.540807 0.688921 0 -0.493176 0.595678 0 -0.451719 0.511754 0 -0.415957 0.435873 0 -0.385473 0.366888 0 -0.359934 0.303758 0 -0.339063 0.245544 0 -0.322645 0.191381 0 -0.310526 0.140468 0 -0.302609 0.0920626 0 -0.298857 0.0454606 0 -0.299295 -5.96046e-07 0 -209.192 1737.91 0 -269.102 1282.28 0 -313.86 1010.71 0 -311.175 823.313 0 -287.274 678.424 0 -255.553 561.297 0 -222.437 465.329 0 -191.279 386.417 0 -163.175 321.513 0 -138.572 268.145 0 -117.363 224.255 0 -99.2959 188.132 0 -84.0129 158.353 0 -71.1497 133.751 0 -60.354 113.369 0 -51.3071 96.4273 0 -43.7276 82.296 0 -37.3733 70.4644 0 -32.0384 60.5201 0 -27.5501 52.1297 0 -23.7644 45.0234 0 -20.5621 38.9823 0 -17.8448 33.8286 0 -15.5314 29.4171 0 -13.5551 25.629 0 -11.8609 22.3665 0 -10.4037 19.5491 0 -9.14602 17.1099 0 -8.05714 14.9932 0 -7.11146 13.1526 0 -6.28774 11.5489 0 -5.56826 10.1492 0 -4.93821 8.92561 0 -4.38517 7.85453 0 -3.89866 6.9157 0 -3.46983 6.09187 0 -3.09116 5.36817 0 -2.75625 4.73185 0 -2.45962 4.17187 0 -2.19657 3.67868 0 -1.96306 3.24398 0 -1.75559 2.86056 0 -1.57114 2.52214 0 -1.40707 2.22322 0 -1.2611 1.959 0 -1.13123 1.72527 0 -1.01571 1.51832 0 -0.913012 1.3349 0 -0.821797 1.17214 0 -0.740891 1.02751 0 -0.669267 0.898779 0 -0.606029 0.783955 0 -0.550392 0.68128 0 -0.501676 0.589187 0 -0.459291 0.506275 0 -0.422738 0.431285 0 -0.391584 0.36309 0 -0.365479 0.300666 0 -0.344137 0.243086 0 -0.327329 0.189493 0 -0.314891 0.139105 0 -0.306719 0.0911808 0 -0.302768 0.045031 0 -0.303055 5.66244e-07 0 -335.993 1677.91 0 -348.312 1259.41 0 -362.593 991.522 0 -344.981 803.738 0 -312.626 659.589 0 -275.138 544.237 0 -237.929 450.424 0 -203.601 373.691 0 -173.049 310.805 0 -146.507 259.222 0 -123.767 216.866 0 -104.481 182.037 0 -88.2293 153.338 0 -74.5924 129.629 0 -63.1778 109.98 0 -53.6337 93.6391 0 -45.6534 79.9984 0 -38.9745 68.5672 0 -33.3754 58.9496 0 -28.6711 50.8261 0 -24.7079 43.9381 0 -21.3592 38.0761 0 -18.5203 33.0695 0 -16.1056 28.7794 0 -14.0445 25.0916 0 -12.2792 21.9124 0 -10.7619 19.1643 0 -9.45347 16.7829 0 -8.32148 14.7148 0 -7.33909 12.9149 0 -6.48404 11.3455 0 -5.73775 9.9749 0 -5.08473 8.77601 0 -4.51195 7.7259 0 -4.00846 6.80497 0 -3.565 5.99642 0 -3.17371 5.28582 0 -2.82789 4.66073 0 -2.52183 4.11041 0 -2.25063 3.62554 0 -2.01006 3.19801 0 -1.79647 2.8208 0 -1.60672 2.48773 0 -1.43806 2.19346 0 -1.28812 1.93326 0 -1.1548 1.70301 0 -1.03629 1.49909 0 -0.931001 1.3183 0 -0.837546 1.15783 0 -0.754704 1.0152 0 -0.681408 0.888201 0 -0.616728 0.774896 0 -0.55985 0.67355 0 -0.510069 0.582621 0 -0.466772 0.500732 0 -0.429442 0.426647 0 -0.397629 0.359252 0 -0.370968 0.297542 0 -0.349161 0.240601 0 -0.331969 0.187588 0 -0.319217 0.137727 0 -0.310794 0.0902915 0 -0.306647 0.044598 0 -0.306785 1.19209e-06 0 -445.899 1618.45 0 -421.893 1229.49 0 -409.505 967.989 0 -377.806 781.792 0 -337.034 639.418 0 -293.897 526.342 0 -252.66 434.965 0 -215.273 360.578 0 -182.37 299.818 0 -153.983 250.092 0 -129.792 209.322 0 -109.359 175.826 0 -92.1967 148.234 0 -77.8348 125.438 0 -65.8406 106.537 0 -55.8313 90.8085 0 -47.4758 77.6671 0 -40.4927 66.6428 0 -34.6458 57.3571 0 -29.7386 49.5045 0 -25.6084 42.838 0 -22.1213 37.1576 0 -19.1676 32.3003 0 -16.6569 28.1331 0 -14.5153 24.547 0 -12.6822 21.4522 0 -11.1076 18.7743 0 -9.7506 16.4516 0 -8.5773 14.4325 0 -7.55968 12.6739 0 -6.6745 11.1394 0 -5.9024 9.79829 0 -5.22721 8.62441 0 -4.63536 7.59556 0 -4.11544 6.69276 0 -3.6578 5.8997 0 -3.25427 5.20237 0 -2.89786 4.58868 0 -2.58264 4.04815 0 -2.30351 3.57171 0 -2.05606 3.15146 0 -1.83652 2.78052 0 -1.6416 2.45289 0 -1.46846 2.16331 0 -1.31463 1.90719 0 -1.17794 1.68047 0 -1.05651 1.47962 0 -0.94869 1.3015 0 -0.853043 1.14335 0 -0.768304 1.00273 0 -0.69337 0.8775 0 -0.627275 0.765731 0 -0.56918 0.665731 0 -0.518353 0.57598 0 -0.474161 0.495129 0 -0.436067 0.421958 0 -0.403606 0.355374 0 -0.3764 0.294385 0 -0.354135 0.238091 0 -0.336565 0.185664 0 -0.323505 0.136337 0 -0.314834 0.0893949 0 -0.310493 0.0441615 0 -0.310485 -1.49012e-06 0 -543.228 1558.05 0 -489.904 1194.11 0 -454.274 940.691 0 -409.359 757.688 0 -360.386 617.99 0 -311.756 507.662 0 -266.601 418.988 0 -226.274 347.107 0 -191.127 288.577 0 -160.993 240.778 0 -135.437 201.642 0 -113.928 169.512 0 -95.9146 143.052 0 -80.8765 121.186 0 -68.3425 103.048 0 -57.9 87.9411 0 -49.195 75.3064 0 -41.9282 64.6948 0 -35.8499 55.7453 0 -30.7526 48.167 0 -26.4657 41.7248 0 -22.8487 36.2281 0 -19.7866 31.5217 0 -17.1852 27.479 0 -14.9673 23.9958 0 -13.0698 20.9863 0 -11.4407 18.3795 0 -10.0374 16.1161 0 -8.82459 14.1468 0 -7.77321 12.43 0 -6.8591 10.9308 0 -6.06217 9.61948 0 -5.36563 8.4709 0 -4.75538 7.46358 0 -4.21959 6.57914 0 -3.74823 5.80177 0 -3.33283 5.11789 0 -2.96616 4.51573 0 -2.64205 3.98512 0 -2.3552 3.51722 0 -2.10107 3.10433 0 -1.87573 2.73975 0 -1.67577 2.41762 0 -1.49827 2.13281 0 -1.34064 1.88081 0 -1.20066 1.65767 0 -1.07637 1.45992 0 -0.966077 1.2845 0 -0.868285 1.1287 0 -0.781689 0.990127 0 -0.70515 0.866677 0 -0.637669 0.756464 0 -0.578381 0.657825 0 -0.526527 0.569268 0 -0.481457 0.489466 0 -0.442613 0.417219 0 -0.409516 0.351456 0 -0.381773 0.291197 0 -0.359059 0.235558 0 -0.341117 0.183722 0 -0.327752 0.134934 0 -0.318838 0.0884886 0 -0.314306 0.0437213 0 -0.314153 1.13249e-06 0 -630.479 1496.16 0 -552.586 1154.38 0 -496.652 910.153 0 -439.423 731.636 0 -382.58 595.396 0 -328.653 488.253 0 -279.721 402.533 0 -236.588 333.311 0 -199.311 277.107 0 -167.534 231.3 0 -140.699 193.842 0 -118.187 163.109 0 -99.3828 137.803 0 -83.7178 116.884 0 -70.6838 99.5192 0 -59.8401 85.0424 0 -50.8112 72.9206 0 -43.2812 62.7264 0 -36.9877 54.1168 0 -31.7135 46.8157 0 -27.2801 40.6 0 -23.5413 35.2888 0 -20.3775 30.735 0 -17.6906 26.8179 0 -15.4007 23.4386 0 -13.4422 20.5153 0 -11.7613 17.9803 0 -10.3139 15.7769 0 -9.06336 13.8578 0 -7.97968 12.1833 0 -7.03785 10.7197 0 -6.21707 9.43859 0 -5.49998 8.31561 0 -4.872 7.33006 0 -4.32088 6.46418 0 -3.83628 5.70269 0 -3.4094 5.03241 0 -3.03278 4.44192 0 -2.70004 3.92134 0 -2.40571 3.46208 0 -2.14508 3.05665 0 -1.91409 2.69851 0 -1.70923 2.38195 0 -1.52747 2.10195 0 -1.36614 1.85412 0 -1.22295 1.63461 0 -1.09587 1.44 0 -0.983159 1.26731 0 -0.88327 1.11388 0 -0.794857 0.977381 0 -0.716747 0.855734 0 -0.647909 0.747096 0 -0.587451 0.649835 0 -0.534591 0.562486 0 -0.488659 0.483743 0 -0.44908 0.412434 0 -0.415358 0.347499 0 -0.387088 0.287979 0 -0.363932 0.233 0 -0.345624 0.181762 0 -0.33196 0.133518 0 -0.322806 0.0875756 0 -0.318086 0.0432769 0 -0.31779 1.13249e-06 0 -709.204 1432.6 0 -610.21 1111.08 0 -536.46 876.84 0 -467.835 703.842 0 -403.523 571.738 0 -344.532 468.176 0 -291.994 385.644 0 -246.201 319.223 0 -206.917 265.436 0 -173.602 221.68 0 -145.577 185.94 0 -122.135 156.632 0 -102.602 132.499 0 -86.3592 112.539 0 -72.8652 95.9575 0 -61.6523 82.1179 0 -52.3249 70.514 0 -44.5522 60.741 0 -38.0596 52.4742 0 -32.6213 45.4525 0 -28.0518 39.4652 0 -24.1994 34.3411 0 -20.9403 29.9409 0 -18.1732 26.1506 0 -15.8155 22.876 0 -13.7994 20.0397 0 -12.0694 17.5771 0 -10.58 15.4342 0 -9.29359 13.5658 0 -8.17908 11.934 0 -7.21072 10.5064 0 -6.36708 9.25574 0 -5.63025 8.15862 0 -4.98521 7.19507 0 -4.41933 6.34796 0 -3.92193 5.60251 0 -3.48396 4.94597 0 -3.09772 4.36728 0 -2.75662 3.85686 0 -2.45502 3.40633 0 -2.18808 3.00844 0 -1.9516 2.65681 0 -1.74198 2.34587 0 -1.55606 2.07075 0 -1.39113 1.82714 0 -1.24481 1.61129 0 -1.11501 1.41986 0 -0.999935 1.24993 0 -0.897997 1.09891 0 -0.807807 0.9645 0 -0.72816 0.844676 0 -0.657993 0.737631 0 -0.596389 0.641762 0 -0.542544 0.555633 0 -0.495766 0.477964 0 -0.455466 0.407601 0 -0.42113 0.343503 0 -0.392343 0.28473 0 -0.368753 0.230418 0 -0.350085 0.179784 0 -0.336127 0.132091 0 -0.326738 0.0866554 0 -0.321831 0.0428308 0 -0.321395 -1.01328e-06 0 -780.433 1367.39 0 -663.027 1064.86 0 -573.58 841.156 0 -494.47 674.509 0 -423.14 547.119 0 -359.35 447.496 0 -303.397 368.366 0 -255.099 304.878 0 -213.938 253.591 0 -179.194 211.939 0 -150.069 177.953 0 -125.774 150.094 0 -105.572 127.15 0 -88.8017 108.161 0 -74.8874 92.3698 0 -63.3372 79.1727 0 -53.737 68.0907 0 -45.7416 58.7418 0 -39.0661 50.82 0 -33.4765 44.0796 0 -28.781 38.3219 0 -24.8231 33.3861 0 -21.4752 29.1406 0 -18.6331 25.4777 0 -16.2117 22.3087 0 -14.1413 19.5599 0 -12.365 17.1702 0 -10.8358 15.0883 0 -9.5153 13.2711 0 -8.37142 11.6823 0 -7.37773 10.291 0 -6.51221 9.07107 0 -5.75645 8.00004 0 -5.09502 7.0587 0 -4.51492 6.23054 0 -4.00519 5.50129 0 -3.55651 4.85863 0 -3.16095 4.29186 0 -2.81176 3.79169 0 -2.50313 3.34999 0 -2.23006 2.95972 0 -1.98826 2.61466 0 -1.774 2.30942 0 -1.58405 2.03921 0 -1.41561 1.79988 0 -1.26623 1.58772 0 -1.13378 1.39951 0 -1.0164 1.23237 0 -0.912462 1.08378 0 -0.820538 0.951485 0 -0.739387 0.833503 0 -0.66792 0.728069 0 -0.605194 0.633608 0 -0.550384 0.548713 0 -0.502778 0.472128 0 -0.46177 0.40272 0 -0.426833 0.33947 0 -0.397537 0.28145 0 -0.373522 0.227815 0 -0.354501 0.17779 0 -0.340254 0.130652 0 -0.330631 0.0857275 0 -0.325543 0.0423799 0 -0.324968 -2.38419e-07 0 -844.882 1300.64 0 -711.258 1016.21 0 -607.938 803.46 0 -519.236 643.828 0 -441.365 521.65 0 -373.069 426.281 0 -313.91 350.746 0 -263.273 290.312 0 -220.37 241.6 0 -184.309 202.101 0 -154.178 169.9 0 -129.105 143.509 0 -108.295 121.767 0 -91.0464 103.758 0 -76.7517 88.7629 0 -64.896 76.2122 0 -55.0481 65.6549 0 -46.8501 56.732 0 -40.0077 49.1567 0 -34.2794 42.6987 0 -29.468 37.1718 0 -25.4127 32.4249 0 -21.9824 28.3348 0 -19.0704 24.8001 0 -16.5894 21.7371 0 -14.4681 19.0764 0 -12.6481 16.7601 0 -11.0814 14.7396 0 -9.72851 12.9738 0 -8.5567 11.4283 0 -7.53887 10.0737 0 -6.65245 8.8847 0 -5.87857 7.83997 0 -5.20141 6.92103 0 -4.60765 6.11198 0 -4.08604 5.39908 0 -3.62703 4.77043 0 -3.22249 4.21569 0 -2.86548 3.72587 0 -2.55003 3.29309 0 -2.27103 2.9105 0 -2.02406 2.57209 0 -1.8053 2.27259 0 -1.61143 2.00736 0 -1.43957 1.77234 0 -1.28722 1.56392 0 -1.15219 1.37896 0 -1.03256 1.21464 0 -0.926666 1.0685 0 -0.833046 0.938341 0 -0.750427 0.822223 0 -0.677689 0.718414 0 -0.613866 0.625374 0 -0.55811 0.541727 0 -0.509694 0.466237 0 -0.467992 0.397795 0 -0.432465 0.3354 0 -0.402671 0.278142 0 -0.378237 0.225188 0 -0.358869 0.175778 0 -0.344339 0.129201 0 -0.334488 0.0847922 0 -0.32922 0.0419257 0 -0.328509 1.78814e-07 0 -903.071 1232.53 0 -755.094 965.548 0 -639.492 764.069 0 -542.064 611.986 0 -458.149 495.438 0 -385.658 404.6 0 -323.518 332.835 0 -270.715 275.56 0 -226.211 229.491 0 -188.948 192.187 0 -157.903 161.797 0 -132.128 136.891 0 -110.773 116.361 0 -93.0952 99.3382 0 -78.4596 85.1433 0 -66.3299 73.2415 0 -56.2592 63.2104 0 -47.8786 54.7147 0 -40.885 47.4868 0 -35.0305 41.3118 0 -30.1131 36.0162 0 -25.9683 31.4589 0 -22.4621 27.5246 0 -19.4852 24.1185 0 -16.9487 21.162 0 -14.7798 18.5897 0 -12.9188 16.3471 0 -11.3167 14.3882 0 -9.93323 12.6743 0 -8.73494 11.1724 0 -7.69416 9.85453 0 -6.7878 8.69675 0 -5.9966 7.67852 0 -5.30438 6.78214 0 -4.69751 5.99235 0 -4.16449 5.29594 0 -3.69554 4.68142 0 -3.28233 4.13881 0 -2.91776 3.65942 0 -2.59572 3.23564 0 -2.31098 2.86082 0 -2.059 2.52911 0 -1.83587 2.23541 0 -1.63819 1.9752 0 -1.46302 1.74453 0 -1.30778 1.53989 0 -1.17022 1.3582 0 -1.0484 1.19673 0 -0.940606 1.05307 0 -0.845332 0.92507 0 -0.761278 0.810833 0 -0.687298 0.708667 0 -0.622402 0.617063 0 -0.565722 0.534675 0 -0.516512 0.460291 0 -0.474131 0.392826 0 -0.438026 0.331294 0 -0.407743 0.274804 0 -0.3829 0.22254 0 -0.363191 0.173749 0 -0.348382 0.127738 0 -0.338306 0.08385 0 -0.332862 0.0414682 0 -0.332016 -1.78814e-07 0 -955.397 1163.23 0 -794.698 913.247 0 -668.227 723.268 0 -562.908 579.159 0 -473.454 468.592 0 -397.095 382.524 0 -332.207 314.681 0 -277.419 260.661 0 -231.458 217.292 0 -193.11 182.219 0 -161.246 153.661 0 -134.846 130.254 0 -113.007 110.943 0 -94.95 94.91 0 -80.0127 81.5174 0 -67.6401 70.2656 0 -57.3716 60.7612 0 -48.8279 52.693 0 -41.6987 45.8125 0 -35.7304 39.9207 0 -30.7169 34.8566 0 -26.4904 30.4891 0 -22.9144 26.7109 0 -19.8777 23.4336 0 -17.2898 20.5837 0 -15.0765 18.1002 0 -13.1771 15.9316 0 -11.5418 14.0346 0 -10.1295 12.3727 0 -8.90617 10.9146 0 -7.84359 9.63375 0 -6.91827 8.50735 0 -6.11055 7.51578 0 -5.40393 6.64211 0 -4.78451 5.87173 0 -4.24053 5.19191 0 -3.76202 4.59163 0 -3.34046 4.06125 0 -2.9686 3.59239 0 -2.6402 3.17768 0 -2.3499 2.81068 0 -2.09307 2.48574 0 -1.86571 2.19789 0 -1.66434 1.94275 0 -1.48594 1.71647 0 -1.32789 1.51564 0 -1.18789 1.33725 0 -1.06393 1.17866 0 -0.954279 1.0375 0 -0.857393 0.911678 0 -0.771939 0.79934 0 -0.696747 0.698831 0 -0.630802 0.608678 0 -0.573219 0.527561 0 -0.523231 0.454294 0 -0.480186 0.387812 0 -0.443515 0.327153 0 -0.412753 0.271439 0 -0.387508 0.219869 0 -0.367465 0.171706 0 -0.352382 0.126264 0 -0.342086 0.0829016 0 -0.336469 0.0410074 0 -0.335491 -7.15256e-07 0 -1002.17 1092.97 0 -830.216 859.623 0 -694.145 681.313 0 -581.736 545.513 0 -487.251 441.218 0 -407.362 360.124 0 -339.971 296.334 0 -283.385 245.652 0 -236.113 205.033 0 -196.798 172.22 0 -164.211 145.511 0 -137.262 123.61 0 -115.001 105.523 0 -96.6131 90.4816 0 -81.4131 77.8916 0 -68.8285 67.2894 0 -58.3865 58.3112 0 -49.6991 50.6697 0 -42.4495 44.1363 0 -36.3796 38.5274 0 -31.2797 33.6944 0 -26.9792 29.5166 0 -23.3396 25.8945 0 -20.2481 22.746 0 -17.6127 20.003 0 -15.3583 17.6083 0 -13.4232 15.5138 0 -11.7568 13.679 0 -10.3173 12.0692 0 -9.07039 10.6551 0 -7.9872 9.41148 0 -7.04388 8.31661 0 -6.22043 7.35185 0 -5.50007 6.50103 0 -4.86864 5.75016 0 -4.31416 5.08706 0 -3.82647 4.50111 0 -3.39688 3.98306 0 -3.018 3.52479 0 -2.68347 3.11922 0 -2.3878 2.76011 0 -2.12628 2.44199 0 -1.89482 2.16004 0 -1.68986 1.91001 0 -1.50834 1.68815 0 -1.34756 1.49117 0 -1.20518 1.31612 0 -1.07915 1.16043 0 -0.967686 1.02179 0 -0.869228 0.898166 0 -0.782409 0.787744 0 -0.706034 0.688909 0 -0.639066 0.600219 0 -0.580599 0.520385 0 -0.529852 0.448245 0 -0.486156 0.382757 0 -0.448932 0.322977 0 -0.417701 0.268045 0 -0.392062 0.217176 0 -0.371691 0.169645 0 -0.35634 0.124779 0 -0.345827 0.0819453 0 -0.34004 0.0405426 0 -0.338932 4.76837e-07 0 -1043.66 1021.96 0 -861.776 804.962 0 -717.261 638.438 0 -598.533 511.207 0 -499.524 413.422 0 -416.448 337.472 0 -346.803 277.847 0 -288.609 230.57 0 -240.178 192.742 0 -200.016 162.211 0 -166.801 137.363 0 -139.38 116.974 0 -116.757 100.111 0 -98.0873 86.0609 0 -82.663 74.272 0 -69.8968 64.3176 0 -59.3053 55.8639 0 -50.4933 48.6479 0 -43.1384 42.4603 0 -36.9789 37.1334 0 -31.802 32.5311 0 -27.4352 28.5425 0 -23.7381 25.0762 0 -20.5967 22.0566 0 -17.9177 19.4204 0 -15.6253 17.1145 0 -13.657 15.0943 0 -11.9616 13.3216 0 -10.4968 11.7642 0 -9.22764 10.3942 0 -8.12499 9.18786 0 -7.16462 8.12466 0 -6.32625 7.18682 0 -5.5928 6.35898 0 -4.9499 5.62773 0 -4.38538 4.98144 0 -3.88888 4.40991 0 -3.45159 3.90425 0 -3.06596 3.45666 0 -2.72551 3.0603 0 -2.42467 2.70914 0 -2.15862 2.39788 0 -1.92319 2.12187 0 -1.71477 1.87699 0 -1.53021 1.6596 0 -1.36678 1.46649 0 -1.22209 1.29481 0 -1.09404 1.14204 0 -0.980824 1.00595 0 -0.880836 0.884539 0 -0.792687 0.77605 0 -0.715158 0.678902 0 -0.647191 0.591689 0 -0.587862 0.513148 0 -0.536373 0.442145 0 -0.492041 0.37766 0 -0.454275 0.318767 0 -0.422585 0.264625 0 -0.39656 0.214463 0 -0.375869 0.16757 0 -0.360254 0.123283 0 -0.349529 0.0809816 0 -0.343575 0.0400757 0 -0.342338 -4.76837e-07 0 -1080.06 950.404 0 -889.498 749.523 0 -737.604 594.856 0 -613.295 476.392 0 -510.262 385.303 0 -424.347 314.638 0 -352.703 259.268 0 -293.095 215.453 0 -243.656 180.447 0 -202.767 152.215 0 -169.021 129.234 0 -141.203 110.357 0 -118.279 94.7181 0 -99.3755 81.6556 0 -83.7648 70.6646 0 -70.8469 61.3549 0 -60.1297 53.423 0 -51.2116 46.6302 0 -43.7663 40.7868 0 -37.5289 35.7406 0 -32.2844 31.3679 0 -27.8587 27.5679 0 -24.1101 24.257 0 -20.9235 21.3658 0 -18.2049 18.8363 0 -15.8777 16.6192 0 -13.8788 14.6732 0 -12.1564 12.9628 0 -10.668 11.4578 0 -9.37795 10.132 0 -8.25699 8.96306 0 -7.28053 7.93161 0 -6.428 7.02081 0 -5.68212 6.21602 0 -5.02831 5.50449 0 -4.45419 4.87509 0 -3.94927 4.31807 0 -3.50459 3.82488 0 -3.11248 3.38803 0 -2.76634 3.00093 0 -2.46051 2.65777 0 -2.19008 2.35343 0 -1.95083 2.08341 0 -1.73905 1.84372 0 -1.55156 1.63082 0 -1.38556 1.44161 0 -1.23862 1.27332 0 -1.10862 1.1235 0 -0.993692 0.989972 0 -0.892215 0.870799 0 -0.802771 0.764258 0 -0.724118 0.668814 0 -0.655177 0.583088 0 -0.595007 0.505852 0 -0.542794 0.435996 0 -0.497841 0.372522 0 -0.459544 0.314524 0 -0.427405 0.261178 0 -0.401003 0.211729 0 -0.379997 0.165478 0 -0.364125 0.121776 0 -0.353191 0.0800112 0 -0.347073 0.0396048 0 -0.345711 5.96046e-07 0 -1111.59 878.532 0 -913.495 693.546 0 -755.209 550.766 0 -626.027 441.209 0 -519.464 356.962 0 -431.059 291.69 0 -357.673 240.649 0 -296.847 200.338 0 -246.552 168.176 0 -205.057 142.252 0 -170.874 121.14 0 -142.737 103.774 0 -119.572 89.353 0 -100.481 77.2733 0 -84.7213 67.0751 0 -71.6811 58.4058 0 -60.8612 50.992 0 -51.8555 44.6194 0 -44.3342 39.1179 0 -38.0304 34.3505 0 -32.7275 30.2062 0 -28.2502 26.5938 0 -24.456 23.4376 0 -21.2289 20.6745 0 -18.4746 18.2512 0 -16.1155 16.1229 0 -14.0885 14.251 0 -12.3413 12.6028 0 -10.8308 11.1502 0 -9.52137 9.86862 0 -8.38323 8.73719 0 -7.39161 7.73758 0 -6.52571 6.85389 0 -5.76805 6.07224 0 -5.10385 5.38051 0 -4.52059 4.76808 0 -4.00763 4.22563 0 -3.55588 3.74498 0 -3.15754 3.31893 0 -2.80594 2.94114 0 -2.49531 2.60603 0 -2.22068 2.30866 0 -1.97772 2.04466 0 -1.76271 1.81019 0 -1.57238 1.60182 0 -1.40389 1.41654 0 -1.25478 1.25167 0 -1.12288 1.10482 0 -1.00629 0.973872 0 -0.903365 0.856951 0 -0.812661 0.752374 0 -0.732914 0.658645 0 -0.663023 0.574419 0 -0.602032 0.498499 0 -0.549113 0.429799 0 -0.503553 0.367344 0 -0.464739 0.310249 0 -0.432161 0.257706 0 -0.405389 0.208975 0 -0.384076 0.163372 0 -0.367951 0.120259 0 -0.356814 0.0790355 0 -0.350534 0.0391314 0 -0.349049 -2.38419e-07 0 -1138.41 806.553 0 -933.875 637.25 0 -770.122 506.351 0 -636.745 405.793 0 -527.136 328.494 0 -436.588 268.698 0 -361.717 222.038 0 -299.871 185.261 0 -248.874 155.957 0 -206.892 132.344 0 -172.369 113.097 0 -143.986 97.2349 0 -120.639 84.0255 0 -101.408 72.9213 0 -85.5354 63.5093 0 -72.4017 55.4746 0 -61.5018 48.5742 0 -52.4263 42.6182 0 -44.8432 37.4555 0 -38.4842 32.9648 0 -33.132 29.0472 0 -28.6102 25.6212 0 -24.7761 22.6188 0 -21.5132 19.9831 0 -18.7268 17.6658 0 -16.339 15.6258 0 -14.2864 13.828 0 -12.5163 12.2419 0 -10.9855 10.8416 0 -9.65792 9.60433 0 -8.50373 8.51042 0 -7.49788 7.54269 0 -6.61939 6.68617 0 -5.85059 5.92773 0 -5.17654 5.25585 0 -4.58459 4.66045 0 -4.06397 4.13263 0 -3.60545 3.66458 0 -3.20116 3.24938 0 -2.84432 2.88096 0 -2.52908 2.55394 0 -2.25039 2.26357 0 -2.00388 2.00563 0 -1.78574 1.77642 0 -1.59266 1.57261 0 -1.42178 1.39129 0 -1.27056 1.22985 0 -1.13681 1.08599 0 -1.01861 0.957651 0 -0.914283 0.842998 0 -0.822355 0.7404 0 -0.741543 0.648399 0 -0.670728 0.565685 0 -0.608938 0.49109 0 -0.55533 0.423556 0 -0.509178 0.362128 0 -0.469859 0.305943 0 -0.436852 0.254208 0 -0.409719 0.206201 0 -0.388105 0.161251 0 -0.371733 0.118732 0 -0.360396 0.0780531 0 -0.353958 0.0386549 0 -0.352352 4.76837e-07 0 -1160.69 734.673 0 -950.743 580.84 0 -782.392 461.78 0 -645.472 370.272 0 -533.288 299.99 0 -440.942 245.726 0 -364.845 203.484 0 -302.174 170.259 0 -250.628 143.818 0 -208.28 122.511 0 -173.51 105.122 0 -144.957 90.7535 0 -121.486 78.7449 0 -102.16 68.6066 0 -86.2103 59.9724 0 -73.0111 52.5654 0 -62.0534 46.1729 0 -52.9255 40.6289 0 -45.2945 35.8017 0 -38.8913 31.5851 0 -33.4983 27.8922 0 -28.9392 24.6511 0 -25.0708 21.8015 0 -21.7767 19.2924 0 -18.9618 17.0805 0 -16.5483 15.1285 0 -14.4724 13.4044 0 -12.6815 11.8803 0 -11.1319 10.5323 0 -9.78766 9.33927 0 -8.61854 8.28287 0 -7.59938 7.34705 0 -6.70905 6.51774 0 -5.92974 5.78254 0 -5.24639 5.13058 0 -4.64619 4.55226 0 -4.11827 4.03913 0 -3.65331 3.58371 0 -3.24334 3.17942 0 -2.88148 2.82041 0 -2.56181 2.50152 0 -2.27923 2.21819 0 -2.02929 1.96635 0 -1.80814 1.74242 0 -1.61242 1.5432 0 -1.43921 1.36586 0 -1.28595 1.20788 0 -1.15042 1.06703 0 -1.03066 0.941312 0 -0.92497 0.828943 0 -0.831852 0.728337 0 -0.750006 0.638077 0 -0.678292 0.556887 0 -0.615724 0.483627 0 -0.561444 0.417267 0 -0.514715 0.356874 0 -0.474903 0.301606 0 -0.441478 0.250687 0 -0.413992 0.203408 0 -0.392084 0.159115 0 -0.375469 0.117194 0 -0.363938 0.0770641 0 -0.357344 0.0381756 0 -0.35562 1.19209e-07 0 -1178.58 663.092 0 -964.203 524.507 0 -792.075 417.212 0 -652.236 334.767 0 -537.939 271.538 0 -444.135 222.84 0 -367.067 185.035 0 -303.768 155.367 0 -251.825 131.785 0 -209.23 112.775 0 -174.307 97.2295 0 -145.655 84.3408 0 -122.117 73.52 0 -102.74 64.3359 0 -86.7493 56.4698 0 -73.5121 49.6823 0 -62.518 43.7911 0 -53.3548 38.6541 0 -45.6892 34.1583 0 -39.2526 30.2127 0 -33.8274 26.7423 0 -29.2377 23.6844 0 -25.3405 20.9863 0 -22.0195 18.6029 0 -19.1798 16.4957 0 -16.7435 14.6313 0 -14.6468 12.9806 0 -12.837 11.5184 0 -11.2703 10.2225 0 -9.91064 9.07359 0 -8.72767 8.05468 0 -7.69612 7.15077 0 -6.79472 6.34868 0 -6.00554 5.63676 0 -5.3134 5.00475 0 -4.7054 4.44356 0 -4.17056 3.94515 0 -3.69947 3.50242 0 -3.28406 3.10906 0 -2.91741 2.75951 0 -2.59351 2.44879 0 -2.30719 2.17253 0 -2.05396 1.92682 0 -1.82991 1.7082 0 -1.63164 1.51359 0 -1.45619 1.34026 0 -1.30096 1.18577 0 -1.16371 1.04794 0 -1.04244 0.924861 0 -0.935423 0.814791 0 -0.841152 0.716191 0 -0.7583 0.627682 0 -0.685713 0.548026 0 -0.622388 0.476112 0 -0.567455 0.410934 0 -0.520164 0.351584 0 -0.479871 0.297238 0 -0.446037 0.24714 0 -0.418207 0.200597 0 -0.396012 0.156967 0 -0.379161 0.115647 0 -0.367438 0.0760686 0 -0.360693 0.0376934 0 -0.358852 -2.38419e-07 0 -1192.23 592.005 0 -974.359 468.43 0 -799.232 372.797 0 -657.073 299.391 0 -541.11 243.224 0 -446.183 200.102 0 -368.397 166.737 0 -304.664 140.62 0 -252.475 119.884 0 -209.752 103.154 0 -174.766 89.4344 0 -146.087 78.0082 0 -122.538 68.3593 0 -103.155 60.1159 0 -87.156 53.0063 0 -73.9073 46.8292 0 -62.8979 41.4319 0 -53.7157 36.696 0 -46.0287 32.5272 0 -39.5689 28.8492 0 -34.1199 25.5986 0 -29.5062 22.7219 0 -25.5856 20.1739 0 -22.2421 17.9152 0 -19.3811 15.912 0 -16.9249 14.1346 0 -14.8097 12.5569 0 -12.9829 11.1562 0 -11.4007 9.9123 0 -10.0269 8.80747 0 -8.83118 7.82599 0 -7.78813 6.95396 0 -6.87641 6.17909 0 -6.07798 5.49047 0 -5.37758 4.87843 0 -4.76222 4.33439 0 -4.22082 3.85074 0 -3.74391 3.42073 0 -3.32334 3.03835 0 -2.95211 2.69828 0 -2.62417 2.39577 0 -2.33427 2.12661 0 -2.07788 1.88705 0 -1.85105 1.67377 0 -1.65032 1.4838 0 -1.47271 1.31449 0 -1.31559 1.16351 0 -1.17667 1.02873 0 -1.05393 0.9083 0 -0.945642 0.800543 0 -0.850253 0.703962 0 -0.766426 0.617217 0 -0.692991 0.539106 0 -0.62893 0.468545 0 -0.573361 0.404556 0 -0.525523 0.346258 0 -0.484762 0.292841 0 -0.45053 0.243571 0 -0.422364 0.197768 0 -0.399888 0.154804 0 -0.382806 0.114089 0 -0.370896 0.075067 0 -0.364003 0.0372088 0 -0.362049 -9.53674e-07 0 -1201.8 521.594 0 -981.317 412.777 0 -803.928 328.673 0 -660.022 264.252 0 -542.828 215.127 0 -447.105 177.572 0 -368.851 148.634 0 -304.877 126.052 0 -252.592 108.14 0 -209.854 93.6671 0 -174.897 81.7513 0 -146.262 71.7665 0 -122.756 63.2712 0 -103.408 55.9527 0 -87.4341 49.5868 0 -74.1997 44.0097 0 -63.1951 39.0981 0 -54.0101 34.7568 0 -46.3142 30.9101 0 -39.8414 27.4959 0 -34.3765 24.4622 0 -29.7454 21.7647 0 -25.8066 19.3651 0 -22.4448 17.2299 0 -19.5659 15.3298 0 -17.0926 13.6387 0 -14.9612 12.1336 0 -13.1193 10.7941 0 -11.5231 9.60199 0 -10.1365 8.54106 0 -8.9291 7.59692 0 -7.87545 6.75673 0 -6.95414 6.00906 0 -6.14709 5.34373 0 -5.43895 4.75167 0 -4.81666 4.22481 0 -4.26908 3.75595 0 -3.78665 3.33869 0 -3.36118 2.96731 0 -2.9856 2.63675 0 -2.65379 2.34247 0 -2.36048 2.08044 0 -2.10106 1.84707 0 -1.87155 1.63915 0 -1.66847 1.45384 0 -1.48878 1.28858 0 -1.32983 1.14111 0 -1.1893 1.0094 0 -1.06516 0.891636 0 -0.955626 0.786204 0 -0.859154 0.691654 0 -0.774382 0.606684 0 -0.700124 0.530127 0 -0.63535 0.460929 0 -0.579162 0.398138 0 -0.530792 0.340897 0 -0.489575 0.288416 0 -0.454956 0.239978 0 -0.426462 0.19492 0 -0.403713 0.152628 0 -0.386406 0.112523 0 -0.374312 0.0740606 0 -0.367275 0.0367209 0 -0.365209 8.34465e-07 0 -1207.42 452.038 0