<?xml version="1.0"?> 
<VTKFile type="StructuredGrid" version="0.1"> 
<StructuredGrid WholeExtent="0 63 0 63 0 0"> 
<Piece Extent="0 63 0 63 0 0"> 
<PointData>
<DataArray type="Float32" Name="|E|" format="ascii" NumberOfComponents="3"> 
933195 -5.72205e-06 0 951695 0.00774689 0 992854 0.00396674 0 1.0406e+06 0.00177541 0 1.08787e+06 0.000801913 0 1.13135e+06 0.000283213 0 1.16967e+06 6.0197e-05 0 1.2024e+06 -6.33709e-05 0 1.22956e+06 -0.000118613 0 1.25141e+06 -0.000151478 0 1.26831e+06 -0.000168577 0 1.2807e+06 -0.000174507 0 1.28902e+06 -0.000172094 0 1.29375e+06 -0.000165254 0 1.29532e+06 -0.00015533 0 1.29419e+06 -0.000143483 0 1.29073e+06 -0.000129044 0 1.28531e+06 -0.000115275 0 1.27827e+06 -0.000100613 0 1.26988e+06 -8.80957e-05 0 1.2604e+06 -7.59065e-05 0 1.25006e+06 -6.52969e-05 0 1.23903e+06 -5.57601e-05 0 1.22749e+06 -4.81904e-05 0 1.21557e+06 -4.07398e-05 0 1.20339e+06 -3.42131e-05 0 1.19106e+06 -2.86996e-05 0 1.17864e+06 -2.31564e-05 0 1.16622e+06 -1.9908e-05 0 1.15386e+06 -1.75238e-05 0 1.1416e+06 -1.42455e-05 0 1.12949e+06 -1.29342e-05 0 1.11756e+06 -1.07884e-05 0 1.10584e+06 -8.46386e-06 0 1.09436e+06 -8.40425e-06 0 1.08314e+06 -6.61612e-06 0 1.0722e+06 -5.90086e-06 0 1.06155e+06 -4.76837e-06 0 1.0512e+06 -4.47035e-06 0 1.04118e+06 -4.35114e-06 0 1.03149e+06 -3.63588e-06 0 1.02213e+06 -3.8743e-06 0 1.01313e+06 -3.51667e-06 0 1.00448e+06 -3.39746e-06 0 996197 -2.98023e-06 0 988287 -2.5034e-06 0 980757 -2.86102e-06 0 973612 -2.563e-06 0 966861 -2.38419e-06 0 960509 -2.26498e-06 0 954563 -2.20537e-06 0 949029 -2.08616e-06 0 943913 -2.11596e-06 0 939220 -1.96695e-06 0 934955 -1.84774e-06 0 931125 -1.78814e-06 0 927732 -1.66893e-06 0 924783 -1.3113e-06 0 922280 -1.2517e-06 0 920227 -8.9407e-07 0 918626 -7.00355e-07 0 917480 -5.1409e-07 0 916790 -2.30968e-07 0 916558 0 0 933179 3.41237e-06 0 951687 -861.196 0 992852 -1241.73 0 1.0406e+06 -1311.18 0 1.08787e+06 -1246.67 0 1.13135e+06 -1120.52 0 1.16967e+06 -971.933 0 1.2024e+06 -818.47 0 1.22956e+06 -669.15 0 1.25141e+06 -528.475 0 1.26831e+06 -398.846 0 1.2807e+06 -281.45 0 1.28902e+06 -176.717 0 1.29375e+06 -84.544 0 1.29533e+06 -4.4493 0 1.29419e+06 64.3119 0 1.29073e+06 122.65 0 1.28532e+06 171.561 0 1.27827e+06 212.065 0 1.26988e+06 245.159 0 1.2604e+06 271.787 0 1.25006e+06 292.818 0 1.23903e+06 309.039 0 1.22749e+06 321.149 0 1.21557e+06 329.762 0 1.20339e+06 335.413 0 1.19106e+06 338.561 0 1.17864e+06 339.6 0 1.16622e+06 338.866 0 1.15386e+06 336.64 0 1.1416e+06 333.161 0 1.12949e+06 328.628 0 1.11756e+06 323.208 0 1.10584e+06 317.037 0 1.09436e+06 310.231 0 1.08314e+06 302.883 0 1.0722e+06 295.07 0 1.06155e+06 286.853 0 1.0512e+06 278.283 0 1.04118e+06 269.401 0 1.03149e+06 260.239 0 1.02213e+06 250.822 0 1.01313e+06 241.17 0 1.00448e+06 231.298 0 996197 221.219 0 988287 210.942 0 980756 200.474 0 973612 189.821 0 966861 178.99 0 960509 167.984 0 954563 156.809 0 949029 145.471 0 943912 133.975 0 939219 122.329 0 934955 110.541 0 931124 98.6208 0 927732 86.5782 0 924783 74.4255 0 922280 62.1757 0 920226 49.8429 0 918626 37.4426 0 917480 24.9907 0 916790 12.5041 0 916558 0 0 933134 -3.57628e-06 0 951662 -1722.82 0 992845 -2483.67 0 1.0406e+06 -2622.46 0 1.08788e+06 -2493.39 0 1.13136e+06 -2241.06 0 1.16967e+06 -1943.87 0 1.2024e+06 -1636.94 0 1.22957e+06 -1338.29 0 1.25142e+06 -1056.94 0 1.26832e+06 -797.683 0 1.2807e+06 -562.891 0 1.28903e+06 -353.424 0 1.29375e+06 -169.079 0 1.29533e+06 -8.89011 0 1.29419e+06 128.632 0 1.29073e+06 245.307 0 1.28532e+06 343.128 0 1.27827e+06 424.135 0 1.26988e+06 490.323 0 1.26041e+06 543.578 0 1.25006e+06 585.64 0 1.23903e+06 618.081 0 1.22749e+06 642.3 0 1.21557e+06 659.526 0 1.2034e+06 670.827 0 1.19106e+06 677.123 0 1.17864e+06 679.202 0 1.16622e+06 677.733 0 1.15386e+06 673.281 0 1.1416e+06 666.323 0 1.12949e+06 657.257 0 1.11756e+06 646.416 0 1.10584e+06 634.075 0 1.09436e+06 620.463 0 1.08314e+06 605.767 0 1.0722e+06 590.139 0 1.06155e+06 573.706 0 1.0512e+06 556.567 0 1.04118e+06 538.803 0 1.03149e+06 520.479 0 1.02213e+06 501.645 0 1.01313e+06 482.34 0 1.00448e+06 462.597 0 996197 442.439 0 988287 421.884 0 980756 400.948 0 973612 379.643 0 966860 357.98 0 960509 335.968 0 954563 313.618 0 949028 290.941 0 943912 267.95 0 939219 244.658 0 934955 221.083 0 931124 197.242 0 927732 173.157 0 924782 148.851 0 922279 124.351 0 920226 99.6859 0 918625 74.8852 0 917479 49.9815 0 916790 25.0082 0 916557 0 0 933058 2.14577e-06 0 951620 -2585.29 0 992834 -3726.05 0 1.04061e+06 -3933.94 0 1.08789e+06 -3740.19 0 1.13137e+06 -3361.62 0 1.16968e+06 -2915.81 0 1.20242e+06 -2455.4 0 1.22958e+06 -2007.42 0 1.25143e+06 -1585.39 0 1.26833e+06 -1196.5 0 1.28071e+06 -844.312 0 1.28903e+06 -530.113 0 1.29376e+06 -253.596 0 1.29533e+06 -13.3138 0 1.29419e+06 192.967 0 1.29074e+06 367.978 0 1.28532e+06 514.708 0 1.27827e+06 636.217 0 1.26988e+06 735.496 0 1.26041e+06 815.377 0 1.25006e+06 878.469 0 1.23903e+06 927.129 0 1.22749e+06 963.457 0 1.21557e+06 989.295 0 1.2034e+06 1006.25 0 1.19106e+06 1015.69 0 1.17864e+06 1018.81 0 1.16622e+06 1016.6 0 1.15386e+06 1009.92 0 1.1416e+06 999.486 0 1.12949e+06 985.887 0 1.11756e+06 969.625 0 1.10584e+06 951.114 0 1.09436e+06 930.695 0 1.08314e+06 908.651 0 1.0722e+06 885.21 0 1.06155e+06 860.56 0 1.0512e+06 834.851 0 1.04118e+06 808.205 0 1.03148e+06 780.719 0 1.02213e+06 752.467 0 1.01313e+06 723.511 0 1.00448e+06 693.896 0 996196 663.658 0 988286 632.826 0 980755 601.422 0 973611 569.465 0 966860 536.97 0 960508 503.952 0 954562 470.428 0 949028 436.412 0 943911 401.925 0 939218 366.988 0 934954 331.624 0 931123 295.863 0 927731 259.735 0 924781 223.277 0 922278 186.527 0 920225 149.529 0 918624 112.328 0 917478 74.9722 0 916789 37.5124 0 916556 0 0 932951 -1.40071e-06 0 951562 -3449.04 0 992819 -4969.08 0 1.04061e+06 -5245.7 0 1.0879e+06 -4987.13 0 1.13138e+06 -4482.23 0 1.1697e+06 -3887.76 0 1.20243e+06 -3273.85 0 1.22959e+06 -2676.53 0 1.25144e+06 -2113.82 0 1.26834e+06 -1595.29 0 1.28072e+06 -1125.71 0 1.28904e+06 -706.773 0 1.29376e+06 -338.085 0 1.29534e+06 -17.712 0 1.2942e+06 257.326 0 1.29074e+06 490.67 0 1.28532e+06 686.307 0 1.27828e+06 848.315 0 1.26989e+06 980.685 0 1.26041e+06 1087.19 0 1.25006e+06 1171.31 0 1.23904e+06 1236.19 0 1.22749e+06 1284.62 0 1.21557e+06 1319.07 0 1.2034e+06 1341.67 0 1.19106e+06 1354.26 0 1.17864e+06 1358.42 0 1.16622e+06 1355.47 0 1.15386e+06 1346.57 0 1.1416e+06 1332.65 0 1.12949e+06 1314.52 0 1.11756e+06 1292.84 0 1.10584e+06 1268.15 0 1.09436e+06 1240.93 0 1.08314e+06 1211.54 0 1.07219e+06 1180.28 0 1.06154e+06 1147.41 0 1.0512e+06 1113.14 0 1.04118e+06 1077.61 0 1.03148e+06 1040.96 0 1.02213e+06 1003.29 0 1.01313e+06 964.682 0 1.00448e+06 925.195 0 996195 884.878 0 988285 843.769 0 980754 801.897 0 973610 759.287 0 966859 715.96 0 960507 671.937 0 954561 627.237 0 949027 581.884 0 943910 535.901 0 939217 489.318 0 934953 442.166 0 931122 394.484 0 927730 346.314 0 924780 297.703 0 922277 248.703 0 920224 199.372 0 918623 149.771 0 917477 99.9631 0 916787 50.0165 0 916555 0 0 932813 1.43051e-06 0 951487 -4314.49 0 992799 -6212.97 0 1.04061e+06 -6557.86 0 1.08791e+06 -6234.24 0 1.1314e+06 -5602.91 0 1.16972e+06 -4859.73 0 1.20245e+06 -4092.28 0 1.22961e+06 -3345.62 0 1.25146e+06 -2642.21 0 1.26836e+06 -1994.05 0 1.28073e+06 -1407.06 0 1.28905e+06 -883.395 0 1.29377e+06 -422.538 0 1.29535e+06 -22.0761 0 1.29421e+06 321.716 0 1.29075e+06 613.391 0 1.28533e+06 857.931 0 1.27828e+06 1060.44 0 1.26989e+06 1225.89 0 1.26041e+06 1359.02 0 1.25006e+06 1464.16 0 1.23904e+06 1545.26 0 1.2275e+06 1605.8 0 1.21558e+06 1648.85 0 1.2034e+06 1677.1 0 1.19106e+06 1692.84 0 1.17864e+06 1698.03 0 1.16622e+06 1694.35 0 1.15386e+06 1683.22 0 1.1416e+06 1665.82 0 1.12949e+06 1643.15 0 1.11756e+06 1616.05 0 1.10584e+06 1585.2 0 1.09436e+06 1551.16 0 1.08314e+06 1514.42 0 1.07219e+06 1475.35 0 1.06154e+06 1434.27 0 1.0512e+06 1391.42 0 1.04118e+06 1347.01 0 1.03148e+06 1301.2 0 1.02213e+06 1254.11 0 1.01312e+06 1205.85 0 1.00448e+06 1156.5 0 996194 1106.1 0 988284 1054.71 0 980753 1002.37 0 973609 949.11 0 966857 894.951 0 960505 839.922 0 954559 784.048 0 949025 727.356 0 943909 669.877 0 939216 611.648 0 934951 552.709 0 931120 493.106 0 927728 432.893 0 924779 372.129 0 922276 310.88 0 920222 249.216 0 918622 187.214 0 917476 124.954 0 916786 62.5208 0 916554 0 0 932645 -1.10269e-06 0 951396 -5182.06 0 992775 -7457.94 0 1.04061e+06 -7870.49 0 1.08793e+06 -7481.57 0 1.13142e+06 -6723.66 0 1.16974e+06 -5831.71 0 1.20247e+06 -4910.7 0 1.22963e+06 -4014.67 0 1.25148e+06 -3170.56 0 1.26837e+06 -2392.75 0 1.28075e+06 -1688.37 0 1.28907e+06 -1059.97 0 1.29379e+06 -506.946 0 1.29536e+06 -26.3979 0 1.29422e+06 386.145 0 1.29076e+06 736.147 0 1.28534e+06 1029.59 0 1.27829e+06 1272.58 0 1.2699e+06 1471.12 0 1.26042e+06 1630.87 0 1.25007e+06 1757.03 0 1.23904e+06 1854.34 0 1.2275e+06 1926.98 0 1.21558e+06 1978.65 0 1.2034e+06 2012.54 0 1.19106e+06 2031.42 0 1.17864e+06 2037.65 0 1.16622e+06 2033.23 0 1.15386e+06 2019.87 0 1.1416e+06 1998.99 0 1.12949e+06 1971.79 0 1.11756e+06 1939.27 0 1.10584e+06 1902.24 0 1.09436e+06 1861.4 0 1.08314e+06 1817.31 0 1.07219e+06 1770.43 0 1.06154e+06 1721.13 0 1.0512e+06 1669.71 0 1.04118e+06 1616.42 0 1.03148e+06 1561.44 0 1.02213e+06 1504.94 0 1.01312e+06 1447.03 0 1.00448e+06 1387.8 0 996192 1327.32 0 988282 1265.66 0 980751 1202.85 0 973607 1138.93 0 966856 1073.94 0 960504 1007.91 0 954558 940.858 0 949023 872.828 0 943907 803.854 0 939214 733.979 0 934949 663.251 0 931119 591.728 0 927726 519.472 0 924777 446.556 0 922274 373.056 0 920220 299.059 0 918620 224.657 0 917474 149.945 0 916784 75.0251 0 916552 0 0 932446 1.90735e-06 0 951288 -6052.2 0 992747 -8704.21 0 1.04062e+06 -9183.71 0 1.08794e+06 -8729.16 0 1.13144e+06 -7844.51 0 1.16977e+06 -6803.71 0 1.2025e+06 -5729.1 0 1.22966e+06 -4683.68 0 1.2515e+06 -3698.86 0 1.2684e+06 -2791.41 0 1.28077e+06 -1969.62 0 1.28909e+06 -1236.49 0 1.2938e+06 -591.3 0 1.29537e+06 -30.6687 0 1.29423e+06 450.621 0 1.29077e+06 858.945 0 1.28534e+06 1201.28 0 1.27829e+06 1484.76 0 1.2699e+06 1716.38 0 1.26042e+06 1902.74 0 1.25007e+06 2049.93 0 1.23904e+06 2163.44 0 1.2275e+06 2248.19 0 1.21558e+06 2308.46 0 1.2034e+06 2347.99 0 1.19106e+06 2370.01 0 1.17864e+06 2377.28 0 1.16622e+06 2372.12 0 1.15386e+06 2356.53 0 1.1416e+06 2332.17 0 1.12949e+06 2300.43 0 1.11755e+06 2262.48 0 1.10584e+06 2219.29 0 1.09436e+06 2171.64 0 1.08313e+06 2120.2 0 1.07219e+06 2065.5 0 1.06154e+06 2007.98 0 1.0512e+06 1948 0 1.04117e+06 1885.82 0 1.03148e+06 1821.69 0 1.02213e+06 1755.77 0 1.01312e+06 1688.2 0 1.00447e+06 1619.1 0 996191 1548.54 0 988280 1476.6 0 980749 1403.33 0 973605 1328.76 0 966854 1252.94 0 960502 1175.89 0 954556 1097.67 0 949021 1018.3 0 943905 937.831 0 939212 856.31 0 934947 773.795 0 931117 690.351 0 927724 606.052 0 924775 520.983 0 922272 435.233 0 920218 348.903 0 918617 262.1 0 917471 174.936 0 916782 87.5294 0 916549 0 0 932216 -1.60933e-06 0 951164 -6925.33 0 992715 -9951.97 0 1.04062e+06 -10497.6 0 1.08797e+06 -9977.05 0 1.13147e+06 -8965.46 0 1.1698e+06 -7775.73 0 1.20253e+06 -6547.47 0 1.22969e+06 -5352.65 0 1.25153e+06 -4227.1 0 1.26842e+06 -3189.99 0 1.28079e+06 -2250.8 0 1.28911e+06 -1412.94 0 1.29382e+06 -675.59 0 1.29539e+06 -34.8801 0 1.29424e+06 515.152 0 1.29078e+06 981.792 0 1.28535e+06 1373.02 0 1.2783e+06 1696.98 0 1.26991e+06 1961.68 0 1.26042e+06 2174.65 0 1.25007e+06 2342.85 0 1.23905e+06 2472.57 0 1.2275e+06 2569.41 0 1.21558e+06 2638.28 0 1.2034e+06 2683.46 0 1.19106e+06 2708.62 0 1.17864e+06 2716.92 0 1.16622e+06 2711.02 0 1.15386e+06 2693.2 0 1.1416e+06 2665.35 0 1.12948e+06 2629.08 0 1.11755e+06 2585.71 0 1.10584e+06 2536.34 0 1.09435e+06 2481.88 0 1.08313e+06 2423.09 0 1.07219e+06 2360.58 0 1.06154e+06 2294.84 0 1.0512e+06 2226.29 0 1.04117e+06 2155.23 0 1.03148e+06 2081.93 0 1.02212e+06 2006.59 0 1.01312e+06 1929.37 0 1.00447e+06 1850.4 0 996188 1769.77 0 988278 1687.55 0 980747 1603.8 0 973603 1518.58 0 966851 1431.93 0 960499 1343.88 0 954553 1254.48 0 949019 1163.78 0 943902 1071.81 0 939209 978.642 0 934945 884.339 0 931114 788.974 0 927722 692.633 0 924772 595.41 0 922269 497.411 0 920216 398.748 0 918615 299.544 0 917469 199.928 0 916779 100.034 0 916547 0 0 931954 1.19209e-07 0 951023 -7801.89 0 992678 -11201.5 0 1.04062e+06 -11812.3 0 1.08799e+06 -11225.3 0 1.13151e+06 -10086.5 0 1.16984e+06 -8747.78 0 1.20257e+06 -7365.82 0 1.22972e+06 -6021.56 0 1.25156e+06 -4755.28 0 1.26845e+06 -3588.51 0 1.28082e+06 -2531.91 0 1.28913e+06 -1589.32 0 1.29384e+06 -759.808 0 1.29541e+06 -39.0237 0 1.29426e+06 579.745 0 1.29079e+06 1104.7 0 1.28536e+06 1544.8 0 1.27831e+06 1909.25 0 1.26991e+06 2207.01 0 1.26043e+06 2446.58 0 1.25008e+06 2635.79 0 1.23905e+06 2781.72 0 1.2275e+06 2890.65 0 1.21558e+06 2968.12 0 1.2034e+06 3018.94 0 1.19106e+06 3047.24 0 1.17864e+06 3056.56 0 1.16622e+06 3049.93 0 1.15386e+06 3029.87 0 1.1416e+06 2998.54 0 1.12948e+06 2957.73 0 1.11755e+06 2908.94 0 1.10583e+06 2853.39 0 1.09435e+06 2792.13 0 1.08313e+06 2725.99 0 1.07219e+06 2655.66 0 1.06154e+06 2581.71 0 1.05119e+06 2504.58 0 1.04117e+06 2424.64 0 1.03148e+06 2342.18 0 1.02212e+06 2257.42 0 1.01312e+06 2170.55 0 1.00447e+06 2081.7 0 996186 1990.99 0 988276 1898.49 0 980745 1804.28 0 973600 1708.41 0 966849 1610.92 0 960497 1511.87 0 954551 1411.3 0 949016 1309.25 0 943900 1205.79 0 939207 1100.98 0 934942 994.884 0 931111 887.598 0 927719 779.214 0 924769 669.838 0 922266 559.588 0 920213 448.593 0 918612 336.988 0 917466 224.92 0 916776 112.538 0 916544 0 0 931661 1.2517e-06 0 950866 -8682.33 0 992637 -12452.9 0 1.04063e+06 -13127.8 0 1.08802e+06 -12473.9 0 1.13154e+06 -11207.8 0 1.16988e+06 -9719.86 0 1.20261e+06 -8184.14 0 1.22976e+06 -6690.41 0 1.2516e+06 -5283.38 0 1.26848e+06 -3986.94 0 1.28085e+06 -2812.93 0 1.28915e+06 -1765.61 0 1.29386e+06 -843.945 0 1.29543e+06 -43.0909 0 1.29427e+06 644.408 0 1.2908e+06 1227.66 0 1.28538e+06 1716.65 0 1.27832e+06 2121.56 0 1.26992e+06 2452.39 0 1.26044e+06 2718.56 0 1.25008e+06 2928.77 0 1.23905e+06 3090.9 0 1.22751e+06 3211.92 0 1.21558e+06 3297.98 0 1.2034e+06 3354.44 0 1.19106e+06 3385.87 0 1.17864e+06 3396.22 0 1.16622e+06 3388.84 0 1.15386e+06 3366.56 0 1.1416e+06 3331.74 0 1.12948e+06 3286.39 0 1.11755e+06 3232.17 0 1.10583e+06 3170.45 0 1.09435e+06 3102.38 0 1.08313e+06 3028.89 0 1.07219e+06 2950.75 0 1.06153e+06 2868.57 0 1.05119e+06 2782.87 0 1.04117e+06 2694.05 0 1.03147e+06 2602.42 0 1.02212e+06 2508.25 0 1.01311e+06 2411.73 0 1.00447e+06 2313.01 0 996183 2212.22 0 988273 2109.44 0 980742 2004.76 0 973598 1898.24 0 966846 1789.92 0 960494 1679.86 0 954548 1568.11 0 949013 1454.73 0 943897 1339.77 0 939204 1223.31 0 934939 1105.43 0 931108 986.223 0 927716 865.796 0 924766 744.267 0 922263 621.767 0 920210 498.438 0 918609 374.432 0 917463 249.911 0 916773 125.043 0 916541 0 0 931335 1.78814e-07 0 950692 -9567.1 0 992592 -13706.4 0 1.04063e+06 -14444.3 0 1.08805e+06 -13723 0 1.13158e+06 -12329.1 0 1.16992e+06 -10692 0 1.20265e+06 -9002.42 0 1.2298e+06 -7359.2 0 1.25164e+06 -5811.39 0 1.26852e+06 -4385.28 0 1.28088e+06 -3093.86 0 1.28918e+06 -1941.81 0 1.29389e+06 -927.991 0 1.29545e+06 -47.0734 0 1.29429e+06 709.149 0 1.29082e+06 1350.7 0 1.28539e+06 1888.55 0 1.27833e+06 2333.93 0 1.26993e+06 2697.81 0 1.26044e+06 2990.58 0 1.25009e+06 3221.79 0 1.23906e+06 3400.1 0 1.22751e+06 3533.21 0 1.21558e+06 3627.87 0 1.2034e+06 3689.95 0 1.19106e+06 3724.52 0 1.17864e+06 3735.9 0 1.16622e+06 3727.77 0 1.15386e+06 3703.25 0 1.14159e+06 3664.94 0 1.12948e+06 3615.06 0 1.11755e+06 3555.41 0 1.10583e+06 3487.52 0 1.09435e+06 3412.63 0 1.08313e+06 3331.79 0 1.07218e+06 3245.83 0 1.06153e+06 3155.44 0 1.05119e+06 3061.17 0 1.04116e+06 2963.46 0 1.03147e+06 2862.67 0 1.02212e+06 2759.08 0 1.01311e+06 2652.91 0 1.00446e+06 2544.32 0 996181 2433.44 0 988270 2320.39 0 980739 2205.24 0 973594 2088.07 0 966843 1968.92 0 960491 1847.85 0 954545 1724.93 0 949010 1600.2 0 943893 1473.75 0 939200 1345.64 0 934936 1215.98 0 931105 1084.85 0 927712 952.379 0 924763 818.697 0 922259 683.946 0 920206 548.284 0 918605 411.877 0 917459 274.904 0 916770 137.548 0 916537 0 0 930977 -1.49012e-06 0 950502 -10456.7 0 992543 -14962.3 0 1.04064e+06 -15761.9 0 1.08809e+06 -14972.5 0 1.13163e+06 -13450.7 0 1.16997e+06 -11664.1 0 1.2027e+06 -9820.66 0 1.22985e+06 -8027.92 0 1.25168e+06 -6339.32 0 1.26856e+06 -4783.52 0 1.28092e+06 -3374.68 0 1.28921e+06 -2117.91 0 1.29391e+06 -1011.94 0 1.29547e+06 -50.9626 0 1.29431e+06 773.975 0 1.29083e+06 1473.82 0 1.2854e+06 2060.53 0 1.27834e+06 2546.36 0 1.26994e+06 2943.29 0 1.26045e+06 3262.64 0 1.25009e+06 3514.84 0 1.23906e+06 3709.34 0 1.22751e+06 3854.53 0 1.21559e+06 3957.78 0 1.2034e+06 4025.49 0 1.19106e+06 4063.18 0 1.17864e+06 4075.58 0 1.16622e+06 4066.71 0 1.15385e+06 4039.95 0 1.14159e+06 3998.16 0 1.12948e+06 3943.73 0 1.11755e+06 3878.65 0 1.10583e+06 3804.58 0 1.09435e+06 3722.89 0 1.08313e+06 3634.7 0 1.07218e+06 3540.92 0 1.06153e+06 3442.31 0 1.05119e+06 3339.47 0 1.04116e+06 3232.88 0 1.03147e+06 3122.93 0 1.02211e+06 3009.92 0 1.01311e+06 2894.09 0 1.00446e+06 2775.63 0 996177 2654.67 0 988267 2531.34 0 980736 2405.73 0 973591 2277.9 0 966839 2147.91 0 960487 2015.84 0 954541 1881.74 0 949007 1745.68 0 943890 1607.73 0 939196 1467.98 0 934932 1326.52 0 931101 1183.48 0 927709 1038.96 0 924759 893.127 0 922256 746.126 0 920202 598.13 0 918601 449.322 0 917455 299.896 0 916766 150.053 0 916533 0 0 930587 9.53674e-07 0 950296 -11351.5 0 992490 -16220.7 0 1.04065e+06 -17080.6 0 1.08812e+06 -16222.6 0 1.13168e+06 -14572.4 0 1.17002e+06 -12636.3 0 1.20275e+06 -10638.9 0 1.2299e+06 -8696.55 0 1.25172e+06 -6867.14 0 1.2686e+06 -5181.65 0 1.28095e+06 -3655.39 0 1.28925e+06 -2293.89 0 1.29394e+06 -1095.78 0 1.2955e+06 -54.7501 0 1.29433e+06 838.896 0 1.29085e+06 1597.02 0 1.28542e+06 2232.58 0 1.27835e+06 2758.86 0 1.26995e+06 3188.83 0 1.26046e+06 3534.75 0 1.2501e+06 3807.94 0 1.23907e+06 4018.62 0 1.22752e+06 4175.88 0 1.21559e+06 4287.71 0 1.2034e+06 4361.04 0 1.19106e+06 4401.87 0 1.17864e+06 4415.29 0 1.16622e+06 4405.66 0 1.15385e+06 4376.66 0 1.14159e+06 4331.38 0 1.12948e+06 4272.41 0 1.11755e+06 4201.9 0 1.10583e+06 4121.66 0 1.09434e+06 4033.15 0 1.08312e+06 3937.61 0 1.07218e+06 3836.01 0 1.06153e+06 3729.18 0 1.05118e+06 3617.77 0 1.04116e+06 3502.29 0 1.03146e+06 3383.18 0 1.02211e+06 3260.75 0 1.01311e+06 3135.27 0 1.00446e+06 3006.94 0 996174 2875.9 0 988263 2742.3 0 980732 2606.21 0 973587 2467.73 0 966836 2326.91 0 960484 2183.84 0 954537 2038.56 0 949003 1891.16 0 943886 1741.72 0 939192 1590.32 0 934928 1437.07 0 931097 1282.1 0 927704 1125.55 0 924755 967.558 0 922251 808.306 0 920198 647.977 0 918597 486.768 0 917451 324.889 0 916761 162.558 0 916529 0 0 930164 -8.34465e-07 0 950074 -12252 0 992433 -17481.8 0 1.04065e+06 -18400.6 0 1.08816e+06 -17473.2 0 1.13173e+06 -15694.3 0 1.17008e+06 -13608.5 0 1.20281e+06 -11457 0 1.22995e+06 -9365.1 0 1.25177e+06 -7394.86 0 1.26864e+06 -5579.66 0 1.28099e+06 -3935.98 0 1.28928e+06 -2469.75 0 1.29398e+06 -1179.5 0 1.29552e+06 -58.4274 0 1.29436e+06 903.917 0 1.29087e+06 1720.31 0 1.28543e+06 2404.71 0 1.27837e+06 2971.43 0 1.26996e+06 3434.43 0 1.26047e+06 3806.92 0 1.25011e+06 4101.09 0 1.23907e+06 4327.94 0 1.22752e+06 4497.27 0 1.21559e+06 4617.67 0 1.20341e+06 4696.63 0 1.19106e+06 4740.57 0 1.17864e+06 4755.01 0 1.16622e+06 4744.63 0 1.15385e+06 4713.39 0 1.14159e+06 4664.61 0 1.12948e+06 4601.1 0 1.11754e+06 4525.16 0 1.10582e+06 4438.74 0 1.09434e+06 4343.42 0 1.08312e+06 4240.52 0 1.07218e+06 4131.11 0 1.06152e+06 4016.06 0 1.05118e+06 3896.07 0 1.04116e+06 3771.72 0 1.03146e+06 3643.44 0 1.02211e+06 3511.59 0 1.0131e+06 3376.46 0 1.00445e+06 3238.25 0 996170 3097.14 0 988259 2953.25 0 980728 2806.7 0 973583 2657.56 0 966832 2505.92 0 960479 2351.83 0 954533 2195.38 0 948998 2036.64 0 943882 1875.7 0 939188 1712.66 0 934923 1547.62 0 931092 1380.73 0 927700 1212.13 0 924750 1041.99 0 922247 870.488 0 920193 697.824 0 918593 524.214 0 917446 349.882 0 916757 175.063 0 916524 0 0 929707 2.26498e-06 0 949837 -13158.7 0 992372 -18745.9 0 1.04066e+06 -19721.9 0 1.08821e+06 -18724.4 0 1.13179e+06 -16816.4 0 1.17014e+06 -14580.8 0 1.20287e+06 -12275.1 0 1.23001e+06 -10033.6 0 1.25183e+06 -7922.46 0 1.26869e+06 -5977.54 0 1.28104e+06 -4216.43 0 1.28932e+06 -2645.48 0 1.29401e+06 -1263.09 0 1.29555e+06 -61.986 0 1.29438e+06 969.048 0 1.29089e+06 1843.7 0 1.28545e+06 2576.93 0 1.27838e+06 3184.07 0 1.26997e+06 3680.09 0 1.26048e+06 4079.14 0 1.25011e+06 4394.28 0 1.23908e+06 4637.3 0 1.22752e+06 4818.69 0 1.21559e+06 4947.67 0 1.20341e+06 5032.24 0 1.19106e+06 5079.3 0 1.17864e+06 5094.75 0 1.16622e+06 5083.61 0 1.15385e+06 5050.12 0 1.14159e+06 4997.86 0 1.12947e+06 4929.79 0 1.11754e+06 4848.43 0 1.10582e+06 4755.83 0 1.09434e+06 4653.7 0 1.08312e+06 4543.44 0 1.07217e+06 4426.21 0 1.06152e+06 4302.94 0 1.05118e+06 4174.38 0 1.04115e+06 4041.14 0 1.03146e+06 3903.7 0 1.0221e+06 3762.43 0 1.0131e+06 3617.64 0 1.00445e+06 3469.56 0 996166 3318.37 0 988255 3164.21 0 980724 3007.19 0 973579 2847.4 0 966827 2684.92 0 960475 2519.83 0 954529 2352.2 0 948994 2182.13 0 943877 2009.69 0 939184 1835 0 934919 1658.18 0 931088 1479.36 0 927695 1298.72 0 924745 1116.42 0 922242 932.67 0 920189 747.673 0 918588 561.66 0 917441 374.875 0 916752 187.569 0 916519 0 0 929216 -1.90735e-06 0 949583 -14072.2 0 992307 -20013.1 0 1.04067e+06 -21044.7 0 1.08825e+06 -19976.3 0 1.13185e+06 -17938.8 0 1.1702e+06 -15553.1 0 1.20293e+06 -13093.2 0 1.23007e+06 -10701.9 0 1.25189e+06 -8449.93 0 1.26875e+06 -6375.28 0 1.28109e+06 -4496.74 0 1.28936e+06 -2821.07 0 1.29405e+06 -1346.55 0 1.29558e+06 -65.4174 0 1.29441e+06 1034.3 0 1.29092e+06 1967.19 0 1.28547e+06 2749.25 0 1.2784e+06 3396.8 0 1.26999e+06 3925.83 0 1.26049e+06 4351.43 0 1.25012e+06 4687.53 0 1.23908e+06 4946.71 0 1.22753e+06 5140.15 0 1.2156e+06 5277.69 0 1.20341e+06 5367.87 0 1.19106e+06 5418.04 0 1.17864e+06 5434.51 0 1.16622e+06 5422.61 0 1.15385e+06 5386.88 0 1.14159e+06 5331.11 0 1.12947e+06 5258.5 0 1.11754e+06 5171.7 0 1.10582e+06 5072.92 0 1.09434e+06 4963.98 0 1.08311e+06 4846.37 0 1.07217e+06 4721.32 0 1.06152e+06 4589.82 0 1.05117e+06 4452.69 0 1.04115e+06 4310.57 0 1.03145e+06 4163.96 0 1.0221e+06 4013.27 0 1.01309e+06 3858.83 0 1.00445e+06 3700.88 0 996162 3539.61 0 988251 3375.17 0 980720 3207.68 0 973575 3037.23 0 966823 2863.92 0 960470 2687.83 0 954524 2509.03 0 948989 2327.61 0 943872 2143.68 0 939179 1957.34 0 934914 1768.73 0 931083 1577.99 0 927690 1385.31 0 924740 1190.86 0 922237 994.853 0 920183 797.522 0 918582 599.108 0 917436 399.869 0 916746 200.075 0 916514 0 0 928690 1.19209e-07 0 949313 -14992.8 0 992238 -21283.6 0 1.04068e+06 -22369.1 0 1.0883e+06 -21228.8 0 1.13191e+06 -19061.4 0 1.17027e+06 -16525.4 0 1.203e+06 -13911.2 0 1.23014e+06 -11370.2 0 1.25195e+06 -8977.27 0 1.2688e+06 -6772.88 0 1.28114e+06 -4776.9 0 1.28941e+06 -2996.5 0 1.29408e+06 -1429.86 0 1.29562e+06 -68.7132 0 1.29444e+06 1099.67 0 1.29094e+06 2090.8 0 1.28549e+06 2921.66 0 1.27841e+06 3609.62 0 1.27e+06 4171.64 0 1.2605e+06 4623.79 0 1.25013e+06 4980.84 0 1.23909e+06 5256.16 0 1.22753e+06 5461.66 0 1.2156e+06 5607.76 0 1.20341e+06 5703.54 0 1.19106e+06 5756.82 0 1.17864e+06 5774.29 0 1.16622e+06 5761.63 0 1.15385e+06 5723.64 0 1.14159e+06 5664.38 0 1.12947e+06 5587.22 0 1.11754e+06 5494.99 0 1.10582e+06 5390.02 0 1.09433e+06 5274.26 0 1.08311e+06 5149.3 0 1.07216e+06 5016.43 0 1.06151e+06 4876.71 0 1.05117e+06 4731.01 0 1.04114e+06 4580 0 1.03145e+06 4424.22 0 1.02209e+06 4264.12 0 1.01309e+06 4100.02 0 1.00444e+06 3932.2 0 996157 3760.85 0 988246 3586.13 0 980715 3408.17 0 973570 3227.07 0 966818 3042.93 0 960465 2855.83 0 954519 2665.85 0 948984 2473.1 0 943867 2277.67 0 939173 2079.68 0 934908 1879.28 0 931077 1676.63 0 927685 1471.9 0 924735 1265.29 0 922231 1057.04 0 920178 847.371 0 918577 636.555 0 917431 424.863 0 916741 212.58 0 916508 0 0 928130 2.38419e-07 0 949028 -15921.1 0 992166 -22557.7 0 1.04069e+06 -23695 0 1.08836e+06 -22482 0 1.13198e+06 -20184.3 0 1.17035e+06 -17497.8 0 1.20307e+06 -14729.1 0 1.23021e+06 -12038.3 0 1.25201e+06 -9504.47 0 1.26886e+06 -7170.32 0 1.28119e+06 -5056.89 0 1.28946e+06 -3171.78 0 1.29413e+06 -1513.02 0 1.29565e+06 -71.865 0 1.29447e+06 1165.17 0 1.29097e+06 2214.53 0 1.28551e+06 3094.18 0 1.27843e+06 3822.53 0 1.27001e+06 4417.54 0 1.26051e+06 4896.21 0 1.25014e+06 5274.2 0 1.2391e+06 5565.67 0 1.22754e+06 5783.2 0 1.2156e+06 5937.86 0 1.20341e+06 6039.24 0 1.19107e+06 6095.62 0 1.17864e+06 6114.09 0 1.16622e+06 6100.66 0 1.15385e+06 6060.43 0 1.14158e+06 5997.66 0 1.12947e+06 5915.95 0 1.11753e+06 5818.28 0 1.10581e+06 5707.13 0 1.09433e+06 5584.55 0 1.08311e+06 5452.23 0 1.07216e+06 5311.54 0 1.06151e+06 5163.61 0 1.05116e+06 5009.33 0 1.04114e+06 4849.43 0 1.03144e+06 4684.49 0 1.02209e+06 4514.97 0 1.01308e+06 4341.22 0 1.00444e+06 4163.52 0 996152 3982.09 0 988241 3797.09 0 980710 3608.66 0 973565 3416.92 0 966813 3221.94 0 960460 3023.83 0 954513 2822.68 0 948978 2618.59 0 943861 2411.66 0 939168 2202.03 0 934903 1989.84 0 931072 1775.26 0 927679 1558.49 0 924729 1339.73 0 922225 1119.22 0 920172 897.222 0 918571 674.004 0 917425 449.858 0 916735 225.086 0 916502 0 0 927533 -8.34465e-07 0 948728 -16857.7 0 992090 -23835.4 0 1.0407e+06 -25022.7 0 1.08841e+06 -23736 0 1.13205e+06 -21307.4 0 1.17042e+06 -18470.3 0 1.20315e+06 -15547 0 1.23028e+06 -12706.3 0 1.25208e+06 -10031.5 0 1.26892e+06 -7567.59 0 1.28124e+06 -5336.72 0 1.2895e+06 -3346.89 0 1.29417e+06 -1596.02 0 1.29569e+06 -74.8641 0 1.2945e+06 1230.82 0 1.29099e+06 2338.38 0 1.28553e+06 3266.82 0 1.27845e+06 4035.54 0 1.27003e+06 4663.53 0 1.26052e+06 5168.71 0 1.25015e+06 5567.64 0 1.2391e+06 5875.24 0 1.22754e+06 6104.8 0 1.21561e+06 6268 0 1.20342e+06 6374.97 0 1.19107e+06 6434.45 0 1.17864e+06 6453.92 0 1.16622e+06 6439.72 0 1.15385e+06 6397.23 0 1.14158e+06 6330.96 0 1.12946e+06 6244.69 0 1.11753e+06 6141.58 0 1.10581e+06 6024.25 0 1.09433e+06 5894.85 0 1.0831e+06 5755.17 0 1.07216e+06 5606.66 0 1.0615e+06 5450.5 0 1.05116e+06 5287.65 0 1.04114e+06 5118.87 0 1.03144e+06 4944.76 0 1.02209e+06 4765.82 0 1.01308e+06 4582.42 0 1.00443e+06 4394.85 0 996147 4203.33 0 988236 4008.06 0 980704 3809.16 0 973559 3606.76 0 966807 3400.95 0 960454 3191.84 0 954508 2979.51 0 948973 2764.08 0 943856 2545.65 0 939162 2324.38 0 934897 2100.4 0 931065 1873.9 0 927673 1645.08 0 924723 1414.17 0 922219 1181.41 0 920166 947.074 0 918565 711.453 0 917418 474.853 0 916729 237.593 0 916496 0 0 926901 3.57628e-07 0 948413 -17803 0 992011 -25117 0 1.04071e+06 -26352.3 0 1.08847e+06 -24990.8 0 1.13213e+06 -22430.8 0 1.17051e+06 -19442.8 0 1.20323e+06 -16364.8 0 1.23036e+06 -13374.2 0 1.25215e+06 -10558.4 0 1.26899e+06 -7964.69 0 1.2813e+06 -5616.36 0 1.28956e+06 -3521.81 0 1.29422e+06 -1678.85 0 1.29573e+06 -77.7022 0 1.29453e+06 1296.61 0 1.29102e+06 2462.37 0 1.28556e+06 3439.57 0 1.27847e+06 4248.66 0 1.27004e+06 4909.6 0 1.26053e+06 5441.29 0 1.25016e+06 5861.14 0 1.23911e+06 6184.86 0 1.22755e+06 6426.44 0 1.21561e+06 6598.18 0 1.20342e+06 6710.73 0 1.19107e+06 6773.31 0 1.17864e+06 6793.77 0 1.16622e+06 6778.8 0 1.15384e+06 6734.04 0 1.14158e+06 6664.27 0 1.12946e+06 6573.44 0 1.11753e+06 6464.9 0 1.10581e+06 6341.38 0 1.09432e+06 6205.16 0 1.0831e+06 6058.12 0 1.07215e+06 5901.79 0 1.0615e+06 5737.41 0 1.05116e+06 5565.98 0 1.04113e+06 5388.31 0 1.03144e+06 5205.04 0 1.02208e+06 5016.68 0 1.01307e+06 4823.62 0 1.00443e+06 4626.17 0 996142 4424.58 0 988230 4219.03 0 980699 4009.66 0 973554 3796.61 0 966801 3579.97 0 960449 3359.85 0 954502 3136.34 0 948967 2909.57 0 943849 2679.65 0 939155 2446.72 0 934890 2210.96 0 931059 1972.54 0 927666 1731.67 0 924716 1488.61 0 922213 1243.6 0 920159 996.926 0 918558 748.903 0 917412 499.849 0 916722 250.099 0 916490 0 0 926231 5.96046e-07 0 948082 -18757.6 0 991928 -26402.6 0 1.04072e+06 -27683.8 0 1.08853e+06 -26246.5 0 1.13221e+06 -23554.6 0 1.17059e+06 -20415.4 0 1.20332e+06 -17182.6 0 1.23044e+06 -14042 0 1.25223e+06 -11085.1 0 1.26906e+06 -8361.61 0 1.28137e+06 -5895.82 0 1.28961e+06 -3696.55 0 1.29426e+06 -1761.49 0 1.29577e+06 -80.3708 0 1.29457e+06 1362.56 0 1.29105e+06 2586.5 0 1.28558e+06 3612.45 0 1.27849e+06 4461.88 0 1.27006e+06 5155.77 0 1.26055e+06 5713.96 0 1.25017e+06 6154.71 0 1.23912e+06 6494.54 0 1.22755e+06 6748.14 0 1.21562e+06 6928.4 0 1.20342e+06 7046.54 0 1.19107e+06 7112.2 0 1.17864e+06 7133.65 0 1.16622e+06 7117.89 0 1.15384e+06 7070.88 0 1.14158e+06 6997.59 0 1.12946e+06 6902.21 0 1.11752e+06 6788.22 0 1.1058e+06 6658.51 0 1.09432e+06 6515.48 0 1.08309e+06 6361.08 0 1.07215e+06 6196.92 0 1.0615e+06 6024.31 0 1.05115e+06 5844.31 0 1.04113e+06 5657.75 0 1.03143e+06 5465.32 0 1.02207e+06 5267.54 0 1.01307e+06 5064.82 0 1.00442e+06 4857.51 0 996136 4645.83 0 988225 4430 0 980693 4210.16 0 973547 3986.46 0 966795 3758.98 0 960442 3527.86 0 954495 3293.18 0 948960 3055.06 0 943843 2813.65 0 939149 2569.08 0 934884 2321.52 0 931052 2071.18 0 927659 1818.27 0 924709 1563.05 0 922206 1305.78 0 920152 1046.78 0 918551 786.354 0 917405 524.845 0 916715 262.606 0 916482 0 0 925523 0 0 947737 -19722.2 0 991841 -27692.4 0 1.04073e+06 -29017.3 0 1.0886e+06 -27503 0 1.13229e+06 -24678.6 0 1.17068e+06 -21388 0 1.20341e+06 -18000.2 0 1.23053e+06 -14709.6 0 1.25231e+06 -11611.7 0 1.26913e+06 -8758.33 0 1.28143e+06 -6175.07 0 1.28967e+06 -3871.1 0 1.29431e+06 -1843.95 0 1.29582e+06 -82.8613 0 1.29461e+06 1428.67 0 1.29108e+06 2710.78 0 1.28561e+06 3785.46 0 1.27851e+06 4675.23 0 1.27008e+06 5402.05 0 1.26056e+06 5986.71 0 1.25018e+06 6448.35 0 1.23913e+06 6804.29 0 1.22756e+06 7069.89 0 1.21562e+06 7258.67 0 1.20342e+06 7382.38 0 1.19107e+06 7451.12 0 1.17864e+06 7473.55 0 1.16621e+06 7457.02 0 1.15384e+06 7407.74 0 1.14157e+06 7330.93 0 1.12946e+06 7230.99 0 1.11752e+06 7111.56 0 1.1058e+06 6975.66 0 1.09431e+06 6825.8 0 1.08309e+06 6664.04 0 1.07214e+06 6492.06 0 1.06149e+06 6311.23 0 1.05115e+06 6122.65 0 1.04112e+06 5927.2 0 1.03142e+06 5725.6 0 1.02207e+06 5518.4 0 1.01306e+06 5306.03 0 1.00441e+06 5088.84 0 996130 4867.09 0 988219 4640.97 0 980687 4410.67 0 973541 4176.31 0 966789 39