<?xml version="1.0"?> 
<VTKFile type="StructuredGrid" version="0.1"> 
<StructuredGrid WholeExtent="0 63 0 63 0 0"> 
<Piece Extent="0 63 0 63 0 0"> 
<PointData>
<DataArray type="Float32" Name="|E|" format="ascii" NumberOfComponents="3"> 
-92190.4 4.02125e+06 0 -90432.3 4.10149e+06 0 -87502.1 4.13341e+06 0 -84245.8 4.15239e+06 0 -80835.2 4.16546e+06 0 -77341.4 4.17555e+06 0 -73792.1 4.18372e+06 0 -70203.8 4.1906e+06 0 -66586.7 4.19653e+06 0 -62947.8 4.20172e+06 0 -59292.2 4.20633e+06 0 -55624.2 4.21047e+06 0 -51947 4.2142e+06 0 -48263.5 4.2176e+06 0 -44576.4 4.22071e+06 0 -40887.8 4.22356e+06 0 -37199.8 4.22619e+06 0 -33514.3 4.22862e+06 0 -29833.1 4.23086e+06 0 -26157.9 4.23295e+06 0 -22490.3 4.23488e+06 0 -18831.6 4.23669e+06 0 -15183.5 4.23836e+06 0 -11547.2 4.23993e+06 0 -7924.03 4.24139e+06 0 -4315.29 4.24276e+06 0 -722.175 4.24404e+06 0 2854.16 4.24525e+06 0 6412.61 4.24638e+06 0 9952.12 4.24744e+06 0 13471.7 4.24845e+06 0 16970.3 4.24941e+06 0 20447 4.25032e+06 0 23901 4.25119e+06 0 27331.4 4.25203e+06 0 30737.5 4.25284e+06 0 34118.5 4.25363e+06 0 37473.7 4.25441e+06 0 40802.5 4.25519e+06 0 44104.3 4.25596e+06 0 47378.6 4.25675e+06 0 50624.9 4.25756e+06 0 53842.8 4.25839e+06 0 57031.9 4.25927e+06 0 60191.9 4.26019e+06 0 63322.7 4.26117e+06 0 66424.1 4.26223e+06 0 69496 4.26337e+06 0 72538.5 4.26462e+06 0 75551.7 4.26599e+06 0 78535.9 4.2675e+06 0 81491.5 4.26919e+06 0 84419 4.27107e+06 0 87319.3 4.27318e+06 0 90193.5 4.27557e+06 0 93042.8 4.27828e+06 0 95869.2 4.28139e+06 0 98675.4 4.28499e+06 0 101465 4.2892e+06 0 104244 4.29422e+06 0 107020 4.30035e+06 0 109815 4.30834e+06 0 112670 4.31965e+06 0 115819 4.34287e+06 0 -20398.6 4.12689e+06 0 -49698.9 4.12553e+06 0 -60141.6 4.13989e+06 0 -64261.6 4.15275e+06 0 -65178.2 4.16351e+06 0 -64547.6 4.17239e+06 0 -63001.1 4.17989e+06 0 -60897.7 4.18634e+06 0 -58424.6 4.19198e+06 0 -55696.9 4.19696e+06 0 -52786 4.20143e+06 0 -49739.8 4.20545e+06 0 -46591.2 4.2091e+06 0 -43363.9 4.21244e+06 0 -40075.2 4.2155e+06 0 -36738.4 4.21831e+06 0 -33363.9 4.22091e+06 0 -29959.8 4.22332e+06 0 -26532.8 4.22556e+06 0 -23088.4 4.22764e+06 0 -19631.1 4.22958e+06 0 -16164.9 4.23139e+06 0 -12693 4.23308e+06 0 -9218.58 4.23466e+06 0 -5744.03 4.23614e+06 0 -2271.66 4.23753e+06 0 1196.51 4.23884e+06 0 4658.67 4.24007e+06 0 8113.2 4.24123e+06 0 11558.6 4.24233e+06 0 14993.7 4.24338e+06 0 18417.2 4.24437e+06 0 21828.1 4.24532e+06 0 25225.5 4.24624e+06 0 28608.6 4.24712e+06 0 31976.7 4.24798e+06 0 35329.3 4.24882e+06 0 38665.9 4.24965e+06 0 41986.2 4.25048e+06 0 45290.1 4.25131e+06 0 48577.5 4.25215e+06 0 51848.5 4.25301e+06 0 55103.5 4.2539e+06 0 58342.9 4.25482e+06 0 61567.6 4.2558e+06 0 64778.5 4.25683e+06 0 67977 4.25794e+06 0 71164.8 4.25913e+06 0 74344.2 4.26043e+06 0 77517.9 4.26185e+06 0 80689.5 4.26341e+06 0 83863.8 4.26513e+06 0 87046.6 4.26704e+06 0 90246 4.26918e+06 0 93472.6 4.27158e+06 0 96741.1 4.27429e+06 0 100073 4.27738e+06 0 103499 4.28093e+06 0 107070 4.28503e+06 0 110874 4.28984e+06 0 115057 4.29559e+06 0 120019 4.30252e+06 0 126447 4.31102e+06 0 137705 4.31804e+06 0 -27900.2 4.14126e+06 0 -36669.8 4.14626e+06 0 -45117.8 4.15131e+06 0 -50143.6 4.15828e+06 0 -52773 4.16539e+06 0 -53682.3 4.17212e+06 0 -53453.8 4.17825e+06 0 -52436.3 4.18379e+06 0 -50864.3 4.1888e+06 0 -48889.7 4.19334e+06 0 -46616.4 4.19746e+06 0 -44116.2 4.20123e+06 0 -41440.5 4.20469e+06 0 -38627.1 4.20787e+06 0 -35704 4.21081e+06 0 -32692.9 4.21354e+06 0 -29610.3 4.21606e+06 0 -26469.7 4.21841e+06 0 -23281.5 4.2206e+06 0 -20054.7 4.22265e+06 0 -16796.2 4.22456e+06 0 -13512.1 4.22635e+06 0 -10207.4 4.22803e+06 0 -6886.48 4.22961e+06 0 -3552.98 4.23109e+06 0 -210.072 4.23249e+06 0 3139.48 4.2338e+06 0 6493.29 4.23505e+06 0 9849.26 4.23623e+06 0 13205.6 4.23735e+06 0 16560.7 4.23842e+06 0 19913.3 4.23944e+06 0 23262.2 4.24042e+06 0 26606.5 4.24136e+06 0 29945.4 4.24228e+06 0 33278.4 4.24317e+06 0 36605 4.24405e+06 0 39925.1 4.24491e+06 0 43238.7 4.24577e+06 0 46546 4.24664e+06 0 49847.5 4.24752e+06 0 53143.8 4.24841e+06 0 56436 4.24934e+06 0 59725.3 4.2503e+06 0 63013.6 4.25131e+06 0 66303 4.25237e+06 0 69596.2 4.25351e+06 0 72896.6 4.25473e+06 0 76208.3 4.25605e+06 0 79536.6 4.25748e+06 0 82888 4.25904e+06 0 86270.9 4.26076e+06 0 89695.9 4.26266e+06 0 93176.6 4.26476e+06 0 96731.4 4.26711e+06 0 100385 4.26974e+06 0 104172 4.2727e+06 0 108141 4.27604e+06 0 112368 4.27984e+06 0 116964 4.28416e+06 0 122124 4.28908e+06 0 128124 4.29459e+06 0 135495 4.30037e+06 0 144142 4.30642e+06 0 -25385.3 4.15658e+06 0 -32368 4.15653e+06 0 -37573.4 4.15958e+06 0 -41493.8 4.16364e+06 0 -43993.5 4.16831e+06 0 -45295.1 4.17313e+06 0 -45626.6 4.17787e+06 0 -45208.1 4.18238e+06 0 -44210.9 4.18662e+06 0 -42766.5 4.19058e+06 0 -40973.4 4.19427e+06 0 -38905.2 4.19769e+06 0 -36617.9 4.20088e+06 0 -34154.1 4.20384e+06 0 -31546.6 4.20661e+06 0 -28821.4 4.20919e+06 0 -25998.8 4.2116e+06 0 -23095.3 4.21385e+06 0 -20124.2 4.21596e+06 0 -17096.4 4.21795e+06 0 -14020.9 4.21981e+06 0 -10905.2 4.22156e+06 0 -7755.66 4.22321e+06 0 -4577.7 4.22476e+06 0 -1375.85 4.22623e+06 0 1845.99 4.22762e+06 0 5084.45 4.22893e+06 0 8336.69 4.23017e+06 0 11600.2 4.23136e+06 0 14873 4.23248e+06 0 18153.1 4.23356e+06 0 21439.3 4.23459e+06 0 24730.2 4.23559e+06 0 28024.8 4.23655e+06 0 31322.6 4.23748e+06 0 34623 4.2384e+06 0 37925.8 4.23929e+06 0 41231.1 4.24018e+06 0 44539.2 4.24107e+06 0 47850.6 4.24195e+06 0 51166.3 4.24285e+06 0 54487.5 4.24377e+06 0 57815.8 4.24471e+06 0 61153.4 4.24569e+06 0 64502.6 4.24672e+06 0 67866.9 4.24779e+06 0 71250 4.24894e+06 0 74656.7 4.25016e+06 0 78092.8 4.25147e+06 0 81565.7 4.25288e+06 0 85084 4.25442e+06 0 88658.9 4.2561e+06 0 92304.4 4.25794e+06 0 96038 4.25997e+06 0 99882.8 4.26221e+06 0 103869 4.26468e+06 0 108036 4.26743e+06 0 112439 4.27049e+06 0 117151 4.27388e+06 0 122278 4.27763e+06 0 127957 4.28173e+06 0 134369 4.28611e+06 0 141663 4.29063e+06 0 150060 4.2948e+06 0 -26339.8 4.16259e+06 0 -29846.4 4.16357e+06 0 -33293.1 4.16518e+06 0 -36000.9 4.16775e+06 0 -37920.8 4.17089e+06 0 -39046.9 4.17437e+06 0 -39462.4 4.17796e+06 0 -39266.2 4.18155e+06 0 -38559.3 4.18505e+06 0 -37431 4.18842e+06 0 -35956.5 4.19163e+06 0 -34197.4 4.19467e+06 0 -32203.5 4.19754e+06 0 -30015.1 4.20025e+06 0 -27664.6 4.2028e+06 0 -25178.1 4.2052e+06 0 -22577.1 4.20747e+06 0 -19879.1 4.2096e+06 0 -17098.6 4.21161e+06 0 -14247.5 4.21351e+06 0 -11336 4.2153e+06 0 -8372.38 4.217e+06 0 -5363.87 4.2186e+06 0 -2316.51 4.22011e+06 0 764.546 4.22155e+06 0 3874.9 4.22291e+06 0 7010.78 4.2242e+06 0 10169 4.22543e+06 0 13346.8 4.2266e+06 0 16541.9 4.22773e+06 0 19752.4 4.2288e+06 0 22976.7 4.22984e+06 0 26213.6 4.23083e+06 0 29462.2 4.2318e+06 0 32721.7 4.23274e+06 0 35992 4.23366e+06 0 39272.8 4.23457e+06 0 42564.6 4.23546e+06 0 45867.9 4.23636e+06 0 49183.5 4.23725e+06 0 52512.9 4.23816e+06 0 55857.7 4.23908e+06 0 59220 4.24003e+06 0 62602.6 4.24101e+06 0 66008.8 4.24203e+06 0 69442.6 4.2431e+06 0 72908.8 4.24423e+06 0 76413.3 4.24543e+06 0 79963.2 4.24671e+06 0 83567.2 4.24809e+06 0 87235.6 4.24958e+06 0 90981.3 4.25119e+06 0 94820.1 4.25294e+06 0 98771.8 4.25484e+06 0 102861 4.25693e+06 0 107119 4.25921e+06 0 111585 4.26171e+06 0 116310 4.26443e+06 0 121357 4.2674e+06 0 126807 4.2706e+06 0 132753 4.274e+06 0 139289 4.27754e+06 0 146509 4.28109e+06 0 154379 4.28459e+06 0 -26016.9 4.16749e+06 0 -28465.6 4.16769e+06 0 -30581.2 4.16883e+06 0 -32342.6 4.17056e+06 0 -33625 4.17278e+06 0 -34397.1 4.17533e+06 0 -34665.5 4.17807e+06 0 -34467.9 4.18092e+06 0 -33853.8 4.18378e+06 0 -32875.8 4.1866e+06 0 -31584.1 4.18935e+06 0 -30023.7 4.192e+06 0 -28233.9 4.19455e+06 0 -26248.2 4.19699e+06 0 -24095.1 4.19931e+06 0 -21798.5 4.20152e+06 0 -19378.5 4.20363e+06 0 -16852.1 4.20562e+06 0 -14233.6 4.20751e+06 0 -11535 4.20931e+06 0 -8766.7 4.21102e+06 0 -5937.3 4.21264e+06 0 -3054.29 4.21417e+06 0 -124.004 4.21563e+06 0 2848.1 4.21702e+06 0 5857.37 4.21835e+06 0 8899.82 4.21961e+06 0 11972.1 4.22081e+06 0 15071.3 4.22197e+06 0 18195 4.22307e+06 0 21341.3 4.22413e+06 0 24508.5 4.22516e+06 0 27695.5 4.22614e+06 0 30901.4 4.2271e+06 0 34125.5 4.22804e+06 0 37367.8 4.22896e+06 0 40628.2 4.22986e+06 0 43907.4 4.23075e+06 0 47206.1 4.23164e+06 0 50525.5 4.23253e+06 0 53867.3 4.23344e+06 0 57233.5 4.23435e+06 0 60626.9 4.23529e+06 0 64050.5 4.23625e+06 0 67508.4 4.23726e+06 0 71005 4.2383e+06 0 74546 4.2394e+06 0 78138.1 4.24056e+06 0 81789.1 4.2418e+06 0 85508.5 4.24311e+06 0 89307.7 4.24452e+06 0 93200.3 4.24604e+06 0 97203 4.24767e+06 0 101336 4.24944e+06 0 105622 4.25135e+06 0 110093 4.25341e+06 0 114783 4.25564e+06 0 119736 4.25803e+06 0 125003 4.26059e+06 0 130641 4.26329e+06 0 136711 4.26612e+06 0 143273 4.269e+06 0 150365 4.27188e+06 0 158021 4.27463e+06 0 -26155.5 4.16999e+06 0 -27479 4.1703e+06 0 -28737.8 4.17106e+06 0 -29763.6 4.1723e+06 0 -30494.3 4.17393e+06 0 -30884.2 4.17585e+06 0 -30920.1 4.17798e+06 0 -30608.3 4.18024e+06 0 -29969.1 4.18257e+06 0 -29029.7 4.18493e+06 0 -27820.4 4.18727e+06 0 -26371.1 4.18957e+06 0 -24710.1 4.19181e+06 0 -22863.2 4.19398e+06 0 -20853.2 4.19607e+06 0 -18700.4 4.19809e+06 0 -16422.3 4.20001e+06 0 -14034.2 4.20186e+06 0 -11549.1 4.20362e+06 0 -8978.44 4.20531e+06 0 -6332.08 4.20692e+06 0 -3618.46 4.20845e+06 0 -844.892 4.20991e+06 0 1982.33 4.21131e+06 0 4857.76 4.21265e+06 0 7776.75 4.21392e+06 0 10735.3 4.21514e+06 0 13729.9 4.21631e+06 0 16757.8 4.21743e+06 0 19816.5 4.21851e+06 0 22904.2 4.21955e+06 0 26019.1 4.22055e+06 0 29160.2 4.22152e+06 0 32326.6 4.22246e+06 0 35518 4.22338e+06 0 38734.1 4.22428e+06 0 41975.4 4.22517e+06 0 45242.5 4.22605e+06 0 48536.4 4.22693e+06 0 51858.6 4.2278e+06 0 55211 4.22869e+06 0 58596.1 4.22958e+06 0 62016.7 4.23049e+06 0 65476.5 4.23143e+06 0 68979.8 4.2324e+06 0 72531.7 4.23341e+06 0 76138.2 4.23446e+06 0 79806.3 4.23557e+06 0 83544.5 4.23674e+06 0 87362.7 4.23798e+06 0 91272.4 4.23929e+06 0 95287.5 4.2407e+06 0 99424.2 4.2422e+06 0 103702 4.2438e+06 0 108142 4.24552e+06 0 112773 4.24736e+06 0 117625 4.24931e+06 0 122732 4.25138e+06 0 128136 4.25357e+06 0 133876 4.25584e+06 0 139996 4.25817e+06 0 146532 4.26053e+06 0 153513 4.26285e+06 0 160940 4.2651e+06 0 -26116.1 4.17152e+06 0 -26802.7 4.17168e+06 0 -27404.2 4.17226e+06 0 -27869.7 4.17319e+06 0 -28140 4.17442e+06 0 -28178.6 4.17591e+06 0 -27964.5 4.17759e+06 0 -27491.8 4.17941e+06 0 -26765 4.18132e+06 0 -25796.1 4.18329e+06 0 -24601.5 4.18528e+06 0 -23199.6 4.18726e+06 0 -21609.3 4.18922e+06 0 -19849.1 4.19114e+06 0 -17936.3 4.19301e+06 0 -15887 4.19483e+06 0 -13715.5 4.19658e+06 0 -11434.8 4.19828e+06 0 -9056.27 4.19991e+06 0 -6590.1 4.20147e+06 0 -4045.18 4.20298e+06 0 -1429.34 4.20442e+06 0 1250.6 4.2058e+06 0 3988.67 4.20713e+06 0 6779.69 4.2084e+06 0 9619.17 4.20961e+06 0 12503.2 4.21078e+06 0 15428.6 4.21191e+06 0 18392.5 4.21299e+06 0 21392.6 4.21403e+06 0 24427 4.21503e+06 0 27494.3 4.216e+06 0 30593.3 4.21695e+06 0 33723.5 4.21786e+06 0 36884.4 4.21876e+06 0 40076.2 4.21964e+06 0 43299.3 4.2205e+06 0 46554.5 4.22136e+06 0 49843.1 4.22221e+06 0 53166.6 4.22306e+06 0 56527.4 4.22391e+06 0 59928 4.22478e+06 0 63371.6 4.22566e+06 0 66862.2 4.22655e+06 0 70404.2 4.22748e+06 0 74003.1 4.22844e+06 0 77665 4.22943e+06 0 81397.3 4.23047e+06 0 85208.5 4.23156e+06 0 89108.5 4.2327e+06 0 93108.7 4.23391e+06 0 97222.4 4.23519e+06 0 101465 4.23655e+06 0 105854 4.23799e+06 0 110411 4.23951e+06 0 115157 4.24112e+06 0 120120 4.24281e+06 0 125327 4.24458e+06 0 130809 4.24642e+06 0 136598 4.24831e+06 0 142722 4.25023e+06 0 149208 4.25214e+06 0 156074 4.25401e+06 0 163332 4.25579e+06 0 -26134.6 4.17208e+06 0 -26285.8 4.17224e+06 0 -26403.7 4.17268e+06 0 -26428.7 4.1734e+06 0 -26322.6 4.17436e+06 0 -26053.7 4.17554e+06 0 -25601.8 4.17689e+06 0 -24956.1 4.17837e+06 0 -24113.6 4.17995e+06 0 -23077.5 4.1816e+06 0 -21855.3 4.18329e+06 0 -20457.3 4.185e+06 0 -18895.5 4.18671e+06 0 -17182.2 4.1884e+06 0 -15329.9 4.19006e+06 0 -13350.6 4.19169e+06 0 -11255.6 4.19328e+06 0 -9055.34 4.19483e+06 0 -6759.33 4.19632e+06 0 -4376.2 4.19777e+06 0 -1913.71 4.19917e+06 0 621.257 4.20051e+06 0 3222.55 4.20181e+06 0 5884.76 4.20306e+06 0 8603.13 4.20426e+06 0 11373.5 4.20541e+06 0 14192.4 4.20652e+06 0 17056.5 4.20759e+06 0 19963.5 4.20863e+06 0 22911.1 4.20962e+06 0 25897.5 4.21059e+06 0 28921.6 4.21152e+06 0 31982.3 4.21243e+06 0 35079.1 4.21331e+06 0 38211.8 4.21417e+06 0 41380.6 4.21502e+06 0 44586.1 4.21585e+06 0 47829.3 4.21667e+06 0 51111.6 4.21749e+06 0 54434.9 4.2183e+06 0 57801.4 4.21912e+06 0 61214 4.21994e+06 0 64676 4.22078e+06 0 68191.5 4.22163e+06 0 71765.2 4.2225e+06 0 75402.5 4.22339e+06 0 79109.7 4.22431e+06 0 82894.2 4.22527e+06 0 86764.3 4.22627e+06 0 90729.6 4.22732e+06 0 94801.1 4.22841e+06 0 98991.3 4.22956e+06 0 103314 4.23077e+06 0 107786 4.23203e+06 0 112425 4.23336e+06 0 117251 4.23474e+06 0 122285 4.23618e+06 0 127550 4.23768e+06 0 133071 4.2392e+06 0 138871 4.24076e+06 0 144972 4.24231e+06 0 151393 4.24384e+06 0 158149 4.24532e+06 0 165248 4.24672e+06 0 -26126.8 4.17201e+06 0 -25889.8 4.17213e+06 0 -25626.6 4.17249e+06 0 -25302.9 4.17306e+06 0 -24887.4 4.17384e+06 0 -24355.4 4.17479e+06 0 -23688.4 4.17589e+06 0 -22874.6 4.17711e+06 0 -21907.6 4.17843e+06 0 -20786 4.17983e+06 0 -19511.8 4.18127e+06 0 -18090.1 4.18274e+06 0 -16527.6 4.18423e+06 0 -14832.1 4.18572e+06 0 -13012.3 4.18719e+06 0 -11076.5 4.18865e+06 0 -9033.37 4.19008e+06 0 -6890.9 4.19148e+06 0 -4656.7 4.19285e+06 0 -2337.84 4.19418e+06 0 59.2084 4.19546e+06 0 2528.56 4.19671e+06 0 5064.93 4.19792e+06 0 7663.56 4.19908e+06 0 10320.3 4.20021e+06 0 13031.3 4.2013e+06 0 15793.5 4.20235e+06 0 18604.2 4.20336e+06 0 21460.8 4.20434e+06 0 24361.7 4.20529e+06 0 27305.2 4.2062e+06 0 30290.1 4.20709e+06 0 33315.8 4.20796e+06 0 36381.9 4.2088e+06 0 39488.2 4.20962e+06 0 42635.2 4.21043e+06 0 45823.6 4.21122e+06 0 49054.5 4.212e+06 0 52329.4 4.21277e+06 0 55650.3 4.21354e+06 0 59019.7 4.21431e+06 0 62440.4 4.21509e+06 0 65916 4.21587e+06 0 69450.5 4.21666e+06 0 73048.7 4.21746e+06 0 76715.9 4.21829e+06 0 80458.5 4.21913e+06 0 84283.5 4.22e+06 0 88199 4.22091e+06 0 92214.1 4.22184e+06 0 96339.2 4.22282e+06 0 100586 4.22383e+06 0 104967 4.22488e+06 0 109496 4.22597e+06 0 114190 4.22711e+06 0 119065 4.22828e+06 0 124140 4.22948e+06 0 129433 4.23071e+06 0 134963 4.23196e+06 0 140749 4.23321e+06 0 146808 4.23444e+06 0 153155 4.23564e+06 0 159801 4.23678e+06 0 166756 4.23784e+06 0 -26124.1 4.1714e+06 0 -25573 4.17152e+06 0 -25009.1 4.17181e+06 0 -24403.6 4.17229e+06 0 -23733 4.17292e+06 0 -22977.1 4.17371e+06 0 -22120.2 4.17462e+06 0 -21150.6 4.17564e+06 0 -20061 4.17676e+06 0 -18847.3 4.17794e+06 0 -17508.7 4.17918e+06 0 -16046.6 4.18045e+06 0 -14464.4 4.18175e+06 0 -12766.6 4.18305e+06 0 -10958.6 4.18436e+06 0 -9046.22 4.18566e+06 0 -7035.46 4.18695e+06 0 -4932.37 4.18821e+06 0 -2742.77 4.18945e+06 0 -472.242 4.19067e+06 0 1874.01 4.19185e+06 0 4291.15 4.193e+06 0 6774.76 4.19411e+06 0 9320.83 4.1952e+06 0 11925.8 4.19625e+06 0 14586.4 4.19726e+06 0 17299.9 4.19824e+06 0 20064 4.1992e+06 0 22876.6 4.20012e+06 0 25736 4.20101e+06 0 28641 4.20187e+06 0 31590.7 4.20271e+06 0 34584.4 4.20353e+06 0 37622 4.20432e+06 0 40703.6 4.2051e+06 0 43829.7 4.20586e+06 0 47001.1 4.2066e+06 0 50219 4.20734e+06 0 53485.2 4.20806e+06 0 56801.6 4.20878e+06 0 60170.8 4.2095e+06 0 63595.8 4.21021e+06 0 67080 4.21093e+06 0 70627.6 4.21165e+06 0 74243.1 4.21239e+06 0 77932 4.21314e+06 0 81700.3 4.2139e+06 0 85554.7 4.21468e+06 0 89503 4.21548e+06 0 93553.7 4.2163e+06 0 97716.3 4.21714e+06 0 102001 4.21802e+06 0 106421 4.21892e+06 0 110987 4.21984e+06 0 115713 4.22079e+06 0 120614 4.22175e+06 0 125705 4.22274e+06 0 131001 4.22373e+06 0 136519 4.22472e+06 0 142273 4.22569e+06 0 148277 4.22663e+06 0 154543 4.22753e+06 0 161080 4.22837e+06 0 167898 4.22912e+06 0 -26116.3 4.17039e+06 0 -25315.9 4.1705e+06 0 -24508.5 4.17075e+06 0 -23672.7 4.17115e+06 0 -22790.1 4.17168e+06 0 -21844 4.17234e+06 0 -20821.2 4.17311e+06 0 -19711 4.17398e+06 0 -18505.7 4.17492e+06 0 -17200.4 4.17593e+06 0 -15792.5 4.177e+06 0 -14281.3 4.1781e+06 0 -12667.8 4.17924e+06 0 -10954.1 4.18039e+06 0 -9143.48 4.18154e+06 0 -7239.51 4.1827e+06 0 -5246.3 4.18385e+06 0 -3168.12 4.18499e+06 0 -1009.25 4.18612e+06 0 1226.09 4.18722e+06 0 3533.84 4.1883e+06 0 5910.19 4.18935e+06 0 8351.56 4.19038e+06 0 10854.7 4.19138e+06 0 13416.6 4.19235e+06 0 16034.7 4.19329e+06 0 18706.6 4.1942e+06 0 21430.4 4.19509e+06 0 24204.4 4.19595e+06 0 27027.2 4.19678e+06 0 29897.8 4.19759e+06 0 32815.5 4.19838e+06 0 35780 4.19914e+06 0 38791.1 4.19988e+06 0 41849.2 4.2006e+06 0 44955 4.20131e+06 0 48109.3 4.202e+06 0 51313.5 4.20268e+06 0 54569.4 4.20335e+06 0 57879 4.20401e+06 0 61244.9 4.20467e+06 0 64670.1 4.20532e+06 0 68158.1 4.20598e+06 0 71712.9 4.20663e+06 0 75339 4.20729e+06 0 79041.6 4.20795e+06 0 82826.5 4.20862e+06 0 86700 4.2093e+06 0 90669.5 4.21e+06 0 94742.8 4.2107e+06 0 98928.7 4.21142e+06 0 103237 4.21215e+06 0 107677 4.2129e+06 0 112262 4.21366e+06 0 117001 4.21443e+06 0 121909 4.2152e+06 0 126997 4.21597e+06 0 132279 4.21674e+06 0 137768 4.21749e+06 0 143476 4.21821e+06 0 149415 4.2189e+06 0 155595 4.21953e+06 0 162024 4.22009e+06 0 168710 4.22057e+06 0 -26107.4 4.16904e+06 0 -25102.9 4.16915e+06 0 -24096.3 4.16937e+06 0 -23070.4 4.16972e+06 0 -22010.3 4.17017e+06 0 -20902.5 4.17073e+06 0 -19735.6 4.17139e+06 0 -18500 4.17213e+06 0 -17188.6 4.17294e+06 0 -15795.9 4.17381e+06 0 -14318.5 4.17473e+06 0 -12754.4 4.17569e+06 0 -11103.2 4.17669e+06 0 -9365.31 4.1777e+06 0 -7542.29 4.17872e+06 0 -5636.2 4.17975e+06 0 -3649.57 4.18078e+06 0 -1585.25 4.1818e+06 0 553.764 4.18282e+06 0 2764.43 4.18382e+06 0 5043.72 4.1848e+06 0 7388.74 4.18576e+06 0 9796.72 4.1867e+06 0 12265.1 4.18761e+06 0 14791.5 4.18851e+06 0 17373.9 4.18938e+06 0 20010.4 4.19022e+06 0 22699.4 4.19104e+06 0 25439.5 4.19183e+06 0 28229.9 4.1926e+06 0 31069.6 4.19335e+06 0 33958.3 4.19408e+06 0 36895.7 4.19478e+06 0 39882 4.19547e+06 0 42917.7 4.19614e+06 0 46003.4 4.19679e+06 0 49140.3 4.19742e+06 0 52329.8 4.19804e+06 0 55573.7 4.19865e+06 0 58874.1 4.19925e+06 0 62233.6 4.19984e+06 0 65655.2 4.20043e+06 0 69142.2 4.20101e+06 0 72698.6 4.20159e+06 0 76328.8 4.20216e+06 0 80037.6 4.20274e+06 0 83830.6 4.20332e+06 0 87713.8 4.2039e+06 0 91693.9 4.20448e+06 0 95778.3 4.20507e+06 0 99974.8 4.20566e+06 0 104292 4.20626e+06 0 108740 4.20686e+06 0 113327 4.20745e+06 0 118064 4.20805e+06 0 122963 4.20864e+06 0 128033 4.20921e+06 0 133287 4.20977e+06 0 138735 4.2103e+06 0 144387 4.21079e+06 0 150253 4.21124e+06 0 156342 4.21162e+06 0 162663 4.21193e+06 0 169220 4.21216e+06 0 -26096.6 4.16743e+06 0 -24924.3 4.16753e+06 0 -23752.8 4.16773e+06 0 -22568.4 4.16804e+06 0 -21359 4.16843e+06 0 -20113.2 4.16892e+06 0 -18821.5 4.16948e+06 0 -17475.3 4.17012e+06 0 -16067.9 4.17082e+06 0 -14594 4.17157e+06 0 -13049.7 4.17238e+06 0 -11432.4 4.17322e+06 0 -9740.64 4.17409e+06 0 -7973.86 4.17498e+06 0 -6132.35 4.17589e+06 0 -4216.99 4.1768e+06 0 -2229.16 4.17772e+06 0 -170.557 4.17864e+06 0 1956.87 4.17955e+06 0 4151.05 4.18045e+06 0 6409.87 4.18133e+06 0 8731.22 4.18221e+06 0 11113.1 4.18306e+06 0 13553.5 4.1839e+06 0 16050.7 4.18471e+06 0 18603.2 4.18551e+06 0 21209.4 4.18628e+06 0 23868.3 4.18703e+06 0 26578.8 4.18776e+06 0 29340.2 4.18847e+06 0 32152 4.18915e+06 0 35014.1 4.18982e+06 0 37926.3 4.19046e+06 0 40889 4.19109e+06 0 43902.9 4.19169e+06 0 46968.7 4.19228e+06 0 50087.7 4.19286e+06 0 53261.4 4.19342e+06 0 56491.5 4.19396e+06 0 59780.3 4.1945e+06 0 63130.2 4.19502e+06 0 66544.3 4.19553e+06 0 70025.8 4.19604e+06 0 73578.5 4.19654e+06 0 77206.5 4.19703e+06 0 80914.7 4.19751e+06 0 84708 4.198e+06 0 88592.2 4.19847e+06 0 92573.4 4.19895e+06 0 96658.4 4.19942e+06 0 100854 4.19989e+06 0 105169 4.20035e+06 0 109611 4.2008e+06 0 114189 4.20124e+06 0 118911 4.20167e+06 0 123788 4.20208e+06 0 128828 4.20247e+06 0 134042 4.20283e+06 0 139438 4.20316e+06 0 145026 4.20343e+06 0 150813 4.20366e+06 0 156809 4.20382e+06 0 163020 4.2039e+06 0 169452 4.20389e+06 0 -26084.6 4.16558e+06 0 -24772.6 4.16569e+06 0 -23463.6 4.16588e+06 0 -22146.3 4.16615e+06 0 -20810.6 4.16649e+06 0 -19447.1 4.16692e+06 0 -18047.3 4.16741e+06 0 -16603.9 4.16796e+06 0 -15110.8 4.16858e+06 0 -13562.8 4.16923e+06 0 -11955.8 4.16994e+06 0 -10287.1 4.17067e+06 0 -8554.42 4.17144e+06 0 -6756.64 4.17222e+06 0 -4893.17 4.17303e+06 0 -2964.04 4.17384e+06 0 -969.735 4.17466e+06 0 1088.91 4.17547e+06 0 3210.81 4.17629e+06 0 5394.69 4.1771e+06 0 7639.18 4.1779e+06 0 9942.88 4.17869e+06 0 12304.4 4.17946e+06 0 14722.3 4.18022e+06 0 17195.5 4.18096e+06 0 19722.8 4.18168e+06 0 22303.1 4.18238e+06 0 24935.7 4.18306e+06 0 27619.9 4.18372e+06 0 30355.4 4.18436e+06 0 33141.7 4.18499e+06 0 35979 4.18559e+06 0 38867.5 4.18617e+06 0 41807.6 4.18673e+06 0 44800.1 4.18728e+06 0 47845.8 4.18781e+06 0 50946.2 4.18832e+06 0 54102.7 4.18881e+06 0 57317.2 4.18929e+06 0 60591.8 4.18975e+06 0 63929.2 4.1902e+06 0 67332 4.19064e+06 0 70803.6 4.19107e+06 0 74347.5 4.19149e+06 0 77967.8 4.19189e+06 0 81668.7 4.19228e+06 0 85455.3 4.19267e+06 0 89332.6 4.19304e+06 0 93306.5 4.19341e+06 0 97383.1 4.19376e+06 0 101569 4.1941e+06 0 105871 4.19443e+06 0 110297 4.19474e+06 0 114854 4.19504e+06 0 119550 4.19531e+06 0 124394 4.19555e+06 0 129394 4.19576e+06 0 134558 4.19594e+06 0 139895 4.19607e+06 0 145412 4.19615e+06 0 151117 4.19617e+06 0 157016 4.19612e+06 0 163116 4.19599e+06 0 169424 4.19577e+06 0 -26071.5 4.16355e+06 0 -24642.7 4.16366e+06 0 -23218.3 4.16384e+06 0 -21789 4.16408e+06 0 -20346.1 4.16439e+06 0 -18881.8 4.16477e+06 0 -17388.8 4.1652e+06 0 -15860.5 4.16569e+06 0 -14291.3 4.16622e+06 0 -12676.4 4.1668e+06 0 -11012 4.16741e+06 0 -9294.79 4.16806e+06 0 -7522.53 4.16873e+06 0 -5693.49 4.16943e+06 0 -3806.57 4.17014e+06 0 -1861.17 4.17086e+06 0 142.888 4.17159e+06 0 2205.44 4.17231e+06 0 4326.05 4.17304e+06 0 6504.1 4.17377e+06 0 8738.85 4.17448e+06 0 11029.5 4.17519e+06 0 13375.1 4.17589e+06 0 15774.9 4.17657e+06 0 18228.1 4.17723e+06 0 20733.9 4.17788e+06 0 23291.8 4.17851e+06 0 25901.2 4.17913e+06 0 28561.9 4.17972e+06 0 31273.6 4.1803e+06 0 34036.5 4.18085e+06 0 36850.5 4.18139e+06 0 39716.2 4.18191e+06 0 42634.2 4.18241e+06 0 45605.4 4.18289e+06 0 48630.7 4.18335e+06 0 51711.5 4.18379e+06 0 54849.5 4.18422e+06 0 58046.4 4.18463e+06 0 61304.5 4.18502e+06 0 64626.2 4.1854e+06 0 68014.2 4.18576e+06 0 71471.8 4.18611e+06 0 75002.2 4.18644e+06 0 78609.3 4.18676e+06 0 82297.2 4.18706e+06 0 86070.4 4.18735e+06 0 89933.9 4.18762e+06 0 93892.8 4.18787e+06 0 97952.8 4.18811e+06 0 102120 4.18833e+06 0 106400 4.18853e+06 0 110801 4.1887e+06 0 115328 4.18885e+06 0 119990 4.18897e+06 0 124792 4.18905e+06 0 129743 4.1891e+06 0 134851 4.1891e+06 0 140121 4.18905e+06 0 145562 4.18894e+06 0 151179 4.18877e+06 0 156979 4.18853e+06 0 162969 4.1882e+06 0 169153 4.18778e+06 0 -26057.5 4.16136e+06 0 -24530.5 4.16147e+06 0 -23009 4.16164e+06 0 -21485 4.16187e+06 0 -19951.1 4.16215e+06 0 -18400.6 4.16248e+06 0 -16827.1 4.16287e+06 0 -15224.8 4.1633e+06 0 -13588.7 4.16377e+06 0 -11914.2 4.16428e+06 0 -10197.6 4.16482e+06 0 -8435.85 4.16539e+06 0 -6626.31 4.16598e+06 0 -4767.05 4.16659e+06 0 -2856.59 4.16722e+06 0 -893.909 4.16786e+06 0 1121.66 4.1685e+06 0 3190.44 4.16915e+06 0 5312.54 4.1698e+06 0 7487.83 4.17044e+06 0 9716.08 4.17108e+06 0 11996.9 4.17171e+06 0 14330 4.17233e+06 0 16714.9 4.17294e+06 0 19151.1 4.17354e+06 0 21638.4 4.17411e+06 0 24176.5 4.17468e+06 0 26765.2 4.17522e+06 0 29404.4 4.17575e+06 0 32094.2 4.17626e+06 0 34834.8 4.17675e+06 0 37626.7 4.17722e+06 0 40470.3 4.17768e+06 0 43366.4 4.17811e+06 0 46316 4.17853e+06 0 49320.3 4.17892e+06 0 52380.5 4.1793e+06 0 55498.5 4.17965e+06 0 58675.9 4.17999e+06 0 61915 4.18031e+06 0 65218.1 4.18061e+06 0 68587.9 4.1809e+06 0 72027.5 4.18116e+06 0 75539.9 4.18141e+06 0 79129 4.18164e+06 0 82798.4 4.18184e+06 0 86552.4 4.18203e+06 0 90395.6 4.1822e+06 0 94332.7 4.18235e+06 0 98369 4.18247e+06 0 102510 4.18257e+06 0 106761 4.18264e+06 0 111128 4.18268e+06 0 115618 4.18269e+06 0 120237 4.18267e+06 0 124990 4.1826e+06 0 129886 4.18249e+06 0 134930 4.18233e+06 0 140128 4.18211e+06 0 145488 4.18182e+06 0 151014 4.18147e+06 0 156714 4.18104e+06 0 162591 4.18053e+06 0 168652 4.17992e+06 0 -26042.7 4.15904e+06 0 -24433.2 4.15916e+06 0 -22829.8 4.15932e+06 0 -21225.5 4.15953e+06 0 -19614.3 4.15979e+06 0 -17990.1 4.16009e+06 0 -16347.4 4.16043e+06 0 -14680.9 4.16081e+06 0 -12986.2 4.16123e+06 0 -11259.1 4.16168e+06 0 -9495.96 4.16216e+06 0 -7693.78 4.16266e+06 0 -5849.96 4.16318e+06 0 -3962.36 4.16372e+06 0 -2029.29 4.16428e+06 0 -49.4236 4.16484e+06 0 1978.24 4.16541e+06 0 4054.41 4.16598e+06 0 6179.57 4.16656e+06 0 8354.02 4.16713e+06 0 10577.9 4.16769e+06 0 12851.3 4.16825e+06 0 15174.1 4.1688e+06 0 17546.3 4.16934e+06 0 19967.9 4.16986e+06 0 22438.7 4.17037e+06 0 24959 4.17087e+06 0 27528.6 4.17135e+06 0 30147.8 4.17181e+06 0 32816.9 4.17225e+06 0 35536.3 4.17268e+06 0 38306.5 4.17309e+06 0 41128.3 4.17347e+06 0 44002.5 4.17384e+06 0 46930.2 4.17419e+06 0 49912.5 4.17452e+06 0 52951 4.17482e+06 0 56047.3 4.17511e+06 0 59203.2 4.17538e+06 0 62420.9 4.17562e+06 0 65702.6 4.17585e+06 0 69050.9 4.17605e+06 0 72468.8 4.17623e+06 0 75959.2 4.1764e+06 0 79525.5 4.17653e+06 0 83171.5 4.17665e+06 0 86901 4.17674e+06 0 90718.1 4.17681e+06 0 94627.5 4.17685e+06 0 98633.6 4.17686e+06 0 102742 4.17684e+06 0 106957 4.17679e+06 0 111284 4.1767e+06 0 115729 4.17658e+06 0 120298 4.17641e+06 0 124997 4.1762e+06 0 129831 4.17594e+06 0 134806 4.17562e+06 0 139928 4.17524e+06 0 145203 4.17479e+06 0 150635 4.17427e+06 0 156231 4.17367e+06 0 161996 4.17298e+06 0 167934 4.17219e+06 0 -26027.3 4.15661e+06 0 -24348.3 4.15673e+06 0 -22675.8 4.15689e+06 0 -21003.8 4.15709e+06 0 -19326.9 4.15732e+06 0 -17639.9 4.1576e+06 0 -15937.8 4.1579e+06 0 -14216 4.15824e+06 0 -12470.4 4.15862e+06 0 -10697.2 4.15901e+06 0 -8892.98 4.15944e+06 0 -7054.78 4.15988e+06 0 -5180.04 4.16034e+06 0 -3266.57 4.16082e+06 0 -1312.52 4.1613e+06 0 683.617 4.1618e+06 0 2723.08 4.1623e+06 0 4806.87 4.16281e+06 0 6935.74 4.16331e+06 0 9110.32 4.16381e+06 0 11331 4.16431e+06 0 13598.3 4.1648e+06 0 15912.3 4.16528e+06 0 18273.4 4.16575e+06 0 20681.8 4.16621e+06 0 23137.6 4.16665e+06 0 25641.3 4.16708e+06 0 28193 4.1675e+06 0 30793.1 4.1679e+06 0 33442.3 4.16827e+06 0 36140.9 4.16863e+06 0 38889.7 4.16898e+06 0 41689.6 4.1693e+06 0 44541.6 4.1696e+06 0 47446.6 4.16988e+06 0 50406.1 4.17014e+06 0 53421.5 4.17038e+06 0 56494.5 4.17059e+06 0 59626.8 4.17079e+06 0 62820.6 4.17096e+06 0 66078.2 4.17111e+06 0 69401.9 4.17123e+06 0 72794.5 4.17133e+06 0 76259 4.17141e+06 0 79798.6 4.17146e+06 0 83416.5 4.17148e+06 0 87116.5 4.17148e+06 0 90902.5 4.17144e+06 0 94778.5 4.17138e+06 0 98749 4.17128e+06 0 102818 4.17115e+06 0 106991 4.17098e+06 0 111273 4.17077e+06 0 115668 4.17051e+06 0 120182 4.17021e+06 0 124820 4.16986e+06 0 129587 4.16946e+06 0 134488 4.16899e+06 0 139530 4.16846e+06 0 144716 4.16785e+06 0 150052 4.16717e+06 0 155543 4.16641e+06 0 161194 4.16555e+06 0 167009 4.1646e+06 0 -26011.4 4.15409e+06 0 -24274.1 4.15421e+06 0 -22543.5 4.15437e+06 0 -20814.4 4.15456e+06 0 -19081.9 4.15477e+06 0 -17341.5 4.15502e+06 0 -15588.8 4.1553e+06 0 -13819.7 4.15561e+06 0 -12030.3 4.15594e+06 0 -10217.1 4.15629e+06 0 -8377.03 4.15666e+06 0 -6507.22 4.15706e+06 0 -4605.15 4.15746e+06 0 -2668.62 4.15788e+06 0 -695.721 4.15831e+06 0 1315.19 4.15874e+06 0 3365.52 4.15918e+06 0 5456.44 4.15962e+06 0 7588.94 4.16006e+06 0 9763.86 4.1605e+06 0 11981.9 4.16093e+06 0 14243.7 4.16136e+06 0 16549.7 4.16178e+06 0 18900.5 4.16218e+06 0 21296.5 4.16258e+06 0 23738.1 4.16296e+06 0 26225.8 4.16332e+06 0 28760.2 4.16367e+06 0 31341.8 4.16401e+06 0 33971.3 4.16432e+06 0 36649.2 4.16462e+06 0 39376.6 4.16489e+06 0 42154.3 4.16515e+06 0 44983.3 4.16539e+06 0 47864.9 4.1656e+06 0 50800.4 4.16579e+06 0 53791.2 4.16596e+06 0 56839.1 4.16611e+06 0 59945.9 4.16623e+06 0 63113.5 4.16632e+06 0 66344.2 4.16639e+06 0 69640.3 4.16644e+06 0 73004.4 4.16646e+06 0 76439.4 4.16645e+06 0 79948.1 4.16641e+06 0 83533.9 4.16634e+06 0 87200 4.16624e+06 0 90950.1 4.16611e+06 0 94788 4.16594e+06 0 98717.6 4.16574e+06 0 102743 4.1655e+06 0 106869 4.16521e+06 0 111099 4.16488e+06 0 115439 4.1645e+06 0 119893 4.16407e+06 0 124465 4.16359e+06 0 129161 4.16305e+06 0 133985 4.16244e+06 0 138942 4.16176e+06 0 144037 4.16101e+06 0 149274 4.16018e+06 0 154659 4.15926e+06 0 160194 4.15825e+06 0 165886 4.15714e+06 0 -25995 4.15149e+06 0 -24209.1 4.15162e+06 0 -22430 4.15177e+06 0 -20652.9 4.15195e+06 0 -18873.7 4.15215e+06 0 -17088.3 4.15238e+06 0 -15292.8 4.15263e+06 0 -13483.3 4.15291e+06 0 -11656.6 4.1532e+06 0 -9809.23 4.15352e+06 0 -7938.37 4.15385e+06 0 -6041.29 4.15419e+06 0 -4115.56 4.15455e+06 0 -2159 4.15492e+06 0 -169.683 4.15529e+06 0 1854.1 4.15567e+06 0 3913.86 4.15605e+06 0 6010.89 4.15643e+06 0 8146.35 4.15682e+06 0 10321.2 4.15719e+06 0 12536.5 4.15757e+06 0 14792.8 4.15793e+06 0 17091 4.15829e+06 0 19431.7 4.15863e+06 0 21815.6 4.15896e+06 0 24243.3 4.15928e+06 0 26715.4 4.15959e+06 0 29232.6 4.15987e+06 0 31795.7 4.16014e+06 0 34405.3 4.1604e+06 0 37062.4 4.16063e+06 0 39767.9 4.16084e+06 0 42522.7 4.16103e+06 0 45328 4.1612e+06 0 48185 4.16135e+06 0 51095.2 4.16147e+06 0 54060 4.16157e+06 0 57081 4.16165e+06 0 60160.1 4.1617e+06 0 63299.2 4.16172e+06 0 66500.4 4.16172e+06 0 69766.1 4.16168e+06 0 73098.6 4.16162e+06 0 76500.6 4.16153e+06 0 79974.9 4.1614e+06 0 83524.6 4.16124e+06 0 87152.8 4.16105e+06 0 90862.7 4.16082e+06 0 94658 4.16055e+06 0 98542.3 4.16024e+06 0 102519 4.15989e+06 0 106593 4.1595e+06 0 110768 4.15905e+06 0 115048 4.15856e+06 0 119437 4.158e+06 0 123939 4.15739e+06 0 128560 4.15672e+06 0 133303 4.15598e+06 0 138173 4.15516e+06 0 143174 4.15427e+06 0 148310 4.15329e+06 0 153586 4.15223e+06 0 159005 4.15107e+06 0 164573 4.14981e+06 0 -25978.3 4.14883e+06 0 -24152.1 4.14896e+06 0 -22332.7 4.14911e+06 0 -20515.8 4.14928e+06 0 -18697.7 4.14947e+06 0 -16874.7 4.14968e+06 0 -15043.2 4.14991e+06 0 -13200 4.15016e+06 0 -11341.8 4.15042e+06 0 -9465.61 4.1507e+06 0 -7568.74 4.15099e+06 0 -5648.61 4.1513e+06 0 -3702.89 4.15161e+06 0 -1729.44 4.15193e+06 0 273.641 4.15225e+06 0 2308.1 4.15258e+06 0 4375.5 4.15291e+06 0 6477.22 4.15324e+06 0 86