<?xml version="1.0"?> 
<VTKFile type="StructuredGrid" version="0.1"> 
<StructuredGrid WholeExtent="0 63 0 63 0 0"> 
<Piece Extent="0 63 0 63 0 0"> 
<PointData>
<DataArray type="Float32" Name="|E|" format="ascii" NumberOfComponents="3"> 
349563 5.2494e+06 0 396802 5.29094e+06 0 447533 5.35248e+06 0 500981 5.41911e+06 0 556991 5.48698e+06 0 615555 5.55484e+06 0 676742 5.62232e+06 0 740643 5.68935e+06 0 807367 5.75591e+06 0 877031 5.82204e+06 0 949763 5.88775e+06 0 1.02569e+06 5.95304e+06 0 1.10497e+06 6.01793e+06 0 1.18772e+06 6.08238e+06 0 1.27412e+06 6.14636e+06 0 1.36431e+06 6.20982e+06 0 1.45845e+06 6.27267e+06 0 1.55672e+06 6.33484e+06 0 1.65927e+06 6.39621e+06 0 1.7663e+06 6.45665e+06 0 1.87796e+06 6.51601e+06 0 1.99443e+06 6.57411e+06 0 2.11588e+06 6.63074e+06 0 2.2425e+06 6.68568e+06 0 2.37443e+06 6.73865e+06 0 2.51182e+06 6.78937e+06 0 2.65483e+06 6.8375e+06 0 2.80357e+06 6.88265e+06 0 2.95813e+06 6.92442e+06 0 3.11858e+06 6.96232e+06 0 3.28495e+06 6.99586e+06 0 3.45722e+06 7.02445e+06 0 3.63532e+06 7.04748e+06 0 3.81914e+06 7.06431e+06 0 4.00847e+06 7.07423e+06 0 4.20304e+06 7.07652e+06 0 4.40253e+06 7.07042e+06 0 4.60649e+06 7.05517e+06 0 4.81442e+06 7.03002e+06 0 5.02573e+06 6.99422e+06 0 5.23973e+06 6.94707e+06 0 5.45567e+06 6.88792e+06 0 5.6727e+06 6.81619e+06 0 5.88993e+06 6.73136e+06 0 6.10639e+06 6.63305e+06 0 6.32105e+06 6.52095e+06 0 6.53287e+06 6.39489e+06 0 6.74076e+06 6.25483e+06 0 6.94362e+06 6.10085e+06 0 7.14033e+06 5.93318e+06 0 7.32979e+06 5.75217e+06 0 7.51092e+06 5.55831e+06 0 7.68263e+06 5.3522e+06 0 7.8439e+06 5.13458e+06 0 7.9937e+06 4.90627e+06 0 8.13108e+06 4.6682e+06 0 8.25509e+06 4.42138e+06 0 8.36482e+06 4.1669e+06 0 8.4594e+06 3.90588e+06 0 8.53796e+06 3.63953e+06 0 8.59964e+06 3.36907e+06 0 8.64355e+06 3.09575e+06 0 8.6688e+06 2.82086e+06 0 8.6744e+06 2.54571e+06 0 478719 5.05475e+06 0 539832 5.14627e+06 0 598731 5.2209e+06 0 658668 5.29027e+06 0 721011 5.35699e+06 0 786421 5.42193e+06 0 855218 5.48534e+06 0 927601 5.5473e+06 0 1.00371e+06 5.60782e+06 0 1.08368e+06 5.66687e+06 0 1.16763e+06 5.72437e+06 0 1.25567e+06 5.78023e+06 0 1.34792e+06 5.83428e+06 0 1.44448e+06 5.88638e+06 0 1.54545e+06 5.93629e+06 0 1.65092e+06 5.98379e+06 0 1.76097e+06 6.0286e+06 0 1.87563e+06 6.07042e+06 0 1.99493e+06 6.10892e+06 0 2.11887e+06 6.14372e+06 0 2.2474e+06 6.17443e+06 0 2.38042e+06 6.20065e+06 0 2.51779e+06 6.22192e+06 0 2.65933e+06 6.23781e+06 0 2.80478e+06 6.24785e+06 0 2.95382e+06 6.25159e+06 0 3.10606e+06 6.24856e+06 0 3.26106e+06 6.23835e+06 0 3.4183e+06 6.22054e+06 0 3.5772e+06 6.19478e+06 0 3.73713e+06 6.16076e+06 0 3.8974e+06 6.11825e+06 0 4.0573e+06 6.06706e+06 0 4.21607e+06 6.00712e+06 0 4.37295e+06 5.93845e+06 0 4.52719e+06 5.86114e+06 0 4.67805e+06 5.7754e+06 0 4.82482e+06 5.68155e+06 0 4.96683e+06 5.57997e+06 0 5.10348e+06 5.47117e+06 0 5.23425e+06 5.35571e+06 0 5.35868e+06 5.23424e+06 0 5.47643e+06 5.10746e+06 0 5.58722e+06 4.97611e+06 0 5.6909e+06 4.84098e+06 0 5.78738e+06 4.70285e+06 0 5.87671e+06 4.56251e+06 0 5.95898e+06 4.42074e+06 0 6.03442e+06 4.2783e+06 0 6.1033e+06 4.1359e+06 0 6.16597e+06 3.9942e+06 0 6.22286e+06 3.85383e+06 0 6.27444e+06 3.71534e+06 0 6.32124e+06 3.57924e+06 0 6.36381e+06 3.44596e+06 0 6.40277e+06 3.31587e+06 0 6.43874e+06 3.1893e+06 0 6.47239e+06 3.0665e+06 0 6.5044e+06 2.9477e+06 0 6.53551e+06 2.83308e+06 0 6.56646e+06 2.72276e+06 0 6.59805e+06 2.61688e+06 0 6.63114e+06 2.51552e+06 0 6.66664e+06 2.41877e+06 0 638302 4.96804e+06 0 683506 5.03562e+06 0 738091 5.10391e+06 0 798465 5.16903e+06 0 863709 5.23122e+06 0 933477 5.2908e+06 0 1.0077e+06 5.34796e+06 0 1.08637e+06 5.40274e+06 0 1.16952e+06 5.45509e+06 0 1.25719e+06 5.50486e+06 0 1.34939e+06 5.55187e+06 0 1.44616e+06 5.59589e+06 0 1.54749e+06 5.63664e+06 0 1.65338e+06 5.67382e+06 0 1.76378e+06 5.70706e+06 0 1.87859e+06 5.73598e+06 0 1.99768e+06 5.76019e+06 0 2.12088e+06 5.77925e+06 0 2.24793e+06 5.79272e+06 0 2.37854e+06 5.80016e+06 0 2.51231e+06 5.80114e+06 0 2.64881e+06 5.79524e+06 0 2.78752e+06 5.78207e+06 0 2.92786e+06 5.76131e+06 0 3.06917e+06 5.73266e+06 0 3.21076e+06 5.69592e+06 0 3.35189e+06 5.65097e+06 0 3.4918e+06 5.59778e+06 0 3.6297e+06 5.53643e+06 0 3.76483e+06 5.46709e+06 0 3.89644e+06 5.39006e+06 0 4.02385e+06 5.30573e+06 0 4.14641e+06 5.21458e+06 0 4.26358e+06 5.11719e+06 0 4.37487e+06 5.01421e+06 0 4.47993e+06 4.90634e+06 0 4.57849e+06 4.79432e+06 0 4.67039e+06 4.6789e+06 0 4.75557e+06 4.56086e+06 0 4.83408e+06 4.44092e+06 0 4.90604e+06 4.3198e+06 0 4.97165e+06 4.19816e+06 0 5.03121e+06 4.0766e+06 0 5.08502e+06 3.95566e+06 0 5.13347e+06 3.83579e+06 0 5.17693e+06 3.71737e+06 0 5.21582e+06 3.60071e+06 0 5.25055e+06 3.48603e+06 0 5.28149e+06 3.3735e+06 0 5.30904e+06 3.26319e+06 0 5.33353e+06 3.15514e+06 0 5.35529e+06 3.04931e+06 0 5.3746e+06 2.94564e+06 0 5.39169e+06 2.84402e+06 0 5.40675e+06 2.74429e+06 0 5.41992e+06 2.64629e+06 0 5.43132e+06 2.54981e+06 0 5.44098e+06 2.45467e+06 0 5.4489e+06 2.36062e+06 0 5.45502e+06 2.26744e+06 0 5.45924e+06 2.17488e+06 0 5.46137e+06 2.08271e+06 0 5.46116e+06 1.99066e+06 0 5.45832e+06 1.89846e+06 0 749897 4.87664e+06 0 799148 4.93946e+06 0 854529 4.99911e+06 0 916231 5.05659e+06 0 983728 5.11149e+06 0 1.05666e+06 5.16364e+06 0 1.13477e+06 5.21286e+06 0 1.21792e+06 5.25898e+06 0 1.306e+06 5.30179e+06 0 1.39891e+06 5.341e+06 0 1.49655e+06 5.37632e+06 0 1.59881e+06 5.4074e+06 0 1.70553e+06 5.43386e+06 0 1.81651e+06 5.45529e+06 0 1.93152e+06 5.47127e+06 0 2.05024e+06 5.48136e+06 0 2.17229e+06 5.48513e+06 0 2.29724e+06 5.48217e+06 0 2.42456e+06 5.47209e+06 0 2.55367e+06 5.45454e+06 0 2.68391e+06 5.42925e+06 0 2.81457e+06 5.39599e+06 0 2.94489e+06 5.35466e+06 0 3.07409e+06 5.30523e+06 0 3.20137e+06 5.24778e+06 0 3.32593e+06 5.18253e+06 0 3.44702e+06 5.10977e+06 0 3.56392e+06 5.02993e+06 0 3.67599e+06 4.94353e+06 0 3.78266e+06 4.85117e+06 0 3.88347e+06 4.75352e+06 0 3.97806e+06 4.65131e+06 0 4.0662e+06 4.54529e+06 0 4.14773e+06 4.43621e+06 0 4.22262e+06 4.32481e+06 0 4.29093e+06 4.21182e+06 0 4.35282e+06 4.09791e+06 0 4.4085e+06 3.98368e+06 0 4.45823e+06 3.86969e+06 0 4.50235e+06 3.75641e+06 0 4.54119e+06 3.64425e+06 0 4.57511e+06 3.53354e+06 0 4.60448e+06 3.42454e+06 0 4.62967e+06 3.31748e+06 0 4.65101e+06 3.21249e+06 0 4.66884e+06 3.10969e+06 0 4.68348e+06 3.00915e+06 0 4.6952e+06 2.9109e+06 0 4.70428e+06 2.81497e+06 0 4.71097e+06 2.72136e+06 0 4.71548e+06 2.63005e+06 0 4.71803e+06 2.54104e+06 0 4.71883e+06 2.45432e+06 0 4.71805e+06 2.36988e+06 0 4.71589e+06 2.28771e+06 0 4.71253e+06 2.20781e+06 0 4.70815e+06 2.1302e+06 0 4.70295e+06 2.0549e+06 0 4.69713e+06 1.98194e+06 0 4.69092e+06 1.91135e+06 0 4.68455e+06 1.84319e+06 0 4.67831e+06 1.77753e+06 0 4.67248e+06 1.71444e+06 0 4.66744e+06 1.65399e+06 0 841566 4.79629e+06 0 891562 4.84876e+06 0 948694 4.90044e+06 0 1.01225e+06 4.94997e+06 0 1.08188e+06 4.9969e+06 0 1.15728e+06 5.0408e+06 0 1.23817e+06 5.08132e+06 0 1.32433e+06 5.11811e+06 0 1.41553e+06 5.15081e+06 0 1.51157e+06 5.17903e+06 0 1.61219e+06 5.20237e+06 0 1.71714e+06 5.22041e+06 0 1.82607e+06 5.23272e+06 0 1.9386e+06 5.23887e+06 0 2.05429e+06 5.23842e+06 0 2.17262e+06 5.231e+06 0 2.29298e+06 5.21623e+06 0 2.41473e+06 5.19383e+06 0 2.53715e+06 5.16356e+06 0 2.65946e+06 5.1253e+06 0 2.78086e+06 5.079e+06 0 2.90054e+06 5.02474e+06 0 3.01768e+06 4.96272e+06 0 3.13149e+06 4.89324e+06 0 3.24124e+06 4.81671e+06 0 3.34625e+06 4.73368e+06 0 3.44596e+06 4.64473e+06 0 3.53987e+06 4.55056e+06 0 3.62762e+06 4.4519e+06 0 3.70896e+06 4.34949e+06 0 3.78373e+06 4.2441e+06 0 3.8519e+06 4.13648e+06 0 3.91352e+06 4.02734e+06 0 3.96875e+06 3.91734e+06 0 4.0178e+06 3.80709e+06 0 4.06093e+06 3.69714e+06 0 4.09846e+06 3.58796e+06 0 4.13073e+06 3.47995e+06 0 4.1581e+06 3.37345e+06 0 4.18092e+06 3.26875e+06 0 4.19956e+06 3.16607e+06 0 4.21437e+06 3.06558e+06 0 4.2257e+06 2.96741e+06 0 4.23386e+06 2.87167e+06 0 4.23917e+06 2.77841e+06 0 4.24192e+06 2.68767e+06 0 4.24238e+06 2.59949e+06 0 4.24083e+06 2.51385e+06 0 4.23749e+06 2.43074e+06 0 4.23261e+06 2.35014e+06 0 4.22639e+06 2.27201e+06 0 4.21903e+06 2.19628e+06 0 4.21073e+06 2.1229e+06 0 4.20164e+06 2.05178e+06 0 4.19191e+06 1.98283e+06 0 4.18169e+06 1.91596e+06 0 4.17107e+06 1.85104e+06 0 4.16015e+06 1.78794e+06 0 4.14898e+06 1.72652e+06 0 4.1376e+06 1.66662e+06 0 4.126e+06 1.60807e+06 0 4.11415e+06 1.55069e+06 0 4.10195e+06 1.49426e+06 0 4.08929e+06 1.43858e+06 0 912585 4.71751e+06 0 965078 4.76295e+06 0 1.02399e+06 4.80668e+06 0 1.08926e+06 4.84829e+06 0 1.16061e+06 4.8871e+06 0 1.23778e+06 4.92259e+06 0 1.32046e+06 4.95425e+06 0 1.40836e+06 4.98161e+06 0 1.50118e+06 5.00422e+06 0 1.59857e+06 5.02161e+06 0 1.70017e+06 5.03332e+06 0 1.80553e+06 5.03891e+06 0 1.91417e+06 5.03794e+06 0 2.02555e+06 5.03002e+06 0 2.13902e+06 5.01479e+06 0 2.25391e+06 4.99195e+06 0 2.36946e+06 4.96129e+06 0 2.48489e+06 4.92269e+06 0 2.59936e+06 4.87612e+06 0 2.71205e+06 4.8217e+06 0 2.82212e+06 4.75963e+06 0 2.92878e+06 4.69025e+06 0 3.03129e+06 4.61402e+06 0 3.129e+06 4.53149e+06 0 3.22134e+06 4.44328e+06 0 3.30783e+06 4.3501e+06 0 3.38814e+06 4.25271e+06 0 3.46204e+06 4.15185e+06 0 3.52941e+06 4.04829e+06 0 3.59023e+06 3.94278e+06 0 3.6446e+06 3.83602e+06 0 3.69268e+06 3.72865e+06 0 3.73469e+06 3.62127e+06 0 3.77094e+06 3.5144e+06 0 3.80173e+06 3.4085e+06 0 3.82742e+06 3.30396e+06 0 3.84838e+06 3.2011e+06 0 3.86497e+06 3.10018e+06 0 3.87755e+06 3.00142e+06 0 3.88649e+06 2.90499e+06 0 3.89212e+06 2.811e+06 0 3.89479e+06 2.71954e+06 0 3.8948e+06 2.63066e+06 0 3.89245e+06 2.54438e+06 0 3.88802e+06 2.46071e+06 0 3.88175e+06 2.37962e+06 0 3.87389e+06 2.30107e+06 0 3.86464e+06 2.22501e+06 0 3.85422e+06 2.15138e+06 0 3.84278e+06 2.08009e+06 0 3.83049e+06 2.01108e+06 0 3.81749e+06 1.94424e+06 0 3.8039e+06 1.8795e+06 0 3.78981e+06 1.81676e+06 0 3.77534e+06 1.75595e+06 0 3.76055e+06 1.69698e+06 0 3.74552e+06 1.63978e+06 0 3.73032e+06 1.5843e+06 0 3.71503e+06 1.5305e+06 0 3.69971e+06 1.47834e+06 0 3.68445e+06 1.42782e+06 0 3.66935e+06 1.37894e+06 0 3.65454e+06 1.33173e+06 0 3.64017e+06 1.28626e+06 0 968777 4.64292e+06 0 1.02287e+06 4.68083e+06 0 1.08334e+06 4.71718e+06 0 1.14997e+06 4.75115e+06 0 1.22255e+06 4.78206e+06 0 1.3008e+06 4.80931e+06 0 1.3844e+06 4.83231e+06 0 1.47299e+06 4.85052e+06 0 1.56617e+06 4.86343e+06 0 1.6635e+06 4.87052e+06 0 1.76448e+06 4.87134e+06 0 1.86854e+06 4.86545e+06 0 1.97506e+06 4.85246e+06 0 2.08334e+06 4.83205e+06 0 2.19264e+06 4.80396e+06 0 2.30214e+06 4.76805e+06 0 2.41103e+06 4.72426e+06 0 2.51845e+06 4.67265e+06 0 2.62354e+06 4.61342e+06 0 2.72551e+06 4.54688e+06 0 2.82357e+06 4.47344e+06 0 2.91706e+06 4.39365e+06 0 3.00535e+06 4.30813e+06 0 3.08798e+06 4.21757e+06 0 3.16455e+06 4.1227e+06 0 3.23482e+06 4.02431e+06 0 3.29864e+06 3.92315e+06 0 3.35599e+06 3.81996e+06 0 3.40693e+06 3.71547e+06 0 3.45161e+06 3.61033e+06 0 3.49027e+06 3.50515e+06 0 3.52317e+06 3.40045e+06 0 3.55065e+06 3.29671e+06 0 3.57304e+06 3.19433e+06 0 3.59072e+06 3.09364e+06 0 3.60406e+06 2.99491e+06 0 3.61342e+06 2.89836e+06 0 3.61917e+06 2.80416e+06 0 3.62167e+06 2.71242e+06 0 3.62124e+06 2.62324e+06 0 3.6182e+06 2.53665e+06 0 3.61285e+06 2.45269e+06 0 3.60546e+06 2.37133e+06 0 3.59629e+06 2.29257e+06 0 3.58557e+06 2.21635e+06 0 3.5735e+06 2.14262e+06 0 3.56028e+06 2.07131e+06 0 3.54609e+06 2.00236e+06 0 3.53107e+06 1.93569e+06 0 3.51536e+06 1.87122e+06 0 3.4991e+06 1.80888e+06 0 3.48239e+06 1.74859e+06 0 3.46535e+06 1.69026e+06 0 3.44805e+06 1.63384e+06 0 3.4306e+06 1.57924e+06 0 3.41307e+06 1.5264e+06 0 3.39553e+06 1.47523e+06 0 3.37806e+06 1.42567e+06 0 3.3607e+06 1.37763e+06 0 3.3435e+06 1.33102e+06 0 3.32648e+06 1.28574e+06 0 3.30967e+06 1.24168e+06 0 3.29304e+06 1.19871e+06 0 3.27653e+06 1.15668e+06 0 1.01206e+06 4.5712e+06 0 1.06765e+06 4.60245e+06 0 1.12929e+06 4.63177e+06 0 1.19686e+06 4.65847e+06 0 1.27015e+06 4.68183e+06 0 1.34885e+06 4.7012e+06 0 1.43262e+06 4.71595e+06 0 1.52102e+06 4.7255e+06 0 1.61358e+06 4.7293e+06 0 1.70976e+06 4.72685e+06 0 1.80894e+06 4.71771e+06 0 1.91046e+06 4.70149e+06 0 2.01357e+06 4.67787e+06 0 2.1175e+06 4.64662e+06 0 2.22142e+06 4.60763e+06 0 2.32445e+06 4.56088e+06 0 2.42575e+06 4.5065e+06 0 2.52446e+06 4.4447e+06 0 2.61979e+06 4.37587e+06 0 2.71099e+06 4.30047e+06 0 2.7974e+06 4.21908e+06 0 2.87848e+06 4.13236e+06 0 2.95378e+06 4.04103e+06 0 3.02298e+06 3.94585e+06 0 3.08588e+06 3.84757e+06 0 3.14239e+06 3.74697e+06 0 3.19254e+06 3.64477e+06 0 3.23643e+06 3.54166e+06 0 3.27426e+06 3.43827e+06 0 3.30629e+06 3.33517e+06 0 3.33281e+06 3.23285e+06 0 3.35416e+06 3.13174e+06 0 3.37072e+06 3.03222e+06 0 3.38284e+06 2.93457e+06 0 3.39091e+06 2.83903e+06 0 3.39528e+06 2.74579e+06 0 3.39632e+06 2.65499e+06 0 3.39437e+06 2.56672e+06 0 3.38975e+06 2.48104e+06 0 3.38277e+06 2.39798e+06 0 3.3737e+06 2.31754e+06 0 3.3628e+06 2.23969e+06 0 3.35032e+06 2.1644e+06 0 3.33647e+06 2.09163e+06 0 3.32145e+06 2.02131e+06 0 3.30543e+06 1.95337e+06 0 3.28858e+06 1.88774e+06 0 3.27105e+06 1.82434e+06 0 3.25296e+06 1.7631e+06 0 3.23443e+06 1.70394e+06 0 3.21558e+06 1.64677e+06 0 3.19649e+06 1.59151e+06 0 3.17725e+06 1.53808e+06 0 3.15793e+06 1.4864e+06 0 3.1386e+06 1.43639e+06 0 3.11932e+06 1.38796e+06 0 3.10012e+06 1.34105e+06 0 3.08105e+06 1.29558e+06 0 3.06214e+06 1.25148e+06 0 3.04342e+06 1.20869e+06 0 3.02491e+06 1.16718e+06 0 3.00665e+06 1.1269e+06 0 2.98869e+06 1.08784e+06 0 2.9711e+06 1.05001e+06 0 1.04485e+06 4.50274e+06 0 1.10151e+06 4.52761e+06 0 1.16396e+06 4.55035e+06 0 1.23206e+06 4.57021e+06 0 1.30558e+06 4.58645e+06 0 1.3842e+06 4.59839e+06 0 1.46751e+06 4.6054e+06 0 1.55503e+06 4.60687e+06 0 1.6462e+06 4.60227e+06 0 1.7404e+06 4.59113e+06 0 1.83695e+06 4.57303e+06 0 1.93507e+06 4.54766e+06 0 2.03397e+06 4.51478e+06 0 2.1328e+06 4.47428e+06 0 2.23068e+06 4.42618e+06 0 2.32675e+06 4.37059e+06 0 2.42017e+06 4.30779e+06 0 2.51013e+06 4.23814e+06 0 2.5959e+06 4.16215e+06 0 2.67686e+06 4.08041e+06 0 2.75246e+06 3.9936e+06 0 2.82229e+06 3.90243e+06 0 2.88607e+06 3.80768e+06 0 2.94361e+06 3.7101e+06 0 2.99485e+06 3.61045e+06 0 3.03985e+06 3.50945e+06 0 3.07873e+06 3.40776e+06 0 3.11172e+06 3.30599e+06 0 3.13907e+06 3.2047e+06 0 3.1611e+06 3.10435e+06 0 3.17816e+06 3.00536e+06 0 3.19061e+06 2.90806e+06 0 3.19884e+06 2.81273e+06 0 3.2032e+06 2.71959e+06 0 3.20406e+06 2.62881e+06 0 3.20177e+06 2.5405e+06 0 3.19668e+06 2.45475e+06 0 3.18908e+06 2.37159e+06 0 3.17929e+06 2.29105e+06 0 3.16756e+06 2.21312e+06 0 3.15415e+06 2.13777e+06 0 3.13928e+06 2.06496e+06 0 3.12317e+06 1.99462e+06 0 3.106e+06 1.92671e+06 0 3.08795e+06 1.86114e+06 0 3.06916e+06 1.79784e+06 0 3.04979e+06 1.73673e+06 0 3.02994e+06 1.67773e+06 0 3.00973e+06 1.62076e+06 0 2.98926e+06 1.56572e+06 0 2.96861e+06 1.51255e+06 0 2.94787e+06 1.46115e+06 0 2.92709e+06 1.41146e+06 0 2.90633e+06 1.36339e+06 0 2.88564e+06 1.31687e+06 0 2.86508e+06 1.27184e+06 0 2.84468e+06 1.22822e+06 0 2.82448e+06 1.18597e+06 0 2.80451e+06 1.14501e+06 0 2.7848e+06 1.10529e+06 0 2.76539e+06 1.06676e+06 0 2.74628e+06 1.02934e+06 0 2.72749e+06 992956 0 2.709e+06 957527 0 1.06877e+06 4.43731e+06 0 1.1262e+06 4.45629e+06 0 1.18912e+06 4.47287e+06 0 1.25737e+06 4.48631e+06 0 1.33072e+06 4.49588e+06 0 1.40879e+06 4.5009e+06 0 1.49115e+06 4.50072e+06 0 1.57724e+06 4.49476e+06 0 1.66647e+06 4.4825e+06 0 1.75812e+06 4.46351e+06 0 1.85145e+06 4.43743e+06 0 1.94564e+06 4.40404e+06 0 2.03984e+06 4.36318e+06 0 2.13318e+06 4.31487e+06 0 2.22479e+06 4.25922e+06 0 2.3138e+06 4.19648e+06 0 2.39943e+06 4.12705e+06 0 2.48095e+06 4.05141e+06 0 2.55772e+06 3.97016e+06 0 2.62921e+06 3.88397e+06 0 2.69502e+06 3.79356e+06 0 2.75486e+06 3.69969e+06 0 2.80856e+06 3.60312e+06 0 2.85608e+06 3.50459e+06 0 2.89746e+06 3.40482e+06 0 2.93284e+06 3.30446e+06 0 2.96244e+06 3.20412e+06 0 2.98654e+06 3.10433e+06 0 3.00545e+06 3.00556e+06 0 3.01952e+06 2.9082e+06 0 3.02911e+06 2.81258e+06 0 3.0346e+06 2.71898e+06 0 3.03636e+06 2.62758e+06 0 3.03474e+06 2.53857e+06 0 3.03009e+06 2.45204e+06 0 3.02275e+06 2.36806e+06 0 3.01302e+06 2.28668e+06 0 3.00119e+06 2.20791e+06 0 2.98752e+06 2.13173e+06 0 2.97226e+06 2.05811e+06 0 2.95564e+06 1.987e+06 0 2.93785e+06 1.91836e+06 0 2.91908e+06 1.8521e+06 0 2.8995e+06 1.78816e+06 0 2.87925e+06 1.72646e+06 0 2.85846e+06 1.66691e+06 0 2.83725e+06 1.60944e+06 0 2.81573e+06 1.55396e+06 0 2.79399e+06 1.50039e+06 0 2.77211e+06 1.44865e+06 0 2.75017e+06 1.39866e+06 0 2.72822e+06 1.35034e+06 0 2.70633e+06 1.30363e+06 0 2.68454e+06 1.25844e+06 0 2.6629e+06 1.21471e+06 0 2.64144e+06 1.17238e+06 0 2.6202e+06 1.13137e+06 0 2.59921e+06 1.09164e+06 0 2.57849e+06 1.05311e+06 0 2.55805e+06 1.01572e+06 0 2.53792e+06 979438 0 2.5181e+06 944203 0 2.4986e+06 909982 0 2.47946e+06 876750 0 1.08527e+06 4.37494e+06 0 1.14316e+06 4.3884e+06 0 1.20624e+06 4.39923e+06 0 1.27433e+06 4.40669e+06 0 1.34716e+06 4.41006e+06 0 1.42432e+06 4.40865e+06 0 1.50534e+06 4.40185e+06 0 1.58961e+06 4.38909e+06 0 1.67647e+06 4.36989e+06 0 1.76518e+06 4.34387e+06 0 1.85493e+06 4.31075e+06 0 1.94489e+06 4.27036e+06 0 2.03417e+06 4.22267e+06 0 2.12189e+06 4.16778e+06 0 2.20722e+06 4.10592e+06 0 2.28933e+06 4.03744e+06 0 2.3675e+06 3.96283e+06 0 2.44108e+06 3.88265e+06 0 2.50953e+06 3.79758e+06 0 2.57243e+06 3.70832e+06 0 2.62949e+06 3.61562e+06 0 2.68053e+06 3.52024e+06 0 2.72549e+06 3.42291e+06 0 2.76441e+06 3.32435e+06 0 2.79743e+06 3.22521e+06 0 2.82477e+06 3.12609e+06 0 2.84669e+06 3.02752e+06 0 2.8635e+06 2.92998e+06 0 2.87555e+06 2.83385e+06 0 2.8832e+06 2.73946e+06 0 2.88682e+06 2.64708e+06 0 2.88678e+06 2.55691e+06 0 2.88343e+06 2.4691e+06 0 2.87713e+06 2.38378e+06 0 2.86819e+06 2.301e+06 0 2.85693e+06 2.2208e+06 0 2.84362e+06 2.1432e+06 0 2.82854e+06 2.06818e+06 0 2.81192e+06 1.9957e+06 0 2.79398e+06 1.92572e+06 0 2.77493e+06 1.85818e+06 0 2.75494e+06 1.79301e+06 0 2.73418e+06 1.73013e+06 0 2.71278e+06 1.66948e+06 0 2.69089e+06 1.61096e+06 0 2.66861e+06 1.55449e+06 0 2.64604e+06 1.5e+06 0 2.62328e+06 1.4474e+06 0 2.60041e+06 1.39661e+06 0 2.57749e+06 1.34756e+06 0 2.55459e+06 1.30016e+06 0 2.53177e+06 1.25434e+06 0 2.50906e+06 1.21004e+06 0 2.48652e+06 1.16718e+06 0 2.46417e+06 1.12569e+06 0 2.44205e+06 1.08552e+06 0 2.42018e+06 1.0466e+06 0 2.39858e+06 1.00888e+06 0 2.37728e+06 972308 0 2.35629e+06 936826 0 2.33562e+06 902391 0 2.31529e+06 868954 0 2.29531e+06 836468 0 2.27568e+06 804878 0 1.0955e+06 4.31552e+06 0 1.1536e+06 4.32384e+06 0 1.21658e+06 4.32932e+06 0 1.28424e+06 4.33122e+06 0 1.35626e+06 4.32883e+06 0 1.43222e+06 4.3215e+06 0 1.5116e+06 4.30863e+06 0 1.59375e+06 4.28967e+06 0 1.67798e+06 4.26422e+06 0 1.76349e+06 4.23193e+06 0 1.84947e+06 4.1926e+06 0 1.93505e+06 4.14614e+06 0 2.01935e+06 4.09262e+06 0 2.10151e+06 4.03221e+06 0 2.18073e+06 3.96525e+06 0 2.25624e+06 3.89217e+06 0 2.32739e+06 3.81352e+06 0 2.39361e+06 3.72994e+06 0 2.45446e+06 3.64213e+06 0 2.50963e+06 3.55081e+06 0 2.55892e+06 3.45675e+06 0 2.60224e+06 3.36067e+06 0 2.63962e+06 3.26328e+06 0 2.67117e+06 3.16525e+06 0 2.6971e+06 3.06718e+06 0 2.71767e+06 2.9696e+06 0 2.73318e+06 2.873e+06 0 2.74396e+06 2.77776e+06 0 2.75038e+06 2.68423e+06 0 2.7528e+06 2.59266e+06 0 2.75159e+06 2.50329e+06 0 2.7471e+06 2.41625e+06 0 2.73967e+06 2.33167e+06 0 2.72964e+06 2.24962e+06 0 2.7173e+06 2.17014e+06 0 2.70295e+06 2.09324e+06 0 2.68684e+06 2.0189e+06 0 2.66922e+06 1.94709e+06 0 2.6503e+06 1.87777e+06 0 2.63029e+06 1.81088e+06 0 2.60936e+06 1.74635e+06 0 2.58768e+06 1.6841e+06 0 2.56539e+06 1.62406e+06 0 2.54261e+06 1.56615e+06 0 2.51946e+06 1.51029e+06 0 2.49605e+06 1.45639e+06 0 2.47246e+06 1.40438e+06 0 2.44876e+06 1.35416e+06 0 2.42504e+06 1.30568e+06 0 2.40134e+06 1.25884e+06 0 2.37773e+06 1.21358e+06 0 2.35425e+06 1.16982e+06 0 2.33093e+06 1.1275e+06 0 2.30782e+06 1.08656e+06 0 2.28494e+06 1.04692e+06 0 2.26232e+06 1.00854e+06 0 2.23997e+06 971350 0 2.21793e+06 935305 0 2.1962e+06 900349 0 2.1748e+06 866436 0 2.15373e+06 833517 0 2.133e+06 801548 0 2.11263e+06 770489 0 2.09261e+06 740306 0 1.10042e+06 4.25898e+06 0 1.15851e+06 4.26252e+06 0 1.22117e+06 4.26301e+06 0 1.28817e+06 4.25975e+06 0 1.35917e+06 4.25204e+06 0 1.43371e+06 4.23926e+06 0 1.51122e+06 4.22082e+06 0 1.59106e+06 4.19625e+06 0 1.67247e+06 4.16516e+06 0 1.75466e+06 4.12729e+06 0 1.83677e+06 4.0825e+06 0 1.91795e+06 4.03079e+06 0 1.99733e+06 3.97229e+06 0 2.07409e+06 3.90726e+06 0 2.14746e+06 3.83611e+06 0 2.21674e+06 3.75935e+06 0 2.28136e+06 3.67757e+06 0 2.34083e+06 3.59144e+06 0 2.3948e+06 3.5017e+06 0 2.44304e+06 3.40907e+06 0 2.48544e+06 3.31429e+06 0 2.52199e+06 3.21806e+06 0 2.55279e+06 3.12106e+06 0 2.57801e+06 3.0239e+06 0 2.59789e+06 2.92713e+06 0 2.61273e+06 2.83123e+06 0 2.62285e+06 2.73662e+06 0 2.62861e+06 2.64364e+06 0 2.63036e+06 2.55258e+06 0 2.62847e+06 2.46365e+06 0 2.6233e+06 2.37702e+06 0 2.61518e+06 2.29281e+06 0 2.60444e+06 2.21111e+06 0 2.5914e+06 2.13196e+06 0 2.57633e+06 2.05536e+06 0 2.55951e+06 1.98133e+06 0 2.54117e+06 1.90981e+06 0 2.52154e+06 1.84078e+06 0 2.50081e+06 1.77416e+06 0 2.47917e+06 1.70991e+06 0 2.45677e+06 1.64794e+06 0 2.43377e+06 1.58818e+06 0 2.41029e+06 1.53054e+06 0 2.38644e+06 1.47495e+06 0 2.36233e+06 1.42133e+06 0 2.33805e+06 1.36959e+06 0 2.31367e+06 1.31966e+06 0 2.28926e+06 1.27146e+06 0 2.26489e+06 1.2249e+06 0 2.24061e+06 1.17993e+06 0 2.21646e+06 1.13646e+06 0 2.19248e+06 1.09443e+06 0 2.16871e+06 1.05378e+06 0 2.14517e+06 1.01445e+06 0 2.12189e+06 976370 0 2.0989e+06 939490 0 2.0762e+06 903756 0 2.05382e+06 869117 0 2.03177e+06 835524 0 2.01005e+06 802932 0 1.98868e+06 771297 0 1.96765e+06 740580 0 1.94699e+06 710740 0 1.92668e+06 681738 0 1.10086e+06 4.20522e+06 0 1.15875e+06 4.2043e+06 0 1.22089e+06 4.20016e+06 0 1.28705e+06 4.19211e+06 0 1.35684e+06 4.17948e+06 0 1.42979e+06 4.16168e+06 0 1.5053e+06 4.13816e+06 0 1.58269e+06 4.1085e+06 0 1.66119e+06 4.07235e+06 0 1.73998e+06 4.02952e+06 0 1.81823e+06 3.97994e+06 0 1.89507e+06 3.92366e+06 0 1.96967e+06 3.86091e+06 0 2.04125e+06 3.79201e+06 0 2.10908e+06 3.71742e+06 0 2.17255e+06 3.6377e+06 0 2.23113e+06 3.5535e+06 0 2.28444e+06 3.46549e+06 0 2.33219e+06 3.37442e+06 0 2.37423e+06 3.281e+06 0 2.41053e+06 3.18595e+06 0 2.44114e+06 3.08995e+06 0 2.46621e+06 2.99361e+06 0 2.48595e+06 2.89752e+06 0 2.50065e+06 2.80216e+06 0 2.51061e+06 2.70797e+06 0 2.51618e+06 2.61531e+06 0 2.5177e+06 2.52447e+06 0 2.51555e+06 2.43571e+06 0 2.51008e+06 2.34919e+06 0 2.50162e+06 2.26505e+06 0 2.49052e+06 2.18339e+06 0 2.47707e+06 2.10425e+06 0 2.46157e+06 2.02765e+06 0 2.44429e+06 1.95359e+06 0 2.42546e+06 1.88205e+06 0 2.40533e+06 1.813e+06 0 2.38408e+06 1.74636e+06 0 2.3619e+06 1.68208e+06 0 2.33896e+06 1.6201e+06 0 2.31541e+06 1.56033e+06 0 2.29136e+06 1.50269e+06 0 2.26695e+06 1.44711e+06 0 2.24227e+06 1.39351e+06 0 2.21741e+06 1.34179e+06 0 2.19246e+06 1.2919e+06 0 2.16748e+06 1.24374e+06 0 2.14253e+06 1.19724e+06 0 2.11767e+06 1.15233e+06 0 2.09294e+06 1.10894e+06 0 2.06838e+06 1.06701e+06 0 2.04404e+06 1.02646e+06 0 2.01992e+06 987230 0 1.99607e+06 949271 0 1.97251e+06 912522 0 1.94924e+06 876930 0 1.92628e+06 842443 0 1.90366e+06 809015 0 1.88137e+06 776598 0 1.85943e+06 745150 0 1.83783e+06 714630 0 1.8166e+06 684997 0 1.79572e+06 656215 0 1.7752e+06 628249 0 1.09748e+06 4.15413e+06 0 1.155e+06 4.14906e+06 0 1.21649e+06 4.14061e+06 0 1.28165e+06 4.12811e+06 0 1.35011e+06 4.11095e+06 0 1.42135e+06 4.08853e+06 0 1.49475e+06 4.06037e+06 0 1.5696e+06 4.02609e+06 0 1.64515e+06 3.98539e+06 0 1.72056e+06 3.93815e+06 0 1.79499e+06 3.88434e+06 0 1.86761e+06 3.82411e+06 0 1.93761e+06 3.75772e+06 0 2.00426e+06 3.68556e+06 0 2.0669e+06 3.60814e+06 0 2.12495e+06 3.52606e+06 0 2.17799e+06 3.43998e+06 0 2.22568e+06 3.3506e+06 0 2.26782e+06 3.25864e+06 0 2.30432e+06 3.16482e+06 0 2.33521e+06 3.06981e+06 0 2.36059e+06 2.97427e+06 0 2.38065e+06 2.87876e+06 0 2.39564e+06 2.78382e+06 0 2.40586e+06 2.6899e+06 0 2.41164e+06 2.59738e+06 0 2.41333e+06 2.50658e+06 0 2.41127e+06 2.41776e+06 0 2.40583e+06 2.33111e+06 0 2.39735e+06 2.24679e+06 0 2.38615e+06 2.1649e+06 0 2.37256e+06 2.08551e+06 0 2.35687e+06 2.00864e+06 0 2.33935e+06 1.9343e+06 0 2.32024e+06 1.86248e+06 0 2.29979e+06 1.79313e+06 0 2.27819e+06 1.72621e+06 0 2.25564e+06 1.66166e+06 0 2.23229e+06 1.59941e+06 0 2.20832e+06 1.53939e+06 0 2.18383e+06 1.48152e+06 0 2.15897e+06 1.42572e+06 0 2.13382e+06 1.37192e+06 0 2.10849e+06 1.32002e+06 0 2.08306e+06 1.26995e+06 0 2.05759e+06 1.22164e+06 0 2.03215e+06 1.17501e+06 0 2.00679e+06 1.12999e+06 0 1.98156e+06 1.0865e+06 0 1.9565e+06 1.04448e+06 0 1.93165e+06 1.00386e+06 0 1.90704e+06 964591 0 1.88268e+06 926601 0 1.85861e+06 889838 0 1.83484e+06 854248 0 1.81138e+06 819780 0 1.78825e+06 786387 0 1.76546e+06 754021 0 1.74301e+06 722639 0 1.72091e+06 692201 0 1.69917e+06 662666 0 1.67779e+06 633997 0 1.65677e+06 606160 0 1.63611e+06 579120 0 1.09086e+06 4.1056e+06 0 1.14788e+06 4.09665e+06 0 1.20857e+06 4.08419e+06 0 1.27264e+06 4.06758e+06 0 1.33965e+06 4.04621e+06 0 1.40909e+06 4.01955e+06 0 1.48032e+06 3.98716e+06 0 1.55261e+06 3.94868e+06 0 1.6252e+06 3.90389e+06 0 1.69726e+06 3.85271e+06 0 1.76797e+06 3.79519e+06 0 1.83652e+06 3.73151e+06 0 1.90214e+06 3.662e+06 0 1.96414e+06 3.58709e+06 0 2.02191e+06 3.50734e+06 0 2.07496e+06 3.42336e+06 0 2.1229e+06 3.33583e+06 0 2.16548e+06 3.24546e+06 0 2.20255e+06 3.15294e+06 0 2.23409e+06 3.05898e+06 0 2.26017e+06 2.96423e+06 0 2.28093e+06 2.86929e+06 0 2.2966e+06 2.7747e+06 0 2.30745e+06 2.68094e+06 0 2.3138e+06 2.58843e+06 0 2.31597e+06 2.49751e+06 0 2.31433e+06 2.40846e+06 0 2.30921e+06 2.3215e+06 0 2.30098e+06 2.23679e+06 0 2.28995e+06 2.15447e+06 0 2.27645e+06 2.0746e+06 0 2.26078e+06 1.99723e+06 0 2.24321e+06 1.92239e+06 0 2.224e+06 1.85005e+06 0 2.2034e+06 1.78019e+06 0 2.1816e+06 1.71277e+06 0 2.15881e+06 1.64773e+06 0 2.13519e+06 1.585e+06 0 2.11091e+06 1.52453e+06 0 2.0861e+06 1.46622e+06 0 2.06088e+06 1.41e+06 0 2.03536e+06 1.3558e+06 0 2.00965e+06 1.30354e+06 0 1.98381e+06 1.25312e+06 0 1.95793e+06 1.20449e+06 0 1.93207e+06 1.15756e+06 0 1.90629e+06 1.11226e+06 0 1.88063e+06 1.06852e+06 0 1.85514e+06 1.02628e+06 0 1.82985e+06 985457 0 1.80479e+06 946002 0 1.77999e+06 907852 0 1.75548e+06 870950 0 1.73126e+06 835244 0 1.70736e+06 800681 0 1.68379e+06 767213 0 1.66055e+06 734794 0 1.63766e+06 703379 0 1.61513e+06 672927 0 1.59294e+06 643398 0 1.57112e+06 614755 0 1.54966e+06 586963 0 1.52856e+06 559986 0 1.50782e+06 533794 0 1.08147e+06 4.05951e+06 0 1.13788e+06 4.04694e+06 0 1.19768e+06 4.03075e+06 0 1.26055e+06 4.01031e+06 0 1.32605e+06 3.98506e+06 0 1.39363e+06 3.9545e+06 0 1.46265e+06 3.91822e+06 0 1.53238e+06 3.87593e+06 0 1.60205e+06 3.82746e+06 0 1.67084e+06 3.77276e+06 0 1.73795e+06 3.71195e+06 0 1.80259e+06 3.64526e+06 0 1.86405e+06 3.57306e+06 0 1.92167e+06 3.49583e+06 0 1.9749e+06 3.41415e+06 0 2.02332e+06 3.32864e+06 0 2.06659e+06 3.24e+06 0 2.10452e+06 3.14892e+06 0 2.13701e+06 3.05609e+06 0 2.1641e+06 2.96218e+06 0 2.18589e+06 2.86781e+06 0 2.20256e+06 2.77356e+06 0 2.21436e+06 2.67992e+06 0 2.22159e+06 2.58734e+06 0 2.22456e+06 2.49619e+06 0 2.22361e+06 2.40678e+06 0 2.21909e+06 2.31935e+06 0 2.21135e+06 2.23409e+06 0 2.20072e+06 2.15116e+06 0 2.18753e+06 2.07063e+06 0 2.17208e+06 1.99258e+06 0 2.15465e+06 1.91703e+06 0 2.13551e+06 1.84398e+06 0 2.1149e+06 1.77342e+06 0 2.09305e+06 1.7053e+06 0 2.07015e+06 1.63957e+06 0 2.04638e+06 1.57619e+06 0 2.0219e+06 1.51507e+06 0 1.99685e+06 1.45614e+06 0 1.97137e+06 1.39934e+06 0 1.94557e+06 1.34458e+06 0 1.91955e+06 1.29178e+06 0 1.89339e+06 1.24086e+06 0 1.86717e+06 1.19176e+06 0 1.84096e+06 1.14439e+06 0 1.81481e+06 1.09867e+06 0 1.78878e+06 1.05455e+06 0 1.76292e+06 1.01194e+06 0 1.73725e+06 970794 0 1.71181e+06 931038 0 1.68662e+06 892615 0 1.66172e+06 855467 0 1.63712e+06 819540 0 1.61283e+06 784782 0 1.58887e+06 751145 0 1.56524e+06 718581 0 1.54197e+06 687047 0 1.51904e+06 656499 0 1.49648e+06 626898 0 1.47427e+06 598206 0 1.45243e+06 570386 0 1.43095e+06 543406 0 1.40984e+06 517231 0 1.38908e+06 491831 0 1.06973e+06 4.01575e+06 0 1.12542e+06 3.9998e+06 0 1.18425e+06 3.98012e+06 0 1.24585e+06 3.95612e+06 0 1.30979e+06 3.92727e+06 0 1.37548e+06 3.89312e+06 0 1.44229e+06 3.85329e+06 0 1.50948e+06 3.80753e+06 0 1.57627e+06 3.75572e+06 0 1.64188e+06 3.69787e+06 0 1.70552e+06 3.63415e+06 0 1.76644e+06 3.56482e+06 0 1.82396e+06 3.49029e+06 0 1.87747e+06 3.41109e+06 0 1.92649e+06 3.32779e+06 0 1.97062e+06 3.24105e+06 0 2.0096e+06 3.15155e+06 0 2.0433e+06 3.05998e+06 0 2.07166e+06 2.96701e+06 0 2.09474e+06 2.87328e+06 0 2.11269e+06 2.77939e+06 0 2.12573e+06 2.68586e+06 0 2.13411e+06 2.59317e+06 0 2.13815e+06 2.50173e+06 0 2.13816e+06 2.41187e+06 0 2.13449e+06 2.32386e+06 0 2.12748e+06 2.23793e+06 0 2.11747e+06 2.15424e+06 0 2.10479e+06 2.07291e+06 0 2.08974e+06 1.99401e+06 0 2.07263e+06 1.91759e+06 0 2.05372e+06 1.84366e+06 0 2.03326e+06 1.77222e+06 0 2.01148e+06 1.70323e+06 0 1.98859e+06 1.63665e+06 0 1.96477e+06 1.57243e+06 0 1.9402e+06 1.51051e+06 0 1.91502e+06 1.45081e+06 0 1.88937e+06 1.39326e+06 0 1.86336e+06 1.33778e+06 0 1.8371e+06 1.2843e+06 0 1.81069e+06 1.23275e+06 0 1.78419e+06 1.18303e+06 0 1.75769e+06 1.13508e+06 0 1.73125e+06 1.08882e+06 0 1.70491e+06 1.04419e+06 0 1.67872e+06 1.00111e+06 0 1.65272e+06 959524 0 1.62695e+06 919360 0 1.60143e+06 880560 0 1.5762e+06 843068 0 1.55125e+06 806827 0 1.52663e+06 771786 0 1.50233e+06 737894 0 1.47837e+06 705105 0 1.45476e+06 673373 0 1.4315e+06 642656 0 1.40861e+06 612912 0 1.38607e+06 584105 0 1.3639e+06 556196 0 1.3421e+06 529151 0 1.32066e+06 502937 0 1.29959e+06 477523 0 1.27888e+06 452878 0 1.05597e+06 3.9742e+06 0 1.11088e+06 3.95509e+06 0 1.16866e+06 3.93215e+06 0 1.22895e+06 3.90484e+06 0 1.29128e+06 3.87265e+06 0 1.35508e+06 3.83518e+06 0 1.41968e+06 3.79208e+06 0 1.48436e+06 3.74315e+06 0 1.54835e+06 3.68832e+06 0 1.61089e+06 3.62765e+06 0 1.6712e+06 3.56132e+06 0 1.72857e+06 3.48967e+06 0 1.78237e+06 3.41313e+06 0 1.83204e+06 3.33223e+06 0 1.87712e+06 3.24758e+06 0 1.9173e+06 3.15984e+06 0 1.95236e+06 3.06968e+06 0 1.98219e+06 2.97779e+06 0 2.00679e+06 2.8848e+06 0 2.02627e+06 2.79133e+06 0 2.04079e+06 2.69796e+06 0 2.05058e+06 2.60517e+06 0 2.05593e+06 2.51341e+06 0 2.05714e+06 2.42305e+06 0 2.05456e+06 2.33439e+06 0 2.04851e+06 2.24769e+06 0 2.03933e+06 2.16314e+06 0 2.02735e+06 2.08087e+06 0 2.0129e+06 2.00099e+06 0 1.99627e+06