<?xml version="1.0"?> 
<VTKFile type="StructuredGrid" version="0.1"> 
<StructuredGrid WholeExtent="0 63 0 63 0 0"> 
<Piece Extent="0 63 0 63 0 0"> 
<PointData>
<DataArray type="Float32" Name="|E|" format="ascii" NumberOfComponents="3"> 
-2.10627e+06 0 0 -2.10662e+06 6015.19 0 -2.10768e+06 12033.8 0 -2.10944e+06 18061.1 0 -2.1119e+06 24102.5 0 -2.11506e+06 30163.3 0 -2.11893e+06 36249 0 -2.12351e+06 42365.1 0 -2.12881e+06 48517.2 0 -2.13482e+06 54711.1 0 -2.14156e+06 60952.5 0 -2.14903e+06 67247.3 0 -2.15724e+06 73601.9 0 -2.16618e+06 80022.3 0 -2.17588e+06 86515.1 0 -2.18634e+06 93086.8 0 -2.19757e+06 99744.5 0 -2.20958e+06 106495 0 -2.22237e+06 113346 0 -2.23598e+06 120305 0 -2.25039e+06 127379 0 -2.26564e+06 134576 0 -2.28173e+06 141905 0 -2.29868e+06 149375 0 -2.3165e+06 156992 0 -2.33523e+06 164767 0 -2.35487e+06 172707 0 -2.37544e+06 180822 0 -2.39698e+06 189119 0 -2.4195e+06 197607 0 -2.44303e+06 206293 0 -2.4676e+06 215184 0 -2.49324e+06 224286 0 -2.51998e+06 233602 0 -2.54786e+06 243135 0 -2.57691e+06 252884 0 -2.60718e+06 262845 0 -2.6387e+06 273009 0 -2.67153e+06 283361 0 -2.70571e+06 293881 0 -2.74131e+06 304536 0 -2.77837e+06 315283 0 -2.81697e+06 326065 0 -2.85716e+06 336805 0 -2.89902e+06 347404 0 -2.94262e+06 357732 0 -2.98804e+06 367627 0 -3.03536e+06 376878 0 -3.08463e+06 385224 0 -3.13591e+06 392333 0 -3.18923e+06 397798 0 -3.24459e+06 401113 0 -3.30189e+06 401663 0 -3.36096e+06 398707 0 -3.42147e+06 391376 0 -3.48286e+06 378675 0 -3.54429e+06 359521 0 -3.60453e+06 332820 0 -3.66191e+06 297607 0 -3.71432e+06 253227 0 -3.75921e+06 199616 0 -3.7938e+06 137691 0 -3.81566e+06 70548 0 -3.82458e+06 -1989.26 0 -2.10579e+06 0 0 -2.10613e+06 5982.36 0 -2.10716e+06 11968 0 -2.10886e+06 17962 0 -2.11125e+06 23969.6 0 -2.11432e+06 29996 0 -2.11807e+06 36046.4 0 -2.12252e+06 42126.1 0 -2.12766e+06 48240.5 0 -2.13349e+06 54395.2 0 -2.14003e+06 60595.7 0 -2.14727e+06 66847.8 0 -2.15523e+06 73157.4 0 -2.16391e+06 79530.5 0 -2.17331e+06 85973.3 0 -2.18345e+06 92492.2 0 -2.19434e+06 99093.8 0 -2.20598e+06 105785 0 -2.21838e+06 112572 0 -2.23156e+06 119464 0 -2.24552e+06 126466 0 -2.26029e+06 133587 0 -2.27587e+06 140835 0 -2.29228e+06 148217 0 -2.30954e+06 155742 0 -2.32766e+06 163418 0 -2.34666e+06 171254 0 -2.36656e+06 179257 0 -2.38738e+06 187437 0 -2.40915e+06 195800 0 -2.43189e+06 204355 0 -2.45563e+06 213109 0 -2.48039e+06 222067 0 -2.5062e+06 231235 0 -2.5331e+06 240615 0 -2.56113e+06 250209 0 -2.59031e+06 260015 0 -2.62069e+06 270026 0 -2.65231e+06 280233 0 -2.68523e+06 290619 0 -2.71948e+06 301160 0 -2.75513e+06 311821 0 -2.79224e+06 322557 0 -2.83086e+06 333306 0 -2.87106e+06 343987 0 -2.91293e+06 354496 0 -2.95652e+06 364700 0 -3.00191e+06 374428 0 -3.04919e+06 383465 0 -3.0984e+06 391540 0 -3.14962e+06 398317 0 -3.20285e+06 403378 0 -3.2581e+06 406210 0 -3.31525e+06 406190 0 -3.37414e+06 402570 0 -3.43439e+06 394475 0 -3.49546e+06 380907 0 -3.55646e+06 360779 0 -3.61615e+06 333003 0 -3.67284e+06 296619 0 -3.72439e+06 251014 0 -3.76829e+06 195937 0 -3.8017e+06 132946 0 -3.8226e+06 63174.5 0 -2.1053e+06 0 0 -2.10564e+06 5947.86 0 -2.10663e+06 11898.9 0 -2.10828e+06 17858 0 -2.1106e+06 23830.2 0 -2.11358e+06 29820.4 0 -2.11722e+06 35833.9 0 -2.12153e+06 41875.6 0 -2.12651e+06 47950.7 0 -2.13217e+06 54064.7 0 -2.13851e+06 60222.8 0 -2.14553e+06 66430.7 0 -2.15325e+06 72693.8 0 -2.16166e+06 79018.2 0 -2.17078e+06 85409.6 0 -2.1806e+06 91874.3 0 -2.19115e+06 98418.6 0 -2.20243e+06 105049 0 -2.21444e+06 111772 0 -2.2272e+06 118595 0 -2.24073e+06 125524 0 -2.25502e+06 132568 0 -2.27011e+06 139734 0 -2.28599e+06 147028 0 -2.30268e+06 154460 0 -2.32021e+06 162038 0 -2.33859e+06 169768 0 -2.35783e+06 177660 0 -2.37796e+06 185722 0 -2.39899e+06 193961 0 -2.42096e+06 202384 0 -2.44388e+06 211000 0 -2.46778e+06 219815 0 -2.49269e+06 228833 0 -2.51864e+06 238059 0 -2.54566e+06 247495 0 -2.57379e+06 257140 0 -2.60306e+06 266993 0 -2.63351e+06 277046 0 -2.66519e+06 287286 0 -2.69815e+06 297695 0 -2.73243e+06 308246 0 -2.76809e+06 318904 0 -2.80518e+06 329619 0 -2.84378e+06 340326 0 -2.88395e+06 350941 0 -2.92577e+06 361355 0 -2.96929e+06 371431 0 -3.01461e+06 380992 0 -3.06178e+06 389817 0 -3.11089e+06 397630 0 -3.16197e+06 404086 0 -3.21506e+06 408760 0 -3.27013e+06 411130 0 -3.32709e+06 410564 0 -3.38573e+06 406306 0 -3.4457e+06 397477 0 -3.50642e+06 383074 0 -3.567e+06 362020 0 -3.62618e+06 333234 0 -3.68228e+06 295838 0 -3.73316e+06 249163 0 -3.77629e+06 193352 0 -3.80892e+06 130179 0 -2.10481e+06 0 0 -2.10514e+06 5911.7 0 -2.1061e+06 11826.4 0 -2.1077e+06 17749 0 -2.10995e+06 23684.1 0 -2.11283e+06 29636.6 0 -2.11637e+06 35611.5 0 -2.12055e+06 41613.5 0 -2.12538e+06 47647.9 0 -2.13086e+06 53719.5 0 -2.137e+06 59833.7 0 -2.14381e+06 65995.8 0 -2.15128e+06 72211.1 0 -2.15943e+06 78485.3 0 -2.16827e+06 84824 0 -2.17779e+06 91233.2 0 -2.188e+06 97718.9 0 -2.19892e+06 104287 0 -2.21055e+06 110945 0 -2.22291e+06 117698 0 -2.236e+06 124554 0 -2.24984e+06 131520 0 -2.26443e+06 138602 0 -2.27979e+06 145809 0 -2.29594e+06 153147 0 -2.31289e+06 160625 0 -2.33066e+06 168250 0 -2.34925e+06 176030 0 -2.3687e+06 183973 0 -2.38902e+06 192087 0 -2.41023e+06 200379 0 -2.43236e+06 208857 0 -2.45542e+06 217526 0 -2.47945e+06 226393 0 -2.50447e+06 235463 0 -2.53052e+06 244738 0 -2.55762e+06 254221 0 -2.58581e+06 263909 0 -2.61512e+06 273799 0 -2.6456e+06 283882 0 -2.6773e+06 294145 0 -2.71025e+06 304567 0 -2.74451e+06 315119 0 -2.78013e+06 325764 0 -2.81717e+06 336449 0 -2.8557e+06 347107 0 -2.89578e+06 357652 0 -2.93749e+06 367970 0 -2.98089e+06 377920 0 -3.02607e+06 387323 0 -3.0731e+06 395954 0 -3.12203e+06 403530 0 -3.17293e+06 409705 0 -3.22581e+06 414047 0 -3.28064e+06 416032 0 -3.33734e+06 415022 0 -3.3957e+06 410260 0 -3.45535e+06 400861 0 -3.51571e+06 385825 0 -3.57588e+06 364067 0 -3.63462e+06 334531 0 -3.69023e+06 296324 0 -3.74062e+06 248580 0 -3.78316e+06 193222 0 -2.10432e+06 0 0 -2.10463e+06 5873.89 0 -2.10557e+06 11750.7 0 -2.10712e+06 17635 0 -2.10929e+06 23531.4 0 -2.11209e+06 29444.6 0 -2.11551e+06 35379.2 0 -2.11956e+06 41340.1 0 -2.12424e+06 47331.9 0 -2.12956e+06 53359.8 0 -2.13551e+06 59428.5 0 -2.1421e+06 65543.3 0 -2.14934e+06 71709.3 0 -2.15723e+06 77931.9 0 -2.16579e+06 84216.5 0 -2.175e+06 90568.9 0 -2.18489e+06 96994.7 0 -2.19546e+06 103500 0 -2.20672e+06 110091 0 -2.21868e+06 116774 0 -2.23135e+06 123555 0 -2.24473e+06 130442 0 -2.25884e+06 137440 0 -2.2737e+06 144558 0 -2.28931e+06 151802 0 -2.30569e+06 159180 0 -2.32286e+06 166699 0 -2.34082e+06 174368 0 -2.35961e+06 182192 0 -2.37923e+06 190181 0 -2.3997e+06 198341 0 -2.42105e+06 206680 0 -2.4433e+06 215204 0 -2.46647e+06 223920 0 -2.49059e+06 232832 0 -2.51568e+06 241945 0 -2.54179e+06 251261 0 -2.56892e+06 260780 0 -2.59713e+06 270502 0 -2.62645e+06 280419 0 -2.65692e+06 290523 0 -2.68859e+06 300798 0 -2.72149e+06 311223 0 -2.75568e+06 321767 0 -2.79122e+06 332390 0 -2.82816e+06 343039 0 -2.86656e+06 353643 0 -2.90651e+06 364114 0 -2.94806e+06 374336 0 -2.99128e+06 384166 0 -3.03627e+06 393420 0 -3.08308e+06 401872 0 -3.13178e+06 409239 0 -3.18243e+06 415168 0 -3.23504e+06 419228 0 -3.28959e+06 420892 0 -3.34597e+06 419523 0 -3.404e+06 414363 0 -3.46329e+06 404531 0 -3.52327e+06 389028 0 -3.58306e+06 366772 0 -3.64141e+06 336807 0 -3.69669e+06 297726 0 -3.74664e+06 250899 0 -2.10382e+06 0 0 -2.10412e+06 5834.41 0 -2.10503e+06 11671.6 0 -2.10653e+06 17516 0 -2.10864e+06 23372.1 0 -2.11135e+06 29244.2 0 -2.11466e+06 35137.1 0 -2.11858e+06 41055.1 0 -2.12312e+06 47003 0 -2.12826e+06 52985.4 0 -2.13402e+06 59007.2 0 -2.14041e+06 65073.2 0 -2.14742e+06 71188.4 0 -2.15506e+06 77358 0 -2.16333e+06 83587.2 0 -2.17225e+06 89881.4 0 -2.18182e+06 96246.2 0 -2.19205e+06 102687 0 -2.20294e+06 109210 0 -2.21451e+06 115822 0 -2.22676e+06 122528 0 -2.2397e+06 129334 0 -2.25335e+06 136248 0 -2.2677e+06 143277 0 -2.28279e+06 150426 0 -2.29862e+06 157704 0 -2.3152e+06 165117 0 -2.33255e+06 172673 0 -2.35068e+06 180379 0 -2.36961e+06 188242 0 -2.38937e+06 196270 0 -2.40996e+06 204470 0 -2.43141e+06 212849 0 -2.45375e+06 221412 0 -2.47699e+06 230166 0 -2.50116e+06 239115 0 -2.52629e+06 248262 0 -2.55241e+06 257610 0 -2.57954e+06 267158 0 -2.60774e+06 276902 0 -2.63702e+06 286837 0 -2.66743e+06 296952 0 -2.69902e+06 307230 0 -2.73183e+06 317649 0 -2.76591e+06 328176 0 -2.80131e+06 338771 0 -2.8381e+06 349377 0 -2.87633e+06 359924 0 -2.91608e+06 370320 0 -2.95742e+06 380450 0 -3.00042e+06 390167 0 -3.04515e+06 399288 0 -3.09169e+06 407585 0 -3.1401e+06 414774 0 -3.19044e+06 420503 0 -3.24271e+06 424342 0 -3.29691e+06 425766 0 -3.35293e+06 424141 0 -3.41057e+06 418712 0 -3.46948e+06 408606 0 -3.52907e+06 392801 0 -3.58849e+06 370365 0 -3.64655e+06 339765 0 -3.70147e+06 301750 0 -2.10332e+06 0 0 -2.10361e+06 5793.27 0 -2.10449e+06 11589.2 0 -2.10594e+06 17392.1 0 -2.10798e+06 23206.1 0 -2.1106e+06 29035.7 0 -2.11381e+06 34885.1 0 -2.11761e+06 40758.7 0 -2.122e+06 46661 0 -2.12698e+06 52596.4 0 -2.13255e+06 58569.7 0 -2.13873e+06 64585.5 0 -2.14551e+06 70648.5 0 -2.1529e+06 76763.7 0 -2.16091e+06 82936.1 0 -2.16954e+06 89170.9 0 -2.1788e+06 95473.3 0 -2.18869e+06 101849 0 -2.19922e+06 108303 0 -2.2104e+06 114842 0 -2.22224e+06 121471 0 -2.23475e+06 128197 0 -2.24793e+06 135026 0 -2.26181e+06 141964 0 -2.27638e+06 149019 0 -2.29166e+06 156196 0 -2.30767e+06 163502 0 -2.32441e+06 170946 0 -2.34191e+06 178533 0 -2.36018e+06 186272 0 -2.37923e+06 194168 0 -2.39908e+06 202229 0 -2.41976e+06 210462 0 -2.44128e+06 218873 0 -2.46366e+06 227468 0 -2.48694e+06 236252 0 -2.51112e+06 245229 0 -2.53625e+06 254402 0 -2.56235e+06 263772 0 -2.58944e+06 273338 0 -2.61758e+06 283096 0 -2.64678e+06 293039 0 -2.67709e+06 303155 0 -2.70856e+06 313428 0 -2.74123e+06 323832 0 -2.77515e+06 334335 0 -2.81037e+06 344894 0 -2.84696e+06 355454 0 -2.88497e+06 365941 0 -2.92448e+06 376264 0 -2.96555e+06 386306 0 -3.00826e+06 395921 0 -3.05268e+06 404926 0 -3.09889e+06 413093 0 -3.14695e+06 420140 0 -3.1969e+06 425719 0 -3.24878e+06 429402 0 -3.30257e+06 430669 0 -3.35816e+06 428892 0 -3.41537e+06 423333 0 -3.47386e+06 413089 0 -3.53305e+06 397295 0 -3.59214e+06 374499 0 -3.64984e+06 344967 0 -2.10281e+06 0 0 -2.10309e+06 5750.48 0 -2.10394e+06 11503.5 0 -2.10535e+06 17263.2 0 -2.10732e+06 23033.6 0 -2.10986e+06 28818.9 0 -2.11296e+06 34623.2 0 -2.11664e+06 40450.8 0 -2.12088e+06 46305.9 0 -2.1257e+06 52192.9 0 -2.13109e+06 58116.2 0 -2.13707e+06 64080.2 0 -2.14363e+06 70089.5 0 -2.15078e+06 76149 0 -2.15852e+06 82263.2 0 -2.16686e+06 88437.3 0 -2.17581e+06 94676.2 0 -2.18537e+06 100985 0 -2.19555e+06 107370 0 -2.20635e+06 113835 0 -2.21779e+06 120387 0 -2.22988e+06 127031 0 -2.24261e+06 133774 0 -2.25601e+06 140622 0 -2.27007e+06 147580 0 -2.28482e+06 154656 0 -2.30027e+06 161857 0 -2.31643e+06 169187 0 -2.3333e+06 176656 0 -2.35092e+06 184269 0 -2.36928e+06 192034 0 -2.38842e+06 199956 0 -2.40834e+06 208044 0 -2.42906e+06 216302 0 -2.45061e+06 224738 0 -2.47301e+06 233356 0 -2.49628e+06 242162 0 -2.52044e+06 251159 0 -2.54553e+06 260348 0 -2.57156e+06 269731 0 -2.59858e+06 279306 0 -2.62661e+06 289069 0 -2.6557e+06 299011 0 -2.68587e+06 309119 0 -2.71718e+06 319377 0 -2.74966e+06 329758 0 -2.78338e+06 340230 0 -2.81837e+06 350749 0 -2.85471e+06 361258 0 -2.89245e+06 371685 0 -2.93166e+06 381938 0 -2.97241e+06 391900 0 -3.01477e+06 401426 0 -3.05882e+06 410335 0 -3.10463e+06 418401 0 -3.15227e+06 425346 0 -3.20179e+06 430827 0 -3.25321e+06 434422 0 -3.30652e+06 435619 0 -3.36163e+06 433808 0 -3.41836e+06 428227 0 -3.47638e+06 418114 0 -3.53517e+06 402193 0 -3.59386e+06 380397 0 -2.1023e+06 0 0 -2.10257e+06 5706.03 0 -2.10339e+06 11414.5 0 -2.10475e+06 17129.3 0 -2.10666e+06 22854.5 0 -2.10912e+06 28593.9 0 -2.11212e+06 34351.6 0 -2.11567e+06 40131.6 0 -2.11977e+06 45937.9 0 -2.12443e+06 51774.9 0 -2.12964e+06 57646.6 0 -2.13542e+06 63557.4 0 -2.14176e+06 69511.6 0 -2.14867e+06 75513.9 0 -2.15615e+06 81568.7 0 -2.16422e+06 87680.7 0 -2.17286e+06 93854.9 0 -2.1821e+06 100096 0 -2.19193e+06 106410 0 -2.20237e+06 112800 0 -2.21341e+06 119274 0 -2.22508e+06 125836 0 -2.23737e+06 132493 0 -2.2503e+06 139249 0 -2.26388e+06 146111 0 -2.27811e+06 153086 0 -2.29301e+06 160179 0 -2.30859e+06 167398 0 -2.32486e+06 174747 0 -2.34183e+06 182235 0 -2.35953e+06 189868 0 -2.37796e+06 197653 0 -2.39714e+06 205595 0 -2.4171e+06 213701 0 -2.43784e+06 221978 0 -2.45938e+06 230431 0 -2.48176e+06 239064 0 -2.50499e+06 247883 0 -2.52909e+06 256890 0 -2.5541e+06 266087 0 -2.58003e+06 275474 0 -2.60693e+06 285049 0 -2.63482e+06 294806 0 -2.66375e+06 304737 0 -2.69374e+06 314830 0 -2.72484e+06 325064 0 -2.75709e+06 335415 0 -2.79056e+06 345850 0 -2.82528e+06 356324 0 -2.86131e+06 366781 0 -2.89873e+06 377148 0 -2.93759e+06 387335 0 -2.97796e+06 397226 0 -3.01992e+06 406677 0 -3.06354e+06 415512 0 -3.1089e+06 423508 0 -3.15606e+06 430392 0 -3.20507e+06 435829 0 -3.25597e+06 439406 0 -3.30873e+06 440629 0 -3.3633e+06 438874 0 -3.41949e+06 433491 0 -3.47701e+06 423423 0 -3.53531e+06 408390 0 -2.10178e+06 0 0 -2.10205e+06 5659.93 0 -2.10284e+06 11322.2 0 -2.10415e+06 16990.5 0 -2.106e+06 22668.8 0 -2.10837e+06 28360.7 0 -2.11127e+06 34070.1 0 -2.1147e+06 39800.9 0 -2.11867e+06 45556.9 0 -2.12317e+06 51342.3 0 -2.12821e+06 57161 0 -2.13379e+06 63017.1 0 -2.13992e+06 68914.8 0 -2.14659e+06 74858.5 0 -2.15382e+06 80852.4 0 -2.1616e+06 86901.2 0 -2.16995e+06 93009.4 0 -2.17887e+06 99181.8 0 -2.18836e+06 105423 0 -2.19844e+06 111739 0 -2.2091e+06 118133 0 -2.22036e+06 124612 0 -2.23222e+06 131181 0 -2.24469e+06 137846 0 -2.25778e+06 144612 0 -2.27151e+06 151485 0 -2.28587e+06 158471 0 -2.30089e+06 165576 0 -2.31657e+06 172808 0 -2.33292e+06 180171 0 -2.34996e+06 187672 0 -2.36771e+06 195319 0 -2.38618e+06 203116 0 -2.40537e+06 211071 0 -2.42532e+06 219189 0 -2.44604e+06 227476 0 -2.46755e+06 235937 0 -2.48987e+06 244578 0 -2.51302e+06 253401 0 -2.53703e+06 262409 0 -2.56192e+06 271605 0 -2.58772e+06 280986 0 -2.61446e+06 290551 0 -2.64217e+06 300294 0 -2.67089e+06 310206 0 -2.70066e+06 320273 0 -2.73151e+06 330477 0 -2.76349e+06 340791 0 -2.79666e+06 351183 0 -2.83106e+06 361609 0 -2.86674e+06 372012 0 -2.90378e+06 382321 0 -2.94224e+06 392447 0 -2.98218e+06 402276 0 -3.02368e+06 411669 0 -3.06681e+06 420452 0 -3.11165e+06 428410 0 -3.15827e+06 435276 0 -3.20671e+06 440724 0 -3.25701e+06 444359 0 -3.30917e+06 445680 0 -3.36312e+06 444150 0 -3.41872e+06 438926 0 -3.47566e+06 429614 0 -2.10126e+06 0 0 -2.10151e+06 5612.17 0 -2.10228e+06 11226.6 0 -2.10355e+06 16846.8 0 -2.10533e+06 22476.5 0 -2.10763e+06 28119.2 0 -2.11043e+06 33778.8 0 -2.11374e+06 39458.8 0 -2.11757e+06 45163 0 -2.12192e+06 50895.2 0 -2.12678e+06 56659.3 0 -2.13217e+06 62459.3 0 -2.13809e+06 68299.1 0 -2.14453e+06 74182.8 0 -2.15151e+06 80114.6 0 -2.15903e+06 86098.8 0 -2.16709e+06 92139.9 0 -2.17569e+06 98242.2 0 -2.18485e+06 104410 0 -2.19457e+06 110649 0 -2.20486e+06 116964 0 -2.21571e+06 123359 0 -2.22715e+06 129840 0 -2.23918e+06 136413 0 -2.2518e+06 143081 0 -2.26502e+06 149852 0 -2.27886e+06 156731 0 -2.29333e+06 163724 0 -2.30843e+06 170837 0 -2.32418e+06 178075 0 -2.34058e+06 185446 0 -2.35766e+06 192955 0 -2.37543e+06 200608 0 -2.39389e+06 208411 0 -2.41307e+06 216371 0 -2.43299e+06 224493 0 -2.45366e+06 232782 0 -2.47509e+06 241244 0 -2.49732e+06 249883 0 -2.52036e+06 258701 0 -2.54423e+06 267702 0 -2.56897e+06 276887 0 -2.59459e+06 286253 0 -2.62114e+06 295800 0 -2.64863e+06 305519 0 -2.67711e+06 315403 0 -2.70661e+06 325437 0 -2.73717e+06 335602 0 -2.76884e+06 345873 0 -2.80166e+06 356218 0 -2.83569e+06 366591 0 -2.87098e+06 376940 0 -2.90759e+06 387193 0 -2.94559e+06 397264 0 -2.98504e+06 407042 0 -3.02603e+06 416393 0 -3.06861e+06 425148 0 -3.11287e+06 433098 0 -3.15887e+06 439988 0 -3.20668e+06 445504 0 -3.25632e+06 449254 0 -3.3078e+06 450800 0 -3.36108e+06 449491 0 -3.416e+06 444890 0 -2.10073e+06 0 0 -2.10098e+06 5562.77 0 -2.10172e+06 11127.6 0 -2.10295e+06 16698.1 0 -2.10467e+06 22277.6 0 -2.10688e+06 27869.6 0 -2.10958e+06 33477.7 0 -2.11278e+06 39105.3 0 -2.11648e+06 44756 0 -2.12068e+06 50433.6 0 -2.12537e+06 56141.7 0 -2.13057e+06 61884 0 -2.13628e+06 67664.4 0 -2.1425e+06 73486.8 0 -2.14923e+06 79355.2 0 -2.15648e+06 85273.6 0 -2.16426e+06 91246.3 0 -2.17256e+06 97277.5 0 -2.18139e+06 103372 0 -2.19076e+06 109533 0 -2.20068e+06 115767 0 -2.21114e+06 122078 0 -2.22217e+06 128470 0 -2.23376e+06 134949 0 -2.24592e+06 141521 0 -2.25866e+06 148190 0 -2.27198e+06 154961 0 -2.28591e+06 161841 0 -2.30045e+06 168835 0 -2.3156e+06 175950 0 -2.33139e+06 183189 0 -2.34782e+06 190561 0 -2.3649e+06 198070 0 -2.38265e+06 205723 0 -2.40108e+06 213526 0 -2.42022e+06 221483 0 -2.44006e+06 229601 0 -2.46064e+06 237884 0 -2.48197e+06 246338 0 -2.50407e+06 254966 0 -2.52696e+06 263771 0 -2.55067e+06 272756 0 -2.57522e+06 281920 0 -2.60063e+06 291262 0 -2.62694e+06 300780 0 -2.65418e+06 310468 0 -2.68237e+06 320314 0 -2.71157e+06 330307 0 -2.7418e+06 340427 0 -2.77311e+06 350649 0 -2.80554e+06 360941 0 -2.83915e+06 371261 0 -2.874e+06 381554 0 -2.91013e+06 391754 0 -2.94762e+06 401776 0 -2.98654e+06 411514 0 -3.02695e+06 420839 0 -3.06892e+06 429588 0 -3.11254e+06 437561 0 -3.15786e+06 444516 0 -3.20496e+06 450147 0 -3.25387e+06 454101 0 -3.30461e+06 455890 0 -3.35712e+06 455080 0 -2.1002e+06 0 0 -2.10044e+06 5511.71 0 -2.10115e+06 11025.4 0 -2.10234e+06 16544.5 0 -2.104e+06 22072.1 0 -2.10613e+06 27611.8 0 -2.10874e+06 33166.7 0 -2.11183e+06 38740.4 0 -2.1154e+06 44336.2 0 -2.11944e+06 49957.6 0 -2.12397e+06 55608.1 0 -2.12899e+06 61291.4 0 -2.13449e+06 67011 0 -2.14049e+06 72770.7 0 -2.14698e+06 78574.2 0 -2.15397e+06 84425.6 0 -2.16147e+06 90328.7 0 -2.16947e+06 96287.6 0 -2.17798e+06 102307 0 -2.18701e+06 108390 0 -2.19657e+06 114542 0 -2.20665e+06 120767 0 -2.21727e+06 127070 0 -2.22843e+06 133456 0 -2.24014e+06 139930 0 -2.2524e+06 146496 0 -2.26523e+06 153160 0 -2.27863e+06 159927 0 -2.29262e+06 166803 0 -2.3072e+06 173793 0 -2.32238e+06 180903 0 -2.33817e+06 188138 0 -2.35459e+06 195504 0 -2.37164e+06 203008 0 -2.38935e+06 210653 0 -2.40772e+06 218447 0 -2.42677e+06 226394 0 -2.44652e+06 234500 0 -2.46698e+06 242769 0 -2.48817e+06 251206 0 -2.5101e+06 259815 0 -2.53282e+06 268597 0 -2.55632e+06 277556 0 -2.58064e+06 286690 0 -2.60581e+06 296000 0 -2.63185e+06 305481 0 -2.65879e+06 315127 0 -2.68667e+06 324928 0 -2.71551e+06 334872 0 -2.74537e+06 344940 0 -2.77628e+06 355107 0 -2.80828e+06 365342 0 -2.84143e+06 375604 0 -2.87578e+06 385842 0 -2.91139e+06 395991 0 -2.94833e+06 405970 0 -2.98664e+06 415678 0 -3.02642e+06 424992 0 -3.06773e+06 433756 0 -3.11064e+06 441783 0 -3.15523e+06 448837 0 -3.20155e+06 454642 0 -3.24966e+06 458831 0 -3.29957e+06 461009 0 -2.09967e+06 0 0 -2.0999e+06 5459 0 -2.10058e+06 10919.9 0 -2.10173e+06 16385.9 0 -2.10333e+06 21860.1 0 -2.10539e+06 27345.8 0 -2.1079e+06 32846 0 -2.11088e+06 38364.2 0 -2.11432e+06 43903.4 0 -2.11822e+06 49467.1 0 -2.12258e+06 55058.6 0 -2.12742e+06 60681.3 0 -2.13272e+06 66338.7 0 -2.1385e+06 72034.3 0 -2.14476e+06 77771.8 0 -2.1515e+06 83554.8 0 -2.15872e+06 89387.1 0 -2.16642e+06 95272.7 0 -2.17462e+06 101215 0 -2.18332e+06 107219 0 -2.19252e+06 113289 0 -2.20223e+06 119428 0 -2.21245e+06 125641 0 -2.22319e+06 131933 0 -2.23446e+06 138308 0 -2.24626e+06 144772 0 -2.2586e+06 151328 0 -2.27149e+06 157983 0 -2.28494e+06 164741 0 -2.29896e+06 171607 0 -2.31354e+06 178587 0 -2.32872e+06 185686 0 -2.34449e+06 192910 0 -2.36087e+06 200264 0 -2.37787e+06 207754 0 -2.3955e+06 215385 0 -2.41377e+06 223162 0 -2.43271e+06 231091 0 -2.45233e+06 239177 0 -2.47263e+06 247423 0 -2.49365e+06 255835 0 -2.5154e+06 264415 0 -2.53789e+06 273166 0 -2.56116e+06 282089 0 -2.58523e+06 291186 0 -2.61011e+06 300453 0 -2.63584e+06 309887 0 -2.66245e+06 319483 0 -2.68997e+06 329232 0 -2.71843e+06 339119 0 -2.74787e+06 349128 0 -2.77833e+06 359234 0 -2.80987e+06 369408 0 -2.84251e+06 379610 0 -2.87632e+06 389792 0 -2.91136e+06 399892 0 -2.94768e+06 409833 0 -2.98536e+06 419521 0 -3.02445e+06 428836 0 -3.06503e+06 437636 0 -3.10717e+06 445740 0 -3.15095e+06 452932 0 -3.19644e+06 458945 0 -3.24367e+06 463427 0 -2.09913e+06 0 0 -2.09935e+06 5404.65 0 -2.10001e+06 10811.1 0 -2.10111e+06 16222.4 0 -2.10266e+06 21641.6 0 -2.10464e+06 27071.6 0 -2.10706e+06 32515.6 0 -2.10993e+06 37976.6 0 -2.11324e+06 43457.7 0 -2.117e+06 48962.1 0 -2.12121e+06 54493.1 0 -2.12587e+06 60053.8 0 -2.13098e+06 65647.6 0 -2.13654e+06 71277.8 0 -2.14257e+06 76947.8 0 -2.14905e+06 82661.3 0 -2.156e+06 88421.7 0 -2.16343e+06 94232.7 0 -2.17132e+06 100098 0 -2.17969e+06 106022 0 -2.18854e+06 112008 0 -2.19789e+06 118060 0 -2.20772e+06 124183 0 -2.21805e+06 130380 0 -2.22889e+06 136657 0 -2.24024e+06 143017 0 -2.2521e+06 149466 0 -2.26449e+06 156008 0 -2.27741e+06 162648 0 -2.29088e+06 169391 0 -2.30489e+06 176242 0 -2.31946e+06 183206 0 -2.3346e+06 190288 0 -2.35032e+06 197494 0 -2.36663e+06 204829 0 -2.38354e+06 212298 0 -2.40107e+06 219907 0 -2.41922e+06 227660 0 -2.43802e+06 235563 0 -2.45747e+06 243620 0 -2.47759e+06 251835 0 -2.49841e+06 260212 0 -2.51993e+06 268755 0 -2.54218e+06 277465 0 -2.56518e+06 286344 0 -2.58895e+06 295393 0 -2.61351e+06 304608 0 -2.6389e+06 313988 0 -2.66514e+06 323526 0 -2.69226e+06 333212 0 -2.7203e+06 343035 0 -2.74929e+06 352978 0 -2.77927e+06 363018 0 -2.81029e+06 373126 0 -2.84239e+06 383266 0 -2.87562e+06 393391 0 -2.91003e+06 403443 0 -2.9457e+06 413351 0 -2.98267e+06 423025 0 -3.02102e+06 432354 0 -3.06082e+06 441205 0 -3.10214e+06 449408 0 -3.14505e+06 456771 0 -3.18963e+06 462993 0 -2.09858e+06 0 0 -2.0988e+06 5348.65 0 -2.09944e+06 10699 0 -2.1005e+06 16054 0 -2.10198e+06 21416.4 0 -2.10389e+06 26789.2 0 -2.10622e+06 32175.3 0 -2.10899e+06 37577.6 0 -2.11217e+06 42999.1 0 -2.11579e+06 48442.8 0 -2.11984e+06 53911.7 0 -2.12433e+06 59409 0 -2.12925e+06 64937.7 0 -2.1346e+06 70501.1 0 -2.1404e+06 76102.5 0 -2.14664e+06 81745.1 0 -2.15333e+06 87432.3 0 -2.16047e+06 93167.8 0 -2.16806e+06 98954.9 0 -2.17612e+06 104797 0 -2.18463e+06 110699 0 -2.19361e+06 116664 0 -2.20307e+06 122695 0 -2.213e+06 128798 0 -2.22342e+06 134976 0 -2.23432e+06 141233 0 -2.24572e+06 147574 0 -2.25762e+06 154003 0 -2.27003e+06 160525 0 -2.28296e+06 167145 0 -2.29641e+06 173867 0 -2.3104e+06 180696 0 -2.32492e+06 187638 0 -2.34e+06 194697 0 -2.35564e+06 201878 0 -2.37186e+06 209187 0 -2.38865e+06 216628 0 -2.40604e+06 224207 0 -2.42404e+06 231928 0 -2.44266e+06 239797 0 -2.46192e+06 247816 0 -2.48183e+06 255991 0 -2.50241e+06 264325 0 -2.52368e+06 272822 0 -2.54565e+06 281482 0 -2.56835e+06 290308 0 -2.59179e+06 299300 0 -2.61601e+06 308455 0 -2.64102e+06 317771 0 -2.66686e+06 327241 0 -2.69355e+06 336858 0 -2.72112e+06 346609 0 -2.74962e+06 356479 0 -2.77908e+06 366446 0 -2.80954e+06 376484 0 -2.84105e+06 386558 0 -2.87365e+06 396624 0 -2.9074e+06 406629 0 -2.94236e+06 416506 0 -2.97859e+06 426171 0 -3.01615e+06 435524 0 -3.05511e+06 444436 0 -3.09555e+06 452768 0 -3.13753e+06 460269 0 -2.09803e+06 0 0 -2.09824e+06 5291.01 0 -2.09885e+06 10583.6 0 -2.09988e+06 15880.6 0 -2.1013e+06 21184.8 0 -2.10314e+06 26498.7 0 -2.10539e+06 31825.3 0 -2.10804e+06 37167.4 0 -2.11111e+06 42527.6 0 -2.11459e+06 47909 0 -2.11849e+06 53314.4 0 -2.1228e+06 58746.8 0 -2.12753e+06 64209.1 0 -2.13269e+06 69704.4 0 -2.13826e+06 75235.7 0 -2.14426e+06 80806.2 0 -2.1507e+06 86419.2 0 -2.15756e+06 92077.9 0 -2.16486e+06 97785.7 0 -2.1726e+06 103546 0 -2.18078e+06 109363 0 -2.18942e+06 115239 0 -2.1985e+06 121179 0 -2.20804e+06 127186 0 -2.21805e+06 133264 0 -2.22852e+06 139417 0 -2.23946e+06 145650 0 -2.25089e+06 151967 0 -2.2628e+06 158372 0 -2.2752e+06 164869 0 -2.28811e+06 171463 0 -2.30152e+06 178158 0 -2.31545e+06 184960 0 -2.32991e+06 191873 0 -2.3449e+06 198902 0 -2.36043e+06 206052 0 -2.37652e+06 213327 0 -2.39317e+06 220733 0 -2.4104e+06 228274 0 -2.42822e+06 235955 0 -2.44664e+06 243780 0 -2.46567e+06 251754 0 -2.48534e+06 259881 0 -2.50566e+06 268163 0 -2.52663e+06 276604 0 -2.5483e+06 285206 0 -2.57066e+06 293969 0 -2.59375e+06 302895 0 -2.61758e+06 311980 0 -2.64218e+06 321223 0 -2.66758e+06 330618 0 -2.69381e+06 340157 0 -2.72089e+06 349829 0 -2.74886e+06 359619 0 -2.77776e+06 369507 0 -2.80763e+06 379469 0 -2.83851e+06 389472 0 -2.87044e+06 399477 0 -2.90348e+06 409434 0 -2.93769e+06 419280 0 -2.97312e+06 428941 0 -3.00984e+06 438319 0 -3.04791e+06 447317 0 -3.08741e+06 455726 0 -2.09748e+06 0 0 -2.09768e+06 5231.72 0 -2.09827e+06 10465 0 -2.09925e+06 15702.4 0 -2.10063e+06 20946.5 0 -2.10239e+06 26200.1 0 -2.10455e+06 31465.6 0 -2.10711e+06 36745.8 0 -2.11006e+06 42043.3 0 -2.1134e+06 47360.9 0 -2.11715e+06 52701.3 0 -2.12129e+06 58067.3 0 -2.12584e+06 63461.8 0 -2.13079e+06 68887.5 0 -2.13615e+06 74347.5 0 -2.14192e+06 79844.7 0 -2.1481e+06 85382.2 0 -2.1547e+06 90963.1 0 -2.16171e+06 96590.6 0 -2.16914e+06 102268 0 -2.177e+06 107998 0 -2.18529e+06 113786 0 -2.19401e+06 119633 0 -2.20317e+06 125544 0 -2.21277e+06 131522 0 -2.22282e+06 137572 0 -2.23333e+06 143697 0 -2.24429e+06 149901 0 -2.25571e+06 156188 0 -2.26761e+06 162563 0 -2.27998e+06 169029 0 -2.29283e+06 175592 0 -2.30618e+06 182254 0 -2.32003e+06 189022 0 -2.33439e+06 195900 0 -2.34926e+06 202892 0 -2.36466e+06 210003 0 -2.38059e+06 217238 0 -2.39707e+06 224600 0 -2.41411e+06 232096 0 -2.43172e+06 239729 0 -2.44991e+06 247503 0 -2.4687e+06 255423 0 -2.4881e+06 263492 0 -2.50812e+06 271713 0 -2.52878e+06 280090 0 -2.55011e+06 288624 0 -2.57211e+06 297316 0 -2.59481e+06 306166 0 -2.61822e+06 315173 0 -2.64239e+06 324335 0 -2.66732e+06 333646 0 -2.69304e+06 343098 0 -2.7196e+06 352683 0 -2.74701e+06 362385 0 -2.77531e+06 372188 0 -2.80455e+06 382068 0 -2.83476e+06 391996 0 -2.86599e+06 401935 0 -2.89828e+06 411841 0 -2.93169e+06 421657 0 -2.96628e+06 431310 0 -3.00211e+06 440732 0 -3.03925e+06 449754 0 -2.09692e+06 0 0 -2.09712e+06 5170.8 0 -2.09768e+06 10343 0 -2.09863e+06 15519.2 0 -2.09995e+06 20701.8 0 -2.10164e+06 25893.3 0 -2.10372e+06 31096.1 0 -2.10617e+06 36312.9 0 -2.10901e+06 41546.1 0 -2.11222e+06 46798.4 0 -2.11582e+06 52072.3 0 -2.1198e+06 57370.5 0 -2.12417e+06 62695.7 0 -2.12892e+06 68050.6 0 -2.13407e+06 73438 0 -2.13961e+06 78860.7 0 -2.14554e+06 84321.5 0 -2.15187e+06 89823.5 0 -2.15861e+06 95369.6 0 -2.16574e+06 100963 0 -2.17328e+06 106607 0 -2.18124e+06 112304 0 -2.18961e+06 118058 0 -2.19839e+06 123873 0 -2.2076e+06 129751 0 -2.21724e+06 135697 0 -2.22731e+06 141713 0 -2.23782e+06 147805 0 -2.24877e+06 153975 0 -2.26017e+06 160227 0 -2.27202e+06 166567 0 -2.28433e+06 172997 0 -2.29712e+06 179521 0 -2.31037e+06 186146 0 -2.32411e+06 192873 0 -2.33835e+06 199709 0 -2.35308e+06 206657 0 -2.36831e+06 213722 0 -2.38407e+06 220908 0 -2.40036e+06 228220 0 -2.41718e+06 235662 0 -2.43455e+06 243239 0 -2.45249e+06 250953 0 -2.471e+06 258811 0 -2.49009e+06 266814 0 -2.50979e+06 274966 0 -2.53011e+06 283269 0 -2.55107e+06 291726 0 -2.57268e+06 300337 0 -2.59496e+06 309104 0 -2.61794e+06 318023 0 -2.64163e+06 327095 0 -2.66606e+06 336312 0 -2.69126e+06 345670 0 -2.71725e+06 355159 0 -2.74407e+06 364767 0 -2.77174e+06 374477 0 -2.80031e+06 384268 0 -2.82982e+06 394115 0 -2.8603e+06 403984 0 -2.89181e+06 413834 0 -2.92439e+06 423612 0 -2.9581e+06 433271 0 -2.993e+06 442673 0 -2.09636e+06 0 0 -2.09655e+06 5108.23 0 -2.09709e+06 10217.8 0 -2.098e+06 15331.1 0 -2.09926e+06 20450.5 0 -2.10089e+06 25578.3 0 -2.10288e+06 30716.9 0 -2.10524e+06 35868.7 0 -2.10796e+06 41036.1 0 -2.11105e+06 46221.5 0 -2.1145e+06 51427.5 0 -2.11832e+06 56656.5 0 -2.12251e+06 61911 0 -2.12708e+06 67193.7 0 -2.13202e+06 72507.2 0 -2.13733e+06 77854 0 -2.14302e+06 83237 0 -2.1491e+06 88659 0 -2.15555e+06 94122.7 0 -2.1624e+06 99631.1 0 -2.16963e+06 105187 0 -2.17726e+06 110794 0 -2.18528e+06 116454 0 -2.1937e+06 122172 0 -2.20253e+06 127949 0 -2.21176e+06 133791 0 -2.22141e+06 139699 0 -2.23148e+06 145678 0 -2.24196e+06 151731 0 -2.25288e+06 157862 0 -2.26423e+06 164075 0 -2.27601e+06 170373 0 -2.28825e+06 176761 0 -2.30093e+06 183242 0 -2.31407e+06 189821 0 -2.32768e+06 196502 0 -2.34176e+06 203289 0 -2.35633e+06 210186 0 -2.37138e+06 217197 0 -2.38693e+06 224328 0 -2.403e+06 231581 0 -2.41958e+06 238962 0 -2.43669e+06 246474 0 -2.45434e+06 254121 0 -2.47255e+06 261907 0 -2.49132e+06 269836 0 -2.51067e+06 277909 0 -2.53062e+06 286130 0 -2.55119e+06 294501 0 -2.57238e+06 303023 0 -2.59421e+06 311697 0 -2.61672e+06 320520 0 -2.63991e+06 329492 0 -2.66381e+06 338608 0 -2.68845e+06 347863 0 -2.71385e+06 357248 0 -2.74004e+06 366752 0 -2.76706e+06 376362 0 -2.79493e+06 386057 0 -2.8237e+06 395816 0 -2.8534e+06 405608 0 -2.88409e+06 415394 0 -2.9158e+06 425143 0 -2.94859e+06 434744 0 -2.0958e+06 0 0 -2.09597e+06 5044.02 0 -2.09649e+06 10089.3 0 -2.09736e+06 15138.1 0 -2.09858e+06 20192.7 0 -2.10014e+06 25255.2 0 -2.10205e+06 30328 0 -2.10431e+06 35413.2 0 -2.10692e+06 40513.2 0 -2.10988e+06 45630.3 0 -2.11319e+06 50766.8 0 -2.11686e+06 55925.1 0 -2.12088e+06 61107.7 0 -2.12526e+06 66316.8 0 -2.12999e+06 71555 0 -2.13508e+06 76824.9 0 -2.14054e+06 82128.9 0 -2.14636e+06 87469.7 0 -2.15255e+06 92850 0 -2.15911e+06 98272.5 0 -2.16604e+06 103740 0 -2.17335e+06 109255 0 -2.18103e+06 114821 0 -2.1891e+06 120441 0 -2.19755e+06 126118 0 -2.2064e+06 131855 0 -2.21563e+06 137655 0 -2.22527e+06 143521 0 -2.2353e+06 149458 0 -2.24575e+06 155467 0 -2.2566e+06 161554 0 -2.26788e+06 167721 0 -2.27958e+06 173973 0 -2.2917e+06 180312 0 -2.30426e+06 186744 0 -2.31727e+06 193271 0 -2.33072e+06 199898 0 -2.34463e+06 206629 0 -2.359e+06 213469 0 -2.37384e+06 220420 0 -2.38917e+06 227487 0 -2.40498e+06 234674 0 -2.4213e+06 241986 0 -2.43812e+06 249425 0 -2.45547e+06 256996 0 -2.47335e+06 264703 0 -2.49177e+06 272548 0 -2.51075e+06 280534 0 -2.53031e+06 288665 0 -2.55045e+06 296941 0 -2.57119e+06 305365 0 -2.59256e+06 313936 0 -2.61457e+06 322654 0 -2.63723e+06 331518 0 -2.66058e+06 340523 0 -2.68463e+06 349666 0 -2.70941e+06 358939 0 -2.73495e+06 368331 0 -2.76128e+06 377832 0 -2.78843e+06 387423 0 -2.81643e+06 397086 0 -2.84532e+06 406790 0 -2.87515e+06 416517 0 -2.90596e+06 426176 0 -2.09523e+06 0 0 -2.0954e+06 4978.18 0 -2.0959e+06 9957.55 0 -2.09673e+06 14940.2 0 -2.09789e+06 19928.4 0 -2.09939e+06 24924 0 -2.10122e+06 29929.3 0 -2.10339e+06 34946.5