<?xml version="1.0"?> 
<VTKFile type="StructuredGrid" version="0.1"> 
<StructuredGrid WholeExtent="0 63 0 63 0 0"> 
<Piece Extent="0 63 0 63 0 0"> 
<PointData>
<DataArray type="Float32" Name="|E|" format="ascii" NumberOfComponents="3"> 
-1.83776e+06 0 0 -1.83821e+06 25137.9 0 -1.83955e+06 50303.4 0 -1.84178e+06 75524.4 0 -1.8449e+06 100829 0 -1.84891e+06 126245 0 -1.85381e+06 151802 0 -1.85959e+06 177528 0 -1.86626e+06 203455 0 -1.87382e+06 229613 0 -1.88227e+06 256034 0 -1.89159e+06 282751 0 -1.9018e+06 309799 0 -1.91289e+06 337215 0 -1.92485e+06 365035 0 -1.93768e+06 393301 0 -1.95137e+06 422053 0 -1.96592e+06 451339 0 -1.98131e+06 481204 0 -1.99754e+06 511701 0 -2.01457e+06 542884 0 -2.0324e+06 574814 0 -2.05101e+06 607555 0 -2.07035e+06 641176 0 -2.09039e+06 675755 0 -2.11108e+06 711376 0 -2.13237e+06 748131 0 -2.15418e+06 786120 0 -2.17642e+06 825456 0 -2.19898e+06 866261 0 -2.22171e+06 908669 0 -2.24443e+06 952827 0 -2.26692e+06 998891 0 -2.28889e+06 1.04703e+06 0 -2.30997e+06 1.09741e+06 0 -2.3297e+06 1.15019e+06 0 -2.34751e+06 1.20551e+06 0 -2.36266e+06 1.26345e+06 0 -2.37425e+06 1.32401e+06 0 -2.38117e+06 1.38702e+06 0 -2.38208e+06 1.45204e+06 0 -2.37549e+06 1.51825e+06 0 -2.35975e+06 1.58431e+06 0 -2.33331e+06 1.64817e+06 0 -2.29496e+06 1.70699e+06 0 -2.24423e+06 1.75723e+06 0 -2.1818e+06 1.79486e+06 0 -2.10972e+06 1.816e+06 0 -2.0313e+06 1.81748e+06 0 -1.95072e+06 1.79747e+06 0 -1.87222e+06 1.75565e+06 0 -1.79952e+06 1.69305e+06 0 -1.73528e+06 1.61154e+06 0 -1.68103e+06 1.51323e+06 0 -1.63733e+06 1.40006e+06 0 -1.60393e+06 1.27354e+06 0 -1.57982e+06 1.13414e+06 0 -1.56456e+06 981132 0 -1.55925e+06 814262 0 -1.56003e+06 634397 0 -1.55723e+06 420585 0 -1.59612e+06 146791 0 -1.81089e+06 -117427 0 -2.17521e+06 -1.90735e-06 0 -1.83524e+06 0 0 -1.83569e+06 25226.7 0 -1.83703e+06 50481 0 -1.83925e+06 75790.8 0 -1.84236e+06 101184 0 -1.84636e+06 126689 0 -1.85124e+06 152334 0 -1.85701e+06 178149 0 -1.86366e+06 204165 0 -1.87119e+06 230411 0 -1.87961e+06 256920 0 -1.8889e+06 283726 0 -1.89908e+06 310862 0 -1.91012e+06 338365 0 -1.92204e+06 366272 0 -1.93483e+06 394624 0 -1.94847e+06 423463 0 -1.96296e+06 452832 0 -1.97829e+06 482781 0 -1.99445e+06 513360 0 -2.01141e+06 544624 0 -2.02917e+06 576632 0 -2.04768e+06 609448 0 -2.06693e+06 643141 0 -2.08688e+06 677788 0 -2.10746e+06 713471 0 -2.12863e+06 750281 0 -2.15032e+06 788318 0 -2.17242e+06 827691 0 -2.19482e+06 868520 0 -2.21739e+06 910937 0 -2.23993e+06 955083 0 -2.26222e+06 1.00111e+06 0 -2.28397e+06 1.04918e+06 0 -2.30482e+06 1.09944e+06 0 -2.32431e+06 1.15206e+06 0 -2.34186e+06 1.20716e+06 0 -2.35675e+06 1.2648e+06 0 -2.36809e+06 1.32495e+06 0 -2.37479e+06 1.38743e+06 0 -2.37554e+06 1.45178e+06 0 -2.36889e+06 1.51717e+06 0 -2.35327e+06 1.58224e+06 0 -2.32719e+06 1.64497e+06 0 -2.28951e+06 1.70258e+06 0 -2.23984e+06 1.75161e+06 0 -2.17886e+06 1.78817e+06 0 -2.10858e+06 1.8085e+06 0 -2.03223e+06 1.80956e+06 0 -1.95381e+06 1.78956e+06 0 -1.87744e+06 1.74814e+06 0 -1.80672e+06 1.68627e+06 0 -1.74426e+06 1.60569e+06 0 -1.69158e+06 1.50841e+06 0 -1.64929e+06 1.39629e+06 0 -1.61717e+06 1.27075e+06 0 -1.59438e+06 1.13226e+06 0 -1.58052e+06 980145 0 -1.57656e+06 814259 0 -1.57871e+06 634303 0 -1.5814e+06 422244 0 -1.62582e+06 157208 0 -1.83132e+06 -84544.1 0 -2.13377e+06 2.94298e-07 0 -1.83272e+06 0 0 -1.83317e+06 25315.2 0 -1.8345e+06 50658.1 0 -1.83672e+06 76056.3 0 -1.83981e+06 101538 0 -1.8438e+06 127131 0 -1.84866e+06 152865 0 -1.85441e+06 178769 0 -1.86104e+06 204872 0 -1.86855e+06 231207 0 -1.87694e+06 257804 0 -1.8862e+06 284697 0 -1.89634e+06 311921 0 -1.90735e+06 339511 0 -1.91923e+06 367505 0 -1.93196e+06 395943 0 -1.94556e+06 424866 0 -1.95999e+06 454321 0 -1.97526e+06 484352 0 -1.99135e+06 515013 0 -2.00825e+06 546356 0 -2.02592e+06 578442 0 -2.04436e+06 611332 0 -2.06351e+06 645097 0 -2.08336e+06 679810 0 -2.10384e+06 715554 0 -2.12489e+06 752419 0 -2.14645e+06 790502 0 -2.16841e+06 829912 0 -2.19066e+06 870764 0 -2.21306e+06 913188 0 -2.23542e+06 957320 0 -2.25752e+06 1.00331e+06 0 -2.27906e+06 1.0513e+06 0 -2.29968e+06 1.10146e+06 0 -2.31893e+06 1.15391e+06 0 -2.33624e+06 1.20878e+06 0 -2.35088e+06 1.26611e+06 0 -2.36198e+06 1.32586e+06 0 -2.36847e+06 1.38782e+06 0 -2.36908e+06 1.45151e+06 0 -2.36239e+06 1.51608e+06 0 -2.3469e+06 1.58019e+06 0 -2.32118e+06 1.64182e+06 0 -2.28418e+06 1.69826e+06 0 -2.23555e+06 1.74611e+06 0 -2.17601e+06 1.78164e+06 0 -2.10751e+06 1.8012e+06 0 -2.03317e+06 1.80186e+06 0 -1.95688e+06 1.78186e+06 0 -1.8826e+06 1.74084e+06 0 -1.81384e+06 1.67967e+06 0 -1.75314e+06 1.6e+06 0 -1.70203e+06 1.50374e+06 0 -1.66114e+06 1.39265e+06 0 -1.63032e+06 1.26809e+06 0 -1.60885e+06 1.1305e+06 0 -1.59639e+06 979308 0 -1.59376e+06 814358 0 -1.5975e+06 634566 0 -1.60503e+06 424369 0 -1.65432e+06 167957 0 -1.84887e+06 -55858.9 0 -2.1016e+06 7.7486e-07 0 -1.83018e+06 0 0 -1.83063e+06 25403.5 0 -1.83196e+06 50834.6 0 -1.83417e+06 76321.1 0 -1.83726e+06 101891 0 -1.84123e+06 127572 0 -1.84608e+06 153394 0 -1.85181e+06 179386 0 -1.85841e+06 205578 0 -1.8659e+06 232000 0 -1.87426e+06 258685 0 -1.88349e+06 285665 0 -1.8936e+06 312976 0 -1.90457e+06 340653 0 -1.9164e+06 368733 0 -1.92909e+06 397256 0 -1.94263e+06 426265 0 -1.95701e+06 455803 0 -1.97222e+06 485917 0 -1.98825e+06 516659 0 -2.00507e+06 548081 0 -2.02267e+06 580243 0 -2.04102e+06 613208 0 -2.06009e+06 647043 0 -2.07983e+06 681822 0 -2.1002e+06 717627 0 -2.12114e+06 754545 0 -2.14257e+06 792674 0 -2.16439e+06 832118 0 -2.1865e+06 872992 0 -2.20873e+06 915421 0 -2.23092e+06 959539 0 -2.25282e+06 1.00549e+06 0 -2.27416e+06 1.05341e+06 0 -2.29456e+06 1.10345e+06 0 -2.31358e+06 1.15574e+06 0 -2.33064e+06 1.21038e+06 0 -2.34504e+06 1.26741e+06 0 -2.35591e+06 1.32675e+06 0 -2.3622e+06 1.38819e+06 0 -2.36269e+06 1.45123e+06 0 -2.35598e+06 1.515e+06 0 -2.34063e+06 1.57817e+06 0 -2.31529e+06 1.63873e+06 0 -2.27897e+06 1.69401e+06 0 -2.23138e+06 1.74074e+06 0 -2.17325e+06 1.77527e+06 0 -2.10649e+06 1.79409e+06 0 -2.03414e+06 1.79436e+06 0 -1.95992e+06 1.77437e+06 0 -1.88771e+06 1.73374e+06 0 -1.82087e+06 1.67326e+06 0 -1.76192e+06 1.59448e+06 0 -1.71237e+06 1.49921e+06 0 -1.67289e+06 1.38914e+06 0 -1.64337e+06 1.26555e+06 0 -1.62322e+06 1.12888e+06 0 -1.61217e+06 978617 0 -1.61087e+06 814578 0 -1.61634e+06 635156 0 -1.62819e+06 426933 0 -1.6816e+06 178806 0 -1.86441e+06 -30716.8 0 -2.07697e+06 -1.75834e-06 0 -1.82764e+06 0 0 -1.82808e+06 25491.4 0 -1.82941e+06 51010.5 0 -1.83161e+06 76585 0 -1.83469e+06 102243 0 -1.83865e+06 128012 0 -1.84348e+06 153922 0 -1.84919e+06 180001 0 -1.85578e+06 206281 0 -1.86324e+06 232790 0 -1.87157e+06 259563 0 -1.88077e+06 286630 0 -1.89084e+06 314028 0 -1.90178e+06 341791 0 -1.91357e+06 369957 0 -1.92621e+06 398565 0 -1.9397e+06 427658 0 -1.95403e+06 457279 0 -1.96918e+06 487476 0 -1.98514e+06 518298 0 -2.00189e+06 549799 0 -2.01941e+06 582037 0 -2.03768e+06 615075 0 -2.05665e+06 648979 0 -2.0763e+06 683823 0 -2.09657e+06 719688 0 -2.11739e+06 756659 0 -2.13869e+06 794832 0 -2.16038e+06 834310 0 -2.18233e+06 875204 0 -2.20441e+06 917638 0 -2.22642e+06 961739 0 -2.24813e+06 1.00765e+06 0 -2.26926e+06 1.05549e+06 0 -2.28945e+06 1.10542e+06 0 -2.30824e+06 1.15755e+06 0 -2.32507e+06 1.21196e+06 0 -2.33924e+06 1.26868e+06 0 -2.34989e+06 1.32762e+06 0 -2.356e+06 1.38854e+06 0 -2.35637e+06 1.45094e+06 0 -2.34965e+06 1.51393e+06 0 -2.33446e+06 1.57617e+06 0 -2.30951e+06 1.63568e+06 0 -2.27387e+06 1.68986e+06 0 -2.22732e+06 1.73549e+06 0 -2.17058e+06 1.76906e+06 0 -2.10553e+06 1.78717e+06 0 -2.03512e+06 1.78707e+06 0 -1.96295e+06 1.76709e+06 0 -1.89276e+06 1.72684e+06 0 -1.82783e+06 1.66704e+06 0 -1.77061e+06 1.58913e+06 0 -1.72262e+06 1.49484e+06 0 -1.68454e+06 1.38577e+06 0 -1.65633e+06 1.26315e+06 0 -1.6375e+06 1.1274e+06 0 -1.62786e+06 978068 0 -1.6279e+06 814931 0 -1.63519e+06 636049 0 -1.65091e+06 429898 0 -1.70768e+06 189596 0 -1.87861e+06 -8601.83 0 -2.05854e+06 1.54972e-06 0 -1.82509e+06 0 0 -1.82553e+06 25579.1 0 -1.82685e+06 51185.9 0 -1.82905e+06 76848 0 -1.83212e+06 102593 0 -1.83606e+06 128450 0 -1.84088e+06 154448 0 -1.84657e+06 180615 0 -1.85314e+06 206981 0 -1.86057e+06 233578 0 -1.86888e+06 260437 0 -1.87805e+06 287592 0 -1.88808e+06 315076 0 -1.89898e+06 342925 0 -1.91073e+06 371176 0 -1.92332e+06 399869 0 -1.93676e+06 429046 0 -1.95103e+06 458750 0 -1.96612e+06 489028 0 -1.98202e+06 519930 0 -1.9987e+06 551509 0 -2.01615e+06 583823 0 -2.03433e+06 616933 0 -2.05322e+06 650906 0 -2.07276e+06 685815 0 -2.09292e+06 721738 0 -2.11363e+06 758761 0 -2.13481e+06 796977 0 -2.15636e+06 836487 0 -2.17817e+06 877402 0 -2.20008e+06 919838 0 -2.22192e+06 963922 0 -2.24345e+06 1.00978e+06 0 -2.26438e+06 1.05756e+06 0 -2.28436e+06 1.10737e+06 0 -2.30292e+06 1.15933e+06 0 -2.31953e+06 1.21351e+06 0 -2.33347e+06 1.26993e+06 0 -2.34391e+06 1.32847e+06 0 -2.34985e+06 1.38889e+06 0 -2.35012e+06 1.45064e+06 0 -2.34341e+06 1.51286e+06 0 -2.32838e+06 1.57419e+06 0 -2.30383e+06 1.63269e+06 0 -2.26889e+06 1.68579e+06 0 -2.22336e+06 1.73036e+06 0 -2.16799e+06 1.76301e+06 0 -2.10462e+06 1.78043e+06 0 -2.03612e+06 1.77997e+06 0 -1.96596e+06 1.76001e+06 0 -1.89776e+06 1.72014e+06 0 -1.8347e+06 1.66099e+06 0 -1.7792e+06 1.58394e+06 0 -1.73276e+06 1.49061e+06 0 -1.69609e+06 1.38254e+06 0 -1.6692e+06 1.26088e+06 0 -1.6517e+06 1.12604e+06 0 -1.64344e+06 977661 0 -1.64485e+06 815425 0 -1.65399e+06 637225 0 -1.67323e+06 433224 0 -1.73265e+06 200217 0 -1.89193e+06 10928.5 0 -2.04524e+06 -1.35601e-06 0 -1.82252e+06 0 0 -1.82297e+06 25666.6 0 -1.82428e+06 51360.7 0 -1.82647e+06 77110.3 0 -1.82953e+06 102943 0 -1.83346e+06 128887 0 -1.83827e+06 154972 0 -1.84394e+06 181226 0 -1.85048e+06 207680 0 -1.85789e+06 234363 0 -1.86617e+06 261309 0 -1.87531e+06 288550 0 -1.88531e+06 316120 0 -1.89617e+06 344054 0 -1.90787e+06 372391 0 -1.92043e+06 401169 0 -1.93382e+06 430429 0 -1.94803e+06 460215 0 -1.96306e+06 490574 0 -1.97889e+06 521556 0 -1.9955e+06 553212 0 -2.01287e+06 585601 0 -2.03097e+06 618783 0 -2.04977e+06 652824 0 -2.06922e+06 687796 0 -2.08927e+06 723777 0 -2.10987e+06 760851 0 -2.13092e+06 799109 0 -2.15234e+06 838651 0 -2.174e+06 879583 0 -2.19576e+06 922021 0 -2.21743e+06 966086 0 -2.23877e+06 1.0119e+06 0 -2.25951e+06 1.0596e+06 0 -2.27928e+06 1.1093e+06 0 -2.29763e+06 1.16109e+06 0 -2.31401e+06 1.21504e+06 0 -2.32774e+06 1.27115e+06 0 -2.33798e+06 1.3293e+06 0 -2.34376e+06 1.38921e+06 0 -2.34394e+06 1.45034e+06 0 -2.33725e+06 1.51181e+06 0 -2.32241e+06 1.57225e+06 0 -2.29826e+06 1.62975e+06 0 -2.26401e+06 1.6818e+06 0 -2.21949e+06 1.72535e+06 0 -2.16548e+06 1.7571e+06 0 -2.10377e+06 1.77387e+06 0 -2.03713e+06 1.77307e+06 0 -1.96895e+06 1.75314e+06 0 -1.90271e+06 1.71362e+06 0 -1.8415e+06 1.65512e+06 0 -1.7877e+06 1.57891e+06 0 -1.74281e+06 1.48652e+06 0 -1.70754e+06 1.37944e+06 0 -1.68198e+06 1.25874e+06 0 -1.6658e+06 1.12483e+06 0 -1.65893e+06 977392 0 -1.66171e+06 816067 0 -1.67272e+06 638665 0 -1.69516e+06 436871 0 -1.75659e+06 210590 0 -1.90474e+06 28245.1 0 -2.03621e+06 1.80304e-06 0 -1.81995e+06 0 0 -1.8204e+06 25753.7 0 -1.82171e+06 51535 0 -1.82389e+06 77371.7 0 -1.82694e+06 103292 0 -1.83086e+06 129323 0 -1.83565e+06 155494 0 -1.8413e+06 181835 0 -1.84782e+06 208376 0 -1.85521e+06 235146 0 -1.86346e+06 262178 0 -1.87257e+06 289505 0 -1.88253e+06 317161 0 -1.89335e+06 345180 0 -1.90502e+06 373602 0 -1.91752e+06 402463 0 -1.93086e+06 431806 0 -1.94502e+06 461675 0 -1.95999e+06 492114 0 -1.97576e+06 523175 0 -1.9923e+06 554908 0 -2.00959e+06 587371 0 -2.02761e+06 620624 0 -2.04632e+06 654732 0 -2.06567e+06 689767 0 -2.08562e+06 725805 0 -2.1061e+06 762929 0 -2.12703e+06 801228 0 -2.14832e+06 840800 0 -2.16983e+06 881750 0 -2.19144e+06 924189 0 -2.21294e+06 968234 0 -2.2341e+06 1.01401e+06 0 -2.25465e+06 1.06162e+06 0 -2.27421e+06 1.1112e+06 0 -2.29235e+06 1.16283e+06 0 -2.30852e+06 1.21655e+06 0 -2.32204e+06 1.27236e+06 0 -2.3321e+06 1.33012e+06 0 -2.33773e+06 1.38953e+06 0 -2.33782e+06 1.45004e+06 0 -2.33117e+06 1.51076e+06 0 -2.31652e+06 1.57033e+06 0 -2.29279e+06 1.62687e+06 0 -2.25923e+06 1.6779e+06 0 -2.21573e+06 1.72046e+06 0 -2.16305e+06 1.75135e+06 0 -2.10296e+06 1.76748e+06 0 -2.03816e+06 1.76637e+06 0 -1.97191e+06 1.74646e+06 0 -1.9076e+06 1.7073e+06 0 -1.84823e+06 1.64943e+06 0 -1.79612e+06 1.57404e+06 0 -1.75276e+06 1.48259e+06 0 -1.7189e+06 1.37647e+06 0 -1.69466e+06 1.25672e+06 0 -1.6798e+06 1.12375e+06 0 -1.67432e+06 977264 0 -1.6785e+06 816860 0 -1.69136e+06 640356 0 -1.71671e+06 440798 0 -1.7796e+06 220668 0 -1.91728e+06 43662.2 0 -2.03076e+06 -1.16229e-06 0 -1.81738e+06 0 0 -1.81782e+06 25840.6 0 -1.81912e+06 51708.8 0 -1.8213e+06 77632.2 0 -1.82434e+06 103639 0 -1.82824e+06 129757 0 -1.83302e+06 156015 0 -1.83865e+06 182443 0 -1.84515e+06 209069 0 -1.85252e+06 235926 0 -1.86074e+06 263044 0 -1.86981e+06 290457 0 -1.87974e+06 318198 0 -1.89052e+06 346302 0 -1.90215e+06 374808 0 -1.91461e+06 403753 0 -1.9279e+06 433179 0 -1.942e+06 463128 0 -1.95691e+06 493648 0 -1.97261e+06 524787 0 -1.98908e+06 556596 0 -2.0063e+06 589133 0 -2.02424e+06 622456 0 -2.04286e+06 656632 0 -2.06211e+06 691729 0 -2.08196e+06 727823 0 -2.10233e+06 764995 0 -2.12314e+06 803335 0 -2.14429e+06 842936 0 -2.16567e+06 883902 0 -2.18711e+06 926340 0 -2.20845e+06 970363 0 -2.22944e+06 1.01609e+06 0 -2.24979e+06 1.06363e+06 0 -2.26916e+06 1.11309e+06 0 -2.28709e+06 1.16454e+06 0 -2.30305e+06 1.21804e+06 0 -2.31637e+06 1.27355e+06 0 -2.32625e+06 1.33091e+06 0 -2.33175e+06 1.38983e+06 0 -2.33178e+06 1.44973e+06 0 -2.32517e+06 1.50972e+06 0 -2.31073e+06 1.56845e+06 0 -2.28742e+06 1.62404e+06 0 -2.25455e+06 1.67408e+06 0 -2.21205e+06 1.71569e+06 0 -2.16069e+06 1.74574e+06 0 -2.1022e+06 1.76127e+06 0 -2.03921e+06 1.75985e+06 0 -1.97486e+06 1.73997e+06 0 -1.91244e+06 1.70117e+06 0 -1.85488e+06 1.64392e+06 0 -1.80444e+06 1.56933e+06 0 -1.76261e+06 1.4788e+06 0 -1.73016e+06 1.37364e+06 0 -1.70725e+06 1.25485e+06 0 -1.69372e+06 1.1228e+06 0 -1.68961e+06 977274 0 -1.69519e+06 817808 0 -1.7099e+06 642282 0 -1.73791e+06 444970 0 -1.80178e+06 230422 0 -1.92975e+06 57446.5 0 -2.02834e+06 3.27826e-07 0 -1.81479e+06 0 0 -1.81523e+06 25927.2 0 -1.81653e+06 51881.9 0 -1.8187e+06 77892 0 -1.82173e+06 103985 0 -1.82562e+06 130190 0 -1.83038e+06 156534 0 -1.836e+06 183048 0 -1.84248e+06 209761 0 -1.84981e+06 236703 0 -1.85801e+06 263907 0 -1.86705e+06 291405 0 -1.87695e+06 319231 0 -1.88769e+06 347420 0 -1.89927e+06 376009 0 -1.91169e+06 405038 0 -1.92492e+06 434545 0 -1.93897e+06 464576 0 -1.95383e+06 495176 0 -1.96946e+06 526392 0 -1.98586e+06 558277 0 -2.00301e+06 590887 0 -2.02086e+06 624280 0 -2.03939e+06 658522 0 -2.05855e+06 693680 0 -2.0783e+06 729829 0 -2.09855e+06 767050 0 -2.11924e+06 805429 0 -2.14026e+06 845059 0 -2.1615e+06 886039 0 -2.18279e+06 928475 0 -2.20396e+06 972476 0 -2.22478e+06 1.01815e+06 0 -2.24495e+06 1.06561e+06 0 -2.26412e+06 1.11495e+06 0 -2.28186e+06 1.16624e+06 0 -2.29762e+06 1.21951e+06 0 -2.31074e+06 1.27471e+06 0 -2.32046e+06 1.33169e+06 0 -2.32583e+06 1.39012e+06 0 -2.3258e+06 1.44943e+06 0 -2.31925e+06 1.5087e+06 0 -2.30503e+06 1.56659e+06 0 -2.28215e+06 1.62127e+06 0 -2.24997e+06 1.67035e+06 0 -2.20847e+06 1.71103e+06 0 -2.1584e+06 1.74028e+06 0 -2.10149e+06 1.75523e+06 0 -2.04026e+06 1.75352e+06 0 -1.97779e+06 1.73367e+06 0 -1.91724e+06 1.69522e+06 0 -1.86146e+06 1.63858e+06 0 -1.81268e+06 1.56479e+06 0 -1.77237e+06 1.47516e+06 0 -1.74132e+06 1.37095e+06 0 -1.71974e+06 1.2531e+06 0 -1.70754e+06 1.12199e+06 0 -1.70481e+06 977423 0 -1.7118e+06 818910 0 -1.72833e+06 644431 0 -1.75876e+06 449353 0 -1.82324e+06 239839 0 -1.94228e+06 69824.9 0 -2.0285e+06 6.85453e-07 0 -1.81219e+06 0 0 -1.81263e+06 26013.5 0 -1.81393e+06 52054.6 0 -1.81609e+06 78150.9 0 -1.81911e+06 104330 0 -1.82299e+06 130621 0 -1.82773e+06 157052 0 -1.83333e+06 183651 0 -1.83979e+06 210450 0 -1.8471e+06 237478 0 -1.85527e+06 264767 0 -1.86428e+06 292350 0 -1.87414e+06 320261 0 -1.88485e+06 348534 0 -1.89639e+06 377207 0 -1.90876e+06 406318 0 -1.92194e+06 435907 0 -1.93594e+06 466019 0 -1.95073e+06 496697 0 -1.9663e+06 527991 0 -1.98264e+06 559951 0 -1.9997e+06 592633 0 -2.01748e+06 626096 0 -2.03592e+06 660402 0 -2.05499e+06 695621 0 -2.07463e+06 731825 0 -2.09477e+06 769093 0 -2.11534e+06 807510 0 -2.13623e+06 847168 0 -2.15733e+06 888162 0 -2.17847e+06 930595 0 -2.19948e+06 974572 0 -2.22013e+06 1.0202e+06 0 -2.24011e+06 1.06758e+06 0 -2.2591e+06 1.1168e+06 0 -2.27664e+06 1.16792e+06 0 -2.2922e+06 1.22096e+06 0 -2.30515e+06 1.27586e+06 0 -2.3147e+06 1.33246e+06 0 -2.31996e+06 1.39041e+06 0 -2.31989e+06 1.44912e+06 0 -2.31341e+06 1.50768e+06 0 -2.29941e+06 1.56477e+06 0 -2.27697e+06 1.61855e+06 0 -2.24549e+06 1.6667e+06 0 -2.20497e+06 1.70648e+06 0 -2.15619e+06 1.73497e+06 0 -2.10082e+06 1.74935e+06 0 -2.04133e+06 1.74737e+06 0 -1.9807e+06 1.72756e+06 0 -1.92198e+06 1.68945e+06 0 -1.86797e+06 1.63341e+06 0 -1.82083e+06 1.5604e+06 0 -1.78204e+06 1.47166e+06 0 -1.75239e+06 1.36839e+06 0 -1.73214e+06 1.25148e+06 0 -1.72127e+06 1.12132e+06 0 -1.7199e+06 977711 0 -1.72832e+06 820168 0 -1.74662e+06 646791 0 -1.77928e+06 453918 0 -1.84407e+06 248920 0 -1.95498e+06 80991.1 0 -2.03087e+06 -7.15256e-07 0 -1.80959e+06 0 0 -1.81002e+06 26099.5 0 -1.81132e+06 52226.6 0 -1.81347e+06 78408.9 0 -1.81648e+06 104674 0 -1.82035e+06 131051 0 -1.82508e+06 157567 0 -1.83066e+06 184253 0 -1.83709e+06 211137 0 -1.84438e+06 238250 0 -1.85252e+06 265625 0 -1.8615e+06 293292 0 -1.87133e+06 321287 0 -1.882e+06 349644 0 -1.89349e+06 378400 0 -1.90582e+06 407593 0 -1.91895e+06 437264 0 -1.9329e+06 467455 0 -1.94763e+06 498212 0 -1.96314e+06 529583 0 -1.9794e+06 561618 0 -1.99639e+06 594372 0 -2.01409e+06 627903 0 -2.03244e+06 662274 0 -2.05141e+06 697553 0 -2.07095e+06 733810 0 -2.09098e+06 771125 0 -2.11143e+06 809579 0 -2.1322e+06 849263 0 -2.15316e+06 890270 0 -2.17415e+06 932699 0 -2.19501e+06 976652 0 -2.21548e+06 1.02223e+06 0 -2.23529e+06 1.06953e+06 0 -2.25409e+06 1.11862e+06 0 -2.27144e+06 1.16958e+06 0 -2.28682e+06 1.22239e+06 0 -2.29959e+06 1.277e+06 0 -2.30899e+06 1.33321e+06 0 -2.31414e+06 1.39068e+06 0 -2.31404e+06 1.44881e+06 0 -2.30764e+06 1.50669e+06 0 -2.29388e+06 1.56298e+06 0 -2.27188e+06 1.61588e+06 0 -2.24109e+06 1.66313e+06 0 -2.20155e+06 1.70205e+06 0 -2.15404e+06 1.72979e+06 0 -2.1002e+06 1.74364e+06 0 -2.04242e+06 1.7414e+06 0 -1.98358e+06 1.72164e+06 0 -1.92668e+06 1.68387e+06 0 -1.87441e+06 1.62841e+06 0 -1.8289e+06 1.55616e+06 0 -1.79161e+06 1.4683e+06 0 -1.76336e+06 1.36596e+06 0 -1.74445e+06 1.25e+06 0 -1.7349e+06 1.12077e+06 0 -1.7349e+06 978137 0 -1.74474e+06 821581 0 -1.76479e+06 649352 0 -1.79949e+06 458639 0 -1.86436e+06 257671 0 -1.9679e+06 91111.2 0 -2.03515e+06 9.53674e-07 0 -1.80697e+06 0 0 -1.80741e+06 26185.3 0 -1.8087e+06 52398.2 0 -1.81084e+06 78666.2 0 -1.81385e+06 105017 0 -1.8177e+06 131479 0 -1.82241e+06 158081 0 -1.82798e+06 184852 0 -1.83439e+06 211821 0 -1.84165e+06 239020 0 -1.84976e+06 266479 0 -1.85872e+06 294231 0 -1.86851e+06 322309 0 -1.87914e+06 350750 0 -1.89059e+06 379588 0 -1.90287e+06 408863 0 -1.91596e+06 438615 0 -1.92985e+06 468886 0 -1.94452e+06 499721 0 -1.95997e+06 531168 0 -1.97616e+06 563277 0 -1.99308e+06 596102 0 -2.01069e+06 629702 0 -2.02896e+06 664137 0 -2.04783e+06 699474 0 -2.06727e+06 735785 0 -2.08719e+06 773145 0 -2.10753e+06 811636 0 -2.12816e+06 851345 0 -2.14899e+06 892364 0 -2.16984e+06 934788 0 -2.19053e+06 978715 0 -2.21084e+06 1.02424e+06 0 -2.23048e+06 1.07145e+06 0 -2.24909e+06 1.12043e+06 0 -2.26626e+06 1.17121e+06 0 -2.28146e+06 1.2238e+06 0 -2.29406e+06 1.27811e+06 0 -2.30332e+06 1.33395e+06 0 -2.30838e+06 1.39095e+06 0 -2.30826e+06 1.44851e+06 0 -2.30195e+06 1.5057e+06 0 -2.28843e+06 1.56122e+06 0 -2.26688e+06 1.61328e+06 0 -2.23679e+06 1.65965e+06 0 -2.19822e+06 1.69773e+06 0 -2.15195e+06 1.72476e+06 0 -2.09961e+06 1.7381e+06 0 -2.04351e+06 1.7356e+06 0 -1.98645e+06 1.71589e+06 0 -1.93133e+06 1.67846e+06 0 -1.88078e+06 1.62357e+06 0 -1.83688e+06 1.55209e+06 0 -1.80109e+06 1.4651e+06 0 -1.77424e+06 1.36368e+06 0 -1.75666e+06 1.24865e+06 0 -1.74844e+06 1.12037e+06 0 -1.74979e+06 978701 0 -1.76106e+06 823149 0 -1.78281e+06 652104 0 -1.81941e+06 463496 0 -1.88418e+06 266107 0 -1.9811e+06 100328 0 -2.0411e+06 -7.45058e-07 0 -1.80435e+06 0 0 -1.80478e+06 26270.8 0 -1.80607e+06 52569.1 0 -1.80821e+06 78922.6 0 -1.8112e+06 105359 0 -1.81505e+06 131907 0 -1.81974e+06 158594 0 -1.82529e+06 185449 0 -1.83168e+06 212504 0 -1.83892e+06 239787 0 -1.847e+06 267330 0 -1.85592e+06 295166 0 -1.86568e+06 323328 0 -1.87627e+06 351851 0 -1.88768e+06 380772 0 -1.89992e+06 410129 0 -1.91295e+06 439961 0 -1.92679e+06 470311 0 -1.9414e+06 501224 0 -1.95679e+06 532747 0 -1.97291e+06 564929 0 -1.98975e+06 597825 0 -2.00728e+06 631492 0 -2.02546e+06 665991 0 -2.04425e+06 701386 0 -2.06359e+06 737749 0 -2.0834e+06 775154 0 -2.10362e+06 813681 0 -2.12413e+06 853415 0 -2.14481e+06 894444 0 -2.16552e+06 936862 0 -2.18606e+06 980763 0 -2.20621e+06 1.02624e+06 0 -2.22567e+06 1.07337e+06 0 -2.24411e+06 1.12222e+06 0 -2.2611e+06 1.17283e+06 0 -2.27612e+06 1.2252e+06 0 -2.28856e+06 1.27921e+06 0 -2.29769e+06 1.33468e+06 0 -2.30266e+06 1.39122e+06 0 -2.30254e+06 1.44821e+06 0 -2.29632e+06 1.50474e+06 0 -2.28307e+06 1.55949e+06 0 -2.26197e+06 1.61073e+06 0 -2.23257e+06 1.65625e+06 0 -2.19496e+06 1.69352e+06 0 -2.14993e+06 1.71986e+06 0 -2.09906e+06 1.73271e+06 0 -2.04461e+06 1.72998e+06 0 -1.9893e+06 1.71033e+06 0 -1.93594e+06 1.67322e+06 0 -1.88708e+06 1.61891e+06 0 -1.84479e+06 1.54817e+06 0 -1.81049e+06 1.46203e+06 0 -1.78502e+06 1.36153e+06 0 -1.76878e+06 1.24743e+06 0 -1.76188e+06 1.12009e+06 0 -1.76459e+06 979404 0 -1.77728e+06 824870 0 -1.8007e+06 655037 0 -1.83904e+06 468470 0 -1.90361e+06 274247 0 -1.99462e+06 108765 0 -2.04851e+06 4.17233e-07 0 -1.80172e+06 0 0 -1.80215e+06 26356 0 -1.80343e+06 52739.6 0 -1.80557e+06 79178.2 0 -1.80855e+06 105700 0 -1.81238e+06 132332 0 -1.81706e+06 159104 0 -1.82259e+06 186045 0 -1.82896e+06 213184 0 -1.83617e+06 240551 0 -1.84423e+06 268178 0 -1.85312e+06 296098 0 -1.86284e+06 324343 0 -1.87339e+06 352949 0 -1.88477e+06 381952 0 -1.89695e+06 411390 0 -1.90994e+06 441302 0 -1.92372e+06 471731 0 -1.93828e+06 502721 0 -1.9536e+06 534319 0 -1.96965e+06 566574 0 -1.98642e+06 599541 0 -2.00387e+06 633274 0 -2.02197e+06 667835 0 -2.04066e+06 703288 0 -2.0599e+06 739703 0 -2.0796e+06 777152 0 -2.0997e+06 815713 0 -2.12009e+06 855471 0 -2.14064e+06 896510 0 -2.16121e+06 938922 0 -2.1816e+06 982794 0 -2.20158e+06 1.02821e+06 0 -2.22088e+06 1.07526e+06 0 -2.23915e+06 1.12399e+06 0 -2.25596e+06 1.17444e+06 0 -2.27082e+06 1.22657e+06 0 -2.2831e+06 1.2803e+06 0 -2.29211e+06 1.3354e+06 0 -2.297e+06 1.39147e+06 0 -2.29688e+06 1.44791e+06 0 -2.29077e+06 1.50379e+06 0 -2.27778e+06 1.55781e+06 0 -2.25713e+06 1.60823e+06 0 -2.22843e+06 1.65293e+06 0 -2.19177e+06 1.68943e+06 0 -2.14797e+06 1.7151e+06 0 -2.09854e+06 1.72747e+06 0 -2.04572e+06 1.72453e+06 0 -1.99213e+06 1.70493e+06 0 -1.9405e+06 1.66816e+06 0 -1.89332e+06 1.61441e+06 0 -1.85261e+06 1.5444e+06 0 -1.81979e+06 1.45911e+06 0 -1.79572e+06 1.35951e+06 0 -1.7808e+06 1.24635e+06 0 -1.77523e+06 1.11995e+06 0 -1.77928e+06 980244 0 -1.7934e+06 826742 0 -1.81845e+06 658144 0 -1.85841e+06 473548 0 -1.92271e+06 282112 0 -2.00846e+06 116529 0 -2.05721e+06 -1.07288e-06 0 -1.79908e+06 0 0 -1.79951e+06 26441 0 -1.80079e+06 52909.4 0 -1.80292e+06 79432.9 0 -1.80589e+06 106039 0 -1.80971e+06 132757 0 -1.81437e+06 159613 0 -1.81988e+06 186638 0 -1.82623e+06 213861 0 -1.83342e+06 241313 0 -1.84145e+06 269024 0 -1.85031e+06 297027 0 -1.86e+06 325355 0 -1.87051e+06 354043 0 -1.88184e+06 383128 0 -1.89398e+06 412646 0 -1.90692e+06 442638 0 -1.92065e+06 473145 0 -1.93515e+06 504212 0 -1.9504e+06 535884 0 -1.96639e+06 568212 0 -1.98308e+06 601248 0 -2.00046e+06 635048 0 -2.01846e+06 669671 0 -2.03707e+06 705181 0 -2.0562e+06 741646 0 -2.0758e+06 779138 0 -2.09579e+06 817734 0 -2.11605e+06 857514 0 -2.13647e+06 898563 0 -2.1569e+06 940966 0 -2.17714e+06 984810 0 -2.19696e+06 1.03018e+06 0 -2.2161e+06 1.07714e+06 0 -2.23419e+06 1.12575e+06 0 -2.25084e+06 1.17602e+06 0 -2.26553e+06 1.22794e+06 0 -2.27767e+06 1.28137e+06 0 -2.28656e+06 1.3361e+06 0 -2.29139e+06 1.39173e+06 0 -2.29127e+06 1.44762e+06 0 -2.28529e+06 1.50286e+06 0 -2.27257e+06 1.55615e+06 0 -2.25238e+06 1.6058e+06 0 -2.22437e+06 1.6497e+06 0 -2.18866e+06 1.68543e+06 0 -2.14606e+06 1.71047e+06 0 -2.09806e+06 1.72239e+06 0 -2.04684e+06 1.71924e+06 0 -1.99493e+06 1.69971e+06 0 -1.94501e+06 1.66327e+06 0 -1.89949e+06 1.61007e+06 0 -1.86035e+06 1.54078e+06 0 -1.82901e+06 1.45633e+06 0 -1.80632e+06 1.35763e+06 0 -1.79274e+06 1.24539e+06 0 -1.78848e+06 1.11994e+06 0 -1.79388e+06 981222 0 -1.8094e+06 828765 0 -1.83605e+06 661417 0 -1.87753e+06 478719 0 -1.94154e+06 289725 0 -2.02265e+06 123714 0 -2.06706e+06 1.19209e-06 0 -1.79643e+06 0 0 -1.79686e+06 26525.6 0 -1.79814e+06 53078.7 0 -1.80026e+06 79686.9 0 -1.80322e+06 106378 0 -1.80702e+06 133179 0 -1.81167e+06 160120 0 -1.81716e+06 187230 0 -1.82349e+06 214537 0 -1.83066e+06 242072 0 -1.83866e+06 269866 0 -1.84749e+06 297952 0 -1.85714e+06 326363 0 -1.86762e+06 355133 0 -1.87891e+06 384299 0 -1.891e+06 413897 0 -1.90389e+06 443969 0 -1.91757e+06 474554 0 -1.93201e+06 505697 0 -1.9472e+06 537444 0 -1.96312e+06 569843 0 -1.97974e+06 602948 0 -1.99703e+06 636814 0 -2.01496e+06 671498 0 -2.03346e+06 707064 0 -2.0525e+06 743579 0 -2.072e+06 781114 0 -2.09187e+06 819743 0 -2.11201e+06 859545 0 -2.1323e+06 900602 0 -2.15259e+06 942996 0 -2.17268e+06 986811 0 -2.19235e+06 1.03212e+06 0 -2.21132e+06 1.079e+06 0 -2.22926e+06 1.12749e+06 0 -2.24574e+06 1.17759e+06 0 -2.26028e+06 1.22928e+06 0 -2.27228e+06 1.28243e+06 0 -2.28106e+06 1.3368e+06 0 -2.28583e+06 1.39198e+06 0 -2.28573e+06 1.44734e+06 0 -2.27988e+06 1.50195e+06 0 -2.26743e+06 1.55454e+06 0 -2.24771e+06 1.60342e+06 0 -2.22039e+06 1.64654e+06 0 -2.18562e+06 1.68155e+06 0 -2.1442e+06 1.70597e+06 0 -2.09762e+06 1.71746e+06 0 -2.04796e+06 1.71412e+06 0 -1.99772e+06 1.69466e+06 0 -1.94948e+06 1.65854e+06 0 -1.9056e+06 1.60589e+06 0 -1.86802e+06 1.53732e+06 0 -1.83814e+06 1.4537e+06 0 -1.81683e+06 1.35589e+06 0 -1.80458e+06 1.24457e+06 0 -1.80164e+06 1.12007e+06 0 -1.80837e+06 982336 0 -1.8253e+06 830936 0 -1.8535e+06 664849 0 -1.89642e+06 483973 0 -1.96015e+06 297112 0 -2.0372e+06 130399 0 -2.07794e+06 -8.9407e-07 0 -1.79378e+06 0 0 -1.7942e+06 26610 0 -1.79547e+06 53247.5 0 -1.79759e+06 79940 0 -1.80054e+06 106715 0 -1.80433e+06 133601 0 -1.80897e+06 160626 0 -1.81444e+06 187819 0 -1.82075e+06 215210 0 -1.82789e+06 242828 0 -1.83586e+06 270706 0 -1.84466e+06 298875 0 -1.85428e+06 327368 0 -1.86472e+06 356219 0 -1.87597e+06 385466 0 -1.88802e+06 415144 0 -1.90086e+06 445294 0 -1.91448e+06 475957 0 -1.92886e+06 507175 0 -1.94399e+06 538996 0 -1.95984e+06 571467 0 -1.97639e+06 604641 0 -1.9936e+06 638571 0 -2.01144e+06 673316 0 -2.02986e+06 708938 0 -2.0488e+06 745502 0 -2.06819e+06 783078 0 -2.08795e+06 821740 0 -2.10797e+06 861563 0 -2.12813e+06 902627 0 -2.14828e+06 945012 0 -2.16822e+06 988797 0 -2.18775e+06 1.03405e+06 0 -2.20656e+06 1.08084e+06 0 -2.22433e+06 1.12921e+06 0 -2.24066e+06 1.17915e+06 0 -2.25505e+06 1.23062e+06 0 -2.26691e+06 1.28348e+06 0 -2.27559e+06 1.33749e+06 0 -2.28031e+06 1.39223e+06 0 -2.28025e+06 1.44706e+06 0 -2.27453e+06 1.50106e+06 0 -2.26236e+06 1.55296e+06 0 -2.24312e+06 1.6011e+06 0 -2.21649e+06 1.64347e+06 0 -2.18265e+06 1.67777e+06 0 -2.1424e+06 1.7016e+06 0 -2.0972e+06 1.71268e+06 0 -2.04909e+06 1.70916e+06 0 -2.00049e+06 1.68978e+06 0 -1.9539e+06 1.65399e+06 0 -1.91164e+06 1.60187e+06 0 -1.87561e+06 1.53401e+06 0 -1.84718e+06 1.4512e+06 0 -1.82725e+06 1.35428e+06 0 -1.81632e+06 1.24388e+06 0 -1.8147e+06 1.12032e+06 0 -1.82276e+06 983586 0 -1.84109e+06 833255 0 -1.87082e+06 668436 0 -1.9151e+06 489306 0 -1.97858e+06 304298 0 -2.0521e+06 136658 0 -2.08976e+06 1.78814e-07 0 -1.79111e+06 0 0 -1.79154e+06 26694.2 0 -1.7928e+06 53415.7 0 -1.79491e+06 80192.2 0 -1.79785e+06 107051 0 -1.80163e+06 134021 0 -1.80625e+06 161130 0 -1.81171e+06 188407 0 -1.81799e+06 215881 0 -1.82511e+06 243582 0 -1.83305e+06 271543 0 -1.84182e+06 299794 0 -1.85141e+06 328369 0 -1.86181e+06 357301 0 -1.87302e+06 386628 0 -1.88502e+06 416386 0 -1.89781e+06 446614 0 -1.91138e+06 477354 0 -1.9257e+06 508648 0 -1.94077e+06 540542 0 -1.95656e+06 573084 0 -1.97303e+06 606326 0 -1.99017e+06 640320 0 -2.00792e+06 675125 0 -2.02625e+06 710802 0 -2.04509e+06 747415 0 -2.06438e+06 785032 0 -2.08402e+06 823725 0 -2.10392e+06 863569 0 -2.12396e+06 904640 0 -2.14397e+06 947014 0 -2.16378e+06 990768 0 -2.18315e+06 1.03597e+06 0 -2.20181e+06 1.08267e+06 0 -2.21943e+06 1.13091e+06 0 -2.2356e+06 1.18069e+06 0 -2.24984e+06 1.23193e+06 0 -2.26158e+06 1.28452e+06 0 -2.27017e+06 1.33817e+06 0 -2.27485e+06 1.39248e+06 0 -2.27482e+06 1.44679e+06 0 -2.26925e+06 1.50019e+06 0 -2.25737e+06 1.55141e+06 0 -2.2386e+06 1.59883e+06 0 -2.21265e+06 1.64048e+06 0 -2.17974e+06 1.6741e+06 0 -2.14065e+06 1.69736e+06 0 -2.09681e+06 1.70805e+06 0 -2.05023e+06 1.70436e+06 0 -2.00324e+06 1.68506e+06 0 -1.95828e+06 1.64959e+06 0 -1.91762e+06 1.59801e+06 0 -1.88312e+06 1.53085e+06 0 -1.85614e+06 1.44885e+06 0 -1.83758e+06 1.3528e+06 0 -1.82797e+06 1.24331e+06 0 -1.82766e+06 1.12071e+06 0 -1.83705e+06 984971 0 -1.85677e+06 835718 0 -1.88798e+06 672171 0 -1.93357e+06 494714 0 -1.99687e+06 311310 0 -2.06736e+06 142554 0 -2.10244e+06 -5.96046e-08 0 -1.78844e+06 0 0 -1.78886e+06 26778 0 -1.79013e+06 53583.4 0 -1.79222e+06 80443.7 0 -1.79516e+06 107387 0 -1.79893e+06 134440 0 -1.80353e+06 161632 0 -1.80897e+06 188992 0 -1.81523e+06 216549 0 -1.82232e+06 244334 0 -1.83024e+06 272377 0 -1.83898e+06 300710 0 -1.84853e+06 329366 0 -1.85889e+06 358380 0 -1.87006e+06 387786 0 -1.88202e+06 417624 0 -1.89476e+06 447930 0 -1.90827e+06 478746 0 -1.92254e+06 510115 0 -1.93755e+06 542082 0 -1.95326e+06 574694 0 -1.96967e+06 608003 0 -1.98672e+06 642061 0 -2.0044e+06 676926 0 -2.02263e+06 712657 0 -2.04138e+06 749318 0 -2.06056e+06 786975 0 -2.08009e+06 825699 0 -2.09988e+06 865562 0 -2.11979e+06 906639 0 -2.13967e+06 949003 0 -2.15933e+06 992725 0 -2.17856e+06 1.03787e+06 0 -2.19707e+06 1.08449e+06 0 -2.21453e+06 1.1326e+06 0 -2