<?xml version="1.0"?> 
<VTKFile type="StructuredGrid" version="0.1"> 
<StructuredGrid WholeExtent="0 63 0 63 0 0"> 
<Piece Extent="0 63 0 63 0 0"> 
<PointData>
<DataArray type="Float32" Name="|E|" format="ascii" NumberOfComponents="3"> 
-2.07915e+06 167851 0 -2.08614e+06 178219 0 -2.09354e+06 188665 0 -2.10135e+06 199215 0 -2.10959e+06 209873 0 -2.11824e+06 220644 0 -2.12733e+06 231537 0 -2.13684e+06 242559 0 -2.14679e+06 253718 0 -2.15717e+06 265021 0 -2.168e+06 276478 0 -2.17928e+06 288097 0 -2.19101e+06 299887 0 -2.20319e+06 311858 0 -2.21584e+06 324020 0 -2.22896e+06 336384 0 -2.24256e+06 348962 0 -2.25664e+06 361764 0 -2.27122e+06 374804 0 -2.2863e+06 388094 0 -2.30188e+06 401650 0 -2.31799e+06 415485 0 -2.33463e+06 429616 0 -2.35182e+06 444059 0 -2.36956e+06 458833 0 -2.38787e+06 473957 0 -2.40677e+06 489452 0 -2.42627e+06 505340 0 -2.4464e+06 521645 0 -2.46718e+06 538393 0 -2.48863e+06 555614 0 -2.51078e+06 573337 0 -2.53366e+06 591598 0 -2.55731e+06 610434 0 -2.58177e+06 629885 0 -2.60709e+06 649998 0 -2.63331e+06 670825 0 -2.66051e+06 692422 0 -2.68875e+06 714855 0 -2.71813e+06 738197 0 -2.74873e+06 762532 0 -2.78067e+06 787957 0 -2.8141e+06 814583 0 -2.84917e+06 842541 0 -2.88609e+06 871983 0 -2.92508e+06 903091 0 -2.96645e+06 936081 0 -3.01053e+06 971216 0 -3.05779e+06 1.00881e+06 0 -3.10876e+06 1.04927e+06 0 -3.16414e+06 1.09307e+06 0 -3.22486e+06 1.14086e+06 0 -3.29209e+06 1.19345e+06 0 -3.36746e+06 1.25177e+06 0 -3.45311e+06 1.31751e+06 0 -3.55215e+06 1.3934e+06 0 -3.66965e+06 1.47741e+06 0 -3.81196e+06 1.58228e+06 0 -3.98691e+06 1.73146e+06 0 -4.23804e+06 1.80325e+06 0 -4.57126e+06 2.1091e+06 0 -4.9752e+06 3.05146e+06 0 -6.58678e+06 -2.11508e+06 0 -1.11212e+07 3.57274e+07 0 -2.08673e+06 184337 0 -2.09418e+06 194790 0 -2.10203e+06 205342 0 -2.1103e+06 216003 0 -2.11897e+06 226778 0 -2.12806e+06 237674 0 -2.13756e+06 248699 0 -2.14749e+06 259862 0 -2.15785e+06 271169 0 -2.16863e+06 282628 0 -2.17985e+06 294250 0 -2.19151e+06 306042 0 -2.20362e+06 318015 0 -2.21617e+06 330178 0 -2.22919e+06 342542 0 -2.24266e+06 355118 0 -2.25661e+06 367917 0 -2.27104e+06 380952 0 -2.28595e+06 394237 0 -2.30136e+06 407783 0 -2.31727e+06 421608 0 -2.3337e+06 435725 0 -2.35066e+06 450152 0 -2.36816e+06 464907 0 -2.38621e+06 480008 0 -2.40483e+06 495477 0 -2.42403e+06 511335 0 -2.44384e+06 527606 0 -2.46428e+06 544316 0 -2.48536e+06 561493 0 -2.50712e+06 579168 0 -2.52959e+06 597376 0 -2.55279e+06 616152 0 -2.57677e+06 635538 0 -2.60158e+06 655579 0 -2.62725e+06 676327 0 -2.65386e+06 697838 0 -2.68147e+06 720178 0 -2.71015e+06 743418 0 -2.73999e+06 767643 0 -2.77111e+06 792949 0 -2.80363e+06 819446 0 -2.83771e+06 847264 0 -2.8735e+06 876555 0 -2.91125e+06 907500 0 -2.95119e+06 940312 0 -2.99366e+06 975253 0 -3.03904e+06 1.01264e+06 0 -3.08783e+06 1.05286e+06 0 -3.14063e+06 1.09641e+06 0 -3.19824e+06 1.14391e+06 0 -3.26168e+06 1.19616e+06 0 -3.33232e+06 1.2542e+06 0 -3.41194e+06 1.31951e+06 0 -3.50311e+06 1.39416e+06 0 -3.6102e+06 1.48003e+06 0 -3.73723e+06 1.58379e+06 0 -3.88971e+06 1.71296e+06 0 -4.10705e+06 1.85121e+06 0 -4.37988e+06 2.11697e+06 0 -4.63866e+06 2.47691e+06 0 -5.87238e+06 2.12073e+06 0 -6.8194e+06 8.82551e+06 0 -1.06419e+06 8.44489e+06 0 -2.09506e+06 201289 0 -2.10296e+06 211843 0 -2.11125e+06 222506 0 -2.11995e+06 233284 0 -2.12905e+06 244185 0 -2.13855e+06 255215 0 -2.14847e+06 266382 0 -2.1588e+06 277693 0 -2.16955e+06 289158 0 -2.18072e+06 300784 0 -2.19232e+06 312580 0 -2.20435e+06 324556 0 -2.21682e+06 336722 0 -2.22974e+06 349088 0 -2.24311e+06 361664 0 -2.25693e+06 374463 0 -2.27122e+06 387496 0 -2.28598e+06 400777 0 -2.30122e+06 414319 0 -2.31695e+06 428136 0 -2.33318e+06 442243 0 -2.34992e+06 456659 0 -2.36719e+06 471398 0 -2.38499e+06 486482 0 -2.40335e+06 501930 0 -2.42227e+06 517763 0 -2.44177e+06 534006 0 -2.46188e+06 550684 0 -2.48262e+06 567825 0 -2.504e+06 585460 0 -2.52607e+06 603622 0 -2.54885e+06 622347 0 -2.57238e+06 641676 0 -2.5967e+06 661656 0 -2.62185e+06 682336 0 -2.6479e+06 703772 0 -2.67489e+06 726030 0 -2.70292e+06 749181 0 -2.73205e+06 773309 0 -2.76239e+06 798508 0 -2.79405e+06 824890 0 -2.82718e+06 852582 0 -2.86193e+06 881736 0 -2.8985e+06 912530 0 -2.93712e+06 945178 0 -2.97808e+06 979937 0 -3.02173e+06 1.01712e+06 0 -3.0685e+06 1.05711e+06 0 -3.11893e+06 1.1004e+06 0 -3.1737e+06 1.1476e+06 0 -3.23371e+06 1.19949e+06 0 -3.3001e+06 1.25711e+06 0 -3.37438e+06 1.32189e+06 0 -3.45866e+06 1.39576e+06 0 -3.55641e+06 1.48111e+06 0 -3.67088e+06 1.5833e+06 0 -3.80633e+06 1.70829e+06 0 -3.98907e+06 1.85504e+06 0 -4.22023e+06 2.09336e+06 0 -4.43882e+06 2.4177e+06 0 -5.1588e+06 2.53878e+06 0 -5.95492e+06 5.57394e+06 0 -3.42562e+06 7.85149e+06 0 -23684.8 3.97124e+06 0 -2.10413e+06 218733 0 -2.11247e+06 229399 0 -2.12119e+06 240182 0 -2.13031e+06 251088 0 -2.13982e+06 262124 0 -2.14973e+06 273296 0 -2.16004e+06 284614 0 -2.17076e+06 296084 0 -2.18189e+06 307716 0 -2.19344e+06 319518 0 -2.20541e+06 331499 0 -2.2178e+06 343669 0 -2.23063e+06 356039 0 -2.24389e+06 368619 0 -2.2576e+06 381419 0 -2.27176e+06 394454 0 -2.28638e+06 407734 0 -2.30146e+06 421273 0 -2.31702e+06 435087 0 -2.33307e+06 449189 0 -2.34961e+06 463596 0 -2.36665e+06 478326 0 -2.38422e+06 493396 0 -2.40232e+06 508829 0 -2.42097e+06 524643 0 -2.44018e+06 540864 0 -2.45998e+06 557517 0 -2.48039e+06 574629 0 -2.50142e+06 592230 0 -2.52311e+06 610354 0 -2.54548e+06 629038 0 -2.56858e+06 648321 0 -2.59243e+06 668248 0 -2.61709e+06 688870 0 -2.6426e+06 710243 0 -2.66902e+06 732431 0 -2.69641e+06 755506 0 -2.72487e+06 779550 0 -2.75447e+06 804658 0 -2.78532e+06 830939 0 -2.81756e+06 858522 0 -2.85132e+06 887555 0 -2.88678e+06 918215 0 -2.92416e+06 950715 0 -2.96371e+06 985308 0 -3.00575e+06 1.0223e+06 0 -3.05065e+06 1.06208e+06 0 -3.09889e+06 1.10512e+06 0 -3.15107e+06 1.15202e+06 0 -3.20795e+06 1.20356e+06 0 -3.27051e+06 1.26073e+06 0 -3.34001e+06 1.32493e+06 0 -3.4182e+06 1.39799e+06 0 -3.50778e+06 1.48242e+06 0 -3.61145e+06 1.58282e+06 0 -3.73264e+06 1.70462e+06 0 -3.88816e+06 1.85237e+06 0 -4.08299e+06 2.06996e+06 0 -4.2767e+06 2.37113e+06 0 -4.71517e+06 2.64597e+06 0 -5.31063e+06 4.28524e+06 0 -4.17891e+06 6.45703e+06 0 -1.59157e+06 5.90335e+06 0 -479813 4.25877e+06 0 -2.11395e+06 236696 0 -2.12271e+06 247484 0 -2.13185e+06 258395 0 -2.14137e+06 269437 0 -2.15128e+06 280617 0 -2.16158e+06 291942 0 -2.17228e+06 303419 0 -2.18338e+06 315058 0 -2.19488e+06 326868 0 -2.20679e+06 338856 0 -2.21912e+06 351033 0 -2.23186e+06 363409 0 -2.24503e+06 375994 0 -2.25863e+06 388800 0 -2.27267e+06 401838 0 -2.28715e+06 415120 0 -2.30209e+06 428661 0 -2.31749e+06 442475 0 -2.33336e+06 456575 0 -2.34971e+06 470979 0 -2.36655e+06 485703 0 -2.38389e+06 500766 0 -2.40175e+06 516188 0 -2.42014e+06 531990 0 -2.43908e+06 548195 0 -2.45858e+06 564829 0 -2.47867e+06 581919 0 -2.49936e+06 599495 0 -2.52069e+06 617590 0 -2.54268e+06 636240 0 -2.56536e+06 655486 0 -2.58877e+06 675371 0 -2.61295e+06 695947 0 -2.63795e+06 717269 0 -2.66382e+06 739399 0 -2.69062e+06 762411 0 -2.71843e+06 786386 0 -2.74732e+06 811417 0 -2.77741e+06 837615 0 -2.8088e+06 865104 0 -2.84163e+06 894034 0 -2.87605e+06 924580 0 -2.91226e+06 956951 0 -2.9505e+06 991398 0 -2.99103e+06 1.02823e+06 0 -3.03419e+06 1.06781e+06 0 -3.08041e+06 1.11062e+06 0 -3.1302e+06 1.15724e+06 0 -3.18422e+06 1.20842e+06 0 -3.2433e+06 1.26515e+06 0 -3.30849e+06 1.32876e+06 0 -3.38125e+06 1.401e+06 0 -3.46366e+06 1.48436e+06 0 -3.55793e+06 1.58289e+06 0 -3.66688e+06 1.70169e+06 0 -3.80105e+06 1.84754e+06 0 -3.96543e+06 2.04924e+06 0 -4.13606e+06 2.32672e+06 0 -4.42523e+06 2.65423e+06 0 -4.83156e+06 3.66322e+06 0 -4.35031e+06 5.35402e+06 0 -2.54321e+06 5.84077e+06 0 -1.03423e+06 4.92863e+06 0 -683173 4.32177e+06 0 -2.12451e+06 255202 0 -2.13368e+06 266120 0 -2.14322e+06 277170 0 -2.15313e+06 288358 0 -2.16343e+06 299691 0 -2.17412e+06 311178 0 -2.18519e+06 322826 0 -2.19665e+06 334645 0 -2.20851e+06 346642 0 -2.22077e+06 358828 0 -2.23344e+06 371213 0 -2.24653e+06 383806 0 -2.26003e+06 396619 0 -2.27395e+06 409664 0 -2.28831e+06 422953 0 -2.30311e+06 436499 0 -2.31836e+06 450316 0 -2.33406e+06 464418 0 -2.35023e+06 478823 0 -2.36687e+06 493546 0 -2.384e+06 508607 0 -2.40163e+06 524024 0 -2.41978e+06 539819 0 -2.43845e+06 556016 0 -2.45767e+06 572638 0 -2.47746e+06 589713 0 -2.49783e+06 607272 0 -2.51881e+06 625346 0 -2.54043e+06 643973 0 -2.56272e+06 663191 0 -2.5857e+06 683045 0 -2.60943e+06 703586 0 -2.63394e+06 724868 0 -2.65928e+06 746955 0 -2.68551e+06 769918 0 -2.71271e+06 793838 0 -2.74093e+06 818809 0 -2.77029e+06 844939 0 -2.80088e+06 872354 0 -2.83282e+06 901200 0 -2.86626e+06 931652 0 -2.90137e+06 963916 0 -2.93836e+06 998240 0 -2.97748e+06 1.03492e+06 0 -3.01902e+06 1.07434e+06 0 -3.06336e+06 1.11694e+06 0 -3.11094e+06 1.1633e+06 0 -3.16233e+06 1.21416e+06 0 -3.21823e+06 1.27047e+06 0 -3.27953e+06 1.3335e+06 0 -3.3474e+06 1.40494e+06 0 -3.42348e+06 1.48719e+06 0 -3.50951e+06 1.58387e+06 0 -3.60778e+06 1.69982e+06 0 -3.72484e+06 1.84235e+06 0 -3.86434e+06 2.03161e+06 0 -4.01254e+06 2.28782e+06 0 -4.21776e+06 2.62032e+06 0 -4.48738e+06 3.33017e+06 0 -4.28269e+06 4.57536e+06 0 -3.09283e+06 5.40439e+06 0 -1.63958e+06 5.08629e+06 0 -909813 4.41797e+06 0 -687006 4.0193e+06 0 -2.13581e+06 274278 0 -2.14537e+06 285336 0 -2.1553e+06 296534 0 -2.1656e+06 307878 0 -2.17627e+06 319375 0 -2.18732e+06 331034 0 -2.19876e+06 342864 0 -2.21057e+06 354873 0 -2.22278e+06 367070 0 -2.23538e+06 379466 0 -2.24839e+06 392070 0 -2.2618e+06 404894 0 -2.27562e+06 417949 0 -2.28986e+06 431247 0 -2.30453e+06 444802 0 -2.31963e+06 458626 0 -2.33517e+06 472736 0 -2.35117e+06 487146 0 -2.36763e+06 501873 0 -2.38456e+06 516937 0 -2.40197e+06 532355 0 -2.41988e+06 548150 0 -2.4383e+06 564343 0 -2.45725e+06 580961 0 -2.47675e+06 598030 0 -2.49681e+06 615579 0 -2.51746e+06 633642 0 -2.53873e+06 652254 0 -2.56064e+06 671455 0 -2.58322e+06 691289 0 -2.60651e+06 711806 0 -2.63055e+06 733062 0 -2.65539e+06 755118 0 -2.68108e+06 778046 0 -2.70768e+06 801928 0 -2.73527e+06 826856 0 -2.76393e+06 852937 0 -2.79375e+06 880296 0 -2.82485e+06 909080 0 -2.85736e+06 939459 0 -2.89143e+06 971640 0 -2.92725e+06 1.00587e+06 0 -2.96505e+06 1.04243e+06 0 -3.00507e+06 1.08171e+06 0 -3.04765e+06 1.12413e+06 0 -3.09318e+06 1.17027e+06 0 -3.14213e+06 1.22084e+06 0 -3.19511e+06 1.27676e+06 0 -3.25284e+06 1.33925e+06 0 -3.3163e+06 1.40994e+06 0 -3.38673e+06 1.49109e+06 0 -3.46549e+06 1.58601e+06 0 -3.55436e+06 1.69925e+06 0 -3.65734e+06 1.8379e+06 0 -3.77659e+06 2.01704e+06 0 -3.90385e+06 2.25499e+06 0 -4.05746e+06 2.57291e+06 0 -4.23616e+06 3.12563e+06 0 -4.1406e+06 4.05374e+06 0 -3.35993e+06 4.90149e+06 0 -2.14412e+06 4.99665e+06 0 -1.24625e+06 4.51647e+06 0 -858915 4.04817e+06 0 -649725 3.67724e+06 0 -2.14785e+06 293952 0 -2.1578e+06 305161 0 -2.1681e+06 316516 0 -2.17877e+06 328026 0 -2.1898e+06 339699 0 -2.20121e+06 351542 0 -2.21299e+06 363565 0 -2.22514e+06 375776 0 -2.23769e+06 388185 0 -2.25062e+06 400804 0 -2.26394e+06 413641 0 -2.27767e+06 426709 0 -2.2918e+06 440021 0 -2.30634e+06 453588 0 -2.32131e+06 467424 0 -2.33671e+06 481545 0 -2.35254e+06 495965 0 -2.36882e+06 510702 0 -2.38556e+06 525774 0 -2.40276e+06 541199 0 -2.42045e+06 557000 0 -2.43863e+06 573198 0 -2.45732e+06 589818 0 -2.47654e+06 606888 0 -2.49631e+06 624437 0 -2.51665e+06 642497 0 -2.53757e+06 661105 0 -2.55911e+06 680299 0 -2.58131e+06 700124 0 -2.60418e+06 720630 0 -2.62777e+06 741872 0 -2.65213e+06 763912 0 -2.6773e+06 786821 0 -2.70334e+06 810681 0 -2.73032e+06 835582 0 -2.75831e+06 861633 0 -2.78741e+06 888958 0 -2.81771e+06 917700 0 -2.84933e+06 948032 0 -2.88241e+06 980155 0 -2.91712e+06 1.01431e+06 0 -2.95366e+06 1.05079e+06 0 -2.99225e+06 1.08996e+06 0 -3.03318e+06 1.13224e+06 0 -3.07679e+06 1.1782e+06 0 -3.12348e+06 1.22852e+06 0 -3.17375e+06 1.2841e+06 0 -3.22822e+06 1.3461e+06 0 -3.28764e+06 1.41609e+06 0 -3.35298e+06 1.49621e+06 0 -3.42527e+06 1.58948e+06 0 -3.50579e+06 1.70017e+06 0 -3.59691e+06 1.83487e+06 0 -3.6995e+06 2.00546e+06 0 -3.80796e+06 2.22789e+06 0 -3.92664e+06 2.52506e+06 0 -4.04576e+06 2.98405e+06 0 -3.98871e+06 3.70113e+06 0 -3.46028e+06 4.45814e+06 0 -2.49998e+06 4.76851e+06 0 -1.59489e+06 4.5253e+06 0 -1.07266e+06 4.10215e+06 0 -807248 3.73443e+06 0 -626567 3.40223e+06 0 -2.16063e+06 314254 0 -2.17094e+06 325623 0 -2.18161e+06 337148 0 -2.19263e+06 348836 0 -2.20401e+06 360695 0 -2.21576e+06 372734 0 -2.22788e+06 384962 0 -2.24036e+06 397388 0 -2.25323e+06 410023 0 -2.26647e+06 422878 0 -2.28011e+06 435963 0 -2.29414e+06 449292 0 -2.30857e+06 462875 0 -2.32341e+06 476728 0 -2.33866e+06 490865 0 -2.35434e+06 505301 0 -2.37045e+06 520052 0 -2.387e+06 535138 0 -2.40401e+06 550577 0 -2.42149e+06 566390 0 -2.43944e+06 582599 0 -2.45788e+06 599230 0 -2.47684e+06 616309 0 -2.49632e+06 633866 0 -2.51635e+06 651933 0 -2.53695e+06 670547 0 -2.55815e+06 689745 0 -2.57996e+06 709574 0 -2.60244e+06 730082 0 -2.6256e+06 751323 0 -2.64949e+06 773362 0 -2.67416e+06 796268 0 -2.69967e+06 820122 0 -2.72606e+06 845016 0 -2.75341e+06 871057 0 -2.78181e+06 898368 0 -2.81134e+06 927093 0 -2.84211e+06 957402 0 -2.87426e+06 989494 0 -2.90791e+06 1.02361e+06 0 -2.94326e+06 1.06004e+06 0 -2.9805e+06 1.09913e+06 0 -3.01987e+06 1.14131e+06 0 -3.06168e+06 1.18713e+06 0 -3.10625e+06 1.23725e+06 0 -3.15401e+06 1.29253e+06 0 -3.20544e+06 1.35411e+06 0 -3.26116e+06 1.42348e+06 0 -3.32187e+06 1.50264e+06 0 -3.38832e+06 1.59442e+06 0 -3.46138e+06 1.70275e+06 0 -3.54229e+06 1.83363e+06 0 -3.63094e+06 1.99683e+06 0 -3.72286e+06 2.20599e+06 0 -3.81586e+06 2.48195e+06 0 -3.89509e+06 2.87801e+06 0 -3.84839e+06 3.45443e+06 0 -3.47126e+06 4.10157e+06 0 -2.72463e+06 4.49489e+06 0 -1.89723e+06 4.44397e+06 0 -1.30516e+06 4.12324e+06 0 -970730 3.77651e+06 0 -761699 3.46664e+06 0 -616866 3.18598e+06 0 -2.17414e+06 335217 0 -2.18481e+06 346758 0 -2.19582e+06 358464 0 -2.20719e+06 370341 0 -2.21891e+06 382399 0 -2.23099e+06 394647 0 -2.24342e+06 407093 0 -2.25623e+06 419749 0 -2.2694e+06 432624 0 -2.28295e+06 445730 0 -2.29688e+06 459079 0 -2.31121e+06 472684 0 -2.32592e+06 486558 0 -2.34104e+06 500716 0 -2.35658e+06 515172 0 -2.37253e+06 529944 0 -2.38891e+06 545050 0 -2.40572e+06 560509 0 -2.42299e+06 576341 0 -2.44072e+06 592569 0 -2.45893e+06 609219 0 -2.47763e+06 626316 0 -2.49684e+06 643890 0 -2.51658e+06 661974 0 -2.53687e+06 680604 0 -2.55773e+06 699819 0 -2.57918e+06 719663 0 -2.60127e+06 740185 0 -2.62402e+06 761441 0 -2.64747e+06 783494 0 -2.67166e+06 806413 0 -2.69664e+06 830279 0 -2.72247e+06 855185 0 -2.74921e+06 881237 0 -2.77694e+06 908557 0 -2.80573e+06 937290 0 -2.83569e+06 967602 0 -2.86693e+06 999694 0 -2.89958e+06 1.0338e+06 0 -2.93379e+06 1.07021e+06 0 -2.96974e+06 1.10927e+06 0 -3.00764e+06 1.15139e+06 0 -3.04774e+06 1.19711e+06 0 -3.09032e+06 1.24708e+06 0 -3.13571e+06 1.30213e+06 0 -3.18433e+06 1.36336e+06 0 -3.23661e+06 1.43217e+06 0 -3.29307e+06 1.51049e+06 0 -3.35422e+06 1.60091e+06 0 -3.42054e+06 1.70709e+06 0 -3.49249e+06 1.83442e+06 0 -3.56924e+06 1.99113e+06 0 -3.64672e+06 2.18883e+06 0 -3.71962e+06 2.44524e+06 0 -3.77097e+06 2.79512e+06 0 -3.72407e+06 3.27475e+06 0 -3.43766e+06 3.82331e+06 0 -2.85259e+06 4.22842e+06 0 -2.13175e+06 4.30388e+06 0 -1.52894e+06 4.09783e+06 0 -1.14e+06 3.79646e+06 0 -896420 3.50541e+06 0 -728644 3.23999e+06 0 -612052 3.00213e+06 0 -2.18838e+06 356875 0 -2.19939e+06 368601 0 -2.21074e+06 380500 0 -2.22244e+06 392580 0 -2.23448e+06 404850 0 -2.24687e+06 417320 0 -2.25962e+06 429999 0 -2.27273e+06 442899 0 -2.2862e+06 456030 0 -2.30005e+06 469405 0 -2.31427e+06 483035 0 -2.32887e+06 496935 0 -2.34386e+06 511118 0 -2.35925e+06 525601 0 -2.37505e+06 540400 0 -2.39126e+06 555532 0 -2.4079e+06 571017 0 -2.42497e+06 586876 0 -2.44249e+06 603132 0 -2.46047e+06 619808 0 -2.47893e+06 636932 0 -2.49787e+06 654534 0 -2.51733e+06 672645 0 -2.53731e+06 691302 0 -2.55785e+06 710545 0 -2.57896e+06 730417 0 -2.60067e+06 750968 0 -2.62302e+06 772254 0 -2.64604e+06 794336 0 -2.66976e+06 817286 0 -2.69424e+06 841184 0 -2.71953e+06 866122 0 -2.74568e+06 892207 0 -2.77276e+06 919560 0 -2.80085e+06 948326 0 -2.83002e+06 978670 0 -2.8604e+06 1.01079e+06 0 -2.89208e+06 1.04492e+06 0 -2.9252e+06 1.08135e+06 0 -2.95992e+06 1.12041e+06 0 -2.99641e+06 1.16252e+06 0 -3.03488e+06 1.20819e+06 0 -3.07557e+06 1.25807e+06 0 -3.11874e+06 1.31296e+06 0 -3.16469e+06 1.3739e+06 0 -3.21377e+06 1.44226e+06 0 -3.26629e+06 1.51983e+06 0 -3.32255e+06 1.60904e+06 0 -3.38272e+06 1.71327e+06 0 -3.44669e+06 1.83735e+06 0 -3.51309e+06 1.98832e+06 0 -3.5779e+06 2.17604e+06 0 -3.63439e+06 2.41507e+06 0 -3.66519e+06 2.72905e+06 0 -3.6145e+06 3.13912e+06 0 -3.38336e+06 3.60679e+06 0 -2.91524e+06 3.99109e+06 0 -2.29978e+06 4.13765e+06 0 -1.72442e+06 4.03064e+06 0 -1.30625e+06 3.78943e+06 0 -1.03075e+06 3.52483e+06 0 -841012 3.27433e+06 0 -706000 3.04499e+06 0 -608898 2.83784e+06 0 -2.20335e+06 379267 0 -2.21469e+06 391190 0 -2.22637e+06 403295 0 -2.23838e+06 415592 0 -2.25073e+06 428088 0 -2.26343e+06 440796 0 -2.27647e+06 453724 0 -2.28987e+06 466885 0 -2.30363e+06 480289 0 -2.31775e+06 493950 0 -2.33225e+06 507881 0 -2.34712e+06 522096 0 -2.36237e+06 536611 0 -2.37802e+06 551443 0 -2.39408e+06 566608 0 -2.41054e+06 582127 0 -2.42742e+06 598021 0 -2.44474e+06 614311 0 -2.4625e+06 631023 0 -2.48072e+06 648184 0 -2.49941e+06 665823 0 -2.51859e+06 683973 0 -2.53829e+06 702669 0 -2.55851e+06 721952 0 -2.57928e+06 741866 0 -2.60063e+06 762461 0 -2.62259e+06 783792 0 -2.64519e+06 805921 0 -2.66847e+06 828920 0 -2.69247e+06 852869 0 -2.71723e+06 877861 0 -2.7428e+06 904002 0 -2.76926e+06 931414 0 -2.79666e+06 960240 0 -2.82508e+06 990646 0 -2.85462e+06 1.02283e+06 0 -2.88536e+06 1.05702e+06 0 -2.91744e+06 1.09351e+06 0 -2.95097e+06 1.13261e+06 0 -2.98611e+06 1.17476e+06 0 -3.02302e+06 1.22044e+06 0 -3.0619e+06 1.27028e+06 0 -3.10295e+06 1.32507e+06 0 -3.14638e+06 1.38581e+06 0 -3.19242e+06 1.45379e+06 0 -3.24126e+06 1.53073e+06 0 -3.29298e+06 1.61889e+06 0 -3.34748e+06 1.72137e+06 0 -3.40422e+06 1.8425e+06 0 -3.46143e+06 1.98837e+06 0 -3.51503e+06 2.1673e+06 0 -3.55764e+06 2.39108e+06 0 -3.5725e+06 2.67605e+06 0 -3.51702e+06 3.03387e+06 0 -3.3204e+06 3.43681e+06 0 -2.93571e+06 3.78817e+06 0 -2.41217e+06 3.96793e+06 0 -1.88307e+06 3.93478e+06 0 -1.4596e+06 3.7556e+06 0 -1.16116e+06 3.52476e+06 0 -952025 3.29289e+06 0 -800710 3.07423e+06 0 -690145 2.8732e+06 0 -607189 2.68885e+06 0 -2.21904e+06 402433 0 -2.2307e+06 414567 0 -2.24269e+06 426894 0 -2.255e+06 439422 0 -2.26765e+06 452161 0 -2.28064e+06 465123 0 -2.29397e+06 478317 0 -2.30764e+06 491756 0 -2.32168e+06 505453 0 -2.33607e+06 519421 0 -2.35082e+06 533673 0 -2.36595e+06 548227 0 -2.38146e+06 563098 0 -2.39736e+06 578304 0 -2.41365e+06 593865 0 -2.43035e+06 609801 0 -2.44747e+06 626135 0 -2.46502e+06 642893 0 -2.48301e+06 660100 0 -2.50146e+06 677787 0 -2.52037e+06 695987 0 -2.53978e+06 714735 0 -2.5597e+06 734072 0 -2.58015e+06 754042 0 -2.60115e+06 774696 0 -2.62273e+06 796088 0 -2.64493e+06 818282 0 -2.66777e+06 841350 0 -2.69129e+06 865371 0 -2.71554e+06 890440 0 -2.74056e+06 916661 0 -2.76641e+06 944158 0 -2.79314e+06 973073 0 -2.82083e+06 1.00357e+06 0 -2.84955e+06 1.03585e+06 0 -2.87939e+06 1.07014e+06 0 -2.91045e+06 1.10672e+06 0 -2.94283e+06 1.14593e+06 0 -2.97666e+06 1.18815e+06 0 -3.01207e+06 1.23389e+06 0 -3.04921e+06 1.28376e+06 0 -3.08821e+06 1.33852e+06 0 -3.12924e+06 1.39913e+06 0 -3.17239e+06 1.46684e+06 0 -3.21773e+06 1.54326e+06 0 -3.26518e+06 1.6305e+06 0 -3.31439e+06 1.73143e+06 0 -3.36447e+06 1.8499e+06 0 -3.41338e+06 1.9912e+06 0 -3.45693e+06 2.16235e+06 0 -3.4875e+06 2.37271e+06 0 -3.48941e+06 2.6336e+06 0 -3.42902e+06 2.95062e+06 0 -3.25458e+06 3.30164e+06 0 -2.92951e+06 3.61762e+06 0 -2.48153e+06 3.80733e+06 0 -2.00444e+06 3.82384e+06 0 -1.59306e+06 3.69955e+06 0 -1.28324e+06 3.50603e+06 0 -1.05899e+06 3.29605e+06 0 -894168 3.09104e+06 0 -771458 2.89798e+06 0 -678865 2.71907e+06 0 -607088 2.55292e+06 0 -2.23545e+06 426420 0 -2.24742e+06 438780 0 -2.2597e+06 451343 0 -2.2723e+06 464119 0 -2.28524e+06 477118 0 -2.2985e+06 490351 0 -2.3121e+06 503831 0 -2.32604e+06 517569 0 -2.34033e+06 531579 0 -2.35498e+06 545876 0 -2.36998e+06 560476 0 -2.38536e+06 575393 0 -2.4011e+06 590648 0 -2.41724e+06 606258 0 -2.43376e+06 622246 0 -2.45069e+06 638633 0 -2.46803e+06 655446 0 -2.4858e+06 672710 0 -2.50401e+06 690457 0 -2.52267e+06 708719 0 -2.5418e+06 727532 0 -2.56142e+06 746937 0 -2.58155e+06 766979 0 -2.60222e+06 787707 0 -2.62343e+06 809179 0 -2.64523e+06 831457 0 -2.66764e+06 854614 0 -2.6907e+06 878730 0 -2.71445e+06 903899 0 -2.73893e+06 930226 0 -2.76418e+06 957837 0 -2.79026e+06 986872 0 -2.81723e+06 1.0175e+06 0 -2.84516e+06 1.04991e+06 0 -2.87411e+06 1.08434e+06 0 -2.90418e+06 1.12106e+06 0 -2.93544e+06 1.1604e+06 0 -2.96799e+06 1.20276e+06 0 -3.00194e+06 1.24862e+06 0 -3.03739e+06 1.29858e+06 0 -3.07442e+06 1.35338e+06 0 -3.11311e+06 1.41395e+06 0 -3.15348e+06 1.48148e+06 0 -3.19547e+06 1.55749e+06 0 -3.23885e+06 1.64396e+06 0 -3.28305e+06 1.7435e+06 0 -3.32694e+06 1.85958e+06 0 -3.36821e+06 1.99676e+06 0 -3.4026e+06 2.16093e+06 0 -3.4225e+06 2.35943e+06 0 -3.41345e+06 2.59989e+06 0 -3.34829e+06 2.88394e+06 0 -3.1885e+06 3.19274e+06 0 -2.9065e+06 3.47494e+06 0 -2.51896e+06 3.66137e+06 0 -2.09238e+06 3.70829e+06 0 -1.70346e+06 3.6279e+06 0 -1.39297e+06 3.47084e+06 0 -1.15934e+06 3.28489e+06 0 -984124 3.09549e+06 0 -851435 2.91267e+06 0 -749981 2.74024e+06 0 -671094 2.57903e+06 0 -608493 2.42793e+06 0 -2.25258e+06 451275 0 -2.26483e+06 463878 0 -2.2774e+06 476695 0 -2.29028e+06 489737 0 -2.30348e+06 503015 0 -2.31701e+06 516540 0 -2.33087e+06 530326 0 -2.34506e+06 544385 0 -2.3596e+06 558733 0 -2.37448e+06 573385 0 -2.38973e+06 588357 0 -2.40533e+06 603668 0 -2.4213e+06 619337 0 -2.43766e+06 635385 0 -2.4544e+06 651836 0 -2.47154e+06 668714 0 -2.48909e+06 686048 0 -2.50707e+06 703866 0 -2.52548e+06 722203 0 -2.54434e+06 741095 0 -2.56367e+06 760583 0 -2.58349e+06 780713 0 -2.60382e+06 801534 0 -2.62468e+06 823104 0 -2.64609e+06 845487 0 -2.66808e+06 868754 0 -2.69069e+06 892988 0 -2.71394e+06 918283 0 -2.73788e+06 944745 0 -2.76255e+06 972498 0 -2.78799e+06 1.00169e+06 0 -2.81426e+06 1.03247e+06 0 -2.8414e+06 1.06506e+06 0 -2.86948e+06 1.09967e+06 0 -2.89857e+06 1.13657e+06 0 -2.92873e+06 1.17611e+06 0 -2.96003e+06 1.21865e+06 0 -2.99255e+06 1.26469e+06 0 -3.02633e+06 1.31481e+06 0 -3.06142e+06 1.36973e+06 0 -3.09784e+06 1.43033e+06 0 -3.13551e+06 1.49777e+06 0 -3.17426e+06 1.57348e+06 0 -3.21371e+06 1.65929e+06 0 -3.25312e+06 1.75762e+06 0 -3.29114e+06 1.87154e+06 0 -3.32527e+06 2.00499e+06 0 -3.35118e+06 2.16284e+06 0 -3.36143e+06 2.35072e+06 0 -3.3428e+06 2.57349e+06 0 -3.27307e+06 2.83013e+06 0 -3.12316e+06 3.10395e+06 0 -2.87282e+06 3.35535e+06 0 -2.53315e+06 3.53149e+06 0 -2.15227e+06 3.59491e+06 0 -1.7907e+06 3.54714e+06 0 -1.4878e+06 3.42255e+06 0 -1.25079e+06 3.26096e+06 0 -1.06871e+06 3.08842e+06 0 -928407 2.91728e+06 0 -819594 2.75288e+06 0 -734206 2.59721e+06 0 -666200 2.45053e+06 0 -611198 2.31199e+06 0 -2.27042e+06 477053 0 -2.28294e+06 489916 0 -2.29577e+06 503007 0 -2.30892e+06 516335 0 -2.32237e+06 529912 0 -2.33615e+06 543752 0 -2.35025e+06 557868 0 -2.36469e+06 572274 0 -2.37946e+06 586986 0 -2.39457e+06 602021 0 -2.41003e+06 617397 0 -2.42585e+06 633134 0 -2.44204e+06 649254 0 -2.4586e+06 665778 0 -2.47554e+06 682734 0 -2.49288e+06 700148 0 -2.51063e+06 718052 0 -2.5288e+06 736478 0 -2.54739e+06 755464 0 -2.56644e+06 775051 0 -2.58596e+06 795286 0 -2.60595e+06 816218 0 -2.62646e+06 837907 0 -2.64749e+06 860415 0 -2.66907e+06 883816 0 -2.69123e+06 908194 0 -2.714e+06 933641 0 -2.73741e+06 960267 0 -2.7615e+06 988195 0 -2.7863e+06 1.01757e+06 0 -2.81187e+06 1.04856e+06 0 -2.83824e+06 1.08135e+06 0 -2.86546e+06 1.11618e+06 0 -2.89357e+06 1.15333e+06 0 -2.92264e+06 1.1931e+06 0 -2.9527e+06 1.23589e+06 0 -2.98379e+06 1.28218e+06 0 -3.01593e+06 1.33252e+06 0 -3.04911e+06 1.38762e+06 0 -3.08328e+06 1.44835e+06 0 -3.11828e+06 1.51578e+06 0 -3.15385e+06 1.59129e+06 0 -3.18947e+06 1.67658e+06 0 -3.22424e+06 1.77382e+06 0 -3.25662e+06 1.88577e+06 0 -3.28397e+06 2.01579e+06 0 -3.30194e+06 2.16785e+06 0 -3.30328e+06 2.34611e+06 0 -3.27607e+06 2.55329e+06 0 -3.20196e+06 2.78654e+06 0 -3.05884e+06 3.03078e+06 0 -2.83221e+06 3.25455e+06 0 -2.53051e+06 3.41706e+06 0 -2.1895e+06 3.4875e+06 0 -1.85654e+06 3.46249e+06 0 -1.56671e+06 3.36491e+06 0 -1.33165e+06 3.22632e+06 0 -1.14637e+06 3.07097e+06 0 -1.00097e+06 2.91237e+06 0 -886508 2.75704e+06 0 -795720 2.60797e+06 0 -722855 2.46612e+06 0 -663694 2.33155e+06 0 -615029 2.20358e+06 0 -2.28895e+06 503813 0 -2.30174e+06 516958 0 -2.31482e+06 530343 0 -2.32821e+06 543979 0 -2.34191e+06 557880 0 -2.35592e+06 572059 0 -2.37025e+06 586532 0 -2.38491e+06 601313 0 -2.3999e+06 616420 0 -2.41522e+06 631871 0 -2.43089e+06 647686 0 -2.44691e+06 663887 0 -2.4633e+06 680497 0 -2.48005e+06 697542 0 -2.49718e+06 715051 0 -2.5147e+06 733053 0 -2.53262e+06 751584 0 -2.55096e+06 770680 0 -2.56973e+06 790384 0 -2.58894e+06 810742 0 -2.60861e+06 831806 0 -2.62876e+06 853634 0 -2.64941e+06 876291 0 -2.67058e+06 899852 0 -2.6923e+06 924399 0 -2.71459e+06 950029 0 -2.73747e+06 976849 0 -2.76099e+06 1.00499e+06 0 -2.78516e+06 1.03458e+06 0 -2.81003e+06 1.06581e+06 0 -2.83562e+06 1.09886e+06 0 -2.86197e+06 1.13396e+06 0 -2.88912e+06 1.17139e+06 0 -2.91709e+06 1.21146e+06 0 -2.94591e+06 1.25456e+06 0 -2.97557e+06 1.30115e+06 0 -3.00607e+06 1.35178e+06 0 -3.03734e+06 1.40714e+06 0 -3.06926e+06 1.46807e+06 0 -3.10162e+06 1.53559e+06 0 -3.13403e+06 1.61099e+06 0 -3.16586e+06 1.69585e+06 0 -3.19607e+06 1.79214e+06 0 -3.22297e+06 1.90228e+06 0 -3.24379e+06 2.02911e+06 0 -3.25418e+06 2.17577e+06 0 -3.2472e+06 2.34517e+06 0 -3.21214e+06 2.53835e+06 0 -3.13382e+06 2.75119e+06 0 -2.99545e+06 2.96991e+06 0 -2.78697e+06 3.16896e+06 0 -2.51561e+06 3.31649e+06 0 -2.20878e+06 3.38776e+06 0 -1.90358e+06 3.37766e+06 0 -1.62994e+06 3.30138e+06 0 -1.40102e+06 3.18327e+06 0 -1.21596e+06 3.04459e+06 0 -1.06797e+06 2.8988e+06 0 -949690 2.75318e+06 0 -854750 2.61142e+06 0 -777896 2.47516e+06 0 -715056 2.34487e+06 0 -663181 2.22053e+06 0 -619858 2.10156e+06 0 -2.30818e+06 531623 0 -2.32121e+06 545071 0 -2.33453e+06 558773 0 -2.34815e+06 572743 0 -2.36207e+06 586995 0 -2.3763e+06 601542 0 -2.39085e+06 616401 0 -2.40571e+06 631589 0 -2.4209e+06 647126 0 -2.43642e+06 663030 0 -2.45228e+06 679324 0 -2.46849e+06 696032 0 -2.48505e+06 713181 0 -2.50197e+06 730797 0 -2.51927e+06 748914 0 -2.53695e+06 767565 0 -2.55503e+06 786789 0 -2.57352e+06 806629 0 -2.59243e+06 827130 0 -2.61178e+06 848347 0 -2.63158e+06 870338 0 -2.65185e+06 893169 0 -2.67262e+06 916916 0 -2.69389e+06 941662 0 -2.71569e+06 967505 0 -2.73805e+06 994554 0 -2.76098e+06 1.02294e+06 0 -2.78452e+06 1.0528e+06 0 -2.80868e+06 1.0843e+06 0 -2.8335e+06 1.11765e+06 0 -2.85898e+06 1.15307e+06 0 -2.88515e+06 1.19084e+06 0 -2.91202e+06 1.23126e+06 0 -2.93957e+06 1.27473e+06 0 -2.9678e+06 1.32168e+06 0 -2.99663e+06 1.37268e+06 0 -3.02597e+06 1.42838e+06 0 -3.05563e+06 1.48958e+06 0 -3.08531e+06 1.55727e+06 0 -3.11455e+06 1.63264e+06 0 -3.1426e+06 1.71716e+06 0 -3.16828e+06 1.81259e+06 0 -3.18976e+06 1.92103e+06 0 -3.20422e+06 2.04483e+06 0 -3.2073e+06 2.18638e+06 0 -3.19244e+06 2.34748e+06 0 -3.15009e+06 2.52785e+06 0 -3.06775e+06 2.7225e+06 0 -2.93273e+06 2.91879e+06 0 -2.73847e+06 3.09563e+06 0 -2.49167e+06 3.22793e+06 0 -2.21398e+06 3.29611e+06 0 -1.93464e+06 3.29498e+06 0 -1.67857e+06 3.23477e+06 0 -1.45872e+06 3.13409e+06 0 -1.2768e+06 3.01083e+06 0 -1.12857e+06 2.87761e+06 0 -1.00829e+06 2.74193e+06 0 -910535 2.60795e+06 0 -830642 2.47778e+06 0 -764830 2.35233e+06 0 -710156 2.23183e+06 0 -664353 2.1162e+06 0 -625579 2.00497e+06 0 -2.32808e+06 560555 0 -2.34134e+06 574332 0 -2.35488e+06 588379 0 -2.36872e+06 602711 0 -2.38285e+06 617343 0 -2.39728e+06 632290 0 -2.41202e+06 647570 0 -2.42708e+06 663203 0 -2.44245e+06 679209 0 -2.45815e+06 695609 0 -2.47418e+06 712429 0 -2.49055e+06 729694 0 -2.50727e+06 747435 0 -2.52434e+06 765682 0 -2.54179e+06 784472 0 -2.55961e+06 803842 0 -2.57782e+06 823837 0 -2.59643e+06 844504 0 -2.61545e+06 865897 0 -2.6349e+06 888076 0 -2.65479e+06 911108 0 -2.67514e+06 935069 0 -2.69596e+06 960045 0 -2.71728e+06 986134 0 -2.7391e+06 1.01345e+06 0 -2.76145e+06 1.04211e+06 0 -2.78434e+06 1.07228e+06 0 -2.80779e+06 1.10411e+06 0 -2.83181e+06 1.13781e+06 0 -2.8564e+06 1.1736e+06 0 -2.88158e+06 1.21175e+06 0 -2.90731e+06 1.25259e+06 0 -2.93359e+06 1.29648e+06 0 -2.96034e+06 1.34388e+06 0 -2.98747e+06 1.39531e+06 0 -3.01483e+06 1.45141e+06 0 -3.04218e+06 1.51296e+06 0 -3.06915e+06 1.58089e+06 0 -3.09516e+06 1.65631e+06 0 -3.11938e+06 1.74055e+06 0 -3.1405e+06 1.83518e+06 0 -3.15659e+06 1.94198e+06 0 -3.16476e+06 2.06284e+06 0 -3.16072e+06 2.19945e+06 0 -3.13833e+06 2.35265e+06 0 -3.08914e+06 2.52107e+06 0 -3.00297e+06 2.6992e+06 0 -2.8704e+06 2.87543e+06 0 -2.68758e+06 3.03216e+06 0 -2.46097e+06 3.14953e+06 0 -2.20814e+06 3.21224e+06 0 -1.95236e+06 3.21573e+06 0 -1.71408e+06 3.16717e+06 0 -1.50516e+06 3.08078e+06 0 -1.32866e+06 2.97126e+06 0 -1.18225e+06 2.84992e+06 0 -1.06167e+06 2.72407e+06 0 -962443 2.59805e+06 0 -880518 2.47431e+06 0 -812484 2.35407e+06 0 -755592 2.23783e+06 0 -707660 2.1257e+06 0 -666969 2.01756e+06 0 -632096 1.91307e+06 0 -2.34864e+06 590694 0 -2.36211e+06 604827 0 -2.37586e+06 619250 0 -2.38989e+06 633976 0 -2.40422e+06 649022 0 -2.41883e+06 664407 0 -2.43375e+06 680148 0 -2.44898e+06 696268 0 -2.46451e+06 712788 0 -2.48037e+06 729734 0 -2.49655e+06 747133 0 -2.51306e+06 765014 0 -2.52991e+06 783410 0 -2.54711e+06 802357 0 -2.56467e+06 821895 0 -2.5826e+06 842067 0 -2.60091e+06 862923 0 -2.6196e+06 884518 0 -2.6387e+06 906911 0 -2.6582e+06 930173 0 -2.67813e+06 954380 0 -2.6985e+06 979619 0 -2.71932e+06 1.00599e+06 0 -2.7406e+06 1.03361e+06 0 -2.76235e+06 1.0626e+06 0 -2.78458e+06 1.09311e+06 0 -2.80729e+06 1.12531e+06 0 -2.83049e+06 1.15941e+06 0 -2.85417e+06 1.19563e+06 0 -2.87832e+06 1.23423e+06 0 -2.90289e+06 1.27554e+06 0 -2.92783e+06 1.31993e+06 0 -2.95306e+06 1.36783e+06 0 -2.97844e+06 1.41976e+06 0 -3.00376e+06 1.47634e+06 0 -3.02872e+06 1.5383e+06 0 -3.05289e+06 1.60652e+06 0 -3.07559e+06 1.68204e