<?xml version="1.0"?> 
<VTKFile type="StructuredGrid" version="0.1"> 
<StructuredGrid WholeExtent="0 63 0 63 0 0"> 
<Piece Extent="0 63 0 63 0 0"> 
<PointData>
<DataArray type="Float32" Name="|E|" format="ascii" NumberOfComponents="3"> 
-2.07574e+06 47742.9 0 -2.07989e+06 56249 0 -2.08462e+06 64686.2 0 -2.08993e+06 73071.2 0 -2.09583e+06 81407.7 0 -2.10231e+06 89701.1 0 -2.10938e+06 97957.4 0 -2.11706e+06 106182 0 -2.12534e+06 114382 0 -2.13423e+06 122562 0 -2.14374e+06 130728 0 -2.15388e+06 138886 0 -2.16466e+06 147043 0 -2.17608e+06 155203 0 -2.18815e+06 163375 0 -2.20089e+06 171563 0 -2.21431e+06 179775 0 -2.22841e+06 188016 0 -2.24322e+06 196294 0 -2.25873e+06 204614 0 -2.27498e+06 212984 0 -2.29197e+06 221410 0 -2.30973e+06 229899 0 -2.32826e+06 238456 0 -2.34758e+06 247089 0 -2.36773e+06 255803 0 -2.38872e+06 264605 0 -2.41057e+06 273498 0 -2.43331e+06 282489 0 -2.45696e+06 291579 0 -2.48156e+06 300773 0 -2.50714e+06 310070 0 -2.53373e+06 319469 0 -2.56138e+06 328966 0 -2.59011e+06 338555 0 -2.61997e+06 348225 0 -2.65101e+06 357960 0 -2.68328e+06 367738 0 -2.71683e+06 377529 0 -2.75173e+06 387293 0 -2.78804e+06 396980 0 -2.82581e+06 406523 0 -2.86514e+06 415837 0 -2.90608e+06 424816 0 -2.94872e+06 433326 0 -2.99313e+06 441198 0 -3.03938e+06 448225 0 -3.08755e+06 454148 0 -3.13767e+06 458651 0 -3.18977e+06 461346 0 -3.24381e+06 461769 0 -3.29971e+06 459363 0 -3.35726e+06 453478 0 -3.41613e+06 443375 0 -3.47578e+06 428237 0 -3.53541e+06 407215 0 -3.59394e+06 379496 0 -3.64989e+06 344416 0 -3.70148e+06 301621 0 -3.74661e+06 251260 0 -3.78308e+06 194107 0 -3.8088e+06 131621 0 -3.82239e+06 65588.3 0 -3.8244e+06 -1.90735e-06 0 -2.07556e+06 49251.1 0 -2.07977e+06 57778.6 0 -2.08456e+06 66243.7 0 -2.08993e+06 74659.1 0 -2.09588e+06 83028.4 0 -2.10241e+06 91357.6 0 -2.10954e+06 99652.4 0 -2.11726e+06 107919 0 -2.12559e+06 116162 0 -2.13452e+06 124389 0 -2.14407e+06 132605 0 -2.15425e+06 140817 0 -2.16506e+06 149029 0 -2.17651e+06 157249 0 -2.18862e+06 165483 0 -2.20138e+06 173736 0 -2.21482e+06 182017 0 -2.22895e+06 190330 0 -2.24377e+06 198683 0 -2.2593e+06 207082 0 -2.27556e+06 215535 0 -2.29256e+06 224047 0 -2.31032e+06 232626 0 -2.32885e+06 241278 0 -2.34818e+06 250010 0 -2.36832e+06 258827 0 -2.3893e+06 267736 0 -2.41115e+06 276742 0 -2.43387e+06 285850 0 -2.45751e+06 295064 0 -2.4821e+06 304385 0 -2.50765e+06 313816 0 -2.53422e+06 323354 0 -2.56184e+06 332998 0 -2.59054e+06 342740 0 -2.62037e+06 352571 0 -2.65138e+06 362473 0 -2.68362e+06 372427 0 -2.71715e+06 382402 0 -2.75202e+06 392360 0 -2.7883e+06 402250 0 -2.82606e+06 412007 0 -2.86537e+06 421545 0 -2.90632e+06 430761 0 -2.94897e+06 439518 0 -2.99342e+06 447651 0 -3.03975e+06 454949 0 -3.08801e+06 461154 0 -3.13828e+06 465946 0 -3.19058e+06 468937 0 -3.24489e+06 469652 0 -3.30114e+06 467526 0 -3.35914e+06 461896 0 -3.41856e+06 451998 0 -3.4789e+06 436987 0 -3.53936e+06 415975 0 -3.59884e+06 388100 0 -3.65586e+06 352643 0 -3.70858e+06 309198 0 -3.75483e+06 257867 0 -3.79231e+06 199414 0 -3.81884e+06 135314 0 -3.83301e+06 67605.2 0 -3.83477e+06 7.56234e-07 0 -2.07538e+06 50770.6 0 -2.07966e+06 59321 0 -2.08451e+06 67814.1 0 -2.08994e+06 76259.8 0 -2.09594e+06 84662.3 0 -2.10253e+06 93027.3 0 -2.1097e+06 101361 0 -2.11747e+06 109669 0 -2.12584e+06 117956 0 -2.13482e+06 126230 0 -2.14441e+06 134497 0 -2.15462e+06 142761 0 -2.16546e+06 151029 0 -2.17695e+06 159308 0 -2.18908e+06 167604 0 -2.20187e+06 175923 0 -2.21534e+06 184272 0 -2.22948e+06 192658 0 -2.24432e+06 201086 0 -2.25987e+06 209565 0 -2.27614e+06 218100 0 -2.29315e+06 226699 0 -2.31091e+06 235368 0 -2.32945e+06 244115 0 -2.34877e+06 252945 0 -2.36891e+06 261866 0 -2.38988e+06 270882 0 -2.41172e+06 280001 0 -2.43443e+06 289226 0 -2.45805e+06 298562 0 -2.48262e+06 308011 0 -2.50815e+06 317576 0 -2.5347e+06 327255 0 -2.56228e+06 337045 0 -2.59096e+06 346940 0 -2.62076e+06 356931 0 -2.65174e+06 367002 0 -2.68394e+06 377132 0 -2.71744e+06 387292 0 -2.75228e+06 397445 0 -2.78854e+06 407539 0 -2.82628e+06 417510 0 -2.86558e+06 427276 0 -2.90653e+06 436729 0 -2.9492e+06 445737 0 -2.99369e+06 454133 0 -3.04008e+06 461707 0 -3.08845e+06 468200 0 -3.13886e+06 473290 0 -3.19136e+06 476583 0 -3.24594e+06 477601 0 -3.30254e+06 475770 0 -3.36099e+06 470408 0 -3.42099e+06 460733 0 -3.48203e+06 445869 0 -3.54334e+06 424887 0 -3.6038e+06 396873 0 -3.66193e+06 361054 0 -3.71583e+06 316963 0 -3.76325e+06 264654 0 -3.8018e+06 204878 0 -3.82919e+06 139136 0 -3.84391e+06 69657.1 0 -3.84554e+06 -6.03497e-07 0 -2.07521e+06 52301.6 0 -2.07956e+06 60876.2 0 -2.08447e+06 69397.4 0 -2.08995e+06 77873.5 0 -2.09601e+06 86309.2 0 -2.10264e+06 94710.2 0 -2.10987e+06 103082 0 -2.11768e+06 111432 0 -2.1261e+06 119764 0 -2.13511e+06 128085 0 -2.14474e+06 136401 0 -2.15499e+06 144719 0 -2.16587e+06 153043 0 -2.17739e+06 161381 0 -2.18955e+06 169740 0 -2.20236e+06 178124 0 -2.21585e+06 186542 0 -2.23001e+06 194999 0 -2.24487e+06 203503 0 -2.26043e+06 212061 0 -2.27671e+06 220679 0 -2.29373e+06 229365 0 -2.31149e+06 238124 0 -2.33003e+06 246965 0 -2.34936e+06 255894 0 -2.36949e+06 264918 0 -2.39046e+06 274042 0 -2.41228e+06 283273 0 -2.43498e+06 292616 0 -2.45858e+06 302074 0 -2.48313e+06 311652 0 -2.50864e+06 321350 0 -2.53516e+06 331169 0 -2.56272e+06 341106 0 -2.59136e+06 351155 0 -2.62113e+06 361306 0 -2.65207e+06 371546 0 -2.68425e+06 381852 0 -2.71771e+06 392198 0 -2.75253e+06 402546 0 -2.78876e+06 412846 0 -2.82648e+06 423034 0 -2.86577e+06 433027 0 -2.90672e+06 442721 0 -2.94941e+06 451983 0 -2.99393e+06 460646 0 -3.04039e+06 468501 0 -3.08886e+06 475287 0 -3.13941e+06 480681 0 -3.19211e+06 484287 0 -3.24696e+06 485619 0 -3.30392e+06 484094 0 -3.36284e+06 479018 0 -3.42342e+06 469584 0 -3.48518e+06 454886 0 -3.54735e+06 433954 0 -3.60883e+06 405822 0 -3.6681e+06 369655 0 -3.72322e+06 324925 0 -3.77187e+06 271632 0 -3.81154e+06 210508 0 -3.83984e+06 143088 0 -3.85513e+06 71755.1 0 -3.85672e+06 6.18398e-07 0 -2.07506e+06 53844.8 0 -2.07946e+06 62444.1 0 -2.08443e+06 70993.4 0 -2.08997e+06 79500.2 0 -2.09608e+06 87969.2 0 -2.10277e+06 96406.3 0 -2.11004e+06 104817 0 -2.1179e+06 113208 0 -2.12636e+06 121585 0 -2.13542e+06 129954 0 -2.14508e+06 138320 0 -2.15537e+06 146691 0 -2.16628e+06 155071 0 -2.17782e+06 163469 0 -2.19001e+06 171889 0 -2.20285e+06 180339 0 -2.21636e+06 188826 0 -2.23054e+06 197355 0 -2.24541e+06 205935 0 -2.26099e+06 214572 0 -2.27728e+06 223272 0 -2.2943e+06 232044 0 -2.31207e+06 240895 0 -2.33061e+06 249830 0 -2.34994e+06 258858 0 -2.37006e+06 267985 0 -2.39102e+06 277217 0 -2.41283e+06 286560 0 -2.43551e+06 296020 0 -2.4591e+06 305601 0 -2.48362e+06 315307 0 -2.50911e+06 325139 0 -2.5356e+06 335098 0 -2.56313e+06 345182 0 -2.59175e+06 355384 0 -2.62148e+06 365696 0 -2.6524e+06 376105 0 -2.68454e+06 386589 0 -2.71797e+06 397121 0 -2.75275e+06 407665 0 -2.78895e+06 418171 0 -2.82665e+06 428577 0 -2.86593e+06 438801 0 -2.90688e+06 448738 0 -2.94958e+06 458256 0 -2.99415e+06 467190 0 -3.04066e+06 475330 0 -3.08923e+06 482415 0 -3.13993e+06 488121 0 -3.19283e+06 492048 0 -3.24796e+06 493706 0 -3.30528e+06 492502 0 -3.36466e+06 487726 0 -3.42583e+06 478552 0 -3.48833e+06 464042 0 -3.55139e+06 443182 0 -3.61392e+06 414953 0 -3.67437e+06 378454 0 -3.73077e+06 333092 0 -3.7807e+06 278810 0 -3.82155e+06 216312 0 -3.85081e+06 147175 0 -3.86668e+06 73907.8 0 -3.8683e+06 -6.10948e-07 0 -2.0749e+06 55400.4 0 -2.07937e+06 64024.7 0 -2.0844e+06 72602.3 0 -2.08999e+06 81139.9 0 -2.09615e+06 89642.3 0 -2.10289e+06 98115.7 0 -2.11021e+06 106566 0 -2.11812e+06 114998 0 -2.12662e+06 123420 0 -2.13572e+06 131836 0 -2.14543e+06 140252 0 -2.15575e+06 148676 0 -2.16669e+06 157113 0 -2.17826e+06 165570 0 -2.19048e+06 174052 0 -2.20334e+06 182568 0 -2.21687e+06 191123 0 -2.23107e+06 199725 0 -2.24596e+06 208380 0 -2.26154e+06 217096 0 -2.27784e+06 225880 0 -2.29487e+06 234738 0 -2.31265e+06 243679 0 -2.33119e+06 252709 0 -2.35051e+06 261836 0 -2.37063e+06 271065 0 -2.39158e+06 280405 0 -2.41337e+06 289861 0 -2.43604e+06 299438 0 -2.45961e+06 309142 0 -2.48411e+06 318976 0 -2.50957e+06 328943 0 -2.53604e+06 339042 0 -2.56354e+06 349272 0 -2.59212e+06 359628 0 -2.62182e+06 370102 0 -2.6527e+06 380679 0 -2.68481e+06 391341 0 -2.7182e+06 402060 0 -2.75295e+06 412801 0 -2.78913e+06 423515 0 -2.8268e+06 434140 0 -2.86607e+06 444596 0 -2.90701e+06 454778 0 -2.94973e+06 464556 0 -2.99433e+06 473765 0 -3.04091e+06 482195 0 -3.08958e+06 489585 0 -3.14042e+06 495611 0 -3.19353e+06 499868 0 -3.24893e+06 501863 0 -3.30661e+06 500993 0 -3.36646e+06 496535 0 -3.42824e+06 487641 0 -3.49148e+06 473340 0 -3.55545e+06 452575 0 -3.61906e+06 424271 0 -3.68074e+06 387459 0 -3.73846e+06 341474 0 -3.78974e+06 286196 0 -3.83183e+06 222301 0 -3.8621e+06 151403 0 -3.87859e+06 76123.1 0 -3.88027e+06 2.38419e-07 0 -2.07476e+06 56968.6 0 -2.07929e+06 65618.1 0 -2.08437e+06 74224.1 0 -2.09002e+06 82792.6 0 -2.09624e+06 91328.6 0 -2.10303e+06 99838.3 0 -2.1104e+06 108327 0 -2.11835e+06 116802 0 -2.12689e+06 125268 0 -2.13603e+06 133731 0 -2.14577e+06 142199 0 -2.15612e+06 150676 0 -2.1671e+06 159169 0 -2.1787e+06 167685 0 -2.19094e+06 176230 0 -2.20383e+06 184811 0 -2.21738e+06 193435 0 -2.2316e+06 202109 0 -2.2465e+06 210840 0 -2.2621e+06 219635 0 -2.2784e+06 228502 0 -2.29544e+06 237447 0 -2.31322e+06 246478 0 -2.33175e+06 255602 0 -2.35107e+06 264828 0 -2.37119e+06 274160 0 -2.39212e+06 283608 0 -2.4139e+06 293176 0 -2.43656e+06 302871 0 -2.46011e+06 312697 0 -2.48458e+06 322660 0 -2.51002e+06 332760 0 -2.53646e+06 343000 0 -2.56393e+06 353377 0 -2.59247e+06 363887 0 -2.62214e+06 374522 0 -2.65298e+06 385269 0 -2.68506e+06 396109 0 -2.71842e+06 407016 0 -2.75313e+06 417954 0 -2.78928e+06 428877 0 -2.82693e+06 439723 0 -2.86618e+06 450412 0 -2.90712e+06 460842 0 -2.94985e+06 470883 0 -2.99449e+06 480370 0 -3.04113e+06 489095 0 -3.08989e+06 496797 0 -3.14088e+06 503150 0 -3.19419e+06 507748 0 -3.24986e+06 510092 0 -3.30791e+06 509570 0 -3.36824e+06 505447 0 -3.43062e+06 496852 0 -3.49463e+06 482783 0 -3.55954e+06 462139 0 -3.62425e+06 433784 0 -3.6872e+06 396679 0 -3.74631e+06 350080 0 -3.79899e+06 293801 0 -3.84239e+06 228485 0 -3.87372e+06 155778 0 -3.89086e+06 78408 0 -3.89265e+06 -2.83122e-07 0 -2.07463e+06 58549.2 0 -2.07921e+06 67224.3 0 -2.08435e+06 75858.8 0 -2.09006e+06 84458.2 0 -2.09633e+06 93028 0 -2.10317e+06 101574 0 -2.11058e+06 110103 0 -2.11858e+06 118619 0 -2.12716e+06 127130 0 -2.13634e+06 135641 0 -2.14612e+06 144158 0 -2.1565e+06 152689 0 -2.16751e+06 161238 0 -2.17914e+06 169814 0 -2.19141e+06 178421 0 -2.20432e+06 187068 0 -2.21788e+06 195761 0 -2.23212e+06 204508 0 -2.24704e+06 213314 0 -2.26264e+06 222188 0 -2.27896e+06 231137 0 -2.296e+06 240169 0 -2.31378e+06 249291 0 -2.33232e+06 258510 0 -2.35163e+06 267834 0 -2.37173e+06 277270 0 -2.39266e+06 286825 0 -2.41443e+06 296505 0 -2.43706e+06 306318 0 -2.46059e+06 316267 0 -2.48504e+06 326357 0 -2.51046e+06 336592 0 -2.53686e+06 346972 0 -2.5643e+06 357496 0 -2.59281e+06 368160 0 -2.62245e+06 378957 0 -2.65325e+06 389874 0 -2.68529e+06 400892 0 -2.71861e+06 411988 0 -2.75329e+06 423125 0 -2.78941e+06 434258 0 -2.82704e+06 445326 0 -2.86627e+06 456251 0 -2.9072e+06 466931 0 -2.94995e+06 477238 0 -2.99461e+06 487007 0 -3.04131e+06 496032 0 -3.09017e+06 504051 0 -3.1413e+06 510739 0 -3.19481e+06 515687 0 -3.25076e+06 518392 0 -3.30918e+06 518234 0 -3.36999e+06 514464 0 -3.433e+06 506189 0 -3.49778e+06 492376 0 -3.56365e+06 471878 0 -3.6295e+06 443497 0 -3.69376e+06 406120 0 -3.7543e+06 358920 0 -3.80846e+06 301637 0 -3.85324e+06 234874 0 -3.88569e+06 160307 0 -3.90352e+06 80769.3 0 -3.90545e+06 -6.85453e-07 0 -2.0745e+06 60142.4 0 -2.07914e+06 68843.3 0 -2.08434e+06 77506.4 0 -2.0901e+06 86136.9 0 -2.09642e+06 94740.6 0 -2.10331e+06 103323 0 -2.11077e+06 111891 0 -2.11881e+06 120450 0 -2.12743e+06 129005 0 -2.13665e+06 137564 0 -2.14647e+06 146132 0 -2.15689e+06 154716 0 -2.16792e+06 163322 0 -2.17958e+06 171957 0 -2.19187e+06 180627 0 -2.2048e+06 189339 0 -2.21839e+06 198101 0 -2.23264e+06 206920 0 -2.24757e+06 215802 0 -2.26319e+06 224756 0 -2.27951e+06 233788 0 -2.29656e+06 242906 0 -2.31434e+06 252118 0 -2.33287e+06 261431 0 -2.35218e+06 270854 0 -2.37228e+06 280393 0 -2.39319e+06 290056 0 -2.41494e+06 299849 0 -2.43756e+06 309778 0 -2.46107e+06 319850 0 -2.48549e+06 330069 0 -2.51088e+06 340438 0 -2.53725e+06 350958 0 -2.56466e+06 361630 0 -2.59314e+06 372448 0 -2.62273e+06 383407 0 -2.6535e+06 394494 0 -2.6855e+06 405692 0 -2.71878e+06 416976 0 -2.75343e+06 428313 0 -2.78951e+06 439657 0 -2.82711e+06 450949 0 -2.86633e+06 462111 0 -2.90726e+06 473044 0 -2.95001e+06 483619 0 -2.9947e+06 493675 0 -3.04146e+06 503004 0 -3.09042e+06 511348 0 -3.14169e+06 518378 0 -3.1954e+06 523687 0 -3.25163e+06 526764 0 -3.31042e+06 526985 0 -3.37172e+06 523586 0 -3.43535e+06 515654 0 -3.50092e+06 502122 0 -3.56777e+06 481797 0 -3.6348e+06 453419 0 -3.70042e+06 415793 0 -3.76245e+06 368006 0 -3.81815e+06 309715 0 -3.86438e+06 241479 0 -3.89802e+06 164999 0 -3.91658e+06 83213.4 0 -3.91868e+06 1.40071e-06 0 -2.07438e+06 61748.2 0 -2.07908e+06 70475 0 -2.08434e+06 79166.8 0 -2.09015e+06 87828.7 0 -2.09652e+06 96466.4 0 -2.10346e+06 105086 0 -2.11096e+06 113693 0 -2.11905e+06 122294 0 -2.12771e+06 130894 0 -2.13697e+06 139501 0 -2.14682e+06 148119 0 -2.15727e+06 156757 0 -2.16833e+06 165419 0 -2.18002e+06 174114 0 -2.19233e+06 182846 0 -2.20529e+06 191625 0 -2.21889e+06 200456 0 -2.23316e+06 209346 0 -2.2481e+06 218304 0 -2.26373e+06 227337 0 -2.28006e+06 236452 0 -2.29711e+06 245657 0 -2.31489e+06 254959 0 -2.33342e+06 264367 0 -2.35272e+06 273889 0 -2.37281e+06 283531 0 -2.39371e+06 293301 0 -2.41545e+06 303206 0 -2.43804e+06 313253 0 -2.46153e+06 323448 0 -2.48593e+06 333795 0 -2.51129e+06 344298 0 -2.53763e+06 354959 0 -2.565e+06 365778 0 -2.59344e+06 376751 0 -2.623e+06 387872 0 -2.65373e+06 399129 0 -2.68569e+06 410507 0 -2.71893e+06 421981 0 -2.75354e+06 433519 0 -2.78959e+06 445075 0 -2.82717e+06 456592 0 -2.86636e+06 467993 0 -2.90728e+06 479181 0 -2.95004e+06 490028 0 -2.99476e+06 500374 0 -3.04158e+06 510014 0 -3.09063e+06 518688 0 -3.14204e+06 526069 0 -3.19595e+06 531747 0 -3.25245e+06 535211 0 -3.31162e+06 535826 0 -3.37341e+06 532817 0 -3.43767e+06 525249 0 -3.50406e+06 512025 0 -3.5719e+06 491901 0 -3.64014e+06 463554 0 -3.70716e+06 425706 0 -3.77075e+06 377347 0 -3.82807e+06 318048 0 -3.87582e+06 248312 0 -3.91071e+06 169865 0 -3.93006e+06 85747 0 -3.93236e+06 -1.01328e-06 0 -2.07427e+06 63366.6 0 -2.07903e+06 72119.6 0 -2.08434e+06 80840.2 0 -2.09021e+06 89533.5 0 -2.09663e+06 98205.3 0 -2.10361e+06 106862 0 -2.11116e+06 115508 0 -2.11929e+06 124151 0 -2.12799e+06 132797 0 -2.13729e+06 141451 0 -2.14717e+06 150121 0 -2.15765e+06 158812 0 -2.16875e+06 167531 0 -2.18046e+06 176284 0 -2.1928e+06 185080 0 -2.20577e+06 193924 0 -2.2194e+06 202824 0 -2.23368e+06 211787 0 -2.24863e+06 220821 0 -2.26427e+06 229933 0 -2.28061e+06 239130 0 -2.29766e+06 248422 0 -2.31544e+06 257815 0 -2.33396e+06 267317 0 -2.35326e+06 276937 0 -2.37333e+06 286682 0 -2.39422e+06 296560 0 -2.41594e+06 306578 0 -2.43852e+06 316743 0 -2.46198e+06 327060 0 -2.48636e+06 337536 0 -2.51168e+06 348173 0 -2.538e+06 358974 0 -2.56533e+06 369940 0 -2.59374e+06 381068 0 -2.62326e+06 392352 0 -2.65394e+06 403780 0 -2.68586e+06 415338 0 -2.71907e+06 427003 0 -2.75364e+06 438741 0 -2.78965e+06 450511 0 -2.8272e+06 462255 0 -2.86637e+06 473897 0 -2.90728e+06 485342 0 -2.95004e+06 496465 0 -2.99479e+06 507105 0 -3.04166e+06 517060 0 -3.0908e+06 526070 0 -3.14235e+06 533811 0 -3.19646e+06 539870 0 -3.25324e+06 543732 0 -3.31278e+06 544757 0 -3.37506e+06 542158 0 -3.43997e+06 534978 0 -3.50718e+06 522088 0 -3.57604e+06 502197 0 -3.64552e+06 473912 0 -3.71399e+06 435868 0 -3.77921e+06 386956 0 -3.83821e+06 326647 0 -3.88757e+06 255387 0 -3.92379e+06 174913 0 -3.94397e+06 88376.8 0 -3.94649e+06 6.85453e-07 0 -2.07417e+06 64997.6 0 -2.07899e+06 73776.9 0 -2.08435e+06 82526.5 0 -2.09027e+06 91251.4 0 -2.09674e+06 99957.5 0 -2.10377e+06 108651 0 -2.11137e+06 117337 0 -2.11953e+06 126022 0 -2.12828e+06 134713 0 -2.13761e+06 143415 0 -2.14752e+06 152136 0 -2.15804e+06 160880 0 -2.16916e+06 169656 0 -2.1809e+06 178469 0 -2.19326e+06 187328 0 -2.20626e+06 196238 0 -2.2199e+06 205207 0 -2.23419e+06 214242 0 -2.24916e+06 223351 0 -2.2648e+06 232542 0 -2.28115e+06 241823 0 -2.2982e+06 251201 0 -2.31598e+06 260685 0 -2.3345e+06 270282 0 -2.35378e+06 280000 0 -2.37385e+06 289848 0 -2.39473e+06 299834 0 -2.41643e+06 309964 0 -2.43898e+06 320246 0 -2.46242e+06 330686 0 -2.48677e+06 341290 0 -2.51207e+06 352062 0 -2.53835e+06 363004 0 -2.56565e+06 374117 0 -2.59401e+06 385400 0 -2.62349e+06 396846 0 -2.65414e+06 408446 0 -2.68601e+06 420185 0 -2.71918e+06 432041 0 -2.75371e+06 443981 0 -2.78968e+06 455966 0 -2.8272e+06 467937 0 -2.86635e+06 479823 0 -2.90725e+06 491528 0 -2.95001e+06 502929 0 -2.99479e+06 513868 0 -3.04171e+06 524143 0 -3.09094e+06 533497 0 -3.14263e+06 541604 0 -3.19693e+06 548054 0 -3.25399e+06 552328 0 -3.3139e+06 553780 0 -3.37668e+06 551610 0 -3.44224e+06 544843 0 -3.51028e+06 532315 0 -3.58019e+06 512688 0 -3.65094e+06 484499 0 -3.72091e+06 446290 0 -3.78781e+06 396844 0 -3.84859e+06 335528 0 -3.89964e+06 262715 0 -3.93727e+06 180156 0 -3.95835e+06 91109.8 0 -3.96111e+06 -7.45058e-07 0 -2.07407e+06 66641.3 0 -2.07895e+06 75447.1 0 -2.08437e+06 84225.8 0 -2.09034e+06 92982.4 0 -2.09686e+06 101723 0 -2.10394e+06 110453 0 -2.11158e+06 119179 0 -2.11978e+06 127907 0 -2.12857e+06 136643 0 -2.13793e+06 145393 0 -2.14788e+06 154164 0 -2.15843e+06 162963 0 -2.16958e+06 171795 0 -2.18134e+06 180668 0 -2.19373e+06 189589 0 -2.20674e+06 198565 0 -2.2204e+06 207603 0 -2.23471e+06 216711 0 -2.24968e+06 225896 0 -2.26534e+06 235167 0 -2.28168e+06 244530 0 -2.29873e+06 253995 0 -2.31651e+06 263569 0 -2.33503e+06 273260 0 -2.35431e+06 283077 0 -2.37436e+06 293028 0 -2.39522e+06 303121 0 -2.4169e+06 313364 0 -2.43944e+06 323764 0 -2.46285e+06 334327 0 -2.48717e+06 345059 0 -2.51244e+06 355965 0 -2.53868e+06 367048 0 -2.56594e+06 378309 0 -2.59427e+06 389747 0 -2.62371e+06 401356 0 -2.65431e+06 413128 0 -2.68614e+06 425048 0 -2.71926e+06 437095 0 -2.75375e+06 449239 0 -2.78969e+06 461439 0 -2.82717e+06 473640 0 -2.8663e+06 485771 0 -2.90718e+06 497739 0 -2.94995e+06 509421 0 -2.99475e+06 520662 0 -3.04172e+06 531262 0 -3.09104e+06 540966 0 -3.14286e+06 549450 0 -3.19736e+06 556301 0 -3.25469e+06 561000 0 -3.31498e+06 562895 0 -3.37826e+06 561175 0 -3.44448e+06 554845 0 -3.51336e+06 542711 0 -3.58434e+06 523381 0 -3.65639e+06 495322 0 -3.72792e+06 456981 0 -3.79656e+06 407025 0 -3.85919e+06 344704 0 -3.91204e+06 270313 0 -3.95116e+06 185605 0 -3.97319e+06 93953.5 0 -3.97622e+06 4.17233e-07 0 -2.07399e+06 68297.7 0 -2.07892e+06 77130.1 0 -2.08439e+06 85938.1 0 -2.09041e+06 94726.5 0 -2.09698e+06 103501 0 -2.1041e+06 112269 0 -2.11179e+06 121035 0 -2.12004e+06 129805 0 -2.12886e+06 138587 0 -2.13826e+06 147385 0 -2.14824e+06 156207 0 -2.15882e+06 165059 0 -2.17e+06 173948 0 -2.18178e+06 182881 0 -2.19419e+06 191865 0 -2.20722e+06 200907 0 -2.22089e+06 210014 0 -2.23522e+06 219194 0 -2.2502e+06 228455 0 -2.26586e+06 237805 0 -2.28221e+06 247251 0 -2.29927e+06 256802 0 -2.31704e+06 266467 0 -2.33555e+06 276253 0 -2.35482e+06 286169 0 -2.37486e+06 296223 0 -2.39571e+06 306423 0 -2.41737e+06 316778 0 -2.43988e+06 327295 0 -2.46327e+06 337981 0 -2.48756e+06 348842 0 -2.51279e+06 359882 0 -2.539e+06 371106 0 -2.56623e+06 382515 0 -2.59451e+06 394108 0 -2.62391e+06 405881 0 -2.65447e+06 417825 0 -2.68625e+06 429926 0 -2.71933e+06 442166 0 -2.75378e+06 454513 0 -2.78968e+06 466930 0 -2.82712e+06 479363 0 -2.86622e+06 491741 0 -2.90709e+06 503974 0 -2.94986e+06 515941 0 -2.99468e+06 527488 0 -3.0417e+06 538419 0 -3.09109e+06 548480 0 -3.14305e+06 557347 0 -3.19774e+06 564611 0 -3.25535e+06 569749 0 -3.31601e+06 572104 0 -3.3798e+06 570855 0 -3.44668e+06 564989 0 -3.51642e+06 553278 0 -3.58848e+06 534281 0 -3.66187e+06 506390 0 -3.735e+06 467952 0 -3.80547e+06 417511 0 -3.87004e+06 354191 0 -3.92477e+06 278196 0 -3.96547e+06 191273 0 -3.98853e+06 96915.8 0 -3.99185e+06 -2.98023e-07 0 -2.07391e+06 69966.8 0 -2.0789e+06 78826 0 -2.08442e+06 87663.3 0 -2.09049e+06 96483.7 0 -2.09711e+06 105293 0 -2.10428e+06 114098 0 -2.112e+06 122904 0 -2.12029e+06 131717 0 -2.12915e+06 140544 0 -2.13859e+06 149391 0 -2.1486e+06 158264 0 -2.15921e+06 167170 0 -2.17041e+06 176116 0 -2.18222e+06 185108 0 -2.19465e+06 194155 0 -2.2077e+06 203263 0 -2.22139e+06 212439 0 -2.23573e+06 221692 0 -2.25072e+06 231028 0 -2.26639e+06 240457 0 -2.28274e+06 249986 0 -2.29979e+06 259624 0 -2.31756e+06 269379 0 -2.33607e+06 279260 0 -2.35533e+06 289274 0 -2.37536e+06 299431 0 -2.39618e+06 309739 0 -2.41783e+06 320207 0 -2.44031e+06 330841 0 -2.46367e+06 341650 0 -2.48794e+06 352639 0 -2.51314e+06 363814 0 -2.53931e+06 375179 0 -2.56649e+06 386735 0 -2.59474e+06 398484 0 -2.62409e+06 410420 0 -2.6546e+06 422536 0 -2.68634e+06 434821 0 -2.71938e+06 447253 0 -2.75378e+06 459805 0 -2.78964e+06 472440 0 -2.82704e+06 485106 0 -2.86611e+06 497733 0 -2.90696e+06 510233 0 -2.94973e+06 522488 0 -2.99457e+06 534346 0 -3.04163e+06 545613 0 -3.09111e+06 556037 0 -3.14319e+06 565298 0 -3.19808e+06 572984 0 -3.25596e+06 578575 0 -3.31699e+06 581408 0 -3.38128e+06 580652 0 -3.44883e+06 575276 0 -3.51944e+06 564020 0 -3.59261e+06 545393 0 -3.66738e+06 517710 0 -3.74216e+06 479214 0 -3.81452e+06 428316 0 -3.88113e+06 364006 0 -3.93784e+06 286380 0 -3.98023e+06 197176 0 -4.00439e+06 100005 0 -4.00803e+06 -2.98023e-08 0 -2.07384e+06 71648.6 0 -2.07888e+06 80534.7 0 -2.08446e+06 89401.5 0 -2.09058e+06 98254 0 -2.09724e+06 107098 0 -2.10446e+06 115941 0 -2.11223e+06 124787 0 -2.12055e+06 133643 0 -2.12945e+06 142515 0 -2.13892e+06 151410 0 -2.14897e+06 160334 0 -2.1596e+06 169294 0 -2.17083e+06 178297 0 -2.18267e+06 187349 0 -2.19511e+06 196459 0 -2.20818e+06 205633 0 -2.22188e+06 214878 0 -2.23623e+06 224203 0 -2.25123e+06 233616 0 -2.26691e+06 243124 0 -2.28326e+06 252736 0 -2.30031e+06 262460 0 -2.31808e+06 272306 0 -2.33658e+06 282281 0 -2.35582e+06 292394 0 -2.37584e+06 302654 0 -2.39665e+06 313070 0 -2.41827e+06 323649 0 -2.44074e+06 334401 0 -2.46407e+06 345332 0 -2.4883e+06 356450 0 -2.51346e+06 367759 0 -2.5396e+06 379265 0 -2.56674e+06 390970 0 -2.59495e+06 402874 0 -2.62425e+06 414974 0 -2.65472e+06 427264 0 -2.68641e+06 439730 0 -2.7194e+06 452356 0 -2.75375e+06 465115 0 -2.78957e+06 477969 0 -2.82694e+06 490868 0 -2.86598e+06 503747 0 -2.90681e+06 516517 0 -2.94957e+06 529063 0 -2.99442e+06 541236 0 -3.04153e+06 552844 0 -3.09108e+06 563639 0 -3.14329e+06 573301 0 -3.19837e+06 581421 0 -3.25651e+06 587478 0 -3.31792e+06 590807 0 -3.38272e+06 590567 0 -3.45094e+06 585708 0 -3.52243e+06 574941 0 -3.59672e+06 556722 0 -3.6729e+06 529290 0 -3.74938e+06 490777 0 -3.82371e+06 439456 0 -3.89245e+06 374165 0 -3.95127e+06 294884 0 -3.99545e+06 203327 0 -4.02079e+06 103230 0 -4.02478e+06 5.96046e-08 0 -2.07378e+06 73343.1 0 -2.07887e+06 82256.3 0 -2.0845e+06 91152.7 0 -2.09067e+06 100038 0 -2.09738e+06 108917 0 -2.10464e+06 117796 0 -2.11245e+06 126683 0 -2.12082e+06 135582 0 -2.12975e+06 144499 0 -2.13925e+06 153443 0 -2.14933e+06 162418 0 -2.16e+06 171432 0 -2.17125e+06 180492 0 -2.18311e+06 189604 0 -2.19557e+06 198777 0 -2.20866e+06 208017 0 -2.22238e+06 217331 0 -2.23673e+06 226729 0 -2.25175e+06 236217 0 -2.26742e+06 245805 0 -2.28378e+06 255500 0 -2.30083e+06 265311 0 -2.31859e+06 275247 0 -2.33708e+06 285316 0 -2.35632e+06 295528 0 -2.37632e+06 305891 0 -2.39711e+06 316414 0 -2.41871e+06 327106 0 -2.44115e+06 337975 0 -2.46445e+06 349029 0 -2.48865e+06 360275 0 -2.51378e+06 371719 0 -2.53988e+06 383366 0 -2.56698e+06 395219 0 -2.59514e+06 407279 0 -2.6244e+06 419543 0 -2.65482e+06 432006 0 -2.68646e+06 444656 0 -2.7194e+06 457476 0 -2.75371e+06 470441 0 -2.78948e+06 483515 0 -2.82681e+06 496651 0 -2.86581e+06 509782 0 -2.90662e+06 522825 0 -2.94937e+06 535665 0 -2.99423e+06 548158 0 -3.04138e+06 560112 0 -3.09101e+06 571284 0 -3.14335e+06 581356 0 -3.1986e+06 589922 0 -3.25702e+06 596460 0 -3.31879e+06 600303 0 -3.3841e+06 600601 0 -3.453e+06 596289 0 -3.52537e+06 586044 0 -3.60082e+06 568275 0 -3.67844e+06 541139 0 -3.75668e+06 502654 0 -3.83306e+06 450945 0 -3.90403e+06 384687 0 -3.96507e+06 303727 0 -4.01115e+06 209744 0 -4.03775e+06 106602 0 -4.04212e+06 0 0 -2.07372e+06 75050.3 0 -2.07887e+06 83990.7 0 -2.08455e+06 92917 0 -2.09077e+06 101834 0 -2.09753e+06 110748 0 -2.10483e+06 119666 0 -2.11268e+06 128592 0 -2.12109e+06 137534 0 -2.13005e+06 146498 0 -2.13959e+06 155490 0 -2.1497e+06 164516 0 -2.16039e+06 173585 0 -2.17167e+06 182701 0 -2.18355e+06 191874 0 -2.19604e+06 201109 0 -2.20914e+06 210415 0 -2.22287e+06 219799 0 -2.23724e+06 229269 0 -2.25225e+06 238833 0 -2.26793e+06 248500 0 -2.28429e+06 258278 0 -2.30134e+06 268176 0 -2.3191e+06 278202 0 -2.33758e+06 288365 0 -2.3568e+06 298676 0 -2.37679e+06 309142 0 -2.39756e+06 319772 0 -2.41914e+06 330577 0 -2.44155e+06 341563 0 -2.46482e+06 352740 0 -2.48899e+06 364114 0 -2.51408e+06 375693 0 -2.54014e+06 387481 0 -2.5672e+06 399483 0 -2.59531e+06 411698 0 -2.62453e+06 424127 0 -2.6549e+06 436763 0 -2.68649e+06 449597 0 -2.71938e+06 462612 0 -2.75363e+06 475785 0 -2.78936e+06 489081 0 -2.82665e+06 502453 0 -2.86562e+06 515840 0 -2.9064e+06 529157 0 -2.94914e+06 542295 0 -2.99401e+06 555111 0 -3.04119e+06 567418 0 -3.0909e+06 578973 0 -3.14335e+06 589465 0 -3.19879e+06 598488 0 -3.25746e+06 605521 0 -3.31961e+06 609896 0 -3.38542e+06 610756 0 -3.455e+06 607019 0 -3.52827e+06 597334 0 -3.60488e+06 580057 0 -3.68398e+06 553265 0 -3.76403e+06 514856 0 -3.84254e+06 462799 0 -3.91585e+06 395592 0 -3.97923e+06 312930 0 -4.02735e+06 216446 0 -4.0553e+06 110130 0 -4.06008e+06 -1.19209e-07 0 -2.07367e+06 76770.3 0 -2.07888e+06 85738.1 0 -2.08461e+06 94694.3 0 -2.09088e+06 103644 0 -2.09768e+06 112593 0 -2.10502e+06 121549 0 -2.11292e+06 130516 0 -2.12136e+06 139501 0 -2.13036e+06 148510 0 -2.13993e+06 157550 0 -2.15007e+06 166628 0 -2.16079e+06 175751 0 -2.17209e+06 184925 0 -2.18399e+06 194157 0 -2.1965e+06 203455 0 -2.20961e+06 212827 0 -2.22336e+06 222281 0 -2.23773e+06 231823 0 -2.25276e+06 241463 0 -2.26844e+06 251210 0 -2.2848e+06 261070 0 -2.30185e+06 271054 0 -2.3196e+06 281171 0 -2.33807e+06 291429 0 -2.35728e+06 301838 0 -2.37725e+06 312407 0 -2.398e+06 323145 0 -2.41955e+06 334061 0 -2.44194e+06 345165 0 -2.46518e+06 356465 0 -2.48931e+06 367968 0 -2.51437e+06 379681 0 -2.54038e+06 391611 0 -2.5674e+06 403760 0 -2.59547e+06 416132 0 -2.62463e+06 428726 0 -2.65495e+06 441536 0 -2.6865e+06 454554 0 -2.71933e+06 467765 0 -2.75354e+06 481145 0 -2.78921e+06 494664 0 -2.82646e+06 508275 0 -2.86539e+06 521919 0 -2.90614e+06 535514 0 -2.94887e+06 548953 0 -2.99375e+06 562096 0 -3.04097e+06 574760 0 -3.09074e+06 586707 0 -3.1433e+06 597627 0 -3.19892e+06 607118 0 -3.25785e+06 614661 0 -3.32036e+06 619587 0 -3.38668e+06 621033 0 -3.45694e+06 617902 0 -3.53112e+06 608814 0 -3.60891e+06 592074 0 -3.68952e+06 565676 0 -3.77144e+06 527396 0 -3.85215e+06 475036 0 -3.92792e+06 406900 0 -3.99379e+06 322516 0 -4.04406e+06 223451 0 -4.07347e+06 113826 0 -4.0787e+06 -5.96046e-08 0 -2.07364e+06 78503.1 0 -2.07889e+06 87498.4 0 -2.08467e+06 96484.7 0 -2.09099e+06 105467 0 -2.09784e+06 114452 0 -2.10522e+06 123445 0 -2.11315e+06 132452 0 -2.12163e+06 141480 0 -2.13067e+06 150536 0 -2.14027e+06 159625 0 -2.15044e+06 168754 0 -2.16118e+06 177931 0 -2.17251e+06 187162 0 -2.18443e+06 196454 0 -2.19696e+06 205816 0 -2.21009e+06 215254 0 -2.22384e+06 224777 0 -2.23823e+06 234392 0 -2.25326e+06 244108 0 -2.26895e+06 253933 0 -2.2853e+06 263877 0 -2.30235e+06 273947 0 -2.32009e+06 284154 0 -2.33855e+06 294507 0 -2.35775e+06 305014 0 -2.3777e+06 315686 0 -2.39843e+06 326532 0 -2.41996e+06 337560 0 -2.44231e+06 348781 0 -2.46553e+06 360204 0 -2.48962e+06 371835 0 -2.51464e+06 383683 0 -2.54062e+06 395754 0 -2.56759e+06 408052 0 -2.59561e+06 420581 0 -2.62472e+06 433339 0 -2.65499e+06 446323 0 -2.68648e+06 459526 0 -2.71926e+06 472933 0 -2.75342e+06 486523 0 -2.78904e+06 500266 0 -2.82624e+06 514118 0 -2.86513e+06 528020 0 -2.90585e+06 541895 0 -2.94857e+06 555639 0 -2.99345e+06 569113 0 -3.04069e+06 582140 0 -3.09053e+06 594485 0 -3.1432e+06 605842 0 -3.19899e+06 615813 0 -3.25818e+06 623881 0 -3.32105e+06 629376 0 -3.38787e+06 631433 0 -3.45881e+06 628938 0 -3.53391e+06 620486 0 -3.6129e+06 604330 0 -3.69505e+06 578381 0 -3.77889e+06 540286 0 -3.8619e+06 487672 0 -3.94025e+06 418634 0 -4.00873e+06 332507 0 -4.06132e+06 230780 0 -4.09229e+06 117703 0 -4.09801e+06 3.57628e-07 0 -2.0736e+06 80248.6 0 -2.07891e+06 89271.6 0 -2.08474e+06 98288.2 0 -2.0911e+06 107303 0 -2.098e+06 116323 0 -2.10543e+06 125354 0 -2.1134e+06 134403 0 -2.12191e+06 143474 0 -2.13099e+06 152575 0 -2.14062e+06 161713 0 -2.15081e+06 170894 0 -2.16158e+06 180125 0 -2.17293e+06 189413 0 -2.18488e+06 198766 0 -2.19741e+06 208190 0 -2.21056e+06 217695 0 -2.22433e+06 227287 0 -2.23872e+06 236974 0 -2.25376e+06 246766 0 -2.26945e+06 256671 0 -2.2858e+06 266698 0 -2.30284e+06 276855 0 -2.32058e+06 287152 0 -2.33902e+06 297599 0 -2.35821e+06 308205 0 -2.37814e+06 318979 0 -2.39885e+06 329932 0 -2.42035e+06 341073 0 -2.44268e+06 352412 0 -2.46586e+06 363957 0 -2.48992e+06 375717 0 -2.5149e+06 387700 0 -2.54083e+06 399912 0 -2.56776e+06 412359 0 -2.59573e+06 425044 0 -2.62479e+06 437967 0 -2.65501e+06 451126 0 -2.68644e+06 464514 0 -2.71917e+06 478118 0 -2.75327e+06 491918 0 -2.78884e+06 505886 0 -2.82599e+06 519979 0 -2.86484e+06 534143 0 -2.90553e+06 548300 0 -2.94822e+06 562351 0 -2.9931e+06 576162 0 -3.04037e+06 589557 0 -3.09027e+06 602307 0 -3.14305e+06 614109 0 -3.19901e+06 624572 0 -3.25844e+06 633180 0 -3.32167e+06 639265 0 -3.38899e+06 641957 0 -3.46062e+06 640132 0 -3.53663e+06 632355 0 -3.61684e+06 616832 0 -3.70057e+06 591388 0 -3.78639e+06 553540 0 -3.87178e+06 500726 0 -3.95282e+06 430816 0 -4.02408e+06 342931 0 -4.07913e+06 238458 0 -4.11178e+06 121776 0 -4.11805e+06 -6.55651e-07 0 -2.07358e+06 82007 0 -2.07894e+06 91057.8 0 -2.08482e+06 100105 0 -2.09123e+06 109153 0 -2.09816e+06 118209 0 -2.10563e+06 127278 0 