<?xml version="1.0"?> 
<VTKFile type="StructuredGrid" version="0.1"> 
<StructuredGrid WholeExtent="0 63 0 63 0 0"> 
<Piece Extent="0 63 0 63 0 0"> 
<PointData>
<DataArray type="Float32" Name="|E|" format="ascii" NumberOfComponents="3"> 
-2.13162e+06 0 0 -2.13199e+06 2.79653e-05 0 -2.13308e+06 5.60161e-05 0 -2.13489e+06 8.42491e-05 0 -2.13743e+06 0.000112702 0 -2.14069e+06 0.000141461 0 -2.14469e+06 0.000170611 0 -2.14942e+06 0.000200265 0 -2.15489e+06 0.000230419 0 -2.1611e+06 0.000261155 0 -2.16806e+06 0.000292595 0 -2.17577e+06 0.000324792 0 -2.18425e+06 0.000357713 0 -2.1935e+06 0.000391662 0 -2.20352e+06 0.000426142 0 -2.21434e+06 0.000461783 0 -2.22595e+06 0.000498086 0 -2.23837e+06 0.000535138 0 -2.25162e+06 0.000573054 0 -2.26569e+06 0.000611693 0 -2.28062e+06 0.000650525 0 -2.29641e+06 0.000689737 0 -2.31307e+06 0.000728413 0 -2.33063e+06 0.000766821 0 -2.3491e+06 0.000803813 0 -2.3685e+06 0.000838846 0 -2.38885e+06 0.000871032 0 -2.41016e+06 0.000898927 0 -2.43246e+06 0.000920877 0 -2.45577e+06 0.000935093 0 -2.48011e+06 0.000939623 0 -2.50551e+06 0.000930533 0 -2.53197e+06 0.000904441 0 -2.55953e+06 0.000856459 0 -2.5882e+06 0.000782102 0 -2.61801e+06 0.000673562 0 -2.64897e+06 0.000521988 0 -2.68109e+06 0.000320286 0 -2.71438e+06 5.30481e-05 0 -2.74885e+06 -0.000290513 0 -2.7845e+06 -0.00072813 0 -2.82131e+06 -0.00127733 0 -2.85926e+06 -0.00195765 0 -2.89831e+06 -0.00279254 0 -2.93841e+06 -0.00380468 0 -2.97948e+06 -0.00501633 0 -3.02142e+06 -0.00644869 0 -3.06411e+06 -0.00811499 0 -3.10737e+06 -0.0100216 0 -3.15099e+06 -0.0121567 0 -3.19472e+06 -0.014488 0 -3.23827e+06 -0.0169543 0 -3.28125e+06 -0.0194548 0 -3.32327e+06 -0.0218506 0 -3.36384e+06 -0.0239549 0 -3.40244e+06 -0.025545 0 -3.4385e+06 -0.0263747 0 -3.47143e+06 -0.0262002 0 -3.50062e+06 -0.0248173 0 -3.52547e+06 -0.0221009 0 -3.54546e+06 -0.0180478 0 -3.56012e+06 -0.0127983 0 -3.56908e+06 -0.00664353 0 -3.57213e+06 -2.38419e-06 0 -2.13161e+06 0 0 -2.13198e+06 96.3327 0 -2.13307e+06 192.751 0 -2.13488e+06 289.341 0 -2.13742e+06 386.19 0 -2.14069e+06 483.384 0 -2.14468e+06 581.011 0 -2.14941e+06 679.161 0 -2.15488e+06 777.925 0 -2.16109e+06 877.395 0 -2.16805e+06 977.666 0 -2.17577e+06 1078.83 0 -2.18424e+06 1181 0 -2.19349e+06 1284.26 0 -2.20352e+06 1388.72 0 -2.21433e+06 1494.48 0 -2.22594e+06 1601.66 0 -2.23837e+06 1710.37 0 -2.25161e+06 1820.72 0 -2.26569e+06 1932.82 0 -2.28061e+06 2046.8 0 -2.2964e+06 2162.77 0 -2.31306e+06 2280.86 0 -2.33062e+06 2401.17 0 -2.34909e+06 2523.84 0 -2.36849e+06 2648.97 0 -2.38884e+06 2776.67 0 -2.41015e+06 2907.04 0 -2.43245e+06 3040.16 0 -2.45576e+06 3176.1 0 -2.4801e+06 3314.9 0 -2.5055e+06 3456.58 0 -2.53196e+06 3601.11 0 -2.55952e+06 3748.4 0 -2.58819e+06 3898.32 0 -2.618e+06 4050.62 0 -2.64896e+06 4204.97 0 -2.68108e+06 4360.91 0 -2.71437e+06 4517.82 0 -2.74884e+06 4674.87 0 -2.78449e+06 4831.01 0 -2.8213e+06 4984.89 0 -2.85925e+06 5134.82 0 -2.8983e+06 5278.72 0 -2.9384e+06 5414.02 0 -2.97947e+06 5537.61 0 -3.02142e+06 5645.77 0 -3.0641e+06 5734.12 0 -3.10736e+06 5797.54 0 -3.15099e+06 5830.2 0 -3.19473e+06 5825.56 0 -3.23827e+06 5776.5 0 -3.28126e+06 5675.47 0 -3.32328e+06 5514.85 0 -3.36386e+06 5287.35 0 -3.40246e+06 4986.57 0 -3.43853e+06 4607.69 0 -3.47146e+06 4148.24 0 -3.50065e+06 3608.79 0 -3.52552e+06 2993.62 0 -3.54551e+06 2311.04 0 -3.56017e+06 1573.44 0 -3.56914e+06 796.841 0 -3.57218e+06 1.0021e-06 0 -2.1316e+06 0 0 -2.13196e+06 192.664 0 -2.13305e+06 385.499 0 -2.13486e+06 578.678 0 -2.1374e+06 772.373 0 -2.14067e+06 966.759 0 -2.14466e+06 1162.01 0 -2.14939e+06 1358.31 0 -2.15486e+06 1555.84 0 -2.16107e+06 1754.78 0 -2.16803e+06 1955.32 0 -2.17575e+06 2157.65 0 -2.18422e+06 2361.97 0 -2.19347e+06 2568.49 0 -2.2035e+06 2777.41 0 -2.21431e+06 2988.94 0 -2.22592e+06 3203.3 0 -2.23834e+06 3420.71 0 -2.25159e+06 3641.4 0 -2.26566e+06 3865.61 0 -2.28059e+06 4093.56 0 -2.29638e+06 4325.51 0 -2.31304e+06 4561.67 0 -2.3306e+06 4802.3 0 -2.34907e+06 5047.64 0 -2.36847e+06 5297.89 0 -2.38881e+06 5553.29 0 -2.41012e+06 5814.02 0 -2.43243e+06 6080.26 0 -2.45574e+06 6352.14 0 -2.48008e+06 6629.75 0 -2.50547e+06 6913.11 0 -2.53193e+06 7202.17 0 -2.55949e+06 7496.76 0 -2.58816e+06 7796.59 0 -2.61797e+06 8101.2 0 -2.64893e+06 8409.91 0 -2.68105e+06 8721.81 0 -2.71434e+06 9035.64 0 -2.74881e+06 9349.76 0 -2.78446e+06 9662.06 0 -2.82127e+06 9969.85 0 -2.85922e+06 10269.8 0 -2.89827e+06 10557.6 0 -2.93837e+06 10828.2 0 -2.97945e+06 11075.5 0 -3.0214e+06 11291.9 0 -3.06409e+06 11468.7 0 -3.10735e+06 11595.6 0 -3.15099e+06 11661.1 0 -3.19473e+06 11651.9 0 -3.23829e+06 11553.9 0 -3.28129e+06 11352 0 -3.32332e+06 11030.9 0 -3.36391e+06 10576 0 -3.40253e+06 9974.53 0 -3.43861e+06 9216.82 0 -3.47156e+06 8297.91 0 -3.50077e+06 7218.94 0 -3.52565e+06 5988.44 0 -3.54565e+06 4623.06 0 -3.56032e+06 3147.58 0 -3.56929e+06 1594.04 0 -3.57234e+06 -6.10948e-07 0 -2.13156e+06 0 0 -2.13193e+06 288.992 0 -2.13302e+06 578.241 0 -2.13483e+06 868.006 0 -2.13737e+06 1158.54 0 -2.14063e+06 1450.12 0 -2.14463e+06 1743 0 -2.14936e+06 2037.44 0 -2.15483e+06 2333.72 0 -2.16104e+06 2632.13 0 -2.168e+06 2932.93 0 -2.17571e+06 3236.43 0 -2.18419e+06 3542.91 0 -2.19343e+06 3852.68 0 -2.20346e+06 4166.05 0 -2.21427e+06 4483.34 0 -2.22589e+06 4804.88 0 -2.23831e+06 5130.99 0 -2.25155e+06 5462.03 0 -2.26563e+06 5798.33 0 -2.28055e+06 6140.26 0 -2.29634e+06 6488.16 0 -2.313e+06 6842.41 0 -2.33056e+06 7203.35 0 -2.34903e+06 7571.34 0 -2.36842e+06 7946.72 0 -2.38877e+06 8329.81 0 -2.41008e+06 8720.91 0 -2.43238e+06 9120.27 0 -2.45569e+06 9528.09 0 -2.48003e+06 9944.5 0 -2.50542e+06 10369.5 0 -2.53188e+06 10803.1 0 -2.55944e+06 11245 0 -2.58811e+06 11694.8 0 -2.61792e+06 12151.7 0 -2.64888e+06 12614.8 0 -2.68099e+06 13082.7 0 -2.71429e+06 13553.5 0 -2.74876e+06 14024.7 0 -2.78441e+06 14493.2 0 -2.82122e+06 14954.9 0 -2.85917e+06 15404.9 0 -2.89822e+06 15836.8 0 -2.93833e+06 16242.9 0 -2.97941e+06 16613.9 0 -3.02136e+06 16938.7 0 -3.06406e+06 17204.1 0 -3.10734e+06 17394.8 0 -3.15098e+06 17493.3 0 -3.19474e+06 17479.9 0 -3.23831e+06 17333.2 0 -3.28133e+06 17030.7 0 -3.32339e+06 16549.4 0 -3.364e+06 15867.3 0 -3.40264e+06 14965.3 0 -3.43875e+06 13828.9 0 -3.47173e+06 12450.5 0 -3.50096e+06 10831.8 0 -3.52587e+06 8985.7 0 -3.54589e+06 6937.07 0 -3.56058e+06 4723.13 0 -3.56956e+06 2391.98 0 -3.57261e+06 1.56462e-07 0 -2.13152e+06 0 0 -2.13188e+06 385.316 0 -2.13297e+06 770.974 0 -2.13479e+06 1157.32 0 -2.13732e+06 1544.7 0 -2.14059e+06 1933.46 0 -2.14458e+06 2323.95 0 -2.14931e+06 2716.53 0 -2.15478e+06 3111.57 0 -2.16099e+06 3509.44 0 -2.16795e+06 3910.5 0 -2.17566e+06 4315.16 0 -2.18414e+06 4723.79 0 -2.19339e+06 5136.81 0 -2.20341e+06 5554.63 0 -2.21422e+06 5977.67 0 -2.22584e+06 6406.38 0 -2.23826e+06 6841.19 0 -2.2515e+06 7282.56 0 -2.26557e+06 7730.95 0 -2.2805e+06 8186.84 0 -2.29628e+06 8650.71 0 -2.31294e+06 9123.03 0 -2.3305e+06 9604.27 0 -2.34897e+06 10094.9 0 -2.36836e+06 10595.4 0 -2.38871e+06 11106.2 0 -2.41002e+06 11627.7 0 -2.43232e+06 12160.1 0 -2.45563e+06 12703.9 0 -2.47996e+06 13259.1 0 -2.50535e+06 13825.8 0 -2.53182e+06 14403.9 0 -2.55937e+06 14993.1 0 -2.58804e+06 15592.8 0 -2.61785e+06 16202.1 0 -2.6488e+06 16819.6 0 -2.68092e+06 17443.5 0 -2.71421e+06 18071.3 0 -2.74869e+06 18699.6 0 -2.78433e+06 19324.4 0 -2.82114e+06 19940.3 0 -2.8591e+06 20540.4 0 -2.89816e+06 21116.4 0 -2.93827e+06 21658.2 0 -2.97935e+06 22153.2 0 -3.02132e+06 22586.6 0 -3.06403e+06 22940.9 0 -3.10731e+06 23195.7 0 -3.15097e+06 23327.5 0 -3.19475e+06 23310.2 0 -3.23834e+06 23115.3 0 -3.28139e+06 22712.5 0 -3.32348e+06 22071.4 0 -3.36412e+06 21162.5 0 -3.4028e+06 19960.3 0 -3.43895e+06 18445.2 0 -3.47196e+06 16607.3 0 -3.50123e+06 14448.8 0 -3.52617e+06 11986.6 0 -3.54622e+06 9254.05 0 -3.56093e+06 6300.78 0 -3.56993e+06 3191.01 0 -3.57298e+06 4.61936e-07 0 -2.13146e+06 0 0 -2.13183e+06 481.633 0 -2.13292e+06 963.695 0 -2.13473e+06 1446.61 0 -2.13727e+06 1930.83 0 -2.14053e+06 2416.76 0 -2.14453e+06 2904.87 0 -2.14925e+06 3395.59 0 -2.15472e+06 3889.37 0 -2.16093e+06 4386.69 0 -2.16789e+06 4888.01 0 -2.1756e+06 5393.81 0 -2.18408e+06 5904.59 0 -2.19332e+06 6420.85 0 -2.20335e+06 6943.11 0 -2.21416e+06 7471.9 0 -2.22577e+06 8007.77 0 -2.23819e+06 8551.26 0 -2.25143e+06 9102.96 0 -2.26551e+06 9663.44 0 -2.28043e+06 10233.3 0 -2.29621e+06 10813.1 0 -2.31287e+06 11403.5 0 -2.33043e+06 12005 0 -2.34889e+06 12618.3 0 -2.36829e+06 13243.9 0 -2.38863e+06 13882.4 0 -2.40994e+06 14534.2 0 -2.43224e+06 15199.8 0 -2.45554e+06 15879.5 0 -2.47988e+06 16573.5 0 -2.50527e+06 17281.9 0 -2.53173e+06 18004.6 0 -2.55928e+06 18741.1 0 -2.58795e+06 19490.7 0 -2.61776e+06 20252.3 0 -2.64871e+06 21024.3 0 -2.68083e+06 21804.2 0 -2.71412e+06 22589 0 -2.74859e+06 23374.7 0 -2.78424e+06 24155.8 0 -2.82105e+06 24925.8 0 -2.85901e+06 25676.3 0 -2.89807e+06 26396.7 0 -2.93819e+06 27074.3 0 -2.97928e+06 27693.5 0 -3.02126e+06 28235.9 0 -3.06398e+06 28679.5 0 -3.10728e+06 28998.7 0 -3.15096e+06 29164.3 0 -3.19477e+06 29143.7 0 -3.23839e+06 28901.1 0 -3.28147e+06 28398.7 0 -3.32359e+06 27598.2 0 -3.36428e+06 26463 0 -3.40301e+06 24960.8 0 -3.4392e+06 23067.4 0 -3.47226e+06 20769.9 0 -3.50158e+06 18071.2 0 -3.52656e+06 14992.3 0 -3.54665e+06 11575 0 -3.56139e+06 7881.24 0 -3.5704e+06 3991.5 0 -3.57347e+06 2.98023e-08 0 -2.13139e+06 0 0 -2.13176e+06 577.943 0 -2.13285e+06 1156.4 0 -2.13466e+06 1735.89 0 -2.13719e+06 2316.92 0 -2.14046e+06 2900.03 0 -2.14445e+06 3485.74 0 -2.14918e+06 4074.58 0 -2.15465e+06 4667.11 0 -2.16086e+06 5263.87 0 -2.16782e+06 5865.44 0 -2.17553e+06 6472.38 0 -2.184e+06 7085.29 0 -2.19325e+06 7704.79 0 -2.20327e+06 8331.48 0 -2.21408e+06 8966.01 0 -2.22569e+06 9609.02 0 -2.23811e+06 10261.2 0 -2.25135e+06 10923.2 0 -2.26542e+06 11595.8 0 -2.28034e+06 12279.6 0 -2.29613e+06 12975.3 0 -2.31279e+06 13683.7 0 -2.33034e+06 14405.6 0 -2.3488e+06 15141.5 0 -2.3682e+06 15892.2 0 -2.38854e+06 16658.3 0 -2.40984e+06 17440.5 0 -2.43214e+06 18239.2 0 -2.45544e+06 19054.8 0 -2.47978e+06 19887.6 0 -2.50516e+06 20737.7 0 -2.53162e+06 21604.9 0 -2.55917e+06 22488.8 0 -2.58784e+06 23388.4 0 -2.61764e+06 24302.4 0 -2.6486e+06 25228.8 0 -2.68071e+06 26164.9 0 -2.71401e+06 27106.8 0 -2.74848e+06 28049.8 0 -2.78413e+06 28987.4 0 -2.82094e+06 29911.8 0 -2.8589e+06 30812.7 0 -2.89797e+06 31677.7 0 -2.93809e+06 32491.4 0 -2.9792e+06 33235.2 0 -3.02119e+06 33887 0 -3.06392e+06 34420.3 0 -3.10725e+06 34804.4 0 -3.15095e+06 35004.5 0 -3.19479e+06 34981.1 0 -3.23844e+06 34691.5 0 -3.28156e+06 34090.1 0 -3.32373e+06 33131 0 -3.36447e+06 31770 0 -3.40325e+06 29968.4 0 -3.43951e+06 27696.7 0 -3.47263e+06 24939.7 0 -3.50201e+06 21700.4 0 -3.52704e+06 18004.1 0 -3.54718e+06 13900.9 0 -3.56195e+06 9465.22 0 -3.57099e+06 4793.81 0 -3.57406e+06 -2.5332e-07 0 -2.13131e+06 0 0 -2.13167e+06 674.243 0 -2.13276e+06 1349.09 0 -2.13457e+06 2025.13 0 -2.13711e+06 2702.98 0 -2.14037e+06 3383.25 0 -2.14437e+06 4066.55 0 -2.1491e+06 4753.51 0 -2.15456e+06 5444.77 0 -2.16077e+06 6140.97 0 -2.16773e+06 6842.77 0 -2.17544e+06 7550.84 0 -2.18391e+06 8265.88 0 -2.19316e+06 8988.59 0 -2.20318e+06 9719.7 0 -2.21399e+06 10460 0 -2.2256e+06 11210.1 0 -2.23802e+06 11971 0 -2.25125e+06 12743.3 0 -2.26533e+06 13527.9 0 -2.28024e+06 14325.6 0 -2.29602e+06 15137.3 0 -2.31268e+06 15963.8 0 -2.33023e+06 16805.9 0 -2.3487e+06 17664.4 0 -2.36809e+06 18540.2 0 -2.38842e+06 19434 0 -2.40973e+06 20346.5 0 -2.43202e+06 21278.3 0 -2.45532e+06 22229.8 0 -2.47966e+06 23201.4 0 -2.50504e+06 24193.2 0 -2.53149e+06 25205 0 -2.55905e+06 26236.2 0 -2.58771e+06 27285.8 0 -2.61751e+06 28352.2 0 -2.64846e+06 29433.2 0 -2.68058e+06 30525.4 0 -2.71387e+06 31624.6 0 -2.74834e+06 32725 0 -2.78399e+06 33819.3 0 -2.82081e+06 34898.1 0 -2.85877e+06 35949.7 0 -2.89785e+06 36959.6 0 -2.93798e+06 37909.8 0 -2.9791e+06 38778.6 0 -3.0211e+06 39540.1 0 -3.06386e+06 40163.7 0 -3.1072e+06 40613.5 0 -3.15094e+06 40848.6 0 -3.19481e+06 40823.3 0 -3.23851e+06 40487.4 0 -3.28167e+06 39787.9 0 -3.3239e+06 38671 0 -3.3647e+06 37084.9 0 -3.40355e+06 34984.3 0 -3.43987e+06 32334.8 0 -3.47306e+06 29118.1 0 -3.50251e+06 25337.8 0 -3.5276e+06 21023.2 0 -3.5478e+06 16232.7 0 -3.56261e+06 11053.4 0 -3.57167e+06 5598.31 0 -3.57475e+06 2.38419e-07 0 -2.13121e+06 0 0 -2.13158e+06 770.533 0 -2.13267e+06 1541.75 0 -2.13448e+06 2314.34 0 -2.13701e+06 3089 0 -2.14028e+06 3866.42 0 -2.14427e+06 4647.3 0 -2.149e+06 5432.37 0 -2.15446e+06 6222.34 0 -2.16067e+06 7017.96 0 -2.16763e+06 7819.98 0 -2.17534e+06 8629.18 0 -2.18381e+06 9446.33 0 -2.19305e+06 10272.3 0 -2.20308e+06 11107.8 0 -2.21388e+06 11953.7 0 -2.22549e+06 12811 0 -2.23791e+06 13680.5 0 -2.25114e+06 14563.1 0 -2.26521e+06 15459.8 0 -2.28013e+06 16371.4 0 -2.29591e+06 17299 0 -2.31256e+06 18243.5 0 -2.33011e+06 19205.9 0 -2.34857e+06 20187 0 -2.36796e+06 21187.9 0 -2.3883e+06 22209.3 0 -2.4096e+06 23252.2 0 -2.43189e+06 24317 0 -2.45519e+06 25404.5 0 -2.47952e+06 26514.9 0 -2.5049e+06 27648.4 0 -2.53135e+06 28804.7 0 -2.5589e+06 29983.3 0 -2.58756e+06 31182.9 0 -2.61736e+06 32401.8 0 -2.64831e+06 33637.3 0 -2.68042e+06 34885.8 0 -2.71371e+06 36142.3 0 -2.74818e+06 37400.3 0 -2.78384e+06 38651.4 0 -2.82066e+06 39884.9 0 -2.85863e+06 41087.5 0 -2.89771e+06 42242.6 0 -2.93785e+06 43329.6 0 -2.97898e+06 44323.9 0 -3.021e+06 45195.7 0 -3.06378e+06 45910.2 0 -3.10715e+06 46426.3 0 -3.15092e+06 46697.4 0 -3.19483e+06 46671 0 -3.23858e+06 46289.8 0 -3.2818e+06 45493.2 0 -3.32409e+06 44219.3 0 -3.36496e+06 42409 0 -3.40389e+06 40010.1 0 -3.44029e+06 36983 0 -3.47356e+06 33306.6 0 -3.50309e+06 28984.7 0 -3.52826e+06 24050.8 0 -3.54851e+06 18571.5 0 -3.56337e+06 12646.6 0 -3.57247e+06 6405.38 0 -3.57556e+06 -3.27826e-07 0 -2.1311e+06 0 0 -2.13147e+06 866.811 0 -2.13256e+06 1734.39 0 -2.13437e+06 2603.52 0 -2.1369e+06 3474.97 0 -2.14017e+06 4349.52 0 -2.14416e+06 5227.98 0 -2.14889e+06 6111.14 0 -2.15435e+06 6999.82 0 -2.16056e+06 7894.84 0 -2.16751e+06 8797.07 0 -2.17522e+06 9707.37 0 -2.1837e+06 10626.6 0 -2.19294e+06 11555.7 0 -2.20296e+06 12495.6 0 -2.21376e+06 13447.3 0 -2.22537e+06 14411.7 0 -2.23778e+06 15389.8 0 -2.25102e+06 16382.7 0 -2.26508e+06 17391.4 0 -2.28e+06 18416.9 0 -2.29578e+06 19460.4 0 -2.31243e+06 20522.9 0 -2.32997e+06 21605.5 0 -2.34843e+06 22709.3 0 -2.36782e+06 23835.2 0 -2.38815e+06 24984.3 0 -2.40945e+06 26157.4 0 -2.43174e+06 27355.4 0 -2.45503e+06 28578.7 0 -2.47936e+06 29827.9 0 -2.50473e+06 31103.1 0 -2.53118e+06 32404 0 -2.55873e+06 33730 0 -2.58739e+06 35079.7 0 -2.61718e+06 36451.1 0 -2.64813e+06 37841.3 0 -2.68024e+06 39246.1 0 -2.71353e+06 40660 0 -2.74801e+06 42075.7 0 -2.78366e+06 43483.8 0 -2.82048e+06 44872.3 0 -2.85846e+06 46226.2 0 -2.89755e+06 47526.7 0 -2.9377e+06 48751 0 -2.97885e+06 49871.3 0 -3.02089e+06 50854.1 0 -3.06369e+06 51660.2 0 -3.1071e+06 52243.5 0 -3.1509e+06 52551.5 0 -3.19486e+06 52525 0 -3.23866e+06 52099.7 0 -3.28195e+06 51206.9 0 -3.32431e+06 49777.1 0 -3.36526e+06 47743.5 0 -3.40427e+06 45047 0 -3.44076e+06 41642.7 0 -3.47413e+06 37506.6 0 -3.50374e+06 32642.6 0 -3.529e+06 27088.2 0 -3.54932e+06 20918.3 0 -3.56424e+06 14245.4 0 -3.57337e+06 7215.39 0 -3.57647e+06 5.96046e-08 0 -2.13098e+06 0 0 -2.13135e+06 963.075 0 -2.13243e+06 1927.01 0 -2.13425e+06 2892.65 0 -2.13678e+06 3860.88 0 -2.14004e+06 4832.56 0 -2.14404e+06 5808.57 0 -2.14876e+06 6789.81 0 -2.15423e+06 7777.17 0 -2.16043e+06 8771.6 0 -2.16739e+06 9774.02 0 -2.17509e+06 10785.4 0 -2.18357e+06 11806.7 0 -2.19281e+06 12839 0 -2.20282e+06 13883.3 0 -2.21363e+06 14940.7 0 -2.22523e+06 16012.1 0 -2.23764e+06 17098.9 0 -2.25088e+06 18202 0 -2.26494e+06 19322.7 0 -2.27985e+06 20462.1 0 -2.29563e+06 21621.5 0 -2.31228e+06 22802 0 -2.32982e+06 24004.8 0 -2.34827e+06 25231.1 0 -2.36766e+06 26482.1 0 -2.38799e+06 27758.8 0 -2.40928e+06 29062.2 0 -2.43157e+06 30393.3 0 -2.45486e+06 31752.5 0 -2.47918e+06 33140.5 0 -2.50455e+06 34557.4 0 -2.531e+06 36002.9 0 -2.55854e+06 37476.3 0 -2.5872e+06 38976.1 0 -2.61699e+06 40500.1 0 -2.64793e+06 42045 0 -2.68004e+06 43606.2 0 -2.71333e+06 45177.7 0 -2.74781e+06 46751.3 0 -2.78346e+06 48316.6 0 -2.82029e+06 49860.3 0 -2.85827e+06 51365.8 0 -2.89737e+06 52812.3 0 -2.93754e+06 54174.3 0 -2.9787e+06 55421.1 0 -3.02076e+06 56515.7 0 -3.06359e+06 57414.2 0 -3.10703e+06 58065.6 0 -3.15088e+06 58411.5 0 -3.19489e+06 58386.2 0 -3.23875e+06 57917.8 0 -3.28211e+06 56930.2 0 -3.32455e+06 55345.8 0 -3.36559e+06 53089.9 0 -3.4047e+06 50096.6 0 -3.4413e+06 46315.5 0 -3.47476e+06 41719.6 0 -3.50448e+06 36312.8 0 -3.52983e+06 30136.5 0 -3.55023e+06 23274.1 0 -3.56521e+06 15850.5 0 -3.57438e+06 8028.72 0 -3.57749e+06 5.96046e-07 0 -2.13084e+06 0 0 -2.13121e+06 1059.32 0 -2.1323e+06 2119.59 0 -2.13411e+06 3181.74 0 -2.13665e+06 4246.73 0 -2.13991e+06 5315.52 0 -2.1439e+06 6389.07 0 -2.14862e+06 7468.37 0 -2.15409e+06 8554.41 0 -2.16029e+06 9648.21 0 -2.16724e+06 10750.8 0 -2.17495e+06 11863.3 0 -2.18342e+06 12986.7 0 -2.19266e+06 14122.1 0 -2.20268e+06 15270.8 0 -2.21348e+06 16433.8 0 -2.22508e+06 17612.3 0 -2.23749e+06 18807.6 0 -2.25072e+06 20021 0 -2.26478e+06 21253.7 0 -2.27969e+06 22507 0 -2.29546e+06 23782.2 0 -2.31211e+06 25080.7 0 -2.32965e+06 26403.7 0 -2.3481e+06 27752.6 0 -2.36748e+06 29128.6 0 -2.38781e+06 30532.9 0 -2.4091e+06 31966.6 0 -2.43138e+06 33430.6 0 -2.45466e+06 34925.8 0 -2.47898e+06 36452.6 0 -2.50435e+06 38011.2 0 -2.53079e+06 39601.3 0 -2.55833e+06 41222.1 0 -2.58699e+06 42872 0 -2.61677e+06 44548.6 0 -2.64772e+06 46248.3 0 -2.67983e+06 47966.1 0 -2.71311e+06 49695.3 0 -2.74759e+06 51427 0 -2.78324e+06 53149.7 0 -2.82008e+06 54849 0 -2.85806e+06 56506.4 0 -2.89717e+06 58099.3 0 -2.93735e+06 59599.7 0 -2.97853e+06 60973.7 0 -3.02062e+06 62180.7 0 -3.06348e+06 63172.5 0 -3.10696e+06 63893.1 0 -3.15086e+06 64278.1 0 -3.19492e+06 64255.1 0 -3.23885e+06 63745.2 0 -3.28229e+06 62664.1 0 -3.32481e+06 60926.4 0 -3.36595e+06 58449.4 0 -3.40517e+06 55160.2 0 -3.44188e+06 51002.9 0 -3.47547e+06 45947.1 0 -3.50529e+06 39996.7 0 -3.53074e+06 33197.2 0 -3.55124e+06 25639.9 0 -3.56629e+06 17462.9 0 -3.5755e+06 8845.75 0 -3.57863e+06 -4.17233e-07 0 -2.1307e+06 0 0 -2.13106e+06 1155.56 0 -2.13215e+06 2312.14 0 -2.13396e+06 3470.78 0 -2.1365e+06 4632.52 0 -2.13976e+06 5798.39 0 -2.14375e+06 6969.47 0 -2.14847e+06 8146.81 0 -2.15394e+06 9331.5 0 -2.16014e+06 10524.7 0 -2.16709e+06 11727.4 0 -2.1748e+06 12940.9 0 -2.18326e+06 14166.4 0 -2.1925e+06 15405 0 -2.20251e+06 16657.9 0 -2.21332e+06 17926.6 0 -2.22492e+06 19212.2 0 -2.23732e+06 20516.1 0 -2.25055e+06 21839.7 0 -2.26461e+06 23184.3 0 -2.27952e+06 24551.4 0 -2.29528e+06 25942.5 0 -2.31193e+06 27358.9 0 -2.32946e+06 28802.1 0 -2.34791e+06 30273.5 0 -2.36729e+06 31774.5 0 -2.38761e+06 33306.4 0 -2.4089e+06 34870.4 0 -2.43117e+06 36467.5 0 -2.45445e+06 38098.5 0 -2.47877e+06 39764.1 0 -2.50413e+06 41464.4 0 -2.53057e+06 43199.1 0 -2.5581e+06 44967.4 0 -2.58675e+06 46767.5 0 -2.61654e+06 48596.8 0 -2.64748e+06 50451.4 0 -2.67958e+06 52325.8 0 -2.71287e+06 54212.9 0 -2.74735e+06 56102.8 0 -2.78301e+06 57983.3 0 -2.81984e+06 59838.4 0 -2.85784e+06 61648.2 0 -2.89696e+06 63387.9 0 -2.93715e+06 65027.2 0 -2.97835e+06 66529.2 0 -3.02046e+06 67849.5 0 -3.06336e+06 68935.7 0 -3.10688e+06 69726.6 0 -3.15083e+06 70151.9 0 -3.19496e+06 70132.8 0 -3.23896e+06 69582.7 0 -3.28248e+06 68409.7 0 -3.32511e+06 66520.1 0 -3.36635e+06 63823.4 0 -3.40569e+06 60239.4 0 -3.44252e+06 55706.3 0 -3.47623e+06 50190.6 0 -3.50618e+06 43695.9 0 -3.53175e+06 36271.4 0 -3.55234e+06 28016.8 0 -3.56746e+06 19083.1 0 -3.57672e+06 9666.88 0 -3.57987e+06 5.66244e-07 0 -2.13054e+06 0 0 -2.1309e+06 1251.77 0 -2.13199e+06 2504.65 0 -2.1338e+06 3759.76 0 -2.13633e+06 5018.23 0 -2.1396e+06 6281.18 0 -2.14359e+06 7549.75 0 -2.14831e+06 8825.12 0 -2.15377e+06 10108.4 0 -2.15997e+06 11400.9 0 -2.16692e+06 12703.8 0 -2.17463e+06 14018.4 0 -2.18309e+06 15345.8 0 -2.19233e+06 16687.5 0 -2.20234e+06 18044.8 0 -2.21314e+06 19419.1 0 -2.22474e+06 20811.7 0 -2.23714e+06 22224.2 0 -2.25036e+06 23657.9 0 -2.26442e+06 25114.5 0 -2.27932e+06 26595.5 0 -2.29509e+06 28102.3 0 -2.31173e+06 29636.6 0 -2.32926e+06 31200 0 -2.34771e+06 32793.9 0 -2.36708e+06 34419.9 0 -2.38739e+06 36079.4 0 -2.40868e+06 37773.6 0 -2.43095e+06 39503.7 0 -2.45423e+06 41270.6 0 -2.47853e+06 43075 0 -2.50389e+06 44917 0 -2.53033e+06 46796.4 0 -2.55786e+06 48712.1 0 -2.5865e+06 50662.5 0 -2.61628e+06 52644.5 0 -2.64722e+06 54654.1 0 -2.67932e+06 56685.3 0 -2.71261e+06 58730.4 0 -2.74708e+06 60778.8 0 -2.78275e+06 62817.3 0 -2.81959e+06 64828.5 0 -2.85759e+06 66791.2 0 -2.89672e+06 68678.4 0 -2.93693e+06 70457.3 0 -2.97816e+06 72087.9 0 -3.02029e+06 73522.5 0 -3.06323e+06 74704.1 0 -3.1068e+06 75566.5 0 -3.1508e+06 76033.6 0 -3.19499e+06 76019.9 0 -3.23908e+06 75431.3 0 -3.28269e+06 74168.1 0 -3.32542e+06 72128.2 0 -3.36679e+06 69213.2 0 -3.40625e+06 65335.4 0 -3.44322e+06 60427.3 0 -3.47707e+06 54451.5 0 -3.50715e+06 47411.6 0 -3.53284e+06 39360.4 0 -3.55354e+06 30405.9 0 -3.56875e+06 20711.9 0 -3.57806e+06 10492.5 0 -3.58122e+06 -9.83477e-07 0 -2.13036e+06 0 0 -2.13073e+06 1347.96 0 -2.13182e+06 2697.13 0 -2.13363e+06 4048.69 0 -2.13616e+06 5403.86 0 -2.13942e+06 6763.86 0 -2.14341e+06 8129.92 0 -2.14813e+06 9503.28 0 -2.15359e+06 10885.2 0 -2.15979e+06 12277 0 -2.16674e+06 13680.1 0 -2.17444e+06 15095.6 0 -2.18291e+06 16525.1 0 -2.19214e+06 17969.9 0 -2.20215e+06 19431.4 0 -2.21295e+06 20911.3 0 -2.22454e+06 22410.9 0 -2.23694e+06 23931.9 0 -2.25016e+06 25475.8 0 -2.26422e+06 27044.3 0 -2.27912e+06 28639 0 -2.29488e+06 30261.7 0 -2.31152e+06 31913.9 0 -2.32904e+06 33597.4 0 -2.34748e+06 35313.8 0 -2.36685e+06 37064.7 0 -2.38716e+06 38851.7 0 -2.40844e+06 40676.1 0 -2.4307e+06 42539.3 0 -2.45398e+06 44442.1 0 -2.47828e+06 46385.2 0 -2.50364e+06 48369 0 -2.53006e+06 50393 0 -2.55759e+06 52456.2 0 -2.58623e+06 54556.8 0 -2.61601e+06 56691.7 0 -2.64694e+06 58856.4 0 -2.67904e+06 61044.6 0 -2.71233e+06 63247.8 0 -2.7468e+06 65455 0 -2.78246e+06 67651.7 0 -2.81931e+06 69819.6 0 -2.85732e+06 71935.5 0 -2.89647e+06 73970.7 0 -2.9367e+06 75889.9 0 -2.97794e+06 77650.2 0 -3.02011e+06 79200 0 -3.06308e+06 80478.2 0 -3.1067e+06 81413.5 0 -3.15077e+06 81923.9 0 -3.19503e+06 81917.2 0 -3.2392e+06 81291.9 0 -3.28292e+06 79940.3 0 -3.32576e+06 77751.9 0 -3.36726e+06 74620.2 0 -3.40686e+06 70449.8 0 -3.44397e+06 65167.2 0 -3.47797e+06 58731.5 0 -3.5082e+06 51145.5 0 -3.53402e+06 42465.6 0 -3.55484e+06 32808.2 0 -3.57013e+06 22350.1 0 -3.5795e+06 11323 0 -3.58269e+06 7.15256e-07 0 -2.13018e+06 0 0 -2.13054e+06 1444.14 0 -2.13163e+06 2889.56 0 -2.13344e+06 4337.55 0 -2.13597e+06 5789.4 0 -2.13923e+06 7246.43 0 -2.14322e+06 8709.95 0 -2.14794e+06 10181.3 0 -2.1534e+06 11661.8 0 -2.1596e+06 13153 0 -2.16655e+06 14656 0 -2.17425e+06 16172.6 0 -2.18271e+06 17704 0 -2.19194e+06 19251.9 0 -2.20195e+06 20817.7 0 -2.21274e+06 22403.1 0 -2.22433e+06 24009.7 0 -2.23673e+06 25639.2 0 -2.24995e+06 27293.3 0 -2.264e+06 28973.6 0 -2.2789e+06 30682.1 0 -2.29465e+06 32420.5 0 -2.31128e+06 34190.6 0 -2.32881e+06 35994.2 0 -2.34724e+06 37833 0 -2.3666e+06 39708.9 0 -2.38691e+06 41623.4 0 -2.40818e+06 43578 0 -2.43044e+06 45574.1 0 -2.45371e+06 47612.8 0 -2.47801e+06 49694.7 0 -2.50336e+06 51820.2 0 -2.52978e+06 53988.9 0 -2.5573e+06 56199.7 0 -2.58594e+06 58450.6 0 -2.61571e+06 60738.4 0 -2.64664e+06 63058.3 0 -2.67874e+06 65403.5 0 -2.71202e+06 67765.2 0 -2.7465e+06 70131.4 0 -2.78216e+06 72486.7 0 -2.81902e+06 74811.6 0 -2.85704e+06 77081.3 0 -2.89619e+06 79265.1 0 -2.93644e+06 81325.3 0 -2.97771e+06 83216.1 0 -3.01991e+06 84882.2 0 -3.06293e+06 86258.4 0 -3.1066e+06 87268 0 -3.15073e+06 87823.4 0 -3.19507e+06 87825.4 0 -3.23933e+06 87165.4 0 -3.28316e+06 85727.3 0 -3.32613e+06 83392.4 0 -3.36776e+06 80045.6 0 -3.40751e+06 75584 0 -3.44478e+06 69927.8 0 -3.47894e+06 63032 0 -3.50933e+06 54898.8 0 -3.53529e+06 45588.3 0 -3.55624e+06 35224.8 0 -3.57163e+06 23998.5 0 -3.58106e+06 12158.8 0 -3.58426e+06 -3.57628e-07 0 -2.12998e+06 0 0 -2.13034e+06 1540.29 0 -2.13143e+06 3081.94 0 -2.13324e+06 4626.34 0 -2.13577e+06 6174.86 0 -2.13903e+06 7728.89 0 -2.14302e+06 9289.85 0 -2.14774e+06 10859.2 0 -2.1532e+06 12438.3 0 -2.15939e+06 14028.6 0 -2.16634e+06 15631.8 0 -2.17404e+06 17249.3 0 -2.1825e+06 18882.7 0 -2.19173e+06 20533.6 0 -2.20173e+06 22203.6 0 -2.21252e+06 23894.6 0 -2.22411e+06 25608.1 0 -2.23651e+06 27346.1 0 -2.24972e+06 29110.2 0 -2.26377e+06 30902.5 0 -2.27866e+06 32724.7 0 -2.29441e+06 34578.7 0 -2.31104e+06 36466.7 0 -2.32856e+06 38390.3 0 -2.34699e+06 40351.6 0 -2.36634e+06 42352.3 0 -2.38664e+06 44394.3 0 -2.40791e+06 46479.2 0 -2.43017e+06 48608.3 0 -2.45343e+06 50782.8 0 -2.47772e+06 53003.5 0 -2.50306e+06 55270.6 0 -2.52948e+06 57584 0 -2.55699e+06 59942.4 0 -2.58562e+06 62343.7 0 -2.61539e+06 64784.5 0 -2.64632e+06 67259.7 0 -2.67841e+06 69762.2 0 -2.71169e+06 72282.5 0 -2.74617e+06 74807.9 0 -2.78184e+06 77322.2 0 -2.8187e+06 79804.5 0 -2.85673e+06 82228.5 0 -2.8959e+06 84561.7 0 -2.93617e+06 86763.8 0 -2.97746e+06 88786 0 -3.0197e+06 90569.6 0 -3.06276e+06 92045 0 -3.10649e+06 93130.6 0 -3.15069e+06 93732.7 0 -3.19511e+06 93745.5 0 -3.23947e+06 93052.8 0 -3.28341e+06 91530.4 0 -3.32651e+06 89051 0 -3.36829e+06 85490.9 0 -3.4082e+06 80739.6 0 -3.44565e+06 74710.5 0 -3.47998e+06 67354.6 0 -3.51053e+06 58673.2 0 -3.53666e+06 48729.7 0 -3.55773e+06 37656.8 0 -3.57323e+06 25657.9 0 -3.58272e+06 13000.3 0 -3.58595e+06 -4.76837e-07 0 -2.12977e+06 0 0 -2.13013e+06 1636.41 0 -2.13122e+06 3274.28 0 -2.13303e+06 4915.06 0 -2.13556e+06 6560.21 0 -2.13882e+06 8211.23 0 -2.1428e+06 9869.59 0 -2.14752e+06 11536.8 0 -2.15298e+06 13214.5 0 -2.15917e+06 14904.1 0 -2.16612e+06 16607.3 0 -2.17381e+06 18325.7 0 -2.18227e+06 20061 0 -2.1915e+06 21814.9 0 -2.2015e+06 23589.2 0 -2.21229e+06 25385.6 0 -2.22387e+06 27206.1 0 -2.23626e+06 29052.5 0 -2.24948e+06 30926.7 0 -2.26352e+06 32830.7 0 -2.27841e+06 34766.6 0 -2.29415e+06 36736.4 0 -2.31078e+06 38742.1 0 -2.32829e+06 40785.8 0 -2.34671e+06 42869.5 0 -2.36606e+06 44995.1 0 -2.38636e+06 47164.5 0 -2.40762e+06 49379.5 0 -2.42987e+06 51641.6 0 -2.45313e+06 53951.9 0 -2.47741e+06 56311.3 0 -2.50275e+06 58720.3 0 -2.52916e+06 61178.3 0 -2.55667e+06 63684.4 0 -2.58529e+06 66236.1 0 -2.61505e+06 68830 0 -2.64597e+06 71460.6 0 -2.67807e+06 74120.6 0 -2.71135e+06 76799.7 0 -2.74582e+06 79484.7 0 -2.7815e+06 82158.3 0 -2.81836e+06 84798.5 0 -2.8564e+06 87377.4 0 -2.89559e+06 89860.6 0 -2.93588e+06 92205.4 0 -2.9772e+06 94360.2 0 -3.01948e+06 96262.5 0 -3.06258e+06 97838.6 0 -3.10637e+06 99001.8 0 -3.15064e+06 99652.4 0 -3.19516e+06 99678.1 0 -3.23962e+06 98954.9 0 -3.28369e+06 97350.4 0 -3.32693e+06 94728.7 0 -3.36886e+06 90957.5 0 -3.40894e+06 85917.9 0 -3.44657e+06 79516.8 0 -3.48108e+06 71700.9 0 -3.51182e+06 62470.2 0 -3.53811e+06 51891.4 0 -3.55933e+06 40105.5 0 -3.57493e+06 27329.1 0 -3.5845e+06 13847.9 0 -3.58775e+06 5.96046e-07 0 -2.12954e+06 0 0 -2.12991e+06 1732.51 0 -2.13099e+06 3466.56 0 -2.1328e+06 5203.69 0 -2.13533e+06 6945.46 0 -2.13859e+06 8693.43 0 -2.14258e+06 10449.2 0 -2.14729e+06 12214.3 0 -2.15275e+06 13990.5 0 -2.15894e+06 15779.3 0 -2.16588e+06 17582.5 0 -2.17358e+06 19401.8 0 -2.18203e+06 21239 0 -2.19126e+06 23095.9 0 -2.20125e+06 24974.4 0 -2.21204e+06 26876.3 0 -2.22362e+06 28803.6 0 -2.23601e+06 30758.4 0 -2.24922e+06 32742.6 0 -2.26325e+06 34758.5 0 -2.27814e+06 36808 0 -2.29388e+06 38893.4 0 -2.3105e+06 41016.9 0 -2.32801e+06 43180.6 0 -2.34643e+06 45386.6 0 -2.36577e+06 47637 0 -2.38606e+06 49933.9 0 -2.40732e+06 52279 0 -2.42956e+06 54674 0 -2.45281e+06 57120.1 0 -2.47708e+06 59618.4 0 -2.50241e+06 62169 0 -2.52882e+06 64771.8 0 -2.55632e+06 67425.5 0 -2.58494e+06 70127.8 0 -2.61469e+06 72874.8 0 -2.64561e+06 75661 0 -2.6777e+06 78478.6 0 -2.71098e+06 81316.8 0 -2.74545e+06 84161.6 0 -2.78113e+06 86995 0 -2.818e+06 89793.5 0 -2.85605e+06 92528 0 -2.89525e+06 95161.9 0 -2.93556e+06 97650.4 0 -2.97692e+06 99938.8 0 -3.01924e+06 101961 0 -3.06239e+06 103639 0 -3.10624e+06 104882 0 -3.15059e+06 105583 0 -3.1952e+06 105624 0 -3.23978e+06 104873 0 -3.28397e+06 103189 0 -3.32736e+06 100427 0 -3.36946e+06 96446.6 0 -3.40973e+06 91120.4 0 -3.44754e+06 84348.4 0 -3.48225e+06 76072.4 0 -3.51318e+06 66291.2 0 -3.53965e+06 55074.7 0 -3.56102e+06 42571.8 0 -3.57675e+06 29012.9 0 -3.58639e+06 14702.1 0 -3.58967e+06 -1.19209e-07 0 -2.1293e+06 0 0 -2.12967e+06 1828.58 0 -2.13076e+06 3658.79 0 -2.13256e+06 5492.25 0 -2.13509e+06 7330.6 0 -2.13835e+06 9175.5 0 -2.14233e+06 11028.6 0 -2.14705e+06 12891.6 0 -2.1525e+06 14766.3 0 -2.1587e+06 16654.3 0 -2.16563e+06 18557.5 0 -2.17333e+06 20477.7 0 -2.18178e+06 22416.7 0 -2.191e+06 24376.5 0 -2.201e+06 26359.1 0 -2.21178e+06 28366.5 0 -2.22336e+06 30400.6 0 -2.23574e+06 32463.8 0 -2.24894e+06 34558 0 -2.26298e+06 36685.6 0 -2.27785e+06 38848.7 0 -2.29359e+06 41049.8 0 -2.31021e+06 43290.9 0 -2.32771e+06 45574.6 0 -2.34612e+06 47902.9 0 -2.36546e+06 50278.2 0 -2.38574e+06 52702.4 0 -2.40699e+06 55177.7 0 -2.42923e+06 57705.5 0 -2.45247e+06 60287.5 0 -2.47674e+06 62924.4 0 -2.50206e+06 65616.9 0 -2.52846e+06 68364.4 0 -2.55595e+06 71165.8 0 -2.58456e+06 74018.7 0 -2.61432e+06 76919 0 -2.64523e+06 79860.9 0 -2.67731e+06 82836.2 0 -2.71059e+06 85833.7 0 -2.74507e+06 88838.8 0 -2.78074e+06 91832.2 0 -2.81762e+06 94789.7 0 -2.85568e+06 97680.3 0 -2.8949e+06 100466 0 -2.93524e+06 103099 0 -2.97662e+06 105522 0 -3.01898e+06 107666 0 -3.06219e+06 109448 0 -3.10611e+06 110772 0 -3.15054e+06 111526 0 -3.19525e+06 111584 0 -3.23994e+06 110807 0 -3.28427e+06 109046 0 -3.32782e+06 106147 0 -3.3701e+06 101960 0 -3.41055e+06 96348.8 0 -3.44857e+06 89206.8 0 -3.48349e+06 80470.7 0 -3.51462e+06 70137.9 0 -3.54128e+06 58280.9 0 -3.56282e+06 45057 0 -3.57867e+06 30710.2 0 -3.58839e+06 15563.3 0 -3.5917e+06 3.57628e-07 0 -2.12905e+06 0 0 -2.12942e+06 1924.63 0 -2.13051e+06 3850.96 0 -2.13231e+06 5780.72 0 -2.13484e+06 7715.63 0 -2.1381e+06 9657.42 0 -2.14208e+06 11607.9 0 -2.14679e+06 13568.7 0 -2.15225e+06 15541.8 0 -2.15844e+06 17529 0 -2.16537e+06 19532.1 0 -2.17306e+06 21553.1 0 -2.18151e+06 23594 0 -2.19073e+06 25656.7 0 -2.20072e+06 27743.4 0 -2.2115e+06 29856.2 0 -2.22307e+06 31997.1 0 -2.23545e+06 34168.6 0 -2.24865e+06 36372.8 0 -2.26268e+06 38612.1 0 -2.27756e+06 40888.8