<?xml version="1.0"?> 
<VTKFile type="StructuredGrid" version="0.1"> 
<StructuredGrid WholeExtent="0 15 0 15 0 0"> 
<Piece Extent="0 15 0 15 0 0"> 
<PointData>
<DataArray type="Float32" Name="|E|" format="ascii" NumberOfComponents="3"> 
2.98023e-07 1.71661e-05 0 -4.07308e-08 706.907 0 2.69501e-08 362.109 0 2.56114e-09 167.979 0 -2.53785e-08 87.3989 0 3.35276e-08 45.5957 0 -3.63216e-08 25.4692 0 3.53903e-08 14.5346 0 -3.07336e-08 8.4702 0 2.04891e-08 5.01544 0 -1.86265e-08 2.9763 0 2.23517e-08 1.76669 0 -3.35276e-08 1.0301 0 2.23517e-08 0.565377 0 7.45058e-09 0.250512 0 -3.27826e-07 4.52995e-06 0 73.1878 -1.82539e-07 0 -11.7357 706.746 0 -6.38153 362.177 0 -3.69616 167.869 0 -1.94803 87.4064 0 -1.0948 45.5667 0 -0.624532 25.4669 0 -0.38676 14.5268 0 -0.230081 8.46777 0 -0.151627 5.01286 0 -0.0924693 2.97492 0 -0.0621437 1.76566 0 -0.039644 1.02946 0 -0.0280407 0.564967 0 -0.0212978 0.25032 0 -0.019838 -4.30504e-07 0 146.661 -1.40443e-06 0 -23.5225 706.259 0 -12.7603 362.384 0 -7.38682 167.539 0 -3.89787 87.4294 0 -2.18652 45.4792 0 -1.24992 25.4603 0 -0.772421 14.5031 0 -0.460349 8.46052 0 -0.30292 5.00508 0 -0.184922 2.97079 0 -0.124184 1.76256 0 -0.079247 1.02755 0 -0.0560386 0.56374 0 -0.0425629 0.249738 0 -0.0396338 1.86265e-07 0 220.707 1.33365e-06 0 -35.4115 705.434 0 -19.1337 362.734 0 -11.0663 166.985 0 -5.85145 87.4701 0 -3.27199 45.3323 0 -1.87706 25.45 0 -1.15584 14.4633 0 -0.691018 8.44858 0 -0.453526 4.99209 0 -0.27735 2.96393 0 -0.186011 1.7574 0 -0.11877 1.02435 0 -0.0839496 0.561701 0 -0.0637627 0.248768 0 -0.059347 -2.03028e-07 0 295.615 -8.9407e-07 0 -47.4541 704.255 0 -25.4992 363.238 0 -14.7288 166.202 0 -7.81092 87.5315 0 -4.34788 45.1243 0 -2.50701 25.4369 0 -1.5358 14.407 0 -0.922353 8.43217 0 -0.603064 4.97382 0 -0.369766 2.95436 0 -0.247508 1.75018 0 -0.158181 1.01987 0 -0.111728 0.558857 0 -0.084866 0.247405 0 -0.0789374 2.34693e-07 0 371.681 1.3113e-06 0 -59.7016 702.695 0 -31.8547 363.909 0 -18.3681 165.181 0 -9.77874 87.6185 0 -5.4106 44.8528 0 -3.14098 25.4224 0 -1.91094 14.3337 0 -1.15471 8.41157 0 -0.751101 4.95017 0 -0.46221 2.94214 0 -0.308541 1.74092 0 -0.197454 1.01412 0 -0.139323 0.555222 0 -0.105842 0.245646 0 -0.0983676 2.68221e-07 0 449.205 -2.98023e-07 0 -72.2053 700.721 0 -38.1983 364.763 0 -21.9773 163.913 0 -11.7579 87.7372 0 -6.4562 44.5146 0 -3.78048 25.4083 0 -2.27974 14.2425 0 -1.38855 8.38721 0 -0.897132 4.92105 0 -0.554765 2.92729 0 -0.368953 1.72962 0 -0.236576 1.00707 0 -0.166682 0.550815 0 -0.126664 0.243481 0 -0.117605 -2.90573e-07 0 528.497 -5.96046e-07 0 -85.0172 698.292 0 -44.5286 365.823 0 -25.5491 162.386 0 -13.7518 87.8952 0 -7.48028 44.1057 0 -4.42732 25.3969 0 -2.64043 14.1324 0 -1.62451 8.35958 0 -1.04056 4.88629 0 -0.647571 2.9099 0 -0.428557 1.71631 0 -0.27555 0.998733 0 -0.193741 0.545665 0 -0.147304 0.240895 0 -0.136624 3.27826e-07 0 609.875 -1.19209e-07 0 -98.1889 695.36 0 -50.8451 367.115 0 -29.0752 160.584 0 -15.7648 88.1019 0 -8.47787 43.6212 0 -5.08379 25.3909 0 -2.99096 14.0022 0 -1.86342 8.3293 0 -1.18066 4.84573 0 -0.740844 2.89002 0 -0.487126 1.70103 0 -0.314403 0.98907 0 -0.220429 0.539812 0 -0.167741 0.237863 0 -0.155412 -2.23517e-07 0 693.668 2.6226e-06 0 -111.773 691.866 0 -57.1477 368.669 0 -32.5465 158.488 0 -17.8021 88.3681 0 -9.44329 43.0554 0 -5.75269 25.3936 0 -3.32889 13.8505 0 -2.10633 8.2971 0 -1.31656 4.79916 0 -0.834895 2.86773 0 -0.544376 1.68381 0 -0.353189 0.978049 0 -0.24666 0.533314 0 -0.187953 0.234347 0 -0.173975 2.83122e-07 0 780.22 -3.21865e-06 0 -125.821 687.744 0 -63.4373 370.52 0 -35.9525 156.078 0 -19.8697 88.7069 0 -10.37 42.4014 0 -6.43746 25.409 0 -3.65133 13.6754 0 -2.35466 8.26387 0 -1.44717 4.74633 0 -0.930159 2.8431 0 -0.599956 1.66474 0 -0.392005 0.965611 0 -0.272331 0.526255 0 -0.207927 0.230286 0 -0.19235 -4.47035e-07 0 869.888 1.66893e-06 0 -140.386 682.919 0 -69.7161 372.711 0 -39.2816 153.33 0 -21.9753 89.1332 0 -11.2505 41.6512 0 -7.14235 25.4417 0 -3.95485 13.4749 0 -2.61018 8.23063 0 -1.57117 4.68698 0 -1.02723 2.81619 0 -0.653422 1.64391 0 -0.430996 0.951666 0 -0.297316 0.518752 0 -0.227649 0.225591 0 -0.210623 3.27826e-07 0 963.047 -7.15256e-07 0 -155.52 677.304 0 -75.9872 375.287 0 -42.5202 150.215 0 -24.1277 89.6642 0 -12.0761 40.7954 0 -7.87253 25.4971 0 -4.23532 13.2465 0 -2.87514 8.19857 0 -1.68692 4.62079 0 -1.1269 2.78705 0 -0.704213 1.62146 0 -0.470374 0.936076 0 -0.321455 0.510969 0 -0.247111 0.220127 0 -0.228951 -2.08616e-07 0 1060.09 4.76837e-07 0 -171.276 670.803 0 -82.2556 378.301 0 -45.6532 146.702 0 -26.3378 90.3196 0 -12.8365 39.8234 0 -8.63429 25.5813 0 -4.48781 12.9874 0 -3.15237 8.16905 0 -1.79239 4.54741 0 -1.23021 2.75571 0 -0.751618 1.59761 0 -0.51044 0.918642 0 -0.344551 0.503138 0 -0.266307 0.213697 0 -0.247603 2.08616e-07 0 1161.43 -7.15256e-07 0 -187.708 663.308 0 -88.5278 381.814 0 -48.6631 142.755 0 -28.6181 91.1218 0 -13.52 38.7229 0 -9.43527 25.7014 0 -4.70639 12.6943 0 -3.44543 8.14364 0 -1.88508 4.46646 0 -1.33851 2.72214 0 -0.794734 1.57264 0 -0.551604 0.899074 0 -0.366353 0.495585 0 -0.285228 0.206014 0 -0.267016 5.96046e-08 0 1267.51 1.90735e-06 0 -204.868 654.702 0 -94.8124 385.89 0 -51.5299 138.334 0 -30.9838 92.0958 0 -14.1128 37.4798 0 -10.2846 25.8656 0 -4.88397 12.3633 0 -3.75871 8.1241 0 -1.9619 4.37757 0 -1.45356 2.68627 0 -0.832416 1.54693 0 -0.594419 0.876971 0 -0.386542 0.488754 0 -0.303859 0.19667 0 -0.287868 -4.76837e-06 0 </DataArray> 
</PointData> 
<Points> 
<DataArray type="Float32" NumberOfComponents="3"> 
0.125 0.02 0 0.129 0.02 0 0.133 0.02 0 0.137 0.02 0 0.141 0.02 0 0.145 0.02 0 0.149 0.02 0 0.153 0.02 0 0.157 0.02 0 0.161 0.02 0 0.165 0.02 0 0.169 0.02 0 0.173 0.02 0 0.177 0.02 0 0.181 0.02 0 0.185 0.02 0 0.125 0.0200667 0 0.129 0.0200844 0 0.133 0.0201022 0 0.137 0.02012 0 0.141 0.0201378 0 0.145 0.0201556 0 0.149 0.0201733 0 0.153 0.0201911 0 0.157 0.0202089 0 0.161 0.0202267 0 0.165 0.0202444 0 0.169 0.0202622 0 0.173 0.02028 0 0.177 0.0202978 0 0.181 0.0203156 0 0.185 0.0203333 0 0.125 0.0201333 0 0.129 0.0201689 0 0.133 0.0202044 0 0.137 0.02024 0 0.141 0.0202756 0 0.145 0.0203111 0 0.149 0.0203467 0 0.153 0.0203822 0 0.157 0.0204178 0 0.161 0.0204533 0 0.165 0.0204889 0 0.169 0.0205244 0 0.173 0.02056 0 0.177 0.0205956 0 0.181 0.0206311 0 0.185 0.0206667 0 0.125 0.0202 0 0.129 0.0202533 0 0.133 0.0203067 0 0.137 0.02036 0 0.141 0.0204133 0 0.145 0.0204667 0 0.149 0.02052 0 0.153 0.0205733 0 0.157 0.0206267 0 0.161 0.02068 0 0.165 0.0207333 0 0.169 0.0207867 0 0.173 0.02084 0 0.177 0.0208933 0 0.181 0.0209467 0 0.185 0.021 0 0.125 0.0202667 0 0.129 0.0203378 0 0.133 0.0204089 0 0.137 0.02048 0 0.141 0.0205511 0 0.145 0.0206222 0 0.149 0.0206933 0 0.153 0.0207644 0 0.157 0.0208356 0 0.161 0.0209067 0 0.165 0.0209778 0 0.169 0.0210489 0 0.173 0.02112 0 0.177 0.0211911 0 0.181 0.0212622 0 0.185 0.0213333 0 0.125 0.0203333 0 0.129 0.0204222 0 0.133 0.0205111 0 0.137 0.0206 0 0.141 0.0206889 0 0.145 0.0207778 0 0.149 0.0208667 0 0.153 0.0209556 0 0.157 0.0210444 0 0.161 0.0211333 0 0.165 0.0212222 0 0.169 0.0213111 0 0.173 0.0214 0 0.177 0.0214889 0 0.181 0.0215778 0 0.185 0.0216667 0 0.125 0.0204 0 0.129 0.0205067 0 0.133 0.0206133 0 0.137 0.02072 0 0.141 0.0208267 0 0.145 0.0209333 0 0.149 0.02104 0 0.153 0.0211467 0 0.157 0.0212533 0 0.161 0.02136 0 0.165 0.0214667 0 0.169 0.0215733 0 0.173 0.02168 0 0.177 0.0217867 0 0.181 0.0218933 0 0.185 0.022 0 0.125 0.0204667 0 0.129 0.0205911 0 0.133 0.0207156 0 0.137 0.02084 0 0.141 0.0209644 0 0.145 0.0210889 0 0.149 0.0212133 0 0.153 0.0213378 0 0.157 0.0214622 0 0.161 0.0215867 0 0.165 0.0217111 0 0.169 0.0218356 0 0.173 0.02196 0 0.177 0.0220844 0 0.181 0.0222089 0 0.185 0.0223333 0 0.125 0.0205333 0 0.129 0.0206756 0 0.133 0.0208178 0 0.137 0.02096 0 0.141 0.0211022 0 0.145 0.0212444 0 0.149 0.0213867 0 0.153 0.0215289 0 0.157 0.0216711 0 0.161 0.0218133 0 0.165 0.0219556 0 0.169 0.0220978 0 0.173 0.02224 0 0.177 0.0223822 0 0.181 0.0225244 0 0.185 0.0226667 0 0.125 0.0206 0 0.129 0.02076 0 0.133 0.02092 0 0.137 0.02108 0 0.141 0.02124 0 0.145 0.0214 0 0.149 0.02156 0 0.153 0.02172 0 0.157 0.02188 0 0.161 0.02204 0 0.165 0.0222 0 0.169 0.02236 0 0.173 0.02252 0 0.177 0.02268 0 0.181 0.02284 0 0.185 0.023 0 0.125 0.0206667 0 0.129 0.0208444 0 0.133 0.0210222 0 0.137 0.0212 0 0.141 0.0213778 0 0.145 0.0215556 0 0.149 0.0217333 0 0.153 0.0219111 0 0.157 0.0220889 0 0.161 0.0222667 0 0.165 0.0224444 0 0.169 0.0226222 0 0.173 0.0228 0 0.177 0.0229778 0 0.181 0.0231556 0 0.185 0.0233333 0 0.125 0.0207333 0 0.129 0.0209289 0 0.133 0.0211244 0 0.137 0.02132 0 0.141 0.0215156 0 0.145 0.0217111 0 0.149 0.0219067 0 0.153 0.0221022 0 0.157 0.0222978 0 0.161 0.0224933 0 0.165 0.0226889 0 0.169 0.0228844 0 0.173 0.02308 0 0.177 0.0232756 0 0.181 0.0234711 0 0.185 0.0236667 0 0.125 0.0208 0 0.129 0.0210133 0 0.133 0.0212267 0 0.137 0.02144 0 0.141 0.0216533 0 0.145 0.0218667 0 0.149 0.02208 0 0.153 0.0222933 0 0.157 0.0225067 0 0.161 0.02272 0 0.165 0.0229333 0 0.169 0.0231467 0 0.173 0.02336 0 0.177 0.0235733 0 0.181 0.0237867 0 0.185 0.024 0 0.125 0.0208667 0 0.129 0.0210978 0 0.133 0.0213289 0 0.137 0.02156 0 0.141 0.0217911 0 0.145 0.0220222 0 0.149 0.0222533 0 0.153 0.0224844 0 0.157 0.0227156 0 0.161 0.0229467 0 0.165 0.0231778 0 0.169 0.0234089 0 0.173 0.02364 0 0.177 0.0238711 0 0.181 0.0241022 0 0.185 0.0243333 0 0.125 0.0209333 0 0.129 0.0211822 0 0.133 0.0214311 0 0.137 0.02168 0 0.141 0.0219289 0 0.145 0.0221778 0 0.149 0.0224267 0 0.153 0.0226756 0 0.157 0.0229244 0 0.161 0.0231733 0 0.165 0.0234222 0 0.169 0.0236711 0 0.173 0.02392 0 0.177 0.0241689 0 0.181 0.0244178 0 0.185 0.0246667 0 0.125 0.021 0 0.129 0.0212667 0 0.133 0.0215333 0 0.137 0.0218 0 0.141 0.0220667 0 0.145 0.0223333 0 0.149 0.0226 0 0.153 0.0228667 0 0.157 0.0231333 0 0.161 0.0234 0 0.165 0.0236667 0 0.169 0.0239333 0 0.173 0.0242 0 0.177 0.0244667 0 0.181 0.0247333 0 0.185 0.025 0 
</DataArray>
</Points> 
</Piece> 
</StructuredGrid> 
</VTKFile> 
