<?xml version="1.0"?> 
<VTKFile type="StructuredGrid" version="0.1"> 
<StructuredGrid WholeExtent="0 15 0 15 0 0"> 
<Piece Extent="0 15 0 15 0 0"> 
<PointData>
<DataArray type="Float32" Name="|E|" format="ascii" NumberOfComponents="3"> 
-1.66715e+06 0 0 -1.6735e+06 126701 0 -1.69245e+06 255267 0 -1.72369e+06 387610 0 -1.76653e+06 525729 0 -1.81969e+06 671778 0 -1.88084e+06 827572 0 -1.94558e+06 995206 0 -2.00681e+06 1.17207e+06 0 -2.05214e+06 1.35457e+06 0 -2.07139e+06 1.51203e+06 0 -2.06449e+06 1.60988e+06 0 -2.07418e+06 1.58927e+06 0 -2.18765e+06 1.38546e+06 0 -2.36443e+06 1.23329e+06 0 -4.50052e+06 3.04793e+06 0 -1.65359e+06 0 0 -1.65858e+06 125378 0 -1.67541e+06 252668 0 -1.70373e+06 383625 0 -1.7429e+06 520045 0 -1.79167e+06 663823 0 -1.8481e+06 816484 0 -1.9082e+06 979546 0 -1.96689e+06 1.15105e+06 0 -2.01364e+06 1.3264e+06 0 -2.04329e+06 1.48563e+06 0 -2.05205e+06 1.5936e+06 0 -2.07906e+06 1.61816e+06 0 -2.17274e+06 1.48748e+06 0 -2.39261e+06 1.32622e+06 0 -2.77257e+06 1.334e+06 0 -1.63989e+06 0 0 -1.64351e+06 123970 0 -1.65824e+06 249894 0 -1.68372e+06 379377 0 -1.71932e+06 514031 0 -1.76387e+06 655526 0 -1.81573e+06 805128 0 -1.87136e+06 964001 0 -1.92707e+06 1.13044e+06 0 -1.97429e+06 1.30028e+06 0 -2.0105e+06 1.45863e+06 0 -2.0317e+06 1.57809e+06 0 -2.06969e+06 1.6308e+06 0 -2.15853e+06 1.57012e+06 0 -2.36665e+06 1.42949e+06 0 -2.62312e+06 1.20309e+06 0 -1.62606e+06 0 0 -1.6283e+06 122481 0 -1.64096e+06 246950 0 -1.66365e+06 374873 0 -1.69579e+06 507695 0 -1.73626e+06 646886 0 -1.78369e+06 793506 0 -1.835e+06 948445 0 -1.88743e+06 1.11026e+06 0 -1.93423e+06 1.27527e+06 0 -1.97423e+06 1.43226e+06 0 -2.00453e+06 1.56023e+06 0 -2.04944e+06 1.63606e+06 0 -2.13707e+06 1.62743e+06 0 -2.32664e+06 1.53386e+06 0 -2.59541e+06 1.34982e+06 0 -1.61208e+06 0 0 -1.61295e+06 120911 0 -1.62356e+06 243839 0 -1.64353e+06 370119 0 -1.6723e+06 501045 0 -1.70885e+06 637908 0 -1.75196e+06 781609 0 -1.79906e+06 932814 0 -1.84799e+06 1.09034e+06 0 -1.89363e+06 1.25103e+06 0 -1.93534e+06 1.40631e+06 0 -1.97178e+06 1.54045e+06 0 -2.02069e+06 1.63444e+06 0 -2.10672e+06 1.66626e+06 0 -2.27775e+06 1.62415e+06 0 -2.55303e+06 1.4943e+06 0 -1.59797e+06 0 0 -1.59745e+06 119263 0 -1.60604e+06 240565 0 -1.62335e+06 365122 0 -1.64885e+06 494087 0 -1.68159e+06 628596 0 -1.72053e+06 769419 0 -1.76351e+06 917066 0 -1.80878e+06 1.07056e+06 0 -1.85262e+06 1.22729e+06 0 -1.89453e+06 1.3806e+06 0 -1.93452e+06 1.51897e+06 0 -1.9853e+06 1.62707e+06 0 -2.06832e+06 1.68972e+06 0 -2.22111e+06 1.69475e+06 0 -2.48254e+06 1.63415e+06 0 -1.58373e+06 0 0 -1.58181e+06 117539 0 -1.5884e+06 237133 0 -1.60311e+06 359885 0 -1.62543e+06 486828 0 -1.65449e+06 618953 0 -1.68937e+06 756928 0 -1.72831e+06 901148 0 -1.76984e+06 1.05082e+06 0 -1.81132e+06 1.20383e+06 0 -1.85234e+06 1.35501e+06 0 -1.89373e+06 1.49591e+06 0 -1.94473e+06 1.61481e+06 0 -2.02323e+06 1.70067e+06 0 -2.159e+06 1.74462e+06 0 -2.3909e+06 1.74229e+06 0 -1.56935e+06 0 0 -1.56604e+06 115739 0 -1.57066e+06 233546 0 -1.58281e+06 354416 0 -1.60203e+06 479272 0 -1.62753e+06 608983 0 -1.65847e+06 744130 0 -1.69343e+06 885024 0 -1.73117e+06 1.03104e+06 0 -1.76986e+06 1.18047e+06 0 -1.80915e+06 1.32937e+06 0 -1.85029e+06 1.47152e+06 0 -1.90015e+06 1.59822e+06 0 -1.97312e+06 1.70153e+06 0 -2.09268e+06 1.77566e+06 0 -2.29298e+06 1.81994e+06 0 -1.55485e+06 0 0 -1.55013e+06 113866 0 -1.55279e+06 229807 0 -1.56246e+06 348719 0 -1.57865e+06 471427 0 -1.60069e+06 598689 0 -1.6278e+06 731016 0 -1.65885e+06 868661 0 -1.69279e+06 1.01113e+06 0 -1.72835e+06 1.1571e+06 0 -1.76527e+06 1.30355e+06 0 -1.80492e+06 1.44593e+06 0 -1.85253e+06 1.57797e+06 0 -1.91936e+06 1.69398e+06 0 -2.02374e+06 1.79068e+06 0 -2.19287e+06 1.87006e+06 0 -1.54021e+06 0 0 -1.53409e+06 111921 0 -1.53482e+06 225920 0 -1.54204e+06 342801 0 -1.55529e+06 463298 0 -1.57396e+06 588075 0 -1.59736e+06 717581 0 -1.62457e+06 852030 0 -1.6547e+06 991054 0 -1.68688e+06 1.13361e+06 0 -1.72095e+06 1.27746e+06 0 -1.7582e+06 1.41925e+06 0 -1.80269e+06 1.55459e+06 0 -1.86307e+06 1.67954e+06 0 -1.95344e+06 1.79245e+06 0 -2.09451e+06 1.89644e+06 0 -1.52545e+06 0 0 -1.51792e+06 109906 0 -1.51674e+06 221888 0 -1.52155e+06 336665 0 -1.53194e+06 454890 0 -1.54733e+06 577143 0 -1.56713e+06 703822 0 -1.59056e+06 835112 0 -1.61691e+06 970747 0 -1.64554e+06 1.10993e+06 0 -1.67639e+06 1.25101e+06 0 -1.71059e+06 1.39157e+06 0 -1.75132e+06 1.52857e+06 0 -1.80514e+06 1.65941e+06 0 -1.88269e+06 1.78349e+06 0 -1.99943e+06 1.90455e+06 0 -1.51057e+06 0 0 -1.50163e+06 107823 0 -1.49855e+06 217715 0 -1.50101e+06 330317 0 -1.50859e+06 446209 0 -1.5208e+06 565897 0 -1.53709e+06 689734 0 -1.55683e+06 817887 0 -1.57941e+06 950173 0 -1.60439e+06 1.08599e+06 0 -1.63175e+06 1.22416e+06 0 -1.66245e+06 1.36295e+06 0 -1.69898e+06 1.50031e+06 0 -1.74625e+06 1.63462e+06 0 -1.81219e+06 1.76593e+06 0 -1.90801e+06 1.89782e+06 0 -1.49557e+06 0 0 -1.4852e+06 105673 0 -1.48025e+06 213403 0 -1.48039e+06 323762 0 -1.48525e+06 437260 0 -1.49436e+06 554340 0 -1.50724e+06 675317 0 -1.52335e+06 800342 0 -1.54221e+06 929301 0 -1.56347e+06 1.06176e+06 0 -1.58717e+06 1.19687e+06 0 -1.61406e+06 1.33344e+06 0 -1.6461e+06 1.47013e+06 0 -1.68694e+06 1.60601e+06 0 -1.74237e+06 1.74148e+06 0 -1.82045e+06 1.87982e+06 0 -1.48045e+06 0 0 -1.46865e+06 103457 0 -1.46184e+06 208957 0 -1.45972e+06 317003 0 -1.4619e+06 428048 0 -1.46799e+06 542477 0 -1.47755e+06 660568 0 -1.49013e+06 782465 0 -1.50531e+06 908104 0 -1.52283e+06 1.03718e+06 0 -1.54274e+06 1.16912e+06 0 -1.56565e+06 1.30311e+06 0 -1.59304e+06 1.43831e+06 0 -1.62761e+06 1.57426e+06 0 -1.67355e+06 1.71157e+06 0 -1.73652e+06 1.85305e+06 0 -1.46521e+06 0 0 -1.45198e+06 101177 0 -1.44333e+06 204379 0 -1.43897e+06 310047 0 -1.43855e+06 418579 0 -1.4417e+06 530310 0 -1.44803e+06 645488 0 -1.45715e+06 764247 0 -1.46871e+06 886565 0 -1.4825e+06 1.01224e+06 0 -1.49857e+06 1.1409e+06 0 -1.51739e+06 1.272e+06 0 -1.54007e+06 1.40506e+06 0 -1.56858e+06 1.53993e+06 0 -1.60591e+06 1.6773e+06 0 -1.65598e+06 1.8195e+06 0 -1.44985e+06 0 0 -1.43518e+06 98835.5 0 -1.42472e+06 199672 0 -1.41816e+06 302897 0 -1.41519e+06 408857 0 -1.41548e+06 517844 0 -1.41866e+06 630077 0 -1.4244e+06 745682 0 -1.43241e+06 864669 0 -1.44251e+06 986916 0 -1.45472e+06 1.11218e+06 0 -1.46941e+06 1.24015e+06 0 -1.48739e+06 1.37057e+06 0 -1.51009e+06 1.50347e+06 0 -1.53958e+06 1.63957e+06 0 -1.57856e+06 1.78074e+06 0 </DataArray> 
</PointData> 
<Points> 
<DataArray type="Float32" NumberOfComponents="3"> 
0 0.045 0 0.00666667 0.045 0 0.0133333 0.045 0 0.02 0.045 0 0.0266667 0.045 0 0.0333333 0.045 0 0.04 0.045 0 0.0466667 0.045 0 0.0533333 0.045 0 0.06 0.045 0 0.0666667 0.045 0 0.0733333 0.045 0 0.08 0.045 0 0.0866667 0.045 0 0.0933333 0.045 0 0.1 0.045 0 0 0.0457111 0 0.00652356 0.045763 0 0.0130471 0.0458148 0 0.0195707 0.0458667 0 0.0260942 0.0459185 0 0.0326178 0.0459704 0 0.0391413 0.0460222 0 0.0456649 0.0460741 0 0.0521884 0.0461259 0 0.058712 0.0461778 0 0.0652356 0.0462296 0 0.0717591 0.0462815 0 0.0782827 0.0463333 0 0.0848062 0.0463852 0 0.0913298 0.046437 0 0.0978533 0.0464889 0 0 0.0464222 0 0.00638044 0.0465259 0 0.0127609 0.0466296 0 0.0191413 0.0467333 0 0.0255218 0.046837 0 0.0319022 0.0469407 0 0.0382827 0.0470444 0 0.0446631 0.0471481 0 0.0510436 0.0472519 0 0.057424 0.0473556 0 0.0638044 0.0474593 0 0.0701849 0.047563 0 0.0765653 0.0476667 0 0.0829458 0.0477704 0 0.0893262 0.0478741 0 0.0957067 0.0479778 0 0 0.0471333 0 0.00623733 0.0472889 0 0.0124747 0.0474444 0 0.018712 0.0476 0 0.0249493 0.0477556 0 0.0311867 0.0479111 0 0.037424 0.0480667 0 0.0436613 0.0482222 0 0.0498987 0.0483778 0 0.056136 0.0485333 0 0.0623733 0.0486889 0 0.0686107 0.0488444 0 0.074848 0.049 0 0.0810853 0.0491556 0 0.0873227 0.0493111 0 0.09356 0.0494667 0 0 0.0478444 0 0.00609422 0.0480519 0 0.0121884 0.0482593 0 0.0182827 0.0484667 0 0.0243769 0.0486741 0 0.0304711 0.0488815 0 0.0365653 0.0490889 0 0.0426596 0.0492963 0 0.0487538 0.0495037 0 0.054848 0.0497111 0 0.0609422 0.0499185 0 0.0670364 0.0501259 0 0.0731307 0.0503333 0 0.0792249 0.0505407 0 0.0853191 0.0507481 0 0.0914133 0.0509556 0 0 0.0485556 0 0.00595111 0.0488148 0 0.0119022 0.0490741 0 0.0178533 0.0493333 0 0.0238044 0.0495926 0 0.0297556 0.0498519 0 0.0357067 0.0501111 0 0.0416578 0.0503704 0 0.0476089 0.0506296 0 0.05356 0.0508889 0 0.0595111 0.0511481 0 0.0654622 0.0514074 0 0.0714133 0.0516667 0 0.0773644 0.0519259 0 0.0833156 0.0521852 0 0.0892667 0.0524444 0 0 0.0492667 0 0.005808 0.0495778 0 0.011616 0.0498889 0 0.017424 0.0502 0 0.023232 0.0505111 0 0.02904 0.0508222 0 0.034848 0.0511333 0 0.040656 0.0514444 0 0.046464 0.0517556 0 0.052272 0.0520667 0 0.05808 0.0523778 0 0.063888 0.0526889 0 0.069696 0.053 0 0.075504 0.0533111 0 0.081312 0.0536222 0 0.08712 0.0539333 0 0 0.0499778 0 0.00566489 0.0503407 0 0.0113298 0.0507037 0 0.0169947 0.0510667 0 0.0226596 0.0514296 0 0.0283244 0.0517926 0 0.0339893 0.0521556 0 0.0396542 0.0525185 0 0.0453191 0.0528815 0 0.050984 0.0532444 0 0.0566489 0.0536074 0 0.0623138 0.0539704 0 0.0679787 0.0543333 0 0.0736436 0.0546963 0 0.0793084 0.0550593 0 0.0849733 0.0554222 0 0 0.0506889 0 0.00552178 0.0511037 0 0.0110436 0.0515185 0 0.0165653 0.0519333 0 0.0220871 0.0523481 0 0.0276089 0.052763 0 0.0331307 0.0531778 0 0.0386524 0.0535926 0 0.0441742 0.0540074 0 0.049696 0.0544222 0 0.0552178 0.054837 0 0.0607396 0.0552519 0 0.0662613 0.0556667 0 0.0717831 0.0560815 0 0.0773049 0.0564963 0 0.0828267 0.0569111 0 0 0.0514 0 0.00537867 0.0518667 0 0.0107573 0.0523333 0 0.016136 0.0528 0 0.0215147 0.0532667 0 0.0268933 0.0537333 0 0.032272 0.0542 0 0.0376507 0.0546667 0 0.0430293 0.0551333 0 0.048408 0.0556 0 0.0537867 0.0560667 0 0.0591653 0.0565333 0 0.064544 0.057 0 0.0699227 0.0574667 0 0.0753013 0.0579333 0 0.08068 0.0584 0 0 0.0521111 0 0.00523556 0.0526296 0 0.0104711 0.0531481 0 0.0157067 0.0536667 0 0.0209422 0.0541852 0 0.0261778 0.0547037 0 0.0314133 0.0552222 0 0.0366489 0.0557407 0 0.0418844 0.0562593 0 0.04712 0.0567778 0 0.0523556 0.0572963 0 0.0575911 0.0578148 0 0.0628267 0.0583333 0 0.0680622 0.0588519 0 0.0732978 0.0593704 0 0.0785333 0.0598889 0 0 0.0528222 0 0.00509244 0.0533926 0 0.0101849 0.053963 0 0.0152773 0.0545333 0 0.0203698 0.0551037 0 0.0254622 0.0556741 0 0.0305547 0.0562444 0 0.0356471 0.0568148 0 0.0407396 0.0573852 0 0.045832 0.0579556 0 0.0509244 0.0585259 0 0.0560169 0.0590963 0 0.0611093 0.0596667 0 0.0662018 0.060237 0 0.0712942 0.0608074 0 0.0763867 0.0613778 0 0 0.0535333 0 0.00494933 0.0541556 0 0.00989867 0.0547778 0 0.014848 0.0554 0 0.0197973 0.0560222 0 0.0247467 0.0566444 0 0.029696 0.0572667 0 0.0346453 0.0578889 0 0.0395947 0.0585111 0 0.044544 0.0591333 0 0.0494933 0.0597556 0 0.0544427 0.0603778 0 0.059392 0.061 0 0.0643413 0.0616222 0 0.0692907 0.0622444 0 0.07424 0.0628667 0 0 0.0542444 0 0.00480622 0.0549185 0 0.00961244 0.0555926 0 0.0144187 0.0562667 0 0.0192249 0.0569407 0 0.0240311 0.0576148 0 0.0288373 0.0582889 0 0.0336436 0.058963 0 0.0384498 0.059637 0 0.043256 0.0603111 0 0.0480622 0.0609852 0 0.0528684 0.0616593 0 0.0576747 0.0623333 0 0.0624809 0.0630074 0 0.0672871 0.0636815 0 0.0720933 0.0643556 0 0 0.0549556 0 0.00466311 0.0556815 0 0.00932622 0.0564074 0 0.0139893 0.0571333 0 0.0186524 0.0578593 0 0.0233156 0.0585852 0 0.0279787 0.0593111 0 0.0326418 0.060037 0 0.0373049 0.060763 0 0.041968 0.0614889 0 0.0466311 0.0622148 0 0.0512942 0.0629407 0 0.0559573 0.0636667 0 0.0606204 0.0643926 0 0.0652836 0.0651185 0 0.0699467 0.0658444 0 0 0.0556667 0 0.00452 0.0564444 0 0.00904 0.0572222 0 0.01356 0.058 0 0.01808 0.0587778 0 0.0226 0.0595556 0 0.02712 0.0603333 0 0.03164 0.0611111 0 0.03616 0.0618889 0 0.04068 0.0626667 0 0.0452 0.0634444 0 0.04972 0.0642222 0 0.05424 0.065 0 0.05876 0.0657778 0 0.06328 0.0665556 0 0.0678 0.0673333 0 
</DataArray>
</Points> 
</Piece> 
</StructuredGrid> 
</VTKFile> 
