<?xml version="1.0"?> 
<VTKFile type="StructuredGrid" version="0.1"> 
<StructuredGrid WholeExtent="0 15 0 15 0 0"> 
<Piece Extent="0 15 0 15 0 0"> 
<PointData>
<DataArray type="Float32" Name="|E|" format="ascii" NumberOfComponents="3"> 
-2.0246e+06 0 0 -2.02486e+06 10872.4 0 -2.02561e+06 21751.8 0 -2.02687e+06 32645.1 0 -2.02864e+06 43559.4 0 -2.03091e+06 54501.6 0 -2.03368e+06 65478.6 0 -2.03697e+06 76499.3 0 -2.04076e+06 87573.4 0 -2.04507e+06 98704.6 0 -2.04988e+06 109889 0 -2.05522e+06 121129 0 -2.06107e+06 132440 0 -2.06744e+06 143848 0 -2.07434e+06 155410 0 -2.08175e+06 167157 0 -2.0149e+06 0 0 -2.01535e+06 15270.6 0 -2.01671e+06 30558.6 0 -2.01898e+06 45881.5 0 -2.02216e+06 61257.2 0 -2.02625e+06 76703.3 0 -2.03126e+06 92238 0 -2.03719e+06 107880 0 -2.04404e+06 123651 0 -2.05182e+06 139572 0 -2.06053e+06 155658 0 -2.07019e+06 171926 0 -2.0808e+06 188394 0 -2.09237e+06 205085 0 -2.10493e+06 222055 0 -2.11847e+06 239379 0 -2.00481e+06 0 0 -2.00552e+06 19967.3 0 -2.00766e+06 39970.4 0 -2.01121e+06 60045.3 0 -2.01619e+06 80228.4 0 -2.0226e+06 100557 0 -2.03046e+06 121070 0 -2.03976e+06 141809 0 -2.05053e+06 162814 0 -2.06276e+06 184121 0 -2.07649e+06 205778 0 -2.09173e+06 227841 0 -2.10851e+06 250377 0 -2.12682e+06 273463 0 -2.14668e+06 297153 0 -2.16812e+06 321441 0 -1.99435e+06 0 0 -1.99537e+06 24957.2 0 -1.99843e+06 49978.6 0 -2.00353e+06 75128.9 0 -2.01069e+06 100475 0 -2.0199e+06 126084 0 -2.0312e+06 152030 0 -2.04459e+06 178384 0 -2.0601e+06 205224 0 -2.07776e+06 232641 0 -2.09759e+06 260740 0 -2.11962e+06 289630 0 -2.14388e+06 319411 0 -2.17041e+06 350176 0 -2.19934e+06 382006 0 -2.23076e+06 415055 0 -1.98352e+06 0 0 -1.9849e+06 30234.4 0 -1.98903e+06 60573.9 0 -1.99593e+06 91125.4 0 -2.00562e+06 121999 0 -2.01809e+06 153309 0 -2.0334e+06 185176 0 -2.05156e+06 217730 0 -2.07261e+06 251116 0 -2.0966e+06 285502 0 -2.12356e+06 321050 0 -2.15355e+06 357929 0 -2.1867e+06 396339 0 -2.22313e+06 436532 0 -2.26285e+06 478884 0 -2.30581e+06 523969 0 -1.97232e+06 0 0 -1.97411e+06 35793 0 -1.97946e+06 71747.2 0 -1.9884e+06 108027 0 -2.00094e+06 144804 0 -2.01711e+06 182256 0 -2.03696e+06 220579 0 -2.06053e+06 259989 0 -2.08788e+06 300728 0 -2.11905e+06 343053 0 -2.15415e+06 387248 0 -2.19332e+06 433693 0 -2.23668e+06 482868 0 -2.28415e+06 535399 0 -2.33585e+06 592146 0 -2.39248e+06 653721 0 -1.96076e+06 0 0 -1.963e+06 41627.1 0 -1.9697e+06 83489 0 -1.9809e+06 125827 0 -1.99662e+06 168892 0 -2.0169e+06 212955 0 -2.0418e+06 258314 0 -2.07137e+06 305306 0 -2.1057e+06 354305 0 -2.14489e+06 405739 0 -2.18908e+06 460170 0 -2.23837e+06 518313 0 -2.29268e+06 581021 0 -2.35239e+06 649426 0 -2.4184e+06 724541 0 -2.49051e+06 807983 0 -1.94885e+06 0 0 -1.95157e+06 47730.5 0 -1.95976e+06 95789.5 0 -1.97342e+06 144516 0 -1.99261e+06 194267 0 -2.01737e+06 245434 0 -2.04778e+06 298457 0 -2.0839e+06 353832 0 -2.12585e+06 412154 0 -2.17376e+06 474144 0 -2.22771e+06 540780 0 -2.28762e+06 613225 0 -2.35397e+06 693058 0 -2.42744e+06 782250 0 -2.50649e+06 884245 0 -2.58934e+06 1.00643e+06 0 -1.93658e+06 0 0 -1.93984e+06 54097.1 0 -1.94961e+06 108639 0 -1.96594e+06 164085 0 -1.98887e+06 220931 0 -2.01846e+06 279722 0 -2.05478e+06 341080 0 -2.09793e+06 405750 0 -2.14803e+06 474634 0 -2.20512e+06 548902 0 -2.26912e+06 630148 0 -2.34031e+06 720310 0 -2.41904e+06 822491 0 -2.50248e+06 941839 0 -2.58883e+06 1.08905e+06 0 -2.67814e+06 1.28112e+06 0 -1.92397e+06 0 0 -1.92779e+06 60720.5 0 -1.93927e+06 122026 0 -1.95844e+06 184527 0 -1.98535e+06 248886 0 -2.02007e+06 315845 0 -2.06267e+06 386273 0 -2.11324e+06 461254 0 -2.17181e+06 542106 0 -2.23822e+06 630742 0 -2.31245e+06 729525 0 -2.3945e+06 842208 0 -2.48066e+06 975516 0 -2.56755e+06 1.14124e+06 0 -2.64979e+06 1.35707e+06 0 -2.68177e+06 1.65161e+06 0 -1.91102e+06 0 0 -1.91544e+06 67594.3 0 -1.92872e+06 135941 0 -1.95089e+06 205832 0 -1.982e+06 278132 0 -2.02212e+06 353828 0 -2.07127e+06 434126 0 -2.12953e+06 520518 0 -2.19661e+06 615017 0 -2.2722e+06 720409 0 -2.35602e+06 840574 0 -2.444e+06 983270 0 -2.5301e+06 1.15951e+06 0 -2.60405e+06 1.38798e+06 0 -2.60074e+06 1.6827e+06 0 -2.39641e+06 2.00094e+06 0 -1.89773e+06 0 0 -1.90278e+06 74712.2 0 -1.91795e+06 150373 0 -1.94327e+06 227988 0 -1.97878e+06 308665 0 -2.02449e+06 393701 0 -2.08042e+06 484703 0 -2.14641e+06 583771 0 -2.22169e+06 693759 0 -2.30596e+06 818649 0 -2.3953e+06 966012 0 -2.48143e+06 1.14649e+06 0 -2.55104e+06 1.37567e+06 0 -2.53638e+06 1.66953e+06 0 -2.31396e+06 1.96655e+06 0 -1.87411e+06 2.03632e+06 0 -1.88412e+06 0 0 -1.88983e+06 82069.4 0 -1.90697e+06 165308 0 -1.93556e+06 250986 0 -1.97563e+06 340482 0 -2.02708e+06 435475 0 -2.08992e+06 538094 0 -2.16332e+06 651216 0 -2.24643e+06 778497 0 -2.33674e+06 927097 0 -2.4244e+06 1.10687e+06 0 -2.49574e+06 1.32986e+06 0 -2.49177e+06 1.61464e+06 0 -2.29246e+06 1.90425e+06 0 -1.89649e+06 1.99086e+06 0 -1.51552e+06 1.72497e+06 0 -1.87019e+06 0 0 -1.87658e+06 89656.8 0 -1.89575e+06 180738 0 -1.92774e+06 274814 0 -1.97247e+06 373574 0 -2.02981e+06 479162 0 -2.09944e+06 594416 0 -2.1798e+06 722757 0 -2.26956e+06 870039 0 -2.36023e+06 1.04631e+06 0 -2.43706e+06 1.25969e+06 0 -2.45742e+06 1.52896e+06 0 -2.30886e+06 1.82121e+06 0 -1.96191e+06 1.93644e+06 0 -1.59786e+06 1.70648e+06 0 -1.38857e+06 1.22152e+06 0 -1.85593e+06 0 0 -1.86303e+06 97462 0 -1.88431e+06 196657 0 -1.91979e+06 299450 0 -1.96924e+06 407925 0 -2.03256e+06 524809 0 -2.10855e+06 653589 0 -2.19545e+06 798531 0 -2.28853e+06 969172 0 -2.37267e+06 1.17304e+06 0 -2.41949e+06 1.42225e+06 0 -2.33722e+06 1.7145e+06 0 -2.0539e+06 1.88505e+06 0 -1.70577e+06 1.71676e+06 0 -1.48747e+06 1.24412e+06 0 -1.51399e+06 414334 0 -1.84136e+06 0 0 -1.84918e+06 105485 0 -1.87263e+06 213050 0 -1.91165e+06 324878 0 -1.96594e+06 443528 0 -2.03509e+06 572419 0 -2.11708e+06 715416 0 -2.20926e+06 879128 0 -2.30065e+06 1.07417e+06 0 -2.36905e+06 1.30372e+06 0 -2.35333e+06 1.5857e+06 0 -2.15386e+06 1.82109e+06 0 -1.83353e+06 1.75036e+06 0 -1.59694e+06 1.36231e+06 0 -1.616e+06 702858 0 -1.82557e+06 170022 0 </DataArray> 
</PointData> 
<Points> 
<DataArray type="Float32" NumberOfComponents="3"> 
0 0.021 0 0.00106667 0.021 0 0.00213333 0.021 0 0.0032 0.021 0 0.00426667 0.021 0 0.00533333 0.021 0 0.0064 0.021 0 0.00746667 0.021 0 0.00853333 0.021 0 0.0096 0.021 0 0.0106667 0.021 0 0.0117333 0.021 0 0.0128 0.021 0 0.0138667 0.021 0 0.0149333 0.021 0 0.016 0.021 0 0 0.0219333 0 0.00144 0.0219333 0 0.00288 0.0219333 0 0.00432 0.0219333 0 0.00576 0.0219333 0 0.0072 0.0219333 0 0.00864 0.0219333 0 0.01008 0.0219333 0 0.01152 0.0219333 0 0.01296 0.0219333 0 0.0144 0.0219333 0 0.01584 0.0219333 0 0.01728 0.0219333 0 0.01872 0.0219333 0 0.02016 0.0219333 0 0.0216 0.0219333 0 0 0.0228667 0 0.00181333 0.0228667 0 0.00362667 0.0228667 0 0.00544 0.0228667 0 0.00725333 0.0228667 0 0.00906667 0.0228667 0 0.01088 0.0228667 0 0.0126933 0.0228667 0 0.0145067 0.0228667 0 0.01632 0.0228667 0 0.0181333 0.0228667 0 0.0199467 0.0228667 0 0.02176 0.0228667 0 0.0235733 0.0228667 0 0.0253867 0.0228667 0 0.0272 0.0228667 0 0 0.0238 0 0.00218667 0.0238 0 0.00437333 0.0238 0 0.00656 0.0238 0 0.00874667 0.0238 0 0.0109333 0.0238 0 0.01312 0.0238 0 0.0153067 0.0238 0 0.0174933 0.0238 0 0.01968 0.0238 0 0.0218667 0.0238 0 0.0240533 0.0238 0 0.02624 0.0238 0 0.0284267 0.0238 0 0.0306133 0.0238 0 0.0328 0.0238 0 0 0.0247333 0 0.00256 0.0247333 0 0.00512 0.0247333 0 0.00768 0.0247333 0 0.01024 0.0247333 0 0.0128 0.0247333 0 0.01536 0.0247333 0 0.01792 0.0247333 0 0.02048 0.0247333 0 0.02304 0.0247333 0 0.0256 0.0247333 0 0.02816 0.0247333 0 0.03072 0.0247333 0 0.03328 0.0247333 0 0.03584 0.0247333 0 0.0384 0.0247333 0 0 0.0256667 0 0.00293333 0.0256667 0 0.00586667 0.0256667 0 0.0088 0.0256667 0 0.0117333 0.0256667 0 0.0146667 0.0256667 0 0.0176 0.0256667 0 0.0205333 0.0256667 0 0.0234667 0.0256667 0 0.0264 0.0256667 0 0.0293333 0.0256667 0 0.0322667 0.0256667 0 0.0352 0.0256667 0 0.0381333 0.0256667 0 0.0410667 0.0256667 0 0.044 0.0256667 0 0 0.0266 0 0.00330667 0.0266 0 0.00661333 0.0266 0 0.00992 0.0266 0 0.0132267 0.0266 0 0.0165333 0.0266 0 0.01984 0.0266 0 0.0231467 0.0266 0 0.0264533 0.0266 0 0.02976 0.0266 0 0.0330667 0.0266 0 0.0363733 0.0266 0 0.03968 0.0266 0 0.0429867 0.0266 0 0.0462933 0.0266 0 0.0496 0.0266 0 0 0.0275333 0 0.00368 0.0275333 0 0.00736 0.0275333 0 0.01104 0.0275333 0 0.01472 0.0275333 0 0.0184 0.0275333 0 0.02208 0.0275333 0 0.02576 0.0275333 0 0.02944 0.0275333 0 0.03312 0.0275333 0 0.0368 0.0275333 0 0.04048 0.0275333 0 0.04416 0.0275333 0 0.04784 0.0275333 0 0.05152 0.0275333 0 0.0552 0.0275333 0 0 0.0284667 0 0.00405333 0.0284667 0 0.00810667 0.0284667 0 0.01216 0.0284667 0 0.0162133 0.0284667 0 0.0202667 0.0284667 0 0.02432 0.0284667 0 0.0283733 0.0284667 0 0.0324267 0.0284667 0 0.03648 0.0284667 0 0.0405333 0.0284667 0 0.0445867 0.0284667 0 0.04864 0.0284667 0 0.0526933 0.0284667 0 0.0567467 0.0284667 0 0.0608 0.0284667 0 0 0.0294 0 0.00442667 0.0294 0 0.00885333 0.0294 0 0.01328 0.0294 0 0.0177067 0.0294 0 0.0221333 0.0294 0 0.02656 0.0294 0 0.0309867 0.0294 0 0.0354133 0.0294 0 0.03984 0.0294 0 0.0442667 0.0294 0 0.0486933 0.0294 0 0.05312 0.0294 0 0.0575467 0.0294 0 0.0619733 0.0294 0 0.0664 0.0294 0 0 0.0303333 0 0.0048 0.0303333 0 0.0096 0.0303333 0 0.0144 0.0303333 0 0.0192 0.0303333 0 0.024 0.0303333 0 0.0288 0.0303333 0 0.0336 0.0303333 0 0.0384 0.0303333 0 0.0432 0.0303333 0 0.048 0.0303333 0 0.0528 0.0303333 0 0.0576 0.0303333 0 0.0624 0.0303333 0 0.0672 0.0303333 0 0.072 0.0303333 0 0 0.0312667 0 0.00517333 0.0312667 0 0.0103467 0.0312667 0 0.01552 0.0312667 0 0.0206933 0.0312667 0 0.0258667 0.0312667 0 0.03104 0.0312667 0 0.0362133 0.0312667 0 0.0413867 0.0312667 0 0.04656 0.0312667 0 0.0517333 0.0312667 0 0.0569067 0.0312667 0 0.06208 0.0312667 0 0.0672533 0.0312667 0 0.0724267 0.0312667 0 0.0776 0.0312667 0 0 0.0322 0 0.00554667 0.0322 0 0.0110933 0.0322 0 0.01664 0.0322 0 0.0221867 0.0322 0 0.0277333 0.0322 0 0.03328 0.0322 0 0.0388267 0.0322 0 0.0443733 0.0322 0 0.04992 0.0322 0 0.0554667 0.0322 0 0.0610133 0.0322 0 0.06656 0.0322 0 0.0721067 0.0322 0 0.0776533 0.0322 0 0.0832 0.0322 0 0 0.0331333 0 0.00592 0.0331333 0 0.01184 0.0331333 0 0.01776 0.0331333 0 0.02368 0.0331333 0 0.0296 0.0331333 0 0.03552 0.0331333 0 0.04144 0.0331333 0 0.04736 0.0331333 0 0.05328 0.0331333 0 0.0592 0.0331333 0 0.06512 0.0331333 0 0.07104 0.0331333 0 0.07696 0.0331333 0 0.08288 0.0331333 0 0.0888 0.0331333 0 0 0.0340667 0 0.00629333 0.0340667 0 0.0125867 0.0340667 0 0.01888 0.0340667 0 0.0251733 0.0340667 0 0.0314667 0.0340667 0 0.03776 0.0340667 0 0.0440533 0.0340667 0 0.0503467 0.0340667 0 0.05664 0.0340667 0 0.0629333 0.0340667 0 0.0692267 0.0340667 0 0.07552 0.0340667 0 0.0818133 0.0340667 0 0.0881067 0.0340667 0 0.0944 0.0340667 0 0 0.035 0 0.00666667 0.035 0 0.0133333 0.035 0 0.02 0.035 0 0.0266667 0.035 0 0.0333333 0.035 0 0.04 0.035 0 0.0466667 0.035 0 0.0533333 0.035 0 0.06 0.035 0 0.0666667 0.035 0 0.0733333 0.035 0 0.08 0.035 0 0.0866667 0.035 0 0.0933333 0.035 0 0.1 0.035 0 
</DataArray>
</Points> 
</Piece> 
</StructuredGrid> 
</VTKFile> 
