<?xml version="1.0"?> 
<VTKFile type="StructuredGrid" version="0.1"> 
<StructuredGrid WholeExtent="0 15 0 15 0 0"> 
<Piece Extent="0 15 0 15 0 0"> 
<PointData>
<DataArray type="Float32" Name="|E|" format="ascii" NumberOfComponents="3"> 
270149 6.54356e+06 0 241733 5.63129e+06 0 233864 5.24721e+06 0 231623 5.01222e+06 0 231866 4.84526e+06 0 233647 4.72043e+06 0 236392 4.62246e+06 0 239831 4.54372e+06 0 243767 4.47887e+06 0 248084 4.4246e+06 0 252694 4.37848e+06 0 257535 4.33879e+06 0 262559 4.30423e+06 0 267724 4.27374e+06 0 272981 4.24622e+06 0 278206 4.21957e+06 0 -723569 5.66516e+06 0 -344830 5.40169e+06 0 -145530 5.15283e+06 0 -35877.7 4.96054e+06 0 32084.2 4.81322e+06 0 78266.9 4.69769e+06 0 111875 4.60519e+06 0 137744 4.52957e+06 0 158501 4.46674e+06 0 175774 4.41375e+06 0 190555 4.36851e+06 0 203506 4.32945e+06 0 215043 4.29539e+06 0 225406 4.2654e+06 0 234628 4.23879e+06 0 242504 4.2152e+06 0 -889173 5.09158e+06 0 -596337 5.03034e+06 0 -385811 4.92611e+06 0 -237685 4.81603e+06 0 -133213 4.71536e+06 0 -57462.6 4.62787e+06 0 -655.934 4.55296e+06 0 43298 4.48897e+06 0 78322.1 4.43407e+06 0 106948 4.38669e+06 0 130890 4.34553e+06 0 151314 4.30952e+06 0 169036 4.27783e+06 0 184614 4.24983e+06 0 198428 4.22506e+06 0 210715 4.20328e+06 0 -882635 4.71124e+06 0 -675139 4.71913e+06 0 -497972 4.68976e+06 0 -356390 4.6409e+06 0 -245334 4.58501e+06 0 -158425 4.52909e+06 0 -89856.1 4.47645e+06 0 -34992.2 4.42832e+06 0 9600.5 4.38494e+06 0 46455 4.34606e+06 0 77412.3 4.31127e+06 0 103833 4.28012e+06 0 126725 4.2522e+06 0 146850 4.22717e+06 0 164796 4.20477e+06 0 181053 4.18485e+06 0 -831596 4.44226e+06 0 -674874 4.47713e+06 0 -534218 4.4846e+06 0 -412029 4.47287e+06 0 -308982 4.44948e+06 0 -223290 4.42001e+06 0 -152319 4.38815e+06 0 -93416 4.35614e+06 0 -44207.8 4.32521e+06 0 -2732.71 4.29597e+06 0 32599.3 4.26867e+06 0 63051.9 4.24338e+06 0 89633.8 4.22004e+06 0 113155 4.19859e+06 0 134284 4.17895e+06 0 153573 4.16107e+06 0 -758665 4.2432e+06 0 -640286 4.2892e+06 0 -528192 4.31507e+06 0 -426405 4.32492e+06 0 -336267 4.32298e+06 0 -257824 4.31303e+06 0 -190241 4.298e+06 0 -132250 4.28005e+06 0 -82480.7 4.26066e+06 0 -39613.6 4.24081e+06 0 -2468 4.22108e+06 0 29983.1 4.20188e+06 0 58617.1 4.1834e+06 0 84184.1 4.16578e+06 0 107331 4.14909e+06 0 128624 4.13338e+06 0 -681110 4.09111e+06 0 -588270 4.14145e+06 0 -498895 4.17679e+06 0 -415068 4.19914e+06 0 -338348 4.21096e+06 0 -269357 4.21462e+06 0 -208057 4.21225e+06 0 -153991 4.20559e+06 0 -106464 4.19598e+06 0 -64686 4.18443e+06 0 -27860.1 4.17168e+06 0 4771.94 4.15823e+06 0 33907.7 4.14446e+06 0 60179.3 4.1306e+06 0 84159.5 4.11685e+06 0 106363 4.10332e+06 0 -601261 3.97233e+06 0 -528189 4.02414e+06 0 -456403 4.06433e+06 0 -387763 4.09399e+06 0 -323476 4.11454e+06 0 -264262 4.12748e+06 0 -210402 4.13428e+06 0 -161838 4.13625e+06 0 -118281 4.13447e+06 0 -79302.3 4.12985e+06 0 -44403 4.1231e+06 0 -13058.7 4.11476e+06 0 15250.5 4.10525e+06 0 41024.6 4.09487e+06 0 64738.5 4.08387e+06 0 86836.3 4.07241e+06 0 -522217 3.87846e+06 0 -464037 3.93039e+06 0 -406417 3.97303e+06 0 -350517 4.00699e+06 0 -297304 4.03309e+06 0 -247426 4.0523e+06 0 -201242 4.06562e+06 0 -158871 4.07398e+06 0 -120243 4.07826e+06 0 -85150.6 4.07918e+06 0 -53301.9 4.07737e+06 0 -24351.8 4.07334e+06 0 2070.08 4.06751e+06 0 26341.5 4.06019e+06 0 48838.3 4.05165e+06 0 69923.5 4.04207e+06 0 -444222 3.80403e+06 0 -398137 3.85551e+06 0 -352111 3.89932e+06 0 -307033 3.9358e+06 0 -263614 3.96543e+06 0 -222386 3.98885e+06 0 -183695 4.00674e+06 0 -147717 4.01977e+06 0 -114487 4.0286e+06 0 -83924.8 4.03381e+06 0 -55870.8 4.03594e+06 0 -30106.5 4.03542e+06 0 -6377.29 4.03264e+06 0 15592.8 4.02791e+06 0 36090.3 4.02147e+06 0 55401.7 4.01352e+06 0 -367670 3.74536e+06 0 -331566 3.7962e+06 0 -295348 3.8405e+06 0 -259623 3.87844e+06 0 -224921 3.91032e+06 0 -191655 3.93656e+06 0 -160118 3.95762e+06 0 -130489 3.974e+06 0 -102841 3.98619e+06 0 -77162.5 3.99465e+06 0 -53373.1 3.99982e+06 0 -31339.3 4.00206e+06 0 -10890.8 4.00173e+06 0 8168.14 3.99909e+06 0 26049.3 3.99439e+06 0 42970.7 3.98781e+06 0 -292415 3.69998e+06 0 -264903 3.75017e+06 0 -237202 3.79459e+06 0 -209745 3.83336e+06 0 -182910 3.86667e+06 0 -157006 3.89477e+06 0 -132264 3.91801e+06 0 -108837 3.93675e+06 0 -86805.5 3.95136e+06 0 -66187.6 3.96221e+06 0 -46947.5 3.96965e+06 0 -29006.7 3.97401e+06 0 -12254.5 3.97556e+06 0 3443.78 3.97456e+06 0 18239.3 3.97123e+06 0 32291.9 3.96574e+06 0 -218287 3.66617e+06 0 -198388 3.71578e+06 0 -178305 3.76018e+06 0 -158330 3.79941e+06 0 -138723 3.83359e+06 0 -119703 3.86291e+06 0 -101438 3.88761e+06 0 -84045.4 3.90796e+06 0 -67595.4 3.92426e+06 0 -52113.6 3.9368e+06 0 -37587.6 3.94588e+06 0 -23973.5 3.95176e+06 0 -11201.7 3.9547e+06 0 816.227 3.95493e+06 0 12183 3.95263e+06 0 23009.7 3.94798e+06 0 -145031 3.64276e+06 0 -132094 3.69193e+06 0 -119018 3.73625e+06 0 -105982 3.77572e+06 0 -93151.5 3.81042e+06 0 -80663 3.84049e+06 0 -68626.3 3.86611e+06 0 -57120.8 3.88751e+06 0 -46196.1 3.90492e+06 0 -35874.5 3.91858e+06 0 -26153.5 3.92875e+06 0 -17010.2 3.93567e+06 0 -8404.48 3.93956e+06 0 -283.018 3.94062e+06 0 7417.66 3.93904e+06 0 14767.1 3.93497e+06 0 -72364 3.629e+06 0 -65991.8 3.6779e+06 0 -59544.4 3.72215e+06 0 -53108.9 3.76173e+06 0 -46764 3.7967e+06 0 -40576.6 3.82718e+06 0 -34600.6 3.85331e+06 0 -28875.6 3.87529e+06 0 -23427.2 3.89332e+06 0 -18267.8 3.90762e+06 0 -13397.9 3.91842e+06 0 -8807.68 3.92594e+06 0 -4478.99 3.93038e+06 0 -386.769 3.93194e+06 0 3499.21 3.93077e+06 0 7212.44 3.92704e+06 0 0 3.62447e+06 0 0 3.67328e+06 0 0 3.7175e+06 0 0 3.75711e+06 0 0 3.79217e+06 0 0 3.82277e+06 0 0 3.84906e+06 0 0 3.87123e+06 0 0 3.88946e+06 0 0 3.90397e+06 0 0 3.91497e+06 0 0 3.92268e+06 0 0 3.92731e+06 0 0 3.92902e+06 0 0 3.928e+06 0 0 3.92438e+06 0 </DataArray> 
</PointData> 
<Points> 
<DataArray type="Float32" NumberOfComponents="3"> 
0.112986 0.0645877 0 0.115221 0.0644936 0 0.117456 0.0643958 0 0.119691 0.0642944 0 0.121926 0.0641893 0 0.124161 0.0640805 0 0.126395 0.0639681 0 0.12863 0.0638519 0 0.130865 0.0637322 0 0.133099 0.0636087 0 0.135333 0.0634816 0 0.137567 0.0633508 0 0.139802 0.0632164 0 0.142036 0.0630783 0 0.144269 0.0629365 0 0.146503 0.0627911 0 0.112987 0.0677486 0 0.115222 0.0676607 0 0.117457 0.0675695 0 0.119692 0.0674748 0 0.121926 0.0673767 0 0.124161 0.0672751 0 0.126396 0.0671702 0 0.12863 0.0670618 0 0.130865 0.06695 0 0.133099 0.0668348 0 0.135333 0.0667162 0 0.137567 0.0665941 0 0.139801 0.0664686 0 0.142035 0.0663397 0 0.144269 0.0662074 0 0.146503 0.0660717 0 0.112988 0.0709094 0 0.115223 0.0708278 0 0.117458 0.0707431 0 0.119692 0.0706551 0 0.121927 0.070564 0 0.124162 0.0704698 0 0.126396 0.0703723 0 0.12863 0.0702717 0 0.130865 0.0701679 0 0.133099 0.0700609 0 0.135333 0.0699507 0 0.137567 0.0698374 0 0.139801 0.0697209 0 0.142035 0.0696012 0 0.144269 0.0694783 0 0.146503 0.0693522 0 0.112989 0.0740702 0 0.115224 0.0739949 0 0.117458 0.0739167 0 0.119693 0.0738355 0 0.121927 0.0737514 0 0.124162 0.0736644 0 0.126396 0.0735744 0 0.128631 0.0734816 0 0.130865 0.0733857 0 0.133099 0.073287 0 0.135333 0.0731853 0 0.137567 0.0730807 0 0.139801 0.0729731 0 0.142035 0.0728626 0 0.144269 0.0727492 0 0.146503 0.0726328 0 0.11299 0.077231 0 0.115224 0.077162 0 0.117459 0.0770903 0 0.119693 0.0770159 0 0.121928 0.0769388 0 0.124162 0.076859 0 0.126397 0.0767766 0 0.128631 0.0766914 0 0.130865 0.0766036 0 0.133099 0.0765131 0 0.135333 0.0764198 0 0.137567 0.0763239 0 0.139801 0.0762254 0 0.142035 0.0761241 0 0.144269 0.0760201 0 0.146502 0.0759134 0 0.112991 0.0803918 0 0.115225 0.0803291 0 0.11746 0.0802639 0 0.119694 0.0801963 0 0.121928 0.0801262 0 0.124163 0.0800537 0 0.126397 0.0799787 0 0.128631 0.0799013 0 0.130865 0.0798214 0 0.133099 0.0797391 0 0.135333 0.0796544 0 0.137567 0.0795672 0 0.139801 0.0794776 0 0.142035 0.0793855 0 0.144269 0.079291 0 0.146502 0.079194 0 0.112992 0.0835526 0 0.115226 0.0834962 0 0.11746 0.0834375 0 0.119695 0.0833766 0 0.121929 0.0833136 0 0.124163 0.0832483 0 0.126397 0.0831808 0 0.128631 0.0831112 0 0.130865 0.0830393 0 0.133099 0.0829652 0 0.135333 0.082889 0 0.137567 0.0828105 0 0.139801 0.0827298 0 0.142035 0.082647 0 0.144268 0.0825619 0 0.146502 0.0824746 0 0.112992 0.0867135 0 0.115227 0.0866633 0 0.117461 0.0866111 0 0.119695 0.086557 0 0.121929 0.086501 0 0.124164 0.0864429 0 0.126398 0.086383 0 0.128632 0.086321 0 0.130866 0.0862572 0 0.133099 0.0861913 0 0.135333 0.0861235 0 0.137567 0.0860538 0 0.139801 0.0859821 0 0.142035 0.0859084 0 0.144268 0.0858328 0 0.146502 0.0857552 0 0.112993 0.0898743 0 0.115228 0.0898304 0 0.117462 0.0897847 0 0.119696 0.0897374 0 0.12193 0.0896883 0 0.124164 0.0896376 0 0.126398 0.0895851 0 0.128632 0.0895309 0 0.130866 0.089475 0 0.133099 0.0894174 0 0.135333 0.0893581 0 0.137567 0.0892971 0 0.139801 0.0892343 0 0.142034 0.0891699 0 0.144268 0.0891037 0 0.146502 0.0890358 0 0.112994 0.0930351 0 0.115228 0.0929974 0 0.117462 0.0929583 0 0.119696 0.0929178 0 0.12193 0.0928757 0 0.124164 0.0928322 0 0.126398 0.0927872 0 0.128632 0.0927408 0 0.130866 0.0926929 0 0.1331 0.0926435 0 0.135333 0.0925926 0 0.137567 0.0925403 0 0.139801 0.0924866 0 0.142034 0.0924313 0 0.144268 0.0923746 0 0.146501 0.0923164 0 0.112995 0.0961959 0 0.115229 0.0961645 0 0.117463 0.0961319 0 0.119697 0.0960981 0 0.121931 0.0960631 0 0.124165 0.0960268 0 0.126398 0.0959894 0 0.128632 0.0959506 0 0.130866 0.0959107 0 0.1331 0.0958696 0 0.135333 0.0958272 0 0.137567 0.0957836 0 0.139801 0.0957388 0 0.142034 0.0956928 0 0.144268 0.0956455 0 0.146501 0.095597 0 0.112996 0.0993567 0 0.11523 0.0993316 0 0.117464 0.0993056 0 0.119698 0.0992785 0 0.121931 0.0992505 0 0.124165 0.0992215 0 0.126399 0.0991915 0 0.128632 0.0991605 0 0.130866 0.0991286 0 0.1331 0.0990957 0 0.135333 0.0990618 0 0.137567 0.0990269 0 0.1398 0.098991 0 0.142034 0.0989542 0 0.144267 0.0989164 0 0.146501 0.0988776 0 0.112997 0.102518 0 0.115231 0.102499 0 0.117465 0.102479 0 0.119698 0.102459 0 0.121932 0.102438 0 0.124165 0.102416 0 0.126399 0.102394 0 0.128633 0.10237 0 0.130866 0.102346 0 0.1331 0.102322 0 0.135333 0.102296 0 0.137567 0.10227 0 0.1398 0.102243 0 0.142034 0.102216 0 0.144267 0.102187 0 0.146501 0.102158 0 0.112998 0.105678 0 0.115232 0.105666 0 0.117465 0.105653 0 0.119699 0.105639 0 0.121932 0.105625 0 0.124166 0.105611 0 0.126399 0.105596 0 0.128633 0.10558 0 0.130866 0.105564 0 0.1331 0.105548 0 0.135333 0.105531 0 0.137567 0.105513 0 0.1398 0.105496 0 0.142034 0.105477 0 0.144267 0.105458 0 0.1465 0.105439 0 0.112999 0.108839 0 0.115233 0.108833 0 0.117466 0.108826 0 0.119699 0.10882 0 0.121933 0.108813 0 0.124166 0.108805 0 0.1264 0.108798 0 0.128633 0.10879 0 0.130867 0.108782 0 0.1331 0.108774 0 0.135333 0.108765 0 0.137567 0.108757 0 0.1398 0.108748 0 0.142033 0.108739 0 0.144267 0.108729 0 0.1465 0.108719 0 0.113 0.112 0 0.115233 0.112 0 0.117467 0.112 0 0.1197 0.112 0 0.121933 0.112 0 0.124167 0.112 0 0.1264 0.112 0 0.128633 0.112 0 0.130867 0.112 0 0.1331 0.112 0 0.135333 0.112 0 0.137567 0.112 0 0.1398 0.112 0 0.142033 0.112 0 0.144267 0.112 0 0.1465 0.112 0 
</DataArray>
</Points> 
</Piece> 
</StructuredGrid> 
</VTKFile> 
