<?xml version="1.0"?> 
<VTKFile type="StructuredGrid" version="0.1"> 
<StructuredGrid WholeExtent="0 15 0 15 0 0"> 
<Piece Extent="0 15 0 15 0 0"> 
<PointData>
<DataArray type="Float32" Name="|E|" format="ascii" NumberOfComponents="3"> 
-1.19209e-07 9.53674e+06 0 -2.21189e-09 3.10402e+06 0 -9.59262e-08 1.23152e+06 0 2.28174e-07 825045 0 -3.7998e-07 683722 0 4.41447e-07 497272 0 -4.28408e-07 285985 0 3.91155e-07 122721 0 -2.90573e-07 36043.4 0 8.9407e-08 7383.69 0 8.9407e-08 2536.75 0 -4.47035e-08 331.614 0 1.49012e-08 -1185.16 0 -2.98023e-08 15.3455 0 5.96046e-08 245.83 0 -1.19209e-06 -4.1943e+06 0 -2.57265e+06 1.62225e+06 0 -2.80246e+06 1.70122e+06 0 -2.16111e+06 1.95524e+06 0 -1.43114e+06 1.90821e+06 0 -885423 1.57639e+06 0 -544867 1.12902e+06 0 -345073 710680 0 -219245 392490 0 -128857 185196 0 -62659.3 69227.1 0 -21701.8 16645.4 0 -4158.04 483.885 0 -345.506 -905.703 0 -79.1918 37.4904 0 37.4321 71.2892 0 98.3089 1019.81 0 -2.80749e+06 937261 0 -2.52637e+06 1.33404e+06 0 -2.65294e+06 1.26568e+06 0 -2.56011e+06 1.34299e+06 0 -2.19332e+06 1.46465e+06 0 -1.69772e+06 1.44267e+06 0 -1.21754e+06 1.224e+06 0 -826367 881954 0 -532592 530830 0 -315573 256010 0 -158590 88721.6 0 -58531.4 15140.7 0 -12028.7 -1997.68 0 -523.156 -312.589 0 -65.3319 140.368 0 474.312 2393.46 0 -2.48919e+06 1.50297e+06 0 -2.66953e+06 1.24162e+06 0 -2.58913e+06 1.29626e+06 0 -2.60655e+06 1.23019e+06 0 -2.62039e+06 1.17898e+06 0 -2.48745e+06 1.20897e+06 0 -2.17206e+06 1.23536e+06 0 -1.73754e+06 1.14562e+06 0 -1.27865e+06 908580 0 -864534 588141 0 -523602 288209 0 -264023 87290.1 0 -95022.3 2822.47 0 -17113.9 -5755.02 0 197.546 1950.18 0 1266.19 4118.54 0 -2.60307e+06 1.42216e+06 0 -2.57953e+06 1.45635e+06 0 -2.6616e+06 1.35502e+06 0 -2.65447e+06 1.33636e+06 0 -2.64389e+06 1.27656e+06 0 -2.65189e+06 1.18479e+06 0 -2.60502e+06 1.13019e+06 0 -2.41944e+06 1.11032e+06 0 -2.07487e+06 1.04389e+06 0 -1.62269e+06 859188 0 -1.14317e+06 568215 0 -702083 263612 0 -344979 52587.3 0 -111529 -20489.2 0 -13126.7 -7022.86 0 -2095.44 -4907.15 0 -2.45969e+06 1.66708e+06 0 -2.53233e+06 1.59157e+06 0 -2.57004e+06 1.54153e+06 0 -2.64284e+06 1.45426e+06 0 -2.68202e+06 1.39974e+06 0 -2.69058e+06 1.33485e+06 0 -2.69478e+06 1.23439e+06 0 -2.67241e+06 1.13426e+06 0 -2.55284e+06 1.05839e+06 0 -2.27709e+06 962671 0 -1.84927e+06 775547 0 -1.33291e+06 484950 0 -811071 176782 0 -368942 -18988 0 -91559.2 -46157 0 -11562.4 -20618.9 0 -2.40075e+06 1.7281e+06 0 -2.45094e+06 1.70282e+06 0 -2.50781e+06 1.66952e+06 0 -2.55702e+06 1.62097e+06 0 -2.62532e+06 1.54242e+06 0 -2.68718e+06 1.46951e+06 0 -2.72311e+06 1.392e+06 0 -2.73906e+06 1.28456e+06 0 -2.72759e+06 1.15867e+06 0 -2.63616e+06 1.03572e+06 0 -2.39473e+06 889913 0 -1.97618e+06 660938 0 -1.42218e+06 338794 0 -822331 27155.7 0 -309947 -111907 0 -42421.9 -59399.3 0 -2.28989e+06 1.8244e+06 0 -2.3489e+06 1.80099e+06 0 -2.415e+06 1.76419e+06 0 -2.48223e+06 1.73127e+06 0 -2.54473e+06 1.68618e+06 0 -2.61611e+06 1.61505e+06 0 -2.69023e+06 1.53409e+06 0 -2.74833e+06 1.44314e+06 0 -2.78209e+06 1.3234e+06 0 -2.78092e+06 1.17422e+06 0 -2.6984e+06 1.00583e+06 0 -2.46018e+06 794418 0 -2.0212e+06 491028 0 -1.40357e+06 113269 0 -709212 -177526 0 -149132 -166549 0 -2.19422e+06 1.8681e+06 0 -2.25252e+06 1.85908e+06 0 -2.3133e+06 1.84627e+06 0 -2.38365e+06 1.81628e+06 0 -2.45995e+06 1.78342e+06 0 -2.53617e+06 1.73967e+06 0 -2.61725e+06 1.6727e+06 0 -2.70291e+06 1.58724e+06 0 -2.77895e+06 1.48292e+06 0 -2.83063e+06 1.3446e+06 0 -2.83896e+06 1.1647e+06 0 -2.7521e+06 939281 0 -2.48862e+06 636473 0 -1.98774e+06 223809 0 -1.25291e+06 -214023 0 -411963 -368739 0 -2.09454e+06 1.8964e+06 0 -2.15263e+06 1.89793e+06 0 -2.21735e+06 1.89268e+06 0 -2.28568e+06 1.88357e+06 0 -2.36226e+06 1.86002e+06 0 -2.44749e+06 1.82838e+06 0 -2.5372e+06 1.78448e+06 0 -2.63222e+06 1.71793e+06 0 -2.73243e+06 1.62681e+06 0 -2.826e+06 1.50634e+06 0 -2.89483e+06 1.3403e+06 0 -2.90939e+06 1.11289e+06 0 -2.80371e+06 801043 0 -2.48153e+06 361307 0 -1.85085e+06 -198991 0 -874089 -624020 0 -1.99957e+06 1.90435e+06 0 -2.05753e+06 1.91583e+06 0 -2.12069e+06 1.92254e+06 0 -2.19135e+06 1.92255e+06 0 -2.26824e+06 1.91689e+06 0 -2.35379e+06 1.89836e+06 0 -2.44988e+06 1.86825e+06 0 -2.55433e+06 1.82287e+06 0 -2.66684e+06 1.75283e+06 0 -2.78598e+06 1.65149e+06 0 -2.89978e+06 1.50725e+06 0 -2.98639e+06 1.29718e+06 0 -3.00173e+06 989811 0 -2.85813e+06 534399 0 -2.41956e+06 -116918 0 -1.50318e+06 -842612 0 -1.90815e+06 1.89763e+06 0 -1.96595e+06 1.9187e+06 0 -2.02941e+06 1.93559e+06 0 -2.09919e+06 1.94714e+06 0 -2.17737e+06 1.95186e+06 0 -2.26419e+06 1.94935e+06 0 -2.36156e+06 1.9343e+06 0 -2.4718e+06 1.90495e+06 0 -2.59428e+06 1.85617e+06 0 -2.72908e+06 1.77789e+06 0 -2.87316e+06 1.65802e+06 0 -3.01327e+06 1.47467e+06 0 -3.12074e+06 1.18942e+06 0 -3.1316e+06 739716 0 -2.91498e+06 36208.8 0 -2.22032e+06 -947751 0 -1.82051e+06 1.87974e+06 0 -1.87861e+06 1.90954e+06 0 -1.9422e+06 1.93593e+06 0 -2.01238e+06 1.95811e+06 0 -2.09035e+06 1.97445e+06 0 -2.17821e+06 1.98345e+06 0 -2.2773e+06 1.98363e+06 0 -2.38999e+06 1.97047e+06 0 -2.51895e+06 1.94002e+06 0 -2.66524e+06 1.88457e+06 0 -2.82979e+06 1.79095e+06 0 -3.00867e+06 1.63806e+06 0 -3.18694e+06 1.38635e+06 0 -3.32555e+06 964483 0 -3.32622e+06 251609 0 -2.9486e+06 -906164 0 -1.73656e+06 1.85299e+06 0 -1.79535e+06 1.89147e+06 0 -1.85947e+06 1.92701e+06 0 -1.9301e+06 1.9588e+06 0 -2.00865e+06 1.98598e+06 0 -2.09689e+06 2.00685e+06 0 -2.19725e+06 2.01961e+06 0 -2.31215e+06 2.0218e+06 0 -2.44497e+06 2.00878e+06 0 -2.59935e+06 1.97424e+06 0 -2.7787e+06 1.90656e+06 0 -2.98569e+06 1.78551e+06 0 -3.21806e+06 1.5732e+06 0 -3.46045e+06 1.1959e+06 0 -3.65828e+06 513650 0 -3.63533e+06 -720138 0 -1.65602e+06 1.81945e+06 0 -1.71592e+06 1.86654e+06 0 -1.78102e+06 1.91109e+06 0 -1.85246e+06 1.95239e+06 0 -1.9318e+06 1.98953e+06 0 -2.02089e+06 2.02145e+06 0 -2.12223e+06 2.04642e+06 0 -2.23892e+06 2.06225e+06 0 -2.37481e+06 2.06547e+06 0 -2.53486e+06 2.05036e+06 0 -2.72512e+06 2.00713e+06 0 -2.95296e+06 1.91766e+06 0 -3.22657e+06 1.74725e+06 0 -3.55211e+06 1.42528e+06 0 -3.92105e+06 806527 0 -4.25054e+06 -409595 0 -1.57858e+06 1.7807e+06 0 -1.64008e+06 1.83654e+06 0 -1.70659e+06 1.89006e+06 0 -1.77932e+06 1.94064e+06 0 -1.85979e+06 1.98754e+06 0 -1.95001e+06 2.02985e+06 0 -2.0526e+06 2.06618e+06 0 -2.17093e+06 2.09478e+06 0 -2.3094e+06 2.11287e+06 0 -2.47391e+06 2.11576e+06 0 -2.67239e+06 2.09537e+06 0 -2.91604e+06 2.03624e+06 0 -3.2212e+06 1.9082e+06 0 -3.61249e+06 1.64778e+06 0 -4.12484e+06 1.11727e+06 0 -4.77988e+06 -3.57628e-07 0 </DataArray> 
</PointData> 
<Points> 
<DataArray type="Float32" NumberOfComponents="3"> 
0.1 0.045 0 0.100867 0.045 0 0.101733 0.045 0 0.1026 0.045 0 0.103467 0.045 0 0.104333 0.045 0 0.1052 0.045 0 0.106067 0.045 0 0.106933 0.045 0 0.1078 0.045 0 0.108667 0.045 0 0.109533 0.045 0 0.1104 0.045 0 0.111267 0.045 0 0.112133 0.045 0 0.113 0.045 0 0.0978533 0.0464889 0 0.0987669 0.046396 0 0.0996849 0.0463026 0 0.100607 0.0462088 0 0.101534 0.0461145 0 0.102466 0.0460198 0 0.103402 0.0459246 0 0.104343 0.0458289 0 0.105289 0.0457328 0 0.106239 0.0456361 0 0.107194 0.045539 0 0.108153 0.0454414 0 0.109118 0.0453434 0 0.110087 0.0452448 0 0.111062 0.0451457 0 0.112041 0.0450461 0 0.0957067 0.0479778 0 0.096665 0.0478038 0 0.0976321 0.0476282 0 0.0986081 0.047451 0 0.099593 0.0472721 0 0.100587 0.0470917 0 0.10159 0.0469095 0 0.102603 0.0467256 0 0.103625 0.0465401 0 0.104657 0.0463527 0 0.105698 0.0461636 0 0.106749 0.0459728 0 0.107811 0.04578 0 0.108882 0.0455855 0 0.109964 0.0453891 0 0.111056 0.0451907 0 0.09356 0.0494667 0 0.0945633 0.0492219 0 0.0955793 0.0489741 0 0.0966082 0.0487231 0 0.0976503 0.0484689 0 0.0987058 0.0482115 0 0.0997751 0.0479507 0 0.100858 0.0476864 0 0.101956 0.0474187 0 0.103068 0.0471475 0 0.104195 0.0468726 0 0.105337 0.0465941 0 0.106494 0.0463118 0 0.107667 0.0460256 0 0.108856 0.0457355 0 0.110062 0.0454415 0 0.0914133 0.0509556 0 0.0924638 0.0506491 0 0.0935306 0.0503378 0 0.0946141 0.0500217 0 0.0957146 0.0497007 0 0.0968327 0.0493745 0 0.0979686 0.0490431 0 0.0991228 0.0487063 0 0.100296 0.0483641 0 0.101488 0.0480163 0 0.1027 0.0476627 0 0.103932 0.0473032 0 0.105185 0.0469377 0 0.106459 0.046566 0 0.107755 0.0461879 0 0.109074 0.0458033 0 0.0892667 0.0524444 0 0.0903689 0.0520837 0 0.0914906 0.0517166 0 0.0926323 0.051343 0 0.0937945 0.0509626 0 0.0949778 0.0505753 0 0.0961828 0.050181 0 0.0974101 0.0497793 0 0.0986602 0.0493702 0 0.0999339 0.0489533 0 0.101232 0.0485286 0 0.102555 0.0480957 0 0.103903 0.0476544 0 0.105278 0.0472044 0 0.10668 0.0467456 0 0.10811 0.0462776 0 0.08712 0.0539333 0 0.0882807 0.0535244 0 0.0894636 0.0531076 0 0.0906693 0.0526827 0 0.0918985 0.0522497 0 0.0931518 0.051808 0 0.0944301 0.0513576 0 0.095734 0.0508982 0 0.0970643 0.0504295 0 0.0984218 0.0499512 0 0.0998074 0.0494629 0 0.101222 0.0489645 0 0.102666 0.0484556 0 0.104142 0.0479357 0 0.105649 0.0474047 0 0.107189 0.0468621 0 0.0849733 0.0554222 0 0.0862015 0.0549695 0 0.0874539 0.0545078 0 0.0887315 0.0540369 0 0.0900349 0.0535565 0 0.0913649 0.0530662 0 0.0927224 0.0525658 0 0.0941082 0.052055 0 0.0955232 0.0515334 0 0.0969684 0.0510007 0 0.0984446 0.0504566 0 0.099953 0.0499006 0 0.101495 0.0493323 0 0.103071 0.0487514 0 0.104682 0.0481574 0 0.10633 0.04755 0 0.0828267 0.0569111 0 0.0841334 0.0564177 0 0.085466 0.0559145 0 0.0868252 0.0554012 0 0.088212 0.0548775 0 0.0896271 0.0543431 0 0.0910715 0.0537977 0 0.0925459 0.053241 0 0.0940514 0.0526724 0 0.095589 0.0520918 0 0.0971598 0.0514987 0 0.0987647 0.0508926 0 0.100405 0.0502733 0 0.102082 0.0496401 0 0.103796 0.0489927 0 0.105549 0.0483306 0 0.08068 0.0584 0 0.0820786 0.0578673 0 0.0835039 0.0573244 0 0.0849567 0.0567711 0 0.0864377 0.056207 0 0.087948 0.0556318 0 0.0894882 0.0550452 0 0.0910593 0.0544468 0 0.0926622 0.0538362 0 0.094298 0.0532132 0 0.0959675 0.0525773 0 0.097672 0.0519281 0 0.0994125 0.0512652 0 0.10119 0.0505881 0 0.103006 0.0498965 0 0.104862 0.0491897 0 0.0785333 0.0598889 0 0.0800393 0.0593169 0 0.0815718 0.0587348 0 0.0831316 0.0581423 0 0.0847195 0.0575392 0 0.0863362 0.0569251 0 0.0879825 0.0562998 0 0.0896592 0.055663 0 0.0913672 0.0550142 0 0.0931073 0.0543533 0 0.0948806 0.0536797 0 0.0966878 0.0529933 0 0.0985301 0.0522936 0 0.100408 0.0515801 0 0.102324 0.0508526 0 0.104277 0.0501106 0 0.0763867 0.0613778 0 0.0780175 0.0607649 0 0.0796736 0.0601425 0 0.0813557 0.0595104 0 0.0830642 0.0588684 0 0.0847998 0.0582161 0 0.0865633 0.0575534 0 0.0883552 0.05688 0 0.0901762 0.0561957 0 0.0920271 0.0555001 0 0.0939087 0.054793 0 0.0958216 0.0540741 0 0.0977666 0.0533432 0 0.0997447 0.0525998 0 0.101757 0.0518438 0 0.103803 0.0510747 0 0.07424 0.0628667 0 0.0760154 0.0622098 0 0.0778132 0.0615447 0 0.079634 0.0608711 0 0.0814781 0.0601888 0 0.083346 0.0594978 0 0.0852381 0.0587978 0 0.087155 0.0580886 0 0.089097 0.0573701 0 0.0910648 0.0566421 0 0.0930588 0.0559044 0 0.0950796 0.0551568 0 0.0971277 0.0543991 0 0.0992036 0.053631 0 0.101308 0.0528525 0 0.103441 0.0520632 0 0.0720933 0.0643556 0 0.0740349 0.0636502 0 0.0759942 0.0629384 0 0.0779714 0.0622201 0 0.0799667 0.0614952 0 0.0819805 0.0607636 0 0.084013 0.0600252 0 0.0860644 0.0592799 0 0.0881351 0.0585277 0 0.0902252 0.0577683 0 0.092335 0.0570018 0 0.0944649 0.056228 0 0.0966151 0.0554469 0 0.098786 0.0546582 0 0.100978 0.053862 0 0.103191 0.053058 0 0.0699467 0.0658444 0 0.072078 0.0650845 0 0.0742198 0.0643208 0 0.0763721 0.0635534 0 0.0785349 0.0627822 0 0.0807084 0.0620072 0 0.0828926 0.0612284 0 0.0850876 0.0604457 0 0.0872935 0.0596592 0 0.0895103 0.0588687 0 0.0917382 0.0580744 0 0.0939772 0.057276 0 0.0962274 0.0564737 0 0.0984889 0.0556673 0 0.100762 0.0548569 0 0.103046 0.0540424 0 0.0678 0.0673333 0 0.0701467 0.0665112 0 0.0724933 0.0656891 0 0.07484 0.064867 0 0.0771867 0.064045 0 0.0795333 0.0632229 0 0.08188 0.0624008 0 0.0842267 0.0615787 0 0.0865733 0.0607566 0 0.08892 0.0599345 0 0.0912667 0.0591124 0 0.0936133 0.0582903 0 0.09596 0.0574682 0 0.0983067 0.0566461 0 0.100653 0.055824 0 0.103 0.0550019 0 
</DataArray>
</Points> 
</Piece> 
</StructuredGrid> 
</VTKFile> 
