<?xml version="1.0"?> 
<VTKFile type="StructuredGrid" version="0.1"> 
<StructuredGrid WholeExtent="0 15 0 15 0 0"> 
<Piece Extent="0 15 0 15 0 0"> 
<PointData>
<DataArray type="Float32" Name="|E|" format="ascii" NumberOfComponents="3"> 
1.07799e+06 -448275 0 1.63444e+06 -207855 0 1.77152e+06 -39898.8 0 1.73645e+06 65449.8 0 1.60285e+06 122326 0 1.43304e+06 137165 0 1.26181e+06 133516 0 1.10383e+06 120076 0 965832 103629 0 849031 86473.6 0 753259 69936.8 0 677249 54360.3 0 619759 39777.4 0 579590 26029.2 0 555862 12863.2 0 548017 0 0 1.13424e+06 -471663 0 1.64759e+06 -217584 0 1.78054e+06 -39868.7 0 1.73917e+06 72919.6 0 1.6019e+06 131603 0 1.43057e+06 146969 0 1.25892e+06 142551 0 1.10113e+06 128107 0 963477 110483 0 847089 92180.2 0 751680 74544.8 0 675980 57942.2 0 618727 42399.8 0 578725 27745.6 0 555096 13712.1 0 547283 0 0 1.18534e+06 -492912 0 1.66202e+06 -226852 0 1.78984e+06 -39114.7 0 1.74201e+06 80676.9 0 1.60096e+06 141080 0 1.42806e+06 156816 0 1.25598e+06 151594 0 1.09836e+06 136118 0 961060 117313 0 845084 97863.1 0 750043 79132.8 0 674657 61508.2 0 617642 45010.5 0 577811 29454.5 0 554281 14557.3 0 546502 0 0 1.23221e+06 -512406 0 1.67756e+06 -235591 0 1.79943e+06 -37654 0 1.74497e+06 88742 0 1.60004e+06 150754 0 1.42551e+06 166710 0 1.25297e+06 160644 0 1.09553e+06 144108 0 958579 124119 0 843017 103522 0 748348 83700.5 0 673278 65058.3 0 616506 47609.5 0 576846 31155.9 0 553419 15398.7 0 545673 0 0 1.27564e+06 -530463 0 1.69408e+06 -243747 0 1.80931e+06 -35497.2 0 1.74803e+06 97132.1 0 1.59911e+06 160620 0 1.42291e+06 176654 0 1.24991e+06 169701 0 1.09263e+06 152079 0 956034 130901 0 840887 109157 0 746595 88247.7 0 671843 68592.1 0 615317 50196.6 0 575832 32849.6 0 552508 16236.3 0 544796 0 0 1.31625e+06 -547351 0 1.71148e+06 -251278 0 1.81948e+06 -32648.5 0 1.75117e+06 105861 0 1.59816e+06 170676 0 1.42025e+06 186648 0 1.24679e+06 178763 0 1.08966e+06 160031 0 953425 137659 0 838695 114767 0 744783 92774.2 0 670354 72109.5 0 614077 52771.7 0 574769 34535.5 0 551549 17070 0 543872 0 0 1.3546e+06 -563298 0 1.72968e+06 -258154 0 1.82993e+06 -29106.7 0 1.75438e+06 114941 0 1.59719e+06 180921 0 1.41753e+06 196695 0 1.2436e+06 187830 0 1.08663e+06 167962 0 950751 144392 0 836440 120353 0 742913 97279.7 0 668810 75610.3 0 612785 55334.5 0 573656 36213.5 0 550542 17899.9 0 542899 0 0 1.39115e+06 -578498 0 1.74862e+06 -264349 0 1.84065e+06 -24865.9 0 1.75763e+06 124381 0 1.59619e+06 191352 0 1.41475e+06 206794 0 1.24035e+06 196902 0 1.08352e+06 175874 0 948012 151099 0 834123 125915 0 740986 101764 0 667212 79094.3 0 611442 57885 0 572493 37883.4 0 549486 18725.7 0 541880 0 0 1.42632e+06 -593121 0 1.76824e+06 -269845 0 1.85163e+06 -19915.7 0 1.76091e+06 134187 0 1.59514e+06 201969 0 1.4119e+06 216946 0 1.23703e+06 205977 0 1.08035e+06 183766 0 945208 157781 0 831744 131451 0 739000 106227 0 665558 82561.2 0 610046 60423 0 571281 39545.1 0 548383 19547.5 0 540812 0 0 1.46046e+06 -607319 0 1.78851e+06 -274628 0 1.86286e+06 -14241.1 0 1.7642e+06 144362 0 1.59404e+06 212773 0 1.40898e+06 227148 0 1.23364e+06 215056 0 1.0771e+06 191636 0 942338 164437 0 829303 136962 0 736956 110668 0 663850 86010.9 0 608600 62948.3 0 570020 41198.6 0 547232 20365.2 0 539698 0 0 1.49391e+06 -621229 0 1.8094e+06 -278688 0 1.87432e+06 -7822.36 0 1.76749e+06 154907 0 1.59287e+06 223763 0 1.40598e+06 237400 0 1.23017e+06 224139 0 1.07379e+06 199486 0 939403 171067 0 826799 142447 0 734855 115087 0 662088 89443.1 0 607102 65460.7 0 568709 42843.7 0 546033 21178.8 0 538536 0 0 1.52698e+06 -634981 0 1.83087e+06 -282020 0 1.886e+06 -634.152 0 1.77075e+06 165818 0 1.59163e+06 234943 0 1.4029e+06 247698 0 1.22663e+06 233226 0 1.0704e+06 207313 0 936401 177671 0 824233 147906 0 732696 119484 0 660272 92857.6 0 605553 67960.1 0 567350 44480.3 0 544786 21988.2 0 537326 0 0 1.55998e+06 -648704 0 1.8529e+06 -284622 0 1.89787e+06 7355.12 0 1.77397e+06 177088 0 1.5903e+06 246317 0 1.39973e+06 258036 0 1.22302e+06 242318 0 1.06694e+06 215117 0 933332 184249 0 821605 153339 0 730479 123859 0 658401 96254.2 0 603953 70446.3 0 565941 46108.3 0 543492 22793.3 0 536070 0 0 1.59322e+06 -662527 0 1.87547e+06 -286501 0 1.90992e+06 16184.9 0 1.77712e+06 188701 0 1.58887e+06 257893 0 1.39647e+06 268410 0 1.21932e+06 251417 0 1.06341e+06 222895 0 930196 190802 0 818914 158744 0 728204 128211 0 656476 99632.6 0 602302 72919.1 0 564484 47727.6 0 542150 23594.1 0 534766 0 0 1.62703e+06 -676586 0 1.89856e+06 -287670 0 1.92213e+06 25904.7 0 1.7802e+06 200638 0 1.58733e+06 269680 0 1.39313e+06 278808 0 1.21553e+06 260525 0 1.0598e+06 230645 0 926992 197328 0 816163 164122 0 725871 132540 0 654498 102993 0 600599 75378.4 0 562978 49338.1 0 540760 24390.4 0 533415 0 0 1.66176e+06 -691030 0 1.92214e+06 -288152 0 1.93447e+06 36575.7 0 1.78318e+06 212867 0 1.58567e+06 281695 0 1.38969e+06 289219 0 1.21166e+06 269649 0 1.05612e+06 238363 0 923718 203831 0 813350 169471 0 723481 136847 0 652466 106334 0 598846 77823.9 0 561423 50939.9 0 539323 25182.2 0 532018 0 0 </DataArray> 
</PointData> 
<Points> 
<DataArray type="Float32" NumberOfComponents="3"> 
0.1905 0.0099 0 0.202667 0.0099 0 0.214833 0.0099 0 0.227 0.0099 0 0.239167 0.0099 0 0.251333 0.0099 0 0.2635 0.0099 0 0.275667 0.0099 0 0.287833 0.0099 0 0.3 0.0099 0 0.312167 0.0099 0 0.324333 0.0099 0 0.3365 0.0099 0 0.348667 0.0099 0 0.360833 0.0099 0 0.373 0.0099 0 0.19078 0.0105733 0 0.202928 0.0105733 0 0.215076 0.0105733 0 0.227224 0.0105733 0 0.239372 0.0105733 0 0.25152 0.0105733 0 0.263668 0.0105733 0 0.275816 0.0105733 0 0.287964 0.0105733 0 0.300112 0.0105733 0 0.31226 0.0105733 0 0.324408 0.0105733 0 0.336556 0.0105733 0 0.348704 0.0105733 0 0.360852 0.0105733 0 0.373 0.0105733 0 0.19106 0.0112467 0 0.203189 0.0112467 0 0.215319 0.0112467 0 0.227448 0.0112467 0 0.239577 0.0112467 0 0.251707 0.0112467 0 0.263836 0.0112467 0 0.275965 0.0112467 0 0.288095 0.0112467 0 0.300224 0.0112467 0 0.312353 0.0112467 0 0.324483 0.0112467 0 0.336612 0.0112467 0 0.348741 0.0112467 0 0.360871 0.0112467 0 0.373 0.0112467 0 0.19134 0.01192 0 0.203451 0.01192 0 0.215561 0.01192 0 0.227672 0.01192 0 0.239783 0.01192 0 0.251893 0.01192 0 0.264004 0.01192 0 0.276115 0.01192 0 0.288225 0.01192 0 0.300336 0.01192 0 0.312447 0.01192 0 0.324557 0.01192 0 0.336668 0.01192 0 0.348779 0.01192 0 0.360889 0.01192 0 0.373 0.01192 0 0.19162 0.0125933 0 0.203712 0.0125933 0 0.215804 0.0125933 0 0.227896 0.0125933 0 0.239988 0.0125933 0 0.25208 0.0125933 0 0.264172 0.0125933 0 0.276264 0.0125933 0 0.288356 0.0125933 0 0.300448 0.0125933 0 0.31254 0.0125933 0 0.324632 0.0125933 0 0.336724 0.0125933 0 0.348816 0.0125933 0 0.360908 0.0125933 0 0.373 0.0125933 0 0.1919 0.0132667 0 0.203973 0.0132667 0 0.216047 0.0132667 0 0.22812 0.0132667 0 0.240193 0.0132667 0 0.252267 0.0132667 0 0.26434 0.0132667 0 0.276413 0.0132667 0 0.288487 0.0132667 0 0.30056 0.0132667 0 0.312633 0.0132667 0 0.324707 0.0132667 0 0.33678 0.0132667 0 0.348853 0.0132667 0 0.360927 0.0132667 0 0.373 0.0132667 0 0.19218 0.01394 0 0.204235 0.01394 0 0.216289 0.01394 0 0.228344 0.01394 0 0.240399 0.01394 0 0.252453 0.01394 0 0.264508 0.01394 0 0.276563 0.01394 0 0.288617 0.01394 0 0.300672 0.01394 0 0.312727 0.01394 0 0.324781 0.01394 0 0.336836 0.01394 0 0.348891 0.01394 0 0.360945 0.01394 0 0.373 0.01394 0 0.19246 0.0146133 0 0.204496 0.0146133 0 0.216532 0.0146133 0 0.228568 0.0146133 0 0.240604 0.0146133 0 0.25264 0.0146133 0 0.264676 0.0146133 0 0.276712 0.0146133 0 0.288748 0.0146133 0 0.300784 0.0146133 0 0.31282 0.0146133 0 0.324856 0.0146133 0 0.336892 0.0146133 0 0.348928 0.0146133 0 0.360964 0.0146133 0 0.373 0.0146133 0 0.19274 0.0152867 0 0.204757 0.0152867 0 0.216775 0.0152867 0 0.228792 0.0152867 0 0.240809 0.0152867 0 0.252827 0.0152867 0 0.264844 0.0152867 0 0.276861 0.0152867 0 0.288879 0.0152867 0 0.300896 0.0152867 0 0.312913 0.0152867 0 0.324931 0.0152867 0 0.336948 0.0152867 0 0.348965 0.0152867 0 0.360983 0.0152867 0 0.373 0.0152867 0 0.19302 0.01596 0 0.205019 0.01596 0 0.217017 0.01596 0 0.229016 0.01596 0 0.241015 0.01596 0 0.253013 0.01596 0 0.265012 0.01596 0 0.277011 0.01596 0 0.289009 0.01596 0 0.301008 0.01596 0 0.313007 0.01596 0 0.325005 0.01596 0 0.337004 0.01596 0 0.349003 0.01596 0 0.361001 0.01596 0 0.373 0.01596 0 0.1933 0.0166333 0 0.20528 0.0166333 0 0.21726 0.0166333 0 0.22924 0.0166333 0 0.24122 0.0166333 0 0.2532 0.0166333 0 0.26518 0.0166333 0 0.27716 0.0166333 0 0.28914 0.0166333 0 0.30112 0.0166333 0 0.3131 0.0166333 0 0.32508 0.0166333 0 0.33706 0.0166333 0 0.34904 0.0166333 0 0.36102 0.0166333 0 0.373 0.0166333 0 0.19358 0.0173067 0 0.205541 0.0173067 0 0.217503 0.0173067 0 0.229464 0.0173067 0 0.241425 0.0173067 0 0.253387 0.0173067 0 0.265348 0.0173067 0 0.277309 0.0173067 0 0.289271 0.0173067 0 0.301232 0.0173067 0 0.313193 0.0173067 0 0.325155 0.0173067 0 0.337116 0.0173067 0 0.349077 0.0173067 0 0.361039 0.0173067 0 0.373 0.0173067 0 0.19386 0.01798 0 0.205803 0.01798 0 0.217745 0.01798 0 0.229688 0.01798 0 0.241631 0.01798 0 0.253573 0.01798 0 0.265516 0.01798 0 0.277459 0.01798 0 0.289401 0.01798 0 0.301344 0.01798 0 0.313287 0.01798 0 0.325229 0.01798 0 0.337172 0.01798 0 0.349115 0.01798 0 0.361057 0.01798 0 0.373 0.01798 0 0.19414 0.0186533 0 0.206064 0.0186533 0 0.217988 0.0186533 0 0.229912 0.0186533 0 0.241836 0.0186533 0 0.25376 0.0186533 0 0.265684 0.0186533 0 0.277608 0.0186533 0 0.289532 0.0186533 0 0.301456 0.0186533 0 0.31338 0.0186533 0 0.325304 0.0186533 0 0.337228 0.0186533 0 0.349152 0.0186533 0 0.361076 0.0186533 0 0.373 0.0186533 0 0.19442 0.0193267 0 0.206325 0.0193267 0 0.218231 0.0193267 0 0.230136 0.0193267 0 0.242041 0.0193267 0 0.253947 0.0193267 0 0.265852 0.0193267 0 0.277757 0.0193267 0 0.289663 0.0193267 0 0.301568 0.0193267 0 0.313473 0.0193267 0 0.325379 0.0193267 0 0.337284 0.0193267 0 0.349189 0.0193267 0 0.361095 0.0193267 0 0.373 0.0193267 0 0.1947 0.02 0 0.206587 0.02 0 0.218473 0.02 0 0.23036 0.02 0 0.242247 0.02 0 0.254133 0.02 0 0.26602 0.02 0 0.277907 0.02 0 0.289793 0.02 0 0.30168 0.02 0 0.313567 0.02 0 0.325453 0.02 0 0.33734 0.02 0 0.349227 0.02 0 0.361113 0.02 0 0.373 0.02 0 
</DataArray>
</Points> 
</Piece> 
</StructuredGrid> 
</VTKFile> 
