<?xml version="1.0"?> 
<VTKFile type="StructuredGrid" version="0.1"> 
<StructuredGrid WholeExtent="0 15 0 15 0 0"> 
<Piece Extent="0 15 0 15 0 0"> 
<PointData>
<DataArray type="Float32" Name="|E|" format="ascii" NumberOfComponents="3"> 
1.66176e+06 -662838 0 1.92214e+06 -286959 0 1.93447e+06 35346 0 1.78318e+06 213551 0 1.58567e+06 281337 0 1.38969e+06 289394 0 1.21166e+06 269565 0 1.05612e+06 238401 0 923718 203815 0 813350 169477 0 723481 136845 0 652466 106334 0 598846 77824.2 0 561423 50939.4 0 539323 25182.6 0 532018 0 0 1.70953e+06 -681893 0 1.9659e+06 -285620 0 1.95648e+06 55021.5 0 1.78839e+06 236369 0 1.58272e+06 302613 0 1.38357e+06 308000 0 1.20481e+06 285595 0 1.04958e+06 252010 0 917885 215219 0 808306 178867 0 719174 144394 0 648782 112192 0 595649 82110.4 0 558572 53746 0 536678 26570.6 0 529441 0 0 1.75869e+06 -701501 0 2.01171e+06 -281360 0 1.97867e+06 77250.6 0 1.79314e+06 260406 0 1.57933e+06 324382 0 1.37712e+06 326734 0 1.19768e+06 301613 0 1.0428e+06 265544 0 911839 226536 0 803069 188172 0 714690 151871 0 644931 117991 0 592295 86353.9 0 555570 56524.4 0 533887 27944.7 0 526719 0 0 1.80968e+06 -721840 0 2.05971e+06 -273886 0 2.00083e+06 102117 0 1.79733e+06 285644 0 1.57547e+06 346623 0 1.37032e+06 345582 0 1.19027e+06 317612 0 1.03578e+06 278999 0 905579 237762 0 797640 197390 0 710028 159274 0 640916 123731 0 588785 90553.7 0 552419 59274.2 0 530950 29304.6 0 523853 0 0 1.86305e+06 -743127 0 2.11001e+06 -262815 0 2.02273e+06 129682 0 1.80085e+06 312060 0 1.57108e+06 369304 0 1.36313e+06 364528 0 1.18255e+06 333584 0 1.02852e+06 292370 0 899105 248894 0 792018 206519 0 705189 166601 0 636735 129411 0 585120 94708.8 0 549119 61994.7 0 527868 30650 0 520844 0 0 1.91947e+06 -765632 0 2.16272e+06 -247677 0 2.04411e+06 159980 0 1.80359e+06 339631 0 1.56611e+06 392389 0 1.35556e+06 383558 0 1.17454e+06 349520 0 1.02101e+06 305651 0 892415 259931 0 786204 215556 0 700174 173851 0 632392 135029 0 581300 98818.4 0 545672 64685.4 0 524642 31980.7 0 517691 0 0 1.97983e+06 -789708 0 2.21788e+06 -227898 0 2.06468e+06 193003 0 1.80545e+06 368330 0 1.56052e+06 415829 0 1.34758e+06 402660 0 1.1662e+06 365408 0 1.01326e+06 318838 0 885507 270868 0 780199 224501 0 694983 181022 0 627885 140585 0 577326 102882 0 542077 67345.6 0 521273 33296.2 0 514397 0 0 2.04531e+06 -815824 0 2.27545e+06 -202807 0 2.08412e+06 228698 0 1.80632e+06 398134 0 1.55427e+06 439566 0 1.33917e+06 421823 0 1.15755e+06 381234 0 1.00525e+06 331928 0 878382 281701 0 774004 233349 0 689617 188112 0 623218 146076 0 573200 106897 0 538336 69974.8 0 517761 34596.3 0 510962 0 0 2.11751e+06 -844624 0 2.33528e+06 -171639 0 2.10209e+06 266960 0 1.8061e+06 429023 0 1.54732e+06 463526 0 1.33032e+06 441043 0 1.14857e+06 396979 0 996994 344917 0 871039 292425 0 767620 242100 0 684076 195120 0 618389 151502 0 568921 110865 0 534450 72572.3 0 514108 35880.8 0 507386 0 0 2.19871e+06 -877014 0 2.39708e+06 -133558 0 2.11823e+06 307637 0 1.80471e+06 460975 0 1.53965e+06 487629 0 1.32101e+06 460318 0 1.13926e+06 412623 0 988483 357805 0 863479 303035 0 761046 250752 0 678363 202043 0 613401 156861 0 564492 114783 0 530419 75137.6 0 510314 37149.3 0 503670 0 0 2.29218e+06 -914297 0 2.46028e+06 -87711.3 0 2.13218e+06 350552 0 1.80204e+06 493949 0 1.53123e+06 511789 0 1.31123e+06 479649 0 1.12962e+06 428140 0 979713 370591 0 855703 313524 0 754283 259304 0 672478 208880 0 608254 162152 0 559913 118651 0 526245 77669.9 0 506379 38401.6 0 499815 0 0 2.40269e+06 -958376 0 2.52398e+06 -33339.1 0 2.1436e+06 395565 0 1.79802e+06 527852 0 1.52207e+06 535937 0 1.30095e+06 499029 0 1.11966e+06 443509 0 970677 383275 0 847717 323885 0 747330 267754 0 666423 215628 0 602950 167375 0 555185 122469 0 521928 80168.7 0 502306 39637.6 0 495823 0 0 2.5373e+06 -1.01207e+06 0 2.58677e+06 30037.3 0 2.15222e+06 442691 0 1.79254e+06 562463 0 1.51216e+06 560064 0 1.29014e+06 518424 0 1.10938e+06 458719 0 961368 395852 0 839523 334114 0 740186 276100 0 660201 222285 0 597488 172527 0 550311 126234 0 517469 82633.2 0 498095 40857 0 491693 0 0 2.70656e+06 -1.07958e+06 0 2.64649e+06 102279 0 2.15784e+06 492329 0 1.78553e+06 597290 0 1.5015e+06 584301 0 1.27879e+06 537724 0 1.0988e+06 473794 0 951779 408300 0 831128 344212 0 732849 284338 0 653815 228850 0 591868 177608 0 545290 129948 0 512870 85062.8 0 493747 42059.6 0 487429 0 0 2.92637e+06 -1.16726e+06 0 2.69998e+06 182056 0 2.16045e+06 545680 0 1.77694e+06 631301 0 1.49007e+06 609087 0 1.26691e+06 556658 0 1.08791e+06 488839 0 941916 420560 0 822530 354197 0 725321 292458 0 647265 235324 0 586093 182615 0 540126 133607 0 508130 87457.6 0 489263 43244.5 0 483029 0 0 3.22082e+06 -1.28471e+06 0 2.74254e+06 266021 0 2.16024e+06 605399 0 1.76676e+06 662496 0 1.47778e+06 635429 0 1.25458e+06 574638 0 1.07664e+06 504127 0 931812 432489 0 813711 364124 0 717614 300432 0 640548 241712 0 580167 187547 0 534816 137210 0 503253 89818.6 0 484644 44409.9 0 478496 0 0 </DataArray> 
</PointData> 
<Points> 
<DataArray type="Float32" NumberOfComponents="3"> 
0.1947 0.02 0 0.206587 0.02 0 0.218473 0.02 0 0.23036 0.02 0 0.242247 0.02 0 0.254133 0.02 0 0.26602 0.02 0 0.277907 0.02 0 0.289793 0.02 0 0.30168 0.02 0 0.313567 0.02 0 0.325453 0.02 0 0.33734 0.02 0 0.349227 0.02 0 0.361113 0.02 0 0.373 0.02 0 0.195173 0.0211867 0 0.207028 0.0211867 0 0.218884 0.0211867 0 0.230739 0.0211867 0 0.242594 0.0211867 0 0.254449 0.0211867 0 0.266304 0.0211867 0 0.278159 0.0211867 0 0.290014 0.0211867 0 0.301869 0.0211867 0 0.313724 0.0211867 0 0.32558 0.0211867 0 0.337435 0.0211867 0 0.34929 0.0211867 0 0.361145 0.0211867 0 0.373 0.0211867 0 0.195647 0.0223733 0 0.20747 0.0223733 0 0.219294 0.0223733 0 0.231117 0.0223733 0 0.242941 0.0223733 0 0.254764 0.0223733 0 0.266588 0.0223733 0 0.278412 0.0223733 0 0.290235 0.0223733 0 0.302059 0.0223733 0 0.313882 0.0223733 0 0.325706 0.0223733 0 0.337529 0.0223733 0 0.349353 0.0223733 0 0.361176 0.0223733 0 0.373 0.0223733 0 0.19612 0.02356 0 0.207912 0.02356 0 0.219704 0.02356 0 0.231496 0.02356 0 0.243288 0.02356 0 0.25508 0.02356 0 0.266872 0.02356 0 0.278664 0.02356 0 0.290456 0.02356 0 0.302248 0.02356 0 0.31404 0.02356 0 0.325832 0.02356 0 0.337624 0.02356 0 0.349416 0.02356 0 0.361208 0.02356 0 0.373 0.02356 0 0.196593 0.0247467 0 0.208354 0.0247467 0 0.220114 0.0247467 0 0.231875 0.0247467 0 0.243635 0.0247467 0 0.255396 0.0247467 0 0.267156 0.0247467 0 0.278916 0.0247467 0 0.290677 0.0247467 0 0.302437 0.0247467 0 0.314198 0.0247467 0 0.325958 0.0247467 0 0.337719 0.0247467 0 0.349479 0.0247467 0 0.36124 0.0247467 0 0.373 0.0247467 0 0.197067 0.0259333 0 0.208796 0.0259333 0 0.220524 0.0259333 0 0.232253 0.0259333 0 0.243982 0.0259333 0 0.255711 0.0259333 0 0.26744 0.0259333 0 0.279169 0.0259333 0 0.290898 0.0259333 0 0.302627 0.0259333 0 0.314356 0.0259333 0 0.326084 0.0259333 0 0.337813 0.0259333 0 0.349542 0.0259333 0 0.361271 0.0259333 0 0.373 0.0259333 0 0.19754 0.02712 0 0.209237 0.02712 0 0.220935 0.02712 0 0.232632 0.02712 0 0.244329 0.02712 0 0.256027 0.02712 0 0.267724 0.02712 0 0.279421 0.02712 0 0.291119 0.02712 0 0.302816 0.02712 0 0.314513 0.02712 0 0.326211 0.02712 0 0.337908 0.02712 0 0.349605 0.02712 0 0.361303 0.02712 0 0.373 0.02712 0 0.198013 0.0283067 0 0.209679 0.0283067 0 0.221345 0.0283067 0 0.233011 0.0283067 0 0.244676 0.0283067 0 0.256342 0.0283067 0 0.268008 0.0283067 0 0.279674 0.0283067 0 0.29134 0.0283067 0 0.303005 0.0283067 0 0.314671 0.0283067 0 0.326337 0.0283067 0 0.338003 0.0283067 0 0.349668 0.0283067 0 0.361334 0.0283067 0 0.373 0.0283067 0 0.198487 0.0294933 0 0.210121 0.0294933 0 0.221755 0.0294933 0 0.233389 0.0294933 0 0.245024 0.0294933 0 0.256658 0.0294933 0 0.268292 0.0294933 0 0.279926 0.0294933 0 0.29156 0.0294933 0 0.303195 0.0294933 0 0.314829 0.0294933 0 0.326463 0.0294933 0 0.338097 0.0294933 0 0.349732 0.0294933 0 0.361366 0.0294933 0 0.373 0.0294933 0 0.19896 0.03068 0 0.210563 0.03068 0 0.222165 0.03068 0 0.233768 0.03068 0 0.245371 0.03068 0 0.256973 0.03068 0 0.268576 0.03068 0 0.280179 0.03068 0 0.291781 0.03068 0 0.303384 0.03068 0 0.314987 0.03068 0 0.326589 0.03068 0 0.338192 0.03068 0 0.349795 0.03068 0 0.361397 0.03068 0 0.373 0.03068 0 0.199433 0.0318667 0 0.211004 0.0318667 0 0.222576 0.0318667 0 0.234147 0.0318667 0 0.245718 0.0318667 0 0.257289 0.0318667 0 0.26886 0.0318667 0 0.280431 0.0318667 0 0.292002 0.0318667 0 0.303573 0.0318667 0 0.315144 0.0318667 0 0.326716 0.0318667 0 0.338287 0.0318667 0 0.349858 0.0318667 0 0.361429 0.0318667 0 0.373 0.0318667 0 0.199907 0.0330533 0 0.211446 0.0330533 0 0.222986 0.0330533 0 0.234525 0.0330533 0 0.246065 0.0330533 0 0.257604 0.0330533 0 0.269144 0.0330533 0 0.280684 0.0330533 0 0.292223 0.0330533 0 0.303763 0.0330533 0 0.315302 0.0330533 0 0.326842 0.0330533 0 0.338381 0.0330533 0 0.349921 0.0330533 0 0.36146 0.0330533 0 0.373 0.0330533 0 0.20038 0.03424 0 0.211888 0.03424 0 0.223396 0.03424 0 0.234904 0.03424 0 0.246412 0.03424 0 0.25792 0.03424 0 0.269428 0.03424 0 0.280936 0.03424 0 0.292444 0.03424 0 0.303952 0.03424 0 0.31546 0.03424 0 0.326968 0.03424 0 0.338476 0.03424 0 0.349984 0.03424 0 0.361492 0.03424 0 0.373 0.03424 0 0.200853 0.0354267 0 0.21233 0.0354267 0 0.223806 0.0354267 0 0.235283 0.0354267 0 0.246759 0.0354267 0 0.258236 0.0354267 0 0.269712 0.0354267 0 0.281188 0.0354267 0 0.292665 0.0354267 0 0.304141 0.0354267 0 0.315618 0.0354267 0 0.327094 0.0354267 0 0.338571 0.0354267 0 0.350047 0.0354267 0 0.361524 0.0354267 0 0.373 0.0354267 0 0.201327 0.0366133 0 0.212772 0.0366133 0 0.224216 0.0366133 0 0.235661 0.0366133 0 0.247106 0.0366133 0 0.258551 0.0366133 0 0.269996 0.0366133 0 0.281441 0.0366133 0 0.292886 0.0366133 0 0.304331 0.0366133 0 0.315776 0.0366133 0 0.32722 0.0366133 0 0.338665 0.0366133 0 0.35011 0.0366133 0 0.361555 0.0366133 0 0.373 0.0366133 0 0.2018 0.0378 0 0.213213 0.0378 0 0.224627 0.0378 0 0.23604 0.0378 0 0.247453 0.0378 0 0.258867 0.0378 0 0.27028 0.0378 0 0.281693 0.0378 0 0.293107 0.0378 0 0.30452 0.0378 0 0.315933 0.0378 0 0.327347 0.0378 0 0.33876 0.0378 0 0.350173 0.0378 0 0.361587 0.0378 0 0.373 0.0378 0 
</DataArray>
</Points> 
</Piece> 
</StructuredGrid> 
</VTKFile> 
