<?xml version="1.0"?> 
<VTKFile type="StructuredGrid" version="0.1"> 
<StructuredGrid WholeExtent="0 15 0 15 0 0"> 
<Piece Extent="0 15 0 15 0 0"> 
<PointData>
<DataArray type="Float32" Name="|E|" format="ascii" NumberOfComponents="3"> 
1.32235e+06 2.38419e-06 0 1.55645e+06 -0.0115702 0 1.71423e+06 -0.0153882 0 1.70584e+06 0.02411 0 1.59359e+06 0.000644328 0 1.43597e+06 0.00739296 0 1.26959e+06 0.000224463 0 1.11335e+06 0.00138583 0 975159 -0.000168839 0 857683 6.88061e-06 0 760971 -0.000219095 0 684120 -0.000186753 0 625913 -0.000155266 0 585229 -0.000120504 0 561186 -5.06919e-05 0 553236 0 0 1.32196e+06 -3.10363e-07 0 1.55651e+06 -6554.38 0 1.71429e+06 -1840.26 0 1.70588e+06 1967.67 0 1.59361e+06 3907.38 0 1.43598e+06 4550.95 0 1.26958e+06 4463.38 0 1.11335e+06 4043.88 0 975151 3497.08 0 857675 2923.3 0 760963 2365.71 0 684113 1839.54 0 625907 1346.31 0 585223 881.025 0 561180 435.436 0 553230 0 0 1.32078e+06 7.35745e-08 0 1.55668e+06 -13110.2 0 1.71448e+06 -3682.58 0 1.70599e+06 3938.53 0 1.59366e+06 7814.84 0 1.43598e+06 9102.87 0 1.26957e+06 8926.79 0 1.11333e+06 8087.95 0 975128 6994.15 0 857652 5846.6 0 760941 4731.39 0 684092 3679.05 0 625887 2692.61 0 585205 1762.03 0 561162 870.866 0 553212 0 0 1.31881e+06 1.52737e-07 0 1.55697e+06 -19668.9 0 1.7148e+06 -5529.05 0 1.70619e+06 5915.78 0 1.59374e+06 11722.4 0 1.436e+06 13656.7 0 1.26955e+06 13390.3 0 1.11329e+06 12132.4 0 975089 10491.2 0 857613 8769.9 0 760904 7097.01 0 684057 5518.51 0 625855 4038.86 0 585174 2643.01 0 561132 1306.28 0 553182 0 0 1.31602e+06 -1.9744e-07 0 1.55738e+06 -26231.5 0 1.71524e+06 -7381.91 0 1.70646e+06 7902.71 0 1.59385e+06 15630.2 0 1.43602e+06 18213.6 0 1.26952e+06 17853.8 0 1.11324e+06 16177.4 0 975034 13988.1 0 857559 11693.2 0 760852 9462.54 0 684008 7357.9 0 625809 5385.05 0 585130 3523.94 0 561090 1741.68 0 553141 0 0 1.3124e+06 2.01166e-07 0 1.55792e+06 -32798.7 0 1.7158e+06 -9243.63 0 1.7068e+06 9902.76 0 1.594e+06 19538 0 1.43604e+06 22774.4 0 1.26949e+06 22317.3 0 1.11318e+06 20223.1 0 974964 17484.9 0 857489 14616.5 0 760785 11828 0 683946 9197.19 0 625750 6731.16 0 585074 4404.81 0 561036 2177.05 0 553087 0 0 1.30793e+06 3.57628e-07 0 1.55858e+06 -39370.9 0 1.71649e+06 -11116.9 0 1.70723e+06 11919.5 0 1.59418e+06 23445.7 0 1.43607e+06 27340.4 0 1.26944e+06 26780.9 0 1.1131e+06 24269.8 0 974879 20981.7 0 857403 17539.9 0 760704 14193.2 0 683869 11036.4 0 625678 8077.17 0 585006 5285.59 0 560970 2612.39 0 553022 0 0 1.30256e+06 -6.4075e-07 0 1.55938e+06 -45947.6 0 1.71731e+06 -13004.9 0 1.70773e+06 13956.8 0 1.59439e+06 27353.1 0 1.4361e+06 31912.5 0 1.26939e+06 31244.5 0 1.11301e+06 28317.7 0 974777 24478.2 0 857302 20463.2 0 760607 16558.3 0 683779 12875.4 0 625593 9423.06 0 584926 6166.28 0 560892 3047.69 0 552945 0 0 1.29627e+06 4.32134e-07 0 1.56032e+06 -52527.7 0 1.71825e+06 -14911 0 1.70831e+06 16018.6 0 1.59463e+06 31259.8 0 1.43614e+06 36492.2 0 1.26933e+06 35707.9 0 1.11291e+06 32367.1 0 974661 27974.5 0 857185 23386.6 0 760496 18923.2 0 683674 14714.2 0 625495 10768.8 0 584833 7046.86 0 560802 3482.95 0 552856 0 0 1.28899e+06 -3.42727e-07 0 1.56142e+06 -59109.1 0 1.71931e+06 -16839.4 0 1.70896e+06 18109.4 0 1.59491e+06 35165.1 0 1.43618e+06 41080.5 0 1.26926e+06 40171 0 1.11279e+06 36418.1 0 974528 31470.5 0 857052 26310 0 760370 21287.9 0 683556 16552.9 0 625384 12114.4 0 584727 7927.3 0 560701 3918.15 0 552756 0 0 1.28069e+06 1.19209e-07 0 1.56268e+06 -65688.6 0 1.7205e+06 -18794.8 0 1.7097e+06 20233.9 0 1.59522e+06 39068.4 0 1.43623e+06 45679.1 0 1.26918e+06 44633.7 0 1.11266e+06 40471.1 0 974381 34966.2 0 856903 29233.5 0 760229 23652.2 0 683424 18391.3 0 625260 13459.8 0 584609 8807.6 0 560587 4353.31 0 552643 0 0 1.27128e+06 -2.38419e-07 0 1.56412e+06 -72261.8 0 1.72181e+06 -20782.5 0 1.7105e+06 22397.4 0 1.59556e+06 42968.5 0 1.43628e+06 50289.4 0 1.2691e+06 49095.6 0 1.11251e+06 44526.3 0 974218 38461.4 0 856739 32157.1 0 760074 26016.3 0 683277 20229.5 0 625123 14805 0 584479 9687.73 0 560461 4788.41 0 552519 0 0 1.26071e+06 2.68221e-07 0 1.56575e+06 -78822.7 0 1.72324e+06 -22808.8 0 1.71139e+06 24605.7 0 1.59594e+06 46864.2 0 1.43633e+06 54913 0 1.26901e+06 53556.4 0 1.11235e+06 48584.2 0 974039 41956.1 0 856559 35080.8 0 759904 28380 0 683117 22067.4 0 624973 16150 0 584336 10567.7 0 560323 5223.44 0 552383 0 0 1.24889e+06 -8.9407e-08 0 1.56759e+06 -85363.5 0 1.72479e+06 -24881.2 0 1.71235e+06 26864.9 0 1.59635e+06 50753.9 0 1.43638e+06 59551.9 0 1.26891e+06 58015.7 0 1.11217e+06 52645.1 0 973846 45450.2 0 856363 38004.6 0 759719 30743.3 0 682943 23905.1 0 624810 17494.8 0 584181 11447.4 0 560173 5658.41 0 552235 0 0 1.23572e+06 -3.57628e-07 0 1.56965e+06 -91874.7 0 1.72646e+06 -27007.9 0 1.71338e+06 29182.3 0 1.59679e+06 54635.4 0 1.43644e+06 64208.1 0 1.2688e+06 62473.1 0 1.11198e+06 56709.4 0 973637 48943.5 0 856152 40928.6 0 759519 33106.2 0 682755 25742.4 0 624634 18839.3 0 584014 12326.9 0 560011 6093.32 0 552075 0 0 1.2211e+06 1.43051e-06 0 1.57196e+06 -98344.5 0 1.72825e+06 -29198.8 0 1.7145e+06 31565.5 0 1.59727e+06 58506.5 0 1.4365e+06 68883.9 0 1.26869e+06 66927.8 0 1.11177e+06 60777.7 0 973414 52435.9 0 855924 43852.9 0 759305 35468.7 0 682553 27579.3 0 624445 20183.6 0 583834 13206.2 0 559838 6528.16 0 551903 0 0 </DataArray> 
</PointData> 
<Points> 
<DataArray type="Float32" NumberOfComponents="3"> 
0.19 0 0 0.2022 0 0 0.2144 0 0 0.2266 0 0 0.2388 0 0 0.251 0 0 0.2632 0 0 0.2754 0 0 0.2876 0 0 0.2998 0 0 0.312 0 0 0.3242 0 0 0.3364 0 0 0.3486 0 0 0.3608 0 0 0.373 0 0 0.19 0.000333333 0 0.2022 0.000333333 0 0.2144 0.000333333 0 0.2266 0.000333333 0 0.2388 0.000333333 0 0.251 0.000333333 0 0.2632 0.000333333 0 0.2754 0.000333333 0 0.2876 0.000333333 0 0.2998 0.000333333 0 0.312 0.000333333 0 0.3242 0.000333333 0 0.3364 0.000333333 0 0.3486 0.000333333 0 0.3608 0.000333333 0 0.373 0.000333333 0 0.19 0.000666667 0 0.2022 0.000666667 0 0.2144 0.000666667 0 0.2266 0.000666667 0 0.2388 0.000666667 0 0.251 0.000666667 0 0.2632 0.000666667 0 0.2754 0.000666667 0 0.2876 0.000666667 0 0.2998 0.000666667 0 0.312 0.000666667 0 0.3242 0.000666667 0 0.3364 0.000666667 0 0.3486 0.000666667 0 0.3608 0.000666667 0 0.373 0.000666667 0 0.19 0.001 0 0.2022 0.001 0 0.2144 0.001 0 0.2266 0.001 0 0.2388 0.001 0 0.251 0.001 0 0.2632 0.001 0 0.2754 0.001 0 0.2876 0.001 0 0.2998 0.001 0 0.312 0.001 0 0.3242 0.001 0 0.3364 0.001 0 0.3486 0.001 0 0.3608 0.001 0 0.373 0.001 0 0.19 0.00133333 0 0.2022 0.00133333 0 0.2144 0.00133333 0 0.2266 0.00133333 0 0.2388 0.00133333 0 0.251 0.00133333 0 0.2632 0.00133333 0 0.2754 0.00133333 0 0.2876 0.00133333 0 0.2998 0.00133333 0 0.312 0.00133333 0 0.3242 0.00133333 0 0.3364 0.00133333 0 0.3486 0.00133333 0 0.3608 0.00133333 0 0.373 0.00133333 0 0.19 0.00166667 0 0.2022 0.00166667 0 0.2144 0.00166667 0 0.2266 0.00166667 0 0.2388 0.00166667 0 0.251 0.00166667 0 0.2632 0.00166667 0 0.2754 0.00166667 0 0.2876 0.00166667 0 0.2998 0.00166667 0 0.312 0.00166667 0 0.3242 0.00166667 0 0.3364 0.00166667 0 0.3486 0.00166667 0 0.3608 0.00166667 0 0.373 0.00166667 0 0.19 0.002 0 0.2022 0.002 0 0.2144 0.002 0 0.2266 0.002 0 0.2388 0.002 0 0.251 0.002 0 0.2632 0.002 0 0.2754 0.002 0 0.2876 0.002 0 0.2998 0.002 0 0.312 0.002 0 0.3242 0.002 0 0.3364 0.002 0 0.3486 0.002 0 0.3608 0.002 0 0.373 0.002 0 0.19 0.00233333 0 0.2022 0.00233333 0 0.2144 0.00233333 0 0.2266 0.00233333 0 0.2388 0.00233333 0 0.251 0.00233333 0 0.2632 0.00233333 0 0.2754 0.00233333 0 0.2876 0.00233333 0 0.2998 0.00233333 0 0.312 0.00233333 0 0.3242 0.00233333 0 0.3364 0.00233333 0 0.3486 0.00233333 0 0.3608 0.00233333 0 0.373 0.00233333 0 0.19 0.00266667 0 0.2022 0.00266667 0 0.2144 0.00266667 0 0.2266 0.00266667 0 0.2388 0.00266667 0 0.251 0.00266667 0 0.2632 0.00266667 0 0.2754 0.00266667 0 0.2876 0.00266667 0 0.2998 0.00266667 0 0.312 0.00266667 0 0.3242 0.00266667 0 0.3364 0.00266667 0 0.3486 0.00266667 0 0.3608 0.00266667 0 0.373 0.00266667 0 0.19 0.003 0 0.2022 0.003 0 0.2144 0.003 0 0.2266 0.003 0 0.2388 0.003 0 0.251 0.003 0 0.2632 0.003 0 0.2754 0.003 0 0.2876 0.003 0 0.2998 0.003 0 0.312 0.003 0 0.3242 0.003 0 0.3364 0.003 0 0.3486 0.003 0 0.3608 0.003 0 0.373 0.003 0 0.19 0.00333333 0 0.2022 0.00333333 0 0.2144 0.00333333 0 0.2266 0.00333333 0 0.2388 0.00333333 0 0.251 0.00333333 0 0.2632 0.00333333 0 0.2754 0.00333333 0 0.2876 0.00333333 0 0.2998 0.00333333 0 0.312 0.00333333 0 0.3242 0.00333333 0 0.3364 0.00333333 0 0.3486 0.00333333 0 0.3608 0.00333333 0 0.373 0.00333333 0 0.19 0.00366667 0 0.2022 0.00366667 0 0.2144 0.00366667 0 0.2266 0.00366667 0 0.2388 0.00366667 0 0.251 0.00366667 0 0.2632 0.00366667 0 0.2754 0.00366667 0 0.2876 0.00366667 0 0.2998 0.00366667 0 0.312 0.00366667 0 0.3242 0.00366667 0 0.3364 0.00366667 0 0.3486 0.00366667 0 0.3608 0.00366667 0 0.373 0.00366667 0 0.19 0.004 0 0.2022 0.004 0 0.2144 0.004 0 0.2266 0.004 0 0.2388 0.004 0 0.251 0.004 0 0.2632 0.004 0 0.2754 0.004 0 0.2876 0.004 0 0.2998 0.004 0 0.312 0.004 0 0.3242 0.004 0 0.3364 0.004 0 0.3486 0.004 0 0.3608 0.004 0 0.373 0.004 0 0.19 0.00433333 0 0.2022 0.00433333 0 0.2144 0.00433333 0 0.2266 0.00433333 0 0.2388 0.00433333 0 0.251 0.00433333 0 0.2632 0.00433333 0 0.2754 0.00433333 0 0.2876 0.00433333 0 0.2998 0.00433333 0 0.312 0.00433333 0 0.3242 0.00433333 0 0.3364 0.00433333 0 0.3486 0.00433333 0 0.3608 0.00433333 0 0.373 0.00433333 0 0.19 0.00466667 0 0.2022 0.00466667 0 0.2144 0.00466667 0 0.2266 0.00466667 0 0.2388 0.00466667 0 0.251 0.00466667 0 0.2632 0.00466667 0 0.2754 0.00466667 0 0.2876 0.00466667 0 0.2998 0.00466667 0 0.312 0.00466667 0 0.3242 0.00466667 0 0.3364 0.00466667 0 0.3486 0.00466667 0 0.3608 0.00466667 0 0.373 0.00466667 0 0.19 0.005 0 0.2022 0.005 0 0.2144 0.005 0 0.2266 0.005 0 0.2388 0.005 0 0.251 0.005 0 0.2632 0.005 0 0.2754 0.005 0 0.2876 0.005 0 0.2998 0.005 0 0.312 0.005 0 0.3242 0.005 0 0.3364 0.005 0 0.3486 0.005 0 0.3608 0.005 0 0.373 0.005 0 
</DataArray>
</Points> 
</Piece> 
</StructuredGrid> 
</VTKFile> 
