<?xml version="1.0"?> 
<VTKFile type="StructuredGrid" version="0.1"> 
<StructuredGrid WholeExtent="0 15 0 15 0 0"> 
<Piece Extent="0 15 0 15 0 0"> 
<PointData>
<DataArray type="Float32" Name="|E|" format="ascii" NumberOfComponents="3"> 
-2.10879e+06 0 0 -2.11495e+06 25188.7 0 -2.13351e+06 50769.2 0 -2.16476e+06 77152.8 0 -2.20917e+06 104792 0 -2.26745e+06 134190 0 -2.3406e+06 165918 0 -2.42997e+06 200628 0 -2.53738e+06 238756 0 -2.6652e+06 280630 0 -2.81692e+06 325409 0 -2.99668e+06 367964 0 -3.20949e+06 397260 0 -3.45543e+06 384741 0 -3.6963e+06 270680 0 -3.81545e+06 -15743.9 0 -2.10675e+06 0 0 -2.11216e+06 24560.6 0 -2.12846e+06 49457.3 0 -2.15586e+06 75038.8 0 -2.19474e+06 101688 0 -2.24562e+06 129828 0 -2.30927e+06 159932 0 -2.38666e+06 192550 0 -2.47918e+06 228192 0 -2.58853e+06 267192 0 -2.71716e+06 309643 0 -2.86849e+06 353839 0 -3.04647e+06 394335 0 -3.25663e+06 417756 0 -3.49757e+06 390246 0 -3.73106e+06 238744 0 -2.10462e+06 0 0 -2.10933e+06 23810.6 0 -2.12352e+06 47905 0 -2.14736e+06 72575.6 0 -2.1811e+06 98140.7 0 -2.22517e+06 124950 0 -2.28011e+06 153394 0 -2.34664e+06 183912 0 -2.42575e+06 216985 0 -2.5187e+06 253010 0 -2.62712e+06 292214 0 -2.75341e+06 334465 0 -2.90074e+06 377678 0 -3.07291e+06 416695 0 -3.27586e+06 437727 0 -3.50896e+06 405328 0 -2.10241e+06 0 0 -2.10648e+06 22939.1 0 -2.11871e+06 46113.6 0 -2.13924e+06 69765.8 0 -2.16825e+06 94155.5 0 -2.20605e+06 119567 0 -2.25304e+06 146315 0 -2.30974e+06 174754 0 -2.37683e+06 205265 0 -2.45522e+06 238272 0 -2.54602e+06 274051 0 -2.65072e+06 312807 0 -2.7716e+06 354168 0 -2.91137e+06 396468 0 -3.07375e+06 434747 0 -3.26434e+06 458394 0 -2.10013e+06 0 0 -2.1036e+06 21946.3 0 -2.11403e+06 44084.5 0 -2.1315e+06 66611.4 0 -2.15617e+06 89735.7 0 -2.18825e+06 113684 0 -2.22801e+06 138704 0 -2.27583e+06 165077 0 -2.33218e+06 193102 0 -2.39766e+06 223116 0 -2.47306e+06 255455 0 -2.55933e+06 290368 0 -2.65776e+06 327970 0 -2.77032e+06 367933 0 -2.89933e+06 409048 0 -3.04796e+06 448664 0 -2.09777e+06 0 0 -2.10068e+06 20832.8 0 -2.10946e+06 41818.7 0 -2.12414e+06 63114.4 0 -2.14485e+06 84884 0 -2.17172e+06 107305 0 -2.20494e+06 130568 0 -2.24478e+06 154887 0 -2.29156e+06 180497 0 -2.34566e+06 207648 0 -2.4076e+06 236623 0 -2.47802e+06 267687 0 -2.55768e+06 301104 0 -2.64766e+06 336921 0 -2.74948e+06 374903 0 -2.86502e+06 414682 0 -2.09533e+06 0 0 -2.09774e+06 19599 0 -2.10501e+06 39317.2 0 -2.11716e+06 59276.2 0 -2.13427e+06 79602.4 0 -2.15643e+06 100431 0 -2.18378e+06 121905 0 -2.21649e+06 144184 0 -2.25476e+06 167443 0 -2.29885e+06 191869 0 -2.34909e+06 217674 0 -2.40586e+06 245063 0 -2.46967e+06 274272 0 -2.54109e+06 305538 0 -2.62091e+06 338919 0 -2.71025e+06 374467 0 -2.09281e+06 0 0 -2.09477e+06 18245.4 0 -2.10067e+06 36580.9 0 -2.11054e+06 55098.2 0 -2.12441e+06 73891.8 0 -2.14236e+06 93061.4 0 -2.16446e+06 112713 0 -2.19083e+06 132961 0 -2.2216e+06 153929 0 -2.25693e+06 175753 0 -2.29702e+06 198583 0 -2.34209e+06 222580 0 -2.39245e+06 247902 0 -2.44845e+06 274736 0 -2.51049e+06 303277 0 -2.57912e+06 333720 0 -2.09022e+06 0 0 -2.09177e+06 16772.5 0 -2.09646e+06 33610.8 0 -2.10428e+06 50581.4 0 -2.11528e+06 67752.7 0 -2.12948e+06 85196 0 -2.14694e+06 102986 0 -2.16773e+06 121203 0 -2.19193e+06 139933 0 -2.21964e+06 159267 0 -2.25097e+06 179306 0 -2.28605e+06 200159 0 -2.32505e+06 221946 0 -2.36817e+06 244783 0 -2.41564e+06 268801 0 -2.46773e+06 294198 0 -2.08754e+06 0 0 -2.08875e+06 15180.8 0 -2.09236e+06 30407.5 0 -2.09838e+06 45726.3 0 -2.10685e+06 61184.6 0 -2.11777e+06 76831.2 0 -2.13117e+06 92716.9 0 -2.14711e+06 108895 0 -2.16562e+06 125422 0 -2.18675e+06 142358 0 -2.21058e+06 159769 0 -2.23718e+06 177723 0 -2.26663e+06 196295 0 -2.29905e+06 215568 0 -2.33454e+06 235617 0 -2.37325e+06 256546 0 -2.0848e+06 0 0 -2.08569e+06 13470.8 0 -2.08837e+06 26971.9 0 -2.09284e+06 40533.5 0 -2.09911e+06 54186.5 0 -2.1072e+06 67962.6 0 -2.11712e+06 81894.6 0 -2.12888e+06 96016 0 -2.14253e+06 110362 0 -2.15808e+06 124970 0 -2.17556e+06 139879 0 -2.19503e+06 155130 0 -2.21652e+06 170769 0 -2.24009e+06 186843 0 -2.26578e+06 203402 0 -2.29368e+06 220507 0 -2.08197e+06 0 0 -2.0826e+06 11643.1 0 -2.08449e+06 23304.5 0 -2.08764e+06 35002.8 0 -2.09206e+06 46756.6 0 -2.09776e+06 58584.9 0 -2.10473e+06 70507.3 0 -2.113e+06 82543.5 0 -2.12256e+06 94714.1 0 -2.13345e+06 107040 0 -2.14567e+06 119544 0 -2.15924e+06 132248 0 -2.17419e+06 145176 0 -2.19053e+06 158355 0 -2.2083e+06 171810 0 -2.22751e+06 185573 0 -2.07907e+06 0 0 -2.07948e+06 9698 0 -2.08072e+06 19406.1 0 -2.08279e+06 29134.3 0 -2.08569e+06 38892.6 0 -2.08942e+06 48691.4 0 -2.09398e+06 58540.9 0 -2.09939e+06 68451.9 0 -2.10563e+06 78435.1 0 -2.11273e+06 88501.3 0 -2.12069e+06 98661.6 0 -2.12951e+06 108927 0 -2.13921e+06 119311 0 -2.14979e+06 129823 0 -2.16126e+06 140479 0 -2.17364e+06 151291 0 -2.0761e+06 0 0 -2.07634e+06 7636.22 0 -2.07707e+06 15277.1 0 -2.07828e+06 22927.2 0 -2.07998e+06 30591.3 0 -2.08216e+06 38273.9 0 -2.08484e+06 45979.7 0 -2.088e+06 53713.3 0 -2.09166e+06 61479.8 0 -2.09581e+06 69284 0 -2.10045e+06 77130.6 0 -2.1056e+06 85024.3 0 -2.11124e+06 92970 0 -2.11739e+06 100972 0 -2.12404e+06 109036 0 -2.13121e+06 117166 0 -2.07304e+06 0 0 -2.07316e+06 5458.24 0 -2.07351e+06 10918.1 0 -2.0741e+06 16381.1 0 -2.07492e+06 21848.9 0 -2.07598e+06 27323.1 0 -2.07728e+06 32805.3 0 -2.07881e+06 38296.8 0 -2.08057e+06 43799.3 0 -2.08258e+06 49314.3 0 -2.08482e+06 54843.5 0 -2.0873e+06 60388.5 0 -2.09001e+06 65951 0 -2.09297e+06 71532.5 0 -2.09617e+06 77134.4 0 -2.0996e+06 82758.6 0 -2.06992e+06 0 0 -2.06995e+06 3164.6 0 -2.07007e+06 6329.51 0 -2.07025e+06 9495.08 0 -2.07052e+06 12661.7 0 -2.07085e+06 15829.5 0 -2.07127e+06 18998.5 0 -2.07175e+06 22169.2 0 -2.07232e+06 25342.3 0 -2.07296e+06 28518.4 0 -2.07367e+06 31698.3 0 -2.07446e+06 34882.5 0 -2.07532e+06 38071.3 0 -2.07626e+06 41264.8 0 -2.07728e+06 44463.8 0 -2.07837e+06 47668.6 0 </DataArray> 
</PointData> 
<Points> 
<DataArray type="Float32" NumberOfComponents="3"> 
0 0.01 0 0.005 0.01 0 0.01 0.01 0 0.015 0.01 0 0.02 0.01 0 0.025 0.01 0 0.03 0.01 0 0.035 0.01 0 0.04 0.01 0 0.045 0.01 0 0.05 0.01 0 0.055 0.01 0 0.06 0.01 0 0.065 0.01 0 0.07 0.01 0 0.075 0.01 0 0 0.0104 0 0.00469333 0.0104 0 0.00938667 0.0104 0 0.01408 0.0104 0 0.0187733 0.0104 0 0.0234667 0.0104 0 0.02816 0.0104 0 0.0328533 0.0104 0 0.0375467 0.0104 0 0.04224 0.0104 0 0.0469333 0.0104 0 0.0516267 0.0104 0 0.05632 0.0104 0 0.0610133 0.0104 0 0.0657067 0.0104 0 0.0704 0.0104 0 0 0.0108 0 0.00438667 0.0108 0 0.00877333 0.0108 0 0.01316 0.0108 0 0.0175467 0.0108 0 0.0219333 0.0108 0 0.02632 0.0108 0 0.0307067 0.0108 0 0.0350933 0.0108 0 0.03948 0.0108 0 0.0438667 0.0108 0 0.0482533 0.0108 0 0.05264 0.0108 0 0.0570267 0.0108 0 0.0614133 0.0108 0 0.0658 0.0108 0 0 0.0112 0 0.00408 0.0112 0 0.00816 0.0112 0 0.01224 0.0112 0 0.01632 0.0112 0 0.0204 0.0112 0 0.02448 0.0112 0 0.02856 0.0112 0 0.03264 0.0112 0 0.03672 0.0112 0 0.0408 0.0112 0 0.04488 0.0112 0 0.04896 0.0112 0 0.05304 0.0112 0 0.05712 0.0112 0 0.0612 0.0112 0 0 0.0116 0 0.00377333 0.0116 0 0.00754667 0.0116 0 0.01132 0.0116 0 0.0150933 0.0116 0 0.0188667 0.0116 0 0.02264 0.0116 0 0.0264133 0.0116 0 0.0301867 0.0116 0 0.03396 0.0116 0 0.0377333 0.0116 0 0.0415067 0.0116 0 0.04528 0.0116 0 0.0490533 0.0116 0 0.0528267 0.0116 0 0.0566 0.0116 0 0 0.012 0 0.00346667 0.012 0 0.00693333 0.012 0 0.0104 0.012 0 0.0138667 0.012 0 0.0173333 0.012 0 0.0208 0.012 0 0.0242667 0.012 0 0.0277333 0.012 0 0.0312 0.012 0 0.0346667 0.012 0 0.0381333 0.012 0 0.0416 0.012 0 0.0450667 0.012 0 0.0485333 0.012 0 0.052 0.012 0 0 0.0124 0 0.00316 0.0124 0 0.00632 0.0124 0 0.00948 0.0124 0 0.01264 0.0124 0 0.0158 0.0124 0 0.01896 0.0124 0 0.02212 0.0124 0 0.02528 0.0124 0 0.02844 0.0124 0 0.0316 0.0124 0 0.03476 0.0124 0 0.03792 0.0124 0 0.04108 0.0124 0 0.04424 0.0124 0 0.0474 0.0124 0 0 0.0128 0 0.00285333 0.0128 0 0.00570667 0.0128 0 0.00856 0.0128 0 0.0114133 0.0128 0 0.0142667 0.0128 0 0.01712 0.0128 0 0.0199733 0.0128 0 0.0228267 0.0128 0 0.02568 0.0128 0 0.0285333 0.0128 0 0.0313867 0.0128 0 0.03424 0.0128 0 0.0370933 0.0128 0 0.0399467 0.0128 0 0.0428 0.0128 0 0 0.0132 0 0.00254667 0.0132 0 0.00509333 0.0132 0 0.00764 0.0132 0 0.0101867 0.0132 0 0.0127333 0.0132 0 0.01528 0.0132 0 0.0178267 0.0132 0 0.0203733 0.0132 0 0.02292 0.0132 0 0.0254667 0.0132 0 0.0280133 0.0132 0 0.03056 0.0132 0 0.0331067 0.0132 0 0.0356533 0.0132 0 0.0382 0.0132 0 0 0.0136 0 0.00224 0.0136 0 0.00448 0.0136 0 0.00672 0.0136 0 0.00896 0.0136 0 0.0112 0.0136 0 0.01344 0.0136 0 0.01568 0.0136 0 0.01792 0.0136 0 0.02016 0.0136 0 0.0224 0.0136 0 0.02464 0.0136 0 0.02688 0.0136 0 0.02912 0.0136 0 0.03136 0.0136 0 0.0336 0.0136 0 0 0.014 0 0.00193333 0.014 0 0.00386667 0.014 0 0.0058 0.014 0 0.00773333 0.014 0 0.00966667 0.014 0 0.0116 0.014 0 0.0135333 0.014 0 0.0154667 0.014 0 0.0174 0.014 0 0.0193333 0.014 0 0.0212667 0.014 0 0.0232 0.014 0 0.0251333 0.014 0 0.0270667 0.014 0 0.029 0.014 0 0 0.0144 0 0.00162667 0.0144 0 0.00325333 0.0144 0 0.00488 0.0144 0 0.00650667 0.0144 0 0.00813333 0.0144 0 0.00976 0.0144 0 0.0113867 0.0144 0 0.0130133 0.0144 0 0.01464 0.0144 0 0.0162667 0.0144 0 0.0178933 0.0144 0 0.01952 0.0144 0 0.0211467 0.0144 0 0.0227733 0.0144 0 0.0244 0.0144 0 0 0.0148 0 0.00132 0.0148 0 0.00264 0.0148 0 0.00396 0.0148 0 0.00528 0.0148 0 0.0066 0.0148 0 0.00792 0.0148 0 0.00924 0.0148 0 0.01056 0.0148 0 0.01188 0.0148 0 0.0132 0.0148 0 0.01452 0.0148 0 0.01584 0.0148 0 0.01716 0.0148 0 0.01848 0.0148 0 0.0198 0.0148 0 0 0.0152 0 0.00101333 0.0152 0 0.00202667 0.0152 0 0.00304 0.0152 0 0.00405333 0.0152 0 0.00506667 0.0152 0 0.00608 0.0152 0 0.00709333 0.0152 0 0.00810667 0.0152 0 0.00912 0.0152 0 0.0101333 0.0152 0 0.0111467 0.0152 0 0.01216 0.0152 0 0.0131733 0.0152 0 0.0141867 0.0152 0 0.0152 0.0152 0 0 0.0156 0 0.000706667 0.0156 0 0.00141333 0.0156 0 0.00212 0.0156 0 0.00282667 0.0156 0 0.00353333 0.0156 0 0.00424 0.0156 0 0.00494667 0.0156 0 0.00565333 0.0156 0 0.00636 0.0156 0 0.00706667 0.0156 0 0.00777333 0.0156 0 0.00848 0.0156 0 0.00918667 0.0156 0 0.00989333 0.0156 0 0.0106 0.0156 0 0 0.016 0 0.0004 0.016 0 0.0008 0.016 0 0.0012 0.016 0 0.0016 0.016 0 0.002 0.016 0 0.0024 0.016 0 0.0028 0.016 0 0.0032 0.016 0 0.0036 0.016 0 0.004 0.016 0 0.0044 0.016 0 0.0048 0.016 0 0.0052 0.016 0 0.0056 0.016 0 0.006 0.016 0 
</DataArray>
</Points> 
</Piece> 
</StructuredGrid> 
</VTKFile> 
