<?xml version="1.0"?> 
<VTKFile type="StructuredGrid" version="0.1"> 
<StructuredGrid WholeExtent="0 15 0 15 0 0"> 
<Piece Extent="0 15 0 15 0 0"> 
<PointData>
<DataArray type="Float32" Name="|E|" format="ascii" NumberOfComponents="3"> 
278206 4.21957e+06 0 276642 4.19585e+06 0 275517 4.1788e+06 0 274699 4.16638e+06 0 274157 4.15817e+06 0 273890 4.15412e+06 0 273911 4.15444e+06 0 274245 4.1595e+06 0 274932 4.16992e+06 0 276031 4.18659e+06 0 277624 4.21075e+06 0 279828 4.24418e+06 0 282814 4.28947e+06 0 286836 4.35047e+06 0 292304 4.4334e+06 0 299948 4.54935e+06 0 242502 4.2152e+06 0 248992 4.19409e+06 0 254413 4.17711e+06 0 259473 4.1642e+06 0 264627 4.15524e+06 0 270189 4.15021e+06 0 276441 4.14929e+06 0 283687 4.1528e+06 0 292294 4.16125e+06 0 302734 4.17539e+06 0 315654 4.19623e+06 0 331984 4.22517e+06 0 353120 4.26416e+06 0 381288 4.31589e+06 0 420285 4.38419e+06 0 476953 4.47434e+06 0 210723 4.20328e+06 0 222271 4.18368e+06 0 232869 4.16733e+06 0 243052 4.1543e+06 0 253310 4.14459e+06 0 264103 4.13828e+06 0 275894 4.13548e+06 0 289184 4.13645e+06 0 304565 4.14152e+06 0 322782 4.15116e+06 0 344809 4.16599e+06 0 371984 4.18676e+06 0 406194 4.21436e+06 0 450195 4.24975e+06 0 508105 4.29369e+06 0 586014 4.34608e+06 0 181058 4.18485e+06 0 196666 4.16658e+06 0 211385 4.15089e+06 0 225705 4.13779e+06 0 240143 4.12731e+06 0 255220 4.1195e+06 0 271482 4.11444e+06 0 289531 4.11226e+06 0 310061 4.1131e+06 0 333911 4.11716e+06 0 362129 4.12464e+06 0 396058 4.13568e+06 0 437445 4.15033e+06 0 488571 4.16827e+06 0 552374 4.1886e+06 0 632397 4.2092e+06 0 153582 4.16107e+06 0 172324 4.14422e+06 0 190145 4.12922e+06 0 207575 4.11608e+06 0 225141 4.10482e+06 0 243383 4.09544e+06 0 262870 4.08796e+06 0 284220 4.0824e+06 0 308127 4.07876e+06 0 335392 4.07699e+06 0 366960 4.077e+06 0 403957 4.07853e+06 0 447718 4.08112e+06 0 499798 4.08392e+06 0 561915 4.08552e+06 0 635757 4.08367e+06 0 128632 4.13338e+06 0 149440 4.11803e+06 0 169329 4.10379e+06 0 188816 4.09066e+06 0 208424 4.07866e+06 0 228678 4.06776e+06 0 250124 4.05793e+06 0 273343 4.0491e+06 0 298962 4.04117e+06 0 327675 4.03394e+06 0 360248 4.02714e+06 0 397527 4.02032e+06 0 440425 4.01284e+06 0 489884 4.00375e+06 0 546782 3.99168e+06 0 611774 3.97484e+06 0 106371 4.10332e+06 0 128189 4.0895e+06 0 149109 4.07605e+06 0 169623 4.06301e+06 0 190218 4.05037e+06 0 211380 4.03811e+06 0 233606 4.02614e+06 0 257407 4.01437e+06 0 283316 4.00262e+06 0 311895 3.99063e+06 0 343724 3.97805e+06 0 379400 3.96439e+06 0 419502 3.949e+06 0 464551 3.93102e+06 0 514934 3.90935e+06 0 570808 3.88266e+06 0 86842.9 4.07241e+06 0 108657 4.06007e+06 0 129630 4.04743e+06 0 150203 4.03454e+06 0 170811 4.0214e+06 0 191883 4.00798e+06 0 213851 3.9942e+06 0 237145 3.97991e+06 0 262200 3.96493e+06 0 289449 3.949e+06 0 319316 3.93175e+06 0 352201 3.91273e+06 0 388453 3.89136e+06 0 428333 3.86694e+06 0 471968 3.83864e+06 0 519290 3.8055e+06 0 69929.3 4.04207e+06 0 90833.5 4.0311e+06 0 110979 4.01924e+06 0 130745 4.00655e+06 0 150503 3.99305e+06 0 170620 3.9787e+06 0 191454 3.96342e+06 0 213358 3.94709e+06 0 236674 3.92951e+06 0 261726 3.91043e+06 0 288816 3.88954e+06 0 318203 3.86644e+06 0 350087 3.84067e+06 0 384582 3.81166e+06 0 421683 3.77882e+06 0 461245 3.74148e+06 0 55406.3 4.01352e+06 0 74624.2 4.00377e+06 0 93183.9 3.99263e+06 0 111397 3.98017e+06 0 129572 3.96643e+06 0 148008 3.95137e+06 0 166996 3.93493e+06 0 186814 3.91698e+06 0 207725 3.89736e+06 0 229967 3.87587e+06 0 253750 3.85222e+06 0 279237 3.82609e+06 0 306538 3.79713e+06 0 335687 3.76491e+06 0 366624 3.72899e+06 0 399186 3.68893e+06 0 42974.4 3.98781e+06 0 59868.9 3.97908e+06 0 76214.4 3.96857e+06 0 92258.4 3.95636e+06 0 108246 3.94247e+06 0 124414 3.92689e+06 0 140991 3.90956e+06 0 158189 3.89039e+06 0 176204 3.86924e+06 0 195209 3.84593e+06 0 215347 3.82024e+06 0 236719 3.79192e+06 0 259381 3.76069e+06 0 283328 3.72624e+06 0 308483 3.68827e+06 0 334700 3.64646e+06 0 32294.6 3.96574e+06 0 46362.6 3.95786e+06 0 59994.3 3.94788e+06 0 73377.5 3.9359e+06 0 86699 3.92193e+06 0 100139 3.90598e+06 0 113868 3.88801e+06 0 128044 3.86795e+06 0 142810 3.84567e+06 0 158286 3.82104e+06 0 174567 3.79388e+06 0 191717 3.76401e+06 0 209759 3.7312e+06 0 228673 3.69524e+06 0 248388 3.6559e+06 0 268781 3.61299e+06 0 23011.6 3.94798e+06 0 33873 3.94074e+06 0 44410.1 3.93118e+06 0 54757.4 3.91939e+06 0 65048.6 3.90539e+06 0 75412.4 3.8892e+06 0 85970.1 3.87078e+06 0 96832.8 3.85008e+06 0 108098 3.82702e+06 0 119848 3.80146e+06 0 132144 3.77329e+06 0 145022 3.74235e+06 0 158492 3.70849e+06 0 172530 3.67152e+06 0 187079 3.63131e+06 0 202047 3.58772e+06 0 14768.4 3.93497e+06 0 22152.7 3.92819e+06 0 29322.6 3.91893e+06 0 36364.6 3.90728e+06 0 43364.6 3.89328e+06 0 50405 3.87693e+06 0 57563.5 3.85823e+06 0 64910.3 3.83712e+06 0 72506.8 3.81353e+06 0 80403 3.78738e+06 0 88635.2 3.75855e+06 0 97223.8 3.72693e+06 0 106171 3.69238e+06 0 115458 3.65479e+06 0 125046 3.61405e+06 0 134873 3.57005e+06 0 7213.04 3.92704e+06 0 10947.3 3.92054e+06 0 14575 3.91146e+06 0 18138.4 3.8999e+06 0 21679.3 3.8859e+06 0 25238.1 3.86947e+06 0 28852.5 3.8506e+06 0 32556.5 3.82926e+06 0 36379.6 3.80538e+06 0 40345.5 3.77889e+06 0 44471.2 3.7497e+06 0 48765.7 3.71769e+06 0 53228.8 3.68277e+06 0 57850.8 3.64484e+06 0 62611.5 3.60381e+06 0 67480.6 3.55961e+06 0 0 3.92438e+06 0 0 3.91796e+06 0 0 3.90895e+06 0 0 3.89742e+06 0 0 3.88342e+06 0 0 3.86696e+06 0 0 3.84805e+06 0 0 3.82663e+06 0 0 3.80266e+06 0 0 3.77606e+06 0 0 3.74674e+06 0 0 3.71461e+06 0 0 3.67958e+06 0 0 3.64154e+06 0 0 3.60042e+06 0 0 3.55616e+06 0 </DataArray> 
</PointData> 
<Points> 
<DataArray type="Float32" NumberOfComponents="3"> 
0.146503 0.0627911 0 0.148836 0.0626372 0 0.151169 0.0624834 0 0.153502 0.0623296 0 0.155835 0.0621758 0 0.158169 0.0620219 0 0.160502 0.0618681 0 0.162835 0.0617143 0 0.165168 0.0615604 0 0.167502 0.0614066 0 0.169835 0.0612527 0 0.172169 0.0610989 0 0.174502 0.060945 0 0.176836 0.0607911 0 0.17917 0.0606373 0 0.181504 0.0604834 0 0.146503 0.0660717 0 0.148836 0.0659281 0 0.151169 0.0657845 0 0.153502 0.065641 0 0.155835 0.0654974 0 0.158168 0.0653538 0 0.160502 0.0652102 0 0.162835 0.0650666 0 0.165168 0.0649231 0 0.167502 0.0647795 0 0.169835 0.0646359 0 0.172169 0.0644923 0 0.174502 0.0643487 0 0.176836 0.0642051 0 0.17917 0.0640615 0 0.181503 0.0639178 0 0.146503 0.0693522 0 0.148836 0.0692189 0 0.151169 0.0690856 0 0.153502 0.0689523 0 0.155835 0.068819 0 0.158168 0.0686857 0 0.160502 0.0685524 0 0.162835 0.068419 0 0.165168 0.0682857 0 0.167502 0.0681524 0 0.169835 0.068019 0 0.172169 0.0678857 0 0.174502 0.0677523 0 0.176836 0.067619 0 0.179169 0.0674856 0 0.181503 0.0673523 0 0.146503 0.0726328 0 0.148836 0.0725098 0 0.151169 0.0723867 0 0.153502 0.0722637 0 0.155835 0.0721406 0 0.158168 0.0720176 0 0.160501 0.0718945 0 0.162835 0.0717714 0 0.165168 0.0716483 0 0.167501 0.0715253 0 0.169835 0.0714022 0 0.172168 0.0712791 0 0.174502 0.071156 0 0.176836 0.0710329 0 0.179169 0.0709098 0 0.181503 0.0707867 0 0.146502 0.0759134 0 0.148835 0.0758006 0 0.151169 0.0756878 0 0.153502 0.075575 0 0.155835 0.0754622 0 0.158168 0.0753494 0 0.160501 0.0752366 0 0.162835 0.0751238 0 0.165168 0.075011 0 0.167501 0.0748982 0 0.169835 0.0747853 0 0.172168 0.0746725 0 0.174502 0.0745597 0 0.176835 0.0744468 0 0.179169 0.074334 0 0.181503 0.0742212 0 0.146502 0.079194 0 0.148835 0.0790915 0 0.151168 0.0789889 0 0.153501 0.0788864 0 0.155835 0.0787838 0 0.158168 0.0786813 0 0.160501 0.0785787 0 0.162834 0.0784762 0 0.165168 0.0783736 0 0.167501 0.0782711 0 0.169835 0.0781685 0 0.172168 0.0780659 0 0.174502 0.0779633 0 0.176835 0.0778608 0 0.179169 0.0777582 0 0.181502 0.0776556 0 0.146502 0.0824746 0 0.148835 0.0823823 0 0.151168 0.0822901 0 0.153501 0.0821978 0 0.155835 0.0821055 0 0.158168 0.0820132 0 0.160501 0.0819209 0 0.162834 0.0818286 0 0.165168 0.0817363 0 0.167501 0.0816439 0 0.169834 0.0815516 0 0.172168 0.0814593 0 0.174501 0.081367 0 0.176835 0.0812747 0 0.179169 0.0811824 0 0.181502 0.08109 0 0.146502 0.0857552 0 0.148835 0.0856732 0 0.151168 0.0855912 0 0.153501 0.0855091 0 0.155834 0.0854271 0 0.158168 0.085345 0 0.160501 0.085263 0 0.162834 0.0851809 0 0.165168 0.0850989 0 0.167501 0.0850168 0 0.169834 0.0849348 0 0.172168 0.0848527 0 0.174501 0.0847707 0 0.176835 0.0846886 0 0.179168 0.0846065 0 0.181502 0.0845245 0 0.146502 0.0890358 0 0.148835 0.088964 0 0.151168 0.0888923 0 0.153501 0.0888205 0 0.155834 0.0887487 0 0.158168 0.0886769 0 0.160501 0.0886051 0 0.162834 0.0885333 0 0.165167 0.0884615 0 0.167501 0.0883897 0 0.169834 0.0883179 0 0.172168 0.0882461 0 0.174501 0.0881743 0 0.176835 0.0881025 0 0.179168 0.0880307 0 0.181502 0.0879589 0 0.146501 0.0923164 0 0.148834 0.0922549 0 0.151168 0.0921934 0 0.153501 0.0921318 0 0.155834 0.0920703 0 0.158167 0.0920088 0 0.160501 0.0919472 0 0.162834 0.0918857 0 0.165167 0.0918242 0 0.167501 0.0917626 0 0.169834 0.0917011 0 0.172168 0.0916395 0 0.174501 0.091578 0 0.176834 0.0915165 0 0.179168 0.0914549 0 0.181501 0.0913934 0 0.146501 0.095597 0 0.148834 0.0955457 0 0.151168 0.0954945 0 0.153501 0.0954432 0 0.155834 0.0953919 0 0.158167 0.0953406 0 0.160501 0.0952894 0 0.162834 0.0952381 0 0.165167 0.0951868 0 0.167501 0.0951355 0 0.169834 0.0950842 0 0.172167 0.095033 0 0.174501 0.0949817 0 0.176834 0.0949304 0 0.179168 0.0948791 0 0.181501 0.0948278 0 0.146501 0.0988776 0 0.148834 0.0988366 0 0.151167 0.0987956 0 0.153501 0.0987546 0 0.155834 0.0987135 0 0.158167 0.0986725 0 0.1605 0.0986315 0 0.162834 0.0985905 0 0.165167 0.0985494 0 0.1675 0.0985084 0 0.169834 0.0984674 0 0.172167 0.0984264 0 0.174501 0.0983853 0 0.176834 0.0983443 0 0.179167 0.0983033 0 0.181501 0.0982622 0 0.146501 0.102158 0 0.148834 0.102127 0 0.151167 0.102097 0 0.1535 0.102066 0 0.155834 0.102035 0 0.158167 0.102004 0 0.1605 0.101974 0 0.162834 0.101943 0 0.165167 0.101912 0 0.1675 0.101881 0 0.169834 0.101851 0 0.172167 0.10182 0 0.1745 0.101789 0 0.176834 0.101758 0 0.179167 0.101727 0 0.181501 0.101697 0 0.1465 0.105439 0 0.148834 0.105418 0 0.151167 0.105398 0 0.1535 0.105377 0 0.155834 0.105357 0 0.158167 0.105336 0 0.1605 0.105316 0 0.162834 0.105295 0 0.165167 0.105275 0 0.1675 0.105254 0 0.169834 0.105234 0 0.172167 0.105213 0 0.1745 0.105193 0 0.176834 0.105172 0 0.179167 0.105152 0 0.1815 0.105131 0 0.1465 0.108719 0 0.148834 0.108709 0 0.151167 0.108699 0 0.1535 0.108689 0 0.155833 0.108678 0 0.158167 0.108668 0 0.1605 0.108658 0 0.162833 0.108648 0 0.165167 0.108637 0 0.1675 0.108627 0 0.169833 0.108617 0 0.172167 0.108607 0 0.1745 0.108596 0 0.176834 0.108586 0 0.179167 0.108576 0 0.1815 0.108566 0 0.1465 0.112 0 0.148833 0.112 0 0.151167 0.112 0 0.1535 0.112 0 0.155833 0.112 0 0.158167 0.112 0 0.1605 0.112 0 0.162833 0.112 0 0.165167 0.112 0 0.1675 0.112 0 0.169833 0.112 0 0.172167 0.112 0 0.1745 0.112 0 0.176833 0.112 0 0.179167 0.112 0 0.1815 0.112 0 
</DataArray>
</Points> 
</Piece> 
</StructuredGrid> 
</VTKFile> 
