<?xml version="1.0"?> 
<VTKFile type="StructuredGrid" version="0.1"> 
<StructuredGrid WholeExtent="0 15 0 15 0 0"> 
<Piece Extent="0 15 0 15 0 0"> 
<PointData>
<DataArray type="Float32" Name="|E|" format="ascii" NumberOfComponents="3"> 
1101.91 2484 0 -212.439 768.273 0 -88.8179 295.973 0 -54.6034 184.437 0 -29.5202 70.1409 0 -14.7876 47.6016 0 -9.98598 21.3856 0 -5.01025 14.2576 0 -3.70872 7.3742 0 -1.97956 4.64248 0 -1.44864 2.61259 0 -0.832723 1.55154 0 -0.59546 0.892588 0 -0.385233 0.469112 0 -0.305144 0.215955 0 -0.287869 7.39098e-06 0 -25.4284 1820.79 0 -266.706 675.91 0 -142.547 290.558 0 -71.7858 151.459 0 -37.4114 69.9152 0 -19.0743 40.7388 0 -11.4916 21.1053 0 -6.233 12.7825 0 -4.09297 7.14801 0 -2.33914 4.30768 0 -1.56703 2.50257 0 -0.939339 1.47356 0 -0.636301 0.850069 0 -0.419548 0.454268 0 -0.323853 0.202364 0 -0.299975 -6.11646e-07 0 -548.28 1522.21 0 -354.138 585.14 0 -180.077 256.922 0 -86.5187 128.43 0 -43.8008 63.7282 0 -22.5111 36.0064 0 -12.9481 19.6775 0 -7.20991 11.6781 0 -4.50094 6.72252 0 -2.63322 4.01949 0 -1.69414 2.36537 0 -1.02978 1.39471 0 -0.679251 0.807392 0 -0.450125 0.435011 0 -0.342608 0.192259 0 -0.313699 -3.42727e-07 0 -861.719 1245.9 0 -430.485 483.141 0 -206.88 214.192 0 -97.6429 107.364 0 -48.755 55.8408 0 -25.2396 31.7151 0 -14.2266 17.9064 0 -8.02433 10.6361 0 -4.88302 6.23101 0 -2.88749 3.73325 0 -1.8161 2.21662 0 -1.11063 1.31284 0 -0.7209 0.76332 0 -0.478461 0.413988 0 -0.360802 0.182783 0 -0.327596 4.91738e-07 0 -1057.35 954.029 0 -484.148 372.478 0 -223.988 168.292 0 -105.033 86.9233 0 -52.3149 47.4326 0 -27.3229 27.5375 0 -15.2932 16.0031 0 -8.70056 9.59545 0 -5.22554 5.70792 0 -3.10858 3.44065 0 -1.92917 2.06058 0 -1.18343 1.22783 0 -0.76034 0.717715 0 -0.504871 0.39186 0 -0.378269 0.173305 0 -0.341279 -5.36442e-07 0 -1163.31 655.826 0 -512.476 258.774 0 -231.84 122.191 0 -108.873 67.1945 0 -54.5484 38.9778 0 -28.8133 23.441 0 -16.1383 14.0445 0 -9.25101 8.54963 0 -5.52286 5.16553 0 -3.29934 3.14145 0 -2.03167 1.89898 0 -1.24876 1.14 0 -0.797155 0.670694 0 -0.529445 0.368834 0 -0.394927 0.163707 0 -0.354574 8.64267e-07 0 -1194.34 365.83 0 -516.11 147.724 0 -231.062 78.025 0 -109.488 48.5502 0 -55.5596 30.7603 0 -29.7615 19.4529 0 -16.764 12.0761 0 -9.68418 7.50253 0 -5.77259 4.61157 0 -3.46142 2.83686 0 -2.1227 1.73309 0 -1.3069 1.04975 0 -0.831094 0.622412 0 -0.552214 0.345041 0 -0.410719 0.153953 0 -0.367374 -8.19564e-07 0 -1162.05 96.7118 0 -497.285 44.341 0 -222.601 37.5024 0 -107.302 31.3804 0 -55.4811 22.9802 0 -30.2204 15.6121 0 -17.1792 10.1315 0 -10.0074 6.46073 0 -5.97397 4.05217 0 -3.59601 2.52848 0 -2.20172 1.56402 0 -1.35806 0.957497 0 -0.861976 0.573041 0 -0.573187 0.320593 0 -0.425598 0.144038 0 -0.379603 8.34465e-07 0 -1077.69 -141.808 0 -459.133 -47.2372 0 -207.702 1.97242 0 -102.8 16.0067 0 -54.4664 15.7838 0 -30.2434 11.9535 0 -17.3974 8.2383 0 -10.2269 5.43048 0 -6.12764 3.49311 0 -3.70391 2.21779 0 -2.26854 1.39288 0 -1.4023 0.863663 0 -0.889697 0.522745 0 -0.592348 0.295615 0 -0.439526 0.133935 0 -0.391214 -6.85453e-07 0 -952.519 -342.897 0 -405.271 -123.725 0 -187.865 -27.6155 0 -96.5027 2.66987 0 -52.6806 9.26023 0 -29.8841 8.51136 0 -17.4358 6.41654 0 -10.3485 4.41889 0 -6.23527 2.93906 0 -3.78569 1.90645 0 -2.32325 1.22068 0 -1.43962 0.768657 0 -0.914218 0.471698 0 -0.609665 0.270214 0 -0.452475 0.123639 0 -0.402188 6.25849e-07 0 -797.29 -502.94 0 -339.588 -182.609 0 -164.775 -50.7332 0 -88.9337 -8.4875 0 -50.2927 3.45102 0 -29.1946 5.31477 0 -17.3142 4.681 0 -10.3772 3.43253 0 -6.29969 2.39435 0 -3.84149 1.59594 0 -2.36629 1.04844 0 -1.46989 0.672882 0 -0.9356 0.420055 0 -0.625066 0.244525 0 -0.464433 0.113114 0 -0.412552 -6.85453e-07 0 -621.89 -621.111 0 -266.084 -221.885 0 -140.256 -67.4381 0 -80.5878 -17.3283 0 -47.4607 -1.70502 0 -28.2308 2.42281 0 -17.0493 3.02221 0 -10.3206 2.48744 0 -6.32274 1.85813 0 -3.87225 1.28967 0 -2.39785 0.876454 0 -1.49315 0.576861 0 -0.953836 0.368047 0 -0.638521 0.218537 0 -0.475375 0.102488 0 -0.42231 5.36442e-07 0 -432.112 -701.254 0 -189.16 -240 0 -116.136 -78.3203 0 -71.9077 -23.7527 0 -44.3198 -6.34964 0 -27.0554 -0.0800657 0 -16.651 1.40775 0 -10.1905 1.60934 0 -6.30387 1.32398 0 -3.8804 0.993158 0 -2.41741 0.704163 0 -1.50986 0.481267 0 -0.968734 0.315996 0 -0.650106 0.192058 0 -0.48524 0.0920967 0 -0.431392 -8.9407e-08 0 -225.93 -755.447 0 -114.334 -236.304 0 -93.9946 -84.1324 0 -63.3208 -27.8786 0 -40.9327 -10.6133 0 -25.7713 -2.11408 0 -16.0977 -0.209273 0 -10.0193 0.833317 0 -6.2303 0.778589 0 -3.87571 0.71525 0 -2.42045 0.529562 0 -1.52266 0.387104 0 -0.979016 0.264362 0 -0.660421 0.164563 0 -0.493798 0.0826911 0 -0.439209 -2.08616e-07 0 37.4446 -828.475 0 -52.7011 -214.499 0 -74.1312 -82.6094 0 -55.3721 -32.0134 0 -37.3018 -13.4663 0 -24.4752 -4.2184 0 -15.3758 -1.57513 0 -9.83241 0.0514181 0 -6.09349 0.270761 0 -3.86575 0.439647 0 -2.40371 0.359034 0 -1.53358 0.293696 0 -0.983765 0.212809 0 -0.669861 0.137084 0 -0.500962 0.0732319 0 -0.445247 2.38419e-07 0 568.103 -1211.72 0 -40.4251 -207.408 0 -50.7731 -45.0788 0 -49.7439 -55.3939 0 -33.3538 -4.11637 0 -23.0212 -12.2883 0 -14.7214 0.349174 0 -9.46368 -2.21916 0 -6.0125 0.481447 0 -3.77942 -0.113668 0 -2.41013 0.290431 0 -1.51861 0.182545 0 -0.996433 0.150776 0 -0.671039 0.130245 0 -0.510333 0.0400199 0 -0.455193 -1.66893e-06 0 </DataArray> 
</PointData> 
<Points> 
<DataArray type="Float32" NumberOfComponents="3"> 
0.125 0.021 0 0.129 0.0212667 0 0.133 0.0215333 0 0.137 0.0218 0 0.141 0.0220667 0 0.145 0.0223333 0 0.149 0.0226 0 0.153 0.0228667 0 0.157 0.0231333 0 0.161 0.0234 0 0.165 0.0236667 0 0.169 0.0239333 0 0.173 0.0242 0 0.177 0.0244667 0 0.181 0.0247333 0 0.185 0.025 0 0.125333 0.0219333 0 0.129311 0.02216 0 0.133289 0.0223867 0 0.137267 0.0226133 0 0.141244 0.02284 0 0.145222 0.0230667 0 0.1492 0.0232933 0 0.153178 0.02352 0 0.157156 0.0237467 0 0.161133 0.0239733 0 0.165111 0.0242 0 0.169089 0.0244267 0 0.173067 0.0246533 0 0.177044 0.02488 0 0.181022 0.0251067 0 0.185 0.0253333 0 0.125667 0.0228667 0 0.129622 0.0230533 0 0.133578 0.02324 0 0.137533 0.0234267 0 0.141489 0.0236133 0 0.145444 0.0238 0 0.1494 0.0239867 0 0.153356 0.0241733 0 0.157311 0.02436 0 0.161267 0.0245467 0 0.165222 0.0247333 0 0.169178 0.02492 0 0.173133 0.0251067 0 0.177089 0.0252933 0 0.181044 0.02548 0 0.185 0.0256667 0 0.126 0.0238 0 0.129933 0.0239467 0 0.133867 0.0240933 0 0.1378 0.02424 0 0.141733 0.0243867 0 0.145667 0.0245333 0 0.1496 0.02468 0 0.153533 0.0248267 0 0.157467 0.0249733 0 0.1614 0.02512 0 0.165333 0.0252667 0 0.169267 0.0254133 0 0.1732 0.02556 0 0.177133 0.0257067 0 0.181067 0.0258533 0 0.185 0.026 0 0.126333 0.0247333 0 0.130244 0.02484 0 0.134156 0.0249467 0 0.138067 0.0250533 0 0.141978 0.02516 0 0.145889 0.0252667 0 0.1498 0.0253733 0 0.153711 0.02548 0 0.157622 0.0255867 0 0.161533 0.0256933 0 0.165444 0.0258 0 0.169356 0.0259067 0 0.173267 0.0260133 0 0.177178 0.02612 0 0.181089 0.0262267 0 0.185 0.0263333 0 0.126667 0.0256667 0 0.130556 0.0257333 0 0.134444 0.0258 0 0.138333 0.0258667 0 0.142222 0.0259333 0 0.146111 0.026 0 0.15 0.0260667 0 0.153889 0.0261333 0 0.157778 0.0262 0 0.161667 0.0262667 0 0.165556 0.0263333 0 0.169444 0.0264 0 0.173333 0.0264667 0 0.177222 0.0265333 0 0.181111 0.0266 0 0.185 0.0266667 0 0.127 0.0266 0 0.130867 0.0266267 0 0.134733 0.0266533 0 0.1386 0.02668 0 0.142467 0.0267067 0 0.146333 0.0267333 0 0.1502 0.02676 0 0.154067 0.0267867 0 0.157933 0.0268133 0 0.1618 0.02684 0 0.165667 0.0268667 0 0.169533 0.0268933 0 0.1734 0.02692 0 0.177267 0.0269467 0 0.181133 0.0269733 0 0.185 0.027 0 0.127333 0.0275333 0 0.131178 0.02752 0 0.135022 0.0275067 0 0.138867 0.0274933 0 0.142711 0.02748 0 0.146556 0.0274667 0 0.1504 0.0274533 0 0.154244 0.02744 0 0.158089 0.0274267 0 0.161933 0.0274133 0 0.165778 0.0274 0 0.169622 0.0273867 0 0.173467 0.0273733 0 0.177311 0.02736 0 0.181156 0.0273467 0 0.185 0.0273333 0 0.127667 0.0284667 0 0.131489 0.0284133 0 0.135311 0.02836 0 0.139133 0.0283067 0 0.142956 0.0282533 0 0.146778 0.0282 0 0.1506 0.0281467 0 0.154422 0.0280933 0 0.158244 0.02804 0 0.162067 0.0279867 0 0.165889 0.0279333 0 0.169711 0.02788 0 0.173533 0.0278267 0 0.177356 0.0277733 0 0.181178 0.02772 0 0.185 0.0276667 0 0.128 0.0294 0 0.1318 0.0293067 0 0.1356 0.0292133 0 0.1394 0.02912 0 0.1432 0.0290267 0 0.147 0.0289333 0 0.1508 0.02884 0 0.1546 0.0287467 0 0.1584 0.0286533 0 0.1622 0.02856 0 0.166 0.0284667 0 0.1698 0.0283733 0 0.1736 0.02828 0 0.1774 0.0281867 0 0.1812 0.0280933 0 0.185 0.028 0 0.128333 0.0303333 0 0.132111 0.0302 0 0.135889 0.0300667 0 0.139667 0.0299333 0 0.143444 0.0298 0 0.147222 0.0296667 0 0.151 0.0295333 0 0.154778 0.0294 0 0.158556 0.0292667 0 0.162333 0.0291333 0 0.166111 0.029 0 0.169889 0.0288667 0 0.173667 0.0287333 0 0.177444 0.0286 0 0.181222 0.0284667 0 0.185 0.0283333 0 0.128667 0.0312667 0 0.132422 0.0310933 0 0.136178 0.03092 0 0.139933 0.0307467 0 0.143689 0.0305733 0 0.147444 0.0304 0 0.1512 0.0302267 0 0.154956 0.0300533 0 0.158711 0.02988 0 0.162467 0.0297067 0 0.166222 0.0295333 0 0.169978 0.02936 0 0.173733 0.0291867 0 0.177489 0.0290133 0 0.181244 0.02884 0 0.185 0.0286667 0 0.129 0.0322 0 0.132733 0.0319867 0 0.136467 0.0317733 0 0.1402 0.03156 0 0.143933 0.0313467 0 0.147667 0.0311333 0 0.1514 0.03092 0 0.155133 0.0307067 0 0.158867 0.0304933 0 0.1626 0.03028 0 0.166333 0.0300667 0 0.170067 0.0298533 0 0.1738 0.02964 0 0.177533 0.0294267 0 0.181267 0.0292133 0 0.185 0.029 0 0.129333 0.0331333 0 0.133044 0.03288 0 0.136756 0.0326267 0 0.140467 0.0323733 0 0.144178 0.03212 0 0.147889 0.0318667 0 0.1516 0.0316133 0 0.155311 0.03136 0 0.159022 0.0311067 0 0.162733 0.0308533 0 0.166444 0.0306 0 0.170156 0.0303467 0 0.173867 0.0300933 0 0.177578 0.02984 0 0.181289 0.0295867 0 0.185 0.0293333 0 0.129667 0.0340667 0 0.133356 0.0337733 0 0.137044 0.03348 0 0.140733 0.0331867 0 0.144422 0.0328933 0 0.148111 0.0326 0 0.1518 0.0323067 0 0.155489 0.0320133 0 0.159178 0.03172 0 0.162867 0.0314267 0 0.166556 0.0311333 0 0.170244 0.03084 0 0.173933 0.0305467 0 0.177622 0.0302533 0 0.181311 0.02996 0 0.185 0.0296667 0 0.13 0.035 0 0.133667 0.0346667 0 0.137333 0.0343333 0 0.141 0.034 0 0.144667 0.0336667 0 0.148333 0.0333333 0 0.152 0.033 0 0.155667 0.0326667 0 0.159333 0.0323333 0 0.163 0.032 0 0.166667 0.0316667 0 0.170333 0.0313333 0 0.174 0.031 0 0.177667 0.0306667 0 0.181333 0.0303333 0 0.185 0.03 0 
</DataArray>
</Points> 
</Piece> 
</StructuredGrid> 
</VTKFile> 
