<?xml version="1.0"?> 
<VTKFile type="StructuredGrid" version="0.1"> 
<StructuredGrid WholeExtent="0 15 0 15 0 0"> 
<Piece Extent="0 15 0 15 0 0"> 
<PointData>
<DataArray type="Float32" Name="|E|" format="ascii" NumberOfComponents="3"> 
-2.08174e+06 167103 0 -2.11375e+06 211077 0 -2.15318e+06 256946 0 -2.2003e+06 305720 0 -2.25559e+06 357728 0 -2.31963e+06 413422 0 -2.39264e+06 475707 0 -2.47675e+06 540758 0 -2.57257e+06 623781 0 -2.68277e+06 713570 0 -2.81707e+06 778000 0 -2.96981e+06 1.00299e+06 0 -3.20508e+06 1.11511e+06 0 -3.48901e+06 1.0364e+06 0 -4.26675e+06 2.2204e+06 0 -8.38795e+06 2.68233e+07 0 -2.11848e+06 239425 0 -2.15795e+06 285440 0 -2.20431e+06 334136 0 -2.25796e+06 386142 0 -2.31922e+06 442376 0 -2.38841e+06 502897 0 -2.46744e+06 571270 0 -2.55616e+06 647477 0 -2.65791e+06 730827 0 -2.77846e+06 845151 0 -2.91036e+06 958452 0 -3.11889e+06 1.10198e+06 0 -3.30914e+06 1.43468e+06 0 -3.88988e+06 1.82385e+06 0 -4.19699e+06 3.52093e+06 0 196587 2.47113e+06 0 -2.16811e+06 321437 0 -2.21421e+06 370278 0 -2.26674e+06 422426 0 -2.32587e+06 478633 0 -2.39209e+06 539658 0 -2.46673e+06 607951 0 -2.55008e+06 684334 0 -2.64397e+06 769143 0 -2.75313e+06 877256 0 -2.87489e+06 990030 0 -3.04244e+06 1.14962e+06 0 -3.21872e+06 1.47379e+06 0 -3.545e+06 1.65707e+06 0 -3.77942e+06 2.9731e+06 0 -2.02515e+06 4.39357e+06 0 -633397 3.16557e+06 0 -2.23076e+06 415041 0 -2.28249e+06 467624 0 -2.33991e+06 524491 0 -2.40368e+06 586737 0 -2.47475e+06 655554 0 -2.55339e+06 732118 0 -2.64085e+06 817722 0 -2.7405e+06 922510 0 -2.85187e+06 1.04535e+06 0 -2.98968e+06 1.21314e+06 0 -3.14455e+06 1.48881e+06 0 -3.34635e+06 1.69866e+06 0 -3.44527e+06 2.72647e+06 0 -2.41305e+06 3.77076e+06 0 -1.00657e+06 3.28308e+06 0 -689579 2.68009e+06 0 -2.30581e+06 523998 0 -2.36183e+06 582300 0 -2.42362e+06 645847 0 -2.49171e+06 714966 0 -2.56602e+06 792053 0 -2.64753e+06 880416 0 -2.73828e+06 988508 0 -2.83843e+06 1.12114e+06 0 -2.95437e+06 1.29103e+06 0 -3.08223e+06 1.53408e+06 0 -3.20044e+06 1.81017e+06 0 -3.16167e+06 2.61728e+06 0 -2.42578e+06 3.3383e+06 0 -1.36017e+06 3.12187e+06 0 -828778 2.50192e+06 0 -602947 1.98933e+06 0 -2.39253e+06 654059 0 -2.4526e+06 718152 0 -2.51762e+06 788344 0 -2.58712e+06 869007 0 -2.66222e+06 964137 0 -2.74409e+06 1.07911e+06 0 -2.83275e+06 1.21809e+06 0 -2.92905e+06 1.39005e+06 0 -3.02057e+06 1.62825e+06 0 -3.05564e+06 1.95668e+06 0 -2.8984e+06 2.58426e+06 0 -2.29677e+06 3.04205e+06 0 -1.50721e+06 2.88898e+06 0 -1.01865e+06 2.45965e+06 0 -790042 2.05246e+06 0 -651198 1.66274e+06 0 -2.49027e+06 806564 0 -2.55108e+06 882559 0 -2.61469e+06 971125 0 -2.68301e+06 1.07507e+06 0 -2.75572e+06 1.19637e+06 0 -2.83039e+06 1.34143e+06 0 -2.89952e+06 1.52423e+06 0 -2.93613e+06 1.7761e+06 0 -2.87711e+06 2.11781e+06 0 -2.62631e+06 2.57415e+06 0 -2.10716e+06 2.8146e+06 0 -1.52587e+06 2.65711e+06 0 -1.13998e+06 2.33871e+06 0 -921914 2.0034e+06 0 -781039 1.66705e+06 0 -694595 1.35565e+06 0 -2.5899e+06 1.00981e+06 0 -2.64674e+06 1.10516e+06 0 -2.70733e+06 1.21781e+06 0 -2.7661e+06 1.34641e+06 0 -2.81503e+06 1.50468e+06 0 -2.83649e+06 1.7059e+06 0 -2.79493e+06 1.96258e+06 0 -2.63986e+06 2.26047e+06 0 -2.33265e+06 2.54034e+06 0 -1.89505e+06 2.60765e+06 0 -1.47949e+06 2.43253e+06 0 -1.19884e+06 2.17636e+06 0 -1.0158e+06 1.89832e+06 0 -887403 1.61004e+06 0 -802494 1.33392e+06 0 -740950 1.06333e+06 0 -2.67676e+06 1.27286e+06 0 -2.7218e+06 1.40408e+06 0 -2.74883e+06 1.5433e+06 0 -2.74745e+06 1.71814e+06 0 -2.69549e+06 1.92146e+06 0 -2.56512e+06 2.13899e+06 0 -2.3384e+06 2.33487e+06 0 -2.02812e+06 2.44598e+06 0 -1.69018e+06 2.39159e+06 0 -1.4118e+06 2.20774e+06 0 -1.21918e+06 1.98826e+06 0 -1.07627e+06 1.75069e+06 0 -968853 1.50517e+06 0 -895736 1.26719e+06 0 -842683 1.02619e+06 0 -788572 776151 0 -2.68264e+06 1.65682e+06 0 -2.64598e+06 1.78072e+06 0 -2.5712e+06 1.95073e+06 0 -2.43864e+06 2.10437e+06 0 -2.24375e+06 2.22679e+06 0 -2.00238e+06 2.29509e+06 0 -1.74854e+06 2.27613e+06 0 -1.52274e+06 2.15422e+06 0 -1.35112e+06 1.97194e+06 0 -1.22095e+06 1.77454e+06 0 -1.11242e+06 1.56783e+06 0 -1.03e+06 1.36143e+06 0 -975980 1.15798e+06 0 -936644 941160 0 -888308 704387 0 -804899 463728 0 -2.38923e+06 1.95788e+06 0 -2.25832e+06 2.11126e+06 0 -2.08172e+06 2.15212e+06 0 -1.88807e+06 2.16286e+06 0 -1.70279e+06 2.13361e+06 0 -1.54267e+06 2.0405e+06 0 -1.41271e+06 1.8875e+06 0 -1.30625e+06 1.70828e+06 0 -1.21224e+06 1.5291e+06 0 -1.13384e+06 1.35569e+06 0 -1.08269e+06 1.1873e+06 0 -1.05501e+06 1.00956e+06 0 -1.03024e+06 803742 0 -980501 571174 0 -882751 337076 0 -734555 137018 0 -1.893e+06 2.14967e+06 0 -1.73116e+06 1.98943e+06 0 -1.6104e+06 1.95607e+06 0 -1.51295e+06 1.8853e+06 0 -1.42526e+06 1.74539e+06 0 -1.3411e+06 1.57016e+06 0 -1.26275e+06 1.40194e+06 0 -1.20015e+06 1.25772e+06 0 -1.16531e+06 1.12671e+06 0 -1.15689e+06 984586 0 -1.15386e+06 807418 0 -1.12643e+06 589055 0 -1.0491e+06 350351 0 -912724 129477 0 -732087 -36467.7 0 -539136 -130007 0 -1.48661e+06 1.55154e+06 0 -1.46967e+06 1.7106e+06 0 -1.40932e+06 1.56143e+06 0 -1.33596e+06 1.34574e+06 0 -1.27612e+06 1.17476e+06 0 -1.24669e+06 1.06449e+06 0 -1.25065e+06 979221 0 -1.27412e+06 870266 0 -1.28845e+06 705921 0 -1.26216e+06 486253 0 -1.1746e+06 240242 0 -1.02327e+06 12017.4 0 -825941 -158048 0 -614990 -249470 0 -424321 -267242 0 -276540 -235541 0 -1.44633e+06 1.56806e+06 0 -1.33203e+06 939674 0 -1.3131e+06 759336 0 -1.3536e+06 755786 0 -1.41303e+06 752952 0 -1.45178e+06 663673 0 -1.43721e+06 472277 0 -1.35094e+06 214473 0 -1.19398e+06 -49621.9 0 -984871 -264570 0 -753457 -395832 0 -532898 -436103 0 -349935 -403589 0 -217695 -330528 0 -134459 -248884 0 -88297.4 -179284 0 -1.43686e+06 -48461.8 0 -1.6165e+06 427602 0 -1.64889e+06 458472 0 -1.55562e+06 236279 0 -1.36663e+06 -82533.6 0 -1.118e+06 -383045 0 -848471 -592758 0 -593426 -683835 0 -378787 -667622 0 -218777 -576722 0 -115358 -451024 0 -59537 -327123 0 -36140.2 -228196 0 -29552.6 -161243 0 -28022.5 -121244 0 -25567.3 -97929.1 0 2.6226e-06 -1.07834e+07 0 -2.44472e-07 -4.85607e+06 0 -2.14204e-08 -1.35814e+06 0 1.96509e-07 374782 0 -6.51926e-08 941889 0 -7.45058e-09 847721 0 2.23517e-08 478033 0 -1.49012e-07 87175.8 0 2.5332e-07 -191325 0 -2.68221e-07 -318924 0 2.68221e-07 -321744 0 -1.3411e-07 -255235 0 1.78814e-07 -172597 0 -1.93715e-07 -107327 0 2.08616e-07 -69790.3 0 -1.78814e-06 -54158.1 0 </DataArray> 
</PointData> 
<Points> 
<DataArray type="Float32" NumberOfComponents="3"> 
0.016 0.021 0 0.0199333 0.021 0 0.0238667 0.021 0 0.0278 0.021 0 0.0317333 0.021 0 0.0356667 0.021 0 0.0396 0.021 0 0.0435333 0.021 0 0.0474667 0.021 0 0.0514 0.021 0 0.0553333 0.021 0 0.0592667 0.021 0 0.0632 0.021 0 0.0671333 0.021 0 0.0710667 0.021 0 0.075 0.021 0 0.0216 0.0219333 0 0.0253156 0.0219333 0 0.0290311 0.0219333 0 0.0327467 0.0219333 0 0.0364622 0.0219333 0 0.0401778 0.0219333 0 0.0438933 0.0219333 0 0.0476089 0.0219333 0 0.0513244 0.0219333 0 0.05504 0.0219333 0 0.0587556 0.0219333 0 0.0624711 0.0219333 0 0.0661867 0.0219333 0 0.0699022 0.0219333 0 0.0736178 0.0219333 0 0.0773333 0.0219333 0 0.0272 0.0228667 0 0.0306978 0.0228667 0 0.0341956 0.0228667 0 0.0376933 0.0228667 0 0.0411911 0.0228667 0 0.0446889 0.0228667 0 0.0481867 0.0228667 0 0.0516844 0.0228667 0 0.0551822 0.0228667 0 0.05868 0.0228667 0 0.0621778 0.0228667 0 0.0656756 0.0228667 0 0.0691733 0.0228667 0 0.0726711 0.0228667 0 0.0761689 0.0228667 0 0.0796667 0.0228667 0 0.0328 0.0238 0 0.03608 0.0238 0 0.03936 0.0238 0 0.04264 0.0238 0 0.04592 0.0238 0 0.0492 0.0238 0 0.05248 0.0238 0 0.05576 0.0238 0 0.05904 0.0238 0 0.06232 0.0238 0 0.0656 0.0238 0 0.06888 0.0238 0 0.07216 0.0238 0 0.07544 0.0238 0 0.07872 0.0238 0 0.082 0.0238 0 0.0384 0.0247333 0 0.0414622 0.0247333 0 0.0445244 0.0247333 0 0.0475867 0.0247333 0 0.0506489 0.0247333 0 0.0537111 0.0247333 0 0.0567733 0.0247333 0 0.0598356 0.0247333 0 0.0628978 0.0247333 0 0.06596 0.0247333 0 0.0690222 0.0247333 0 0.0720844 0.0247333 0 0.0751467 0.0247333 0 0.0782089 0.0247333 0 0.0812711 0.0247333 0 0.0843333 0.0247333 0 0.044 0.0256667 0 0.0468444 0.0256667 0 0.0496889 0.0256667 0 0.0525333 0.0256667 0 0.0553778 0.0256667 0 0.0582222 0.0256667 0 0.0610667 0.0256667 0 0.0639111 0.0256667 0 0.0667556 0.0256667 0 0.0696 0.0256667 0 0.0724444 0.0256667 0 0.0752889 0.0256667 0 0.0781333 0.0256667 0 0.0809778 0.0256667 0 0.0838222 0.0256667 0 0.0866667 0.0256667 0 0.0496 0.0266 0 0.0522267 0.0266 0 0.0548533 0.0266 0 0.05748 0.0266 0 0.0601067 0.0266 0 0.0627333 0.0266 0 0.06536 0.0266 0 0.0679867 0.0266 0 0.0706133 0.0266 0 0.07324 0.0266 0 0.0758667 0.0266 0 0.0784933 0.0266 0 0.08112 0.0266 0 0.0837467 0.0266 0 0.0863733 0.0266 0 0.089 0.0266 0 0.0552 0.0275333 0 0.0576089 0.0275333 0 0.0600178 0.0275333 0 0.0624267 0.0275333 0 0.0648356 0.0275333 0 0.0672444 0.0275333 0 0.0696533 0.0275333 0 0.0720622 0.0275333 0 0.0744711 0.0275333 0 0.07688 0.0275333 0 0.0792889 0.0275333 0 0.0816978 0.0275333 0 0.0841067 0.0275333 0 0.0865156 0.0275333 0 0.0889244 0.0275333 0 0.0913333 0.0275333 0 0.0608 0.0284667 0 0.0629911 0.0284667 0 0.0651822 0.0284667 0 0.0673733 0.0284667 0 0.0695644 0.0284667 0 0.0717556 0.0284667 0 0.0739467 0.0284667 0 0.0761378 0.0284667 0 0.0783289 0.0284667 0 0.08052 0.0284667 0 0.0827111 0.0284667 0 0.0849022 0.0284667 0 0.0870933 0.0284667 0 0.0892844 0.0284667 0 0.0914756 0.0284667 0 0.0936667 0.0284667 0 0.0664 0.0294 0 0.0683733 0.0294 0 0.0703467 0.0294 0 0.07232 0.0294 0 0.0742933 0.0294 0 0.0762667 0.0294 0 0.07824 0.0294 0 0.0802133 0.0294 0 0.0821867 0.0294 0 0.08416 0.0294 0 0.0861333 0.0294 0 0.0881067 0.0294 0 0.09008 0.0294 0 0.0920533 0.0294 0 0.0940267 0.0294 0 0.096 0.0294 0 0.072 0.0303333 0 0.0737556 0.0303333 0 0.0755111 0.0303333 0 0.0772667 0.0303333 0 0.0790222 0.0303333 0 0.0807778 0.0303333 0 0.0825333 0.0303333 0 0.0842889 0.0303333 0 0.0860444 0.0303333 0 0.0878 0.0303333 0 0.0895556 0.0303333 0 0.0913111 0.0303333 0 0.0930667 0.0303333 0 0.0948222 0.0303333 0 0.0965778 0.0303333 0 0.0983333 0.0303333 0 0.0776 0.0312667 0 0.0791378 0.0312667 0 0.0806756 0.0312667 0 0.0822133 0.0312667 0 0.0837511 0.0312667 0 0.0852889 0.0312667 0 0.0868267 0.0312667 0 0.0883644 0.0312667 0 0.0899022 0.0312667 0 0.09144 0.0312667 0 0.0929778 0.0312667 0 0.0945156 0.0312667 0 0.0960533 0.0312667 0 0.0975911 0.0312667 0 0.0991289 0.0312667 0 0.100667 0.0312667 0 0.0832 0.0322 0 0.08452 0.0322 0 0.08584 0.0322 0 0.08716 0.0322 0 0.08848 0.0322 0 0.0898 0.0322 0 0.09112 0.0322 0 0.09244 0.0322 0 0.09376 0.0322 0 0.09508 0.0322 0 0.0964 0.0322 0 0.09772 0.0322 0 0.09904 0.0322 0 0.10036 0.0322 0 0.10168 0.0322 0 0.103 0.0322 0 0.0888 0.0331333 0 0.0899022 0.0331333 0 0.0910044 0.0331333 0 0.0921067 0.0331333 0 0.0932089 0.0331333 0 0.0943111 0.0331333 0 0.0954133 0.0331333 0 0.0965156 0.0331333 0 0.0976178 0.0331333 0 0.09872 0.0331333 0 0.0998222 0.0331333 0 0.100924 0.0331333 0 0.102027 0.0331333 0 0.103129 0.0331333 0 0.104231 0.0331333 0 0.105333 0.0331333 0 0.0944 0.0340667 0 0.0952844 0.0340667 0 0.0961689 0.0340667 0 0.0970533 0.0340667 0 0.0979378 0.0340667 0 0.0988222 0.0340667 0 0.0997067 0.0340667 0 0.100591 0.0340667 0 0.101476 0.0340667 0 0.10236 0.0340667 0 0.103244 0.0340667 0 0.104129 0.0340667 0 0.105013 0.0340667 0 0.105898 0.0340667 0 0.106782 0.0340667 0 0.107667 0.0340667 0 0.1 0.035 0 0.100667 0.035 0 0.101333 0.035 0 0.102 0.035 0 0.102667 0.035 0 0.103333 0.035 0 0.104 0.035 0 0.104667 0.035 0 0.105333 0.035 0 0.106 0.035 0 0.106667 0.035 0 0.107333 0.035 0 0.108 0.035 0 0.108667 0.035 0 0.109333 0.035 0 0.11 0.035 0 
</DataArray>
</Points> 
</Piece> 
</StructuredGrid> 
</VTKFile> 
