<?xml version="1.0"?> 
<VTKFile type="StructuredGrid" version="0.1"> 
<StructuredGrid WholeExtent="0 15 0 15 0 0"> 
<Piece Extent="0 15 0 15 0 0"> 
<PointData>
<DataArray type="Float32" Name="|E|" format="ascii" NumberOfComponents="3"> 
368187 5.45618e+06 0 744438 5.75133e+06 0 1.13996e+06 5.89998e+06 0 1.54511e+06 5.95928e+06 0 1.95202e+06 5.94822e+06 0 2.3533e+06 5.87568e+06 0 2.74203e+06 5.7477e+06 0 3.1118e+06 5.5696e+06 0 3.45702e+06 5.34691e+06 0 3.77309e+06 5.08562e+06 0 4.05659e+06 4.79217e+06 0 4.30532e+06 4.47319e+06 0 4.51824e+06 4.13522e+06 0 4.69534e+06 3.78449e+06 0 4.83745e+06 3.42672e+06 0 4.94605e+06 3.06696e+06 0 908161 4.86712e+06 0 1.17648e+06 4.93079e+06 0 1.49025e+06 4.91923e+06 0 1.8111e+06 4.82039e+06 0 2.10692e+06 4.64609e+06 0 2.35882e+06 4.41644e+06 0 2.55882e+06 4.1526e+06 0 2.70676e+06 3.87317e+06 0 2.8074e+06 3.5927e+06 0 2.868e+06 3.3215e+06 0 2.89664e+06 3.06607e+06 0 2.90106e+06 2.82992e+06 0 2.88815e+06 2.61435e+06 0 2.86362e+06 2.41918e+06 0 2.83201e+06 2.2433e+06 0 2.79678e+06 2.08517e+06 0 991293 4.487e+06 0 1.2362e+06 4.4617e+06 0 1.50168e+06 4.35946e+06 0 1.74966e+06 4.17986e+06 0 1.95233e+06 3.9419e+06 0 2.0977e+06 3.6717e+06 0 2.18677e+06 3.39302e+06 0 2.22808e+06 3.12308e+06 0 2.23297e+06 2.87217e+06 0 2.21249e+06 2.64499e+06 0 2.17596e+06 2.44246e+06 0 2.13047e+06 2.26332e+06 0 2.08108e+06 2.10533e+06 0 2.03116e+06 1.96592e+06 0 1.98287e+06 1.84265e+06 0 1.93749e+06 1.73336e+06 0 968678 4.22232e+06 0 1.19084e+06 4.14161e+06 0 1.41387e+06 3.98733e+06 0 1.60458e+06 3.76679e+06 0 1.74155e+06 3.50428e+06 0 1.82052e+06 3.22728e+06 0 1.84916e+06 2.95721e+06 0 1.84003e+06 2.7068e+06 0 1.80575e+06 2.48155e+06 0 1.75662e+06 2.28224e+06 0 1.70016e+06 2.10723e+06 0 1.64146e+06 1.95394e+06 0 1.58382e+06 1.81963e+06 0 1.52925e+06 1.70177e+06 0 1.47897e+06 1.59813e+06 0 1.4336e+06 1.50671e+06 0 909878 4.02876e+06 0 1.10738e+06 3.90998e+06 0 1.29465e+06 3.7221e+06 0 1.44142e+06 3.47827e+06 0 1.53244e+06 3.2053e+06 0 1.5693e+06 2.92955e+06 0 1.56335e+06 2.66903e+06 0 1.5283e+06 2.43262e+06 0 1.47609e+06 2.22279e+06 0 1.41561e+06 2.03845e+06 0 1.35285e+06 1.87703e+06 0 1.29162e+06 1.73552e+06 0 1.23416e+06 1.61098e+06 0 1.18159e+06 1.50075e+06 0 1.13429e+06 1.4025e+06 0 1.09217e+06 1.31432e+06 0 834039 3.88227e+06 0 1.00962e+06 3.7349e+06 0 1.16686e+06 3.5232e+06 0 1.27961e+06 3.26416e+06 0 1.33773e+06 2.98549e+06 0 1.34688e+06 2.7116e+06 0 1.32018e+06 2.45744e+06 0 1.27126e+06 2.22919e+06 0 1.21103e+06 2.02753e+06 0 1.14701e+06 1.85042e+06 0 1.08395e+06 1.69485e+06 0 1.02453e+06 1.55774e+06 0 970017 1.43635e+06 0 920845 1.3285e+06 0 877025 1.23254e+06 0 838414 1.14725e+06 0 751598 3.76876e+06 0 906833 3.59844e+06 0 1.03872e+06 3.36815e+06 0 1.12466e+06 3.09749e+06 0 1.15867e+06 2.81412e+06 0 1.14911e+06 2.54053e+06 0 1.10988e+06 2.28925e+06 0 1.05402e+06 2.06464e+06 0 991263 1.8663e+06 0 927892 1.69173e+06 0 867514 1.53789e+06 0 811928 1.40189e+06 0 761872 1.28129e+06 0 717509 1.17404e+06 0 678661 1.07827e+06 0 644899 992186 0 666414 3.6794e+06 0 803063 3.4896e+06 0 913191 3.24347e+06 0 977611 2.96245e+06 0 993671 2.67387e+06 0 971528 2.3985e+06 0 925227 2.14714e+06 0 866953 1.92292e+06 0 805218 1.72487e+06 0 745141 1.55033e+06 0 689415 1.39635e+06 0 639230 1.26017e+06 0 594905 1.13935e+06 0 556233 1.03178e+06 0 522737 935751 0 493909 850030 0 580696 3.60848e+06 0 699946 3.40124e+06 0 791073 3.14053e+06 0 837982 2.84921e+06 0 840705 2.55422e+06 0 810529 2.27508e+06 0 761194 2.02133e+06 0 703826 1.7954e+06 0 645704 1.59597e+06 0 590890 1.42035e+06 0 541305 1.26558e+06 0 497581 1.12883e+06 0 459626 1.00765e+06 0 427019 899952 0 399263 803988 0 375842 718087 0 495367 3.55212e+06 0 598057 3.32858e+06 0 672296 3.05359e+06 0 704877 2.75127e+06 0 697973 2.44844e+06 0 663443 2.16377e+06 0 614339 1.90604e+06 0 560540 1.67719e+06 0 508071 1.47571e+06 0 460004 1.29876e+06 0 417542 1.14323e+06 0 380841 1.00618e+06 0 349568 885029 0 323212 777537 0 301200 681744 0 282983 596030 0 410861 3.50767e+06 0 497421 3.26826e+06 0 556423 2.97859e+06 0 577356 2.66415e+06 0 564044 2.35199e+06 0 528375 2.06039e+06 0 482315 1.7977e+06 0 434299 1.56551e+06 0 389074 1.36201e+06 0 348764 1.18405e+06 0 313961 1.02825e+06 0 284495 891429 0 259891 770747 0 239580 663733 0 223022 568301 0 209776 482647 0 327288 3.47327e+06 0 397792 3.21791e+06 0 442875 2.91261e+06 0 454583 2.58459e+06 0 437861 2.26167e+06 0 404019 1.96218e+06 0 363492 1.69418e+06 0 323082 1.45883e+06 0 286248 1.25381e+06 0 254271 1.07551e+06 0 227284 920118 0 204919 784071 0 186648 664225 0 171949 557881 0 160377 462736 0 151563 376798 0 244592 3.44765e+06 0 298768 3.17576e+06 0 331041 2.85338e+06 0 335878 2.51012e+06 0 318701 2.17519e+06 0 289498 1.86731e+06 0 256697 1.5942e+06 0 225312 1.35633e+06 0 197584 1.15064e+06 0 174120 972820 0 154764 818505 0 139079 683697 0 126589 564919 0 116880 459195 0 109614 363981 0 104551 277103 0 162621 3.42991e+06 0 199851 3.14049e+06 0 220319 2.79914e+06 0 220735 2.43881e+06 0 206119 2.09088e+06 0 184232 1.77462e+06 0 161019 1.49709e+06 0 139658 1.2577e+06 0 121342 1.05232e+06 0 106224 875807 0 94035.8 723149 0 84400.5 589891 0 76969.4 472201 0 71460.9 366810 0 67674.6 270923 0 65480.8 182103 0 81167.8 3.41948e+06 0 100473 3.11107e+06 0 110144 2.74836e+06 0 108825 2.36906e+06 0 99898.2 2.00754e+06 0 87828.7 1.68342e+06 0 75690.8 1.40258e+06 0 64927.1 1.16286e+06 0 55958 958809 0 48732.7 784334 0 43045.1 633763 0 38676.3 502178 0 35444.2 385389 0 33218.2 279820 0 31915.4 182360 0 31496.8 90252.7 0 0 3.41604e+06 0 0 3.08672e+06 0 0 2.69975e+06 0 0 2.2996e+06 0 0 1.92434e+06 0 0 1.5934e+06 0 0 1.31065e+06 0 0 1.07188e+06 0 0 870121 0 0 698283 0 0 550062 0 0 420096 0 0 303835 0 0 197354 0 0 97168.5 0 0 63.3649 0 </DataArray> 
</PointData> 
<Points> 
<DataArray type="Float32" NumberOfComponents="3"> 
0.188003 0.0600498 0 0.188986 0.0599532 0 0.189973 0.059794 0 0.19096 0.0595711 0 0.191939 0.0592838 0 0.192905 0.0589322 0 0.193851 0.0585175 0 0.194772 0.0580413 0 0.195661 0.0575063 0 0.196513 0.0569157 0 0.197323 0.0562736 0 0.198086 0.0555845 0 0.198799 0.0548536 0 0.199458 0.0540861 0 0.200062 0.0532879 0 0.200608 0.0524645 0 0.188003 0.0635132 0 0.189752 0.063468 0 0.191523 0.0633592 0 0.193306 0.0631853 0 0.195092 0.0629455 0 0.19687 0.0626395 0 0.19863 0.0622681 0 0.200362 0.0618326 0 0.202055 0.0613352 0 0.2037 0.0607787 0 0.205288 0.0601666 0 0.206809 0.0595032 0 0.208257 0.058793 0 0.209625 0.0580411 0 0.210908 0.0572527 0 0.212101 0.0564336 0 0.188003 0.0669765 0 0.190517 0.0669762 0 0.193067 0.0669119 0 0.195641 0.066782 0 0.198226 0.0665853 0 0.200809 0.0663216 0 0.203374 0.0659911 0 0.20591 0.0655949 0 0.208401 0.0651347 0 0.210834 0.0646131 0 0.213198 0.0640331 0 0.21548 0.0633985 0 0.217669 0.0627133 0 0.219756 0.0619823 0 0.221733 0.0612103 0 0.223593 0.0604026 0 0.188002 0.0704399 0 0.19128 0.070478 0 0.194606 0.0704524 0 0.197965 0.0703613 0 0.201342 0.0702035 0 0.20472 0.0699786 0 0.208083 0.0696866 0 0.211414 0.0693283 0 0.214697 0.0689052 0 0.217916 0.0684193 0 0.221055 0.0678734 0 0.224099 0.0672705 0 0.227036 0.0666146 0 0.229852 0.0659098 0 0.232539 0.0651605 0 0.235086 0.0643716 0 0.188002 0.0739032 0 0.192042 0.0739733 0 0.19614 0.0739806 0 0.200278 0.0739233 0 0.204439 0.0738002 0 0.208605 0.0736108 0 0.212758 0.073355 0 0.216877 0.0730333 0 0.220946 0.072647 0 0.224946 0.0721976 0 0.228858 0.0716876 0 0.232667 0.0711197 0 0.236357 0.0704971 0 0.239914 0.0698237 0 0.243325 0.0691035 0 0.246579 0.0683407 0 0.188002 0.0773666 0 0.192803 0.0774622 0 0.197668 0.0774966 0 0.20258 0.0774681 0 0.207518 0.0773757 0 0.212464 0.0772185 0 0.217398 0.0769966 0 0.222299 0.0767102 0 0.227148 0.0763603 0 0.231924 0.0759483 0 0.236609 0.075476 0 0.241185 0.074946 0 0.245634 0.074361 0 0.24994 0.0737242 0 0.254091 0.0730391 0 0.258072 0.0723097 0 0.188002 0.0808299 0 0.193562 0.0809446 0 0.199191 0.0810005 0 0.20487 0.080996 0 0.210579 0.08093 0 0.216297 0.080802 0 0.222004 0.0806117 0 0.22768 0.0803593 0 0.233302 0.0800456 0 0.238851 0.0796716 0 0.244308 0.079239 0 0.249652 0.0787497 0 0.254866 0.0782062 0 0.259932 0.0776111 0 0.264837 0.0769675 0 0.269565 0.0762787 0 0.188002 0.0842933 0 0.19432 0.0844206 0 0.200709 0.0844923 0 0.20715 0.0845069 0 0.213621 0.0844635 0 0.220104 0.0843614 0 0.226577 0.0842005 0 0.233019 0.0839809 0 0.23941 0.083703 0 0.245729 0.0833679 0 0.251955 0.0829767 0 0.258069 0.0825311 0 0.264053 0.0820331 0 0.26989 0.0814847 0 0.275563 0.0808887 0 0.281058 0.0802478 0 0.188001 0.0877566 0 0.195077 0.0878903 0 0.202222 0.0879721 0 0.209418 0.088001 0 0.216646 0.0879762 0 0.223886 0.087897 0 0.231117 0.0877634 0 0.238319 0.0875753 0 0.245472 0.0873331 0 0.252556 0.0870375 0 0.259551 0.0866895 0 0.266437 0.0862904 0 0.273197 0.0858416 0 0.279813 0.085345 0 0.286269 0.0848027 0 0.29255 0.0842168 0 0.188001 0.0912199 0 0.195832 0.0913535 0 0.203729 0.09144 0 0.211676 0.0914785 0 0.219653 0.0914683 0 0.227642 0.0914091 0 0.235624 0.0913006 0 0.24358 0.0911428 0 0.251489 0.090936 0 0.259334 0.0906807 0 0.267096 0.0903775 0 0.274756 0.0900276 0 0.282297 0.089632 0 0.289703 0.0891921 0 0.296956 0.0887094 0 0.304043 0.0881858 0 0.188001 0.0946833 0 0.196586 0.0948104 0 0.205232 0.094896 0 0.213923 0.0949394 0 0.222643 0.0949402 0 0.231374 0.0948979 0 0.240099 0.0948124 0 0.248801 0.0946837 0 0.257461 0.094512 0 0.266064 0.0942976 0 0.274591 0.0940411 0 0.283027 0.093743 0 0.291354 0.0934043 0 0.299558 0.0930259 0 0.307623 0.092609 0 0.315536 0.0921548 0 0.188001 0.0981466 0 0.197338 0.0982609 0 0.206729 0.0983402 0 0.21616 0.0983839 0 0.225615 0.0983918 0 0.235081 0.0983636 0 0.244542 0.0982991 0 0.253983 0.0981984 0 0.263389 0.0980615 0 0.272745 0.0978888 0 0.282037 0.0976804 0 0.291249 0.0974369 0 0.300368 0.0971588 0 0.30938 0.0968467 0 0.318271 0.0965015 0 0.327029 0.0961239 0 0.188001 0.10161 0 0.198089 0.101705 0 0.208221 0.101773 0 0.218385 0.101812 0 0.22857 0.101823 0 0.238763 0.101806 0 0.248953 0.101761 0 0.259127 0.101687 0 0.269273 0.101585 0 0.279379 0.101454 0 0.289433 0.101296 0 0.299424 0.101109 0 0.309339 0.100895 0 0.319168 0.100654 0 0.328899 0.100387 0 0.338522 0.100093 0 0.188 0.105073 0 0.198838 0.105143 0 0.209708 0.105193 0 0.220601 0.105224 0 0.231508 0.105235 0 0.242422 0.105227 0 0.253333 0.105198 0 0.264233 0.10515 0 0.275114 0.105082 0 0.285966 0.104994 0 0.296781 0.104887 0 0.307552 0.104761 0 0.318268 0.104614 0 0.328923 0.104449 0 0.339508 0.104265 0 0.350014 0.104062 0 0.188 0.108537 0 0.199587 0.108575 0 0.21119 0.108602 0 0.222805 0.10862 0 0.234429 0.108627 0 0.246056 0.108624 0 0.257682 0.108611 0 0.269302 0.108588 0 0.280911 0.108554 0 0.292506 0.10851 0 0.304081 0.108455 0 0.315632 0.108391 0 0.327155 0.108316 0 0.338645 0.108231 0 0.350097 0.108136 0 0.361507 0.108031 0 0.188 0.112 0 0.200333 0.112 0 0.212667 0.112 0 0.225 0.112 0 0.237333 0.112 0 0.249667 0.112 0 0.262 0.112 0 0.274333 0.112 0 0.286667 0.112 0 0.299 0.112 0 0.311333 0.112 0 0.323667 0.112 0 0.336 0.112 0 0.348333 0.112 0 0.360667 0.112 0 0.373 0.112 0 
</DataArray>
</Points> 
</Piece> 
</StructuredGrid> 
</VTKFile> 
