<?xml version="1.0"?> 
<VTKFile type="StructuredGrid" version="0.1"> 
<StructuredGrid WholeExtent="0 15 0 15 0 0"> 
<Piece Extent="0 15 0 15 0 0"> 
<PointData>
<DataArray type="Float32" Name="|E|" format="ascii" NumberOfComponents="3"> 
-1.44985e+06 0 0 -1.43518e+06 98835.6 0 -1.42472e+06 199672 0 -1.41816e+06 302898 0 -1.41519e+06 408858 0 -1.41548e+06 517845 0 -1.41866e+06 630078 0 -1.4244e+06 745683 0 -1.43241e+06 864669 0 -1.44251e+06 986920 0 -1.45472e+06 1.11219e+06 0 -1.46941e+06 1.24017e+06 0 -1.4874e+06 1.3706e+06 0 -1.51009e+06 1.50352e+06 0 -1.53959e+06 1.63962e+06 0 -1.57856e+06 1.78076e+06 0 -1.3669e+06 0 0 -1.35279e+06 106936 0 -1.34291e+06 215742 0 -1.33699e+06 326838 0 -1.33473e+06 440604 0 -1.33579e+06 557358 0 -1.33986e+06 677344 0 -1.34667e+06 800713 0 -1.356e+06 927510 0 -1.36782e+06 1.05768e+06 0 -1.38233e+06 1.1911e+06 0 -1.40013e+06 1.3277e+06 0 -1.4223e+06 1.46764e+06 0 -1.45048e+06 1.61163e+06 0 -1.48681e+06 1.76143e+06 0 -1.53363e+06 1.92043e+06 0 -1.28104e+06 0 0 -1.2676e+06 115031 0 -1.2584e+06 231808 0 -1.25318e+06 350791 0 -1.25166e+06 472396 0 -1.25354e+06 596979 0 -1.25854e+06 724822 0 -1.26644e+06 856123 0 -1.27715e+06 990997 0 -1.29075e+06 1.12951e+06 0 -1.30762e+06 1.27173e+06 0 -1.32851e+06 1.41795e+06 0 -1.35465e+06 1.56886e+06 0 -1.38764e+06 1.72603e+06 0 -1.42923e+06 1.89242e+06 0 -1.48075e+06 2.07305e+06 0 -1.19252e+06 0 0 -1.17984e+06 123101 0 -1.17139e+06 247836 0 -1.16692e+06 374709 0 -1.16616e+06 504180 0 -1.16886e+06 636655 0 -1.17477e+06 772469 0 -1.18377e+06 911896 0 -1.19581e+06 1.05516e+06 0 -1.21112e+06 1.20248e+06 0 -1.23017e+06 1.35423e+06 0 -1.25381e+06 1.51109e+06 0 -1.28315e+06 1.67441e+06 0 -1.31945e+06 1.84668e+06 0 -1.36352e+06 2.032e+06 0 -1.41475e+06 2.23682e+06 0 -1.10156e+06 0 0 -1.08974e+06 131127 0 -1.08209e+06 263789 0 -1.07839e+06 398540 0 -1.07839e+06 535896 0 -1.08187e+06 676320 0 -1.08864e+06 820225 0 -1.09863e+06 967979 0 -1.11188e+06 1.11995e+06 0 -1.12866e+06 1.27657e+06 0 -1.1495e+06 1.43852e+06 0 -1.17515e+06 1.60698e+06 0 -1.20643e+06 1.78393e+06 0 -1.2438e+06 1.97267e+06 0 -1.28652e+06 2.17818e+06 0 -1.33117e+06 2.40746e+06 0 -1.00839e+06 0 0 -997500 139088 0 -990693 279626 0 -987759 422226 0 -988482 567469 0 -992671 715893 0 -1.00019e+06 867998 0 -1.011e+06 1.02427e+06 0 -1.0252e+06 1.18525e+06 0 -1.04307e+06 1.35161e+06 0 -1.06508e+06 1.52437e+06 0 -1.09173e+06 1.70514e+06 0 -1.12324e+06 1.89649e+06 0 -1.15893e+06 2.10222e+06 0 -1.19595e+06 2.32754e+06 0 -1.22762e+06 2.57857e+06 0 -913223 0 0 -903324 146961 0 -897376 295301 0 -895185 445702 0 -896564 598818 0 -901350 755271 0 -909443 915668 0 -920835 1.08063e+06 0 -935641 1.25087e+06 0 -954097 1.42732e+06 0 -976481 1.6113e+06 0 -1.00288e+06 1.8048e+06 0 -1.03271e+06 2.01069e+06 0 -1.06383e+06 2.23285e+06 0 -1.0911e+06 2.47571e+06 0 -1.10488e+06 2.74282e+06 0 -816261 0 0 -807405 154720 0 -802317 310766 0 -800823 468896 0 -802760 629846 0 -807992 794336 0 -816444 963087 0 -828119 1.13686e+06 0 -843107 1.31656e+06 0 -861530 1.50332e+06 0 -883397 1.69872e+06 0 -908250 1.90495e+06 0 -934532 2.12487e+06 0 -958572 2.36177e+06 0 -973225 2.61826e+06 0 -967104 2.89388e+06 0 -717708 0 0 -709934 162338 0 -705691 325967 0 -704825 491727 0 -707193 660448 0 -712685 832954 0 -721237 1.01008e+06 0 -732845 1.19275e+06 0 -747537 1.382e+06 0 -765276 1.57917e+06 0 -785729 1.78595e+06 0 -807825 2.00451e+06 0 -829025 2.2373e+06 0 -844333 2.48636e+06 0 -845358 2.7516e+06 0 -820760 3.02795e+06 0 -617764 0 0 -611100 169787 0 -607671 340846 0 -607342 514112 0 -609991 690513 0 -615524 870980 0 -623884 1.05648e+06 0 -635042 1.24805e+06 0 -648940 1.44688e+06 0 -665352 1.65441e+06 0 -683585 1.87232e+06 0 -701971 2.10249e+06 0 -717141 2.34652e+06 0 -723248 2.60465e+06 0 -711719 2.87367e+06 0 -672961 3.1443e+06 0 -516627 0 0 -511090 177036 0 -508429 355346 0 -508528 535964 0 -511284 719921 0 -516616 908264 0 -524466 1.10208e+06 0 -534771 1.30252e+06 0 -547383 1.51089e+06 0 -561887 1.72861e+06 0 -577262 1.95723e+06 0 -591369 2.19806e+06 0 -600312 2.45151e+06 0 -598033 2.71564e+06 0 -576834 2.98417e+06 0 -529954 3.24478e+06 0 -414496 0 0 -410093 184055 0 -408138 369406 0 -408537 557191 0 -411205 748554 0 -416072 944655 0 -423076 1.14669e+06 0 -432123 1.35594e+06 0 -442985 1.57372e+06 0 -455096 1.80143e+06 0 -467210 2.04025e+06 0 -476926 2.29075e+06 0 -480241 2.55184e+06 0 -471551 2.81932e+06 0 -444818 3.08427e+06 0 -396361 3.33265e+06 0 -311569 0 0 -308296 190812 0 -306974 382963 0 -307529 577703 0 -309894 776290 0 -314012 980001 0 -319821 1.19015e+06 0 -327208 1.40808e+06 0 -335896 1.63516e+06 0 -345251 1.8726e+06 0 -353957 2.12117e+06 0 -359649 2.38044e+06 0 -358676 2.64772e+06 0 -346462 2.91661e+06 0 -318980 3.17612e+06 0 -275160 3.41159e+06 0 -208045 0 0 -205889 197275 0 -205112 395956 0 -205662 597408 0 -207493 803009 0 -210562 1.01416e+06 0 -214816 1.23227e+06 0 -220143 1.45878e+06 0 -226279 1.69502e+06 0 -232633 1.94202e+06 0 -238042 2.19998e+06 0 -240523 2.46741e+06 0 -237235 2.73992e+06 0 -225020 3.00907e+06 0 -201778 3.26227e+06 0 -168095 3.48493e+06 0 -104122 0 0 -103061 203414 0 -102728 408322 0 -103099 616215 0 -104147 828593 0 -105849 1.04698e+06 0 -108173 1.2729e+06 0 -111042 1.50786e+06 0 -114279 1.75318e+06 0 -117492 2.00966e+06 0 -119941 2.27691e+06 0 -120414 2.55228e+06 0 -117302 2.82966e+06 0 -109043 3.09863e+06 0 -94992.8 3.34527e+06 0 -76159.1 3.55529e+06 0 0 0 0 0 209196 0 0 420002 0 0 634036 0 0 852926 0 0 1.07832e+06 0 0 1.31188e+06 0 0 1.5552e+06 0 0 1.80959e+06 0 0 2.07565e+06 0 0 2.35239e+06 0 0 2.63599e+06 0 0 2.9185e+06 0 0 3.1874e+06 0 0 3.42738e+06 0 0 3.62447e+06 0 </DataArray> 
</PointData> 
<Points> 
<DataArray type="Float32" NumberOfComponents="3"> 
0 0.0556667 0 0.00452 0.0564444 0 0.00904 0.0572222 0 0.01356 0.058 0 0.01808 0.0587778 0 0.0226 0.0595556 0 0.02712 0.0603333 0 0.03164 0.0611111 0 0.03616 0.0618889 0 0.04068 0.0626667 0 0.0452 0.0634444 0 0.04972 0.0642222 0 0.05424 0.065 0 0.05876 0.0657778 0 0.06328 0.0665556 0 0.0678 0.0673333 0 0 0.0594222 0 0.00472089 0.0601481 0 0.00944178 0.0608741 0 0.0141627 0.0616 0 0.0188836 0.0623259 0 0.0236044 0.0630519 0 0.0283253 0.0637778 0 0.0330462 0.0645037 0 0.0377671 0.0652296 0 0.042488 0.0659556 0 0.0472089 0.0666815 0 0.0519298 0.0674074 0 0.0566507 0.0681333 0 0.0613716 0.0688593 0 0.0660924 0.0695852 0 0.0708133 0.0703111 0 0 0.0631778 0 0.00492178 0.0638519 0 0.00984356 0.0645259 0 0.0147653 0.0652 0 0.0196871 0.0658741 0 0.0246089 0.0665481 0 0.0295307 0.0672222 0 0.0344524 0.0678963 0 0.0393742 0.0685704 0 0.044296 0.0692444 0 0.0492178 0.0699185 0 0.0541396 0.0705926 0 0.0590613 0.0712667 0 0.0639831 0.0719407 0 0.0689049 0.0726148 0 0.0738267 0.0732889 0 0 0.0669333 0 0.00512267 0.0675556 0 0.0102453 0.0681778 0 0.015368 0.0688 0 0.0204907 0.0694222 0 0.0256133 0.0700444 0 0.030736 0.0706667 0 0.0358587 0.0712889 0 0.0409813 0.0719111 0 0.046104 0.0725333 0 0.0512267 0.0731556 0 0.0563493 0.0737778 0 0.061472 0.0744 0 0.0665947 0.0750222 0 0.0717173 0.0756444 0 0.07684 0.0762667 0 0 0.0706889 0 0.00532356 0.0712593 0 0.0106471 0.0718296 0 0.0159707 0.0724 0 0.0212942 0.0729704 0 0.0266178 0.0735407 0 0.0319413 0.0741111 0 0.0372649 0.0746815 0 0.0425884 0.0752519 0 0.047912 0.0758222 0 0.0532356 0.0763926 0 0.0585591 0.076963 0 0.0638827 0.0775333 0 0.0692062 0.0781037 0 0.0745298 0.0786741 0 0.0798533 0.0792444 0 0 0.0744444 0 0.00552444 0.074963 0 0.0110489 0.0754815 0 0.0165733 0.076 0 0.0220978 0.0765185 0 0.0276222 0.077037 0 0.0331467 0.0775556 0 0.0386711 0.0780741 0 0.0441956 0.0785926 0 0.04972 0.0791111 0 0.0552444 0.0796296 0 0.0607689 0.0801481 0 0.0662933 0.0806667 0 0.0718178 0.0811852 0 0.0773422 0.0817037 0 0.0828667 0.0822222 0 0 0.0782 0 0.00572533 0.0786667 0 0.0114507 0.0791333 0 0.017176 0.0796 0 0.0229013 0.0800667 0 0.0286267 0.0805333 0 0.034352 0.081 0 0.0400773 0.0814667 0 0.0458027 0.0819333 0 0.051528 0.0824 0 0.0572533 0.0828667 0 0.0629787 0.0833333 0 0.068704 0.0838 0 0.0744293 0.0842667 0 0.0801547 0.0847333 0 0.08588 0.0852 0 0 0.0819556 0 0.00592622 0.0823704 0 0.0118524 0.0827852 0 0.0177787 0.0832 0 0.0237049 0.0836148 0 0.0296311 0.0840296 0 0.0355573 0.0844444 0 0.0414836 0.0848593 0 0.0474098 0.0852741 0 0.053336 0.0856889 0 0.0592622 0.0861037 0 0.0651884 0.0865185 0 0.0711147 0.0869333 0 0.0770409 0.0873481 0 0.0829671 0.087763 0 0.0888933 0.0881778 0 0 0.0857111 0 0.00612711 0.0860741 0 0.0122542 0.086437 0 0.0183813 0.0868 0 0.0245084 0.087163 0 0.0306356 0.0875259 0 0.0367627 0.0878889 0 0.0428898 0.0882519 0 0.0490169 0.0886148 0 0.055144 0.0889778 0 0.0612711 0.0893407 0 0.0673982 0.0897037 0 0.0735253 0.0900667 0 0.0796524 0.0904296 0 0.0857796 0.0907926 0 0.0919067 0.0911556 0 0 0.0894667 0 0.006328 0.0897778 0 0.012656 0.0900889 0 0.018984 0.0904 0 0.025312 0.0907111 0 0.03164 0.0910222 0 0.037968 0.0913333 0 0.044296 0.0916444 0 0.050624 0.0919556 0 0.056952 0.0922667 0 0.06328 0.0925778 0 0.069608 0.0928889 0 0.075936 0.0932 0 0.082264 0.0935111 0 0.088592 0.0938222 0 0.09492 0.0941333 0 0 0.0932222 0 0.00652889 0.0934815 0 0.0130578 0.0937407 0 0.0195867 0.094 0 0.0261156 0.0942593 0 0.0326444 0.0945185 0 0.0391733 0.0947778 0 0.0457022 0.095037 0 0.0522311 0.0952963 0 0.05876 0.0955556 0 0.0652889 0.0958148 0 0.0718178 0.0960741 0 0.0783467 0.0963333 0 0.0848756 0.0965926 0 0.0914044 0.0968519 0 0.0979333 0.0971111 0 0 0.0969778 0 0.00672978 0.0971852 0 0.0134596 0.0973926 0 0.0201893 0.0976 0 0.0269191 0.0978074 0 0.0336489 0.0980148 0 0.0403787 0.0982222 0 0.0471084 0.0984296 0 0.0538382 0.098637 0 0.060568 0.0988444 0 0.0672978 0.0990519 0 0.0740276 0.0992593 0 0.0807573 0.0994667 0 0.0874871 0.0996741 0 0.0942169 0.0998815 0 0.100947 0.100089 0 0 0.100733 0 0.00693067 0.100889 0 0.0138613 0.101044 0 0.020792 0.1012 0 0.0277227 0.101356 0 0.0346533 0.101511 0 0.041584 0.101667 0 0.0485147 0.101822 0 0.0554453 0.101978 0 0.062376 0.102133 0 0.0693067 0.102289 0 0.0762373 0.102444 0 0.083168 0.1026 0 0.0900987 0.102756 0 0.0970293 0.102911 0 0.10396 0.103067 0 0 0.104489 0 0.00713156 0.104593 0 0.0142631 0.104696 0 0.0213947 0.1048 0 0.0285262 0.104904 0 0.0356578 0.105007 0 0.0427893 0.105111 0 0.0499209 0.105215 0 0.0570524 0.105319 0 0.064184 0.105422 0 0.0713156 0.105526 0 0.0784471 0.10563 0 0.0855787 0.105733 0 0.0927102 0.105837 0 0.0998418 0.105941 0 0.106973 0.106044 0 0 0.108244 0 0.00733244 0.108296 0 0.0146649 0.108348 0 0.0219973 0.1084 0 0.0293298 0.108452 0 0.0366622 0.108504 0 0.0439947 0.108556 0 0.0513271 0.108607 0 0.0586596 0.108659 0 0.065992 0.108711 0 0.0733244 0.108763 0 0.0806569 0.108815 0 0.0879893 0.108867 0 0.0953218 0.108919 0 0.102654 0.10897 0 0.109987 0.109022 0 0 0.112 0 0.00753333 0.112 0 0.0150667 0.112 0 0.0226 0.112 0 0.0301333 0.112 0 0.0376667 0.112 0 0.0452 0.112 0 0.0527333 0.112 0 0.0602667 0.112 0 0.0678 0.112 0 0.0753333 0.112 0 0.0828667 0.112 0 0.0904 0.112 0 0.0979333 0.112 0 0.105467 0.112 0 0.113 0.112 0 
</DataArray>
</Points> 
</Piece> 
</StructuredGrid> 
</VTKFile> 
