<?xml version="1.0"?> 
<VTKFile type="StructuredGrid" version="0.1"> 
<StructuredGrid WholeExtent="0 15 0 15 0 0"> 
<Piece Extent="0 15 0 15 0 0"> 
<PointData>
<DataArray type="Float32" Name="|E|" format="ascii" NumberOfComponents="3"> 
-1.78814e-07 5.85343e+06 0 2.06637e-09 3.77064e+06 0 5.12227e-08 2.67183e+06 0 -4.56348e-08 2.01684e+06 0 3.49246e-08 1.52735e+06 0 -7.45058e-09 1.12127e+06 0 3.25963e-08 775629 0 -5.58794e-08 494794 0 5.40167e-08 288817 0 -5.40167e-08 155719 0 9.68575e-08 79262 0 -1.22935e-07 38943.8 0 1.08033e-07 18798.6 0 -8.56817e-08 8964.41 0 3.72529e-08 4330.71 0 0 2877.54 0 -507266 4.23076e+06 0 -272064 2.95728e+06 0 -172642 2.23047e+06 0 -133738 1.71647e+06 0 -112776 1.29777e+06 0 -96937.5 938740 0 -79615.3 634870 0 -59385.7 395844 0 -39270.3 227581 0 -23208.2 122482 0 -12617.7 63034.6 0 -6511.18 31610.8 0 -3266.86 15635.3 0 -1611.08 7699.69 0 -777.81 3801.85 0 -120.087 1854.6 0 -621635 3.13616e+06 0 -380937 2.39131e+06 0 -286296 1.86957e+06 0 -239299 1.44701e+06 0 -207460 1.08264e+06 0 -176924 765530 0 -140524 502668 0 -100426 304613 0 -64100.6 171966 0 -37239.5 92245.6 0 -20274.7 47969.6 0 -10624.5 24531.9 0 -5451.53 12444.7 0 -2761.56 6294.64 0 -1356.66 3199.61 0 -546.668 1521.63 0 -605205 2.46916e+06 0 -451700 1.97575e+06 0 -375769 1.56153e+06 0 -327033 1.20046e+06 0 -285614 879064 0 -237629 601109 0 -180799 379572 0 -123502 222287 0 -76356.9 123032 0 -43819.9 65823.8 0 -23990.3 34619.5 0 -12790.6 18063.6 0 -6718.87 9394.59 0 -3493.87 4884.19 0 -1772.77 2542.65 0 -865.548 1247.27 0 -617921 2.02677e+06 0 -516067 1.63551e+06 0 -451262 1.28661e+06 0 -400438 969228 0 -344792 684393 0 -275592 445821 0 -199287 267668 0 -130193 150745 0 -78405.8 81829.7 0 -44734.6 43768.7 0 -24740.1 23321.6 0 -13450.1 12424.4 0 -7241.03 6625.57 0 -3867.02 3539.52 0 -2031.7 1883.31 0 -1065.37 956.895 0 -652696 1.66649e+06 0 -575018 1.33756e+06 0 -517057 1.03144e+06 0 -456821 746966 0 -379526 497560 0 -287382 302605 0 -196665 170500 0 -123430 91948.7 0 -73010.7 49028.1 0 -41730.9 26277.2 0 -23420.5 14200.9 0 -13013.8 7726.1 0 -7187.5 4223.98 0 -3945.37 2315.7 0 -2144.46 1257.95 0 -1172.07 658.952 0 -693087 1.35188e+06 0 -631623 1.06314e+06 0 -569676 784662 0 -487752 529694 0 -382920 321967 0 -271856 177561 0 -176331 92078.2 0 -107336 47145.1 0 -63049.4 24606.6 0 -36385.3 13174.7 0 -20811.7 7199.54 0 -11844.6 3990.18 0 -6717.57 2231.68 0 -3793.23 1251.3 0 -2129.86 690.505 0 -1202.26 368.66 0 -740816 1.063e+06 0 -680592 794762 0 -596404 537720 0 -480913 320758 0 -350592 167373 0 -232709 78420.6 0 -144476 35149.1 0 -86574.4 16119.2 0 -51113.2 7799.89 0 -29993.2 3981.2 0 -17547.7 2122.43 0 -10247.5 1168.43 0 -5973.46 655.866 0 -3471.82 367.417 0 -2011.17 196.717 0 -1168.89 99.1541 0 -787978 774667 0 -702786 517398 0 -576413 293769 0 -426588 135413 0 -286420 47737.3 0 -179457 10895.3 0 -108769 -619.284 0 -65317.2 -2953.3 0 -39179.3 -2706.45 0 -23506 -1969.17 0 -14106.2 -1309.41 0 -8465.04 -834.591 0 -5075.6 -522.962 0 -3037.41 -329.861 0 -1813.28 -214.167 0 -1083.24 -139.828 0 -805024 464038 0 -663813 235050 0 -491894 77214.6 0 -329343 -2204.52 0 -205642 -26222.7 0 -124908 -25580.5 0 -75879.8 -19012.7 0 -46385.5 -12923.7 0 -28481.4 -8444.69 0 -17536.6 -5399.76 0 -10817.3 -3410.81 0 -6677.82 -2141.42 0 -4121.09 -1343.09 0 -2539.48 -846.519 0 -1560.69 -538.414 0 -956.547 -341.458 0 -735375 139068 0 -535167 -11051.5 0 -350864 -71313.1 0 -214996 -74074.2 0 -129716 -56390.8 0 -79455.3 -38644.1 0 -49455.1 -25635.1 0 -31051.4 -16763.6 0 -19599.4 -10859.1 0 -12416.1 -6995.43 0 -7883.43 -4493.84 0 -5010.34 -2884.67 0 -3183.7 -1854.5 0 -2019.76 -1197.33 0 -1276.07 -777.199 0 -799.859 -502.022 0 -539904 -128087 0 -337593 -154377 0 -199402 -125768 0 -118844 -87409.2 0 -73621.2 -58136.3 0 -46804.3 -38590 0 -30078.6 -25590.2 0 -19462.2 -16904.5 0 -12660.4 -11146.9 0 -8264.85 -7345.9 0 -5406.21 -4841.74 0 -3539.06 -3194.44 0 -2315.76 -2112.59 0 -1511.65 -1402.94 0 -979.42 -935.993 0 -623.002 -620.714 0 -276282 -236186 0 -154585 -167535 0 -91802.4 -109634 0 -58545.6 -72323 0 -38317.6 -48789.5 0 -25251.7 -33038 0 -16756.7 -22327.5 0 -11202.2 -15093.2 0 -7520.87 -10216.8 0 -5063.36 -6921.47 0 -3413.41 -4694.71 0 -2302.08 -3189.59 0 -1550.89 -2173.21 0 -1040.37 -1487.48 0 -687.688 -1023.94 0 -435.038 -700.209 0 -87670.7 -180850 0 -55830 -113482 0 -38151 -76950.5 0 -25799.6 -53731 0 -17376.9 -37319.8 0 -11839.7 -25840.4 0 -8149.31 -17937 0 -5633.55 -12486.8 0 -3904.57 -8703.02 0 -2711.23 -6073.62 0 -1883.88 -4244.82 0 -1308.87 -2972.77 0 -907.215 -2088.92 0 -623.841 -1476.43 0 -415.503 -1053.47 0 -239.55 -750.583 0 -25575.2 -97909.4 0 -18221.1 -72715.5 0 -12006.7 -52750.6 0 -8164.07 -37384.2 0 -5777.37 -26540.1 0 -4113.73 -18974.7 0 -2931.52 -13604.7 0 -2091.69 -9764.46 0 -1496.92 -7015.87 0 -1071.57 -5048.18 0 -767.53 -3637.96 0 -549.009 -2628.21 0 -391.023 -1906.49 0 -274.155 -1394.93 0 -178.304 -1040.15 0 -45.4161 -798.882 0 1.01328e-06 -54158.1 0 -9.27248e-08 -42152.8 0 1.72295e-08 -33523.2 0 -6.98492e-09 -24798.9 0 -2.04891e-08 -18077 0 -1.30385e-08 -13312.4 0 8.19564e-08 -9846.33 0 -8.9407e-08 -7290.23 0 3.35276e-08 -5400.72 0 -7.07805e-08 -4007.37 0 7.45058e-08 -2978.97 0 -4.47035e-08 -2220.89 0 1.49012e-08 -1665.54 0 -8.19564e-08 -1262.41 0 4.47035e-08 -996.179 0 -2.38419e-07 -1008.83 0 </DataArray> 
</PointData> 
<Points> 
<DataArray type="Float32" NumberOfComponents="3"> 
0.075 0.021 0 0.0783333 0.021 0 0.0816667 0.021 0 0.085 0.021 0 0.0883333 0.021 0 0.0916667 0.021 0 0.095 0.021 0 0.0983333 0.021 0 0.101667 0.021 0 0.105 0.021 0 0.108333 0.021 0 0.111667 0.021 0 0.115 0.021 0 0.118333 0.021 0 0.121667 0.021 0 0.125 0.021 0 0.0773333 0.0219333 0 0.0805333 0.0219333 0 0.0837333 0.0219333 0 0.0869333 0.0219333 0 0.0901333 0.0219333 0 0.0933333 0.0219333 0 0.0965333 0.0219333 0 0.0997333 0.0219333 0 0.102933 0.0219333 0 0.106133 0.0219333 0 0.109333 0.0219333 0 0.112533 0.0219333 0 0.115733 0.0219333 0 0.118933 0.0219333 0 0.122133 0.0219333 0 0.125333 0.0219333 0 0.0796667 0.0228667 0 0.0827333 0.0228667 0 0.0858 0.0228667 0 0.0888667 0.0228667 0 0.0919333 0.0228667 0 0.095 0.0228667 0 0.0980667 0.0228667 0 0.101133 0.0228667 0 0.1042 0.0228667 0 0.107267 0.0228667 0 0.110333 0.0228667 0 0.1134 0.0228667 0 0.116467 0.0228667 0 0.119533 0.0228667 0 0.1226 0.0228667 0 0.125667 0.0228667 0 0.082 0.0238 0 0.0849333 0.0238 0 0.0878667 0.0238 0 0.0908 0.0238 0 0.0937333 0.0238 0 0.0966667 0.0238 0 0.0996 0.0238 0 0.102533 0.0238 0 0.105467 0.0238 0 0.1084 0.0238 0 0.111333 0.0238 0 0.114267 0.0238 0 0.1172 0.0238 0 0.120133 0.0238 0 0.123067 0.0238 0 0.126 0.0238 0 0.0843333 0.0247333 0 0.0871333 0.0247333 0 0.0899333 0.0247333 0 0.0927333 0.0247333 0 0.0955333 0.0247333 0 0.0983333 0.0247333 0 0.101133 0.0247333 0 0.103933 0.0247333 0 0.106733 0.0247333 0 0.109533 0.0247333 0 0.112333 0.0247333 0 0.115133 0.0247333 0 0.117933 0.0247333 0 0.120733 0.0247333 0 0.123533 0.0247333 0 0.126333 0.0247333 0 0.0866667 0.0256667 0 0.0893333 0.0256667 0 0.092 0.0256667 0 0.0946667 0.0256667 0 0.0973333 0.0256667 0 0.1 0.0256667 0 0.102667 0.0256667 0 0.105333 0.0256667 0 0.108 0.0256667 0 0.110667 0.0256667 0 0.113333 0.0256667 0 0.116 0.0256667 0 0.118667 0.0256667 0 0.121333 0.0256667 0 0.124 0.0256667 0 0.126667 0.0256667 0 0.089 0.0266 0 0.0915333 0.0266 0 0.0940667 0.0266 0 0.0966 0.0266 0 0.0991333 0.0266 0 0.101667 0.0266 0 0.1042 0.0266 0 0.106733 0.0266 0 0.109267 0.0266 0 0.1118 0.0266 0 0.114333 0.0266 0 0.116867 0.0266 0 0.1194 0.0266 0 0.121933 0.0266 0 0.124467 0.0266 0 0.127 0.0266 0 0.0913333 0.0275333 0 0.0937333 0.0275333 0 0.0961333 0.0275333 0 0.0985333 0.0275333 0 0.100933 0.0275333 0 0.103333 0.0275333 0 0.105733 0.0275333 0 0.108133 0.0275333 0 0.110533 0.0275333 0 0.112933 0.0275333 0 0.115333 0.0275333 0 0.117733 0.0275333 0 0.120133 0.0275333 0 0.122533 0.0275333 0 0.124933 0.0275333 0 0.127333 0.0275333 0 0.0936667 0.0284667 0 0.0959333 0.0284667 0 0.0982 0.0284667 0 0.100467 0.0284667 0 0.102733 0.0284667 0 0.105 0.0284667 0 0.107267 0.0284667 0 0.109533 0.0284667 0 0.1118 0.0284667 0 0.114067 0.0284667 0 0.116333 0.0284667 0 0.1186 0.0284667 0 0.120867 0.0284667 0 0.123133 0.0284667 0 0.1254 0.0284667 0 0.127667 0.0284667 0 0.096 0.0294 0 0.0981333 0.0294 0 0.100267 0.0294 0 0.1024 0.0294 0 0.104533 0.0294 0 0.106667 0.0294 0 0.1088 0.0294 0 0.110933 0.0294 0 0.113067 0.0294 0 0.1152 0.0294 0 0.117333 0.0294 0 0.119467 0.0294 0 0.1216 0.0294 0 0.123733 0.0294 0 0.125867 0.0294 0 0.128 0.0294 0 0.0983333 0.0303333 0 0.100333 0.0303333 0 0.102333 0.0303333 0 0.104333 0.0303333 0 0.106333 0.0303333 0 0.108333 0.0303333 0 0.110333 0.0303333 0 0.112333 0.0303333 0 0.114333 0.0303333 0 0.116333 0.0303333 0 0.118333 0.0303333 0 0.120333 0.0303333 0 0.122333 0.0303333 0 0.124333 0.0303333 0 0.126333 0.0303333 0 0.128333 0.0303333 0 0.100667 0.0312667 0 0.102533 0.0312667 0 0.1044 0.0312667 0 0.106267 0.0312667 0 0.108133 0.0312667 0 0.11 0.0312667 0 0.111867 0.0312667 0 0.113733 0.0312667 0 0.1156 0.0312667 0 0.117467 0.0312667 0 0.119333 0.0312667 0 0.1212 0.0312667 0 0.123067 0.0312667 0 0.124933 0.0312667 0 0.1268 0.0312667 0 0.128667 0.0312667 0 0.103 0.0322 0 0.104733 0.0322 0 0.106467 0.0322 0 0.1082 0.0322 0 0.109933 0.0322 0 0.111667 0.0322 0 0.1134 0.0322 0 0.115133 0.0322 0 0.116867 0.0322 0 0.1186 0.0322 0 0.120333 0.0322 0 0.122067 0.0322 0 0.1238 0.0322 0 0.125533 0.0322 0 0.127267 0.0322 0 0.129 0.0322 0 0.105333 0.0331333 0 0.106933 0.0331333 0 0.108533 0.0331333 0 0.110133 0.0331333 0 0.111733 0.0331333 0 0.113333 0.0331333 0 0.114933 0.0331333 0 0.116533 0.0331333 0 0.118133 0.0331333 0 0.119733 0.0331333 0 0.121333 0.0331333 0 0.122933 0.0331333 0 0.124533 0.0331333 0 0.126133 0.0331333 0 0.127733 0.0331333 0 0.129333 0.0331333 0 0.107667 0.0340667 0 0.109133 0.0340667 0 0.1106 0.0340667 0 0.112067 0.0340667 0 0.113533 0.0340667 0 0.115 0.0340667 0 0.116467 0.0340667 0 0.117933 0.0340667 0 0.1194 0.0340667 0 0.120867 0.0340667 0 0.122333 0.0340667 0 0.1238 0.0340667 0 0.125267 0.0340667 0 0.126733 0.0340667 0 0.1282 0.0340667 0 0.129667 0.0340667 0 0.11 0.035 0 0.111333 0.035 0 0.112667 0.035 0 0.114 0.035 0 0.115333 0.035 0 0.116667 0.035 0 0.118 0.035 0 0.119333 0.035 0 0.120667 0.035 0 0.122 0.035 0 0.123333 0.035 0 0.124667 0.035 0 0.126 0.035 0 0.127333 0.035 0 0.128667 0.035 0 0.13 0.035 0 
</DataArray>
</Points> 
</Piece> 
</StructuredGrid> 
</VTKFile> 
