<?xml version="1.0"?> 
<VTKFile type="StructuredGrid" version="0.1"> 
<StructuredGrid WholeExtent="0 15 0 15 0 0"> 
<Piece Extent="0 15 0 15 0 0"> 
<PointData>
<DataArray type="Float32" Name="|E|" format="ascii" NumberOfComponents="3"> 
-2.06992e+06 0 0 -2.06995e+06 3164.6 0 -2.07007e+06 6329.49 0 -2.07025e+06 9494.98 0 -2.07052e+06 12661.4 0 -2.07085e+06 15829 0 -2.07127e+06 18998.1 0 -2.07175e+06 22169 0 -2.07232e+06 25341.9 0 -2.07296e+06 28517.2 0 -2.07367e+06 31695.2 0 -2.07446e+06 34876.1 0 -2.07532e+06 38060.4 0 -2.07626e+06 41248.4 0 -2.07728e+06 44440.2 0 -2.07837e+06 47635.5 0 -2.06725e+06 0 0 -2.0673e+06 3585.55 0 -2.06744e+06 7171.52 0 -2.06767e+06 10758.3 0 -2.06799e+06 14346.4 0 -2.06841e+06 17936.1 0 -2.06892e+06 21527.9 0 -2.06952e+06 25122.2 0 -2.07021e+06 28719.4 0 -2.07099e+06 32319.8 0 -2.07187e+06 35924.1 0 -2.07284e+06 39532.5 0 -2.0739e+06 43145.6 0 -2.07506e+06 46763.8 0 -2.07631e+06 50387.6 0 -2.07765e+06 54017.2 0 -2.06454e+06 0 0 -2.06459e+06 4020.11 0 -2.06476e+06 8040.79 0 -2.06504e+06 12062.6 0 -2.06543e+06 16086.1 0 -2.06593e+06 20111.8 0 -2.06654e+06 24140.4 0 -2.06727e+06 28172.3 0 -2.0681e+06 32208.1 0 -2.06905e+06 36248.5 0 -2.07011e+06 40294 0 -2.07128e+06 44345.2 0 -2.07256e+06 48402.7 0 -2.07396e+06 52467 0 -2.07546e+06 56538.8 0 -2.07708e+06 60618.6 0 -2.06177e+06 0 0 -2.06184e+06 4468.21 0 -2.06204e+06 8937.17 0 -2.06237e+06 13407.6 0 -2.06283e+06 17880.3 0 -2.06342e+06 22355.9 0 -2.06415e+06 26835.2 0 -2.06501e+06 31319 0 -2.066e+06 35808 0 -2.06712e+06 40303 0 -2.06838e+06 44804.7 0 -2.06977e+06 49314 0 -2.07129e+06 53831.5 0 -2.07294e+06 58358.1 0 -2.07473e+06 62894.5 0 -2.07665e+06 67441.5 0 -2.05895e+06 0 0 -2.05903e+06 4929.77 0 -2.05926e+06 9860.5 0 -2.05965e+06 14793.1 0 -2.06019e+06 19728.7 0 -2.06088e+06 24668 0 -2.06173e+06 29612.1 0 -2.06274e+06 34562 0 -2.0639e+06 39518.7 0 -2.06521e+06 44483 0 -2.06668e+06 49456.1 0 -2.0683e+06 54439 0 -2.07009e+06 59432.5 0 -2.07202e+06 64437.6 0 -2.07412e+06 69455.5 0 -2.07637e+06 74487.1 0 -2.05608e+06 0 0 -2.05617e+06 5404.72 0 -2.05644e+06 10810.6 0 -2.05689e+06 16219 0 -2.05751e+06 21631 0 -2.05831e+06 27047.8 0 -2.0593e+06 32470.8 0 -2.06046e+06 37901 0 -2.0618e+06 43339.8 0 -2.06332e+06 48788.4 0 -2.06501e+06 54248.1 0 -2.06689e+06 59720.1 0 -2.06895e+06 65205.7 0 -2.07119e+06 70706.1 0 -2.07361e+06 76222.7 0 -2.07621e+06 81756.7 0 -2.05316e+06 0 0 -2.05327e+06 5892.97 0 -2.05357e+06 11787.4 0 -2.05408e+06 17685 0 -2.0548e+06 23587 0 -2.05571e+06 29495.1 0 -2.05684e+06 35410.8 0 -2.05816e+06 41335.7 0 -2.0597e+06 47271.2 0 -2.06143e+06 53219 0 -2.06338e+06 59180.6 0 -2.06553e+06 65157.5 0 -2.06788e+06 71151.5 0 -2.07045e+06 77164 0 -2.07322e+06 83196.8 0 -2.0762e+06 89251.3 0 -2.05019e+06 0 0 -2.05031e+06 6394.45 0 -2.05065e+06 12790.8 0 -2.05123e+06 19190.8 0 -2.05204e+06 25596.4 0 -2.05308e+06 32009.5 0 -2.05436e+06 38431.9 0 -2.05586e+06 44865.6 0 -2.0576e+06 51312.5 0 -2.05957e+06 57774.4 0 -2.06177e+06 64253.3 0 -2.06421e+06 70751.3 0 -2.06688e+06 77270.1 0 -2.06979e+06 83811.9 0 -2.07293e+06 90378.7 0 -2.07631e+06 96972.5 0 -2.04717e+06 0 0 -2.0473e+06 6909.07 0 -2.04769e+06 13820.4 0 -2.04834e+06 20736.3 0 -2.04925e+06 27658.9 0 -2.05042e+06 34590.6 0 -2.05185e+06 41533.7 0 -2.05355e+06 48490.5 0 -2.0555e+06 55463.4 0 -2.05772e+06 62454.5 0 -2.0602e+06 69466.4 0 -2.06294e+06 76501.4 0 -2.06595e+06 83562 0 -2.06922e+06 90650.5 0 -2.07276e+06 97769.5 0 -2.07656e+06 104921 0 -2.0441e+06 0 0 -2.04424e+06 7436.75 0 -2.04468e+06 14876.2 0 -2.0454e+06 22321.1 0 -2.04642e+06 29774.2 0 -2.04773e+06 37238.3 0 -2.04933e+06 44716 0 -2.05122e+06 52210.1 0 -2.0534e+06 59723.6 0 -2.05588e+06 67259.1 0 -2.05865e+06 74819.7 0 -2.06171e+06 82408.1 0 -2.06507e+06 90027.3 0 -2.06873e+06 97680.3 0 -2.07268e+06 105370 0 -2.07694e+06 113100 0 -2.04097e+06 0 0 -2.04113e+06 7977.42 0 -2.04162e+06 15958.1 0 -2.04242e+06 23945.2 0 -2.04355e+06 31942.1 0 -2.045e+06 39952 0 -2.04678e+06 47978.2 0 -2.04888e+06 56024 0 -2.0513e+06 64092.9 0 -2.05405e+06 72188 0 -2.05713e+06 80313 0 -2.06053e+06 88471.3 0 -2.06426e+06 96666.5 0 -2.06832e+06 104902 0 -2.07271e+06 113181 0 -2.07744e+06 121508 0 -2.0378e+06 0 0 -2.03798e+06 8530.99 0 -2.03851e+06 17065.8 0 -2.0394e+06 25608.3 0 -2.04064e+06 34162.2 0 -2.04225e+06 42731.6 0 -2.04421e+06 51320.2 0 -2.04652e+06 59931.9 0 -2.0492e+06 68570.9 0 -2.05223e+06 77241 0 -2.05563e+06 85946.4 0 -2.05939e+06 94691.4 0 -2.06351e+06 103480 0 -2.06799e+06 112316 0 -2.07285e+06 121204 0 -2.07807e+06 130149 0 -2.03457e+06 0 0 -2.03477e+06 9097.36 0 -2.03536e+06 18199.2 0 -2.03633e+06 27310 0 -2.0377e+06 36434.3 0 -2.03946e+06 45576.6 0 -2.04161e+06 54741.4 0 -2.04416e+06 63933.5 0 -2.04709e+06 73157.4 0 -2.05043e+06 82417.9 0 -2.05416e+06 91719.9 0 -2.05829e+06 101068 0 -2.06281e+06 110468 0 -2.06774e+06 119924 0 -2.07308e+06 129440 0 -2.07881e+06 139023 0 -2.0313e+06 0 0 -2.03151e+06 9676.46 0 -2.03215e+06 19358.1 0 -2.03322e+06 29050.2 0 -2.03472e+06 38758 0 -2.03664e+06 48486.7 0 -2.03899e+06 58241.7 0 -2.04177e+06 68028.3 0 -2.04499e+06 77852 0 -2.04863e+06 87718.3 0 -2.05271e+06 97633.2 0 -2.05723e+06 107602 0 -2.06218e+06 117631 0 -2.06757e+06 127725 0 -2.0734e+06 137890 0 -2.07968e+06 148132 0 -2.02798e+06 0 0 -2.02821e+06 10268.2 0 -2.02891e+06 20542.4 0 -2.03007e+06 30828.6 0 -2.0317e+06 41133 0 -2.03379e+06 51461.6 0 -2.03635e+06 61820.5 0 -2.03938e+06 72216 0 -2.04288e+06 82654.4 0 -2.04684e+06 93142.3 0 -2.05129e+06 103687 0 -2.0562e+06 114293 0 -2.0616e+06 124969 0 -2.06747e+06 135720 0 -2.07382e+06 146554 0 -2.08066e+06 157477 0 -2.0246e+06 0 0 -2.02486e+06 10872.5 0 -2.02561e+06 21751.8 0 -2.02687e+06 32645.1 0 -2.02864e+06 43559.1 0 -2.03091e+06 54500.9 0 -2.03368e+06 65477.6 0 -2.03697e+06 76496.3 0 -2.04076e+06 87564.3 0 -2.04507e+06 98689.5 0 -2.04988e+06 109880 0 -2.05522e+06 121142 0 -2.06107e+06 132483 0 -2.06744e+06 143911 0 -2.07434e+06 155433 0 -2.08175e+06 167060 0 </DataArray> 
</PointData> 
<Points> 
<DataArray type="Float32" NumberOfComponents="3"> 
0 0.016 0 0.0004 0.016 0 0.0008 0.016 0 0.0012 0.016 0 0.0016 0.016 0 0.002 0.016 0 0.0024 0.016 0 0.0028 0.016 0 0.0032 0.016 0 0.0036 0.016 0 0.004 0.016 0 0.0044 0.016 0 0.0048 0.016 0 0.0052 0.016 0 0.0056 0.016 0 0.006 0.016 0 0 0.0163333 0 0.000444444 0.0163333 0 0.000888889 0.0163333 0 0.00133333 0.0163333 0 0.00177778 0.0163333 0 0.00222222 0.0163333 0 0.00266667 0.0163333 0 0.00311111 0.0163333 0 0.00355556 0.0163333 0 0.004 0.0163333 0 0.00444444 0.0163333 0 0.00488889 0.0163333 0 0.00533333 0.0163333 0 0.00577778 0.0163333 0 0.00622222 0.0163333 0 0.00666667 0.0163333 0 0 0.0166667 0 0.000488889 0.0166667 0 0.000977778 0.0166667 0 0.00146667 0.0166667 0 0.00195556 0.0166667 0 0.00244444 0.0166667 0 0.00293333 0.0166667 0 0.00342222 0.0166667 0 0.00391111 0.0166667 0 0.0044 0.0166667 0 0.00488889 0.0166667 0 0.00537778 0.0166667 0 0.00586667 0.0166667 0 0.00635556 0.0166667 0 0.00684444 0.0166667 0 0.00733333 0.0166667 0 0 0.017 0 0.000533333 0.017 0 0.00106667 0.017 0 0.0016 0.017 0 0.00213333 0.017 0 0.00266667 0.017 0 0.0032 0.017 0 0.00373333 0.017 0 0.00426667 0.017 0 0.0048 0.017 0 0.00533333 0.017 0 0.00586667 0.017 0 0.0064 0.017 0 0.00693333 0.017 0 0.00746667 0.017 0 0.008 0.017 0 0 0.0173333 0 0.000577778 0.0173333 0 0.00115556 0.0173333 0 0.00173333 0.0173333 0 0.00231111 0.0173333 0 0.00288889 0.0173333 0 0.00346667 0.0173333 0 0.00404444 0.0173333 0 0.00462222 0.0173333 0 0.0052 0.0173333 0 0.00577778 0.0173333 0 0.00635556 0.0173333 0 0.00693333 0.0173333 0 0.00751111 0.0173333 0 0.00808889 0.0173333 0 0.00866667 0.0173333 0 0 0.0176667 0 0.000622222 0.0176667 0 0.00124444 0.0176667 0 0.00186667 0.0176667 0 0.00248889 0.0176667 0 0.00311111 0.0176667 0 0.00373333 0.0176667 0 0.00435556 0.0176667 0 0.00497778 0.0176667 0 0.0056 0.0176667 0 0.00622222 0.0176667 0 0.00684444 0.0176667 0 0.00746667 0.0176667 0 0.00808889 0.0176667 0 0.00871111 0.0176667 0 0.00933333 0.0176667 0 0 0.018 0 0.000666667 0.018 0 0.00133333 0.018 0 0.002 0.018 0 0.00266667 0.018 0 0.00333333 0.018 0 0.004 0.018 0 0.00466667 0.018 0 0.00533333 0.018 0 0.006 0.018 0 0.00666667 0.018 0 0.00733333 0.018 0 0.008 0.018 0 0.00866667 0.018 0 0.00933333 0.018 0 0.01 0.018 0 0 0.0183333 0 0.000711111 0.0183333 0 0.00142222 0.0183333 0 0.00213333 0.0183333 0 0.00284444 0.0183333 0 0.00355556 0.0183333 0 0.00426667 0.0183333 0 0.00497778 0.0183333 0 0.00568889 0.0183333 0 0.0064 0.0183333 0 0.00711111 0.0183333 0 0.00782222 0.0183333 0 0.00853333 0.0183333 0 0.00924444 0.0183333 0 0.00995556 0.0183333 0 0.0106667 0.0183333 0 0 0.0186667 0 0.000755556 0.0186667 0 0.00151111 0.0186667 0 0.00226667 0.0186667 0 0.00302222 0.0186667 0 0.00377778 0.0186667 0 0.00453333 0.0186667 0 0.00528889 0.0186667 0 0.00604444 0.0186667 0 0.0068 0.0186667 0 0.00755556 0.0186667 0 0.00831111 0.0186667 0 0.00906667 0.0186667 0 0.00982222 0.0186667 0 0.0105778 0.0186667 0 0.0113333 0.0186667 0 0 0.019 0 0.0008 0.019 0 0.0016 0.019 0 0.0024 0.019 0 0.0032 0.019 0 0.004 0.019 0 0.0048 0.019 0 0.0056 0.019 0 0.0064 0.019 0 0.0072 0.019 0 0.008 0.019 0 0.0088 0.019 0 0.0096 0.019 0 0.0104 0.019 0 0.0112 0.019 0 0.012 0.019 0 0 0.0193333 0 0.000844444 0.0193333 0 0.00168889 0.0193333 0 0.00253333 0.0193333 0 0.00337778 0.0193333 0 0.00422222 0.0193333 0 0.00506667 0.0193333 0 0.00591111 0.0193333 0 0.00675556 0.0193333 0 0.0076 0.0193333 0 0.00844444 0.0193333 0 0.00928889 0.0193333 0 0.0101333 0.0193333 0 0.0109778 0.0193333 0 0.0118222 0.0193333 0 0.0126667 0.0193333 0 0 0.0196667 0 0.000888889 0.0196667 0 0.00177778 0.0196667 0 0.00266667 0.0196667 0 0.00355556 0.0196667 0 0.00444444 0.0196667 0 0.00533333 0.0196667 0 0.00622222 0.0196667 0 0.00711111 0.0196667 0 0.008 0.0196667 0 0.00888889 0.0196667 0 0.00977778 0.0196667 0 0.0106667 0.0196667 0 0.0115556 0.0196667 0 0.0124444 0.0196667 0 0.0133333 0.0196667 0 0 0.02 0 0.000933333 0.02 0 0.00186667 0.02 0 0.0028 0.02 0 0.00373333 0.02 0 0.00466667 0.02 0 0.0056 0.02 0 0.00653333 0.02 0 0.00746667 0.02 0 0.0084 0.02 0 0.00933333 0.02 0 0.0102667 0.02 0 0.0112 0.02 0 0.0121333 0.02 0 0.0130667 0.02 0 0.014 0.02 0 0 0.0203333 0 0.000977778 0.0203333 0 0.00195556 0.0203333 0 0.00293333 0.0203333 0 0.00391111 0.0203333 0 0.00488889 0.0203333 0 0.00586667 0.0203333 0 0.00684444 0.0203333 0 0.00782222 0.0203333 0 0.0088 0.0203333 0 0.00977778 0.0203333 0 0.0107556 0.0203333 0 0.0117333 0.0203333 0 0.0127111 0.0203333 0 0.0136889 0.0203333 0 0.0146667 0.0203333 0 0 0.0206667 0 0.00102222 0.0206667 0 0.00204444 0.0206667 0 0.00306667 0.0206667 0 0.00408889 0.0206667 0 0.00511111 0.0206667 0 0.00613333 0.0206667 0 0.00715556 0.0206667 0 0.00817778 0.0206667 0 0.0092 0.0206667 0 0.0102222 0.0206667 0 0.0112444 0.0206667 0 0.0122667 0.0206667 0 0.0132889 0.0206667 0 0.0143111 0.0206667 0 0.0153333 0.0206667 0 0 0.021 0 0.00106667 0.021 0 0.00213333 0.021 0 0.0032 0.021 0 0.00426667 0.021 0 0.00533333 0.021 0 0.0064 0.021 0 0.00746667 0.021 0 0.00853333 0.021 0 0.0096 0.021 0 0.0106667 0.021 0 0.0117333 0.021 0 0.0128 0.021 0 0.0138667 0.021 0 0.0149333 0.021 0 0.016 0.021 0 
</DataArray>
</Points> 
</Piece> 
</StructuredGrid> 
</VTKFile> 
