<?xml version="1.0"?> 
<VTKFile type="StructuredGrid" version="0.1"> 
<StructuredGrid WholeExtent="0 15 0 15 0 0"> 
<Piece Extent="0 15 0 15 0 0"> 
<PointData>
<DataArray type="Float32" Name="|E|" format="ascii" NumberOfComponents="3"> 
678.259 1.19209e-06 0 -36.0597 -159.39 0 -55.6234 -98.4324 0 -46.9153 -24.2785 0 -34.8605 -20.6906 0 -22.2541 -3.85063 0 -15.0956 -3.76672 0 -9.29002 -0.308989 0 -6.08816 -0.350773 0 -3.74954 0.214949 0 -2.41985 0.183465 0 -1.51699 0.200385 0 -0.995149 0.164896 0 -0.67317 0.106793 0 -0.50798 0.0659058 0 -0.455193 -1.19209e-07 0 417.659 -2.15136e-07 0 6.95185 -155.6 0 -44.6913 -83.1484 0 -42.3669 -35.5187 0 -31.5052 -18.967 0 -21.7597 -8.07202 0 -14.225 -4.15284 0 -9.30723 -1.72936 0 -5.89296 -0.786764 0 -3.79387 -0.265926 0 -2.39227 -0.0600445 0 -1.54437 0.0318205 0 -1.00206 0.056433 0 -0.68944 0.0531219 0 -0.520895 0.0327906 0 -0.466416 6.04196e-08 0 274.064 1.20606e-07 0 28.2268 -137.057 0 -34.3164 -76.658 0 -37.1532 -39.8705 0 -28.8207 -20.0635 0 -20.5354 -10.471 0 -13.5956 -5.24558 0 -9.0122 -2.74792 0 -5.75638 -1.35881 0 -3.72695 -0.683124 0 -2.36945 -0.316881 0 -1.53433 -0.136567 0 -1.0032 -0.0476268 0 -0.692413 -0.0069958 0 -0.526478 0.00475908 0 -0.474416 1.76951e-08 0 190.858 -1.85333e-07 0 37.4613 -115.742 0 -25.1654 -72.5424 0 -32.0407 -41.4431 0 -26.2299 -21.8111 0 -19.0845 -12.1807 0 -12.9132 -6.47272 0 -8.6011 -3.61923 0 -5.57202 -1.94818 0 -3.61126 -1.07383 0 -2.31958 -0.57292 0 -1.50367 -0.301686 0 -0.990673 -0.150474 0 -0.685468 -0.0674371 0 -0.524094 -0.0227953 0 -0.474597 -4.37722e-08 0 139.737 3.31551e-07 0 40.0694 -96.2475 0 -17.5567 -68.6469 0 -27.2843 -41.8478 0 -23.6232 -23.4543 0 -17.5524 -13.5916 0 -12.1216 -7.64281 0 -8.12134 -4.41941 0 -5.32281 -2.51454 0 -3.45915 -1.44663 0 -2.23878 -0.821212 0 -1.45505 -0.461928 0 -0.963839 -0.251221 0 -0.669035 -0.126624 0 -0.51372 -0.0501253 0 -0.466936 1.2666e-07 0 106.281 -2.90573e-07 0 39.0957 -79.8942 0 -11.5323 -64.5138 0 -22.9658 -41.6906 0 -21.0241 -24.7907 0 -15.9786 -14.8189 0 -11.2301 -8.70311 0 -7.58197 -5.16319 0 -5.01353 -3.04478 0 -3.27209 -1.80048 0 -2.12917 -1.05787 0 -1.38866 -0.615578 0 -0.92348 -0.348402 0 -0.643196 -0.183775 0 -0.495568 -0.0767706 0 -0.451842 -2.03028e-07 0 82.9913 7.07805e-08 0 36.2479 -66.7163 0 -6.96651 -60.2444 0 -19.1067 -41.2154 0 -18.4778 -25.8084 0 -14.3772 -15.8909 0 -10.2593 -9.64487 0 -6.98595 -5.84814 0 -4.65202 -3.53392 0 -3.05084 -2.1319 0 -1.99347 -1.28012 0 -1.30488 -0.76081 0 -0.870488 -0.440631 0 -0.608215 -0.238166 0 -0.469961 -0.102259 0 -0.429658 2.75671e-07 0 65.8327 7.45058e-08 0 32.4814 -56.3125 0 -3.65687 -56.061 0 -15.7013 -40.5452 0 -16.02 -26.5523 0 -12.7585 -16.8146 0 -9.22775 -10.4711 0 -6.3374 -6.46896 0 -4.24521 -3.97905 0 -2.79722 -2.43727 0 -1.83413 -1.48558 0 -1.20462 -0.895836 0 -0.805754 -0.526659 0 -0.564562 -0.289068 0 -0.43731 -0.126183 0 -0.400753 -2.16067e-07 0 52.5527 -1.11759e-07 0 28.323 -48.1941 0 -1.38144 -52.1598 0 -12.7263 -39.7648 0 -13.6721 -27.0771 0 -11.1328 -17.5952 0 -8.14979 -11.1869 0 -5.64207 -7.02129 0 -3.79902 -4.37774 0 -2.51401 -2.71342 0 -1.65343 -1.67213 0 -1.08915 -1.019 0 -0.730224 -0.605361 0 -0.512868 -0.335777 0 -0.398117 -0.148184 0 -0.36558 1.93715e-07 0 41.8315 2.23517e-07 0 24.0548 -41.917 0 0.0700162 -48.6756 0 -10.1451 -38.9457 0 -11.4422 -27.4333 0 -9.50912 -18.2409 0 -7.03655 -11.797 0 -4.9065 -7.50228 0 -3.31879 -4.72775 0 -2.20447 -2.95769 0 -1.45371 -1.83783 0 -0.959992 -1.12881 0 -0.644945 -0.675721 0 -0.453887 -0.377644 0 -0.352976 -0.167941 0 -0.324686 -2.01166e-07 0 32.8553 -2.08616e-07 0 19.8185 -37.1183 0 0.882457 -45.6874 0 -7.91133 -38.15 0 -9.32856 -27.6644 0 -7.89409 -18.7621 0 -5.89674 -12.3055 0 -4.13736 -7.91028 0 -2.80957 -5.02712 0 -1.87215 -3.16787 0 -1.2374 -1.98098 0 -0.818851 -1.22397 0 -0.551079 -0.736837 0 -0.388474 -0.41409 0 -0.302567 -0.185168 0 -0.278713 8.19564e-08 0 25.092 1.49012e-07 0 15.6751 -33.5178 0 1.21221 -43.2342 0 -5.97209 -37.4301 0 -7.32162 -27.8059 0 -6.29175 -19.1699 0 -4.73731 -12.716 0 -3.34107 -8.24443 0 -2.27631 -5.27419 0 -1.52074 -3.34217 0 -1.00706 -2.1001 0 -0.667541 -1.30336 0 -0.449889 -0.787931 0 -0.317567 -0.444612 0 -0.247646 -0.199616 0 -0.228382 2.23517e-08 0 18.1721 -1.04308e-07 0 11.6395 -30.9075 0 1.189 -41.3299 0 -4.27046 -36.8284 0 -5.40615 -27.8866 0 -4.70328 -19.4747 0 -3.56382 -13.0316 0 -2.52367 -8.50438 0 -1.7239 -5.46764 0 -1.15401 -3.47918 0 -0.765351 -2.194 0 -0.507979 -1.36607 0 -0.342733 -0.828356 0 -0.242176 -0.468794 0 -0.189035 -0.211075 0 -0.174482 0 0 11.8223 -1.19209e-07 0 7.70036 -29.1397 0 0.920424 -39.9751 0 -2.74762 -36.3767 0 -3.56265 -27.9287 0 -3.12747 -19.6856 0 -2.38076 -13.255 0 -1.69084 -8.69001 0 -1.15719 -5.60649 0 -0.775756 -3.57781 0 -0.515044 -2.26174 0 -0.34216 -1.41138 0 -0.231038 -0.857599 0 -0.163371 -0.486305 0 -0.127608 -0.21938 0 -0.117857 -1.49012e-08 0 5.82635 3.27826e-07 0 3.83173 -28.1162 0 0.497448 -39.1653 0 -1.34402 -36.0971 0 -1.76871 -27.9476 0 -1.56119 -19.8093 0 -1.19178 -13.3882 0 -0.847917 -8.80135 0 -0.580967 -5.69006 0 -0.389803 -3.63729 0 -0.258969 -2.30266 0 -0.172136 -1.43877 0 -0.116287 -0.875294 0 -0.0822647 -0.496908 0 -0.0642824 -0.224412 0 -0.0593919 -5.96046e-08 0 4.47035e-07 -2.38419e-06 0 -2.70375e-08 -27.7813 0 -1.74623e-08 -38.896 0 4.51691e-08 -36.0024 0 -3.44589e-08 -27.9529 0 1.72295e-08 -19.8501 0 -8.3819e-09 -13.4324 0 7.45058e-09 -8.83846 0 -2.70084e-08 -5.71796 0 2.79397e-08 -3.65717 0 -1.30385e-08 -2.31634 0 1.49012e-08 -1.44794 0 -1.11759e-08 -0.881217 0 -7.45058e-09 -0.500458 0 -2.23517e-08 -0.226097 0 2.68221e-07 2.38419e-07 0 </DataArray> 
</PointData> 
<Points> 
<DataArray type="Float32" NumberOfComponents="3"> 
0.13 0.035 0 0.133667 0.0346667 0 0.137333 0.0343333 0 0.141 0.034 0 0.144667 0.0336667 0 0.148333 0.0333333 0 0.152 0.033 0 0.155667 0.0326667 0 0.159333 0.0323333 0 0.163 0.032 0 0.166667 0.0316667 0 0.170333 0.0313333 0 0.174 0.031 0 0.177667 0.0306667 0 0.181333 0.0303333 0 0.185 0.03 0 0.13 0.0356667 0 0.133667 0.0353556 0 0.137333 0.0350444 0 0.141 0.0347333 0 0.144667 0.0344222 0 0.148333 0.0341111 0 0.152 0.0338 0 0.155667 0.0334889 0 0.159333 0.0331778 0 0.163 0.0328667 0 0.166667 0.0325556 0 0.170333 0.0322444 0 0.174 0.0319333 0 0.177667 0.0316222 0 0.181333 0.0313111 0 0.185 0.031 0 0.13 0.0363333 0 0.133667 0.0360444 0 0.137333 0.0357556 0 0.141 0.0354667 0 0.144667 0.0351778 0 0.148333 0.0348889 0 0.152 0.0346 0 0.155667 0.0343111 0 0.159333 0.0340222 0 0.163 0.0337333 0 0.166667 0.0334444 0 0.170333 0.0331556 0 0.174 0.0328667 0 0.177667 0.0325778 0 0.181333 0.0322889 0 0.185 0.032 0 0.13 0.037 0 0.133667 0.0367333 0 0.137333 0.0364667 0 0.141 0.0362 0 0.144667 0.0359333 0 0.148333 0.0356667 0 0.152 0.0354 0 0.155667 0.0351333 0 0.159333 0.0348667 0 0.163 0.0346 0 0.166667 0.0343333 0 0.170333 0.0340667 0 0.174 0.0338 0 0.177667 0.0335333 0 0.181333 0.0332667 0 0.185 0.033 0 0.13 0.0376667 0 0.133667 0.0374222 0 0.137333 0.0371778 0 0.141 0.0369333 0 0.144667 0.0366889 0 0.148333 0.0364444 0 0.152 0.0362 0 0.155667 0.0359556 0 0.159333 0.0357111 0 0.163 0.0354667 0 0.166667 0.0352222 0 0.170333 0.0349778 0 0.174 0.0347333 0 0.177667 0.0344889 0 0.181333 0.0342444 0 0.185 0.034 0 0.13 0.0383333 0 0.133667 0.0381111 0 0.137333 0.0378889 0 0.141 0.0376667 0 0.144667 0.0374444 0 0.148333 0.0372222 0 0.152 0.037 0 0.155667 0.0367778 0 0.159333 0.0365556 0 0.163 0.0363333 0 0.166667 0.0361111 0 0.170333 0.0358889 0 0.174 0.0356667 0 0.177667 0.0354444 0 0.181333 0.0352222 0 0.185 0.035 0 0.13 0.039 0 0.133667 0.0388 0 0.137333 0.0386 0 0.141 0.0384 0 0.144667 0.0382 0 0.148333 0.038 0 0.152 0.0378 0 0.155667 0.0376 0 0.159333 0.0374 0 0.163 0.0372 0 0.166667 0.037 0 0.170333 0.0368 0 0.174 0.0366 0 0.177667 0.0364 0 0.181333 0.0362 0 0.185 0.036 0 0.13 0.0396667 0 0.133667 0.0394889 0 0.137333 0.0393111 0 0.141 0.0391333 0 0.144667 0.0389556 0 0.148333 0.0387778 0 0.152 0.0386 0 0.155667 0.0384222 0 0.159333 0.0382444 0 0.163 0.0380667 0 0.166667 0.0378889 0 0.170333 0.0377111 0 0.174 0.0375333 0 0.177667 0.0373556 0 0.181333 0.0371778 0 0.185 0.037 0 0.13 0.0403333 0 0.133667 0.0401778 0 0.137333 0.0400222 0 0.141 0.0398667 0 0.144667 0.0397111 0 0.148333 0.0395556 0 0.152 0.0394 0 0.155667 0.0392444 0 0.159333 0.0390889 0 0.163 0.0389333 0 0.166667 0.0387778 0 0.170333 0.0386222 0 0.174 0.0384667 0 0.177667 0.0383111 0 0.181333 0.0381556 0 0.185 0.038 0 0.13 0.041 0 0.133667 0.0408667 0 0.137333 0.0407333 0 0.141 0.0406 0 0.144667 0.0404667 0 0.148333 0.0403333 0 0.152 0.0402 0 0.155667 0.0400667 0 0.159333 0.0399333 0 0.163 0.0398 0 0.166667 0.0396667 0 0.170333 0.0395333 0 0.174 0.0394 0 0.177667 0.0392667 0 0.181333 0.0391333 0 0.185 0.039 0 0.13 0.0416667 0 0.133667 0.0415556 0 0.137333 0.0414444 0 0.141 0.0413333 0 0.144667 0.0412222 0 0.148333 0.0411111 0 0.152 0.041 0 0.155667 0.0408889 0 0.159333 0.0407778 0 0.163 0.0406667 0 0.166667 0.0405556 0 0.170333 0.0404444 0 0.174 0.0403333 0 0.177667 0.0402222 0 0.181333 0.0401111 0 0.185 0.04 0 0.13 0.0423333 0 0.133667 0.0422444 0 0.137333 0.0421556 0 0.141 0.0420667 0 0.144667 0.0419778 0 0.148333 0.0418889 0 0.152 0.0418 0 0.155667 0.0417111 0 0.159333 0.0416222 0 0.163 0.0415333 0 0.166667 0.0414444 0 0.170333 0.0413556 0 0.174 0.0412667 0 0.177667 0.0411778 0 0.181333 0.0410889 0 0.185 0.041 0 0.13 0.043 0 0.133667 0.0429333 0 0.137333 0.0428667 0 0.141 0.0428 0 0.144667 0.0427333 0 0.148333 0.0426667 0 0.152 0.0426 0 0.155667 0.0425333 0 0.159333 0.0424667 0 0.163 0.0424 0 0.166667 0.0423333 0 0.170333 0.0422667 0 0.174 0.0422 0 0.177667 0.0421333 0 0.181333 0.0420667 0 0.185 0.042 0 0.13 0.0436667 0 0.133667 0.0436222 0 0.137333 0.0435778 0 0.141 0.0435333 0 0.144667 0.0434889 0 0.148333 0.0434444 0 0.152 0.0434 0 0.155667 0.0433556 0 0.159333 0.0433111 0 0.163 0.0432667 0 0.166667 0.0432222 0 0.170333 0.0431778 0 0.174 0.0431333 0 0.177667 0.0430889 0 0.181333 0.0430444 0 0.185 0.043 0 0.13 0.0443333 0 0.133667 0.0443111 0 0.137333 0.0442889 0 0.141 0.0442667 0 0.144667 0.0442444 0 0.148333 0.0442222 0 0.152 0.0442 0 0.155667 0.0441778 0 0.159333 0.0441556 0 0.163 0.0441333 0 0.166667 0.0441111 0 0.170333 0.0440889 0 0.174 0.0440667 0 0.177667 0.0440444 0 0.181333 0.0440222 0 0.185 0.044 0 0.13 0.045 0 0.133667 0.045 0 0.137333 0.045 0 0.141 0.045 0 0.144667 0.045 0 0.148333 0.045 0 0.152 0.045 0 0.155667 0.045 0 0.159333 0.045 0 0.163 0.045 0 0.166667 0.045 0 0.170333 0.045 0 0.174 0.045 0 0.177667 0.045 0 0.181333 0.045 0 0.185 0.045 0 
</DataArray>
</Points> 
</Piece> 
</StructuredGrid> 
</VTKFile> 
