<?xml version="1.0"?> 
<VTKFile type="StructuredGrid" version="0.1"> 
<StructuredGrid WholeExtent="0 15 0 15 0 0"> 
<Piece Extent="0 15 0 15 0 0"> 
<PointData>
<DataArray type="Float32" Name="|E|" format="ascii" NumberOfComponents="3"> 
299948 4.54935e+06 0 302174 4.57592e+06 0 304526 4.60434e+06 0 307025 4.63487e+06 0 309690 4.66782e+06 0 312547 4.70356e+06 0 315627 4.74253e+06 0 318968 4.78531e+06 0 322621 4.83264e+06 0 326655 4.88551e+06 0 331161 4.94527e+06 0 336271 5.01386e+06 0 342173 5.09402e+06 0 349145 5.18984e+06 0 357603 5.30744e+06 0 368187 5.45618e+06 0 477082 4.47434e+06 0 490526 4.49399e+06 0 505149 4.51468e+06 0 521100 4.53646e+06 0 538552 4.55936e+06 0 557704 4.58341e+06 0 578787 4.60866e+06 0 602068 4.63511e+06 0 627850 4.66273e+06 0 656477 4.69146e+06 0 688325 4.72116e+06 0 723786 4.75158e+06 0 763232 4.7823e+06 0 806947 4.81263e+06 0 854995 4.84148e+06 0 906994 4.86712e+06 0 586100 4.34608e+06 0 603442 4.35658e+06 0 621849 4.36726e+06 0 641391 4.37808e+06 0 662138 4.38899e+06 0 684165 4.39993e+06 0 707545 4.41081e+06 0 732353 4.42155e+06 0 758658 4.43205e+06 0 786530 4.44218e+06 0 816040 4.4518e+06 0 847264 4.46076e+06 0 880307 4.46891e+06 0 915334 4.47607e+06 0 952640 4.48213e+06 0 992766 4.487e+06 0 632430 4.2092e+06 0 649396 4.21276e+06 0 667084 4.21616e+06 0 685517 4.21936e+06 0 704720 4.22232e+06 0 724714 4.22498e+06 0 745518 4.22731e+06 0 767148 4.22923e+06 0 789615 4.23069e+06 0 812924 4.23163e+06 0 837070 4.23197e+06 0 862030 4.23166e+06 0 887751 4.23061e+06 0 914130 4.22875e+06 0 940966 4.22601e+06 0 967902 4.22232e+06 0 635768 4.08367e+06 0 650877 4.08271e+06 0 666447 4.08148e+06 0 682479 4.07998e+06 0 698976 4.07817e+06 0 715938 4.07602e+06 0 733363 4.07349e+06 0 751247 4.07057e+06 0 769582 4.06722e+06 0 788361 4.0634e+06 0 807576 4.05909e+06 0 827220 4.05424e+06 0 847296 4.04882e+06 0 867829 4.0428e+06 0 888882 4.03613e+06 0 910597 4.02876e+06 0 611774 3.97484e+06 0 624754 3.97101e+06 0 638022 3.96693e+06 0 651576 3.96256e+06 0 665415 3.95791e+06 0 679534 3.95294e+06 0 693930 3.94765e+06 0 708595 3.94201e+06 0 723525 3.936e+06 0 738708 3.92961e+06 0 754136 3.92282e+06 0 769792 3.9156e+06 0 785654 3.90795e+06 0 801687 3.89984e+06 0 817833 3.89128e+06 0 833991 3.88227e+06 0 570805 3.88266e+06 0 581768 3.87703e+06 0 592912 3.87116e+06 0 604234 3.86505e+06 0 615730 3.85869e+06 0 627394 3.85205e+06 0 639222 3.84514e+06 0 651206 3.83794e+06 0 663339 3.83044e+06 0 675614 3.82263e+06 0 688022 3.81451e+06 0 700557 3.80606e+06 0 713213 3.79727e+06 0 725989 3.78814e+06 0 738893 3.77864e+06 0 751954 3.76876e+06 0 519286 3.8055e+06 0 528452 3.79874e+06 0 537733 3.79177e+06 0 547124 3.78458e+06 0 556622 3.77718e+06 0 566223 3.76954e+06 0 575922 3.76168e+06 0 585715 3.75357e+06 0 595595 3.74522e+06 0 605558 3.73661e+06 0 615596 3.72775e+06 0 625703 3.71862e+06 0 635869 3.70922e+06 0 646084 3.69956e+06 0 656329 3.68961e+06 0 666580 3.6794e+06 0 461241 3.74148e+06 0 468830 3.734e+06 0 476491 3.72634e+06 0 484221 3.7185e+06 0 492016 3.71046e+06 0 499873 3.70223e+06 0 507788 3.6938e+06 0 515757 3.68517e+06 0 523776 3.67634e+06 0 531840 3.66729e+06 0 539945 3.65804e+06 0 548086 3.64857e+06 0 556259 3.63888e+06 0 564459 3.62898e+06 0 572686 3.61884e+06 0 580941 3.60848e+06 0 399183 3.68893e+06 0 405384 3.681e+06 0 411630 3.67291e+06 0 417918 3.66466e+06 0 424246 3.65625e+06 0 430610 3.64766e+06 0 437009 3.6389e+06 0 443438 3.62998e+06 0 449896 3.62087e+06 0 456378 3.61159e+06 0 462881 3.60214e+06 0 469401 3.5925e+06 0 475935 3.58268e+06 0 482478 3.57267e+06 0 489024 3.56249e+06 0 495567 3.55212e+06 0 334698 3.64646e+06 0 339663 3.63825e+06 0 344655 3.6299e+06 0 349673 3.6214e+06 0 354715 3.61276e+06 0 359777 3.60397e+06 0 364859 3.59503e+06 0 369958 3.58594e+06 0 375071 3.5767e+06 0 380196 3.5673e+06 0 385331 3.55775e+06 0 390473 3.54805e+06 0 395619 3.53819e+06 0 400767 3.52817e+06 0 405915 3.518e+06 0 411060 3.50767e+06 0 268779 3.61299e+06 0 272626 3.60461e+06 0 276489 3.5961e+06 0 280366 3.58747e+06 0 284257 3.57869e+06 0 288160 3.56979e+06 0 292073 3.56075e+06 0 295995 3.55158e+06 0 299924 3.54227e+06 0 303858 3.53282e+06 0 307795 3.52324e+06 0 311734 3.51352e+06 0 315672 3.50367e+06 0 319608 3.49367e+06 0 323539 3.48354e+06 0 327465 3.47327e+06 0 202046 3.58772e+06 0 204861 3.57924e+06 0 207685 3.57064e+06 0 210517 3.56192e+06 0 213357 3.55308e+06 0 216203 3.54411e+06 0 219054 3.53502e+06 0 221909 3.52581e+06 0 224767 3.51648e+06 0 227627 3.50702e+06 0 230486 3.49743e+06 0 233345 3.48772e+06 0 236202 3.47789e+06 0 239055 3.46794e+06 0 241903 3.45785e+06 0 244745 3.44765e+06 0 134872 3.57005e+06 0 136717 3.56152e+06 0 138566 3.55287e+06 0 140420 3.54411e+06 0 142277 3.53523e+06 0 144138 3.52623e+06 0 146000 3.51712e+06 0 147864 3.5079e+06 0 149729 3.49855e+06 0 151594 3.48909e+06 0 153459 3.47952e+06 0 155322 3.46983e+06 0 157182 3.46002e+06 0 159039 3.4501e+06 0 160893 3.44006e+06 0 162742 3.42991e+06 0 67480.2 3.55961e+06 0 68393.1 3.55105e+06 0 69308 3.54237e+06 0 70224.8 3.53359e+06 0 71143 3.52469e+06 0 72062.4 3.51568e+06 0 72982.7 3.50657e+06 0 73903.4 3.49733e+06 0 74824.3 3.48799e+06 0 75744.9 3.47854e+06 0 76664.9 3.46897e+06 0 77583.9 3.4593e+06 0 78501.6 3.44951e+06 0 79417.4 3.43961e+06 0 80330.9 3.4296e+06 0 81241.4 3.41948e+06 0 0 3.55616e+06 0 0 3.54758e+06 0 0 3.5389e+06 0 0 3.53011e+06 0 0 3.52121e+06 0 0 3.5122e+06 0 0 3.50308e+06 0 0 3.49385e+06 0 0 3.4845e+06 0 0 3.47505e+06 0 0 3.46549e+06 0 0 3.45582e+06 0 0 3.44604e+06 0 0 3.43615e+06 0 0 3.42615e+06 0 0 3.41604e+06 0 </DataArray> 
</PointData> 
<Points> 
<DataArray type="Float32" NumberOfComponents="3"> 
0.181504 0.0604834 0 0.181936 0.0604548 0 0.182369 0.0604262 0 0.182802 0.0603976 0 0.183235 0.0603689 0 0.183669 0.0603401 0 0.184102 0.0603113 0 0.184535 0.0602824 0 0.184968 0.0602535 0 0.185402 0.0602246 0 0.185835 0.0601956 0 0.186269 0.0601665 0 0.186702 0.0601374 0 0.187136 0.0601083 0 0.187569 0.0600791 0 0.188003 0.0600498 0 0.181503 0.0639178 0 0.181936 0.0638912 0 0.182369 0.0638645 0 0.182802 0.0638377 0 0.183235 0.0638109 0 0.183668 0.0637841 0 0.184102 0.0637572 0 0.184535 0.0637303 0 0.184968 0.0637033 0 0.185402 0.0636763 0 0.185835 0.0636492 0 0.186268 0.0636221 0 0.186702 0.0635949 0 0.187136 0.0635677 0 0.187569 0.0635405 0 0.188003 0.0635132 0 0.181503 0.0673523 0 0.181936 0.0673275 0 0.182369 0.0673027 0 0.182802 0.0672779 0 0.183235 0.067253 0 0.183668 0.0672281 0 0.184102 0.0672031 0 0.184535 0.0671781 0 0.184968 0.0671531 0 0.185401 0.067128 0 0.185835 0.0671028 0 0.186268 0.0670777 0 0.186702 0.0670524 0 0.187135 0.0670272 0 0.187569 0.0670019 0 0.188003 0.0669765 0 0.181503 0.0707867 0 0.181936 0.0707639 0 0.182369 0.070741 0 0.182802 0.0707181 0 0.183235 0.0706951 0 0.183668 0.0706721 0 0.184101 0.070649 0 0.184535 0.070626 0 0.184968 0.0706028 0 0.185401 0.0705797 0 0.185835 0.0705565 0 0.186268 0.0705332 0 0.186702 0.0705099 0 0.187135 0.0704866 0 0.187569 0.0704633 0 0.188002 0.0704399 0 0.181503 0.0742212 0 0.181936 0.0742002 0 0.182369 0.0741792 0 0.182802 0.0741582 0 0.183235 0.0741372 0 0.183668 0.0741161 0 0.184101 0.074095 0 0.184535 0.0740738 0 0.184968 0.0740526 0 0.185401 0.0740314 0 0.185835 0.0740101 0 0.186268 0.0739888 0 0.186702 0.0739675 0 0.187135 0.0739461 0 0.187569 0.0739247 0 0.188002 0.0739032 0 0.181502 0.0776556 0 0.181935 0.0776366 0 0.182368 0.0776175 0 0.182802 0.0775984 0 0.183235 0.0775792 0 0.183668 0.0775601 0 0.184101 0.0775409 0 0.184534 0.0775216 0 0.184968 0.0775024 0 0.185401 0.0774831 0 0.185834 0.0774637 0 0.186268 0.0774444 0 0.186701 0.077425 0 0.187135 0.0774055 0 0.187568 0.0773861 0 0.188002 0.0773666 0 0.181502 0.08109 0 0.181935 0.0810729 0 0.182368 0.0810557 0 0.182801 0.0810385 0 0.183235 0.0810213 0 0.183668 0.0810041 0 0.184101 0.0809868 0 0.184534 0.0809695 0 0.184968 0.0809521 0 0.185401 0.0809348 0 0.185834 0.0809174 0 0.186268 0.0808999 0 0.186701 0.0808825 0 0.187135 0.080865 0 0.187568 0.0808475 0 0.188002 0.0808299 0 0.181502 0.0845245 0 0.181935 0.0845093 0 0.182368 0.084494 0 0.182801 0.0844787 0 0.183234 0.0844634 0 0.183668 0.0844481 0 0.184101 0.0844327 0 0.184534 0.0844173 0 0.184968 0.0844019 0 0.185401 0.0843864 0 0.185834 0.084371 0 0.186268 0.0843555 0 0.186701 0.08434 0 0.187135 0.0843244 0 0.187568 0.0843088 0 0.188002 0.0842933 0 0.181502 0.0879589 0 0.181935 0.0879456 0 0.182368 0.0879322 0 0.182801 0.0879189 0 0.183234 0.0879055 0 0.183668 0.087892 0 0.184101 0.0878786 0 0.184534 0.0878651 0 0.184967 0.0878517 0 0.185401 0.0878381 0 0.185834 0.0878246 0 0.186268 0.087811 0 0.186701 0.0877975 0 0.187134 0.0877839 0 0.187568 0.0877702 0 0.188001 0.0877566 0 0.181501 0.0913934 0 0.181935 0.0913819 0 0.182368 0.0913705 0 0.182801 0.091359 0 0.183234 0.0913475 0 0.183667 0.091336 0 0.184101 0.0913245 0 0.184534 0.091313 0 0.184967 0.0913014 0 0.185401 0.0912898 0 0.185834 0.0912782 0 0.186267 0.0912666 0 0.186701 0.091255 0 0.187134 0.0912433 0 0.187568 0.0912316 0 0.188001 0.0912199 0 0.181501 0.0948278 0 0.181934 0.0948183 0 0.182368 0.0948087 0 0.182801 0.0947992 0 0.183234 0.0947896 0 0.183667 0.09478 0 0.184101 0.0947704 0 0.184534 0.0947608 0 0.184967 0.0947512 0 0.185401 0.0947415 0 0.185834 0.0947319 0 0.186267 0.0947222 0 0.186701 0.0947125 0 0.187134 0.0947028 0 0.187568 0.094693 0 0.188001 0.0946833 0 0.181501 0.0982622 0 0.181934 0.0982546 0 0.182367 0.098247 0 0.182801 0.0982394 0 0.183234 0.0982317 0 0.183667 0.098224 0 0.1841 0.0982163 0 0.184534 0.0982087 0 0.184967 0.0982009 0 0.1854 0.0981932 0 0.185834 0.0981855 0 0.186267 0.0981777 0 0.186701 0.09817 0 0.187134 0.0981622 0 0.187567 0.0981544 0 0.188001 0.0981466 0 0.181501 0.101697 0 0.181934 0.101691 0 0.182367 0.101685 0 0.1828 0.10168 0 0.183234 0.101674 0 0.183667 0.101668 0 0.1841 0.101662 0 0.184534 0.101656 0 0.184967 0.101651 0 0.1854 0.101645 0 0.185834 0.101639 0 0.186267 0.101633 0 0.1867 0.101627 0 0.187134 0.101622 0 0.187567 0.101616 0 0.188001 0.10161 0 0.1815 0.105131 0 0.181934 0.105127 0 0.182367 0.105123 0 0.1828 0.10512 0 0.183234 0.105116 0 0.183667 0.105112 0 0.1841 0.105108 0 0.184534 0.105104 0 0.184967 0.1051 0 0.1854 0.105097 0 0.185834 0.105093 0 0.186267 0.105089 0 0.1867 0.105085 0 0.187134 0.105081 0 0.187567 0.105077 0 0.188 0.105073 0 0.1815 0.108566 0 0.181934 0.108564 0 0.182367 0.108562 0 0.1828 0.10856 0 0.183233 0.108558 0 0.183667 0.108556 0 0.1841 0.108554 0 0.184533 0.108552 0 0.184967 0.10855 0 0.1854 0.108548 0 0.185833 0.108546 0 0.186267 0.108544 0 0.1867 0.108542 0 0.187133 0.108541 0 0.187567 0.108539 0 0.188 0.108537 0 0.1815 0.112 0 0.181933 0.112 0 0.182367 0.112 0 0.1828 0.112 0 0.183233 0.112 0 0.183667 0.112 0 0.1841 0.112 0 0.184533 0.112 0 0.184967 0.112 0 0.1854 0.112 0 0.185833 0.112 0 0.186267 0.112 0 0.1867 0.112 0 0.187133 0.112 0 0.187567 0.112 0 0.188 0.112 0 
</DataArray>
</Points> 
</Piece> 
</StructuredGrid> 
</VTKFile> 
