<?xml version="1.0"?> 
<VTKFile type="StructuredGrid" version="0.1"> 
<StructuredGrid WholeExtent="0 15 0 15 0 0"> 
<Piece Extent="0 15 0 15 0 0"> 
<PointData>
<DataArray type="Float32" Name="|E|" format="ascii" NumberOfComponents="3"> 
-2.07837e+06 47640.4 0 -2.0996e+06 82783.3 0 -2.13121e+06 117210 0 -2.17363e+06 151343 0 -2.22751e+06 185630 0 -2.29368e+06 220553 0 -2.37325e+06 256569 0 -2.46774e+06 294165 0 -2.57914e+06 333497 0 -2.71028e+06 374209 0 -2.86507e+06 414170 0 -3.04805e+06 447698 0 -3.26441e+06 457533 0 -3.50828e+06 413117 0 -3.7294e+06 257849 0 -3.81408e+06 -3.57628e-07 0 -2.07766e+06 54021.5 0 -2.09991e+06 89680 0 -2.13235e+06 124826 0 -2.17541e+06 159893 0 -2.22972e+06 195342 0 -2.29611e+06 231682 0 -2.37568e+06 269411 0 -2.46993e+06 309050 0 -2.5809e+06 350860 0 -2.71149e+06 394559 0 -2.86592e+06 438250 0 -3.04955e+06 476224 0 -3.26952e+06 491579 0 -3.52366e+06 450357 0 -3.76401e+06 287296 0 -3.85973e+06 1.77999e-07 0 -2.07709e+06 60622.8 0 -2.10032e+06 96807.4 0 -2.13354e+06 132681 0 -2.1772e+06 168687 0 -2.2319e+06 205303 0 -2.29846e+06 243061 0 -2.37798e+06 282501 0 -2.47193e+06 324189 0 -2.5824e+06 368478 0 -2.71236e+06 415208 0 -2.86634e+06 462693 0 -3.05052e+06 505448 0 -3.27413e+06 526903 0 -3.53941e+06 490390 0 -3.80205e+06 320381 0 -3.91201e+06 -1.47149e-07 0 -2.07666e+06 67445.7 0 -2.10083e+06 104167 0 -2.13479e+06 140776 0 -2.179e+06 177726 0 -2.23404e+06 215512 0 -2.30072e+06 254691 0 -2.38013e+06 295839 0 -2.47372e+06 339579 0 -2.58363e+06 386352 0 -2.71287e+06 436150 0 -2.86629e+06 487513 0 -3.05089e+06 535373 0 -3.2781e+06 563606 0 -3.55528e+06 533518 0 -3.84381e+06 357924 0 -3.97203e+06 2.15136e-07 0 -2.07637e+06 74491.4 0 -2.10143e+06 111759 0 -2.1361e+06 149112 0 -2.18081e+06 187012 0 -2.23614e+06 225969 0 -2.3029e+06 266572 0 -2.38213e+06 309426 0 -2.4753e+06 355219 0 -2.58456e+06 404481 0 -2.71299e+06 457382 0 -2.86575e+06 512717 0 -3.05058e+06 566001 0 -3.28125e+06 601775 0 -3.57095e+06 580059 0 -3.88954e+06 400968 0 -4.04124e+06 -3.50177e-07 0 -2.07622e+06 81761.1 0 -2.10213e+06 119586 0 -2.13746e+06 157690 0 -2.18262e+06 196545 0 -2.2382e+06 236677 0 -2.30498e+06 278704 0 -2.38399e+06 323262 0 -2.47667e+06 371107 0 -2.5852e+06 422866 0 -2.71271e+06 478901 0 -2.86466e+06 538307 0 -3.04951e+06 597324 0 -3.2834e+06 641484 0 -3.58597e+06 630324 0 -3.93947e+06 450833 0 -4.12161e+06 3.46452e-07 0 -2.0762e+06 89256.2 0 -2.10292e+06 127649 0 -2.13886e+06 166512 0 -2.18444e+06 206326 0 -2.24021e+06 247635 0 -2.30696e+06 291086 0 -2.38568e+06 337344 0 -2.47781e+06 387243 0 -2.58554e+06 441504 0 -2.71201e+06 500702 0 -2.863e+06 564282 0 -3.04757e+06 629326 0 -3.28433e+06 682794 0 -3.59981e+06 684594 0 -3.99376e+06 509212 0 -4.21585e+06 -1.3411e-07 0 -2.07632e+06 96978 0 -2.1038e+06 135948 0 -2.14031e+06 175577 0 -2.18626e+06 216355 0 -2.24217e+06 258844 0 -2.30884e+06 303720 0 -2.38721e+06 351673 0 -2.47872e+06 403625 0 -2.58555e+06 460393 0 -2.71088e+06 522778 0 -2.86073e+06 590637 0 -3.04468e+06 661976 0 -3.28381e+06 725752 0 -3.61172e+06 743079 0 -4.05242e+06 578275 0 -4.32778e+06 -1.19209e-07 0 -2.07656e+06 104928 0 -2.10476e+06 144485 0 -2.1418e+06 184887 0 -2.18807e+06 226634 0 -2.24408e+06 270305 0 -2.31062e+06 316603 0 -2.38856e+06 366248 0 -2.4794e+06 420252 0 -2.58522e+06 479528 0 -2.70929e+06 545123 0 -2.85779e+06 617364 0 -3.04073e+06 695227 0 -3.2816e+06 770386 0 -3.62079e+06 805864 0 -4.11514e+06 660809 0 -4.46298e+06 1.3411e-07 0 -2.07694e+06 113107 0 -2.10581e+06 153262 0 -2.14333e+06 194443 0 -2.18987e+06 237163 0 -2.24593e+06 282017 0 -2.31228e+06 329738 0 -2.38974e+06 381066 0 -2.47983e+06 437121 0 -2.58454e+06 498906 0 -2.70723e+06 567728 0 -2.85415e+06 644444 0 -3.0356e+06 729015 0 -3.27744e+06 816702 0 -3.62583e+06 872843 0 -4.18112e+06 760350 0 -4.62993e+06 -2.16067e-07 0 -2.07744e+06 121518 0 -2.10694e+06 162280 0 -2.1449e+06 204247 0 -2.19166e+06 247943 0 -2.24771e+06 293983 0 -2.31384e+06 343121 0 -2.39072e+06 396126 0 -2.48001e+06 454232 0 -2.5835e+06 518515 0 -2.70467e+06 590590 0 -2.84975e+06 671845 0 -3.02917e+06 763275 0 -3.27112e+06 864651 0 -3.6254e+06 943659 0 -4.24852e+06 881289 0 -4.8421e+06 3.05474e-07 0 -2.07807e+06 130160 0 -2.10816e+06 171541 0 -2.1465e+06 214298 0 -2.19344e+06 258975 0 -2.24943e+06 306202 0 -2.31527e+06 356754 0 -2.39152e+06 411427 0 -2.47994e+06 471586 0 -2.58207e+06 538340 0 -2.70159e+06 613720 0 -2.84458e+06 699491 0 -3.0213e+06 797986 0 -3.26247e+06 914048 0 -3.6178e+06 1.01772e+06 0 -4.31368e+06 1.02879e+06 0 -5.12185e+06 -2.23517e-07 0 -2.07882e+06 139034 0 -2.10944e+06 181046 0 -2.14813e+06 224598 0 -2.1952e+06 270260 0 -2.25108e+06 318674 0 -2.31657e+06 370634 0 -2.3921e+06 426962 0 -2.4796e+06 489187 0 -2.58024e+06 558346 0 -2.69797e+06 637166 0 -2.8386e+06 727207 0 -3.01179e+06 833290 0 -3.25141e+06 964346 0 -3.60116e+06 1.09442e+06 0 -4.3695e+06 1.20819e+06 0 -5.508e+06 1.49012e-07 0 -2.07968e+06 148140 0 -2.11081e+06 190796 0 -2.14979e+06 235147 0 -2.19693e+06 281799 0 -2.25266e+06 331401 0 -2.31774e+06 384762 0 -2.39248e+06 442727 0 -2.47898e+06 507052 0 -2.57802e+06 578463 0 -2.69373e+06 661075 0 -2.83188e+06 754576 0 -3.00038e+06 869791 0 -3.23801e+06 1.01405e+06 0 -3.57388e+06 1.17406e+06 0 -4.40228e+06 1.4232e+06 0 -6.07113e+06 -1.93715e-07 0 -2.08066e+06 157475 0 -2.11224e+06 200792 0 -2.15147e+06 245948 0 -2.19863e+06 293593 0 -2.25416e+06 344383 0 -2.31877e+06 399136 0 -2.39266e+06 458706 0 -2.47805e+06 525222 0 -2.57542e+06 598532 0 -2.68875e+06 685819 0 -2.82456e+06 780617 0 -2.98664e+06 909276 0 -3.22247e+06 1.0593e+06 0 -3.5355e+06 1.26025e+06 0 -4.38545e+06 1.67098e+06 0 -6.94436e+06 1.49012e-07 0 -2.08174e+06 167042 0 -2.11375e+06 211034 0 -2.15318e+06 257001 0 -2.2003e+06 305641 0 -2.25559e+06 357620 0 -2.31963e+06 413759 0 -2.39264e+06 474875 0 -2.47675e+06 543789 0 -2.57257e+06 618224 0 -2.68277e+06 712261 0 -2.81707e+06 803110 0 -2.96981e+06 956256 0 -3.20508e+06 1.09068e+06 0 -3.48901e+06 1.36593e+06 0 -4.26675e+06 1.93079e+06 0 -8.38795e+06 -3.57628e-07 0 </DataArray> 
</PointData> 
<Points> 
<DataArray type="Float32" NumberOfComponents="3"> 
0.006 0.016 0 0.0106 0.0156 0 0.0152 0.0152 0 0.0198 0.0148 0 0.0244 0.0144 0 0.029 0.014 0 0.0336 0.0136 0 0.0382 0.0132 0 0.0428 0.0128 0 0.0474 0.0124 0 0.052 0.012 0 0.0566 0.0116 0 0.0612 0.0112 0 0.0658 0.0108 0 0.0704 0.0104 0 0.075 0.01 0 0.00666667 0.0163333 0 0.0112222 0.01596 0 0.0157778 0.0155867 0 0.0203333 0.0152133 0 0.0248889 0.01484 0 0.0294444 0.0144667 0 0.034 0.0140933 0 0.0385556 0.01372 0 0.0431111 0.0133467 0 0.0476667 0.0129733 0 0.0522222 0.0126 0 0.0567778 0.0122267 0 0.0613333 0.0118533 0 0.0658889 0.01148 0 0.0704444 0.0111067 0 0.075 0.0107333 0 0.00733333 0.0166667 0 0.0118444 0.01632 0 0.0163556 0.0159733 0 0.0208667 0.0156267 0 0.0253778 0.01528 0 0.0298889 0.0149333 0 0.0344 0.0145867 0 0.0389111 0.01424 0 0.0434222 0.0138933 0 0.0479333 0.0135467 0 0.0524444 0.0132 0 0.0569556 0.0128533 0 0.0614667 0.0125067 0 0.0659778 0.01216 0 0.0704889 0.0118133 0 0.075 0.0114667 0 0.008 0.017 0 0.0124667 0.01668 0 0.0169333 0.01636 0 0.0214 0.01604 0 0.0258667 0.01572 0 0.0303333 0.0154 0 0.0348 0.01508 0 0.0392667 0.01476 0 0.0437333 0.01444 0 0.0482 0.01412 0 0.0526667 0.0138 0 0.0571333 0.01348 0 0.0616 0.01316 0 0.0660667 0.01284 0 0.0705333 0.01252 0 0.075 0.0122 0 0.00866667 0.0173333 0 0.0130889 0.01704 0 0.0175111 0.0167467 0 0.0219333 0.0164533 0 0.0263556 0.01616 0 0.0307778 0.0158667 0 0.0352 0.0155733 0 0.0396222 0.01528 0 0.0440444 0.0149867 0 0.0484667 0.0146933 0 0.0528889 0.0144 0 0.0573111 0.0141067 0 0.0617333 0.0138133 0 0.0661556 0.01352 0 0.0705778 0.0132267 0 0.075 0.0129333 0 0.00933333 0.0176667 0 0.0137111 0.0174 0 0.0180889 0.0171333 0 0.0224667 0.0168667 0 0.0268444 0.0166 0 0.0312222 0.0163333 0 0.0356 0.0160667 0 0.0399778 0.0158 0 0.0443556 0.0155333 0 0.0487333 0.0152667 0 0.0531111 0.015 0 0.0574889 0.0147333 0 0.0618667 0.0144667 0 0.0662444 0.0142 0 0.0706222 0.0139333 0 0.075 0.0136667 0 0.01 0.018 0 0.0143333 0.01776 0 0.0186667 0.01752 0 0.023 0.01728 0 0.0273333 0.01704 0 0.0316667 0.0168 0 0.036 0.01656 0 0.0403333 0.01632 0 0.0446667 0.01608 0 0.049 0.01584 0 0.0533333 0.0156 0 0.0576667 0.01536 0 0.062 0.01512 0 0.0663333 0.01488 0 0.0706667 0.01464 0 0.075 0.0144 0 0.0106667 0.0183333 0 0.0149556 0.01812 0 0.0192444 0.0179067 0 0.0235333 0.0176933 0 0.0278222 0.01748 0 0.0321111 0.0172667 0 0.0364 0.0170533 0 0.0406889 0.01684 0 0.0449778 0.0166267 0 0.0492667 0.0164133 0 0.0535556 0.0162 0 0.0578444 0.0159867 0 0.0621333 0.0157733 0 0.0664222 0.01556 0 0.0707111 0.0153467 0 0.075 0.0151333 0 0.0113333 0.0186667 0 0.0155778 0.01848 0 0.0198222 0.0182933 0 0.0240667 0.0181067 0 0.0283111 0.01792 0 0.0325556 0.0177333 0 0.0368 0.0175467 0 0.0410444 0.01736 0 0.0452889 0.0171733 0 0.0495333 0.0169867 0 0.0537778 0.0168 0 0.0580222 0.0166133 0 0.0622667 0.0164267 0 0.0665111 0.01624 0 0.0707556 0.0160533 0 0.075 0.0158667 0 0.012 0.019 0 0.0162 0.01884 0 0.0204 0.01868 0 0.0246 0.01852 0 0.0288 0.01836 0 0.033 0.0182 0 0.0372 0.01804 0 0.0414 0.01788 0 0.0456 0.01772 0 0.0498 0.01756 0 0.054 0.0174 0 0.0582 0.01724 0 0.0624 0.01708 0 0.0666 0.01692 0 0.0708 0.01676 0 0.075 0.0166 0 0.0126667 0.0193333 0 0.0168222 0.0192 0 0.0209778 0.0190667 0 0.0251333 0.0189333 0 0.0292889 0.0188 0 0.0334444 0.0186667 0 0.0376 0.0185333 0 0.0417556 0.0184 0 0.0459111 0.0182667 0 0.0500667 0.0181333 0 0.0542222 0.018 0 0.0583778 0.0178667 0 0.0625333 0.0177333 0 0.0666889 0.0176 0 0.0708444 0.0174667 0 0.075 0.0173333 0 0.0133333 0.0196667 0 0.0174444 0.01956 0 0.0215556 0.0194533 0 0.0256667 0.0193467 0 0.0297778 0.01924 0 0.0338889 0.0191333 0 0.038 0.0190267 0 0.0421111 0.01892 0 0.0462222 0.0188133 0 0.0503333 0.0187067 0 0.0544444 0.0186 0 0.0585556 0.0184933 0 0.0626667 0.0183867 0 0.0667778 0.01828 0 0.0708889 0.0181733 0 0.075 0.0180667 0 0.014 0.02 0 0.0180667 0.01992 0 0.0221333 0.01984 0 0.0262 0.01976 0 0.0302667 0.01968 0 0.0343333 0.0196 0 0.0384 0.01952 0 0.0424667 0.01944 0 0.0465333 0.01936 0 0.0506 0.01928 0 0.0546667 0.0192 0 0.0587333 0.01912 0 0.0628 0.01904 0 0.0668667 0.01896 0 0.0709333 0.01888 0 0.075 0.0188 0 0.0146667 0.0203333 0 0.0186889 0.02028 0 0.0227111 0.0202267 0 0.0267333 0.0201733 0 0.0307556 0.02012 0 0.0347778 0.0200667 0 0.0388 0.0200133 0 0.0428222 0.01996 0 0.0468444 0.0199067 0 0.0508667 0.0198533 0 0.0548889 0.0198 0 0.0589111 0.0197467 0 0.0629333 0.0196933 0 0.0669556 0.01964 0 0.0709778 0.0195867 0 0.075 0.0195333 0 0.0153333 0.0206667 0 0.0193111 0.02064 0 0.0232889 0.0206133 0 0.0272667 0.0205867 0 0.0312444 0.02056 0 0.0352222 0.0205333 0 0.0392 0.0205067 0 0.0431778 0.02048 0 0.0471556 0.0204533 0 0.0511333 0.0204267 0 0.0551111 0.0204 0 0.0590889 0.0203733 0 0.0630667 0.0203467 0 0.0670444 0.02032 0 0.0710222 0.0202933 0 0.075 0.0202667 0 0.016 0.021 0 0.0199333 0.021 0 0.0238667 0.021 0 0.0278 0.021 0 0.0317333 0.021 0 0.0356667 0.021 0 0.0396 0.021 0 0.0435333 0.021 0 0.0474667 0.021 0 0.0514 0.021 0 0.0553333 0.021 0 0.0592667 0.021 0 0.0632 0.021 0 0.0671333 0.021 0 0.0710667 0.021 0 0.075 0.021 0 
</DataArray>
</Points> 
</Piece> 
</StructuredGrid> 
</VTKFile> 
