<?xml version="1.0"?> 
<VTKFile type="StructuredGrid" version="0.1"> 
<StructuredGrid WholeExtent="0 15 0 15 0 0"> 
<Piece Extent="0 15 0 15 0 0"> 
<PointData>
<DataArray type="Float32" Name="|E|" format="ascii" NumberOfComponents="3"> 
3.22082e+06 -1.33411e+06 0 2.74254e+06 264906 0 2.16024e+06 605819 0 1.76676e+06 662547 0 1.47778e+06 635309 0 1.25458e+06 574712 0 1.07664e+06 504078 0 931812 432513 0 813711 364114 0 717614 300438 0 640548 241712 0 580167 187548 0 534816 137211 0 503253 89818.5 0 484644 44410.1 0 478496 0 0 3.50485e+06 -1.20613e+06 0 2.77168e+06 365806 0 2.15262e+06 673404 0 1.74598e+06 713173 0 1.45204e+06 676008 0 1.22701e+06 609251 0 1.04891e+06 534355 0 904926 459376 0 788175 387969 0 693651 321384 0 618131 259711 0 559101 202462 0 514757 148839 0 483734 97904.3 0 465079 48641.2 0 458183 0 0 3.77049e+06 -1.04098e+06 0 2.79758e+06 471113 0 2.1432e+06 742542 0 1.72444e+06 764719 0 1.42587e+06 717427 0 1.19916e+06 644315 0 1.02086e+06 564920 0 877594 486311 0 762007 411697 0 668838 342051 0 594629 277329 0 536708 216948 0 493131 160052 0 462418 105647 0 443499 52665.3 0 435653 0 0 4.01661e+06 -841953 0 2.81986e+06 580479 0 2.13216e+06 813104 0 1.70225e+06 817126 0 1.39939e+06 759533 0 1.17106e+06 679876 0 992501 595765 0 849818 513315 0 735205 435308 0 643176 362458 0 570051 294589 0 513013 231034 0 469983 170876 0 439366 113069 0 419984 56496.7 0 411003 0 0 4.24179e+06 -612035 0 2.83828e+06 693535 0 2.11969e+06 884959 0 1.67955e+06 870353 0 1.37267e+06 802304 0 1.14278e+06 715919 0 963871 626886 0 821613 540396 0 707779 458819 0 616677 382626 0 544421 311519 0 488054 244747 0 445367 181336 0 414654 120191 0 394627 60148.5 0 384343 0 0 4.44446e+06 -354136 0 2.85275e+06 809907 0 2.10597e+06 957986 0 1.65648e+06 924370 0 1.34582e+06 845717 0 1.11437e+06 752439 0 935002 658287 0 792998 567567 0 679745 482250 0 589366 402579 0 517776 328144 0 461883 258114 0 419352 191458 0 388368 127033 0 367533 63632.6 0 355795 0 0 4.62295e+06 -71177.1 0 2.86326e+06 929226 0 2.09118e+06 1.03207e+06 0 1.63319e+06 979157 0 1.31893e+06 889760 0 1.0859e+06 789437 0 905933 689980 0 764003 594847 0 651133 505623 0 561277 422345 0 490161 344492 0 434563 271158 0 392020 201262 0 360608 133613 0 338819 66959 0 325490 0 0 4.77566e+06 233828 0 2.86987e+06 1.05114e+06 0 2.0755e+06 1.10713e+06 0 1.60981e+06 1.0347e+06 0 1.29211e+06 934424 0 1.05743e+06 826924 0 876714 721979 0 734666 622259 0 621980 528965 0 532454 441950 0 461634 360587 0 406166 283905 0 363463 210769 0 331485 139944 0 308614 70135.6 0 293571 0 0 4.90113e+06 557741 0 2.87268e+06 1.17531e+06 0 2.05912e+06 1.18306e+06 0 1.58647e+06 1.09098e+06 0 1.26546e+06 979708 0 1.02904e+06 864913 0 847397 754308 0 705031 649829 0 592330 552305 0 502952 461421 0 432261 376455 0 376777 296374 0 333782 219994 0 301121 146038 0 277056 73168.1 0 260188 0 0 4.99807e+06 897287 0 2.87184e+06 1.30144e+06 0 2.0422e+06 1.25981e+06 0 1.5633e+06 1.148e+06 0 1.23908e+06 1.02562e+06 0 1.00079e+06 903424 0 818042 786991 0 675147 677588 0 562236 575671 0 472829 480785 0 402116 392117 0 346488 308581 0 303090 228950 0 269646 151901 0 244292 76059.5 0 225505 0 0 5.06547e+06 1.24906e+06 0 2.86748e+06 1.42922e+06 0 2.0249e+06 1.3373e+06 0 1.54043e+06 1.20574e+06 0 1.21307e+06 1.07216e+06 0 972764 942478 0 788711 820058 0 645071 705568 0 531756 599095 0 442152 500067 0 371280 407594 0 315395 320542 0 271503 237643 0 237196 157538 0 210479 78810.6 0 189689 0 0 5.10261e+06 1.60957e+06 0 2.85974e+06 1.5584e+06 0 2.00736e+06 1.4155e+06 0 1.51796e+06 1.2642e+06 0 1.18754e+06 1.11935e+06 0 945032 982098 0 759472 853539 0 614861 733802 0 500952 622605 0 410991 519294 0 339838 422903 0 283602 332267 0 239144 246079 0 203916 162946 0 175778 81419 0 152919 0 0 5.1091e+06 1.97521e+06 0 2.84876e+06 1.68871e+06 0 1.98972e+06 1.49435e+06 0 1.49602e+06 1.32335e+06 0 1.16257e+06 1.16719e+06 0 917674 1.02231e+06 0 730395 887470 0 584579 762323 0 469890 646234 0 379419 538486 0 307876 438058 0 251215 343760 0 206140 254256 0 169953 168123 0 140357 83879.9 0 115377 0 0 5.08489e+06 2.34239e+06 0 2.83462e+06 1.81991e+06 0 1.97208e+06 1.5738e+06 0 1.47469e+06 1.38319e+06 0 1.13827e+06 1.21571e+06 0 890767 1.06313e+06 0 701551 921883 0 554288 791166 0 438636 670011 0 347510 557668 0 275483 453071 0 218339 355025 0 172618 262169 0 135457 173059 0 104386 86185.3 0 77251.4 0 0 5.03032e+06 2.70749e+06 0 2.81741e+06 1.95175e+06 0 1.95453e+06 1.65382e+06 0 1.45408e+06 1.4437e+06 0 1.11472e+06 1.26491e+06 0 864388 1.10458e+06 0 673015 956813 0 524054 820364 0 407260 693965 0 315336 576857 0 242748 467952 0 185080 366061 0 138706 269810 0 100577 177741 0 68037.5 88324.7 0 38735.1 0 0 4.94605e+06 3.06696e+06 0 2.79718e+06 2.08401e+06 0 1.93715e+06 1.73435e+06 0 1.43425e+06 1.50483e+06 0 1.092e+06 1.3148e+06 0 838612 1.14667e+06 0 644861 992294 0 493937 849951 0 375828 718128 0 282968 596073 0 209754 482709 0 151540 376864 0 104529 277166 0 65463.2 182154 0 31485.6 90285.2 0 21.883 0 0 </DataArray> 
</PointData> 
<Points> 
<DataArray type="Float32" NumberOfComponents="3"> 
0.2018 0.0378 0 0.213213 0.0378 0 0.224627 0.0378 0 0.23604 0.0378 0 0.247453 0.0378 0 0.258867 0.0378 0 0.27028 0.0378 0 0.281693 0.0378 0 0.293107 0.0378 0 0.30452 0.0378 0 0.315933 0.0378 0 0.327347 0.0378 0 0.33876 0.0378 0 0.350173 0.0378 0 0.361587 0.0378 0 0.373 0.0378 0 0.20215 0.0387237 0 0.213688 0.0389954 0 0.225204 0.0392666 0 0.236699 0.0395372 0 0.248173 0.0398074 0 0.259625 0.0400771 0 0.271057 0.0403463 0 0.282467 0.0406149 0 0.293857 0.0408831 0 0.305225 0.0411508 0 0.316573 0.041418 0 0.3279 0.0416847 0 0.339206 0.0419509 0 0.350491 0.0422167 0 0.361756 0.0424819 0 0.373 0.0427467 0 0.202446 0.0396795 0 0.214093 0.0402268 0 0.2257 0.0407721 0 0.237266 0.0413156 0 0.248793 0.0418572 0 0.260279 0.0423969 0 0.271726 0.0429348 0 0.283134 0.0434708 0 0.294502 0.044005 0 0.305832 0.0445373 0 0.317122 0.0450678 0 0.328374 0.0455965 0 0.339588 0.0461234 0 0.350763 0.0466485 0 0.3619 0.0471718 0 0.373 0.0476933 0 0.202684 0.0406627 0 0.214425 0.0414883 0 0.226109 0.04231 0 0.237736 0.0431277 0 0.249308 0.0439414 0 0.260823 0.0447512 0 0.272283 0.0455572 0 0.283688 0.0463592 0 0.295039 0.0471575 0 0.306336 0.0479519 0 0.317579 0.0487425 0 0.328768 0.0495294 0 0.339905 0.0503126 0 0.350989 0.0510921 0 0.36202 0.0518679 0 0.373 0.05264 0 0.202862 0.041668 0 0.21468 0.0427737 0 0.226427 0.0438729 0 0.238105 0.0449654 0 0.249713 0.0460515 0 0.261252 0.0471312 0 0.272724 0.0482045 0 0.284128 0.0492715 0 0.295465 0.0503322 0 0.306736 0.0513868 0 0.317941 0.0524351 0 0.329081 0.0534774 0 0.340156 0.0545137 0 0.351167 0.0555439 0 0.362115 0.0565682 0 0.373 0.0575867 0 0.202977 0.0426899 0 0.214854 0.0440762 0 0.226651 0.045453 0 0.238368 0.0468204 0 0.250005 0.0481786 0 0.261564 0.0495276 0 0.273045 0.0508676 0 0.284449 0.0521985 0 0.295777 0.0535206 0 0.307029 0.0548339 0 0.318207 0.0561384 0 0.32931 0.0574343 0 0.340341 0.0587217 0 0.351299 0.0600006 0 0.362185 0.0612711 0 0.373 0.0625333 0 0.203026 0.0437223 0 0.214946 0.0453884 0 0.226778 0.0470422 0 0.238522 0.0486838 0 0.250181 0.0503133 0 0.261755 0.051931 0 0.273244 0.0535368 0 0.28465 0.0551311 0 0.295973 0.0567137 0 0.307215 0.058285 0 0.318376 0.059845 0 0.329457 0.0613939 0 0.340459 0.0629317 0 0.351383 0.0644585 0 0.36223 0.0659746 0 0.373 0.06748 0 0.203008 0.0447589 0 0.214952 0.0467029 0 0.226805 0.048632 0 0.238567 0.0505464 0 0.250239 0.0524462 0 0.261823 0.0543315 0 0.273319 0.0562026 0 0.284728 0.0580596 0 0.296052 0.0599027 0 0.307291 0.061732 0 0.318447 0.0635476 0 0.329519 0.0653498 0 0.34051 0.0671386 0 0.35142 0.0689143 0 0.36225 0.0706769 0 0.373 0.0724267 0 0.202924 0.0457932 0 0.214874 0.0480122 0 0.226733 0.0502141 0 0.2385 0.0523991 0 0.250178 0.0545675 0 0.261768 0.0567195 0 0.27327 0.0588552 0 0.284685 0.0609747 0 0.296014 0.0630784 0 0.307259 0.0651664 0 0.31842 0.0672387 0 0.329498 0.0692958 0 0.340494 0.0713375 0 0.351409 0.0733643 0 0.362244 0.0753762 0 0.373 0.0773733 0 0.202774 0.046819 0 0.214712 0.0493086 0 0.226561 0.0517799 0 0.238323 0.0542329 0 0.249999 0.0566679 0 0.26159 0.0590852 0 0.273096 0.0614848 0 0.284519 0.063867 0 0.295859 0.066232 0 0.307117 0.06858 0 0.318295 0.0709111 0 0.329392 0.0732255 0 0.340411 0.0755235 0 0.351351 0.0778051 0 0.362214 0.0800705 0 0.373 0.08232 0 0.202559 0.0478298 0 0.214466 0.0505849 0 0.226292 0.0533211 0 0.238037 0.0560388 0 0.249703 0.0587381 0 0.26129 0.0614191 0 0.272799 0.0640821 0 0.284231 0.0667273 0 0.295587 0.0693548 0 0.306867 0.0719647 0 0.318072 0.0745574 0 0.329203 0.0771329 0 0.340261 0.0796914 0 0.351245 0.0822331 0 0.362158 0.0847581 0 0.373 0.0872667 0 0.202281 0.0488197 0 0.214139 0.0518338 0 0.225927 0.05483 0 0.237644 0.0578083 0 0.249292 0.060769 0 0.260871 0.0637121 0 0.272381 0.0666379 0 0.283824 0.0695465 0 0.2952 0.072438 0 0.306509 0.0753126 0 0.317752 0.0781704 0 0.32893 0.0810117 0 0.340044 0.0838364 0 0.351093 0.0866449 0 0.362078 0.0894371 0 0.373 0.0922133 0 0.201943 0.049783 0 0.213735 0.0530489 0 0.22547 0.0562991 0 0.237148 0.0595335 0 0.248769 0.0627522 0 0.260335 0.0659555 0 0.271845 0.0691434 0 0.2833 0.072316 0 0.2947 0.0754735 0 0.306046 0.0786159 0 0.317337 0.0817433 0 0.328576 0.0848559 0 0.339761 0.0879538 0 0.350893 0.091037 0 0.361972 0.0941057 0 0.373 0.09716 0 0.201549 0.0507145 0 0.213257 0.0542241 0 0.224925 0.0577215 0 0.236552 0.0612067 0 0.248139 0.0646799 0 0.259686 0.0681411 0 0.271194 0.0715904 0 0.282661 0.0750278 0 0.294089 0.0784533 0 0.305478 0.0818672 0 0.316828 0.0852693 0 0.328139 0.0886598 0 0.339412 0.0920387 0 0.350646 0.0954061 0 0.361842 0.0987621 0 0.373 0.102107 0 0.201102 0.0516097 0 0.212711 0.0553539 0 0.224298 0.0590911 0 0.235863 0.0628214 0 0.247407 0.0665449 0 0.25893 0.0702614 0 0.270432 0.0739711 0 0.281912 0.077674 0 0.293372 0.0813701 0 0.30481 0.0850594 0 0.316227 0.0887419 0 0.327623 0.0924176 0 0.338999 0.0960866 0 0.350353 0.0997489 0 0.361687 0.103404 0 0.373 0.107053 0 0.200608 0.0524645 0 0.212101 0.0564336 0 0.223593 0.0604026 0 0.235086 0.0643716 0 0.246579 0.0683407 0 0.258072 0.0723097 0 0.269565 0.0762787 0 0.281058 0.0802478 0 0.29255 0.0842168 0 0.304043 0.0881858 0 0.315536 0.0921548 0 0.327029 0.0961239 0 0.338522 0.100093 0 0.350014 0.104062 0 0.361507 0.108031 0 0.373 0.112 0 
</DataArray>
</Points> 
</Piece> 
</StructuredGrid> 
</VTKFile> 
