<?xml version="1.0"?> 
<VTKFile type="StructuredGrid" version="0.1"> 
<StructuredGrid WholeExtent="0 15 0 15 0 0"> 
<Piece Extent="0 15 0 15 0 0"> 
<PointData>
<DataArray type="Float32" Name="|E|" format="ascii" NumberOfComponents="3"> 
-1.57856e+06 1.78076e+06 0 -1.64007e+06 1.83657e+06 0 -1.70659e+06 1.89008e+06 0 -1.77931e+06 1.94067e+06 0 -1.85977e+06 1.98759e+06 0 -1.95e+06 2.02988e+06 0 -2.05257e+06 2.06625e+06 0 -2.17089e+06 2.09488e+06 0 -2.30937e+06 2.11297e+06 0 -2.47386e+06 2.1159e+06 0 -2.67234e+06 2.09552e+06 0 -2.91597e+06 2.03645e+06 0 -3.22114e+06 1.90836e+06 0 -3.61238e+06 1.6481e+06 0 -4.12469e+06 1.11769e+06 0 -4.77988e+06 5.96046e-07 0 -1.53366e+06 1.92045e+06 0 -1.59957e+06 1.97234e+06 0 -1.67094e+06 2.02296e+06 0 -1.74894e+06 2.07188e+06 0 -1.83513e+06 2.11857e+06 0 -1.93152e+06 2.1623e+06 0 -2.04075e+06 2.20207e+06 0 -2.16636e+06 2.23636e+06 0 -2.31316e+06 2.26281e+06 0 -2.48784e+06 2.27742e+06 0 -2.69997e+06 2.27313e+06 0 -2.9639e+06 2.23668e+06 0 -3.30202e+06 2.14181e+06 0 -3.75064e+06 1.93343e+06 0 -4.36893e+06 1.4881e+06 0 -5.23518e+06 505969 0 -1.48074e+06 2.07304e+06 0 -1.5503e+06 2.12255e+06 0 -1.6256e+06 2.17174e+06 0 -1.70784e+06 2.22036e+06 0 -1.79857e+06 2.2681e+06 0 -1.89985e+06 2.3145e+06 0 -2.01439e+06 2.3589e+06 0 -2.14592e+06 2.40022e+06 0 -2.2996e+06 2.43673e+06 0 -2.48281e+06 2.4654e+06 0 -2.70647e+06 2.48074e+06 0 -2.98746e+06 2.47224e+06 0 -3.35307e+06 2.41869e+06 0 -3.84954e+06 2.27435e+06 0 -4.55784e+06 1.93272e+06 0 -5.61089e+06 1.11949e+06 0 -1.41469e+06 2.23676e+06 0 -1.487e+06 2.28509e+06 0 -1.56519e+06 2.33399e+06 0 -1.65047e+06 2.38341e+06 0 -1.74441e+06 2.43327e+06 0 -1.84908e+06 2.48341e+06 0 -1.96726e+06 2.53355e+06 0 -2.10281e+06 2.58318e+06 0 -2.26114e+06 2.63136e+06 0 -2.45014e+06 2.67627e+06 0 -2.6817e+06 2.71436e+06 0 -2.97458e+06 2.73843e+06 0 -3.35987e+06 2.73308e+06 0 -3.89191e+06 2.66324e+06 0 -4.6709e+06 2.44211e+06 0 -5.8815e+06 1.82882e+06 0 -1.33105e+06 2.40734e+06 0 -1.40513e+06 2.45531e+06 0 -1.48509e+06 2.50471e+06 0 -1.57211e+06 2.55567e+06 0 -1.66775e+06 2.60836e+06 0 -1.77407e+06 2.66294e+06 0 -1.89387e+06 2.71959e+06 0 -2.03103e+06 2.77839e+06 0 -2.19106e+06 2.83932e+06 0 -2.38211e+06 2.90194e+06 0 -2.61662e+06 2.96492e+06 0 -2.9145e+06 3.02475e+06 0 -3.30948e+06 3.07256e+06 0 -3.86207e+06 3.08523e+06 0 -4.68882e+06 2.99876e+06 0 -6.02275e+06 2.61421e+06 0 -1.22745e+06 2.5784e+06 0 -1.30233e+06 2.62639e+06 0 -1.38292e+06 2.67661e+06 0 -1.47035e+06 2.72938e+06 0 -1.56613e+06 2.78511e+06 0 -1.67225e+06 2.8443e+06 0 -1.79144e+06 2.90757e+06 0 -1.9275e+06 2.97567e+06 0 -2.08585e+06 3.04951e+06 0 -2.27459e+06 3.13013e+06 0 -2.50619e+06 3.21856e+06 0 -2.80099e+06 3.31527e+06 0 -3.19395e+06 3.41847e+06 0 -3.74962e+06 3.5183e+06 0 -4.59739e+06 3.57698e+06 0 -6.01427e+06 3.44755e+06 0 -1.1047e+06 2.74264e+06 0 -1.17955e+06 2.79057e+06 0 -1.25977e+06 2.84145e+06 0 -1.34641e+06 2.89577e+06 0 -1.44089e+06 2.95418e+06 0 -1.54507e+06 3.01749e+06 0 -1.66153e+06 3.08676e+06 0 -1.79383e+06 3.16336e+06 0 -1.94712e+06 3.24914e+06 0 -2.12912e+06 3.3466e+06 0 -2.35182e+06 3.45912e+06 0 -2.63504e+06 3.59127e+06 0 -3.0135e+06 3.74867e+06 0 -3.55306e+06 3.93585e+06 0 -4.39135e+06 4.14498e+06 0 -5.84268e+06 4.29325e+06 0 -966959 2.89373e+06 0 -1.0412e+06 2.9411e+06 0 -1.12032e+06 2.99203e+06 0 -1.20528e+06 3.04717e+06 0 -1.29736e+06 3.10737e+06 0 -1.39825e+06 3.17372e+06 0 -1.51026e+06 3.24765e+06 0 -1.63663e+06 3.33111e+06 0 -1.78203e+06 3.42678e+06 0 -1.95347e+06 3.53849e+06 0 -2.16195e+06 3.67185e+06 0 -2.4258e+06 3.83533e+06 0 -2.77776e+06 4.04196e+06 0 -3.2817e+06 4.31136e+06 0 -4.07712e+06 4.66908e+06 0 -5.50445e+06 5.11049e+06 0 -820674 3.02786e+06 0 -894075 3.07385e+06 0 -971754 3.12392e+06 0 -1.05456e+06 3.17882e+06 0 -1.14362e+06 3.23958e+06 0 -1.2404e+06 3.30749e+06 0 -1.34692e+06 3.38429e+06 0 -1.46598e+06 3.47239e+06 0 -1.60162e+06 3.57516e+06 0 -1.75988e+06 3.69753e+06 0 -1.95027e+06 3.84699e+06 0 -2.18874e+06 4.03548e+06 0 -2.50422e+06 4.28285e+06 0 -2.95467e+06 4.62362e+06 0 -3.67299e+06 5.11899e+06 0 -5.0078e+06 5.85668e+06 0 -672938 3.14428e+06 0 -745578 3.18791e+06 0 -821835 3.23603e+06 0 -902439 3.28951e+06 0 -988345 3.34945e+06 0 -1.08081e+06 3.41732e+06 0 -1.1815e+06 3.49509e+06 0 -1.29275e+06 3.58545e+06 0 -1.41787e+06 3.69229e+06 0 -1.56176e+06 3.82135e+06 0 -1.73212e+06 3.98153e+06 0 -1.94178e+06 4.18745e+06 0 -2.21413e+06 4.46462e+06 0 -2.59715e+06 4.86083e+06 0 -3.20651e+06 5.47276e+06 0 -4.37301e+06 6.49168e+06 0 -529979 3.2448e+06 0 -602170 3.285e+06 0 -677287 3.33007e+06 0 -755951 3.38093e+06 0 -838962 3.43876e+06 0 -927349 3.50512e+06 0 -1.02247e+06 3.58208e+06 0 -1.12616e+06 3.67255e+06 0 -1.24098e+06 3.7807e+06 0 -1.37067e+06 3.91275e+06 0 -1.52092e+06 4.07848e+06 0 -1.70103e+06 4.29424e+06 0 -1.92767e+06 4.58939e+06 0 -2.23509e+06 5.02185e+06 0 -2.71004e+06 5.71951e+06 0 -3.63087e+06 6.98163e+06 0 -396410 3.3327e+06 0 -468551 3.36834e+06 0 -542925 3.40928e+06 0 -620064 3.45644e+06 0 -700635 3.51103e+06 0 -785466 3.57463e+06 0 -875618 3.64938e+06 0 -972475 3.73824e+06 0 -1.0779e+06 3.84549e+06 0 -1.19448e+06 3.97756e+06 0 -1.32595e+06 4.14459e+06 0 -1.47804e+06 4.36363e+06 0 -1.66019e+06 4.66584e+06 0 -1.89055e+06 5.11467e+06 0 -2.21587e+06 5.85971e+06 0 -2.81961e+06 7.30143e+06 0 -275216 3.41165e+06 0 -347637 3.44155e+06 0 -421624 3.47729e+06 0 -497644 3.51978e+06 0 -576255 3.57019e+06 0 -658117 3.63008e+06 0 -744027 3.70157e+06 0 -834975 3.78761e+06 0 -932190 3.89244e+06 0 -1.03724e+06 4.02246e+06 0 -1.15206e+06 4.18772e+06 0 -1.27905e+06 4.40516e+06 0 -1.42079e+06 4.70566e+06 0 -1.57868e+06 5.15312e+06 0 -1.75243e+06 5.90347e+06 0 -1.98116e+06 7.43484e+06 0 -168142 3.48498e+06 0 -240957 3.50786e+06 0 -314738 3.53735e+06 0 -389905 3.57427e+06 0 -466927 3.61974e+06 0 -546320 3.67522e+06 0 -628662 3.74277e+06 0 -714597 3.82523e+06 0 -804811 3.92673e+06 0 -899967 4.05345e+06 0 -1.00051e+06 4.21503e+06 0 -1.10578e+06 4.42773e+06 0 -1.21276e+06 4.72047e+06 0 -1.30708e+06 5.15304e+06 0 -1.34197e+06 5.86835e+06 0 -1.15783e+06 7.37053e+06 0 -76187.9 3.55532e+06 0 -149150 3.56978e+06 0 -222615 3.59194e+06 0 -296958 3.62249e+06 0 -372562 3.66237e+06 0 -449820 3.71297e+06 0 -529113 3.77616e+06 0 -610769 3.85467e+06 0 -695062 3.9524e+06 0 -781764 4.07519e+06 0 -870280 4.23223e+06 0 -957153 4.43834e+06 0 -1.03496e+06 4.72003e+06 0 -1.0774e+06 5.12889e+06 0 -998425 5.77823e+06 0 -391516 7.09082e+06 0 1.05035 3.62447e+06 0 -72367.7 3.629e+06 0 -145037 3.64276e+06 0 -218300 3.66617e+06 0 -292432 3.69998e+06 0 -367695 3.74536e+06 0 -444251 3.80403e+06 0 -522264 3.87846e+06 0 -601286 3.97233e+06 0 -681222 4.09111e+06 0 -758584 4.2432e+06 0 -831952 4.44226e+06 0 -881961 4.71124e+06 0 -890479 5.09158e+06 0 -722145 5.66516e+06 0 270149 6.54356e+06 0 </DataArray> 
</PointData> 
<Points> 
<DataArray type="Float32" NumberOfComponents="3"> 
0.0678 0.0673333 0 0.0701467 0.0665112 0 0.0724933 0.0656891 0 0.07484 0.064867 0 0.0771867 0.064045 0 0.0795333 0.0632229 0 0.08188 0.0624008 0 0.0842267 0.0615787 0 0.0865733 0.0607566 0 0.08892 0.0599345 0 0.0912667 0.0591124 0 0.0936133 0.0582903 0 0.09596 0.0574682 0 0.0983067 0.0566461 0 0.100653 0.055824 0 0.103 0.0550019 0 0.0708133 0.0703111 0 0.0728889 0.0693869 0 0.0749746 0.0684583 0 0.0770705 0.067525 0 0.0791767 0.0665872 0 0.0812933 0.0656448 0 0.0834203 0.0646977 0 0.0855578 0.063746 0 0.0877059 0.0627895 0 0.0898647 0.0618283 0 0.0920342 0.0608623 0 0.0942146 0.0598915 0 0.0964059 0.0589158 0 0.0986082 0.0579352 0 0.100822 0.0569497 0 0.103046 0.0559592 0 0.0738267 0.0732889 0 0.07566 0.072268 0 0.0775101 0.0712377 0 0.079377 0.0701981 0 0.0812612 0.0691489 0 0.0831627 0.06809 0 0.0850819 0.0670213 0 0.0870189 0.0659426 0 0.0889741 0.0648538 0 0.0909477 0.0637548 0 0.0929399 0.0626454 0 0.0949511 0.0615254 0 0.0969814 0.0603948 0 0.0990313 0.0592533 0 0.101101 0.0581008 0 0.10319 0.0569372 0 0.07684 0.0762667 0 0.0784573 0.0751513 0 0.080095 0.0740218 0 0.0817536 0.072878 0 0.0834335 0.0717194 0 0.085135 0.070546 0 0.0868586 0.0693572 0 0.0886048 0.068153 0 0.0903739 0.0669329 0 0.0921664 0.0656967 0 0.0939829 0.064444 0 0.0958237 0.0631744 0 0.0976894 0.0618878 0 0.0995804 0.0605836 0 0.101497 0.0592615 0 0.103441 0.0579213 0 0.0798533 0.0792444 0 0.0812779 0.0780339 0 0.0827246 0.0768047 0 0.0841938 0.0755562 0 0.0856862 0.074288 0 0.0872024 0.0729997 0 0.0887428 0.0716908 0 0.090308 0.0703608 0 0.0918987 0.0690091 0 0.0935155 0.0676353 0 0.095159 0.0662387 0 0.09683 0.0648188 0 0.098529 0.0633751 0 0.100257 0.0619069 0 0.102014 0.0604136 0 0.103802 0.0588945 0 0.0828667 0.0822222 0 0.084119 0.0809129 0 0.0853935 0.0795804 0 0.0866906 0.0782242 0 0.0880111 0.0768436 0 0.0893556 0.0754379 0 0.0907246 0.0740065 0 0.092119 0.0725487 0 0.0935394 0.0710637 0 0.0949865 0.0695507 0 0.0964611 0.0680089 0 0.097964 0.0664376 0 0.0994961 0.0648358 0 0.101058 0.0632027 0 0.102651 0.0615373 0 0.104276 0.0598387 0 0.08588 0.0852 0 0.0869777 0.083785 0 0.0880963 0.0823431 0 0.0892366 0.0808733 0 0.090399 0.0793748 0 0.0915843 0.077847 0 0.0927931 0.0762887 0 0.0940262 0.0746992 0 0.0952843 0.0730775 0 0.0965681 0.0714226 0 0.0978785 0.0697335 0 0.0992162 0.068009 0 0.100582 0.0662482 0 0.101977 0.0644497 0 0.103403 0.0626125 0 0.104859 0.0607351 0 0.0888933 0.0881778 0 0.089851 0.0866474 0 0.0908276 0.0850867 0 0.0918237 0.0834948 0 0.09284 0.0818706 0 0.0938771 0.0802133 0 0.0949356 0.0785218 0 0.0960161 0.0767949 0 0.0971195 0.0750317 0 0.0982463 0.0732309 0 0.0993974 0.0713914 0 0.100574 0.0695118 0 0.101776 0.0675908 0 0.103004 0.0656271 0 0.104261 0.0636192 0 0.105546 0.0615656 0 0.0919067 0.0911556 0 0.0927358 0.089497 0 0.0935814 0.0878055 0 0.0944439 0.0860802 0 0.0953239 0.08432 0 0.0962218 0.0825238 0 0.0971383 0.0806905 0 0.0980739 0.078819 0 0.0990293 0.0769081 0 0.100005 0.0749564 0 0.101002 0.0729627 0 0.10202 0.0709256 0 0.103061 0.0688437 0 0.104125 0.0667155 0 0.105213 0.0645394 0 0.106325 0.0623137 0 0.09492 0.0941333 0 0.0956292 0.0923307 0 0.096352 0.0904937 0 0.0970888 0.0886212 0 0.0978399 0.0867123 0 0.0986057 0.0847658 0 0.0993868 0.0827807 0 0.100184 0.0807557 0 0.100996 0.0786897 0 0.101826 0.0765814 0 0.102673 0.0744295 0 0.103537 0.0722326 0 0.10442 0.0699893 0 0.105321 0.0676982 0 0.106242 0.0653576 0 0.107183 0.0629659 0 0.0979333 0.0971111 0 0.0985282 0.0951457 0 0.0991335 0.0931456 0 0.0997497 0.0911098 0 0.100377 0.0890375 0 0.101016 0.0869275 0 0.101666 0.0847789 0 0.102328 0.0825906 0 0.103003 0.0803615 0 0.10369 0.0780904 0 0.104391 0.0757761 0 0.105104 0.0734175 0 0.105832 0.0710131 0 0.106574 0.0685617 0 0.107331 0.0660619 0 0.108102 0.0635122 0 0.100947 0.100089 0 0.10143 0.097939 0 0.10192 0.0957558 0 0.102418 0.0935384 0 0.102924 0.0912861 0 0.103438 0.0889981 0 0.10396 0.0866734 0 0.104491 0.0843112 0 0.10503 0.0819105 0 0.105578 0.0794705 0 0.106135 0.0769902 0 0.106702 0.0744685 0 0.107277 0.0719044 0 0.107863 0.0692968 0 0.108459 0.0666446 0 0.109065 0.0639467 0 0.10396 0.103067 0 0.10433 0.100708 0 0.104705 0.098319 0 0.105085 0.0958998 0 0.10547 0.0934496 0 0.10586 0.0909678 0 0.106254 0.0884538 0 0.106654 0.0859069 0 0.107059 0.0833265 0 0.10747 0.080712 0 0.107886 0.0780626 0 0.108308 0.0753776 0 0.108735 0.0726564 0 0.109168 0.0698982 0 0.109607 0.0671021 0 0.110052 0.0642676 0 0.106973 0.106044 0 0.107228 0.103449 0 0.107484 0.10083 0 0.107743 0.0981874 0 0.108004 0.0955202 0 0.108268 0.0928284 0 0.108534 0.0901116 0 0.108803 0.0873696 0 0.109074 0.0846018 0 0.109347 0.081808 0 0.109624 0.0789878 0 0.109903 0.0761408 0 0.110184 0.0732666 0 0.110468 0.0703649 0 0.110755 0.0674352 0 0.111045 0.0644772 0 0.109987 0.109022 0 0.110118 0.106161 0 0.11025 0.103285 0 0.110383 0.100395 0 0.110516 0.0974912 0 0.11065 0.0945729 0 0.110785 0.0916403 0 0.11092 0.0886932 0 0.111056 0.0857315 0 0.111193 0.082755 0 0.111331 0.0797638 0 0.111469 0.0767576 0 0.111607 0.0737363 0 0.111747 0.0706999 0 0.111887 0.0676482 0 0.112028 0.0645812 0 0.113 0.112 0 0.112999 0.108839 0 0.112998 0.105678 0 0.112997 0.102518 0 0.112996 0.0993567 0 0.112995 0.0961959 0 0.112994 0.0930351 0 0.112993 0.0898743 0 0.112992 0.0867135 0 0.112992 0.0835526 0 0.112991 0.0803918 0 0.11299 0.077231 0 0.112989 0.0740702 0 0.112988 0.0709094 0 0.112987 0.0677486 0 0.112986 0.0645877 0 
</DataArray>
</Points> 
</Piece> 
</StructuredGrid> 
</VTKFile> 
