<?xml version="1.0"?> 
<VTKFile type="StructuredGrid" version="0.1"> 
<StructuredGrid WholeExtent="0 7 0 7 0 0"> 
<Piece Extent="0 7 0 7 0 0"> 
<PointData>
<DataArray type="Float32" Name="B" format="ascii" NumberOfComponents="3"> 
-4.6434e-05 -7.73814e-05 0 -3.02624e-05 -3.20222e-05 0 -1.51741e-05 -2.77403e-05 0 -8.35142e-06 -2.16758e-05 0 -4.88952e-06 -1.86667e-05 0 -2.64816e-06 -1.65717e-05 0 -1.20146e-06 -1.54233e-05 0 0 -1.50523e-05 0 5.23888e-06 -7.0795e-05 0 3.50124e-07 -4.86174e-05 0 -1.84072e-07 -3.39963e-05 0 8.76397e-08 -2.57196e-05 0 2.488e-07 -2.07476e-05 0 2.17519e-07 -1.78525e-05 0 1.27784e-07 -1.63158e-05 0 0 -1.58039e-05 0 3.80488e-05 -5.35499e-05 0 2.35193e-05 -3.79895e-05 0 1.43603e-05 -2.84508e-05 0 8.87439e-06 -2.23787e-05 0 5.4643e-06 -1.85706e-05 0 3.18226e-06 -1.62621e-05 0 1.46809e-06 -1.50135e-05 0 0 -1.45945e-05 0 5.41963e-05 -1.52598e-05 0 3.30293e-05 -1.5788e-05 0 2.08036e-05 -1.51597e-05 0 1.32706e-05 -1.41421e-05 0 8.36737e-06 -1.31677e-05 0 4.93628e-06 -1.24064e-05 0 2.29619e-06 -1.19291e-05 0 0 -1.17573e-05 0 3.56522e-05 1.77523e-05 0 2.53054e-05 4.00322e-06 0 1.77555e-05 -2.4975e-06 0 1.22929e-05 -5.7008e-06 0 8.23369e-06 -7.20302e-06 0 5.06522e-06 -7.87253e-06 0 2.41404e-06 -8.13794e-06 0 0 -8.20868e-06 0 8.80903e-06 2.09726e-05 0 1.0871e-05 1.00872e-05 0 1.00477e-05 3.33233e-06 0 8.24813e-06 -6.41386e-07 0 6.17857e-06 -2.89171e-06 0 4.08379e-06 -4.10119e-06 0 2.02657e-06 -4.68553e-06 0 0 -4.86748e-06 0 -4.31767e-06 1.06806e-05 0 1.19384e-06 6.40848e-06 0 3.77467e-06 3.00465e-06 0 4.45984e-06 6.83806e-07 0 4.01913e-06 -7.69774e-07 0 2.9457e-06 -1.61107e-06 0 1.54259e-06 -2.03992e-06 0 0 -2.17761e-06 0 -7.5854e-06 -0 0 -1.91603e-06 -0 0 1.43843e-06 -0 0 2.9152e-06 -0 0 3.08356e-06 -0 0 2.43164e-06 -0 0 1.31812e-06 -0 0 0 -0 0 </DataArray> 
</PointData> 
<Points> 
<DataArray type="Float32" NumberOfComponents="3"> 
3 3 0 3.28571 3 0 3.57143 3 0 3.85714 3 0 4.14286 3 0 4.42857 3 0 4.71429 3 0 5 3 0 3 3.42857 0 3.28571 3.42857 0 3.57143 3.42857 0 3.85714 3.42857 0 4.14286 3.42857 0 4.42857 3.42857 0 4.71429 3.42857 0 5 3.42857 0 3 3.85714 0 3.28571 3.85714 0 3.57143 3.85714 0 3.85714 3.85714 0 4.14286 3.85714 0 4.42857 3.85714 0 4.71429 3.85714 0 5 3.85714 0 3 4.28571 0 3.28571 4.28571 0 3.57143 4.28571 0 3.85714 4.28571 0 4.14286 4.28571 0 4.42857 4.28571 0 4.71429 4.28571 0 5 4.28571 0 3 4.71429 0 3.28571 4.71429 0 3.57143 4.71429 0 3.85714 4.71429 0 4.14286 4.71429 0 4.42857 4.71429 0 4.71429 4.71429 0 5 4.71429 0 3 5.14286 0 3.28571 5.14286 0 3.57143 5.14286 0 3.85714 5.14286 0 4.14286 5.14286 0 4.42857 5.14286 0 4.71429 5.14286 0 5 5.14286 0 3 5.57143 0 3.28571 5.57143 0 3.57143 5.57143 0 3.85714 5.57143 0 4.14286 5.57143 0 4.42857 5.57143 0 4.71429 5.57143 0 5 5.57143 0 3 6 0 3.28571 6 0 3.57143 6 0 3.85714 6 0 4.14286 6 0 4.42857 6 0 4.71429 6 0 5 6 0 
</DataArray>
</Points> 
</Piece> 
</StructuredGrid> 
</VTKFile> 
