<?xml version="1.0"?> 
<VTKFile type="StructuredGrid" version="0.1"> 
<StructuredGrid WholeExtent="0 7 0 7 0 0"> 
<Piece Extent="0 7 0 7 0 0"> 
<PointData>
<DataArray type="Float32" Name="B" format="ascii" NumberOfComponents="3"> 
-3.44548e-05 1.30921e-05 0 -1.4177e-05 -7.53398e-07 0 -1.183e-05 -3.98579e-06 0 -9.11026e-06 -6.58656e-06 0 -6.35613e-06 -7.80109e-06 0 -4.09709e-06 -8.44886e-06 0 -1.96628e-06 -8.73434e-06 0 0 -8.81266e-06 0 -2.19872e-05 1.04025e-06 0 -1.75861e-05 -1.72225e-06 0 -1.34189e-05 -5.91075e-06 0 -9.82171e-06 -8.03472e-06 0 -6.81199e-06 -9.1295e-06 0 -4.23798e-06 -9.58955e-06 0 -2.03642e-06 -9.75921e-06 0 0 -9.8019e-06 0 -2.28553e-05 1.10288e-07 0 -1.96997e-05 -4.20706e-06 0 -1.48387e-05 -7.97507e-06 0 -1.05239e-05 -9.8502e-06 0 -7.06501e-06 -1.05908e-05 0 -4.32685e-06 -1.07984e-05 0 -2.05075e-06 -1.0815e-05 0 0 -1.08026e-05 0 -2.55909e-05 -5.00567e-08 0 -2.2173e-05 -6.8377e-06 0 -1.61114e-05 -1.06015e-05 0 -1.09747e-05 -1.19372e-05 0 -7.15242e-06 -1.21822e-05 0 -4.29378e-06 -1.20491e-05 0 -2.01279e-06 -1.18729e-05 0 0 -1.17949e-05 0 -3.03813e-05 -3.19331e-07 0 -2.52241e-05 -1.03583e-05 0 -1.70793e-05 -1.38715e-05 0 -1.10873e-05 -1.42841e-05 0 -7.00413e-06 -1.38605e-05 0 -4.12018e-06 -1.33044e-05 0 -1.91028e-06 -1.29018e-05 0 0 -1.27493e-05 0 -3.96412e-05 -1.14023e-06 0 -2.86426e-05 -1.60712e-05 0 -1.74261e-05 -1.78013e-05 0 -1.07463e-05 -1.68402e-05 0 -6.55711e-06 -1.55571e-05 0 -3.79088e-06 -1.4516e-05 0 -1.73398e-06 -1.38646e-05 0 0 -1.36324e-05 0 -5.55335e-05 -6.56228e-06 0 -3.16735e-05 -2.60113e-05 0 -1.68081e-05 -2.19682e-05 0 -9.6593e-06 -1.95426e-05 0 -5.87067e-06 -1.71642e-05 0 -3.24726e-06 -1.56264e-05 0 -1.49804e-06 -1.47243e-05 0 0 -1.44049e-05 0 -0.000148683 -7.73814e-05 0 -2.4787e-05 -3.20222e-05 0 -1.435e-05 -2.77403e-05 0 -8.55604e-06 -2.16758e-05 0 -4.44597e-06 -1.86667e-05 0 -2.71194e-06 -1.65717e-05 0 -1.12697e-06 -1.54233e-05 0 0 -1.50523e-05 0 </DataArray> 
</PointData> 
<Points> 
<DataArray type="Float32" NumberOfComponents="3"> 
3 2 0 3.28571 2 0 3.57143 2 0 3.85714 2 0 4.14286 2 0 4.42857 2 0 4.71429 2 0 5 2 0 3 2.14286 0 3.28571 2.14286 0 3.57143 2.14286 0 3.85714 2.14286 0 4.14286 2.14286 0 4.42857 2.14286 0 4.71429 2.14286 0 5 2.14286 0 3 2.28571 0 3.28571 2.28571 0 3.57143 2.28571 0 3.85714 2.28571 0 4.14286 2.28571 0 4.42857 2.28571 0 4.71429 2.28571 0 5 2.28571 0 3 2.42857 0 3.28571 2.42857 0 3.57143 2.42857 0 3.85714 2.42857 0 4.14286 2.42857 0 4.42857 2.42857 0 4.71429 2.42857 0 5 2.42857 0 3 2.57143 0 3.28571 2.57143 0 3.57143 2.57143 0 3.85714 2.57143 0 4.14286 2.57143 0 4.42857 2.57143 0 4.71429 2.57143 0 5 2.57143 0 3 2.71429 0 3.28571 2.71429 0 3.57143 2.71429 0 3.85714 2.71429 0 4.14286 2.71429 0 4.42857 2.71429 0 4.71429 2.71429 0 5 2.71429 0 3 2.85714 0 3.28571 2.85714 0 3.57143 2.85714 0 3.85714 2.85714 0 4.14286 2.85714 0 4.42857 2.85714 0 4.71429 2.85714 0 5 2.85714 0 3 3 0 3.28571 3 0 3.57143 3 0 3.85714 3 0 4.14286 3 0 4.42857 3 0 4.71429 3 0 5 3 0 
</DataArray>
</Points> 
</Piece> 
</StructuredGrid> 
</VTKFile> 
