<?xml version="1.0"?> 
<VTKFile type="StructuredGrid" version="0.1"> 
<StructuredGrid WholeExtent="0 7 0 7 0 0"> 
<Piece Extent="0 7 0 7 0 0"> 
<PointData>
<DataArray type="Float32" Name="B" format="ascii" NumberOfComponents="3"> 
-3.05369e-06 -0 0 -3.1341e-06 -0 0 -3.02818e-06 -0 0 -2.72124e-06 -0 0 -2.22569e-06 -0 0 -1.57485e-06 -0 0 -8.15296e-07 -0 0 0 -0 0 -3.13573e-06 1.77593e-07 0 -3.23951e-06 -5.78211e-10 0 -3.14153e-06 -2.05987e-07 0 -2.82715e-06 -4.1018e-07 0 -2.31218e-06 -5.88632e-07 0 -1.63497e-06 -7.24732e-07 0 -8.45859e-07 -8.09856e-07 0 0 -8.40564e-07 0 -3.37582e-06 4.09362e-07 0 -3.55031e-06 2.98441e-08 0 -3.47561e-06 -4.12377e-07 0 -3.13589e-06 -8.47943e-07 0 -2.56118e-06 -1.22199e-06 0 -1.8061e-06 -1.50256e-06 0 -9.32244e-07 -1.67577e-06 0 0 -1.73777e-06 0 -3.80207e-06 7.77951e-07 0 -4.11758e-06 1.30665e-07 0 -4.08098e-06 -6.26077e-07 0 -3.68149e-06 -1.35149e-06 0 -2.9894e-06 -1.95393e-06 0 -2.0938e-06 -2.3915e-06 0 -1.07541e-06 -2.65526e-06 0 0 -2.74848e-06 0 -4.45139e-06 1.40755e-06 0 -5.05738e-06 3.56644e-07 0 -5.05608e-06 -8.73862e-07 0 -4.51886e-06 -1.98937e-06 0 -3.61578e-06 -2.85871e-06 0 -2.49997e-06 -3.45873e-06 0 -1.27286e-06 -3.80736e-06 0 0 -3.92802e-06 0 -5.54174e-06 2.64058e-06 0 -6.61959e-06 7.73686e-07 0 -6.57048e-06 -1.26357e-06 0 -5.70632e-06 -2.8924e-06 0 -4.44524e-06 -4.04327e-06 0 -3.00891e-06 -4.78033e-06 0 -1.5129e-06 -5.18675e-06 0 0 -5.32349e-06 0 -7.08791e-06 5.49023e-06 0 -9.48736e-06 1.28538e-06 0 -8.84727e-06 -2.14949e-06 0 -7.27199e-06 -4.29523e-06 0 -5.4258e-06 -5.64897e-06 0 -3.57481e-06 -6.43e-06 0 -1.76586e-06 -6.83012e-06 0 0 -6.9594e-06 0 -1.34695e-05 1.30921e-05 0 -1.5058e-05 -7.53398e-07 0 -1.18658e-05 -3.98579e-06 0 -8.99616e-06 -6.58656e-06 0 -6.43524e-06 -7.80109e-06 0 -4.07383e-06 -8.44886e-06 0 -1.9819e-06 -8.73434e-06 0 0 -8.81266e-06 0 </DataArray> 
</PointData> 
<Points> 
<DataArray type="Float32" NumberOfComponents="3"> 
3 0 0 3.28571 0 0 3.57143 0 0 3.85714 0 0 4.14286 0 0 4.42857 0 0 4.71429 0 0 5 0 0 3 0.285714 0 3.28571 0.285714 0 3.57143 0.285714 0 3.85714 0.285714 0 4.14286 0.285714 0 4.42857 0.285714 0 4.71429 0.285714 0 5 0.285714 0 3 0.571429 0 3.28571 0.571429 0 3.57143 0.571429 0 3.85714 0.571429 0 4.14286 0.571429 0 4.42857 0.571429 0 4.71429 0.571429 0 5 0.571429 0 3 0.857143 0 3.28571 0.857143 0 3.57143 0.857143 0 3.85714 0.857143 0 4.14286 0.857143 0 4.42857 0.857143 0 4.71429 0.857143 0 5 0.857143 0 3 1.14286 0 3.28571 1.14286 0 3.57143 1.14286 0 3.85714 1.14286 0 4.14286 1.14286 0 4.42857 1.14286 0 4.71429 1.14286 0 5 1.14286 0 3 1.42857 0 3.28571 1.42857 0 3.57143 1.42857 0 3.85714 1.42857 0 4.14286 1.42857 0 4.42857 1.42857 0 4.71429 1.42857 0 5 1.42857 0 3 1.71429 0 3.28571 1.71429 0 3.57143 1.71429 0 3.85714 1.71429 0 4.14286 1.71429 0 4.42857 1.71429 0 4.71429 1.71429 0 5 1.71429 0 3 2 0 3.28571 2 0 3.57143 2 0 3.85714 2 0 4.14286 2 0 4.42857 2 0 4.71429 2 0 5 2 0 
</DataArray>
</Points> 
</Piece> 
</StructuredGrid> 
</VTKFile> 
