<?xml version="1.0"?> 
<VTKFile type="StructuredGrid" version="0.1"> 
<StructuredGrid WholeExtent="0 7 0 7 0 0"> 
<Piece Extent="0 7 0 7 0 0"> 
<PointData>
<DataArray type="Float32" Name="B" format="ascii" NumberOfComponents="3"> 
0 9.73481e-07 0 -4.71249e-05 1.03016e-06 0 -8.60007e-05 1.22084e-06 0 -0.000110312 1.58424e-06 0 -0.000116594 2.09366e-06 0 -0.000104753 3.50493e-06 0 -7.6222e-05 4.47719e-06 0 -3.44548e-05 2.01968e-05 0 0 1.73816e-05 0 -4.75905e-05 1.59029e-05 0 -8.68354e-05 1.20514e-05 0 -0.000111251 6.76045e-06 0 -0.000117491 1.16274e-06 0 -0.000105264 -3.70047e-06 0 -7.56627e-05 -7.17384e-06 0 -2.19872e-05 -1.20953e-06 0 0 3.40999e-05 0 -4.89839e-05 3.10559e-05 0 -8.93344e-05 2.30547e-05 0 -0.000114208 1.19783e-05 0 -0.000120433 1.09789e-07 0 -0.000107718 -1.09284e-05 0 -7.67757e-05 -2.00383e-05 0 -2.28553e-05 -2.48118e-05 0 0 5.14419e-05 0 -5.13382e-05 4.6799e-05 0 -9.35662e-05 3.44221e-05 0 -0.000119253 1.72872e-05 0 -0.000125437 -1.07205e-06 0 -0.000112149 -1.8274e-05 0 -8.04465e-05 -3.37022e-05 0 -2.55909e-05 -4.77599e-05 0 0 6.97144e-05 0 -5.46999e-05 6.34694e-05 0 -9.96639e-05 4.63529e-05 0 -0.000126464 2.27244e-05 0 -0.00013258 -2.39624e-06 0 -0.000118545 -2.58626e-05 0 -8.66855e-05 -4.73793e-05 0 -3.03813e-05 -7.15523e-05 0 0 8.91839e-05 0 -5.91314e-05 8.14647e-05 0 -0.000107823 5.9054e-05 0 -0.000135963 2.83023e-05 0 -0.000141931 -3.87885e-06 0 -0.000126882 -3.39128e-05 0 -9.53626e-05 -6.00488e-05 0 -3.96412e-05 -9.77226e-05 0 0 0.000109981 0 -6.47158e-05 0.000101314 0 -0.000118287 7.27321e-05 0 -0.000147978 3.39786e-05 0 -0.000153439 -5.47163e-06 0 -0.00013724 -4.30051e-05 0 -0.000106203 -7.00559e-05 0 -5.55335e-05 -0.000125871 0 0 0.00013184 0 -7.14781e-05 0.000123848 0 -0.000131628 8.75519e-05 0 -0.000162375 3.96892e-05 0 -0.000167682 -7.31908e-06 0 -0.000149523 -5.30283e-05 0 -0.000112777 -8.01659e-05 0 -0.000148683 -0.000122739 0 </DataArray> 
</PointData> 
<Points> 
<DataArray type="Float32" NumberOfComponents="3"> 
0 2 0 0.428571 2 0 0.857143 2 0 1.28571 2 0 1.71429 2 0 2.14286 2 0 2.57143 2 0 3 2 0 0 2.14286 0 0.428571 2.14286 0 0.857143 2.14286 0 1.28571 2.14286 0 1.71429 2.14286 0 2.14286 2.14286 0 2.57143 2.14286 0 3 2.14286 0 0 2.28571 0 0.428571 2.28571 0 0.857143 2.28571 0 1.28571 2.28571 0 1.71429 2.28571 0 2.14286 2.28571 0 2.57143 2.28571 0 3 2.28571 0 0 2.42857 0 0.428571 2.42857 0 0.857143 2.42857 0 1.28571 2.42857 0 1.71429 2.42857 0 2.14286 2.42857 0 2.57143 2.42857 0 3 2.42857 0 0 2.57143 0 0.428571 2.57143 0 0.857143 2.57143 0 1.28571 2.57143 0 1.71429 2.57143 0 2.14286 2.57143 0 2.57143 2.57143 0 3 2.57143 0 0 2.71429 0 0.428571 2.71429 0 0.857143 2.71429 0 1.28571 2.71429 0 1.71429 2.71429 0 2.14286 2.71429 0 2.57143 2.71429 0 3 2.71429 0 0 2.85714 0 0.428571 2.85714 0 0.857143 2.85714 0 1.28571 2.85714 0 1.71429 2.85714 0 2.14286 2.85714 0 2.57143 2.85714 0 3 2.85714 0 0 3 0 0.428571 3 0 0.857143 3 0 1.28571 3 0 1.71429 3 0 2.14286 3 0 2.57143 3 0 3 3 0 
</DataArray>
</Points> 
</Piece> 
</StructuredGrid> 
</VTKFile> 
