<?xml version="1.0"?> 
<VTKFile type="StructuredGrid" version="0.1"> 
<StructuredGrid WholeExtent="0 7 0 7 0 0"> 
<Piece Extent="0 7 0 7 0 0"> 
<PointData>
<DataArray type="Float32" Name="B" format="ascii" NumberOfComponents="3"> 
0 0.00013184 0 5.62419e-06 0.000123848 0 1.36271e-05 8.75519e-05 0 1.2957e-05 3.96892e-05 0 1.27185e-05 -7.31908e-06 0 1.36442e-05 -5.30283e-05 0 6.41962e-06 -8.01659e-05 0 -4.6434e-05 -0.000122739 0 0 0.000127874 0 -2.07349e-05 0.000149942 0 -4.76422e-05 9.49883e-05 0 -4.55898e-05 3.7702e-05 0 -4.38843e-05 -7.18657e-06 0 -4.27087e-05 -6.09189e-05 0 -1.41161e-05 -0.000108401 0 5.23888e-06 -6.38227e-05 0 0 9.56029e-05 0 5.93091e-05 0.000140647 0 0.000111144 8.11378e-05 0 0.000134394 2.91745e-05 0 0.000137486 -3.60071e-06 0 0.000121318 -5.29455e-05 0 7.96694e-05 -0.000105485 0 3.80488e-05 -4.19716e-05 0 0 3.32826e-05 0 0.000105124 2.83662e-05 0 0.00020238 2.30606e-05 0 0.000237202 1.44968e-05 0 0.00024098 3.7314e-06 0 0.000214958 -4.66783e-06 0 0.000131397 -9.77497e-06 0 5.41963e-05 -1.56217e-05 0 0 -1.81579e-05 0 3.52576e-05 -7.46299e-05 0 6.38865e-05 -2.83554e-05 0 8.07674e-05 1.37127e-06 0 8.41049e-05 9.29916e-06 0 7.46306e-05 3.69186e-05 0 5.59328e-05 7.72192e-05 0 3.56522e-05 3.51079e-06 0 0 -3.84185e-05 0 -2.51366e-05 -4.97024e-05 0 -5.09425e-05 -2.74494e-05 0 -5.4362e-05 -4.6358e-06 0 -5.21366e-05 9.59352e-06 0 -4.44206e-05 2.97717e-05 0 -1.52475e-05 4.52312e-05 0 8.80903e-06 1.94173e-05 0 0 -2.11847e-05 0 -2.09509e-05 -1.79748e-05 0 -3.75809e-05 -1.20306e-05 0 -4.52564e-05 -3.30137e-06 0 -4.4075e-05 4.99106e-06 0 -3.47447e-05 1.20934e-05 0 -1.89804e-05 1.42276e-05 0 -4.31767e-06 1.13409e-05 0 0 -0 0 -1.99305e-05 -0 0 -3.5984e-05 -0 0 -4.34948e-05 -0 0 -4.27513e-05 -0 0 -3.46121e-05 -0 0 -2.07005e-05 -0 0 -7.5854e-06 -0 0 </DataArray> 
</PointData> 
<Points> 
<DataArray type="Float32" NumberOfComponents="3"> 
0 3 0 0.428571 3 0 0.857143 3 0 1.28571 3 0 1.71429 3 0 2.14286 3 0 2.57143 3 0 3 3 0 0 3.42857 0 0.428571 3.42857 0 0.857143 3.42857 0 1.28571 3.42857 0 1.71429 3.42857 0 2.14286 3.42857 0 2.57143 3.42857 0 3 3.42857 0 0 3.85714 0 0.428571 3.85714 0 0.857143 3.85714 0 1.28571 3.85714 0 1.71429 3.85714 0 2.14286 3.85714 0 2.57143 3.85714 0 3 3.85714 0 0 4.28571 0 0.428571 4.28571 0 0.857143 4.28571 0 1.28571 4.28571 0 1.71429 4.28571 0 2.14286 4.28571 0 2.57143 4.28571 0 3 4.28571 0 0 4.71429 0 0.428571 4.71429 0 0.857143 4.71429 0 1.28571 4.71429 0 1.71429 4.71429 0 2.14286 4.71429 0 2.57143 4.71429 0 3 4.71429 0 0 5.14286 0 0.428571 5.14286 0 0.857143 5.14286 0 1.28571 5.14286 0 1.71429 5.14286 0 2.14286 5.14286 0 2.57143 5.14286 0 3 5.14286 0 0 5.57143 0 0.428571 5.57143 0 0.857143 5.57143 0 1.28571 5.57143 0 1.71429 5.57143 0 2.14286 5.57143 0 2.57143 5.57143 0 3 5.57143 0 0 6 0 0.428571 6 0 0.857143 6 0 1.28571 6 0 1.71429 6 0 2.14286 6 0 2.57143 6 0 3 6 0 
</DataArray>
</Points> 
</Piece> 
</StructuredGrid> 
</VTKFile> 
