<?xml version="1.0"?> 
<VTKFile type="StructuredGrid" version="0.1"> 
<StructuredGrid WholeExtent="0 7 0 7 0 0"> 
<Piece Extent="0 7 0 7 0 0"> 
<PointData>
<DataArray type="Float32" Name="B" format="ascii" NumberOfComponents="3"> 
0 -0 0 -3.25589e-07 -0 0 -6.818e-07 -0 0 -1.09598e-06 -0 0 -1.58437e-06 -0 0 -2.13315e-06 -0 0 -2.67062e-06 -0 0 -3.05369e-06 -0 0 0 2.10339e-07 0 -3.18111e-07 2.21625e-07 0 -6.67368e-07 2.5257e-07 0 -1.07696e-06 2.99741e-07 0 -1.56748e-06 3.51845e-07 0 -2.133e-06 3.81406e-07 0 -2.70704e-06 3.40746e-07 0 -3.13573e-06 1.8197e-07 0 0 4.11426e-07 0 -2.96983e-07 4.34161e-07 0 -6.26121e-07 4.97315e-07 0 -1.02081e-06 5.96364e-07 0 -1.51377e-06 7.1287e-07 0 -2.12258e-06 7.95821e-07 0 -2.80328e-06 7.38898e-07 0 -3.37582e-06 4.23861e-07 0 0 5.93961e-07 0 -2.61925e-07 6.28272e-07 0 -5.5624e-07 7.25059e-07 0 -9.20704e-07 8.83237e-07 0 -1.40585e-06 1.08696e-06 0 -2.07148e-06 1.2726e-06 0 -2.93815e-06 1.26936e-06 0 -3.80207e-06 7.96509e-07 0 0 7.48895e-07 0 -2.13177e-07 7.9411e-07 0 -4.56018e-07 9.2444e-07 0 -7.69197e-07 1.14744e-06 0 -1.21668e-06 1.4636e-06 0 -1.92196e-06 1.83254e-06 0 -3.05634e-06 2.02899e-06 0 -4.45139e-06 1.46766e-06 0 0 8.67551e-07 0 -1.51371e-07 9.22097e-07 0 -3.27752e-07 1.08205e-06 0 -5.58941e-07 1.36737e-06 0 -9.23773e-07 1.81197e-06 0 -1.57726e-06 2.44392e-06 0 -2.98864e-06 3.17511e-06 0 -5.54174e-06 2.77041e-06 0 0 9.4229e-07 0 -8.17474e-08 1.0041e-06 0 -1.6931e-07 1.18432e-06 0 -3.09417e-07 1.5139e-06 0 -4.92076e-07 2.08139e-06 0 -9.50092e-07 2.9451e-06 0 -2.33126e-06 4.80261e-06 0 -7.08791e-06 5.90365e-06 0 0 9.73481e-07 0 3.80829e-09 1.03016e-06 0 -2.62261e-08 1.22084e-06 0 3.73234e-08 1.58424e-06 0 -8.42371e-08 2.09366e-06 0 1.91385e-08 3.50493e-06 0 5.49677e-07 4.47719e-06 0 -1.34695e-05 2.01968e-05 0 </DataArray> 
</PointData> 
<Points> 
<DataArray type="Float32" NumberOfComponents="3"> 
0 0 0 0.428571 0 0 0.857143 0 0 1.28571 0 0 1.71429 0 0 2.14286 0 0 2.57143 0 0 3 0 0 0 0.285714 0 0.428571 0.285714 0 0.857143 0.285714 0 1.28571 0.285714 0 1.71429 0.285714 0 2.14286 0.285714 0 2.57143 0.285714 0 3 0.285714 0 0 0.571429 0 0.428571 0.571429 0 0.857143 0.571429 0 1.28571 0.571429 0 1.71429 0.571429 0 2.14286 0.571429 0 2.57143 0.571429 0 3 0.571429 0 0 0.857143 0 0.428571 0.857143 0 0.857143 0.857143 0 1.28571 0.857143 0 1.71429 0.857143 0 2.14286 0.857143 0 2.57143 0.857143 0 3 0.857143 0 0 1.14286 0 0.428571 1.14286 0 0.857143 1.14286 0 1.28571 1.14286 0 1.71429 1.14286 0 2.14286 1.14286 0 2.57143 1.14286 0 3 1.14286 0 0 1.42857 0 0.428571 1.42857 0 0.857143 1.42857 0 1.28571 1.42857 0 1.71429 1.42857 0 2.14286 1.42857 0 2.57143 1.42857 0 3 1.42857 0 0 1.71429 0 0.428571 1.71429 0 0.857143 1.71429 0 1.28571 1.71429 0 1.71429 1.71429 0 2.14286 1.71429 0 2.57143 1.71429 0 3 1.71429 0 0 2 0 0.428571 2 0 0.857143 2 0 1.28571 2 0 1.71429 2 0 2.14286 2 0 2.57143 2 0 3 2 0 
</DataArray>
</Points> 
</Piece> 
</StructuredGrid> 
</VTKFile> 
