<?xml version="1.0"?> 
<VTKFile type="StructuredGrid" version="0.1"> 
<StructuredGrid WholeExtent="0 127 0 127 0 0"> 
<Piece Extent="0 127 0 127 0 0"> 
<PointData>
<DataArray type="Float32" Name="u" format="ascii" NumberOfComponents="1"> 
-60000 -60000 -60000 -60000 -60000 -60000 -60000 -60000 -60000 -60000 -60000 -60000 -60000 -60000 -60000 -60000 -60000 -60000 -60000 -60000 -60000 -60000 -60000 -60000 -60000 -60000 -60000 -60000 -60000 -60000 -60000 -60000 -60000 -60000 -60000 -60000 -60000 -60000 -60000 -60000 -60000 -60000 -60000 -60000 -60000 -60000 -60000 -60000 -60000 -60000 -60000 -60000 -60000 -60000 -60000 -60000 -60000 -60000 -60000 -60000 -60000 -60000 -60000 -60000 -60000 -60000 -60000 -60000 -60000 -60000 -60000 -60000 -60000 -60000 -60000 -60000 -60000 -60000 -60000 -60000 -60000 -60000 -60000 -60000 -60000 -60000 -60000 -60000 -60000 -60000 -60000 -60000 -60000 -60000 -60000 -60000 -60000 -60000 -60000 -60000 -60000 -60000 -60000 -60000 -60000 -60000 -60000 -60000 -60000 -60000 -60000 -60000 -60000 -60000 -60000 -60000 -60000 -60000 -60000 -60000 -60000 -60000 -60000 -60000 -60000 -60000 -60000 -60000 -59213.7 -59204.3 -59195 -59185.9 -59176.9 -59167.9 -59159.1 -59150.3 -59141.6 -59133 -59124.3 -59115.8 -59107.2 -59098.6 -59090.1 -59081.6 -59073.1 -59064.6 -59056.1 -59047.5 -59039 -59030.5 -59022 -59013.4 -59004.9 -58996.3 -58987.7 -58979.1 -58970.5 -58961.9 -58953.2 -58944.6 -58935.9 -58927.2 -58918.5 -58909.7 -58901 -58892.2 -58883.4 -58874.6 -58865.8 -58857 -58848.1 -58839.3 -58830.4 -58821.5 -58812.6 -58803.7 -58794.8 -58785.9 -58777 -58768 -58759.1 -58750.2 -58741.3 -58732.4 -58723.5 -58714.5 -58705.7 -58696.8 -58687.9 -58679 -58670.2 -58661.4 -58652.6 -58643.8 -58635.1 -58626.4 -58617.7 -58609 -58600.4 -58591.9 -58583.3 -58574.8 -58566.4 -58558 -58549.7 -58541.4 -58533.2 -58525 -58516.9 -58508.8 -58500.9 -58492.9 -58485.1 -58477.3 -58469.7 -58462.1 -58454.5 -58447.1 -58439.7 -58432.5 -58425.3 -58418.2 -58411.3 -58404.4 -58397.6 -58390.9 -58384.4 -58377.9 -58371.6 -58365.3 -58359.2 -58353.2 -58347.3 -58341.6 -58335.9 -58330.4 -58325 -58319.8 -58314.6 -58309.6 -58304.8 -58300 -58295.4 -58291 -58286.6 -58282.5 -58278.4 -58274.5 -58270.8 -58267.2 -58263.7 -58260.4 -58257.2 -58254.2 -58251.3 -58248.6 -58422.6 -58405.8 -58389 -58372.4 -58355.9 -58339.5 -58323.1 -58306.9 -58290.6 -58274.4 -58258.3 -58242.2 -58226.1 -58210 -58193.9 -58177.8 -58161.7 -58145.7 -58129.6 -58113.5 -58097.4 -58081.2 -58065.1 -58048.9 -58032.7 -58016.5 -58000.2 -57983.9 -57967.6 -57951.3 -57934.9 -57918.5 -57902.1 -57885.6 -57869.1 -57852.6 -57836.1 -57819.5 -57802.9 -57786.3 -57769.6 -57752.9 -57736.2 -57719.5 -57702.8 -57686.1 -57669.3 -57652.6 -57635.8 -57619 -57602.3 -57585.5 -57568.7 -57552 -57535.2 -57518.5 -57501.8 -57485.1 -57468.4 -57451.8 -57435.2 -57418.6 -57402.1 -57385.6 -57369.2 -57352.8 -57336.5 -57320.2 -57304 -57287.9 -57271.9 -57255.9 -57240 -57224.2 -57208.5 -57192.9 -57177.4 -57162 -57146.7 -57131.5 -57116.5 -57101.5 -57086.7 -57072.1 -57057.5 -57043.1 -57028.9 -57014.8 -57000.9 -56987.1 -56973.5 -56960 -56946.8 -56933.7 -56920.8 -56908.1 -56895.5 -56883.2 -56871 -56859.1 -56847.3 -56835.8 -56824.5 -56813.4 -56802.5 -56791.8 -56781.4 -56771.2 -56761.2 -56751.4 -56741.9 -56732.6 -56723.6 -56714.8 -56706.2 -56698 -56689.9 -56682.1 -56674.6 -56667.3 -56660.3 -56653.5 -56647 -56640.8 -56634.8 -56629.1 -56623.6 -56618.5 -57634 -57610.7 -57587.5 -57564.4 -57541.4 -57518.4 -57495.5 -57472.6 -57449.7 -57426.9 -57404.1 -57381.3 -57358.5 -57335.7 -57312.9 -57290 -57267.2 -57244.4 -57221.5 -57198.6 -57175.6 -57152.7 -57129.7 -57106.7 -57083.6 -57060.5 -57037.4 -57014.2 -56991 -56967.7 -56944.4 -56921.1 -56897.7 -56874.3 -56850.8 -56827.3 -56803.8 -56780.2 -56756.7 -56733 -56709.4 -56685.7 -56662.1 -56638.3 -56614.6 -56590.9 -56567.2 -56543.4 -56519.7 -56495.9 -56472.2 -56448.5 -56424.8 -56401.1 -56377.4 -56353.8 -56330.2 -56306.6 -56283.1 -56259.7 -56236.2 -56212.9 -56189.6 -56166.4 -56143.3 -56120.2 -56097.3 -56074.4 -56051.6 -56029 -56006.4 -55984 -55961.7 -55939.5 -55917.5 -55895.6 -55873.9 -55852.3 -55830.9 -55809.6 -55788.5 -55767.6 -55746.9 -55726.4 -55706 -55685.9 -55666 -55646.3 -55626.8 -55607.5 -55588.5 -55569.7 -55551.2 -55532.9 -55514.8 -55497.1 -55479.5 -55462.3 -55445.3 -55428.6 -55412.2 -55396.1 -55380.3 -55364.7 -55349.5 -55334.6 -55319.9 -55305.6 -55291.6 -55278 -55264.6 -55251.6 -55238.9 -55226.6 -55214.6 -55202.9 -55191.6 -55180.6 -55169.9 -55159.7 -55149.7 -55140.1 -55130.9 -55122 -55113.5 -55105.4 -55097.6 -55090.2 -56851.9 -56822.9 -56794 -56765.1 -56736.2 -56707.4 -56678.5 -56649.7 -56620.9 -56592.2 -56563.4 -56534.5 -56505.7 -56476.9 -56448 -56419.1 -56390.2 -56361.2 -56332.3 -56303.2 -56274.1 -56245 -56215.9 -56186.6 -56157.4 -56128.1 -56098.7 -56069.3 -56039.9 -56010.4 -55980.8 -55951.2 -55921.6 -55891.9 -55862.2 -55832.4 -55802.6 -55772.8 -55742.9 -55713 -55683.1 -55653.1 -55623.2 -55593.2 -55563.2 -55533.2 -55503.2 -55473.3 -55443.3 -55413.3 -55383.3 -55353.4 -55323.5 -55293.7 -55263.8 -55234.1 -55204.3 -55174.7 -55145.1 -55115.6 -55086.1 -55056.8 -55027.5 -54998.3 -54969.3 -54940.3 -54911.5 -54882.8 -54854.2 -54825.8 -54797.5 -54769.4 -54741.4 -54713.6 -54686 -54658.6 -54631.4 -54604.3 -54577.5 -54550.9 -54524.5 -54498.4 -54472.5 -54446.8 -54421.4 -54396.2 -54371.3 -54346.7 -54322.3 -54298.2 -54274.5 -54251 -54227.8 -54204.9 -54182.4 -54160.2 -54138.3 -54116.7 -54095.5 -54074.6 -54054.1 -54033.9 -54014.1 -53994.7 -53975.6 -53956.9 -53938.6 -53920.7 -53903.2 -53886 -53869.3 -53852.9 -53837 -53821.5 -53806.4 -53791.6 -53777.4 -53763.5 -53750.1 -53737.1 -53724.5 -53712.3 -53700.6 -53689.3 -53678.5 -53668 -53658.1 -53648.5 -56078.8 -56044.6 -56010.5 -55976.3 -55942.2 -55908 -55873.9 -55839.7 -55805.5 -55771.3 -55737.1 -55702.9 -55668.6 -55634.3 -55599.9 -55565.5 -55531.1 -55496.6 -55462 -55427.4 -55392.7 -55358 -55323.3 -55288.4 -55253.6 -55218.6 -55183.6 -55148.6 -55113.5 -55078.3 -55043.1 -55007.8 -54972.5 -54937.2 -54901.8 -54866.3 -54830.8 -54795.3 -54759.8 -54724.2 -54688.6 -54653 -54617.4 -54581.8 -54546.1 -54510.5 -54474.9 -54439.2 -54403.7 -54368.1 -54332.5 -54297 -54261.6 -54226.2 -54190.8 -54155.6 -54120.4 -54085.2 -54050.2 -54015.2 -53980.4 -53945.7 -53911 -53876.5 -53842.2 -53808 -53773.9 -53740 -53706.3 -53672.7 -53639.3 -53606.1 -53573.1 -53540.3 -53507.8 -53475.4 -53443.3 -53411.5 -53379.8 -53348.5 -53317.4 -53286.6 -53256 -53225.8 -53195.8 -53166.2 -53136.9 -53107.9 -53079.2 -53050.8 -53022.8 -52995.2 -52967.9 -52941 -52914.4 -52888.2 -52862.4 -52837 -52812 -52787.4 -52763.2 -52739.4 -52716.1 -52693.2 -52670.7 -52648.6 -52627 -52605.8 -52585.1 -52564.8 -52545 -52525.6 -52506.7 -52488.3 -52470.4 -52452.9 -52435.9 -52419.4 -52403.4 -52387.9 -52372.9 -52358.4 -52344.3 -52330.8 -52317.7 -52305.2 -52293.2 -52281.6 -55316.1 -55277.2 -55238.2 -55199.3 -55160.3 -55121.3 -55082.3 -55043.2 -55004.2 -54965 -54925.9 -54886.6 -54847.4 -54808 -54768.7 -54729.2 -54689.7 -54650.2 -54610.5 -54570.8 -54531.1 -54491.3 -54451.4 -54411.4 -54371.4 -54331.4 -54291.2 -54251 -54210.8 -54170.4 -54130.1 -54089.6 -54049.2 -54008.7 -53968.1 -53927.5 -53886.8 -53846.2 -53805.5 -53764.7 -53724 -53683.3 -53642.5 -53601.7 -53561 -53520.2 -53479.5 -53438.8 -53398.1 -53357.5 -53316.9 -53276.4 -53235.9 -53195.5 -53155.2 -53114.9 -53074.7 -53034.7 -52994.7 -52954.9 -52915.2 -52875.6 -52836.2 -52796.9 -52757.8 -52718.8 -52680.1 -52641.5 -52603.1 -52564.9 -52526.9 -52489.2 -52451.7 -52414.4 -52377.4 -52340.6 -52304.2 -52267.9 -52232 -52196.4 -52161.1 -52126.1 -52091.4 -52057 -52023 -51989.4 -51956.1 -51923.1 -51890.6 -51858.4 -51826.6 -51795.2 -51764.2 -51733.6 -51703.4 -51673.7 -51644.4 -51615.5 -51587.1 -51559.1 -51531.6 -51504.5 -51478 -51451.9 -51426.2 -51401.1 -51376.5 -51352.3 -51328.7 -51305.5 -51282.9 -51260.8 -51239.2 -51218.2 -51197.6 -51177.6 -51158.1 -51139.2 -51120.8 -51103 -51085.6 -51068.9 -51052.7 -51037 -51021.9 -51007.3 -50993.3 -50979.9 -54564.6 -54521.3 -54477.9 -54434.6 -54391.2 -54347.7 -54304.2 -54260.7 -54217.1 -54173.4 -54129.7 -54085.9 -54042 -53998.1 -53954.1 -53910.1 -53865.9 -53821.7 -53777.4 -53733.1 -53688.7 -53644.2 -53599.6 -53555 -53510.2 -53465.5 -53420.6 -53375.7 -53330.7 -53285.7 -53240.6 -53195.4 -53150.2 -53105 -53059.7 -53014.4 -52969 -52923.6 -52878.2 -52832.8 -52787.4 -52741.9 -52696.5 -52651.1 -52605.6 -52560.2 -52514.9 -52469.5 -52424.2 -52379 -52333.8 -52288.7 -52243.7 -52198.7 -52153.8 -52109.1 -52064.4 -52019.9 -51975.5 -51931.2 -51887.1 -51843.2 -51799.4 -51755.7 -51712.3 -51669.1 -51626 -51583.2 -51540.6 -51498.2 -51456.1 -51414.3 -51372.7 -51331.3 -51290.3 -51249.5 -51209.1 -51169 -51129.1 -51089.7 -51050.5 -51011.7 -50973.3 -50935.2 -50897.5 -50860.2 -50823.3 -50786.8 -50750.7 -50715 -50679.8 -50645 -50610.6 -50576.7 -50543.3 -50510.3 -50477.8 -50445.7 -50414.2 -50383.1 -50352.6 -50322.5 -50293 -50264 -50235.5 -50207.6 -50180.2 -50153.3 -50127 -50101.2 -50076 -50051.3 -50027.2 -50003.7 -49980.7 -49958.3 -49936.5 -49915.3 -49894.6 -49874.6 -49855.1 -49836.2 -49818 -49800.3 -49783.2 -49766.7 -49750.8 -49735.5 -53824.7 -53777.3 -53729.9 -53682.5 -53635 -53587.4 -53539.8 -53492 -53444.3 -53396.4 -53348.5 -53300.5 -53252.4 -53204.2 -53156 -53107.7 -53059.3 -53010.8 -52962.2 -52913.6 -52864.8 -52816 -52767.1 -52718.2 -52669.1 -52620 -52570.8 -52521.6 -52472.3 -52422.9 -52373.4 -52324 -52274.4 -52224.8 -52175.2 -52125.6 -52075.9 -52026.2 -51976.5 -51926.7 -51877 -51827.2 -51777.5 -51727.8 -51678.1 -51628.4 -51578.8 -51529.3 -51479.7 -51430.3 -51380.9 -51331.6 -51282.4 -51233.3 -51184.3 -51135.4 -51086.7 -51038.1 -50989.6 -50941.3 -50893.1 -50845.2 -50797.4 -50749.8 -50702.5 -50655.3 -50608.4 -50561.7 -50515.3 -50469.1 -50423.2 -50377.6 -50332.3 -50287.2 -50242.5 -50198.1 -50154.1 -50110.3 -50067 -50024 -49981.3 -49939.1 -49897.2 -49855.8 -49814.7 -49774.1 -49733.9 -49694.1 -49654.8 -49615.9 -49577.5 -49539.6 -49502.1 -49465.2 -49428.7 -49392.7 -49357.3 -49322.3 -49287.9 -49254 -49220.7 -49187.9 -49155.6 -49123.9 -49092.8 -49062.2 -49032.2 -49002.8 -48974 -48945.7 -48918.1 -48891 -48864.6 -48838.7 -48813.5 -48788.9 -48764.9 -48741.5 -48718.7 -48696.6 -48675 -48654.2 -48633.9 -48614.3 -48595.3 -48576.9 -48559.2 -48542.1 -53096.5 -53045.4 -52994.3 -52943 -52891.7 -52840.3 -52788.8 -52737.2 -52685.6 -52633.8 -52582 -52530.1 -52478.1 -52426 -52373.8 -52321.5 -52269.2 -52216.7 -52164.2 -52111.6 -52058.9 -52006.1 -51953.2 -51900.2 -51847.2 -51794.1 -51740.9 -51687.6 -51634.3 -51580.9 -51527.5 -51474 -51420.5 -51366.9 -51313.3 -51259.6 -51206 -51152.3 -51098.6 -51044.9 -50991.2 -50937.5 -50883.8 -50830.2 -50776.6 -50723 -50669.5 -50616 -50562.6 -50509.3 -50456 -50402.9 -50349.9 -50297 -50244.2 -50191.5 -50139 -50086.6 -50034.4 -49982.4 -49930.6 -49879 -49827.5 -49776.3 -49725.4 -49674.6 -49624.1 -49573.9 -49524 -49474.3 -49424.9 -49375.9 -49327.1 -49278.7 -49230.6 -49182.9 -49135.5 -49088.5 -49041.9 -48995.6 -48949.8 -48904.4 -48859.4 -48814.8 -48770.6 -48726.9 -48683.7 -48640.9 -48598.6 -48556.8 -48515.5 -48474.7 -48434.4 -48394.6 -48355.3 -48316.6 -48278.4 -48240.8 -48203.7 -48167.2 -48131.2 -48095.8 -48061.1 -48026.9 -47993.2 -47960.2 -47927.8 -47896 -47864.8 -47834.3 -47804.4 -47775 -47746.4 -47718.3 -47690.9 -47664.2 -47638.1 -47612.6 -47587.8 -47563.7 -47540.2 -47517.4 -47495.2 -47473.7 -47452.9 -47432.8 -47413.3 -47394.4 -52380.1 -52325.5 -52270.8 -52216 -52161.1 -52106.1 -52051.1 -51995.9 -51940.6 -51885.3 -51829.8 -51774.3 -51718.6 -51662.9 -51607.1 -51551.1 -51495.1 -51439 -51382.7 -51326.4 -51270 -51213.5 -51157 -51100.3 -51043.5 -50986.7 -50929.8 -50872.9 -50815.9 -50758.8 -50701.6 -50644.4 -50587.2 -50529.9 -50472.6 -50415.3 -50357.9 -50300.6 -50243.2 -50185.8 -50128.5 -50071.1 -50013.8 -49956.5 -49899.3 -49842.1 -49785 -49727.9 -49671 -49614.1 -49557.3 -49500.6 -49444.1 -49387.6 -49331.3 -49275.2 -49219.2 -49163.4 -49107.8 -49052.4 -48997.1 -48942.1 -48887.3 -48832.8 -48778.5 -48724.4 -48670.7 -48617.2 -48564 -48511.1 -48458.6 -48406.3 -48354.4 -48302.9 -48251.7 -48200.9 -48150.4 -48100.4 -48050.7 -48001.5 -47952.7 -47904.3 -47856.4 -47808.9 -47761.9 -47715.4 -47669.3 -47623.8 -47578.7 -47534.2 -47490.2 -47446.7 -47403.7 -47361.3 -47319.4 -47278.1 -47237.4 -47197.2 -47157.7 -47118.7 -47080.3 -47042.5 -47005.3 -46968.8 -46932.8 -46897.5 -46862.8 -46828.8 -46795.4 -46762.6 -46730.5 -46699.1 -46668.3 -46638.2 -46608.7 -46580 -46551.9 -46524.4 -46497.7 -46471.6 -46446.3 -46421.6 -46397.6 -46374.3 -46351.7 -46329.7 -46308.5 -46288 -51675.2 -51617.3 -51559.3 -51501.2 -51443 -51384.7 -51326.3 -51267.7 -51209.1 -51150.4 -51091.6 -51032.6 -50973.6 -50914.4 -50855.2 -50795.8 -50736.4 -50676.8 -50617.2 -50557.4 -50497.6 -50437.7 -50377.6 -50317.5 -50257.4 -50197.1 -50136.8 -50076.4 -50015.9 -49955.4 -49894.8 -49834.2 -49773.5 -49712.8 -49652.1 -49591.3 -49530.5 -49469.8 -49409 -49348.2 -49287.5 -49226.8 -49166.1 -49105.4 -49044.8 -48984.3 -48923.8 -48863.5 -48803.2 -48743 -48682.9 -48623 -48563.1 -48503.5 -48443.9 -48384.6 -48325.4 -48266.4 -48207.6 -48149 -48090.6 -48032.5 -47974.6 -47916.9 -47859.6 -47802.5 -47745.7 -47689.2 -47633 -47577.1 -47521.6 -47466.4 -47411.6 -47357.1 -47303 -47249.4 -47196.1 -47143.2 -47090.8 -47038.8 -46987.2 -46936.1 -46885.5 -46835.3 -46785.7 -46736.5 -46687.8 -46639.6 -46592 -46544.9 -46498.4 -46452.4 -46406.9 -46362 -46317.7 -46274 -46230.9 -46188.4 -46146.4 -46105.1 -46064.5 -46024.4 -45985 -45946.2 -45908 -45870.5 -45833.7 -45797.5 -45762 -45727.2 -45693 -45659.6 -45626.8 -45594.6 -45563.2 -45532.5 -45502.5 -45473.2 -45444.5 -45416.6 -45389.4 -45362.9 -45337.2 -45312.1 -45287.7 -45264.1 -45241.2 -45219 -50981.6 -50920.6 -50859.5 -50798.3 -50737 -50675.5 -50614 -50552.3 -50490.6 -50428.7 -50366.7 -50304.6 -50242.4 -50180.1 -50117.6 -50055.1 -49992.4 -49929.7 -49866.8 -49803.9 -49740.8 -49677.7 -49614.5 -49551.2 -49487.8 -49424.3 -49360.8 -49297.2 -49233.5 -49169.8 -49106 -49042.1 -48978.3 -48914.4 -48850.5 -48786.5 -48722.6 -48658.7 -48594.7 -48530.8 -48466.9 -48403 -48339.2 -48275.5 -48211.7 -48148.1 -48084.6 -48021.1 -47957.7 -47894.5 -47831.3 -47768.3 -47705.5 -47642.8 -47580.3 -47517.9 -47455.7 -47393.8 -47332 -47270.5 -47209.2 -47148.2 -47087.4 -47026.9 -46966.6 -46906.7 -46847.1 -46787.7 -46728.8 -46670.1 -46611.8 -46553.9 -46496.4 -46439.2 -46382.5 -46326.1 -46270.2 -46214.7 -46159.6 -46105 -46050.9 -45997.3 -45944.1 -45891.4 -45839.2 -45787.6 -45736.5 -45685.9 -45635.8 -45586.3 -45537.4 -45489 -45441.3 -45394.1 -45347.5 -45301.5 -45256.1 -45211.3 -45167.2 -45123.7 -45080.8 -45038.6 -44997.1 -44956.2 -44915.9 -44876.4 -44837.5 -44799.3 -44761.8 -44724.9 -44688.8 -44653.4 -44618.6 -44584.6 -44551.3 -44518.7 -44486.8 -44455.7 -44425.3 -44395.5 -44366.6 -44338.3 -44310.8 -44284 -44258 -44232.7 -44208.1 -44184.3 -50298.9 -50235 -50171 -50106.9 -50042.7 -49978.3 -49913.8 -49849.2 -49784.5 -49719.7 -49654.7 -49589.7 -49524.5 -49459.2 -49393.8 -49328.3 -49262.6 -49196.9 -49131 -49065.1 -48999.1 -48932.9 -48866.7 -48800.4 -48734 -48667.5 -48601 -48534.4 -48467.7 -48401 -48334.3 -48267.4 -48200.6 -48133.7 -48066.9 -48000 -47933.1 -47866.2 -47799.3 -47732.4 -47665.6 -47598.8 -47532.1 -47465.4 -47398.8 -47332.2 -47265.8 -47199.4 -47133.2 -47067.1 -47001.1 -46935.3 -46869.6 -46804.1 -46738.8 -46673.6 -46608.7 -46544 -46479.5 -46415.2 -46351.2 -46287.4 -46224 -46160.8 -46097.9 -46035.3 -45973 -45911.1 -45849.5 -45788.3 -45727.4 -45666.9 -45606.8 -45547.2 -45487.9 -45429 -45370.6 -45312.7 -45255.2 -45198.2 -45141.6 -45085.6 -45030 -44975 -44920.5 -44866.5 -44813.1 -44760.2 -44707.9 -44656.1 -44604.9 -44554.3 -44504.4 -44455 -44406.2 -44358.1 -44310.6 -44263.7 -44217.4 -44171.9 -44126.9 -44082.7 -44039.1 -43996.2 -43953.9 -43912.4 -43871.5 -43831.4 -43791.9 -43753.2 -43715.2 -43677.9 -43641.3 -43605.4 -43570.3 -43535.9 -43502.2 -43469.3 -43437.1 -43405.6 -43374.9 -43345 -43315.8 -43287.3 -43259.6 -43232.7 -43206.5 -43181.1 -49626.9 -49560.3 -49493.6 -49426.7 -49359.7 -49292.6 -49225.4 -49158 -49090.5 -49022.9 -48955.2 -48887.3 -48819.4 -48751.3 -48683.1 -48614.8 -48546.3 -48477.8 -48409.1 -48340.4 -48271.6 -48202.6 -48133.6 -48064.5 -47995.3 -47926 -47856.7 -47787.3 -47717.8 -47648.3 -47578.7 -47509.2 -47439.5 -47369.9 -47300.2 -47230.6 -47160.9 -47091.2 -47021.6 -46952 -46882.4 -46812.9 -46743.4 -46674 -46604.7 -46535.5 -46466.3 -46397.3 -46328.4 -46259.6 -46191 -46122.5 -46054.2 -45986.1 -45918.1 -45850.4 -45782.9 -45715.5 -45648.5 -45581.7 -45515.1 -45448.8 -45382.8 -45317.1 -45251.7 -45186.7 -45121.9 -45057.5 -44993.5 -44929.8 -44866.6 -44803.7 -44741.2 -44679.2 -44617.5 -44556.4 -44495.6 -44435.4 -44375.6 -44316.3 -44257.4 -44199.1 -44141.3 -44084.1 -44027.4 -43971.2 -43915.6 -43860.5 -43806.1 -43752.2 -43698.9 -43646.2 -43594.1 -43542.7 -43491.8 -43441.6 -43392.1 -43343.2 -43295 -43247.4 -43200.5 -43154.3 -43108.8 -43063.9 -43019.8 -42976.3 -42933.6 -42891.6 -42850.3 -42809.7 -42769.8 -42730.7 -42692.3 -42654.7 -42617.8 -42581.6 -42546.2 -42511.6 -42477.7 -42444.6 -42412.2 -42380.6 -42349.7 -42319.6 -42290.3 -42261.8 -42234 -42207 -48965.2 -48896 -48826.7 -48757.2 -48687.7 -48618 -48548.1 -48478.2 -48408.1 -48337.9 -48267.5 -48197.1 -48126.5 -48055.8 -47985 -47914 -47843 -47771.8 -47700.5 -47629.1 -47557.7 -47486.1 -47414.5 -47342.7 -47270.9 -47199 -47127 -47055 -46982.9 -46910.8 -46838.6 -46766.4 -46694.2 -46622 -46549.7 -46477.4 -46405.2 -46333 -46260.7 -46188.6 -46116.4 -46044.3 -45972.3 -45900.4 -45828.5 -45756.8 -45685.1 -45613.6 -45542.2 -45470.9 -45399.8 -45328.8 -45258 -45187.4 -45117 -45046.9 -44976.9 -44907.2 -44837.7 -44768.5 -44699.5 -44630.9 -44562.5 -44494.5 -44426.7 -44359.4 -44292.3 -44225.6 -44159.3 -44093.4 -44027.8 -43962.7 -43898 -43833.7 -43769.8 -43706.4 -43643.5 -43581.1 -43519.1 -43457.6 -43396.7 -43336.3 -43276.4 -43217 -43158.2 -43099.9 -43042.3 -42985.2 -42928.6 -42872.7 -42817.4 -42762.7 -42708.7 -42655.2 -42602.5 -42550.3 -42498.8 -42448 -42397.9 -42348.4 -42299.6 -42251.5 -42204.1 -42157.5 -42111.5 -42066.2 -42021.7 -41977.8 -41934.8 -41892.4 -41850.8 -41809.9 -41769.8 -41730.4 -41691.8 -41654 -41616.9 -41580.6 -41545 -41510.2 -41476.2 -41443 -41410.5 -41378.8 -41347.9 -41317.8 -41288.4 -41259.8 -48313.3 -48241.7 -48170 -48098.1 -48026.1 -47954 -47881.7 -47809.3 -47736.8 -47664.1 -47591.3 -47518.4 -47445.4 -47372.2 -47298.9 -47225.5 -47152 -47078.3 -47004.6 -46930.8 -46856.8 -46782.8 -46708.7 -46634.4 -46560.2 -46485.8 -46411.4 -46336.9 -46262.4 -46187.8 -46113.2 -46038.5 -45963.8 -45889.2 -45814.5 -45739.8 -45665.1 -45590.4 -45515.8 -45441.2 -45366.7 -45292.2 -45217.8 -45143.5 -45069.2 -44995.1 -44921.1 -44847.2 -44773.4 -44699.8 -44626.4 -44553.1 -44480 -44407.1 -44334.4 -44261.9 -44189.7 -44117.7 -44046 -43974.5 -43903.3 -43832.4 -43761.9 -43691.6 -43621.7 -43552.1 -43482.9 -43414 -43345.5 -43277.4 -43209.8 -43142.5 -43075.7 -43009.3 -42943.3 -42877.9 -42812.9 -42748.4 -42684.4 -42620.9 -42557.9 -42495.4 -42433.5 -42372.2 -42311.4 -42251.2 -42191.5 -42132.5 -42074 -42016.2 -41959 -41902.4 -41846.4 -41791.1 -41736.4 -41682.4 -41629.1 -41576.4 -41524.5 -41473.2 -41422.6 -41372.7 -41323.5 -41275.1 -41227.3 -41180.3 -41134 -41088.4 -41043.6 -40999.6 -40956.3 -40913.7 -40871.9 -40830.9 -40790.6 -40751.1 -40712.3 -40674.4 -40637.2 -40600.8 -40565.2 -40530.4 -40496.3 -40463 -40430.6 -40398.9 -40368 -40337.9 -47671.1 -47597.2 -47523.2 -47449 -47374.7 -47300.3 -47225.7 -47151 -47076.2 -47001.2 -46926.1 -46850.8 -46775.5 -46700 -46624.4 -46548.7 -46472.8 -46396.9 -46320.8 -46244.6 -46168.4 -46092 -46015.6 -45939.1 -45862.5 -45785.8 -45709.1 -45632.3 -45555.4 -45478.5 -45401.6 -45324.7 -45247.7 -45170.7 -45093.7 -45016.8 -44939.8 -44862.9 -44786 -44709.1 -44632.3 -44555.6 -44479 -44402.4 -44325.9 -44249.6 -44173.3 -44097.2 -44021.3 -43945.5 -43869.8 -43794.4 -43719.1 -43644 -43569.2 -43494.6 -43420.2 -43346.1 -43272.2 -43198.6 -43125.3 -43052.3 -42979.7 -42907.3 -42835.3 -42763.7 -42692.4 -42621.5 -42551 -42480.9 -42411.2 -42341.9 -42273.1 -42204.7 -42136.8 -42069.4 -42002.4 -41935.9 -41870 -41804.6 -41739.7 -41675.3 -41611.5 -41548.2 -41485.6 -41423.5 -41362 -41301.1 -41240.8 -41181.1 -41122 -41063.6 -41005.9 -40948.7 -40892.3 -40836.5 -40781.4 -40727 -40673.2 -40620.2 -40567.9 -40516.3 -40465.4 -40415.2 -40365.7 -40317 -40269 -40221.8 -40175.3 -40129.6 -40084.6 -40040.4 -39997 -39954.3 -39912.5 -39871.3 -39831 -39791.5 -39752.7 -39714.7 -39677.5 -39641.1 -39605.5 -39570.7 -39536.7 -39503.5 -39471.1 -39439.5 -47038 -46962 -46885.8 -46809.5 -46733 -46656.4 -46579.7 -46502.8 -46425.8 -46348.6 -46271.3 -46193.9 -46116.4 -46038.7 -45960.9 -45883 -45805 -45726.8 -45648.6 -45570.3 -45491.8 -45413.3 -45334.7 -45256 -45177.2 -45098.3 -45019.4 -44940.5 -44861.5 -44782.4 -44703.3 -44624.2 -44545.1 -44466 -44386.8 -44307.7 -44228.6 -44149.6 -44070.5 -43991.6 -43912.6 -43833.8 -43755 -43676.4 -43597.8 -43519.3 -43441 -43362.8 -43284.8 -43206.9 -43129.2 -43051.7 -42974.4 -42897.3 -42820.4 -42743.8 -42667.4 -42591.2 -42515.4 -42439.8 -42364.5 -42289.6 -42214.9 -42140.6 -42066.7 -41993.1 -41919.9 -41847 -41774.6 -41702.6 -41631 -41559.8 -41489.1 -41418.8 -41349 -41279.7 -41210.9 -41142.6 -41074.8 -41007.5 -40940.8 -40874.6 -40809 -40744 -40679.5 -40615.6 -40552.3 -40489.7 -40427.6 -40366.2 -40305.4 -40245.2 -40185.7 -40126.9 -40068.7 -40011.2 -39954.4 -39898.3 -39842.9 -39788.1 -39734.1 -39680.9 -39628.3 -39576.5 -39525.4 -39475 -39425.4 -39376.6 -39328.5 -39281.1 -39234.6 -39188.8 -39143.8 -39099.5 -39056 -39013.4 -38971.5 -38930.4 -38890 -38850.5 -38811.8 -38773.9 -38736.8 -38700.4 -38664.9 -38630.2 -38596.3 -38563.2 -46413.8 -46335.7 -46257.5 -46179.1 -46100.6 -46022 -45943.2 -45864.3 -45785.2 -45706 -45626.7 -45547.2 -45467.6 -45387.9 -45308 -45228.1 -45148 -45067.8 -44987.5 -44907.1 -44826.6 -44746 -44665.3 -44584.6 -44503.8 -44422.9 -44341.9 -44260.9 -44179.9 -44098.8 -44017.7 -43936.5 -43855.4 -43774.2 -43693.1 -43611.9 -43530.8 -43449.8 -43368.7 -43287.8 -43206.9 -43126 -43045.3 -42964.6 -42884.1 -42803.7 -42723.4 -42643.2 -42563.2 -42483.4 -42403.8 -42324.3 -42245.1 -42166.1 -42087.3 -42008.7 -41930.4 -41852.4 -41774.7 -41697.2 -41620 -41543.2 -41466.7 -41390.6 -41314.7 -41239.3 -41164.3 -41089.6 -41015.3 -40941.5 -40868.1 -40795.1 -40722.6 -40650.6 -40579 -40507.9 -40437.4 -40367.3 -40297.7 -40228.7 -40160.3 -40092.4 -40025 -39958.2 -39892.1 -39826.5 -39761.5 -39697.1 -39633.4 -39570.3 -39507.8 -39446 -39384.8 -39324.3 -39264.5 -39205.4 -39146.9 -39089.2 -39032.1 -38975.8 -38920.2 -38865.3 -38811.1 -38757.7 -38705 -38653.1 -38601.9 -38551.5 -38501.8 -38452.9 -38404.8 -38357.4 -38310.9 -38265.1 -38220.1 -38175.9 -38132.4 -38089.8 -38048 -38007 -37966.7 -37927.3 -37888.7 -37850.9 -37813.9 -37777.7 -37742.4 -37707.8 -45798.1 -45718.1 -45638 -45557.7 -45477.2 -45396.7 -45315.9 -45235.1 -45154.1 -45073 -44991.7 -44910.3 -44828.7 -44747.1 -44665.3 -44583.4 -44501.4 -44419.2 -44337 -44254.7 -44172.3 -44089.7 -44007.1 -43924.4 -43841.7 -43758.9 -43676 -43593.1 -43510.1 -43427.1 -43344.1 -43261 -43178 -43094.9 -43011.9 -42928.8 -42845.8 -42762.9 -42680 -42597.1 -42514.3 -42431.6 -42349 -42266.5 -42184.1 -42101.8 -42019.7 -41937.7 -41855.9 -41774.2 -41692.7 -41611.5 -41530.4 -41449.6 -41369 -41288.6 -41208.5 -41128.7 -41049.2 -40969.9 -40891 -40812.4 -40734.2 -40656.3 -40578.7 -40501.5 -40424.7 -40348.3 -40272.4 -40196.8 -40121.7 -40047 -39972.8 -39899.1 -39825.8 -39753 -39680.8 -39609 -39537.8 -39467.2 -39397 -39327.5 -39258.5 -39190.1 -39122.3 -39055 -38988.4 -38922.5 -38857.1 -38792.4 -38728.3 -38664.9 -38602.1 -38540 -38478.6 -38417.9 -38357.9 -38298.6 -38240 -38182.1 -38124.9 -38068.5 -38012.7 -37957.8 -37903.6 -37850.1 -37797.4 -37745.4 -37694.2 -37643.8 -37594.2 -37545.3 -37497.2 -37449.9 -37403.4 -37357.7 -37312.8 -37268.7 -37225.4 -37182.9 -37141.2 -37100.3 -37060.2 -37021 -36982.5 -36944.9 -36908 -36872 -45190.6 -45108.8 -45026.8 -44944.7 -44862.5 -44780.1 -44697.5 -44614.8 -44532 -44449.1 -44366 -44282.7 -44199.4 -44115.9 -44032.3 -43948.6 -43864.7 -43780.8 -43696.7 -43612.6 -43528.3 -43444 -43359.5 -43275 -43190.5 -43105.8 -43021.2 -42936.4 -42851.7 -42766.8 -42682 -42597.2 -42512.3 -42427.5 -42342.6 -42257.8 -42173 -42088.3 -42003.6 -41919 -41834.4 -41749.9 -41665.6 -41581.3 -41497.1 -41413.1 -41329.3 -41245.5 -41162 -41078.6 -40995.4 -40912.4 -40829.6 -40747.1 -40664.8 -40582.7 -40500.9 -40419.4 -40338.2 -40257.3 -40176.7 -40096.4 -40016.5 -39936.9 -39857.7 -39778.9 -39700.5 -39622.4 -39544.8 -39467.6 -39390.9 -39314.6 -39238.8 -39163.4 -39088.5 -39014.2 -38940.3 -38867 -38794.2 -38721.9 -38650.2 -38579.1 -38508.5 -38438.6 -38369.2 -38300.4 -38232.2 -38164.7 -38097.8 -38031.5 -37965.9 -37901 -37836.7 -37773.1 -37710.1 -37647.9 -37586.4 -37525.5 -37465.4 -37406 -37347.3 -37289.4 -37232.2 -37175.7 -37120 -37065 -37010.8 -36957.4 -36904.7 -36852.8 -36801.7 -36751.4 -36701.8 -36653.1 -36605.1 -36557.9 -36511.6 -36466 -36421.2 -36377.3 -36334.1 -36291.8 -36250.3 -36209.6 -36169.7 -36130.6 -36092.4 -36054.9 -44590.9 -44507.4 -44423.7 -44339.9 -44256 -44171.9 -44087.6 -44003.2 -43918.7 -43834 -43749.2 -43664.2 -43579.1 -43493.9 -43408.6 -43323.2 -43237.6 -43151.9 -43066.2 -42980.3 -42894.3 -42808.3 -42722.1 -42635.9 -42549.7 -42463.3 -42376.9 -42290.5 -42204 -42117.5 -42031 -41944.4 -41857.9 -41771.4 -41684.8 -41598.3 -41511.9 -41425.5 -41339.1 -41252.8 -41166.6 -41080.4 -40994.4 -40908.5 -40822.7 -40737 -40651.5 -40566.1 -40480.9 -40395.9 -40311.1 -40226.5 -40142.1 -40058 -39974 -39890.4 -39807 -39723.9 -39641.1 -39558.6 -39476.4 -39394.5 -39313 -39231.9 -39151.1 -39070.7 -38990.7 -38911.1 -38832 -38753.2 -38674.9 -38597.1 -38519.7 -38442.9 -38366.5 -38290.6 -38215.2 -38140.3 -38066 -37992.3 -37919 -37846.4 -37774.3 -37702.9 -37632 -37561.7 -37492.1 -37423 -37354.6 -37286.9 -37219.8 -37153.4 -37087.6 -37022.5 -36958.1 -36894.4 -36831.4 -36769.1 -36707.5 -36646.7 -36586.5 -36527.1 -36468.5 -36410.6 -36353.4 -36297 -36241.4 -36186.5 -36132.4 -36079 -36026.5 -35974.7 -35923.7 -35873.5 -35824.1 -35775.5 -35727.8 -35680.8 -35634.6 -35589.2 -35544.6 -35500.9 -35458 -35415.8 -35374.5 -35334.1 -35294.4 -35255.6 -43998.9 -43913.7 -43828.5 -43743 -43657.4 -43571.7 -43485.8 -43399.8 -43313.7 -43227.4 -43140.9 -43054.4 -42967.7 -42880.8 -42793.9 -42706.8 -42619.7 -42532.4 -42445 -42357.5 -42269.9 -42182.2 -42094.5 -42006.7 -41918.8 -41830.9 -41742.9 -41654.8 -41566.7 -41478.6 -41390.5 -41302.4 -41214.2 -41126.1 -41038 -40949.9 -40861.9 -40773.9 -40685.9 -40598.1 -40510.3 -40422.6 -40335 -40247.5 -40160.2 -40072.9 -39985.9 -39899 -39812.2 -39725.7 -39639.3 -39553.2 -39467.2 -39381.6 -39296.1 -39210.9 -39126 -39041.4 -38957.1 -38873.1 -38789.4 -38706.1 -38623.1 -38540.4 -38458.2 -38376.3 -38294.8 -38213.8 -38133.1 -38052.9 -37973.1 -37893.8 -37815 -37736.7 -37658.8 -37581.5 -37504.6 -37428.3 -37352.6 -37277.4 -37202.7 -37128.6 -37055.1 -36982.2 -36909.9 -36838.2 -36767.1 -36696.7 -36626.9 -36557.7 -36489.2 -36421.3 -36354.2 -36287.7 -36221.8 -36156.7 -36092.3 -36028.6 -35965.6 -35903.3 -35841.8 -35781 -35720.9 -35661.6 -35603 -35545.2 -35488.2 -35431.9 -35376.4 -35321.6 -35267.7 -35214.5 -35162.1 -35110.5 -35059.7 -35009.8 -34960.6 -34912.2 -34864.6 -34817.8 -34771.9 -34726.7 -34682.4 -34638.9 -34596.2 -34554.4 -34513.3 -34473.1 -43414.1 -43327.5 -43240.6 -43153.7 -43066.6 -42979.3 -42891.9 -42804.4 -42716.7 -42628.9 -42540.9 -42452.8 -42364.6 -42276.3 -42187.8 -42099.2 -42010.5 -41921.7 -41832.8 -41743.8 -41654.7 -41565.5 -41476.2 -41386.9 -41297.5 -41208 -41118.5 -41029 -40939.4 -40849.8 -40760.2 -40670.5 -40580.9 -40491.3 -40401.7 -40312.1 -40222.6 -40133.1 -40043.7 -39954.3 -39865 -39775.9 -39686.8 -39597.8 -39509 -39420.3 -39331.8 -39243.4 -39155.2 -39067.2 -38979.4 -38891.9 -38804.5 -38717.4 -38630.5 -38543.9 -38457.5 -38371.5 -38285.7 -38200.3 -38115.2 -38030.4 -37946 -37862 -37778.3 -37695 -37612.1 -37529.7 -37447.6 -37366 -37284.9 -37204.2 -37124 -37044.2 -36965 -36886.3 -36808 -36730.4 -36653.2 -36576.6 -36500.6 -36425.1 -36350.3 -36276 -36202.3 -36129.2 -36056.8 -35984.9 -35913.8 -35843.2 -35773.3 -35704.1 -35635.6 -35567.7 -35500.5 -35434 -35368.3 -35303.2 -35238.8 -35175.2 -35112.3 -35050.1 -34988.7 -34928 -34868.1 -34808.9 -34750.5 -34692.8 -34636 -34579.9 -34524.5 -34470 -34416.3 -34363.3 -34311.1 -34259.8 -34209.2 -34159.5 -34110.5 -34062.4 -34015.1 -33968.6 -33922.9 -33878 -33833.9 -33790.7 -33748.3 -33706.7 -42836.4 -42748.3 -42660 -42571.6 -42483.1 -42394.4 -42305.6 -42216.6 -42127.5 -42038.2 -41948.8 -41859.3 -41769.6 -41679.9 -41590 -41499.9 -41409.8 -41319.6 -41229.2 -41138.8 -41048.3 -40957.6 -40867 -40776.2 -40685.4 -40594.5 -40503.6 -40412.6 -40321.6 -40230.6 -40139.5 -40048.5 -39957.5 -39866.4 -39775.4 -39684.4 -39593.5 -39502.6 -39411.8 -39321.1 -39230.4 -39139.8 -39049.4 -38959 -38868.8 -38778.8 -38688.9 -38599.1 -38509.5 -38420.2 -38331 -38242 -38153.3 -38064.8 -37976.6 -37888.6 -37800.9 -37713.5 -37626.4 -37539.7 -37453.2 -37367.1 -37281.3 -37196 -37110.9 -37026.3 -36942.1 -36858.3 -36774.9 -36692 -36609.5 -36527.5 -36446 -36364.9 -36284.3 -36204.3 -36124.8 -36045.7 -35967.3 -35889.4 -35812 -35735.3 -35659.1 -35583.5 -35508.5 -35434.1 -35360.3 -35287.2 -35214.7 -35142.8 -35071.6 -35001.1 -34931.2 -34862 -34793.5 -34725.7 -34658.6 -34592.2 -34526.6 -34461.6 -34397.4 -34333.9 -34271.1 -34209.1 -34147.9 -34087.4 -34027.6 -33968.7 -33910.5 -33853 -33796.4 -33740.5 -33685.4 -33631.1 -33577.7 -33525 -33473.1 -33422 -33371.7 -33322.2 -33273.6 -33225.7 -33178.7 -33132.4 -33087 -33042.5 -32998.7 -32955.8 -42265.4 -42175.9 -42086.4 -41996.6 -41906.7 -41816.7 -41726.5 -41636.2 -41545.7 -41455.1 -41364.3 -41273.5 -41182.5 -41091.3 -41000.1 -40908.7 -40817.2 -40725.7 -40634 -40542.2 -40450.3 -40358.4 -40266.3 -40174.2 -40082.1 -39989.9 -39897.6 -39805.3 -39713 -39620.6 -39528.3 -39435.9 -39343.5 -39251.2 -39158.8 -39066.5 -38974.3 -38882.1 -38789.9 -38697.9 -38605.9 -38514 -38422.3 -38330.6 -38239.1 -38147.8 -38056.6 -37965.5 -37874.6 -37784 -37693.5 -37603.3 -37513.3 -37423.5 -37334 -37244.7 -37155.7 -37067.1 -36978.7 -36890.6 -36802.9 -36715.5 -36628.5 -36541.9 -36455.6 -36369.7 -36284.2 -36199.1 -36114.5 -36030.3 -35946.6 -35863.3 -35780.5 -35698.2 -35616.3 -35535 -35454.2 -35374 -35294.2 -35215.1 -35136.5 -35058.4 -34981 -3