<?xml version="1.0"?> 
<VTKFile type="StructuredGrid" version="0.1"> 
<StructuredGrid WholeExtent="0 127 0 127 0 0"> 
<Piece Extent="0 127 0 127 0 0"> 
<PointData>
<DataArray type="Float32" Name="u" format="ascii" NumberOfComponents="1"> 
0 0 0 0 0 0 0 0 0 0 0 0 0 0 0 0 0 0 0 0 0 0 0 0 0 0 0 0 0 0 0 0 0 0 0 0 0 0 0 0 0 0 0 0 0 0 0 0 0 0 0 0 0 0 0 0 0 0 0 0 0 0 0 0 0 0 0 0 0 0 0 0 0 0 0 0 0 0 0 0 0 0 0 0 0 0 0 0 0 0 0 0 0 0 0 0 0 0 0 0 0 0 0 0 0 0 0 0 0 0 0 0 0 0 0 0 0 0 0 0 0 0 0 0 0 0 0 0 -463.833 -463.806 -463.78 -463.753 -463.726 -463.699 -463.672 -463.645 -463.618 -463.59 -463.563 -463.535 -463.507 -463.479 -463.451 -463.423 -463.395 -463.367 -463.338 -463.309 -463.281 -463.252 -463.223 -463.193 -463.164 -463.135 -463.105 -463.075 -463.046 -463.016 -462.985 -462.955 -462.925 -462.894 -462.864 -462.833 -462.802 -462.771 -462.74 -462.709 -462.677 -462.646 -462.614 -462.582 -462.55 -462.518 -462.486 -462.453 -462.421 -462.388 -462.355 -462.322 -462.289 -462.256 -462.222 -462.189 -462.155 -462.121 -462.087 -462.053 -462.019 -461.984 -461.95 -461.915 -461.88 -461.845 -461.81 -461.775 -461.739 -461.704 -461.668 -461.632 -461.596 -461.56 -461.524 -461.487 -461.45 -461.414 -461.377 -461.34 -461.302 -461.265 -461.227 -461.19 -461.152 -461.114 -461.075 -461.037 -460.999 -460.96 -460.921 -460.882 -460.843 -460.804 -460.764 -460.724 -460.685 -460.645 -460.605 -460.564 -460.524 -460.483 -460.442 -460.401 -460.36 -460.319 -460.278 -460.236 -460.194 -460.152 -460.11 -460.068 -460.025 -459.983 -459.94 -459.897 -459.854 -459.811 -459.767 -459.723 -459.68 -459.636 -459.591 -459.547 -459.502 -459.458 -459.413 -459.368 -927.623 -927.569 -927.516 -927.462 -927.408 -927.354 -927.299 -927.244 -927.189 -927.134 -927.078 -927.023 -926.967 -926.91 -926.854 -926.797 -926.74 -926.682 -926.625 -926.567 -926.509 -926.451 -926.392 -926.333 -926.274 -926.214 -926.155 -926.095 -926.035 -925.974 -925.913 -925.852 -925.791 -925.73 -925.668 -925.606 -925.543 -925.481 -925.418 -925.355 -925.291 -925.227 -925.163 -925.099 -925.034 -924.97 -924.904 -924.839 -924.773 -924.707 -924.641 -924.574 -924.507 -924.44 -924.373 -924.305 -924.237 -924.169 -924.1 -924.031 -923.962 -923.893 -923.823 -923.753 -923.682 -923.612 -923.541 -923.469 -923.398 -923.326 -923.254 -923.181 -923.108 -923.035 -922.962 -922.888 -922.814 -922.74 -922.665 -922.59 -922.515 -922.439 -922.363 -922.287 -922.211 -922.134 -922.057 -921.979 -921.901 -921.823 -921.745 -921.666 -921.587 -921.507 -921.428 -921.348 -921.267 -921.186 -921.105 -921.024 -920.942 -920.86 -920.778 -920.695 -920.612 -920.529 -920.445 -920.361 -920.276 -920.191 -920.106 -920.021 -919.935 -919.849 -919.763 -919.676 -919.589 -919.501 -919.413 -919.325 -919.236 -919.147 -919.058 -918.968 -918.879 -918.788 -918.697 -918.606 -1391.38 -1391.3 -1391.22 -1391.14 -1391.06 -1390.97 -1390.89 -1390.81 -1390.72 -1390.64 -1390.56 -1390.47 -1390.39 -1390.3 -1390.22 -1390.13 -1390.04 -1389.96 -1389.87 -1389.78 -1389.7 -1389.61 -1389.52 -1389.43 -1389.34 -1389.25 -1389.16 -1389.07 -1388.98 -1388.89 -1388.79 -1388.7 -1388.61 -1388.52 -1388.42 -1388.33 -1388.23 -1388.14 -1388.04 -1387.95 -1387.85 -1387.76 -1387.66 -1387.56 -1387.46 -1387.37 -1387.27 -1387.17 -1387.07 -1386.97 -1386.87 -1386.77 -1386.67 -1386.57 -1386.46 -1386.36 -1386.26 -1386.15 -1386.05 -1385.95 -1385.84 -1385.74 -1385.63 -1385.52 -1385.42 -1385.31 -1385.2 -1385.1 -1384.99 -1384.88 -1384.77 -1384.66 -1384.55 -1384.44 -1384.33 -1384.22 -1384.1 -1383.99 -1383.88 -1383.76 -1383.65 -1383.54 -1383.42 -1383.31 -1383.19 -1383.07 -1382.96 -1382.84 -1382.72 -1382.6 -1382.48 -1382.36 -1382.24 -1382.12 -1382 -1381.88 -1381.76 -1381.64 -1381.52 -1381.39 -1381.27 -1381.14 -1381.02 -1380.89 -1380.77 -1380.64 -1380.51 -1380.39 -1380.26 -1380.13 -1380 -1379.87 -1379.74 -1379.61 -1379.48 -1379.35 -1379.22 -1379.08 -1378.95 -1378.82 -1378.68 -1378.55 -1378.41 -1378.28 -1378.14 -1378 -1377.87 -1377.73 -1855.11 -1855.01 -1854.9 -1854.79 -1854.68 -1854.57 -1854.46 -1854.35 -1854.23 -1854.12 -1854.01 -1853.9 -1853.78 -1853.67 -1853.55 -1853.44 -1853.32 -1853.2 -1853.09 -1852.97 -1852.85 -1852.73 -1852.61 -1852.49 -1852.37 -1852.25 -1852.13 -1852.01 -1851.89 -1851.76 -1851.64 -1851.52 -1851.39 -1851.27 -1851.14 -1851.01 -1850.89 -1850.76 -1850.63 -1850.5 -1850.37 -1850.24 -1850.11 -1849.98 -1849.85 -1849.72 -1849.59 -1849.45 -1849.32 -1849.19 -1849.05 -1848.92 -1848.78 -1848.64 -1848.5 -1848.37 -1848.23 -1848.09 -1847.95 -1847.81 -1847.67 -1847.53 -1847.38 -1847.24 -1847.1 -1846.95 -1846.81 -1846.67 -1846.52 -1846.37 -1846.23 -1846.08 -1845.93 -1845.78 -1845.63 -1845.48 -1845.33 -1845.18 -1845.03 -1844.87 -1844.72 -1844.57 -1844.41 -1844.26 -1844.1 -1843.94 -1843.79 -1843.63 -1843.47 -1843.31 -1843.15 -1842.99 -1842.83 -1842.67 -1842.5 -1842.34 -1842.18 -1842.01 -1841.85 -1841.68 -1841.52 -1841.35 -1841.18 -1841.01 -1840.84 -1840.67 -1840.5 -1840.33 -1840.16 -1839.98 -1839.81 -1839.64 -1839.46 -1839.29 -1839.11 -1838.93 -1838.75 -1838.58 -1838.4 -1838.22 -1838.04 -1837.85 -1837.67 -1837.49 -1837.31 -1837.12 -1836.94 -1836.75 -2318.84 -2318.7 -2318.56 -2318.43 -2318.29 -2318.15 -2318.01 -2317.87 -2317.73 -2317.59 -2317.44 -2317.3 -2317.16 -2317.01 -2316.87 -2316.72 -2316.58 -2316.43 -2316.28 -2316.14 -2315.99 -2315.84 -2315.69 -2315.54 -2315.38 -2315.23 -2315.08 -2314.93 -2314.77 -2314.62 -2314.46 -2314.3 -2314.15 -2313.99 -2313.83 -2313.67 -2313.51 -2313.35 -2313.19 -2313.03 -2312.87 -2312.7 -2312.54 -2312.37 -2312.21 -2312.04 -2311.87 -2311.71 -2311.54 -2311.37 -2311.2 -2311.03 -2310.86 -2310.68 -2310.51 -2310.34 -2310.16 -2309.99 -2309.81 -2309.63 -2309.46 -2309.28 -2309.1 -2308.92 -2308.74 -2308.56 -2308.37 -2308.19 -2308.01 -2307.82 -2307.64 -2307.45 -2307.26 -2307.08 -2306.89 -2306.7 -2306.51 -2306.32 -2306.13 -2305.93 -2305.74 -2305.55 -2305.35 -2305.15 -2304.96 -2304.76 -2304.56 -2304.36 -2304.16 -2303.96 -2303.76 -2303.56 -2303.35 -2303.15 -2302.94 -2302.74 -2302.53 -2302.32 -2302.12 -2301.91 -2301.7 -2301.49 -2301.27 -2301.06 -2300.85 -2300.63 -2300.42 -2300.2 -2299.98 -2299.77 -2299.55 -2299.33 -2299.11 -2298.88 -2298.66 -2298.44 -2298.21 -2297.99 -2297.76 -2297.54 -2297.31 -2297.08 -2296.85 -2296.62 -2296.39 -2296.15 -2295.92 -2295.69 -2782.56 -2782.39 -2782.23 -2782.06 -2781.89 -2781.73 -2781.56 -2781.39 -2781.22 -2781.05 -2780.87 -2780.7 -2780.53 -2780.35 -2780.18 -2780 -2779.83 -2779.65 -2779.47 -2779.29 -2779.11 -2778.93 -2778.75 -2778.57 -2778.38 -2778.2 -2778.02 -2777.83 -2777.64 -2777.46 -2777.27 -2777.08 -2776.89 -2776.7 -2776.51 -2776.31 -2776.12 -2775.93 -2775.73 -2775.54 -2775.34 -2775.14 -2774.94 -2774.74 -2774.54 -2774.34 -2774.14 -2773.94 -2773.73 -2773.53 -2773.32 -2773.12 -2772.91 -2772.7 -2772.49 -2772.28 -2772.07 -2771.86 -2771.64 -2771.43 -2771.22 -2771 -2770.78 -2770.57 -2770.35 -2770.13 -2769.91 -2769.69 -2769.46 -2769.24 -2769.02 -2768.79 -2768.56 -2768.34 -2768.11 -2767.88 -2767.65 -2767.42 -2767.19 -2766.95 -2766.72 -2766.48 -2766.25 -2766.01 -2765.77 -2765.53 -2765.29 -2765.05 -2764.81 -2764.57 -2764.32 -2764.08 -2763.83 -2763.58 -2763.34 -2763.09 -2762.84 -2762.59 -2762.33 -2762.08 -2761.83 -2761.57 -2761.31 -2761.06 -2760.8 -2760.54 -2760.28 -2760.01 -2759.75 -2759.49 -2759.22 -2758.96 -2758.69 -2758.42 -2758.15 -2757.88 -2757.61 -2757.34 -2757.06 -2756.79 -2756.51 -2756.23 -2755.96 -2755.68 -2755.4 -2755.11 -2754.83 -2754.55 -3246.29 -3246.09 -3245.9 -3245.7 -3245.51 -3245.31 -3245.11 -3244.91 -3244.71 -3244.51 -3244.31 -3244.11 -3243.9 -3243.7 -3243.49 -3243.29 -3243.08 -3242.87 -3242.66 -3242.45 -3242.24 -3242.03 -3241.81 -3241.6 -3241.39 -3241.17 -3240.95 -3240.73 -3240.51 -3240.29 -3240.07 -3239.85 -3239.63 -3239.4 -3239.18 -3238.95 -3238.73 -3238.5 -3238.27 -3238.04 -3237.81 -3237.57 -3237.34 -3237.11 -3236.87 -3236.63 -3236.4 -3236.16 -3235.92 -3235.68 -3235.44 -3235.19 -3234.95 -3234.71 -3234.46 -3234.21 -3233.96 -3233.71 -3233.46 -3233.21 -3232.96 -3232.71 -3232.45 -3232.2 -3231.94 -3231.68 -3231.42 -3231.16 -3230.9 -3230.64 -3230.37 -3230.11 -3229.84 -3229.58 -3229.31 -3229.04 -3228.77 -3228.49 -3228.22 -3227.95 -3227.67 -3227.4 -3227.12 -3226.84 -3226.56 -3226.28 -3226 -3225.71 -3225.43 -3225.14 -3224.85 -3224.57 -3224.28 -3223.99 -3223.69 -3223.4 -3223.11 -3222.81 -3222.51 -3222.22 -3221.92 -3221.62 -3221.31 -3221.01 -3220.71 -3220.4 -3220.09 -3219.79 -3219.48 -3219.17 -3218.85 -3218.54 -3218.23 -3217.91 -3217.59 -3217.27 -3216.95 -3216.63 -3216.31 -3215.99 -3215.66 -3215.34 -3215.01 -3214.68 -3214.35 -3214.02 -3213.68 -3213.35 -3710.03 -3709.81 -3709.59 -3709.36 -3709.14 -3708.91 -3708.68 -3708.45 -3708.22 -3707.99 -3707.76 -3707.53 -3707.29 -3707.06 -3706.82 -3706.58 -3706.35 -3706.11 -3705.87 -3705.62 -3705.38 -3705.14 -3704.89 -3704.64 -3704.4 -3704.15 -3703.9 -3703.65 -3703.4 -3703.14 -3702.89 -3702.63 -3702.38 -3702.12 -3701.86 -3701.6 -3701.34 -3701.07 -3700.81 -3700.55 -3700.28 -3700.01 -3699.74 -3699.47 -3699.2 -3698.93 -3698.66 -3698.38 -3698.11 -3697.83 -3697.55 -3697.27 -3696.99 -3696.71 -3696.43 -3696.14 -3695.86 -3695.57 -3695.28 -3694.99 -3694.7 -3694.41 -3694.12 -3693.82 -3693.53 -3693.23 -3692.93 -3692.63 -3692.33 -3692.03 -3691.72 -3691.42 -3691.11 -3690.8 -3690.5 -3690.19 -3689.87 -3689.56 -3689.25 -3688.93 -3688.61 -3688.3 -3687.98 -3687.65 -3687.33 -3687.01 -3686.68 -3686.36 -3686.03 -3685.7 -3685.37 -3685.04 -3684.7 -3684.37 -3684.03 -3683.69 -3683.35 -3683.01 -3682.67 -3682.33 -3681.98 -3681.64 -3681.29 -3680.94 -3680.59 -3680.24 -3679.88 -3679.53 -3679.17 -3678.81 -3678.45 -3678.09 -3677.73 -3677.37 -3677 -3676.63 -3676.27 -3675.9 -3675.52 -3675.15 -3674.78 -3674.4 -3674.02 -3673.64 -3673.26 -3672.88 -3672.5 -3672.11 -4173.81 -4173.56 -4173.3 -4173.05 -4172.8 -4172.54 -4172.28 -4172.02 -4171.76 -4171.5 -4171.24 -4170.97 -4170.71 -4170.44 -4170.18 -4169.91 -4169.64 -4169.37 -4169.09 -4168.82 -4168.54 -4168.27 -4167.99 -4167.71 -4167.43 -4167.15 -4166.87 -4166.58 -4166.3 -4166.01 -4165.72 -4165.43 -4165.14 -4164.85 -4164.56 -4164.26 -4163.97 -4163.67 -4163.37 -4163.07 -4162.77 -4162.47 -4162.16 -4161.86 -4161.55 -4161.24 -4160.94 -4160.62 -4160.31 -4160 -4159.68 -4159.37 -4159.05 -4158.73 -4158.41 -4158.09 -4157.76 -4157.44 -4157.11 -4156.78 -4156.45 -4156.12 -4155.79 -4155.46 -4155.12 -4154.79 -4154.45 -4154.11 -4153.77 -4153.42 -4153.08 -4152.73 -4152.39 -4152.04 -4151.69 -4151.34 -4150.98 -4150.63 -4150.27 -4149.92 -4149.56 -4149.2 -4148.83 -4148.47 -4148.1 -4147.74 -4147.37 -4147 -4146.63 -4146.25 -4145.88 -4145.5 -4145.12 -4144.74 -4144.36 -4143.98 -4143.59 -4143.21 -4142.82 -4142.43 -4142.04 -4141.65 -4141.25 -4140.86 -4140.46 -4140.06 -4139.66 -4139.26 -4138.85 -4138.45 -4138.04 -4137.63 -4137.22 -4136.8 -4136.39 -4135.97 -4135.56 -4135.14 -4134.72 -4134.29 -4133.87 -4133.44 -4133.01 -4132.58 -4132.15 -4131.72 -4131.28 -4130.84 -4637.62 -4637.34 -4637.06 -4636.78 -4636.49 -4636.21 -4635.92 -4635.63 -4635.34 -4635.05 -4634.75 -4634.46 -4634.16 -4633.87 -4633.57 -4633.27 -4632.97 -4632.66 -4632.36 -4632.05 -4631.74 -4631.44 -4631.13 -4630.81 -4630.5 -4630.19 -4629.87 -4629.55 -4629.23 -4628.91 -4628.59 -4628.27 -4627.94 -4627.62 -4627.29 -4626.96 -4626.63 -4626.3 -4625.96 -4625.63 -4625.29 -4624.95 -4624.61 -4624.27 -4623.93 -4623.59 -4623.24 -4622.89 -4622.54 -4622.19 -4621.84 -4621.49 -4621.13 -4620.77 -4620.42 -4620.05 -4619.69 -4619.33 -4618.96 -4618.6 -4618.23 -4617.86 -4617.49 -4617.11 -4616.74 -4616.36 -4615.98 -4615.61 -4615.22 -4614.84 -4614.46 -4614.07 -4613.68 -4613.29 -4612.9 -4612.51 -4612.11 -4611.71 -4611.32 -4610.92 -4610.51 -4610.11 -4609.7 -4609.3 -4608.89 -4608.48 -4608.06 -4607.65 -4607.23 -4606.82 -4606.4 -4605.98 -4605.55 -4605.13 -4604.7 -4604.27 -4603.84 -4603.41 -4602.98 -4602.54 -4602.1 -4601.66 -4601.22 -4600.78 -4600.33 -4599.88 -4599.44 -4598.99 -4598.53 -4598.08 -4597.62 -4597.16 -4596.7 -4596.24 -4595.78 -4595.31 -4594.84 -4594.37 -4593.9 -4593.43 -4592.95 -4592.47 -4591.99 -4591.51 -4591.03 -4590.54 -4590.06 -4589.57 -5101.49 -5101.18 -5100.87 -5100.55 -5100.24 -5099.92 -5099.61 -5099.29 -5098.96 -5098.64 -5098.32 -5097.99 -5097.67 -5097.34 -5097.01 -5096.67 -5096.34 -5096.01 -5095.67 -5095.33 -5094.99 -5094.65 -5094.31 -5093.96 -5093.62 -5093.27 -5092.92 -5092.57 -5092.22 -5091.86 -5091.51 -5091.15 -5090.79 -5090.43 -5090.07 -5089.7 -5089.34 -5088.97 -5088.6 -5088.23 -5087.86 -5087.48 -5087.11 -5086.73 -5086.35 -5085.97 -5085.59 -5085.2 -5084.81 -5084.43 -5084.04 -5083.65 -5083.25 -5082.86 -5082.46 -5082.06 -5081.66 -5081.26 -5080.85 -5080.45 -5080.04 -5079.63 -5079.22 -5078.81 -5078.39 -5077.98 -5077.56 -5077.14 -5076.71 -5076.29 -5075.86 -5075.44 -5075.01 -5074.57 -5074.14 -5073.71 -5073.27 -5072.83 -5072.39 -5071.94 -5071.5 -5071.05 -5070.6 -5070.15 -5069.7 -5069.24 -5068.79 -5068.33 -5067.87 -5067.41 -5066.94 -5066.47 -5066 -5065.53 -5065.06 -5064.59 -5064.11 -5063.63 -5063.15 -5062.67 -5062.18 -5061.7 -5061.21 -5060.72 -5060.22 -5059.73 -5059.23 -5058.73 -5058.23 -5057.72 -5057.22 -5056.71 -5056.2 -5055.69 -5055.17 -5054.66 -5054.14 -5053.62 -5053.1 -5052.57 -5052.04 -5051.51 -5050.98 -5050.45 -5049.91 -5049.37 -5048.83 -5048.29 -5565.42 -5565.08 -5564.74 -5564.39 -5564.05 -5563.7 -5563.35 -5563 -5562.65 -5562.3 -5561.94 -5561.59 -5561.23 -5560.87 -5560.51 -5560.14 -5559.78 -5559.41 -5559.04 -5558.67 -5558.3 -5557.92 -5557.55 -5557.17 -5556.79 -5556.41 -5556.03 -5555.64 -5555.26 -5554.87 -5554.48 -5554.08 -5553.69 -5553.3 -5552.9 -5552.5 -5552.1 -5551.7 -5551.29 -5550.88 -5550.48 -5550.06 -5549.65 -5549.24 -5548.82 -5548.4 -5547.98 -5547.56 -5547.14 -5546.71 -5546.29 -5545.86 -5545.42 -5544.99 -5544.56 -5544.12 -5543.68 -5543.24 -5542.79 -5542.35 -5541.9 -5541.45 -5541 -5540.55 -5540.09 -5539.64 -5539.18 -5538.71 -5538.25 -5537.79 -5537.32 -5536.85 -5536.38 -5535.9 -5535.43 -5534.95 -5534.47 -5533.99 -5533.5 -5533.02 -5532.53 -5532.04 -5531.54 -5531.05 -5530.55 -5530.05 -5529.55 -5529.05 -5528.54 -5528.03 -5527.52 -5527.01 -5526.5 -5525.98 -5525.46 -5524.94 -5524.41 -5523.89 -5523.36 -5522.83 -5522.3 -5521.76 -5521.23 -5520.69 -5520.14 -5519.6 -5519.05 -5518.51 -5517.95 -5517.4 -5516.85 -5516.29 -5515.73 -5515.16 -5514.6 -5514.03 -5513.46 -5512.89 -5512.32 -5511.74 -5511.16 -5510.58 -5509.99 -5509.41 -5508.82 -5508.23 -5507.63 -5507.04 -6029.42 -6029.05 -6028.68 -6028.3 -6027.93 -6027.55 -6027.17 -6026.79 -6026.41 -6026.02 -6025.64 -6025.25 -6024.86 -6024.47 -6024.07 -6023.68 -6023.28 -6022.88 -6022.48 -6022.08 -6021.67 -6021.27 -6020.86 -6020.45 -6020.03 -6019.62 -6019.2 -6018.78 -6018.36 -6017.94 -6017.52 -6017.09 -6016.66 -6016.23 -6015.8 -6015.36 -6014.93 -6014.49 -6014.05 -6013.61 -6013.16 -6012.71 -6012.27 -6011.81 -6011.36 -6010.91 -6010.45 -6009.99 -6009.53 -6009.07 -6008.6 -6008.13 -6007.66 -6007.19 -6006.72 -6006.24 -6005.76 -6005.28 -6004.8 -6004.31 -6003.83 -6003.34 -6002.85 -6002.35 -6001.86 -6001.36 -6000.86 -6000.35 -5999.85 -5999.34 -5998.83 -5998.32 -5997.81 -5997.29 -5996.77 -5996.25 -5995.73 -5995.2 -5994.68 -5994.15 -5993.61 -5993.08 -5992.54 -5992 -5991.46 -5990.92 -5990.37 -5989.82 -5989.27 -5988.71 -5988.16 -5987.6 -5987.04 -5986.48 -5985.91 -5985.34 -5984.77 -5984.2 -5983.62 -5983.04 -5982.46 -5981.88 -5981.29 -5980.71 -5980.11 -5979.52 -5978.93 -5978.33 -5977.73 -5977.12 -5976.52 -5975.91 -5975.3 -5974.68 -5974.07 -5973.45 -5972.83 -5972.2 -5971.58 -5970.95 -5970.32 -5969.68 -5969.04 -5968.4 -5967.76 -5967.12 -5966.47 -5965.82 -6493.5 -6493.1 -6492.7 -6492.3 -6491.89 -6491.48 -6491.07 -6490.66 -6490.25 -6489.83 -6489.42 -6489 -6488.58 -6488.15 -6487.73 -6487.3 -6486.87 -6486.44 -6486 -6485.57 -6485.13 -6484.69 -6484.25 -6483.81 -6483.36 -6482.91 -6482.46 -6482.01 -6481.55 -6481.1 -6480.64 -6480.18 -6479.71 -6479.25 -6478.78 -6478.31 -6477.84 -6477.36 -6476.89 -6476.41 -6475.93 -6475.44 -6474.96 -6474.47 -6473.98 -6473.49 -6472.99 -6472.5 -6472 -6471.5 -6470.99 -6470.49 -6469.98 -6469.47 -6468.95 -6468.44 -6467.92 -6467.4 -6466.88 -6466.35 -6465.83 -6465.3 -6464.77 -6464.23 -6463.69 -6463.16 -6462.61 -6462.07 -6461.52 -6460.97 -6460.42 -6459.87 -6459.31 -6458.75 -6458.19 -6457.63 -6457.06 -6456.49 -6455.92 -6455.35 -6454.77 -6454.19 -6453.61 -6453.03 -6452.44 -6451.85 -6451.26 -6450.66 -6450.07 -6449.47 -6448.86 -6448.26 -6447.65 -6447.04 -6446.43 -6445.81 -6445.19 -6444.57 -6443.95 -6443.32 -6442.69 -6442.06 -6441.43 -6440.79 -6440.15 -6439.51 -6438.86 -6438.21 -6437.56 -6436.91 -6436.25 -6435.59 -6434.93 -6434.26 -6433.59 -6432.92 -6432.25 -6431.57 -6430.89 -6430.21 -6429.53 -6428.84 -6428.15 -6427.45 -6426.76 -6426.06 -6425.36 -6424.65 -6957.68 -6957.25 -6956.82 -6956.38 -6955.95 -6955.51 -6955.07 -6954.63 -6954.18 -6953.74 -6953.29 -6952.84 -6952.39 -6951.93 -6951.47 -6951.01 -6950.55 -6950.09 -6949.62 -6949.15 -6948.68 -6948.21 -6947.74 -6947.26 -6946.78 -6946.3 -6945.81 -6945.33 -6944.84 -6944.34 -6943.85 -6943.36 -6942.86 -6942.36 -6941.85 -6941.35 -6940.84 -6940.33 -6939.82 -6939.3 -6938.79 -6938.27 -6937.74 -6937.22 -6936.69 -6936.16 -6935.63 -6935.1 -6934.56 -6934.02 -6933.48 -6932.93 -6932.39 -6931.84 -6931.28 -6930.73 -6930.17 -6929.61 -6929.05 -6928.49 -6927.92 -6927.35 -6926.78 -6926.2 -6925.62 -6925.04 -6924.46 -6923.87 -6923.29 -6922.69 -6922.1 -6921.5 -6920.9 -6920.3 -6919.7 -6919.09 -6918.48 -6917.87 -6917.25 -6916.64 -6916.01 -6915.39 -6914.76 -6914.13 -6913.5 -6912.87 -6912.23 -6911.59 -6910.95 -6910.3 -6909.65 -6909 -6908.34 -6907.69 -6907.03 -6906.36 -6905.7 -6905.03 -6904.36 -6903.68 -6903 -6902.32 -6901.64 -6900.95 -6900.26 -6899.57 -6898.87 -6898.17 -6897.47 -6896.77 -6896.06 -6895.35 -6894.63 -6893.92 -6893.2 -6892.47 -6891.75 -6891.02 -6890.29 -6889.55 -6888.81 -6888.07 -6887.33 -6886.58 -6885.83 -6885.07 -6884.31 -6883.55 -7421.96 -7421.5 -7421.04 -7420.58 -7420.11 -7419.64 -7419.17 -7418.7 -7418.22 -7417.75 -7417.27 -7416.79 -7416.3 -7415.81 -7415.33 -7414.83 -7414.34 -7413.84 -7413.35 -7412.84 -7412.34 -7411.84 -7411.33 -7410.82 -7410.3 -7409.79 -7409.27 -7408.75 -7408.23 -7407.7 -7407.17 -7406.64 -7406.11 -7405.57 -7405.03 -7404.49 -7403.95 -7403.4 -7402.85 -7402.3 -7401.75 -7401.19 -7400.63 -7400.07 -7399.51 -7398.94 -7398.37 -7397.8 -7397.23 -7396.65 -7396.07 -7395.48 -7394.9 -7394.31 -7393.72 -7393.12 -7392.53 -7391.93 -7391.33 -7390.72 -7390.11 -7389.5 -7388.89 -7388.27 -7387.65 -7387.03 -7386.41 -7385.78 -7385.15 -7384.52 -7383.88 -7383.24 -7382.6 -7381.96 -7381.31 -7380.66 -7380 -7379.35 -7378.69 -7378.02 -7377.36 -7376.69 -7376.02 -7375.34 -7374.67 -7373.99 -7373.3 -7372.62 -7371.93 -7371.23 -7370.54 -7369.84 -7369.14 -7368.43 -7367.72 -7367.01 -7366.3 -7365.58 -7364.86 -7364.14 -7363.41 -7362.68 -7361.95 -7361.21 -7360.47 -7359.73 -7358.98 -7358.23 -7357.48 -7356.72 -7355.96 -7355.2 -7354.43 -7353.66 -7352.89 -7352.12 -7351.34 -7350.55 -7349.77 -7348.98 -7348.19 -7347.39 -7346.59 -7345.79 -7344.98 -7344.17 -7343.36 -7342.54 -7886.36 -7885.87 -7885.38 -7884.89 -7884.39 -7883.89 -7883.39 -7882.89 -7882.38 -7881.87 -7881.36 -7880.85 -7880.33 -7879.82 -7879.3 -7878.77 -7878.25 -7877.72 -7877.19 -7876.65 -7876.12 -7875.58 -7875.04 -7874.49 -7873.95 -7873.4 -7872.85 -7872.29 -7871.73 -7871.17 -7870.61 -7870.05 -7869.48 -7868.91 -7868.33 -7867.76 -7867.18 -7866.6 -7866.01 -7865.42 -7864.83 -7864.24 -7863.64 -7863.05 -7862.44 -7861.84 -7861.23 -7860.62 -7860.01 -7859.39 -7858.78 -7858.15 -7857.53 -7856.9 -7856.27 -7855.64 -7855 -7854.36 -7853.72 -7853.08 -7852.43 -7851.78 -7851.12 -7850.47 -7849.81 -7849.14 -7848.48 -7847.81 -7847.13 -7846.46 -7845.78 -7845.1 -7844.41 -7843.72 -7843.03 -7842.34 -7841.64 -7840.94 -7840.24 -7839.53 -7838.82 -7838.11 -7837.39 -7836.67 -7835.95 -7835.22 -7834.49 -7833.76 -7833.02 -7832.28 -7831.54 -7830.79 -7830.04 -7829.29 -7828.54 -7827.78 -7827.01 -7826.25 -7825.48 -7824.71 -7823.93 -7823.15 -7822.37 -7821.58 -7820.79 -7820 -7819.2 -7818.4 -7817.59 -7816.79 -7815.97 -7815.16 -7814.34 -7813.52 -7812.69 -7811.87 -7811.03 -7810.2 -7809.36 -7808.51 -7807.67 -7806.82 -7805.96 -7805.11 -7804.24 -7803.38 -7802.51 -7801.64 -8350.88 -8350.37 -8349.85 -8349.32 -8348.8 -8348.27 -8347.74 -8347.2 -8346.67 -8346.13 -8345.59 -8345.04 -8344.5 -8343.95 -8343.4 -8342.84 -8342.28 -8341.72 -8341.16 -8340.59 -8340.02 -8339.45 -8338.88 -8338.3 -8337.72 -8337.14 -8336.55 -8335.96 -8335.37 -8334.78 -8334.18 -8333.58 -8332.98 -8332.37 -8331.76 -8331.15 -8330.54 -8329.92 -8329.3 -8328.68 -8328.05 -8327.42 -8326.79 -8326.15 -8325.51 -8324.87 -8324.23 -8323.58 -8322.93 -8322.27 -8321.62 -8320.96 -8320.29 -8319.63 -8318.96 -8318.29 -8317.61 -8316.93 -8316.25 -8315.56 -8314.87 -8314.18 -8313.49 -8312.79 -8312.09 -8311.38 -8310.68 -8309.96 -8309.25 -8308.53 -8307.81 -8307.09 -8306.36 -8305.63 -8304.89 -8304.15 -8303.41 -8302.67 -8301.92 -8301.17 -8300.41 -8299.66 -8298.89 -8298.13 -8297.36 -8296.59 -8295.81 -8295.03 -8294.25 -8293.46 -8292.67 -8291.88 -8291.08 -8290.28 -8289.48 -8288.67 -8287.86 -8287.04 -8286.22 -8285.4 -8284.58 -8283.75 -8282.91 -8282.08 -8281.24 -8280.39 -8279.54 -8278.69 -8277.84 -8276.98 -8276.11 -8275.25 -8274.38 -8273.5 -8272.62 -8271.74 -8270.86 -8269.97 -8269.07 -8268.17 -8267.27 -8266.37 -8265.46 -8264.54 -8263.63 -8262.71 -8261.78 -8260.85 -8815.55 -8815 -8814.45 -8813.9 -8813.34 -8812.79 -8812.22 -8811.66 -8811.09 -8810.53 -8809.95 -8809.38 -8808.8 -8808.22 -8807.64 -8807.05 -8806.46 -8805.87 -8805.27 -8804.67 -8804.07 -8803.47 -8802.86 -8802.25 -8801.64 -8801.02 -8800.4 -8799.78 -8799.16 -8798.53 -8797.9 -8797.26 -8796.62 -8795.98 -8795.34 -8794.69 -8794.04 -8793.39 -8792.73 -8792.07 -8791.41 -8790.74 -8790.07 -8789.4 -8788.73 -8788.05 -8787.37 -8786.68 -8785.99 -8785.3 -8784.6 -8783.91 -8783.2 -8782.5 -8781.79 -8781.08 -8780.36 -8779.64 -8778.92 -8778.2 -8777.47 -8776.74 -8776 -8775.26 -8774.52 -8773.77 -8773.02 -8772.27 -8771.51 -8770.75 -8769.99 -8769.22 -8768.45 -8767.68 -8766.9 -8766.12 -8765.33 -8764.54 -8763.75 -8762.95 -8762.15 -8761.35 -8760.54 -8759.73 -8758.92 -8758.1 -8757.28 -8756.45 -8755.62 -8754.79 -8753.95 -8753.11 -8752.27 -8751.42 -8750.57 -8749.71 -8748.85 -8747.99 -8747.12 -8746.25 -8745.37 -8744.49 -8743.61 -8742.72 -8741.83 -8740.93 -8740.03 -8739.13 -8738.22 -8737.31 -8736.4 -8735.48 -8734.55 -8733.63 -8732.69 -8731.76 -8730.82 -8729.88 -8728.93 -8727.98 -8727.02 -8726.06 -8725.09 -8724.12 -8723.15 -8722.17 -8721.19 -8720.21 -9280.36 -9279.79 -9279.21 -9278.63 -9278.04 -9277.45 -9276.86 -9276.27 -9275.67 -9275.07 -9274.47 -9273.87 -9273.26 -9272.65 -9272.03 -9271.41 -9270.79 -9270.17 -9269.54 -9268.91 -9268.28 -9267.64 -9267 -9266.36 -9265.71 -9265.06 -9264.41 -9263.75 -9263.09 -9262.43 -9261.77 -9261.1 -9260.43 -9259.75 -9259.07 -9258.39 -9257.7 -9257.02 -9256.32 -9255.63 -9254.93 -9254.23 -9253.52 -9252.81 -9252.1 -9251.38 -9250.66 -9249.94 -9249.22 -9248.49 -9247.75 -9247.02 -9246.27 -9245.53 -9244.78 -9244.03 -9243.28 -9242.52 -9241.76 -9240.99 -9240.22 -9239.45 -9238.67 -9237.89 -9237.11 -9236.32 -9235.53 -9234.74 -9233.94 -9233.13 -9232.33 -9231.52 -9230.7 -9229.89 -9229.07 -9228.24 -9227.41 -9226.58 -9225.74 -9224.9 -9224.06 -9223.21 -9222.36 -9221.5 -9220.64 -9219.77 -9218.91 -9218.03 -9217.16 -9216.28 -9215.39 -9214.5 -9213.61 -9212.72 -9211.82 -9210.91 -9210 -9209.09 -9208.17 -9207.25 -9206.33 -9205.4 -9204.46 -9203.52 -9202.58 -9201.64 -9200.69 -9199.73 -9198.77 -9197.81 -9196.84 -9195.87 -9194.89 -9193.91 -9192.93 -9191.94 -9190.94 -9189.95 -9188.94 -9187.94 -9186.92 -9185.91 -9184.89 -9183.86 -9182.83 -9181.8 -9180.76 -9179.72 -9745.34 -9744.73 -9744.13 -9743.51 -9742.9 -9742.28 -9741.66 -9741.04 -9740.42 -9739.79 -9739.15 -9738.52 -9737.88 -9737.24 -9736.59 -9735.94 -9735.29 -9734.63 -9733.97 -9733.31 -9732.65 -9731.98 -9731.31 -9730.63 -9729.95 -9729.27 -9728.58 -9727.9 -9727.2 -9726.51 -9725.81 -9725.11 -9724.4 -9723.69 -9722.98 -9722.26 -9721.54 -9720.81 -9720.09 -9719.36 -9718.62 -9717.88 -9717.14 -9716.4 -9715.65 -9714.89 -9714.14 -9713.38 -9712.61 -9711.85 -9711.07 -9710.3 -9709.52 -9708.74 -9707.95 -9707.16 -9706.37 -9705.57 -9704.77 -9703.96 -9703.15 -9702.34 -9701.52 -9700.7 -9699.88 -9699.05 -9698.22 -9697.38 -9696.54 -9695.69 -9694.85 -9693.99 -9693.14 -9692.28 -9691.41 -9690.54 -9689.67 -9688.79 -9687.91 -9687.03 -9686.14 -9685.24 -9684.35 -9683.44 -9682.54 -9681.63 -9680.71 -9679.8 -9678.87 -9677.94 -9677.01 -9676.08 -9675.14 -9674.19 -9673.24 -9672.29 -9671.33 -9670.37 -9669.41 -9668.44 -9667.46 -9666.48 -9665.5 -9664.51 -9663.52 -9662.52 -9661.52 -9660.51 -9659.5 -9658.48 -9657.46 -9656.44 -9655.41 -9654.38 -9653.34 -9652.29 -9651.25 -9650.19 -9649.14 -9648.07 -9647.01 -9645.94 -9644.86 -9643.78 -9642.69 -9641.6 -9640.51 -9639.41 -10210.5 -10209.9 -10209.2 -10208.6 -10207.9 -10207.3 -10206.6 -10206 -10205.3 -10204.7 -10204 -10203.3 -10202.7 -10202 -10201.3 -10200.6 -10200 -10199.3 -10198.6 -10197.9 -10197.2 -10196.5 -10195.8 -10195.1 -10194.4 -10193.7 -10192.9 -10192.2 -10191.5 -10190.8 -10190 -10189.3 -10188.6 -10187.8 -10187.1 -10186.3 -10185.6 -10184.8 -10184 -10183.3 -10182.5 -10181.7 -10180.9 -10180.2 -10179.4 -10178.6 -10177.8 -10177 -10176.2 -10175.4 -10174.6 -10173.8 -10173 -10172.1 -10171.3 -10170.5 -10169.6 -10168.8 -10168 -10167.1 -10166.3 -10165.4 -10164.6 -10163.7 -10162.8 -10162 -10161.1 -10160.2 -10159.3 -10158.4 -10157.6 -10156.7 -10155.8 -10154.9 -10154 -10153 -10152.1 -10151.2 -10150.3 -10149.3 -10148.4 -10147.5 -10146.5 -10145.6 -10144.6 -10143.7 -10142.7 -10141.8 -10140.8 -10139.8 -10138.8 -10137.8 -10136.9 -10135.9 -10134.9 -10133.9 -10132.9 -10131.9 -10130.8 -10129.8 -10128.8 -10127.8 -10126.7 -10125.7 -10124.6 -10123.6 -10122.5 -10121.5 -10120.4 -10119.4 -10118.3 -10117.2 -10116.1 -10115 -10113.9 -10112.8 -10111.7 -10110.6 -10109.5 -10108.4 -10107.3 -10106.2 -10105 -10103.9 -10102.8 -10101.6 -10100.5 -10099.3 -10675.8 -10675.2 -10674.5 -10673.8 -10673.2 -10672.5 -10671.8 -10671.1 -10670.4 -10669.7 -10669.1 -10668.4 -10667.7 -10667 -10666.3 -10665.5 -10664.8 -10664.1 -10663.4 -10662.7 -10661.9 -10661.2 -10660.5 -10659.7 -10659 -10658.2 -10657.5 -10656.7 -10656 -10655.2 -10654.5 -10653.7 -10652.9 -10652.1 -10651.3 -10650.6 -10649.8 -10649 -10648.2 -10647.4 -10646.6 -10645.8 -10645 -10644.1 -10643.3 -10642.5 -10641.7 -10640.8 -10640 -10639.1 -10638.3 -10637.4 -10636.6 -10635.7 -10634.9 -10634 -10633.1 -10632.3 -10631.4 -10630.5 -10629.6 -10628.7 -10627.8 -10626.9 -10626 -10625.1 -10624.2 -10623.3 -10622.3 -10621.4 -10620.5 -10619.5 -10618.6 -10617.7 -10616.7 -10615.7 -10614.8 -10613.8 -10612.9 -10611.9 -10610.9 -10609.9 -10608.9 -10607.9 -10606.9 -10605.9 -10604.9 -10603.9 -10602.9 -10601.9 -10600.9 -10599.8 -10598.8 -10597.8 -10596.7 -10595.7 -10594.6 -10593.5 -10592.5 -10591.4 -10590.3 -10589.3 -10588.2 -10587.1 -10586 -10584.9 -10583.8 -10582.7 -10581.6 -10580.4 -10579.3 -10578.2 -10577.1 -10575.9 -10574.8 -10573.6 -10572.5 -10571.3 -10570.1 -10569 -10567.8 -10566.6 -10565.4 -10564.2 -10563 -10561.8 -10560.6 -10559.4 -11141.3 -11140.7 -11140 -11139.3 -11138.6 -11137.9 -11137.2 -11136.5 -11135.7 -11135 -11134.3 -11133.6 -11132.9 -11132.1 -11131.4 -11130.6 -11129.9 -11129.2 -11128.4 -11127.6 -11126.9 -11126.1 -11125.4 -11124.6 -11123.8 -11123 -11122.3 -11121.5 -11120.7 -11119.9 -11119.1 -11118.3 -11117.5 -11116.7 -11115.8 -11115 -11114.2 -11113.4 -11112.5 -11111.7 -11110.9 -11110 -11109.2 -11108.3 -11107.5 -11106.6 -11105.7 -11104.9 -11104 -11103.1 -11102.2 -11101.3 -11100.5 -11099.6 -11098.7 -11097.7 -11096.8 -11095.9 -11095 -11094.1 -11093.2 -11092.2 -11091.3 -11090.3 -11089.4 -11088.4 -11087.5 -11086.5 -11085.6 -11084.6 -11083.6 -11082.6 -11081.7 -11080.7 -11079.7 -11078.7 -11077.7 -11076.7 -11075.7 -11074.6 -11073.6 -11072.6 -11071.6 -11070.5 -11069.5 -11068.4 -11067.4 -11066.3 -11065.3 -11064.2 -11063.1 -11062 -11061 -11059.9 -11058.8 -11057.7 -11056.6 -11055.5 -11054.4 -11053.2 -11052.1 -11051 -11049.8 -11048.7 -11047.6 -11046.4 -11045.3 -11044.1 -11042.9 -11041.8 -11040.6 -11039.4 -11038.2 -11037 -11035.8 -11034.6 -11033.4 -11032.2 -11031 -11029.7 -11028.5 -11027.3 -11026 -11024.8 -11023.5 -11022.3 -11021 -11019.7 -11607.1 -11606.4 -11605.6 -11604.9 -11604.2 -11603.5 -11602.7 -11602 -11601.3 -11600.5 -11599.8 -11599 -11598.3 -11597.5 -11596.7 -11596 -11595.2 -11594.4 -11593.6 -11592.8 -11592.1 -11591.3 -11590.5 -11589.7 -11588.9 -11588 -11587.2 -11586.4 -11585.6 -11584.8 -11583.9 -11583.1 -11582.3 -11581.4 -11580.6 -11579.7 -11578.9 -11578 -11577.1 -11576.3 -11575.4 -11574.5 -11573.6 -11572.7 -11571.8 -11570.9 -11570 -11569.1 -11568.2 -11567.3 -11566.4 -11565.5 -11564.5 -11563.6 -11562.7 -11561.7 -11560.8 -11559.8 -11558.9 -11557.9 -11556.9 -11556 -11555 -11554 -11553 -11552 -11551 -11550 -11549 -11548 -11547 -11546 -11545 -11543.9 -11542.9 -11541.9 -11540.8 -11539.8 -11538.7 -11537.6 -11536.6 -11535.5 -11534.4 -11533.3 -11532.3 -11531.2 -11530.1 -11529 -11527.9 -11526.7 -11525.6 -11524.5 -11523.4 -11522.2 -11521.1 -11519.9 -11518.8 -11517.6 -11516.5 -11515.3 -11514.1 -11513 -11511.8 -11510.6 -11509.4 -11508.2 -11507 -11505.8 -11504.6 -11503.3 -11502.1 -11500.9 -11499.6 -11498.4 -11497.1 -11495.9 -11494.6 -11493.3 -11492.1 -11490.8 -11489.5 -11488.2 -11486.9 -11485.6 -11484.3 -11483 -11481.6 -11480.3 -12073 -12072.3 -12071.5 -12070.8 -12070 -12069.3 -12068.5 -12067.8 -12067 -12066.2 -12065.4 -12064.7 -12063.9 -12063.1 -12062.3 -12061.5 -12060.7 -12059.9 -12059.1 -12058.3 -12057.4 -12056.6 -12055.8 -12055 -12054.1 -12053.3 -12052.4 -12051.6 -12050.7 -12049.9 -12049 -12048.2 -12047.3 -12046.4 -12045.5 -12044.6 -12043.8 -12042.9 -12042 -12041.1 -12040.1 -12039.2 -12038.3 -12037.4 -12036.5 -12035.5 -12034.6 -12033.7 -12032.7 -12031.8 -12030.8 -12029.8 -12028.9 -12027.9 -12026.9 -12026 -12025 -12024 -12023 -12022 -12021 -12020 -12019 -12017.9 -12016.9 -12015.9 -12014.8 -12013.8 -12012.8 -12011.7 -12010.6 -12009.6 -12008.5 -12007.4 -12006.4 -12005.3 -12004.2 -12003.1 -12002 -12000.9 -11999.8 -11998.7 -11997.6 -11996.4 -11995.3 -11994.2 -11993 -11991.9 -11990.7 -11989.6 -11988.4 -11987.2 -11986 -11984.9 -11983.7 -11982.5 -11981.3 -11980.1 -11978.9 -11977.7 -11976.4 -11975.2 -11974 -11972.7 -11971.5 -11970.2 -11969 -11967.7 -11966.4 -11965.2 -11963.9 -11962.6 -11961.3 -11960 -11958.7 -11957.4 -11956.1 -11954.8 -11953.4 -11952.1 -11950.7 -11949.4 -11948 -11946.7 -11945.3 -11943.9 -11942.6 -11941.2 -12539.2 -12538.4 -1