<?xml version="1.0"?> 
<VTKFile type="StructuredGrid" version="0.1"> 
<StructuredGrid WholeExtent="0 127 0 127 0 0"> 
<Piece Extent="0 127 0 127 0 0"> 
<PointData>
<DataArray type="Float32" Name="u" format="ascii" NumberOfComponents="1"> 
0 0 0 0 0 0 0 0 0 0 0 0 0 0 0 0 0 0 0 0 0 0 0 0 0 0 0 0 0 0 0 0 0 0 0 0 0 0 0 0 0 0 0 0 0 0 0 0 0 0 0 0 0 0 0 0 0 0 0 0 0 0 0 0 0 0 0 0 0 0 0 0 0 0 0 0 0 0 0 0 0 0 0 0 0 0 0 0 0 0 0 0 0 0 0 0 0 0 0 0 0 0 0 0 0 0 0 0 0 0 0 0 0 0 0 0 0 0 0 0 0 0 0 0 0 0 0 0 -373.287 -369.605 -365.902 -362.178 -358.434 -354.671 -350.891 -347.094 -343.281 -339.455 -335.616 -331.767 -327.908 -324.042 -320.17 -316.295 -312.418 -308.541 -304.665 -300.794 -296.929 -293.071 -289.223 -285.387 -281.563 -277.755 -273.964 -270.191 -266.438 -262.706 -258.997 -255.313 -251.654 -248.022 -244.417 -240.842 -237.296 -233.781 -230.297 -226.845 -223.425 -220.039 -216.686 -213.367 -210.082 -206.831 -203.615 -200.433 -197.286 -194.173 -191.094 -188.049 -185.038 -182.06 -179.116 -176.204 -173.324 -170.476 -167.66 -164.874 -162.118 -159.391 -156.694 -154.024 -151.382 -148.767 -146.178 -143.614 -141.074 -138.558 -136.065 -133.594 -131.144 -128.714 -126.304 -123.912 -121.538 -119.181 -116.84 -114.514 -112.202 -109.904 -107.618 -105.343 -103.079 -100.825 -98.5795 -96.3417 -94.111 -91.8862 -89.6665 -87.451 -85.2387 -83.0288 -80.8203 -78.6123 -76.4038 -74.194 -71.9819 -69.7665 -67.547 -65.3224 -63.0918 -60.8542 -58.6088 -56.3545 -54.0904 -51.8155 -49.529 -47.2298 -44.9171 -42.5898 -40.2469 -37.8876 -35.5108 -33.1156 -30.7009 -28.2657 -25.8092 -23.3302 -20.8278 -18.3009 -15.7485 -13.1695 -10.563 -7.92792 -5.26311 -2.56755 -746.589 -739.281 -731.93 -724.539 -717.108 -709.64 -702.137 -694.6 -687.033 -679.439 -671.819 -664.178 -656.519 -648.845 -641.159 -633.465 -625.768 -618.07 -610.375 -602.687 -595.011 -587.349 -579.706 -572.084 -564.489 -556.922 -549.388 -541.89 -534.43 -527.012 -519.639 -512.313 -505.037 -497.814 -490.645 -483.532 -476.477 -469.483 -462.55 -455.679 -448.873 -442.132 -435.457 -428.849 -422.308 -415.834 -409.428 -403.091 -396.821 -390.619 -384.485 -378.418 -372.418 -366.485 -360.616 -354.813 -349.074 -343.398 -337.784 -332.231 -326.737 -321.303 -315.926 -310.604 -305.338 -300.125 -294.964 -289.853 -284.791 -279.777 -274.808 -269.883 -265.001 -260.16 -255.358 -250.593 -245.864 -241.17 -236.507 -231.875 -227.272 -222.696 -218.146 -213.619 -209.114 -204.628 -200.161 -195.711 -191.275 -186.851 -182.439 -178.036 -173.641 -169.251 -164.865 -160.481 -156.097 -151.711 -147.322 -142.928 -138.527 -134.117 -129.696 -125.263 -120.815 -116.352 -111.87 -107.368 -102.845 -98.2979 -93.7256 -89.126 -84.4973 -79.8376 -75.1449 -70.4175 -65.6534 -60.8506 -56.0074 -51.1216 -46.1915 -41.215 -36.1901 -31.1149 -25.9874 -20.8055 -15.5673 -10.2707 -1119.92 -1109.04 -1098.1 -1087.1 -1076.04 -1064.92 -1053.75 -1042.53 -1031.27 -1019.96 -1008.62 -997.247 -985.845 -974.419 -962.977 -951.522 -940.06 -928.597 -917.138 -905.689 -894.256 -882.843 -871.457 -860.102 -848.785 -837.509 -826.281 -815.105 -803.985 -792.927 -781.934 -771.01 -760.159 -749.385 -738.691 -728.079 -717.554 -707.116 -696.77 -686.515 -676.356 -666.292 -656.326 -646.458 -636.69 -627.021 -617.453 -607.986 -598.62 -589.354 -580.189 -571.124 -562.158 -553.29 -544.52 -535.846 -527.268 -518.783 -510.392 -502.091 -493.879 -485.755 -477.717 -469.762 -461.889 -454.097 -446.382 -438.742 -431.176 -423.681 -416.254 -408.894 -401.598 -394.363 -387.188 -380.069 -373.005 -365.992 -359.028 -352.11 -345.237 -338.405 -331.612 -324.855 -318.131 -311.438 -304.774 -298.135 -291.52 -284.925 -278.347 -271.785 -265.235 -258.695 -252.162 -245.634 -239.108 -232.581 -226.05 -219.514 -212.968 -206.412 -199.841 -193.254 -186.647 -180.018 -173.364 -166.683 -159.972 -153.229 -146.449 -139.632 -132.773 -125.871 -118.923 -111.925 -104.876 -97.7722 -90.6109 -83.3894 -76.1049 -68.7546 -61.3357 -53.8453 -46.2805 -38.6385 -30.9163 -23.1111 -1493.31 -1478.91 -1464.43 -1449.87 -1435.24 -1420.53 -1405.75 -1390.91 -1376 -1361.04 -1346.04 -1330.99 -1315.9 -1300.78 -1285.64 -1270.48 -1255.31 -1240.13 -1224.97 -1209.81 -1194.67 -1179.56 -1164.48 -1149.45 -1134.46 -1119.53 -1104.65 -1089.85 -1075.11 -1060.46 -1045.89 -1031.41 -1017.03 -1002.74 -988.565 -974.494 -960.535 -946.692 -932.967 -919.363 -905.884 -892.53 -879.304 -866.207 -853.241 -840.407 -827.704 -815.135 -802.698 -790.394 -778.222 -766.182 -754.273 -742.494 -730.844 -719.321 -707.925 -696.652 -685.503 -674.474 -663.563 -652.769 -642.088 -631.519 -621.059 -610.704 -600.454 -590.303 -580.251 -570.294 -560.428 -550.651 -540.959 -531.35 -521.821 -512.367 -502.986 -493.675 -484.43 -475.247 -466.124 -457.058 -448.044 -439.079 -430.16 -421.284 -412.446 -403.645 -394.875 -386.135 -377.419 -368.726 -360.051 -351.391 -342.742 -334.102 -325.466 -316.831 -308.194 -299.551 -290.899 -282.234 -273.554 -264.853 -256.13 -247.38 -238.6 -229.787 -220.937 -212.047 -203.112 -194.13 -185.098 -176.011 -166.866 -157.66 -148.388 -139.049 -129.637 -120.149 -110.583 -100.933 -91.1969 -81.3707 -71.4507 -61.4332 -51.3147 -41.0912 -1866.76 -1848.9 -1830.94 -1812.88 -1794.72 -1776.48 -1758.15 -1739.73 -1721.25 -1702.69 -1684.08 -1665.41 -1646.69 -1627.93 -1609.15 -1590.34 -1571.52 -1552.69 -1533.87 -1515.06 -1496.27 -1477.51 -1458.8 -1440.13 -1421.52 -1402.98 -1384.51 -1366.12 -1347.82 -1329.62 -1311.52 -1293.53 -1275.65 -1257.9 -1240.28 -1222.79 -1205.43 -1188.22 -1171.15 -1154.23 -1137.47 -1120.86 -1104.4 -1088.11 -1071.98 -1056 -1040.2 -1024.55 -1009.07 -993.752 -978.599 -963.608 -948.78 -934.113 -919.605 -905.256 -891.063 -877.024 -863.137 -849.4 -835.811 -822.365 -809.062 -795.897 -782.868 -769.971 -757.204 -744.561 -732.042 -719.64 -707.354 -695.179 -683.111 -671.147 -659.282 -647.513 -635.836 -624.246 -612.74 -601.313 -589.962 -578.683 -567.47 -556.32 -545.23 -534.194 -523.208 -512.268 -501.371 -490.511 -479.685 -468.889 -458.118 -447.367 -436.634 -425.913 -415.2 -404.491 -393.783 -383.07 -372.348 -361.614 -350.863 -340.091 -329.293 -318.466 -307.605 -296.706 -285.765 -274.777 -263.739 -252.646 -241.494 -230.279 -218.996 -207.641 -196.21 -184.699 -173.103 -161.418 -149.64 -137.764 -125.786 -113.702 -101.507 -89.1973 -76.768 -64.2147 -2240.28 -2219.02 -2197.63 -2176.13 -2154.51 -2132.78 -2110.96 -2089.03 -2067.02 -2044.92 -2022.76 -2000.52 -1978.23 -1955.89 -1933.52 -1911.12 -1888.7 -1866.27 -1843.85 -1821.44 -1799.06 -1776.71 -1754.41 -1732.16 -1709.98 -1687.88 -1665.86 -1643.94 -1622.12 -1600.41 -1578.82 -1557.37 -1536.05 -1514.87 -1493.84 -1472.97 -1452.26 -1431.71 -1411.34 -1391.14 -1371.12 -1351.29 -1331.64 -1312.18 -1292.91 -1273.83 -1254.94 -1236.25 -1217.75 -1199.45 -1181.34 -1163.42 -1145.7 -1128.17 -1110.82 -1093.67 -1076.7 -1059.92 -1043.31 -1026.89 -1010.64 -994.567 -978.66 -962.919 -947.34 -931.92 -916.655 -901.54 -886.572 -871.746 -857.058 -842.504 -828.079 -813.778 -799.598 -785.534 -771.58 -757.733 -743.987 -730.337 -716.779 -703.309 -689.92 -676.608 -663.369 -650.197 -637.088 -624.036 -611.036 -598.084 -585.175 -572.304 -559.465 -546.655 -533.867 -521.097 -508.34 -495.592 -482.846 -470.099 -457.345 -444.579 -431.797 -418.994 -406.164 -393.302 -380.405 -367.467 -354.482 -341.447 -328.356 -315.204 -301.987 -288.698 -275.335 -261.891 -248.362 -234.742 -221.027 -207.212 -193.292 -179.262 -165.117 -150.851 -136.46 -121.939 -107.283 -92.4863 -2613.91 -2589.29 -2564.53 -2539.63 -2514.61 -2489.46 -2464.19 -2438.81 -2413.33 -2387.75 -2362.09 -2336.35 -2310.54 -2284.68 -2258.77 -2232.83 -2206.87 -2180.9 -2154.93 -2128.98 -2103.05 -2077.17 -2051.33 -2025.55 -1999.85 -1974.24 -1948.72 -1923.31 -1898.02 -1872.85 -1847.82 -1822.94 -1798.21 -1773.65 -1749.26 -1725.04 -1701.01 -1677.18 -1653.53 -1630.09 -1606.86 -1583.83 -1561.02 -1538.42 -1516.04 -1493.89 -1471.95 -1450.24 -1428.75 -1407.49 -1386.45 -1365.64 -1345.04 -1324.67 -1304.52 -1284.58 -1264.86 -1245.35 -1226.06 -1206.97 -1188.08 -1169.39 -1150.9 -1132.61 -1114.5 -1096.58 -1078.83 -1061.26 -1043.87 -1026.63 -1009.56 -992.651 -975.889 -959.272 -942.797 -926.457 -910.248 -894.163 -878.198 -862.347 -846.604 -830.964 -815.422 -799.972 -784.608 -769.324 -754.116 -738.977 -723.901 -708.884 -693.919 -679.001 -664.125 -649.284 -634.472 -619.686 -604.917 -590.162 -575.414 -560.669 -545.919 -531.16 -516.386 -501.591 -486.771 -471.919 -457.029 -442.097 -427.116 -412.082 -396.988 -381.829 -366.599 -351.294 -335.906 -320.432 -304.865 -289.199 -273.43 -257.551 -241.557 -225.443 -209.202 -192.83 -176.321 -159.668 -142.867 -125.912 -2987.65 -2959.73 -2931.65 -2903.42 -2875.04 -2846.52 -2817.87 -2789.09 -2760.19 -2731.19 -2702.08 -2672.89 -2643.62 -2614.29 -2584.91 -2555.49 -2526.04 -2496.58 -2467.12 -2437.67 -2408.26 -2378.88 -2349.56 -2320.31 -2291.14 -2262.06 -2233.09 -2204.24 -2175.52 -2146.94 -2118.52 -2090.26 -2062.17 -2034.26 -2006.55 -1979.03 -1951.72 -1924.63 -1897.75 -1871.1 -1844.68 -1818.5 -1792.56 -1766.86 -1741.41 -1716.2 -1691.25 -1666.55 -1642.1 -1617.9 -1593.96 -1570.27 -1546.83 -1523.64 -1500.7 -1478.01 -1455.56 -1433.35 -1411.38 -1389.65 -1368.14 -1346.87 -1325.82 -1304.98 -1284.37 -1263.96 -1243.76 -1223.76 -1203.95 -1184.33 -1164.9 -1145.65 -1126.57 -1107.66 -1088.9 -1070.31 -1051.87 -1033.56 -1015.4 -997.371 -979.465 -961.679 -944.006 -926.44 -908.975 -891.605 -874.322 -857.121 -839.996 -822.941 -805.948 -789.012 -772.126 -755.285 -738.481 -721.709 -704.962 -688.233 -671.518 -654.809 -638.101 -621.386 -604.659 -587.914 -571.144 -554.343 -537.505 -520.624 -503.694 -486.708 -469.661 -452.546 -435.357 -418.088 -400.733 -383.286 -365.74 -348.09 -330.33 -312.452 -294.452 -276.323 -258.059 -239.653 -221.101 -202.395 -183.529 -164.497 -3361.52 -3330.35 -3299.01 -3267.5 -3235.82 -3203.99 -3172.01 -3139.88 -3107.62 -3075.25 -3042.76 -3010.17 -2977.5 -2944.75 -2911.95 -2879.1 -2846.22 -2813.32 -2780.43 -2747.54 -2714.69 -2681.88 -2649.12 -2616.44 -2583.85 -2551.36 -2518.99 -2486.75 -2454.65 -2422.7 -2390.93 -2359.33 -2327.92 -2296.71 -2265.72 -2234.94 -2204.39 -2174.08 -2144 -2114.18 -2084.62 -2055.31 -2026.27 -1997.5 -1969.01 -1940.79 -1912.84 -1885.18 -1857.8 -1830.7 -1803.88 -1777.34 -1751.08 -1725.1 -1699.4 -1673.97 -1648.82 -1623.93 -1599.31 -1574.95 -1550.86 -1527.01 -1503.42 -1480.07 -1456.97 -1434.1 -1411.46 -1389.04 -1366.85 -1344.87 -1323.09 -1301.52 -1280.14 -1258.95 -1237.95 -1217.12 -1196.46 -1175.97 -1155.63 -1135.44 -1115.39 -1095.48 -1075.7 -1056.04 -1036.5 -1017.07 -997.737 -978.501 -959.353 -940.285 -921.292 -902.366 -883.501 -864.689 -845.923 -827.197 -808.504 -789.836 -771.188 -752.551 -733.92 -715.287 -696.646 -677.99 -659.312 -640.605 -621.862 -603.078 -584.244 -565.355 -546.403 -527.383 -508.287 -489.108 -469.84 -450.477 -431.012 -411.437 -391.748 -371.936 -351.995 -331.919 -311.701 -291.335 -270.813 -250.13 -229.278 -208.251 -3735.53 -3701.17 -3666.62 -3631.88 -3596.97 -3561.87 -3526.61 -3491.2 -3455.64 -3419.94 -3384.13 -3348.2 -3312.18 -3276.07 -3239.9 -3203.68 -3167.42 -3131.14 -3094.86 -3058.59 -3022.35 -2986.15 -2950.02 -2913.97 -2878 -2842.15 -2806.43 -2770.84 -2735.4 -2700.14 -2665.06 -2630.16 -2595.48 -2561.01 -2526.78 -2492.78 -2459.03 -2425.53 -2392.3 -2359.35 -2326.67 -2294.28 -2262.18 -2230.37 -2198.86 -2167.65 -2136.75 -2106.16 -2075.87 -2045.89 -2016.22 -1986.86 -1957.81 -1929.07 -1900.63 -1872.49 -1844.65 -1817.11 -1789.86 -1762.91 -1736.24 -1709.85 -1683.74 -1657.9 -1632.32 -1607.01 -1581.95 -1557.15 -1532.58 -1508.26 -1484.16 -1460.29 -1436.64 -1413.2 -1389.96 -1366.92 -1344.07 -1321.4 -1298.9 -1276.58 -1254.41 -1232.4 -1210.54 -1188.81 -1167.22 -1145.75 -1124.39 -1103.15 -1082 -1060.95 -1039.98 -1019.1 -998.28 -977.528 -956.831 -936.183 -915.576 -895.002 -874.455 -853.926 -833.409 -812.895 -792.379 -771.851 -751.305 -730.734 -710.13 -689.486 -668.795 -648.049 -627.242 -606.366 -585.413 -564.378 -543.253 -522.03 -500.702 -479.263 -457.705 -436.021 -414.205 -392.249 -370.146 -347.889 -325.471 -302.886 -280.125 -257.183 -4109.71 -4072.21 -4034.5 -3996.59 -3958.49 -3920.19 -3881.71 -3843.06 -3804.25 -3765.29 -3726.2 -3686.99 -3647.67 -3608.26 -3568.78 -3529.24 -3489.66 -3450.05 -3410.44 -3370.83 -3331.26 -3291.73 -3252.27 -3212.89 -3173.61 -3134.44 -3095.41 -3056.52 -3017.8 -2979.26 -2940.92 -2902.78 -2864.86 -2827.18 -2789.74 -2752.56 -2715.65 -2679.01 -2642.66 -2606.61 -2570.85 -2535.41 -2500.28 -2465.47 -2430.98 -2396.82 -2362.99 -2329.49 -2296.33 -2263.5 -2231.01 -2198.86 -2167.04 -2135.56 -2104.4 -2073.58 -2043.09 -2012.91 -1983.07 -1953.53 -1924.31 -1895.4 -1866.79 -1838.48 -1810.46 -1782.73 -1755.28 -1728.1 -1701.19 -1674.54 -1648.14 -1621.99 -1596.08 -1570.41 -1544.96 -1519.73 -1494.7 -1469.88 -1445.26 -1420.82 -1396.56 -1372.47 -1348.55 -1324.78 -1301.16 -1277.67 -1254.32 -1231.09 -1207.97 -1184.96 -1162.05 -1139.23 -1116.5 -1093.83 -1071.24 -1048.7 -1026.21 -1003.76 -981.351 -958.966 -936.598 -914.241 -891.887 -869.527 -847.154 -824.76 -802.337 -779.878 -757.375 -734.819 -712.204 -689.522 -666.765 -643.925 -620.995 -597.967 -574.835 -551.589 -528.224 -504.731 -481.102 -457.332 -433.411 -409.333 -385.09 -360.676 -336.081 -311.301 -4484.06 -4443.48 -4402.67 -4361.64 -4320.4 -4278.95 -4237.31 -4195.48 -4153.47 -4111.31 -4069 -4026.56 -3984 -3941.34 -3898.6 -3855.79 -3812.94 -3770.06 -3727.16 -3684.28 -3641.43 -3598.62 -3555.88 -3513.22 -3470.67 -3428.24 -3385.95 -3343.81 -3301.85 -3260.08 -3218.52 -3177.18 -3136.07 -3095.21 -3054.62 -3014.3 -2974.26 -2934.53 -2895.09 -2855.98 -2817.18 -2778.72 -2740.6 -2702.81 -2665.38 -2628.3 -2591.57 -2555.2 -2519.2 -2483.55 -2448.27 -2413.35 -2378.79 -2344.59 -2310.75 -2277.27 -2244.14 -2211.36 -2178.93 -2146.85 -2115.1 -2083.69 -2052.6 -2021.84 -1991.4 -1961.27 -1931.44 -1901.92 -1872.68 -1843.73 -1815.05 -1786.65 -1758.51 -1730.62 -1702.98 -1675.58 -1648.41 -1621.46 -1594.72 -1568.2 -1541.86 -1515.72 -1489.76 -1463.97 -1438.34 -1412.87 -1387.55 -1362.36 -1337.3 -1312.36 -1287.53 -1262.81 -1238.18 -1213.64 -1189.17 -1164.77 -1140.44 -1116.15 -1091.91 -1067.7 -1043.52 -1019.36 -995.203 -971.05 -946.89 -922.715 -898.516 -874.285 -850.014 -825.695 -801.32 -776.88 -752.368 -727.775 -703.094 -678.317 -653.435 -628.441 -603.327 -578.085 -552.707 -527.186 -501.514 -475.683 -449.686 -423.514 -397.16 -370.616 -4858.62 -4815 -4771.14 -4727.05 -4682.72 -4638.18 -4593.42 -4548.47 -4503.32 -4458.01 -4412.53 -4366.91 -4321.17 -4275.31 -4229.37 -4183.35 -4137.28 -4091.18 -4045.06 -3998.95 -3952.86 -3906.83 -3860.86 -3814.98 -3769.2 -3723.56 -3678.06 -3632.72 -3587.57 -3542.61 -3497.88 -3453.38 -3409.12 -3365.13 -3321.42 -3278 -3234.89 -3192.09 -3149.61 -3107.47 -3065.67 -3024.23 -2983.14 -2942.43 -2902.08 -2862.11 -2822.52 -2783.31 -2744.48 -2706.05 -2668 -2630.34 -2593.07 -2556.18 -2519.68 -2483.57 -2447.83 -2412.48 -2377.49 -2342.88 -2308.63 -2274.74 -2241.2 -2208.01 -2175.17 -2142.66 -2110.49 -2078.63 -2047.09 -2015.86 -1984.93 -1954.29 -1923.94 -1893.86 -1864.05 -1834.5 -1805.2 -1776.15 -1747.33 -1718.73 -1690.35 -1662.18 -1634.21 -1606.42 -1578.81 -1551.38 -1524.11 -1496.99 -1470.01 -1443.17 -1416.46 -1389.86 -1363.37 -1336.97 -1310.67 -1284.44 -1258.29 -1232.2 -1206.16 -1180.17 -1154.21 -1128.27 -1102.36 -1076.45 -1050.54 -1024.63 -998.696 -972.737 -946.743 -920.706 -894.618 -868.469 -842.251 -815.956 -789.576 -763.103 -736.527 -709.842 -683.037 -656.107 -629.042 -601.834 -574.475 -546.958 -519.274 -491.415 -463.374 -435.142 -5233.38 -5186.79 -5139.93 -5092.83 -5045.48 -4997.89 -4950.07 -4902.04 -4853.81 -4805.4 -4756.81 -4708.07 -4659.2 -4610.2 -4561.1 -4511.93 -4462.7 -4413.42 -4364.13 -4314.85 -4265.59 -4216.37 -4167.22 -4118.17 -4069.22 -4020.41 -3971.75 -3923.25 -3874.95 -3826.86 -3779 -3731.39 -3684.03 -3636.95 -3590.17 -3543.69 -3497.53 -3451.71 -3406.23 -3361.1 -3316.34 -3271.95 -3227.94 -3184.32 -3141.09 -3098.26 -3055.84 -3013.82 -2972.21 -2931.01 -2890.23 -2849.86 -2809.9 -2770.36 -2731.23 -2692.51 -2654.19 -2616.27 -2578.76 -2541.64 -2504.91 -2468.57 -2432.61 -2397.02 -2361.79 -2326.93 -2292.43 -2258.27 -2224.45 -2190.96 -2157.79 -2124.94 -2092.4 -2060.15 -2028.2 -1996.53 -1965.12 -1933.99 -1903.1 -1872.46 -1842.06 -1811.88 -1781.92 -1752.16 -1722.6 -1693.23 -1664.04 -1635.01 -1606.15 -1577.43 -1548.86 -1520.41 -1492.09 -1463.87 -1435.76 -1407.74 -1379.81 -1351.94 -1324.14 -1296.39 -1268.69 -1241.03 -1213.39 -1185.76 -1158.15 -1130.53 -1102.91 -1075.27 -1047.59 -1019.88 -992.127 -964.317 -936.443 -908.497 -880.47 -852.353 -824.138 -795.817 -767.38 -738.82 -710.127 -681.295 -652.313 -623.175 -593.872 -564.395 -534.737 -504.89 -5608.38 -5558.86 -5509.06 -5458.99 -5408.67 -5358.09 -5307.27 -5256.22 -5204.96 -5153.5 -5101.86 -5050.05 -4998.1 -4946.01 -4893.82 -4841.54 -4789.2 -4736.81 -4684.4 -4631.99 -4579.6 -4527.26 -4474.99 -4422.81 -4370.74 -4318.81 -4267.03 -4215.43 -4164.03 -4112.85 -4061.91 -4011.22 -3960.81 -3910.68 -3860.87 -3811.37 -3762.21 -3713.4 -3664.95 -3616.88 -3569.19 -3521.89 -3474.99 -3428.5 -3382.43 -3336.78 -3291.55 -3246.75 -3202.39 -3158.47 -3114.98 -3071.93 -3029.32 -2987.14 -2945.4 -2904.1 -2863.23 -2822.78 -2782.76 -2743.16 -2703.98 -2665.21 -2626.84 -2588.87 -2551.3 -2514.1 -2477.29 -2440.85 -2404.77 -2369.05 -2333.67 -2298.63 -2263.92 -2229.53 -2195.45 -2161.68 -2128.2 -2095 -2062.07 -2029.41 -1997.01 -1964.85 -1932.92 -1901.22 -1869.73 -1838.45 -1807.37 -1776.47 -1745.74 -1715.18 -1684.77 -1654.51 -1624.38 -1594.37 -1564.49 -1534.7 -1505.01 -1475.41 -1445.88 -1416.42 -1387.01 -1357.65 -1328.32 -1299.02 -1269.74 -1240.46 -1211.19 -1181.9 -1152.59 -1123.26 -1093.88 -1064.45 -1034.97 -1005.43 -975.802 -946.095 -916.294 -886.392 -856.379 -826.247 -795.987 -765.591 -735.05 -704.355 -673.499 -642.472 -611.267 -579.875 -5983.62 -5931.22 -5878.54 -5825.57 -5772.32 -5718.81 -5665.04 -5611.03 -5556.79 -5502.34 -5447.69 -5392.87 -5337.89 -5282.77 -5227.53 -5172.2 -5116.8 -5061.35 -5005.87 -4950.39 -4894.93 -4839.51 -4784.16 -4728.9 -4673.76 -4618.76 -4563.92 -4509.26 -4454.81 -4400.58 -4346.6 -4292.89 -4239.46 -4186.34 -4133.53 -4081.06 -4028.94 -3977.18 -3925.81 -3874.82 -3824.24 -3774.07 -3724.32 -3674.99 -3626.11 -3577.67 -3529.67 -3482.13 -3435.05 -3388.42 -3342.26 -3296.56 -3251.32 -3206.54 -3162.23 -3118.37 -3074.97 -3032.02 -2989.52 -2947.47 -2905.86 -2864.68 -2823.93 -2783.61 -2743.7 -2704.2 -2665.11 -2626.41 -2588.09 -2550.16 -2512.59 -2475.39 -2438.53 -2402.02 -2365.85 -2329.99 -2294.45 -2259.22 -2224.28 -2189.62 -2155.24 -2121.12 -2087.26 -2053.64 -2020.25 -1987.08 -1954.13 -1921.38 -1888.81 -1856.43 -1824.22 -1792.17 -1760.27 -1728.51 -1696.87 -1665.36 -1633.95 -1602.64 -1571.41 -1540.27 -1509.19 -1478.17 -1447.19 -1416.25 -1385.34 -1354.45 -1323.56 -1292.68 -1261.78 -1230.86 -1199.91 -1168.91 -1137.87 -1106.77 -1075.6 -1044.36 -1013.02 -981.594 -950.061 -918.414 -886.646 -854.746 -822.706 -790.518 -758.173 -725.663 -692.978 -660.112 -6359.12 -6303.91 -6248.39 -6192.56 -6136.45 -6080.05 -6023.38 -5966.46 -5909.3 -5851.91 -5794.31 -5736.53 -5678.58 -5620.48 -5562.25 -5503.93 -5445.52 -5387.06 -5328.56 -5270.06 -5211.57 -5153.13 -5094.76 -5036.48 -4978.31 -4920.29 -4862.43 -4804.76 -4747.3 -4690.08 -4633.11 -4576.41 -4520.01 -4463.93 -4408.17 -4352.77 -4297.73 -4243.07 -4188.81 -4134.95 -4081.51 -4028.5 -3975.93 -3923.82 -3872.15 -3820.96 -3770.23 -3719.97 -3670.2 -3620.91 -3572.1 -3523.77 -3475.94 -3428.59 -3381.72 -3335.34 -3289.43 -3244.01 -3199.06 -3154.58 -3110.56 -3067 -3023.9 -2981.25 -2939.03 -2897.25 -2855.9 -2814.97 -2774.44 -2734.32 -2694.59 -2655.24 -2616.27 -2577.66 -2539.4 -2501.5 -2463.93 -2426.68 -2389.75 -2353.12 -2316.78 -2280.73 -2244.96 -2209.44 -2174.17 -2139.15 -2104.35 -2069.78 -2035.41 -2001.24 -1967.25 -1933.44 -1899.8 -1866.3 -1832.96 -1799.74 -1766.64 -1733.66 -1700.78 -1667.98 -1635.27 -1602.62 -1570.04 -1537.5 -1505 -1472.53 -1440.07 -1407.63 -1375.18 -1342.72 -1310.24 -1277.72 -1245.17 -1212.56 -1179.9 -1147.16 -1114.35 -1081.45 -1048.45 -1015.35 -982.127 -948.782 -915.305 -881.685 -847.915 -813.986 -779.889 -745.616 -6734.91 -6676.93 -6618.62 -6560 -6501.07 -6441.84 -6382.33 -6322.55 -6262.51 -6202.24 -6141.75 -6081.06 -6020.19 -5959.16 -5898 -5836.73 -5775.37 -5713.94 -5652.48 -5591.01 -5529.56 -5468.14 -5406.79 -5345.53 -5284.39 -5223.4 -5162.57 -5101.94 -5041.52 -4981.34 -4921.43 -4861.8 -4802.47 -4743.47 -4684.81 -4626.51 -4568.59 -4511.07 -4453.96 -4397.27 -4341.01 -4285.21 -4229.86 -4174.98 -4120.58 -4066.66 -4013.23 -3960.29 -3907.86 -3855.93 -3804.51 -3753.59 -3703.19 -3653.29 -3603.9 -3555.02 -3506.65 -3458.77 -3411.4 -3364.51 -3318.12 -3272.21 -3226.78 -3181.82 -3137.32 -3093.29 -3049.7 -3006.55 -2963.84 -2921.55 -2879.68 -2838.21 -2797.15 -2756.46 -2716.16 -2676.22 -2636.64 -2597.41 -2558.51 -2519.93 -2481.67 -2443.71 -2406.05 -2368.66 -2331.55 -2294.69 -2258.08 -2221.71 -2185.56 -2149.63 -2113.9 -2078.36 -2043 -2007.81 -1972.77 -1937.89 -1903.14 -1868.51 -1834 -1799.6 -1765.28 -1731.05 -1696.89 -1662.79 -1628.74 -1594.73 -1560.74 -1526.78 -1492.83 -1458.87 -1424.9 -1390.92 -1356.9 -1322.83 -1288.72 -1254.55 -1220.31 -1185.99 -1151.58 -1117.07 -1082.46 -1047.73 -1012.87 -977.88 -942.747 -907.463 -872.018 -836.405 -7111 -7050.3 -6989.26 -6927.89 -6866.19 -6804.19 -6741.89 -6679.31 -6616.45 -6553.35 -6490.02 -6426.47 -6362.73 -6298.83 -6234.78 -6170.62 -6106.36 -6042.03 -5977.65 -5913.27 -5848.89 -5784.55 -5720.27 -5656.09 -5592.03 -5528.11 -5464.36 -5400.81 -5337.48 -5274.4 -5211.58 -5149.06 -5086.85 -5024.97 -4963.45 -4902.31 -4841.55 -4781.21 -4721.28 -4661.8 -4602.77 -4544.2 -4486.11 -4428.5 -4371.39 -4314.79 -4258.69 -4203.11 -4148.05 -4093.52 -4039.51 -3986.04 -3933.1 -3880.68 -3828.8 -3777.45 -3726.63 -3676.33 -3626.56 -3577.3 -3528.56 -3480.32 -3432.59 -3385.35 -3338.59 -3292.32 -3246.53 -3201.2 -3156.32 -3111.89 -3067.91 -3024.35 -2981.2 -2938.47 -2896.14 -2854.2 -2812.63 -2771.43 -2730.59 -2690.1 -2649.93 -2610.09 -2570.57 -2531.34 -2492.4 -2453.74 -2415.34 -2377.2 -2339.3 -2301.63 -2264.18 -2226.94 -2189.9 -2153.04 -2116.36 -2079.84 -2043.47 -2007.23 -1971.13 -1935.15 -1899.27 -1863.48 -1827.78 -1792.16 -1756.6 -1721.08 -1685.62 -1650.18 -1614.76 -1579.35 -1543.94 -1508.52 -1473.08 -1437.61 -1402.11 -1366.55 -1330.93 -1295.24 -1259.47 -1223.61 -1187.66 -1151.6 -1115.42 -1079.12 -1042.69 -1006.11 -969.385 -932.497 -7487.4 -7424.03 -7360.32 -7296.25 -7231.85 -7167.12 -7102.08 -7036.75 -6971.13 -6905.25 -6839.12 -6772.78 -6706.23 -6639.5 -6572.62 -6505.61 -6438.51 -6371.32 -6304.09 -6236.83 -6169.59 -6102.37 -6035.22 -5968.16 -5901.22 -5834.43 -5767.81 -5701.39 -5635.19 -5569.25 -5503.58 -5438.21 -5373.16 -5308.46 -5244.12 -5180.17 -5116.62 -5053.49 -4990.8 -4928.56 -4866.79 -4805.5 -4744.7 -4684.41 -4624.63 -4565.37 -4506.64 -4448.45 -4390.79 -4333.69 -4277.13 -4221.13 -4165.68 -4110.78 -4056.44 -4002.65 -3949.41 -3896.72 -3844.57 -3792.97 -3741.9 -3691.36 -3641.35 -3591.86 -3542.87 -3494.4 -3446.42 -3398.92 -3351.91 -3305.37 -3259.29 -3213.66 -3168.47 -3123.72 -3079.38 -3035.46 -2991.93 -2948.8 -2906.04 -2863.64 -2821.6 -2779.91 -2738.55 -2697.5 -2656.77 -2616.33 -2576.17 -2536.29 -2496.67 -2457.29 -2418.16 -2379.25 -2340.55 -2302.05 -2263.75 -2225.62 -2187.66 -2149.86 -2112.19 -2074.67 -2037.26 -1999.96 -1962.76 -1925.65 -1888.61 -1851.64 -1814.72 -1777.85 -1741.01 -1704.19 -1667.38 -1630.58 -1593.77 -1556.94 -1520.08 -1483.18 -1446.23 -1409.23 -1372.15 -1335 -1297.77 -1260.43 -1222.99 -1185.44 -1147.77 -1109.96 -1072.01 -1033.91 -7864.13 -7798.16 -7731.81 -7665.11 -7598.05 -7530.65 -7462.93 -7394.89 -7326.56 -7257.95 -7189.09 -7119.99 -7050.69 -6981.19 -6911.53 -6841.74 -6771.83 -6701.84 -6631.8 -6561.73 -6491.66 -6421.63 -6351.65 -6281.77 -6212 -6142.38 -6072.94 -6003.69 -5934.68 -5865.92 -5797.44 -5729.27 -5661.43 -5593.94 -5526.83 -5460.11 -5393.81 -5327.93 -5262.51 -5197.56 -5133.09 -5069.11 -5005.65 -4942.7 -4880.29 -4818.41 -4757.09 -4696.31 -4636.1 -4576.46 -4517.38 -4458.88 -4400.96 -4343.61 -4286.83 -4230.63 -4175 -4119.95 -4065.46 -4011.53 -3958.17 -3905.36 -3853.09 -3801.37 -3750.19 -3699.53 -3649.39 -3599.76 -3550.64 -3502.01 -3453.86 -3406.19 -3358.98 -3312.22 -3265.91 -3220.03 -3174.57 -3129.52 -3084.87 -3040.61 -2996.72 -2953.19 -2910.02 -2867.19 -2824.68 -2782.49 -2740.6 -2699.01 -2657.69 -2616.64 -2575.85 -2535.3 -2494.97 -2454.87 -2414.98 -2375.28 -2335.76 -2296.42 -2257.23 -2218.19 -2179.29 -2140.51 -2101.85 -2063.28 -2024.81 -1986.42 -1948.09 -1909.83 -1871.61 -1833.42 -1795.26 -1757.12 -1718.98 -1680.83 -1642.67 -1604.48 -1566.26 -1527.99 -1489.66 -1451.27 -1412.8 -1374.25 -1335.61 -1296.86 -1258 -1219.02 -1179.91 -1140.67 -8241.22 -8172.69 -8103.77 -8034.47 -7964.81 -7894.79 -7824.43 -7753.75 -7682.76 -7611.48 -7539.93 -7468.14 -7396.13 -7323.91 -7251.53 -7178.99 -7106.34 -7033.6 -6960.8 -6887.97 -6815.13 -6742.33 -6669.58 -6596.92 -6524.37 -6451.97 -6379.75 -6307.73 -6235.95 -6164.42 -6093.19 -6022.26 -5951.67 -5881.44 -5811.59 -5742.15 -5673.13 -5604.56 -5536.45 -5468.82 -5401.69 -5335.07 -5268.97 -5203.41 -5138.4 -5073.94 -5010.05 -4946.74 -4884 -4821.85 -4760.29 -4699.33 -4638.95 -4579.18 -4520 -4461.42 -4403.44 -4346.04 -4289.24 -4233.03 -4177.39 -4122.33 -4067.85 -4013.93 -3960.56 -3907.75 -3855.48 -3803.75 -3752.53 -3701.84 -3651.65 -3601.96 -3552.76 -3504.03 -3455.76 -3407.95 -3360.58 -3313.65 -3267.13 -3221.02 -3175.31 -3129.98 -3085.03 -3040.43 -2996.18 -2952.27 -2908.67 -2865.39 -2822.41 -2779.71 -2737.29 -2695.13 -2653.22 -2611.54 -2570.09 -2528.84 -2487.8 -2446.95 -2406.27 -2365.76 -2325.4 -2285.18 -2245.09 -2205.11 -2165.24 -2125.47 -2085.77 -2046.15 -2006.6 -1967.09 -1927.62 -1888.18 -1848.75 -1809.34 -1769.92 -1730.49 -1691.03 -1651.55 -1612.02 -1572.44 -1532.79 -1493.08 -1453.28 -1413.4 -1373.42 -1333.33 -1293.12 -1252.79 -8618.68 -8547.64 -8476.2 -8404.36 -8332.15 -8259.56 -8186.63 -8113.35 -8039.75 -7965.85 -7891.67 -7817.24 -7742.56 -7667.69 -7592.62 -7517.41 -7442.06 -7366.62 -7291.12 -7215.57 -7140.02 -7064.49 -6989.01 -6913.62 -6838.35 -6763.22 -6688.27 -6613.53 -6539.02 -6464.77 -6390.82 -6317.18 -6243.89 -6170.96 -6098.42 -6026.3 -5954.61 -5883.38 -5812.63 -5742.37 -5672.61 -5603.38 -5534.69 -5466.55 -5398.98 -5331.98 -5265.56 -5199.74 -5134.51 -5069.89 -5005.88 -4942.48 -4879.69 -4817.53 -4755.98 -4695.05 -4634.73 -4575.03 -4515.95 -4457.47 -4399.59 -4342.32 -4285.64 -4229.54 -4174.03 -4119.09 -4064.72 -4010.9 -3957.63 -3904.89 -3852.69 -3801.01 -3749.83 -3699.16 -3648.97 -3599.25 -3550 -3501.2 -3452.85 -3404.92 -3357.41 -3310.31 -3263.59 -3217.26 -3171.3 -3125.69 -3080.42 -3035.48 -2990.87 -2946.55 -2902.53 -2858.79 -2815.31 -2772.09 -2729.11 -2686.36 -2643.83 -2601.5 -2559.36 -2517.41 -2475.63 -2434 -2392.51 -2351.16 -2309.93 -2268.82 -2227.8 -2186.86 -2146.01 -2105.21 -2064.48 -2023.78 -1983.12 -1942.48 -1901.86 -1861.23 -1820.6 -1779.94 -1739.26 -1698.54 -1657.77 -1616.95 -1576.06 -1535.09 -1494.04 -1452.9 -1411.65 -1370.3 -8996.53 -8923.03 -8849.12 -8774.8 -8700.08 -8624.99 -8549.52 -8473.7 -8397.55 -8321.08 -8244.32 -8167.29 -8090.02 -8012.53 -7934.84 -7856.99 -7779.01 -7700.92 -7622.75 -7544.55 -7466.33 -7388.12 -7309.97 -7231.91 -7153.95 -7076.15 -6998.52 -6921.09 -6843.91 -6766.99 -6690.36 -6614.06 -6538.1 -6462.52 -6387.34 -6312.58 -6238.27 -6164.42 -6091.06 -6018.2 -5945.87 -5874.07 -5802.82 -5732.15 -5662.05 -5592.54 -5523.63 -5455.33 -5387.65 -5320.59 -5254.16 -5188.36 -5123.2 -5058.67 -4994.78 -4931.53 -4868.92 -4806.94 -4745.6 -4684.89 -4624.8 -4565.34 -4506.49 -4448.25 -4390.62 -4333.57 -4277.12 -4221.25 -4165.94 -4111.2 -4057.01 -4003.36 -3950.24 -3897.64 -3845.55 -3793.96 -3742.86 -3692.23 -3642.06 -3592.34 -3543.06 -3494.21 -3445.76 -3397.72 -3350.07 -3302.8 -3255.88 -3209.32 -3163.09 -3117.19 -3071.59 -3026.3 -2981.29 -2936.56 -2892.08 -2847.86 -2803.87 -2760.1 -2716.54 -2673.18 -2630.01 -2587.01 -2544.17 -2501.48 -2458.93 -2416.51 -2374.2 -2331.99 -2289.88 -2247.84 -2205.88 -2163.98 -2122.12 -2080.31 -2038.51 -1996.74 -1954.97 -1913.2 -1871.42 -1829.61 -1787.77 -1745.89 -1703.96 -1661.97 -1619.9 -1577.76 -1535.54 -1493.21 -9374.79 -9298.89 -9222.55 -9145.8 -9068.64 -8991.08 -8913.13 -8834.83 -8756.17 -8677.19 -8597.9 -8518.33 -8438.51 -8358.45 -8278.19 -8197.76 -8117.19 -8036.5 -7955.73 -7874.91 -7794.08 -7713.25 -7632.48 -7551.78 -7471.2 -7390.76 -7310.5 -7230.44 -7150.63 -7071.08 -6991.83 -6912.91 -6834.34 -6756.15 -6678.37 -6601.01 -6524.11 -6447.69 -6371.76 -6296.35 -6221.48 -6147.15 -6073.39 -6000.21 -5927.62 -5855.65 -5784.28 -5713.54 -5643.44 -5573.98 -5505.16 -5437 -5369.48 -5302.63 -5236.43 -5170.9 -5106.02 -5041.8 -4978.23 -4915.31 -4853.05 -4791.42 -4730.43 -4670.08 -4610.35 -4551.23 -4492.73 -4434.83 -4377.52 -4320.79 -4264.64 -4209.05 -4154.02 -4099.52 -4045.56 -3992.12 -3939.19 -3886.75 -3834.79 -3783.31 -3732.29 -3681.71 -3631.57 -3581.85 -3532.54 -3483.62 -3435.09 -3386.93 -3339.12 -3291.66 -3244.53 -3197.71 -3151.2 -3104.99 -3059.05 -3013.38 -2967.96 -2922.79 -2877.84 -2833.11 -2788.58 -2744.24 -2700.09 -2656.1 -2612.26 -2568.57 -2525.01 -2481.58 -2438.25 -2395.01 -2351.87 -2308.8 -2265.79 -2222.84 -2179.93 -2137.06 -2094.2 -2051.36 -2008.53 -1965.68 -1922.82 -1879.94 -1837.01 -1794.05 -1751.03 -1707.95 -1664.79 -1621.56 -9753.47 -9675.22 -9596.52 -9517.38 -9437.82 -9357.85 -9277.49 -9196.74 -9115.63 -9034.19 -8952.42 -8870.37 -8788.04 -8705.48 -8622.7 -8539.74 -8456.63 -8373.4 -8290.07 -8206.69 -8123.29 -8039.9 -7956.54 -7873.27 -7790.1 -7707.08 -7624.24 -7541.6 -7459.2 -7377.07 -7295.24 -7213.74 -7132.6 -7051.85 -6971.51 -6891.61 -6812.17 -6733.21 -6654.76 -6576.84 -6499.46 -6422.64 -6346.41 -6270.76 -6195.73 -6121.32 -6047.53 -5974.4 -5901.91 -5830.07 -5758.91 -5688.41 -5618.58 -5549.43 -5480.96 -5413.17 -5346.05 -5279.62 -5213.86 -5148.77 -5084.35 -5020.59 -4957.49 -4895.05 -4833.25 -4772.1 -4711.57 -4651.67 -4592.38 -4533.7 -4475.62 -4418.12 -4361.19 -4304.83 -4249.02 -4193.76 -4139.02 -4084.8 -4031.09 -3977.87 -3925.13 -3872.86 -3821.05 -3769.67 -3718.73 -3668.21 -3618.08 -3568.35 -3519 -3470 -3421.36 -3373.06 -3325.08 -3277.42 -3230.05 -3182.96 -3136.15 -3089.6 -3043.3 -2997.23 -2951.39 -2905.75 -2860.31 -2815.06 -2769.98 -2725.06 -2680.29 -2635.66 -2591.15 -2546.76 -2502.47 -2458.28 -2414.16 -2370.12 -2326.14 -2282.21 -2238.32 -2194.46 -2150.62 -2106.78 -2062.95 -2019.11 -1975.