<?xml version="1.0"?> 
<VTKFile type="StructuredGrid" version="0.1"> 
<StructuredGrid WholeExtent="0 127 0 127 0 0"> 
<Piece Extent="0 127 0 127 0 0"> 
<PointData>
<DataArray type="Float32" Name="u" format="ascii" NumberOfComponents="1"> 
0 0 0 0 0 0 0 0 0 0 0 0 0 0 0 0 0 0 0 0 0 0 0 0 0 0 0 0 0 0 0 0 0 0 0 0 0 0 0 0 0 0 0 0 0 0 0 0 0 0 0 0 0 0 0 0 0 0 0 0 0 0 0 0 0 0 0 0 0 0 0 0 0 0 0 0 0 0 0 0 0 0 0 0 0 0 0 0 0 0 0 0 0 0 0 0 0 0 0 0 0 0 0 0 0 0 0 0 0 0 0 0 0 0 0 0 0 0 0 0 0 0 0 0 0 0 0 0 -459.368 -456.492 -453.652 -450.849 -448.081 -445.35 -442.654 -439.995 -437.372 -434.785 -432.234 -429.719 -427.239 -424.796 -422.389 -420.018 -417.683 -415.384 -413.12 -410.893 -408.701 -406.546 -404.426 -402.342 -400.294 -398.282 -396.305 -394.364 -392.459 -390.59 -388.756 -386.958 -385.196 -383.469 -381.778 -380.122 -378.502 -376.917 -375.368 -373.854 -372.376 -370.933 -369.525 -368.152 -366.815 -365.513 -364.247 -363.015 -361.819 -360.657 -359.531 -358.439 -357.383 -356.361 -355.375 -354.423 -353.506 -352.623 -351.775 -350.962 -350.184 -349.44 -348.73 -348.055 -347.414 -346.808 -346.236 -345.698 -345.194 -344.724 -344.289 -343.887 -343.519 -343.185 -342.885 -342.619 -342.386 -342.186 -342.021 -341.888 -341.79 -341.724 -341.692 -341.693 -341.727 -341.794 -341.893 -342.026 -342.192 -342.39 -342.621 -342.885 -343.18 -343.509 -343.869 -344.262 -344.687 -345.144 -345.634 -346.154 -346.707 -347.292 -347.908 -348.555 -349.234 -349.944 -350.686 -351.458 -352.262 -353.096 -353.962 -354.858 -355.784 -356.742 -357.729 -358.747 -359.795 -360.874 -361.982 -363.12 -364.288 -365.485 -366.712 -367.969 -369.255 -370.569 -371.914 -373.287 -918.606 -912.889 -907.244 -901.669 -896.166 -890.734 -885.374 -880.085 -874.867 -869.72 -864.644 -859.64 -854.707 -849.846 -845.055 -840.336 -835.688 -831.111 -826.605 -822.17 -817.807 -813.514 -809.293 -805.142 -801.063 -797.055 -793.117 -789.251 -785.455 -781.73 -778.076 -774.493 -770.981 -767.539 -764.168 -760.867 -757.637 -754.478 -751.389 -748.37 -745.422 -742.544 -739.736 -736.998 -734.33 -731.733 -729.205 -726.747 -724.359 -722.041 -719.793 -717.614 -715.504 -713.464 -711.494 -709.592 -707.76 -705.997 -704.303 -702.677 -701.121 -699.633 -698.214 -696.864 -695.581 -694.368 -693.222 -692.144 -691.135 -690.193 -689.319 -688.512 -687.774 -687.102 -686.498 -685.961 -685.49 -685.087 -684.751 -684.481 -684.277 -684.14 -684.069 -684.064 -684.125 -684.251 -684.443 -684.701 -685.024 -685.412 -685.864 -686.382 -686.964 -687.611 -688.322 -689.097 -689.936 -690.839 -691.805 -692.835 -693.928 -695.083 -696.302 -697.583 -698.927 -700.333 -701.801 -703.331 -704.923 -706.576 -708.29 -710.065 -711.901 -713.798 -715.755 -717.772 -719.849 -721.986 -724.183 -726.438 -728.753 -731.126 -733.559 -736.049 -738.597 -741.204 -743.868 -746.589 -1377.73 -1369.21 -1360.79 -1352.48 -1344.27 -1336.17 -1328.17 -1320.28 -1312.5 -1304.82 -1297.25 -1289.78 -1282.42 -1275.16 -1268.01 -1260.97 -1254.03 -1247.19 -1240.47 -1233.84 -1227.33 -1220.92 -1214.61 -1208.41 -1202.32 -1196.33 -1190.45 -1184.67 -1179 -1173.43 -1167.97 -1162.62 -1157.37 -1152.22 -1147.18 -1142.25 -1137.42 -1132.69 -1128.07 -1123.56 -1119.15 -1114.85 -1110.64 -1106.55 -1102.56 -1098.67 -1094.89 -1091.21 -1087.63 -1084.16 -1080.8 -1077.54 -1074.38 -1071.32 -1068.37 -1065.52 -1062.78 -1060.13 -1057.59 -1055.16 -1052.82 -1050.59 -1048.46 -1046.44 -1044.51 -1042.69 -1040.97 -1039.35 -1037.83 -1036.42 -1035.1 -1033.89 -1032.78 -1031.76 -1030.85 -1030.04 -1029.33 -1028.71 -1028.2 -1027.79 -1027.47 -1027.26 -1027.14 -1027.13 -1027.21 -1027.39 -1027.66 -1028.04 -1028.51 -1029.08 -1029.74 -1030.51 -1031.36 -1032.32 -1033.37 -1034.52 -1035.76 -1037.1 -1038.53 -1040.05 -1041.67 -1043.39 -1045.2 -1047.1 -1049.09 -1051.18 -1053.36 -1055.63 -1058 -1060.45 -1063 -1065.64 -1068.36 -1071.18 -1074.09 -1077.09 -1080.18 -1083.35 -1086.62 -1089.97 -1093.41 -1096.94 -1100.55 -1104.26 -1108.04 -1111.92 -1115.88 -1119.92 -1836.75 -1825.46 -1814.3 -1803.28 -1792.4 -1781.66 -1771.06 -1760.6 -1750.28 -1740.09 -1730.05 -1720.14 -1710.38 -1700.75 -1691.27 -1681.92 -1672.71 -1663.64 -1654.72 -1645.93 -1637.28 -1628.77 -1620.4 -1612.17 -1604.08 -1596.12 -1588.31 -1580.64 -1573.11 -1565.71 -1558.46 -1551.34 -1544.37 -1537.53 -1530.84 -1524.28 -1517.86 -1511.58 -1505.44 -1499.44 -1493.57 -1487.85 -1482.26 -1476.82 -1471.51 -1466.34 -1461.31 -1456.41 -1451.66 -1447.04 -1442.56 -1438.22 -1434.01 -1429.94 -1426.01 -1422.22 -1418.56 -1415.05 -1411.66 -1408.42 -1405.31 -1402.33 -1399.49 -1396.79 -1394.22 -1391.79 -1389.49 -1387.33 -1385.31 -1383.41 -1381.65 -1380.03 -1378.54 -1377.18 -1375.96 -1374.87 -1373.91 -1373.08 -1372.39 -1371.83 -1371.4 -1371.1 -1370.93 -1370.89 -1370.99 -1371.21 -1371.56 -1372.05 -1372.66 -1373.4 -1374.27 -1375.27 -1376.39 -1377.65 -1379.03 -1380.53 -1382.17 -1383.93 -1385.81 -1387.82 -1389.96 -1392.22 -1394.61 -1397.11 -1399.75 -1402.5 -1405.38 -1408.38 -1411.5 -1414.74 -1418.1 -1421.59 -1425.19 -1428.91 -1432.75 -1436.71 -1440.79 -1444.99 -1449.3 -1453.73 -1458.28 -1462.94 -1467.71 -1472.6 -1477.61 -1482.73 -1487.96 -1493.31 -2295.69 -2281.65 -2267.79 -2254.1 -2240.58 -2227.23 -2214.05 -2201.05 -2188.22 -2175.56 -2163.07 -2150.75 -2138.61 -2126.64 -2114.84 -2103.21 -2091.76 -2080.48 -2069.37 -2058.43 -2047.67 -2037.08 -2026.66 -2016.42 -2006.35 -1996.45 -1986.72 -1977.17 -1967.79 -1958.58 -1949.55 -1940.69 -1932 -1923.48 -1915.14 -1906.97 -1898.97 -1891.15 -1883.49 -1876.01 -1868.71 -1861.57 -1854.61 -1847.82 -1841.2 -1834.75 -1828.48 -1822.37 -1816.44 -1810.68 -1805.09 -1799.67 -1794.42 -1789.35 -1784.44 -1779.71 -1775.14 -1770.75 -1766.52 -1762.46 -1758.58 -1754.86 -1751.31 -1747.93 -1744.72 -1741.68 -1738.81 -1736.1 -1733.56 -1731.19 -1728.98 -1726.95 -1725.07 -1723.37 -1721.83 -1720.45 -1719.24 -1718.2 -1717.32 -1716.6 -1716.05 -1715.66 -1715.44 -1715.38 -1715.47 -1715.74 -1716.16 -1716.74 -1717.49 -1718.39 -1719.46 -1720.68 -1722.06 -1723.61 -1725.31 -1727.16 -1729.18 -1731.35 -1733.68 -1736.16 -1738.8 -1741.59 -1744.54 -1747.64 -1750.9 -1754.3 -1757.86 -1761.57 -1765.44 -1769.45 -1773.61 -1777.93 -1782.39 -1787 -1791.75 -1796.66 -1801.71 -1806.9 -1812.25 -1817.73 -1823.36 -1829.14 -1835.05 -1841.11 -1847.31 -1853.65 -1860.13 -1866.76 -2754.55 -2737.81 -2721.27 -2704.94 -2688.81 -2672.89 -2657.17 -2641.65 -2626.33 -2611.22 -2596.32 -2581.62 -2567.12 -2552.83 -2538.74 -2524.85 -2511.18 -2497.7 -2484.43 -2471.37 -2458.51 -2445.86 -2433.42 -2421.18 -2409.14 -2397.31 -2385.69 -2374.27 -2363.06 -2352.05 -2341.25 -2330.65 -2320.27 -2310.08 -2300.1 -2290.33 -2280.77 -2271.41 -2262.25 -2253.3 -2244.56 -2236.02 -2227.69 -2219.56 -2211.64 -2203.92 -2196.41 -2189.1 -2181.99 -2175.1 -2168.4 -2161.91 -2155.62 -2149.54 -2143.66 -2137.99 -2132.52 -2127.25 -2122.18 -2117.32 -2112.65 -2108.2 -2103.94 -2099.88 -2096.03 -2092.37 -2088.92 -2085.67 -2082.61 -2079.76 -2077.11 -2074.65 -2072.4 -2070.34 -2068.48 -2066.82 -2065.35 -2064.08 -2063.01 -2062.14 -2061.46 -2060.97 -2060.68 -2060.59 -2060.69 -2060.98 -2061.46 -2062.14 -2063.01 -2064.07 -2065.32 -2066.76 -2068.39 -2070.21 -2072.22 -2074.42 -2076.8 -2079.37 -2082.13 -2085.07 -2088.2 -2091.52 -2095.02 -2098.7 -2102.56 -2106.61 -2110.83 -2115.24 -2119.83 -2124.6 -2129.55 -2134.67 -2139.97 -2145.45 -2151.11 -2156.94 -2162.94 -2169.12 -2175.47 -2181.99 -2188.69 -2195.55 -2202.59 -2209.79 -2217.16 -2224.7 -2232.41 -2240.28 -3213.35 -3193.94 -3174.77 -3155.83 -3137.12 -3118.65 -3100.41 -3082.41 -3064.64 -3047.11 -3029.81 -3012.75 -2995.92 -2979.33 -2962.98 -2946.86 -2930.98 -2915.34 -2899.93 -2884.76 -2869.83 -2855.13 -2840.68 -2826.46 -2812.47 -2798.73 -2785.22 -2771.95 -2758.92 -2746.13 -2733.58 -2721.26 -2709.19 -2697.35 -2685.75 -2674.38 -2663.26 -2652.37 -2641.73 -2631.32 -2621.14 -2611.21 -2601.52 -2592.06 -2582.84 -2573.86 -2565.11 -2556.61 -2548.34 -2540.3 -2532.51 -2524.95 -2517.63 -2510.54 -2503.69 -2497.08 -2490.7 -2484.56 -2478.66 -2472.98 -2467.55 -2462.35 -2457.38 -2452.65 -2448.15 -2443.88 -2439.85 -2436.05 -2432.48 -2429.14 -2426.04 -2423.16 -2420.52 -2418.11 -2415.92 -2413.97 -2412.24 -2410.75 -2409.48 -2408.44 -2407.63 -2407.04 -2406.68 -2406.54 -2406.63 -2406.95 -2407.49 -2408.25 -2409.23 -2410.44 -2411.87 -2413.52 -2415.38 -2417.47 -2419.78 -2422.31 -2425.05 -2428.01 -2431.19 -2434.58 -2438.19 -2442.01 -2446.05 -2450.29 -2454.75 -2459.42 -2464.3 -2469.39 -2474.69 -2480.2 -2485.92 -2491.84 -2497.96 -2504.29 -2510.83 -2517.56 -2524.5 -2531.64 -2538.99 -2546.53 -2554.26 -2562.2 -2570.33 -2578.66 -2587.18 -2595.9 -2604.81 -2613.91 -3672.11 -3650.07 -3628.29 -3606.77 -3585.52 -3564.53 -3543.8 -3523.35 -3503.15 -3483.22 -3463.56 -3444.16 -3425.03 -3406.17 -3387.58 -3369.25 -3351.19 -3333.39 -3315.87 -3298.61 -3281.62 -3264.9 -3248.45 -3232.27 -3216.36 -3200.72 -3185.34 -3170.24 -3155.41 -3140.84 -3126.55 -3112.53 -3098.77 -3085.29 -3072.08 -3059.13 -3046.46 -3034.06 -3021.93 -3010.07 -2998.48 -2987.16 -2976.11 -2965.33 -2954.82 -2944.58 -2934.61 -2924.91 -2915.48 -2906.32 -2897.42 -2888.8 -2880.45 -2872.36 -2864.55 -2857 -2849.72 -2842.71 -2835.96 -2829.48 -2823.27 -2817.33 -2811.65 -2806.24 -2801.1 -2796.22 -2791.6 -2787.25 -2783.16 -2779.34 -2775.78 -2772.49 -2769.45 -2766.68 -2764.17 -2761.92 -2759.93 -2758.2 -2756.73 -2755.52 -2754.57 -2753.88 -2753.44 -2753.26 -2753.33 -2753.66 -2754.25 -2755.08 -2756.18 -2757.52 -2759.12 -2760.96 -2763.06 -2765.41 -2768.01 -2770.85 -2773.94 -2777.28 -2780.86 -2784.69 -2788.77 -2793.08 -2797.64 -2802.44 -2807.48 -2812.77 -2818.29 -2824.04 -2830.04 -2836.27 -2842.73 -2849.44 -2856.37 -2863.53 -2870.93 -2878.56 -2886.41 -2894.5 -2902.81 -2911.35 -2920.11 -2929.09 -2938.3 -2947.73 -2957.38 -2967.25 -2977.34 -2987.65 -4130.84 -4106.2 -4081.85 -4057.78 -4034.02 -4010.54 -3987.36 -3964.47 -3941.88 -3919.58 -3897.58 -3875.88 -3854.47 -3833.36 -3812.54 -3792.02 -3771.8 -3751.88 -3732.26 -3712.94 -3693.91 -3675.19 -3656.76 -3638.64 -3620.81 -3603.29 -3586.06 -3569.14 -3552.52 -3536.19 -3520.17 -3504.46 -3489.04 -3473.92 -3459.11 -3444.6 -3430.39 -3416.48 -3402.88 -3389.57 -3376.57 -3363.87 -3351.48 -3339.38 -3327.59 -3316.1 -3304.91 -3294.02 -3283.43 -3273.15 -3263.16 -3253.48 -3244.1 -3235.01 -3226.23 -3217.75 -3209.57 -3201.69 -3194.11 -3186.83 -3179.84 -3173.16 -3166.77 -3160.68 -3154.89 -3149.4 -3144.2 -3139.3 -3134.69 -3130.38 -3126.36 -3122.64 -3119.21 -3116.08 -3113.24 -3110.69 -3108.43 -3106.46 -3104.79 -3103.4 -3102.3 -3101.49 -3100.97 -3100.74 -3100.79 -3101.13 -3101.75 -3102.66 -3103.85 -3105.33 -3107.08 -3109.12 -3111.43 -3114.03 -3116.91 -3120.06 -3123.49 -3127.19 -3131.17 -3135.43 -3139.95 -3144.75 -3149.82 -3155.16 -3160.77 -3166.65 -3172.79 -3179.2 -3185.88 -3192.82 -3200.02 -3207.48 -3215.21 -3223.19 -3231.43 -3239.93 -3248.68 -3257.69 -3266.96 -3276.47 -3286.24 -3296.25 -3306.51 -3317.03 -3327.78 -3338.78 -3350.03 -3361.52 -4589.57 -4562.35 -4535.46 -4508.88 -4482.63 -4456.7 -4431.09 -4405.8 -4380.84 -4356.2 -4331.89 -4307.9 -4284.24 -4260.9 -4237.89 -4215.21 -4192.85 -4170.82 -4149.12 -4127.75 -4106.71 -4086 -4065.62 -4045.56 -4025.84 -4006.45 -3987.39 -3968.66 -3950.27 -3932.2 -3914.47 -3897.07 -3880 -3863.26 -3846.86 -3830.79 -3815.06 -3799.65 -3784.58 -3769.85 -3755.44 -3741.37 -3727.63 -3714.23 -3701.16 -3688.42 -3676.02 -3663.95 -3652.21 -3640.81 -3629.73 -3618.99 -3608.59 -3598.51 -3588.77 -3579.36 -3570.28 -3561.53 -3553.11 -3545.03 -3537.27 -3529.85 -3522.75 -3515.98 -3509.54 -3503.43 -3497.65 -3492.2 -3487.07 -3482.27 -3477.79 -3473.64 -3469.82 -3466.32 -3463.14 -3460.29 -3457.75 -3455.54 -3453.66 -3452.09 -3450.84 -3449.91 -3449.3 -3449.01 -3449.03 -3449.37 -3450.02 -3450.99 -3452.27 -3453.87 -3455.77 -3457.99 -3460.52 -3463.35 -3466.49 -3469.94 -3473.7 -3477.76 -3482.12 -3486.79 -3491.76 -3497.03 -3502.6 -3508.46 -3514.63 -3521.09 -3527.84 -3534.89 -3542.23 -3549.86 -3557.78 -3565.99 -3574.49 -3583.28 -3592.34 -3601.7 -3611.33 -3621.24 -3631.44 -3641.91 -3652.66 -3663.69 -3674.98 -3686.55 -3698.4 -3710.51 -3722.89 -3735.53 -5048.29 -5018.54 -4989.14 -4960.08 -4931.38 -4903.02 -4875.01 -4847.35 -4820.05 -4793.1 -4766.5 -4740.25 -4714.36 -4688.82 -4663.64 -4638.81 -4614.34 -4590.22 -4566.47 -4543.07 -4520.03 -4497.35 -4475.03 -4453.07 -4431.47 -4410.23 -4389.35 -4368.83 -4348.67 -4328.88 -4309.44 -4290.38 -4271.67 -4253.32 -4235.34 -4217.73 -4200.47 -4183.58 -4167.06 -4150.9 -4135.1 -4119.67 -4104.6 -4089.89 -4075.55 -4061.58 -4047.96 -4034.72 -4021.83 -4009.31 -3997.16 -3985.37 -3973.94 -3962.87 -3952.17 -3941.83 -3931.86 -3922.24 -3912.99 -3904.1 -3895.57 -3887.4 -3879.6 -3872.15 -3865.07 -3858.34 -3851.97 -3845.96 -3840.31 -3835.02 -3830.08 -3825.5 -3821.27 -3817.4 -3813.89 -3810.72 -3807.92 -3805.46 -3803.35 -3801.6 -3800.19 -3799.14 -3798.43 -3798.07 -3798.06 -3798.39 -3799.07 -3800.09 -3801.46 -3803.16 -3805.21 -3807.6 -3810.32 -3813.39 -3816.79 -3820.52 -3824.6 -3829 -3833.74 -3838.8 -3844.2 -3849.93 -3855.98 -3862.36 -3869.07 -3876.09 -3883.44 -3891.12 -3899.11 -3907.42 -3916.04 -3924.98 -3934.24 -3943.8 -3953.68 -3963.87 -3974.37 -3985.17 -3996.28 -4007.69 -4019.4 -4031.41 -4043.73 -4056.33 -4069.24 -4082.44 -4095.93 -4109.71 -5507.04 -5474.78 -5442.9 -5411.4 -5380.27 -5349.52 -5319.14 -5289.14 -5259.52 -5230.28 -5201.42 -5172.94 -5144.84 -5117.13 -5089.79 -5062.85 -5036.28 -5010.11 -4984.31 -4958.91 -4933.89 -4909.26 -4885.02 -4861.16 -4837.7 -4814.62 -4791.94 -4769.65 -4747.75 -4726.24 -4705.12 -4684.39 -4664.06 -4644.12 -4624.57 -4605.42 -4586.66 -4568.29 -4550.32 -4532.74 -4515.56 -4498.77 -4482.38 -4466.38 -4450.78 -4435.57 -4420.75 -4406.33 -4392.31 -4378.68 -4365.44 -4352.6 -4340.16 -4328.11 -4316.45 -4305.18 -4294.31 -4283.84 -4273.75 -4264.06 -4254.76 -4245.85 -4237.34 -4229.21 -4221.48 -4214.13 -4207.18 -4200.61 -4194.43 -4188.64 -4183.24 -4178.23 -4173.6 -4169.35 -4165.5 -4162.02 -4158.93 -4156.22 -4153.89 -4151.95 -4150.38 -4149.19 -4148.38 -4147.95 -4147.89 -4148.21 -4148.91 -4149.97 -4151.41 -4153.22 -4155.4 -4157.95 -4160.87 -4164.15 -4167.8 -4171.81 -4176.19 -4180.93 -4186.02 -4191.48 -4197.29 -4203.47 -4209.99 -4216.87 -4224.1 -4231.69 -4239.62 -4247.9 -4256.52 -4265.49 -4274.81 -4284.46 -4294.46 -4304.79 -4315.46 -4326.47 -4337.81 -4349.48 -4361.48 -4373.81 -4386.47 -4399.45 -4412.76 -4426.38 -4440.33 -4454.59 -4469.17 -4484.06 -5965.82 -5931.1 -5896.77 -5862.85 -5829.33 -5796.21 -5763.49 -5731.18 -5699.27 -5667.77 -5636.67 -5605.99 -5575.71 -5545.84 -5516.38 -5487.33 -5458.7 -5430.48 -5402.67 -5375.28 -5348.3 -5321.74 -5295.59 -5269.86 -5244.55 -5219.66 -5195.19 -5171.14 -5147.5 -5124.29 -5101.5 -5079.13 -5057.18 -5035.66 -5014.56 -4993.88 -4973.62 -4953.79 -4934.38 -4915.4 -4896.84 -4878.7 -4860.99 -4843.71 -4826.85 -4810.41 -4794.4 -4778.82 -4763.66 -4748.92 -4734.61 -4720.73 -4707.26 -4694.23 -4681.62 -4669.43 -4657.67 -4646.33 -4635.41 -4624.92 -4614.85 -4605.2 -4595.97 -4587.17 -4578.79 -4570.82 -4563.28 -4556.16 -4549.45 -4543.16 -4537.29 -4531.84 -4526.81 -4522.19 -4517.98 -4514.19 -4510.81 -4507.84 -4505.29 -4503.14 -4501.41 -4500.08 -4499.17 -4498.65 -4498.55 -4498.85 -4499.55 -4500.65 -4502.16 -4504.06 -4506.37 -4509.07 -4512.16 -4515.66 -4519.54 -4523.82 -4528.49 -4533.55 -4539 -4544.83 -4551.05 -4557.66 -4564.64 -4572.01 -4579.75 -4587.88 -4596.38 -4605.25 -4614.5 -4624.11 -4634.1 -4644.45 -4655.17 -4666.26 -4677.7 -4689.51 -4701.67 -4714.2 -4727.07 -4740.3 -4753.88 -4767.81 -4782.09 -4796.71 -4811.68 -4826.99 -4842.63 -4858.62 -6424.65 -6387.49 -6350.76 -6314.45 -6278.56 -6243.11 -6208.08 -6173.48 -6139.31 -6105.58 -6072.27 -6039.4 -6006.97 -5974.97 -5943.41 -5912.29 -5881.6 -5851.36 -5821.56 -5792.2 -5763.28 -5734.8 -5706.77 -5679.19 -5652.05 -5625.35 -5599.11 -5573.31 -5547.96 -5523.06 -5498.61 -5474.61 -5451.06 -5427.96 -5405.32 -5383.12 -5361.38 -5340.09 -5319.26 -5298.88 -5278.95 -5259.47 -5240.45 -5221.89 -5203.78 -5186.12 -5168.92 -5152.18 -5135.89 -5120.05 -5104.67 -5089.74 -5075.27 -5061.26 -5047.69 -5034.59 -5021.93 -5009.73 -4997.99 -4986.69 -4975.85 -4965.46 -4955.53 -4946.04 -4937.01 -4928.43 -4920.3 -4912.61 -4905.38 -4898.59 -4892.25 -4886.36 -4880.91 -4875.91 -4871.36 -4867.24 -4863.57 -4860.35 -4857.56 -4855.21 -4853.3 -4851.83 -4850.8 -4850.2 -4850.04 -4850.31 -4851.01 -4852.14 -4853.7 -4855.7 -4858.11 -4860.96 -4864.23 -4867.92 -4872.03 -4876.57 -4881.52 -4886.89 -4892.68 -4898.88 -4905.49 -4912.51 -4919.95 -4927.78 -4936.03 -4944.68 -4953.73 -4963.19 -4973.04 -4983.29 -4993.93 -5004.96 -5016.39 -5028.21 -5040.41 -5053 -5065.98 -5079.33 -5093.06 -5107.17 -5121.66 -5136.52 -5151.75 -5167.35 -5183.31 -5199.64 -5216.33 -5233.38 -6883.55 -6843.99 -6804.88 -6766.21 -6728 -6690.23 -6652.92 -6616.07 -6579.66 -6543.72 -6508.23 -6473.21 -6438.64 -6404.54 -6370.9 -6337.72 -6305.01 -6272.76 -6240.99 -6209.68 -6178.84 -6148.47 -6118.57 -6089.14 -6060.19 -6031.71 -6003.71 -5976.18 -5949.13 -5922.56 -5896.46 -5870.84 -5845.71 -5821.05 -5796.87 -5773.17 -5749.95 -5727.22 -5704.96 -5683.19 -5661.91 -5641.1 -5620.78 -5600.94 -5581.59 -5562.72 -5544.33 -5526.43 -5509.02 -5492.09 -5475.64 -5459.68 -5444.2 -5429.2 -5414.69 -5400.67 -5387.13 -5374.07 -5361.49 -5349.4 -5337.79 -5326.66 -5316.02 -5305.85 -5296.17 -5286.96 -5278.24 -5269.99 -5262.23 -5254.94 -5248.13 -5241.79 -5235.93 -5230.55 -5225.64 -5221.2 -5217.23 -5213.74 -5210.71 -5208.16 -5206.07 -5204.45 -5203.29 -5202.6 -5202.37 -5202.61 -5203.3 -5204.46 -5206.07 -5208.14 -5210.67 -5213.64 -5217.08 -5220.96 -5225.29 -5230.07 -5235.29 -5240.96 -5247.07 -5253.63 -5260.62 -5268.05 -5275.92 -5284.22 -5292.95 -5302.11 -5311.7 -5321.72 -5332.16 -5343.03 -5354.31 -5366.02 -5378.13 -5390.67 -5403.61 -5416.97 -5430.73 -5444.9 -5459.47 -5474.44 -5489.81 -5505.58 -5521.74 -5538.3 -5555.24 -5572.57 -5590.28 -5608.38 -7342.54 -7300.61 -7259.15 -7218.16 -7177.64 -7137.6 -7098.04 -7058.95 -7020.34 -6982.22 -6944.57 -6907.41 -6870.74 -6834.55 -6798.86 -6763.65 -6728.93 -6694.71 -6660.97 -6627.74 -6594.99 -6562.75 -6531 -6499.75 -6469.01 -6438.76 -6409.01 -6379.77 -6351.03 -6322.8 -6295.07 -6267.85 -6241.13 -6214.92 -6189.22 -6164.03 -6139.35 -6115.18 -6091.52 -6068.36 -6045.73 -6023.6 -6001.98 -5980.88 -5960.29 -5940.21 -5920.65 -5901.6 -5883.06 -5865.04 -5847.53 -5830.54 -5814.05 -5798.08 -5782.63 -5767.69 -5753.26 -5739.34 -5725.94 -5713.05 -5700.67 -5688.8 -5677.45 -5666.6 -5656.27 -5646.44 -5637.13 -5628.32 -5620.02 -5612.23 -5604.94 -5598.16 -5591.88 -5586.11 -5580.84 -5576.07 -5571.81 -5568.04 -5564.77 -5562 -5559.73 -5557.95 -5556.67 -5555.88 -5555.58 -5555.77 -5556.45 -5557.62 -5559.27 -5561.41 -5564.03 -5567.14 -5570.72 -5574.78 -5579.32 -5584.33 -5589.82 -5595.78 -5602.21 -5609.1 -5616.46 -5624.29 -5632.58 -5641.32 -5650.53 -5660.19 -5670.31 -5680.87 -5691.89 -5703.36 -5715.27 -5727.62 -5740.41 -5753.65 -5767.32 -5781.42 -5795.95 -5810.92 -5826.31 -5842.12 -5858.36 -5875.02 -5892.09 -5909.58 -5927.48 -5945.78 -5964.5 -5983.62 -7801.64 -7757.37 -7713.59 -7670.3 -7627.52 -7585.23 -7543.44 -7502.15 -7461.36 -7421.08 -7381.31 -7342.04 -7303.28 -7265.04 -7227.31 -7190.09 -7153.39 -7117.2 -7081.54 -7046.39 -7011.77 -6977.66 -6944.08 -6911.03 -6878.5 -6846.5 -6815.03 -6784.09 -6753.68 -6723.8 -6694.45 -6665.63 -6637.35 -6609.61 -6582.4 -6555.72 -6529.59 -6503.99 -6478.93 -6454.41 -6430.42 -6406.98 -6384.08 -6361.72 -6339.9 -6318.62 -6297.89 -6277.69 -6258.04 -6238.93 -6220.36 -6202.34 -6184.86 -6167.92 -6151.52 -6135.66 -6120.35 -6105.58 -6091.35 -6077.66 -6064.52 -6051.91 -6039.84 -6028.32 -6017.33 -6006.88 -5996.97 -5987.6 -5978.77 -5970.47 -5962.7 -5955.47 -5948.78 -5942.61 -5936.98 -5931.88 -5927.31 -5923.26 -5919.75 -5916.76 -5914.29 -5912.35 -5910.93 -5910.04 -5909.66 -5909.8 -5910.46 -5911.63 -5913.32 -5915.52 -5918.23 -5921.45 -5925.18 -5929.41 -5934.14 -5939.38 -5945.12 -5951.35 -5958.09 -5965.31 -5973.03 -5981.24 -5989.93 -5999.11 -6008.78 -6018.93 -6029.55 -6040.66 -6052.24 -6064.29 -6076.81 -6089.79 -6103.25 -6117.16 -6131.54 -6146.37 -6161.66 -6177.4 -6193.6 -6210.23 -6227.32 -6244.84 -6262.81 -6281.21 -6300.04 -6319.31 -6339 -6359.12 -8260.85 -8214.28 -8168.21 -8122.67 -8077.64 -8033.13 -7989.14 -7945.68 -7902.74 -7860.33 -7818.45 -7777.1 -7736.29 -7696.01 -7656.26 -7617.06 -7578.39 -7540.27 -7502.69 -7465.65 -7429.17 -7393.22 -7357.83 -7322.99 -7288.7 -7254.96 -7221.78 -7189.15 -7157.08 -7125.57 -7094.62 -7064.22 -7034.39 -7005.12 -6976.41 -6948.26 -6920.68 -6893.67 -6867.22 -6841.33 -6816.02 -6791.27 -6767.09 -6743.48 -6720.43 -6697.96 -6676.06 -6654.72 -6633.96 -6613.77 -6594.15 -6575.1 -6556.62 -6538.71 -6521.38 -6504.61 -6488.42 -6472.79 -6457.74 -6443.25 -6429.34 -6415.99 -6403.22 -6391.01 -6379.37 -6368.3 -6357.8 -6347.86 -6338.48 -6329.67 -6321.43 -6313.75 -6306.63 -6300.07 -6294.07 -6288.63 -6283.75 -6279.43 -6275.66 -6272.44 -6269.78 -6267.67 -6266.11 -6265.1 -6264.64 -6264.72 -6265.35 -6266.52 -6268.24 -6270.49 -6273.28 -6276.6 -6280.46 -6284.85 -6289.78 -6295.23 -6301.2 -6307.71 -6314.73 -6322.27 -6330.34 -6338.91 -6348.01 -6357.61 -6367.72 -6378.34 -6389.46 -6401.09 -6413.21 -6425.83 -6438.95 -6452.55 -6466.65 -6481.23 -6496.3 -6511.85 -6527.87 -6544.37 -6561.35 -6578.79 -6596.7 -6615.08 -6633.91 -6653.21 -6672.96 -6693.16 -6713.81 -6734.91 -8720.21 -8671.36 -8623.04 -8575.26 -8528.02 -8481.32 -8435.17 -8389.56 -8344.49 -8299.98 -8256.02 -8212.62 -8169.77 -8127.47 -8085.74 -8044.57 -8003.97 -7963.92 -7924.45 -7885.55 -7847.21 -7809.45 -7772.26 -7735.65 -7699.61 -7664.15 -7629.28 -7594.98 -7561.26 -7528.13 -7495.59 -7463.63 -7432.25 -7401.47 -7371.27 -7341.67 -7312.65 -7284.23 -7256.4 -7229.16 -7202.52 -7176.47 -7151.02 -7126.17 -7101.91 -7078.25 -7055.18 -7032.72 -7010.85 -6989.58 -6968.91 -6948.84 -6929.37 -6910.49 -6892.22 -6874.55 -6857.47 -6840.99 -6825.12 -6809.84 -6795.16 -6781.07 -6767.59 -6754.7 -6742.41 -6730.71 -6719.61 -6709.1 -6699.19 -6689.87 -6681.14 -6673 -6665.46 -6658.5 -6652.13 -6646.35 -6641.15 -6636.54 -6632.51 -6629.07 -6626.21 -6623.92 -6622.22 -6621.09 -6620.53 -6620.55 -6621.14 -6622.3 -6624.03 -6626.33 -6629.19 -6632.61 -6636.59 -6641.13 -6646.23 -6651.89 -6658.09 -6664.85 -6672.16 -6680.01 -6688.4 -6697.34 -6706.81 -6716.82 -6727.37 -6738.44 -6750.05 -6762.18 -6774.84 -6788.01 -6801.71 -6815.92 -6830.64 -6845.87 -6861.61 -6877.85 -6894.6 -6911.84 -6929.58 -6947.81 -6966.53 -6985.73 -7005.42 -7025.59 -7046.23 -7067.35 -7088.94 -7111 -9179.72 -9128.63 -9078.09 -9028.11 -8978.69 -8929.83 -8881.53 -8833.8 -8786.64 -8740.05 -8694.04 -8648.6 -8603.74 -8559.46 -8515.76 -8472.65 -8430.12 -8388.18 -8346.84 -8306.08 -8265.92 -8226.36 -8187.39 -8149.02 -8111.26 -8074.1 -8037.54 -8001.58 -7966.24 -7931.5 -7897.38 -7863.86 -7830.96 -7798.68 -7767 -7735.95 -7705.51 -7675.69 -7646.49 -7617.91 -7589.95 -7562.61 -7535.9 -7509.8 -7484.34 -7459.49 -7435.27 -7411.68 -7388.71 -7366.37 -7344.66 -7323.57 -7303.11 -7283.27 -7264.07 -7245.49 -7227.53 -7210.21 -7193.51 -7177.43 -7161.99 -7147.16 -7132.97 -7119.4 -7106.45 -7094.13 -7082.43 -7071.35 -7060.9 -7051.06 -7041.85 -7033.25 -7025.28 -7017.92 -7011.17 -7005.05 -6999.53 -6994.63 -6990.34 -6986.66 -6983.59 -6981.12 -6979.26 -6978 -6977.35 -6977.3 -6977.84 -6978.98 -6980.72 -6983.05 -6985.97 -6989.48 -6993.58 -6998.27 -7003.53 -7009.38 -7015.8 -7022.8 -7030.38 -7038.52 -7047.24 -7056.52 -7066.37 -7076.77 -7087.74 -7099.26 -7111.33 -7123.95 -7137.13 -7150.84 -7165.1 -7179.9 -7195.23 -7211.1 -7227.49 -7244.41 -7261.86 -7279.83 -7298.31 -7317.31 -7336.82 -7356.83 -7377.35 -7398.37 -7419.89 -7441.9 -7464.41 -7487.4 -9639.41 -9586.11 -9533.38 -9481.22 -9429.65 -9378.66 -9328.25 -9278.43 -9229.2 -9180.56 -9132.51 -9085.07 -9038.22 -8991.98 -8946.34 -8901.3 -8856.88 -8813.06 -8769.86 -8727.28 -8685.31 -8643.96 -8603.23 -8563.13 -8523.65 -8484.8 -8446.58 -8408.99 -8372.03 -8335.7 -8300.01 -8264.95 -8230.54 -8196.76 -8163.62 -8131.13 -8099.28 -8068.07 -8037.51 -8007.59 -7978.32 -7949.7 -7921.73 -7894.41 -7867.74 -7841.72 -7816.35 -7791.64 -7767.57 -7744.17 -7721.41 -7699.31 -7677.86 -7657.07 -7636.93 -7617.45 -7598.62 -7580.44 -7562.92 -7546.05 -7529.84 -7514.28 -7499.38 -7485.12 -7471.52 -7458.57 -7446.27 -7434.62 -7423.62 -7413.27 -7403.57 -7394.52 -7386.11 -7378.34 -7371.22 -7364.74 -7358.9 -7353.7 -7349.15 -7345.22 -7341.94 -7339.28 -7337.26 -7335.87 -7335.11 -7334.98 -7335.47 -7336.59 -7338.33 -7340.68 -7343.66 -7347.25 -7351.45 -7356.26 -7361.69 -7367.72 -7374.35 -7381.58 -7389.41 -7397.84 -7406.87 -7416.48 -7426.68 -7437.47 -7448.84 -7460.79 -7473.32 -7486.42 -7500.1 -7514.34 -7529.14 -7544.51 -7560.44 -7576.92 -7593.96 -7611.54 -7629.67 -7648.35 -7667.56 -7687.3 -7707.58 -7728.39 -7749.72 -7771.58 -7793.95 -7816.83 -7840.23 -7864.13 -10099.3 -10043.8 -9988.92 -9934.63 -9880.93 -9827.84 -9775.35 -9723.46 -9672.18 -9621.52 -9571.47 -9522.04 -9473.23 -9425.05 -9377.48 -9330.55 -9284.25 -9238.58 -9193.55 -9149.15 -9105.39 -9062.28 -9019.81 -8977.99 -8936.81 -8896.29 -8856.42 -8817.2 -8778.64 -8740.74 -8703.49 -8666.91 -8630.99 -8595.73 -8561.14 -8527.22 -8493.97 -8461.38 -8429.47 -8398.22 -8367.66 -8337.76 -8308.54 -8280 -8252.13 -8224.94 -8198.43 -8172.6 -8147.45 -8122.98 -8099.18 -8076.07 -8053.64 -8031.9 -8010.83 -7990.44 -7970.74 -7951.72 -7933.38 -7915.72 -7898.74 -7882.44 -7866.83 -7851.89 -7837.63 -7824.06 -7811.16 -7798.94 -7787.39 -7776.52 -7766.33 -7756.81 -7747.96 -7739.79 -7732.28 -7725.45 -7719.28 -7713.78 -7708.95 -7704.78 -7701.28 -7698.43 -7696.24 -7694.71 -7693.84 -7693.62 -7694.05 -7695.13 -7696.86 -7699.24 -7702.25 -7705.91 -7710.21 -7715.15 -7720.72 -7726.92 -7733.74 -7741.2 -7749.28 -7757.98 -7767.3 -7777.23 -7787.78 -7798.94 -7810.7 -7823.07 -7836.04 -7849.6 -7863.77 -7878.52 -7893.86 -7909.78 -7926.29 -7943.37 -7961.03 -7979.26 -7998.05 -8017.41 -8037.33 -8057.81 -8078.84 -8100.42 -8122.55 -8145.21 -8168.42 -8192.16 -8216.43 -8241.22 -10559.4 -10501.8 -10444.7 -10388.3 -10332.6 -10277.4 -10222.8 -10168.9 -10115.6 -10063 -10010.9 -9959.54 -9908.79 -9858.68 -9809.23 -9760.42 -9712.26 -9664.75 -9617.91 -9571.72 -9526.19 -9481.33 -9437.14 -9393.61 -9350.76 -9308.58 -9267.07 -9226.24 -9186.1 -9146.63 -9107.85 -9069.75 -9032.34 -8995.62 -8959.58 -8924.24 -8889.6 -8855.64 -8822.39 -8789.83 -8757.97 -8726.81 -8696.35 -8666.59 -8637.53 -8609.18 -8581.53 -8554.59 -8528.35 -8502.82 -8478 -8453.88 -8430.47 -8407.77 -8385.78 -8364.5 -8343.92 -8324.05 -8304.9 -8286.45 -8268.7 -8251.67 -8235.34 -8219.72 -8204.81 -8190.6 -8177.1 -8164.3 -8152.21 -8140.82 -8130.13 -8120.15 -8110.86 -8102.27 -8094.38 -8087.19 -8080.69 -8074.89 -8069.77 -8065.35 -8061.62 -8058.57 -8056.21 -8054.54 -8053.54 -8053.23 -8053.59 -8054.63 -8056.34 -8058.73 -8061.78 -8065.5 -8069.88 -8074.93 -8080.64 -8087 -8094.01 -8101.68 -8109.99 -8118.95 -8128.56 -8138.8 -8149.68 -8161.19 -8173.34 -8186.11 -8199.5 -8213.52 -8228.15 -8243.4 -8259.25 -8275.72 -8292.79 -8310.45 -8328.72 -8347.57 -8367.02 -8387.05 -8407.66 -8428.85 -8450.62 -8472.95 -8495.85 -8519.31 -8543.32 -8567.9 -8593.02 -8618.68 -11019.7 -10960 -10900.9 -10842.4 -10784.5 -10727.3 -10670.7 -10614.8 -10559.5 -10504.9 -10450.9 -10397.6 -10344.9 -10292.9 -10241.6 -10190.9 -10140.9 -10091.6 -10043 -9995 -9947.73 -9901.14 -9855.23 -9810.02 -9765.51 -9721.68 -9678.56 -9636.14 -9594.42 -9553.4 -9513.09 -9473.49 -9434.6 -9396.43 -9358.96 -9322.22 -9286.19 -9250.88 -9216.29 -9182.42 -9149.28 -9116.86 -9085.16 -9054.2 -9023.96 -8994.45 -8965.67 -8937.62 -8910.31 -8883.72 -8857.87 -8832.75 -8808.37 -8784.72 -8761.8 -8739.62 -8718.18 -8697.47 -8677.49 -8658.25 -8639.75 -8621.97 -8604.94 -8588.63 -8573.06 -8558.23 -8544.12 -8530.75 -8518.1 -8506.19 -8495.01 -8484.55 -8474.82 -8465.82 -8457.54 -8449.98 -8443.14 -8437.03 -8431.63 -8426.95 -8422.99 -8419.73 -8417.2 -8415.37 -8414.24 -8413.83 -8414.11 -8415.1 -8416.79 -8419.18 -8422.25 -8426.03 -8430.49 -8435.63 -8441.46 -8447.98 -8455.17 -8463.03 -8471.57 -8480.78 -8490.65 -8501.19 -8512.39 -8524.25 -8536.76 -8549.92 -8563.73 -8578.18 -8593.27 -8608.99 -8625.35 -8642.34 -8659.96 -8678.19 -8697.05 -8716.51 -8736.59 -8757.27 -8778.56 -8800.44 -8822.92 -8845.99 -8869.64 -8893.87 -8918.68 -8944.06 -8970.02 -8996.53 -11480.3 -11418.5 -11357.3 -11296.8 -11236.9 -11177.6 -11119.1 -11061.1 -11003.9 -10947.3 -10891.4 -10836.2 -10781.6 -10727.7 -10674.6 -10622.1 -10570.3 -10519.1 -10468.7 -10419 -10370 -10321.7 -10274.1 -10227.2 -10181.1 -10135.6 -10090.9 -10046.9 -10003.6 -9961.07 -9919.25 -9878.16 -9837.8 -9798.18 -9759.3 -9721.16 -9683.75 -9647.1 -9611.18 -9576.02 -9541.6 -9507.93 -9475.01 -9442.84 -9411.43 -9380.77 -9350.87 -9321.72 -9293.33 -9265.69 -9238.82 -9212.7 -9187.35 -9162.75 -9138.92 -9115.84 -9093.53 -9071.98 -9051.19 -9031.16 -9011.89 -8993.38 -8975.63 -8958.64 -8942.42 -8926.95 -8912.24 -8898.28 -8885.09 -8872.65 -8860.97 -8850.04 -8839.86 -8830.43 -8821.76 -8813.83 -8806.66 -8800.23 -8794.54 -8789.59 -8785.39 -8781.93 -8779.2 -8777.21 -8775.96 -8775.43 -8775.64 -8776.57 -8778.22 -8780.6 -8783.69 -8787.51 -8792.03 -8797.27 -8803.22 -8809.87 -8817.22 -8825.28 -8834.03 -8843.48 -8853.61 -8864.43 -8875.94 -8888.12 -8900.99 -8914.52 -8928.73 -8943.6 -8959.13 -8975.33 -8992.17 -9009.67 -9027.82 -9046.6 -9066.03 -9086.09 -9106.78 -9128.1 -9150.04 -9172.6 -9195.77 -9219.55 -9243.94 -9268.93 -9294.51 -9320.68 -9347.45 -9374.79 -11941.2 -11877.3 -11814.1 -11751.5 -11689.6 -11628.4 -11567.8 -11508 -11448.8 -11390.3 -11332.5 -11275.3 -11218.9 -11163.2 -11108.2 -11053.9 -11000.3 -10947.4 -10895.2 -10843.8 -10793.1 -10743.1 -10693.8 -10645.3 -10597.5 -10550.4 -10504.1 -10458.5 -10413.7 -10369.6 -10326.3 -10283.8 -10241.9 -10200.9 -10160.6 -10121.1 -10082.3 -10044.3 -10007.1 -9970.64 -9934.95 -9900.04 -9865.91 -9832.54 -9799.96 -9768.16 -9737.14 -9706.89 -9677.43 -9648.76 -9620.86 -9593.75 -9567.43 -9541.89 -9517.14 -9493.17 -9469.99 -9447.6 -9425.99 -9405.18 -9385.14 -9365.9 -9347.44 -9329.77 -9312.88 -9296.78 -9281.46 -9266.93 -9253.18 -9240.21 -9228.03 -9216.62 -9205.99 -9196.15 -9187.07 -9178.77 -9171.25 -9164.5 -9158.52 -9153.3 -9148.86 -9145.18 -9142.26 -9140.1 -9138.7 -9138.06 -9138.17 -9139.04 -9140.65 -9143.01 -9146.11 -9149.96 -9154.54 -9159.86 -9165.91 -9172.7 -9180.21 -9188.44 -9197.39 -9207.06 -9217.44 -9228.54 -9240.34 -9252.84 -9266.04 -9279.94 -9294.53 -9309.81 -9325.77 -9342.41 -9359.73 -9377.72 -9396.38 -9415.7 -9435.69 -9456.33 -9477.61 -