<?xml version="1.0"?> 
<VTKFile type="StructuredGrid" version="0.1"> 
<StructuredGrid WholeExtent="0 127 0 127 0 0"> 
<Piece Extent="0 127 0 127 0 0"> 
<PointData>
<DataArray type="Float32" Name="u" format="ascii" NumberOfComponents="1"> 
-60000 -59708 -59536.8 -59400 -59281.5 -59175.7 -59079.2 -58990.2 -58907.5 -58830 -58757.1 -58688.3 -58623 -58561 -58502 -58445.7 -58391.9 -58340.5 -58291.2 -58244 -58198.8 -58155.4 -58113.7 -58073.8 -58035.4 -57998.5 -57963.1 -57929.1 -57896.4 -57865.1 -57835 -57806.2 -57778.5 -57752 -57726.6 -57702.4 -57679.2 -57657 -57635.9 -57615.8 -57596.7 -57578.5 -57561.3 -57545 -57529.6 -57515.1 -57501.5 -57488.8 -57477 -57466 -57455.9 -57446.6 -57438.2 -57430.5 -57423.7 -57417.7 -57412.5 -57408.1 -57404.5 -57401.7 -57399.7 -57398.4 -57398 -57398.3 -57399.4 -57401.3 -57404 -57407.4 -57411.7 -57416.7 -57422.5 -57429 -57436.4 -57444.6 -57453.5 -57463.3 -57473.9 -57485.2 -57497.4 -57510.4 -57524.3 -57539 -57554.5 -57570.9 -57588.2 -57606.3 -57625.4 -57645.3 -57666.2 -57688 -57710.8 -57734.5 -57759.3 -57785 -57811.8 -57839.7 -57868.6 -57898.7 -57929.9 -57962.3 -57995.9 -58030.8 -58067 -58104.6 -58143.6 -58184 -58226 -58269.6 -58314.9 -58362 -58411 -58462.1 -58515.2 -58570.7 -58628.7 -58689.4 -58753.1 -58820.1 -58890.8 -58965.7 -59045.4 -59130.8 -59223.1 -59323.9 -59436.5 -59565.7 -59727.3 -60000 -60000 -59843.2 -59696.9 -59564.1 -59444.4 -59335.6 -59235.9 -59143.7 -59057.9 -58977.6 -58902 -58830.6 -58763 -58698.8 -58637.8 -58579.5 -58523.9 -58470.8 -58419.9 -58371.1 -58324.4 -58279.6 -58236.5 -58195.2 -58155.5 -58117.4 -58080.8 -58045.6 -58011.8 -57979.4 -57948.2 -57918.3 -57889.6 -57862.1 -57835.7 -57810.5 -57786.3 -57763.2 -57741.2 -57720.1 -57700.1 -57681 -57662.9 -57645.8 -57629.5 -57614.2 -57599.8 -57586.3 -57573.6 -57561.9 -57550.9 -57540.8 -57531.6 -57523.2 -57515.6 -57508.8 -57502.9 -57497.7 -57493.4 -57489.8 -57487 -57485.1 -57483.9 -57483.5 -57483.9 -57485.1 -57487 -57489.8 -57493.3 -57497.6 -57502.7 -57508.6 -57515.3 -57522.8 -57531.1 -57540.2 -57550.1 -57560.8 -57572.3 -57584.7 -57597.9 -57611.9 -57626.9 -57642.6 -57659.3 -57676.8 -57695.2 -57714.6 -57734.8 -57756.1 -57778.2 -57801.4 -57825.6 -57850.8 -57877 -57904.3 -57932.7 -57962.2 -57992.9 -58024.8 -58057.9 -58092.3 -58128.1 -58165.2 -58203.7 -58243.7 -58285.3 -58328.5 -58373.5 -58420.3 -58469 -58519.7 -58572.7 -58628 -58685.8 -58746.5 -58810.2 -58877.3 -58948.3 -59023.5 -59103.8 -59190 -59283.5 -59386.1 -59500.9 -59633.5 -59795.2 -60000 -60000 -59881.9 -59765.9 -59654.2 -59548.1 -59447.7 -59353.2 -59264.1 -59180.1 -59100.6 -59025.4 -58954 -58886.1 -58821.4 -58759.7 -58700.7 -58644.3 -58590.3 -58538.6 -58489 -58441.3 -58395.6 -58351.7 -58309.4 -58268.9 -58229.9 -58192.4 -58156.3 -58121.6 -58088.3 -58056.3 -58025.6 -57996 -57967.7 -57940.5 -57914.4 -57889.4 -57865.5 -57842.7 -57820.9 -57800 -57780.2 -57761.3 -57743.4 -57726.4 -57710.3 -57695.2 -57680.9 -57667.5 -57655 -57643.3 -57632.5 -57622.5 -57613.4 -57605.1 -57597.6 -57590.9 -57585.1 -57580 -57575.7 -57572.3 -57569.6 -57567.8 -57566.7 -57566.4 -57566.9 -57568.2 -57570.2 -57573.1 -57576.7 -57581.2 -57586.4 -57592.4 -57599.3 -57606.9 -57615.3 -57624.6 -57634.7 -57645.6 -57657.3 -57669.9 -57683.3 -57697.6 -57712.7 -57728.8 -57745.7 -57763.5 -57782.2 -57801.9 -57822.5 -57844.1 -57866.7 -57890.3 -57914.9 -57940.6 -57967.3 -57995.1 -58024.1 -58054.3 -58085.6 -58118.3 -58152.1 -58187.4 -58224 -58262 -58301.6 -58342.7 -58385.5 -58430.1 -58476.4 -58524.7 -58575.1 -58627.8 -58682.8 -58740.4 -58800.8 -58864.3 -58931.3 -59002.1 -59077.3 -59157.6 -59243.8 -59337.2 -59439.5 -59553.3 -59682.4 -59831.4 -60000 -60000 -59902.2 -59805.2 -59709.7 -59616.7 -59526.8 -59440.3 -59357.3 -59277.8 -59201.8 -59129.1 -59059.5 -58992.9 -58929.1 -58868 -58809.4 -58753.2 -58699.2 -58647.3 -58597.5 -58549.6 -58503.5 -58459.1 -58416.4 -58375.4 -58335.8 -58297.8 -58261.1 -58225.9 -58191.9 -58159.3 -58127.9 -58097.7 -58068.8 -58040.9 -58014.2 -57988.6 -57964 -57940.5 -57918 -57896.5 -57876 -57856.4 -57837.8 -57820.2 -57803.4 -57787.6 -57772.6 -57758.6 -57745.4 -57733 -57721.6 -57710.9 -57701.1 -57692.1 -57684 -57676.7 -57670.1 -57664.4 -57659.5 -57655.4 -57652.1 -57649.5 -57647.8 -57646.9 -57646.7 -57647.4 -57648.8 -57651 -57654 -57657.8 -57662.4 -57667.8 -57674 -57681 -57688.8 -57697.4 -57706.9 -57717.2 -57728.3 -57740.2 -57753 -57766.7 -57781.2 -57796.6 -57813 -57830.2 -57848.3 -57867.4 -57887.4 -57908.4 -57930.4 -57953.4 -57977.5 -58002.5 -58028.7 -58056 -58084.4 -58114 -58144.8 -58176.9 -58210.3 -58245 -58281 -58318.6 -58357.6 -58398.3 -58440.6 -58484.6 -58530.5 -58578.4 -58628.3 -58680.5 -58735.1 -58792.3 -58852.3 -58915.4 -58981.9 -59052.3 -59127 -59206.7 -59292.1 -59384.4 -59484.8 -59595.3 -59717.8 -59853.5 -60000 -60000 -59915.7 -59831.5 -59748.1 -59665.9 -59585.3 -59506.7 -59430.4 -59356.5 -59285 -59216 -59149.4 -59085.2 -59023.4 -58963.8 -58906.4 -58851.2 -58797.9 -58746.6 -58697.1 -58649.4 -58603.4 -58559.1 -58516.3 -58475.1 -58435.4 -58397.1 -58360.1 -58324.5 -58290.3 -58257.2 -58225.4 -58194.8 -58165.3 -58137 -58109.8 -58083.6 -58058.6 -58034.5 -58011.5 -57989.4 -57968.3 -57948.2 -57929.1 -57910.8 -57893.5 -57877 -57861.5 -57846.8 -57833.1 -57820.1 -57808 -57796.8 -57786.4 -57776.8 -57768 -57760.1 -57753 -57746.6 -57741.1 -57736.4 -57732.4 -57729.3 -57726.9 -57725.4 -57724.6 -57724.6 -57725.4 -57727 -57729.4 -57732.6 -57736.6 -57741.4 -57746.9 -57753.3 -57760.5 -57768.6 -57777.4 -57787.1 -57797.6 -57808.9 -57821.1 -57834.2 -57848.1 -57862.9 -57878.6 -57895.3 -57912.8 -57931.3 -57950.7 -57971.1 -57992.6 -58015 -58038.4 -58062.9 -58088.5 -58115.2 -58143.1 -58172.1 -58202.4 -58233.9 -58266.7 -58300.8 -58336.3 -58373.3 -58411.8 -58451.9 -58493.7 -58537.2 -58582.6 -58629.9 -58679.3 -58730.9 -58785 -58841.6 -58901 -58963.4 -59029.3 -59098.9 -59172.7 -59251.3 -59335.3 -59425.6 -59523.1 -59629.1 -59744.3 -59868.7 -60000 -60000 -59925.6 -59851.1 -59776.9 -59703.3 -59630.7 -59559.3 -59489.3 -59420.9 -59354.2 -59289.3 -59226.3 -59165.1 -59105.9 -59048.5 -58992.9 -58939.1 -58887.1 -58836.8 -58788.1 -58741.1 -58695.7 -58651.7 -58609.3 -58568.3 -58528.6 -58490.4 -58453.4 -58417.7 -58383.3 -58350.1 -58318.1 -58287.2 -58257.5 -58228.8 -58201.2 -58174.7 -58149.3 -58124.8 -58101.3 -58078.8 -58057.3 -58036.7 -58017.1 -57998.3 -57980.5 -57963.6 -57947.5 -57932.3 -57918 -57904.5 -57891.9 -57880.1 -57869.2 -57859 -57849.7 -57841.2 -57833.5 -57826.6 -57820.5 -57815.2 -57810.7 -57807 -57804 -57801.9 -57800.5 -57800 -57800.2 -57801.2 -57803 -57805.6 -57809 -57813.2 -57818.2 -57823.9 -57830.6 -57838 -57846.2 -57855.3 -57865.2 -57876 -57887.6 -57900 -57913.4 -57927.6 -57942.7 -57958.8 -57975.7 -57993.6 -58012.5 -58032.3 -58053.1 -58074.9 -58097.8 -58121.7 -58146.7 -58172.9 -58200.1 -58228.6 -58258.2 -58289.2 -58321.4 -58354.9 -58389.9 -58426.3 -58464.2 -58503.7 -58544.9 -58587.8 -58632.5 -58679.3 -58728 -58779 -58832.4 -58888.3 -58946.9 -59008.6 -59073.5 -59142.1 -59214.6 -59291.7 -59373.8 -59461.6 -59555.7 -59656.7 -59765 -59880.1 -60000 -60000 -59933.4 -59866.5 -59799.7 -59733.3 -59667.3 -59602.1 -59537.8 -59474.6 -59412.5 -59351.8 -59292.5 -59234.6 -59178.2 -59123.3 -59070 -59018.1 -58967.7 -58918.8 -58871.4 -58825.4 -58780.8 -58737.5 -58695.7 -58655.2 -58615.9 -58577.9 -58541.2 -58505.6 -58471.3 -58438.1 -58406 -58375.1 -58345.2 -58316.4 -58288.6 -58261.9 -58236.1 -58211.4 -58187.6 -58164.8 -58142.9 -58122 -58101.9 -58082.8 -58064.6 -58047.2 -58030.7 -58015.1 -58000.3 -57986.3 -57973.2 -57961 -57949.5 -57938.9 -57929 -57920 -57911.8 -57904.4 -57897.7 -57891.9 -57886.8 -57882.6 -57879.1 -57876.4 -57874.5 -57873.4 -57873 -57873.5 -57874.7 -57876.7 -57879.6 -57883.2 -57887.6 -57892.8 -57898.9 -57905.7 -57913.4 -57921.9 -57931.2 -57941.4 -57952.4 -57964.3 -57977 -57990.7 -58005.2 -58020.7 -58037 -58054.3 -58072.6 -58091.8 -58112.1 -58133.3 -58155.6 -58178.9 -58203.3 -58228.9 -58255.5 -58283.4 -58312.5 -58342.8 -58374.4 -58407.3 -58441.7 -58477.5 -58514.8 -58553.6 -58594.2 -58636.4 -58680.5 -58726.5 -58774.6 -58824.8 -58877.4 -58932.4 -58990.2 -59050.8 -59114.7 -59182 -59253.1 -59328.3 -59408.2 -59493.1 -59583.6 -59679.8 -59781.8 -59889 -60000 -60000 -59939.7 -59879.1 -59818.5 -59758 -59697.7 -59637.9 -59578.7 -59520.2 -59462.5 -59405.8 -59350.1 -59295.5 -59242.1 -59189.9 -59138.9 -59089.1 -59040.6 -58993.4 -58947.4 -58902.7 -58859.2 -58816.9 -58775.9 -58736.1 -58697.4 -58660 -58623.6 -58588.4 -58554.3 -58521.3 -58489.4 -58458.5 -58428.6 -58399.8 -58372 -58345.1 -58319.3 -58294.3 -58270.4 -58247.3 -58225.2 -58204 -58183.6 -58164.2 -58145.6 -58127.9 -58111 -58095 -58079.9 -58065.5 -58052 -58039.3 -58027.4 -58016.3 -58006 -57996.5 -57987.8 -57979.9 -57972.8 -57966.4 -57960.9 -57956.1 -57952.1 -57948.9 -57946.5 -57944.8 -57944 -57943.9 -57944.6 -57946.1 -57948.4 -57951.4 -57955.3 -57960 -57965.4 -57971.7 -57978.8 -57986.8 -57995.5 -58005.1 -58015.6 -58026.9 -58039.1 -58052.2 -58066.1 -58081 -58096.8 -58113.5 -58131.2 -58149.8 -58169.5 -58190.1 -58211.8 -58234.5 -58258.3 -58283.3 -58309.3 -58336.6 -58365 -58394.7 -58425.7 -58458 -58491.7 -58526.9 -58563.5 -58601.7 -58641.5 -58683.1 -58726.4 -58771.7 -58819 -58868.4 -58920.1 -58974.2 -59030.9 -59090.4 -59153 -59218.9 -59288.3 -59361.5 -59439 -59521 -59607.8 -59699.4 -59795.8 -59896.4 -60000 -60000 -59945 -59889.7 -59834.3 -59778.9 -59723.5 -59668.5 -59613.8 -59559.5 -59505.9 -59452.9 -59400.7 -59349.3 -59298.8 -59249.3 -59200.7 -59153.2 -59106.7 -59061.3 -59016.9 -58973.6 -58931.5 -58890.4 -58850.3 -58811.4 -58773.5 -58736.7 -58701 -58666.3 -58632.6 -58599.9 -58568.3 -58537.6 -58507.9 -58479.2 -58451.4 -58424.6 -58398.7 -58373.7 -58349.7 -58326.5 -58304.2 -58282.8 -58262.3 -58242.6 -58223.7 -58205.8 -58188.6 -58172.3 -58156.8 -58142.1 -58128.2 -58115.1 -58102.8 -58091.3 -58080.6 -58070.7 -58061.6 -58053.3 -58045.7 -58038.9 -58032.9 -58027.6 -58023.2 -58019.5 -58016.6 -58014.4 -58013 -58012.5 -58012.6 -58013.6 -58015.4 -58017.9 -58021.3 -58025.4 -58030.3 -58036.1 -58042.6 -58050 -58058.2 -58067.3 -58077.2 -58087.9 -58099.5 -58112 -58125.4 -58139.7 -58154.9 -58171.1 -58188.2 -58206.2 -58225.3 -58245.3 -58266.4 -58288.5 -58311.8 -58336.1 -58361.5 -58388.1 -58416 -58445 -58475.4 -58507 -58540.1 -58574.5 -58610.5 -58648 -58687.1 -58727.9 -58770.4 -58814.9 -58861.3 -58909.8 -58960.5 -59013.6 -59069.2 -59127.5 -59188.7 -59253 -59320.6 -59391.8 -59466.8 -59545.8 -59628.9 -59716.3 -59807.7 -59902.5 -60000 -60000 -59949.6 -59898.8 -59847.9 -59796.9 -59745.9 -59695 -59644.3 -59593.9 -59543.9 -59494.4 -59445.5 -59397.1 -59349.5 -59302.6 -59256.5 -59211.2 -59166.8 -59123.2 -59080.6 -59038.9 -58998.1 -58958.3 -58919.4 -58881.5 -58844.6 -58808.6 -58773.6 -58739.5 -58706.4 -58674.2 -58642.9 -58612.6 -58583.2 -58554.7 -58527.1 -58500.4 -58474.6 -58449.6 -58425.6 -58402.4 -58380 -58358.5 -58337.8 -58318 -58299 -58280.8 -58263.4 -58246.8 -58231 -58216.1 -58201.9 -58188.5 -58175.9 -58164 -58153 -58142.7 -58133.2 -58124.4 -58116.5 -58109.3 -58102.8 -58097.1 -58092.2 -58088.1 -58084.7 -58082.1 -58080.2 -58079.2 -58078.9 -58079.4 -58080.6 -58082.6 -58085.5 -58089.1 -58093.5 -58098.7 -58104.8 -58111.6 -58119.3 -58127.8 -58137.1 -58147.4 -58158.4 -58170.4 -58183.2 -58196.9 -58211.5 -58227.1 -58243.6 -58261.1 -58279.5 -58299 -58319.5 -58341 -58363.6 -58387.3 -58412.1 -58438.1 -58465.3 -58493.7 -58523.4 -58554.4 -58586.7 -58620.5 -58655.7 -58692.5 -58730.8 -58770.8 -58812.6 -58856.1 -58901.7 -58949.2 -58998.9 -59050.9 -59105.3 -59162.2 -59222 -59284.6 -59350.3 -59419.3 -59491.8 -59567.9 -59647.7 -59731.1 -59818 -59907.8 -60000 -60000 -59953.5 -59906.8 -59859.8 -59812.7 -59765.4 -59718.3 -59671.2 -59624.3 -59577.6 -59531.3 -59485.4 -59440 -59395 -59350.7 -59307 -59263.9 -59221.5 -59179.9 -59139 -59099 -59059.7 -59021.2 -58983.6 -58946.9 -58910.9 -58875.9 -58841.7 -58808.3 -58775.9 -58744.3 -58713.5 -58683.6 -58654.6 -58626.4 -58599.1 -58572.6 -58547 -58522.2 -58498.2 -58475 -58452.7 -58431.1 -58410.4 -58390.5 -58371.4 -58353 -58335.5 -58318.7 -58302.7 -58287.5 -58273.1 -58259.4 -58246.5 -58234.4 -58223 -58212.4 -58202.5 -58193.4 -58185.1 -58177.5 -58170.7 -58164.6 -58159.3 -58154.7 -58150.9 -58147.9 -58145.6 -58144.1 -58143.3 -58143.3 -58144.1 -58145.6 -58148 -58151.1 -58155 -58159.7 -58165.3 -58171.6 -58178.7 -58186.7 -58195.5 -58205.2 -58215.7 -58227.1 -58239.4 -58252.5 -58266.6 -58281.6 -58297.5 -58314.4 -58332.3 -58351.2 -58371 -58391.9 -58413.9 -58437 -58461.2 -58486.5 -58513.1 -58540.8 -58569.8 -58600.1 -58631.7 -58664.8 -58699.3 -58735.2 -58772.8 -58812 -58852.9 -58895.5 -58940.1 -58986.6 -59035.2 -59086.1 -59139.2 -59194.8 -59253 -59313.9 -59377.7 -59444.6 -59514.6 -59587.9 -59664.5 -59744.2 -59827 -59912.5 -60000 -60000 -59957.1 -59913.8 -59870.3 -59826.6 -59782.8 -59738.9 -59695.1 -59651.4 -59607.8 -59564.4 -59521.3 -59478.6 -59436.2 -59394.3 -59352.9 -59312 -59271.6 -59231.9 -59192.8 -59154.4 -59116.6 -59079.6 -59043.3 -59007.7 -58972.9 -58938.8 -58905.6 -58873 -58841.3 -58810.4 -58780.2 -58750.9 -58722.3 -58694.6 -58667.6 -58641.4 -58616 -58591.4 -58567.6 -58544.5 -58522.3 -58500.8 -58480.1 -58460.1 -58441 -58422.5 -58404.9 -58388 -58371.9 -58356.5 -58341.8 -58328 -58314.8 -58302.4 -58290.8 -58279.9 -58269.7 -58260.3 -58251.7 -58243.7 -58236.5 -58230.1 -58224.4 -58219.4 -58215.2 -58211.8 -58209.1 -58207.1 -58205.9 -58205.5 -58205.8 -58206.9 -58208.8 -58211.4 -58214.9 -58219.1 -58224.1 -58229.9 -58236.6 -58244 -58252.3 -58261.5 -58271.4 -58282.3 -58294 -58306.6 -58320.1 -58334.6 -58349.9 -58366.2 -58383.5 -58401.8 -58421.1 -58441.4 -58462.7 -58485.2 -58508.7 -58533.4 -58559.3 -58586.3 -58614.7 -58644.2 -58675.2 -58707.4 -58741.2 -58776.3 -58813.1 -58851.4 -58891.4 -58933.1 -58976.7 -59022.2 -59069.7 -59119.3 -59171.1 -59225.3 -59282 -59341.2 -59403.1 -59467.8 -59535.5 -59606 -59679.6 -59756 -59835.1 -59916.6 -60000 -60000 -59960.2 -59920.1 -59879.7 -59839.1 -59798.3 -59757.5 -59716.6 -59675.7 -59634.9 -59594.3 -59553.8 -59513.6 -59473.6 -59434 -59394.8 -59356 -59317.6 -59279.7 -59242.4 -59205.6 -59169.4 -59133.8 -59098.8 -59064.5 -59030.8 -58997.8 -58965.5 -58933.9 -58903 -58872.8 -58843.3 -58814.5 -58786.5 -58759.2 -58732.7 -58706.9 -58681.8 -58657.5 -58633.9 -58611 -58588.9 -58567.5 -58546.9 -58527 -58507.8 -58489.4 -58471.7 -58454.7 -58438.5 -58423 -58408.2 -58394.2 -58380.8 -58368.2 -58356.4 -58345.2 -58334.8 -58325.1 -58316.1 -58307.9 -58300.4 -58293.6 -58287.6 -58282.3 -58277.7 -58273.8 -58270.7 -58268.4 -58266.8 -58265.9 -58265.8 -58266.5 -58267.9 -58270.1 -58273 -58276.8 -58281.3 -58286.7 -58292.8 -58299.8 -58307.6 -58316.2 -58325.6 -58336 -58347.1 -58359.2 -58372.2 -58386 -58400.8 -58416.6 -58433.3 -58450.9 -58469.6 -58489.3 -58510 -58531.8 -58554.8 -58578.8 -58604 -58630.4 -58658 -58686.8 -58717 -58748.6 -58781.5 -58815.9 -58851.7 -58889.2 -58928.3 -58969.1 -59011.6 -59056 -59102.4 -59150.8 -59201.3 -59254 -59309.1 -59366.6 -59426.6 -59489.3 -59554.6 -59622.6 -59693.3 -59766.6 -59842.4 -59920.3 -60000 -60000 -59963 -59925.7 -59888.1 -59850.3 -59812.3 -59774.2 -59736 -59697.7 -59659.5 -59621.4 -59583.3 -59545.4 -59507.7 -59470.3 -59433.2 -59396.3 -59359.9 -59323.8 -59288.2 -59253 -59218.3 -59184.2 -59150.5 -59117.5 -59085 -59053 -59021.7 -58991.1 -58961 -58931.6 -58902.9 -58874.8 -58847.4 -58820.6 -58794.5 -58769.2 -58744.5 -58720.5 -58697.2 -58674.6 -58652.7 -58631.5 -58611 -58591.1 -58572 -58553.6 -58535.9 -58519 -58502.7 -58487.1 -58472.2 -58458 -58444.6 -58431.8 -58419.7 -58408.4 -58397.7 -58387.8 -58378.6 -58370.1 -58362.3 -58355.2 -58348.8 -58343.2 -58338.3 -58334.1 -58330.6 -58327.9 -58325.9 -58324.6 -58324.1 -58324.3 -58325.3 -58327.1 -58329.6 -58332.9 -58337 -58341.8 -58347.5 -58354 -58361.3 -58369.4 -58378.3 -58388.1 -58398.8 -58410.3 -58422.7 -58436 -58450.3 -58465.4 -58481.5 -58498.6 -58516.7 -58535.8 -58555.9 -58577.1 -58599.3 -58622.7 -58647.2 -58672.9 -58699.8 -58727.9 -58757.4 -58788.1 -58820.3 -58853.8 -58888.8 -58925.4 -58963.5 -59003.4 -59044.9 -59088.2 -59133.4 -59180.5 -59229.7 -59281 -59334.5 -59390.3 -59448.5 -59509.1 -59572.2 -59637.8 -59705.8 -59776.3 -59849 -59923.6 -60000 -60000 -59965.6 -59930.8 -59895.8 -59860.5 -59825 -59789.4 -59753.6 -59717.8 -59681.9 -59646.1 -59610.3 -59574.6 -59539 -59503.6 -59468.5 -59433.5 -59398.9 -59364.6 -59330.6 -59297 -59263.8 -59231.1 -59198.8 -59167 -59135.6 -59104.8 -59074.6 -59044.9 -59015.7 -58987.1 -58959.1 -58931.8 -58905 -58878.8 -58853.3 -58828.4 -58804.2 -58780.6 -58757.6 -58735.3 -58713.6 -58692.7 -58672.3 -58652.7 -58633.7 -58615.4 -58597.7 -58580.7 -58564.4 -58548.8 -58533.9 -58519.6 -58506 -58493.2 -58480.9 -58469.4 -58458.6 -58448.5 -58439 -58430.3 -58422.2 -58414.9 -58408.2 -58402.3 -58397 -58392.5 -58388.7 -58385.6 -58383.2 -58381.6 -58380.7 -58380.5 -58381.1 -58382.5 -58384.6 -58387.4 -58391 -58395.5 -58400.7 -58406.6 -58413.4 -58421.1 -58429.5 -58438.8 -58448.9 -58459.9 -58471.8 -58484.6 -58498.2 -58512.8 -58528.4 -58544.9 -58562.3 -58580.8 -58600.3 -58620.8 -58642.5 -58665.2 -58689 -58714 -58740.2 -58767.6 -58796.3 -58826.2 -58857.6 -58890.3 -58924.5 -58960.1 -58997.3 -59036.1 -59076.6 -59118.8 -59162.8 -59208.7 -59256.6 -59306.5 -59358.4 -59412.6 -59468.9 -59527.6 -59588.5 -59651.8 -59717.4 -59785.1 -59855 -59926.7 -60000 -60000 -59967.9 -59935.4 -59902.7 -59869.7 -59836.6 -59803.2 -59769.7 -59736.1 -59702.4 -59668.7 -59635 -59601.4 -59567.8 -59534.3 -59501 -59467.9 -59435 -59402.4 -59370 -59337.9 -59306.2 -59274.8 -59243.8 -59213.3 -59183.1 -59153.4 -59124.2 -59095.5 -59067.3 -59039.5 -59012.3 -58985.7 -58959.6 -58934.1 -58909.1 -58884.8 -58861 -58837.8 -58815.2 -58793.3 -58771.9 -58751.2 -58731.1 -58711.6 -58692.8 -58674.6 -58657.1 -58640.1 -58623.9 -58608.3 -58593.3 -58579 -58565.4 -58552.4 -58540.1 -58528.4 -58517.4 -58507.1 -58497.5 -58488.5 -58480.2 -58472.6 -58465.7 -58459.5 -58454 -58449.1 -58445 -58441.6 -58438.9 -58436.9 -58435.6 -58435.1 -58435.3 -58436.2 -58437.9 -58440.4 -58443.6 -58447.5 -58452.3 -58457.8 -58464.1 -58471.3 -58479.2 -58488 -58497.6 -58508.1 -58519.4 -58531.7 -58544.8 -58558.8 -58573.8 -58589.7 -58606.6 -58624.4 -58643.3 -58663.2 -58684.2 -58706.2 -58729.4 -58753.7 -58779.2 -58805.8 -58833.8 -58863 -58893.5 -58925.3 -58958.6 -58993.4 -59029.6 -59067.4 -59106.9 -59148 -59190.8 -59235.5 -59282 -59330.5 -59380.9 -59433.4 -59488.1 -59544.8 -59603.7 -59664.8 -59728 -59793.3 -59860.5 -59929.5 -60000 -60000 -59970 -59939.7 -59909.1 -59878.2 -59847.2 -59815.9 -59784.5 -59752.9 -59721.2 -59689.5 -59657.8 -59626 -59594.3 -59562.7 -59531.1 -59499.7 -59468.5 -59437.4 -59406.6 -59376 -59345.7 -59315.7 -59286 -59256.6 -59227.7 -59199.1 -59170.9 -59143.2 -59115.9 -59089 -59062.6 -59036.8 -59011.4 -58986.5 -58962.2 -58938.3 -58915.1 -58892.4 -58870.2 -58848.6 -58827.6 -58807.2 -58787.4 -58768.1 -58749.5 -58731.5 -58714 -58697.2 -58681 -58665.5 -58650.5 -58636.2 -58622.5 -58609.5 -58597.1 -58585.3 -58574.2 -58563.8 -58554 -58544.8 -58536.4 -58528.6 -58521.4 -58514.9 -58509.2 -58504 -58499.6 -58495.9 -58492.9 -58490.6 -58489 -58488.1 -58487.9 -58488.4 -58489.7 -58491.8 -58494.5 -58498.1 -58502.4 -58507.5 -58513.4 -58520 -58527.5 -58535.8 -58544.9 -58554.9 -58565.7 -58577.4 -58590 -58603.4 -58617.8 -58633.2 -58649.5 -58666.7 -58685 -58704.3 -58724.6 -58746 -58768.4 -58792 -58816.8 -58842.7 -58869.9 -58898.3 -58928 -58959 -58991.4 -59025.3 -59060.6 -59097.4 -59135.8 -59175.8 -59217.5 -59260.9 -59306.1 -59353.2 -59402.2 -59453.1 -59506 -59560.9 -59617.9 -59676.9 -59737.9 -59800.9 -59865.6 -59932.1 -60000 -60000 -59971.9 -59943.6 -59914.9 -59886 -59856.9 -59827.6 -59798 -59768.4 -59738.6 -59708.7 -59678.8 -59648.8 -59618.9 -59588.9 -59559 -59529.3 -59499.6 -59470.1 -59440.7 -59411.5 -59382.6 -59353.9 -59325.4 -59297.3 -59269.5 -59242 -59214.8 -59188.1 -59161.7 -59135.7 -59110.2 -59085.1 -59060.4 -59036.2 -59012.5 -58989.3 -58966.6 -58944.3 -58922.6 -58901.5 -58880.8 -58860.8 -58841.2 -58822.3 -58803.8 -58786 -58768.8 -58752.1 -58736 -58720.5 -58705.6 -58691.3 -58677.6 -58664.6 -58652.1 -58640.3 -58629.1 -58618.5 -58608.6 -58599.3 -58590.7 -58582.7 -58575.3 -58568.6 -58562.6 -58557.2 -58552.5 -58548.5 -58545.2 -58542.6 -58540.7 -58539.4 -58538.9 -58539.1 -58540 -58541.6 -58544 -58547.2 -58551 -58555.7 -58561.1 -58567.3 -58574.3 -58582.2 -58590.8 -58600.3 -58610.6 -58621.7 -58633.8 -58646.7 -58660.6 -58675.3 -58691 -58707.7 -58725.3 -58744 -58763.7 -58784.4 -58806.2 -58829.1 -58853.1 -58878.3 -58904.7 -58932.3 -58961.2 -58991.4 -59023 -59055.9 -59090.2 -59126 -59163.4 -59202.3 -59242.8 -59285.1 -59329 -59374.7 -59422.2 -59471.6 -59522.9 -59576.1 -59631.2 -59688.2 -59747.1 -59807.9 -59870.4 -59934.5 -60000 -60000 -59973.7 -59947.2 -59920.3 -59893.2 -59865.9 -59838.3 -59810.6 -59782.7 -59754.6 -59726.5 -59698.2 -59669.9 -59641.6 -59613.3 -59585 -59556.7 -59528.5 -59500.5 -59472.5 -59444.7 -59417.1 -59389.6 -59362.4 -59335.4 -59308.7 -59282.3 -59256.2 -59230.4 -59205 -59179.9 -59155.2 -59130.8 -59106.9 -59083.4 -59060.3 -59037.7 -59015.5 -58993.8 -58972.6 -58951.9 -58931.7 -58911.9 -58892.7 -58874.1 -58855.9 -58838.3 -58821.2 -58804.7 -58788.8 -58773.4 -58758.6 -58744.4 -58730.7 -58717.6 -58705.2 -58693.3 -58682 -58671.4 -58661.4 -58651.9 -58643.1 -58635 -58627.5 -58620.6 -58614.3 -58608.7 -58603.8 -58599.5 -58595.9 -58593 -58590.8 -58589.2 -58588.4 -58588.2 -58588.8 -58590 -58592 -58594.8 -58598.2 -58602.5 -58607.5 -58613.2 -58619.8 -58627.1 -58635.3 -58644.3 -58654.1 -58664.7 -58676.3 -58688.7 -58701.9 -58716.1 -58731.3 -58747.3 -58764.4 -58782.4 -58801.4 -58821.5 -58842.6 -58864.9 -58888.2 -58912.7 -58938.3 -58965.1 -58993.2 -59022.6 -59053.2 -59085.2 -59118.6 -59153.5 -59189.8 -59227.6 -59267 -59308 -59350.7 -59395.1 -59441.2 -59489.1 -59538.8 -59590.3 -59643.6 -59698.8 -59755.8 -59814.5 -59874.8 -59936.7 -60000 -60000 -59975.4 -59950.5 -59925.3 -59899.9 -59874.2 -59848.3 -59822.2 -59795.9 -59769.5 -59742.9 -59716.3 -59689.6 -59662.8 -59635.9 -59609.1 -59582.3 -59555.5 -59528.8 -59502.2 -59475.7 -59449.4 -59423.1 -59397.1 -59371.3 -59345.7 -59320.3 -59295.2 -59270.4 -59245.8 -59221.6 -59197.7 -59174.2 -59151 -59128.2 -59105.8 -59083.8 -59062.2 -59041 -59020.3 -59000 -58980.2 -58960.9 -58942 -58923.6 -58905.8 -58888.4 -58871.6 -58855.3 -58839.5 -58824.2 -58809.5 -58795.4 -58781.8 -58768.8 -58756.3 -58744.4 -58733.1 -58722.4 -58712.3 -58702.8 -58693.9 -58685.6 -58677.9 -58670.8 -58664.4 -58658.6 -58653.4 -58648.9 -58645.1 -58641.9 -58639.3 -58637.5 -58636.3 -58635.8 -58636 -58637 -58638.6 -58641 -58644 -58647.9 -58652.4 -58657.8 -58663.9 -58670.8 -58678.5 -58687 -58696.3 -58706.5 -58717.5 -58729.3 -58742.1 -58755.7 -58770.3 -58785.8 -58802.2 -58819.6 -58838 -58857.4 -58877.9 -58899.4 -58922 -58945.8 -58970.7 -58996.7 -59024 -59052.5 -59082.3 -59113.4 -59145.9 -59179.8 -59215.1 -59251.8 -59290.1 -59330 -59371.4 -59414.5 -59459.2 -59505.6 -59553.8 -59603.7 -59655.4 -59708.8 -59763.9 -59820.6 -59879 -59938.8 -60000 -60000 -59976.9 -59953.6 -59929.9 -59906 -59881.9 -59857.5 -59832.9 -59808.2 -59783.3 -59758.2 -59733.1 -59707.8 -59682.5 -59657.1 -59631.6 -59606.2 -59580.8 -59555.4 -59530 -59504.8 -59479.6 -59454.6 -59429.7 -59405 -59380.4 -59356.1 -59331.9 -59308 -59284.4 -59261 -59238 -59215.2 -59192.8 -59170.7 -59148.9 -59127.5 -59106.5 -59085.9 -59065.7 -59045.9 -59026.5 -59007.6 -58989.1 -58971.1 -58953.5 -58936.5 -58919.9 -58903.8 -58888.2 -58873.1 -58858.5 -58844.5 -58831 -58818 -58805.6 -58793.7 -58782.4 -58771.6 -58761.5 -58751.9 -58742.8 -58734.4 -58726.6 -58719.4 -58712.8 -58706.8 -58701.4 -58696.7 -58692.6 -58689.2 -58686.4 -58684.2 -58682.8 -58682 -58681.9 -58682.5 -58683.7 -58685.7 -58688.4 -58691.9 -58696.1 -58701 -58706.7 -58713.1 -58720.4 -58728.4 -58737.2 -58746.9 -58757.4 -58768.7 -58780.9 -58794 -58808 -58822.9 -58838.8 -58855.6 -58873.4 -58892.2 -58912 -58932.8 -58954.7 -58977.7 -59001.9 -59027.2 -59053.6 -59081.3 -59110.3 -59140.5 -59172.1 -59205 -59239.3 -59275 -59312.2 -59350.9 -59391.1 -59432.9 -59476.3 -59521.4 -59568.1 -59616.4 -59666.5 -59718.2 -59771.5 -59826.4 -59882.9 -59940.8 -60000 -60000 -59978.3 -59956.4 -59934.2 -59911.7 -59889 -59866.1 -59843 -59819.6 -59796.1 -59772.5 -59748.7 -59724.8 -59700.8 -59676.8 -59652.7 -59628.5 -59604.4 -59580.2 -59556.1 -59532 -59508 -59484.1 -59460.3 -59436.6 -59413.1 -59389.8 -59366.6 -59343.6 -59320.9 -59298.3 -59276.1 -59254.1 -59232.4 -59211 -59189.9 -59169.1 -59148.7 -59128.7 -59109 -59089.7 -59070.8 -59052.3 -59034.2 -59016.5 -58999.3 -58982.5 -58966.2 -58950.3 -58934.9 -58920 -58905.6 -58891.7 -58878.3 -58865.4 -58853 -58841.2 -58829.9 -58819.1 -58808.9 -58799.2 -58790.2 -58781.6 -58773.7 -58766.4 -58759.6 -58753.5 -58747.9 -58743 -58738.7 -58735 -58731.9 -58729.5 -58727.8 -58726.7 -58726.3 -58726.6 -58727.5 -58729.1 -58731.5 -58734.6 -58738.3 -58742.9 -58748.1 -58754.2 -58760.9 -58768.5 -58776.9 -58786.1 -58796.1 -58806.9 -58818.6 -58831.2 -58844.6 -58858.9 -58874.2 -58890.4 -58907.6 -58925.7 -58944.9 -58965.1 -58986.3 -59008.6 -59032 -59056.5 -59082.2 -59109.1 -59137.2 -59166.5 -59197.2 -59229.1 -59262.4 -59297.1 -59333.3 -59370.8 -59409.9 -59450.5 -59492.6 -59536.3 -59581.6 -59628.5 -59677 -59727 -59778.7 -59831.9 -59886.6 -59942.6 -60000 -60000 -59979.7 -59959.1 -59938.2 -59917.1 -59895.7 -59874.1 -59852.3 -59830.3 -59808.1 -59785.8 -59763.3 -59740.7 -59718 -59695.2 -59672.3 -59649.4 -59626.5 -59603.5 -59580.5 -59557.6 -59534.7 -59511.9 -59489.1 -59466.5 -59443.9 -59421.5 -59399.3 -59377.2 -59355.3 -59333.6 -59312.2 -59291 -59270 -59249.3 -59228.8 -59208.7 -59188.9 -59169.4 -59150.2 -59131.4 -59113 -59094.9 -59077.2 -59059.9 -59043 -59026.5 -59010.5 -58994.9 -58979.7 -58965 -58950.8 -58937 -58923.7 -58911 -58898.7 -58886.9 -58875.6 -58864.8 -58854.6 -58844.9 -58835.8 -58827.2 -58819.2 -58811.7 -58804.9 -58798.6 -58792.8 -58787.7 -58783.2 -58779.3 -58776.1 -58773.4 -58771.4 -58770 -58769.3 -58769.3 -58769.9 -58771.2 -58773.2 -58775.9 -58779.3 -58783.5 -58788.3 -58793.9 -58800.3 -58807.4 -58815.3 -58824.1 -58833.6 -58843.9 -58855.1 -58867.1 -58880 -58893.8 -58908.5 -58924.1 -58940.7 -58958.2 -58976.7 -58996.2 -59016.8 -59038.4 -59061 -59084.8 -59109.7 -59135.8 -59163.1 -59191.6 -59221.3 -59252.3 -59284.7 -59318.4 -59353.4 -59389.9 -59427.8 -59467.2 -59508.1 -59550.5 -59594.4 -59639.9 -59686.9 -59735.4 -59785.5 -59837.1 -59890 -59944.4 -60000 -60000 -59980.9 -59961.5 -59941.9 -59922 -59901.9 -59881.5 -59861 -59840.2 -59819.3 -59798.2 -59776.9 -59755.5 -59734 -59712.4 -59690.7 -59669 -59647.2 -59625.3 -59603.5 -59581.6 -59559.8 -59538 -59516.3 -59494.6 -59473 -59451.5 -59430.2 -59409 -59387.9 -59367.1 -59346.4 -59325.9 -59305.6 -59285.6 -59265.8 -59246.3 -59227.1 -59208.2 -59189.5 -59171.2 -59153.3 -59135.6 -59118.3 -59101.4 -59084.9 -59068.7 -59053 -59037.7 -59022.7 -59008.3 -58994.2 -58980.6 -58967.5 -58954.8 -58942.6 -58930.9 -58919.7 -58908.9 -58898.7 -58889 -58879.9 -58871.2 -58863.1 -58855.6 -58848.6 -58842.1 -58836.3 -58831 -58826.3 -58822.2 -58818.7 -58815.9 -58813.6 -58812 -58811 -58810.7 -58811 -58812 -58813.6 -58816 -58819 -58822.8 -58827.3 -58832.5 -58838.4 -58845.1 -58852.6 -58860.9 -58869.9 -58879.8 -58890.4 -58901.9 -58914.3 -58927.6 -58941.7 -58956.7 -58972.7 -58989.6 -59007.5 -59026.3 -59046.2 -59067.1 -59089.1 -59112.1 -59136.3 -59161.6 -59188 -59215.7 -59244.5 -59274.6 -59306 -59338.7 -59372.8 -59408.2 -59445 -59483.2 -59522.9 -59564 -59606.7 -59650.8 -59696.4 -59743.4 -59792 -59842 -59893.3 -59946 -60000 -60000 -59982 -59963.8 -59945.4 -59926.6 -59907.7 -59888.5 -59869.1 -59849.5 -59829.7 -59809.8 -59789.7 -59769.4 -59749.1 -59728.6 -59708 -59687.3 -59666.6 -59645.8 -59625 -59604.2 -59583.4 -59562.6 -59541.8 -59521.1 -59500.4 -59479.9 -59459.4 -59439 -59418.8 -59398.7 -59378.8 -59359 -59339.5 -59320.1 -59301 -59282.1 -59263.5 -59245.1 -59227 -59209.2 -59191.7 -59174.5 -59157.7 -59141.1 -59125 -59109.1 -59093.7 -59078.7 -59064 -59049.7 -59035.9 -59022.5 -59009.5 -58997 -58984.9 -58973.2 -58962.1 -58951.4 -58941.2 -58931.5 -58922.3 -58913.7 -58905.5 -58897.9 -58890.8 -58884.3 -58878.3 -58872.8 -58868 -58863.7 -58860 -58856.9 -58854.5 -58852.6 -58851.4 -58850.7 -58850.8 -58851.5 -58852.8 -58854.8 -58857.5 -58860.9 -58865 -58869.8 -58875.4 -58881.7 -58888.7 -58896.5 -58905.1 -58914.5 -58924.7 -58935.7 -58947.5 -58960.2 -58973.8 -58988.3 -59003.6 -59019.9 -59037.2 -59055.4 -59074.6 -59094.9 -59116.1 -59138.4 -59161.9 -59186.4 -59212 -59238.8 -59266.8 -59296.1 -59326.5 -59358.3 -59391.3 -59425.7 -59461.4 -59498.5 -59537 -59577 -59618.3 -59661.1 -59705.4 -59751 -59798.1 -59846.6 -59896.5 -59947.6 -60000 -60000 -59983.1 -59966 -59948.6 -59931 -59913.1 -59895 -59876.7 -59858.2 -59839.5 -59820.7 -59801.6 -59782.5 -59763.2 -59743.7 -59724.2 -59704.6 -59684.9 -59665.1 -59645.3 -59625.5 -59605.6 -59585.8 -59565.9 -59546.1 -59526.3 -59506.6 -59487 -59467.4 -59448 -59428.7 -59409.5 -59390.5 -59371.6 -59352.9 -59334.4 -59316.2 -59298.1 -59280.3 -59262.7 -59245.4 -59228.4 -59211.6 -59195.2 -59179.1 -59163.3 -59147.8 -59132.7 -59117.9 -59103.5 -59089.5 -59075.9 -59062.7 -59049.9 -59037.5 -59025.5 -59014 -59002.9 -58992.3 -58982.2 -58972.5 -58963.3 -58954.6 -58946.4 -58938.7 -58931.6 -58924.9 -58918.8 -58913.3 -58908.3 -58903.8 -58900 -58896.7 -58894 -58891.9 -58890.4 -58889.5 -58889.3 -58889.7 -58890.7 -58892.4 -58894.8 -58897.9 -58901.6 -58906 -58911.2 -58917.1 -58923.7 -58931.1 -58939.2 -58948.1 -58957.8 -58968.3 -58979.7 -58991.9 -59004.9 -59018.8 -59033.6 -59049.3 -59066 -59083.6 -59102.1 -59121.7 -59142.2 -59163.9 -59186.5 -59210.3 -59235.2 -59261.2 -59288.3 -59316.7 -59346.2 -59377.1 -59409.1 -59442.5 -59477.2 -59513.2 -59550.6 -59589.3 -59629.5 -59671 -59713.9 -59758.3 -59804 -59851 -59899.4 -59949.1 -60000 -60000 -59984.1 -59968 -59951.6 -59935 -59918.1 -59901.1 -59883.8 -59866.3 -59848.7 -59830.8 -59812.8 -59794.7 -59776.4 -59758 -59739.4 -59720.8 -59702.1 -59683.3 -59664.4 -59645.5 -59626.6 -59607.6 -59588.6 -59569.7 -59550.8 -59531.9 -59513.1 -59494.3 -59475.6 -59457.1 -59438.6 -59420.3 -59402.1 -59384.1 -59366.2 -59348.5 -59331 -59313.8 -59296.7 -59279.9 -59263.4 -59247.1 -59231.1 -59215.4 -59199.9 -59184.8 -59170 -59155.6 -59141.5 -59127.7 -59114.3 -59101.3 -59088.7 -59076.4 -59064.6 -59053.2 -59042.2 -59031.7 -59021.6 -59012 -59002.8 -58994.1 -58985.9 -58978.2 -58970.9 -58964.2 -58958 -58952.3 -58947.2 -58942.6 -58938.6 -58