<?xml version="1.0"?> 
<VTKFile type="StructuredGrid" version="0.1"> 
<StructuredGrid WholeExtent="0 15 0 15 0 0"> 
<Piece Extent="0 15 0 15 0 0"> 
<PointData>
<DataArray type="Float32" Name="E" format="ascii" NumberOfComponents="3"> 
-362163 -1.1635e+06 0 377331 -880895 0 566272 -636097 0 658936 -413341 0 683304 -239293 0 673966 -96230.8 0 644347 20108.4 0 599332 116167 0 543712 195123 0 479379 259656 0 408505 311594 0 332446 352367 0 252533 383054 0 169837 404469 0 85356.6 417183 0 0 421542 0 -218299 -1.04943e+06 0 335866 -858255 0 545600 -619163 0 638787 -409359 0 667209 -238179 0 661149 -98375.8 0 633524 16385.8 0 590594 111068 0 536447 189051 0 473530 252801 0 403830 304135 0 328857 344443 0 249917 374788 0 168132 395967 0 84515.2 408542 0 0 412854 0 -177950 -969493 0 309337 -829732 0 523829 -604074 0 619576 -404134 0 651582 -237048 0 648405 -100145 0 622958 12831.9 0 581916 106156 0 529300 183123 0 467739 246075 0 399216 296791 0 325305 336623 0 247331 366617 0 166446 387554 0 83683.3 399987 0 0 404250 0 -148905 -904321 0 287196 -799734 0 502903 -589420 0 601042 -398279 0 636329 -235699 0 635862 -101629 0 612567 9470.55 0 573348 101418 0 522250 177340 0 462017 239478 0 394659 289559 0 321796 328906 0 244776 358540 0 164779 379230 0 82860.8 391518 0 0 395731 0 -130297 -848873 0 268770 -769537 0 482872 -574888 0 583178 -391985 0 621448 -234093 0 623535 -102858 0 602349 6304.06 0 564897 96849.6 0 515298 171700 0 456367 233006 0 390160 282440 0 318329 321290 0 242252 350557 0 163133 370994 0 82048.2 383132 0 0 387295 0 -115357 -800205 0 252918 -739844 0 463868 -560353 0 565958 -385366 0 606934 -232223 0 611442 -103851 0 592301 3330.37 0 556568 92444.7 0 508442 166201 0 450792 226658 0 385718 275430 0 314905 313773 0 239760 342665 0 161506 362843 0 81245.4 374830 0 0 378940 0 -103257 -756606 0 239222 -711021 0 445884 -545790 0 549369 -378489 0 592787 -230094 0 599587 -104621 0 582424 545.293 0 548367 88200 0 501685 160840 0 445294 220432 0 381336 268529 0 311527 306355 0 237299 334864 0 159900 354778 0 80452.9 366609 0 0 370667 0 -92720.7 -716947 0 227286 -683273 0 428904 -531218 0 533398 -371402 0 579009 -227720 0 587977 -105179 0 572720 -2056.28 0 540295 84111.7 0 495028 155616 0 439873 214325 0 377014 261735 0 308194 299034 0 234871 327153 0 158316 346798 0 79670.7 358470 0 0 362473 0 -83190.6 -680462 0 216842 -656707 0 412894 -516668 0 518031 -364145 0 565602 -225115 0 576613 -105535 0 563191 -4479.85 0 532356 80176.2 0 488473 150525 0 434533 208336 0 372754 255047 0 304908 291808 0 232477 319529 0 156753 338900 0 78899.1 350410 0 0 354358 0 -74134.9 -646634 0 207658 -631374 0 397810 -502177 0 503254 -356749 0 552565 -222297 0 565499 -105698 0 553841 -6731.05 0 524550 76389.7 0 482021 145565 0 429273 202463 0 368557 248461 0 301670 284677 0 230117 311993 0 155211 331084 0 78138.3 342429 0 0 346321 0 -65132.2 -615143 0 199542 -607288 0 383605 -487782 0 489052 -349243 0 539898 -219281 0 554637 -105679 0 544672 -8815.54 0 516881 72748.6 0 475675 140733 0 424095 196703 0 364423 241978 0 298479 277638 0 227791 304542 0 153693 323348 0 77388.5 334526 0 0 338361 0 -55491.3 -585857 0 192287 -584428 0 370236 -473518 0 475407 -341651 0 527600 -216084 0 544026 -105485 0 535686 -10738.9 0 509350 69249.2 0 469435 136026 0 419001 191055 0 360354 235595 0 295337 270690 0 225500 297175 0 152197 315692 0 76649.9 326699 0 0 330476 0 -44772.7 -558892 0 185719 -562734 0 357658 -459420 0 462302 -333994 0 515668 -212720 0 533668 -105126 0 526884 -12506.9 0 501958 65887.5 0 463304 131442 0 413991 185515 0 356351 229311 0 292246 263832 0 223246 289891 0 150724 308114 0 75922.6 318948 0 0 322665 0 -29901.3 -534849 0 179380 -542047 0 345883 -445548 0 449711 -326279 0 504097 -209209 0 523567 -104609 0 518266 -14125.6 0 494708 62660.1 0 457283 126978 0 409068 180084 0 352415 223123 0 289204 257062 0 221027 282689 0 149275 300613 0 75207 311271 0 0 314927 0 -10504 -515157 0 173059 -522035 0 334881 -432011 0 437615 -318493 0 492884 -205575 0 513724 -103939 0 509834 -15601.8 0 487603 59563.4 0 451372 122631 0 404232 174757 0 348546 217029 0 286214 250379 0 218846 275567 0 147850 293188 0 74503.1 303666 0 0 307262 0 54831.1 -507498 0 162158 -501077 0 325463 -419362 0 425876 -310449 0 481985 -201909 0 504186 -103096 0 501554 -16950.7 0 480661 56597 0 445563 118396 0 399489 169533 0 344743 211029 0 283278 243780 0 216702 268524 0 146449 285837 0 73811 296134 0 0 299667 0 </DataArray> 
</PointData> 
<Points> 
<DataArray type="Float32" NumberOfComponents="3"> 
0.406 0.03 0 0.406 0.0365333 0 0.406 0.0430667 0 0.406 0.0496 0 0.406 0.0561333 0 0.406 0.0626667 0 0.406 0.0692 0 0.406 0.0757333 0 0.406 0.0822667 0 0.406 0.0888 0 0.406 0.0953333 0 0.406 0.101867 0 0.406 0.1084 0 0.406 0.114933 0 0.406 0.121467 0 0.406 0.128 0 0.406667 0.03 0 0.406667 0.0365333 0 0.406667 0.0430667 0 0.406667 0.0496 0 0.406667 0.0561333 0 0.406667 0.0626667 0 0.406667 0.0692 0 0.406667 0.0757333 0 0.406667 0.0822667 0 0.406667 0.0888 0 0.406667 0.0953333 0 0.406667 0.101867 0 0.406667 0.1084 0 0.406667 0.114933 0 0.406667 0.121467 0 0.406667 0.128 0 0.407333 0.03 0 0.407333 0.0365333 0 0.407333 0.0430667 0 0.407333 0.0496 0 0.407333 0.0561333 0 0.407333 0.0626667 0 0.407333 0.0692 0 0.407333 0.0757333 0 0.407333 0.0822667 0 0.407333 0.0888 0 0.407333 0.0953333 0 0.407333 0.101867 0 0.407333 0.1084 0 0.407333 0.114933 0 0.407333 0.121467 0 0.407333 0.128 0 0.408 0.03 0 0.408 0.0365333 0 0.408 0.0430667 0 0.408 0.0496 0 0.408 0.0561333 0 0.408 0.0626667 0 0.408 0.0692 0 0.408 0.0757333 0 0.408 0.0822667 0 0.408 0.0888 0 0.408 0.0953333 0 0.408 0.101867 0 0.408 0.1084 0 0.408 0.114933 0 0.408 0.121467 0 0.408 0.128 0 0.408667 0.03 0 0.408667 0.0365333 0 0.408667 0.0430667 0 0.408667 0.0496 0 0.408667 0.0561333 0 0.408667 0.0626667 0 0.408667 0.0692 0 0.408667 0.0757333 0 0.408667 0.0822667 0 0.408667 0.0888 0 0.408667 0.0953333 0 0.408667 0.101867 0 0.408667 0.1084 0 0.408667 0.114933 0 0.408667 0.121467 0 0.408667 0.128 0 0.409333 0.03 0 0.409333 0.0365333 0 0.409333 0.0430667 0 0.409333 0.0496 0 0.409333 0.0561333 0 0.409333 0.0626667 0 0.409333 0.0692 0 0.409333 0.0757333 0 0.409333 0.0822667 0 0.409333 0.0888 0 0.409333 0.0953333 0 0.409333 0.101867 0 0.409333 0.1084 0 0.409333 0.114933 0 0.409333 0.121467 0 0.409333 0.128 0 0.41 0.03 0 0.41 0.0365333 0 0.41 0.0430667 0 0.41 0.0496 0 0.41 0.0561333 0 0.41 0.0626667 0 0.41 0.0692 0 0.41 0.0757333 0 0.41 0.0822667 0 0.41 0.0888 0 0.41 0.0953333 0 0.41 0.101867 0 0.41 0.1084 0 0.41 0.114933 0 0.41 0.121467 0 0.41 0.128 0 0.410667 0.03 0 0.410667 0.0365333 0 0.410667 0.0430667 0 0.410667 0.0496 0 0.410667 0.0561333 0 0.410667 0.0626667 0 0.410667 0.0692 0 0.410667 0.0757333 0 0.410667 0.0822667 0 0.410667 0.0888 0 0.410667 0.0953333 0 0.410667 0.101867 0 0.410667 0.1084 0 0.410667 0.114933 0 0.410667 0.121467 0 0.410667 0.128 0 0.411333 0.03 0 0.411333 0.0365333 0 0.411333 0.0430667 0 0.411333 0.0496 0 0.411333 0.0561333 0 0.411333 0.0626667 0 0.411333 0.0692 0 0.411333 0.0757333 0 0.411333 0.0822667 0 0.411333 0.0888 0 0.411333 0.0953333 0 0.411333 0.101867 0 0.411333 0.1084 0 0.411333 0.114933 0 0.411333 0.121467 0 0.411333 0.128 0 0.412 0.03 0 0.412 0.0365333 0 0.412 0.0430667 0 0.412 0.0496 0 0.412 0.0561333 0 0.412 0.0626667 0 0.412 0.0692 0 0.412 0.0757333 0 0.412 0.0822667 0 0.412 0.0888 0 0.412 0.0953333 0 0.412 0.101867 0 0.412 0.1084 0 0.412 0.114933 0 0.412 0.121467 0 0.412 0.128 0 0.412667 0.03 0 0.412667 0.0365333 0 0.412667 0.0430667 0 0.412667 0.0496 0 0.412667 0.0561333 0 0.412667 0.0626667 0 0.412667 0.0692 0 0.412667 0.0757333 0 0.412667 0.0822667 0 0.412667 0.0888 0 0.412667 0.0953333 0 0.412667 0.101867 0 0.412667 0.1084 0 0.412667 0.114933 0 0.412667 0.121467 0 0.412667 0.128 0 0.413333 0.03 0 0.413333 0.0365333 0 0.413333 0.0430667 0 0.413333 0.0496 0 0.413333 0.0561333 0 0.413333 0.0626667 0 0.413333 0.0692 0 0.413333 0.0757333 0 0.413333 0.0822667 0 0.413333 0.0888 0 0.413333 0.0953333 0 0.413333 0.101867 0 0.413333 0.1084 0 0.413333 0.114933 0 0.413333 0.121467 0 0.413333 0.128 0 0.414 0.03 0 0.414 0.0365333 0 0.414 0.0430667 0 0.414 0.0496 0 0.414 0.0561333 0 0.414 0.0626667 0 0.414 0.0692 0 0.414 0.0757333 0 0.414 0.0822667 0 0.414 0.0888 0 0.414 0.0953333 0 0.414 0.101867 0 0.414 0.1084 0 0.414 0.114933 0 0.414 0.121467 0 0.414 0.128 0 0.414667 0.03 0 0.414667 0.0365333 0 0.414667 0.0430667 0 0.414667 0.0496 0 0.414667 0.0561333 0 0.414667 0.0626667 0 0.414667 0.0692 0 0.414667 0.0757333 0 0.414667 0.0822667 0 0.414667 0.0888 0 0.414667 0.0953333 0 0.414667 0.101867 0 0.414667 0.1084 0 0.414667 0.114933 0 0.414667 0.121467 0 0.414667 0.128 0 0.415333 0.03 0 0.415333 0.0365333 0 0.415333 0.0430667 0 0.415333 0.0496 0 0.415333 0.0561333 0 0.415333 0.0626667 0 0.415333 0.0692 0 0.415333 0.0757333 0 0.415333 0.0822667 0 0.415333 0.0888 0 0.415333 0.0953333 0 0.415333 0.101867 0 0.415333 0.1084 0 0.415333 0.114933 0 0.415333 0.121467 0 0.415333 0.128 0 0.416 0.03 0 0.416 0.0365333 0 0.416 0.0430667 0 0.416 0.0496 0 0.416 0.0561333 0 0.416 0.0626667 0 0.416 0.0692 0 0.416 0.0757333 0 0.416 0.0822667 0 0.416 0.0888 0 0.416 0.0953333 0 0.416 0.101867 0 0.416 0.1084 0 0.416 0.114933 0 0.416 0.121467 0 0.416 0.128 0 
</DataArray>
</Points> 
</Piece> 
</StructuredGrid> 
</VTKFile> 
