<?xml version="1.0"?> 
<VTKFile type="StructuredGrid" version="0.1"> 
<StructuredGrid WholeExtent="0 15 0 15 0 0"> 
<Piece Extent="0 15 0 15 0 0"> 
<PointData>
<DataArray type="Float32" Name="E" format="ascii" NumberOfComponents="3"> 
806651 1.19209e-07 0 587185 3.72529e-08 0 441336 -1.49012e-08 0 340734 5.21541e-08 0 268780 4.47035e-08 0 215418 0 0 174454 1.49012e-08 0 141972 -5.96046e-08 0 115428 0 0 93121 -2.98023e-08 0 73872.4 1.19209e-07 0 56837.4 0 0 41385.5 0 0 27023.7 0 0 13346.5 -1.78814e-07 0 4.47035e-08 1.19209e-07 0 41576.8 -381112 0 98180.6 -301838 0 120246 -242815 0 124217 -198191 0 118928 -164167 0 109185 -137981 0 97547.4 -117681 0 85350.4 -101862 0 73255.5 -89507.2 0 61558 -79877.4 0 50354.6 -72432.2 0 39636.4 -66778 0 29339.5 -62631 0 19372.1 -59791.4 0 9629.3 -58126.5 0 -5.40167e-08 -57559.3 0 -11974.5 -212297 0 -10898.8 -202743 0 -4043.56 -189986 0 3577.63 -176138 0 9974.73 -162379 0 14532.4 -149418 0 17255 -137628 0 18384.4 -127182 0 18223.5 -118131 0 17060.9 -110456 0 15143.8 -104107 0 12672.9 -99020.5 0 9807.85 -95133.3 0 6675.11 -92390.4 0 3376.96 -90749.9 0 9.12696e-08 -90185.4 0 -75823.3 -148189 0 -59405.2 -143154 0 -47704 -138018 0 -38604.7 -132855 0 -31171 -127741 0 -24967.3 -122765 0 -19773.9 -118018 0 -15453.3 -113583 0 -11895.9 -109535 0 -8999.57 -105932 0 -6663.72 -102820 0 -4789.13 -100235 0 -3278.62 -98198.7 0 -2037.71 -96729.4 0 -974.681 -95837.2 0 -8.9407e-08 -95527.6 0 -69435.7 -93233.4 0 -63366.9 -93493.3 0 -56581.7 -93501.5 0 -49885.2 -93186.7 0 -43586.3 -92588.7 0 -37784 -91775.3 0 -32484.8 -90820.5 0 -27658 -89793.3 0 -23258 -88754.7 0 -19233.9 -87756.3 0 -15533.1 -86841.7 0 -12102.1 -86046.2 0 -8887.28 -85397.9 0 -5834.65 -84918.1 0 -2890.24 -84621.8 0 4.09782e-08 -84518.2 0 -60890.5 -57340.3 0 -55098.6 -59856.1 0 -49941.9 -61731.2 0 -45126.1 -63186.5 0 -40541.7 -64324.6 0 -36149.4 -65210.6 0 -31935.5 -65890.1 0 -27892.3 -66400.4 0 -24011 -66773.5 0 -20279.5 -67038 0 -16682.5 -67218.7 0 -13201.5 -67337 0 -9815.66 -67410.6 0 -6502.7 -67453.1 0 -3238.94 -67474.7 0 -3.72529e-09 -67481.5 0 -44972.1 -36498 0 -42046 -38502.4 0 -38935.9 -40424.2 0 -35772.3 -42166.9 0 -32609.7 -43709.4 0 -29472.1 -45053.8 0 -26369.8 -46213 0 -23306.8 -47202.3 0 -20284.2 -48036.9 0 -17301.1 -48731 0 -14354.6 -49297 0 -11441.1 -49745.7 0 -8555.22 -50085.9 0 -5691.04 -50324.5 0 -2841.73 -50466.7 0 7.45058e-09 -50515.5 0 -32307.3 -22854 0 -30293.1 -24837.5 0 -28272.5 -26563 0 -26217.4 -28101.4 0 -24124 -29479.9 0 -21996.8 -30712.7 0 -19842.7 -31807.7 0 -17668.2 -32770.8 0 -15478.9 -33607.2 0 -13279.2 -34321.5 0 -11072.6 -34918.3 0 -8861.47 -35401.3 0 -6647.68 -35774 0 -4432.39 -36039.1 0 -2216.34 -36198.5 0 7.45058e-09 -36253.5 0 -22172.2 -15152 0 -20999.9 -16417.3 0 -19741.4 -17639.2 0 -18417.6 -18782.5 0 -17040.2 -19835.6 0 -15617.2 -20794.4 0 -14155 -21658.1 0 -12659 -22427.5 0 -11134.4 -23103.3 0 -9585.52 -23686.8 0 -8016.73 -24178.9 0 -6431.86 -24580.6 0 -4834.49 -24892.6 0 -3227.97 -25115.8 0 -1615.47 -25250.5 0 0 -25297.1 0 -15060.9 -9974.2 0 -14292.9 -10928.2 0 -13477.8 -11800.5 0 -12616.2 -12605.9 0 -11711.2 -13348.5 0 -10766.6 -14029.1 0 -9786.63 -14647.3 0 -8775.29 -15202.2 0 -7736.52 -15693.2 0 -6674.1 -16119.8 0 -5591.69 -16481.5 0 -4492.81 -16778.1 0 -3380.9 -17009.4 0 -2259.29 -17175.2 0 -1131.24 -17275.5 0 1.49012e-08 -17310.2 0 -10143.9 -6761.91 0 -9650.31 -7352.61 0 -9117.75 -7920.35 0 -8549.84 -8455.43 0 -7949.62 -8953.83 0 -7319.92 -9413.24 0 -6663.5 -9832.24 0 -5983.1 -10209.8 0 -5281.44 -10545 0 -4561.22 -10837.1 0 -3825.14 -11085.5 0 -3075.88 -11289.7 0 -2316.09 -11449.3 0 -1548.43 -11563.9 0 -775.523 -11633.2 0 -1.49012e-08 -11657.3 0 -6878.73 -4511.88 0 -6546.34 -4907.4 0 -6188.38 -5276.8 0 -5806.46 -5622.32 0 -5402.24 -5943.91 0 -4977.44 -6240.92 0 -4533.84 -6512.51 0 -4073.23 -6757.84 0 -3597.45 -6976.14 0 -3108.36 -7166.76 0 -2607.83 -7329.13 0 -2097.75 -7462.77 0 -1580.02 -7567.31 0 -1056.54 -7642.44 0 -529.227 -7687.95 0 -7.45058e-09 -7703.72 0 -4767 -2961.21 0 -4535.5 -3196.85 0 -4286.86 -3422.01 0 -4021.95 -3634.34 0 -3741.82 -3832.65 0 -3447.59 -4016.08 0 -3140.41 -4183.98 0 -2821.5 -4335.77 0 -2492.08 -4470.95 0 -2153.41 -4589.08 0 -1806.77 -4689.78 0 -1453.46 -4772.71 0 -1094.8 -4837.62 0 -732.106 -4884.29 0 -366.726 -4912.58 0 1.49012e-08 -4922.38 0 -3467.58 -1792.79 0 -3297.19 -1928.81 0 -3114.56 -2056.87 0 -2920.53 -2177.1 0 -2715.86 -2289.26 0 -2501.31 -2393.03 0 -2277.69 -2488.06 0 -2045.82 -2574.01 0 -1806.54 -2650.58 0 -1560.74 -2717.53 0 -1309.3 -2774.61 0 -1053.14 -2821.63 0 -793.192 -2858.44 0 -530.385 -2884.91 0 -265.67 -2900.95 0 -1.49012e-08 -2906.51 0 -2755.73 -855.486 0 -2617.62 -914.792 0 -2470.55 -971.23 0 -2314.95 -1024.39 0 -2151.32 -1074.02 0 -1980.22 -1119.94 0 -1802.27 -1161.97 0 -1618.07 -1199.98 0 -1428.28 -1233.85 0 -1233.54 -1263.45 0 -1034.53 -1288.69 0 -831.948 -1309.48 0 -626.49 -1325.75 0 -418.867 -1337.46 0 -209.796 -1344.55 0 1.49012e-08 -1347.01 0 -2495.64 -2.38419e-07 0 -2368.57 9.31323e-08 0 -2233.59 -1.71363e-07 0 -2091.25 2.68221e-07 0 -1942.03 -2.68221e-07 0 -1786.43 1.19209e-07 0 -1624.96 -5.96046e-08 0 -1458.15 5.96046e-08 0 -1286.55 2.98023e-08 0 -1110.72 -1.19209e-07 0 -931.233 1.78814e-07 0 -748.688 1.19209e-07 0 -563.681 -2.98023e-07 0 -376.821 3.57628e-07 0 -188.721 -3.57628e-07 0 -2.98023e-08 2.38419e-07 0 </DataArray> 
</PointData> 
<Points> 
<DataArray type="Float32" NumberOfComponents="3"> 
0.2525 0.035 0 0.2525 0.0356667 0 0.2525 0.0363333 0 0.2525 0.037 0 0.2525 0.0376667 0 0.2525 0.0383333 0 0.2525 0.039 0 0.2525 0.0396667 0 0.2525 0.0403333 0 0.2525 0.041 0 0.2525 0.0416667 0 0.2525 0.0423333 0 0.2525 0.043 0 0.2525 0.0436667 0 0.2525 0.0443333 0 0.2525 0.045 0 0.2558 0.0351867 0 0.2558 0.0358409 0 0.2558 0.0364951 0 0.2558 0.0371493 0 0.2558 0.0378036 0 0.2558 0.0384578 0 0.2558 0.039112 0 0.2558 0.0397662 0 0.2558 0.0404204 0 0.2558 0.0410747 0 0.2558 0.0417289 0 0.2558 0.0423831 0 0.2558 0.0430373 0 0.2558 0.0436916 0 0.2558 0.0443458 0 0.2558 0.045 0 0.2591 0.0353733 0 0.2591 0.0360151 0 0.2591 0.0366569 0 0.2591 0.0372987 0 0.2591 0.0379404 0 0.2591 0.0385822 0 0.2591 0.039224 0 0.2591 0.0398658 0 0.2591 0.0405076 0 0.2591 0.0411493 0 0.2591 0.0417911 0 0.2591 0.0424329 0 0.2591 0.0430747 0 0.2591 0.0437164 0 0.2591 0.0443582 0 0.2591 0.045 0 0.2624 0.03556 0 0.2624 0.0361893 0 0.2624 0.0368187 0 0.2624 0.037448 0 0.2624 0.0380773 0 0.2624 0.0387067 0 0.2624 0.039336 0 0.2624 0.0399653 0 0.2624 0.0405947 0 0.2624 0.041224 0 0.2624 0.0418533 0 0.2624 0.0424827 0 0.2624 0.043112 0 0.2624 0.0437413 0 0.2624 0.0443707 0 0.2624 0.045 0 0.2657 0.0357467 0 0.2657 0.0363636 0 0.2657 0.0369804 0 0.2657 0.0375973 0 0.2657 0.0382142 0 0.2657 0.0388311 0 0.2657 0.039448 0 0.2657 0.0400649 0 0.2657 0.0406818 0 0.2657 0.0412987 0 0.2657 0.0419156 0 0.2657 0.0425324 0 0.2657 0.0431493 0 0.2657 0.0437662 0 0.2657 0.0443831 0 0.2657 0.045 0 0.269 0.0359333 0 0.269 0.0365378 0 0.269 0.0371422 0 0.269 0.0377467 0 0.269 0.0383511 0 0.269 0.0389556 0 0.269 0.03956 0 0.269 0.0401644 0 0.269 0.0407689 0 0.269 0.0413733 0 0.269 0.0419778 0 0.269 0.0425822 0 0.269 0.0431867 0 0.269 0.0437911 0 0.269 0.0443956 0 0.269 0.045 0 0.2723 0.03612 0 0.2723 0.036712 0 0.2723 0.037304 0 0.2723 0.037896 0 0.2723 0.038488 0 0.2723 0.03908 0 0.2723 0.039672 0 0.2723 0.040264 0 0.2723 0.040856 0 0.2723 0.041448 0 0.2723 0.04204 0 0.2723 0.042632 0 0.2723 0.043224 0 0.2723 0.043816 0 0.2723 0.044408 0 0.2723 0.045 0 0.2756 0.0363067 0 0.2756 0.0368862 0 0.2756 0.0374658 0 0.2756 0.0380453 0 0.2756 0.0386249 0 0.2756 0.0392044 0 0.2756 0.039784 0 0.2756 0.0403636 0 0.2756 0.0409431 0 0.2756 0.0415227 0 0.2756 0.0421022 0 0.2756 0.0426818 0 0.2756 0.0432613 0 0.2756 0.0438409 0 0.2756 0.0444204 0 0.2756 0.045 0 0.2789 0.0364933 0 0.2789 0.0370604 0 0.2789 0.0376276 0 0.2789 0.0381947 0 0.2789 0.0387618 0 0.2789 0.0393289 0 0.2789 0.039896 0 0.2789 0.0404631 0 0.2789 0.0410302 0 0.2789 0.0415973 0 0.2789 0.0421644 0 0.2789 0.0427316 0 0.2789 0.0432987 0 0.2789 0.0438658 0 0.2789 0.0444329 0 0.2789 0.045 0 0.2822 0.03668 0 0.2822 0.0372347 0 0.2822 0.0377893 0 0.2822 0.038344 0 0.2822 0.0388987 0 0.2822 0.0394533 0 0.2822 0.040008 0 0.2822 0.0405627 0 0.2822 0.0411173 0 0.2822 0.041672 0 0.2822 0.0422267 0 0.2822 0.0427813 0 0.2822 0.043336 0 0.2822 0.0438907 0 0.2822 0.0444453 0 0.2822 0.045 0 0.2855 0.0368667 0 0.2855 0.0374089 0 0.2855 0.0379511 0 0.2855 0.0384933 0 0.2855 0.0390356 0 0.2855 0.0395778 0 0.2855 0.04012 0 0.2855 0.0406622 0 0.2855 0.0412044 0 0.2855 0.0417467 0 0.2855 0.0422889 0 0.2855 0.0428311 0 0.2855 0.0433733 0 0.2855 0.0439156 0 0.2855 0.0444578 0 0.2855 0.045 0 0.2888 0.0370533 0 0.2888 0.0375831 0 0.2888 0.0381129 0 0.2888 0.0386427 0 0.2888 0.0391724 0 0.2888 0.0397022 0 0.2888 0.040232 0 0.2888 0.0407618 0 0.2888 0.0412916 0 0.2888 0.0418213 0 0.2888 0.0423511 0 0.2888 0.0428809 0 0.2888 0.0434107 0 0.2888 0.0439404 0 0.2888 0.0444702 0 0.2888 0.045 0 0.2921 0.03724 0 0.2921 0.0377573 0 0.2921 0.0382747 0 0.2921 0.038792 0 0.2921 0.0393093 0 0.2921 0.0398267 0 0.2921 0.040344 0 0.2921 0.0408613 0 0.2921 0.0413787 0 0.2921 0.041896 0 0.2921 0.0424133 0 0.2921 0.0429307 0 0.2921 0.043448 0 0.2921 0.0439653 0 0.2921 0.0444827 0 0.2921 0.045 0 0.2954 0.0374267 0 0.2954 0.0379316 0 0.2954 0.0384364 0 0.2954 0.0389413 0 0.2954 0.0394462 0 0.2954 0.0399511 0 0.2954 0.040456 0 0.2954 0.0409609 0 0.2954 0.0414658 0 0.2954 0.0419707 0 0.2954 0.0424756 0 0.2954 0.0429804 0 0.2954 0.0434853 0 0.2954 0.0439902 0 0.2954 0.0444951 0 0.2954 0.045 0 0.2987 0.0376133 0 0.2987 0.0381058 0 0.2987 0.0385982 0 0.2987 0.0390907 0 0.2987 0.0395831 0 0.2987 0.0400756 0 0.2987 0.040568 0 0.2987 0.0410604 0 0.2987 0.0415529 0 0.2987 0.0420453 0 0.2987 0.0425378 0 0.2987 0.0430302 0 0.2987 0.0435227 0 0.2987 0.0440151 0 0.2987 0.0445076 0 0.2987 0.045 0 0.302 0.0378 0 0.302 0.03828 0 0.302 0.03876 0 0.302 0.03924 0 0.302 0.03972 0 0.302 0.0402 0 0.302 0.04068 0 0.302 0.04116 0 0.302 0.04164 0 0.302 0.04212 0 0.302 0.0426 0 0.302 0.04308 0 0.302 0.04356 0 0.302 0.04404 0 0.302 0.04452 0 0.302 0.045 0 
</DataArray>
</Points> 
</Piece> 
</StructuredGrid> 
</VTKFile> 
