<?xml version="1.0"?> 
<VTKFile type="StructuredGrid" version="0.1"> 
<StructuredGrid WholeExtent="0 15 0 15 0 0"> 
<Piece Extent="0 15 0 15 0 0"> 
<PointData>
<DataArray type="Float32" Name="E" format="ascii" NumberOfComponents="3"> 
-703696 -1.06608e+06 0 -529880 -892409 0 -437882 -829603 0 -373806 -799777 0 -321088 -785631 0 -272684 -778865 0 -225411 -776632 0 -177388 -777611 0 -127088 -781476 0 -72740.1 -788607 0 -11707.5 -800307 0 60571.1 -819707 0 152828 -853659 0 283490 -919863 0 493435 -1.05668e+06 0 884899 -1.38331e+06 0 -559336 -404610 0 -523818 -445204 0 -473200 -466218 0 -420186 -478912 0 -368042 -486545 0 -317520 -490793 0 -268452 -492312 0 -220420 -491309 0 -172990 -487644 0 -125845 -480880 0 -78941.9 -470227 0 -32807.8 -454362 0 10773.8 -431114 0 47094.9 -396424 0 64718.2 -343063 0 34315.1 -252737 0 -487952 -178154 0 -447338 -196149 0 -411507 -214629 0 -376434 -231372 0 -341478 -245646 0 -306748 -257114 0 -272544 -265673 0 -239180 -271308 0 -206956 -274050 0 -176184 -273960 0 -147184 -271144 0 -120244 -265815 0 -95427.7 -258379 0 -71995.9 -249658 0 -46960.3 -241130 0 -10627.6 -236108 0 -377441 20350.5 0 -353145 -12062 0 -328132 -39918.1 0 -303678 -63822.3 0 -279877 -84254.2 0 -256666 -101553 0 -234006 -115970 0 -211914 -127708 0 -190453 -136944 0 -169706 -143843 0 -149768 -148567 0 -130745 -151272 0 -112812 -152100 0 -96413 -151185 0 -82824.9 -148668 0 -76004.6 -144985 0 -217549 111327 0 -214526 79595 0 -209289 51825 0 -201981 27354.4 0 -193065 5878.64 0 -182970 -12869.1 0 -172050 -29115.2 0 -160594 -43066.3 0 -148844 -54911.4 0 -137009 -64828 0 -125277 -72988.2 0 -113814 -79562.8 0 -102745 -84723.7 0 -92078.3 -88614.4 0 -81477.8 -91293.8 0 -69489.4 -92285.3 0 -95922.7 97177.2 0 -105375 80915.7 0 -111285 64504.8 0 -114406 48679.2 0 -115246 33726.4 0 -114221 19826.6 0 -111686 7073.45 0 -107948 -4489.71 0 -103274 -14857.4 0 -97889.9 -24051 0 -91988.1 -32110.8 0 -85730.2 -39090.9 0 -79256.6 -45056.5 0 -72715.9 -50106.2 0 -66352.8 -54409.2 0 -60821.3 -58563.2 0 -44571.3 61725.7 0 -51973.6 55238.5 0 -58068.2 47910.1 0 -62737.8 39970.7 0 -66017.9 31734.2 0 -68005 23458.2 0 -68824.5 15346.5 0 -68614.6 7551.12 0 -67516.1 181.736 0 -65666.7 -6687.49 0 -63197.8 -13011.6 0 -60231.9 -18769.1 0 -56879.7 -23957.3 0 -53230.5 -28572.9 0 -49321.1 -32585 0 -45016.8 -35707.1 0 -23874.5 39998 0 -28480.3 36623.8 0 -32562.8 32712.5 0 -36047.6 28399 0 -38875.8 23771.3 0 -41019.1 18934.3 0 -42478.5 13993.2 0 -43278.4 9047.79 0 -43459.8 4185.85 0 -43074.7 -518.656 0 -42181.2 -5006.19 0 -40839.7 -9230.97 0 -39110.2 -13159.7 0 -37053 -16778.1 0 -34737.4 -20100.5 0 -32282.1 -23299.5 0 -12869.1 25463 0 -16047.1 23810 0 -18918.4 21752.3 0 -21441 19338.6 0 -23583.8 16643.1 0 -25325.3 13733.8 0 -26653.7 10676.3 0 -27567.3 7532.38 0 -28074.1 4359.76 0 -28190.4 1210.78 0 -27938.9 -1868.56 0 -27347.6 -4839.2 0 -26447.4 -7669.36 0 -25270.4 -10330.4 0 -23845.2 -12791.5 0 -22183.7 -14948 0 -7500.91 16386 0 -9542.85 15484.5 0 -11454.1 14313.1 0 -13190.4 12905.9 0 -14717 11290.9 0 -16007.9 9503.35 0 -17045.3 7580.96 0 -17818.5 5562.37 0 -18323.7 3485.44 0 -18562.8 1386.26 0 -18543 -701.542 0 -18275.4 -2747.31 0 -17774.3 -4723.52 0 -17056.9 -6607.68 0 -16142.6 -8384.45 0 -15054.8 -10080.9 0 -4483.27 10683.8 0 -5874.67 10141.8 0 -7180.27 9435.3 0 -8378.84 8570.24 0 -9449.34 7562.96 0 -10373.4 6432.11 0 -11136.1 5199.02 0 -11726.4 3886.62 0 -12137.5 2518.69 0 -12366.2 1119.04 0 -12413.3 -289.183 0 -12282.5 -1684.03 0 -11980.6 -3045.31 0 -11516.5 -4354.06 0 -10900.8 -5592.13 0 -10146.1 -6724.16 0 -2802.25 6848.15 0 -3752 6557.85 0 -4656.12 6142.66 0 -5494.65 5615.26 0 -6251.12 4986.19 0 -6911.39 4267.97 0 -7463.75 3474.37 0 -7898.97 2620.31 0 -8210.41 1721.41 0 -8393.99 793.659 0 -8448.17 -146.956 0 -8373.76 -1084.81 0 -8173.79 -2004.85 0 -7853.23 -2893.16 0 -7418.79 -3737.35 0 -6877.45 -4534.54 0 -1838.7 4315.29 0 -2518.42 4143.31 0 -3164.32 3897.2 0 -3765.55 3577.92 0 -4310.75 3190.68 0 -4789.48 2742.38 0 -5192.64 2241.37 0 -5512.73 1697.07 0 -5743.98 1119.67 0 -5882.45 519.802 0 -5926.04 -91.7232 0 -5874.42 -704.139 0 -5728.97 -1307.01 0 -5492.65 -1890.26 0 -5169.86 -2444.41 0 -4767.25 -2956.68 0 -1310.53 2498.99 0 -1816.6 2421.69 0 -2301.33 2292.62 0 -2754.23 2115.81 0 -3166.2 1894.95 0 -3528.94 1634.56 0 -3835.13 1339.84 0 -4078.57 1016.64 0 -4254.33 671.299 0 -4358.86 310.533 0 -4390 -58.7589 0 -4347.05 -429.627 0 -4230.68 -795.211 0 -4042.96 -1148.9 0 -3787.21 -1484.48 0 -3467.32 -1797.52 0 -1035.02 1138.12 0 -1446.61 1113.59 0 -1842.19 1062.8 0 -2213.91 987.152 0 -2553.66 888.685 0 -2853.85 769.75 0 -3107.74 633.036 0 -3309.59 481.524 0 -3454.76 318.441 0 -3539.83 147.197 0 -3562.63 -28.6889 0 -3522.29 -205.661 0 -3419.17 -380.208 0 -3254.92 -548.913 0 -3032.34 -708.556 0 -2755.73 -855.519 0 -883.936 5.96046e-08 0 -1264.06 -7.45058e-08 0 -1636.89 -1.11759e-08 0 -1991.12 6.70552e-08 0 -2317.27 -9.68575e-08 0 -2606.97 9.68575e-08 0 -2852.92 -1.49012e-08 0 -3048.92 -4.47035e-08 0 -3189.99 0 0 -3272.42 -1.49012e-08 0 -3293.82 5.96046e-08 0 -3253.17 0 0 -3150.78 0 0 -2988.31 -5.96046e-08 0 -2768.67 2.98023e-08 0 -2495.64 1.19209e-07 0 </DataArray> 
</PointData> 
<Points> 
<DataArray type="Float32" NumberOfComponents="3"> 
0.253 0.027 0 0.252967 0.0275333 0 0.252933 0.0280667 0 0.2529 0.0286 0 0.252867 0.0291333 0 0.252833 0.0296667 0 0.2528 0.0302 0 0.252767 0.0307333 0 0.252733 0.0312667 0 0.2527 0.0318 0 0.252667 0.0323333 0 0.252633 0.0328667 0 0.2526 0.0334 0 0.252567 0.0339333 0 0.252533 0.0344667 0 0.2525 0.035 0 0.256267 0.02656 0 0.256236 0.0271351 0 0.256204 0.0277102 0 0.256173 0.0282853 0 0.256142 0.0288604 0 0.256111 0.0294356 0 0.25608 0.0300107 0 0.256049 0.0305858 0 0.256018 0.0311609 0 0.255987 0.031736 0 0.255956 0.0323111 0 0.255924 0.0328862 0 0.255893 0.0334613 0 0.255862 0.0340364 0 0.255831 0.0346116 0 0.2558 0.0351867 0 0.259533 0.02612 0 0.259504 0.0267369 0 0.259476 0.0273538 0 0.259447 0.0279707 0 0.259418 0.0285876 0 0.259389 0.0292044 0 0.25936 0.0298213 0 0.259331 0.0304382 0 0.259302 0.0310551 0 0.259273 0.031672 0 0.259244 0.0322889 0 0.259216 0.0329058 0 0.259187 0.0335227 0 0.259158 0.0341396 0 0.259129 0.0347564 0 0.2591 0.0353733 0 0.2628 0.02568 0 0.262773 0.0263387 0 0.262747 0.0269973 0 0.26272 0.027656 0 0.262693 0.0283147 0 0.262667 0.0289733 0 0.26264 0.029632 0 0.262613 0.0302907 0 0.262587 0.0309493 0 0.26256 0.031608 0 0.262533 0.0322667 0 0.262507 0.0329253 0 0.26248 0.033584 0 0.262453 0.0342427 0 0.262427 0.0349013 0 0.2624 0.03556 0 0.266067 0.02524 0 0.266042 0.0259404 0 0.266018 0.0266409 0 0.265993 0.0273413 0 0.265969 0.0280418 0 0.265944 0.0287422 0 0.26592 0.0294427 0 0.265896 0.0301431 0 0.265871 0.0308436 0 0.265847 0.031544 0 0.265822 0.0322444 0 0.265798 0.0329449 0 0.265773 0.0336453 0 0.265749 0.0343458 0 0.265724 0.0350462 0 0.2657 0.0357467 0 0.269333 0.0248 0 0.269311 0.0255422 0 0.269289 0.0262844 0 0.269267 0.0270267 0 0.269244 0.0277689 0 0.269222 0.0285111 0 0.2692 0.0292533 0 0.269178 0.0299956 0 0.269156 0.0307378 0 0.269133 0.03148 0 0.269111 0.0322222 0 0.269089 0.0329644 0 0.269067 0.0337067 0 0.269044 0.0344489 0 0.269022 0.0351911 0 0.269 0.0359333 0 0.2726 0.02436 0 0.27258 0.025144 0 0.27256 0.025928 0 0.27254 0.026712 0 0.27252 0.027496 0 0.2725 0.02828 0 0.27248 0.029064 0 0.27246 0.029848 0 0.27244 0.030632 0 0.27242 0.031416 0 0.2724 0.0322 0 0.27238 0.032984 0 0.27236 0.033768 0 0.27234 0.034552 0 0.27232 0.035336 0 0.2723 0.03612 0 0.275867 0.02392 0 0.275849 0.0247458 0 0.275831 0.0255716 0 0.275813 0.0263973 0 0.275796 0.0272231 0 0.275778 0.0280489 0 0.27576 0.0288747 0 0.275742 0.0297004 0 0.275724 0.0305262 0 0.275707 0.031352 0 0.275689 0.0321778 0 0.275671 0.0330036 0 0.275653 0.0338293 0 0.275636 0.0346551 0 0.275618 0.0354809 0 0.2756 0.0363067 0 0.279133 0.02348 0 0.279118 0.0243476 0 0.279102 0.0252151 0 0.279087 0.0260827 0 0.279071 0.0269502 0 0.279056 0.0278178 0 0.27904 0.0286853 0 0.279024 0.0295529 0 0.279009 0.0304204 0 0.278993 0.031288 0 0.278978 0.0321556 0 0.278962 0.0330231 0 0.278947 0.0338907 0 0.278931 0.0347582 0 0.278916 0.0356258 0 0.2789 0.0364933 0 0.2824 0.02304 0 0.282387 0.0239493 0 0.282373 0.0248587 0 0.28236 0.025768 0 0.282347 0.0266773 0 0.282333 0.0275867 0 0.28232 0.028496 0 0.282307 0.0294053 0 0.282293 0.0303147 0 0.28228 0.031224 0 0.282267 0.0321333 0 0.282253 0.0330427 0 0.28224 0.033952 0 0.282227 0.0348613 0 0.282213 0.0357707 0 0.2822 0.03668 0 0.285667 0.0226 0 0.285656 0.0235511 0 0.285644 0.0245022 0 0.285633 0.0254533 0 0.285622 0.0264044 0 0.285611 0.0273556 0 0.2856 0.0283067 0 0.285589 0.0292578 0 0.285578 0.0302089 0 0.285567 0.03116 0 0.285556 0.0321111 0 0.285544 0.0330622 0 0.285533 0.0340133 0 0.285522 0.0349644 0 0.285511 0.0359156 0 0.2855 0.0368667 0 0.288933 0.02216 0 0.288924 0.0231529 0 0.288916 0.0241458 0 0.288907 0.0251387 0 0.288898 0.0261316 0 0.288889 0.0271244 0 0.28888 0.0281173 0 0.288871 0.0291102 0 0.288862 0.0301031 0 0.288853 0.031096 0 0.288844 0.0320889 0 0.288836 0.0330818 0 0.288827 0.0340747 0 0.288818 0.0350676 0 0.288809 0.0360604 0 0.2888 0.0370533 0 0.2922 0.02172 0 0.292193 0.0227547 0 0.292187 0.0237893 0 0.29218 0.024824 0 0.292173 0.0258587 0 0.292167 0.0268933 0 0.29216 0.027928 0 0.292153 0.0289627 0 0.292147 0.0299973 0 0.29214 0.031032 0 0.292133 0.0320667 0 0.292127 0.0331013 0 0.29212 0.034136 0 0.292113 0.0351707 0 0.292107 0.0362053 0 0.2921 0.03724 0 0.295467 0.02128 0 0.295462 0.0223564 0 0.295458 0.0234329 0 0.295453 0.0245093 0 0.295449 0.0255858 0 0.295444 0.0266622 0 0.29544 0.0277387 0 0.295436 0.0288151 0 0.295431 0.0298916 0 0.295427 0.030968 0 0.295422 0.0320444 0 0.295418 0.0331209 0 0.295413 0.0341973 0 0.295409 0.0352738 0 0.295404 0.0363502 0 0.2954 0.0374267 0 0.298733 0.02084 0 0.298731 0.0219582 0 0.298729 0.0230764 0 0.298727 0.0241947 0 0.298724 0.0253129 0 0.298722 0.0264311 0 0.29872 0.0275493 0 0.298718 0.0286676 0 0.298716 0.0297858 0 0.298713 0.030904 0 0.298711 0.0320222 0 0.298709 0.0331404 0 0.298707 0.0342587 0 0.298704 0.0353769 0 0.298702 0.0364951 0 0.2987 0.0376133 0 0.302 0.0204 0 0.302 0.02156 0 0.302 0.02272 0 0.302 0.02388 0 0.302 0.02504 0 0.302 0.0262 0 0.302 0.02736 0 0.302 0.02852 0 0.302 0.02968 0 0.302 0.03084 0 0.302 0.032 0 0.302 0.03316 0 0.302 0.03432 0 0.302 0.03548 0 0.302 0.03664 0 0.302 0.0378 0 
</DataArray>
</Points> 
</Piece> 
</StructuredGrid> 
</VTKFile> 
