<?xml version="1.0"?> 
<VTKFile type="StructuredGrid" version="0.1"> 
<StructuredGrid WholeExtent="0 15 0 15 0 0"> 
<Piece Extent="0 15 0 15 0 0"> 
<PointData>
<DataArray type="Float32" Name="E" format="ascii" NumberOfComponents="3"> 
1.59107e+06 -162354 0 1.59696e+06 -162955 0 1.60088e+06 -163355 0 1.60267e+06 -163538 0 1.60217e+06 -163486 0 1.5992e+06 -163184 0 1.59358e+06 -162610 0 1.58509e+06 -161744 0 1.5735e+06 -160561 0 1.55857e+06 -159038 0 1.54002e+06 -157145 0 1.5176e+06 -154857 0 1.49104e+06 -152146 0 1.46011e+06 -148991 0 1.42463e+06 -145371 0 1.38451e+06 -141276 0 1.83065e+06 -157402 0 1.82282e+06 -171195 0 1.81612e+06 -184859 0 1.81054e+06 -198532 0 1.80611e+06 -212352 0 1.80288e+06 -226464 0 1.80093e+06 -241020 0 1.8004e+06 -256173 0 1.80148e+06 -272083 0 1.80442e+06 -288913 0 1.80953e+06 -306837 0 1.81719e+06 -326030 0 1.82782e+06 -346680 0 1.84187e+06 -368987 0 1.85983e+06 -393174 0 1.88216e+06 -419462 0 2.02216e+06 -167871 0 2.01708e+06 -177294 0 2.01293e+06 -187200 0 2.00985e+06 -197499 0 2.00797e+06 -208085 0 2.00739e+06 -218856 0 2.00822e+06 -229709 0 2.01051e+06 -240532 0 2.0143e+06 -251198 0 2.01957e+06 -261556 0 2.02625e+06 -271430 0 2.03421e+06 -280605 0 2.04323e+06 -288832 0 2.05301e+06 -295810 0 2.06314e+06 -301168 0 2.07315e+06 -304501 0 2.17508e+06 -135559 0 2.16846e+06 -144503 0 2.16312e+06 -153429 0 2.15913e+06 -162334 0 2.15655e+06 -171155 0 2.15541e+06 -179827 0 2.15577e+06 -188270 0 2.15764e+06 -196389 0 2.16105e+06 -204086 0 2.16599e+06 -211265 0 2.17247e+06 -217835 0 2.18047e+06 -223713 0 2.19002e+06 -228825 0 2.20113e+06 -233123 0 2.21387e+06 -236591 0 2.22839e+06 -239300 0 2.28283e+06 -101510 0 2.27775e+06 -108165 0 2.27354e+06 -114931 0 2.27034e+06 -121792 0 2.26828e+06 -128599 0 2.26746e+06 -135227 0 2.26794e+06 -141548 0 2.26978e+06 -147443 0 2.27299e+06 -152790 0 2.27755e+06 -157463 0 2.28341e+06 -161332 0 2.29048e+06 -164280 0 2.29864e+06 -166209 0 2.30768e+06 -167057 0 2.31737e+06 -166750 0 2.32737e+06 -165396 0 2.35281e+06 -69717.7 0 2.34916e+06 -74076.1 0 2.34619e+06 -78622.3 0 2.34399e+06 -83340.6 0 2.34265e+06 -88076.6 0 2.34224e+06 -92706.4 0 2.3428e+06 -97076.5 0 2.34438e+06 -101023 0 2.34695e+06 -104391 0 2.35049e+06 -107047 0 2.35494e+06 -108883 0 2.36021e+06 -109797 0 2.36618e+06 -109679 0 2.37274e+06 -108412 0 2.37977e+06 -105832 0 2.38719e+06 -101876 0 2.39288e+06 -43442.2 0 2.39091e+06 -45791.6 0 2.38932e+06 -48395.2 0 2.38819e+06 -51295.9 0 2.3876e+06 -54275.7 0 2.38761e+06 -57175.9 0 2.38825e+06 -59856.8 0 2.38953e+06 -62202.8 0 2.39146e+06 -64091.9 0 2.394e+06 -65379.6 0 2.39708e+06 -65911.1 0 2.40061e+06 -65555.9 0 2.40448e+06 -64238.1 0 2.40856e+06 -61970.1 0 2.4127e+06 -58792.4 0 2.41673e+06 -55070.8 0 2.41254e+06 -26076.3 0 2.41168e+06 -26294.3 0 2.41102e+06 -26839.6 0 2.41062e+06 -27837.8 0 2.41053e+06 -29175.8 0 2.41078e+06 -30728.5 0 2.41138e+06 -32291.2 0 2.41233e+06 -33639 0 2.41361e+06 -34581.9 0 2.41515e+06 -35000.7 0 2.41691e+06 -34840.1 0 2.41882e+06 -34070.2 0 2.42078e+06 -32643.5 0 2.42272e+06 -30491.8 0 2.42454e+06 -27481.2 0 2.42617e+06 -23614.7 0 2.42034e+06 -15993.6 0 2.41989e+06 -15030.7 0 2.41964e+06 -14581.1 0 2.41959e+06 -14611.2 0 2.41971e+06 -14871.3 0 2.41996e+06 -15256.7 0 2.42035e+06 -15720.8 0 2.42085e+06 -16234.5 0 2.42148e+06 -16720.3 0 2.4222e+06 -17027.6 0 2.42298e+06 -16960.2 0 2.42376e+06 -16340.2 0 2.42447e+06 -15069.2 0 2.42504e+06 -13173.1 0 2.4254e+06 -10738.5 0 2.42553e+06 -8147.17 0 2.42555e+06 -14035.8 0 2.42476e+06 -11375.5 0 2.42405e+06 -9399.3 0 2.42348e+06 -8360.43 0 2.4231e+06 -8116.64 0 2.42294e+06 -8450.32 0 2.42297e+06 -9057.41 0 2.42314e+06 -9653.14 0 2.42336e+06 -10043.5 0 2.42355e+06 -10155.8 0 2.42365e+06 -10013.8 0 2.42364e+06 -9677.33 0 2.42352e+06 -9176.5 0 2.42333e+06 -8485.85 0 2.42311e+06 -7483.26 0 2.42286e+06 -6148.32 0 2.4308e+06 -16746.1 0 2.43005e+06 -14564.7 0 2.42959e+06 -12781.4 0 2.42925e+06 -11450.2 0 2.42886e+06 -10515.4 0 2.42836e+06 -10019.8 0 2.42775e+06 -9997.47 0 2.4271e+06 -10434.4 0 2.42653e+06 -11234.1 0 2.42614e+06 -12220.2 0 2.426e+06 -13172 0 2.4261e+06 -13880.5 0 2.42639e+06 -14200.8 0 2.42676e+06 -14097.7 0 2.42714e+06 -13612.2 0 2.4275e+06 -13034.4 0 2.4489e+06 -9973.96 0 2.44524e+06 -9812.34 0 2.44203e+06 -9768.44 0 2.43957e+06 -10069.1 0 2.43799e+06 -10644.6 0 2.43731e+06 -11468.5 0 2.43738e+06 -12489.4 0 2.43796e+06 -13651.1 0 2.43876e+06 -14890.2 0 2.4395e+06 -16138.8 0 2.44004e+06 -17326.9 0 2.44035e+06 -18388.1 0 2.44056e+06 -19264.7 0 2.44094e+06 -19918.2 0 2.44178e+06 -20307.6 0 2.4434e+06 -20474.8 0 2.48367e+06 34045.9 0 2.48492e+06 29265.5 0 2.48534e+06 23342.2 0 2.48467e+06 16757.6 0 2.48286e+06 10106.1 0 2.48016e+06 3921.85 0 2.477e+06 -1382.01 0 2.47397e+06 -5575.71 0 2.47171e+06 -8636.02 0 2.47077e+06 -10730 0 2.47155e+06 -12162.4 0 2.47424e+06 -13299.4 0 2.47879e+06 -14485.4 0 2.48494e+06 -15981.7 0 2.4923e+06 -17889.5 0 2.50044e+06 -20300.9 0 2.51748e+06 77558 0 2.51097e+06 78548.7 0 2.50869e+06 81287.8 0 2.51054e+06 83901.8 0 2.51602e+06 84981.7 0 2.52438e+06 83527.3 0 2.53464e+06 79042.4 0 2.54576e+06 71543 0 2.55674e+06 61521 0 2.56677e+06 49851.2 0 2.5753e+06 37654.6 0 2.58217e+06 26134.8 0 2.58755e+06 16410.1 0 2.59202e+06 9362.57 0 2.59639e+06 5531.57 0 2.60173e+06 5022.77 0 2.83961e+06 689822 0 2.83794e+06 558344 0 2.82865e+06 450100 0 2.81377e+06 363575 0 2.79551e+06 297298 0 2.77623e+06 249578 0 2.75831e+06 218387 0 2.744e+06 201304 0 2.7353e+06 195530 0 2.73388e+06 197960 0 2.74091e+06 205291 0 2.75704e+06 214164 0 2.78237e+06 221320 0 2.81641e+06 223738 0 2.85814e+06 218816 0 2.90607e+06 204304 0 2.37401e+06 4.2617e+06 0 2.63846e+06 3.94361e+06 0 2.89284e+06 3.6288e+06 0 3.13479e+06 3.31048e+06 0 3.36152e+06 2.98445e+06 0 3.57005e+06 2.64842e+06 0 3.75736e+06 2.3016e+06 0 3.92047e+06 1.94441e+06 0 4.05669e+06 1.57833e+06 0 4.16362e+06 1.20565e+06 0 4.23932e+06 829385 0 4.28235e+06 453088 0 4.29183e+06 80740.8 0 4.26747e+06 -283387 0 4.20957e+06 -634858 0 4.11903e+06 -969183 0 </DataArray> 
</PointData> 
<Points> 
<DataArray type="Float32" NumberOfComponents="3"> 
0.307 0.005 0 0.307033 0.00532667 0 0.307067 0.00565333 0 0.3071 0.00598 0 0.307133 0.00630667 0 0.307167 0.00663333 0 0.3072 0.00696 0 0.307233 0.00728667 0 0.307267 0.00761333 0 0.3073 0.00794 0 0.307333 0.00826667 0 0.307367 0.00859333 0 0.3074 0.00892 0 0.307433 0.00924667 0 0.307467 0.00957333 0 0.3075 0.0099 0 0.312716 0.00536037 0 0.312597 0.00566717 0 0.312497 0.00597717 0 0.312418 0.00629014 0 0.31236 0.00660588 0 0.312322 0.00692417 0 0.312304 0.00724477 0 0.312307 0.00756747 0 0.31233 0.00789203 0 0.312375 0.00821822 0 0.312439 0.0085458 0 0.312524 0.00887453 0 0.31263 0.00920417 0 0.312755 0.00953448 0 0.312901 0.00986522 0 0.313067 0.0101962 0 0.318432 0.00572074 0 0.318178 0.00600882 0 0.317962 0.00630303 0 0.317783 0.00660297 0 0.317642 0.00690828 0 0.317539 0.00721852 0 0.317475 0.00753327 0 0.317449 0.00785209 0 0.317463 0.00817452 0 0.317516 0.00850009 0 0.317607 0.00882831 0 0.317737 0.00915872 0 0.317905 0.00949081 0 0.318111 0.00982409 0 0.318354 0.0101581 0 0.318633 0.0104923 0 0.324148 0.00608111 0 0.323779 0.00635163 0 0.323461 0.00663093 0 0.323194 0.00691854 0 0.32298 0.00721391 0 0.32282 0.00751646 0 0.322714 0.00782558 0 0.322662 0.00814061 0 0.322666 0.00846087 0 0.322724 0.00878567 0 0.322838 0.00911427 0 0.323005 0.00944594 0 0.323226 0.00977995 0 0.3235 0.0101155 0 0.323825 0.0104519 0 0.3242 0.0107885 0 0.329863 0.00644148 0 0.329399 0.00669558 0 0.328995 0.00696091 0 0.328653 0.00723688 0 0.328376 0.00752284 0 0.328166 0.00781806 0 0.328022 0.00812177 0 0.327947 0.0084331 0 0.32794 0.00875117 0 0.328002 0.00907504 0 0.328132 0.00940374 0 0.32833 0.00973626 0 0.328594 0.0100716 0 0.328923 0.0104088 0 0.329314 0.0107468 0 0.329767 0.0110846 0 0.335579 0.00680186 0 0.335038 0.00704071 0 0.334563 0.00729297 0 0.33416 0.00755801 0 0.333831 0.0078351 0 0.333577 0.00812338 0 0.333401 0.00842191 0 0.333305 0.00872965 0 0.333288 0.0090455 0 0.333351 0.00936828 0 0.333493 0.00969677 0 0.333713 0.0100297 0 0.334009 0.0103659 0 0.33438 0.0107039 0 0.334823 0.0110426 0 0.335333 0.0113808 0 0.341295 0.00716223 0 0.340695 0.007387 0 0.340167 0.00762714 0 0.339716 0.00788199 0 0.339344 0.00815076 0 0.339056 0.00843249 0 0.338853 0.00872609 0 0.338738 0.00903034 0 0.33871 0.00934393 0 0.338771 0.00966546 0 0.338919 0.00999345 0 0.339154 0.0103264 0 0.339472 0.0106627 0 0.339872 0.0110009 0 0.340349 0.0113395 0 0.3409 0.0116769 0 0.347011 0.0075226 0 0.346372 0.00773446 0 0.345807 0.00796343 0 0.345321 0.00820885 0 0.344918 0.00846988 0 0.344603 0.00874546 0 0.344379 0.00903438 0 0.344247 0.00933526 0 0.344209 0.00964657 0 0.344265 0.00996666 0 0.344414 0.0102938 0 0.344655 0.0106263 0 0.344984 0.0109622 0 0.345399 0.0112998 0 0.345895 0.0116373 0 0.346467 0.0119731 0 0.352727 0.00788297 0 0.352068 0.0080831 0 0.351483 0.00830187 0 0.350976 0.00853863 0 0.350554 0.0087925 0 0.35022 0.00906237 0 0.34998 0.00934688 0 0.349834 0.0096445 0 0.349785 0.00995349 0 0.349833 0.010272 0 0.349978 0.010598 0 0.350216 0.0109295 0 0.350545 0.0112644 0 0.350961 0.0116006 0 0.351459 0.0119362 0 0.352033 0.0122692 0 0.358443 0.00824334 0 0.357784 0.00843294 0 0.357195 0.00864248 0 0.356682 0.00887136 0 0.356251 0.00911869 0 0.355908 0.00938328 0 0.355657 0.00966367 0 0.355501 0.00995815 0 0.355441 0.0102648 0 0.355478 0.0105815 0 0.355612 0.010906 0 0.355838 0.011236 0 0.356156 0.0115692 0 0.356559 0.0119033 0 0.357042 0.0122361 0 0.3576 0.0125654 0 0.364159 0.00860371 0 0.363519 0.00878396 0 0.362943 0.00898527 0 0.362439 0.00920709 0 0.362012 0.00944851 0 0.361669 0.00970828 0 0.361414 0.00998484 0 0.36125 0.0102763 0 0.361179 0.0105806 0 0.361202 0.0108953 0 0.361317 0.0112179 0 0.361524 0.011546 0 0.361817 0.0118768 0 0.362193 0.012208 0 0.362645 0.012537 0 0.363167 0.0128616 0 0.369874 0.00896408 0 0.369274 0.00913618 0 0.368729 0.00933028 0 0.368248 0.00954586 0 0.367838 0.00978202 0 0.367503 0.0100375 0 0.36725 0.0103105 0 0.367081 0.0105991 0 0.366999 0.0109009 0 0.367004 0.0112134 0 0.367096 0.0115338 0 0.367272 0.0118594 0 0.367529 0.0121872 0 0.367863 0.0125146 0 0.368266 0.0128389 0 0.368733 0.0131577 0 0.37559 0.00932445 0 0.375048 0.00948961 0 0.374552 0.00967751 0 0.37411 0.00988771 0 0.373729 0.0101193 0 0.373413 0.0103709 0 0.373168 0.0106407 0 0.372998 0.0109265 0 0.372904 0.0112259 0 0.372888 0.011536 0 0.37295 0.0118538 0 0.373086 0.0121763 0 0.373294 0.0125005 0 0.373569 0.0128232 0 0.373907 0.0131419 0 0.3743 0.0134539 0 0.381306 0.00968482 0 0.380842 0.00984425 0 0.380413 0.010027 0 0.380026 0.0102327 0 0.379686 0.0104603 0 0.379399 0.0107086 0 0.37917 0.0109755 0 0.379001 0.0112588 0 0.378896 0.0115557 0 0.378855 0.0118632 0 0.378879 0.012178 0 0.378965 0.0124969 0 0.379111 0.0128165 0 0.379313 0.0131339 0 0.379567 0.0134459 0 0.379867 0.01375 0 0.387022 0.0100452 0 0.386656 0.0102001 0 0.386312 0.0103788 0 0.385996 0.0105808 0 0.385711 0.0108053 0 0.385464 0.0110508 0 0.385257 0.0113152 0 0.385094 0.011596 0 0.384977 0.0118904 0 0.384907 0.012195 0 0.384886 0.0125064 0 0.384911 0.0128211 0 0.384981 0.0131355 0 0.385094 0.0134465 0 0.385246 0.0137509 0 0.385433 0.0140462 0 0.392738 0.0104056 0 0.39249 0.0105572 0 0.39225 0.0107328 0 0.392021 0.0109321 0 0.391806 0.0111542 0 0.391608 0.0113974 0 0.391431 0.0116596 0 0.391277 0.0119382 0 0.391148 0.01223 0 0.391046 0.0125315 0 0.390972 0.0128391 0 0.390925 0.0131489 0 0.390906 0.0134574 0 0.390913 0.0137612 0 0.390945 0.014057 0 0.391 0.0143423 0 
</DataArray>
</Points> 
</Piece> 
</StructuredGrid> 
</VTKFile> 
