<?xml version="1.0"?> 
<VTKFile type="StructuredGrid" version="0.1"> 
<StructuredGrid WholeExtent="0 15 0 15 0 0"> 
<Piece Extent="0 15 0 15 0 0"> 
<PointData>
<DataArray type="Float32" Name="E" format="ascii" NumberOfComponents="3"> 
1.95118e+06 -772744 0 1.95902e+06 -775849 0 1.96676e+06 -778915 0 1.9744e+06 -781942 0 1.98194e+06 -784928 0 1.98938e+06 -787874 0 1.99671e+06 -790777 0 2.00393e+06 -793637 0 2.01104e+06 -796452 0 2.01803e+06 -799220 0 2.0249e+06 -801939 0 2.03163e+06 -804607 0 2.03823e+06 -807221 0 2.04469e+06 -809777 0 2.05099e+06 -812273 0 2.05713e+06 -814703 0 2.15645e+06 -612416 0 2.16351e+06 -616237 0 2.17062e+06 -620032 0 2.17778e+06 -623806 0 2.18498e+06 -627560 0 2.19223e+06 -631297 0 2.19954e+06 -635018 0 2.20691e+06 -638727 0 2.21434e+06 -642425 0 2.22184e+06 -646115 0 2.22942e+06 -649800 0 2.23707e+06 -653482 0 2.24482e+06 -657163 0 2.25267e+06 -660846 0 2.26063e+06 -664534 0 2.2687e+06 -668230 0 2.32309e+06 -460653 0 2.32936e+06 -463002 0 2.33566e+06 -465299 0 2.342e+06 -467544 0 2.34839e+06 -469734 0 2.35481e+06 -471871 0 2.36127e+06 -473952 0 2.36777e+06 -475976 0 2.37431e+06 -477944 0 2.38088e+06 -479853 0 2.38748e+06 -481703 0 2.39412e+06 -483493 0 2.40078e+06 -485220 0 2.40746e+06 -486885 0 2.41417e+06 -488485 0 2.42089e+06 -490019 0 2.42923e+06 -315886 0 2.43435e+06 -316728 0 2.4395e+06 -317516 0 2.44468e+06 -318248 0 2.4499e+06 -318924 0 2.45515e+06 -319544 0 2.46044e+06 -320106 0 2.46576e+06 -320611 0 2.47112e+06 -321056 0 2.47651e+06 -321443 0 2.48194e+06 -321769 0 2.4874e+06 -322035 0 2.49291e+06 -322239 0 2.49846e+06 -322381 0 2.50405e+06 -322459 0 2.50969e+06 -322473 0 2.4809e+06 -190883 0 2.4847e+06 -190589 0 2.48852e+06 -190241 0 2.49236e+06 -189837 0 2.49621e+06 -189378 0 2.50008e+06 -188862 0 2.50396e+06 -188291 0 2.50786e+06 -187662 0 2.51177e+06 -186977 0 2.51569e+06 -186233 0 2.51962e+06 -185432 0 2.52356e+06 -184573 0 2.52752e+06 -183656 0 2.53148e+06 -182679 0 2.53544e+06 -181644 0 2.53941e+06 -180550 0 2.49141e+06 -95391.8 0 2.49389e+06 -94444.8 0 2.49638e+06 -93453.9 0 2.49886e+06 -92418.4 0 2.50135e+06 -91337.7 0 2.50384e+06 -90211 0 2.50633e+06 -89037.8 0 2.50882e+06 -87817.5 0 2.51131e+06 -86549.5 0 2.5138e+06 -85233.2 0 2.51628e+06 -83868.2 0 2.51877e+06 -82453.7 0 2.52125e+06 -80989.3 0 2.52374e+06 -79474.1 0 2.52622e+06 -77907.6 0 2.5287e+06 -76288.8 0 2.47684e+06 -32164.8 0 2.47817e+06 -31007.7 0 2.4795e+06 -29811.3 0 2.48082e+06 -28576.2 0 2.48213e+06 -27302.8 0 2.48344e+06 -25991.4 0 2.48473e+06 -24642.3 0 2.48602e+06 -23255.7 0 2.48729e+06 -21831.7 0 2.48856e+06 -20370.4 0 2.48982e+06 -18871.9 0 2.49106e+06 -17336.2 0 2.4923e+06 -15763.6 0 2.49352e+06 -14154 0 2.49472e+06 -12507.7 0 2.49592e+06 -10824.8 0 2.45064e+06 735.927 0 2.45104e+06 1869.98 0 2.45143e+06 3024.1 0 2.4518e+06 4199.8 0 2.45216e+06 5398.28 0 2.4525e+06 6620.55 0 2.45283e+06 7867.47 0 2.45314e+06 9139.75 0 2.45344e+06 10438 0 2.45372e+06 11762.8 0 2.45398e+06 13114.5 0 2.45423e+06 14493.5 0 2.45446e+06 15900.2 0 2.45468e+06 17334.8 0 2.45487e+06 18797.8 0 2.45505e+06 20289.3 0 2.42327e+06 7955.69 0 2.42292e+06 8719.59 0 2.42254e+06 9514.51 0 2.42215e+06 10338.4 0 2.42174e+06 11189.5 0 2.42132e+06 12066.7 0 2.42088e+06 12968.9 0 2.42041e+06 13895.3 0 2.41993e+06 14845.3 0 2.41943e+06 15818.4 0 2.4189e+06 16814.3 0 2.41836e+06 17832.8 0 2.41779e+06 18873.9 0 2.4172e+06 19937.5 0 2.41659e+06 21023.8 0 2.41595e+06 22132.8 0 2.40287e+06 -7663.55 0 2.40196e+06 -7265.47 0 2.40101e+06 -6871.56 0 2.40003e+06 -6478.08 0 2.39901e+06 -6082.04 0 2.39797e+06 -5680.92 0 2.39689e+06 -5272.6 0 2.39578e+06 -4855.36 0 2.39464e+06 -4427.75 0 2.39347e+06 -3988.63 0 2.39228e+06 -3537.07 0 2.39105e+06 -3072.36 0 2.3898e+06 -2594 0 2.38853e+06 -2101.65 0 2.38722e+06 -1595.13 0 2.3859e+06 -1074.43 0 2.39898e+06 -41596.4 0 2.3974e+06 -42206.6 0 2.39581e+06 -42780.6 0 2.3942e+06 -43322.5 0 2.39257e+06 -43835.7 0 2.39092e+06 -44322.7 0 2.38924e+06 -44785.5 0 2.38753e+06 -45225.7 0 2.38579e+06 -45644.3 0 2.38401e+06 -46041.9 0 2.38219e+06 -46419 0 2.38033e+06 -46775.5 0 2.37842e+06 -47111.1 0 2.37647e+06 -47425.4 0 2.37447e+06 -47717.4 0 2.37241e+06 -47986.1 0 2.42007e+06 -95857.1 0 2.41836e+06 -97523 0 2.41652e+06 -99201.5 0 2.41456e+06 -100886 0 2.41248e+06 -102572 0 2.41031e+06 -104254 0 2.40804e+06 -105928 0 2.40569e+06 -107593 0 2.40327e+06 -109243 0 2.40078e+06 -110879 0 2.39823e+06 -112496 0 2.39562e+06 -114095 0 2.39297e+06 -115673 0 2.39028e+06 -117230 0 2.38756e+06 -118765 0 2.38481e+06 -120277 0 2.49342e+06 -175008 0 2.48962e+06 -178811 0 2.4859e+06 -182594 0 2.48225e+06 -186358 0 2.47862e+06 -190104 0 2.47499e+06 -193832 0 2.47134e+06 -197543 0 2.46765e+06 -201236 0 2.4639e+06 -204911 0 2.46006e+06 -208568 0 2.45614e+06 -212206 0 2.45209e+06 -215825 0 2.44792e+06 -219425 0 2.44359e+06 -223005 0 2.43909e+06 -226565 0 2.4344e+06 -230106 0 2.61753e+06 -286506 0 2.61524e+06 -294526 0 2.61236e+06 -302318 0 2.60897e+06 -309893 0 2.60516e+06 -317259 0 2.60097e+06 -324424 0 2.59646e+06 -331394 0 2.59171e+06 -338172 0 2.58675e+06 -344761 0 2.58163e+06 -351161 0 2.57642e+06 -357370 0 2.57114e+06 -363383 0 2.56586e+06 -369194 0 2.56063e+06 -374794 0 2.5555e+06 -380172 0 2.55053e+06 -385313 0 2.87729e+06 -509946 0 2.86322e+06 -510644 0 2.85059e+06 -512400 0 2.83918e+06 -515221 0 2.82877e+06 -519117 0 2.81917e+06 -524099 0 2.81017e+06 -530185 0 2.8016e+06 -537393 0 2.79326e+06 -545748 0 2.78497e+06 -555275 0 2.77653e+06 -566007 0 2.76777e+06 -577977 0 2.75848e+06 -591227 0 2.74846e+06 -605800 0 2.73748e+06 -621745 0 2.72532e+06 -639119 0 2.5888e+06 1.11759e-08 0 2.64489e+06 -4.48199e-09 0 2.69944e+06 1.62981e-09 0 2.7528e+06 -2.32831e-09 0 2.80533e+06 4.88944e-09 0 2.85735e+06 -4.19095e-09 0 2.9092e+06 2.32831e-09 0 2.96119e+06 4.65661e-10 0 3.01366e+06 -2.32831e-09 0 3.06692e+06 9.31323e-10 0 3.1213e+06 9.31323e-10 0 3.17715e+06 0 0 3.23481e+06 -3.72529e-09 0 3.29465e+06 5.58794e-09 0 3.35705e+06 -5.58794e-09 0 3.42242e+06 7.45058e-09 0 </DataArray> 
</PointData> 
<Points> 
<DataArray type="Float32" NumberOfComponents="3"> 
0.31051 0.0175 0 0.310576 0.0176667 0 0.310642 0.0178333 0 0.310708 0.018 0 0.310774 0.0181667 0 0.31084 0.0183333 0 0.310906 0.0185 0 0.310972 0.0186667 0 0.311038 0.0188333 0 0.311104 0.019 0 0.31117 0.0191667 0 0.311236 0.0193333 0 0.311302 0.0195 0 0.311368 0.0196667 0 0.311434 0.0198333 0 0.3115 0.02 0 0.316009 0.0178 0 0.316071 0.0179689 0 0.316132 0.0181378 0 0.316194 0.0183067 0 0.316256 0.0184756 0 0.316317 0.0186444 0 0.316379 0.0188133 0 0.31644 0.0189822 0 0.316502 0.0191511 0 0.316564 0.01932 0 0.316625 0.0194889 0 0.316687 0.0196578 0 0.316749 0.0198267 0 0.31681 0.0199956 0 0.316872 0.0201644 0 0.316933 0.0203333 0 0.321509 0.0181 0 0.321566 0.0182711 0 0.321623 0.0184422 0 0.32168 0.0186133 0 0.321737 0.0187844 0 0.321795 0.0189556 0 0.321852 0.0191267 0 0.321909 0.0192978 0 0.321966 0.0194689 0 0.322023 0.01964 0 0.322081 0.0198111 0 0.322138 0.0199822 0 0.322195 0.0201533 0 0.322252 0.0203244 0 0.322309 0.0204956 0 0.322367 0.0206667 0 0.327008 0.0184 0 0.327061 0.0185733 0 0.327114 0.0187467 0 0.327166 0.01892 0 0.327219 0.0190933 0 0.327272 0.0192667 0 0.327325 0.01944 0 0.327378 0.0196133 0 0.32743 0.0197867 0 0.327483 0.01996 0 0.327536 0.0201333 0 0.327589 0.0203067 0 0.327642 0.02048 0 0.327694 0.0206533 0 0.327747 0.0208267 0 0.3278 0.021 0 0.332507 0.0187 0 0.332556 0.0188756 0 0.332604 0.0190511 0 0.332652 0.0192267 0 0.332701 0.0194022 0 0.332749 0.0195778 0 0.332798 0.0197533 0 0.332846 0.0199289 0 0.332894 0.0201044 0 0.332943 0.02028 0 0.332991 0.0204556 0 0.33304 0.0206311 0 0.333088 0.0208067 0 0.333137 0.0209822 0 0.333185 0.0211578 0 0.333233 0.0213333 0 0.338007 0.019 0 0.338051 0.0191778 0 0.338095 0.0193556 0 0.338139 0.0195333 0 0.338183 0.0197111 0 0.338227 0.0198889 0 0.338271 0.0200667 0 0.338315 0.0202444 0 0.338359 0.0204222 0 0.338403 0.0206 0 0.338447 0.0207778 0 0.338491 0.0209556 0 0.338535 0.0211333 0 0.338579 0.0213111 0 0.338623 0.0214889 0 0.338667 0.0216667 0 0.343506 0.0193 0 0.343546 0.01948 0 0.343585 0.01966 0 0.343625 0.01984 0 0.343664 0.02002 0 0.343704 0.0202 0 0.343744 0.02038 0 0.343783 0.02056 0 0.343823 0.02074 0 0.343862 0.02092 0 0.343902 0.0211 0 0.343942 0.02128 0 0.343981 0.02146 0 0.344021 0.02164 0 0.34406 0.02182 0 0.3441 0.022 0 0.349005 0.0196 0 0.34904 0.0197822 0 0.349076 0.0199644 0 0.349111 0.0201467 0 0.349146 0.0203289 0 0.349181 0.0205111 0 0.349217 0.0206933 0 0.349252 0.0208756 0 0.349287 0.0210578 0 0.349322 0.02124 0 0.349357 0.0214222 0 0.349393 0.0216044 0 0.349428 0.0217867 0 0.349463 0.0219689 0 0.349498 0.0221511 0 0.349533 0.0223333 0 0.354505 0.0199 0 0.354535 0.0200844 0 0.354566 0.0202689 0 0.354597 0.0204533 0 0.354628 0.0206378 0 0.354659 0.0208222 0 0.354689 0.0210067 0 0.35472 0.0211911 0 0.354751 0.0213756 0 0.354782 0.02156 0 0.354813 0.0217444 0 0.354843 0.0219289 0 0.354874 0.0221133 0 0.354905 0.0222978 0 0.354936 0.0224822 0 0.354967 0.0226667 0 0.360004 0.0202 0 0.36003 0.0203867 0 0.360057 0.0205733 0 0.360083 0.02076 0 0.36011 0.0209467 0 0.360136 0.0211333 0 0.360162 0.02132 0 0.360189 0.0215067 0 0.360215 0.0216933 0 0.360242 0.02188 0 0.360268 0.0220667 0 0.360294 0.0222533 0 0.360321 0.02244 0 0.360347 0.0226267 0 0.360374 0.0228133 0 0.3604 0.023 0 0.365503 0.0205 0 0.365525 0.0206889 0 0.365547 0.0208778 0 0.365569 0.0210667 0 0.365591 0.0212556 0 0.365613 0.0214444 0 0.365635 0.0216333 0 0.365657 0.0218222 0 0.365679 0.0220111 0 0.365701 0.0222 0 0.365723 0.0223889 0 0.365745 0.0225778 0 0.365767 0.0227667 0 0.365789 0.0229556 0 0.365811 0.0231444 0 0.365833 0.0233333 0 0.371003 0.0208 0 0.37102 0.0209911 0 0.371038 0.0211822 0 0.371055 0.0213733 0 0.371073 0.0215644 0 0.371091 0.0217556 0 0.371108 0.0219467 0 0.371126 0.0221378 0 0.371143 0.0223289 0 0.371161 0.02252 0 0.371179 0.0227111 0 0.371196 0.0229022 0 0.371214 0.0230933 0 0.371231 0.0232844 0 0.371249 0.0234756 0 0.371267 0.0236667 0 0.376502 0.0211 0 0.376515 0.0212933 0 0.376528 0.0214867 0 0.376542 0.02168 0 0.376555 0.0218733 0 0.376568 0.0220667 0 0.376581 0.02226 0 0.376594 0.0224533 0 0.376608 0.0226467 0 0.376621 0.02284 0 0.376634 0.0230333 0 0.376647 0.0232267 0 0.37666 0.02342 0 0.376674 0.0236133 0 0.376687 0.0238067 0 0.3767 0.024 0 0.382001 0.0214 0 0.38201 0.0215956 0 0.382019 0.0217911 0 0.382028 0.0219867 0 0.382037 0.0221822 0 0.382045 0.0223778 0 0.382054 0.0225733 0 0.382063 0.0227689 0 0.382072 0.0229644 0 0.382081 0.02316 0 0.382089 0.0233556 0 0.382098 0.0235511 0 0.382107 0.0237467 0 0.382116 0.0239422 0 0.382125 0.0241378 0 0.382133 0.0243333 0 0.387501 0.0217 0 0.387505 0.0218978 0 0.387509 0.0220956 0 0.387514 0.0222933 0 0.387518 0.0224911 0 0.387523 0.0226889 0 0.387527 0.0228867 0 0.387531 0.0230844 0 0.387536 0.0232822 0 0.38754 0.02348 0 0.387545 0.0236778 0 0.387549 0.0238756 0 0.387553 0.0240733 0 0.387558 0.0242711 0 0.387562 0.0244689 0 0.387567 0.0246667 0 0.393 0.022 0 0.393 0.0222 0 0.393 0.0224 0 0.393 0.0226 0 0.393 0.0228 0 0.393 0.023 0 0.393 0.0232 0 0.393 0.0234 0 0.393 0.0236 0 0.393 0.0238 0 0.393 0.024 0 0.393 0.0242 0 0.393 0.0244 0 0.393 0.0246 0 0.393 0.0248 0 0.393 0.025 0 
</DataArray>
</Points> 
</Piece> 
</StructuredGrid> 
</VTKFile> 
