<?xml version="1.0"?> 
<VTKFile type="StructuredGrid" version="0.1"> 
<StructuredGrid WholeExtent="0 15 0 15 0 0"> 
<Piece Extent="0 15 0 15 0 0"> 
<PointData>
<DataArray type="Float32" Name="E" format="ascii" NumberOfComponents="3"> 
3.71885e+06 -1.5404e+06 0 4.0403e+06 -1.39033e+06 0 4.32525e+06 -1.19402e+06 0 4.57596e+06 -959024 0 4.79269e+06 -691294 0 4.97482e+06 -396125 0 5.12143e+06 -78550.9 0 5.23174e+06 256479 0 5.3053e+06 604064 0 5.34218e+06 959387 0 5.34295e+06 1.31779e+06 0 5.30874e+06 1.67486e+06 0 5.24119e+06 2.02651e+06 0 5.14236e+06 2.36903e+06 0 5.01469e+06 2.69917e+06 0 4.8609e+06 3.01416e+06 0 3.53646e+06 -450065 0 3.65115e+06 -322199 0 3.76037e+06 -167191 0 3.85551e+06 12379 0 3.93071e+06 212488 0 3.98219e+06 428270 0 4.00789e+06 654514 0 4.0072e+06 886004 0 3.98079e+06 1.11781e+06 0 3.93032e+06 1.34551e+06 0 3.85826e+06 1.56537e+06 0 3.7676e+06 1.77439e+06 0 3.66162e+06 1.97039e+06 0 3.54366e+06 2.15192e+06 0 3.41698e+06 2.31822e+06 0 3.28455e+06 2.46909e+06 0 3.19254e+06 -52012.3 0 3.25585e+06 66767.6 0 3.30622e+06 202125 0 3.34116e+06 351875 0 3.35829e+06 513001 0 3.35603e+06 681810 0 3.33388e+06 854278 0 3.29243e+06 1.02643e+06 0 3.23325e+06 1.19464e+06 0 3.15867e+06 1.35593e+06 0 3.07151e+06 1.50803e+06 0 2.97477e+06 1.64945e+06 0 2.87147e+06 1.77946e+06 0 2.76438e+06 1.89796e+06 0 2.65595e+06 2.00536e+06 0 2.54821e+06 2.1025e+06 0 2.93011e+06 127576 0 2.95635e+06 232086 0 2.97149e+06 348365 0 2.97292e+06 474629 0 2.95894e+06 608243 0 2.9288e+06 746085 0 2.88275e+06 884875 0 2.82193e+06 1.0215e+06 0 2.7482e+06 1.15326e+06 0 2.66396e+06 1.27808e+06 0 2.5718e+06 1.39452e+06 0 2.47434e+06 1.50179e+06 0 2.374e+06 1.59966e+06 0 2.27291e+06 1.68833e+06 0 2.17283e+06 1.76827e+06 0 2.0751e+06 1.84011e+06 0 2.72104e+06 201859 0 2.72532e+06 292722 0 2.71794e+06 393332 0 2.69759e+06 501812 0 2.66345e+06 615792 0 2.61545e+06 732567 0 2.55432e+06 849376 0 2.48151e+06 963663 0 2.39897e+06 1.07329e+06 0 2.30899e+06 1.17666e+06 0 2.21393e+06 1.27275e+06 0 2.11606e+06 1.36109e+06 0 2.01743e+06 1.44163e+06 0 1.91975e+06 1.51472e+06 0 1.82445e+06 1.58095e+06 0 1.73258e+06 1.64112e+06 0 2.56085e+06 217486 0 2.5466e+06 296567 0 2.52119e+06 384386 0 2.48367e+06 479286 0 2.43376e+06 579107 0 2.37185e+06 681415 0 2.29903e+06 783747 0 2.2169e+06 883847 0 2.12742e+06 979851 0 2.03273e+06 1.07039e+06 0 1.93495e+06 1.15462e+06 0 1.836e+06 1.23216e+06 0 1.73758e+06 1.30304e+06 0 1.64105e+06 1.36757e+06 0 1.54747e+06 1.42624e+06 0 1.45759e+06 1.4796e+06 0 2.43646e+06 196009 0 2.4058e+06 264660 0 2.36403e+06 342079 0 2.3109e+06 426762 0 2.2467e+06 516689 0 2.17231e+06 609514 0 2.08907e+06 702843 0 1.99868e+06 794470 0 1.90304e+06 882576 0 1.80406e+06 965823 0 1.70355e+06 1.04338e+06 0 1.60311e+06 1.11486e+06 0 1.50408e+06 1.18028e+06 0 1.40753e+06 1.23991e+06 0 1.31426e+06 1.2942e+06 0 1.22481e+06 1.34378e+06 0 2.34105e+06 147946 0 2.29348e+06 206902 0 2.23483e+06 275849 0 2.16572e+06 353379 0 2.0872e+06 437309 0 2.00062e+06 525071 0 1.90755e+06 614013 0 1.80965e+06 701711 0 1.70858e+06 786183 0 1.6059e+06 865993 0 1.50305e+06 940253 0 1.40123e+06 1.00857e+06 0 1.30145e+06 1.07093e+06 0 1.20446e+06 1.12762e+06 0 1.11081e+06 1.17908e+06 0 1.02089e+06 1.22587e+06 0 2.2702e+06 77068.3 0 2.20288e+06 126822 0 2.1249e+06 189530 0 2.03803e+06 263424 0 1.94434e+06 345699 0 1.84565e+06 432980 0 1.74349e+06 521921 0 1.63919e+06 609602 0 1.53388e+06 693760 0 1.4286e+06 772840 0 1.32427e+06 845943 0 1.22167e+06 912715 0 1.12142e+06 973209 0 1.02402e+06 1.02776e+06 0 929786 1.07688e+06 0 838935 1.12118e+06 0 2.22e+06 -16714.7 0 2.12877e+06 24225.8 0 2.02669e+06 83676.8 0 1.91908e+06 158986 0 1.8093e+06 245213 0 1.69918e+06 337233 0 1.58955e+06 430501 0 1.48079e+06 521496 0 1.37313e+06 607759 0 1.26687e+06 687782 0 1.16231e+06 760818 0 1.05979e+06 826688 0 959617 885609 0 862039 938049 0 767226 984618 0 675269 1.02599e+06 0 2.19573e+06 -137104 0 2.06637e+06 -106041 0 1.93176e+06 -43319.5 0 1.79995e+06 41722.3 0 1.67436e+06 139586 0 1.55519e+06 242179 0 1.44118e+06 343713 0 1.33094e+06 440429 0 1.22344e+06 530126 0 1.11811e+06 611706 0 1.0147e+06 684827 0 913205 749647 0 813684 806637 0 716233 856447 0 620927 899803 0 527783 937462 0 2.19304e+06 -306771 0 2.00563e+06 -273734 0 1.82833e+06 -193617 0 1.67068e+06 -84877.8 0 1.53298e+06 34329.7 0 1.40995e+06 153065 0 1.29637e+06 265529 0 1.18844e+06 368923 0 1.08386e+06 462102 0 981366 544835 0 880383 617423 0 780701 680472 0 682297 734752 0 585220 781096 0 489521 820337 0 395212 853272 0 2.19147e+06 -530264 0 1.93265e+06 -493946 0 1.69859e+06 -366027 0 1.52076e+06 -212554 0 1.38096e+06 -62422.8 0 1.26266e+06 75698.2 0 1.15549e+06 199348 0 1.05382e+06 308561 0 954645 404023 0 856534 486691 0 758887 557611 0 661546 617845 0 564551 668434 0 468009 710356 0 372027 744502 0 276668 771661 0 2.33359e+06 -930540 0 1.81009e+06 -798718 0 1.5147e+06 -543483 0 1.34272e+06 -325954 0 1.21886e+06 -140533 0 1.1157e+06 15030.6 0 1.02078e+06 147190 0 928545 259664 0 836526 355304 0 743724 436219 0 649889 504104 0 555120 560384 0 459649 606287 0 363736 642863 0 267607 670998 0 171437 691400 0 2.32685e+06 -1.91026e+06 0 1.46489e+06 -1.10256e+06 0 1.25749e+06 -685690 0 1.13975e+06 -402024 0 1.05346e+06 -192265 0 974067 -26354.9 0 895276 109127 0 814251 221306 0 730154 314649 0 642936 392014 0 552969 455521 0 460739 506794 0 366772 547134 0 271547 577582 0 175480 598951 0 78944.3 611827 0 437955 -2.33891e+06 0 914466 -1.1874e+06 0 952811 -736113 0 935213 -427328 0 895505 -215853 0 843466 -49112.7 0 781714 83328.2 0 712108 191730 0 635719 280362 0 553841 352581 0 467448 410555 0 377553 455962 0 284994 490064 0 190535 513825 0 94835.8 527900 0 -1574.15 532734 0 </DataArray> 
</PointData> 
<Points> 
<DataArray type="Float32" NumberOfComponents="3"> 
0.3188 0.0378 0 0.31915 0.0387237 0 0.319446 0.0396795 0 0.319684 0.0406627 0 0.319862 0.0416681 0 0.319976 0.0426901 0 0.320025 0.0437226 0 0.320008 0.0447593 0 0.319924 0.0457937 0 0.319773 0.0468196 0 0.319558 0.0478306 0 0.31928 0.0488206 0 0.318942 0.0497841 0 0.318548 0.0507158 0 0.318101 0.0516112 0 0.317607 0.0524662 0 0.32408 0.03728 0 0.324475 0.0385758 0 0.32481 0.0399108 0 0.325083 0.0412788 0 0.32529 0.0426729 0 0.325427 0.0440857 0 0.325494 0.0455093 0 0.325488 0.0469356 0 0.32541 0.0483565 0 0.325259 0.0497637 0 0.325038 0.0511491 0 0.324748 0.0525053 0 0.324392 0.0538248 0 0.323974 0.0551012 0 0.323497 0.0563286 0 0.322966 0.0575018 0 0.32936 0.03676 0 0.32979 0.0384282 0 0.330156 0.0401413 0 0.330456 0.0418919 0 0.330685 0.0436717 0 0.330841 0.0454717 0 0.330921 0.0472828 0 0.330926 0.0490953 0 0.330854 0.0508995 0 0.330705 0.0526859 0 0.330481 0.054445 0 0.330183 0.0561679 0 0.329816 0.0578459 0 0.329381 0.0594714 0 0.328883 0.0610373 0 0.328326 0.0625374 0 0.33464 0.03624 0 0.335095 0.0382808 0 0.335483 0.040371 0 0.335802 0.0425021 0 0.336048 0.0446645 0 0.336217 0.0468483 0 0.336309 0.0490432 0 0.336322 0.0512384 0 0.336256 0.0534231 0 0.33611 0.0555867 0 0.335886 0.0577186 0 0.335586 0.0598087 0 0.335213 0.0618476 0 0.334769 0.0638264 0 0.334258 0.0657373 0 0.333685 0.067573 0 0.33992 0.03572 0 0.34039 0.0381337 0 0.340792 0.0406 0 0.341123 0.0431093 0 0.341379 0.0456514 0 0.341558 0.0482156 0 0.341658 0.0507907 0 0.341677 0.0533652 0 0.341617 0.0559275 0 0.341476 0.0584661 0 0.341255 0.0609699 0 0.340957 0.0634279 0 0.340584 0.0658299 0 0.340138 0.0681664 0 0.339624 0.0704286 0 0.339045 0.0726086 0 0.3452 0.0352 0 0.345676 0.0379869 0 0.346083 0.0408281 0 0.346418 0.0437135 0 0.346679 0.0466325 0 0.346862 0.0495737 0 0.346967 0.0525255 0 0.346992 0.0554758 0 0.346937 0.0584128 0 0.346802 0.0613246 0 0.346588 0.0641993 0 0.346296 0.0670257 0 0.345929 0.0697931 0 0.345489 0.0724914 0 0.34498 0.0751112 0 0.344405 0.0776442 0 0.35048 0.03468 0 0.350952 0.0378403 0 0.351355 0.0410554 0 0.351688 0.0443149 0 0.351947 0.0476078 0 0.352131 0.0509226 0 0.352237 0.0542476 0 0.352266 0.0575705 0 0.352217 0.0608794 0 0.35209 0.0641622 0 0.351885 0.0674069 0 0.351604 0.0706023 0 0.351249 0.0737373 0 0.350822 0.0768014 0 0.350326 0.0797852 0 0.349764 0.0826797 0 0.35576 0.03416 0 0.356218 0.037694 0 0.356609 0.041282 0 0.356932 0.0449134 0 0.357184 0.0485774 0 0.357364 0.0522625 0 0.35747 0.0559572 0 0.357501 0.0596494 0 0.357457 0.0633274 0 0.357339 0.0669792 0 0.357146 0.0705931 0 0.35688 0.0741578 0 0.356543 0.0776625 0 0.356136 0.0810966 0 0.355662 0.0844506 0 0.355124 0.0877153 0 0.36104 0.03364 0 0.361474 0.037548 0 0.361845 0.0415077 0 0.362152 0.045509 0 0.362391 0.0495413 0 0.362562 0.0535935 0 0.362664 0.0576544 0 0.362696 0.0617127 0 0.362658 0.065757 0 0.36255 0.0697758 0 0.362372 0.073758 0 0.362126 0.0776925 0 0.361812 0.081569 0 0.361432 0.0853771 0 0.360988 0.0891074 0 0.360483 0.0927509 0 0.36632 0.03312 0 0.366721 0.0374022 0 0.367063 0.0417327 0 0.367346 0.0461018 0 0.367567 0.0504995 0 0.367726 0.0549155 0 0.367821 0.0593394 0 0.367853 0.0637606 0 0.36782 0.0681684 0 0.367724 0.0725523 0 0.367564 0.0769017 0 0.367341 0.0812066 0 0.367056 0.0854568 0 0.36671 0.0896429 0 0.366305 0.0937557 0 0.365843 0.0977865 0 0.3716 0.0326 0 0.371958 0.0372568 0 0.372264 0.041957 0 0.372516 0.0466918 0 0.372713 0.0514522 0 0.372855 0.0562288 0 0.372941 0.0610124 0 0.372971 0.0657932 0 0.372944 0.0705619 0 0.37286 0.0753088 0 0.372721 0.0800247 0 0.372525 0.0847001 0 0.372274 0.0893261 0 0.37197 0.093894 0 0.371612 0.0983954 0 0.371202 0.102822 0 0.37688 0.03208 0 0.377186 0.0371115 0 0.377446 0.0421804 0 0.377661 0.0472789 0 0.377829 0.0523993 0 0.377951 0.0575334 0 0.378025 0.0626733 0 0.378051 0.0678108 0 0.37803 0.0729376 0 0.37796 0.0780457 0 0.377843 0.0831269 0 0.377679 0.0881733 0 0.377468 0.0931771 0 0.377211 0.0981307 0 0.376909 0.103027 0 0.376562 0.107858 0 0.38216 0.03156 0 0.382403 0.0369666 0 0.382611 0.0424031 0 0.382782 0.0478633 0 0.382916 0.0533409 0 0.383013 0.0588294 0 0.383072 0.0643224 0 0.383094 0.0698134 0 0.383078 0.0752957 0 0.383024 0.080763 0 0.382932 0.0862087 0 0.382804 0.0916264 0 0.382638 0.0970099 0 0.382435 0.102353 0 0.382196 0.107649 0 0.381921 0.112893 0 0.38744 0.03104 0 0.387612 0.0368219 0 0.387758 0.0426251 0 0.387879 0.048445 0 0.387973 0.0542771 0 0.388041 0.0601169 0 0.388083 0.0659598 0 0.388099 0.0718012 0 0.388088 0.0776365 0 0.388051 0.083461 0 0.387988 0.0892702 0 0.387898 0.0950596 0 0.387783 0.100825 0 0.387641 0.106561 0 0.387474 0.112264 0 0.387281 0.117929 0 0.39272 0.03052 0 0.392811 0.0366775 0 0.392888 0.0428462 0 0.392951 0.0490238 0 0.393001 0.0552079 0 0.393037 0.061396 0 0.393059 0.0675857 0 0.393068 0.0737745 0 0.393062 0.0799601 0 0.393043 0.08614 0 0.39301 0.0923117 0 0.392964 0.0984729 0 0.392903 0.104621 0 0.392829 0.110754 0 0.392742 0.116869 0 0.39264 0.122964 0 0.398 0.03 0 0.398 0.0365333 0 0.398 0.0430667 0 0.398 0.0496 0 0.398 0.0561333 0 0.398 0.0626667 0 0.398 0.0692 0 0.398 0.0757333 0 0.398 0.0822667 0 0.398 0.0888 0 0.398 0.0953333 0 0.398 0.101867 0 0.398 0.1084 0 0.398 0.114933 0 0.398 0.121467 0 0.398 0.128 0 
</DataArray>
</Points> 
</Piece> 
</StructuredGrid> 
</VTKFile> 
