<?xml version="1.0"?> 
<VTKFile type="StructuredGrid" version="0.1"> 
<StructuredGrid WholeExtent="0 15 0 15 0 0"> 
<Piece Extent="0 15 0 15 0 0"> 
<PointData>
<DataArray type="Float32" Name="E" format="ascii" NumberOfComponents="3"> 
1.40663e+06 -557081 0 1.46622e+06 -580679 0 1.51955e+06 -601803 0 1.56777e+06 -620897 0 1.61176e+06 -638321 0 1.65226e+06 -654361 0 1.68985e+06 -669247 0 1.725e+06 -683166 0 1.75808e+06 -696269 0 1.78941e+06 -708677 0 1.81923e+06 -720488 0 1.84774e+06 -731779 0 1.87509e+06 -742610 0 1.9014e+06 -753029 0 1.92675e+06 -763068 0 1.95118e+06 -772744 0 1.8797e+06 -373305 0 1.89141e+06 -397294 0 1.90526e+06 -419412 0 1.92076e+06 -439918 0 1.93752e+06 -459008 0 1.95524e+06 -476857 0 1.9737e+06 -493613 0 1.99274e+06 -509406 0 2.01221e+06 -524350 0 2.03204e+06 -538544 0 2.05216e+06 -552078 0 2.07254e+06 -565032 0 2.09314e+06 -577479 0 2.11398e+06 -589488 0 2.13507e+06 -601124 0 2.15645e+06 -612448 0 2.07366e+06 -314117 0 2.08846e+06 -326713 0 2.1034e+06 -338990 0 2.11854e+06 -350904 0 2.13392e+06 -362429 0 2.14956e+06 -373546 0 2.16549e+06 -384244 0 2.18171e+06 -394514 0 2.19824e+06 -404351 0 2.21508e+06 -413752 0 2.23224e+06 -422713 0 2.24973e+06 -431231 0 2.26756e+06 -439302 0 2.28573e+06 -446919 0 2.30424e+06 -454073 0 2.3231e+06 -460751 0 2.22832e+06 -237969 0 2.23961e+06 -246095 0 2.25125e+06 -253830 0 2.26323e+06 -261171 0 2.27552e+06 -268116 0 2.28813e+06 -274656 0 2.30103e+06 -280786 0 2.31422e+06 -286496 0 2.3277e+06 -291779 0 2.34144e+06 -296624 0 2.35545e+06 -301022 0 2.36971e+06 -304963 0 2.38423e+06 -308436 0 2.39899e+06 -311430 0 2.41399e+06 -313932 0 2.42923e+06 -315932 0 2.32744e+06 -166848 0 2.33655e+06 -171125 0 2.34585e+06 -175071 0 2.35533e+06 -178670 0 2.36498e+06 -181909 0 2.37481e+06 -184777 0 2.3848e+06 -187265 0 2.39495e+06 -189363 0 2.40525e+06 -191062 0 2.4157e+06 -192351 0 2.42627e+06 -193221 0 2.43698e+06 -193660 0 2.44781e+06 -193659 0 2.45874e+06 -193206 0 2.46977e+06 -192290 0 2.4809e+06 -190900 0 2.38736e+06 -105045 0 2.39389e+06 -106753 0 2.40052e+06 -108134 0 2.40723e+06 -109195 0 2.41403e+06 -109937 0 2.4209e+06 -110355 0 2.42784e+06 -110443 0 2.43482e+06 -110195 0 2.44186e+06 -109604 0 2.44892e+06 -108663 0 2.45601e+06 -107367 0 2.46312e+06 -105709 0 2.47022e+06 -103684 0 2.47731e+06 -101286 0 2.48438e+06 -98510 0 2.49141e+06 -95350.6 0 2.4169e+06 -58323.7 0 2.42103e+06 -58328.1 0 2.42518e+06 -58131.5 0 2.42934e+06 -57702.1 0 2.43351e+06 -57026.1 0 2.43767e+06 -56096.1 0 2.44182e+06 -54908 0 2.44594e+06 -53459.2 0 2.45004e+06 -51747.3 0 2.45408e+06 -49769.9 0 2.45807e+06 -47524.6 0 2.462e+06 -45008.9 0 2.46585e+06 -42220.1 0 2.46962e+06 -39155.9 0 2.47328e+06 -35813.9 0 2.47684e+06 -32192.3 0 2.42638e+06 -27475 0 2.42852e+06 -26914.6 0 2.43062e+06 -26108.6 0 2.43268e+06 -25106.4 0 2.43468e+06 -23925.7 0 2.43662e+06 -22572.9 0 2.43849e+06 -21047.8 0 2.44027e+06 -19347.8 0 2.44197e+06 -17469.7 0 2.44357e+06 -15410.7 0 2.44507e+06 -13168.4 0 2.44645e+06 -10741.1 0 2.4477e+06 -8127.58 0 2.44883e+06 -5327.15 0 2.44981e+06 -2339.25 0 2.45064e+06 836.243 0 2.42576e+06 -12420.2 0 2.42637e+06 -11641.1 0 2.42688e+06 -10897.8 0 2.42731e+06 -10100.7 0 2.42765e+06 -9212.82 0 2.42791e+06 -8217.15 0 2.42806e+06 -7108.85 0 2.4281e+06 -5888.12 0 2.42802e+06 -4557.09 0 2.42781e+06 -3118.11 0 2.42745e+06 -1573.05 0 2.42695e+06 76.8678 0 2.42629e+06 1830.98 0 2.42547e+06 3689.03 0 2.42447e+06 5651 0 2.42329e+06 7716.84 0 2.42306e+06 -9814.51 0 2.42272e+06 -10115.4 0 2.42235e+06 -10166.2 0 2.42188e+06 -10107.2 0 2.42127e+06 -9998.09 0 2.4205e+06 -9867.89 0 2.41956e+06 -9725.35 0 2.41846e+06 -9570.32 0 2.41718e+06 -9398.65 0 2.41572e+06 -9205.1 0 2.41408e+06 -8984.56 0 2.41225e+06 -8732.54 0 2.41023e+06 -8445.08 0 2.40799e+06 -8118.65 0 2.40554e+06 -7749.72 0 2.40285e+06 -7334.7 0 2.42772e+06 -17192.2 0 2.42722e+06 -18019.6 0 2.42633e+06 -19217.3 0 2.42522e+06 -20599.8 0 2.42397e+06 -22087.9 0 2.42261e+06 -23641.6 0 2.42112e+06 -25247.6 0 2.41951e+06 -26904.2 0 2.41772e+06 -28614.5 0 2.41576e+06 -30382.3 0 2.41358e+06 -32210.5 0 2.41118e+06 -34100.5 0 2.40853e+06 -36051.9 0 2.40562e+06 -38063 0 2.40245e+06 -40131.4 0 2.39902e+06 -42254 0 2.44368e+06 -25717.4 0 2.44352e+06 -28970.6 0 2.44395e+06 -32262.5 0 2.44449e+06 -35760.9 0 2.44485e+06 -39520 0 2.44487e+06 -43557.2 0 2.44447e+06 -47864.3 0 2.44363e+06 -52423 0 2.44233e+06 -57210.8 0 2.44057e+06 -62204.7 0 2.43836e+06 -67382.9 0 2.43569e+06 -72724.9 0 2.43254e+06 -78210.7 0 2.4289e+06 -83820.9 0 2.42475e+06 -89535 0 2.42004e+06 -95331.3 0 2.50053e+06 -21908.4 0 2.50602e+06 -30474.4 0 2.50889e+06 -39028.6 0 2.51028e+06 -47628.9 0 2.51085e+06 -56377.1 0 2.51094e+06 -65358.3 0 2.51074e+06 -74640.6 0 2.51028e+06 -84269.2 0 2.50955e+06 -94267.8 0 2.50851e+06 -104641 0 2.50709e+06 -115376 0 2.50524e+06 -126452 0 2.50294e+06 -137837 0 2.50017e+06 -149493 0 2.49695e+06 -161384 0 2.49334e+06 -173467 0 2.60243e+06 -8110.57 0 2.60358e+06 -13662.9 0 2.61007e+06 -24009.5 0 2.61901e+06 -38131.2 0 2.6285e+06 -55136.3 0 2.63729e+06 -74276.9 0 2.64464e+06 -94934.7 0 2.65013e+06 -116611 0 2.65354e+06 -138913 0 2.6548e+06 -161541 0 2.65393e+06 -184279 0 2.65096e+06 -206981 0 2.64593e+06 -229565 0 2.63883e+06 -252004 0 2.6296e+06 -274320 0 2.61808e+06 -296591 0 2.90695e+06 187750 0 2.96246e+06 90879.4 0 2.99421e+06 6925.42 0 3.00876e+06 -65833.2 0 3.01101e+06 -128927 0 3.00469e+06 -183666 0 2.9926e+06 -231184 0 2.97691e+06 -272447 0 2.95926e+06 -308279 0 2.94099e+06 -339378 0 2.92318e+06 -366327 0 2.90677e+06 -389607 0 2.89267e+06 -409611 0 2.88182e+06 -426642 0 2.87524e+06 -440932 0 2.87416e+06 -452616 0 4.12478e+06 -1.07729e+06 0 3.88422e+06 -1.01447e+06 0 3.68782e+06 -963170 0 3.52612e+06 -920938 0 3.39176e+06 -885847 0 3.27894e+06 -856381 0 3.18307e+06 -831341 0 3.10046e+06 -809767 0 3.02812e+06 -790874 0 2.96355e+06 -774009 0 2.90458e+06 -758608 0 2.84926e+06 -744160 0 2.79574e+06 -730181 0 2.74213e+06 -716178 0 2.68639e+06 -701621 0 2.62621e+06 -685905 0 </DataArray> 
</PointData> 
<Points> 
<DataArray type="Float32" NumberOfComponents="3"> 
0.3075 0.0099 0 0.307701 0.0104067 0 0.307901 0.0109133 0 0.308102 0.01142 0 0.308303 0.0119267 0 0.308503 0.0124333 0 0.308704 0.01294 0 0.308905 0.0134467 0 0.309105 0.0139533 0 0.309306 0.01446 0 0.309507 0.0149667 0 0.309707 0.0154733 0 0.309908 0.01598 0 0.310109 0.0164867 0 0.310309 0.0169933 0 0.31051 0.0175 0 0.313067 0.0101962 0 0.313263 0.0107031 0 0.313459 0.01121 0 0.313655 0.0117169 0 0.313851 0.0122238 0 0.314048 0.0127308 0 0.314244 0.0132377 0 0.31444 0.0137446 0 0.314636 0.0142515 0 0.314832 0.0147585 0 0.315028 0.0152654 0 0.315225 0.0157723 0 0.315421 0.0162792 0 0.315617 0.0167862 0 0.315813 0.0172931 0 0.316009 0.0178 0 0.318633 0.0104923 0 0.318825 0.0109995 0 0.319017 0.0115067 0 0.319208 0.0120138 0 0.3194 0.012521 0 0.319592 0.0130282 0 0.319783 0.0135354 0 0.319975 0.0140426 0 0.320167 0.0145497 0 0.320358 0.0150569 0 0.32055 0.0155641 0 0.320742 0.0160713 0 0.320934 0.0165785 0 0.321125 0.0170856 0 0.321317 0.0175928 0 0.321509 0.0181 0 0.3242 0.0107885 0 0.324387 0.0112959 0 0.324574 0.0118033 0 0.324762 0.0123108 0 0.324949 0.0128182 0 0.325136 0.0133256 0 0.325323 0.0138331 0 0.32551 0.0143405 0 0.325698 0.014848 0 0.325885 0.0153554 0 0.326072 0.0158628 0 0.326259 0.0163703 0 0.326446 0.0168777 0 0.326634 0.0173851 0 0.326821 0.0178926 0 0.327008 0.0184 0 0.329767 0.0110846 0 0.329949 0.0115923 0 0.330132 0.0121 0 0.330315 0.0126077 0 0.330497 0.0131154 0 0.33068 0.0136231 0 0.330863 0.0141308 0 0.331046 0.0146385 0 0.331228 0.0151462 0 0.331411 0.0156538 0 0.331594 0.0161615 0 0.331776 0.0166692 0 0.331959 0.0171769 0 0.332142 0.0176846 0 0.332325 0.0181923 0 0.332507 0.0187 0 0.335333 0.0113808 0 0.335512 0.0118887 0 0.33569 0.0123967 0 0.335868 0.0129046 0 0.336046 0.0134126 0 0.336224 0.0139205 0 0.336403 0.0144285 0 0.336581 0.0149364 0 0.336759 0.0154444 0 0.336937 0.0159523 0 0.337116 0.0164603 0 0.337294 0.0169682 0 0.337472 0.0174762 0 0.33765 0.0179841 0 0.337828 0.0184921 0 0.338007 0.019 0 0.3409 0.0116769 0 0.341074 0.0121851 0 0.341247 0.0126933 0 0.341421 0.0132015 0 0.341595 0.0137098 0 0.341769 0.014218 0 0.341942 0.0147262 0 0.342116 0.0152344 0 0.34229 0.0157426 0 0.342464 0.0162508 0 0.342637 0.016759 0 0.342811 0.0172672 0 0.342985 0.0177754 0 0.343158 0.0182836 0 0.343332 0.0187918 0 0.343506 0.0193 0 0.346467 0.0119731 0 0.346636 0.0124816 0 0.346805 0.01299 0 0.346974 0.0134985 0 0.347144 0.0140069 0 0.347313 0.0145154 0 0.347482 0.0150239 0 0.347651 0.0155323 0 0.347821 0.0160408 0 0.34799 0.0165492 0 0.348159 0.0170577 0 0.348328 0.0175662 0 0.348498 0.0180746 0 0.348667 0.0185831 0 0.348836 0.0190915 0 0.349005 0.0196 0 0.352033 0.0122692 0 0.352198 0.012778 0 0.352363 0.0132867 0 0.352528 0.0137954 0 0.352692 0.0143041 0 0.352857 0.0148128 0 0.353022 0.0153215 0 0.353187 0.0158303 0 0.353351 0.016339 0 0.353516 0.0168477 0 0.353681 0.0173564 0 0.353846 0.0178651 0 0.35401 0.0183738 0 0.354175 0.0188826 0 0.35434 0.0193913 0 0.354505 0.0199 0 0.3576 0.0125654 0 0.35776 0.0130744 0 0.357921 0.0135833 0 0.358081 0.0140923 0 0.358241 0.0146013 0 0.358401 0.0151103 0 0.358562 0.0156192 0 0.358722 0.0161282 0 0.358882 0.0166372 0 0.359042 0.0171462 0 0.359203 0.0176551 0 0.359363 0.0181641 0 0.359523 0.0186731 0 0.359683 0.0191821 0 0.359844 0.019691 0 0.360004 0.0202 0 0.363167 0.0128616 0 0.363322 0.0133708 0 0.363478 0.01388 0 0.363634 0.0143892 0 0.36379 0.0148985 0 0.363946 0.0154077 0 0.364101 0.0159169 0 0.364257 0.0164262 0 0.364413 0.0169354 0 0.364569 0.0174446 0 0.364724 0.0179539 0 0.36488 0.0184631 0 0.365036 0.0189723 0 0.365192 0.0194815 0 0.365348 0.0199908 0 0.365503 0.0205 0 0.368733 0.0131577 0 0.368885 0.0136672 0 0.369036 0.0141767 0 0.369187 0.0146862 0 0.369338 0.0151957 0 0.36949 0.0157051 0 0.369641 0.0162146 0 0.369792 0.0167241 0 0.369944 0.0172336 0 0.370095 0.0177431 0 0.370246 0.0182526 0 0.370397 0.0187621 0 0.370549 0.0192715 0 0.3707 0.019781 0 0.370851 0.0202905 0 0.371003 0.0208 0 0.3743 0.0134539 0 0.374447 0.0139636 0 0.374594 0.0144734 0 0.37474 0.0149831 0 0.374887 0.0154928 0 0.375034 0.0160026 0 0.375181 0.0165123 0 0.375328 0.0170221 0 0.375474 0.0175318 0 0.375621 0.0180415 0 0.375768 0.0185513 0 0.375915 0.019061 0 0.376062 0.0195708 0 0.376208 0.0200805 0 0.376355 0.0205903 0 0.376502 0.0211 0 0.379867 0.01375 0 0.380009 0.01426 0 0.380151 0.01477 0 0.380294 0.01528 0 0.380436 0.01579 0 0.380578 0.0163 0 0.380721 0.01681 0 0.380863 0.01732 0 0.381005 0.01783 0 0.381147 0.01834 0 0.38129 0.01885 0 0.381432 0.01936 0 0.381574 0.01987 0 0.381717 0.02038 0 0.381859 0.02089 0 0.382001 0.0214 0 0.385433 0.0140462 0 0.385571 0.0145564 0 0.385709 0.0150667 0 0.385847 0.0155769 0 0.385985 0.0160872 0 0.386122 0.0165975 0 0.38626 0.0171077 0 0.386398 0.017618 0 0.386536 0.0181282 0 0.386674 0.0186385 0 0.386812 0.0191487 0 0.386949 0.019659 0 0.387087 0.0201692 0 0.387225 0.0206795 0 0.387363 0.0211897 0 0.387501 0.0217 0 0.391 0.0143423 0 0.391133 0.0148528 0 0.391267 0.0153634 0 0.3914 0.0158739 0 0.391533 0.0163844 0 0.391667 0.0168949 0 0.3918 0.0174054 0 0.391933 0.0179159 0 0.392067 0.0184264 0 0.3922 0.0189369 0 0.392333 0.0194474 0 0.392467 0.019958 0 0.3926 0.0204685 0 0.392733 0.020979 0 0.392867 0.0214895 0 0.393 0.022 0 
</DataArray>
</Points> 
</Piece> 
</StructuredGrid> 
</VTKFile> 
