<?xml version="1.0"?> 
<VTKFile type="StructuredGrid" version="0.1"> 
<StructuredGrid WholeExtent="0 15 0 15 0 0"> 
<Piece Extent="0 15 0 15 0 0"> 
<PointData>
<DataArray type="Float32" Name="E" format="ascii" NumberOfComponents="3"> 
7.15256e-07 6.28341e+06 0 -2.13811e+06 -865309 0 -1.88743e+06 23940.9 0 -1.98182e+06 -63127.7 0 -1.94402e+06 250261 0 -1.90124e+06 484593 0 -1.84188e+06 691154 0 -1.77457e+06 859370 0 -1.70423e+06 991033 0 -1.634e+06 1.09271e+06 0 -1.56556e+06 1.17117e+06 0 -1.50015e+06 1.2312e+06 0 -1.43829e+06 1.27709e+06 0 -1.38023e+06 1.31189e+06 0 -1.32599e+06 1.33797e+06 0 -1.27537e+06 1.35723e+06 0 -3.57628e-07 2.95107e+06 0 -1.81661e+06 352633 0 -1.95287e+06 -242995 0 -1.96878e+06 -74801.7 0 -1.97085e+06 160717 0 -1.93047e+06 407098 0 -1.87713e+06 621559 0 -1.8135e+06 800563 0 -1.74555e+06 943064 0 -1.67703e+06 1.05419e+06 0 -1.60983e+06 1.1408e+06 0 -1.5453e+06 1.20793e+06 0 -1.48418e+06 1.25991e+06 0 -1.4268e+06 1.3001e+06 0 -1.37324e+06 1.33101e+06 0 -1.32343e+06 1.35463e+06 0 7.45058e-08 899202 0 -1.46257e+06 797779 0 -1.96469e+06 -155596 0 -1.95782e+06 -134093 0 -1.99461e+06 58445.3 0 -1.95887e+06 332658 0 -1.91327e+06 542612 0 -1.85483e+06 734092 0 -1.78991e+06 888188 0 -1.72369e+06 1.00946e+06 0 -1.6582e+06 1.1051e+06 0 -1.59492e+06 1.18007e+06 0 -1.53485e+06 1.23884e+06 0 -1.47842e+06 1.28499e+06 0 -1.42577e+06 1.32122e+06 0 -1.3769e+06 1.3497e+06 0 2.98023e-08 -206730 0 -1.11061e+06 781354 0 -1.88878e+06 43180 0 -1.9651e+06 -168449 0 -1.99545e+06 -23662.7 0 -1.9942e+06 229551 0 -1.94767e+06 466572 0 -1.89827e+06 656987 0 -1.83784e+06 825071 0 -1.77439e+06 957534 0 -1.71129e+06 1.0629e+06 0 -1.64979e+06 1.14661e+06 0 -1.59115e+06 1.21297e+06 0 -1.53599e+06 1.26577e+06 0 -1.48458e+06 1.30791e+06 0 -1.43696e+06 1.34173e+06 0 4.47035e-08 -657635 0 -786323 547216 0 -1.71911e+06 203387 0 -1.96755e+06 -149613 0 -1.99045e+06 -91179.8 0 -2.01779e+06 125107 0 -1.98819e+06 372416 0 -1.94123e+06 576493 0 -1.88936e+06 751073 0 -1.8299e+06 896889 0 -1.76973e+06 1.013e+06 0 -1.71077e+06 1.10634e+06 0 -1.6541e+06 1.18122e+06 0 -1.60068e+06 1.24151e+06 0 -1.55089e+06 1.2903e+06 0 -1.50489e+06 1.33011e+06 0 -2.38419e-07 -696741 0 -508966 263870 0 -1.4673e+06 268435 0 -1.92938e+06 -93602.5 0 -1.99084e+06 -141070 0 -2.02555e+06 28230.9 0 -2.02701e+06 266043 0 -1.98827e+06 483795 0 -1.94259e+06 668472 0 -1.89069e+06 825329 0 -1.83454e+06 953699 0 -1.77887e+06 1.05774e+06 0 -1.725e+06 1.14223e+06 0 -1.67393e+06 1.21102e+06 0 -1.62631e+06 1.26738e+06 0 -1.58241e+06 1.314e+06 0 1.19209e-07 -518705 0 -290202 33467.5 0 -1.16062e+06 241449 0 -1.816e+06 -28255.8 0 -1.98794e+06 -169047 0 -2.02594e+06 -61122.6 0 -2.05395e+06 155461 0 -2.03782e+06 377705 0 -1.9995e+06 573489 0 -1.95576e+06 742132 0 -1.90659e+06 882975 0 -1.85545e+06 998903 0 -1.80537e+06 1.09425e+06 0 -1.75757e+06 1.17279e+06 0 -1.71287e+06 1.23787e+06 0 -1.67173e+06 1.29236e+06 0 0 -269466 0 -133909 -98429.7 0 -835689 159325 0 -1.60901e+06 21711.8 0 -1.95076e+06 -170991 0 -2.0255e+06 -141546 0 -2.06726e+06 42370.2 0 -2.08157e+06 261157 0 -2.06041e+06 464189 0 -2.02595e+06 644312 0 -1.98587e+06 798586 0 -1.94187e+06 927536 0 -1.89716e+06 1.03506e+06 0 -1.8539e+06 1.12484e+06 0 -1.81321e+06 1.20012e+06 0 -1.77578e+06 1.26389e+06 0 -5.96046e-08 -48083.3 0 -36694 -130667 0 -531069 69004.7 0 -1.31488e+06 44097.3 0 -1.83872e+06 -149190 0 -2.01169e+06 -203287 0 -2.07198e+06 -72679.2 0 -2.11257e+06 134086 0 -2.11968e+06 340631 0 -2.10154e+06 529564 0 -2.07305e+06 696985 0 -2.03913e+06 840414 0 -2.00248e+06 961771 0 -1.96576e+06 1.06455e+06 0 -1.93071e+06 1.1519e+06 0 -1.89837e+06 1.22682e+06 0 2.98023e-08 90037.3 0 10897.3 -92699.5 0 -279648 8683.75 0 -965590 42251.1 0 -1.62203e+06 -114546 0 -1.94851e+06 -235092 0 -2.06463e+06 -180694 0 -2.12987e+06 -4665.71 0 -2.1693e+06 200312 0 -2.17832e+06 395876 0 -2.16813e+06 574640 0 -2.14838e+06 732979 0 -2.12351e+06 870106 0 -2.0965e+06 988179 0 -2.06967e+06 1.09005e+06 0 -2.04455e+06 1.17868e+06 0 0 129402 0 22639.1 -29431.1 0 -102473 -5527.17 0 -610835 32368 0 -1.29996e+06 -81201.2 0 -1.79025e+06 -236325 0 -2.0184e+06 -266497 0 -2.12921e+06 -148875 0 -2.20355e+06 39551 0 -2.2485e+06 238095 0 -2.2674e+06 426652 0 -2.2697e+06 599433 0 -2.2625e+06 753799 0 -2.25014e+06 889923 0 -2.23562e+06 1.00965e+06 0 -2.2211e+06 1.11557e+06 0 -1.19209e-07 90203.9 0 14526.4 16089.7 0 -4971 14021.1 0 -304821 33709.2 0 -908256 -55252.2 0 -1.50713e+06 -220097 0 -1.88516e+06 -322460 0 -2.08633e+06 -285171 0 -2.21275e+06 -139784 0 -2.30299e+06 49109.4 0 -2.3633e+06 243771 0 -2.39998e+06 430271 0 -2.42062e+06 603147 0 -2.43116e+06 760454 0 -2.43582e+06 902453 0 -2.43759e+06 1.0309e+06 0 3.57628e-07 19999.2 0 1986.75 21859.8 0 24423.2 32171.9 0 -91363.4 51902.1 0 -512542 -27451.3 0 -1.1087e+06 -199609 0 -1.61857e+06 -357245 0 -1.95195e+06 -405917 0 -2.16763e+06 -330842 0 -2.32452e+06 -175919 0 -2.44353e+06 12635.4 0 -2.53207e+06 208899 0 -2.59694e+06 400926 0 -2.64459e+06 583274 0 -2.68031e+06 753825 0 -2.70815e+06 912754 0 -4.17233e-07 -26684.8 0 -4086.88 1822.57 0 12867.8 16718.4 0 10196.5 63994.9 0 -190968 15649.1 0 -652003 -164749 0 -1.20437e+06 -379954 0 -1.67033e+06 -519043 0 -2.01391e+06 -535128 0 -2.27407e+06 -443844 0 -2.48189e+06 -284744 0 -2.65026e+06 -91018.4 0 -2.78613e+06 117018 0 -2.89564e+06 328066 0 -2.98432e+06 536066 0 -3.05676e+06 738449 0 4.17233e-07 -24078.5 0 -1923.75 -5149.54 0 -4311.7 -19255 0 19219 36255.4 0 -10183 54831 0 -239615 -91034.9 0 -682563 -361918 0 -1.20342e+06 -618113 0 -1.68132e+06 -761628 0 -2.0852e+06 -774313 0 -2.428e+06 -681631 0 -2.72281e+06 -516254 0 -2.97599e+06 -303887 0 -3.19139e+06 -62310.1 0 -3.37272e+06 196418 0 -3.52389e+06 464517 0 -9.53674e-07 -9.43718e+06 0 3102.24 32187.2 0 -5916.34 -29860.6 0 -6522.58 -21220 0 25870.6 60596.1 0 14257.4 25429.7 0 -175650 -245993 0 -579574 -647389 0 -1.10918e+06 -992990 0 -1.66185e+06 -1.18664e+06 0 -2.18834e+06 -1.22691e+06 0 -2.67748e+06 -1.14311e+06 0 -3.1273e+06 -961266 0 -3.53425e+06 -700247 0 -3.89301e+06 -375214 0 -4.19837e+06 5.36442e-07 0 </DataArray> 
</PointData> 
<Points> 
<DataArray type="Float32" NumberOfComponents="3"> 
0.2225 0.045 0 0.220333 0.0456667 0 0.218167 0.0463333 0 0.216 0.047 0 0.213833 0.0476667 0 0.211667 0.0483333 0 0.2095 0.049 0 0.207333 0.0496667 0 0.205167 0.0503333 0 0.203 0.051 0 0.200833 0.0516667 0 0.198667 0.0523333 0 0.1965 0.053 0 0.194333 0.0536667 0 0.192167 0.0543333 0 0.19 0.055 0 0.223 0.045 0 0.220894 0.0456267 0 0.218784 0.046262 0 0.216673 0.0469052 0 0.214561 0.0475558 0 0.212453 0.0482131 0 0.21035 0.0488763 0 0.208253 0.0495449 0 0.206166 0.0502181 0 0.204091 0.0508953 0 0.202029 0.0515756 0 0.199983 0.0522584 0 0.197956 0.052943 0 0.195948 0.0536286 0 0.193962 0.0543145 0 0.192 0.055 0 0.2235 0.045 0 0.221457 0.0455866 0 0.219407 0.04619 0 0.217354 0.0468093 0 0.215301 0.0474432 0 0.213253 0.0480907 0 0.211215 0.0487503 0 0.209191 0.0494208 0 0.207186 0.0501006 0 0.205203 0.0507885 0 0.203246 0.0514829 0 0.201321 0.0521823 0 0.19943 0.0528852 0 0.197577 0.0535901 0 0.195766 0.0542955 0 0.194 0.055 0 0.224 0.045 0 0.222024 0.0455462 0 0.220036 0.0461173 0 0.218043 0.0467121 0 0.216052 0.0473289 0 0.214068 0.0479661 0 0.212098 0.0486218 0 0.210148 0.0492941 0 0.208226 0.0499808 0 0.206336 0.0506797 0 0.204485 0.0513885 0 0.202679 0.052105 0 0.200922 0.0528267 0 0.199221 0.0535513 0 0.197579 0.0542765 0 0.196 0.055 0 0.2245 0.045 0 0.222593 0.0455057 0 0.220671 0.046044 0 0.218742 0.0466137 0 0.216815 0.0472128 0 0.214897 0.0478393 0 0.212997 0.0484909 0 0.211125 0.0491649 0 0.209286 0.0498585 0 0.207491 0.0505688 0 0.205746 0.0512925 0 0.204058 0.0520265 0 0.202434 0.0527675 0 0.20088 0.0535122 0 0.199401 0.0542574 0 0.198 0.055 0 0.225 0.045 0 0.223164 0.0454649 0 0.221311 0.04597 0 0.219449 0.046514 0 0.217589 0.0470948 0 0.215741 0.0477102 0 0.213915 0.0483573 0 0.212121 0.049033 0 0.210369 0.0497338 0 0.208669 0.0504557 0 0.20703 0.0511947 0 0.20546 0.0519467 0 0.203966 0.0527075 0 0.202555 0.0534727 0 0.201231 0.0542382 0 0.2 0.055 0 0.2255 0.045 0 0.223739 0.045424 0 0.221957 0.0458954 0 0.220166 0.046413 0 0.218377 0.0469749 0 0.216601 0.0475787 0 0.21485 0.0482211 0 0.213138 0.0488985 0 0.211474 0.0496064 0 0.20987 0.0503403 0 0.208337 0.0510952 0 0.206883 0.0518657 0 0.205517 0.0526467 0 0.204245 0.0534328 0 0.203071 0.0542189 0 0.202 0.055 0 0.226 0.045 0 0.224316 0.0453828 0 0.22261 0.04582 0 0.220892 0.0463107 0 0.219177 0.0468531 0 0.217476 0.0474448 0 0.215805 0.0480822 0 0.214176 0.0487611 0 0.212602 0.0494764 0 0.211096 0.0502226 0 0.209669 0.0509937 0 0.20833 0.0517834 0 0.207089 0.0525851 0 0.20595 0.0533925 0 0.20492 0.0541994 0 0.204 0.055 0 0.2265 0.045 0 0.224897 0.0453415 0 0.223268 0.0457439 0 0.221628 0.046207 0 0.21999 0.0467294 0 0.218368 0.0473084 0 0.216778 0.0479405 0 0.215235 0.0486208 0 0.213754 0.0493437 0 0.212346 0.0501026 0 0.211025 0.0508904 0 0.209801 0.0516997 0 0.208681 0.0525227 0 0.207672 0.0533519 0 0.206778 0.0541799 0 0.206 0.055 0 0.227 0.045 0 0.22548 0.0452999 0 0.223933 0.0456671 0 0.222373 0.046102 0 0.220816 0.0466035 0 0.219277 0.0471694 0 0.217772 0.0477958 0 0.216318 0.0484775 0 0.21493 0.0492081 0 0.213622 0.0499801 0 0.212407 0.0507852 0 0.211295 0.0516146 0 0.210294 0.0524595 0 0.20941 0.0533109 0 0.208645 0.0541603 0 0.208 0.055 0 0.2275 0.045 0 0.226066 0.0452581 0 0.224604 0.0455896 0 0.223129 0.0459955 0 0.221656 0.0464757 0 0.220203 0.0470278 0 0.218786 0.0476482 0 0.217424 0.0483312 0 0.216131 0.0490696 0 0.214924 0.049855 0 0.213815 0.0506779 0 0.212814 0.0515282 0 0.211929 0.0523954 0 0.211164 0.0532695 0 0.210522 0.0541406 0 0.21 0.055 0 0.228 0.045 0 0.226655 0.0452161 0 0.225281 0.0455113 0 0.223894 0.0458877 0 0.22251 0.0463456 0 0.221146 0.0468835 0 0.219822 0.0474975 0 0.218553 0.0481817 0 0.217359 0.0489281 0 0.216254 0.0497274 0 0.21525 0.0505686 0 0.214359 0.0514403 0 0.213586 0.0523305 0 0.212935 0.0532277 0 0.212407 0.0541208 0 0.212 0.055 0 0.2285 0.045 0 0.227247 0.045174 0 0.225965 0.0454323 0 0.22467 0.0457784 0 0.223379 0.0462134 0 0.222108 0.0467364 0 0.220879 0.0473436 0 0.219708 0.0480288 0 0.218614 0.0487835 0 0.217611 0.049597 0 0.216713 0.0504572 0 0.215929 0.0513509 0 0.215265 0.0522647 0 0.214723 0.0531855 0 0.214303 0.0541009 0 0.214 0.055 0 0.229 0.045 0 0.227842 0.0451316 0 0.226656 0.0453525 0 0.225457 0.0456676 0 0.224262 0.046079 0 0.223089 0.0465864 0 0.221959 0.0471864 0 0.220889 0.0478726 0 0.219897 0.0486357 0 0.218998 0.0494639 0 0.218205 0.0503436 0 0.217526 0.05126 0 0.216967 0.052198 0 0.216528 0.0531429 0 0.216208 0.0540809 0 0.216 0.055 0 0.2295 0.045 0 0.22844 0.045089 0 0.227353 0.045272 0 0.226254 0.0455552 0 0.22516 0.0459422 0 0.224089 0.0464334 0 0.223062 0.0470258 0 0.222096 0.0477129 0 0.221208 0.0484845 0 0.220414 0.0493279 0 0.219726 0.0502277 0 0.219151 0.0511676 0 0.218692 0.0521304 0 0.218351 0.0530999 0 0.218122 0.0540608 0 0.218 0.055 0 0.23 0.045 0 0.229041 0.0450461 0 0.228056 0.0451907 0 0.227062 0.0454414 0 0.226074 0.0458031 0 0.22511 0.0462774 0 0.224189 0.0468617 0 0.22333 0.0475495 0 0.222549 0.0483299 0 0.221862 0.0491889 0 0.221277 0.0501096 0 0.220803 0.0510735 0 0.220441 0.0520619 0 0.220191 0.0530565 0 0.220046 0.0540406 0 0.22 0.055 0 
</DataArray>
</Points> 
</Piece> 
</StructuredGrid> 
</VTKFile> 
