<?xml version="1.0"?> 
<VTKFile type="StructuredGrid" version="0.1"> 
<StructuredGrid WholeExtent="0 15 0 15 0 0"> 
<Piece Extent="0 15 0 15 0 0"> 
<PointData>
<DataArray type="Float32" Name="E" format="ascii" NumberOfComponents="3"> 
-655437 1.50938 0 -655083 -9661.99 0 -654017 -19423.2 0 -652229 -29382 0 -649699 -39638 0 -646406 -50295.9 0 -642321 -61463.8 0 -637411 -73250 0 -631645 -85758.2 0 -624979 -99073.8 0 -617370 -113251 0 -608748 -128262 0 -599014 -143991 0 -588307 -159888 0 -576403 -175201 0 -578076 -184391 0 -649513 1.42514 0 -649129 -9197.5 0 -647975 -18488.9 0 -646037 -27967.7 0 -643294 -37729.6 0 -639721 -47876.3 0 -635286 -58514 0 -629960 -69750.6 0 -623713 -81688.8 0 -616525 -94416.1 0 -608375 -107978 0 -599262 -122371 0 -589222 -137417 0 -578373 -152955 0 -567822 -168088 0 -557171 -185953 0 -643891 1.32573 0 -643481 -8697.19 0 -642243 -17482 0 -640164 -26442.3 0 -637218 -35669.4 0 -633376 -45262.2 0 -628604 -55326.2 0 -622871 -65971.1 0 -616156 -77304.7 0 -608448 -89420.3 0 -599764 -102380 0 -590150 -116182 0 -579716 -130747 0 -568694 -145878 0 -557476 -161560 0 -545983 -178432 0 -638594 1.20757 0 -638159 -8163.48 0 -636844 -16407.1 0 -634633 -24812.2 0 -631497 -33465 0 -627399 -42461.6 0 -622303 -51907.7 0 -616174 -61917.3 0 -608991 -72607.4 0 -600760 -84087 0 -591521 -96439.4 0 -581366 -109697 0 -570458 -123823 0 -559035 -138712 0 -547349 -154322 0 -535158 -170664 0 -633642 1.06704 0 -633183 -7599.29 0 -631799 -15269.8 0 -629468 -23085 0 -626156 -31125.3 0 -621819 -39483.4 0 -616411 -48265.6 0 -609894 -57592.5 0 -602244 -67594.7 0 -593473 -78403.8 0 -583642 -90135.2 0 -572883 -102864 0 -561404 -116599 0 -549475 -131271 0 -537326 -146760 0 -524983 -162765 0 -629052 0.899696 0 -628574 -7008.05 0 -627129 -14076.7 0 -624691 -21270 0 -621220 -28660.9 0 -616662 -36337.8 0 -610960 -44407.8 0 -604063 -52999.2 0 -595942 -62260 0 -586608 -72351.3 0 -576135 -83430.7 0 -564687 -95626.3 0 -552526 -109000 0 -539985 -123507 0 -527386 -138960 0 -514902 -154926 0 -624839 0.700956 0 -624345 -6393.91 0 -622849 -12835.7 0 -620322 -19378 0 -616713 -26084.5 0 -611957 -33037.6 0 -605981 -40344 0 -598719 -48140.3 0 -590124 -56594.6 0 -580197 -65903.5 0 -569018 -76278.2 0 -556777 -87914.7 0 -543796 -100945 0 -530512 -115362 0 -517385 -130945 0 -504770 -147150 0 -621017 0.466512 0 -620510 -5761.75 0 -618977 -11556.3 0 -616380 -17422.4 0 -612659 -23412 0 -607734 -29599 0 -601513 -36087.5 0 -593904 -43021.1 0 -584835 -50589.4 0 -574286 -59030.1 0 -562327 -68619.2 0 -549165 -79641.4 0 -535189 -92327.7 0 -520968 -106746 0 -507172 -122672 0 -494364 -139439 0 -617593 0.192898 0 -617080 -5117.39 0 -615524 -10249.9 0 -612881 -15419.5 0 -609080 -20663.3 0 -604023 -26043 0 -597593 -31656.6 0 -589667 -37651.7 0 -580135 -44238.4 0 -568939 -51698.9 0 -556119 -60385.7 0 -541883 -70696.8 0 -526683 -83006.7 0 -511254 -97518.2 0 -496551 -114053 0 -483454 -131780 0 -614575 -0.12174 0 -614060 -4467.65 0 -612498 -8929.84 0 -609838 -13388.8 0 -605996 -17862.9 0 -600854 -22396.9 0 -594265 -27077.5 0 -586066 -32050.5 0 -576097 -37542.5 0 -564240 -43880.1 0 -550480 -51501.9 0 -534996 -60946.2 0 -518278 -72788.5 0 -501250 -87464.7 0 -485277 -104937 0 -471710 -124174 0 -611961 -0.47671 0 -611452 -3820.38 0 -609904 -7611.92 0 -607261 -11353.7 0 -603424 -15041 0 -598255 -18696 0 -591573 -22386.3 0 -583166 -26247.5 0 -572808 -30514.3 0 -560299 -35552.8 0 -545535 -41890.8 0 -528614 -50230.3 0 -510015 -61415.7 0 -490839 -76259.5 0 -473004 -95080.8 0 -458778 -116600 0 -609748 -0.867971 0 -609252 -3184.51 0 -607741 -6314.17 0 -605153 -9341.62 0 -601376 -12234.2 0 -596250 -14984.8 0 -589560 -17632 0 -581035 -20289.3 0 -570370 -23185.5 0 -557256 -26713.6 0 -541454 -31483.9 0 -522919 -38373.7 0 -502017 -48554.7 0 -479918 -63407.2 0 -459294 -84052.6 0 -443773 -109106 0 -607927 -1.28689 0 -607451 -2569.92 0 -606002 -5056.87 0 -603511 -7384 0 -599858 -9486.03 0 -594861 -11318.4 0 -588268 -12879.2 0 -579748 -14243.4 0 -568899 -15613.8 0 -555277 -17388.3 0 -538463 -20239.7 0 -518184 -25205 0 -494543 -33809.1 0 -468520 -48150.6 0 -443348 -71016.2 0 -426333 -101847 0 -606479 -1.72034 0 -606034 -1987.28 0 -604673 -3862.18 0 -602327 -5516.09 0 -598868 -6846.56 0 -594098 -7763.34 0 -587732 -8210.45 0 -579375 -8203.65 0 -568520 -7892.49 0 -554559 -7645.61 0 -536844 -8167.8 0 -514799 -10593.4 0 -488084 -16787.7 0 -456935 -29404.1 0 -424518 -54204.2 0 -402052 -94723.4 0 -605384 -2.14631 0 -604976 -1447.68 0 -603731 -2753.54 0 -601579 -3776.12 0 -598392 -4372.17 0 -593962 -4397.82 0 -587976 -3727.99 0 -579982 -2294.37 0 -569359 -158.251 0 -555315 2386.24 0 -536929 4654.09 0 -513265 5460.64 0 -483343 2876.61 0 -446504 -6344.97 0 -400631 -28504 0 -372047 -89713 0 -604609 -2.55757 0 -604248 -962.122 0 -603146 -1754.7 0 -601238 -2203.88 0 -598402 -2123.85 0 -594432 -1310.46 0 -589005 446.017 0 -581615 3323.72 0 -571543 7403.59 0 -557771 12492.5 0 -539110 18087.2 0 -514145 22710.9 0 -481449 25419.5 0 -439108 20748.9 0 -378816 12438.7 0 -278304 -53191.3 0 </DataArray> 
</PointData> 
<Points> 
<DataArray type="Float32" NumberOfComponents="3"> 
0.236 0 0 0.236 0.0018 0 0.236 0.0036 0 0.236 0.0054 0 0.236 0.0072 0 0.236 0.009 0 0.236 0.0108 0 0.236 0.0126 0 0.236 0.0144 0 0.236 0.0162 0 0.236 0.018 0 0.236 0.0198 0 0.236 0.0216 0 0.236 0.0234 0 0.236 0.0252 0 0.236 0.027 0 0.237133 0 0 0.237133 0.0018 0 0.237133 0.0036 0 0.237133 0.0054 0 0.237133 0.0072 0 0.237133 0.009 0 0.237133 0.0108 0 0.237133 0.0126 0 0.237133 0.0144 0 0.237133 0.0162 0 0.237133 0.018 0 0.237133 0.0198 0 0.237133 0.0216 0 0.237133 0.0234 0 0.237133 0.0252 0 0.237133 0.027 0 0.238267 0 0 0.238267 0.0018 0 0.238267 0.0036 0 0.238267 0.0054 0 0.238267 0.0072 0 0.238267 0.009 0 0.238267 0.0108 0 0.238267 0.0126 0 0.238267 0.0144 0 0.238267 0.0162 0 0.238267 0.018 0 0.238267 0.0198 0 0.238267 0.0216 0 0.238267 0.0234 0 0.238267 0.0252 0 0.238267 0.027 0 0.2394 0 0 0.2394 0.0018 0 0.2394 0.0036 0 0.2394 0.0054 0 0.2394 0.0072 0 0.2394 0.009 0 0.2394 0.0108 0 0.2394 0.0126 0 0.2394 0.0144 0 0.2394 0.0162 0 0.2394 0.018 0 0.2394 0.0198 0 0.2394 0.0216 0 0.2394 0.0234 0 0.2394 0.0252 0 0.2394 0.027 0 0.240533 0 0 0.240533 0.0018 0 0.240533 0.0036 0 0.240533 0.0054 0 0.240533 0.0072 0 0.240533 0.009 0 0.240533 0.0108 0 0.240533 0.0126 0 0.240533 0.0144 0 0.240533 0.0162 0 0.240533 0.018 0 0.240533 0.0198 0 0.240533 0.0216 0 0.240533 0.0234 0 0.240533 0.0252 0 0.240533 0.027 0 0.241667 0 0 0.241667 0.0018 0 0.241667 0.0036 0 0.241667 0.0054 0 0.241667 0.0072 0 0.241667 0.009 0 0.241667 0.0108 0 0.241667 0.0126 0 0.241667 0.0144 0 0.241667 0.0162 0 0.241667 0.018 0 0.241667 0.0198 0 0.241667 0.0216 0 0.241667 0.0234 0 0.241667 0.0252 0 0.241667 0.027 0 0.2428 0 0 0.2428 0.0018 0 0.2428 0.0036 0 0.2428 0.0054 0 0.2428 0.0072 0 0.2428 0.009 0 0.2428 0.0108 0 0.2428 0.0126 0 0.2428 0.0144 0 0.2428 0.0162 0 0.2428 0.018 0 0.2428 0.0198 0 0.2428 0.0216 0 0.2428 0.0234 0 0.2428 0.0252 0 0.2428 0.027 0 0.243933 0 0 0.243933 0.0018 0 0.243933 0.0036 0 0.243933 0.0054 0 0.243933 0.0072 0 0.243933 0.009 0 0.243933 0.0108 0 0.243933 0.0126 0 0.243933 0.0144 0 0.243933 0.0162 0 0.243933 0.018 0 0.243933 0.0198 0 0.243933 0.0216 0 0.243933 0.0234 0 0.243933 0.0252 0 0.243933 0.027 0 0.245067 0 0 0.245067 0.0018 0 0.245067 0.0036 0 0.245067 0.0054 0 0.245067 0.0072 0 0.245067 0.009 0 0.245067 0.0108 0 0.245067 0.0126 0 0.245067 0.0144 0 0.245067 0.0162 0 0.245067 0.018 0 0.245067 0.0198 0 0.245067 0.0216 0 0.245067 0.0234 0 0.245067 0.0252 0 0.245067 0.027 0 0.2462 0 0 0.2462 0.0018 0 0.2462 0.0036 0 0.2462 0.0054 0 0.2462 0.0072 0 0.2462 0.009 0 0.2462 0.0108 0 0.2462 0.0126 0 0.2462 0.0144 0 0.2462 0.0162 0 0.2462 0.018 0 0.2462 0.0198 0 0.2462 0.0216 0 0.2462 0.0234 0 0.2462 0.0252 0 0.2462 0.027 0 0.247333 0 0 0.247333 0.0018 0 0.247333 0.0036 0 0.247333 0.0054 0 0.247333 0.0072 0 0.247333 0.009 0 0.247333 0.0108 0 0.247333 0.0126 0 0.247333 0.0144 0 0.247333 0.0162 0 0.247333 0.018 0 0.247333 0.0198 0 0.247333 0.0216 0 0.247333 0.0234 0 0.247333 0.0252 0 0.247333 0.027 0 0.248467 0 0 0.248467 0.0018 0 0.248467 0.0036 0 0.248467 0.0054 0 0.248467 0.0072 0 0.248467 0.009 0 0.248467 0.0108 0 0.248467 0.0126 0 0.248467 0.0144 0 0.248467 0.0162 0 0.248467 0.018 0 0.248467 0.0198 0 0.248467 0.0216 0 0.248467 0.0234 0 0.248467 0.0252 0 0.248467 0.027 0 0.2496 0 0 0.2496 0.0018 0 0.2496 0.0036 0 0.2496 0.0054 0 0.2496 0.0072 0 0.2496 0.009 0 0.2496 0.0108 0 0.2496 0.0126 0 0.2496 0.0144 0 0.2496 0.0162 0 0.2496 0.018 0 0.2496 0.0198 0 0.2496 0.0216 0 0.2496 0.0234 0 0.2496 0.0252 0 0.2496 0.027 0 0.250733 0 0 0.250733 0.0018 0 0.250733 0.0036 0 0.250733 0.0054 0 0.250733 0.0072 0 0.250733 0.009 0 0.250733 0.0108 0 0.250733 0.0126 0 0.250733 0.0144 0 0.250733 0.0162 0 0.250733 0.018 0 0.250733 0.0198 0 0.250733 0.0216 0 0.250733 0.0234 0 0.250733 0.0252 0 0.250733 0.027 0 0.251867 0 0 0.251867 0.0018 0 0.251867 0.0036 0 0.251867 0.0054 0 0.251867 0.0072 0 0.251867 0.009 0 0.251867 0.0108 0 0.251867 0.0126 0 0.251867 0.0144 0 0.251867 0.0162 0 0.251867 0.018 0 0.251867 0.0198 0 0.251867 0.0216 0 0.251867 0.0234 0 0.251867 0.0252 0 0.251867 0.027 0 0.253 0 0 0.253 0.0018 0 0.253 0.0036 0 0.253 0.0054 0 0.253 0.0072 0 0.253 0.009 0 0.253 0.0108 0 0.253 0.0126 0 0.253 0.0144 0 0.253 0.0162 0 0.253 0.018 0 0.253 0.0198 0 0.253 0.0216 0 0.253 0.0234 0 0.253 0.0252 0 0.253 0.027 0 
</DataArray>
</Points> 
</Piece> 
</StructuredGrid> 
</VTKFile> 
