<?xml version="1.0"?> 
<VTKFile type="StructuredGrid" version="0.1"> 
<StructuredGrid WholeExtent="0 15 0 15 0 0"> 
<Piece Extent="0 15 0 15 0 0"> 
<PointData>
<DataArray type="Float32" Name="E" format="ascii" NumberOfComponents="3"> 
760175 -4.49722 0 757234 79856.2 0 748282 160147 0 732910 241270 0 710408 323563 0 679701 407267 0 639262 492437 0 586989 578796 0 520039 665471 0 434652 750540 0 325997 830200 0 188275 897505 0 15525.9 939722 0 -194822 936035 0 -440323 851544 0 -629194 629194 0 696986 -4.20055 0 693570 79003.1 0 683170 158262 0 665329 237977 0 639256 318228 0 603772 398901 0 557251 479534 0 497542 559084 0 421931 635544 0 327227 705314 0 210173 762286 0 68738.2 796425 0 -94621.9 792737 0 -266204 731301 0 -399744 595396 0 -425012 425012 0 637875 -0.956319 0 634033 77443.1 0 622343 154923 0 602330 232393 0 573175 309632 0 533697 386113 0 482336 460805 0 417179 531873 0 336125 596236 0 237331 648965 0 120316 682572 0 -11776.8 686748 0 -148036 649763 0 -264020 564808 0 -327788 449735 0 -342834 342834 0 582915 2.66132 0 578710 75294.9 0 565932 150377 0 544118 224929 0 512487 298400 0 469964 369841 0 415230 437670 0 346890 499363 0 263849 551066 0 166130 587221 0 56336.4 600562 0 -58007.5 583318 0 -162312 531032 0 -237590 450989 0 -275640 363054 0 -284595 284595 0 532080 6.54934 0 527581 72680.8 0 513938 144885 0 490731 216014 0 457282 285192 0 412718 351074 0 356112 411618 0 286777 463822 0 204839 503501 0 112189 525326 0 13886.7 523616 0 -80670.3 494571 0 -158775 440530 0 -210670 372090 0 -236225 303064 0 -242575 242575 0 485270 10.4672 0 480552 69719.6 0 466273 138699 0 442090 206066 0 407476 270644 0 361843 330759 0 304751 384042 0 236310 427276 0 157825 456409 0 72687 467021 0 -12803.6 455644 0 -89687.3 422174 0 -149133 371941 0 -187069 314519 0 -205654 259001 0 -210444 210444 0 442331 14.2411 0 437466 66520.5 0 422773 132050 0 398010 195464 0 362843 255330 0 317013 309728 0 260605 356118 0 194500 391323 0 120974 411784 0 44329.1 414329 0 -28998 397635 0 -91645.3 363882 0 -138139 319074 0 -167227 270810 0 -181602 225181 0 -185369 185369 0 403067 17.7218 0 398120 63179.7 0 383220 125140 0 358237 184536 0 323054 239736 0 277756 288661 0 222940 328750 0 160142 357069 0 92320.2 370754 0 24115.6 367911 0 -38587.2 348835 0 -90222.2 316812 0 -127586 277444 0 -150804 236601 0 -162363 198547 0 -165447 165447 0 367255 20.8051 0 362285 59778.7 0 347358 118139 0 322468 173554 0 287715 224247 0 243523 268075 0 190938 302569 0 132002 325169 0 70052.3 333768 0 9656.53 327567 0 -44155.3 307912 0 -87336.9 278432 0 -118137 244019 0 -137254 209227 0 -146870 177185 0 -149474 149474 0 334654 23.4282 0 329714 56383.3 0 314915 111183 0 290374 162729 0 256405 209157 0 213737 248330 0 163785 277961 0 108936 295924 0 52655.2 300822 0 -811.751 292698 0 -47320.6 273491 0 -83996.4 246778 0 -109961 216731 0 -126132 186953 0 -134368 159845 0 -136637 136637 0 305022 25.5634 0 300154 53045.4 0 285608 104375 0 261621 152218 0 228701 194669 0 187837 229656 0 140726 255124 0 89950.8 269388 0 38929.8 271660 0 -8531.69 262578 0 -49087.2 244366 0 -80713.9 220369 0 -103057 194138 0 -117078 168595 0 -124339 145669 0 -126390 126390 0 278117 27.2153 0 273353 49803.6 0 259161 97793.2 0 235881 142132 0 204194 180914 0 165299 212175 0 121090 234116 0 74224.9 245458 0 27961.3 245908 0 -14363.6 236498 0 -50072.7 219538 0 -77754.1 198093 0 -97359.7 175200 0 -109824 153309 0 -116440 134046 0 -118386 118386 0 253703 28.4087 0 249071 46685.2 0 235305 91489 0 212842 132540 0 182505 167966 0 145654 195934 0 104301 214899 0 61094.8 223946 0 19065.4 223160 0 -18897.9 213816 0 -50660.9 198202 0 -75249.7 179099 0 -92795.8 159143 0 -104189 140471 0 -110464 124529 0 -112465 112465 0 231558 29.1868 0 227075 43708.4 0 213789 85495.4 0 192215 123483 0 163289 155854 0 128487 180921 0 89877.6 197381 0 50034.4 204626 0 11734.1 203021 0 -22541 193979 0 -51091.8 179704 0 -73266.2 162730 0 -89299.8 145363 0 -100074 129595 0 -106363 116744 0 -108727 108727 0 211473 29.6092 0 207154 40883.6 0 194381 79829.8 0 173735 114975 0 146240 144575 0 113444 167089 0 77422.4 181436 0 40634 187260 0 5595.72 185127 0 -25570 176515 0 -51513.1 163518 0 -71828.9 148460 0 -86817.8 133366 0 -97438.5 120281 0 -104218 110241 0 -107807 107807 0 193251 29.9218 0 189103 38215.4 0 176863 74497.8 0 157160 107014 0 131082 134103 0 100214 154368 0 66601.8 166924 0 32563.7 171618 0 365.011 169154 0 -28186.7 161028 0 -52026.3 149211 0 -70951.6 135851 0 -85322.8 122735 0 -96353.7 112097 0 -104694 104090 0 -111877 111877 0 </DataArray> 
</PointData> 
<Points> 
<DataArray type="Float32" NumberOfComponents="3"> 
0.397 0 0 0.397 0.000733333 0 0.397 0.00146667 0 0.397 0.0022 0 0.397 0.00293333 0 0.397 0.00366667 0 0.397 0.0044 0 0.397 0.00513333 0 0.397 0.00586667 0 0.397 0.0066 0 0.397 0.00733333 0 0.397 0.00806667 0 0.397 0.0088 0 0.397 0.00953333 0 0.397 0.0102667 0 0.397 0.011 0 0.3976 0 0 0.3976 0.000773333 0 0.3976 0.00154667 0 0.3976 0.00232 0 0.3976 0.00309333 0 0.3976 0.00386667 0 0.3976 0.00464 0 0.3976 0.00541333 0 0.3976 0.00618667 0 0.3976 0.00696 0 0.3976 0.00773333 0 0.3976 0.00850667 0 0.3976 0.00928 0 0.3976 0.0100533 0 0.3976 0.0108267 0 0.3976 0.0116 0 0.3982 0 0 0.3982 0.000813333 0 0.3982 0.00162667 0 0.3982 0.00244 0 0.3982 0.00325333 0 0.3982 0.00406667 0 0.3982 0.00488 0 0.3982 0.00569333 0 0.3982 0.00650667 0 0.3982 0.00732 0 0.3982 0.00813333 0 0.3982 0.00894667 0 0.3982 0.00976 0 0.3982 0.0105733 0 0.3982 0.0113867 0 0.3982 0.0122 0 0.3988 0 0 0.3988 0.000853333 0 0.3988 0.00170667 0 0.3988 0.00256 0 0.3988 0.00341333 0 0.3988 0.00426667 0 0.3988 0.00512 0 0.3988 0.00597333 0 0.3988 0.00682667 0 0.3988 0.00768 0 0.3988 0.00853333 0 0.3988 0.00938667 0 0.3988 0.01024 0 0.3988 0.0110933 0 0.3988 0.0119467 0 0.3988 0.0128 0 0.3994 0 0 0.3994 0.000893333 0 0.3994 0.00178667 0 0.3994 0.00268 0 0.3994 0.00357333 0 0.3994 0.00446667 0 0.3994 0.00536 0 0.3994 0.00625333 0 0.3994 0.00714667 0 0.3994 0.00804 0 0.3994 0.00893333 0 0.3994 0.00982667 0 0.3994 0.01072 0 0.3994 0.0116133 0 0.3994 0.0125067 0 0.3994 0.0134 0 0.4 0 0 0.4 0.000933333 0 0.4 0.00186667 0 0.4 0.0028 0 0.4 0.00373333 0 0.4 0.00466667 0 0.4 0.0056 0 0.4 0.00653333 0 0.4 0.00746667 0 0.4 0.0084 0 0.4 0.00933333 0 0.4 0.0102667 0 0.4 0.0112 0 0.4 0.0121333 0 0.4 0.0130667 0 0.4 0.014 0 0.4006 0 0 0.4006 0.000973333 0 0.4006 0.00194667 0 0.4006 0.00292 0 0.4006 0.00389333 0 0.4006 0.00486667 0 0.4006 0.00584 0 0.4006 0.00681333 0 0.4006 0.00778667 0 0.4006 0.00876 0 0.4006 0.00973333 0 0.4006 0.0107067 0 0.4006 0.01168 0 0.4006 0.0126533 0 0.4006 0.0136267 0 0.4006 0.0146 0 0.4012 0 0 0.4012 0.00101333 0 0.4012 0.00202667 0 0.4012 0.00304 0 0.4012 0.00405333 0 0.4012 0.00506667 0 0.4012 0.00608 0 0.4012 0.00709333 0 0.4012 0.00810667 0 0.4012 0.00912 0 0.4012 0.0101333 0 0.4012 0.0111467 0 0.4012 0.01216 0 0.4012 0.0131733 0 0.4012 0.0141867 0 0.4012 0.0152 0 0.4018 0 0 0.4018 0.00105333 0 0.4018 0.00210667 0 0.4018 0.00316 0 0.4018 0.00421333 0 0.4018 0.00526667 0 0.4018 0.00632 0 0.4018 0.00737333 0 0.4018 0.00842667 0 0.4018 0.00948 0 0.4018 0.0105333 0 0.4018 0.0115867 0 0.4018 0.01264 0 0.4018 0.0136933 0 0.4018 0.0147467 0 0.4018 0.0158 0 0.4024 0 0 0.4024 0.00109333 0 0.4024 0.00218667 0 0.4024 0.00328 0 0.4024 0.00437333 0 0.4024 0.00546667 0 0.4024 0.00656 0 0.4024 0.00765333 0 0.4024 0.00874667 0 0.4024 0.00984 0 0.4024 0.0109333 0 0.4024 0.0120267 0 0.4024 0.01312 0 0.4024 0.0142133 0 0.4024 0.0153067 0 0.4024 0.0164 0 0.403 0 0 0.403 0.00113333 0 0.403 0.00226667 0 0.403 0.0034 0 0.403 0.00453333 0 0.403 0.00566667 0 0.403 0.0068 0 0.403 0.00793333 0 0.403 0.00906667 0 0.403 0.0102 0 0.403 0.0113333 0 0.403 0.0124667 0 0.403 0.0136 0 0.403 0.0147333 0 0.403 0.0158667 0 0.403 0.017 0 0.4036 0 0 0.4036 0.00117333 0 0.4036 0.00234667 0 0.4036 0.00352 0 0.4036 0.00469333 0 0.4036 0.00586667 0 0.4036 0.00704 0 0.4036 0.00821333 0 0.4036 0.00938667 0 0.4036 0.01056 0 0.4036 0.0117333 0 0.4036 0.0129067 0 0.4036 0.01408 0 0.4036 0.0152533 0 0.4036 0.0164267 0 0.4036 0.0176 0 0.4042 0 0 0.4042 0.00121333 0 0.4042 0.00242667 0 0.4042 0.00364 0 0.4042 0.00485333 0 0.4042 0.00606667 0 0.4042 0.00728 0 0.4042 0.00849333 0 0.4042 0.00970667 0 0.4042 0.01092 0 0.4042 0.0121333 0 0.4042 0.0133467 0 0.4042 0.01456 0 0.4042 0.0157733 0 0.4042 0.0169867 0 0.4042 0.0182 0 0.4048 0 0 0.4048 0.00125333 0 0.4048 0.00250667 0 0.4048 0.00376 0 0.4048 0.00501333 0 0.4048 0.00626667 0 0.4048 0.00752 0 0.4048 0.00877333 0 0.4048 0.0100267 0 0.4048 0.01128 0 0.4048 0.0125333 0 0.4048 0.0137867 0 0.4048 0.01504 0 0.4048 0.0162933 0 0.4048 0.0175467 0 0.4048 0.0188 0 0.4054 0 0 0.4054 0.00129333 0 0.4054 0.00258667 0 0.4054 0.00388 0 0.4054 0.00517333 0 0.4054 0.00646667 0 0.4054 0.00776 0 0.4054 0.00905333 0 0.4054 0.0103467 0 0.4054 0.01164 0 0.4054 0.0129333 0 0.4054 0.0142267 0 0.4054 0.01552 0 0.4054 0.0168133 0 0.4054 0.0181067 0 0.4054 0.0194 0 0.406 0 0 0.406 0.00133333 0 0.406 0.00266667 0 0.406 0.004 0 0.406 0.00533333 0 0.406 0.00666667 0 0.406 0.008 0 0.406 0.00933333 0 0.406 0.0106667 0 0.406 0.012 0 0.406 0.0133333 0 0.406 0.0146667 0 0.406 0.016 0 0.406 0.0173333 0 0.406 0.0186667 0 0.406 0.02 0 
</DataArray>
</Points> 
</Piece> 
</StructuredGrid> 
</VTKFile> 
