<?xml version="1.0"?> 
<VTKFile type="StructuredGrid" version="0.1"> 
<StructuredGrid WholeExtent="0 15 0 15 0 0"> 
<Piece Extent="0 15 0 15 0 0"> 
<PointData>
<DataArray type="Float32" Name="E" format="ascii" NumberOfComponents="3"> 
1.72422e+06 -7.15256e-07 0 1.72368e+06 -2.75671e-07 0 1.72213e+06 2.08616e-07 0 1.71955e+06 1.63913e-07 0 1.71591e+06 -1.78814e-07 0 1.71116e+06 0 0 1.70525e+06 2.38419e-07 0 1.69811e+06 -1.19209e-07 0 1.68964e+06 0 0 1.67974e+06 -3.57628e-07 0 1.66827e+06 3.57628e-07 0 1.65508e+06 -3.57628e-07 0 1.63998e+06 3.57628e-07 0 1.62276e+06 -2.38419e-07 0 1.60314e+06 3.57628e-07 0 1.58083e+06 -7.15256e-07 0 1.83314e+06 131.605 0 1.83325e+06 -9751.02 0 1.83317e+06 -19688.3 0 1.83292e+06 -29725.4 0 1.83252e+06 -39906 0 1.83197e+06 -50275 0 1.83133e+06 -60877.8 0 1.83063e+06 -71761 0 1.82991e+06 -82972.3 0 1.82924e+06 -94560.7 0 1.82869e+06 -106577 0 1.82836e+06 -119072 0 1.82835e+06 -132100 0 1.8288e+06 -145714 0 1.82987e+06 -159969 0 1.83176e+06 -174923 0 2.00148e+06 -16.4302 0 2.002e+06 -10839.6 0 2.00264e+06 -21661.5 0 2.00341e+06 -32489.3 0 2.00431e+06 -43329.5 0 2.00534e+06 -54187.6 0 2.00651e+06 -65068.4 0 2.00781e+06 -75975.2 0 2.00925e+06 -86910.3 0 2.01081e+06 -97874.5 0 2.01249e+06 -108867 0 2.01428e+06 -119886 0 2.01616e+06 -130928 0 2.01809e+06 -141987 0 2.02003e+06 -153058 0 2.02193e+06 -164135 0 2.14453e+06 11.2994 0 2.14514e+06 -9139.49 0 2.14595e+06 -18270.3 0 2.14694e+06 -27382.3 0 2.14812e+06 -36476.6 0 2.14949e+06 -45554.5 0 2.15105e+06 -54616.7 0 2.15282e+06 -63664 0 2.15478e+06 -72697.1 0 2.15696e+06 -81716.2 0 2.15935e+06 -90721.3 0 2.16196e+06 -99711.6 0 2.16482e+06 -108686 0 2.16794e+06 -117642 0 2.17135e+06 -126575 0 2.17508e+06 -135480 0 2.25259e+06 33.7672 0 2.25319e+06 -6888.13 0 2.254e+06 -13778.2 0 2.25501e+06 -20633.8 0 2.25622e+06 -27452.7 0 2.25763e+06 -34232.1 0 2.25925e+06 -40969.4 0 2.26107e+06 -47661.8 0 2.26309e+06 -54306.7 0 2.26531e+06 -60901.3 0 2.26773e+06 -67443.1 0 2.27035e+06 -73929.7 0 2.27316e+06 -80359.2 0 2.27616e+06 -86730.4 0 2.27934e+06 -93043.1 0 2.28269e+06 -99298.8 0 2.32657e+06 51.824 0 2.32706e+06 -4710.68 0 2.32774e+06 -9438.39 0 2.32859e+06 -14127.2 0 2.32962e+06 -18773.1 0 2.33083e+06 -23372.1 0 2.33222e+06 -27920.2 0 2.33378e+06 -32413.1 0 2.33551e+06 -36846.7 0 2.33742e+06 -41216.5 0 2.33951e+06 -45517.8 0 2.34176e+06 -49745.8 0 2.34419e+06 -53894.9 0 2.3468e+06 -57959.5 0 2.34959e+06 -61933.2 0 2.35256e+06 -65808.2 0 2.373e+06 56.2408 0 2.37336e+06 -2921.54 0 2.37387e+06 -5866.15 0 2.37451e+06 -8772.79 0 2.37529e+06 -11636.7 0 2.37621e+06 -14453.1 0 2.37727e+06 -17217.3 0 2.37846e+06 -19924.3 0 2.37979e+06 -22569.5 0 2.38124e+06 -25148 0 2.38283e+06 -27655.2 0 2.38454e+06 -30086.1 0 2.38638e+06 -32435.9 0 2.38833e+06 -34699.6 0 2.39041e+06 -36871.3 0 2.3926e+06 -38944.5 0 2.39964e+06 43.4286 0 2.39987e+06 -1655.31 0 2.4002e+06 -3328.23 0 2.40062e+06 -4970.04 0 2.40113e+06 -6575.81 0 2.40173e+06 -8140.6 0 2.40242e+06 -9659.53 0 2.4032e+06 -11127.7 0 2.40405e+06 -12540.4 0 2.40499e+06 -13892.6 0 2.406e+06 -15179.7 0 2.4071e+06 -16397.5 0 2.40826e+06 -17542.1 0 2.4095e+06 -18611 0 2.41081e+06 -19604.3 0 2.41219e+06 -20524.9 0 2.414e+06 24.067 0 2.41414e+06 -932.864 0 2.41433e+06 -1873.18 0 2.41457e+06 -2793.14 0 2.41485e+06 -3688.98 0 2.41517e+06 -4556.87 0 2.41554e+06 -5393.01 0 2.41594e+06 -6193.59 0 2.41638e+06 -6954.74 0 2.41685e+06 -7672.4 0 2.41734e+06 -8342.12 0 2.41786e+06 -8958.58 0 2.4184e+06 -9514.77 0 2.41894e+06 -10000.6 0 2.41948e+06 -10399.9 0 2.42e+06 -10689 0 2.42228e+06 8.25613 0 2.42237e+06 -632.458 0 2.42249e+06 -1267.36 0 2.42262e+06 -1894.59 0 2.42278e+06 -2512.98 0 2.42295e+06 -3121.59 0 2.42313e+06 -3719.71 0 2.42333e+06 -4306.86 0 2.42354e+06 -4882.8 0 2.42375e+06 -5447.82 0 2.42397e+06 -6003.1 0 2.42419e+06 -6551.57 0 2.42441e+06 -7099.54 0 2.42465e+06 -7659.33 0 2.4249e+06 -8254.92 0 2.42522e+06 -8925.2 0 2.42785e+06 -0.909036 0 2.42793e+06 -440.008 0 2.42804e+06 -873.863 0 2.42819e+06 -1308.98 0 2.42837e+06 -1751.38 0 2.42857e+06 -2207.2 0 2.42881e+06 -2682.46 0 2.42907e+06 -3182.96 0 2.42934e+06 -3713.92 0 2.42963e+06 -4279.51 0 2.42991e+06 -4881.91 0 2.43018e+06 -5519.87 0 2.43041e+06 -6185.86 0 2.43055e+06 -6861.77 0 2.43055e+06 -7509.75 0 2.43026e+06 -8066.48 0 2.42965e+06 -48.3832 0 2.42969e+06 353.443 0 2.42992e+06 777.631 0 2.43034e+06 1194.86 0 2.43095e+06 1574.72 0 2.43176e+06 1885.27 0 2.43276e+06 2093.51 0 2.43394e+06 2165.6 0 2.43529e+06 2066.89 0 2.43677e+06 1761.91 0 2.43838e+06 1213.92 0 2.44009e+06 383.992 0 2.4419e+06 -770.964 0 2.44384e+06 -2301.62 0 2.44602e+06 -4273.45 0 2.4487e+06 -6772.38 0 2.41376e+06 -201.923 0 2.4135e+06 3932.68 0 2.41395e+06 8186.21 0 2.41511e+06 12474.8 0 2.41702e+06 16713.4 0 2.41967e+06 20813.6 0 2.42309e+06 24686.2 0 2.42727e+06 28241.6 0 2.43223e+06 31391.3 0 2.43795e+06 34048.9 0 2.44443e+06 36130 0 2.45164e+06 37551.6 0 2.45948e+06 38227.7 0 2.46777e+06 38060.5 0 2.47609e+06 36923.7 0 2.48364e+06 34634.6 0 2.34253e+06 -951.099 0 2.3413e+06 14821.9 0 2.34207e+06 31045.5 0 2.34493e+06 47454 0 2.34992e+06 63778.4 0 2.35705e+06 79731.5 0 2.36627e+06 95007.7 0 2.37746e+06 109281 0 2.39047e+06 122206 0 2.40505e+06 133422 0 2.4209e+06 142569 0 2.43769e+06 149313 0 2.4551e+06 153408 0 2.47301e+06 154789 0 2.49179e+06 153765 0 2.51284e+06 151247 0 2.10918e+06 -3479.56 0 2.10434e+06 44157.1 0 2.10498e+06 93095.9 0 2.11134e+06 143205 0 2.12377e+06 194344 0 2.14275e+06 246356 0 2.16889e+06 299039 0 2.20295e+06 352104 0 2.24581e+06 405120 0 2.29848e+06 457424 0 2.36204e+06 507973 0 2.43742e+06 555113 0 2.52513e+06 596184 0 2.62464e+06 626852 0 2.73317e+06 640120 0 2.84373e+06 624446 0 1.54945e+06 -3443.82 0 1.53624e+06 85886.7 0 1.52643e+06 177291 0 1.51991e+06 271663 0 1.51667e+06 370212 0 1.51694e+06 474418 0 1.52118e+06 586152 0 1.53027e+06 707842 0 1.5457e+06 842764 0 1.56988e+06 995497 0 1.60681e+06 1.17271e+06 0 1.66303e+06 1.38446e+06 0 1.7495e+06 1.64657e+06 0 1.88467e+06 1.98441e+06 0 2.09995e+06 2.43961e+06 0 2.44868e+06 3.07721e+06 0 </DataArray> 
</PointData> 
<Points> 
<DataArray type="Float32" NumberOfComponents="3"> 
0.307 0 0 0.307 0.000333333 0 0.307 0.000666667 0 0.307 0.001 0 0.307 0.00133333 0 0.307 0.00166667 0 0.307 0.002 0 0.307 0.00233333 0 0.307 0.00266667 0 0.307 0.003 0 0.307 0.00333333 0 0.307 0.00366667 0 0.307 0.004 0 0.307 0.00433333 0 0.307 0.00466667 0 0.307 0.005 0 0.3126 0 0 0.312608 0.000357358 0 0.312615 0.000714716 0 0.312623 0.00107207 0 0.312631 0.00142943 0 0.312639 0.00178679 0 0.312646 0.00214415 0 0.312654 0.00250151 0 0.312662 0.00285886 0 0.31267 0.00321622 0 0.312677 0.00357358 0 0.312685 0.00393094 0 0.312693 0.0042883 0 0.3127 0.00464565 0 0.312708 0.00500301 0 0.312716 0.00536037 0 0.3182 0 0 0.318215 0.000381383 0 0.318231 0.000762766 0 0.318246 0.00114415 0 0.318262 0.00152553 0 0.318277 0.00190691 0 0.318293 0.0022883 0 0.318308 0.00266968 0 0.318324 0.00305106 0 0.318339 0.00343245 0 0.318354 0.00381383 0 0.31837 0.00419521 0 0.318385 0.00457659 0 0.318401 0.00495798 0 0.318416 0.00533936 0 0.318432 0.00572074 0 0.3238 0 0 0.323823 0.000405408 0 0.323846 0.000810815 0 0.32387 0.00121622 0 0.323893 0.00162163 0 0.323916 0.00202704 0 0.323939 0.00243245 0 0.323962 0.00283785 0 0.323985 0.00324326 0 0.324009 0.00364867 0 0.324032 0.00405408 0 0.324055 0.00445948 0 0.324078 0.00486489 0 0.324101 0.0052703 0 0.324124 0.00567571 0 0.324148 0.00608111 0 0.3294 0 0 0.329431 0.000429432 0 0.329462 0.000858865 0 0.329493 0.0012883 0 0.329524 0.00171773 0 0.329554 0.00214716 0 0.329585 0.00257659 0 0.329616 0.00300603 0 0.329647 0.00343546 0 0.329678 0.00386489 0 0.329709 0.00429432 0 0.32974 0.00472376 0 0.329771 0.00515319 0 0.329802 0.00558262 0 0.329833 0.00601205 0 0.329863 0.00644148 0 0.335 0 0 0.335039 0.000453457 0 0.335077 0.000906914 0 0.335116 0.00136037 0 0.335154 0.00181383 0 0.335193 0.00226729 0 0.335232 0.00272074 0 0.33527 0.0031742 0 0.335309 0.00362766 0 0.335348 0.00408111 0 0.335386 0.00453457 0 0.335425 0.00498803 0 0.335463 0.00544148 0 0.335502 0.00589494 0 0.335541 0.0063484 0 0.335579 0.00680186 0 0.3406 0 0 0.340646 0.000477482 0 0.340693 0.000954964 0 0.340739 0.00143245 0 0.340785 0.00190993 0 0.340832 0.00238741 0 0.340878 0.00286489 0 0.340924 0.00334237 0 0.340971 0.00381985 0 0.341017 0.00429734 0 0.341063 0.00477482 0 0.34111 0.0052523 0 0.341156 0.00572978 0 0.341202 0.00620726 0 0.341249 0.00668474 0 0.341295 0.00716223 0 0.3462 0 0 0.346254 0.000501506 0 0.346308 0.00100301 0 0.346362 0.00150452 0 0.346416 0.00200603 0 0.34647 0.00250753 0 0.346524 0.00300904 0 0.346578 0.00351055 0 0.346633 0.00401205 0 0.346687 0.00451356 0 0.346741 0.00501506 0 0.346795 0.00551657 0 0.346849 0.00601808 0 0.346903 0.00651958 0 0.346957 0.00702109 0 0.347011 0.0075226 0 0.3518 0 0 0.351862 0.000525531 0 0.351924 0.00105106 0 0.351985 0.00157659 0 0.352047 0.00210212 0 0.352109 0.00262766 0 0.352171 0.00315319 0 0.352233 0.00367872 0 0.352294 0.00420425 0 0.352356 0.00472978 0 0.352418 0.00525531 0 0.35248 0.00578084 0 0.352542 0.00630637 0 0.352603 0.00683191 0 0.352665 0.00735744 0 0.352727 0.00788297 0 0.3574 0 0 0.35747 0.000549556 0 0.357539 0.00109911 0 0.357609 0.00164867 0 0.357678 0.00219822 0 0.357748 0.00274778 0 0.357817 0.00329734 0 0.357887 0.00384689 0 0.357956 0.00439645 0 0.358026 0.004946 0 0.358095 0.00549556 0 0.358165 0.00604512 0 0.358234 0.00659467 0 0.358304 0.00714423 0 0.358373 0.00769378 0 0.358443 0.00824334 0 0.363 0 0 0.363077 0.000573581 0 0.363154 0.00114716 0 0.363232 0.00172074 0 0.363309 0.00229432 0 0.363386 0.0028679 0 0.363463 0.00344148 0 0.363541 0.00401506 0 0.363618 0.00458865 0 0.363695 0.00516223 0 0.363772 0.00573581 0 0.36385 0.00630939 0 0.363927 0.00688297 0 0.364004 0.00745655 0 0.364081 0.00803013 0 0.364159 0.00860371 0 0.3686 0 0 0.368685 0.000597605 0 0.36877 0.00119521 0 0.368855 0.00179282 0 0.36894 0.00239042 0 0.369025 0.00298803 0 0.36911 0.00358563 0 0.369195 0.00418324 0 0.36928 0.00478084 0 0.369365 0.00537845 0 0.36945 0.00597605 0 0.369535 0.00657366 0 0.36962 0.00717127 0 0.369705 0.00776887 0 0.36979 0.00836648 0 0.369874 0.00896408 0 0.3742 0 0 0.374293 0.00062163 0 0.374385 0.00124326 0 0.374478 0.00186489 0 0.374571 0.00248652 0 0.374663 0.00310815 0 0.374756 0.00372978 0 0.374849 0.00435141 0 0.374942 0.00497304 0 0.375034 0.00559467 0 0.375127 0.0062163 0 0.37522 0.00683793 0 0.375312 0.00745956 0 0.375405 0.00808119 0 0.375498 0.00870282 0 0.37559 0.00932445 0 0.3798 0 0 0.3799 0.000645655 0 0.380001 0.00129131 0 0.380101 0.00193696 0 0.380202 0.00258262 0 0.380302 0.00322827 0 0.380402 0.00387393 0 0.380503 0.00451958 0 0.380603 0.00516524 0 0.380704 0.00581089 0 0.380804 0.00645655 0 0.380905 0.0071022 0 0.381005 0.00774786 0 0.381105 0.00839351 0 0.381206 0.00903917 0 0.381306 0.00968482 0 0.3854 0 0 0.385508 0.00066968 0 0.385616 0.00133936 0 0.385724 0.00200904 0 0.385833 0.00267872 0 0.385941 0.0033484 0 0.386049 0.00401808 0 0.386157 0.00468776 0 0.386265 0.00535744 0 0.386373 0.00602712 0 0.386481 0.0066968 0 0.38659 0.00736648 0 0.386698 0.00803616 0 0.386806 0.00870584 0 0.386914 0.00937552 0 0.387022 0.0100452 0 0.391 0 0 0.391116 0.000693704 0 0.391232 0.00138741 0 0.391348 0.00208111 0 0.391463 0.00277482 0 0.391579 0.00346852 0 0.391695 0.00416223 0 0.391811 0.00485593 0 0.391927 0.00554964 0 0.392043 0.00624334 0 0.392159 0.00693704 0 0.392274 0.00763075 0 0.39239 0.00832445 0 0.392506 0.00901816 0 0.392622 0.00971186 0 0.392738 0.0104056 0 
</DataArray>
</Points> 
</Piece> 
</StructuredGrid> 
</VTKFile> 
