<?xml version="1.0"?> 
<VTKFile type="StructuredGrid" version="0.1"> 
<StructuredGrid WholeExtent="0 15 0 15 0 0"> 
<Piece Extent="0 15 0 15 0 0"> 
<PointData>
<DataArray type="Float32" Name="E" format="ascii" NumberOfComponents="3"> 
0 -507498 0 167683 -501077 0 324021 -419362 0 425743 -310449 0 481806 -201909 0 503969 -103096 0 501472 -16950.7 0 480547 56597 0 445501 118396 0 399427 169533 0 344701 211029 0 283243 243780 0 216678 268524 0 146433 285837 0 73803.3 296134 0 0 299667 0 0 -461353 0 154459 -446772 0 295004 -379930 0 393036 -286220 0 450450 -189650 0 475929 -99758.6 0 477198 -20281.1 0 459945 48155.1 0 428297 105970 0 385313 153967 0 333392 192999 0 274493 223848 0 210290 247176 0 142257 263508 0 71740.4 273225 0 0 276559 0 0 -415720 0 142416 -399280 0 270610 -342876 0 364371 -262296 0 422259 -176657 0 450283 -95361.4 0 454754 -22492.6 0 440770 40782.7 0 412215 94528.8 0 372086 139301 0 322776 175789 0 266271 204669 0 204282 226528 0 138329 241841 0 69799 250954 0 0 254083 0 0 -372340 0 131693 -356460 0 249851 -308244 0 339295 -238840 0 397038 -163198 0 426966 -90096.7 0 434138 -23732.2 0 423038 34371.6 0 397284 83989.9 0 359772 125465 0 312875 159341 0 258594 186192 0 198669 206534 0 134656 220794 0 67983.7 229283 0 0 232198 0 0 -331639 0 122269 -317207 0 232092 -275808 0 317415 -215981 0 374590 -149461 0 405907 -84136.3 0 415334 -24132.9 0 406760 28817.3 0 383519 74270.1 0 348390 112392 0 303708 143598 0 251478 168367 0 193462 187150 0 131248 200324 0 66298.7 208170 0 0 210865 0 0 -293567 0 114069 -280832 0 216865 -245297 0 298379 -193780 0 354726 -135587 0 387026 -77625.2 0 398318 -23815.9 0 391939 24020.9 0 370936 65288.6 0 337958 100013 0 295292 128499 0 244938 151141 0 188673 168327 0 128112 180387 0 64747.7 187573 0 0 190041 0 0 -257892 0 106991 -246850 0 203821 -216457 0 281890 -172249 0 337271 -121676 0 370238 -70683.4 0 383060 -22890.2 0 378571 19889.3 0 359543 56966.3 0 328488 88261.7 0 287640 113987 0 238985 134462 0 184312 150016 0 125254 160938 0 63334.2 167448 0 0 169684 0 0 -224327 0 100932 -214883 0 192693 -189055 0 267698 -151362 0 322066 -107798 0 355461 -63409.1 0 369525 -21452.7 0 366650 16335.3 0 349346 49226.9 0 319992 77070.1 0 280764 100002 0 233630 118276 0 180386 132170 0 122681 141931 0 62061.1 147751 0 0 149751 0 0 -192581 0 95797.6 -184614 0 183272 -162887 0 255595 -131073 0 308967 -93996.1 0 342617 -55881.5 0 357680 -19589.3 0 356165 13277.6 0 340348 41997 0 312479 66372.6 0 274674 86483.6 0 228884 102529 0 176903 114738 0 120398 123319 0 60931.2 128437 0 0 130195 0 0 -162373 0 91503.5 -155766 0 175391 -137764 0 245409 -111321 0 297851 -80294.8 0 331633 -48163.6 0 347489 -17375.5 0 347106 10640.8 0 332549 35205.6 0 305954 56104.1 0 269379 73373.7 0 224752 87166.6 0 173871 97668.6 0 118409 105054 0 59946.7 109459 0 0 110973 0 0 -133445 0 87979.6 -128094 0 168917 -113514 0 237001 -92038.2 0 288612 -66702.3 0 322445 -40305.1 0 338920 -14877.9 0 339459 8354.41 0 325950 28784.6 0 300423 46201.1 0 264884 60613.1 0 221243 72134.2 0 171293 80911.7 0 116718 87086.4 0 59109.6 90770.6 0 0 92036.9 0 0 -105554 0 85168.2 -101373 0 163746 -89977.2 0 230258 -73151 0 281163 -53215.4 0 314998 -32344.8 0 331944 -12155.6 0 333214 6352.65 0 320548 22668.2 0 295889 36600.6 0 261196 48142.8 0 218362 57376.9 0 169176 64415.5 0 115328 69368.6 0 58421.7 72324.5 0 0 73340.6 0 0 -78472.9 0 83023.6 -75394.5 0 159797 -67000.4 0 225093 -54582.6 0 275431 -39822.2 0 309243 -24313 0 326536 -9260.88 0 328360 4573.76 0 316342 16792.7 0 292353 27240.8 0 258318 35904.5 0 216112 42839.8 0 167523 48128.4 0 114243 51850.9 0 57884.2 54072.8 0 0 54836.6 0 0 -51988.5 0 81511.1 -49963.3 0 157009 -44438.6 0 221438 -36254.4 0 271363 -26504.1 0 305146 -16233 0 322675 -6241.36 0 324889 2959.15 0 313330 11096.3 0 289819 18061 0 256253 23839.9 0 214497 28468 0 166335 31998.3 0 113463 34483.6 0 57498.2 35967.2 0 0 36477.2 0 0 -25896.8 0 80606.5 -24892.2 0 155340 -22151 0 219247 -18086.9 0 268919 -13238.6 0 302680 -8123.48 0 320347 -3140.67 0 322792 1452.71 0 311509 5518.58 0 288286 9000.62 0 255004 11891 0 213520 14206.4 0 165617 15972.9 0 112992 17216.7 0 57264.6 17959.1 0 0 18214.4 0 0 0 0 80295.1 0 0 154766 0 0 218492 0 0 268076 0 0 301829 0 0 319543 0 0 322067 0 0 310878 0 0 287755 0 0 254572 0 0 213182 0 0 165368 0 0 112828 0 0 57183.6 0 0 0 0 0 </DataArray> 
</PointData> 
<Points> 
<DataArray type="Float32" NumberOfComponents="3"> 
0.416 0.03 0 0.416 0.0365333 0 0.416 0.0430667 0 0.416 0.0496 0 0.416 0.0561333 0 0.416 0.0626667 0 0.416 0.0692 0 0.416 0.0757333 0 0.416 0.0822667 0 0.416 0.0888 0 0.416 0.0953333 0 0.416 0.101867 0 0.416 0.1084 0 0.416 0.114933 0 0.416 0.121467 0 0.416 0.128 0 0.418067 0.03 0 0.418067 0.0365333 0 0.418067 0.0430667 0 0.418067 0.0496 0 0.418067 0.0561333 0 0.418067 0.0626667 0 0.418067 0.0692 0 0.418067 0.0757333 0 0.418067 0.0822667 0 0.418067 0.0888 0 0.418067 0.0953333 0 0.418067 0.101867 0 0.418067 0.1084 0 0.418067 0.114933 0 0.418067 0.121467 0 0.418067 0.128 0 0.420133 0.03 0 0.420133 0.0365333 0 0.420133 0.0430667 0 0.420133 0.0496 0 0.420133 0.0561333 0 0.420133 0.0626667 0 0.420133 0.0692 0 0.420133 0.0757333 0 0.420133 0.0822667 0 0.420133 0.0888 0 0.420133 0.0953333 0 0.420133 0.101867 0 0.420133 0.1084 0 0.420133 0.114933 0 0.420133 0.121467 0 0.420133 0.128 0 0.4222 0.03 0 0.4222 0.0365333 0 0.4222 0.0430667 0 0.4222 0.0496 0 0.4222 0.0561333 0 0.4222 0.0626667 0 0.4222 0.0692 0 0.4222 0.0757333 0 0.4222 0.0822667 0 0.4222 0.0888 0 0.4222 0.0953333 0 0.4222 0.101867 0 0.4222 0.1084 0 0.4222 0.114933 0 0.4222 0.121467 0 0.4222 0.128 0 0.424267 0.03 0 0.424267 0.0365333 0 0.424267 0.0430667 0 0.424267 0.0496 0 0.424267 0.0561333 0 0.424267 0.0626667 0 0.424267 0.0692 0 0.424267 0.0757333 0 0.424267 0.0822667 0 0.424267 0.0888 0 0.424267 0.0953333 0 0.424267 0.101867 0 0.424267 0.1084 0 0.424267 0.114933 0 0.424267 0.121467 0 0.424267 0.128 0 0.426333 0.03 0 0.426333 0.0365333 0 0.426333 0.0430667 0 0.426333 0.0496 0 0.426333 0.0561333 0 0.426333 0.0626667 0 0.426333 0.0692 0 0.426333 0.0757333 0 0.426333 0.0822667 0 0.426333 0.0888 0 0.426333 0.0953333 0 0.426333 0.101867 0 0.426333 0.1084 0 0.426333 0.114933 0 0.426333 0.121467 0 0.426333 0.128 0 0.4284 0.03 0 0.4284 0.0365333 0 0.4284 0.0430667 0 0.4284 0.0496 0 0.4284 0.0561333 0 0.4284 0.0626667 0 0.4284 0.0692 0 0.4284 0.0757333 0 0.4284 0.0822667 0 0.4284 0.0888 0 0.4284 0.0953333 0 0.4284 0.101867 0 0.4284 0.1084 0 0.4284 0.114933 0 0.4284 0.121467 0 0.4284 0.128 0 0.430467 0.03 0 0.430467 0.0365333 0 0.430467 0.0430667 0 0.430467 0.0496 0 0.430467 0.0561333 0 0.430467 0.0626667 0 0.430467 0.0692 0 0.430467 0.0757333 0 0.430467 0.0822667 0 0.430467 0.0888 0 0.430467 0.0953333 0 0.430467 0.101867 0 0.430467 0.1084 0 0.430467 0.114933 0 0.430467 0.121467 0 0.430467 0.128 0 0.432533 0.03 0 0.432533 0.0365333 0 0.432533 0.0430667 0 0.432533 0.0496 0 0.432533 0.0561333 0 0.432533 0.0626667 0 0.432533 0.0692 0 0.432533 0.0757333 0 0.432533 0.0822667 0 0.432533 0.0888 0 0.432533 0.0953333 0 0.432533 0.101867 0 0.432533 0.1084 0 0.432533 0.114933 0 0.432533 0.121467 0 0.432533 0.128 0 0.4346 0.03 0 0.4346 0.0365333 0 0.4346 0.0430667 0 0.4346 0.0496 0 0.4346 0.0561333 0 0.4346 0.0626667 0 0.4346 0.0692 0 0.4346 0.0757333 0 0.4346 0.0822667 0 0.4346 0.0888 0 0.4346 0.0953333 0 0.4346 0.101867 0 0.4346 0.1084 0 0.4346 0.114933 0 0.4346 0.121467 0 0.4346 0.128 0 0.436667 0.03 0 0.436667 0.0365333 0 0.436667 0.0430667 0 0.436667 0.0496 0 0.436667 0.0561333 0 0.436667 0.0626667 0 0.436667 0.0692 0 0.436667 0.0757333 0 0.436667 0.0822667 0 0.436667 0.0888 0 0.436667 0.0953333 0 0.436667 0.101867 0 0.436667 0.1084 0 0.436667 0.114933 0 0.436667 0.121467 0 0.436667 0.128 0 0.438733 0.03 0 0.438733 0.0365333 0 0.438733 0.0430667 0 0.438733 0.0496 0 0.438733 0.0561333 0 0.438733 0.0626667 0 0.438733 0.0692 0 0.438733 0.0757333 0 0.438733 0.0822667 0 0.438733 0.0888 0 0.438733 0.0953333 0 0.438733 0.101867 0 0.438733 0.1084 0 0.438733 0.114933 0 0.438733 0.121467 0 0.438733 0.128 0 0.4408 0.03 0 0.4408 0.0365333 0 0.4408 0.0430667 0 0.4408 0.0496 0 0.4408 0.0561333 0 0.4408 0.0626667 0 0.4408 0.0692 0 0.4408 0.0757333 0 0.4408 0.0822667 0 0.4408 0.0888 0 0.4408 0.0953333 0 0.4408 0.101867 0 0.4408 0.1084 0 0.4408 0.114933 0 0.4408 0.121467 0 0.4408 0.128 0 0.442867 0.03 0 0.442867 0.0365333 0 0.442867 0.0430667 0 0.442867 0.0496 0 0.442867 0.0561333 0 0.442867 0.0626667 0 0.442867 0.0692 0 0.442867 0.0757333 0 0.442867 0.0822667 0 0.442867 0.0888 0 0.442867 0.0953333 0 0.442867 0.101867 0 0.442867 0.1084 0 0.442867 0.114933 0 0.442867 0.121467 0 0.442867 0.128 0 0.444933 0.03 0 0.444933 0.0365333 0 0.444933 0.0430667 0 0.444933 0.0496 0 0.444933 0.0561333 0 0.444933 0.0626667 0 0.444933 0.0692 0 0.444933 0.0757333 0 0.444933 0.0822667 0 0.444933 0.0888 0 0.444933 0.0953333 0 0.444933 0.101867 0 0.444933 0.1084 0 0.444933 0.114933 0 0.444933 0.121467 0 0.444933 0.128 0 0.447 0.03 0 0.447 0.0365333 0 0.447 0.0430667 0 0.447 0.0496 0 0.447 0.0561333 0 0.447 0.0626667 0 0.447 0.0692 0 0.447 0.0757333 0 0.447 0.0822667 0 0.447 0.0888 0 0.447 0.0953333 0 0.447 0.101867 0 0.447 0.1084 0 0.447 0.114933 0 0.447 0.121467 0 0.447 0.128 0 
</DataArray>
</Points> 
</Piece> 
</StructuredGrid> 
</VTKFile> 
