<?xml version="1.0"?> 
<VTKFile type="StructuredGrid" version="0.1"> 
<StructuredGrid WholeExtent="0 15 0 15 0 0"> 
<Piece Extent="0 15 0 15 0 0"> 
<PointData>
<DataArray type="Float32" Name="E" format="ascii" NumberOfComponents="3"> 
-519510 0 0 -483057 0 0 -447856 0 0 -413289 0 0 -378974 0 0 -344734 0 0 -310487 0 0 -276197 0 0 -241848 0 0 -207437 0 0 -172966 0 0 -138442 0 0 -103873 0 0 -69268.5 0 0 -34640.3 0 0 0 0 0 -510635 7307.09 0 -475122 7027.5 0 -440675 6878.68 0 -406736 6816.47 0 -372992 6795.12 0 -339300 6793.09 0 -305593 6799.99 0 -271839 6810.73 0 -238028 6822.78 0 -204157 6834.74 0 -170229 6845.78 0 -136249 6855.37 0 -102226 6863.16 0 -68169.9 6868.89 0 -34090.8 6872.43 0 0 6873.66 0 -501796 14445.2 0 -467213 13960.3 0 -433504 13717.5 0 -400186 13618.5 0 -367012 13586.7 0 -333867 13587.2 0 -300699 13602.6 0 -267484 13624.5 0 -234211 13648.3 0 -200880 13671.8 0 -167494 13693.3 0 -134058 13711.9 0 -100581 13727 0 -67072.3 13738.2 0 -33541.7 13745 0 0 13747.4 0 -493012 21429.8 0 -459338 20815.9 0 -426347 20524.9 0 -393641 20409.4 0 -361033 20376.1 0 -328435 20382.8 0 -295807 20408.1 0 -263129 20441.2 0 -230395 20476.6 0 -197604 20511.1 0 -164760 20542.6 0 -131868 20569.7 0 -98937.2 20591.7 0 -65975.5 20607.9 0 -32993 20617.9 0 0 20621.3 0 -484304 28283.5 0 -451504 27611.9 0 -419207 27308.7 0 -387103 27192.2 0 -355057 27164.5 0 -323006 27180.4 0 -290917 27216.5 0 -258777 27261.1 0 -226581 27307.8 0 -194330 27352.7 0 -162028 27393.6 0 -129680 27428.9 0 -97294.3 27457.3 0 -64879.5 27478.2 0 -32444.8 27491.1 0 0 27495.5 0 -475687 35033.7 0 -443715 34364.9 0 -412085 34075.9 0 -380572 33969.8 0 -349085 33953.1 0 -317578 33980.3 0 -286028 34028 0 -254426 34084.1 0 -222769 34141.7 0 -191058 34196.8 0 -159297 34246.6 0 -127493 34289.4 0 -95652.5 34323.8 0 -63784.2 34349.1 0 -31896.9 34364.7 0 0 34370.1 0 -467168 41710.4 0 -435971 41089.6 0 -404981 40832.2 0 -374049 40744.8 0 -343116 40743 0 -312152 40783.1 0 -281141 40843 0 -250076 40910.4 0 -218958 40978.6 0 -187787 41043.2 0 -156568 41101.4 0 -125307 41151.3 0 -94011.7 41191.4 0 -62689.6 41220.8 0 -31349.4 41238.9 0 0 41245.2 0 -458745 48341.7 0 -428268 47797.9 0 -397895 47582.8 0 -367533 47519.6 0 -337151 47535.1 0 -306728 47589.3 0 -276255 47661.4 0 -245728 47740.1 0 -215148 47818.4 0 -184517 47892.1 0 -153840 47958.2 0 -123123 48014.7 0 -92371.9 48060 0 -61595.8 48093.3 0 -30802.3 48113.7 0 0 48120.8 0 -450409 54951.4 0 -420603 54499.4 0 -390825 54331.7 0 -361026 54296 0 -331190 54330.3 0 -301307 54399.1 0 -271371 54483.6 0 -241382 54573.2 0 -211340 54661.2 0 -181249 54743.5 0 -151113 54817 0 -120939 54879.6 0 -90733 54929.9 0 -60502.5 54966.6 0 -30255.5 54989.2 0 0 54997 0 -442146 61557.5 0 -412970 61201.2 0 -383770 61082.5 0 -354525 61075.6 0 -325233 61129.4 0 -295888 61212.9 0 -266489 61309.7 0 -237037 61409.8 0 -207534 61507.1 0 -177982 61597.5 0 -148388 61677.9 0 -118757 61746.3 0 -89094.9 61801 0 -59409.8 61841 0 -29708.9 61865.5 0 0 61874.1 0 -433943 68172.3 0 -405364 67908.4 0 -376727 67837.7 0 -348031 67859.8 0 -319279 67933.1 0 -290471 68031.1 0 -261609 68139.8 0 -232694 68250.1 0 -203728 68356.2 0 -174717 68454.1 0 -145664 68540.9 0 -116575 68614.6 0 -87457.7 68673.5 0 -58317.7 68716.5 0 -29162.7 68742.8 0 0 68752 0 -425787 74803.6 0 -397780 74624.6 0 -369696 74599.3 0 -341542 74649.5 0 -313328 74741.8 0 -285057 74854 0 -256730 74974.1 0 -228352 75094.1 0 -199924 75208.4 0 -171452 75313.4 0 -142941 75406.1 0 -114395 75484.7 0 -85821.1 75547.4 0 -57226.1 75593.1 0 -28616.7 75621.1 0 0 75630.8 0 -417668 81455.6 0 -390214 81352.1 0 -362673 81368.7 0 -335058 81445.6 0 -307380 81555.9 0 -279644 81681.8 0 -251853 81812.9 0 -224011 81941.9 0 -196122 82063.9 0 -168189 82175.4 0 -140218 82273.7 0 -112215 82356.6 0 -84185.3 82422.8 0 -56135 82471 0 -28071 82500.5 0 0 82510.8 0 -409575 88130.2 0 -382662 88092.3 0 -355659 88147.1 0 -328578 88248.7 0 -301434 88375.9 0 -274232 88514.7 0 -246977 88656.1 0 -219671 88793.6 0 -192320 88922.8 0 -164927 89040.3 0 -137497 89143.5 0 -110036 89230.5 0 -82550.1 89299.8 0 -55044.4 89350.2 0 -27525.5 89381.1 0 0 89391.9 0 -401501 94827.3 0 -375122 94845.9 0 -348650 94935.2 0 -322102 95059 0 -295491 95202.1 0 -268823 95353 0 -242102 95503.9 0 -215333 95649.3 0 -188519 95785.1 0 -161665 95908 0 -134777 96015.8 0 -107858 96106.4 0 -80915.4 96178.5 0 -53954.1 96231 0 -26980.3 96263 0 0 96274.2 0 -393434 101544 0 -367591 101615 0 -341645 101733 0 -315628 101877 0 -289549 102035 0 -263414 102197 0 -237228 102356 0 -210995 102509 0 -184719 102651 0 -158405 102779 0 -132057 102891 0 -105681 102984 0 -79281.3 103059 0 -52864.2 103113 0 -26435.2 103146 0 0 103158 0 </DataArray> 
</PointData> 
<Points> 
<DataArray type="Float32" NumberOfComponents="3"> 
0 0.065 0 0 0.0692 0 0 0.0734 0 0 0.0776 0 0 0.0818 0 0 0.086 0 0 0.0902 0 0 0.0944 0 0 0.0986 0 0 0.1028 0 0 0.107 0 0 0.1112 0 0 0.1154 0 0 0.1196 0 0 0.1238 0 0 0.128 0 0.000833333 0.066 0 0.000833333 0.0701333 0 0.000833333 0.0742667 0 0.000833333 0.0784 0 0.000833333 0.0825333 0 0.000833333 0.0866667 0 0.000833333 0.0908 0 0.000833333 0.0949333 0 0.000833333 0.0990667 0 0.000833333 0.1032 0 0.000833333 0.107333 0 0.000833333 0.111467 0 0.000833333 0.1156 0 0.000833333 0.119733 0 0.000833333 0.123867 0 0.000833333 0.128 0 0.00166667 0.067 0 0.00166667 0.0710667 0 0.00166667 0.0751333 0 0.00166667 0.0792 0 0.00166667 0.0832667 0 0.00166667 0.0873333 0 0.00166667 0.0914 0 0.00166667 0.0954667 0 0.00166667 0.0995333 0 0.00166667 0.1036 0 0.00166667 0.107667 0 0.00166667 0.111733 0 0.00166667 0.1158 0 0.00166667 0.119867 0 0.00166667 0.123933 0 0.00166667 0.128 0 0.0025 0.068 0 0.0025 0.072 0 0.0025 0.076 0 0.0025 0.08 0 0.0025 0.084 0 0.0025 0.088 0 0.0025 0.092 0 0.0025 0.096 0 0.0025 0.1 0 0.0025 0.104 0 0.0025 0.108 0 0.0025 0.112 0 0.0025 0.116 0 0.0025 0.12 0 0.0025 0.124 0 0.0025 0.128 0 0.00333333 0.069 0 0.00333333 0.0729333 0 0.00333333 0.0768667 0 0.00333333 0.0808 0 0.00333333 0.0847333 0 0.00333333 0.0886667 0 0.00333333 0.0926 0 0.00333333 0.0965333 0 0.00333333 0.100467 0 0.00333333 0.1044 0 0.00333333 0.108333 0 0.00333333 0.112267 0 0.00333333 0.1162 0 0.00333333 0.120133 0 0.00333333 0.124067 0 0.00333333 0.128 0 0.00416667 0.07 0 0.00416667 0.0738667 0 0.00416667 0.0777333 0 0.00416667 0.0816 0 0.00416667 0.0854667 0 0.00416667 0.0893333 0 0.00416667 0.0932 0 0.00416667 0.0970667 0 0.00416667 0.100933 0 0.00416667 0.1048 0 0.00416667 0.108667 0 0.00416667 0.112533 0 0.00416667 0.1164 0 0.00416667 0.120267 0 0.00416667 0.124133 0 0.00416667 0.128 0 0.005 0.071 0 0.005 0.0748 0 0.005 0.0786 0 0.005 0.0824 0 0.005 0.0862 0 0.005 0.09 0 0.005 0.0938 0 0.005 0.0976 0 0.005 0.1014 0 0.005 0.1052 0 0.005 0.109 0 0.005 0.1128 0 0.005 0.1166 0 0.005 0.1204 0 0.005 0.1242 0 0.005 0.128 0 0.00583333 0.072 0 0.00583333 0.0757333 0 0.00583333 0.0794667 0 0.00583333 0.0832 0 0.00583333 0.0869333 0 0.00583333 0.0906667 0 0.00583333 0.0944 0 0.00583333 0.0981333 0 0.00583333 0.101867 0 0.00583333 0.1056 0 0.00583333 0.109333 0 0.00583333 0.113067 0 0.00583333 0.1168 0 0.00583333 0.120533 0 0.00583333 0.124267 0 0.00583333 0.128 0 0.00666667 0.073 0 0.00666667 0.0766667 0 0.00666667 0.0803333 0 0.00666667 0.084 0 0.00666667 0.0876667 0 0.00666667 0.0913333 0 0.00666667 0.095 0 0.00666667 0.0986667 0 0.00666667 0.102333 0 0.00666667 0.106 0 0.00666667 0.109667 0 0.00666667 0.113333 0 0.00666667 0.117 0 0.00666667 0.120667 0 0.00666667 0.124333 0 0.00666667 0.128 0 0.0075 0.074 0 0.0075 0.0776 0 0.0075 0.0812 0 0.0075 0.0848 0 0.0075 0.0884 0 0.0075 0.092 0 0.0075 0.0956 0 0.0075 0.0992 0 0.0075 0.1028 0 0.0075 0.1064 0 0.0075 0.11 0 0.0075 0.1136 0 0.0075 0.1172 0 0.0075 0.1208 0 0.0075 0.1244 0 0.0075 0.128 0 0.00833333 0.075 0 0.00833333 0.0785333 0 0.00833333 0.0820667 0 0.00833333 0.0856 0 0.00833333 0.0891333 0 0.00833333 0.0926667 0 0.00833333 0.0962 0 0.00833333 0.0997333 0 0.00833333 0.103267 0 0.00833333 0.1068 0 0.00833333 0.110333 0 0.00833333 0.113867 0 0.00833333 0.1174 0 0.00833333 0.120933 0 0.00833333 0.124467 0 0.00833333 0.128 0 0.00916667 0.076 0 0.00916667 0.0794667 0 0.00916667 0.0829333 0 0.00916667 0.0864 0 0.00916667 0.0898667 0 0.00916667 0.0933333 0 0.00916667 0.0968 0 0.00916667 0.100267 0 0.00916667 0.103733 0 0.00916667 0.1072 0 0.00916667 0.110667 0 0.00916667 0.114133 0 0.00916667 0.1176 0 0.00916667 0.121067 0 0.00916667 0.124533 0 0.00916667 0.128 0 0.01 0.077 0 0.01 0.0804 0 0.01 0.0838 0 0.01 0.0872 0 0.01 0.0906 0 0.01 0.094 0 0.01 0.0974 0 0.01 0.1008 0 0.01 0.1042 0 0.01 0.1076 0 0.01 0.111 0 0.01 0.1144 0 0.01 0.1178 0 0.01 0.1212 0 0.01 0.1246 0 0.01 0.128 0 0.0108333 0.078 0 0.0108333 0.0813333 0 0.0108333 0.0846667 0 0.0108333 0.088 0 0.0108333 0.0913333 0 0.0108333 0.0946667 0 0.0108333 0.098 0 0.0108333 0.101333 0 0.0108333 0.104667 0 0.0108333 0.108 0 0.0108333 0.111333 0 0.0108333 0.114667 0 0.0108333 0.118 0 0.0108333 0.121333 0 0.0108333 0.124667 0 0.0108333 0.128 0 0.0116667 0.079 0 0.0116667 0.0822667 0 0.0116667 0.0855333 0 0.0116667 0.0888 0 0.0116667 0.0920667 0 0.0116667 0.0953333 0 0.0116667 0.0986 0 0.0116667 0.101867 0 0.0116667 0.105133 0 0.0116667 0.1084 0 0.0116667 0.111667 0 0.0116667 0.114933 0 0.0116667 0.1182 0 0.0116667 0.121467 0 0.0116667 0.124733 0 0.0116667 0.128 0 0.0125 0.08 0 0.0125 0.0832 0 0.0125 0.0864 0 0.0125 0.0896 0 0.0125 0.0928 0 0.0125 0.096 0 0.0125 0.0992 0 0.0125 0.1024 0 0.0125 0.1056 0 0.0125 0.1088 0 0.0125 0.112 0 0.0125 0.1152 0 0.0125 0.1184 0 0.0125 0.1216 0 0.0125 0.1248 0 0.0125 0.128 0 
</DataArray>
</Points> 
</Piece> 
</StructuredGrid> 
</VTKFile> 
