<?xml version="1.0"?> 
<VTKFile type="StructuredGrid" version="0.1"> 
<StructuredGrid WholeExtent="0 15 0 15 0 0"> 
<Piece Extent="0 15 0 15 0 0"> 
<PointData>
<DataArray type="Float32" Name="E" format="ascii" NumberOfComponents="3"> 
-697173 0.000190623 0 -697144 1434.28 0 -697057 2868.54 0 -696913 4302.78 0 -696710 5736.98 0 -696450 7171.12 0 -696131 8605.19 0 -695755 10039.2 0 -695320 11473 0 -694826 12906.7 0 -694274 14340.3 0 -693663 15773.7 0 -692992 17207 0 -692263 18640.4 0 -691474 20074.2 0 -690627 21510.7 0 -708772 -0.00270635 0 -708743 1839.25 0 -708657 3678.67 0 -708514 5518.43 0 -708314 7358.71 0 -708056 9199.66 0 -707740 11041.4 0 -707367 12884.2 0 -706936 14728.1 0 -706446 16573.3 0 -705899 18419.9 0 -705292 20268.1 0 -704627 22117.9 0 -703902 23969.5 0 -703118 25822.8 0 -702273 27677.8 0 -723184 -0.00638539 0 -723156 2235.56 0 -723073 4471.54 0 -722935 6708.34 0 -722742 8946.34 0 -722493 11185.9 0 -722188 13427.5 0 -721827 15671.4 0 -721410 17918 0 -720937 20167.7 0 -720407 22420.7 0 -719820 24677.5 0 -719176 26938.2 0 -718474 29203.2 0 -717714 31472.8 0 -716895 33747.3 0 -740306 -0.0115725 0 -740280 2611.57 0 -740203 5223.88 0 -740075 7837.68 0 -739895 10453.7 0 -739663 13072.5 0 -739380 15695 0 -739044 18321.7 0 -738656 20953.3 0 -738214 23590.4 0 -737719 26233.6 0 -737170 28883.6 0 -736567 31540.8 0 -735908 34205.7 0 -735194 36878.9 0 -734423 39560.6 0 -759936 -0.0194295 0 -759914 2950.75 0 -759847 5902.77 0 -759736 8857.28 0 -759580 11815.5 0 -759378 14778.5 0 -759132 17747.5 0 -758839 20723.7 0 -758499 23708.1 0 -758113 26701.8 0 -757678 29705.8 0 -757195 32721.1 0 -756663 35748.7 0 -756080 38789.4 0 -755446 41844 0 -754759 44913.5 0 -781731 -0.031745 0 -781714 3228.14 0 -781665 6458.35 0 -781581 9692.63 0 -781464 12932.9 0 -781313 16181.1 0 -781126 19439.1 0 -780904 22708.7 0 -780646 25991.7 0 -780350 29289.8 0 -780015 32604.7 0 -779640 35938 0 -779224 39291 0 -778766 42665.3 0 -778264 46062 0 -777715 49482.3 0 -805123 -0.0516803 0 -805116 3404.42 0 -805093 6812.22 0 -805056 10226.6 0 -805002 13650.8 0 -804932 17087.9 0 -804844 20540.9 0 -804737 24012.9 0 -804610 27506.8 0 -804462 31025.3 0 -804289 34571.2 0 -804090 38147 0 -803864 41755.1 0 -803607 45397.7 0 -803317 49076.8 0 -802992 52794.9 0 -829194 -0.0834888 0 -829201 3416.3 0 -829223 6838.05 0 -829259 10270.5 0 -829309 13718.7 0 -829370 17187.7 0 -829441 20682.5 0 -829521 24208 0 -829608 27768.8 0 -829698 31369.5 0 -829788 35014.6 0 -829877 38708.4 0 -829960 42454.9 0 -830033 46258.2 0 -830094 50121.9 0 -830139 54048.8 0 -852460 -0.135442 0 -852491 3162.4 0 -852585 6333.63 0 -852741 9522.2 0 -852956 12736.3 0 -853229 15984.2 0 -853558 19273.9 0 -853939 22613 0 -854368 26009.2 0 -854840 29469.6 0 -855351 33000.9 0 -855896 36609.5 0 -856468 40301.1 0 -857061 44081 0 -857668 47953.8 0 -858282 51926 0 -872532 -0.218312 0 -872602 2477.21 0 -872812 4968.66 0 -873161 7488.1 0 -873646 10048.9 0 -874265 12664.5 0 -875013 15348.1 0 -875885 18112.8 0 -876876 20971.3 0 -877979 23936.3 0 -879187 27020 0 -880490 30234.3 0 -881880 33590.9 0 -883344 37100.6 0 -884870 40773.4 0 -886442 44614.4 0 -885571 -0.329883 0 -885702 1103.12 0 -886092 2227.76 0 -886741 3394.78 0 -887646 4624.51 0 -888803 5937.43 0 -890206 7353.83 0 -891850 8893.88 0 -893727 10577.5 0 -895829 12424.4 0 -898146 14453.8 0 -900668 16684.7 0 -903385 19135.7 0 -906286 21825.5 0 -909362 24772.8 0 -912610 28004.2 0 -885671 -0.443111 0 -885889 -1304.77 0 -886542 -2580.52 0 -887628 -3798.85 0 -889146 -4931.46 0 -891093 -5949.12 0 -893463 -6821.81 0 -896250 -7518.62 0 -899444 -8007.78 0 -903033 -8256.89 0 -907000 -8233.22 0 -911326 -7904.41 0 -915984 -7239.25 0 -920941 -6209.36 0 -926159 -4790.81 0 -931577 -2971.53 0 -864404 -0.294483 0 -864718 -5045.97 0 -865662 -10072.3 0 -867243 -15058.8 0 -869473 -19983.3 0 -872365 -24820.2 0 -875938 -29538.9 0 -880213 -34102.8 0 -885213 -38467.8 0 -890959 -42580.3 0 -897472 -46375.9 0 -904765 -49777 0 -912844 -52691.6 0 -921701 -55011.6 0 -931311 -56612.8 0 -941657 -57358 0 -813312 0.611604 0 -813610 -9505.78 0 -814511 -19051.4 0 -816032 -28675 0 -818205 -38413.4 0 -821075 -48302.5 0 -824702 -58376.2 0 -829164 -68666 0 -834563 -79199.1 0 -841022 -89996.8 0 -848696 -101072 0 -857774 -112423 0 -868488 -124030 0 -881110 -135839 0 -895951 -147753 0 -913287 -159512 0 -734513 1.64566 0 -734539 -11994 0 -734620 -24096 0 -734762 -36412.5 0 -734979 -49051.4 0 -735287 -62126.9 0 -735709 -75760.7 0 -736271 -90085.3 0 -737008 -105248 0 -737957 -121416 0 -739170 -138783 0 -740711 -157587 0 -742674 -178116 0 -745212 -200772 0 -748599 -226063 0 -753491 -255188 0 -653460 1.50938 0 -653097 -9661.99 0 -652006 -19423.2 0 -650174 -29382 0 -647583 -39638 0 -644208 -50295.9 0 -640014 -61463.8 0 -634956 -73250 0 -628977 -85758.2 0 -621991 -99073.8 0 -613873 -113251 0 -604422 -128262 0 -593299 -143991 0 -579903 -159888 0 -563134 -175201 0 -540256 -184391 0 </DataArray> 
</PointData> 
<Points> 
<DataArray type="Float32" NumberOfComponents="3"> 
0.046 0 0 0.046 0.0018 0 0.046 0.0036 0 0.046 0.0054 0 0.046 0.0072 0 0.046 0.009 0 0.046 0.0108 0 0.046 0.0126 0 0.046 0.0144 0 0.046 0.0162 0 0.046 0.018 0 0.046 0.0198 0 0.046 0.0216 0 0.046 0.0234 0 0.046 0.0252 0 0.046 0.027 0 0.0586667 0 0 0.0586667 0.0018 0 0.0586667 0.0036 0 0.0586667 0.0054 0 0.0586667 0.0072 0 0.0586667 0.009 0 0.0586667 0.0108 0 0.0586667 0.0126 0 0.0586667 0.0144 0 0.0586667 0.0162 0 0.0586667 0.018 0 0.0586667 0.0198 0 0.0586667 0.0216 0 0.0586667 0.0234 0 0.0586667 0.0252 0 0.0586667 0.027 0 0.0713333 0 0 0.0713333 0.0018 0 0.0713333 0.0036 0 0.0713333 0.0054 0 0.0713333 0.0072 0 0.0713333 0.009 0 0.0713333 0.0108 0 0.0713333 0.0126 0 0.0713333 0.0144 0 0.0713333 0.0162 0 0.0713333 0.018 0 0.0713333 0.0198 0 0.0713333 0.0216 0 0.0713333 0.0234 0 0.0713333 0.0252 0 0.0713333 0.027 0 0.084 0 0 0.084 0.0018 0 0.084 0.0036 0 0.084 0.0054 0 0.084 0.0072 0 0.084 0.009 0 0.084 0.0108 0 0.084 0.0126 0 0.084 0.0144 0 0.084 0.0162 0 0.084 0.018 0 0.084 0.0198 0 0.084 0.0216 0 0.084 0.0234 0 0.084 0.0252 0 0.084 0.027 0 0.0966667 0 0 0.0966667 0.0018 0 0.0966667 0.0036 0 0.0966667 0.0054 0 0.0966667 0.0072 0 0.0966667 0.009 0 0.0966667 0.0108 0 0.0966667 0.0126 0 0.0966667 0.0144 0 0.0966667 0.0162 0 0.0966667 0.018 0 0.0966667 0.0198 0 0.0966667 0.0216 0 0.0966667 0.0234 0 0.0966667 0.0252 0 0.0966667 0.027 0 0.109333 0 0 0.109333 0.0018 0 0.109333 0.0036 0 0.109333 0.0054 0 0.109333 0.0072 0 0.109333 0.009 0 0.109333 0.0108 0 0.109333 0.0126 0 0.109333 0.0144 0 0.109333 0.0162 0 0.109333 0.018 0 0.109333 0.0198 0 0.109333 0.0216 0 0.109333 0.0234 0 0.109333 0.0252 0 0.109333 0.027 0 0.122 0 0 0.122 0.0018 0 0.122 0.0036 0 0.122 0.0054 0 0.122 0.0072 0 0.122 0.009 0 0.122 0.0108 0 0.122 0.0126 0 0.122 0.0144 0 0.122 0.0162 0 0.122 0.018 0 0.122 0.0198 0 0.122 0.0216 0 0.122 0.0234 0 0.122 0.0252 0 0.122 0.027 0 0.134667 0 0 0.134667 0.0018 0 0.134667 0.0036 0 0.134667 0.0054 0 0.134667 0.0072 0 0.134667 0.009 0 0.134667 0.0108 0 0.134667 0.0126 0 0.134667 0.0144 0 0.134667 0.0162 0 0.134667 0.018 0 0.134667 0.0198 0 0.134667 0.0216 0 0.134667 0.0234 0 0.134667 0.0252 0 0.134667 0.027 0 0.147333 0 0 0.147333 0.0018 0 0.147333 0.0036 0 0.147333 0.0054 0 0.147333 0.0072 0 0.147333 0.009 0 0.147333 0.0108 0 0.147333 0.0126 0 0.147333 0.0144 0 0.147333 0.0162 0 0.147333 0.018 0 0.147333 0.0198 0 0.147333 0.0216 0 0.147333 0.0234 0 0.147333 0.0252 0 0.147333 0.027 0 0.16 0 0 0.16 0.0018 0 0.16 0.0036 0 0.16 0.0054 0 0.16 0.0072 0 0.16 0.009 0 0.16 0.0108 0 0.16 0.0126 0 0.16 0.0144 0 0.16 0.0162 0 0.16 0.018 0 0.16 0.0198 0 0.16 0.0216 0 0.16 0.0234 0 0.16 0.0252 0 0.16 0.027 0 0.172667 0 0 0.172667 0.0018 0 0.172667 0.0036 0 0.172667 0.0054 0 0.172667 0.0072 0 0.172667 0.009 0 0.172667 0.0108 0 0.172667 0.0126 0 0.172667 0.0144 0 0.172667 0.0162 0 0.172667 0.018 0 0.172667 0.0198 0 0.172667 0.0216 0 0.172667 0.0234 0 0.172667 0.0252 0 0.172667 0.027 0 0.185333 0 0 0.185333 0.0018 0 0.185333 0.0036 0 0.185333 0.0054 0 0.185333 0.0072 0 0.185333 0.009 0 0.185333 0.0108 0 0.185333 0.0126 0 0.185333 0.0144 0 0.185333 0.0162 0 0.185333 0.018 0 0.185333 0.0198 0 0.185333 0.0216 0 0.185333 0.0234 0 0.185333 0.0252 0 0.185333 0.027 0 0.198 0 0 0.198 0.0018 0 0.198 0.0036 0 0.198 0.0054 0 0.198 0.0072 0 0.198 0.009 0 0.198 0.0108 0 0.198 0.0126 0 0.198 0.0144 0 0.198 0.0162 0 0.198 0.018 0 0.198 0.0198 0 0.198 0.0216 0 0.198 0.0234 0 0.198 0.0252 0 0.198 0.027 0 0.210667 0 0 0.210667 0.0018 0 0.210667 0.0036 0 0.210667 0.0054 0 0.210667 0.0072 0 0.210667 0.009 0 0.210667 0.0108 0 0.210667 0.0126 0 0.210667 0.0144 0 0.210667 0.0162 0 0.210667 0.018 0 0.210667 0.0198 0 0.210667 0.0216 0 0.210667 0.0234 0 0.210667 0.0252 0 0.210667 0.027 0 0.223333 0 0 0.223333 0.0018 0 0.223333 0.0036 0 0.223333 0.0054 0 0.223333 0.0072 0 0.223333 0.009 0 0.223333 0.0108 0 0.223333 0.0126 0 0.223333 0.0144 0 0.223333 0.0162 0 0.223333 0.018 0 0.223333 0.0198 0 0.223333 0.0216 0 0.223333 0.0234 0 0.223333 0.0252 0 0.223333 0.027 0 0.236 0 0 0.236 0.0018 0 0.236 0.0036 0 0.236 0.0054 0 0.236 0.0072 0 0.236 0.009 0 0.236 0.0108 0 0.236 0.0126 0 0.236 0.0144 0 0.236 0.0162 0 0.236 0.018 0 0.236 0.0198 0 0.236 0.0216 0 0.236 0.0234 0 0.236 0.0252 0 0.236 0.027 0 
</DataArray>
</Points> 
</Piece> 
</StructuredGrid> 
</VTKFile> 
