<?xml version="1.0"?> 
<VTKFile type="StructuredGrid" version="0.1"> 
<StructuredGrid WholeExtent="0 15 0 15 0 0"> 
<Piece Extent="0 15 0 15 0 0"> 
<PointData>
<DataArray type="Float32" Name="E" format="ascii" NumberOfComponents="3"> 
-572443 41915.4 0 -571598 33579.5 0 -569575 30577.6 0 -567166 29127 0 -564587 28504.9 0 -561939 28281.2 0 -559262 28295.8 0 -556568 28458.2 0 -553857 28731.8 0 -551126 29113.2 0 -548366 29630.8 0 -545577 30364.7 0 -542766 31459.1 0 -539958 33319.9 0 -537240 36621.7 0 -534767 45107.6 0 -568358 54365 0 -568025 55553.2 0 -567803 56212.2 0 -567570 56747.3 0 -567298 57239.1 0 -566980 57735.5 0 -566618 58255.2 0 -566220 58808.9 0 -565794 59401.4 0 -565351 60034.2 0 -564900 60705.1 0 -564450 61406.8 0 -564008 62125 0 -563574 62818 0 -563137 63415.5 0 -562650 63529.5 0 -587369 62869.1 0 -586801 63648.8 0 -586185 64527.4 0 -585558 65428 0 -584928 66335.6 0 -584296 67241.7 0 -583661 68142.8 0 -583021 69037.5 0 -582373 69924.9 0 -581713 70805 0 -581040 71678.3 0 -580350 72546.1 0 -579641 73411.1 0 -578915 74281.1 0 -578176 75169.2 0 -577445 76149.6 0 -609368 72182 0 -608846 73356.1 0 -608323 74512.7 0 -607786 75662.5 0 -607234 76807.8 0 -606665 77949.9 0 -606081 79089.4 0 -605482 80226.8 0 -604870 81362.1 0 -604247 82495.5 0 -603612 83626.9 0 -602968 84756 0 -602315 85882.6 0 -601652 87005.3 0 -600978 88122.1 0 -600283 89221.9 0 -637554 81603.7 0 -636972 83019.2 0 -636374 84428.8 0 -635764 85835.9 0 -635144 87240.9 0 -634513 88643.9 0 -633870 90045 0 -633216 91443.8 0 -632549 92840.4 0 -631870 94234.6 0 -631178 95626.2 0 -630472 97015.3 0 -629753 98401.5 0 -629020 99784.7 0 -628275 101164 0 -627520 102538 0 -671197 91142.3 0 -670602 92834.7 0 -669993 94530 0 -669370 96223.7 0 -668732 97914.9 0 -668080 99603.2 0 -667413 101288 0 -666731 102971 0 -666036 104650 0 -665326 106326 0 -664602 107999 0 -663865 109669 0 -663115 111335 0 -662350 113000 0 -661572 114662 0 -660778 116326 0 -711245 100604 0 -710629 102623 0 -709997 104637 0 -709349 106649 0 -708685 108659 0 -708004 110667 0 -707307 112673 0 -706593 114676 0 -705864 116677 0 -705117 118675 0 -704355 120670 0 -703575 122662 0 -702779 124650 0 -701967 126634 0 -701138 128613 0 -700294 130585 0 -758627 109633 0 -758009 112033 0 -757372 114433 0 -756714 116832 0 -756036 119228 0 -755339 121622 0 -754621 124014 0 -753882 126403 0 -753124 128789 0 -752346 131172 0 -751548 133553 0 -750730 135931 0 -749892 138306 0 -749034 140678 0 -748156 143049 0 -747259 145419 0 -814925 117765 0 -814332 120640 0 -813713 123514 0 -813068 126388 0 -812396 129262 0 -811699 132135 0 -810975 135006 0 -810225 137875 0 -809449 140742 0 -808647 143605 0 -807819 146464 0 -806964 149319 0 -806082 152168 0 -805175 155011 0 -804240 157846 0 -803278 160671 0 -882611 123949 0 -882076 127459 0 -881507 130970 0 -880903 134481 0 -880266 137991 0 -879594 141500 0 -878887 145008 0 -878146 148515 0 -877370 152021 0 -876560 155525 0 -875716 159028 0 -874838 162530 0 -873927 166031 0 -872984 169531 0 -872010 173031 0 -871005 176534 0 -965453 126848 0 -965072 131204 0 -964640 135568 0 -964156 139937 0 -963622 144311 0 -963036 148689 0 -962399 153068 0 -961712 157448 0 -960972 161827 0 -960180 166204 0 -959335 170576 0 -958436 174943 0 -957481 179301 0 -956469 183648 0 -955397 187982 0 -954262 192297 0 -1.06905e+06 123143 0 -1.06895e+06 128744 0 -1.06878e+06 134356 0 -1.06855e+06 139978 0 -1.06825e+06 145610 0 -1.06788e+06 151249 0 -1.06744e+06 156896 0 -1.06693e+06 162549 0 -1.06635e+06 168208 0 -1.0657e+06 173871 0 -1.06499e+06 179539 0 -1.06422e+06 185211 0 -1.06339e+06 190888 0 -1.06251e+06 196569 0 -1.06157e+06 202257 0 -1.0606e+06 207952 0 -1.20426e+06 108193 0 -1.20472e+06 115613 0 -1.20505e+06 123054 0 -1.20526e+06 130517 0 -1.20535e+06 138000 0 -1.20533e+06 145502 0 -1.20518e+06 153024 0 -1.20492e+06 160563 0 -1.20453e+06 168118 0 -1.20401e+06 175687 0 -1.20336e+06 183268 0 -1.20257e+06 190858 0 -1.20162e+06 198455 0 -1.20051e+06 206054 0 -1.19923e+06 213652 0 -1.19774e+06 221244 0 -1.37658e+06 72646.8 0 -1.37814e+06 82030.8 0 -1.37966e+06 91549.8 0 -1.3811e+06 101192 0 -1.38245e+06 110947 0 -1.38372e+06 120805 0 -1.38487e+06 130757 0 -1.38593e+06 140796 0 -1.38687e+06 150913 0 -1.3877e+06 161101 0 -1.38844e+06 171354 0 -1.38909e+06 181664 0 -1.38966e+06 192024 0 -1.39018e+06 202428 0 -1.39067e+06 212868 0 -1.39115e+06 223338 0 -1.60637e+06 -18930.9 0 -1.61171e+06 -4490.14 0 -1.61658e+06 9703.24 0 -1.62103e+06 23704.9 0 -1.62512e+06 37566.2 0 -1.62889e+06 51337.5 0 -1.63236e+06 65067.6 0 -1.63554e+06 78804.3 0 -1.63845e+06 92594.6 0 -1.64107e+06 106485 0 -1.64338e+06 120521 0 -1.64536e+06 134749 0 -1.64695e+06 149214 0 -1.6481e+06 163963 0 -1.64874e+06 179041 0 -1.64877e+06 194497 0 -1.90484e+06 2.38419e-07 0 -1.89597e+06 -7.45058e-08 0 -1.88915e+06 1.63913e-07 0 -1.88427e+06 -2.08616e-07 0 -1.88126e+06 1.49012e-07 0 -1.88005e+06 -1.04308e-07 0 -1.88058e+06 4.47035e-08 0 -1.88285e+06 -2.98023e-08 0 -1.88684e+06 0 0 -1.89257e+06 8.9407e-08 0 -1.90006e+06 -1.49012e-07 0 -1.90938e+06 1.19209e-07 0 -1.92059e+06 0 0 -1.93378e+06 -1.78814e-07 0 -1.94908e+06 1.19209e-07 0 -1.96662e+06 -1.19209e-07 0 </DataArray> 
</PointData> 
<Points> 
<DataArray type="Float32" NumberOfComponents="3"> 
0.0125 0.052 0 0.0125 0.0526667 0 0.0125 0.0533333 0 0.0125 0.054 0 0.0125 0.0546667 0 0.0125 0.0553333 0 0.0125 0.056 0 0.0125 0.0566667 0 0.0125 0.0573333 0 0.0125 0.058 0 0.0125 0.0586667 0 0.0125 0.0593333 0 0.0125 0.06 0 0.0125 0.0606667 0 0.0125 0.0613333 0 0.0125 0.062 0 0.0265 0.0508667 0 0.0265 0.0515333 0 0.0265 0.0522 0 0.0265 0.0528667 0 0.0265 0.0535333 0 0.0265 0.0542 0 0.0265 0.0548667 0 0.0265 0.0555333 0 0.0265 0.0562 0 0.0265 0.0568667 0 0.0265 0.0575333 0 0.0265 0.0582 0 0.0265 0.0588667 0 0.0265 0.0595333 0 0.0265 0.0602 0 0.0265 0.0608667 0 0.0405 0.0497333 0 0.0405 0.0504 0 0.0405 0.0510667 0 0.0405 0.0517333 0 0.0405 0.0524 0 0.0405 0.0530667 0 0.0405 0.0537333 0 0.0405 0.0544 0 0.0405 0.0550667 0 0.0405 0.0557333 0 0.0405 0.0564 0 0.0405 0.0570667 0 0.0405 0.0577333 0 0.0405 0.0584 0 0.0405 0.0590667 0 0.0405 0.0597333 0 0.0545 0.0486 0 0.0545 0.0492667 0 0.0545 0.0499333 0 0.0545 0.0506 0 0.0545 0.0512667 0 0.0545 0.0519333 0 0.0545 0.0526 0 0.0545 0.0532667 0 0.0545 0.0539333 0 0.0545 0.0546 0 0.0545 0.0552667 0 0.0545 0.0559333 0 0.0545 0.0566 0 0.0545 0.0572667 0 0.0545 0.0579333 0 0.0545 0.0586 0 0.0685 0.0474667 0 0.0685 0.0481333 0 0.0685 0.0488 0 0.0685 0.0494667 0 0.0685 0.0501333 0 0.0685 0.0508 0 0.0685 0.0514667 0 0.0685 0.0521333 0 0.0685 0.0528 0 0.0685 0.0534667 0 0.0685 0.0541333 0 0.0685 0.0548 0 0.0685 0.0554667 0 0.0685 0.0561333 0 0.0685 0.0568 0 0.0685 0.0574667 0 0.0825 0.0463333 0 0.0825 0.047 0 0.0825 0.0476667 0 0.0825 0.0483333 0 0.0825 0.049 0 0.0825 0.0496667 0 0.0825 0.0503333 0 0.0825 0.051 0 0.0825 0.0516667 0 0.0825 0.0523333 0 0.0825 0.053 0 0.0825 0.0536667 0 0.0825 0.0543333 0 0.0825 0.055 0 0.0825 0.0556667 0 0.0825 0.0563333 0 0.0965 0.0452 0 0.0965 0.0458667 0 0.0965 0.0465333 0 0.0965 0.0472 0 0.0965 0.0478667 0 0.0965 0.0485333 0 0.0965 0.0492 0 0.0965 0.0498667 0 0.0965 0.0505333 0 0.0965 0.0512 0 0.0965 0.0518667 0 0.0965 0.0525333 0 0.0965 0.0532 0 0.0965 0.0538667 0 0.0965 0.0545333 0 0.0965 0.0552 0 0.1105 0.0440667 0 0.1105 0.0447333 0 0.1105 0.0454 0 0.1105 0.0460667 0 0.1105 0.0467333 0 0.1105 0.0474 0 0.1105 0.0480667 0 0.1105 0.0487333 0 0.1105 0.0494 0 0.1105 0.0500667 0 0.1105 0.0507333 0 0.1105 0.0514 0 0.1105 0.0520667 0 0.1105 0.0527333 0 0.1105 0.0534 0 0.1105 0.0540667 0 0.1245 0.0429333 0 0.1245 0.0436 0 0.1245 0.0442667 0 0.1245 0.0449333 0 0.1245 0.0456 0 0.1245 0.0462667 0 0.1245 0.0469333 0 0.1245 0.0476 0 0.1245 0.0482667 0 0.1245 0.0489333 0 0.1245 0.0496 0 0.1245 0.0502667 0 0.1245 0.0509333 0 0.1245 0.0516 0 0.1245 0.0522667 0 0.1245 0.0529333 0 0.1385 0.0418 0 0.1385 0.0424667 0 0.1385 0.0431333 0 0.1385 0.0438 0 0.1385 0.0444667 0 0.1385 0.0451333 0 0.1385 0.0458 0 0.1385 0.0464667 0 0.1385 0.0471333 0 0.1385 0.0478 0 0.1385 0.0484667 0 0.1385 0.0491333 0 0.1385 0.0498 0 0.1385 0.0504667 0 0.1385 0.0511333 0 0.1385 0.0518 0 0.1525 0.0406667 0 0.1525 0.0413333 0 0.1525 0.042 0 0.1525 0.0426667 0 0.1525 0.0433333 0 0.1525 0.044 0 0.1525 0.0446667 0 0.1525 0.0453333 0 0.1525 0.046 0 0.1525 0.0466667 0 0.1525 0.0473333 0 0.1525 0.048 0 0.1525 0.0486667 0 0.1525 0.0493333 0 0.1525 0.05 0 0.1525 0.0506667 0 0.1665 0.0395333 0 0.1665 0.0402 0 0.1665 0.0408667 0 0.1665 0.0415333 0 0.1665 0.0422 0 0.1665 0.0428667 0 0.1665 0.0435333 0 0.1665 0.0442 0 0.1665 0.0448667 0 0.1665 0.0455333 0 0.1665 0.0462 0 0.1665 0.0468667 0 0.1665 0.0475333 0 0.1665 0.0482 0 0.1665 0.0488667 0 0.1665 0.0495333 0 0.1805 0.0384 0 0.1805 0.0390667 0 0.1805 0.0397333 0 0.1805 0.0404 0 0.1805 0.0410667 0 0.1805 0.0417333 0 0.1805 0.0424 0 0.1805 0.0430667 0 0.1805 0.0437333 0 0.1805 0.0444 0 0.1805 0.0450667 0 0.1805 0.0457333 0 0.1805 0.0464 0 0.1805 0.0470667 0 0.1805 0.0477333 0 0.1805 0.0484 0 0.1945 0.0372667 0 0.1945 0.0379333 0 0.1945 0.0386 0 0.1945 0.0392667 0 0.1945 0.0399333 0 0.1945 0.0406 0 0.1945 0.0412667 0 0.1945 0.0419333 0 0.1945 0.0426 0 0.1945 0.0432667 0 0.1945 0.0439333 0 0.1945 0.0446 0 0.1945 0.0452667 0 0.1945 0.0459333 0 0.1945 0.0466 0 0.1945 0.0472667 0 0.2085 0.0361333 0 0.2085 0.0368 0 0.2085 0.0374667 0 0.2085 0.0381333 0 0.2085 0.0388 0 0.2085 0.0394667 0 0.2085 0.0401333 0 0.2085 0.0408 0 0.2085 0.0414667 0 0.2085 0.0421333 0 0.2085 0.0428 0 0.2085 0.0434667 0 0.2085 0.0441333 0 0.2085 0.0448 0 0.2085 0.0454667 0 0.2085 0.0461333 0 0.2225 0.035 0 0.2225 0.0356667 0 0.2225 0.0363333 0 0.2225 0.037 0 0.2225 0.0376667 0 0.2225 0.0383333 0 0.2225 0.039 0 0.2225 0.0396667 0 0.2225 0.0403333 0 0.2225 0.041 0 0.2225 0.0416667 0 0.2225 0.0423333 0 0.2225 0.043 0 0.2225 0.0436667 0 0.2225 0.0443333 0 0.2225 0.045 0 
</DataArray>
</Points> 
</Piece> 
</StructuredGrid> 
</VTKFile> 
