<?xml version="1.0"?> 
<VTKFile type="StructuredGrid" version="0.1"> 
<StructuredGrid WholeExtent="0 15 0 15 0 0"> 
<Piece Extent="0 15 0 15 0 0"> 
<PointData>
<DataArray type="Float32" Name="E" format="ascii" NumberOfComponents="3"> 
339182 3.68255e+06 0 -652781 714196 0 -815534 99831.6 0 -803239 -52677.7 0 -753685 -79480 0 -709699 -89432.7 0 -679870 -110523 0 -662926 -146298 0 -655341 -194129 0 -653930 -250716 0 -656452 -314072 0 -661517 -383876 0 -668202 -461335 0 -675689 -552148 0 -681380 -666565 0 -678976 -882552 0 -5425.98 -58910.7 0 37354.3 560414 0 -154993 564505 0 -329468 452932 0 -450384 331954 0 -522877 226416 0 -561446 138838 0 -579016 65019.3 0 -584787 407.591 0 -584551 -58724.1 0 -581612 -115080 0 -577667 -170666 0 -573447 -226960 0 -569187 -285541 0 -564817 -347071 0 -560513 -413352 0 20916 227088 0 5896.71 143583 0 24551.2 221528 0 -11909.4 291129 0 -85904.4 320758 0 -173052 316592 0 -256240 288372 0 -326871 245678 0 -382317 195265 0 -423288 141542 0 -451962 87079.8 0 -470859 33195.9 0 -482271 -19616.5 0 -488024 -71359.2 0 -489436 -122462 0 -487321 -173471 0 6897.47 74886.9 0 -538.394 108434 0 -12593.6 114871 0 -9444.68 126307 0 -9612.46 149417 0 -23609.3 174543 0 -52864.2 195497 0 -93656.3 207793 0 -140608 209742 0 -188760 201409 0 -234410 183950 0 -275241 159009 0 -310096 128321 0 -338656 93478.8 0 -361126 55820.6 0 -377966 16452.5 0 5689.26 61769.1 0 4786.35 65693.1 0 481.665 69083.9 0 -8804.59 79022.7 0 -15716.1 86659.4 0 -19476.3 94645.7 0 -23032.1 103279 0 -29660.2 112932 0 -41439.7 122805 0 -58909.5 131628 0 -81402.1 138020 0 -107546 140820 0 -135721 139254 0 -164373 132961 0 -192194 121949 0 -218203 106471 0 3620.72 39310.7 0 1324.26 41975.3 0 534.216 49125.5 0 -631.7 49766.7 0 -4162.66 53211.4 0 -9338.88 57957.1 0 -14711.6 63451 0 -19592 68660.1 0 -24144.9 73384.1 0 -29079 77737.8 0 -35224.6 81906.5 0 -43239.8 85923 0 -53467.7 89611.2 0 -65919.7 92614.1 0 -80328.8 94502 0 -96249.5 94751.3 0 2492.03 27056.3 0 1730.04 29629.2 0 -29.9938 29713.3 0 -1455.32 34354.3 0 -2547.34 36625.8 0 -3883.16 38189.9 0 -5987.86 39773.7 0 -8890.32 42087.5 0 -12357.7 45020.8 0 -16112.8 48207.1 0 -19995.2 51272.6 0 -24005.6 53996.2 0 -28276.2 56314.8 0 -33008.2 58265.9 0 -38406.1 59917.2 0 -44627.4 61309.4 0 1748.05 18978.8 0 1022.5 19910.7 0 502.952 22048.3 0 -470.963 21904 0 -1615.15 23589.8 0 -2777.65 25564.7 0 -3889.24 27319.2 0 -5069.74 28571.2 0 -6460.69 29574.5 0 -8158.57 30626.1 0 -10186.4 31907.9 0 -12512.8 33434.2 0 -15084.2 35102.7 0 -17854 36765.6 0 -20800.6 38285.7 0 -23931.7 39572.9 0 1223.5 13283.7 0 807.733 14099.7 0 242.127 14487.5 0 -219.98 15952.6 0 -793.89 16381.6 0 -1481.43 16869.8 0 -2281.41 17626.8 0 -3146.39 18671.4 0 -4052.65 19765.3 0 -5001.84 20736 0 -6017.62 21528.3 0 -7131.12 22188.6 0 -8369.26 22803.6 0 -9748.31 23449.8 0 -11272.7 24167 0 -12938.3 24948.9 0 864.944 9390.82 0 561.342 9805.43 0 258.184 10385.5 0 -136.025 10532.8 0 -518.866 11225.5 0 -928.616 11810.3 0 -1373.52 12243.2 0 -1868.88 12573.9 0 -2416.09 12942.5 0 -3012.22 13409.6 0 -3652.36 13961.4 0 -4333.38 14541.1 0 -5055.27 15090.6 0 -5821.19 15574.9 0 -6636.54 15985.9 0 -7507.13 16339.8 0 606.177 6581.35 0 398.433 6859.81 0 167.786 7088.77 0 -58.7711 7491.56 0 -324.818 7645.47 0 -603.481 7890.36 0 -896.966 8209.07 0 -1206.21 8554.66 0 -1535.63 8858.89 0 -1887.33 9107.95 0 -2262.3 9323.05 0 -2660.82 9536.51 0 -3083.13 9770.77 0 -3529.53 10031.3 0 -4000.4 10309 0 -4496.33 10586.8 0 417.008 4527.51 0 266.918 4691.85 0 110.294 4872.12 0 -60.4748 4987.49 0 -230.482 5210.04 0 -414.854 5378.04 0 -610.093 5514.97 0 -814.356 5647.18 0 -1026.4 5801.49 0 -1247.38 5975.5 0 -1478.81 6153.51 0 -1721.7 6319.54 0 -1976.23 6465.74 0 -2242.08 6593.07 0 -2518.83 6708 0 -2806.24 6818.51 0 274.475 2980.01 0 163.047 3079.65 0 47.5411 3173.67 0 -70.7782 3290.07 0 -196.513 3361.27 0 -323.089 3457.84 0 -453.691 3563.27 0 -589.747 3664.83 0 -731.428 3752.59 0 -877.65 3830.04 0 -1027.54 3904.75 0 -1180.94 3982.54 0 -1338.3 4064.76 0 -1500.28 4148.94 0 -1667.39 4230.96 0 -1839.82 4306.99 0 162.786 1767.39 0 76.757 1825.51 0 -11.2324 1884.02 0 -101.014 1933.24 0 -191.689 1998.24 0 -285.799 2050.23 0 -381.401 2097.61 0 -477.874 2145.39 0 -575.51 2196.65 0 -675.066 2248.97 0 -776.937 2298.95 0 -881.002 2344.4 0 -986.828 2385.17 0 -1093.97 2422.5 0 -1202.16 2457.98 0 -1311.37 2492.8 0 71.6882 778.329 0 1.8614 808.657 0 -68.3893 837.597 0 -139.574 868.163 0 -211.397 892.121 0 -283.14 919.441 0 -355.856 946.777 0 -429.72 972.409 0 -504.328 995.437 0 -579.188 1016.82 0 -654.119 1037.71 0 -729.249 1058.7 0 -804.823 1079.67 0 -881.017 1100.07 0 -957.849 1119.28 0 -1035.19 1136.88 0 -1.19209e-07 0 0 -50.1118 -2.68221e-07 0 -102.629 5.66244e-07 0 -156.521 -1.49012e-07 0 -212.556 5.36442e-07 0 -270.202 -1.13249e-06 0 -328.605 8.9407e-07 0 -387.602 -5.96046e-08 0 -447.487 -1.19209e-07 0 -508.44 1.19209e-07 0 -570.337 0 0 -632.841 2.38419e-07 0 -695.602 0 0 -758.396 -3.57628e-07 0 -821.158 1.19209e-07 0 -883.936 -4.76837e-07 0 </DataArray> 
</PointData> 
<Points> 
<DataArray type="Float32" NumberOfComponents="3"> 
0.264 0.021 0 0.263267 0.0214 0 0.262533 0.0218 0 0.2618 0.0222 0 0.261067 0.0226 0 0.260333 0.023 0 0.2596 0.0234 0 0.258867 0.0238 0 0.258133 0.0242 0 0.2574 0.0246 0 0.256667 0.025 0 0.255933 0.0254 0 0.2552 0.0258 0 0.254467 0.0262 0 0.253733 0.0266 0 0.253 0.027 0 0.266533 0.0207667 0 0.265849 0.0211529 0 0.265164 0.0215391 0 0.26448 0.0219253 0 0.263796 0.0223116 0 0.263111 0.0226978 0 0.262427 0.023084 0 0.261742 0.0234702 0 0.261058 0.0238564 0 0.260373 0.0242427 0 0.259689 0.0246289 0 0.259004 0.0250151 0 0.25832 0.0254013 0 0.257636 0.0257876 0 0.256951 0.0261738 0 0.256267 0.02656 0 0.269067 0.0205333 0 0.268431 0.0209058 0 0.267796 0.0212782 0 0.26716 0.0216507 0 0.266524 0.0220231 0 0.265889 0.0223956 0 0.265253 0.022768 0 0.264618 0.0231404 0 0.263982 0.0235129 0 0.263347 0.0238853 0 0.262711 0.0242578 0 0.262076 0.0246302 0 0.26144 0.0250027 0 0.260804 0.0253751 0 0.260169 0.0257476 0 0.259533 0.02612 0 0.2716 0.0203 0 0.271013 0.0206587 0 0.270427 0.0210173 0 0.26984 0.021376 0 0.269253 0.0217347 0 0.268667 0.0220933 0 0.26808 0.022452 0 0.267493 0.0228107 0 0.266907 0.0231693 0 0.26632 0.023528 0 0.265733 0.0238867 0 0.265147 0.0242453 0 0.26456 0.024604 0 0.263973 0.0249627 0 0.263387 0.0253213 0 0.2628 0.02568 0 0.274133 0.0200667 0 0.273596 0.0204116 0 0.273058 0.0207564 0 0.27252 0.0211013 0 0.271982 0.0214462 0 0.271444 0.0217911 0 0.270907 0.022136 0 0.270369 0.0224809 0 0.269831 0.0228258 0 0.269293 0.0231707 0 0.268756 0.0235156 0 0.268218 0.0238604 0 0.26768 0.0242053 0 0.267142 0.0245502 0 0.266604 0.0248951 0 0.266067 0.02524 0 0.276667 0.0198333 0 0.276178 0.0201644 0 0.275689 0.0204956 0 0.2752 0.0208267 0 0.274711 0.0211578 0 0.274222 0.0214889 0 0.273733 0.02182 0 0.273244 0.0221511 0 0.272756 0.0224822 0 0.272267 0.0228133 0 0.271778 0.0231444 0 0.271289 0.0234756 0 0.2708 0.0238067 0 0.270311 0.0241378 0 0.269822 0.0244689 0 0.269333 0.0248 0 0.2792 0.0196 0 0.27876 0.0199173 0 0.27832 0.0202347 0 0.27788 0.020552 0 0.27744 0.0208693 0 0.277 0.0211867 0 0.27656 0.021504 0 0.27612 0.0218213 0 0.27568 0.0221387 0 0.27524 0.022456 0 0.2748 0.0227733 0 0.27436 0.0230907 0 0.27392 0.023408 0 0.27348 0.0237253 0 0.27304 0.0240427 0 0.2726 0.02436 0 0.281733 0.0193667 0 0.281342 0.0196702 0 0.280951 0.0199738 0 0.28056 0.0202773 0 0.280169 0.0205809 0 0.279778 0.0208844 0 0.279387 0.021188 0 0.278996 0.0214916 0 0.278604 0.0217951 0 0.278213 0.0220987 0 0.277822 0.0224022 0 0.277431 0.0227058 0 0.27704 0.0230093 0 0.276649 0.0233129 0 0.276258 0.0236164 0 0.275867 0.02392 0 0.284267 0.0191333 0 0.283924 0.0194231 0 0.283582 0.0197129 0 0.28324 0.0200027 0 0.282898 0.0202924 0 0.282556 0.0205822 0 0.282213 0.020872 0 0.281871 0.0211618 0 0.281529 0.0214516 0 0.281187 0.0217413 0 0.280844 0.0220311 0 0.280502 0.0223209 0 0.28016 0.0226107 0 0.279818 0.0229004 0 0.279476 0.0231902 0 0.279133 0.02348 0 0.2868 0.0189 0 0.286507 0.019176 0 0.286213 0.019452 0 0.28592 0.019728 0 0.285627 0.020004 0 0.285333 0.02028 0 0.28504 0.020556 0 0.284747 0.020832 0 0.284453 0.021108 0 0.28416 0.021384 0 0.283867 0.02166 0 0.283573 0.021936 0 0.28328 0.022212 0 0.282987 0.022488 0 0.282693 0.022764 0 0.2824 0.02304 0 0.289333 0.0186667 0 0.289089 0.0189289 0 0.288844 0.0191911 0 0.2886 0.0194533 0 0.288356 0.0197156 0 0.288111 0.0199778 0 0.287867 0.02024 0 0.287622 0.0205022 0 0.287378 0.0207644 0 0.287133 0.0210267 0 0.286889 0.0212889 0 0.286644 0.0215511 0 0.2864 0.0218133 0 0.286156 0.0220756 0 0.285911 0.0223378 0 0.285667 0.0226 0 0.291867 0.0184333 0 0.291671 0.0186818 0 0.291476 0.0189302 0 0.29128 0.0191787 0 0.291084 0.0194271 0 0.290889 0.0196756 0 0.290693 0.019924 0 0.290498 0.0201724 0 0.290302 0.0204209 0 0.290107 0.0206693 0 0.289911 0.0209178 0 0.289716 0.0211662 0 0.28952 0.0214147 0 0.289324 0.0216631 0 0.289129 0.0219116 0 0.288933 0.02216 0 0.2944 0.0182 0 0.294253 0.0184347 0 0.294107 0.0186693 0 0.29396 0.018904 0 0.293813 0.0191387 0 0.293667 0.0193733 0 0.29352 0.019608 0 0.293373 0.0198427 0 0.293227 0.0200773 0 0.29308 0.020312 0 0.292933 0.0205467 0 0.292787 0.0207813 0 0.29264 0.021016 0 0.292493 0.0212507 0 0.292347 0.0214853 0 0.2922 0.02172 0 0.296933 0.0179667 0 0.296836 0.0181876 0 0.296738 0.0184084 0 0.29664 0.0186293 0 0.296542 0.0188502 0 0.296444 0.0190711 0 0.296347 0.019292 0 0.296249 0.0195129 0 0.296151 0.0197338 0 0.296053 0.0199547 0 0.295956 0.0201756 0 0.295858 0.0203964 0 0.29576 0.0206173 0 0.295662 0.0208382 0 0.295564 0.0210591 0 0.295467 0.02128 0 0.299467 0.0177333 0 0.299418 0.0179404 0 0.299369 0.0181476 0 0.29932 0.0183547 0 0.299271 0.0185618 0 0.299222 0.0187689 0 0.299173 0.018976 0 0.299124 0.0191831 0 0.299076 0.0193902 0 0.299027 0.0195973 0 0.298978 0.0198044 0 0.298929 0.0200116 0 0.29888 0.0202187 0 0.298831 0.0204258 0 0.298782 0.0206329 0 0.298733 0.02084 0 0.302 0.0175 0 0.302 0.0176933 0 0.302 0.0178867 0 0.302 0.01808 0 0.302 0.0182733 0 0.302 0.0184667 0 0.302 0.01866 0 0.302 0.0188533 0 0.302 0.0190467 0 0.302 0.01924 0 0.302 0.0194333 0 0.302 0.0196267 0 0.302 0.01982 0 0.302 0.0200133 0 0.302 0.0202067 0 0.302 0.0204 0 
</DataArray>
</Points> 
</Piece> 
</StructuredGrid> 
</VTKFile> 
