<?xml version="1.0"?> 
<VTKFile type="StructuredGrid" version="0.1"> 
<StructuredGrid WholeExtent="0 15 0 15 0 0"> 
<Piece Extent="0 15 0 15 0 0"> 
<PointData>
<DataArray type="Float32" Name="E" format="ascii" NumberOfComponents="3"> 
216478 3.28335e+06 0 205845 3.27761e+06 0 192876 3.25938e+06 0 178140 3.23044e+06 0 162322 3.1933e+06 0 146047 3.15081e+06 0 129788 3.10574e+06 0 113838 3.06056e+06 0 98337.1 3.0173e+06 0 83316.8 2.97753e+06 0 68743.6 2.94243e+06 0 54550.4 2.91282e+06 0 40657.9 2.88928e+06 0 26985.6 2.87218e+06 0 13457.1 2.86175e+06 0 0 2.85813e+06 0 216272 3.28021e+06 0 213213 3.27336e+06 0 207056 3.25397e+06 0 197821 3.22401e+06 0 185889 3.18606e+06 0 171833 3.14299e+06 0 156256 3.09754e+06 0 139684 3.05212e+06 0 122527 3.00871e+06 0 105071 2.96886e+06 0 87497.9 2.9337e+06 0 69912.3 2.90405e+06 0 52364.8 2.88048e+06 0 34870.4 2.86337e+06 0 17421.9 2.85293e+06 0 0 2.8493e+06 0 216365 3.28164e+06 0 221102 3.27339e+06 0 221860 3.2522e+06 0 218119 3.22032e+06 0 209998 3.18059e+06 0 198055 3.13601e+06 0 183053 3.08935e+06 0 165771 3.04302e+06 0 146889 2.99895e+06 0 126946 2.95863e+06 0 106337 2.92314e+06 0 85332.6 2.89328e+06 0 64110.8 2.86957e+06 0 42779.1 2.85236e+06 0 21398.1 2.84187e+06 0 0 2.83823e+06 0 216774 3.28782e+06 0 229792 3.27786e+06 0 237760 3.25413e+06 0 239604 3.21937e+06 0 235223 3.17684e+06 0 225231 3.12978e+06 0 210613 3.0811e+06 0 192438 3.03321e+06 0 171676 2.98798e+06 0 149124 2.94682e+06 0 125386 2.91076e+06 0 100895 2.88049e+06 0 75949.1 2.85652e+06 0 50742.8 2.83915e+06 0 25399.9 2.82857e+06 0 0 2.8249e+06 0 217521 3.29917e+06 0 239596 3.28706e+06 0 255267 3.25992e+06 0 262867 3.22119e+06 0 262141 3.17474e+06 0 253867 3.12421e+06 0 239348 3.07269e+06 0 220001 3.02258e+06 0 197121 2.97571e+06 0 171770 2.93337e+06 0 144758 2.89649e+06 0 116674 2.86567e+06 0 87926.6 2.84133e+06 0 58788.7 2.82373e+06 0 29439.7 2.81304e+06 0 0 2.80932e+06 0 218647 3.31624e+06 0 250904 3.30144e+06 0 274990 3.26981e+06 0 288582 3.22582e+06 0 291382 3.1742e+06 0 284493 3.11913e+06 0 269669 3.06392e+06 0 248768 3.01098e+06 0 223444 2.96201e+06 0 195036 2.91818e+06 0 164556 2.88026e+06 0 132736 2.84875e+06 0 100084 2.82396e+06 0 66940 2.80609e+06 0 33527.9 2.79524e+06 0 0 2.79148e+06 0 220207 3.3399e+06 0 264219 3.32167e+06 0 297677 3.28414e+06 0 317534 3.2333e+06 0 323634 3.17507e+06 0 317653 3.11431e+06 0 301985 3.05456e+06 0 279028 2.99818e+06 0 250843 2.94671e+06 0 219053 2.90112e+06 0 184864 2.86199e+06 0 149134 2.82967e+06 0 112454 2.80437e+06 0 75214.2 2.78618e+06 0 37672.3 2.77517e+06 0 0 2.77136e+06 0 222279 3.37133e+06 0 280217 3.34862e+06 0 324288 3.3033e+06 0 350663 3.24361e+06 0 359668 3.1771e+06 0 353916 3.10942e+06 0 336686 3.04428e+06 0 311042 2.98391e+06 0 279487 2.92959e+06 0 243928 2.88202e+06 0 205747 2.84156e+06 0 165906 2.80836e+06 0 125056 2.7825e+06 0 83622 2.76398e+06 0 41877.1 2.7528e+06 0 0 2.74893e+06 0 224973 3.41219e+06 0 299850 3.3835e+06 0 356089 3.32777e+06 0 389115 3.25667e+06 0 400341 3.17992e+06 0 393860 3.10401e+06 0 374143 3.03267e+06 0 345034 2.96783e+06 0 309507 2.91039e+06 0 269735 2.8607e+06 0 227244 2.81883e+06 0 183070 2.78473e+06 0 137898 2.75831e+06 0 92165.7 2.73946e+06 0 46143 2.7281e+06 0 0 2.72417e+06 0 228450 3.46492e+06 0 324511 3.42795e+06 0 394795 3.35804e+06 0 434292 3.27221e+06 0 446597 3.18297e+06 0 438059 3.09749e+06 0 414677 3.01922e+06 0 381175 2.94954e+06 0 340987 2.88882e+06 0 296509 2.83695e+06 0 249364 2.79367e+06 0 200623 2.75869e+06 0 150974 2.73172e+06 0 100839 2.71256e+06 0 50466.1 2.70105e+06 0 0 2.69707e+06 0 232946 3.53311e+06 0 356326 3.48416e+06 0 442774 3.39447e+06 0 487896 3.28964e+06 0 499443 3.18538e+06 0 487039 3.08904e+06 0 458537 3.00328e+06 0 419565 2.92857e+06 0 373951 2.86453e+06 0 324238 2.81053e+06 0 272083 2.76592e+06 0 218541 2.73013e+06 0 164262 2.70269e+06 0 109626 2.68327e+06 0 54838 2.67162e+06 0 0 2.66761e+06 0 238838 3.62248e+06 0 398751 3.55512e+06 0 503324 3.43705e+06 0 551942 3.30781e+06 0 559883 3.18591e+06 0 541225 3.07767e+06 0 505860 2.98411e+06 0 460208 2.90439e+06 0 408352 2.83718e+06 0 352862 2.78123e+06 0 295342 2.73544e+06 0 236771 2.69896e+06 0 177721 2.67116e+06 0 118499 2.65155e+06 0 59245.6 2.63982e+06 0 0 2.63578e+06 0 246766 3.74272e+06 0 457568 3.64464e+06 0 581040 3.48467e+06 0 628655 3.32472e+06 0 628787 3.18284e+06 0 600857 3.06212e+06 0 556625 2.96087e+06 0 502996 2.87644e+06 0 444061 2.80641e+06 0 382261 2.74879e+06 0 319041 2.70207e+06 0 255237 2.66511e+06 0 191296 2.63708e+06 0 127424 2.61737e+06 0 63671.2 2.60562e+06 0 0 2.60157e+06 0 257986 3.9129e+06 0 543792 3.75646e+06 0 681888 3.53391e+06 0 720180 3.3372e+06 0 706682 3.17387e+06 0 665874 3.04095e+06 0 610606 2.93264e+06 0 547678 2.84416e+06 0 480861 2.77185e+06 0 412258 2.71302e+06 0 343044 2.66571e+06 0 273836 2.62851e+06 0 204916 2.60042e+06 0 136354 2.58075e+06 0 68092.5 2.56903e+06 0 0 2.565e+06 0 275270 4.17504e+06 0 677054 3.88992e+06 0 812865 3.57677e+06 0 827998 3.34076e+06 0 793452 3.15615e+06 0 735848 3.0126e+06 0 667327 2.89848e+06 0 593873 2.807e+06 0 518442 2.7332e+06 0 442622 2.67373e+06 0 367177 2.62624e+06 0 292445 2.58911e+06 0 218494 2.56118e+06 0 145235 2.54167e+06 0 72483.5 2.53007e+06 0 0 2.52609e+06 0 307076 4.65744e+06 0 905427 4.00692e+06 0 976286 3.60489e+06 0 952066 3.32795e+06 0 887963 3.12711e+06 0 809690 2.97537e+06 0 726056 2.85759e+06 0 640982 2.76449e+06 0 556401 2.69019e+06 0 473050 2.63077e+06 0 391229 2.58361e+06 0 310911 2.54689e+06 0 231927 2.51936e+06 0 154004 2.50017e+06 0 76813.5 2.48879e+06 0 0 2.48488e+06 0 </DataArray> 
</PointData> 
<Points> 
<DataArray type="Float32" NumberOfComponents="3"> 
0.2675 0.0625275 0 0.2675 0.0668924 0 0.2675 0.0712572 0 0.2675 0.075622 0 0.2675 0.0799869 0 0.2675 0.0843517 0 0.2675 0.0887165 0 0.2675 0.0930814 0 0.2675 0.0974462 0 0.2675 0.101811 0 0.2675 0.106176 0 0.2675 0.110541 0 0.2675 0.114906 0 0.2675 0.11927 0 0.2675 0.123635 0 0.2675 0.128 0 0.27 0.0623627 0 0.27 0.0667385 0 0.27 0.0711144 0 0.27 0.0754902 0 0.27 0.079866 0 0.27 0.0842418 0 0.27 0.0886176 0 0.27 0.0929934 0 0.27 0.0973693 0 0.27 0.101745 0 0.27 0.106121 0 0.27 0.110497 0 0.27 0.114873 0 0.27 0.119248 0 0.27 0.123624 0 0.27 0.128 0 0.2725 0.0621979 0 0.2725 0.0665847 0 0.2725 0.0709715 0 0.2725 0.0753583 0 0.2725 0.0797451 0 0.2725 0.0841319 0 0.2725 0.0885187 0 0.2725 0.0929055 0 0.2725 0.0972923 0 0.2725 0.101679 0 0.2725 0.106066 0 0.2725 0.110453 0 0.2725 0.11484 0 0.2725 0.119226 0 0.2725 0.123613 0 0.2725 0.128 0 0.275 0.0620331 0 0.275 0.0664308 0 0.275 0.0708286 0 0.275 0.0752264 0 0.275 0.0796242 0 0.275 0.084022 0 0.275 0.0884198 0 0.275 0.0928176 0 0.275 0.0972154 0 0.275 0.101613 0 0.275 0.106011 0 0.275 0.110409 0 0.275 0.114807 0 0.275 0.119204 0 0.275 0.123602 0 0.275 0.128 0 0.2775 0.0618682 0 0.2775 0.066277 0 0.2775 0.0706858 0 0.2775 0.0750946 0 0.2775 0.0795034 0 0.2775 0.0839121 0 0.2775 0.0883209 0 0.2775 0.0927297 0 0.2775 0.0971385 0 0.2775 0.101547 0 0.2775 0.105956 0 0.2775 0.110365 0 0.2775 0.114774 0 0.2775 0.119182 0 0.2775 0.123591 0 0.2775 0.128 0 0.28 0.0617034 0 0.28 0.0661232 0 0.28 0.0705429 0 0.28 0.0749627 0 0.28 0.0793825 0 0.28 0.0838023 0 0.28 0.088222 0 0.28 0.0926418 0 0.28 0.0970616 0 0.28 0.101481 0 0.28 0.105901 0 0.28 0.110321 0 0.28 0.114741 0 0.28 0.11916 0 0.28 0.12358 0 0.28 0.128 0 0.2825 0.0615386 0 0.2825 0.0659693 0 0.2825 0.0704001 0 0.2825 0.0748308 0 0.2825 0.0792616 0 0.2825 0.0836924 0 0.2825 0.0881231 0 0.2825 0.0925539 0 0.2825 0.0969847 0 0.2825 0.101415 0 0.2825 0.105846 0 0.2825 0.110277 0 0.2825 0.114708 0 0.2825 0.119138 0 0.2825 0.123569 0 0.2825 0.128 0 0.285 0.0613737 0 0.285 0.0658155 0 0.285 0.0702572 0 0.285 0.074699 0 0.285 0.0791407 0 0.285 0.0835825 0 0.285 0.0880242 0 0.285 0.092466 0 0.285 0.0969077 0 0.285 0.101349 0 0.285 0.105791 0 0.285 0.110233 0 0.285 0.114675 0 0.285 0.119116 0 0.285 0.123558 0 0.285 0.128 0 0.2875 0.0612089 0 0.2875 0.0656616 0 0.2875 0.0701144 0 0.2875 0.0745671 0 0.2875 0.0790199 0 0.2875 0.0834726 0 0.2875 0.0879253 0 0.2875 0.0923781 0 0.2875 0.0968308 0 0.2875 0.101284 0 0.2875 0.105736 0 0.2875 0.110189 0 0.2875 0.114642 0 0.2875 0.119095 0 0.2875 0.123547 0 0.2875 0.128 0 0.29 0.0610441 0 0.29 0.0655078 0 0.29 0.0699715 0 0.29 0.0744353 0 0.29 0.078899 0 0.29 0.0833627 0 0.29 0.0878264 0 0.29 0.0922902 0 0.29 0.0967539 0 0.29 0.101218 0 0.29 0.105681 0 0.29 0.110145 0 0.29 0.114609 0 0.29 0.119073 0 0.29 0.123536 0 0.29 0.128 0 0.2925 0.0608792 0 0.2925 0.065354 0 0.2925 0.0698287 0 0.2925 0.0743034 0 0.2925 0.0787781 0 0.2925 0.0832528 0 0.2925 0.0877275 0 0.2925 0.0922023 0 0.2925 0.096677 0 0.2925 0.101152 0 0.2925 0.105626 0 0.2925 0.110101 0 0.2925 0.114576 0 0.2925 0.119051 0 0.2925 0.123525 0 0.2925 0.128 0 0.295 0.0607144 0 0.295 0.0652001 0 0.295 0.0696858 0 0.295 0.0741715 0 0.295 0.0786572 0 0.295 0.0831429 0 0.295 0.0876286 0 0.295 0.0921144 0 0.295 0.0966001 0 0.295 0.101086 0 0.295 0.105571 0 0.295 0.110057 0 0.295 0.114543 0 0.295 0.119029 0 0.295 0.123514 0 0.295 0.128 0 0.2975 0.0605496 0 0.2975 0.0650463 0 0.2975 0.069543 0 0.2975 0.0740397 0 0.2975 0.0785364 0 0.2975 0.0830331 0 0.2975 0.0875297 0 0.2975 0.0920264 0 0.2975 0.0965231 0 0.2975 0.10102 0 0.2975 0.105517 0 0.2975 0.110013 0 0.2975 0.11451 0 0.2975 0.119007 0 0.2975 0.123503 0 0.2975 0.128 0 0.3 0.0603847 0 0.3 0.0648924 0 0.3 0.0694001 0 0.3 0.0739078 0 0.3 0.0784155 0 0.3 0.0829232 0 0.3 0.0874308 0 0.3 0.0919385 0 0.3 0.0964462 0 0.3 0.100954 0 0.3 0.105462 0 0.3 0.109969 0 0.3 0.114477 0 0.3 0.118985 0 0.3 0.123492 0 0.3 0.128 0 0.3025 0.0602199 0 0.3025 0.0647386 0 0.3025 0.0692573 0 0.3025 0.0737759 0 0.3025 0.0782946 0 0.3025 0.0828133 0 0.3025 0.0873319 0 0.3025 0.0918506 0 0.3025 0.0963693 0 0.3025 0.100888 0 0.3025 0.105407 0 0.3025 0.109925 0 0.3025 0.114444 0 0.3025 0.118963 0 0.3025 0.123481 0 0.3025 0.128 0 0.305 0.0600551 0 0.305 0.0645847 0 0.305 0.0691144 0 0.305 0.0736441 0 0.305 0.0781737 0 0.305 0.0827034 0 0.305 0.0872331 0 0.305 0.0917627 0 0.305 0.0962924 0 0.305 0.100822 0 0.305 0.105352 0 0.305 0.109881 0 0.305 0.114411 0 0.305 0.118941 0 0.305 0.12347 0 0.305 0.128 0 
</DataArray>
</Points> 
</Piece> 
</StructuredGrid> 
</VTKFile> 
