<?xml version="1.0"?> 
<VTKFile type="StructuredGrid" version="0.1"> 
<StructuredGrid WholeExtent="0 15 0 15 0 0"> 
<Piece Extent="0 15 0 15 0 0"> 
<PointData>
<DataArray type="Float32" Name="|E|" format="ascii" NumberOfComponents="3"> 
-352783 0 0 -353467 -0.159679 0 -355521 -0.31893 0 -358953 -0.477292 0 -363772 -0.634236 0 -369995 -0.789134 0 -377643 -0.941221 0 -386739 -1.08955 0 -397313 -1.23297 0 -409397 -1.37005 0 -423029 -1.49906 0 -438248 -1.61791 0 -455100 -1.72411 0 -473631 -1.8147 0 -493892 -1.88625 0 -515935 -1.93483 0 -350885 0 0 -351566 2277.14 0 -353611 4561.82 0 -357026 6861.57 0 -361824 9183.88 0 -368019 11536.2 0 -375633 13925.7 0 -384689 16359.9 0 -395217 18845.5 0 -407250 21389.5 0 -420825 23998.5 0 -435982 26678.5 0 -452768 29435.3 0 -471229 32274 0 -491417 35199 0 -513384 38213.8 0 -345209 0 0 -345880 4533.24 0 -347897 9081.62 0 -351265 13660.2 0 -355997 18284.1 0 -362108 22968.2 0 -369619 27727.3 0 -378555 32575.8 0 -388945 37528.1 0 -400823 42597.9 0 -414227 47798.5 0 -429198 53142.5 0 -445784 58641.7 0 -464033 64306.6 0 -483999 70146.6 0 -505736 76169.2 0 -335807 0 0 -336462 6747.26 0 -338431 13517.3 0 -341721 20333 0 -346342 27217 0 -352312 34191.9 0 -359651 41280 0 -368384 48503.4 0 -378543 55883.7 0 -390160 63442.2 0 -403276 71199.3 0 -417935 79174.6 0 -434183 87386.3 0 -452073 95851.5 0 -471660 104585 0 -493005 113600 0 -322767 0 0 -323400 8897.81 0 -325302 17826.2 0 -328480 26815.9 0 -332946 35897.2 0 -338717 45100.6 0 -345813 54456.3 0 -354260 63994.2 0 -364091 73743.7 0 -375339 83733.9 0 -388046 93993 0 -402258 104548 0 -418024 115425 0 -435399 126648 0 -454443 138240 0 -475220 150219 0 -306212 0 0 -306817 10963.3 0 -308632 21965.1 0 -311667 33043.8 0 -315932 44238 0 -321444 55586 0 -328224 67126.1 0 -336300 78896.3 0 -345704 90934.4 0 -356470 103278 0 -368642 115963 0 -382267 129026 0 -397398 142500 0 -414092 156420 0 -432414 170815 0 -452433 185714 0 -286303 0 0 -286873 12921.8 0 -288582 25890 0 -291440 38951 0 -295457 52151.4 0 -300650 65537.7 0 -307042 79156.3 0 -314659 93053.9 0 -323533 107277 0 -333702 121871 0 -345208 136883 0 -358100 152357 0 -372433 168338 0 -388269 184868 0 -405676 201989 0 -424726 219740 0 -263237 0 0 -263764 14751.3 0 -265348 29556.9 0 -267995 44471.2 0 -271718 59548.6 0 -276533 74843.8 0 -282462 90411.8 0 -289531 106308 0 -297772 122587 0 -307223 139304 0 -317927 156517 0 -329935 174279 0 -343301 192646 0 -358090 211673 0 -374373 231413 0 -392228 251917 0 -237246 0 0 -237725 16430.1 0 -239163 32922.2 0 -241568 49538.4 0 -244951 66340.9 0 -249327 83392.6 0 -254719 100757 0 -261151 118497 0 -268655 136678 0 -277268 155365 0 -287033 174623 0 -298000 194520 0 -310224 215122 0 -323769 236496 0 -338709 258711 0 -355124 281832 0 -208600 0 0 -209024 17937 0 -210298 35943.2 0 -212429 54088.2 0 -215427 72441.7 0 -219307 91074.2 0 -224089 110057 0 -229798 129463 0 -236463 149364 0 -244120 169837 0 -252809 190957 0 -262578 212802 0 -273481 235452 0 -285583 258987 0 -298954 283490 0 -313674 309045 0 -177601 0 0 -177965 19251.7 0 -179057 38579.4 0 -180884 58059.2 0 -183456 77768 0 -186785 97783.5 0 -190891 118185 0 -195794 139051 0 -201523 160466 0 -208109 182513 0 -215590 205278 0 -224010 228851 0 -233420 253323 0 -243880 278789 0 -255456 305348 0 -268225 333101 0 -144586 0 0 -144884 20355.8 0 -145779 40793.4 0 -147276 61395 0 -149383 82243.6 0 -152113 103423 0 -155479 125020 0 -159503 147120 0 -164206 169815 0 -169616 193196 0 -175768 217359 0 -182698 242404 0 -190453 268435 0 -199083 295560 0 -208650 323892 0 -219221 353552 0 -109920 0 0 -110147 21232.8 0 -110831 42552.4 0 -111975 64045.8 0 -113586 85801 0 -115673 107908 0 -118248 130456 0 -121327 153541 0 -124927 177259 0 -129072 201709 0 -133787 226994 0 -139104 253225 0 -145059 280514 0 -151695 308982 0 -159059 338756 0 -167209 369972 0 -73991.6 0 0 -74145.3 21869.5 0 -74607.5 43829.3 0 -75380.6 65970.3 0 -76469.4 88384.3 0 -77880.2 111165 0 -79621.4 134407 0 -81703.7 158209 0 -84140 182673 0 -86945.9 207903 0 -90139.9 234010 0 -93743.7 261110 0 -97782.8 289324 0 -102287 318782 0 -107291 349623 0 -112836 381995 0 -37210.7 0 0 -37288.2 22255.6 0 -37521.1 44603.8 0 -37910.9 67137.8 0 -38459.8 89951.6 0 -39171.2 113141 0 -40049.3 136805 0 -41099.7 161043 0 -42328.9 185961 0 -43745 211667 0 -45357.4 238275 0 -47177.5 265906 0 -49218.4 294686 0 -51495.4 324752 0 -54026.9 356248 0 -56833.7 389331 0 0 0 0 0 22385.1 0 0 44863.5 0 0 67529.1 0 0 90477.1 0 0 113804 0 0 137609 0 0 161994 0 0 187064 0 0 212930 0 0 239706 0 0 267516 0 0 296487 0 0 326757 0 0 358474 0 0 391798 0 </DataArray> 
</PointData> 
<Points> 
<DataArray type="Float32" NumberOfComponents="3"> 
0 0 0 0.0004 0 0 0.0008 0 0 0.0012 0 0 0.0016 0 0 0.002 0 0 0.0024 0 0 0.0028 0 0 0.0032 0 0 0.0036 0 0 0.004 0 0 0.0044 0 0 0.0048 0 0 0.0052 0 0 0.0056 0 0 0.006 0 0 0 0.000666667 0 0.0004 0.000666667 0 0.0008 0.000666667 0 0.0012 0.000666667 0 0.0016 0.000666667 0 0.002 0.000666667 0 0.0024 0.000666667 0 0.0028 0.000666667 0 0.0032 0.000666667 0 0.0036 0.000666667 0 0.004 0.000666667 0 0.0044 0.000666667 0 0.0048 0.000666667 0 0.0052 0.000666667 0 0.0056 0.000666667 0 0.006 0.000666667 0 0 0.00133333 0 0.0004 0.00133333 0 0.0008 0.00133333 0 0.0012 0.00133333 0 0.0016 0.00133333 0 0.002 0.00133333 0 0.0024 0.00133333 0 0.0028 0.00133333 0 0.0032 0.00133333 0 0.0036 0.00133333 0 0.004 0.00133333 0 0.0044 0.00133333 0 0.0048 0.00133333 0 0.0052 0.00133333 0 0.0056 0.00133333 0 0.006 0.00133333 0 0 0.002 0 0.0004 0.002 0 0.0008 0.002 0 0.0012 0.002 0 0.0016 0.002 0 0.002 0.002 0 0.0024 0.002 0 0.0028 0.002 0 0.0032 0.002 0 0.0036 0.002 0 0.004 0.002 0 0.0044 0.002 0 0.0048 0.002 0 0.0052 0.002 0 0.0056 0.002 0 0.006 0.002 0 0 0.00266667 0 0.0004 0.00266667 0 0.0008 0.00266667 0 0.0012 0.00266667 0 0.0016 0.00266667 0 0.002 0.00266667 0 0.0024 0.00266667 0 0.0028 0.00266667 0 0.0032 0.00266667 0 0.0036 0.00266667 0 0.004 0.00266667 0 0.0044 0.00266667 0 0.0048 0.00266667 0 0.0052 0.00266667 0 0.0056 0.00266667 0 0.006 0.00266667 0 0 0.00333333 0 0.0004 0.00333333 0 0.0008 0.00333333 0 0.0012 0.00333333 0 0.0016 0.00333333 0 0.002 0.00333333 0 0.0024 0.00333333 0 0.0028 0.00333333 0 0.0032 0.00333333 0 0.0036 0.00333333 0 0.004 0.00333333 0 0.0044 0.00333333 0 0.0048 0.00333333 0 0.0052 0.00333333 0 0.0056 0.00333333 0 0.006 0.00333333 0 0 0.004 0 0.0004 0.004 0 0.0008 0.004 0 0.0012 0.004 0 0.0016 0.004 0 0.002 0.004 0 0.0024 0.004 0 0.0028 0.004 0 0.0032 0.004 0 0.0036 0.004 0 0.004 0.004 0 0.0044 0.004 0 0.0048 0.004 0 0.0052 0.004 0 0.0056 0.004 0 0.006 0.004 0 0 0.00466667 0 0.0004 0.00466667 0 0.0008 0.00466667 0 0.0012 0.00466667 0 0.0016 0.00466667 0 0.002 0.00466667 0 0.0024 0.00466667 0 0.0028 0.00466667 0 0.0032 0.00466667 0 0.0036 0.00466667 0 0.004 0.00466667 0 0.0044 0.00466667 0 0.0048 0.00466667 0 0.0052 0.00466667 0 0.0056 0.00466667 0 0.006 0.00466667 0 0 0.00533333 0 0.0004 0.00533333 0 0.0008 0.00533333 0 0.0012 0.00533333 0 0.0016 0.00533333 0 0.002 0.00533333 0 0.0024 0.00533333 0 0.0028 0.00533333 0 0.0032 0.00533333 0 0.0036 0.00533333 0 0.004 0.00533333 0 0.0044 0.00533333 0 0.0048 0.00533333 0 0.0052 0.00533333 0 0.0056 0.00533333 0 0.006 0.00533333 0 0 0.006 0 0.0004 0.006 0 0.0008 0.006 0 0.0012 0.006 0 0.0016 0.006 0 0.002 0.006 0 0.0024 0.006 0 0.0028 0.006 0 0.0032 0.006 0 0.0036 0.006 0 0.004 0.006 0 0.0044 0.006 0 0.0048 0.006 0 0.0052 0.006 0 0.0056 0.006 0 0.006 0.006 0 0 0.00666667 0 0.0004 0.00666667 0 0.0008 0.00666667 0 0.0012 0.00666667 0 0.0016 0.00666667 0 0.002 0.00666667 0 0.0024 0.00666667 0 0.0028 0.00666667 0 0.0032 0.00666667 0 0.0036 0.00666667 0 0.004 0.00666667 0 0.0044 0.00666667 0 0.0048 0.00666667 0 0.0052 0.00666667 0 0.0056 0.00666667 0 0.006 0.00666667 0 0 0.00733333 0 0.0004 0.00733333 0 0.0008 0.00733333 0 0.0012 0.00733333 0 0.0016 0.00733333 0 0.002 0.00733333 0 0.0024 0.00733333 0 0.0028 0.00733333 0 0.0032 0.00733333 0 0.0036 0.00733333 0 0.004 0.00733333 0 0.0044 0.00733333 0 0.0048 0.00733333 0 0.0052 0.00733333 0 0.0056 0.00733333 0 0.006 0.00733333 0 0 0.008 0 0.0004 0.008 0 0.0008 0.008 0 0.0012 0.008 0 0.0016 0.008 0 0.002 0.008 0 0.0024 0.008 0 0.0028 0.008 0 0.0032 0.008 0 0.0036 0.008 0 0.004 0.008 0 0.0044 0.008 0 0.0048 0.008 0 0.0052 0.008 0 0.0056 0.008 0 0.006 0.008 0 0 0.00866667 0 0.0004 0.00866667 0 0.0008 0.00866667 0 0.0012 0.00866667 0 0.0016 0.00866667 0 0.002 0.00866667 0 0.0024 0.00866667 0 0.0028 0.00866667 0 0.0032 0.00866667 0 0.0036 0.00866667 0 0.004 0.00866667 0 0.0044 0.00866667 0 0.0048 0.00866667 0 0.0052 0.00866667 0 0.0056 0.00866667 0 0.006 0.00866667 0 0 0.00933333 0 0.0004 0.00933333 0 0.0008 0.00933333 0 0.0012 0.00933333 0 0.0016 0.00933333 0 0.002 0.00933333 0 0.0024 0.00933333 0 0.0028 0.00933333 0 0.0032 0.00933333 0 0.0036 0.00933333 0 0.004 0.00933333 0 0.0044 0.00933333 0 0.0048 0.00933333 0 0.0052 0.00933333 0 0.0056 0.00933333 0 0.006 0.00933333 0 0 0.01 0 0.0004 0.01 0 0.0008 0.01 0 0.0012 0.01 0 0.0016 0.01 0 0.002 0.01 0 0.0024 0.01 0 0.0028 0.01 0 0.0032 0.01 0 0.0036 0.01 0 0.004 0.01 0 0.0044 0.01 0 0.0048 0.01 0 0.0052 0.01 0 0.0056 0.01 0 0.006 0.01 0 
</DataArray>
</Points> 
</Piece> 
</StructuredGrid> 
</VTKFile> 
