<?xml version="1.0"?> 
<VTKFile type="StructuredGrid" version="0.1"> 
<StructuredGrid WholeExtent="0 15 0 15 0 0"> 
<Piece Extent="0 15 0 15 0 0"> 
<PointData>
<DataArray type="Float32" Name="|E|" format="ascii" NumberOfComponents="3"> 
-1.48426e+06 1.94024e+06 0 -1.53429e+06 2.00162e+06 0 -1.58629e+06 2.06096e+06 0 -1.64083e+06 2.11769e+06 0 -1.69873e+06 2.1711e+06 0 -1.76108e+06 2.22031e+06 0 -1.82935e+06 2.2641e+06 0 -1.90566e+06 2.30095e+06 0 -1.99275e+06 2.32864e+06 0 -2.09489e+06 2.34373e+06 0 -2.21822e+06 2.34127e+06 0 -2.37226e+06 2.31087e+06 0 -2.57581e+06 2.23322e+06 0 -2.86037e+06 2.06119e+06 0 -3.35328e+06 1.62953e+06 0 -4.59837e+06 -34075.4 0 -1.41185e+06 2.05458e+06 0 -1.46701e+06 2.10902e+06 0 -1.52466e+06 2.16212e+06 0 -1.58539e+06 2.21345e+06 0 -1.65e+06 2.26241e+06 0 -1.71959e+06 2.30828e+06 0 -1.79562e+06 2.35006e+06 0 -1.88016e+06 2.3864e+06 0 -1.97612e+06 2.41538e+06 0 -2.08777e+06 2.43406e+06 0 -2.22172e+06 2.43781e+06 0 -2.38854e+06 2.41823e+06 0 -2.60821e+06 2.35869e+06 0 -2.92195e+06 2.22163e+06 0 -3.45777e+06 1.88896e+06 0 -4.89441e+06 819165 0 -1.33617e+06 2.17498e+06 0 -1.39589e+06 2.22392e+06 0 -1.45853e+06 2.27213e+06 0 -1.52468e+06 2.31926e+06 0 -1.59519e+06 2.36487e+06 0 -1.67112e+06 2.40838e+06 0 -1.754e+06 2.449e+06 0 -1.84588e+06 2.48562e+06 0 -1.94979e+06 2.51668e+06 0 -2.07009e+06 2.53974e+06 0 -2.21372e+06 2.55105e+06 0 -2.39197e+06 2.54384e+06 0 -2.62579e+06 2.50549e+06 0 -2.96122e+06 2.40835e+06 0 -3.52423e+06 2.17946e+06 0 -4.94582e+06 1.61694e+06 0 -1.25473e+06 2.30034e+06 0 -1.31844e+06 2.34498e+06 0 -1.3854e+06 2.3894e+06 0 -1.45623e+06 2.43337e+06 0 -1.53178e+06 2.47657e+06 0 -1.61315e+06 2.51859e+06 0 -1.70187e+06 2.55883e+06 0 -1.80005e+06 2.59649e+06 0 -1.91073e+06 2.63037e+06 0 -2.03838e+06 2.65866e+06 0 -2.19009e+06 2.67859e+06 0 -2.37752e+06 2.68524e+06 0 -2.62198e+06 2.67009e+06 0 -2.96994e+06 2.61588e+06 0 -3.53957e+06 2.48803e+06 0 -4.82534e+06 2.29343e+06 0 -1.16572e+06 2.42856e+06 0 -1.23287e+06 2.46983e+06 0 -1.30351e+06 2.51134e+06 0 -1.37829e+06 2.55296e+06 0 -1.45805e+06 2.5945e+06 0 -1.54392e+06 2.63571e+06 0 -1.63743e+06 2.6762e+06 0 -1.74069e+06 2.71547e+06 0 -1.85675e+06 2.75273e+06 0 -1.99011e+06 2.78684e+06 0 -2.1478e+06 2.81603e+06 0 -2.34147e+06 2.83736e+06 0 -2.59196e+06 2.84613e+06 0 -2.94306e+06 2.83453e+06 0 -3.4989e+06 2.79675e+06 0 -4.6067e+06 2.83643e+06 0 -1.0684e+06 2.55688e+06 0 -1.13851e+06 2.59545e+06 0 -1.21226e+06 2.63469e+06 0 -1.29031e+06 2.67453e+06 0 -1.3735e+06 2.71493e+06 0 -1.46296e+06 2.75578e+06 0 -1.56021e+06 2.79692e+06 0 -1.66732e+06 2.8381e+06 0 -1.7873e+06 2.87899e+06 0 -1.92455e+06 2.91907e+06 0 -2.0859e+06 2.9576e+06 0 -2.28256e+06 2.99345e+06 0 -2.53427e+06 3.02533e+06 0 -2.88032e+06 3.05294e+06 0 -3.4075e+06 3.08886e+06 0 -4.34446e+06 3.26279e+06 0 -963292 2.68254e+06 0 -1.03598e+06 2.71884e+06 0 -1.11238e+06 2.75618e+06 0 -1.19313e+06 2.79459e+06 0 -1.27909e+06 2.83413e+06 0 -1.37134e+06 2.87483e+06 0 -1.47137e+06 2.91672e+06 0 -1.5812e+06 2.95984e+06 0 -1.70371e+06 3.00424e+06 0 -1.84311e+06 3.04998e+06 0 -2.00587e+06 3.09727e+06 0 -2.20249e+06 3.1466e+06 0 -2.45107e+06 3.19947e+06 0 -2.78595e+06 3.26099e+06 0 -3.27702e+06 3.35336e+06 0 -4.07141e+06 3.59802e+06 0 -851959 2.80327e+06 0 -926983 2.8375e+06 0 -1.0057e+06 2.87311e+06 0 -1.08874e+06 2.91022e+06 0 -1.17694e+06 2.94896e+06 0 -1.27135e+06 2.9895e+06 0 -1.3734e+06 3.03205e+06 0 -1.48502e+06 3.07686e+06 0 -1.60891e+06 3.12433e+06 0 -1.74901e+06 3.17503e+06 0 -1.91129e+06 3.22998e+06 0 -2.10533e+06 3.29102e+06 0 -2.34738e+06 3.36192e+06 0 -2.66706e+06 3.45147e+06 0 -3.12041e+06 3.58575e+06 0 -3.80405e+06 3.86584e+06 0 -736624 2.91764e+06 0 -813872 2.9498e+06 0 -894718 2.98367e+06 0 -979788 3.01942e+06 0 -1.06988e+06 3.05728e+06 0 -1.16602e+06 3.09751e+06 0 -1.26956e+06 3.14044e+06 0 -1.3823e+06 3.18653e+06 0 -1.50675e+06 3.23643e+06 0 -1.6465e+06 3.29114e+06 0 -1.80693e+06 3.35231e+06 0 -1.99656e+06 3.42287e+06 0 -2.22967e+06 3.50838e+06 0 -2.53167e+06 3.62033e+06 0 -2.9486e+06 3.78592e+06 0 -3.54887e+06 4.08477e+06 0 -619733 3.02507e+06 0 -699211 3.055e+06 0 -782126 3.08697e+06 0 -869094 3.12119e+06 0 -960893 3.15797e+06 0 -1.05851e+06 3.19763e+06 0 -1.16321e+06 3.24061e+06 0 -1.27668e+06 3.2875e+06 0 -1.40121e+06 3.33913e+06 0 -1.54001e+06 3.3968e+06 0 -1.69782e+06 3.46263e+06 0 -1.88198e+06 3.54035e+06 0 -2.10466e+06 3.6369e+06 0 -2.38746e+06 3.76598e+06 0 -2.76962e+06 3.95572e+06 0 -3.3069e+06 4.26801e+06 0 -503646 3.12575e+06 0 -585443 3.15311e+06 0 -670450 3.18287e+06 0 -759284 3.2153e+06 0 -852708 3.25072e+06 0 -951675 3.28952e+06 0 -1.05739e+06 3.3322e+06 0 -1.17142e+06 3.37943e+06 0 -1.29583e+06 3.43215e+06 0 -1.43348e+06 3.49184e+06 0 -1.58844e+06 3.56086e+06 0 -1.76682e+06 3.64344e+06 0 -1.97857e+06 3.74746e+06 0 -2.24133e+06 3.88849e+06 0 -2.58915e+06 4.09711e+06 0 -3.07635e+06 4.42419e+06 0 -390475 3.22036e+06 0 -474717 3.24464e+06 0 -561878 3.27176e+06 0 -652587 3.30202e+06 0 -747609 3.33576e+06 0 -847878 3.37339e+06 0 -954554 3.41546e+06 0 -1.0691e+06 3.46265e+06 0 -1.19341e+06 3.51595e+06 0 -1.32998e+06 3.57688e+06 0 -1.48227e+06 3.64791e+06 0 -1.65522e+06 3.73337e+06 0 -1.85648e+06 3.84158e+06 0 -2.09935e+06 3.98924e+06 0 -2.41178e+06 4.21133e+06 0 -2.85404e+06 4.55812e+06 0 -282043 3.30993e+06 0 -368849 3.33041e+06 0 -458209 3.3543e+06 0 -550790 3.38192e+06 0 -647378 3.4136e+06 0 -748910 3.44977e+06 0 -856521 3.49094e+06 0 -971604 3.5378e+06 0 -1.0959e+06 3.59133e+06 0 -1.23164e+06 3.65298e+06 0 -1.3817e+06 3.72516e+06 0 -1.55003e+06 3.81204e+06 0 -1.74202e+06 3.92176e+06 0 -1.96657e+06 4.07093e+06 0 -2.24238e+06 4.29899e+06 0 -2.63599e+06 4.67097e+06 0 -179922 3.39565e+06 0 -269341 3.41136e+06 0 -360882 3.43128e+06 0 -455271 3.45567e+06 0 -553342 3.48487e+06 0 -656057 3.51925e+06 0 -764552 3.55929e+06 0 -880180 3.60563e+06 0 -1.00457e+06 3.65917e+06 0 -1.13975e+06 3.72125e+06 0 -1.28811e+06 3.79407e+06 0 -1.45283e+06 3.88146e+06 0 -1.63736e+06 3.99079e+06 0 -1.84633e+06 4.13752e+06 0 -2.087e+06 4.36123e+06 0 -2.41714e+06 4.75905e+06 0 -85489 3.4788e+06 0 -177444 3.48849e+06 0 -271027 3.50348e+06 0 -367055 3.52395e+06 0 -466433 3.55016e+06 0 -570176 3.58243e+06 0 -679439 3.62114e+06 0 -795573 3.66685e+06 0 -920133 3.7203e+06 0 -1.05496e+06 3.78273e+06 0 -1.20222e+06 3.85593e+06 0 -1.36406e+06 3.94343e+06 0 -1.54347e+06 4.05131e+06 0 -1.73984e+06 4.19337e+06 0 -1.95223e+06 4.40201e+06 0 -2.18961e+06 4.80824e+06 0 0.408188 3.56063e+06 0 -94207.1 3.56272e+06 0 -189519 3.57161e+06 0 -286876 3.58735e+06 0 -387274 3.61003e+06 0 -491796 3.63985e+06 0 -601651 3.67706e+06 0 -718175 3.72206e+06 0 -842930 3.77547e+06 0 -977589 3.8382e+06 0 -1.12406e+06 3.91191e+06 0 -1.2843e+06 3.99923e+06 0 -1.45911e+06 4.10557e+06 0 -1.64903e+06 4.24176e+06 0 -1.83968e+06 4.43172e+06 0 -1.93793e+06 4.77702e+06 0 </DataArray> 
</PointData> 
<Points> 
<DataArray type="Float32" NumberOfComponents="3"> 
0.0678 0.0673333 0 0.0700736 0.066202 0 0.0723472 0.0650706 0 0.0746208 0.0639392 0 0.0768944 0.0628079 0 0.079168 0.0616765 0 0.0814417 0.0605451 0 0.0837153 0.0594138 0 0.0859889 0.0582824 0 0.0882625 0.057151 0 0.0905361 0.0560197 0 0.0928097 0.0548883 0 0.0950833 0.0537569 0 0.0973569 0.0526256 0 0.0996305 0.0514942 0 0.101904 0.0503628 0 0.0708133 0.0703111 0 0.0728182 0.0690609 0 0.0748329 0.0678046 0 0.0768574 0.0665421 0 0.0788919 0.0652734 0 0.0809364 0.0639985 0 0.082991 0.0627173 0 0.0850557 0.0614297 0 0.0871306 0.0601358 0 0.0892159 0.0588355 0 0.0913115 0.0575286 0 0.0934177 0.0562153 0 0.0955343 0.0548954 0 0.0976616 0.0535688 0 0.0997996 0.0522356 0 0.101948 0.0508956 0 0.0738267 0.0732889 0 0.0755916 0.0719274 0 0.0773726 0.0705536 0 0.07917 0.0691672 0 0.0809838 0.067768 0 0.0828144 0.0663559 0 0.084662 0.0649308 0 0.0865267 0.0634923 0 0.088409 0.0620404 0 0.0903089 0.0605748 0 0.0922269 0.0590953 0 0.094163 0.0576018 0 0.0961176 0.0560941 0 0.0980909 0.0545719 0 0.100083 0.053035 0 0.102095 0.0514833 0 0.07684 0.0762667 0 0.0783911 0.0747987 0 0.0799618 0.0733121 0 0.0815525 0.0718066 0 0.0831636 0.0702818 0 0.0847955 0.0687373 0 0.0864486 0.0671728 0 0.0881232 0.0655878 0 0.0898199 0.063982 0 0.0915391 0.062355 0 0.0932812 0.0607062 0 0.0950467 0.0590353 0 0.096836 0.0573418 0 0.0986496 0.0556253 0 0.100488 0.0538853 0 0.102352 0.0521213 0 0.0798533 0.0792444 0 0.0812138 0.0776716 0 0.0825954 0.0760744 0 0.0839986 0.0744521 0 0.0854238 0.0728044 0 0.0868718 0.0711304 0 0.0883428 0.0694297 0 0.0898377 0.0677015 0 0.0913568 0.0659452 0 0.0929009 0.0641601 0 0.0944705 0.0623455 0 0.0960662 0.0605007 0 0.0976889 0.0586248 0 0.099339 0.0567171 0 0.101017 0.0547767 0 0.102725 0.0528029 0 0.0828667 0.0822222 0 0.0840569 0.0805432 0 0.0852682 0.0788345 0 0.0865011 0.0770954 0 0.0877561 0.075325 0 0.089034 0.0735225 0 0.0903352 0.0716869 0 0.0916604 0.0698175 0 0.0930104 0.0679132 0 0.0943858 0.065973 0 0.0957873 0.063996 0 0.0972158 0.061981 0 0.0986719 0.059927 0 0.100156 0.0578328 0 0.10167 0.0556972 0 0.103214 0.053519 0 0.08588 0.0852 0 0.0869175 0.0834105 0 0.0879749 0.0815867 0 0.0890526 0.0797278 0 0.0901514 0.0778327 0 0.0912717 0.0759003 0 0.0924143 0.0739296 0 0.0935798 0.0719193 0 0.0947689 0.0698682 0 0.0959824 0.0677752 0 0.097221 0.0656389 0 0.0984855 0.063458 0 0.0997766 0.0612309 0 0.101095 0.0589564 0 0.102443 0.0566327 0 0.103819 0.0542584 0 0.0888933 0.0881778 0 0.0897926 0.0862703 0 0.0907098 0.0843251 0 0.0916452 0.0823409 0 0.0925996 0.0803166 0 0.0935736 0.0782509 0 0.0945676 0.0761426 0 0.0955823 0.0739902 0 0.0966185 0.0717926 0 0.0976767 0.0695481 0 0.0987577 0.0672552 0 0.0998622 0.0649125 0 0.100991 0.0625182 0 0.102145 0.0600707 0 0.103325 0.057568 0 0.104532 0.0550084 0 0.0919067 0.0911556 0 0.0926792 0.0891199 0 0.0934671 0.0870438 0 0.0942707 0.0849262 0 0.0950906 0.0827657 0 0.0959273 0.0805611 0 0.0967812 0.078311 0 0.0976529 0.0760139 0 0.098543 0.0736685 0 0.0994521 0.071273 0 0.100381 0.068826 0 0.10133 0.0663257 0 0.102299 0.0637704 0 0.103291 0.0611583 0 0.104304 0.0584873 0 0.105341 0.0557556 0 0.09492 0.0941333 0 0.0955743 0.091956 0 0.096241 0.089737 0 0.0969207 0.0874753 0 0.0976135 0.0851695 0 0.09832 0.0828183 0 0.0990405 0.0804205 0 0.0997755 0.0779746 0 0.100525 0.075479 0 0.101291 0.0729324 0 0.102072 0.0703332 0 0.102869 0.0676796 0 0.103683 0.0649699 0 0.104515 0.0622024 0 0.105364 0.0593752 0 0.106232 0.0564864 0 0.0979333 0.0971111 0 0.0984747 0.0947758 0 0.0990257 0.0923992 0 0.0995865 0.0899802 0 0.100157 0.0875178 0 0.100739 0.0850106 0 0.10133 0.0824576 0 0.101933 0.0798574 0 0.102547 0.0772087 0 0.103173 0.0745101 0 0.10381 0.0717602 0 0.10446 0.0689576 0 0.105122 0.0661007 0 0.105798 0.0631879 0 0.106486 0.0602175 0 0.107189 0.0571878 0 0.100947 0.100089 0 0.101378 0.0975763 0 0.101815 0.0950247 0 0.102259 0.0924332 0 0.102711 0.0898009 0 0.103169 0.0871268 0 0.103635 0.0844099 0 0.104109 0.0816491 0 0.10459 0.0788435 0 0.105079 0.0759918 0 0.105576 0.0730929 0 0.106081 0.0701458 0 0.106595 0.067149 0 0.107118 0.0641015 0 0.107649 0.0610018 0 0.10819 0.0578487 0 0.10396 0.103067 0 0.10428 0.100355 0 0.104603 0.0976083 0 0.104931 0.094827 0 0.105263 0.09201 0 0.105599 0.0891567 0 0.10594 0.0862663 0 0.106285 0.0833382 0 0.106635 0.0803716 0 0.106989 0.0773656 0 0.107348 0.0743196 0 0.107712 0.0712328 0 0.108081 0.0681042 0 0.108455 0.0649331 0 0.108833 0.0617185 0 0.109218 0.0584596 0 0.106973 0.106044 0 0.107178 0.103108 0 0.107385 0.100145 0 0.107593 0.0971547 0 0.107803 0.0941369 0 0.108016 0.0910913 0 0.10823 0.0880175 0 0.108446 0.084915 0 0.108665 0.0817834 0 0.108885 0.0786224 0 0.109107 0.0754316 0 0.109332 0.0722104 0 0.109559 0.0689584 0 0.109787 0.0656753 0 0.110019 0.0623606 0 0.110252 0.0590138 0 0.109987 0.109022 0 0.11007 0.105834 0 0.110153 0.10263 0 0.110237 0.09941 0 0.110321 0.0961745 0 0.110406 0.0929231 0 0.110491 0.0896556 0 0.110576 0.086372 0 0.110662 0.0830721 0 0.110749 0.0797558 0 0.110835 0.076423 0 0.110923 0.0730735 0 0.11101 0.0697073 0 0.111098 0.0663242 0 0.111187 0.062924 0 0.111276 0.0595067 0 0.113 0.112 0 0.112952 0.108529 0 0.112903 0.105058 0 0.112855 0.101587 0 0.112806 0.0981164 0 0.112758 0.0946455 0 0.11271 0.0911746 0 0.112661 0.0877037 0 0.112613 0.0842328 0 0.112565 0.0807619 0 0.112516 0.077291 0 0.112468 0.0738202 0 0.112419 0.0703493 0 0.112371 0.0668784 0 0.112323 0.0634075 0 0.112274 0.0599366 0 
</DataArray>
</Points> 
</Piece> 
</StructuredGrid> 
</VTKFile> 
