<?xml version="1.0"?> 
<VTKFile type="StructuredGrid" version="0.1"> 
<StructuredGrid WholeExtent="0 15 0 15 0 0"> 
<Piece Extent="0 15 0 15 0 0"> 
<PointData>
<DataArray type="Float32" Name="|E|" format="ascii" NumberOfComponents="3"> 
1.32378e+06 2.38419e-06 0 1.55816e+06 -0.0116171 0 1.71612e+06 -0.015442 0 1.70747e+06 0.0241688 0 1.59459e+06 0.000687562 0 1.43627e+06 0.00741494 0 1.26933e+06 0.000221188 0 1.11274e+06 0.00137822 0 974351 -0.000177316 0 856795 8.56817e-07 0 760068 -0.000223119 0 683235 -0.000189081 0 625058 -0.000156702 0 584401 -0.000121241 0 560377 -5.10779e-05 0 552434 0 0 1.32338e+06 -3.10363e-07 0 1.55822e+06 -6562.92 0 1.71618e+06 -1840.1 0 1.70751e+06 1980.95 0 1.59461e+06 3927.08 0 1.43627e+06 4568.74 0 1.26932e+06 4475.84 0 1.11273e+06 4051.14 0 974343 3500.55 0 856787 2924.41 0 760061 2365.54 0 683228 1838.82 0 625051 1345.49 0 584395 880.361 0 560371 435.074 0 552428 0 0 1.3222e+06 7.35745e-08 0 1.55839e+06 -13127.3 0 1.71637e+06 -3682.25 0 1.70763e+06 3965.08 0 1.59466e+06 7854.24 0 1.43628e+06 9138.46 0 1.26931e+06 8951.7 0 1.11271e+06 8102.47 0 974320 7001.08 0 856764 5848.82 0 760038 4731.06 0 683207 3677.61 0 625031 2690.96 0 584377 1760.71 0 560353 870.141 0 552410 0 0 1.32023e+06 1.52737e-07 0 1.55868e+06 -19694.5 0 1.71669e+06 -5528.58 0 1.70782e+06 5955.63 0 1.59474e+06 11781.5 0 1.43629e+06 13710.1 0 1.26929e+06 13427.6 0 1.11267e+06 12154.2 0 974281 10501.6 0 856725 8773.23 0 760001 7096.51 0 683172 5516.36 0 624999 4036.4 0 584346 2641.02 0 560323 1305.19 0 552380 0 0 1.31744e+06 -1.9744e-07 0 1.55909e+06 -26265.7 0 1.71713e+06 -7381.33 0 1.70809e+06 7955.88 0 1.59485e+06 15709 0 1.43631e+06 18284.8 0 1.26926e+06 17903.6 0 1.11263e+06 16206.4 0 974226 14002 0 856670 11697.6 0 759949 9461.88 0 683123 7355.03 0 624953 5381.77 0 584302 3521.29 0 560281 1740.23 0 552339 0 0 1.31382e+06 2.01166e-07 0 1.55963e+06 -32841.5 0 1.71769e+06 -9242.95 0 1.70844e+06 9969.28 0 1.595e+06 19636.5 0 1.43634e+06 22863.5 0 1.26922e+06 22379.6 0 1.11256e+06 20259.4 0 974155 17502.3 0 856600 14622.1 0 759882 11827.1 0 683061 9193.6 0 624894 6727.05 0 584247 4401.49 0 560228 2175.24 0 552286 0 0 1.30934e+06 3.57628e-07 0 1.56029e+06 -39422.3 0 1.71839e+06 -11116.2 0 1.70887e+06 11999.4 0 1.59518e+06 23564.1 0 1.43636e+06 27447.2 0 1.26918e+06 26855.6 0 1.11249e+06 24313.4 0 974069 21002.4 0 856514 17546.5 0 759800 14192.2 0 682984 11032 0 624822 8072.24 0 584178 5281.61 0 560162 2610.21 0 552220 0 0 1.30397e+06 -6.4075e-07 0 1.56109e+06 -46007.6 0 1.71921e+06 -13004.1 0 1.70937e+06 14050.1 0 1.59539e+06 27491.3 0 1.4364e+06 32037.3 0 1.26912e+06 31331.6 0 1.11239e+06 28368.5 0 973967 24502.4 0 856412 20470.9 0 759704 16557.2 0 682894 12870.3 0 624738 9417.3 0 584098 6161.63 0 560084 3045.15 0 552143 0 0 1.29766e+06 4.32134e-07 0 1.56203e+06 -52596.4 0 1.72015e+06 -14910.3 0 1.70995e+06 16125.4 0 1.59563e+06 31417.8 0 1.43643e+06 36634.8 0 1.26906e+06 35807.5 0 1.11229e+06 32425 0 973850 28002.1 0 856295 23395.4 0 759593 18921.9 0 682789 14708.5 0 624640 10762.2 0 584005 7041.54 0 559994 3480.04 0 552055 0 0 1.29038e+06 -3.42727e-07 0 1.56313e+06 -59186.5 0 1.72122e+06 -16838.8 0 1.71061e+06 18229.8 0 1.59591e+06 35343.1 0 1.43647e+06 41241 0 1.26899e+06 40283.1 0 1.11217e+06 36483.3 0 973717 31501.6 0 856162 26319.9 0 759466 21286.3 0 682671 16546.4 0 624529 12107 0 583899 7921.32 0 559892 3914.89 0 551954 0 0 1.28206e+06 1.19209e-07 0 1.56439e+06 -65774.8 0 1.72241e+06 -18794.4 0 1.71134e+06 20368 0 1.59622e+06 39266.2 0 1.43652e+06 45857.5 0 1.26891e+06 44758.1 0 1.11203e+06 40543.5 0 973569 35000.7 0 856013 29244.5 0 759325 23650.5 0 682538 18384.1 0 624405 13451.6 0 583782 8800.95 0 559778 4349.68 0 551842 0 0 1.27265e+06 -2.38419e-07 0 1.56583e+06 -72356.8 0 1.72372e+06 -20782.3 0 1.71215e+06 22545.2 0 1.59656e+06 43186.4 0 1.43657e+06 50485.8 0 1.26883e+06 49232.5 0 1.11189e+06 44605.9 0 973405 38499.3 0 855848 32169.1 0 759170 26014.4 0 682392 20221.6 0 624268 14796 0 583652 9680.41 0 559653 4784.41 0 551717 0 0 1.26207e+06 2.68221e-07 0 1.56747e+06 -78926.5 0 1.72515e+06 -22809.1 0 1.71304e+06 24767.2 0 1.59694e+06 47102.1 0 1.43662e+06 55127.4 0 1.26874e+06 53705.7 0 1.11172e+06 48671 0 973225 41997.5 0 855668 35093.9 0 758999 28377.9 0 682232 22058.7 0 624118 16140.1 0 583509 10559.7 0 559515 5219.08 0 551581 0 0 1.25023e+06 -8.9407e-08 0 1.5693e+06 -85476.3 0 1.72671e+06 -24881.9 0 1.71401e+06 27040.4 0 1.59735e+06 51011.9 0 1.43667e+06 59784.3 0 1.26864e+06 58177.5 0 1.11154e+06 52739.1 0 973031 45494.9 0 855471 38018.8 0 758814 30741 0 682057 23895.6 0 623954 17484.1 0 583354 11438.8 0 559365 5653.68 0 551433 0 0 1.23705e+06 -3.57628e-07 0 1.57137e+06 -91996.4 0 1.72838e+06 -27009.2 0 1.71505e+06 29371.9 0 1.59779e+06 54913.6 0 1.43673e+06 64458.6 0 1.26853e+06 62647.2 0 1.11135e+06 56810.5 0 972821 48991.6 0 855259 40943.8 0 758614 33103.7 0 681869 25732.2 0 623778 18827.7 0 583187 12317.6 0 559204 6088.22 0 551274 0 0 1.22241e+06 1.43051e-06 0 1.57368e+06 -98475.1 0 1.73018e+06 -29200.9 0 1.71616e+06 31769.3 0 1.59827e+06 58804.9 0 1.43678e+06 69152.4 0 1.26841e+06 67114.3 0 1.11114e+06 60885.9 0 972597 52487.3 0 855030 43869.1 0 758399 35465.9 0 681667 27568.4 0 623589 20171.2 0 583007 13196.2 0 559030 6522.7 0 551102 0 0 </DataArray> 
</PointData> 
<Points> 
<DataArray type="Float32" NumberOfComponents="3"> 
0.19 0 0 0.2022 0 0 0.2144 0 0 0.2266 0 0 0.2388 0 0 0.251 0 0 0.2632 0 0 0.2754 0 0 0.2876 0 0 0.2998 0 0 0.312 0 0 0.3242 0 0 0.3364 0 0 0.3486 0 0 0.3608 0 0 0.373 0 0 0.19 0.000333333 0 0.2022 0.000333333 0 0.2144 0.000333333 0 0.2266 0.000333333 0 0.2388 0.000333333 0 0.251 0.000333333 0 0.2632 0.000333333 0 0.2754 0.000333333 0 0.2876 0.000333333 0 0.2998 0.000333333 0 0.312 0.000333333 0 0.3242 0.000333333 0 0.3364 0.000333333 0 0.3486 0.000333333 0 0.3608 0.000333333 0 0.373 0.000333333 0 0.19 0.000666667 0 0.2022 0.000666667 0 0.2144 0.000666667 0 0.2266 0.000666667 0 0.2388 0.000666667 0 0.251 0.000666667 0 0.2632 0.000666667 0 0.2754 0.000666667 0 0.2876 0.000666667 0 0.2998 0.000666667 0 0.312 0.000666667 0 0.3242 0.000666667 0 0.3364 0.000666667 0 0.3486 0.000666667 0 0.3608 0.000666667 0 0.373 0.000666667 0 0.19 0.001 0 0.2022 0.001 0 0.2144 0.001 0 0.2266 0.001 0 0.2388 0.001 0 0.251 0.001 0 0.2632 0.001 0 0.2754 0.001 0 0.2876 0.001 0 0.2998 0.001 0 0.312 0.001 0 0.3242 0.001 0 0.3364 0.001 0 0.3486 0.001 0 0.3608 0.001 0 0.373 0.001 0 0.19 0.00133333 0 0.2022 0.00133333 0 0.2144 0.00133333 0 0.2266 0.00133333 0 0.2388 0.00133333 0 0.251 0.00133333 0 0.2632 0.00133333 0 0.2754 0.00133333 0 0.2876 0.00133333 0 0.2998 0.00133333 0 0.312 0.00133333 0 0.3242 0.00133333 0 0.3364 0.00133333 0 0.3486 0.00133333 0 0.3608 0.00133333 0 0.373 0.00133333 0 0.19 0.00166667 0 0.2022 0.00166667 0 0.2144 0.00166667 0 0.2266 0.00166667 0 0.2388 0.00166667 0 0.251 0.00166667 0 0.2632 0.00166667 0 0.2754 0.00166667 0 0.2876 0.00166667 0 0.2998 0.00166667 0 0.312 0.00166667 0 0.3242 0.00166667 0 0.3364 0.00166667 0 0.3486 0.00166667 0 0.3608 0.00166667 0 0.373 0.00166667 0 0.19 0.002 0 0.2022 0.002 0 0.2144 0.002 0 0.2266 0.002 0 0.2388 0.002 0 0.251 0.002 0 0.2632 0.002 0 0.2754 0.002 0 0.2876 0.002 0 0.2998 0.002 0 0.312 0.002 0 0.3242 0.002 0 0.3364 0.002 0 0.3486 0.002 0 0.3608 0.002 0 0.373 0.002 0 0.19 0.00233333 0 0.2022 0.00233333 0 0.2144 0.00233333 0 0.2266 0.00233333 0 0.2388 0.00233333 0 0.251 0.00233333 0 0.2632 0.00233333 0 0.2754 0.00233333 0 0.2876 0.00233333 0 0.2998 0.00233333 0 0.312 0.00233333 0 0.3242 0.00233333 0 0.3364 0.00233333 0 0.3486 0.00233333 0 0.3608 0.00233333 0 0.373 0.00233333 0 0.19 0.00266667 0 0.2022 0.00266667 0 0.2144 0.00266667 0 0.2266 0.00266667 0 0.2388 0.00266667 0 0.251 0.00266667 0 0.2632 0.00266667 0 0.2754 0.00266667 0 0.2876 0.00266667 0 0.2998 0.00266667 0 0.312 0.00266667 0 0.3242 0.00266667 0 0.3364 0.00266667 0 0.3486 0.00266667 0 0.3608 0.00266667 0 0.373 0.00266667 0 0.19 0.003 0 0.2022 0.003 0 0.2144 0.003 0 0.2266 0.003 0 0.2388 0.003 0 0.251 0.003 0 0.2632 0.003 0 0.2754 0.003 0 0.2876 0.003 0 0.2998 0.003 0 0.312 0.003 0 0.3242 0.003 0 0.3364 0.003 0 0.3486 0.003 0 0.3608 0.003 0 0.373 0.003 0 0.19 0.00333333 0 0.2022 0.00333333 0 0.2144 0.00333333 0 0.2266 0.00333333 0 0.2388 0.00333333 0 0.251 0.00333333 0 0.2632 0.00333333 0 0.2754 0.00333333 0 0.2876 0.00333333 0 0.2998 0.00333333 0 0.312 0.00333333 0 0.3242 0.00333333 0 0.3364 0.00333333 0 0.3486 0.00333333 0 0.3608 0.00333333 0 0.373 0.00333333 0 0.19 0.00366667 0 0.2022 0.00366667 0 0.2144 0.00366667 0 0.2266 0.00366667 0 0.2388 0.00366667 0 0.251 0.00366667 0 0.2632 0.00366667 0 0.2754 0.00366667 0 0.2876 0.00366667 0 0.2998 0.00366667 0 0.312 0.00366667 0 0.3242 0.00366667 0 0.3364 0.00366667 0 0.3486 0.00366667 0 0.3608 0.00366667 0 0.373 0.00366667 0 0.19 0.004 0 0.2022 0.004 0 0.2144 0.004 0 0.2266 0.004 0 0.2388 0.004 0 0.251 0.004 0 0.2632 0.004 0 0.2754 0.004 0 0.2876 0.004 0 0.2998 0.004 0 0.312 0.004 0 0.3242 0.004 0 0.3364 0.004 0 0.3486 0.004 0 0.3608 0.004 0 0.373 0.004 0 0.19 0.00433333 0 0.2022 0.00433333 0 0.2144 0.00433333 0 0.2266 0.00433333 0 0.2388 0.00433333 0 0.251 0.00433333 0 0.2632 0.00433333 0 0.2754 0.00433333 0 0.2876 0.00433333 0 0.2998 0.00433333 0 0.312 0.00433333 0 0.3242 0.00433333 0 0.3364 0.00433333 0 0.3486 0.00433333 0 0.3608 0.00433333 0 0.373 0.00433333 0 0.19 0.00466667 0 0.2022 0.00466667 0 0.2144 0.00466667 0 0.2266 0.00466667 0 0.2388 0.00466667 0 0.251 0.00466667 0 0.2632 0.00466667 0 0.2754 0.00466667 0 0.2876 0.00466667 0 0.2998 0.00466667 0 0.312 0.00466667 0 0.3242 0.00466667 0 0.3364 0.00466667 0 0.3486 0.00466667 0 0.3608 0.00466667 0 0.373 0.00466667 0 0.19 0.005 0 0.2022 0.005 0 0.2144 0.005 0 0.2266 0.005 0 0.2388 0.005 0 0.251 0.005 0 0.2632 0.005 0 0.2754 0.005 0 0.2876 0.005 0 0.2998 0.005 0 0.312 0.005 0 0.3242 0.005 0 0.3364 0.005 0 0.3486 0.005 0 0.3608 0.005 0 0.373 0.005 0 
</DataArray>
</Points> 
</Piece> 
</StructuredGrid> 
</VTKFile> 
