<?xml version="1.0"?> 
<VTKFile type="StructuredGrid" version="0.1"> 
<StructuredGrid WholeExtent="0 15 0 15 0 0"> 
<Piece Extent="0 15 0 15 0 0"> 
<PointData>
<DataArray type="Float32" Name="|E|" format="ascii" NumberOfComponents="3"> 
-1.71019e+06 8.71184 0 -2.31375e+06 2.62602 0 -2.73733e+06 -2.45232 0 -2.98323e+06 -2.43772 0 -3.11706e+06 -1.51788 0 -3.19179e+06 -0.837665 0 -3.239e+06 -0.44701 0 -3.27593e+06 -0.228243 0 -3.31169e+06 -0.099906 0 -3.35068e+06 -0.0107012 0 -3.39438e+06 0.0719284 0 -3.44199e+06 0.164832 0 -3.49034e+06 0.259272 0 -3.53372e+06 0.303219 0 -3.56458e+06 0.218009 0 -3.57589e+06 3.21865e-06 0 -1.71028e+06 109715 0 -2.31655e+06 89120.3 0 -2.73995e+06 54938.7 0 -2.98481e+06 30280.1 0 -3.11789e+06 16449.5 0 -3.19217e+06 9653.61 0 -3.23914e+06 6765.35 0 -3.27594e+06 5975 0 -3.31164e+06 6253.21 0 -3.3506e+06 7000.1 0 -3.39432e+06 7797.5 0 -3.44198e+06 8263.24 0 -3.4904e+06 7976.39 0 -3.5339e+06 6524.34 0 -3.56487e+06 3734.94 0 -3.57622e+06 -3.64031e-07 0 -1.71056e+06 220731 0 -2.32502e+06 178583 0 -2.74781e+06 109541 0 -2.98955e+06 60242.4 0 -3.12034e+06 32698.4 0 -3.1933e+06 19198.5 0 -3.23954e+06 13471.8 0 -3.27598e+06 11920.3 0 -3.31149e+06 12493.3 0 -3.35039e+06 13998.8 0 -3.39415e+06 15604.4 0 -3.44194e+06 16548.1 0 -3.49061e+06 15986.9 0 -3.53444e+06 13088.7 0 -3.56573e+06 7498.75 0 -3.57722e+06 9.49949e-08 0 -1.71102e+06 334402 0 -2.33947e+06 268705 0 -2.76097e+06 163454 0 -2.99742e+06 89568.7 0 -3.1244e+06 48548.6 0 -3.19516e+06 28528 0 -3.24022e+06 20061.5 0 -3.27603e+06 17806.9 0 -3.31123e+06 18707.2 0 -3.35003e+06 20994.9 0 -3.39385e+06 23430.1 0 -3.44186e+06 24876.1 0 -3.49095e+06 24065.7 0 -3.53535e+06 19733.5 0 -3.56717e+06 11320.7 0 -3.57889e+06 1.76951e-08 0 -1.71168e+06 452273 0 -2.3604e+06 359757 0 -2.77952e+06 216283 0 -3.00837e+06 117937 0 -3.13002e+06 63803.5 0 -3.19773e+06 37537 0 -3.24113e+06 26477.5 0 -3.27608e+06 23606.3 0 -3.31087e+06 24882.4 0 -3.34953e+06 27986.9 0 -3.39342e+06 31283.7 0 -3.44175e+06 33268.8 0 -3.49142e+06 32247.3 0 -3.53661e+06 26500.1 0 -3.5692e+06 15231.4 0 -3.58125e+06 -9.31323e-09 0 -1.71257e+06 576091 0 -2.38856e+06 451916 0 -2.80356e+06 267585 0 -3.02231e+06 145016 0 -3.13712e+06 78272 0 -3.20097e+06 46123.8 0 -3.24227e+06 32664.8 0 -3.27613e+06 29290.9 0 -3.31038e+06 31006.5 0 -3.34886e+06 34973.8 0 -3.39286e+06 39174.4 0 -3.4416e+06 41747.5 0 -3.49201e+06 40566.7 0 -3.53823e+06 33431.6 0 -3.57183e+06 19263.1 0 -3.58432e+06 -7.45058e-09 0 -1.71374e+06 708135 0 -2.42498e+06 545209 0 -2.83319e+06 316844 0 -3.03914e+06 170470 0 -3.14563e+06 91769.8 0 -3.20483e+06 54190.5 0 -3.24361e+06 38571 0 -3.27616e+06 34834.5 0 -3.30977e+06 37067.6 0 -3.34804e+06 41954.2 0 -3.39216e+06 47111 0 -3.44139e+06 50333.5 0 -3.49271e+06 49059.6 0 -3.54022e+06 40573.2 0 -3.57508e+06 23450.5 0 -3.58813e+06 1.86265e-08 0 -1.71527e+06 851085 0 -2.47106e+06 639398 0 -2.86846e+06 363494 0 -3.05873e+06 193941 0 -3.15543e+06 104130 0 -3.20924e+06 61640.4 0 -3.2451e+06 44148.9 0 -3.27615e+06 40211.6 0 -3.30902e+06 43055 0 -3.34704e+06 48927.2 0 -3.39131e+06 55102.1 0 -3.44111e+06 59047.8 0 -3.49351e+06 57762.6 0 -3.54257e+06 47972.6 0 -3.57897e+06 27831.9 0 -3.59271e+06 7.45058e-09 0 -1.71752e+06 1.0091e+06 0 -2.52861e+06 733849 0 -2.90936e+06 406899 0 -3.08088e+06 215054 0 -3.16641e+06 115204 0 -3.21415e+06 68379.5 0 -3.24672e+06 49356.4 0 -3.27609e+06 45397.9 0 -3.30811e+06 48959 0 -3.34586e+06 55891.3 0 -3.39029e+06 63156.1 0 -3.44075e+06 67911.1 0 -3.4944e+06 66712.8 0 -3.54528e+06 55681.3 0 -3.58352e+06 32449.4 0 -3.5981e+06 8.9407e-08 0 -1.72114e+06 1.18719e+06 0 -2.59997e+06 827236 0 -2.95575e+06 446462 0 -3.10539e+06 233367 0 -3.17841e+06 124896 0 -3.21947e+06 74301.1 0 -3.24841e+06 54165.2 0 -3.27594e+06 50366.9 0 -3.30703e+06 54772.4 0 -3.34448e+06 62844.9 0 -3.38909e+06 71280.9 0 -3.44029e+06 76943.6 0 -3.49537e+06 75948.4 0 -3.54834e+06 63754.3 0 -3.58877e+06 37350.7 0 -3.60435e+06 -2.45869e-07 0 -1.72884e+06 1.39493e+06 0 -2.68799e+06 917303 0 -3.00725e+06 481589 0 -3.13197e+06 248397 0 -3.1913e+06 133154 0 -3.2251e+06 79292.1 0 -3.25015e+06 58558.9 0 -3.27567e+06 55091.2 0 -3.30577e+06 60490.6 0 -3.3429e+06 69785.6 0 -3.3877e+06 79484.2 0 -3.43971e+06 86164.7 0 -3.49638e+06 85508.4 0 -3.55176e+06 72251.8 0 -3.59475e+06 42590.2 0 -3.61153e+06 1.78814e-07 0 -1.7462e+06 1.64613e+06 0 -2.79608e+06 1.00029e+06 0 -3.06322e+06 511916 0 -3.1603e+06 259527 0 -3.20493e+06 140034 0 -3.2309e+06 83201.1 0 -3.2519e+06 62550.3 0 -3.27525e+06 59534.4 0 -3.30432e+06 66114.7 0 -3.34108e+06 76709.3 0 -3.3861e+06 87773.4 0 -3.43898e+06 95593.3 0 -3.49741e+06 95432.3 0 -3.55552e+06 81239.2 0 -3.6015e+06 48230.1 0 -3.61971e+06 1.49012e-08 0 -1.79428e+06 1.97294e+06 0 -2.9273e+06 1.07098e+06 0 -3.12268e+06 536836 0 -3.18997e+06 266299 0 -3.21917e+06 145560 0 -3.23674e+06 85906.5 0 -3.25363e+06 66151.4 0 -3.27462e+06 63664.6 0 -3.30266e+06 71647.1 0 -3.33901e+06 83611.9 0 -3.38427e+06 96155.1 0 -3.43809e+06 105247 0 -3.49844e+06 105760 0 -3.55962e+06 90788.6 0 -3.60908e+06 54343.2 0 -3.62898e+06 -2.38419e-07 0 -1.92755e+06 2.45313e+06 0 -3.08257e+06 1.12393e+06 0 -3.18449e+06 554005 0 -3.22054e+06 269319 0 -3.23391e+06 149270 0 -3.24242e+06 87537.6 0 -3.25536e+06 69271.4 0 -3.27371e+06 67499.2 0 -3.30081e+06 77072 0 -3.33666e+06 90496.2 0 -3.38221e+06 104633 0 -3.43699e+06 115142 0 -3.49944e+06 116532 0 -3.56404e+06 100979 0 -3.61752e+06 61015.2 0 -3.63945e+06 1.93715e-07 0 -2.35219e+06 3.32937e+06 0 -3.25012e+06 1.16193e+06 0 -3.24845e+06 551403 0 -3.25154e+06 274826 0 -3.24879e+06 147845 0 -3.24797e+06 89656.9 0 -3.25693e+06 71155.3 0 -3.27253e+06 71359 0 -3.29871e+06 82249.7 0 -3.33402e+06 97412.2 0 -3.37989e+06 113194 0 -3.43566e+06 125296 0 -3.50035e+06 127789 0 -3.56875e+06 111893 0 -3.62689e+06 68351.3 0 -3.65125e+06 -3.27826e-07 0 -3.91575e+06 6.0347e+06 0 -3.36264e+06 1.26023e+06 0 -3.32063e+06 448258 0 -3.28306e+06 328262 0 -3.26186e+06 117548 0 -3.25477e+06 104039 0 -3.25725e+06 66185.9 0 -3.27173e+06 77771.6 0 -3.29596e+06 86112.5 0 -3.33129e+06 104759 0 -3.37717e+06 121722 0 -3.43412e+06 135733 0 -3.50111e+06 139594 0 -3.57373e+06 123594 0 -3.63725e+06 76503 0 -3.66452e+06 1.90735e-06 0 </DataArray> 
</PointData> 
<Points> 
<DataArray type="Float32" NumberOfComponents="3"> 
0.016 0 0 0.0199333 0 0 0.0238667 0 0 0.0278 0 0 0.0317333 0 0 0.0356667 0 0 0.0396 0 0 0.0435333 0 0 0.0474667 0 0 0.0514 0 0 0.0553333 0 0 0.0592667 0 0 0.0632 0 0 0.0671333 0 0 0.0710667 0 0 0.075 0 0 0.016 0.000666667 0 0.0199333 0.000666667 0 0.0238667 0.000666667 0 0.0278 0.000666667 0 0.0317333 0.000666667 0 0.0356667 0.000666667 0 0.0396 0.000666667 0 0.0435333 0.000666667 0 0.0474667 0.000666667 0 0.0514 0.000666667 0 0.0553333 0.000666667 0 0.0592667 0.000666667 0 0.0632 0.000666667 0 0.0671333 0.000666667 0 0.0710667 0.000666667 0 0.075 0.000666667 0 0.016 0.00133333 0 0.0199333 0.00133333 0 0.0238667 0.00133333 0 0.0278 0.00133333 0 0.0317333 0.00133333 0 0.0356667 0.00133333 0 0.0396 0.00133333 0 0.0435333 0.00133333 0 0.0474667 0.00133333 0 0.0514 0.00133333 0 0.0553333 0.00133333 0 0.0592667 0.00133333 0 0.0632 0.00133333 0 0.0671333 0.00133333 0 0.0710667 0.00133333 0 0.075 0.00133333 0 0.016 0.002 0 0.0199333 0.002 0 0.0238667 0.002 0 0.0278 0.002 0 0.0317333 0.002 0 0.0356667 0.002 0 0.0396 0.002 0 0.0435333 0.002 0 0.0474667 0.002 0 0.0514 0.002 0 0.0553333 0.002 0 0.0592667 0.002 0 0.0632 0.002 0 0.0671333 0.002 0 0.0710667 0.002 0 0.075 0.002 0 0.016 0.00266667 0 0.0199333 0.00266667 0 0.0238667 0.00266667 0 0.0278 0.00266667 0 0.0317333 0.00266667 0 0.0356667 0.00266667 0 0.0396 0.00266667 0 0.0435333 0.00266667 0 0.0474667 0.00266667 0 0.0514 0.00266667 0 0.0553333 0.00266667 0 0.0592667 0.00266667 0 0.0632 0.00266667 0 0.0671333 0.00266667 0 0.0710667 0.00266667 0 0.075 0.00266667 0 0.016 0.00333333 0 0.0199333 0.00333333 0 0.0238667 0.00333333 0 0.0278 0.00333333 0 0.0317333 0.00333333 0 0.0356667 0.00333333 0 0.0396 0.00333333 0 0.0435333 0.00333333 0 0.0474667 0.00333333 0 0.0514 0.00333333 0 0.0553333 0.00333333 0 0.0592667 0.00333333 0 0.0632 0.00333333 0 0.0671333 0.00333333 0 0.0710667 0.00333333 0 0.075 0.00333333 0 0.016 0.004 0 0.0199333 0.004 0 0.0238667 0.004 0 0.0278 0.004 0 0.0317333 0.004 0 0.0356667 0.004 0 0.0396 0.004 0 0.0435333 0.004 0 0.0474667 0.004 0 0.0514 0.004 0 0.0553333 0.004 0 0.0592667 0.004 0 0.0632 0.004 0 0.0671333 0.004 0 0.0710667 0.004 0 0.075 0.004 0 0.016 0.00466667 0 0.0199333 0.00466667 0 0.0238667 0.00466667 0 0.0278 0.00466667 0 0.0317333 0.00466667 0 0.0356667 0.00466667 0 0.0396 0.00466667 0 0.0435333 0.00466667 0 0.0474667 0.00466667 0 0.0514 0.00466667 0 0.0553333 0.00466667 0 0.0592667 0.00466667 0 0.0632 0.00466667 0 0.0671333 0.00466667 0 0.0710667 0.00466667 0 0.075 0.00466667 0 0.016 0.00533333 0 0.0199333 0.00533333 0 0.0238667 0.00533333 0 0.0278 0.00533333 0 0.0317333 0.00533333 0 0.0356667 0.00533333 0 0.0396 0.00533333 0 0.0435333 0.00533333 0 0.0474667 0.00533333 0 0.0514 0.00533333 0 0.0553333 0.00533333 0 0.0592667 0.00533333 0 0.0632 0.00533333 0 0.0671333 0.00533333 0 0.0710667 0.00533333 0 0.075 0.00533333 0 0.016 0.006 0 0.0199333 0.006 0 0.0238667 0.006 0 0.0278 0.006 0 0.0317333 0.006 0 0.0356667 0.006 0 0.0396 0.006 0 0.0435333 0.006 0 0.0474667 0.006 0 0.0514 0.006 0 0.0553333 0.006 0 0.0592667 0.006 0 0.0632 0.006 0 0.0671333 0.006 0 0.0710667 0.006 0 0.075 0.006 0 0.016 0.00666667 0 0.0199333 0.00666667 0 0.0238667 0.00666667 0 0.0278 0.00666667 0 0.0317333 0.00666667 0 0.0356667 0.00666667 0 0.0396 0.00666667 0 0.0435333 0.00666667 0 0.0474667 0.00666667 0 0.0514 0.00666667 0 0.0553333 0.00666667 0 0.0592667 0.00666667 0 0.0632 0.00666667 0 0.0671333 0.00666667 0 0.0710667 0.00666667 0 0.075 0.00666667 0 0.016 0.00733333 0 0.0199333 0.00733333 0 0.0238667 0.00733333 0 0.0278 0.00733333 0 0.0317333 0.00733333 0 0.0356667 0.00733333 0 0.0396 0.00733333 0 0.0435333 0.00733333 0 0.0474667 0.00733333 0 0.0514 0.00733333 0 0.0553333 0.00733333 0 0.0592667 0.00733333 0 0.0632 0.00733333 0 0.0671333 0.00733333 0 0.0710667 0.00733333 0 0.075 0.00733333 0 0.016 0.008 0 0.0199333 0.008 0 0.0238667 0.008 0 0.0278 0.008 0 0.0317333 0.008 0 0.0356667 0.008 0 0.0396 0.008 0 0.0435333 0.008 0 0.0474667 0.008 0 0.0514 0.008 0 0.0553333 0.008 0 0.0592667 0.008 0 0.0632 0.008 0 0.0671333 0.008 0 0.0710667 0.008 0 0.075 0.008 0 0.016 0.00866667 0 0.0199333 0.00866667 0 0.0238667 0.00866667 0 0.0278 0.00866667 0 0.0317333 0.00866667 0 0.0356667 0.00866667 0 0.0396 0.00866667 0 0.0435333 0.00866667 0 0.0474667 0.00866667 0 0.0514 0.00866667 0 0.0553333 0.00866667 0 0.0592667 0.00866667 0 0.0632 0.00866667 0 0.0671333 0.00866667 0 0.0710667 0.00866667 0 0.075 0.00866667 0 0.016 0.00933333 0 0.0199333 0.00933333 0 0.0238667 0.00933333 0 0.0278 0.00933333 0 0.0317333 0.00933333 0 0.0356667 0.00933333 0 0.0396 0.00933333 0 0.0435333 0.00933333 0 0.0474667 0.00933333 0 0.0514 0.00933333 0 0.0553333 0.00933333 0 0.0592667 0.00933333 0 0.0632 0.00933333 0 0.0671333 0.00933333 0 0.0710667 0.00933333 0 0.075 0.00933333 0 0.016 0.01 0 0.0199333 0.01 0 0.0238667 0.01 0 0.0278 0.01 0 0.0317333 0.01 0 0.0356667 0.01 0 0.0396 0.01 0 0.0435333 0.01 0 0.0474667 0.01 0 0.0514 0.01 0 0.0553333 0.01 0 0.0592667 0.01 0 0.0632 0.01 0 0.0671333 0.01 0 0.0710667 0.01 0 0.075 0.01 0 
</DataArray>
</Points> 
</Piece> 
</StructuredGrid> 
</VTKFile> 
