<?xml version="1.0"?> 
<VTKFile type="StructuredGrid" version="0.1"> 
<StructuredGrid WholeExtent="0 15 0 15 0 0"> 
<Piece Extent="0 15 0 15 0 0"> 
<PointData>
<DataArray type="Float32" Name="|E|" format="ascii" NumberOfComponents="3"> 
-3.78592e+06 -1.19965e+06 0 -3.45309e+06 -2.01059e+06 0 -3.30848e+06 -1.31499e+06 0 -3.25168e+06 -729570 0 -3.22688e+06 -363234 0 -3.21438e+06 -59360.6 0 -3.21383e+06 248786 0 -3.2259e+06 553593 0 -3.24926e+06 853555 0 -3.2825e+06 1.15612e+06 0 -3.32718e+06 1.46132e+06 0 -3.38218e+06 1.8287e+06 0 -3.45448e+06 2.21841e+06 0 -3.5481e+06 2.53397e+06 0 -3.70662e+06 3.59992e+06 0 -4.59027e+06 1.70767e+07 0 -3.21287e+06 -1.93918e+06 0 -3.1285e+06 -1.15682e+06 0 -3.14526e+06 -624059 0 -3.14855e+06 -284324 0 -3.14041e+06 4879.47 0 -3.14163e+06 295749 0 -3.15616e+06 585197 0 -3.17911e+06 869865 0 -3.20852e+06 1.15652e+06 0 -3.24614e+06 1.45978e+06 0 -3.28853e+06 1.77698e+06 0 -3.34852e+06 2.13106e+06 0 -3.38073e+06 2.58948e+06 0 -3.50451e+06 3.2018e+06 0 -2.98916e+06 4.44692e+06 0 5965.65 3.21996e+06 0 -3.01919e+06 -822640 0 -3.07325e+06 -436226 0 -3.07504e+06 -164040 0 -3.06545e+06 101236 0 -3.07062e+06 377463 0 -3.08869e+06 651392 0 -3.11159e+06 920942 0 -3.13762e+06 1.19324e+06 0 -3.16946e+06 1.47981e+06 0 -3.20409e+06 1.78087e+06 0 -3.24494e+06 2.11591e+06 0 -3.26427e+06 2.53844e+06 0 -3.28089e+06 2.96885e+06 0 -2.95854e+06 3.95579e+06 0 -1.45366e+06 4.49718e+06 0 -574953 3.4657e+06 0 -3.00825e+06 -259224 0 -2.99247e+06 -23452.5 0 -2.98841e+06 233174 0 -3.00307e+06 495564 0 -3.02491e+06 751962 0 -3.04648e+06 1.00547e+06 0 -3.06907e+06 1.264e+06 0 -3.09569e+06 1.53605e+06 0 -3.12298e+06 1.82483e+06 0 -3.14815e+06 2.14071e+06 0 -3.1535e+06 2.51596e+06 0 -3.11255e+06 2.90263e+06 0 -2.83423e+06 3.6719e+06 0 -1.84396e+06 4.12373e+06 0 -852997 3.51461e+06 0 -622078 2.89404e+06 0 -2.90772e+06 161285 0 -2.92182e+06 403858 0 -2.94441e+06 646668 0 -2.96497e+06 885060 0 -2.98254e+06 1.12447e+06 0 -3.00146e+06 1.37145e+06 0 -3.02307e+06 1.63124e+06 0 -3.04251e+06 1.90668e+06 0 -3.05374e+06 2.20247e+06 0 -3.04032e+06 2.54038e+06 0 -2.957e+06 2.9122e+06 0 -2.67038e+06 3.49883e+06 0 -1.9444e+06 3.80937e+06 0 -1.15347e+06 3.44219e+06 0 -788532 2.8459e+06 0 -629080 2.3156e+06 0 -2.87049e+06 602020 0 -2.88932e+06 830948 0 -2.90368e+06 1.05543e+06 0 -2.91737e+06 1.28297e+06 0 -2.93349e+06 1.5188e+06 0 -2.9498e+06 1.76551e+06 0 -2.95981e+06 2.02515e+06 0 -2.95511e+06 2.30206e+06 0 -2.91511e+06 2.61365e+06 0 -2.78846e+06 2.9626e+06 0 -2.48297e+06 3.39025e+06 0 -1.91145e+06 3.5603e+06 0 -1.3138e+06 3.28406e+06 0 -971773 2.83168e+06 0 -811156 2.38831e+06 0 -715130 1.95742e+06 0 -2.82836e+06 1.05955e+06 0 -2.83949e+06 1.26708e+06 0 -2.85166e+06 1.48111e+06 0 -2.86457e+06 1.7045e+06 0 -2.87278e+06 1.93663e+06 0 -2.86866e+06 2.18052e+06 0 -2.84071e+06 2.44129e+06 0 -2.76351e+06 2.72736e+06 0 -2.59114e+06 3.02695e+06 0 -2.27464e+06 3.30341e+06 0 -1.81486e+06 3.34581e+06 0 -1.37828e+06 3.09897e+06 0 -1.10709e+06 2.73942e+06 0 -955902 2.35849e+06 0 -858261 1.97407e+06 0 -793145 1.60585e+06 0 -2.77631e+06 1.51394e+06 0 -2.78444e+06 1.71578e+06 0 -2.78938e+06 1.92851e+06 0 -2.78237e+06 2.14586e+06 0 -2.75483e+06 2.37465e+06 0 -2.69233e+06 2.61426e+06 0 -2.56979e+06 2.85619e+06 0 -2.35903e+06 3.07046e+06 0 -2.05324e+06 3.19993e+06 0 -1.69564e+06 3.13741e+06 0 -1.39315e+06 2.89918e+06 0 -1.19932e+06 2.59556e+06 0 -1.07468e+06 2.26552e+06 0 -986197 1.92551e+06 0 -922882 1.59299e+06 0 -869014 1.26388e+06 0 -2.7033e+06 1.98975e+06 0 -2.69241e+06 2.19605e+06 0 -2.65836e+06 2.39083e+06 0 -2.59581e+06 2.59478e+06 0 -2.49059e+06 2.78855e+06 0 -2.32704e+06 2.95008e+06 0 -2.10238e+06 3.04993e+06 0 -1.83958e+06 3.04962e+06 0 -1.5866e+06 2.91422e+06 0 -1.39508e+06 2.68133e+06 0 -1.26719e+06 2.41066e+06 0 -1.17171e+06 2.11768e+06 0 -1.09723e+06 1.81773e+06 0 -1.0418e+06 1.52238e+06 0 -994221 1.22285e+06 0 -934085 916349 0 -2.54826e+06 2.49925e+06 0 -2.47242e+06 2.63268e+06 0 -2.37131e+06 2.78791e+06 0 -2.23082e+06 2.89439e+06 0 -2.05263e+06 2.94453e+06 0 -1.85568e+06 2.93109e+06 0 -1.66903e+06 2.8386e+06 0 -1.51798e+06 2.66277e+06 0 -1.4096e+06 2.43339e+06 0 -1.32626e+06 2.18102e+06 0 -1.25304e+06 1.91748e+06 0 -1.19401e+06 1.65552e+06 0 -1.15133e+06 1.395e+06 0 -1.11321e+06 1.12108e+06 0 -1.05556e+06 829649 0 -952262 540019 0 -2.20478e+06 2.75539e+06 0 -2.09236e+06 2.87047e+06 0 -1.94923e+06 2.84965e+06 0 -1.80462e+06 2.79635e+06 0 -1.67964e+06 2.70898e+06 0 -1.58217e+06 2.5648e+06 0 -1.50716e+06 2.36381e+06 0 -1.44242e+06 2.13219e+06 0 -1.37911e+06 1.89578e+06 0 -1.32286e+06 1.66646e+06 0 -1.28442e+06 1.44368e+06 0 -1.26044e+06 1.21089e+06 0 -1.23062e+06 950483 0 -1.16571e+06 666164 0 -1.04287e+06 387041 0 -862694 153005 0 -1.85272e+06 2.82182e+06 0 -1.7393e+06 2.59314e+06 0 -1.67221e+06 2.51386e+06 0 -1.62581e+06 2.39877e+06 0 -1.58048e+06 2.20945e+06 0 -1.52773e+06 1.98002e+06 0 -1.47142e+06 1.75564e+06 0 -1.42439e+06 1.55691e+06 0 -1.39905e+06 1.37432e+06 0 -1.39309e+06 1.18124e+06 0 -1.38491e+06 952226 0 -1.34333e+06 682822 0 -1.24183e+06 397573 0 -1.07298e+06 139281 0 -855913 -51370.1 0 -627962 -156683 0 -1.65258e+06 2.03255e+06 0 -1.67558e+06 2.17861e+06 0 -1.64126e+06 1.97698e+06 0 -1.58409e+06 1.70001e+06 0 -1.53462e+06 1.47262e+06 0 -1.51228e+06 1.31333e+06 0 -1.51996e+06 1.18307e+06 0 -1.54165e+06 1.02901e+06 0 -1.54665e+06 817532 0 -1.50202e+06 549950 0 -1.38651e+06 259570 0 -1.19941e+06 -4139.33 0 -962762 -197053 0 -714081 -298009 0 -491657 -314551 0 -320406 -275309 0 -1.75763e+06 1.91801e+06 0 -1.63516e+06 1.17651e+06 0 -1.61462e+06 941898 0 -1.65535e+06 907477 0 -1.71183e+06 875646 0 -1.74022e+06 750128 0 -1.7056e+06 516012 0 -1.58966e+06 214558 0 -1.39522e+06 -87820.9 0 -1.14431e+06 -329758 0 -871598 -473650 0 -614684 -513392 0 -403195 -471190 0 -251129 -384273 0 -155679 -288979 0 -102691 -208365 0 -1.73986e+06 -64090 0 -1.92369e+06 454873 0 -1.9399e+06 474659 0 -1.81473e+06 214679 0 -1.58375e+06 -147186 0 -1.28893e+06 -481704 0 -974206 -710219 0 -679027 -804415 0 -432349 -777689 0 -249644 -667686 0 -132138 -520576 0 -68937.3 -377493 0 -42486 -263937 0 -34913.7 -187293 0 -32927.8 -141412 0 -29859.1 -114434 0 2.6226e-06 -1.21449e+07 0 -2.44472e-07 -5.43877e+06 0 -2.14204e-08 -1.50274e+06 0 1.96509e-07 431884 0 -6.51926e-08 1.05309e+06 0 -7.45058e-09 934979 0 2.23517e-08 512776 0 -1.49012e-07 72622.1 0 2.5332e-07 -236333 0 -2.68221e-07 -373707 0 2.68221e-07 -371382 0 -1.3411e-07 -292653 0 1.78814e-07 -197522 0 -1.93715e-07 -123270 0 2.08616e-07 -80869.6 0 -1.78814e-06 -63233.6 0 </DataArray> 
</PointData> 
<Points> 
<DataArray type="Float32" NumberOfComponents="3"> 
0.016 0.021 0 0.0199333 0.021 0 0.0238667 0.021 0 0.0278 0.021 0 0.0317333 0.021 0 0.0356667 0.021 0 0.0396 0.021 0 0.0435333 0.021 0 0.0474667 0.021 0 0.0514 0.021 0 0.0553333 0.021 0 0.0592667 0.021 0 0.0632 0.021 0 0.0671333 0.021 0 0.0710667 0.021 0 0.075 0.021 0 0.0216 0.0219333 0 0.0253156 0.0219333 0 0.0290311 0.0219333 0 0.0327467 0.0219333 0 0.0364622 0.0219333 0 0.0401778 0.0219333 0 0.0438933 0.0219333 0 0.0476089 0.0219333 0 0.0513244 0.0219333 0 0.05504 0.0219333 0 0.0587556 0.0219333 0 0.0624711 0.0219333 0 0.0661867 0.0219333 0 0.0699022 0.0219333 0 0.0736178 0.0219333 0 0.0773333 0.0219333 0 0.0272 0.0228667 0 0.0306978 0.0228667 0 0.0341956 0.0228667 0 0.0376933 0.0228667 0 0.0411911 0.0228667 0 0.0446889 0.0228667 0 0.0481867 0.0228667 0 0.0516844 0.0228667 0 0.0551822 0.0228667 0 0.05868 0.0228667 0 0.0621778 0.0228667 0 0.0656756 0.0228667 0 0.0691733 0.0228667 0 0.0726711 0.0228667 0 0.0761689 0.0228667 0 0.0796667 0.0228667 0 0.0328 0.0238 0 0.03608 0.0238 0 0.03936 0.0238 0 0.04264 0.0238 0 0.04592 0.0238 0 0.0492 0.0238 0 0.05248 0.0238 0 0.05576 0.0238 0 0.05904 0.0238 0 0.06232 0.0238 0 0.0656 0.0238 0 0.06888 0.0238 0 0.07216 0.0238 0 0.07544 0.0238 0 0.07872 0.0238 0 0.082 0.0238 0 0.0384 0.0247333 0 0.0414622 0.0247333 0 0.0445244 0.0247333 0 0.0475867 0.0247333 0 0.0506489 0.0247333 0 0.0537111 0.0247333 0 0.0567733 0.0247333 0 0.0598356 0.0247333 0 0.0628978 0.0247333 0 0.06596 0.0247333 0 0.0690222 0.0247333 0 0.0720844 0.0247333 0 0.0751467 0.0247333 0 0.0782089 0.0247333 0 0.0812711 0.0247333 0 0.0843333 0.0247333 0 0.044 0.0256667 0 0.0468444 0.0256667 0 0.0496889 0.0256667 0 0.0525333 0.0256667 0 0.0553778 0.0256667 0 0.0582222 0.0256667 0 0.0610667 0.0256667 0 0.0639111 0.0256667 0 0.0667556 0.0256667 0 0.0696 0.0256667 0 0.0724444 0.0256667 0 0.0752889 0.0256667 0 0.0781333 0.0256667 0 0.0809778 0.0256667 0 0.0838222 0.0256667 0 0.0866667 0.0256667 0 0.0496 0.0266 0 0.0522267 0.0266 0 0.0548533 0.0266 0 0.05748 0.0266 0 0.0601067 0.0266 0 0.0627333 0.0266 0 0.06536 0.0266 0 0.0679867 0.0266 0 0.0706133 0.0266 0 0.07324 0.0266 0 0.0758667 0.0266 0 0.0784933 0.0266 0 0.08112 0.0266 0 0.0837467 0.0266 0 0.0863733 0.0266 0 0.089 0.0266 0 0.0552 0.0275333 0 0.0576089 0.0275333 0 0.0600178 0.0275333 0 0.0624267 0.0275333 0 0.0648356 0.0275333 0 0.0672444 0.0275333 0 0.0696533 0.0275333 0 0.0720622 0.0275333 0 0.0744711 0.0275333 0 0.07688 0.0275333 0 0.0792889 0.0275333 0 0.0816978 0.0275333 0 0.0841067 0.0275333 0 0.0865156 0.0275333 0 0.0889244 0.0275333 0 0.0913333 0.0275333 0 0.0608 0.0284667 0 0.0629911 0.0284667 0 0.0651822 0.0284667 0 0.0673733 0.0284667 0 0.0695644 0.0284667 0 0.0717556 0.0284667 0 0.0739467 0.0284667 0 0.0761378 0.0284667 0 0.0783289 0.0284667 0 0.08052 0.0284667 0 0.0827111 0.0284667 0 0.0849022 0.0284667 0 0.0870933 0.0284667 0 0.0892844 0.0284667 0 0.0914756 0.0284667 0 0.0936667 0.0284667 0 0.0664 0.0294 0 0.0683733 0.0294 0 0.0703467 0.0294 0 0.07232 0.0294 0 0.0742933 0.0294 0 0.0762667 0.0294 0 0.07824 0.0294 0 0.0802133 0.0294 0 0.0821867 0.0294 0 0.08416 0.0294 0 0.0861333 0.0294 0 0.0881067 0.0294 0 0.09008 0.0294 0 0.0920533 0.0294 0 0.0940267 0.0294 0 0.096 0.0294 0 0.072 0.0303333 0 0.0737556 0.0303333 0 0.0755111 0.0303333 0 0.0772667 0.0303333 0 0.0790222 0.0303333 0 0.0807778 0.0303333 0 0.0825333 0.0303333 0 0.0842889 0.0303333 0 0.0860444 0.0303333 0 0.0878 0.0303333 0 0.0895556 0.0303333 0 0.0913111 0.0303333 0 0.0930667 0.0303333 0 0.0948222 0.0303333 0 0.0965778 0.0303333 0 0.0983333 0.0303333 0 0.0776 0.0312667 0 0.0791378 0.0312667 0 0.0806756 0.0312667 0 0.0822133 0.0312667 0 0.0837511 0.0312667 0 0.0852889 0.0312667 0 0.0868267 0.0312667 0 0.0883644 0.0312667 0 0.0899022 0.0312667 0 0.09144 0.0312667 0 0.0929778 0.0312667 0 0.0945156 0.0312667 0 0.0960533 0.0312667 0 0.0975911 0.0312667 0 0.0991289 0.0312667 0 0.100667 0.0312667 0 0.0832 0.0322 0 0.08452 0.0322 0 0.08584 0.0322 0 0.08716 0.0322 0 0.08848 0.0322 0 0.0898 0.0322 0 0.09112 0.0322 0 0.09244 0.0322 0 0.09376 0.0322 0 0.09508 0.0322 0 0.0964 0.0322 0 0.09772 0.0322 0 0.09904 0.0322 0 0.10036 0.0322 0 0.10168 0.0322 0 0.103 0.0322 0 0.0888 0.0331333 0 0.0899022 0.0331333 0 0.0910044 0.0331333 0 0.0921067 0.0331333 0 0.0932089 0.0331333 0 0.0943111 0.0331333 0 0.0954133 0.0331333 0 0.0965156 0.0331333 0 0.0976178 0.0331333 0 0.09872 0.0331333 0 0.0998222 0.0331333 0 0.100924 0.0331333 0 0.102027 0.0331333 0 0.103129 0.0331333 0 0.104231 0.0331333 0 0.105333 0.0331333 0 0.0944 0.0340667 0 0.0952844 0.0340667 0 0.0961689 0.0340667 0 0.0970533 0.0340667 0 0.0979378 0.0340667 0 0.0988222 0.0340667 0 0.0997067 0.0340667 0 0.100591 0.0340667 0 0.101476 0.0340667 0 0.10236 0.0340667 0 0.103244 0.0340667 0 0.104129 0.0340667 0 0.105013 0.0340667 0 0.105898 0.0340667 0 0.106782 0.0340667 0 0.107667 0.0340667 0 0.1 0.035 0 0.100667 0.035 0 0.101333 0.035 0 0.102 0.035 0 0.102667 0.035 0 0.103333 0.035 0 0.104 0.035 0 0.104667 0.035 0 0.105333 0.035 0 0.106 0.035 0 0.106667 0.035 0 0.107333 0.035 0 0.108 0.035 0 0.108667 0.035 0 0.109333 0.035 0 0.11 0.035 0 
</DataArray>
</Points> 
</Piece> 
</StructuredGrid> 
</VTKFile> 
