<?xml version="1.0"?> 
<VTKFile type="StructuredGrid" version="0.1"> 
<StructuredGrid WholeExtent="0 15 0 15 0 0"> 
<Piece Extent="0 15 0 15 0 0"> 
<PointData>
<DataArray type="Float32" Name="|E|" format="ascii" NumberOfComponents="3"> 
-515938 -1.93483 0 -556784 -1.95199 0 -602993 -1.86761 0 -654814 -1.65453 0 -712483 -1.28182 0 -776195 -0.720255 0 -846086 0.04999 0 -922206 1.05047 0 -1.00449e+06 2.24061 0 -1.09272e+06 3.65118 0 -1.18652e+06 5.0535 0 -1.28532e+06 6.65835 0 -1.38835e+06 7.70195 0 -1.49467e+06 9.22025 0 -1.60317e+06 9.04304 0 -1.71264e+06 8.71184 0 -513387 38213.8 0 -554103 43444.4 0 -600185 48934 0 -651888 54672.7 0 -709456 60633.5 0 -773098 66768.7 0 -842962 73005.7 0 -919113 79243.8 0 -1.0015e+06 85352.6 0 -1.08992e+06 91172.9 0 -1.184e+06 96521.8 0 -1.28319e+06 101203 0 -1.3867e+06 105019 0 -1.49358e+06 107794 0 -1.60269e+06 109387 0 -1.71279e+06 109715 0 -505738 76169.2 0 -546062 86626.7 0 -591752 97615.4 0 -643090 109119 0 -700347 121088 0 -763764 133431 0 -833533 146005 0 -909760 158613 0 -992441 170991 0 -1.08142e+06 182816 0 -1.17635e+06 193714 0 -1.27669e+06 203275 0 -1.38165e+06 211090 0 -1.49023e+06 216782 0 -1.60121e+06 220055 0 -1.71328e+06 220731 0 -493007 113600 0 -532656 129274 0 -577671 145776 0 -628369 163093 0 -685067 181160 0 -748067 199851 0 -817625 218962 0 -893930 238200 0 -977056 257172 0 -1.06693e+06 275382 0 -1.16326e+06 292241 0 -1.26554e+06 307102 0 -1.37296e+06 319296 0 -1.48444e+06 328210 0 -1.59866e+06 333345 0 -1.71411e+06 334402 0 -475223 150219 0 -513889 171085 0 -557908 193115 0 -607645 216306 0 -663480 240595 0 -725797 265834 0 -794953 291774 0 -871251 318037 0 -954893 344101 0 -1.04593e+06 369286 0 -1.14418e+06 392767 0 -1.24919e+06 413603 0 -1.36016e+06 430808 0 -1.4759e+06 443445 0 -1.59488e+06 450759 0 -1.71534e+06 452273 0 -452436 185714 0 -489776 211726 0 -532431 239281 0 -580821 268408 0 -635409 299061 0 -696680 331096 0 -765123 364238 0 -841201 398047 0 -925300 431881 0 -1.01766e+06 464874 0 -1.11828e+06 495928 0 -1.22683e+06 523746 0 -1.34252e+06 546914 0 -1.46406e+06 564064 0 -1.58963e+06 574030 0 -1.71708e+06 576091 0 -424730 219740 0 -460360 250814 0 -501224 283864 0 -547806 318966 0 -600657 356123 0 -660386 395222 0 -727646 436001 0 -803107 477991 0 -887407 520463 0 -981071 562366 0 -1.08438e+06 602306 0 -1.19724e+06 638538 0 -1.31896e+06 669089 0 -1.44811e+06 691923 0 -1.58253e+06 705320 0 -1.71932e+06 708135 0 -392232 251917 0 -425725 287919 0 -464309 326380 0 -508531 367452 0 -559035 411215 0 -616565 457634 0 -681962 506508 0 -756155 557401 0 -840113 609548 0 -934764 661765 0 -1.04085e+06 712340 0 -1.15867e+06 759012 0 -1.28781e+06 799005 0 -1.42681e+06 829365 0 -1.57292e+06 847324 0 -1.72263e+06 851085 0 -355128 281832 0 -386018 322558 0 -421772 366272 0 -462991 413229 0 -510405 463624 0 -564891 517550 0 -627493 574942 0 -699433 635481 0 -782093 698478 0 -876958 762701 0 -985442 826198 0 -1.1086e+06 886099 0 -1.24661e+06 938637 0 -1.39816e+06 979300 0 -1.55999e+06 1.00382e+06 0 -1.72628e+06 1.0091e+06 0 -313679 309045 0 -341469 354203 0 -373792 402912 0 -411282 455552 0 -454732 512474 0 -505133 573960 0 -563717 640165 0 -632008 711015 0 -711866 786053 0 -805469 864214 0 -915230 943466 0 -1.04342e+06 1.02046e+06 0 -1.19151e+06 1.09008e+06 0 -1.35897e+06 1.14571e+06 0 -1.54171e+06 1.17993e+06 0 -1.7334e+06 1.18719e+06 0 -268229 333101 0 -292411 382298 0 -320672 435615 0 -353646 493581 0 -392151 556739 0 -437243 625616 0 -490290 700681 0 -553080 782256 0 -627928 870354 0 -717827 964390 0 -826447 1.06272e+06 0 -958031 1.16184e+06 0 -1.11648e+06 1.25548e+06 0 -1.30354e+06 1.33363e+06 0 -1.51595e+06 1.38384e+06 0 -1.73917e+06 1.39493e+06 0 -219225 353552 0 -239301 406278 0 -262868 463671 0 -290518 526418 0 -323037 595275 0 -361467 671060 0 -407217 754640 0 -462199 846883 0 -529085 948536 0 -611541 1.05999e+06 0 -714726 1.18069e+06 0 -845409 1.30812e+06 0 -1.01195e+06 1.43564e+06 0 -1.22186e+06 1.54987e+06 0 -1.47437e+06 1.62828e+06 0 -1.75924e+06 1.64613e+06 0 -167213 369972 0 -182729 425602 0 -201010 486383 0 -222564 553158 0 -248071 626894 0 -278463 708713 0 -315025 799923 0 -359611 902041 0 -414878 1.01679e+06 0 -484890 1.14601e+06 0 -575716 1.29132e+06 0 -696999 1.45307e+06 0 -863052 1.62764e+06 0 -1.09334e+06 1.80073e+06 0 -1.40563e+06 1.93611e+06 0 -1.7702e+06 1.97294e+06 0 -112838 381995 0 -123413 439792 0 -135910 503124 0 -150697 572962 0 -168285 650460 0 -189370 737011 0 -214968 834337 0 -246526 944592 0 -286338 1.07056e+06 0 -337880 1.21578e+06 0 -407240 1.38499e+06 0 -504687 1.58359e+06 0 -649968 1.8176e+06 0 -880240 2.08376e+06 0 -1.25547e+06 2.34463e+06 0 -1.83544e+06 2.45313e+06 0 -56835.3 389331 0 -62194.7 448468 0 -68539.2 513388 0 -76067 585147 0 -85042 665025 0 -95859.5 754610 0 -109040 855907 0 -125467 971596 0 -146325 1.10517e+06 0 -173946 1.26195e+06 0 -211789 1.44886e+06 0 -267630 1.67894e+06 0 -356859 1.96878e+06 0 -520137 2.35721e+06 0 -889980 2.8785e+06 0 -1.81263e+06 3.32937e+06 0 0 391798 0 0 451390 0 0 516847 0 0 589263 0 0 669959 0 0 760578 0 0 863304 0 0 980775 0 0 1.11741e+06 0 0 1.27761e+06 0 0 1.47312e+06 0 0 1.71181e+06 0 0 2.03545e+06 0 0 2.47542e+06 0 0 3.27902e+06 0 0 6.0347e+06 0 </DataArray> 
</PointData> 
<Points> 
<DataArray type="Float32" NumberOfComponents="3"> 
0.006 0 0 0.00666667 0 0 0.00733333 0 0 0.008 0 0 0.00866667 0 0 0.00933333 0 0 0.01 0 0 0.0106667 0 0 0.0113333 0 0 0.012 0 0 0.0126667 0 0 0.0133333 0 0 0.014 0 0 0.0146667 0 0 0.0153333 0 0 0.016 0 0 0.006 0.000666667 0 0.00666667 0.000666667 0 0.00733333 0.000666667 0 0.008 0.000666667 0 0.00866667 0.000666667 0 0.00933333 0.000666667 0 0.01 0.000666667 0 0.0106667 0.000666667 0 0.0113333 0.000666667 0 0.012 0.000666667 0 0.0126667 0.000666667 0 0.0133333 0.000666667 0 0.014 0.000666667 0 0.0146667 0.000666667 0 0.0153333 0.000666667 0 0.016 0.000666667 0 0.006 0.00133333 0 0.00666667 0.00133333 0 0.00733333 0.00133333 0 0.008 0.00133333 0 0.00866667 0.00133333 0 0.00933333 0.00133333 0 0.01 0.00133333 0 0.0106667 0.00133333 0 0.0113333 0.00133333 0 0.012 0.00133333 0 0.0126667 0.00133333 0 0.0133333 0.00133333 0 0.014 0.00133333 0 0.0146667 0.00133333 0 0.0153333 0.00133333 0 0.016 0.00133333 0 0.006 0.002 0 0.00666667 0.002 0 0.00733333 0.002 0 0.008 0.002 0 0.00866667 0.002 0 0.00933333 0.002 0 0.01 0.002 0 0.0106667 0.002 0 0.0113333 0.002 0 0.012 0.002 0 0.0126667 0.002 0 0.0133333 0.002 0 0.014 0.002 0 0.0146667 0.002 0 0.0153333 0.002 0 0.016 0.002 0 0.006 0.00266667 0 0.00666667 0.00266667 0 0.00733333 0.00266667 0 0.008 0.00266667 0 0.00866667 0.00266667 0 0.00933333 0.00266667 0 0.01 0.00266667 0 0.0106667 0.00266667 0 0.0113333 0.00266667 0 0.012 0.00266667 0 0.0126667 0.00266667 0 0.0133333 0.00266667 0 0.014 0.00266667 0 0.0146667 0.00266667 0 0.0153333 0.00266667 0 0.016 0.00266667 0 0.006 0.00333333 0 0.00666667 0.00333333 0 0.00733333 0.00333333 0 0.008 0.00333333 0 0.00866667 0.00333333 0 0.00933333 0.00333333 0 0.01 0.00333333 0 0.0106667 0.00333333 0 0.0113333 0.00333333 0 0.012 0.00333333 0 0.0126667 0.00333333 0 0.0133333 0.00333333 0 0.014 0.00333333 0 0.0146667 0.00333333 0 0.0153333 0.00333333 0 0.016 0.00333333 0 0.006 0.004 0 0.00666667 0.004 0 0.00733333 0.004 0 0.008 0.004 0 0.00866667 0.004 0 0.00933333 0.004 0 0.01 0.004 0 0.0106667 0.004 0 0.0113333 0.004 0 0.012 0.004 0 0.0126667 0.004 0 0.0133333 0.004 0 0.014 0.004 0 0.0146667 0.004 0 0.0153333 0.004 0 0.016 0.004 0 0.006 0.00466667 0 0.00666667 0.00466667 0 0.00733333 0.00466667 0 0.008 0.00466667 0 0.00866667 0.00466667 0 0.00933333 0.00466667 0 0.01 0.00466667 0 0.0106667 0.00466667 0 0.0113333 0.00466667 0 0.012 0.00466667 0 0.0126667 0.00466667 0 0.0133333 0.00466667 0 0.014 0.00466667 0 0.0146667 0.00466667 0 0.0153333 0.00466667 0 0.016 0.00466667 0 0.006 0.00533333 0 0.00666667 0.00533333 0 0.00733333 0.00533333 0 0.008 0.00533333 0 0.00866667 0.00533333 0 0.00933333 0.00533333 0 0.01 0.00533333 0 0.0106667 0.00533333 0 0.0113333 0.00533333 0 0.012 0.00533333 0 0.0126667 0.00533333 0 0.0133333 0.00533333 0 0.014 0.00533333 0 0.0146667 0.00533333 0 0.0153333 0.00533333 0 0.016 0.00533333 0 0.006 0.006 0 0.00666667 0.006 0 0.00733333 0.006 0 0.008 0.006 0 0.00866667 0.006 0 0.00933333 0.006 0 0.01 0.006 0 0.0106667 0.006 0 0.0113333 0.006 0 0.012 0.006 0 0.0126667 0.006 0 0.0133333 0.006 0 0.014 0.006 0 0.0146667 0.006 0 0.0153333 0.006 0 0.016 0.006 0 0.006 0.00666667 0 0.00666667 0.00666667 0 0.00733333 0.00666667 0 0.008 0.00666667 0 0.00866667 0.00666667 0 0.00933333 0.00666667 0 0.01 0.00666667 0 0.0106667 0.00666667 0 0.0113333 0.00666667 0 0.012 0.00666667 0 0.0126667 0.00666667 0 0.0133333 0.00666667 0 0.014 0.00666667 0 0.0146667 0.00666667 0 0.0153333 0.00666667 0 0.016 0.00666667 0 0.006 0.00733333 0 0.00666667 0.00733333 0 0.00733333 0.00733333 0 0.008 0.00733333 0 0.00866667 0.00733333 0 0.00933333 0.00733333 0 0.01 0.00733333 0 0.0106667 0.00733333 0 0.0113333 0.00733333 0 0.012 0.00733333 0 0.0126667 0.00733333 0 0.0133333 0.00733333 0 0.014 0.00733333 0 0.0146667 0.00733333 0 0.0153333 0.00733333 0 0.016 0.00733333 0 0.006 0.008 0 0.00666667 0.008 0 0.00733333 0.008 0 0.008 0.008 0 0.00866667 0.008 0 0.00933333 0.008 0 0.01 0.008 0 0.0106667 0.008 0 0.0113333 0.008 0 0.012 0.008 0 0.0126667 0.008 0 0.0133333 0.008 0 0.014 0.008 0 0.0146667 0.008 0 0.0153333 0.008 0 0.016 0.008 0 0.006 0.00866667 0 0.00666667 0.00866667 0 0.00733333 0.00866667 0 0.008 0.00866667 0 0.00866667 0.00866667 0 0.00933333 0.00866667 0 0.01 0.00866667 0 0.0106667 0.00866667 0 0.0113333 0.00866667 0 0.012 0.00866667 0 0.0126667 0.00866667 0 0.0133333 0.00866667 0 0.014 0.00866667 0 0.0146667 0.00866667 0 0.0153333 0.00866667 0 0.016 0.00866667 0 0.006 0.00933333 0 0.00666667 0.00933333 0 0.00733333 0.00933333 0 0.008 0.00933333 0 0.00866667 0.00933333 0 0.00933333 0.00933333 0 0.01 0.00933333 0 0.0106667 0.00933333 0 0.0113333 0.00933333 0 0.012 0.00933333 0 0.0126667 0.00933333 0 0.0133333 0.00933333 0 0.014 0.00933333 0 0.0146667 0.00933333 0 0.0153333 0.00933333 0 0.016 0.00933333 0 0.006 0.01 0 0.00666667 0.01 0 0.00733333 0.01 0 0.008 0.01 0 0.00866667 0.01 0 0.00933333 0.01 0 0.01 0.01 0 0.0106667 0.01 0 0.0113333 0.01 0 0.012 0.01 0 0.0126667 0.01 0 0.0133333 0.01 0 0.014 0.01 0 0.0146667 0.01 0 0.0153333 0.01 0 0.016 0.01 0 
</DataArray>
</Points> 
</Piece> 
</StructuredGrid> 
</VTKFile> 
