<?xml version="1.0"?> 
<VTKFile type="StructuredGrid" version="0.1"> 
<StructuredGrid WholeExtent="0 15 0 15 0 0"> 
<Piece Extent="0 15 0 15 0 0"> 
<PointData>
<DataArray type="Float32" Name="|E|" format="ascii" NumberOfComponents="3"> 
-1.78814e-07 5.60098e+06 0 2.06637e-09 3.89351e+06 0 5.12227e-08 2.93905e+06 0 -4.56348e-08 2.29747e+06 0 3.49246e-08 1.77222e+06 0 -7.45058e-09 1.31196e+06 0 3.25963e-08 909711 0 -5.58794e-08 580033 0 5.40167e-08 338082 0 -5.40167e-08 182054 0 9.68575e-08 92590.1 0 -1.22935e-07 45472.9 0 1.08033e-07 21945.1 0 -8.56817e-08 10464.4 0 3.72529e-08 5054.36 0 0 3343.67 0 -415795 4.27436e+06 0 -241400 3.2003e+06 0 -172187 2.51672e+06 0 -144770 1.98074e+06 0 -128265 1.51471e+06 0 -112925 1.10048e+06 0 -93496.9 744639 0 -69763.6 463731 0 -46041.9 266243 0 -27159.3 143138 0 -14746.5 73619.4 0 -7604.99 36906.8 0 -3814.08 18251.8 0 -1880.73 8987.32 0 -907.936 4437.66 0 -140.847 2168.76 0 -536766 3.37023e+06 0 -368905 2.68445e+06 0 -303338 2.15006e+06 0 -268232 1.68603e+06 0 -240054 1.26876e+06 0 -207378 898284 0 -165178 589262 0 -117877 356547 0 -75087.1 201038 0 -43550.7 107755 0 -23688.5 56012 0 -12407 28638.7 0 -6364.43 14526.3 0 -3223.61 7347.29 0 -1583.58 3734.55 0 -636.855 1776.29 0 -576521 2.78015e+06 0 -471045 2.2723e+06 0 -416056 1.81971e+06 0 -375825 1.40763e+06 0 -333997 1.03232e+06 0 -279348 705167 0 -212431 444467 0 -144803 259907 0 -89359.6 143719 0 -51217.5 76857.4 0 -28021.8 40414.2 0 -14934.3 21084.9 0 -7843.62 10965.5 0 -4078.27 5700.75 0 -2069.15 2967.74 0 -1009.6 1455.12 0 -639523 2.34171e+06 0 -566899 1.91106e+06 0 -515865 1.51179e+06 0 -467386 1.14001e+06 0 -405344 803684 0 -324103 522256 0 -233866 312937 0 -152459 176039 0 -91676.3 95515.9 0 -52262.4 51084 0 -28890.2 27218.8 0 -15702.5 14500.8 0 -8452.63 7732.96 0 -4513.71 4131.1 0 -2371.31 2198.1 0 -1243.46 1116.42 0 -715308 1.95787e+06 0 -655991 1.57777e+06 0 -603122 1.21636e+06 0 -537346 878455 0 -446757 583115 0 -337541 353645 0 -230418 198943 0 -144362 107237 0 -85306.2 57185.9 0 -48734.6 30656.3 0 -27343.6 16570.1 0 -15191.7 9016.16 0 -8389.64 4929.59 0 -4605.07 2702.63 0 -2502.92 1468.14 0 -1368.12 768.885 0 -792286 1.6037e+06 0 -737808 1.25819e+06 0 -671049 924464 0 -574848 620982 0 -450122 375940 0 -318639 206835 0 -206253 107189 0 -125410 54905.6 0 -73627.5 28676.6 0 -42479.4 15362.3 0 -24294.2 8398.06 0 -13825.7 4655.58 0 -7840.77 2604.18 0 -4427.38 1460.28 0 -2485.89 805.808 0 -1403.36 430.202 0 -868721 1.26315e+06 0 -803664 937940 0 -703937 630267 0 -565715 373824 0 -410992 194321 0 -272153 90907.8 0 -168762 40765.2 0 -101080 18720.7 0 -59666.7 9071.4 0 -35009.7 4635.49 0 -20481.8 2473.31 0 -11960.7 1362.43 0 -6972.02 765.03 0 -4052.17 428.66 0 -2347.36 229.494 0 -1364.36 115.692 0 -933546 914999 0 -830721 605447 0 -678319 340988 0 -499955 156067 0 -334785 54623 0 -209507 12279.3 0 -126943 -875.351 0 -76229.1 -3500.3 0 -45725.5 -3178.12 0 -27433.9 -2305.3 0 -16463.6 -1530.8 0 -9879.81 -975.001 0 -5923.92 -610.715 0 -3545.09 -385.137 0 -2116.39 -250.043 0 -1264.35 -163.215 0 -952460 540514 0 -780898 270289 0 -575953 86904.8 0 -384533 -4176.75 0 -239851 -31193.2 0 -145688 -30045.8 0 -88524.1 -22256.6 0 -54123.9 -15108.7 0 -33236 -9865.69 0 -20465.5 -6305.88 0 -12624.5 -3982.28 0 -7793.66 -2499.88 0 -4809.8 -1567.8 0 -2963.92 -988.11 0 -1821.57 -628.462 0 -1116.46 -398.549 0 -863651 155396 0 -625393 -17341.6 0 -408911 -85146.6 0 -250423 -87038.7 0 -151176 -65972.1 0 -92656.6 -45156.8 0 -57690.4 -29942.4 0 -36228.7 -19574.5 0 -22870 -12677.6 0 -14489.3 -8166.06 0 -9200.26 -5245.54 0 -5847.46 -3367.07 0 -3715.71 -2164.58 0 -2357.32 -1397.51 0 -1489.36 -907.138 0 -933.558 -585.948 0 -628815 -154548 0 -392408 -181813 0 -231879 -147072 0 -138406 -102038 0 -85825.1 -67866.1 0 -54585.2 -45050.8 0 -35086.8 -29871.5 0 -22707 -19731.4 0 -14773 -13010.6 0 -9644.8 -8573.96 0 -6309.2 -5651.13 0 -4130.33 -3728.44 0 -2702.73 -2465.74 0 -1764.28 -1637.46 0 -1143.14 -1092.46 0 -727.145 -724.497 0 -320083 -276115 0 -179530 -195206 0 -106906 -127796 0 -68250.4 -84386.1 0 -44679.4 -56941.3 0 -29450.5 -38556 0 -19547.9 -26056.6 0 -13070.4 -17614.8 0 -8776.05 -11924 0 -5908.82 -8078.14 0 -3983.56 -5479.31 0 -2686.7 -3722.68 0 -1810.04 -2536.45 0 -1214.25 -1736.1 0 -802.659 -1195.1 0 -507.731 -817.343 0 -101979 -210143 0 -65126.2 -132264 0 -44484.5 -89807.2 0 -30072.5 -62700.7 0 -20262.2 -43543.4 0 -13810.7 -30152 0 -9507.86 -20932 0 -6573.39 -14572.5 0 -4556.37 -10157 0 -3163.99 -7088.47 0 -2198.58 -4954.17 0 -1527.55 -3469.59 0 -1058.82 -2438.04 0 -728.122 -1723.19 0 -485.023 -1229.55 0 -279.786 -876.259 0 -29870.2 -114406 0 -21199.9 -84905.9 0 -13980.3 -61534.1 0 -9520.88 -43608 0 -6740.09 -30966.8 0 -4799.48 -22142.4 0 -3420.43 -15876.6 0 -2440.81 -11395.4 0 -1746.86 -8188 0 -1250.55 -5891.68 0 -895.755 -4245.9 0 -640.744 -3067.43 0 -456.377 -2225.11 0 -320.002 -1628.03 0 -208.237 -1213.93 0 -53.9368 -932.921 0 1.01328e-06 -63233.6 0 -9.27248e-08 -49335.3 0 1.72295e-08 -39132.1 0 -6.98492e-09 -28925.3 0 -2.04891e-08 -21091.8 0 -1.30385e-08 -15535.5 0 8.19564e-08 -11491.1 0 -8.9407e-08 -8508.1 0 3.35276e-08 -6303.1 0 -7.07805e-08 -4677.01 0 7.45058e-08 -3476.8 0 -4.47035e-08 -2592.05 0 1.49012e-08 -1943.85 0 -8.19564e-08 -1473.36 0 4.47035e-08 -1162.28 0 -2.38419e-07 -1172.19 0 </DataArray> 
</PointData> 
<Points> 
<DataArray type="Float32" NumberOfComponents="3"> 
0.075 0.021 0 0.0783333 0.021 0 0.0816667 0.021 0 0.085 0.021 0 0.0883333 0.021 0 0.0916667 0.021 0 0.095 0.021 0 0.0983333 0.021 0 0.101667 0.021 0 0.105 0.021 0 0.108333 0.021 0 0.111667 0.021 0 0.115 0.021 0 0.118333 0.021 0 0.121667 0.021 0 0.125 0.021 0 0.0773333 0.0219333 0 0.0805333 0.0219333 0 0.0837333 0.0219333 0 0.0869333 0.0219333 0 0.0901333 0.0219333 0 0.0933333 0.0219333 0 0.0965333 0.0219333 0 0.0997333 0.0219333 0 0.102933 0.0219333 0 0.106133 0.0219333 0 0.109333 0.0219333 0 0.112533 0.0219333 0 0.115733 0.0219333 0 0.118933 0.0219333 0 0.122133 0.0219333 0 0.125333 0.0219333 0 0.0796667 0.0228667 0 0.0827333 0.0228667 0 0.0858 0.0228667 0 0.0888667 0.0228667 0 0.0919333 0.0228667 0 0.095 0.0228667 0 0.0980667 0.0228667 0 0.101133 0.0228667 0 0.1042 0.0228667 0 0.107267 0.0228667 0 0.110333 0.0228667 0 0.1134 0.0228667 0 0.116467 0.0228667 0 0.119533 0.0228667 0 0.1226 0.0228667 0 0.125667 0.0228667 0 0.082 0.0238 0 0.0849333 0.0238 0 0.0878667 0.0238 0 0.0908 0.0238 0 0.0937333 0.0238 0 0.0966667 0.0238 0 0.0996 0.0238 0 0.102533 0.0238 0 0.105467 0.0238 0 0.1084 0.0238 0 0.111333 0.0238 0 0.114267 0.0238 0 0.1172 0.0238 0 0.120133 0.0238 0 0.123067 0.0238 0 0.126 0.0238 0 0.0843333 0.0247333 0 0.0871333 0.0247333 0 0.0899333 0.0247333 0 0.0927333 0.0247333 0 0.0955333 0.0247333 0 0.0983333 0.0247333 0 0.101133 0.0247333 0 0.103933 0.0247333 0 0.106733 0.0247333 0 0.109533 0.0247333 0 0.112333 0.0247333 0 0.115133 0.0247333 0 0.117933 0.0247333 0 0.120733 0.0247333 0 0.123533 0.0247333 0 0.126333 0.0247333 0 0.0866667 0.0256667 0 0.0893333 0.0256667 0 0.092 0.0256667 0 0.0946667 0.0256667 0 0.0973333 0.0256667 0 0.1 0.0256667 0 0.102667 0.0256667 0 0.105333 0.0256667 0 0.108 0.0256667 0 0.110667 0.0256667 0 0.113333 0.0256667 0 0.116 0.0256667 0 0.118667 0.0256667 0 0.121333 0.0256667 0 0.124 0.0256667 0 0.126667 0.0256667 0 0.089 0.0266 0 0.0915333 0.0266 0 0.0940667 0.0266 0 0.0966 0.0266 0 0.0991333 0.0266 0 0.101667 0.0266 0 0.1042 0.0266 0 0.106733 0.0266 0 0.109267 0.0266 0 0.1118 0.0266 0 0.114333 0.0266 0 0.116867 0.0266 0 0.1194 0.0266 0 0.121933 0.0266 0 0.124467 0.0266 0 0.127 0.0266 0 0.0913333 0.0275333 0 0.0937333 0.0275333 0 0.0961333 0.0275333 0 0.0985333 0.0275333 0 0.100933 0.0275333 0 0.103333 0.0275333 0 0.105733 0.0275333 0 0.108133 0.0275333 0 0.110533 0.0275333 0 0.112933 0.0275333 0 0.115333 0.0275333 0 0.117733 0.0275333 0 0.120133 0.0275333 0 0.122533 0.0275333 0 0.124933 0.0275333 0 0.127333 0.0275333 0 0.0936667 0.0284667 0 0.0959333 0.0284667 0 0.0982 0.0284667 0 0.100467 0.0284667 0 0.102733 0.0284667 0 0.105 0.0284667 0 0.107267 0.0284667 0 0.109533 0.0284667 0 0.1118 0.0284667 0 0.114067 0.0284667 0 0.116333 0.0284667 0 0.1186 0.0284667 0 0.120867 0.0284667 0 0.123133 0.0284667 0 0.1254 0.0284667 0 0.127667 0.0284667 0 0.096 0.0294 0 0.0981333 0.0294 0 0.100267 0.0294 0 0.1024 0.0294 0 0.104533 0.0294 0 0.106667 0.0294 0 0.1088 0.0294 0 0.110933 0.0294 0 0.113067 0.0294 0 0.1152 0.0294 0 0.117333 0.0294 0 0.119467 0.0294 0 0.1216 0.0294 0 0.123733 0.0294 0 0.125867 0.0294 0 0.128 0.0294 0 0.0983333 0.0303333 0 0.100333 0.0303333 0 0.102333 0.0303333 0 0.104333 0.0303333 0 0.106333 0.0303333 0 0.108333 0.0303333 0 0.110333 0.0303333 0 0.112333 0.0303333 0 0.114333 0.0303333 0 0.116333 0.0303333 0 0.118333 0.0303333 0 0.120333 0.0303333 0 0.122333 0.0303333 0 0.124333 0.0303333 0 0.126333 0.0303333 0 0.128333 0.0303333 0 0.100667 0.0312667 0 0.102533 0.0312667 0 0.1044 0.0312667 0 0.106267 0.0312667 0 0.108133 0.0312667 0 0.11 0.0312667 0 0.111867 0.0312667 0 0.113733 0.0312667 0 0.1156 0.0312667 0 0.117467 0.0312667 0 0.119333 0.0312667 0 0.1212 0.0312667 0 0.123067 0.0312667 0 0.124933 0.0312667 0 0.1268 0.0312667 0 0.128667 0.0312667 0 0.103 0.0322 0 0.104733 0.0322 0 0.106467 0.0322 0 0.1082 0.0322 0 0.109933 0.0322 0 0.111667 0.0322 0 0.1134 0.0322 0 0.115133 0.0322 0 0.116867 0.0322 0 0.1186 0.0322 0 0.120333 0.0322 0 0.122067 0.0322 0 0.1238 0.0322 0 0.125533 0.0322 0 0.127267 0.0322 0 0.129 0.0322 0 0.105333 0.0331333 0 0.106933 0.0331333 0 0.108533 0.0331333 0 0.110133 0.0331333 0 0.111733 0.0331333 0 0.113333 0.0331333 0 0.114933 0.0331333 0 0.116533 0.0331333 0 0.118133 0.0331333 0 0.119733 0.0331333 0 0.121333 0.0331333 0 0.122933 0.0331333 0 0.124533 0.0331333 0 0.126133 0.0331333 0 0.127733 0.0331333 0 0.129333 0.0331333 0 0.107667 0.0340667 0 0.109133 0.0340667 0 0.1106 0.0340667 0 0.112067 0.0340667 0 0.113533 0.0340667 0 0.115 0.0340667 0 0.116467 0.0340667 0 0.117933 0.0340667 0 0.1194 0.0340667 0 0.120867 0.0340667 0 0.122333 0.0340667 0 0.1238 0.0340667 0 0.125267 0.0340667 0 0.126733 0.0340667 0 0.1282 0.0340667 0 0.129667 0.0340667 0 0.11 0.035 0 0.111333 0.035 0 0.112667 0.035 0 0.114 0.035 0 0.115333 0.035 0 0.116667 0.035 0 0.118 0.035 0 0.119333 0.035 0 0.120667 0.035 0 0.122 0.035 0 0.123333 0.035 0 0.124667 0.035 0 0.126 0.035 0 0.127333 0.035 0 0.128667 0.035 0 0.13 0.035 0 
</DataArray>
</Points> 
</Piece> 
</StructuredGrid> 
</VTKFile> 
