<?xml version="1.0"?> 
<VTKFile type="StructuredGrid" version="0.1"> 
<StructuredGrid WholeExtent="0 15 0 15 0 0"> 
<Piece Extent="0 15 0 15 0 0"> 
<PointData>
<DataArray type="Float32" Name="|E|" format="ascii" NumberOfComponents="3"> 
194132 5.14949e+06 0 313700 5.0919e+06 0 431127 5.04154e+06 0 545759 4.98772e+06 0 657031 4.92803e+06 0 764405 4.86174e+06 0 867335 4.78844e+06 0 965279 4.70794e+06 0 1.05765e+06 4.61995e+06 0 1.14379e+06 4.52395e+06 0 1.22279e+06 4.41876e+06 0 1.29332e+06 4.30213e+06 0 1.35291e+06 4.169e+06 0 1.39673e+06 4.00884e+06 0 1.41165e+06 3.79166e+06 0 1.34748e+06 3.40106e+06 0 127136 4.97837e+06 0 245878 4.94248e+06 0 356582 4.90091e+06 0 461850 4.85436e+06 0 562746 4.80234e+06 0 659446 4.74448e+06 0 751756 4.68061e+06 0 839280 4.61067e+06 0 921424 4.53462e+06 0 997343 4.45238e+06 0 1.06574e+06 4.36373e+06 0 1.12452e+06 4.26815e+06 0 1.16993e+06 4.16482e+06 0 1.1948e+06 4.0525e+06 0 1.18443e+06 3.93146e+06 0 1.11032e+06 3.81603e+06 0 88423.7 4.82849e+06 0 194099 4.80334e+06 0 294383 4.77083e+06 0 389945 4.73207e+06 0 481247 4.68754e+06 0 568484 4.63745e+06 0 651603 4.58196e+06 0 730344 4.52126e+06 0 804257 4.45561e+06 0 872658 4.38532e+06 0 934533 4.31086e+06 0 988349 4.23293e+06 0 1.03176e+06 4.15274e+06 0 1.06119e+06 4.07279e+06 0 1.0714e+06 3.99846e+06 0 1.05523e+06 3.94111e+06 0 61473.2 4.69732e+06 0 154358 4.6787e+06 0 243686 4.65296e+06 0 329340 4.62086e+06 0 411405 4.58296e+06 0 489919 4.5397e+06 0 564828 4.49143e+06 0 635971 4.43854e+06 0 703066 4.38146e+06 0 765706 4.32074e+06 0 823324 4.25713e+06 0 875175 4.1917e+06 0 920317 4.12605e+06 0 957711 4.06271e+06 0 986600 4.00574e+06 0 1.00816e+06 3.96141e+06 0 41679.7 4.58242e+06 0 123288 4.56828e+06 0 202229 4.54754e+06 0 278377 4.52072e+06 0 351651 4.48829e+06 0 422003 4.45072e+06 0 489373 4.40844e+06 0 553668 4.36189e+06 0 614753 4.31158e+06 0 672453 4.25812e+06 0 726567 4.20227e+06 0 776897 4.14503e+06 0 823325 4.08773e+06 0 865959 4.03215e+06 0 905416 3.98066e+06 0 943024 3.93626e+06 0 27211.3 4.48183e+06 0 98607.7 4.47098e+06 0 168025 4.45399e+06 0 235284 4.43127e+06 0 300285 4.40321e+06 0 362963 4.37022e+06 0 423267 4.33273e+06 0 481159 4.29118e+06 0 536603 4.24606e+06 0 589582 4.19794e+06 0 640111 4.14748e+06 0 688281 4.09546e+06 0 734323 4.04283e+06 0 778704 3.99071e+06 0 822297 3.94036e+06 0 866657 3.89301e+06 0 16637.7 4.39406e+06 0 78838.5 4.38568e+06 0 139499 4.37155e+06 0 198495 4.352e+06 0 255733 4.32735e+06 0 311158 4.29796e+06 0 364742 4.26421e+06 0 416485 4.22652e+06 0 466412 4.18531e+06 0 514589 4.14106e+06 0 561136 4.09431e+06 0 606255 4.04564e+06 0 650275 3.99568e+06 0 693697 3.9451e+06 0 737258 3.89454e+06 0 781932 3.84458e+06 0 9110.79 4.31792e+06 0 62867 4.31142e+06 0 115437 4.29949e+06 0 166718 4.28237e+06 0 216640 4.26036e+06 0 265167 4.23376e+06 0 312290 4.2029e+06 0 358033 4.16813e+06 0 402452 4.12983e+06 0 445648 4.08838e+06 0 487773 4.04421e+06 0 529048 3.99774e+06 0 569783 3.94938e+06 0 610399 3.89956e+06 0 651447 3.84858e+06 0 693626 3.79666e+06 0 3927.18 4.25248e+06 0 49864.6 4.24742e+06 0 94880.9 4.23716e+06 0 138904 4.22192e+06 0 181885 4.20194e+06 0 223803 4.17747e+06 0 264664 4.1488e+06 0 304504 4.11624e+06 0 343389 4.08009e+06 0 381425 4.04068e+06 0 418759 3.99833e+06 0 455589 3.95335e+06 0 492171 3.90604e+06 0 528821 3.85666e+06 0 565922 3.80539e+06 0 603895 3.75234e+06 0 573.542 4.197e+06 0 39175.2 4.19304e+06 0 77070.1 4.18407e+06 0 114205 4.17025e+06 0 150549 4.15181e+06 0 186093 4.12896e+06 0 220849 4.10195e+06 0 254857 4.07103e+06 0 288182 4.03648e+06 0 320920 3.99855e+06 0 353196 3.9575e+06 0 385170 3.91358e+06 0 417039 3.86701e+06 0 449027 3.81797e+06 0 481391 3.76659e+06 0 514397 3.71293e+06 0 -1371.97 4.15091e+06 0 30277.9 4.14779e+06 0 61392.2 4.13977e+06 0 91934.4 4.12703e+06 0 121885 4.10975e+06 0 151240 4.08811e+06 0 180018 4.06233e+06 0 208255 4.03264e+06 0 236006 3.99926e+06 0 263353 3.96241e+06 0 290394 3.92231e+06 0 317252 3.87916e+06 0 344069 3.83315e+06 0 371000 3.78441e+06 0 398210 3.73306e+06 0 425857 3.67916e+06 0 -2245.42 4.11376e+06 0 22748.3 4.11125e+06 0 47347.2 4.10395e+06 0 71526.1 4.09201e+06 0 95272.9 4.07557e+06 0 118589 4.05483e+06 0 141490 4.02996e+06 0 164008 4.00116e+06 0 186187 3.96863e+06 0 208089 3.93257e+06 0 229790 3.89316e+06 0 251377 3.85058e+06 0 272950 3.80499e+06 0 294611 3.75652e+06 0 316464 3.70529e+06 0 338603 3.65136e+06 0 -2325.49 4.0852e+06 0 16235.5 4.08313e+06 0 34519.1 4.07634e+06 0 52508.8 4.06496e+06 0 70197.5 4.04914e+06 0 87588.1 4.02903e+06 0 104693 4.00481e+06 0 121537 3.97664e+06 0 138154 3.94472e+06 0 154586 3.90921e+06 0 170889 3.87029e+06 0 187122 3.82813e+06 0 203349 3.78286e+06 0 219637 3.73462e+06 0 236047 3.68353e+06 0 252634 3.62968e+06 0 -1846.12 4.06497e+06 0 10442.1 4.06319e+06 0 22554.2 4.05675e+06 0 34479.9 4.04576e+06 0 46215.7 4.03034e+06 0 57763.9 4.01066e+06 0 69133.7 3.98686e+06 0 80341 3.95912e+06 0 91408.1 3.9276e+06 0 102363 3.89246e+06 0 113240 3.85387e+06 0 124076 3.81199e+06 0 134910 3.76695e+06 0 145780 3.71889e+06 0 156721 3.66793e+06 0 167762 3.61418e+06 0 -1010.05 4.0529e+06 0 5108.76 4.0513e+06 0 11142 4.04505e+06 0 17085 4.03427e+06 0 22936 4.01909e+06 0 28696.6 3.99965e+06 0 34371.4 3.9761e+06 0 39968.3 3.9486e+06 0 45498.3 3.91731e+06 0 50975.4 3.88239e+06 0 56415.5 3.84399e+06 0 61836.5 3.80227e+06 0 67256.5 3.75737e+06 0 72693.3 3.70942e+06 0 78162.6 3.65855e+06 0 83676.4 3.60488e+06 0 0 4.04889e+06 0 0 4.04734e+06 0 0 4.04116e+06 0 0 4.03045e+06 0 0 4.01535e+06 0 0 3.99599e+06 0 0 3.97252e+06 0 0 3.9451e+06 0 0 3.91388e+06 0 0 3.87903e+06 0 0 3.84069e+06 0 0 3.79903e+06 0 0 3.75417e+06 0 0 3.70626e+06 0 0 3.65542e+06 0 0 3.60178e+06 0 </DataArray> 
</PointData> 
<Points> 
<DataArray type="Float32" NumberOfComponents="3"> 
0.146503 0.0663945 0 0.148836 0.0662787 0 0.151169 0.066107 0 0.153502 0.0658797 0 0.155835 0.0655965 0 0.158169 0.0652575 0 0.160502 0.0648628 0 0.162835 0.0644123 0 0.165168 0.063906 0 0.167502 0.0633439 0 0.169835 0.062726 0 0.172169 0.0620524 0 0.174502 0.061323 0 0.176836 0.0605378 0 0.17917 0.0596968 0 0.181504 0.0588001 0 0.146503 0.0694349 0 0.148836 0.0693268 0 0.151169 0.0691666 0 0.153502 0.0689543 0 0.155835 0.06869 0 0.158168 0.0683737 0 0.160502 0.0680053 0 0.162835 0.0675848 0 0.165168 0.0671122 0 0.167502 0.0665876 0 0.169835 0.066011 0 0.172169 0.0653822 0 0.174502 0.0647015 0 0.176836 0.0639686 0 0.17917 0.0631837 0 0.181503 0.0623467 0 0.146503 0.0724752 0 0.148836 0.0723748 0 0.151169 0.0722261 0 0.153502 0.072029 0 0.155835 0.0717836 0 0.158168 0.0714898 0 0.160502 0.0711477 0 0.162835 0.0707573 0 0.165168 0.0703185 0 0.167502 0.0698314 0 0.169835 0.0692959 0 0.172169 0.0687121 0 0.174502 0.0680799 0 0.176836 0.0673994 0 0.179169 0.0666706 0 0.181503 0.0658934 0 0.146503 0.0755156 0 0.148836 0.0754229 0 0.151169 0.0752856 0 0.153502 0.0751037 0 0.155835 0.0748772 0 0.158168 0.074606 0 0.160501 0.0742902 0 0.162835 0.0739298 0 0.165168 0.0735248 0 0.167501 0.0730751 0 0.169835 0.0725808 0 0.172168 0.0720419 0 0.174502 0.0714584 0 0.176836 0.0708302 0 0.179169 0.0701575 0 0.181503 0.0694401 0 0.146502 0.078556 0 0.148835 0.078471 0 0.151169 0.0783452 0 0.153502 0.0781784 0 0.155835 0.0779707 0 0.158168 0.0777222 0 0.160501 0.0774327 0 0.162835 0.0771023 0 0.165168 0.076731 0 0.167501 0.0763189 0 0.169835 0.0758658 0 0.172168 0.0753718 0 0.174502 0.0748369 0 0.176835 0.0742611 0 0.179169 0.0736443 0 0.181503 0.0729867 0 0.146502 0.0815963 0 0.148835 0.0815191 0 0.151168 0.0814047 0 0.153501 0.0812531 0 0.155835 0.0810643 0 0.158168 0.0808383 0 0.160501 0.0805752 0 0.162834 0.0802748 0 0.165168 0.0799373 0 0.167501 0.0795626 0 0.169835 0.0791507 0 0.172168 0.0787016 0 0.174502 0.0782153 0 0.176835 0.0776919 0 0.179169 0.0771312 0 0.181502 0.0765334 0 0.146502 0.0846367 0 0.148835 0.0845672 0 0.151168 0.0844642 0 0.153501 0.0843278 0 0.155835 0.0841579 0 0.158168 0.0839545 0 0.160501 0.0837177 0 0.162834 0.0834474 0 0.165168 0.0831436 0 0.167501 0.0828063 0 0.169834 0.0824356 0 0.172168 0.0820314 0 0.174501 0.0815938 0 0.176835 0.0811227 0 0.179169 0.0806181 0 0.181502 0.08008 0 0.146502 0.0876771 0 0.148835 0.0876153 0 0.151168 0.0875238 0 0.153501 0.0874025 0 0.155834 0.0872515 0 0.158168 0.0870707 0 0.160501 0.0868601 0 0.162834 0.0866199 0 0.165168 0.0863499 0 0.167501 0.0860501 0 0.169834 0.0857206 0 0.172168 0.0853613 0 0.174501 0.0849723 0 0.176835 0.0845535 0 0.179168 0.084105 0 0.181502 0.0836267 0 0.146502 0.0907174 0 0.148835 0.0906634 0 0.151168 0.0905833 0 0.153501 0.0904772 0 0.155834 0.090345 0 0.158168 0.0901868 0 0.160501 0.0900026 0 0.162834 0.0897924 0 0.165167 0.0895561 0 0.167501 0.0892938 0 0.169834 0.0890055 0 0.172168 0.0886911 0 0.174501 0.0883507 0 0.176835 0.0879843 0 0.179168 0.0875919 0 0.181502 0.0871734 0 0.146501 0.0937578 0 0.148834 0.0937115 0 0.151168 0.0936428 0 0.153501 0.0935519 0 0.155834 0.0934386 0 0.158167 0.093303 0 0.160501 0.0931451 0 0.162834 0.0929649 0 0.165167 0.0927624 0 0.167501 0.0925376 0 0.169834 0.0922904 0 0.172168 0.092021 0 0.174501 0.0917292 0 0.176834 0.0914151 0 0.179168 0.0910787 0 0.181501 0.09072 0 0.146501 0.0967982 0 0.148834 0.0967596 0 0.151168 0.0967023 0 0.153501 0.0966266 0 0.155834 0.0965322 0 0.158167 0.0964192 0 0.160501 0.0962876 0 0.162834 0.0961374 0 0.165167 0.0959687 0 0.167501 0.0957813 0 0.169834 0.0955753 0 0.172167 0.0953508 0 0.174501 0.0951077 0 0.176834 0.0948459 0 0.179168 0.0945656 0 0.181501 0.0942667 0 0.146501 0.0998385 0 0.148834 0.0998076 0 0.151167 0.0997619 0 0.153501 0.0997012 0 0.155834 0.0996257 0 0.158167 0.0995353 0 0.1605 0.0994301 0 0.162834 0.0993099 0 0.165167 0.0991749 0 0.1675 0.099025 0 0.169834 0.0988603 0 0.172167 0.0986806 0 0.174501 0.0984861 0 0.176834 0.0982767 0 0.179167 0.0980525 0 0.181501 0.0978134 0 0.146501 0.102879 0 0.148834 0.102856 0 0.151167 0.102821 0 0.1535 0.102776 0 0.155834 0.102719 0 0.158167 0.102652 0 0.1605 0.102573 0 0.162834 0.102482 0 0.165167 0.102381 0 0.1675 0.102269 0 0.169834 0.102145 0 0.172167 0.10201 0 0.1745 0.101865 0 0.176834 0.101708 0 0.179167 0.101539 0 0.181501 0.10136 0 0.1465 0.105919 0 0.148834 0.105904 0 0.151167 0.105881 0 0.1535 0.105851 0 0.155834 0.105813 0 0.158167 0.105768 0 0.1605 0.105715 0 0.162834 0.105655 0 0.165167 0.105587 0 0.1675 0.105513 0 0.169834 0.10543 0 0.172167 0.10534 0 0.1745 0.105243 0 0.176834 0.105138 0 0.179167 0.105026 0 0.1815 0.104907 0 0.1465 0.10896 0 0.148834 0.108952 0 0.151167 0.10894 0 0.1535 0.108925 0 0.155833 0.108906 0 0.158167 0.108884 0 0.1605 0.108858 0 0.162833 0.108827 0 0.165167 0.108794 0 0.1675 0.108756 0 0.169833 0.108715 0 0.172167 0.10867 0 0.1745 0.108622 0 0.176834 0.108569 0 0.179167 0.108513 0 0.1815 0.108453 0 0.1465 0.112 0 0.148833 0.112 0 0.151167 0.112 0 0.1535 0.112 0 0.155833 0.112 0 0.158167 0.112 0 0.1605 0.112 0 0.162833 0.112 0 0.165167 0.112 0 0.1675 0.112 0 0.169833 0.112 0 0.172167 0.112 0 0.1745 0.112 0 0.176833 0.112 0 0.179167 0.112 0 0.1815 0.112 0 
</DataArray>
</Points> 
</Piece> 
</StructuredGrid> 
</VTKFile> 
