<?xml version="1.0"?> 
<VTKFile type="StructuredGrid" version="0.1"> 
<StructuredGrid WholeExtent="0 15 0 15 0 0"> 
<Piece Extent="0 15 0 15 0 0"> 
<PointData>
<DataArray type="Float32" Name="|E|" format="ascii" NumberOfComponents="3"> 
1.07915e+06 -448755 0 1.63623e+06 -208147 0 1.77357e+06 -39892.7 0 1.7382e+06 65883.3 0 1.60384e+06 122943 0 1.43326e+06 137700 0 1.26148e+06 133880 0 1.10315e+06 120283 0 964986 103725 0 848121 86502.3 0 752346 69929.4 0 676361 54337.6 0 618904 39752.2 0 578765 26009.1 0 555057 12852.3 0 547219 0 0 1.13545e+06 -472168 0 1.6494e+06 -217896 0 1.78261e+06 -39856.8 0 1.74092e+06 73394.8 0 1.60288e+06 132266 0 1.43077e+06 147538 0 1.25857e+06 142937 0 1.10044e+06 128326 0 962625 110584 0 846176 92209.8 0 750766 74536.3 0 675092 57917.6 0 617872 42372.7 0 577901 27724.1 0 554292 13700.4 0 546486 0 0 1.1866e+06 -493439 0 1.66384e+06 -227185 0 1.79194e+06 -39095.7 0 1.74378e+06 81195.6 0 1.60193e+06 141790 0 1.42825e+06 157421 0 1.2556e+06 152002 0 1.09766e+06 136348 0 960201 117419 0 844168 97893.5 0 749128 79123.1 0 673768 61481.8 0 616788 44981.6 0 576987 29431.6 0 553478 14544.9 0 545706 0 0 1.23353e+06 -512953 0 1.67939e+06 -235945 0 1.80157e+06 -37626.8 0 1.74675e+06 89306.2 0 1.60099e+06 151512 0 1.42567e+06 167350 0 1.25258e+06 161073 0 1.09482e+06 144349 0 957713 124230 0 842098 103553 0 747432 83689.6 0 672389 65029.9 0 615652 47578.7 0 576023 31131.6 0 552616 15385.5 0 544878 0 0 1.277e+06 -531028 0 1.69593e+06 -244123 0 1.81148e+06 -35460.5 0 1.74981e+06 97743.9 0 1.60004e+06 161426 0 1.42305e+06 177328 0 1.2495e+06 170150 0 1.09191e+06 152331 0 955162 131016 0 839964 109188 0 745677 88235.5 0 670954 68561.8 0 614464 50164 0 575010 32823.8 0 551706 16222.3 0 544001 0 0 1.31765e+06 -547933 0 1.71336e+06 -251678 0 1.82168e+06 -32600.8 0 1.75297e+06 106523 0 1.59908e+06 171532 0 1.42037e+06 187358 0 1.24636e+06 179232 0 1.08893e+06 160292 0 952545 137777 0 837769 114799 0 743864 92760.5 0 669465 72077.2 0 613224 52737.1 0 573947 34508.3 0 550748 17055.3 0 543078 0 0 1.35603e+06 -563895 0 1.73158e+06 -258578 0 1.83217e+06 -29046.6 0 1.75618e+06 115655 0 1.59809e+06 181826 0 1.41763e+06 197439 0 1.24316e+06 188319 0 1.08588e+06 168233 0 949864 144513 0 835510 120385 0 741992 97264.5 0 667921 75576 0 611932 55298 0 572834 36184.8 0 549741 17884.3 0 542106 0 0 1.39262e+06 -579110 0 1.75054e+06 -264799 0 1.84293e+06 -24791.8 0 1.75944e+06 125150 0 1.59707e+06 192308 0 1.41482e+06 207572 0 1.23989e+06 197410 0 1.08276e+06 176154 0 947118 151224 0 833190 125946 0 740063 101747 0 666322 79057.8 0 610589 57846.5 0 571673 37853.2 0 548687 18709.4 0 541088 0 0 1.42782e+06 -593746 0 1.77019e+06 -270323 0 1.85395e+06 -19825.7 0 1.76274e+06 135013 0 1.596e+06 202977 0 1.41194e+06 217758 0 1.23655e+06 206504 0 1.07958e+06 184054 0 944306 157909 0 830807 131482 0 738076 106208 0 664668 82522.6 0 609194 60382.5 0 570461 39513.5 0 547584 19530.4 0 540021 0 0 1.46199e+06 -607956 0 1.79049e+06 -275135 0 1.86523e+06 -14133.2 0 1.76604e+06 145249 0 1.59488e+06 213832 0 1.409e+06 227994 0 1.23313e+06 215601 0 1.07632e+06 191933 0 941428 164567 0 828361 136993 0 736030 110648 0 662960 85970 0 607748 62905.8 0 569201 41165.4 0 546434 20347.4 0 538907 0 0 1.49547e+06 -621877 0 1.8114e+06 -279227 0 1.87674e+06 -7694.18 0 1.76934e+06 155857 0 1.59369e+06 224875 0 1.40597e+06 238279 0 1.22965e+06 224701 0 1.07299e+06 199791 0 938485 171200 0 825853 142477 0 733927 115065 0 661197 89399.9 0 606251 65416.1 0 567891 42809 0 545236 21160.1 0 537746 0 0 1.52856e+06 -635640 0 1.8329e+06 -282594 0 1.88847e+06 -483.14 0 1.77261e+06 166835 0 1.59243e+06 236109 0 1.40286e+06 248609 0 1.22608e+06 233804 0 1.06958e+06 207626 0 935474 177806 0 823283 147936 0 731766 119460 0 659381 92812.1 0 604702 67913.4 0 566533 44444.1 0 543990 21968.7 0 536538 0 0 1.56159e+06 -649373 0 1.85497e+06 -285234 0 1.9004e+06 7531.94 0 1.77583e+06 178174 0 1.59107e+06 247537 0 1.39966e+06 258981 0 1.22244e+06 242912 0 1.06611e+06 215436 0 932397 184385 0 820651 153367 0 729548 123832 0 657510 96206.2 0 603103 70397.5 0 565125 46070.5 0 542697 22773 0 535283 0 0 1.59485e+06 -663204 0 1.87757e+06 -287155 0 1.91251e+06 16391 0 1.779e+06 189860 0 1.58962e+06 259166 0 1.39638e+06 269386 0 1.21872e+06 252027 0 1.06256e+06 223221 0 929252 190939 0 817956 158771 0 727271 128182 0 655585 99582.2 0 601452 72868.1 0 563669 47688.3 0 541356 23573 0 533980 0 0 1.62868e+06 -677271 0 1.9007e+06 -288369 0 1.92479e+06 26143.9 0 1.78208e+06 201873 0 1.58805e+06 271008 0 1.393e+06 279816 0 1.21491e+06 261150 0 1.05894e+06 230976 0 926039 197467 0 815200 164148 0 724937 132509 0 653606 102940 0 599750 75325.2 0 562164 49297.2 0 539968 24368.5 0 532631 0 0 1.66343e+06 -691722 0 1.92432e+06 -288903 0 1.9372e+06 36852.4 0 1.78507e+06 214181 0 1.58636e+06 283078 0 1.38953e+06 290258 0 1.21101e+06 270288 0 1.05525e+06 238700 0 922757 203969 0 812383 169495 0 722544 136813 0 651574 106279 0 597998 77768.5 0 560610 50897.4 0 538533 25159.4 0 531234 0 0 </DataArray> 
</PointData> 
<Points> 
<DataArray type="Float32" NumberOfComponents="3"> 
0.1905 0.0099 0 0.202667 0.0099 0 0.214833 0.0099 0 0.227 0.0099 0 0.239167 0.0099 0 0.251333 0.0099 0 0.2635 0.0099 0 0.275667 0.0099 0 0.287833 0.0099 0 0.3 0.0099 0 0.312167 0.0099 0 0.324333 0.0099 0 0.3365 0.0099 0 0.348667 0.0099 0 0.360833 0.0099 0 0.373 0.0099 0 0.19078 0.0105733 0 0.202928 0.0105733 0 0.215076 0.0105733 0 0.227224 0.0105733 0 0.239372 0.0105733 0 0.25152 0.0105733 0 0.263668 0.0105733 0 0.275816 0.0105733 0 0.287964 0.0105733 0 0.300112 0.0105733 0 0.31226 0.0105733 0 0.324408 0.0105733 0 0.336556 0.0105733 0 0.348704 0.0105733 0 0.360852 0.0105733 0 0.373 0.0105733 0 0.19106 0.0112467 0 0.203189 0.0112467 0 0.215319 0.0112467 0 0.227448 0.0112467 0 0.239577 0.0112467 0 0.251707 0.0112467 0 0.263836 0.0112467 0 0.275965 0.0112467 0 0.288095 0.0112467 0 0.300224 0.0112467 0 0.312353 0.0112467 0 0.324483 0.0112467 0 0.336612 0.0112467 0 0.348741 0.0112467 0 0.360871 0.0112467 0 0.373 0.0112467 0 0.19134 0.01192 0 0.203451 0.01192 0 0.215561 0.01192 0 0.227672 0.01192 0 0.239783 0.01192 0 0.251893 0.01192 0 0.264004 0.01192 0 0.276115 0.01192 0 0.288225 0.01192 0 0.300336 0.01192 0 0.312447 0.01192 0 0.324557 0.01192 0 0.336668 0.01192 0 0.348779 0.01192 0 0.360889 0.01192 0 0.373 0.01192 0 0.19162 0.0125933 0 0.203712 0.0125933 0 0.215804 0.0125933 0 0.227896 0.0125933 0 0.239988 0.0125933 0 0.25208 0.0125933 0 0.264172 0.0125933 0 0.276264 0.0125933 0 0.288356 0.0125933 0 0.300448 0.0125933 0 0.31254 0.0125933 0 0.324632 0.0125933 0 0.336724 0.0125933 0 0.348816 0.0125933 0 0.360908 0.0125933 0 0.373 0.0125933 0 0.1919 0.0132667 0 0.203973 0.0132667 0 0.216047 0.0132667 0 0.22812 0.0132667 0 0.240193 0.0132667 0 0.252267 0.0132667 0 0.26434 0.0132667 0 0.276413 0.0132667 0 0.288487 0.0132667 0 0.30056 0.0132667 0 0.312633 0.0132667 0 0.324707 0.0132667 0 0.33678 0.0132667 0 0.348853 0.0132667 0 0.360927 0.0132667 0 0.373 0.0132667 0 0.19218 0.01394 0 0.204235 0.01394 0 0.216289 0.01394 0 0.228344 0.01394 0 0.240399 0.01394 0 0.252453 0.01394 0 0.264508 0.01394 0 0.276563 0.01394 0 0.288617 0.01394 0 0.300672 0.01394 0 0.312727 0.01394 0 0.324781 0.01394 0 0.336836 0.01394 0 0.348891 0.01394 0 0.360945 0.01394 0 0.373 0.01394 0 0.19246 0.0146133 0 0.204496 0.0146133 0 0.216532 0.0146133 0 0.228568 0.0146133 0 0.240604 0.0146133 0 0.25264 0.0146133 0 0.264676 0.0146133 0 0.276712 0.0146133 0 0.288748 0.0146133 0 0.300784 0.0146133 0 0.31282 0.0146133 0 0.324856 0.0146133 0 0.336892 0.0146133 0 0.348928 0.0146133 0 0.360964 0.0146133 0 0.373 0.0146133 0 0.19274 0.0152867 0 0.204757 0.0152867 0 0.216775 0.0152867 0 0.228792 0.0152867 0 0.240809 0.0152867 0 0.252827 0.0152867 0 0.264844 0.0152867 0 0.276861 0.0152867 0 0.288879 0.0152867 0 0.300896 0.0152867 0 0.312913 0.0152867 0 0.324931 0.0152867 0 0.336948 0.0152867 0 0.348965 0.0152867 0 0.360983 0.0152867 0 0.373 0.0152867 0 0.19302 0.01596 0 0.205019 0.01596 0 0.217017 0.01596 0 0.229016 0.01596 0 0.241015 0.01596 0 0.253013 0.01596 0 0.265012 0.01596 0 0.277011 0.01596 0 0.289009 0.01596 0 0.301008 0.01596 0 0.313007 0.01596 0 0.325005 0.01596 0 0.337004 0.01596 0 0.349003 0.01596 0 0.361001 0.01596 0 0.373 0.01596 0 0.1933 0.0166333 0 0.20528 0.0166333 0 0.21726 0.0166333 0 0.22924 0.0166333 0 0.24122 0.0166333 0 0.2532 0.0166333 0 0.26518 0.0166333 0 0.27716 0.0166333 0 0.28914 0.0166333 0 0.30112 0.0166333 0 0.3131 0.0166333 0 0.32508 0.0166333 0 0.33706 0.0166333 0 0.34904 0.0166333 0 0.36102 0.0166333 0 0.373 0.0166333 0 0.19358 0.0173067 0 0.205541 0.0173067 0 0.217503 0.0173067 0 0.229464 0.0173067 0 0.241425 0.0173067 0 0.253387 0.0173067 0 0.265348 0.0173067 0 0.277309 0.0173067 0 0.289271 0.0173067 0 0.301232 0.0173067 0 0.313193 0.0173067 0 0.325155 0.0173067 0 0.337116 0.0173067 0 0.349077 0.0173067 0 0.361039 0.0173067 0 0.373 0.0173067 0 0.19386 0.01798 0 0.205803 0.01798 0 0.217745 0.01798 0 0.229688 0.01798 0 0.241631 0.01798 0 0.253573 0.01798 0 0.265516 0.01798 0 0.277459 0.01798 0 0.289401 0.01798 0 0.301344 0.01798 0 0.313287 0.01798 0 0.325229 0.01798 0 0.337172 0.01798 0 0.349115 0.01798 0 0.361057 0.01798 0 0.373 0.01798 0 0.19414 0.0186533 0 0.206064 0.0186533 0 0.217988 0.0186533 0 0.229912 0.0186533 0 0.241836 0.0186533 0 0.25376 0.0186533 0 0.265684 0.0186533 0 0.277608 0.0186533 0 0.289532 0.0186533 0 0.301456 0.0186533 0 0.31338 0.0186533 0 0.325304 0.0186533 0 0.337228 0.0186533 0 0.349152 0.0186533 0 0.361076 0.0186533 0 0.373 0.0186533 0 0.19442 0.0193267 0 0.206325 0.0193267 0 0.218231 0.0193267 0 0.230136 0.0193267 0 0.242041 0.0193267 0 0.253947 0.0193267 0 0.265852 0.0193267 0 0.277757 0.0193267 0 0.289663 0.0193267 0 0.301568 0.0193267 0 0.313473 0.0193267 0 0.325379 0.0193267 0 0.337284 0.0193267 0 0.349189 0.0193267 0 0.361095 0.0193267 0 0.373 0.0193267 0 0.1947 0.02 0 0.206587 0.02 0 0.218473 0.02 0 0.23036 0.02 0 0.242247 0.02 0 0.254133 0.02 0 0.26602 0.02 0 0.277907 0.02 0 0.289793 0.02 0 0.30168 0.02 0 0.313567 0.02 0 0.325453 0.02 0 0.33734 0.02 0 0.349227 0.02 0 0.361113 0.02 0 0.373 0.02 0 
</DataArray>
</Points> 
</Piece> 
</StructuredGrid> 
</VTKFile> 
