<?xml version="1.0"?> 
<VTKFile type="StructuredGrid" version="0.1"> 
<StructuredGrid WholeExtent="0 127 0 127 0 0"> 
<Piece Extent="0 127 0 127 0 0"> 
<PointData>
<DataArray type="Float32" Name="|E|" format="ascii" NumberOfComponents="3"> 
-2.59649e+06 3.72506e+06 0 -2.60383e+06 3.74094e+06 0 -2.61114e+06 3.75702e+06 0 -2.61843e+06 3.77333e+06 0 -2.62569e+06 3.78985e+06 0 -2.63292e+06 3.80659e+06 0 -2.64012e+06 3.82357e+06 0 -2.64728e+06 3.84077e+06 0 -2.65441e+06 3.85821e+06 0 -2.66148e+06 3.87588e+06 0 -2.66851e+06 3.8938e+06 0 -2.67549e+06 3.91196e+06 0 -2.68242e+06 3.93038e+06 0 -2.68928e+06 3.94905e+06 0 -2.69608e+06 3.96798e+06 0 -2.70282e+06 3.98717e+06 0 -2.70948e+06 4.00662e+06 0 -2.71606e+06 4.02635e+06 0 -2.72256e+06 4.04635e+06 0 -2.72897e+06 4.06664e+06 0 -2.73529e+06 4.0872e+06 0 -2.74151e+06 4.10806e+06 0 -2.74762e+06 4.1292e+06 0 -2.75363e+06 4.15064e+06 0 -2.75951e+06 4.17239e+06 0 -2.76528e+06 4.19443e+06 0 -2.77091e+06 4.21679e+06 0 -2.7764e+06 4.23946e+06 0 -2.78175e+06 4.26245e+06 0 -2.78694e+06 4.28576e+06 0 -2.79198e+06 4.30939e+06 0 -2.79684e+06 4.33336e+06 0 -2.80153e+06 4.35766e+06 0 -2.80603e+06 4.3823e+06 0 -2.81034e+06 4.40728e+06 0 -2.81444e+06 4.4326e+06 0 -2.81833e+06 4.45828e+06 0 -2.82199e+06 4.48431e+06 0 -2.82542e+06 4.51069e+06 0 -2.8286e+06 4.53744e+06 0 -2.83152e+06 4.56455e+06 0 -2.83418e+06 4.59203e+06 0 -2.83656e+06 4.61987e+06 0 -2.83864e+06 4.6481e+06 0 -2.84042e+06 4.67669e+06 0 -2.84188e+06 4.70567e+06 0 -2.843e+06 4.73502e+06 0 -2.84378e+06 4.76476e+06 0 -2.8442e+06 4.79488e+06 0 -2.84425e+06 4.82538e+06 0 -2.8439e+06 4.85628e+06 0 -2.84315e+06 4.88756e+06 0 -2.84198e+06 4.91923e+06 0 -2.84036e+06 4.95128e+06 0 -2.83829e+06 4.98373e+06 0 -2.83575e+06 5.01656e+06 0 -2.83271e+06 5.04977e+06 0 -2.82916e+06 5.08338e+06 0 -2.82508e+06 5.11736e+06 0 -2.82045e+06 5.15172e+06 0 -2.81526e+06 5.18646e+06 0 -2.80947e+06 5.22157e+06 0 -2.80307e+06 5.25705e+06 0 -2.79603e+06 5.29288e+06 0 -2.78834e+06 5.32908e+06 0 -2.77998e+06 5.36562e+06 0 -2.77091e+06 5.40251e+06 0 -2.76111e+06 5.43973e+06 0 -2.75057e+06 5.47727e+06 0 -2.73926e+06 5.51512e+06 0 -2.72714e+06 5.55328e+06 0 -2.71421e+06 5.59173e+06 0 -2.70042e+06 5.63045e+06 0 -2.68576e+06 5.66943e+06 0 -2.6702e+06 5.70866e+06 0 -2.65371e+06 5.74812e+06 0 -2.63627e+06 5.78778e+06 0 -2.61784e+06 5.82764e+06 0 -2.5984e+06 5.86766e+06 0 -2.57792e+06 5.90783e+06 0 -2.55638e+06 5.94812e+06 0 -2.53374e+06 5.98851e+06 0 -2.50999e+06 6.02896e+06 0 -2.48508e+06 6.06945e+06 0 -2.459e+06 6.10995e+06 0 -2.43171e+06 6.15042e+06 0 -2.40318e+06 6.19083e+06 0 -2.3734e+06 6.23115e+06 0 -2.34233e+06 6.27132e+06 0 -2.30995e+06 6.31132e+06 0 -2.27623e+06 6.35109e+06 0 -2.24115e+06 6.3906e+06 0 -2.20468e+06 6.4298e+06 0 -2.16679e+06 6.46863e+06 0 -2.12748e+06 6.50704e+06 0 -2.0867e+06 6.54498e+06 0 -2.04445e+06 6.58239e+06 0 -2.00071e+06 6.61922e+06 0 -1.95545e+06 6.65539e+06 0 -1.90867e+06 6.69085e+06 0 -1.86034e+06 6.72553e+06 0 -1.81046e+06 6.75936e+06 0 -1.75901e+06 6.79226e+06 0 -1.70599e+06 6.82417e+06 0 -1.65139e+06 6.855e+06 0 -1.59521e+06 6.88469e+06 0 -1.53744e+06 6.91313e+06 0 -1.47809e+06 6.94027e+06 0 -1.41715e+06 6.966e+06 0 -1.35465e+06 6.99024e+06 0 -1.29058e+06 7.01291e+06 0 -1.22496e+06 7.03392e+06 0 -1.1578e+06 7.05317e+06 0 -1.08912e+06 7.07059e+06 0 -1.01895e+06 7.0861e+06 0 -947287 7.09961e+06 0 -874170 7.11105e+06 0 -799616 7.12038e+06 0 -723646 7.12758e+06 0 -646272 7.13265e+06 0 -567502 7.13569e+06 0 -487324 7.13693e+06 0 -405679 7.13684e+06 0 -322465 7.13645e+06 0 -237318 7.13816e+06 0 -149644 7.14879e+06 0 -59133.5 7.19261e+06 0 18025.8 7.38368e+06 0 -2.52236e+06 3.61312e+06 0 -2.52974e+06 3.62835e+06 0 -2.53709e+06 3.64378e+06 0 -2.54443e+06 3.65942e+06 0 -2.55175e+06 3.67527e+06 0 -2.55905e+06 3.69133e+06 0 -2.56632e+06 3.70761e+06 0 -2.57356e+06 3.72412e+06 0 -2.58078e+06 3.74085e+06 0 -2.58795e+06 3.7578e+06 0 -2.59509e+06 3.775e+06 0 -2.60219e+06 3.79242e+06 0 -2.60923e+06 3.8101e+06 0 -2.61623e+06 3.82801e+06 0 -2.62318e+06 3.84618e+06 0 -2.63007e+06 3.8646e+06 0 -2.63689e+06 3.88327e+06 0 -2.64365e+06 3.90221e+06 0 -2.65034e+06 3.92142e+06 0 -2.65695e+06 3.94089e+06 0 -2.66348e+06 3.96064e+06 0 -2.66992e+06 3.98067e+06 0 -2.67626e+06 4.00098e+06 0 -2.68251e+06 4.02158e+06 0 -2.68866e+06 4.04247e+06 0 -2.69469e+06 4.06365e+06 0 -2.7006e+06 4.08514e+06 0 -2.70639e+06 4.10693e+06 0 -2.71205e+06 4.12903e+06 0 -2.71758e+06 4.15144e+06 0 -2.72295e+06 4.17417e+06 0 -2.72817e+06 4.19722e+06 0 -2.73323e+06 4.22059e+06 0 -2.73812e+06 4.2443e+06 0 -2.74283e+06 4.26834e+06 0 -2.74735e+06 4.29271e+06 0 -2.75167e+06 4.31743e+06 0 -2.75578e+06 4.34249e+06 0 -2.75968e+06 4.36791e+06 0 -2.76335e+06 4.39367e+06 0 -2.76678e+06 4.41979e+06 0 -2.76996e+06 4.44627e+06 0 -2.77288e+06 4.47311e+06 0 -2.77553e+06 4.50032e+06 0 -2.77789e+06 4.52789e+06 0 -2.77995e+06 4.55584e+06 0 -2.7817e+06 4.58416e+06 0 -2.78313e+06 4.61285e+06 0 -2.78421e+06 4.64192e+06 0 -2.78494e+06 4.67137e+06 0 -2.78531e+06 4.7012e+06 0 -2.78529e+06 4.73141e+06 0 -2.78487e+06 4.76201e+06 0 -2.78403e+06 4.79298e+06 0 -2.78276e+06 4.82434e+06 0 -2.78105e+06 4.85608e+06 0 -2.77886e+06 4.88819e+06 0 -2.77619e+06 4.92069e+06 0 -2.77301e+06 4.95357e+06 0 -2.76932e+06 4.98681e+06 0 -2.76507e+06 5.02043e+06 0 -2.76027e+06 5.05442e+06 0 -2.75488e+06 5.08877e+06 0 -2.74888e+06 5.12348e+06 0 -2.74226e+06 5.15854e+06 0 -2.73499e+06 5.19394e+06 0 -2.72705e+06 5.22969e+06 0 -2.71841e+06 5.26576e+06 0 -2.70906e+06 5.30215e+06 0 -2.69896e+06 5.33885e+06 0 -2.6881e+06 5.37586e+06 0 -2.67645e+06 5.41314e+06 0 -2.66398e+06 5.45071e+06 0 -2.65067e+06 5.48853e+06 0 -2.6365e+06 5.52659e+06 0 -2.62143e+06 5.56488e+06 0 -2.60544e+06 5.60338e+06 0 -2.58851e+06 5.64206e+06 0 -2.5706e+06 5.68091e+06 0 -2.5517e+06 5.71991e+06 0 -2.53177e+06 5.75902e+06 0 -2.51078e+06 5.79823e+06 0 -2.48872e+06 5.8375e+06 0 -2.46555e+06 5.87681e+06 0 -2.44125e+06 5.91613e+06 0 -2.41579e+06 5.95542e+06 0 -2.38914e+06 5.99464e+06 0 -2.36129e+06 6.03377e+06 0 -2.33219e+06 6.07275e+06 0 -2.30184e+06 6.11156e+06 0 -2.2702e+06 6.15014e+06 0 -2.23726e+06 6.18846e+06 0 -2.20298e+06 6.22645e+06 0 -2.16735e+06 6.26409e+06 0 -2.13036e+06 6.3013e+06 0 -2.09197e+06 6.33804e+06 0 -2.05217e+06 6.37424e+06 0 -2.01095e+06 6.40986e+06 0 -1.9683e+06 6.44483e+06 0 -1.92419e+06 6.47907e+06 0 -1.87863e+06 6.51254e+06 0 -1.83159e+06 6.54515e+06 0 -1.78308e+06 6.57683e+06 0 -1.73309e+06 6.60751e+06 0 -1.68163e+06 6.63711e+06 0 -1.62868e+06 6.66556e+06 0 -1.57426e+06 6.69277e+06 0 -1.51837e+06 6.71865e+06 0 -1.46102e+06 6.74312e+06 0 -1.40223e+06 6.76609e+06 0 -1.34201e+06 6.78748e+06 0 -1.28037e+06 6.80718e+06 0 -1.21734e+06 6.8251e+06 0 -1.15294e+06 6.84115e+06 0 -1.08719e+06 6.85522e+06 0 -1.02012e+06 6.86722e+06 0 -951731 6.87705e+06 0 -882047 6.88461e+06 0 -811065 6.88978e+06 0 -738764 6.89247e+06 0 -665086 6.89255e+06 0 -589917 6.88989e+06 0 -513044 6.8843e+06 0 -434105 6.87551e+06 0 -352528 6.86301e+06 0 -267663 6.84573e+06 0 -180066 6.8213e+06 0 -100214 6.78398e+06 0 -2.45095e+06 3.51258e+06 0 -2.45832e+06 3.52723e+06 0 -2.46568e+06 3.54208e+06 0 -2.47303e+06 3.55712e+06 0 -2.48036e+06 3.57237e+06 0 -2.48768e+06 3.58782e+06 0 -2.49498e+06 3.60348e+06 0 -2.50226e+06 3.61936e+06 0 -2.50952e+06 3.63545e+06 0 -2.51675e+06 3.65177e+06 0 -2.52394e+06 3.66831e+06 0 -2.53111e+06 3.68507e+06 0 -2.53823e+06 3.70207e+06 0 -2.54531e+06 3.71931e+06 0 -2.55235e+06 3.73679e+06 0 -2.55934e+06 3.75451e+06 0 -2.56628e+06 3.77248e+06 0 -2.57316e+06 3.7907e+06 0 -2.57997e+06 3.80919e+06 0 -2.58672e+06 3.82793e+06 0 -2.5934e+06 3.84693e+06 0 -2.6e+06 3.86621e+06 0 -2.60652e+06 3.88576e+06 0 -2.61295e+06 3.90559e+06 0 -2.61929e+06 3.9257e+06 0 -2.62553e+06 3.9461e+06 0 -2.63166e+06 3.96679e+06 0 -2.63768e+06 3.98778e+06 0 -2.64359e+06 4.00906e+06 0 -2.64936e+06 4.03065e+06 0 -2.65501e+06 4.05255e+06 0 -2.66051e+06 4.07476e+06 0 -2.66587e+06 4.09729e+06 0 -2.67107e+06 4.12014e+06 0 -2.6761e+06 4.14331e+06 0 -2.68097e+06 4.16681e+06 0 -2.68565e+06 4.19065e+06 0 -2.69013e+06 4.21482e+06 0 -2.69442e+06 4.23933e+06 0 -2.6985e+06 4.26419e+06 0 -2.70235e+06 4.28939e+06 0 -2.70597e+06 4.31495e+06 0 -2.70935e+06 4.34086e+06 0 -2.71247e+06 4.36713e+06 0 -2.71532e+06 4.39375e+06 0 -2.7179e+06 4.42075e+06 0 -2.72018e+06 4.4481e+06 0 -2.72216e+06 4.47583e+06 0 -2.72382e+06 4.50393e+06 0 -2.72514e+06 4.53239e+06 0 -2.72612e+06 4.56123e+06 0 -2.72674e+06 4.59045e+06 0 -2.72698e+06 4.62004e+06 0 -2.72682e+06 4.65001e+06 0 -2.72625e+06 4.68035e+06 0 -2.72526e+06 4.71107e+06 0 -2.72383e+06 4.74217e+06 0 -2.72193e+06 4.77363e+06 0 -2.71955e+06 4.80547e+06 0 -2.71667e+06 4.83768e+06 0 -2.71328e+06 4.87026e+06 0 -2.70935e+06 4.9032e+06 0 -2.70486e+06 4.9365e+06 0 -2.69979e+06 4.97015e+06 0 -2.69413e+06 5.00415e+06 0 -2.68784e+06 5.03849e+06 0 -2.68091e+06 5.07317e+06 0 -2.67332e+06 5.10817e+06 0 -2.66504e+06 5.1435e+06 0 -2.65604e+06 5.17913e+06 0 -2.64631e+06 5.21505e+06 0 -2.63582e+06 5.25127e+06 0 -2.62455e+06 5.28775e+06 0 -2.61247e+06 5.32449e+06 0 -2.59956e+06 5.36148e+06 0 -2.58579e+06 5.39869e+06 0 -2.57113e+06 5.4361e+06 0 -2.55557e+06 5.47371e+06 0 -2.53907e+06 5.51148e+06 0 -2.5216e+06 5.54939e+06 0 -2.50315e+06 5.58743e+06 0 -2.48369e+06 5.62556e+06 0 -2.46319e+06 5.66375e+06 0 -2.44162e+06 5.70199e+06 0 -2.41896e+06 5.74023e+06 0 -2.39519e+06 5.77844e+06 0 -2.37027e+06 5.8166e+06 0 -2.34419e+06 5.85466e+06 0 -2.31693e+06 5.89258e+06 0 -2.28845e+06 5.93033e+06 0 -2.25874e+06 5.96785e+06 0 -2.22777e+06 6.00511e+06 0 -2.19553e+06 6.04206e+06 0 -2.162e+06 6.07865e+06 0 -2.12715e+06 6.11482e+06 0 -2.09098e+06 6.15053e+06 0 -2.05346e+06 6.18571e+06 0 -2.01458e+06 6.2203e+06 0 -1.97434e+06 6.25425e+06 0 -1.93273e+06 6.28749e+06 0 -1.88972e+06 6.31996e+06 0 -1.84534e+06 6.35158e+06 0 -1.79956e+06 6.38228e+06 0 -1.75239e+06 6.41199e+06 0 -1.70383e+06 6.44064e+06 0 -1.6539e+06 6.46814e+06 0 -1.60259e+06 6.49441e+06 0 -1.54993e+06 6.51937e+06 0 -1.49593e+06 6.54294e+06 0 -1.44061e+06 6.56502e+06 0 -1.384e+06 6.58553e+06 0 -1.32611e+06 6.60436e+06 0 -1.26699e+06 6.62143e+06 0 -1.20666e+06 6.63664e+06 0 -1.14517e+06 6.64987e+06 0 -1.08255e+06 6.66102e+06 0 -1.01886e+06 6.66999e+06 0 -954127 6.67664e+06 0 -888406 6.68085e+06 0 -821746 6.68248e+06 0 -754195 6.68135e+06 0 -685807 6.67727e+06 0 -616648 6.67e+06 0 -546812 6.65923e+06 0 -476450 6.64456e+06 0 -405774 6.62548e+06 0 -334724 6.6012e+06 0 -260184 6.56971e+06 0 -2.38245e+06 3.42172e+06 0 -2.38979e+06 3.43586e+06 0 -2.39712e+06 3.45018e+06 0 -2.40445e+06 3.4647e+06 0 -2.41177e+06 3.47941e+06 0 -2.41908e+06 3.49432e+06 0 -2.42637e+06 3.50943e+06 0 -2.43365e+06 3.52475e+06 0 -2.44092e+06 3.54027e+06 0 -2.44816e+06 3.55601e+06 0 -2.45537e+06 3.57196e+06 0 -2.46257e+06 3.58813e+06 0 -2.46973e+06 3.60453e+06 0 -2.47685e+06 3.62116e+06 0 -2.48394e+06 3.63801e+06 0 -2.49099e+06 3.65511e+06 0 -2.49799e+06 3.67244e+06 0 -2.50494e+06 3.69002e+06 0 -2.51184e+06 3.70784e+06 0 -2.51869e+06 3.72592e+06 0 -2.52547e+06 3.74426e+06 0 -2.53218e+06 3.76285e+06 0 -2.53882e+06 3.78171e+06 0 -2.54538e+06 3.80085e+06 0 -2.55186e+06 3.82025e+06 0 -2.55825e+06 3.83993e+06 0 -2.56455e+06 3.8599e+06 0 -2.57075e+06 3.88015e+06 0 -2.57684e+06 3.90069e+06 0 -2.58281e+06 3.92153e+06 0 -2.58867e+06 3.94267e+06 0 -2.59439e+06 3.96411e+06 0 -2.59999e+06 3.98586e+06 0 -2.60543e+06 4.00792e+06 0 -2.61073e+06 4.0303e+06 0 -2.61587e+06 4.053e+06 0 -2.62084e+06 4.07602e+06 0 -2.62563e+06 4.09937e+06 0 -2.63024e+06 4.12305e+06 0 -2.63465e+06 4.14707e+06 0 -2.63886e+06 4.17143e+06 0 -2.64285e+06 4.19613e+06 0 -2.64661e+06 4.22118e+06 0 -2.65013e+06 4.24658e+06 0 -2.6534e+06 4.27234e+06 0 -2.65641e+06 4.29844e+06 0 -2.65915e+06 4.32491e+06 0 -2.6616e+06 4.35174e+06 0 -2.66375e+06 4.37893e+06 0 -2.66559e+06 4.40648e+06 0 -2.66709e+06 4.43441e+06 0 -2.66826e+06 4.4627e+06 0 -2.66907e+06 4.49136e+06 0 -2.66951e+06 4.52039e+06 0 -2.66956e+06 4.54979e+06 0 -2.6692e+06 4.57956e+06 0 -2.66842e+06 4.60969e+06 0 -2.6672e+06 4.6402e+06 0 -2.66553e+06 4.67108e+06 0 -2.66338e+06 4.70232e+06 0 -2.66074e+06 4.73392e+06 0 -2.65759e+06 4.76588e+06 0 -2.6539e+06 4.7982e+06 0 -2.64967e+06 4.83086e+06 0 -2.64486e+06 4.86387e+06 0 -2.63945e+06 4.89722e+06 0 -2.63343e+06 4.93091e+06 0 -2.62677e+06 4.96492e+06 0 -2.61946e+06 4.99924e+06 0 -2.61146e+06 5.03387e+06 0 -2.60275e+06 5.06879e+06 0 -2.59332e+06 5.104e+06 0 -2.58313e+06 5.13948e+06 0 -2.57217e+06 5.17522e+06 0 -2.5604e+06 5.2112e+06 0 -2.54781e+06 5.24741e+06 0 -2.53437e+06 5.28382e+06 0 -2.52005e+06 5.32042e+06 0 -2.50484e+06 5.35719e+06 0 -2.48869e+06 5.39411e+06 0 -2.4716e+06 5.43115e+06 0 -2.45353e+06 5.46828e+06 0 -2.43446e+06 5.50549e+06 0 -2.41436e+06 5.54274e+06 0 -2.39322e+06 5.58e+06 0 -2.37099e+06 5.61724e+06 0 -2.34768e+06 5.65442e+06 0 -2.32324e+06 5.69151e+06 0 -2.29766e+06 5.72847e+06 0 -2.27091e+06 5.76526e+06 0 -2.24298e+06 5.80184e+06 0 -2.21384e+06 5.83817e+06 0 -2.18348e+06 5.87418e+06 0 -2.15188e+06 5.90985e+06 0 -2.11902e+06 5.94511e+06 0 -2.08489e+06 5.97992e+06 0 -2.04948e+06 6.01421e+06 0 -2.01277e+06 6.04793e+06 0 -1.97476e+06 6.08102e+06 0 -1.93544e+06 6.11342e+06 0 -1.89481e+06 6.14505e+06 0 -1.85286e+06 6.17586e+06 0 -1.8096e+06 6.20577e+06 0 -1.76503e+06 6.23472e+06 0 -1.71916e+06 6.26262e+06 0 -1.672e+06 6.2894e+06 0 -1.62357e+06 6.31498e+06 0 -1.57387e+06 6.33928e+06 0 -1.52295e+06 6.36222e+06 0 -1.47082e+06 6.38371e+06 0 -1.41751e+06 6.40366e+06 0 -1.36307e+06 6.42199e+06 0 -1.30752e+06 6.4386e+06 0 -1.25093e+06 6.45339e+06 0 -1.19334e+06 6.46627e+06 0 -1.1348e+06 6.47713e+06 0 -1.0754e+06 6.48587e+06 0 -1.01519e+06 6.49239e+06 0 -954264 6.49655e+06 0 -892710 6.49824e+06 0 -830636 6.49733e+06 0 -768168 6.49366e+06 0 -705454 6.48708e+06 0 -642682 6.47742e+06 0 -580086 6.4645e+06 0 -517999 6.44816e+06 0 -457039 6.42839e+06 0 -399317 6.40616e+06 0 -2.31694e+06 3.33912e+06 0 -2.32422e+06 3.3528e+06 0 -2.3315e+06 3.36667e+06 0 -2.33878e+06 3.38072e+06 0 -2.34606e+06 3.39495e+06 0 -2.35333e+06 3.40938e+06 0 -2.3606e+06 3.42399e+06 0 -2.36785e+06 3.43881e+06 0 -2.37509e+06 3.45383e+06 0 -2.38232e+06 3.46905e+06 0 -2.38953e+06 3.48447e+06 0 -2.39671e+06 3.50012e+06 0 -2.40388e+06 3.51597e+06 0 -2.41101e+06 3.53205e+06 0 -2.41812e+06 3.54835e+06 0 -2.42519e+06 3.56488e+06 0 -2.43223e+06 3.58163e+06 0 -2.43922e+06 3.59863e+06 0 -2.44616e+06 3.61586e+06 0 -2.45306e+06 3.63334e+06 0 -2.4599e+06 3.65107e+06 0 -2.46669e+06 3.66905e+06 0 -2.47341e+06 3.68728e+06 0 -2.48006e+06 3.70578e+06 0 -2.48664e+06 3.72454e+06 0 -2.49314e+06 3.74357e+06 0 -2.49955e+06 3.76288e+06 0 -2.50588e+06 3.78246e+06 0 -2.51211e+06 3.80233e+06 0 -2.51823e+06 3.82248e+06 0 -2.52425e+06 3.84292e+06 0 -2.53015e+06 3.86366e+06 0 -2.53592e+06 3.8847e+06 0 -2.54157e+06 3.90604e+06 0 -2.54707e+06 3.92769e+06 0 -2.55243e+06 3.94965e+06 0 -2.55764e+06 3.97192e+06 0 -2.56268e+06 3.99452e+06 0 -2.56755e+06 4.01744e+06 0 -2.57223e+06 4.04069e+06 0 -2.57673e+06 4.06427e+06 0 -2.58102e+06 4.08819e+06 0 -2.5851e+06 4.11244e+06 0 -2.58896e+06 4.13704e+06 0 -2.59259e+06 4.16198e+06 0 -2.59597e+06 4.18727e+06 0 -2.59909e+06 4.21291e+06 0 -2.60194e+06 4.23891e+06 0 -2.60451e+06 4.26526e+06 0 -2.60679e+06 4.29197e+06 0 -2.60875e+06 4.31904e+06 0 -2.6104e+06 4.34647e+06 0 -2.6117e+06 4.37426e+06 0 -2.61265e+06 4.40242e+06 0 -2.61324e+06 4.43094e+06 0 -2.61344e+06 4.45983e+06 0 -2.61324e+06 4.48908e+06 0 -2.61262e+06 4.51869e+06 0 -2.61157e+06 4.54866e+06 0 -2.61007e+06 4.579e+06 0 -2.60809e+06 4.60969e+06 0 -2.60563e+06 4.64074e+06 0 -2.60266e+06 4.67214e+06 0 -2.59916e+06 4.70388e+06 0 -2.59511e+06 4.73597e+06 0 -2.5905e+06 4.76839e+06 0 -2.5853e+06 4.80115e+06 0 -2.57948e+06 4.83422e+06 0 -2.57303e+06 4.86761e+06 0 -2.56593e+06 4.90131e+06 0 -2.55815e+06 4.9353e+06 0 -2.54967e+06 4.96957e+06 0 -2.54047e+06 5.00411e+06 0 -2.53052e+06 5.03891e+06 0 -2.5198e+06 5.07396e+06 0 -2.50828e+06 5.10923e+06 0 -2.49595e+06 5.14471e+06 0 -2.48277e+06 5.18038e+06 0 -2.46873e+06 5.21622e+06 0 -2.45379e+06 5.25221e+06 0 -2.43794e+06 5.28832e+06 0 -2.42115e+06 5.32454e+06 0 -2.40339e+06 5.36083e+06 0 -2.38464e+06 5.39717e+06 0 -2.36489e+06 5.43353e+06 0 -2.34409e+06 5.46987e+06 0 -2.32224e+06 5.50616e+06 0 -2.29931e+06 5.54237e+06 0 -2.27528e+06 5.57845e+06 0 -2.25013e+06 5.61438e+06 0 -2.22384e+06 5.6501e+06 0 -2.19639e+06 5.68558e+06 0 -2.16776e+06 5.72077e+06 0 -2.13794e+06 5.75561e+06 0 -2.10692e+06 5.79007e+06 0 -2.07468e+06 5.82408e+06 0 -2.0412e+06 5.85759e+06 0 -2.00649e+06 5.89056e+06 0 -1.97054e+06 5.92291e+06 0 -1.93333e+06 5.95458e+06 0 -1.89488e+06 5.98552e+06 0 -1.85518e+06 6.01566e+06 0 -1.81423e+06 6.04493e+06 0 -1.77205e+06 6.07325e+06 0 -1.72864e+06 6.10057e+06 0 -1.68402e+06 6.1268e+06 0 -1.63821e+06 6.15187e+06 0 -1.59122e+06 6.1757e+06 0 -1.5431e+06 6.19821e+06 0 -1.49386e+06 6.21932e+06 0 -1.44356e+06 6.23895e+06 0 -1.39222e+06 6.25702e+06 0 -1.3399e+06 6.27343e+06 0 -1.28665e+06 6.28811e+06 0 -1.23254e+06 6.30096e+06 0 -1.17763e+06 6.31189e+06 0 -1.122e+06 6.32081e+06 0 -1.06573e+06 6.32763e+06 0 -1.00894e+06 6.33225e+06 0 -951709 6.33459e+06 0 -894179 6.33453e+06 0 -836486 6.33199e+06 0 -778791 6.32687e+06 0 -721280 6.3191e+06 0 -664165 6.30858e+06 0 -607673 6.29527e+06 0 -551963 6.27904e+06 0 -496551 6.25925e+06 0 -2.25439e+06 3.26358e+06 0 -2.2616e+06 3.27687e+06 0 -2.26881e+06 3.29033e+06 0 -2.27603e+06 3.30396e+06 0 -2.28324e+06 3.31777e+06 0 -2.29046e+06 3.33177e+06 0 -2.29767e+06 3.34595e+06 0 -2.30487e+06 3.36032e+06 0 -2.31207e+06 3.37488e+06 0 -2.31926e+06 3.38964e+06 0 -2.32644e+06 3.4046e+06 0 -2.3336e+06 3.41977e+06 0 -2.34074e+06 3.43514e+06 0 -2.34786e+06 3.45072e+06 0 -2.35495e+06 3.46652e+06 0 -2.36202e+06 3.48254e+06 0 -2.36906e+06 3.49879e+06 0 -2.37606e+06 3.51526e+06 0 -2.38302e+06 3.53196e+06 0 -2.38995e+06 3.5489e+06 0 -2.39682e+06 3.56607e+06 0 -2.40364e+06 3.58349e+06 0 -2.41041e+06 3.60116e+06 0 -2.41712e+06 3.61909e+06 0 -2.42376e+06 3.63727e+06 0 -2.43033e+06 3.6557e+06 0 -2.43682e+06 3.67441e+06 0 -2.44324e+06 3.69338e+06 0 -2.44957e+06 3.71263e+06 0 -2.4558e+06 3.73216e+06 0 -2.46194e+06 3.75197e+06 0 -2.46796e+06 3.77206e+06 0 -2.47388e+06 3.79245e+06 0 -2.47968e+06 3.81313e+06 0 -2.48535e+06 3.83411e+06 0 -2.49088e+06 3.8554e+06 0 -2.49627e+06 3.87699e+06 0 -2.50151e+06 3.8989e+06 0 -2.50659e+06 3.92112e+06 0 -2.5115e+06 3.94366e+06 0 -2.51624e+06 3.96652e+06 0 -2.52078e+06 3.98971e+06 0 -2.52513e+06 4.01323e+06 0 -2.52927e+06 4.03709e+06 0 -2.53319e+06 4.06128e+06 0 -2.53688e+06 4.08582e+06 0 -2.54033e+06 4.11069e+06 0 -2.54353e+06 4.13592e+06 0 -2.54646e+06 4.16149e+06 0 -2.54911e+06 4.18742e+06 0 -2.55147e+06 4.21369e+06 0 -2.55352e+06 4.24033e+06 0 -2.55525e+06 4.26731e+06 0 -2.55666e+06 4.29466e+06 0 -2.55771e+06 4.32237e+06 0 -2.55839e+06 4.35043e+06 0 -2.5587e+06 4.37885e+06 0 -2.55861e+06 4.40763e+06 0 -2.55811e+06 4.43676e+06 0 -2.55717e+06 4.46625e+06 0 -2.55579e+06 4.4961e+06 0 -2.55394e+06 4.52629e+06 0 -2.55161e+06 4.55684e+06 0 -2.54877e+06 4.58772e+06 0 -2.54541e+06 4.61895e+06 0 -2.5415e+06 4.6505e+06 0 -2.53703e+06 4.68239e+06 0 -2.53197e+06 4.71459e+06 0 -2.5263e+06 4.74711e+06 0 -2.52001e+06 4.77993e+06 0 -2.51307e+06 4.81304e+06 0 -2.50545e+06 4.84644e+06 0 -2.49714e+06 4.88011e+06 0 -2.48811e+06 4.91403e+06 0 -2.47834e+06 4.9482e+06 0 -2.4678e+06 4.9826e+06 0 -2.45648e+06 5.01721e+06 0 -2.44434e+06 5.05201e+06 0 -2.43137e+06 5.08698e+06 0 -2.41754e+06 5.12211e+06 0 -2.40282e+06 5.15736e+06 0 -2.3872e+06 5.19273e+06 0 -2.37065e+06 5.22817e+06 0 -2.35314e+06 5.26366e+06 0 -2.33466e+06 5.29918e+06 0 -2.31518e+06 5.33469e+06 0 -2.29468e+06 5.37016e+06 0 -2.27314e+06 5.40556e+06 0 -2.25054e+06 5.44084e+06 0 -2.22686e+06 5.47598e+06 0 -2.20208e+06 5.51092e+06 0 -2.17618e+06 5.54563e+06 0 -2.14915e+06 5.58006e+06 0 -2.12097e+06 5.61416e+06 0 -2.09164e+06 5.6479e+06 0 -2.06113e+06 5.6812e+06 0 -2.02945e+06 5.71403e+06 0 -1.99658e+06 5.74633e+06 0 -1.96251e+06 5.77803e+06 0 -1.92726e+06 5.80909e+06 0 -1.8908e+06 5.83943e+06 0 -1.85316e+06 5.869e+06 0 -1.81434e+06 5.89773e+06 0 -1.77434e+06 5.92555e+06 0 -1.73318e+06 5.9524e+06 0 -1.69088e+06 5.9782e+06 0 -1.64745e+06 6.00289e+06 0 -1.60293e+06 6.02638e+06 0 -1.55735e+06 6.04861e+06 0 -1.51073e+06 6.06949e+06 0 -1.46313e+06 6.08896e+06 0 -1.41458e+06 6.10693e+06 0 -1.36514e+06 6.12332e+06 0 -1.31487e+06 6.13807e+06 0 -1.26383e+06 6.15108e+06 0 -1.2121e+06 6.16228e+06 0 -1.15976e+06 6.17159e+06 0 -1.1069e+06 6.17894e+06 0 -1.05362e+06 6.18424e+06 0 -1.00003e+06 6.18744e+06 0 -946250 6.18846e+06 0 -892420 6.18723e+06 0 -838688 6.18371e+06 0 -785219 6.17784e+06 0 -732196 6.1696e+06 0 -679823 6.15897e+06 0 -628371 6.14603e+06 0 -578466 6.13122e+06 0 -2.19473e+06 3.19413e+06 0 -2.20185e+06 3.20706e+06 0 -2.20897e+06 3.22016e+06 0 -2.21611e+06 3.23342e+06 0 -2.22325e+06 3.24686e+06 0 -2.23039e+06 3.26048e+06 0 -2.23753e+06 3.27427e+06 0 -2.24467e+06 3.28824e+06 0 -2.25181e+06 3.30241e+06 0 -2.25895e+06 3.31676e+06 0 -2.26607e+06 3.3313e+06 0 -2.27318e+06 3.34604e+06 0 -2.28028e+06 3.36098e+06 0 -2.28737e+06 3.37612e+06 0 -2.29443e+06 3.39147e+06 0 -2.30148e+06 3.40704e+06 0 -2.30849e+06 3.42282e+06 0 -2.31548e+06 3.43882e+06 0 -2.32244e+06 3.45504e+06 0 -2.32936e+06 3.47149e+06 0 -2.33624e+06 3.48817e+06 0 -2.34307e+06 3.50509e+06 0 -2.34986e+06 3.52225e+06 0 -2.35659e+06 3.53965e+06 0 -2.36327e+06 3.5573e+06 0 -2.36988e+06 3.5752e+06 0 -2.37643e+06 3.59336e+06 0 -2.3829e+06 3.61179e+06 0 -2.38929e+06 3.63047e+06 0 -2.3956e+06 3.64943e+06 0 -2.40182e+06 3.66866e+06 0 -2.40795e+06 3.68817e+06 0 -2.41397e+06 3.70796e+06 0 -2.41988e+06 3.72804e+06 0 -2.42567e+06 3.74842e+06 0 -2.43134e+06 3.76908e+06 0 -2.43688e+06 3.79005e+06 0 -2.44228e+06 3.81132e+06 0 -2.44753e+06 3.83289e+06 0 -2.45262e+06 3.85478e+06 0 -2.45755e+06 3.87699e+06 0 -2.4623e+06 3.89951e+06 0 -2.46687e+06 3.92236e+06 0 -2.47124e+06 3.94553e+06 0 -2.47541e+06 3.96903e+06 0 -2.47936e+06 3.99287e+06 0 -2.48308e+06 4.01704e+06 0 -2.48657e+06 4.04155e+06 0 -2.48981e+06 4.06641e+06 0 -2.49278e+06 4.0916e+06 0 -2.49548e+06 4.11715e+06 0 -2.49789e+06 4.14304e+06 0 -2.49999e+06 4.16928e+06 0 -2.50178e+06 4.19587e+06 0 -2.50324e+06 4.22282e+06 0 -2.50435e+06 4.25011e+06 0 -2.5051e+06 4.27776e+06 0 -2.50548e+06 4.30577e+06 0 -2.50546e+06 4.33412e+06 0 -2.50503e+06 4.36282e+06 0 -2.50417e+06 4.39188e+06 0 -2.50286e+06 4.42128e+06 0 -2.5011e+06 4.45102e+06 0 -2.49885e+06 4.4811e+06 0 -2.49609e+06 4.51152e+06 0 -2.49282e+06 4.54226e+06 0 -2.489e+06 4.57334e+06 0 -2.48463e+06 4.60473e+06 0 -2.47967e+06 4.63643e+06 0 -2.47411e+06 4.66843e+06 0 -2.46792e+06 4.70072e+06 0 -2.46109e+06 4.7333e+06 0 -2.45358e+06 4.76615e+06 0 -2.44539e+06 4.79925e+06 0 -2.43648e+06 4.8326e+06 0 -2.42684e+06 4.86618e+06 0 -2.41643e+06 4.89997e+06 0 -2.40524e+06 4.93396e+06 0 -2.39325e+06 4.96812e+06 0 -2.38043e+06 5.00244e+06 0 -2.36675e+06 5.0369e+06 0 -2.35221e+06 5.07146e+06 0 -2.33676e+06 5.10611e+06 0 -2.32039e+06 5.14082e+06 0 -2.30308e+06 5.17556e+06 0 -2.28481e+06 5.21031e+06 0 -2.26555e+06 5.24502e+06 0 -2.24529e+06 5.27966e+06 0 -2.22401e+06 5.3142e+06 0 -2.20168e+06 5.34861e+06 0 -2.17829e+06 5.38283e+06 0 -2.15382e+06 5.41684e+06 0 -2.12827e+06 5.45058e+06 0 -2.10161e+06 5.48401e+06 0 -2.07383e+06 5.51709e+06 0 -2.04493e+06 5.54976e+06 0 -2.01489e+06 5.58197e+06 0 -1.98371e+06 5.61367e+06 0 -1.95138e+06 5.64481e+06 0 -1.91792e+06 5.67532e+06 0 -1.88331e+06 5.70515e+06 0 -1.84756e+06 5.73423e+06 0 -1.81068e+06 5.76251e+06 0 -1.77268e+06 5.78991e+06 0 -1.73358e+06 5.81638e+06 0 -1.69339e+06 5.84184e+06 0 -1.65214e+06 5.86623e+06 0 -1.60986e+06 5.88948e+06 0 -1.56657e+06 5.91152e+06 0 -1.52233e+06 5.93227e+06 0 -1.47716e+06 5.95167e+06 0 -1.43111e+06 5.96965e+06 0 -1.38425e+06 5.98613e+06 0 -1.33663e+06 6.00104e+06 0 -1.28831e+06 6.01431e+06 0 -1.23938e+06 6.02588e+06 0 -1.18991e+06 6.03568e+06 0 -1.13999e+06 6.04364e+06 0 -1.08972e+06 6.04971e+06 0 -1.03921e+06 6.05383e+06 0 -988577 6.05595e+06 0 -937940 6.05603e+06 0 -887437 6.05403e+06 0 -837215 6.04994e+06 0 -787427 6.04374e+06 0 -738229 6.03544e+06 0 -689758 6.02503e+06 0 -641967 6.01233e+06 0 -2.13782e+06 3.12991e+06 0 -2.14485e+06 3.14253e+06 0 -2.15188e+06 3.15531e+06 0 -2.15893e+06 3.16826e+06 0 -2.16598e+06 3.18137e+06 0 -2.17304e+06 3.19464e+06 0 -2.1801e+06 3.20809e+06 0 -2.18716e+06 3.22172e+06 0 -2.19423e+06 3.23552e+06 0 -2.20129e+06 3.24951e+06 0 -2.20835e+06 3.26368e+06 0 -2.2154e+06 3.27804e+06 0 -2.22245e+06 3.29259e+06 0 -2.22948e+06 3.30735e+06 0 -2.2365e+06 3.3223e+06 0 -2.2435e+06 3.33745e+06 0 -2.25048e+06 3.35282e+06 0 -2.25743e+06 3.36839e+06 0 -2.26436e+06 3.38418e+06 0 -2.27126e+06 3.4002e+06 0 -2.27813e+06 3.41643e+06 0 -2.28495e+06 3.4329e+06 0 -2.29174e+06 3.44959e+06 0 -2.29847e+06 3.46653e+06 0 -2.30516e+06 3.4837e+06 0 -2.31179e+06 3.50112e+06 0 -2.31836e+06 3.51879e+06 0 -2.32487e+06 3.53671e+06 0 -2.3313e+06 3.55488e+06 0 -2.33766e+06 3.57332e+06 0 -2.34394e+06 3.59203e+06 0 -2.35012e+06 3.61101e+06 0 -2.35622e+06 3.63026e+06 0 -2.36221e+06 3.64979e+06 0 -2.3681e+06 3.6696e+06 0 -2.37387e+06 3.6897e+06 0 -2.37952e+06 3.71009e+06 0 -2.38504e+06 3.73078e+06 0 -2.39043e+06 3.75177e+06 0 -2.39566e+06 3.77306e+06 0 -2.40075e+06 3.79466e+06 0 -2.40567e+06 3.81657e+06 0 -2.41041e+06 3.83879e+06 0 -2.41498e+06 3.86134e+06 0 -2.41935e+06 3.8842e+06 0 -2.42352e+06 3.90739e+06 0 -2.42748e+06 3.93092e+06 0 -2.43121e+06 3.95477e+06 0 -2.43471e+06 3.97895e+06 0 -2.43796e+06 4.00348e+06 0 -2.44094e+06 4.02834e+06 0 -2.44366e+06 4.05355e+06 0 -2.44609e+06 4.07909e+06 0 -2.44821e+06 4.10499e+06 0 -2.45003e+06 4.13123e+06 0 -2.45151e+06 4.15781e+06 0 -2.45265e+06 4.18474e+06 0 -2.45343e+06 4.21202e+06 0 -2.45384e+06 4.23965e+06 0 -2.45385e+06 4.26762e+06 0 -2.45346e+06 4.29593e+06 0 -2.45264e+06 4.32459e+06 0 -2.45137e+06 4.35358e+06 0 -2.44965e+06 4.38291e+06 0 -2.44744e+06 4.41258e+06 0 -2.44474e+06 4.44257e+06 0 -2.44151e+06 4.47288e+06 0 -2.43775e+06 4.50351e+06 0 -2.43342e+06 4.53444e+06 0 -2.42852e+06 4.56568e+06 0 -2.42302e+06 4.5972e+06 0 -2.41689e+06 4.62901e+06 0 -2.41012e+06 4.66109e+06 0 -2.40269e+06 4.69343e+06 0 -2.39457e+06 4.72601e+06 0 -2.38573e+06 4.75882e+06 0 -2.37617e+06 4.79185e+06 0 -2.36585e+06 4.82508e+06 0 -2.35475e+06 4.85848e+06 0 -2.34285e+06 4.89205e+06 0 -2.33013e+06 4.92575e+06 0 -2.31657e+06 4.95957e+06 0 -2.30214e+06 4.99348e+06 0 -2.28682e+06 5.02746e+06 0 -2.27059e+06 5.06147e+06 0 -2.25342e+06 5.0955e+06 0 -2.23531e+06 5.1295e+06 0 -2.21623e+06 5.16345e+06 0 -2.19615e+06 5.1973e+06 0 -2.17507e+06 5.23103e+06 0 -2.15297e+06 5.26459e+06 0 -2.12983e+06 5.29795e+06 0 -2.10563e+06 5.33106e+06 0 -2.08036e+06 5.36387e+06 0 -2.05402e+06 5.39635e+06 0 -2.0266e+06 5.42844e+06 0 -1.99807e+06 5.4601e+06 0 -1.96845e+06 5.49126e+06 0 -1.93773e+06 5.52189e+06 0 -1.90591e+06 5.55191e+06 0 -1.87299e+06 5.58128e+06 0 -1.83898e+06 5.60994e+06 0 -1.80389e+06 5.63783e+06 0 -1.76772e+06 5.66487e+06 0 -1.73051e+06 5.69102e+06 0 -1.69225e+06 5.71621e+06 0 -1.65299e+06 5.74038e+06 0 -1.61274e+06 5.76344e+06 0 -1.57155e+06 5.78536e+06 0 -1.52944e+06 5.80604e+06 0 -1.48647e+06 5.82544e+06 0 -1.44268e+06 5.84348e+06 0 -1.39813e+06 5.8601e+06 0 -1.35287e+06 5.87523e+06 0 -1.30697e+06 5.88882e+06 0 -1.26051e+06 5.9008e+06 0 -1.21356e+06 5.91111e+06 0 -1.16621e+06 5.91971e+06 0 -1.11856e+06 5.92655e+06 0 -1.0707e+06 5.93157e+06 0 -1.02274e+06 5.93475e+06 0 -974802 5.93604e+06 0 -927002 5.93544e+06 0 -879470 5.93294e+06 0 -832340 5.92852e+06 0 -785752 5.92222e+06 0 -739864 5.91407e+06 0 -694933 5.90428e+06 0 -2.08355e+06 3.07023e+06 0 -2.09047e+06 3.08258e+06 0 -2.0974e+06 3.09508e+06 0 -2.10435e+06 3.10774e+06 0 -2.11131e+06 3.12056e+06 0 -2.11827e+06 3.13354e+06 0 -2.12525e+06 3.14669e+06 0 -2.13222e+06 3.16001e+06 0 -2.13921e+06 3.17349e+06 0 -2.14619e+06 3.18716e+06 0 -2.15317e+06 3.201e+06 0 -2.16016e+06 3.21502e+06 0 -2.16713e+06 3.22923e+06 0 -2.1741e+06 3.24364e+06 0 -2.18106e+06 3.25823e+06 0 -2.188e+06 3.27302e+06 0 -2.19493e+06 3.28801e+06 0 -2.20184e+06 3.30321e+06 0 -2.20872e+06 3.31862e+06 0 -2.21559e+06 3.33424e+06 0 -2.22242e+06 3.35007e+06 0 -2.22922e+06 3.36613e+06 0 -2.23598e+06 3.38241e+06 0 -2.2427e+06 3.39892e+06 0 -2.24938e+06 3.41566e+06 0 -2.25601e+06 3.43264e+06 0 -2.26259e+06 3.44986e+06 0 -2.2691e+06 3.46733e+06 0 -2.27555e+06 3.48504e+06 0 -2.28194e+06 3.50301e+06 0 -2.28825e+06 3.52124e+06 0 -2.29448e+06 3.53973e+06 0 -2.30062e+06 3.55849e+06 0 -2.30667e+06 3.57752e+06 0 -2.31263e+06 3.59682e+06 0 -2.31847e+06 3.61641e+06 0 -2.32421e+06 3.63627e+06 0 -2.32982e+06 3.65643e+06 0 -2.33531e+06 3.67688e+06 0 -2.34066e+06 3.69762e+06 0 -2.34587e+06 3.71866e+06 0 -2.35092e+06 3.74001e+06 0 -2.35582e+06 3.76166e+06 0 -2.36054e+06 3.78363e+06 0 -2.36508e+06 3.8059e+06 0 -2.36943e+06 3.8285e+06 0 -2.37358e+06 3.85142e+06 0 -2.37752e+06 3.87467e+06 0 -2.38124e+06 3.89824e+06 0 -2.38472e+06 3.92214e+06 0 -2.38796e+06 3.94637e+06 0 -2.39094e+06 3.97094e+06 0 -2.39364e+06 3.99585e+06 0 -2.39606e+06 4.02109e+06 0 -2.39818e+06 4.04667e+06 0 -2.39999e+06 4.07259e+06 0 -2.40147e+06 4.09886e+06 0 -2.40261e+06 4.12546e+06 0 -2.40339e+06 4.15241e+06 0 -2.4038e+06 4.1797e+06 0 -2.40382e+06 4.20732e+06 0 -2.40343e+06 4.23529e+06 0 -2.40261e+06 4.26358e+06 0 -2.40136e+06 4.29221e+06 0 -2.39964e+06 4.32117e+06 0 -2.39744e+06 4.35045e+06 0 -2.39475e+06 4.38005e+06 0 -2.39154e+06 4.40997e+06 0 -2.38779e+06 4.44018e+06 0 -2.38348e+06 4.4707e+06 0 -2.3786e+06 4.50151e+06 0 -2.37311e+06 4.5326e+06 0 -2.36701e+06 4.56396e+06 0 -2.36027e+06 4.59557e+06 0 -2.35286e+06 4.62744e+06 0 -2.34477e+06 4.65953e+06 0 -2.33597e+06 4.69184e+06 0 -2.32644e+06 4.72435e+06 0 -2.31616e+06 4.75705e+06 0 -2.30511e+06 4.78991e+06 0 -2.29327e+06 4.82291e+06 0 -2.28061e+06 4.85603e+06 0 -2.26711e+06 4.88925e+06 0 -2.25275e+06 4.92254e+06 0 -2.23751e+06 4.95587e+06 0 -2.22137e+06 4.98923e+06 0 -2.20431e+06 5.02257e+06 0 -2.18631e+06 5.05586e+06 0 -2.16736e+06 5.08908e+06 0 -2.14743e+06 5.12218e+06 0 -2.12651e+06 5.15512e+06 0 -2.10459e+06 5.18788e+06 0 -2.08164e+06 5.2204e+06 0 -2.05767e+06 5.25265e+06 0 -2.03265e+06 5.28457e+06 0 -2.00659e+06 5.31613e+06 0 -1.97947e+06 5.34728e+06 0 -1.95129e+06 5.37796e+06 0 -1.92205e+06 5.40812e+06 0 -1.89175e+06 5.43771e+06 0 -1.86038