<?xml version="1.0"?> 
<VTKFile type="StructuredGrid" version="0.1"> 
<StructuredGrid WholeExtent="0 127 0 127 0 0"> 
<Piece Extent="0 127 0 127 0 0"> 
<PointData>
<DataArray type="Float32" Name="|E|" format="ascii" NumberOfComponents="3"> 
-2.08101e+06 166866 0 -2.0844e+06 171961 0 -2.0879e+06 177078 0 -2.09149e+06 182219 0 -2.09519e+06 187384 0 -2.09899e+06 192573 0 -2.10289e+06 197788 0 -2.10689e+06 203030 0 -2.11099e+06 208299 0 -2.1152e+06 213596 0 -2.11952e+06 218921 0 -2.12393e+06 224277 0 -2.12845e+06 229664 0 -2.13308e+06 235082 0 -2.13781e+06 240533 0 -2.14265e+06 246017 0 -2.1476e+06 251537 0 -2.15265e+06 257091 0 -2.15781e+06 262683 0 -2.16307e+06 268312 0 -2.16845e+06 273980 0 -2.17393e+06 279687 0 -2.17953e+06 285436 0 -2.18523e+06 291227 0 -2.19105e+06 297061 0 -2.19698e+06 302939 0 -2.20302e+06 308864 0 -2.20917e+06 314835 0 -2.21544e+06 320854 0 -2.22182e+06 326924 0 -2.22832e+06 333044 0 -2.23494e+06 339216 0 -2.24167e+06 345443 0 -2.24852e+06 351724 0 -2.25549e+06 358063 0 -2.26257e+06 364459 0 -2.26978e+06 370916 0 -2.27712e+06 377435 0 -2.28457e+06 384016 0 -2.29215e+06 390663 0 -2.29986e+06 397376 0 -2.30769e+06 404159 0 -2.31565e+06 411011 0 -2.32374e+06 417937 0 -2.33196e+06 424937 0 -2.34031e+06 432014 0 -2.34879e+06 439169 0 -2.35742e+06 446406 0 -2.36617e+06 453727 0 -2.37507e+06 461133 0 -2.38411e+06 468627 0 -2.39329e+06 476213 0 -2.40261e+06 483892 0 -2.41209e+06 491668 0 -2.42171e+06 499542 0 -2.43148e+06 507520 0 -2.44141e+06 515602 0 -2.45149e+06 523793 0 -2.46173e+06 532097 0 -2.47214e+06 540516 0 -2.48271e+06 549054 0 -2.49345e+06 557715 0 -2.50437e+06 566504 0 -2.51546e+06 575424 0 -2.52673e+06 584479 0 -2.53819e+06 593675 0 -2.54984e+06 603017 0 -2.56169e+06 612508 0 -2.57373e+06 622156 0 -2.58598e+06 631965 0 -2.59844e+06 641942 0 -2.61112e+06 652092 0 -2.62403e+06 662422 0 -2.63717e+06 672941 0 -2.65055e+06 683654 0 -2.66418e+06 694570 0 -2.67808e+06 705697 0 -2.69224e+06 717045 0 -2.70668e+06 728624 0 -2.72142e+06 740442 0 -2.73646e+06 752512 0 -2.75182e+06 764846 0 -2.76751e+06 777455 0 -2.78356e+06 790354 0 -2.79998e+06 803557 0 -2.81678e+06 817080 0 -2.834e+06 830940 0 -2.85165e+06 845156 0 -2.86976e+06 859749 0 -2.88835e+06 874740 0 -2.90747e+06 890153 0 -2.92714e+06 906014 0 -2.9474e+06 922353 0 -2.9683e+06 939200 0 -2.98987e+06 956592 0 -3.01218e+06 974567 0 -3.03527e+06 993166 0 -3.05922e+06 1.01244e+06 0 -3.0841e+06 1.03244e+06 0 -3.10998e+06 1.05322e+06 0 -3.13697e+06 1.07486e+06 0 -3.16517e+06 1.09742e+06 0 -3.19469e+06 1.121e+06 0 -3.22567e+06 1.14569e+06 0 -3.25828e+06 1.1716e+06 0 -3.2927e+06 1.19886e+06 0 -3.32913e+06 1.22762e+06 0 -3.36784e+06 1.25805e+06 0 -3.4091e+06 1.29036e+06 0 -3.45328e+06 1.32474e+06 0 -3.5008e+06 1.36163e+06 0 -3.55212e+06 1.40106e+06 0 -3.60798e+06 1.44388e+06 0 -3.66897e+06 1.49034e+06 0 -3.73627e+06 1.54044e+06 0 -3.81102e+06 1.59788e+06 0 -3.8945e+06 1.65685e+06 0 -3.99014e+06 1.73046e+06 0 -4.09818e+06 1.80744e+06 0 -4.22667e+06 1.88946e+06 0 -4.37842e+06 2.03832e+06 0 -4.56038e+06 2.0468e+06 0 -4.80467e+06 2.4937e+06 0 -5.09677e+06 2.07578e+06 0 -5.56425e+06 3.68567e+06 0 -6.2627e+06 1.23158e+06 0 -7.76677e+06 8.45949e+06 0 -1.85827e+07 6.05142e+07 0 -2.08465e+06 174953 0 -2.08816e+06 180071 0 -2.09177e+06 185211 0 -2.09548e+06 190376 0 -2.09928e+06 195566 0 -2.10319e+06 200781 0 -2.1072e+06 206023 0 -2.11131e+06 211292 0 -2.11553e+06 216590 0 -2.11984e+06 221916 0 -2.12426e+06 227272 0 -2.12878e+06 232659 0 -2.13341e+06 238078 0 -2.13814e+06 243530 0 -2.14297e+06 249015 0 -2.14791e+06 254535 0 -2.15295e+06 260090 0 -2.1581e+06 265682 0 -2.16336e+06 271312 0 -2.16872e+06 276980 0 -2.1742e+06 282688 0 -2.17978e+06 288437 0 -2.18546e+06 294228 0 -2.19126e+06 300062 0 -2.19717e+06 305941 0 -2.20319e+06 311865 0 -2.20932e+06 317837 0 -2.21557e+06 323856 0 -2.22192e+06 329925 0 -2.22839e+06 336045 0 -2.23498e+06 342217 0 -2.24168e+06 348442 0 -2.2485e+06 354723 0 -2.25543e+06 361060 0 -2.26249e+06 367455 0 -2.26966e+06 373911 0 -2.27695e+06 380427 0 -2.28436e+06 387007 0 -2.2919e+06 393651 0 -2.29956e+06 400362 0 -2.30735e+06 407141 0 -2.31526e+06 413991 0 -2.3233e+06 420913 0 -2.33146e+06 427909 0 -2.33976e+06 434982 0 -2.34819e+06 442133 0 -2.35675e+06 449365 0 -2.36545e+06 456680 0 -2.37428e+06 464081 0 -2.38325e+06 471569 0 -2.39237e+06 479148 0 -2.40162e+06 486820 0 -2.41102e+06 494588 0 -2.42057e+06 502455 0 -2.43026e+06 510423 0 -2.44011e+06 518497 0 -2.45011e+06 526679 0 -2.46027e+06 534972 0 -2.47059e+06 543380 0 -2.48107e+06 551907 0 -2.49172e+06 560556 0 -2.50254e+06 569332 0 -2.51353e+06 578238 0 -2.5247e+06 587280 0 -2.53605e+06 596461 0 -2.54759e+06 605787 0 -2.55932e+06 615262 0 -2.57124e+06 624893 0 -2.58337e+06 634684 0 -2.5957e+06 644641 0 -2.60825e+06 654772 0 -2.62102e+06 665082 0 -2.63402e+06 675579 0 -2.64726e+06 686270 0 -2.66074e+06 697162 0 -2.67447e+06 708266 0 -2.68847e+06 719588 0 -2.70274e+06 731140 0 -2.7173e+06 742931 0 -2.73215e+06 754972 0 -2.74731e+06 767276 0 -2.76281e+06 779854 0 -2.77864e+06 792720 0 -2.79483e+06 805889 0 -2.8114e+06 819377 0 -2.82837e+06 833201 0 -2.84576e+06 847379 0 -2.86359e+06 861932 0 -2.88189e+06 876881 0 -2.9007e+06 892251 0 -2.92004e+06 908067 0 -2.93995e+06 924359 0 -2.96047e+06 941157 0 -2.98165e+06 958498 0 -3.00353e+06 976418 0 -3.02616e+06 994961 0 -3.04961e+06 1.01417e+06 0 -3.07395e+06 1.03411e+06 0 -3.09925e+06 1.05483e+06 0 -3.12561e+06 1.07639e+06 0 -3.15311e+06 1.09888e+06 0 -3.18187e+06 1.12238e+06 0 -3.21202e+06 1.14699e+06 0 -3.2437e+06 1.17281e+06 0 -3.27709e+06 1.19997e+06 0 -3.31237e+06 1.22862e+06 0 -3.34978e+06 1.25894e+06 0 -3.38959e+06 1.29111e+06 0 -3.4321e+06 1.32539e+06 0 -3.47773e+06 1.36204e+06 0 -3.52685e+06 1.40144e+06 0 -3.58017e+06 1.44393e+06 0 -3.63821e+06 1.49008e+06 0 -3.70179e+06 1.54065e+06 0 -3.77257e+06 1.59576e+06 0 -3.85038e+06 1.65834e+06 0 -3.93982e+06 1.7259e+06 0 -4.04003e+06 1.80597e+06 0 -4.15545e+06 1.89743e+06 0 -4.29857e+06 1.99225e+06 0 -4.44975e+06 2.15747e+06 0 -4.67855e+06 2.21897e+06 0 -4.91211e+06 2.63027e+06 0 -5.28509e+06 2.51412e+06 0 -5.86184e+06 3.64333e+06 0 -6.65404e+06 3.39825e+06 0 -8.43871e+06 7.83374e+06 0 383966 5.94216e+06 0 -2.08848e+06 183153 0 -2.0921e+06 188294 0 -2.09582e+06 193459 0 -2.09964e+06 198649 0 -2.10356e+06 203865 0 -2.10758e+06 209107 0 -2.11169e+06 214377 0 -2.11591e+06 219675 0 -2.12023e+06 225002 0 -2.12465e+06 230359 0 -2.12917e+06 235746 0 -2.1338e+06 241166 0 -2.13852e+06 246618 0 -2.14335e+06 252104 0 -2.14829e+06 257624 0 -2.15333e+06 263180 0 -2.15847e+06 268773 0 -2.16372e+06 274403 0 -2.16907e+06 280072 0 -2.17453e+06 285781 0 -2.18009e+06 291531 0 -2.18577e+06 297322 0 -2.19155e+06 303157 0 -2.19744e+06 309036 0 -2.20344e+06 314961 0 -2.20955e+06 320932 0 -2.21577e+06 326951 0 -2.2221e+06 333020 0 -2.22855e+06 339140 0 -2.2351e+06 345311 0 -2.24178e+06 351536 0 -2.24856e+06 357816 0 -2.25546e+06 364153 0 -2.26248e+06 370547 0 -2.26962e+06 377001 0 -2.27687e+06 383516 0 -2.28425e+06 390094 0 -2.29174e+06 396736 0 -2.29936e+06 403445 0 -2.3071e+06 410222 0 -2.31496e+06 417069 0 -2.32295e+06 423988 0 -2.33107e+06 430981 0 -2.33931e+06 438050 0 -2.34768e+06 445197 0 -2.35619e+06 452425 0 -2.36483e+06 459735 0 -2.3736e+06 467130 0 -2.38251e+06 474613 0 -2.39156e+06 482186 0 -2.40074e+06 489852 0 -2.41007e+06 497613 0 -2.41955e+06 505472 0 -2.42917e+06 513433 0 -2.43893e+06 521498 0 -2.44886e+06 529671 0 -2.45893e+06 537955 0 -2.46916e+06 546353 0 -2.47956e+06 554869 0 -2.49011e+06 563507 0 -2.50084e+06 572271 0 -2.51173e+06 581165 0 -2.5228e+06 590194 0 -2.53404e+06 599361 0 -2.54547e+06 608673 0 -2.55709e+06 618133 0 -2.5689e+06 627747 0 -2.58091e+06 637522 0 -2.59312e+06 647462 0 -2.60554e+06 657574 0 -2.61818e+06 667865 0 -2.63104e+06 678341 0 -2.64413e+06 689011 0 -2.65746e+06 699882 0 -2.67104e+06 710962 0 -2.68488e+06 722261 0 -2.69898e+06 733788 0 -2.71336e+06 745552 0 -2.72803e+06 757567 0 -2.74301e+06 769842 0 -2.7583e+06 782390 0 -2.77393e+06 795226 0 -2.7899e+06 808363 0 -2.80624e+06 821817 0 -2.82297e+06 835606 0 -2.8401e+06 849748 0 -2.85767e+06 864263 0 -2.87569e+06 879172 0 -2.8942e+06 894500 0 -2.91322e+06 910273 0 -2.93279e+06 926520 0 -2.95295e+06 943270 0 -2.97374e+06 960561 0 -2.99521e+06 978428 0 -3.0174e+06 996916 0 -3.04037e+06 1.01607e+06 0 -3.0642e+06 1.03594e+06 0 -3.08894e+06 1.0566e+06 0 -3.11469e+06 1.07809e+06 0 -3.14152e+06 1.10051e+06 0 -3.16956e+06 1.12392e+06 0 -3.19891e+06 1.14844e+06 0 -3.22971e+06 1.17417e+06 0 -3.26212e+06 1.20123e+06 0 -3.29631e+06 1.22977e+06 0 -3.3325e+06 1.25996e+06 0 -3.37094e+06 1.29199e+06 0 -3.41189e+06 1.32611e+06 0 -3.45574e+06 1.36259e+06 0 -3.50282e+06 1.40178e+06 0 -3.55374e+06 1.44404e+06 0 -3.60905e+06 1.48997e+06 0 -3.66928e+06 1.54006e+06 0 -3.73621e+06 1.59507e+06 0 -3.80923e+06 1.65672e+06 0 -3.89261e+06 1.72408e+06 0 -3.98603e+06 1.80354e+06 0 -4.09072e+06 1.89158e+06 0 -4.22298e+06 1.99259e+06 0 -4.35549e+06 2.13576e+06 0 -4.55869e+06 2.238e+06 0 -4.7594e+06 2.55081e+06 0 -5.05825e+06 2.60266e+06 0 -5.5227e+06 3.35476e+06 0 -5.97274e+06 3.57965e+06 0 -7.21246e+06 5.79786e+06 0 -4.43993e+06 9.9755e+06 0 -1.49585e+06 8.67201e+06 0 -2.09249e+06 191469 0 -2.09622e+06 196635 0 -2.10005e+06 201825 0 -2.10398e+06 207041 0 -2.10801e+06 212284 0 -2.11213e+06 217554 0 -2.11636e+06 222852 0 -2.12068e+06 228180 0 -2.1251e+06 233537 0 -2.12963e+06 238926 0 -2.13425e+06 244346 0 -2.13898e+06 249799 0 -2.1438e+06 255286 0 -2.14873e+06 260807 0 -2.15377e+06 266364 0 -2.1589e+06 271958 0 -2.16414e+06 277589 0 -2.16948e+06 283259 0 -2.17493e+06 288968 0 -2.18049e+06 294718 0 -2.18615e+06 300511 0 -2.19191e+06 306346 0 -2.19778e+06 312226 0 -2.20377e+06 318151 0 -2.20985e+06 324122 0 -2.21605e+06 330142 0 -2.22236e+06 336211 0 -2.22878e+06 342331 0 -2.23531e+06 348502 0 -2.24196e+06 354727 0 -2.24871e+06 361007 0 -2.25558e+06 367342 0 -2.26257e+06 373736 0 -2.26967e+06 380189 0 -2.27688e+06 386703 0 -2.28422e+06 393280 0 -2.29167e+06 399921 0 -2.29925e+06 406628 0 -2.30694e+06 413402 0 -2.31476e+06 420247 0 -2.3227e+06 427163 0 -2.33077e+06 434154 0 -2.33896e+06 441219 0 -2.34728e+06 448363 0 -2.35573e+06 455587 0 -2.36431e+06 462893 0 -2.37302e+06 470284 0 -2.38187e+06 477761 0 -2.39085e+06 485329 0 -2.39997e+06 492989 0 -2.40923e+06 500744 0 -2.41864e+06 508597 0 -2.42818e+06 516551 0 -2.43788e+06 524608 0 -2.44772e+06 532773 0 -2.45771e+06 541048 0 -2.46786e+06 549437 0 -2.47817e+06 557943 0 -2.48863e+06 566571 0 -2.49926e+06 575324 0 -2.51006e+06 584207 0 -2.52103e+06 593223 0 -2.53218e+06 602378 0 -2.5435e+06 611676 0 -2.55501e+06 621122 0 -2.5667e+06 630722 0 -2.5786e+06 640480 0 -2.59069e+06 650404 0 -2.60298e+06 660499 0 -2.61549e+06 670772 0 -2.62822e+06 681230 0 -2.64117e+06 691880 0 -2.65435e+06 702730 0 -2.66778e+06 713789 0 -2.68146e+06 725065 0 -2.6954e+06 736568 0 -2.70961e+06 748309 0 -2.72411e+06 760297 0 -2.7389e+06 772546 0 -2.754e+06 785066 0 -2.76942e+06 797873 0 -2.78518e+06 810979 0 -2.8013e+06 824402 0 -2.81779e+06 838158 0 -2.83468e+06 852265 0 -2.85199e+06 866744 0 -2.86974e+06 881616 0 -2.88795e+06 896904 0 -2.90667e+06 912636 0 -2.92591e+06 928838 0 -2.94572e+06 945543 0 -2.96614e+06 962785 0 -2.98721e+06 980601 0 -3.00897e+06 999035 0 -3.03149e+06 1.01813e+06 0 -3.05482e+06 1.03794e+06 0 -3.07902e+06 1.05853e+06 0 -3.10419e+06 1.07996e+06 0 -3.13039e+06 1.1023e+06 0 -3.15773e+06 1.12563e+06 0 -3.18632e+06 1.15006e+06 0 -3.21628e+06 1.17569e+06 0 -3.24776e+06 1.20265e+06 0 -3.28092e+06 1.23107e+06 0 -3.31596e+06 1.26113e+06 0 -3.35309e+06 1.29302e+06 0 -3.39258e+06 1.32697e+06 0 -3.43476e+06 1.36326e+06 0 -3.47993e+06 1.40223e+06 0 -3.52862e+06 1.44422e+06 0 -3.58138e+06 1.48985e+06 0 -3.63857e+06 1.53955e+06 0 -3.70182e+06 1.59413e+06 0 -3.77073e+06 1.65512e+06 0 -3.84828e+06 1.72193e+06 0 -3.93577e+06 1.80006e+06 0 -4.03155e+06 1.88704e+06 0 -4.15182e+06 1.98701e+06 0 -4.274e+06 2.12202e+06 0 -4.44566e+06 2.23726e+06 0 -4.63388e+06 2.49704e+06 0 -4.86169e+06 2.63305e+06 0 -5.25044e+06 3.1577e+06 0 -5.54972e+06 3.59728e+06 0 -6.33836e+06 4.82309e+06 0 -5.42327e+06 7.8504e+06 0 -2.0317e+06 7.83272e+06 0 -987761 6.6659e+06 0 -2.09669e+06 199904 0 -2.10053e+06 205094 0 -2.10446e+06 210311 0 -2.1085e+06 215554 0 -2.11263e+06 220825 0 -2.11686e+06 226124 0 -2.12119e+06 231452 0 -2.12562e+06 236811 0 -2.13015e+06 242200 0 -2.13477e+06 247621 0 -2.1395e+06 253075 0 -2.14432e+06 258563 0 -2.14925e+06 264085 0 -2.15428e+06 269643 0 -2.15941e+06 275237 0 -2.16464e+06 280869 0 -2.16997e+06 286540 0 -2.17541e+06 292251 0 -2.18095e+06 298002 0 -2.1866e+06 303795 0 -2.19235e+06 309631 0 -2.1982e+06 315512 0 -2.20417e+06 321437 0 -2.21024e+06 327410 0 -2.21642e+06 333430 0 -2.2227e+06 339499 0 -2.2291e+06 345619 0 -2.2356e+06 351791 0 -2.24222e+06 358016 0 -2.24894e+06 364295 0 -2.25578e+06 370631 0 -2.26274e+06 377024 0 -2.2698e+06 383477 0 -2.27699e+06 389990 0 -2.28428e+06 396565 0 -2.2917e+06 403205 0 -2.29923e+06 409911 0 -2.30689e+06 416684 0 -2.31466e+06 423527 0 -2.32255e+06 430441 0 -2.33057e+06 437429 0 -2.33871e+06 444492 0 -2.34698e+06 451633 0 -2.35538e+06 458853 0 -2.3639e+06 466155 0 -2.37255e+06 473542 0 -2.38134e+06 481016 0 -2.39026e+06 488579 0 -2.39932e+06 496234 0 -2.40851e+06 503983 0 -2.41784e+06 511830 0 -2.42732e+06 519777 0 -2.43694e+06 527828 0 -2.4467e+06 535985 0 -2.45662e+06 544253 0 -2.46668e+06 552633 0 -2.4769e+06 561131 0 -2.48728e+06 569750 0 -2.49782e+06 578493 0 -2.50853e+06 587365 0 -2.5194e+06 596370 0 -2.53045e+06 605513 0 -2.54167e+06 614799 0 -2.55307e+06 624232 0 -2.56465e+06 633818 0 -2.57643e+06 643562 0 -2.5884e+06 653471 0 -2.60058e+06 663550 0 -2.61296e+06 673806 0 -2.62555e+06 684246 0 -2.63837e+06 694878 0 -2.65141e+06 705709 0 -2.66469e+06 716748 0 -2.67822e+06 728003 0 -2.692e+06 739484 0 -2.70605e+06 751202 0 -2.72037e+06 763167 0 -2.73498e+06 775390 0 -2.74989e+06 787885 0 -2.76512e+06 800664 0 -2.78067e+06 813742 0 -2.79657e+06 827135 0 -2.81284e+06 840860 0 -2.82949e+06 854934 0 -2.84654e+06 869378 0 -2.86402e+06 884214 0 -2.88196e+06 899465 0 -2.90038e+06 915157 0 -2.91931e+06 931318 0 -2.93878e+06 947979 0 -2.95884e+06 965174 0 -2.97952e+06 982942 0 -3.00087e+06 1.00132e+06 0 -3.02295e+06 1.02036e+06 0 -3.0458e+06 1.04012e+06 0 -3.06949e+06 1.06064e+06 0 -3.09409e+06 1.082e+06 0 -3.11969e+06 1.10426e+06 0 -3.14637e+06 1.12752e+06 0 -3.17423e+06 1.15186e+06 0 -3.20339e+06 1.17739e+06 0 -3.23398e+06 1.20424e+06 0 -3.26616e+06 1.23254e+06 0 -3.3001e+06 1.26246e+06 0 -3.33601e+06 1.2942e+06 0 -3.37411e+06 1.32798e+06 0 -3.41472e+06 1.36407e+06 0 -3.45812e+06 1.4028e+06 0 -3.50472e+06 1.44452e+06 0 -3.5551e+06 1.48979e+06 0 -3.60951e+06 1.53912e+06 0 -3.66931e+06 1.59317e+06 0 -3.73449e+06 1.65346e+06 0 -3.80683e+06 1.71969e+06 0 -3.88861e+06 1.79616e+06 0 -3.97727e+06 1.88245e+06 0 -4.08575e+06 1.98004e+06 0 -4.20018e+06 2.10911e+06 0 -4.34549e+06 2.23082e+06 0 -4.51906e+06 2.45268e+06 0 -4.70368e+06 2.63432e+06 0 -5.01362e+06 3.02283e+06 0 -5.2635e+06 3.51854e+06 0 -5.72952e+06 4.32251e+06 0 -5.53831e+06 6.39425e+06 0 -3.32356e+06 7.58547e+06 0 -1.40482e+06 6.63847e+06 0 -767053 5.627e+06 0 -2.10106e+06 208459 0 -2.10501e+06 213676 0 -2.10905e+06 218919 0 -2.1132e+06 224191 0 -2.11743e+06 229491 0 -2.12177e+06 234820 0 -2.1262e+06 240179 0 -2.13073e+06 245570 0 -2.13536e+06 250992 0 -2.14008e+06 256447 0 -2.14491e+06 261936 0 -2.14983e+06 267459 0 -2.15485e+06 273018 0 -2.15998e+06 278614 0 -2.1652e+06 284247 0 -2.17053e+06 289919 0 -2.17596e+06 295630 0 -2.18149e+06 301383 0 -2.18712e+06 307177 0 -2.19286e+06 313014 0 -2.1987e+06 318895 0 -2.20465e+06 324822 0 -2.2107e+06 330795 0 -2.21686e+06 336816 0 -2.22312e+06 342886 0 -2.22949e+06 349007 0 -2.23597e+06 355179 0 -2.24256e+06 361404 0 -2.24926e+06 367684 0 -2.25607e+06 374020 0 -2.26299e+06 380413 0 -2.27003e+06 386865 0 -2.27718e+06 393378 0 -2.28444e+06 399953 0 -2.29182e+06 406592 0 -2.29931e+06 413297 0 -2.30692e+06 420069 0 -2.31465e+06 426910 0 -2.3225e+06 433823 0 -2.33047e+06 440808 0 -2.33856e+06 447869 0 -2.34678e+06 455008 0 -2.35512e+06 462225 0 -2.36359e+06 469525 0 -2.37219e+06 476908 0 -2.38092e+06 484378 0 -2.38978e+06 491937 0 -2.39877e+06 499587 0 -2.4079e+06 507332 0 -2.41716e+06 515173 0 -2.42657e+06 523115 0 -2.43611e+06 531160 0 -2.4458e+06 539311 0 -2.45564e+06 547571 0 -2.46563e+06 555944 0 -2.47577e+06 564434 0 -2.48606e+06 573044 0 -2.49651e+06 581778 0 -2.50713e+06 590641 0 -2.5179e+06 599636 0 -2.52885e+06 608768 0 -2.53997e+06 618043 0 -2.55127e+06 627464 0 -2.56275e+06 637037 0 -2.57441e+06 646768 0 -2.58627e+06 656663 0 -2.59832e+06 666727 0 -2.61058e+06 676968 0 -2.62305e+06 687393 0 -2.63573e+06 698007 0 -2.64864e+06 708821 0 -2.66177e+06 719841 0 -2.67515e+06 731077 0 -2.68878e+06 742538 0 -2.70266e+06 754235 0 -2.71682e+06 766177 0 -2.73125e+06 778377 0 -2.74598e+06 790847 0 -2.76101e+06 803601 0 -2.77637e+06 816653 0 -2.79206e+06 830018 0 -2.8081e+06 843713 0 -2.82452e+06 857757 0 -2.84133e+06 872169 0 -2.85855e+06 886971 0 -2.87621e+06 902187 0 -2.89434e+06 917841 0 -2.91296e+06 933963 0 -2.93211e+06 950582 0 -2.95182e+06 967733 0 -2.97214e+06 985453 0 -2.99309e+06 1.00378e+06 0 -3.01474e+06 1.02277e+06 0 -3.03713e+06 1.04247e+06 0 -3.06033e+06 1.06293e+06 0 -3.08439e+06 1.08422e+06 0 -3.1094e+06 1.10641e+06 0 -3.13545e+06 1.12959e+06 0 -3.16261e+06 1.15384e+06 0 -3.19101e+06 1.17928e+06 0 -3.22076e+06 1.20602e+06 0 -3.25201e+06 1.2342e+06 0 -3.28491e+06 1.26399e+06 0 -3.31966e+06 1.29557e+06 0 -3.35645e+06 1.32917e+06 0 -3.39558e+06 1.36505e+06 0 -3.4373e+06 1.40353e+06 0 -3.48196e+06 1.44496e+06 0 -3.5301e+06 1.48987e+06 0 -3.58195e+06 1.53878e+06 0 -3.63857e+06 1.59229e+06 0 -3.70027e+06 1.65183e+06 0 -3.76803e+06 1.71743e+06 0 -3.84433e+06 1.79225e+06 0 -3.92701e+06 1.87748e+06 0 -4.02494e+06 1.97306e+06 0 -4.13174e+06 2.09593e+06 0 -4.25767e+06 2.22176e+06 0 -4.41284e+06 2.41538e+06 0 -4.57276e+06 2.61688e+06 0 -4.81359e+06 2.93062e+06 0 -5.03782e+06 3.39906e+06 0 -5.31962e+06 4.03315e+06 0 -5.35871e+06 5.44092e+06 0 -4.06258e+06 6.86018e+06 0 -2.14903e+06 6.77016e+06 0 -1.22536e+06 5.99837e+06 0 -780724 5.30918e+06 0 -2.10562e+06 217137 0 -2.10967e+06 222382 0 -2.11382e+06 227654 0 -2.11807e+06 232955 0 -2.12241e+06 238285 0 -2.12685e+06 243645 0 -2.13138e+06 249037 0 -2.13601e+06 254460 0 -2.14074e+06 259916 0 -2.14556e+06 265406 0 -2.15048e+06 270931 0 -2.15551e+06 276491 0 -2.16062e+06 282088 0 -2.16584e+06 287723 0 -2.17116e+06 293396 0 -2.17658e+06 299109 0 -2.1821e+06 304862 0 -2.18773e+06 310658 0 -2.19345e+06 316496 0 -2.19928e+06 322379 0 -2.20521e+06 328306 0 -2.21124e+06 334281 0 -2.21738e+06 340303 0 -2.22362e+06 346374 0 -2.22997e+06 352495 0 -2.23643e+06 358668 0 -2.24299e+06 364894 0 -2.24967e+06 371174 0 -2.25645e+06 377510 0 -2.26334e+06 383904 0 -2.27034e+06 390356 0 -2.27746e+06 396869 0 -2.28468e+06 403444 0 -2.29202e+06 410083 0 -2.29948e+06 416787 0 -2.30705e+06 423558 0 -2.31474e+06 430399 0 -2.32254e+06 437310 0 -2.33047e+06 444294 0 -2.33852e+06 451354 0 -2.34668e+06 458490 0 -2.35497e+06 465705 0 -2.36339e+06 473002 0 -2.37193e+06 480383 0 -2.3806e+06 487850 0 -2.3894e+06 495405 0 -2.39833e+06 503052 0 -2.4074e+06 510792 0 -2.4166e+06 518629 0 -2.42593e+06 526566 0 -2.43541e+06 534605 0 -2.44503e+06 542751 0 -2.45479e+06 551005 0 -2.4647e+06 559371 0 -2.47475e+06 567854 0 -2.48496e+06 576457 0 -2.49533e+06 585183 0 -2.50585e+06 594037 0 -2.51654e+06 603023 0 -2.52739e+06 612146 0 -2.53841e+06 621410 0 -2.54961e+06 630820 0 -2.56098e+06 640382 0 -2.57254e+06 650101 0 -2.58428e+06 659983 0 -2.59622e+06 670035 0 -2.60836e+06 680262 0 -2.6207e+06 690671 0 -2.63325e+06 701271 0 -2.64602e+06 712068 0 -2.65902e+06 723071 0 -2.67225e+06 734289 0 -2.68572e+06 745732 0 -2.69945e+06 757408 0 -2.71344e+06 769330 0 -2.72771e+06 781509 0 -2.74225e+06 793957 0 -2.7571e+06 806687 0 -2.77226e+06 819714 0 -2.78775e+06 833053 0 -2.80358e+06 846721 0 -2.81977e+06 860737 0 -2.83634e+06 875119 0 -2.85331e+06 889890 0 -2.87071e+06 905072 0 -2.88856e+06 920691 0 -2.90688e+06 936775 0 -2.92572e+06 953355 0 -2.94509e+06 970464 0 -2.96504e+06 988140 0 -2.98561e+06 1.00642e+06 0 -3.00685e+06 1.02536e+06 0 -3.0288e+06 1.045e+06 0 -3.05152e+06 1.0654e+06 0 -3.07507e+06 1.08663e+06 0 -3.09952e+06 1.10875e+06 0 -3.12495e+06 1.13185e+06 0 -3.15145e+06 1.15602e+06 0 -3.17912e+06 1.18136e+06 0 -3.20807e+06 1.20799e+06 0 -3.23843e+06 1.23605e+06 0 -3.27034e+06 1.2657e+06 0 -3.30399e+06 1.29713e+06 0 -3.33955e+06 1.33055e+06 0 -3.37727e+06 1.36621e+06 0 -3.41741e+06 1.40444e+06 0 -3.46027e+06 1.44558e+06 0 -3.5063e+06 1.49011e+06 0 -3.55577e+06 1.53859e+06 0 -3.60948e+06 1.59157e+06 0 -3.6679e+06 1.65031e+06 0 -3.73161e+06 1.7152e+06 0 -3.80278e+06 1.78852e+06 0 -3.88011e+06 1.8723e+06 0 -3.96909e+06 1.96622e+06 0 -4.06795e+06 2.08314e+06 0 -4.17972e+06 2.21045e+06 0 -4.31611e+06 2.38457e+06 0 -4.4589e+06 2.58848e+06 0 -4.64821e+06 2.86303e+06 0 -4.84456e+06 3.27697e+06 0 -5.03471e+06 3.82746e+06 0 -5.11313e+06 4.82432e+06 0 -4.39373e+06 6.11184e+06 0 -2.8399e+06 6.56754e+06 0 -1.63791e+06 6.07795e+06 0 -1.08654e+06 5.50308e+06 0 -776726 5.01522e+06 0 -2.11036e+06 225943 0 -2.11452e+06 231216 0 -2.11877e+06 236518 0 -2.12312e+06 241849 0 -2.12756e+06 247210 0 -2.1321e+06 252603 0 -2.13673e+06 258027 0 -2.14146e+06 263485 0 -2.14629e+06 268976 0 -2.15121e+06 274502 0 -2.15623e+06 280064 0 -2.16134e+06 285662 0 -2.16656e+06 291298 0 -2.17187e+06 296973 0 -2.17728e+06 302687 0 -2.18279e+06 308442 0 -2.1884e+06 314239 0 -2.19412e+06 320079 0 -2.19993e+06 325963 0 -2.20585e+06 331892 0 -2.21186e+06 337868 0 -2.21798e+06 343891 0 -2.22421e+06 349964 0 -2.23054e+06 356086 0 -2.23697e+06 362260 0 -2.24351e+06 368487 0 -2.25016e+06 374768 0 -2.25691e+06 381105 0 -2.26377e+06 387499 0 -2.27075e+06 393952 0 -2.27783e+06 400465 0 -2.28502e+06 407040 0 -2.29233e+06 413679 0 -2.29974e+06 420383 0 -2.30728e+06 427154 0 -2.31492e+06 433994 0 -2.32269e+06 440905 0 -2.33057e+06 447888 0 -2.33857e+06 454946 0 -2.34669e+06 462081 0 -2.35493e+06 469295 0 -2.36329e+06 476590 0 -2.37178e+06 483968 0 -2.38039e+06 491433 0 -2.38914e+06 498985 0 -2.39801e+06 506629 0 -2.40701e+06 514366 0 -2.41614e+06 522199 0 -2.42541e+06 530132 0 -2.43482e+06 538167 0 -2.44437e+06 546307 0 -2.45405e+06 554556 0 -2.46389e+06 562917 0 -2.47386e+06 571393 0 -2.48399e+06 579989 0 -2.49427e+06 588708 0 -2.50471e+06 597555 0 -2.51531e+06 606533 0 -2.52607e+06 615647 0 -2.53699e+06 624902 0 -2.54809e+06 634303 0 -2.55936e+06 643855 0 -2.57081e+06 653563 0 -2.58244e+06 663434 0 -2.59426e+06 673473 0 -2.60628e+06 683687 0 -2.6185e+06 694084 0 -2.63093e+06 704669 0 -2.64357e+06 715452 0 -2.65643e+06 726440 0 -2.66952e+06 737642 0 -2.68284e+06 749067 0 -2.69642e+06 760726 0 -2.71025e+06 772629 0 -2.72434e+06 784788 0 -2.73872e+06 797215 0 -2.75338e+06 809924 0 -2.76835e+06 822928 0 -2.78364e+06 836244 0 -2.79926e+06 849887 0 -2.81523e+06 863876 0 -2.83157e+06 878231 0 -2.8483e+06 892972 0 -2.86544e+06 908123 0 -2.88302e+06 923710 0 -2.90105e+06 939759 0 -2.91958e+06 956302 0 -2.93863e+06 973372 0 -2.95824e+06 991006 0 -2.97844e+06 1.00924e+06 0 -2.99927e+06 1.02813e+06 0 -3.0208e+06 1.04772e+06 0 -3.04306e+06 1.06807e+06 0 -3.06611e+06 1.08923e+06 0 -3.09002e+06 1.11128e+06 0 -3.11487e+06 1.13431e+06 0 -3.14073e+06 1.15839e+06 0 -3.1677e+06 1.18364e+06 0 -3.19588e+06 1.21017e+06 0 -3.22539e+06 1.23811e+06 0 -3.25637e+06 1.26762e+06 0 -3.28897e+06 1.29889e+06 0 -3.32336e+06 1.33213e+06 0 -3.35976e+06 1.36758e+06 0 -3.39841e+06 1.40556e+06 0 -3.43957e+06 1.4464e+06 0 -3.48363e+06 1.49056e+06 0 -3.53088e+06 1.53858e+06 0 -3.5819e+06 1.59102e+06 0 -3.63725e+06 1.64897e+06 0 -3.69731e+06 1.71309e+06 0 -3.76379e+06 1.78505e+06 0 -3.83616e+06 1.86714e+06 0 -3.91762e+06 1.95949e+06 0 -4.00858e+06 2.07121e+06 0 -4.10937e+06 2.19759e+06 0 -4.22894e+06 2.35855e+06 0 -4.357e+06 2.55588e+06 0 -4.51044e+06 2.80736e+06 0 -4.67672e+06 3.16908e+06 0 -4.82066e+06 3.6576e+06 0 -4.88609e+06 4.41491e+06 0 -4.48508e+06 5.47841e+06 0 -3.34124e+06 6.18221e+06 0 -2.10924e+06 6.05434e+06 0 -1.38247e+06 5.56602e+06 0 -973624 5.08479e+06 0 -739206 4.68888e+06 0 -2.11528e+06 234878 0 -2.11954e+06 240180 0 -2.1239e+06 245513 0 -2.12835e+06 250875 0 -2.13289e+06 256269 0 -2.13753e+06 261695 0 -2.14226e+06 267154 0 -2.14708e+06 272647 0 -2.15201e+06 278175 0 -2.15702e+06 283738 0 -2.16214e+06 289338 0 -2.16735e+06 294976 0 -2.17265e+06 300652 0 -2.17806e+06 306368 0 -2.18356e+06 312125 0 -2.18916e+06 317923 0 -2.19486e+06 323765 0 -2.20066e+06 329651 0 -2.20656e+06 335581 0 -2.21257e+06 341559 0 -2.21867e+06 347584 0 -2.22488e+06 353657 0 -2.23118e+06 359781 0 -2.2376e+06 365957 0 -2.24411e+06 372185 0 -2.25074e+06 378467 0 -2.25746e+06 384805 0 -2.2643e+06 391200 0 -2.27124e+06 397654 0 -2.27829e+06 404168 0 -2.28545e+06 410744 0 -2.29272e+06 417383 0 -2.3001e+06 424087 0 -2.3076e+06 430859 0 -2.31521e+06 437699 0 -2.32293e+06 444609 0 -2.33077e+06 451592 0 -2.33872e+06 458649 0 -2.34679e+06 465783 0 -2.35498e+06 472996 0 -2.3633e+06 480290 0 -2.37173e+06 487667 0 -2.38029e+06 495129 0 -2.38898e+06 502680 0 -2.39779e+06 510321 0 -2.40673e+06 518055 0 -2.4158e+06 525885 0 -2.42501e+06 533815 0 -2.43435e+06 541846 0 -2.44382e+06 549982 0 -2.45344e+06 558226 0 -2.4632e+06 566582 0 -2.4731e+06 575054 0 -2.48315e+06 583644 0 -2.49335e+06 592357 0 -2.5037e+06 601197 0 -2.51421e+06 610168 0 -2.52487e+06 619275 0 -2.53571e+06 628522 0 -2.5467e+06 637914 0 -2.55787e+06 647457 0 -2.56922e+06 657156 0 -2.58075e+06 667017 0 -2.59246e+06 677045 0 -2.60436e+06 687248 0 -2.61646e+06 697633 0 -2.62876e+06 708206 0 -2.64127e+06 718975 0 -2.654e+06 729949 0 -2.66695e+06 741137 0 -2.68013e+06 752547 0 -2.69355e+06 764190 0 -2.70723e+06 776076 0 -2.72116e+06 788218 0 -2.73537e+06 800626 0 -2.74985e+06 813315 0 -2.76464e+06 826299 0 -2.77973e+06 839592 0 -2.79515e+06 853213 0 -2.8109e+06 867178 0 -2.82702e+06 881507 0 -2.84351e+06 896221 0 -2.8604e+06 911344 0 -2.87771e+06 926900 0 -2.89547e+06 942918 0 -2.9137e+06 959427 0 -2.93243e+06 976460 0 -2.9517e+06 994055 0 -2.97155e+06 1.01225e+06 0 -2.992e+06 1.03109e+06 0 -3.01311e+06 1.05063e+06 0 -3.03493e+06 1.07092e+06 0 -3.0575e+06 1.09203e+06 0 -3.0809e+06 1.11402e+06 0 -3.10518e+06 1.13697e+06 0 -3.13043e+06 1.16097e+06 0 -3.15673e+06 1.18613e+06 0 -3.18418e+06 1.21255e+06 0 -3.21288e+06 1.24038e+06 0 -3.24296e+06 1.26976e+06 0 -3.27456e+06 1.30088e+06 0 -3.30784e+06 1.33394e+06 0 -3.34299e+06 1.36918e+06 0 -3.38023e+06 1.4069e+06 0 -3.4198e+06 1.44745e+06 0 -3.46202e+06 1.49123e+06 0 -3.50717e+06 1.5388e+06 0 -3.55572e+06 1.5907e+06 0 -3.6082e+06 1.64788e+06 0 -3.66492e+06 1.71116e+06 0 -3.72715e+06 1.78188e+06 0 -3.79488e+06 1.86221e+06 0 -3.86992e+06 1.95289e+06 0 -3.95342e+06 2.06025e+06 0 -4.04505e+06 2.18407e+06 0 -4.15047e+06 2.33572e+06 0 -4.26484e+06 2.52321e+06 0 -4.39309e+06 2.75772e+06 0 -4.5315e+06 3.07765e+06 0 -4.64785e+06 3.51114e+06 0 -4.69539e+06 4.12445e+06 0 -4.45819e+06 4.98345e+06 0 -3.65183e+06 5.74236e+06 0 -2.54608e+06 5.90345e+06 0 -1.70617e+06 5.58369e+06 0 -1.21053e+06 5.15769e+06 0 -902927 4.75876e+06 0 -709866 4.42182e+06 0 -2.12038e+06 243945 0 -2.12474e+06 249279 0 -2.1292e+06 254643 0 -2.13375e+06 260038 0 -2.13839e+06 265466 0 -2.14313e+06 270926 0 -2.14795e+06 276421 0 -2.15288e+06 281950 0 -2.15789e+06 287515 0 -2.163e+06 293117 0 -2.16821e+06 298757 0 -2.17351e+06 304435 0 -2.17891e+06 310153 0 -2.18441e+06 315911 0 -2.19e+06 321712 0 -2.19569e+06 327555 0 -2.20148e+06 333443 0 -2.20736e+06 339376 0 -2.21335e+06 345355 0 -2.21944e+06 351382 0 -2.22563e+06 357457 0 -2.23192e+06 363583 0 -2.23831e+06 369760 0 -2.2448e+06 375990 0 -2.2514e+06 382274 0 -2.2581e+06 388613 0 -2.26491e+06 395010 0 -2.27183e+06 401465 0 -2.27885e+06 407980 0 -2.28597e+06 414557 0 -2.29321e+06 421197 0 -2.30056e+06 427902 0 -2.30802e+06 434674 0 -2.31558e+06 441514 0 -2.32327e+06 448425 0 -2.33106e+06 455408 0 -2.33897e+06 462465 0 -2.347e+06 469599 0 -2.35515e+06 476811 0 -2.36341e+06 484104 0 -2.37179e+06 491480 0 -2.3803e+06 498941 0 -2.38893e+06 506490 0 -2.39768e+06 514129 0 -2.40657e+06 521862 0 -2.41558e+06 529690 0 -2.42472e+06 537616 0 -2.43399e+06 545645 0 -2.4434e+06 553777 0 -2.45294e+06 562018 0 -2.46263e+06 570370 0 -2.47246e+06 578837 0 -2.48243e+06 587423 0 -2.49254e+06 596131 0 -2.50281e+06 604965 0 -2.51324e+06 613931 0 -2.52381e+06 623031 0 -2.53455e+06 632271 0 -2.54546e+06 641656 0 -2.55653e+06 651191 0 -2.56777e+06 660882 0 -2.57919e+06 670734 0 -2.59079e+06 680753 0 -2.60258e+06 690947 0 -2.61457e+06 701321 0 -2.62675e+06 711883 0 -2.63913e+06 722641 0 -2.65173e+06 733603 0 -2.66454e+06 744777 0 -2.67758e+06 756174 0 -2.69086e+06 767802 0 -2.70438e+06 779674 0 -2.71816e+06 791799 0 -2.7322e+06 804191 0 -2.74651e+06 816862 0 -2.76111e+06 829828 0 -2.77602e+06 843102 0 -2.79123e+06 856702 0 -2.80678e+06 870645 0 -2.82268e+06 884951 0 -2.83894e+06 899641 0 -2.85559e+06 914738 0 -2.87264e+06 930267 0 -2.89013e+06 946255 0 -2.90807e+06 962732 0 -2.9265e+06 979732 0 -2.94544e+06 997291 0 -2.96494e+06 1.01545e+06 0 -2.98502e+06 1.03425e+06 0 -3.00573e+06 1.05374e+06 0 -3.02712e+06 1.07398e+06 0 -3.04923e+06 1.09503e+06 0 -3.07213e+06 1.11696e+06 0 -3.09587e+06 1.13984e+06 0 -3.12053e+06 1.16377e+06 0 -3.14619e+06 1.18884e+06 0 -3.17293e+06 1.21516e+06 0 -3.20086e+06 1.24288e+06 0 -3.23008e+06 1.27213e+06 0 -3.26074e+06 1.3031e+06 0 -3.29296e+06 1.33598e+06 0 -3.32693e+06 1.37101e+06 0 -3.36284e+06 1.40849e+06 0 -3.40089e+06 1.44873e+06 0 -3.44138e+06 1.49216e+06 0 -3.48457e+06 1.53927e+06 0 -3.53084e+06 1.59063e+06 0 -3.58063e+06 1.64708e+06 0 -3.63427e+06 1.70948e+06 0 -3.69265e+06 1.77902e+06 0 -3.75604e+06 1.85765e+06 0 -3.82549e+06 1.94655e+06 0 -3.90216e+06 2.05021e+06 0 -3.98579e+06 2.17062e+06 0 -4.07947e+06 2.31503e+06 0 -4.18121e+06 2.49231e+06 0 -4.29083e+06 2.71215e+06 0 -4.40582e+06 2.99993e+06 0 -4.50199e+06 3.38489e+06 0 -4.53669e+06 3.90334e+06 0 -4.38272e+06 4.60493e+06 0 -3.81723e+06 5.3232e+06 0 -2.89731e+06 5.66449e+06 0 -2.03526e+06 5.53428e+06 0 -1.45723e+06 5.19073e+06 0 -1.09025e+06 4.82548e+06 0 -853172 4.49632e+06 0 -692937 4.20875e+06 0 -2.12566e+06 253148 0 -2.13013e+06 25