<?xml version="1.0"?> 
<VTKFile type="StructuredGrid" version="0.1"> 
<StructuredGrid WholeExtent="0 7 0 7 0 0"> 
<Piece Extent="0 7 0 7 0 0"> 
<PointData>
<DataArray type="Float32" Name="|E|" format="ascii" NumberOfComponents="3"> 
-4.49614e+06 523123 0 -4.96171e+06 512417 0 -5.57382e+06 496645 0 -6.45099e+06 475893 0 -7.92322e+06 466954 0 -1.10916e+07 745633 0 -2.22577e+07 3.54798e+06 0 -9.10685e+07 3.65678e+07 0 -2.50534e+06 2.46077e+06 0 -2.71945e+06 2.63482e+06 0 -2.99649e+06 2.88061e+06 0 -3.35366e+06 3.25727e+06 0 -3.7759e+06 3.90184e+06 0 -4.12883e+06 5.05023e+06 0 -3.4158e+06 6.78348e+06 0 -1.40585e+06 5.97992e+06 0 -1.50031e+06 2.14334e+06 0 -1.647e+06 2.36315e+06 0 -1.82212e+06 2.63409e+06 0 -2.02355e+06 2.98792e+06 0 -2.22834e+06 3.47897e+06 0 -2.30407e+06 4.17799e+06 0 -2.04184e+06 4.893e+06 0 -1.36647e+06 5.66817e+06 0 -1.00814e+06 1.74211e+06 0 -1.08785e+06 2.02958e+06 0 -1.20473e+06 2.34819e+06 0 -1.35501e+06 2.73391e+06 0 -1.51259e+06 3.23266e+06 0 -1.59782e+06 3.88604e+06 0 -1.40817e+06 4.65233e+06 0 -957899 5.10975e+06 0 -648789 1.30524e+06 0 -708241 1.63091e+06 0 -785509 2.00472e+06 0 -891294 2.4384e+06 0 -1.01575e+06 2.96929e+06 0 -1.09397e+06 3.63261e+06 0 -982911 4.36395e+06 0 -611850 4.91816e+06 0 -394692 854094 0 -420062 1.23703e+06 0 -465939 1.65722e+06 0 -533282 2.14309e+06 0 -621093 2.72632e+06 0 -690688 3.43594e+06 0 -624469 4.21086e+06 0 -377324 4.79722e+06 0 -185253 423635 0 -193748 849937 0 -210968 1.3146e+06 0 -241908 1.84528e+06 0 -287632 2.48209e+06 0 -332624 3.25912e+06 0 -307668 4.10744e+06 0 -169358 4.74945e+06 0 0 -580.584 0 0 476643 0 0 983312 0 0 1.55159e+06 0 0 2.23413e+06 0 0 3.0851e+06 0 0 4.04205e+06 0 0 4.76186e+06 0 </DataArray> 
</PointData> 
<Points> 
<DataArray type="Float32" NumberOfComponents="3"> 
0.1 0.0687 0 0.100429 0.0696 0 0.100857 0.0705 0 0.101286 0.0714 0 0.101714 0.0723 0 0.102143 0.0732 0 0.102571 0.0741 0 0.103 0.075 0 0.0857143 0.0748857 0 0.0883878 0.0756571 0 0.0910612 0.0764286 0 0.0937347 0.0772 0 0.0964082 0.0779714 0 0.0990816 0.0787429 0 0.101755 0.0795143 0 0.104429 0.0802857 0 0.0714286 0.0810714 0 0.0763469 0.0817143 0 0.0812653 0.0823571 0 0.0861837 0.083 0 0.091102 0.0836429 0 0.0960204 0.0842857 0 0.100939 0.0849286 0 0.105857 0.0855714 0 0.0571429 0.0872571 0 0.0643061 0.0877714 0 0.0714694 0.0882857 0 0.0786327 0.0888 0 0.0857959 0.0893143 0 0.0929592 0.0898286 0 0.100122 0.0903429 0 0.107286 0.0908571 0 0.0428571 0.0934429 0 0.0522653 0.0938286 0 0.0616735 0.0942143 0 0.0710816 0.0946 0 0.0804898 0.0949857 0 0.089898 0.0953714 0 0.0993061 0.0957571 0 0.108714 0.0961429 0 0.0285714 0.0996286 0 0.0402245 0.0998857 0 0.0518776 0.100143 0 0.0635306 0.1004 0 0.0751837 0.100657 0 0.0868367 0.100914 0 0.0984898 0.101171 0 0.110143 0.101429 0 0.0142857 0.105814 0 0.0281837 0.105943 0 0.0420816 0.106071 0 0.0559796 0.1062 0 0.0698776 0.106329 0 0.0837755 0.106457 0 0.0976735 0.106586 0 0.111571 0.106714 0 0 0.112 0 0.0161429 0.112 0 0.0322857 0.112 0 0.0484286 0.112 0 0.0645714 0.112 0 0.0807143 0.112 0 0.0968571 0.112 0 0.113 0.112 0 
</DataArray>
</Points> 
</Piece> 
</StructuredGrid> 
</VTKFile> 
