<?xml version="1.0"?> 
<VTKFile type="StructuredGrid" version="0.1"> 
<StructuredGrid WholeExtent="0 7 0 7 0 0"> 
<Piece Extent="0 7 0 7 0 0"> 
<PointData>
<DataArray type="Float32" Name="|E|" format="ascii" NumberOfComponents="3"> 
-2.11371e+06 167149 0 -2.19222e+06 256275 0 -2.29677e+06 366831 0 -2.44812e+06 475463 0 -2.65975e+06 681788 0 -2.8926e+06 1.06406e+06 0 -3.55959e+06 -736417 0 -5.65698e+06 1.76529e+07 0 -2.20483e+06 300490 0 -2.30371e+06 420378 0 -2.44335e+06 563455 0 -2.62555e+06 720484 0 -2.85649e+06 911035 0 -3.33481e+06 1.41537e+06 0 -3.25258e+06 3.22931e+06 0 -390261 2.81459e+06 0 -2.34244e+06 496375 0 -2.48683e+06 658223 0 -2.65842e+06 819335 0 -2.85297e+06 1.0799e+06 0 -3.0514e+06 1.66954e+06 0 -2.76747e+06 2.33827e+06 0 -1.40843e+06 2.70174e+06 0 -368859 1.21832e+06 0 -2.59276e+06 885721 0 -2.71609e+06 1.09639e+06 0 -2.8019e+06 1.47286e+06 0 -2.75263e+06 1.97489e+06 0 -2.3458e+06 2.29225e+06 0 -1.50532e+06 2.24212e+06 0 -866304 1.74855e+06 0 -718810 1.11445e+06 0 -2.65088e+06 1.67113e+06 0 -2.56071e+06 2.03968e+06 0 -2.30947e+06 2.24379e+06 0 -1.88354e+06 2.16492e+06 0 -1.37512e+06 1.80498e+06 0 -1.05406e+06 1.41988e+06 0 -906963 967037 0 -702283 507582 0 -2.02797e+06 2.23594e+06 0 -1.74299e+06 1.98795e+06 0 -1.48133e+06 1.59631e+06 0 -1.27187e+06 1.15449e+06 0 -1.1484e+06 851241 0 -1.00865e+06 553612 0 -768189 224588 0 -488076 5780.28 0 -1.4502e+06 1.331e+06 0 -1.36878e+06 579048 0 -1.24332e+06 150722 0 -1.07302e+06 -7683.06 0 -832953 -100917 0 -556009 -184687 0 -314107 -201333 0 -141538 -171761 0 1.78814e-07 -8.42977e+06 0 -1.11759e-07 -4.7265e+06 0 0 -2.16317e+06 0 1.49012e-08 -626216 0 -2.98023e-08 70712.5 0 4.47035e-08 244169 0 -5.96046e-08 184980 0 0 72658.4 0 </DataArray> 
</PointData> 
<Points> 
<DataArray type="Float32" NumberOfComponents="3"> 
0.016 0.021 0 0.0244286 0.021 0 0.0328571 0.021 0 0.0412857 0.021 0 0.0497143 0.021 0 0.0581429 0.021 0 0.0665714 0.021 0 0.075 0.021 0 0.028 0.023 0 0.0354286 0.023 0 0.0428571 0.023 0 0.0502857 0.023 0 0.0577143 0.023 0 0.0651429 0.023 0 0.0725714 0.023 0 0.08 0.023 0 0.04 0.025 0 0.0464286 0.025 0 0.0528571 0.025 0 0.0592857 0.025 0 0.0657143 0.025 0 0.0721429 0.025 0 0.0785714 0.025 0 0.085 0.025 0 0.052 0.027 0 0.0574286 0.027 0 0.0628571 0.027 0 0.0682857 0.027 0 0.0737143 0.027 0 0.0791429 0.027 0 0.0845714 0.027 0 0.09 0.027 0 0.064 0.029 0 0.0684286 0.029 0 0.0728571 0.029 0 0.0772857 0.029 0 0.0817143 0.029 0 0.0861429 0.029 0 0.0905714 0.029 0 0.095 0.029 0 0.076 0.031 0 0.0794286 0.031 0 0.0828571 0.031 0 0.0862857 0.031 0 0.0897143 0.031 0 0.0931429 0.031 0 0.0965714 0.031 0 0.1 0.031 0 0.088 0.033 0 0.0904286 0.033 0 0.0928571 0.033 0 0.0952857 0.033 0 0.0977143 0.033 0 0.100143 0.033 0 0.102571 0.033 0 0.105 0.033 0 0.1 0.035 0 0.101429 0.035 0 0.102857 0.035 0 0.104286 0.035 0 0.105714 0.035 0 0.107143 0.035 0 0.108571 0.035 0 0.11 0.035 0 
</DataArray>
</Points> 
</Piece> 
</StructuredGrid> 
</VTKFile> 
