<?xml version="1.0"?> 
<VTKFile type="StructuredGrid" version="0.1"> 
<StructuredGrid WholeExtent="0 7 0 7 0 0"> 
<Piece Extent="0 7 0 7 0 0"> 
<PointData>
<DataArray type="Float32" Name="|E|" format="ascii" NumberOfComponents="3"> 
1.80781e+06 6.59831e+06 0 2.57358e+06 5.72663e+06 0 2.61201e+06 4.75802e+06 0 2.42339e+06 3.95245e+06 0 2.13033e+06 3.23793e+06 0 1.70974e+06 2.47439e+06 0 995606 1.38982e+06 0 -248871 -337927 0 974432 5.43156e+06 0 1.3276e+06 5.31736e+06 0 1.63256e+06 4.9183e+06 0 1.73219e+06 4.36657e+06 0 1.6285e+06 3.79513e+06 0 1.33196e+06 3.24016e+06 0 721219 2.68953e+06 0 -725255 1.82938e+06 0 746613 5.17524e+06 0 906148 5.02103e+06 0 1.07041e+06 4.80482e+06 0 1.18301e+06 4.49191e+06 0 1.18627e+06 4.11772e+06 0 1.04659e+06 3.74734e+06 0 765510 3.46412e+06 0 232907 3.5765e+06 0 548005 4.99373e+06 0 642449 4.87764e+06 0 741448 4.71299e+06 0 818498 4.50279e+06 0 845952 4.26e+06 0 802588 4.01471e+06 0 674632 3.8066e+06 0 558225 3.68631e+06 0 377810 4.89301e+06 0 445694 4.78134e+06 0 509019 4.64463e+06 0 561495 4.48328e+06 0 593472 4.3073e+06 0 595765 4.13699e+06 0 558261 4.0033e+06 0 409720 3.92981e+06 0 240817 4.82509e+06 0 282645 4.71891e+06 0 322666 4.59373e+06 0 357692 4.45337e+06 0 387045 4.30515e+06 0 413908 4.16046e+06 0 450677 4.03748e+06 0 532746 3.97783e+06 0 116067 4.78586e+06 0 138087 4.67962e+06 0 157813 4.55725e+06 0 175863 4.42326e+06 0 193737 4.28198e+06 0 215745 4.13625e+06 0 249380 3.984e+06 0 311892 3.80468e+06 0 0 4.77236e+06 0 0 4.66057e+06 0 0 4.53458e+06 0 0 4.39926e+06 0 0 4.25817e+06 0 0 4.11198e+06 0 0 3.9597e+06 0 0 3.81276e+06 0 </DataArray> 
</PointData> 
<Points> 
<DataArray type="Float32" NumberOfComponents="3"> 
0.1465 0.0727913 0 0.149051 0.0718328 0 0.152418 0.0701315 0 0.156602 0.0676875 0 0.161602 0.0645007 0 0.167418 0.0605711 0 0.174051 0.0558988 0 0.1815 0.0504836 0 0.1465 0.0783925 0 0.149401 0.077571 0 0.153001 0.0761127 0 0.157302 0.0740178 0 0.162302 0.0712863 0 0.168001 0.0679181 0 0.174401 0.0639132 0 0.1815 0.0592717 0 0.1465 0.0839938 0 0.149751 0.0833091 0 0.153585 0.0820939 0 0.158001 0.0803482 0 0.163001 0.0780719 0 0.168585 0.0752651 0 0.174751 0.0719277 0 0.1815 0.0680597 0 0.1465 0.089595 0 0.150101 0.0890473 0 0.154168 0.0880752 0 0.158701 0.0866786 0 0.163701 0.0848575 0 0.169168 0.0826121 0 0.175101 0.0799422 0 0.1815 0.0768478 0 0.1465 0.0951963 0 0.15045 0.0947855 0 0.154751 0.0940564 0 0.159401 0.0930089 0 0.164401 0.0916432 0 0.169751 0.089959 0 0.17545 0.0879566 0 0.1815 0.0856358 0 0.1465 0.100798 0 0.1508 0.100524 0 0.155334 0.100038 0 0.160101 0.0993393 0 0.165101 0.0984288 0 0.170334 0.097306 0 0.1758 0.0959711 0 0.1815 0.0944239 0 0.1465 0.106399 0 0.15115 0.106262 0 0.155917 0.106019 0 0.1608 0.10567 0 0.1658 0.105214 0 0.170917 0.104653 0 0.17615 0.103986 0 0.1815 0.103212 0 0.1465 0.112 0 0.1515 0.112 0 0.1565 0.112 0 0.1615 0.112 0 0.1665 0.112 0 0.1715 0.112 0 0.1765 0.112 0 0.1815 0.112 0 
</DataArray>
</Points> 
</Piece> 
</StructuredGrid> 
</VTKFile> 
