<?xml version="1.0"?> 
<VTKFile type="StructuredGrid" version="0.1"> 
<StructuredGrid WholeExtent="0 7 0 7 0 0"> 
<Piece Extent="0 7 0 7 0 0"> 
<PointData>
<DataArray type="Float32" Name="|E|" format="ascii" NumberOfComponents="3"> 
-1.87916e+06 0 0 -1.91871e+06 220100 0 -2.02534e+06 462351 0 -2.20071e+06 733323 0 -2.36849e+06 1.16165e+06 0 -2.14589e+06 1.61381e+06 0 -1.63581e+06 1.37547e+06 0 -1.4326e+06 0 0 -1.85704e+06 0 0 -1.89577e+06 227410 0 -1.99965e+06 475180 0 -2.1674e+06 754266 0 -2.31826e+06 1.16785e+06 0 -2.12917e+06 1.57021e+06 0 -1.70525e+06 1.33981e+06 0 -1.6401e+06 1.11759e-08 0 -1.83425e+06 0 0 -1.87212e+06 234488 0 -1.97336e+06 487798 0 -2.13395e+06 773941 0 -2.27185e+06 1.17301e+06 0 -2.11548e+06 1.53365e+06 0 -1.76847e+06 1.31571e+06 0 -1.85023e+06 -2.23517e-08 0 -1.8108e+06 0 0 -1.84778e+06 241376 0 -1.94647e+06 500127 0 -2.10049e+06 792600 0 -2.2286e+06 1.17746e+06 0 -2.10485e+06 1.50362e+06 0 -1.82344e+06 1.30289e+06 0 -2.06873e+06 7.45058e-08 0 -1.78671e+06 0 0 -1.82276e+06 248122 0 -1.91902e+06 512068 0 -2.06716e+06 810554 0 -2.18782e+06 1.18132e+06 0 -2.09759e+06 1.47979e+06 0 -1.86749e+06 1.30112e+06 0 -2.30233e+06 -4.47035e-08 0 -1.76202e+06 0 0 -1.79707e+06 254790 0 -1.89104e+06 523483 0 -2.03407e+06 828204 0 -2.14878e+06 1.18446e+06 0 -2.09439e+06 1.46203e+06 0 -1.89696e+06 1.31013e+06 0 -2.55926e+06 1.49012e-08 0 -1.73678e+06 0 0 -1.77068e+06 261472 0 -1.86256e+06 534168 0 -2.00135e+06 846082 0 -2.11063e+06 1.18651e+06 0 -2.09654e+06 1.45052e+06 0 -1.9068e+06 1.32962e+06 0 -2.84992e+06 -2.98023e-08 0 -1.7111e+06 0 0 -1.74354e+06 268313 0 -1.83363e+06 543790 0 -1.96915e+06 864972 0 -2.07229e+06 1.18663e+06 0 -2.10616e+06 1.44587e+06 0 -1.88998e+06 1.35904e+06 0 -3.18783e+06 1.78814e-07 0 </DataArray> 
</PointData> 
<Points> 
<DataArray type="Float32" NumberOfComponents="3"> 
0 0.035 0 0.0142857 0.035 0 0.0285714 0.035 0 0.0428571 0.035 0 0.0571429 0.035 0 0.0714286 0.035 0 0.0857143 0.035 0 0.1 0.035 0 0 0.0364286 0 0.0142857 0.0364286 0 0.0285714 0.0364286 0 0.0428571 0.0364286 0 0.0571429 0.0364286 0 0.0714286 0.0364286 0 0.0857143 0.0364286 0 0.1 0.0364286 0 0 0.0378571 0 0.0142857 0.0378571 0 0.0285714 0.0378571 0 0.0428571 0.0378571 0 0.0571429 0.0378571 0 0.0714286 0.0378571 0 0.0857143 0.0378571 0 0.1 0.0378571 0 0 0.0392857 0 0.0142857 0.0392857 0 0.0285714 0.0392857 0 0.0428571 0.0392857 0 0.0571429 0.0392857 0 0.0714286 0.0392857 0 0.0857143 0.0392857 0 0.1 0.0392857 0 0 0.0407143 0 0.0142857 0.0407143 0 0.0285714 0.0407143 0 0.0428571 0.0407143 0 0.0571429 0.0407143 0 0.0714286 0.0407143 0 0.0857143 0.0407143 0 0.1 0.0407143 0 0 0.0421429 0 0.0142857 0.0421429 0 0.0285714 0.0421429 0 0.0428571 0.0421429 0 0.0571429 0.0421429 0 0.0714286 0.0421429 0 0.0857143 0.0421429 0 0.1 0.0421429 0 0 0.0435714 0 0.0142857 0.0435714 0 0.0285714 0.0435714 0 0.0428571 0.0435714 0 0.0571429 0.0435714 0 0.0714286 0.0435714 0 0.0857143 0.0435714 0 0.1 0.0435714 0 0 0.045 0 0.0142857 0.045 0 0.0285714 0.045 0 0.0428571 0.045 0 0.0571429 0.045 0 0.0714286 0.045 0 0.0857143 0.045 0 0.1 0.045 0 
</DataArray>
</Points> 
</Piece> 
</StructuredGrid> 
</VTKFile> 
