<?xml version="1.0"?> 
<VTKFile type="StructuredGrid" version="0.1"> 
<StructuredGrid WholeExtent="0 7 0 7 0 0"> 
<Piece Extent="0 7 0 7 0 0"> 
<PointData>
<DataArray type="Float32" Name="|E|" format="ascii" NumberOfComponents="3"> 
-2.16182e+06 0 0 -2.19248e+06 0.123582 0 -2.28045e+06 0.227758 0 -2.43174e+06 0.508615 0 -2.65808e+06 0.0333446 0 -2.96739e+06 -3.00888 0 -3.31883e+06 -9.62058 0 -3.52392e+06 -2.38419e-07 0 -2.16133e+06 0 0 -2.19197e+06 7515.55 0 -2.27988e+06 15554.1 0 -2.43107e+06 24681.1 0 -2.6573e+06 35810.7 0 -2.96694e+06 46047.7 0 -3.32015e+06 41788.5 0 -3.52826e+06 9.31323e-08 0 -2.15985e+06 0 0 -2.19044e+06 15021.1 0 -2.27819e+06 31089.6 0 -2.42905e+06 49321.3 0 -2.65496e+06 71616.1 0 -2.96558e+06 92338.7 0 -3.32407e+06 84365.8 0 -3.5415e+06 -1.04308e-07 0 -2.15738e+06 0 0 -2.18788e+06 22507.7 0 -2.27537e+06 46588.9 0 -2.42568e+06 73883.8 0 -2.65102e+06 107404 0 -2.96326e+06 139095 0 -3.33039e+06 128482 0 -3.56422e+06 8.9407e-08 0 -2.15393e+06 0 0 -2.18431e+06 29966.9 0 -2.27142e+06 62033.2 0 -2.42098e+06 98335.7 0 -2.64545e+06 143147 0 -2.95988e+06 186533 0 -3.33877e+06 174913 0 -3.59753e+06 -4.47035e-08 0 -2.1495e+06 0 0 -2.17972e+06 37391.6 0 -2.26636e+06 77400.7 0 -2.41495e+06 122651 0 -2.63815e+06 178790 0 -2.95535e+06 234871 0 -3.34864e+06 224493 0 -3.64309e+06 1.49012e-08 0 -2.14409e+06 0 0 -2.17413e+06 44777.2 0 -2.26019e+06 92663 0 -2.40762e+06 146820 0 -2.62902e+06 214237 0 -2.94962e+06 284332 0 -3.35906e+06 278109 0 -3.70339e+06 2.98023e-08 0 -2.13772e+06 0 0 -2.16753e+06 52125.5 0 -2.25291e+06 107775 0 -2.39902e+06 170867 0 -2.61789e+06 249307 0 -2.94273e+06 335183 0 -3.36856e+06 336747 0 -3.78208e+06 1.19209e-07 0 </DataArray> 
</PointData> 
<Points> 
<DataArray type="Float32" NumberOfComponents="3"> 
0 0 0 0.0107143 0 0 0.0214286 0 0 0.0321429 0 0 0.0428571 0 0 0.0535714 0 0 0.0642857 0 0 0.075 0 0 0 0.00142857 0 0.0107143 0.00142857 0 0.0214286 0.00142857 0 0.0321429 0.00142857 0 0.0428571 0.00142857 0 0.0535714 0.00142857 0 0.0642857 0.00142857 0 0.075 0.00142857 0 0 0.00285714 0 0.0107143 0.00285714 0 0.0214286 0.00285714 0 0.0321429 0.00285714 0 0.0428571 0.00285714 0 0.0535714 0.00285714 0 0.0642857 0.00285714 0 0.075 0.00285714 0 0 0.00428571 0 0.0107143 0.00428571 0 0.0214286 0.00428571 0 0.0321429 0.00428571 0 0.0428571 0.00428571 0 0.0535714 0.00428571 0 0.0642857 0.00428571 0 0.075 0.00428571 0 0 0.00571429 0 0.0107143 0.00571429 0 0.0214286 0.00571429 0 0.0321429 0.00571429 0 0.0428571 0.00571429 0 0.0535714 0.00571429 0 0.0642857 0.00571429 0 0.075 0.00571429 0 0 0.00714286 0 0.0107143 0.00714286 0 0.0214286 0.00714286 0 0.0321429 0.00714286 0 0.0428571 0.00714286 0 0.0535714 0.00714286 0 0.0642857 0.00714286 0 0.075 0.00714286 0 0 0.00857143 0 0.0107143 0.00857143 0 0.0214286 0.00857143 0 0.0321429 0.00857143 0 0.0428571 0.00857143 0 0.0535714 0.00857143 0 0.0642857 0.00857143 0 0.075 0.00857143 0 0 0.01 0 0.0107143 0.01 0 0.0214286 0.01 0 0.0321429 0.01 0 0.0428571 0.01 0 0.0535714 0.01 0 0.0642857 0.01 0 0.075 0.01 0 
</DataArray>
</Points> 
</Piece> 
</StructuredGrid> 
</VTKFile> 
