<?xml version="1.0"?> 
<VTKFile type="StructuredGrid" version="0.1"> 
<StructuredGrid WholeExtent="0 7 0 7 0 0"> 
<Piece Extent="0 7 0 7 0 0"> 
<PointData>
<DataArray type="Float32" Name="|E|" format="ascii" NumberOfComponents="3"> 
-816043 0 0 -944094 380681 0 -1.11206e+06 750259 0 -1.33117e+06 1.10772e+06 0 -1.61055e+06 1.4283e+06 0 -1.96067e+06 1.62289e+06 0 -2.35674e+06 1.44281e+06 0 -2.11207e+06 792349 0 -704405 0 0 -841498 389562 0 -1.0167e+06 769106 0 -1.24436e+06 1.13807e+06 0 -1.53946e+06 1.47232e+06 0 -1.92854e+06 1.68822e+06 0 -2.41945e+06 1.50646e+06 0 -2.28287e+06 658617 0 -590533 0 0 -736562 397604 0 -918731 786787 0 -1.15425e+06 1.16775e+06 0 -1.46356e+06 1.51773e+06 0 -1.88667e+06 1.76013e+06 0 -2.48319e+06 1.59206e+06 0 -2.49894e+06 549309 0 -474754 0 0 -629513 404726 0 -818279 803135 0 -1.06077e+06 1.1963e+06 0 -1.38263e+06 1.56381e+06 0 -1.83328e+06 1.83675e+06 0 -2.54234e+06 1.70304e+06 0 -2.76619e+06 459488 0 -357419 0 0 -520607 410843 0 -715509 818011 0 -963948 1.22325e+06 0 -1.29667e+06 1.60987e+06 0 -1.76719e+06 1.91581e+06 0 -2.58872e+06 1.84155e+06 0 -3.09464e+06 389878 0 -238895 0 0 -410133 415867 0 -610618 831288 0 -863894 1.24813e+06 0 -1.20577e+06 1.65515e+06 0 -1.68822e+06 1.995e+06 0 -2.6112e+06 2.00789e+06 0 -3.49656e+06 347834 0 -119549 0 0 -298415 419723 0 -503835 842817 0 -760828 1.27066e+06 0 -1.11004e+06 1.69865e+06 0 -1.59775e+06 2.07241e+06 0 -2.59575e+06 2.19928e+06 0 -3.97892e+06 355362 0 251.393 0 0 -185804 422362 0 -395420 852412 0 -655078 1.29071e+06 0 -1.00943e+06 1.73913e+06 0 -1.49877e+06 2.14689e+06 0 -2.52884e+06 2.4065e+06 0 -4.5138e+06 482348 0 </DataArray> 
</PointData> 
<Points> 
<DataArray type="Float32" NumberOfComponents="3"> 
0 0.0835 0 0.0142857 0.0794286 0 0.0285714 0.0753571 0 0.0428571 0.0712857 0 0.0571429 0.0672143 0 0.0714286 0.0631429 0 0.0857143 0.0590714 0 0.1 0.055 0 0 0.0875714 0 0.0142857 0.083198 0 0.0285714 0.0788245 0 0.0428571 0.074451 0 0.0571429 0.0700776 0 0.0714286 0.0657041 0 0.0857143 0.0613306 0 0.1 0.0569571 0 0 0.0916429 0 0.0142857 0.0869673 0 0.0285714 0.0822918 0 0.0428571 0.0776163 0 0.0571429 0.0729408 0 0.0714286 0.0682653 0 0.0857143 0.0635898 0 0.1 0.0589143 0 0 0.0957143 0 0.0142857 0.0907367 0 0.0285714 0.0857592 0 0.0428571 0.0807816 0 0.0571429 0.0758041 0 0.0714286 0.0708265 0 0.0857143 0.065849 0 0.1 0.0608714 0 0 0.0997857 0 0.0142857 0.0945061 0 0.0285714 0.0892265 0 0.0428571 0.0839469 0 0.0571429 0.0786673 0 0.0714286 0.0733878 0 0.0857143 0.0681082 0 0.1 0.0628286 0 0 0.103857 0 0.0142857 0.0982755 0 0.0285714 0.0926939 0 0.0428571 0.0871122 0 0.0571429 0.0815306 0 0.0714286 0.075949 0 0.0857143 0.0703673 0 0.1 0.0647857 0 0 0.107929 0 0.0142857 0.102045 0 0.0285714 0.0961612 0 0.0428571 0.0902776 0 0.0571429 0.0843939 0 0.0714286 0.0785102 0 0.0857143 0.0726265 0 0.1 0.0667429 0 0 0.112 0 0.0142857 0.105814 0 0.0285714 0.0996286 0 0.0428571 0.0934429 0 0.0571429 0.0872571 0 0.0714286 0.0810714 0 0.0857143 0.0748857 0 0.1 0.0687 0 
</DataArray>
</Points> 
</Piece> 
</StructuredGrid> 
</VTKFile> 
