<?xml version="1.0"?> 
<VTKFile type="StructuredGrid" version="0.1"> 
<StructuredGrid WholeExtent="0 7 0 7 0 0"> 
<Piece Extent="0 7 0 7 0 0"> 
<PointData>
<DataArray type="Float32" Name="|E|" format="ascii" NumberOfComponents="3"> 
3.72529e-08 3.51044e+06 0 6.51926e-09 2.30031e+06 0 -9.31323e-09 1.26019e+06 0 -9.31323e-09 554991 0 7.45058e-09 177054 0 -1.86265e-08 41974 0 4.47035e-08 8876.99 0 -8.19564e-08 2340.12 0 -350369 2.71486e+06 0 -283893 1.62632e+06 0 -195907 840058 0 -111650 342853 0 -44864.2 104638 0 -12578.4 26192.7 0 -2918.45 6036.47 0 -433.712 1276.9 0 -603460 1.80482e+06 0 -449219 1.03457e+06 0 -292875 486356 0 -147464 173915 0 -53056 49281.6 0 -15110.1 12683.8 0 -3872.94 3137.32 0 -847.8 738.5 0 -708401 1.08842e+06 0 -502836 549676 0 -288239 204883 0 -122650 55503.5 0 -40639 13336.7 0 -12338 3371.75 0 -3570.65 889.27 0 -977.082 186.012 0 -695689 491096 0 -422291 157615 0 -194145 18145.3 0 -69594.3 -6532.39 0 -23229.1 -3814.42 0 -7930.03 -1448.29 0 -2657.78 -571.228 0 -843.373 -260.134 0 -483618 -5364.42 0 -218122 -72720.9 0 -75673.4 -50604.5 0 -26034.4 -20996.6 0 -10222.8 -7820.98 0 -4062.17 -3080.39 0 -1583.16 -1281.41 0 -575.389 -552.448 0 -137931 -180778 0 -36346.4 -82409 0 -12172 -33478.1 0 -6485.58 -14049.8 0 -3163.45 -6393.51 0 -1448.39 -2972.07 0 -647.508 -1398.93 0 -258.592 -681.378 0 2.98023e-08 72658.4 0 1.49012e-08 -6185.01 0 -2.98023e-08 -14668 0 0 -7531.31 0 7.45058e-09 -3898.36 0 2.23517e-08 -2113.93 0 -4.47035e-08 -1168.49 0 8.9407e-08 -710.889 0 </DataArray> 
</PointData> 
<Points> 
<DataArray type="Float32" NumberOfComponents="3"> 
0.075 0.021 0 0.0821429 0.021 0 0.0892857 0.021 0 0.0964286 0.021 0 0.103571 0.021 0 0.110714 0.021 0 0.117857 0.021 0 0.125 0.021 0 0.08 0.023 0 0.0865306 0.023 0 0.0930612 0.023 0 0.0995918 0.023 0 0.106122 0.023 0 0.112653 0.023 0 0.119184 0.023 0 0.125714 0.023 0 0.085 0.025 0 0.0909184 0.025 0 0.0968367 0.025 0 0.102755 0.025 0 0.108673 0.025 0 0.114592 0.025 0 0.12051 0.025 0 0.126429 0.025 0 0.09 0.027 0 0.0953061 0.027 0 0.100612 0.027 0 0.105918 0.027 0 0.111224 0.027 0 0.116531 0.027 0 0.121837 0.027 0 0.127143 0.027 0 0.095 0.029 0 0.0996939 0.029 0 0.104388 0.029 0 0.109082 0.029 0 0.113776 0.029 0 0.118469 0.029 0 0.123163 0.029 0 0.127857 0.029 0 0.1 0.031 0 0.104082 0.031 0 0.108163 0.031 0 0.112245 0.031 0 0.116327 0.031 0 0.120408 0.031 0 0.12449 0.031 0 0.128571 0.031 0 0.105 0.033 0 0.108469 0.033 0 0.111939 0.033 0 0.115408 0.033 0 0.118878 0.033 0 0.122347 0.033 0 0.125816 0.033 0 0.129286 0.033 0 0.11 0.035 0 0.112857 0.035 0 0.115714 0.035 0 0.118571 0.035 0 0.121429 0.035 0 0.124286 0.035 0 0.127143 0.035 0 0.13 0.035 0 
</DataArray>
</Points> 
</Piece> 
</StructuredGrid> 
</VTKFile> 
