<?xml version="1.0"?> 
<VTKFile type="StructuredGrid" version="0.1"> 
<StructuredGrid WholeExtent="0 7 0 7 0 0"> 
<Piece Extent="0 7 0 7 0 0"> 
<PointData>
<DataArray type="Float32" Name="|E|" format="ascii" NumberOfComponents="3"> 
1.31606e+06 -2.38419e-07 0 1.72983e+06 0.0913049 0 1.5604e+06 -0.0623859 0 1.20339e+06 -0.0775493 0 908457 0.03564 0 704985 -0.0137521 0 588184 0.00847835 0 548032 0 0 1.31533e+06 -5.96046e-08 0 1.73025e+06 -3883.92 0 1.56042e+06 8918.22 0 1.20337e+06 9364.21 0 908419 6736.45 0 704952 4290.79 0 588156 2016.32 0 548005 0 0 1.31312e+06 2.98023e-08 0 1.73151e+06 -7775.23 0 1.56049e+06 17841.5 0 1.20332e+06 18734.7 0 908307 13470 0 704854 8582.7 0 588071 4031.95 0 547922 0 0 1.30943e+06 -5.96046e-08 0 1.73362e+06 -11680.7 0 1.5606e+06 26774.3 0 1.20324e+06 28117.5 0 908118 20197.8 0 704691 12876.8 0 587930 6046.23 0 547785 0 0 1.30423e+06 2.98023e-08 0 1.73659e+06 -15606.8 0 1.56075e+06 35721.1 0 1.20313e+06 37518.6 0 907854 26917.2 0 704463 17174.2 0 587732 8058.51 0 547592 0 0 1.29749e+06 5.96046e-08 0 1.74044e+06 -19559.9 0 1.56092e+06 44685.9 0 1.20298e+06 46944.1 0 907514 33625.2 0 704169 21476.1 0 587478 10068.1 0 547345 0 0 1.28916e+06 -1.19209e-07 0 1.7452e+06 -23546.1 0 1.56112e+06 53672.5 0 1.20281e+06 56400.6 0 907097 40318.5 0 703809 25783.8 0 587168 12074.2 0 547041 0 0 1.2792e+06 0 0 1.7509e+06 -27571.2 0 1.56133e+06 62684.3 0 1.20261e+06 65895.1 0 906603 46993.7 0 703384 30098.8 0 586803 14076.1 0 546682 0 0 </DataArray> 
</PointData> 
<Points> 
<DataArray type="Float32" NumberOfComponents="3"> 
0.19 0 0 0.216143 0 0 0.242286 0 0 0.268429 0 0 0.294571 0 0 0.320714 0 0 0.346857 0 0 0.373 0 0 0.19 0.000714286 0 0.216143 0.000714286 0 0.242286 0.000714286 0 0.268429 0.000714286 0 0.294571 0.000714286 0 0.320714 0.000714286 0 0.346857 0.000714286 0 0.373 0.000714286 0 0.19 0.00142857 0 0.216143 0.00142857 0 0.242286 0.00142857 0 0.268429 0.00142857 0 0.294571 0.00142857 0 0.320714 0.00142857 0 0.346857 0.00142857 0 0.373 0.00142857 0 0.19 0.00214286 0 0.216143 0.00214286 0 0.242286 0.00214286 0 0.268429 0.00214286 0 0.294571 0.00214286 0 0.320714 0.00214286 0 0.346857 0.00214286 0 0.373 0.00214286 0 0.19 0.00285714 0 0.216143 0.00285714 0 0.242286 0.00285714 0 0.268429 0.00285714 0 0.294571 0.00285714 0 0.320714 0.00285714 0 0.346857 0.00285714 0 0.373 0.00285714 0 0.19 0.00357143 0 0.216143 0.00357143 0 0.242286 0.00357143 0 0.268429 0.00357143 0 0.294571 0.00357143 0 0.320714 0.00357143 0 0.346857 0.00357143 0 0.373 0.00357143 0 0.19 0.00428571 0 0.216143 0.00428571 0 0.242286 0.00428571 0 0.268429 0.00428571 0 0.294571 0.00428571 0 0.320714 0.00428571 0 0.346857 0.00428571 0 0.373 0.00428571 0 0.19 0.005 0 0.216143 0.005 0 0.242286 0.005 0 0.268429 0.005 0 0.294571 0.005 0 0.320714 0.005 0 0.346857 0.005 0 0.373 0.005 0 
</DataArray>
</Points> 
</Piece> 
</StructuredGrid> 
</VTKFile> 
