<?xml version="1.0"?> 
<VTKFile type="StructuredGrid" version="0.1"> 
<StructuredGrid WholeExtent="0 7 0 7 0 0"> 
<Piece Extent="0 7 0 7 0 0"> 
<PointData>
<DataArray type="Float32" Name="|E|" format="ascii" NumberOfComponents="3"> 
-2.06044e+06 0 0 -2.06165e+06 22191.7 0 -2.0651e+06 44788.9 0 -2.07088e+06 69260.8 0 -2.07866e+06 98154.9 0 -2.08806e+06 129470 0 -2.09944e+06 154769 0 -2.11422e+06 170186 0 -2.0397e+06 0 0 -2.04333e+06 42575.9 0 -2.05337e+06 85904.8 0 -2.0699e+06 129869 0 -2.09414e+06 174597 0 -2.12687e+06 221871 0 -2.16547e+06 269611 0 -2.20681e+06 312403 0 -2.01716e+06 0 0 -2.02436e+06 65731.3 0 -2.04459e+06 132921 0 -2.07931e+06 201762 0 -2.12837e+06 275279 0 -2.18664e+06 352021 0 -2.25337e+06 422348 0 -2.34177e+06 492373 0 -1.99295e+06 0 0 -2.00467e+06 91631.5 0 -2.03872e+06 186215 0 -2.09571e+06 285632 0 -2.16949e+06 394362 0 -2.26181e+06 503230 0 -2.4016e+06 630854 0 -2.58584e+06 844191 0 -1.96714e+06 0 0 -1.98422e+06 120302 0 -2.03495e+06 245293 0 -2.11471e+06 381107 0 -2.22119e+06 533876 0 -2.38753e+06 709701 0 -2.59504e+06 1.04037e+06 0 -2.66286e+06 1.74302e+06 0 -1.93976e+06 0 0 -1.96294e+06 151391 0 -2.03203e+06 309777 0 -2.13657e+06 492349 0 -2.29879e+06 703927 0 -2.50759e+06 1.02287e+06 0 -2.50667e+06 1.64617e+06 0 -2.05471e+06 2.39643e+06 0 -1.91051e+06 0 0 -1.94107e+06 183881 0 -2.02877e+06 382856 0 -2.1665e+06 617796 0 -2.37282e+06 901885 0 -2.43266e+06 1.36592e+06 0 -2.01906e+06 1.79998e+06 0 -1.3976e+06 1.01536e+06 0 -1.87916e+06 0 0 -1.91871e+06 218220 0 -2.02534e+06 466102 0 -2.20071e+06 746459 0 -2.36849e+06 1.10304e+06 0 -2.14589e+06 1.52922e+06 0 -1.63581e+06 1.43185e+06 0 -1.4326e+06 165850 0 </DataArray> 
</PointData> 
<Points> 
<DataArray type="Float32" NumberOfComponents="3"> 
0 0.021 0 0.00228571 0.021 0 0.00457143 0.021 0 0.00685714 0.021 0 0.00914286 0.021 0 0.0114286 0.021 0 0.0137143 0.021 0 0.016 0.021 0 0 0.023 0 0.004 0.023 0 0.008 0.023 0 0.012 0.023 0 0.016 0.023 0 0.02 0.023 0 0.024 0.023 0 0.028 0.023 0 0 0.025 0 0.00571429 0.025 0 0.0114286 0.025 0 0.0171429 0.025 0 0.0228571 0.025 0 0.0285714 0.025 0 0.0342857 0.025 0 0.04 0.025 0 0 0.027 0 0.00742857 0.027 0 0.0148571 0.027 0 0.0222857 0.027 0 0.0297143 0.027 0 0.0371429 0.027 0 0.0445714 0.027 0 0.052 0.027 0 0 0.029 0 0.00914286 0.029 0 0.0182857 0.029 0 0.0274286 0.029 0 0.0365714 0.029 0 0.0457143 0.029 0 0.0548571 0.029 0 0.064 0.029 0 0 0.031 0 0.0108571 0.031 0 0.0217143 0.031 0 0.0325714 0.031 0 0.0434286 0.031 0 0.0542857 0.031 0 0.0651429 0.031 0 0.076 0.031 0 0 0.033 0 0.0125714 0.033 0 0.0251429 0.033 0 0.0377143 0.033 0 0.0502857 0.033 0 0.0628571 0.033 0 0.0754286 0.033 0 0.088 0.033 0 0 0.035 0 0.0142857 0.035 0 0.0285714 0.035 0 0.0428571 0.035 0 0.0571429 0.035 0 0.0714286 0.035 0 0.0857143 0.035 0 0.1 0.035 0 
</DataArray>
</Points> 
</Piece> 
</StructuredGrid> 
</VTKFile> 
