<?xml version="1.0"?> 
<VTKFile type="StructuredGrid" version="0.1"> 
<StructuredGrid WholeExtent="0 7 0 7 0 0"> 
<Piece Extent="0 7 0 7 0 0"> 
<PointData>
<DataArray type="Float32" Name="|E|" format="ascii" NumberOfComponents="3"> 
1.2792e+06 -130531 0 1.7509e+06 -22057.2 0 1.56133e+06 63016 0 1.20261e+06 64488.2 0 906603 47613.1 0 703384 29682.3 0 586803 14205.8 0 546682 0 0 1.28145e+06 -130760 0 1.75574e+06 -25683.5 0 1.56139e+06 71948.7 0 1.20171e+06 73812.9 0 905780 54109 0 702783 33903.4 0 586353 16156.4 0 546291 0 0 1.28211e+06 -130828 0 1.76153e+06 -29228.5 0 1.56143e+06 80945.7 0 1.20078e+06 83164.3 0 904881 60585.1 0 702120 38125.5 0 585851 18101.7 0 545846 0 0 1.28116e+06 -130730 0 1.76828e+06 -32695.5 0 1.56143e+06 90007.7 0 1.19984e+06 92550.6 0 903905 67036.8 0 701393 42350.7 0 585296 20040.8 0 545347 0 0 1.27855e+06 -130464 0 1.77603e+06 -36087.1 0 1.56138e+06 99135.1 0 1.19888e+06 101981 0 902853 73459 0 700604 46581.2 0 584689 21972.5 0 544793 0 0 1.27423e+06 -130024 0 1.78482e+06 -39405.3 0 1.56126e+06 108327 0 1.1979e+06 111464 0 901722 79846.3 0 699751 50819.5 0 584030 23895.7 0 544183 0 0 1.26815e+06 -129403 0 1.79468e+06 -42651.5 0 1.56105e+06 117583 0 1.19691e+06 121010 0 900512 86192.8 0 698835 55068.3 0 583319 25808.9 0 543519 0 0 1.26022e+06 -128594 0 1.80568e+06 -45826 0 1.56073e+06 126898 0 1.19591e+06 130631 0 899222 92491.4 0 697855 59331 0 582557 27710.8 0 542797 0 0 </DataArray> 
</PointData> 
<Points> 
<DataArray type="Float32" NumberOfComponents="3"> 
0.19 0.005 0 0.216143 0.005 0 0.242286 0.005 0 0.268429 0.005 0 0.294571 0.005 0 0.320714 0.005 0 0.346857 0.005 0 0.373 0.005 0 0.190071 0.0057 0 0.216204 0.0057 0 0.242337 0.0057 0 0.268469 0.0057 0 0.294602 0.0057 0 0.320735 0.0057 0 0.346867 0.0057 0 0.373 0.0057 0 0.190143 0.0064 0 0.216265 0.0064 0 0.242388 0.0064 0 0.26851 0.0064 0 0.294633 0.0064 0 0.320755 0.0064 0 0.346878 0.0064 0 0.373 0.0064 0 0.190214 0.0071 0 0.216327 0.0071 0 0.242439 0.0071 0 0.268551 0.0071 0 0.294663 0.0071 0 0.320776 0.0071 0 0.346888 0.0071 0 0.373 0.0071 0 0.190286 0.0078 0 0.216388 0.0078 0 0.24249 0.0078 0 0.268592 0.0078 0 0.294694 0.0078 0 0.320796 0.0078 0 0.346898 0.0078 0 0.373 0.0078 0 0.190357 0.0085 0 0.216449 0.0085 0 0.242541 0.0085 0 0.268633 0.0085 0 0.294724 0.0085 0 0.320816 0.0085 0 0.346908 0.0085 0 0.373 0.0085 0 0.190429 0.0092 0 0.21651 0.0092 0 0.242592 0.0092 0 0.268673 0.0092 0 0.294755 0.0092 0 0.320837 0.0092 0 0.346918 0.0092 0 0.373 0.0092 0 0.1905 0.0099 0 0.216571 0.0099 0 0.242643 0.0099 0 0.268714 0.0099 0 0.294786 0.0099 0 0.320857 0.0099 0 0.346929 0.0099 0 0.373 0.0099 0 
</DataArray>
</Points> 
</Piece> 
</StructuredGrid> 
</VTKFile> 
