<?xml version="1.0"?> 
<VTKFile type="StructuredGrid" version="0.1"> 
<StructuredGrid WholeExtent="0 7 0 7 0 0"> 
<Piece Extent="0 7 0 7 0 0"> 
<PointData>
<DataArray type="Float32" Name="|E|" format="ascii" NumberOfComponents="3"> 
-1.96421e+06 792349 0 -1.67911e+06 766954 0 -1.33755e+06 727603 0 -972591 635906 0 -635938 476729 0 -383119 272667 0 -226539 96198.1 0 -125248 0 0 -2.12446e+06 658617 0 -1.88484e+06 593195 0 -1.60568e+06 533859 0 -1.29813e+06 460125 0 -985434 355533 0 -697822 219221 0 -458476 74097.9 0 -271543 -40589.9 0 -2.31353e+06 549309 0 -2.1148e+06 447883 0 -1.88684e+06 357664 0 -1.63472e+06 271214 0 -1.36741e+06 179584 0 -1.09674e+06 77253.2 0 -838940 -34476.9 0 -595041 -143124 0 -2.53468e+06 459488 0 -2.38364e+06 326914 0 -2.20605e+06 202793 0 -2.0069e+06 86764.7 0 -1.79149e+06 -22920.7 0 -1.56555e+06 -129189 0 -1.33017e+06 -233409 0 -1.10713e+06 -338621 0 -2.79871e+06 389878 0 -2.70767e+06 231944 0 -2.594e+06 71945.3 0 -2.45606e+06 -84405.4 0 -2.29729e+06 -234062 0 -2.12267e+06 -374352 0 -1.9421e+06 -503952 0 -1.73377e+06 -621940 0 -3.11266e+06 347834 0 -3.11518e+06 173255 0 -3.09579e+06 -15823.5 0 -3.05192e+06 -220733 0 -2.97958e+06 -434013 0 -2.87679e+06 -649785 0 -2.73978e+06 -865009 0 -2.59695e+06 -1.05417e+06 0 -3.49763e+06 355362 0 -3.66664e+06 186707 0 -3.80424e+06 -44018.8 0 -3.92735e+06 -313173 0 -4.03295e+06 -628293 0 -4.10389e+06 -987403 0 -4.11542e+06 -1.35892e+06 0 -4.14991e+06 -1.87505e+06 0 -4.41052e+06 482348 0 -4.45153e+06 269475 0 -4.80852e+06 132217 0 -5.32294e+06 -61275 0 -6.04526e+06 -427313 0 -7.0213e+06 -1.19261e+06 0 -8.57129e+06 -2.96936e+06 0 -6.96391e+06 -3.48196e+06 0 </DataArray> 
</PointData> 
<Points> 
<DataArray type="Float32" NumberOfComponents="3"> 
0.1 0.055 0 0.101857 0.0535714 0 0.103714 0.0521429 0 0.105571 0.0507143 0 0.107429 0.0492857 0 0.109286 0.0478572 0 0.111143 0.0464286 0 0.113 0.045 0 0.1 0.0569571 0 0.101712 0.0556934 0 0.10346 0.0544032 0 0.105246 0.0530858 0 0.107069 0.0517402 0 0.108931 0.0503655 0 0.110835 0.0489608 0 0.11278 0.0475251 0 0.1 0.0589143 0 0.101545 0.0579092 0 0.103144 0.0568685 0 0.104802 0.0557904 0 0.106519 0.0546727 0 0.108301 0.0535133 0 0.110151 0.0523098 0 0.112073 0.0510596 0 0.1 0.0608714 0 0.101356 0.0601975 0 0.10277 0.0594947 0 0.104246 0.0587613 0 0.105788 0.0579951 0 0.1074 0.0571939 0 0.109087 0.0563553 0 0.110856 0.0554765 0 0.1 0.0628286 0 0.101148 0.0625352 0 0.102345 0.0622293 0 0.103594 0.06191 0 0.104899 0.0615764 0 0.106263 0.0612277 0 0.107691 0.0608626 0 0.109188 0.06048 0 0.1 0.0647857 0 0.100922 0.0648979 0 0.101877 0.0650141 0 0.102866 0.0651344 0 0.103891 0.0652591 0 0.104954 0.0653886 0 0.106058 0.0655229 0 0.107205 0.0656624 0 0.1 0.0667429 0 0.100681 0.0672609 0 0.101377 0.0677898 0 0.102087 0.0683299 0 0.102813 0.0688815 0 0.103554 0.069445 0 0.104311 0.0700209 0 0.105085 0.0706094 0 0.1 0.0687 0 0.100429 0.0696 0 0.100857 0.0705 0 0.101286 0.0714 0 0.101714 0.0723 0 0.102143 0.0732 0 0.102571 0.0741 0 0.103 0.075 0 
</DataArray>
</Points> 
</Piece> 
</StructuredGrid> 
</VTKFile> 
