<?xml version="1.0"?> 
<VTKFile type="StructuredGrid" version="0.1"> 
<StructuredGrid WholeExtent="0 7 0 7 0 0"> 
<Piece Extent="0 7 0 7 0 0"> 
<PointData>
<DataArray type="Float32" Name="|E|" format="ascii" NumberOfComponents="3"> 
-3925.24 -197408 0 1498.14 1.76088e+06 0 -72569 2.72787e+06 0 -280625 3.94041e+06 0 -1.19971e+06 7.49694e+06 0 -2.80565e+07 6.39363e+07 0 4.9048e+06 897073 0 2.97051e+06 5.63813e+06 0 2.13147e+06 1.66975e+06 0 1.03111e+06 2.75064e+06 0 1.1074e+06 3.40679e+06 0 1.73764e+06 3.71035e+06 0 2.3726e+06 3.29316e+06 0 2.30622e+06 2.78886e+06 0 1.94925e+06 2.12963e+06 0 2.31287e+06 722199 0 1.76738e+06 3.44746e+06 0 1.28747e+06 3.13676e+06 0 1.48405e+06 3.07298e+06 0 1.70125e+06 2.51096e+06 0 1.46364e+06 1.86512e+06 0 1.21754e+06 1.35203e+06 0 1.13873e+06 1.24712e+06 0 887559 1.43884e+06 0 1.34785e+06 3.40446e+06 0 1.20348e+06 3.11388e+06 0 1.23843e+06 2.63862e+06 0 1.11963e+06 2.01139e+06 0 924289 1.57125e+06 0 792632 1.35864e+06 0 636396 1.1667e+06 0 610644 874265 0 1.1707e+06 3.60019e+06 0 927802 3.0166e+06 0 873099 2.36566e+06 0 726514 1.79455e+06 0 584404 1.38892e+06 0 455292 1.06538e+06 0 385622 812234 0 302754 694337 0 712628 3.73283e+06 0 617952 2.88678e+06 0 538021 2.17449e+06 0 425818 1.59092e+06 0 321099 1.15199e+06 0 250324 832672 0 194990 602248 0 168927 403426 0 329590 3.63498e+06 0 303086 2.75925e+06 0 248978 1.99134e+06 0 185820 1.38707e+06 0 135723 949104 0 100956 629551 0 81422.3 389031 0 69469.4 197893 0 0 3.57106e+06 0 0 2.62372e+06 0 0 1.80666e+06 0 0 1.19341e+06 0 0 759336 0 0 450067 0 0 206315 0 0 -1077.25 0 </DataArray> 
</PointData> 
<Points> 
<DataArray type="Float32" NumberOfComponents="3"> 
0.178 0.0500551 0 0.184801 0.0499799 0 0.190675 0.0500476 0 0.195403 0.0502644 0 0.198817 0.0506285 0 0.20082 0.0511296 0 0.201396 0.0517499 0 0.200607 0.0524662 0 0.179429 0.0589044 0 0.189134 0.0590497 0 0.198132 0.0592528 0 0.20617 0.0595116 0 0.213031 0.0598212 0 0.21855 0.060174 0 0.222627 0.0605608 0 0.225234 0.0609711 0 0.180857 0.0677536 0 0.193432 0.0680482 0 0.205489 0.0683358 0 0.216765 0.0686104 0 0.227018 0.0688663 0 0.236044 0.0690984 0 0.24369 0.0693025 0 0.249862 0.0694759 0 0.182286 0.0766029 0 0.197697 0.0769762 0 0.212749 0.077299 0 0.22719 0.0775645 0 0.240782 0.0777676 0 0.253308 0.0779051 0 0.264589 0.0779758 0 0.27449 0.0779807 0 0.183714 0.0854522 0 0.201929 0.0858346 0 0.219914 0.0861448 0 0.237452 0.0863772 0 0.254328 0.0865284 0 0.270345 0.0865963 0 0.285324 0.0865814 0 0.299117 0.0864855 0 0.185143 0.0943015 0 0.206128 0.0946242 0 0.226986 0.0948754 0 0.247552 0.0950519 0 0.267662 0.0951519 0 0.28716 0.0951745 0 0.305899 0.0951201 0 0.323745 0.0949904 0 0.186571 0.103151 0 0.210294 0.103346 0 0.233966 0.103493 0 0.257496 0.103592 0 0.28079 0.103641 0 0.303758 0.103642 0 0.326314 0.103593 0 0.348372 0.103495 0 0.188 0.112 0 0.214429 0.112 0 0.240857 0.112 0 0.267286 0.112 0 0.293714 0.112 0 0.320143 0.112 0 0.346571 0.112 0 0.373 0.112 0 
</DataArray>
</Points> 
</Piece> 
</StructuredGrid> 
</VTKFile> 
