<?xml version="1.0"?> 
<VTKFile type="StructuredGrid" version="0.1"> 
<StructuredGrid WholeExtent="0 7 0 7 0 0"> 
<Piece Extent="0 7 0 7 0 0"> 
<PointData>
<DataArray type="Float32" Name="|E|" format="ascii" NumberOfComponents="3"> 
356354 1.18584e+07 0 215880 6.34609e+06 0 228299 5.8252e+06 0 262425 5.67755e+06 0 320454 5.68941e+06 0 422066 5.85554e+06 0 617878 6.17434e+06 0 1.07955e+06 6.59831e+06 0 -1.92385e+06 6.11992e+06 0 -199440 6.15717e+06 0 26908.3 5.73711e+06 0 207927 5.58961e+06 0 345403 5.56296e+06 0 530626 5.57208e+06 0 784773 5.55879e+06 0 1.06557e+06 5.43156e+06 0 -1.33839e+06 5.66058e+06 0 -454415 5.6819e+06 0 -80799.7 5.55222e+06 0 127452 5.46244e+06 0 293181 5.40001e+06 0 456896 5.34381e+06 0 621319 5.26576e+06 0 767510 5.17524e+06 0 -915287 5.09823e+06 0 -440811 5.34834e+06 0 -134934 5.35291e+06 0 60828.9 5.31077e+06 0 212041 5.25468e+06 0 343229 5.18346e+06 0 458747 5.09562e+06 0 550890 4.99373e+06 0 -620389 4.92047e+06 0 -341871 5.11457e+06 0 -135330 5.17788e+06 0 16727.4 5.17329e+06 0 135528 5.13252e+06 0 234346 5.06767e+06 0 317303 4.98516e+06 0 385244 4.89301e+06 0 -367389 4.79454e+06 0 -224907 4.96911e+06 0 -102305 5.04861e+06 0 -4473.08 5.06563e+06 0 75240.3 5.04108e+06 0 141673 4.98737e+06 0 197166 4.91295e+06 0 241672 4.82509e+06 0 -168660 4.74926e+06 0 -107521 4.89226e+06 0 -53747.7 4.97046e+06 0 -7658.63 4.99724e+06 0 31488.1 4.98413e+06 0 64964.8 4.94e+06 0 93445.1 4.87192e+06 0 117172 4.78586e+06 0 0 4.76186e+06 0 0 4.8747e+06 0 0 4.94365e+06 0 0 4.97203e+06 0 0 4.96464e+06 0 0 4.92608e+06 0 0 4.86052e+06 0 0 4.77236e+06 0 </DataArray> 
</PointData> 
<Points> 
<DataArray type="Float32" NumberOfComponents="3"> 
0.103 0.075 0 0.112888 0.0746845 0 0.121551 0.0743689 0 0.12899 0.0740534 0 0.135204 0.0737379 0 0.140194 0.0734223 0 0.143959 0.0731068 0 0.1465 0.0727913 0 0.104429 0.0802857 0 0.113587 0.0800153 0 0.121697 0.0797448 0 0.128757 0.0794743 0 0.134767 0.0792039 0 0.139727 0.0789334 0 0.143638 0.078663 0 0.1465 0.0783925 0 0.105857 0.0855714 0 0.114287 0.085346 0 0.121843 0.0851207 0 0.128523 0.0848953 0 0.134329 0.0846699 0 0.139261 0.0844445 0 0.143318 0.0842191 0 0.1465 0.0839938 0 0.107286 0.0908571 0 0.114987 0.0906768 0 0.121988 0.0904965 0 0.12829 0.0903162 0 0.133892 0.0901359 0 0.138794 0.0899556 0 0.142997 0.0897753 0 0.1465 0.089595 0 0.108714 0.0961429 0 0.115687 0.0960076 0 0.122134 0.0958724 0 0.128057 0.0957372 0 0.133455 0.0956019 0 0.138328 0.0954667 0 0.142676 0.0953315 0 0.1465 0.0951963 0 0.110143 0.101429 0 0.116386 0.101338 0 0.12228 0.101248 0 0.127824 0.101158 0 0.133017 0.101068 0 0.137862 0.100978 0 0.142356 0.100888 0 0.1465 0.100798 0 0.111571 0.106714 0 0.117086 0.106669 0 0.122426 0.106624 0 0.12759 0.106579 0 0.13258 0.106534 0 0.137395 0.106489 0 0.142035 0.106444 0 0.1465 0.106399 0 0.113 0.112 0 0.117786 0.112 0 0.122571 0.112 0 0.127357 0.112 0 0.132143 0.112 0 0.136929 0.112 0 0.141714 0.112 0 0.1465 0.112 0 
</DataArray>
</Points> 
</Piece> 
</StructuredGrid> 
</VTKFile> 
