<?xml version="1.0"?> 
<VTKFile type="StructuredGrid" version="0.1"> 
<StructuredGrid WholeExtent="0 7 0 7 0 0"> 
<Piece Extent="0 7 0 7 0 0"> 
<PointData>
<DataArray type="Float32" Name="|E|" format="ascii" NumberOfComponents="3"> 
3.32211e+06 -1.37606e+06 0 2.10972e+06 601606 0 1.41149e+06 624044 0 1.00866e+06 472476 0 757882 327077 0 595044 202754 0 507203 96346 0 478871 0 0 3.81323e+06 -1.01613e+06 0 2.07879e+06 744354 0 1.35371e+06 708970 0 950250 533536 0 703656 374678 0 547806 235990 0 463028 114422 0 432480 0 0 4.23262e+06 -532132 0 2.04225e+06 892322 0 1.29437e+06 796151 0 890446 595819 0 645871 421236 0 494965 267510 0 411069 130933 0 376527 0 0 4.56171e+06 55714.7 0 2.00188e+06 1.04499e+06 0 1.23456e+06 885182 0 829322 659493 0 584771 466926 0 436919 297553 0 352127 146111 0 312087 0 0 4.78549e+06 723959 0 1.95955e+06 1.20203e+06 0 1.17548e+06 975978 0 767025 724777 0 520864 511993 0 374274 326350 0 287264 160114 0 240535 0 0 4.89347e+06 1.44655e+06 0 1.91695e+06 1.36324e+06 0 1.11832e+06 1.0688e+06 0 703817 791833 0 454851 556756 0 307795 354062 0 217753 173030 0 163467 0 0 4.88038e+06 2.19574e+06 0 1.87549e+06 1.52839e+06 0 1.06418e+06 1.16416e+06 0 640123 860732 0 387519 601605 0 238354 380741 0 145005 184891 0 82679.6 0 0 4.74657e+06 2.94327e+06 0 1.83619e+06 1.6971e+06 0 1.01392e+06 1.26274e+06 0 576537 931457 0 319633 647010 0 166868 406284 0 70447.5 195738 0 330.289 0 0 </DataArray> 
</PointData> 
<Points> 
<DataArray type="Float32" NumberOfComponents="3"> 
0.2018 0.0378 0 0.226257 0.0378 0 0.250714 0.0378 0 0.275171 0.0378 0 0.299629 0.0378 0 0.324086 0.0378 0 0.348543 0.0378 0 0.373 0.0378 0 0.202484 0.0398184 0 0.22742 0.0410734 0 0.25216 0.0423185 0 0.276707 0.0435538 0 0.301062 0.0447796 0 0.325227 0.0459958 0 0.349206 0.0472025 0 0.373 0.0484 0 0.202901 0.0419587 0 0.228176 0.0444908 0 0.253114 0.0469893 0 0.277724 0.0494548 0 0.302011 0.051888 0 0.325982 0.0542895 0 0.349643 0.05666 0 0.373 0.059 0 0.203026 0.0441667 0 0.228486 0.0479763 0 0.253537 0.0517247 0 0.27819 0.0554136 0 0.302454 0.0590442 0 0.326338 0.0626179 0 0.34985 0.0661361 0 0.373 0.0696 0 0.202846 0.0463814 0 0.228333 0.051447 0 0.253411 0.0564313 0 0.27809 0.0613363 0 0.302379 0.0661639 0 0.326288 0.0709159 0 0.349826 0.075594 0 0.373 0.0802 0 0.202366 0.0485402 0 0.22772 0.0548194 0 0.252737 0.0610152 0 0.277424 0.0671293 0 0.301788 0.0731633 0 0.325834 0.0791187 0 0.34957 0.0849971 0 0.373 0.0908 0 0.201608 0.0505849 0 0.226672 0.0580161 0 0.251539 0.0653888 0 0.276212 0.0727039 0 0.300692 0.0799618 0 0.324982 0.0871634 0 0.349084 0.0943093 0 0.373 0.1014 0 0.200607 0.0524662 0 0.225234 0.0609711 0 0.249862 0.0694759 0 0.27449 0.0779807 0 0.299117 0.0864855 0 0.323745 0.0949904 0 0.348372 0.103495 0 0.373 0.112 0 
</DataArray>
</Points> 
</Piece> 
</StructuredGrid> 
</VTKFile> 
