<?xml version="1.0"?> 
<VTKFile type="StructuredGrid" version="0.1"> 
<StructuredGrid WholeExtent="0 7 0 7 0 0"> 
<Piece Extent="0 7 0 7 0 0"> 
<PointData>
<DataArray type="Float32" Name="|E|" format="ascii" NumberOfComponents="3"> 
276963 4.20072e+06 0 274750 4.16717e+06 0 273652 4.1505e+06 0 273743 4.15189e+06 0 275316 4.17575e+06 0 278993 4.23151e+06 0 286108 4.33943e+06 0 300041 4.55074e+06 0 215968 4.19095e+06 0 236495 4.15582e+06 0 257696 4.13503e+06 0 283122 4.12888e+06 0 317467 4.13962e+06 0 368419 4.17162e+06 0 450715 4.23146e+06 0 595673 4.32503e+06 0 156924 4.15045e+06 0 193924 4.11712e+06 0 230616 4.09192e+06 0 272006 4.07446e+06 0 323839 4.06439e+06 0 393668 4.06067e+06 0 491867 4.05957e+06 0 631142 4.05041e+06 0 106835 4.09172e+06 0 150449 4.06238e+06 0 192992 4.03417e+06 0 239019 4.00655e+06 0 293154 3.97812e+06 0 360226 3.94613e+06 0 444958 3.90553e+06 0 550701 3.84786e+06 0 68155.6 4.02985e+06 0 108844 4.00494e+06 0 148245 3.97536e+06 0 189644 3.94081e+06 0 236085 3.90003e+06 0 290196 3.85063e+06 0 353774 3.78902e+06 0 427025 3.71054e+06 0 39581.3 3.97749e+06 0 70248.5 3.95618e+06 0 99862.3 3.92631e+06 0 130403 3.88788e+06 0 163602 3.84008e+06 0 200757 3.78136e+06 0 242489 3.70962e+06 0 288462 3.62244e+06 0 18035.6 3.94307e+06 0 34357 3.92399e+06 0 50105 3.89424e+06 0 66182.1 3.85401e+06 0 83354.1 3.80284e+06 0 102148 3.73979e+06 0 122746 3.66363e+06 0 144904 3.57314e+06 0 0 3.93112e+06 0 0 3.91279e+06 0 0 3.88313e+06 0 0 3.84238e+06 0 0 3.79024e+06 0 0 3.72596e+06 0 0 3.64859e+06 0 0 3.55724e+06 0 </DataArray> 
</PointData> 
<Points> 
<DataArray type="Float32" NumberOfComponents="3"> 
0.1465 0.0627913 0 0.1515 0.0624616 0 0.1565 0.0621319 0 0.1615 0.0618023 0 0.1665 0.0614726 0 0.1715 0.061143 0 0.1765 0.0608133 0 0.1815 0.0604836 0 0.1465 0.0698211 0 0.1515 0.0695385 0 0.1565 0.069256 0 0.1615 0.0689734 0 0.1665 0.0686908 0 0.1715 0.0684083 0 0.1765 0.0681257 0 0.1815 0.0678431 0 0.1465 0.0768509 0 0.1515 0.0766154 0 0.1565 0.07638 0 0.1615 0.0761445 0 0.1665 0.075909 0 0.1715 0.0756735 0 0.1765 0.0754381 0 0.1815 0.0752026 0 0.1465 0.0838807 0 0.1515 0.0836923 0 0.1565 0.083504 0 0.1615 0.0833156 0 0.1665 0.0831272 0 0.1715 0.0829388 0 0.1765 0.0827505 0 0.1815 0.0825621 0 0.1465 0.0909105 0 0.1515 0.0907693 0 0.1565 0.090628 0 0.1615 0.0904867 0 0.1665 0.0903454 0 0.1715 0.0902041 0 0.1765 0.0900628 0 0.1815 0.0899216 0 0.1465 0.0979404 0 0.1515 0.0978462 0 0.1565 0.097752 0 0.1615 0.0976578 0 0.1665 0.0975636 0 0.1715 0.0974694 0 0.1765 0.0973752 0 0.1815 0.097281 0 0.1465 0.10497 0 0.1515 0.104923 0 0.1565 0.104876 0 0.1615 0.104829 0 0.1665 0.104782 0 0.1715 0.104735 0 0.1765 0.104688 0 0.1815 0.104641 0 0.1465 0.112 0 0.1515 0.112 0 0.1565 0.112 0 0.1615 0.112 0 0.1665 0.112 0 0.1715 0.112 0 0.1765 0.112 0 0.1815 0.112 0 
</DataArray>
</Points> 
</Piece> 
</StructuredGrid> 
</VTKFile> 
