<?xml version="1.0"?> 
<VTKFile type="StructuredGrid" version="0.1"> 
<StructuredGrid WholeExtent="0 7 0 7 0 0"> 
<Piece Extent="0 7 0 7 0 0"> 
<PointData>
<DataArray type="Float32" Name="|E|" format="ascii" NumberOfComponents="3"> 
-2.02738e+06 0 0 -2.02854e+06 23303.4 0 -2.03203e+06 46676.7 0 -2.03776e+06 71427.5 0 -2.04562e+06 94543.7 0 -2.05649e+06 107976 0 -2.07071e+06 120621 0 -2.08653e+06 158391 0 -2.00612e+06 0 0 -2.00957e+06 44304.3 0 -2.01998e+06 88863.9 0 -2.03782e+06 134707 0 -2.06168e+06 183383 0 -2.09103e+06 230286 0 -2.13033e+06 271917 0 -2.18226e+06 320673 0 -1.98316e+06 0 0 -1.98999e+06 68300.9 0 -2.01087e+06 137839 0 -2.04435e+06 210428 0 -2.09269e+06 284475 0 -2.16109e+06 361378 0 -2.24149e+06 452108 0 -2.32587e+06 567597 0 -1.95875e+06 0 0 -1.96989e+06 95304 0 -2.00313e+06 192885 0 -2.0593e+06 296000 0 -2.14506e+06 407868 0 -2.24579e+06 541082 0 -2.36528e+06 709389 0 -2.5483e+06 931352 0 -1.93258e+06 0 0 -1.94906e+06 124702 0 -1.99664e+06 253919 0 -2.08437e+06 395961 0 -2.19944e+06 562084 0 -2.34124e+06 763540 0 -2.55842e+06 1.03556e+06 0 -2.70771e+06 1.49111e+06 0 -1.90374e+06 0 0 -1.92678e+06 155848 0 -1.99313e+06 322240 0 -2.11163e+06 513839 0 -2.25334e+06 736734 0 -2.4699e+06 1.0344e+06 0 -2.55906e+06 1.53344e+06 0 -2.03569e+06 1.94233e+06 0 -1.87279e+06 0 0 -1.90285e+06 190241 0 -1.99305e+06 398717 0 -2.13234e+06 644801 0 -2.32056e+06 927855 0 -2.47394e+06 1.41904e+06 0 -2.05925e+06 1.90852e+06 0 -1.3628e+06 1.01019e+06 0 -1.84246e+06 0 0 -1.87869e+06 229757 0 -1.99137e+06 482121 0 -2.1509e+06 778633 0 -2.36087e+06 1.16806e+06 0 -2.2159e+06 1.83066e+06 0 -1.66201e+06 1.5366e+06 0 -1.72576e+06 461309 0 </DataArray> 
</PointData> 
<Points> 
<DataArray type="Float32" NumberOfComponents="3"> 
0 0.021 0 0.00228571 0.021 0 0.00457143 0.021 0 0.00685714 0.021 0 0.00914286 0.021 0 0.0114286 0.021 0 0.0137143 0.021 0 0.016 0.021 0 0 0.023 0 0.004 0.023 0 0.008 0.023 0 0.012 0.023 0 0.016 0.023 0 0.02 0.023 0 0.024 0.023 0 0.028 0.023 0 0 0.025 0 0.00571429 0.025 0 0.0114286 0.025 0 0.0171429 0.025 0 0.0228571 0.025 0 0.0285714 0.025 0 0.0342857 0.025 0 0.04 0.025 0 0 0.027 0 0.00742857 0.027 0 0.0148571 0.027 0 0.0222857 0.027 0 0.0297143 0.027 0 0.0371429 0.027 0 0.0445714 0.027 0 0.052 0.027 0 0 0.029 0 0.00914286 0.029 0 0.0182857 0.029 0 0.0274286 0.029 0 0.0365714 0.029 0 0.0457143 0.029 0 0.0548571 0.029 0 0.064 0.029 0 0 0.031 0 0.0108571 0.031 0 0.0217143 0.031 0 0.0325714 0.031 0 0.0434286 0.031 0 0.0542857 0.031 0 0.0651429 0.031 0 0.076 0.031 0 0 0.033 0 0.0125714 0.033 0 0.0251429 0.033 0 0.0377143 0.033 0 0.0502857 0.033 0 0.0628571 0.033 0 0.0754286 0.033 0 0.088 0.033 0 0 0.035 0 0.0142857 0.035 0 0.0285714 0.035 0 0.0428571 0.035 0 0.0571429 0.035 0 0.0714286 0.035 0 0.0857143 0.035 0 0.1 0.035 0 
</DataArray>
</Points> 
</Piece> 
</StructuredGrid> 
</VTKFile> 
