<?xml version="1.0"?> 
<VTKFile type="StructuredGrid" version="0.1"> 
<StructuredGrid WholeExtent="0 7 0 7 0 0"> 
<Piece Extent="0 7 0 7 0 0"> 
<PointData>
<DataArray type="Float32" Name="|E|" format="ascii" NumberOfComponents="3"> 
1.64921e+06 -657831 0 1.9122e+06 72101.2 0 1.52719e+06 288151 0 1.14316e+06 256550 0 857392 184282 0 671231 114828 0 565680 54631.5 0 531866 0 0 1.76423e+06 -703711 0 1.9543e+06 120284 0 1.51776e+06 330736 0 1.12844e+06 289232 0 845523 205894 0 662839 128340 0 559272 61070.7 0 526107 0 0 1.89325e+06 -755174 0 1.99655e+06 179720 0 1.50642e+06 374202 0 1.1123e+06 321989 0 832860 226978 0 653612 141570 0 552198 67394.3 0 519713 0 0 2.04624e+06 -816198 0 2.03698e+06 250711 0 1.4929e+06 418409 0 1.09458e+06 354738 0 819471 247510 0 643517 154502 0 544479 73607.2 0 512722 0 0 2.23753e+06 -892500 0 2.07291e+06 332575 0 1.47698e+06 463667 0 1.07516e+06 387172 0 805422 267529 0 632526 167110 0 536137 79700.4 0 505178 0 0 2.48867e+06 -992673 0 2.10067e+06 422695 0 1.45845e+06 511287 0 1.05401e+06 418504 0 790707 287223 0 620649 179363 0 527182 85618.7 0 497109 0 0 2.83286e+06 -1.12996e+06 0 2.11522e+06 514932 0 1.43693e+06 564559 0 1.03148e+06 447020 0 775107 307075 0 608014 191230 0 517583 91191.5 0 488451 0 0 3.32211e+06 -1.32511e+06 0 2.10972e+06 597097 0 1.41149e+06 630404 0 1.00866e+06 469290 0 757882 328119 0 595044 202696 0 507203 95991 0 478871 0 0 </DataArray> 
</PointData> 
<Points> 
<DataArray type="Float32" NumberOfComponents="3"> 
0.1947 0.02 0 0.220171 0.02 0 0.245643 0.02 0 0.271114 0.02 0 0.296586 0.02 0 0.322057 0.02 0 0.347529 0.02 0 0.373 0.02 0 0.195714 0.0225429 0 0.221041 0.0225429 0 0.246367 0.0225429 0 0.271694 0.0225429 0 0.29702 0.0225429 0 0.322347 0.0225429 0 0.347673 0.0225429 0 0.373 0.0225429 0 0.196729 0.0250857 0 0.22191 0.0250857 0 0.247092 0.0250857 0 0.272273 0.0250857 0 0.297455 0.0250857 0 0.322637 0.0250857 0 0.347818 0.0250857 0 0.373 0.0250857 0 0.197743 0.0276286 0 0.22278 0.0276286 0 0.247816 0.0276286 0 0.272853 0.0276286 0 0.29789 0.0276286 0 0.322927 0.0276286 0 0.347963 0.0276286 0 0.373 0.0276286 0 0.198757 0.0301714 0 0.223649 0.0301714 0 0.248541 0.0301714 0 0.273433 0.0301714 0 0.298324 0.0301714 0 0.323216 0.0301714 0 0.348108 0.0301714 0 0.373 0.0301714 0 0.199771 0.0327143 0 0.224518 0.0327143 0 0.249265 0.0327143 0 0.274012 0.0327143 0 0.298759 0.0327143 0 0.323506 0.0327143 0 0.348253 0.0327143 0 0.373 0.0327143 0 0.200786 0.0352571 0 0.225388 0.0352571 0 0.24999 0.0352571 0 0.274592 0.0352571 0 0.299194 0.0352571 0 0.323796 0.0352571 0 0.348398 0.0352571 0 0.373 0.0352571 0 0.2018 0.0378 0 0.226257 0.0378 0 0.250714 0.0378 0 0.275171 0.0378 0 0.299629 0.0378 0 0.324086 0.0378 0 0.348543 0.0378 0 0.373 0.0378 0 
</DataArray>
</Points> 
</Piece> 
</StructuredGrid> 
</VTKFile> 
