<?xml version="1.0"?> 
<VTKFile type="StructuredGrid" version="0.1"> 
<StructuredGrid WholeExtent="0 7 0 7 0 0"> 
<Piece Extent="0 7 0 7 0 0"> 
<PointData>
<DataArray type="Float32" Name="|E|" format="ascii" NumberOfComponents="3"> 
-1.84246e+06 0 0 -1.87869e+06 229928 0 -1.99137e+06 479529 0 -2.1509e+06 780107 0 -2.36087e+06 1.20822e+06 0 -2.2159e+06 1.76427e+06 0 -1.66201e+06 1.42333e+06 0 -1.72576e+06 4.17233e-07 0 -1.82039e+06 0 0 -1.85523e+06 236591 0 -1.96274e+06 493582 0 -2.1184e+06 799581 0 -2.30736e+06 1.22181e+06 0 -2.18548e+06 1.71617e+06 0 -1.75699e+06 1.39768e+06 0 -1.90202e+06 -1.32713e-08 0 -1.79733e+06 0 0 -1.83097e+06 243210 0 -1.9338e+06 507030 0 -2.0851e+06 818161 0 -2.25689e+06 1.23314e+06 0 -2.16e+06 1.67788e+06 0 -1.84353e+06 1.38216e+06 0 -2.09678e+06 0 0 -1.77339e+06 0 0 -1.80594e+06 249707 0 -1.90453e+06 519928 0 -2.05114e+06 835943 0 -2.20924e+06 1.24267e+06 0 -2.13816e+06 1.64899e+06 0 -1.92162e+06 1.37541e+06 0 -2.31668e+06 -6.89179e-08 0 -1.74865e+06 0 0 -1.78016e+06 256005 0 -1.87496e+06 532316 0 -2.01656e+06 853096 0 -2.16426e+06 1.25056e+06 0 -2.11884e+06 1.62955e+06 0 -1.99058e+06 1.37539e+06 0 -2.57233e+06 1.08033e-07 0 -1.72309e+06 0 0 -1.75364e+06 262000 0 -1.84519e+06 544234 0 -1.98125e+06 869883 0 -2.12193e+06 1.25657e+06 0 -2.10096e+06 1.62034e+06 0 -2.04898e+06 1.37889e+06 0 -2.87991e+06 -1.11759e-07 0 -1.69654e+06 0 0 -1.72633e+06 267527 0 -1.81543e+06 555732 0 -1.94491e+06 886698 0 -2.08253e+06 1.25994e+06 0 -2.08337e+06 1.62327e+06 0 -2.09436e+06 1.38075e+06 0 -3.26379e+06 1.49012e-07 0 -1.66867e+06 0 0 -1.69813e+06 272297 0 -1.78606e+06 566887 0 -1.9069e+06 904132 0 -2.04677e+06 1.25915e+06 0 -2.06471e+06 1.64192e+06 0 -2.12298e+06 1.37273e+06 0 -3.76057e+06 -8.9407e-07 0 </DataArray> 
</PointData> 
<Points> 
<DataArray type="Float32" NumberOfComponents="3"> 
0 0.035 0 0.0142857 0.035 0 0.0285714 0.035 0 0.0428571 0.035 0 0.0571429 0.035 0 0.0714286 0.035 0 0.0857143 0.035 0 0.1 0.035 0 0 0.0364286 0 0.0142857 0.0364286 0 0.0285714 0.0364286 0 0.0428571 0.0364286 0 0.0571429 0.0364286 0 0.0714286 0.0364286 0 0.0857143 0.0364286 0 0.1 0.0364286 0 0 0.0378571 0 0.0142857 0.0378571 0 0.0285714 0.0378571 0 0.0428571 0.0378571 0 0.0571429 0.0378571 0 0.0714286 0.0378571 0 0.0857143 0.0378571 0 0.1 0.0378571 0 0 0.0392857 0 0.0142857 0.0392857 0 0.0285714 0.0392857 0 0.0428571 0.0392857 0 0.0571429 0.0392857 0 0.0714286 0.0392857 0 0.0857143 0.0392857 0 0.1 0.0392857 0 0 0.0407143 0 0.0142857 0.0407143 0 0.0285714 0.0407143 0 0.0428571 0.0407143 0 0.0571429 0.0407143 0 0.0714286 0.0407143 0 0.0857143 0.0407143 0 0.1 0.0407143 0 0 0.0421429 0 0.0142857 0.0421429 0 0.0285714 0.0421429 0 0.0428571 0.0421429 0 0.0571429 0.0421429 0 0.0714286 0.0421429 0 0.0857143 0.0421429 0 0.1 0.0421429 0 0 0.0435714 0 0.0142857 0.0435714 0 0.0285714 0.0435714 0 0.0428571 0.0435714 0 0.0571429 0.0435714 0 0.0714286 0.0435714 0 0.0857143 0.0435714 0 0.1 0.0435714 0 0 0.045 0 0.0142857 0.045 0 0.0285714 0.045 0 0.0428571 0.045 0 0.0571429 0.045 0 0.0714286 0.045 0 0.0857143 0.045 0 0.1 0.045 0 
</DataArray>
</Points> 
</Piece> 
</StructuredGrid> 
</VTKFile> 
