<?xml version="1.0"?> 
<VTKFile type="StructuredGrid" version="0.1"> 
<StructuredGrid WholeExtent="0 127 0 127 0 0"> 
<Piece Extent="0 127 0 127 0 0"> 
<PointData>
<DataArray type="Float32" Name="E" format="ascii" NumberOfComponents="3"> 
-480763 0 0 -478813 0 0 -476870 0 0 -474934 0 0 -473004 0 0 -471082 0 0 -469166 0 0 -467257 0 0 -465355 0 0 -463460 0 0 -461572 0 0 -459691 0 0 -457817 0 0 -455951 0 0 -454091 0 0 -452238 0 0 -450393 0 0 -448555 0 0 -446723 0 0 -444899 0 0 -443082 0 0 -441272 0 0 -439468 0 0 -437672 0 0 -435882 0 0 -434099 0 0 -432323 0 0 -430553 0 0 -428790 0 0 -427033 0 0 -425283 0 0 -423539 0 0 -421802 0 0 -420071 0 0 -418346 0 0 -416627 0 0 -414914 0 0 -413207 0 0 -411505 0 0 -409810 0 0 -408120 0 0 -406436 0 0 -404758 0 0 -403085 0 0 -401417 0 0 -399755 0 0 -398098 0 0 -396446 0 0 -394800 0 0 -393158 0 0 -391521 0 0 -389890 0 0 -388263 0 0 -386641 0 0 -385023 0 0 -383410 0 0 -381802 0 0 -380199 0 0 -378599 0 0 -377004 0 0 -375414 0 0 -373828 0 0 -372246 0 0 -370668 0 0 -369094 0 0 -367524 0 0 -365959 0 0 -364397 0 0 -362839 0 0 -361285 0 0 -359735 0 0 -358188 0 0 -356646 0 0 -355107 0 0 -353571 0 0 -352040 0 0 -350511 0 0 -348987 0 0 -347465 0 0 -345948 0 0 -344433 0 0 -342922 0 0 -341414 0 0 -339910 0 0 -338409 0 0 -336911 0 0 -335416 0 0 -333925 0 0 -332436 0 0 -330951 0 0 -329469 0 0 -327990 0 0 -326513 0 0 -325040 0 0 -323570 0 0 -322103 0 0 -320638 0 0 -319177 0 0 -317719 0 0 -316263 0 0 -314810 0 0 -313360 0 0 -311913 0 0 -310468 0 0 -309026 0 0 -307587 0 0 -306151 0 0 -304717 0 0 -303286 0 0 -301858 0 0 -300432 0 0 -299009 0 0 -297588 0 0 -296170 0 0 -294755 0 0 -293342 0 0 -291932 0 0 -290524 0 0 -289119 0 0 -287716 0 0 -286315 0 0 -284918 0 0 -283522 0 0 -282129 0 0 -280738 0 0 -279350 0 0 -277964 0 0 -276581 0 0 -480763 1061.33 0 -478813 1057.78 0 -476870 1054.18 0 -474934 1050.54 0 -473004 1046.85 0 -471081 1043.13 0 -469165 1039.38 0 -467256 1035.6 0 -465354 1031.79 0 -463460 1027.97 0 -461572 1024.13 0 -459691 1020.28 0 -457817 1016.43 0 -455950 1012.57 0 -454091 1008.71 0 -452238 1004.86 0 -450393 1001.01 0 -448554 997.175 0 -446723 993.353 0 -444899 989.548 0 -443082 985.761 0 -441271 981.997 0 -439468 978.256 0 -437671 974.541 0 -435882 970.854 0 -434099 967.198 0 -432322 963.573 0 -430553 959.981 0 -428789 956.424 0 -427033 952.902 0 -425283 949.418 0 -423539 945.971 0 -421802 942.563 0 -420070 939.195 0 -418345 935.866 0 -416626 932.578 0 -414913 929.33 0 -413206 926.124 0 -411505 922.959 0 -409810 919.835 0 -408120 916.752 0 -406436 913.71 0 -404758 910.71 0 -403085 907.75 0 -401417 904.831 0 -399755 901.952 0 -398098 899.113 0 -396446 896.313 0 -394800 893.552 0 -393158 890.83 0 -391521 888.146 0 -389890 885.498 0 -388263 882.888 0 -386641 880.314 0 -385023 877.775 0 -383410 875.271 0 -381802 872.802 0 -380198 870.366 0 -378599 867.963 0 -377004 865.592 0 -375414 863.253 0 -373828 860.945 0 -372246 858.667 0 -370668 856.419 0 -369094 854.2 0 -367524 852.009 0 -365959 849.846 0 -364397 847.709 0 -362839 845.599 0 -361285 843.515 0 -359735 841.457 0 -358188 839.422 0 -356646 837.412 0 -355107 835.425 0 -353571 833.461 0 -352040 831.519 0 -350511 829.599 0 -348987 827.701 0 -347465 825.822 0 -345948 823.964 0 -344433 822.126 0 -342922 820.307 0 -341414 818.507 0 -339910 816.725 0 -338409 814.961 0 -336911 813.214 0 -335416 811.484 0 -333925 809.771 0 -332436 808.074 0 -330951 806.392 0 -329469 804.727 0 -327990 803.076 0 -326513 801.439 0 -325040 799.818 0 -323570 798.21 0 -322103 796.615 0 -320639 795.035 0 -319177 793.467 0 -317719 791.912 0 -316263 790.369 0 -314810 788.838 0 -313360 787.32 0 -311913 785.813 0 -310468 784.317 0 -309026 782.833 0 -307587 781.359 0 -306151 779.896 0 -304717 778.444 0 -303286 777.001 0 -301858 775.569 0 -300432 774.147 0 -299009 772.734 0 -297589 771.33 0 -296171 769.935 0 -294755 768.55 0 -293342 767.173 0 -291932 765.805 0 -290524 764.446 0 -289119 763.094 0 -287716 761.751 0 -286316 760.416 0 -284918 759.089 0 -283522 757.769 0 -282129 756.457 0 -280738 755.153 0 -279350 753.855 0 -277964 752.565 0 -276581 751.282 0 -480762 2122.68 0 -478813 2115.58 0 -476870 2108.38 0 -474933 2101.09 0 -473004 2093.72 0 -471081 2086.27 0 -469165 2078.77 0 -467256 2071.2 0 -465354 2063.59 0 -463459 2055.95 0 -461571 2048.27 0 -459690 2040.57 0 -457816 2032.86 0 -455949 2025.14 0 -454090 2017.43 0 -452237 2009.72 0 -450392 2002.02 0 -448554 1994.35 0 -446722 1986.71 0 -444898 1979.1 0 -443081 1971.52 0 -441270 1963.99 0 -439467 1956.51 0 -437670 1949.08 0 -435881 1941.71 0 -434098 1934.39 0 -432321 1927.14 0 -430552 1919.96 0 -428789 1912.84 0 -427032 1905.8 0 -425282 1898.83 0 -423538 1891.94 0 -421801 1885.12 0 -420070 1878.38 0 -418345 1871.72 0 -416626 1865.15 0 -414913 1858.65 0 -413206 1852.24 0 -411505 1845.91 0 -409809 1839.66 0 -408120 1833.5 0 -406436 1827.41 0 -404757 1821.41 0 -403084 1815.49 0 -401417 1809.65 0 -399755 1803.9 0 -398098 1798.22 0 -396446 1792.62 0 -394799 1787.1 0 -393158 1781.65 0 -391521 1776.28 0 -389889 1770.99 0 -388262 1765.77 0 -386640 1760.62 0 -385023 1755.54 0 -383410 1750.54 0 -381802 1745.6 0 -380198 1740.73 0 -378599 1735.92 0 -377004 1731.18 0 -375414 1726.5 0 -373827 1721.88 0 -372245 1717.33 0 -370668 1712.83 0 -369094 1708.39 0 -367524 1704.01 0 -365958 1699.69 0 -364397 1695.41 0 -362839 1691.19 0 -361285 1687.03 0 -359735 1682.91 0 -358188 1678.84 0 -356646 1674.82 0 -355107 1670.85 0 -353571 1666.92 0 -352040 1663.04 0 -350511 1659.2 0 -348987 1655.4 0 -347465 1651.64 0 -345948 1647.93 0 -344433 1644.25 0 -342922 1640.61 0 -341415 1637.01 0 -339910 1633.45 0 -338409 1629.92 0 -336911 1626.43 0 -335416 1622.97 0 -333925 1619.54 0 -332436 1616.15 0 -330951 1612.78 0 -329469 1609.45 0 -327990 1606.15 0 -326514 1602.88 0 -325040 1599.63 0 -323570 1596.42 0 -322103 1593.23 0 -320639 1590.07 0 -319177 1586.93 0 -317719 1583.82 0 -316263 1580.74 0 -314810 1577.68 0 -313360 1574.64 0 -311913 1571.62 0 -310468 1568.63 0 -309027 1565.66 0 -307588 1562.72 0 -306151 1559.79 0 -304718 1556.89 0 -303287 1554 0 -301858 1551.14 0 -300432 1548.29 0 -299009 1545.47 0 -297589 1542.66 0 -296171 1539.87 0 -294755 1537.1 0 -293343 1534.35 0 -291932 1531.61 0 -290524 1528.89 0 -289119 1526.19 0 -287716 1523.5 0 -286316 1520.83 0 -284918 1518.18 0 -283522 1515.54 0 -282129 1512.91 0 -280739 1510.31 0 -279350 1507.71 0 -277964 1505.13 0 -276581 1502.56 0 -480762 3184.07 0 -478812 3173.42 0 -476869 3162.62 0 -474932 3151.68 0 -473003 3140.62 0 -471080 3129.45 0 -469164 3118.18 0 -467255 3106.84 0 -465353 3095.42 0 -463458 3083.94 0 -461570 3072.43 0 -459689 3060.88 0 -457815 3049.31 0 -455948 3037.73 0 -454088 3026.15 0 -452236 3014.58 0 -450391 3003.04 0 -448552 2991.53 0 -446721 2980.06 0 -444897 2968.64 0 -443079 2957.28 0 -441269 2945.98 0 -439466 2934.76 0 -437669 2923.61 0 -435879 2912.55 0 -434096 2901.58 0 -432320 2890.7 0 -430550 2879.92 0 -428787 2869.25 0 -427031 2858.68 0 -425281 2848.23 0 -423537 2837.89 0 -421800 2827.66 0 -420069 2817.56 0 -418344 2807.57 0 -416625 2797.7 0 -414912 2787.96 0 -413205 2778.34 0 -411504 2768.84 0 -409808 2759.47 0 -408119 2750.22 0 -406435 2741.1 0 -404756 2732.1 0 -403084 2723.22 0 -401416 2714.46 0 -399754 2705.83 0 -398097 2697.31 0 -396445 2688.91 0 -394799 2680.63 0 -393157 2672.46 0 -391521 2664.41 0 -389889 2656.47 0 -388262 2648.64 0 -386640 2640.91 0 -385023 2633.3 0 -383410 2625.79 0 -381802 2618.38 0 -380198 2611.07 0 -378599 2603.86 0 -377004 2596.75 0 -375413 2589.74 0 -373827 2582.81 0 -372245 2575.98 0 -370667 2569.24 0 -369094 2562.58 0 -367524 2556.01 0 -365958 2549.52 0 -364397 2543.11 0 -362839 2536.78 0 -361285 2530.53 0 -359735 2524.35 0 -358188 2518.25 0 -356646 2512.22 0 -355107 2506.26 0 -353571 2500.37 0 -352040 2494.54 0 -350511 2488.78 0 -348987 2483.09 0 -347466 2477.45 0 -345948 2471.88 0 -344433 2466.37 0 -342922 2460.91 0 -341415 2455.51 0 -339910 2450.16 0 -338409 2444.87 0 -336911 2439.63 0 -335417 2434.44 0 -333925 2429.3 0 -332437 2424.21 0 -330951 2419.17 0 -329469 2414.17 0 -327990 2409.22 0 -326514 2404.31 0 -325041 2399.45 0 -323571 2394.62 0 -322103 2389.84 0 -320639 2385.1 0 -319178 2380.39 0 -317719 2375.73 0 -316263 2371.1 0 -314811 2366.51 0 -313361 2361.95 0 -311913 2357.43 0 -310469 2352.95 0 -309027 2348.49 0 -307588 2344.07 0 -306152 2339.69 0 -304718 2335.33 0 -303287 2331 0 -301859 2326.7 0 -300433 2322.44 0 -299010 2318.2 0 -297589 2313.99 0 -296171 2309.8 0 -294756 2305.65 0 -293343 2301.52 0 -291933 2297.41 0 -290525 2293.33 0 -289119 2289.28 0 -287717 2285.25 0 -286316 2281.25 0 -284918 2277.27 0 -283523 2273.31 0 -282130 2269.37 0 -280739 2265.46 0 -279351 2261.56 0 -277965 2257.69 0 -276581 2253.84 0 -480761 4245.53 0 -478811 4231.32 0 -476868 4216.91 0 -474931 4202.32 0 -473001 4187.57 0 -471078 4172.67 0 -469162 4157.64 0 -467253 4142.51 0 -465351 4127.28 0 -463456 4111.97 0 -461568 4096.61 0 -459687 4081.2 0 -457813 4065.77 0 -455946 4050.33 0 -454086 4034.89 0 -452234 4019.46 0 -450389 4004.07 0 -448550 3988.72 0 -446719 3973.42 0 -444895 3958.19 0 -443077 3943.03 0 -441267 3927.97 0 -439464 3913 0 -437667 3898.13 0 -435877 3883.38 0 -434094 3868.75 0 -432318 3854.24 0 -430549 3839.87 0 -428786 3825.64 0 -427029 3811.55 0 -425279 3797.61 0 -423535 3783.82 0 -421798 3770.18 0 -420067 3756.71 0 -418342 3743.39 0 -416623 3730.24 0 -414910 3717.24 0 -413203 3704.42 0 -411502 3691.76 0 -409807 3679.26 0 -408118 3666.93 0 -406434 3654.76 0 -404755 3642.76 0 -403082 3630.92 0 -401415 3619.25 0 -399753 3607.73 0 -398096 3596.37 0 -396444 3585.18 0 -394798 3574.13 0 -393156 3563.25 0 -391520 3552.51 0 -389888 3541.92 0 -388261 3531.48 0 -386639 3521.19 0 -385022 3511.03 0 -383409 3501.02 0 -381801 3491.14 0 -380197 3481.4 0 -378598 3471.79 0 -377004 3462.31 0 -375413 3452.95 0 -373827 3443.72 0 -372245 3434.61 0 -370667 3425.62 0 -369093 3416.75 0 -367524 3407.98 0 -365958 3399.33 0 -364397 3390.79 0 -362839 3382.35 0 -361285 3374.02 0 -359735 3365.78 0 -358188 3357.65 0 -356646 3349.61 0 -355107 3341.66 0 -353572 3333.81 0 -352040 3326.04 0 -350512 3318.36 0 -348987 3310.77 0 -347466 3303.26 0 -345948 3295.83 0 -344434 3288.47 0 -342923 3281.2 0 -341415 3274 0 -339911 3266.87 0 -338410 3259.82 0 -336912 3252.83 0 -335417 3245.91 0 -333925 3239.06 0 -332437 3232.27 0 -330952 3225.55 0 -329470 3218.89 0 -327990 3212.28 0 -326514 3205.74 0 -325041 3199.25 0 -323571 3192.82 0 -322104 3186.45 0 -320640 3180.12 0 -319178 3173.85 0 -317720 3167.63 0 -316264 3161.46 0 -314811 3155.34 0 -313361 3149.27 0 -311914 3143.24 0 -310469 3137.26 0 -309028 3131.32 0 -307588 3125.43 0 -306152 3119.58 0 -304718 3113.77 0 -303287 3108 0 -301859 3102.27 0 -300433 3096.58 0 -299010 3090.93 0 -297590 3085.31 0 -296172 3079.73 0 -294756 3074.19 0 -293344 3068.69 0 -291933 3063.22 0 -290525 3057.78 0 -289120 3052.37 0 -287717 3047 0 -286317 3041.66 0 -284919 3036.35 0 -283523 3031.07 0 -282130 3025.83 0 -280740 3020.61 0 -279351 3015.42 0 -277965 3010.26 0 -276582 3005.13 0 -480760 5307.07 0 -478810 5289.31 0 -476866 5271.29 0 -474930 5253.04 0 -473000 5234.59 0 -471077 5215.95 0 -469160 5197.16 0 -467251 5178.23 0 -465349 5159.18 0 -463454 5140.04 0 -461565 5120.83 0 -459684 5101.56 0 -457810 5082.26 0 -455944 5062.95 0 -454084 5043.64 0 -452231 5024.35 0 -450386 5005.1 0 -448548 4985.9 0 -446716 4966.78 0 -444892 4947.73 0 -443075 4928.79 0 -441264 4909.95 0 -439461 4891.23 0 -437665 4872.64 0 -435875 4854.2 0 -434092 4835.9 0 -432316 4817.77 0 -430546 4799.8 0 -428783 4782 0 -427027 4764.39 0 -425277 4746.96 0 -423533 4729.72 0 -421796 4712.68 0 -420065 4695.83 0 -418340 4679.18 0 -416621 4662.74 0 -414908 4646.5 0 -413202 4630.46 0 -411501 4614.64 0 -409805 4599.01 0 -408116 4583.6 0 -406432 4568.39 0 -404754 4553.39 0 -403081 4538.59 0 -401414 4524 0 -399752 4509.6 0 -398095 4495.41 0 -396443 4481.41 0 -394797 4467.61 0 -393155 4454 0 -391519 4440.58 0 -389887 4427.35 0 -388260 4414.3 0 -386638 4401.43 0 -385021 4388.74 0 -383409 4376.22 0 -381800 4363.88 0 -380197 4351.7 0 -378598 4339.69 0 -377003 4327.84 0 -375413 4316.15 0 -373827 4304.61 0 -372245 4293.22 0 -370667 4281.99 0 -369093 4270.89 0 -367524 4259.94 0 -365958 4249.13 0 -364396 4238.45 0 -362839 4227.9 0 -361285 4217.49 0 -359735 4207.2 0 -358188 4197.03 0 -356646 4186.98 0 -355107 4177.05 0 -353572 4167.23 0 -352040 4157.52 0 -350512 4147.93 0 -348987 4138.43 0 -347466 4129.05 0 -345948 4119.76 0 -344434 4110.57 0 -342923 4101.48 0 -341415 4092.48 0 -339911 4083.57 0 -338410 4074.75 0 -336912 4066.02 0 -335417 4057.37 0 -333926 4048.81 0 -332438 4040.32 0 -330952 4031.92 0 -329470 4023.59 0 -327991 4015.34 0 -326515 4007.16 0 -325042 3999.05 0 -323572 3991.01 0 -322104 3983.04 0 -320640 3975.14 0 -319179 3967.3 0 -317720 3959.53 0 -316265 3951.82 0 -314812 3944.17 0 -313362 3936.57 0 -311914 3929.04 0 -310470 3921.56 0 -309028 3914.14 0 -307589 3906.78 0 -306153 3899.46 0 -304719 3892.2 0 -303288 3884.99 0 -301860 3877.83 0 -300434 3870.72 0 -299011 3863.65 0 -297590 3856.64 0 -296173 3849.66 0 -294757 3842.74 0 -293344 3835.85 0 -291934 3829.02 0 -290526 3822.22 0 -289121 3815.46 0 -287718 3808.75 0 -286318 3802.07 0 -284920 3795.44 0 -283524 3788.84 0 -282131 3782.28 0 -280740 3775.76 0 -279352 3769.27 0 -277966 3762.82 0 -276583 3756.41 0 -480759 6368.73 0 -478808 6347.39 0 -476865 6325.75 0 -474928 6303.84 0 -472998 6281.68 0 -471074 6259.31 0 -469158 6236.74 0 -467249 6214.01 0 -465346 6191.14 0 -463451 6168.16 0 -461563 6145.09 0 -459681 6121.96 0 -457807 6098.79 0 -455941 6075.6 0 -454081 6052.42 0 -452228 6029.26 0 -450383 6006.15 0 -448544 5983.1 0 -446713 5960.14 0 -444889 5937.28 0 -443072 5914.53 0 -441261 5891.91 0 -439458 5869.45 0 -437661 5847.13 0 -435872 5824.99 0 -434089 5803.03 0 -432313 5781.27 0 -430543 5759.7 0 -428780 5738.34 0 -427024 5717.2 0 -425274 5696.28 0 -423531 5675.59 0 -421793 5655.14 0 -420062 5634.92 0 -418338 5614.94 0 -416619 5595.2 0 -414906 5575.71 0 -413199 5556.47 0 -411498 5537.48 0 -409803 5518.73 0 -408114 5500.23 0 -406430 5481.98 0 -404752 5463.98 0 -403079 5446.22 0 -401412 5428.71 0 -399750 5411.44 0 -398093 5394.41 0 -396442 5377.61 0 -394795 5361.05 0 -393154 5344.72 0 -391518 5328.62 0 -389886 5312.74 0 -388259 5297.08 0 -386637 5281.64 0 -385020 5266.41 0 -383408 5251.4 0 -381800 5236.58 0 -380196 5221.97 0 -378597 5207.56 0 -377002 5193.34 0 -375412 5179.31 0 -373826 5165.47 0 -372244 5151.81 0 -370667 5138.32 0 -369093 5125.01 0 -367523 5111.87 0 -365958 5098.9 0 -364396 5086.09 0 -362839 5073.44 0 -361285 5060.94 0 -359735 5048.59 0 -358188 5036.39 0 -356646 5024.33 0 -355107 5012.41 0 -353572 5000.63 0 -352040 4988.99 0 -350512 4977.47 0 -348987 4966.08 0 -347466 4954.82 0 -345949 4943.68 0 -344434 4932.65 0 -342923 4921.74 0 -341416 4910.94 0 -339911 4900.25 0 -338410 4889.67 0 -336913 4879.2 0 -335418 4868.82 0 -333926 4858.54 0 -332438 4848.37 0 -330953 4838.28 0 -329471 4828.29 0 -327992 4818.39 0 -326516 4808.57 0 -325042 4798.84 0 -323572 4789.2 0 -322105 4779.64 0 -320641 4770.15 0 -319179 4760.75 0 -317721 4751.42 0 -316265 4742.17 0 -314812 4732.99 0 -313362 4723.88 0 -311915 4714.84 0 -310471 4705.86 0 -309029 4696.96 0 -307590 4688.12 0 -306154 4679.34 0 -304720 4670.63 0 -303289 4661.98 0 -301861 4653.39 0 -300435 4644.85 0 -299012 4636.38 0 -297591 4627.95 0 -296173 4619.59 0 -294758 4611.28 0 -293345 4603.02 0 -291935 4594.81 0 -290527 4586.66 0 -289122 4578.55 0 -287719 4570.49 0 -286319 4562.48 0 -284921 4554.52 0 -283525 4546.6 0 -282132 4538.73 0 -280741 4530.91 0 -279353 4523.12 0 -277967 4515.38 0 -276584 4507.68 0 -480757 7430.52 0 -478807 7405.6 0 -476863 7380.34 0 -474926 7354.75 0 -472995 7328.88 0 -471072 7302.76 0 -469155 7276.41 0 -467246 7249.87 0 -465343 7223.17 0 -463448 7196.34 0 -461559 7169.4 0 -459678 7142.4 0 -457804 7115.35 0 -455937 7088.28 0 -454077 7061.22 0 -452225 7034.18 0 -450379 7007.21 0 -448541 6980.31 0 -446709 6953.5 0 -444885 6926.82 0 -443068 6900.27 0 -441258 6873.87 0 -439454 6847.65 0 -437658 6821.61 0 -435868 6795.77 0 -434085 6770.14 0 -432309 6744.74 0 -430540 6719.57 0 -428777 6694.65 0 -427021 6669.98 0 -425271 6645.56 0 -423527 6621.42 0 -421790 6597.55 0 -420059 6573.96 0 -418335 6550.65 0 -416616 6527.62 0 -414903 6504.88 0 -413197 6482.43 0 -411496 6460.27 0 -409801 6438.4 0 -408112 6416.82 0 -406428 6395.53 0 -404750 6374.52 0 -403077 6353.81 0 -401410 6333.38 0 -399748 6313.23 0 -398092 6293.36 0 -396440 6273.76 0 -394794 6254.44 0 -393152 6235.39 0 -391516 6216.61 0 -389885 6198.09 0 -388258 6179.82 0 -386636 6161.81 0 -385019 6144.05 0 -383407 6126.53 0 -381799 6109.25 0 -380195 6092.21 0 -378596 6075.39 0 -377002 6058.81 0 -375412 6042.44 0 -373826 6026.3 0 -372244 6010.36 0 -370666 5994.63 0 -369093 5979.1 0 -367523 5963.78 0 -365958 5948.64 0 -364396 5933.7 0 -362838 5918.94 0 -361285 5904.36 0 -359735 5889.95 0 -358188 5875.72 0 -356646 5861.66 0 -355107 5847.76 0 -353572 5834.02 0 -352040 5820.43 0 -350512 5807 0 -348988 5793.71 0 -347467 5780.57 0 -345949 5767.57 0 -344435 5754.71 0 -342924 5741.99 0 -341416 5729.39 0 -339912 5716.92 0 -338411 5704.58 0 -336913 5692.36 0 -335419 5680.25 0 -333927 5668.27 0 -332439 5656.39 0 -330954 5644.63 0 -329471 5632.97 0 -327992 5621.42 0 -326516 5609.97 0 -325043 5598.62 0 -323573 5587.37 0 -322106 5576.22 0 -320642 5565.15 0 -319180 5554.18 0 -317722 5543.3 0 -316266 5532.51 0 -314813 5521.8 0 -313363 5511.17 0 -311916 5500.62 0 -310472 5490.16 0 -309030 5479.77 0 -307591 5469.46 0 -306155 5459.22 0 -304721 5449.06 0 -303290 5438.96 0 -301862 5428.94 0 -300436 5418.98 0 -299013 5409.09 0 -297592 5399.27 0 -296175 5389.51 0 -294759 5379.81 0 -293346 5370.18 0 -291936 5360.61 0 -290528 5351.09 0 -289123 5341.63 0 -287720 5332.23 0 -286320 5322.89 0 -284922 5313.6 0 -283526 5304.37 0 -282133 5295.18 0 -280742 5286.05 0 -279354 5276.97 0 -277968 5267.94 0 -276585 5258.96 0 -480755 8492.46 0 -478805 8463.96 0 -476860 8435.06 0 -474923 8405.79 0 -472992 8376.2 0 -471069 8346.31 0 -469152 8316.17 0 -467242 8285.81 0 -465339 8255.27 0 -463444 8224.59 0 -461555 8193.78 0 -459674 8162.89 0 -457800 8131.96 0 -455933 8101 0 -454073 8070.05 0 -452220 8039.13 0 -450375 8008.28 0 -448536 7977.52 0 -446705 7946.87 0 -444881 7916.35 0 -443063 7886 0 -441253 7855.82 0 -439450 7825.83 0 -437654 7796.06 0 -435864 7766.52 0 -434081 7737.22 0 -432305 7708.17 0 -430536 7679.4 0 -428773 7650.91 0 -427017 7622.71 0 -425267 7594.8 0 -423524 7567.2 0 -421787 7539.92 0 -420056 7512.95 0 -418331 7486.3 0 -416613 7459.99 0 -414900 7433.99 0 -413194 7408.33 0 -411493 7383.01 0 -409798 7358.01 0 -408109 7333.35 0 -406425 7309.01 0 -404747 7285.01 0 -403075 7261.34 0 -401408 7237.99 0 -399746 7214.96 0 -398089 7192.25 0 -396438 7169.86 0 -394792 7147.78 0 -393151 7126.01 0 -391515 7104.55 0 -389883 7083.38 0 -388257 7062.51 0 -386635 7041.93 0 -385018 7021.63 0 -383406 7001.61 0 -381798 6981.87 0 -380194 6962.39 0 -378595 6943.18 0 -377001 6924.23 0 -375411 6905.53 0 -373825 6887.08 0 -372243 6868.87 0 -370666 6850.9 0 -369092 6833.16 0 -367523 6815.64 0 -365957 6798.35 0 -364396 6781.27 0 -362838 6764.41 0 -361285 6747.75 0 -359735 6731.29 0 -358189 6715.03 0 -356646 6698.96 0 -355107 6683.07 0 -353572 6667.37 0 -352041 6651.85 0 -350513 6636.5 0 -348988 6621.32 0 -347467 6606.3 0 -345949 6591.45 0 -344435 6576.76 0 -342924 6562.21 0 -341417 6547.82 0 -339913 6533.57 0 -338412 6519.47 0 -336914 6505.5 0 -335419 6491.67 0 -333928 6477.97 0 -332440 6464.4 0 -330954 6450.96 0 -329472 6437.64 0 -327993 6424.44 0 -326517 6411.36 0 -325044 6398.39 0 -323574 6385.53 0 -322107 6372.79 0 -320643 6360.14 0 -319181 6347.61 0 -317723 6335.17 0 -316267 6322.84 0 -314814 6310.6 0 -313364 6298.45 0 -311917 6286.4 0 -310473 6274.44 0 -309031 6262.57 0 -307592 6250.79 0 -306156 6239.09 0 -304722 6227.47 0 -303291 6215.94 0 -301863 6204.48 0 -300437 6193.11 0 -299014 6181.81 0 -297594 6170.58 0 -296176 6159.43 0 -294760 6148.35 0 -293348 6137.34 0 -291937 6126.4 0 -290529 6115.52 0 -289124 6104.72 0 -287721 6093.97 0 -286321 6083.3 0 -284923 6072.68 0 -283528 6062.13 0 -282134 6051.63 0 -280744 6041.2 0 -279356 6030.82 0 -277970 6020.5 0 -276586 6010.24 0 -480753 9554.58 0 -478802 9522.48 0 -476858 9489.93 0 -474920 9456.97 0 -472989 9423.64 0 -471065 9389.99 0 -469148 9356.05 0 -467238 9321.86 0 -465335 9287.47 0 -463440 9252.91 0 -461551 9218.23 0 -459670 9183.45 0 -457795 9148.61 0 -455928 9113.76 0 -454068 9078.91 0 -452215 9044.11 0 -450370 9009.37 0 -448531 8974.74 0 -446700 8940.24 0 -444876 8905.89 0 -443059 8871.72 0 -441248 8837.74 0 -439445 8803.99 0 -437649 8770.48 0 -435859 8737.23 0 -434077 8704.26 0 -432301 8671.57 0 -430531 8639.19 0 -428769 8607.13 0 -427012 8575.39 0 -425263 8543.99 0 -423520 8512.93 0 -421783 8482.23 0 -420052 8451.88 0 -418327 8421.9 0 -416609 8392.29 0 -414897 8363.05 0 -413190 8334.18 0 -411490 8305.68 0 -409795 8277.56 0 -408106 8249.81 0 -406422 8222.44 0 -404745 8195.43 0 -403072 8168.8 0 -401405 8142.53 0 -399744 8116.63 0 -398087 8091.09 0 -396436 8065.9 0 -394790 8041.06 0 -393149 8016.58 0 -391513 7992.43 0 -389881 7968.62 0 -388255 7945.14 0 -386633 7921.99 0 -385017 7899.16 0 -383404 7876.65 0 -381796 7854.44 0 -380193 7832.53 0 -378594 7810.92 0 -377000 7789.61 0 -375410 7768.57 0 -373824 7747.82 0 -372243 7727.34 0 -370665 7707.12 0 -369092 7687.17 0 -367522 7667.47 0 -365957 7648.02 0 -364396 7628.81 0 -362838 7609.84 0 -361285 7591.1 0 -359735 7572.59 0 -358189 7554.3 0 -356646 7536.22 0 -355107 7518.36 0 -353572 7500.7 0 -352041 7483.24 0 -350513 7465.97 0 -348988 7448.9 0 -347468 7432.01 0 -345950 7415.3 0 -344436 7398.77 0 -342925 7382.41 0 -341417 7366.23 0 -339913 7350.2 0 -338412 7334.33 0 -336915 7318.63 0 -335420 7303.07 0 -333929 7287.66 0 -332440 7272.4 0 -330955 7257.28 0 -329473 7242.29 0 -327994 7227.45 0 -326518 7212.73 0 -325045 7198.14 0 -323575 7183.68 0 -322108 7169.34 0 -320644 7155.12 0 -319182 7141.02 0 -317724 7127.03 0 -316268 7113.16 0 -314816 7099.39 0 -313366 7085.73 0 -311919 7072.17 0 -310474 7058.72 0 -309032 7045.37 0 -307593 7032.11 0 -306157 7018.95 0 -304724 7005.88 0 -303293 6992.91 0 -301864 6980.02 0 -300439 6967.23 0 -299016 6954.51 0 -297595 6941.89 0 -296177 6929.34 0 -294762 6916.88 0 -293349 6904.49 0 -291939 6892.18 0 -290531 6879.95 0 -289126 6867.79 0 -287723 6855.71 0 -286322 6843.7 0 -284924 6831.75 0 -283529 6819.88 0 -282136 6808.08 0 -280745 6796.34 0 -279357 6784.67 0 -277971 6773.06 0 -276588 6761.51 0 -480751 10616.9 0 -478800 10581.2 0 -476855 10545 0 -474917 10508.3 0 -472986 10471.2 0 -471061 10433.8 0 -469144 10396 0 -467234 10358 0 -465331 10319.8 0 -463435 10281.3 0 -461546 10242.8 0 -459664 10204.1 0 -457790 10165.3 0 -455923 10126.6 0 -454063 10087.8 0 -452210 10049.1 0 -450364 10010.5 0 -448526 9971.98 0 -446695 9933.61 0 -444870 9895.42 0 -443053 9857.42 0 -441243 9819.65 0 -439440 9782.13 0 -437643 9744.88 0 -435854 9707.91 0 -434071 9671.26 0 -432295 9634.92 0 -430526 9598.93 0 -428764 9563.29 0 -427008 9528.01 0 -425258 9493.11 0 -423515 9458.6 0 -421778 9424.47 0 -420048 9390.75 0 -418323 9357.43 0 -416605 9324.52 0 -414893 9292.03 0 -413186 9259.95 0 -411486 9228.28 0 -409791 9197.03 0 -408102 9166.2 0 -406419 9135.79 0 -404741 9105.78 0 -403069 9076.19 0 -401402 9047.01 0 -399741 9018.23 0 -398085 8989.85 0 -396433 8961.87 0 -394787 8934.28 0 -393147 8907.07 0 -391511 8880.25 0 -389880 8853.8 0 -388253 8827.71 0 -386632 8801.99 0 -385015 8776.63 0 -383403 8751.62 0 -381795 8726.95 0 -380192 8702.61 0 -378593 8678.61 0 -376999 8654.93 0 -375409 8631.56 0 -373823 8608.51 0 -372242 8585.76 0 -370664 8563.3 0 -369091 8541.13 0 -367522 8519.25 0 -365957 8497.64 0 -364395 8476.31 0 -362838 8455.23 0 -361284 8434.42 0 -359735 8413.85 0 -358189 8393.53 0 -356646 8373.45 0 -355108 8353.61 0 -353573 8333.99 0 -352041 8314.59 0 -350513 8295.41 0 -348989 8276.45 0 -347468 8257.69 0 -345951 8239.13 0 -344436 8220.76 0 -342926 8202.59 0 -341418 8184.61 0 -339914 8166.8 0 -338413 8149.18 0 -336915 8131.73 0 -335421 8114.45 0 -333930 8097.33 0 -332441 8080.37 0 -330956 8063.57 0 -329474 8046.93 0 -327995 8030.44 0 -326519 8014.09 0 -325046 7997.88 0 -323576 7981.81 0 -322109 7965.88 0 -320645 7950.09 0 -319184 7934.42 0 -317725 7918.88 0 -316270 7903.46 0 -314817 7888.17 0 -313367 7872.99 0 -311920 7857.93 0 -310475 7842.99 0 -309034 7828.15 0 -307595 7813.42 0 -306159 7798.8 0 -304725 7784.29 0 -303294 7769.87 0 -301866 7755.56 0 -300440 7741.34 0 -299017 7727.21 0 -297597 7713.18 0 -296179 7699.25 0 -294763 7685.4 0 -293351 7671.64 0 -291940 7657.96 0 -290532 7644.37 0 -289127 7630.87 0 -287724 7617.44 0 -286324 7604.09 0 -284926 7590.83 0 -283531 7577.64 0 -282138 7564.52 0 -280747 7551.48 0 -279359 7538.51 0 -277973 7525.61 0 -276589 7512.78 0 -480749 11679.4 0 -478797 11640.1 0 -476851 11600.2 0 -474913 11559.8 0 -472982 11519 0 -471057 11477.8 0 -469139 11436.2 0 -467229 11394.3 0 -465326 11352.2 0 -463430 11309.8 0 -461541 11267.4 0 -459659 11224.8 0 -457784 11182.1 0 -455917 11139.4 0 -454057 11096.8 0 -452204 11054.1 0 -450358 11011.6 0 -448520 10969.2 0 -446688 10927 0 -444864 10884.9 0 -443047 10843.1 0 -441237 10801.5 0 -439434 10760.2 0 -437637 10719.2 0 -435848 10678.6 0 -434065 10638.2 0 -432290 10598.2 0 -430521 10558.6 0 -428758 10519.4 0 -427002 10480.6 0 -425253 10442.2 0 -423510 10404.2 0 -421773 10366.6 0 -420043 10329.5 0 -418318 10292.9 0 -416600 10256.7 0 -414888 10220.9 0 -413182 10185.6 0 -411482 10150.8 0 -409787 10116.4 0 -408099 10082.5 0 -406415 10049.1 0 -404738 10016.1 0 -403066 9983.5 0 -401399 9951.4 0 -399738 9919.75 0 -398082 9888.54 0 -396431 9857.76 0 -394785 9827.41 0 -393144 9797.49 0 -391508 9767.99 0 -389877 9738.9 0 -388251 9710.21 0 -386630 9681.93 0 -385013 9654.03 0 -383401 9626.52 0 -381794 9599.39 0 -380191 9572.63 0 -378592 9546.23 0 -376998 9520.19 0 -375408 9494.49 0 -373822 9469.14 0 -372241 9444.12 0 -370664 9419.42 0 -369091 9395.05 0 -367521 9370.98 0 -365956 9347.22 0 -364395 9323.75 0 -362838 9300.58 0 -361284 9277.69 0 -359735 9255.07 0 -358189 9232.73 0 -356646 9210.64 0 -355108 9188.82 0 -353573 9167.24 0 -352042 9145.91 0 -350514 9124.82 0 -348989 9103.96 0 -347469 9083.33 0 -345951 9062.92 0 -344437 9042.72 0 -342926 9022.74 0 -341419 9002.96 0 -339915 8983.38 0 -338414 8964 0 -336916 8944.8 0 -335422 8925.8 0 -333931 8906.97 0 -332442 8888.33 0 -330957 8869.85 0 -329475 8851.54 0 -327996 8833.4 0 -326521 8815.42 0 -325048 8797.6 0 -323578 8779.93 0 -322111 8762.41 0 -320646 8745.04 0 -319185 8727.81 0 -317727 8710.71 0 -316271 8693.76 0 -314818 8676.94 0 -313369 8660.25 0 -311921 8643.68 0 -310477 8627.24 0 -309035 8610.93 0 -307596 8594.73 0 -306160 8578.65 0 -304727 8562.68 0 -303296 8546.82 0 -301867 8531.08 0 -300442 8515.44 0 -299019 8499.91 0 -297598 8484.48 0 -296180 8469.15 0 -294765 8453.91 0 -293352 8438.78 0 -291942 8423.74 0 -290534 8408.79 0 -289129 8393.93 0 -287726 8379.17 0 -286326 8364.49 0 -284928 8349.89 0 -283532 8335.39 0 -282139 8320.96 0 -280749 8306.61 0 -279360 8292.35 0 -277975 8278.16 0 -276591 8264.05 0 -480746 12742.2 0 -478793 12699.2 0 -476848 12655.7 0 -474909 12611.5 0 -472977 12566.9 0 -471052 12521.9 0 -469134 12476.5 0 -467224 12430.7 0 -465320 12384.7 0 -463424 12338.5 0 -461535 12292.1 0 -459653 12245.5 0 -457778 12199 0 -455911 12152.3 0 -454050 12105.7 0 -452197 12059.2 0 -450352 12012.8 0 -448513 11966.5 0 -446682 11920.4 0 -444857 11874.5 0 -443040 11828.8 0 -441230 11783.4 0 -439427 11738.3 0 -437631 11693.6 0 -435842 11649.2 0 -434059 11605.1 0 -432283 11561.5 0 -430514 11518.2 0 -428752 11475.4 0 -426996 11433.1 0 -425247 11391.2 0 -423504 11349.7 0 -421768 11308.7 0 -420037 11268.3 0 -418313 11228.3 0 -416595 11188.8 0 -414883 11149.7 0 -413177 11111.2 0 -411477 11073.2 0 -409783 11035.7 0 -408094 10998.7 0 -406411 10962.2 0 -404734 10926.2 0 -403062 10890.7 0 -401396 10855.7 0 -399734 10821.2 0 -398079 10787.1 0 -396428 10753.6 0 -394782 10720.5 0 -393141 10687.8 0 -391506 10655.6 0 -389875 10623.9 0 -388249 10592.6 0 -386628 10561.8 0 -385011 10531.4 0 -383399 10501.4 0 -381792 10471.8 0 -380189 10442.6 0 -378591 10413.8 0 -376997 10385.4 0 -375407 10357.4 0 -373821 10329.7 0 -372240 10302.4 0 -370663 10275.5 0 -369090 10248.9 0 -367521 10222.7 0 -365956 10196.7 0 -364395 10171.1 0 -362838 10145.9 0 -361284 10120.9 0 -359735 10096.2 0 -358189 10071.9 0 -356647 10047.8 0 -355108 10024 0 -353573 10000.5 0 -352042 9977.19 0 -350514 9954.19 0 -348990 9931.44 0 -347469 9908.94 0 -345952 9886.67 0 -344438 9864.65 0 -342927 9842.85 0 -341420 9821.28 0 -339916 9799.93 0 -338415 9778.79 0 -336917 9757.85 0 -335423 9737.12 0 -333932 9716.59 0 -332444 9696.25 0 -330959 9676.1 0 -329477 9656.14 0 -327998 9636.35 0 -326522 9616.74 0 -325049 9597.3 0 -323579 9578.03 0 -322112 9558.92 0 -320648 9539.97 0 -319187 9521.17 0 -317728 9502.53 0 -316273 9484.04 0 -314820 9465.69 0 -313370 9447.48 0 -311923 9429.42 0 -310479 9411.49 0 -309037 9393.69 0 -307598 9376.02 0 -306162 9358.48 0 -304728 9341.06 0 -303298 9323.77 0 -301869 9306.59 0 -300444 9289.54 0 -299021 9272.59 0 -297600 9255.76 0 -296182 9239.04 0 -294767 9222.42 0 -293354 9205.91 0 -291944 9189.51 0 -290536 9173.2 0 -289131 9157 0 -287728 9140.89 0 -286328 9124.88 0 -284930 9108.96 0 -283534 9093.13 0 -282141 9077.4 0 -280751 9061.75 0 -279362 9046.19 0 -277977 9030.71 0 -276593 9015.32 0 -480743 13805.2 0 -478790 13758.6 0 -476844 13711.3 0 -474904 13663.5 0 -472972 13615.1 0 -471047 13566.2 0 -469129 13516.9 0 -467218 13467.3 0 -465314 13417.4 0 -463417 13367.2 0 -461528 13316.9 0 -459646 13266.4 0 -457771 13215.9 0 -455903 13165.3 0 -454043 13114.8 0 -452190 13064.3 0 -450344 13014 0 -448506 12963.8 0 -446674 12913.7 0 -444850 12864 0 -443033 12814.5 0 -441223 12765.2 0 -439420 12716.4 0 -437624 12667.8 0 -435834 12619.7 0 -434052 12572 0 -432277 12524.7 0 -430508 12477.8 0 -428746 12431.4 0 -426990 12385.5 0 -425241 12340.1 0 -423498 12295.2 0 -421762 12250.8 0 -420032 12206.9 0 -418308 12163.5 0 -416590 12120.7 0 -414878 12078.5 0 -413172 12036.8 0 -411472 11995.6 0 -409778 11954.9 0 -408090 11914.9 0 -406407 11875.3 0 -