<?xml version="1.0"?> 
<VTKFile type="StructuredGrid" version="0.1"> 
<StructuredGrid WholeExtent="0 127 0 127 0 0"> 
<Piece Extent="0 127 0 127 0 0"> 
<PointData>
<DataArray type="Float32" Name="E" format="ascii" NumberOfComponents="3"> 
1.97543e+06 -201575 0 1.9891e+06 -202969 0 2.00137e+06 -204222 0 2.01243e+06 -205350 0 2.02241e+06 -206368 0 2.03143e+06 -207289 0 2.0396e+06 -208122 0 2.04702e+06 -208879 0 2.05376e+06 -209567 0 2.05991e+06 -210195 0 2.06552e+06 -210767 0 2.07064e+06 -211290 0 2.07534e+06 -211769 0 2.07965e+06 -212209 0 2.0836e+06 -212612 0 2.08723e+06 -212983 0 2.09058e+06 -213324 0 2.09366e+06 -213638 0 2.09649e+06 -213928 0 2.09911e+06 -214195 0 2.10152e+06 -214441 0 2.10374e+06 -214667 0 2.10579e+06 -214876 0 2.10767e+06 -215068 0 2.1094e+06 -215245 0 2.11099e+06 -215407 0 2.11245e+06 -215556 0 2.11378e+06 -215692 0 2.11499e+06 -215815 0 2.11609e+06 -215928 0 2.11708e+06 -216029 0 2.11797e+06 -216120 0 2.11877e+06 -216201 0 2.11947e+06 -216272 0 2.12008e+06 -216335 0 2.1206e+06 -216388 0 2.12104e+06 -216433 0 2.1214e+06 -216469 0 2.12168e+06 -216498 0 2.12188e+06 -216518 0 2.12201e+06 -216531 0 2.12206e+06 -216537 0 2.12204e+06 -216535 0 2.12195e+06 -216525 0 2.12179e+06 -216509 0 2.12156e+06 -216486 0 2.12126e+06 -216455 0 2.1209e+06 -216418 0 2.12046e+06 -216374 0 2.11996e+06 -216323 0 2.1194e+06 -216265 0 2.11877e+06 -216201 0 2.11807e+06 -216129 0 2.1173e+06 -216051 0 2.11647e+06 -215967 0 2.11557e+06 -215875 0 2.11461e+06 -215777 0 2.11358e+06 -215671 0 2.11248e+06 -215559 0 2.11131e+06 -215440 0 2.11008e+06 -215314 0 2.10877e+06 -215181 0 2.1074e+06 -215040 0 2.10595e+06 -214893 0 2.10443e+06 -214737 0 2.10283e+06 -214575 0 2.10117e+06 -214405 0 2.09942e+06 -214227 0 2.0976e+06 -214041 0 2.0957e+06 -213847 0 2.09371e+06 -213644 0 2.09165e+06 -213434 0 2.0895e+06 -213214 0 2.08726e+06 -212986 0 2.08494e+06 -212749 0 2.08252e+06 -212502 0 2.08001e+06 -212246 0 2.0774e+06 -211980 0 2.07469e+06 -211703 0 2.07188e+06 -211416 0 2.06896e+06 -211119 0 2.06594e+06 -210810 0 2.06279e+06 -210489 0 2.05953e+06 -210156 0 2.05615e+06 -209811 0 2.05264e+06 -209453 0 2.04899e+06 -209080 0 2.0452e+06 -208694 0 2.04127e+06 -208293 0 2.03718e+06 -207876 0 2.03294e+06 -207443 0 2.02852e+06 -206992 0 2.02393e+06 -206524 0 2.01915e+06 -206036 0 2.01417e+06 -205528 0 2.00898e+06 -204998 0 2.00357e+06 -204446 0 1.99791e+06 -203869 0 1.99201e+06 -203266 0 1.98583e+06 -202636 0 1.97936e+06 -201975 0 1.97258e+06 -201283 0 1.96545e+06 -200556 0 1.95797e+06 -199792 0 1.95008e+06 -198988 0 1.94177e+06 -198140 0 1.93298e+06 -197243 0 1.92369e+06 -196295 0 1.91383e+06 -195289 0 1.90335e+06 -194220 0 1.8922e+06 -193081 0 1.88029e+06 -191866 0 1.86755e+06 -190566 0 1.85388e+06 -189172 0 1.83919e+06 -187672 0 1.82334e+06 -186055 0 1.80621e+06 -184308 0 1.78764e+06 -182412 0 1.76745e+06 -180352 0 1.74544e+06 -178106 0 1.72137e+06 -175650 0 1.69497e+06 -172956 0 1.66594e+06 -169994 0 1.63392e+06 -166727 0 1.59852e+06 -163114 0 1.55926e+06 -159108 0 1.51561e+06 -154655 0 1.46696e+06 -149690 0 2.15718e+06 -125711 0 2.15395e+06 -132167 0 2.15139e+06 -138123 0 2.1494e+06 -143628 0 2.14789e+06 -148723 0 2.14678e+06 -153448 0 2.14599e+06 -157837 0 2.14549e+06 -161921 0 2.14521e+06 -165728 0 2.14511e+06 -169282 0 2.14516e+06 -172605 0 2.14533e+06 -175719 0 2.14559e+06 -178641 0 2.14592e+06 -181387 0 2.1463e+06 -183973 0 2.14672e+06 -186412 0 2.14716e+06 -188717 0 2.14761e+06 -190897 0 2.14806e+06 -192964 0 2.1485e+06 -194927 0 2.14893e+06 -196793 0 2.14934e+06 -198570 0 2.14973e+06 -200266 0 2.15008e+06 -201887 0 2.1504e+06 -203438 0 2.15069e+06 -204924 0 2.15094e+06 -206352 0 2.15115e+06 -207724 0 2.15131e+06 -209046 0 2.15144e+06 -210321 0 2.15152e+06 -211552 0 2.15155e+06 -212743 0 2.15154e+06 -213897 0 2.15148e+06 -215017 0 2.15137e+06 -216105 0 2.15122e+06 -217164 0 2.15102e+06 -218197 0 2.15076e+06 -219204 0 2.15046e+06 -220188 0 2.15011e+06 -221152 0 2.14971e+06 -222097 0 2.14926e+06 -223024 0 2.14876e+06 -223936 0 2.14821e+06 -224833 0 2.1476e+06 -225718 0 2.14695e+06 -226591 0 2.14624e+06 -227454 0 2.14548e+06 -228309 0 2.14467e+06 -229156 0 2.14381e+06 -229997 0 2.14289e+06 -230833 0 2.14192e+06 -231665 0 2.1409e+06 -232495 0 2.13982e+06 -233323 0 2.13868e+06 -234151 0 2.13749e+06 -234979 0 2.13624e+06 -235809 0 2.13493e+06 -236643 0 2.13357e+06 -237480 0 2.13214e+06 -238322 0 2.13066e+06 -239171 0 2.12912e+06 -240028 0 2.12751e+06 -240893 0 2.12584e+06 -241768 0 2.12411e+06 -242654 0 2.12232e+06 -243553 0 2.12045e+06 -244465 0 2.11853e+06 -245393 0 2.11653e+06 -246337 0 2.11446e+06 -247299 0 2.11232e+06 -248281 0 2.11011e+06 -249285 0 2.10783e+06 -250311 0 2.10547e+06 -251362 0 2.10304e+06 -252439 0 2.10052e+06 -253546 0 2.09793e+06 -254683 0 2.09525e+06 -255853 0 2.09249e+06 -257058 0 2.08964e+06 -258302 0 2.0867e+06 -259585 0 2.08368e+06 -260913 0 2.08056e+06 -262287 0 2.07735e+06 -263710 0 2.07404e+06 -265187 0 2.07063e+06 -266720 0 2.06712e+06 -268315 0 2.0635e+06 -269975 0 2.05978e+06 -271705 0 2.05596e+06 -273510 0 2.05202e+06 -275395 0 2.04797e+06 -277366 0 2.0438e+06 -279430 0 2.03951e+06 -281594 0 2.03511e+06 -283864 0 2.03059e+06 -286248 0 2.02594e+06 -288756 0 2.02117e+06 -291397 0 2.01628e+06 -294182 0 2.01126e+06 -297120 0 2.00612e+06 -300225 0 2.00086e+06 -303510 0 1.99549e+06 -306990 0 1.99e+06 -310679 0 1.9844e+06 -314596 0 1.9787e+06 -318760 0 1.97291e+06 -323192 0 1.96705e+06 -327913 0 1.96113e+06 -332950 0 1.95516e+06 -338329 0 1.94918e+06 -344081 0 1.94322e+06 -350240 0 1.9373e+06 -356841 0 1.93149e+06 -363924 0 1.92582e+06 -371535 0 1.92037e+06 -379722 0 1.91522e+06 -388538 0 1.91044e+06 -398043 0 1.90616e+06 -408303 0 1.90251e+06 -419390 0 1.89964e+06 -431384 0 1.89772e+06 -444374 0 1.89698e+06 -458458 0 1.89767e+06 -473745 0 1.90009e+06 -490354 0 1.90459e+06 -508420 0 1.91157e+06 -528089 0 1.92153e+06 -549528 0 2.21318e+06 -161881 0 2.21309e+06 -163461 0 2.21283e+06 -165185 0 2.21245e+06 -167023 0 2.21198e+06 -168950 0 2.21144e+06 -170947 0 2.21085e+06 -172995 0 2.21023e+06 -175080 0 2.20959e+06 -177188 0 2.20895e+06 -179310 0 2.2083e+06 -181436 0 2.20766e+06 -183559 0 2.20702e+06 -185673 0 2.2064e+06 -187773 0 2.20578e+06 -189856 0 2.20517e+06 -191917 0 2.20458e+06 -193955 0 2.204e+06 -195969 0 2.20342e+06 -197955 0 2.20285e+06 -199915 0 2.20229e+06 -201846 0 2.20173e+06 -203750 0 2.20118e+06 -205626 0 2.20062e+06 -207475 0 2.20007e+06 -209296 0 2.19951e+06 -211092 0 2.19894e+06 -212862 0 2.19837e+06 -214607 0 2.19779e+06 -216329 0 2.1972e+06 -218029 0 2.1966e+06 -219707 0 2.19598e+06 -221366 0 2.19535e+06 -223005 0 2.1947e+06 -224627 0 2.19404e+06 -226233 0 2.19335e+06 -227823 0 2.19265e+06 -229400 0 2.19192e+06 -230965 0 2.19117e+06 -232518 0 2.1904e+06 -234062 0 2.1896e+06 -235597 0 2.18878e+06 -237125 0 2.18793e+06 -238648 0 2.18706e+06 -240166 0 2.18615e+06 -241681 0 2.18522e+06 -243194 0 2.18426e+06 -244707 0 2.18327e+06 -246220 0 2.18225e+06 -247736 0 2.18119e+06 -249256 0 2.18011e+06 -250781 0 2.17899e+06 -252312 0 2.17784e+06 -253850 0 2.17666e+06 -255398 0 2.17544e+06 -256957 0 2.17418e+06 -258527 0 2.17289e+06 -260111 0 2.17157e+06 -261710 0 2.17021e+06 -263326 0 2.16881e+06 -264959 0 2.16738e+06 -266612 0 2.16591e+06 -268287 0 2.1644e+06 -269984 0 2.16286e+06 -271706 0 2.16127e+06 -273454 0 2.15965e+06 -275230 0 2.15799e+06 -277036 0 2.15629e+06 -278873 0 2.15455e+06 -280745 0 2.15278e+06 -282652 0 2.15096e+06 -284597 0 2.14911e+06 -286581 0 2.14722e+06 -288608 0 2.14529e+06 -290679 0 2.14332e+06 -292797 0 2.14132e+06 -294964 0 2.13928e+06 -297183 0 2.1372e+06 -299455 0 2.13508e+06 -301785 0 2.13293e+06 -304174 0 2.13075e+06 -306626 0 2.12853e+06 -309143 0 2.12628e+06 -311728 0 2.124e+06 -314385 0 2.12169e+06 -317117 0 2.11936e+06 -319927 0 2.117e+06 -322819 0 2.11462e+06 -325795 0 2.11222e+06 -328861 0 2.10981e+06 -332018 0 2.10738e+06 -335272 0 2.10494e+06 -338625 0 2.10249e+06 -342082 0 2.10005e+06 -345646 0 2.09761e+06 -349322 0 2.09518e+06 -353113 0 2.09277e+06 -357022 0 2.09038e+06 -361054 0 2.08802e+06 -365211 0 2.08569e+06 -369498 0 2.08342e+06 -373917 0 2.08119e+06 -378471 0 2.07903e+06 -383162 0 2.07694e+06 -387991 0 2.07494e+06 -392961 0 2.07303e+06 -398070 0 2.07122e+06 -403319 0 2.06953e+06 -408706 0 2.06796e+06 -414226 0 2.06654e+06 -419877 0 2.06525e+06 -425650 0 2.06413e+06 -431538 0 2.06317e+06 -437529 0 2.06237e+06 -443607 0 2.06175e+06 -449757 0 2.0613e+06 -455955 0 2.061e+06 -462174 0 2.06085e+06 -468384 0 2.06083e+06 -474544 0 2.06091e+06 -480611 0 2.06103e+06 -486530 0 2.06113e+06 -492237 0 2.06115e+06 -497658 0 2.06097e+06 -502707 0 2.06046e+06 -507282 0 2.05945e+06 -511264 0 2.05773e+06 -514519 0 2.05505e+06 -516884 0 2.27698e+06 -175113 0 2.27548e+06 -177397 0 2.27408e+06 -179615 0 2.27276e+06 -181781 0 2.27152e+06 -183903 0 2.27034e+06 -185991 0 2.26921e+06 -188049 0 2.26812e+06 -190084 0 2.26706e+06 -192100 0 2.26603e+06 -194099 0 2.26502e+06 -196084 0 2.26404e+06 -198057 0 2.26308e+06 -200020 0 2.26213e+06 -201974 0 2.26119e+06 -203920 0 2.26027e+06 -205859 0 2.25935e+06 -207790 0 2.25845e+06 -209716 0 2.25755e+06 -211635 0 2.25666e+06 -213548 0 2.25578e+06 -215456 0 2.2549e+06 -217359 0 2.25403e+06 -219256 0 2.25316e+06 -221149 0 2.25229e+06 -223037 0 2.25142e+06 -224921 0 2.25056e+06 -226800 0 2.24969e+06 -228676 0 2.24882e+06 -230549 0 2.24796e+06 -232419 0 2.24709e+06 -234287 0 2.24621e+06 -236152 0 2.24534e+06 -238017 0 2.24445e+06 -239880 0 2.24357e+06 -241744 0 2.24268e+06 -243607 0 2.24178e+06 -245472 0 2.24087e+06 -247339 0 2.23996e+06 -249209 0 2.23904e+06 -251082 0 2.23811e+06 -252959 0 2.23717e+06 -254841 0 2.23623e+06 -256730 0 2.23527e+06 -258625 0 2.2343e+06 -260528 0 2.23332e+06 -262439 0 2.23233e+06 -264361 0 2.23133e+06 -266293 0 2.23032e+06 -268236 0 2.22929e+06 -270193 0 2.22826e+06 -272163 0 2.22721e+06 -274148 0 2.22614e+06 -276149 0 2.22507e+06 -278167 0 2.22398e+06 -280204 0 2.22288e+06 -282260 0 2.22177e+06 -284336 0 2.22064e+06 -286435 0 2.2195e+06 -288556 0 2.21835e+06 -290702 0 2.21719e+06 -292874 0 2.21602e+06 -295072 0 2.21483e+06 -297298 0 2.21363e+06 -299554 0 2.21243e+06 -301841 0 2.21121e+06 -304160 0 2.20998e+06 -306513 0 2.20874e+06 -308900 0 2.2075e+06 -311324 0 2.20625e+06 -313785 0 2.20499e+06 -316286 0 2.20373e+06 -318827 0 2.20246e+06 -321410 0 2.20119e+06 -324036 0 2.19991e+06 -326707 0 2.19864e+06 -329424 0 2.19736e+06 -332189 0 2.19609e+06 -335002 0 2.19482e+06 -337866 0 2.19356e+06 -340781 0 2.1923e+06 -343749 0 2.19106e+06 -346772 0 2.18982e+06 -349849 0 2.1886e+06 -352983 0 2.18739e+06 -356174 0 2.1862e+06 -359424 0 2.18503e+06 -362733 0 2.18389e+06 -366102 0 2.18277e+06 -369532 0 2.18168e+06 -373023 0 2.18061e+06 -376576 0 2.17959e+06 -380191 0 2.1786e+06 -383869 0 2.17764e+06 -387609 0 2.17674e+06 -391410 0 2.17587e+06 -395273 0 2.17506e+06 -399197 0 2.1743e+06 -403181 0 2.17359e+06 -407224 0 2.17294e+06 -411323 0 2.17235e+06 -415479 0 2.17182e+06 -419688 0 2.17135e+06 -423949 0 2.17096e+06 -428259 0 2.17063e+06 -432616 0 2.17037e+06 -437016 0 2.17018e+06 -441457 0 2.17006e+06 -445936 0 2.17001e+06 -450449 0 2.17003e+06 -454994 0 2.17013e+06 -459568 0 2.1703e+06 -464169 0 2.17054e+06 -468794 0 2.17086e+06 -473443 0 2.17124e+06 -478115 0 2.17171e+06 -482813 0 2.17225e+06 -487539 0 2.17288e+06 -492300 0 2.1736e+06 -497104 0 2.17443e+06 -501964 0 2.17539e+06 -506898 0 2.1765e+06 -511929 0 2.1778e+06 -517087 0 2.17934e+06 -522410 0 2.18118e+06 -527947 0 2.18341e+06 -533759 0 2.18614e+06 -539920 0 2.18952e+06 -546526 0 2.33336e+06 -193907 0 2.33232e+06 -195545 0 2.33125e+06 -197227 0 2.33016e+06 -198944 0 2.32905e+06 -200690 0 2.32793e+06 -202461 0 2.32681e+06 -204253 0 2.3257e+06 -206063 0 2.32458e+06 -207888 0 2.32347e+06 -209725 0 2.32237e+06 -211575 0 2.32127e+06 -213434 0 2.32018e+06 -215302 0 2.3191e+06 -217178 0 2.31803e+06 -219062 0 2.31697e+06 -220952 0 2.31592e+06 -222848 0 2.31488e+06 -224750 0 2.31385e+06 -226658 0 2.31283e+06 -228572 0 2.31181e+06 -230491 0 2.31081e+06 -232416 0 2.30981e+06 -234346 0 2.30882e+06 -236281 0 2.30784e+06 -238222 0 2.30686e+06 -240169 0 2.30589e+06 -242122 0 2.30493e+06 -244080 0 2.30398e+06 -246046 0 2.30303e+06 -248017 0 2.30208e+06 -249996 0 2.30115e+06 -251982 0 2.30021e+06 -253975 0 2.29928e+06 -255976 0 2.29836e+06 -257986 0 2.29744e+06 -260004 0 2.29652e+06 -262032 0 2.29561e+06 -264069 0 2.2947e+06 -266116 0 2.2938e+06 -268174 0 2.2929e+06 -270243 0 2.292e+06 -272323 0 2.29111e+06 -274416 0 2.29021e+06 -276522 0 2.28933e+06 -278641 0 2.28844e+06 -280775 0 2.28756e+06 -282922 0 2.28668e+06 -285086 0 2.2858e+06 -287265 0 2.28493e+06 -289461 0 2.28406e+06 -291674 0 2.28319e+06 -293906 0 2.28233e+06 -296156 0 2.28147e+06 -298426 0 2.28062e+06 -300716 0 2.27977e+06 -303027 0 2.27892e+06 -305360 0 2.27808e+06 -307715 0 2.27725e+06 -310094 0 2.27642e+06 -312496 0 2.2756e+06 -314923 0 2.27478e+06 -317376 0 2.27398e+06 -319855 0 2.27318e+06 -322360 0 2.27239e+06 -324894 0 2.27161e+06 -327455 0 2.27084e+06 -330046 0 2.27009e+06 -332667 0 2.26934e+06 -335318 0 2.26861e+06 -337999 0 2.2679e+06 -340713 0 2.26719e+06 -343459 0 2.26651e+06 -346238 0 2.26584e+06 -349050 0 2.26519e+06 -351896 0 2.26457e+06 -354776 0 2.26396e+06 -357691 0 2.26337e+06 -360641 0 2.26281e+06 -363627 0 2.26228e+06 -366648 0 2.26177e+06 -369705 0 2.26128e+06 -372798 0 2.26083e+06 -375928 0 2.26041e+06 -379094 0 2.26002e+06 -382296 0 2.25967e+06 -385534 0 2.25935e+06 -388807 0 2.25906e+06 -392117 0 2.25882e+06 -395462 0 2.25862e+06 -398842 0 2.25845e+06 -402256 0 2.25833e+06 -405705 0 2.25826e+06 -409186 0 2.25823e+06 -412701 0 2.25825e+06 -416247 0 2.25832e+06 -419824 0 2.25844e+06 -423431 0 2.25861e+06 -427067 0 2.25884e+06 -430731 0 2.25912e+06 -434423 0 2.25946e+06 -438140 0 2.25985e+06 -441882 0 2.2603e+06 -445647 0 2.26082e+06 -449435 0 2.2614e+06 -453244 0 2.26204e+06 -457073 0 2.26274e+06 -460920 0 2.26351e+06 -464784 0 2.26435e+06 -468664 0 2.26526e+06 -472559 0 2.26624e+06 -476466 0 2.2673e+06 -480383 0 2.26843e+06 -484310 0 2.26963e+06 -488242 0 2.27092e+06 -492178 0 2.27227e+06 -496114 0 2.27371e+06 -500045 0 2.27522e+06 -503964 0 2.27681e+06 -507866 0 2.27847e+06 -511740 0 2.28018e+06 -515574 0 2.28194e+06 -519352 0 2.28374e+06 -523056 0 2.28554e+06 -526661 0 2.28731e+06 -530134 0 2.28901e+06 -533437 0 2.29057e+06 -536520 0 2.29192e+06 -539320 0 2.39363e+06 -206986 0 2.39229e+06 -208830 0 2.39098e+06 -210664 0 2.3897e+06 -212493 0 2.38844e+06 -214321 0 2.3872e+06 -216149 0 2.38598e+06 -217979 0 2.38478e+06 -219813 0 2.38359e+06 -221652 0 2.38241e+06 -223496 0 2.38125e+06 -225348 0 2.3801e+06 -227207 0 2.37896e+06 -229073 0 2.37783e+06 -230948 0 2.37672e+06 -232831 0 2.37562e+06 -234722 0 2.37453e+06 -236623 0 2.37345e+06 -238532 0 2.37238e+06 -240450 0 2.37133e+06 -242378 0 2.37029e+06 -244314 0 2.36926e+06 -246261 0 2.36824e+06 -248216 0 2.36723e+06 -250182 0 2.36623e+06 -252157 0 2.36525e+06 -254142 0 2.36428e+06 -256138 0 2.36332e+06 -258144 0 2.36237e+06 -260160 0 2.36143e+06 -262186 0 2.36051e+06 -264224 0 2.35959e+06 -266273 0 2.35869e+06 -268333 0 2.3578e+06 -270404 0 2.35693e+06 -272487 0 2.35606e+06 -274583 0 2.35521e+06 -276690 0 2.35436e+06 -278810 0 2.35354e+06 -280944 0 2.35272e+06 -283090 0 2.35191e+06 -285250 0 2.35112e+06 -287424 0 2.35034e+06 -289612 0 2.34957e+06 -291814 0 2.34882e+06 -294032 0 2.34808e+06 -296265 0 2.34735e+06 -298513 0 2.34664e+06 -300777 0 2.34594e+06 -303058 0 2.34525e+06 -305356 0 2.34458e+06 -307671 0 2.34393e+06 -310003 0 2.34329e+06 -312353 0 2.34266e+06 -314722 0 2.34205e+06 -317109 0 2.34146e+06 -319515 0 2.34088e+06 -321941 0 2.34032e+06 -324386 0 2.33978e+06 -326852 0 2.33926e+06 -329338 0 2.33876e+06 -331845 0 2.33827e+06 -334373 0 2.33781e+06 -336922 0 2.33737e+06 -339493 0 2.33695e+06 -342086 0 2.33655e+06 -344702 0 2.33617e+06 -347340 0 2.33582e+06 -350001 0 2.33549e+06 -352684 0 2.33519e+06 -355391 0 2.33491e+06 -358121 0 2.33466e+06 -360874 0 2.33444e+06 -363651 0 2.33424e+06 -366451 0 2.33408e+06 -369275 0 2.33394e+06 -372122 0 2.33384e+06 -374993 0 2.33377e+06 -377887 0 2.33373e+06 -380805 0 2.33372e+06 -383745 0 2.33375e+06 -386709 0 2.33382e+06 -389695 0 2.33392e+06 -392704 0 2.33407e+06 -395735 0 2.33425e+06 -398787 0 2.33447e+06 -401861 0 2.33473e+06 -404955 0 2.33503e+06 -408071 0 2.33537e+06 -411205 0 2.33576e+06 -414360 0 2.3362e+06 -417533 0 2.33667e+06 -420723 0 2.3372e+06 -423932 0 2.33777e+06 -427156 0 2.33839e+06 -430397 0 2.33906e+06 -433652 0 2.33978e+06 -436921 0 2.34054e+06 -440204 0 2.34136e+06 -443498 0 2.34223e+06 -446803 0 2.34316e+06 -450119 0 2.34413e+06 -453443 0 2.34516e+06 -456776 0 2.34624e+06 -460114 0 2.34738e+06 -463458 0 2.34857e+06 -466806 0 2.34981e+06 -470156 0 2.35111e+06 -473508 0 2.35246e+06 -476860 0 2.35386e+06 -480210 0 2.35532e+06 -483557 0 2.35683e+06 -486899 0 2.35839e+06 -490236 0 2.36e+06 -493566 0 2.36166e+06 -496888 0 2.36337e+06 -500202 0 2.36513e+06 -503507 0 2.36694e+06 -506804 0 2.36879e+06 -510093 0 2.37069e+06 -513378 0 2.37264e+06 -516662 0 2.37465e+06 -519950 0 2.37672e+06 -523252 0 2.37886e+06 -526578 0 2.38109e+06 -529944 0 2.38343e+06 -533372 0 2.38591e+06 -536889 0 2.38858e+06 -540532 0 2.45469e+06 -218752 0 2.45338e+06 -220480 0 2.45208e+06 -222227 0 2.45079e+06 -223990 0 2.4495e+06 -225768 0 2.44823e+06 -227560 0 2.44696e+06 -229363 0 2.44572e+06 -231179 0 2.44448e+06 -233006 0 2.44326e+06 -234844 0 2.44205e+06 -236692 0 2.44086e+06 -238551 0 2.43969e+06 -240420 0 2.43853e+06 -242299 0 2.43738e+06 -244188 0 2.43625e+06 -246087 0 2.43514e+06 -247997 0 2.43404e+06 -249916 0 2.43296e+06 -251846 0 2.43189e+06 -253786 0 2.43085e+06 -255737 0 2.42981e+06 -257698 0 2.4288e+06 -259670 0 2.4278e+06 -261652 0 2.42681e+06 -263646 0 2.42585e+06 -265650 0 2.4249e+06 -267665 0 2.42397e+06 -269692 0 2.42305e+06 -271730 0 2.42216e+06 -273779 0 2.42128e+06 -275840 0 2.42041e+06 -277913 0 2.41957e+06 -279998 0 2.41874e+06 -282095 0 2.41793e+06 -284204 0 2.41714e+06 -286326 0 2.41637e+06 -288460 0 2.41562e+06 -290607 0 2.41488e+06 -292767 0 2.41416e+06 -294941 0 2.41347e+06 -297127 0 2.41279e+06 -299327 0 2.41213e+06 -301541 0 2.4115e+06 -303769 0 2.41088e+06 -306011 0 2.41029e+06 -308267 0 2.40971e+06 -310537 0 2.40916e+06 -312822 0 2.40862e+06 -315122 0 2.40811e+06 -317437 0 2.40763e+06 -319767 0 2.40716e+06 -322112 0 2.40672e+06 -324473 0 2.4063e+06 -326849 0 2.40591e+06 -329241 0 2.40554e+06 -331649 0 2.40519e+06 -334073 0 2.40487e+06 -336513 0 2.40458e+06 -338969 0 2.40431e+06 -341442 0 2.40407e+06 -343931 0 2.40385e+06 -346436 0 2.40367e+06 -348958 0 2.40351e+06 -351497 0 2.40338e+06 -354052 0 2.40328e+06 -356624 0 2.40321e+06 -359212 0 2.40317e+06 -361817 0 2.40317e+06 -364439 0 2.40319e+06 -367077 0 2.40325e+06 -369731 0 2.40334e+06 -372401 0 2.40346e+06 -375088 0 2.40362e+06 -377790 0 2.40381e+06 -380508 0 2.40404e+06 -383242 0 2.4043e+06 -385991 0 2.40461e+06 -388755 0 2.40495e+06 -391534 0 2.40532e+06 -394327 0 2.40574e+06 -397135 0 2.4062e+06 -399956 0 2.40669e+06 -402790 0 2.40723e+06 -405637 0 2.4078e+06 -408497 0 2.40842e+06 -411369 0 2.40909e+06 -414252 0 2.40979e+06 -417147 0 2.41054e+06 -420052 0 2.41133e+06 -422966 0 2.41217e+06 -425890 0 2.41305e+06 -428823 0 2.41398e+06 -431764 0 2.41495e+06 -434712 0 2.41597e+06 -437667 0 2.41703e+06 -440627 0 2.41814e+06 -443594 0 2.4193e+06 -446564 0 2.42051e+06 -449539 0 2.42176e+06 -452517 0 2.42307e+06 -455497 0 2.42442e+06 -458479 0 2.42582e+06 -461462 0 2.42726e+06 -464445 0 2.42876e+06 -467428 0 2.4303e+06 -470410 0 2.4319e+06 -473389 0 2.43354e+06 -476366 0 2.43523e+06 -479341 0 2.43697e+06 -482311 0 2.43876e+06 -485277 0 2.4406e+06 -488238 0 2.44248e+06 -491194 0 2.44442e+06 -494144 0 2.44641e+06 -497087 0 2.44845e+06 -500024 0 2.45054e+06 -502952 0 2.45269e+06 -505870 0 2.45488e+06 -508779 0 2.45712e+06 -511674 0 2.45941e+06 -514554 0 2.46176e+06 -517415 0 2.46414e+06 -520252 0 2.46656e+06 -523058 0 2.46902e+06 -525823 0 2.47149e+06 -528535 0 2.47397e+06 -531177 0 2.47643e+06 -533726 0 2.51744e+06 -227223 0 2.51602e+06 -229014 0 2.51462e+06 -230808 0 2.51324e+06 -232607 0 2.51188e+06 -234413 0 2.51054e+06 -236225 0 2.50921e+06 -238045 0 2.50791e+06 -239874 0 2.50663e+06 -241710 0 2.50536e+06 -243556 0 2.50412e+06 -245410 0 2.50289e+06 -247273 0 2.50169e+06 -249146 0 2.5005e+06 -251029 0 2.49933e+06 -252921 0 2.49818e+06 -254823 0 2.49705e+06 -256734 0 2.49594e+06 -258656 0 2.49485e+06 -260588 0 2.49378e+06 -262530 0 2.49273e+06 -264482 0 2.4917e+06 -266444 0 2.49069e+06 -268417 0 2.4897e+06 -270400 0 2.48873e+06 -272394 0 2.48779e+06 -274398 0 2.48686e+06 -276413 0 2.48596e+06 -278439 0 2.48508e+06 -280476 0 2.48422e+06 -282524 0 2.48338e+06 -284583 0 2.48257e+06 -286653 0 2.48178e+06 -288735 0 2.48101e+06 -290828 0 2.48026e+06 -292932 0 2.47954e+06 -295048 0 2.47884e+06 -297175 0 2.47817e+06 -299314 0 2.47752e+06 -301465 0 2.47689e+06 -303628 0 2.47629e+06 -305803 0 2.47571e+06 -307989 0 2.47516e+06 -310188 0 2.47464e+06 -312399 0 2.47414e+06 -314623 0 2.47366e+06 -316859 0 2.47322e+06 -319107 0 2.4728e+06 -321367 0 2.4724e+06 -323640 0 2.47204e+06 -325926 0 2.4717e+06 -328224 0 2.47139e+06 -330535 0 2.47111e+06 -332858 0 2.47086e+06 -335194 0 2.47064e+06 -337542 0 2.47045e+06 -339904 0 2.47028e+06 -342278 0 2.47015e+06 -344664 0 2.47005e+06 -347063 0 2.46998e+06 -349475 0 2.46995e+06 -351899 0 2.46994e+06 -354335 0 2.46997e+06 -356784 0 2.47003e+06 -359245 0 2.47013e+06 -361718 0 2.47026e+06 -364203 0 2.47042e+06 -366700 0 2.47062e+06 -369208 0 2.47085e+06 -371729 0 2.47112e+06 -374260 0 2.47143e+06 -376803 0 2.47177e+06 -379356 0 2.47215e+06 -381921 0 2.47257e+06 -384495 0 2.47303e+06 -387080 0 2.47352e+06 -389675 0 2.47406e+06 -392280 0 2.47463e+06 -394893 0 2.47525e+06 -397516 0 2.4759e+06 -400147 0 2.47659e+06 -402787 0 2.47733e+06 -405435 0 2.47811e+06 -408090 0 2.47893e+06 -410752 0 2.47979e+06 -413420 0 2.4807e+06 -416095 0 2.48164e+06 -418776 0 2.48264e+06 -421462 0 2.48367e+06 -424153 0 2.48475e+06 -426848 0 2.48587e+06 -429547 0 2.48704e+06 -432249 0 2.48826e+06 -434955 0 2.48951e+06 -437662 0 2.49082e+06 -440371 0 2.49217e+06 -443081 0 2.49356e+06 -445792 0 2.495e+06 -448503 0 2.49649e+06 -451214 0 2.49802e+06 -453923 0 2.4996e+06 -456631 0 2.50122e+06 -459337 0 2.5029e+06 -462040 0 2.50461e+06 -464740 0 2.50638e+06 -467435 0 2.50819e+06 -470126 0 2.51005e+06 -472812 0 2.51195e+06 -475492 0 2.5139e+06 -478165 0 2.5159e+06 -480832 0 2.51794e+06 -483491 0 2.52003e+06 -486141 0 2.52216e+06 -488782 0 2.52434e+06 -491414 0 2.52656e+06 -494035 0 2.52883e+06 -496645 0 2.53114e+06 -499244 0 2.53349e+06 -501831 0 2.53589e+06 -504405 0 2.53833e+06 -506967 0 2.54081e+06 -509517 0 2.54333e+06 -512056 0 2.54589e+06 -514586 0 2.5485e+06 -517109 0 2.55116e+06 -519630 0 2.55387e+06 -522155 0 2.55664e+06 -524692 0 2.55948e+06 -527255 0 2.58082e+06 -233446 0 2.57934e+06 -235216 0 2.57787e+06 -236998 0 2.57643e+06 -238789 0 2.57501e+06 -240590 0 2.5736e+06 -242400 0 2.57222e+06 -244220 0 2.57086e+06 -246048 0 2.56952e+06 -247885 0 2.56821e+06 -249730 0 2.56691e+06 -251585 0 2.56564e+06 -253448 0 2.56439e+06 -255320 0 2.56317e+06 -257201 0 2.56197e+06 -259091 0 2.56079e+06 -260990 0 2.55963e+06 -262898 0 2.5585e+06 -264815 0 2.55739e+06 -266741 0 2.55631e+06 -268676 0 2.55525e+06 -270621 0 2.55421e+06 -272575 0 2.5532e+06 -274539 0 2.55221e+06 -276512 0 2.55125e+06 -278494 0 2.55032e+06 -280486 0 2.54941e+06 -282488 0 2.54852e+06 -284500 0 2.54766e+06 -286521 0 2.54683e+06 -288552 0 2.54603e+06 -290593 0 2.54525e+06 -292644 0 2.54449e+06 -294705 0 2.54377e+06 -296776 0 2.54307e+06 -298857 0 2.5424e+06 -300948 0 2.54176e+06 -303049 0 2.54114e+06 -305160 0 2.54056e+06 -307281 0 2.54e+06 -309413 0 2.53947e+06 -311554 0 2.53897e+06 -313706 0 2.53851e+06 -315869 0 2.53807e+06 -318041 0 2.53766e+06 -320223 0 2.53728e+06 -322416 0 2.53693e+06 -324619 0 2.53661e+06 -326832 0 2.53633e+06 -329055 0 2.53608e+06 -331288 0 2.53585e+06 -333532 0 2.53566e+06 -335785 0 2.53551e+06 -338048 0 2.53539e+06 -340321 0 2.5353e+06 -342604 0 2.53524e+06 -344897 0 2.53522e+06 -347199 0 2.53523e+06 -349511 0 2.53528e+06 -351832 0 2.53536e+06 -354163 0 2.53548e+06 -356503 0 2.53563e+06 -358852 0 2.53583e+06 -361209 0 2.53605e+06 -363576 0 2.53632e+06 -365951 0 2.53662e+06 -368334 0 2.53696e+06 -370725 0 2.53733e+06 -373125 0 2.53775e+06 -375532 0 2.5382e+06 -377947 0 2.5387e+06 -380369 0 2.53923e+06 -382798 0 2.5398e+06 -385234 0 2.54042e+06 -387676 0 2.54107e+06 -390125 0 2.54176e+06 -392580 0 2.5425e+06 -395040 0 2.54327e+06 -397505 0 2.54409e+06 -399976 0 2.54495e+06 -402451 0 2.54585e+06 -404930 0 2.5468e+06 -407413 0 2.54779e+06 -409900 0 2.54882e+06 -412390 0 2.54989e+06 -414883 0 2.55101e+06 -417378 0 2.55217e+06 -419875 0 2.55337e+06 -422374 0 2.55462e+06 -424874 0 2.55592e+06 -427375 0 2.55725e+06 -429876 0 2.55864e+06 -432376 0 2.56006e+06 -434876 0 2.56153e+06 -437375 0 2.56305e+06 -439873 0 2.56461e+06 -442368 0 2.56622e+06 -444862 0 2.56787e+06 -447352 0 2.56957e+06 -449839 0 2.57131e+06 -452322 0 2.5731e+06 -454800 0 2.57493e+06 -457274 0 2.57681e+06 -459743 0 2.57873e+06 -462206 0 2.5807e+06 -464663 0 2.58271e+06 -467113 0 2.58477e+06 -469556 0 2.58687e+06 -471992 0 2.58902e+06 -474420 0 2.59121e+06 -476839 0 2.59345e+06 -479250 0 2.59573e+06 -481651 0 2.59805e+06 -484044 0 2.60042e+06 -486426 0 2.60283e+06 -488799 0 2.60529e+06 -491161 0 2.60779e+06 -493512 0 2.61033e+06 -495852 0 2.61292e+06 -498181 0 2.61555e+06 -500498 0 2.61823e+06 -502803 0 2.62095e+06 -505094 0 2.62371e+06 -507370 0 2.62651e+06 -509630 0 2.62935e+06 -511870 0 2.63223e+06 -514088 0 2.63514e+06 -516278 0 2.63808e+06 -518432 0 2.64445e+06 -237313 0 2.64288e+06 -239100 0 2.64133e+06 -240892 0 2.6398e+06 -242691 0 2.6383e+06 -244497 0 2.63683e+06 -246309 0 2.63538e+06 -248129 0 2.63396e+06 -249956 0 2.63256e+06 -251791 0 2.63119e+06 -253633 0 2.62984e+06 -255483 0 2.62852e+06 -257340 0 2.62722e+06 -259206 0 2.62595e+06 -261079 0 2.62471e+06 -262960 0 2.6235e+06 -264850 0 2.62231e+06 -266747 0 2.62114e+06 -268652 0 2.62001e+06 -270566 0 2.6189e+06 -272488 0 2.61782e+06 -274418 0 2.61677e+06 -276356 0 2.61575e+06 -278302 0 2.61475e+06 -280257 0 2.61379e+06 -282220 0 2.61285e+06 -284192 0 2.61194e+06 -286172 0 2.61106e+06 -288160 0 2.61021e+06 -290157 0 2.60939e+06 -292162 0 2.6086e+06 -294175 0 2.60784e+06 -296197 0 2.60711e+06 -298228 0 2.60641e+06 -300267 0 2.60574e+06 -302315 0 2.60511e+06 -304370 0 2.6045e+06 -306435 0 2.60393e+06 -308508 0 2.60339e+06 -310589 0 2.60288e+06 -312679 0 2.6024e+06 -314777 0 2.60196e+06 -316883 0 2.60155e+06 -318998 0 2.60117e+06 -321121 0 2.60083e+06 -323252 0 2.60052e+06 -325391 0 2.60024e+06 -327539 0 2.6e+06 -329694 0 2.59979e+06 -331857 0 2.59962e+06 -334028 0 2.59949e+06 -336207 0 2.59939e+06 -338394 0 2.59933e+06 -340588 0 2.5993e+06 -342790 0 2.59931e+06 -344999 0 2.59935e+06 -347215 0 2.59944e+06 -349438 0 2.59956e+06 -351668 0 2.59972e+06 -353906 0 2.59991e+06 -356149 0 2.60015e+06 -358399 0 2.60042e+06 -360656 0 2.60073e+06 -362918 0 2.60109e+06 -365187 0 2.60148e+06 -367461 0 2.60191e+06 -369741 0 2.60238e+06 -372026 0 2.60289e+06 -374316 0 2.60345e+06 -376611 0 2.60404e+06 -378911 0 2.60467e+06 -381215 0 2.60535e+06 -383523 0 2.60607e+06 -385835 0 2.60683e+06 -388151 0 2.60763e+06 -390469 0 2.60847e+06 -392791 0 2.60936e+06 -395116 0 2.61029e+06 -397442 0 2.61126e+06 -399771 0 2.61228e+06 -402102 0 2.61334e+06 -404434 0 2.61444e+06 -406767 0 2.61559e+06 -409101 0 2.61678e+06 -411435 0 2.61801e+06 -413769 0 2.61929e+06 -416103 0 2.62062e+06 -418437 0 2.62198e+06 -420769 0 2.6234e+06 -423100 0 2.62485e+06 -425429 0 2.62636e+06 -427755 0 2.6279e+06 -430080 0 2.6295e+06 -432401 0 2.63113e+06 -434719 0 2.63281e+06 -437033 0 2.63454e+06 -439343 0 2.63631e+06 -441649 0 2.63813e+06 -443950 0 2.63999e+06 -446245 0 2.6419e+06 -448535 0 2.64385e+06 -450819 0 2.64585e+06 -453096 0 2.64789e+06 -455366 0 2.64998e+06 -457630 0 2.65211e+06 -459885 0 2.65429e+06 -462133 0 2.65651e+06 -464373 0 2.65877e+06 -466603 0 2.66108e+06 -468825 0 2.66344e+06 -471037 0 2.66584e+06 -473240 0 2.66828e+06 -475432 0 2.67076e+06 -477613 0 2.67329e+06 -479784 0 2.67586e+06 -481943 0 2.67848e+06 -484091 0 2.68114e+06 -486226 0 2.68384e+06 -488349 0 2.68658e+06 -490459 0 2.68936e+06 -492556 0 2.69219e+06 -494640 0 2.69505e+06 -496710 0 2.69796e+06 -498767 0 2.70091e+06 -500811 0 2.7039e+06 -502843 0 2.70693e+06 -504865 0 2.71e+06 -506878 0 2.71312e+06 -508887 0 2.70778e+06 -239287 0 2.70612e+06 -241066 0 2.70449e+06 -242852 0 2.70289e+06 -244646 0 2.70131e+06 -246446 0 2.69976e+06 -248253 0 2.69824e+06 -250067 0 2.69675e+06 -251888 0 2.69529e+06 -253715 0 2.69385e+06 -255549 0 2.69244e+06 -257390 0 2.69107e+06 -259238 0 2.68972e+06 -261093 0 2.6884e+06 -262954 0 2.68711e+06 -264823 0 2.68585e+06 -266698 0 2.68462e+06 -268581 0 2.68342e+06 -270470 0 2.68225e+06 -272367 0 2.68111e+06 -274270 0 2.68e+06 -276180 0 2.67892e+06 -278098 0 2.67788e+06 -280022 0 2.67686e+06 -281954 0 2.67588e+06 -283893 0 2.67493e+06 -285839 0 2.67401e+06 -287792 0 2.67312e+06 -289752 0 2.67227e+06 -291719 0 2.67145e+06 -293693 0 2.67066e+06 -295674 0 2.66991e+06 -297662 0 2.66919e+06 -299657 0 2.6685e+06 -301659 0 2.66784e+06 -303668 0 2.66723e+06 -305684 0 2.66664e+06 -307707 0 2.66609e+06 -309737 0 2.66558e+06 -311773 0 2.6651e+06 -313816 0 2.66465e+06 -315866 0 2.66425e+06 -317923 0 2.66388e+06 -319986 0 2.66354e+06 -322055 0 2.66324e+06 -324131 0 2.66298e+06 -326213 0 2.66275e+06 -328301 0 2.66257e+06 -330395 0 2.66242e+06 -332496 0 2.66231e+06 -334602 0 2.66223e+06 -336714 0 2.6622e+06 -338831 0 2.6622e+06 -340954 0 2.66224e+06 -343083 0 2.66232e+06 -345217 0 2.66245e+06 -347355 0 2.66261e+06 -349499 0 2.66281e+06 -351648 0 2.66305e+06 -353801 0 2.66333e+06 -355958 0 2.66365e+06 -358120 0 2.66402e+06 -360286 0 2.66442e+06 -362456 0 2.66487e+06 -364629 0 2.66535e+06 -366806 0 2.66588e+06 -368986 0 2.66645e+06 -371169 0 2.66707e+06 -373355 0 2.66772e+06 -375543 0 2.66842e+06 -377734 0 2.66917e+06 -379927 0 2.66995e+06 -382121 0 2.67078e+06 -384317 0 2.67165e+06 -386515 0 2.67257e+06 -388713 0 2.67353e+06 -390912 0 2.67453e+06 -393112 0 2.67558e+06 -395311 0 2.67667e+06 -397511 0 2.67781e+06 -39970