<?xml version="1.0"?> 
<VTKFile type="StructuredGrid" version="0.1"> 
<StructuredGrid WholeExtent="0 127 0 127 0 0"> 
<Piece Extent="0 127 0 127 0 0"> 
<PointData>
<DataArray type="Float32" Name="E" format="ascii" NumberOfComponents="3"> 
-865539 -3.09511e+06 0 -860949 -3.10211e+06 0 -856365 -3.10913e+06 0 -851777 -3.11615e+06 0 -847184 -3.12318e+06 0 -842587 -3.13021e+06 0 -837986 -3.13725e+06 0 -833383 -3.1443e+06 0 -828778 -3.15134e+06 0 -824171 -3.1584e+06 0 -819564 -3.16546e+06 0 -814957 -3.17253e+06 0 -810350 -3.17961e+06 0 -805746 -3.1867e+06 0 -801144 -3.19379e+06 0 -796546 -3.2009e+06 0 -791951 -3.20801e+06 0 -787363 -3.21514e+06 0 -782780 -3.22228e+06 0 -778204 -3.22944e+06 0 -773637 -3.23661e+06 0 -769079 -3.24379e+06 0 -764531 -3.25099e+06 0 -759994 -3.25821e+06 0 -755470 -3.26545e+06 0 -750960 -3.2727e+06 0 -746465 -3.27998e+06 0 -741986 -3.28728e+06 0 -737524 -3.29461e+06 0 -733081 -3.30196e+06 0 -728657 -3.30934e+06 0 -724256 -3.31675e+06 0 -719876 -3.32419e+06 0 -715521 -3.33166e+06 0 -711191 -3.33917e+06 0 -706889 -3.34672e+06 0 -702614 -3.35431e+06 0 -698370 -3.36193e+06 0 -694157 -3.36961e+06 0 -689977 -3.37733e+06 0 -685832 -3.3851e+06 0 -681723 -3.39293e+06 0 -677651 -3.40081e+06 0 -673619 -3.40875e+06 0 -669628 -3.41675e+06 0 -665680 -3.42482e+06 0 -661776 -3.43296e+06 0 -657919 -3.44117e+06 0 -654109 -3.44946e+06 0 -650349 -3.45784e+06 0 -646640 -3.4663e+06 0 -642984 -3.47485e+06 0 -639383 -3.4835e+06 0 -635839 -3.49225e+06 0 -632353 -3.50111e+06 0 -628928 -3.51008e+06 0 -625564 -3.51917e+06 0 -622265 -3.52839e+06 0 -619031 -3.53773e+06 0 -615864 -3.54722e+06 0 -612768 -3.55685e+06 0 -609742 -3.56663e+06 0 -606790 -3.57657e+06 0 -603913 -3.58668e+06 0 -601113 -3.59697e+06 0 -598392 -3.60745e+06 0 -595753 -3.61812e+06 0 -593197 -3.62899e+06 0 -590727 -3.64009e+06 0 -588345 -3.65141e+06 0 -586053 -3.66297e+06 0 -583854 -3.67478e+06 0 -581750 -3.68685e+06 0 -579744 -3.6992e+06 0 -577839 -3.71185e+06 0 -576038 -3.7248e+06 0 -574343 -3.73808e+06 0 -572758 -3.75171e+06 0 -571287 -3.76569e+06 0 -569932 -3.78006e+06 0 -568697 -3.79483e+06 0 -567586 -3.81004e+06 0 -566603 -3.8257e+06 0 -565751 -3.84184e+06 0 -565034 -3.85849e+06 0 -564456 -3.87569e+06 0 -564020 -3.89347e+06 0 -563728 -3.91187e+06 0 -563584 -3.93093e+06 0 -563590 -3.95069e+06 0 -563746 -3.97122e+06 0 -564053 -3.99255e+06 0 -564509 -4.01476e+06 0 -565110 -4.03789e+06 0 -565852 -4.06204e+06 0 -566725 -4.08726e+06 0 -567719 -4.11364e+06 0 -568818 -4.14128e+06 0 -570001 -4.17027e+06 0 -571244 -4.20072e+06 0 -572514 -4.23273e+06 0 -573771 -4.26644e+06 0 -574966 -4.30198e+06 0 -576042 -4.33949e+06 0 -576927 -4.37913e+06 0 -577537 -4.42105e+06 0 -577774 -4.46545e+06 0 -577521 -4.51249e+06 0 -576642 -4.56239e+06 0 -574978 -4.61536e+06 0 -572345 -4.67161e+06 0 -568534 -4.73139e+06 0 -563300 -4.79493e+06 0 -556367 -4.86249e+06 0 -547419 -4.93433e+06 0 -536095 -5.01073e+06 0 -521989 -5.09197e+06 0 -504641 -5.17832e+06 0 -483532 -5.27008e+06 0 -458079 -5.36753e+06 0 -427627 -5.47095e+06 0 -391440 -5.58063e+06 0 -348694 -5.69682e+06 0 -298466 -5.81977e+06 0 -239714 -5.94972e+06 0 -171283 -6.08679e+06 0 -91787.8 -6.2314e+06 0 -2.86102e-06 -6.38271e+06 0 -861941 -3.07931e+06 0 -857347 -3.08623e+06 0 -852742 -3.09315e+06 0 -848134 -3.10008e+06 0 -843522 -3.107e+06 0 -838904 -3.11393e+06 0 -834283 -3.12087e+06 0 -829658 -3.12781e+06 0 -825030 -3.13476e+06 0 -820400 -3.14171e+06 0 -815768 -3.14867e+06 0 -811135 -3.15564e+06 0 -806502 -3.16262e+06 0 -801870 -3.1696e+06 0 -797238 -3.17659e+06 0 -792609 -3.18359e+06 0 -787982 -3.19061e+06 0 -783359 -3.19763e+06 0 -778741 -3.20466e+06 0 -774128 -3.21171e+06 0 -769522 -3.21878e+06 0 -764923 -3.22585e+06 0 -760332 -3.23295e+06 0 -755750 -3.24006e+06 0 -751179 -3.24718e+06 0 -746619 -3.25433e+06 0 -742071 -3.2615e+06 0 -737538 -3.26869e+06 0 -733018 -3.2759e+06 0 -728515 -3.28314e+06 0 -724029 -3.29041e+06 0 -719561 -3.2977e+06 0 -715113 -3.30502e+06 0 -710685 -3.31238e+06 0 -706279 -3.31976e+06 0 -701897 -3.32719e+06 0 -697539 -3.33465e+06 0 -693208 -3.34215e+06 0 -688904 -3.3497e+06 0 -684628 -3.35729e+06 0 -680383 -3.36492e+06 0 -676169 -3.37261e+06 0 -671989 -3.38035e+06 0 -667843 -3.38815e+06 0 -663732 -3.396e+06 0 -659660 -3.40392e+06 0 -655626 -3.41191e+06 0 -651632 -3.41996e+06 0 -647681 -3.42809e+06 0 -643773 -3.4363e+06 0 -639910 -3.44459e+06 0 -636093 -3.45296e+06 0 -632324 -3.46143e+06 0 -628605 -3.46999e+06 0 -624937 -3.47865e+06 0 -621321 -3.48742e+06 0 -617759 -3.4963e+06 0 -614253 -3.50529e+06 0 -610804 -3.51441e+06 0 -607413 -3.52366e+06 0 -604083 -3.53305e+06 0 -600814 -3.54258e+06 0 -597609 -3.55225e+06 0 -594468 -3.56209e+06 0 -591393 -3.57209e+06 0 -588387 -3.58227e+06 0 -585449 -3.59263e+06 0 -582582 -3.60318e+06 0 -579788 -3.61393e+06 0 -577068 -3.6249e+06 0 -574423 -3.63609e+06 0 -571856 -3.64751e+06 0 -569368 -3.65918e+06 0 -566961 -3.6711e+06 0 -564637 -3.6833e+06 0 -562396 -3.69578e+06 0 -560243 -3.70857e+06 0 -558177 -3.72167e+06 0 -556202 -3.73511e+06 0 -554319 -3.7489e+06 0 -552530 -3.76307e+06 0 -550837 -3.77762e+06 0 -549242 -3.7926e+06 0 -547747 -3.80802e+06 0 -546353 -3.8239e+06 0 -545063 -3.84028e+06 0 -543876 -3.85719e+06 0 -542794 -3.87465e+06 0 -541817 -3.89272e+06 0 -540945 -3.91142e+06 0 -540176 -3.93079e+06 0 -539508 -3.9509e+06 0 -538936 -3.97177e+06 0 -538456 -3.99347e+06 0 -538061 -4.01607e+06 0 -537739 -4.03961e+06 0 -537479 -4.06417e+06 0 -537265 -4.08983e+06 0 -537076 -4.11666e+06 0 -536887 -4.14476e+06 0 -536669 -4.17422e+06 0 -536385 -4.20513e+06 0 -535990 -4.23762e+06 0 -535432 -4.27179e+06 0 -534648 -4.30778e+06 0 -533566 -4.34572e+06 0 -532100 -4.38574e+06 0 -530148 -4.42801e+06 0 -527595 -4.47269e+06 0 -524305 -4.51994e+06 0 -520125 -4.56995e+06 0 -514876 -4.6229e+06 0 -508354 -4.67899e+06 0 -500328 -4.73842e+06 0 -490535 -4.8014e+06 0 -478677 -4.86816e+06 0 -464418 -4.9389e+06 0 -447377 -5.01386e+06 0 -427130 -5.09326e+06 0 -403199 -5.17731e+06 0 -375049 -5.26625e+06 0 -342082 -5.36026e+06 0 -303634 -5.45957e+06 0 -258962 -5.56433e+06 0 -207238 -5.67473e+06 0 -147546 -5.79086e+06 0 -78858 -5.91282e+06 0 1.83843e-06 -6.04075e+06 0 -858370 -3.06358e+06 0 -853759 -3.0704e+06 0 -849140 -3.07722e+06 0 -844514 -3.08404e+06 0 -839882 -3.09087e+06 0 -835246 -3.0977e+06 0 -830605 -3.10453e+06 0 -825960 -3.11137e+06 0 -821310 -3.11822e+06 0 -816658 -3.12507e+06 0 -812003 -3.13193e+06 0 -807346 -3.13879e+06 0 -802687 -3.14566e+06 0 -798028 -3.15254e+06 0 -793369 -3.15943e+06 0 -788710 -3.16633e+06 0 -784053 -3.17324e+06 0 -779399 -3.18016e+06 0 -774747 -3.18709e+06 0 -770099 -3.19403e+06 0 -765456 -3.20099e+06 0 -760818 -3.20796e+06 0 -756187 -3.21495e+06 0 -751563 -3.22195e+06 0 -746948 -3.22897e+06 0 -742341 -3.236e+06 0 -737745 -3.24306e+06 0 -733160 -3.25014e+06 0 -728588 -3.25724e+06 0 -724028 -3.26437e+06 0 -719483 -3.27152e+06 0 -714954 -3.27869e+06 0 -710441 -3.2859e+06 0 -705946 -3.29313e+06 0 -701469 -3.3004e+06 0 -697013 -3.3077e+06 0 -692578 -3.31504e+06 0 -688165 -3.32241e+06 0 -683776 -3.32983e+06 0 -679412 -3.33729e+06 0 -675074 -3.34479e+06 0 -670764 -3.35234e+06 0 -666482 -3.35994e+06 0 -662230 -3.36759e+06 0 -658009 -3.37531e+06 0 -653821 -3.38307e+06 0 -649667 -3.39091e+06 0 -645548 -3.3988e+06 0 -641465 -3.40677e+06 0 -637420 -3.41481e+06 0 -633414 -3.42293e+06 0 -629449 -3.43113e+06 0 -625525 -3.43941e+06 0 -621644 -3.44779e+06 0 -617807 -3.45626e+06 0 -614016 -3.46483e+06 0 -610272 -3.4735e+06 0 -606575 -3.48228e+06 0 -602928 -3.49118e+06 0 -599332 -3.5002e+06 0 -595787 -3.50935e+06 0 -592295 -3.51863e+06 0 -588857 -3.52805e+06 0 -585475 -3.53762e+06 0 -582149 -3.54734e+06 0 -578880 -3.55723e+06 0 -575670 -3.56728e+06 0 -572520 -3.57752e+06 0 -569430 -3.58794e+06 0 -566403 -3.59857e+06 0 -563438 -3.60939e+06 0 -560537 -3.62044e+06 0 -557702 -3.63171e+06 0 -554932 -3.64323e+06 0 -552229 -3.655e+06 0 -549595 -3.66703e+06 0 -547029 -3.67934e+06 0 -544534 -3.69194e+06 0 -542109 -3.70485e+06 0 -539755 -3.71809e+06 0 -537474 -3.73167e+06 0 -535266 -3.74562e+06 0 -533132 -3.75994e+06 0 -531072 -3.77467e+06 0 -529085 -3.78982e+06 0 -527172 -3.80543e+06 0 -525333 -3.82151e+06 0 -523566 -3.8381e+06 0 -521870 -3.85523e+06 0 -520242 -3.87293e+06 0 -518680 -3.89124e+06 0 -517179 -3.9102e+06 0 -515734 -3.92985e+06 0 -514338 -3.95023e+06 0 -512983 -3.9714e+06 0 -511657 -3.99341e+06 0 -510347 -4.01632e+06 0 -509038 -4.04018e+06 0 -507709 -4.06508e+06 0 -506336 -4.09107e+06 0 -504892 -4.11824e+06 0 -503342 -4.14668e+06 0 -501647 -4.17646e+06 0 -499759 -4.2077e+06 0 -497623 -4.24048e+06 0 -495176 -4.27493e+06 0 -492342 -4.31115e+06 0 -489035 -4.34928e+06 0 -485154 -4.38944e+06 0 -480586 -4.43177e+06 0 -475199 -4.47641e+06 0 -468843 -4.52352e+06 0 -461347 -4.57326e+06 0 -452517 -4.62578e+06 0 -442135 -4.68125e+06 0 -429952 -4.73985e+06 0 -415690 -4.80175e+06 0 -399036 -4.86713e+06 0 -379640 -4.93616e+06 0 -357111 -5.00901e+06 0 -331011 -5.08585e+06 0 -300854 -5.16685e+06 0 -266100 -5.25214e+06 0 -226149 -5.34187e+06 0 -180337 -5.43614e+06 0 -127928 -5.53504e+06 0 -68113.7 -5.6386e+06 0 -8.56817e-07 -5.74692e+06 0 -854818 -3.04789e+06 0 -850191 -3.05461e+06 0 -845556 -3.06133e+06 0 -840915 -3.06805e+06 0 -836266 -3.07478e+06 0 -831611 -3.08151e+06 0 -826951 -3.08824e+06 0 -822286 -3.09498e+06 0 -817617 -3.10172e+06 0 -812943 -3.10847e+06 0 -808266 -3.11523e+06 0 -803586 -3.12199e+06 0 -798904 -3.12876e+06 0 -794220 -3.13553e+06 0 -789534 -3.14232e+06 0 -784849 -3.14911e+06 0 -780163 -3.15592e+06 0 -775479 -3.16273e+06 0 -770796 -3.16956e+06 0 -766115 -3.1764e+06 0 -761437 -3.18325e+06 0 -756764 -3.19011e+06 0 -752095 -3.19699e+06 0 -747432 -3.20388e+06 0 -742775 -3.21079e+06 0 -738125 -3.21772e+06 0 -733483 -3.22467e+06 0 -728851 -3.23163e+06 0 -724228 -3.23862e+06 0 -719617 -3.24563e+06 0 -715017 -3.25267e+06 0 -710430 -3.25973e+06 0 -705857 -3.26681e+06 0 -701299 -3.27393e+06 0 -696757 -3.28108e+06 0 -692232 -3.28826e+06 0 -687725 -3.29547e+06 0 -683237 -3.30272e+06 0 -678769 -3.31e+06 0 -674323 -3.31733e+06 0 -669899 -3.3247e+06 0 -665498 -3.33212e+06 0 -661122 -3.33958e+06 0 -656772 -3.34709e+06 0 -652449 -3.35466e+06 0 -648154 -3.36228e+06 0 -643888 -3.36996e+06 0 -639653 -3.3777e+06 0 -635449 -3.38551e+06 0 -631277 -3.39339e+06 0 -627139 -3.40134e+06 0 -623036 -3.40936e+06 0 -618969 -3.41747e+06 0 -614940 -3.42566e+06 0 -610948 -3.43394e+06 0 -606995 -3.44231e+06 0 -603082 -3.45078e+06 0 -599211 -3.45935e+06 0 -595382 -3.46803e+06 0 -591596 -3.47683e+06 0 -587854 -3.48574e+06 0 -584158 -3.49478e+06 0 -580507 -3.50395e+06 0 -576903 -3.51326e+06 0 -573347 -3.52271e+06 0 -569839 -3.53232e+06 0 -566380 -3.54208e+06 0 -562971 -3.55201e+06 0 -559612 -3.56212e+06 0 -556305 -3.57241e+06 0 -553050 -3.58289e+06 0 -549847 -3.59357e+06 0 -546696 -3.60447e+06 0 -543599 -3.61558e+06 0 -540555 -3.62694e+06 0 -537566 -3.63853e+06 0 -534630 -3.65039e+06 0 -531749 -3.66251e+06 0 -528922 -3.67492e+06 0 -526149 -3.68763e+06 0 -523431 -3.70065e+06 0 -520766 -3.71401e+06 0 -518155 -3.72771e+06 0 -515596 -3.74179e+06 0 -513089 -3.75625e+06 0 -510632 -3.77112e+06 0 -508223 -3.78643e+06 0 -505860 -3.80219e+06 0 -503541 -3.81845e+06 0 -501261 -3.83521e+06 0 -499017 -3.85253e+06 0 -496803 -3.87042e+06 0 -494612 -3.88893e+06 0 -492438 -3.9081e+06 0 -490270 -3.92796e+06 0 -488097 -3.94857e+06 0 -485906 -3.96996e+06 0 -483681 -3.9922e+06 0 -481402 -4.01534e+06 0 -479047 -4.03943e+06 0 -476589 -4.06456e+06 0 -473998 -4.09077e+06 0 -471238 -4.11815e+06 0 -468266 -4.14678e+06 0 -465034 -4.17674e+06 0 -461485 -4.20812e+06 0 -457553 -4.24102e+06 0 -453166 -4.27553e+06 0 -448235 -4.31177e+06 0 -442664 -4.34984e+06 0 -436341 -4.38986e+06 0 -429140 -4.43195e+06 0 -420916 -4.47624e+06 0 -411508 -4.52286e+06 0 -400732 -4.57195e+06 0 -388382 -4.62363e+06 0 -374228 -4.67804e+06 0 -358012 -4.73534e+06 0 -339443 -4.79564e+06 0 -318203 -4.8591e+06 0 -293931 -4.92583e+06 0 -266233 -4.99596e+06 0 -234668 -5.0696e+06 0 -198751 -5.14685e+06 0 -157947 -5.22779e+06 0 -111664 -5.31248e+06 0 -59253.2 -5.40093e+06 0 -4.20958e-07 -5.49321e+06 0 -851285 -3.03225e+06 0 -846642 -3.03886e+06 0 -841992 -3.04548e+06 0 -837335 -3.0521e+06 0 -832670 -3.05873e+06 0 -827999 -3.06536e+06 0 -823321 -3.07199e+06 0 -818638 -3.07863e+06 0 -813949 -3.08527e+06 0 -809256 -3.09192e+06 0 -804558 -3.09857e+06 0 -799856 -3.10523e+06 0 -795152 -3.1119e+06 0 -790444 -3.11857e+06 0 -785734 -3.12525e+06 0 -781023 -3.13194e+06 0 -776311 -3.13864e+06 0 -771598 -3.14535e+06 0 -766886 -3.15207e+06 0 -762174 -3.1588e+06 0 -757465 -3.16555e+06 0 -752757 -3.1723e+06 0 -748053 -3.17908e+06 0 -743353 -3.18586e+06 0 -738658 -3.19266e+06 0 -733967 -3.19948e+06 0 -729283 -3.20632e+06 0 -724607 -3.21317e+06 0 -719938 -3.22005e+06 0 -715277 -3.22695e+06 0 -710627 -3.23387e+06 0 -705987 -3.24081e+06 0 -701358 -3.24778e+06 0 -696741 -3.25478e+06 0 -692138 -3.2618e+06 0 -687549 -3.26886e+06 0 -682975 -3.27595e+06 0 -678417 -3.28307e+06 0 -673876 -3.29023e+06 0 -669353 -3.29743e+06 0 -664850 -3.30466e+06 0 -660366 -3.31194e+06 0 -655903 -3.31927e+06 0 -651462 -3.32664e+06 0 -647044 -3.33406e+06 0 -642650 -3.34154e+06 0 -638281 -3.34907e+06 0 -633938 -3.35666e+06 0 -629622 -3.36431e+06 0 -625333 -3.37202e+06 0 -621074 -3.37981e+06 0 -616844 -3.38766e+06 0 -612645 -3.39559e+06 0 -608478 -3.4036e+06 0 -604343 -3.4117e+06 0 -600241 -3.41988e+06 0 -596174 -3.42815e+06 0 -592142 -3.43652e+06 0 -588145 -3.44498e+06 0 -584186 -3.45356e+06 0 -580263 -3.46225e+06 0 -576379 -3.47105e+06 0 -572533 -3.47998e+06 0 -568726 -3.48903e+06 0 -564959 -3.49822e+06 0 -561233 -3.50755e+06 0 -557547 -3.51703e+06 0 -553902 -3.52667e+06 0 -550299 -3.53646e+06 0 -546738 -3.54643e+06 0 -543218 -3.55658e+06 0 -539741 -3.56691e+06 0 -536306 -3.57744e+06 0 -532912 -3.58817e+06 0 -529561 -3.59913e+06 0 -526252 -3.6103e+06 0 -522984 -3.62172e+06 0 -519758 -3.63339e+06 0 -516571 -3.64531e+06 0 -513425 -3.65752e+06 0 -510318 -3.67001e+06 0 -507248 -3.6828e+06 0 -504215 -3.69592e+06 0 -501216 -3.70937e+06 0 -498251 -3.72318e+06 0 -495317 -3.73736e+06 0 -492411 -3.75194e+06 0 -489530 -3.76693e+06 0 -486670 -3.78236e+06 0 -483827 -3.79825e+06 0 -480996 -3.81464e+06 0 -478171 -3.83155e+06 0 -475344 -3.849e+06 0 -472507 -3.86704e+06 0 -469651 -3.8857e+06 0 -466764 -3.90502e+06 0 -463832 -3.92503e+06 0 -460840 -3.94579e+06 0 -457770 -3.96734e+06 0 -454600 -3.98972e+06 0 -451307 -4.013e+06 0 -447861 -4.03723e+06 0 -444230 -4.06247e+06 0 -440376 -4.08878e+06 0 -436256 -4.11624e+06 0 -431820 -4.14492e+06 0 -427013 -4.1749e+06 0 -421767 -4.20625e+06 0 -416011 -4.23907e+06 0 -409661 -4.27344e+06 0 -402620 -4.30946e+06 0 -394782 -4.34722e+06 0 -386027 -4.38684e+06 0 -376216 -4.4284e+06 0 -365199 -4.47202e+06 0 -352802 -4.51781e+06 0 -338834 -4.56587e+06 0 -323082 -4.61632e+06 0 -305307 -4.66926e+06 0 -285245 -4.7248e+06 0 -262602 -4.78303e+06 0 -237055 -4.84406e+06 0 -208245 -4.90796e+06 0 -175777 -4.97481e+06 0 -139218 -5.04467e+06 0 -98091.3 -5.11758e+06 0 -51876 -5.19353e+06 0 1.15484e-06 -5.27258e+06 0 -847769 -3.01665e+06 0 -843113 -3.02316e+06 0 -838448 -3.02968e+06 0 -833776 -3.0362e+06 0 -829096 -3.04273e+06 0 -824408 -3.04925e+06 0 -819714 -3.05579e+06 0 -815013 -3.06232e+06 0 -810307 -3.06886e+06 0 -805595 -3.07541e+06 0 -800877 -3.08196e+06 0 -796155 -3.08852e+06 0 -791430 -3.09508e+06 0 -786700 -3.10165e+06 0 -781967 -3.10823e+06 0 -777232 -3.11482e+06 0 -772494 -3.12141e+06 0 -767756 -3.12802e+06 0 -763016 -3.13463e+06 0 -758276 -3.14126e+06 0 -753536 -3.1479e+06 0 -748797 -3.15455e+06 0 -744060 -3.16121e+06 0 -739326 -3.16789e+06 0 -734594 -3.17458e+06 0 -729866 -3.18129e+06 0 -725143 -3.18802e+06 0 -720425 -3.19476e+06 0 -715712 -3.20152e+06 0 -711007 -3.20831e+06 0 -706309 -3.21511e+06 0 -701619 -3.22194e+06 0 -696939 -3.22879e+06 0 -692268 -3.23567e+06 0 -687608 -3.24258e+06 0 -682959 -3.24951e+06 0 -678323 -3.25648e+06 0 -673701 -3.26348e+06 0 -669092 -3.27051e+06 0 -664498 -3.27757e+06 0 -659921 -3.28468e+06 0 -655360 -3.29183e+06 0 -650816 -3.29902e+06 0 -646291 -3.30625e+06 0 -641786 -3.31353e+06 0 -637300 -3.32086e+06 0 -632836 -3.32824e+06 0 -628393 -3.33568e+06 0 -623974 -3.34317e+06 0 -619577 -3.35073e+06 0 -615206 -3.35835e+06 0 -610859 -3.36604e+06 0 -606538 -3.37379e+06 0 -602244 -3.38163e+06 0 -597978 -3.38953e+06 0 -593740 -3.39753e+06 0 -589530 -3.4056e+06 0 -585350 -3.41377e+06 0 -581200 -3.42203e+06 0 -577081 -3.43039e+06 0 -572993 -3.43886e+06 0 -568936 -3.44743e+06 0 -564912 -3.45612e+06 0 -560920 -3.46493e+06 0 -556961 -3.47387e+06 0 -553035 -3.48293e+06 0 -549142 -3.49213e+06 0 -545282 -3.50148e+06 0 -541457 -3.51098e+06 0 -537664 -3.52064e+06 0 -533905 -3.53046e+06 0 -530179 -3.54045e+06 0 -526486 -3.55063e+06 0 -522826 -3.561e+06 0 -519198 -3.57157e+06 0 -515601 -3.58235e+06 0 -512035 -3.59334e+06 0 -508498 -3.60457e+06 0 -504991 -3.61604e+06 0 -501511 -3.62776e+06 0 -498057 -3.63974e+06 0 -494628 -3.65201e+06 0 -491222 -3.66456e+06 0 -487836 -3.67743e+06 0 -484468 -3.69062e+06 0 -481115 -3.70414e+06 0 -477774 -3.71803e+06 0 -474441 -3.73229e+06 0 -471112 -3.74695e+06 0 -467782 -3.76203e+06 0 -464445 -3.77755e+06 0 -461095 -3.79354e+06 0 -457724 -3.81002e+06 0 -454324 -3.82702e+06 0 -450884 -3.84457e+06 0 -447393 -3.8627e+06 0 -443838 -3.88146e+06 0 -440205 -3.90086e+06 0 -436475 -3.92096e+06 0 -432630 -3.9418e+06 0 -428646 -3.96342e+06 0 -424497 -3.98586e+06 0 -420155 -4.00918e+06 0 -415585 -4.03343e+06 0 -410748 -4.05867e+06 0 -405602 -4.08496e+06 0 -400096 -4.11236e+06 0 -394175 -4.14094e+06 0 -387774 -4.17077e+06 0 -380822 -4.20191e+06 0 -373237 -4.23446e+06 0 -364930 -4.26848e+06 0 -355796 -4.30405e+06 0 -345722 -4.34126e+06 0 -334579 -4.3802e+06 0 -322225 -4.42095e+06 0 -308498 -4.4636e+06 0 -293223 -4.50823e+06 0 -276202 -4.55493e+06 0 -257217 -4.60377e+06 0 -236027 -4.65485e+06 0 -212367 -4.70822e+06 0 -185944 -4.76396e+06 0 -156436 -4.82211e+06 0 -123491 -4.88272e+06 0 -86724.2 -4.94581e+06 0 -45713.5 -5.01138e+06 0 -1.06543e-06 -5.07947e+06 0 -844272 -3.00109e+06 0 -839602 -3.00751e+06 0 -834923 -3.01393e+06 0 -830236 -3.02035e+06 0 -825542 -3.02677e+06 0 -820839 -3.0332e+06 0 -816129 -3.03963e+06 0 -811412 -3.04606e+06 0 -806689 -3.0525e+06 0 -801959 -3.05895e+06 0 -797223 -3.0654e+06 0 -792482 -3.07185e+06 0 -787737 -3.07831e+06 0 -782986 -3.08478e+06 0 -778232 -3.09126e+06 0 -773474 -3.09774e+06 0 -768713 -3.10423e+06 0 -763950 -3.11073e+06 0 -759185 -3.11724e+06 0 -754418 -3.12376e+06 0 -749650 -3.1303e+06 0 -744882 -3.13684e+06 0 -740115 -3.14339e+06 0 -735348 -3.14996e+06 0 -730583 -3.15655e+06 0 -725820 -3.16315e+06 0 -721060 -3.16976e+06 0 -716303 -3.1764e+06 0 -711550 -3.18305e+06 0 -706803 -3.18972e+06 0 -702061 -3.19641e+06 0 -697325 -3.20312e+06 0 -692596 -3.20986e+06 0 -687875 -3.21662e+06 0 -683162 -3.2234e+06 0 -678459 -3.23022e+06 0 -673765 -3.23706e+06 0 -669083 -3.24393e+06 0 -664411 -3.25084e+06 0 -659752 -3.25778e+06 0 -655106 -3.26475e+06 0 -650474 -3.27177e+06 0 -645856 -3.27882e+06 0 -641253 -3.28592e+06 0 -636666 -3.29306e+06 0 -632096 -3.30024e+06 0 -627544 -3.30748e+06 0 -623010 -3.31476e+06 0 -618495 -3.32211e+06 0 -613999 -3.3295e+06 0 -609524 -3.33696e+06 0 -605070 -3.34448e+06 0 -600637 -3.35207e+06 0 -596227 -3.35973e+06 0 -591839 -3.36746e+06 0 -587475 -3.37527e+06 0 -583135 -3.38315e+06 0 -578819 -3.39112e+06 0 -574529 -3.39918e+06 0 -570263 -3.40734e+06 0 -566023 -3.41558e+06 0 -561809 -3.42394e+06 0 -557622 -3.43239e+06 0 -553460 -3.44096e+06 0 -549326 -3.44965e+06 0 -545218 -3.45846e+06 0 -541136 -3.46739e+06 0 -537081 -3.47646e+06 0 -533053 -3.48567e+06 0 -529051 -3.49503e+06 0 -525075 -3.50454e+06 0 -521124 -3.51421e+06 0 -517198 -3.52405e+06 0 -513296 -3.53406e+06 0 -509418 -3.54426e+06 0 -505563 -3.55466e+06 0 -501729 -3.56525e+06 0 -497915 -3.57606e+06 0 -494120 -3.58709e+06 0 -490343 -3.59835e+06 0 -486581 -3.60985e+06 0 -482832 -3.62161e+06 0 -479095 -3.63364e+06 0 -475367 -3.64595e+06 0 -471644 -3.65855e+06 0 -467924 -3.67146e+06 0 -464203 -3.6847e+06 0 -460476 -3.69827e+06 0 -456740 -3.71221e+06 0 -452988 -3.72653e+06 0 -449215 -3.74124e+06 0 -445414 -3.75637e+06 0 -441577 -3.77194e+06 0 -437696 -3.78798e+06 0 -433760 -3.80451e+06 0 -429760 -3.82156e+06 0 -425681 -3.83915e+06 0 -421510 -3.85733e+06 0 -417231 -3.87611e+06 0 -412825 -3.89554e+06 0 -408272 -3.91566e+06 0 -403547 -3.93649e+06 0 -398624 -3.95809e+06 0 -393473 -3.9805e+06 0 -388060 -4.00376e+06 0 -382346 -4.02793e+06 0 -376287 -4.05305e+06 0 -369836 -4.07919e+06 0 -362936 -4.10639e+06 0 -355526 -4.13471e+06 0 -347537 -4.16422e+06 0 -338890 -4.19498e+06 0 -329500 -4.22706e+06 0 -319270 -4.26052e+06 0 -308091 -4.29543e+06 0 -295844 -4.33185e+06 0 -282396 -4.36986e+06 0 -267599 -4.40953e+06 0 -251290 -4.45092e+06 0 -233288 -4.49409e+06 0 -213397 -4.5391e+06 0 -191396 -4.58601e+06 0 -167048 -4.63487e+06 0 -140088 -4.68571e+06 0 -110231 -4.73857e+06 0 -77162.5 -4.79346e+06 0 -40542.7 -4.85037e+06 0 7.45058e-08 -4.90933e+06 0 -840791 -2.98558e+06 0 -836108 -2.9919e+06 0 -831417 -2.99822e+06 0 -826716 -3.00454e+06 0 -822008 -3.01086e+06 0 -817291 -3.01719e+06 0 -812566 -3.02352e+06 0 -807834 -3.02985e+06 0 -803094 -3.03619e+06 0 -798348 -3.04253e+06 0 -793595 -3.04888e+06 0 -788837 -3.05523e+06 0 -784072 -3.06159e+06 0 -779303 -3.06796e+06 0 -774528 -3.07433e+06 0 -769749 -3.08071e+06 0 -764966 -3.0871e+06 0 -760180 -3.0935e+06 0 -755391 -3.0999e+06 0 -750599 -3.10632e+06 0 -745805 -3.11274e+06 0 -741010 -3.11918e+06 0 -736214 -3.12563e+06 0 -731417 -3.13209e+06 0 -726621 -3.13857e+06 0 -721825 -3.14506e+06 0 -717031 -3.15156e+06 0 -712239 -3.15808e+06 0 -707449 -3.16462e+06 0 -702662 -3.17118e+06 0 -697879 -3.17776e+06 0 -693101 -3.18436e+06 0 -688327 -3.19097e+06 0 -683559 -3.19762e+06 0 -678798 -3.20428e+06 0 -674044 -3.21098e+06 0 -669297 -3.2177e+06 0 -664558 -3.22445e+06 0 -659829 -3.23123e+06 0 -655109 -3.23804e+06 0 -650400 -3.24489e+06 0 -645702 -3.25177e+06 0 -641015 -3.25869e+06 0 -636341 -3.26564e+06 0 -631679 -3.27264e+06 0 -627031 -3.27969e+06 0 -622398 -3.28678e+06 0 -617779 -3.29392e+06 0 -613176 -3.30111e+06 0 -608589 -3.30835e+06 0 -604019 -3.31565e+06 0 -599465 -3.32301e+06 0 -594930 -3.33043e+06 0 -590413 -3.33792e+06 0 -585914 -3.34547e+06 0 -581435 -3.3531e+06 0 -576975 -3.3608e+06 0 -572534 -3.36858e+06 0 -568115 -3.37644e+06 0 -563715 -3.38439e+06 0 -559336 -3.39242e+06 0 -554979 -3.40056e+06 0 -550642 -3.40879e+06 0 -546326 -3.41713e+06 0 -542031 -3.42557e+06 0 -537757 -3.43413e+06 0 -533504 -3.44281e+06 0 -529272 -3.45161e+06 0 -525060 -3.46054e+06 0 -520867 -3.46961e+06 0 -516694 -3.47882e+06 0 -512540 -3.48818e+06 0 -508403 -3.49769e+06 0 -504284 -3.50737e+06 0 -500181 -3.51721e+06 0 -496093 -3.52724e+06 0 -492018 -3.53745e+06 0 -487956 -3.54786e+06 0 -483904 -3.55846e+06 0 -479861 -3.56929e+06 0 -475825 -3.58033e+06 0 -471793 -3.59161e+06 0 -467763 -3.60314e+06 0 -463733 -3.61492e+06 0 -459698 -3.62696e+06 0 -455655 -3.63929e+06 0 -451601 -3.65192e+06 0 -447531 -3.66485e+06 0 -443440 -3.67811e+06 0 -439322 -3.69171e+06 0 -435172 -3.70567e+06 0 -430983 -3.72001e+06 0 -426748 -3.73474e+06 0 -422456 -3.74989e+06 0 -418100 -3.76547e+06 0 -413668 -3.78152e+06 0 -409149 -3.79805e+06 0 -404528 -3.8151e+06 0 -399791 -3.83268e+06 0 -394921 -3.85084e+06 0 -389898 -3.86959e+06 0 -384701 -3.88897e+06 0 -379306 -3.90902e+06 0 -373685 -3.92978e+06 0 -367809 -3.95127e+06 0 -361644 -3.97355e+06 0 -355151 -3.99665e+06 0 -348287 -4.02062e+06 0 -341006 -4.04551e+06 0 -333253 -4.07135e+06 0 -324969 -4.09821e+06 0 -316088 -4.12613e+06 0 -306536 -4.15516e+06 0 -296232 -4.18537e+06 0 -285085 -4.21679e+06 0 -272993 -4.24949e+06 0 -259845 -4.28352e+06 0 -245520 -4.31893e+06 0 -229880 -4.35578e+06 0 -212778 -4.39411e+06 0 -194048 -4.43398e+06 0 -173512 -4.47541e+06 0 -150973 -4.51845e+06 0 -126215 -4.56313e+06 0 -99005 -4.60947e+06 0 -69087.6 -4.65747e+06 0 -36186.1 -4.70713e+06 0 4.76837e-07 -4.75846e+06 0 -837327 -2.97011e+06 0 -832633 -2.97633e+06 0 -827929 -2.98255e+06 0 -823215 -2.98877e+06 0 -818494 -2.995e+06 0 -813763 -3.00122e+06 0 -809025 -3.00745e+06 0 -804278 -3.01369e+06 0 -799523 -3.01993e+06 0 -794762 -3.02617e+06 0 -789993 -3.03241e+06 0 -785217 -3.03867e+06 0 -780435 -3.04492e+06 0 -775648 -3.05119e+06 0 -770854 -3.05746e+06 0 -766056 -3.06373e+06 0 -761252 -3.07002e+06 0 -756445 -3.07631e+06 0 -751633 -3.08261e+06 0 -746818 -3.08892e+06 0 -742000 -3.09524e+06 0 -737179 -3.10157e+06 0 -732357 -3.10791e+06 0 -727532 -3.11427e+06 0 -722707 -3.12064e+06 0 -717881 -3.12702e+06 0 -713055 -3.13341e+06 0 -708230 -3.13982e+06 0 -703405 -3.14625e+06 0 -698582 -3.1527e+06 0 -693761 -3.15916e+06 0 -688943 -3.16564e+06 0 -684129 -3.17215e+06 0 -679318 -3.17867e+06 0 -674511 -3.18522e+06 0 -669710 -3.1918e+06 0 -664914 -3.19839e+06 0 -660124 -3.20502e+06 0 -655341 -3.21168e+06 0 -650565 -3.21836e+06 0 -645797 -3.22508e+06 0 -641038 -3.23183e+06 0 -636288 -3.23861e+06 0 -631548 -3.24544e+06 0 -626817 -3.2523e+06 0 -622098 -3.2592e+06 0 -617390 -3.26615e+06 0 -612693 -3.27314e+06 0 -608009 -3.28018e+06 0 -603338 -3.28727e+06 0 -598680 -3.29442e+06 0 -594036 -3.30162e+06 0 -589406 -3.30887e+06 0 -584790 -3.31619e+06 0 -580190 -3.32357e+06 0 -575604 -3.33102e+06 0 -571035 -3.33854e+06 0 -566481 -3.34613e+06 0 -561943 -3.3538e+06 0 -557421 -3.36155e+06 0 -552915 -3.36938e+06 0 -548426 -3.3773e+06 0 -543953 -3.38532e+06 0 -539496 -3.39343e+06 0 -535055 -3.40164e+06 0 -530631 -3.40995e+06 0 -526222 -3.41838e+06 0 -521828 -3.42692e+06 0 -517449 -3.43558e+06 0 -513084 -3.44437e+06 0 -508732 -3.45329e+06 0 -504394 -3.46235e+06 0 -500067 -3.47155e+06 0 -495752 -3.4809e+06 0 -491446 -3.49041e+06 0 -487149 -3.50009e+06 0 -482858 -3.50993e+06 0 -478573 -3.51995e+06 0 -474292 -3.53016e+06 0 -470012 -3.54057e+06 0 -465732 -3.55118e+06 0 -461449 -3.562e+06 0 -457160 -3.57305e+06 0 -452862 -3.58433e+06 0 -448552 -3.59585e+06 0 -444226 -3.60763e+06 0 -439880 -3.61968e+06 0 -435510 -3.63201e+06 0 -431111 -3.64464e+06 0 -426676 -3.65757e+06 0 -422201 -3.67083e+06 0 -417679 -3.68442e+06 0 -413101 -3.69837e+06 0 -408460 -3.71269e+06 0 -403746 -3.7274e+06 0 -398950 -3.74253e+06 0 -394059 -3.75809e+06 0 -389062 -3.7741e+06 0 -383943 -3.79058e+06 0 -378688 -3.80757e+06 0 -373279 -3.82509e+06 0 -367696 -3.84316e+06 0 -361917 -3.86181e+06 0 -355919 -3.88108e+06 0 -349674 -3.90099e+06 0 -343152 -3.92158e+06 0 -336320 -3.94288e+06 0 -329140 -3.96493e+06 0 -321571 -3.98777e+06 0 -313566 -4.01143e+06 0 -305076 -4.03595e+06 0 -296042 -4.06138e+06 0 -286403 -4.08776e+06 0 -276088 -4.11513e+06 0 -265022 -4.14353e+06 0 -253118 -4.173e+06 0 -240285 -4.2036e+06 0 -226418 -4.23535e+06 0 -211406 -4.26831e+06 0 -195125 -4.3025e+06 0 -177438 -4.33797e+06 0 -158197 -4.37475e+06 0 -137242 -4.41285e+06 0 -114394 -4.45231e+06 0 -89463.1 -4.49314e+06 0 -62240.4 -4.53533e+06 0 -32500.8 -4.57889e+06 0 -2.98023e-08 -4.62381e+06 0 -833880 -2.95469e+06 0 -829174 -2.96081e+06 0 -824458 -2.96693e+06 0 -819733 -2.97306e+06 0 -814999 -2.97918e+06 0 -810255 -2.98531e+06 0 -805504 -2.99144e+06 0 -800743 -2.99757e+06 0 -795975 -3.00371e+06 0 -791198 -3.00985e+06 0 -786415 -3.016e+06 0 -781623 -3.02215e+06 0 -776825 -3.0283e+06 0 -772021 -3.03446e+06 0 -767210 -3.04063e+06 0 -762393 -3.0468e+06 0 -757570 -3.05299e+06 0 -752743 -3.05917e+06 0 -747910 -3.06537e+06 0 -743074 -3.07158e+06 0 -738233 -3.07779e+06 0 -733389 -3.08402e+06 0 -728541 -3.09025e+06 0 -723691 -3.0965e+06 0 -718839 -3.10276e+06 0 -713985 -3.10903e+06 0 -709130 -3.11532e+06 0 -704274 -3.12162e+06 0 -699417 -3.12794e+06 0 -694561 -3.13427e+06 0 -689705 -3.14062e+06 0 -684850 -3.14699e+06 0 -679997 -3.15338e+06 0 -675146 -3.15979e+06 0 -670298 -3.16622e+06 0 -665453 -3.17267e+06 0 -660612 -3.17915e+06 0 -655775 -3.18565e+06 0 -650942 -3.19218e+06 0 -646115 -3.19874e+06 0 -641293 -3.20533e+06 0 -636478 -3.21195e+06 0 -631670 -3.21861e+06 0 -626868 -3.2253e+06 0 -622075 -3.23202e+06 0 -617289 -3.23879e+06 0 -612512 -3.24559e+06 0 -607744 -3.25244e+06 0 -602986 -3.25934e+06 0 -598237 -3.26628e+06 0 -593499 -3.27327e+06 0 -588771 -3.28031e+06 0 -584055 -3.2874e+06 0 -579349 -3.29455e+06 0 -574655 -3.30177e+06 0 -569973 -3.30904e+06 0 -565303 -3.31638e+06 0 -560644 -3.32379e+06 0 -555998 -3.33127e+06 0 -551365 -3.33882e+06 0 -546743 -3.34646e+06 0 -542134 -3.35417e+06 0 -537537 -3.36197e+06 0 -532952 -3.36986e+06 0 -528378 -3.37785e+06 0 -523816 -3.38593e+06 0 -519265 -3.39411e+06 0 -514725 -3.4024e+06 0 -510195 -3.41081e+06 0 -505674 -3.41933e+06 0 -501161 -3.42797e+06 0 -496656 -3.43674e+06 0 -492158 -3.44564e+06 0 -487666 -3.45468e+06 0 -483178 -3.46386e+06 0 -478693 -3.47319e+06 0 -474209 -3.48269e+06 0 -469725 -3.49234e+06 0 -465238 -3.50217e+06 0 -460747 -3.51218e+06 0 -456250 -3.52238e+06 0 -451743 -3.53277e+06 0 -447225 -3.54336e+06 0 -442691 -3.55417e+06 0 -438138 -3.5652e+06 0 -433564 -3.57647e+06 0 -428962 -3.58797e+06 0 -424331 -3.59974e+06 0 -419663 -3.61176e+06 0 -414954 -3.62407e+06 0 -410198 -3.63667e+06 0 -405388 -3.64957e+06 0 -400518 -3.66279e+06 0 -395578 -3.67635e+06 0 -390561 -3.69026e+06 0 -385456 -3.70453e+06 0 -380254 -3.71919e+06 0 -374941 -3.73425e+06 0 -369505 -3.74973e+06 0 -363932 -3.76566e+06 0 -358206 -3.78205e+06 0 -352308 -3.79892e+06 0 -346219 -3.81631e+06 0 -339918 -3.83424e+06 0 -333380 -3.85272e+06 0 -326579 -3.8718e+06 0 -319485 -3.89149e+06 0 -312065 -3.91183e+06 0 -304284 -3.93285e+06 0 -296102 -3.95458e+06 0 -287474 -3.97704e+06 0 -278351 -4.00028e+06 0 -268681 -4.02433e+06 0 -258404 -4.04922e+06 0 -247455 -4.07499e+06 0 -235762 -4.10166e+06 0 -223248 -4.12928e+06 0 -209825 -4.15788e+06 0 -195399 -4.18748e+06 0 -179868 -4.21812e+06 0 -163119 -4.24982e+06 0 -145029 -4.28261e+06 0 -125464 -4.31651e+06 0 -104280 -4.35153e+06 0 -81318.9 -4.38768e+06 0 -56410.2 -4.42496e+06 0 -29370.2 -4.46336e+06 0 5.36442e-07 -4.50288e+06 0 -830449 -2.93932e+06 0 -825732 -2.94534e+06 0 -821005 -2.95136e+06 0 -816268 -2.95739e+06 0 -811522 -2.96341e+06 0 -806767 -2.96944e+06 0 -802003 -2.97547e+06 0 -797230 -2.9815e+06 0 -792448 -2.98754e+06 0 -787658 -2.99358e+06 0 -782860 -2.99963e+06 0 -778054 -3.00568e+06 0 -773241 -3.01173e+06 0 -768421 -3.01779e+06 0 -763593 -3.02386e+06 0 -758759 -3.02993e+06 0 -753919 -3.03601e+06 0 -749