<?xml version="1.0"?> 
<VTKFile type="StructuredGrid" version="0.1"> 
<StructuredGrid WholeExtent="0 127 0 127 0 0"> 
<Piece Extent="0 127 0 127 0 0"> 
<PointData>
<DataArray type="Float32" Name="E" format="ascii" NumberOfComponents="3"> 
-445226 122710 0 -446574 128701 0 -448646 128301 0 -450079 127734 0 -450959 126880 0 -451343 126137 0 -451349 125437 0 -451054 124809 0 -450528 124229 0 -449820 123692 0 -448968 123188 0 -448002 122710 0 -446943 122254 0 -445810 121816 0 -444615 121393 0 -443369 120984 0 -442080 120586 0 -440754 120198 0 -439399 119819 0 -438017 119449 0 -436612 119087 0 -435189 118731 0 -433748 118382 0 -432293 118039 0 -430825 117702 0 -429346 117370 0 -427858 117043 0 -426360 116721 0 -424856 116404 0 -423345 116091 0 -421828 115782 0 -420307 115477 0 -418781 115177 0 -417251 114879 0 -415718 114586 0 -414183 114295 0 -412645 114009 0 -411105 113725 0 -409564 113444 0 -408022 113167 0 -406478 112892 0 -404934 112620 0 -403390 112351 0 -401845 112085 0 -400300 111821 0 -398755 111559 0 -397211 111301 0 -395667 111044 0 -394123 110790 0 -392581 110538 0 -391039 110289 0 -389498 110041 0 -387958 109796 0 -386420 109553 0 -384882 109312 0 -383346 109073 0 -381812 108835 0 -380279 108600 0 -378747 108367 0 -377217 108135 0 -375689 107905 0 -374162 107677 0 -372637 107451 0 -371114 107227 0 -369593 107004 0 -368073 106782 0 -366556 106563 0 -365040 106345 0 -363527 106128 0 -362015 105913 0 -360506 105700 0 -358998 105488 0 -357493 105277 0 -355990 105068 0 -354488 104860 0 -352989 104654 0 -351492 104449 0 -349998 104245 0 -348505 104043 0 -347015 103842 0 -345526 103642 0 -344040 103443 0 -342556 103246 0 -341075 103050 0 -339595 102855 0 -338118 102661 0 -336643 102469 0 -335171 102277 0 -333700 102087 0 -332232 101898 0 -330766 101709 0 -329302 101522 0 -327841 101336 0 -326382 101151 0 -324925 100967 0 -323470 100784 0 -322018 100603 0 -320568 100422 0 -319120 100242 0 -317674 100063 0 -316231 99884.5 0 -314790 99707.4 0 -313351 99531.2 0 -311914 99355.8 0 -310480 99181.4 0 -309048 99007.9 0 -307618 98835.2 0 -306190 98663.4 0 -304765 98492.5 0 -303341 98322.4 0 -301920 98153.1 0 -300502 97984.6 0 -299085 97817 0 -297671 97650.1 0 -296259 97484.1 0 -294849 97318.8 0 -293441 97154.2 0 -292035 96990.5 0 -290632 96827.4 0 -289231 96665.2 0 -287832 96503.6 0 -286435 96342.8 0 -285040 96182.7 0 -283648 96023.3 0 -282257 95864.6 0 -280869 95706.5 0 -279483 95549.2 0 -278099 95392.5 0 -469498 128559 0 -466959 129060 0 -464592 130195 0 -462561 131107 0 -460773 131856 0 -459162 132420 0 -457667 132840 0 -456247 133138 0 -454871 133336 0 -453518 133452 0 -452176 133501 0 -450833 133493 0 -449485 133439 0 -448127 133345 0 -446758 133219 0 -445376 133066 0 -443980 132889 0 -442572 132694 0 -441150 132481 0 -439717 132255 0 -438272 132018 0 -436817 131770 0 -435352 131514 0 -433878 131251 0 -432396 130983 0 -430907 130709 0 -429410 130431 0 -427908 130151 0 -426400 129867 0 -424887 129581 0 -423370 129294 0 -421848 129005 0 -420324 128715 0 -418796 128425 0 -417265 128134 0 -415733 127844 0 -414198 127553 0 -412661 127263 0 -411124 126973 0 -409585 126683 0 -408045 126395 0 -406504 126107 0 -404963 125820 0 -403422 125534 0 -401881 125249 0 -400340 124965 0 -398799 124682 0 -397258 124401 0 -395718 124120 0 -394178 123841 0 -392640 123563 0 -391102 123287 0 -389565 123012 0 -388029 122738 0 -386494 122466 0 -384960 122195 0 -383428 121925 0 -381897 121657 0 -380368 121390 0 -378840 121125 0 -377313 120861 0 -375788 120599 0 -374265 120337 0 -372743 120078 0 -371224 119819 0 -369706 119562 0 -368189 119307 0 -366675 119052 0 -365162 118799 0 -363652 118548 0 -362143 118298 0 -360636 118049 0 -359131 117801 0 -357628 117555 0 -356128 117310 0 -354629 117067 0 -353132 116825 0 -351637 116584 0 -350145 116344 0 -348655 116105 0 -347166 115868 0 -345680 115632 0 -344196 115397 0 -342714 115164 0 -341234 114931 0 -339757 114700 0 -338281 114470 0 -336808 114241 0 -335337 114013 0 -333868 113787 0 -332401 113561 0 -330937 113337 0 -329475 113114 0 -328014 112892 0 -326557 112671 0 -325101 112451 0 -323647 112232 0 -322196 112014 0 -320747 111797 0 -319300 111581 0 -317856 111367 0 -316413 111153 0 -314973 110940 0 -313535 110728 0 -312099 110518 0 -310666 110308 0 -309234 110099 0 -307805 109891 0 -306378 109684 0 -304953 109478 0 -303531 109273 0 -302110 109069 0 -300692 108865 0 -299276 108663 0 -297862 108461 0 -296450 108261 0 -295041 108061 0 -293634 107862 0 -292228 107664 0 -290825 107467 0 -289424 107270 0 -288026 107074 0 -286629 106880 0 -285235 106686 0 -283842 106492 0 -282452 106300 0 -281064 106108 0 -279678 105917 0 -475097 147892 0 -473375 147894 0 -471644 147696 0 -469850 147567 0 -468029 147473 0 -466204 147411 0 -464391 147364 0 -462601 147322 0 -460836 147274 0 -459098 147218 0 -457386 147147 0 -455699 147062 0 -454032 146960 0 -452385 146841 0 -450753 146706 0 -449135 146554 0 -447529 146387 0 -445932 146206 0 -444343 146011 0 -442760 145804 0 -441182 145586 0 -439609 145357 0 -438038 145118 0 -436470 144871 0 -434905 144615 0 -433341 144353 0 -431778 144084 0 -430216 143810 0 -428655 143531 0 -427094 143247 0 -425534 142958 0 -423975 142667 0 -422416 142372 0 -420857 142075 0 -419299 141775 0 -417741 141474 0 -416184 141170 0 -414627 140865 0 -413071 140559 0 -411515 140252 0 -409960 139945 0 -408406 139637 0 -406852 139328 0 -405299 139019 0 -403748 138710 0 -402197 138402 0 -400647 138093 0 -399098 137785 0 -397551 137477 0 -396005 137170 0 -394460 136863 0 -392916 136557 0 -391374 136251 0 -389833 135946 0 -388294 135643 0 -386756 135340 0 -385219 135037 0 -383685 134736 0 -382152 134436 0 -380620 134137 0 -379091 133839 0 -377563 133542 0 -376037 133246 0 -374512 132951 0 -372990 132658 0 -371469 132365 0 -369951 132074 0 -368434 131784 0 -366919 131495 0 -365406 131207 0 -363895 130921 0 -362386 130636 0 -360879 130351 0 -359374 130069 0 -357872 129787 0 -356371 129507 0 -354872 129227 0 -353376 128949 0 -351881 128673 0 -350389 128397 0 -348898 128123 0 -347410 127850 0 -345924 127578 0 -344441 127307 0 -342959 127037 0 -341479 126769 0 -340002 126502 0 -338527 126236 0 -337054 125971 0 -335583 125708 0 -334114 125445 0 -332648 125184 0 -331183 124924 0 -329721 124665 0 -328261 124407 0 -326804 124150 0 -325348 123894 0 -323895 123640 0 -322444 123386 0 -320995 123134 0 -319548 122883 0 -318103 122633 0 -316661 122383 0 -315221 122135 0 -313783 121888 0 -312347 121642 0 -310913 121397 0 -309482 121154 0 -308053 120911 0 -306626 120669 0 -305201 120428 0 -303778 120188 0 -302358 119949 0 -300939 119711 0 -299523 119474 0 -298109 119238 0 -296697 119003 0 -295287 118769 0 -293880 118536 0 -292474 118304 0 -291071 118072 0 -289670 117842 0 -288271 117613 0 -286874 117384 0 -285479 117156 0 -284087 116929 0 -282696 116703 0 -281308 116478 0 -480320 165215 0 -478283 164942 0 -476288 164753 0 -474352 164538 0 -472458 164310 0 -470595 164069 0 -468755 163822 0 -466933 163571 0 -465127 163318 0 -463335 163063 0 -461557 162807 0 -459791 162549 0 -458038 162290 0 -456298 162028 0 -454569 161762 0 -452852 161494 0 -451145 161222 0 -449449 160947 0 -447763 160667 0 -446085 160383 0 -444417 160095 0 -442756 159802 0 -441103 159506 0 -439456 159205 0 -437816 158901 0 -436182 158593 0 -434554 158281 0 -432930 157966 0 -431311 157648 0 -429697 157327 0 -428086 157003 0 -426480 156677 0 -424877 156349 0 -423277 156018 0 -421681 155686 0 -420088 155352 0 -418497 155016 0 -416909 154679 0 -415324 154341 0 -413742 154002 0 -412162 153663 0 -410584 153322 0 -409009 152981 0 -407436 152640 0 -405865 152299 0 -404296 151957 0 -402730 151615 0 -401166 151274 0 -399603 150932 0 -398043 150591 0 -396485 150250 0 -394930 149910 0 -393376 149570 0 -391824 149230 0 -390275 148891 0 -388727 148553 0 -387182 148216 0 -385638 147879 0 -384097 147543 0 -382558 147208 0 -381021 146874 0 -379486 146541 0 -377953 146209 0 -376422 145878 0 -374893 145547 0 -373367 145218 0 -371842 144890 0 -370320 144563 0 -368800 144238 0 -367282 143913 0 -365766 143589 0 -364252 143267 0 -362741 142946 0 -361232 142625 0 -359724 142307 0 -358219 141989 0 -356717 141672 0 -355216 141357 0 -353718 141043 0 -352221 140730 0 -350727 140418 0 -349235 140108 0 -347746 139799 0 -346258 139490 0 -344773 139184 0 -343290 138878 0 -341809 138574 0 -340331 138270 0 -338854 137968 0 -337380 137668 0 -335908 137368 0 -334439 137070 0 -332971 136773 0 -331506 136477 0 -330043 136182 0 -328582 135888 0 -327123 135596 0 -325667 135305 0 -324213 135014 0 -322760 134725 0 -321311 134438 0 -319863 134151 0 -318418 133866 0 -316974 133581 0 -315533 133298 0 -314095 133016 0 -312658 132735 0 -311224 132455 0 -309791 132176 0 -308361 131898 0 -306933 131622 0 -305508 131346 0 -304084 131072 0 -302663 130798 0 -301244 130526 0 -299827 130255 0 -298412 129984 0 -296999 129715 0 -295588 129447 0 -294180 129180 0 -292774 128914 0 -291370 128648 0 -289968 128384 0 -288568 128121 0 -287170 127859 0 -285774 127598 0 -284381 127337 0 -282990 127078 0 -483579 183250 0 -481715 182804 0 -479849 182336 0 -477976 181890 0 -476105 181459 0 -474239 181041 0 -472383 180632 0 -470538 180230 0 -468704 179833 0 -466883 179439 0 -465073 179049 0 -463275 178662 0 -461487 178277 0 -459710 177894 0 -457943 177512 0 -456186 177131 0 -454439 176751 0 -452700 176372 0 -450970 175993 0 -449249 175615 0 -447535 175236 0 -445829 174858 0 -444131 174480 0 -442440 174101 0 -440756 173722 0 -439078 173342 0 -437407 172962 0 -435742 172582 0 -434083 172201 0 -432429 171819 0 -430781 171437 0 -429137 171055 0 -427499 170672 0 -425865 170289 0 -424236 169905 0 -422612 169521 0 -420991 169137 0 -419375 168753 0 -417762 168368 0 -416153 167984 0 -414548 167599 0 -412946 167215 0 -411348 166830 0 -409753 166446 0 -408162 166062 0 -406573 165678 0 -404988 165295 0 -403406 164912 0 -401826 164529 0 -400250 164147 0 -398676 163766 0 -397105 163385 0 -395537 163005 0 -393972 162626 0 -392409 162247 0 -390849 161870 0 -389292 161493 0 -387737 161117 0 -386185 160741 0 -384635 160367 0 -383088 159994 0 -381543 159622 0 -380001 159251 0 -378461 158880 0 -376924 158511 0 -375389 158143 0 -373857 157777 0 -372327 157411 0 -370799 157046 0 -369274 156683 0 -367751 156321 0 -366231 155960 0 -364713 155600 0 -363197 155241 0 -361683 154884 0 -360172 154528 0 -358664 154173 0 -357157 153820 0 -355653 153467 0 -354152 153116 0 -352652 152766 0 -351155 152418 0 -349660 152071 0 -348168 151725 0 -346678 151380 0 -345190 151036 0 -343704 150694 0 -342221 150353 0 -340740 150014 0 -339261 149675 0 -337785 149338 0 -336311 149003 0 -334839 148668 0 -333370 148335 0 -331902 148003 0 -330437 147672 0 -328974 147343 0 -327514 147014 0 -326056 146687 0 -324599 146362 0 -323146 146037 0 -321694 145714 0 -320245 145392 0 -318798 145071 0 -317353 144751 0 -315910 144433 0 -314470 144116 0 -313032 143800 0 -311596 143485 0 -310162 143171 0 -308730 142858 0 -307301 142547 0 -305874 142237 0 -304449 141928 0 -303026 141620 0 -301605 141313 0 -300187 141008 0 -298770 140703 0 -297356 140400 0 -295944 140098 0 -294534 139796 0 -293127 139496 0 -291721 139197 0 -290318 138899 0 -288916 138603 0 -287517 138307 0 -286120 138012 0 -284725 137719 0 -486600 200745 0 -484704 200196 0 -482822 199663 0 -480956 199131 0 -479101 198601 0 -477256 198075 0 -475419 197554 0 -473590 197037 0 -471768 196526 0 -469954 196020 0 -468146 195519 0 -466347 195022 0 -464555 194531 0 -462770 194043 0 -460993 193559 0 -459223 193079 0 -457461 192602 0 -455706 192128 0 -453958 191657 0 -452217 191188 0 -450483 190723 0 -448756 190259 0 -447036 189798 0 -445322 189338 0 -443615 188881 0 -441913 188425 0 -440218 187971 0 -438529 187518 0 -436845 187067 0 -435167 186617 0 -433494 186169 0 -431827 185721 0 -430165 185275 0 -428507 184830 0 -426855 184386 0 -425207 183944 0 -423565 183502 0 -421926 183061 0 -420292 182622 0 -418662 182183 0 -417037 181745 0 -415415 181308 0 -413797 180873 0 -412184 180438 0 -410574 180004 0 -408968 179572 0 -407365 179140 0 -405766 178710 0 -404170 178280 0 -402578 177852 0 -400989 177424 0 -399404 176998 0 -397821 176573 0 -396242 176149 0 -394666 175726 0 -393093 175305 0 -391523 174884 0 -389956 174465 0 -388392 174047 0 -386831 173630 0 -385273 173214 0 -383717 172800 0 -382165 172387 0 -380615 171975 0 -379068 171564 0 -377523 171155 0 -375982 170747 0 -374443 170340 0 -372906 169935 0 -371372 169531 0 -369841 169128 0 -368313 168727 0 -366787 168327 0 -365263 167928 0 -363742 167531 0 -362224 167135 0 -360708 166741 0 -359195 166348 0 -357684 165956 0 -356176 165566 0 -354670 165177 0 -353166 164789 0 -351665 164403 0 -350167 164018 0 -348671 163635 0 -347177 163253 0 -345685 162872 0 -344196 162493 0 -342710 162115 0 -341226 161738 0 -339744 161363 0 -338264 160989 0 -336787 160617 0 -335312 160246 0 -333840 159876 0 -332370 159508 0 -330902 159141 0 -329436 158775 0 -327973 158411 0 -326512 158048 0 -325054 157686 0 -323597 157326 0 -322143 156967 0 -320692 156609 0 -319242 156253 0 -317795 155898 0 -316350 155544 0 -314907 155192 0 -313467 154841 0 -312028 154491 0 -310592 154142 0 -309159 153795 0 -307727 153449 0 -306298 153104 0 -304871 152760 0 -303446 152418 0 -302023 152076 0 -300602 151737 0 -299184 151398 0 -297768 151060 0 -296354 150724 0 -294942 150389 0 -293533 150055 0 -292125 149722 0 -290720 149391 0 -289317 149060 0 -287916 148731 0 -286517 148403 0 -489244 218208 0 -487398 217559 0 -485555 216915 0 -483714 216280 0 -481877 215653 0 -480045 215034 0 -478219 214421 0 -476400 213815 0 -474586 213214 0 -472779 212619 0 -470978 212030 0 -469183 211445 0 -467394 210866 0 -465611 210291 0 -463835 209720 0 -462064 209155 0 -460299 208593 0 -458540 208036 0 -456788 207482 0 -455040 206933 0 -453299 206387 0 -451564 205845 0 -449834 205306 0 -448110 204770 0 -446391 204238 0 -444678 203708 0 -442970 203182 0 -441267 202658 0 -439570 202137 0 -437878 201618 0 -436191 201102 0 -434509 200589 0 -432832 200078 0 -431159 199569 0 -429492 199062 0 -427829 198558 0 -426171 198055 0 -424517 197555 0 -422867 197057 0 -421222 196560 0 -419581 196066 0 -417945 195573 0 -416312 195082 0 -414684 194593 0 -413059 194106 0 -411438 193621 0 -409822 193137 0 -408208 192655 0 -406599 192175 0 -404993 191696 0 -403391 191219 0 -401793 190744 0 -400197 190270 0 -398606 189798 0 -397017 189328 0 -395432 188859 0 -393850 188392 0 -392272 187926 0 -390696 187462 0 -389124 187000 0 -387555 186539 0 -385989 186080 0 -384426 185622 0 -382866 185167 0 -381308 184712 0 -379754 184259 0 -378203 183808 0 -376655 183358 0 -375109 182910 0 -373566 182464 0 -372026 182019 0 -370489 181576 0 -368955 181134 0 -367423 180694 0 -365894 180255 0 -364368 179818 0 -362844 179383 0 -361323 178949 0 -359805 178516 0 -358289 178085 0 -356776 177656 0 -355265 177228 0 -353757 176802 0 -352251 176378 0 -350748 175955 0 -349248 175533 0 -347750 175113 0 -346254 174694 0 -344761 174277 0 -343271 173862 0 -341783 173448 0 -340297 173035 0 -338814 172624 0 -337333 172215 0 -335855 171807 0 -334379 171400 0 -332905 170995 0 -331434 170592 0 -329965 170190 0 -328499 169789 0 -327034 169390 0 -325573 168992 0 -324113 168596 0 -322656 168201 0 -321201 167807 0 -319749 167415 0 -318299 167025 0 -316851 166635 0 -315405 166248 0 -313962 165861 0 -312521 165476 0 -311082 165092 0 -309645 164710 0 -308211 164329 0 -306779 163949 0 -305349 163571 0 -303922 163194 0 -302497 162818 0 -301073 162444 0 -299653 162071 0 -298234 161699 0 -296817 161329 0 -295403 160960 0 -293991 160592 0 -292581 160225 0 -291173 159860 0 -289768 159496 0 -288364 159133 0 -491853 235460 0 -490013 234740 0 -488180 234029 0 -486353 233322 0 -484532 232621 0 -482715 231925 0 -480903 231235 0 -479095 230551 0 -477293 229873 0 -475495 229201 0 -473701 228534 0 -471913 227872 0 -470130 227216 0 -468352 226565 0 -466578 225919 0 -464810 225278 0 -463047 224642 0 -461288 224010 0 -459535 223383 0 -457787 222760 0 -456043 222142 0 -454305 221528 0 -452571 220917 0 -450842 220311 0 -449119 219709 0 -447400 219110 0 -445685 218515 0 -443976 217924 0 -442271 217336 0 -440571 216752 0 -438876 216170 0 -437185 215592 0 -435498 215018 0 -433817 214446 0 -432139 213877 0 -430466 213311 0 -428797 212748 0 -427133 212188 0 -425473 211630 0 -423817 211075 0 -422165 210523 0 -420517 209974 0 -418874 209426 0 -417234 208882 0 -415598 208340 0 -413966 207800 0 -412338 207262 0 -410714 206727 0 -409093 206194 0 -407476 205663 0 -405863 205135 0 -404253 204609 0 -402647 204085 0 -401044 203563 0 -399445 203043 0 -397849 202525 0 -396257 202009 0 -394668 201495 0 -393082 200984 0 -391499 200474 0 -389920 199966 0 -388344 199461 0 -386771 198957 0 -385201 198455 0 -383634 197955 0 -382071 197457 0 -380510 196961 0 -378952 196467 0 -377398 195974 0 -375846 195484 0 -374297 194995 0 -372751 194509 0 -371208 194024 0 -369668 193541 0 -368131 193059 0 -366596 192580 0 -365064 192102 0 -363535 191626 0 -362009 191152 0 -360485 190679 0 -358964 190209 0 -357446 189740 0 -355930 189273 0 -354417 188807 0 -352907 188344 0 -351399 187882 0 -349894 187421 0 -348392 186963 0 -346892 186506 0 -345394 186051 0 -343900 185597 0 -342407 185145 0 -340917 184695 0 -339430 184246 0 -337945 183799 0 -336463 183354 0 -334983 182910 0 -333505 182468 0 -332030 182028 0 -330557 181589 0 -329087 181151 0 -327619 180716 0 -326154 180282 0 -324691 179849 0 -323230 179418 0 -321772 178988 0 -320316 178560 0 -318862 178134 0 -317411 177709 0 -315962 177286 0 -314515 176864 0 -313071 176443 0 -311629 176024 0 -310189 175607 0 -308752 175191 0 -307316 174776 0 -305884 174363 0 -304453 173952 0 -303024 173542 0 -301598 173133 0 -300174 172725 0 -298753 172319 0 -297333 171915 0 -295916 171512 0 -294501 171110 0 -293088 170710 0 -291677 170310 0 -290269 169913 0 -494460 252634 0 -492637 251845 0 -490818 251062 0 -489002 250285 0 -487190 249515 0 -485382 248751 0 -483578 247993 0 -481778 247240 0 -479982 246494 0 -478191 245753 0 -476404 245017 0 -474621 244287 0 -472843 243563 0 -471068 242843 0 -469299 242129 0 -467533 241420 0 -465772 240715 0 -464015 240016 0 -462262 239321 0 -460514 238632 0 -458770 237946 0 -457031 237266 0 -455296 236589 0 -453565 235918 0 -451838 235250 0 -450116 234587 0 -448398 233927 0 -446685 233272 0 -444976 232621 0 -443271 231974 0 -441570 231330 0 -439873 230690 0 -438181 230054 0 -436492 229421 0 -434808 228792 0 -433128 228166 0 -431452 227544 0 -429780 226925 0 -428112 226309 0 -426448 225697 0 -424788 225088 0 -423132 224481 0 -421479 223878 0 -419831 223278 0 -418186 222680 0 -416545 222086 0 -414908 221494 0 -413274 220906 0 -411644 220320 0 -410018 219736 0 -408396 219156 0 -406777 218578 0 -405161 218002 0 -403549 217430 0 -401940 216859 0 -400335 216291 0 -398733 215726 0 -397135 215163 0 -395540 214603 0 -393948 214045 0 -392359 213489 0 -390774 212936 0 -389192 212385 0 -387613 211836 0 -386037 211289 0 -384465 210745 0 -382895 210203 0 -381329 209663 0 -379765 209125 0 -378205 208590 0 -376647 208056 0 -375093 207525 0 -373541 206996 0 -371992 206469 0 -370447 205944 0 -368904 205421 0 -367364 204900 0 -365827 204381 0 -364292 203864 0 -362761 203349 0 -361232 202836 0 -359706 202325 0 -358182 201816 0 -356662 201309 0 -355144 200804 0 -353629 200301 0 -352116 199800 0 -350606 199300 0 -349099 198803 0 -347594 198307 0 -346092 197813 0 -344593 197321 0 -343096 196831 0 -341601 196343 0 -340109 195856 0 -338620 195372 0 -337133 194889 0 -335649 194407 0 -334167 193928 0 -332688 193450 0 -331211 192974 0 -329737 192500 0 -328265 192028 0 -326795 191557 0 -325328 191088 0 -323864 190620 0 -322401 190155 0 -320941 189691 0 -319484 189228 0 -318029 188767 0 -316576 188308 0 -315126 187851 0 -313678 187395 0 -312232 186941 0 -310788 186488 0 -309347 186037 0 -307908 185587 0 -306472 185139 0 -305038 184693 0 -303606 184248 0 -302176 183805 0 -300749 183363 0 -299324 182923 0 -297901 182484 0 -296480 182046 0 -295062 181611 0 -293646 181176 0 -292232 180743 0 -497152 269734 0 -495334 268883 0 -493520 268039 0 -491710 267200 0 -489904 266366 0 -488101 265539 0 -486303 264717 0 -484508 263901 0 -482717 263091 0 -480929 262286 0 -479146 261487 0 -477366 260694 0 -475590 259905 0 -473818 259122 0 -472050 258345 0 -470286 257572 0 -468526 256805 0 -466770 256042 0 -465017 255285 0 -463269 254532 0 -461524 253785 0 -459784 253042 0 -458047 252303 0 -456315 251570 0 -454586 250841 0 -452862 250116 0 -451141 249396 0 -449424 248680 0 -447711 247968 0 -446002 247261 0 -444297 246557 0 -442596 245858 0 -440899 245163 0 -439205 244472 0 -437516 243784 0 -435830 243101 0 -434148 242421 0 -432470 241745 0 -430795 241072 0 -429125 240403 0 -427458 239738 0 -425795 239076 0 -424135 238418 0 -422480 237762 0 -420828 237111 0 -419179 236462 0 -417534 235817 0 -415893 235175 0 -414255 234536 0 -412621 233900 0 -410990 233268 0 -409363 232638 0 -407739 232011 0 -406119 231387 0 -404502 230767 0 -402888 230149 0 -401278 229533 0 -399671 228921 0 -398067 228311 0 -396467 227704 0 -394870 227100 0 -393276 226499 0 -391685 225900 0 -390098 225303 0 -388514 224709 0 -386932 224118 0 -385354 223530 0 -383779 222943 0 -382207 222360 0 -380638 221778 0 -379073 221200 0 -377510 220623 0 -375950 220049 0 -374393 219477 0 -372839 218908 0 -371288 218341 0 -369740 217776 0 -368194 217213 0 -366652 216653 0 -365112 216095 0 -363575 215539 0 -362041 214986 0 -360510 214434 0 -358982 213885 0 -357456 213338 0 -355933 212793 0 -354413 212250 0 -352895 211709 0 -351380 211170 0 -349868 210633 0 -348358 210099 0 -346852 209566 0 -345347 209035 0 -343846 208507 0 -342346 207980 0 -340850 207455 0 -339356 206932 0 -337865 206412 0 -336376 205893 0 -334889 205376 0 -333405 204861 0 -331924 204348 0 -330445 203836 0 -328969 203327 0 -327495 202819 0 -326024 202314 0 -324555 201810 0 -323088 201308 0 -321624 200807 0 -320162 200309 0 -318703 199812 0 -317246 199317 0 -315791 198824 0 -314339 198332 0 -312889 197842 0 -311442 197354 0 -309997 196868 0 -308554 196383 0 -307114 195900 0 -305676 195419 0 -304240 194939 0 -302806 194461 0 -301375 193985 0 -299946 193510 0 -298519 193037 0 -297095 192566 0 -295673 192096 0 -294253 191627 0 -499955 286811 0 -498140 285900 0 -496329 284994 0 -494521 284094 0 -492717 283200 0 -490916 282312 0 -489119 281430 0 -487325 280554 0 -485535 279683 0 -483748 278818 0 -481966 277958 0 -480186 277104 0 -478411 276255 0 -476639 275412 0 -474871 274574 0 -473106 273741 0 -471345 272914 0 -469588 272092 0 -467835 271274 0 -466085 270462 0 -464339 269655 0 -462596 268852 0 -460857 268055 0 -459122 267262 0 -457391 266474 0 -455663 265691 0 -453939 264912 0 -452219 264138 0 -450502 263368 0 -448790 262603 0 -447080 261842 0 -445375 261085 0 -443673 260333 0 -441974 259585 0 -440280 258841 0 -438589 258101 0 -436901 257366 0 -435218 256634 0 -433537 255906 0 -431861 255182 0 -430188 254462 0 -428518 253745 0 -426852 253033 0 -425190 252324 0 -423531 251619 0 -421876 250917 0 -420224 250219 0 -418575 249524 0 -416930 248833 0 -415289 248145 0 -413650 247461 0 -412016 246780 0 -410384 246102 0 -408756 245427 0 -407131 244756 0 -405510 244088 0 -403892 243423 0 -402277 242761 0 -400665 242102 0 -399057 241446 0 -397452 240793 0 -395850 240143 0 -394251 239496 0 -392655 238852 0 -391063 238211 0 -389473 237573 0 -387887 236937 0 -386304 236304 0 -384724 235674 0 -383146 235047 0 -381572 234422 0 -380001 233800 0 -378433 233181 0 -376868 232564 0 -375306 231949 0 -373747 231338 0 -372190 230729 0 -370637 230122 0 -369086 229518 0 -367538 228916 0 -365994 228317 0 -364452 227720 0 -362912 227126 0 -361376 226533 0 -359842 225944 0 -358311 225356 0 -356783 224771 0 -355258 224188 0 -353735 223608 0 -352215 223030 0 -350698 222454 0 -349183 221880 0 -347671 221308 0 -346162 220739 0 -344655 220171 0 -343151 219606 0 -341650 219043 0 -340151 218483 0 -338655 217924 0 -337161 217367 0 -335670 216812 0 -334181 216260 0 -332695 215709 0 -331211 215161 0 -329730 214614 0 -328252 214070 0 -326776 213527 0 -325302 212987 0 -323831 212448 0 -322362 211911 0 -320896 211377 0 -319432 210844 0 -317971 210313 0 -316512 209784 0 -315055 209257 0 -313601 208731 0 -312149 208208 0 -310700 207686 0 -309252 207166 0 -307808 206648 0 -306365 206132 0 -304925 205617 0 -303487 205105 0 -302052 204594 0 -300619 204084 0 -299188 203577 0 -297759 203071 0 -296333 202567 0 -502895 303888 0 -501079 302917 0 -499266 301953 0 -497457 300994 0 -495652 300041 0 -493849 299095 0 -492051 298153 0 -490255 297218 0 -488464 296289 0 -486675 295365 0 -484891 294446 0 -483110 293534 0 -481332 292626 0 -479558 291725 0 -477787 290828 0 -476020 289937 0 -474257 289052 0 -472497 288171 0 -470740 287296 0 -468987 286426 0 -467238 285561 0 -465492 284701 0 -463750 283847 0 -462011 282997 0 -460276 282152 0 -458544 281311 0 -456816 280476 0 -455091 279645 0 -453370 278819 0 -451652 277998 0 -449938 277181 0 -448228 276369 0 -446521 275561 0 -444817 274757 0 -443117 273958 0 -441420 273164 0 -439727 272373 0 -438038 271587 0 -436351 270805 0 -434669 270027 0 -432989 269253 0 -431313 268483 0 -429641 267717 0 -427972 266955 0 -426306 266197 0 -424644 265443 0 -422985 264693 0 -421330 263946 0 -419678 263204 0 -418029 262464 0 -416383 261729 0 -414741 260997 0 -413102 260268 0 -411466 259543 0 -409834 258822 0 -408205 258104 0 -406579 257389 0 -404956 256678 0 -403337 255970 0 -401721 255266 0 -400107 254564 0 -398497 253866 0 -396891 253171 0 -395287 252479 0 -393686 251790 0 -392089 251105 0 -390494 250422 0 -388903 249742 0 -387315 249066 0 -385729 248392 0 -384147 247721 0 -382568 247054 0 -380991 246389 0 -379418 245726 0 -377848 245067 0 -376280 244411 0 -374716 243757 0 -373154 243106 0 -371595 242457 0 -370040 241812 0 -368486 241169 0 -366936 240528 0 -365389 239890 0 -363844 239255 0 -362303 238623 0 -360764 237992 0 -359228 237365 0 -357694 236740 0 -356163 236117 0 -354635 235497 0 -353110 234879 0 -351588 234264 0 -350068 233651 0 -348551 233040 0 -347036 232432 0 -345524 231826 0 -344015 231222 0 -342508 230621 0 -341004 230022 0 -339503 229425 0 -338004 228831 0 -336508 228238 0 -335014 227648 0 -333523 227060 0 -332034 226475 0 -330548 225891 0 -329065 225309 0 -327584 224730 0 -326105 224153 0 -324629 223578 0 -323156 223004 0 -321684 222433 0 -320216 221864 0 -318749 221297 0 -317286 220732 0 -315824 220169 0 -314365 219608 0 -312909 219049 0 -311455 218492 0 -310003 217937 0 -308553 217384 0 -307106 216832 0 -305662 216283 0 -304219 215736 0 -302779 215190 0 -301342 214646 0 -299906 214104 0 -298473 213564 0 -505985 320992 0 -504165 319962 0 -502348 318939 0 -500534 317922 0 -498725 316911 0 -496918 315906 0 -495115 314906 0 -493316 313913 0 -491520 312926 0 -489728 311944 0 -487939 310968 0 -486153 309997 0 -484371 309033 0 -482593 308074 0 -480817 307120 0 -479046 306172 0 -477278 305229 0 -475513 304292 0 -473752 303360 0 -471994 302434 0 -470240 301512 0 -468489 300596 0 -466742 299685 0 -464998 298779 0 -463257 297878 0 -461520 296982 0 -459786 296091 0 -458056 295205 0 -456330 294324 0 -454606 293447 0 -452886 292576 0 -451170 291709 0 -449457 290846 0 -447747 289989 0 -446041 289136 0 -444338 288287 0 -442638 287443 0 -440942 286603 0 -439250 285768 0 -437560 284937 0 -435874 284110 0 -434191 283287 0 -432512 282469 0 -430836 281655 0 -429163 280845 0 -427494 280039 0 -425828 279237 0 -424165 278439 0 -422505 277645 0 -420849 276855 0 -419196 276069 0 -417546 275286 0 -415899 274508 0 -414256 273733 0 -412616 272962 0 -410979 272194 0 -409345 271430 0 -407715 270670 0 -406087 269913 0 -404463 269160 0 -402842 268410 0 -401224 267664 0 -399609 266921 0 -397997 266181 0 -396388 265445 0 -394782 264712 0 -393180 263983 0 -391580 263256 0 -389983 262533 0 -388390 261813 0 -386799 261096 0 -385212 260382 0 -383627 259672 0 -382045 258964 0 -380466 258259 0 -378891 257558 0 -377318 256859 0 -375748 256164 0 -374181 255471 0 -372616 254781 0 -371055 254094 0 -369497 253410 0 -367941 252728 0 -366388 252050 0 -364838 251374 0 -363291 250701 0 -361746 250030 0 -360205 249363 0 -358666 248698 0 -357129 248035 0 -355596 247376 0 -354065 246718 0 -352537 246064 0 -351012 245412 0 -349489 244762 0 -347969 244115 0 -346452 243470 0 -344937 242828 0 -343425 242189 0 -341916 241551 0 -340409 240917 0 -338905 240284 0 -337403 239654 0 -335904 239026 0 -334408 238401 0 -332914 237778 0 -331422 237157 0 -329933 236539 0 -328447 235922 0 -326963 235308 0 -325482 234697 0 -324003 234087 0 -322527 233479 0 -321053 232874 0 -319582 232271 0 -318113 231670 0 -316646 231071 0 -315182 230475 0 -313721 229880 0 -312261 229288 0 -310805 228697 0 -309350 228109 0 -307898 227522 0 -306449 226938 0 -305001 226355 0 -303556 225775 0 -302114 225197 0 -300674 224620 0 -509233 338141 0 -507406 337053 0 -505583 335971 0 -503763 334896 0 -501946 333826 0 -500133 332763 0 -498324 331706 0 -496518 330655 0 -494716 329610 0 -492917 328571 0 -491122 327537 0 -489330 326510 0 -487541 325488 0 -485756 324472 0 -483975 323462 0 -482197 322457 0 -480422 321458 0 -478651 320464 0 -476883 319476 0 -475119 318494 0 -473358 317517 0 -471601 316545 0 -469847 315578 0 -468096 314617 0 -466349 313661 0 -464605 312710 0 -462865 311764 0 -461128 310823 0 -459394 309888 0 -457664 308957 0 -455937 308031 0 -454213 307110 0 -452493 306194 0 -450776 305283 0 -449063 304376 0 -447353 303474 0 -445646 302577 0 -443942 301684 0 -442242 300796 0 -440545 299913 0 -438852 299034 0 -437162 298159 0 -435475 297289 0 -433791 296423 0 -432110 295561 0 -430433 294704 0 -428759 293851 0 -427089 293002 0 -425421 292158 0 -423757 291317 0 -422096 290480 0 -420438 289648 0 -418783 288819 0 -417132 287995 0 -415483 287174 0 -413838 286357 0 -412196 285544 0 -410557 284735 0 -408921 283930 0 -407289 283128 0 -405659 282330 0 -404033 281536 0 -402409 280745 0 -400789 279958 0 -399172 279174 0 -397557 278394 0 -395946 277618 0 -394338 276844 0 -392733 276075 0 -391131 275308 0 -389531 274545 0 -387935 273786 0 -386342 273029 0 -384752 272276 0 -383164 271526 0 -381580 270780 0 -379998 270036 0 -378420 269296 0 -376844 268558 0 -375271 267824 0 -373701 267093 0 -372134 266365 0 -370570 265640 0 -369008 264917 0 -367450 264198 0 -3