<?xml version="1.0"?> 
<VTKFile type="StructuredGrid" version="0.1"> 
<StructuredGrid WholeExtent="0 127 0 127 0 0"> 
<Piece Extent="0 127 0 127 0 0"> 
<PointData>
<DataArray type="Float32" Name="E" format="ascii" NumberOfComponents="3"> 
2.68573e+06 1.90735e-06 0 2.17453e+06 -1.75089e-07 0 1.82579e+06 1.52737e-06 0 1.5785e+06 -1.53482e-06 0 1.39667e+06 -7.59959e-07 0 1.2581e+06 5.96046e-08 0 1.14902e+06 2.17557e-06 0 1.06063e+06 -2.6226e-06 0 987213 2.23517e-06 0 924927 -3.99351e-06 0 871148 2.32458e-06 0 824029 -1.01328e-06 0 782237 2.5034e-06 0 744787 -1.78814e-06 0 710937 1.60933e-06 0 680114 -1.3113e-06 0 651870 1.2517e-06 0 625846 -9.53674e-07 0 601752 7.15256e-07 0 579351 -7.15256e-07 0 558445 1.43051e-06 0 538868 -1.3113e-06 0 520480 1.07288e-06 0 503162 -1.3113e-06 0 486811 5.96046e-07 0 471337 -1.43051e-06 0 456663 7.15256e-07 0 442721 -8.34465e-07 0 429451 9.53674e-07 0 416799 -9.53674e-07 0 404717 7.15256e-07 0 393165 -1.19209e-06 0 382103 -7.15256e-07 0 371498 5.96046e-07 0 361319 8.34465e-07 0 351538 -1.54972e-06 0 342128 1.66893e-06 0 333068 -1.43051e-06 0 324336 9.53674e-07 0 315912 -1.19209e-06 0 307778 9.53674e-07 0 299919 -9.53674e-07 0 292319 1.19209e-06 0 284964 -1.19209e-06 0 277841 1.19209e-06 0 270938 -4.76837e-07 0 264243 9.53674e-07 0 257747 -9.53674e-07 0 251439 9.53674e-07 0 245311 -4.76837e-07 0 239354 7.15256e-07 0 233560 -4.76837e-07 0 227922 7.15256e-07 0 222432 -9.53674e-07 0 217084 2.38419e-07 0 211872 -4.76837e-07 0 206789 0 0 201832 -4.76837e-07 0 196993 2.38419e-07 0 192268 -2.38419e-07 0 187653 0 0 183143 2.38419e-07 0 178734 4.76837e-07 0 174421 -4.76837e-07 0 170202 7.15256e-07 0 166072 0 0 162029 0 0 158068 2.38419e-07 0 154186 0 0 150382 2.38419e-07 0 146651 2.38419e-07 0 142991 2.38419e-07 0 139400 0 0 135875 4.76837e-07 0 132413 -4.76837e-07 0 129013 0 0 125672 -4.76837e-07 0 122388 0 0 119159 -4.76837e-07 0 115983 0 0 112859 -4.76837e-07 0 109783 0 0 106756 -4.76837e-07 0 103774 0 0 100837 -4.76837e-07 0 97942.5 0 0 95089.5 -4.76837e-07 0 92276.3 4.76837e-07 0 89501.7 0 0 86764.1 4.76837e-07 0 84062.4 0 0 81395.3 4.76837e-07 0 78761.4 -4.76837e-07 0 76159.7 0 0 73588.9 -4.76837e-07 0 71048 0 0 68535.8 -4.76837e-07 0 66051.3 4.76837e-07 0 63593.4 -4.76837e-07 0 61161.1 4.76837e-07 0 58753.5 -4.76837e-07 0 56369.6 9.53674e-07 0 54008.4 -4.76837e-07 0 51669 9.53674e-07 0 49350.7 -4.76837e-07 0 47052.4 0 0 44773.3 -4.76837e-07 0 42512.6 9.53674e-07 0 40269.5 -1.90735e-06 0 38043.2 2.38419e-06 0 35832.9 -2.38419e-06 0 33637.7 1.43051e-06 0 31457.1 -1.43051e-06 0 29290.2 9.53674e-07 0 27136.2 -1.43051e-06 0 24994.5 0 0 22864.4 4.76837e-07 0 20745.1 -1.90735e-06 0 18636 4.76837e-07 0 16536.3 0 0 14445.4 -4.76837e-07 0 12362.7 1.90735e-06 0 10287.4 -1.43051e-06 0 8218.9 9.53674e-07 0 6156.57 -1.90735e-06 0 4099.73 4.29153e-06 0 2047.76 -6.19888e-06 0 -1.90735e-06 1.04904e-05 0 890400 -1.02167e+06 0 1.01361e+06 -811100 0 1.05391e+06 -657978 0 1.05051e+06 -543575 0 1.02473e+06 -456669 0 988394 -389377 0 947921 -336396 0 906737 -294014 0 866605 -259613 0 828368 -231315 0 792369 -207751 0 758679 -187910 0 727234 -171034 0 697901 -156546 0 670524 -144004 0 644939 -133063 0 620989 -123452 0 598528 -114955 0 577421 -107398 0 557549 -100643 0 538801 -94574 0 521082 -89096.6 0 504304 -84132.5 0 488391 -79616.2 0 473272 -75492.6 0 458886 -71715 0 445177 -68243.8 0 432094 -65044.8 0 419593 -62088.9 0 407632 -59350.6 0 396174 -56808.1 0 385186 -54442.1 0 374637 -52235.8 0 364498 -50174.4 0 354745 -48244.9 0 345354 -46435.8 0 336303 -44736.8 0 327573 -43138.6 0 319145 -41633.3 0 311002 -40213.3 0 303130 -38872.1 0 295513 -37603.9 0 288138 -36403.1 0 280992 -35265 0 274065 -34185.1 0 267344 -33159.4 0 260821 -32184.3 0 254485 -31256.5 0 248328 -30372.8 0 242342 -29530.4 0 236518 -28726.9 0 230849 -27959.8 0 225329 -27226.9 0 219951 -26526.3 0 214709 -25856.1 0 209597 -25214.6 0 204609 -24600.1 0 199741 -24011.2 0 194988 -23446.5 0 190344 -22904.8 0 185806 -22384.9 0 181369 -21885.6 0 177030 -21406 0 172784 -20944.9 0 168629 -20501.7 0 164560 -20075.4 0 160574 -19665.1 0 156668 -19270.3 0 152840 -18890.1 0 149086 -18524 0 145404 -18171.3 0 141791 -17831.4 0 138245 -17503.7 0 134762 -17187.9 0 131342 -16883.3 0 127982 -16589.6 0 124679 -16306.3 0 121431 -16032.9 0 118238 -15769.2 0 115096 -15514.7 0 112004 -15269 0 108960 -15032 0 105963 -14803.2 0 103011 -14582.4 0 100103 -14369.2 0 97235.7 -14163.5 0 94409.4 -13965 0 91622.1 -13773.4 0 88872.4 -13588.5 0 86159.2 -13410.1 0 83481 -13237.9 0 80836.6 -13071.9 0 78224.9 -12911.8 0 75644.7 -12757.4 0 73094.9 -12608.6 0 70574.3 -12465.3 0 68081.9 -12327.1 0 65616.7 -12194.1 0 63177.5 -12066.1 0 60763.6 -11943 0 58373.9 -11824.6 0 56007.4 -11710.8 0 53663.3 -11601.5 0 51340.6 -11496.6 0 49038.5 -11396 0 46756.2 -11299.7 0 44492.8 -11207.4 0 42247.4 -11119.2 0 40019.4 -11035 0 37807.8 -10954.6 0 35612 -10878 0 33431.2 -10805.2 0 31264.6 -10736.1 0 29111.5 -10670.6 0 26971.2 -10608.6 0 24842.9 -10550.2 0 22726.1 -10495.2 0 20619.9 -10443.6 0 18523.8 -10395.4 0 16436.9 -10350.5 0 14358.8 -10309 0 12288.6 -10270.7 0 10225.9 -10235.6 0 8169.81 -10203.8 0 6119.83 -10175.1 0 4075.29 -10149.6 0 2035.56 -10127.3 0 1.09803e-06 -10108 0 785403 -667246 0 756201 -651829 0 746576 -618489 0 742476 -577958 0 738007 -535487 0 731005 -494058 0 721080 -455103 0 708566 -419241 0 694034 -386625 0 678067 -357163 0 661180 -330641 0 643785 -306798 0 626204 -285360 0 608673 -266063 0 591364 -248664 0 574397 -232943 0 557852 -218706 0 541781 -205779 0 526214 -194013 0 511164 -183275 0 496634 -173451 0 482619 -164441 0 469109 -156157 0 456089 -148522 0 443542 -141471 0 431451 -134944 0 419797 -128890 0 408560 -123264 0 397723 -118024 0 387266 -113136 0 377172 -108569 0 367424 -104293 0 358005 -100285 0 348899 -96521.4 0 340092 -92982.6 0 331569 -89650.4 0 323318 -86508.9 0 315324 -83543.2 0 307577 -80740.4 0 300064 -78088.3 0 292775 -75576.1 0 285701 -73194 0 278830 -70933 0 272155 -68784.9 0 265666 -66742.1 0 259356 -64797.9 0 253216 -62945.9 0 247240 -61180.4 0 241421 -59496 0 235751 -57887.8 0 230226 -56351.3 0 224838 -54882.3 0 219583 -53477 0 214455 -52131.8 0 209449 -50843.3 0 204560 -49608.4 0 199784 -48424.4 0 195117 -47288.5 0 190553 -46198.2 0 186090 -45151.2 0 181723 -44145.3 0 177450 -43178.6 0 173266 -42249.1 0 169168 -41355.1 0 165153 -40494.8 0 161219 -39666.7 0 157361 -38869.4 0 153579 -38101.5 0 149868 -37361.6 0 146226 -36648.6 0 142652 -35961.3 0 139142 -35298.6 0 135694 -34659.6 0 132307 -34043.1 0 128977 -33448.4 0 125704 -32874.6 0 122486 -32320.8 0 119319 -31786.4 0 116203 -31270.4 0 113137 -30772.4 0 110117 -30291.5 0 107143 -29827.3 0 104213 -29379 0 101326 -28946.2 0 98480.4 -28528.3 0 95674.3 -28124.9 0 92906.7 -27735.4 0 90176.2 -27359.3 0 87481.6 -26996.3 0 84821.7 -26646 0 82195.3 -26307.9 0 79601.1 -25981.8 0 77038.2 -25667.1 0 74505.3 -25363.7 0 72001.5 -25071.1 0 69525.7 -24789.1 0 67076.9 -24517.4 0 64654.1 -24255.8 0 62256.4 -24003.8 0 59882.9 -23761.4 0 57532.5 -23528.3 0 55204.5 -23304.2 0 52898 -23088.9 0 50612.1 -22882.3 0 48346.1 -22684.2 0 46099 -22494.2 0 43870.1 -22312.4 0 41658.7 -22138.5 0 39463.9 -21972.4 0 37285 -21813.9 0 35121.3 -21662.8 0 32972.1 -21519.2 0 30836.6 -21382.7 0 28714.2 -21253.4 0 26604.1 -21131.1 0 24505.7 -21015.6 0 22418.3 -20907 0 20341.3 -20805.2 0 18274 -20709.9 0 16215.7 -20621.2 0 14165.8 -20539 0 12123.7 -20463.3 0 10088.8 -20393.9 0 8060.42 -20330.8 0 6037.95 -20274.1 0 4020.8 -20223.5 0 2008.35 -20179.1 0 -7.76723e-07 -20141 0 538364 -683297 0 561584 -639732 0 572059 -603736 0 576182 -571413 0 576738 -541247 0 574981 -512556 0 571484 -485139 0 566550 -458972 0 560386 -434095 0 553170 -410548 0 545069 -388351 0 536242 -367502 0 526840 -347972 0 516999 -329716 0 506841 -312675 0 496473 -296784 0 485984 -281973 0 475449 -268168 0 464930 -255301 0 454479 -243302 0 444134 -232105 0 433929 -221651 0 423887 -211881 0 414027 -202742 0 404362 -194185 0 394902 -186164 0 385653 -178639 0 376619 -171571 0 367801 -164926 0 359198 -158671 0 350809 -152777 0 342630 -147218 0 334659 -141970 0 326891 -137009 0 319322 -132316 0 311946 -127873 0 304758 -123661 0 297753 -119666 0 290925 -115873 0 284270 -112268 0 277781 -108840 0 271453 -105576 0 265281 -102468 0 259260 -99505.6 0 253384 -96679.4 0 247649 -93981.5 0 242051 -91404.5 0 236583 -88941.4 0 231243 -86585.7 0 226025 -84331.2 0 220926 -82172.6 0 215941 -80104.4 0 211066 -78122 0 206298 -76220.7 0 201633 -74396.3 0 197068 -72645 0 192598 -70963 0 188222 -69346.8 0 183936 -67793.3 0 179736 -66299.5 0 175620 -64862.4 0 171585 -63479.4 0 167629 -62148.1 0 163748 -60866 0 159941 -59631.1 0 156205 -58441.1 0 152537 -57294.1 0 148935 -56188.3 0 145398 -55122 0 141923 -54093.4 0 138507 -53101.1 0 135150 -52143.5 0 131849 -51219.3 0 128603 -50327.2 0 125409 -49465.9 0 122266 -48634.2 0 119173 -47831.1 0 116127 -47055.4 0 113128 -46306.2 0 110173 -45582.5 0 107262 -44883.4 0 104392 -44208 0 101563 -43555.6 0 98773.3 -42925.3 0 96021.6 -42316.5 0 93306.6 -41728.4 0 90627.2 -41160.3 0 87982.1 -40611.7 0 85370.4 -40081.9 0 82790.7 -39570.3 0 80242.2 -39076.4 0 77723.7 -38599.7 0 75234.3 -38139.7 0 72772.9 -37695.9 0 70338.6 -37267.8 0 67930.4 -36855.1 0 65547.5 -36457.3 0 63189 -36074 0 60853.9 -35705 0 58541.5 -35349.7 0 56250.8 -35007.9 0 53981.2 -34679.3 0 51731.7 -34363.6 0 49501.6 -34060.4 0 47290.2 -33769.5 0 45096.7 -33490.7 0 42920.3 -33223.7 0 40760.4 -32968.2 0 38616.2 -32724.1 0 36487.1 -32491.1 0 34372.3 -32269.1 0 32271.2 -32057.8 0 30183.1 -31857.1 0 28107.4 -31666.8 0 26043.4 -31486.7 0 23990.5 -31316.8 0 21948.1 -31156.8 0 19915.5 -31006.7 0 17892.2 -30866.3 0 15877.5 -30735.5 0 13870.8 -30614.2 0 11871.6 -30502.4 0 9879.22 -30399.9 0 7893.13 -30306.7 0 5912.74 -30222.7 0 3937.46 -30147.8 0 1966.74 -30082 0 5.51343e-07 -30025.3 0 453817 -608995 0 452563 -593209 0 454656 -573959 0 457258 -553354 0 459260 -532320 0 460265 -511372 0 460193 -490779 0 459085 -470694 0 457028 -451211 0 454121 -432392 0 450461 -414277 0 446142 -396891 0 441252 -380246 0 435873 -364346 0 430080 -349185 0 423942 -334751 0 417522 -321027 0 410877 -307991 0 404057 -295619 0 397107 -283881 0 390066 -272752 0 382970 -262200 0 375847 -252198 0 368723 -242715 0 361621 -233725 0 354558 -225198 0 347550 -217110 0 340611 -209434 0 333751 -202148 0 326978 -195227 0 320300 -188650 0 313722 -182397 0 307249 -176450 0 300883 -170789 0 294626 -165399 0 288481 -160264 0 282447 -155368 0 276526 -150698 0 270715 -146242 0 265016 -141986 0 259427 -137920 0 253946 -134034 0 248572 -130317 0 243303 -126760 0 238138 -123354 0 233073 -120092 0 228108 -116966 0 223240 -113969 0 218467 -111094 0 213787 -108335 0 209197 -105686 0 204695 -103142 0 200279 -100697 0 195947 -98346.9 0 191696 -96087.1 0 187525 -93913.2 0 183431 -91821.3 0 179412 -89807.4 0 175466 -87868.2 0 171592 -86000.1 0 167786 -84200.1 0 164048 -82465.2 0 160375 -80792.5 0 156765 -79179.3 0 153217 -77623.3 0 149729 -76121.9 0 146299 -74673 0 142926 -73274.4 0 139607 -71924.1 0 136342 -70620.1 0 133128 -69360.8 0 129965 -68144.3 0 126851 -66969 0 123783 -65833.4 0 120762 -64736 0 117786 -63675.5 0 114852 -62650.4 0 111961 -61659.6 0 109111 -60701.8 0 106300 -59775.9 0 103527 -58880.8 0 100792 -58015.6 0 98093.1 -57179.1 0 95429 -56370.5 0 92798.9 -55588.9 0 90201.7 -54833.4 0 87636.4 -54103.2 0 85102 -53397.6 0 82597.6 -52715.8 0 80122.2 -52057.1 0 77674.9 -51420.9 0 75254.8 -50806.5 0 72861 -50213.3 0 70492.8 -49640.7 0 68149.1 -49088.2 0 65829.3 -48555.3 0 63532.4 -48041.4 0 61257.9 -47546.1 0 59004.7 -47068.9 0 56772.3 -46609.3 0 54559.9 -46167 0 52366.7 -45741.7 0 50192.1 -45332.7 0 48035.3 -44940 0 45895.7 -44563 0 43772.5 -44201.5 0 41665.2 -43855.2 0 39573.1 -43523.8 0 37495.6 -43206.9 0 35431.9 -42904.4 0 33381.6 -42616 0 31344 -42341.5 0 29318.5 -42080.6 0 27304.4 -41833.1 0 25301.3 -41598.9 0 23308.6 -41377.7 0 21325.6 -41169.4 0 19351.8 -40973.9 0 17386.6 -40790.9 0 15429.6 -40620.3 0 13480.1 -40462.1 0 11537.6 -40316 0 9601.61 -40182.1 0 7671.53 -40060.1 0 5746.85 -39950.1 0 3827.05 -39851.9 0 1911.61 -39765.4 0 -5.96046e-07 -39690.7 0 356145 -589147 0 363512 -569950 0 368189 -552242 0 371445 -535185 0 373769 -518491 0 375354 -502053 0 376273 -485860 0 376563 -469939 0 376249 -454328 0 375364 -439065 0 373941 -424182 0 372019 -409709 0 369638 -395665 0 366841 -382066 0 363668 -368922 0 360159 -356239 0 356354 -344018 0 352288 -332257 0 347997 -320951 0 343512 -310091 0 338863 -299669 0 334077 -289672 0 329180 -280089 0 324193 -270907 0 319138 -262110 0 314031 -253685 0 308891 -245618 0 303730 -237894 0 298563 -230497 0 293400 -223415 0 288251 -216633 0 283126 -210138 0 278030 -203917 0 272972 -197956 0 267957 -192244 0 262988 -186769 0 258072 -181520 0 253209 -176485 0 248404 -171656 0 243659 -167022 0 238975 -162574 0 234354 -158304 0 229797 -154202 0 225304 -150261 0 220876 -146473 0 216514 -142832 0 212216 -139330 0 207983 -135962 0 203815 -132721 0 199711 -129601 0 195670 -126597 0 191692 -123703 0 187776 -120916 0 183920 -118229 0 180125 -115640 0 176389 -113143 0 172711 -110736 0 169090 -108413 0 165525 -106171 0 162015 -104008 0 158558 -101920 0 155154 -99903.1 0 151802 -97955.6 0 148500 -96074.4 0 145248 -94256.9 0 142043 -92500.6 0 138886 -90803.1 0 135774 -89162.3 0 132707 -87576 0 129684 -86042.3 0 126704 -84559 0 123766 -83124.6 0 120868 -81737.1 0 118009 -80395 0 115189 -79096.7 0 112407 -77840.6 0 109661 -76625.3 0 106951 -75449.5 0 104276 -74311.9 0 101635 -73211.1 0 99025.9 -72146.1 0 96449.3 -71115.6 0 93903.8 -70118.7 0 91388.5 -69154.2 0 88902.7 -68221.1 0 86445.4 -67318.6 0 84015.9 -66445.8 0 81613.4 -65601.7 0 79237.1 -64785.5 0 76886.2 -63996.6 0 74560 -63234 0 72257.7 -62497.1 0 69978.7 -61785.3 0 67722.1 -61097.8 0 65487.4 -60434 0 63273.8 -59793.4 0 61080.6 -59175.4 0 58907.2 -58579.4 0 56752.9 -58004.8 0 54617.2 -57451.3 0 52499.2 -56918.4 0 50398.6 -56405.5 0 48314.5 -55912.3 0 46246.5 -55438.3 0 44194 -54983.2 0 42156.3 -54546.6 0 40132.9 -54128.1 0 38123.2 -53727.5 0 36126.7 -53344.3 0 34142.8 -52978.3 0 32170.9 -52629.1 0 30210.6 -52296.6 0 28261.4 -51980.5 0 26322.6 -51680.5 0 24393.7 -51396.4 0 22474.4 -51128.1 0 20564 -50875.2 0 18662 -50637.6 0 16768 -50415.1 0 14881.5 -50207.6 0 13001.9 -50014.9 0 11128.8 -49837 0 9261.75 -49673.6 0 7400.22 -49524.6 0 5543.75 -49390 0 3691.87 -49269.7 0 1844.11 -49163.6 0 7.22706e-07 -49071.6 0 293731 -556305 0 296646 -543748 0 299887 -530529 0 302899 -517092 0 305484 -503620 0 307585 -490217 0 309196 -476937 0 310331 -463820 0 311012 -450894 0 311260 -438182 0 311100 -425706 0 310553 -413485 0 309644 -401533 0 308397 -389865 0 306836 -378491 0 304984 -367420 0 302866 -356657 0 300503 -346207 0 297920 -336071 0 295137 -326249 0 292174 -316740 0 289052 -307541 0 285788 -298648 0 282400 -290055 0 278905 -281758 0 275316 -273750 0 271649 -266022 0 267915 -258569 0 264127 -251381 0 260295 -244452 0 256429 -237772 0 252538 -231334 0 248631 -225129 0 244713 -219149 0 240793 -213386 0 236876 -207832 0 232967 -202479 0 229071 -197320 0 225193 -192346 0 221334 -187552 0 217500 -182930 0 213693 -178473 0 209916 -174175 0 206169 -170029 0 202457 -166030 0 198779 -162171 0 195137 -158448 0 191533 -154854 0 187967 -151384 0 184440 -148035 0 180952 -144800 0 177505 -141676 0 174097 -138658 0 170730 -135742 0 167404 -132924 0 164117 -130201 0 160871 -127568 0 157665 -125023 0 154498 -122562 0 151371 -120181 0 148283 -117879 0 145234 -115651 0 142222 -113496 0 139249 -111410 0 136312 -109392 0 133412 -107439 0 130548 -105548 0 127719 -103717 0 124925 -101944 0 122166 -100228 0 119439 -98566.2 0 116746 -96956.7 0 114085 -95398.1 0 111456 -93888.5 0 108857 -92426.4 0 106289 -91010.3 0 103751 -89638.7 0 101241 -88310.3 0 98760.5 -87023.5 0 96307.2 -85777.3 0 93881.1 -84570.4 0 91481.5 -83401.5 0 89107.7 -82269.6 0 86759.1 -81173.6 0 84435.1 -80112.5 0 82135 -79085.2 0 79858.4 -78090.9 0 77604.5 -77128.6 0 75372.8 -76197.5 0 73162.7 -75296.7 0 70973.6 -74425.5 0 68805 -73583 0 66656.2 -72768.6 0 64526.6 -71981.5 0 62415.9 -71221.2 0 60323.3 -70486.9 0 58248.4 -69778 0 56190.6 -69094 0 54149.4 -68434.3 0 52124.3 -67798.4 0 50114.8 -67185.7 0 48120.2 -66595.8 0 46140.3 -66028.2 0 44174.3 -65482.5 0 42222 -64958.2 0 40282.6 -64455 0 38355.9 -63972.4 0 36441.3 -63510.1 0 34538.3 -63067.7 0 32646.5 -62645 0 30765.5 -62241.6 0 28894.6 -61857.1 0 27033.6 -61491.4 0 25182 -61144.2 0 23339.2 -60815.1 0 21505 -60504.1 0 19678.8 -60210.8 0 17860.2 -59935.1 0 16048.7 -59676.7 0 14244.1 -59435.5 0 12445.8 -59211.4 0 10653.4 -59004.1 0 8866.45 -58813.5 0 7084.63 -58639.6 0 5307.48 -58482.1 0 3534.6 -58341.1 0 1765.58 -58216.4 0 -6.63102e-07 -58107.9 0 236846 -534288 0 241050 -522473 0 244530 -510946 0 247532 -499548 0 250142 -488236 0 252392 -477001 0 254294 -465855 0 255856 -454811 0 257084 -443889 0 257988 -433104 0 258580 -422473 0 258871 -412007 0 258875 -401721 0 258606 -391624 0 258078 -381727 0 257306 -372036 0 256305 -362558 0 255089 -353299 0 253673 -344262 0 252073 -335450 0 250300 -326865 0 248370 -318508 0 246296 -310377 0 244089 -302473 0 241763 -294792 0 239328 -287334 0 236796 -280095 0 234176 -273071 0 231479 -266259 0 228714 -259655 0 225888 -253254 0 223011 -247051 0 220089 -241042 0 217130 -235222 0 214139 -229586 0 211123 -224128 0 208086 -218843 0 205034 -213727 0 201972 -208775 0 198903 -203980 0 195831 -199339 0 192760 -194846 0 189693 -190497 0 186632 -186287 0 183581 -182212 0 180541 -178266 0 177515 -174446 0 174504 -170747 0 171510 -167166 0 168535 -163698 0 165579 -160340 0 162644 -157087 0 159731 -153937 0 156841 -150885 0 153974 -147929 0 151132 -145064 0 148313 -142289 0 145520 -139600 0 142752 -136995 0 140010 -134469 0 137293 -132022 0 134602 -129649 0 131937 -127350 0 129298 -125120 0 126685 -122959 0 124097 -120863 0 121536 -118832 0 118999 -116862 0 116488 -114951 0 114002 -113099 0 111541 -111303 0 109104 -109561 0 106691 -107871 0 104303 -106233 0 101938 -104644 0 99596 -103104 0 97277.1 -101610 0 94980.7 -100161 0 92706.5 -98756.9 0 90454 -97395 0 88222.9 -96074.8 0 86012.7 -94794.9 0 83823.1 -93554.3 0 81653.7 -92351.8 0 79504 -91186.6 0 77373.7 -90057.6 0 75262.3 -88963.8 0 73169.4 -87904.4 0 71094.5 -86878.5 0 69037.4 -85885.1 0 66997.5 -84923.7 0 64974.4 -83993.3 0 62967.8 -83093.2 0 60977.2 -82222.7 0 59002.1 -81381.2 0 57042.3 -80568 0 55097.2 -79782.4 0 53166.5 -79023.8 0 51249.7 -78291.8 0 49346.5 -77585.7 0 47456.5 -76905 0 45579.2 -76249.2 0 43714.3 -75617.9 0 41861.3 -75010.5 0 40019.9 -74426.6 0 38189.7 -73865.8 0 36370.3 -73327.8 0 34561.3 -72812.1 0 32762.3 -72318.3 0 30973 -71846.1 0 29193 -71395.2 0 27421.9 -70965.4 0 25659.3 -70556.2 0 23904.9 -70167.3 0 22158.3 -69798.7 0 20419.2 -69449.9 0 18687.1 -69120.8 0 16961.7 -68811.2 0 15242.7 -68520.8 0 13529.7 -68249.4 0 11822.4 -67996.9 0 10120.4 -67763.2 0 8423.28 -67548 0 6730.79 -67351.3 0 5042.57 -67172.9 0 3358.26 -67012.7 0 1677.51 -66870.6 0 5.1409e-07 -66746.5 0 191761 -511441 0 195049 -501901 0 198206 -492246 0 201127 -482569 0 203779 -472913 0 206154 -463300 0 208255 -453747 0 210086 -444268 0 211655 -434875 0 212969 -425578 0 214035 -416387 0 214861 -407313 0 215455 -398363 0 215827 -389547 0 215985 -380871 0 215939 -372342 0 215698 -363966 0 215273 -355747 0 214672 -347689 0 213906 -339797 0 212984 -332071 0 211916 -324516 0 210712 -317130 0 209379 -309917 0 207928 -302874 0 206366 -296004 0 204703 -289304 0 202945 -282773 0 201101 -276410 0 199179 -270213 0 197184 -264180 0 195124 -258309 0 193004 -252596 0 190831 -247040 0 188611 -241636 0 186348 -236383 0 184048 -231276 0 181714 -226314 0 179352 -221491 0 176965 -216806 0 174558 -212254 0 172133 -207833 0 169694 -203538 0 167244 -199367 0 164786 -195317 0 162322 -191383 0 159854 -187563 0 157386 -183854 0 154918 -180252 0 152452 -176754 0 149991 -173358 0 147536 -170060 0 145088 -166858 0 142648 -163749 0 140218 -160730 0 137798 -157798 0 135390 -154951 0 132994 -152186 0 130611 -149501 0 128242 -146894 0 125888 -144363 0 123548 -141904 0 121223 -139516 0 118914 -137197 0 116620 -134945 0 114343 -132758 0 112082 -130634 0 109838 -128571 0 107610 -126568 0 105400 -124623 0 103206 -122733 0 101028 -120899 0 98868 -119117 0 96724.3 -117387 0 94597.4 -115707 0 92487 -114076 0 90393.2 -112493 0 88315.7 -110955 0 86254.5 -109463 0 84209.4 -108015 0 82180.1 -106609 0 80166.6 -105245 0 78168.5 -103921 0 76185.8 -102637 0 74218.1 -101391 0 72265.3 -100183 0 70327 -99011.7 0 68403.1 -97876.1 0 66493.3 -96775.4 0 64597.4 -95708.9 0 62715 -94675.6 0 60845.9 -93675 0 58989.8 -92706.3 0 57146.5 -91768.7 0 55315.6 -90861.6 0 53497 -89984.3 0 51690.2 -89136.3 0 49895.1 -88316.9 0 48111.3 -87525.6 0 46338.5 -86761.9 0 44576.5 -86025.1 0 42824.9 -85314.8 0 41083.5 -84630.6 0 39352 -83971.8 0 37630 -83338.2 0 35917.3 -82729.3 0 34213.7 -82144.7 0 32518.7 -81584 0 30832.1 -81046.8 0 29153.6 -80532.8 0 27483 -80041.6 0 25819.9 -79573 0 24164 -79126.6 0 22515.1 -78702.1 0 20872.8 -78299.4 0 19236.9 -77918.1 0 17607.1 -77557.9 0 15983.1 -77218.8 0 14364.7 -76900.4 0 12751.4 -76602.6 0 11143.1 -76325.1 0 9539.49 -76067.9 0 7940.24 -75830.8 0 6345.1 -75613.6 0 4753.78 -75416.2 0 3166.01 -75238.5 0 1581.51 -75080.3 0 -7.45058e-07 -74941.7 0 152437 -491443 0 155829 -482939 0 158933 -474495 0 161796 -466086 0 164435 -457709 0 166855 -449371 0 169060 -441077 0 171052 -432836 0 172835 -424657 0 174412 -416547 0 175789 -408514 0 176971 -400566 0 177962 -392708 0 178769 -384947 0 179397 -377289 0 179854 -369739 0 180144 -362301 0 180276 -354980 0 180256 -347779 0 180090 -340701 0 179785 -333750 0 179349 -326927 0 178787 -320234 0 178106 -313674 0 177314 -307246 0 176416 -300951 0 175418 -294790 0 174327 -288763 0 173149 -282870 0 171889 -277109 0 170553 -271481 0 169146 -265983 0 167674 -260616 0 166141 -255376 0 164551 -250264 0 162910 -245277 0 161222 -240413 0 159491 -235670 0 157720 -231047 0 155913 -226541 0 154074 -222149 0 152206 -217871 0 150311 -213703 0 148394 -209643 0 146456 -205688 0 144501 -201838 0 142530 -198088 0 140545 -194438 0 138550 -190884 0 136545 -187424 0 134533 -184057 0 132515 -180779 0 130494 -177588 0 128469 -174484 0 126443 -171462 0 124417 -168522 0 122392 -165660 0 120369 -162876 0 118349 -160167 0 116334 -157531 0 114323 -154967 0 112317 -152471 0 110318 -150044 0 108326 -147682 0 106341 -145385 0 104365 -143150 0 102396 -140977 0 100437 -138862 0 98486.1 -136806 0 96545.1 -134806 0 94613.9 -132861 0 92692.6 -130969 0 90781.6 -129130 0 88881 -127342 0 86990.8 -125603 0 85111.3 -123913 0 83242.5 -122270 0 81384.6 -120673 0 79537.4 -119121 0 77701.1 -117613 0 75875.7 -116148 0 74061.1 -114725 0 72257.3 -113342 0 70464.3 -112000 0 68682 -110696 0 66910.4 -109431 0 65149.2 -108202 0 63398.5 -107011 0 61658.1 -105854 0 59927.9 -104733 0 58207.8 -103646 0 56497.6 -102592 0 54797.2 -101572 0 53106.5 -100583 0 51425.2 -99625.2 0 49753.2 -98698.5 0 48090.4 -97802.1 0 46436.5 -96935.3 0 44791.4 -96097.6 0 43154.9 -95288.5 0 41526.9 -94507.4 0 39907 -93753.9 0 38295.2 -93027.5 0 36691.2 -92327.8 0 35094.8 -91654.2 0 33505.8 -91006.5 0 31924 -90384.2 0 30349.3 -89786.9 0 28781.4 -89214.3 0 27220 -88666 0 25665 -88141.7 0 24116.2 -87641.1 0 22573.4 -87163.9 0 21036.3 -86709.8 0 19504.7 -86278.5 0 17978.5 -85869.8 0 16457.3 -85483.5 0 14941.1 -85119.3 0 13429.5 -84777.1 0 11922.4 -84456.5 0 10419.5 -84157.5 0 8920.6 -83879.9 0 7425.55 -83623.5 0 5934.09 -83388.2 0 4446.03 -83173.9 0 2961.13 -82980.4 0 1479.19 -82807.6 0 3.35276e-07 -82655.5 0 119032 -472155 0 122166 -464801 0 125145 -457433 0 127949 -450073 0 130575 -442733 0 133021 -435419 0 135290 -428140 0 137384 -420902 0 139305 -413710 0 141057 -406571 0 142642 -399489 0 144066 -392470 0 145330 -385520 0 146439 -378642 0 147397 -371841 0 148210 -365121 0 148880 -358487 0 149413 -351940 0 149813 -345486 0 150086 -339126 0 150236 -332862 0 150268 -326698 0 150187 -320635 0 149998 -314675 0 149706 -308819 0 149315 -303067 0 148831 -297422 0 148257 -291883 0 147599 -286451 0 146861 -281126 0 146048 -275907 0 145162 -270796 0 144210 -265790 0 143195 -260890 0 142119 -256095 0 140989 -251404 0 139806 -246816 0 138574 -242330 0 137298 -237945 0 135979 -233660 0 134621 -229472 0 133226 -225381 0 131798 -221386 0 130340 -217484 0 128853 -213675 0 127340 -209956 0 125803 -206326 0 124245 -202783 0 122668 -199327 0 121072 -195954 0 119461 -192663 0 117836 -189454 0 116198 -186323 0 114550 -183270 0 112891 -180293 0 111225 -177390 0 109551 -174560 0 107872 -171800 0 106188 -169110 0 104500 -166489 0 102810 -163933 0 101118 -161442 0 99424.5 -159015 0 97731 -156650 0 96038 -154345 0 94346.1 -152100 0 92656 -149913 0 90968.2 -147782 0 89283.2 -145707 0 87601.5 -143685 0 85923.6 -141717 0 84249.8 -139800 0 82580.6 -137934 0 80916.1 -136116 0 79256.9 -134348 0 77603 -132626 0 75954.8 -130950 0 74312.4 -129320 0 72676.1 -127734 0 71046.1 -126191 0 69422.3 -124690 0 67805.1 -123230 0 66194.5 -121811 0 64590.5 -120431 0 62993.3 -119090 0 61402.9 -117788 0 59819.3 -116522 0 58242.5 -115293 0 56672.7 -114099 0 55109.7 -112940 0 53553.5 -111816 0 52004.2 -110726 0 50461.6 -109668 0 48925.8 -108643 0 47396.6 -107649 0 45874.1 -106687 0 44358.1 -105756 0 42848.6 -104854 0 41345.5 -103982 0 39848.7 -103140 0 38358.1 -102326 0 36873.6 -101540 0 35395.1 -100782 0 33922.4 -100051 0 32455.6 -99346.7 0 30994.3 -98669.1 0 29538.6 -98017.7 0 28088.3 -97392.1 0 26643.3 -96791.8 0 25203.3 -96216.6 0 23768.4 -95666.2 0 22338.4 -95140.2 0 20913 -94638.4 0 19492.2 -94160.5 0 18075.9 -93706.2 0 16663.9 -93275.3 0 15256 -92867.5 0 13852.1 -92482.7 0 12452 -92120.7 0 11055.7 -91781.1 0 9662.86 -91464 0 8273.45 -91169 0 6887.3 -90896.1 0 5504.25 -90645.1 0 4124.14 -90415.9 0 2746.83 -90208.3 0 1372.17 -90022.3 0 -3.35276e-07 -89857.7 0 89883.9 -454043 0 92949.8 -447508 0 95852.1 -440990 0 98600.3 -434487 0 101198 -428001 0 103646 -421538 0 105946 -415102 0 108100 -408696 0 110110 -402327 0 111977 -395997 0 113705 -389712 0 115295 -383475 0 116750 -377290 0 118073 -371161 0 119267 -365091 0 120335 -359084 0 121280 -353142 0 122106 -347268 0 122817 -341466 0 123415 -335737 0 123904 -330084 0 124288 -324509 0 124571 -319013 0 124756 -313598 0 124847 -308265 0 124847 -303016 0 124761 -297852 0 124591 -292773 0 124341 -287780 0 124015 -282874 0 123617 -278055 0 123149 -273323 0 122615 -268678 0 122018 -264121 0 121361 -259650 0 120648 -255265 0 119881 -250967 0 119063 -246755 0 118197 -242627 0 117286 -238584 0 116333 -234624 0 115339 -230747 0 114307 -226952 0 113240 -223237 0 112140 -219603 0 111009 -216047 0 109849 -212569 0 108662 -209167 0 107449 -205841 0 106214 -202589 0 104956 -199411 0 103679 -196304 0 102384 -193268 0 101071 -190302 0 99742.7 -187404 0 98400.2 -184573 0 97044.8 -181807 0 95677.6 -179107 0 94299.7 -176470 0 92912.3 -173895 0 91516.3 -171381 0 90112.6 -168928 0 88702.2 -166533 0 87286 -164195 0 85864.7 -161914 0 84439 -159689 0 83009.7 -157517 0 81577.5 -155399 0 80142.9 -153333 0 78706.5 -151318 0 77268.9 -149354 0 75830.6 -147438 0 74392 -145570 0 72953.6 -143750 0 71515.7 -141975 0 70078.9 -140246 0 68643.3 -138561 0 67209.4 -136920 0 65777.4 -135322 0 64347.7 -133765 0 62920.4 -132249 0 61495.7 -130773 0 60074 -129337 0 58655.4 -127940 0 57240 -126580 0 55828 -125258 0 54419.5 -123972 0 53014.7 -122722 0 51613.7 -121507 0 50216.6 -120327 0 48823.4 -119181 0 47434.2 -118068 0 46049 -116988 0 44668 -115941 0 43291.1 -114924 0 41918.4 -113939 0 40549.9 -112985 0 39185.6 -112061 0 37825.5 -111166 0 36469.5 -110301 0 35117.7 -109465 0 33770.1 -108657 0 32426.5 -107876 0 31087.1 -107124 0 29751.6 -106398 0 28420.2 -105699 0 27092.7 -105027 0 25769.1 -104381 0 24449.3 -103760 0 23133.3 -103165 0 21821 -102595 0 20512.3 -102050 0 19207.2 -101529 0 17905.5 -101033 0 16607.2 -100561 0 15312.3 -100113 0 14020.5 -99688.5 0 12732 -99287.3 0 11446.5 -98909.3 0 10163.9 -98554.4 0 8884.3 -98222.4 0 7607.45 -97913 0 6333.31 -97626.2 0 5061.79 -97361.9 0 3792.79 -97119.8 0 2526.22 -96899.9 0 1261.99 -96702.1 0 3.72529e-07 -96526.2 0 64515.7 -436656 0 67459.7 -430868 0 70279.6 -425083 0 72972 -419306 0 75536.9 -413542 0 77974.8 -407796 0 80286.8 -402071 0 82474.3 -396370 0 84538.6 -390697 0 86481.3 -385055 0 88304.2 -379448 0 90009.1 -373878 0 91598 -368349 0 93073 -362864 0 94436.3 -357424 0 95690.3 -352034 0 96837.3 -346695 0 97879.9 -341410 0 98820.7 -336180 0 99662.2 -331009 0 100407 -325898 0 101058 -320848 0 101619 -315861 0 102090 -310939 0 102477 -306083 0 102781 -301295 0 103005 -296574 0 103152 -291923 0 103224 -287342 0 103225 -282832 0 103158 -278392 0 103024 -274024 0 102827 -269728 0 102569 -265504 0 102253 -261353 0 101881 -257273 0 101456 -253266 0 100980 -249330 0 100455 -245466 0 99884.4 -241674 0 99269.5 -237952 0 98612.8 -234302 0 97916.3 -230721 0 97182 -227210 0 96412 -223767 0 95608 -220393 0 94771.9 -217087 0 93905.5 -213847 0 93010.4 -210674 0 92088.4 -207565 0 91140.9 -204521 0 90169.5 -201541 0 89175.6 -198624 0 88160.6 -195769 0 87125.8 -192974 0 86072.5 -190240 0 85002 -187565 0 83915.3 -184949 0 82813.6 -182390 0 81697.9 -179887 0 80569.3 -177441 0 79428.6 -175049 0 78276.9 -172710 0 77115 -170425 0 75943.7 -168192 0 74763.8 -166010 0 73576.1 -163879 0 72381.2 -161796 0 71179.8 -159763 0 69972.6 -157777 0 68760.1 -155838 0 67542.9 -153945 0 66321.6 -152098 0 65096.6 -150295 0 63868.5 -148535 0 62637.7 -146819 0 61404.5 -145145 0 60169.5 -143512 0 58932.9 -141920 0 57695.1 -140368 0 56456.5 -138855 0 55217.4 -137381 0 53977.9 -135945 0 52738.5 -134546 0 51499.3 -133184 0 50260.6 -131858 0 49022.6 -130567 0 47785.4 -129312 0 46549.4 -128090 0 45314.5 -126903 0 44081.1 -125748 0 42849.2 -124626 0 41619 -123537 0 40390.6 -122479 0 39164 -121452 0 37939.4 -120456 0 36717 -119490 0 35496.6 -118554 0 34278.5 -117647 0 33062.7 -116769 0 31849.1 -115920 0 30638 -115098 0 29429.3 -114305 0 28223 -113539 0 27019.2 -112800 0 25817.8 -112088 0 24619 -111402 0 23422.7 -110742 0 22228.8 -110108 0 21037.5 -109500 0 19848.7 -108917 0 18662.4 -108358 0 17478.5 -107825 0 16297.1 -107316 0 15118.2 -106831 0 13941.6 -106370 0 12767.4 -105933 0 11595.6 -105519 0 10426.2 -105129 0 9258.99 -104762 0 8094.08 -104418 0 6931