<?xml version="1.0"?> 
<VTKFile type="StructuredGrid" version="0.1"> 
<StructuredGrid WholeExtent="0 127 0 127 0 0"> 
<Piece Extent="0 127 0 127 0 0"> 
<PointData>
<DataArray type="Float32" Name="E" format="ascii" NumberOfComponents="3"> 
2.32391e+06 1.71661e-05 0 2.3239e+06 -7.97212e-06 0 2.32387e+06 2.22027e-06 0 2.32382e+06 1.78814e-06 0 2.32375e+06 -4.08292e-06 0 2.32366e+06 3.93391e-06 0 2.32355e+06 -4.05312e-06 0 2.32342e+06 5.96046e-07 0 2.32327e+06 1.90735e-06 0 2.3231e+06 -3.8147e-06 0 2.32291e+06 4.05312e-06 0 2.32271e+06 -3.45707e-06 0 2.32248e+06 3.33786e-06 0 2.32223e+06 -3.21865e-06 0 2.32196e+06 3.57628e-06 0 2.32167e+06 -3.8147e-06 0 2.32136e+06 3.8147e-06 0 2.32103e+06 -4.17233e-06 0 2.32068e+06 3.09944e-06 0 2.32031e+06 -3.33786e-06 0 2.31992e+06 3.33786e-06 0 2.3195e+06 -3.57628e-06 0 2.31907e+06 2.6226e-06 0 2.31862e+06 -2.86102e-06 0 2.31814e+06 2.86102e-06 0 2.31765e+06 -2.86102e-06 0 2.31713e+06 2.86102e-06 0 2.31659e+06 -2.14577e-06 0 2.31603e+06 2.38419e-06 0 2.31545e+06 -1.66893e-06 0 2.31485e+06 1.66893e-06 0 2.31422e+06 -3.57628e-06 0 2.31357e+06 4.76837e-07 0 2.3129e+06 0 0 2.31221e+06 0 0 2.3115e+06 7.15256e-07 0 2.31076e+06 -4.76837e-07 0 2.31e+06 -9.53674e-07 0 2.30922e+06 9.53674e-07 0 2.30841e+06 -4.76837e-07 0 2.30758e+06 4.76837e-07 0 2.30673e+06 0 0 2.30585e+06 9.53674e-07 0 2.30495e+06 -9.53674e-07 0 2.30402e+06 0 0 2.30307e+06 -4.76837e-07 0 2.30209e+06 4.76837e-07 0 2.30109e+06 -4.76837e-07 0 2.30006e+06 4.76837e-07 0 2.29901e+06 0 0 2.29793e+06 9.53674e-07 0 2.29682e+06 4.76837e-07 0 2.29569e+06 9.53674e-07 0 2.29453e+06 -4.76837e-07 0 2.29334e+06 4.76837e-07 0 2.29212e+06 0 0 2.29088e+06 0 0 2.2896e+06 -4.76837e-07 0 2.2883e+06 4.76837e-07 0 2.28696e+06 0 0 2.2856e+06 -9.53674e-07 0 2.2842e+06 4.76837e-07 0 2.28277e+06 9.53674e-07 0 2.28131e+06 9.53674e-07 0 2.27982e+06 -9.53674e-07 0 2.2783e+06 0 0 2.27673e+06 -4.76837e-07 0 2.27514e+06 0 0 2.27351e+06 -4.76837e-07 0 2.27184e+06 4.76837e-07 0 2.27014e+06 -4.76837e-07 0 2.26839e+06 9.53674e-07 0 2.26661e+06 -9.53674e-07 0 2.26479e+06 9.53674e-07 0 2.26293e+06 -9.53674e-07 0 2.26102e+06 9.53674e-07 0 2.25907e+06 -9.53674e-07 0 2.25708e+06 9.53674e-07 0 2.25504e+06 -1.90735e-06 0 2.25295e+06 9.53674e-07 0 2.25081e+06 -1.90735e-06 0 2.24863e+06 1.90735e-06 0 2.24639e+06 -1.90735e-06 0 2.2441e+06 1.90735e-06 0 2.24175e+06 -1.90735e-06 0 2.23934e+06 1.90735e-06 0 2.23687e+06 -2.86102e-06 0 2.23434e+06 1.90735e-06 0 2.23175e+06 -2.86102e-06 0 2.22908e+06 2.86102e-06 0 2.22635e+06 -2.86102e-06 0 2.22354e+06 1.90735e-06 0 2.22065e+06 -2.86102e-06 0 2.21768e+06 2.86102e-06 0 2.21462e+06 -2.86102e-06 0 2.21148e+06 2.86102e-06 0 2.20823e+06 -2.86102e-06 0 2.20488e+06 2.86102e-06 0 2.20143e+06 -1.90735e-06 0 2.19786e+06 9.53674e-07 0 2.19417e+06 9.53674e-07 0 2.19034e+06 0 0 2.18638e+06 1.90735e-06 0 2.18226e+06 -9.53674e-07 0 2.17798e+06 9.53674e-07 0 2.17353e+06 -1.90735e-06 0 2.16888e+06 3.8147e-06 0 2.16403e+06 -1.90735e-06 0 2.15896e+06 9.53674e-07 0 2.15364e+06 -2.86102e-06 0 2.14805e+06 5.72205e-06 0 2.14216e+06 -4.76837e-06 0 2.13595e+06 1.90735e-06 0 2.12938e+06 9.53674e-07 0 2.12241e+06 -2.86102e-06 0 2.115e+06 0 0 2.1071e+06 9.53674e-07 0 2.09865e+06 -3.8147e-06 0 2.08957e+06 7.62939e-06 0 2.07981e+06 -8.58307e-06 0 2.06926e+06 4.76837e-06 0 2.05783e+06 9.53674e-07 0 2.0454e+06 -3.8147e-06 0 2.03184e+06 1.90735e-06 0 2.01699e+06 0 0 2.00066e+06 -3.8147e-06 0 1.98266e+06 1.04904e-05 0 1.96272e+06 -1.52588e-05 0 2.32973e+06 0.000989976 0 2.32972e+06 -335.513 0 2.32969e+06 -671.094 0 2.32965e+06 -1006.81 0 2.32958e+06 -1342.74 0 2.32949e+06 -1678.94 0 2.32939e+06 -2015.48 0 2.32926e+06 -2352.43 0 2.32911e+06 -2689.87 0 2.32895e+06 -3027.86 0 2.32877e+06 -3366.47 0 2.32856e+06 -3705.77 0 2.32834e+06 -4045.84 0 2.3281e+06 -4386.75 0 2.32783e+06 -4728.57 0 2.32755e+06 -5071.38 0 2.32725e+06 -5415.26 0 2.32693e+06 -5760.27 0 2.32659e+06 -6106.5 0 2.32623e+06 -6454.02 0 2.32585e+06 -6802.93 0 2.32544e+06 -7153.29 0 2.32502e+06 -7505.19 0 2.32458e+06 -7858.72 0 2.32412e+06 -8213.96 0 2.32364e+06 -8571.01 0 2.32313e+06 -8929.95 0 2.32261e+06 -9290.88 0 2.32207e+06 -9653.89 0 2.3215e+06 -10019.1 0 2.32092e+06 -10386.5 0 2.32031e+06 -10756.4 0 2.31968e+06 -11128.7 0 2.31903e+06 -11503.7 0 2.31836e+06 -11881.3 0 2.31767e+06 -12261.8 0 2.31695e+06 -12645.2 0 2.31622e+06 -13031.7 0 2.31546e+06 -13421.3 0 2.31468e+06 -13814.3 0 2.31387e+06 -14210.7 0 2.31305e+06 -14610.8 0 2.3122e+06 -15014.6 0 2.31133e+06 -15422.2 0 2.31044e+06 -15833.9 0 2.30952e+06 -16249.8 0 2.30858e+06 -16670.1 0 2.30761e+06 -17094.9 0 2.30662e+06 -17524.5 0 2.30561e+06 -17959 0 2.30457e+06 -18398.5 0 2.30351e+06 -18843.4 0 2.30242e+06 -19293.8 0 2.30131e+06 -19750 0 2.30017e+06 -20212.1 0 2.29901e+06 -20680.5 0 2.29782e+06 -21155.4 0 2.2966e+06 -21636.9 0 2.29536e+06 -22125.5 0 2.29409e+06 -22621.4 0 2.29279e+06 -23124.9 0 2.29146e+06 -23636.4 0 2.29011e+06 -24156.1 0 2.28872e+06 -24684.4 0 2.28731e+06 -25221.8 0 2.28587e+06 -25768.5 0 2.2844e+06 -26325 0 2.2829e+06 -26891.7 0 2.28137e+06 -27469.2 0 2.27981e+06 -28057.8 0 2.27821e+06 -28658.1 0 2.27658e+06 -29270.6 0 2.27493e+06 -29895.9 0 2.27323e+06 -30534.7 0 2.27151e+06 -31187.5 0 2.26975e+06 -31855 0 2.26795e+06 -32538 0 2.26612e+06 -33237.2 0 2.26426e+06 -33953.5 0 2.26236e+06 -34687.7 0 2.26042e+06 -35440.8 0 2.25844e+06 -36213.7 0 2.25643e+06 -37007.5 0 2.25437e+06 -37823.4 0 2.25228e+06 -38662.5 0 2.25015e+06 -39526.2 0 2.24797e+06 -40415.8 0 2.24576e+06 -41332.9 0 2.2435e+06 -42279 0 2.2412e+06 -43255.8 0 2.23886e+06 -44265.3 0 2.23647e+06 -45309.3 0 2.23404e+06 -46390.1 0 2.23157e+06 -47509.9 0 2.22905e+06 -48671.3 0 2.22648e+06 -49876.9 0 2.22387e+06 -51129.7 0 2.22122e+06 -52432.8 0 2.21852e+06 -53789.6 0 2.21578e+06 -55203.9 0 2.213e+06 -56679.7 0 2.21017e+06 -58221.3 0 2.20731e+06 -59833.6 0 2.2044e+06 -61521.8 0 2.20146e+06 -63291.4 0 2.19849e+06 -65148.6 0 2.19549e+06 -67100.3 0 2.19247e+06 -69153.7 0 2.18943e+06 -71316.9 0 2.18639e+06 -73598.8 0 2.18334e+06 -76008.9 0 2.1803e+06 -78557.9 0 2.17729e+06 -81257.5 0 2.17433e+06 -84120.3 0 2.17142e+06 -87160.5 0 2.16859e+06 -90393.4 0 2.16587e+06 -93836.2 0 2.1633e+06 -97507.5 0 2.16091e+06 -101428 0 2.15875e+06 -105621 0 2.15687e+06 -110110 0 2.15534e+06 -114925 0 2.15423e+06 -120095 0 2.15363e+06 -125655 0 2.15366e+06 -131642 0 2.15444e+06 -138099 0 2.15612e+06 -145069 0 2.15888e+06 -152607 0 2.34665e+06 0.00171306 0 2.34664e+06 -650.874 0 2.34661e+06 -1301.87 0 2.34657e+06 -1953.09 0 2.34651e+06 -2604.68 0 2.34643e+06 -3256.73 0 2.34633e+06 -3909.38 0 2.34622e+06 -4562.73 0 2.34609e+06 -5216.92 0 2.34594e+06 -5872.05 0 2.34577e+06 -6528.25 0 2.34559e+06 -7185.65 0 2.34539e+06 -7844.36 0 2.34517e+06 -8504.51 0 2.34494e+06 -9166.22 0 2.34468e+06 -9829.62 0 2.34441e+06 -10494.8 0 2.34412e+06 -11162 0 2.34381e+06 -11831.2 0 2.34349e+06 -12502.7 0 2.34315e+06 -13176.5 0 2.34279e+06 -13852.8 0 2.34241e+06 -14531.7 0 2.34201e+06 -15213.3 0 2.3416e+06 -15897.8 0 2.34117e+06 -16585.4 0 2.34072e+06 -17276.2 0 2.34025e+06 -17970.4 0 2.33976e+06 -18668 0 2.33926e+06 -19369.3 0 2.33874e+06 -20074.4 0 2.3382e+06 -20783.4 0 2.33764e+06 -21496.6 0 2.33706e+06 -22214.2 0 2.33647e+06 -22936.2 0 2.33585e+06 -23662.8 0 2.33522e+06 -24394.4 0 2.33457e+06 -25130.9 0 2.3339e+06 -25872.7 0 2.33321e+06 -26619.9 0 2.3325e+06 -27372.7 0 2.33177e+06 -28131.3 0 2.33103e+06 -28896 0 2.33026e+06 -29666.9 0 2.32948e+06 -30444.3 0 2.32868e+06 -31228.5 0 2.32785e+06 -32019.6 0 2.32701e+06 -32817.8 0 2.32615e+06 -33623.6 0 2.32527e+06 -34437 0 2.32437e+06 -35258.4 0 2.32345e+06 -36088 0 2.32251e+06 -36926.2 0 2.32156e+06 -37773.2 0 2.32058e+06 -38629.3 0 2.31958e+06 -39494.9 0 2.31856e+06 -40370.2 0 2.31752e+06 -41255.6 0 2.31647e+06 -42151.5 0 2.31539e+06 -43058.1 0 2.31429e+06 -43975.9 0 2.31317e+06 -44905.3 0 2.31204e+06 -45846.5 0 2.31088e+06 -46800.2 0 2.3097e+06 -47766.5 0 2.3085e+06 -48746.1 0 2.30728e+06 -49739.3 0 2.30605e+06 -50746.6 0 2.30479e+06 -51768.6 0 2.30351e+06 -52805.6 0 2.30221e+06 -53858.2 0 2.30089e+06 -54926.9 0 2.29955e+06 -56012.4 0 2.2982e+06 -57115.1 0 2.29682e+06 -58235.7 0 2.29542e+06 -59374.7 0 2.29401e+06 -60532.8 0 2.29257e+06 -61710.7 0 2.29112e+06 -62909 0 2.28965e+06 -64128.4 0 2.28816e+06 -65369.6 0 2.28665e+06 -66633.4 0 2.28513e+06 -67920.5 0 2.28359e+06 -69231.7 0 2.28203e+06 -70567.8 0 2.28046e+06 -71929.6 0 2.27887e+06 -73317.9 0 2.27727e+06 -74733.6 0 2.27565e+06 -76177.6 0 2.27402e+06 -77650.8 0 2.27238e+06 -79153.9 0 2.27073e+06 -80688 0 2.26907e+06 -82253.9 0 2.2674e+06 -83852.5 0 2.26572e+06 -85484.7 0 2.26404e+06 -87151.4 0 2.26235e+06 -88853.4 0 2.26066e+06 -90591.6 0 2.25897e+06 -92366.6 0 2.25728e+06 -94179.2 0 2.2556e+06 -96030 0 2.25392e+06 -97919.5 0 2.25224e+06 -99848.2 0 2.25058e+06 -101816 0 2.24892e+06 -103824 0 2.24729e+06 -105871 0 2.24566e+06 -107957 0 2.24406e+06 -110081 0 2.24248e+06 -112243 0 2.24092e+06 -114440 0 2.23939e+06 -116672 0 2.23788e+06 -118935 0 2.23641e+06 -121227 0 2.23496e+06 -123543 0 2.23353e+06 -125878 0 2.23214e+06 -128228 0 2.23076e+06 -130584 0 2.2294e+06 -132939 0 2.22805e+06 -135282 0 2.2267e+06 -137601 0 2.22533e+06 -139883 0 2.22392e+06 -142111 0 2.22245e+06 -144265 0 2.22088e+06 -146322 0 2.21918e+06 -148257 0 2.21728e+06 -150038 0 2.21512e+06 -151630 0 2.21262e+06 -152990 0 2.37342e+06 0.00201565 0 2.37341e+06 -927.516 0 2.37339e+06 -1855.17 0 2.37335e+06 -2783.1 0 2.3733e+06 -3711.46 0 2.37324e+06 -4640.36 0 2.37315e+06 -5569.96 0 2.37306e+06 -6500.39 0 2.37295e+06 -7431.8 0 2.37282e+06 -8364.33 0 2.37268e+06 -9298.1 0 2.37253e+06 -10233.3 0 2.37236e+06 -11170 0 2.37217e+06 -12108.4 0 2.37198e+06 -13048.6 0 2.37176e+06 -13990.8 0 2.37153e+06 -14935.1 0 2.37129e+06 -15881.7 0 2.37103e+06 -16830.7 0 2.37076e+06 -17782.3 0 2.37047e+06 -18736.5 0 2.37017e+06 -19693.7 0 2.36985e+06 -20653.8 0 2.36952e+06 -21617.2 0 2.36917e+06 -22583.8 0 2.36881e+06 -23554 0 2.36844e+06 -24527.8 0 2.36805e+06 -25505.4 0 2.36764e+06 -26487 0 2.36722e+06 -27472.8 0 2.36679e+06 -28462.8 0 2.36634e+06 -29457.4 0 2.36587e+06 -30456.6 0 2.36539e+06 -31460.6 0 2.3649e+06 -32469.7 0 2.36439e+06 -33483.9 0 2.36387e+06 -34503.5 0 2.36333e+06 -35528.7 0 2.36278e+06 -36559.6 0 2.36221e+06 -37596.5 0 2.36163e+06 -38639.5 0 2.36103e+06 -39688.9 0 2.36042e+06 -40744.7 0 2.35979e+06 -41807.3 0 2.35916e+06 -42876.9 0 2.3585e+06 -43953.6 0 2.35783e+06 -45037.7 0 2.35715e+06 -46129.4 0 2.35645e+06 -47228.8 0 2.35574e+06 -48336.4 0 2.35501e+06 -49452.1 0 2.35427e+06 -50576.4 0 2.35352e+06 -51709.3 0 2.35275e+06 -52851.3 0 2.35197e+06 -54002.4 0 2.35117e+06 -55163 0 2.35036e+06 -56333.3 0 2.34954e+06 -57513.6 0 2.3487e+06 -58704 0 2.34785e+06 -59905 0 2.34699e+06 -61116.6 0 2.34611e+06 -62339.3 0 2.34522e+06 -63573.2 0 2.34431e+06 -64818.7 0 2.3434e+06 -66076 0 2.34247e+06 -67345.4 0 2.34153e+06 -68627.1 0 2.34057e+06 -69921.5 0 2.33961e+06 -71228.9 0 2.33863e+06 -72549.5 0 2.33764e+06 -73883.6 0 2.33664e+06 -75231.5 0 2.33563e+06 -76593.5 0 2.33461e+06 -77969.9 0 2.33357e+06 -79361 0 2.33253e+06 -80767 0 2.33148e+06 -82188.2 0 2.33041e+06 -83624.9 0 2.32934e+06 -85077.5 0 2.32826e+06 -86546 0 2.32717e+06 -88030.9 0 2.32607e+06 -89532.4 0 2.32496e+06 -91050.7 0 2.32385e+06 -92586 0 2.32273e+06 -94138.6 0 2.3216e+06 -95708.7 0 2.32047e+06 -97296.5 0 2.31933e+06 -98902.1 0 2.31818e+06 -100526 0 2.31703e+06 -102168 0 2.31588e+06 -103828 0 2.31473e+06 -105506 0 2.31357e+06 -107203 0 2.31241e+06 -108919 0 2.31124e+06 -110653 0 2.31008e+06 -112405 0 2.30891e+06 -114176 0 2.30775e+06 -115966 0 2.30658e+06 -117773 0 2.30542e+06 -119599 0 2.30425e+06 -121443 0 2.30309e+06 -123304 0 2.30193e+06 -125183 0 2.30077e+06 -127079 0 2.29962e+06 -128992 0 2.29847e+06 -130922 0 2.29732e+06 -132868 0 2.29618e+06 -134830 0 2.29504e+06 -136807 0 2.29391e+06 -138800 0 2.29278e+06 -140808 0 2.29166e+06 -142832 0 2.29054e+06 -144871 0 2.28943e+06 -146925 0 2.28833e+06 -148996 0 2.28724e+06 -151083 0 2.28617e+06 -153189 0 2.2851e+06 -155315 0 2.28406e+06 -157463 0 2.28304e+06 -159636 0 2.28205e+06 -161839 0 2.28111e+06 -164077 0 2.28021e+06 -166357 0 2.27938e+06 -168687 0 2.27864e+06 -171077 0 2.278e+06 -173540 0 2.27752e+06 -176092 0 2.27721e+06 -178754 0 2.40841e+06 0.00197302 0 2.4084e+06 -1157.37 0 2.40838e+06 -2314.88 0 2.40835e+06 -3472.67 0 2.40831e+06 -4630.86 0 2.40826e+06 -5789.6 0 2.40819e+06 -6949.01 0 2.40812e+06 -8109.25 0 2.40803e+06 -9270.44 0 2.40793e+06 -10432.7 0 2.40782e+06 -11596.2 0 2.40769e+06 -12761.1 0 2.40756e+06 -13927.5 0 2.40741e+06 -15095.5 0 2.40725e+06 -16265.3 0 2.40708e+06 -17437 0 2.40689e+06 -18610.7 0 2.4067e+06 -19786.7 0 2.40649e+06 -20965 0 2.40627e+06 -22145.8 0 2.40604e+06 -23329.2 0 2.4058e+06 -24515.4 0 2.40555e+06 -25704.4 0 2.40529e+06 -26896.5 0 2.40501e+06 -28091.8 0 2.40472e+06 -29290.5 0 2.40442e+06 -30492.6 0 2.40411e+06 -31698.4 0 2.40379e+06 -32907.9 0 2.40345e+06 -34121.4 0 2.40311e+06 -35338.9 0 2.40275e+06 -36560.7 0 2.40239e+06 -37786.8 0 2.40201e+06 -39017.5 0 2.40162e+06 -40252.8 0 2.40121e+06 -41493 0 2.4008e+06 -42738.1 0 2.40038e+06 -43988.4 0 2.39994e+06 -45244 0 2.3995e+06 -46505 0 2.39904e+06 -47771.6 0 2.39857e+06 -49044 0 2.39809e+06 -50322.3 0 2.3976e+06 -51606.7 0 2.3971e+06 -52897.3 0 2.39659e+06 -54194.4 0 2.39607e+06 -55498 0 2.39554e+06 -56808.3 0 2.395e+06 -58125.5 0 2.39445e+06 -59449.7 0 2.39389e+06 -60781.2 0 2.39331e+06 -62120 0 2.39273e+06 -63466.4 0 2.39214e+06 -64820.4 0 2.39154e+06 -66182.4 0 2.39092e+06 -67552.3 0 2.3903e+06 -68930.4 0 2.38967e+06 -70316.9 0 2.38903e+06 -71711.9 0 2.38838e+06 -73115.5 0 2.38773e+06 -74528 0 2.38706e+06 -75949.5 0 2.38638e+06 -77380.1 0 2.3857e+06 -78820 0 2.385e+06 -80269.3 0 2.3843e+06 -81728.3 0 2.38359e+06 -83197 0 2.38288e+06 -84675.6 0 2.38215e+06 -86164.2 0 2.38142e+06 -87663.1 0 2.38068e+06 -89172.3 0 2.37993e+06 -90691.9 0 2.37918e+06 -92222.1 0 2.37842e+06 -93763.1 0 2.37765e+06 -95314.8 0 2.37687e+06 -96877.6 0 2.37609e+06 -98451.4 0 2.37531e+06 -100036 0 2.37452e+06 -101633 0 2.37372e+06 -103240 0 2.37292e+06 -104859 0 2.37211e+06 -106490 0 2.3713e+06 -108132 0 2.37048e+06 -109786 0 2.36966e+06 -111452 0 2.36883e+06 -113130 0 2.368e+06 -114819 0 2.36717e+06 -116520 0 2.36634e+06 -118233 0 2.3655e+06 -119958 0 2.36466e+06 -121695 0 2.36381e+06 -123444 0 2.36297e+06 -125205 0 2.36212e+06 -126977 0 2.36127e+06 -128762 0 2.36042e+06 -130558 0 2.35957e+06 -132366 0 2.35872e+06 -134185 0 2.35787e+06 -136017 0 2.35702e+06 -137859 0 2.35617e+06 -139714 0 2.35532e+06 -141579 0 2.35447e+06 -143456 0 2.35362e+06 -145343 0 2.35278e+06 -147242 0 2.35193e+06 -149151 0 2.35109e+06 -151071 0 2.35025e+06 -153001 0 2.34942e+06 -154941 0 2.34858e+06 -156890 0 2.34775e+06 -158850 0 2.34693e+06 -160817 0 2.3461e+06 -162794 0 2.34529e+06 -164778 0 2.34447e+06 -166769 0 2.34366e+06 -168766 0 2.34285e+06 -170768 0 2.34205e+06 -172774 0 2.34124e+06 -174782 0 2.34043e+06 -176790 0 2.33962e+06 -178795 0 2.3388e+06 -180794 0 2.33797e+06 -182784 0 2.33712e+06 -184758 0 2.33623e+06 -186713 0 2.33531e+06 -188639 0 2.33433e+06 -190530 0 2.33327e+06 -192372 0 2.44991e+06 0.00175964 0 2.4499e+06 -1341.04 0 2.44989e+06 -2682.21 0 2.44987e+06 -4023.61 0 2.44983e+06 -5365.38 0 2.44979e+06 -6707.63 0 2.44974e+06 -8050.49 0 2.44968e+06 -9394.07 0 2.44961e+06 -10738.5 0 2.44954e+06 -12083.9 0 2.44945e+06 -13430.4 0 2.44935e+06 -14778.1 0 2.44925e+06 -16127.1 0 2.44913e+06 -17477.6 0 2.44901e+06 -18829.6 0 2.44888e+06 -20183.3 0 2.44874e+06 -21538.9 0 2.44859e+06 -22896.4 0 2.44843e+06 -24255.9 0 2.44826e+06 -25617.6 0 2.44808e+06 -26981.7 0 2.4479e+06 -28348.1 0 2.4477e+06 -29717.1 0 2.4475e+06 -31088.7 0 2.44729e+06 -32463.2 0 2.44706e+06 -33840.5 0 2.44683e+06 -35220.9 0 2.44659e+06 -36604.4 0 2.44635e+06 -37991.2 0 2.44609e+06 -39381.4 0 2.44583e+06 -40775.1 0 2.44555e+06 -42172.4 0 2.44527e+06 -43573.5 0 2.44498e+06 -44978.5 0 2.44468e+06 -46387.5 0 2.44438e+06 -47800.6 0 2.44406e+06 -49218 0 2.44374e+06 -50639.7 0 2.44341e+06 -52065.9 0 2.44307e+06 -53496.7 0 2.44272e+06 -54932.3 0 2.44236e+06 -56372.7 0 2.442e+06 -57818 0 2.44163e+06 -59268.4 0 2.44125e+06 -60724.1 0 2.44086e+06 -62185 0 2.44047e+06 -63651.4 0 2.44006e+06 -65123.4 0 2.43965e+06 -66601 0 2.43924e+06 -68084.4 0 2.43881e+06 -69573.7 0 2.43838e+06 -71069 0 2.43794e+06 -72570.4 0 2.43749e+06 -74078.1 0 2.43704e+06 -75592.1 0 2.43658e+06 -77112.6 0 2.43612e+06 -78639.6 0 2.43564e+06 -80173.3 0 2.43516e+06 -81713.7 0 2.43468e+06 -83261.1 0 2.43418e+06 -84815.4 0 2.43368e+06 -86376.8 0 2.43318e+06 -87945.3 0 2.43267e+06 -89521.1 0 2.43215e+06 -91104.3 0 2.43163e+06 -92694.9 0 2.4311e+06 -94293.1 0 2.43057e+06 -95898.9 0 2.43003e+06 -97512.4 0 2.42948e+06 -99133.6 0 2.42893e+06 -100763 0 2.42838e+06 -102400 0 2.42782e+06 -104045 0 2.42726e+06 -105698 0 2.42669e+06 -107359 0 2.42611e+06 -109029 0 2.42554e+06 -110707 0 2.42496e+06 -112393 0 2.42437e+06 -114087 0 2.42378e+06 -115790 0 2.42319e+06 -117501 0 2.42259e+06 -119221 0 2.42199e+06 -120950 0 2.42139e+06 -122687 0 2.42078e+06 -124432 0 2.42017e+06 -126186 0 2.41956e+06 -127949 0 2.41894e+06 -129720 0 2.41833e+06 -131500 0 2.41771e+06 -133289 0 2.41708e+06 -135086 0 2.41646e+06 -136892 0 2.41583e+06 -138706 0 2.41521e+06 -140529 0 2.41458e+06 -142360 0 2.41395e+06 -144200 0 2.41331e+06 -146049 0 2.41268e+06 -147906 0 2.41204e+06 -149771 0 2.41141e+06 -151645 0 2.41077e+06 -153527 0 2.41013e+06 -155417 0 2.40949e+06 -157315 0 2.40885e+06 -159221 0 2.40821e+06 -161135 0 2.40757e+06 -163057 0 2.40693e+06 -164987 0 2.40628e+06 -166925 0 2.40564e+06 -168870 0 2.40499e+06 -170823 0 2.40435e+06 -172784 0 2.4037e+06 -174752 0 2.40306e+06 -176727 0 2.40241e+06 -178710 0 2.40176e+06 -180701 0 2.40111e+06 -182700 0 2.40046e+06 -184707 0 2.39982e+06 -186722 0 2.39917e+06 -188746 0 2.39852e+06 -190780 0 2.39788e+06 -192825 0 2.39724e+06 -194881 0 2.3966e+06 -196951 0 2.39598e+06 -199037 0 2.39536e+06 -201141 0 2.39477e+06 -203266 0 2.3942e+06 -205418 0 2.39367e+06 -207601 0 2.49638e+06 0.00148711 0 2.49637e+06 -1483.73 0 2.49636e+06 -2967.57 0 2.49634e+06 -4451.61 0 2.49632e+06 -5935.96 0 2.49629e+06 -7420.72 0 2.49625e+06 -8905.99 0 2.49621e+06 -10391.9 0 2.49616e+06 -11878.5 0 2.4961e+06 -13365.9 0 2.49603e+06 -14854.2 0 2.49596e+06 -16343.6 0 2.49588e+06 -17834 0 2.4958e+06 -19325.7 0 2.49571e+06 -20818.8 0 2.49561e+06 -22313.2 0 2.4955e+06 -23809.2 0 2.49539e+06 -25306.8 0 2.49527e+06 -26806.1 0 2.49514e+06 -28307.3 0 2.49501e+06 -29810.4 0 2.49487e+06 -31315.5 0 2.49473e+06 -32822.8 0 2.49457e+06 -34332.3 0 2.49442e+06 -35844.1 0 2.49425e+06 -37358.3 0 2.49408e+06 -38875.1 0 2.4939e+06 -40394.5 0 2.49372e+06 -41916.7 0 2.49353e+06 -43441.6 0 2.49333e+06 -44969.5 0 2.49313e+06 -46500.4 0 2.49292e+06 -48034.4 0 2.4927e+06 -49571.7 0 2.49248e+06 -51112.2 0 2.49225e+06 -52656.2 0 2.49202e+06 -54203.6 0 2.49178e+06 -55754.7 0 2.49153e+06 -57309.4 0 2.49128e+06 -58867.9 0 2.49102e+06 -60430.3 0 2.49076e+06 -61996.7 0 2.49049e+06 -63567.2 0 2.49022e+06 -65141.7 0 2.48994e+06 -66720.6 0 2.48965e+06 -68303.7 0 2.48936e+06 -69891.3 0 2.48906e+06 -71483.4 0 2.48876e+06 -73080.1 0 2.48845e+06 -74681.5 0 2.48814e+06 -76287.6 0 2.48782e+06 -77898.6 0 2.4875e+06 -79514.5 0 2.48717e+06 -81135.5 0 2.48684e+06 -82761.5 0 2.4865e+06 -84392.7 0 2.48615e+06 -86029.2 0 2.48581e+06 -87671 0 2.48545e+06 -89318.2 0 2.4851e+06 -90970.9 0 2.48474e+06 -92629.1 0 2.48437e+06 -94293 0 2.484e+06 -95962.6 0 2.48363e+06 -97637.9 0 2.48325e+06 -99319.1 0 2.48287e+06 -101006 0 2.48248e+06 -102699 0 2.48209e+06 -104398 0 2.48169e+06 -106103 0 2.4813e+06 -107815 0 2.4809e+06 -109532 0 2.48049e+06 -111256 0 2.48008e+06 -112986 0 2.47967e+06 -114722 0 2.47925e+06 -116465 0 2.47884e+06 -118214 0 2.47841e+06 -119970 0 2.47799e+06 -121732 0 2.47756e+06 -123501 0 2.47713e+06 -125276 0 2.4767e+06 -127058 0 2.47626e+06 -128847 0 2.47583e+06 -130642 0 2.47539e+06 -132445 0 2.47494e+06 -134254 0 2.4745e+06 -136070 0 2.47405e+06 -137892 0 2.4736e+06 -139722 0 2.47315e+06 -141558 0 2.4727e+06 -143401 0 2.47224e+06 -145251 0 2.47179e+06 -147108 0 2.47133e+06 -148972 0 2.47087e+06 -150843 0 2.47041e+06 -152721 0 2.46994e+06 -154606 0 2.46948e+06 -156498 0 2.46901e+06 -158397 0 2.46855e+06 -160303 0 2.46808e+06 -162216 0 2.46761e+06 -164135 0 2.46714e+06 -166062 0 2.46667e+06 -167996 0 2.4662e+06 -169937 0 2.46573e+06 -171885 0 2.46525e+06 -173840 0 2.46478e+06 -175802 0 2.46431e+06 -177771 0 2.46383e+06 -179747 0 2.46336e+06 -181730 0 2.46288e+06 -183720 0 2.46241e+06 -185717 0 2.46193e+06 -187722 0 2.46146e+06 -189733 0 2.46098e+06 -191751 0 2.46051e+06 -193775 0 2.46003e+06 -195807 0 2.45956e+06 -197845 0 2.45909e+06 -199889 0 2.45861e+06 -201939 0 2.45813e+06 -203994 0 2.45766e+06 -206055 0 2.45718e+06 -208120 0 2.45669e+06 -210187 0 2.4562e+06 -212257 0 2.45571e+06 -214327 0 2.4552e+06 -216395 0 2.45467e+06 -218458 0 2.54651e+06 0.0012355 0 2.54651e+06 -1591.96 0 2.5465e+06 -3184 0 2.54649e+06 -4776.22 0 2.54647e+06 -6368.68 0 2.54645e+06 -7961.49 0 2.54642e+06 -9554.73 0 2.54639e+06 -11148.5 0 2.54635e+06 -12742.8 0 2.54631e+06 -14337.8 0 2.54626e+06 -15933.6 0 2.54621e+06 -17530.2 0 2.54615e+06 -19127.8 0 2.54609e+06 -20726.3 0 2.54602e+06 -22326 0 2.54595e+06 -23926.8 0 2.54588e+06 -25529 0 2.5458e+06 -27132.4 0 2.54571e+06 -28737.3 0 2.54562e+06 -30343.7 0 2.54553e+06 -31951.7 0 2.54543e+06 -33561.4 0 2.54532e+06 -35172.9 0 2.54521e+06 -36786.2 0 2.5451e+06 -38401.4 0 2.54498e+06 -40018.6 0 2.54486e+06 -41637.9 0 2.54473e+06 -43259.4 0 2.5446e+06 -44883.2 0 2.54446e+06 -46509.2 0 2.54432e+06 -48137.7 0 2.54417e+06 -49768.7 0 2.54402e+06 -51402.2 0 2.54387e+06 -53038.4 0 2.54371e+06 -54677.3 0 2.54355e+06 -56318.9 0 2.54338e+06 -57963.5 0 2.54321e+06 -59611 0 2.54303e+06 -61261.6 0 2.54285e+06 -62915.2 0 2.54267e+06 -64572.1 0 2.54248e+06 -66232.2 0 2.54229e+06 -67895.6 0 2.5421e+06 -69562.4 0 2.5419e+06 -71232.7 0 2.54169e+06 -72906.5 0 2.54148e+06 -74584 0 2.54127e+06 -76265.1 0 2.54106e+06 -77950 0 2.54084e+06 -79638.7 0 2.54062e+06 -81331.3 0 2.54039e+06 -83027.8 0 2.54016e+06 -84728.4 0 2.53993e+06 -86433.1 0 2.53969e+06 -88141.9 0 2.53945e+06 -89854.9 0 2.53921e+06 -91572.2 0 2.53896e+06 -93293.9 0 2.53871e+06 -95019.9 0 2.53846e+06 -96750.5 0 2.53821e+06 -98485.5 0 2.53795e+06 -100225 0 2.53769e+06 -101969 0 2.53742e+06 -103718 0 2.53715e+06 -105472 0 2.53688e+06 -107231 0 2.53661e+06 -108994 0 2.53634e+06 -110762 0 2.53606e+06 -112536 0 2.53578e+06 -114314 0 2.5355e+06 -116097 0 2.53521e+06 -117886 0 2.53492e+06 -119679 0 2.53463e+06 -121478 0 2.53434e+06 -123282 0 2.53405e+06 -125091 0 2.53375e+06 -126906 0 2.53345e+06 -128726 0 2.53315e+06 -130551 0 2.53285e+06 -132382 0 2.53255e+06 -134219 0 2.53224e+06 -136060 0 2.53194e+06 -137908 0 2.53163e+06 -139761 0 2.53132e+06 -141620 0 2.53101e+06 -143484 0 2.5307e+06 -145354 0 2.53038e+06 -147230 0 2.53007e+06 -149112 0 2.52975e+06 -150999 0 2.52943e+06 -152892 0 2.52911e+06 -154791 0 2.52879e+06 -156696 0 2.52847e+06 -158607 0 2.52815e+06 -160524 0 2.52783e+06 -162446 0 2.52751e+06 -164375 0 2.52718e+06 -166310 0 2.52686e+06 -168250 0 2.52653e+06 -170197 0 2.52621e+06 -172150 0 2.52588e+06 -174109 0 2.52556e+06 -176074 0 2.52523e+06 -178045 0 2.5249e+06 -180022 0 2.52458e+06 -182006 0 2.52425e+06 -183996 0 2.52392e+06 -185991 0 2.52359e+06 -187993 0 2.52327e+06 -190002 0 2.52294e+06 -192016 0 2.52261e+06 -194037 0 2.52228e+06 -196064 0 2.52195e+06 -198098 0 2.52163e+06 -200138 0 2.5213e+06 -202184 0 2.52097e+06 -204237 0 2.52064e+06 -206297 0 2.52031e+06 -208363 0 2.51999e+06 -210436 0 2.51966e+06 -212517 0 2.51934e+06 -214604 0 2.51901e+06 -216700 0 2.51869e+06 -218804 0 2.51837e+06 -220917 0 2.51806e+06 -223039 0 2.51775e+06 -225172 0 2.51745e+06 -227318 0 2.59924e+06 0.00102391 0 2.59924e+06 -1671.77 0 2.59923e+06 -3343.6 0 2.59922e+06 -5015.58 0 2.59921e+06 -6687.77 0 2.5992e+06 -8360.24 0 2.59918e+06 -10033.1 0 2.59915e+06 -11706.3 0 2.59913e+06 -13380 0 2.5991e+06 -15054.3 0 2.59907e+06 -16729.3 0 2.59903e+06 -18404.9 0 2.599e+06 -20081.3 0 2.59895e+06 -21758.5 0 2.59891e+06 -23436.7 0 2.59886e+06 -25115.8 0 2.59881e+06 -26796 0 2.59876e+06 -28477.3 0 2.5987e+06 -30159.8 0 2.59864e+06 -31843.6 0 2.59857e+06 -33528.6 0 2.59851e+06 -35215.1 0 2.59843e+06 -36903 0 2.59836e+06 -38592.4 0 2.59828e+06 -40283.5 0 2.5982e+06 -41976.2 0 2.59812e+06 -43670.6 0 2.59804e+06 -45366.8 0 2.59795e+06 -47064.9 0 2.59785e+06 -48764.9 0 2.59776e+06 -50466.9 0 2.59766e+06 -52171 0 2.59756e+06 -53877.2 0 2.59746e+06 -55585.6 0 2.59735e+06 -57296.2 0 2.59724e+06 -59009.2 0 2.59713e+06 -60724.5 0 2.59701e+06 -62442.3 0 2.5969e+06 -64162.5 0 2.59677e+06 -65885.4 0 2.59665e+06 -67610.8 0 2.59653e+06 -69339 0 2.5964e+06 -71069.9 0 2.59627e+06 -72803.7 0 2.59613e+06 -74540.3 0 2.596e+06 -76279.8 0 2.59586e+06 -78022.3 0 2.59572e+06 -79767.9 0 2.59557e+06 -81516.6 0 2.59543e+06 -83268.4 0 2.59528e+06 -85023.5 0 2.59513e+06 -86781.8 0 2.59498e+06 -88543.5 0 2.59482e+06 -90308.5 0 2.59467e+06 -92077 0 2.59451e+06 -93849 0 2.59435e+06 -95624.6 0 2.59418e+06 -97403.8 0 2.59402e+06 -99186.6 0 2.59385e+06 -100973 0 2.59369e+06 -102763 0 2.59351e+06 -104557 0 2.59334e+06 -106355 0 2.59317e+06 -108157 0 2.59299e+06 -109963 0 2.59282e+06 -111773 0 2.59264e+06 -113587 0 2.59246e+06 -115405 0 2.59228e+06 -117227 0 2.59209e+06 -119053 0 2.59191e+06 -120883 0 2.59172e+06 -122718 0 2.59154e+06 -124557 0 2.59135e+06 -126401 0 2.59116e+06 -128249 0 2.59097e+06 -130101 0 2.59078e+06 -131958 0 2.59058e+06 -133819 0 2.59039e+06 -135685 0 2.5902e+06 -137555 0 2.59e+06 -139430 0 2.5898e+06 -141310 0 2.58961e+06 -143195 0 2.58941e+06 -145084 0 2.58921e+06 -146978 0 2.58901e+06 -148877 0 2.58881e+06 -150781 0 2.58861e+06 -152689 0 2.58841e+06 -154603 0 2.58821e+06 -156521 0 2.58801e+06 -158445 0 2.58781e+06 -160374 0 2.58761e+06 -162307 0 2.58741e+06 -164246 0 2.58721e+06 -166190 0 2.587e+06 -168139 0 2.5868e+06 -170093 0 2.5866e+06 -172052 0 2.5864e+06 -174017 0 2.5862e+06 -175987 0 2.586e+06 -177962 0 2.5858e+06 -179943 0 2.58559e+06 -181929 0 2.58539e+06 -183920 0 2.58519e+06 -185917 0 2.58499e+06 -187919 0 2.5848e+06 -189927 0 2.5846e+06 -191941 0 2.5844e+06 -193959 0 2.5842e+06 -195984 0 2.58401e+06 -198014 0 2.58381e+06 -200050 0 2.58362e+06 -202091 0 2.58342e+06 -204139 0 2.58323e+06 -206192 0 2.58304e+06 -208250 0 2.58285e+06 -210315 0 2.58266e+06 -212385 0 2.58247e+06 -214461 0 2.58228e+06 -216543 0 2.5821e+06 -218630 0 2.58191e+06 -220724 0 2.58173e+06 -222822 0 2.58155e+06 -224926 0 2.58137e+06 -227035 0 2.58118e+06 -229149 0 2.581e+06 -231267 0 2.58082e+06 -233389 0 2.6537e+06 0.000852376 0 2.6537e+06 -1728.18 0 2.6537e+06 -3456.43 0 2.65369e+06 -5184.79 0 2.65368e+06 -6913.32 0 2.65368e+06 -8642.09 0 2.65366e+06 -10371.2 0 2.65365e+06 -12100.6 0 2.65364e+06 -13830.4 0 2.65362e+06 -15560.7 0 2.6536e+06 -17291.5 0 2.65358e+06 -19022.9 0 2.65356e+06 -20755 0 2.65353e+06 -22487.7 0 2.6535e+06 -24221.2 0 2.65347e+06 -25955.5 0 2.65344e+06 -27690.7 0 2.65341e+06 -29426.9 0 2.65338e+06 -31164 0 2.65334e+06 -32902.2 0 2.6533e+06 -34641.4 0 2.65326e+06 -36381.8 0 2.65322e+06 -38123.5 0 2.65317e+06 -39866.4 0 2.65313e+06 -41610.7 0 2.65308e+06 -43356.3 0 2.65303e+06 -45103.4 0 2.65298e+06 -46851.9 0 2.65292e+06 -48602.1 0 2.65287e+06 -50353.8 0 2.65281e+06 -52107.2 0 2.65275e+06 -53862.3 0 2.65269e+06 -55619.2 0 2.65263e+06 -57377.9 0 2.65257e+06 -59138.5 0 2.6525e+06 -60901 0 2.65244e+06 -62665.5 0 2.65237e+06 -64432 0 2.6523e+06 -66200.7 0 2.65223e+06 -67971.4 0 2.65216e+06 -69744.4 0 2.65208e+06 -71519.6 0 2.65201e+06 -73297.2 0 2.65193e+06 -75077 0 2.65185e+06 -76859.3 0 2.65177e+06 -78644.1 0 2.65169e+06 -80431.3 0 2.65161e+06 -82221.1 0 2.65153e+06 -84013.4 0 2.65144e+06 -85808.5 0 2.65136e+06 -87606.2 0 2.65127e+06 -89406.7 0 2.65118e+06 -91209.9 0 2.65109e+06 -93016 0 2.651e+06 -94825 0 2.65091e+06 -96636.9 0 2.65082e+06 -98451.9 0 2.65073e+06 -100270 0 2.65063e+06 -102091 0 2.65054e+06 -103915 0 2.65044e+06 -105742 0 2.65034e+06 -107573 0 2.65025e+06 -109406 0 2.65015e+06 -111243 0 2.65005e+06 -113084 0 2.64995e+06 -114927 0 2.64985e+06 -116775 0 2.64975e+06 -118625 0 2.64965e+06 -120479 0 2.64955e+06 -122337 0 2.64945e+06 -124198 0 2.64935e+06 -126063 0 2.64924e+06 -127931 0 2.64914e+06 -129804 0 2.64904e+06 -131679 0 2.64894e+06 -133559 0 2.64883e+06 -135443 0 2.64873e+06 -137330 0 2.64863e+06 -139221 0 2.64852e+06 -141116 0 2.64842e+06 -143015 0 2.64832e+06 -144919 0 2.64821e+06 -146826 0 2.64811e+06 -148737 0 2.64801e+06 -150652 0 2.6479e+06 -152571 0 2.6478e+06 -154495 0 2.6477e+06 -156423 0 2.6476e+06 -158355 0 2.6475e+06 -160291 0 2.6474e+06 -162232 0 2.64729e+06 -164176 0 2.6472e+06 -166126 0 2.6471e+06 -168079 0 2.647e+06 -170037 0 2.6469e+06 -172000 0 2.6468e+06 -173967 0 2.64671e+06 -175938 0 2.64661e+06 -177914 0 2.64652e+06 -179895 0 2.64642e+06 -181880 0 2.64633e+06 -183870 0 2.64624e+06 -185865 0 2.64615e+06 -187864 0 2.64606e+06 -189868 0 2.64597e+06 -191876 0 2.64589e+06 -193890 0 2.6458e+06 -195908 0 2.64572e+06 -197931 0 2.64563e+06 -199959 0 2.64555e+06 -201992 0 2.64547e+06 -204030 0 2.6454e+06 -206072 0 2.64532e+06 -208120 0 2.64524e+06 -210172 0 2.64517e+06 -212230 0 2.6451e+06 -214293 0 2.64503e+06 -216360 0 2.64496e+06 -218433 0 2.6449e+06 -220511 0 2.64483e+06 -222595 0 2.64477e+06 -224683 0 2.64471e+06 -226777 0 2.64465e+06 -228877 0 2.6446e+06 -230982 0 2.64455e+06 -233093 0 2.6445e+06 -235210 0 2.64445e+06 -237334 0 2.7092e+06 0.000717945 0 2.7092e+06 -1765.23 0 2.7092e+06 -3530.51 0 2.7092e+06 -5295.89 0 2.70919e+06 -7061.42 0 2.70919e+06 -8827.14 0 2.70918e+06 -10593.1 0 2.70918e+06 -12359.4 0 2.70917e+06 -14126 0 2.70916e+06 -15893 0 2.70915e+06 -17660.4 0 2.70914e+06 -19428.4 0 2.70913e+06 -21196.8 0 2.70912e+06 -22965.9 0 2.70911e+06 -24735.6 0 2.7091e+06 -26505.9 0 2.70908e+06 -28277.1 0 2.70907e+06 -30048.9 0 2.70905e+06 -31821.7 0 2.70904e+06 -33595.3 0 2.70902e+06 -35369.8 0 2.709e+06 -37145.3 0 2.70898e+06 -38921.8 0 2.70896e+06 -40699.4 0 2.70894e+06 -42478.1 0 2.70892e+06 -44257.9 0 2.7089e+06 -46039 0 2.70888e+06 -47821.3 0 2.70885e+06 -49604.9 0 2.70883e+06 -51389.9 0 2.70881e+06 -53176.3 0 2.70878e+06 -54964.1 0 2.70876e+06 -56753.4 0 2.70873e+06 -