<?xml version="1.0"?> 
<VTKFile type="StructuredGrid" version="0.1"> 
<StructuredGrid WholeExtent="0 127 0 127 0 0"> 
<Piece Extent="0 127 0 127 0 0"> 
<PointData>
<DataArray type="Float32" Name="E" format="ascii" NumberOfComponents="3"> 
-491708 0 0 -491654 0 0 -491599 0 0 -491544 0 0 -491487 0 0 -491430 0 0 -491372 0 0 -491312 0 0 -491252 0 0 -491192 0 0 -491130 0 0 -491067 0 0 -491004 0 0 -490940 0 0 -490875 0 0 -490809 0 0 -490742 0 0 -490675 0 0 -490606 0 0 -490537 0 0 -490467 0 0 -490397 0 0 -490325 0 0 -490253 0 0 -490180 0 0 -490106 0 0 -490032 0 0 -489957 0 0 -489881 0 0 -489804 0 0 -489727 0 0 -489649 0 0 -489570 0 0 -489491 0 0 -489411 0 0 -489330 0 0 -489249 0 0 -489167 0 0 -489084 0 0 -489001 0 0 -488917 0 0 -488833 0 0 -488748 0 0 -488662 0 0 -488576 0 0 -488490 0 0 -488403 0 0 -488315 0 0 -488227 0 0 -488139 0 0 -488050 0 0 -487960 0 0 -487870 0 0 -487780 0 0 -487689 0 0 -487598 0 0 -487507 0 0 -487415 0 0 -487322 0 0 -487230 0 0 -487137 0 0 -487043 0 0 -486950 0 0 -486856 0 0 -486762 0 0 -486667 0 0 -486573 0 0 -486478 0 0 -486382 0 0 -486287 0 0 -486191 0 0 -486095 0 0 -486000 0 0 -485903 0 0 -485807 0 0 -485711 0 0 -485614 0 0 -485517 0 0 -485420 0 0 -485324 0 0 -485227 0 0 -485130 0 0 -485032 0 0 -484935 0 0 -484838 0 0 -484741 0 0 -484644 0 0 -484547 0 0 -484449 0 0 -484352 0 0 -484255 0 0 -484158 0 0 -484061 0 0 -483964 0 0 -483867 0 0 -483770 0 0 -483674 0 0 -483577 0 0 -483481 0 0 -483384 0 0 -483288 0 0 -483192 0 0 -483096 0 0 -483000 0 0 -482905 0 0 -482809 0 0 -482714 0 0 -482619 0 0 -482524 0 0 -482429 0 0 -482334 0 0 -482240 0 0 -482146 0 0 -482052 0 0 -481959 0 0 -481865 0 0 -481772 0 0 -481679 0 0 -481586 0 0 -481494 0 0 -481401 0 0 -481309 0 0 -481218 0 0 -481126 0 0 -481035 0 0 -480944 0 0 -480853 0 0 -480763 0 0 -491709 66.8338 0 -491655 67.9348 0 -491600 69.0328 0 -491545 70.1276 0 -491488 71.2186 0 -491431 72.3055 0 -491372 73.3879 0 -491313 74.4655 0 -491253 75.5379 0 -491192 76.6046 0 -491131 77.6654 0 -491068 78.7198 0 -491005 79.7676 0 -490940 80.8082 0 -490875 81.8415 0 -490809 82.867 0 -490743 83.8843 0 -490675 84.8932 0 -490607 85.8934 0 -490538 86.8843 0 -490468 87.8659 0 -490397 88.8376 0 -490326 89.7993 0 -490254 90.7505 0 -490181 91.6911 0 -490107 92.6206 0 -490032 93.5389 0 -489957 94.4455 0 -489881 95.3403 0 -489805 96.223 0 -489727 97.0932 0 -489649 97.9508 0 -489571 98.7955 0 -489491 99.6271 0 -489411 100.445 0 -489330 101.25 0 -489249 102.04 0 -489167 102.817 0 -489085 103.579 0 -489001 104.327 0 -488918 105.061 0 -488833 105.779 0 -488748 106.482 0 -488663 107.171 0 -488577 107.844 0 -488490 108.501 0 -488403 109.143 0 -488316 109.769 0 -488228 110.379 0 -488139 110.974 0 -488050 111.552 0 -487961 112.114 0 -487871 112.66 0 -487780 113.189 0 -487690 113.702 0 -487599 114.199 0 -487507 114.679 0 -487415 115.143 0 -487323 115.589 0 -487230 116.02 0 -487137 116.433 0 -487044 116.83 0 -486950 117.211 0 -486856 117.574 0 -486762 117.922 0 -486668 118.252 0 -486573 118.566 0 -486478 118.863 0 -486383 119.144 0 -486287 119.409 0 -486192 119.657 0 -486096 119.89 0 -486000 120.105 0 -485904 120.305 0 -485807 120.489 0 -485711 120.657 0 -485614 120.81 0 -485517 120.947 0 -485421 121.068 0 -485324 121.174 0 -485227 121.265 0 -485130 121.341 0 -485033 121.403 0 -484935 121.449 0 -484838 121.481 0 -484741 121.499 0 -484644 121.503 0 -484547 121.493 0 -484449 121.47 0 -484352 121.433 0 -484255 121.383 0 -484158 121.32 0 -484061 121.244 0 -483964 121.156 0 -483867 121.056 0 -483770 120.944 0 -483674 120.82 0 -483577 120.685 0 -483481 120.539 0 -483384 120.382 0 -483288 120.214 0 -483192 120.036 0 -483096 119.849 0 -483000 119.652 0 -482904 119.445 0 -482809 119.23 0 -482714 119.005 0 -482619 118.773 0 -482524 118.533 0 -482429 118.284 0 -482334 118.029 0 -482240 117.767 0 -482146 117.498 0 -482052 117.222 0 -481958 116.941 0 -481865 116.654 0 -481772 116.362 0 -481679 116.065 0 -481586 115.764 0 -481494 115.458 0 -481401 115.149 0 -481309 114.836 0 -481218 114.52 0 -481126 114.201 0 -481035 113.88 0 -480944 113.557 0 -480853 113.233 0 -480763 112.907 0 -491711 133.669 0 -491657 135.872 0 -491602 138.069 0 -491547 140.259 0 -491490 142.441 0 -491433 144.616 0 -491375 146.781 0 -491315 148.937 0 -491255 151.082 0 -491195 153.216 0 -491133 155.338 0 -491070 157.448 0 -491007 159.544 0 -490943 161.626 0 -490878 163.693 0 -490812 165.745 0 -490745 167.78 0 -490677 169.798 0 -490609 171.799 0 -490540 173.781 0 -490470 175.745 0 -490399 177.689 0 -490328 179.613 0 -490256 181.516 0 -490183 183.398 0 -490109 185.257 0 -490034 187.094 0 -489959 188.908 0 -489883 190.698 0 -489807 192.464 0 -489729 194.205 0 -489651 195.92 0 -489572 197.61 0 -489493 199.274 0 -489413 200.91 0 -489332 202.52 0 -489251 204.101 0 -489169 205.655 0 -489086 207.18 0 -489003 208.676 0 -488919 210.143 0 -488835 211.58 0 -488750 212.987 0 -488665 214.364 0 -488579 215.71 0 -488492 217.026 0 -488405 218.31 0 -488317 219.562 0 -488229 220.783 0 -488141 221.972 0 -488052 223.128 0 -487962 224.253 0 -487872 225.344 0 -487782 226.404 0 -487691 227.43 0 -487600 228.423 0 -487508 229.383 0 -487416 230.31 0 -487324 231.204 0 -487231 232.065 0 -487138 232.892 0 -487045 233.686 0 -486951 234.447 0 -486857 235.174 0 -486763 235.869 0 -486668 236.53 0 -486574 237.157 0 -486479 237.752 0 -486383 238.314 0 -486288 238.844 0 -486192 239.34 0 -486096 239.804 0 -486000 240.236 0 -485904 240.636 0 -485808 241.003 0 -485711 241.339 0 -485615 241.644 0 -485518 241.918 0 -485421 242.16 0 -485324 242.372 0 -485227 242.554 0 -485130 242.706 0 -485033 242.828 0 -484936 242.921 0 -484839 242.985 0 -484741 243.021 0 -484644 243.029 0 -484547 243.008 0 -484450 242.961 0 -484353 242.887 0 -484255 242.787 0 -484158 242.66 0 -484061 242.509 0 -483964 242.332 0 -483867 242.131 0 -483771 241.906 0 -483674 241.658 0 -483577 241.388 0 -483481 241.095 0 -483384 240.78 0 -483288 240.445 0 -483192 240.089 0 -483096 239.713 0 -483000 239.318 0 -482904 238.905 0 -482809 238.473 0 -482714 238.025 0 -482618 237.559 0 -482524 237.078 0 -482429 236.581 0 -482334 236.07 0 -482240 235.545 0 -482146 235.006 0 -482052 234.455 0 -481958 233.892 0 -481865 233.318 0 -481772 232.733 0 -481679 232.139 0 -481586 231.535 0 -481493 230.923 0 -481401 230.304 0 -481309 229.678 0 -481217 229.045 0 -481126 228.407 0 -481035 227.765 0 -480944 227.118 0 -480853 226.468 0 -480762 225.816 0 -491715 200.508 0 -491661 203.813 0 -491606 207.11 0 -491551 210.397 0 -491494 213.672 0 -491437 216.935 0 -491378 220.185 0 -491319 223.42 0 -491259 226.64 0 -491198 229.842 0 -491136 233.027 0 -491074 236.193 0 -491010 239.338 0 -490946 242.463 0 -490881 245.565 0 -490815 248.643 0 -490748 251.698 0 -490681 254.727 0 -490613 257.729 0 -490543 260.704 0 -490473 263.651 0 -490403 266.568 0 -490331 269.455 0 -490259 272.311 0 -490186 275.135 0 -490112 277.925 0 -490038 280.682 0 -489962 283.404 0 -489886 286.09 0 -489810 288.74 0 -489732 291.352 0 -489654 293.927 0 -489575 296.463 0 -489496 298.959 0 -489416 301.415 0 -489335 303.83 0 -489254 306.203 0 -489172 308.535 0 -489089 310.823 0 -489006 313.068 0 -488922 315.269 0 -488838 317.426 0 -488753 319.537 0 -488667 321.603 0 -488581 323.623 0 -488494 325.597 0 -488407 327.523 0 -488320 329.403 0 -488232 331.234 0 -488143 333.018 0 -488054 334.754 0 -487964 336.44 0 -487874 338.078 0 -487784 339.667 0 -487693 341.207 0 -487602 342.697 0 -487510 344.138 0 -487418 345.529 0 -487326 346.87 0 -487233 348.161 0 -487140 349.402 0 -487047 350.593 0 -486953 351.734 0 -486859 352.825 0 -486765 353.867 0 -486670 354.858 0 -486575 355.8 0 -486480 356.692 0 -486385 357.535 0 -486289 358.329 0 -486194 359.073 0 -486098 359.769 0 -486002 360.416 0 -485905 361.016 0 -485809 361.567 0 -485712 362.071 0 -485616 362.527 0 -485519 362.937 0 -485422 363.3 0 -485325 363.618 0 -485228 363.89 0 -485131 364.117 0 -485034 364.3 0 -484936 364.439 0 -484839 364.534 0 -484742 364.587 0 -484645 364.598 0 -484547 364.567 0 -484450 364.495 0 -484353 364.383 0 -484256 364.231 0 -484159 364.041 0 -484061 363.813 0 -483964 363.547 0 -483867 363.245 0 -483771 362.907 0 -483674 362.534 0 -483577 362.126 0 -483481 361.686 0 -483384 361.213 0 -483288 360.709 0 -483192 360.174 0 -483096 359.609 0 -483000 359.016 0 -482904 358.394 0 -482809 357.746 0 -482713 357.071 0 -482618 356.372 0 -482523 355.649 0 -482428 354.902 0 -482334 354.134 0 -482240 353.345 0 -482145 352.536 0 -482051 351.708 0 -481958 350.862 0 -481864 349.999 0 -481771 349.121 0 -481678 348.228 0 -481585 347.321 0 -481493 346.402 0 -481401 345.472 0 -481309 344.531 0 -481217 343.581 0 -481125 342.622 0 -481034 341.657 0 -480943 340.686 0 -480852 339.709 0 -480762 338.73 0 -491720 267.351 0 -491666 271.762 0 -491611 276.16 0 -491556 280.545 0 -491499 284.915 0 -491442 289.269 0 -491384 293.605 0 -491324 297.921 0 -491264 302.217 0 -491203 306.49 0 -491142 310.739 0 -491079 314.962 0 -491016 319.159 0 -490951 323.328 0 -490886 327.466 0 -490820 331.574 0 -490753 335.649 0 -490686 339.69 0 -490617 343.696 0 -490548 347.665 0 -490478 351.597 0 -490408 355.489 0 -490336 359.341 0 -490264 363.151 0 -490191 366.918 0 -490117 370.641 0 -490042 374.319 0 -489967 377.95 0 -489891 381.534 0 -489814 385.069 0 -489737 388.555 0 -489659 391.989 0 -489580 395.372 0 -489500 398.702 0 -489420 401.979 0 -489339 405.201 0 -489258 408.367 0 -489176 411.477 0 -489093 414.53 0 -489010 417.525 0 -488926 420.461 0 -488841 423.338 0 -488756 426.155 0 -488671 428.911 0 -488585 431.605 0 -488498 434.238 0 -488411 436.808 0 -488323 439.315 0 -488235 441.758 0 -488146 444.137 0 -488057 446.452 0 -487967 448.702 0 -487877 450.887 0 -487787 453.006 0 -487696 455.059 0 -487605 457.047 0 -487513 458.968 0 -487421 460.823 0 -487328 462.612 0 -487236 464.333 0 -487142 465.988 0 -487049 467.577 0 -486955 469.098 0 -486861 470.553 0 -486767 471.942 0 -486672 473.263 0 -486577 474.519 0 -486482 475.708 0 -486387 476.832 0 -486291 477.89 0 -486195 478.882 0 -486099 479.809 0 -486003 480.672 0 -485907 481.47 0 -485810 482.204 0 -485714 482.875 0 -485617 483.483 0 -485520 484.029 0 -485423 484.513 0 -485326 484.935 0 -485229 485.297 0 -485132 485.599 0 -485035 485.841 0 -484937 486.025 0 -484840 486.151 0 -484743 486.22 0 -484645 486.233 0 -484548 486.19 0 -484451 486.093 0 -484353 485.942 0 -484256 485.738 0 -484159 485.483 0 -484062 485.177 0 -483965 484.821 0 -483868 484.416 0 -483771 483.963 0 -483674 483.464 0 -483577 482.919 0 -483481 482.33 0 -483384 481.697 0 -483288 481.023 0 -483192 480.307 0 -483096 479.552 0 -483000 478.759 0 -482904 477.928 0 -482808 477.061 0 -482713 476.16 0 -482618 475.225 0 -482523 474.258 0 -482428 473.261 0 -482333 472.234 0 -482239 471.179 0 -482145 470.098 0 -482051 468.991 0 -481957 467.861 0 -481864 466.708 0 -481770 465.534 0 -481677 464.341 0 -481585 463.129 0 -481492 461.901 0 -481400 460.658 0 -481308 459.401 0 -481216 458.131 0 -481124 456.851 0 -481033 455.561 0 -480942 454.264 0 -480851 452.96 0 -480761 451.65 0 -491727 334.201 0 -491673 339.719 0 -491618 345.221 0 -491563 350.707 0 -491506 356.175 0 -491449 361.622 0 -491390 367.046 0 -491331 372.446 0 -491271 377.82 0 -491210 383.165 0 -491148 388.481 0 -491086 393.765 0 -491022 399.016 0 -490958 404.231 0 -490893 409.408 0 -490827 414.547 0 -490760 419.645 0 -490692 424.701 0 -490624 429.712 0 -490555 434.678 0 -490485 439.596 0 -490414 444.465 0 -490342 449.284 0 -490270 454.05 0 -490197 458.763 0 -490123 463.421 0 -490048 468.021 0 -489973 472.564 0 -489897 477.047 0 -489820 481.469 0 -489742 485.829 0 -489664 490.126 0 -489585 494.358 0 -489506 498.523 0 -489426 502.622 0 -489345 506.652 0 -489263 510.613 0 -489181 514.503 0 -489098 518.322 0 -489015 522.068 0 -488931 525.741 0 -488846 529.339 0 -488761 532.862 0 -488676 536.309 0 -488589 539.68 0 -488503 542.972 0 -488415 546.186 0 -488327 549.322 0 -488239 552.377 0 -488150 555.353 0 -488061 558.248 0 -487971 561.062 0 -487881 563.794 0 -487791 566.444 0 -487700 569.012 0 -487608 571.497 0 -487516 573.9 0 -487424 576.219 0 -487332 578.455 0 -487239 580.608 0 -487146 582.677 0 -487052 584.663 0 -486958 586.565 0 -486864 588.383 0 -486770 590.119 0 -486675 591.771 0 -486580 593.34 0 -486485 594.826 0 -486389 596.23 0 -486294 597.552 0 -486198 598.792 0 -486102 599.95 0 -486005 601.027 0 -485909 602.024 0 -485812 602.941 0 -485716 603.779 0 -485619 604.537 0 -485522 605.218 0 -485425 605.821 0 -485328 606.348 0 -485230 606.798 0 -485133 607.174 0 -485036 607.475 0 -484939 607.703 0 -484841 607.858 0 -484744 607.942 0 -484646 607.956 0 -484549 607.9 0 -484451 607.776 0 -484354 607.585 0 -484257 607.328 0 -484159 607.006 0 -484062 606.62 0 -483965 606.172 0 -483868 605.663 0 -483771 605.095 0 -483674 604.468 0 -483577 603.784 0 -483481 603.044 0 -483384 602.25 0 -483288 601.403 0 -483192 600.506 0 -483095 599.558 0 -482999 598.563 0 -482904 597.521 0 -482808 596.433 0 -482713 595.303 0 -482617 594.131 0 -482522 592.918 0 -482427 591.668 0 -482333 590.38 0 -482238 589.058 0 -482144 587.702 0 -482050 586.315 0 -481956 584.898 0 -481863 583.453 0 -481770 581.982 0 -481677 580.486 0 -481584 578.968 0 -481491 577.428 0 -481399 575.87 0 -481307 574.294 0 -481215 572.703 0 -481123 571.099 0 -481032 569.482 0 -480941 567.856 0 -480850 566.221 0 -480760 564.58 0 -491735 401.059 0 -491681 407.687 0 -491627 414.297 0 -491571 420.887 0 -491514 427.455 0 -491457 433.998 0 -491398 440.514 0 -491339 447 0 -491279 453.456 0 -491218 459.877 0 -491156 466.263 0 -491094 472.61 0 -491030 478.917 0 -490966 485.181 0 -490901 491.401 0 -490835 497.573 0 -490768 503.697 0 -490700 509.77 0 -490632 515.79 0 -490562 521.755 0 -490492 527.662 0 -490421 533.511 0 -490350 539.299 0 -490277 545.025 0 -490204 550.685 0 -490130 556.28 0 -490055 561.806 0 -489980 567.262 0 -489904 572.647 0 -489827 577.959 0 -489749 583.195 0 -489671 588.356 0 -489592 593.439 0 -489512 598.442 0 -489432 603.365 0 -489351 608.205 0 -489270 612.962 0 -489187 617.634 0 -489104 622.221 0 -489021 626.72 0 -488937 631.131 0 -488852 635.452 0 -488767 639.683 0 -488681 643.822 0 -488595 647.87 0 -488508 651.823 0 -488421 655.683 0 -488333 659.448 0 -488244 663.117 0 -488155 666.69 0 -488066 670.166 0 -487976 673.545 0 -487886 676.825 0 -487795 680.007 0 -487704 683.09 0 -487613 686.073 0 -487521 688.958 0 -487429 691.742 0 -487336 694.426 0 -487243 697.01 0 -487150 699.493 0 -487056 701.876 0 -486962 704.159 0 -486868 706.342 0 -486773 708.424 0 -486678 710.407 0 -486583 712.289 0 -486488 714.072 0 -486392 715.756 0 -486296 717.341 0 -486200 718.828 0 -486104 720.217 0 -486008 721.508 0 -485911 722.703 0 -485815 723.802 0 -485718 724.805 0 -485621 725.714 0 -485524 726.528 0 -485427 727.25 0 -485329 727.879 0 -485232 728.418 0 -485135 728.866 0 -485037 729.224 0 -484940 729.495 0 -484842 729.678 0 -484745 729.776 0 -484647 729.789 0 -484550 729.719 0 -484452 729.567 0 -484355 729.334 0 -484257 729.021 0 -484160 728.631 0 -484063 728.164 0 -483966 727.623 0 -483868 727.007 0 -483771 726.321 0 -483674 725.564 0 -483577 724.738 0 -483481 723.846 0 -483384 722.888 0 -483288 721.867 0 -483191 720.785 0 -483095 719.643 0 -482999 718.443 0 -482903 717.187 0 -482808 715.877 0 -482712 714.515 0 -482617 713.103 0 -482522 711.643 0 -482427 710.137 0 -482332 708.586 0 -482238 706.993 0 -482143 705.361 0 -482049 703.69 0 -481955 701.984 0 -481862 700.244 0 -481769 698.472 0 -481675 696.671 0 -481583 694.843 0 -481490 692.989 0 -481398 691.113 0 -481306 689.216 0 -481214 687.301 0 -481122 685.369 0 -481031 683.423 0 -480940 681.465 0 -480849 679.497 0 -480759 677.522 0 -491745 467.927 0 -491691 475.669 0 -491636 483.39 0 -491581 491.088 0 -491524 498.759 0 -491467 506.402 0 -491408 514.013 0 -491349 521.59 0 -491289 529.131 0 -491228 536.631 0 -491166 544.09 0 -491103 551.504 0 -491040 558.871 0 -490975 566.188 0 -490910 573.453 0 -490844 580.664 0 -490777 587.817 0 -490709 594.91 0 -490641 601.941 0 -490571 608.909 0 -490501 615.809 0 -490430 622.641 0 -490359 629.401 0 -490286 636.088 0 -490213 642.7 0 -490139 649.234 0 -490064 655.689 0 -489988 662.062 0 -489912 668.351 0 -489835 674.555 0 -489758 680.671 0 -489679 686.698 0 -489600 692.634 0 -489520 698.477 0 -489440 704.226 0 -489359 709.879 0 -489277 715.435 0 -489195 720.891 0 -489112 726.247 0 -489028 731.501 0 -488944 736.652 0 -488859 741.698 0 -488774 746.639 0 -488688 751.473 0 -488602 756.198 0 -488515 760.815 0 -488427 765.322 0 -488339 769.718 0 -488251 774.002 0 -488162 778.173 0 -488072 782.231 0 -487982 786.176 0 -487892 790.005 0 -487801 793.72 0 -487710 797.318 0 -487618 800.801 0 -487526 804.167 0 -487434 807.417 0 -487341 810.55 0 -487248 813.565 0 -487154 816.463 0 -487060 819.244 0 -486966 821.908 0 -486872 824.454 0 -486777 826.884 0 -486682 829.196 0 -486587 831.392 0 -486491 833.471 0 -486396 835.435 0 -486300 837.283 0 -486204 839.016 0 -486107 840.635 0 -486011 842.14 0 -485914 843.532 0 -485817 844.812 0 -485720 845.98 0 -485623 847.037 0 -485526 847.985 0 -485429 848.823 0 -485332 849.555 0 -485234 850.179 0 -485137 850.698 0 -485039 851.113 0 -484942 851.425 0 -484844 851.635 0 -484746 851.744 0 -484649 851.755 0 -484551 851.668 0 -484453 851.486 0 -484356 851.209 0 -484258 850.839 0 -484161 850.378 0 -484063 849.828 0 -483966 849.19 0 -483869 848.467 0 -483772 847.66 0 -483675 846.77 0 -483578 845.801 0 -483481 844.753 0 -483384 843.629 0 -483288 842.432 0 -483191 841.162 0 -483095 839.823 0 -482999 838.416 0 -482903 836.943 0 -482807 835.408 0 -482711 833.811 0 -482616 832.156 0 -482521 830.445 0 -482426 828.679 0 -482331 826.862 0 -482237 824.996 0 -482142 823.083 0 -482048 821.126 0 -481954 819.127 0 -481861 817.089 0 -481767 815.013 0 -481674 812.904 0 -481581 810.763 0 -481489 808.592 0 -481396 806.394 0 -481304 804.173 0 -481212 801.929 0 -481121 799.667 0 -481030 797.388 0 -480938 795.095 0 -480848 792.791 0 -480757 790.478 0 -491756 534.806 0 -491703 543.667 0 -491648 552.503 0 -491592 561.313 0 -491535 570.093 0 -491478 578.839 0 -491419 587.55 0 -491360 596.222 0 -491300 604.852 0 -491239 613.436 0 -491177 621.972 0 -491114 630.457 0 -491051 638.888 0 -490986 647.263 0 -490921 655.577 0 -490855 663.828 0 -490788 672.015 0 -490720 680.132 0 -490651 688.179 0 -490582 696.153 0 -490512 704.05 0 -490441 711.868 0 -490369 719.604 0 -490296 727.257 0 -490223 734.823 0 -490149 742.301 0 -490074 749.687 0 -489998 756.979 0 -489922 764.176 0 -489845 771.275 0 -489767 778.274 0 -489689 785.171 0 -489609 791.963 0 -489529 798.65 0 -489449 805.228 0 -489368 811.696 0 -489286 818.053 0 -489203 824.296 0 -489120 830.424 0 -489037 836.435 0 -488952 842.328 0 -488867 848.101 0 -488782 853.754 0 -488696 859.284 0 -488609 864.69 0 -488522 869.971 0 -488435 875.127 0 -488346 880.155 0 -488258 885.055 0 -488169 889.827 0 -488079 894.468 0 -487989 898.979 0 -487898 903.359 0 -487807 907.607 0 -487716 911.723 0 -487624 915.706 0 -487532 919.555 0 -487439 923.27 0 -487346 926.852 0 -487253 930.3 0 -487159 933.613 0 -487065 936.792 0 -486971 939.836 0 -486877 942.747 0 -486782 945.523 0 -486687 948.165 0 -486591 950.674 0 -486496 953.05 0 -486400 955.293 0 -486304 957.403 0 -486207 959.382 0 -486111 961.23 0 -486014 962.948 0 -485918 964.536 0 -485821 965.995 0 -485724 967.327 0 -485626 968.532 0 -485529 969.611 0 -485432 970.566 0 -485334 971.397 0 -485236 972.107 0 -485139 972.695 0 -485041 973.164 0 -484943 973.515 0 -484846 973.75 0 -484748 973.869 0 -484650 973.875 0 -484552 973.77 0 -484455 973.555 0 -484357 973.232 0 -484259 972.802 0 -484162 972.269 0 -484064 971.632 0 -483967 970.896 0 -483869 970.061 0 -483772 969.131 0 -483675 968.106 0 -483578 966.99 0 -483481 965.784 0 -483384 964.491 0 -483287 963.113 0 -483191 961.653 0 -483094 960.113 0 -482998 958.496 0 -482902 956.803 0 -482806 955.038 0 -482711 953.204 0 -482615 951.302 0 -482520 949.336 0 -482425 947.308 0 -482330 945.221 0 -482236 943.078 0 -482141 940.881 0 -482047 938.634 0 -481953 936.338 0 -481859 933.998 0 -481766 931.615 0 -481673 929.193 0 -481580 926.735 0 -481487 924.242 0 -481395 921.72 0 -481303 919.169 0 -481211 916.594 0 -481119 913.997 0 -481028 911.382 0 -480937 908.75 0 -480846 906.105 0 -480755 903.45 0 -491769 601.699 0 -491715 611.682 0 -491661 621.639 0 -491605 631.566 0 -491548 641.459 0 -491491 651.315 0 -491432 661.13 0 -491373 670.901 0 -491313 680.625 0 -491251 690.298 0 -491190 699.916 0 -491127 709.477 0 -491063 718.977 0 -490999 728.413 0 -490933 737.781 0 -490867 747.079 0 -490800 756.303 0 -490732 765.45 0 -490663 774.516 0 -490594 783.5 0 -490523 792.398 0 -490452 801.207 0 -490380 809.924 0 -490308 818.546 0 -490234 827.07 0 -490160 835.495 0 -490085 843.817 0 -490009 852.033 0 -489933 860.141 0 -489856 868.139 0 -489778 876.024 0 -489699 883.794 0 -489620 891.446 0 -489540 898.978 0 -489459 906.389 0 -489378 913.675 0 -489296 920.836 0 -489213 927.868 0 -489130 934.771 0 -489046 941.543 0 -488962 948.18 0 -488877 954.683 0 -488791 961.05 0 -488705 967.278 0 -488618 973.367 0 -488531 979.315 0 -488443 985.121 0 -488355 990.784 0 -488266 996.302 0 -488176 1001.68 0 -488087 1006.9 0 -487996 1011.98 0 -487906 1016.91 0 -487815 1021.7 0 -487723 1026.33 0 -487631 1030.81 0 -487539 1035.15 0 -487446 1039.33 0 -487353 1043.36 0 -487259 1047.24 0 -487165 1050.97 0 -487071 1054.55 0 -486977 1057.97 0 -486882 1061.25 0 -486787 1064.37 0 -486692 1067.34 0 -486596 1070.16 0 -486500 1072.83 0 -486404 1075.36 0 -486308 1077.73 0 -486212 1079.95 0 -486115 1082.03 0 -486018 1083.96 0 -485921 1085.74 0 -485824 1087.38 0 -485727 1088.87 0 -485630 1090.22 0 -485532 1091.43 0 -485434 1092.5 0 -485337 1093.43 0 -485239 1094.22 0 -485141 1094.88 0 -485043 1095.4 0 -484946 1095.79 0 -484848 1096.05 0 -484750 1096.17 0 -484652 1096.17 0 -484554 1096.05 0 -484456 1095.8 0 -484358 1095.42 0 -484260 1094.93 0 -484163 1094.32 0 -484065 1093.6 0 -483967 1092.76 0 -483870 1091.81 0 -483772 1090.75 0 -483675 1089.59 0 -483578 1088.32 0 -483481 1086.96 0 -483384 1085.49 0 -483287 1083.93 0 -483190 1082.27 0 -483094 1080.53 0 -482998 1078.7 0 -482902 1076.78 0 -482806 1074.78 0 -482710 1072.71 0 -482614 1070.56 0 -482519 1068.33 0 -482424 1066.04 0 -482329 1063.67 0 -482234 1061.25 0 -482140 1058.77 0 -482046 1056.22 0 -481952 1053.63 0 -481858 1050.98 0 -481764 1048.29 0 -481671 1045.55 0 -481578 1042.77 0 -481485 1039.95 0 -481393 1037.1 0 -481301 1034.21 0 -481209 1031.3 0 -481117 1028.36 0 -481026 1025.41 0 -480935 1022.43 0 -480844 1019.44 0 -480753 1016.44 0 -491784 668.605 0 -491730 679.718 0 -491675 690.801 0 -491619 701.85 0 -491562 712.862 0 -491505 723.833 0 -491446 734.758 0 -491387 745.634 0 -491327 756.458 0 -491266 767.224 0 -491204 777.931 0 -491141 788.573 0 -491077 799.147 0 -491012 809.65 0 -490947 820.077 0 -490881 830.426 0 -490813 840.692 0 -490746 850.873 0 -490677 860.965 0 -490607 870.964 0 -490537 880.867 0 -490465 890.672 0 -490393 900.374 0 -490321 909.97 0 -490247 919.458 0 -490173 928.834 0 -490098 938.095 0 -490022 947.24 0 -489945 956.263 0 -489868 965.164 0 -489790 973.939 0 -489711 982.586 0 -489632 991.101 0 -489551 999.484 0 -489471 1007.73 0 -489389 1015.84 0 -489307 1023.81 0 -489224 1031.63 0 -489141 1039.31 0 -489057 1046.85 0 -488972 1054.23 0 -488887 1061.47 0 -488801 1068.55 0 -488715 1075.48 0 -488628 1082.25 0 -488540 1088.87 0 -488452 1095.33 0 -488364 1101.63 0 -488275 1107.77 0 -488185 1113.74 0 -488095 1119.56 0 -488005 1125.21 0 -487914 1130.69 0 -487823 1136.01 0 -487731 1141.16 0 -487639 1146.15 0 -487546 1150.97 0 -487453 1155.62 0 -487360 1160.1 0 -487266 1164.41 0 -487172 1168.56 0 -487078 1172.53 0 -486983 1176.34 0 -486888 1179.98 0 -486793 1183.45 0 -486698 1186.75 0 -486602 1189.88 0 -486506 1192.85 0 -486410 1195.65 0 -486313 1198.28 0 -486217 1200.75 0 -486120 1203.05 0 -486023 1205.19 0 -485926 1207.17 0 -485828 1208.99 0 -485731 1210.64 0 -485633 1212.14 0 -485536 1213.48 0 -485438 1214.66 0 -485340 1215.68 0 -485242 1216.56 0 -485144 1217.28 0 -485046 1217.85 0 -484948 1218.27 0 -484850 1218.55 0 -484752 1218.68 0 -484654 1218.67 0 -484556 1218.52 0 -484458 1218.23 0 -484360 1217.81 0 -484262 1217.25 0 -484164 1216.56 0 -484066 1215.74 0 -483968 1214.8 0 -483870 1213.73 0 -483773 1212.55 0 -483675 1211.24 0 -483578 1209.82 0 -483481 1208.29 0 -483384 1206.65 0 -483287 1204.9 0 -483190 1203.04 0 -483094 1201.09 0 -482997 1199.04 0 -482901 1196.9 0 -482805 1194.66 0 -482709 1192.34 0 -482613 1189.93 0 -482518 1187.44 0 -482423 1184.88 0 -482328 1182.24 0 -482233 1179.52 0 -482138 1176.75 0 -482044 1173.9 0 -481950 1171 0 -481856 1168.04 0 -481763 1165.03 0 -481669 1161.97 0 -481576 1158.87 0 -481483 1155.72 0 -481391 1152.53 0 -481299 1149.31 0 -481207 1146.05 0 -481115 1142.77 0 -481024 1139.47 0 -480933 1136.15 0 -480842 1132.81 0 -480751 1129.45 0 -491800 735.528 0 -491746 747.776 0 -491691 759.991 0 -491635 772.17 0 -491578 784.307 0 -491521 796.398 0 -491462 808.44 0 -491403 820.427 0 -491342 832.356 0 -491281 844.223 0 -491219 856.023 0 -491156 867.752 0 -491092 879.407 0 -491028 890.982 0 -490962 902.475 0 -490896 913.88 0 -490829 925.195 0 -490760 936.416 0 -490692 947.538 0 -490622 958.558 0 -490551 969.472 0 -490480 980.277 0 -490408 990.969 0 -490335 1001.54 0 -490261 1012 0 -490187 1022.33 0 -490111 1032.54 0 -490035 1042.62 0 -489959 1052.56 0 -489881 1062.37 0 -489803 1072.04 0 -489724 1081.57 0 -489645 1090.95 0 -489564 1100.19 0 -489483 1109.27 0 -489402 1118.21 0 -489319 1126.98 0 -489236 1135.61 0 -489153 1144.07 0 -489069 1152.37 0 -488984 1160.51 0 -488898 1168.48 0 -488812 1176.28 0 -488726 1183.91 0 -488639 1191.37 0 -488551 1198.66 0 -488463 1205.78 0 -488374 1212.72 0 -488285 1219.48 0 -488195 1226.06 0 -488105 1232.46 0 -488014 1238.68 0 -487923 1244.72 0 -487832 1250.58 0 -487740 1256.25 0 -487647 1261.74 0 -487554 1267.04 0 -487461 1272.16 0 -487368 1277.09 0 -487274 1281.84 0 -487180 1286.4 0 -487085 1290.78 0 -486990 1294.96 0 -486895 1298.97 0 -486800 1302.78 0 -486704 1306.41 0 -486608 1309.86 0 -486512 1313.12 0 -486415 1316.2 0 -486319 1319.09 0 -486222 1321.8 0 -486125 1324.33 0 -486028 1326.68 0 -485930 1328.85 0 -485833 1330.85 0 -485735 1332.66 0 -485637 1334.3 0 -485539 1335.76 0 -485441 1337.06 0 -485343 1338.18 0 -485245 1339.13 0 -485147 1339.91 0 -485049 1340.53 0 -484951 1340.99 0 -484852 1341.28 0 -484754 1341.41 0 -484656 1341.39 0 -484557 1341.21 0 -484459 1340.88 0 -484361 1340.4 0 -484263 1339.78 0 -484165 1339.01 0 -484067 1338.09 0 -483969 1337.04 0 -483871 1335.85 0 -483773 1334.53 0 -483676 1333.08 0 -483578 1331.5 0 -483481 1329.8 0 -483384 1327.97 0 -483287 1326.03 0 -483190 1323.98 0 -483093 1321.81 0 -482996 1319.54 0 -482900 1317.16 0 -482804 1314.68 0 -482708 1312.11 0 -482612 1309.44 0 -482517 1306.68 0 -482421 1303.84 0 -482326 1300.92 0 -482231 1297.91 0 -482137 1294.84 0 -482042 1291.69 0 -481948 1288.48 0 -481854 1285.2 0 -481761 1281.87 0 -481667 1278.48 0 -481574 1275.04 0 -481481 1271.55 0 -481389 1268.03 0 -481296 1264.46 0 -481204 1260.86 0 -481113 1257.23 0 -481021 1253.57 0 -480930 1249.89 0 -480839 1246.2 0 -480749 1242.49 0 -491817 802.469 0 -491763 815.859 0 -491708 829.214 0 -491652 842.528 0 -491596 855.797 0 -491538 869.016 0 -491479 882.181 0 -491420 895.286 0 -491360 908.328 0 -491298 921.301 0 -491236 934.202 0 -491173 947.025 0 -491109 959.766 0 -491045 972.42 0 -490979 984.984 0 -490912 997.453 0 -490845 1009.82 0 -490777 1022.09 0 -490708 1034.25 0 -490638 1046.29 0 -490567 1058.23 0 -490496 1070.04 0 -490424 1081.73 0 -490351 1093.29 0 -490277 1104.72 0 -490202 1116.01 0 -490127 1127.17 0 -490051 1138.18 0 -489974 1149.05 0 -489896 1159.77 0 -489818 1170.34 0 -489739 1180.75 0 -489659 1191.01 0 -489578 1201.1 0 -489497 1211.04 0 -489415 1220.8 0 -489333 1230.39 0 -489250 1239.82 0 -489166 1249.06 0 -489081 1258.13 0 -488996 1267.02 0 -488911 1275.73 0 -488825 1284.26 0 -488738 1292.6 0 -488650 1300.75 0 -488563 1308.72 0 -488474 1316.49 0 -488385 1324.07 0 -488296 1331.45 0 -488206 1338.64 0 -488115 1345.64 0 -488025 1352.43 0 -487933 1359.03 0 -487841 1365.42 0 -487749 1371.62 0 -487657 1377.61 0 -487564 1383.4 0 -487470 1388.99 0 -487376 1394.37 0 -487282 1399.55 0 -487188 1404.53 0 -487093 1409.31 0 -486998 1413.88 0 -486903 1418.24 0 -486807 1422.41 0 -486711 1426.37 0 -486615 1430.12 0 -486518 1433.68 0 -486422 1437.03 0 -486325 1440.19 0 -486228 1443.14 0 -486130 1445.9 0 -486033 1448.45 0 -485935 1450.81 0 -485838 1452.98 0 -485740 1454.95 0 -485642 1456.73 0 -485544 1458.32 0 -485445 1459.72 0 -485347 1460.94 0 -485249 1461.96 0 -485150 1462.81 0 -485052 1463.47 0 -484953 1463.95 0 -484855 1464.26 0 -484756 1464.4 0 -484658 1464.36 0 -484559 1464.15 0 -484461 1463.77 0 -484363 1463.24 0 -484264 1462.54 0 -484166 1461.68 0 -484068 1460.66 0 -483970 1459.5 0 -483872 1458.18 0 -483774 1456.72 0 -483676 1455.12 0 -483578 1453.38 0 -483481 1451.5 0 -483383 1449.49 0 -483286 1447.35 0 -483189 1445.09 0 -483092 1442.71 0 -482996 1440.2 0 -482899 1437.59 0 -482803 1434.86 0 -482707 1432.03 0 -482611 1429.1 0 -482515 1426.07 0 -482420 1422.94 0 -482324 1419.73 0 -482229 1416.43 0 -482135 1413.05 0 -482040 1409.59 0 -481946 1406.06 0 -481852 1402.46 0 -481758 1398.8 0 -481665 1395.07 0 -481572 1391.3 0 -481479 1387.47 0 -481386 1383.59 0 -481294 1379.68 0 -481202 1375.72 0 -481110 1371.74 0 -481018 1367.72 0 -480927 1363.68 0 -480836 1359.62 0 -480746 1355.55 0 -491836 869.429 0 -491782 883.969 0 -491727 898.47 0 -491671 912.928 0 -491615 927.337 0 -491557 941.691 0 -491498 955.986 0 -491439 970.217 0 -491378 984.379 0 -491317 998.466 0 -491255 1012.47 0 -491192 1026.4 0 -491128 1040.23 0 -491063 1053.97 0 -490997 1067.62 0 -490931 1081.16 0 -490863 1094.59 0 -490795 1107.91 0 -490726 1121.11 0 -490656 1134.19 0 -490585 1147.14 0 -490513 1159.97 0 -490441 1172.66 0 -490368 1185.21 0 -490294 1197.62 0 -490219 1209.88 0 -490143 1221.99 0 -490067 1233.95 0 -489990 1245.75 0 -489912 1257.39 0 -489834 1268.87 0 -489754 1280.17 0 -489674 1291.3 0 -489594 1302.26 0 -489512 1313.04 0 -489430 1323.64 0 -489347 1334.05 0 -489264 1344.28 0 -489180 1354.32 0 -489095 1364.16 0 -489010 1373.81 0 -488924 1383.26 0