<?xml version="1.0"?> 
<VTKFile type="StructuredGrid" version="0.1"> 
<StructuredGrid WholeExtent="0 127 0 127 0 0"> 
<Piece Extent="0 127 0 127 0 0"> 
<PointData>
<DataArray type="Float32" Name="E" format="ascii" NumberOfComponents="3"> 
-276581 0 0 -274000 0 0 -271428 0 0 -268864 0 0 -266308 0 0 -263760 0 0 -261219 0 0 -258687 0 0 -256162 0 0 -253645 0 0 -251135 0 0 -248633 0 0 -246138 0 0 -243651 0 0 -241171 0 0 -238699 0 0 -236233 0 0 -233775 0 0 -231324 0 0 -228880 0 0 -226443 0 0 -224013 0 0 -221590 0 0 -219174 0 0 -216765 0 0 -214362 0 0 -211966 0 0 -209577 0 0 -207195 0 0 -204819 0 0 -202450 0 0 -200088 0 0 -197732 0 0 -195382 0 0 -193039 0 0 -190702 0 0 -188372 0 0 -186048 0 0 -183730 0 0 -181419 0 0 -179114 0 0 -176815 0 0 -174522 0 0 -172236 0 0 -169955 0 0 -167681 0 0 -165413 0 0 -163150 0 0 -160894 0 0 -158644 0 0 -156400 0 0 -154162 0 0 -151929 0 0 -149703 0 0 -147482 0 0 -145267 0 0 -143058 0 0 -140855 0 0 -138658 0 0 -136466 0 0 -134280 0 0 -132100 0 0 -129925 0 0 -127756 0 0 -125593 0 0 -123436 0 0 -121284 0 0 -119137 0 0 -116996 0 0 -114861 0 0 -112731 0 0 -110607 0 0 -108488 0 0 -106375 0 0 -104267 0 0 -102164 0 0 -100067 0 0 -97975.9 0 0 -95889.7 0 0 -93808.8 0 0 -91733.4 0 0 -89663.3 0 0 -87598.5 0 0 -85539 0 0 -83484.9 0 0 -81436 0 0 -79392.4 0 0 -77354 0 0 -75320.9 0 0 -73293.1 0 0 -71270.4 0 0 -69253 0 0 -67240.7 0 0 -65233.7 0 0 -63231.8 0 0 -61235.1 0 0 -59243.5 0 0 -57257 0 0 -55275.7 0 0 -53299.5 0 0 -51328.3 0 0 -49362.3 0 0 -47401.3 0 0 -45445.5 0 0 -43494.6 0 0 -41548.8 0 0 -39608.1 0 0 -37672.4 0 0 -35741.7 0 0 -33816 0 0 -31895.3 0 0 -29979.6 0 0 -28068.9 0 0 -26163.1 0 0 -24262.4 0 0 -22366.5 0 0 -20475.6 0 0 -18589.7 0 0 -16708.7 0 0 -14832.6 0 0 -12961.4 0 0 -11095.1 0 0 -9233.73 0 0 -7377.23 0 0 -5525.62 0 0 -3678.88 0 0 -1837.01 0 0 0 0 0 -276581 751.281 0 -274000 748.9 0 -271428 746.543 0 -268864 744.208 0 -266308 741.896 0 -263760 739.604 0 -261219 737.333 0 -258687 735.082 0 -256162 732.85 0 -253645 730.638 0 -251135 728.443 0 -248633 726.266 0 -246138 724.107 0 -243651 721.964 0 -241171 719.838 0 -238699 717.727 0 -236233 715.632 0 -233775 713.553 0 -231324 711.488 0 -228880 709.437 0 -226443 707.401 0 -224013 705.378 0 -221590 703.369 0 -219174 701.372 0 -216765 699.389 0 -214362 697.418 0 -211966 695.46 0 -209577 693.513 0 -207195 691.578 0 -204819 689.654 0 -202450 687.742 0 -200088 685.841 0 -197732 683.95 0 -195382 682.07 0 -193039 680.2 0 -190702 678.341 0 -188372 676.491 0 -186048 674.651 0 -183730 672.82 0 -181419 670.999 0 -179114 669.186 0 -176815 667.383 0 -174522 665.589 0 -172236 663.803 0 -169955 662.026 0 -167681 660.256 0 -165413 658.495 0 -163151 656.742 0 -160894 654.997 0 -158644 653.26 0 -156400 651.53 0 -154162 649.807 0 -151929 648.092 0 -149703 646.384 0 -147482 644.683 0 -145267 642.989 0 -143058 641.301 0 -140855 639.621 0 -138658 637.946 0 -136466 636.278 0 -134280 634.617 0 -132100 632.962 0 -129925 631.312 0 -127756 629.669 0 -125593 628.031 0 -123436 626.4 0 -121284 624.774 0 -119137 623.153 0 -116996 621.538 0 -114861 619.929 0 -112731 618.324 0 -110607 616.725 0 -108488 615.131 0 -106375 613.542 0 -104267 611.958 0 -102164 610.379 0 -100067 608.805 0 -97975.9 607.235 0 -95889.7 605.67 0 -93808.9 604.109 0 -91733.4 602.553 0 -89663.3 601.001 0 -87598.5 599.454 0 -85539.1 597.911 0 -83484.9 596.372 0 -81436 594.837 0 -79392.4 593.306 0 -77354.1 591.779 0 -75321 590.256 0 -73293.1 588.737 0 -71270.5 587.221 0 -69253 585.709 0 -67240.8 584.201 0 -65233.7 582.697 0 -63231.8 581.196 0 -61235.1 579.698 0 -59243.5 578.204 0 -57257 576.713 0 -55275.7 575.226 0 -53299.5 573.742 0 -51328.4 572.26 0 -49362.3 570.783 0 -47401.4 569.308 0 -45445.5 567.836 0 -43494.6 566.367 0 -41548.9 564.901 0 -39608.1 563.438 0 -37672.4 561.978 0 -35741.7 560.521 0 -33816 559.066 0 -31895.3 557.614 0 -29979.6 556.165 0 -28068.9 554.719 0 -26163.2 553.275 0 -24262.4 551.833 0 -22366.5 550.394 0 -20475.7 548.958 0 -18589.7 547.524 0 -16708.7 546.092 0 -14832.6 544.663 0 -12961.4 543.236 0 -11095.1 541.811 0 -9233.73 540.389 0 -7377.24 538.969 0 -5525.62 537.551 0 -3678.88 536.135 0 -1837.01 534.721 0 0 533.309 0 -276581 1502.56 0 -274001 1497.8 0 -271428 1493.09 0 -268864 1488.42 0 -266308 1483.79 0 -263760 1479.21 0 -261220 1474.67 0 -258687 1470.16 0 -256162 1465.7 0 -253645 1461.28 0 -251135 1456.89 0 -248633 1452.53 0 -246139 1448.21 0 -243652 1443.93 0 -241172 1439.68 0 -238699 1435.45 0 -236234 1431.26 0 -233775 1427.11 0 -231324 1422.98 0 -228880 1418.87 0 -226443 1414.8 0 -224013 1410.76 0 -221590 1406.74 0 -219174 1402.75 0 -216765 1398.78 0 -214362 1394.84 0 -211967 1390.92 0 -209578 1387.03 0 -207195 1383.16 0 -204820 1379.31 0 -202450 1375.48 0 -200088 1371.68 0 -197732 1367.9 0 -195382 1364.14 0 -193039 1360.4 0 -190702 1356.68 0 -188372 1352.98 0 -186048 1349.3 0 -183731 1345.64 0 -181419 1342 0 -179114 1338.37 0 -176815 1334.77 0 -174522 1331.18 0 -172236 1327.61 0 -169956 1324.05 0 -167681 1320.51 0 -165413 1316.99 0 -163151 1313.49 0 -160895 1310 0 -158644 1306.52 0 -156400 1303.06 0 -154162 1299.62 0 -151929 1296.18 0 -149703 1292.77 0 -147482 1289.37 0 -145267 1285.98 0 -143058 1282.6 0 -140855 1279.24 0 -138658 1275.89 0 -136466 1272.56 0 -134280 1269.23 0 -132100 1265.92 0 -129925 1262.62 0 -127757 1259.34 0 -125593 1256.06 0 -123436 1252.8 0 -121284 1249.55 0 -119137 1246.31 0 -116996 1243.08 0 -114861 1239.86 0 -112731 1236.65 0 -110607 1233.45 0 -108488 1230.26 0 -106375 1227.09 0 -104267 1223.92 0 -102165 1220.76 0 -100068 1217.61 0 -97976 1214.47 0 -95889.8 1211.34 0 -93809 1208.22 0 -91733.5 1205.11 0 -89663.4 1202 0 -87598.6 1198.91 0 -85539.2 1195.82 0 -83485 1192.74 0 -81436.1 1189.67 0 -79392.5 1186.61 0 -77354.2 1183.56 0 -75321.1 1180.51 0 -73293.2 1177.47 0 -71270.6 1174.44 0 -69253.1 1171.42 0 -67240.9 1168.4 0 -65233.8 1165.39 0 -63231.9 1162.39 0 -61235.2 1159.4 0 -59243.6 1156.41 0 -57257.1 1153.43 0 -55275.8 1150.45 0 -53299.5 1147.48 0 -51328.4 1144.52 0 -49362.4 1141.57 0 -47401.4 1138.62 0 -45445.5 1135.67 0 -43494.7 1132.73 0 -41548.9 1129.8 0 -39608.2 1126.88 0 -37672.5 1123.96 0 -35741.8 1121.04 0 -33816.1 1118.13 0 -31895.4 1115.23 0 -29979.7 1112.33 0 -28068.9 1109.44 0 -26163.2 1106.55 0 -24262.4 1103.67 0 -22366.6 1100.79 0 -20475.7 1097.92 0 -18589.7 1095.05 0 -16708.7 1092.19 0 -14832.6 1089.33 0 -12961.4 1086.47 0 -11095.1 1083.62 0 -9233.74 1080.78 0 -7377.25 1077.94 0 -5525.63 1075.1 0 -3678.89 1072.27 0 -1837.01 1069.44 0 0 1066.62 0 -276581 2253.84 0 -274001 2246.7 0 -271429 2239.63 0 -268865 2232.62 0 -266309 2225.69 0 -263760 2218.81 0 -261220 2212 0 -258688 2205.25 0 -256163 2198.55 0 -253646 2191.91 0 -251136 2185.33 0 -248634 2178.8 0 -246139 2172.32 0 -243652 2165.89 0 -241172 2159.51 0 -238699 2153.18 0 -236234 2146.9 0 -233776 2140.66 0 -231325 2134.46 0 -228881 2128.31 0 -226444 2122.2 0 -224014 2116.14 0 -221591 2110.11 0 -219175 2104.12 0 -216765 2098.17 0 -214363 2092.26 0 -211967 2086.38 0 -209578 2080.54 0 -207196 2074.74 0 -204820 2068.96 0 -202451 2063.23 0 -200088 2057.52 0 -197732 2051.85 0 -195383 2046.21 0 -193040 2040.6 0 -190703 2035.02 0 -188373 2029.47 0 -186049 2023.95 0 -183731 2018.46 0 -181420 2013 0 -179114 2007.56 0 -176816 2002.15 0 -174523 1996.77 0 -172236 1991.41 0 -169956 1986.08 0 -167682 1980.77 0 -165413 1975.49 0 -163151 1970.23 0 -160895 1964.99 0 -158645 1959.78 0 -156400 1954.59 0 -154162 1949.42 0 -151930 1944.28 0 -149703 1939.15 0 -147483 1934.05 0 -145268 1928.97 0 -143059 1923.91 0 -140856 1918.86 0 -138658 1913.84 0 -136467 1908.84 0 -134281 1903.85 0 -132100 1898.89 0 -129926 1893.94 0 -127757 1889.01 0 -125594 1884.1 0 -123436 1879.2 0 -121284 1874.32 0 -119138 1869.46 0 -116997 1864.62 0 -114861 1859.79 0 -112732 1854.98 0 -110607 1850.18 0 -108488 1845.4 0 -106375 1840.63 0 -104267 1835.88 0 -102165 1831.14 0 -100068 1826.42 0 -97976.2 1821.71 0 -95890 1817.01 0 -93809.2 1812.33 0 -91733.7 1807.66 0 -89663.6 1803.01 0 -87598.8 1798.36 0 -85539.4 1793.73 0 -83485.2 1789.12 0 -81436.3 1784.51 0 -79392.7 1779.92 0 -77354.3 1775.34 0 -75321.2 1770.77 0 -73293.4 1766.21 0 -71270.7 1761.67 0 -69253.3 1757.13 0 -67241 1752.61 0 -65233.9 1748.09 0 -63232 1743.59 0 -61235.3 1739.1 0 -59243.7 1734.61 0 -57257.2 1730.14 0 -55275.9 1725.68 0 -53299.7 1721.23 0 -51328.5 1716.78 0 -49362.5 1712.35 0 -47401.5 1707.93 0 -45445.6 1703.51 0 -43494.8 1699.1 0 -41549 1694.71 0 -39608.3 1690.32 0 -37672.5 1685.94 0 -35741.8 1681.56 0 -33816.1 1677.2 0 -31895.4 1672.85 0 -29979.7 1668.5 0 -28069 1664.16 0 -26163.2 1659.83 0 -24262.5 1655.5 0 -22366.6 1651.19 0 -20475.7 1646.88 0 -18589.8 1642.57 0 -16708.7 1638.28 0 -14832.6 1633.99 0 -12961.4 1629.71 0 -11095.2 1625.44 0 -9233.76 1621.17 0 -7377.26 1616.91 0 -5525.64 1612.65 0 -3678.9 1608.41 0 -1837.02 1604.16 0 0 1599.93 0 -276582 3005.12 0 -274002 2995.6 0 -271429 2986.17 0 -268865 2976.83 0 -266309 2967.58 0 -263761 2958.42 0 -261221 2949.33 0 -258688 2940.33 0 -256163 2931.4 0 -253646 2922.55 0 -251137 2913.77 0 -248634 2905.07 0 -246140 2896.43 0 -243653 2887.86 0 -241173 2879.35 0 -238700 2870.91 0 -236235 2862.53 0 -233776 2854.21 0 -231325 2845.95 0 -228881 2837.75 0 -226444 2829.61 0 -224014 2821.51 0 -221591 2813.48 0 -219175 2805.49 0 -216766 2797.56 0 -214363 2789.68 0 -211968 2781.84 0 -209579 2774.06 0 -207196 2766.32 0 -204821 2758.62 0 -202451 2750.97 0 -200089 2743.37 0 -197733 2735.8 0 -195383 2728.28 0 -193040 2720.81 0 -190703 2713.37 0 -188373 2705.97 0 -186049 2698.61 0 -183731 2691.28 0 -181420 2684 0 -179115 2676.75 0 -176816 2669.54 0 -174523 2662.36 0 -172237 2655.22 0 -169956 2648.11 0 -167682 2641.03 0 -165414 2633.99 0 -163152 2626.97 0 -160895 2619.99 0 -158645 2613.04 0 -156401 2606.12 0 -154163 2599.23 0 -151930 2592.37 0 -149704 2585.54 0 -147483 2578.74 0 -145268 2571.96 0 -143059 2565.21 0 -140856 2558.49 0 -138659 2551.79 0 -136467 2545.12 0 -134281 2538.47 0 -132101 2531.85 0 -129926 2525.25 0 -127757 2518.68 0 -125594 2512.13 0 -123436 2505.6 0 -121284 2499.1 0 -119138 2492.62 0 -116997 2486.16 0 -114862 2479.72 0 -112732 2473.3 0 -110608 2466.91 0 -108489 2460.53 0 -106375 2454.17 0 -104268 2447.84 0 -102165 2441.52 0 -100068 2435.22 0 -97976.5 2428.95 0 -95890.3 2422.68 0 -93809.5 2416.44 0 -91734 2410.22 0 -89663.9 2404.01 0 -87599.1 2397.82 0 -85539.6 2391.65 0 -83485.4 2385.49 0 -81436.5 2379.35 0 -79392.9 2373.23 0 -77354.6 2367.12 0 -75321.5 2361.03 0 -73293.6 2354.95 0 -71270.9 2348.89 0 -69253.5 2342.84 0 -67241.2 2336.81 0 -65234.1 2330.79 0 -63232.2 2324.79 0 -61235.5 2318.8 0 -59243.9 2312.82 0 -57257.4 2306.86 0 -55276.1 2300.91 0 -53299.8 2294.97 0 -51328.7 2289.05 0 -49362.6 2283.14 0 -47401.7 2277.24 0 -45445.8 2271.35 0 -43494.9 2265.47 0 -41549.1 2259.61 0 -39608.4 2253.76 0 -37672.6 2247.92 0 -35741.9 2242.09 0 -33816.2 2236.27 0 -31895.5 2230.46 0 -29979.8 2224.67 0 -28069.1 2218.88 0 -26163.3 2213.1 0 -24262.5 2207.34 0 -22366.7 2201.58 0 -20475.8 2195.84 0 -18589.8 2190.1 0 -16708.8 2184.37 0 -14832.7 2178.66 0 -12961.5 2172.95 0 -11095.2 2167.25 0 -9233.79 2161.56 0 -7377.28 2155.88 0 -5525.66 2150.21 0 -3678.91 2144.54 0 -1837.02 2138.89 0 0 2133.24 0 -276583 3756.4 0 -274002 3744.5 0 -271430 3732.71 0 -268866 3721.04 0 -266310 3709.48 0 -263762 3698.02 0 -261222 3686.67 0 -258689 3675.41 0 -256164 3664.25 0 -253647 3653.19 0 -251137 3642.22 0 -248635 3631.33 0 -246141 3620.54 0 -243653 3609.82 0 -241173 3599.19 0 -238701 3588.64 0 -236235 3578.17 0 -233777 3567.77 0 -231326 3557.44 0 -228882 3547.19 0 -226445 3537.01 0 -224015 3526.9 0 -221592 3516.85 0 -219176 3506.87 0 -216767 3496.95 0 -214364 3487.1 0 -211968 3477.3 0 -209579 3467.57 0 -207197 3457.9 0 -204821 3448.28 0 -202452 3438.72 0 -200090 3429.21 0 -197733 3419.76 0 -195384 3410.36 0 -193041 3401.01 0 -190704 3391.71 0 -188374 3382.46 0 -186050 3373.26 0 -183732 3364.11 0 -181421 3355 0 -179116 3345.94 0 -176817 3336.93 0 -174524 3327.95 0 -172237 3319.02 0 -169957 3310.14 0 -167683 3301.29 0 -165414 3292.49 0 -163152 3283.72 0 -160896 3275 0 -158646 3266.31 0 -156401 3257.66 0 -154163 3249.05 0 -151931 3240.47 0 -149704 3231.93 0 -147484 3223.42 0 -145269 3214.95 0 -143060 3206.52 0 -140857 3198.11 0 -138659 3189.74 0 -136467 3181.4 0 -134281 3173.09 0 -132101 3164.82 0 -129927 3156.57 0 -127758 3148.35 0 -125594 3140.17 0 -123437 3132.01 0 -121285 3123.88 0 -119138 3115.78 0 -116997 3107.7 0 -114862 3099.65 0 -112732 3091.63 0 -110608 3083.64 0 -108489 3075.67 0 -106376 3067.72 0 -104268 3059.8 0 -102166 3051.91 0 -100068 3044.03 0 -97976.9 3036.19 0 -95890.7 3028.36 0 -93809.8 3020.56 0 -91734.4 3012.78 0 -89664.2 3005.02 0 -87599.4 2997.28 0 -85539.9 2989.56 0 -83485.7 2981.87 0 -81436.9 2974.19 0 -79393.2 2966.54 0 -77354.9 2958.9 0 -75321.7 2951.29 0 -73293.9 2943.69 0 -71271.2 2936.12 0 -69253.7 2928.56 0 -67241.5 2921.02 0 -65234.4 2913.49 0 -63232.5 2905.99 0 -61235.7 2898.5 0 -59244.1 2891.03 0 -57257.6 2883.58 0 -55276.3 2876.14 0 -53300 2868.72 0 -51328.9 2861.31 0 -49362.8 2853.92 0 -47401.8 2846.55 0 -45445.9 2839.19 0 -43495.1 2831.85 0 -41549.3 2824.52 0 -39608.5 2817.2 0 -37672.8 2809.9 0 -35742.1 2802.61 0 -33816.4 2795.34 0 -31895.7 2788.08 0 -29979.9 2780.84 0 -28069.2 2773.6 0 -26163.4 2766.38 0 -24262.6 2759.18 0 -22366.8 2751.98 0 -20475.9 2744.8 0 -18589.9 2737.63 0 -16708.9 2730.47 0 -14832.7 2723.32 0 -12961.5 2716.19 0 -11095.2 2709.07 0 -9233.83 2701.95 0 -7377.31 2694.85 0 -5525.68 2687.76 0 -3678.92 2680.68 0 -1837.03 2673.61 0 0 2666.55 0 -276584 4507.68 0 -274003 4493.39 0 -271431 4479.25 0 -268867 4465.25 0 -266311 4451.37 0 -263763 4437.62 0 -261223 4424 0 -258690 4410.49 0 -256165 4397.1 0 -253648 4383.83 0 -251138 4370.66 0 -248636 4357.6 0 -246142 4344.64 0 -243654 4331.79 0 -241174 4319.03 0 -238702 4306.37 0 -236236 4293.8 0 -233778 4281.32 0 -231327 4268.93 0 -228883 4256.63 0 -226446 4244.41 0 -224016 4232.28 0 -221593 4220.22 0 -219177 4208.25 0 -216768 4196.35 0 -214365 4184.52 0 -211969 4172.77 0 -209580 4161.09 0 -207198 4149.48 0 -204822 4137.94 0 -202453 4126.47 0 -200090 4115.06 0 -197734 4103.71 0 -195385 4092.43 0 -193042 4081.22 0 -190705 4070.06 0 -188375 4058.96 0 -186051 4047.92 0 -183733 4036.93 0 -181422 4026.01 0 -179116 4015.13 0 -176817 4004.31 0 -174525 3993.55 0 -172238 3982.83 0 -169958 3972.17 0 -167683 3961.55 0 -165415 3950.99 0 -163153 3940.47 0 -160897 3930 0 -158646 3919.58 0 -156402 3909.2 0 -154164 3898.86 0 -151931 3888.57 0 -149705 3878.32 0 -147484 3868.11 0 -145269 3857.95 0 -143060 3847.82 0 -140857 3837.74 0 -138660 3827.69 0 -136468 3817.69 0 -134282 3807.72 0 -132102 3797.79 0 -129927 3787.89 0 -127758 3778.03 0 -125595 3768.21 0 -123437 3758.42 0 -121285 3748.66 0 -119139 3738.94 0 -116998 3729.25 0 -114863 3719.59 0 -112733 3709.96 0 -110608 3700.37 0 -108490 3690.81 0 -106376 3681.27 0 -104268 3671.77 0 -102166 3662.29 0 -100069 3652.85 0 -97977.3 3643.43 0 -95891.1 3634.04 0 -93810.3 3624.67 0 -91734.8 3615.34 0 -89664.6 3606.03 0 -87599.8 3596.74 0 -85540.3 3587.48 0 -83486.1 3578.25 0 -81437.2 3569.04 0 -79393.6 3559.85 0 -77355.2 3550.69 0 -75322.1 3541.55 0 -73294.2 3532.44 0 -71271.5 3523.34 0 -69254.1 3514.27 0 -67241.8 3505.22 0 -65234.7 3496.2 0 -63232.8 3487.19 0 -61236 3478.21 0 -59244.4 3469.24 0 -57257.9 3460.3 0 -55276.5 3451.37 0 -53300.3 3442.47 0 -51329.1 3433.58 0 -49363.1 3424.71 0 -47402.1 3415.86 0 -45446.2 3407.03 0 -43495.3 3398.22 0 -41549.5 3389.42 0 -39608.7 3380.65 0 -37673 3371.89 0 -35742.2 3363.14 0 -33816.5 3354.41 0 -31895.8 3345.7 0 -29980.1 3337.01 0 -28069.3 3328.33 0 -26163.5 3319.67 0 -24262.7 3311.02 0 -22366.9 3302.38 0 -20476 3293.76 0 -18590 3285.16 0 -16708.9 3276.57 0 -14832.8 3267.99 0 -12961.6 3259.43 0 -11095.3 3250.88 0 -9233.87 3242.35 0 -7377.35 3233.83 0 -5525.71 3225.32 0 -3678.94 3216.82 0 -1837.04 3208.34 0 0 3199.87 0 -276585 5258.95 0 -274004 5242.29 0 -271432 5225.79 0 -268868 5209.45 0 -266312 5193.27 0 -263764 5177.23 0 -261224 5161.33 0 -258691 5145.58 0 -256166 5129.96 0 -253649 5114.47 0 -251139 5099.11 0 -248637 5083.87 0 -246143 5068.75 0 -243655 5053.76 0 -241176 5038.87 0 -238703 5024.1 0 -236238 5009.44 0 -233779 4994.88 0 -231328 4980.43 0 -228884 4966.08 0 -226447 4951.82 0 -224017 4937.66 0 -221594 4923.6 0 -219178 4909.63 0 -216769 4895.74 0 -214366 4881.95 0 -211970 4868.24 0 -209581 4854.61 0 -207199 4841.07 0 -204823 4827.6 0 -202454 4814.22 0 -200091 4800.91 0 -197735 4787.67 0 -195386 4774.51 0 -193043 4761.42 0 -190706 4748.41 0 -188376 4735.46 0 -186052 4722.58 0 -183734 4709.76 0 -181422 4697.01 0 -179117 4684.33 0 -176818 4671.71 0 -174526 4659.15 0 -172239 4646.65 0 -169959 4634.2 0 -167684 4621.82 0 -165416 4609.49 0 -163154 4597.22 0 -160897 4585.01 0 -158647 4572.84 0 -156403 4560.74 0 -154165 4548.68 0 -151932 4536.67 0 -149706 4524.71 0 -147485 4512.81 0 -145270 4500.95 0 -143061 4489.14 0 -140858 4477.37 0 -138660 4465.65 0 -136469 4453.98 0 -134283 4442.35 0 -132103 4430.76 0 -129928 4419.21 0 -127759 4407.71 0 -125596 4396.25 0 -123438 4384.83 0 -121286 4373.44 0 -119140 4362.1 0 -116999 4350.8 0 -114863 4339.53 0 -112733 4328.3 0 -110609 4317.11 0 -108490 4305.95 0 -106377 4294.82 0 -104269 4283.74 0 -102167 4272.68 0 -100070 4261.66 0 -97977.9 4250.67 0 -95891.6 4239.72 0 -93810.8 4228.79 0 -91735.3 4217.9 0 -89665.1 4207.04 0 -87600.3 4196.21 0 -85540.8 4185.4 0 -83486.6 4174.63 0 -81437.7 4163.89 0 -79394 4153.17 0 -77355.6 4142.48 0 -75322.5 4131.82 0 -73294.6 4121.18 0 -71271.9 4110.58 0 -69254.4 4099.99 0 -67242.1 4089.44 0 -65235 4078.9 0 -63233.1 4068.4 0 -61236.3 4057.91 0 -59244.7 4047.46 0 -57258.2 4037.02 0 -55276.8 4026.61 0 -53300.6 4016.22 0 -51329.4 4005.85 0 -49363.3 3995.51 0 -47402.3 3985.18 0 -45446.4 3974.88 0 -43495.5 3964.6 0 -41549.7 3954.34 0 -39608.9 3944.1 0 -37673.2 3933.87 0 -35742.4 3923.67 0 -33816.7 3913.49 0 -31896 3903.33 0 -29980.2 3893.18 0 -28069.5 3883.06 0 -26163.7 3872.95 0 -24262.9 3862.86 0 -22367 3852.79 0 -20476.1 3842.73 0 -18590.1 3832.69 0 -16709 3822.67 0 -14832.9 3812.67 0 -12961.7 3802.68 0 -11095.3 3792.71 0 -9233.92 3782.75 0 -7377.39 3772.81 0 -5525.74 3762.88 0 -3678.96 3752.97 0 -1837.05 3743.07 0 0 3733.19 0 -276586 6010.23 0 -274006 5991.19 0 -271434 5972.33 0 -268870 5953.66 0 -266313 5935.16 0 -263765 5916.83 0 -261225 5898.67 0 -258692 5880.66 0 -256168 5862.81 0 -253650 5845.11 0 -251141 5827.55 0 -248639 5810.14 0 -246144 5792.87 0 -243657 5775.73 0 -241177 5758.72 0 -238704 5741.83 0 -236239 5725.08 0 -233781 5708.44 0 -231329 5691.92 0 -228885 5675.52 0 -226448 5659.23 0 -224018 5643.05 0 -221595 5626.98 0 -219179 5611.01 0 -216770 5595.14 0 -214367 5579.37 0 -211972 5563.71 0 -209582 5548.13 0 -207200 5532.65 0 -204824 5517.27 0 -202455 5501.97 0 -200093 5486.76 0 -197736 5471.63 0 -195387 5456.59 0 -193044 5441.64 0 -190707 5426.76 0 -188377 5411.96 0 -186053 5397.24 0 -183735 5382.6 0 -181424 5368.03 0 -179118 5353.53 0 -176819 5339.1 0 -174527 5324.75 0 -172240 5310.46 0 -169960 5296.24 0 -167685 5282.09 0 -165417 5268 0 -163155 5253.98 0 -160898 5240.02 0 -158648 5226.12 0 -156404 5212.28 0 -154166 5198.5 0 -151933 5184.78 0 -149707 5171.11 0 -147486 5157.5 0 -145271 5143.95 0 -143062 5130.45 0 -140859 5117 0 -138661 5103.61 0 -136470 5090.27 0 -134284 5076.98 0 -132103 5063.73 0 -129929 5050.54 0 -127760 5037.39 0 -125596 5024.29 0 -123439 5011.24 0 -121287 4998.23 0 -119140 4985.27 0 -116999 4972.35 0 -114864 4959.47 0 -112734 4946.64 0 -110610 4933.84 0 -108491 4921.09 0 -106378 4908.38 0 -104270 4895.71 0 -102167 4883.07 0 -100070 4870.48 0 -97978.5 4857.92 0 -95892.3 4845.4 0 -93811.4 4832.92 0 -91735.9 4820.47 0 -89665.7 4808.05 0 -87600.9 4795.67 0 -85541.3 4783.33 0 -83487.1 4771.02 0 -81438.2 4758.74 0 -79394.5 4746.49 0 -77356.1 4734.27 0 -75323 4722.09 0 -73295.1 4709.93 0 -71272.4 4697.81 0 -69254.9 4685.72 0 -67242.6 4673.65 0 -65235.5 4661.62 0 -63233.5 4649.61 0 -61236.7 4637.63 0 -59245.1 4625.67 0 -57258.6 4613.75 0 -55277.2 4601.85 0 -53300.9 4589.97 0 -51329.7 4578.12 0 -49363.6 4566.3 0 -47402.6 4554.5 0 -45446.7 4542.73 0 -43495.8 4530.98 0 -41550 4519.25 0 -39609.2 4507.55 0 -37673.4 4495.87 0 -35742.7 4484.21 0 -33816.9 4472.57 0 -31896.2 4460.96 0 -29980.4 4449.36 0 -28069.7 4437.79 0 -26163.9 4426.24 0 -24263 4414.71 0 -22367.1 4403.19 0 -20476.2 4391.7 0 -18590.2 4380.23 0 -16709.1 4368.78 0 -14833 4357.34 0 -12961.7 4345.93 0 -11095.4 4334.53 0 -9233.98 4323.15 0 -7377.44 4311.79 0 -5525.77 4300.44 0 -3678.98 4289.12 0 -1837.06 4277.81 0 0 4266.51 0 -276588 6761.5 0 -274007 6740.08 0 -271435 6718.87 0 -268871 6697.86 0 -266315 6677.05 0 -263767 6656.43 0 -261226 6636 0 -258694 6615.74 0 -256169 6595.66 0 -253652 6575.75 0 -251142 6556 0 -248640 6536.41 0 -246145 6516.98 0 -243658 6497.7 0 -241178 6478.56 0 -238706 6459.57 0 -236240 6440.72 0 -233782 6422 0 -231331 6403.42 0 -228887 6384.97 0 -226450 6366.64 0 -224020 6348.44 0 -221597 6330.36 0 -219181 6312.39 0 -216771 6294.54 0 -214369 6276.81 0 -211973 6259.18 0 -209584 6241.66 0 -207201 6224.25 0 -204826 6206.93 0 -202456 6189.72 0 -200094 6172.61 0 -197738 6155.6 0 -195388 6138.68 0 -193045 6121.85 0 -190708 6105.11 0 -188378 6088.47 0 -186054 6071.91 0 -183736 6055.43 0 -181425 6039.04 0 -179120 6022.73 0 -176821 6006.5 0 -174528 5990.35 0 -172241 5974.28 0 -169961 5958.28 0 -167686 5942.36 0 -165418 5926.51 0 -163156 5910.74 0 -160900 5895.03 0 -158649 5879.39 0 -156405 5863.83 0 -154167 5848.32 0 -151934 5832.89 0 -149708 5817.51 0 -147487 5802.2 0 -145272 5786.96 0 -143063 5771.77 0 -140860 5756.64 0 -138662 5741.57 0 -136471 5726.56 0 -134285 5711.61 0 -132104 5696.71 0 -129930 5681.87 0 -127761 5667.08 0 -125597 5652.34 0 -123440 5637.66 0 -121288 5623.02 0 -119141 5608.44 0 -117000 5593.9 0 -114865 5579.42 0 -112735 5564.98 0 -110611 5550.59 0 -108492 5536.24 0 -106378 5521.94 0 -104270 5507.68 0 -102168 5493.47 0 -100071 5479.3 0 -97979.2 5465.17 0 -95892.9 5451.09 0 -93812.1 5437.04 0 -91736.5 5423.04 0 -89666.3 5409.07 0 -87601.5 5395.15 0 -85542 5381.26 0 -83487.7 5367.4 0 -81438.8 5353.59 0 -79395.1 5339.81 0 -77356.7 5326.07 0 -75323.5 5312.36 0 -73295.6 5298.69 0 -71272.9 5285.05 0 -69255.4 5271.44 0 -67243.1 5257.87 0 -65235.9 5244.33 0 -63234 5230.82 0 -61237.2 5217.34 0 -59245.5 5203.89 0 -57259 5190.48 0 -55277.6 5177.09 0 -53301.3 5163.73 0 -51330.1 5150.4 0 -49364 5137.1 0 -47403 5123.83 0 -45447 5110.58 0 -43496.1 5097.36 0 -41550.3 5084.17 0 -39609.5 5071 0 -37673.7 5057.86 0 -35742.9 5044.75 0 -33817.2 5031.65 0 -31896.4 5018.59 0 -29980.7 5005.54 0 -28069.9 4992.53 0 -26164.1 4979.53 0 -24263.2 4966.56 0 -22367.3 4953.61 0 -20476.4 4940.68 0 -18590.3 4927.77 0 -16709.3 4914.89 0 -14833.1 4902.02 0 -12961.8 4889.18 0 -11095.5 4876.36 0 -9234.05 4863.56 0 -7377.49 4850.77 0 -5525.81 4838.01 0 -3679.01 4825.27 0 -1837.07 4812.54 0 0 4799.84 0 -276589 7512.77 0 -274009 7488.97 0 -271437 7465.41 0 -268873 7442.07 0 -266317 7418.95 0 -263769 7396.04 0 -261228 7373.33 0 -258696 7350.83 0 -256171 7328.51 0 -253654 7306.39 0 -251144 7284.45 0 -248642 7262.68 0 -246147 7241.09 0 -243660 7219.67 0 -241180 7198.41 0 -238707 7177.31 0 -236242 7156.36 0 -233784 7135.57 0 -231333 7114.92 0 -228889 7094.42 0 -226452 7074.05 0 -224021 7053.83 0 -221598 7033.74 0 -219182 7013.78 0 -216773 6993.95 0 -214370 6974.24 0 -211974 6954.65 0 -209585 6935.19 0 -207203 6915.84 0 -204827 6896.61 0 -202458 6877.48 0 -200095 6858.47 0 -197739 6839.57 0 -195390 6820.77 0 -193046 6802.07 0 -190710 6783.47 0 -188379 6764.98 0 -186055 6746.58 0 -183738 6728.27 0 -181426 6710.06 0 -179121 6691.94 0 -176822 6673.9 0 -174529 6655.96 0 -172243 6638.1 0 -169962 6620.33 0 -167688 6602.64 0 -165419 6585.03 0 -163157 6567.5 0 -160901 6550.05 0 -158651 6532.67 0 -156406 6515.38 0 -154168 6498.15 0 -151935 6481 0 -149709 6463.92 0 -147488 6446.91 0 -145273 6429.97 0 -143064 6413.09 0 -140861 6396.28 0 -138663 6379.54 0 -136472 6362.86 0 -134286 6346.25 0 -132105 6329.69 0 -129931 6313.2 0 -127762 6296.77 0 -125598 6280.39 0 -123441 6264.08 0 -121289 6247.82 0 -119142 6231.61 0 -117001 6215.46 0 -114866 6199.37 0 -112736 6183.33 0 -110611 6167.33 0 -108493 6151.39 0 -106379 6135.51 0 -104271 6119.66 0 -102169 6103.87 0 -100072 6088.13 0 -97980 6072.43 0 -95893.7 6056.78 0 -93812.8 6041.17 0 -91737.3 6025.61 0 -89667.1 6010.1 0 -87602.2 5994.62 0 -85542.6 5979.19 0 -83488.4 5963.8 0 -81439.4 5948.45 0 -79395.7 5933.14 0 -77357.3 5917.87 0 -75324.1 5902.64 0 -73296.2 5887.45 0 -71273.5 5872.29 0 -69255.9 5857.17 0 -67243.6 5842.09 0 -65236.5 5827.05 0 -63234.5 5812.04 0 -61237.7 5797.06 0 -59246 5782.12 0 -57259.4 5767.21 0 -55278 5752.34 0 -53301.7 5737.5 0 -51330.5 5722.68 0 -49364.4 5707.91 0 -47403.4 5693.16 0 -45447.4 5678.44 0 -43496.5 5663.75 0 -41550.6 5649.09 0 -39609.8 5634.46 0 -37674 5619.86 0 -35743.2 5605.29 0 -33817.5 5590.74 0 -31896.7 5576.22 0 -29980.9 5561.73 0 -28070.1 5547.27 0 -26164.3 5532.83 0 -24263.4 5518.41 0 -22367.5 5504.02 0 -20476.5 5489.66 0 -18590.5 5475.32 0 -16709.4 5461 0 -14833.2 5446.71 0 -12961.9 5432.44 0 -11095.6 5418.19 0 -9234.12 5403.97 0 -7377.55 5389.76 0 -5525.86 5375.58 0 -3679.04 5361.42 0 -1837.09 5347.28 0 0 5333.17 0 -276591 8264.04 0 -274011 8237.86 0 -271439 8211.94 0 -268875 8186.27 0 -266319 8160.84 0 -263770 8135.64 0 -261230 8110.67 0 -258697 8085.91 0 -256173 8061.37 0 -253655 8037.03 0 -251146 8012.9 0 -248644 7988.96 0 -246149 7965.21 0 -243662 7941.64 0 -241182 7918.26 0 -238709 7895.04 0 -236244 7872 0 -233785 7849.13 0 -231334 7826.42 0 -228890 7803.87 0 -226453 7781.47 0 -224023 7759.22 0 -221600 7737.12 0 -219184 7715.17 0 -216775 7693.35 0 -214372 7671.68 0 -211976 7650.13 0 -209587 7628.72 0 -207205 7607.44 0 -204829 7586.28 0 -202460 7565.25 0 -200097 7544.33 0 -197741 7523.54 0 -195391 7502.86 0 -193048 7482.29 0 -190711 7461.84 0 -188381 7441.49 0 -186057 7421.25 0 -183739 7401.11 0 -181428 7381.08 0 -179122 7361.15 0 -176823 7341.31 0 -174531 7321.57 0 -172244 7301.93 0 -169964 7282.38 0 -167689 7262.92 0 -165421 7243.55 0 -163158 7224.27 0 -160902 7205.07 0 -158652 7185.96 0 -156408 7166.93 0 -154169 7147.98 0 -151937 7129.12 0 -149710 7110.33 0 -147489 7091.62 0 -145274 7072.98 0 -143065 7054.42 0 -140862 7035.93 0 -138665 7017.51 0 -136473 6999.17 0 -134287 6980.89 0 -132106 6962.68 0 -129932 6944.54 0 -127763 6926.46 0 -125599 6908.45 0 -123442 6890.5 0 -121290 6872.62 0 -119143 6854.79 0 -117002 6837.03 0 -114867 6819.32 0 -112737 6801.68 0 -110612 6784.09 0 -108494 6766.55 0 -106380 6749.07 0 -104272 6731.65 0 -102170 6714.28 0 -100073 6696.96 0 -97980.8 6679.69 0 -95894.6 6662.48 0 -93813.6 6645.31 0 -91738.1 6628.19 0 -89667.9 6611.12 0 -87603 6594.1 0 -85543.4 6577.13 0 -83489.1 6560.2 0 -81440.2 6543.31 0 -79396.5 6526.47 0 -77358 6509.68 0 -75324.8 6492.92 0 -73296.8 6476.21 0 -71274.1 6459.54 0 -69256.6 6442.91 0 -67244.2 6426.32 0 -65237 6409.77 0 -63235 6393.26 0 -61238.2 6376.79 0 -59246.5 6360.35 0 -57260 6343.95 0 -55278.5 6327.59 0 -53302.2 6311.26 0 -51331 6294.97 0 -49364.8 6278.71 0 -47403.8 6262.49 0 -45447.8 6246.3 0 -43496.9 6230.14 0 -41551 6214.02 0 -39610.2 6197.93 0 -37674.3 6181.87 0 -35743.5 6165.83 0 -33817.8 6149.83 0 -31897 6133.86 0 -29981.2 6117.92 0 -28070.3 6102.01 0 -26164.5 6086.13 0 -24263.6 6070.27 0 -22367.7 6054.44 0 -20476.7 6038.64 0 -18590.7 6022.87 0 -16709.5 6007.12 0 -14833.3 5991.4 0 -12962.1 5975.7 0 -11095.7 5960.03 0 -9234.21 5944.38 0 -7377.62 5928.76 0 -5525.91 5913.16 0 -3679.07 5897.58 0 -1837.11 5882.03 0 0 5866.5 0 -276593 9015.3 0 -274013 8986.75 0 -271441 8958.48 0 -268877 8930.47 0 -266321 8902.73 0 -263772 8875.24 0 -261232 8848 0 -258700 8821 0 -256175 8794.22 0 -253657 8767.68 0 -251148 8741.35 0 -248646 8715.23 0 -246151 8689.32 0 -243664 8663.62 0 -241184 8638.11 0 -238711 8612.79 0 -236246 8587.65 0 -233787 8562.7 0 -231336 8537.93 0 -228892 8513.32 0 -226455 8488.89 0 -224025 8464.62 0 -221602 8440.51 0 -219186 8416.56 0 -216776 8392.76 0 -214374 8369.12 0 -211978 8345.62 0 -209589 8322.26 0 -207206 8299.04 0 -204831 8275.96 0 -202461 8253.01 0 -200099 8230.2 0 -197743 8207.51 0 -195393 8184.96 0 -193050 8162.52 0 -190713 8140.2 0 -188383 8118.01 0 -186059 8095.93 0 -183741 8073.96 0 -181429 8052.11 0 -179124 8030.36 0 -176825 8008.72 0 -174532 7987.19 0 -172246 7965.76 0 -169965 7944.44 0 -167691 7923.21 0 -165422 7902.08 0 -163160 7881.04 0 -160904 7860.1 0 -158653 7839.25 0 -156409 7818.49 0 -154171 7797.82 0 -151938 7777.24 0 -149711 7756.74 0 -147491 7736.33 0 -145276 7716 0 -143067 7695.75 0 -140863 7675.58 0 -138666 7655.49 0 -136474 7635.48 0 -134288 7615.54 0 -132108 7595.68 0 -129933 7575.89 0 -127764 7556.17 0 -125601 7536.52 0 -123443 7516.94 0 -121291 7497.42 0 -119144 7477.98 0 -117003 7458.6 0 -114868 7439.29 0 -112738 7420.03 0 -110613 7400.84 0 -108495 7381.72 0 -106381 7362.65 0 -104273 7343.64 0 -102171 7324.69 0 -100074 7305.8 0 -97981.8 7286.96 0 -95895.5 7268.18 0 -93814.5 7249.45 0 -91739 7230.78 0 -89668.7 7212.16 0 -87603.8 7193.59 0 -85544.2 7175.07 0 -83490 7156.6 0 -81441 7138.18 0 -79397.2 7119.81 0 -77358.8 7101.49 0 -75325.5 7083.21 0 -73297.6 7064.98 0 -71274.8 7046.79 0 -69257.2 7028.65 0 -67244.9 7010.56 0 -65237.7 6992.5 0 -63235.7 6974.49 0 -61238.8 6956.52 0 -59247.1 6938.59 0 -57260.5 6920.7 0 -55279.1 6902.85 0 -53302.7 6885.04 0 -51331.5 6867.26 0 -49365.3 6849.53 0 -47404.3 6831.83 0 -45448.3 6814.17 0 -43497.3 6796.54 0 -41551.4 6778.95 0 -39610.5 6761.4 0 -37674.7 6743.88 0 -35743.9 6726.39 0 -33818.1 6708.93 0 -31897.3 6691.51 0 -29981.5 6674.12 0 -28070.6 6656.76 0 -26164.8 6639.43 0 -24263.9 6622.14 0 -22367.9 6604.87 0 -20476.9 6587.63 0 -18590.8 6570.42 0 -16709.7 6553.24 0 -14833.5 6536.09 0 -12962.2 6518.97 0 -11095.8 6501.87 0 -9234.3 6484.8 0 -7377.69 6467.76 0 -5525.96 6450.74 0 -3679.11 6433.75 0 -1837.12 6416.78 0 0 6399.84 0 -276595 9766.57 0 -274015 9735.64 0 -271443 9705.01 0 -268879 9674.67 0 -266323 9644.62 0 -263775 9614.84 0 -261234 9585.33 0 -258702 9556.08 0 -256177 9527.08 0 -253660 9498.32 0 -251150 9469.8 0 -248648 9441.51 0 -246153 9413.44 0 -243666 9385.59 0 -241186 9357.96 0 -238713 9330.53 0 -236248 9303.3 0 -233790 