<?xml version="1.0"?> 
<VTKFile type="StructuredGrid" version="0.1"> 
<StructuredGrid WholeExtent="0 127 0 127 0 0"> 
<Piece Extent="0 127 0 127 0 0"> 
<PointData>
<DataArray type="Float32" Name="E" format="ascii" NumberOfComponents="3"> 
2.81482e+06 -1.15439e+06 0 2.83427e+06 -1.16237e+06 0 2.85191e+06 -1.1696e+06 0 2.86839e+06 -1.17636e+06 0 2.88411e+06 -1.18281e+06 0 2.89932e+06 -1.18905e+06 0 2.91418e+06 -1.19514e+06 0 2.9288e+06 -1.20114e+06 0 2.94324e+06 -1.20706e+06 0 2.95755e+06 -1.21293e+06 0 2.97178e+06 -1.21876e+06 0 2.98593e+06 -1.22457e+06 0 3.00005e+06 -1.23036e+06 0 3.01413e+06 -1.23613e+06 0 3.02819e+06 -1.2419e+06 0 3.04224e+06 -1.24766e+06 0 3.05629e+06 -1.25342e+06 0 3.07035e+06 -1.25919e+06 0 3.08442e+06 -1.26496e+06 0 3.0985e+06 -1.27073e+06 0 3.11261e+06 -1.27652e+06 0 3.12674e+06 -1.28232e+06 0 3.14091e+06 -1.28812e+06 0 3.1551e+06 -1.29395e+06 0 3.16934e+06 -1.29979e+06 0 3.18362e+06 -1.30564e+06 0 3.19794e+06 -1.31151e+06 0 3.2123e+06 -1.31741e+06 0 3.22672e+06 -1.32332e+06 0 3.24119e+06 -1.32925e+06 0 3.25572e+06 -1.33521e+06 0 3.2703e+06 -1.34119e+06 0 3.28494e+06 -1.3472e+06 0 3.29965e+06 -1.35323e+06 0 3.31442e+06 -1.35929e+06 0 3.32926e+06 -1.36537e+06 0 3.34417e+06 -1.37149e+06 0 3.35916e+06 -1.37763e+06 0 3.37422e+06 -1.38381e+06 0 3.38936e+06 -1.39002e+06 0 3.40459e+06 -1.39626e+06 0 3.41989e+06 -1.40254e+06 0 3.43529e+06 -1.40885e+06 0 3.45077e+06 -1.4152e+06 0 3.46635e+06 -1.42159e+06 0 3.48202e+06 -1.42802e+06 0 3.49779e+06 -1.43449e+06 0 3.51366e+06 -1.44099e+06 0 3.52963e+06 -1.44755e+06 0 3.54572e+06 -1.45414e+06 0 3.56191e+06 -1.46078e+06 0 3.57821e+06 -1.46747e+06 0 3.59464e+06 -1.47421e+06 0 3.61118e+06 -1.48099e+06 0 3.62785e+06 -1.48783e+06 0 3.64464e+06 -1.49471e+06 0 3.66157e+06 -1.50165e+06 0 3.67863e+06 -1.50865e+06 0 3.69583e+06 -1.5157e+06 0 3.71317e+06 -1.52282e+06 0 3.73065e+06 -1.52999e+06 0 3.74829e+06 -1.53722e+06 0 3.76608e+06 -1.54452e+06 0 3.78403e+06 -1.55188e+06 0 3.80215e+06 -1.55931e+06 0 3.82043e+06 -1.56681e+06 0 3.83889e+06 -1.57438e+06 0 3.85752e+06 -1.58202e+06 0 3.87634e+06 -1.58974e+06 0 3.89535e+06 -1.59753e+06 0 3.91456e+06 -1.60541e+06 0 3.93396e+06 -1.61337e+06 0 3.95357e+06 -1.62141e+06 0 3.9734e+06 -1.62954e+06 0 3.99344e+06 -1.63776e+06 0 4.01371e+06 -1.64607e+06 0 4.03421e+06 -1.65448e+06 0 4.05496e+06 -1.66299e+06 0 4.07595e+06 -1.6716e+06 0 4.0972e+06 -1.68031e+06 0 4.11871e+06 -1.68914e+06 0 4.1405e+06 -1.69807e+06 0 4.16257e+06 -1.70712e+06 0 4.18494e+06 -1.71629e+06 0 4.2076e+06 -1.72559e+06 0 4.23058e+06 -1.73501e+06 0 4.25389e+06 -1.74457e+06 0 4.27753e+06 -1.75427e+06 0 4.30151e+06 -1.7641e+06 0 4.32586e+06 -1.77409e+06 0 4.35059e+06 -1.78423e+06 0 4.3757e+06 -1.79453e+06 0 4.40122e+06 -1.80499e+06 0 4.42716e+06 -1.81563e+06 0 4.45354e+06 -1.82645e+06 0 4.48037e+06 -1.83746e+06 0 4.50768e+06 -1.84866e+06 0 4.53549e+06 -1.86006e+06 0 4.56381e+06 -1.87168e+06 0 4.59268e+06 -1.88352e+06 0 4.62212e+06 -1.89559e+06 0 4.65215e+06 -1.90791e+06 0 4.68281e+06 -1.92048e+06 0 4.71413e+06 -1.93332e+06 0 4.74614e+06 -1.94645e+06 0 4.77888e+06 -1.95988e+06 0 4.81239e+06 -1.97362e+06 0 4.84672e+06 -1.9877e+06 0 4.88192e+06 -2.00214e+06 0 4.91804e+06 -2.01695e+06 0 4.95515e+06 -2.03217e+06 0 4.99331e+06 -2.04782e+06 0 5.0326e+06 -2.06393e+06 0 5.07311e+06 -2.08054e+06 0 5.11494e+06 -2.0977e+06 0 5.1582e+06 -2.11544e+06 0 5.20304e+06 -2.13383e+06 0 5.24961e+06 -2.15293e+06 0 5.29811e+06 -2.17282e+06 0 5.34878e+06 -2.1936e+06 0 5.40193e+06 -2.2154e+06 0 5.45797e+06 -2.23838e+06 0 5.51746e+06 -2.26278e+06 0 5.58117e+06 -2.28891e+06 0 5.65029e+06 -2.31725e+06 0 5.72662e+06 -2.34856e+06 0 5.81308e+06 -2.38402e+06 0 5.91459e+06 -2.42565e+06 0 2.91408e+06 -1.12272e+06 0 2.92612e+06 -1.13088e+06 0 2.93884e+06 -1.13839e+06 0 2.95193e+06 -1.14546e+06 0 2.96522e+06 -1.15221e+06 0 2.97862e+06 -1.15873e+06 0 2.99207e+06 -1.16507e+06 0 3.00556e+06 -1.17127e+06 0 3.01907e+06 -1.17737e+06 0 3.03259e+06 -1.18339e+06 0 3.04612e+06 -1.18934e+06 0 3.05967e+06 -1.19524e+06 0 3.07324e+06 -1.20111e+06 0 3.08682e+06 -1.20694e+06 0 3.10043e+06 -1.21274e+06 0 3.11407e+06 -1.21853e+06 0 3.12774e+06 -1.2243e+06 0 3.14144e+06 -1.23006e+06 0 3.15518e+06 -1.23581e+06 0 3.16896e+06 -1.24156e+06 0 3.18278e+06 -1.2473e+06 0 3.19665e+06 -1.25305e+06 0 3.21056e+06 -1.2588e+06 0 3.22453e+06 -1.26455e+06 0 3.23856e+06 -1.27031e+06 0 3.25264e+06 -1.27608e+06 0 3.26677e+06 -1.28186e+06 0 3.28098e+06 -1.28764e+06 0 3.29524e+06 -1.29344e+06 0 3.30957e+06 -1.29925e+06 0 3.32398e+06 -1.30508e+06 0 3.33845e+06 -1.31092e+06 0 3.353e+06 -1.31678e+06 0 3.36762e+06 -1.32265e+06 0 3.38232e+06 -1.32854e+06 0 3.39711e+06 -1.33446e+06 0 3.41198e+06 -1.34039e+06 0 3.42694e+06 -1.34634e+06 0 3.44198e+06 -1.35232e+06 0 3.45712e+06 -1.35832e+06 0 3.47235e+06 -1.36434e+06 0 3.48768e+06 -1.37039e+06 0 3.50311e+06 -1.37647e+06 0 3.51864e+06 -1.38257e+06 0 3.53428e+06 -1.3887e+06 0 3.55003e+06 -1.39486e+06 0 3.56589e+06 -1.40105e+06 0 3.58186e+06 -1.40727e+06 0 3.59796e+06 -1.41352e+06 0 3.61417e+06 -1.4198e+06 0 3.63051e+06 -1.42612e+06 0 3.64697e+06 -1.43247e+06 0 3.66357e+06 -1.43886e+06 0 3.6803e+06 -1.44528e+06 0 3.69717e+06 -1.45174e+06 0 3.71418e+06 -1.45824e+06 0 3.73134e+06 -1.46478e+06 0 3.74865e+06 -1.47136e+06 0 3.76611e+06 -1.47799e+06 0 3.78373e+06 -1.48465e+06 0 3.80152e+06 -1.49136e+06 0 3.81947e+06 -1.49812e+06 0 3.83759e+06 -1.50492e+06 0 3.85589e+06 -1.51177e+06 0 3.87437e+06 -1.51867e+06 0 3.89304e+06 -1.52562e+06 0 3.9119e+06 -1.53262e+06 0 3.93096e+06 -1.53968e+06 0 3.95022e+06 -1.54679e+06 0 3.96969e+06 -1.55395e+06 0 3.98938e+06 -1.56117e+06 0 4.00929e+06 -1.56846e+06 0 4.02943e+06 -1.5758e+06 0 4.0498e+06 -1.5832e+06 0 4.07041e+06 -1.59067e+06 0 4.09128e+06 -1.5982e+06 0 4.11241e+06 -1.60579e+06 0 4.1338e+06 -1.61346e+06 0 4.15546e+06 -1.6212e+06 0 4.17741e+06 -1.629e+06 0 4.19965e+06 -1.63689e+06 0 4.2222e+06 -1.64484e+06 0 4.24506e+06 -1.65288e+06 0 4.26824e+06 -1.66099e+06 0 4.29176e+06 -1.66919e+06 0 4.31563e+06 -1.67747e+06 0 4.33985e+06 -1.68584e+06 0 4.36445e+06 -1.69429e+06 0 4.38944e+06 -1.70284e+06 0 4.41483e+06 -1.71147e+06 0 4.44064e+06 -1.72021e+06 0 4.46688e+06 -1.72904e+06 0 4.49357e+06 -1.73797e+06 0 4.52073e+06 -1.747e+06 0 4.54838e+06 -1.75613e+06 0 4.57654e+06 -1.76538e+06 0 4.60524e+06 -1.77473e+06 0 4.63449e+06 -1.7842e+06 0 4.66433e+06 -1.79378e+06 0 4.69478e+06 -1.80348e+06 0 4.72586e+06 -1.8133e+06 0 4.75763e+06 -1.82324e+06 0 4.79009e+06 -1.8333e+06 0 4.82331e+06 -1.84349e+06 0 4.85731e+06 -1.85381e+06 0 4.89214e+06 -1.86425e+06 0 4.92786e+06 -1.87483e+06 0 4.9645e+06 -1.88553e+06 0 5.00214e+06 -1.89635e+06 0 5.04084e+06 -1.90731e+06 0 5.08067e+06 -1.91838e+06 0 5.12172e+06 -1.92956e+06 0 5.16407e+06 -1.94085e+06 0 5.20783e+06 -1.95222e+06 0 5.25312e+06 -1.96366e+06 0 5.30006e+06 -1.97514e+06 0 5.34883e+06 -1.98663e+06 0 5.39958e+06 -1.99806e+06 0 5.45253e+06 -2.00937e+06 0 5.50792e+06 -2.02045e+06 0 5.56601e+06 -2.03116e+06 0 5.6271e+06 -2.04127e+06 0 5.69153e+06 -2.05049e+06 0 5.75962e+06 -2.05835e+06 0 5.83161e+06 -2.06415e+06 0 5.90752e+06 -2.06683e+06 0 5.98684e+06 -2.06474e+06 0 6.06784e+06 -2.05511e+06 0 2.9921e+06 -1.09886e+06 0 3.00447e+06 -1.10528e+06 0 3.0169e+06 -1.11166e+06 0 3.02941e+06 -1.11798e+06 0 3.042e+06 -1.12422e+06 0 3.05467e+06 -1.13038e+06 0 3.06742e+06 -1.13647e+06 0 3.08023e+06 -1.1425e+06 0 3.0931e+06 -1.14846e+06 0 3.10603e+06 -1.15437e+06 0 3.11901e+06 -1.16024e+06 0 3.13205e+06 -1.16606e+06 0 3.14514e+06 -1.17185e+06 0 3.15829e+06 -1.17761e+06 0 3.17149e+06 -1.18335e+06 0 3.18474e+06 -1.18907e+06 0 3.19805e+06 -1.19476e+06 0 3.21142e+06 -1.20045e+06 0 3.22484e+06 -1.20612e+06 0 3.23833e+06 -1.21178e+06 0 3.25187e+06 -1.21743e+06 0 3.26549e+06 -1.22308e+06 0 3.27916e+06 -1.22872e+06 0 3.29291e+06 -1.23436e+06 0 3.30672e+06 -1.24e+06 0 3.32061e+06 -1.24564e+06 0 3.33457e+06 -1.25128e+06 0 3.3486e+06 -1.25693e+06 0 3.36271e+06 -1.26258e+06 0 3.37691e+06 -1.26823e+06 0 3.39119e+06 -1.27389e+06 0 3.40555e+06 -1.27956e+06 0 3.42e+06 -1.28524e+06 0 3.43453e+06 -1.29092e+06 0 3.44916e+06 -1.29662e+06 0 3.46389e+06 -1.30233e+06 0 3.47871e+06 -1.30805e+06 0 3.49363e+06 -1.31378e+06 0 3.50865e+06 -1.31952e+06 0 3.52377e+06 -1.32528e+06 0 3.53901e+06 -1.33105e+06 0 3.55435e+06 -1.33684e+06 0 3.56981e+06 -1.34264e+06 0 3.58538e+06 -1.34846e+06 0 3.60107e+06 -1.3543e+06 0 3.61688e+06 -1.36016e+06 0 3.63281e+06 -1.36603e+06 0 3.64887e+06 -1.37192e+06 0 3.66507e+06 -1.37784e+06 0 3.68139e+06 -1.38377e+06 0 3.69786e+06 -1.38972e+06 0 3.71446e+06 -1.3957e+06 0 3.73121e+06 -1.4017e+06 0 3.74811e+06 -1.40772e+06 0 3.76516e+06 -1.41376e+06 0 3.78236e+06 -1.41983e+06 0 3.79973e+06 -1.42593e+06 0 3.81726e+06 -1.43205e+06 0 3.83496e+06 -1.43819e+06 0 3.85283e+06 -1.44436e+06 0 3.87088e+06 -1.45056e+06 0 3.88911e+06 -1.45678e+06 0 3.90753e+06 -1.46304e+06 0 3.92614e+06 -1.46932e+06 0 3.94495e+06 -1.47563e+06 0 3.96396e+06 -1.48197e+06 0 3.98318e+06 -1.48834e+06 0 4.00261e+06 -1.49474e+06 0 4.02227e+06 -1.50117e+06 0 4.04215e+06 -1.50763e+06 0 4.06227e+06 -1.51412e+06 0 4.08262e+06 -1.52065e+06 0 4.10323e+06 -1.5272e+06 0 4.12408e+06 -1.5338e+06 0 4.1452e+06 -1.54042e+06 0 4.16659e+06 -1.54708e+06 0 4.18826e+06 -1.55377e+06 0 4.21022e+06 -1.56049e+06 0 4.23248e+06 -1.56725e+06 0 4.25504e+06 -1.57404e+06 0 4.27791e+06 -1.58087e+06 0 4.30111e+06 -1.58772e+06 0 4.32465e+06 -1.59462e+06 0 4.34854e+06 -1.60154e+06 0 4.37279e+06 -1.6085e+06 0 4.39742e+06 -1.61549e+06 0 4.42243e+06 -1.62251e+06 0 4.44784e+06 -1.62956e+06 0 4.47367e+06 -1.63664e+06 0 4.49993e+06 -1.64375e+06 0 4.52664e+06 -1.65088e+06 0 4.55381e+06 -1.65804e+06 0 4.58147e+06 -1.66522e+06 0 4.60963e+06 -1.67242e+06 0 4.63831e+06 -1.67963e+06 0 4.66754e+06 -1.68686e+06 0 4.69734e+06 -1.6941e+06 0 4.72773e+06 -1.70134e+06 0 4.75875e+06 -1.70858e+06 0 4.79041e+06 -1.71581e+06 0 4.82276e+06 -1.72303e+06 0 4.85581e+06 -1.73022e+06 0 4.88961e+06 -1.73737e+06 0 4.9242e+06 -1.74448e+06 0 4.95961e+06 -1.75153e+06 0 4.99589e+06 -1.7585e+06 0 5.03309e+06 -1.76537e+06 0 5.07125e+06 -1.77213e+06 0 5.11042e+06 -1.77874e+06 0 5.15068e+06 -1.78517e+06 0 5.19208e+06 -1.79138e+06 0 5.23468e+06 -1.79734e+06 0 5.27857e+06 -1.80298e+06 0 5.32381e+06 -1.80824e+06 0 5.37048e+06 -1.81305e+06 0 5.41868e+06 -1.81731e+06 0 5.46847e+06 -1.82091e+06 0 5.51995e+06 -1.8237e+06 0 5.57319e+06 -1.82554e+06 0 5.62823e+06 -1.8262e+06 0 5.68511e+06 -1.82547e+06 0 5.7438e+06 -1.82304e+06 0 5.80422e+06 -1.81861e+06 0 5.8662e+06 -1.81181e+06 0 5.92943e+06 -1.80231e+06 0 5.99357e+06 -1.78983e+06 0 6.05822e+06 -1.77434e+06 0 6.12334e+06 -1.75645e+06 0 3.06844e+06 -1.07205e+06 0 3.08015e+06 -1.07813e+06 0 3.09199e+06 -1.08416e+06 0 3.10395e+06 -1.09014e+06 0 3.11601e+06 -1.09608e+06 0 3.12816e+06 -1.10198e+06 0 3.1404e+06 -1.10784e+06 0 3.15272e+06 -1.11366e+06 0 3.16512e+06 -1.11944e+06 0 3.1776e+06 -1.12519e+06 0 3.19015e+06 -1.1309e+06 0 3.20278e+06 -1.13659e+06 0 3.21548e+06 -1.14225e+06 0 3.22825e+06 -1.14788e+06 0 3.24109e+06 -1.15349e+06 0 3.254e+06 -1.15909e+06 0 3.26699e+06 -1.16466e+06 0 3.28005e+06 -1.17022e+06 0 3.29319e+06 -1.17576e+06 0 3.3064e+06 -1.18129e+06 0 3.31969e+06 -1.18681e+06 0 3.33306e+06 -1.19231e+06 0 3.3465e+06 -1.19781e+06 0 3.36003e+06 -1.2033e+06 0 3.37364e+06 -1.20879e+06 0 3.38734e+06 -1.21427e+06 0 3.40113e+06 -1.21974e+06 0 3.415e+06 -1.22521e+06 0 3.42896e+06 -1.23068e+06 0 3.44302e+06 -1.23615e+06 0 3.45717e+06 -1.24162e+06 0 3.47141e+06 -1.24708e+06 0 3.48576e+06 -1.25255e+06 0 3.50021e+06 -1.25802e+06 0 3.51476e+06 -1.26348e+06 0 3.52941e+06 -1.26896e+06 0 3.54418e+06 -1.27443e+06 0 3.55905e+06 -1.27991e+06 0 3.57404e+06 -1.28539e+06 0 3.58914e+06 -1.29087e+06 0 3.60437e+06 -1.29636e+06 0 3.61971e+06 -1.30186e+06 0 3.63518e+06 -1.30736e+06 0 3.65077e+06 -1.31286e+06 0 3.66649e+06 -1.31837e+06 0 3.68235e+06 -1.32389e+06 0 3.69834e+06 -1.32942e+06 0 3.71447e+06 -1.33495e+06 0 3.73074e+06 -1.34049e+06 0 3.74716e+06 -1.34604e+06 0 3.76373e+06 -1.35159e+06 0 3.78045e+06 -1.35715e+06 0 3.79733e+06 -1.36272e+06 0 3.81436e+06 -1.3683e+06 0 3.83157e+06 -1.37389e+06 0 3.84894e+06 -1.37948e+06 0 3.86648e+06 -1.38508e+06 0 3.88419e+06 -1.39069e+06 0 3.90209e+06 -1.39631e+06 0 3.92018e+06 -1.40194e+06 0 3.93845e+06 -1.40757e+06 0 3.95692e+06 -1.41322e+06 0 3.97559e+06 -1.41887e+06 0 3.99447e+06 -1.42452e+06 0 4.01355e+06 -1.43019e+06 0 4.03286e+06 -1.43586e+06 0 4.05238e+06 -1.44153e+06 0 4.07213e+06 -1.44721e+06 0 4.09212e+06 -1.4529e+06 0 4.11235e+06 -1.45859e+06 0 4.13283e+06 -1.46429e+06 0 4.15356e+06 -1.46998e+06 0 4.17455e+06 -1.47568e+06 0 4.19582e+06 -1.48138e+06 0 4.21736e+06 -1.48708e+06 0 4.23918e+06 -1.49278e+06 0 4.2613e+06 -1.49847e+06 0 4.28373e+06 -1.50416e+06 0 4.30646e+06 -1.50984e+06 0 4.32952e+06 -1.51552e+06 0 4.35291e+06 -1.52118e+06 0 4.37664e+06 -1.52683e+06 0 4.40073e+06 -1.53247e+06 0 4.42518e+06 -1.53808e+06 0 4.45001e+06 -1.54368e+06 0 4.47522e+06 -1.54925e+06 0 4.50084e+06 -1.55479e+06 0 4.52688e+06 -1.56029e+06 0 4.55335e+06 -1.56576e+06 0 4.58027e+06 -1.57118e+06 0 4.60765e+06 -1.57656e+06 0 4.63551e+06 -1.58188e+06 0 4.66386e+06 -1.58713e+06 0 4.69273e+06 -1.59231e+06 0 4.72214e+06 -1.59742e+06 0 4.7521e+06 -1.60243e+06 0 4.78264e+06 -1.60734e+06 0 4.81378e+06 -1.61214e+06 0 4.84554e+06 -1.61681e+06 0 4.87796e+06 -1.62134e+06 0 4.91105e+06 -1.6257e+06 0 4.94484e+06 -1.62989e+06 0 4.97937e+06 -1.63388e+06 0 5.01465e+06 -1.63764e+06 0 5.05074e+06 -1.64114e+06 0 5.08765e+06 -1.64437e+06 0 5.12542e+06 -1.64727e+06 0 5.16409e+06 -1.64981e+06 0 5.20369e+06 -1.65195e+06 0 5.24426e+06 -1.65362e+06 0 5.28583e+06 -1.65479e+06 0 5.32844e+06 -1.65537e+06 0 5.37211e+06 -1.6553e+06 0 5.41688e+06 -1.65448e+06 0 5.46276e+06 -1.65283e+06 0 5.50977e+06 -1.65025e+06 0 5.55791e+06 -1.6466e+06 0 5.60717e+06 -1.64178e+06 0 5.65751e+06 -1.63563e+06 0 5.70888e+06 -1.62802e+06 0 5.76121e+06 -1.61881e+06 0 5.81439e+06 -1.60785e+06 0 5.8683e+06 -1.59504e+06 0 5.92282e+06 -1.58027e+06 0 5.97782e+06 -1.56349e+06 0 6.03318e+06 -1.54465e+06 0 6.08879e+06 -1.52371e+06 0 6.1444e+06 -1.50037e+06 0 3.14155e+06 -1.04439e+06 0 3.15295e+06 -1.05017e+06 0 3.16444e+06 -1.05593e+06 0 3.17601e+06 -1.06166e+06 0 3.18768e+06 -1.06737e+06 0 3.19943e+06 -1.07304e+06 0 3.21128e+06 -1.0787e+06 0 3.22321e+06 -1.08432e+06 0 3.23522e+06 -1.08992e+06 0 3.24733e+06 -1.09549e+06 0 3.25951e+06 -1.10104e+06 0 3.27178e+06 -1.10656e+06 0 3.28414e+06 -1.11206e+06 0 3.29658e+06 -1.11754e+06 0 3.3091e+06 -1.123e+06 0 3.32171e+06 -1.12843e+06 0 3.33441e+06 -1.13385e+06 0 3.34719e+06 -1.13925e+06 0 3.36006e+06 -1.14463e+06 0 3.37302e+06 -1.15e+06 0 3.38606e+06 -1.15535e+06 0 3.3992e+06 -1.16069e+06 0 3.41243e+06 -1.16602e+06 0 3.42575e+06 -1.17133e+06 0 3.43917e+06 -1.17663e+06 0 3.45268e+06 -1.18192e+06 0 3.46629e+06 -1.1872e+06 0 3.48e+06 -1.19247e+06 0 3.49381e+06 -1.19773e+06 0 3.50773e+06 -1.20298e+06 0 3.52175e+06 -1.20822e+06 0 3.53588e+06 -1.21346e+06 0 3.55012e+06 -1.21869e+06 0 3.56447e+06 -1.22391e+06 0 3.57893e+06 -1.22912e+06 0 3.59351e+06 -1.23433e+06 0 3.60821e+06 -1.23953e+06 0 3.62303e+06 -1.24472e+06 0 3.63797e+06 -1.24991e+06 0 3.65304e+06 -1.2551e+06 0 3.66824e+06 -1.26027e+06 0 3.68357e+06 -1.26544e+06 0 3.69903e+06 -1.27061e+06 0 3.71463e+06 -1.27577e+06 0 3.73037e+06 -1.28093e+06 0 3.74625e+06 -1.28608e+06 0 3.76228e+06 -1.29122e+06 0 3.77846e+06 -1.29636e+06 0 3.79478e+06 -1.30149e+06 0 3.81127e+06 -1.30661e+06 0 3.82791e+06 -1.31173e+06 0 3.84472e+06 -1.31684e+06 0 3.86169e+06 -1.32195e+06 0 3.87884e+06 -1.32705e+06 0 3.89616e+06 -1.33213e+06 0 3.91365e+06 -1.33721e+06 0 3.93133e+06 -1.34228e+06 0 3.9492e+06 -1.34734e+06 0 3.96725e+06 -1.35239e+06 0 3.98551e+06 -1.35743e+06 0 4.00396e+06 -1.36245e+06 0 4.02262e+06 -1.36747e+06 0 4.04149e+06 -1.37246e+06 0 4.06057e+06 -1.37744e+06 0 4.07988e+06 -1.38241e+06 0 4.09941e+06 -1.38736e+06 0 4.11918e+06 -1.39228e+06 0 4.13918e+06 -1.39719e+06 0 4.15943e+06 -1.40207e+06 0 4.17993e+06 -1.40693e+06 0 4.20069e+06 -1.41176e+06 0 4.22171e+06 -1.41657e+06 0 4.24301e+06 -1.42134e+06 0 4.26458e+06 -1.42608e+06 0 4.28644e+06 -1.43078e+06 0 4.3086e+06 -1.43544e+06 0 4.33106e+06 -1.44007e+06 0 4.35383e+06 -1.44464e+06 0 4.37692e+06 -1.44917e+06 0 4.40034e+06 -1.45364e+06 0 4.4241e+06 -1.45805e+06 0 4.44822e+06 -1.46241e+06 0 4.47269e+06 -1.46669e+06 0 4.49753e+06 -1.4709e+06 0 4.52276e+06 -1.47504e+06 0 4.54838e+06 -1.47908e+06 0 4.5744e+06 -1.48304e+06 0 4.60085e+06 -1.48689e+06 0 4.62772e+06 -1.49063e+06 0 4.65504e+06 -1.49426e+06 0 4.68283e+06 -1.49776e+06 0 4.71108e+06 -1.50112e+06 0 4.73983e+06 -1.50433e+06 0 4.76908e+06 -1.50737e+06 0 4.79885e+06 -1.51024e+06 0 4.82916e+06 -1.51292e+06 0 4.86003e+06 -1.51538e+06 0 4.89147e+06 -1.51762e+06 0 4.9235e+06 -1.51961e+06 0 4.95614e+06 -1.52132e+06 0 4.98941e+06 -1.52274e+06 0 5.02333e+06 -1.52383e+06 0 5.05792e+06 -1.52458e+06 0 5.09319e+06 -1.52493e+06 0 5.12917e+06 -1.52487e+06 0 5.16586e+06 -1.52435e+06 0 5.2033e+06 -1.52332e+06 0 5.24148e+06 -1.52174e+06 0 5.28043e+06 -1.51956e+06 0 5.32016e+06 -1.51672e+06 0 5.36066e+06 -1.51316e+06 0 5.40195e+06 -1.50882e+06 0 5.44401e+06 -1.50363e+06 0 5.48683e+06 -1.49751e+06 0 5.5304e+06 -1.49038e+06 0 5.57468e+06 -1.48217e+06 0 5.61964e+06 -1.4728e+06 0 5.66524e+06 -1.46217e+06 0 5.7114e+06 -1.45022e+06 0 5.75806e+06 -1.43686e+06 0 5.80514e+06 -1.42204e+06 0 5.85256e+06 -1.40569e+06 0 5.90021e+06 -1.38775e+06 0 5.948e+06 -1.36818e+06 0 5.99581e+06 -1.34695e+06 0 6.0435e+06 -1.32401e+06 0 6.09092e+06 -1.29936e+06 0 6.13798e+06 -1.27312e+06 0 3.21265e+06 -1.01573e+06 0 3.22367e+06 -1.02131e+06 0 3.23478e+06 -1.02687e+06 0 3.24598e+06 -1.0324e+06 0 3.25728e+06 -1.03791e+06 0 3.26868e+06 -1.0434e+06 0 3.28017e+06 -1.04887e+06 0 3.29175e+06 -1.05431e+06 0 3.30342e+06 -1.05972e+06 0 3.31519e+06 -1.06512e+06 0 3.32705e+06 -1.07049e+06 0 3.339e+06 -1.07584e+06 0 3.35105e+06 -1.08116e+06 0 3.36319e+06 -1.08647e+06 0 3.37542e+06 -1.09175e+06 0 3.38775e+06 -1.09701e+06 0 3.40017e+06 -1.10225e+06 0 3.4127e+06 -1.10747e+06 0 3.42531e+06 -1.11267e+06 0 3.43803e+06 -1.11785e+06 0 3.45085e+06 -1.12302e+06 0 3.46376e+06 -1.12816e+06 0 3.47678e+06 -1.13329e+06 0 3.4899e+06 -1.1384e+06 0 3.50313e+06 -1.14349e+06 0 3.51646e+06 -1.14856e+06 0 3.5299e+06 -1.15362e+06 0 3.54345e+06 -1.15867e+06 0 3.55711e+06 -1.16369e+06 0 3.57089e+06 -1.1687e+06 0 3.58478e+06 -1.1737e+06 0 3.59878e+06 -1.17868e+06 0 3.61291e+06 -1.18364e+06 0 3.62715e+06 -1.18859e+06 0 3.64152e+06 -1.19353e+06 0 3.65602e+06 -1.19844e+06 0 3.67064e+06 -1.20335e+06 0 3.68539e+06 -1.20823e+06 0 3.70027e+06 -1.2131e+06 0 3.71529e+06 -1.21796e+06 0 3.73045e+06 -1.22279e+06 0 3.74574e+06 -1.22762e+06 0 3.76118e+06 -1.23242e+06 0 3.77677e+06 -1.23721e+06 0 3.7925e+06 -1.24198e+06 0 3.80838e+06 -1.24673e+06 0 3.82442e+06 -1.25146e+06 0 3.84062e+06 -1.25617e+06 0 3.85697e+06 -1.26086e+06 0 3.8735e+06 -1.26554e+06 0 3.89018e+06 -1.27019e+06 0 3.90704e+06 -1.27481e+06 0 3.92408e+06 -1.27942e+06 0 3.94129e+06 -1.284e+06 0 3.95869e+06 -1.28855e+06 0 3.97627e+06 -1.29308e+06 0 3.99404e+06 -1.29758e+06 0 4.01201e+06 -1.30205e+06 0 4.03018e+06 -1.30649e+06 0 4.04855e+06 -1.3109e+06 0 4.06712e+06 -1.31527e+06 0 4.08592e+06 -1.31961e+06 0 4.10492e+06 -1.32391e+06 0 4.12416e+06 -1.32817e+06 0 4.14362e+06 -1.33239e+06 0 4.16331e+06 -1.33657e+06 0 4.18324e+06 -1.3407e+06 0 4.20342e+06 -1.34478e+06 0 4.22385e+06 -1.34881e+06 0 4.24453e+06 -1.35279e+06 0 4.26548e+06 -1.3567e+06 0 4.2867e+06 -1.36056e+06 0 4.30819e+06 -1.36435e+06 0 4.32997e+06 -1.36807e+06 0 4.35204e+06 -1.37172e+06 0 4.37441e+06 -1.37529e+06 0 4.39708e+06 -1.37877e+06 0 4.42006e+06 -1.38217e+06 0 4.44337e+06 -1.38548e+06 0 4.46701e+06 -1.38868e+06 0 4.49098e+06 -1.39179e+06 0 4.51531e+06 -1.39477e+06 0 4.53999e+06 -1.39764e+06 0 4.56503e+06 -1.40038e+06 0 4.59046e+06 -1.40298e+06 0 4.61626e+06 -1.40544e+06 0 4.64247e+06 -1.40774e+06 0 4.66907e+06 -1.40988e+06 0 4.6961e+06 -1.41184e+06 0 4.72355e+06 -1.4136e+06 0 4.75145e+06 -1.41517e+06 0 4.77979e+06 -1.41651e+06 0 4.80859e+06 -1.41762e+06 0 4.83787e+06 -1.41849e+06 0 4.86763e+06 -1.41908e+06 0 4.89789e+06 -1.41939e+06 0 4.92865e+06 -1.41939e+06 0 4.95994e+06 -1.41906e+06 0 4.99175e+06 -1.41837e+06 0 5.02409e+06 -1.4173e+06 0 5.05699e+06 -1.41582e+06 0 5.09044e+06 -1.41391e+06 0 5.12446e+06 -1.41152e+06 0 5.15905e+06 -1.40862e+06 0 5.19421e+06 -1.40517e+06 0 5.22994e+06 -1.40115e+06 0 5.26625e+06 -1.39649e+06 0 5.30314e+06 -1.39117e+06 0 5.34059e+06 -1.38513e+06 0 5.37859e+06 -1.37832e+06 0 5.41713e+06 -1.37069e+06 0 5.4562e+06 -1.3622e+06 0 5.49576e+06 -1.35278e+06 0 5.53578e+06 -1.34238e+06 0 5.57623e+06 -1.33096e+06 0 5.61706e+06 -1.31846e+06 0 5.65823e+06 -1.30482e+06 0 5.69967e+06 -1.29001e+06 0 5.74134e+06 -1.27399e+06 0 5.78316e+06 -1.2567e+06 0 5.82506e+06 -1.23813e+06 0 5.86697e+06 -1.21825e+06 0 5.90881e+06 -1.19704e+06 0 5.95049e+06 -1.17448e+06 0 5.99194e+06 -1.15059e+06 0 6.0331e+06 -1.12538e+06 0 6.07389e+06 -1.09887e+06 0 6.11426e+06 -1.07103e+06 0 3.28156e+06 -986254 0 3.29224e+06 -991647 0 3.30301e+06 -997019 0 3.31387e+06 -1.00237e+06 0 3.32484e+06 -1.0077e+06 0 3.3359e+06 -1.013e+06 0 3.34706e+06 -1.01828e+06 0 3.35832e+06 -1.02354e+06 0 3.36968e+06 -1.02878e+06 0 3.38114e+06 -1.03399e+06 0 3.3927e+06 -1.03918e+06 0 3.40436e+06 -1.04434e+06 0 3.41611e+06 -1.04948e+06 0 3.42797e+06 -1.0546e+06 0 3.43994e+06 -1.05969e+06 0 3.452e+06 -1.06476e+06 0 3.46417e+06 -1.06981e+06 0 3.47645e+06 -1.07483e+06 0 3.48882e+06 -1.07983e+06 0 3.50131e+06 -1.08481e+06 0 3.51391e+06 -1.08976e+06 0 3.52661e+06 -1.09469e+06 0 3.53942e+06 -1.0996e+06 0 3.55235e+06 -1.10449e+06 0 3.56539e+06 -1.10935e+06 0 3.57854e+06 -1.11419e+06 0 3.59181e+06 -1.11901e+06 0 3.60519e+06 -1.1238e+06 0 3.6187e+06 -1.12857e+06 0 3.63233e+06 -1.13332e+06 0 3.64608e+06 -1.13805e+06 0 3.65995e+06 -1.14275e+06 0 3.67396e+06 -1.14743e+06 0 3.68809e+06 -1.15208e+06 0 3.70235e+06 -1.15671e+06 0 3.71675e+06 -1.16132e+06 0 3.73128e+06 -1.1659e+06 0 3.74595e+06 -1.17045e+06 0 3.76075e+06 -1.17498e+06 0 3.7757e+06 -1.17948e+06 0 3.7908e+06 -1.18395e+06 0 3.80604e+06 -1.1884e+06 0 3.82143e+06 -1.19282e+06 0 3.83698e+06 -1.1972e+06 0 3.85268e+06 -1.20156e+06 0 3.86854e+06 -1.20589e+06 0 3.88456e+06 -1.21018e+06 0 3.90075e+06 -1.21444e+06 0 3.9171e+06 -1.21866e+06 0 3.93362e+06 -1.22285e+06 0 3.95032e+06 -1.227e+06 0 3.9672e+06 -1.23112e+06 0 3.98425e+06 -1.23519e+06 0 4.0015e+06 -1.23922e+06 0 4.01892e+06 -1.24321e+06 0 4.03655e+06 -1.24716e+06 0 4.05436e+06 -1.25105e+06 0 4.07238e+06 -1.2549e+06 0 4.0906e+06 -1.2587e+06 0 4.10903e+06 -1.26244e+06 0 4.12768e+06 -1.26613e+06 0 4.14654e+06 -1.26976e+06 0 4.16562e+06 -1.27333e+06 0 4.18493e+06 -1.27684e+06 0 4.20447e+06 -1.28027e+06 0 4.22424e+06 -1.28364e+06 0 4.24426e+06 -1.28694e+06 0 4.26453e+06 -1.29015e+06 0 4.28504e+06 -1.29329e+06 0 4.30582e+06 -1.29634e+06 0 4.32686e+06 -1.2993e+06 0 4.34816e+06 -1.30216e+06 0 4.36975e+06 -1.30493e+06 0 4.39161e+06 -1.30759e+06 0 4.41377e+06 -1.31014e+06 0 4.43621e+06 -1.31258e+06 0 4.45896e+06 -1.31489e+06 0 4.48202e+06 -1.31707e+06 0 4.50538e+06 -1.31912e+06 0 4.52908e+06 -1.32102e+06 0 4.5531e+06 -1.32277e+06 0 4.57745e+06 -1.32435e+06 0 4.60215e+06 -1.32577e+06 0 4.6272e+06 -1.327e+06 0 4.6526e+06 -1.32804e+06 0 4.67837e+06 -1.32888e+06 0 4.70452e+06 -1.32951e+06 0 4.73104e+06 -1.32991e+06 0 4.75795e+06 -1.33007e+06 0 4.78526e+06 -1.32997e+06 0 4.81297e+06 -1.3296e+06 0 4.84108e+06 -1.32894e+06 0 4.86961e+06 -1.32797e+06 0 4.89857e+06 -1.32668e+06 0 4.92795e+06 -1.32505e+06 0 4.95777e+06 -1.32305e+06 0 4.98802e+06 -1.32066e+06 0 5.01871e+06 -1.31786e+06 0 5.04985e+06 -1.31463e+06 0 5.08143e+06 -1.31092e+06 0 5.11346e+06 -1.30673e+06 0 5.14593e+06 -1.30201e+06 0 5.17885e+06 -1.29674e+06 0 5.2122e+06 -1.29089e+06 0 5.24598e+06 -1.28442e+06 0 5.28018e+06 -1.27729e+06 0 5.31478e+06 -1.26947e+06 0 5.34978e+06 -1.26092e+06 0 5.38515e+06 -1.25161e+06 0 5.42087e+06 -1.2415e+06 0 5.45691e+06 -1.23055e+06 0 5.49325e+06 -1.21873e+06 0 5.52984e+06 -1.20599e+06 0 5.56666e+06 -1.19231e+06 0 5.60367e+06 -1.17765e+06 0 5.6408e+06 -1.16198e+06 0 5.67803e+06 -1.14528e+06 0 5.71529e+06 -1.12752e+06 0 5.75254e+06 -1.10868e+06 0 5.78971e+06 -1.08874e+06 0 5.82675e+06 -1.06771e+06 0 5.86359e+06 -1.04556e+06 0 5.90019e+06 -1.02231e+06 0 5.93647e+06 -997950 0 5.97239e+06 -972490 0 6.00788e+06 -945940 0 6.04287e+06 -918307 0 6.0773e+06 -889628 0 3.34835e+06 -955982 0 3.35869e+06 -961198 0 3.36913e+06 -966392 0 3.37968e+06 -971562 0 3.39032e+06 -976709 0 3.40107e+06 -981831 0 3.41193e+06 -986929 0 3.42288e+06 -992002 0 3.43394e+06 -997050 0 3.44511e+06 -1.00207e+06 0 3.45638e+06 -1.00707e+06 0 3.46776e+06 -1.01204e+06 0 3.47925e+06 -1.01699e+06 0 3.49084e+06 -1.0219e+06 0 3.50255e+06 -1.0268e+06 0 3.51436e+06 -1.03166e+06 0 3.52628e+06 -1.0365e+06 0 3.53832e+06 -1.04131e+06 0 3.55047e+06 -1.0461e+06 0 3.56273e+06 -1.05085e+06 0 3.57511e+06 -1.05558e+06 0 3.5876e+06 -1.06028e+06 0 3.60021e+06 -1.06495e+06 0 3.61294e+06 -1.0696e+06 0 3.62579e+06 -1.07422e+06 0 3.63876e+06 -1.0788e+06 0 3.65186e+06 -1.08336e+06 0 3.66508e+06 -1.08789e+06 0 3.67842e+06 -1.09239e+06 0 3.6919e+06 -1.09685e+06 0 3.7055e+06 -1.10129e+06 0 3.71924e+06 -1.10569e+06 0 3.73311e+06 -1.11006e+06 0 3.74711e+06 -1.1144e+06 0 3.76126e+06 -1.11871e+06 0 3.77554e+06 -1.12298e+06 0 3.78996e+06 -1.12722e+06 0 3.80453e+06 -1.13142e+06 0 3.81924e+06 -1.13558e+06 0 3.8341e+06 -1.13971e+06 0 3.84912e+06 -1.1438e+06 0 3.86428e+06 -1.14784e+06 0 3.87961e+06 -1.15185e+06 0 3.89509e+06 -1.15581e+06 0 3.91073e+06 -1.15974e+06 0 3.92653e+06 -1.16361e+06 0 3.9425e+06 -1.16744e+06 0 3.95865e+06 -1.17123e+06 0 3.97496e+06 -1.17496e+06 0 3.99145e+06 -1.17864e+06 0 4.00812e+06 -1.18227e+06 0 4.02497e+06 -1.18585e+06 0 4.042e+06 -1.18936e+06 0 4.05922e+06 -1.19282e+06 0 4.07664e+06 -1.19622e+06 0 4.09425e+06 -1.19955e+06 0 4.11206e+06 -1.20282e+06 0 4.13007e+06 -1.20602e+06 0 4.14828e+06 -1.20915e+06 0 4.16671e+06 -1.2122e+06 0 4.18535e+06 -1.21517e+06 0 4.20422e+06 -1.21807e+06 0 4.2233e+06 -1.22088e+06 0 4.24261e+06 -1.2236e+06 0 4.26215e+06 -1.22622e+06 0 4.28192e+06 -1.22875e+06 0 4.30194e+06 -1.23119e+06 0 4.3222e+06 -1.23351e+06 0 4.34271e+06 -1.23572e+06 0 4.36347e+06 -1.23782e+06 0 4.3845e+06 -1.2398e+06 0 4.40578e+06 -1.24165e+06 0 4.42734e+06 -1.24337e+06 0 4.44917e+06 -1.24495e+06 0 4.47127e+06 -1.24638e+06 0 4.49366e+06 -1.24765e+06 0 4.51634e+06 -1.24877e+06 0 4.53932e+06 -1.24972e+06 0 4.56259e+06 -1.25049e+06 0 4.58617e+06 -1.25107e+06 0 4.61006e+06 -1.25145e+06 0 4.63426e+06 -1.25163e+06 0 4.65878e+06 -1.25159e+06 0 4.68363e+06 -1.25132e+06 0 4.70881e+06 -1.25081e+06 0 4.73432e+06 -1.25005e+06 0 4.76017e+06 -1.24902e+06 0 4.78636e+06 -1.24771e+06 0 4.8129e+06 -1.2461e+06 0 4.83979e+06 -1.24418e+06 0 4.86703e+06 -1.24194e+06 0 4.89463e+06 -1.23934e+06 0 4.92258e+06 -1.23639e+06 0 4.95089e+06 -1.23305e+06 0 4.97956e+06 -1.2293e+06 0 5.00859e+06 -1.22513e+06 0 5.03797e+06 -1.22052e+06 0 5.0677e+06 -1.21543e+06 0 5.09779e+06 -1.20985e+06 0 5.12821e+06 -1.20376e+06 0 5.15897e+06 -1.19711e+06 0 5.19006e+06 -1.1899e+06 0 5.22147e+06 -1.1821e+06 0 5.25318e+06 -1.17367e+06 0 5.28517e+06 -1.16459e+06 0 5.31744e+06 -1.15482e+06 0 5.34995e+06 -1.14436e+06 0 5.3827e+06 -1.13315e+06 0 5.41565e+06 -1.12119e+06 0 5.44877e+06 -1.10844e+06 0 5.48204e+06 -1.09488e+06 0 5.51542e+06 -1.08048e+06 0 5.54888e+06 -1.06522e+06 0 5.58238e+06 -1.04909e+06 0 5.61587e+06 -1.03206e+06 0 5.64933e+06 -1.01412e+06 0 5.6827e+06 -995253 0 5.71594e+06 -975459 0 5.749e+06 -954727 0 5.78183e+06 -933054 0 5.8144e+06 -910442 0 5.84664e+06 -886894 0 5.87852e+06 -862417 0 5.90999e+06 -837021 0 5.94099e+06 -810720 0 5.97149e+06 -783533 0 6.00144e+06 -755483 0 6.03081e+06 -726592 0 3.41294e+06 -924954 0 3.42296e+06 -929993 0 3.43309e+06 -935007 0 3.44333e+06 -939995 0 3.45367e+06 -944957 0 3.46412e+06 -949893 0 3.47468e+06 -954803 0 3.48535e+06 -959685 0 3.49612e+06 -964539 0 3.50701e+06 -969366 0 3.51801e+06 -974164 0 3.52912e+06 -978933 0 3.54035e+06 -983672 0 3.55169e+06 -988382 0 3.56314e+06 -993062 0 3.57471e+06 -997711 0 3.58639e+06 -1.00233e+06 0 3.5982e+06 -1.00692e+06 0 3.61012e+06 -1.01147e+06 0 3.62216e+06 -1.01599e+06 0 3.63432e+06 -1.02048e+06 0 3.64661e+06 -1.02494e+06 0 3.65901e+06 -1.02936e+06 0 3.67155e+06 -1.03375e+06 0 3.68421e+06 -1.0381e+06 0 3.69699e+06 -1.04242e+06 0 3.70991e+06 -1.0467e+06 0 3.72295e+06 -1.05095e+06 0 3.73613e+06 -1.05515e+06 0 3.74944e+06 -1.05932e+06 0 3.76289e+06 -1.06345e+06 0 3.77648e+06 -1.06754e+06 0 3.7902e+06 -1.07159e+06 0 3.80407e+06 -1.0756e+06 0 3.81807e+06 -1.07956e+06 0 3.83222e+06 -1.08348e+06 0 3.84652e+06 -1.08736e+06 0 3.86097e+06 -1.09119e+06 0 3.87557e+06 -1.09497e+06 0 3.89032e+06 -1.0987e+06 0 3.90523e+06 -1.10238e+06 0 3.92029e+06 -1.10601e+06 0 3.93551e+06 -1.10959e+06 0 3.9509e+06 -1.11311e+06 0 3.96645e+06 -1.11658e+06 0 3.98217e+06 -1.11999e+06 0 3.99806e+06 -1.12334e+06 0 4.01412e+06 -1.12662e+06 0 4.03035e+06 -1.12985e+06 0 4.04677e+06 -1.133e+06 0 4.06336e+06 -1.13609e+06 0 4.08014e+06 -1.1391e+06 0 4.09711e+06 -1.14205e+06 0 4.11426e+06 -1.14491e+06 0 4.13161e+06 -1.1477e+06 0 4.14915e+06 -1.1504e+06 0 4.16689e+06 -1.15302e+06 0 4.18484e+06 -1.15555e+06 0 4.20299e+06 -1.15799e+06 0 4.22135e+06 -1.16033e+06 0 4.23992e+06 -1.16257e+06 0 4.25871e+06 -1.16471e+06 0 4.27772e+06 -1.16674e+06 0 4.29695e+06 -1.16865e+06 0 4.31641e+06 -1.17045e+06 0 4.3361e+06 -1.17213e+06 0 4.35602e+06 -1.17368e+06 0 4.37618e+06 -1.1751e+06 0 4.39658e+06 -1.17638e+06 0 4.41723e+06 -1.17751e+06 0 4.43813e+06 -1.1785e+06 0 4.45928e+06 -1.17932e+06 0 4.48068e+06 -1.17998e+06 0 4.50235e+06 -1.18047e+06 0 4.52428e+06 -1.18078e+06 0 4.54647e+06 -1.1809e+06 0 4.56894e+06 -1.18082e+06 0 4.59169e+06 -1.18054e+06 0 4.61471e+06 -1.18004e+06 0 4.63801e+06 -1.17932e+06 0 4.66159e+06 -1.17836e+06 0 4.68546e+06 -1.17715e+06 0 4.70962e+06 -1.17569e+06 0 4.73408e+06 -1.17395e+06 0 4.75882e+06 -1.17194e+06 0 4.78386e+06 -1.16962e+06 0 4.8092e+06 -1.167e+06 0 4.83483e+06 -1.16405e+06 0 4.86076e+06 -1.16076e+06 0 4.88698e+06 -1.15711e+06 0 4.9135e+06 -1.15309e+06 0 4.94032e+06 -1.14869e+06 0 4.96742e+06 -1.14387e+06 0 4.99481e+06 -1.13863e+06 0 5.02248e+06 -1.13295e+06 0 5.0504