<?xml version="1.0"?> 
<VTKFile type="StructuredGrid" version="0.1"> 
<StructuredGrid WholeExtent="0 127 0 127 0 0"> 
<Piece Extent="0 127 0 127 0 0"> 
<PointData>
<DataArray type="Float32" Name="E" format="ascii" NumberOfComponents="3"> 
-1.73589e+06 -3.06798e+06 0 -1.24127e+06 -2.45245e+06 0 -1.01465e+06 -2.18194e+06 0 -893985 -2.02443e+06 0 -824339 -1.92424e+06 0 -779804 -1.85208e+06 0 -748804 -1.7969e+06 0 -725332 -1.75238e+06 0 -706290 -1.71523e+06 0 -689964 -1.68341e+06 0 -675393 -1.65563e+06 0 -662009 -1.63102e+06 0 -649470 -1.60897e+06 0 -637560 -1.58902e+06 0 -626137 -1.57084e+06 0 -615104 -1.55415e+06 0 -604393 -1.53875e+06 0 -593954 -1.52447e+06 0 -583749 -1.51117e+06 0 -573748 -1.49873e+06 0 -563927 -1.48705e+06 0 -554267 -1.47607e+06 0 -544751 -1.46569e+06 0 -535366 -1.45588e+06 0 -526098 -1.44657e+06 0 -516939 -1.43772e+06 0 -507878 -1.42928e+06 0 -498908 -1.42124e+06 0 -490021 -1.41355e+06 0 -481211 -1.40619e+06 0 -472471 -1.39913e+06 0 -463797 -1.39236e+06 0 -455184 -1.38585e+06 0 -446626 -1.37959e+06 0 -438120 -1.37355e+06 0 -429662 -1.36774e+06 0 -421248 -1.36213e+06 0 -412874 -1.35671e+06 0 -404538 -1.35147e+06 0 -396237 -1.3464e+06 0 -387966 -1.3415e+06 0 -379725 -1.33675e+06 0 -371509 -1.33215e+06 0 -363317 -1.32769e+06 0 -355146 -1.32336e+06 0 -346994 -1.31916e+06 0 -338858 -1.31509e+06 0 -330735 -1.31114e+06 0 -322625 -1.3073e+06 0 -314524 -1.30357e+06 0 -306431 -1.29994e+06 0 -298344 -1.29643e+06 0 -290259 -1.29301e+06 0 -282176 -1.28969e+06 0 -274092 -1.28646e+06 0 -266004 -1.28333e+06 0 -257912 -1.28029e+06 0 -249813 -1.27733e+06 0 -241704 -1.27447e+06 0 -233584 -1.27169e+06 0 -225450 -1.26899e+06 0 -217300 -1.26638e+06 0 -209132 -1.26385e+06 0 -200943 -1.2614e+06 0 -192731 -1.25904e+06 0 -184494 -1.25676e+06 0 -176229 -1.25455e+06 0 -167933 -1.25243e+06 0 -159604 -1.2504e+06 0 -151239 -1.24844e+06 0 -142835 -1.24657e+06 0 -134388 -1.24478e+06 0 -125897 -1.24308e+06 0 -117356 -1.24146e+06 0 -108763 -1.23993e+06 0 -100114 -1.2385e+06 0 -91405.7 -1.23715e+06 0 -82633.2 -1.2359e+06 0 -73792.4 -1.23475e+06 0 -64878.8 -1.23369e+06 0 -55887.5 -1.23274e+06 0 -46813.3 -1.2319e+06 0 -37650.7 -1.23117e+06 0 -28393.8 -1.23056e+06 0 -19036.4 -1.23006e+06 0 -9571.58 -1.22969e+06 0 7.77871 -1.22946e+06 0 9709.54 -1.22936e+06 0 19542.1 -1.22941e+06 0 29514.7 -1.22962e+06 0 39637.1 -1.22999e+06 0 49920.2 -1.23053e+06 0 60375.7 -1.23126e+06 0 71016.5 -1.23219e+06 0 81856.6 -1.23333e+06 0 92911.7 -1.2347e+06 0 104199 -1.23631e+06 0 115737 -1.23818e+06 0 127548 -1.24034e+06 0 139654 -1.24281e+06 0 152083 -1.24562e+06 0 164865 -1.24879e+06 0 178033 -1.25237e+06 0 191627 -1.2564e+06 0 205690 -1.26092e+06 0 220275 -1.26599e+06 0 235440 -1.27168e+06 0 251257 -1.27805e+06 0 267808 -1.2852e+06 0 285192 -1.29323e+06 0 303531 -1.30227e+06 0 322972 -1.31247e+06 0 343699 -1.32402e+06 0 365946 -1.33715e+06 0 390015 -1.35216e+06 0 416308 -1.36943e+06 0 445368 -1.38945e+06 0 477960 -1.41289e+06 0 515186 -1.44068e+06 0 558705 -1.47419e+06 0 611107 -1.51549e+06 0 676640 -1.56803e+06 0 762593 -1.6378e+06 0 882331 -1.73675e+06 0 1.06141e+06 -1.88829e+06 0 1.35365e+06 -2.15068e+06 0 1.87255e+06 -2.64128e+06 0 2.89665e+06 -3.72882e+06 0 -1.20657e+06 -1.43365e+06 0 -1.22552e+06 -1.56599e+06 0 -1.18229e+06 -1.61476e+06 0 -1.12336e+06 -1.63165e+06 0 -1.06344e+06 -1.63185e+06 0 -1.00812e+06 -1.62384e+06 0 -958748 -1.61145e+06 0 -915262 -1.5969e+06 0 -877022 -1.5814e+06 0 -843266 -1.56567e+06 0 -813269 -1.55013e+06 0 -786393 -1.535e+06 0 -762103 -1.52043e+06 0 -739962 -1.50646e+06 0 -719610 -1.49313e+06 0 -700759 -1.48041e+06 0 -683171 -1.46831e+06 0 -666656 -1.45679e+06 0 -651057 -1.44582e+06 0 -636244 -1.43536e+06 0 -622113 -1.42539e+06 0 -608573 -1.41588e+06 0 -595551 -1.40679e+06 0 -582984 -1.39809e+06 0 -570820 -1.38977e+06 0 -559013 -1.38179e+06 0 -547524 -1.37413e+06 0 -536321 -1.36677e+06 0 -525374 -1.35969e+06 0 -514658 -1.35288e+06 0 -504150 -1.34631e+06 0 -493831 -1.33998e+06 0 -483684 -1.33387e+06 0 -473693 -1.32796e+06 0 -463845 -1.32225e+06 0 -454126 -1.31672e+06 0 -444527 -1.31137e+06 0 -435036 -1.30618e+06 0 -425645 -1.30114e+06 0 -416345 -1.29626e+06 0 -407128 -1.29152e+06 0 -397987 -1.28691e+06 0 -388916 -1.28243e+06 0 -379909 -1.27807e+06 0 -370959 -1.27383e+06 0 -362062 -1.2697e+06 0 -353212 -1.26568e+06 0 -344405 -1.26177e+06 0 -335636 -1.25795e+06 0 -326901 -1.25423e+06 0 -318196 -1.2506e+06 0 -309516 -1.24706e+06 0 -300858 -1.2436e+06 0 -292219 -1.24024e+06 0 -283594 -1.23695e+06 0 -274981 -1.23374e+06 0 -266375 -1.2306e+06 0 -257774 -1.22755e+06 0 -249173 -1.22456e+06 0 -240571 -1.22165e+06 0 -231962 -1.21881e+06 0 -223345 -1.21603e+06 0 -214715 -1.21332e+06 0 -206070 -1.21068e+06 0 -197405 -1.20811e+06 0 -188718 -1.2056e+06 0 -180005 -1.20315e+06 0 -171262 -1.20077e+06 0 -162485 -1.19845e+06 0 -153671 -1.19619e+06 0 -144815 -1.194e+06 0 -135915 -1.19187e+06 0 -126964 -1.1898e+06 0 -117959 -1.18779e+06 0 -108895 -1.18585e+06 0 -99767.4 -1.18397e+06 0 -90570.8 -1.18216e+06 0 -81299.7 -1.18041e+06 0 -71948.4 -1.17873e+06 0 -62510.8 -1.17711e+06 0 -52980.5 -1.17556e+06 0 -43350.6 -1.17408e+06 0 -33613.6 -1.17267e+06 0 -23761.9 -1.17134e+06 0 -13786.8 -1.17008e+06 0 -3679.37 -1.16889e+06 0 6570.22 -1.16778e+06 0 16972.5 -1.16675e+06 0 27539 -1.16581e+06 0 38282.1 -1.16495e+06 0 49215.4 -1.16418e+06 0 60353.6 -1.1635e+06 0 71713 -1.16292e+06 0 83311.3 -1.16243e+06 0 95168.1 -1.16205e+06 0 107305 -1.16177e+06 0 119746 -1.16161e+06 0 132518 -1.16156e+06 0 145651 -1.16162e+06 0 159177 -1.16181e+06 0 173135 -1.16213e+06 0 187566 -1.16258e+06 0 202518 -1.16316e+06 0 218046 -1.16388e+06 0 234211 -1.16475e+06 0 251086 -1.16575e+06 0 268751 -1.1669e+06 0 287303 -1.16818e+06 0 306851 -1.16958e+06 0 327524 -1.17111e+06 0 349474 -1.17272e+06 0 372880 -1.1744e+06 0 397953 -1.17608e+06 0 424941 -1.17771e+06 0 454143 -1.17917e+06 0 485906 -1.18032e+06 0 520644 -1.18095e+06 0 558829 -1.18074e+06 0 600994 -1.17925e+06 0 647701 -1.17582e+06 0 699466 -1.16943e+06 0 756575 -1.15852e+06 0 818695 -1.14059e+06 0 883951 -1.11128e+06 0 947006 -1.06304e+06 0 994102 -979992 0 993291 -832878 0 863153 -539994 0 -1.14053e+06 -1.37606e+06 0 -1.09522e+06 -1.35561e+06 0 -1.07065e+06 -1.36034e+06 0 -1.04902e+06 -1.3705e+06 0 -1.02617e+06 -1.38101e+06 0 -1.00134e+06 -1.38954e+06 0 -975103 -1.39559e+06 0 -948185 -1.39915e+06 0 -921246 -1.40052e+06 0 -894770 -1.40002e+06 0 -869079 -1.39801e+06 0 -844362 -1.39479e+06 0 -820715 -1.39063e+06 0 -798164 -1.38576e+06 0 -776693 -1.38035e+06 0 -756257 -1.37456e+06 0 -736798 -1.3685e+06 0 -718248 -1.36227e+06 0 -700538 -1.35594e+06 0 -683598 -1.34957e+06 0 -667365 -1.3432e+06 0 -651775 -1.33687e+06 0 -636773 -1.33061e+06 0 -622305 -1.32442e+06 0 -608325 -1.31834e+06 0 -594789 -1.31236e+06 0 -581659 -1.3065e+06 0 -568898 -1.30075e+06 0 -556475 -1.29513e+06 0 -544361 -1.28963e+06 0 -532530 -1.28425e+06 0 -520959 -1.27899e+06 0 -509625 -1.27385e+06 0 -498510 -1.26883e+06 0 -487596 -1.26392e+06 0 -476867 -1.25912e+06 0 -466307 -1.25443e+06 0 -455905 -1.24984e+06 0 -445647 -1.24536e+06 0 -435521 -1.24097e+06 0 -425518 -1.23668e+06 0 -415628 -1.23248e+06 0 -405842 -1.22837e+06 0 -396151 -1.22435e+06 0 -386548 -1.22041e+06 0 -377026 -1.21654e+06 0 -367576 -1.21276e+06 0 -358194 -1.20905e+06 0 -348873 -1.20542e+06 0 -339607 -1.20185e+06 0 -330390 -1.19835e+06 0 -321218 -1.19492e+06 0 -312086 -1.19155e+06 0 -302988 -1.18824e+06 0 -293920 -1.18499e+06 0 -284878 -1.1818e+06 0 -275856 -1.17867e+06 0 -266852 -1.17559e+06 0 -257860 -1.17256e+06 0 -248876 -1.16958e+06 0 -239897 -1.16665e+06 0 -230918 -1.16377e+06 0 -221935 -1.16094e+06 0 -212944 -1.15815e+06 0 -203942 -1.15541e+06 0 -194924 -1.15271e+06 0 -185886 -1.15005e+06 0 -176823 -1.14744e+06 0 -167733 -1.14486e+06 0 -158609 -1.14232e+06 0 -149449 -1.13983e+06 0 -140246 -1.13736e+06 0 -130997 -1.13494e+06 0 -121697 -1.13255e+06 0 -112341 -1.13019e+06 0 -102922 -1.12786e+06 0 -93437.1 -1.12557e+06 0 -83878.9 -1.12331e+06 0 -74241.9 -1.12108e+06 0 -64519.6 -1.11888e+06 0 -54705.6 -1.1167e+06 0 -44792.7 -1.11456e+06 0 -34773.5 -1.11243e+06 0 -24640.2 -1.11034e+06 0 -14384.4 -1.10826e+06 0 -3997.23 -1.1062e+06 0 6530.79 -1.10416e+06 0 17209.8 -1.10214e+06 0 28050.6 -1.10013e+06 0 39064.8 -1.09813e+06 0 50264.9 -1.09614e+06 0 61664.2 -1.09416e+06 0 73277.2 -1.09217e+06 0 85119.3 -1.09017e+06 0 97207.3 -1.08816e+06 0 109559 -1.08614e+06 0 122195 -1.08408e+06 0 135135 -1.08199e+06 0 148403 -1.07985e+06 0 162022 -1.07766e+06 0 176021 -1.07538e+06 0 190427 -1.07302e+06 0 205272 -1.07053e+06 0 220589 -1.06792e+06 0 236413 -1.06513e+06 0 252783 -1.06214e+06 0 269738 -1.0589e+06 0 287320 -1.05537e+06 0 305572 -1.05149e+06 0 324536 -1.04719e+06 0 344252 -1.04238e+06 0 364757 -1.03696e+06 0 386079 -1.03082e+06 0 408233 -1.02381e+06 0 431214 -1.01577e+06 0 454986 -1.00649e+06 0 479469 -995753 0 504522 -983289 0 529922 -968803 0 555339 -951980 0 580323 -932516 0 604307 -910180 0 626684 -884946 0 647068 -857326 0 665964 -828898 0 686694 -804255 0 719405 -792975 0 794278 -824156 0 -1.06099e+06 -1.18636e+06 0 -1.05152e+06 -1.21114e+06 0 -1.03226e+06 -1.22348e+06 0 -1.01132e+06 -1.23215e+06 0 -990454 -1.23911e+06 0 -970032 -1.24522e+06 0 -949925 -1.25061e+06 0 -929997 -1.25526e+06 0 -910168 -1.25913e+06 0 -890429 -1.26218e+06 0 -870812 -1.26442e+06 0 -851376 -1.26586e+06 0 -832185 -1.26655e+06 0 -813300 -1.26655e+06 0 -794771 -1.26593e+06 0 -776639 -1.26475e+06 0 -758930 -1.26309e+06 0 -741661 -1.26101e+06 0 -724841 -1.25857e+06 0 -708468 -1.25582e+06 0 -692536 -1.25281e+06 0 -677034 -1.2496e+06 0 -661949 -1.2462e+06 0 -647262 -1.24267e+06 0 -632957 -1.23903e+06 0 -619015 -1.2353e+06 0 -605416 -1.2315e+06 0 -592141 -1.22766e+06 0 -579171 -1.22379e+06 0 -566489 -1.2199e+06 0 -554076 -1.21601e+06 0 -541917 -1.21211e+06 0 -529994 -1.20823e+06 0 -518293 -1.20437e+06 0 -506800 -1.20053e+06 0 -495502 -1.19671e+06 0 -484384 -1.19293e+06 0 -473436 -1.18918e+06 0 -462646 -1.18547e+06 0 -452003 -1.18179e+06 0 -441498 -1.17815e+06 0 -431121 -1.17455e+06 0 -420863 -1.17099e+06 0 -410715 -1.16747e+06 0 -400671 -1.16399e+06 0 -390722 -1.16055e+06 0 -380861 -1.15715e+06 0 -371081 -1.15379e+06 0 -361376 -1.15046e+06 0 -351741 -1.14717e+06 0 -342168 -1.14392e+06 0 -332653 -1.14071e+06 0 -323190 -1.13753e+06 0 -313773 -1.13438e+06 0 -304398 -1.13127e+06 0 -295061 -1.12819e+06 0 -285755 -1.12514e+06 0 -276477 -1.12212e+06 0 -267222 -1.11912e+06 0 -257986 -1.11616e+06 0 -248764 -1.11322e+06 0 -239553 -1.1103e+06 0 -230347 -1.10741e+06 0 -221143 -1.10455e+06 0 -211937 -1.1017e+06 0 -202724 -1.09887e+06 0 -193500 -1.09606e+06 0 -184261 -1.09327e+06 0 -175003 -1.09049e+06 0 -165721 -1.08773e+06 0 -156412 -1.08498e+06 0 -147070 -1.08224e+06 0 -137692 -1.07951e+06 0 -128272 -1.07679e+06 0 -118806 -1.07407e+06 0 -109290 -1.07136e+06 0 -99717.4 -1.06864e+06 0 -90084.1 -1.06593e+06 0 -80384.5 -1.06321e+06 0 -70613.1 -1.06049e+06 0 -60764.4 -1.05775e+06 0 -50832.3 -1.05501e+06 0 -40810.9 -1.05225e+06 0 -30693.6 -1.04947e+06 0 -20473.9 -1.04666e+06 0 -10144.8 -1.04383e+06 0 300.943 -1.04097e+06 0 10870.8 -1.03807e+06 0 21572.5 -1.03513e+06 0 32414.5 -1.03213e+06 0 43405.1 -1.02908e+06 0 54553.3 -1.02597e+06 0 65868.3 -1.02278e+06 0 77359.7 -1.01951e+06 0 89037.3 -1.01615e+06 0 100911 -1.01269e+06 0 112992 -1.0091e+06 0 125291 -1.00539e+06 0 137818 -1.00152e+06 0 150584 -997493 0 163600 -993275 0 176876 -988847 0 190423 -984185 0 204248 -979260 0 218360 -974040 0 232764 -968490 0 247465 -962573 0 262463 -956245 0 277756 -949459 0 293334 -942164 0 309185 -934304 0 325289 -925820 0 341616 -916648 0 358129 -906722 0 374780 -895976 0 391512 -884343 0 408258 -871763 0 424947 -858183 0 441504 -843560 0 457864 -827869 0 473975 -811100 0 489801 -793245 0 505310 -774267 0 520378 -753987 0 534538 -731881 0 546173 -706276 0 550756 -673506 0 534876 -621637 0 -1.01154e+06 -1.10372e+06 0 -994241 -1.10567e+06 0 -980425 -1.11236e+06 0 -966539 -1.11967e+06 0 -952004 -1.12673e+06 0 -936835 -1.13318e+06 0 -921221 -1.13896e+06 0 -905324 -1.1441e+06 0 -889266 -1.14863e+06 0 -873132 -1.15258e+06 0 -856979 -1.15597e+06 0 -840852 -1.15883e+06 0 -824788 -1.16118e+06 0 -808818 -1.16305e+06 0 -792970 -1.16445e+06 0 -777271 -1.16541e+06 0 -761743 -1.16597e+06 0 -746405 -1.16614e+06 0 -731275 -1.16595e+06 0 -716365 -1.16544e+06 0 -701686 -1.16463e+06 0 -687243 -1.16355e+06 0 -673042 -1.16223e+06 0 -659083 -1.16069e+06 0 -645367 -1.15895e+06 0 -631890 -1.15705e+06 0 -618650 -1.15498e+06 0 -605640 -1.15278e+06 0 -592855 -1.15046e+06 0 -580288 -1.14804e+06 0 -567932 -1.14553e+06 0 -555777 -1.14294e+06 0 -543818 -1.14028e+06 0 -532044 -1.13757e+06 0 -520448 -1.13481e+06 0 -509022 -1.132e+06 0 -497758 -1.12917e+06 0 -486647 -1.1263e+06 0 -475681 -1.12342e+06 0 -464854 -1.12051e+06 0 -454156 -1.1176e+06 0 -443583 -1.11467e+06 0 -433125 -1.11174e+06 0 -422777 -1.1088e+06 0 -412532 -1.10586e+06 0 -402383 -1.10291e+06 0 -392325 -1.09997e+06 0 -382352 -1.09704e+06 0 -372458 -1.0941e+06 0 -362638 -1.09117e+06 0 -352885 -1.08825e+06 0 -343196 -1.08533e+06 0 -333565 -1.08241e+06 0 -323988 -1.0795e+06 0 -314459 -1.0766e+06 0 -304975 -1.0737e+06 0 -295530 -1.07081e+06 0 -286120 -1.06792e+06 0 -276742 -1.06503e+06 0 -267391 -1.06215e+06 0 -258063 -1.05927e+06 0 -248753 -1.05639e+06 0 -239459 -1.05351e+06 0 -230176 -1.05063e+06 0 -220900 -1.04775e+06 0 -211627 -1.04487e+06 0 -202354 -1.04198e+06 0 -193076 -1.03908e+06 0 -183791 -1.03618e+06 0 -174494 -1.03327e+06 0 -165181 -1.03035e+06 0 -155849 -1.02741e+06 0 -146494 -1.02446e+06 0 -137111 -1.0215e+06 0 -127697 -1.01851e+06 0 -118249 -1.0155e+06 0 -108761 -1.01247e+06 0 -99230.3 -1.00941e+06 0 -89652.6 -1.00631e+06 0 -80023.6 -1.00319e+06 0 -70339.2 -1.00002e+06 0 -60595.2 -996816 0 -50787.1 -993564 0 -40910.7 -990262 0 -30961.6 -986904 0 -20935.3 -983485 0 -10827.4 -980000 0 -633.28 -976443 0 9651.46 -972807 0 20031.3 -969084 0 30510.7 -965268 0 41093.9 -961349 0 51785.3 -957318 0 62588.8 -953166 0 73508.2 -948883 0 84547.2 -944455 0 95708.7 -939872 0 106996 -935119 0 118410 -930182 0 129953 -925046 0 141625 -919693 0 153426 -914106 0 165353 -908266 0 177404 -902151 0 189574 -895740 0 201856 -889011 0 214240 -881938 0 226715 -874498 0 239266 -866663 0 251876 -858407 0 264524 -849704 0 277183 -840526 0 289827 -830848 0 302421 -820642 0 314926 -809887 0 327301 -798559 0 339496 -786639 0 351455 -774109 0 363113 -760957 0 374393 -747171 0 385203 -732748 0 395432 -717693 0 404961 -702041 0 413692 -685899 0 421656 -669537 0 429372 -653735 0 438627 -640164 0 455242 -634190 0 -967499 -1.01085e+06 0 -956507 -1.01991e+06 0 -943666 -1.02645e+06 0 -930576 -1.0323e+06 0 -917466 -1.0378e+06 0 -904330 -1.04305e+06 0 -891108 -1.04804e+06 0 -877770 -1.05272e+06 0 -864309 -1.05708e+06 0 -850738 -1.0611e+06 0 -837077 -1.06476e+06 0 -823352 -1.06806e+06 0 -809590 -1.07101e+06 0 -795816 -1.0736e+06 0 -782053 -1.07586e+06 0 -768322 -1.07778e+06 0 -754643 -1.07938e+06 0 -741033 -1.08067e+06 0 -727508 -1.08167e+06 0 -714080 -1.08239e+06 0 -700762 -1.08284e+06 0 -687562 -1.08304e+06 0 -674491 -1.08301e+06 0 -661553 -1.08275e+06 0 -648756 -1.08229e+06 0 -636101 -1.08164e+06 0 -623593 -1.0808e+06 0 -611232 -1.07981e+06 0 -599019 -1.07866e+06 0 -586954 -1.07737e+06 0 -575036 -1.07595e+06 0 -563262 -1.07441e+06 0 -551630 -1.07277e+06 0 -540138 -1.07103e+06 0 -528781 -1.06919e+06 0 -517557 -1.06728e+06 0 -506461 -1.06528e+06 0 -495490 -1.06322e+06 0 -484638 -1.0611e+06 0 -473902 -1.05892e+06 0 -463277 -1.05669e+06 0 -452758 -1.05441e+06 0 -442341 -1.05208e+06 0 -432021 -1.04972e+06 0 -421795 -1.04732e+06 0 -411656 -1.04489e+06 0 -401602 -1.04243e+06 0 -391627 -1.03994e+06 0 -381727 -1.03742e+06 0 -371898 -1.03488e+06 0 -362136 -1.03231e+06 0 -352437 -1.02972e+06 0 -342797 -1.02711e+06 0 -333211 -1.02448e+06 0 -323676 -1.02183e+06 0 -314189 -1.01917e+06 0 -304744 -1.01648e+06 0 -295340 -1.01377e+06 0 -285972 -1.01105e+06 0 -276636 -1.0083e+06 0 -267330 -1.00554e+06 0 -258049 -1.00276e+06 0 -248791 -999955 0 -239553 -997130 0 -230330 -994283 0 -221119 -991413 0 -211919 -988519 0 -202724 -985599 0 -193533 -982651 0 -184342 -979675 0 -175149 -976669 0 -165949 -973630 0 -156741 -970556 0 -147520 -967446 0 -138286 -964297 0 -129033 -961106 0 -119760 -957871 0 -110463 -954589 0 -101141 -951256 0 -91789.2 -947870 0 -82406 -944426 0 -72988.6 -940920 0 -63534.4 -937350 0 -54040.8 -933709 0 -44505.5 -929994 0 -34926.1 -926200 0 -25300.5 -922320 0 -15626.7 -918350 0 -5902.85 -914284 0 3872.74 -910114 0 13701.4 -905835 0 23584.4 -901439 0 33522.3 -896918 0 43515.8 -892264 0 53564.8 -887469 0 63668.8 -882523 0 73826.9 -877417 0 84037.5 -872141 0 94298.2 -866684 0 104606 -861036 0 114957 -855185 0 125346 -849119 0 135768 -842825 0 146215 -836293 0 156678 -829508 0 167149 -822457 0 177615 -815129 0 188064 -807510 0 198481 -799588 0 208849 -791350 0 219151 -782786 0 229367 -773885 0 239474 -764638 0 249448 -755037 0 259264 -745077 0 268894 -734755 0 278311 -724071 0 287486 -713027 0 296392 -701632 0 305005 -689898 0 313306 -677842 0 321287 -665487 0 328945 -652850 0 336280 -639933 0 343247 -626678 0 349607 -612816 0 354579 -597701 0 355574 -579054 0 -931139 -940373 0 -919787 -944977 0 -908933 -950361 0 -897891 -955678 0 -886604 -960786 0 -875107 -965630 0 -863451 -970213 0 -851670 -974541 0 -839788 -978618 0 -827821 -982444 0 -815781 -986019 0 -803680 -989342 0 -791530 -992411 0 -779344 -995227 0 -767134 -997791 0 -754913 -1.00011e+06 0 -742693 -1.00218e+06 0 -730486 -1.004e+06 0 -718303 -1.0056e+06 0 -706155 -1.00696e+06 0 -694051 -1.0081e+06 0 -682001 -1.00903e+06 0 -670012 -1.00975e+06 0 -658092 -1.01028e+06 0 -646246 -1.01061e+06 0 -634480 -1.01076e+06 0 -622799 -1.01074e+06 0 -611207 -1.01056e+06 0 -599706 -1.01022e+06 0 -588299 -1.00973e+06 0 -576987 -1.00911e+06 0 -565772 -1.00835e+06 0 -554654 -1.00747e+06 0 -543634 -1.00648e+06 0 -532711 -1.00537e+06 0 -521884 -1.00416e+06 0 -511153 -1.00285e+06 0 -500515 -1.00146e+06 0 -489969 -999971 0 -479513 -998407 0 -469146 -996766 0 -458864 -995054 0 -448666 -993274 0 -438548 -991431 0 -428508 -989527 0 -418544 -987567 0 -408653 -985552 0 -398831 -983485 0 -389076 -981370 0 -379386 -979207 0 -369756 -976999 0 -360185 -974747 0 -350669 -972454 0 -341205 -970119 0 -331792 -967745 0 -322425 -965331 0 -313102 -962879 0 -303820 -960390 0 -294577 -957862 0 -285370 -955298 0 -276195 -952696 0 -267052 -950057 0 -257936 -947379 0 -248846 -944664 0 -239778 -941909 0 -230731 -939115 0 -221702 -936281 0 -212689 -933405 0 -203689 -930486 0 -194700 -927523 0 -185719 -924514 0 -176746 -921459 0 -167776 -918354 0 -158810 -915199 0 -149843 -911991 0 -140875 -908727 0 -131904 -905406 0 -122928 -902025 0 -113945 -898581 0 -104953 -895071 0 -95952 -891492 0 -86939.5 -887840 0 -77914.4 -884113 0 -68875.9 -880306 0 -59822.8 -876416 0 -50754.4 -872438 0 -41670.2 -868368 0 -32569.8 -864202 0 -23453 -859934 0 -14319.9 -855560 0 -5171.04 -851074 0 3993 -846471 0 13171.1 -841745 0 22361.9 -836890 0 31563.6 -831901 0 40773.8 -826770 0 49989.9 -821491 0 59208.5 -816059 0 68425.8 -810465 0 77637.4 -804702 0 86838.2 -798765 0 96022.4 -792646 0 105184 -786338 0 114314 -779834 0 123407 -773127 0 132452 -766211 0 141439 -759081 0 150359 -751729 0 159200 -744151 0 167950 -736343 0 176594 -728300 0 185120 -720020 0 193513 -711500 0 201757 -702741 0 209836 -693742 0 217735 -684505 0 225436 -675032 0 232922 -665329 0 240176 -655401 0 247178 -645253 0 253907 -634893 0 260338 -624330 0 266444 -613575 0 272195 -602649 0 277579 -591600 0 282665 -580564 0 287755 -569846 0 293967 -560472 0 -898728 -873602 0 -889004 -878990 0 -878872 -883813 0 -868639 -888435 0 -858330 -892900 0 -847937 -897218 0 -837448 -901374 0 -826862 -905358 0 -816184 -909161 0 -805422 -912777 0 -794587 -916203 0 -783686 -919437 0 -772731 -922476 0 -761730 -925320 0 -750693 -927969 0 -739628 -930424 0 -728544 -932686 0 -717449 -934755 0 -706350 -936636 0 -695257 -938330 0 -684175 -939841 0 -673111 -941172 0 -662073 -942327 0 -651066 -943312 0 -640095 -944130 0 -629166 -944786 0 -618284 -945286 0 -607451 -945635 0 -596673 -945838 0 -585951 -945900 0 -575290 -945827 0 -564690 -945623 0 -554154 -945295 0 -543684 -944846 0 -533280 -944283 0 -522944 -943610 0 -512676 -942831 0 -502475 -941952 0 -492343 -940976 0 -482278 -939907 0 -472280 -938750 0 -462349 -937508 0 -452483 -936185 0 -442681 -934783 0 -432942 -933307 0 -423266 -931759 0 -413649 -930141 0 -404092 -928456 0 -394591 -926707 0 -385146 -924895 0 -375755 -923023 0 -366416 -921092 0 -357126 -919103 0 -347885 -917059 0 -338691 -914959 0 -329541 -912806 0 -320434 -910600 0 -311367 -908341 0 -302339 -906031 0 -293348 -903670 0 -284392 -901257 0 -275470 -898794 0 -266579 -896280 0 -257718 -893714 0 -248884 -891097 0 -240077 -888428 0 -231295 -885707 0 -222535 -882932 0 -213796 -880103 0 -205078 -877219 0 -196378 -874279 0 -187694 -871282 0 -179027 -868225 0 -170373 -865109 0 -161733 -861930 0 -153105 -858688 0 -144488 -855380 0 -135881 -852004 0 -127283 -848558 0 -118694 -845041 0 -110112 -841448 0 -101538 -837779 0 -92971.8 -834029 0 -84412.2 -830197 0 -75859.6 -826279 0 -67314.3 -822272 0 -58776.5 -818173 0 -50246.9 -813979 0 -41726.3 -809685 0 -33215.7 -805289 0 -24716.4 -800787 0 -16229.9 -796175 0 -7758.13 -791449 0 696.77 -786605 0 9132.33 -781639 0 17545.7 -776548 0 25933.7 -771326 0 34292.8 -765970 0 42618.9 -760477 0 50907.8 -754841 0 59154.4 -749059 0 67353.7 -743127 0 75499.8 -737042 0 83586.6 -730801 0 91607.3 -724399 0 99555 -717834 0 107422 -711105 0 115200 -704208 0 122881 -697142 0 130456 -689906 0 137915 -682499 0 145249 -674922 0 152449 -667175 0 159503 -659260 0 166401 -651178 0 173133 -642935 0 179688 -634532 0 186057 -625976 0 192227 -617273 0 198191 -608429 0 203940 -599455 0 209468 -590360 0 214772 -581154 0 219851 -571848 0 224700 -562440 0 229283 -552895 0 233466 -543107 0 236753 -532654 0 -869978 -814466 0 -860714 -818764 0 -851466 -823121 0 -842106 -827369 0 -832635 -831485 0 -823067 -835459 0 -813413 -839292 0 -803682 -842983 0 -793879 -846529 0 -784010 -849929 0 -774080 -853180 0 -764094 -856280 0 -754058 -859227 0 -743976 -862019 0 -733856 -864656 0 -723703 -867136 0 -713522 -869460 0 -703321 -871627 0 -693104 -873639 0 -682877 -875496 0 -672645 -877201 0 -662415 -878753 0 -652190 -880157 0 -641975 -881413 0 -631776 -882524 0 -621596 -883494 0 -611439 -884324 0 -601309 -885018 0 -591209 -885580 0 -581143 -886012 0 -571113 -886317 0 -561122 -886500 0 -551171 -886563 0 -541264 -886510 0 -531401 -886344 0 -521585 -886070 0 -511816 -885689 0 -502095 -885206 0 -492424 -884623 0 -482802 -883944 0 -473230 -883171 0 -463709 -882308 0 -454238 -881357 0 -444817 -880321 0 -435447 -879203 0 -426126 -878004 0 -416854 -876727 0 -407631 -875375 0 -398456 -873948 0 -389328 -872450 0 -380246 -870881 0 -371209 -869244 0 -362217 -867539 0 -353268 -865768 0 -344362 -863933 0 -335496 -862034 0 -326671 -860071 0 -317885 -858047 0 -309137 -855961 0 -300426 -853815 0 -291750 -851607 0 -283109 -849340 0 -274501 -847012 0 -265926 -844624 0 -257382 -842176 0 -248868 -839668 0 -240383 -837099 0 -231926 -834469 0 -223497 -831777 0 -215094 -829023 0 -206717 -826205 0 -198364 -823324 0 -190036 -820378 0 -181731 -817366 0 -173449 -814287 0 -165189 -811139 0 -156952 -807922 0 -148736 -804634 0 -140541 -801272 0 -132368 -797836 0 -124217 -794324 0 -116087 -790734 0 -107979 -787064 0 -99892.9 -783312 0 -91829.9 -779476 0 -83790.4 -775553 0 -75775.2 -771542 0 -67785.6 -767441 0 -59822.6 -763246 0 -51887.7 -758956 0 -43982.6 -754568 0 -36109 -750080 0 -28269 -745490 0 -20465 -740794 0 -12699.4 -735990 0 -4975.1 -731077 0 2704.97 -726052 0 10337.5 -720912 0 17918.8 -715655 0 25445.3 -710279 0 32912.6 -704783 0 40316.5 -699164 0 47652.2 -693422 0 54914.9 -687553 0 62099.4 -681558 0 69200.1 -675436 0 76211.5 -669185 0 83127.5 -662806 0 89942.1 -656299 0 96649 -649663 0 103242 -642901 0 109713 -636013 0 116057 -629001 0 122267 -621868 0 128336 -614616 0 134257 -607248 0 140023 -599769 0 145629 -592182 0 151067 -584493 0 156331 -576706 0 161414 -568826 0 166311 -560861 0 171012 -552815 0 175510 -544696 0 179798 -536516 0 183883 -528302 0 187813 -520110 0 191800 -512137 0 -843785 -759285 0 -835205 -763456 0 -826497 -767453 0 -817721 -771343 0 -808879 -775130 0 -799970 -778811 0 -790993 -782381 0 -781952 -785837 0 -772848 -789174 0 -763688 -792390 0 -754474 -795484 0 -745211 -798453 0 -735902 -801295 0 -726553 -804010 0 -717168 -806595 0 -707749 -809052 0 -698303 -811377 0 -688832 -813572 0 -679342 -815637 0 -669835 -817571 0 -660317 -819374 0 -650791 -821048 0 -641260 -822594 0 -631730 -824011 0 -622203 -825303 0 -612682 -826469 0 -603171 -827512 0 -593674 -828433 0 -584192 -829235 0 -574729 -829918 0 -565287 -830486 0 -555869 -830940 0 -546477 -831283 0 -537113 -831516 0 -527779 -831642 0 -518477 -831664 0 -509207 -831583 0 -499972 -831402 0 -490772 -831123 0 -481609 -830748 0 -472483 -830279 0 -463395 -829719 0 -454346 -829070 0 -445337 -828333 0 -436367 -827511 0 -427437 -826605 0 -418546 -825618 0 -409696 -824550 0 -400886 -823405 0 -392115 -822182 0 -383384 -820883 0 -374693 -819511 0 -366040 -818065 0 -357427 -816548 0 -348851 -814960 0 -340314 -813302 0 -331813 -811575 0 -323350 -809781 0 -314923 -807918 0 -306532 -805989 0 -298176 -803993 0 -289854 -801931 0 -281567 -799804 0 -273314 -797610 0 -265093 -795351 0 -256905 -793027 0 -248750 -790637 0 -240626 -788181 0 -232534 -785658 0 -224472 -783070 0 -216441 -780415 0 -208440 -777692 0 -200470 -774901 0 -192529 -772041 0 -184619 -769113 0 -176738 -766113 0 -168887 -763043 0 -161066 -759901 0 -153275 -756685 0 -145515 -753396 0 -137786 -750031 0 -130088 -746590 0 -122423 -743070 0 -114790 -739472 0 -107191 -735794 0 -99625.9 -732033 0 -92096.9 -728190 0 -84604.8 -724262 0 -77151 -720248 0 -69737 -716147 0 -62364.4 -711957 0 -55035.2 -707677 0 -47751.3 -703305 0 -40514.8 -698840 0 -33328 -694282 0 -26193.5 -689627 0 -19113.9 -684877 0 -12092 -680028 0 -5130.84 -675081 0 1766.42 -670034 0 8596.44 -664887 0 15355.7 -659640 0 22040.6 -654290 0 28647.2 -648840 0 35171.6 -643287 0 41609.6 -637633 0 47957.2 -631878 0 54209.9 -626023 0 60363.2 -620068 0 66412.7 -614014 0 72353.9 -607863 0 78182 -601617 0 83892.4 -595278 0 89480.6 -588848 0 94941.9 -582329 0 100272 -575726 0 105466 -569040 0 110519 -562276 0 115428 -555438 0 120189 -548530 0 124798 -541557 0 129251 -534524 0 133546 -527437 0 137683 -520301 0 141659 -513120 0 145469 -505894 0 149088 -498608 0 152423 -491189 0 -819763 -708114 0 -811611 -711902 0 -803417 -715636 0 -795156 -719283 0 -786833 -722837 0 -778451 -726296 0 -770015 -729658 0 -761526 -732922 0 -752988 -736086 0 -744402 -739148 0 -735772 -742105 0 -727100 -744957 0 -718390 -747702 0 -709643 -750338 0 -700863 -752865 0 -692053 -755281 0 -683217 -757585 0 -674357 -759777 0 -665476 -761857 0 -656578 -763824 0 -647665 -765678 0 -638741 -767420 0 -629808 -769049 0 -620870 -770566 0 -611929 -771971 0 -602988 -773265 0 -594050 -774450 0 -585117 -775525 0 -576191 -776492 0 -567276 -777352 0 -558373 -778107 0 -549484 -778756 0 -540611 -779303 0 -531757 -779748 0 -522923 -780092 0 -514111 -780338 0 -505323 -780486 0 -496558 -780539 0 -487820 -780497 0 -479110 -780363 0 -470427 -780137 0 -461774 -779822 0 -453151 -779419 0 -444560 -778929 0 -435999 -778354 0 -427472 -777695 0 -418976 -776953 0 -410515 -776131 0 -402087 -775228 0 -393692 -774247 0 -385332 -773189 0 -377007 -772054 0 -368716 -770843 0 -360459 -769559 0 -352237 -768200 0 -344050 -766769 0 -335897 -765266 0 -327779 -763692 0 -319696 -762048 0 -311646 -760333 0 -303632 -758548 0 -295651 -756695 0 -287705 -754773 0 -279792 -752782 0 -271914 -750723 0 -264069 -748596 0 -256258 -746401 0 -248481 -744137 0 -240738 -741806 0 -233029 -739406 0 -225353 -736938 0 -217711 -734401 0 -210104 -731796 0 -202530 -729121 0 -194991 -726376 0 -187487 -723562 0 -180018 -720677 0 -172584 -717720 0 -165187 -714692 0 -157826 -711592 0 -150502 -708418 0 -143216 -705172 0 -135968 -701850 0 -128761 -698454 0 -121593 -694982 0 -114468 -691433 0 -107384 -687807 0 -100345 -684103 0 -93351.7 -680320 0 -86404.8 -676458 0 -79506.2 -672515 0 -72657.7 -668492 0 -65861.1 -664387 0 -59118.2 -660200 0 -52431.1 -655930 0 -45801.9 -651577 0 -39232.9 -647141 0 -32726.4 -642621 0 -26284.8 -638016 0 -19910.8 -633328 0 -13607 -628555 0 -7376.17 -623698 0 -1221.15 -618757 0 4855.11 -613732 0 10849.6 -608625 0 16759.2 -603435 0 22580.8 -598163 0 28311.2 -592811 0 33947.1 -587380 0 39485.3 -581871 0 44922.6 -576286 0 50255.6 -570626 0 55481.1 -564893 0 60595.9 -559091 0 65596.8 -553221 0 70480.7 -547285 0 75244.7 -541287 0 79885.7 -535230 0 84401 -529117 0 88788 -522952 0 93044.1 -516737 0 97166.6 -510477 0 101153 -504176 0 105001 -497838 0 108707 -491467 0 112272 -485070 0 115703 -478661 0 119039 -472278 0 -797431 -659945 0 -789695 -663559 0 -781899 -667084 0 -774057 -670532 0 -766167 -673899 0 -758232 -677186 0 -750252 -680388 0 -742228 -683504 0 -734164 -686533 0 -726060 -689472 0 -717918 -692320 0 -709742 -695076 0 -701533 -697739 0 -693293 -700307 0 -685025 -702779 0 -676730 -705154 0 -668412 -707432 0 -660072 -709611 0 -651712 -711692 0 -643336 -713673 0 -634945 -715555 0 -626542 -717337 0 -618130 -719019 0 -609709 -720602 0 -601283 -722084 0 -592854 -723468 0 -584424 -724752 0 -575995 -725937 0 -567570 -727025 0 -559149 -728014 0 -550735 -728907 0 -542331 -729704 0 -533937 -730405 0 -525555 -731012 0 -517188 -731526 0 -508836 -731947 0 -500501 -732276 0 -492184 -732514 0 -483887 -732663 0 -475611 -732724 0 -467357 -732697 0 -459127 -732583 0 -450920 -732384 0 -442739 -732101 0 -434583 -731735 0 -426455 -731287 0 -418354 -730757 0 -410281 -730147 0 -402237 -729458 0 -394222 -728691 0 -386238 -727846 0 -378283 -726925 0 -370360 -725929 0 -362467 -724857 0 -354606 -723712 0 -346777 -722493 0 -338981 -721201 0 -331216 -719837 0 -323484 -718402 0 -315786 -716896 0 -308120 -715319 0 -300488 -713672 0 -292889 -711955 0 -285324 -710169 0 -277793 -708314 0 -270296 -706391 0 -262834 -704398 0 -255407 -702337 0 -248014 -700208 0 -240657 -698010 0 -233335 -695745 0 -226049 -693410 0 -218800 -691008 0 -211587 -688537 0 -204412 -685998 0 -197274 -683390 0 -190174 -680713 0 