<?xml version="1.0"?> 
<VTKFile type="StructuredGrid" version="0.1"> 
<StructuredGrid WholeExtent="0 127 0 127 0 0"> 
<Piece Extent="0 127 0 127 0 0"> 
<PointData>
<DataArray type="Float32" Name="E" format="ascii" NumberOfComponents="3"> 
-906179 -0.0107884 0 -906165 611.427 0 -906122 1223.6 0 -906052 1837.27 0 -905954 2453.17 0 -905827 3072.04 0 -905672 3694.62 0 -905488 4321.66 0 -905275 4953.88 0 -905033 5592.02 0 -904761 6236.82 0 -904460 6889.01 0 -904127 7549.3 0 -903764 8218.43 0 -903369 8897.11 0 -902942 9586.05 0 -902483 10286 0 -901990 10997.5 0 -901463 11721.5 0 -900901 12458.4 0 -900303 13209.1 0 -899669 13974.2 0 -898998 14754.2 0 -898288 15549.9 0 -897539 16361.9 0 -896748 17190.7 0 -895917 18037 0 -895042 18901.2 0 -894122 19783.9 0 -893158 20685.6 0 -892145 21606.8 0 -891085 22547.8 0 -889974 23509.2 0 -888811 24491.1 0 -887595 25494 0 -886324 26518 0 -884995 27563.4 0 -883607 28630.2 0 -882158 29718.7 0 -880647 30828.6 0 -879069 31960.1 0 -877424 33112.8 0 -875710 34286.7 0 -873923 35481.2 0 -872062 36696 0 -870123 37930.5 0 -868105 39184.1 0 -866005 40455.9 0 -863820 41745 0 -861547 43050.4 0 -859184 44370.9 0 -856727 45705 0 -854175 47051.5 0 -851525 48408.4 0 -848772 49774.1 0 -845916 51146.5 0 -842952 52523.4 0 -839878 53902.5 0 -836692 55281.2 0 -833391 56656.8 0 -829971 58026.3 0 -826432 59386.7 0 -822769 60734.6 0 -818981 62066.5 0 -815066 63378.9 0 -811021 64667.8 0 -806846 65929.2 0 -802537 67159.1 0 -798093 68353.1 0 -793514 69506.8 0 -788798 70615.5 0 -783944 71674.7 0 -778952 72679.6 0 -773820 73625.4 0 -768550 74507.2 0 -763141 75320.1 0 -757592 76059.2 0 -751906 76719.6 0 -746083 77296.3 0 -740123 77784.6 0 -734028 78179.6 0 -727799 78476.7 0 -721438 78671.2 0 -714947 78758.7 0 -708328 78734.7 0 -701582 78595.1 0 -694712 78335.6 0 -687720 77952.4 0 -680609 77441.5 0 -673379 76799.3 0 -666034 76022.1 0 -658576 75106.4 0 -651006 74048.8 0 -643326 72846 0 -635537 71494.5 0 -627641 69991 0 -619639 68332.2 0 -611532 66514.5 0 -603318 64534.3 0 -594998 62387.6 0 -586571 60070.2 0 -578036 57577.6 0 -569390 54904.5 0 -560629 52045.3 0 -551751 48993.4 0 -542749 45741.2 0 -533618 42280.2 0 -524350 38600 0 -514935 34688.9 0 -505364 30532.6 0 -495621 26114.5 0 -485692 21414.4 0 -475557 16407.8 0 -465193 11065 0 -454572 5349.16 0 -443659 -785.831 0 -432412 -7398.15 0 -420776 -14563.8 0 -408681 -22380.6 0 -396042 -30988.6 0 -382717 -40558.2 0 -368595 -51430.8 0 -353236 -63791.2 0 -336742 -79170.5 0 -317123 -96106.8 0 -295392 -126117 0 -263590 -150689 0 -123620 -320628 0 -906681 -0.01096 0 -906668 621.03 0 -906626 1242.82 0 -906558 1866.12 0 -906461 2491.68 0 -906337 3120.26 0 -906185 3752.6 0 -906005 4389.45 0 -905796 5031.56 0 -905559 5679.68 0 -905292 6334.54 0 -904996 6996.9 0 -904671 7667.49 0 -904314 8347.04 0 -903927 9036.28 0 -903509 9735.95 0 -903058 10446.8 0 -902575 11169.4 0 -902058 11904.6 0 -901507 12653.1 0 -900921 13415.5 0 -900298 14192.6 0 -899639 14984.9 0 -898943 15793.1 0 -898207 16617.9 0 -897431 17460 0 -896615 18319.7 0 -895755 19197.9 0 -894852 20094.9 0 -893905 21011.3 0 -892910 21947.7 0 -891868 22904.4 0 -890776 23881.9 0 -889633 24880.5 0 -888437 25900.7 0 -887186 26942.6 0 -885879 28006.5 0 -884514 29092.5 0 -883088 30200.8 0 -881599 31331.4 0 -880046 32484.3 0 -878426 33659.3 0 -876736 34856.2 0 -874975 36074.7 0 -873140 37314.5 0 -871228 38575 0 -869237 39855.5 0 -867165 41155.3 0 -865008 42473.7 0 -862764 43809.4 0 -860429 45161.5 0 -858002 46528.5 0 -855480 47909 0 -852859 49301.5 0 -850136 50704 0 -847310 52114.7 0 -844376 53531.4 0 -841332 54951.8 0 -838176 56373.3 0 -834904 57793.2 0 -831513 59208.7 0 -828003 60616.6 0 -824368 62013.7 0 -820608 63396.4 0 -816720 64761.2 0 -812702 66104.2 0 -808552 67421.4 0 -804268 68708.7 0 -799849 69961.6 0 -795292 71175.8 0 -790597 72346.7 0 -785764 73469.5 0 -780790 74539.5 0 -775676 75551.9 0 -770421 76501.6 0 -765026 77383.8 0 -759490 78193.4 0 -753815 78925.5 0 -748000 79575.2 0 -742047 80137.4 0 -735957 80607.4 0 -729731 80980.5 0 -723372 81251.9 0 -716880 81417.1 0 -710258 81471.6 0 -703508 81411.3 0 -696631 81231.9 0 -689631 80929.4 0 -682509 80500 0 -675267 79940 0 -667908 79245.8 0 -660434 78413.9 0 -652847 77440.9 0 -645148 76323.7 0 -637339 75059 0 -629421 73643.5 0 -621396 72074.1 0 -613263 70347.5 0 -605024 68460.3 0 -596677 66408.8 0 -588221 64189.3 0 -579656 61797.5 0 -570979 59228.9 0 -562186 56478.2 0 -553274 53539.5 0 -544238 50406.3 0 -535071 47070.7 0 -525765 43523.7 0 -516311 39754.7 0 -506698 35751.3 0 -496912 31498.6 0 -486937 26979 0 -476753 22171.1 0 -466335 17048.8 0 -455655 11580.2 0 -444677 5725.81 0 -433356 -564.157 0 -421635 -7353.88 0 -409439 -14724.5 0 -396677 -22792.8 0 -383202 -31689.9 0 -368862 -41696.8 0 -353283 -52936.3 0 -336220 -66478.1 0 -316395 -81694.1 0 -292852 -103886 0 -259182 -129012 0 -194196 -180489 0 -907193 -0.0111072 0 -907180 630.404 0 -907140 1261.58 0 -907072 1894.28 0 -906978 2529.28 0 -906856 3167.32 0 -906707 3809.18 0 -906531 4455.62 0 -906326 5107.38 0 -906094 5765.24 0 -905833 6429.93 0 -905543 7102.22 0 -905224 7782.86 0 -904874 8472.59 0 -904495 9172.15 0 -904085 9882.29 0 -903643 10603.7 0 -903169 11337.2 0 -902663 12083.5 0 -902122 12843.2 0 -901548 13617.1 0 -900937 14405.8 0 -900291 15210.1 0 -899608 16030.6 0 -898886 16868 0 -898125 17722.9 0 -897323 18596 0 -896480 19487.7 0 -895594 20398.8 0 -894663 21329.6 0 -893686 22280.9 0 -892662 23252.9 0 -891590 24246.3 0 -890466 25261.3 0 -889291 26298.4 0 -888062 27357.9 0 -886776 28439.9 0 -885433 29544.8 0 -884030 30672.7 0 -882565 31823.6 0 -881036 32997.5 0 -879441 34194.4 0 -877777 35414.1 0 -876042 36656.3 0 -874234 37920.7 0 -872350 39206.7 0 -870386 40513.9 0 -868342 41841.5 0 -866214 43188.7 0 -863999 44554.5 0 -861694 45937.8 0 -859297 47337.4 0 -856804 48751.8 0 -854214 50179.4 0 -851522 51618.6 0 -848726 53067.3 0 -845822 54523.6 0 -842809 55985 0 -839684 57449.1 0 -836442 58913.2 0 -833082 60374.5 0 -829601 61829.8 0 -825996 63276 0 -822265 64709.5 0 -818405 66126.7 0 -814415 67523.8 0 -810291 68896.8 0 -806033 70241.5 0 -801639 71553.5 0 -797106 72828.5 0 -792434 74061.6 0 -787621 75248.4 0 -782667 76383.8 0 -777572 77463 0 -772334 78481.1 0 -766954 79432.9 0 -761431 80313.5 0 -755767 81117.9 0 -749962 81840.9 0 -744018 82477.7 0 -737934 83023.3 0 -731712 83472.8 0 -725355 83821.7 0 -718864 84065.2 0 -712240 84198.9 0 -705486 84218.5 0 -698604 84119.7 0 -691596 83898.6 0 -684465 83551.3 0 -677212 83074 0 -669840 82463.3 0 -662351 81715.7 0 -654748 80827.9 0 -647031 79796.7 0 -639202 78619 0 -631264 77291.8 0 -623216 75812 0 -615060 74176.5 0 -606796 72382.2 0 -598423 70425.8 0 -589941 68303.9 0 -581348 66012.5 0 -572642 63547.6 0 -563819 60904.6 0 -554877 58078.3 0 -545809 55062.7 0 -536609 51851 0 -527270 48435.2 0 -517781 44806.2 0 -508133 40952.8 0 -498310 36862.3 0 -488296 32519.2 0 -478072 27905 0 -467612 22997.3 0 -456888 17768.7 0 -445862 12185.7 0 -434488 6206.44 0 -422711 -222.458 0 -410452 -7167.26 0 -397618 -14721.7 0 -384065 -22990.1 0 -369621 -32176.3 0 -353958 -42408.8 0 -336727 -54287.4 0 -316917 -67797 0 -293449 -84876 0 -261773 -105367 0 -212665 -130475 0 -907714 -0.0112482 0 -907701 639.545 0 -907662 1279.87 0 -907596 1921.74 0 -907503 2565.94 0 -907384 3213.22 0 -907239 3864.37 0 -907066 4520.15 0 -906866 5181.33 0 -906638 5848.68 0 -906382 6522.97 0 -906098 7204.95 0 -905786 7895.39 0 -905444 8595.05 0 -905072 9304.68 0 -904671 10025 0 -904238 10756.9 0 -903774 11500.9 0 -903277 12257.9 0 -902748 13028.6 0 -902184 13813.7 0 -901587 14613.9 0 -900953 15429.9 0 -900283 16262.4 0 -899575 17112.1 0 -898829 17979.6 0 -898043 18865.6 0 -897215 19770.7 0 -896346 20695.4 0 -895432 21640.4 0 -894474 22606.2 0 -893469 23593.4 0 -892415 24602.2 0 -891312 25633.3 0 -890157 26687.1 0 -888949 27763.7 0 -887686 28863.6 0 -886366 29987.1 0 -884986 31134.1 0 -883545 32305 0 -882041 33499.7 0 -880471 34718.1 0 -878833 35960.2 0 -877125 37225.7 0 -875344 38514.3 0 -873487 39825.7 0 -871552 41159.1 0 -869536 42514.1 0 -867437 43889.8 0 -865252 45285.3 0 -862977 46699.6 0 -860611 48131.4 0 -858149 49579.3 0 -855589 51041.9 0 -852928 52517.4 0 -850164 54003.9 0 -847292 55499.4 0 -844310 57001.6 0 -841216 58508.1 0 -838006 60016.3 0 -834677 61523.2 0 -831226 63025.8 0 -827652 64521 0 -823951 66005.2 0 -820120 67474.8 0 -816158 68926.1 0 -812063 70354.9 0 -807832 71757.1 0 -803463 73128.3 0 -798955 74464.1 0 -794306 75759.8 0 -789516 77010.7 0 -784583 78211.8 0 -779507 79358.3 0 -774287 80445 0 -768923 81466.9 0 -763416 82418.9 0 -757765 83296 0 -751971 84092.9 0 -746035 84804.7 0 -739959 85426.4 0 -733742 85953.2 0 -727388 86380.1 0 -720898 86702.6 0 -714274 86916 0 -707517 87016.1 0 -700631 86998.6 0 -693616 86859.5 0 -686476 86594.8 0 -679213 86200.9 0 -671830 85674.2 0 -664327 85011.3 0 -656708 84209 0 -648974 83264.3 0 -641128 82173.9 0 -633170 80935.2 0 -625101 79545.1 0 -616923 78000.9 0 -608635 76299.5 0 -600238 74438 0 -591730 72413.3 0 -583111 70221.9 0 -574378 67860.1 0 -565528 65324 0 -556557 62608.8 0 -547460 59709.5 0 -538231 56620.1 0 -528862 53333.6 0 -519344 49842 0 -509664 46135.8 0 -499810 42203.9 0 -489765 38033 0 -479509 33607.3 0 -469017 28907.7 0 -458261 23911.2 0 -447202 18589.6 0 -435796 12908.3 0 -423985 6823.71 0 -411696 282.528 0 -398831 -6787.93 0 -385256 -14470.5 0 -370794 -22905.1 0 -355156 -32208.5 0 -337966 -42703.5 0 -318452 -54514.7 0 -295475 -68338.4 0 -266442 -84249.1 0 -226343 -100455 0 -908244 -0.0113859 0 -908231 648.452 0 -908193 1297.69 0 -908128 1948.5 0 -908038 2601.66 0 -907921 3257.95 0 -907779 3918.15 0 -907610 4583.04 0 -907414 5253.4 0 -907191 5930 0 -906941 6613.63 0 -906663 7305.05 0 -906357 8005.05 0 -906023 8714.39 0 -905659 9433.84 0 -905266 10164.2 0 -904842 10906.1 0 -904387 11660.5 0 -903901 12428 0 -903383 13209.4 0 -902831 14005.4 0 -902245 14816.8 0 -901625 15644.2 0 -900968 16488.4 0 -900275 17350.1 0 -899543 18229.9 0 -898772 19128.6 0 -897961 20046.7 0 -897108 20984.8 0 -896212 21943.6 0 -895272 22923.7 0 -894286 23925.5 0 -893252 24949.6 0 -892169 25996.5 0 -891035 27066.5 0 -889849 28160 0 -888608 29277.5 0 -887311 30419 0 -885955 31585 0 -884539 32775.4 0 -883059 33990.5 0 -881515 35230.1 0 -879904 36494.2 0 -878222 37782.7 0 -876468 39095.3 0 -874640 40431.5 0 -872734 41790.9 0 -870747 43172.9 0 -868678 44576.8 0 -866523 46001.7 0 -864279 47446.5 0 -861943 48910.2 0 -859513 50391.3 0 -856985 51888.5 0 -854356 53400 0 -851624 54924.1 0 -848784 56458.6 0 -845835 58001.4 0 -842773 59550.1 0 -839595 61102.1 0 -836298 62654.5 0 -832879 64204.3 0 -829336 65748.3 0 -825666 67283.1 0 -821865 68805.1 0 -817933 70310.4 0 -813866 71795.1 0 -809663 73254.8 0 -805321 74685.4 0 -800839 76082.2 0 -796216 77440.7 0 -791449 78755.9 0 -786538 80023 0 -781483 81236.9 0 -776282 82392.7 0 -770936 83485 0 -765444 84508.9 0 -759807 85459.1 0 -754025 86330.5 0 -748100 87117.9 0 -742031 87816.3 0 -735822 88420.8 0 -729472 88926.4 0 -722984 89328.4 0 -716360 89622.3 0 -709602 89803.6 0 -702712 89868 0 -695692 89811.4 0 -688544 89630 0 -681272 89320 0 -673877 88877.8 0 -666362 88300.2 0 -658729 87583.9 0 -650979 86725.9 0 -643115 85723.3 0 -635138 84573.3 0 -627050 83273.1 0 -618850 81820.1 0 -610541 80211.6 0 -602120 78444.8 0 -593589 76516.9 0 -584945 74425 0 -576187 72165.7 0 -567311 69735.5 0 -558314 67130.4 0 -549191 64346 0 -539936 61377.1 0 -530540 58217.8 0 -520996 54861.1 0 -511290 51299 0 -501411 47522 0 -491341 43518.8 0 -481060 39276.1 0 -470545 34777.9 0 -459767 30005 0 -448689 24934.3 0 -437267 19537.6 0 -425444 13780 0 -413149 7619.54 0 -400289 1001.2 0 -386736 -6138.3 0 -372320 -13892.7 0 -356786 -22351.8 0 -339777 -31684.6 0 -320683 -41997.3 0 -298545 -53470.7 0 -271604 -66074.9 0 -236834 -77927.2 0 -908783 -0.0115201 0 -908770 657.123 0 -908732 1315.04 0 -908669 1974.55 0 -908581 2636.44 0 -908467 3301.49 0 -908328 3970.5 0 -908162 4644.26 0 -907971 5323.55 0 -907753 6009.16 0 -907508 6701.89 0 -907237 7402.51 0 -906937 8111.82 0 -906610 8830.58 0 -906254 9559.6 0 -905870 10299.6 0 -905455 11051.5 0 -905010 11815.9 0 -904535 12593.6 0 -904027 13385.4 0 -903487 14192.1 0 -902914 15014.3 0 -902306 15852.9 0 -901663 16708.6 0 -900984 17581.9 0 -900267 18473.8 0 -899512 19384.8 0 -898717 20315.6 0 -897882 21266.8 0 -897003 22239.2 0 -896082 23233.2 0 -895114 24249.4 0 -894100 25288.4 0 -893038 26350.6 0 -891925 27436.6 0 -890761 28546.6 0 -889543 29681.2 0 -888268 30840.6 0 -886937 32025.1 0 -885545 33234.7 0 -884091 34469.8 0 -882573 35730.3 0 -880988 37016.1 0 -879334 38327.1 0 -877608 39663.2 0 -875808 41024 0 -873932 42409 0 -871975 43817.7 0 -869936 45249.4 0 -867812 46703.2 0 -865599 48178.3 0 -863295 49673.5 0 -860897 51187.6 0 -858401 52719 0 -855805 54266.3 0 -853105 55827.5 0 -850299 57400.8 0 -847383 58984 0 -844354 60574.6 0 -841209 62170.1 0 -837945 63767.8 0 -834558 65364.6 0 -831048 66957.4 0 -827409 68542.7 0 -823640 70116.9 0 -819739 71676.3 0 -815702 73216.8 0 -811528 74734.2 0 -807214 76224.2 0 -802759 77682.2 0 -798162 79103.5 0 -793420 80483.3 0 -788533 81816.6 0 -783499 83098.4 0 -778318 84323.5 0 -772991 85486.7 0 -767516 86582.9 0 -761894 87606.8 0 -756126 88553.1 0 -750212 89416.6 0 -744153 90192.3 0 -737950 90875.1 0 -731606 91460 0 -725122 91942.2 0 -718499 92317.1 0 -711740 92580.2 0 -704847 92727.1 0 -697823 92753.8 0 -690669 92656.2 0 -683388 92430.7 0 -675984 92073.7 0 -668456 91581.8 0 -660810 90952 0 -653045 90181.2 0 -645165 89266.6 0 -637170 88205.5 0 -629063 86995.4 0 -620843 85633.7 0 -612513 84117.9 0 -604071 82445.7 0 -595517 80614.3 0 -586850 78621.3 0 -578068 76463.8 0 -569169 74138.6 0 -560148 71642.5 0 -551001 68971.5 0 -541722 66121.3 0 -532303 63086.9 0 -522736 59862.5 0 -513008 56441.3 0 -503108 52815.3 0 -493019 48975.2 0 -482721 44909.8 0 -472191 40606.1 0 -461400 36048.3 0 -450314 31217.8 0 -438889 26092 0 -427072 20643.8 0 -414793 14840.9 0 -401965 8642.87 0 -388468 2003.64 0 -374145 -5137.38 0 -358770 -12840.7 0 -342025 -21187.2 0 -323417 -30228.3 0 -302178 -39939.5 0 -277123 -50132.2 0 -246249 -59338.4 0 -909330 -0.0116494 0 -909318 665.556 0 -909281 1331.92 0 -909219 1999.89 0 -909133 2670.26 0 -909022 3343.84 0 -908885 4021.42 0 -908724 4703.8 0 -908537 5391.78 0 -908324 6086.16 0 -908085 6787.73 0 -907819 7497.3 0 -907527 8215.66 0 -907207 8943.6 0 -906859 9681.92 0 -906483 10431.4 0 -906078 11192.8 0 -905643 11967 0 -905177 12754.7 0 -904681 13556.7 0 -904153 14373.7 0 -903592 15206.6 0 -902997 16056 0 -902368 16922.8 0 -901703 17807.6 0 -901002 18711.1 0 -900262 19634.2 0 -899484 20577.4 0 -898665 21541.4 0 -897805 22526.9 0 -896902 23534.5 0 -895954 24564.8 0 -894960 25618.3 0 -893918 26695.6 0 -892827 27797.2 0 -891684 28923.4 0 -890489 30074.8 0 -889239 31251.7 0 -887931 32454.2 0 -886564 33682.8 0 -885136 34937.5 0 -883644 36218.4 0 -882087 37525.5 0 -880460 38858.8 0 -878763 40218 0 -876992 41602.9 0 -875145 43013.1 0 -873219 44448.1 0 -871211 45907.2 0 -869118 47389.7 0 -866937 48894.7 0 -864665 50421.1 0 -862300 51967.7 0 -859837 53533.1 0 -857274 55115.7 0 -854608 56713.9 0 -851836 58325.6 0 -848954 59948.8 0 -845958 61581.1 0 -842847 63220 0 -839617 64862.7 0 -836265 66506.3 0 -832787 68147.7 0 -829181 69783.4 0 -825445 71409.8 0 -821575 73023.2 0 -817570 74619.6 0 -813426 76194.7 0 -809141 77744.1 0 -804715 79263.4 0 -800144 80747.7 0 -795428 82192.2 0 -790566 83592 0 -785555 84941.9 0 -780396 86236.8 0 -775088 87471.3 0 -769632 88640.2 0 -764026 89738.1 0 -758272 90759.9 0 -752371 91700.1 0 -746322 92553.6 0 -740129 93315.3 0 -733791 93980.1 0 -727311 94543.2 0 -720691 94999.8 0 -713932 95345.4 0 -707038 95575.5 0 -700010 95686 0 -692851 95672.9 0 -685563 95532.5 0 -678148 95261.2 0 -670610 94855.6 0 -662951 94312.7 0 -655172 93629.5 0 -647277 92803.3 0 -639265 91831.4 0 -631140 90711.5 0 -622901 89441.2 0 -614551 88018.1 0 -606088 86440.2 0 -597513 84705 0 -588825 82810.4 0 -580021 80753.9 0 -571100 78532.8 0 -562057 76144.3 0 -552888 73585.3 0 -543588 70852 0 -534149 67940.4 0 -524562 64845.6 0 -514816 61562 0 -504899 58083.1 0 -494796 54401.3 0 -484486 50507.6 0 -473948 46391.3 0 -463153 42039.9 0 -452069 37438.7 0 -440654 32570.2 0 -428856 27413.9 0 -416611 21945.7 0 -403835 16137.2 0 -390420 9956.78 0 -376223 3367.77 0 -361044 -3664.2 0 -344608 -11168.6 0 -326515 -19145.9 0 -306162 -27489.3 0 -282704 -35936.5 0 -254832 -43339.2 0 -909886 -0.0117764 0 -909874 673.748 0 -909838 1348.31 0 -909778 2024.5 0 -909693 2703.12 0 -909585 3384.97 0 -909452 4070.88 0 -909294 4761.64 0 -909111 5458.06 0 -908903 6160.96 0 -908670 6871.13 0 -908410 7589.4 0 -908125 8316.55 0 -907812 9053.41 0 -907472 9800.77 0 -907105 10559.4 0 -906709 11330.2 0 -906284 12113.9 0 -905829 12911.3 0 -905344 13723.1 0 -904828 14550.3 0 -904279 15393.4 0 -903698 16253.4 0 -903082 17131 0 -902432 18026.9 0 -901746 18941.9 0 -901022 19876.7 0 -900260 20832 0 -899459 21808.5 0 -898617 22806.8 0 -897732 23827.7 0 -896804 24871.7 0 -895830 25939.4 0 -894809 27031.4 0 -893740 28148.2 0 -892620 29290.3 0 -891447 30458.1 0 -890221 31652 0 -888938 32872.4 0 -887596 34119.4 0 -886194 35393.4 0 -884729 36694.4 0 -883199 38022.4 0 -881601 39377.5 0 -879932 40759.5 0 -878191 42168.1 0 -876374 43603.1 0 -874479 45064 0 -872502 46550.2 0 -870441 48060.9 0 -868292 49595.4 0 -866054 51152.6 0 -863721 52731.4 0 -861293 54330.4 0 -858764 55948.1 0 -856132 57582.8 0 -853395 59232.6 0 -850547 60895.5 0 -847587 62569.2 0 -844510 64251.2 0 -841315 65938.8 0 -837997 67629 0 -834554 69318.8 0 -830982 71004.7 0 -827279 72683.3 0 -823442 74350.6 0 -819469 76002.8 0 -815356 77635.5 0 -811103 79244.5 0 -806706 80825.1 0 -802163 82372.6 0 -797474 83882.1 0 -792637 85348.6 0 -787651 86766.9 0 -782515 88131.8 0 -777229 89438 0 -771791 90680 0 -766203 91852.6 0 -760465 92950.3 0 -754577 93967.7 0 -748541 94899.6 0 -742357 95740.9 0 -736027 96486.2 0 -729553 97130.8 0 -722936 97669.7 0 -716179 98098.4 0 -709284 98412.4 0 -702253 98607.4 0 -695089 98679.5 0 -687795 98624.8 0 -680372 98439.7 0 -672824 98121 0 -665153 97665.5 0 -657361 97070.4 0 -649451 96332.9 0 -641424 95450.5 0 -633281 94421 0 -625025 93242.1 0 -616656 91911.7 0 -608174 90427.8 0 -599579 88788.5 0 -590870 86991.8 0 -582046 85035.5 0 -573104 82917.6 0 -564041 80635.6 0 -554852 78187 0 -545533 75568.8 0 -536076 72777.7 0 -526472 69809.7 0 -516712 66660.5 0 -506782 63324.8 0 -496668 59796.6 0 -486352 56068.6 0 -475812 52132.7 0 -465020 47979.1 0 -453946 43596.5 0 -442550 38971.9 0 -430784 34090.3 0 -418585 28934.8 0 -405879 23486.4 0 -392566 17725.6 0 -378516 11633 0 -363557 5194.95 0 -347451 -1586.52 0 -329874 -8676.89 0 -310355 -15936.7 0 -288284 -23084.8 0 -262765 -29223.7 0 -910450 -0.0119012 0 -910438 681.698 0 -910403 1364.22 0 -910344 2048.38 0 -910262 2735 0 -910156 3424.9 0 -910026 4118.88 0 -909872 4817.77 0 -909694 5522.39 0 -909491 6233.55 0 -909263 6952.08 0 -909010 7678.78 0 -908731 8414.48 0 -908426 9159.99 0 -908094 9916.13 0 -907735 10683.7 0 -907349 11463.5 0 -906934 12256.5 0 -906490 13063.2 0 -906016 13884.7 0 -905511 14721.6 0 -904975 15574.8 0 -904407 16445.1 0 -903806 17333.2 0 -903170 18239.9 0 -902499 19166 0 -901792 20112.2 0 -901047 21079.3 0 -900263 22067.9 0 -899439 23078.8 0 -898573 24112.6 0 -897664 25169.9 0 -896711 26251.5 0 -895711 27357.9 0 -894663 28489.6 0 -893566 29647.1 0 -892417 30831 0 -891215 32041.6 0 -889957 33279.4 0 -888641 34544.5 0 -887265 35837.3 0 -885827 37157.9 0 -884325 38506.5 0 -882755 39883 0 -881116 41287.4 0 -879405 42719.4 0 -877618 44178.8 0 -875754 45665.1 0 -873809 47178 0 -871781 48716.6 0 -869665 50280.1 0 -867460 51867.8 0 -865162 53478.3 0 -862768 55110.5 0 -860274 56762.9 0 -857677 58433.8 0 -854975 60121.4 0 -852163 61823.8 0 -849238 63538.6 0 -846198 65263.4 0 -843038 66995.6 0 -839756 68732.2 0 -836348 70470.2 0 -832811 72206.2 0 -829143 73936.7 0 -825340 75657.9 0 -821400 77365.8 0 -817320 79056.2 0 -813098 80724.8 0 -808731 82366.8 0 -804219 83977.7 0 -799558 85552.3 0 -794748 87085.7 0 -789788 88572.7 0 -784676 90008 0 -779411 91386.1 0 -773995 92701.7 0 -768426 93949.3 0 -762705 95123.5 0 -756832 96218.7 0 -750808 97229.6 0 -744635 98151 0 -738314 98977.5 0 -731846 99704.3 0 -725234 100326 0 -718480 100839 0 -711585 101237 0 -704553 101517 0 -697385 101675 0 -690085 101707 0 -682656 101609 0 -675098 101377 0 -667417 101010 0 -659613 100503 0 -651688 99854.9 0 -643646 99062.3 0 -635488 98123.3 0 -627214 97035.9 0 -618827 95798.2 0 -610327 94408.3 0 -601713 92864.5 0 -592984 91165.1 0 -584141 89308.4 0 -575180 87292.6 0 -566098 85115.9 0 -556892 82776.2 0 -547555 80271.3 0 -538083 77598.4 0 -528465 74754.6 0 -518693 71736.4 0 -508754 68540 0 -498634 65160.5 0 -488315 61592.6 0 -477778 57830.1 0 -466996 53865.7 0 -455939 49691.3 0 -444570 45297.5 0 -432843 40674.1 0 -420703 35810.1 0 -408079 30694.3 0 -394880 25316.5 0 -380993 19670.2 0 -366265 13757.2 0 -350497 7598.94 0 -333421 1251.18 0 -314672 -5137.94 0 -293798 -11297.5 0 -270180 -16516.8 0 -911022 -0.0120232 0 -911010 689.404 0 -910976 1379.64 0 -910919 2071.53 0 -910839 2765.91 0 -910735 3463.59 0 -910609 4165.41 0 -910459 4872.18 0 -910285 5584.74 0 -910087 6303.92 0 -909865 7030.53 0 -909618 7765.42 0 -909346 8509.4 0 -909048 9263.3 0 -908725 10028 0 -908375 10804.2 0 -907997 11592.8 0 -907592 12394.7 0 -907159 13210.6 0 -906696 14041.4 0 -906204 14887.8 0 -905681 15750.8 0 -905126 16631 0 -904539 17529.3 0 -903918 18446.5 0 -903262 19383.4 0 -902571 20340.7 0 -901843 21319.2 0 -901076 22319.6 0 -900271 23342.7 0 -899424 24389.1 0 -898535 25459.5 0 -897602 26554.5 0 -896624 27674.9 0 -895598 28821.1 0 -894524 29993.8 0 -893398 31193.3 0 -892220 32420.3 0 -890987 33675 0 -889697 34957.8 0 -888348 36269.1 0 -886938 37609 0 -885464 38977.7 0 -883923 40375.2 0 -882314 41801.5 0 -880633 43256.4 0 -878877 44739.8 0 -877045 46251.2 0 -875132 47790.3 0 -873137 49356.3 0 -871055 50948.6 0 -868884 52566.2 0 -866621 54208.1 0 -864262 55873.1 0 -861804 57559.8 0 -859243 59266.6 0 -856577 60991.7 0 -853801 62733.1 0 -850913 64488.7 0 -847909 66256.1 0 -844786 68032.5 0 -841540 69815.3 0 -838169 71601.3 0 -834668 73387.2 0 -831035 75169.5 0 -827268 76944.5 0 -823362 78708.1 0 -819316 80456.1 0 -815127 82184.3 0 -810792 83887.8 0 -806310 85562.1 0 -801680 87202.1 0 -796898 88802.6 0 -791964 90358.6 0 -786877 91864.5 0 -781637 93315 0 -776242 94704.6 0 -770693 96027.7 0 -764990 97278.8 0 -759134 98452.4 0 -753124 99542.9 0 -746963 100545 0 -740652 101453 0 -734192 102263 0 -727586 102969 0 -720835 103566 0 -713942 104049 0 -706909 104415 0 -699739 104660 0 -692435 104778 0 -684998 104768 0 -677433 104624 0 -669741 104345 0 -661926 103928 0 -653989 103369 0 -645933 102666 0 -637759 101818 0 -629469 100822 0 -621065 99677.2 0 -612547 98381.1 0 -603915 96932.4 0 -595169 95329.9 0 -586307 93572.1 0 -577328 91657.6 0 -568229 89584.9 0 -559006 87352.7 0 -549655 84959 0 -540168 82402.2 0 -530539 79679.8 0 -520757 76789.5 0 -510812 73728.4 0 -500689 70493 0 -490372 67079.5 0 -479842 63483.6 0 -469074 59700.1 0 -458039 55723.6 0 -446704 51548 0 -435025 47167 0 -422951 42574.6 0 -410418 37765.6 0 -397343 32737.3 0 -383626 27492.6 0 -369135 22044.1 0 -353701 16425.1 0 -337105 10702.9 0 -319059 5022.83 0 -299225 -367.241 0 -277164 -4900.11 0 -911602 -0.0121396 0 -911591 696.863 0 -911557 1394.57 0 -911501 2093.94 0 -911423 2795.83 0 -911323 3501.05 0 -911199 4210.45 0 -911053 4924.85 0 -910884 5645.11 0 -910691 6372.04 0 -910474 7106.49 0 -910234 7849.29 0 -909969 8601.29 0 -909679 9363.32 0 -909363 10136.2 0 -909022 10920.8 0 -908654 11718 0 -908259 12528.5 0 -907837 13353.3 0 -907386 14193.1 0 -906905 15048.7 0 -906395 15921.1 0 -905853 16811 0 -905280 17719.3 0 -904674 18646.7 0 -904034 19594 0 -903359 20562.1 0 -902648 21551.7 0 -901899 22563.6 0 -901112 23598.5 0 -900285 24657.1 0 -899416 25740.2 0 -898503 26848.4 0 -897547 27982.4 0 -896543 29142.8 0 -895492 30330.1 0 -894390 31545 0 -893237 32787.8 0 -892029 34059.1 0 -890766 35359.3 0 -889444 36688.6 0 -888061 38047.3 0 -886616 39435.7 0 -885104 40853.8 0 -883525 42301.6 0 -881875 43779 0 -880151 45286 0 -878351 46822 0 -876471 48386.9 0 -874509 49979.9 0 -872462 51600.5 0 -870326 53247.7 0 -868098 54920.6 0 -865775 56618 0 -863353 58338.6 0 -860829 60080.8 0 -858199 61843 0 -855461 63623.1 0 -852611 65419.2 0 -849644 67228.7 0 -846559 69049.2 0 -843351 70877.9 0 -840016 72711.7 0 -836553 74547.3 0 -832957 76381.2 0 -829225 78209.8 0 -825355 80029 0 -821344 81834.7 0 -817189 83622.4 0 -812888 85387.5 0 -808438 87125.3 0 -803838 88830.7 0 -799086 90498.6 0 -794181 92123.8 0 -789121 93700.7 0 -783905 95224 0 -778534 96687.9 0 -773006 98087 0 -767323 99415.5 0 -761484 100668 0 -755490 101839 0 -749342 102922 0 -743042 103913 0 -736592 104806 0 -729992 105596 0 -723246 106278 0 -716355 106848 0 -709323 107301 0 -702151 107632 0 -694843 107839 0 -687401 107916 0 -679828 107861 0 -672128 107671 0 -664302 107343 0 -656353 106874 0 -648283 106262 0 -640095 105505 0 -631790 104601 0 -623369 103548 0 -614835 102346 0 -606186 100992 0 -597422 99485.9 0 -588544 97826.3 0 -579548 96012.1 0 -570433 94042.4 0 -561195 91916.1 0 -551830 89632 0 -542331 87188.9 0 -532692 84585.3 0 -522903 81819.7 0 -512954 78890 0 -502831 75794.1 0 -492519 72529.5 0 -481999 69093.5 0 -471250 65482.9 0 -460242 61694.5 0 -448946 57725 0 -437321 53571.5 0 -425319 49231.8 0 -412882 44705.8 0 -399937 39996.5 0 -386395 35113.3 0 -372141 30076.6 0 -357032 24926.4 0 -340888 19734.7 0 -323482 14638.9 0 -304556 9859.95 0 -283793 5854.41 0 -912190 -0.0122534 0 -912179 704.074 0 -912146 1409 0 -912092 2115.61 0 -912016 2824.75 0 -911918 3537.26 0 -911798 4253.99 0 -911656 4975.78 0 -911491 5703.46 0 -911303 6437.9 0 -911092 7179.92 0 -910858 7930.39 0 -910600 8690.14 0 -910317 9460.03 0 -910010 10240.9 0 -909678 11033.6 0 -909319 11839 0 -908935 12657.9 0 -908523 13491.2 0 -908083 14339.8 0 -907615 15204.4 0 -907117 16085.9 0 -906589 16985.2 0 -906030 17903 0 -905439 18840.3 0 -904815 19797.8 0 -904156 20776.3 0 -903462 21776.7 0 -902732 22799.7 0 -901963 23846.1 0 -901155 24916.6 0 -900306 26012 0 -899415 27133 0 -898480 28280.2 0 -897499 29454.4 0 -896471 30656 0 -895393 31885.8 0 -894265 33144.2 0 -893083 34431.7 0 -891846 35748.7 0 -890551 37095.6 0 -889197 38472.8 0 -887780 39880.4 0 -886299 41318.6 0 -884750 42787.5 0 -883131 44287 0 -881439 45817.1 0 -879672 47377.3 0 -877826 48967.5 0 -875898 50587.1 0 -873885 52235.5 0 -871785 53911.9 0 -869593 55615.3 0 -867306 57344.7 0 -864921 59098.8 0 -862435 60876.1 0 -859843 62674.9 0 -857143 64493.4 0 -854331 66329.6 0 -851403 68181 0 -848356 70045.2 0 -845186 71919.5 0 -841890 73800.7 0 -838465 75685.8 0 -834907 77571.2 0 -831213 79453.3 0 -827380 81328 0 -823405 83191.2 0 -819285 85038.4 0 -815018 86865.2 0 -810602 88666.5 0 -806034 90437.5 0 -801313 92173 0 -796437 93867.6 0 -791405 95515.8 0 -786216 97112.1 0 -780870 98650.8 0 -775365 100126 0 -769702 101533 0 -763882 102865 0 -757905 104116 0 -751772 105282 0 -745484 106356 0 -739044 107333 0 -732452 108208 0 -725712 108976 0 -718825 109633 0 -711794 110173 0 -704621 110592 0 -697311 110887 0 -689864 111053 0 -682285 111088 0 -674576 110987 0 -666740 110749 0 -658780 110370 0 -650698 109849 0 -642496 109183 0 -634176 108371 0 -625741 107411 0 -617190 106302 0 -608525 105043 0 -599745 103633 0 -590850 102071 0 -581839 100356 0 -572709 98488.1 0 -563457 96466.3 0 -554080 94290 0 -544570 91958.5 0 -534923 89471.1 0 -525129 86826.9 0 -515177 84024.9 0 -505057 81064.1 0 -494753 77943 0 -484247 74660.4 0 -473519 71214.9 0 -462543 67605.2 0 -451289 63830.3 0 -439721 59890.2 0 -427795 55785.8 0 -415459 51520.8 0 -402647 47102.7 0 -389280 42545.6 0 -375259 37874.8 0 -360464 33133.9 0 -344744 28395.4 0 -327919 23786.5 0 -309791 19501.5 0 -290124 15911.2 0 -912785 -0.012363 0 -912774 711.035 0 -912743 1422.93 0 -912690 2136.52 0 -912616 2852.67 0 -912521 3572.22 0 -912404 4296.02 0 -912266 5024.93 0 -912105 5759.8 0 -911923 6501.47 0 -911718 7250.81 0 -911490 8008.67 0 -911239 8775.92 0 -910964 9553.39 0 -910665 10342 0 -910341 11142.5 0 -909993 11955.9 0 -909618 12782.9 0 -909217 13624.5 0 -908789 14481.4 0 -908333 15354.7 0 -907848 16245 0 -907334 17153.4 0 -906789 18080.5 0 -906213 19027.4 0 -905605 19994.7 0 -904963 20983.3 0 -904286 21994.1 0 -903573 23027.9 0 -902823 24085.4 0 -902035 25167.5 0 -901206 26274.8 0 -900336 27408.2 0 -899423 28568.3 0 -898465 29755.8 0 -897460 30971.4 0 -896407 32215.7 0 -895304 33489.2 0 -894148 34792.4 0 -892938 36125.9 0 -891671 37490.1 0 -890345 38885.2 0 -888957 40311.7 0 -887506 41769.6 0 -885988 43259.1 0 -884401 44780.2 0 -882741 46332.9 0 -881007 47916.9 0 -879195 49532 0 -877302 51177.7 0 -875325 52853.4 0 -873260 54558.5 0 -871105 56292 0 -868855 58052.9 0 -866508 59840 0 -864060 61652 0 -861507 63487.1 0 -858846 65343.5 0 -856073 67219.4 0 -853185 69112.4 0 -850177 71020 0 -847047 72939.5 0 -843791 74868 0 -840404 76802.3 0 -836885 78739 0 -833230 80674.3 0 -829435 82604.4 0 -825497 84525 0 -821414 86431.8 0 -817183 88320.1 0 -812802 90185.1 0 -808268 92021.9 0 -803579 93825 0 -798734 95589.2 0 -793731 97309 0 -788570 98978.7 0 -783249 100593 0 -777769 102145 0 -772128 103630 0 -766328 105042 0 -760369 106374 0 -754252 107623 0 -747978 108780 0 -741549 109843 0 -734967 110804 0 -728233 111658 0 -721351 112402 0 -714322 113030 0 -707150 113538 0 -699838 113922 0 -692388 114178 0 -684803 114303 0 -677087 114292 0 -669242 114145 0 -661271 113857 0 -653177 113427 0 -644962 112853 0 -636629 112133 0 -628179 111266 0 -619613 110250 0 -610932 109085 0 -602137 107771 0 -593226 106305 0 -584201 104689 0 -575057 102922 0 -565792 101003 0 -556403 98932.9 0 -546885 96710.9 0 -537231 94337.2 0 -527433 91811.4 0 -517481 89133.5 0 -507365 86303.2 0 -497071 83320.5 0 -486581 80185.1 0 -475877 76897.3 0 -464935 73457.3 0 -453726 69866.2 0 -442219 66126.2 0 -430373 62240.9 0 -418139 58216.9 0 -405461 54064.8 0 -392268 49802.3 0 -378474 45457.5 0 -363977 41075.4 0 -348654 36726.9 0 -332357 32527.8 0 -314933 28648.4 0 -296205 25392.6 0 -913388 -0.0124691 0 -913378 717.744 0 -913347 1436.35 0 -913296 2156.68 0 -913224 2879.58 0 -913131 3605.91 0 -913018 43