<?xml version="1.0"?> 
<VTKFile type="StructuredGrid" version="0.1"> 
<StructuredGrid WholeExtent="0 127 0 127 0 0"> 
<Piece Extent="0 127 0 127 0 0"> 
<PointData>
<DataArray type="Float32" Name="E" format="ascii" NumberOfComponents="3"> 
-743910 1.01328e-05 0 -743909 336.643 0 -743907 673.285 0 -743903 1009.93 0 -743897 1346.56 0 -743889 1683.2 0 -743880 2019.83 0 -743870 2356.46 0 -743857 2693.08 0 -743843 3029.7 0 -743828 3366.31 0 -743811 3702.92 0 -743792 4039.51 0 -743771 4376.1 0 -743749 4712.68 0 -743725 5049.25 0 -743700 5385.81 0 -743672 5722.36 0 -743644 6058.9 0 -743613 6395.42 0 -743581 6731.93 0 -743547 7068.43 0 -743512 7404.91 0 -743475 7741.38 0 -743436 8077.83 0 -743396 8414.27 0 -743354 8750.68 0 -743311 9087.08 0 -743266 9423.46 0 -743219 9759.82 0 -743170 10096.2 0 -743120 10432.5 0 -743068 10768.8 0 -743015 11105.1 0 -742960 11441.3 0 -742903 11777.5 0 -742845 12113.8 0 -742785 12449.9 0 -742723 12786.1 0 -742660 13122.2 0 -742595 13458.3 0 -742528 13794.4 0 -742460 14130.4 0 -742390 14466.5 0 -742319 14802.4 0 -742245 15138.4 0 -742171 15474.3 0 -742094 15810.2 0 -742016 16146.1 0 -741936 16481.9 0 -741855 16817.7 0 -741772 17153.4 0 -741687 17489.2 0 -741601 17824.9 0 -741513 18160.5 0 -741423 18496.1 0 -741332 18831.7 0 -741239 19167.2 0 -741145 19502.7 0 -741048 19838.2 0 -740951 20173.6 0 -740851 20509 0 -740750 20844.3 0 -740647 21179.6 0 -740543 21514.8 0 -740437 21850 0 -740329 22185.2 0 -740220 22520.3 0 -740109 22855.3 0 -739996 23190.3 0 -739882 23525.3 0 -739766 23860.2 0 -739648 24195.1 0 -739529 24529.9 0 -739408 24864.7 0 -739286 25199.4 0 -739162 25534 0 -739036 25868.6 0 -738909 26203.2 0 -738780 26537.7 0 -738649 26872.1 0 -738516 27206.5 0 -738382 27540.9 0 -738247 27875.1 0 -738109 28209.3 0 -737971 28543.5 0 -737830 28877.6 0 -737688 29211.6 0 -737544 29545.6 0 -737398 29879.5 0 -737251 30213.4 0 -737102 30547.2 0 -736952 30880.9 0 -736800 31214.6 0 -736646 31548.2 0 -736491 31881.7 0 -736334 32215.2 0 -736175 32548.6 0 -736015 32881.9 0 -735853 33215.2 0 -735689 33548.4 0 -735524 33881.5 0 -735357 34214.5 0 -735188 34547.5 0 -735018 34880.4 0 -734846 35213.3 0 -734673 35546 0 -734498 35878.7 0 -734321 36211.3 0 -734142 36543.9 0 -733962 36876.3 0 -733781 37208.7 0 -733597 37541 0 -733412 37873.3 0 -733226 38205.4 0 -733037 38537.5 0 -732847 38869.5 0 -732656 39201.4 0 -732463 39533.3 0 -732268 39865 0 -732071 40196.7 0 -731873 40528.3 0 -731673 40859.8 0 -731472 41191.2 0 -731269 41522.5 0 -731064 41853.8 0 -730858 42185.1 0 -730650 42516.4 0 -748730 9.98409e-06 0 -748729 348.234 0 -748727 696.468 0 -748723 1044.7 0 -748717 1392.93 0 -748709 1741.16 0 -748700 2089.38 0 -748690 2437.6 0 -748677 2785.82 0 -748663 3134.02 0 -748647 3482.23 0 -748630 3830.42 0 -748611 4178.61 0 -748591 4526.79 0 -748568 4874.96 0 -748544 5223.13 0 -748519 5571.28 0 -748492 5919.42 0 -748463 6267.55 0 -748432 6615.66 0 -748400 6963.77 0 -748366 7311.85 0 -748331 7659.93 0 -748293 8007.99 0 -748255 8356.03 0 -748214 8704.06 0 -748172 9052.07 0 -748128 9400.06 0 -748083 9748.03 0 -748036 10096 0 -747987 10443.9 0 -747937 10791.8 0 -747885 11139.7 0 -747831 11487.6 0 -747776 11835.4 0 -747719 12183.3 0 -747660 12531.1 0 -747600 12878.8 0 -747538 13226.6 0 -747475 13574.3 0 -747410 13922 0 -747343 14269.7 0 -747274 14617.3 0 -747204 14964.9 0 -747132 15312.5 0 -747059 15660 0 -746984 16007.6 0 -746907 16355 0 -746829 16702.5 0 -746749 17049.9 0 -746667 17397.3 0 -746583 17744.7 0 -746498 18092 0 -746412 18439.3 0 -746324 18786.5 0 -746234 19133.7 0 -746142 19480.9 0 -746049 19828 0 -745954 20175.1 0 -745857 20522.1 0 -745759 20869.2 0 -745659 21216.1 0 -745558 21563 0 -745454 21909.9 0 -745350 22256.8 0 -745243 22603.6 0 -745135 22950.3 0 -745025 23297 0 -744914 23643.7 0 -744801 23990.3 0 -744686 24336.8 0 -744570 24683.3 0 -744452 25029.8 0 -744332 25376.2 0 -744211 25722.6 0 -744088 26068.9 0 -743963 26415.1 0 -743837 26761.3 0 -743709 27107.5 0 -743579 27453.6 0 -743448 27799.6 0 -743315 28145.6 0 -743181 28491.5 0 -743044 28837.4 0 -742907 29183.2 0 -742767 29529 0 -742626 29874.7 0 -742483 30220.3 0 -742339 30565.9 0 -742193 30911.4 0 -742045 31256.9 0 -741895 31602.3 0 -741744 31947.6 0 -741592 32292.8 0 -741437 32638 0 -741281 32983.2 0 -741124 33328.2 0 -740964 33673.2 0 -740803 34018.2 0 -740641 34363 0 -740476 34707.8 0 -740311 35052.5 0 -740143 35397.2 0 -739974 35741.8 0 -739803 36086.3 0 -739630 36430.7 0 -739456 36775.1 0 -739280 37119.4 0 -739103 37463.6 0 -738924 37807.7 0 -738743 38151.8 0 -738560 38495.8 0 -738376 38839.7 0 -738191 39183.5 0 -738003 39527.3 0 -737814 39871 0 -737624 40214.6 0 -737431 40558.1 0 -737237 40901.5 0 -737042 41244.9 0 -736844 41588.1 0 -736645 41931.3 0 -736445 42274.4 0 -736242 42617.4 0 -736039 42960.3 0 -735833 43303.2 0 -735626 43645.9 0 -735417 43988.5 0 -753713 1.00446e-05 0 -753713 359.871 0 -753710 719.742 0 -753706 1079.61 0 -753700 1439.48 0 -753693 1799.34 0 -753684 2159.2 0 -753673 2519.06 0 -753660 2878.91 0 -753646 3238.76 0 -753631 3598.6 0 -753613 3958.43 0 -753594 4318.26 0 -753573 4678.08 0 -753551 5037.88 0 -753527 5397.68 0 -753501 5757.47 0 -753474 6117.25 0 -753445 6477.02 0 -753414 6836.77 0 -753382 7196.51 0 -753348 7556.24 0 -753313 7915.95 0 -753275 8275.65 0 -753236 8635.33 0 -753196 8994.99 0 -753153 9354.64 0 -753110 9714.27 0 -753064 10073.9 0 -753017 10433.5 0 -752968 10793 0 -752917 11152.6 0 -752865 11512.1 0 -752811 11871.6 0 -752756 12231.1 0 -752699 12590.6 0 -752640 12950 0 -752579 13309.4 0 -752517 13668.8 0 -752453 14028.2 0 -752388 14387.5 0 -752321 14746.8 0 -752252 15106.1 0 -752182 15465.3 0 -752110 15824.6 0 -752036 16183.8 0 -751960 16542.9 0 -751883 16902 0 -751805 17261.1 0 -751724 17620.2 0 -751642 17979.2 0 -751559 18338.2 0 -751473 18697.2 0 -751386 19056.1 0 -751298 19415 0 -751207 19773.8 0 -751115 20132.6 0 -751022 20491.4 0 -750926 20850.1 0 -750829 21208.8 0 -750731 21567.5 0 -750631 21926.1 0 -750529 22284.6 0 -750425 22643.2 0 -750320 23001.6 0 -750213 23360.1 0 -750104 23718.5 0 -749994 24076.8 0 -749882 24435.1 0 -749769 24793.4 0 -749654 25151.6 0 -749537 25509.7 0 -749418 25867.8 0 -749298 26225.9 0 -749176 26583.9 0 -749053 26941.8 0 -748928 27299.7 0 -748801 27657.6 0 -748673 28015.4 0 -748542 28373.1 0 -748411 28730.8 0 -748277 29088.4 0 -748142 29446 0 -748005 29803.5 0 -747867 30161 0 -747727 30518.4 0 -747585 30875.7 0 -747442 31233 0 -747297 31590.2 0 -747150 31947.4 0 -747002 32304.5 0 -746852 32661.5 0 -746700 33018.5 0 -746547 33375.4 0 -746392 33732.2 0 -746235 34089 0 -746077 34445.7 0 -745917 34802.4 0 -745756 35158.9 0 -745592 35515.4 0 -745427 35871.9 0 -745261 36228.3 0 -745093 36584.6 0 -744923 36940.8 0 -744751 37296.9 0 -744578 37653 0 -744403 38009 0 -744227 38365 0 -744048 38720.8 0 -743868 39076.6 0 -743687 39432.3 0 -743504 39788 0 -743319 40143.5 0 -743133 40499 0 -742944 40854.4 0 -742755 41209.7 0 -742563 41565 0 -742370 41920.1 0 -742175 42275.2 0 -741979 42630.2 0 -741781 42985.1 0 -741581 43339.9 0 -741380 43694.7 0 -741177 44049.3 0 -740972 44403.9 0 -740766 44758.4 0 -740558 45112.8 0 -740348 45467.2 0 -758861 9.95673e-06 0 -758860 371.554 0 -758858 743.107 0 -758854 1114.66 0 -758848 1486.21 0 -758840 1857.76 0 -758831 2229.3 0 -758820 2600.84 0 -758808 2972.37 0 -758794 3343.9 0 -758778 3715.42 0 -758760 4086.94 0 -758741 4458.45 0 -758721 4829.95 0 -758698 5201.44 0 -758674 5572.92 0 -758648 5944.39 0 -758621 6315.86 0 -758592 6687.3 0 -758561 7058.74 0 -758528 7430.16 0 -758494 7801.57 0 -758459 8172.97 0 -758421 8544.35 0 -758382 8915.71 0 -758341 9287.06 0 -758299 9658.39 0 -758255 10029.7 0 -758209 10401 0 -758162 10772.3 0 -758113 11143.5 0 -758062 11514.8 0 -758009 11886 0 -757955 12257.2 0 -757900 12628.3 0 -757842 12999.5 0 -757783 13370.6 0 -757722 13741.7 0 -757660 14112.8 0 -757596 14483.8 0 -757530 14854.8 0 -757463 15225.8 0 -757394 15596.8 0 -757323 15967.7 0 -757251 16338.6 0 -757177 16709.5 0 -757101 17080.4 0 -757024 17451.2 0 -756945 17821.9 0 -756864 18192.7 0 -756782 18563.4 0 -756698 18934.1 0 -756612 19304.7 0 -756525 19675.3 0 -756436 20045.9 0 -756345 20416.4 0 -756253 20786.9 0 -756159 21157.4 0 -756063 21527.8 0 -755966 21898.2 0 -755867 22268.5 0 -755766 22638.8 0 -755664 23009.1 0 -755560 23379.3 0 -755454 23749.4 0 -755347 24119.6 0 -755238 24489.7 0 -755127 24859.7 0 -755015 25229.7 0 -754901 25599.6 0 -754785 25969.5 0 -754668 26339.3 0 -754549 26709.1 0 -754428 27078.9 0 -754306 27448.6 0 -754182 27818.2 0 -754057 28187.8 0 -753929 28557.3 0 -753800 28926.8 0 -753670 29296.3 0 -753538 29665.6 0 -753404 30035 0 -753268 30404.2 0 -753131 30773.4 0 -752992 31142.6 0 -752851 31511.7 0 -752709 31880.7 0 -752565 32249.7 0 -752419 32618.6 0 -752272 32987.4 0 -752123 33356.2 0 -751973 33724.9 0 -751820 34093.6 0 -751667 34462.2 0 -751511 34830.7 0 -751354 35199.2 0 -751195 35567.6 0 -751034 35935.9 0 -750872 36304.2 0 -750708 36672.4 0 -750542 37040.5 0 -750375 37408.6 0 -750206 37776.6 0 -750036 38144.5 0 -749864 38512.4 0 -749690 38880.1 0 -749514 39247.8 0 -749337 39615.5 0 -749158 39983 0 -748977 40350.5 0 -748795 40717.9 0 -748611 41085.2 0 -748426 41452.5 0 -748239 41819.7 0 -748050 42186.7 0 -747859 42553.8 0 -747667 42920.7 0 -747473 43287.5 0 -747278 43654.3 0 -747080 44021 0 -746882 44387.6 0 -746681 44754.1 0 -746479 45120.6 0 -746275 45486.9 0 -746069 45853.2 0 -745862 46219.3 0 -745653 46585.4 0 -745443 46951.4 0 -764173 9.89926e-06 0 -764173 383.281 0 -764170 766.562 0 -764166 1149.84 0 -764160 1533.12 0 -764153 1916.39 0 -764143 2299.67 0 -764132 2682.93 0 -764120 3066.19 0 -764106 3449.45 0 -764090 3832.7 0 -764072 4215.95 0 -764053 4599.18 0 -764032 4982.41 0 -764010 5365.63 0 -763986 5748.84 0 -763960 6132.04 0 -763932 6515.23 0 -763903 6898.41 0 -763872 7281.57 0 -763839 7664.72 0 -763805 8047.86 0 -763769 8430.99 0 -763732 8814.09 0 -763692 9197.19 0 -763652 9580.27 0 -763609 9963.33 0 -763565 10346.4 0 -763519 10729.4 0 -763471 11112.4 0 -763422 11495.4 0 -763371 11878.3 0 -763318 12261.3 0 -763264 12644.2 0 -763208 13027.1 0 -763151 13410 0 -763091 13792.8 0 -763030 14175.7 0 -762968 14558.5 0 -762903 14941.2 0 -762838 15324 0 -762770 15706.7 0 -762701 16089.4 0 -762630 16472.1 0 -762557 16854.7 0 -762483 17237.3 0 -762407 17619.9 0 -762329 18002.4 0 -762250 18384.9 0 -762169 18767.4 0 -762086 19149.9 0 -762002 19532.3 0 -761916 19914.7 0 -761828 20297 0 -761739 20679.3 0 -761648 21061.6 0 -761555 21443.8 0 -761461 21826 0 -761365 22208.1 0 -761267 22590.2 0 -761167 22972.3 0 -761066 23354.3 0 -760964 23736.3 0 -760859 24118.3 0 -760753 24500.2 0 -760646 24882 0 -760536 25263.8 0 -760425 25645.6 0 -760312 26027.3 0 -760198 26409 0 -760082 26790.6 0 -759964 27172.2 0 -759845 27553.7 0 -759724 27935.2 0 -759601 28316.6 0 -759476 28698 0 -759350 29079.4 0 -759223 29460.6 0 -759093 29841.8 0 -758962 30223 0 -758829 30604.1 0 -758695 30985.2 0 -758559 31366.2 0 -758421 31747.1 0 -758281 32128 0 -758140 32508.8 0 -757997 32889.6 0 -757853 33270.3 0 -757707 33651 0 -757559 34031.6 0 -757409 34412.1 0 -757258 34792.6 0 -757105 35173 0 -756951 35553.3 0 -756795 35933.6 0 -756637 36313.8 0 -756477 36693.9 0 -756316 37074 0 -756153 37454 0 -755989 37833.9 0 -755822 38213.8 0 -755655 38593.6 0 -755485 38973.3 0 -755314 39353 0 -755141 39732.6 0 -754966 40112.1 0 -754790 40491.5 0 -754612 40870.9 0 -754433 41250.2 0 -754251 41629.4 0 -754068 42008.6 0 -753884 42387.6 0 -753697 42766.6 0 -753510 43145.5 0 -753320 43524.3 0 -753129 43903.1 0 -752936 44281.8 0 -752741 44660.4 0 -752545 45038.9 0 -752347 45417.3 0 -752147 45795.6 0 -751946 46173.9 0 -751743 46552.1 0 -751538 46930.1 0 -751332 47308.1 0 -751124 47686.1 0 -750914 48063.9 0 -750703 48441.6 0 -769651 9.84233e-06 0 -769650 395.054 0 -769648 790.108 0 -769644 1185.16 0 -769638 1580.21 0 -769630 1975.26 0 -769621 2370.3 0 -769610 2765.34 0 -769597 3160.38 0 -769583 3555.41 0 -769567 3950.43 0 -769550 4345.45 0 -769530 4740.46 0 -769509 5135.46 0 -769487 5530.45 0 -769462 5925.43 0 -769437 6320.41 0 -769409 6715.37 0 -769380 7110.32 0 -769349 7505.26 0 -769316 7900.18 0 -769281 8295.09 0 -769245 8689.99 0 -769208 9084.87 0 -769168 9479.74 0 -769127 9874.59 0 -769085 10269.4 0 -769040 10664.2 0 -768994 11059 0 -768946 11453.8 0 -768897 11848.6 0 -768846 12243.3 0 -768793 12638 0 -768738 13032.7 0 -768682 13427.4 0 -768624 13822.1 0 -768565 14216.7 0 -768504 14611.3 0 -768441 15005.9 0 -768376 15400.4 0 -768310 15794.9 0 -768242 16189.4 0 -768173 16583.9 0 -768101 16978.4 0 -768028 17372.8 0 -767954 17767.1 0 -767878 18161.5 0 -767800 18555.8 0 -767720 18950.1 0 -767639 19344.4 0 -767556 19738.6 0 -767471 20132.8 0 -767385 20526.9 0 -767297 20921 0 -767207 21315.1 0 -767116 21709.2 0 -767023 22103.2 0 -766928 22497.1 0 -766831 22891.1 0 -766733 23285 0 -766634 23678.8 0 -766532 24072.6 0 -766429 24466.4 0 -766324 24860.1 0 -766218 25253.8 0 -766110 25647.4 0 -766000 26041 0 -765888 26434.6 0 -765775 26828.1 0 -765660 27221.5 0 -765544 27614.9 0 -765426 28008.3 0 -765306 28401.6 0 -765184 28794.9 0 -765061 29188.1 0 -764936 29581.3 0 -764809 29974.4 0 -764681 30367.4 0 -764551 30760.4 0 -764420 31153.4 0 -764286 31546.3 0 -764151 31939.1 0 -764015 32331.9 0 -763876 32724.6 0 -763736 33117.3 0 -763595 33509.9 0 -763451 33902.5 0 -763306 34295 0 -763160 34687.4 0 -763011 35079.8 0 -762861 35472.1 0 -762709 35864.3 0 -762556 36256.5 0 -762401 36648.6 0 -762244 37040.7 0 -762085 37432.7 0 -761925 37824.6 0 -761763 38216.5 0 -761600 38608.3 0 -761435 39000 0 -761268 39391.7 0 -761099 39783.2 0 -760929 40174.8 0 -760757 40566.2 0 -760584 40957.6 0 -760408 41348.9 0 -760231 41740.1 0 -760053 42131.3 0 -759873 42522.3 0 -759691 42913.3 0 -759507 43304.3 0 -759322 43695.1 0 -759135 44085.9 0 -758946 44476.6 0 -758756 44867.2 0 -758564 45257.7 0 -758370 45648.2 0 -758174 46038.6 0 -757977 46428.9 0 -757779 46819.1 0 -757578 47209.2 0 -757376 47599.2 0 -757172 47989.2 0 -756967 48379.1 0 -756760 48768.8 0 -756551 49158.5 0 -756340 49548.1 0 -756128 49937.7 0 -775295 9.78593e-06 0 -775294 406.871 0 -775291 813.742 0 -775287 1220.61 0 -775281 1627.48 0 -775274 2034.34 0 -775264 2441.2 0 -775254 2848.06 0 -775241 3254.91 0 -775227 3661.76 0 -775211 4068.6 0 -775193 4475.44 0 -775174 4882.26 0 -775153 5289.08 0 -775130 5695.89 0 -775105 6102.69 0 -775079 6509.49 0 -775052 6916.27 0 -775022 7323.03 0 -774991 7729.79 0 -774958 8136.53 0 -774924 8543.26 0 -774888 8949.98 0 -774850 9356.68 0 -774810 9763.37 0 -774769 10170 0 -774726 10576.7 0 -774681 10983.3 0 -774635 11389.9 0 -774587 11796.5 0 -774538 12203.1 0 -774486 12609.7 0 -774433 13016.2 0 -774379 13422.7 0 -774322 13829.2 0 -774264 14235.7 0 -774204 14642.1 0 -774143 15048.6 0 -774080 15455 0 -774015 15861.3 0 -773949 16267.7 0 -773881 16674 0 -773811 17080.3 0 -773739 17486.6 0 -773666 17892.8 0 -773591 18299 0 -773515 18705.2 0 -773436 19111.3 0 -773356 19517.4 0 -773275 19923.5 0 -773191 20329.6 0 -773106 20735.6 0 -773020 21141.5 0 -772931 21547.5 0 -772841 21953.4 0 -772750 22359.3 0 -772656 22765.1 0 -772561 23170.9 0 -772464 23576.6 0 -772366 23982.4 0 -772266 24388 0 -772164 24793.7 0 -772061 25199.3 0 -771955 25604.8 0 -771849 26010.3 0 -771740 26415.8 0 -771630 26821.2 0 -771518 27226.6 0 -771404 27631.9 0 -771289 28037.2 0 -771172 28442.4 0 -771053 28847.6 0 -770933 29252.8 0 -770811 29657.9 0 -770687 30062.9 0 -770562 30467.9 0 -770435 30872.8 0 -770306 31277.7 0 -770176 31682.5 0 -770043 32087.3 0 -769910 32492.1 0 -769774 32896.7 0 -769637 33301.3 0 -769498 33705.9 0 -769357 34110.4 0 -769215 34514.8 0 -769071 34919.2 0 -768926 35323.6 0 -768778 35727.8 0 -768629 36132 0 -768479 36536.2 0 -768326 36940.3 0 -768172 37344.3 0 -768017 37748.2 0 -767859 38152.1 0 -767700 38555.9 0 -767539 38959.7 0 -767377 39363.4 0 -767213 39767 0 -767047 40170.6 0 -766879 40574.1 0 -766710 40977.5 0 -766539 41380.8 0 -766367 41784.1 0 -766193 42187.3 0 -766017 42590.5 0 -765839 42993.5 0 -765660 43396.5 0 -765479 43799.4 0 -765296 44202.3 0 -765112 44605 0 -764926 45007.7 0 -764738 45410.3 0 -764548 45812.9 0 -764357 46215.3 0 -764165 46617.7 0 -763970 47020 0 -763774 47422.2 0 -763576 47824.3 0 -763377 48226.3 0 -763175 48628.3 0 -762972 49030.2 0 -762768 49432 0 -762562 49833.7 0 -762354 50235.3 0 -762144 50636.8 0 -761933 51038.3 0 -761720 51439.6 0 -781105 9.70031e-06 0 -781104 418.733 0 -781102 837.465 0 -781097 1256.2 0 -781092 1674.92 0 -781084 2093.65 0 -781075 2512.37 0 -781064 2931.09 0 -781051 3349.81 0 -781037 3768.52 0 -781021 4187.22 0 -781003 4605.92 0 -780983 5024.6 0 -780962 5443.29 0 -780940 5861.96 0 -780915 6280.62 0 -780889 6699.27 0 -780861 7117.92 0 -780831 7536.55 0 -780800 7955.17 0 -780767 8373.77 0 -780733 8792.37 0 -780696 9210.95 0 -780658 9629.51 0 -780619 10048.1 0 -780577 10466.6 0 -780534 10885.1 0 -780489 11303.6 0 -780443 11722.1 0 -780395 12140.6 0 -780345 12559 0 -780294 12977.4 0 -780240 13395.8 0 -780185 13814.2 0 -780129 14232.6 0 -780071 14650.9 0 -780011 15069.2 0 -779949 15487.5 0 -779886 15905.8 0 -779821 16324 0 -779754 16742.2 0 -779686 17160.4 0 -779615 17578.6 0 -779544 17996.7 0 -779470 18414.8 0 -779395 18832.9 0 -779318 19250.9 0 -779240 19668.9 0 -779159 20086.9 0 -779078 20504.8 0 -778994 20922.8 0 -778909 21340.6 0 -778822 21758.5 0 -778733 22176.3 0 -778643 22594.1 0 -778550 23011.8 0 -778457 23429.5 0 -778361 23847.2 0 -778264 24264.8 0 -778165 24682.4 0 -778065 25099.9 0 -777963 25517.4 0 -777859 25934.9 0 -777753 26352.3 0 -777646 26769.7 0 -777537 27187.1 0 -777426 27604.4 0 -777314 28021.6 0 -777200 28438.8 0 -777084 28856 0 -776967 29273.1 0 -776848 29690.1 0 -776727 30107.2 0 -776604 30524.1 0 -776480 30941 0 -776354 31357.9 0 -776227 31774.7 0 -776098 32191.5 0 -775967 32608.2 0 -775834 33024.8 0 -775700 33441.4 0 -775564 33858 0 -775426 34274.5 0 -775286 34690.9 0 -775145 35107.3 0 -775003 35523.6 0 -774858 35939.9 0 -774712 36356.1 0 -774564 36772.2 0 -774415 37188.3 0 -774263 37604.4 0 -774110 38020.3 0 -773956 38436.2 0 -773799 38852.1 0 -773641 39267.8 0 -773482 39683.5 0 -773320 40099.2 0 -773157 40514.8 0 -772993 40930.3 0 -772826 41345.7 0 -772658 41761.1 0 -772488 42176.4 0 -772317 42591.6 0 -772143 43006.8 0 -771968 43421.9 0 -771792 43836.9 0 -771613 44251.8 0 -771433 44666.7 0 -771252 45081.5 0 -771068 45496.2 0 -770883 45910.9 0 -770696 46325.4 0 -770508 46739.9 0 -770318 47154.3 0 -770126 47568.7 0 -769932 47982.9 0 -769737 48397.1 0 -769540 48811.2 0 -769342 49225.2 0 -769141 49639.1 0 -768939 50053 0 -768736 50466.7 0 -768530 50880.4 0 -768323 51294 0 -768114 51707.5 0 -767904 52120.9 0 -767692 52534.2 0 -767478 52947.4 0 -787083 9.64478e-06 0 -787082 430.638 0 -787079 861.276 0 -787075 1291.91 0 -787069 1722.55 0 -787061 2153.18 0 -787052 2583.81 0 -787041 3014.43 0 -787028 3445.05 0 -787014 3875.67 0 -786998 4306.27 0 -786980 4736.88 0 -786961 5167.47 0 -786939 5598.06 0 -786916 6028.64 0 -786892 6459.21 0 -786866 6889.77 0 -786838 7320.31 0 -786808 7750.85 0 -786777 8181.38 0 -786744 8611.89 0 -786709 9042.39 0 -786672 9472.88 0 -786634 9903.35 0 -786594 10333.8 0 -786553 10764.2 0 -786510 11194.7 0 -786465 11625.1 0 -786418 12055.5 0 -786370 12485.8 0 -786320 12916.2 0 -786268 13346.5 0 -786215 13776.8 0 -786160 14207.1 0 -786103 14637.4 0 -786044 15067.6 0 -785984 15497.9 0 -785922 15928.1 0 -785859 16358.2 0 -785793 16788.4 0 -785727 17218.5 0 -785658 17648.6 0 -785588 18078.7 0 -785515 18508.7 0 -785442 18938.7 0 -785366 19368.7 0 -785289 19798.7 0 -785210 20228.6 0 -785130 20658.5 0 -785048 21088.4 0 -784964 21518.2 0 -784878 21948 0 -784791 22377.7 0 -784702 22807.5 0 -784611 23237.2 0 -784519 23666.8 0 -784425 24096.4 0 -784329 24526 0 -784231 24955.5 0 -784132 25385.1 0 -784031 25814.5 0 -783929 26243.9 0 -783824 26673.3 0 -783718 27102.7 0 -783611 27532 0 -783501 27961.2 0 -783390 28390.4 0 -783277 28819.6 0 -783163 29248.7 0 -783047 29677.8 0 -782929 30106.8 0 -782809 30535.8 0 -782688 30964.8 0 -782565 31393.6 0 -782441 31822.5 0 -782314 32251.3 0 -782186 32680 0 -782056 33108.7 0 -781925 33537.3 0 -781792 33965.9 0 -781657 34394.4 0 -781521 34822.9 0 -781382 35251.3 0 -781242 35679.7 0 -781101 36108 0 -780957 36536.3 0 -780812 36964.4 0 -780666 37392.6 0 -780517 37820.7 0 -780367 38248.7 0 -780215 38676.6 0 -780062 39104.5 0 -779907 39532.3 0 -779750 39960.1 0 -779591 40387.8 0 -779431 40815.4 0 -779269 41243 0 -779105 41670.5 0 -778940 42098 0 -778773 42525.3 0 -778604 42952.6 0 -778433 43379.9 0 -778261 43807 0 -778087 44234.1 0 -777912 44661.1 0 -777734 45088.1 0 -777555 45515 0 -777375 45941.8 0 -777192 46368.5 0 -777008 46795.2 0 -776822 47221.7 0 -776635 47648.2 0 -776446 48074.7 0 -776255 48501 0 -776062 48927.3 0 -775868 49353.5 0 -775672 49779.6 0 -775474 50205.6 0 -775275 50631.5 0 -775074 51057.4 0 -774871 51483.2 0 -774666 51908.9 0 -774460 52334.5 0 -774252 52760 0 -774043 53185.4 0 -773832 53610.8 0 -773619 54036 0 -773404 54461.2 0 -793228 9.50007e-06 0 -793227 442.587 0 -793225 885.173 0 -793220 1327.76 0 -793214 1770.34 0 -793207 2212.92 0 -793197 2655.5 0 -793186 3098.07 0 -793174 3540.64 0 -793159 3983.21 0 -793143 4425.76 0 -793125 4868.31 0 -793106 5310.86 0 -793084 5753.4 0 -793061 6195.92 0 -793037 6638.44 0 -793010 7080.95 0 -792982 7523.45 0 -792952 7965.94 0 -792921 8408.41 0 -792888 8850.88 0 -792853 9293.33 0 -792816 9735.77 0 -792778 10178.2 0 -792738 10620.6 0 -792696 11063 0 -792653 11505.4 0 -792608 11947.7 0 -792561 12390.1 0 -792513 12832.4 0 -792462 13274.7 0 -792411 13717 0 -792357 14159.2 0 -792302 14601.5 0 -792245 15043.7 0 -792186 15485.9 0 -792126 15928.1 0 -792064 16370.2 0 -792000 16812.4 0 -791934 17254.5 0 -791867 17696.6 0 -791798 18138.6 0 -791728 18580.6 0 -791655 19022.6 0 -791581 19464.6 0 -791505 19906.5 0 -791428 20348.5 0 -791349 20790.3 0 -791268 21232.2 0 -791186 21674 0 -791101 22115.8 0 -791015 22557.5 0 -790928 22999.3 0 -790838 23441 0 -790747 23882.6 0 -790655 24324.2 0 -790560 24765.8 0 -790464 25207.3 0 -790366 25648.8 0 -790267 26090.3 0 -790165 26531.7 0 -790062 26973.1 0 -789958 27414.5 0 -789851 27855.8 0 -789743 28297 0 -789634 28738.3 0 -789522 29179.4 0 -789409 29620.6 0 -789294 30061.7 0 -789177 30502.7 0 -789059 30943.7 0 -788939 31384.7 0 -788817 31825.6 0 -788694 32266.4 0 -788569 32707.2 0 -788442 33148 0 -788314 33588.7 0 -788183 34029.4 0 -788051 34470 0 -787918 34910.5 0 -787783 35351 0 -787645 35791.5 0 -787507 36231.9 0 -787366 36672.2 0 -787224 37112.5 0 -787080 37552.7 0 -786935 37992.9 0 -786787 38433 0 -786638 38873 0 -786488 39313 0 -786335 39752.9 0 -786181 40192.8 0 -786026 40632.6 0 -785868 41072.3 0 -785709 41512 0 -785548 41951.6 0 -785385 42391.2 0 -785221 42830.7 0 -785055 43270.1 0 -784887 43709.4 0 -784718 44148.7 0 -784547 44587.9 0 -784374 45027.1 0 -784199 45466.2 0 -784023 45905.2 0 -783845 46344.1 0 -783665 46783 0 -783484 47221.7 0 -783301 47660.5 0 -783116 48099.1 0 -782930 48537.7 0 -782741 48976.1 0 -782551 49414.5 0 -782360 49852.9 0 -782166 50291.1 0 -781971 50729.3 0 -781775 51167.4 0 -781576 51605.4 0 -781376 52043.3 0 -781174 52481.2 0 -780971 52918.9 0 -780765 53356.6 0 -780558 53794.2 0 -780350 54231.7 0 -780139 54669.1 0 -779927 55106.5 0 -779713 55543.7 0 -779498 55980.9 0 -799542 9.20705e-06 0 -799541 454.579 0 -799538 909.157 0 -799534 1363.73 0 -799528 1818.31 0 -799521 2272.88 0 -799511 2727.45 0 -799500 3182.01 0 -799487 3636.57 0 -799473 4091.13 0 -799457 4545.68 0 -799439 5000.22 0 -799419 5454.76 0 -799398 5909.29 0 -799375 6363.81 0 -799350 6818.32 0 -799323 7272.82 0 -799295 7727.31 0 -799265 8181.8 0 -799234 8636.26 0 -799200 9090.72 0 -799165 9545.17 0 -799129 9999.6 0 -799090 10454 0 -799050 10908.4 0 -799008 11362.8 0 -798965 11817.2 0 -798920 12271.5 0 -798873 12725.9 0 -798824 13180.2 0 -798774 13634.5 0 -798722 14088.8 0 -798668 14543 0 -798612 14997.3 0 -798555 15451.5 0 -798496 15905.7 0 -798436 16359.9 0 -798373 16814 0 -798309 17268.1 0 -798243 17722.2 0 -798176 18176.3 0 -798107 18630.4 0 -798036 19084.4 0 -797963 19538.4 0 -797889 19992.4 0 -797813 20446.3 0 -797735 20900.2 0 -797656 21354.1 0 -797575 21808 0 -797492 22261.8 0 -797408 22715.6 0 -797321 23169.3 0 -797233 23623.1 0 -797144 24076.7 0 -797052 24530.4 0 -796959 24984 0 -796865 25437.6 0 -796768 25891.2 0 -796670 26344.7 0 -796570 26798.1 0 -796468 27251.6 0 -796365 27705 0 -796260 28158.3 0 -796153 28611.7 0 -796045 29064.9 0 -795935 29518.2 0 -795823 29971.3 0 -795709 30424.5 0 -795594 30877.6 0 -795477 31330.7 0 -795358 31783.7 0 -795238 32236.6 0 -795115 32689.6 0 -794992 33142.4 0 -794866 33595.2 0 -794739 34048 0 -794610 34500.7 0 -794479 34953.4 0 -794347 35406 0 -794213 35858.6 0 -794077 36311.1 0 -793939 36763.6 0 -793800 37216 0 -793659 37668.4 0 -793516 38120.7 0 -793372 38572.9 0 -793226 39025.1 0 -793078 39477.2 0 -792928 39929.3 0 -792777 40381.3 0 -792624 40833.3 0 -792470 41285.2 0 -792313 41737 0 -792155 42188.8 0 -791995 42640.5 0 -791834 43092.1 0 -791671 43543.7 0 -791506 43995.2 0 -791339 44446.6 0 -791171 44898 0 -791001 45349.3 0 -790829 45800.6 0 -790655 46251.7 0 -790480 46702.9 0 -790303 47153.9 0 -790125 47604.9 0 -789944 48055.7 0 -789762 48506.6 0 -789578 48957.3 0 -789393 49408 0 -789206 49858.6 0 -789017 50309.1 0 -788826 50759.5 0 -788634 51209.9 0 -788440 51660.2 0 -788244 52110.4 0 -788046 52560.5 0 -787847 53010.6 0 -787646 53460.5 0 -787444 53910.4 0 -787239 54360.2 0 -787033 54809.9 0 -786825 55259.6 0 -786616 55709.1 0 -786405 56158.6 0 -786192 56607.9 0 -785977 57057.2 0 -785761 57506.4 0 -806025 9.0634e-06 0 -806024 466.612 0 -806021 933.224 0 -806017 1399.83 0 -806011 1866.44 0 -806003 2333.05 0 -805994 2799.65 0 -805983 3266.25 0 -805970 3732.84 0 -805955 4199.43 0 -805939 4666.02 0 -805921 5132.6 0 -805901 5599.17 0 -805880 6065.73 0 -805857 6532.29 0 -805832 6998.83 0 -805806 7465.37 0 -805777 7931.9 0 -805747 8398.41 0 -805716 8864.92 0 -805682 9331.41 0 -805647 9797.89 0 -805610 10264.4 0 -805572 10730.8 0 -805531 11197.3 0 -805489 11663.7 0 -805446 12130.1 0 -805400 12596.5 0 -805353 13062.8 0 -805304 13529.2 0 -805254 13995.5 0 -805202 14461.9 0 -805148 14928.2 0 -805092 15394.4 0 -805035 15860.7 0 -804975 16326.9 0 -804915 16793.2 0 -804852 17259.4 0 -804788 17725.5 0 -804722 18191.7 0 -804654 18657.8 0 -804585 19123.9 0 -804514 19590 0 -804441 20056 0 -804366 20522 0 -804290 20988 0 -804212 21454 0 -804132 21919.9 0 -804051 22385.8 0 -803968 22851.7 0 -803883 23317.5 0 -803797 23783.3 0 -803708 24249.1 0 -803618 24714.8 0 -803527 25180.5 0 -803433 25646.2 0 -803338 26111.8 0 -803241 26577.4 0 -803143 27043 0 -803042 27508.5 0 -802940 27974 0 -802837 28439.5 0 -802731 28904.9 0 -802624 29370.2 0 -802515 29835.6 0 -802405 30300.9 0 -802292 30766.1 0 -802178 31231.3 0 -802063 31696.5 0 -801945 32161.6 0 -801826 32626.7 0 -801705 33091.7 0 -801583 33556.7 0 -801458 34021.6 0 -801332 34486.5 0 -801205 34951.3 0 -801075 35416.1 0 -800944 35880.8 0 -800811 36345.5 0 -800677 36810.2 0 -800540 37274.7 0 -800402 37739.3 0 -800262 38203.8 0 -800121 38668.2 0 -799978 39132.5 0 -799833 39596.9 0 -799686 40061.1 0 -799538 40525.3 0 -799388 40989.5 0 -799236 41453.5 0 -799083 41917.6 0 -798927 42381.5 0 -798770 42845.4 0 -798612 43309.3 0 -798451 43773.1 0 -798289 44236.8 0 -798125 44700.4 0 -797960 45164 0 -797793 45627.6 0 -797624 46091 0 -797453 46554.4 0 -797280 47017.7 0 -797106 47481 0 -796930 47944.2 0 -796753 48407.3 0 -796574 48870.3 0 -796393 49333.3 0 -796210 49796.2 0 -796025 50259 0 -795839 50721.8 0 -795651 51184.5 0 -795462 51647.1 0 -795270 52109.6 0 -795077 52572.1 0 -794882 53034.4 0 -794686 53496.7 0 -794488 53959 0 -794288 54421.1 0 -794086 54883.1 0 -793883 55345.1 0 -793677 55807 0 -793471 56268.8 0 -793262 56730.5 0 -793052 57192.2 0 -792840 57653.7 0 -792626 58115.2 0 -792411 58576.6 0 -792193 59037.9 0 -812677 8.94931e-06 0 -812676 478.687 0 -812674 957.374 0 -812670 1436.06 0 -812664 1914.74 0 -812656 2393.42 0 -812646 2872.1 0 -812635 3350.78 0 -812622 3829.45 0 -812608 4308.11 0 -812591 4786.77 0 -812573 5265.42 0 -812554 5744.07 0 -812532 6222.71 0 -812509 6701.34 0 -812484 7179.96 0 -812457 7658.58 0 -812429 8137.18 0 -812399 8615.77 0 -812367 9094.36 0 -812334 9572.93 0 -812298 10051.5 0 -812261 10530 0 -812223 11008.6 0 -812182 11487.1 0 -812140 11965.6 0 -812096 12444.1 0 -812051 12922.5 0 -812004 13401 0 -811955 13879.4 0 -811904 14357.9 0 -811851 14836.3 0 -811797 15314.6 0 -811741 15793 0 -811684 16271.3 0 -811624 16749.7 0 -811563 17228 0 -811501 17706.2 0 -811436 18184.5 0 -811370 18662.7 0 -811302 19140.9 0 -811232 19619.1 0 -811161 20097.3 0 -811088 20575.4 0 -811013 21053.5 0 -810937 21531.6 0 -810858 22009.6 0 -810779 22487.6 0 -810697 22965.6 0 -810613 23443.6 0 -810528 23921.5 0 -810441 24399.4 0 -810353 24877.3 0 -810263 25355.1 0 -810171 25832.9 0 -810077 26310.7 0 -809981 26788.4 0 -809884 27266.1 0 -809785 27743.8 0 -809685 28221.4 0 -809582 28699 0 -809478 29176.5 0 -809373 29654 0 -809265 30131.5 0 -809156 30608.9 0 -809045 31086.3 0 -808932 31563.7 0 -808818 32041 0 -808702 32518.2 0 -808584 32995.5 0 -808464 33472.6 0 -808343 33949.8 0 -808220 34426.9 0 -808095 34903.9 0 -807969 35380.9 0 -807841 35857.8 0 -807711 36334.7 0 -807579 36811.6 0 -807446 37288.4 0 -807311 37765.1 0 -807174 38241.8 0 -807035 38718.5 0 -806895 39195.1 0 -806753 39671.6 0 -806609 40148.1 0 -806464 40624.5 0 -806317 41100.9 0 -806168 41577.2 0 -806017 42053.5 0 -805865 42529.7 0 -805711 43005.8 0 -805555 43481.9 0 -805398 43957.9 0 -805238 44433.9 0 -805077 44909.8 0 -804915 45385.6 0 -804750 45861.4 0 -804584 46337.1 0 -804416 46812.8 0 -804247 47288.4 0 -804075 47763.9 0 -803902 48239.4 0 -803727 48714.7 0 -803551 49190.1 0 -803373 49665.3 0 -803193 50140.5 0 -803011 50615.6 0 -802828 51090.6 0 -802642 51565.6 0 -802456 52040.5 0 -802267 52515.3 0 -802077 52990.1 0 -801885 53464.7 0 -801691 53939.3 0 -801495 54413.8 0 -801298 54888.3 0 -801099 55362.6 0 -800898 55836.9 0 -800696 56311.1 0 -800492 56785.2 0 -800286 57259.3 0 -800078 57733.2 0 -799869 58207.1 0 -799658 58680.9 0 -799445 59154.6 0 -799230 59628.2 0 -799014 60101.7 0 -798796 60575.1 0 -819500 8.71578e-06 0 -819499 490.802 0 -81949