<?xml version="1.0"?> 
<VTKFile type="StructuredGrid" version="0.1"> 
<StructuredGrid WholeExtent="0 127 0 127 0 0"> 
<Piece Extent="0 127 0 127 0 0"> 
<PointData>
<DataArray type="Float32" Name="E" format="ascii" NumberOfComponents="3"> 
-730650 399660 0 -728015 394961 0 -725398 390327 0 -722798 385756 0 -720216 381247 0 -717651 376800 0 -715104 372412 0 -712573 368082 0 -710059 363809 0 -707561 359592 0 -705080 355429 0 -702615 351319 0 -700167 347262 0 -697734 343256 0 -695317 339299 0 -692916 335391 0 -690530 331532 0 -688159 327719 0 -685804 323951 0 -683464 320229 0 -681138 316551 0 -678828 312916 0 -676532 309322 0 -674250 305771 0 -671983 302259 0 -669730 298788 0 -667492 295355 0 -665267 291960 0 -663057 288602 0 -660860 285281 0 -658677 281996 0 -656507 278746 0 -654351 275530 0 -652209 272348 0 -650080 269199 0 -647963 266083 0 -645860 262998 0 -643770 259944 0 -641693 256921 0 -639629 253928 0 -637577 250964 0 -635538 248029 0 -633511 245122 0 -631497 242243 0 -629495 239391 0 -627506 236566 0 -625529 233767 0 -623563 230993 0 -621610 228245 0 -619669 225521 0 -617740 222822 0 -615823 220146 0 -613917 217493 0 -612023 214863 0 -610141 212256 0 -608270 209670 0 -606411 207106 0 -604564 204563 0 -602727 202041 0 -600903 199539 0 -599089 197057 0 -597287 194594 0 -595496 192151 0 -593717 189726 0 -591948 187320 0 -590191 184931 0 -588445 182560 0 -586710 180207 0 -584986 177870 0 -583273 175550 0 -581571 173247 0 -579880 170959 0 -578201 168686 0 -576532 166429 0 -574875 164187 0 -573229 161959 0 -571594 159746 0 -569970 157546 0 -568357 155360 0 -566756 153187 0 -565166 151028 0 -563588 148880 0 -562021 146745 0 -560466 144622 0 -558922 142511 0 -557391 140411 0 -555872 138322 0 -554365 136244 0 -552870 134176 0 -551388 132118 0 -549919 130069 0 -548463 128030 0 -547021 126000 0 -545593 123979 0 -544179 121966 0 -542780 119961 0 -541396 117963 0 -540028 115973 0 -538676 113989 0 -537341 112012 0 -536025 110041 0 -534727 108075 0 -533449 106115 0 -532192 104159 0 -530958 102208 0 -529748 100260 0 -528563 98316.1 0 -527406 96374.8 0 -526279 94435.8 0 -525186 92498.8 0 -524128 90563.1 0 -523109 88628.2 0 -522135 86693.4 0 -521210 84758.2 0 -520341 82821.7 0 -519537 80883.4 0 -518806 78942.4 0 -518165 76998.4 0 -517631 75051.5 0 -517231 73103.5 0 -517003 71160.1 0 -517003 69230.9 0 -517313 67347.3 0 -518060 65548.2 0 -519434 63920.4 0 -521739 62778.5 0 -525416 61636.9 0 -530975 61187 0 -735417 413503 0 -732760 408739 0 -730120 404041 0 -727498 399407 0 -724894 394836 0 -722306 390327 0 -719736 385878 0 -717182 381487 0 -714645 377155 0 -712124 372878 0 -709620 368657 0 -707132 364490 0 -704660 360376 0 -702203 356313 0 -699763 352301 0 -697338 348338 0 -694928 344424 0 -692533 340557 0 -690154 336736 0 -687789 332961 0 -685440 329231 0 -683105 325544 0 -680784 321900 0 -678478 318298 0 -676187 314737 0 -673909 311216 0 -671646 307735 0 -669396 304292 0 -667161 300887 0 -664939 297519 0 -662731 294188 0 -660536 290892 0 -658354 287631 0 -656186 284404 0 -654031 281211 0 -651889 278051 0 -649760 274923 0 -647644 271826 0 -645541 268761 0 -643450 265727 0 -641372 262722 0 -639307 259746 0 -637254 256799 0 -635213 253881 0 -633184 250990 0 -631168 248126 0 -629163 245289 0 -627171 242477 0 -625191 239692 0 -623222 236931 0 -621265 234196 0 -619320 231484 0 -617387 228796 0 -615465 226131 0 -613554 223490 0 -611655 220870 0 -609768 218273 0 -607891 215697 0 -606026 213142 0 -604172 210608 0 -602329 208094 0 -600498 205600 0 -598677 203126 0 -596867 200671 0 -595068 198235 0 -593280 195817 0 -591503 193417 0 -589737 191035 0 -587982 188670 0 -586237 186322 0 -584503 183991 0 -582780 181676 0 -581067 179377 0 -579365 177094 0 -577674 174826 0 -575993 172573 0 -574323 170335 0 -572664 168111 0 -571015 165900 0 -569377 163704 0 -567749 161521 0 -566133 159351 0 -564527 157193 0 -562932 155048 0 -561348 152915 0 -559774 150793 0 -558212 148683 0 -556661 146584 0 -555121 144495 0 -553592 142417 0 -552075 140348 0 -550569 138290 0 -549075 136240 0 -547593 134199 0 -546124 132167 0 -544666 130143 0 -543221 128127 0 -541789 126117 0 -540371 124115 0 -538966 122119 0 -537575 120128 0 -536199 118143 0 -534838 116163 0 -533492 114187 0 -532163 112214 0 -530851 110244 0 -529557 108277 0 -528282 106310 0 -527027 104345 0 -525793 102379 0 -524582 100412 0 -523396 98442.1 0 -522236 96469 0 -521104 94491.2 0 -520002 92507.2 0 -518933 90515.6 0 -517899 88514.7 0 -516902 86502.8 0 -515946 84477.5 0 -515031 82436.2 0 -514160 80375.6 0 -513334 78291.2 0 -512553 76175.8 0 -511819 74022.8 0 -511130 71814.8 0 -510490 69530.3 0 -509916 67204.8 0 -509450 64725.1 0 -740348 427400 0 -737669 422572 0 -735007 417810 0 -732363 413114 0 -729736 408481 0 -727126 403911 0 -724533 399401 0 -721956 394951 0 -719397 390559 0 -716853 386225 0 -714326 381946 0 -711815 377721 0 -709319 373550 0 -706840 369431 0 -704375 365364 0 -701927 361346 0 -699494 357378 0 -697075 353457 0 -694672 349584 0 -692284 345756 0 -689910 341974 0 -687551 338236 0 -685207 334542 0 -682876 330890 0 -680560 327279 0 -678258 323710 0 -675971 320180 0 -673696 316689 0 -671436 313237 0 -669189 309822 0 -666956 306445 0 -664736 303103 0 -662530 299797 0 -660337 296526 0 -658156 293288 0 -655989 290085 0 -653835 286914 0 -651693 283775 0 -649564 280668 0 -647448 277592 0 -645344 274546 0 -643252 271530 0 -641173 268543 0 -639106 265585 0 -637052 262655 0 -635009 259752 0 -632978 256877 0 -630959 254028 0 -628952 251206 0 -626957 248409 0 -624973 245637 0 -623001 242889 0 -621040 240166 0 -619091 237467 0 -617153 234791 0 -615227 232137 0 -613311 229506 0 -611407 226898 0 -609514 224310 0 -607632 221744 0 -605760 219199 0 -603900 216674 0 -602051 214169 0 -600212 211684 0 -598384 209217 0 -596567 206770 0 -594760 204342 0 -592964 201931 0 -591179 199538 0 -589404 197163 0 -587639 194805 0 -585885 192463 0 -584141 190138 0 -582407 187829 0 -580684 185536 0 -578971 183258 0 -577269 180995 0 -575576 178747 0 -573894 176514 0 -572222 174294 0 -570560 172088 0 -568909 169896 0 -567267 167717 0 -565636 165551 0 -564015 163397 0 -562404 161255 0 -560803 159126 0 -559213 157007 0 -557633 154900 0 -556063 152804 0 -554503 150718 0 -552954 148643 0 -551416 146577 0 -549888 144520 0 -548371 142473 0 -546864 140434 0 -545369 138404 0 -543884 136381 0 -542411 134366 0 -540949 132358 0 -539499 130356 0 -538061 128360 0 -536634 126370 0 -535220 124385 0 -533818 122404 0 -532430 120427 0 -531054 118453 0 -529693 116481 0 -528346 114511 0 -527013 112542 0 -525696 110572 0 -524396 108601 0 -523112 106627 0 -521846 104649 0 -520600 102666 0 -519375 100675 0 -518172 98674.1 0 -516994 96660.8 0 -515843 94632.1 0 -514722 92584.2 0 -513634 90512.9 0 -512582 88412.9 0 -511571 86278.2 0 -510603 84100.4 0 -509680 81871.4 0 -508802 79578.2 0 -507962 77190.5 0 -507144 74712.1 0 -745443 441352 0 -742742 436460 0 -740058 431636 0 -737392 426878 0 -734743 422184 0 -732111 417553 0 -729495 412983 0 -726896 408474 0 -724314 404023 0 -721748 399630 0 -719198 395294 0 -716664 391012 0 -714145 386785 0 -711643 382611 0 -709156 378488 0 -706684 374416 0 -704227 370394 0 -701785 366420 0 -699359 362494 0 -696947 358615 0 -694549 354781 0 -692167 350992 0 -689798 347248 0 -687444 343546 0 -685104 339886 0 -682778 336267 0 -680466 332689 0 -678167 329151 0 -675883 325652 0 -673612 322191 0 -671354 318767 0 -669109 315380 0 -666878 312029 0 -664660 308713 0 -662455 305432 0 -660263 302185 0 -658083 298971 0 -655916 295790 0 -653762 292641 0 -651621 289523 0 -649491 286436 0 -647375 283380 0 -645270 280353 0 -643177 277356 0 -641097 274386 0 -639028 271446 0 -636971 268532 0 -634927 265646 0 -632893 262786 0 -630872 259952 0 -628862 257144 0 -626863 254361 0 -624876 251603 0 -622900 248868 0 -620936 246158 0 -618982 243471 0 -617040 240806 0 -615108 238165 0 -613188 235545 0 -611279 232946 0 -609380 230370 0 -607492 227813 0 -605615 225278 0 -603748 222762 0 -601892 220266 0 -600047 217790 0 -598212 215332 0 -596387 212893 0 -594573 210472 0 -592769 208069 0 -590975 205684 0 -589191 203316 0 -587418 200964 0 -585654 198630 0 -583901 196311 0 -582158 194008 0 -580424 191721 0 -578701 189450 0 -576987 187193 0 -575284 184950 0 -573590 182722 0 -571906 180508 0 -570231 178308 0 -568567 176121 0 -566912 173947 0 -565267 171786 0 -563631 169637 0 -562006 167500 0 -560390 165375 0 -558783 163262 0 -557186 161159 0 -555599 159068 0 -554022 156986 0 -552454 154915 0 -550896 152854 0 -549348 150802 0 -547809 148760 0 -546281 146726 0 -544762 144700 0 -543253 142682 0 -541754 140672 0 -540265 138668 0 -538787 136672 0 -537318 134681 0 -535860 132697 0 -534413 130717 0 -532976 128742 0 -531550 126771 0 -530135 124803 0 -528731 122839 0 -527338 120876 0 -525956 118914 0 -524587 116954 0 -523229 114993 0 -521882 113031 0 -520548 111066 0 -519226 109099 0 -517917 107127 0 -516619 105150 0 -515334 103166 0 -514062 101174 0 -512802 99171.5 0 -511555 97156.7 0 -510322 95127.5 0 -509104 93080.5 0 -507902 91013.2 0 -506719 88925.9 0 -505559 86802.4 0 -750703 455358 0 -747980 450404 0 -745275 445518 0 -742587 440699 0 -739916 435944 0 -737262 431252 0 -734624 426623 0 -732003 422055 0 -729398 417546 0 -726810 413096 0 -724237 408702 0 -721680 404364 0 -719139 400081 0 -716614 395852 0 -714104 391674 0 -711609 387548 0 -709129 383473 0 -706664 379446 0 -704214 375468 0 -701779 371537 0 -699358 367652 0 -696952 363812 0 -694560 360017 0 -692182 356266 0 -689818 352557 0 -687468 348890 0 -685132 345264 0 -682810 341679 0 -680501 338132 0 -678206 334625 0 -675924 331155 0 -673655 327723 0 -671399 324327 0 -669157 320967 0 -666927 317642 0 -664710 314352 0 -662506 311095 0 -660314 307871 0 -658135 304680 0 -655969 301521 0 -653815 298394 0 -651673 295297 0 -649543 292230 0 -647425 289193 0 -645319 286185 0 -643225 283205 0 -641143 280254 0 -639073 277330 0 -637014 274433 0 -634966 271562 0 -632931 268718 0 -630906 265899 0 -628893 263105 0 -626891 260336 0 -624900 257591 0 -622921 254870 0 -620952 252172 0 -618994 249497 0 -617047 246845 0 -615111 244214 0 -613186 241605 0 -611271 239018 0 -609367 236451 0 -607473 233905 0 -605590 231379 0 -603717 228873 0 -601854 226386 0 -600002 223918 0 -598160 221469 0 -596328 219039 0 -594506 216626 0 -592695 214231 0 -590893 211853 0 -589101 209493 0 -587319 207149 0 -585547 204821 0 -583784 202509 0 -582031 200214 0 -580288 197933 0 -578555 195668 0 -576831 193417 0 -575116 191181 0 -573411 188959 0 -571716 186751 0 -570030 184557 0 -568353 182376 0 -566686 180207 0 -565028 178052 0 -563379 175909 0 -561739 173778 0 -560109 171659 0 -558488 169551 0 -556876 167454 0 -555273 165368 0 -553679 163293 0 -552094 161228 0 -550518 159173 0 -548952 157127 0 -547394 155091 0 -545845 153063 0 -544306 151044 0 -542775 149033 0 -541254 147030 0 -539742 145034 0 -538238 143045 0 -536744 141062 0 -535259 139086 0 -533783 137115 0 -532316 135149 0 -530859 133188 0 -529410 131231 0 -527971 129277 0 -526542 127326 0 -525122 125377 0 -523712 123429 0 -522311 121481 0 -520921 119532 0 -519540 117582 0 -518170 115630 0 -516810 113673 0 -515460 111712 0 -514120 109743 0 -512791 107767 0 -511471 105781 0 -510161 103783 0 -508859 101772 0 -507565 99744 0 -506279 97701.4 0 -756128 469421 0 -753384 464404 0 -750657 459457 0 -747948 454576 0 -745255 449761 0 -742579 445010 0 -739920 440322 0 -737276 435696 0 -734650 431129 0 -732039 426621 0 -729444 422171 0 -726865 417777 0 -724301 413439 0 -721753 409154 0 -719220 404923 0 -716703 400743 0 -714200 396614 0 -711712 392535 0 -709239 388505 0 -706781 384522 0 -704337 380586 0 -701907 376696 0 -699492 372851 0 -697090 369051 0 -694703 365293 0 -692330 361578 0 -689970 357904 0 -687624 354271 0 -685291 350678 0 -682972 347125 0 -680666 343609 0 -678373 340132 0 -676093 336691 0 -673827 333287 0 -671573 329918 0 -669331 326585 0 -667103 323285 0 -664887 320019 0 -662683 316786 0 -660492 313586 0 -658313 310417 0 -656147 307280 0 -653992 304173 0 -651849 301097 0 -649718 298050 0 -647599 295032 0 -645492 292042 0 -643397 289080 0 -641313 286146 0 -639240 283239 0 -637179 280358 0 -635129 277503 0 -633090 274674 0 -631063 271870 0 -629046 269090 0 -627041 266335 0 -625046 263603 0 -623063 260895 0 -621090 258210 0 -619128 255547 0 -617176 252906 0 -615235 250287 0 -613305 247689 0 -611385 245113 0 -609475 242556 0 -607575 240020 0 -605686 237504 0 -603807 235007 0 -601938 232530 0 -600079 230071 0 -598230 227631 0 -596391 225209 0 -594562 222804 0 -592743 220417 0 -590933 218047 0 -589133 215694 0 -587343 213358 0 -585562 211037 0 -583791 208733 0 -582029 206444 0 -580277 204170 0 -578533 201912 0 -576800 199668 0 -575075 197438 0 -573360 195223 0 -571654 193021 0 -569956 190833 0 -568268 188658 0 -566589 186496 0 -564919 184347 0 -563258 182210 0 -561605 180085 0 -559962 177972 0 -558327 175871 0 -556701 173781 0 -555083 171701 0 -553475 169633 0 -551874 167574 0 -550283 165526 0 -548700 163487 0 -547125 161458 0 -545559 159438 0 -544001 157427 0 -542451 155424 0 -540910 153429 0 -539377 151442 0 -537853 149462 0 -536336 147489 0 -534828 145523 0 -533328 143563 0 -531835 141609 0 -530351 139660 0 -528875 137717 0 -527406 135777 0 -525945 133842 0 -524492 131909 0 -523046 129980 0 -521608 128053 0 -520177 126127 0 -518754 124203 0 -517337 122278 0 -515928 120353 0 -514526 118426 0 -513130 116496 0 -511741 114562 0 -510358 112624 0 -508981 110680 0 -507610 108726 0 -761720 483538 0 -758955 478460 0 -756207 473452 0 -753475 468511 0 -750761 463636 0 -748064 458826 0 -745382 454080 0 -742718 449395 0 -740069 444771 0 -737436 440207 0 -734819 435701 0 -732218 431251 0 -729632 426858 0 -727061 422519 0 -724506 418233 0 -721966 414000 0 -719440 409818 0 -716930 405687 0 -714434 401605 0 -711953 397571 0 -709486 393585 0 -707033 389645 0 -704594 385750 0 -702170 381901 0 -699759 378094 0 -697362 374331 0 -694979 370610 0 -692610 366930 0 -690253 363291 0 -687911 359691 0 -685581 356130 0 -683264 352607 0 -680961 349122 0 -678670 345674 0 -676392 342261 0 -674127 338884 0 -671874 335542 0 -669634 332234 0 -667406 328960 0 -665191 325718 0 -662987 322508 0 -660796 319331 0 -658617 316184 0 -656450 313068 0 -654294 309982 0 -652151 306925 0 -650019 303897 0 -647898 300898 0 -645790 297926 0 -643692 294982 0 -641606 292065 0 -639531 289174 0 -637467 286309 0 -635414 283470 0 -633373 280656 0 -631342 277866 0 -629322 275101 0 -627313 272359 0 -625315 269641 0 -623327 266945 0 -621350 264272 0 -619383 261621 0 -617427 258992 0 -615481 256384 0 -613546 253798 0 -611620 251232 0 -609705 248686 0 -607800 246160 0 -605905 243653 0 -604019 241166 0 -602144 238698 0 -600279 236248 0 -598423 233816 0 -596577 231403 0 -594741 229006 0 -592914 226628 0 -591097 224266 0 -589289 221920 0 -587491 219591 0 -585701 217278 0 -583922 214981 0 -582151 212699 0 -580390 210433 0 -578637 208181 0 -576894 205944 0 -575160 203721 0 -573435 201512 0 -571718 199317 0 -570011 197136 0 -568312 194967 0 -566622 192812 0 -564940 190669 0 -563268 188539 0 -561603 186420 0 -559948 184314 0 -558300 182219 0 -556661 180136 0 -555031 178063 0 -553408 176001 0 -551794 173950 0 -550188 171909 0 -548590 169878 0 -547000 167856 0 -545419 165844 0 -543845 163841 0 -542279 161847 0 -540720 159861 0 -539170 157883 0 -537627 155913 0 -536091 153950 0 -534564 151994 0 -533043 150046 0 -531530 148103 0 -530025 146167 0 -528526 144236 0 -527035 142310 0 -525550 140389 0 -524072 138472 0 -522601 136560 0 -521137 134650 0 -519679 132743 0 -518227 130839 0 -516781 128936 0 -515341 127034 0 -513906 125132 0 -512476 123230 0 -511052 121327 0 -509632 119422 0 -767478 497711 0 -764692 492572 0 -761923 487504 0 -759171 482503 0 -756435 477569 0 -753716 472701 0 -751013 467896 0 -748327 463154 0 -745656 458474 0 -743002 453853 0 -740363 449291 0 -737740 444786 0 -735132 440338 0 -732539 435945 0 -729961 431606 0 -727399 427320 0 -724851 423086 0 -722318 418903 0 -719799 414769 0 -717295 410685 0 -714806 406648 0 -712330 402658 0 -709869 398714 0 -707421 394816 0 -704987 390961 0 -702567 387150 0 -700161 383382 0 -697768 379655 0 -695389 375969 0 -693022 372323 0 -690669 368717 0 -688329 365150 0 -686002 361620 0 -683687 358127 0 -681386 354672 0 -679097 351252 0 -676820 347867 0 -674556 344517 0 -672304 341200 0 -670065 337917 0 -667837 334667 0 -665622 331449 0 -663418 328262 0 -661227 325107 0 -659047 321982 0 -656879 318886 0 -654723 315820 0 -652578 312783 0 -650444 309774 0 -648322 306793 0 -646211 303839 0 -644112 300913 0 -642023 298012 0 -639946 295137 0 -637879 292288 0 -635824 289464 0 -633779 286665 0 -631745 283889 0 -629721 281138 0 -627708 278409 0 -625706 275704 0 -623714 273021 0 -621733 270360 0 -619761 267722 0 -617800 265104 0 -615849 262507 0 -613909 259932 0 -611978 257376 0 -610057 254840 0 -608146 252324 0 -606245 249828 0 -604354 247350 0 -602473 244891 0 -600601 242450 0 -598738 240027 0 -596885 237622 0 -595042 235234 0 -593208 232863 0 -591383 230509 0 -589568 228171 0 -587762 225850 0 -585965 223544 0 -584177 221254 0 -582398 218980 0 -580628 216720 0 -578867 214475 0 -577114 212245 0 -575371 210029 0 -573636 207827 0 -571910 205639 0 -570193 203464 0 -568484 201302 0 -566784 199153 0 -565092 197017 0 -563408 194893 0 -561733 192781 0 -560066 190681 0 -558407 188593 0 -556756 186517 0 -555113 184451 0 -553478 182396 0 -551852 180352 0 -550233 178318 0 -548622 176295 0 -547018 174281 0 -545422 172277 0 -543834 170282 0 -542253 168296 0 -540680 166319 0 -539114 164350 0 -537555 162390 0 -536003 160438 0 -534459 158493 0 -532921 156555 0 -531390 154625 0 -529866 152701 0 -528348 150784 0 -526837 148873 0 -525333 146967 0 -523834 145067 0 -522341 143171 0 -520855 141281 0 -519374 139394 0 -517898 137511 0 -516427 135631 0 -514962 133754 0 -513501 131879 0 -512044 130006 0 -773404 511939 0 -770597 506741 0 -767807 501612 0 -765034 496553 0 -762278 491560 0 -759537 486634 0 -756813 481772 0 -754105 476973 0 -751414 472236 0 -748737 467560 0 -746077 462942 0 -743432 458383 0 -740802 453881 0 -738187 449434 0 -735587 445042 0 -733003 440704 0 -730433 436417 0 -727877 432183 0 -725336 427998 0 -722810 423863 0 -720298 419776 0 -717799 415737 0 -715315 411744 0 -712845 407797 0 -710388 403894 0 -707945 400035 0 -705516 396220 0 -703100 392446 0 -700697 388714 0 -698307 385023 0 -695931 381372 0 -693567 377759 0 -691217 374185 0 -688879 370649 0 -686554 367150 0 -684241 363687 0 -681941 360259 0 -679653 356867 0 -677378 353509 0 -675114 350185 0 -672863 346894 0 -670624 343636 0 -668396 340409 0 -666181 337214 0 -663977 334050 0 -661785 330916 0 -659604 327812 0 -657435 324737 0 -655277 321690 0 -653131 318672 0 -650995 315682 0 -648871 312719 0 -646758 309783 0 -644656 306873 0 -642565 303988 0 -640485 301130 0 -638415 298296 0 -636357 295487 0 -634308 292702 0 -632271 289941 0 -630244 287203 0 -628227 284487 0 -626220 281795 0 -624224 279125 0 -622238 276476 0 -620262 273849 0 -618296 271243 0 -616341 268657 0 -614395 266092 0 -612458 263547 0 -610532 261021 0 -608616 258515 0 -606709 256028 0 -604811 253560 0 -602924 251110 0 -601045 248678 0 -599176 246263 0 -597317 243867 0 -595466 241487 0 -593625 239124 0 -591793 236778 0 -589971 234448 0 -588157 232134 0 -586352 229836 0 -584556 227553 0 -582769 225286 0 -580991 223033 0 -579221 220795 0 -577460 218572 0 -575708 216362 0 -573964 214167 0 -572229 211985 0 -570502 209816 0 -568784 207661 0 -567073 205519 0 -565372 203389 0 -563678 201272 0 -561992 199167 0 -560315 197073 0 -558645 194992 0 -556983 192922 0 -555329 190863 0 -553683 188815 0 -552045 186778 0 -550414 184751 0 -548791 182735 0 -547175 180729 0 -545567 178732 0 -543966 176745 0 -542372 174768 0 -540786 172799 0 -539206 170840 0 -537634 168888 0 -536068 166946 0 -534509 165011 0 -532957 163084 0 -531411 161164 0 -529872 159252 0 -528339 157347 0 -526812 155448 0 -525291 153556 0 -523776 151670 0 -522266 149790 0 -520763 147916 0 -519264 146046 0 -517771 144182 0 -516282 142321 0 -514798 140466 0 -779498 526224 0 -776671 520965 0 -773860 515778 0 -771066 510660 0 -768289 505610 0 -765528 500626 0 -762783 495707 0 -760054 490852 0 -757341 486059 0 -754643 481327 0 -751961 476655 0 -749294 472042 0 -746643 467486 0 -744006 462986 0 -741385 458541 0 -738778 454150 0 -736186 449812 0 -733608 445526 0 -731045 441291 0 -728497 437106 0 -725962 432969 0 -723441 428881 0 -720934 424839 0 -718442 420844 0 -715962 416893 0 -713497 412987 0 -711044 409125 0 -708605 405305 0 -706180 401527 0 -703767 397790 0 -701367 394094 0 -698981 390437 0 -696607 386819 0 -694246 383239 0 -691897 379696 0 -689561 376190 0 -687237 372721 0 -684926 369286 0 -682627 365887 0 -680340 362522 0 -678065 359190 0 -675802 355891 0 -673551 352625 0 -671312 349390 0 -669084 346187 0 -666868 343014 0 -664663 339872 0 -662470 336759 0 -660288 333675 0 -658118 330620 0 -655958 327593 0 -653810 324594 0 -651673 321622 0 -649546 318676 0 -647431 315757 0 -645326 312864 0 -643232 309996 0 -641149 307153 0 -639076 304334 0 -637014 301540 0 -634963 298769 0 -632921 296021 0 -630890 293297 0 -628869 290595 0 -626858 287915 0 -624858 285257 0 -622867 282620 0 -620887 280004 0 -618916 277409 0 -616955 274835 0 -615004 272280 0 -613062 269745 0 -611130 267230 0 -609208 264734 0 -607295 262256 0 -605392 259797 0 -603498 257356 0 -601613 254932 0 -599737 252527 0 -597871 250138 0 -596014 247766 0 -594166 245412 0 -592327 243073 0 -590497 240751 0 -588675 238444 0 -586863 236153 0 -585059 233878 0 -583264 231617 0 -581478 229372 0 -579700 227140 0 -577931 224924 0 -576170 222721 0 -574418 220532 0 -572674 218356 0 -570938 216194 0 -569210 214046 0 -567491 211910 0 -565780 209786 0 -564076 207675 0 -562381 205576 0 -560693 203490 0 -559014 201414 0 -557342 199351 0 -555677 197299 0 -554021 195257 0 -552372 193227 0 -550730 191207 0 -549096 189198 0 -547469 187199 0 -545849 185210 0 -544237 183230 0 -542631 181261 0 -541033 179300 0 -539441 177349 0 -537856 175406 0 -536278 173472 0 -534707 171547 0 -533141 169630 0 -531583 167720 0 -530030 165819 0 -528484 163925 0 -526944 162038 0 -525409 160158 0 -523880 158286 0 -522357 156419 0 -520839 154559 0 -519326 152705 0 -517818 150857 0 -785761 540563 0 -782913 535246 0 -780083 530000 0 -777268 524824 0 -774470 519717 0 -771689 514676 0 -768923 509701 0 -766173 504790 0 -763439 499942 0 -760720 495156 0 -758016 490429 0 -755328 485762 0 -752655 481153 0 -749997 476600 0 -747354 472103 0 -744726 467661 0 -742112 463272 0 -739512 458935 0 -736927 454649 0 -734356 450414 0 -731800 446228 0 -729257 442091 0 -726728 438001 0 -724212 433957 0 -721710 429959 0 -719222 426006 0 -716747 422097 0 -714286 418231 0 -711837 414407 0 -709402 410625 0 -706979 406884 0 -704569 403183 0 -702173 399521 0 -699788 395897 0 -697417 392311 0 -695057 388763 0 -692710 385251 0 -690376 381775 0 -688053 378334 0 -685743 374928 0 -683444 371555 0 -681158 368216 0 -678883 364910 0 -676620 361636 0 -674369 358394 0 -672129 355183 0 -669900 352002 0 -667683 348851 0 -665478 345730 0 -663283 342638 0 -661100 339574 0 -658928 336539 0 -656766 333531 0 -654616 330550 0 -652476 327595 0 -650348 324667 0 -648230 321765 0 -646122 318888 0 -644025 316035 0 -641939 313208 0 -639863 310404 0 -637797 307624 0 -635741 304867 0 -633696 302133 0 -631661 299422 0 -629636 296732 0 -627621 294065 0 -625616 291419 0 -623620 288794 0 -621635 286189 0 -619659 283606 0 -617693 281042 0 -615736 278498 0 -613789 275973 0 -611852 273467 0 -609924 270980 0 -608005 268512 0 -606095 266062 0 -604195 263630 0 -602304 261215 0 -600422 258818 0 -598549 256437 0 -596685 254074 0 -594830 251727 0 -592984 249396 0 -591147 247081 0 -589318 244782 0 -587498 242498 0 -585687 240229 0 -583884 237976 0 -582090 235737 0 -580304 233512 0 -578527 231302 0 -576758 229105 0 -574997 226923 0 -573244 224754 0 -571500 222598 0 -569763 220455 0 -568035 218325 0 -566315 216208 0 -564602 214103 0 -562897 212011 0 -561201 209930 0 -559511 207861 0 -557830 205803 0 -556156 203757 0 -554489 201722 0 -552830 199698 0 -551178 197685 0 -549534 195682 0 -547896 193690 0 -546266 191708 0 -544643 189735 0 -543027 187773 0 -541418 185820 0 -539815 183876 0 -538219 181941 0 -536630 180015 0 -535047 178098 0 -533471 176190 0 -531901 174290 0 -530337 172398 0 -528779 170513 0 -527227 168637 0 -525681 166768 0 -524140 164907 0 -522605 163052 0 -521075 161205 0 -792193 554958 0 -789326 549583 0 -786475 544279 0 -783641 539046 0 -780822 533882 0 -778020 528785 0 -775234 523754 0 -772463 518788 0 -769708 513886 0 -766968 509045 0 -764244 504265 0 -761535 499545 0 -758841 494883 0 -756161 490278 0 -753497 485729 0 -750847 481235 0 -748211 476795 0 -745590 472408 0 -742983 468072 0 -740390 463788 0 -737811 459553 0 -735246 455367 0 -732695 451229 0 -730158 447137 0 -727633 443092 0 -725123 439092 0 -722625 435137 0 -720141 431225 0 -717670 427356 0 -715212 423529 0 -712767 419743 0 -710334 415997 0 -707915 412291 0 -705507 408625 0 -703113 404996 0 -700730 401405 0 -698360 397851 0 -696002 394333 0 -693657 390851 0 -691323 387404 0 -689001 383991 0 -686691 380612 0 -684393 377266 0 -682107 373953 0 -679832 370671 0 -677568 367422 0 -675316 364203 0 -673076 361014 0 -670846 357856 0 -668628 354726 0 -666421 351626 0 -664225 348554 0 -662040 345510 0 -659866 342494 0 -657702 339504 0 -655549 336541 0 -653407 333604 0 -651276 330693 0 -649155 327807 0 -647044 324946 0 -644944 322109 0 -642854 319296 0 -640775 316507 0 -638705 313741 0 -636646 310998 0 -634596 308277 0 -632557 305579 0 -630528 302902 0 -628508 300246 0 -626498 297612 0 -624498 294999 0 -622507 292406 0 -620526 289832 0 -618555 287279 0 -616593 284745 0 -614640 282231 0 -612697 279735 0 -610763 277257 0 -608838 274798 0 -606923 272357 0 -605016 269933 0 -603119 267527 0 -601230 265138 0 -599351 262765 0 -597480 260410 0 -595618 258070 0 -593765 255747 0 -591921 253439 0 -590085 251147 0 -588257 248870 0 -586439 246608 0 -584628 244361 0 -582826 242129 0 -581033 239911 0 -579247 237707 0 -577470 235517 0 -575701 233341 0 -573940 231178 0 -572187 229028 0 -570442 226891 0 -568705 224767 0 -566976 222656 0 -565255 220557 0 -563541 218470 0 -561835 216395 0 -560137 214332 0 -558446 212280 0 -556763 210240 0 -555087 208211 0 -553418 206193 0 -551757 204186 0 -550103 202189 0 -548455 200203 0 -546815 198227 0 -545182 196261 0 -543556 194305 0 -541937 192358 0 -540324 190421 0 -538718 188494 0 -537119 186575 0 -535526 184666 0 -533939 182765 0 -532358 180873 0 -530784 178989 0 -529216 177114 0 -527653 175246 0 -526097 173387 0 -524546 171535 0 -798796 569408 0 -795909 563975 0 -793039 558615 0 -790184 553325 0 -787346 548105 0 -784523 542953 0 -781717 537867 0 -778926 532846 0 -776150 527889 0 -773390 522995 0 -770645 518162 0 -767914 513389 0 -765199 508675 0 -762499 504018 0 -759813 499418 0 -757142 494873 0 -754485 490383 0 -751842 485946 0 -749214 481561 0 -746599 477227 0 -743998 472943 0 -741411 468709 0 -738838 464523 0 -736279 460385 0 -733732 456293 0 -731200 452246 0 -728680 448245 0 -726173 444287 0 -723680 440373 0 -721199 436501 0 -718731 432671 0 -716276 428881 0 -713834 425132 0 -711404 421422 0 -708986 417751 0 -706581 414117 0 -704188 410521 0 -701807 406962 0 -699439 403439 0 -697082 399951 0 -694737 396497 0 -692404 393078 0 -690082 389693 0 -687773 386340 0 -685474 383020 0 -683187 379732 0 -680912 376475 0 -678648 373249 0 -676395 370053 0 -674153 366886 0 -671922 363749 0 -669703 360641 0 -667494 357561 0 -665296 354509 0 -663109 351484 0 -660932 348486 0 -658766 345515 0 -656611 342569 0 -654466 339649 0 -652332 336755 0 -650207 333885 0 -648094 331039 0 -645990 328217 0 -643896 325419 0 -641813 322644 0 -639740 319892 0 -637676 317162 0 -635623 314455 0 -633579 311769 0 -631545 309105 0 -629520 306461 0 -627506 303839 0 -625500 301236 0 -623505 298654 0 -621519 296092 0 -619542 293549 0 -617574 291025 0 -615616 288520 0 -613667 286033 0 -611727 283565 0 -609796 281115 0 -607875 278682 0 -605962 276267 0 -604058 273869 0 -602163 271488 0 -600277 269124 0 -598399 266776 0 -596530 264444 0 -594670 262127 0 -592818 259827 0 -590975 257542 0 -589141 255272 0 -587314 253017 0 -585496 250776 0 -583687 248550 0 -581885 246338 0 -580092 244140 0 -578307 241956 0 -576530 239786 0 -574761 237629 0 -573000 235485 0 -571247 233354 0 -569501 231235 0 -567764 229130 0 -566034 227036 0 -564311 224955 0 -562597 222885 0 -560889 220828 0 -559190 218782 0 -557497 216747 0 -555812 214723 0 -554134 212711 0 -552464 210709 0 -550800 208718 0 -549144 206738 0 -547495 204768 0 -545852 202807 0 -544217 200857 0 -542588 198917 0 -540965 196986 0 -539350 195065 0 -537741 193153 0 -536138 191250 0 -534542 189356 0 -532952 187471 0 -531368 185594 0 -529790 183727 0 -528218 181867 0 -805570 583912 0 -802664 578422 0 -799774 573006 0 -796900 567661 0 -794042 562385 0 -791199 557178 0 -788372 552038 0 -785561 546963 0 -782765 541953 0 -779985 537006 0 -777219 532120 0 -774468 527295 0 -771732 522529 0 -769011 517821 0 -766304 513170 0 -763612 508575 0 -760933 504035 0 -758270 499548 0 -755620 495114 0 -752984 490732 0 -750361 486400 0 -747753 482118 0 -745158 477885 0 -742576 473699 0 -740008 469561 0 -737453 465468 0 -734912 461421 0 -732383 457418 0 -729867 453459 0 -727364 449543 0 -724874 445668 0 -722397 441835 0 -719932 438042 0 -717479 434289 0 -715039 430576 0 -712611 426900 0 -710195 423262 0 -707791 419662 0 -705400 416097 0 -703020 412569 0 -700652 409075 0 -698296 405616 0 -695951 402191 0 -693618 398800 0 -691297 395441 0 -688987 392114 0 -686688 388819 0 -684401 385555 0 -682124 382322 0 -679859 379118 0 -677605 375945 0 -675362 372800 0 -673129 369684 0 -670908 366597 0 -668697 363537 0 -666497 360504 0 -664307 357498 0 -662128 354518 0 -659959 351564 0 -657801 348636 0 -655653 345733 0 -653516 342854 0 -651388 340000 0 -649271 337169 0 -647163 334362 0 -645066 331579 0 -642979 328818 0 -640901 326079 0 -638833 323363 0 -636775 320668 0 -634727 317994 0 -632688 315342 0 -630659 312710 0 -628639 310099 0 -626629 307508 0 -624628 304936 0 -622636 302384 0 -620654 299852 0 -618681 297338 0 -616717 294842 0 -614762 292365 0 -612816 289906 0 -610879 287464 0 -608951 