<?xml version="1.0"?> 
<VTKFile type="StructuredGrid" version="0.1"> 
<StructuredGrid WholeExtent="0 31 0 31 0 0"> 
<Piece Extent="0 31 0 31 0 0"> 
<PointData>
<DataArray type="Float32" Name="|E|" format="ascii" NumberOfComponents="3"> 
4.97523e+06 3.13149e+06 0 4.18689e+06 2.70062e+06 0 3.61689e+06 2.42291e+06 0 3.18845e+06 2.23218e+06 0 2.85075e+06 2.09106e+06 0 2.57726e+06 1.9797e+06 0 2.34956e+06 1.88772e+06 0 2.15597e+06 1.80872e+06 0 1.98844e+06 1.73885e+06 0 1.84134e+06 1.67562e+06 0 1.71061e+06 1.61736e+06 0 1.59325e+06 1.56292e+06 0 1.487e+06 1.5115e+06 0 1.39014e+06 1.46251e+06 0 1.30131e+06 1.41551e+06 0 1.21944e+06 1.3702e+06 0 1.14367e+06 1.32633e+06 0 1.07331e+06 1.28372e+06 0 1.00778e+06 1.24223e+06 0 946593 1.20174e+06 0 889356 1.16218e+06 0 835721 1.12348e+06 0 785393 1.08559e+06 0 738114 1.04846e+06 0 693659 1.01207e+06 0 651827 976382 0 612440 941377 0 575338 907036 0 540373 873343 0 507414 840283 0 476336 807843 0 447030 776003 0 4.17929e+06 3.08706e+06 0 3.63271e+06 2.70924e+06 0 3.21649e+06 2.45124e+06 0 2.88332e+06 2.26574e+06 0 2.61078e+06 2.1235e+06 0 2.38278e+06 2.00927e+06 0 2.18818e+06 1.91387e+06 0 2.01944e+06 1.83157e+06 0 1.87107e+06 1.7587e+06 0 1.7391e+06 1.69284e+06 0 1.62057e+06 1.63229e+06 0 1.51324e+06 1.57589e+06 0 1.41538e+06 1.52278e+06 0 1.32562e+06 1.47234e+06 0 1.24288e+06 1.42412e+06 0 1.16631e+06 1.37777e+06 0 1.09519e+06 1.33301e+06 0 1.02894e+06 1.28965e+06 0 967077 1.24752e+06 0 909188 1.20651e+06 0 854926 1.16652e+06 0 803991 1.12746e+06 0 756123 1.08928e+06 0 711094 1.05193e+06 0 668702 1.01536e+06 0 628767 979551 0 591128 944465 0 555637 910081 0 522162 876377 0 490578 843336 0 460774 810939 0 432639 779169 0 3.58999e+06 2.99638e+06 0 3.20093e+06 2.67864e+06 0 2.88609e+06 2.44792e+06 0 2.62234e+06 2.27431e+06 0 2.39932e+06 2.13694e+06 0 2.20739e+06 2.02426e+06 0 2.03999e+06 1.92875e+06 0 1.89223e+06 1.84559e+06 0 1.76043e+06 1.77155e+06 0 1.64182e+06 1.70443e+06 0 1.53425e+06 1.64265e+06 0 1.43605e+06 1.5851e+06 0 1.3459e+06 1.53094e+06 0 1.26276e+06 1.47958e+06 0 1.18576e+06 1.43053e+06 0 1.1142e+06 1.38346e+06 0 1.04751e+06 1.33809e+06 0 985208 1.2942e+06 0 926878 1.25163e+06 0 872177 1.21025e+06 0 820804 1.16995e+06 0 772499 1.13065e+06 0 727035 1.09228e+06 0 684210 1.05479e+06 0 643843 1.01812e+06 0 605774 982254 0 569855 947145 0 535954 912767 0 503949 879098 0 473725 846114 0 445181 813796 0 418212 782125 0 3.14285e+06 2.89928e+06 0 2.85468e+06 2.63112e+06 0 2.6094e+06 2.42734e+06 0 2.39677e+06 2.26782e+06 0 2.21163e+06 2.13791e+06 0 2.04849e+06 2.02904e+06 0 1.90349e+06 1.93531e+06 0 1.77349e+06 1.85282e+06 0 1.65604e+06 1.77882e+06 0 1.54921e+06 1.71141e+06 0 1.45147e+06 1.64917e+06 0 1.36157e+06 1.59108e+06 0 1.27854e+06 1.53638e+06 0 1.20155e+06 1.48449e+06 0 1.12993e+06 1.43496e+06 0 1.06312e+06 1.38745e+06 0 1.00065e+06 1.34169e+06 0 942123 1.29746e+06 0 887196 1.25461e+06 0 835576 1.213e+06 0 787007 1.17252e+06 0 741262 1.13308e+06 0 698144 1.09461e+06 0 657474 1.05706e+06 0 619093 1.02037e+06 0 582856 984502 0 548630 949422 0 516296 915100 0 485741 881508 0 456862 848620 0 429564 816415 0 403750 784873 0 2.79151e+06 2.80454e+06 0 2.56998e+06 2.57727e+06 0 2.37409e+06 2.39765e+06 0 2.19953e+06 2.25204e+06 0 2.04375e+06 2.13041e+06 0 1.90378e+06 2.02642e+06 0 1.77734e+06 1.93554e+06 0 1.66241e+06 1.85467e+06 0 1.55741e+06 1.78153e+06 0 1.46099e+06 1.71451e+06 0 1.37206e+06 1.65238e+06 0 1.28972e+06 1.59424e+06 0 1.21324e+06 1.53939e+06 0 1.14197e+06 1.4873e+06 0 1.07539e+06 1.43756e+06 0 1.01307e+06 1.38985e+06 0 954613 1.3439e+06 0 899700 1.29952e+06 0 848046 1.25653e+06 0 799401 1.21482e+06 0 753548 1.17426e+06 0 710293 1.13478e+06 0 669462 1.0963e+06 0 630900 1.05876e+06 0 594463 1.02211e+06 0 560023 986302 0 527462 951305 0 496670 917084 0 467545 883610 0 439993 850856 0 413927 818798 0 389257 787415 0 2.50639e+06 2.71702e+06 0 2.33069e+06 2.52242e+06 0 2.17076e+06 2.36335e+06 0 2.02504e+06 2.23057e+06 0 1.89239e+06 2.11717e+06 0 1.77125e+06 2.01844e+06 0 1.66027e+06 1.93096e+06 0 1.55822e+06 1.85226e+06 0 1.46404e+06 1.78052e+06 0 1.37684e+06 1.71436e+06 0 1.29584e+06 1.65276e+06 0 1.22039e+06 1.59492e+06 0 1.14992e+06 1.54024e+06 0 1.08397e+06 1.48822e+06 0 1.02213e+06 1.43851e+06 0 964045 1.39079e+06 0 909407 1.34483e+06 0 857950 1.30043e+06 0 809438 1.25744e+06 0 763664 1.21574e+06 0 720442 1.17521e+06 0 679605 1.13578e+06 0 641002 1.09736e+06 0 604496 1.0599e+06 0 569962 1.02335e+06 0 537285 987663 0 506358 952799 0 477083 918724 0 449367 885408 0 423125 852824 0 398275 820946 0 374737 789751 0 2.26859e+06 2.63729e+06 0 2.12552e+06 2.46872e+06 0 1.99245e+06 2.32693e+06 0 1.86902e+06 2.20564e+06 0 1.75485e+06 2.09999e+06 0 1.64915e+06 2.00654e+06 0 1.55118e+06 1.92267e+06 0 1.46018e+06 1.84646e+06 0 1.37548e+06 1.77643e+06 0 1.29647e+06 1.71146e+06 0 1.22261e+06 1.65069e+06 0 1.15343e+06 1.59343e+06 0 1.08852e+06 1.53915e+06 0 1.02753e+06 1.48743e+06 0 970125 1.43792e+06 0 916041 1.39037e+06 0 865031 1.34454e+06 0 816876 1.30027e+06 0 771382 1.2574e+06 0 728375 1.21581e+06 0 687698 1.1754e+06 0 649207 1.13609e+06 0 612773 1.09782e+06 0 578274 1.06051e+06 0 545600 1.02411e+06 0 514650 988595 0 485327 953910 0 457543 920024 0 431214 886906 0 406262 854527 0 382614 822860 0 360194 791882 0 2.06555e+06 2.56488e+06 0 1.94652e+06 2.41713e+06 0 1.83397e+06 2.28982e+06 0 1.72811e+06 2.17862e+06 0 1.62892e+06 2.0801e+06 0 1.53605e+06 1.99171e+06 0 1.44911e+06 1.91148e+06 0 1.36767e+06 1.8379e+06 0 1.2913e+06 1.76978e+06 0 1.2196e+06 1.70622e+06 0 1.15219e+06 1.64649e+06 0 1.08875e+06 1.59001e+06 0 1.02897e+06 1.53633e+06 0 972580 1.48507e+06 0 919344 1.43594e+06 0 869043 1.38869e+06 0 821480 1.34313e+06 0 776480 1.29909e+06 0 733883 1.25644e+06 0 693542 1.21506e+06 0 655326 1.17486e+06 0 619111 1.13575e+06 0 584784 1.09768e+06 0 552242 1.06058e+06 0 521385 1.0244e+06 0 492125 989105 0 464375 954645 0 438055 920989 0 413090 888106 0 389409 855966 0 366946 824542 0 345632 793810 0 1.88876e+06 2.49885e+06 0 1.78795e+06 2.3679e+06 0 1.69146e+06 2.25275e+06 0 1.5997e+06 2.15037e+06 0 1.51282e+06 2.05831e+06 0 1.43072e+06 1.97469e+06 0 1.35324e+06 1.898e+06 0 1.28012e+06 1.82708e+06 0 1.21111e+06 1.76098e+06 0 1.14595e+06 1.69896e+06 0 1.08439e+06 1.64042e+06 0 1.02621e+06 1.58488e+06 0 971169 1.53194e+06 0 919082 1.48129e+06 0 869759 1.43266e+06 0 823033 1.38585e+06 0 778749 1.34066e+06 0 736763 1.29696e+06 0 696944 1.25462e+06 0 659172 1.21353e+06 0 623333 1.17361e+06 0 589323 1.13478e+06 0 557046 1.09697e+06 0 526408 1.06014e+06 0 497326 1.02423e+06 0 469718 989201 0 443509 955010 0 418626 921625 0 395003 889013 0 372573 857145 0 351278 825993 0 331054 795534 0 1.73223e+06 2.43826e+06 0 1.64562e+06 2.32099e+06 0 1.56196e+06 2.21609e+06 0 1.48171e+06 2.1214e+06 0 1.4051e+06 2.03516e+06 0 1.33215e+06 1.95597e+06 0 1.26283e+06 1.88269e+06 0 1.19701e+06 1.8144e+06 0 1.13455e+06 1.75035e+06 0 1.07528e+06 1.68995e+06 0 1.01905e+06 1.63271e+06 0 965696 1.57821e+06 0 915055 1.52614e+06 0 866982 1.4762e+06 0 821340 1.42819e+06 0 777996 1.38191e+06 0 736828 1.33719e+06 0 697721 1.29392e+06 0 660568 1.25197e+06 0 625268 1.21125e+06 0 591726 1.17168e+06 0 559852 1.13319e+06 0 529564 1.09571e+06 0 500782 1.0592e+06 0 473430 1.02361e+06 0 447437 988894 0 422736 955013 0 399263 921935 0 376956 889629 0 355758 858065 0 335613 827215 0 316465 797056 0 1.59169e+06 2.3822e+06 0 1.51642e+06 2.27622e+06 0 1.44322e+06 2.18001e+06 0 1.37253e+06 2.09204e+06 0 1.30458e+06 2.01103e+06 0 1.2395e+06 1.93593e+06 0 1.17729e+06 1.86587e+06 0 1.11792e+06 1.80014e+06 0 1.06131e+06 1.73815e+06 0 1.00738e+06 1.67942e+06 0 956013 1.62353e+06 0 907105 1.57017e+06 0 860548 1.51904e+06 0 816232 1.46992e+06 0 774053 1.42261e+06 0 733910 1.37694e+06 0 695707 1.33279e+06 0 659351 1.29002e+06 0 624755 1.24854e+06 0 591834 1.20826e+06 0 560509 1.1691e+06 0 530704 1.13101e+06 0 502347 1.09392e+06 0 475369 1.05778e+06 0 449703 1.02255e+06 0 425288 988190 0 402063 954659 0 379970 921926 0 358957 889959 0 338968 858729 0 319957 828210 0 301869 798376 0 1.46401e+06 2.32992e+06 0 1.39799e+06 2.23333e+06 0 1.33347e+06 2.14455e+06 0 1.27083e+06 2.06248e+06 0 1.21031e+06 1.98616e+06 0 1.15205e+06 1.91483e+06 0 1.09609e+06 1.84781e+06 0 1.04246e+06 1.78455e+06 0 991126 1.72458e+06 0 942035 1.66753e+06 0 895128 1.61305e+06 0 850334 1.56087e+06 0 807578 1.51076e+06 0 766781 1.46252e+06 0 727867 1.41599e+06 0 690757 1.37102e+06 0 655376 1.32749e+06 0 621649 1.2853e+06 0 589505 1.24435e+06 0 558873 1.20458e+06 0 529688 1.1659e+06 0 501885 1.12826e+06 0 475401 1.0916e+06 0 450176 1.05588e+06 0 426153 1.02106e+06 0 403277 987097 0 381495 953955 0 360755 921601 0 341009 890005 0 322209 859141 0 304312 828979 0 287269 799497 0 1.34684e+06 2.28075e+06 0 1.28853e+06 2.19207e+06 0 1.23133e+06 2.10969e+06 0 1.17557e+06 2.0328e+06 0 1.12148e+06 1.96072e+06 0 1.0692e+06 1.89285e+06 0 1.01879e+06 1.82868e+06 0 970307 1.76779e+06 0 923738 1.70981e+06 0 879069 1.65443e+06 0 836266 1.60138e+06 0 795286 1.55043e+06 0 756078 1.50139e+06 0 718586 1.4541e+06 0 682752 1.40841e+06 0 648518 1.3642e+06 0 615823 1.32136e+06 0 584609 1.27981e+06 0 554816 1.23946e+06 0 526388 1.20024e+06 0 499267 1.16209e+06 0 473399 1.12495e+06 0 448731 1.08878e+06 0 425210 1.05353e+06 0 402786 1.01915e+06 0 381411 985626 0 361038 952906 0 341622 920965 0 323118 889773 0 305485 859301 0 288683 829525 0 272669 800419 0 1.2384e+06 2.23414e+06 0 1.18663e+06 2.15218e+06 0 1.1357e+06 2.07535e+06 0 1.08591e+06 2.00306e+06 0 1.03745e+06 1.93479e+06 0 990455 1.87011e+06 0 945011 1.80863e+06 0 901164 1.75001e+06 0 858934 1.69396e+06 0 818321 1.64024e+06 0 779310 1.58863e+06 0 741876 1.53894e+06 0 705986 1.49102e+06 0 671601 1.44472e+06 0 638678 1.39992e+06 0 607172 1.35653e+06 0 577037 1.31444e+06 0 548225 1.27358e+06 0 520688 1.23388e+06 0 494378 1.19527e+06 0 469248 1.1577e+06 0 445252 1.12111e+06 0 422342 1.08547e+06 0 400476 1.05072e+06 0 379608 1.01684e+06 0 359696 983782 0 340699 951521 0 322577 920025 0 305290 889265 0 288802 859215 0 273076 829848 0 258074 801142 0 1.13732e+06 2.18962e+06 0 1.09117e+06 2.11343e+06 0 1.0457e+06 2.04145e+06 0 1.00114e+06 1.97326e+06 0 957661 1.90846e+06 0 915394 1.84673e+06 0 874418 1.78777e+06 0 834785 1.73131e+06 0 796525 1.67715e+06 0 759648 1.62506e+06 0 724152 1.57489e+06 0 690025 1.52648e+06 0 657245 1.47971e+06 0 625786 1.43444e+06 0 595616 1.39059e+06 0 566702 1.34805e+06 0 539007 1.30677e+06 0 512491 1.26665e+06 0 487118 1.22764e+06 0 462845 1.18969e+06 0 439635 1.15274e+06 0 417447 1.11675e+06 0 396241 1.08168e+06 0 375980 1.04748e+06 0 356624 1.01412e+06 0 338137 981574 0 320482 949804 0 303624 918784 0 287529 888485 0 272162 858883 0 257492 829952 0 243485 801669 0 1.0425e+06 2.14678e+06 0 1.00128e+06 2.0756e+06 0 960605 2.00791e+06 0 920686 1.94338e+06 0 881668 1.88175e+06 0 843659 1.82275e+06 0 806737 1.76616e+06 0 770954 1.71179e+06 0 736344 1.65944e+06 0 702923 1.60898e+06 0 670697 1.56025e+06 0 639661 1.51313e+06 0 609802 1.46752e+06 0 581103 1.42332e+06 0 553541 1.38045e+06 0 527090 1.33882e+06 0 501721 1.29838e+06 0 477403 1.25905e+06 0 454104 1.22078e+06 0 431790 1.18353e+06 0 410430 1.14725e+06 0 389988 1.1119e+06 0 370431 1.07743e+06 0 351726 1.04381e+06 0 333840 1.01102e+06 0 316739 979010 0 300393 947763 0 284770 917247 0 269839 887437 0 255571 858309 0 241938 829837 0 228908 802001 0 953101 2.1053e+06 0 916240 2.0385e+06 0 879847 1.97462e+06 0 844090 1.91341e+06 0 809092 1.85467e+06 0 774948 1.79822e+06 0 741729 1.74388e+06 0 709483 1.69149e+06 0 678245 1.64092e+06 0 648033 1.59204e+06 0 618858 1.54475e+06 0 590719 1.49894e+06 0 563610 1.45452e+06 0 537519 1.41142e+06 0 512429 1.36955e+06 0 488320 1.32887e+06 0 465170 1.28931e+06 0 442953 1.25081e+06 0 421643 1.21332e+06 0 401213 1.17682e+06 0 381635 1.14124e+06 0 362879 1.10656e+06 0 344917 1.07273e+06 0 327720 1.03973e+06 0 311260 1.00753e+06 0 295508 976098 0 280436 945403 0 266018 915420 0 252225 886125 0 239033 857496 0 226415 829507 0 214346 802139 0 868433 2.06489e+06 0 835487 2.00196e+06 0 802949 1.94149e+06 0 770958 1.8833e+06 0 739617 1.82724e+06 0 709007 1.77317e+06 0 679190 1.72096e+06 0 650211 1.67048e+06 0 622101 1.62164e+06 0 594880 1.57433e+06 0 568559 1.52846e+06 0 543142 1.48396e+06 0 518625 1.44075e+06 0 495000 1.39876e+06 0 472256 1.35794e+06 0 450376 1.31823e+06 0 429343 1.27959e+06 0 409136 1.24195e+06 0 389734 1.20529e+06 0 371114 1.16956e+06 0 353251 1.13472e+06 0 336122 1.10075e+06 0 319702 1.0676e+06 0 303966 1.03525e+06 0 288890 1.00368e+06 0 274449 972845 0 260618 942730 0 247373 913307 0 234693 884553 0 222552 856446 0 210930 828963 0 199802 802084 0 787948 2.02529e+06 0 758552 1.96582e+06 0 729521 1.90844e+06 0 700968 1.85302e+06 0 672978 1.79945e+06 0 645620 1.74762e+06 0 618947 1.69743e+06 0 592998 1.6488e+06 0 567802 1.60164e+06 0 543376 1.55587e+06 0 519734 1.51143e+06 0 496878 1.46824e+06 0 474808 1.42625e+06 0 453519 1.3854e+06 0 433002 1.34565e+06 0 413244 1.30695e+06 0 394232 1.26925e+06 0 375948 1.23251e+06 0 358374 1.1967e+06 0 341492 1.16178e+06 0 325282 1.12772e+06 0 309722 1.09449e+06 0 294791 1.06205e+06 0 280469 1.03038e+06 0 266734 999463 0 253565 969259 0 240941 939751 0 228841 910913 0 217245 882724 0 206132 855162 0 195484 828207 0 185280 801838 0 711202 1.9863e+06 0 685055 1.92995e+06 0 659242 1.87538e+06 0 633851 1.82252e+06 0 608953 1.77127e+06 0 584606 1.72157e+06 0 560852 1.67333e+06 0 537726 1.62648e+06 0 515252 1.58096e+06 0 493447 1.53672e+06 0 472322 1.49369e+06 0 451881 1.45182e+06 0 432125 1.41106e+06 0 413050 1.37138e+06 0 394649 1.33272e+06 0 376912 1.29504e+06 0 359828 1.25832e+06 0 343383 1.22251e+06 0 327562 1.18758e+06 0 312349 1.1535e+06 0 297727 1.12025e+06 0 283679 1.08779e+06 0 270187 1.05609e+06 0 257232 1.02513e+06 0 244797 994894 0 232863 965348 0 221411 936471 0 210425 908243 0 199887 880642 0 189778 853648 0 180083 827241 0 170783 801402 0 637833 1.94773e+06 0 614688 1.89422e+06 0 591848 1.84225e+06 0 569386 1.79177e+06 0 547357 1.74272e+06 0 525809 1.69503e+06 0 504777 1.64866e+06 0 484290 1.60355e+06 0 464367 1.55965e+06 0 445025 1.5169e+06 0 426271 1.47528e+06 0 408111 1.43474e+06 0 390544 1.39522e+06 0 373569 1.35671e+06 0 357179 1.31916e+06 0 341367 1.28255e+06 0 326124 1.24682e+06 0 311437 1.21197e+06 0 297295 1.17795e+06 0 283684 1.14475e+06 0 270590 1.11232e+06 0 257998 1.08066e+06 0 245893 1.04973e+06 0 234260 1.01951e+06 0 223082 989982 0 212345 961118 0 202033 932898 0 192130 905302 0 182622 878312 0 173493 851906 0 164729 826067 0 156315 800777 0 567551 1.90944e+06 0 547196 1.85853e+06 0 527123 1.80898e+06 0 507387 1.76074e+06 0 488034 1.71376e+06 0 469101 1.66801e+06 0 450616 1.62345e+06 0 432603 1.58003e+06 0 415078 1.53771e+06 0 398054 1.49646e+06 0 381537 1.45624e+06 0 365532 1.41702e+06 0 350038 1.37877e+06 0 335055 1.34144e+06 0 320578 1.30503e+06 0 306599 1.26948e+06 0 293112 1.23479e+06 0 280106 1.20092e+06 0 267571 1.16784e+06 0 255497 1.13553e+06 0 243871 1.10397e+06 0 232680 1.07313e+06 0 221913 1.04299e+06 0 211555 1.01353e+06 0 201594 984736 0 192017 956576 0 182810 929036 0 173960 902095 0 165455 875736 0 157281 849940 0 149427 824689 0 141878 799966 0 500119 1.87127e+06 0 482375 1.82279e+06 0 464888 1.7755e+06 0 447703 1.72938e+06 0 430855 1.6844e+06 0 414372 1.64052e+06 0 398278 1.59771e+06 0 382590 1.55594e+06 0 367322 1.51519e+06 0 352483 1.47542e+06 0 338079 1.4366e+06 0 324112 1.39871e+06 0 310584 1.36172e+06 0 297491 1.3256e+06 0 284831 1.29033e+06 0 272598 1.25589e+06 0 260786 1.22224e+06 0 249386 1.18937e+06 0 238390 1.15725e+06 0 227789 1.12586e+06 0 217572 1.09519e+06 0 207729 1.0652e+06 0 198249 1.03588e+06 0 189123 1.00721e+06 0 180337 979163 0 171882 951731 0 163747 924892 0 155920 898627 0 148390 872919 0 141147 847751 0 134180 823107 0 127478 798970 0 435348 1.83314e+06 0 420056 1.78692e+06 0 404999 1.74178e+06 0 390209 1.69769e+06 0 375713 1.65461e+06 0 361533 1.61254e+06 0 347687 1.57145e+06 0 334189 1.53131e+06 0 321047 1.4921e+06 0 308270 1.4538e+06 0 295862 1.41638e+06 0 283825 1.37982e+06 0 272158 1.34411e+06 0 260860 1.30921e+06 0 249928 1.2751e+06 0 239357 1.24177e+06 0 229141 1.20919e+06 0 219275 1.17735e+06 0 209750 1.14621e+06 0 200559 1.11577e+06 0 191694 1.086e+06 0 183146 1.05688e+06 0 174906 1.0284e+06 0 166965 1.00054e+06 0 159315 973272 0 151945 946589 0 144847 920471 0 138012 894902 0 131430 869865 0 125093 845344 0 118991 821324 0 113116 797790 0 373083 1.79492e+06 0 360105 1.75087e+06 0 347335 1.70777e+06 0 334800 1.66562e+06 0 322519 1.6244e+06 0 310507 1.58409e+06 0 298779 1.54468e+06 0 287344 1.50615e+06 0 276209 1.46847e+06 0 265379 1.43163e+06 0 254858 1.39561e+06 0 244646 1.3604e+06 0 234743 1.32596e+06 0 225148 1.29229e+06 0 215857 1.25937e+06 0 206867 1.22717e+06 0 198172 1.19568e+06 0 189768 1.16487e+06 0 181649 1.13474e+06 0 173808 1.10526e+06 0 166238 1.07642e+06 0 158933 1.0482e+06 0 151885 1.02058e+06 0 145087 993540 0 138531 967073 0 132210 941158 0 126116 915781 0 120242 890925 0 114580 866577 0 109123 842721 0 103864 819342 0 98795.7 796427 0 313206 1.75656e+06 0 302413 1.71457e+06 0 291803 1.67344e+06 0 281394 1.63318e+06 0 271200 1.59376e+06 0 261232 1.55518e+06 0 251500 1.51743e+06 0 242011 1.48048e+06 0 232769 1.44432e+06 0 223778 1.40894e+06 0 215040 1.37433e+06 0 206556 1.34045e+06 0 198323 1.30731e+06 0 190342 1.27488e+06 0 182609 1.24315e+06 0 175121 1.2121e+06 0 167875 1.18171e+06 0 160865 1.15197e+06 0 154087 1.12286e+06 0 147536 1.09436e+06 0 141207 1.06647e+06 0 135093 1.03916e+06 0 129190 1.01241e+06 0 123490 986223 0 117988 960572 0 112679 935444 0 107555 910825 0 102612 886702 0 97842.8 863060 0 93241.7 839885 0 88803.3 817164 0 84521 794885 0 255619 1.71799e+06 0 246894 1.67798e+06 0 238324 1.63877e+06 0 229922 1.60034e+06 0 221697 1.5627e+06 0 213656 1.52582e+06 0 205806 1.4897e+06 0 198152 1.45432e+06 0 190696 1.41968e+06 0 183441 1.38576e+06 0 176387 1.35254e+06 0 169535 1.32002e+06 0 162884 1.28818e+06 0 156431 1.257e+06 0 150176 1.22647e+06 0 144115 1.19658e+06 0 138245 1.16731e+06 0 132562 1.13865e+06 0 127064 1.11058e+06 0 121745 1.08308e+06 0 116601 1.05615e+06 0 111629 1.02977e+06 0 106823 1.00392e+06 0 102178 978596 0 97691.5 953778 0 93357.1 929454 0 89170.6 905612 0 85127.3 882237 0 81222.7 859317 0 77452 836840 0 73811.1 814792 0 70294.7 793163 0 200250 1.67917e+06 0 193482 1.64109e+06 0 186839 1.60374e+06 0 180330 1.56712e+06 0 173961 1.53121e+06 0 167736 1.49601e+06 0 161659 1.46151e+06 0 155734 1.4277e+06 0 149962 1.39456e+06 0 144343 1.3621e+06 0 138879 1.33029e+06 0 133569 1.29912e+06 0 128412 1.26859e+06 0 123406 1.23867e+06 0 118550 1.20936e+06 0 113842 1.18064e+06 0 109279 1.1525e+06 0 104858 1.12493e+06 0 100578 1.09791e+06 0 96433.1 1.07143e+06 0 92422 1.04548e+06 0 88540.9 1.02005e+06 0 84786.3 995113 0 81154.9 970668 0 77643.1 946700 0 74247.5 923196 0 70964.6 900145 0 67791 877534 0 64723.1 855352 0 61757.5 833588 0 58891.1 812229 0 56120 791265 0 147042 1.64006e+06 0 142122 1.60387e+06 0 137298 1.56835e+06 0 132574 1.5335e+06 0 127953 1.49931e+06 0 123437 1.46578e+06 0 119030 1.43289e+06 0 114731 1.40063e+06 0 110544 1.36901e+06 0 106467 1.338e+06 0 102500 1.30759e+06 0 98643.7 1.27779e+06 0 94896.6 1.24857e+06 0 91257.5 1.21992e+06 0 87725.2 1.19184e+06 0 84298.1 1.1643e+06 0 80974.2 1.13731e+06 0 77751.7 1.11084e+06 0 74628.5 1.08489e+06 0 71602.4 1.05944e+06 0 68671.1 1.03448e+06 0 65832.3 1.01001e+06 0 63083.5 985999 0 60422.5 962449 0 57846.7 939345 0 55353.7 916676 0 52941.2 894432 0 50606.6 872600 0 48347.6 851170 0 46161.7 830133 0 44046.8 809476 0 42000.1 789191 0 95950.6 1.60065e+06 0 92775.7 1.56631e+06 0 89664.3 1.5326e+06 0 86618.4 1.49951e+06 0 83640 1.46702e+06 0 80730.4 1.43514e+06 0 77890.5 1.40385e+06 0 75120.9 1.37315e+06 0 72421.9 1.34303e+06 0 69793.6 1.31347e+06 0 67235.6 1.28448e+06 0 64747.5 1.25604e+06 0 62328.7 1.22814e+06 0 59978.3 1.20077e+06 0 57695.5 1.17392e+06 0 55479 1.14758e+06 0 53327.9 1.12174e+06 0 51240.7 1.09639e+06 0 49216.2 1.07151e+06 0 47253 1.04711e+06 0 45349.6 1.02316e+06 0 43504.7 999656 0 41716.7 976589 0 39984.1 953948 0 38305.4 931722 0 36679.1 909902 0 35103.7 888477 0 33577.7 867438 0 32099.6 846774 0 30668 826477 0 29281.4 806537 0 27938.1 786944 0 46945.6 1.56093e+06 0 45410.1 1.52843e+06 0 43906.3 1.49651e+06 0 42434.9 1.46515e+06 0 40996.5 1.43436e+06 0 39591.5 1.40412e+06 0 38220.2 1.37443e+06 0 36882.7 1.34527e+06 0 35579.1 1.31665e+06 0 34309.1 1.28856e+06 0 33072.7 1.26098e+06 0 31869.5 1.23391e+06 0 30699.2 1.20733e+06 0 29561.3 1.18124e+06 0 28455.4 1.15564e+06 0 27380.9 1.1305e+06 0 26337.2 1.10582e+06 0 25323.9 1.0816e+06 0 24340.1 1.05781e+06 0 23385.4 1.03446e+06 0 22458.9 1.01153e+06 0 21560 989009 0 20688.1 966894 0 19842.3 945174 0 19022.1 923839 0 18226.8 902880 0 17455.5 882288 0 16707.7 862054 0 15982.6 842169 0 15279.6 822625 0 14598 803413 0 13937 784526 0 0 1.52091e+06 0 0 1.49024e+06 0 0 1.46009e+06 0 0 1.43046e+06 0 0 1.40135e+06 0 0 1.37274e+06 0 0 1.34464e+06 0 0 1.31704e+06 0 0 1.28992e+06 0 0 1.26328e+06 0 0 1.23711e+06 0 0 1.21141e+06 0 0 1.18616e+06 0 0 1.16137e+06 0 0 1.13701e+06 0 0 1.11308e+06 0 0 1.08957e+06 0 0 1.06648e+06 0 0 1.04379e+06 0 0 1.0215e+06 0 0 999600 0 0 978077 0 0 956926 0 0 936137 0 0 915704 0 0 895617 0 0 875869 0 0 856452 0 0 837358 0 0 818579 0 0 800108 0 0 781937 0 </DataArray> 
</PointData> 
<Points> 
<DataArray type="Float32" NumberOfComponents="3"> 