<?xml version="1.0"?> 
<VTKFile type="StructuredGrid" version="0.1"> 
<StructuredGrid WholeExtent="0 31 0 31 0 0"> 
<Piece Extent="0 31 0 31 0 0"> 
<PointData>
<DataArray type="Float32" Name="|E|" format="ascii" NumberOfComponents="3"> 
3.16588e+06 -1.31135e+06 0 3.29981e+06 -600685 0 3.18601e+06 -156407 0 3.02508e+06 150887 0 2.84763e+06 365446 0 2.67569e+06 516188 0 2.51453e+06 622578 0 2.36615e+06 697380 0 2.23029e+06 749323 0 2.10602e+06 784424 0 1.99217e+06 806922 0 1.88755e+06 819863 0 1.7911e+06 825471 0 1.70188e+06 825398 0 1.61905e+06 820891 0 1.54193e+06 812905 0 1.4699e+06 802177 0 1.40246e+06 789286 0 1.33917e+06 774690 0 1.27964e+06 758754 0 1.22356e+06 741772 0 1.17064e+06 723982 0 1.12063e+06 705577 0 1.07334e+06 686715 0 1.02855e+06 667525 0 986120 648115 0 945886 628571 0 907720 608965 0 871503 589356 0 837125 569792 0 804490 550312 0 773502 530950 0 3.32351e+06 -1.26296e+06 0 3.37316e+06 -543738 0 3.22884e+06 -96403.1 0 3.04791e+06 206428 0 2.85859e+06 414979 0 2.67898e+06 559952 0 2.51281e+06 661225 0 2.3611e+06 731660 0 2.22301e+06 779924 0 2.09722e+06 811935 0 1.98233e+06 831837 0 1.87702e+06 842588 0 1.78013e+06 846342 0 1.69063e+06 844692 0 1.60766e+06 838837 0 1.53049e+06 829692 0 1.45849e+06 817963 0 1.39114e+06 804204 0 1.32797e+06 788852 0 1.26861e+06 772253 0 1.21272e+06 754688 0 1.16001e+06 736382 0 1.11024e+06 717519 0 1.06318e+06 698249 0 1.01865e+06 678694 0 976471 658955 0 936498 639115 0 898595 619240 0 862639 599387 0 828520 579599 0 796140 559915 0 765405 540362 0 3.47241e+06 -1.20264e+06 0 3.44557e+06 -480314 0 3.27002e+06 -33689.4 0 3.06949e+06 263286 0 2.8686e+06 465186 0 2.68157e+06 604058 0 2.5106e+06 700049 0 2.35571e+06 766038 0 2.21548e+06 810585 0 2.08825e+06 839492 0 1.97238e+06 856795 0 1.86643e+06 865360 0 1.76911e+06 867264 0 1.67935e+06 864041 0 1.59625e+06 856840 0 1.51904e+06 846537 0 1.44707e+06 833808 0 1.3798e+06 819178 0 1.31675e+06 803065 0 1.25755e+06 785798 0 1.20184e+06 767643 0 1.14933e+06 748814 0 1.09978e+06 729485 0 1.05295e+06 709798 0 1.00866e+06 689868 0 966727 669791 0 927002 649643 0 889347 629489 0 853640 609380 0 819767 589359 0 787629 569459 0 757130 549707 0 3.61383e+06 -1.13169e+06 0 3.51641e+06 -411091 0 3.30943e+06 31563.2 0 3.0898e+06 321379 0 2.87767e+06 516019 0 2.68349e+06 648480 0 2.50792e+06 739039 0 2.35e+06 800507 0 2.20774e+06 841305 0 2.07914e+06 867097 0 1.96235e+06 881799 0 1.85578e+06 888180 0 1.75806e+06 888239 0 1.66807e+06 883446 0 1.58484e+06 874902 0 1.50759e+06 863442 0 1.43565e+06 849710 0 1.36845e+06 834208 0 1.30553e+06 817329 0 1.24647e+06 799388 0 1.19093e+06 780637 0 1.13862e+06 761277 0 1.08927e+06 741474 0 1.04266e+06 721360 0 998594 701045 0 956891 680619 0 917399 660154 0 879979 639709 0 844505 619334 0 810865 599068 0 778955 578941 0 748680 558979 0 3.74861e+06 -1.0511e+06 0 3.58518e+06 -336579 0 3.34701e+06 99199 0 3.10884e+06 380629 0 2.88583e+06 567434 0 2.68477e+06 693195 0 2.50481e+06 778182 0 2.344e+06 835063 0 2.19981e+06 872084 0 2.06991e+06 894750 0 1.95225e+06 906851 0 1.8451e+06 911052 0 1.747e+06 909269 0 1.65678e+06 902911 0 1.57344e+06 893025 0 1.49615e+06 880409 0 1.42423e+06 865673 0 1.35711e+06 849294 0 1.2943e+06 831645 0 1.23538e+06 813025 0 1.18e+06 793670 0 1.12787e+06 773771 0 1.07871e+06 753484 0 1.03231e+06 732934 0 988449 712224 0 946963 691438 0 907691 670644 0 870491 649899 0 835237 629246 0 801815 608723 0 770120 588358 0 740055 568175 0 3.87729e+06 -961623 0 3.65154e+06 -257228 0 3.38269e+06 169063 0 3.12661e+06 440962 0 2.89309e+06 619388 0 2.68545e+06 738183 0 2.5013e+06 817469 0 2.33774e+06 869704 0 2.19172e+06 902921 0 2.06059e+06 922455 0 1.9421e+06 931955 0 1.8344e+06 933978 0 1.73595e+06 930358 0 1.64551e+06 922436 0 1.56205e+06 911211 0 1.48473e+06 897437 0 1.41283e+06 881696 0 1.34578e+06 864437 0 1.28306e+06 846014 0 1.22427e+06 826708 0 1.16905e+06 806741 0 1.11708e+06 786295 0 1.06811e+06 765514 0 1.02189e+06 744519 0 978229 723403 0 936945 702247 0 897877 681113 0 860884 660055 0 825836 639113 0 792618 618321 0 761124 597707 0 731257 577291 0 4.00018e+06 -863862 0 3.71521e+06 -173422 0 3.41644e+06 241010 0 3.1431e+06 502305 0 2.89948e+06 671845 0 2.68556e+06 783426 0 2.49741e+06 856892 0 2.33124e+06 904425 0 2.18349e+06 933817 0 2.05119e+06 950213 0 1.93192e+06 957112 0 1.82369e+06 956962 0 1.72491e+06 951508 0 1.63426e+06 942025 0 1.55069e+06 929461 0 1.47333e+06 914531 0 1.40145e+06 897782 0 1.33446e+06 879639 0 1.27183e+06 860436 0 1.21316e+06 840436 0 1.15808e+06 819851 0 1.10626e+06 798848 0 1.05745e+06 777566 0 1.01141e+06 756113 0 967935 734582 0 926838 713044 0 887961 691559 0 851159 670176 0 816303 648933 0 783275 627861 0 751969 606986 0 722286 586325 0 4.11743e+06 -758323 0 3.77599e+06 -85500.9 0 3.44824e+06 314899 0 3.15832e+06 564591 0 2.90503e+06 724769 0 2.68511e+06 828906 0 2.49318e+06 896444 0 2.32453e+06 939228 0 2.17514e+06 964775 0 2.04175e+06 978026 0 1.92173e+06 982327 0 1.813e+06 980006 0 1.71389e+06 972722 0 1.62305e+06 961681 0 1.53937e+06 947779 0 1.46197e+06 931691 0 1.3901e+06 913931 0 1.32316e+06 894901 0 1.26062e+06 874912 0 1.20205e+06 854212 0 1.14709e+06 832999 0 1.09542e+06 811431 0 1.04676e+06 789636 0 1.00088e+06 767717 0 957568 745758 0 916644 723827 0 877942 701979 0 841317 680260 0 806638 658703 0 773787 637339 0 742655 616190 0 713144 595272 0 4.22909e+06 -645447 0 3.8337e+06 6229.4 0 3.47805e+06 390598 0 3.17229e+06 627753 0 2.90976e+06 778128 0 2.68416e+06 874610 0 2.48863e+06 936122 0 2.31765e+06 974111 0 2.1667e+06 995797 0 2.03226e+06 1.0059e+06 0 1.91154e+06 1.0076e+06 0 1.80234e+06 1.00312e+06 0 1.70292e+06 994004 0 1.61189e+06 981407 0 1.5281e+06 966168 0 1.45065e+06 948919 0 1.37879e+06 930146 0 1.31188e+06 910223 0 1.24941e+06 889442 0 1.19094e+06 868035 0 1.13609e+06 846187 0 1.08454e+06 824044 0 1.03602e+06 801726 0 990289 779329 0 947132 756932 0 906364 734596 0 867823 712373 0 831361 690304 0 796844 668422 0 764155 646753 0 733184 625317 0 703831 604130 0 4.33513e+06 -525633 0 3.88824e+06 101490 0 3.50588e+06 467982 0 3.18501e+06 691733 0 2.91371e+06 831894 0 2.68273e+06 920525 0 2.4838e+06 975921 0 2.31061e+06 1.00908e+06 0 2.1582e+06 1.02689e+06 0 2.02277e+06 1.03384e+06 0 1.90138e+06 1.03295e+06 0 1.79173e+06 1.02629e+06 0 1.69201e+06 1.01536e+06 0 1.60078e+06 1.00121e+06 0 1.51688e+06 984629 0 1.43939e+06 966219 0 1.36752e+06 946429 0 1.30064e+06 925608 0 1.23823e+06 904028 0 1.17984e+06 881907 0 1.12508e+06 859413 0 1.07365e+06 836686 0 1.02525e+06 813835 0 979647 790949 0 936627 768101 0 896002 745348 0 857606 722738 0 821290 700308 0 786923 678087 0 754381 656100 0 723558 634365 0 694349 612894 0 4.43545e+06 -399257 0 3.93949e+06 200025 0 3.53171e+06 546934 0 3.19651e+06 756473 0 2.9169e+06 886040 0 2.68084e+06 966643 0 2.47871e+06 1.01584e+06 0 2.30344e+06 1.04412e+06 0 2.14964e+06 1.05805e+06 0 2.01328e+06 1.06184e+06 0 1.89126e+06 1.05836e+06 0 1.78117e+06 1.04955e+06 0 1.68116e+06 1.03679e+06 0 1.58974e+06 1.02108e+06 0 1.50574e+06 1.00317e+06 0 1.42818e+06 983592 0 1.3563e+06 962781 0 1.28944e+06 941056 0 1.22707e+06 918672 0 1.16875e+06 895827 0 1.11408e+06 872680 0 1.06274e+06 849358 0 1.01444e+06 825963 0 968955 802577 0 926056 779266 0 885557 756084 0 847291 733073 0 811108 710268 0 776874 687696 0 744467 665378 0 713777 643329 0 684700 621562 0 4.52992e+06 -266684 0 3.98739e+06 301594 0 3.55554e+06 627342 0 3.20681e+06 821921 0 2.91937e+06 940544 0 2.67853e+06 1.01295e+06 0 2.47339e+06 1.05588e+06 0 2.29616e+06 1.07926e+06 0 2.14106e+06 1.08928e+06 0 2.00382e+06 1.08992e+06 0 1.88119e+06 1.08385e+06 0 1.77069e+06 1.07288e+06 0 1.6704e+06 1.0583e+06 0 1.57879e+06 1.04104e+06 0 1.49466e+06 1.02178e+06 0 1.41704e+06 1.00104e+06 0 1.34513e+06 979205 0 1.27828e+06 956571 0 1.21595e+06 933373 0 1.15767e+06 909796 0 1.10307e+06 885986 0 1.05181e+06 862059 0 1.00361e+06 838109 0 958216 814211 0 915422 790425 0 875033 766801 0 836882 743376 0 800816 720183 0 766701 697246 0 734413 674583 0 703843 652208 0 674885 630131 0 4.61841e+06 -128272 0 4.03187e+06 405971 0 3.57737e+06 709101 0 3.21592e+06 888028 0 2.92114e+06 995386 0 2.67583e+06 1.05945e+06 0 2.46787e+06 1.09603e+06 0 2.2888e+06 1.11448e+06 0 2.13248e+06 1.1206e+06 0 1.9944e+06 1.11808e+06 0 1.87119e+06 1.10941e+06 0 1.76029e+06 1.09629e+06 0 1.65972e+06 1.07989e+06 0 1.56793e+06 1.06108e+06 0 1.48368e+06 1.04048e+06 0 1.40598e+06 1.01857e+06 0 1.33404e+06 995702 0 1.26718e+06 972153 0 1.20486e+06 948135 0 1.14662e+06 923817 0 1.09207e+06 899334 0 1.04087e+06 874791 0 992740 850274 0 947432 825851 0 904727 801578 0 864432 777498 0 826379 753647 0 790415 730052 0 756404 706736 0 724222 683714 0 693758 660998 0 664906 638597 0 4.70075e+06 15619.1 0 4.07287e+06 512943 0 3.59721e+06 792111 0 3.22388e+06 954750 0 2.92225e+06 1.05055e+06 0 2.67276e+06 1.10613e+06 0 2.46218e+06 1.13631e+06 0 2.28139e+06 1.1498e+06 0 2.12391e+06 1.152e+06 0 1.98504e+06 1.14632e+06 0 1.86128e+06 1.13507e+06 0 1.74999e+06 1.11979e+06 0 1.64915e+06 1.10157e+06 0 1.55716e+06 1.0812e+06 0 1.47278e+06 1.05926e+06 0 1.395e+06 1.03618e+06 0 1.32301e+06 1.01228e+06 0 1.25613e+06 987804 0 1.19381e+06 962957 0 1.13559e+06 937890 0 1.08107e+06 912723 0 1.02992e+06 887553 0 981849 862457 0 936606 837498 0 893973 812724 0 853757 788175 0 815786 763884 0 779908 739873 0 745986 716163 0 713895 692767 0 683523 669696 0 654764 646957 0 4.77678e+06 164624 0 4.11036e+06 622305 0 3.61506e+06 876280 0 3.2307e+06 1.02205e+06 0 2.92272e+06 1.10601e+06 0 2.66936e+06 1.15299e+06 0 2.45633e+06 1.17671e+06 0 2.27393e+06 1.18522e+06 0 2.11537e+06 1.18349e+06 0 1.97575e+06 1.17466e+06 0 1.85147e+06 1.16081e+06 0 1.73981e+06 1.14338e+06 0 1.63869e+06 1.12334e+06 0 1.54651e+06 1.10142e+06 0 1.46199e+06 1.07814e+06 0 1.38412e+06 1.05387e+06 0 1.31206e+06 1.02893e+06 0 1.24515e+06 1.00353e+06 0 1.18281e+06 977843 0 1.12459e+06 952016 0 1.07009e+06 926155 0 1.01897e+06 900347 0 970936 874660 0 925741 849150 0 883163 823863 0 843008 798831 0 805104 774085 0 769297 749644 0 735449 725526 0 703435 701742 0 673141 678301 0 644462 655207 0 4.84632e+06 318374 0 4.14429e+06 733860 0 3.63093e+06 961517 0 3.23641e+06 1.08988e+06 0 2.92258e+06 1.16177e+06 0 2.66565e+06 1.20003e+06 0 2.45035e+06 1.21723e+06 0 2.26646e+06 1.22075e+06 0 2.10689e+06 1.21508e+06 0 1.96656e+06 1.20309e+06 0 1.84177e+06 1.18666e+06 0 1.72974e+06 1.16707e+06 0 1.62836e+06 1.14522e+06 0 1.53598e+06 1.12174e+06 0 1.45131e+06 1.0971e+06 0 1.37333e+06 1.07166e+06 0 1.3012e+06 1.04566e+06 0 1.23423e+06 1.01932e+06 0 1.17186e+06 992794 0 1.11363e+06 966197 0 1.05913e+06 939631 0 1.00802e+06 913172 0 960005 886882 0 914840 860809 0 872300 834994 0 832190 809466 0 794336 784249 0 758584 759364 0 724795 734822 0 692843 710635 0 662614 686808 0 634002 663346 0 4.90923e+06 476490 0 4.17465e+06 847420 0 3.64483e+06 1.04774e+06 0 3.24103e+06 1.15821e+06 0 2.92186e+06 1.21781e+06 0 2.66164e+06 1.24724e+06 0 2.44426e+06 1.25789e+06 0 2.25899e+06 1.25638e+06 0 2.09847e+06 1.24677e+06 0 1.95748e+06 1.23162e+06 0 1.8322e+06 1.2126e+06 0 1.71982e+06 1.19086e+06 0 1.61816e+06 1.16719e+06 0 1.52558e+06 1.14215e+06 0 1.44075e+06 1.11616e+06 0 1.36265e+06 1.08953e+06 0 1.29042e+06 1.06248e+06 0 1.22339e+06 1.0352e+06 0 1.16097e+06 1.00781e+06 0 1.10271e+06 980434 0 1.04818e+06 953151 0 997067 926030 0 949059 899123 0 903907 872474 0 861387 846117 0 821304 820077 0 783484 794377 0 747771 769031 0 714026 744050 0 682121 719444 0 651943 695216 0 623385 671368 0 4.96534e+06 638587 0 4.20141e+06 962801 0 3.65677e+06 1.13486e+06 0 3.24459e+06 1.22701e+06 0 2.92058e+06 1.27412e+06 0 2.65738e+06 1.29463e+06 0 2.43809e+06 1.29868e+06 0 2.25154e+06 1.29213e+06 0 2.09014e+06 1.27857e+06 0 1.94852e+06 1.26026e+06 0 1.82277e+06 1.23865e+06 0 1.71003e+06 1.21476e+06 0 1.60811e+06 1.18927e+06 0 1.51531e+06 1.16267e+06 0 1.43032e+06 1.13532e+06 0 1.35208e+06 1.1075e+06 0 1.27975e+06 1.07939e+06 0 1.21263e+06 1.05115e+06 0 1.15015e+06 1.0229e+06 0 1.09183e+06 994729 0 1.03727e+06 966718 0 986123 938921 0 938101 911385 0 892943 884145 0 850426 857231 0 810354 830666 0 772551 804465 0 736861 778643 0 703144 753208 0 671272 728167 0 641131 703521 0 612613 679273 0 5.01452e+06 804271 0 4.22455e+06 1.07982e+06 0 3.66676e+06 1.22282e+06 0 3.2471e+06 1.29625e+06 0 2.91876e+06 1.33069e+06 0 2.65287e+06 1.3422e+06 0 2.43185e+06 1.3396e+06 0 2.24413e+06 1.32801e+06 0 2.08191e+06 1.31049e+06 0 1.93969e+06 1.28901e+06 0 1.8135e+06 1.26482e+06 0 1.70041e+06 1.23877e+06 0 1.59821e+06 1.21146e+06 0 1.50519e+06 1.18329e+06 0 1.42002e+06 1.15459e+06 0 1.34163e+06 1.12556e+06 0 1.26917e+06 1.09638e+06 0 1.20195e+06 1.06718e+06 0 1.13938e+06 1.03805e+06 0 1.08099e+06 1.00908e+06 0 1.02638e+06 980332 0 975191 951847 0 927134 923667 0 881952 895823 0 839420 868337 0 799341 841230 0 761538 814515 0 725855 788201 0 692151 762295 0 660298 736802 0 630181 711722 0 601690 687056 0 5.05664e+06 973140 0 4.24405e+06 1.19831e+06 0 3.6748e+06 1.31152e+06 0 3.24859e+06 1.3659e+06 0 2.91642e+06 1.38751e+06 0 2.64814e+06 1.38995e+06 0 2.42555e+06 1.38068e+06 0 2.23677e+06 1.36401e+06 0 2.07379e+06 1.34254e+06 0 1.931e+06 1.31788e+06 0 1.80438e+06 1.2911e+06 0 1.69095e+06 1.2629e+06 0 1.58847e+06 1.23376e+06 0 1.49523e+06 1.20403e+06 0 1.40986e+06 1.17396e+06 0 1.33131e+06 1.14372e+06 0 1.25871e+06 1.11346e+06 0 1.19136e+06 1.08329e+06 0 1.12869e+06 1.05328e+06 0 1.07022e+06 1.0235e+06 0 1.01552e+06 993994 0 964272 964808 0 916162 935970 0 870938 907507 0 828373 879435 0 788269 851771 0 750449 824524 0 714757 797701 0 681051 771308 0 649202 745347 0 619093 719816 0 590617 694715 0 5.09159e+06 1.14478e+06 0 4.25991e+06 1.3181e+06 0 3.68092e+06 1.4009e+06 0 3.24908e+06 1.43593e+06 0 2.91358e+06 1.44458e+06 0 2.64319e+06 1.43787e+06 0 2.41922e+06 1.4219e+06 0 2.22948e+06 1.40015e+06 0 2.06579e+06 1.37471e+06 0 1.92247e+06 1.34688e+06 0 1.79543e+06 1.31751e+06 0 1.68167e+06 1.28715e+06 0 1.57891e+06 1.25618e+06 0 1.48542e+06 1.22488e+06 0 1.39985e+06 1.19343e+06 0 1.32112e+06 1.16199e+06 0 1.24836e+06 1.13064e+06 0 1.18088e+06 1.09949e+06 0 1.11808e+06 1.06858e+06 0 1.05949e+06 1.03797e+06 0 1.00471e+06 1.00771e+06 0 953371 977805 0 905189 948296 0 859903 919198 0 817286 890525 0 777140 862287 0 739287 834492 0 703569 807144 0 669845 780247 0 637985 753799 0 607872 727800 0 579397 702246 0 5.11928e+06 1.31879e+06 0 4.27212e+06 1.43901e+06 0 3.68511e+06 1.4909e+06 0 3.24857e+06 1.50633e+06 0 2.91026e+06 1.50189e+06 0 2.63806e+06 1.48598e+06 0 2.41287e+06 1.46328e+06 0 2.22226e+06 1.43643e+06 0 2.05793e+06 1.40702e+06 0 1.91411e+06 1.37602e+06 0 1.78667e+06 1.34405e+06 0 1.67257e+06 1.31153e+06 0 1.56952e+06 1.27873e+06 0 1.47579e+06 1.24585e+06 0 1.38999e+06 1.21302e+06 0 1.31107e+06 1.18036e+06 0 1.23813e+06 1.14792e+06 0 1.17049e+06 1.11577e+06 0 1.10755e+06 1.08396e+06 0 1.04883e+06 1.05252e+06 0 993930 1.02147e+06 0 942491 990839 0 894218 960645 0 848851 930897 0 806164 901606 0 765957 872778 0 728054 844419 0 692294 816529 0 658536 789109 0 626650 762158 0 596519 735673 0 568033 709648 0 5.13963e+06 1.49473e+06 0 4.28067e+06 1.56088e+06 0 3.68739e+06 1.58144e+06 0 3.24708e+06 1.57706e+06 0 2.90646e+06 1.55944e+06 0 2.63274e+06 1.53428e+06 0 2.40651e+06 1.50482e+06 0 2.21513e+06 1.47286e+06 0 2.05022e+06 1.43947e+06 0 1.90593e+06 1.40529e+06 0 1.7781e+06 1.37073e+06 0 1.66366e+06 1.33604e+06 0 1.56033e+06 1.30141e+06 0 1.46633e+06 1.26694e+06 0 1.3803e+06 1.23273e+06 0 1.30116e+06 1.19883e+06 0 1.22803e+06 1.16529e+06 0 1.16021e+06 1.13215e+06 0 1.09711e+06 1.09941e+06 0 1.03824e+06 1.06712e+06 0 983200 1.03528e+06 0 931637 1.00391e+06 0 883252 973017 0 837785 942604 0 795009 912679 0 754724 883245 0 716752 854303 0 680934 825854 0 647127 797894 0 615201 770421 0 585038 743431 0 556526 716917 0 5.15258e+06 1.67218e+06 0 4.28557e+06 1.68356e+06 0 3.68775e+06 1.67246e+06 0 3.24462e+06 1.64811e+06 0 2.90221e+06 1.61722e+06 0 2.62726e+06 1.58277e+06 0 2.40014e+06 1.54653e+06 0 2.2081e+06 1.50944e+06 0 2.04266e+06 1.47207e+06 0 1.89793e+06 1.4347e+06 0 1.76972e+06 1.39754e+06 0 1.65496e+06 1.36069e+06 0 1.55132e+06 1.32421e+06 0 1.45705e+06 1.28816e+06 0 1.37077e+06 1.25256e+06 0 1.2914e+06 1.21742e+06 0 1.21806e+06 1.18277e+06 0 1.15004e+06 1.14861e+06 0 1.08675e+06 1.11495e+06 0 1.02772e+06 1.0818e+06 0 972519 1.04915e+06 0 920812 1.01703e+06 0 872295 985414 0 826708 954320 0 783824 923744 0 743443 893687 0 705386 864146 0 669493 835118 0 635621 806600 0 603639 778587 0 573429 751073 0 544880 724051 0 5.15809e+06 1.8507e+06 0 4.28681e+06 1.80686e+06 0 3.6862e+06 1.76389e+06 0 3.24121e+06 1.71945e+06 0 2.8975e+06 1.67523e+06 0 2.62162e+06 1.63145e+06 0 2.39379e+06 1.58841e+06 0 2.20118e+06 1.54619e+06 0 2.03526e+06 1.50482e+06 0 1.89013e+06 1.46427e+06 0 1.76155e+06 1.4245e+06 0 1.64645e+06 1.38547e+06 0 1.54251e+06 1.34715e+06 0 1.44796e+06 1.3095e+06 0 1.36142e+06 1.2725e+06 0 1.2818e+06 1.23612e+06 0 1.20822e+06 1.20035e+06 0 1.13998e+06 1.16517e+06 0 1.07649e+06 1.13057e+06 0 1.01727e+06 1.09654e+06 0 961892 1.06308e+06 0 910020 1.03018e+06 0 861350 997836 0 815624 966045 0 772613 934802 0 732117 904104 0 693957 873945 0 657972 844321 0 624019 815226 0 591967 786654 0 561698 758597 0 533098 731048 0 5.15614e+06 2.02987e+06 0 4.28441e+06 1.93064e+06 0 3.68274e+06 1.85567e+06 0 3.23683e+06 1.79106e+06 0 2.89235e+06 1.73346e+06 0 2.61582e+06 1.68032e+06 0 2.38745e+06 1.63046e+06 0 2.19437e+06 1.5831e+06 0 2.02804e+06 1.53773e+06 0 1.88252e+06 1.49398e+06 0 1.75359e+06 1.45161e+06 0 1.63817e+06 1.4104e+06 0 1.53392e+06 1.37023e+06 0 1.43907e+06 1.33098e+06 0 1.35225e+06 1.29257e+06 0 1.27236e+06 1.25494e+06 0 1.19853e+06 1.21804e+06 0 1.13005e+06 1.18182e+06 0 1.06634e+06 1.14627e+06 0 1.0069e+06 1.11136e+06 0 951322 1.07706e+06 0 899264 1.04338e+06 0 850422 1.01028e+06 0 804536 977780 0 761379 945853 0 720749 914496 0 682468 883702 0 646375 853462 0 612326 823771 0 580189 794620 0 549845 766001 0 521182 737904 0 5.14673e+06 2.20924e+06 0 4.27838e+06 2.05474e+06 0 3.67737e+06 1.94774e+06 0 3.23151e+06 1.86292e+06 0 2.88675e+06 1.79192e+06 0 2.60987e+06 1.72939e+06 0 2.38113e+06 1.6727e+06 0 2.18768e+06 1.62019e+06 0 2.02098e+06 1.5708e+06 0 1.87512e+06 1.52386e+06 0 1.74585e+06 1.47886e+06 0 1.6301e+06 1.43548e+06 0 1.52553e+06 1.39345e+06 0 1.43037e+06 1.35259e+06 0 1.34326e+06 1.31277e+06 0 1.26309e+06 1.27388e+06 0 1.18899e+06 1.23583e+06 0 1.12025e+06 1.19857e+06 0 1.05628e+06 1.16206e+06 0 996610 1.12624e+06 0 940815 1.0911e+06 0 888549 1.05662e+06 0 839513 1.02276e+06 0 793448 989527 0 750125 956898 0 709343 924864 0 670923 893415 0 634705 862541 0 600543 832234 0 568306 802484 0 537874 773282 0 509135 744617 0 5.12986e+06 2.38836e+06 0 4.26876e+06 2.17899e+06 0 3.67008e+06 2.04002e+06 0 3.22525e+06 1.935e+06 0 2.88072e+06 1.85058e+06 0 2.60378e+06 1.77865e+06 0 2.37484e+06 1.71512e+06 0 2.18111e+06 1.65744e+06 0 2.01411e+06 1.60405e+06 0 1.86792e+06 1.5539e+06 0 1.73833e+06 1.50628e+06 0 1.62225e+06 1.46071e+06 0 1.51736e+06 1.41681e+06 0 1.42188e+06 1.37434e+06 0 1.33446e+06 1.3331e+06 0 1.25398e+06 1.29293e+06 0 1.17959e+06 1.25374e+06 0 1.11057e+06 1.21543e+06 0 1.04634e+06 1.17793e+06 0 986410 1.1412e+06 0 930372 1.1052e+06 0 877878 1.0699e+06 0 828628 1.03527e+06 0 782363 1.00128e+06 0 738854 967936 0 697901 935207 0 659324 903084 0 622964 871557 0 588674 840614 0 556322 810245 0 525789 780439 0 496960 751186 0 5.10555e+06 2.56678e+06 0 4.25557e+06 2.30325e+06 0 3.66085e+06 2.13245e+06 0 3.21804e+06 2.00729e+06 0 2.87423e+06 1.90945e+06 0 2.59754e+06 1.82812e+06 0 2.36857e+06 1.75774e+06 0 2.17467e+06 1.69488e+06 0 2.00742e+06 1.63747e+06 0 1.86094e+06 1.5841e+06 0 1.73104e+06 1.53386e+06 0 1.61463e+06 1.48609e+06 0 1.50941e+06 1.44032e+06 0 1.4136e+06 1.39623e+06 0 1.32585e+06 1.35356e+06 0 1.24506e+06 1.31211e+06 0 1.17035e+06 1.27175e+06 0 1.10103e+06 1.23238e+06 0 1.03651e+06 1.19389e+06 0 976302 1.15624e+06 0 920000 1.11937e+06 0 867255 1.08323e+06 0 817769 1.0478e+06 0 771283 1.01306e+06 0 727569 978969 0 686426 945526 0 647675 912711 0 611156 880510 0 576721 848910 0 544240 817901 0 513591 787471 0 484660 757608 0 5.07381e+06 2.74402e+06 0 4.2389e+06 2.42738e+06 0 3.64966e+06 2.22496e+06 0 3.20988e+06 2.07976e+06 0 2.8673e+06 1.96852e+06 0 2.59115e+06 1.87778e+06 0 2.36232e+06 1.80054e+06 0 2.16836e+06 1.73251e+06 0 2.00092e+06 1.67106e+06 0 1.85418e+06 1.61447e+06 0 1.72397e+06 1.56159e+06 0 1.60724e+06 1.51162e+06 0 1.50168e+06 1.46398e+06 0 1.40554e+06 1.41826e+06 0 1.31744e+06 1.37415e+06 0 1.23631e+06 1.33141e+06 0 1.16127e+06 1.28989e+06 0 1.09163e+06 1.24943e+06 0 1.0268e+06 1.20995e+06 0 966289 1.17136e+06 0 909701 1.13359e+06 0 856684 1.09661e+06 0 806941 1.06037e+06 0 760214 1.02484e+06 0 716274 989998 0 674922 955822 0 635979 922294 0 599283 889398 0 564688 857122 0 532062 825452 0 501283 794375 0 472238 763880 0 5.03463e+06 2.9196e+06 0 4.21882e+06 2.55122e+06 0 3.63647e+06 2.31747e+06 0 3.2008e+06 2.15238e+06 0 2.8599e+06 2.02778e+06 0 2.58462e+06 1.92765e+06 0 2.35609e+06 1.84354e+06 0 2.16217e+06 1.77032e+06 0 1.9946e+06 1.70483e+06 0 1.84763e+06 1.64502e+06 0 1.71714e+06 1.5895e+06 0 1.60009e+06 1.53732e+06 0 1.49418e+06 1.48779e+06 0 1.39769e+06 1.44043e+06 0 1.30923e+06 1.39487e+06 0 1.22775e+06 1.35084e+06 0 1.15236e+06 1.30813e+06 0 1.08237e+06 1.26659e+06 0 1.01721e+06 1.22609e+06 0 956376 1.18655e+06 0 899479 1.14788e+06 0 846168 1.11004e+06 0 796147 1.07297e+06 0 749157 1.03664e+06 0 704973 1.00102e+06 0 663392 966094 0 624238 931833 0 587348 898223 0 552577 865249 0 519792 832895 0 488870 801150 0 459697 770001 0 4.988e+06 3.09297e+06 0 4.19549e+06 2.67468e+06 0 3.6212e+06 2.40991e+06 0 3.19079e+06 2.22513e+06 0 2.85202e+06 2.08722e+06 0 2.57793e+06 1.97771e+06 0 2.34989e+06 1.88674e+06 0 2.1561e+06 1.80832e+06 0 1.98846e+06 1.73879e+06 0 1.8413e+06 1.67574e+06 0 1.71054e+06 1.61757e+06 0 1.59317e+06 1.56317e+06 0 1.48692e+06 1.51175e+06 0 1.39006e+06 1.46275e+06 0 1.30123e+06 1.41573e+06 0 1.21937e+06 1.3704e+06 0 1.14362e+06 1.3265e+06 0 1.07326e+06 1.28386e+06 0 1.00774e+06 1.24233e+06 0 946566 1.20182e+06 0 889338 1.16224e+06 0 835711 1.12351e+06 0 785390 1.0856e+06 0 738117 1.04845e+06 0 693667 1.01205e+06 0 651839 976344 0 612455 941330 0 575355 906984 0 540391 873289 0 507432 840231 0 476353 807794 0 447041 775970 0 </DataArray> 
</PointData> 
<Points> 
<DataArray type="Float32" NumberOfComponents="3"> 