<?xml version="1.0"?> 
<VTKFile type="StructuredGrid" version="0.1"> 
<StructuredGrid WholeExtent="0 31 0 31 0 0"> 
<Piece Extent="0 31 0 31 0 0"> 
<PointData>
<DataArray type="Float32" Name="|E|" format="ascii" NumberOfComponents="3"> 
-1.44243e+06 1.00123e+06 0 -1.44716e+06 1.01868e+06 0 -1.45195e+06 1.03618e+06 0 -1.45681e+06 1.05372e+06 0 -1.46174e+06 1.07129e+06 0 -1.46673e+06 1.08891e+06 0 -1.47178e+06 1.10656e+06 0 -1.47691e+06 1.12425e+06 0 -1.4821e+06 1.14197e+06 0 -1.48736e+06 1.15972e+06 0 -1.49268e+06 1.1775e+06 0 -1.49809e+06 1.1953e+06 0 -1.50356e+06 1.21313e+06 0 -1.50911e+06 1.23098e+06 0 -1.51474e+06 1.24885e+06 0 -1.52045e+06 1.26673e+06 0 -1.52624e+06 1.28462e+06 0 -1.53212e+06 1.30253e+06 0 -1.53809e+06 1.32044e+06 0 -1.54416e+06 1.33835e+06 0 -1.55032e+06 1.35626e+06 0 -1.55659e+06 1.37417e+06 0 -1.56297e+06 1.39207e+06 0 -1.56947e+06 1.40996e+06 0 -1.57609e+06 1.42784e+06 0 -1.58283e+06 1.4457e+06 0 -1.58972e+06 1.46353e+06 0 -1.59675e+06 1.48134e+06 0 -1.60393e+06 1.49913e+06 0 -1.61128e+06 1.51688e+06 0 -1.6188e+06 1.53459e+06 0 -1.62652e+06 1.55229e+06 0 -1.42653e+06 1.00227e+06 0 -1.43134e+06 1.02024e+06 0 -1.43622e+06 1.03826e+06 0 -1.44117e+06 1.05632e+06 0 -1.44618e+06 1.07442e+06 0 -1.45127e+06 1.09257e+06 0 -1.45643e+06 1.11075e+06 0 -1.46165e+06 1.12897e+06 0 -1.46696e+06 1.14723e+06 0 -1.47233e+06 1.16551e+06 0 -1.47779e+06 1.18383e+06 0 -1.48332e+06 1.20218e+06 0 -1.48893e+06 1.22056e+06 0 -1.49462e+06 1.23896e+06 0 -1.5004e+06 1.25738e+06 0 -1.50627e+06 1.27582e+06 0 -1.51223e+06 1.29427e+06 0 -1.51828e+06 1.31274e+06 0 -1.52444e+06 1.33121e+06 0 -1.53069e+06 1.34969e+06 0 -1.53706e+06 1.36818e+06 0 -1.54354e+06 1.38666e+06 0 -1.55015e+06 1.40514e+06 0 -1.55688e+06 1.42361e+06 0 -1.56375e+06 1.44207e+06 0 -1.57076e+06 1.46052e+06 0 -1.57792e+06 1.47895e+06 0 -1.58524e+06 1.49736e+06 0 -1.59274e+06 1.51575e+06 0 -1.60041e+06 1.53411e+06 0 -1.60828e+06 1.55245e+06 0 -1.61635e+06 1.57075e+06 0 -1.4106e+06 1.00327e+06 0 -1.41549e+06 1.02176e+06 0 -1.42044e+06 1.0403e+06 0 -1.42548e+06 1.05889e+06 0 -1.43058e+06 1.07752e+06 0 -1.43576e+06 1.09619e+06 0 -1.44102e+06 1.11491e+06 0 -1.44635e+06 1.13367e+06 0 -1.45176e+06 1.15246e+06 0 -1.45726e+06 1.1713e+06 0 -1.46283e+06 1.19016e+06 0 -1.46849e+06 1.20906e+06 0 -1.47424e+06 1.22799e+06 0 -1.48007e+06 1.24695e+06 0 -1.486e+06 1.26593e+06 0 -1.49202e+06 1.28493e+06 0 -1.49815e+06 1.30395e+06 0 -1.50437e+06 1.32298e+06 0 -1.51071e+06 1.34203e+06 0 -1.51716e+06 1.36109e+06 0 -1.52373e+06 1.38016e+06 0 -1.53043e+06 1.39922e+06 0 -1.53726e+06 1.41829e+06 0 -1.54423e+06 1.43736e+06 0 -1.55135e+06 1.45642e+06 0 -1.55863e+06 1.47548e+06 0 -1.56607e+06 1.49452e+06 0 -1.57369e+06 1.51354e+06 0 -1.5815e+06 1.53256e+06 0 -1.5895e+06 1.55155e+06 0 -1.59772e+06 1.57052e+06 0 -1.60617e+06 1.58947e+06 0 -1.39464e+06 1.00421e+06 0 -1.3996e+06 1.02323e+06 0 -1.40463e+06 1.04229e+06 0 -1.40974e+06 1.06141e+06 0 -1.41493e+06 1.08057e+06 0 -1.4202e+06 1.09978e+06 0 -1.42556e+06 1.11904e+06 0 -1.43099e+06 1.13834e+06 0 -1.43651e+06 1.15768e+06 0 -1.44212e+06 1.17706e+06 0 -1.44781e+06 1.19648e+06 0 -1.4536e+06 1.21594e+06 0 -1.45948e+06 1.23543e+06 0 -1.46545e+06 1.25494e+06 0 -1.47153e+06 1.27449e+06 0 -1.47771e+06 1.29406e+06 0 -1.484e+06 1.31366e+06 0 -1.4904e+06 1.33327e+06 0 -1.49692e+06 1.3529e+06 0 -1.50356e+06 1.37255e+06 0 -1.51033e+06 1.39221e+06 0 -1.51725e+06 1.41187e+06 0 -1.5243e+06 1.43154e+06 0 -1.53151e+06 1.45122e+06 0 -1.53888e+06 1.47089e+06 0 -1.54643e+06 1.49056e+06 0 -1.55415e+06 1.51023e+06 0 -1.56207e+06 1.52989e+06 0 -1.5702e+06 1.54955e+06 0 -1.57854e+06 1.56919e+06 0 -1.58712e+06 1.58882e+06 0 -1.59594e+06 1.60844e+06 0 -1.37864e+06 1.00511e+06 0 -1.38367e+06 1.02465e+06 0 -1.38877e+06 1.04424e+06 0 -1.39396e+06 1.06389e+06 0 -1.39924e+06 1.08359e+06 0 -1.4046e+06 1.10334e+06 0 -1.41004e+06 1.12314e+06 0 -1.41558e+06 1.14299e+06 0 -1.4212e+06 1.16288e+06 0 -1.42692e+06 1.18282e+06 0 -1.43273e+06 1.20279e+06 0 -1.43864e+06 1.22281e+06 0 -1.44465e+06 1.24286e+06 0 -1.45077e+06 1.26295e+06 0 -1.45699e+06 1.28307e+06 0 -1.46332e+06 1.30322e+06 0 -1.46977e+06 1.3234e+06 0 -1.47634e+06 1.3436e+06 0 -1.48305e+06 1.36382e+06 0 -1.48988e+06 1.38407e+06 0 -1.49686e+06 1.40433e+06 0 -1.50398e+06 1.4246e+06 0 -1.51127e+06 1.44488e+06 0 -1.51872e+06 1.46518e+06 0 -1.52634e+06 1.48548e+06 0 -1.53415e+06 1.50579e+06 0 -1.54216e+06 1.5261e+06 0 -1.55039e+06 1.54641e+06 0 -1.55883e+06 1.56673e+06 0 -1.56751e+06 1.58704e+06 0 -1.57645e+06 1.60736e+06 0 -1.58565e+06 1.62768e+06 0 -1.36261e+06 1.00595e+06 0 -1.3677e+06 1.02602e+06 0 -1.37288e+06 1.04615e+06 0 -1.37814e+06 1.06633e+06 0 -1.3835e+06 1.08657e+06 0 -1.38894e+06 1.10687e+06 0 -1.39448e+06 1.12721e+06 0 -1.40011e+06 1.14761e+06 0 -1.40584e+06 1.16806e+06 0 -1.41166e+06 1.18855e+06 0 -1.41759e+06 1.20909e+06 0 -1.42362e+06 1.22968e+06 0 -1.42976e+06 1.2503e+06 0 -1.43601e+06 1.27097e+06 0 -1.44237e+06 1.29167e+06 0 -1.44886e+06 1.3124e+06 0 -1.45547e+06 1.33317e+06 0 -1.46221e+06 1.35397e+06 0 -1.46909e+06 1.37479e+06 0 -1.47612e+06 1.39564e+06 0 -1.4833e+06 1.41651e+06 0 -1.49064e+06 1.43741e+06 0 -1.49815e+06 1.45832e+06 0 -1.50584e+06 1.47925e+06 0 -1.51372e+06 1.50019e+06 0 -1.5218e+06 1.52115e+06 0 -1.53009e+06 1.54212e+06 0 -1.53861e+06 1.56311e+06 0 -1.54738e+06 1.5841e+06 0 -1.5564e+06 1.60511e+06 0 -1.5657e+06 1.62614e+06 0 -1.57528e+06 1.64718e+06 0 -1.34655e+06 1.00673e+06 0 -1.3517e+06 1.02734e+06 0 -1.35694e+06 1.048e+06 0 -1.36228e+06 1.06873e+06 0 -1.36771e+06 1.08951e+06 0 -1.37324e+06 1.11036e+06 0 -1.37886e+06 1.13126e+06 0 -1.38458e+06 1.15221e+06 0 -1.39041e+06 1.17322e+06 0 -1.39634e+06 1.19428e+06 0 -1.40238e+06 1.21538e+06 0 -1.40853e+06 1.23654e+06 0 -1.41479e+06 1.25774e+06 0 -1.42118e+06 1.27899e+06 0 -1.42768e+06 1.30028e+06 0 -1.43432e+06 1.32161e+06 0 -1.44109e+06 1.34297e+06 0 -1.448e+06 1.36437e+06 0 -1.45506e+06 1.38581e+06 0 -1.46227e+06 1.40728e+06 0 -1.46965e+06 1.42877e+06 0 -1.4772e+06 1.4503e+06 0 -1.48494e+06 1.47185e+06 0 -1.49286e+06 1.49342e+06 0 -1.501e+06 1.51503e+06 0 -1.50935e+06 1.53665e+06 0 -1.51793e+06 1.5583e+06 0 -1.52675e+06 1.57998e+06 0 -1.53583e+06 1.60168e+06 0 -1.5452e+06 1.6234e+06 0 -1.55485e+06 1.64516e+06 0 -1.56482e+06 1.66695e+06 0 -1.33045e+06 1.00747e+06 0 -1.33566e+06 1.02861e+06 0 -1.34096e+06 1.04981e+06 0 -1.34637e+06 1.07108e+06 0 -1.35187e+06 1.09242e+06 0 -1.35748e+06 1.11381e+06 0 -1.36319e+06 1.13526e+06 0 -1.369e+06 1.15678e+06 0 -1.37492e+06 1.17835e+06 0 -1.38096e+06 1.19998e+06 0 -1.3871e+06 1.22166e+06 0 -1.39337e+06 1.2434e+06 0 -1.39976e+06 1.26518e+06 0 -1.40627e+06 1.28702e+06 0 -1.41291e+06 1.3089e+06 0 -1.4197e+06 1.33083e+06 0 -1.42662e+06 1.3528e+06 0 -1.4337e+06 1.37482e+06 0 -1.44094e+06 1.39687e+06 0 -1.44834e+06 1.41897e+06 0 -1.45591e+06 1.4411e+06 0 -1.46367e+06 1.46326e+06 0 -1.47163e+06 1.48547e+06 0 -1.47979e+06 1.50771e+06 0 -1.48818e+06 1.52998e+06 0 -1.49679e+06 1.55229e+06 0 -1.50566e+06 1.57464e+06 0 -1.51478e+06 1.59702e+06 0 -1.52418e+06 1.61944e+06 0 -1.53388e+06 1.64191e+06 0 -1.5439e+06 1.66442e+06 0 -1.55425e+06 1.68699e+06 0 -1.31431e+06 1.00815e+06 0 -1.31957e+06 1.02983e+06 0 -1.32494e+06 1.05158e+06 0 -1.33041e+06 1.07339e+06 0 -1.33599e+06 1.09528e+06 0 -1.34167e+06 1.11723e+06 0 -1.34746e+06 1.13924e+06 0 -1.35336e+06 1.16132e+06 0 -1.35937e+06 1.18346e+06 0 -1.36551e+06 1.20566e+06 0 -1.37176e+06 1.22792e+06 0 -1.37814e+06 1.25024e+06 0 -1.38464e+06 1.27262e+06 0 -1.39128e+06 1.29505e+06 0 -1.39807e+06 1.31753e+06 0 -1.40499e+06 1.34007e+06 0 -1.41207e+06 1.36266e+06 0 -1.41931e+06 1.38529e+06 0 -1.42672e+06 1.40798e+06 0 -1.43431e+06 1.43071e+06 0 -1.44208e+06 1.45349e+06 0 -1.45005e+06 1.47631e+06 0 -1.45822e+06 1.49918e+06 0 -1.46662e+06 1.52209e+06 0 -1.47525e+06 1.54506e+06 0 -1.48413e+06 1.56807e+06 0 -1.49327e+06 1.59113e+06 0 -1.5027e+06 1.61424e+06 0 -1.51242e+06 1.63741e+06 0 -1.52245e+06 1.66064e+06 0 -1.53282e+06 1.68393e+06 0 -1.54355e+06 1.7073e+06 0 -1.29814e+06 1.00878e+06 0 -1.30345e+06 1.031e+06 0 -1.30888e+06 1.05329e+06 0 -1.31441e+06 1.07566e+06 0 -1.32005e+06 1.0981e+06 0 -1.3258e+06 1.1206e+06 0 -1.33167e+06 1.14318e+06 0 -1.33766e+06 1.16583e+06 0 -1.34376e+06 1.18854e+06 0 -1.34999e+06 1.21132e+06 0 -1.35635e+06 1.23417e+06 0 -1.36283e+06 1.25708e+06 0 -1.36946e+06 1.28005e+06 0 -1.37622e+06 1.30308e+06 0 -1.38314e+06 1.32618e+06 0 -1.3902e+06 1.34933e+06 0 -1.39743e+06 1.37254e+06 0 -1.40483e+06 1.39581e+06 0 -1.41241e+06 1.41913e+06 0 -1.42018e+06 1.44251e+06 0 -1.42814e+06 1.46594e+06 0 -1.43631e+06 1.48943e+06 0 -1.44471e+06 1.51298e+06 0 -1.45333e+06 1.53659e+06 0 -1.46221e+06 1.56025e+06 0 -1.47135e+06 1.58398e+06 0 -1.48077e+06 1.60777e+06 0 -1.49048e+06 1.63163e+06 0 -1.50052e+06 1.65557e+06 0 -1.51088e+06 1.67959e+06 0 -1.5216e+06 1.70369e+06 0 -1.5327e+06 1.7279e+06 0 -1.28193e+06 1.00935e+06 0 -1.2873e+06 1.03212e+06 0 -1.29277e+06 1.05496e+06 0 -1.29836e+06 1.07788e+06 0 -1.30407e+06 1.10087e+06 0 -1.30989e+06 1.12394e+06 0 -1.31583e+06 1.14709e+06 0 -1.3219e+06 1.17031e+06 0 -1.32809e+06 1.1936e+06 0 -1.33441e+06 1.21697e+06 0 -1.34086e+06 1.2404e+06 0 -1.34746e+06 1.26391e+06 0 -1.35419e+06 1.28748e+06 0 -1.36108e+06 1.31112e+06 0 -1.36812e+06 1.33483e+06 0 -1.37533e+06 1.3586e+06 0 -1.3827e+06 1.38245e+06 0 -1.39026e+06 1.40635e+06 0 -1.398e+06 1.43032e+06 0 -1.40594e+06 1.45436e+06 0 -1.41409e+06 1.47846e+06 0 -1.42247e+06 1.50263e+06 0 -1.43107e+06 1.52687e+06 0 -1.43993e+06 1.55118e+06 0 -1.44904e+06 1.57556e+06 0 -1.45844e+06 1.60002e+06 0 -1.46813e+06 1.62457e+06 0 -1.47814e+06 1.6492e+06 0 -1.48847e+06 1.67392e+06 0 -1.49916e+06 1.69875e+06 0 -1.51023e+06 1.72369e+06 0 -1.5217e+06 1.74876e+06 0 -1.26569e+06 1.00987e+06 0 -1.2711e+06 1.03318e+06 0 -1.27663e+06 1.05657e+06 0 -1.28227e+06 1.08005e+06 0 -1.28804e+06 1.10361e+06 0 -1.29392e+06 1.12724e+06 0 -1.29994e+06 1.15096e+06 0 -1.30608e+06 1.17476e+06 0 -1.31235e+06 1.19863e+06 0 -1.31876e+06 1.22258e+06 0 -1.32531e+06 1.24661e+06 0 -1.332e+06 1.27072e+06 0 -1.33885e+06 1.2949e+06 0 -1.34585e+06 1.31916e+06 0 -1.35302e+06 1.34349e+06 0 -1.36036e+06 1.36789e+06 0 -1.36788e+06 1.39237e+06 0 -1.37558e+06 1.41693e+06 0 -1.38349e+06 1.44156e+06 0 -1.3916e+06 1.46626e+06 0 -1.39994e+06 1.49104e+06 0 -1.40851e+06 1.5159e+06 0 -1.41732e+06 1.54085e+06 0 -1.4264e+06 1.56587e+06 0 -1.43575e+06 1.59099e+06 0 -1.44539e+06 1.6162e+06 0 -1.45535e+06 1.64152e+06 0 -1.46564e+06 1.66694e+06 0 -1.47627e+06 1.69247e+06 0 -1.48728e+06 1.71814e+06 0 -1.49868e+06 1.74394e+06 0 -1.51051e+06 1.7699e+06 0 -1.24941e+06 1.01033e+06 0 -1.25487e+06 1.03419e+06 0 -1.26044e+06 1.05814e+06 0 -1.26613e+06 1.08218e+06 0 -1.27195e+06 1.1063e+06 0 -1.2779e+06 1.1305e+06 0 -1.28398e+06 1.1548e+06 0 -1.2902e+06 1.17917e+06 0 -1.29655e+06 1.20363e+06 0 -1.30304e+06 1.22818e+06 0 -1.30968e+06 1.25281e+06 0 -1.31648e+06 1.27752e+06 0 -1.32343e+06 1.30231e+06 0 -1.33054e+06 1.32719e+06 0 -1.33783e+06 1.35215e+06 0 -1.3453e+06 1.37719e+06 0 -1.35295e+06 1.40232e+06 0 -1.36081e+06 1.42753e+06 0 -1.36887e+06 1.45282e+06 0 -1.37715e+06 1.47821e+06 0 -1.38567e+06 1.50368e+06 0 -1.39443e+06 1.52924e+06 0 -1.40344e+06 1.5549e+06 0 -1.41273e+06 1.58067e+06 0 -1.42231e+06 1.60653e+06 0 -1.4322e+06 1.63251e+06 0 -1.44242e+06 1.65861e+06 0 -1.45298e+06 1.68484e+06 0 -1.46391e+06 1.71121e+06 0 -1.47522e+06 1.73774e+06 0 -1.48695e+06 1.76443e+06 0 -1.49912e+06 1.79131e+06 0 -1.2331e+06 1.01074e+06 0 -1.23859e+06 1.03515e+06 0 -1.24421e+06 1.05966e+06 0 -1.24995e+06 1.08426e+06 0 -1.25582e+06 1.10894e+06 0 -1.26183e+06 1.13372e+06 0 -1.26797e+06 1.15859e+06 0 -1.27426e+06 1.18356e+06 0 -1.28068e+06 1.20861e+06 0 -1.28726e+06 1.23375e+06 0 -1.29398e+06 1.25898e+06 0 -1.30087e+06 1.2843e+06 0 -1.30792e+06 1.30972e+06 0 -1.31515e+06 1.33522e+06 0 -1.32255e+06 1.36082e+06 0 -1.33014e+06 1.3865e+06 0 -1.33793e+06 1.41228e+06 0 -1.34593e+06 1.43816e+06 0 -1.35415e+06 1.46413e+06 0 -1.36259e+06 1.4902e+06 0 -1.37128e+06 1.51637e+06 0 -1.38022e+06 1.54265e+06 0 -1.38943e+06 1.56904e+06 0 -1.39893e+06 1.59555e+06 0 -1.40873e+06 1.62218e+06 0 -1.41886e+06 1.64895e+06 0 -1.42932e+06 1.67585e+06 0 -1.44015e+06 1.70291e+06 0 -1.45136e+06 1.73014e+06 0 -1.46297e+06 1.75755e+06 0 -1.47501e+06 1.78515e+06 0 -1.48751e+06 1.81298e+06 0 -1.21676e+06 1.01109e+06 0 -1.22228e+06 1.03606e+06 0 -1.22794e+06 1.06112e+06 0 -1.23372e+06 1.08629e+06 0 -1.23964e+06 1.11155e+06 0 -1.2457e+06 1.1369e+06 0 -1.25191e+06 1.16235e+06 0 -1.25825e+06 1.1879e+06 0 -1.26475e+06 1.21355e+06 0 -1.2714e+06 1.23929e+06 0 -1.27821e+06 1.26513e+06 0 -1.28519e+06 1.29107e+06 0 -1.29234e+06 1.31711e+06 0 -1.29967e+06 1.34324e+06 0 -1.30718e+06 1.36948e+06 0 -1.31489e+06 1.39582e+06 0 -1.32281e+06 1.42226e+06 0 -1.33095e+06 1.44881e+06 0 -1.33931e+06 1.47547e+06 0 -1.34791e+06 1.50223e+06 0 -1.35676e+06 1.52912e+06 0 -1.36588e+06 1.55612e+06 0 -1.37528e+06 1.58326e+06 0 -1.38499e+06 1.61053e+06 0 -1.395e+06 1.63794e+06 0 -1.40535e+06 1.6655e+06 0 -1.41606e+06 1.69323e+06 0 -1.42714e+06 1.72114e+06 0 -1.43862e+06 1.74924e+06 0 -1.45051e+06 1.77756e+06 0 -1.46286e+06 1.80611e+06 0 -1.47567e+06 1.83491e+06 0 -1.20038e+06 1.01138e+06 0 -1.20593e+06 1.03691e+06 0 -1.21162e+06 1.06254e+06 0 -1.21745e+06 1.08827e+06 0 -1.22342e+06 1.1141e+06 0 -1.22953e+06 1.14003e+06 0 -1.23578e+06 1.16607e+06 0 -1.24219e+06 1.19221e+06 0 -1.24876e+06 1.21846e+06 0 -1.25548e+06 1.24481e+06 0 -1.26237e+06 1.27126e+06 0 -1.26943e+06 1.29782e+06 0 -1.27667e+06 1.32449e+06 0 -1.2841e+06 1.35126e+06 0 -1.29172e+06 1.37815e+06 0 -1.29955e+06 1.40514e+06 0 -1.30759e+06 1.43225e+06 0 -1.31585e+06 1.45948e+06 0 -1.32435e+06 1.48683e+06 0 -1.33311e+06 1.51431e+06 0 -1.34212e+06 1.54191e+06 0 -1.35141e+06 1.56966e+06 0 -1.36099e+06 1.59754e+06 0 -1.37089e+06 1.62559e+06 0 -1.38111e+06 1.65379e+06 0 -1.39168e+06 1.68218e+06 0 -1.40261e+06 1.71075e+06 0 -1.41394e+06 1.73952e+06 0 -1.42567e+06 1.76852e+06 0 -1.43784e+06 1.79777e+06 0 -1.45046e+06 1.82728e+06 0 -1.46357e+06 1.85709e+06 0 -1.18397e+06 1.01162e+06 0 -1.18955e+06 1.03771e+06 0 -1.19527e+06 1.0639e+06 0 -1.20113e+06 1.0902e+06 0 -1.20714e+06 1.11661e+06 0 -1.2133e+06 1.14312e+06 0 -1.2196e+06 1.16975e+06 0 -1.22607e+06 1.19649e+06 0 -1.23269e+06 1.22333e+06 0 -1.23949e+06 1.25029e+06 0 -1.24645e+06 1.27736e+06 0 -1.25359e+06 1.30455e+06 0 -1.26092e+06 1.33185e+06 0 -1.26844e+06 1.35927e+06 0 -1.27617e+06 1.38681e+06 0 -1.2841e+06 1.41447e+06 0 -1.29226e+06 1.44225e+06 0 -1.30065e+06 1.47017e+06 0 -1.30929e+06 1.49822e+06 0 -1.31818e+06 1.52641e+06 0 -1.32735e+06 1.55475e+06 0 -1.3368e+06 1.58325e+06 0 -1.34656e+06 1.6119e+06 0 -1.35664e+06 1.64073e+06 0 -1.36705e+06 1.66975e+06 0 -1.37783e+06 1.69896e+06 0 -1.38898e+06 1.72839e+06 0 -1.40053e+06 1.75806e+06 0 -1.41251e+06 1.78798e+06 0 -1.42493e+06 1.81817e+06 0 -1.43782e+06 1.84868e+06 0 -1.45121e+06 1.87952e+06 0 -1.16752e+06 1.0118e+06 0 -1.17313e+06 1.03845e+06 0 -1.17888e+06 1.06521e+06 0 -1.18477e+06 1.09208e+06 0 -1.19082e+06 1.11907e+06 0 -1.19701e+06 1.14617e+06 0 -1.20337e+06 1.17339e+06 0 -1.20989e+06 1.20072e+06 0 -1.21657e+06 1.22817e+06 0 -1.22342e+06 1.25574e+06 0 -1.23046e+06 1.28344e+06 0 -1.23768e+06 1.31125e+06 0 -1.24509e+06 1.33919e+06 0 -1.2527e+06 1.36726e+06 0 -1.26052e+06 1.39546e+06 0 -1.26855e+06 1.42379e+06 0 -1.27682e+06 1.45226e+06 0 -1.28533e+06 1.48088e+06 0 -1.2941e+06 1.50964e+06 0 -1.30313e+06 1.53855e+06 0 -1.31244e+06 1.56763e+06 0 -1.32205e+06 1.59689e+06 0 -1.33197e+06 1.62632e+06 0 -1.34222e+06 1.65595e+06 0 -1.35282e+06 1.68579e+06 0 -1.36379e+06 1.71585e+06 0 -1.37515e+06 1.74616e+06 0 -1.38692e+06 1.77673e+06 0 -1.39912e+06 1.80759e+06 0 -1.41178e+06 1.83876e+06 0 -1.42491e+06 1.87028e+06 0 -1.43855e+06 1.90218e+06 0 -1.15104e+06 1.01192e+06 0 -1.15667e+06 1.03913e+06 0 -1.16244e+06 1.06646e+06 0 -1.16837e+06 1.09391e+06 0 -1.17444e+06 1.12148e+06 0 -1.18068e+06 1.14917e+06 0 -1.18708e+06 1.17698e+06 0 -1.19364e+06 1.20492e+06 0 -1.20038e+06 1.23298e+06 0 -1.20729e+06 1.26117e+06 0 -1.21439e+06 1.28948e+06 0 -1.22168e+06 1.31793e+06 0 -1.22917e+06 1.34652e+06 0 -1.23686e+06 1.37524e+06 0 -1.24477e+06 1.4041e+06 0 -1.25291e+06 1.43311e+06 0 -1.26128e+06 1.46228e+06 0 -1.2699e+06 1.49159e+06 0 -1.27879e+06 1.52107e+06 0 -1.28794e+06 1.55072e+06 0 -1.29739e+06 1.58055e+06 0 -1.30715e+06 1.61058e+06 0 -1.31722e+06 1.6408e+06 0 -1.32764e+06 1.67124e+06 0 -1.33841e+06 1.70192e+06 0 -1.34957e+06 1.73284e+06 0 -1.36111e+06 1.76404e+06 0 -1.37308e+06 1.79553e+06 0 -1.38549e+06 1.82735e+06 0 -1.39837e+06 1.85952e+06 0 -1.41173e+06 1.89207e+06 0 -1.4256e+06 1.92506e+06 0 -1.13453e+06 1.01199e+06 0 -1.14017e+06 1.03977e+06 0 -1.14597e+06 1.06767e+06 0 -1.15192e+06 1.09569e+06 0 -1.15802e+06 1.12384e+06 0 -1.16429e+06 1.15212e+06 0 -1.17073e+06 1.18053e+06 0 -1.17734e+06 1.20907e+06 0 -1.18413e+06 1.23774e+06 0 -1.19109e+06 1.26655e+06 0 -1.19825e+06 1.2955e+06 0 -1.20561e+06 1.32459e+06 0 -1.21316e+06 1.35382e+06 0 -1.22094e+06 1.3832e+06 0 -1.22893e+06 1.41274e+06 0 -1.23716e+06 1.44243e+06 0 -1.24563e+06 1.47229e+06 0 -1.25436e+06 1.50232e+06 0 -1.26335e+06 1.53252e+06 0 -1.27263e+06 1.56292e+06 0 -1.28221e+06 1.59351e+06 0 -1.2921e+06 1.62431e+06 0 -1.30232e+06 1.65534e+06 0 -1.31289e+06 1.6866e+06 0 -1.32382e+06 1.71813e+06 0 -1.33514e+06 1.74993e+06 0 -1.34687e+06 1.78203e+06 0 -1.35902e+06 1.81447e+06 0 -1.37162e+06 1.84726e+06 0 -1.38469e+06 1.88044e+06 0 -1.39824e+06 1.91406e+06 0 -1.41232e+06 1.94815e+06 0 -1.11799e+06 1.012e+06 0 -1.12364e+06 1.04034e+06 0 -1.12945e+06 1.06881e+06 0 -1.13542e+06 1.09742e+06 0 -1.14156e+06 1.12616e+06 0 -1.14786e+06 1.15503e+06 0 -1.15433e+06 1.18404e+06 0 -1.16098e+06 1.21318e+06 0 -1.16781e+06 1.24247e+06 0 -1.17482e+06 1.2719e+06 0 -1.18204e+06 1.30149e+06 0 -1.18945e+06 1.33122e+06 0 -1.19708e+06 1.3611e+06 0 -1.20492e+06 1.39115e+06 0 -1.21299e+06 1.42136e+06 0 -1.2213e+06 1.45174e+06 0 -1.22987e+06 1.4823e+06 0 -1.23869e+06 1.51305e+06 0 -1.24779e+06 1.54399e+06 0 -1.25718e+06 1.57513e+06 0 -1.26688e+06 1.60649e+06 0 -1.2769e+06 1.63808e+06 0 -1.28725e+06 1.66992e+06 0 -1.29796e+06 1.70202e+06 0 -1.30904e+06 1.73441e+06 0 -1.32051e+06 1.7671e+06 0 -1.3324e+06 1.80013e+06 0 -1.34471e+06 1.83352e+06 0 -1.35748e+06 1.8673e+06 0 -1.37072e+06 1.90152e+06 0 -1.38446e+06 1.93621e+06 0 -1.39871e+06 1.97143e+06 0 -1.10142e+06 1.01195e+06 0 -1.10708e+06 1.04086e+06 0 -1.1129e+06 1.06991e+06 0 -1.11889e+06 1.09909e+06 0 -1.12504e+06 1.12842e+06 0 -1.13137e+06 1.15788e+06 0 -1.13787e+06 1.1875e+06 0 -1.14455e+06 1.21725e+06 0 -1.15142e+06 1.24716e+06 0 -1.15849e+06 1.27722e+06 0 -1.16575e+06 1.30744e+06 0 -1.17322e+06 1.33782e+06 0 -1.1809e+06 1.36836e+06 0 -1.18881e+06 1.39908e+06 0 -1.19696e+06 1.42997e+06 0 -1.20535e+06 1.46104e+06 0 -1.21399e+06 1.49231e+06 0 -1.22291e+06 1.52378e+06 0 -1.23211e+06 1.55546e+06 0 -1.2416e+06 1.58736e+06 0 -1.25141e+06 1.6195e+06 0 -1.26154e+06 1.65189e+06 0 -1.27201e+06 1.68455e+06 0 -1.28285e+06 1.7175e+06 0 -1.29406e+06 1.75076e+06 0 -1.30568e+06 1.78435e+06 0 -1.3177e+06 1.81831e+06 0 -1.33017e+06 1.85267e+06 0 -1.34308e+06 1.88747e+06 0 -1.35647e+06 1.92274e+06 0 -1.37035e+06 1.95853e+06 0 -1.38475e+06 1.9949e+06 0 -1.08482e+06 1.01184e+06 0 -1.09048e+06 1.04132e+06 0 -1.09631e+06 1.07095e+06 0 -1.10231e+06 1.10072e+06 0 -1.10849e+06 1.13063e+06 0 -1.11483e+06 1.16069e+06 0 -1.12136e+06 1.19091e+06 0 -1.12807e+06 1.22128e+06 0 -1.13498e+06 1.25181e+06 0 -1.14208e+06 1.2825e+06 0 -1.14939e+06 1.31336e+06 0 -1.1569e+06 1.34438e+06 0 -1.16464e+06 1.37559e+06 0 -1.17261e+06 1.40698e+06 0 -1.18082e+06 1.43856e+06 0 -1.18929e+06 1.47033e+06 0 -1.19801e+06 1.50231e+06 0 -1.20701e+06 1.53451e+06 0 -1.21629e+06 1.56694e+06 0 -1.22588e+06 1.5996e+06 0 -1.23578e+06 1.63253e+06 0 -1.24602e+06 1.66573e+06 0 -1.25661e+06 1.69921e+06 0 -1.26756e+06 1.73302e+06 0 -1.27889e+06 1.76716e+06 0 -1.29062e+06 1.80167e+06 0 -1.30278e+06 1.83658e+06 0 -1.31536e+06 1.87193e+06 0 -1.32841e+06 1.90775e+06 0 -1.34192e+06 1.94409e+06 0 -1.35592e+06 1.98099e+06 0 -1.37042e+06 2.01853e+06 0 -1.06818e+06 1.01167e+06 0 -1.07385e+06 1.04173e+06 0 -1.07969e+06 1.07193e+06 0 -1.0857e+06 1.10229e+06 0 -1.09188e+06 1.13279e+06 0 -1.09825e+06 1.16345e+06 0 -1.10479e+06 1.19428e+06 0 -1.11153e+06 1.22526e+06 0 -1.11847e+06 1.25641e+06 0 -1.1256e+06 1.28774e+06 0 -1.13295e+06 1.31924e+06 0 -1.14051e+06 1.35092e+06 0 -1.1483e+06 1.38279e+06 0 -1.15633e+06 1.41486e+06 0 -1.16459e+06 1.44712e+06 0 -1.17312e+06 1.4796e+06 0 -1.18191e+06 1.5123e+06 0 -1.19098e+06 1.54524e+06 0 -1.20035e+06 1.57842e+06 0 -1.21002e+06 1.61186e+06 0 -1.22001e+06 1.64557e+06 0 -1.23034e+06 1.67959e+06 0 -1.24103e+06 1.71391e+06 0 -1.25208e+06 1.74858e+06 0 -1.26351e+06 1.78362e+06 0 -1.27535e+06 1.81906e+06 0 -1.28761e+06 1.85493e+06 0 -1.3003e+06 1.89127e+06 0 -1.31345e+06 1.92813e+06 0 -1.32706e+06 1.96555e+06 0 -1.34115e+06 2.00359e+06 0 -1.35573e+06 2.0423e+06 0 -1.05152e+06 1.01145e+06 0 -1.05719e+06 1.04208e+06 0 -1.06302e+06 1.07286e+06 0 -1.06904e+06 1.1038e+06 0 -1.07523e+06 1.1349e+06 0 -1.08161e+06 1.16616e+06 0 -1.08818e+06 1.19759e+06 0 -1.09494e+06 1.2292e+06 0 -1.1019e+06 1.26097e+06 0 -1.10906e+06 1.29293e+06 0 -1.11644e+06 1.32508e+06 0 -1.12404e+06 1.35742e+06 0 -1.13187e+06 1.38996e+06 0 -1.13995e+06 1.42271e+06 0 -1.14827e+06 1.45567e+06 0 -1.15685e+06 1.48886e+06 0 -1.1657e+06 1.52228e+06 0 -1.17484e+06 1.55596e+06 0 -1.18427e+06 1.5899e+06 0 -1.19402e+06 1.62411e+06 0 -1.20409e+06 1.65863e+06 0 -1.2145e+06 1.69346e+06 0 -1.22527e+06 1.72864e+06 0 -1.23641e+06 1.76418e+06 0 -1.24793e+06 1.80013e+06 0 -1.25986e+06 1.8365e+06 0 -1.2722e+06 1.87334e+06 0 -1.28498e+06 1.91069e+06 0 -1.2982e+06 1.9486e+06 0 -1.31188e+06 1.98711e+06 0 -1.32602e+06 2.0263e+06 0 -1.34065e+06 2.06621e+06 0 -1.03483e+06 1.01116e+06 0 -1.04049e+06 1.04237e+06 0 -1.04633e+06 1.07373e+06 0 -1.05234e+06 1.10526e+06 0 -1.05854e+06 1.13696e+06 0 -1.06493e+06 1.16882e+06 0 -1.0715e+06 1.20086e+06 0 -1.07828e+06 1.23308e+06 0 -1.08526e+06 1.26549e+06 0 -1.09245e+06 1.29809e+06 0 -1.09986e+06 1.33089e+06 0 -1.10749e+06 1.36389e+06 0 -1.11536e+06 1.3971e+06 0 -1.12347e+06 1.43053e+06 0 -1.13184e+06 1.46419e+06 0 -1.14047e+06 1.49809e+06 0 -1.14938e+06 1.53224e+06 0 -1.15857e+06 1.56667e+06 0 -1.16807e+06 1.60137e+06 0 -1.17788e+06 1.63637e+06 0 -1.18802e+06 1.67169e+06 0 -1.1985e+06 1.70736e+06 0 -1.20934e+06 1.74339e+06 0 -1.22055e+06 1.77981e+06 0 -1.23214e+06 1.81667e+06 0 -1.24414e+06 1.85399e+06 0 -1.25655e+06 1.89181e+06 0 -1.26938e+06 1.93018e+06 0 -1.28265e+06 1.96915e+06 0 -1.29637e+06 2.00877e+06 0 -1.31055e+06 2.0491e+06 0 -1.32518e+06 2.09022e+06 0 -1.01811e+06 1.01082e+06 0 -1.02376e+06 1.0426e+06 0 -1.02959e+06 1.07455e+06 0 -1.0356e+06 1.10667e+06 0 -1.0418e+06 1.13896e+06 0 -1.0482e+06 1.17143e+06 0 -1.05478e+06 1.20408e+06 0 -1.06157e+06 1.23693e+06 0 -1.06857e+06 1.26996e+06 0 -1.07577e+06 1.3032e+06 0 -1.08321e+06 1.33665e+06 0 -1.09087e+06 1.37031e+06 0 -1.09877e+06 1.4042e+06 0 -1.10691e+06 1.43832e+06 0 -1.11532e+06 1.47268e+06 0 -1.12399e+06 1.5073e+06 0 -1.13294e+06 1.54219e+06 0 -1.14219e+06 1.57736e+06 0 -1.15173e+06 1.61283e+06 0 -1.1616e+06 1.64862e+06 0 -1.17179e+06 1.68476e+06 0 -1.18233e+06 1.72126e+06 0 -1.19323e+06 1.75815e+06 0 -1.20449e+06 1.79547e+06 0 -1.21614e+06 1.83324e+06 0 -1.22819e+06 1.87151e+06 0 -1.24064e+06 1.91032e+06 0 -1.25351e+06 1.94972e+06 0 -1.26681e+06 1.98975e+06 0 -1.28054e+06 2.03049e+06 0 -1.2947e+06 2.07199e+06 0 -1.3093e+06 2.11432e+06 0 -1.00136e+06 1.01042e+06 0 -1.007e+06 1.04278e+06 0 -1.01282e+06 1.07531e+06 0 -1.01883e+06 1.10802e+06 0 -1.02503e+06 1.14091e+06 0 -1.03142e+06 1.17398e+06 0 -1.03801e+06 1.20725e+06 0 -1.0448e+06 1.24072e+06 0 -1.05181e+06 1.27439e+06 0 -1.05903e+06 1.30827e+06 0 -1.06648e+06 1.34237e+06 0 -1.07416e+06 1.3767e+06 0 -1.08209e+06 1.41126e+06 0 -1.09026e+06 1.44607e+06 0 -1.0987e+06 1.48114e+06 0 -1.1074e+06 1.51648e+06 0 -1.11639e+06 1.55211e+06 0 -1.12568e+06 1.58803e+06 0 -1.13527e+06 1.62428e+06 0 -1.14517e+06 1.66087e+06 0 -1.15541e+06 1.69782e+06 0 -1.16599e+06 1.73516e+06 0 -1.17693e+06 1.77292e+06 0 -1.18824e+06 1.81113e+06 0 -1.19993e+06 1.84983e+06 0 -1.212e+06 1.88906e+06 0 -1.22448e+06 1.92887e+06 0 -1.23736e+06 1.9693e+06 0 -1.25066e+06 2.01041e+06 0 -1.26437e+06 2.05227e+06 0 -1.27849e+06 2.09494e+06 0 -1.29302e+06 2.1385e+06 0 -984589 1.00996e+06 0 -990212 1.0429e+06 0 -996020 1.07601e+06 0 -1.00202e+06 1.10931e+06 0 -1.00821e+06 1.1428e+06 0 -1.01459e+06 1.17648e+06 0 -1.02118e+06 1.21037e+06 0 -1.02798e+06 1.24446e+06 0 -1.03499e+06 1.27877e+06 0 -1.04222e+06 1.31329e+06 0 -1.04969e+06 1.34805e+06 0 -1.05738e+06 1.38305e+06 0 -1.06533e+06 1.41829e+06 0 -1.07352e+06 1.4538e+06 0 -1.08198e+06 1.48957e+06 0 -1.09071e+06 1.52564e+06 0 -1.09973e+06 1.562e+06 0 -1.10905e+06 1.59869e+06 0 -1.11867e+06 1.63571e+06 0 -1.12861e+06 1.6731e+06 0 -1.13888e+06 1.71087e+06 0 -1.14949e+06 1.74906e+06 0 -1.16046e+06 1.78769e+06 0 -1.17179e+06 1.8268e+06 0 -1.1835e+06 1.86644e+06 0 -1.19559e+06 1.90663e+06 0 -1.20806e+06 1.94744e+06 0 -1.22093e+06 1.98891e+06 0 -1.2342e+06 2.03111e+06 0 -1.24786e+06 2.07409e+06 0 -1.2619e+06 2.11793e+06 0 -1.27632e+06 2.16272e+06 0 -967790 1.00945e+06 0 -973393 1.04296e+06 0 -979184 1.07666e+06 0 -985167 1.11055e+06 0 -991346 1.14464e+06 0 -997725 1.17893e+06 0 -1.00431e+06 1.21344e+06 0 -1.0111e+06 1.24815e+06 0 -1.01812e+06 1.2831e+06 0 -1.02535e+06 1.31827e+06 0 -1.03282e+06 1.35368e+06 0 -1.04053e+06 1.38935e+06 0 -1.04848e+06 1.42528e+06 0 -1.05669e+06 1.46148e+06 0 -1.06517e+06 1.49797e+06 0 -1.07392e+06 1.53476e+06 0 -1.08296e+06 1.57187e+06 0 -1.09229e+06 1.60932e+06 0 -1.10194e+06 1.64712e+06 0 -1.1119e+06 1.68531e+06 0 -1.12219e+06 1.72391e+06 0 -1.13282e+06 1.76295e+06 0 -1.1438e+06 1.80246e+06 0 -1.15514e+06 1.84248e+06 0 -1.16685e+06 1.88305e+06 0 -1.17893e+06 1.92421e+06 0 -1.19139e+06 1.96603e+06 0 -1.20422e+06 2.00854e+06 0 -1.21743e+06 2.05182e+06 0 -1.23101e+06 2.09593e+06 0 -1.24494e+06 2.14095e+06 0 -1.25921e+06 2.18696e+06 0 -950966 1.00887e+06 0 -956546 1.04297e+06 0 -962316 1.07725e+06 0 -968281 1.11174e+06 0 -974445 1.14643e+06 0 -980811 1.18133e+06 0 -987386 1.21645e+06 0 -994174 1.25179e+06 0 -1.00118e+06 1.28737e+06 0 -1.00842e+06 1.3232e+06 0 -1.01589e+06 1.35927e+06 0 -1.0236e+06 1.39561e+06 0 -1.03155e+06 1.43222e+06 0 -1.03977e+06 1.46912e+06 0 -1.04826e+06 1.50633e+06 0 -1.05702e+06 1.54385e+06 0 -1.06607e+06 1.5817e+06 0 -1.07542e+06 1.61992e+06 0 -1.08507e+06 1.65851e+06 0 -1.09505e+06 1.69751e+06 0 -1.10535e+06 1.73693e+06 0 -1.11598e+06 1.77683e+06 0 -1.12697e+06 1.81722e+06 0 -1.1383e+06 1.85814e+06 0 -1.14999e+06 1.89965e+06 0 -1.16204e+06 1.94179e+06 0 -1.17446e+06 1.98461e+06 0 -1.18723e+06 2.02818e+06 0 -1.20035e+06 2.07254e+06 0 -1.21381e+06 2.11779e+06 0 -1.2276e+06 2.16398e+06 0 -1.24167e+06 2.21121e+06 0 -934116 1.00824e+06 0 -939671 1.04291e+06 0 -945417 1.07778e+06 0 -951361 1.11286e+06 0 -957505 1.14816e+06 0 -963855 1.18367e+06 0 -970415 1.21941e+06 0 -977192 1.25538e+06 0 -984191 1.2916e+06 0 -991419 1.32808e+06 0 -998882 1.36481e+06 0 -1.00659e+06 1.40183e+06 0 -1.01455e+06 1.43913e+06 0 -1.02277e+06 1.47673e+06 0 -1.03126e+06 1.51465e+06 0 -1.04002e+06 1.5529e+06 0 -1.04907e+06 1.5915e+06 0 -1.05843e+06 1.63049e+06 0 -1.06808e+06 1.66987e+06 0 -1.07806e+06 1.70967e+06 0 -1.08835e+06 1.74993e+06 0 -1.09898e+06 1.79068e+06 0 -1.10995e+06 1.83196e+06 0 -1.12126e+06 1.8738e+06 0 -1.13291e+06 1.91625e+06 0 -1.14492e+06 1.95936e+06 0 -1.15726e+06 2.00319e+06 0 -1.16995e+06 2.0478e+06 0 -1.18296e+06 2.09326e+06 0 -1.19628e+06 2.13963e+06 0 -1.20988e+06 2.187e+06 0 -1.22373e+06 2.23544e+06 0 </DataArray> 
</PointData> 
<Points> 
<DataArray type="Float32" NumberOfComponents="3"> 