<?xml version="1.0"?> 
<VTKFile type="StructuredGrid" version="0.1"> 
<StructuredGrid WholeExtent="0 31 0 31 0 0"> 
<Piece Extent="0 31 0 31 0 0"> 
<PointData>
<DataArray type="Float32" Name="|E|" format="ascii" NumberOfComponents="3"> 
2.08977e+06 -833560 0 2.20456e+06 -701704 0 2.29141e+06 -543482 0 2.33805e+06 -372885 0 2.34447e+06 -207216 0 2.31883e+06 -58426.7 0 2.27107e+06 68543.2 0 2.2095e+06 173406 0 2.14015e+06 258084 0 2.06707e+06 325270 0 1.99289e+06 377705 0 1.91926e+06 417886 0 1.84718e+06 447966 0 1.77723e+06 469755 0 1.70972e+06 484755 0 1.64478e+06 494198 0 1.58246e+06 499100 0 1.52274e+06 500292 0 1.46555e+06 498457 0 1.4108e+06 494159 0 1.35842e+06 487860 0 1.30831e+06 479943 0 1.26037e+06 470725 0 1.21451e+06 460468 0 1.17066e+06 449391 0 1.12872e+06 437673 0 1.08862e+06 425465 0 1.05029e+06 412891 0 1.01367e+06 400055 0 978680 387041 0 945270 373921 0 913381 360752 0 2.10718e+06 -840503 0 2.22465e+06 -705667 0 2.31257e+06 -543087 0 2.35811e+06 -367998 0 2.36197e+06 -198829 0 2.33323e+06 -47817.2 0 2.28245e+06 80338.2 0 2.21821e+06 185683 0 2.14658e+06 270409 0 2.07161e+06 337392 0 1.99588e+06 389490 0 1.92098e+06 429271 0 1.84786e+06 458931 0 1.77705e+06 480305 0 1.70884e+06 494904 0 1.64333e+06 503970 0 1.58055e+06 508517 0 1.52044e+06 509378 0 1.46294e+06 507234 0 1.40794e+06 502646 0 1.35536e+06 496075 0 1.30508e+06 487901 0 1.25701e+06 478439 0 1.21106e+06 467950 0 1.16713e+06 456649 0 1.12513e+06 444716 0 1.085e+06 432299 0 1.04665e+06 419522 0 1.01001e+06 406487 0 975023 393279 0 941620 379967 0 909745 366609 0 2.12498e+06 -847602 0 2.24528e+06 -709598 0 2.33425e+06 -542402 0 2.37854e+06 -362635 0 2.37963e+06 -189915 0 2.34764e+06 -36717.8 0 2.29376e+06 92553.9 0 2.22679e+06 198309 0 2.15287e+06 283018 0 2.076e+06 349742 0 1.99872e+06 401459 0 1.92255e+06 440805 0 1.8484e+06 470017 0 1.77675e+06 490951 0 1.70785e+06 505131 0 1.64178e+06 513802 0 1.57853e+06 517982 0 1.51805e+06 518501 0 1.46024e+06 516039 0 1.405e+06 511153 0 1.35221e+06 504304 0 1.30178e+06 495867 0 1.25359e+06 486156 0 1.20753e+06 475430 0 1.16353e+06 463902 0 1.12148e+06 451751 0 1.08131e+06 439123 0 1.04294e+06 426140 0 1.0063e+06 412905 0 971306 399501 0 937911 385996 0 906051 372448 0 2.14319e+06 -854866 0 2.26647e+06 -713490 0 2.35647e+06 -541401 0 2.39932e+06 -356766 0 2.39744e+06 -180452 0 2.36206e+06 -25117.1 0 2.30499e+06 105195 0 2.23524e+06 211282 0 2.159e+06 295907 0 2.08023e+06 362318 0 2.0014e+06 413609 0 1.92397e+06 452484 0 1.8488e+06 481218 0 1.77632e+06 501689 0 1.70674e+06 515431 0 1.64011e+06 523693 0 1.57641e+06 527493 0 1.51556e+06 527659 0 1.45745e+06 524870 0 1.40197e+06 519680 0 1.34899e+06 512544 0 1.2984e+06 503840 0 1.25009e+06 493876 0 1.20394e+06 482908 0 1.15987e+06 471150 0 1.11777e+06 458777 0 1.07757e+06 445935 0 1.03917e+06 432745 0 1.00252e+06 419308 0 967529 405706 0 934143 392007 0 902298 378268 0 2.16183e+06 -862304 0 2.28826e+06 -717335 0 2.37926e+06 -540054 0 2.42047e+06 -350359 0 2.41539e+06 -170420 0 2.37647e+06 -13004.4 0 2.31611e+06 118264 0 2.24355e+06 224605 0 2.16498e+06 309075 0 2.0843e+06 375117 0 2.00392e+06 425936 0 1.92525e+06 464304 0 1.84905e+06 492533 0 1.77575e+06 512518 0 1.7055e+06 525804 0 1.63833e+06 533641 0 1.57419e+06 537048 0 1.51298e+06 536851 0 1.45458e+06 533725 0 1.39886e+06 528223 0 1.34569e+06 520796 0 1.29494e+06 511818 0 1.24651e+06 501596 0 1.20028e+06 490383 0 1.15613e+06 478392 0 1.11399e+06 465794 0 1.07375e+06 452736 0 1.03534e+06 439336 0 998678 425695 0 963692 411893 0 930316 397999 0 898487 384068 0 2.18094e+06 -869927 0 2.31069e+06 -721122 0 2.40263e+06 -538330 0 2.44196e+06 -343380 0 2.43345e+06 -159796 0 2.39084e+06 -369.57 0 2.32712e+06 131766 0 2.2517e+06 238274 0 2.17078e+06 322521 0 2.0882e+06 388136 0 2.00628e+06 438438 0 1.92636e+06 476263 0 1.84917e+06 503957 0 1.77505e+06 523434 0 1.70414e+06 536245 0 1.63644e+06 543643 0 1.57186e+06 546644 0 1.5103e+06 546074 0 1.45161e+06 542603 0 1.39565e+06 536781 0 1.3423e+06 529057 0 1.29141e+06 519800 0 1.24286e+06 509315 0 1.19654e+06 497854 0 1.15233e+06 485625 0 1.11014e+06 472801 0 1.06988e+06 459524 0 1.03145e+06 445912 0 994778 432065 0 959794 418063 0 926429 403972 0 894617 389848 0 2.20055e+06 -877746 0 2.33378e+06 -724840 0 2.42661e+06 -536194 0 2.4638e+06 -335795 0 2.45163e+06 -148560 0 2.40516e+06 12796.7 0 2.33799e+06 145702 0 2.25968e+06 252290 0 2.17639e+06 336239 0 2.09191e+06 401370 0 2.00846e+06 451110 0 1.92732e+06 488357 0 1.84913e+06 515488 0 1.77421e+06 534434 0 1.70266e+06 546751 0 1.63443e+06 553695 0 1.56942e+06 556279 0 1.50751e+06 555326 0 1.44854e+06 551502 0 1.39236e+06 545353 0 1.33883e+06 537325 0 1.2878e+06 527785 0 1.23914e+06 517033 0 1.19273e+06 505320 0 1.14846e+06 492850 0 1.10623e+06 479796 0 1.06593e+06 466298 0 1.02749e+06 452473 0 990815 438418 0 955836 424213 0 922483 409925 0 890689 395607 0 2.22067e+06 -885773 0 2.3576e+06 -728475 0 2.45122e+06 -533606 0 2.48598e+06 -327566 0 2.46988e+06 -136691 0 2.41941e+06 26503 0 2.34872e+06 160074 0 2.26747e+06 266650 0 2.18182e+06 350227 0 2.09543e+06 414815 0 2.01047e+06 463948 0 1.9281e+06 500580 0 1.84894e+06 527122 0 1.77323e+06 545515 0 1.70104e+06 557321 0 1.63229e+06 563796 0 1.56687e+06 565951 0 1.50462e+06 564604 0 1.44538e+06 560419 0 1.38899e+06 553937 0 1.33528e+06 545600 0 1.28411e+06 535771 0 1.23534e+06 524748 0 1.18885e+06 512778 0 1.14452e+06 500066 0 1.10225e+06 486779 0 1.06193e+06 473057 0 1.02347e+06 459017 0 986791 444753 0 951817 430345 0 918477 415858 0 886701 401345 0 2.24135e+06 -894022 0 2.38217e+06 -732012 0 2.47647e+06 -530522 0 2.50849e+06 -318654 0 2.48819e+06 -124168 0 2.43357e+06 40756.8 0 2.35927e+06 174882 0 2.27507e+06 281351 0 2.18704e+06 364481 0 2.09876e+06 428467 0 2.01229e+06 476947 0 1.92872e+06 512930 0 1.84859e+06 538854 0 1.77211e+06 556672 0 1.69929e+06 567950 0 1.63004e+06 573943 0 1.56421e+06 575657 0 1.50163e+06 573908 0 1.44213e+06 569354 0 1.38552e+06 562532 0 1.33164e+06 553879 0 1.28034e+06 543757 0 1.23147e+06 532459 0 1.1849e+06 520230 0 1.14051e+06 507271 0 1.0982e+06 493749 0 1.05785e+06 479802 0 1.01938e+06 465543 0 982704 451069 0 947738 436456 0 914411 421769 0 882655 407060 0 2.26262e+06 -902508 0 2.40757e+06 -735429 0 2.50239e+06 -526895 0 2.5313e+06 -309020 0 2.50653e+06 -110971 0 2.44761e+06 55564.9 0 2.36964e+06 190127 0 2.28245e+06 296391 0 2.19204e+06 378996 0 2.10188e+06 442321 0 2.01391e+06 490103 0 1.92916e+06 525402 0 1.84808e+06 550681 0 1.77084e+06 567903 0 1.69741e+06 578636 0 1.62767e+06 584132 0 1.56144e+06 585395 0 1.49854e+06 583234 0 1.43877e+06 578303 0 1.38196e+06 571134 0 1.32791e+06 562162 0 1.27648e+06 551741 0 1.22752e+06 540164 0 1.18087e+06 527672 0 1.13643e+06 514464 0 1.09408e+06 500704 0 1.05371e+06 486530 0 1.01523e+06 472052 0 978555 457365 0 943597 442546 0 910286 427658 0 878550 412753 0 2.28453e+06 -911247 0 2.43383e+06 -738706 0 2.529e+06 -522671 0 2.5544e+06 -298623 0 2.52488e+06 -97083 0 2.46151e+06 70932.5 0 2.3798e+06 205808 0 2.28961e+06 311764 0 2.19682e+06 393767 0 2.10479e+06 456372 0 2.01534e+06 503410 0 1.92942e+06 537991 0 1.84741e+06 562598 0 1.76942e+06 579203 0 1.69539e+06 589375 0 1.62517e+06 594361 0 1.55855e+06 595162 0 1.49534e+06 592580 0 1.43532e+06 587265 0 1.37831e+06 579744 0 1.32411e+06 570446 0 1.27255e+06 559722 0 1.22349e+06 547862 0 1.17677e+06 535104 0 1.13228e+06 521644 0 1.0899e+06 507645 0 1.04951e+06 493240 0 1.01102e+06 478542 0 974344 463642 0 939396 448615 0 906100 433525 0 874387 418422 0 2.30713e+06 -920258 0 2.46102e+06 -741813 0 2.5563e+06 -517792 0 2.57777e+06 -287419 0 2.54321e+06 -82485.5 0 2.47525e+06 86863.7 0 2.38974e+06 221922 0 2.29653e+06 327468 0 2.20137e+06 408789 0 2.10748e+06 470614 0 2.01657e+06 516864 0 1.92949e+06 550693 0 1.84657e+06 574602 0 1.76785e+06 590570 0 1.69324e+06 600164 0 1.62254e+06 604628 0 1.55555e+06 604956 0 1.49203e+06 601945 0 1.43177e+06 596238 0 1.37456e+06 588358 0 1.32021e+06 578729 0 1.26854e+06 567699 0 1.21938e+06 555553 0 1.1726e+06 542526 0 1.12806e+06 528811 0 1.08564e+06 514569 0 1.04524e+06 499933 0 1.00674e+06 485012 0 970070 469897 0 935133 454662 0 901855 439369 0 870164 424068 0 2.33045e+06 -929563 0 2.48921e+06 -744721 0 2.58431e+06 -512193 0 2.60137e+06 -275367 0 2.56148e+06 -67163.2 0 2.4888e+06 103361 0 2.39944e+06 238465 0 2.3032e+06 343494 0 2.20568e+06 424055 0 2.10994e+06 485041 0 2.01759e+06 530459 0 1.92938e+06 563502 0 1.84556e+06 586688 0 1.76613e+06 601999 0 1.69094e+06 610999 0 1.61979e+06 614928 0 1.55243e+06 614773 0 1.48862e+06 611325 0 1.42812e+06 605220 0 1.37073e+06 596976 0 1.31623e+06 587011 0 1.26444e+06 575670 0 1.2152e+06 563234 0 1.16835e+06 549935 0 1.12377e+06 535963 0 1.08132e+06 521477 0 1.0409e+06 506607 0 1.0024e+06 491462 0 965734 476130 0 930809 460686 0 897550 445189 0 865883 429689 0 2.35457e+06 -939183 0 2.51847e+06 -747388 0 2.61304e+06 -505803 0 2.62517e+06 -262425 0 2.57967e+06 -51102.2 0 2.50213e+06 120427 0 2.40888e+06 255435 0 2.3096e+06 359839 0 2.20973e+06 439558 0 2.11217e+06 499647 0 2.0184e+06 544189 0 1.92907e+06 576414 0 1.84437e+06 598851 0 1.76424e+06 613486 0 1.6885e+06 621878 0 1.61691e+06 625260 0 1.54919e+06 624612 0 1.48509e+06 620718 0 1.42437e+06 614209 0 1.3668e+06 605594 0 1.31215e+06 595290 0 1.26026e+06 583634 0 1.21093e+06 570904 0 1.16403e+06 557330 0 1.11941e+06 543099 0 1.07693e+06 528366 0 1.0365e+06 513261 0 997998 497890 0 961335 482341 0 926424 466686 0 893185 450984 0 861543 435284 0 2.37955e+06 -949147 0 2.54887e+06 -749771 0 2.64247e+06 -498545 0 2.64913e+06 -248550 0 2.59773e+06 -34290.8 0 2.51523e+06 138060 0 2.41805e+06 272825 0 2.31573e+06 376494 0 2.21351e+06 455293 0 2.11416e+06 514426 0 2.01899e+06 558049 0 1.92857e+06 589423 0 1.84301e+06 611088 0 1.7622e+06 625027 0 1.68592e+06 632796 0 1.61389e+06 635619 0 1.54583e+06 634469 0 1.48146e+06 630122 0 1.42052e+06 623202 0 1.36277e+06 614212 0 1.30799e+06 603563 0 1.25599e+06 591589 0 1.20659e+06 578563 0 1.15963e+06 564710 0 1.11497e+06 550217 0 1.07247e+06 535236 0 1.03203e+06 519895 0 993528 504296 0 956874 488528 0 921978 472661 0 888761 456754 0 857144 440854 0 2.40547e+06 -959486 0 2.58049e+06 -751814 0 2.67262e+06 -490334 0 2.6732e+06 -233704 0 2.61563e+06 -16719.3 0 2.52806e+06 156259 0 2.42691e+06 290629 0 2.32156e+06 393452 0 2.21703e+06 471251 0 2.11589e+06 529370 0 2.01936e+06 572032 0 1.92787e+06 602524 0 1.84147e+06 623392 0 1.76e+06 636619 0 1.68319e+06 643750 0 1.61075e+06 646003 0 1.54235e+06 644342 0 1.47772e+06 639535 0 1.41657e+06 632197 0 1.35865e+06 622828 0 1.30375e+06 611830 0 1.25165e+06 599533 0 1.20217e+06 586207 0 1.15516e+06 572075 0 1.11046e+06 557317 0 1.06795e+06 542086 0 1.02749e+06 526506 0 988993 510680 0 952350 494692 0 917471 478612 0 884276 462498 0 852686 446398 0 2.43242e+06 -970236 0 2.61343e+06 -753451 0 2.70345e+06 -481081 0 2.69733e+06 -217847 0 2.63334e+06 1618.98 0 2.5406e+06 175021 0 2.43545e+06 308839 0 2.32708e+06 410705 0 2.22026e+06 487424 0 2.11738e+06 544472 0 2.0195e+06 586132 0 1.92697e+06 615711 0 1.83975e+06 635760 0 1.75764e+06 648256 0 1.68032e+06 654737 0 1.60747e+06 656409 0 1.53875e+06 654228 0 1.47386e+06 648953 0 1.41251e+06 641193 0 1.35444e+06 631438 0 1.29941e+06 620088 0 1.24722e+06 607465 0 1.19767e+06 593838 0 1.15061e+06 579422 0 1.10588e+06 564399 0 1.06335e+06 548915 0 1.02289e+06 533095 0 984394 517039 0 947763 500830 0 912903 484537 0 879732 468216 0 848170 451914 0 2.46051e+06 -981440 0 2.64778e+06 -754605 0 2.73493e+06 -470687 0 2.72147e+06 -200946 0 2.65081e+06 20728.6 0 2.55282e+06 194340 0 2.44367e+06 327447 0 2.33229e+06 428244 0 2.22321e+06 503804 0 2.11861e+06 559725 0 2.01941e+06 600342 0 1.92586e+06 628979 0 1.83785e+06 648187 0 1.75511e+06 659935 0 1.6773e+06 665752 0 1.60406e+06 666834 0 1.53503e+06 664125 0 1.4699e+06 658376 0 1.40835e+06 650187 0 1.35013e+06 640043 0 1.29498e+06 628335 0 1.2427e+06 615385 0 1.1931e+06 601451 0 1.14599e+06 586751 0 1.10123e+06 571459 0 1.05868e+06 555722 0 1.01822e+06 539661 0 979731 523373 0 943113 506942 0 908274 490435 0 875128 473907 0 843595 457402 0 2.48986e+06 -993148 0 2.68364e+06 -755181 0 2.76703e+06 -459048 0 2.74554e+06 -182971 0 2.66801e+06 40611.2 0 2.56469e+06 214210 0 2.45153e+06 346443 0 2.33718e+06 446059 0 2.22586e+06 520382 0 2.11957e+06 575121 0 2.01908e+06 614656 0 1.92454e+06 642322 0 1.83576e+06 660667 0 1.75242e+06 671652 0 1.67413e+06 676792 0 1.60051e+06 677274 0 1.53119e+06 674029 0 1.46582e+06 667799 0 1.40409e+06 659177 0 1.34572e+06 648639 0 1.29047e+06 636571 0 1.2381e+06 623289 0 1.18844e+06 609048 0 1.14129e+06 594060 0 1.09651e+06 578498 0 1.05395e+06 562506 0 1.01348e+06 546201 0 975003 529682 0 938401 513028 0 903583 496306 0 870464 479569 0 838962 462862 0 2.52064e+06 -1.00542e+06 0 2.7211e+06 -755067 0 2.79968e+06 -446057 0 2.7695e+06 -163897 0 2.6849e+06 61265.7 0 2.57618e+06 234622 0 2.45902e+06 365815 0 2.34172e+06 464139 0 2.2282e+06 537148 0 2.12026e+06 590651 0 2.01852e+06 629066 0 1.92301e+06 655733 0 1.83348e+06 673196 0 1.74955e+06 683402 0 1.67081e+06 687854 0 1.59683e+06 687725 0 1.52722e+06 683937 0 1.46163e+06 677221 0 1.39972e+06 668161 0 1.34122e+06 657225 0 1.28586e+06 644794 0 1.23342e+06 631176 0 1.1837e+06 616625 0 1.13652e+06 601348 0 1.09171e+06 585514 0 1.04914e+06 569265 0 1.00868e+06 552717 0 970211 535964 0 933626 519087 0 898832 502148 0 865741 485203 0 834271 468293 0 2.55302e+06 -1.01834e+06 0 2.76027e+06 -754126 0 2.83281e+06 -431600 0 2.79326e+06 -143708 0 2.70143e+06 82688.8 0 2.58726e+06 255565 0 2.46612e+06 385552 0 2.34591e+06 482474 0 2.23023e+06 554093 0 2.12068e+06 606309 0 2.01771e+06 643566 0 1.92127e+06 669208 0 1.83102e+06 685769 0 1.74653e+06 695180 0 1.66734e+06 698933 0 1.59301e+06 698186 0 1.52313e+06 693848 0 1.45732e+06 686640 0 1.39525e+06 677136 0 1.33662e+06 665798 0 1.28116e+06 653000 0 1.22865e+06 639046 0 1.17888e+06 624182 0 1.13167e+06 608614 0 1.08684e+06 592507 0 1.04427e+06 576000 0 1.00381e+06 559206 0 965354 542219 0 928789 525117 0 894020 507962 0 860959 490807 0 829522 473695 0 2.58724e+06 -1.03199e+06 0 2.80125e+06 -752194 0 2.8663e+06 -415565 0 2.81676e+06 -122394 0 2.71758e+06 104875 0 2.59792e+06 277027 0 2.47282e+06 405641 0 2.34973e+06 501052 0 2.23194e+06 571207 0 2.12081e+06 622085 0 2.01666e+06 658149 0 1.91931e+06 682740 0 1.82836e+06 698380 0 1.74333e+06 706983 0 1.66372e+06 710026 0 1.58906e+06 708652 0 1.51891e+06 703757 0 1.4529e+06 696052 0 1.39067e+06 686101 0 1.33192e+06 674358 0 1.27638e+06 661190 0 1.2238e+06 646896 0 1.17398e+06 631718 0 1.12674e+06 615856 0 1.0819e+06 599474 0 1.03933e+06 582708 0 998876 565668 0 960433 548446 0 923890 531118 0 889147 513747 0 856117 496382 0 824715 479065 0 2.62359e+06 -1.04649e+06 0 2.84412e+06 -749075 0 2.90004e+06 -397840 0 2.83994e+06 -99953.8 0 2.73329e+06 127815 0 2.60811e+06 298992 0 2.4791e+06 426067 0 2.35319e+06 519861 0 2.23333e+06 588480 0 2.12067e+06 637970 0 2.01536e+06 672807 0 1.91713e+06 696323 0 1.82551e+06 711023 0 1.73996e+06 718806 0 1.65994e+06 721129 0 1.58496e+06 719120 0 1.51457e+06 713663 0 1.44837e+06 705455 0 1.38599e+06 695053 0 1.32713e+06 682901 0 1.2715e+06 669361 0 1.21886e+06 654725 0 1.16901e+06 639230 0 1.12174e+06 623074 0 1.07689e+06 606415 0 1.03431e+06 589388 0 993873 572101 0 955448 554643 0 918928 537090 0 884214 519501 0 851216 501926 0 819850 484405 0 2.66243e+06 -1.06198e+06 0 2.88894e+06 -744529 0 2.93386e+06 -378320 0 2.86272e+06 -76394.2 0 2.74853e+06 151500 0 2.61782e+06 321444 0 2.48495e+06 446817 0 2.35626e+06 538887 0 2.23438e+06 605901 0 2.12023e+06 653956 0 2.01381e+06 687532 0 1.91474e+06 709951 0 1.82247e+06 723695 0 1.73641e+06 730645 0 1.65601e+06 732238 0 1.58073e+06 729587 0 1.51011e+06 723562 0 1.44372e+06 714847 0 1.38121e+06 703990 0 1.32224e+06 691427 0 1.26653e+06 677512 0 1.21384e+06 662531 0 1.16395e+06 646718 0 1.11666e+06 630265 0 1.07181e+06 613329 0 1.02923e+06 596041 0 988804 578505 0 950398 560811 0 913904 543031 0 879220 525224 0 846257 507438 0 814927 489713 0 2.70422e+06 -1.07865e+06 0 2.93576e+06 -738269 0 2.9676e+06 -356915 0 2.88505e+06 -51731.5 0 2.76325e+06 175917 0 2.62702e+06 344363 0 2.49035e+06 467874 0 2.35894e+06 558119 0 2.2351e+06 623458 0 2.1195e+06 670033 0 2.01201e+06 702318 0 1.91212e+06 723617 0 1.81923e+06 736390 0 1.7327e+06 742495 0 1.65193e+06 743350 0 1.57637e+06 740050 0 1.50552e+06 733451 0 1.43896e+06 724226 0 1.37632e+06 712910 0 1.31725e+06 699933 0 1.26147e+06 685640 0 1.20874e+06 670313 0 1.15881e+06 654180 0 1.11151e+06 637430 0 1.06665e+06 620215 0 1.02408e+06 602663 0 983669 584879 0 945285 566948 0 908818 548940 0 874167 530915 0 841239 512918 0 809947 494989 0 2.74954e+06 -1.09673e+06 0 2.98455e+06 -729946 0 3.00104e+06 -333556 0 2.90689e+06 -25988.2 0 2.7774e+06 201053 0 2.63568e+06 367728 0 2.4953e+06 489223 0 2.36122e+06 577541 0 2.23547e+06 641141 0 2.11848e+06 686192 0 2.00995e+06 717157 0 1.90928e+06 737315 0 1.8158e+06 749102 0 1.72882e+06 754351 0 1.64769e+06 754460 0 1.57186e+06 750505 0 1.50081e+06 743328 0 1.43409e+06 733588 0 1.37132e+06 721810 0 1.31217e+06 708416 0 1.25633e+06 693744 0 1.20354e+06 678069 0 1.1536e+06 661615 0 1.10628e+06 644566 0 1.06142e+06 627071 0 1.01886e+06 609256 0 978468 591222 0 940108 573053 0 903671 554818 0 869053 536573 0 836162 518366 0 804910 500232 0 2.79915e+06 -1.11651e+06 0 3.03519e+06 -719139 0 3.03398e+06 -308206 0 2.9282e+06 809.314 0 2.79095e+06 226889 0 2.6438e+06 391516 0 2.49977e+06 510846 0 2.36309e+06 597139 0 2.2355e+06 658938 0 2.11716e+06 702425 0 2.00763e+06 732041 0 1.90622e+06 751039 0 1.81217e+06 761826 0 1.72476e+06 766209 0 1.6433e+06 765565 0 1.56722e+06 760950 0 1.49597e+06 753189 0 1.4291e+06 742931 0 1.36622e+06 730690 0 1.30699e+06 716876 0 1.25109e+06 701823 0 1.19827e+06 685798 0 1.1483e+06 669021 0 1.10098e+06 651672 0 1.05612e+06 633897 0 1.01358e+06 615817 0 973201 597533 0 934867 579125 0 898461 560662 0 863879 542198 0 831027 523780 0 799816 505442 0 2.85401e+06 -1.1384e+06 0 3.08748e+06 -705339 0 3.06621e+06 -280877 0 2.94894e+06 28636.3 0 2.80382e+06 253404 0 2.65135e+06 415702 0 2.50376e+06 532728 0 2.36455e+06 616899 0 2.23518e+06 676838 0 2.11554e+06 718721 0 2.00506e+06 746962 0 1.90294e+06 764782 0 1.80835e+06 774556 0 1.72053e+06 778065 0 1.63876e+06 776660 0 1.56243e+06 771380 0 1.491e+06 763033 0 1.424e+06 752253 0 1.36102e+06 739545 0 1.30171e+06 725310 0 1.24576e+06 709874 0 1.19291e+06 693498 0 1.14292e+06 676398 0 1.0956e+06 658747 0 1.05075e+06 640691 0 1.00822e+06 622346 0 967868 603810 0 929564 585164 0 893191 566473 0 858646 547790 0 825834 529159 0 794665 510617 0 2.91539e+06 -1.16288e+06 0 3.141e+06 -687930 0 3.09754e+06 -251645 0 2.96908e+06 57477.2 0 2.81596e+06 280569 0 2.65833e+06 440261 0 2.50724e+06 554850 0 2.36559e+06 636805 0 2.2345e+06 694830 0 2.11362e+06 735071 0 2.00223e+06 761914 0 1.89943e+06 778538 0 1.80433e+06 787289 0 1.71612e+06 789915 0 1.63406e+06 787743 0 1.55751e+06 781793 0 1.48591e+06 772856 0 1.41879e+06 761552 0 1.35571e+06 748375 0 1.29634e+06 733717 0 1.24034e+06 717896 0 1.18747e+06 701168 0 1.13747e+06 683743 0 1.09014e+06 665790 0 1.04531e+06 647451 0 1.0028e+06 628841 0 962470 610054 0 924196 591169 0 887860 572248 0 853354 553346 0 820583 534504 0 789458 515757 0 2.98494e+06 -1.19062e+06 0 3.19511e+06 -666168 0 3.12785e+06 -220679 0 2.98857e+06 87337.4 0 2.82732e+06 308341 0 2.66473e+06 465171 0 2.51021e+06 577191 0 2.36621e+06 656843 0 2.23346e+06 712900 0 2.1114e+06 751465 0 1.99914e+06 776887 0 1.8957e+06 792302 0 1.80012e+06 800017 0 1.71155e+06 801753 0 1.62921e+06 798810 0 1.55246e+06 792185 0 1.4807e+06 782655 0 1.41346e+06 770825 0 1.3503e+06 757177 0 1.29087e+06 742094 0 1.23484e+06 725888 0 1.18194e+06 708807 0 1.13194e+06 691055 0 1.08462e+06 672800 0 1.03979e+06 654178 0 997305 635302 0 957007 616263 0 918767 597138 0 882467 577989 0 848002 558867 0 815275 539813 0 784195 520861 0 3.06482e+06 -1.22248e+06 0 3.24881e+06 -639156 0 3.15718e+06 -188256 0 3.00733e+06 118258 0 2.83788e+06 336660 0 2.67053e+06 490415 0 2.51265e+06 599730 0 2.3664e+06 676998 0 2.23207e+06 731036 0 2.10887e+06 767895 0 1.99579e+06 791874 0 1.89174e+06 806065 0 1.79571e+06 812737 0 1.7068e+06 813575 0 1.62421e+06 809856 0 1.54726e+06 802554 0 1.47536e+06 792427 0 1.40802e+06 780069 0 1.34479e+06 765948 0 1.2853e+06 750440 0 1.22924e+06 733847 0 1.17633e+06 716412 0 1.12632e+06 698334 0 1.07901e+06 679776 0 1.03421e+06 660870 0 991746 641727 0 951478 622436 0 913274 603072 0 877015 583694 0 842592 564352 0 809910 545087 0 778876 525929 0 3.15785e+06 -1.25959e+06 0 3.3006e+06 -605798 0 3.18576e+06 -154828 0 3.02516e+06 150341 0 2.84764e+06 365435 0 2.67573e+06 515981 0 2.51455e+06 622440 0 2.36617e+06 697256 0 2.23031e+06 749226 0 2.10603e+06 784351 0 1.99217e+06 806867 0 1.88756e+06 819823 0 1.79111e+06 825442 0 1.70188e+06 825378 0 1.61906e+06 820878 0 1.54193e+06 812896 0 1.4699e+06 802171 0 1.40246e+06 789282 0 1.33917e+06 774688 0 1.27964e+06 758753 0 1.22356e+06 741772 0 1.17064e+06 723982 0 1.12063e+06 705577 0 1.07334e+06 686715 0 1.02855e+06 667526 0 986119 648116 0 945886 628573 0 907720 608968 0 871502 589361 0 837123 569799 0 804488 550323 0 773500 530959 0 </DataArray> 
</PointData> 
<Points> 
<DataArray type="Float32" NumberOfComponents="3"> 