<?xml version="1.0"?> 
<VTKFile type="StructuredGrid" version="0.1"> 
<StructuredGrid WholeExtent="0 31 0 31 0 0"> 
<Piece Extent="0 31 0 31 0 0"> 
<PointData>
<DataArray type="Float32" Name="|E|" format="ascii" NumberOfComponents="3"> 
-1.28898e+06 0 0 -1.28915e+06 30780.9 0 -1.28966e+06 61572.4 0 -1.29051e+06 92385 0 -1.29169e+06 123229 0 -1.29321e+06 154116 0 -1.29507e+06 185055 0 -1.29725e+06 216057 0 -1.29977e+06 247132 0 -1.30261e+06 278291 0 -1.30579e+06 309543 0 -1.30929e+06 340898 0 -1.31311e+06 372365 0 -1.31726e+06 403954 0 -1.32172e+06 435674 0 -1.32649e+06 467534 0 -1.33158e+06 499542 0 -1.33697e+06 531705 0 -1.34267e+06 564032 0 -1.34866e+06 596529 0 -1.35495e+06 629202 0 -1.36153e+06 662058 0 -1.3684e+06 695100 0 -1.37555e+06 728334 0 -1.38298e+06 761762 0 -1.39068e+06 795387 0 -1.39865e+06 829209 0 -1.40688e+06 863229 0 -1.41538e+06 897445 0 -1.42413e+06 931853 0 -1.43314e+06 966450 0 -1.44241e+06 1.00123e+06 0 -1.27614e+06 0 0 -1.2763e+06 30835 0 -1.27678e+06 61680.7 0 -1.2776e+06 92547.5 0 -1.27874e+06 123446 0 -1.28022e+06 154386 0 -1.28202e+06 185378 0 -1.28415e+06 216433 0 -1.2866e+06 247559 0 -1.28938e+06 278768 0 -1.29248e+06 310069 0 -1.2959e+06 341471 0 -1.29964e+06 372985 0 -1.30369e+06 404618 0 -1.30805e+06 436380 0 -1.31273e+06 468280 0 -1.3177e+06 500325 0 -1.32298e+06 532524 0 -1.32856e+06 564884 0 -1.33444e+06 597411 0 -1.3406e+06 630112 0 -1.34705e+06 662992 0 -1.35379e+06 696056 0 -1.3608e+06 729309 0 -1.36809e+06 762753 0 -1.37565e+06 796392 0 -1.38347e+06 830225 0 -1.39156e+06 864254 0 -1.39992e+06 898476 0 -1.40853e+06 932890 0 -1.41739e+06 967492 0 -1.42652e+06 1.00228e+06 0 -1.26325e+06 0 0 -1.26339e+06 30886.5 0 -1.26384e+06 61783.8 0 -1.26463e+06 92702.2 0 -1.26574e+06 123652 0 -1.26717e+06 154643 0 -1.26892e+06 185686 0 -1.27099e+06 216790 0 -1.27338e+06 247966 0 -1.27609e+06 279222 0 -1.27912e+06 310570 0 -1.28246e+06 342017 0 -1.28611e+06 373574 0 -1.29007e+06 405249 0 -1.29434e+06 437052 0 -1.29891e+06 468989 0 -1.30378e+06 501070 0 -1.30895e+06 533303 0 -1.31441e+06 565693 0 -1.32016e+06 598249 0 -1.3262e+06 630975 0 -1.33253e+06 663879 0 -1.33913e+06 696964 0 -1.34601e+06 730234 0 -1.35316e+06 763694 0 -1.36058e+06 797345 0 -1.36826e+06 831189 0 -1.37621e+06 865227 0 -1.38442e+06 899456 0 -1.39288e+06 933876 0 -1.40161e+06 968483 0 -1.41059e+06 1.00327e+06 0 -1.2503e+06 0 0 -1.25042e+06 30935.4 0 -1.25085e+06 61881.8 0 -1.2516e+06 92849.3 0 -1.25267e+06 123848 0 -1.25406e+06 154888 0 -1.25576e+06 185978 0 -1.25778e+06 217130 0 -1.26011e+06 248352 0 -1.26275e+06 279654 0 -1.2657e+06 311045 0 -1.26896e+06 342536 0 -1.27253e+06 374134 0 -1.2764e+06 405849 0 -1.28057e+06 437689 0 -1.28504e+06 469662 0 -1.28981e+06 501777 0 -1.29487e+06 534041 0 -1.30022e+06 566460 0 -1.30585e+06 599043 0 -1.31177e+06 631794 0 -1.31796e+06 664719 0 -1.32443e+06 697823 0 -1.33118e+06 731111 0 -1.33819e+06 764585 0 -1.34547e+06 798248 0 -1.35302e+06 832102 0 -1.36082e+06 866148 0 -1.36889e+06 900384 0 -1.37721e+06 934810 0 -1.38579e+06 969422 0 -1.39463e+06 1.00422e+06 0 -1.23729e+06 0 0 -1.23739e+06 30981.8 0 -1.2378e+06 61974.7 0 -1.23852e+06 92988.7 0 -1.23955e+06 124034 0 -1.24089e+06 155119 0 -1.24255e+06 186256 0 -1.24451e+06 217452 0 -1.24678e+06 248718 0 -1.24935e+06 280063 0 -1.25223e+06 311496 0 -1.25542e+06 343027 0 -1.2589e+06 374664 0 -1.26268e+06 406416 0 -1.26676e+06 438292 0 -1.27113e+06 470299 0 -1.27579e+06 502446 0 -1.28074e+06 534739 0 -1.28597e+06 567186 0 -1.29149e+06 599793 0 -1.29728e+06 632567 0 -1.30335e+06 665513 0 -1.3097e+06 698635 0 -1.31631e+06 731938 0 -1.32319e+06 765426 0 -1.33033e+06 799101 0 -1.33774e+06 832964 0 -1.3454e+06 867018 0 -1.35332e+06 901260 0 -1.3615e+06 935692 0 -1.36994e+06 970309 0 -1.37863e+06 1.00511e+06 0 -1.22423e+06 0 0 -1.22431e+06 31025.7 0 -1.22469e+06 62062.7 0 -1.22538e+06 93120.7 0 -1.22638e+06 124210 0 -1.22768e+06 155339 0 -1.22928e+06 186518 0 -1.23119e+06 217756 0 -1.2334e+06 249064 0 -1.2359e+06 280450 0 -1.23871e+06 311922 0 -1.24182e+06 343491 0 -1.24522e+06 375165 0 -1.24891e+06 406953 0 -1.2529e+06 438862 0 -1.25717e+06 470900 0 -1.26173e+06 503077 0 -1.26657e+06 535398 0 -1.27169e+06 567870 0 -1.27709e+06 600501 0 -1.28276e+06 633296 0 -1.28871e+06 666260 0 -1.29492e+06 699399 0 -1.3014e+06 732717 0 -1.30815e+06 766217 0 -1.31515e+06 799903 0 -1.32242e+06 833775 0 -1.32994e+06 867836 0 -1.33772e+06 902085 0 -1.34576e+06 936521 0 -1.35405e+06 971144 0 -1.3626e+06 1.00595e+06 0 -1.21112e+06 0 0 -1.21117e+06 31067.1 0 -1.21153e+06 62145.7 0 -1.21219e+06 93245.3 0 -1.21315e+06 124375 0 -1.2144e+06 155546 0 -1.21596e+06 186765 0 -1.21781e+06 218044 0 -1.21996e+06 249391 0 -1.2224e+06 280814 0 -1.22514e+06 312324 0 -1.22817e+06 343929 0 -1.23149e+06 375637 0 -1.23509e+06 407458 0 -1.23898e+06 439398 0 -1.24316e+06 471467 0 -1.24761e+06 503670 0 -1.25235e+06 536017 0 -1.25736e+06 568514 0 -1.26264e+06 601166 0 -1.2682e+06 633981 0 -1.27402e+06 666963 0 -1.2801e+06 700117 0 -1.28646e+06 733448 0 -1.29307e+06 766960 0 -1.29994e+06 800655 0 -1.30706e+06 834535 0 -1.31445e+06 868602 0 -1.32208e+06 902857 0 -1.32998e+06 937299 0 -1.33813e+06 971926 0 -1.34653e+06 1.00674e+06 0 -1.19795e+06 0 0 -1.19798e+06 31106.1 0 -1.19831e+06 62223.8 0 -1.19894e+06 93362.6 0 -1.19986e+06 124532 0 -1.20108e+06 155741 0 -1.20258e+06 186998 0 -1.20438e+06 218314 0 -1.20647e+06 249698 0 -1.20885e+06 281157 0 -1.21152e+06 312702 0 -1.21447e+06 344340 0 -1.2177e+06 376081 0 -1.22122e+06 407932 0 -1.22502e+06 439902 0 -1.2291e+06 471998 0 -1.23346e+06 504228 0 -1.23808e+06 536598 0 -1.24298e+06 569117 0 -1.24815e+06 601789 0 -1.25359e+06 634622 0 -1.25929e+06 667620 0 -1.26525e+06 700788 0 -1.27147e+06 734131 0 -1.27795e+06 767653 0 -1.28468e+06 801357 0 -1.29167e+06 835244 0 -1.29892e+06 869317 0 -1.30641e+06 903577 0 -1.31416e+06 938023 0 -1.32217e+06 972655 0 -1.33043e+06 1.00747e+06 0 -1.18472e+06 0 0 -1.18474e+06 31142.7 0 -1.18505e+06 62297.2 0 -1.18564e+06 93472.6 0 -1.18652e+06 124678 0 -1.1877e+06 155923 0 -1.18915e+06 187217 0 -1.1909e+06 218568 0 -1.19293e+06 249986 0 -1.19524e+06 281479 0 -1.19784e+06 313056 0 -1.20072e+06 344726 0 -1.20387e+06 376497 0 -1.20731e+06 408376 0 -1.21102e+06 440373 0 -1.215e+06 472495 0 -1.21925e+06 504748 0 -1.22378e+06 537141 0 -1.22857e+06 569679 0 -1.23362e+06 602370 0 -1.23894e+06 635219 0 -1.24452e+06 668232 0 -1.25035e+06 701413 0 -1.25645e+06 734767 0 -1.26279e+06 768298 0 -1.26939e+06 802009 0 -1.27625e+06 835903 0 -1.28335e+06 869981 0 -1.29071e+06 904245 0 -1.29832e+06 938695 0 -1.30618e+06 973332 0 -1.3143e+06 1.00815e+06 0 -1.17145e+06 0 0 -1.17144e+06 31176.9 0 -1.17172e+06 62365.7 0 -1.17229e+06 93575.5 0 -1.17313e+06 124815 0 -1.17426e+06 156094 0 -1.17567e+06 187421 0 -1.17737e+06 218805 0 -1.17934e+06 250255 0 -1.18159e+06 281779 0 -1.18411e+06 313387 0 -1.18692e+06 345086 0 -1.18999e+06 376884 0 -1.19334e+06 408790 0 -1.19696e+06 440812 0 -1.20085e+06 472957 0 -1.205e+06 505233 0 -1.20942e+06 537646 0 -1.21411e+06 570203 0 -1.21905e+06 602910 0 -1.22425e+06 635774 0 -1.22971e+06 668799 0 -1.23542e+06 701992 0 -1.24138e+06 735355 0 -1.2476e+06 768894 0 -1.25407e+06 802612 0 -1.26079e+06 836511 0 -1.26775e+06 870593 0 -1.27497e+06 904861 0 -1.28243e+06 939315 0 -1.29015e+06 973954 0 -1.29813e+06 1.00878e+06 0 -1.15812e+06 0 0 -1.1581e+06 31208.8 0 -1.15835e+06 62429.6 0 -1.15888e+06 93671.3 0 -1.15969e+06 124943 0 -1.16078e+06 156253 0 -1.16214e+06 187611 0 -1.16378e+06 219026 0 -1.1657e+06 250505 0 -1.16788e+06 282059 0 -1.17034e+06 313694 0 -1.17307e+06 345420 0 -1.17607e+06 377244 0 -1.17933e+06 409175 0 -1.18286e+06 441220 0 -1.18666e+06 473386 0 -1.19071e+06 505682 0 -1.19503e+06 538113 0 -1.1996e+06 570686 0 -1.20443e+06 603409 0 -1.20952e+06 636286 0 -1.21486e+06 669322 0 -1.22045e+06 702525 0 -1.22629e+06 735896 0 -1.23237e+06 769442 0 -1.23871e+06 803165 0 -1.24529e+06 837068 0 -1.25212e+06 871154 0 -1.25919e+06 905425 0 -1.26652e+06 939881 0 -1.27409e+06 974523 0 -1.28192e+06 1.00935e+06 0 -1.14474e+06 0 0 -1.1447e+06 31238.3 0 -1.14493e+06 62488.7 0 -1.14543e+06 93760.1 0 -1.1462e+06 125061 0 -1.14725e+06 156401 0 -1.14856e+06 187787 0 -1.15015e+06 219230 0 -1.152e+06 250737 0 -1.15413e+06 282317 0 -1.15652e+06 313978 0 -1.15917e+06 345729 0 -1.16209e+06 377577 0 -1.16527e+06 409530 0 -1.16871e+06 441595 0 -1.17242e+06 473782 0 -1.17637e+06 506095 0 -1.18059e+06 538543 0 -1.18506e+06 571131 0 -1.18978e+06 603866 0 -1.19475e+06 636755 0 -1.19997e+06 669802 0 -1.20544e+06 703012 0 -1.21115e+06 736391 0 -1.21711e+06 769942 0 -1.22331e+06 803669 0 -1.22976e+06 837575 0 -1.23645e+06 871664 0 -1.24338e+06 905936 0 -1.25057e+06 940394 0 -1.258e+06 975038 0 -1.26568e+06 1.00987e+06 0 -1.13131e+06 0 0 -1.13125e+06 31265.6 0 -1.13145e+06 62543.3 0 -1.13192e+06 93841.9 0 -1.13266e+06 125170 0 -1.13366e+06 156537 0 -1.13493e+06 187950 0 -1.13647e+06 219418 0 -1.13826e+06 250951 0 -1.14032e+06 282555 0 -1.14265e+06 314240 0 -1.14523e+06 346013 0 -1.14807e+06 377882 0 -1.15117e+06 409855 0 -1.15452e+06 441940 0 -1.15813e+06 474144 0 -1.16199e+06 506473 0 -1.16611e+06 538935 0 -1.17047e+06 571537 0 -1.17508e+06 604284 0 -1.17994e+06 637182 0 -1.18504e+06 670237 0 -1.19039e+06 703455 0 -1.19597e+06 736839 0 -1.2018e+06 770394 0 -1.20788e+06 804124 0 -1.21419e+06 838032 0 -1.22074e+06 872122 0 -1.22754e+06 906395 0 -1.23458e+06 940853 0 -1.24187e+06 975499 0 -1.2494e+06 1.01033e+06 0 -1.11783e+06 0 0 -1.11775e+06 31290.5 0 -1.11793e+06 62593.3 0 -1.11837e+06 93916.9 0 -1.11907e+06 125270 0 -1.12003e+06 156661 0 -1.12125e+06 188098 0 -1.12273e+06 219591 0 -1.12447e+06 251146 0 -1.12647e+06 282773 0 -1.12873e+06 314479 0 -1.13124e+06 346272 0 -1.134e+06 378161 0 -1.13702e+06 410152 0 -1.14029e+06 442254 0 -1.1438e+06 474473 0 -1.14757e+06 506817 0 -1.15158e+06 539292 0 -1.15584e+06 571904 0 -1.16034e+06 604661 0 -1.16509e+06 637567 0 -1.17007e+06 670629 0 -1.1753e+06 703852 0 -1.18076e+06 737240 0 -1.18647e+06 770798 0 -1.19241e+06 804530 0 -1.19859e+06 838439 0 -1.20501e+06 872528 0 -1.21166e+06 906801 0 -1.21856e+06 941259 0 -1.2257e+06 975904 0 -1.23309e+06 1.01074e+06 0 -1.1043e+06 0 0 -1.1042e+06 31313.2 0 -1.10435e+06 62638.8 0 -1.10476e+06 93985.2 0 -1.10543e+06 125361 0 -1.10635e+06 156774 0 -1.10752e+06 188234 0 -1.10895e+06 219747 0 -1.11064e+06 251323 0 -1.11257e+06 282970 0 -1.11476e+06 314695 0 -1.1172e+06 346507 0 -1.11989e+06 378413 0 -1.12282e+06 410420 0 -1.12601e+06 442537 0 -1.12943e+06 474770 0 -1.1331e+06 507126 0 -1.13702e+06 539611 0 -1.14117e+06 572233 0 -1.14557e+06 604998 0 -1.1502e+06 637911 0 -1.15507e+06 670978 0 -1.16017e+06 704205 0 -1.16551e+06 737595 0 -1.17109e+06 771155 0 -1.1769e+06 804887 0 -1.18295e+06 838795 0 -1.18923e+06 872884 0 -1.19575e+06 907155 0 -1.20251e+06 941611 0 -1.20951e+06 976255 0 -1.21675e+06 1.01109e+06 0 -1.09073e+06 0 0 -1.0906e+06 31333.7 0 -1.09073e+06 62679.8 0 -1.09111e+06 94046.7 0 -1.09174e+06 125443 0 -1.09262e+06 156876 0 -1.09375e+06 188355 0 -1.09513e+06 219888 0 -1.09675e+06 251483 0 -1.09863e+06 283147 0 -1.10075e+06 314890 0 -1.10312e+06 346718 0 -1.10573e+06 378639 0 -1.10859e+06 410660 0 -1.11168e+06 442790 0 -1.11502e+06 475034 0 -1.1186e+06 507400 0 -1.12241e+06 539895 0 -1.12646e+06 572525 0 -1.13075e+06 605296 0 -1.13527e+06 638214 0 -1.14002e+06 671284 0 -1.14501e+06 704513 0 -1.15023e+06 737905 0 -1.15568e+06 771464 0 -1.16136e+06 805195 0 -1.16728e+06 839102 0 -1.17342e+06 873188 0 -1.1798e+06 907456 0 -1.18642e+06 941910 0 -1.19327e+06 976551 0 -1.20037e+06 1.01138e+06 0 -1.0771e+06 0 0 -1.07696e+06 31351.9 0 -1.07706e+06 62716.3 0 -1.07741e+06 94101.6 0 -1.078e+06 125516 0 -1.07884e+06 156967 0 -1.07992e+06 188464 0 -1.08125e+06 220014 0 -1.08282e+06 251625 0 -1.08464e+06 283305 0 -1.0867e+06 315062 0 -1.08899e+06 346904 0 -1.09153e+06 378838 0 -1.0943e+06 410872 0 -1.09732e+06 443012 0 -1.10056e+06 475266 0 -1.10405e+06 507641 0 -1.10776e+06 540143 0 -1.11171e+06 572779 0 -1.11589e+06 605554 0 -1.1203e+06 638475 0 -1.12494e+06 671548 0 -1.12981e+06 704777 0 -1.13491e+06 738168 0 -1.14024e+06 771726 0 -1.14579e+06 805454 0 -1.15157e+06 839358 0 -1.15758e+06 873440 0 -1.16383e+06 907704 0 -1.1703e+06 942154 0 -1.17701e+06 976792 0 -1.18396e+06 1.01162e+06 0 -1.06343e+06 0 0 -1.06327e+06 31368 0 -1.06334e+06 62748.5 0 -1.06366e+06 94149.8 0 -1.06422e+06 125580 0 -1.06501e+06 157047 0 -1.06605e+06 188559 0 -1.06733e+06 220124 0 -1.06885e+06 251749 0 -1.0706e+06 283443 0 -1.07259e+06 315213 0 -1.07482e+06 347067 0 -1.07728e+06 379012 0 -1.07998e+06 411056 0 -1.08291e+06 443205 0 -1.08607e+06 475467 0 -1.08946e+06 507848 0 -1.09307e+06 540355 0 -1.09692e+06 572995 0 -1.101e+06 605773 0 -1.1053e+06 638696 0 -1.10982e+06 671769 0 -1.11458e+06 704997 0 -1.11955e+06 738386 0 -1.12475e+06 771941 0 -1.13018e+06 805665 0 -1.13583e+06 839564 0 -1.14171e+06 873641 0 -1.14781e+06 907900 0 -1.15415e+06 942344 0 -1.16071e+06 976977 0 -1.16751e+06 1.0118e+06 0 -1.04972e+06 0 0 -1.04953e+06 31381.8 0 -1.04958e+06 62776.4 0 -1.04986e+06 94191.6 0 -1.05039e+06 125636 0 -1.05114e+06 157116 0 -1.05214e+06 188641 0 -1.05337e+06 220219 0 -1.05483e+06 251856 0 -1.05652e+06 283562 0 -1.05845e+06 315342 0 -1.06061e+06 347206 0 -1.06299e+06 379160 0 -1.06561e+06 411212 0 -1.06845e+06 443368 0 -1.07153e+06 475636 0 -1.07482e+06 508022 0 -1.07835e+06 540532 0 -1.08209e+06 573174 0 -1.08606e+06 605953 0 -1.09026e+06 638876 0 -1.09467e+06 671947 0 -1.09931e+06 705173 0 -1.10416e+06 738559 0 -1.10924e+06 772109 0 -1.11454e+06 805828 0 -1.12006e+06 839720 0 -1.1258e+06 873791 0 -1.13177e+06 908043 0 -1.13796e+06 942480 0 -1.14438e+06 977106 0 -1.15104e+06 1.01192e+06 0 -1.03595e+06 0 0 -1.03575e+06 31393.6 0 -1.03577e+06 62799.9 0 -1.03602e+06 94226.9 0 -1.03651e+06 125682 0 -1.03723e+06 157174 0 -1.03818e+06 188710 0 -1.03936e+06 220299 0 -1.04076e+06 251946 0 -1.0424e+06 283661 0 -1.04426e+06 315450 0 -1.04635e+06 347322 0 -1.04866e+06 379283 0 -1.0512e+06 411341 0 -1.05396e+06 443502 0 -1.05695e+06 475773 0 -1.06015e+06 508162 0 -1.06358e+06 540674 0 -1.06723e+06 573317 0 -1.07109e+06 606095 0 -1.07518e+06 639016 0 -1.07948e+06 672084 0 -1.084e+06 705306 0 -1.08874e+06 738686 0 -1.09369e+06 772230 0 -1.09886e+06 805942 0 -1.10425e+06 839827 0 -1.10986e+06 873889 0 -1.11569e+06 908133 0 -1.12174e+06 942561 0 -1.12802e+06 977179 0 -1.13453e+06 1.01199e+06 0 -1.02215e+06 0 0 -1.02192e+06 31403.2 0 -1.02191e+06 62819.2 0 -1.02214e+06 94255.8 0 -1.02259e+06 125721 0 -1.02327e+06 157222 0 -1.02417e+06 188767 0 -1.0253e+06 220364 0 -1.02665e+06 252019 0 -1.02823e+06 283741 0 -1.03003e+06 315537 0 -1.03205e+06 347415 0 -1.03429e+06 379381 0 -1.03675e+06 411442 0 -1.03943e+06 443606 0 -1.04233e+06 475880 0 -1.04544e+06 508269 0 -1.04877e+06 540781 0 -1.05232e+06 573422 0 -1.05609e+06 606198 0 -1.06006e+06 639115 0 -1.06425e+06 672179 0 -1.06866e+06 705395 0 -1.07327e+06 738768 0 -1.07811e+06 772304 0 -1.08315e+06 806008 0 -1.08841e+06 839883 0 -1.09389e+06 873936 0 -1.09958e+06 908170 0 -1.10549e+06 942588 0 -1.11163e+06 977196 0 -1.11799e+06 1.012e+06 0 -1.0083e+06 0 0 -1.00804e+06 31410.7 0 -1.00802e+06 62834.3 0 -1.00821e+06 94278.4 0 -1.00863e+06 125751 0 -1.00926e+06 157259 0 -1.01012e+06 188811 0 -1.0112e+06 220414 0 -1.0125e+06 252075 0 -1.01402e+06 283803 0 -1.01575e+06 315603 0 -1.0177e+06 347484 0 -1.01987e+06 379453 0 -1.02226e+06 411517 0 -1.02486e+06 443682 0 -1.02767e+06 475956 0 -1.03069e+06 508344 0 -1.03393e+06 540854 0 -1.03738e+06 573492 0 -1.04104e+06 606263 0 -1.04491e+06 639175 0 -1.04899e+06 672232 0 -1.05328e+06 705440 0 -1.05778e+06 738805 0 -1.06249e+06 772332 0 -1.06741e+06 806025 0 -1.07254e+06 839890 0 -1.07788e+06 873932 0 -1.08344e+06 908154 0 -1.08921e+06 942561 0 -1.0952e+06 977157 0 -1.10141e+06 1.01195e+06 0 -994400 0 0 -994128 31416.1 0 -994074 62845.2 0 -994238 94294.8 0 -994620 125772 0 -995217 157286 0 -996032 188842 0 -997061 220449 0 -998305 252115 0 -999764 283845 0 -1.00144e+06 315648 0 -1.00332e+06 347531 0 -1.00542e+06 379501 0 -1.00772e+06 411565 0 -1.01024e+06 443729 0 -1.01297e+06 476001 0 -1.01591e+06 508386 0 -1.01905e+06 540892 0 -1.0224e+06 573525 0 -1.02596e+06 606291 0 -1.02972e+06 639195 0 -1.03369e+06 672244 0 -1.03787e+06 705443 0 -1.04225e+06 738798 0 -1.04684e+06 772313 0 -1.05163e+06 805995 0 -1.05664e+06 839848 0 -1.06185e+06 873876 0 -1.06727e+06 908085 0 -1.0729e+06 942479 0 -1.07875e+06 977062 0 -1.08481e+06 1.01184e+06 0 -980461 0 0 -980169 31419.5 0 -980089 62851.9 0 -980223 94304.8 0 -980569 125786 0 -981127 157302 0 -981897 188861 0 -982878 220471 0 -984069 252138 0 -985469 283869 0 -987079 315673 0 -988897 347556 0 -990922 379524 0 -993153 411586 0 -995591 443748 0 -998234 476016 0 -1.00108e+06 508396 0 -1.00413e+06 540897 0 -1.00739e+06 573523 0 -1.01084e+06 606280 0 -1.0145e+06 639176 0 -1.01836e+06 672215 0 -1.02243e+06 705403 0 -1.02669e+06 738746 0 -1.03116e+06 772249 0 -1.03583e+06 805917 0 -1.0407e+06 839755 0 -1.04578e+06 873769 0 -1.05106e+06 907963 0 -1.05656e+06 942342 0 -1.06226e+06 976910 0 -1.06818e+06 1.01167e+06 0 -966481 0 0 -966167 31420.8 0 -966062 62854.6 0 -966165 94308.8 0 -966477 125791 0 -966995 157308 0 -967721 188868 0 -968653 220477 0 -969791 252144 0 -971134 283875 0 -972681 315677 0 -974432 347558 0 -976386 379523 0 -978543 411581 0 -980901 443738 0 -983459 476000 0 -986218 508374 0 -989177 540867 0 -992334 573484 0 -995691 606232 0 -999245 639117 0 -1.003e+06 672144 0 -1.00695e+06 705320 0 -1.0111e+06 738649 0 -1.01544e+06 772138 0 -1.01999e+06 805791 0 -1.02473e+06 839614 0 -1.02968e+06 873611 0 -1.03483e+06 907788 0 -1.04018e+06 942150 0 -1.04575e+06 976702 0 -1.05152e+06 1.01145e+06 0 -952459 0 0 -952124 31420 0 -951993 62853.1 0 -952066 94306.6 0 -952343 125788 0 -952822 157304 0 -953504 188862 0 -954388 220470 0 -955473 252134 0 -956758 283862 0 -958244 315661 0 -959929 347537 0 -961812 379498 0 -963894 411550 0 -966173 443700 0 -968648 475955 0 -971319 508321 0 -974186 540804 0 -977248 573411 0 -980504 606147 0 -983955 639019 0 -987599 672033 0 -991438 705194 0 -995470 738508 0 -999698 771981 0 -1.00412e+06 805617 0 -1.00874e+06 839422 0 -1.01355e+06 873402 0 -1.01857e+06 907561 0 -1.02378e+06 941904 0 -1.0292e+06 976437 0 -1.03483e+06 1.01116e+06 0 -938396 0 0 -938039 31417.3 0 -937883 62847.7 0 -937926 94298.4 0 -938168 125777 0 -938608 157290 0 -939246 188844 0 -940082 220448 0 -941114 252108 0 -942343 283831 0 -943767 315625 0 -945386 347495 0 -947200 379449 0 -949207 411493 0 -951407 443635 0 -953800 475880 0 -956384 508235 0 -959160 540707 0 -962126 573302 0 -965283 606025 0 -968631 638883 0 -972168 671881 0 -975895 705026 0 -979813 738323 0 -983921 771778 0 -988221 805396 0 -992712 839182 0 -997397 873142 0 -1.00228e+06 907281 0 -1.00735e+06 941604 0 -1.01263e+06 976116 0 -1.01811e+06 1.01082e+06 0 -924292 0 0 -923915 31412.6 0 -923733 62838.2 0 -923745 94284.2 0 -923953 125757 0 -924354 157265 0 -924949 188815 0 -925736 220413 0 -926717 252066 0 -927889 283783 0 -929252 315569 0 -930806 347431 0 -932550 379376 0 -934483 411410 0 -936605 443542 0 -938916 475775 0 -941414 508119 0 -944099 540577 0 -946971 573158 0 -950029 605866 0 -953274 638708 0 -956704 671689 0 -960321 704816 0 -964124 738095 0 -968114 771530 0 -972291 805127 0 -976657 838892 0 -981212 872831 0 -985958 906948 0 -990896 941248 0 -996030 975738 0 -1.00136e+06 1.01042e+06 0 -910149 0 0 -909751 31405.9 0 -909543 62824.8 0 -909525 94264 0 -909698 125730 0 -910060 157231 0 -910612 188773 0 -911352 220363 0 -912280 252009 0 -913396 283716 0 -914699 315493 0 -916188 347345 0 -917863 379279 0 -919723 411302 0 -921768 443421 0 -923996 475642 0 -926408 507971 0 -929004 540414 0 -931782 572979 0 -934742 605670 0 -937884 638494 0 -941209 671457 0 -944716 704564 0 -948405 737822 0 -952277 771236 0 -956333 804811 0 -960573 838554 0 -964998 872469 0 -969610 906562 0 -974411 940838 0 -979403 975304 0 -984588 1.00996e+06 0 -895968 0 0 -895547 31397.2 0 -895314 62807.5 0 -895266 94237.9 0 -895404 125695 0 -895728 157187 0 -896237 188720 0 -896930 220300 0 -897806 251935 0 -898866 283632 0 -900109 315397 0 -901533 347237 0 -903140 379159 0 -904927 411169 0 -906894 443273 0 -909042 475479 0 -911369 507792 0 -913875 540219 0 -916559 572765 0 -919422 605438 0 -922463 638242 0 -925683 671185 0 -929080 704271 0 -932656 737506 0 -936411 770897 0 -940346 804448 0 -944461 838166 0 -948757 872056 0 -953236 906123 0 -957900 940374 0 -962750 974813 0 -967790 1.00945e+06 0 -881747 0 0 -881306 31386.5 0 -881046 62786.2 0 -880969 94206 0 -881073 125653 0 -881358 157133 0 -881824 188654 0 -882469 220223 0 -883295 251846 0 -884299 283530 0 -885482 315282 0 -886842 347108 0 -888380 379015 0 -890095 411010 0 -891986 443098 0 -894053 475287 0 -896295 507582 0 -898712 539990 0 -901304 572517 0 -904070 605169 0 -907011 637952 0 -910125 670872 0 -913414 703935 0 -916878 737147 0 -920516 770512 0 -924330 804038 0 -928321 837730 0 -932489 871593 0 -936835 905633 0 -941362 939855 0 -946072 974266 0 -950966 1.00887e+06 0 -867489 0 0 -867026 31374 0 -866741 62761.1 0 -866634 94168.3 0 -866703 125602 0 -866950 157070 0 -867373 188578 0 -867972 220133 0 -868746 251742 0 -869695 283411 0 -870819 315148 0 -872116 346958 0 -873586 378849 0 -875229 410826 0 -877044 442896 0 -879031 475066 0 -881189 507342 0 -883518 539729 0 -886017 572235 0 -888687 604865 0 -891528 637625 0 -894538 670521 0 -897719 703558 0 -901071 736744 0 -904593 770083 0 -908287 803581 0 -912154 837245 0 -916194 871079 0 -920409 905089 0 -924800 939282 0 -929368 973663 0 -934120 1.00824e+06 0 </DataArray> 
</PointData> 
<Points> 
<DataArray type="Float32" NumberOfComponents="3"> 