<?xml version="1.0"?> 
<VTKFile type="StructuredGrid" version="0.1"> 
<StructuredGrid WholeExtent="0 31 0 31 0 0"> 
<Piece Extent="0 31 0 31 0 0"> 
<PointData>
<DataArray type="Float32" Name="|E|" format="ascii" NumberOfComponents="3"> 
-2.08153e+06 166605 0 -2.0961e+06 187680 0 -2.11238e+06 209168 0 -2.1304e+06 231128 0 -2.15018e+06 253620 0 -2.17176e+06 276713 0 -2.19518e+06 300480 0 -2.22048e+06 325001 0 -2.24772e+06 350366 0 -2.27696e+06 376674 0 -2.30826e+06 404037 0 -2.34172e+06 432579 0 -2.37743e+06 462443 0 -2.41551e+06 493791 0 -2.45612e+06 526813 0 -2.49944e+06 561729 0 -2.54571e+06 598804 0 -2.59524e+06 638354 0 -2.64843e+06 680769 0 -2.70582e+06 726543 0 -2.76815e+06 776291 0 -2.83643e+06 830851 0 -2.91213e+06 891419 0 -2.99735e+06 959063 0 -3.09507e+06 1.0377e+06 0 -3.21179e+06 1.12746e+06 0 -3.35165e+06 1.23326e+06 0 -3.53562e+06 1.40878e+06 0 -3.81407e+06 1.39473e+06 0 -4.1296e+06 2.48239e+06 0 -5.11894e+06 -781295 0 -9.38448e+06 2.40301e+07 0 -2.08467e+06 182139 0 -2.10004e+06 203746 0 -2.1171e+06 225799 0 -2.13589e+06 248360 0 -2.15642e+06 271493 0 -2.17874e+06 295270 0 -2.20289e+06 319767 0 -2.22891e+06 345071 0 -2.25686e+06 371277 0 -2.28679e+06 398490 0 -2.31878e+06 426831 0 -2.35292e+06 456434 0 -2.38931e+06 487456 0 -2.42808e+06 520075 0 -2.46938e+06 554503 0 -2.51342e+06 590988 0 -2.56045e+06 629832 0 -2.61079e+06 671401 0 -2.66488e+06 716159 0 -2.72331e+06 764691 0 -2.78686e+06 817751 0 -2.85666e+06 876464 0 -2.93437e+06 942045 0 -3.02178e+06 1.01687e+06 0 -3.12425e+06 1.10421e+06 0 -3.24533e+06 1.20703e+06 0 -3.3865e+06 1.34229e+06 0 -3.62645e+06 1.48347e+06 0 -3.80422e+06 1.88565e+06 0 -4.38628e+06 1.64574e+06 0 -5.79198e+06 5.2892e+06 0 -2.05028e+06 8.3771e+06 0 -2.08816e+06 198246 0 -2.10431e+06 220398 0 -2.12215e+06 243033 0 -2.14168e+06 266214 0 -2.16296e+06 290008 0 -2.186e+06 314490 0 -2.21086e+06 339743 0 -2.23757e+06 365858 0 -2.2662e+06 392935 0 -2.2968e+06 421088 0 -2.32946e+06 450448 0 -2.36425e+06 481161 0 -2.4013e+06 513397 0 -2.44072e+06 547356 0 -2.48269e+06 583273 0 -2.52742e+06 621430 0 -2.57517e+06 662171 0 -2.62629e+06 705928 0 -2.68124e+06 753246 0 -2.74065e+06 804813 0 -2.80536e+06 861640 0 -2.87668e+06 924940 0 -2.95588e+06 996496 0 -3.04634e+06 1.0797e+06 0 -3.15273e+06 1.17734e+06 0 -3.27043e+06 1.29922e+06 0 -3.45027e+06 1.44555e+06 0 -3.6333e+06 1.72143e+06 0 -3.87745e+06 1.86151e+06 0 -4.7632e+06 3.06241e+06 0 -3.95796e+06 5.75467e+06 0 -564473 4.25547e+06 0 -2.09199e+06 214936 0 -2.10891e+06 237650 0 -2.1275e+06 260884 0 -2.14777e+06 284704 0 -2.16976e+06 309180 0 -2.19351e+06 334392 0 -2.21905e+06 360426 0 -2.24644e+06 387381 0 -2.27573e+06 415363 0 -2.30698e+06 444495 0 -2.34027e+06 474918 0 -2.3757e+06 506793 0 -2.41337e+06 540307 0 -2.45342e+06 575681 0 -2.49602e+06 613180 0 -2.5414e+06 653124 0 -2.58982e+06 695912 0 -2.64167e+06 742048 0 -2.69742e+06 792163 0 -2.75771e+06 847146 0 -2.82356e+06 908156 0 -2.89598e+06 976654 0 -2.97688e+06 1.05556e+06 0 -3.07061e+06 1.14779e+06 0 -3.17381e+06 1.25952e+06 0 -3.30986e+06 1.39818e+06 0 -3.4777e+06 1.60702e+06 0 -3.6289e+06 1.84585e+06 0 -4.08328e+06 2.35878e+06 0 -4.21477e+06 3.99606e+06 0 -2.49316e+06 4.98472e+06 0 -543371 3.50351e+06 0 -2.09616e+06 232219 0 -2.11383e+06 255512 0 -2.13315e+06 279364 0 -2.15413e+06 303843 0 -2.17682e+06 329024 0 -2.20125e+06 354990 0 -2.22746e+06 381834 0 -2.2555e+06 409659 0 -2.28542e+06 438582 0 -2.3173e+06 468735 0 -2.3512e+06 500271 0 -2.38722e+06 533364 0 -2.42548e+06 568224 0 -2.46612e+06 605097 0 -2.50932e+06 644280 0 -2.55529e+06 686142 0 -2.60433e+06 731144 0 -2.65683e+06 779865 0 -2.71328e+06 833086 0 -2.7744e+06 891868 0 -2.84107e+06 957494 0 -2.91439e+06 1.03232e+06 0 -2.99749e+06 1.11924e+06 0 -3.0896e+06 1.2224e+06 0 -3.19872e+06 1.35067e+06 0 -3.33835e+06 1.52155e+06 0 -3.46957e+06 1.75654e+06 0 -3.69781e+06 2.08917e+06 0 -3.97016e+06 2.97847e+06 0 -3.33753e+06 4.2118e+06 0 -1.695e+06 4.27464e+06 0 -694549 3.3237e+06 0 -2.10066e+06 250107 0 -2.11906e+06 273998 0 -2.13908e+06 298487 0 -2.16076e+06 323646 0 -2.18413e+06 349555 0 -2.20921e+06 376302 0 -2.23607e+06 403985 0 -2.26473e+06 432715 0 -2.29526e+06 462618 0 -2.32773e+06 493836 0 -2.36221e+06 526535 0 -2.3988e+06 560910 0 -2.43761e+06 597191 0 -2.47879e+06 635654 0 -2.52252e+06 676637 0 -2.56903e+06 720562 0 -2.61862e+06 767958 0 -2.67166e+06 819516 0 -2.7287e+06 876183 0 -2.79042e+06 939116 0 -2.85757e+06 1.0102e+06 0 -2.93208e+06 1.0921e+06 0 -3.01464e+06 1.18794e+06 0 -3.10726e+06 1.30543e+06 0 -3.22067e+06 1.45371e+06 0 -3.33951e+06 1.65778e+06 0 -3.47764e+06 1.93091e+06 0 -3.6806e+06 2.4503e+06 0 -3.55409e+06 3.3899e+06 0 -2.55587e+06 4.05483e+06 0 -1.32453e+06 3.75773e+06 0 -778176 3.15305e+06 0 -2.10546e+06 268612 0 -2.12457e+06 293118 0 -2.14528e+06 318265 0 -2.16764e+06 344127 0 -2.19166e+06 370789 0 -2.21738e+06 398344 0 -2.24485e+06 426898 0 -2.27411e+06 456569 0 -2.30522e+06 487492 0 -2.33825e+06 519824 0 -2.37327e+06 553744 0 -2.41038e+06 589469 0 -2.4497e+06 627253 0 -2.49136e+06 667408 0 -2.53557e+06 710319 0 -2.58253e+06 756466 0 -2.63256e+06 806466 0 -2.68603e+06 861152 0 -2.74348e+06 921571 0 -2.80545e+06 989258 0 -2.87306e+06 1.06653e+06 0 -2.94738e+06 1.15602e+06 0 -3.0288e+06 1.26361e+06 0 -3.12279e+06 1.39609e+06 0 -3.22665e+06 1.57068e+06 0 -3.33146e+06 1.80443e+06 0 -3.46307e+06 2.16124e+06 0 -3.49722e+06 2.79648e+06 0 -3.01676e+06 3.54314e+06 0 -2.00261e+06 3.76496e+06 0 -1.15913e+06 3.38282e+06 0 -800994 2.93618e+06 0 -2.11056e+06 287746 0 -2.13036e+06 312887 0 -2.15174e+06 338713 0 -2.17474e+06 365302 0 -2.19939e+06 392743 0 -2.22573e+06 421137 0 -2.25378e+06 450595 0 -2.28361e+06 481245 0 -2.31527e+06 513233 0 -2.34882e+06 546729 0 -2.38434e+06 581933 0 -2.42193e+06 619081 0 -2.46169e+06 658459 0 -2.50378e+06 700418 0 -2.54837e+06 745395 0 -2.5957e+06 793942 0 -2.64603e+06 846790 0 -2.69976e+06 904878 0 -2.75731e+06 969493 0 -2.81932e+06 1.04257e+06 0 -2.88667e+06 1.12645e+06 0 -2.95959e+06 1.22548e+06 0 -3.0401e+06 1.34537e+06 0 -3.1292e+06 1.49718e+06 0 -3.21827e+06 1.69729e+06 0 -3.31002e+06 1.97454e+06 0 -3.37175e+06 2.41438e+06 0 -3.17812e+06 3.03479e+06 0 -2.51219e+06 3.50375e+06 0 -1.65225e+06 3.46144e+06 0 -1.07699e+06 3.08959e+06 0 -801406 2.71341e+06 0 -2.11595e+06 307521 0 -2.13641e+06 333319 0 -2.15844e+06 359846 0 -2.18207e+06 387186 0 -2.20732e+06 415435 0 -2.23423e+06 444698 0 -2.26285e+06 475096 0 -2.29321e+06 506766 0 -2.32538e+06 539867 0 -2.35941e+06 574584 0 -2.39538e+06 611137 0 -2.43338e+06 649789 0 -2.47353e+06 690860 0 -2.51597e+06 734745 0 -2.56085e+06 781942 0 -2.60839e+06 833093 0 -2.65887e+06 889032 0 -2.7126e+06 950862 0 -2.76995e+06 1.02019e+06 0 -2.83152e+06 1.09907e+06 0 -2.89754e+06 1.1908e+06 0 -2.9685e+06 1.30012e+06 0 -3.04534e+06 1.43463e+06 0 -3.12328e+06 1.60709e+06 0 -3.19599e+06 1.83579e+06 0 -3.2516e+06 2.16317e+06 0 -3.18662e+06 2.63722e+06 0 -2.80375e+06 3.13884e+06 0 -2.10972e+06 3.35747e+06 0 -1.43856e+06 3.1846e+06 0 -1.02791e+06 2.84509e+06 0 -799984 2.50973e+06 0 -2.1216e+06 327951 0 -2.14271e+06 354426 0 -2.16536e+06 381678 0 -2.18958e+06 409797 0 -2.21541e+06 438883 0 -2.24287e+06 469049 0 -2.27201e+06 500424 0 -2.30287e+06 533158 0 -2.33551e+06 567423 0 -2.36997e+06 603421 0 -2.40634e+06 641396 0 -2.4447e+06 681639 0 -2.48515e+06 724510 0 -2.52782e+06 770455 0 -2.57287e+06 820043 0 -2.62048e+06 874009 0 -2.67087e+06 933312 0 -2.72428e+06 999296 0 -2.78104e+06 1.07373e+06 0 -2.84134e+06 1.15921e+06 0 -2.90512e+06 1.25958e+06 0 -2.97258e+06 1.38047e+06 0 -3.04123e+06 1.53116e+06 0 -3.10401e+06 1.72512e+06 0 -3.15137e+06 1.98528e+06 0 -3.13682e+06 2.34813e+06 0 -2.93203e+06 2.79022e+06 0 -2.44475e+06 3.12935e+06 0 -1.81619e+06 3.167e+06 0 -1.30611e+06 2.9415e+06 0 -994934 2.63376e+06 0 -803037 2.32976e+06 0 -2.12751e+06 349050 0 -2.14923e+06 376225 0 -2.17247e+06 404227 0 -2.19727e+06 433152 0 -2.22364e+06 463105 0 -2.25162e+06 494209 0 -2.28125e+06 526603 0 -2.31257e+06 560447 0 -2.34562e+06 595930 0 -2.38046e+06 633275 0 -2.41716e+06 672749 0 -2.45579e+06 714678 0 -2.49645e+06 759465 0 -2.53925e+06 807615 0 -2.58431e+06 859776 0 -2.63177e+06 916784 0 -2.68178e+06 979775 0 -2.7345e+06 1.05026e+06 0 -2.79002e+06 1.13035e+06 0 -2.84813e+06 1.22312e+06 0 -2.90847e+06 1.33294e+06 0 -2.96948e+06 1.46657e+06 0 -3.02568e+06 1.63408e+06 0 -3.068e+06 1.84997e+06 0 -3.07251e+06 2.13711e+06 0 -2.96583e+06 2.50218e+06 0 -2.64999e+06 2.86073e+06 0 -2.13978e+06 3.04323e+06 0 -1.61093e+06 2.96804e+06 0 -1.22034e+06 2.72849e+06 0 -972943 2.44745e+06 0 -810837 2.1699e+06 0 -2.13365e+06 370831 0 -2.15596e+06 398730 0 -2.17977e+06 427508 0 -2.2051e+06 457267 0 -2.23199e+06 488122 0 -2.26045e+06 520201 0 -2.29052e+06 553655 0 -2.32225e+06 588660 0 -2.35566e+06 625420 0 -2.39082e+06 664180 0 -2.42777e+06 705237 0 -2.46659e+06 748954 0 -2.50734e+06 795781 0 -2.55011e+06 846292 0 -2.59499e+06 901217 0 -2.64204e+06 961525 0 -2.69132e+06 1.02851e+06 0 -2.74282e+06 1.1039e+06 0 -2.79628e+06 1.19018e+06 0 -2.85112e+06 1.29083e+06 0 -2.90602e+06 1.41088e+06 0 -2.95707e+06 1.55784e+06 0 -2.9965e+06 1.74193e+06 0 -3.00911e+06 1.97754e+06 0 -2.95369e+06 2.27621e+06 0 -2.75633e+06 2.6061e+06 0 -2.37787e+06 2.8574e+06 0 -1.89909e+06 2.91463e+06 0 -1.46877e+06 2.77701e+06 0 -1.16261e+06 2.54e+06 0 -959891 2.28084e+06 0 -822299 2.0252e+06 0 -2.14e+06 393310 0 -2.16287e+06 421956 0 -2.18722e+06 451538 0 -2.21306e+06 482163 0 -2.24042e+06 513952 0 -2.26932e+06 547046 0 -2.2998e+06 581607 0 -2.33187e+06 617825 0 -2.36559e+06 655924 0 -2.40099e+06 696174 0 -2.43811e+06 738903 0 -2.477e+06 784514 0 -2.5177e+06 833516 0 -2.56026e+06 886549 0 -2.60471e+06 944447 0 -2.65102e+06 1.00831e+06 0 -2.69911e+06 1.07959e+06 0 -2.7487e+06 1.16031e+06 0 -2.79915e+06 1.25324e+06 0 -2.84922e+06 1.36228e+06 0 -2.89602e+06 1.49302e+06 0 -2.93344e+06 1.65305e+06 0 -2.95038e+06 1.85206e+06 0 -2.92222e+06 2.09978e+06 0 -2.79968e+06 2.38722e+06 0 -2.53298e+06 2.65366e+06 0 -2.13847e+06 2.79902e+06 0 -1.71684e+06 2.76786e+06 0 -1.36953e+06 2.59959e+06 0 -1.12334e+06 2.37109e+06 0 -954280 2.12986e+06 0 -836556 1.89183e+06 0 -2.14654e+06 416500 0 -2.16995e+06 445920 0 -2.1948e+06 476335 0 -2.22111e+06 507857 0 -2.2489e+06 540618 0 -2.2782e+06 574768 0 -2.30902e+06 610483 0 -2.34139e+06 647969 0 -2.37534e+06 687473 0 -2.41089e+06 729291 0 -2.44807e+06 773786 0 -2.4869e+06 821407 0 -2.52738e+06 872720 0 -2.56952e+06 928447 0 -2.61324e+06 989527 0 -2.65841e+06 1.05719e+06 0 -2.70472e+06 1.13309e+06 0 -2.75156e+06 1.21948e+06 0 -2.79777e+06 1.31942e+06 0 -2.84108e+06 1.43716e+06 0 -2.8768e+06 1.57843e+06 0 -2.89644e+06 1.75021e+06 0 -2.88386e+06 1.95978e+06 0 -2.80711e+06 2.20646e+06 0 -2.62339e+06 2.45993e+06 0 -2.31756e+06 2.64968e+06 0 -1.94034e+06 2.7054e+06 0 -1.5815e+06 2.61743e+06 0 -1.29955e+06 2.43642e+06 0 -1.0974e+06 2.21784e+06 0 -954785 1.99129e+06 0 -853137 1.76719e+06 0 -2.15326e+06 440418 0 -2.17716e+06 470639 0 -2.20248e+06 501915 0 -2.22922e+06 534369 0 -2.2574e+06 568139 0 -2.28704e+06 603389 0 -2.31815e+06 640308 0 -2.35074e+06 679122 0 -2.38484e+06 720100 0 -2.42044e+06 763568 0 -2.45755e+06 809926 0 -2.49616e+06 859675 0 -2.53623e+06 913442 0 -2.57766e+06 972035 0 -2.62029e+06 1.0365e+06 0 -2.66381e+06 1.10821e+06 0 -2.70763e+06 1.189e+06 0 -2.7507e+06 1.28132e+06 0 -2.79113e+06 1.38847e+06 0 -2.8253e+06 1.5148e+06 0 -2.84669e+06 1.66558e+06 0 -2.8438e+06 1.84625e+06 0 -2.79544e+06 2.05856e+06 0 -2.66938e+06 2.28837e+06 0 -2.44051e+06 2.49138e+06 0 -2.12428e+06 2.60507e+06 0 -1.78258e+06 2.59257e+06 0 -1.48172e+06 2.47072e+06 0 -1.25022e+06 2.28626e+06 0 -1.08172e+06 2.07718e+06 0 -960323 1.8626e+06 0 -871806 1.64947e+06 0 -2.16012e+06 465078 0 -2.18449e+06 496128 0 -2.21023e+06 528298 0 -2.23736e+06 561717 0 -2.26588e+06 596537 0 -2.2958e+06 632932 0 -2.32713e+06 671108 0 -2.35987e+06 711311 0 -2.39401e+06 753834 0 -2.42955e+06 799037 0 -2.46645e+06 847360 0 -2.50465e+06 899354 0 -2.54404e+06 955717 0 -2.58445e+06 1.01734e+06 0 -2.62555e+06 1.08538e+06 0 -2.66679e+06 1.16134e+06 0 -2.70724e+06 1.24721e+06 0 -2.7453e+06 1.34559e+06 0 -2.77808e+06 1.45984e+06 0 -2.80054e+06 1.59401e+06 0 -2.80409e+06 1.75226e+06 0 -2.77402e+06 1.93683e+06 0 -2.68708e+06 2.14138e+06 0 -2.51861e+06 2.33983e+06 0 -2.26471e+06 2.48492e+06 0 -1.95951e+06 2.53212e+06 0 -1.65987e+06 2.47159e+06 0 -1.40846e+06 2.33082e+06 0 -1.21618e+06 2.14732e+06 0 -1.0742e+06 1.94672e+06 0 -970079 1.7418e+06 0 -892418 1.53725e+06 0 -2.16709e+06 490497 0 -2.19189e+06 522404 0 -2.21802e+06 555499 0 -2.24548e+06 589921 0 -2.27428e+06 625831 0 -2.30442e+06 663419 0 -2.33589e+06 702907 0 -2.36868e+06 744562 0 -2.40277e+06 788704 0 -2.4381e+06 835727 0 -2.47461e+06 886115 0 -2.51217e+06 940473 0 -2.5506e+06 999566 0 -2.58959e+06 1.06437e+06 0 -2.62862e+06 1.13614e+06 0 -2.66685e+06 1.2165e+06 0 -2.7029e+06 1.30752e+06 0 -2.73445e+06 1.41185e+06 0 -2.75752e+06 1.53263e+06 0 -2.76553e+06 1.67313e+06 0 -2.74777e+06 1.83544e+06 0 -2.6875e+06 2.01689e+06 0 -2.56404e+06 2.20252e+06 0 -2.3654e+06 2.35966e+06 0 -2.10526e+06 2.44754e+06 0 -1.82397e+06 2.44162e+06 0 -1.56582e+06 2.34913e+06 0 -1.35519e+06 2.19853e+06 0 -1.19392e+06 2.01786e+06 0 -1.07335e+06 1.82451e+06 0 -983466 1.62731e+06 0 -914859 1.42936e+06 0 -2.17416e+06 516689 0 -2.19934e+06 549483 0 -2.2258e+06 583538 0 -2.25355e+06 619000 0 -2.28257e+06 656043 0 -2.31285e+06 694872 0 -2.34437e+06 735727 0 -2.37711e+06 778897 0 -2.411e+06 824733 0 -2.44596e+06 873661 0 -2.48187e+06 926211 0 -2.51854e+06 983042 0 -2.55565e+06 1.04498e+06 0 -2.59275e+06 1.11309e+06 0 -2.62907e+06 1.18869e+06 0 -2.66342e+06 1.27348e+06 0 -2.69386e+06 1.36955e+06 0 -2.71723e+06 1.47937e+06 0 -2.72839e+06 1.60554e+06 0 -2.71928e+06 1.74991e+06 0 -2.67755e+06 1.91144e+06 0 -2.58693e+06 2.08158e+06 0 -2.43357e+06 2.2388e+06 0 -2.21881e+06 2.35044e+06 0 -1.96682e+06 2.3874e+06 0 -1.71519e+06 2.3417e+06 0 -1.49463e+06 2.22882e+06 0 -1.31735e+06 2.07359e+06 0 -1.1811e+06 1.89631e+06 0 -1.0781e+06 1.70899e+06 0 -1.00006e+06 1.5178e+06 0 -939027 1.32476e+06 0 -2.18127e+06 543671 0 -2.20679e+06 577383 0 -2.23354e+06 612431 0 -2.2615e+06 648971 0 -2.29067e+06 687191 0 -2.32101e+06 727310 0 -2.35249e+06 769587 0 -2.38504e+06 814337 0 -2.41859e+06 861938 0 -2.45299e+06 912853 0 -2.48806e+06 967654 0 -2.52351e+06 1.02705e+06 0 -2.5589e+06 1.09193e+06 0 -2.59355e+06 1.16341e+06 0 -2.62642e+06 1.24286e+06 0 -2.65588e+06 1.33197e+06 0 -2.67935e+06 1.43271e+06 0 -2.69277e+06 1.54715e+06 0 -2.68989e+06 1.67687e+06 0 -2.66141e+06 1.8216e+06 0 -2.59471e+06 1.97639e+06 0 -2.47693e+06 2.1273e+06 0 -2.30315e+06 2.25e+06 0 -2.08514e+06 2.31706e+06 0 -1.85048e+06 2.31197e+06 0 -1.62953e+06 2.23784e+06 0 -1.44162e+06 2.1123e+06 0 -1.29173e+06 1.95529e+06 0 -1.17601e+06 1.78134e+06 0 -1.08763e+06 1.59884e+06 0 -1.01957e+06 1.41214e+06 0 -964841 1.22244e+06 0 -2.18841e+06 571457 0 -2.21421e+06 606118 0 -2.24118e+06 642194 0 -2.26929e+06 679852 0 -2.29853e+06 719292 0 -2.32883e+06 760749 0 -2.36015e+06 804504 0 -2.39238e+06 850894 0 -2.4254e+06 900327 0 -2.45903e+06 953301 0 -2.49297e+06 1.01043e+06 0 -2.52684e+06 1.07246e+06 0 -2.56001e+06 1.14033e+06 0 -2.59158e+06 1.21517e+06 0 -2.62015e+06 1.29837e+06 0 -2.6436e+06 1.39149e+06 0 -2.65865e+06 1.4962e+06 0 -2.66037e+06 1.61383e+06 0 -2.64159e+06 1.74448e+06 0 -2.59251e+06 1.8852e+06 0 -2.50211e+06 2.02696e+06 0 -2.36308e+06 2.15234e+06 0 -2.17904e+06 2.23825e+06 0 -1.9678e+06 2.26521e+06 0 -1.75515e+06 2.22724e+06 0 -1.56326e+06 2.13338e+06 0 -1.40324e+06 2.00014e+06 0 -1.27608e+06 1.8428e+06 0 -1.17747e+06 1.67177e+06 0 -1.1014e+06 1.49293e+06 0 -1.04178e+06 1.30932e+06 0 -992241 1.12146e+06 0 -2.19552e+06 600061 0 -2.22154e+06 635703 0 -2.24867e+06 672843 0 -2.27686e+06 711656 0 -2.30607e+06 752358 0 -2.33623e+06 795202 0 -2.36725e+06 840486 0 -2.399e+06 888573 0 -2.43129e+06 939898 0 -2.46388e+06 994988 0 -2.49637e+06 1.05449e+06 0 -2.52822e+06 1.11919e+06 0 -2.55863e+06 1.19003e+06 0 -2.5864e+06 1.26814e+06 0 -2.60973e+06 1.3548e+06 0 -2.62596e+06 1.45135e+06 0 -2.63114e+06 1.55891e+06 0 -2.61961e+06 1.67774e+06 0 -2.58369e+06 1.80602e+06 0 -2.51428e+06 1.93783e+06 0 -2.40367e+06 2.0609e+06 0 -2.25081e+06 2.15699e+06 0 -2.06569e+06 2.20718e+06 0 -1.86788e+06 2.20025e+06 0 -1.67872e+06 2.13753e+06 0 -1.51314e+06 2.03022e+06 0 -1.37683e+06 1.89232e+06 0 -1.26873e+06 1.73528e+06 0 -1.18457e+06 1.56657e+06 0 -1.11898e+06 1.39026e+06 0 -1.06655e+06 1.20838e+06 0 -1.0212e+06 1.02084e+06 0 -2.20256e+06 629498 0 -2.22875e+06 666151 0 -2.25595e+06 704388 0 -2.28413e+06 744395 0 -2.31321e+06 786401 0 -2.3431e+06 830674 0 -2.37367e+06 877535 0 -2.40475e+06 927366 0 -2.43609e+06 980627 0 -2.46733e+06 1.03787e+06 0 -2.498e+06 1.09976e+06 0 -2.52736e+06 1.1671e+06 0 -2.55437e+06 1.24081e+06 0 -2.57753e+06 1.32195e+06 0 -2.59462e+06 1.41159e+06 0 -2.60243e+06 1.51068e+06 0 -2.59643e+06 1.61952e+06 0 -2.57051e+06 1.73698e+06 0 -2.51724e+06 1.85907e+06 0 -2.42945e+06 1.97718e+06 0 -2.30375e+06 2.07738e+06 0 -2.14465e+06 2.14307e+06 0 -1.96561e+06 2.16093e+06 0 -1.78493e+06 2.12665e+06 0 -1.61877e+06 2.04574e+06 0 -1.47647e+06 1.92928e+06 0 -1.3604e+06 1.78852e+06 0 -1.2685e+06 1.63193e+06 0 -1.19669e+06 1.46482e+06 0 -1.14013e+06 1.2899e+06 0 -1.09382e+06 1.10839e+06 0 -1.05173e+06 919544 0 -2.20949e+06 659777 0 -2.23576e+06 697473 0 -2.26297e+06 736840 0 -2.29103e+06 778076 0 -2.31986e+06 821423 0 -2.34934e+06 867166 0 -2.37929e+06 915641 0 -2.40948e+06 967251 0 -2.43959e+06 1.02247e+06 0 -2.46917e+06 1.08188e+06 0 -2.49757e+06 1.14613e+06 0 -2.5239e+06 1.21601e+06 0 -2.54684e+06 1.29237e+06 0 -2.56455e+06 1.37612e+06 0 -2.57437e+06 1.46801e+06 0 -2.57264e+06 1.56837e+06 0 -2.55444e+06 1.67646e+06 0 -2.51369e+06 1.78955e+06 0 -2.44408e+06 1.90152e+06 0 -2.34131e+06 2.00191e+06 0 -2.20641e+06 2.07696e+06 0 -2.04778e+06 2.11339e+06 0 -1.87976e+06 2.10348e+06 0 -1.7177e+06 2.04781e+06 0 -1.57303e+06 1.95368e+06 0 -1.45116e+06 1.83093e+06 0 -1.35248e+06 1.6883e+06 0 -1.2745e+06 1.53197e+06 0 -1.21339e+06 1.36566e+06 0 -1.16468e+06 1.19097e+06 0 -1.12361e+06 1.00839e+06 0 -1.08393e+06 816395 0 -2.21624e+06 690909 0 -2.24253e+06 729677 0 -2.26964e+06 770205 0 -2.29748e+06 812701 0 -2.32593e+06 857421 0 -2.35483e+06 904663 0 -2.38396e+06 954779 0 -2.41302e+06 1.00818e+06 0 -2.4416e+06 1.06536e+06 0 -2.46913e+06 1.12689e+06 0 -2.4948e+06 1.1934e+06 0 -2.51749e+06 1.26563e+06 0 -2.53564e+06 1.34429e+06 0 -2.54703e+06 1.43003e+06 0 -2.54864e+06 1.52314e+06 0 -2.53646e+06 1.62314e+06 0 -2.50553e+06 1.7281e+06 0 -2.45041e+06 1.83359e+06 0 -2.36666e+06 1.93182e+06 0 -2.2533e+06 2.01174e+06 0 -2.11498e+06 2.06124e+06 0 -1.96211e+06 2.07109e+06 0 -1.808e+06 2.03821e+06 0 -1.66462e+06 1.96614e+06 0 -1.53954e+06 1.8624e+06 0 -1.43556e+06 1.73519e+06 0 -1.35197e+06 1.59114e+06 0 -1.28611e+06 1.43469e+06 0 -1.23441e+06 1.2683e+06 0 -1.1926e+06 1.09257e+06 0 -1.15605e+06 907345 0 -1.11797e+06 709995 0 -2.22277e+06 722900 0 -2.24897e+06 762765 0 -2.27588e+06 804481 0 -2.30337e+06 848264 0 -2.33129e+06 894382 0 -2.35944e+06 943142 0 -2.38753e+06 994907 0 -2.41518e+06 1.0501e+06 0 -2.4419e+06 1.10919e+06 0 -2.46695e+06 1.17274e+06 0 -2.48937e+06 1.24135e+06 0 -2.50781e+06 1.3156e+06 0 -2.52042e+06 1.39604e+06 0 -2.52467e+06 1.48291e+06 0 -2.51727e+06 1.5759e+06 0 -2.49411e+06 1.67361e+06 0 -2.45057e+06 1.77278e+06 0 -2.38247e+06 1.86756e+06 0 -2.28778e+06 1.94923e+06 0 -2.16855e+06 2.00735e+06 0 -2.03185e+06 2.03245e+06 0 -1.88843e+06 2.01918e+06 0 -1.74959e+06 1.96782e+06 0 -1.62409e+06 1.88327e+06 0 -1.51665e+06 1.77242e+06 0 -1.42842e+06 1.64187e+06 0 -1.35806e+06 1.4965e+06 0 -1.3029e+06 1.33939e+06 0 -1.25961e+06 1.17194e+06 0 -1.22397e+06 993802 0 -1.19144e+06 804113 0 -1.15422e+06 598593 0 -2.22899e+06 755752 0 -2.25502e+06 796737 0 -2.28161e+06 839663 0 -2.30861e+06 884751 0 -2.33583e+06 932278 0 -2.36302e+06 982559 0 -2.38982e+06 1.03596e+06 0 -2.41577e+06 1.09289e+06 0 -2.44024e+06 1.15381e+06 0 -2.46237e+06 1.21922e+06 0 -2.481e+06 1.28963e+06 0 -2.49454e+06 1.36546e+06 0 -2.5009e+06 1.44694e+06 0 -2.49731e+06 1.53385e+06 0 -2.48037e+06 1.62513e+06 0 -2.44616e+06 1.71836e+06 0 -2.3909e+06 1.80909e+06 0 -2.3121e+06 1.89048e+06 0 -2.21016e+06 1.9538e+06 0 -2.08955e+06 1.99015e+06 0 -1.95844e+06 1.99304e+06 0 -1.82676e+06 1.96031e+06 0 -1.70347e+06 1.8943e+06 0 -1.59467e+06 1.80021e+06 0 -1.50307e+06 1.68397e+06 0 -1.4288e+06 1.55069e+06 0 -1.37017e+06 1.40382e+06 0 -1.32466e+06 1.24542e+06 0 -1.28901e+06 1.07578e+06 0 -1.25903e+06 893695 0 -1.23032e+06 697357 0 -1.19333e+06 479589 0 -2.23485e+06 789462 0 -2.26058e+06 831584 0 -2.28672e+06 875734 0 -2.31308e+06 922135 0 -2.33941e+06 971069 0 -2.36541e+06 1.02285e+06 0 -2.39065e+06 1.07784e+06 0 -2.41456e+06 1.13642e+06 0 -2.43639e+06 1.19901e+06 0 -2.45512e+06 1.26604e+06 0 -2.46939e+06 1.33785e+06 0 -2.47743e+06 1.41464e+06 0 -2.47692e+06 1.49624e+06 0 -2.465e+06 1.58185e+06 0 -2.43835e+06 1.66961e+06 0 -2.39363e+06 1.7561e+06 0 -2.32824e+06 1.83596e+06 0 -2.2416e+06 1.902e+06 0 -2.13625e+06 1.94628e+06 0 -2.01811e+06 1.96198e+06 0 -1.89541e+06 1.94538e+06 0 -1.77664e+06 1.89661e+06 0 -1.66853e+06 1.81904e+06 0 -1.57512e+06 1.71758e+06 0 -1.49777e+06 1.59704e+06 0 -1.43601e+06 1.46131e+06 0 -1.38795e+06 1.31256e+06 0 -1.35134e+06 1.15215e+06 0 -1.32274e+06 978933 0 -1.29831e+06 791247 0 -1.2737e+06 585174 0 -1.23621e+06 350186 0 -2.24025e+06 824021 0 -2.26557e+06 867290 0 -2.29111e+06 912666 0 -2.31665e+06 960373 0 -2.3419e+06 1.01069e+06 0 -2.36646e+06 1.06393e+06 0 -2.38983e+06 1.12041e+06 0 -2.41134e+06 1.1805e+06 0 -2.43011e+06 1.24454e+06 0 -2.44495e+06 1.31283e+06 0 -2.45434e+06 1.38551e+06 0 -2.45633e+06 1.46246e+06 0 -2.44849e+06 1.54306e+06 0 -2.42802e+06 1.62584e+06 0 -2.39197e+06 1.70815e+06 0 -2.33785e+06 1.78576e+06 0 -2.26453e+06 1.85279e+06 0 -2.1732e+06 1.90237e+06 0 -2.06796e+06 1.92791e+06 0 -1.95533e+06 1.9248e+06 0 -1.84286e+06 1.89154e+06 0 -1.73737e+06 1.82972e+06 0 -1.64372e+06 1.743e+06 0 -1.56442e+06 1.63568e+06 0 -1.49997e+06 1.51152e+06 0 -1.44958e+06 1.37334e+06 0 -1.41119e+06 1.22216e+06 0 -1.38309e+06 1.05897e+06 0 -1.36107e+06 880345 0 -1.34291e+06 685449 0 -1.32291e+06 465638 0 -1.28495e+06 204303 0 -2.24511e+06 859410 0 -2.26988e+06 903826 0 -2.29467e+06 950419 0 -2.3192e+06 999406 0 -2.34313e+06 1.05106e+06 0 -2.36598e+06 1.10566e+06 0 -2.38717e+06 1.16352e+06 0 -2.40591e+06 1.22491e+06 0 -2.42118e+06 1.29008e+06 0 -2.43166e+06 1.35915e+06 0 -2.43569e+06 1.43202e+06 0 -2.4312e+06 1.50818e+06 0 -2.41581e+06 1.58647e+06 0 -2.38694e+06 1.6648e+06 0 -2.34228e+06 1.73977e+06 0 -2.28043e+06 1.80663e+06 0 -2.20172e+06 1.85952e+06 0 -2.10881e+06 1.89236e+06 0 -2.00669e+06 1.90023e+06 0 -1.90176e+06 1.88048e+06 0 -1.8005e+06 1.83324e+06 0 -1.70816e+06 1.76084e+06 0 -1.6281e+06 1.66679e+06 0 -1.56176e+06 1.55464e+06 0 -1.50912e+06 1.4272e+06 0 -1.4692e+06 1.28636e+06 0 -1.43989e+06 1.1321e+06 0 -1.42027e+06 965224 0 -1.40438e+06 778877 0 -1.39485e+06 576212 0 -1.38022e+06 332899 0 -1.3456e+06 31469.8 0 -2.24935e+06 895605 0 -2.27342e+06 941153 0 -2.29727e+06 988933 0 -2.32059e+06 1.03915e+06 0 -2.34294e+06 1.09206e+06 0 -2.3638e+06 1.14791e+06 0 -2.38248e+06 1.20693e+06 0 -2.39807e+06 1.26934e+06 0 -2.40943e+06 1.33522e+06 0 -2.41512e+06 1.40448e+06 0 -2.4134e+06 1.47671e+06 0 -2.4022e+06 1.55096e+06 0 -2.3793e+06 1.62555e+06 0 -2.3426e+06 1.69776e+06 0 -2.29059e+06 1.7637e+06 0 -2.22305e+06 1.81842e+06 0 -2.14161e+06 1.85652e+06 0 -2.04993e+06 1.87308e+06 0 -1.95329e+06 1.86483e+06 0 -1.85751e+06 1.8307e+06 0 -1.76787e+06 1.77184e+06 0 -1.68825e+06 1.69083e+06 0 -1.6209e+06 1.59077e+06 0 -1.56654e+06 1.47445e+06 0 -1.52486e+06 1.34384e+06 0 -1.49473e+06 1.19993e+06 0 -1.47435e+06 1.04191e+06 0 -1.46331e+06 870136 0 -1.45339e+06 673653 0 -1.45884e+06 461376 0 -1.44601e+06 180895 0 -1.43307e+06 -158640 0 -2.25285e+06 932566 0 -2.27605e+06 979207 0 -2.29879e+06 1.02813e+06 0 -2.32066e+06 1.0795e+06 0 -2.34119e+06 1.13354e+06 0 -2.35976e+06 1.19046e+06 0 -2.37557e+06 1.2504e+06 0 -2.38764e+06 1.31345e+06 0 -2.39472e+06 1.37952e+06 0 -2.39528e+06 1.44825e+06 0 -2.38758e+06 1.51889e+06 0 -2.36967e+06 1.59003e+06 0 -2.33965e+06 1.65947e+06 0 -2.29606e+06 1.72402e+06 0 -2.23833e+06 1.77952e+06 0 -2.16734e+06 1.82124e+06 0 -2.08572e+06 1.84454e+06 0 -1.99765e+06 1.84582e+06 0 -1.90821e+06 1.82323e+06 0 -1.82242e+06 1.77685e+06 0 -1.7444e+06 1.70836e+06 0 -1.67695e+06 1.62026e+06 0 -1.62149e+06 1.51512e+06 0 -1.57833e+06 1.39502e+06 0 -1.54697e+06 1.26115e+06 0 -1.52627e+06 1.11366e+06 0 -1.5151e+06 951193 0 -1.51238e+06 773004 0 -1.51121e+06 563593 0 -1.53935e+06 343204 0 -1.51535e+06 9524.49 0 -1.70399e+06 -569481 0 -2.25551e+06 970203 0 -2.27768e+06 1.01794e+06 0 -2.29908e+06 1.06792e+06 0 -2.31928e+06 1.12032e+06 0 -2.33771e+06 1.17533e+06 0 -2.35368e+06 1.23307e+06 0 -2.36631e+06 1.29358e+06 0 -2.37452e+06 1.3568e+06 0 -2.377e+06 1.42241e+06 0 -2.37222e+06 1.48977e+06 0 -2.35849e+06 1.55772e+06 0 -2.33413e+06 1.62446e+06 0 -2.29773e+06 1.68735e+06 0 -2.24855e+06 1.74291e+06 0 -2.18696e+06 1.78703e+06 0 -2.11478e+06 1.81548e+06 0 -2.03525e+06 1.82457e+06 0 -1.95266e+06 1.81194e+06 0 -1.87158e+06 1.77686e+06 0 -1.79616e+06 1.72013e+06 0 -1.72954e+06 1.64363e+06 0 -1.67367e+06 1.54956e+06 0 -1.62943e+06 1.43995e+06 0 -1.59687e+06 1.31621e+06 0 -1.57539e+06 1.1788e+06 0 -1.56419e+06 1.02717e+06 0 -1.56257e+06 859480 0 -1.56833e+06 672229 0 -1.58432e+06 450432 0 -1.63037e+06 219289 0 -1.64168e+06 -249874 0 -2.66201e+06 -1.33724e+06 0 </DataArray> 
</PointData> 
<Points> 
<DataArray type="Float32" NumberOfComponents="3"> 