<?xml version="1.0"?> 
<VTKFile type="StructuredGrid" version="0.1"> 
<StructuredGrid WholeExtent="0 31 0 31 0 0"> 
<Piece Extent="0 31 0 31 0 0"> 
<PointData>
<DataArray type="Float32" Name="|E|" format="ascii" NumberOfComponents="3"> 
-2.07814e+06 47264.9 0 -2.08715e+06 64463.3 0 -2.09854e+06 81401 0 -2.11237e+06 98167.9 0 -2.12865e+06 114804 0 -2.14746e+06 131357 0 -2.16885e+06 147880 0 -2.1929e+06 164425 0 -2.21969e+06 181044 0 -2.24932e+06 197792 0 -2.2819e+06 214726 0 -2.31757e+06 231901 0 -2.35646e+06 249373 0 -2.39876e+06 267193 0 -2.44466e+06 285406 0 -2.49438e+06 304041 0 -2.5482e+06 323105 0 -2.60643e+06 342564 0 -2.66944e+06 362322 0 -2.73765e+06 382183 0 -2.81156e+06 401796 0 -2.89175e+06 420572 0 -2.97883e+06 437559 0 -3.07343e+06 451259 0 -3.17601e+06 459352 0 -3.28662e+06 458379 0 -3.40423e+06 443514 0 -3.52532e+06 408649 0 -3.64189e+06 347021 0 -3.74022e+06 253817 0 -3.80432e+06 130672 0 -3.8264e+06 0 0 -2.07777e+06 50330.3 0 -2.08704e+06 67627.4 0 -2.09867e+06 84697.2 0 -2.1127e+06 101618 0 -2.12917e+06 118431 0 -2.14815e+06 135186 0 -2.16968e+06 151935 0 -2.19385e+06 168731 0 -2.22074e+06 185629 0 -2.25044e+06 202685 0 -2.28308e+06 219956 0 -2.31877e+06 237501 0 -2.35766e+06 255377 0 -2.39993e+06 273639 0 -2.44577e+06 292334 0 -2.49542e+06 311497 0 -2.54914e+06 331138 0 -2.60725e+06 351230 0 -2.67013e+06 371683 0 -2.73822e+06 392311 0 -2.81204e+06 412772 0 -2.8922e+06 432486 0 -2.97937e+06 450513 0 -3.07428e+06 465351 0 -3.17753e+06 474658 0 -3.28935e+06 474902 0 -3.40896e+06 461059 0 -3.53307e+06 426544 0 -3.65382e+06 363853 0 -3.7571e+06 267279 0 -3.8256e+06 138941 0 -3.84705e+06 -5.96046e-08 0 -2.07744e+06 53444.7 0 -2.08696e+06 70844.3 0 -2.09881e+06 88047.4 0 -2.11305e+06 105123 0 -2.12971e+06 122114 0 -2.14884e+06 139071 0 -2.17051e+06 156047 0 -2.1948e+06 173096 0 -2.22178e+06 190273 0 -2.25155e+06 207636 0 -2.28423e+06 225245 0 -2.31994e+06 243160 0 -2.35883e+06 261440 0 -2.40106e+06 280144 0 -2.44685e+06 299321 0 -2.49641e+06 319012 0 -2.55002e+06 339230 0 -2.60801e+06 359957 0 -2.67075e+06 381109 0 -2.73871e+06 402509 0 -2.81242e+06 423827 0 -2.89254e+06 444497 0 -2.9798e+06 463588 0 -3.07501e+06 479605 0 -3.17892e+06 490192 0 -3.29198e+06 491750 0 -3.41365e+06 479059 0 -3.54093e+06 445066 0 -3.66616e+06 381464 0 -3.77481e+06 281591 0 -3.84793e+06 147580 0 -3.86955e+06 -2.08616e-07 0 -2.07715e+06 56608.1 0 -2.08691e+06 74114.4 0 -2.09898e+06 91451.6 0 -2.11342e+06 108683 0 -2.13026e+06 125853 0 -2.14955e+06 143012 0 -2.17135e+06 160215 0 -2.19575e+06 177517 0 -2.22282e+06 194974 0 -2.25266e+06 212645 0 -2.28537e+06 230592 0 -2.32109e+06 248876 0 -2.35996e+06 267561 0 -2.40216e+06 286706 0 -2.44788e+06 306367 0 -2.49735e+06 326585 0 -2.55084e+06 347382 0 -2.6087e+06 368745 0 -2.67129e+06 390598 0 -2.73911e+06 412776 0 -2.81271e+06 434961 0 -2.89278e+06 456603 0 -2.98011e+06 476785 0 -3.07562e+06 494025 0 -3.18019e+06 505959 0 -3.2945e+06 508934 0 -3.41828e+06 497539 0 -3.5489e+06 464254 0 -3.6789e+06 399922 0 -3.79337e+06 296811 0 -3.87146e+06 156686 0 -3.89391e+06 4.09782e-07 0 -2.07688e+06 59822.5 0 -2.08688e+06 77437.7 0 -2.09918e+06 94909.9 0 -2.11381e+06 112298 0 -2.13082e+06 129647 0 -2.15026e+06 147010 0 -2.1722e+06 164441 0 -2.1967e+06 181996 0 -2.22385e+06 199733 0 -2.25374e+06 217713 0 -2.28649e+06 235997 0 -2.32222e+06 254652 0 -2.36107e+06 273741 0 -2.40322e+06 293327 0 -2.44886e+06 313471 0 -2.49823e+06 334217 0 -2.55161e+06 355594 0 -2.60932e+06 377594 0 -2.67176e+06 400152 0 -2.73943e+06 423114 0 -2.8129e+06 446176 0 -2.89291e+06 468805 0 -2.9803e+06 490107 0 -3.07609e+06 508613 0 -3.18132e+06 521965 0 -3.29688e+06 526463 0 -3.42284e+06 516519 0 -3.55694e+06 484149 0 -3.69201e+06 419298 0 -3.81281e+06 313010 0 -3.89634e+06 166354 0 -3.92014e+06 1.49012e-08 0 -2.07666e+06 63088.2 0 -2.08689e+06 80814.2 0 -2.0994e+06 98422.4 0 -2.11422e+06 115968 0 -2.1314e+06 133497 0 -2.15098e+06 151065 0 -2.17304e+06 168724 0 -2.19765e+06 186533 0 -2.22487e+06 204550 0 -2.25482e+06 222838 0 -2.28759e+06 241461 0 -2.32332e+06 260485 0 -2.36215e+06 279978 0 -2.40424e+06 300007 0 -2.44981e+06 320632 0 -2.49907e+06 341907 0 -2.55231e+06 363864 0 -2.60987e+06 386503 0 -2.67215e+06 409770 0 -2.73965e+06 433521 0 -2.81299e+06 457470 0 -2.89292e+06 481105 0 -2.98036e+06 503553 0 -3.07641e+06 523372 0 -3.18229e+06 538213 0 -3.29911e+06 544347 0 -3.42729e+06 536020 0 -3.56501e+06 504793 0 -3.70549e+06 439662 0 -3.83313e+06 330279 0 -3.9227e+06 176680 0 -3.94834e+06 -2.38419e-07 0 -2.07646e+06 66405.4 0 -2.08692e+06 84244.1 0 -2.09964e+06 101989 0 -2.11464e+06 119693 0 -2.13199e+06 137404 0 -2.15171e+06 155176 0 -2.17389e+06 173065 0 -2.19859e+06 191128 0 -2.22589e+06 209426 0 -2.25588e+06 228022 0 -2.28868e+06 246983 0 -2.3244e+06 266377 0 -2.3632e+06 286274 0 -2.40523e+06 306744 0 -2.4507e+06 327852 0 -2.49985e+06 349656 0 -2.55295e+06 372194 0 -2.61035e+06 395474 0 -2.67245e+06 419452 0 -2.73978e+06 443999 0 -2.81297e+06 468845 0 -2.89281e+06 493502 0 -2.98028e+06 517125 0 -3.07659e+06 538302 0 -3.18309e+06 554709 0 -3.30117e+06 562596 0 -3.4316e+06 556064 0 -3.57309e+06 526228 0 -3.7193e+06 461095 0 -3.85437e+06 348719 0 -3.95068e+06 187770 0 -3.97864e+06 1.19209e-07 0 -2.0763e+06 69774.5 0 -2.08698e+06 87727.5 0 -2.0999e+06 105610 0 -2.11509e+06 123474 0 -2.13259e+06 141367 0 -2.15245e+06 159344 0 -2.17475e+06 177463 0 -2.19953e+06 195780 0 -2.2269e+06 214359 0 -2.25693e+06 233264 0 -2.28974e+06 252563 0 -2.32546e+06 272327 0 -2.36421e+06 292628 0 -2.40618e+06 313540 0 -2.45155e+06 335131 0 -2.50058e+06 357463 0 -2.55353e+06 380583 0 -2.61076e+06 404505 0 -2.67268e+06 429198 0 -2.73982e+06 454546 0 -2.81284e+06 480300 0 -2.89258e+06 505996 0 -2.98006e+06 530824 0 -3.07659e+06 553407 0 -3.18371e+06 571455 0 -3.30303e+06 581217 0 -3.43575e+06 576671 0 -3.58113e+06 548498 0 -3.73341e+06 483677 0 -3.87655e+06 368450 0 -3.98042e+06 199738 0 -4.01118e+06 -7.45058e-08 0 -2.07616e+06 73195.7 0 -2.08707e+06 91264.4 0 -2.10019e+06 109286 0 -2.11555e+06 127310 0 -2.1332e+06 145386 0 -2.1532e+06 163569 0 -2.1756e+06 181918 0 -2.20047e+06 200491 0 -2.2279e+06 219351 0 -2.25797e+06 238565 0 -2.29079e+06 258202 0 -2.32648e+06 278335 0 -2.36519e+06 299041 0 -2.40709e+06 320393 0 -2.45236e+06 342467 0 -2.50125e+06 365328 0 -2.55405e+06 389030 0 -2.61109e+06 413597 0 -2.67282e+06 439008 0 -2.73976e+06 465163 0 -2.81261e+06 491834 0 -2.89222e+06 518588 0 -2.97969e+06 544648 0 -3.07643e+06 568685 0 -3.18413e+06 588454 0 -3.30468e+06 600219 0 -3.4397e+06 597859 0 -3.5891e+06 571649 0 -3.74778e+06 507499 0 -3.8997e+06 389610 0 -4.01206e+06 212716 0 -4.04617e+06 2.08616e-07 0 -2.07606e+06 76669.1 0 -2.08718e+06 94855.1 0 -2.10049e+06 113017 0 -2.11603e+06 131201 0 -2.13383e+06 149461 0 -2.15395e+06 167852 0 -2.17646e+06 186431 0 -2.20141e+06 205259 0 -2.22889e+06 224401 0 -2.25899e+06 243924 0 -2.29182e+06 263899 0 -2.32748e+06 284402 0 -2.36614e+06 305511 0 -2.40795e+06 327305 0 -2.45312e+06 349861 0 -2.50187e+06 373252 0 -2.5545e+06 397536 0 -2.61136e+06 422749 0 -2.67288e+06 448881 0 -2.73961e+06 475849 0 -2.81226e+06 503449 0 -2.89172e+06 531277 0 -2.97917e+06 558600 0 -3.07608e+06 584139 0 -3.18433e+06 605708 0 -3.30608e+06 619608 0 -3.44341e+06 619646 0 -3.59693e+06 595723 0 -3.76236e+06 532656 0 -3.92382e+06 412354 0 -4.04577e+06 226853 0 -4.08383e+06 -1.78814e-07 0 -2.076e+06 80194.9 0 -2.08733e+06 98499.6 0 -2.10082e+06 116802 0 -2.11652e+06 135149 0 -2.13447e+06 153593 0 -2.15472e+06 172191 0 -2.17732e+06 191002 0 -2.20234e+06 210086 0 -2.22988e+06 229509 0 -2.26e+06 249341 0 -2.29282e+06 269655 0 -2.32846e+06 290527 0 -2.36706e+06 312040 0 -2.40878e+06 334274 0 -2.45383e+06 357312 0 -2.50243e+06 381233 0 -2.55489e+06 406101 0 -2.61154e+06 431961 0 -2.67284e+06 458817 0 -2.73935e+06 486604 0 -2.81179e+06 515142 0 -2.89109e+06 544062 0 -2.97848e+06 572677 0 -3.07554e+06 599767 0 -3.1843e+06 623218 0 -3.30722e+06 639388 0 -3.44685e+06 642051 0 -3.60456e+06 620766 0 -3.77709e+06 559249 0 -3.94893e+06 436860 0 -4.08173e+06 242322 0 -4.12444e+06 1.19209e-07 0 -2.07596e+06 83773.2 0 -2.0875e+06 102198 0 -2.10118e+06 120642 0 -2.11704e+06 139152 0 -2.13512e+06 157782 0 -2.15548e+06 176588 0 -2.17818e+06 195630 0 -2.20328e+06 214971 0 -2.23085e+06 234676 0 -2.26099e+06 254817 0 -2.2938e+06 275469 0 -2.32941e+06 296711 0 -2.36794e+06 318626 0 -2.40957e+06 341301 0 -2.45449e+06 364822 0 -2.50294e+06 389271 0 -2.55521e+06 414724 0 -2.61165e+06 441233 0 -2.67272e+06 468816 0 -2.73899e+06 497428 0 -2.8112e+06 526914 0 -2.89032e+06 556943 0 -2.97762e+06 586879 0 -3.07479e+06 615570 0 -3.18402e+06 640985 0 -3.30806e+06 659564 0 -3.44996e+06 665086 0 -3.61195e+06 646821 0 -3.7919e+06 587384 0 -3.97503e+06 463328 0 -4.12013e+06 259330 0 -4.16832e+06 -5.96046e-08 0 -2.07596e+06 87404.4 0 -2.08769e+06 105950 0 -2.10155e+06 124537 0 -2.11757e+06 143211 0 -2.13579e+06 162027 0 -2.15626e+06 181042 0 -2.17904e+06 200317 0 -2.2042e+06 219914 0 -2.23181e+06 239901 0 -2.26197e+06 260352 0 -2.29477e+06 281341 0 -2.33033e+06 302953 0 -2.36879e+06 325271 0 -2.41031e+06 348386 0 -2.4551e+06 372388 0 -2.50339e+06 397367 0 -2.55546e+06 423404 0 -2.61168e+06 450564 0 -2.67251e+06 478877 0 -2.73853e+06 508319 0 -2.81049e+06 538764 0 -2.8894e+06 569920 0 -2.97658e+06 601204 0 -3.07382e+06 631545 0 -3.18347e+06 659007 0 -3.30857e+06 680138 0 -3.45271e+06 688764 0 -3.619e+06 673929 0 -3.80669e+06 617174 0 -4.00208e+06 491987 0 -4.1612e+06 278117 0 -4.21587e+06 5.96046e-08 0 -2.07599e+06 91088.4 0 -2.08791e+06 109757 0 -2.10195e+06 128488 0 -2.11811e+06 147326 0 -2.13646e+06 166329 0 -2.15704e+06 185554 0 -2.1799e+06 205061 0 -2.20512e+06 224915 0 -2.23277e+06 245185 0 -2.26293e+06 265945 0 -2.29571e+06 287273 0 -2.33122e+06 309253 0 -2.3696e+06 331973 0 -2.41102e+06 355528 0 -2.45566e+06 380012 0 -2.50377e+06 405521 0 -2.55564e+06 432143 0 -2.61163e+06 459954 0 -2.67221e+06 489000 0 -2.73795e+06 519278 0 -2.80965e+06 550691 0 -2.88832e+06 582990 0 -2.97536e+06 615652 0 -3.07262e+06 647690 0 -3.18263e+06 677283 0 -3.30873e+06 701110 0 -3.45503e+06 713095 0 -3.62565e+06 702129 0 -3.82135e+06 648735 0 -4.03005e+06 523094 0 -4.20517e+06 298973 0 -4.26755e+06 0 0 -2.07605e+06 94825.6 0 -2.08816e+06 113618 0 -2.10236e+06 132493 0 -2.11868e+06 151498 0 -2.13715e+06 170689 0 -2.15783e+06 190123 0 -2.18077e+06 209864 0 -2.20604e+06 229975 0 -2.23371e+06 250527 0 -2.26388e+06 271596 0 -2.29663e+06 293262 0 -2.33208e+06 315611 0 -2.37038e+06 338734 0 -2.41168e+06 362728 0 -2.45617e+06 387693 0 -2.5041e+06 413731 0 -2.55576e+06 440938 0 -2.61151e+06 469402 0 -2.67181e+06 499185 0 -2.73727e+06 530303 0 -2.80868e+06 562694 0 -2.88709e+06 596152 0 -2.97394e+06 630220 0 -3.07118e+06 664003 0 -3.18149e+06 695809 0 -3.3085e+06 722477 0 -3.45688e+06 738085 0 -3.6318e+06 731456 0 -3.83576e+06 682186 0 -4.05887e+06 556941 0 -4.25232e+06 322248 0 -4.3239e+06 0 0 -2.07614e+06 98616 0 -2.08844e+06 117533 0 -2.1028e+06 136555 0 -2.11925e+06 155726 0 -2.13784e+06 175105 0 -2.15862e+06 194751 0 -2.18163e+06 214724 0 -2.20695e+06 235093 0 -2.23465e+06 255928 0 -2.2648e+06 277307 0 -2.29752e+06 299310 0 -2.33291e+06 322027 0 -2.37112e+06 345552 0 -2.41229e+06 369985 0 -2.45663e+06 395431 0 -2.50437e+06 421998 0 -2.5558e+06 449791 0 -2.61129e+06 478908 0 -2.67131e+06 509429 0 -2.73647e+06 541394 0 -2.80757e+06 574772 0 -2.88569e+06 609404 0 -2.97232e+06 644906 0 -3.06948e+06 680480 0 -3.18002e+06 714580 0 -3.30784e+06 744237 0 -3.45819e+06 763737 0 -3.63735e+06 761940 0 -3.84977e+06 717646 0 -4.08842e+06 593858 0 -4.30294e+06 348365 0 -4.38561e+06 1.19209e-07 0 -2.07626e+06 102460 0 -2.08874e+06 121503 0 -2.10326e+06 140671 0 -2.11985e+06 160011 0 -2.13855e+06 179579 0 -2.15942e+06 199436 0 -2.1825e+06 219643 0 -2.20786e+06 240270 0 -2.23557e+06 261388 0 -2.26571e+06 283075 0 -2.29839e+06 305416 0 -2.33372e+06 328501 0 -2.37182e+06 352428 0 -2.41286e+06 377299 0 -2.45704e+06 403226 0 -2.50458e+06 430321 0 -2.55577e+06 458700 0 -2.611e+06 488472 0 -2.67072e+06 519734 0 -2.73555e+06 552550 0 -2.80632e+06 586922 0 -2.88412e+06 622745 0 -2.97049e+06 659705 0 -3.06752e+06 697117 0 -3.1782e+06 733591 0 -3.30673e+06 766381 0 -3.45891e+06 790047 0 -3.6422e+06 793605 0 -3.8632e+06 755233 0 -4.11855e+06 634215 0 -4.35737e+06 377843 0 -4.45347e+06 5.96046e-08 0 -2.07641e+06 106357 0 -2.08906e+06 125528 0 -2.10373e+06 144844 0 -2.12046e+06 164352 0 -2.13927e+06 184111 0 -2.16022e+06 204179 0 -2.18336e+06 224621 0 -2.20876e+06 245506 0 -2.23648e+06 266907 0 -2.26661e+06 288903 0 -2.29924e+06 311581 0 -2.33449e+06 335034 0 -2.37249e+06 359361 0 -2.41339e+06 384671 0 -2.45739e+06 411077 0 -2.50472e+06 438700 0 -2.55567e+06 467665 0 -2.61061e+06 498093 0 -2.67002e+06 530098 0 -2.73451e+06 563768 0 -2.80493e+06 599144 0 -2.88238e+06 636171 0 -2.96843e+06 674615 0 -3.06527e+06 713907 0 -3.17601e+06 752833 0 -3.30513e+06 788900 0 -3.45896e+06 817008 0 -3.64623e+06 826466 0 -3.87584e+06 795055 0 -4.14902e+06 678430 0 -4.41595e+06 411320 0 -4.52852e+06 0 0 -2.07659e+06 110308 0 -2.08941e+06 129608 0 -2.10423e+06 149073 0 -2.12108e+06 168750 0 -2.14e+06 188699 0 -2.16103e+06 208980 0 -2.18422e+06 229657 0 -2.20965e+06 250800 0 -2.23738e+06 272484 0 -2.26748e+06 294789 0 -2.30006e+06 317804 0 -2.33523e+06 341624 0 -2.37311e+06 366352 0 -2.41387e+06 392098 0 -2.45768e+06 418984 0 -2.50479e+06 447135 0 -2.55549e+06 476686 0 -2.61014e+06 507770 0 -2.66922e+06 540519 0 -2.73336e+06 575049 0 -2.80339e+06 611436 0 -2.88046e+06 649680 0 -2.96616e+06 689631 0 -3.06273e+06 730845 0 -3.17343e+06 772298 0 -3.30299e+06 811781 0 -3.45829e+06 844606 0 -3.64931e+06 860529 0 -3.88746e+06 837212 0 -4.1795e+06 726963 0 -4.47907e+06 449591 0 -4.612e+06 -5.96046e-08 0 -2.0768e+06 114313 0 -2.08979e+06 133743 0 -2.10475e+06 153357 0 -2.12172e+06 173206 0 -2.14073e+06 193346 0 -2.16184e+06 213839 0 -2.18509e+06 234752 0 -2.21054e+06 256153 0 -2.23826e+06 278120 0 -2.26834e+06 300734 0 -2.30086e+06 324086 0 -2.33594e+06 348272 0 -2.3737e+06 373400 0 -2.4143e+06 399583 0 -2.45792e+06 426947 0 -2.50481e+06 455626 0 -2.55524e+06 485762 0 -2.60958e+06 517502 0 -2.66832e+06 550998 0 -2.73207e+06 586390 0 -2.8017e+06 623795 0 -2.87835e+06 663269 0 -2.96364e+06 704749 0 -3.05989e+06 747923 0 -3.17044e+06 791974 0 -3.30029e+06 835007 0 -3.45682e+06 872821 0 -3.65131e+06 895787 0 -3.8978e+06 881778 0 -4.20955e+06 780322 0 -4.5471e+06 493653 0 -4.70552e+06 -2.98023e-07 0 -2.07704e+06 118372 0 -2.09018e+06 137933 0 -2.10529e+06 157698 0 -2.12237e+06 177718 0 -2.14148e+06 198050 0 -2.16265e+06 218757 0 -2.18595e+06 239905 0 -2.21142e+06 261565 0 -2.23913e+06 283815 0 -2.26918e+06 306738 0 -2.30163e+06 330426 0 -2.33662e+06 354978 0 -2.37425e+06 380505 0 -2.41468e+06 407124 0 -2.45811e+06 434966 0 -2.50475e+06 464171 0 -2.5549e+06 494892 0 -2.60893e+06 527290 0 -2.6673e+06 561533 0 -2.73066e+06 597791 0 -2.79985e+06 636218 0 -2.87604e+06 676934 0 -2.96088e+06 719963 0 -3.05672e+06 765134 0 -3.16702e+06 811847 0 -3.29698e+06 858559 0 -3.45448e+06 901625 0 -3.65209e+06 932221 0 -3.90655e+06 928802 0 -4.23859e+06 839056 0 -4.62041e+06 544764 0 -4.81113e+06 6.55651e-07 0 -2.0773e+06 122485 0 -2.09061e+06 142178 0 -2.10584e+06 162096 0 -2.12304e+06 182287 0 -2.14223e+06 202812 0 -2.16347e+06 223733 0 -2.1868e+06 245117 0 -2.21229e+06 267036 0 -2.23999e+06 289568 0 -2.26999e+06 312800 0 -2.30238e+06 336824 0 -2.33726e+06 361742 0 -2.37476e+06 387667 0 -2.41502e+06 414721 0 -2.45824e+06 443040 0 -2.50463e+06 472771 0 -2.55449e+06 504076 0 -2.60818e+06 537131 0 -2.66618e+06 572122 0 -2.72912e+06 609248 0 -2.79784e+06 648705 0 -2.87354e+06 690671 0 -2.95787e+06 735267 0 -3.05322e+06 782466 0 -3.16314e+06 831904 0 -3.29304e+06 882412 0 -3.45119e+06 930980 0 -3.65148e+06 969794 0 -3.91343e+06 978291 0 -4.26582e+06 903741 0 -4.6993e+06 604532 0 -4.93153e+06 -4.17233e-07 0 -2.0776e+06 126653 0 -2.09105e+06 146479 0 -2.10642e+06 166550 0 -2.12372e+06 186914 0 -2.14299e+06 207632 0 -2.16429e+06 228768 0 -2.18766e+06 250388 0 -2.21315e+06 272566 0 -2.24084e+06 295381 0 -2.27079e+06 318921 0 -2.3031e+06 343280 0 -2.33787e+06 368563 0 -2.37522e+06 394886 0 -2.41531e+06 422374 0 -2.4583e+06 451168 0 -2.50444e+06 481424 0 -2.554e+06 513313 0 -2.60734e+06 547024 0 -2.66495e+06 582765 0 -2.72744e+06 620761 0 -2.79568e+06 661250 0 -2.87084e+06 704476 0 -2.9546e+06 750654 0 -3.04938e+06 799910 0 -3.15879e+06 852126 0 -3.28841e+06 906540 0 -3.44689e+06 960841 0 -3.64934e+06 1.00845e+06 0 -3.91809e+06 1.0302e+06 0 -4.29022e+06 974954 0 -4.78391e+06 675028 0 -5.07029e+06 -3.57628e-07 0 -2.07793e+06 130875 0 -2.09152e+06 150835 0 -2.10701e+06 171060 0 -2.12441e+06 191599 0 -2.14376e+06 212511 0 -2.16512e+06 233861 0 -2.18851e+06 255718 0 -2.21401e+06 278155 0 -2.24167e+06 301253 0 -2.27157e+06 325101 0 -2.30379e+06 349795 0 -2.33844e+06 375442 0 -2.37565e+06 402161 0 -2.41554e+06 430082 0 -2.45831e+06 459352 0 -2.50418e+06 490131 0 -2.55343e+06 522603 0 -2.60641e+06 556970 0 -2.6636e+06 593460 0 -2.72562e+06 632326 0 -2.79334e+06 673852 0 -2.86792e+06 718344 0 -2.95105e+06 766117 0 -3.04517e+06 817453 0 -3.15394e+06 872495 0 -3.28308e+06 930909 0 -3.44152e+06 991152 0 -3.64548e+06 1.04813e+06 0 -3.92024e+06 1.08441e+06 0 -4.31045e+06 1.05323e+06 0 -4.87408e+06 758944 0 -5.23226e+06 5.36442e-07 0 -2.07828e+06 135152 0 -2.09202e+06 155248 0 -2.10762e+06 175628 0 -2.12512e+06 196341 0 -2.14454e+06 217448 0 -2.16594e+06 239013 0 -2.18936e+06 261106 0 -2.21485e+06 283802 0 -2.24248e+06 307183 0 -2.27232e+06 331339 0 -2.30446e+06 356367 0 -2.33898e+06 382378 0 -2.37603e+06 409493 0 -2.41573e+06 437846 0 -2.45826e+06 467589 0 -2.50385e+06 498891 0 -2.55277e+06 531945 0 -2.60537e+06 566966 0 -2.66213e+06 604205 0 -2.72367e+06 643943 0 -2.79083e+06 686508 0 -2.86479e+06 732270 0 -2.94723e+06 781648 0 -3.0406e+06 835083 0 -3.14858e+06 892990 0 -3.27699e+06 955485 0 -3.435e+06 1.02185e+06 0 -3.63972e+06 1.08872e+06 0 -3.91961e+06 1.14073e+06 0 -4.32486e+06 1.13898e+06 0 -4.96909e+06 859820 0 -5.42417e+06 -4.76837e-07 0 -2.07867e+06 139484 0 -2.09253e+06 159717 0 -2.10825e+06 180253 0 -2.12584e+06 201140 0 -2.14533e+06 222443 0 -2.16677e+06 244224 0 -2.19021e+06 266554 0 -2.21569e+06 289510 0 -2.24328e+06 313173 0 -2.27305e+06 337635 0 -2.30509e+06 362998 0 -2.33949e+06 389372 0 -2.37636e+06 416881 0 -2.41586e+06 445665 0 -2.45815e+06 475880 0 -2.50345e+06 507703 0 -2.55203e+06 541337 0 -2.60424e+06 577012 0 -2.66055e+06 614998 0 -2.72157e+06 655608 0 -2.78815e+06 699212 0 -2.86144e+06 746248 0 -2.94313e+06 797238 0 -3.03564e+06 852786 0 -3.14269e+06 913587 0 -3.27012e+06 980225 0 -3.42729e+06 1.05285e+06 0 -3.63186e+06 1.13012e+06 0 -3.91596e+06 1.19887e+06 0 -4.33142e+06 1.23236e+06 0 -5.06721e+06 982353 0 -5.65549e+06 1.19209e-07 0 -2.07908e+06 143870 0 -2.09307e+06 164241 0 -2.1089e+06 184934 0 -2.12657e+06 205998 0 -2.14612e+06 227496 0 -2.1676e+06 249494 0 -2.19105e+06 272061 0 -2.21652e+06 295276 0 -2.24407e+06 319221 0 -2.27377e+06 343991 0 -2.3057e+06 369686 0 -2.33996e+06 396422 0 -2.37666e+06 424325 0 -2.41594e+06 453539 0 -2.45797e+06 484224 0 -2.50297e+06 516567 0 -2.5512e+06 550779 0 -2.60301e+06 587106 0 -2.65885e+06 625838 0 -2.71933e+06 667319 0 -2.78528e+06 711962 0 -2.85786e+06 760272 0 -2.93873e+06 812879 0 -3.03028e+06 870545 0 -3.13625e+06 934263 0 -3.26242e+06 1.00509e+06 0 -3.41834e+06 1.08407e+06 0 -3.62169e+06 1.17217e+06 0 -3.90919e+06 1.2585e+06 0 -4.32782e+06 1.33307e+06 0 -5.16493e+06 1.13285e+06 0 -5.93993e+06 5.96046e-08 0 -2.07951e+06 148312 0 -2.09364e+06 168823 0 -2.10956e+06 189674 0 -2.12731e+06 210914 0 -2.14692e+06 232609 0 -2.16843e+06 254823 0 -2.19188e+06 277628 0 -2.21733e+06 301101 0 -2.24483e+06 325329 0 -2.27445e+06 350405 0 -2.30627e+06 376433 0 -2.34039e+06 403529 0 -2.37691e+06 431825 0 -2.41597e+06 461466 0 -2.45773e+06 492621 0 -2.50242e+06 525482 0 -2.55028e+06 560270 0 -2.60167e+06 597247 0 -2.65702e+06 636724 0 -2.71694e+06 679072 0 -2.78224e+06 724753 0 -2.85406e+06 774336 0 -2.93404e+06 828559 0 -3.02452e+06 888344 0 -3.12925e+06 954990 0 -3.25388e+06 1.03001e+06 0 -3.40813e+06 1.11542e+06 0 -3.60902e+06 1.2147e+06 0 -3.89921e+06 1.3192e+06 0 -4.31169e+06 1.43996e+06 0 -5.2556e+06 1.31987e+06 0 -6.29766e+06 1.19209e-07 0 -2.07998e+06 152809 0 -2.09422e+06 173461 0 -2.11024e+06 194470 0 -2.12807e+06 215888 0 -2.14773e+06 237780 0 -2.16926e+06 260211 0 -2.19272e+06 283254 0 -2.21814e+06 306986 0 -2.24558e+06 331496 0 -2.27512e+06 356877 0 -2.30682e+06 383237 0 -2.34078e+06 410693 0 -2.37711e+06 439380 0 -2.41594e+06 469448 0 -2.45743e+06 501071 0 -2.50179e+06 534447 0 -2.54928e+06 569809 0 -2.60022e+06 607434 0 -2.65506e+06 647652 0 -2.71439e+06 690866 0 -2.779e+06 737580 0 -2.85001e+06 788433 0 -2.92904e+06 844269 0 -3.01835e+06 906164 0 -3.12168e+06 975743 0 -3.24448e+06 1.05495e+06 0 -3.39658e+06 1.14681e+06 0 -3.59369e+06 1.25746e+06 0 -3.88595e+06 1.38066e+06 0 -4.28115e+06 1.55055e+06 0 -5.32721e+06 1.55511e+06 0 -6.75911e+06 -6.55651e-07 0 -2.08047e+06 157361 0 -2.09483e+06 178156 0 -2.11094e+06 199324 0 -2.12883e+06 220921 0 -2.14854e+06 243010 0 -2.17009e+06 265659 0 -2.19354e+06 288939 0 -2.21893e+06 312930 0 -2.24631e+06 337721 0 -2.27576e+06 363408 0 -2.30733e+06 390099 0 -2.34113e+06 417914 0 -2.37726e+06 446990 0 -2.41585e+06 477483 0 -2.45706e+06 509571 0 -2.50109e+06 543461 0 -2.54818e+06 579395 0 -2.59867e+06 617664 0 -2.65298e+06 658620 0 -2.71169e+06 702696 0 -2.77558e+06 750439 0 -2.84573e+06 802555 0 -2.92373e+06 859996 0 -3.01175e+06 923988 0 -3.1135e+06 996491 0 -3.23422e+06 1.07983e+06 0 -3.38361e+06 1.17816e+06 0 -3.57575e+06 1.30008e+06 0 -3.86892e+06 1.44283e+06 0 -4.23616e+06 1.66001e+06 0 -5.35827e+06 1.85503e+06 0 -7.3711e+06 7.15256e-07 0 -2.08099e+06 161968 0 -2.09545e+06 182909 0 -2.11165e+06 204236 0 -2.12961e+06 226012 0 -2.14935e+06 248300 0 -2.17093e+06 271165 0 -2.19436e+06 294683 0 -2.21971e+06 318934 0 -2.24703e+06 344006 0 -2.27637e+06 369997 0 -2.30781e+06 397018 0 -2.34145e+06 425191 0 -2.37737e+06 454656 0 -2.41571e+06 485572 0 -2.45663e+06 518123 0 -2.5003e+06 552523 0 -2.54699e+06 589027 0 -2.59701e+06 627937 0 -2.65077e+06 669627 0 -2.70884e+06 714559 0 -2.77196e+06 763325 0 -2.8412e+06 816697 0 -2.9181e+06 875727 0 -3.00474e+06 941796 0 -3.10468e+06 1.01721e+06 0 -3.22322e+06 1.10458e+06 0 -3.3689e+06 1.20942e+06 0 -3.55577e+06 1.34202e+06 0 -3.84654e+06 1.50626e+06 0 -4.18092e+06 1.76016e+06 0 -5.31119e+06 2.24197e+06 0 -8.20679e+06 -4.76837e-07 0 -2.08153e+06 166628 0 -2.0961e+06 187720 0 -2.11238e+06 209205 0 -2.1304e+06 231163 0 -2.15018e+06 253648 0 -2.17176e+06 276732 0 -2.19518e+06 300487 0 -2.22048e+06 324997 0 -2.24772e+06 350349 0 -2.27696e+06 376644 0 -2.30826e+06 403994 0 -2.34172e+06 432524 0 -2.37743e+06 462375 0 -2.41551e+06 493713 0 -2.45612e+06 526725 0 -2.49944e+06 561634 0 -2.54571e+06 598702 0 -2.59524e+06 638250 0 -2.64843e+06 680668 0 -2.70582e+06 726453 0 -2.76815e+06 776229 0 -2.83643e+06 830852 0 -2.91213e+06 891445 0 -2.99735e+06 959572 0 -3.09507e+06 1.03785e+06 0 -3.21179e+06 1.12909e+06 0 -3.35165e+06 1.24068e+06 0 -3.53562e+06 1.3822e+06 0 -3.81407e+06 1.57325e+06 0 -4.1296e+06 1.83544e+06 0 -5.11894e+06 2.7506e+06 0 -9.38448e+06 4.76837e-07 0 </DataArray> 
</PointData> 
<Points> 
<DataArray type="Float32" NumberOfComponents="3"> 