<?xml version="1.0"?> 
<VTKFile type="StructuredGrid" version="0.1"> 
<StructuredGrid WholeExtent="0 31 0 31 0 0"> 
<Piece Extent="0 31 0 31 0 0"> 
<PointData>
<DataArray type="Float32" Name="|E|" format="ascii" NumberOfComponents="3"> 
913383 360752 0 883005 347576 0 854044 334438 0 826450 321368 0 800179 308390 0 775189 295523 0 751440 282781 0 728892 270174 0 707510 257709 0 687260 245391 0 668109 233219 0 650026 221195 0 632982 209314 0 616950 197574 0 601903 185969 0 587816 174491 0 574668 163134 0 562436 151889 0 551101 140746 0 540642 129696 0 531043 118728 0 522287 107830 0 514360 96991.9 0 507248 86200.6 0 500938 75444 0 495419 64709.1 0 490681 53982.9 0 486715 43251.8 0 483514 32502.2 0 481072 21719.9 0 479382 10890.7 0 478441 0 0 909747 366609 0 879388 353247 0 850451 339924 0 822885 326671 0 796644 313511 0 771685 300463 0 747968 287540 0 725454 274753 0 704105 262109 0 683887 249611 0 664768 237260 0 646715 225056 0 629700 212995 0 613695 201075 0 598673 189288 0 584609 177629 0 571480 166090 0 559265 154661 0 547943 143334 0 537494 132098 0 527902 120943 0 519149 109857 0 511221 98827.4 0 504104 87843.4 0 497784 76891.7 0 492251 65959.4 0 487494 55033 0 483505 44098.8 0 480276 33142.9 0 477799 22150.9 0 476070 11108.2 0 475084 0 0 906052 372448 0 875714 358899 0 846801 345391 0 819262 331953 0 793052 318611 0 768125 305381 0 744441 292278 0 721959 279311 0 700644 266487 0 680459 253809 0 661371 241279 0 643349 228896 0 626362 216656 0 610384 204556 0 595386 192589 0 581344 180749 0 568235 169028 0 556036 157417 0 544727 145906 0 534288 134485 0 524702 123143 0 515952 111869 0 508022 100650 0 500898 89474.7 0 494569 78329.3 0 489021 67200.7 0 484245 56075.4 0 480231 44939.6 0 476972 33778.8 0 474460 22578.6 0 472691 11324 0 471658 0 0 902299 378268 0 871982 364531 0 843094 350836 0 815583 337214 0 789403 323689 0 764508 310277 0 740857 296993 0 718409 283846 0 697126 270843 0 676974 257986 0 657918 245277 0 639926 232714 0 622968 220296 0 607016 208016 0 592043 195870 0 578023 183849 0 564933 171947 0 552750 160155 0 541454 148461 0 531024 136856 0 521444 125329 0 512695 113868 0 504763 102461 0 497633 91094.4 0 491292 79756.3 0 485729 68432.8 0 480932 57110.1 0 476893 45773.9 0 473603 34409.8 0 471055 23002.9 0 469244 11538.1 0 468164 0 0 898488 384068 0 868193 370142 0 839330 356260 0 811847 342454 0 785698 328745 0 760835 315151 0 737217 301686 0 714802 288359 0 693553 275176 0 673434 262140 0 654409 249253 0 636448 236512 0 619518 223914 0 603593 211456 0 588644 199130 0 574646 186931 0 561574 174848 0 549407 162874 0 538123 150999 0 527703 139211 0 518127 127500 0 509380 115853 0 501445 104258 0 494308 92702.3 0 487955 81172.9 0 482375 69655.7 0 477558 58136.8 0 473492 46601.8 0 470170 35035.8 0 467585 23423.8 0 465731 11750.5 0 464602 0 0 894618 389848 0 864345 375732 0 835508 361663 0 808055 347671 0 781936 333778 0 757106 320002 0 733521 306356 0 711140 292849 0 689924 279487 0 669838 266272 0 650845 253206 0 632913 240287 0 616013 227511 0 600114 214875 0 585189 202371 0 571212 189992 0 558159 177730 0 546007 165576 0 534735 153520 0 524323 141550 0 514753 129655 0 506006 117823 0 498068 106042 0 490923 94298.2 0 484558 82578.6 0 478961 70869.1 0 474121 59155.5 0 470028 47423 0 466674 35656.7 0 464050 23841.3 0 462152 11961.1 0 460973 0 0 890690 395607 0 860439 381300 0 831629 367043 0 804205 352865 0 778118 338788 0 753320 324830 0 729769 311003 0 707422 297316 0 686240 283774 0 666186 270381 0 647225 257137 0 629324 244040 0 612452 231087 0 596579 218272 0 581678 205590 0 567722 193034 0 554688 180593 0 542551 168259 0 531291 156023 0 520887 143871 0 511321 131794 0 502574 119779 0 494632 107812 0 487479 95881.9 0 481101 83973.4 0 475486 72072.9 0 470623 60165.9 0 466502 48237.5 0 463113 36272.5 0 460451 24255.3 0 458507 12169.9 0 457276 0 0 886703 401345 0 856475 386846 0 827692 372400 0 800298 358036 0 774243 343775 0 749479 329634 0 725962 315626 0 703649 301759 0 682500 288038 0 662479 274467 0 643550 261045 0 625679 247770 0 608835 234640 0 592989 221648 0 578111 208789 0 564177 196055 0 551160 183436 0 539039 170924 0 527790 158508 0 517394 146176 0 507831 133918 0 499085 121720 0 491138 109569 0 483976 97453.1 0 477584 85357.1 0 471950 73267 0 467063 61168.1 0 462913 49045.3 0 459490 36883.1 0 456787 24665.7 0 454797 12376.8 0 453513 0 0 882657 407060 0 852454 392369 0 823698 377734 0 796335 363183 0 770312 348738 0 745582 334414 0 722098 320225 0 699820 306178 0 678705 292278 0 658717 278529 0 639820 264929 0 621979 251478 0 605164 238171 0 589344 225002 0 574490 211967 0 560576 199055 0 547578 186260 0 535470 173570 0 524233 160975 0 513844 148464 0 504285 136025 0 495538 123646 0 487586 111313 0 480414 99011.8 0 474008 86729.5 0 468355 74451.1 0 463443 62161.8 0 459263 49846.1 0 455804 37488.3 0 453060 25072.4 0 451022 12581.9 0 449684 0 0 878552 412753 0 848374 397869 0 819647 383044 0 792315 368306 0 766325 353676 0 741628 339169 0 718180 324799 0 695936 310572 0 674855 296493 0 654901 282566 0 636035 268790 0 618225 255162 0 601438 241678 0 585643 228334 0 570813 215122 0 556920 202035 0 543939 189063 0 531847 176196 0 520620 163424 0 510238 150735 0 500682 138117 0 491934 125557 0 483976 113042 0 476794 100558 0 470373 88090.5 0 464700 75625.2 0 459763 63146.9 0 455552 50639.9 0 452057 38088.2 0 449269 25475.5 0 447182 12785.2 0 445790 0 0 874388 418422 0 844236 403344 0 815539 388329 0 788238 373404 0 762281 358589 0 737620 343899 0 714206 329347 0 691996 314941 0 670951 300684 0 651029 286579 0 632196 272626 0 614416 258822 0 597657 245163 0 581889 231643 0 567082 218256 0 553210 204993 0 540246 191845 0 528168 178803 0 516951 165854 0 506577 152988 0 497023 140191 0 488273 127452 0 480310 114757 0 473117 102091 0 466680 89439.8 0 460986 76789.2 0 456023 64123.3 0 451780 51426.5 0 448247 38682.5 0 445416 25874.8 0 443279 12986.5 0 441831 0 0 870165 424068 0 840041 408796 0 811373 393590 0 784105 378477 0 758182 363476 0 733555 348604 0 710176 333871 0 688002 319284 0 666991 304849 0 647103 290567 0 628302 276438 0 610553 262458 0 593822 248624 0 578080 234929 0 563296 221367 0 549445 207930 0 536498 194607 0 524434 181390 0 513228 168265 0 502859 155223 0 493308 142249 0 484556 129332 0 476586 116457 0 469382 103610 0 462929 90777.4 0 457213 77942.7 0 452223 65090.9 0 447948 52205.9 0 444376 39271.3 0 441501 26270.4 0 439313 13185.8 0 437807 0 0 865884 429689 0 835787 414222 0 807150 398825 0 779915 383523 0 754027 368338 0 729435 353282 0 706092 338368 0 683953 323602 0 662977 308989 0 643123 294530 0 624354 280224 0 606635 266069 0 589933 252061 0 574217 238192 0 559457 224456 0 545625 210845 0 532696 197348 0 520645 183956 0 509449 170657 0 499087 157439 0 489538 144290 0 480783 131196 0 472806 118143 0 465590 105117 0 459120 92103 0 453382 79085.8 0 448365 66049.5 0 444056 52978 0 440445 39854.5 0 437524 26662.1 0 435284 13383.2 0 433719 0 0 861544 435284 0 831476 419622 0 802871 404033 0 775669 388544 0 749816 373172 0 725260 357934 0 701953 342838 0 679850 327893 0 658909 313102 0 639088 298467 0 620352 283986 0 602664 269656 0 585990 255473 0 570300 241431 0 555563 227522 0 541752 213738 0 528840 200068 0 516802 186502 0 505616 173030 0 495259 159638 0 485712 146313 0 476955 133043 0 468970 119814 0 461741 106610 0 455254 93416.4 0 449493 80218.2 0 444447 66999 0 440104 53742.6 0 436453 40431.9 0 433485 27049.8 0 431193 13578.6 0 429567 0 0 857145 440854 0 827106 424996 0 798534 409216 0 771366 393537 0 745549 377980 0 721029 362558 0 697759 347282 0 675692 332158 0 654786 317189 0 635000 302377 0 616296 287721 0 598639 273217 0 581994 258861 0 566330 244646 0 551616 230565 0 537825 216608 0 524930 202766 0 512906 189028 0 501729 175383 0 491378 161817 0 481831 148319 0 473071 134875 0 465078 121470 0 457837 108089 0 451331 94717.6 0 445547 81339.8 0 440472 67939.3 0 436094 54499.6 0 432402 41003.6 0 429386 27433.6 0 427039 13771.9 0 425353 0 0 852688 446397 0 822679 430343 0 794140 414370 0 767008 398503 0 741227 382761 0 716744 367156 0 693511 351698 0 671480 336395 0 650610 321249 0 630858 306261 0 612187 291431 0 594561 276753 0 577944 262224 0 562306 247837 0 547616 233583 0 533845 219455 0 520966 205442 0 508955 191532 0 497788 177715 0 487442 163978 0 477897 150308 0 469132 136690 0 461131 123110 0 453876 109554 0 447352 96006.3 0 441544 82450.4 0 436439 68870.3 0 432025 55249 0 428291 41569.3 0 425227 27813.4 0 422825 13963.2 0 421077 0 0 848172 451914 0 818195 435663 0 789690 419497 0 762593 403441 0 736849 387513 0 712404 371725 0 689208 356087 0 667214 340605 0 646380 325282 0 626663 310119 0 608025 295113 0 590429 280263 0 573842 265561 0 558230 251003 0 543562 236578 0 529811 222279 0 516950 208095 0 504952 194016 0 493793 180028 0 483452 166120 0 473908 152278 0 465139 138488 0 457129 124735 0 449861 111005 0 443317 97282.3 0 437485 83550 0 432349 69791.7 0 427899 55990.6 0 424122 42129.1 0 421009 28189.1 0 418550 14152.4 0 416739 0 0 843597 457402 0 813653 440954 0 785183 424596 0 758123 408351 0 732416 392236 0 708009 376265 0 684851 360446 0 662895 344786 0 642097 329286 0 622415 313948 0 603810 298769 0 586246 283746 0 569687 268873 0 554101 254144 0 539457 239549 0 525726 225080 0 512880 210727 0 500895 196477 0 489746 182320 0 479409 168242 0 469865 154230 0 461092 140269 0 453073 126345 0 445790 112442 0 439227 98545.6 0 433369 84638.3 0 428202 70703.6 0 423715 56724.4 0 419894 42682.8 0 416731 28560.7 0 414215 14339.5 0 412339 0 0 838964 462862 0 809054 446217 0 780620 429665 0 753597 413231 0 727929 396931 0 703560 380777 0 680440 364777 0 658522 348939 0 637760 333263 0 618114 317750 0 599542 302398 0 582009 287203 0 565479 272159 0 549919 257259 0 535298 242495 0 521587 227857 0 508759 213335 0 496786 198917 0 485645 184591 0 475314 170344 0 465769 156163 0 456992 142033 0 448963 127938 0 441665 113865 0 435082 99795.9 0 429198 85715.2 0 423999 71605.8 0 419474 57450.1 0 415609 43230.4 0 412394 28928.1 0 409821 14524.4 0 407879 0 0 834273 468293 0 804398 451450 0 776000 434705 0 749016 418082 0 723386 401596 0 699057 385259 0 675976 369079 0 654096 353063 0 633371 337211 0 613760 321524 0 595222 305999 0 577721 290632 0 561220 275418 0 545686 260349 0 531088 245416 0 517397 230610 0 504585 215920 0 492625 201335 0 481493 186841 0 471165 172427 0 461621 158078 0 452838 143779 0 444799 129516 0 437486 115273 0 430882 101033 0 424972 86780.6 0 419741 72498.1 0 415176 58167.8 0 411266 43771.8 0 408000 29291.2 0 405367 14707.2 0 403360 0 0 829524 473694 0 799684 456653 0 771324 439715 0 744379 422902 0 718789 406230 0 694499 389711 0 671458 373351 0 649616 357157 0 628929 341129 0 609354 325269 0 590850 309572 0 573380 294034 0 556908 278650 0 541401 263412 0 526827 248312 0 513156 233338 0 500360 218482 0 488412 203730 0 477288 189070 0 466965 174489 0 457419 159973 0 448632 145508 0 440583 131077 0 433254 116665 0 426628 102257 0 420691 87834.3 0 415427 73380.4 0 410823 58877.4 0 406867 44306.9 0 403548 29650.1 0 400856 14887.7 0 398781 0 0 824716 479065 0 794914 461826 0 766593 444695 0 739687 427692 0 714138 410834 0 689888 394132 0 666887 377593 0 645084 361221 0 624435 345019 0 604896 328985 0 586426 313116 0 568988 297408 0 552546 281856 0 537065 266450 0 522514 251182 0 508863 236042 0 496083 221020 0 484148 206102 0 473032 191277 0 462713 176531 0 453167 161850 0 444373 147218 0 436313 132622 0 428968 118043 0 422321 103467 0 416356 88876.2 0 411059 74252.7 0 406415 59578.6 0 402412 44835.6 0 399040 30004.6 0 396286 15066 0 394143 0 0 819852 484405 0 790087 466967 0 761806 449642 0 734941 432451 0 709433 415407 0 685224 398523 0 662263 381804 0 640500 365255 0 619889 348878 0 600386 332671 0 581951 316631 0 564545 300754 0 548132 285033 0 532678 269460 0 518150 254026 0 504519 238721 0 491755 223534 0 479833 208452 0 468725 193463 0 458409 178552 0 448862 163707 0 440063 148911 0 431992 134150 0 424630 119406 0 417961 104664 0 411968 89906.1 0 406636 75114.7 0 401952 60271.5 0 397902 45357.9 0 394475 30354.7 0 391660 15242.1 0 389447 0 0 814929 489713 0 785204 472077 0 756963 454559 0 730140 437178 0 704673 419949 0 680507 402882 0 657586 385984 0 635863 369258 0 615291 352707 0 595825 336328 0 577425 320118 0 560051 304072 0 543668 288183 0 528240 272443 0 513736 256844 0 500125 241375 0 487377 226023 0 475467 210778 0 464367 195626 0 454055 180553 0 444506 165544 0 435701 150586 0 427619 135661 0 420240 120754 0 413548 105847 0 407527 90923.9 0 402160 75966.4 0 397434 60955.9 0 393336 45873.7 0 389854 30700.3 0 386976 15415.9 0 384693 0 0 809949 494989 0 780264 477154 0 752065 459442 0 725284 441872 0 699860 424458 0 675736 407209 0 652858 390132 0 631175 373230 0 610642 356505 0 591213 339954 0 572847 323574 0 555506 307360 0 539153 291304 0 523752 275399 0 509272 259636 0 495680 244002 0 482949 228488 0 471051 213081 0 459959 197766 0 449650 182532 0 440100 167362 0 431288 152241 0 423194 137155 0 415799 122085 0 409084 107016 0 403033 91929.5 0 397631 76807.6 0 392864 61631.7 0 388717 46382.9 0 385178 31041.5 0 382237 15587.4 0 379883 0 0 804912 500232 0 775269 482198 0 747113 464293 0 720375 446533 0 694994 428934 0 670913 411503 0 648077 394248 0 626435 377171 0 605941 360272 0 586550 343550 0 568220 327001 0 550912 310619 0 534588 294397 0 519215 278328 0 504758 262400 0 491186 246604 0 478471 230928 0 466585 215359 0 455501 199884 0 445195 184489 0 435644 169159 0 426825 153879 0 418719 138632 0 411306 123401 0 404568 108171 0 398488 92922.7 0 393050 77638.2 0 388239 62298.9 0 384043 46885.4 0 380448 31378 0 377443 15756.5 0 375017 0 0 799818 505441 0 770217 487209 0 742105 469110 0 715412 451162 0 690075 433377 0 666037 415765 0 643244 398331 0 621644 381079 0 601190 364007 0 581837 347114 0 563542 330397 0 546267 313848 0 529974 297461 0 514627 281228 0 500194 265137 0 486643 249180 0 473944 233343 0 462070 217614 0 450994 201980 0 440691 186425 0 431138 170936 0 422312 155497 0 414194 140091 0 406763 124702 0 400001 109312 0 393891 93903.4 0 388416 78458.2 0 383563 62957.3 0 379317 47381.2 0 375664 31710 0 372594 15923.3 0 370095 0 0 794667 510616 0 765111 492185 0 737043 473893 0 710395 455756 0 685103 437786 0 661110 419993 0 638360 402382 0 616802 384954 0 596388 367710 0 577073 350648 0 558815 333762 0 541573 317047 0 525310 300496 0 509991 284099 0 495582 267847 0 482051 251729 0 469368 235732 0 457506 219844 0 446437 204051 0 436137 188339 0 426582 172693 0 417750 157096 0 409619 141532 0 402169 125986 0 395383 110438 0 389243 94871.4 0 383732 79267.3 0 378835 63606.8 0 374538 47870.2 0 370827 32037.3 0 367692 16087.7 0 365119 0 0 789461 515756 0 759949 497127 0 731927 478641 0 705325 460315 0 680079 442161 0 656131 424188 0 633425 406399 0 611909 388797 0 591536 371381 0 572260 354149 0 554038 337096 0 536830 320216 0 520598 303501 0 505306 286942 0 490921 270529 0 477410 254251 0 464744 238096 0 452894 222050 0 441833 206100 0 431535 190231 0 421978 174428 0 413138 158675 0 404994 142956 0 397526 127253 0 390716 111550 0 384544 95826.6 0 378996 80065.5 0 374055 64247.3 0 369707 48352.2 0 365938 32360 0 362735 16249.7 0 360088 0 0 784198 520861 0 754732 502033 0 726757 483354 0 700202 464840 0 675002 446502 0 651100 428348 0 628439 410382 0 606966 392606 0 586635 375019 0 567398 357618 0 549212 340398 0 532038 323353 0 515837 306476 0 500573 289755 0 486212 273183 0 472721 256746 0 460072 240433 0 448233 224231 0 437180 208125 0 426885 192101 0 417326 176143 0 408478 160236 0 400321 144362 0 392835 128505 0 385999 112647 0 379797 96768.8 0 374210 80852.7 0 369225 64878.8 0 364824 48827.4 0 360996 32677.8 0 357727 16409.2 0 355004 0 0 778879 525928 0 749460 506903 0 721533 488031 0 695026 469329 0 669874 450807 0 646018 432473 0 623402 414331 0 601974 396381 0 581684 378623 0 562486 361054 0 544338 343669 0 527198 326460 0 511028 309420 0 495792 292540 0 481455 275808 0 467985 259214 0 455352 242744 0 443525 226386 0 432479 210126 0 422188 193947 0 412626 177836 0 403770 161776 0 395600 145749 0 388094 129740 0 381234 113729 0 374999 97698 0 369375 81628.7 0 364344 65501.2 0 359892 49295.4 0 356003 32990.8 0 352666 16566.3 0 349867 0 0 773507 530958 0 744134 511737 0 716257 492671 0 689798 473781 0 664695 455076 0 640886 436563 0 618316 418244 0 596931 400122 0 576684 382194 0 557526 364458 0 539415 346907 0 522310 329535 0 506172 312334 0 490964 295294 0 476651 278404 0 463202 261654 0 450585 245029 0 438771 228516 0 427732 212102 0 417443 195771 0 407878 179508 0 399015 163296 0 390831 147118 0 383306 130958 0 376420 114796 0 370154 98614.1 0 364491 82393.5 0 359414 66114.3 0 354909 49756.4 0 350960 33299 0 347554 16720.9 0 344679 0 0 </DataArray> 
</PointData> 
<Points> 
<DataArray type="Float32" NumberOfComponents="3"> 