<?xml version="1.0"?> 
<VTKFile type="StructuredGrid" version="0.1"> 
<StructuredGrid WholeExtent="0 31 0 31 0 0"> 
<Piece Extent="0 31 0 31 0 0"> 
<PointData>
<DataArray type="Float32" Name="|E|" format="ascii" NumberOfComponents="3"> 
-1.66739e+06 0 0 -1.66777e+06 30560 0 -1.6689e+06 61145.7 0 -1.67077e+06 91783.4 0 -1.67338e+06 122499 0 -1.67673e+06 153319 0 -1.68081e+06 184271 0 -1.68563e+06 215380 0 -1.69117e+06 246674 0 -1.69743e+06 278179 0 -1.70441e+06 309925 0 -1.7121e+06 341938 0 -1.72048e+06 374247 0 -1.72955e+06 406881 0 -1.7393e+06 439869 0 -1.7497e+06 473239 0 -1.76074e+06 507022 0 -1.7724e+06 541247 0 -1.78466e+06 575944 0 -1.79749e+06 611143 0 -1.81086e+06 646872 0 -1.82473e+06 683161 0 -1.83906e+06 720036 0 -1.8538e+06 757522 0 -1.86889e+06 795643 0 -1.88428e+06 834416 0 -1.89988e+06 873856 0 -1.91561e+06 913970 0 -1.93138e+06 954754 0 -1.94707e+06 996193 0 -1.96255e+06 1.03826e+06 0 -1.97769e+06 1.0809e+06 0 -1.65643e+06 0 0 -1.6568e+06 30649 0 -1.6579e+06 61323.2 0 -1.65973e+06 92047.9 0 -1.66228e+06 122849 0 -1.66555e+06 153751 0 -1.66953e+06 184781 0 -1.67424e+06 215965 0 -1.67965e+06 247329 0 -1.68576e+06 278899 0 -1.69258e+06 310702 0 -1.70008e+06 342764 0 -1.70826e+06 375114 0 -1.71711e+06 407779 0 -1.72662e+06 440787 0 -1.73677e+06 474165 0 -1.74754e+06 507942 0 -1.75892e+06 542146 0 -1.77088e+06 576805 0 -1.7834e+06 611946 0 -1.79645e+06 647598 0 -1.80998e+06 683785 0 -1.82397e+06 720534 0 -1.83836e+06 757866 0 -1.8531e+06 795802 0 -1.86813e+06 834357 0 -1.88339e+06 873543 0 -1.89878e+06 913362 0 -1.91423e+06 953810 0 -1.92963e+06 994869 0 -1.94486e+06 1.03651e+06 0 -1.95979e+06 1.07867e+06 0 -1.64538e+06 0 0 -1.64574e+06 30731.8 0 -1.64682e+06 61488.1 0 -1.6486e+06 92293.7 0 -1.65109e+06 123173 0 -1.65428e+06 154152 0 -1.65817e+06 185255 0 -1.66276e+06 216508 0 -1.66804e+06 247935 0 -1.67401e+06 279563 0 -1.68066e+06 311417 0 -1.68798e+06 343524 0 -1.69597e+06 375909 0 -1.7046e+06 408600 0 -1.71388e+06 441623 0 -1.72379e+06 475004 0 -1.7343e+06 508771 0 -1.7454e+06 542949 0 -1.75707e+06 577567 0 -1.76929e+06 612649 0 -1.78202e+06 648221 0 -1.79523e+06 684307 0 -1.80888e+06 720929 0 -1.82293e+06 758109 0 -1.83734e+06 795864 0 -1.85203e+06 834207 0 -1.86695e+06 873146 0 -1.88202e+06 912682 0 -1.89716e+06 952809 0 -1.91227e+06 993507 0 -1.92726e+06 1.03474e+06 0 -1.94199e+06 1.07646e+06 0 -1.63423e+06 0 0 -1.63459e+06 30808.5 0 -1.63564e+06 61640.7 0 -1.63738e+06 92521 0 -1.63981e+06 123473 0 -1.64292e+06 154522 0 -1.64672e+06 185692 0 -1.6512e+06 217007 0 -1.65636e+06 248493 0 -1.66218e+06 280173 0 -1.66867e+06 312073 0 -1.67582e+06 344218 0 -1.68361e+06 376634 0 -1.69204e+06 409345 0 -1.70109e+06 442378 0 -1.71075e+06 475758 0 -1.72101e+06 509510 0 -1.73185e+06 543660 0 -1.74324e+06 578233 0 -1.75516e+06 613253 0 -1.76758e+06 648744 0 -1.78048e+06 684727 0 -1.7938e+06 721225 0 -1.80753e+06 758255 0 -1.8216e+06 795832 0 -1.83596e+06 833967 0 -1.85055e+06 872668 0 -1.86531e+06 911932 0 -1.88015e+06 951751 0 -1.895e+06 992104 0 -1.90974e+06 1.03296e+06 0 -1.92428e+06 1.07426e+06 0 -1.623e+06 0 0 -1.62335e+06 30879 0 -1.62437e+06 61781.2 0 -1.62607e+06 92730.2 0 -1.62844e+06 123749 0 -1.63148e+06 154862 0 -1.63518e+06 186093 0 -1.63956e+06 217465 0 -1.64459e+06 249002 0 -1.65027e+06 280729 0 -1.65661e+06 312669 0 -1.66358e+06 344848 0 -1.67118e+06 377288 0 -1.67941e+06 410015 0 -1.68824e+06 443054 0 -1.69767e+06 476428 0 -1.70768e+06 510162 0 -1.71825e+06 544279 0 -1.72937e+06 578805 0 -1.741e+06 613761 0 -1.75313e+06 649169 0 -1.76571e+06 685050 0 -1.77873e+06 721422 0 -1.79213e+06 758304 0 -1.80588e+06 795707 0 -1.81992e+06 833641 0 -1.8342e+06 872110 0 -1.84866e+06 911112 0 -1.86321e+06 950636 0 -1.87779e+06 990661 0 -1.89231e+06 1.03115e+06 0 -1.90666e+06 1.07206e+06 0 -1.61167e+06 0 0 -1.61201e+06 30943.6 0 -1.61301e+06 61909.8 0 -1.61467e+06 92921.4 0 -1.61698e+06 124001 0 -1.61995e+06 155173 0 -1.62356e+06 186458 0 -1.62783e+06 217881 0 -1.63274e+06 249465 0 -1.63829e+06 281233 0 -1.64447e+06 313208 0 -1.65127e+06 345414 0 -1.65869e+06 377874 0 -1.66672e+06 410612 0 -1.67534e+06 443652 0 -1.68454e+06 477015 0 -1.6943e+06 510727 0 -1.70462e+06 544809 0 -1.71547e+06 579284 0 -1.72682e+06 614174 0 -1.73866e+06 649498 0 -1.75095e+06 685275 0 -1.76366e+06 721524 0 -1.77675e+06 758259 0 -1.79019e+06 795491 0 -1.80392e+06 833229 0 -1.8179e+06 871474 0 -1.83205e+06 910224 0 -1.84633e+06 949465 0 -1.86066e+06 989177 0 -1.87495e+06 1.02932e+06 0 -1.88911e+06 1.06986e+06 0 -1.60025e+06 0 0 -1.60059e+06 31002.3 0 -1.60156e+06 62026.5 0 -1.60318e+06 93094.9 0 -1.60543e+06 124230 0 -1.60833e+06 155454 0 -1.61186e+06 186788 0 -1.61602e+06 218257 0 -1.62082e+06 249882 0 -1.62623e+06 281685 0 -1.63226e+06 313689 0 -1.6389e+06 345918 0 -1.64614e+06 378393 0 -1.65397e+06 411137 0 -1.66238e+06 444173 0 -1.67135e+06 477523 0 -1.68088e+06 511208 0 -1.69095e+06 545251 0 -1.70154e+06 579673 0 -1.71262e+06 614494 0 -1.72417e+06 649733 0 -1.73617e+06 685407 0 -1.74858e+06 721532 0 -1.76138e+06 758122 0 -1.77451e+06 795187 0 -1.78794e+06 832733 0 -1.80162e+06 870761 0 -1.8155e+06 909267 0 -1.8295e+06 948237 0 -1.84358e+06 987650 0 -1.85764e+06 1.02747e+06 0 -1.87163e+06 1.06766e+06 0 -1.58875e+06 0 0 -1.58907e+06 31055.1 0 -1.59003e+06 62131.6 0 -1.5916e+06 93251 0 -1.59381e+06 124435 0 -1.59663e+06 155706 0 -1.60008e+06 187084 0 -1.60414e+06 218592 0 -1.60881e+06 250252 0 -1.61409e+06 282086 0 -1.61998e+06 314115 0 -1.62645e+06 346361 0 -1.63352e+06 378845 0 -1.64116e+06 411591 0 -1.64936e+06 444619 0 -1.65812e+06 477950 0 -1.66742e+06 511606 0 -1.67724e+06 545607 0 -1.68757e+06 579974 0 -1.69839e+06 614724 0 -1.70967e+06 649875 0 -1.72139e+06 685445 0 -1.73351e+06 721448 0 -1.74601e+06 757895 0 -1.75885e+06 794796 0 -1.77199e+06 832155 0 -1.78538e+06 869972 0 -1.79898e+06 908243 0 -1.81272e+06 946953 0 -1.82655e+06 986081 0 -1.8404e+06 1.02559e+06 0 -1.8542e+06 1.06544e+06 0 -1.57716e+06 0 0 -1.57748e+06 31102.2 0 -1.5784e+06 62225.2 0 -1.57994e+06 93389.9 0 -1.58209e+06 124618 0 -1.58485e+06 155929 0 -1.58821e+06 187346 0 -1.59217e+06 218888 0 -1.59673e+06 250578 0 -1.60188e+06 282437 0 -1.60762e+06 314484 0 -1.61394e+06 346743 0 -1.62083e+06 379233 0 -1.62829e+06 411975 0 -1.63629e+06 444991 0 -1.64484e+06 478300 0 -1.65391e+06 511923 0 -1.6635e+06 545879 0 -1.67358e+06 580187 0 -1.68414e+06 614864 0 -1.69515e+06 649928 0 -1.70659e+06 685393 0 -1.71843e+06 721274 0 -1.73065e+06 757579 0 -1.7432e+06 794319 0 -1.75606e+06 831495 0 -1.76917e+06 869108 0 -1.78249e+06 907152 0 -1.79598e+06 945611 0 -1.80957e+06 984466 0 -1.82321e+06 1.02368e+06 0 -1.83682e+06 1.06322e+06 0 -1.56548e+06 0 0 -1.56579e+06 31143.6 0 -1.5667e+06 62307.5 0 -1.5682e+06 93511.9 0 -1.57029e+06 124777 0 -1.57298e+06 156125 0 -1.57626e+06 187574 0 -1.58013e+06 219145 0 -1.58458e+06 250860 0 -1.5896e+06 282738 0 -1.5952e+06 314800 0 -1.60137e+06 347066 0 -1.60809e+06 379556 0 -1.61536e+06 412291 0 -1.62317e+06 445290 0 -1.63151e+06 478573 0 -1.64036e+06 512160 0 -1.64972e+06 546067 0 -1.65955e+06 580314 0 -1.66986e+06 614917 0 -1.68061e+06 649892 0 -1.69178e+06 685252 0 -1.70335e+06 721011 0 -1.71529e+06 757177 0 -1.72757e+06 793757 0 -1.74014e+06 830755 0 -1.75298e+06 868170 0 -1.76604e+06 905993 0 -1.77927e+06 944212 0 -1.79263e+06 982805 0 -1.80606e+06 1.02174e+06 0 -1.81949e+06 1.06098e+06 0 -1.55372e+06 0 0 -1.55402e+06 31179.5 0 -1.55491e+06 62378.6 0 -1.55637e+06 93617.2 0 -1.55841e+06 124915 0 -1.56104e+06 156292 0 -1.56424e+06 187769 0 -1.56801e+06 219364 0 -1.57235e+06 251098 0 -1.57725e+06 282990 0 -1.58271e+06 315061 0 -1.58872e+06 347330 0 -1.59528e+06 379816 0 -1.60237e+06 412539 0 -1.60999e+06 445518 0 -1.61813e+06 478772 0 -1.62677e+06 512318 0 -1.6359e+06 546174 0 -1.6455e+06 580357 0 -1.65556e+06 614884 0 -1.66605e+06 649768 0 -1.67697e+06 685023 0 -1.68827e+06 720660 0 -1.69994e+06 756688 0 -1.71194e+06 793113 0 -1.72425e+06 829937 0 -1.73682e+06 867157 0 -1.74962e+06 904768 0 -1.76261e+06 942755 0 -1.77573e+06 981097 0 -1.78895e+06 1.01976e+06 0 -1.8022e+06 1.05872e+06 0 -1.54188e+06 0 0 -1.54217e+06 31209.9 0 -1.54303e+06 62438.8 0 -1.54446e+06 93706.1 0 -1.54645e+06 125031 0 -1.54901e+06 156433 0 -1.55213e+06 187931 0 -1.55581e+06 219545 0 -1.56004e+06 251293 0 -1.56482e+06 283195 0 -1.57015e+06 315270 0 -1.57602e+06 347537 0 -1.58241e+06 380015 0 -1.58933e+06 412722 0 -1.59676e+06 445676 0 -1.6047e+06 478896 0 -1.61313e+06 512398 0 -1.62204e+06 546200 0 -1.63141e+06 580318 0 -1.64123e+06 614766 0 -1.65148e+06 649559 0 -1.66213e+06 684708 0 -1.67318e+06 720224 0 -1.68458e+06 756115 0 -1.69632e+06 792386 0 -1.70836e+06 829039 0 -1.72067e+06 866072 0 -1.73322e+06 903476 0 -1.74596e+06 941239 0 -1.75886e+06 979341 0 -1.77187e+06 1.01775e+06 0 -1.78495e+06 1.05643e+06 0 -1.52995e+06 0 0 -1.53024e+06 31234.8 0 -1.53108e+06 62488.2 0 -1.53247e+06 93778.8 0 -1.53441e+06 125125 0 -1.53691e+06 156547 0 -1.53995e+06 188061 0 -1.54354e+06 219688 0 -1.54767e+06 251446 0 -1.55233e+06 283353 0 -1.55752e+06 315427 0 -1.56324e+06 347688 0 -1.56948e+06 380152 0 -1.57623e+06 412839 0 -1.58348e+06 445765 0 -1.59123e+06 478947 0 -1.59945e+06 512403 0 -1.60814e+06 546148 0 -1.61729e+06 580198 0 -1.62687e+06 614566 0 -1.63688e+06 649266 0 -1.64729e+06 684309 0 -1.65808e+06 719704 0 -1.66922e+06 755459 0 -1.6807e+06 791579 0 -1.69249e+06 828065 0 -1.70455e+06 864913 0 -1.71684e+06 902117 0 -1.72935e+06 939664 0 -1.74203e+06 977534 0 -1.75483e+06 1.0157e+06 0 -1.76772e+06 1.05412e+06 0 -1.51794e+06 0 0 -1.51822e+06 31254.5 0 -1.51904e+06 62526.9 0 -1.5204e+06 93835.5 0 -1.52229e+06 125198 0 -1.52473e+06 156634 0 -1.52769e+06 188160 0 -1.53119e+06 219795 0 -1.53522e+06 251557 0 -1.53976e+06 283464 0 -1.54483e+06 315533 0 -1.55041e+06 347782 0 -1.55649e+06 380230 0 -1.56308e+06 412892 0 -1.57015e+06 445785 0 -1.5777e+06 478927 0 -1.58573e+06 512333 0 -1.59421e+06 546019 0 -1.60313e+06 579998 0 -1.61249e+06 614284 0 -1.62226e+06 648890 0 -1.63242e+06 683826 0 -1.64297e+06 719101 0 -1.65386e+06 754721 0 -1.66509e+06 790692 0 -1.67662e+06 827013 0 -1.68843e+06 863682 0 -1.70049e+06 900692 0 -1.71276e+06 938029 0 -1.72521e+06 975675 0 -1.73781e+06 1.0136e+06 0 -1.75052e+06 1.05178e+06 0 -1.50585e+06 0 0 -1.50612e+06 31268.8 0 -1.50692e+06 62555.1 0 -1.50825e+06 93876.5 0 -1.5101e+06 125251 0 -1.51247e+06 156695 0 -1.51536e+06 188228 0 -1.51877e+06 219866 0 -1.5227e+06 251628 0 -1.52713e+06 283529 0 -1.53207e+06 315589 0 -1.53751e+06 347822 0 -1.54345e+06 380248 0 -1.54987e+06 412881 0 -1.55677e+06 445739 0 -1.56413e+06 478837 0 -1.57196e+06 512190 0 -1.58024e+06 545813 0 -1.58895e+06 579719 0 -1.59808e+06 613922 0 -1.60762e+06 648432 0 -1.61755e+06 683261 0 -1.62785e+06 718415 0 -1.6385e+06 753902 0 -1.64948e+06 789725 0 -1.66076e+06 825885 0 -1.67233e+06 862379 0 -1.68414e+06 899198 0 -1.69619e+06 936332 0 -1.70842e+06 973763 0 -1.72082e+06 1.01146e+06 0 -1.73334e+06 1.0494e+06 0 -1.49368e+06 0 0 -1.49395e+06 31278 0 -1.49473e+06 62573 0 -1.49602e+06 93902 0 -1.49782e+06 125282 0 -1.50013e+06 156731 0 -1.50295e+06 188265 0 -1.50628e+06 219902 0 -1.51011e+06 251658 0 -1.51443e+06 283550 0 -1.51925e+06 315595 0 -1.52455e+06 347809 0 -1.53034e+06 380208 0 -1.5366e+06 412809 0 -1.54333e+06 445627 0 -1.55052e+06 478677 0 -1.55815e+06 511974 0 -1.56623e+06 545532 0 -1.57473e+06 579363 0 -1.58364e+06 613480 0 -1.59296e+06 647894 0 -1.60265e+06 682615 0 -1.61272e+06 717649 0 -1.62313e+06 753003 0 -1.63386e+06 788681 0 -1.64491e+06 824681 0 -1.65623e+06 861003 0 -1.66782e+06 897638 0 -1.67963e+06 934575 0 -1.69165e+06 971796 0 -1.70384e+06 1.00928e+06 0 -1.71618e+06 1.04699e+06 0 -1.48144e+06 0 0 -1.48169e+06 31282.1 0 -1.48245e+06 62580.7 0 -1.48371e+06 93912.3 0 -1.48547e+06 125294 0 -1.48772e+06 156742 0 -1.49047e+06 188272 0 -1.49371e+06 219902 0 -1.49745e+06 251648 0 -1.50166e+06 283526 0 -1.50636e+06 315552 0 -1.51153e+06 347742 0 -1.51717e+06 380111 0 -1.52328e+06 412676 0 -1.52984e+06 445451 0 -1.53685e+06 478450 0 -1.5443e+06 511688 0 -1.55218e+06 545177 0 -1.56048e+06 578931 0 -1.56918e+06 612961 0 -1.57827e+06 647278 0 -1.58774e+06 681889 0 -1.59757e+06 716803 0 -1.60775e+06 752025 0 -1.61825e+06 787558 0 -1.62906e+06 823402 0 -1.64015e+06 859555 0 -1.6515e+06 896009 0 -1.66309e+06 932754 0 -1.67489e+06 969774 0 -1.68689e+06 1.00705e+06 0 -1.69904e+06 1.04454e+06 0 -1.46911e+06 0 0 -1.46936e+06 31281.2 0 -1.4701e+06 62578.3 0 -1.47133e+06 93907.6 0 -1.47304e+06 125285 0 -1.47524e+06 156727 0 -1.47792e+06 188250 0 -1.48108e+06 219868 0 -1.48472e+06 251599 0 -1.48883e+06 283458 0 -1.49341e+06 315461 0 -1.49845e+06 347623 0 -1.50395e+06 379958 0 -1.50991e+06 412483 0 -1.51631e+06 445210 0 -1.52314e+06 478155 0 -1.53041e+06 511331 0 -1.5381e+06 544750 0 -1.54619e+06 578425 0 -1.55468e+06 612366 0 -1.56356e+06 646583 0 -1.57281e+06 681085 0 -1.58241e+06 715878 0 -1.59236e+06 750969 0 -1.60263e+06 786359 0 -1.6132e+06 822049 0 -1.62406e+06 858035 0 -1.63519e+06 894313 0 -1.64656e+06 930871 0 -1.65815e+06 967693 0 -1.66994e+06 1.00476e+06 0 -1.68191e+06 1.04205e+06 0 -1.45671e+06 0 0 -1.45695e+06 31275.3 0 -1.45768e+06 62566.1 0 -1.45887e+06 93888.1 0 -1.46054e+06 125257 0 -1.46268e+06 156688 0 -1.4653e+06 188198 0 -1.46838e+06 219801 0 -1.47192e+06 251512 0 -1.47593e+06 283348 0 -1.48039e+06 315323 0 -1.48531e+06 347452 0 -1.49067e+06 379750 0 -1.49648e+06 412230 0 -1.50272e+06 444907 0 -1.50939e+06 477795 0 -1.51647e+06 510906 0 -1.52397e+06 544251 0 -1.53187e+06 577844 0 -1.54016e+06 611694 0 -1.54883e+06 645811 0 -1.55786e+06 680203 0 -1.56724e+06 714876 0 -1.57696e+06 749835 0 -1.58701e+06 785083 0 -1.59735e+06 820620 0 -1.60799e+06 856444 0 -1.61889e+06 892548 0 -1.63004e+06 928923 0 -1.64142e+06 965554 0 -1.65301e+06 1.00242e+06 0 -1.66479e+06 1.0395e+06 0 -1.44423e+06 0 0 -1.44447e+06 31264.6 0 -1.44517e+06 62544.2 0 -1.44634e+06 93854 0 -1.44797e+06 125209 0 -1.45005e+06 156625 0 -1.4526e+06 188117 0 -1.4556e+06 219699 0 -1.45906e+06 251387 0 -1.46296e+06 283196 0 -1.46731e+06 315139 0 -1.47211e+06 347231 0 -1.47734e+06 379487 0 -1.483e+06 411920 0 -1.48908e+06 444543 0 -1.49558e+06 477370 0 -1.5025e+06 510412 0 -1.50981e+06 543682 0 -1.51752e+06 577191 0 -1.52561e+06 610948 0 -1.53407e+06 644964 0 -1.54289e+06 679244 0 -1.55206e+06 713796 0 -1.56156e+06 748624 0 -1.57138e+06 783732 0 -1.5815e+06 819118 0 -1.59191e+06 854781 0 -1.60259e+06 890715 0 -1.61352e+06 926910 0 -1.62469e+06 963355 0 -1.63608e+06 1.00003e+06 0 -1.64767e+06 1.03691e+06 0 -1.43168e+06 0 0 -1.43191e+06 31249 0 -1.4326e+06 62512.6 0 -1.43373e+06 93805.6 0 -1.43532e+06 125143 0 -1.43735e+06 156539 0 -1.43984e+06 188008 0 -1.44276e+06 219565 0 -1.44613e+06 251225 0 -1.44994e+06 283001 0 -1.45418e+06 314908 0 -1.45885e+06 346960 0 -1.46395e+06 379170 0 -1.46946e+06 411552 0 -1.4754e+06 444118 0 -1.48174e+06 476880 0 -1.48848e+06 509852 0 -1.49561e+06 543044 0 -1.50313e+06 576466 0 -1.51103e+06 610129 0 -1.51929e+06 644041 0 -1.5279e+06 678209 0 -1.53685e+06 712640 0 -1.54614e+06 747338 0 -1.55574e+06 782305 0 -1.56564e+06 817541 0 -1.57583e+06 853045 0 -1.58629e+06 888812 0 -1.59701e+06 924832 0 -1.60798e+06 961094 0 -1.61917e+06 997582 0 -1.63057e+06 1.03427e+06 0 -1.41906e+06 0 0 -1.41928e+06 31228.7 0 -1.41995e+06 62471.7 0 -1.42106e+06 93743.1 0 -1.4226e+06 125057 0 -1.42458e+06 156429 0 -1.427e+06 187871 0 -1.42985e+06 219399 0 -1.43313e+06 251026 0 -1.43684e+06 282766 0 -1.44098e+06 314633 0 -1.44553e+06 346640 0 -1.4505e+06 378801 0 -1.45588e+06 411127 0 -1.46166e+06 443632 0 -1.46784e+06 476328 0 -1.47442e+06 509226 0 -1.48138e+06 542337 0 -1.48871e+06 575671 0 -1.49642e+06 609238 0 -1.50448e+06 643045 0 -1.51289e+06 677100 0 -1.52163e+06 711409 0 -1.53071e+06 745976 0 -1.54009e+06 780803 0 -1.54978e+06 815891 0 -1.55975e+06 851238 0 -1.57e+06 886840 0 -1.58051e+06 922688 0 -1.59126e+06 958771 0 -1.60225e+06 995075 0 -1.61346e+06 1.03158e+06 0 -1.40636e+06 0 0 -1.40658e+06 31203.8 0 -1.40723e+06 62421.4 0 -1.40831e+06 93666.6 0 -1.40981e+06 124953 0 -1.41175e+06 156295 0 -1.4141e+06 187707 0 -1.41688e+06 219200 0 -1.42008e+06 250791 0 -1.42369e+06 282491 0 -1.42772e+06 314313 0 -1.43215e+06 346272 0 -1.437e+06 378379 0 -1.44224e+06 410647 0 -1.44788e+06 443088 0 -1.45391e+06 475714 0 -1.46032e+06 508535 0 -1.46711e+06 541563 0 -1.47426e+06 574806 0 -1.48178e+06 608274 0 -1.48965e+06 641976 0 -1.49786e+06 675917 0 -1.5064e+06 710103 0 -1.51526e+06 744539 0 -1.52444e+06 779227 0 -1.53391e+06 814168 0 -1.54367e+06 849360 0 -1.55371e+06 884798 0 -1.56401e+06 920476 0 -1.57456e+06 956384 0 -1.58535e+06 992507 0 -1.59636e+06 1.02883e+06 0 -1.39359e+06 0 0 -1.39381e+06 31174.3 0 -1.39444e+06 62362 0 -1.39549e+06 93576.4 0 -1.39696e+06 124831 0 -1.39884e+06 156140 0 -1.40113e+06 187515 0 -1.40384e+06 218971 0 -1.40695e+06 250520 0 -1.41047e+06 282175 0 -1.4144e+06 313950 0 -1.41872e+06 345856 0 -1.42344e+06 377906 0 -1.42855e+06 410112 0 -1.43405e+06 442486 0 -1.43992e+06 475038 0 -1.44618e+06 507780 0 -1.45279e+06 540722 0 -1.45977e+06 573872 0 -1.46711e+06 607241 0 -1.47479e+06 640834 0 -1.4828e+06 674660 0 -1.49114e+06 708723 0 -1.4998e+06 743028 0 -1.50877e+06 777577 0 -1.51804e+06 812371 0 -1.52759e+06 847409 0 -1.53741e+06 882686 0 -1.5475e+06 918197 0 -1.55785e+06 953931 0 -1.56844e+06 989878 0 -1.57926e+06 1.02602e+06 0 -1.38075e+06 0 0 -1.38096e+06 31140.3 0 -1.38158e+06 62293.5 0 -1.3826e+06 93472.7 0 -1.38403e+06 124691 0 -1.38586e+06 155961 0 -1.3881e+06 187297 0 -1.39073e+06 218710 0 -1.39377e+06 250214 0 -1.3972e+06 281821 0 -1.40102e+06 313543 0 -1.40523e+06 345393 0 -1.40983e+06 377383 0 -1.41481e+06 409523 0 -1.42017e+06 441826 0 -1.4259e+06 474303 0 -1.43199e+06 506962 0 -1.43845e+06 539815 0 -1.44525e+06 572871 0 -1.45241e+06 606137 0 -1.4599e+06 639622 0 -1.46772e+06 673331 0 -1.47587e+06 707270 0 -1.48433e+06 741444 0 -1.49309e+06 775854 0 -1.50215e+06 810502 0 -1.5115e+06 845386 0 -1.52112e+06 880504 0 -1.531e+06 915849 0 -1.54114e+06 951413 0 -1.55153e+06 987185 0 -1.56216e+06 1.02315e+06 0 -1.36784e+06 0 0 -1.36805e+06 31101.8 0 -1.36865e+06 62216.2 0 -1.36964e+06 93355.8 0 -1.37103e+06 124533 0 -1.37282e+06 155761 0 -1.375e+06 187052 0 -1.37756e+06 218419 0 -1.38052e+06 249873 0 -1.38386e+06 281428 0 -1.38759e+06 313094 0 -1.39169e+06 344884 0 -1.39617e+06 376810 0 -1.40102e+06 408881 0 -1.40624e+06 441111 0 -1.41183e+06 473508 0 -1.41777e+06 506082 0 -1.42406e+06 538844 0 -1.4307e+06 571803 0 -1.43768e+06 604965 0 -1.44499e+06 638339 0 -1.45263e+06 671930 0 -1.46058e+06 705745 0 -1.46884e+06 739786 0 -1.4774e+06 774058 0 -1.48626e+06 808559 0 -1.4954e+06 843291 0 -1.50481e+06 878250 0 -1.5145e+06 913432 0 -1.52444e+06 948827 0 -1.53463e+06 984428 0 -1.54506e+06 1.02022e+06 0 -1.35487e+06 0 0 -1.35506e+06 31059 0 -1.35565e+06 62130.1 0 -1.35662e+06 93225.7 0 -1.35797e+06 124358 0 -1.35971e+06 155540 0 -1.36183e+06 186782 0 -1.36433e+06 218098 0 -1.36721e+06 249499 0 -1.37046e+06 280997 0 -1.37409e+06 312603 0 -1.37809e+06 344330 0 -1.38246e+06 376187 0 -1.38718e+06 408187 0 -1.39227e+06 440339 0 -1.39771e+06 472654 0 -1.4035e+06 505141 0 -1.40964e+06 537809 0 -1.41611e+06 570668 0 -1.42292e+06 603724 0 -1.43005e+06 636986 0 -1.4375e+06 670458 0 -1.44527e+06 704147 0 -1.45334e+06 738056 0 -1.4617e+06 772188 0 -1.47036e+06 806545 0 -1.4793e+06 841125 0 -1.48851e+06 875926 0 -1.49799e+06 910945 0 -1.50773e+06 946174 0 -1.51772e+06 981604 0 -1.52796e+06 1.01722e+06 0 -1.34182e+06 0 0 -1.34201e+06 31011.8 0 -1.34258e+06 62035.4 0 -1.34353e+06 93082.8 0 -1.34485e+06 124166 0 -1.34654e+06 155296 0 -1.3486e+06 186486 0 -1.35104e+06 217747 0 -1.35384e+06 249091 0 -1.35701e+06 280528 0 -1.36054e+06 312071 0 -1.36444e+06 343731 0 -1.36869e+06 375517 0 -1.37329e+06 407441 0 -1.37825e+06 439513 0 -1.38355e+06 471742 0 -1.3892e+06 504139 0 -1.39518e+06 536711 0 -1.40149e+06 569468 0 -1.40813e+06 602417 0 -1.41509e+06 635564 0 -1.42236e+06 668916 0 -1.42994e+06 702478 0 -1.43781e+06 736254 0 -1.44599e+06 770247 0 -1.45445e+06 804457 0 -1.46319e+06 838886 0 -1.4722e+06 873531 0 -1.48148e+06 908388 0 -1.49102e+06 943452 0 -1.50081e+06 978714 0 -1.51086e+06 1.01416e+06 0 -1.32871e+06 0 0 -1.3289e+06 30960.4 0 -1.32945e+06 61932.2 0 -1.33037e+06 92927.1 0 -1.33165e+06 123957 0 -1.3333e+06 155032 0 -1.33531e+06 186165 0 -1.33768e+06 217368 0 -1.34041e+06 248650 0 -1.3435e+06 280023 0 -1.34694e+06 311499 0 -1.35073e+06 343087 0 -1.35487e+06 374799 0 -1.35936e+06 406644 0 -1.36419e+06 438632 0 -1.36935e+06 470774 0 -1.37485e+06 503077 0 -1.38068e+06 535551 0 -1.38683e+06 568204 0 -1.39331e+06 601043 0 -1.40009e+06 634074 0 -1.40719e+06 667305 0 -1.41458e+06 700739 0 -1.42228e+06 734381 0 -1.43026e+06 768233 0 -1.43852e+06 802298 0 -1.44707e+06 836575 0 -1.45588e+06 871064 0 -1.46496e+06 905760 0 -1.4743e+06 940660 0 -1.4839e+06 975755 0 -1.49375e+06 1.01104e+06 0 -1.31553e+06 0 0 -1.31571e+06 30904.8 0 -1.31625e+06 61820.7 0 -1.31715e+06 92758.9 0 -1.3184e+06 123731 0 -1.32e+06 154747 0 -1.32196e+06 185820 0 -1.32426e+06 216959 0 -1.32692e+06 248176 0 -1.32993e+06 279482 0 -1.33328e+06 310886 0 -1.33697e+06 342400 0 -1.341e+06 374034 0 -1.34537e+06 405797 0 -1.35007e+06 437699 0 -1.35511e+06 469749 0 -1.36047e+06 501957 0 -1.36615e+06 534330 0 -1.37215e+06 566876 0 -1.37846e+06 599603 0 -1.38507e+06 632517 0 -1.39199e+06 665624 0 -1.39921e+06 698929 0 -1.40672e+06 732436 0 -1.41451e+06 766148 0 -1.42259e+06 800067 0 -1.43094e+06 834193 0 -1.43956e+06 868525 0 -1.44844e+06 903061 0 -1.45758e+06 937797 0 -1.46699e+06 972726 0 -1.47664e+06 1.00784e+06 0 -1.30229e+06 0 0 -1.30247e+06 30845.1 0 -1.30299e+06 61700.9 0 -1.30386e+06 92578.4 0 -1.30508e+06 123489 0 -1.30664e+06 154442 0 -1.30854e+06 185450 0 -1.31079e+06 216522 0 -1.31337e+06 247670 0 -1.3163e+06 278904 0 -1.31956e+06 310234 0 -1.32316e+06 341670 0 -1.32708e+06 373222 0 -1.33134e+06 404900 0 -1.33592e+06 436713 0 -1.34082e+06 468669 0 -1.34604e+06 500778 0 -1.35158e+06 533047 0 -1.35742e+06 565485 0 -1.36357e+06 598098 0 -1.37003e+06 630893 0 -1.37678e+06 663875 0 -1.38382e+06 697049 0 -1.39114e+06 730421 0 -1.39875e+06 763991 0 -1.40664e+06 797764 0 -1.4148e+06 831738 0 -1.42322e+06 865915 0 -1.43191e+06 900291 0 -1.44086e+06 934863 0 -1.45007e+06 969627 0 -1.45953e+06 1.00457e+06 0 -1.28898e+06 0 0 -1.28915e+06 30781.3 0 -1.28966e+06 61573 0 -1.29051e+06 92385.8 0 -1.29169e+06 123230 0 -1.29321e+06 154117 0 -1.29507e+06 185056 0 -1.29725e+06 216058 0 -1.29977e+06 247133 0 -1.30261e+06 278292 0 -1.30579e+06 309543 0 -1.30929e+06 340898 0 -1.31311e+06 372365 0 -1.31726e+06 403954 0 -1.32172e+06 435674 0 -1.32649e+06 467534 0 -1.33158e+06 499542 0 -1.33697e+06 531705 0 -1.34267e+06 564032 0 -1.34866e+06 596529 0 -1.35495e+06 629202 0 -1.36153e+06 662058 0 -1.3684e+06 695101 0 -1.37555e+06 728335 0 -1.38298e+06 761764 0 -1.39068e+06 795389 0 -1.39865e+06 829212 0 -1.40688e+06 863232 0 -1.41538e+06 897448 0 -1.42413e+06 931858 0 -1.43314e+06 966456 0 -1.44241e+06 1.00124e+06 0 </DataArray> 
</PointData> 
<Points> 
<DataArray type="Float32" NumberOfComponents="3"> 