<?xml version="1.0"?> 
<VTKFile type="StructuredGrid" version="0.1"> 
<StructuredGrid WholeExtent="0 31 0 31 0 0"> 
<Piece Extent="0 31 0 31 0 0"> 
<PointData>
<DataArray type="Float32" Name="|E|" format="ascii" NumberOfComponents="3"> 
1.04166e+06 -9.09567e-05 0 1.00882e+06 -5.98591e-05 0 977180 -3.50508e-05 0 946761 -1.46553e-05 0 917572 1.6233e-06 0 889613 1.48239e-05 0 862883 2.53152e-05 0 837374 3.35146e-05 0 813076 3.96259e-05 0 789975 4.41261e-05 0 768058 4.72628e-05 0 747309 4.91366e-05 0 727709 5.02095e-05 0 709243 5.04702e-05 0 691893 4.99189e-05 0 675640 4.8779e-05 0 660468 4.74751e-05 0 646360 4.54485e-05 0 633300 4.30942e-05 0 621272 4.05982e-05 0 610261 3.77893e-05 0 600255 3.48911e-05 0 591239 3.1732e-05 0 583203 2.84389e-05 0 576137 2.50861e-05 0 570030 2.16737e-05 0 564874 1.81422e-05 0 560663 1.45771e-05 0 557390 1.0971e-05 0 555052 7.32578e-06 0 553645 3.67034e-06 0 553167 0 0 1.04166e+06 1828.14 0 1.00882e+06 1762.93 0 977179 1696.55 0 946760 1629.51 0 917570 1562.17 0 889611 1494.86 0 862881 1427.84 0 837372 1361.29 0 813074 1295.39 0 789974 1230.24 0 768057 1165.93 0 747307 1102.52 0 727708 1040.06 0 709242 978.558 0 691891 918.019 0 675638 858.436 0 660466 799.788 0 646358 742.045 0 633298 685.172 0 621270 629.124 0 610260 573.853 0 600253 519.305 0 591238 465.424 0 583202 412.15 0 576135 359.421 0 570028 307.172 0 564873 255.338 0 560661 203.852 0 557389 152.644 0 555051 101.645 0 553644 50.7876 0 553165 0 0 1.04166e+06 3656.29 0 1.00881e+06 3525.86 0 977173 3393.11 0 946754 3259.01 0 917564 3124.34 0 889606 2989.72 0 862876 2855.67 0 837367 2722.58 0 813069 2590.77 0 789968 2460.47 0 768051 2331.85 0 747302 2205.05 0 727703 2080.12 0 709237 1957.11 0 691886 1836.04 0 675633 1716.87 0 660462 1599.57 0 646354 1484.09 0 633293 1370.34 0 621265 1258.25 0 610255 1147.7 0 600249 1038.61 0 591233 930.846 0 583198 824.299 0 576131 718.841 0 570024 614.344 0 564868 510.676 0 560657 407.702 0 557385 305.286 0 555047 203.291 0 553639 101.575 0 553161 0 0 1.04165e+06 5484.44 0 1.0088e+06 5288.79 0 977164 5089.67 0 946745 4888.52 0 917555 4686.51 0 889597 4484.58 0 862867 4283.5 0 837358 4083.87 0 813060 3886.15 0 789960 3690.7 0 768043 3497.78 0 747293 3307.56 0 727694 3120.17 0 709228 2935.66 0 691878 2754.05 0 675625 2575.3 0 660454 2399.35 0 646346 2226.13 0 633286 2055.51 0 621258 1887.36 0 610248 1721.55 0 600241 1557.91 0 591226 1396.26 0 583190 1236.44 0 576124 1078.26 0 570017 921.512 0 564861 766.011 0 560650 611.551 0 557378 457.928 0 555040 304.935 0 553632 152.362 0 553154 0 0 1.04164e+06 7312.62 0 1.00879e+06 7051.74 0 977151 6786.24 0 946732 6518.03 0 917542 6248.68 0 889584 5979.44 0 862854 5711.33 0 837345 5445.15 0 813047 5181.52 0 789947 4920.92 0 768031 4663.69 0 747281 4410.07 0 727682 4160.21 0 709217 3914.2 0 691866 3672.05 0 675614 3433.72 0 660443 3199.12 0 646335 2968.16 0 633275 2740.66 0 621247 2516.47 0 610237 2295.39 0 600231 2077.2 0 591216 1861.68 0 583180 1648.58 0 576114 1437.67 0 570007 1228.68 0 564851 1021.34 0 560640 815.398 0 557368 610.568 0 555030 406.578 0 553623 203.148 0 553145 0 0 1.04162e+06 9140.81 0 1.00878e+06 8814.7 0 977135 8482.81 0 946715 8147.55 0 917526 7810.85 0 889567 7474.29 0 862837 7139.15 0 837329 6806.43 0 813031 6476.89 0 789931 6151.13 0 768015 5829.59 0 747266 5512.56 0 727667 5200.24 0 709202 4892.73 0 691852 4590.04 0 675600 4292.12 0 660428 3998.88 0 646321 3710.17 0 633261 3425.81 0 621234 3145.57 0 610224 2869.22 0 600218 2596.48 0 591203 2327.08 0 583167 2060.72 0 576101 1797.08 0 569994 1535.84 0 564839 1276.67 0 560628 1019.24 0 557356 763.205 0 555017 508.219 0 553610 253.934 0 553132 0 0 1.0416e+06 10969 0 1.00876e+06 10577.7 0 977115 10179.4 0 946695 9777.07 0 917505 9373.02 0 889547 8969.14 0 862817 8566.97 0 837309 8167.69 0 813011 7772.24 0 789912 7381.33 0 767996 6995.48 0 747247 6615.05 0 727648 6240.26 0 709183 5871.24 0 691834 5508.01 0 675582 5150.52 0 660411 4798.63 0 646304 4452.18 0 633244 4110.94 0 621217 3774.66 0 610207 3443.04 0 600201 3115.76 0 591187 2792.48 0 583151 2472.84 0 576085 2156.48 0 569978 1842.99 0 564823 1531.99 0 560612 1223.08 0 557340 915.839 0 555002 609.858 0 553595 304.718 0 553117 0 0 1.04158e+06 12797.3 0 1.00873e+06 12340.7 0 977091 11876 0 946671 11406.6 0 917481 10935.2 0 889523 10464 0 862794 9994.78 0 837285 9528.94 0 812988 9067.58 0 789889 8611.51 0 767973 8161.35 0 747224 7717.51 0 727626 7280.26 0 709162 6849.74 0 691812 6425.97 0 675561 6008.89 0 660390 5598.36 0 646283 5194.17 0 633224 4796.06 0 621197 4403.74 0 610188 4016.85 0 600182 3635.02 0 591167 3257.87 0 583132 2884.96 0 576066 2515.87 0 569960 2150.14 0 564805 1787.31 0 560594 1426.91 0 557322 1068.47 0 554984 711.495 0 553577 355.502 0 553099 0 0 1.04155e+06 14625.6 0 1.00871e+06 14103.7 0 977064 13572.6 0 946644 13036.1 0 917454 12497.4 0 889496 11958.8 0 862766 11422.6 0 837258 10890.2 0 812961 10362.9 0 789862 9841.68 0 767947 9327.2 0 747199 8819.95 0 727601 8320.24 0 709137 7828.22 0 691788 7343.91 0 675537 6867.25 0 660366 6398.07 0 646260 5936.14 0 633201 5481.17 0 621174 5032.8 0 610165 4590.64 0 600160 4154.27 0 591146 3723.24 0 583111 3297.06 0 576045 2875.25 0 569939 2457.28 0 564784 2042.62 0 560573 1630.74 0 557301 1221.1 0 554963 813.128 0 553556 406.283 0 553078 0 0 1.04152e+06 16453.9 0 1.00867e+06 15866.7 0 977032 15269.2 0 946612 14665.7 0 917422 14059.5 0 889464 13453.7 0 862735 12850.4 0 837227 12251.4 0 812931 11658.2 0 789832 11071.8 0 767917 10493 0 747169 9922.38 0 727572 9360.2 0 709108 8806.67 0 691760 8261.83 0 675509 7725.59 0 660339 7197.76 0 646233 6678.1 0 633175 6166.25 0 621148 5661.84 0 610140 5164.41 0 600135 4673.5 0 591121 4188.6 0 583086 3709.16 0 576021 3234.62 0 569914 2764.4 0 564760 2297.92 0 560549 1834.56 0 557277 1373.72 0 554940 914.759 0 553533 457.063 0 553054 0 0 1.04149e+06 18282.3 0 1.00864e+06 17629.8 0 976998 16965.9 0 946578 16295.2 0 917387 15621.7 0 889430 14948.5 0 862701 14278.1 0 837193 13612.6 0 812897 12953.5 0 789799 12301.9 0 767884 11658.8 0 747137 11024.8 0 727540 10400.1 0 709077 9785.1 0 691729 9179.72 0 675478 8583.89 0 660309 7997.43 0 646203 7420.02 0 633145 6851.31 0 621119 6290.85 0 610111 5738.17 0 600106 5192.72 0 591093 4653.94 0 583059 4121.23 0 575993 3593.97 0 569887 3071.52 0 564733 2553.21 0 560523 2038.38 0 557251 1526.33 0 554913 1016.39 0 553506 507.842 0 553028 0 0 1.04145e+06 20110.7 0 1.0086e+06 19392.9 0 976959 18662.5 0 946539 17924.8 0 917349 17183.8 0 889391 16443.3 0 862662 15705.9 0 837155 14973.8 0 812859 14248.8 0 789761 13532 0 767847 12824.6 0 747101 12127.1 0 727505 11440 0 709042 10763.5 0 691694 10097.6 0 675445 9442.18 0 660276 8797.07 0 646171 8161.93 0 633113 7536.35 0 621088 6919.85 0 610080 6311.9 0 600075 5711.91 0 591062 5119.26 0 583028 4533.29 0 575963 3953.32 0 569858 3378.62 0 564703 2808.49 0 560493 2242.18 0 557222 1678.94 0 554884 1118.01 0 553477 558.618 0 552999 0 0 1.04141e+06 21939.2 0 1.00856e+06 21156.1 0 976917 20359.2 0 946497 19554.3 0 917306 18746 0 889349 17938.1 0 862620 17133.6 0 837113 16335 0 812818 15544 0 789721 14762.1 0 767807 13990.4 0 747061 13229.5 0 727466 12479.9 0 709003 11741.9 0 691656 11015.4 0 675407 10300.4 0 660239 9596.68 0 646134 8903.8 0 633078 8221.36 0 621053 7548.82 0 610045 6885.61 0 600041 6231.09 0 591028 5584.57 0 582995 4945.33 0 575930 4312.64 0 569825 3685.71 0 564671 3063.76 0 560461 2445.98 0 557189 1831.54 0 554852 1219.63 0 553445 609.391 0 552967 0 0 1.04137e+06 23767.7 0 1.00852e+06 22919.3 0 976872 22055.9 0 946451 21183.9 0 917260 20308.2 0 889303 19432.9 0 862575 18561.3 0 837068 17696.1 0 812773 16839.2 0 789677 15992.2 0 767764 15156.1 0 747018 14331.8 0 727423 13519.7 0 708962 12720.2 0 691615 11933.2 0 675367 11158.6 0 660199 10396.3 0 646095 9645.64 0 633039 8906.34 0 621015 8177.76 0 610008 7459.29 0 600004 6750.24 0 590992 6049.85 0 582959 5357.36 0 575894 4671.95 0 569789 3992.79 0 564636 3319.02 0 560426 2649.77 0 557155 1984.14 0 554817 1321.24 0 553410 660.163 0 552932 0 0 1.04132e+06 25596.3 0 1.00847e+06 24682.5 0 976822 23752.7 0 946401 22813.5 0 917211 21870.3 0 889253 20927.7 0 862525 19989.1 0 837019 19057.2 0 812725 18134.4 0 789629 17222.2 0 767716 16321.8 0 746972 15434.1 0 727378 14559.5 0 708917 13698.5 0 691571 12851 0 675323 12016.8 0 660156 11195.8 0 646053 10387.5 0 632997 9591.28 0 620974 8806.68 0 609967 8032.95 0 599964 7269.36 0 590952 6515.11 0 582920 5769.36 0 575856 5031.24 0 569751 4299.85 0 564597 3574.26 0 560388 2853.54 0 557117 2136.72 0 554780 1422.85 0 553373 710.931 0 552895 0 0 1.04127e+06 27425 0 1.00842e+06 26445.8 0 976770 25449.4 0 946348 24443.1 0 917157 23432.5 0 889200 22422.5 0 862472 21416.7 0 836967 20418.3 0 812673 19429.5 0 789577 18452.1 0 767666 17487.4 0 746922 16536.3 0 727328 15599.3 0 708868 14676.7 0 691523 13768.7 0 675277 12875 0 660110 11995.3 0 646008 11129.2 0 632953 10276.2 0 620929 9435.56 0 609924 8606.58 0 599921 7788.45 0 590910 6980.34 0 582878 6181.34 0 575814 5390.51 0 569710 4606.89 0 564557 3829.49 0 560347 3057.3 0 557076 2289.3 0 554739 1524.45 0 553333 761.697 0 552855 0 0 1.04121e+06 29253.8 0 1.00836e+06 28209.1 0 976713 27146.2 0 946291 26072.7 0 917100 24994.6 0 889143 23917.2 0 862416 22844.4 0 836911 21779.4 0 812617 20724.6 0 789523 19682.1 0 767612 18653 0 746868 17638.5 0 727276 16639 0 708816 15655 0 691473 14686.4 0 675226 13733.1 0 660061 12794.8 0 645959 11871 0 632905 10961.1 0 620882 10064.4 0 609877 9180.17 0 599875 8307.52 0 590865 7445.55 0 582833 6593.29 0 575770 5749.76 0 569666 4913.92 0 564513 4084.71 0 560304 3261.06 0 557033 2441.87 0 554696 1626.04 0 553290 812.459 0 552812 0 0 1.04115e+06 31082.6 0 1.0083e+06 29972.5 0 976653 28843.1 0 946230 27702.3 0 917039 26556.8 0 889082 25412 0 862355 24272 0 836851 23140.4 0 812558 22019.7 0 789464 20912 0 767554 19818.6 0 746812 18740.6 0 727220 17678.7 0 708761 16633.1 0 691418 15604 0 675173 14591.1 0 660009 13594.2 0 645907 12612.6 0 632854 11645.9 0 620832 10693.2 0 609828 9753.73 0 599827 8826.55 0 590816 7910.73 0 582785 7005.22 0 575722 6108.99 0 569619 5220.92 0 564466 4339.9 0 560258 3464.79 0 556987 2594.43 0 554650 1727.63 0 553244 863.218 0 552766 0 0 1.04109e+06 32911.6 0 1.00824e+06 31736 0 976589 30539.9 0 946166 29331.9 0 916975 28119 0 889018 26906.7 0 862291 25699.6 0 836787 24501.4 0 812495 23314.8 0 789402 22141.8 0 767493 20984.1 0 746752 19842.7 0 727161 18718.3 0 708703 17611.2 0 691361 16521.6 0 675117 15449.1 0 659953 14393.6 0 645853 13354.3 0 632800 12330.7 0 620779 11322 0 609775 10327.2 0 599775 9345.55 0 590765 8375.87 0 582734 7417.12 0 575672 6468.19 0 569569 5527.9 0 564417 4595.08 0 560208 3668.52 0 556938 2746.98 0 554602 1829.21 0 553195 913.974 0 552717 0 0 1.04103e+06 34740.6 0 1.00817e+06 33499.5 0 976521 32236.8 0 946098 30961.6 0 916907 29681.1 0 888950 28401.4 0 862224 27127.2 0 836720 25862.4 0 812429 24609.8 0 789337 23371.6 0 767428 22149.6 0 746688 20944.7 0 727098 19757.9 0 708641 18589.3 0 691300 17439.1 0 675057 16307.1 0 659894 15192.9 0 645795 14095.9 0 632743 13015.5 0 620723 11950.7 0 609720 10900.7 0 599720 9864.52 0 590711 8840.99 0 582681 7829 0 575619 6827.36 0 569516 5834.86 0 564365 4850.25 0 560157 3872.23 0 556887 2899.51 0 554550 1930.79 0 553144 964.726 0 552666 0 0 1.04096e+06 36569.7 0 1.0081e+06 35263.1 0 976450 33933.7 0 946026 32591.2 0 916835 31243.2 0 888878 29896.1 0 862153 28554.8 0 836650 27223.3 0 812359 25904.7 0 789268 24601.4 0 767360 23315 0 746621 22046.7 0 727032 20797.4 0 708576 19567.3 0 691236 18356.6 0 674994 17165 0 659832 15992.1 0 645734 14837.5 0 632683 13700.2 0 620663 12579.4 0 609661 11474.2 0 599662 10383.4 0 590654 9306.06 0 582624 8240.84 0 575563 7186.51 0 569461 6141.8 0 564310 5105.39 0 560102 4075.92 0 556832 3052.04 0 554496 2032.35 0 553090 1015.47 0 552612 0 0 1.04089e+06 38398.9 0 1.00803e+06 37026.7 0 976375 35630.7 0 945950 34220.9 0 916759 32805.4 0 888803 31390.8 0 862078 29982.3 0 836576 28584.2 0 812286 27199.6 0 789195 25831.1 0 767289 24480.3 0 746550 23148.7 0 726963 21836.8 0 708508 20545.3 0 691169 19274 0 674928 18022.8 0 659767 16791.4 0 645670 15579 0 632619 14384.8 0 620601 13208 0 609600 12047.6 0 599601 10902.3 0 590594 9771.11 0 582565 8652.64 0 575504 7545.63 0 569403 6448.71 0 564252 5360.51 0 560044 4279.6 0 556775 3204.55 0 554439 2133.91 0 553033 1066.22 0 552555 0 0 1.04081e+06 40228.3 0 1.00795e+06 38790.4 0 976296 37327.7 0 945871 35850.6 0 916680 34367.5 0 888724 32885.4 0 861999 31409.8 0 836498 29945 0 812209 28494.5 0 789119 27060.7 0 767214 25645.6 0 746476 24250.5 0 726890 22876.2 0 708436 21523.1 0 691098 20191.4 0 674858 18880.6 0 659699 17590.5 0 645602 16320.4 0 632553 15069.4 0 620536 13836.6 0 609535 12620.9 0 599538 11421.2 0 590531 10236.1 0 582503 9064.42 0 575443 7904.72 0 569342 6755.6 0 564191 5615.61 0 559984 4483.26 0 556715 3357.05 0 554379 2235.46 0 552973 1116.96 0 552495 0 0 1.04073e+06 42057.7 0 1.00787e+06 40554.2 0 976214 39024.8 0 945788 37480.3 0 916597 35929.7 0 888641 34380.1 0 861917 32837.3 0 836416 31305.8 0 812128 29789.3 0 789040 28290.3 0 767135 26810.9 0 746399 25352.3 0 726814 23915.6 0 708361 22501 0 691025 21108.6 0 674786 19738.4 0 659627 18389.6 0 645532 17061.8 0 632484 15754 0 620467 14465.1 0 609468 13194.2 0 599471 11940 0 590465 10701.1 0 582438 9476.16 0 575378 8263.78 0 569278 7062.46 0 564128 5870.68 0 559921 4686.9 0 556652 3509.53 0 554316 2337 0 552911 1167.69 0 552433 0 0 1.04065e+06 43887.3 0 1.00778e+06 42318 0 976128 40721.9 0 945702 39110 0 916511 37491.8 0 888555 35874.7 0 861831 34264.7 0 836331 32666.6 0 812044 31084.1 0 788956 29519.9 0 767053 27976.1 0 746318 26454.1 0 726734 24954.8 0 708283 23478.7 0 690947 22025.9 0 674710 20596 0 659552 19188.7 0 645458 17803.1 0 632411 16438.4 0 620396 15093.6 0 609397 13767.5 0 599402 12458.7 0 590396 11166 0 582370 9887.86 0 575311 8622.8 0 569211 7369.29 0 564061 6125.73 0 559855 4890.52 0 556587 3662 0 554251 2438.53 0 552846 1218.42 0 552368 0 0 1.04056e+06 45717 0 1.00769e+06 44082 0 976038 42419 0 945612 40739.8 0 916420 39053.9 0 888465 37369.3 0 861742 35692.1 0 836242 34027.3 0 811956 32378.8 0 788870 30749.3 0 766968 29141.2 0 746234 27555.8 0 726651 25994 0 708201 24456.4 0 690867 22943 0 674631 21453.6 0 659474 19987.6 0 645382 18544.4 0 632336 17122.9 0 620321 15722.1 0 609324 14340.7 0 599329 12977.4 0 590325 11630.9 0 582299 10299.5 0 575241 8981.79 0 569141 7676.09 0 563992 6380.76 0 559786 5094.12 0 556518 3814.46 0 554183 2540.05 0 552778 1269.15 0 552300 0 0 1.04047e+06 47546.9 0 1.0076e+06 45846 0 975945 44116.2 0 945518 42369.5 0 916326 40616.1 0 888371 38863.9 0 861648 37119.5 0 836150 35388 0 811865 33673.4 0 788779 31978.7 0 766879 30306.2 0 746146 28657.4 0 726565 27033.2 0 708116 25434 0 690783 23860.1 0 674548 22311.1 0 659393 20786.6 0 645302 19285.6 0 632257 17807.3 0 620244 16350.4 0 609247 14913.8 0 599254 13496.1 0 590250 12095.7 0 582225 10711.1 0 575168 9340.75 0 569069 7982.86 0 563920 6635.76 0 559715 5297.7 0 556447 3966.9 0 554112 2641.56 0 552707 1319.86 0 552229 0 0 1.04038e+06 49376.9 0 1.00751e+06 47610.1 0 975848 45813.5 0 945420 43999.3 0 916229 42178.2 0 888274 40358.4 0 861552 38546.8 0 836054 36748.6 0 811770 34968 0 788686 33208.1 0 766786 31471.2 0 746055 29758.9 0 726475 28072.2 0 708028 26411.6 0 690696 24777.1 0 674463 23168.6 0 659309 21585.4 0 645219 20026.7 0 632175 18491.6 0 620163 16978.7 0 609168 15486.9 0 599175 14014.7 0 590172 12560.5 0 582148 11122.7 0 575092 9699.67 0 568994 8289.6 0 563846 6890.74 0 559641 5501.26 0 556373 4119.32 0 554038 2743.06 0 552633 1370.58 0 552156 0 0 1.04028e+06 51207 0 1.00741e+06 49374.2 0 975748 47510.8 0 945319 45629.1 0 916127 43740.3 0 888173 41853 0 861451 39974.1 0 835954 38109.2 0 811671 36262.5 0 788588 34437.4 0 766690 32636.1 0 745960 30860.4 0 726382 29111.2 0 707936 27389.1 0 690606 25694.1 0 674374 24026 0 659222 22384.2 0 645133 20767.8 0 632091 19175.8 0 620080 17607 0 609085 16060 0 599094 14533.3 0 590092 13025.2 0 582069 11534.3 0 575013 10058.5 0 568915 8596.3 0 563768 7145.68 0 559564 5704.8 0 556296 4271.73 0 553962 2844.54 0 552557 1421.29 0 552079 0 0 1.04018e+06 53037.3 0 1.0073e+06 51138.5 0 975643 49208.1 0 945214 47259 0 916022 45302.4 0 888068 43347.5 0 861347 41401.3 0 835851 39469.7 0 811569 37557 0 788487 35666.6 0 766591 33800.9 0 745862 31961.7 0 726285 30150.1 0 707841 28366.4 0 690513 26610.9 0 674282 24883.3 0 659131 23182.8 0 645043 21508.8 0 632003 19860 0 619993 18235.2 0 609000 16632.9 0 599009 15051.7 0 590009 13489.9 0 581986 11945.7 0 574931 10417.4 0 568834 8902.97 0 563688 7400.6 0 559484 5908.31 0 556217 4424.12 0 553883 2946.02 0 552478 1471.99 0 552000 0 0 1.04007e+06 54867.8 0 1.0072e+06 52902.9 0 975535 50905.5 0 945105 48888.8 0 915913 46864.5 0 887959 44841.9 0 861239 42828.5 0 835744 40830.1 0 811463 38851.4 0 788383 36895.7 0 766488 34965.7 0 745761 33063 0 726185 31188.9 0 707743 29343.7 0 690416 27527.7 0 674187 25740.5 0 659037 23981.5 0 644951 22249.7 0 631912 20544.1 0 619903 18863.3 0 608911 17205.9 0 598922 15570.2 0 589922 13954.6 0 581901 12357.2 0 574847 10776.2 0 568751 9209.61 0 563604 7655.49 0 559401 6111.8 0 556135 4576.49 0 553801 3047.48 0 552396 1522.69 0 551919 0 0 1.03997e+06 56698.5 0 1.00709e+06 54667.3 0 975424 52603 0 944993 50518.7 0 915801 48426.6 0 887847 46336.4 0 861128 44255.7 0 835634 42190.5 0 811354 40145.7 0 788275 38124.8 0 766381 36130.3 0 745656 34164.2 0 726082 32227.6 0 707641 30321 0 690316 28444.4 0 674088 26597.6 0 658940 24780 0 644856 22990.5 0 631818 21228.1 0 619811 19491.3 0 608820 17778.7 0 598832 16088.6 0 589833 14419.1 0 581812 12768.6 0 574759 11134.9 0 568664 9516.2 0 563518 7910.34 0 559315 6315.26 0 556049 4728.84 0 553716 3148.93 0 552311 1573.38 0 551834 0 0 </DataArray> 
</PointData> 
<Points> 
<DataArray type="Float32" NumberOfComponents="3"> 