<?xml version="1.0"?> 
<VTKFile type="StructuredGrid" version="0.1"> 
<StructuredGrid WholeExtent="0 31 0 31 0 0"> 
<Piece Extent="0 31 0 31 0 0"> 
<PointData>
<DataArray type="Float32" Name="|E|" format="ascii" NumberOfComponents="3"> 
-2.25551e+06 970370 0 -2.27768e+06 1.01809e+06 0 -2.29908e+06 1.06808e+06 0 -2.31928e+06 1.12052e+06 0 -2.33771e+06 1.17558e+06 0 -2.35368e+06 1.23339e+06 0 -2.36631e+06 1.294e+06 0 -2.37452e+06 1.35733e+06 0 -2.377e+06 1.42307e+06 0 -2.37222e+06 1.49055e+06 0 -2.35849e+06 1.55858e+06 0 -2.33413e+06 1.62531e+06 0 -2.29773e+06 1.68805e+06 0 -2.24855e+06 1.74328e+06 0 -2.18696e+06 1.7869e+06 0 -2.11478e+06 1.81473e+06 0 -2.03525e+06 1.82322e+06 0 -1.95266e+06 1.81011e+06 0 -1.87158e+06 1.77475e+06 0 -1.79616e+06 1.71797e+06 0 -1.72954e+06 1.64159e+06 0 -1.67367e+06 1.54775e+06 0 -1.62943e+06 1.43841e+06 0 -1.59687e+06 1.31489e+06 0 -1.57539e+06 1.17768e+06 0 -1.56419e+06 1.02622e+06 0 -1.56257e+06 858049 0 -1.56833e+06 672108 0 -1.58432e+06 447655 0 -1.63037e+06 222292 0 -1.64168e+06 -261203 0 -2.66201e+06 2.38419e-07 0 -2.24619e+06 974809 0 -2.26793e+06 1.02241e+06 0 -2.28887e+06 1.07221e+06 0 -2.30857e+06 1.12435e+06 0 -2.32648e+06 1.17899e+06 0 -2.3419e+06 1.23623e+06 0 -2.354e+06 1.29608e+06 0 -2.36172e+06 1.35841e+06 0 -2.3638e+06 1.42287e+06 0 -2.3588e+06 1.48876e+06 0 -2.34516e+06 1.55487e+06 0 -2.32134e+06 1.61937e+06 0 -2.28608e+06 1.67966e+06 0 -2.2388e+06 1.7324e+06 0 -2.17992e+06 1.77375e+06 0 -2.11122e+06 1.7998e+06 0 -2.03574e+06 1.80727e+06 0 -1.95748e+06 1.79402e+06 0 -1.88072e+06 1.75939e+06 0 -1.80936e+06 1.70407e+06 0 -1.74641e+06 1.62965e+06 0 -1.6938e+06 1.53805e+06 0 -1.65251e+06 1.43103e+06 0 -1.62268e+06 1.30981e+06 0 -1.60407e+06 1.17477e+06 0 -1.59569e+06 1.02522e+06 0 -1.59812e+06 859317 0 -1.60695e+06 673484 0 -1.63478e+06 458042 0 -1.67077e+06 218593 0 -1.77911e+06 -153986 0 -2.42681e+06 -3.72529e-07 0 -2.23689e+06 979169 0 -2.25821e+06 1.02665e+06 0 -2.27871e+06 1.07624e+06 0 -2.29793e+06 1.12808e+06 0 -2.31534e+06 1.1823e+06 0 -2.33026e+06 1.23896e+06 0 -2.34186e+06 1.29805e+06 0 -2.34913e+06 1.3594e+06 0 -2.35087e+06 1.42262e+06 0 -2.34573e+06 1.48696e+06 0 -2.33224e+06 1.55123e+06 0 -2.309e+06 1.6136e+06 0 -2.27492e+06 1.67157e+06 0 -2.22951e+06 1.72198e+06 0 -2.17328e+06 1.7612e+06 0 -2.10792e+06 1.78561e+06 0 -2.03633e+06 1.79214e+06 0 -1.96224e+06 1.77878e+06 0 -1.88964e+06 1.74487e+06 0 -1.82222e+06 1.69094e+06 0 -1.76286e+06 1.6184e+06 0 -1.71348e+06 1.52897e+06 0 -1.67513e+06 1.42423e+06 0 -1.64809e+06 1.30528e+06 0 -1.63226e+06 1.17243e+06 0 -1.62699e+06 1.02492e+06 0 -1.6328e+06 861126 0 -1.64654e+06 676830 0 -1.68032e+06 467039 0 -1.72124e+06 226285 0 -1.865e+06 -74886.7 0 -2.28714e+06 5.06639e-07 0 -2.2276e+06 983452 0 -2.24853e+06 1.0308e+06 0 -2.2686e+06 1.08018e+06 0 -2.28736e+06 1.13172e+06 0 -2.3043e+06 1.18551e+06 0 -2.31875e+06 1.2416e+06 0 -2.3299e+06 1.29994e+06 0 -2.33677e+06 1.36032e+06 0 -2.33823e+06 1.42232e+06 0 -2.33299e+06 1.48516e+06 0 -2.31971e+06 1.54765e+06 0 -2.2971e+06 1.608e+06 0 -2.26421e+06 1.66379e+06 0 -2.22066e+06 1.71201e+06 0 -2.16701e+06 1.74925e+06 0 -2.10489e+06 1.77214e+06 0 -2.03703e+06 1.77781e+06 0 -1.96693e+06 1.76437e+06 0 -1.89835e+06 1.73114e+06 0 -1.83475e+06 1.67855e+06 0 -1.7789e+06 1.60782e+06 0 -1.73272e+06 1.52049e+06 0 -1.69729e+06 1.418e+06 0 -1.67304e+06 1.3013e+06 0 -1.66001e+06 1.17066e+06 0 -1.65789e+06 1.02531e+06 0 -1.66701e+06 863630 0 -1.68589e+06 681571 0 -1.72385e+06 476094 0 -1.77359e+06 239957 0 -1.92344e+06 -15259.2 0 -2.20638e+06 -6.18398e-07 0 -2.21834e+06 987660 0 -2.23888e+06 1.03487e+06 0 -2.25854e+06 1.08403e+06 0 -2.27687e+06 1.13526e+06 0 -2.29336e+06 1.18863e+06 0 -2.30737e+06 1.24415e+06 0 -2.3181e+06 1.30174e+06 0 -2.32462e+06 1.36117e+06 0 -2.32585e+06 1.42198e+06 0 -2.32057e+06 1.48338e+06 0 -2.30755e+06 1.54416e+06 0 -2.28562e+06 1.60258e+06 0 -2.25393e+06 1.6563e+06 0 -2.21223e+06 1.70247e+06 0 -2.16107e+06 1.73788e+06 0 -2.10208e+06 1.75937e+06 0 -2.03782e+06 1.76425e+06 0 -1.97157e+06 1.75076e+06 0 -1.90686e+06 1.71819e+06 0 -1.84697e+06 1.66688e+06 0 -1.79456e+06 1.5979e+06 0 -1.75152e+06 1.51262e+06 0 -1.719e+06 1.41233e+06 0 -1.69755e+06 1.29788e+06 0 -1.68732e+06 1.16947e+06 0 -1.68833e+06 1.02635e+06 0 -1.70082e+06 866889 0 -1.72461e+06 687439 0 -1.76638e+06 485766 0 -1.82456e+06 256686 0 -1.96752e+06 30426.1 0 -2.16308e+06 9.38773e-07 0 -2.2091e+06 991794 0 -2.22927e+06 1.03886e+06 0 -2.24853e+06 1.0878e+06 0 -2.26645e+06 1.13872e+06 0 -2.28252e+06 1.19166e+06 0 -2.29612e+06 1.24662e+06 0 -2.30647e+06 1.30347e+06 0 -2.31268e+06 1.36197e+06 0 -2.31372e+06 1.42162e+06 0 -2.30847e+06 1.48162e+06 0 -2.29575e+06 1.54076e+06 0 -2.27453e+06 1.59734e+06 0 -2.24406e+06 1.64912e+06 0 -2.20417e+06 1.69336e+06 0 -2.15546e+06 1.72706e+06 0 -2.09948e+06 1.74725e+06 0 -2.03868e+06 1.75143e+06 0 -1.97614e+06 1.73791e+06 0 -1.91517e+06 1.70599e+06 0 -1.85888e+06 1.65592e+06 0 -1.80984e+06 1.58863e+06 0 -1.7699e+06 1.50535e+06 0 -1.74026e+06 1.40722e+06 0 -1.7216e+06 1.29501e+06 0 -1.7142e+06 1.16887e+06 0 -1.7183e+06 1.02805e+06 0 -1.73422e+06 870921 0 -1.7626e+06 694282 0 -1.80821e+06 496275 0 -1.87314e+06 274707 0 -2.00453e+06 66161.3 0 -2.14423e+06 -6.25849e-07 0 -2.19988e+06 995857 0 -2.21969e+06 1.04277e+06 0 -2.23857e+06 1.0915e+06 0 -2.2561e+06 1.1421e+06 0 -2.27178e+06 1.19461e+06 0 -2.28499e+06 1.249e+06 0 -2.295e+06 1.30514e+06 0 -2.30095e+06 1.36272e+06 0 -2.30186e+06 1.42124e+06 0 -2.29666e+06 1.47989e+06 0 -2.28429e+06 1.53747e+06 0 -2.2638e+06 1.5923e+06 0 -2.23457e+06 1.64223e+06 0 -2.19647e+06 1.68467e+06 0 -2.15014e+06 1.71678e+06 0 -2.09709e+06 1.73578e+06 0 -2.03962e+06 1.73932e+06 0 -1.98065e+06 1.72579e+06 0 -1.9233e+06 1.69451e+06 0 -1.8705e+06 1.64565e+06 0 -1.82474e+06 1.58001e+06 0 -1.78786e+06 1.49867e+06 0 -1.76109e+06 1.40267e+06 0 -1.74519e+06 1.2927e+06 0 -1.74062e+06 1.16884e+06 0 -1.74778e+06 1.03039e+06 0 -1.76716e+06 875725 0 -1.79986e+06 702018 0 -1.84936e+06 507647 0 -1.9193e+06 293070 0 -2.0385e+06 94736.5 0 -2.14188e+06 4.32134e-07 0 -2.19069e+06 999852 0 -2.21015e+06 1.04662e+06 0 -2.22867e+06 1.09512e+06 0 -2.24583e+06 1.1454e+06 0 -2.26114e+06 1.19749e+06 0 -2.274e+06 1.25132e+06 0 -2.2837e+06 1.30674e+06 0 -2.28942e+06 1.36343e+06 0 -2.29023e+06 1.42086e+06 0 -2.28513e+06 1.4782e+06 0 -2.27315e+06 1.53428e+06 0 -2.25344e+06 1.58745e+06 0 -2.22543e+06 1.63565e+06 0 -2.1891e+06 1.6764e+06 0 -2.14509e+06 1.70703e+06 0 -2.09487e+06 1.72494e+06 0 -2.04062e+06 1.7279e+06 0 -1.98509e+06 1.71439e+06 0 -1.93123e+06 1.68375e+06 0 -1.88184e+06 1.63605e+06 0 -1.8393e+06 1.57201e+06 0 -1.80542e+06 1.49257e+06 0 -1.78148e+06 1.39868e+06 0 -1.76834e+06 1.29093e+06 0 -1.76657e+06 1.1694e+06 0 -1.77677e+06 1.03338e+06 0 -1.7996e+06 881290 0 -1.83639e+06 710599 0 -1.88981e+06 519837 0 -1.96342e+06 311307 0 -2.07165e+06 118156 0 -2.15107e+06 -2.98023e-07 0 -2.18152e+06 1.00378e+06 0 -2.20064e+06 1.05039e+06 0 -2.21882e+06 1.09866e+06 0 -2.23563e+06 1.14863e+06 0 -2.25059e+06 1.2003e+06 0 -2.26313e+06 1.25358e+06 0 -2.27256e+06 1.30829e+06 0 -2.27809e+06 1.36411e+06 0 -2.27884e+06 1.42047e+06 0 -2.27389e+06 1.47657e+06 0 -2.26233e+06 1.5312e+06 0 -2.2434e+06 1.5828e+06 0 -2.21663e+06 1.62936e+06 0 -2.18204e+06 1.66853e+06 0 -2.1403e+06 1.69779e+06 0 -2.09281e+06 1.71469e+06 0 -2.04167e+06 1.71713e+06 0 -1.98947e+06 1.70368e+06 0 -1.93899e+06 1.67366e+06 0 -1.8929e+06 1.62711e+06 0 -1.8535e+06 1.56462e+06 0 -1.82257e+06 1.48705e+06 0 -1.80144e+06 1.39523e+06 0 -1.79102e+06 1.28972e+06 0 -1.79205e+06 1.17054e+06 0 -1.80525e+06 1.03701e+06 0 -1.83149e+06 887599 0 -1.87224e+06 719993 0 -1.92954e+06 532788 0 -2.00597e+06 329240 0 -2.10518e+06 137874 0 -2.16865e+06 0 0 -2.17237e+06 1.00765e+06 0 -2.19118e+06 1.0541e+06 0 -2.20902e+06 1.10214e+06 0 -2.2255e+06 1.1518e+06 0 -2.24014e+06 1.20304e+06 0 -2.25238e+06 1.25578e+06 0 -2.26157e+06 1.3098e+06 0 -2.26694e+06 1.36477e+06 0 -2.26768e+06 1.4201e+06 0 -2.26291e+06 1.47498e+06 0 -2.2518e+06 1.52825e+06 0 -2.23368e+06 1.57835e+06 0 -2.20814e+06 1.62336e+06 0 -2.17527e+06 1.66106e+06 0 -2.13574e+06 1.68905e+06 0 -2.0909e+06 1.70502e+06 0 -2.04276e+06 1.707e+06 0 -1.99377e+06 1.69363e+06 0 -1.94657e+06 1.66424e+06 0 -1.90369e+06 1.6188e+06 0 -1.86736e+06 1.55784e+06 0 -1.83934e+06 1.4821e+06 0 -1.82097e+06 1.39234e+06 0 -1.81325e+06 1.28905e+06 0 -1.81704e+06 1.17224e+06 0 -1.83321e+06 1.04126e+06 0 -1.86281e+06 894639 0 -1.90739e+06 730182 0 -1.96856e+06 546456 0 -2.0474e+06 346870 0 -2.13976e+06 154965 0 -2.19262e+06 -2.98023e-08 0 -2.16325e+06 1.01145e+06 0 -2.18175e+06 1.05774e+06 0 -2.19928e+06 1.10556e+06 0 -2.21544e+06 1.1549e+06 0 -2.22978e+06 1.20572e+06 0 -2.24176e+06 1.25792e+06 0 -2.25073e+06 1.31127e+06 0 -2.25598e+06 1.36541e+06 0 -2.25673e+06 1.41975e+06 0 -2.25218e+06 1.47347e+06 0 -2.24156e+06 1.52542e+06 0 -2.22426e+06 1.57409e+06 0 -2.19996e+06 1.61766e+06 0 -2.16877e+06 1.65398e+06 0 -2.13139e+06 1.68078e+06 0 -2.08913e+06 1.69591e+06 0 -2.04389e+06 1.69749e+06 0 -1.99801e+06 1.68423e+06 0 -1.95397e+06 1.65545e+06 0 -1.91422e+06 1.61112e+06 0 -1.88089e+06 1.55165e+06 0 -1.85571e+06 1.47771e+06 0 -1.84006e+06 1.38998e+06 0 -1.83502e+06 1.28891e+06 0 -1.84153e+06 1.17451e+06 0 -1.86062e+06 1.04614e+06 0 -1.89353e+06 902394 0 -1.94187e+06 741150 0 -2.0069e+06 560819 0 -2.08811e+06 364303 0 -2.17576e+06 170243 0 -2.22167e+06 2.98023e-08 0 -2.15415e+06 1.01519e+06 0 -2.17236e+06 1.06133e+06 0 -2.18959e+06 1.10891e+06 0 -2.20546e+06 1.15793e+06 0 -2.21952e+06 1.20835e+06 0 -2.23125e+06 1.26002e+06 0 -2.24004e+06 1.31271e+06 0 -2.2452e+06 1.36604e+06 0 -2.246e+06 1.41942e+06 0 -2.2417e+06 1.47202e+06 0 -2.23158e+06 1.52271e+06 0 -2.21512e+06 1.57005e+06 0 -2.19204e+06 1.61224e+06 0 -2.16252e+06 1.64727e+06 0 -2.12724e+06 1.67299e+06 0 -2.08747e+06 1.68734e+06 0 -2.04505e+06 1.68858e+06 0 -2.00216e+06 1.67545e+06 0 -1.96121e+06 1.64729e+06 0 -1.92449e+06 1.60404e+06 0 -1.89408e+06 1.54603e+06 0 -1.8717e+06 1.47387e+06 0 -1.85874e+06 1.38816e+06 0 -1.85632e+06 1.28931e+06 0 -1.86552e+06 1.17733e+06 0 -1.88749e+06 1.05163e+06 0 -1.92364e+06 910849 0 -1.97567e+06 752889 0 -2.04458e+06 575884 0 -2.12842e+06 381703 0 -2.21337e+06 184341 0 -2.25497e+06 2.98023e-08 0 -2.14508e+06 1.01888e+06 0 -2.16301e+06 1.06485e+06 0 -2.17995e+06 1.1122e+06 0 -2.19555e+06 1.16092e+06 0 -2.20935e+06 1.21093e+06 0 -2.22086e+06 1.26208e+06 0 -2.22949e+06 1.31413e+06 0 -2.2346e+06 1.36667e+06 0 -2.23548e+06 1.41912e+06 0 -2.23144e+06 1.47065e+06 0 -2.22186e+06 1.52015e+06 0 -2.20624e+06 1.56621e+06 0 -2.18439e+06 1.60711e+06 0 -2.1565e+06 1.64094e+06 0 -2.12327e+06 1.66565e+06 0 -2.08593e+06 1.6793e+06 0 -2.04622e+06 1.68024e+06 0 -2.00624e+06 1.66726e+06 0 -1.96827e+06 1.63974e+06 0 -1.9345e+06 1.59755e+06 0 -1.90696e+06 1.54098e+06 0 -1.88732e+06 1.47057e+06 0 -1.87699e+06 1.38686e+06 0 -1.87716e+06 1.29023e+06 0 -1.88899e+06 1.1807e+06 0 -1.91378e+06 1.05772e+06 0 -1.95311e+06 919990 0 -2.00877e+06 765398 0 -2.08165e+06 591680 0 -2.16856e+06 399273 0 -2.25274e+06 197771 0 -2.292e+06 0 0 -2.13604e+06 1.02251e+06 0 -2.15369e+06 1.06832e+06 0 -2.17037e+06 1.11544e+06 0 -2.18571e+06 1.16385e+06 0 -2.19928e+06 1.21346e+06 0 -2.21059e+06 1.2641e+06 0 -2.21909e+06 1.31552e+06 0 -2.22416e+06 1.3673e+06 0 -2.22515e+06 1.41885e+06 0 -2.22141e+06 1.46935e+06 0 -2.21238e+06 1.51772e+06 0 -2.19762e+06 1.56257e+06 0 -2.17699e+06 1.60227e+06 0 -2.1507e+06 1.63497e+06 0 -2.11947e+06 1.65875e+06 0 -2.08448e+06 1.67177e+06 0 -2.0474e+06 1.67245e+06 0 -2.01024e+06 1.65967e+06 0 -1.97516e+06 1.63278e+06 0 -1.94427e+06 1.59163e+06 0 -1.91951e+06 1.53649e+06 0 -1.90256e+06 1.4678e+06 0 -1.89482e+06 1.38607e+06 0 -1.89753e+06 1.29166e+06 0 -1.91195e+06 1.1846e+06 0 -1.9395e+06 1.0644e+06 0 -1.98192e+06 929804 0 -2.04118e+06 778677 0 -2.11813e+06 608257 0 -2.20872e+06 417239 0 -2.29395e+06 210966 0 -2.33249e+06 0 0 -2.12702e+06 1.0261e+06 0 -2.14442e+06 1.07174e+06 0 -2.16084e+06 1.11863e+06 0 -2.17594e+06 1.16673e+06 0 -2.18929e+06 1.21594e+06 0 -2.20043e+06 1.26609e+06 0 -2.20882e+06 1.3169e+06 0 -2.21388e+06 1.36794e+06 0 -2.21501e+06 1.41863e+06 0 -2.2116e+06 1.46814e+06 0 -2.20313e+06 1.51542e+06 0 -2.18923e+06 1.55914e+06 0 -2.16981e+06 1.5977e+06 0 -2.1451e+06 1.62936e+06 0 -2.11582e+06 1.65228e+06 0 -2.08312e+06 1.66473e+06 0 -2.04859e+06 1.66521e+06 0 -2.01416e+06 1.65263e+06 0 -1.98188e+06 1.62638e+06 0 -1.95378e+06 1.58628e+06 0 -1.93175e+06 1.53253e+06 0 -1.91743e+06 1.46555e+06 0 -1.91223e+06 1.38579e+06 0 -1.91744e+06 1.2936e+06 0 -1.93439e+06 1.18903e+06 0 -1.96461e+06 1.07165e+06 0 -2.01005e+06 940277 0 -2.07286e+06 792728 0 -2.15402e+06 625682 0 -2.249e+06 435847 0 -2.33711e+06 224316 0 -2.3763e+06 -1.19209e-07 0 -2.11803e+06 1.02963e+06 0 -2.13518e+06 1.07511e+06 0 -2.15137e+06 1.12177e+06 0 -2.16623e+06 1.16957e+06 0 -2.17939e+06 1.21839e+06 0 -2.19037e+06 1.26805e+06 0 -2.19868e+06 1.31826e+06 0 -2.20377e+06 1.36859e+06 0 -2.20505e+06 1.41845e+06 0 -2.20198e+06 1.46702e+06 0 -2.19409e+06 1.51327e+06 0 -2.18107e+06 1.55591e+06 0 -2.16284e+06 1.59341e+06 0 -2.13969e+06 1.6241e+06 0 -2.11231e+06 1.64624e+06 0 -2.08182e+06 1.65817e+06 0 -2.04978e+06 1.65849e+06 0 -2.01799e+06 1.64615e+06 0 -1.98843e+06 1.62054e+06 0 -1.96306e+06 1.58147e+06 0 -1.94369e+06 1.52911e+06 0 -1.93193e+06 1.46381e+06 0 -1.92922e+06 1.386e+06 0 -1.93687e+06 1.29603e+06 0 -1.95629e+06 1.19397e+06 0 -1.98912e+06 1.07945e+06 0 -2.03749e+06 951391 0 -2.10379e+06 807556 0 -2.18931e+06 644031 0 -2.28949e+06 455354 0 -2.38232e+06 238188 0 -2.42347e+06 1.19209e-07 0 -2.10907e+06 1.03311e+06 0 -2.12599e+06 1.07843e+06 0 -2.14194e+06 1.12487e+06 0 -2.1566e+06 1.17237e+06 0 -2.16958e+06 1.22081e+06 0 -2.18043e+06 1.27e+06 0 -2.18868e+06 1.31963e+06 0 -2.1938e+06 1.36927e+06 0 -2.19527e+06 1.41832e+06 0 -2.19256e+06 1.466e+06 0 -2.18527e+06 1.51127e+06 0 -2.17311e+06 1.55289e+06 0 -2.15607e+06 1.58939e+06 0 -2.13444e+06 1.61918e+06 0 -2.10892e+06 1.6406e+06 0 -2.0806e+06 1.65208e+06 0 -2.05095e+06 1.65228e+06 0 -2.02173e+06 1.6402e+06 0 -1.99481e+06 1.61524e+06 0 -1.97209e+06 1.5772e+06 0 -1.95531e+06 1.5262e+06 0 -1.94607e+06 1.46257e+06 0 -1.94579e+06 1.3867e+06 0 -1.95584e+06 1.29894e+06 0 -1.97765e+06 1.1994e+06 0 -2.01301e+06 1.08779e+06 0 -2.0642e+06 963131 0 -2.13393e+06 823165 0 -2.22396e+06 663388 0 -2.33018e+06 476039 0 -2.42969e+06 252956 0 -2.47417e+06 -5.96046e-08 0 -2.10013e+06 1.03655e+06 0 -2.11683e+06 1.0817e+06 0 -2.13257e+06 1.12792e+06 0 -2.14703e+06 1.17513e+06 0 -2.15985e+06 1.2232e+06 0 -2.17059e+06 1.27192e+06 0 -2.1788e+06 1.32099e+06 0 -2.18398e+06 1.36996e+06 0 -2.18565e+06 1.41825e+06 0 -2.18333e+06 1.46506e+06 0 -2.17664e+06 1.50941e+06 0 -2.16536e+06 1.55007e+06 0 -2.14949e+06 1.58564e+06 0 -2.12936e+06 1.6146e+06 0 -2.10565e+06 1.63536e+06 0 -2.07942e+06 1.64644e+06 0 -2.05211e+06 1.64656e+06 0 -2.02538e+06 1.63476e+06 0 -2.00103e+06 1.61046e+06 0 -1.98088e+06 1.57344e+06 0 -1.96663e+06 1.52379e+06 0 -1.95985e+06 1.46181e+06 0 -1.96196e+06 1.38788e+06 0 -1.97433e+06 1.30232e+06 0 -1.99848e+06 1.20531e+06 0 -2.03626e+06 1.09665e+06 0 -2.09016e+06 975475 0 -2.16324e+06 839553 0 -2.25791e+06 683838 0 -2.37105e+06 498194 0 -2.47936e+06 269024 0 -2.52869e+06 0 0 -2.09122e+06 1.03994e+06 0 -2.10771e+06 1.08494e+06 0 -2.12325e+06 1.13094e+06 0 -2.13753e+06 1.17786e+06 0 -2.1502e+06 1.22556e+06 0 -2.16085e+06 1.27383e+06 0 -2.16903e+06 1.32235e+06 0 -2.1743e+06 1.37068e+06 0 -2.17619e+06 1.41824e+06 0 -2.17427e+06 1.46423e+06 0 -2.16819e+06 1.50769e+06 0 -2.15778e+06 1.54745e+06 0 -2.14308e+06 1.58216e+06 0 -2.12441e+06 1.61034e+06 0 -2.10247e+06 1.63051e+06 0 -2.0783e+06 1.64124e+06 0 -2.05325e+06 1.64132e+06 0 -2.02893e+06 1.62983e+06 0 -2.00708e+06 1.60619e+06 0 -1.98943e+06 1.57019e+06 0 -1.97766e+06 1.52188e+06 0 -1.97328e+06 1.46154e+06 0 -1.97771e+06 1.38952e+06 0 -1.99235e+06 1.30616e+06 0 -2.01875e+06 1.21168e+06 0 -2.05887e+06 1.106e+06 0 -2.11535e+06 988399 0 -2.19168e+06 856716 0 -2.29106e+06 705460 0 -2.412e+06 522134 0 -2.53151e+06 286846 0 -2.58748e+06 -5.96046e-08 0 -2.08234e+06 1.04329e+06 0 -2.09862e+06 1.08813e+06 0 -2.11398e+06 1.13391e+06 0 -2.1281e+06 1.18055e+06 0 -2.14063e+06 1.2279e+06 0 -2.1512e+06 1.27573e+06 0 -2.15939e+06 1.32372e+06 0 -2.16476e+06 1.37144e+06 0 -2.16688e+06 1.41828e+06 0 -2.16537e+06 1.46349e+06 0 -2.15992e+06 1.50612e+06 0 -2.15038e+06 1.54503e+06 0 -2.13683e+06 1.57893e+06 0 -2.1196e+06 1.6064e+06 0 -2.09939e+06 1.62603e+06 0 -2.0772e+06 1.63646e+06 0 -2.05435e+06 1.63654e+06 0 -2.03238e+06 1.62538e+06 0 -2.01295e+06 1.60242e+06 0 -1.99775e+06 1.56743e+06 0 -1.98838e+06 1.52045e+06 0 -1.98635e+06 1.46173e+06 0 -1.99305e+06 1.39161e+06 0 -2.0099e+06 1.31044e+06 0 -2.03848e+06 1.2185e+06 0 -2.08083e+06 1.11582e+06 0 -2.13975e+06 1.00188e+06 0 -2.21917e+06 874640 0 -2.32329e+06 728324 0 -2.45285e+06 548196 0 -2.58629e+06 306962 0 -2.65118e+06 2.98023e-07 0 -2.07348e+06 1.0466e+06 0 -2.08958e+06 1.09128e+06 0 -2.10476e+06 1.13685e+06 0 -2.11872e+06 1.18321e+06 0 -2.13114e+06 1.23021e+06 0 -2.14165e+06 1.27762e+06 0 -2.14986e+06 1.3251e+06 0 -2.15535e+06 1.37222e+06 0 -2.15772e+06 1.41839e+06 0 -2.15663e+06 1.46286e+06 0 -2.15181e+06 1.5047e+06 0 -2.14314e+06 1.54282e+06 0 -2.13072e+06 1.57596e+06 0 -2.11492e+06 1.60278e+06 0 -2.09639e+06 1.62193e+06 0 -2.07614e+06 1.6321e+06 0 -2.05542e+06 1.63221e+06 0 -2.03573e+06 1.6214e+06 0 -2.01866e+06 1.59913e+06 0 -2.00584e+06 1.56515e+06 0 -1.99882e+06 1.5195e+06 0 -1.99907e+06 1.46238e+06 0 -2.00799e+06 1.39414e+06 0 -2.02698e+06 1.31515e+06 0 -2.05766e+06 1.22575e+06 0 -2.10212e+06 1.12609e+06 0 -2.16332e+06 1.01587e+06 0 -2.24567e+06 893300 0 -2.35446e+06 752478 0 -2.49333e+06 576734 0 -2.64388e+06 330030 0 -2.72066e+06 -3.57628e-07 0 -2.06465e+06 1.04988e+06 0 -2.08057e+06 1.0944e+06 0 -2.09558e+06 1.13976e+06 0 -2.10941e+06 1.18585e+06 0 -2.12173e+06 1.23251e+06 0 -2.1322e+06 1.2795e+06 0 -2.14043e+06 1.3265e+06 0 -2.14606e+06 1.37305e+06 0 -2.1487e+06 1.41857e+06 0 -2.14805e+06 1.46233e+06 0 -2.14386e+06 1.50343e+06 0 -2.13606e+06 1.5408e+06 0 -2.12476e+06 1.57324e+06 0 -2.11034e+06 1.59947e+06 0 -2.09346e+06 1.61818e+06 0 -2.07509e+06 1.62815e+06 0 -2.05646e+06 1.62832e+06 0 -2.03898e+06 1.61789e+06 0 -2.0242e+06 1.59631e+06 0 -2.01369e+06 1.56334e+06 0 -2.00896e+06 1.51899e+06 0 -2.01144e+06 1.46347e+06 0 -2.02252e+06 1.3971e+06 0 -2.0436e+06 1.32028e+06 0 -2.07629e+06 1.2334e+06 0 -2.12275e+06 1.13678e+06 0 -2.18605e+06 1.03035e+06 0 -2.27109e+06 912662 0 -2.38439e+06 777943 0 -2.53306e+06 608119 0 -2.70444e+06 356879 0 -2.79713e+06 2.38419e-07 0 -2.05585e+06 1.05311e+06 0 -2.07159e+06 1.09749e+06 0 -2.08646e+06 1.14264e+06 0 -2.10016e+06 1.18847e+06 0 -2.11239e+06 1.2348e+06 0 -2.12283e+06 1.28139e+06 0 -2.13111e+06 1.32791e+06 0 -2.13689e+06 1.37391e+06 0 -2.13982e+06 1.41882e+06 0 -2.1396e+06 1.46191e+06 0 -2.13605e+06 1.50231e+06 0 -2.12911e+06 1.53898e+06 0 -2.11892e+06 1.57077e+06 0 -2.10586e+06 1.59645e+06 0 -2.09059e+06 1.61478e+06 0 -2.07406e+06 1.62459e+06 0 -2.05744e+06 1.62486e+06 0 -2.04211e+06 1.61482e+06 0 -2.02957e+06 1.59394e+06 0 -2.02131e+06 1.56198e+06 0 -2.01881e+06 1.51894e+06 0 -2.02347e+06 1.465e+06 0 -2.03665e+06 1.40048e+06 0 -2.05975e+06 1.32581e+06 0 -2.09437e+06 1.24145e+06 0 -2.1427e+06 1.14786e+06 0 -2.20791e+06 1.04526e+06 0 -2.29537e+06 932675 0 -2.41289e+06 804699 0 -2.57152e+06 642717 0 -2.76805e+06 388574 0 -2.88225e+06 -2.98023e-07 0 -2.04707e+06 1.05632e+06 0 -2.06265e+06 1.10054e+06 0 -2.07737e+06 1.1455e+06 0 -2.09096e+06 1.19107e+06 0 -2.10312e+06 1.23708e+06 0 -2.11355e+06 1.28328e+06 0 -2.12189e+06 1.32934e+06 0 -2.12783e+06 1.37482e+06 0 -2.13105e+06 1.41914e+06 0 -2.13129e+06 1.4616e+06 0 -2.12838e+06 1.50134e+06 0 -2.12229e+06 1.53736e+06 0 -2.11319e+06 1.56855e+06 0 -2.10147e+06 1.59373e+06 0 -2.08778e+06 1.61172e+06 0 -2.07303e+06 1.6214e+06 0 -2.05837e+06 1.62181e+06 0 -2.04514e+06 1.61218e+06 0 -2.03476e+06 1.59202e+06 0 -2.02869e+06 1.56107e+06 0 -2.02837e+06 1.51932e+06 0 -2.03516e+06 1.46695e+06 0 -2.05039e+06 1.40427e+06 0 -2.07543e+06 1.33172e+06 0 -2.1119e+06 1.24986e+06 0 -2.16198e+06 1.1593e+06 0 -2.22889e+06 1.06056e+06 0 -2.31843e+06 953274 0 -2.43978e+06 832677 0 -2.608e+06 680867 0 -2.83463e+06 426507 0 -2.97836e+06 3.57628e-07 0 -2.03832e+06 1.05949e+06 0 -2.05375e+06 1.10357e+06 0 -2.06834e+06 1.14833e+06 0 -2.08182e+06 1.19365e+06 0 -2.09393e+06 1.23935e+06 0 -2.10435e+06 1.28517e+06 0 -2.11277e+06 1.3308e+06 0 -2.11889e+06 1.37577e+06 0 -2.12241e+06 1.41954e+06 0 -2.12311e+06 1.46139e+06 0 -2.12084e+06 1.50051e+06 0 -2.1156e+06 1.53592e+06 0 -2.10757e+06 1.56657e+06 0 -2.09716e+06 1.5913e+06 0 -2.085e+06 1.609e+06 0 -2.072e+06 1.61859e+06 0 -2.05925e+06 1.61916e+06 0 -2.04805e+06 1.60997e+06 0 -2.03978e+06 1.59053e+06 0 -2.03585e+06 1.56059e+06 0 -2.03765e+06 1.52013e+06 0 -2.04651e+06 1.46931e+06 0 -2.06373e+06 1.40845e+06 0 -2.09067e+06 1.33801e+06 0 -2.12889e+06 1.25862e+06 0 -2.18059e+06 1.17107e+06 0 -2.24899e+06 1.07618e+06 0 -2.34018e+06 974378 0 -2.46489e+06 861748 0 -2.6416e+06 722826 0 -2.9038e+06 472526 0 -3.0888e+06 -3.57628e-07 0 -2.02959e+06 1.06263e+06 0 -2.04488e+06 1.10656e+06 0 -2.05935e+06 1.15113e+06 0 -2.07274e+06 1.19621e+06 0 -2.0848e+06 1.24161e+06 0 -2.09523e+06 1.28708e+06 0 -2.10374e+06 1.33228e+06 0 -2.11005e+06 1.37677e+06 0 -2.11388e+06 1.42001e+06 0 -2.11504e+06 1.4613e+06 0 -2.11341e+06 1.49983e+06 0 -2.10902e+06 1.53468e+06 0 -2.10205e+06 1.56482e+06 0 -2.09292e+06 1.58915e+06 0 -2.08226e+06 1.6066e+06 0 -2.07095e+06 1.61615e+06 0 -2.06007e+06 1.6169e+06 0 -2.05085e+06 1.60816e+06 0 -2.04463e+06 1.58946e+06 0 -2.04278e+06 1.56053e+06 0 -2.04664e+06 1.52136e+06 0 -2.05752e+06 1.47207e+06 0 -2.07668e+06 1.41301e+06 0 -2.10545e+06 1.34466e+06 0 -2.14535e+06 1.26771e+06 0 -2.19853e+06 1.18312e+06 0 -2.26821e+06 1.09207e+06 0 -2.36056e+06 995889 0 -2.48811e+06 891718 0 -2.67118e+06 768677 0 -2.97459e+06 529123 0 -3.21845e+06 5.36442e-07 0 -2.02088e+06 1.06574e+06 0 -2.03604e+06 1.10953e+06 0 -2.0504e+06 1.15392e+06 0 -2.06371e+06 1.19876e+06 0 -2.07573e+06 1.24387e+06 0 -2.08619e+06 1.28899e+06 0 -2.0948e+06 1.33379e+06 0 -2.1013e+06 1.37782e+06 0 -2.10546e+06 1.42055e+06 0 -2.10709e+06 1.46131e+06 0 -2.1061e+06 1.4993e+06 0 -2.10254e+06 1.53363e+06 0 -2.09662e+06 1.5633e+06 0 -2.08874e+06 1.58728e+06 0 -2.07955e+06 1.60452e+06 0 -2.06989e+06 1.61405e+06 0 -2.06082e+06 1.61502e+06 0 -2.05352e+06 1.60676e+06 0 -2.0493e+06 1.5888e+06 0 -2.04948e+06 1.56089e+06 0 -2.05535e+06 1.52298e+06 0 -2.0682e+06 1.47523e+06 0 -2.08925e+06 1.41795e+06 0 -2.11978e+06 1.35165e+06 0 -2.16128e+06 1.2771e+06 0 -2.21581e+06 1.19544e+06 0 -2.28657e+06 1.10815e+06 0 -2.37945e+06 1.01769e+06 0 -2.50938e+06 922341 0 -2.69548e+06 818184 0 -3.04492e+06 599694 0 -3.37461e+06 -5.96046e-07 0 -2.0122e+06 1.06883e+06 0 -2.02723e+06 1.11248e+06 0 -2.04149e+06 1.15668e+06 0 -2.05473e+06 1.2013e+06 0 -2.06673e+06 1.24613e+06 0 -2.07722e+06 1.29092e+06 0 -2.08594e+06 1.33533e+06 0 -2.09265e+06 1.37893e+06 0 -2.09714e+06 1.42118e+06 0 -2.09924e+06 1.46143e+06 0 -2.09889e+06 1.49891e+06 0 -2.09616e+06 1.53276e+06 0 -2.09126e+06 1.56201e+06 0 -2.08462e+06 1.58567e+06 0 -2.07686e+06 1.60274e+06 0 -2.06881e+06 1.6123e+06 0 -2.06149e+06 1.61351e+06 0 -2.05607e+06 1.60574e+06 0 -2.0538e+06 1.58854e+06 0 -2.05595e+06 1.56164e+06 0 -2.06379e+06 1.525e+06 0 -2.07855e+06 1.47876e+06 0 -2.10144e+06 1.42324e+06 0 -2.13368e+06 1.35897e+06 0 -2.1767e+06 1.28678e+06 0 -2.23241e+06 1.20799e+06 0 -2.30411e+06 1.12436e+06 0 -2.39676e+06 1.03962e+06 0 -2.52869e+06 953365 0 -2.71325e+06 870537 0 -3.11071e+06 688930 0 -3.56843e+06 4.76837e-07 0 -2.00354e+06 1.07188e+06 0 -2.01846e+06 1.11541e+06 0 -2.03262e+06 1.15943e+06 0 -2.0458e+06 1.20383e+06 0 -2.05778e+06 1.24839e+06 0 -2.06832e+06 1.29286e+06 0 -2.07716e+06 1.3369e+06 0 -2.08409e+06 1.38008e+06 0 -2.08891e+06 1.42188e+06 0 -2.09149e+06 1.46166e+06 0 -2.09178e+06 1.49867e+06 0 -2.08986e+06 1.53208e+06 0 -2.08598e+06 1.56095e+06 0 -2.08054e+06 1.58433e+06 0 -2.07418e+06 1.60127e+06 0 -2.0677e+06 1.61088e+06 0 -2.0621e+06 1.61236e+06 0 -2.0585e+06 1.60511e+06 0 -2.05811e+06 1.58866e+06 0 -2.06219e+06 1.56278e+06 0 -2.07194e+06 1.52741e+06 0 -2.08858e+06 1.48267e+06 0 -2.11325e+06 1.42889e+06 0 -2.14713e+06 1.36661e+06 0 -2.19162e+06 1.29673e+06 0 -2.24835e+06 1.22073e+06 0 -2.3209e+06 1.14065e+06 0 -2.41245e+06 1.06148e+06 0 -2.54601e+06 984617 0 -2.72381e+06 923970 0 -3.16431e+06 803351 0 -3.81739e+06 -4.76837e-07 0 -1.9949e+06 1.07492e+06 0 -2.00971e+06 1.11831e+06 0 -2.02379e+06 1.16217e+06 0 -2.03692e+06 1.20635e+06 0 -2.0489e+06 1.25065e+06 0 -2.05949e+06 1.29481e+06 0 -2.06846e+06 1.3385e+06 0 -2.07562e+06 1.38129e+06 0 -2.08078e+06 1.42267e+06 0 -2.08383e+06 1.462e+06 0 -2.08476e+06 1.49858e+06 0 -2.08365e+06 1.53157e+06 0 -2.08076e+06 1.5601e+06 0 -2.0765e+06 1.58325e+06 0 -2.0715e+06 1.60009e+06 0 -2.06655e+06 1.60978e+06 0 -2.06262e+06 1.61156e+06 0 -2.06079e+06 1.60484e+06 0 -2.06225e+06 1.58917e+06 0 -2.0682e+06 1.56431e+06 0 -2.07983e+06 1.53019e+06 0 -2.09828e+06 1.48694e+06 0 -2.1247e+06 1.43488e+06 0 -2.16016e+06 1.37456e+06 0 -2.20607e+06 1.30693e+06 0 -2.26366e+06 1.23361e+06 0 -2.33694e+06 1.15699e+06 0 -2.42665e+06 1.08294e+06 0 -2.56093e+06 1.01624e+06 0 -2.7281e+06 975033 0 -3.1915e+06 952245 0 -4.14947e+06 2.38419e-07 0 -1.98629e+06 1.07793e+06 0 -2.00099e+06 1.1212e+06 0 -2.015e+06 1.16489e+06 0 -2.02809e+06 1.20887e+06 0 -2.04007e+06 1.25292e+06 0 -2.05072e+06 1.29679e+06 0 -2.05983e+06 1.34014e+06 0 -2.06722e+06 1.38256e+06 0 -2.07273e+06 1.42354e+06 0 -2.07626e+06 1.46246e+06 0 -2.07782e+06 1.49862e+06 0 -2.07751e+06 1.53125e+06 0 -2.07559e+06 1.55947e+06 0 -2.07249e+06 1.58242e+06 0 -2.06883e+06 1.5992e+06 0 -2.06537e+06 1.609e+06 0 -2.06306e+06 1.61111e+06 0 -2.06296e+06 1.60493e+06 0 -2.06621e+06 1.59004e+06 0 -2.07398e+06 1.5662e+06 0 -2.08743e+06 1.53334e+06 0 -2.10766e+06 1.49157e+06 0 -2.13579e+06 1.4412e+06 0 -2.17278e+06 1.3828e+06 0 -2.22002e+06 1.31737e+06 0 -2.27842e+06 1.24659e+06 0 -2.35208e+06 1.17344e+06 0 -2.43996e+06 1.10348e+06 0 -2.57187e+06 1.04896e+06 0 -2.73099e+06 1.01787e+06 0 -3.16652e+06 1.14842e+06 0 -4.61013e+06 -3.57628e-07 0 -1.97769e+06 1.08092e+06 0 -1.99231e+06 1.12407e+06 0 -2.00624e+06 1.1676e+06 0 -2.0193e+06 1.21138e+06 0 -2.03129e+06 1.25519e+06 0 -2.04201e+06 1.29878e+06 0 -2.05127e+06 1.34182e+06 0 -2.0589e+06 1.38389e+06 0 -2.06476e+06 1.42448e+06 0 -2.06877e+06 1.46302e+06 0 -2.07095e+06 1.49881e+06 0 -2.07143e+06 1.5311e+06 0 -2.07047e+06 1.55905e+06 0 -2.06851e+06 1.58183e+06 0 -2.06614e+06 1.59859e+06 0 -2.06413e+06 1.60853e+06 0 -2.06341e+06 1.61098e+06 0 -2.06499e+06 1.60536e+06 0 -2.06999e+06 1.59127e+06 0 -2.07954e+06 1.56846e+06 0 -2.09476e+06 1.53684e+06 0 -2.11674e+06 1.49654e+06 0 -2.14649e+06 1.44784e+06 0 -2.18505e+06 1.39133e+06 0 -2.23338e+06 1.32805e+06 0 -2.29297e+06 1.25956e+06 0 -2.36559e+06 1.19019e+06 0 -2.45446e+06 1.12201e+06 0 -2.57393e+06 1.08517e+06 0 -2.74635e+06 1.04141e+06 0 -3.04172e+06 1.41176e+06 0 -5.27597e+06 1.43051e-06 0 </DataArray> 
</PointData> 
<Points> 
<DataArray type="Float32" NumberOfComponents="3"> 