<?xml version="1.0"?> 
<VTKFile type="StructuredGrid" version="0.1"> 
<StructuredGrid WholeExtent="0 31 0 31 0 0"> 
<Piece Extent="0 31 0 31 0 0"> 
<PointData>
<DataArray type="Float32" Name="|E|" format="ascii" NumberOfComponents="3"> 
-2.02456e+06 0 0 -2.02462e+06 5253.06 0 -2.0248e+06 10507.2 0 -2.0251e+06 15763 0 -2.02551e+06 21021.5 0 -2.02604e+06 26283.3 0 -2.02669e+06 31549.1 0 -2.02746e+06 36819.9 0 -2.02834e+06 42096.3 0 -2.02935e+06 47379.2 0 -2.03047e+06 52669.3 0 -2.03171e+06 57967.5 0 -2.03307e+06 63274.5 0 -2.03454e+06 68591.2 0 -2.03614e+06 73918.4 0 -2.03786e+06 79256.9 0 -2.03969e+06 84607.5 0 -2.04164e+06 89971.1 0 -2.04371e+06 95348.4 0 -2.04591e+06 100740 0 -2.04822e+06 106148 0 -2.05065e+06 111571 0 -2.0532e+06 117012 0 -2.05588e+06 122471 0 -2.05867e+06 127949 0 -2.06159e+06 133446 0 -2.06463e+06 138965 0 -2.06779e+06 144505 0 -2.07107e+06 150068 0 -2.07447e+06 155654 0 -2.078e+06 161267 0 -2.08165e+06 166910 0 -2.01992e+06 0 0 -2.01999e+06 5723.41 0 -2.02019e+06 11448.1 0 -2.02052e+06 17174.9 0 -2.02099e+06 22904.9 0 -2.0216e+06 28638.9 0 -2.02233e+06 34378 0 -2.02321e+06 40123.1 0 -2.02421e+06 45875.1 0 -2.02535e+06 51635 0 -2.02662e+06 57403.9 0 -2.02803e+06 63182.7 0 -2.02957e+06 68972.4 0 -2.03125e+06 74774 0 -2.03306e+06 80588.5 0 -2.03501e+06 86416.8 0 -2.03709e+06 92260.1 0 -2.03931e+06 98119.3 0 -2.04167e+06 103996 0 -2.04416e+06 109890 0 -2.04678e+06 115803 0 -2.04955e+06 121736 0 -2.05245e+06 127691 0 -2.05548e+06 133668 0 -2.05866e+06 139669 0 -2.06197e+06 145694 0 -2.06543e+06 151745 0 -2.06902e+06 157823 0 -2.07275e+06 163929 0 -2.07662e+06 170065 0 -2.08063e+06 176231 0 -2.08478e+06 182428 0 -2.01518e+06 0 0 -2.01526e+06 6207.09 0 -2.01549e+06 12415.7 0 -2.01587e+06 18626.9 0 -2.0164e+06 24841.9 0 -2.01707e+06 31061.9 0 -2.0179e+06 37287.9 0 -2.01889e+06 43521.3 0 -2.02002e+06 49763.1 0 -2.0213e+06 56014.6 0 -2.02273e+06 62276.9 0 -2.02432e+06 68551.3 0 -2.02606e+06 74838.9 0 -2.02794e+06 81141 0 -2.02998e+06 87458.9 0 -2.03218e+06 93793.7 0 -2.03452e+06 100147 0 -2.03702e+06 106519 0 -2.03967e+06 112912 0 -2.04248e+06 119327 0 -2.04544e+06 125766 0 -2.04855e+06 132229 0 -2.05182e+06 138718 0 -2.05524e+06 145235 0 -2.05882e+06 151780 0 -2.06255e+06 158356 0 -2.06645e+06 164964 0 -2.07049e+06 171604 0 -2.0747e+06 178280 0 -2.07907e+06 184991 0 -2.08359e+06 191740 0 -2.08827e+06 198529 0 -2.01036e+06 0 0 -2.01045e+06 6704.03 0 -2.0107e+06 13409.8 0 -2.01112e+06 20118.8 0 -2.01171e+06 26832.3 0 -2.01247e+06 33551.7 0 -2.0134e+06 40278.5 0 -2.0145e+06 47014.1 0 -2.01576e+06 53759.8 0 -2.01719e+06 60517.2 0 -2.0188e+06 67287.6 0 -2.02057e+06 74072.6 0 -2.02251e+06 80873.5 0 -2.02462e+06 87691.9 0 -2.0269e+06 94529.3 0 -2.02935e+06 101387 0 -2.03197e+06 108267 0 -2.03477e+06 115170 0 -2.03773e+06 122098 0 -2.04087e+06 129053 0 -2.04418e+06 136037 0 -2.04766e+06 143050 0 -2.05131e+06 150095 0 -2.05514e+06 157173 0 -2.05915e+06 164286 0 -2.06332e+06 171436 0 -2.06768e+06 178625 0 -2.07221e+06 185853 0 -2.07691e+06 193125 0 -2.0818e+06 200440 0 -2.08686e+06 207801 0 -2.09211e+06 215212 0 -2.00545e+06 0 0 -2.00554e+06 7214.08 0 -2.00583e+06 14430.2 0 -2.0063e+06 21650.1 0 -2.00695e+06 28875.4 0 -2.00779e+06 36107.8 0 -2.00882e+06 43348.9 0 -2.01004e+06 50600.5 0 -2.01144e+06 57864.2 0 -2.01304e+06 65141.8 0 -2.01481e+06 72435 0 -2.01678e+06 79745.5 0 -2.01894e+06 87075.1 0 -2.02128e+06 94425.6 0 -2.02381e+06 101799 0 -2.02653e+06 109196 0 -2.02945e+06 116620 0 -2.03255e+06 124072 0 -2.03584e+06 131554 0 -2.03932e+06 139068 0 -2.043e+06 146617 0 -2.04687e+06 154201 0 -2.05093e+06 161823 0 -2.05518e+06 169485 0 -2.05963e+06 177189 0 -2.06427e+06 184937 0 -2.06911e+06 192733 0 -2.07415e+06 200576 0 -2.07938e+06 208471 0 -2.08481e+06 216420 0 -2.09044e+06 224424 0 -2.09627e+06 232488 0 -2.00045e+06 0 0 -2.00055e+06 7737.1 0 -2.00087e+06 15476.6 0 -2.00138e+06 23220.5 0 -2.00211e+06 30970.8 0 -2.00304e+06 38729.5 0 -2.00417e+06 46498.4 0 -2.00552e+06 54279.8 0 -2.00707e+06 62075.4 0 -2.00882e+06 69887.5 0 -2.01078e+06 77718.1 0 -2.01296e+06 85569.1 0 -2.01533e+06 93442.7 0 -2.01792e+06 101341 0 -2.02072e+06 109266 0 -2.02372e+06 117221 0 -2.02694e+06 125206 0 -2.03036e+06 133225 0 -2.034e+06 141280 0 -2.03784e+06 149372 0 -2.0419e+06 157506 0 -2.04617e+06 165682 0 -2.05066e+06 173903 0 -2.05536e+06 182172 0 -2.06027e+06 190491 0 -2.0654e+06 198864 0 -2.07075e+06 207292 0 -2.07631e+06 215779 0 -2.08209e+06 224327 0 -2.0881e+06 232939 0 -2.09432e+06 241618 0 -2.10077e+06 250369 0 -1.99536e+06 0 0 -1.99548e+06 8272.95 0 -1.99582e+06 16548.7 0 -1.99639e+06 24829.6 0 -1.99718e+06 33118 0 -1.9982e+06 41416.1 0 -1.99945e+06 49726.3 0 -2.00092e+06 58051 0 -2.00262e+06 66392.6 0 -2.00455e+06 74753.4 0 -2.00671e+06 83135.8 0 -2.00909e+06 91542.3 0 -2.0117e+06 99975.4 0 -2.01454e+06 108438 0 -2.01761e+06 116931 0 -2.02091e+06 125459 0 -2.02444e+06 134024 0 -2.0282e+06 142628 0 -2.0322e+06 151274 0 -2.03642e+06 159966 0 -2.04088e+06 168705 0 -2.04557e+06 177494 0 -2.0505e+06 186338 0 -2.05566e+06 195237 0 -2.06106e+06 204197 0 -2.0667e+06 213219 0 -2.07257e+06 222308 0 -2.07869e+06 231466 0 -2.08504e+06 240697 0 -2.09164e+06 250005 0 -2.09848e+06 259393 0 -2.10557e+06 268866 0 -1.99019e+06 0 0 -1.99031e+06 8821.51 0 -1.99069e+06 17646.3 0 -1.99131e+06 26477 0 -1.99218e+06 35316.3 0 -1.99329e+06 44167 0 -1.99465e+06 53031.8 0 -1.99626e+06 61913.4 0 -1.99812e+06 70814.7 0 -2.00023e+06 79738.3 0 -2.00258e+06 88687.2 0 -2.00519e+06 97664.2 0 -2.00804e+06 106672 0 -2.01114e+06 115714 0 -2.0145e+06 124793 0 -2.0181e+06 133912 0 -2.02196e+06 143073 0 -2.02607e+06 152281 0 -2.03043e+06 161539 0 -2.03505e+06 170849 0 -2.03992e+06 180214 0 -2.04505e+06 189640 0 -2.05044e+06 199128 0 -2.05608e+06 208683 0 -2.06199e+06 218309 0 -2.06815e+06 228008 0 -2.07457e+06 237785 0 -2.08126e+06 247645 0 -2.08821e+06 257591 0 -2.09543e+06 267628 0 -2.10291e+06 277759 0 -2.11067e+06 287992 0 -1.98492e+06 0 0 -1.98506e+06 9382.61 0 -1.98547e+06 18769 0 -1.98614e+06 28162.1 0 -1.98709e+06 37565.3 0 -1.9883e+06 46981.5 0 -1.98978e+06 56414.1 0 -1.99153e+06 65866.1 0 -1.99355e+06 75340.8 0 -1.99585e+06 84841.4 0 -1.99841e+06 94371.2 0 -2.00124e+06 103934 0 -2.00434e+06 113532 0 -2.00772e+06 123169 0 -2.01137e+06 132850 0 -2.01529e+06 142577 0 -2.01949e+06 152353 0 -2.02396e+06 162184 0 -2.02871e+06 172072 0 -2.03373e+06 182021 0 -2.03903e+06 192035 0 -2.04462e+06 202119 0 -2.05048e+06 212277 0 -2.05662e+06 222512 0 -2.06304e+06 232829 0 -2.06975e+06 243233 0 -2.07675e+06 253729 0 -2.08403e+06 264321 0 -2.0916e+06 275015 0 -2.09945e+06 285815 0 -2.1076e+06 296727 0 -2.11605e+06 307759 0 -1.97958e+06 0 0 -1.97973e+06 9956.14 0 -1.98017e+06 19916.5 0 -1.9809e+06 29884.7 0 -1.98192e+06 39864.3 0 -1.98324e+06 49859 0 -1.98484e+06 59872.4 0 -1.98674e+06 69908.1 0 -1.98893e+06 79969.9 0 -1.99141e+06 90061.5 0 -1.99418e+06 100187 0 -1.99725e+06 110349 0 -2.00061e+06 120553 0 -2.00427e+06 130803 0 -2.00823e+06 141102 0 -2.01248e+06 151454 0 -2.01702e+06 161864 0 -2.02187e+06 172336 0 -2.02701e+06 182874 0 -2.03246e+06 193483 0 -2.0382e+06 204168 0 -2.04425e+06 214934 0 -2.05061e+06 225784 0 -2.05726e+06 236725 0 -2.06423e+06 247762 0 -2.0715e+06 258900 0 -2.07908e+06 270144 0 -2.08698e+06 281501 0 -2.09518e+06 292977 0 -2.1037e+06 304577 0 -2.11254e+06 316309 0 -2.1217e+06 328180 0 -1.97415e+06 0 0 -1.97431e+06 10541.9 0 -1.97478e+06 21088.7 0 -1.97557e+06 31644.3 0 -1.97667e+06 42213 0 -1.97809e+06 52798.8 0 -1.97982e+06 63406 0 -1.98187e+06 74038.7 0 -1.98423e+06 84701.2 0 -1.98691e+06 95397.8 0 -1.98991e+06 106133 0 -1.99322e+06 116911 0 -1.99685e+06 127736 0 -2.0008e+06 138613 0 -2.00506e+06 149547 0 -2.00965e+06 160542 0 -2.01456e+06 171603 0 -2.01979e+06 182736 0 -2.02535e+06 193945 0 -2.03122e+06 205236 0 -2.03743e+06 216614 0 -2.04396e+06 228084 0 -2.05082e+06 239653 0 -2.05801e+06 251326 0 -2.06553e+06 263110 0 -2.07338e+06 275011 0 -2.08157e+06 287036 0 -2.09009e+06 299191 0 -2.09896e+06 311485 0 -2.10816e+06 323923 0 -2.11771e+06 336515 0 -2.1276e+06 349270 0 -1.96863e+06 0 0 -1.9688e+06 11139.8 0 -1.96931e+06 22285.1 0 -1.97016e+06 33440.4 0 -1.97135e+06 44610.6 0 -1.97287e+06 55800.1 0 -1.97474e+06 67014 0 -1.97694e+06 78256.8 0 -1.97948e+06 89533.5 0 -1.98236e+06 100849 0 -1.98558e+06 112208 0 -1.98914e+06 123616 0 -1.99305e+06 135078 0 -1.9973e+06 146599 0 -2.00189e+06 158185 0 -2.00682e+06 169841 0 -2.0121e+06 181572 0 -2.01773e+06 193385 0 -2.0237e+06 205285 0 -2.03003e+06 217278 0 -2.0367e+06 229372 0 -2.04373e+06 241572 0 -2.05111e+06 253884 0 -2.05884e+06 266317 0 -2.06694e+06 278877 0 -2.07539e+06 291572 0 -2.0842e+06 304410 0 -2.09337e+06 317398 0 -2.10291e+06 330546 0 -2.11281e+06 343863 0 -2.12309e+06 357358 0 -2.13373e+06 371042 0 -1.96303e+06 0 0 -1.96321e+06 11749.7 0 -1.96376e+06 23505.5 0 -1.96467e+06 35272.7 0 -1.96594e+06 47056.6 0 -1.96758e+06 58862.4 0 -1.96958e+06 70695.6 0 -1.97194e+06 82561.7 0 -1.97466e+06 94466 0 -1.97775e+06 106414 0 -1.9812e+06 118412 0 -1.98502e+06 130465 0 -1.98921e+06 142579 0 -1.99376e+06 154760 0 -1.99869e+06 167015 0 -2.00398e+06 179348 0 -2.00964e+06 191768 0 -2.01567e+06 204281 0 -2.02208e+06 216893 0 -2.02886e+06 229611 0 -2.03602e+06 242443 0 -2.04356e+06 255397 0 -2.05147e+06 268480 0 -2.05977e+06 281700 0 -2.06844e+06 295066 0 -2.07751e+06 308586 0 -2.08696e+06 322270 0 -2.09679e+06 336129 0 -2.10702e+06 350170 0 -2.11765e+06 364407 0 -2.12866e+06 378849 0 -2.14008e+06 393510 0 -1.95734e+06 0 0 -1.95754e+06 12371.4 0 -1.95813e+06 24749.7 0 -1.9591e+06 37140.7 0 -1.96046e+06 49550.4 0 -1.96221e+06 61984.9 0 -1.96434e+06 74450.1 0 -1.96687e+06 86952.3 0 -1.96978e+06 99497.5 0 -1.97308e+06 112092 0 -1.97677e+06 124743 0 -1.98086e+06 137455 0 -1.98533e+06 150237 0 -1.9902e+06 163095 0 -1.99546e+06 176035 0 -2.00112e+06 189065 0 -2.00717e+06 202192 0 -2.01362e+06 215424 0 -2.02047e+06 228769 0 -2.02772e+06 242234 0 -2.03538e+06 255829 0 -2.04343e+06 269561 0 -2.05189e+06 283441 0 -2.06076e+06 297477 0 -2.07004e+06 311679 0 -2.07973e+06 326057 0 -2.08983e+06 340624 0 -2.10035e+06 355389 0 -2.11128e+06 370365 0 -2.12264e+06 385565 0 -2.13442e+06 401001 0 -2.14662e+06 416690 0 -1.95158e+06 0 0 -1.95179e+06 13004.9 0 -1.95241e+06 26017.3 0 -1.95345e+06 39044 0 -1.9549e+06 52091.6 0 -1.95676e+06 65166.9 0 -1.95904e+06 78276.6 0 -1.96173e+06 91427.7 0 -1.96483e+06 104627 0 -1.96835e+06 117882 0 -1.97229e+06 131199 0 -1.97664e+06 144587 0 -1.98141e+06 158051 0 -1.9866e+06 171601 0 -1.99221e+06 185244 0 -1.99824e+06 198988 0 -2.0047e+06 212842 0 -2.01158e+06 226813 0 -2.01888e+06 240912 0 -2.02661e+06 255147 0 -2.03477e+06 269528 0 -2.04335e+06 284065 0 -2.05237e+06 298769 0 -2.06183e+06 313650 0 -2.07172e+06 328719 0 -2.08205e+06 343990 0 -2.09281e+06 359474 0 -2.10402e+06 375186 0 -2.11568e+06 391138 0 -2.12778e+06 407346 0 -2.14033e+06 423826 0 -2.15333e+06 440597 0 -1.94573e+06 0 0 -1.94595e+06 13649.8 0 -1.94662e+06 27308 0 -1.94772e+06 40982.1 0 -1.94926e+06 54679.4 0 -1.95124e+06 68407.7 0 -1.95366e+06 82174.3 0 -1.95652e+06 95987.1 0 -1.95982e+06 109854 0 -1.96357e+06 123782 0 -1.96775e+06 137781 0 -1.97238e+06 151858 0 -1.97745e+06 166021 0 -1.98297e+06 180279 0 -1.98894e+06 194642 0 -1.99535e+06 209118 0 -2.00221e+06 223717 0 -2.00953e+06 238448 0 -2.01729e+06 253323 0 -2.02551e+06 268350 0 -2.03418e+06 283542 0 -2.04331e+06 298910 0 -2.0529e+06 314465 0 -2.06295e+06 330221 0 -2.07346e+06 346191 0 -2.08444e+06 362388 0 -2.09589e+06 378828 0 -2.1078e+06 395525 0 -2.12018e+06 412498 0 -2.13304e+06 429762 0 -2.14637e+06 447337 0 -2.16018e+06 465246 0 -1.93979e+06 0 0 -1.94003e+06 14306.1 0 -1.94074e+06 28621.6 0 -1.94191e+06 42954.6 0 -1.94354e+06 57313.4 0 -1.94565e+06 71706.6 0 -1.94821e+06 86142.4 0 -1.95125e+06 100629 0 -1.95475e+06 115177 0 -1.95872e+06 129792 0 -1.96316e+06 144486 0 -1.96807e+06 159267 0 -1.97345e+06 174144 0 -1.97931e+06 189127 0 -1.98563e+06 204227 0 -1.99244e+06 219453 0 -1.99971e+06 234817 0 -2.00747e+06 250328 0 -2.0157e+06 266000 0 -2.02442e+06 281843 0 -2.03362e+06 297870 0 -2.0433e+06 314095 0 -2.05347e+06 330531 0 -2.06413e+06 347193 0 -2.07527e+06 364095 0 -2.08691e+06 381255 0 -2.09904e+06 398689 0 -2.11166e+06 416415 0 -2.12479e+06 434453 0 -2.13841e+06 452823 0 -2.15253e+06 471547 0 -2.16716e+06 490652 0 -1.93378e+06 0 0 -1.93403e+06 14973.7 0 -1.93478e+06 29957.7 0 -1.93602e+06 44961 0 -1.93775e+06 59993 0 -1.93997e+06 75062.8 0 -1.94269e+06 90179.9 0 -1.9459e+06 105354 0 -1.94961e+06 120594 0 -1.95381e+06 135911 0 -1.95851e+06 151314 0 -1.96371e+06 166813 0 -1.96941e+06 182420 0 -1.9756e+06 198144 0 -1.9823e+06 213998 0 -1.98949e+06 229992 0 -1.9972e+06 246139 0 -2.0054e+06 262452 0 -2.01412e+06 278942 0 -2.02334e+06 295625 0 -2.03307e+06 312513 0 -2.04331e+06 329622 0 -2.05407e+06 346968 0 -2.06534e+06 364567 0 -2.07712e+06 382436 0 -2.08943e+06 400595 0 -2.10225e+06 419062 0 -2.1156e+06 437860 0 -2.12947e+06 457011 0 -2.14386e+06 476538 0 -2.15877e+06 496469 0 -2.17421e+06 516832 0 -1.92769e+06 0 0 -1.92796e+06 15652.4 0 -1.92874e+06 31316 0 -1.93005e+06 47001 0 -1.93188e+06 62717.5 0 -1.93423e+06 78475.8 0 -1.9371e+06 94286.2 0 -1.94049e+06 110159 0 -1.94441e+06 126106 0 -1.94885e+06 142136 0 -1.95381e+06 158262 0 -1.9593e+06 174495 0 -1.96531e+06 190846 0 -1.97185e+06 207328 0 -1.97893e+06 223953 0 -1.98653e+06 240734 0 -1.99466e+06 257685 0 -2.00332e+06 274818 0 -2.01252e+06 292150 0 -2.02226e+06 309695 0 -2.03253e+06 327470 0 -2.04334e+06 345491 0 -2.05469e+06 363776 0 -2.06658e+06 382344 0 -2.07901e+06 401215 0 -2.09199e+06 420410 0 -2.10552e+06 439953 0 -2.11958e+06 459867 0 -2.1342e+06 480180 0 -2.14936e+06 500918 0 -2.16507e+06 522114 0 -2.18133e+06 543801 0 -1.92151e+06 0 0 -1.9218e+06 16342 0 -1.92263e+06 32696.3 0 -1.92401e+06 49074 0 -1.92593e+06 65486.4 0 -1.92841e+06 81944.6 0 -1.93144e+06 98460.3 0 -1.93501e+06 115045 0 -1.93914e+06 131710 0 -1.94382e+06 148468 0 -1.94905e+06 165331 0 -1.95483e+06 182312 0 -1.96117e+06 199423 0 -1.96807e+06 216678 0 -1.97552e+06 234092 0 -1.98353e+06 251677 0 -1.9921e+06 269451 0 -2.00123e+06 287427 0 -2.01092e+06 305622 0 -2.02117e+06 324054 0 -2.03199e+06 342741 0 -2.04337e+06 361701 0 -2.05532e+06 380956 0 -2.06784e+06 400526 0 -2.08093e+06 420434 0 -2.09458e+06 440705 0 -2.10881e+06 461365 0 -2.1236e+06 482442 0 -2.13896e+06 503967 0 -2.1549e+06 525972 0 -2.17139e+06 548494 0 -2.18846e+06 571574 0 -1.91526e+06 0 0 -1.91556e+06 17042.4 0 -1.91643e+06 34098.2 0 -1.91788e+06 51179.6 0 -1.91991e+06 68299 0 -1.92252e+06 85468.8 0 -1.9257e+06 102701 0 -1.92946e+06 120009 0 -1.93381e+06 137406 0 -1.93873e+06 154904 0 -1.94423e+06 172518 0 -1.95032e+06 190261 0 -1.95698e+06 208148 0 -1.96424e+06 226193 0 -1.97207e+06 244412 0 -1.9805e+06 262821 0 -1.98951e+06 281436 0 -1.99911e+06 300276 0 -2.0093e+06 319357 0 -2.02007e+06 338700 0 -2.03145e+06 358325 0 -2.04341e+06 378254 0 -2.05596e+06 398508 0 -2.06911e+06 419114 0 -2.08285e+06 440095 0 -2.09719e+06 461481 0 -2.11211e+06 483302 0 -2.12763e+06 505589 0 -2.14374e+06 528379 0 -2.16043e+06 551709 0 -2.17771e+06 575622 0 -2.19556e+06 600164 0 -1.90893e+06 0 0 -1.90924e+06 17753.4 0 -1.91016e+06 35521.4 0 -1.91169e+06 53317.5 0 -1.91382e+06 71154.9 0 -1.91655e+06 89047.4 0 -1.9199e+06 107008 0 -1.92385e+06 125052 0 -1.92841e+06 143193 0 -1.93358e+06 161445 0 -1.93936e+06 179823 0 -1.94574e+06 198343 0 -1.95275e+06 217020 0 -1.96036e+06 235871 0 -1.96859e+06 254913 0 -1.97743e+06 274163 0 -1.98689e+06 293640 0 -1.99696e+06 313364 0 -2.00765e+06 333354 0 -2.01896e+06 353633 0 -2.03089e+06 374223 0 -2.04343e+06 395148 0 -2.0566e+06 416434 0 -2.07038e+06 438108 0 -2.08477e+06 460200 0 -2.09979e+06 482741 0 -2.11541e+06 505767 0 -2.13165e+06 529314 0 -2.14849e+06 553423 0 -2.16594e+06 578137 0 -2.18397e+06 603507 0 -2.2026e+06 629586 0 -1.90252e+06 0 0 -1.90285e+06 18474.9 0 -1.90381e+06 36965.7 0 -1.90541e+06 55487.1 0 -1.90764e+06 74053.5 0 -1.91051e+06 92679.7 0 -1.91402e+06 111381 0 -1.91816e+06 130172 0 -1.92294e+06 149069 0 -1.92836e+06 168087 0 -1.93442e+06 187244 0 -1.94112e+06 206554 0 -1.94846e+06 226037 0 -1.95644e+06 245710 0 -1.96506e+06 265592 0 -1.97432e+06 285702 0 -1.98423e+06 306061 0 -1.99479e+06 326690 0 -2.00598e+06 347612 0 -2.01782e+06 368851 0 -2.03031e+06 390432 0 -2.04344e+06 412383 0 -2.05721e+06 434731 0 -2.07163e+06 457509 0 -2.08668e+06 480749 0 -2.10237e+06 504487 0 -2.11869e+06 528763 0 -2.13563e+06 553619 0 -2.1532e+06 579102 0 -2.17138e+06 605263 0 -2.19015e+06 632158 0 -2.20952e+06 659850 0 -1.89604e+06 0 0 -1.89638e+06 19206.8 0 -1.89739e+06 38430.8 0 -1.89906e+06 57687.9 0 -1.9014e+06 76994 0 -1.9044e+06 96365.2 0 -1.90807e+06 115818 0 -1.91241e+06 135368 0 -1.91741e+06 155034 0 -1.92308e+06 174831 0 -1.92943e+06 194779 0 -1.93644e+06 214895 0 -1.94411e+06 235199 0 -1.95246e+06 255710 0 -1.96149e+06 276449 0 -1.97118e+06 297437 0 -1.98154e+06 318697 0 -1.99258e+06 340253 0 -2.00428e+06 362129 0 -2.01666e+06 384353 0 -2.02971e+06 406952 0 -2.04342e+06 429957 0 -2.0578e+06 453400 0 -2.07285e+06 477316 0 -2.08855e+06 501742 0 -2.10491e+06 526720 0 -2.12191e+06 552292 0 -2.13955e+06 578509 0 -2.15783e+06 605423 0 -2.17671e+06 633092 0 -2.1962e+06 661583 0 -2.21627e+06 690967 0 -1.88947e+06 0 0 -1.88983e+06 19948.8 0 -1.89088e+06 39916.3 0 -1.89263e+06 59919.6 0 -1.89508e+06 79976 0 -1.89822e+06 100103 0 -1.90205e+06 120318 0 -1.90659e+06 140639 0 -1.91182e+06 161086 0 -1.91774e+06 181675 0 -1.92437e+06 202428 0 -1.93169e+06 223364 0 -1.93972e+06 244503 0 -1.94844e+06 265868 0 -1.95786e+06 287481 0 -1.96799e+06 309366 0 -1.97881e+06 331547 0 -1.99033e+06 354050 0 -2.00254e+06 376904 0 -2.01546e+06 400138 0 -2.02907e+06 423782 0 -2.04337e+06 447871 0 -2.05835e+06 472441 0 -2.07403e+06 497530 0 -2.09037e+06 523180 0 -2.10739e+06 549439 0 -2.12506e+06 576355 0 -2.14339e+06 603983 0 -2.16234e+06 632386 0 -2.18191e+06 661628 0 -2.20207e+06 691787 0 -2.22278e+06 722943 0 -1.88283e+06 0 0 -1.88321e+06 20700.9 0 -1.88431e+06 41422 0 -1.88613e+06 62181.7 0 -1.88868e+06 82998.8 0 -1.89196e+06 103892 0 -1.89597e+06 124881 0 -1.9007e+06 145985 0 -1.90615e+06 167224 0 -1.91234e+06 188618 0 -1.91925e+06 210189 0 -1.9269e+06 231958 0 -1.93527e+06 253948 0 -1.94437e+06 276183 0 -1.95419e+06 298687 0 -1.96475e+06 321486 0 -1.97603e+06 344608 0 -1.98803e+06 368081 0 -2.00076e+06 391935 0 -2.01422e+06 416203 0 -2.02839e+06 440919 0 -2.04327e+06 466122 0 -2.05886e+06 491850 0 -2.07515e+06 518148 0 -2.09213e+06 545062 0 -2.10979e+06 572644 0 -2.12812e+06 600951 0 -2.1471e+06 630044 0 -2.16671e+06 659992 0 -2.18692e+06 690872 0 -2.2077e+06 722771 0 -2.229e+06 755779 0 -1.87612e+06 0 0 -1.87651e+06 21462.9 0 -1.87765e+06 42947.5 0 -1.87956e+06 64473.8 0 -1.88222e+06 86061.9 0 -1.88563e+06 107732 0 -1.88981e+06 129506 0 -1.89474e+06 151403 0 -1.90043e+06 173447 0 -1.90687e+06 195658 0 -1.91408e+06 218060 0 -1.92204e+06 240677 0 -1.93076e+06 263533 0 -1.94024e+06 286653 0 -1.95047e+06 310065 0 -1.96146e+06 333798 0 -1.9732e+06 357879 0 -1.98569e+06 382342 0 -1.99894e+06 407219 0 -2.01293e+06 432547 0 -2.02765e+06 458362 0 -2.04311e+06 484708 0 -2.0593e+06 511627 0 -2.0762e+06 539169 0 -2.09381e+06 567385 0 -2.1121e+06 596334 0 -2.13106e+06 626078 0 -2.15067e+06 656688 0 -2.17089e+06 688241 0 -2.1917e+06 720823 0 -2.21304e+06 754534 0 -2.23485e+06 789474 0 -1.86933e+06 0 0 -1.86973e+06 22234.7 0 -1.87093e+06 44492.6 0 -1.87291e+06 66795.4 0 -1.87568e+06 89164.7 0 -1.87923e+06 111623 0 -1.88358e+06 134191 0 -1.88871e+06 156894 0 -1.89463e+06 179754 0 -1.90134e+06 202794 0 -1.90884e+06 226041 0 -1.91712e+06 249519 0 -1.92619e+06 273255 0 -1.93605e+06 297277 0 -1.94669e+06 321614 0 -1.95812e+06 346297 0 -1.97032e+06 371358 0 -1.9833e+06 396832 0 -1.99706e+06 422755 0 -2.01158e+06 449167 0 -2.02686e+06 476109 0 -2.04289e+06 503626 0 -2.05967e+06 531769 0 -2.07717e+06 560590 0 -2.09538e+06 590147 0 -2.11429e+06 620505 0 -2.13385e+06 651734 0 -2.15405e+06 683912 0 -2.17485e+06 717127 0 -2.19619e+06 751475 0 -2.21801e+06 787070 0 -2.24025e+06 824019 0 -1.86247e+06 0 0 -1.86289e+06 23016 0 -1.86413e+06 46056.9 0 -1.86619e+06 69146 0 -1.86907e+06 92306.6 0 -1.87276e+06 115562 0 -1.87728e+06 138937 0 -1.88262e+06 162456 0 -1.88877e+06 186143 0 -1.89574e+06 210026 0 -1.90354e+06 234129 0 -1.91214e+06 258482 0 -1.92157e+06 283113 0 -1.93181e+06 308052 0 -1.94286e+06 333331 0 -1.95472e+06 358983 0 -1.96739e+06 385043 0 -1.98085e+06 411549 0 -1.99512e+06 438540 0 -2.01017e+06 466061 0 -2.026e+06 494156 0 -2.0426e+06 522875 0 -2.05995e+06 552272 0 -2.07804e+06 582407 0 -2.09684e+06 613343 0 -2.11633e+06 645152 0 -2.13647e+06 677912 0 -2.15722e+06 711710 0 -2.17853e+06 746643 0 -2.20034e+06 782819 0 -2.22257e+06 820364 0 -2.24511e+06 859395 0 -1.85553e+06 0 0 -1.85597e+06 23806.8 0 -1.85725e+06 47640.3 0 -1.85939e+06 71525.3 0 -1.86238e+06 95486.9 0 -1.86622e+06 119551 0 -1.87091e+06 143742 0 -1.87645e+06 168088 0 -1.88284e+06 192615 0 -1.89008e+06 217350 0 -1.89817e+06 242324 0 -1.9071e+06 267565 0 -1.91688e+06 293106 0 -1.9275e+06 318977 0 -1.93896e+06 345214 0 -1.95126e+06 371852 0 -1.96439e+06 398931 0 -1.97834e+06 426489 0 -1.99312e+06 454572 0 -2.00869e+06 483226 0 -2.02507e+06 512500 0 -2.04222e+06 542449 0 -2.06014e+06 573133 0 -2.07879e+06 604617 0 -2.09816e+06 636970 0 -2.1182e+06 670271 0 -2.13887e+06 704607 0 -2.16013e+06 740074 0 -2.18189e+06 776779 0 -2.20409e+06 814840 0 -2.22662e+06 854398 0 -2.24934e+06 895578 0 -1.84852e+06 0 0 -1.84897e+06 24606.9 0 -1.85031e+06 49242.2 0 -1.85253e+06 73932.7 0 -1.85563e+06 98705.2 0 -1.85961e+06 123587 0 -1.86448e+06 148605 0 -1.87022e+06 173789 0 -1.87685e+06 199166 0 -1.88436e+06 224768 0 -1.89274e+06 250624 0 -1.902e+06 276767 0 -1.91213e+06 303231 0 -1.92314e+06 330050 0 -1.93501e+06 357261 0 -1.94774e+06 384904 0 -1.96133e+06 413019 0 -1.97577e+06 441651 0 -1.99104e+06 470847 0 -2.00714e+06 500658 0 -2.02405e+06 531138 0 -2.04175e+06 562346 0 -2.06021e+06 594347 0 -2.07941e+06 627212 0 -2.09932e+06 661019 0 -2.11988e+06 695852 0 -2.14104e+06 731807 0 -2.16274e+06 768989 0 -2.18489e+06 807514 0 -2.20738e+06 847514 0 -2.23009e+06 889139 0 -2.25283e+06 932525 0 -1.84143e+06 0 0 -1.8419e+06 25416.1 0 -1.84329e+06 50862.6 0 -1.84559e+06 76368 0 -1.8488e+06 101961 0 -1.85293e+06 127670 0 -1.85797e+06 153526 0 -1.86392e+06 179558 0 -1.87079e+06 205797 0 -1.87856e+06 232276 0 -1.88724e+06 259027 0 -1.89683e+06 286085 0 -1.90732e+06 313487 0 -1.91871e+06 341268 0 -1.93099e+06 369470 0 -1.94416e+06 398135 0 -1.95821e+06 427306 0 -1.97312e+06 457032 0 -1.98889e+06 487363 0 -2.0055e+06 518354 0 -2.02294e+06 550066 0 -2.04116e+06 582560 0 -2.06016e+06 615910 0 -2.07988e+06 650190 0 -2.10029e+06 685485 0 -2.12134e+06 721888 0 -2.14294e+06 759503 0 -2.16502e+06 798444 0 -2.18746e+06 838837 0 -2.21015e+06 880824 0 -2.23289e+06 924559 0 -2.2555e+06 970198 0 </DataArray> 
</PointData> 
<Points> 
<DataArray type="Float32" NumberOfComponents="3"> 