<?xml version="1.0"?> 
<VTKFile type="StructuredGrid" version="0.1"> 
<StructuredGrid WholeExtent="0 31 0 31 0 0"> 
<Piece Extent="0 31 0 31 0 0"> 
<PointData>
<DataArray type="Float32" Name="|E|" format="ascii" NumberOfComponents="3"> 
1.00001e+06 -415845 0 1.33228e+06 -304867 0 1.44366e+06 -285164 0 1.54644e+06 -247434 0 1.61867e+06 -208284 0 1.67765e+06 -167870 0 1.721e+06 -127838 0 1.75157e+06 -89317.8 0 1.76987e+06 -53092.2 0 1.77724e+06 -19838.8 0 1.77483e+06 10044 0 1.76394e+06 36335 0 1.74579e+06 59007.7 0 1.72159e+06 78171.5 0 1.69245e+06 94040.1 0 1.65935e+06 106890 0 1.62318e+06 117029 0 1.58469e+06 124775 0 1.54455e+06 130438 0 1.50329e+06 134308 0 1.46139e+06 136651 0 1.41924e+06 137705 0 1.37716e+06 137681 0 1.33541e+06 136763 0 1.29421e+06 135108 0 1.25373e+06 132854 0 1.21412e+06 130114 0 1.17548e+06 126989 0 1.1379e+06 123559 0 1.10145e+06 119894 0 1.06618e+06 116053 0 1.03212e+06 112079 0 1.0497e+06 -436510 0 1.33708e+06 -325257 0 1.45406e+06 -295465 0 1.55394e+06 -255120 0 1.62623e+06 -213802 0 1.68428e+06 -171713 0 1.72698e+06 -130227 0 1.75675e+06 -90407.2 0 1.77428e+06 -53038.7 0 1.78087e+06 -18787.8 0 1.77771e+06 11943.5 0 1.76611e+06 38943.3 0 1.74733e+06 62194.2 0 1.72257e+06 81819.7 0 1.69293e+06 98047.4 0 1.65941e+06 111168 0 1.62289e+06 121502 0 1.58412e+06 129381 0 1.54374e+06 135123 0 1.5023e+06 139028 0 1.46026e+06 141370 0 1.41801e+06 142393 0 1.37585e+06 142314 0 1.33406e+06 141321 0 1.29283e+06 139576 0 1.25234e+06 137218 0 1.21274e+06 134366 0 1.17412e+06 131120 0 1.13657e+06 127563 0 1.10015e+06 123768 0 1.06492e+06 119793 0 1.0309e+06 115684 0 1.09259e+06 -454346 0 1.34463e+06 -343636 0 1.46435e+06 -305611 0 1.56183e+06 -262600 0 1.63391e+06 -219171 0 1.69107e+06 -175414 0 1.73309e+06 -132477 0 1.76205e+06 -91360.8 0 1.77878e+06 -52854 0 1.78457e+06 -17614.1 0 1.78065e+06 13955.8 0 1.76834e+06 41652.5 0 1.7489e+06 65469.5 0 1.72356e+06 85544.3 0 1.69343e+06 102119 0 1.65949e+06 115500 0 1.62261e+06 126020 0 1.58354e+06 134022 0 1.54293e+06 139836 0 1.5013e+06 143770 0 1.45912e+06 146105 0 1.41677e+06 147093 0 1.37454e+06 146956 0 1.33269e+06 145885 0 1.29144e+06 144046 0 1.25095e+06 141583 0 1.21134e+06 138616 0 1.17274e+06 135248 0 1.13522e+06 131564 0 1.09883e+06 127637 0 1.06364e+06 123528 0 1.02966e+06 119284 0 1.13017e+06 -469970 0 1.35416e+06 -360344 0 1.47464e+06 -315533 0 1.57007e+06 -269875 0 1.64174e+06 -224387 0 1.69801e+06 -178970 0 1.73931e+06 -134585 0 1.76745e+06 -92176.5 0 1.78336e+06 -52536.6 0 1.78834e+06 -16316 0 1.78364e+06 16082 0 1.7706e+06 44463.6 0 1.75051e+06 68834.1 0 1.72459e+06 89345.9 0 1.69395e+06 106257 0 1.65957e+06 119886 0 1.62233e+06 130582 0 1.58297e+06 138699 0 1.54211e+06 144577 0 1.5003e+06 148533 0 1.45798e+06 150857 0 1.41551e+06 151805 0 1.37321e+06 151605 0 1.33132e+06 150453 0 1.29004e+06 148519 0 1.24953e+06 145949 0 1.20994e+06 142866 0 1.17135e+06 139374 0 1.13385e+06 135561 0 1.0975e+06 131502 0 1.06234e+06 127258 0 1.02841e+06 122878 0 1.16355e+06 -483853 0 1.3651e+06 -375623 0 1.48503e+06 -325191 0 1.5786e+06 -276944 0 1.6497e+06 -229445 0 1.70511e+06 -182379 0 1.74565e+06 -136548 0 1.77295e+06 -92852.1 0 1.78804e+06 -52084.6 0 1.79219e+06 -14892 0 1.78669e+06 18323.3 0 1.77291e+06 47377.8 0 1.75215e+06 72289 0 1.72564e+06 93225.2 0 1.69448e+06 110459 0 1.65966e+06 124327 0 1.62206e+06 135189 0 1.58239e+06 143412 0 1.5413e+06 149347 0 1.4993e+06 153319 0 1.45683e+06 155625 0 1.41425e+06 156529 0 1.37187e+06 156262 0 1.32993e+06 155026 0 1.28862e+06 152994 0 1.24811e+06 150315 0 1.20852e+06 147113 0 1.16995e+06 143497 0 1.13247e+06 139555 0 1.09615e+06 135363 0 1.06103e+06 130983 0 1.02714e+06 126467 0 1.19361e+06 -496354 0 1.37704e+06 -389681 0 1.49554e+06 -334558 0 1.5874e+06 -283805 0 1.65781e+06 -234341 0 1.71236e+06 -185638 0 1.75211e+06 -138364 0 1.77857e+06 -93385.6 0 1.7928e+06 -51496.2 0 1.7961e+06 -13340.6 0 1.7898e+06 20681.1 0 1.77527e+06 50395.9 0 1.75382e+06 75834.9 0 1.7267e+06 97182.6 0 1.69502e+06 114728 0 1.65976e+06 128822 0 1.62179e+06 139841 0 1.58182e+06 148161 0 1.54048e+06 154145 0 1.49828e+06 158127 0 1.45567e+06 160410 0 1.41298e+06 161265 0 1.37052e+06 160928 0 1.32853e+06 159604 0 1.28719e+06 157472 0 1.24667e+06 154681 0 1.20708e+06 151360 0 1.16853e+06 147617 0 1.13108e+06 143545 0 1.09479e+06 139219 0 1.05971e+06 134703 0 1.02586e+06 130050 0 1.22101e+06 -507747 0 1.3897e+06 -402689 0 1.50621e+06 -343619 0 1.59644e+06 -290459 0 1.66608e+06 -239073 0 1.71976e+06 -188744 0 1.75869e+06 -140033 0 1.78428e+06 -93775 0 1.79764e+06 -50769.7 0 1.80008e+06 -11660.2 0 1.79296e+06 23156.7 0 1.77766e+06 53518.9 0 1.75552e+06 79472.6 0 1.72779e+06 101219 0 1.69558e+06 119064 0 1.65987e+06 133373 0 1.62152e+06 144538 0 1.58124e+06 152947 0 1.53965e+06 158972 0 1.49726e+06 162957 0 1.4545e+06 165212 0 1.4117e+06 166013 0 1.36916e+06 165601 0 1.32712e+06 164188 0 1.28575e+06 161952 0 1.24522e+06 159047 0 1.20563e+06 155605 0 1.16709e+06 151735 0 1.12967e+06 147531 0 1.09341e+06 143071 0 1.05837e+06 138418 0 1.02456e+06 133628 0 1.24626e+06 -518249 0 1.40284e+06 -414788 0 1.51704e+06 -352369 0 1.60571e+06 -296903 0 1.67449e+06 -243639 0 1.72729e+06 -191696 0 1.76539e+06 -141550 0 1.7901e+06 -94018 0 1.80257e+06 -49903.3 0 1.80413e+06 -9849.27 0 1.79616e+06 25751.1 0 1.78009e+06 56747.9 0 1.75725e+06 83202.7 0 1.72889e+06 105334 0 1.69615e+06 123466 0 1.65998e+06 137979 0 1.62125e+06 149280 0 1.58066e+06 157769 0 1.53882e+06 163827 0 1.49624e+06 167809 0 1.45332e+06 170030 0 1.41041e+06 170772 0 1.36779e+06 170283 0 1.32569e+06 168776 0 1.28429e+06 166434 0 1.24375e+06 163414 0 1.20417e+06 159849 0 1.16564e+06 155851 0 1.12824e+06 151514 0 1.09202e+06 146918 0 1.05701e+06 142129 0 1.02325e+06 137200 0 1.26977e+06 -528024 0 1.41633e+06 -426098 0 1.52803e+06 -360806 0 1.61517e+06 -303137 0 1.68306e+06 -248036 0 1.73497e+06 -194492 0 1.7722e+06 -142915 0 1.79601e+06 -94112.6 0 1.80757e+06 -48894.9 0 1.80824e+06 -7906.15 0 1.79942e+06 28465.9 0 1.78255e+06 60083.9 0 1.759e+06 87026.1 0 1.73001e+06 109529 0 1.69672e+06 127935 0 1.6601e+06 142642 0 1.62098e+06 154068 0 1.58008e+06 162627 0 1.53798e+06 168712 0 1.4952e+06 172683 0 1.45212e+06 174864 0 1.4091e+06 175544 0 1.3664e+06 174973 0 1.32425e+06 173369 0 1.28282e+06 170919 0 1.24226e+06 167781 0 1.20269e+06 164091 0 1.16418e+06 159963 0 1.1268e+06 155493 0 1.09061e+06 150761 0 1.05564e+06 145834 0 1.02192e+06 140767 0 1.29185e+06 -537204 0 1.43005e+06 -436716 0 1.53919e+06 -368936 0 1.62483e+06 -309163 0 1.69177e+06 -252262 0 1.74279e+06 -197128 0 1.77914e+06 -144125 0 1.80203e+06 -94056.7 0 1.81266e+06 -47742.8 0 1.81241e+06 -5829.26 0 1.80272e+06 31302.1 0 1.78505e+06 63527.7 0 1.76077e+06 90943.4 0 1.73115e+06 113805 0 1.69731e+06 132472 0 1.66021e+06 147360 0 1.62071e+06 158901 0 1.57949e+06 167522 0 1.53714e+06 173625 0 1.49415e+06 177579 0 1.45092e+06 179716 0 1.40778e+06 180328 0 1.365e+06 179671 0 1.3228e+06 177968 0 1.28134e+06 175406 0 1.24077e+06 172149 0 1.20119e+06 168333 0 1.1627e+06 164074 0 1.12535e+06 159469 0 1.08919e+06 154600 0 1.05426e+06 149534 0 1.02057e+06 144329 0 1.31275e+06 -545894 0 1.44392e+06 -446727 0 1.5505e+06 -376762 0 1.63467e+06 -314980 0 1.70064e+06 -256317 0 1.75074e+06 -199604 0 1.78619e+06 -145178 0 1.80814e+06 -93848 0 1.81782e+06 -46445.1 0 1.81664e+06 -3616.99 0 1.80607e+06 34261.1 0 1.78758e+06 67080.4 0 1.76256e+06 94955.2 0 1.7323e+06 118161 0 1.6979e+06 137077 0 1.66033e+06 152134 0 1.62043e+06 163780 0 1.57889e+06 172454 0 1.53628e+06 178567 0 1.49309e+06 182498 0 1.44971e+06 184584 0 1.40645e+06 185124 0 1.36359e+06 184378 0 1.32133e+06 182571 0 1.27984e+06 179896 0 1.23925e+06 176516 0 1.19968e+06 172572 0 1.1612e+06 168181 0 1.12387e+06 163441 0 1.08775e+06 158434 0 1.05286e+06 153230 0 1.01921e+06 147885 0 1.33266e+06 -554176 0 1.45789e+06 -456200 0 1.56197e+06 -384294 0 1.64468e+06 -320590 0 1.70965e+06 -260199 0 1.75883e+06 -201917 0 1.79335e+06 -146072 0 1.81435e+06 -93484.3 0 1.82307e+06 -44999.7 0 1.82093e+06 -1267.72 0 1.80946e+06 37344.1 0 1.79014e+06 70742.9 0 1.76438e+06 99062.4 0 1.73345e+06 122599 0 1.69849e+06 141750 0 1.66045e+06 156964 0 1.62015e+06 168705 0 1.57829e+06 177422 0 1.53542e+06 183538 0 1.49202e+06 187439 0 1.44848e+06 189469 0 1.40511e+06 189932 0 1.36216e+06 189092 0 1.31985e+06 187179 0 1.27832e+06 184388 0 1.23773e+06 180885 0 1.19816e+06 176811 0 1.15969e+06 172286 0 1.12239e+06 167409 0 1.08629e+06 162264 0 1.05144e+06 156920 0 1.01784e+06 151436 0 1.35176e+06 -562118 0 1.47192e+06 -465195 0 1.57357e+06 -391540 0 1.65485e+06 -325994 0 1.71881e+06 -263906 0 1.76705e+06 -204064 0 1.80063e+06 -146804 0 1.82065e+06 -92963.4 0 1.82838e+06 -43404.7 0 1.82528e+06 1220.18 0 1.81289e+06 40552.4 0 1.79273e+06 74516 0 1.76621e+06 103265 0 1.73462e+06 127118 0 1.69909e+06 146491 0 1.66056e+06 161851 0 1.61987e+06 173676 0 1.57768e+06 182428 0 1.53455e+06 188538 0 1.49094e+06 192402 0 1.44724e+06 194370 0 1.40375e+06 194751 0 1.36072e+06 193815 0 1.31835e+06 191792 0 1.27679e+06 188882 0 1.23618e+06 185253 0 1.19661e+06 181048 0 1.15816e+06 176388 0 1.12088e+06 171373 0 1.08482e+06 166089 0 1.05e+06 160606 0 1.01645e+06 154981 0 1.37017e+06 -569775 0 1.48598e+06 -473764 0 1.58531e+06 -398508 0 1.66518e+06 -331194 0 1.72812e+06 -267439 0 1.77541e+06 -206045 0 1.80803e+06 -147372 0 1.82705e+06 -92283 0 1.83377e+06 -41658.1 0 1.82969e+06 3848.35 0 1.81636e+06 43887.3 0 1.79534e+06 78400.8 0 1.76805e+06 107565 0 1.73579e+06 131719 0 1.69968e+06 151301 0 1.66068e+06 166795 0 1.61958e+06 178693 0 1.57705e+06 187470 0 1.53366e+06 193568 0 1.48985e+06 197388 0 1.44599e+06 199288 0 1.40238e+06 199583 0 1.35927e+06 198546 0 1.31684e+06 196410 0 1.27525e+06 193379 0 1.23462e+06 189622 0 1.19506e+06 185284 0 1.15662e+06 180487 0 1.11937e+06 175334 0 1.08334e+06 169910 0 1.04856e+06 164286 0 1.01504e+06 158521 0 1.38801e+06 -577192 0 1.50008e+06 -481947 0 1.59717e+06 -405207 0 1.67566e+06 -336193 0 1.73757e+06 -270796 0 1.7839e+06 -207857 0 1.81554e+06 -147773 0 1.83354e+06 -91440.8 0 1.83923e+06 -39757.8 0 1.83414e+06 6618.44 0 1.81987e+06 47349.9 0 1.79797e+06 82398 0 1.76991e+06 111962 0 1.73697e+06 136403 0 1.70028e+06 156180 0 1.66078e+06 171796 0 1.61928e+06 183756 0 1.57642e+06 192549 0 1.53276e+06 198625 0 1.48874e+06 202396 0 1.44472e+06 204223 0 1.401e+06 204427 0 1.35779e+06 203284 0 1.31531e+06 201033 0 1.27369e+06 197878 0 1.23305e+06 193991 0 1.19348e+06 189518 0 1.15506e+06 184584 0 1.11783e+06 179291 0 1.08183e+06 173726 0 1.04709e+06 167961 0 1.01362e+06 162055 0 1.40536e+06 -584408 0 1.51419e+06 -489782 0 1.60916e+06 -411647 0 1.68628e+06 -340991 0 1.74716e+06 -273977 0 1.79252e+06 -209499 0 1.82315e+06 -148006 0 1.84012e+06 -90434.3 0 1.84476e+06 -37701.7 0 1.83865e+06 9532.09 0 1.82341e+06 50941.4 0 1.80063e+06 86508.5 0 1.77178e+06 116456 0 1.73816e+06 141169 0 1.70088e+06 161128 0 1.66088e+06 176853 0 1.61897e+06 188865 0 1.57578e+06 197664 0 1.53185e+06 203712 0 1.48762e+06 207425 0 1.44344e+06 209174 0 1.39959e+06 209282 0 1.35631e+06 208031 0 1.31376e+06 205661 0 1.27211e+06 202379 0 1.23146e+06 198360 0 1.19189e+06 193751 0 1.15348e+06 188678 0 1.11628e+06 183244 0 1.08031e+06 177538 0 1.04561e+06 171631 0 1.01218e+06 165584 0 1.42231e+06 -591456 0 1.52831e+06 -497298 0 1.62126e+06 -417834 0 1.69705e+06 -345594 0 1.75689e+06 -276981 0 1.80127e+06 -210968 0 1.83089e+06 -148068 0 1.84679e+06 -89261.2 0 1.85036e+06 -35487.9 0 1.8432e+06 12591 0 1.82698e+06 54663.2 0 1.80331e+06 90733.2 0 1.77366e+06 121048 0 1.73934e+06 146019 0 1.70147e+06 166145 0 1.66098e+06 181967 0 1.61865e+06 194020 0 1.57513e+06 202817 0 1.53093e+06 208828 0 1.48649e+06 212477 0 1.44214e+06 214142 0 1.39818e+06 214150 0 1.3548e+06 212786 0 1.3122e+06 210294 0 1.27052e+06 206883 0 1.22985e+06 202729 0 1.19029e+06 197982 0 1.15189e+06 192769 0 1.11471e+06 187193 0 1.07878e+06 181345 0 1.04411e+06 175296 0 1.01073e+06 169107 0 1.43892e+06 -598364 0 1.54246e+06 -504521 0 1.63347e+06 -423778 0 1.70795e+06 -350002 0 1.76677e+06 -279808 0 1.81015e+06 -212262 0 1.83873e+06 -147957 0 1.85355e+06 -87918.9 0 1.85602e+06 -33114.1 0 1.8478e+06 15796.7 0 1.83058e+06 58516.4 0 1.806e+06 95072.8 0 1.77554e+06 125740 0 1.74053e+06 150951 0 1.70205e+06 171232 0 1.66106e+06 187138 0 1.61832e+06 199222 0 1.57446e+06 208006 0 1.52999e+06 213972 0 1.48534e+06 217551 0 1.44083e+06 219126 0 1.39674e+06 219029 0 1.35328e+06 217548 0 1.31063e+06 214931 0 1.2689e+06 211388 0 1.22822e+06 207098 0 1.18866e+06 202212 0 1.15028e+06 196857 0 1.11313e+06 191139 0 1.07723e+06 185147 0 1.0426e+06 178955 0 1.00926e+06 172625 0 1.45526e+06 -605158 0 1.55663e+06 -511471 0 1.64578e+06 -429485 0 1.71899e+06 -354219 0 1.77679e+06 -282457 0 1.81915e+06 -213379 0 1.84668e+06 -147669 0 1.86039e+06 -86405 0 1.86175e+06 -30578.2 0 1.85244e+06 19151.1 0 1.83421e+06 62502.2 0 1.8087e+06 99528.2 0 1.77743e+06 130530 0 1.74171e+06 155968 0 1.70263e+06 176388 0 1.66113e+06 192366 0 1.61797e+06 204469 0 1.57377e+06 213232 0 1.52904e+06 219145 0 1.48417e+06 222647 0 1.4395e+06 224126 0 1.39529e+06 223920 0 1.35174e+06 222318 0 1.30903e+06 219573 0 1.26728e+06 215896 0 1.22658e+06 211467 0 1.18702e+06 206440 0 1.14866e+06 200942 0 1.11153e+06 195080 0 1.07566e+06 188945 0 1.04107e+06 182609 0 1.00777e+06 176137 0 1.47138e+06 -611862 0 1.57084e+06 -518164 0 1.65819e+06 -434963 0 1.73016e+06 -358249 0 1.78694e+06 -284927 0 1.82829e+06 -214317 0 1.85473e+06 -147202 0 1.86732e+06 -84716.8 0 1.86754e+06 -27878 0 1.85713e+06 22655.6 0 1.83786e+06 66621.8 0 1.81142e+06 104100 0 1.77933e+06 135420 0 1.74288e+06 161068 0 1.7032e+06 181614 0 1.66119e+06 197651 0 1.61761e+06 209762 0 1.57307e+06 218494 0 1.52807e+06 224347 0 1.48299e+06 227765 0 1.43815e+06 229143 0 1.39382e+06 228822 0 1.35019e+06 227096 0 1.30742e+06 224219 0 1.26563e+06 220405 0 1.22492e+06 215837 0 1.18537e+06 210666 0 1.14702e+06 205024 0 1.10991e+06 199018 0 1.07408e+06 192737 0 1.03953e+06 186258 0 1.00627e+06 179643 0 1.48734e+06 -618497 0 1.58507e+06 -524610 0 1.67069e+06 -440218 0 1.74146e+06 -362095 0 1.79724e+06 -287217 0 1.83756e+06 -215074 0 1.8629e+06 -146554 0 1.87433e+06 -82851.8 0 1.87339e+06 -25011.4 0 1.86185e+06 26311.9 0 1.84154e+06 70876.2 0 1.81415e+06 108789 0 1.78122e+06 140410 0 1.74406e+06 166252 0 1.70376e+06 186909 0 1.66124e+06 202993 0 1.61724e+06 215101 0 1.57236e+06 223793 0 1.52708e+06 229576 0 1.48178e+06 232905 0 1.43679e+06 234176 0 1.39233e+06 233735 0 1.34862e+06 231882 0 1.30579e+06 228870 0 1.26397e+06 224917 0 1.22325e+06 220206 0 1.18369e+06 214891 0 1.14536e+06 209103 0 1.10828e+06 202951 0 1.07248e+06 196525 0 1.03797e+06 189902 0 1.00475e+06 183143 0 1.50319e+06 -625087 0 1.59935e+06 -530818 0 1.68328e+06 -445258 0 1.7529e+06 -365761 0 1.80768e+06 -289327 0 1.84695e+06 -215648 0 1.87117e+06 -145721 0 1.88142e+06 -80807.1 0 1.87929e+06 -21976 0 1.86661e+06 30121.8 0 1.84523e+06 75266.7 0 1.81689e+06 113596 0 1.78311e+06 145500 0 1.74522e+06 171521 0 1.70431e+06 192274 0 1.66127e+06 208391 0 1.61685e+06 220486 0 1.57162e+06 229128 0 1.52607e+06 234835 0 1.48056e+06 238065 0 1.4354e+06 239224 0 1.39083e+06 238660 0 1.34703e+06 236675 0 1.30414e+06 233526 0 1.26229e+06 229430 0 1.22155e+06 224575 0 1.182e+06 219114 0 1.14368e+06 213179 0 1.10663e+06 206880 0 1.07086e+06 200309 0 1.03639e+06 193540 0 1.00322e+06 186638 0 1.51898e+06 -631654 0 1.61368e+06 -536789 0 1.69595e+06 -450090 0 1.76448e+06 -369248 0 1.81826e+06 -291256 0 1.85647e+06 -216036 0 1.87954e+06 -144700 0 1.88859e+06 -78580 0 1.88525e+06 -18769.7 0 1.8714e+06 34086.8 0 1.84895e+06 79794.3 0 1.81963e+06 118522 0 1.785e+06 150691 0 1.74638e+06 176874 0 1.70484e+06 197708 0 1.66129e+06 213847 0 1.61644e+06 225916 0 1.57087e+06 234499 0 1.52504e+06 240121 0 1.47932e+06 243248 0 1.434e+06 244288 0 1.3893e+06 243596 0 1.34542e+06 241475 0 1.30247e+06 238185 0 1.26059e+06 233945 0 1.21984e+06 228943 0 1.18029e+06 223335 0 1.14199e+06 217252 0 1.10496e+06 210806 0 1.06922e+06 204087 0 1.03479e+06 197173 0 1.00167e+06 190126 0 1.53477e+06 -638222 0 1.62805e+06 -542520 0 1.7087e+06 -454724 0 1.7762e+06 -372562 0 1.82898e+06 -293001 0 1.86612e+06 -216236 0 1.88802e+06 -143488 0 1.89583e+06 -76167.7 0 1.89126e+06 -15390.2 0 1.87623e+06 38208.6 0 1.85267e+06 84460.1 0 1.82237e+06 123567 0 1.78688e+06 155984 0 1.74752e+06 182311 0 1.70536e+06 203212 0 1.66129e+06 219358 0 1.61601e+06 231392 0 1.5701e+06 239906 0 1.524e+06 245435 0 1.47806e+06 248451 0 1.43258e+06 249368 0 1.38776e+06 248543 0 1.34379e+06 246283 0 1.30079e+06 242849 0 1.25887e+06 238462 0 1.21811e+06 233311 0 1.17857e+06 227554 0 1.14028e+06 221322 0 1.10328e+06 214726 0 1.06757e+06 207860 0 1.03318e+06 200800 0 1.0001e+06 193609 0 1.55064e+06 -644819 0 1.64247e+06 -548003 0 1.72152e+06 -459170 0 1.78805e+06 -375703 0 1.83984e+06 -294562 0 1.87589e+06 -216244 0 1.89661e+06 -142083 0 1.90316e+06 -73567.4 0 1.89732e+06 -11835.2 0 1.88108e+06 42488.8 0 1.85641e+06 89265.1 0 1.82512e+06 128732 0 1.78876e+06 161377 0 1.74865e+06 187832 0 1.70586e+06 208785 0 1.66127e+06 224926 0 1.61557e+06 236913 0 1.56931e+06 245349 0 1.52293e+06 250776 0 1.47678e+06 253676 0 1.43113e+06 254464 0 1.3862e+06 253501 0 1.34214e+06 251098 0 1.29908e+06 247516 0 1.25713e+06 242981 0 1.21636e+06 237679 0 1.17682e+06 231770 0 1.13855e+06 225388 0 1.10157e+06 218643 0 1.06591e+06 211629 0 1.03156e+06 204422 0 998519 197086 0 1.56665e+06 -651477 0 1.65691e+06 -553221 0 1.73442e+06 -463442 0 1.80006e+06 -378673 0 1.85084e+06 -295937 0 1.8858e+06 -216058 0 1.90529e+06 -140480 0 1.91055e+06 -70776.1 0 1.90343e+06 -8102.4 0 1.88596e+06 46929 0 1.86016e+06 94210.3 0 1.82786e+06 134017 0 1.79062e+06 166872 0 1.74976e+06 193438 0 1.70634e+06 214428 0 1.66123e+06 230551 0 1.6151e+06 242479 0 1.56849e+06 250827 0 1.52184e+06 256146 0 1.47548e+06 258921 0 1.42967e+06 259574 0 1.38461e+06 258470 0 1.34047e+06 255919 0 1.29736e+06 252188 0 1.25538e+06 247500 0 1.2146e+06 242046 0 1.17506e+06 235985 0 1.1368e+06 229451 0 1.09985e+06 222555 0 1.06422e+06 215392 0 1.02991e+06 208038 0 996921 200557 0 1.5829e+06 -658237 0 1.67135e+06 -558150 0 1.7474e+06 -467559 0 1.81221e+06 -381472 0 1.86198e+06 -297125 0 1.89583e+06 -215675 0 1.91407e+06 -138676 0 1.91802e+06 -67790.7 0 1.90958e+06 -4189.5 0 1.89086e+06 51530.8 0 1.86392e+06 99296.7 0 1.8306e+06 139422 0 1.79247e+06 172469 0 1.75085e+06 199129 0 1.7068e+06 220140 0 1.66116e+06 236231 0 1.6146e+06 248089 0 1.56766e+06 256340 0 1.52073e+06 261542 0 1.47416e+06 264187 0 1.42818e+06 264700 0 1.38301e+06 263449 0 1.33878e+06 260748 0 1.29562e+06 256863 0 1.2536e+06 252021 0 1.21281e+06 246413 0 1.17328e+06 240197 0 1.13504e+06 233510 0 1.09812e+06 226463 0 1.06252e+06 219150 0 1.02825e+06 211648 0 995305 204022 0 1.59952e+06 -665148 0 1.68575e+06 -562756 0 1.76048e+06 -471546 0 1.82451e+06 -384094 0 1.87326e+06 -298126 0 1.906e+06 -215091 0 1.92295e+06 -136667 0 1.92555e+06 -64608.1 0 1.91577e+06 -94.1987 0 1.89578e+06 56295.7 0 1.86768e+06 104525 0 1.83332e+06 144949 0 1.79431e+06 178168 0 1.75193e+06 204903 0 1.70724e+06 225920 0 1.66108e+06 241967 0 1.61409e+06 253744 0 1.5668e+06 261888 0 1.5196e+06 266966 0 1.47281e+06 269473 0 1.42668e+06 269841 0 1.38138e+06 268439 0 1.33707e+06 265583 0 1.29385e+06 261542 0 1.25181e+06 256544 0 1.211e+06 250778 0 1.17148e+06 244407 0 1.13326e+06 237566 0 1.09636e+06 230366 0 1.0608e+06 222903 0 1.02657e+06 215253 0 993674 207480 0 1.61666e+06 -672274 0 1.70003e+06 -566990 0 1.77367e+06 -475437 0 1.83696e+06 -386533 0 1.88469e+06 -298942 0 1.91629e+06 -214300 0 1.93193e+06 -134451 0 1.93315e+06 -61225.2 0 1.922e+06 4185.79 0 1.90072e+06 61225.3 0 1.87143e+06 109897 0 1.83604e+06 150598 0 1.79613e+06 183968 0 1.75298e+06 210762 0 1.70766e+06 231770 0 1.66096e+06 247759 0 1.61355e+06 259443 0 1.56591e+06 267471 0 1.51844e+06 272416 0 1.47144e+06 274779 0 1.42515e+06 274996 0 1.37973e+06 273438 0 1.33534e+06 270425 0 1.29207e+06 266225 0 1.25e+06 261067 0 1.20918e+06 255143 0 1.16966e+06 248615 0 1.13146e+06 241618 0 1.09459e+06 234265 0 1.05907e+06 226650 0 1.02488e+06 218851 0 992025 210933 0 1.63452e+06 -679700 0 1.71409e+06 -570789 0 1.78703e+06 -479279 0 1.84954e+06 -388771 0 1.89628e+06 -299575 0 1.92671e+06 -213297 0 1.941e+06 -132024 0 1.94081e+06 -57638.4 0 1.92826e+06 8652.81 0 1.90567e+06 66321.1 0 1.87519e+06 115412 0 1.83875e+06 156369 0 1.79792e+06 189870 0 1.75401e+06 216705 0 1.70805e+06 237688 0 1.66082e+06 253605 0 1.61298e+06 265186 0 1.565e+06 273088 0 1.51726e+06 277892 0 1.47005e+06 280106 0 1.42359e+06 280166 0 1.37806e+06 278448 0 1.33359e+06 275273 0 1.29026e+06 270911 0 1.24816e+06 265591 0 1.20734e+06 259507 0 1.16782e+06 252820 0 1.12964e+06 245667 0 1.0928e+06 238159 0 1.05731e+06 230392 0 1.02317e+06 222444 0 990360 214379 0 1.65336e+06 -687535 0 1.72776e+06 -574066 0 1.80065e+06 -483136 0 1.86223e+06 -390785 0 1.90804e+06 -300035 0 1.93726e+06 -212074 0 1.95017e+06 -129383 0 1.94854e+06 -53844.4 0 1.93456e+06 13309.2 0 1.91063e+06 71584.4 0 1.87894e+06 121072 0 1.84143e+06 162262 0 1.7997e+06 195875 0 1.75502e+06 222732 0 1.70841e+06 243674 0 1.66066e+06 259507 0 1.61238e+06 270973 0 1.56406e+06 278740 0 1.51605e+06 283395 0 1.46863e+06 285451 0 1.42202e+06 285350 0 1.37637e+06 283467 0 1.33181e+06 280127 0 1.28844e+06 275600 0 1.24631e+06 270116 0 1.20548e+06 263870 0 1.16597e+06 257023 0 1.1278e+06 249711 0 1.09099e+06 242049 0 1.05554e+06 234129 0 1.02144e+06 226031 0 988679 217819 0 1.67355e+06 -695933 0 1.74079e+06 -576710 0 1.81467e+06 -487095 0 1.87494e+06 -392534 0 1.92001e+06 -300334 0 1.9479e+06 -210620 0 1.95944e+06 -126527 0 1.95631e+06 -49839.8 0 1.94089e+06 18157.7 0 1.91559e+06 77016.2 0 1.88268e+06 126878 0 1.8441e+06 168278 0 1.80145e+06 201981 0 1.75599e+06 228842 0 1.70874e+06 249728 0 1.66046e+06 265463 0 1.61176e+06 276803 0 1.56309e+06 284425 0 1.51481e+06 288924 0 1.46718e+06 290816 0 1.42041e+06 290547 0 1.37465e+06 288496 0 1.33002e+06 284987 0 1.28659e+06 280292 0 1.24443e+06 274642 0 1.20359e+06 268231 0 1.16409e+06 261222 0 1.12595e+06 253752 0 1.08917e+06 245933 0 1.05375e+06 237860 0 1.01969e+06 229612 0 986981 221252 0 </DataArray> 
</PointData> 
<Points> 
<DataArray type="Float32" NumberOfComponents="3"> 