<?xml version="1.0"?> 
<VTKFile type="StructuredGrid" version="0.1"> 
<StructuredGrid WholeExtent="0 31 0 31 0 0"> 
<Piece Extent="0 31 0 31 0 0"> 
<PointData>
<DataArray type="Float32" Name="|E|" format="ascii" NumberOfComponents="3"> 
-2.08616e-07 -1.90735e-06 0 1.24332e-07 941.593 0 -1.18278e-07 760.448 0 9.12696e-08 546.993 0 -4.47035e-08 384.95 0 2.6077e-08 269.341 0 -4.84288e-08 189.988 0 2.98023e-08 135.265 0 -7.45058e-09 97.4914 0 -1.49012e-08 71.1185 0 7.45058e-09 52.4854 0 1.49012e-08 39.1406 0 -7.45058e-09 29.4564 0 5.96046e-08 22.3406 0 -2.98023e-08 17.0536 0 -2.23517e-08 13.0867 0 1.49012e-08 10.0853 0 2.98023e-08 7.79836 0 0 6.04544 0 7.45058e-09 4.69506 0 -4.47035e-08 3.65028 0 1.49012e-08 2.83875 0 -1.49012e-08 2.20596 0 2.98023e-08 1.71043 0 -4.47035e-08 1.32034 0 2.98023e-08 1.01106 0 -4.47035e-08 0.763293 0 4.47035e-08 0.561769 0 -7.45058e-08 0.394167 0 1.04308e-07 0.250308 0 -1.3411e-07 0.121507 0 1.78814e-07 7.15256e-07 0 38.6911 -2.32458e-06 0 -1.80744 941.866 0 -6.53286 760.421 0 -5.74251 546.974 0 -5.05306 384.915 0 -3.86059 269.311 0 -3.0053 189.961 0 -2.27878 135.243 0 -1.73616 97.4736 0 -1.32595 71.1042 0 -1.01961 52.474 0 -0.790303 39.1316 0 -0.617435 29.4491 0 -0.486046 22.3347 0 -0.38517 17.0488 0 -0.306971 13.0827 0 -0.245794 10.0821 0 -0.197552 7.79569 0 -0.159254 6.04322 0 -0.128691 4.69322 0 -0.104208 3.64875 0 -0.0845502 2.83748 0 -0.0687568 2.2049 0 -0.0560851 1.70955 0 -0.0459592 1.31961 0 -0.0379318 1.01046 0 -0.031659 0.762812 0 -0.0268818 0.561393 0 -0.0234133 0.393885 0 -0.0211324 0.250118 0 -0.0199769 0.121408 0 -0.0199542 -9.72301e-07 0 77.4415 2.86102e-06 0 -3.65505 942.667 0 -13.0608 760.344 0 -11.4873 546.919 0 -10.1052 384.814 0 -7.72023 269.223 0 -6.0098 189.884 0 -4.55665 135.179 0 -3.47158 97.4213 0 -2.65126 71.0623 0 -2.03868 52.4406 0 -1.58016 39.1048 0 -1.2345 29.4276 0 -0.971787 22.3174 0 -0.770089 17.0347 0 -0.613732 13.0712 0 -0.491414 10.0726 0 -0.394956 7.78785 0 -0.318384 6.03671 0 -0.257277 4.68781 0 -0.208326 3.64424 0 -0.169022 2.83372 0 -0.137446 2.20177 0 -0.112112 1.70695 0 -0.0918677 1.31747 0 -0.0758193 1.00871 0 -0.0632787 0.7614 0 -0.0537282 0.560285 0 -0.0467938 0.393058 0 -0.0422336 0.24956 0 -0.0399224 0.121121 0 -0.0398755 4.32134e-07 0 116.311 -2.02656e-06 0 -5.58307 943.997 0 -19.5788 760.214 0 -17.2366 546.828 0 -15.1555 384.646 0 -11.578 269.076 0 -9.01271 189.754 0 -6.83271 135.072 0 -5.20555 97.3346 0 -3.97526 70.9928 0 -3.05668 52.3851 0 -2.36912 39.0605 0 -1.85083 29.392 0 -1.45692 22.2886 0 -1.15451 17.0113 0 -0.920077 13.0521 0 -0.736684 10.0568 0 -0.592067 7.77483 0 -0.477264 6.02591 0 -0.38565 4.67882 0 -0.312262 3.63675 0 -0.253339 2.82748 0 -0.206001 2.19657 0 -0.168023 1.70264 0 -0.137675 1.31391 0 -0.113618 1.0058 0 -0.0948198 0.759057 0 -0.0805038 0.558448 0 -0.0701091 0.391686 0 -0.0632723 0.248634 0 -0.0598054 0.120644 0 -0.0597304 -1.71363e-07 0 155.358 1.66893e-06 0 -7.63202 945.856 0 -26.0817 760.031 0 -22.9929 546.701 0 -20.2031 384.41 0 -15.433 268.872 0 -12.0132 189.574 0 -9.10608 134.922 0 -6.93733 97.2135 0 -5.29731 70.8957 0 -4.07307 52.3076 0 -3.15674 38.9985 0 -2.46606 29.3423 0 -1.94115 22.2485 0 -1.53817 16.9786 0 -1.2258 13.0253 0 -0.981431 10.0348 0 -0.788737 7.75665 0 -0.635772 6.01082 0 -0.513705 4.66627 0 -0.415926 3.6263 0 -0.337422 2.81877 0 -0.274356 2.18933 0 -0.223759 1.69663 0 -0.183331 1.30895 0 -0.151284 1.00174 0 -0.126243 0.755787 0 -0.107174 0.555883 0 -0.0933264 0.389771 0 -0.0842173 0.247342 0 -0.079595 0.119978 0 -0.0794863 2.38419e-07 0 194.645 -3.21865e-06 0 -9.84285 948.243 0 -32.5639 759.794 0 -28.7588 546.538 0 -25.2468 384.107 0 -19.2844 268.609 0 -15.0106 189.342 0 -11.3759 134.73 0 -8.6662 97.0579 0 -6.61676 70.771 0 -5.08732 52.2082 0 -3.94259 38.919 0 -3.07983 29.2785 0 -2.42417 22.1969 0 -1.92084 16.9367 0 -1.53068 12.9911 0 -1.22548 10.0066 0 -0.984821 7.73333 0 -0.793783 5.99147 0 -0.641339 4.65017 0 -0.519229 3.61289 0 -0.421195 2.8076 0 -0.342442 2.18003 0 -0.279264 1.68891 0 -0.228786 1.30258 0 -0.188774 0.996532 0 -0.157511 0.751594 0 -0.133702 0.552596 0 -0.116414 0.387318 0 -0.105038 0.245686 0 -0.0992598 0.119125 0 -0.0991104 -3.12924e-07 0 234.231 2.14577e-06 0 -12.2571 951.158 0 -39.0193 759.5 0 -34.5369 546.34 0 -30.2855 383.736 0 -23.1312 268.289 0 -18.0039 189.058 0 -13.6411 134.496 0 -10.3914 96.8681 0 -7.93298 70.6189 0 -6.0989 52.0869 0 -4.72621 38.8221 0 -3.69176 29.2006 0 -2.90568 22.1341 0 -2.30226 16.8856 0 -1.83453 12.9492 0 -1.46867 9.97222 0 -1.18017 7.70488 0 -0.951175 5.96787 0 -0.768444 4.63054 0 -0.622081 3.59654 0 -0.504581 2.79397 0 -0.410195 2.16869 0 -0.33448 1.67951 0 -0.273989 1.29482 0 -0.226043 0.990186 0 -0.188583 0.746484 0 -0.160055 0.548589 0 -0.139339 0.384327 0 -0.125703 0.243668 0 -0.118769 0.118085 0 -0.11857 2.83122e-07 0 274.178 -4.76837e-07 0 -14.917 954.6 0 -45.4415 759.146 0 -40.3304 546.107 0 -35.318 383.297 0 -26.9727 267.911 0 -20.9924 188.723 0 -15.901 134.219 0 -12.1123 96.6441 0 -9.2453 70.4395 0 -7.10727 51.9437 0 -5.50718 38.7077 0 -4.30151 29.1088 0 -3.38539 22.0599 0 -2.68218 16.8253 0 -2.13714 12.8999 0 -1.71081 9.93164 0 -1.37465 7.67134 0 -1.10783 5.94004 0 -0.894919 4.60739 0 -0.724393 3.57726 0 -0.587503 2.77791 0 -0.477548 2.15533 0 -0.389351 1.66842 0 -0.318891 1.28568 0 -0.263049 0.982707 0 -0.219421 0.740463 0 -0.186198 0.543869 0 -0.162069 0.380804 0 -0.146183 0.241291 0 -0.138093 0.116861 0 -0.137833 -2.08616e-07 0 314.55 -1.43051e-06 0 -17.8657 958.569 0 -51.8231 758.73 0 -46.1425 545.84 0 -40.3428 382.79 0 -30.8082 267.476 0 -23.9752 188.337 0 -18.1547 133.901 0 -13.8281 96.3859 0 -10.5531 70.2327 0 -8.11192 51.7788 0 -6.28504 38.5759 0 -4.9087 29.0031 0 -3.863 21.9745 0 -3.06037 16.7559 0 -2.43831 12.8431 0 -1.95174 9.88493 0 -1.56811 7.63273 0 -1.26361 5.90801 0 -1.02066 4.58075 0 -0.826077 3.55507 0 -0.669885 2.75943 0 -0.544436 2.13995 0 -0.443818 1.65567 0 -0.363443 1.27515 0 -0.299748 0.974105 0 -0.249988 0.733538 0 -0.212096 0.538442 0 -0.184574 0.376754 0 -0.166447 0.23856 0 -0.1572 0.115455 0 -0.156868 5.96046e-08 0 355.409 1.19209e-06 0 -21.1474 963.063 0 -58.1561 758.248 0 -51.977 545.539 0 -45.3583 382.213 0 -34.6371 266.984 0 -26.9515 187.9 0 -20.4012 133.54 0 -15.5381 96.0937 0 -11.8557 69.9989 0 -9.11233 51.5924 0 -7.05936 38.4269 0 -5.51299 28.8835 0 -4.3382 21.878 0 -3.43657 16.6775 0 -2.73782 12.779 0 -2.1913 9.83213 0 -1.76041 7.58908 0 -1.41842 5.8718 0 -1.14556 4.55064 0 -0.927045 3.52999 0 -0.751653 2.73855 0 -0.610794 2.12258 0 -0.497828 1.64126 0 -0.407597 1.26327 0 -0.336097 0.96439 0 -0.280246 0.725719 0 -0.237715 0.532315 0 -0.206822 0.372184 0 -0.186464 0.235478 0 -0.176062 0.113869 0 -0.175643 1.19209e-07 0 396.821 2.38419e-07 0 -24.8074 968.082 0 -64.4315 757.697 0 -57.838 545.206 0 -50.3625 381.567 0 -38.4586 266.435 0 -29.9203 187.411 0 -22.6397 133.138 0 -17.2416 95.7676 0 -13.1525 69.738 0 -10.108 51.3844 0 -7.82972 38.2608 0 -6.11402 28.7502 0 -4.81073 21.7704 0 -3.81055 16.59 0 -3.03549 12.7074 0 -2.42931 9.77328 0 -1.95141 7.54044 0 -1.57212 5.83145 0 -1.26953 4.51709 0 -1.02721 3.50205 0 -0.832732 2.71528 0 -0.676559 2.10323 0 -0.551323 1.62521 0 -0.451303 1.25003 0 -0.372055 0.953574 0 -0.310156 0.717015 0 -0.263022 0.525497 0 -0.228781 0.367098 0 -0.206207 0.23205 0 -0.194648 0.112104 0 -0.194127 -8.9407e-08 0 438.853 -2.38419e-06 0 -28.8924 973.624 0 -70.6392 757.072 0 -63.7302 544.84 0 -55.3535 380.85 0 -42.2724 265.829 0 -32.8807 186.871 0 -24.8694 132.694 0 -18.9379 95.4078 0 -14.4429 69.4503 0 -11.0983 51.155 0 -8.59568 38.0776 0 -6.71143 28.6033 0 -5.28027 21.6518 0 -4.18207 16.4936 0 -3.33111 12.6286 0 -2.6656 9.70842 0 -2.14096 7.48684 0 -1.7246 5.787 0 -1.39245 4.48013 0 -1.12649 3.47128 0 -0.913048 2.68966 0 -0.741666 2.08192 0 -0.60425 1.60754 0 -0.494515 1.23546 0 -0.40758 0.94167 0 -0.339683 0.707439 0 -0.287984 0.517997 0 -0.250422 0.361506 0 -0.225645 0.228281 0 -0.21293 0.110165 0 -0.212289 8.9407e-08 0 481.573 2.86102e-06 0 -33.4506 979.688 0 -76.768 756.37 0 -69.6589 544.443 0 -60.3287 380.063 0 -46.0782 265.167 0 -35.8317 186.28 0 -27.0894 132.209 0 -20.6263 95.0144 0 -15.7262 69.1359 0 -12.0829 50.9044 0 -9.35681 37.8776 0 -7.30489 28.4428 0 -5.74655 21.5222 0 -4.5509 16.3884 0 -3.62449 12.5425 0 -2.90002 9.63763 0 -2.32894 7.42834 0 -1.87575 5.73848 0 -1.51424 4.43979 0 -1.22479 3.4377 0 -0.992528 2.6617 0 -0.806053 2.05868 0 -0.656553 1.58828 0 -0.537185 1.21958 0 -0.442631 0.928692 0 -0.368791 0.697002 0 -0.312568 0.509824 0 -0.271714 0.355414 0 -0.24475 0.224177 0 -0.230879 0.108054 0 -0.2301 -2.08616e-07 0 525.051 0 0 -38.532 986.272 0 -82.8054 755.585 0 -75.6298 544.015 0 -65.2853 379.204 0 -49.8758 264.449 0 -38.7722 185.637 0 -29.299 131.683 0 -22.306 94.5876 0 -17.0018 68.7951 0 -13.0612 50.6327 0 -10.1127 37.6608 0 -7.89405 28.269 0 -6.20928 21.3819 0 -4.91679 16.2743 0 -3.91543 12.4493 0 -3.13241 9.56095 0 -2.5152 7.36498 0 -2.02544 5.68594 0 -1.63479 4.39611 0 -1.32204 3.40134 0 -1.0711 2.63144 0 -0.869657 2.03352 0 -0.708181 1.56742 0 -0.579267 1.20239 0 -0.477166 0.914658 0 -0.397442 0.685718 0 -0.336741 0.500991 0 -0.292628 0.348831 0 -0.263493 0.219744 0 -0.248466 0.105775 0 -0.247529 1.19209e-07 0 569.36 -1.43051e-06 0 -44.1881 993.373 0 -88.7373 754.712 0 -81.6498 543.557 0 -70.22 378.272 0 -53.6652 263.676 0 -41.7011 184.943 0 -31.4972 131.116 0 -23.9763 94.1275 0 -18.269 68.428 0 -14.0326 50.3401 0 -10.8629 37.4274 0 -8.47856 28.0818 0 -6.66819 21.2309 0 -5.27952 16.1517 0 -4.20374 12.3489 0 -3.36259 9.47845 0 -2.69961 7.29682 0 -2.17357 5.62942 0 -1.75401 4.34913 0 -1.41814 3.36225 0 -1.14869 2.5989 0 -0.932419 2.00647 0 -0.759079 1.54502 0 -0.620716 1.18393 0 -0.511147 0.899582 0 -0.425603 0.6736 0 -0.360473 0.491509 0 -0.313135 0.341768 0 -0.281848 0.214988 0 -0.265666 0.103331 0 -0.264548 -2.38419e-07 0 614.573 9.53674e-07 0 -50.4728 1000.99 0 -94.5478 753.747 0 -87.7264 543.07 0 -75.1293 377.267 0 -57.4466 262.848 0 -44.6172 184.199 0 -33.6835 130.508 0 -25.6365 93.6344 0 -19.5273 68.0348 0 -14.9968 50.0268 0 -11.607 37.1775 0 -9.05809 27.8815 0 -7.12299 21.0693 0 -5.63886 16.0204 0 -4.48924 12.2416 0 -3.59042 9.39021 0 -2.88204 7.22392 0 -2.32001 5.56898 0 -1.8718 4.2989 0 -1.51303 3.32045 0 -1.22524 2.56412 0 -0.994278 1.97757 0 -0.809196 1.52107 0 -0.661486 1.1642 0 -0.544534 0.883484 0 -0.453238 0.660664 0 -0.383733 0.48139 0 -0.333206 0.334233 0 -0.299787 0.209918 0 -0.28245 0.100726 0 -0.28113 0 0 660.768 -9.53674e-07 0 -57.442 1009.12 0 -100.22 752.684 0 -93.8681 542.555 0 -80.0088 376.189 0 -61.2205 261.966 0 -47.5191 183.403 0 -35.857 129.86 0 -27.286 93.1085 0 -20.7761 67.6158 0 -15.9532 49.693 0 -12.3447 36.9114 0 -9.63231 27.6682 0 -7.57341 20.8972 0 -5.99459 15.8807 0 -4.77174 12.1274 0 -3.81574 9.29629 0 -3.06236 7.14634 0 -2.46467 5.50467 0 -1.98807 4.24546 0 -1.60661 3.27599 0 -1.30067 2.52713 0 -1.05518 1.94684 0 -0.858482 1.49563 0 -0.701533 1.14324 0 -0.577289 0.866384 0 -0.480314 0.646928 0 -0.40649 0.470649 0 -0.352814 0.326238 0 -0.317285 0.20454 0 -0.298793 0.0979646 0 -0.297246 2.38419e-07 0 708.025 4.76837e-07 0 -65.154 1017.75 0 -105.733 751.518 0 -100.084 542.012 0 -84.8535 375.035 0 -64.9878 261.029 0 -50.4054 182.556 0 -38.0172 129.172 0 -28.9238 92.55 0 -22.0147 67.1712 0 -16.9013 49.3389 0 -13.0754 36.6293 0 -10.2009 27.442 0 -8.01919 20.7149 0 -6.34648 15.7325 0 -5.05105 12.0063 0 -4.0384 9.19677 0 -3.24043 7.06414 0 -2.60744 5.43654 0 -2.10272 4.18886 0 -1.69882 3.22891 0 -1.37492 2.48797 0 -1.11505 1.91432 0 -0.906886 1.4687 0 -0.740815 1.12107 0 -0.609374 0.848301 0 -0.506798 0.632408 0 -0.428714 0.4593 0 -0.371931 0.317794 0 -0.334314 0.198862 0 -0.314669 0.0950509 0 -0.31287 -2.38419e-07 0 756.426 4.76837e-07 0 -73.6697 1026.89 0 -111.067 750.242 0 -106.386 541.442 0 -89.6581 373.807 0 -68.7495 260.038 0 -53.2744 181.658 0 -40.1635 128.445 0 -30.5493 91.9592 0 -23.2426 66.7014 0 -17.8407 48.9647 0 -13.7988 36.3312 0 -10.7635 27.2032 0 -8.46007 20.5223 0 -6.69433 15.5762 0 -5.327 11.8786 0 -4.25825 9.09174 0 -3.41614 6.97741 0 -2.7482 5.36466 0 -2.21567 4.12915 0 -1.78957 3.17926 0 -1.44791 2.44668 0 -1.17386 1.88003 0 -0.95436 1.44032 0 -0.779288 1.09772 0 -0.640752 0.829257 0 -0.532657 0.617122 0 -0.450377 0.447358 0 -0.390532 0.308913 0 -0.350851 0.192894 0 -0.330054 0.0919895 0 -0.327977 2.98023e-07 0 806.056 -2.38419e-06 0 -83.0528 1036.53 0 -116.196 748.852 0 -112.785 540.846 0 -94.4159 372.503 0 -72.5073 258.994 0 -56.1244 180.71 0 -42.2954 127.678 0 -32.1616 91.3364 0 -24.4593 66.2065 0 -18.7708 48.5706 0 -14.5146 36.0175 0 -11.3199 26.9519 0 -8.89577 20.3197 0 -7.03792 15.4117 0 -5.5994 11.7442 0 -4.47513 8.98129 0 -3.58936 6.88621 0 -2.88685 5.28909 0 -2.32683 4.06639 0 -1.87878 3.12707 0 -1.51959 2.4033 0 -1.23153 1.84402 0 -1.00086 1.41052 0 -0.816913 1.0732 0 -0.671388 0.809275 0 -0.55786 0.601091 0 -0.471451 0.434839 0 -0.40859 0.299607 0 -0.36687 0.186644 0 -0.344924 0.0887858 0 -0.34254 -1.19209e-07 0 857.005 3.8147e-06 0 -93.3701 1046.66 0 -121.095 747.341 0 -119.296 540.224 0 -99.1199 371.123 0 -76.263 257.896 0 -58.9532 179.712 0 -44.4126 126.872 0 -33.76 90.6819 0 -25.6641 65.6868 0 -19.6912 48.157 0 -15.2223 35.6884 0 -11.8697 26.6882 0 -9.32605 20.1073 0 -7.37704 15.2393 0 -5.8681 11.6033 0 -4.68892 8.8655 0 -3.75998 6.79062 0 -3.02329 5.2099 0 -2.4361 4.00063 0 -1.96639 3.07241 0 -1.5899 2.35786 0 -1.28801 1.80632 0 -1.04633 1.37933 0 -0.853648 1.04755 0 -0.701247 0.78838 0 -0.582377 0.584334 0 -0.491908 0.42176 0 -0.426081 0.289891 0 -0.38235 0.180122 0 -0.359255 0.0854443 0 -0.356538 1.78814e-07 0 909.364 -3.8147e-06 0 -104.691 1057.27 0 -125.734 745.706 0 -125.933 539.576 0 -103.762 369.666 0 -80.0194 256.745 0 -61.7586 178.663 0 -46.5148 126.027 0 -35.3435 89.996 0 -26.8566 65.1426 0 -20.6014 47.724 0 -15.9215 35.3441 0 -12.4126 26.4124 0 -9.75065 19.8851 0 -7.71149 15.059 0 -6.13292 11.456 0 -4.89947 8.74448 0 -3.92786 6.69072 0 -3.15743 5.12715 0 -2.54342 3.93194 0 -2.05233 3.01532 0 -1.65876 2.31043 0 -1.34326 1.76696 0 -1.09073 1.34679 0 -0.889455 1.0208 0 -0.730294 0.766595 0 -0.606177 0.566873 0 -0.511722 0.408138 0 -0.44298 0.279777 0 -0.397266 0.173337 0 -0.373025 0.0819705 0 -0.369946 -1.78814e-07 0 963.231 2.86102e-06 0 -117.09 1068.37 0 -130.08 743.94 0 -132.713 538.902 0 -108.332 368.133 0 -83.7795 255.541 0 -64.5378 177.565 0 -48.6019 125.143 0 -36.9112 89.2792 0 -28.0363 64.5742 0 -21.501 47.272 0 -16.6119 34.9847 0 -12.9483 26.1247 0 -10.1693 19.6534 0 -8.04107 14.8709 0 -6.39369 11.3024 0 -5.10663 8.61832 0 -4.0929 6.5866 0 -3.28916 5.04092 0 -2.64869 3.86036 0 -2.13651 2.95585 0 -1.72613 2.26103 0 -1.39721 1.726 0 -1.13402 1.31293 0 -0.924296 0.992973 0 -0.758498 0.743949 0 -0.629231 0.54873 0 -0.530868 0.393993 0 -0.459265 0.26928 0 -0.411598 0.1663 0 -0.386214 0.07837 0 -0.382743 1.78814e-07 0 1018.71 -9.53674e-07 0 -130.643 1079.93 0 -134.099 742.039 0 -139.656 538.201 0 -112.819 366.523 0 -87.5473 254.284 0 -67.2879 176.418 0 -50.6741 124.22 0 -38.462 88.532 0 -29.2029 63.9819 0 -22.3893 46.8012 0 -17.2932 34.6106 0 -13.4765 25.8253 0 -10.5819 19.4124 0 -8.36558 14.6753 0 -6.65025 11.1427 0 -5.31029 8.48713 0 -4.25499 6.47835 0 -3.4184 4.95129 0 -2.75183 3.78598 0 -2.21888 2.89407 0 -1.79194 2.20972 0 -1.44983 1.68346 0 -1.17615 1.27779 0 -0.958133 0.964108 0 -0.785825 0.720467 0 -0.651513 0.529928 0 -0.54932 0.379341 0 -0.474913 0.258416 0 -0.425324 0.159021 0 -0.3988 0.0746483 0 -0.394907 -1.78814e-07 0 1075.89 9.53674e-07 0 -145.432 1091.96 0 -137.75 739.998 0 -146.782 537.472 0 -117.212 364.837 0 -91.3277 252.973 0 -70.0053 175.223 0 -52.7318 123.26 0 -39.9949 87.7548 0 -30.3558 63.3658 0 -23.266 46.3121 0 -17.965 34.222 0 -13.997 25.5144 0 -10.988 19.1621 0 -8.68485 14.4723 0 -6.90246 10.977 0 -5.5103 8.35101 0 -4.41402 6.36605 0 -3.54504 4.85832 0 -2.85277 3.70886 0 -2.29937 2.83002 0 -1.85614 2.15656 0 -1.50106 1.6394 0 -1.21708 1.2414 0 -0.990932 0.934235 0 -0.812246 0.696176 0 -0.672995 0.51049 0 -0.567056 0.364204 0 -0.489902 0.247198 0 -0.438424 0.151511 0 -0.410765 0.0708115 0 -0.406419 3.57628e-07 0 1134.9 -1.90735e-06 0 -161.54 1104.43 0 -140.991 737.814 0 -154.117 536.715 0 -121.496 363.076 0 -95.1262 251.607 0 -72.686 173.981 0 -54.7755 122.26 0 -41.5085 86.9483 0 -31.4949 62.7263 0 -24.1305 45.8051 0 -18.6269 33.8191 0 -14.5094 25.1923 0 -11.3876 18.9029 0 -8.99867 14.2621 0 -7.15015 10.8053 0 -5.70655 8.21007 0 -4.56988 6.2498 0 -3.669 4.7621 0 -2.95143 3.62906 0 -2.37791 2.76377 0 -1.91866 2.10158 0 -1.55085 1.59386 0 -1.25678 1.20381 0 -1.02266 0.903386 0 -0.83773 0.671107 0 -0.693652 0.490441 0 -0.584052 0.348601 0 -0.504214 0.235643 0 -0.45088 0.143781 0 -0.42209 0.0668657 0 -0.417259 -3.57628e-07 0 1195.85 0 0 -179.059 1117.34 0 -143.775 735.485 0 -161.685 535.926 0 -125.657 361.242 0 -98.9498 250.187 0 -75.3254 172.692 0 -56.8064 121.222 0 -43.0015 86.1133 0 -32.6199 62.0634 0 -24.9822 45.2805 0 -19.2788 33.4022 0 -15.0135 24.8592 0 -11.7803 18.6348 0 -9.30688 14.0447 0 -7.39318 10.6279 0 -5.89891 8.06445 0 -4.72246 6.1297 0 -3.7902 4.66272 0 -3.04774 3.54665 0 -2.45444 2.69539 0 -1.97947 2.04485 0 -1.59917 1.54689 0 -1.2952 1.16505 0 -1.05328 0.871597 0 -0.86225 0.645288 0 -0.713459 0.469806 0 -0.600287 0.332553 0 -0.517827 0.223768 0 -0.462674 0.135843 0 -0.432756 0.0628168 0 -0.427411 3.57628e-07 0 1258.85 9.53674e-07 0 -198.082 1130.67 0 -146.051 733.006 0 -169.517 535.104 0 -129.675 359.335 0 -102.806 248.709 0 -77.918 171.36 0 -58.8258 120.145 0 -44.4721 85.2507 0 -33.7308 61.3772 0 -25.8205 44.7389 0 -19.9203 32.9713 0 -15.5089 24.5154 0 -12.166 18.3581 0 -9.60929 13.8205 0 -7.63142 10.4449 0 -6.08726 7.91424 0 -4.87168 6.00585 0 -3.90855 4.56026 0 -3.14163 3.46171 0 -2.52891 2.62492 0 -2.0385 1.98642 0 -1.64596 1.49852 0 -1.33231 1.12517 0 -1.08276 0.838904 0 -0.885777 0.618752 0 -0.732392 0.44861 0 -0.61574 0.316081 0 -0.530723 0.211588 0 -0.473787 0.127708 0 -0.44275 0.0586715 0 -0.436857 -2.38419e-07 0 1324.03 0 0 -218.708 1144.41 0 -147.763 730.379 0 -177.646 534.244 0 -133.532 357.36 0 -106.706 247.173 0 -80.4576 169.984 0 -60.8356 119.028 0 -45.9186 84.3617 0 -34.8277 60.6677 0 -26.6448 44.1809 0 -20.5513 32.5268 0 -15.9953 24.1613 0 -12.5445 18.0729 0 -9.90573 13.5895 0 -7.86472 10.2564 0 -6.27149 7.75958 0 -5.01744 5.87834 0 -4.02396 4.4548 0 -3.23302 3.37432 0 -2.60124 2.55244 0 -2.09572 1.92634 0 -1.69119 1.44882 0 -1.36806 1.0842 0 -1.11107 0.805342 0 -0.908287 0.591528 0 -0.750429 0.426881 0 -0.630392 0.299208 0 -0.542885 0.199122 0 -0.484205 0.119389 0 -0.452053 0.0544363 0 -0.445582 1.19209e-07 0 1391.52 -1.90735e-06 0 -241.041 1158.54 0 -148.848 727.602 0 -186.107 533.342 0 -137.205 355.318 0 -110.659 245.576 0 -82.937 168.569 0 -62.8383 117.871 0 -47.3387 83.4475 0 -35.9106 59.9347 0 -27.4544 43.6071 0 -21.1715 32.0686 0 -16.4725 23.7972 0 -12.9157 17.7793 0 -10.196 13.352 0 -8.09295 10.0626 0 -6.45148 7.60059 0 -5.15964 5.74729 0 -4.13637 4.34645 0 -3.32186 3.28454 0 -2.6714 2.47801 0 -2.15106 1.86467 0 -1.73481 1.39783 0 -1.40244 1.04219 0 -1.13819 0.770949 0 -0.929754 0.563648 0 -0.767549 0.404646 0 -0.644224 0.281955 0 -0.554297 0.186386 0 -0.493912 0.110899 0 -0.460654 0.0501176 0 -0.453572 -2.38419e-07 0 1461.46 6.67572e-06 0 -265.193 1173.04 0 -149.242 724.677 0 -194.94 532.392 0 -140.668 353.216 0 -114.679 243.915 0 -85.3477 167.117 0 -64.8371 116.671 0 -48.7298 82.5099 0 -36.9802 59.1779 0 -28.2484 43.0184 0 -21.7809 31.5969 0 -16.9402 23.4234 0 -13.2792 17.4776 0 -10.48 13.1083 0 -8.31599 9.86354 0 -6.62714 7.43743 0 -5.29819 5.61278 0 -4.2457 4.23528 0 -3.40808 3.19247 0 -2.73932 2.40171 0 -2.20449 1.80147 0 -1.77678 1.3456 0 -1.43539 0.999188 0 -1.16408 0.735765 0 -0.950154 0.535147 0 -0.783731 0.381931 0 -0.657218 0.264345 0 -0.564943 0.173398 0 -0.502894 0.102249 0 -0.468539 0.0457218 0 -0.460813 -2.38419e-07 0 1534 -3.8147e-06 0 -291.278 1187.89 0 -148.872 721.607 0 -204.192 531.387 0 -143.893 351.058 0 -118.78 242.185 0 -87.6801 165.631 0 -66.8361 115.427 0 -50.0889 81.5511 0 -38.0371 58.3966 0 -29.026 42.4159 0 -22.3794 31.1116 0 -17.3979 23.0406 0 -13.6351 17.1679 0 -10.7576 12.8585 0 -8.53374 9.65936 0 -6.79835 7.27023 0 -5.43302 5.47493 0 -4.35188 4.12141 0 -3.49163 3.09816 0 -2.80496 2.3236 0 -2.25597 1.73681 0 -1.81708 1.29218 0 -1.4669 0.955236 0 -1.18872 0.699827 0 -0.969467 0.506057 0 -0.798957 0.358767 0 -0.669359 0.246403 0 -0.574809 0.160178 0 -0.511139 0.0934528 0 -0.475695 0.0412565 0 -0.467293 4.76837e-07 0 </DataArray> 
</PointData> 
<Points> 
<DataArray type="Float32" NumberOfComponents="3"> 