<?xml version="1.0"?> 
<VTKFile type="StructuredGrid" version="0.1"> 
<StructuredGrid WholeExtent="0 31 0 31 0 0"> 
<Piece Extent="0 31 0 31 0 0"> 
<PointData>
<DataArray type="Float32" Name="|E|" format="ascii" NumberOfComponents="3"> 
-5.29193e+06 5.29193e+06 0 -5.19079e+06 5.4543e+06 0 -5.08233e+06 5.6134e+06 0 -4.96663e+06 5.7688e+06 0 -4.84382e+06 5.92005e+06 0 -4.71404e+06 6.0667e+06 0 -4.57746e+06 6.20833e+06 0 -4.43429e+06 6.34448e+06 0 -4.28477e+06 6.47472e+06 0 -4.12914e+06 6.59864e+06 0 -3.96771e+06 6.7158e+06 0 -3.80078e+06 6.8258e+06 0 -3.62869e+06 6.92823e+06 0 -3.45182e+06 7.02271e+06 0 -3.27055e+06 7.10887e+06 0 -3.08531e+06 7.18634e+06 0 -2.89653e+06 7.25478e+06 0 -2.70467e+06 7.31387e+06 0 -2.51023e+06 7.36328e+06 0 -2.31371e+06 7.40274e+06 0 -2.11562e+06 7.43197e+06 0 -1.91653e+06 7.45071e+06 0 -1.71697e+06 7.45872e+06 0 -1.51753e+06 7.45578e+06 0 -1.3188e+06 7.44172e+06 0 -1.12139e+06 7.41635e+06 0 -925920 7.37957e+06 0 -733023 7.33131e+06 0 -543347 7.27163e+06 0 -357537 7.20075e+06 0 -176226 7.11915e+06 0 -3.89938e-07 7.02781e+06 0 -4.72817e+06 4.76806e+06 0 -4.64637e+06 4.91573e+06 0 -4.55704e+06 5.0606e+06 0 -4.46031e+06 5.20211e+06 0 -4.35632e+06 5.33971e+06 0 -4.2453e+06 5.47284e+06 0 -4.1275e+06 5.60095e+06 0 -4.00323e+06 5.7235e+06 0 -3.87285e+06 5.83999e+06 0 -3.73674e+06 5.94992e+06 0 -3.59538e+06 6.05282e+06 0 -3.44923e+06 6.14826e+06 0 -3.29884e+06 6.23586e+06 0 -3.14477e+06 6.31526e+06 0 -2.98761e+06 6.38615e+06 0 -2.82798e+06 6.44828e+06 0 -2.66654e+06 6.50143e+06 0 -2.50393e+06 6.54544e+06 0 -2.34084e+06 6.5802e+06 0 -2.17796e+06 6.60566e+06 0 -2.01597e+06 6.62181e+06 0 -1.85558e+06 6.62868e+06 0 -1.69746e+06 6.62635e+06 0 -1.5423e+06 6.61496e+06 0 -1.3908e+06 6.59464e+06 0 -1.24362e+06 6.56559e+06 0 -1.10143e+06 6.52798e+06 0 -964917 6.48196e+06 0 -834744 6.42763e+06 0 -711623 6.36493e+06 0 -596310 6.29355e+06 0 -489700 6.21275e+06 0 -4.27696e+06 4.38952e+06 0 -4.20955e+06 4.52398e+06 0 -4.13478e+06 4.65619e+06 0 -4.05274e+06 4.78554e+06 0 -3.96361e+06 4.91138e+06 0 -3.8676e+06 5.03309e+06 0 -3.76501e+06 5.15007e+06 0 -3.6562e+06 5.26172e+06 0 -3.54159e+06 5.36751e+06 0 -3.42167e+06 5.46691e+06 0 -3.29697e+06 5.55945e+06 0 -3.16807e+06 5.64472e+06 0 -3.0356e+06 5.72236e+06 0 -2.90023e+06 5.79206e+06 0 -2.76266e+06 5.85362e+06 0 -2.62359e+06 5.90686e+06 0 -2.48376e+06 5.95171e+06 0 -2.3439e+06 5.98815e+06 0 -2.20473e+06 6.01625e+06 0 -2.06699e+06 6.03615e+06 0 -1.93136e+06 6.04805e+06 0 -1.79853e+06 6.05223e+06 0 -1.66915e+06 6.04904e+06 0 -1.54384e+06 6.03888e+06 0 -1.42317e+06 6.02224e+06 0 -1.30769e+06 5.99966e+06 0 -1.19789e+06 5.97178e+06 0 -1.09422e+06 5.93933e+06 0 -997092 5.9032e+06 0 -906837 5.86446e+06 0 -823708 5.82452e+06 0 -747785 5.7853e+06 0 -3.90899e+06 4.10461e+06 0 -3.85238e+06 4.22766e+06 0 -3.7887e+06 4.34895e+06 0 -3.71804e+06 4.46783e+06 0 -3.64055e+06 4.58363e+06 0 -3.55647e+06 4.69571e+06 0 -3.46608e+06 4.80344e+06 0 -3.36978e+06 4.90622e+06 0 -3.26801e+06 5.00347e+06 0 -3.16129e+06 5.09469e+06 0 -3.05019e+06 5.17941e+06 0 -2.93533e+06 5.25725e+06 0 -2.8174e+06 5.32787e+06 0 -2.69708e+06 5.39104e+06 0 -2.57511e+06 5.44659e+06 0 -2.45223e+06 5.49446e+06 0 -2.32917e+06 5.53464e+06 0 -2.20665e+06 5.56725e+06 0 -2.08539e+06 5.59245e+06 0 -1.96604e+06 5.6105e+06 0 -1.84925e+06 5.62174e+06 0 -1.73559e+06 5.62655e+06 0 -1.62557e+06 5.6254e+06 0 -1.51966e+06 5.61881e+06 0 -1.41821e+06 5.60732e+06 0 -1.32154e+06 5.59152e+06 0 -1.22983e+06 5.57202e+06 0 -1.14321e+06 5.5494e+06 0 -1.06166e+06 5.52421e+06 0 -985081 5.49687e+06 0 -913283 5.46761e+06 0 -845994 5.43622e+06 0 -3.60451e+06 3.88338e+06 0 -3.55603e+06 3.99666e+06 0 -3.50085e+06 4.10861e+06 0 -3.43904e+06 4.21857e+06 0 -3.37072e+06 4.32586e+06 0 -3.29612e+06 4.42984e+06 0 -3.21554e+06 4.52987e+06 0 -3.12934e+06 4.62534e+06 0 -3.03799e+06 4.7157e+06 0 -2.942e+06 4.80044e+06 0 -2.84197e+06 4.87911e+06 0 -2.73851e+06 4.95135e+06 0 -2.63232e+06 5.01686e+06 0 -2.52409e+06 5.07544e+06 0 -2.41455e+06 5.12699e+06 0 -2.30441e+06 5.17149e+06 0 -2.19438e+06 5.20899e+06 0 -2.08516e+06 5.23966e+06 0 -1.97739e+06 5.26373e+06 0 -1.87166e+06 5.28152e+06 0 -1.76853e+06 5.29339e+06 0 -1.66847e+06 5.29978e+06 0 -1.57188e+06 5.30117e+06 0 -1.4791e+06 5.29804e+06 0 -1.39037e+06 5.29093e+06 0 -1.30586e+06 5.28036e+06 0 -1.22569e+06 5.26683e+06 0 -1.14987e+06 5.25085e+06 0 -1.07841e+06 5.2329e+06 0 -1.01124e+06 5.21346e+06 0 -948281 5.19309e+06 0 -889399 5.17252e+06 0 -3.34882e+06 3.70646e+06 0 -3.3065e+06 3.81144e+06 0 -3.25787e+06 3.91544e+06 0 -3.20296e+06 4.01781e+06 0 -3.14191e+06 4.11788e+06 0 -3.07489e+06 4.21502e+06 0 -3.00219e+06 4.3086e+06 0 -2.92419e+06 4.39801e+06 0 -2.84131e+06 4.48272e+06 0 -2.75408e+06 4.56222e+06 0 -2.66307e+06 4.63609e+06 0 -2.5689e+06 4.70399e+06 0 -2.47223e+06 4.76564e+06 0 -2.37376e+06 4.82088e+06 0 -2.27417e+06 4.86963e+06 0 -2.17416e+06 4.91189e+06 0 -2.07439e+06 4.94778e+06 0 -1.97551e+06 4.97746e+06 0 -1.8781e+06 5.00121e+06 0 -1.7827e+06 5.01934e+06 0 -1.68978e+06 5.03223e+06 0 -1.59975e+06 5.04032e+06 0 -1.51293e+06 5.04404e+06 0 -1.42958e+06 5.04388e+06 0 -1.34988e+06 5.0403e+06 0 -1.27395e+06 5.03377e+06 0 -1.20184e+06 5.02474e+06 0 -1.13353e+06 5.01366e+06 0 -1.06898e+06 5.0009e+06 0 -1.00807e+06 4.98683e+06 0 -950649 4.97169e+06 0 -896545 4.95554e+06 0 -3.13116e+06 3.56129e+06 0 -3.09355e+06 3.65923e+06 0 -3.05e+06 3.75647e+06 0 -3.00054e+06 3.85238e+06 0 -2.94525e+06 3.94633e+06 0 -2.88433e+06 4.03768e+06 0 -2.81803e+06 4.12582e+06 0 -2.74669e+06 4.21016e+06 0 -2.67075e+06 4.29018e+06 0 -2.5907e+06 4.36539e+06 0 -2.50709e+06 4.43538e+06 0 -2.42053e+06 4.49983e+06 0 -2.33165e+06 4.55848e+06 0 -2.24112e+06 4.6112e+06 0 -2.14959e+06 4.65791e+06 0 -2.05773e+06 4.69864e+06 0 -1.96616e+06 4.73351e+06 0 -1.87547e+06 4.76271e+06 0 -1.7862e+06 4.7865e+06 0 -1.69883e+06 4.8052e+06 0 -1.61379e+06 4.81919e+06 0 -1.53141e+06 4.82885e+06 0 -1.45199e+06 4.83461e+06 0 -1.37573e+06 4.83691e+06 0 -1.30277e+06 4.83617e+06 0 -1.2332e+06 4.8328e+06 0 -1.16705e+06 4.82721e+06 0 -1.10429e+06 4.81976e+06 0 -1.04488e+06 4.81078e+06 0 -988717 4.80059e+06 0 -935718 4.78949e+06 0 -885738 4.77782e+06 0 -2.94357e+06 3.43941e+06 0 -2.90956e+06 3.53137e+06 0 -2.86998e+06 3.62286e+06 0 -2.82483e+06 3.71328e+06 0 -2.77418e+06 3.802e+06 0 -2.71818e+06 3.88843e+06 0 -2.65709e+06 3.97197e+06 0 -2.59122e+06 4.05204e+06 0 -2.52099e+06 4.12813e+06 0 -2.44686e+06 4.19978e+06 0 -2.36936e+06 4.26659e+06 0 -2.28908e+06 4.32825e+06 0 -2.20663e+06 4.38453e+06 0 -2.12263e+06 4.43529e+06 0 -2.03771e+06 4.48047e+06 0 -1.9525e+06 4.52011e+06 0 -1.86757e+06 4.55434e+06 0 -1.78348e+06 4.58333e+06 0 -1.70073e+06 4.60735e+06 0 -1.61976e+06 4.62669e+06 0 -1.54094e+06 4.64172e+06 0 -1.4646e+06 4.6528e+06 0 -1.39096e+06 4.66032e+06 0 -1.32022e+06 4.66468e+06 0 -1.25249e+06 4.66626e+06 0 -1.18785e+06 4.66544e+06 0 -1.12631e+06 4.66258e+06 0 -1.06786e+06 4.65801e+06 0 -1.01243e+06 4.65202e+06 0 -959955 4.6449e+06 0 -910317 4.63687e+06 0 -863402 4.62809e+06 0 -2.78004e+06 3.33499e+06 0 -2.74881e+06 3.42186e+06 0 -2.71235e+06 3.50845e+06 0 -2.67063e+06 3.59418e+06 0 -2.6237e+06 3.67846e+06 0 -2.57172e+06 3.76069e+06 0 -2.5149e+06 3.84031e+06 0 -2.45354e+06 3.91676e+06 0 -2.38804e+06 3.98955e+06 0 -2.31883e+06 4.05822e+06 0 -2.24642e+06 4.1224e+06 0 -2.17137e+06 4.18178e+06 0 -2.09426e+06 4.23614e+06 0 -2.01568e+06 4.28535e+06 0 -1.93623e+06 4.32937e+06 0 -1.8565e+06 4.36823e+06 0 -1.77704e+06 4.40204e+06 0 -1.69836e+06 4.431e+06 0 -1.62093e+06 4.45533e+06 0 -1.54515e+06 4.47534e+06 0 -1.47137e+06 4.49134e+06 0 -1.39987e+06 4.50368e+06 0 -1.33088e+06 4.51273e+06 0 -1.26456e+06 4.51885e+06 0 -1.20102e+06 4.52239e+06 0 -1.14031e+06 4.5237e+06 0 -1.08245e+06 4.52309e+06 0 -1.02743e+06 4.52086e+06 0 -975186 4.51729e+06 0 -925659 4.51262e+06 0 -878759 4.50706e+06 0 -834369 4.50083e+06 0 -2.636e+06 3.24393e+06 0 -2.60692e+06 3.32646e+06 0 -2.57291e+06 3.40886e+06 0 -2.53393e+06 3.49058e+06 0 -2.49003e+06 3.57105e+06 0 -2.44133e+06 3.6497e+06 0 -2.38803e+06 3.72598e+06 0 -2.33042e+06 3.79936e+06 0 -2.26885e+06 3.86934e+06 0 -2.20376e+06 3.93551e+06 0 -2.13562e+06 3.99749e+06 0 -2.06495e+06 4.05499e+06 0 -1.99232e+06 4.10779e+06 0 -1.91828e+06 4.15578e+06 0 -1.84341e+06 4.1989e+06 0 -1.76826e+06 4.23719e+06 0 -1.69334e+06 4.27076e+06 0 -1.61915e+06 4.29979e+06 0 -1.54612e+06 4.32449e+06 0 -1.47463e+06 4.34515e+06 0 -1.40499e+06 4.36206e+06 0 -1.33748e+06 4.37556e+06 0 -1.27229e+06 4.38596e+06 0 -1.20959e+06 4.39362e+06 0 -1.14945e+06 4.39885e+06 0 -1.09196e+06 4.40197e+06 0 -1.03711e+06 4.40328e+06 0 -984890 4.40304e+06 0 -935263 4.4015e+06 0 -888160 4.39889e+06 0 -843502 4.39541e+06 0 -801196 4.39123e+06 0 -2.50792e+06 3.16325e+06 0 -2.4805e+06 3.24207e+06 0 -2.44843e+06 3.32089e+06 0 -2.41166e+06 3.39918e+06 0 -2.37022e+06 3.47638e+06 0 -2.32421e+06 3.55197e+06 0 -2.27383e+06 3.62539e+06 0 -2.21935e+06 3.69614e+06 0 -2.16108e+06 3.76375e+06 0 -2.09945e+06 3.82781e+06 0 -2.0349e+06 3.88795e+06 0 -1.96793e+06 3.94389e+06 0 -1.89908e+06 3.99543e+06 0 -1.82888e+06 4.04244e+06 0 -1.75787e+06 4.08487e+06 0 -1.68658e+06 4.12277e+06 0 -1.61549e+06 4.15622e+06 0 -1.54507e+06 4.18539e+06 0 -1.47573e+06 4.2105e+06 0 -1.40782e+06 4.2318e+06 0 -1.34164e+06 4.24958e+06 0 -1.27745e+06 4.26413e+06 0 -1.21543e+06 4.27576e+06 0 -1.15573e+06 4.28479e+06 0 -1.09844e+06 4.29152e+06 0 -1.04361e+06 4.29623e+06 0 -991265 4.29921e+06 0 -941386 4.3007e+06 0 -893938 4.30093e+06 0 -848862 4.30011e+06 0 -806090 4.29842e+06 0 -765529 4.29603e+06 0 -2.39306e+06 3.09078e+06 0 -2.36693e+06 3.16644e+06 0 -2.33638e+06 3.24219e+06 0 -2.30138e+06 3.31752e+06 0 -2.26195e+06 3.39193e+06 0 -2.21817e+06 3.46488e+06 0 -2.17022e+06 3.53586e+06 0 -2.11834e+06 3.60437e+06 0 -2.06286e+06 3.66996e+06 0 -2.00415e+06 3.73223e+06 0 -1.94265e+06 3.79083e+06 0 -1.87883e+06 3.84548e+06 0 -1.81319e+06 3.89599e+06 0 -1.74625e+06 3.94222e+06 0 -1.67853e+06 3.98415e+06 0 -1.61051e+06 4.02178e+06 0 -1.54267e+06 4.05521e+06 0 -1.47545e+06 4.0846e+06 0 -1.40923e+06 4.11015e+06 0 -1.34435e+06 4.13209e+06 0 -1.2811e+06 4.15068e+06 0 -1.21971e+06 4.16622e+06 0 -1.16036e+06 4.17898e+06 0 -1.1032e+06 4.18926e+06 0 -1.0483e+06 4.19735e+06 0 -995731 4.2035e+06 0 -945499 4.20798e+06 0 -897599 4.21101e+06 0 -851998 4.21282e+06 0 -808645 4.21359e+06 0 -767476 4.2135e+06 0 -728412 4.21269e+06 0 -2.28926e+06 3.0249e+06 0 -2.2641e+06 3.09784e+06 0 -2.23475e+06 3.17095e+06 0 -2.20118e+06 3.24376e+06 0 -2.16338e+06 3.31576e+06 0 -2.12144e+06 3.38645e+06 0 -2.07552e+06 3.45534e+06 0 -2.02584e+06 3.52194e+06 0 -1.97271e+06 3.58582e+06 0 -1.91648e+06 3.64658e+06 0 -1.85757e+06 3.70389e+06 0 -1.79644e+06 3.75748e+06 0 -1.73355e+06 3.80715e+06 0 -1.6694e+06 3.85279e+06 0 -1.60448e+06 3.89433e+06 0 -1.53927e+06 3.93182e+06 0 -1.47421e+06 3.96532e+06 0 -1.40972e+06 3.99498e+06 0 -1.34617e+06 4.02099e+06 0 -1.28388e+06 4.04356e+06 0 -1.22313e+06 4.06296e+06 0 -1.16413e+06 4.07943e+06 0 -1.10706e+06 4.09326e+06 0 -1.05206e+06 4.1047e+06 0 -999214 4.11404e+06 0 -948567 4.12152e+06 0 -900145 4.12737e+06 0 -853941 4.13182e+06 0 -809926 4.13506e+06 0 -768056 4.13728e+06 0 -728273 4.13864e+06 0 -690504 4.13928e+06 0 -2.19479e+06 2.96436e+06 0 -2.17035e+06 3.03497e+06 0 -2.14194e+06 3.10582e+06 0 -2.1095e+06 3.17645e+06 0 -2.07304e+06 3.24639e+06 0 -2.03262e+06 3.31515e+06 0 -1.98839e+06 3.38224e+06 0 -1.94057e+06 3.44722e+06 0 -1.88943e+06 3.50964e+06 0 -1.83532e+06 3.56914e+06 0 -1.77862e+06 3.62537e+06 0 -1.71979e+06 3.6781e+06 0 -1.65926e+06 3.72711e+06 0 -1.59751e+06 3.77229e+06 0 -1.53501e+06 3.81358e+06 0 -1.47222e+06 3.85101e+06 0 -1.40955e+06 3.88465e+06 0 -1.34741e+06 3.91464e+06 0 -1.28616e+06 3.94113e+06 0 -1.2261e+06 3.96435e+06 0 -1.16749e+06 3.98453e+06 0 -1.11055e+06 4.00191e+06 0 -1.05545e+06 4.01675e+06 0 -1.00232e+06 4.02931e+06 0 -951230 4.03982e+06 0 -902248 4.04854e+06 0 -855390 4.05567e+06 0 -810656 4.06144e+06 0 -768020 4.06602e+06 0 -727442 4.0696e+06 0 -688870 4.07231e+06 0 -652239 4.0743e+06 0 -2.10824e+06 2.9082e+06 0 -2.08433e+06 2.97681e+06 0 -2.05664e+06 3.04573e+06 0 -2.02511e+06 3.1145e+06 0 -1.98973e+06 3.18267e+06 0 -1.95057e+06 3.24977e+06 0 -1.90775e+06 3.31534e+06 0 -1.86149e+06 3.37893e+06 0 -1.81204e+06 3.44013e+06 0 -1.75974e+06 3.49856e+06 0 -1.70495e+06 3.55392e+06 0 -1.64809e+06 3.60594e+06 0 -1.5896e+06 3.65444e+06 0 -1.52992e+06 3.69929e+06 0 -1.46951e+06 3.74044e+06 0 -1.4088e+06 3.7779e+06 0 -1.34821e+06 3.81175e+06 0 -1.28811e+06 3.8421e+06 0 -1.22884e+06 3.86911e+06 0 -1.17071e+06 3.89299e+06 0 -1.11397e+06 3.91394e+06 0 -1.05882e+06 3.93221e+06 0 -1.00542e+06 3.94804e+06 0 -953903 3.96165e+06 0 -904352 3.9733e+06 0 -856819 3.9832e+06 0 -811329 3.99156e+06 0 -767880 3.99857e+06 0 -726454 4.00443e+06 0 -687015 4.00928e+06 0 -649516 4.01328e+06 0 -613895 4.01654e+06 0 -2.0285e+06 2.85566e+06 0 -2.00495e+06 2.92258e+06 0 -1.9778e+06 2.98984e+06 0 -1.94698e+06 3.05702e+06 0 -1.91247e+06 3.12368e+06 0 -1.87434e+06 3.18937e+06 0 -1.83271e+06 3.25364e+06 0 -1.78776e+06 3.31606e+06 0 -1.73975e+06 3.37623e+06 0 -1.68899e+06 3.43379e+06 0 -1.63583e+06 3.48843e+06 0 -1.58068e+06 3.5399e+06 0 -1.52395e+06 3.58801e+06 0 -1.46606e+06 3.63264e+06 0 -1.40747e+06 3.67375e+06 0 -1.34857e+06 3.71132e+06 0 -1.28978e+06 3.74543e+06 0 -1.23145e+06 3.77619e+06 0 -1.17392e+06 3.80375e+06 0 -1.11747e+06 3.8283e+06 0 -1.06235e+06 3.85004e+06 0 -1.00876e+06 3.86918e+06 0 -956849 3.88597e+06 0 -906750 3.90063e+06 0 -858543 3.91337e+06 0 -812283 3.92441e+06 0 -767995 3.93395e+06 0 -725683 3.94217e+06 0 -685330 3.94925e+06 0 -646904 3.95534e+06 0 -610363 3.96057e+06 0 -575651 3.96507e+06 0 -1.95463e+06 2.80617e+06 0 -1.9313e+06 2.87163e+06 0 -1.90454e+06 2.93748e+06 0 -1.87426e+06 3.0033e+06 0 -1.84045e+06 3.06868e+06 0 -1.80316e+06 3.13317e+06 0 -1.76251e+06 3.19635e+06 0 -1.71867e+06 3.25779e+06 0 -1.67188e+06 3.31711e+06 0 -1.62244e+06 3.37395e+06 0 -1.57069e+06 3.42802e+06 0 -1.51701e+06 3.47907e+06 0 -1.4618e+06 3.52691e+06 0 -1.40548e+06 3.57143e+06 0 -1.34846e+06 3.61257e+06 0 -1.29115e+06 3.65032e+06 0 -1.23392e+06 3.68476e+06 0 -1.17714e+06 3.71597e+06 0 -1.12113e+06 3.74411e+06 0 -1.06615e+06 3.76934e+06 0 -1.01245e+06 3.79187e+06 0 -960219 3.8119e+06 0 -909619 3.82964e+06 0 -860766 3.84532e+06 0 -813746 3.85914e+06 0 -768611 3.8713e+06 0 -725390 3.88199e+06 0 -684089 3.8914e+06 0 -644695 3.89967e+06 0 -607180 3.90697e+06 0 -571506 3.9134e+06 0 -537620 3.91911e+06 0 -1.88585e+06 2.75922e+06 0 -1.86264e+06 2.82346e+06 0 -1.83613e+06 2.88811e+06 0 -1.80625e+06 2.95279e+06 0 -1.77299e+06 3.01708e+06 0 -1.73639e+06 3.08056e+06 0 -1.69655e+06 3.14282e+06 0 -1.65363e+06 3.20345e+06 0 -1.60788e+06 3.26207e+06 0 -1.55957e+06 3.31835e+06 0 -1.50903e+06 3.37198e+06 0 -1.45662e+06 3.42272e+06 0 -1.40273e+06 3.4704e+06 0 -1.34776e+06 3.51489e+06 0 -1.29212e+06 3.55614e+06 0 -1.23618e+06 3.59415e+06 0 -1.18033e+06 3.62895e+06 0 -1.12491e+06 3.66067e+06 0 -1.07022e+06 3.68941e+06 0 -1.01653e+06 3.71536e+06 0 -964082 3.73869e+06 0 -913057 3.75961e+06 0 -863610 3.77831e+06 0 -815860 3.795e+06 0 -769890 3.80989e+06 0 -725757 3.82316e+06 0 -683489 3.83499e+06 0 -643095 3.84556e+06 0 -604566 3.85502e+06 0 -567877 3.8635e+06 0 -532994 3.87114e+06 0 -499868 3.87804e+06 0 -1.82153e+06 2.71444e+06 0 -1.79833e+06 2.77764e+06 0 -1.77197e+06 2.84129e+06 0 -1.74238e+06 2.90501e+06 0 -1.70953e+06 2.96839e+06 0 -1.67347e+06 3.03104e+06 0 -1.63429e+06 3.09254e+06 0 -1.59216e+06 3.15251e+06 0 -1.54728e+06 3.21057e+06 0 -1.49993e+06 3.2664e+06 0 -1.45042e+06 3.31971e+06 0 -1.39911e+06 3.37025e+06 0 -1.34636e+06 3.41786e+06 0 -1.29258e+06 3.46241e+06 0 -1.23813e+06 3.50385e+06 0 -1.1834e+06 3.54216e+06 0 -1.12876e+06 3.57739e+06 0 -1.07452e+06 3.60964e+06 0 -1.021e+06 3.63903e+06 0 -968448 3.66571e+06 0 -917097 3.68987e+06 0 -867134 3.71168e+06 0 -818709 3.73135e+06 0 -771937 3.74906e+06 0 -726904 3.76502e+06 0 -683666 3.7794e+06 0 -642254 3.79237e+06 0 -602680 3.80411e+06 0 -564937 3.81474e+06 0 -529005 3.82442e+06 0 -494851 3.83325e+06 0 -462433 3.84134e+06 0 -1.76112e+06 2.67149e+06 0 -1.73785e+06 2.73385e+06 0 -1.71154e+06 2.79666e+06 0 -1.68213e+06 2.85958e+06 0 -1.64959e+06 2.92222e+06 0 -1.61396e+06 2.98417e+06 0 -1.57531e+06 3.04506e+06 0 -1.53382e+06 3.1045e+06 0 -1.48967e+06 3.16214e+06 0 -1.44314e+06 3.21764e+06 0 -1.39452e+06 3.27072e+06 0 -1.34415e+06 3.32117e+06 0 -1.2924e+06 3.36879e+06 0 -1.23963e+06 3.41348e+06 0 -1.18623e+06 3.45516e+06 0 -1.13256e+06 3.49384e+06 0 -1.07897e+06 3.52955e+06 0 -1.02577e+06 3.56238e+06 0 -973275 3.59244e+06 0 -921726 3.61989e+06 0 -871348 3.64488e+06 0 -822326 3.66761e+06 0 -774807 3.68825e+06 0 -728907 3.707e+06 0 -684711 3.72404e+06 0 -642277 3.73953e+06 0 -601639 3.75365e+06 0 -562810 3.76656e+06 0 -525787 3.77838e+06 0 -490554 3.78926e+06 0 -457080 3.79929e+06 0 -425329 3.8086e+06 0 -1.70417e+06 2.63013e+06 0 -1.68074e+06 2.69179e+06 0 -1.65441e+06 2.75392e+06 0 -1.6251e+06 2.81619e+06 0 -1.59276e+06 2.87822e+06 0 -1.55745e+06 2.93963e+06 0 -1.51923e+06 3.00003e+06 0 -1.47825e+06 3.05906e+06 0 -1.43472e+06 3.11638e+06 0 -1.38887e+06 3.17165e+06 0 -1.34101e+06 3.22462e+06 0 -1.29145e+06 3.27505e+06 0 -1.24056e+06 3.32276e+06 0 -1.18868e+06 3.36765e+06 0 -1.13619e+06 3.40965e+06 0 -1.08343e+06 3.44875e+06 0 -1.03076e+06 3.48498e+06 0 -978486 3.51842e+06 0 -926889 3.54919e+06 0 -876223 3.57743e+06 0 -826704 3.6033e+06 0 -778515 3.62696e+06 0 -731802 3.64861e+06 0 -686681 3.6684e+06 0 -643237 3.68653e+06 0 -601528 3.70316e+06 0 -561593 3.71844e+06 0 -523446 3.73253e+06 0 -487088 3.74556e+06 0 -452505 3.75765e+06 0 -419672 3.76892e+06 0 -388555 3.77945e+06 0 -1.65027e+06 2.59013e+06 0 -1.62664e+06 2.65123e+06 0 -1.60021e+06 2.71282e+06 0 -1.57091e+06 2.77457e+06 0 -1.5387e+06 2.83612e+06 0 -1.50361e+06 2.8971e+06 0 -1.46572e+06 2.95713e+06 0 -1.42516e+06 3.01587e+06 0 -1.38213e+06 3.07297e+06 0 -1.33686e+06 3.12811e+06 0 -1.28963e+06 3.18104e+06 0 -1.24077e+06 3.23153e+06 0 -1.19061e+06 3.27942e+06 0 -1.1395e+06 3.32457e+06 0 -1.08779e+06 3.36694e+06 0 -1.03584e+06 3.40651e+06 0 -983976 3.44331e+06 0 -932501 3.47741e+06 0 -881695 3.50893e+06 0 -831806 3.53799e+06 0 -783047 3.56475e+06 0 -735597 3.58938e+06 0 -689601 3.61204e+06 0 -645176 3.63291e+06 0 -602408 3.65215e+06 0 -561357 3.66993e+06 0 -522062 3.6864e+06 0 -484543 3.7017e+06 0 -448803 3.71596e+06 0 -414832 3.7293e+06 0 -382608 3.74182e+06 0 -352101 3.75361e+06 0 -1.59909e+06 2.5513e+06 0 -1.5752e+06 2.61197e+06 0 -1.54862e+06 2.67315e+06 0 -1.51926e+06 2.7345e+06 0 -1.4871e+06 2.79568e+06 0 -1.45216e+06 2.85634e+06 0 -1.41451e+06 2.91612e+06 0 -1.37427e+06 2.97465e+06 0 -1.33164e+06 3.03162e+06 0 -1.28685e+06 3.08673e+06 0 -1.24016e+06 3.1397e+06 0 -1.19188e+06 3.19033e+06 0 -1.14235e+06 3.23845e+06 0 -1.0919e+06 3.28393e+06 0 -1.04087e+06 3.32673e+06 0 -989618 3.36681e+06 0 -938452 3.40422e+06 0 -887676 3.43902e+06 0 -837564 3.47132e+06 0 -788358 3.50124e+06 0 -740268 3.52893e+06 0 -693472 3.55454e+06 0 -648115 3.57825e+06 0 -604313 3.60021e+06 0 -562153 3.6206e+06 0 -521699 3.63956e+06 0 -482992 3.65724e+06 0 -446054 3.67378e+06 0 -410893 3.68931e+06 0 -377501 3.70393e+06 0 -345862 3.71774e+06 0 -315950 3.73084e+06 0 -1.55036e+06 2.51349e+06 0 -1.52616e+06 2.57385e+06 0 -1.49936e+06 2.63472e+06 0 -1.46989e+06 2.69578e+06 0 -1.43771e+06 2.75671e+06 0 -1.40284e+06 2.81715e+06 0 -1.36535e+06 2.87676e+06 0 -1.32536e+06 2.93518e+06 0 -1.28305e+06 2.99212e+06 0 -1.23864e+06 3.04726e+06 0 -1.19239e+06 3.10035e+06 0 -1.14461e+06 3.15119e+06 0 -1.0956e+06 3.1996e+06 0 -1.04571e+06 3.24547e+06 0 -995274 3.28874e+06 0 -944616 3.32939e+06 0 -894056 3.36745e+06 0 -843888 3.40299e+06 0 -794380 3.4361e+06 0 -745772 3.46691e+06 0 -698270 3.49556e+06 0 -652052 3.52219e+06 0 -607262 3.54698e+06 0 -564017 3.57007e+06 0 -522406 3.59163e+06 0 -482495 3.6118e+06 0 -444328 3.63073e+06 0 -407932 3.64855e+06 0 -373316 3.66538e+06 0 -340478 3.68132e+06 0 -309406 3.69647e+06 0 -280078 3.71092e+06 0 -1.5038e+06 2.47656e+06 0 -1.47925e+06 2.53672e+06 0 -1.4522e+06 2.59738e+06 0 -1.42256e+06 2.65826e+06 0 -1.39031e+06 2.71903e+06 0 -1.35545e+06 2.77934e+06 0 -1.31805e+06 2.83886e+06 0 -1.27823e+06 2.89727e+06 0 -1.23615e+06 2.95424e+06 0 -1.19204e+06 3.00949e+06 0 -1.14616e+06 3.06277e+06 0 -1.09877e+06 3.11387e+06 0 -1.05021e+06 3.16263e+06 0 -1.0008e+06 3.20895e+06 0 -950854 3.25274e+06 0 -900708 3.294e+06 0 -850668 3.33276e+06 0 -801023 3.36907e+06 0 -752038 3.40304e+06 0 -703949 3.43477e+06 0 -656962 3.46441e+06 0 -611252 3.4921e+06 0 -566964 3.51799e+06 0 -524216 3.54225e+06 0 -483100 3.56502e+06 0 -443684 3.58645e+06 0 -406016 3.60667e+06 0 -370126 3.62581e+06 0 -336028 3.64398e+06 0 -303725 3.6613e+06 0 -273207 3.67784e+06 0 -244460 3.69369e+06 0 -1.45921e+06 2.44042e+06 0 -1.43428e+06 2.50046e+06 0 -1.40692e+06 2.56102e+06 0 -1.37707e+06 2.6218e+06 0 -1.34469e+06 2.68249e+06 0 -1.30978e+06 2.74276e+06 0 -1.27241e+06 2.80228e+06 0 -1.23269e+06 2.86073e+06 0 -1.19079e+06 2.91781e+06 0 -1.14691e+06 2.97324e+06 0 -1.1013e+06 3.02677e+06 0 -1.05424e+06 3.0782e+06 0 -1.00605e+06 3.12737e+06 0 -957022 3.17417e+06 0 -907494 3.21853e+06 0 -857779 3.26045e+06 0 -808179 3.29995e+06 0 -758981 3.33707e+06 0 -710445 3.37193e+06 0 -662803 3.40462e+06 0 -616262 3.43528e+06 0 -570995 3.46406e+06 0 -527150 3.49111e+06 0 -484844 3.51656e+06 0 -444174 3.54058e+06 0 -405210 3.56331e+06 0 -368003 3.58486e+06 0 -332588 3.60537e+06 0 -298985 3.62495e+06 0 -267200 3.6437e+06 0 -237231 3.66169e+06 0 -209066 3.67902e+06 0 -1.4164e+06 2.40495e+06 0 -1.39104e+06 2.46496e+06 0 -1.36335e+06 2.5255e+06 0 -1.33325e+06 2.58627e+06 0 -1.30069e+06 2.64696e+06 0 -1.26568e+06 2.70726e+06 0 -1.22828e+06 2.76686e+06 0 -1.1886e+06 2.82543e+06 0 -1.1468e+06 2.88269e+06 0 -1.10308e+06 2.93835e+06 0 -1.05769e+06 2.99219e+06 0 -1.01089e+06 3.044e+06 0 -962978 3.09362e+06 0 -914273 3.14096e+06 0 -865085 3.18594e+06 0 -815726 3.22856e+06 0 -766494 3.26883e+06 0 -717671 3.3068e+06 0 -669513 3.34258e+06 0 -622252 3.37627e+06 0 -576093 3.408e+06 0 -531210 3.43791e+06 0 -487751 3.46614e+06 0 -445838 3.49285e+06 0 -405567 3.51816e+06 0 -367014 3.54223e+06 0 -330235 3.56517e+06 0 -295269 3.58711e+06 0 -262142 3.60815e+06 0 -230865 3.62839e+06 0 -201442 3.6479e+06 0 -173866 3.66677e+06 0 -1.37519e+06 2.37008e+06 0 -1.34939e+06 2.43015e+06 0 -1.32133e+06 2.49074e+06 0 -1.29093e+06 2.55157e+06 0 -1.25815e+06 2.61234e+06 0 -1.22299e+06 2.67275e+06 0 -1.18552e+06 2.73248e+06 0 -1.14583e+06 2.79124e+06 0 -1.10407e+06 2.84873e+06 0 -1.06045e+06 2.90469e+06 0 -1.0152e+06 2.95888e+06 0 -968590 3.01112e+06 0 -920903 3.06125e+06 0 -872447 3.10917e+06 0 -823530 3.15481e+06 0 -774458 3.19816e+06 0 -725525 3.23925e+06 0 -677009 3.27812e+06 0 -629165 3.31486e+06 0 -582223 3.34958e+06 0 -536386 3.38242e+06 0 -491830 3.41349e+06 0 -448705 3.44296e+06 0 -407135 3.47095e+06 0 -367221 3.49761e+06 0 -329042 3.52307e+06 0 -292661 3.54746e+06 0 -258120 3.57089e+06 0 -225453 3.59346e+06 0 -194677 3.61526e+06 0 -165802 3.63637e+06 0 -138829 3.65687e+06 0 -1.33545e+06 2.33573e+06 0 -1.30918e+06 2.39594e+06 0 -1.28072e+06 2.45665e+06 0 -1.24999e+06 2.51761e+06 0 -1.21695e+06 2.57852e+06 0 -1.1816e+06 2.6391e+06 0 -1.144e+06 2.69904e+06 0 -1.10425e+06 2.75804e+06 0 -1.06248e+06 2.81582e+06 0 -1.01891e+06 2.87212e+06 0 -973743 2.92673e+06 0 -927255 2.97945e+06 0 -879726 3.03013e+06 0 -831454 3.07867e+06 0 -782742 3.12501e+06 0 -733893 3.16913e+06 0 -685195 3.21107e+06 0 -636923 3.25086e+06 0 -589330 3.28861e+06 0 -542646 3.32441e+06 0 -497074 3.35839e+06 0 -452791 3.39068e+06 0 -409950 3.42142e+06 0 -368678 3.45075e+06 0 -329080 3.47881e+06 0 -291241 3.50572e+06 0 -255228 3.53162e+06 0 -221092 3.5566e+06 0 -188872 3.58078e+06 0 -158593 3.60422e+06 0 -130274 3.62702e+06 0 -103923 3.64923e+06 0 -1.29704e+06 2.30185e+06 0 -1.27027e+06 2.36225e+06 0 -1.24139e+06 2.42316e+06 0 -1.2103e+06 2.48431e+06 0 -1.17697e+06 2.54543e+06 0 -1.14139e+06 2.60624e+06 0 -1.10362e+06 2.66643e+06 0 -1.06375e+06 2.72573e+06 0 -1.02193e+06 2.78385e+06 0 -978345 2.84055e+06 0 -933212 2.89562e+06 0 -886791 2.94885e+06 0 -839360 3.00012e+06 0 -791212 3.04933e+06 0 -742645 3.0964e+06 0 -693956 3.14134e+06 0 -645431 3.18417e+06 0 -597343 3.22493e+06 0 -549942 3.26371e+06 0 -503459 3.30063e+06 0 -458097 3.33579e+06 0 -414035 3.36934e+06 0 -371430 3.40141e+06 0 -330411 3.43213e+06 0 -291090 3.46164e+06 0 -253557 3.49008e+06 0 -217886 3.51755e+06 0 -184136 3.54417e+06 0 -152352 3.57002e+06 0 -122572 3.59521e+06 0 -94818.9 3.61978e+06 0 -69113.9 3.6438e+06 0 -1.25984e+06 2.26838e+06 0 -1.23257e+06 2.32905e+06 0 -1.20323e+06 2.3902e+06 0 -1.17176e+06 2.45161e+06 0 -1.1381e+06 2.51299e+06 0 -1.10226e+06 2.57408e+06 0 -1.06428e+06 2.63458e+06 0 -1.02426e+06 2.69422e+06 0 -982332 2.75274e+06 0 -938682 2.80988e+06 0 -893529 2.86544e+06 0 -847121 2.91924e+06 0 -799732 2.97114e+06 0 -751650 3.02104e+06 0 -703169 3.0689e+06 0 -654581 3.11468e+06 0 -606171 3.15843e+06 0 -558207 3.2002e+06 0 -510942 3.24006e+06 0 -464603 3.27813e+06 0 -419397 3.31452e+06 0 -375506 3.34938e+06 0 -333088 3.38282e+06 0 -292280 3.41499e+06 0 -253197 3.44603e+06 0 -215937 3.47605e+06 0 -180583 3.50517e+06 0 -147201 3.5335e+06 0 -115847 3.56113e+06 0 -86567.2 3.58814e+06 0 -59398.6 3.6146e+06 0 -34369.2 3.64055e+06 0 -1.22375e+06 2.23528e+06 0 -1.19596e+06 2.29626e+06 0 -1.16616e+06 2.35772e+06 0 -1.13427e+06 2.41943e+06 0 -1.10026e+06 2.48113e+06 0 -1.06412e+06 2.54255e+06 0 -1.02589e+06 2.60341e+06 0 -985675 2.66344e+06 0 -943599 2.72239e+06 0 -899842 2.78002e+06 0 -854617 2.83612e+06 0 -808171 2.89052e+06 0 -760771 2.94308e+06 0 -712700 2.99372e+06 0 -664249 3.04238e+06 0 -615706 3.08906e+06 0 -567353 3.13376e+06 0 -519458 3.17657e+06 0 -472271 3.21755e+06 0 -426023 3.25682e+06 0 -380920 3.29448e+06 0 -337149 3.33069e+06 0 -294871 3.36557e+06 0 -254230 3.39925e+06 0 -215347 3.43187e+06 0 -178330 3.46355e+06 0 -143267 3.4944e+06 0 -110238 3.52454e+06 0 -79309.5 3.55405e+06 0 -50535.8 3.583e+06 0 -23978 3.61145e+06 0 360.759 3.63944e+06 0 </DataArray> 
</PointData> 
<Points> 
<DataArray type="Float32" NumberOfComponents="3"> 