<?xml version="1.0"?> 
<VTKFile type="StructuredGrid" version="0.1"> 
<StructuredGrid WholeExtent="0 31 0 31 0 0"> 
<Piece Extent="0 31 0 31 0 0"> 
<PointData>
<DataArray type="Float32" Name="|E|" format="ascii" NumberOfComponents="3"> 
-867489 0 0 -867026 31373.4 0 -866741 62760 0 -866634 94166.8 0 -866703 125600 0 -866950 157068 0 -867373 188575 0 -867972 220130 0 -868746 251739 0 -869695 283408 0 -870819 315145 0 -872116 346955 0 -873586 378846 0 -875229 410823 0 -877044 442893 0 -879031 475062 0 -881189 507337 0 -883518 539724 0 -886017 572229 0 -888687 604858 0 -891528 637617 0 -894538 670512 0 -897719 703549 0 -901071 736733 0 -904593 770070 0 -908287 803566 0 -912154 837227 0 -916194 871059 0 -920408 905066 0 -924799 939256 0 -929368 973633 0 -934119 1.00821e+06 0 -840775 0 0 -840327 32031.1 0 -840057 64075.5 0 -839965 96140.2 0 -840049 128232 0 -840311 160359 0 -840748 192528 0 -841362 224745 0 -842150 257019 0 -843113 289354 0 -844251 321760 0 -845562 354242 0 -847046 386808 0 -848703 419463 0 -850533 452216 0 -852534 485072 0 -854707 518038 0 -857052 551121 0 -859567 584327 0 -862253 617663 0 -865110 651134 0 -868138 684748 0 -871337 718510 0 -874708 752427 0 -878251 786504 0 -881966 820748 0 -885856 855166 0 -889920 889763 0 -894161 924545 0 -898579 959519 0 -903178 994692 0 -907959 1.03007e+06 0 -813937 0 0 -813504 32688.5 0 -813249 65390.4 0 -813171 98112.9 0 -813269 130864 0 -813544 163650 0 -813995 196480 0 -814621 229359 0 -815422 262297 0 -816398 295300 0 -817547 328375 0 -818870 361529 0 -820366 394770 0 -822034 428105 0 -823874 461541 0 -825887 495085 0 -828071 528744 0 -830426 562525 0 -832953 596434 0 -835650 630478 0 -838519 664664 0 -841560 698999 0 -844772 733490 0 -848156 768143 0 -851713 802964 0 -855443 837961 0 -859349 873139 0 -863430 908507 0 -867689 944069 0 -872128 979835 0 -876748 1.01581e+06 0 -881553 1.052e+06 0 -786977 0 0 -786560 33345.5 0 -786320 66704.3 0 -786256 100084 0 -786368 133493 0 -786655 166939 0 -787118 200428 0 -787755 233971 0 -788567 267572 0 -789552 301242 0 -790711 334986 0 -792043 368814 0 -793547 402731 0 -795223 436746 0 -797071 470866 0 -799091 505099 0 -801282 539451 0 -803644 573931 0 -806177 608544 0 -808881 643299 0 -811757 678203 0 -814804 713262 0 -818023 748484 0 -821414 783876 0 -824979 819445 0 -828718 855198 0 -832632 891143 0 -836724 927286 0 -840994 963634 0 -845444 1.0002e+06 0 -850077 1.03698e+06 0 -854896 1.07399e+06 0 -759901 0 0 -759500 34001.7 0 -759274 68016.8 0 -759223 102053 0 -759348 136120 0 -759647 170224 0 -760120 204374 0 -760767 238577 0 -761587 272843 0 -762581 307179 0 -763746 341593 0 -765084 376093 0 -766594 410687 0 -768274 445382 0 -770126 480187 0 -772149 515109 0 -774343 550156 0 -776707 585336 0 -779242 620656 0 -781948 656123 0 -784824 691746 0 -787872 727532 0 -791092 763488 0 -794484 799623 0 -798050 835943 0 -801790 872456 0 -805706 909171 0 -809799 946094 0 -814072 983234 0 -818525 1.0206e+06 0 -823161 1.0582e+06 0 -827984 1.09604e+06 0 -732713 0 0 -732327 34657 0 -732116 69327.4 0 -732078 104020 0 -732214 138743 0 -732524 173504 0 -733006 208314 0 -733661 243179 0 -734488 278108 0 -735486 313110 0 -736656 348193 0 -737997 383366 0 -739509 418636 0 -741191 454012 0 -743043 489501 0 -745065 525114 0 -747257 560856 0 -749618 596737 0 -752150 632764 0 -754852 668946 0 -757724 705290 0 -760766 741805 0 -763981 778498 0 -767367 815378 0 -770927 852452 0 -774660 889729 0 -778570 927218 0 -782657 964927 0 -786922 1.00286e+06 0 -791369 1.04104e+06 0 -795999 1.07946e+06 0 -800815 1.11813e+06 0 -705417 0 0 -705047 35311.1 0 -704849 70635.7 0 -704824 105983 0 -704971 141361 0 -705290 176779 0 -705780 212247 0 -706440 247772 0 -707272 283364 0 -708273 319032 0 -709445 354784 0 -710786 390628 0 -712296 426574 0 -713975 462631 0 -715823 498806 0 -717840 535108 0 -720026 571547 0 -722380 608130 0 -724903 644866 0 -727595 681763 0 -730456 718830 0 -733487 756075 0 -736689 793508 0 -740063 831135 0 -743609 868968 0 -747328 907013 0 -751223 945279 0 -755294 983777 0 -759544 1.02252e+06 0 -763975 1.0615e+06 0 -768588 1.10075e+06 0 -773386 1.14027e+06 0 -678017 0 0 -677662 35963.8 0 -677478 71941.1 0 -677465 107941 0 -677622 143974 0 -677948 180048 0 -678444 216173 0 -679109 252357 0 -679943 288611 0 -680945 324943 0 -682115 361363 0 -683453 397879 0 -684958 434501 0 -686631 471237 0 -688471 508098 0 -690478 545091 0 -692652 582225 0 -694993 619511 0 -697502 656956 0 -700179 694570 0 -703023 732361 0 -706037 770339 0 -709219 808513 0 -712572 846892 0 -716097 885484 0 -719794 924300 0 -723665 963349 0 -727712 1.00264e+06 0 -731936 1.04218e+06 0 -736340 1.08199e+06 0 -740925 1.12207e+06 0 -745695 1.16244e+06 0 -650517 0 0 -650178 36614.8 0 -650007 73243.4 0 -650005 109895 0 -650171 146580 0 -650504 183308 0 -651004 220089 0 -651672 256931 0 -652505 293846 0 -653505 330841 0 -654671 367928 0 -656002 405115 0 -657499 442411 0 -659161 479828 0 -660989 517373 0 -662981 555057 0 -665139 592888 0 -667462 630877 0 -669951 669032 0 -672606 707364 0 -675427 745881 0 -678415 784593 0 -681572 823510 0 -684897 862641 0 -688392 901997 0 -692057 941586 0 -695896 981420 0 -699909 1.02151e+06 0 -704097 1.06186e+06 0 -708463 1.10249e+06 0 -713010 1.14341e+06 0 -717738 1.18463e+06 0 -622921 0 0 -622598 37264 0 -622441 74541.9 0 -622449 111844 0 -622622 149180 0 -622961 186560 0 -623464 223994 0 -624131 261493 0 -624962 299067 0 -625957 336724 0 -627115 374477 0 -628437 412333 0 -629921 450304 0 -631569 488400 0 -633379 526629 0 -635353 565003 0 -637489 603531 0 -639788 642223 0 -642251 681089 0 -644878 720139 0 -647669 759383 0 -650625 798830 0 -653748 838492 0 -657036 878378 0 -660493 918499 0 -664119 958866 0 -667916 999488 0 -671884 1.04038e+06 0 -676026 1.08155e+06 0 -680344 1.12301e+06 0 -684839 1.16477e+06 0 -689513 1.20685e+06 0 -595233 0 0 -594926 37911.1 0 -594782 75836.2 0 -594800 113786 0 -594980 151771 0 -595322 189801 0 -595826 227888 0 -596491 266041 0 -597318 304272 0 -598305 342591 0 -599452 381007 0 -600760 419532 0 -602229 458176 0 -603857 496950 0 -605646 535863 0 -607595 574927 0 -609704 614151 0 -611974 653546 0 -614405 693123 0 -616997 732892 0 -619751 772863 0 -622668 813047 0 -625748 853456 0 -628993 894098 0 -632403 934987 0 -635979 976132 0 -639724 1.01755e+06 0 -643638 1.05924e+06 0 -647723 1.10123e+06 0 -651980 1.14352e+06 0 -656412 1.18613e+06 0 -661020 1.22907e+06 0 -567459 0 0 -567167 38555.8 0 -567035 77125.9 0 -567062 115721 0 -567248 154353 0 -567593 193031 0 -568096 231768 0 -568757 270574 0 -569575 309460 0 -570552 348438 0 -571685 387517 0 -572976 426709 0 -574424 466025 0 -576029 505476 0 -577792 545072 0 -579711 584824 0 -581788 624744 0 -584022 664843 0 -586415 705130 0 -588965 745618 0 -591675 786317 0 -594545 827239 0 -597575 868395 0 -600766 909796 0 -604120 951454 0 -607638 993381 0 -611321 1.03559e+06 0 -615169 1.07809e+06 0 -619186 1.1209e+06 0 -623371 1.16402e+06 0 -627727 1.20748e+06 0 -632254 1.25129e+06 0 -539601 0 0 -539325 39198 0 -539205 78410.4 0 -539240 117649 0 -539431 156924 0 -539776 196249 0 -540276 235634 0 -540930 275090 0 -541739 314630 0 -542702 354264 0 -543818 394004 0 -545088 433861 0 -546511 473847 0 -548089 513973 0 -549819 554251 0 -551704 594692 0 -553742 635307 0 -555935 676108 0 -558282 717106 0 -560785 758313 0 -563443 799741 0 -566257 841401 0 -569229 883305 0 -572358 925465 0 -575647 967894 0 -579096 1.0106e+06 0 -582706 1.05361e+06 0 -586479 1.09692e+06 0 -590415 1.14055e+06 0 -594516 1.18452e+06 0 -598783 1.22883e+06 0 -603217 1.27351e+06 0 -511663 0 0 -511403 39837.4 0 -511295 79689.4 0 -511338 119568 0 -511531 159485 0 -511876 199453 0 -512371 239483 0 -513017 279587 0 -513812 319778 0 -514758 360066 0 -515853 400465 0 -517098 440986 0 -518493 481640 0 -520038 522441 0 -521732 563399 0 -523576 604526 0 -525570 645836 0 -527715 687338 0 -530010 729047 0 -532457 770973 0 -535055 813129 0 -537807 855527 0 -540711 898181 0 -543770 941101 0 -546984 984303 0 -550354 1.0278e+06 0 -553881 1.0716e+06 0 -557566 1.11572e+06 0 -561411 1.16018e+06 0 -565415 1.20499e+06 0 -569580 1.25016e+06 0 -573905 1.29571e+06 0 -483651 0 0 -483407 40473.7 0 -483309 80962.3 0 -483359 121478 0 -483555 162034 0 -483897 202642 0 -484385 243314 0 -485019 284064 0 -485799 324903 0 -486725 365844 0 -487795 406899 0 -489012 448081 0 -490373 489402 0 -491880 530874 0 -493532 572511 0 -495330 614324 0 -497274 656326 0 -499364 698530 0 -501600 740948 0 -503984 783592 0 -506515 826477 0 -509195 869614 0 -512024 913017 0 -515002 956699 0 -518131 1.00067e+06 0 -521412 1.04495e+06 0 -524845 1.08956e+06 0 -528432 1.13449e+06 0 -532172 1.17978e+06 0 -536066 1.22543e+06 0 -540116 1.27146e+06 0 -544320 1.31789e+06 0 -455568 0 0 -455339 41106.8 0 -455253 82228.6 0 -455308 123379 0 -455504 164570 0 -455842 205815 0 -456322 247127 0 -456942 288518 0 -457703 330003 0 -458605 371593 0 -459648 413302 0 -460831 455143 0 -462154 497128 0 -463619 539271 0 -465224 581584 0 -466970 624081 0 -468857 666775 0 -470885 709678 0 -473056 752805 0 -475369 796167 0 -477825 839780 0 -480424 883655 0 -483168 927808 0 -486056 972251 0 -489091 1.017e+06 0 -492272 1.06207e+06 0 -495600 1.10747e+06 0 -499075 1.15322e+06 0 -502699 1.19934e+06 0 -506471 1.24583e+06 0 -510391 1.29273e+06 0 -514459 1.34003e+06 0 -427419 0 0 -427205 41736.3 0 -427128 83488 0 -427188 125269 0 -427384 167092 0 -427717 208970 0 -428185 250918 0 -428789 292949 0 -429528 335077 0 -430403 377314 0 -431414 419674 0 -432559 462170 0 -433840 504817 0 -435257 547628 0 -436809 590616 0 -438497 633795 0 -440321 677178 0 -442281 720780 0 -444378 764614 0 -446613 808693 0 -448985 853033 0 -451496 897647 0 -454145 942549 0 -456934 987754 0 -459863 1.03328e+06 0 -462934 1.07913e+06 0 -466145 1.12534e+06 0 -469498 1.17191e+06 0 -472993 1.21885e+06 0 -476629 1.2662e+06 0 -480407 1.31395e+06 0 -484324 1.36214e+06 0 -399206 0 0 -399008 42362 0 -398941 84739.8 0 -399005 127147 0 -399199 169599 0 -399524 212108 0 -399978 254688 0 -400563 297355 0 -401278 340122 0 -402122 383002 0 -403097 426010 0 -404201 469160 0 -405434 512466 0 -406798 555942 0 -408292 599603 0 -409915 643461 0 -411670 687533 0 -413555 731831 0 -415571 776371 0 -417719 821166 0 -419999 866232 0 -422411 911583 0 -424957 957235 0 -427637 1.0032e+06 0 -430450 1.0495e+06 0 -433399 1.09614e+06 0 -436482 1.14315e+06 0 -439700 1.19054e+06 0 -443054 1.23832e+06 0 -446541 1.28651e+06 0 -450162 1.33513e+06 0 -453914 1.3842e+06 0 -370936 0 0 -370753 42983.8 0 -370695 85983.6 0 -370761 129014 0 -370952 172090 0 -371267 215225 0 -371706 258435 0 -372269 301734 0 -372956 345136 0 -373767 388656 0 -374701 432309 0 -375758 476109 0 -376940 520072 0 -378245 564210 0 -379674 608541 0 -381228 653077 0 -382905 697834 0 -384708 742827 0 -386635 788071 0 -388688 833581 0 -390868 879372 0 -393173 925460 0 -395605 971860 0 -398165 1.01859e+06 0 -400853 1.06566e+06 0 -403668 1.11309e+06 0 -406612 1.1609e+06 0 -409683 1.20911e+06 0 -412882 1.25772e+06 0 -416207 1.30676e+06 0 -419657 1.35625e+06 0 -423230 1.4062e+06 0 -342611 0 0 -342443 43601.3 0 -342394 87219 0 -342462 130868 0 -342648 174564 0 -342952 218322 0 -343373 262157 0 -343911 306084 0 -344567 350118 0 -345339 394275 0 -346229 438569 0 -347236 483016 0 -348360 527631 0 -349601 572430 0 -350960 617427 0 -352437 662638 0 -354031 708078 0 -355743 753764 0 -357575 799710 0 -359525 845933 0 -361594 892448 0 -363783 939271 0 -366092 986419 0 -368522 1.03391e+06 0 -371072 1.08175e+06 0 -373743 1.12998e+06 0 -376535 1.17859e+06 0 -379447 1.22761e+06 0 -382478 1.27706e+06 0 -385628 1.32695e+06 0 -388894 1.3773e+06 0 -392273 1.42813e+06 0 -314236 0 0 -314083 44214.3 0 -314042 88445.5 0 -314111 132709 0 -314291 177021 0 -314581 221397 0 -314982 265853 0 -315492 310404 0 -316113 355066 0 -316845 399855 0 -317686 444787 0 -318637 489877 0 -319699 535142 0 -320870 580596 0 -322153 626258 0 -323546 672141 0 -325049 718262 0 -326664 764638 0 -328391 811285 0 -330229 858218 0 -332180 905455 0 -334243 953013 0 -336419 1.00091e+06 0 -338708 1.04916e+06 0 -341110 1.09778e+06 0 -343625 1.14678e+06 0 -346253 1.1962e+06 0 -348993 1.24604e+06 0 -351844 1.29632e+06 0 -354805 1.34706e+06 0 -357873 1.39828e+06 0 -361044 1.44999e+06 0 -285815 0 0 -285677 44822.6 0 -285643 89662.5 0 -285712 134536 0 -285884 179459 0 -286159 224449 0 -286536 269521 0 -287017 314691 0 -287600 359977 0 -288286 405395 0 -289074 450960 0 -289965 496690 0 -290959 542600 0 -292055 588708 0 -293255 635030 0 -294557 681582 0 -295963 728382 0 -297473 775445 0 -299087 822789 0 -300805 870432 0 -302627 918389 0 -304555 966679 0 -306587 1.01532e+06 0 -308725 1.06433e+06 0 -310967 1.11372e+06 0 -313315 1.16351e+06 0 -315767 1.21373e+06 0 -318323 1.26439e+06 0 -320981 1.3155e+06 0 -323739 1.36709e+06 0 -326595 1.41918e+06 0 -329545 1.47178e+06 0 -257353 0 0 -257230 45426 0 -257202 90869.6 0 -257269 136348 0 -257432 181878 0 -257689 227476 0 -258042 273160 0 -258489 318945 0 -259030 364851 0 -259667 410892 0 -260397 457087 0 -261223 503452 0 -262144 550005 0 -263159 596762 0 -264269 643741 0 -265475 690958 0 -266776 738433 0 -268172 786181 0 -269665 834221 0 -271254 882570 0 -272939 931245 0 -274721 980266 0 -276599 1.02965e+06 0 -278575 1.07941e+06 0 -280647 1.12958e+06 0 -282815 1.18016e+06 0 -285079 1.23118e+06 0 -287437 1.28265e+06 0 -289889 1.3346e+06 0 -292431 1.38704e+06 0 -295062 1.43999e+06 0 -297776 1.49347e+06 0 -228852 0 0 -228744 46024.1 0 -228722 92066.4 0 -228787 138144 0 -228939 184276 0 -229177 230478 0 -229501 276768 0 -229911 323164 0 -230408 369684 0 -230991 416345 0 -231660 463165 0 -232415 510161 0 -233257 557351 0 -234185 604754 0 -235200 652386 0 -236301 700266 0 -237489 748412 0 -238765 796842 0 -240128 845574 0 -241578 894627 0 -243117 944018 0 -244743 993768 0 -246457 1.04389e+06 0 -248259 1.09441e+06 0 -250149 1.14535e+06 0 -252126 1.19672e+06 0 -254189 1.24853e+06 0 -256338 1.30083e+06 0 -258570 1.35361e+06 0 -260883 1.4069e+06 0 -263274 1.46071e+06 0 -265739 1.51507e+06 0 -200319 0 0 -200225 46616.8 0 -200208 93252.3 0 -200270 139925 0 -200408 186652 0 -200625 233452 0 -200918 280344 0 -201289 327346 0 -201737 374475 0 -202262 421751 0 -202865 469191 0 -203545 516814 0 -204302 564638 0 -205137 612681 0 -206049 660963 0 -207039 709502 0 -208107 758316 0 -209254 807424 0 -210478 856845 0 -211781 906599 0 -213163 956704 0 -214623 1.00718e+06 0 -216162 1.05804e+06 0 -217780 1.10932e+06 0 -219476 1.16102e+06 0 -221250 1.21317e+06 0 -223100 1.26579e+06 0 -225026 1.3189e+06 0 -227025 1.37251e+06 0 -229096 1.42665e+06 0 -231235 1.48133e+06 0 -233437 1.53658e+06 0 -171756 0 0 -171676 47203.8 0 -171664 94426.8 0 -171721 141688 0 -171845 189006 0 -172037 236399 0 -172298 283887 0 -172626 331489 0 -173021 379223 0 -173485 427108 0 -174016 475163 0 -174615 523408 0 -175283 571861 0 -176018 620541 0 -176821 669468 0 -177693 718661 0 -178633 768140 0 -179641 817923 0 -180719 868030 0 -181865 918482 0 -183080 969297 0 -184364 1.0205e+06 0 -185717 1.0721e+06 0 -187139 1.12413e+06 0 -188630 1.1766e+06 0 -190188 1.22953e+06 0 -191813 1.28295e+06 0 -193503 1.33687e+06 0 -195256 1.39131e+06 0 -197071 1.4463e+06 0 -198944 1.50185e+06 0 -200870 1.55797e+06 0 -143168 0 0 -143102 47784.9 0 -143094 95589.6 0 -143145 143433 0 -143253 191336 0 -143419 239317 0 -143643 287396 0 -143925 335592 0 -144265 383925 0 -144662 432414 0 -145117 481079 0 -145631 529941 0 -146202 579018 0 -146831 628330 0 -147518 677898 0 -148264 727742 0 -149068 777880 0 -149930 828334 0 -150852 879124 0 -151832 930271 0 -152870 981794 0 -153968 1.03371e+06 0 -155124 1.08605e+06 0 -156339 1.13883e+06 0 -157611 1.19206e+06 0 -158942 1.24578e+06 0 -160328 1.29999e+06 0 -161770 1.35473e+06 0 -163264 1.41e+06 0 -164810 1.46584e+06 0 -166403 1.52225e+06 0 -168040 1.57926e+06 0 -114560 0 0 -114507 48359.8 0 -114503 96740 0 -114545 145161 0 -114636 193642 0 -114773 242204 0 -114958 290868 0 -115191 339652 0 -115471 388579 0 -115798 437667 0 -116172 486937 0 -116594 536410 0 -117063 586106 0 -117580 636046 0 -118144 686250 0 -118756 736739 0 -119416 787534 0 -120124 838655 0 -120880 890124 0 -121684 941961 0 -122536 994189 0 -123436 1.04683e+06 0 -124384 1.0999e+06 0 -125380 1.15342e+06 0 -126423 1.20742e+06 0 -127513 1.26192e+06 0 -128648 1.31693e+06 0 -129828 1.37247e+06 0 -131051 1.42858e+06 0 -132314 1.48526e+06 0 -133615 1.54254e+06 0 -134949 1.60042e+06 0 -85934.4 0 0 -85895.5 48928.3 0 -85893.1 97877.6 0 -85927.2 146869 0 -85997.8 195923 0 -86104.7 245060 0 -86247.9 294302 0 -86427.4 343669 0 -86643.3 393183 0 -86895.5 442864 0 -87184 492734 0 -87508.9 542813 0 -87870.1 593123 0 -88267.9 643685 0 -88702.2 694520 0 -89173.1 745650 0 -89680.7 797096 0 -90225.1 848880 0 -90806.3 901024 0 -91424.4 953549 0 -92079.4 1.00648e+06 0 -92771.2 1.05983e+06 0 -93499.8 1.11363e+06 0 -94264.9 1.1679e+06 0 -95066 1.22266e+06 0 -95902.7 1.27793e+06 0 -96774.1 1.33374e+06 0 -97679.2 1.3901e+06 0 -98616.4 1.44703e+06 0 -99583.8 1.50456e+06 0 -100579 1.5627e+06 0 -101599 1.62147e+06 0 -57296.5 0 0 -57270.9 49490.2 0 -57270.1 99002 0 -57294.2 148557 0 -57343.1 198177 0 -57416.8 247883 0 -57515.3 297697 0 -57638.5 347641 0 -57786.5 397736 0 -57959.3 448004 0 -58156.8 498467 0 -58379.1 549147 0 -58626.3 600065 0 -58898.3 651244 0 -59195.3 702705 0 -59517.2 754471 0 -59864.1 806564 0 -60236.1 859007 0 -60633.3 911821 0 -61055.6 965030 0 -61503 1.01866e+06 0 -61975.5 1.07272e+06 0 -62473 1.12725e+06 0 -62995.3 1.18226e+06 0 -63542.1 1.23778e+06 0 -64113 1.29383e+06 0 -64707.3 1.35043e+06 0 -65324.2 1.4076e+06 0 -65962.6 1.46536e+06 0 -66621 1.52373e+06 0 -67297.7 1.58274e+06 0 -67990.1 1.64239e+06 0 -28650.3 0 0 -28637.6 50045.2 0 -28637.7 100113 0 -28650.4 150225 0 -28675.8 200404 0 -28713.9 250672 0 -28764.7 301052 0 -28828.1 351566 0 -28904.2 402236 0 -28992.9 453085 0 -29094.3 504135 0 -29208.3 555409 0 -29335.1 606930 0 -29474.6 658720 0 -29626.8 710802 0 -29791.8 763199 0 -29969.5 815934 0 -30160.2 869030 0 -30363.6 922511 0 -30579.9 976399 0 -30809.1 1.03072e+06 0 -31051.1 1.08549e+06 0 -31305.8 1.14074e+06 0 -31573.1 1.19649e+06 0 -31853 1.25277e+06 0 -32145 1.30959e+06 0 -32448.9 1.36698e+06 0 -32764.2 1.42496e+06 0 -33090.2 1.48355e+06 0 -33426.2 1.54277e+06 0 -33771.1 1.60264e+06 0 -34123.6 1.66318e+06 0 0 0 0 0 50593.1 0 0 101209 0 0 151871 0 0 202603 0 0 253426 0 0 304365 0 0 355442 0 0 406680 0 0 458103 0 0 509734 0 0 561597 0 0 613714 0 0 666110 0 0 718807 0 0 771829 0 0 825201 0 0 878946 0 0 933088 0 0 987652 0 0 1.04266e+06 0 0 1.09814e+06 0 0 1.15411e+06 0 0 1.2106e+06 0 0 1.26763e+06 0 0 1.32522e+06 0 0 1.3834e+06 0 0 1.44219e+06 0 0 1.50161e+06 0 0 1.56168e+06 0 0 1.62241e+06 0 0 1.68383e+06 0 </DataArray> 
</PointData> 
<Points> 
<DataArray type="Float32" NumberOfComponents="3"> 