<?xml version="1.0"?> 
<VTKFile type="StructuredGrid" version="0.1"> 
<StructuredGrid WholeExtent="0 31 0 31 0 0"> 
<Piece Extent="0 31 0 31 0 0"> 
<PointData>
<DataArray type="Float32" Name="|E|" format="ascii" NumberOfComponents="3"> 
-2.10845e+06 0 0 -2.10993e+06 12213.7 0 -2.11429e+06 24443.4 0 -2.12155e+06 36735.4 0 -2.13173e+06 49137.3 0 -2.14486e+06 61698.2 0 -2.16099e+06 74468.6 0 -2.18018e+06 87501.5 0 -2.20251e+06 100853 0 -2.22805e+06 114583 0 -2.2569e+06 128755 0 -2.28918e+06 143436 0 -2.32502e+06 158696 0 -2.36458e+06 174608 0 -2.40804e+06 191246 0 -2.45559e+06 208677 0 -2.50748e+06 226959 0 -2.56398e+06 246128 0 -2.62541e+06 266179 0 -2.69214e+06 287038 0 -2.76459e+06 308517 0 -2.84327e+06 330246 0 -2.92873e+06 351564 0 -3.0216e+06 371355 0 -3.12245e+06 387804 0 -3.23165e+06 398026 0 -3.34894e+06 397514 0 -3.47239e+06 379444 0 -3.59615e+06 334691 0 -3.70771e+06 254623 0 -3.78878e+06 141363 0 -3.82695e+06 -6386.76 0 -2.10748e+06 0 0 -2.10888e+06 12072.1 0 -2.11298e+06 24158.8 0 -2.1198e+06 36303.3 0 -2.12936e+06 48549.7 0 -2.1417e+06 60943.6 0 -2.15686e+06 73532.1 0 -2.17488e+06 86364.1 0 -2.19583e+06 99491.5 0 -2.21978e+06 112969 0 -2.24682e+06 126856 0 -2.27705e+06 141213 0 -2.31058e+06 156106 0 -2.34756e+06 171603 0 -2.38813e+06 187772 0 -2.43246e+06 204682 0 -2.48078e+06 222393 0 -2.5333e+06 240953 0 -2.59031e+06 260382 0 -2.65212e+06 280654 0 -2.7191e+06 301669 0 -2.79167e+06 323202 0 -2.87035e+06 344839 0 -2.95569e+06 365860 0 -3.04832e+06 385084 0 -3.14881e+06 400621 0 -3.25749e+06 409544 0 -3.37406e+06 407337 0 -3.49638e+06 387061 0 -3.61827e+06 338050 0 -3.72668e+06 251647 0 -3.80458e+06 127629 0 -2.1065e+06 0 0 -2.10781e+06 11916.7 0 -2.11165e+06 23846.7 0 -2.11806e+06 35830.1 0 -2.12703e+06 47907.7 0 -2.1386e+06 60121.9 0 -2.15281e+06 72516.1 0 -2.1697e+06 85135.6 0 -2.18932e+06 98028.2 0 -2.21175e+06 111244 0 -2.23704e+06 124838 0 -2.2653e+06 138865 0 -2.29662e+06 153386 0 -2.33112e+06 168465 0 -2.36893e+06 184166 0 -2.41021e+06 200553 0 -2.45512e+06 217690 0 -2.50388e+06 235628 0 -2.55671e+06 254405 0 -2.61388e+06 274028 0 -2.67571e+06 294452 0 -2.74256e+06 315554 0 -2.81486e+06 337078 0 -2.89312e+06 358571 0 -2.9779e+06 379264 0 -3.06982e+06 397903 0 -3.16944e+06 412490 0 -3.27709e+06 419919 0 -3.39246e+06 415634 0 -3.51341e+06 392593 0 -3.63371e+06 339470 0 -3.73993e+06 257156 0 -2.10549e+06 0 0 -2.10672e+06 11747.5 0 -2.11032e+06 23507.2 0 -2.11632e+06 35315.9 0 -2.12472e+06 47211.3 0 -2.13555e+06 59232.8 0 -2.14885e+06 71420.4 0 -2.16465e+06 83815.7 0 -2.18299e+06 96462.4 0 -2.20394e+06 109407 0 -2.22757e+06 122698 0 -2.25393e+06 136388 0 -2.28313e+06 150533 0 -2.31527e+06 165189 0 -2.35045e+06 180417 0 -2.38881e+06 196278 0 -2.43049e+06 212833 0 -2.47568e+06 230138 0 -2.52456e+06 248239 0 -2.57736e+06 267162 0 -2.63436e+06 286904 0 -2.69585e+06 307405 0 -2.7622e+06 328527 0 -2.83383e+06 349998 0 -2.91124e+06 371347 0 -2.995e+06 391796 0 -3.08572e+06 410097 0 -3.18396e+06 424247 0 -3.29007e+06 431059 0 -3.40376e+06 426261 0 -3.52325e+06 399720 0 -3.64138e+06 352850 0 -2.10447e+06 0 0 -2.10561e+06 11564.6 0 -2.10898e+06 23140.2 0 -2.11459e+06 34760.8 0 -2.12244e+06 46460.9 0 -2.13256e+06 58276.8 0 -2.14497e+06 70245.5 0 -2.15972e+06 82404.9 0 -2.17683e+06 94795.2 0 -2.19637e+06 107459 0 -2.21838e+06 120440 0 -2.24294e+06 133786 0 -2.27011e+06 147548 0 -2.29998e+06 161778 0 -2.33265e+06 176532 0 -2.36823e+06 191867 0 -2.40685e+06 207841 0 -2.44866e+06 224508 0 -2.49381e+06 241920 0 -2.54251e+06 260116 0 -2.59496e+06 279115 0 -2.65144e+06 298902 0 -2.71224e+06 319412 0 -2.77771e+06 340496 0 -2.84827e+06 361875 0 -2.92441e+06 383075 0 -3.00668e+06 403323 0 -3.09569e+06 421424 0 -3.19203e+06 435299 0 -3.29602e+06 442620 0 -3.40777e+06 436283 0 -3.52473e+06 415433 0 -2.10343e+06 0 0 -2.10449e+06 11368 0 -2.10764e+06 22745.8 0 -2.11286e+06 34164.8 0 -2.12018e+06 45656.4 0 -2.12961e+06 57253.9 0 -2.14118e+06 68991.5 0 -2.15491e+06 80903.6 0 -2.17084e+06 93026.9 0 -2.18902e+06 105400 0 -2.20949e+06 118063 0 -2.2323e+06 131059 0 -2.25753e+06 144434 0 -2.28524e+06 158236 0 -2.31552e+06 172514 0 -2.34847e+06 187323 0 -2.38418e+06 202716 0 -2.42278e+06 218746 0 -2.46442e+06 235465 0 -2.50925e+06 252918 0 -2.55746e+06 271138 0 -2.60925e+06 290139 0 -2.66488e+06 309902 0 -2.72464e+06 330357 0 -2.78886e+06 351356 0 -2.85795e+06 372629 0 -2.93238e+06 393716 0 -3.0127e+06 413919 0 -3.09952e+06 431926 0 -3.19336e+06 446392 0 -3.29482e+06 453365 0 -3.40362e+06 450493 0 -2.10237e+06 0 0 -2.10336e+06 11157.7 0 -2.10628e+06 22324.2 0 -2.11114e+06 33528.1 0 -2.11795e+06 44798 0 -2.12671e+06 56164.5 0 -2.13746e+06 67658.7 0 -2.15022e+06 79312.2 0 -2.16502e+06 91158 0 -2.18189e+06 103231 0 -2.20088e+06 115568 0 -2.22203e+06 128208 0 -2.2454e+06 141191 0 -2.27105e+06 154562 0 -2.29906e+06 168365 0 -2.32949e+06 182650 0 -2.36245e+06 197465 0 -2.39803e+06 212861 0 -2.43635e+06 228888 0 -2.47754e+06 245593 0 -2.52176e+06 263017 0 -2.56918e+06 281189 0 -2.62001e+06 300120 0 -2.67447e+06 319788 0 -2.73284e+06 340126 0 -2.79545e+06 360995 0 -2.86268e+06 382135 0 -2.93499e+06 403164 0 -3.01291e+06 423323 0 -3.097e+06 441734 0 -3.18787e+06 456499 0 -3.28603e+06 465158 0 -2.10129e+06 0 0 -2.10221e+06 10933.8 0 -2.10492e+06 21875.3 0 -2.10943e+06 32850.7 0 -2.11574e+06 43885.9 0 -2.12387e+06 55008.6 0 -2.13383e+06 66247.4 0 -2.14566e+06 77631 0 -2.15937e+06 89189 0 -2.17499e+06 100953 0 -2.19256e+06 112956 0 -2.21212e+06 125233 0 -2.23372e+06 137821 0 -2.2574e+06 150758 0 -2.28324e+06 164087 0 -2.31129e+06 177850 0 -2.34163e+06 192092 0 -2.37435e+06 206860 0 -2.40955e+06 222200 0 -2.44732e+06 238161 0 -2.48781e+06 254784 0 -2.53115e+06 272107 0 -2.5775e+06 290158 0 -2.62706e+06 308945 0 -2.68004e+06 328449 0 -2.7367e+06 348611 0 -2.79736e+06 369300 0 -2.86236e+06 390310 0 -2.93215e+06 411251 0 -3.00721e+06 431552 0 -3.0881e+06 450370 0 -3.17545e+06 465796 0 -2.10019e+06 0 0 -2.10104e+06 10696.2 0 -2.10355e+06 21399.1 0 -2.10772e+06 32132.6 0 -2.11356e+06 42920.1 0 -2.12107e+06 53786.5 0 -2.13029e+06 64757.9 0 -2.14121e+06 75860.2 0 -2.15388e+06 87120.1 0 -2.1683e+06 98565.9 0 -2.18451e+06 110227 0 -2.20256e+06 122136 0 -2.22246e+06 134324 0 -2.24428e+06 146826 0 -2.26805e+06 159680 0 -2.29384e+06 172924 0 -2.32171e+06 186599 0 -2.35173e+06 200746 0 -2.38397e+06 215409 0 -2.41854e+06 230633 0 -2.45553e+06 246461 0 -2.49506e+06 262932 0 -2.53725e+06 280081 0 -2.58227e+06 297935 0 -2.63028e+06 316503 0 -2.6815e+06 335773 0 -2.73615e+06 355692 0 -2.79453e+06 376158 0 -2.85695e+06 396993 0 -2.92384e+06 417856 0 -2.99563e+06 438402 0 -3.0729e+06 457315 0 -2.09907e+06 0 0 -2.09986e+06 10445 0 -2.10217e+06 20895.8 0 -2.10601e+06 31374.1 0 -2.1114e+06 41900.8 0 -2.11833e+06 52498.3 0 -2.12682e+06 63190.2 0 -2.13689e+06 74000.1 0 -2.14855e+06 84951.7 0 -2.16183e+06 96070.3 0 -2.17675e+06 107383 0 -2.19334e+06 118916 0 -2.21163e+06 130700 0 -2.23167e+06 142766 0 -2.25348e+06 155146 0 -2.27713e+06 167874 0 -2.30266e+06 180987 0 -2.33012e+06 194523 0 -2.3596e+06 208520 0 -2.39115e+06 223019 0 -2.42486e+06 238062 0 -2.46083e+06 253688 0 -2.49916e+06 269935 0 -2.53998e+06 286837 0 -2.58341e+06 304418 0 -2.62963e+06 322692 0 -2.67881e+06 341652 0 -2.73117e+06 361259 0 -2.78697e+06 381444 0 -2.84651e+06 402026 0 -2.91015e+06 422901 0 -2.97834e+06 443189 0 -2.09794e+06 0 0 -2.09866e+06 10180.2 0 -2.10078e+06 20365.4 0 -2.10432e+06 30575.1 0 -2.10927e+06 40828.1 0 -2.11563e+06 51144.1 0 -2.12344e+06 61544.6 0 -2.13268e+06 72050.9 0 -2.14339e+06 82684.1 0 -2.15557e+06 93466.5 0 -2.16926e+06 104422 0 -2.18446e+06 115575 0 -2.20123e+06 126951 0 -2.21957e+06 138578 0 -2.23953e+06 150485 0 -2.26114e+06 162701 0 -2.28446e+06 175258 0 -2.30952e+06 188191 0 -2.33638e+06 201534 0 -2.3651e+06 215324 0 -2.39575e+06 229598 0 -2.4284e+06 244394 0 -2.46314e+06 259750 0 -2.50006e+06 275700 0 -2.53927e+06 292278 0 -2.58089e+06 309510 0 -2.62508e+06 327412 0 -2.67199e+06 345982 0 -2.72181e+06 365209 0 -2.77479e+06 385005 0 -2.83116e+06 405381 0 -2.8913e+06 425761 0 -2.09678e+06 0 0 -2.09744e+06 9901.9 0 -2.09939e+06 19808 0 -2.10263e+06 29735.8 0 -2.10716e+06 39702.1 0 -2.11299e+06 49724.2 0 -2.12013e+06 59821.4 0 -2.12859e+06 70012.9 0 -2.13838e+06 80317.5 0 -2.14953e+06 90754.7 0 -2.16203e+06 101346 0 -2.17593e+06 112112 0 -2.19123e+06 123076 0 -2.20797e+06 134263 0 -2.22617e+06 145696 0 -2.24586e+06 157403 0 -2.26709e+06 169412 0 -2.28988e+06 181752 0 -2.31428e+06 194454 0 -2.34035e+06 207550 0 -2.36813e+06 221074 0 -2.39768e+06 235060 0 -2.42908e+06 249544 0 -2.46239e+06 264559 0 -2.49771e+06 280141 0 -2.53512e+06 296320 0 -2.57474e+06 313125 0 -2.6167e+06 330572 0 -2.66113e+06 348678 0 -2.70821e+06 367410 0 -2.75813e+06 386827 0 -2.81115e+06 406552 0 -2.09561e+06 0 0 -2.09621e+06 9610.02 0 -2.09799e+06 19223.5 0 -2.10094e+06 28856.1 0 -2.10508e+06 38522.8 0 -2.11039e+06 48238.7 0 -2.11691e+06 58020.6 0 -2.12462e+06 67886.2 0 -2.13354e+06 77852 0 -2.14369e+06 87935.1 0 -2.15508e+06 98153.8 0 -2.16773e+06 108527 0 -2.18165e+06 119076 0 -2.19686e+06 129819 0 -2.2134e+06 140780 0 -2.23128e+06 151982 0 -2.25053e+06 163448 0 -2.27118e+06 175205 0 -2.29328e+06 187278 0 -2.31686e+06 199697 0 -2.34196e+06 212491 0 -2.36862e+06 225690 0 -2.39691e+06 239327 0 -2.42689e+06 253432 0 -2.45861e+06 268040 0 -2.49215e+06 283181 0 -2.52759e+06 298888 0 -2.56504e+06 315185 0 -2.6046e+06 332103 0 -2.64639e+06 349637 0 -2.69055e+06 367859 0 -2.73727e+06 386526 0 -2.09442e+06 0 0 -2.09497e+06 9304.64 0 -2.09658e+06 18612 0 -2.09926e+06 27936.2 0 -2.10302e+06 37290.5 0 -2.10785e+06 46687.6 0 -2.11376e+06 56142.5 0 -2.12076e+06 65670.9 0 -2.12886e+06 75287.8 0 -2.13807e+06 85007.8 0 -2.14839e+06 94846.7 0 -2.15986e+06 104821 0 -2.17247e+06 114949 0 -2.18624e+06 125248 0 -2.2012e+06 135737 0 -2.21737e+06 146436 0 -2.23476e+06 157365 0 -2.25341e+06 168547 0 -2.27334e+06 180006 0 -2.29459e+06 191764 0 -2.31718e+06 203848 0 -2.34116e+06 216285 0 -2.36656e+06 229102 0 -2.39344e+06 242328 0 -2.42184e+06 255992 0 -2.45182e+06 270125 0 -2.48344e+06 284757 0 -2.51678e+06 299917 0 -2.55192e+06 315636 0 -2.58894e+06 331927 0 -2.62796e+06 348859 0 -2.6691e+06 366273 0 -2.09321e+06 0 0 -2.0937e+06 8985.77 0 -2.09516e+06 17973.7 0 -2.09759e+06 26976.2 0 -2.10098e+06 36005 0 -2.10535e+06 45071.2 0 -2.11069e+06 54187.3 0 -2.11702e+06 63367.4 0 -2.12433e+06 72625 0 -2.13265e+06 81972.9 0 -2.14197e+06 91424.3 0 -2.15231e+06 100994 0 -2.16368e+06 110697 0 -2.1761e+06 120548 0 -2.18958e+06 130565 0 -2.20413e+06 140763 0 -2.21978e+06 151161 0 -2.23654e+06 161778 0 -2.25444e+06 172633 0 -2.27351e+06 183748 0 -2.29376e+06 195143 0 -2.31523e+06 206841 0 -2.33796e+06 218867 0 -2.36197e+06 231246 0 -2.3873e+06 244003 0 -2.41401e+06 257166 0 -2.44213e+06 270762 0 -2.47172e+06 284818 0 -2.50284e+06 299365 0 -2.53557e+06 314420 0 -2.56996e+06 330049 0 -2.60612e+06 346142 0 -2.09198e+06 0 0 -2.09242e+06 8653.44 0 -2.09374e+06 17308.5 0 -2.09592e+06 25976.1 0 -2.09897e+06 34666.6 0 -2.1029e+06 43389.4 0 -2.1077e+06 52155 0 -2.11339e+06 60975.7 0 -2.11996e+06 69863.7 0 -2.12743e+06 78830.2 0 -2.1358e+06 87886.4 0 -2.14509e+06 97044.5 0 -2.15529e+06 106318 0 -2.16643e+06 115719 0 -2.17851e+06 125263 0 -2.19154e+06 134963 0 -2.20555e+06 144835 0 -2.22055e+06 154894 0 -2.23655e+06 165158 0 -2.25358e+06 175644 0 -2.27165e+06 186369 0 -2.2908e+06 197354 0 -2.31103e+06 208618 0 -2.33239e+06 220183 0 -2.3549e+06 232072 0 -2.37859e+06 244306 0 -2.4035e+06 256910 0 -2.42967e+06 269909 0 -2.45715e+06 283330 0 -2.48598e+06 297191 0 -2.51621e+06 311548 0 -2.54792e+06 326326 0 -2.09073e+06 0 0 -2.09113e+06 8307.7 0 -2.09231e+06 16616.5 0 -2.09426e+06 24935.9 0 -2.09699e+06 33275.2 0 -2.1005e+06 41642.3 0 -2.10479e+06 50045.7 0 -2.10988e+06 58495.9 0 -2.11575e+06 67004 0 -2.12242e+06 75579.8 0 -2.1299e+06 84232.8 0 -2.13818e+06 92973.1 0 -2.14729e+06 101812 0 -2.15722e+06 110760 0 -2.16799e+06 119830 0 -2.1796e+06 129034 0 -2.19208e+06 138384 0 -2.20542e+06 147893 0 -2.21965e+06 157576 0 -2.23478e+06 167447 0 -2.25082e+06 177522 0 -2.2678e+06 187816 0 -2.28573e+06 198347 0 -2.30463e+06 209131 0 -2.32453e+06 220188 0 -2.34545e+06 231536 0 -2.36742e+06 243198 0 -2.39047e+06 255192 0 -2.41462e+06 267543 0 -2.43993e+06 280267 0 -2.46641e+06 293411 0 -2.49413e+06 306921 0 -2.08947e+06 0 0 -2.08982e+06 7948.55 0 -2.09086e+06 15897.7 0 -2.0926e+06 23855.9 0 -2.09502e+06 31831.1 0 -2.09814e+06 39830 0 -2.10196e+06 47859.6 0 -2.10647e+06 55928.3 0 -2.11169e+06 64046 0 -2.11761e+06 72221.6 0 -2.12424e+06 80463.3 0 -2.1316e+06 88779.1 0 -2.13967e+06 97178.1 0 -2.14847e+06 105670 0 -2.15801e+06 114265 0 -2.1683e+06 122973 0 -2.17934e+06 131805 0 -2.19114e+06 140771 0 -2.20371e+06 149883 0 -2.21708e+06 159153 0 -2.23123e+06 168594 0 -2.24621e+06 178219 0 -2.262e+06 188042 0 -2.27864e+06 198077 0 -2.29614e+06 208340 0 -2.31451e+06 218845 0 -2.33378e+06 229611 0 -2.35397e+06 240655 0 -2.37511e+06 251995 0 -2.39721e+06 263647 0 -2.4203e+06 275647 0 -2.44443e+06 287957 0 -2.08818e+06 0 0 -2.0885e+06 7576.05 0 -2.08942e+06 15152.3 0 -2.09095e+06 22736 0 -2.09309e+06 30334.1 0 -2.09584e+06 37952.5 0 -2.0992e+06 45596.5 0 -2.10318e+06 53272.9 0 -2.10778e+06 60989.8 0 -2.113e+06 68755.6 0 -2.11885e+06 76577.4 0 -2.12532e+06 84461.9 0 -2.13243e+06 92416.2 0 -2.14018e+06 100448 0 -2.14857e+06 108566 0 -2.15761e+06 116779 0 -2.16731e+06 125095 0 -2.17768e+06 133523 0 -2.18872e+06 142073 0 -2.20044e+06 150755 0 -2.21286e+06 159578 0 -2.22597e+06 168554 0 -2.2398e+06 177694 0 -2.25435e+06 187009 0 -2.26963e+06 196511 0 -2.28567e+06 206215 0 -2.30247e+06 216132 0 -2.32006e+06 226277 0 -2.33844e+06 236666 0 -2.35764e+06 247311 0 -2.37767e+06 258240 0 -2.39857e+06 269426 0 -2.08688e+06 0 0 -2.08715e+06 7190.2 0 -2.08796e+06 14380.3 0 -2.0893e+06 21576.4 0 -2.09117e+06 28784.5 0 -2.09358e+06 36009.8 0 -2.09652e+06 43256.5 0 -2.10001e+06 50529.5 0 -2.10403e+06 57835.5 0 -2.10859e+06 65181.7 0 -2.1137e+06 72574.9 0 -2.11935e+06 80020.7 0 -2.12556e+06 87524.6 0 -2.13233e+06 95092.6 0 -2.13965e+06 102732 0 -2.14754e+06 110449 0 -2.156e+06 118251 0 -2.16504e+06 126147 0 -2.17465e+06 134142 0 -2.18486e+06 142246 0 -2.19566e+06 150466 0 -2.20706e+06 158811 0 -2.21907e+06 167289 0 -2.2317e+06 175911 0 -2.24496e+06 184686 0 -2.25885e+06 193624 0 -2.2734e+06 202736 0 -2.28861e+06 212033 0 -2.30448e+06 221527 0 -2.32105e+06 231227 0 -2.33831e+06 241158 0 -2.3563e+06 251295 0 -2.08556e+06 0 0 -2.0858e+06 6791.06 0 -2.0865e+06 13581.8 0 -2.08766e+06 20377.1 0 -2.08928e+06 27182.3 0 -2.09137e+06 34001.9 0 -2.09392e+06 40839.5 0 -2.09694e+06 47698.1 0 -2.10042e+06 54583 0 -2.10437e+06 61500.1 0 -2.1088e+06 68455.8 0 -2.11369e+06 75455 0 -2.11907e+06 82502.3 0 -2.12492e+06 89602.1 0 -2.13126e+06 96759.6 0 -2.13808e+06 103980 0 -2.14539e+06 111271 0 -2.15319e+06 118637 0 -2.16149e+06 126084 0 -2.1703e+06 133619 0 -2.17961e+06 141248 0 -2.18943e+06 148978 0 -2.19978e+06 156816 0 -2.21065e+06 164769 0 -2.22205e+06 172845 0 -2.23399e+06 181052 0 -2.24648e+06 189398 0 -2.25952e+06 197892 0 -2.27313e+06 206543 0 -2.28731e+06 215359 0 -2.30207e+06 224357 0 -2.31743e+06 233519 0 -2.08422e+06 0 0 -2.08443e+06 6378.64 0 -2.08503e+06 12756.7 0 -2.08602e+06 19138.3 0 -2.08741e+06 25527.6 0 -2.0892e+06 31928.9 0 -2.09139e+06 38345.1 0 -2.09398e+06 44778.4 0 -2.09697e+06 51232 0 -2.10035e+06 57710.7 0 -2.10414e+06 64219.8 0 -2.10834e+06 70764.3 0 -2.11294e+06 77348.1 0 -2.11795e+06 83974.6 0 -2.12337e+06 90647.5 0 -2.12921e+06 97370.9 0 -2.13546e+06 104150 0 -2.14213e+06 110988 0 -2.14922e+06 117892 0 -2.15674e+06 124867 0 -2.16469e+06 131916 0 -2.17307e+06 139045 0 -2.18189e+06 146260 0 -2.19115e+06 153566 0 -2.20086e+06 160970 0 -2.21102e+06 168476 0 -2.22163e+06 176092 0 -2.23271e+06 183824 0 -2.24426e+06 191680 0 -2.25629e+06 199664 0 -2.26879e+06 207791 0 -2.28179e+06 216045 0 -2.08287e+06 0 0 -2.08304e+06 5952.99 0 -2.08355e+06 11905.3 0 -2.08439e+06 17860 0 -2.08557e+06 23820.6 0 -2.08708e+06 29790.9 0 -2.08893e+06 35773.5 0 -2.09113e+06 41770 0 -2.09366e+06 47782.1 0 -2.09653e+06 53813 0 -2.09974e+06 59866.9 0 -2.10328e+06 65948.3 0 -2.10718e+06 72061.1 0 -2.11141e+06 78208.3 0 -2.11599e+06 84392.5 0 -2.12093e+06 90616.6 0 -2.12621e+06 96883.7 0 -2.13184e+06 103198 0 -2.13783e+06 109562 0 -2.14417e+06 115982 0 -2.15088e+06 122460 0 -2.15794e+06 129000 0 -2.16537e+06 135607 0 -2.17317e+06 142286 0 -2.18134e+06 149039 0 -2.18988e+06 155872 0 -2.1988e+06 162790 0 -2.2081e+06 169797 0 -2.21779e+06 176899 0 -2.22788e+06 184100 0 -2.23835e+06 191409 0 -2.24923e+06 198816 0 -2.08149e+06 0 0 -2.08163e+06 5514.12 0 -2.08206e+06 11027.5 0 -2.08276e+06 16542.4 0 -2.08375e+06 22061.5 0 -2.08501e+06 27588 0 -2.08655e+06 33124.5 0 -2.08838e+06 38672.4 0 -2.09049e+06 44232.4 0 -2.09289e+06 49806.2 0 -2.09557e+06 55396.5 0 -2.09853e+06 61006.8 0 -2.10177e+06 66641 0 -2.1053e+06 72302.1 0 -2.10912e+06 77992.3 0 -2.11323e+06 83713.7 0 -2.11763e+06 89468.2 0 -2.12231e+06 95258.2 0 -2.1273e+06 101087 0 -2.13257e+06 106956 0 -2.13815e+06 112870 0 -2.14402e+06 118832 0 -2.15019e+06 124845 0 -2.15666e+06 130911 0 -2.16344e+06 137034 0 -2.17052e+06 143217 0 -2.17792e+06 149464 0 -2.18562e+06 155778 0 -2.19364e+06 162163 0 -2.20198e+06 168622 0 -2.21064e+06 175163 0 -2.21962e+06 181775 0 -2.0801e+06 0 0 -2.08022e+06 5062.08 0 -2.08056e+06 10123.3 0 -2.08114e+06 15185.5 0 -2.08195e+06 20250.4 0 -2.08298e+06 25320.5 0 -2.08425e+06 30398.3 0 -2.08575e+06 35485.3 0 -2.08748e+06 40582.1 0 -2.08944e+06 45689 0 -2.09164e+06 50807.2 0 -2.09407e+06 55939.1 0 -2.09673e+06 61087.5 0 -2.09962e+06 66255.4 0 -2.10274e+06 71445.3 0 -2.1061e+06 76659.1 0 -2.1097e+06 81898.2 0 -2.11354e+06 87163.9 0 -2.11761e+06 92458 0 -2.12193e+06 97782.1 0 -2.12648e+06 103139 0 -2.13128e+06 108530 0 -2.13632e+06 113958 0 -2.1416e+06 119425 0 -2.14713e+06 124934 0 -2.15291e+06 130487 0 -2.15893e+06 136087 0 -2.16521e+06 141735 0 -2.17174e+06 147435 0 -2.17852e+06 153188 0 -2.18556e+06 159000 0 -2.19286e+06 164863 0 -2.07869e+06 0 0 -2.07878e+06 4596.9 0 -2.07906e+06 9192.98 0 -2.07952e+06 13789.4 0 -2.08017e+06 18387.4 0 -2.081e+06 22988.7 0 -2.08202e+06 27595.3 0 -2.08322e+06 32209 0 -2.08461e+06 36830.5 0 -2.08618e+06 41459.8 0 -2.08795e+06 46097 0 -2.0899e+06 50742.8 0 -2.09203e+06 55399 0 -2.09435e+06 60067.6 0 -2.09686e+06 64751 0 -2.09955e+06 69451.4 0 -2.10243e+06 74170.2 0 -2.1055e+06 78908.8 0 -2.10876e+06 83668 0 -2.11222e+06 88448.7 0 -2.11586e+06 93252.1 0 -2.1197e+06 98079.3 0 -2.12373e+06 102932 0 -2.12795e+06 107812 0 -2.13237e+06 112720 0 -2.13699e+06 117659 0 -2.1418e+06 122630 0 -2.1468e+06 127635 0 -2.15201e+06 132676 0 -2.15742e+06 137754 0 -2.16303e+06 142872 0 -2.16884e+06 148026 0 -2.07726e+06 0 0 -2.07733e+06 4118.6 0 -2.07755e+06 8236.41 0 -2.07791e+06 12354.2 0 -2.07842e+06 16472.6 0 -2.07907e+06 20592.8 0 -2.07986e+06 24716 0 -2.0808e+06 28843.8 0 -2.08188e+06 32977.5 0 -2.08311e+06 37117.3 0 -2.08449e+06 41263 0 -2.08601e+06 45414.4 0 -2.08768e+06 49571.7 0 -2.0895e+06 53735.8 0 -2.09145e+06 57908 0 -2.09356e+06 62090.1 0 -2.09581e+06 66283.7 0 -2.0982e+06 70490.4 0 -2.10074e+06 74711.1 0 -2.10343e+06 78946.9 0 -2.10628e+06 83198.3 0 -2.10927e+06 87465.8 0 -2.11241e+06 91750 0 -2.1157e+06 96051.5 0 -2.11914e+06 100371 0 -2.12273e+06 104710 0 -2.12647e+06 109069 0 -2.13036e+06 113449 0 -2.13441e+06 117852 0 -2.13861e+06 122279 0 -2.14296e+06 126733 0 -2.14747e+06 131207 0 -2.07581e+06 0 0 -2.07587e+06 3627.23 0 -2.07603e+06 7253.7 0 -2.0763e+06 10879.9 0 -2.07669e+06 14506.1 0 -2.07718e+06 18132.8 0 -2.07778e+06 21760.7 0 -2.07849e+06 25390.7 0 -2.0793e+06 29024.2 0 -2.08023e+06 32661.8 0 -2.08127e+06 36303.8 0 -2.08242e+06 39949.9 0 -2.08368e+06 43599.8 0 -2.08505e+06 47253 0 -2.08653e+06 50909.8 0 -2.08812e+06 54570.7 0 -2.08982e+06 58236.4 0 -2.09163e+06 61908.2 0 -2.09354e+06 65587.1 0 -2.09557e+06 69274.3 0 -2.09771e+06 72970.6 0 -2.09996e+06 76676.9 0 -2.10232e+06 80393.6 0 -2.1048e+06 84121.3 0 -2.10739e+06 87860.1 0 -2.11009e+06 91610 0 -2.11291e+06 95371.1 0 -2.11584e+06 99143.3 0 -2.11888e+06 102927 0 -2.12204e+06 106723 0 -2.12531e+06 110534 0 -2.12869e+06 114358 0 -2.07434e+06 0 0 -2.07438e+06 3122.8 0 -2.0745e+06 6244.9 0 -2.0747e+06 9366.47 0 -2.07498e+06 12487.7 0 -2.07533e+06 15608.6 0 -2.07577e+06 18729.3 0 -2.07628e+06 21850.3 0 -2.07687e+06 24972 0 -2.07754e+06 28095.2 0 -2.07828e+06 31220.6 0 -2.07911e+06 34348.5 0 -2.08002e+06 37478.8 0 -2.081e+06 40611.2 0 -2.08207e+06 43745.2 0 -2.08322e+06 46880.3 0 -2.08445e+06 50016.4 0 -2.08576e+06 53153.4 0 -2.08714e+06 56291.3 0 -2.08861e+06 59430.6 0 -2.09015e+06 62571.7 0 -2.09177e+06 65715.3 0 -2.09347e+06 68862.2 0 -2.09525e+06 72013.4 0 -2.09712e+06 75169.7 0 -2.09906e+06 78331.8 0 -2.10108e+06 81500.2 0 -2.10319e+06 84674.9 0 -2.10538e+06 87855.4 0 -2.10765e+06 91040.2 0 -2.11e+06 94227.9 0 -2.11243e+06 97412.4 0 -2.07286e+06 0 0 -2.07289e+06 2605.35 0 -2.07297e+06 5210.06 0 -2.0731e+06 7814.08 0 -2.07329e+06 10417.3 0 -2.07353e+06 13019.8 0 -2.07383e+06 15621.3 0 -2.07417e+06 18221.8 0 -2.07457e+06 20821.2 0 -2.07503e+06 23419.5 0 -2.07553e+06 26017.1 0 -2.07609e+06 28614.3 0 -2.0767e+06 31211.4 0 -2.07737e+06 33808.6 0 -2.07809e+06 36406.1 0 -2.07887e+06 39003.6 0 -2.0797e+06 41600.8 0 -2.08059e+06 44197.5 0 -2.08153e+06 46792.9 0 -2.08252e+06 49386.4 0 -2.08357e+06 51977.4 0 -2.08467e+06 54565.3 0 -2.08583e+06 57149.4 0 -2.08704e+06 59729.6 0 -2.0883e+06 62305.8 0 -2.08961e+06 64878.5 0 -2.09098e+06 67448.6 0 -2.0924e+06 70017.7 0 -2.09388e+06 72587.7 0 -2.09541e+06 75161.3 0 -2.09699e+06 77742.3 0 -2.09863e+06 80332.2 0 -2.07136e+06 0 0 -2.07137e+06 2074.88 0 -2.07142e+06 4149.18 0 -2.07151e+06 6222.67 0 -2.07162e+06 8295.13 0 -2.07177e+06 10366.3 0 -2.07196e+06 12436.1 0 -2.07217e+06 14504.3 0 -2.07242e+06 16570.5 0 -2.0727e+06 18634.6 0 -2.07301e+06 20696 0 -2.07336e+06 22754.4 0 -2.07374e+06 24809.6 0 -2.07415e+06 26861.4 0 -2.07459e+06 28910.1 0 -2.07507e+06 30955.8 0 -2.07558e+06 32999.1 0 -2.07612e+06 35040.2 0 -2.0767e+06 37079.6 0 -2.07731e+06 39117.2 0 -2.07796e+06 41152.9 0 -2.07864e+06 43186.1 0 -2.07935e+06 45215.8 0 -2.0801e+06 47240.9 0 -2.08089e+06 49259.5 0 -2.0817e+06 51269.5 0 -2.08255e+06 53268.7 0 -2.08343e+06 55254.5 0 -2.08435e+06 57224.1 0 -2.08529e+06 59174.5 0 -2.08627e+06 61103.1 0 -2.08728e+06 63006 0 -2.06984e+06 0 0 -2.06985e+06 1531.63 0 -2.06987e+06 3062.62 0 -2.06992e+06 4592.52 0 -2.06998e+06 6120.89 0 -2.07006e+06 7647.26 0 -2.07016e+06 9171.1 0 -2.07027e+06 10692 0 -2.0704e+06 12209.8 0 -2.07055e+06 13724.5 0 -2.07072e+06 15236.1 0 -2.0709e+06 16743.8 0 -2.07111e+06 18246.5 0 -2.07133e+06 19742.4 0 -2.07156e+06 21229.6 0 -2.07182e+06 22706.3 0 -2.07209e+06 24171.7 0 -2.07238e+06 25625.5 0 -2.07268e+06 27068.5 0 -2.07301e+06 28502.5 0 -2.07335e+06 29929.8 0 -2.0737e+06 31353.2 0 -2.07408e+06 32775.4 0 -2.07447e+06 34199.4 0 -2.07488e+06 35627.6 0 -2.07531e+06 37062.3 0 -2.07575e+06 38505.2 0 -2.07622e+06 39957.5 0 -2.0767e+06 41420.5 0 -2.0772e+06 42894.9 0 -2.07772e+06 44382.3 0 -2.07826e+06 45880.4 0 </DataArray> 
</PointData> 
<Points> 
<DataArray type="Float32" NumberOfComponents="3"> 