<?xml version="1.0"?> 
<VTKFile type="StructuredGrid" version="0.1"> 
<StructuredGrid WholeExtent="0 31 0 31 0 0"> 
<Piece Extent="0 31 0 31 0 0"> 
<PointData>
<DataArray type="Float32" Name="|E|" format="ascii" NumberOfComponents="3"> 
1.67355e+06 -667541 0 1.74079e+06 -580165 0 1.81467e+06 -486118 0 1.87494e+06 -392827 0 1.92001e+06 -300210 0 1.9479e+06 -210633 0 1.95944e+06 -126508 0 1.95631e+06 -49836.1 0 1.94089e+06 18157.4 0 1.91559e+06 77013.7 0 1.88268e+06 126873 0 1.8441e+06 168273 0 1.80145e+06 201976 0 1.75599e+06 228838 0 1.70874e+06 249725 0 1.66046e+06 265461 0 1.61176e+06 276802 0 1.56309e+06 284424 0 1.51481e+06 288924 0 1.46718e+06 290817 0 1.42041e+06 290548 0 1.37465e+06 288498 0 1.33002e+06 284988 0 1.28659e+06 280292 0 1.24443e+06 274642 0 1.20359e+06 268230 0 1.16409e+06 261221 0 1.12595e+06 253749 0 1.08917e+06 245929 0 1.05375e+06 237855 0 1.01969e+06 229605 0 986981 221247 0 1.68367e+06 -671576 0 1.75362e+06 -583900 0 1.82687e+06 -489452 0 1.88684e+06 -394797 0 1.93116e+06 -300614 0 1.9581e+06 -209469 0 1.96846e+06 -123942 0 1.96406e+06 -46111.3 0 1.94734e+06 22785.7 0 1.92081e+06 82312.4 0 1.88676e+06 132647 0 1.84716e+06 174369 0 1.80361e+06 208275 0 1.75739e+06 235252 0 1.70948e+06 256187 0 1.66065e+06 271924 0 1.61149e+06 283231 0 1.56244e+06 290793 0 1.51384e+06 295213 0 1.46596e+06 297012 0 1.41899e+06 296638 0 1.37307e+06 294474 0 1.32831e+06 290843 0 1.28479e+06 286022 0 1.24257e+06 280242 0 1.20168e+06 273697 0 1.16215e+06 266552 0 1.12399e+06 258942 0 1.08721e+06 250982 0 1.0518e+06 242767 0 1.01776e+06 234374 0 985071 225871 0 1.69418e+06 -675768 0 1.76637e+06 -587689 0 1.83921e+06 -492687 0 1.89887e+06 -396636 0 1.94247e+06 -300850 0 1.96842e+06 -208113 0 1.97758e+06 -121177 0 1.97187e+06 -42189.5 0 1.95383e+06 27599.3 0 1.92604e+06 87779.4 0 1.89084e+06 138571 0 1.85021e+06 180594 0 1.80576e+06 214685 0 1.75876e+06 241760 0 1.71019e+06 262729 0 1.66081e+06 278454 0 1.61118e+06 289715 0 1.56175e+06 297207 0 1.51285e+06 301539 0 1.46471e+06 303236 0 1.41754e+06 302750 0 1.37146e+06 300467 0 1.32657e+06 296712 0 1.28296e+06 291761 0 1.24067e+06 285848 0 1.19974e+06 279167 0 1.16018e+06 271883 0 1.12201e+06 264133 0 1.08522e+06 256032 0 1.04982e+06 247673 0 1.0158e+06 239137 0 983130 230489 0 1.70501e+06 -680090 0 1.7791e+06 -591520 0 1.8517e+06 -495831 0 1.91105e+06 -398343 0 1.95393e+06 -300914 0 1.97887e+06 -206562 0 1.98679e+06 -118206 0 1.97974e+06 -38067 0 1.96036e+06 32600.7 0 1.93129e+06 93416.6 0 1.89492e+06 144644 0 1.85325e+06 186950 0 1.80789e+06 221207 0 1.76011e+06 248362 0 1.71087e+06 269351 0 1.66093e+06 285050 0 1.61085e+06 296253 0 1.56103e+06 303665 0 1.51182e+06 307900 0 1.46343e+06 309488 0 1.41605e+06 308885 0 1.36981e+06 306476 0 1.32481e+06 302592 0 1.2811e+06 297508 0 1.23874e+06 291458 0 1.19776e+06 284639 0 1.15818e+06 277214 0 1.11999e+06 269322 0 1.08321e+06 261077 0 1.04782e+06 252575 0 1.01381e+06 243894 0 981160 235100 0 1.71613e+06 -684522 0 1.79184e+06 -595384 0 1.86434e+06 -498886 0 1.92339e+06 -399915 0 1.96554e+06 -300803 0 1.98945e+06 -204812 0 1.9961e+06 -115028 0 1.98768e+06 -33740.3 0 1.96692e+06 37792.6 0 1.93655e+06 99225.6 0 1.89899e+06 150870 0 1.85626e+06 193437 0 1.80999e+06 227841 0 1.76142e+06 255059 0 1.71153e+06 276052 0 1.66103e+06 291711 0 1.61048e+06 302845 0 1.56028e+06 310167 0 1.51075e+06 314296 0 1.46211e+06 315768 0 1.41453e+06 315040 0 1.36814e+06 312502 0 1.32301e+06 308484 0 1.27921e+06 303262 0 1.23678e+06 297073 0 1.19576e+06 290112 0 1.15614e+06 282545 0 1.11795e+06 274509 0 1.08116e+06 266119 0 1.04578e+06 257471 0 1.01178e+06 248644 0 979160 239704 0 1.72748e+06 -689049 0 1.80462e+06 -599275 0 1.87713e+06 -501857 0 1.93589e+06 -401351 0 1.97731e+06 -300513 0 2.00016e+06 -202857 0 2.00551e+06 -111636 0 1.99567e+06 -29205.9 0 1.97351e+06 43177.6 0 1.94181e+06 105208 0 1.90305e+06 157247 0 1.85926e+06 200056 0 1.81207e+06 234587 0 1.76271e+06 261851 0 1.71215e+06 282831 0 1.66109e+06 298438 0 1.61007e+06 309491 0 1.5595e+06 316712 0 1.50966e+06 320727 0 1.46076e+06 322075 0 1.41298e+06 321217 0 1.36643e+06 318544 0 1.32117e+06 314387 0 1.27729e+06 309025 0 1.23479e+06 302692 0 1.19372e+06 295587 0 1.15408e+06 287875 0 1.11587e+06 279693 0 1.07908e+06 271157 0 1.04371e+06 262362 0 1.00973e+06 253388 0 977129 244301 0 1.73904e+06 -693660 0 1.81747e+06 -603185 0 1.89007e+06 -504745 0 1.94856e+06 -402649 0 1.98924e+06 -300040 0 2.01099e+06 -200693 0 2.015e+06 -108026 0 2.00372e+06 -24460.1 0 1.98012e+06 48758.3 0 1.94708e+06 111366 0 1.9071e+06 163778 0 1.86224e+06 206806 0 1.81411e+06 241445 0 1.76396e+06 268737 0 1.71273e+06 289690 0 1.66111e+06 305230 0 1.60963e+06 316191 0 1.55868e+06 323301 0 1.50852e+06 327193 0 1.45938e+06 328410 0 1.4114e+06 327416 0 1.36468e+06 324602 0 1.31931e+06 320301 0 1.27533e+06 314794 0 1.23277e+06 308316 0 1.19166e+06 301064 0 1.15199e+06 293204 0 1.11376e+06 284875 0 1.07697e+06 276190 0 1.04161e+06 267248 0 1.00765e+06 258126 0 975068 248891 0 1.75079e+06 -698348 0 1.83041e+06 -607110 0 1.90318e+06 -507551 0 1.9614e+06 -403805 0 2.00133e+06 -299380 0 2.02195e+06 -198314 0 2.02458e+06 -104194 0 2.01182e+06 -19499.3 0 1.98676e+06 54537.2 0 1.95235e+06 117701 0 1.91113e+06 170463 0 1.86519e+06 213689 0 1.81612e+06 248415 0 1.76518e+06 275717 0 1.71328e+06 296626 0 1.6611e+06 312087 0 1.60916e+06 322943 0 1.55782e+06 329933 0 1.50735e+06 333693 0 1.45796e+06 334772 0 1.40978e+06 333634 0 1.36291e+06 330675 0 1.31741e+06 326227 0 1.27334e+06 320571 0 1.23072e+06 313944 0 1.18956e+06 306542 0 1.14986e+06 298533 0 1.11162e+06 290053 0 1.07483e+06 281220 0 1.03948e+06 272128 0 1.00553e+06 262857 0 972976 253473 0 1.76272e+06 -703106 0 1.84346e+06 -611048 0 1.91646e+06 -510276 0 1.97442e+06 -404818 0 2.01359e+06 -298526 0 2.03304e+06 -195714 0 2.03425e+06 -100135 0 2.01997e+06 -14319.6 0 1.99342e+06 60516.8 0 1.95761e+06 124214 0 1.91515e+06 177303 0 1.86811e+06 220704 0 1.8181e+06 255497 0 1.76636e+06 282791 0 1.71378e+06 303641 0 1.66105e+06 319008 0 1.60864e+06 329748 0 1.55692e+06 336607 0 1.50615e+06 340227 0 1.4565e+06 341160 0 1.40812e+06 339874 0 1.3611e+06 336763 0 1.31548e+06 332163 0 1.27132e+06 326355 0 1.22863e+06 319575 0 1.18743e+06 312021 0 1.1477e+06 303860 0 1.10945e+06 295229 0 1.07266e+06 286244 0 1.03731e+06 277002 0 1.00339e+06 267581 0 970854 258047 0 1.77481e+06 -707931 0 1.85663e+06 -614994 0 1.92991e+06 -512920 0 1.98762e+06 -405682 0 2.02601e+06 -297475 0 2.04426e+06 -192889 0 2.044e+06 -95842.8 0 2.02816e+06 -8917.44 0 2.00009e+06 66699.7 0 1.96287e+06 130906 0 1.91914e+06 184299 0 1.87099e+06 227852 0 1.82004e+06 262691 0 1.7675e+06 289959 0 1.71425e+06 310733 0 1.66095e+06 325993 0 1.60808e+06 336605 0 1.55598e+06 343323 0 1.5049e+06 346795 0 1.45501e+06 347575 0 1.40643e+06 346133 0 1.35925e+06 342866 0 1.31351e+06 338110 0 1.26926e+06 332145 0 1.22651e+06 325210 0 1.18526e+06 317501 0 1.14551e+06 309186 0 1.10725e+06 300401 0 1.07046e+06 291264 0 1.03512e+06 281870 0 1.00121e+06 272298 0 968702 262614 0 1.78707e+06 -712822 0 1.86995e+06 -618947 0 1.94355e+06 -515482 0 2.00102e+06 -406394 0 2.0386e+06 -296219 0 2.0556e+06 -189831 0 2.05383e+06 -91313.5 0 2.0364e+06 -3288.99 0 2.00676e+06 73088.2 0 1.96811e+06 137780 0 1.9231e+06 191451 0 1.87385e+06 235132 0 1.82194e+06 269997 0 1.76859e+06 297219 0 1.71467e+06 317902 0 1.66081e+06 333041 0 1.60748e+06 343513 0 1.55501e+06 350080 0 1.50362e+06 353395 0 1.45348e+06 354015 0 1.4047e+06 352411 0 1.35737e+06 348983 0 1.31151e+06 344066 0 1.26717e+06 337942 0 1.22436e+06 330848 0 1.18307e+06 322982 0 1.14329e+06 314510 0 1.10502e+06 305571 0 1.06823e+06 296279 0 1.0329e+06 286732 0 999004 277008 0 966518 267173 0 1.79949e+06 -717776 0 1.88341e+06 -622905 0 1.95738e+06 -517960 0 2.01461e+06 -406951 0 2.05136e+06 -294753 0 2.06707e+06 -186535 0 2.06374e+06 -86541.4 0 2.04467e+06 2569.52 0 2.01345e+06 79684.8 0 1.97334e+06 144836 0 1.92704e+06 198759 0 1.87666e+06 242546 0 1.8238e+06 277414 0 1.76964e+06 304573 0 1.71505e+06 325148 0 1.66063e+06 340151 0 1.60684e+06 350472 0 1.55398e+06 356878 0 1.50229e+06 360028 0 1.45191e+06 360480 0 1.40294e+06 358709 0 1.35545e+06 355115 0 1.30948e+06 350032 0 1.26505e+06 343745 0 1.22217e+06 336489 0 1.18084e+06 328463 0 1.14103e+06 319832 0 1.10275e+06 310736 0 1.06596e+06 301289 0 1.03064e+06 291588 0 996765 281711 0 964304 271724 0 1.81207e+06 -722793 0 1.89705e+06 -626866 0 1.97142e+06 -520354 0 2.02841e+06 -407346 0 2.0643e+06 -293070 0 2.07867e+06 -182994 0 2.07373e+06 -81521.3 0 2.05298e+06 8661.85 0 2.02013e+06 86491.8 0 1.97854e+06 152076 0 1.93093e+06 206225 0 1.87943e+06 250092 0 1.82561e+06 284942 0 1.77064e+06 312018 0 1.71537e+06 332469 0 1.6604e+06 347324 0 1.60615e+06 357481 0 1.55292e+06 363717 0 1.50092e+06 366692 0 1.45029e+06 366970 0 1.40113e+06 365026 0 1.35349e+06 361259 0 1.3074e+06 356008 0 1.26289e+06 349553 0 1.21995e+06 342132 0 1.17857e+06 333944 0 1.13875e+06 325153 0 1.10045e+06 315898 0 1.06366e+06 306294 0 1.02835e+06 296437 0 994496 286406 0 962058 276267 0 1.82481e+06 -727875 0 1.91086e+06 -630830 0 1.98567e+06 -522660 0 2.04242e+06 -407574 0 2.07741e+06 -291163 0 2.09039e+06 -179200 0 2.08379e+06 -76247.6 0 2.06131e+06 14991.8 0 2.02682e+06 93511.5 0 1.98372e+06 159501 0 1.9348e+06 213849 0 1.88215e+06 257771 0 1.82737e+06 292581 0 1.77159e+06 319554 0 1.71565e+06 339865 0 1.66012e+06 354558 0 1.60541e+06 364540 0 1.55181e+06 370595 0 1.49951e+06 373388 0 1.44864e+06 373485 0 1.39928e+06 371361 0 1.35149e+06 367418 0 1.30529e+06 361992 0 1.26069e+06 355367 0 1.21769e+06 347778 0 1.17627e+06 339424 0 1.13642e+06 330471 0 1.09812e+06 321055 0 1.06133e+06 311293 0 1.02603e+06 301279 0 992195 291093 0 959782 280801 0 1.83772e+06 -733023 0 1.92486e+06 -634795 0 2.00014e+06 -524877 0 2.05665e+06 -407630 0 2.0907e+06 -289024 0 2.10223e+06 -175148 0 2.09391e+06 -70714.7 0 2.06966e+06 21563 0 2.03349e+06 100746 0 1.98887e+06 167112 0 1.93861e+06 221630 0 1.88483e+06 265582 0 1.82908e+06 300329 0 1.77249e+06 327182 0 1.71588e+06 347336 0 1.65979e+06 361852 0 1.60463e+06 371648 0 1.55065e+06 377512 0 1.49805e+06 380115 0 1.44694e+06 380022 0 1.3974e+06 377713 0 1.34946e+06 373588 0 1.30314e+06 367985 0 1.25846e+06 361185 0 1.2154e+06 353426 0 1.17394e+06 344905 0 1.13407e+06 335786 0 1.09575e+06 326209 0 1.05897e+06 316286 0 1.02368e+06 306115 0 989863 295773 0 957474 285326 0 1.85079e+06 -738237 0 1.93906e+06 -638761 0 2.01484e+06 -527001 0 2.0711e+06 -407506 0 2.10417e+06 -286645 0 2.11419e+06 -170828 0 2.1041e+06 -64917 0 2.07804e+06 28379.2 0 2.04015e+06 108197 0 1.99399e+06 174909 0 1.94238e+06 229569 0 1.88745e+06 273525 0 1.83073e+06 308187 0 1.77333e+06 334899 0 1.71605e+06 354881 0 1.65941e+06 369206 0 1.60379e+06 378804 0 1.54945e+06 384467 0 1.49655e+06 386871 0 1.4452e+06 386583 0 1.39547e+06 384083 0 1.34738e+06 379771 0 1.30096e+06 373986 0 1.25619e+06 367009 0 1.21307e+06 359076 0 1.17157e+06 350384 0 1.13168e+06 341099 0 1.09336e+06 331357 0 1.05657e+06 321274 0 1.0213e+06 310943 0 987498 300445 0 955135 289843 0 1.86404e+06 -743521 0 1.95347e+06 -642728 0 2.02979e+06 -529028 0 2.08578e+06 -407197 0 2.11782e+06 -284018 0 2.12627e+06 -166235 0 2.11435e+06 -58848.7 0 2.08643e+06 35444.1 0 2.04679e+06 115867 0 1.99907e+06 182894 0 1.9461e+06 237666 0 1.89001e+06 281600 0 1.83232e+06 316154 0 1.77412e+06 342706 0 1.71616e+06 362498 0 1.65897e+06 376619 0 1.6029e+06 386007 0 1.5482e+06 391461 0 1.495e+06 393657 0 1.44342e+06 393167 0 1.3935e+06 390469 0 1.34527e+06 385966 0 1.29873e+06 379995 0 1.25388e+06 372836 0 1.2107e+06 364726 0 1.16917e+06 355862 0 1.12926e+06 346408 0 1.09093e+06 336501 0 1.05415e+06 326255 0 1.01888e+06 315765 0 985102 305108 0 952765 294351 0 1.87747e+06 -748877 0 1.96811e+06 -646694 0 2.04499e+06 -530955 0 2.10069e+06 -406692 0 2.13165e+06 -281133 0 2.13846e+06 -161359 0 2.12465e+06 -52504.2 0 2.09482e+06 42761.3 0 2.05341e+06 123758 0 2.0041e+06 191067 0 1.94977e+06 245921 0 1.89252e+06 289805 0 1.83385e+06 324228 0 1.77484e+06 350601 0 1.71622e+06 370188 0 1.65848e+06 384091 0 1.60196e+06 393257 0 1.54689e+06 398490 0 1.49341e+06 400472 0 1.44159e+06 399772 0 1.39149e+06 396872 0 1.34311e+06 392173 0 1.29647e+06 386011 0 1.25154e+06 378668 0 1.2083e+06 370378 0 1.16673e+06 361339 0 1.1268e+06 351714 0 1.08846e+06 341640 0 1.05169e+06 331230 0 1.01644e+06 320578 0 982674 309763 0 950363 298849 0 1.89108e+06 -754308 0 1.98298e+06 -650660 0 2.06045e+06 -532776 0 2.11585e+06 -405985 0 2.14567e+06 -277980 0 2.15077e+06 -156192 0 2.135e+06 -45877.5 0 2.10322e+06 50334.3 0 2.05999e+06 131872 0 2.00909e+06 199429 0 1.95338e+06 254333 0 1.89496e+06 298141 0 1.83532e+06 332410 0 1.7755e+06 358584 0 1.71621e+06 377948 0 1.65793e+06 391619 0 1.60097e+06 400552 0 1.54554e+06 405556 0 1.49176e+06 407314 0 1.43972e+06 406399 0 1.38943e+06 403290 0 1.34091e+06 398390 0 1.29416e+06 392033 0 1.24915e+06 384502 0 1.20586e+06 376031 0 1.16426e+06 366814 0 1.1243e+06 357017 0 1.08596e+06 346774 0 1.04919e+06 336198 0 1.01396e+06 325384 0 980214 314410 0 947929 303339 0 1.90489e+06 -759817 0 1.99811e+06 -654624 0 2.07619e+06 -534487 0 2.13126e+06 -405066 0 2.15988e+06 -274550 0 2.16319e+06 -150726 0 2.1454e+06 -38962.7 0 2.11161e+06 58166.4 0 2.06655e+06 140209 0 2.01402e+06 207980 0 1.95692e+06 262903 0 1.89733e+06 306607 0 1.83672e+06 340698 0 1.77609e+06 366653 0 1.71614e+06 385778 0 1.65732e+06 399204 0 1.59992e+06 407892 0 1.54413e+06 412658 0 1.49007e+06 414184 0 1.43779e+06 413046 0 1.38733e+06 409723 0 1.33867e+06 404617 0 1.29182e+06 398063 0 1.24673e+06 390340 0 1.20339e+06 381684 0 1.16175e+06 372288 0 1.12178e+06 362315 0 1.08343e+06 351901 0 1.04666e+06 341159 0 1.01144e+06 330182 0 977722 319047 0 945464 307818 0 1.91891e+06 -765407 0 2.0135e+06 -658587 0 2.09222e+06 -536082 0 2.14693e+06 -403924 0 2.17427e+06 -270832 0 2.17572e+06 -144952 0 2.15584e+06 -31754.1 0 2.12e+06 66261 0 2.07306e+06 148773 0 2.01889e+06 216720 0 1.96039e+06 271630 0 1.89963e+06 315202 0 1.83805e+06 349091 0 1.77662e+06 374807 0 1.71601e+06 393677 0 1.65665e+06 406844 0 1.59881e+06 415276 0 1.54267e+06 419793 0 1.48833e+06 421081 0 1.43583e+06 419714 0 1.38518e+06 416171 0 1.33639e+06 410854 0 1.28943e+06 404098 0 1.24427e+06 396181 0 1.20087e+06 387336 0 1.1592e+06 377758 0 1.11921e+06 367609 0 1.08086e+06 357023 0 1.0441e+06 346113 0 1.0089e+06 334972 0 975198 323675 0 942967 312288 0 1.93314e+06 -771082 0 2.02916e+06 -662547 0 2.10854e+06 -537555 0 2.16286e+06 -402550 0 2.18884e+06 -266813 0 2.18834e+06 -138861 0 2.16631e+06 -24245.9 0 2.12837e+06 74621.3 0 2.07952e+06 157562 0 2.0237e+06 225650 0 1.9638e+06 280513 0 1.90186e+06 323924 0 1.8393e+06 357587 0 1.77708e+06 383045 0 1.71581e+06 401644 0 1.65591e+06 414538 0 1.59764e+06 422704 0 1.54116e+06 426963 0 1.48653e+06 428003 0 1.43381e+06 426400 0 1.38299e+06 422632 0 1.33406e+06 417101 0 1.287e+06 410138 0 1.24177e+06 402023 0 1.19832e+06 392988 0 1.15662e+06 383226 0 1.11661e+06 372899 0 1.07826e+06 362139 0 1.04151e+06 351060 0 1.00632e+06 339753 0 972641 328295 0 940438 316748 0 1.94759e+06 -776847 0 2.04511e+06 -666504 0 2.12518e+06 -538898 0 2.17907e+06 -400931 0 2.20361e+06 -262484 0 2.20107e+06 -132444 0 2.1768e+06 -16432.1 0 2.13671e+06 83250.3 0 2.08593e+06 166580 0 2.02844e+06 234770 0 1.96712e+06 289552 0 1.90401e+06 332773 0 1.84048e+06 366187 0 1.77746e+06 391367 0 1.71554e+06 409677 0 1.65512e+06 422285 0 1.59642e+06 430173 0 1.53958e+06 434165 0 1.48468e+06 434951 0 1.43174e+06 433105 0 1.38075e+06 429107 0 1.3317e+06 423356 0 1.28454e+06 416184 0 1.23923e+06 407868 0 1.19573e+06 398640 0 1.154e+06 388691 0 1.11398e+06 378183 0 1.07562e+06 367249 0 1.03888e+06 355999 0 1.0037e+06 344525 0 970051 332904 0 937877 321198 0 1.96227e+06 -782705 0 2.06137e+06 -670456 0 2.14215e+06 -540103 0 2.19555e+06 -399054 0 2.21855e+06 -257830 0 2.21388e+06 -125691 0 2.18731e+06 -8307.12 0 2.14502e+06 92150.8 0 2.09228e+06 175827 0 2.0331e+06 244078 0 1.97037e+06 298745 0 1.90608e+06 341748 0 1.84158e+06 374888 0 1.77776e+06 399770 0 1.7152e+06 417776 0 1.65425e+06 430084 0 1.59513e+06 437682 0 1.53796e+06 441398 0 1.48278e+06 441922 0 1.42962e+06 439828 0 1.37847e+06 435594 0 1.32928e+06 429619 0 1.28202e+06 422233 0 1.23665e+06 413714 0 1.19311e+06 404290 0 1.15134e+06 394153 0 1.11131e+06 383463 0 1.07295e+06 372351 0 1.03621e+06 360930 0 1.00106e+06 349289 0 967429 337504 0 935284 325638 0 1.97721e+06 -788661 0 2.07795e+06 -674403 0 2.15946e+06 -541162 0 2.21231e+06 -396906 0 2.23369e+06 -252838 0 2.22678e+06 -118594 0 2.19783e+06 134.687 0 2.1533e+06 101326 0 2.09857e+06 185304 0 2.03769e+06 253575 0 1.97353e+06 308092 0 1.90806e+06 350847 0 1.8426e+06 383689 0 1.77799e+06 408253 0 1.71479e+06 425939 0 1.65332e+06 437934 0 1.59378e+06 445232 0 1.53627e+06 448663 0 1.48083e+06 448917 0 1.42746e+06 446568 0 1.37613e+06 442093 0 1.32682e+06 435889 0 1.27947e+06 428287 0 1.23403e+06 419560 0 1.19044e+06 409938 0 1.14865e+06 399610 0 1.1086e+06 388736 0 1.07024e+06 377447 0 1.03352e+06 365852 0 998378 354043 0 964775 342094 0 932659 330067 0 1.9924e+06 -794720 0 2.09487e+06 -678343 0 2.17712e+06 -542064 0 2.22936e+06 -394473 0 2.249e+06 -247496 0 2.23976e+06 -111142 0 2.20836e+06 8898.82 0 2.16153e+06 110777 0 2.10478e+06 195010 0 2.04219e+06 263261 0 1.9766e+06 317591 0 1.90996e+06 360068 0 1.84353e+06 392589 0 1.77814e+06 416815 0 1.7143e+06 434165 0 1.65232e+06 445833 0 1.59236e+06 452820 0 1.53452e+06 455957 0 1.47882e+06 455934 0 1.42524e+06 453324 0 1.37375e+06 448603 0 1.32432e+06 442167 0 1.27687e+06 434344 0 1.23137e+06 425407 0 1.18773e+06 415584 0 1.14592e+06 405064 0 1.10586e+06 394004 0 1.0675e+06 382535 0 1.03079e+06 370767 0 995665 358788 0 962087 346674 0 930002 334485 0 2.00786e+06 -800888 0 2.11214e+06 -682275 0 2.19515e+06 -542800 0 2.24671e+06 -391739 0 2.26449e+06 -241789 0 2.25281e+06 -103325 0 2.21888e+06 17990.6 0 2.16971e+06 120507 0 2.11091e+06 204947 0 2.04659e+06 273134 0 1.97958e+06 327242 0 1.91176e+06 369412 0 1.84438e+06 401586 0 1.77821e+06 425454 0 1.71374e+06 442451 0 1.65125e+06 453781 0 1.59088e+06 460446 0 1.53271e+06 463280 0 1.47675e+06 462972 0 1.42297e+06 460095 0 1.37132e+06 455124 0 1.32177e+06 448451 0 1.27423e+06 440403 0 1.22866e+06 431254 0 1.18499e+06 421227 0 1.14315e+06 410513 0 1.10308e+06 399265 0 1.06472e+06 387616 0 1.02802e+06 375672 0 992919 363523 0 959367 351243 0 927312 338892 0 2.02361e+06 -807170 0 2.12979e+06 -686195 0 2.21357e+06 -543356 0 2.26436e+06 -388686 0 2.28016e+06 -235702 0 2.26593e+06 -95135.2 0 2.22938e+06 27415.2 0 2.17782e+06 130519 0 2.11696e+06 215115 0 2.0509e+06 283194 0 1.98245e+06 337042 0 1.91347e+06 378874 0 1.84513e+06 410678 0 1.77819e+06 434170 0 1.7131e+06 450798 0 1.65011e+06 461776 0 1.58934e+06 468109 0 1.53085e+06 470631 0 1.47463e+06 470032 0 1.42064e+06 466882 0 1.36884e+06 461654 0 1.31917e+06 454740 0 1.27155e+06 446465 0 1.22592e+06 437100 0 1.1822e+06 426868 0 1.14034e+06 415956 0 1.10026e+06 404520 0 1.06191e+06 392689 0 1.02522e+06 380568 0 990139 368248 0 956614 355801 0 924591 343288 0 2.03966e+06 -813571 0 2.14784e+06 -690103 0 2.23238e+06 -543720 0 2.28231e+06 -385297 0 2.296e+06 -229219 0 2.27909e+06 -86561.2 0 2.23987e+06 37177.6 0 2.18587e+06 140813 0 2.12291e+06 225513 0 2.05511e+06 293438 0 1.98523e+06 346990 0 1.91507e+06 388455 0 1.84579e+06 419864 0 1.77809e+06 442959 0 1.71238e+06 459203 0 1.64889e+06 469816 0 1.58772e+06 475806 0 1.52892e+06 478008 0 1.47244e+06 477110 0 1.41826e+06 473682 0 1.36632e+06 468193 0 1.31653e+06 461035 0 1.26882e+06 452529 0 1.22313e+06 442945 0 1.17938e+06 432505 0 1.13749e+06 421395 0 1.09741e+06 409768 0 1.05906e+06 397753 0 1.02238e+06 385455 0 987325 372963 0 953828 360349 0 921837 347672 0 2.05602e+06 -820099 0 2.1663e+06 -693994 0 2.25162e+06 -543878 0 2.30058e+06 -381553 0 2.312e+06 -222325 0 2.29231e+06 -77593.9 0 2.25031e+06 47282.3 0 2.19384e+06 151391 0 2.12877e+06 236141 0 2.05921e+06 303867 0 1.9879e+06 357085 0 1.91658e+06 398152 0 1.84636e+06 429142 0 1.77789e+06 451821 0 1.71158e+06 467665 0 1.6476e+06 477900 0 1.58604e+06 483538 0 1.52692e+06 485411 0 1.4702e+06 484208 0 1.41583e+06 480495 0 1.36374e+06 474741 0 1.31383e+06 467333 0 1.26605e+06 458594 0 1.2203e+06 448788 0 1.17651e+06 438138 0 1.13461e+06 426827 0 1.09452e+06 415008 0 1.05617e+06 402808 0 1.01951e+06 390332 0 984477 377667 0 951008 364885 0 919051 352045 0 2.07272e+06 -826759 0 2.18519e+06 -697865 0 2.27129e+06 -543812 0 2.31915e+06 -377432 0 2.32816e+06 -215004 0 2.30556e+06 -68223.6 0 2.26072e+06 57733.8 0 2.20172e+06 162254 0 2.13451e+06 246998 0 2.0632e+06 314479 0 1.99045e+06 367324 0 1.91797e+06 407963 0 1.84682e+06 438510 0 1.77761e+06 460753 0 1.71069e+06 476182 0 1.64623e+06 486027 0 1.58429e+06 491302 0 1.52486e+06 492839 0 1.4679e+06 491323 0 1.41335e+06 487320 0 1.3611e+06 481296 0 1.31109e+06 473636 0 1.26323e+06 464659 0 1.21743e+06 454629 0 1.1736e+06 443767 0 1.13168e+06 432254 0 1.09159e+06 420241 0 1.05325e+06 407855 0 1.01661e+06 395200 0 981596 382361 0 948156 369410 0 916232 356406 0 2.08977e+06 -833560 0 2.20456e+06 -701712 0 2.29141e+06 -543505 0 2.33805e+06 -372913 0 2.34447e+06 -207239 0 2.31883e+06 -58440.9 0 2.27107e+06 68536 0 2.2095e+06 173403 0 2.14015e+06 258084 0 2.06707e+06 325271 0 1.99289e+06 377706 0 1.91926e+06 417886 0 1.84718e+06 447965 0 1.77723e+06 469754 0 1.70972e+06 484753 0 1.64478e+06 494196 0 1.58246e+06 499097 0 1.52274e+06 500289 0 1.46555e+06 498455 0 1.4108e+06 494157 0 1.35842e+06 487858 0 1.30831e+06 479941 0 1.26037e+06 470724 0 1.21451e+06 460468 0 1.17066e+06 449390 0 1.12872e+06 437673 0 1.08862e+06 425466 0 1.05029e+06 412892 0 1.01367e+06 400057 0 978680 387043 0 945270 373924 0 913380 360754 0 </DataArray> 
</PointData> 
<Points> 
<DataArray type="Float32" NumberOfComponents="3"> 