<?xml version="1.0"?> 
<VTKFile type="StructuredGrid" version="0.1"> 
<StructuredGrid WholeExtent="0 31 0 31 0 0"> 
<Piece Extent="0 31 0 31 0 0"> 
<PointData>
<DataArray type="Float32" Name="|E|" format="ascii" NumberOfComponents="3"> 
447093 775991 0 428388 741001 0 410716 707112 0 394024 674270 0 378261 642417 0 363381 611499 0 349338 581467 0 336091 552272 0 323600 523866 0 311829 496206 0 300742 469248 0 290307 442952 0 280495 417275 0 271275 392181 0 262622 367630 0 254511 343585 0 246917 320011 0 239819 296871 0 233196 274132 0 227028 251758 0 221297 229718 0 215986 207976 0 211079 186502 0 206561 165262 0 202418 144225 0 198635 123360 0 195202 102633 0 192105 82015.1 0 189335 61474 0 186881 40978.6 0 184734 20497.7 0 182884 0 0 432704 779157 0 414629 743948 0 397552 709857 0 381420 676823 0 366186 644790 0 351802 613704 0 338228 583512 0 325421 554167 0 313345 525620 0 301964 497826 0 291245 470743 0 281155 444327 0 271667 418539 0 262751 393338 0 254383 368687 0 246538 344548 0 239194 320884 0 232328 297659 0 225921 274840 0 219954 252390 0 214410 230278 0 209271 208468 0 204522 186930 0 200149 165629 0 196137 144535 0 192475 123615 0 189150 102839 0 186150 82173.1 0 183465 61587.8 0 181085 41051.4 0 179002 20532.6 0 177205 0 0 418273 782113 0 400831 746703 0 384350 712422 0 368780 679210 0 354073 647009 0 340188 615765 0 327082 585424 0 314717 555938 0 303057 527259 0 292067 499341 0 281715 472139 0 271971 445612 0 262807 419719 0 254197 394419 0 246114 369674 0 238536 345446 0 231441 321698 0 224808 298394 0 218618 275499 0 212853 252978 0 207495 230798 0 202528 208925 0 197938 187327 0 193711 165970 0 189832 144822 0 186290 123852 0 183073 103028 0 180170 82318.9 0 177571 61692.7 0 175267 41118.4 0 173248 20564.6 0 171505 0 0 403807 784862 0 386998 749265 0 371114 714809 0 356105 681431 0 341928 649074 0 328541 617682 0 315904 587203 0 303981 557586 0 292737 528783 0 282139 500749 0 272155 473438 0 262758 446807 0 253919 420816 0 245613 395423 0 237816 370590 0 230506 346279 0 223661 322453 0 217262 299075 0 211289 276110 0 205725 253523 0 200554 231280 0 195760 209348 0 191329 187693 0 187248 166284 0 183502 145087 0 180081 124070 0 176973 103203 0 174168 82452.6 0 171655 61788.7 0 169426 41179.5 0 167472 20593.7 0 165785 0 0 389309 787405 0 373134 751636 0 357846 717017 0 343399 683486 0 329751 650985 0 316863 619457 0 304696 588849 0 293216 559111 0 282388 530194 0 272182 502051 0 262567 474638 0 253516 447911 0 245003 421829 0 237002 396351 0 229492 371437 0 222449 347049 0 215855 323149 0 209689 299703 0 203933 276672 0 198572 254024 0 193588 231723 0 188968 209736 0 184696 188030 0 180761 166571 0 177149 145328 0 173849 124269 0 170850 103362 0 168143 82574.2 0 165717 61875.8 0 163564 41234.8 0 161676 20620 0 160044 0 0 374785 789742 0 359243 753816 0 344551 719048 0 330666 685376 0 317548 652742 0 305158 621088 0 293461 590362 0 282423 560512 0 272012 531490 0 262198 503248 0 252952 475741 0 244248 448925 0 236060 422759 0 228366 397202 0 221141 372212 0 214367 347754 0 208023 323787 0 202091 300277 0 196554 277187 0 191394 254482 0 186598 232127 0 182151 210090 0 178040 188336 0 174251 166833 0 170773 145548 0 167594 124449 0 164706 103505 0 162097 82683.7 0 159758 61953.9 0 157682 41284.2 0 155860 20643.4 0 154284 0 0 360238 791874 0 345328 755805 0 331232 720901 0 317909 687101 0 305319 654345 0 293429 622577 0 282202 591743 0 271606 561791 0 261612 532672 0 252190 504339 0 243313 476746 0 234956 449849 0 227094 423606 0 219705 397976 0 212767 372918 0 206261 348394 0 200168 324367 0 194470 300798 0 189150 277653 0 184194 254896 0 179586 232493 0 175312 210409 0 171360 188612 0 167718 167068 0 164375 145745 0 161318 124610 0 158540 103633 0 156030 82781.2 0 153779 62023.3 0 151780 41327.9 0 150024 20663.9 0 148504 0 0 345671 793802 0 331393 757603 0 317893 722577 0 305130 688661 0 293070 655796 0 281677 623924 0 270920 592991 0 260767 562947 0 251189 533741 0 242160 505325 0 233652 477654 0 225641 450683 0 218105 424370 0 211021 398674 0 204370 373554 0 198133 348971 0 192290 324887 0 186826 301266 0 181725 278071 0 176971 255267 0 172551 232819 0 168451 210694 0 164660 188857 0 161165 167276 0 157956 145919 0 155022 124753 0 152354 103746 0 149943 82866.6 0 147780 62083.7 0 145858 41365.8 0 144170 20681.7 0 142707 0 0 331090 795527 0 317442 759213 0 304536 724077 0 292333 690057 0 280801 657093 0 269907 625128 0 259619 594108 0 249908 563980 0 240747 534696 0 232109 506205 0 223969 478464 0 216305 451427 0 209095 425052 0 202317 399296 0 195952 374119 0 189983 349483 0 184391 325350 0 179162 301681 0 174278 278441 0 169727 255595 0 165495 233107 0 161570 210944 0 157939 189073 0 154591 167459 0 151517 146071 0 148706 124876 0 146149 103843 0 143837 82940 0 141763 62135.4 0 139919 41398 0 138298 20696.6 0 136892 0 0 316497 797050 0 303478 760634 0 291165 725402 0 279522 691290 0 268517 658239 0 258120 626192 0 248300 595094 0 239031 564892 0 230286 535537 0 222039 506981 0 214268 479178 0 206951 452082 0 200066 425650 0 193593 399841 0 187515 374615 0 181814 349932 0 176473 325754 0 171477 302043 0 166812 278763 0 162464 255879 0 158420 233357 0 154669 211161 0 151198 189258 0 147998 167615 0 145059 146200 0 142370 124981 0 139924 103925 0 137713 83001.4 0 135728 62178.2 0 133962 41424.3 0 132408 20708.7 0 131061 0 0 301898 798371 0 289506 761867 0 277784 726551 0 266699 692360 0 256221 659233 0 246319 627114 0 236968 595948 0 228139 565682 0 219809 536266 0 211954 507653 0 204551 479794 0 197579 452647 0 191019 426166 0 184852 400311 0 179060 375041 0 173626 350317 0 168536 326099 0 163774 302352 0 159327 279038 0 155182 256121 0 151327 233567 0 147749 211343 0 144439 189413 0 141387 167746 0 138583 146308 0 136017 125067 0 133683 103992 0 131571 83050.8 0 129675 62212.2 0 127988 41445 0 126503 20717.9 0 125214 0 0 287294 799492 0 275528 762914 0 264396 727527 0 253868 693268 0 243914 660077 0 234508 627896 0 225623 596672 0 217235 566351 0 209319 536883 0 201854 508220 0 194818 480314 0 188192 453122 0 181957 426600 0 176094 400706 0 170588 375398 0 165422 350638 0 160582 326387 0 156054 302608 0 151825 279264 0 147883 256320 0 144215 233740 0 140812 211491 0 137663 189538 0 134758 167850 0 132089 146393 0 129647 125134 0 127424 104044 0 125413 83088.4 0 123606 62237.5 0 121998 41459.9 0 120581 20724.4 0 119351 0 0 272692 800414 0 261548 763775 0 251004 728330 0 241031 694014 0 231601 660770 0 222688 628538 0 214269 597266 0 206320 566899 0 198818 537387 0 191742 508683 0 185073 480739 0 178792 453510 0 172880 426952 0 167322 401025 0 162101 375686 0 157202 350896 0 152613 326617 0 148318 302812 0 144307 279443 0 140567 256476 0 137088 233874 0 133858 211605 0 130870 189634 0 128113 167928 0 125579 146455 0 123260 125183 0 121149 104080 0 119238 83114 0 117521 62254.1 0 115992 41469.1 0 114645 20728 0 113474 0 0 258093 801139 0 247570 764452 0 237612 728960 0 228191 694600 0 219283 661313 0 210863 629041 0 202908 597730 0 195397 567326 0 188307 537780 0 181620 509042 0 175317 481067 0 169380 453808 0 163791 427223 0 158537 401268 0 153600 375904 0 148969 351091 0 144629 326790 0 140567 302963 0 136773 279575 0 133236 256589 0 129944 233970 0 126889 211685 0 124061 189700 0 121452 167981 0 119054 146496 0 116858 125214 0 114859 104101 0 113049 83127.8 0 111422 62261.9 0 109972 41472.6 0 108694 20728.9 0 107583 0 0 243502 801666 0 233597 764945 0 224222 729419 0 215352 695026 0 206964 661708 0 199035 629406 0 191543 598065 0 184468 567634 0 177790 538061 0 171490 509299 0 165552 481300 0 159958 454018 0 154692 427412 0 149740 401437 0 145088 376054 0 140723 351223 0 136632 326905 0 132803 303062 0 129226 279659 0 125891 256659 0 122787 234028 0 119906 211732 0 117238 189736 0 114777 168008 0 112514 146515 0 110442 125225 0 108554 104107 0 106845 83129.7 0 105308 62261 0 103938 41470.4 0 102730 20727 0 101679 0 0 228923 801998 0 219632 765255 0 210838 729707 0 202517 695294 0 194647 661954 0 187207 629632 0 180176 598272 0 173536 567822 0 167268 538232 0 161354 509453 0 155780 481437 0 150527 454141 0 145584 427520 0 140934 401532 0 136565 376135 0 132466 351292 0 128623 326962 0 125027 303109 0 121667 279696 0 118533 256688 0 115617 234048 0 112909 211744 0 110402 189742 0 108088 168009 0 105960 146511 0 104012 125219 0 102236 104099 0 100628 83119.9 0 99181.6 62251.5 0 97891.7 41462.6 0 96753.5 20722.3 0 95762.3 0 0 214358 802137 0 205679 765384 0 197464 729827 0 189689 695403 0 182334 662053 0 175381 629721 0 168809 598352 0 162602 567892 0 156743 538293 0 151214 509504 0 146002 481481 0 141091 454176 0 136468 427547 0 132119 401551 0 128033 376149 0 124199 351299 0 120604 326963 0 117240 303105 0 114096 279687 0 111164 256674 0 108434 234031 0 105900 211724 0 103553 189719 0 101386 167984 0 99393.8 146486 0 97568.8 125194 0 95905.4 104075 0 94398.4 83098.4 0 93042.4 62233.4 0 91832.7 41449.1 0 90764.7 20714.8 0 89834 0 0 199812 802082 0 191742 765333 0 184101 729777 0 176870 695355 0 170028 662006 0 163559 629674 0 157446 598304 0 151670 567844 0 146218 538244 0 141073 509454 0 136221 481430 0 131650 454124 0 127347 427494 0 123298 401497 0 119494 376094 0 115924 351243 0 112576 326907 0 109443 303048 0 106515 279631 0 103783 256618 0 101241 233976 0 98879.3 211670 0 96692.3 189667 0 94673.1 167934 0 92815.6 146439 0 91114 125150 0 89562.8 104036 0 88156.9 83065.2 0 86891.5 62206.7 0 85762.1 41430.1 0 84764.6 20704.7 0 83894.8 0 0 185288 801836 0 177823 765103 0 170754 729561 0 164063 695151 0 157732 661813 0 151746 629491 0 146087 598130 0 140741 567678 0 135694 538086 0 130931 509303 0 126439 481285 0 122207 453985 0 118221 427361 0 114472 401370 0 110949 375971 0 107642 351126 0 104541 326795 0 101638 302941 0 98925 279528 0 96393.9 256520 0 94037.4 233883 0 91848.6 211582 0 89821.2 189585 0 87949.1 167859 0 86226.6 146371 0 84648.2 125089 0 83209.1 103983 0 81904.4 83020.3 0 80729.7 62171.5 0 79680.8 41405.4 0 78754 20691.7 0 77945.2 0 0 170789 801401 0 163926 764695 0 157425 729179 0 151272 694792 0 145449 661475 0 139942 629173 0 134737 597830 0 129818 567396 0 125174 537819 0 120791 509051 0 116658 481047 0 112762 453760 0 109094 427148 0 105643 401169 0 102399 375782 0 99354.3 350947 0 96499.3 326626 0 93826.2 302782 0 91327.5 279379 0 88996.1 256380 0 86825.3 233753 0 84808.8 211462 0 82940.7 189475 0 81215.3 167758 0 79627.5 146280 0 78172.4 125009 0 76845.2 103914 0 75641.7 82963.9 0 74557.8 62127.7 0 73589.6 41375.2 0 72733.6 20676.1 0 71986.2 0 0 156320 800776 0 150053 764111 0 144118 728632 0 138499 694279 0 133181 660994 0 128152 628721 0 123397 597406 0 118904 566997 0 114660 537444 0 110656 508700 0 106879 480716 0 103319 453450 0 99966.1 426857 0 96811.8 400895 0 93846.8 375525 0 91063 350706 0 88452.7 326401 0 86008.5 302572 0 83723.5 279183 0 81591.2 256199 0 79605.6 233586 0 77760.8 211309 0 76051.6 189335 0 74472.7 167632 0 73019.5 146168 0 71687.3 124912 0 70472.1 103831 0 69369.8 82895.9 0 68376.6 62075.5 0 67489.2 41339.5 0 66704.2 20657.7 0 66018.4 0 0 141882 799966 0 136209 763352 0 130835 727921 0 125747 693613 0 120931 660370 0 116376 628136 0 112069 596858 0 107999 566483 0 104155 536963 0 100526 508248 0 97103.8 480293 0 93877.8 453054 0 90839.4 426486 0 87980.4 400549 0 85292.8 375201 0 82769.2 350405 0 80402.5 326120 0 78186.3 302312 0 76114.2 278942 0 74180.4 255977 0 72379.3 233382 0 70705.9 211123 0 69155 189167 0 67722.3 167481 0 66403.3 146035 0 65194 124796 0 64090.5 103733 0 63089.3 82816.5 0 62186.9 62014.9 0 61380.3 41298.2 0 60666.5 20636.6 0 60042.4 0 0 127481 798969 0 122396 762419 0 117580 727048 0 113019 692796 0 108702 659605 0 104618 627420 0 100756 596187 0 97106.6 565855 0 93659.3 536375 0 90405.1 507698 0 87335.2 479779 0 84441.3 452573 0 81715.5 426037 0 79150.4 400131 0 76738.8 374812 0 74474.2 350042 0 72350.2 325784 0 70361 302001 0 68500.9 278655 0 66764.8 255714 0 65147.7 233141 0 63644.9 210904 0 62252 188970 0 60965 167306 0 59779.9 145880 0 58693.2 124662 0 57701.3 103621 0 56801.1 82725.6 0 55989.6 61945.8 0 55263.8 41251.5 0 54621.2 20612.9 0 54059.2 0 0 113118 797789 0 108618 761315 0 104355 726014 0 100318 691828 0 96496.4 658699 0 92880.5 626571 0 89461 595393 0 86229.1 565113 0 83176.1 535681 0 80293.8 507049 0 77574.6 479173 0 75011 452008 0 72596.1 425511 0 70323.3 399640 0 68186.4 374356 0 66179.4 349620 0 64297 325393 0 62533.7 301640 0 60884.8 278323 0 59345.6 255409 0 57911.6 232864 0 56578.9 210653 0 55343.5 188744 0 54201.8 167105 0 53150.3 145705 0 52185.9 124511 0 51305.4 103494 0 50506.2 82623.4 0 49785.3 61868.4 0 49140.5 41199.3 0 48569.2 20586.4 0 48069.3 0 0 98797 796427 0 94877.7 760040 0 91164.1 724820 0 87646.5 690710 0 84316.5 657653 0 81165.5 625593 0 78185.4 594478 0 75368.5 564257 0 72707.3 534882 0 70194.6 506303 0 67823.9 478477 0 65588.6 451360 0 63482.8 424907 0 61500.7 399079 0 59637 373836 0 57886.4 349138 0 56244.2 324947 0 54705.9 301229 0 53267.1 277946 0 51923.9 255065 0 50672.4 232550 0 49509.1 210369 0 48430.6 188490 0 47433.7 166880 0 46515.4 145508 0 45672.9 124342 0 44903.7 103353 0 44205.2 82509.9 0 43575 61782.7 0 43011 41141.7 0 42511.2 20557.3 0 42073.5 0 0 84521.7 794885 0 81177.7 758595 0 78009 723468 0 75007.2 689445 0 72165.2 656469 0 69475.7 624486 0 66931.8 593443 0 64527 563290 0 62254.9 533978 0 60109.4 505461 0 58084.9 477692 0 56176 450628 0 54377.4 424227 0 52684.3 398447 0 51092.1 373250 0 49596.4 348595 0 48193.3 324447 0 46878.7 300769 0 45649 277524 0 44500.9 254679 0 43431.1 232200 0 42436.4 210054 0 41514.2 188208 0 40661.6 166630 0 39876 145290 0 39155.3 124156 0 38497 103197 0 37899 82385.2 0 37359.4 61688.8 0 36876.3 41078.7 0 36447.9 20525.6 0 36072.6 0 0 70295 793163 0 67521.5 756984 0 64893.1 721959 0 62402.9 688033 0 60045 655148 0 57813.4 623250 0 55702.5 592288 0 53706.8 562211 0 51821 532971 0 50040.2 504522 0 48359.6 476817 0 46774.7 449814 0 45281.3 423470 0 43875.4 397745 0 42553.2 372599 0 41311 347994 0 40145.4 323893 0 39053.4 300259 0 38031.8 277058 0 37077.8 254254 0 36188.7 231814 0 35362 209706 0 34595.3 187897 0 33886.5 166356 0 33233.3 145051 0 32633.8 123952 0 32086.1 103028 0 31588.5 82249.2 0 31139.3 61586.6 0 30737 41010.4 0 30380.1 20491.2 0 30067.3 0 0 56120.1 791265 0 53911.9 755206 0 51819.2 720295 0 49836.3 686475 0 47958.5 653690 0 46181.2 621888 0 44499.8 591015 0 42910 561022 0 41407.7 531862 0 39988.8 503487 0 38649.6 475854 0 37386.6 448918 0 36196.4 422638 0 35075.8 396973 0 34021.7 371885 0 33031.4 347334 0 32102.1 323285 0 31231.3 299701 0 30416.5 276547 0 29655.6 253789 0 28946.4 231393 0 28286.8 209327 0 27675.1 187559 0 27109.3 166058 0 26587.9 144791 0 26109.3 123730 0 25671.9 102844 0 25274.5 82102.2 0 24915.6 61476.3 0 24594 40936.7 0 24308.6 20454.2 0 24058.2 0 0 42000.1 789191 0 40352.1 753264 0 38790.1 718476 0 37310 684773 0 35908.3 652098 0 34581.4 620399 0 33326 589624 0 32138.8 559724 0 31016.9 530651 0 29957.1 502358 0 28956.9 474802 0 28013.4 447940 0 27124.2 421730 0 26286.9 396132 0 25499.3 371106 0 24759.2 346616 0 24064.6 322623 0 23413.6 299094 0 22804.5 275992 0 22235.6 253284 0 21705.3 230936 0 21212 208917 0 20754.4 187193 0 20331.2 165735 0 19941 144511 0 19582.8 123491 0 19255.4 102646 0 18957.8 81944.1 0 18688.9 61357.9 0 18448 40857.7 0 18234 20414.7 0 18046.3 0 0 27938 786944 0 26844.9 751159 0 25808.8 716505 0 24826.8 682928 0 23896.8 650373 0 23016.4 618786 0 22183.2 588117 0 21395.4 558317 0 20650.7 529338 0 19947.2 501135 0 19283.2 473664 0 18656.7 446882 0 18066.3 420748 0 17510.3 395222 0 16987.2 370265 0 16495.6 345839 0 16034.2 321909 0 15601.7 298439 0 15197 275393 0 14818.9 252739 0 14466.4 230444 0 14138.5 208475 0 13834.3 186800 0 13552.9 165389 0 13293.4 144211 0 13055.2 123236 0 12837.3 102433 0 12639.2 81775.1 0 12460.3 61231.4 0 12299.8 40773.4 0 12157.3 20372.5 0 12032.1 0 0 13937 784526 0 13393.2 748893 0 12877.8 714383 0 12389.3 680942 0 11926.6 648515 0 11488.4 617049 0 11073.8 586495 0 10681.7 556802 0 10311.1 527926 0 9960.87 499820 0 9630.27 472440 0 9318.38 445744 0 9024.37 419692 0 8747.47 394244 0 8486.93 369360 0 8242.06 345005 0 8012.2 321142 0 7796.74 297736 0 7595.07 274751 0 7406.66 252156 0 7230.98 229917 0 7067.53 208002 0 6915.86 186379 0 6775.53 165019 0 6646.12 143890 0 6527.25 122963 0 6418.56 102207 0 6319.7 81595.2 0 6230.35 61096.9 0 6150.21 40684 0 6078.99 20327.8 0 6016.41 0 0 0 781937 0 0 746467 0 0 712112 0 0 678816 0 0 646526 0 0 615190 0 0 584758 0 0 555182 0 0 526414 0 0 498412 0 0 471130 0 0 444527 0 0 418563 0 0 393198 0 0 368394 0 0 344114 0 0 320323 0 0 296985 0 0 274067 0 0 251534 0 0 229355 0 0 207498 0 0 185932 0 0 164625 0 0 143549 0 0 122673 0 0 101968 0 0 81404.4 0 0 60954.5 0 0 40589.3 0 0 20280.5 0 0 0 0 </DataArray> 
</PointData> 
<Points> 
<DataArray type="Float32" NumberOfComponents="3"> 