<?xml version="1.0"?> 
<VTKFile type="StructuredGrid" version="0.1"> 
<StructuredGrid WholeExtent="0 31 0 31 0 0"> 
<Piece Extent="0 31 0 31 0 0"> 
<PointData>
<DataArray type="Float32" Name="|E|" format="ascii" NumberOfComponents="3"> 
-1.84143e+06 0 0 -1.8419e+06 25421.4 0 -1.84329e+06 50871.4 0 -1.84559e+06 76378.5 0 -1.8488e+06 101972 0 -1.85293e+06 127680 0 -1.85797e+06 153534 0 -1.86392e+06 179563 0 -1.87079e+06 205799 0 -1.87856e+06 232274 0 -1.88724e+06 259022 0 -1.89683e+06 286076 0 -1.90732e+06 313474 0 -1.91871e+06 341253 0 -1.93099e+06 369453 0 -1.94416e+06 398116 0 -1.95821e+06 427287 0 -1.97312e+06 457015 0 -1.98889e+06 487350 0 -2.0055e+06 518347 0 -2.02294e+06 550066 0 -2.04116e+06 582571 0 -2.06016e+06 615934 0 -2.07988e+06 650229 0 -2.10029e+06 685542 0 -2.12134e+06 721966 0 -2.14294e+06 759603 0 -2.16502e+06 798565 0 -2.18746e+06 838978 0 -2.21015e+06 880980 0 -2.23289e+06 924718 0 -2.2555e+06 970370 0 -1.83633e+06 0 0 -1.8368e+06 25603.9 0 -1.83818e+06 51236.3 0 -1.84046e+06 76925.9 0 -1.84366e+06 102701 0 -1.84776e+06 128592 0 -1.85277e+06 154628 0 -1.85868e+06 180839 0 -1.8655e+06 207257 0 -1.87322e+06 233913 0 -1.88185e+06 260841 0 -1.89137e+06 288076 0 -1.90179e+06 315653 0 -1.9131e+06 343611 0 -1.92529e+06 371988 0 -1.93836e+06 400827 0 -1.9523e+06 430173 0 -1.9671e+06 460072 0 -1.98275e+06 490575 0 -1.99922e+06 521738 0 -2.0165e+06 553617 0 -2.03456e+06 586278 0 -2.05338e+06 619789 0 -2.07291e+06 654225 0 -2.09311e+06 689668 0 -2.11392e+06 726209 0 -2.13527e+06 763947 0 -2.15708e+06 802992 0 -2.17922e+06 843462 0 -2.20158e+06 885492 0 -2.22397e+06 929221 0 -2.24618e+06 974809 0 -1.83119e+06 0 0 -1.83166e+06 25785.3 0 -1.83303e+06 51599 0 -1.8353e+06 77469.8 0 -1.83847e+06 103427 0 -1.84255e+06 129498 0 -1.84752e+06 155715 0 -1.8534e+06 182107 0 -1.86018e+06 208705 0 -1.86785e+06 235541 0 -1.87641e+06 262649 0 -1.88587e+06 290062 0 -1.89622e+06 317818 0 -1.90745e+06 345952 0 -1.91955e+06 374505 0 -1.93253e+06 403518 0 -1.94636e+06 433036 0 -1.96105e+06 463105 0 -1.97656e+06 493775 0 -1.9929e+06 525100 0 -2.01003e+06 557138 0 -2.02793e+06 589951 0 -2.04657e+06 623607 0 -2.06591e+06 658180 0 -2.0859e+06 693750 0 -2.10649e+06 730404 0 -2.12759e+06 768240 0 -2.14912e+06 807362 0 -2.17098e+06 847885 0 -2.19301e+06 889936 0 -2.21505e+06 933648 0 -2.23688e+06 979169 0 -1.82602e+06 0 0 -1.82648e+06 25965.5 0 -1.82784e+06 51959.4 0 -1.8301e+06 78010.3 0 -1.83325e+06 104147 0 -1.8373e+06 130399 0 -1.84225e+06 156795 0 -1.84808e+06 183366 0 -1.85482e+06 210143 0 -1.86244e+06 237158 0 -1.87095e+06 264444 0 -1.88034e+06 292035 0 -1.89061e+06 319967 0 -1.90176e+06 348277 0 -1.91378e+06 377004 0 -1.92666e+06 406189 0 -1.94039e+06 435877 0 -1.95496e+06 466113 0 -1.97035e+06 496948 0 -1.98655e+06 528433 0 -2.00353e+06 560627 0 -2.02127e+06 593590 0 -2.03974e+06 627389 0 -2.05889e+06 662095 0 -2.07867e+06 697788 0 -2.09903e+06 734552 0 -2.11989e+06 772481 0 -2.14116e+06 811676 0 -2.16272e+06 852247 0 -2.18444e+06 894314 0 -2.20614e+06 938003 0 -2.22759e+06 983452 0 -1.82081e+06 0 0 -1.82127e+06 26144.5 0 -1.82262e+06 52317.5 0 -1.82486e+06 78547.4 0 -1.828e+06 104863 0 -1.83202e+06 131293 0 -1.83693e+06 157868 0 -1.84273e+06 184618 0 -1.84942e+06 211573 0 -1.85699e+06 238765 0 -1.86544e+06 266227 0 -1.87477e+06 293994 0 -1.88497e+06 322101 0 -1.89604e+06 350585 0 -1.90797e+06 379484 0 -1.92075e+06 408840 0 -1.93438e+06 438696 0 -1.94883e+06 469098 0 -1.9641e+06 500095 0 -1.98017e+06 531739 0 -1.997e+06 564086 0 -2.01458e+06 597196 0 -2.03288e+06 631134 0 -2.05184e+06 665972 0 -2.07142e+06 701784 0 -2.09156e+06 738654 0 -2.11217e+06 776672 0 -2.13318e+06 815935 0 -2.15446e+06 856549 0 -2.17587e+06 898627 0 -2.19723e+06 942288 0 -2.21833e+06 987660 0 -1.81557e+06 0 0 -1.81602e+06 26322.5 0 -1.81736e+06 52673.3 0 -1.81959e+06 79081 0 -1.82271e+06 105574 0 -1.8267e+06 132182 0 -1.83158e+06 158934 0 -1.83735e+06 185861 0 -1.84399e+06 212992 0 -1.85151e+06 240361 0 -1.8599e+06 267998 0 -1.86917e+06 295940 0 -1.8793e+06 324220 0 -1.89029e+06 352876 0 -1.90213e+06 381946 0 -1.91482e+06 411471 0 -1.92834e+06 441494 0 -1.94268e+06 472059 0 -1.95782e+06 503216 0 -1.97375e+06 535016 0 -1.99044e+06 567514 0 -2.00787e+06 600768 0 -2.02599e+06 634844 0 -2.04476e+06 669809 0 -2.06414e+06 705737 0 -2.08406e+06 742710 0 -2.10444e+06 780813 0 -2.12519e+06 820140 0 -2.14619e+06 860792 0 -2.1673e+06 902876 0 -2.18834e+06 946505 0 -2.20909e+06 991794 0 -1.81029e+06 0 0 -1.81074e+06 26499.3 0 -1.81207e+06 53026.9 0 -1.81429e+06 79611.2 0 -1.81738e+06 106281 0 -1.82135e+06 133065 0 -1.8262e+06 159993 0 -1.83192e+06 187096 0 -1.83852e+06 214402 0 -1.84599e+06 241945 0 -1.85433e+06 269757 0 -1.86353e+06 297872 0 -1.87359e+06 326324 0 -1.8845e+06 355151 0 -1.89625e+06 384390 0 -1.90885e+06 414082 0 -1.92226e+06 444269 0 -1.93649e+06 474997 0 -1.95151e+06 506312 0 -1.96731e+06 538265 0 -1.98386e+06 570912 0 -2.00112e+06 604308 0 -2.01907e+06 638518 0 -2.03766e+06 673607 0 -2.05684e+06 709649 0 -2.07655e+06 746720 0 -2.0967e+06 784905 0 -2.11719e+06 824292 0 -2.13792e+06 864979 0 -2.15874e+06 907065 0 -2.17946e+06 950655 0 -2.19987e+06 995857 0 -1.80497e+06 0 0 -1.80542e+06 26674.9 0 -1.80674e+06 53378.1 0 -1.80894e+06 80138 0 -1.81202e+06 106983 0 -1.81596e+06 133943 0 -1.82078e+06 161046 0 -1.82647e+06 188322 0 -1.83302e+06 215803 0 -1.84044e+06 243520 0 -1.84872e+06 271504 0 -1.85785e+06 299791 0 -1.86784e+06 328413 0 -1.87868e+06 357409 0 -1.89035e+06 386816 0 -1.90284e+06 416674 0 -1.91616e+06 447024 0 -1.93027e+06 477911 0 -1.94517e+06 509382 0 -1.96084e+06 541487 0 -1.97724e+06 574279 0 -1.99435e+06 607816 0 -2.01213e+06 642157 0 -2.03054e+06 677368 0 -2.04953e+06 713520 0 -2.06902e+06 750686 0 -2.08893e+06 788949 0 -2.10918e+06 828393 0 -2.12965e+06 869109 0 -2.15017e+06 911193 0 -2.17059e+06 954741 0 -2.19068e+06 999852 0 -1.79962e+06 0 0 -1.80007e+06 26849.5 0 -1.80138e+06 53727.2 0 -1.80357e+06 80661.4 0 -1.80662e+06 107681 0 -1.81054e+06 134814 0 -1.81533e+06 162091 0 -1.82097e+06 189541 0 -1.82748e+06 217194 0 -1.83485e+06 245083 0 -1.84308e+06 273239 0 -1.85215e+06 301696 0 -1.86207e+06 330488 0 -1.87282e+06 359651 0 -1.8844e+06 389224 0 -1.89681e+06 419245 0 -1.91002e+06 449756 0 -1.92402e+06 480802 0 -1.9388e+06 512427 0 -1.95433e+06 544681 0 -1.97059e+06 577618 0 -1.98755e+06 611291 0 -2.00517e+06 645761 0 -2.0234e+06 681091 0 -2.04219e+06 717350 0 -2.06147e+06 754609 0 -2.08116e+06 792946 0 -2.10117e+06 832442 0 -2.12137e+06 873185 0 -2.14162e+06 915262 0 -2.16174e+06 958765 0 -2.18151e+06 1.00378e+06 0 -1.79423e+06 0 0 -1.79468e+06 27022.9 0 -1.79599e+06 54073.9 0 -1.79816e+06 81181.5 0 -1.80119e+06 108374 0 -1.80508e+06 135680 0 -1.80984e+06 163129 0 -1.81545e+06 190751 0 -1.82191e+06 218576 0 -1.82923e+06 246636 0 -1.8374e+06 274962 0 -1.84641e+06 303587 0 -1.85625e+06 332547 0 -1.86693e+06 361877 0 -1.87843e+06 391614 0 -1.89074e+06 421797 0 -1.90385e+06 452468 0 -1.91774e+06 483669 0 -1.9324e+06 515447 0 -1.9478e+06 547849 0 -1.96392e+06 580926 0 -1.98073e+06 614734 0 -1.99818e+06 649331 0 -2.01623e+06 684777 0 -2.03483e+06 721140 0 -2.0539e+06 758488 0 -2.07337e+06 796896 0 -2.09314e+06 836442 0 -2.11309e+06 877207 0 -2.13307e+06 919275 0 -2.1529e+06 962728 0 -2.17236e+06 1.00765e+06 0 -1.78881e+06 0 0 -1.78925e+06 27195.2 0 -1.79055e+06 54418.4 0 -1.79271e+06 81698.1 0 -1.79572e+06 109062 0 -1.79959e+06 136540 0 -1.80431e+06 164161 0 -1.80989e+06 191953 0 -1.81631e+06 219949 0 -1.82358e+06 248178 0 -1.83169e+06 276672 0 -1.84063e+06 305466 0 -1.85041e+06 334592 0 -1.86101e+06 364086 0 -1.87242e+06 393986 0 -1.88464e+06 424330 0 -1.89765e+06 455158 0 -1.91143e+06 486514 0 -1.92597e+06 518441 0 -1.94124e+06 550989 0 -1.95722e+06 584206 0 -1.97387e+06 618146 0 -1.99116e+06 652867 0 -2.00904e+06 688427 0 -2.02745e+06 724890 0 -2.04632e+06 762325 0 -2.06558e+06 800801 0 -2.08511e+06 840393 0 -2.10481e+06 881178 0 -2.12452e+06 923232 0 -2.14407e+06 966632 0 -2.16324e+06 1.01145e+06 0 -1.78336e+06 0 0 -1.7838e+06 27366.3 0 -1.78509e+06 54760.7 0 -1.78723e+06 82211.3 0 -1.79022e+06 109746 0 -1.79407e+06 137395 0 -1.79876e+06 165185 0 -1.80429e+06 193148 0 -1.81067e+06 221312 0 -1.81789e+06 249709 0 -1.82594e+06 278371 0 -1.83483e+06 307331 0 -1.84453e+06 336622 0 -1.85505e+06 366279 0 -1.86638e+06 396340 0 -1.87851e+06 426843 0 -1.89141e+06 457827 0 -1.90509e+06 489335 0 -1.91951e+06 521411 0 -1.93465e+06 554102 0 -1.95049e+06 587457 0 -1.967e+06 621527 0 -1.98412e+06 656369 0 -2.00183e+06 692040 0 -2.02005e+06 728602 0 -2.03873e+06 766120 0 -2.05777e+06 804662 0 -2.07707e+06 844297 0 -2.09653e+06 885097 0 -2.11598e+06 927135 0 -2.13526e+06 970480 0 -2.15414e+06 1.01519e+06 0 -1.77787e+06 0 0 -1.7783e+06 27536.4 0 -1.77959e+06 55100.7 0 -1.78172e+06 82721.1 0 -1.78469e+06 110426 0 -1.78851e+06 138244 0 -1.79317e+06 166203 0 -1.79866e+06 194334 0 -1.805e+06 222666 0 -1.81217e+06 251230 0 -1.82016e+06 280058 0 -1.82898e+06 309183 0 -1.83862e+06 338637 0 -1.84907e+06 368456 0 -1.86031e+06 398677 0 -1.87234e+06 429337 0 -1.88515e+06 460475 0 -1.89872e+06 492134 0 -1.91302e+06 524357 0 -1.92803e+06 557189 0 -1.94374e+06 590679 0 -1.96009e+06 624877 0 -1.97706e+06 659838 0 -1.9946e+06 695618 0 -2.01264e+06 732276 0 -2.03111e+06 769875 0 -2.04995e+06 808478 0 -2.06903e+06 848154 0 -2.08825e+06 888968 0 -2.10745e+06 930987 0 -2.12647e+06 974273 0 -2.14507e+06 1.01888e+06 0 -1.77235e+06 0 0 -1.77278e+06 27705.3 0 -1.77405e+06 55438.5 0 -1.77617e+06 83227.6 0 -1.77912e+06 111101 0 -1.78291e+06 139087 0 -1.78754e+06 167214 0 -1.793e+06 195512 0 -1.79929e+06 224011 0 -1.80641e+06 252741 0 -1.81435e+06 281733 0 -1.82311e+06 311021 0 -1.83268e+06 340638 0 -1.84305e+06 370617 0 -1.85421e+06 400996 0 -1.86615e+06 431812 0 -1.87886e+06 463103 0 -1.89231e+06 494911 0 -1.9065e+06 527278 0 -1.92139e+06 560249 0 -1.93696e+06 593872 0 -1.95317e+06 628197 0 -1.96998e+06 663275 0 -1.98735e+06 699161 0 -2.00521e+06 735912 0 -2.02349e+06 773589 0 -2.04212e+06 812252 0 -2.06098e+06 851965 0 -2.07997e+06 892790 0 -2.09893e+06 934787 0 -2.11769e+06 978013 0 -2.13603e+06 1.02251e+06 0 -1.76679e+06 0 0 -1.76722e+06 27873.1 0 -1.76848e+06 55774 0 -1.77059e+06 83730.7 0 -1.77352e+06 111771 0 -1.77729e+06 139924 0 -1.78188e+06 168218 0 -1.78731e+06 196682 0 -1.79356e+06 225346 0 -1.80062e+06 254240 0 -1.80851e+06 283397 0 -1.81721e+06 312847 0 -1.8267e+06 342624 0 -1.837e+06 372762 0 -1.84808e+06 403298 0 -1.85993e+06 434268 0 -1.87253e+06 465710 0 -1.88588e+06 497665 0 -1.89995e+06 530175 0 -1.91472e+06 563284 0 -1.93015e+06 597038 0 -1.94622e+06 631486 0 -1.96287e+06 666679 0 -1.98007e+06 702669 0 -1.99776e+06 739512 0 -2.01585e+06 777264 0 -2.03428e+06 815984 0 -2.05293e+06 855732 0 -2.07169e+06 896565 0 -2.09041e+06 938539 0 -2.10892e+06 981703 0 -2.12701e+06 1.0261e+06 0 -1.7612e+06 0 0 -1.76163e+06 28039.8 0 -1.76288e+06 56107.4 0 -1.76497e+06 84230.5 0 -1.76788e+06 112437 0 -1.77163e+06 140756 0 -1.77619e+06 169215 0 -1.78158e+06 197844 0 -1.78778e+06 226672 0 -1.7948e+06 255730 0 -1.80263e+06 285048 0 -1.81127e+06 314659 0 -1.8207e+06 344596 0 -1.83092e+06 374892 0 -1.84191e+06 405582 0 -1.85367e+06 436705 0 -1.86618e+06 468296 0 -1.87942e+06 500397 0 -1.89338e+06 533048 0 -1.90802e+06 566293 0 -1.92332e+06 600176 0 -1.93924e+06 634746 0 -1.95575e+06 670051 0 -1.97278e+06 706143 0 -1.99029e+06 743074 0 -2.0082e+06 780900 0 -2.02643e+06 819675 0 -2.04487e+06 859456 0 -2.06341e+06 900295 0 -2.0819e+06 942243 0 -2.10018e+06 985343 0 -2.11802e+06 1.02963e+06 0 -1.75558e+06 0 0 -1.756e+06 28205.4 0 -1.75725e+06 56438.5 0 -1.75932e+06 84727 0 -1.76222e+06 113099 0 -1.76593e+06 141582 0 -1.77047e+06 170206 0 -1.77582e+06 198998 0 -1.78198e+06 227989 0 -1.78895e+06 257209 0 -1.79673e+06 286688 0 -1.8053e+06 316459 0 -1.81466e+06 346553 0 -1.8248e+06 377005 0 -1.83571e+06 407850 0 -1.84738e+06 439123 0 -1.8598e+06 470862 0 -1.87293e+06 503107 0 -1.88678e+06 535897 0 -1.9013e+06 569276 0 -1.91646e+06 603287 0 -1.93225e+06 637976 0 -1.9486e+06 673392 0 -1.96547e+06 709584 0 -1.98281e+06 746602 0 -2.00053e+06 784498 0 -2.01857e+06 823326 0 -2.03681e+06 863137 0 -2.05513e+06 903980 0 -2.0734e+06 945900 0 -2.09145e+06 988935 0 -2.10906e+06 1.03311e+06 0 -1.74992e+06 0 0 -1.75034e+06 28369.9 0 -1.75158e+06 56767.3 0 -1.75364e+06 85220.1 0 -1.75652e+06 113756 0 -1.76021e+06 142403 0 -1.76471e+06 171189 0 -1.77002e+06 200144 0 -1.77614e+06 229297 0 -1.78307e+06 258677 0 -1.79079e+06 288316 0 -1.7993e+06 318245 0 -1.80859e+06 348496 0 -1.81866e+06 379103 0 -1.82949e+06 410100 0 -1.84107e+06 441522 0 -1.85339e+06 473408 0 -1.86642e+06 505795 0 -1.88015e+06 538723 0 -1.89454e+06 572234 0 -1.90958e+06 606370 0 -1.92522e+06 641178 0 -1.94143e+06 676702 0 -1.95814e+06 712991 0 -1.97531e+06 750094 0 -1.99286e+06 788059 0 -2.0107e+06 826938 0 -2.02874e+06 866777 0 -2.04686e+06 907622 0 -2.06491e+06 949514 0 -2.08274e+06 992483 0 -2.10012e+06 1.03655e+06 0 -1.74423e+06 0 0 -1.74465e+06 28533.3 0 -1.74588e+06 57094 0 -1.74793e+06 85709.8 0 -1.75078e+06 114408 0 -1.75445e+06 143218 0 -1.75892e+06 172166 0 -1.7642e+06 201283 0 -1.77028e+06 230596 0 -1.77715e+06 260136 0 -1.78481e+06 289933 0 -1.79326e+06 320019 0 -1.80249e+06 350425 0 -1.81248e+06 381185 0 -1.82323e+06 412333 0 -1.83472e+06 443904 0 -1.84694e+06 475934 0 -1.85987e+06 508461 0 -1.87349e+06 541525 0 -1.88777e+06 575167 0 -1.90268e+06 609427 0 -1.91818e+06 644350 0 -1.93424e+06 679981 0 -1.9508e+06 716366 0 -1.9678e+06 753551 0 -1.98517e+06 791584 0 -2.00283e+06 830511 0 -2.02067e+06 870377 0 -2.03859e+06 911223 0 -2.05643e+06 953084 0 -2.07404e+06 995986 0 -2.09122e+06 1.03994e+06 0 -1.73851e+06 0 0 -1.73892e+06 28695.5 0 -1.74015e+06 57418.5 0 -1.74218e+06 86196.3 0 -1.74502e+06 115057 0 -1.74866e+06 144027 0 -1.7531e+06 173137 0 -1.75834e+06 202413 0 -1.76438e+06 231885 0 -1.7712e+06 261584 0 -1.77881e+06 291538 0 -1.7872e+06 321780 0 -1.79636e+06 352340 0 -1.80628e+06 383252 0 -1.81695e+06 414549 0 -1.82835e+06 446266 0 -1.84048e+06 478440 0 -1.8533e+06 511106 0 -1.86681e+06 544305 0 -1.88097e+06 578075 0 -1.89575e+06 612457 0 -1.91112e+06 647495 0 -1.92703e+06 683231 0 -1.94343e+06 719709 0 -1.96027e+06 756975 0 -1.97747e+06 795073 0 -1.99495e+06 834047 0 -2.0126e+06 873937 0 -2.03032e+06 914782 0 -2.04796e+06 956612 0 -2.06537e+06 999447 0 -2.08233e+06 1.04329e+06 0 -1.73275e+06 0 0 -1.73317e+06 28856.7 0 -1.73438e+06 57740.8 0 -1.7364e+06 86679.5 0 -1.73922e+06 115700 0 -1.74283e+06 144831 0 -1.74725e+06 174100 0 -1.75245e+06 203536 0 -1.75844e+06 233166 0 -1.76522e+06 263022 0 -1.77278e+06 293132 0 -1.78111e+06 323528 0 -1.7902e+06 354241 0 -1.80004e+06 385303 0 -1.81063e+06 416748 0 -1.82195e+06 448611 0 -1.83398e+06 480926 0 -1.8467e+06 513730 0 -1.8601e+06 547062 0 -1.87414e+06 580959 0 -1.8888e+06 615461 0 -1.90403e+06 650611 0 -1.9198e+06 686450 0 -1.93605e+06 723021 0 -1.95273e+06 760365 0 -1.96976e+06 798527 0 -1.98706e+06 837546 0 -2.00453e+06 877460 0 -2.02206e+06 918303 0 -2.0395e+06 960100 0 -2.05671e+06 1.00287e+06 0 -2.07348e+06 1.0466e+06 0 -1.72697e+06 0 0 -1.72738e+06 29016.8 0 -1.72859e+06 58060.9 0 -1.73059e+06 87159.4 0 -1.73339e+06 116340 0 -1.73698e+06 145630 0 -1.74136e+06 175057 0 -1.74653e+06 204650 0 -1.75248e+06 234438 0 -1.75921e+06 264449 0 -1.76671e+06 294714 0 -1.77498e+06 325263 0 -1.78401e+06 356127 0 -1.79378e+06 387339 0 -1.80429e+06 418931 0 -1.81552e+06 450937 0 -1.82745e+06 483393 0 -1.84008e+06 516333 0 -1.85336e+06 549796 0 -1.86729e+06 583818 0 -1.88182e+06 618440 0 -1.89692e+06 653700 0 -1.91255e+06 689641 0 -1.92865e+06 726301 0 -1.94517e+06 763723 0 -1.96204e+06 801946 0 -1.97916e+06 841009 0 -1.99645e+06 880945 0 -2.0138e+06 921785 0 -2.03105e+06 963550 0 -2.04807e+06 1.00625e+06 0 -2.06465e+06 1.04988e+06 0 -1.72115e+06 0 0 -1.72156e+06 29175.9 0 -1.72276e+06 58378.8 0 -1.72475e+06 87636 0 -1.72753e+06 116975 0 -1.73109e+06 146423 0 -1.73544e+06 176007 0 -1.74058e+06 205757 0 -1.74649e+06 235701 0 -1.75317e+06 265867 0 -1.76062e+06 296285 0 -1.76882e+06 326986 0 -1.77778e+06 358000 0 -1.78748e+06 389360 0 -1.79791e+06 421097 0 -1.80906e+06 453246 0 -1.8209e+06 485840 0 -1.83342e+06 518915 0 -1.8466e+06 552507 0 -1.86041e+06 586654 0 -1.87482e+06 621392 0 -1.88979e+06 656762 0 -1.90528e+06 692802 0 -1.92124e+06 729551 0 -1.9376e+06 767049 0 -1.9543e+06 805332 0 -1.97126e+06 844437 0 -1.98838e+06 884394 0 -2.00554e+06 925230 0 -2.02261e+06 966962 0 -2.03944e+06 1.00959e+06 0 -2.05584e+06 1.05311e+06 0 -1.7153e+06 0 0 -1.71571e+06 29333.8 0 -1.7169e+06 58694.6 0 -1.71887e+06 88109.4 0 -1.72163e+06 117605 0 -1.72517e+06 147210 0 -1.7295e+06 176951 0 -1.73459e+06 206857 0 -1.74046e+06 236955 0 -1.74709e+06 267274 0 -1.75449e+06 297845 0 -1.76264e+06 328696 0 -1.77153e+06 359859 0 -1.78116e+06 391366 0 -1.79151e+06 423247 0 -1.80257e+06 455536 0 -1.81432e+06 488268 0 -1.82675e+06 521476 0 -1.83982e+06 555197 0 -1.85351e+06 589466 0 -1.8678e+06 624320 0 -1.88264e+06 659797 0 -1.89799e+06 695935 0 -1.91381e+06 732772 0 -1.93002e+06 770343 0 -1.94656e+06 808685 0 -1.96335e+06 847831 0 -1.9803e+06 887808 0 -1.99728e+06 928639 0 -2.01418e+06 970338 0 -2.03083e+06 1.0129e+06 0 -2.04706e+06 1.05632e+06 0 -1.70942e+06 0 0 -1.70982e+06 29490.6 0 -1.711e+06 59008.2 0 -1.71297e+06 88579.5 0 -1.71571e+06 118232 0 -1.71923e+06 147992 0 -1.72352e+06 177888 0 -1.72858e+06 207948 0 -1.7344e+06 238200 0 -1.74099e+06 268672 0 -1.74833e+06 299393 0 -1.75642e+06 330394 0 -1.76525e+06 361705 0 -1.77481e+06 393356 0 -1.78508e+06 425380 0 -1.79606e+06 457810 0 -1.80772e+06 490677 0 -1.82004e+06 524017 0 -1.83301e+06 557864 0 -1.84659e+06 592254 0 -1.86076e+06 627222 0 -1.87547e+06 662806 0 -1.89069e+06 699041 0 -1.90636e+06 735963 0 -1.92242e+06 773607 0 -1.93881e+06 812006 0 -1.95544e+06 851192 0 -1.97222e+06 891188 0 -1.98903e+06 932014 0 -2.00576e+06 973679 0 -2.02224e+06 1.01618e+06 0 -2.03831e+06 1.05949e+06 0 -1.70351e+06 0 0 -1.70391e+06 29646.4 0 -1.70508e+06 59319.6 0 -1.70703e+06 89046.4 0 -1.70975e+06 118854 0 -1.71325e+06 148769 0 -1.71751e+06 178819 0 -1.72253e+06 209032 0 -1.72832e+06 239436 0 -1.73486e+06 270059 0 -1.74215e+06 300930 0 -1.75018e+06 332079 0 -1.75894e+06 363537 0 -1.76843e+06 395332 0 -1.77862e+06 427498 0 -1.78951e+06 460065 0 -1.80108e+06 493067 0 -1.81331e+06 526538 0 -1.82617e+06 560510 0 -1.83964e+06 595019 0 -1.85369e+06 630100 0 -1.86828e+06 665788 0 -1.88336e+06 702118 0 -1.89889e+06 739124 0 -1.91481e+06 776840 0 -1.93105e+06 815296 0 -1.94752e+06 854520 0 -1.96413e+06 894535 0 -1.98078e+06 935355 0 -1.99734e+06 976987 0 -2.01367e+06 1.01942e+06 0 -2.02958e+06 1.06263e+06 0 -1.69756e+06 0 0 -1.69796e+06 29801.1 0 -1.69913e+06 59628.9 0 -1.70106e+06 89510.1 0 -1.70377e+06 119471 0 -1.70723e+06 149540 0 -1.71147e+06 179743 0 -1.71646e+06 210108 0 -1.7222e+06 240663 0 -1.72869e+06 271436 0 -1.73593e+06 302456 0 -1.7439e+06 333753 0 -1.7526e+06 365355 0 -1.76202e+06 397293 0 -1.77214e+06 429599 0 -1.78294e+06 462303 0 -1.79442e+06 495439 0 -1.80655e+06 529038 0 -1.81931e+06 563134 0 -1.83268e+06 597762 0 -1.84661e+06 632954 0 -1.86107e+06 668745 0 -1.87602e+06 705169 0 -1.89142e+06 742258 0 -1.90719e+06 780044 0 -1.92327e+06 818555 0 -1.93959e+06 857817 0 -1.95605e+06 897849 0 -1.97254e+06 938664 0 -1.98894e+06 980262 0 -2.00511e+06 1.02263e+06 0 -2.02087e+06 1.06574e+06 0 -1.69159e+06 0 0 -1.69198e+06 29954.8 0 -1.69314e+06 59936.1 0 -1.69506e+06 89970.6 0 -1.69775e+06 120085 0 -1.70119e+06 150306 0 -1.70539e+06 180661 0 -1.71035e+06 211177 0 -1.71605e+06 241882 0 -1.7225e+06 272804 0 -1.72969e+06 303972 0 -1.7376e+06 335414 0 -1.74624e+06 367160 0 -1.75558e+06 399239 0 -1.76562e+06 431684 0 -1.77635e+06 464524 0 -1.78774e+06 497792 0 -1.79977e+06 531519 0 -1.81243e+06 565738 0 -1.82568e+06 600482 0 -1.8395e+06 635784 0 -1.85384e+06 671677 0 -1.86866e+06 708193 0 -1.88392e+06 745364 0 -1.89955e+06 783219 0 -1.91549e+06 821784 0 -1.93166e+06 861083 0 -1.94797e+06 901132 0 -1.9643e+06 941941 0 -1.98055e+06 983507 0 -1.99657e+06 1.02581e+06 0 -2.01219e+06 1.06883e+06 0 -1.68558e+06 0 0 -1.68598e+06 30107.3 0 -1.68713e+06 60241.1 0 -1.68904e+06 90427.8 0 -1.6917e+06 120694 0 -1.69512e+06 151066 0 -1.69929e+06 181572 0 -1.70421e+06 212238 0 -1.70988e+06 243092 0 -1.71628e+06 274162 0 -1.72341e+06 305476 0 -1.73127e+06 337062 0 -1.73984e+06 368951 0 -1.74911e+06 401171 0 -1.75908e+06 433753 0 -1.76972e+06 466728 0 -1.78103e+06 500126 0 -1.79297e+06 533980 0 -1.80552e+06 568320 0 -1.81867e+06 603179 0 -1.83237e+06 638590 0 -1.84659e+06 674584 0 -1.86129e+06 711191 0 -1.87641e+06 748442 0 -1.89191e+06 786365 0 -1.9077e+06 824983 0 -1.92372e+06 864319 0 -1.93988e+06 904385 0 -1.95607e+06 945188 0 -1.97216e+06 986722 0 -1.98804e+06 1.02897e+06 0 -2.00353e+06 1.07188e+06 0 -1.67955e+06 0 0 -1.67994e+06 30258.9 0 -1.68108e+06 60544.1 0 -1.68298e+06 90881.9 0 -1.68562e+06 121299 0 -1.68902e+06 151822 0 -1.69316e+06 182477 0 -1.69805e+06 213292 0 -1.70367e+06 244294 0 -1.71003e+06 275510 0 -1.71711e+06 306969 0 -1.72491e+06 338699 0 -1.73342e+06 370729 0 -1.74262e+06 403089 0 -1.75251e+06 435807 0 -1.76307e+06 468915 0 -1.77429e+06 502442 0 -1.78614e+06 536421 0 -1.79859e+06 570881 0 -1.81163e+06 605855 0 -1.82522e+06 641373 0 -1.83932e+06 677466 0 -1.85389e+06 714163 0 -1.86889e+06 751494 0 -1.88425e+06 789483 0 -1.8999e+06 828154 0 -1.91578e+06 867525 0 -1.93179e+06 907608 0 -1.94783e+06 948405 0 -1.96379e+06 989909 0 -1.97953e+06 1.03209e+06 0 -1.9949e+06 1.07492e+06 0 -1.67348e+06 0 0 -1.67387e+06 30409.4 0 -1.675e+06 60844.9 0 -1.67689e+06 91332.9 0 -1.67952e+06 121900 0 -1.68289e+06 152572 0 -1.687e+06 183375 0 -1.69185e+06 214338 0 -1.69743e+06 245486 0 -1.70374e+06 276848 0 -1.71078e+06 308451 0 -1.71852e+06 340324 0 -1.72696e+06 372494 0 -1.7361e+06 404992 0 -1.74592e+06 437845 0 -1.7564e+06 471085 0 -1.76753e+06 504741 0 -1.77928e+06 538843 0 -1.79164e+06 573422 0 -1.80457e+06 608509 0 -1.81805e+06 644133 0 -1.83203e+06 680324 0 -1.84648e+06 717110 0 -1.86135e+06 754519 0 -1.87658e+06 792574 0 -1.8921e+06 831297 0 -1.90783e+06 870703 0 -1.9237e+06 910802 0 -1.9396e+06 951594 0 -1.95542e+06 993068 0 -1.97103e+06 1.0352e+06 0 -1.98628e+06 1.07793e+06 0 -1.66739e+06 0 0 -1.66777e+06 30558.8 0 -1.6689e+06 61143.6 0 -1.67077e+06 91780.7 0 -1.67338e+06 122496 0 -1.67673e+06 153316 0 -1.68081e+06 184267 0 -1.68563e+06 215377 0 -1.69117e+06 246671 0 -1.69743e+06 278177 0 -1.70441e+06 309923 0 -1.7121e+06 341937 0 -1.72048e+06 374246 0 -1.72955e+06 406880 0 -1.7393e+06 439868 0 -1.7497e+06 473238 0 -1.76074e+06 507021 0 -1.7724e+06 541246 0 -1.78466e+06 575943 0 -1.79749e+06 611141 0 -1.81086e+06 646870 0 -1.82473e+06 683158 0 -1.83906e+06 720032 0 -1.8538e+06 757518 0 -1.86889e+06 795639 0 -1.88428e+06 834413 0 -1.89988e+06 873854 0 -1.91561e+06 913969 0 -1.93138e+06 954756 0 -1.94707e+06 996200 0 -1.96255e+06 1.03827e+06 0 -1.97769e+06 1.08092e+06 0 </DataArray> 
</PointData> 
<Points> 
<DataArray type="Float32" NumberOfComponents="3"> 