<?xml version="1.0"?> 
<VTKFile type="StructuredGrid" version="0.1"> 
<StructuredGrid WholeExtent="0 31 0 31 0 0"> 
<Piece Extent="0 31 0 31 0 0"> 
<PointData>
<DataArray type="Float32" Name="|E|" format="ascii" NumberOfComponents="3"> 
-1.97769e+06 1.0809e+06 0 -1.99231e+06 1.12403e+06 0 -2.00624e+06 1.16757e+06 0 -2.0193e+06 1.21134e+06 0 -2.03129e+06 1.25516e+06 0 -2.04201e+06 1.29875e+06 0 -2.05127e+06 1.3418e+06 0 -2.0589e+06 1.38388e+06 0 -2.06476e+06 1.42451e+06 0 -2.06877e+06 1.46307e+06 0 -2.07095e+06 1.4989e+06 0 -2.07143e+06 1.53123e+06 0 -2.07047e+06 1.55922e+06 0 -2.06851e+06 1.58204e+06 0 -2.06614e+06 1.59883e+06 0 -2.06413e+06 1.6088e+06 0 -2.06341e+06 1.61127e+06 0 -2.06499e+06 1.60567e+06 0 -2.06999e+06 1.59159e+06 0 -2.07954e+06 1.56878e+06 0 -2.09476e+06 1.53719e+06 0 -2.11674e+06 1.49691e+06 0 -2.14649e+06 1.44825e+06 0 -2.18505e+06 1.39174e+06 0 -2.23338e+06 1.3285e+06 0 -2.29297e+06 1.26007e+06 0 -2.36559e+06 1.18988e+06 0 -2.45446e+06 1.12423e+06 0 -2.57393e+06 1.07916e+06 0 -2.74635e+06 1.05366e+06 0 -3.04172e+06 1.43657e+06 0 -5.27597e+06 2.16112e+06 0 -1.95979e+06 1.07867e+06 0 -1.97408e+06 1.12072e+06 0 -1.98779e+06 1.16311e+06 0 -2.00075e+06 1.20571e+06 0 -2.01281e+06 1.24833e+06 0 -2.02379e+06 1.29075e+06 0 -2.03353e+06 1.33266e+06 0 -2.04189e+06 1.37373e+06 0 -2.04875e+06 1.4135e+06 0 -2.05406e+06 1.45147e+06 0 -2.05783e+06 1.48706e+06 0 -2.06015e+06 1.51961e+06 0 -2.06125e+06 1.54839e+06 0 -2.06148e+06 1.57268e+06 0 -2.06133e+06 1.59171e+06 0 -2.06144e+06 1.60478e+06 0 -2.06259e+06 1.61123e+06 0 -2.06566e+06 1.61049e+06 0 -2.07162e+06 1.60215e+06 0 -2.08148e+06 1.58591e+06 0 -2.09625e+06 1.56159e+06 0 -2.11692e+06 1.52921e+06 0 -2.14442e+06 1.4889e+06 0 -2.17962e+06 1.44102e+06 0 -2.22333e+06 1.38627e+06 0 -2.27631e+06 1.32579e+06 0 -2.33965e+06 1.26193e+06 0 -2.41471e+06 1.19686e+06 0 -2.5001e+06 1.15088e+06 0 -2.63217e+06 1.08756e+06 0 -2.7024e+06 1.19788e+06 0 -3.15742e+06 1.56429e+06 0 -1.942e+06 1.07646e+06 0 -1.95596e+06 1.11746e+06 0 -1.96943e+06 1.15876e+06 0 -1.98228e+06 1.20023e+06 0 -1.99436e+06 1.24172e+06 0 -2.00553e+06 1.28302e+06 0 -2.01566e+06 1.32386e+06 0 -2.02463e+06 1.36395e+06 0 -2.03234e+06 1.40291e+06 0 -2.03875e+06 1.44029e+06 0 -2.04387e+06 1.4756e+06 0 -2.04778e+06 1.50826e+06 0 -2.05065e+06 1.53767e+06 0 -2.05279e+06 1.56316e+06 0 -2.05459e+06 1.5841e+06 0 -2.05658e+06 1.59982e+06 0 -2.05943e+06 1.60973e+06 0 -2.06388e+06 1.61329e+06 0 -2.07078e+06 1.61006e+06 0 -2.08102e+06 1.59972e+06 0 -2.09551e+06 1.58203e+06 0 -2.11515e+06 1.55691e+06 0 -2.1408e+06 1.52439e+06 0 -2.17325e+06 1.48465e+06 0 -2.2132e+06 1.43812e+06 0 -2.26122e+06 1.38544e+06 0 -2.31755e+06 1.32861e+06 0 -2.38423e+06 1.26724e+06 0 -2.45418e+06 1.21656e+06 0 -2.55067e+06 1.16357e+06 0 -2.63238e+06 1.16437e+06 0 -2.69556e+06 1.18804e+06 0 -1.92429e+06 1.07426e+06 0 -1.93793e+06 1.11425e+06 0 -1.95116e+06 1.15449e+06 0 -1.96387e+06 1.19489e+06 0 -1.97594e+06 1.2353e+06 0 -1.98725e+06 1.27553e+06 0 -1.99768e+06 1.31536e+06 0 -2.00714e+06 1.35452e+06 0 -2.01556e+06 1.39268e+06 0 -2.0229e+06 1.42948e+06 0 -2.02916e+06 1.46446e+06 0 -2.03441e+06 1.49716e+06 0 -2.03881e+06 1.52703e+06 0 -2.04258e+06 1.55352e+06 0 -2.04608e+06 1.57605e+06 0 -2.04973e+06 1.59404e+06 0 -2.05409e+06 1.60695e+06 0 -2.05981e+06 1.61427e+06 0 -2.0676e+06 1.61557e+06 0 -2.07826e+06 1.6105e+06 0 -2.09259e+06 1.59881e+06 0 -2.11142e+06 1.58032e+06 0 -2.13554e+06 1.555e+06 0 -2.16568e+06 1.52288e+06 0 -2.20247e+06 1.48421e+06 0 -2.24651e+06 1.43925e+06 0 -2.29768e+06 1.38941e+06 0 -2.35751e+06 1.3343e+06 0 -2.42209e+06 1.28044e+06 0 -2.49472e+06 1.2272e+06 0 -2.57548e+06 1.19571e+06 0 -2.64069e+06 1.1983e+06 0 -1.90666e+06 1.07206e+06 0 -1.91998e+06 1.11107e+06 0 -1.93297e+06 1.1503e+06 0 -1.94552e+06 1.18967e+06 0 -1.95754e+06 1.22904e+06 0 -1.96893e+06 1.26825e+06 0 -1.97959e+06 1.30711e+06 0 -1.98945e+06 1.34538e+06 0 -1.99845e+06 1.38278e+06 0 -2.00655e+06 1.41898e+06 0 -2.01377e+06 1.45361e+06 0 -2.02016e+06 1.48626e+06 0 -2.02584e+06 1.51647e+06 0 -2.03102e+06 1.54376e+06 0 -2.03597e+06 1.56761e+06 0 -2.04106e+06 1.58753e+06 0 -2.04676e+06 1.60301e+06 0 -2.05361e+06 1.61361e+06 0 -2.06223e+06 1.61889e+06 0 -2.0733e+06 1.61851e+06 0 -2.08756e+06 1.6122e+06 0 -2.10573e+06 1.59974e+06 0 -2.12855e+06 1.58102e+06 0 -2.15671e+06 1.55599e+06 0 -2.19081e+06 1.52476e+06 0 -2.23143e+06 1.4874e+06 0 -2.27863e+06 1.44465e+06 0 -2.33291e+06 1.39665e+06 0 -2.39351e+06 1.34575e+06 0 -2.4583e+06 1.29354e+06 0 -2.52661e+06 1.24429e+06 0 -2.59239e+06 1.21902e+06 0 -1.88911e+06 1.06986e+06 0 -1.90211e+06 1.10791e+06 0 -1.91484e+06 1.14617e+06 0 -1.92721e+06 1.18455e+06 0 -1.93915e+06 1.22293e+06 0 -1.95057e+06 1.26117e+06 0 -1.9614e+06 1.29909e+06 0 -1.97157e+06 1.3365e+06 0 -1.98102e+06 1.37314e+06 0 -1.98975e+06 1.40875e+06 0 -1.99776e+06 1.443e+06 0 -2.0051e+06 1.47554e+06 0 -2.01187e+06 1.50597e+06 0 -2.01823e+06 1.53388e+06 0 -2.02442e+06 1.55882e+06 0 -2.03075e+06 1.58036e+06 0 -2.03761e+06 1.59805e+06 0 -2.04545e+06 1.61146e+06 0 -2.05481e+06 1.62023e+06 0 -2.06628e+06 1.62399e+06 0 -2.0805e+06 1.62247e+06 0 -2.09813e+06 1.61544e+06 0 -2.11984e+06 1.60273e+06 0 -2.14628e+06 1.58423e+06 0 -2.17802e+06 1.55995e+06 0 -2.21562e+06 1.52988e+06 0 -2.25937e+06 1.49429e+06 0 -2.30941e+06 1.45341e+06 0 -2.36564e+06 1.40793e+06 0 -2.42687e+06 1.35949e+06 0 -2.49103e+06 1.30881e+06 0 -2.55285e+06 1.26154e+06 0 -1.87163e+06 1.06765e+06 0 -1.8843e+06 1.10479e+06 0 -1.89677e+06 1.1421e+06 0 -1.90895e+06 1.17952e+06 0 -1.92078e+06 1.21694e+06 0 -1.93218e+06 1.25424e+06 0 -1.94311e+06 1.29126e+06 0 -1.9535e+06 1.32783e+06 0 -1.96332e+06 1.36375e+06 0 -1.97256e+06 1.39876e+06 0 -1.98121e+06 1.4326e+06 0 -1.98932e+06 1.46496e+06 0 -1.99698e+06 1.49551e+06 0 -2.00434e+06 1.52389e+06 0 -2.01157e+06 1.54971e+06 0 -2.01895e+06 1.57259e+06 0 -2.02679e+06 1.59214e+06 0 -2.03548e+06 1.60798e+06 0 -2.04549e+06 1.61976e+06 0 -2.05731e+06 1.62715e+06 0 -2.07152e+06 1.62987e+06 0 -2.08869e+06 1.62769e+06 0 -2.10943e+06 1.6204e+06 0 -2.13434e+06 1.60788e+06 0 -2.164e+06 1.59003e+06 0 -2.1989e+06 1.56682e+06 0 -2.23948e+06 1.53827e+06 0 -2.28592e+06 1.50451e+06 0 -2.33823e+06 1.46569e+06 0 -2.39585e+06 1.4225e+06 0 -2.45767e+06 1.37549e+06 0 -2.5202e+06 1.32641e+06 0 -1.8542e+06 1.06544e+06 0 -1.86655e+06 1.10167e+06 0 -1.87874e+06 1.13807e+06 0 -1.89071e+06 1.17456e+06 0 -1.90241e+06 1.21106e+06 0 -1.91376e+06 1.24744e+06 0 -1.92474e+06 1.2836e+06 0 -1.93528e+06 1.31936e+06 0 -1.94537e+06 1.35455e+06 0 -1.95499e+06 1.38897e+06 0 -1.96415e+06 1.42237e+06 0 -1.9729e+06 1.4545e+06 0 -1.98129e+06 1.48507e+06 0 -1.98946e+06 1.51378e+06 0 -1.99755e+06 1.54029e+06 0 -2.0058e+06 1.56428e+06 0 -2.01447e+06 1.58539e+06 0 -2.02388e+06 1.60329e+06 0 -2.03443e+06 1.61767e+06 0 -2.04656e+06 1.62821e+06 0 -2.06074e+06 1.63465e+06 0 -2.0775e+06 1.63676e+06 0 -2.09738e+06 1.63433e+06 0 -2.12093e+06 1.62719e+06 0 -2.14869e+06 1.61524e+06 0 -2.18117e+06 1.59837e+06 0 -2.2188e+06 1.57652e+06 0 -2.2619e+06 1.5497e+06 0 -2.31061e+06 1.51789e+06 0 -2.36471e+06 1.48124e+06 0 -2.42362e+06 1.43983e+06 0 -2.48554e+06 1.3946e+06 0 -1.83682e+06 1.06322e+06 0 -1.84885e+06 1.09857e+06 0 -1.86077e+06 1.13407e+06 0 -1.87251e+06 1.16966e+06 0 -1.88404e+06 1.20526e+06 0 -1.89531e+06 1.24077e+06 0 -1.90628e+06 1.27607e+06 0 -1.91691e+06 1.31104e+06 0 -1.92719e+06 1.34552e+06 0 -1.9371e+06 1.37933e+06 0 -1.94666e+06 1.41227e+06 0 -1.95589e+06 1.44413e+06 0 -1.96487e+06 1.47464e+06 0 -1.97369e+06 1.50356e+06 0 -1.98249e+06 1.5306e+06 0 -1.99144e+06 1.55546e+06 0 -2.00078e+06 1.57786e+06 0 -2.01079e+06 1.5975e+06 0 -2.02178e+06 1.61409e+06 0 -2.03414e+06 1.62735e+06 0 -2.04829e+06 1.63703e+06 0 -2.06467e+06 1.64291e+06 0 -2.08377e+06 1.64478e+06 0 -2.10609e+06 1.64247e+06 0 -2.13213e+06 1.63585e+06 0 -2.16238e+06 1.62478e+06 0 -2.19729e+06 1.60917e+06 0 -2.23722e+06 1.58895e+06 0 -2.28245e+06 1.56401e+06 0 -2.33302e+06 1.53431e+06 0 -2.3887e+06 1.49967e+06 0 -2.44856e+06 1.4603e+06 0 -1.81949e+06 1.06098e+06 0 -1.8312e+06 1.09547e+06 0 -1.84282e+06 1.1301e+06 0 -1.85433e+06 1.16481e+06 0 -1.86568e+06 1.19954e+06 0 -1.87683e+06 1.23419e+06 0 -1.88775e+06 1.26867e+06 0 -1.89841e+06 1.30286e+06 0 -1.9088e+06 1.33663e+06 0 -1.91892e+06 1.36983e+06 0 -1.92877e+06 1.40229e+06 0 -1.93838e+06 1.43382e+06 0 -1.94781e+06 1.4642e+06 0 -1.95714e+06 1.49322e+06 0 -1.96649e+06 1.52063e+06 0 -1.976e+06 1.54619e+06 0 -1.98588e+06 1.56964e+06 0 -1.99635e+06 1.59072e+06 0 -2.00769e+06 1.60917e+06 0 -2.02022e+06 1.62475e+06 0 -2.0343e+06 1.63722e+06 0 -2.05031e+06 1.64638e+06 0 -2.0687e+06 1.65203e+06 0 -2.0899e+06 1.654e+06 0 -2.11437e+06 1.65214e+06 0 -2.14257e+06 1.64632e+06 0 -2.17494e+06 1.63641e+06 0 -2.21189e+06 1.62232e+06 0 -2.25375e+06 1.6039e+06 0 -2.30072e+06 1.58104e+06 0 -2.35286e+06 1.5535e+06 0 -2.4098e+06 1.52114e+06 0 -1.8022e+06 1.05872e+06 0 -1.81358e+06 1.09237e+06 0 -1.82492e+06 1.12614e+06 0 -1.83617e+06 1.16e+06 0 -1.84731e+06 1.19387e+06 0 -1.85831e+06 1.22769e+06 0 -1.86914e+06 1.26136e+06 0 -1.87979e+06 1.29478e+06 0 -1.89023e+06 1.32785e+06 0 -1.90047e+06 1.36044e+06 0 -1.91052e+06 1.39239e+06 0 -1.9204e+06 1.42355e+06 0 -1.93016e+06 1.45373e+06 0 -1.93988e+06 1.48276e+06 0 -1.94965e+06 1.51042e+06 0 -1.9596e+06 1.53649e+06 0 -1.96989e+06 1.56077e+06 0 -1.98071e+06 1.58302e+06 0 -1.9923e+06 1.60303e+06 0 -2.00493e+06 1.62056e+06 0 -2.0189e+06 1.63542e+06 0 -2.03456e+06 1.64741e+06 0 -2.05227e+06 1.65634e+06 0 -2.07244e+06 1.66206e+06 0 -2.09546e+06 1.66442e+06 0 -2.12178e+06 1.66327e+06 0 -2.1518e+06 1.65851e+06 0 -2.18594e+06 1.65e+06 0 -2.22455e+06 1.63762e+06 0 -2.26795e+06 1.62121e+06 0 -2.31635e+06 1.60057e+06 0 -2.36973e+06 1.57543e+06 0 -1.78495e+06 1.05643e+06 0 -1.796e+06 1.08925e+06 0 -1.80704e+06 1.1222e+06 0 -1.81803e+06 1.15521e+06 0 -1.82894e+06 1.18825e+06 0 -1.83977e+06 1.22125e+06 0 -1.85048e+06 1.25412e+06 0 -1.86105e+06 1.28679e+06 0 -1.87149e+06 1.31917e+06 0 -1.88178e+06 1.35112e+06 0 -1.89195e+06 1.38255e+06 0 -1.90201e+06 1.4133e+06 0 -1.91201e+06 1.44323e+06 0 -1.922e+06 1.47217e+06 0 -1.93208e+06 1.49996e+06 0 -1.94234e+06 1.5264e+06 0 -1.95292e+06 1.55131e+06 0 -1.96399e+06 1.57451e+06 0 -1.97574e+06 1.59578e+06 0 -1.9884e+06 1.61494e+06 0 -2.00223e+06 1.63181e+06 0 -2.01752e+06 1.64621e+06 0 -2.0346e+06 1.65798e+06 0 -2.05381e+06 1.66695e+06 0 -2.07551e+06 1.67299e+06 0 -2.10008e+06 1.67597e+06 0 -2.12793e+06 1.67578e+06 0 -2.15944e+06 1.67228e+06 0 -2.19498e+06 1.66537e+06 0 -2.2349e+06 1.65488e+06 0 -2.27949e+06 1.64064e+06 0 -2.32894e+06 1.6224e+06 0 -1.76772e+06 1.05412e+06 0 -1.77845e+06 1.08613e+06 0 -1.78918e+06 1.11825e+06 0 -1.7999e+06 1.15044e+06 0 -1.81058e+06 1.18266e+06 0 -1.8212e+06 1.21485e+06 0 -1.83175e+06 1.24694e+06 0 -1.84222e+06 1.27887e+06 0 -1.8526e+06 1.31054e+06 0 -1.86289e+06 1.34187e+06 0 -1.8731e+06 1.37275e+06 0 -1.88326e+06 1.40306e+06 0 -1.8934e+06 1.43267e+06 0 -1.90357e+06 1.46146e+06 0 -1.91385e+06 1.48926e+06 0 -1.92432e+06 1.51593e+06 0 -1.93509e+06 1.54131e+06 0 -1.94631e+06 1.56523e+06 0 -1.95813e+06 1.58753e+06 0 -1.97076e+06 1.60803e+06 0 -1.98441e+06 1.62657e+06 0 -1.99933e+06 1.643e+06 0 -2.0158e+06 1.65717e+06 0 -2.03411e+06 1.66893e+06 0 -2.05458e+06 1.67816e+06 0 -2.07756e+06 1.68474e+06 0 -2.1034e+06 1.68856e+06 0 -2.13247e+06 1.6895e+06 0 -2.16512e+06 1.68745e+06 0 -2.20171e+06 1.68228e+06 0 -2.24257e+06 1.67385e+06 0 -2.288e+06 1.66192e+06 0 -1.75053e+06 1.05178e+06 0 -1.76092e+06 1.08299e+06 0 -1.77134e+06 1.1143e+06 0 -1.78178e+06 1.14568e+06 0 -1.7922e+06 1.17709e+06 0 -1.80261e+06 1.20849e+06 0 -1.81298e+06 1.23981e+06 0 -1.8233e+06 1.27099e+06 0 -1.83358e+06 1.30197e+06 0 -1.84381e+06 1.33265e+06 0 -1.85401e+06 1.36296e+06 0 -1.86419e+06 1.3928e+06 0 -1.8744e+06 1.42205e+06 0 -1.88466e+06 1.45061e+06 0 -1.89504e+06 1.47834e+06 0 -1.90562e+06 1.50512e+06 0 -1.9165e+06 1.53081e+06 0 -1.92778e+06 1.55527e+06 0 -1.93961e+06 1.57836e+06 0 -1.95214e+06 1.59993e+06 0 -1.96557e+06 1.61984e+06 0 -1.98011e+06 1.63795e+06 0 -1.99598e+06 1.65414e+06 0 -2.01344e+06 1.66827e+06 0 -2.03278e+06 1.68023e+06 0 -2.05429e+06 1.6899e+06 0 -2.07829e+06 1.6972e+06 0 -2.1051e+06 1.702e+06 0 -2.13507e+06 1.70423e+06 0 -2.16853e+06 1.70376e+06 0 -2.20582e+06 1.70048e+06 0 -2.24728e+06 1.6942e+06 0 -1.73335e+06 1.0494e+06 0 -1.74341e+06 1.07982e+06 0 -1.75353e+06 1.11033e+06 0 -1.76367e+06 1.14092e+06 0 -1.77383e+06 1.17153e+06 0 -1.78399e+06 1.20214e+06 0 -1.79415e+06 1.2327e+06 0 -1.8043e+06 1.26314e+06 0 -1.81444e+06 1.29342e+06 0 -1.82457e+06 1.32346e+06 0 -1.8347e+06 1.35318e+06 0 -1.84484e+06 1.38251e+06 0 -1.85504e+06 1.41136e+06 0 -1.86532e+06 1.43962e+06 0 -1.87573e+06 1.4672e+06 0 -1.88635e+06 1.49398e+06 0 -1.89724e+06 1.51984e+06 0 -1.90851e+06 1.54467e+06 0 -1.92027e+06 1.56835e+06 0 -1.93266e+06 1.59076e+06 0 -1.94583e+06 1.61176e+06 0 -1.95996e+06 1.63125e+06 0 -1.97524e+06 1.64911e+06 0 -1.99191e+06 1.66521e+06 0 -2.01019e+06 1.67947e+06 0 -2.03035e+06 1.69178e+06 0 -2.05265e+06 1.70205e+06 0 -2.0774e+06 1.71019e+06 0 -2.1049e+06 1.71611e+06 0 -2.13546e+06 1.71973e+06 0 -2.1694e+06 1.72096e+06 0 -2.20707e+06 1.71963e+06 0 -1.71619e+06 1.04699e+06 0 -1.72593e+06 1.07662e+06 0 -1.73573e+06 1.10635e+06 0 -1.74557e+06 1.13614e+06 0 -1.75545e+06 1.16597e+06 0 -1.76536e+06 1.19581e+06 0 -1.77529e+06 1.2256e+06 0 -1.78524e+06 1.25531e+06 0 -1.7952e+06 1.28489e+06 0 -1.80518e+06 1.31427e+06 0 -1.81519e+06 1.34339e+06 0 -1.82525e+06 1.37219e+06 0 -1.83538e+06 1.40059e+06 0 -1.84561e+06 1.4285e+06 0 -1.85598e+06 1.45584e+06 0 -1.86655e+06 1.48252e+06 0 -1.87739e+06 1.50844e+06 0 -1.88858e+06 1.5335e+06 0 -1.90022e+06 1.55759e+06 0 -1.9124e+06 1.58062e+06 0 -1.92528e+06 1.60248e+06 0 -1.93899e+06 1.62306e+06 0 -1.95371e+06 1.64226e+06 0 -1.96961e+06 1.65999e+06 0 -1.9869e+06 1.67616e+06 0 -2.00581e+06 1.69068e+06 0 -2.02657e+06 1.70346e+06 0 -2.04943e+06 1.71443e+06 0 -2.07467e+06 1.72352e+06 0 -2.10257e+06 1.73065e+06 0 -2.13341e+06 1.73575e+06 0 -2.16753e+06 1.73869e+06 0 -1.69905e+06 1.04454e+06 0 -1.70846e+06 1.07339e+06 0 -1.71794e+06 1.10234e+06 0 -1.72748e+06 1.13135e+06 0 -1.73707e+06 1.1604e+06 0 -1.74671e+06 1.18946e+06 0 -1.75639e+06 1.2185e+06 0 -1.76611e+06 1.24748e+06 0 -1.77587e+06 1.27635e+06 0 -1.78567e+06 1.30507e+06 0 -1.79552e+06 1.33357e+06 0 -1.80544e+06 1.36181e+06 0 -1.81545e+06 1.38972e+06 0 -1.82557e+06 1.41724e+06 0 -1.83585e+06 1.44428e+06 0 -1.84632e+06 1.47077e+06 0 -1.85705e+06 1.49664e+06 0 -1.86809e+06 1.52179e+06 0 -1.87954e+06 1.54614e+06 0 -1.89149e+06 1.5696e+06 0 -1.90404e+06 1.59209e+06 0 -1.91732e+06 1.61351e+06 0 -1.93147e+06 1.63378e+06 0 -1.94664e+06 1.65282e+06 0 -1.96301e+06 1.67055e+06 0 -1.98076e+06 1.68688e+06 0 -2.00009e+06 1.70176e+06 0 -2.02124e+06 1.7151e+06 0 -2.04442e+06 1.72686e+06 0 -2.06989e+06 1.73696e+06 0 -2.09791e+06 1.74535e+06 0 -2.12877e+06 1.75193e+06 0 -1.68191e+06 1.04204e+06 0 -1.691e+06 1.07013e+06 0 -1.70016e+06 1.0983e+06 0 -1.70939e+06 1.12653e+06 0 -1.71869e+06 1.15481e+06 0 -1.72805e+06 1.18311e+06 0 -1.73746e+06 1.2114e+06 0 -1.74694e+06 1.23964e+06 0 -1.75646e+06 1.2678e+06 0 -1.76605e+06 1.29584e+06 0 -1.77571e+06 1.32371e+06 0 -1.78545e+06 1.35137e+06 0 -1.79529e+06 1.37876e+06 0 -1.80526e+06 1.40583e+06 0 -1.81539e+06 1.43251e+06 0 -1.8257e+06 1.45874e+06 0 -1.83626e+06 1.48445e+06 0 -1.84712e+06 1.50958e+06 0 -1.85834e+06 1.53405e+06 0 -1.87001e+06 1.55778e+06 0 -1.8822e+06 1.58071e+06 0 -1.89504e+06 1.60275e+06 0 -1.90862e+06 1.62384e+06 0 -1.92309e+06 1.6439e+06 0 -1.93859e+06 1.66286e+06 0 -1.95526e+06 1.68067e+06 0 -1.97329e+06 1.69725e+06 0 -1.99287e+06 1.71255e+06 0 -2.01418e+06 1.72652e+06 0 -2.03746e+06 1.7391e+06 0 -2.06291e+06 1.75025e+06 0 -2.09081e+06 1.75989e+06 0 -1.66479e+06 1.0395e+06 0 -1.67355e+06 1.06682e+06 0 -1.68239e+06 1.09422e+06 0 -1.69131e+06 1.12168e+06 0 -1.70031e+06 1.1492e+06 0 -1.70938e+06 1.17673e+06 0 -1.71851e+06 1.20427e+06 0 -1.72772e+06 1.23178e+06 0 -1.73699e+06 1.25923e+06 0 -1.74634e+06 1.28658e+06 0 -1.75578e+06 1.31381e+06 0 -1.76531e+06 1.34086e+06 0 -1.77495e+06 1.3677e+06 0 -1.78472e+06 1.39428e+06 0 -1.79464e+06 1.42054e+06 0 -1.80476e+06 1.44644e+06 0 -1.81511e+06 1.47192e+06 0 -1.82573e+06 1.49692e+06 0 -1.83668e+06 1.52138e+06 0 -1.84803e+06 1.54523e+06 0 -1.85985e+06 1.56843e+06 0 -1.87223e+06 1.59089e+06 0 -1.88526e+06 1.61257e+06 0 -1.89905e+06 1.6334e+06 0 -1.91371e+06 1.65333e+06 0 -1.92939e+06 1.67229e+06 0 -1.94622e+06 1.69023e+06 0 -1.96437e+06 1.70711e+06 0 -1.98399e+06 1.72288e+06 0 -2.00528e+06 1.73749e+06 0 -2.02843e+06 1.75092e+06 0 -2.05365e+06 1.76309e+06 0 -1.64768e+06 1.03691e+06 0 -1.65611e+06 1.06347e+06 0 -1.66463e+06 1.0901e+06 0 -1.67324e+06 1.1168e+06 0 -1.68192e+06 1.14355e+06 0 -1.69069e+06 1.17033e+06 0 -1.69954e+06 1.19711e+06 0 -1.70846e+06 1.22388e+06 0 -1.71747e+06 1.25062e+06 0 -1.72656e+06 1.27728e+06 0 -1.73575e+06 1.30384e+06 0 -1.74503e+06 1.33027e+06 0 -1.75444e+06 1.35653e+06 0 -1.76397e+06 1.38258e+06 0 -1.77367e+06 1.40838e+06 0 -1.78354e+06 1.43389e+06 0 -1.79364e+06 1.45906e+06 0 -1.80398e+06 1.48383e+06 0 -1.81464e+06 1.50817e+06 0 -1.82564e+06 1.53202e+06 0 -1.83706e+06 1.55533e+06 0 -1.84897e+06 1.57805e+06 0 -1.86145e+06 1.60012e+06 0 -1.87458e+06 1.6215e+06 0 -1.88846e+06 1.64213e+06 0 -1.90321e+06 1.66197e+06 0 -1.91894e+06 1.68097e+06 0 -1.93578e+06 1.69909e+06 0 -1.95387e+06 1.71629e+06 0 -1.97337e+06 1.73254e+06 0 -1.99444e+06 1.74781e+06 0 -2.01727e+06 1.76204e+06 0 -1.63058e+06 1.03427e+06 0 -1.63868e+06 1.06007e+06 0 -1.64688e+06 1.08594e+06 0 -1.65517e+06 1.11187e+06 0 -1.66354e+06 1.13786e+06 0 -1.672e+06 1.16388e+06 0 -1.68055e+06 1.18992e+06 0 -1.68918e+06 1.21595e+06 0 -1.6979e+06 1.24196e+06 0 -1.70672e+06 1.26792e+06 0 -1.71563e+06 1.29381e+06 0 -1.72465e+06 1.3196e+06 0 -1.73379e+06 1.34525e+06 0 -1.74306e+06 1.37074e+06 0 -1.75249e+06 1.39604e+06 0 -1.7621e+06 1.42109e+06 0 -1.7719e+06 1.44588e+06 0 -1.78195e+06 1.47036e+06 0 -1.79227e+06 1.49448e+06 0 -1.80291e+06 1.51821e+06 0 -1.81392e+06 1.5415e+06 0 -1.82535e+06 1.56431e+06 0 -1.83728e+06 1.5866e+06 0 -1.84977e+06 1.60833e+06 0 -1.86291e+06 1.62944e+06 0 -1.87678e+06 1.64992e+06 0 -1.89148e+06 1.6697e+06 0 -1.90713e+06 1.68877e+06 0 -1.92383e+06 1.70708e+06 0 -1.94172e+06 1.72461e+06 0 -1.96093e+06 1.74134e+06 0 -1.98162e+06 1.75721e+06 0 -1.61347e+06 1.03157e+06 0 -1.62126e+06 1.05661e+06 0 -1.62913e+06 1.08173e+06 0 -1.6371e+06 1.1069e+06 0 -1.64516e+06 1.13213e+06 0 -1.65331e+06 1.15739e+06 0 -1.66155e+06 1.18268e+06 0 -1.66988e+06 1.20797e+06 0 -1.6783e+06 1.23325e+06 0 -1.68682e+06 1.2585e+06 0 -1.69544e+06 1.2837e+06 0 -1.70418e+06 1.30883e+06 0 -1.71303e+06 1.33386e+06 0 -1.72202e+06 1.35876e+06 0 -1.73116e+06 1.3835e+06 0 -1.74046e+06 1.40806e+06 0 -1.74996e+06 1.43241e+06 0 -1.75968e+06 1.45652e+06 0 -1.76964e+06 1.48034e+06 0 -1.77989e+06 1.50385e+06 0 -1.79047e+06 1.527e+06 0 -1.80143e+06 1.54978e+06 0 -1.81281e+06 1.57213e+06 0 -1.82468e+06 1.59403e+06 0 -1.8371e+06 1.61544e+06 0 -1.85015e+06 1.63633e+06 0 -1.86391e+06 1.65666e+06 0 -1.87846e+06 1.6764e+06 0 -1.8939e+06 1.69554e+06 0 -1.91034e+06 1.71404e+06 0 -1.92788e+06 1.73188e+06 0 -1.94666e+06 1.74902e+06 0 -1.59637e+06 1.02882e+06 0 -1.60384e+06 1.05311e+06 0 -1.61139e+06 1.07746e+06 0 -1.61904e+06 1.10188e+06 0 -1.62679e+06 1.12634e+06 0 -1.63462e+06 1.15085e+06 0 -1.64254e+06 1.17538e+06 0 -1.65056e+06 1.19993e+06 0 -1.65868e+06 1.22448e+06 0 -1.66689e+06 1.24902e+06 0 -1.67521e+06 1.27352e+06 0 -1.68364e+06 1.29796e+06 0 -1.69219e+06 1.32234e+06 0 -1.70087e+06 1.34662e+06 0 -1.70969e+06 1.37079e+06 0 -1.71868e+06 1.39481e+06 0 -1.72784e+06 1.41867e+06 0 -1.73721e+06 1.44233e+06 0 -1.7468e+06 1.46578e+06 0 -1.75665e+06 1.48898e+06 0 -1.7668e+06 1.5119e+06 0 -1.77727e+06 1.53452e+06 0 -1.78811e+06 1.5568e+06 0 -1.79937e+06 1.57873e+06 0 -1.81111e+06 1.60026e+06 0 -1.82339e+06 1.62137e+06 0 -1.83626e+06 1.64203e+06 0 -1.8498e+06 1.66223e+06 0 -1.86409e+06 1.68194e+06 0 -1.87921e+06 1.70113e+06 0 -1.89526e+06 1.71979e+06 0 -1.91234e+06 1.73788e+06 0 -1.57927e+06 1.02601e+06 0 -1.58642e+06 1.04954e+06 0 -1.59366e+06 1.07314e+06 0 -1.60099e+06 1.09679e+06 0 -1.60841e+06 1.1205e+06 0 -1.61593e+06 1.14425e+06 0 -1.62354e+06 1.16803e+06 0 -1.63124e+06 1.19183e+06 0 -1.63904e+06 1.21565e+06 0 -1.64693e+06 1.23945e+06 0 -1.65494e+06 1.26324e+06 0 -1.66305e+06 1.287e+06 0 -1.67128e+06 1.3107e+06 0 -1.67964e+06 1.33434e+06 0 -1.68813e+06 1.35789e+06 0 -1.69678e+06 1.38134e+06 0 -1.70559e+06 1.40466e+06 0 -1.71459e+06 1.42784e+06 0 -1.7238e+06 1.45084e+06 0 -1.73324e+06 1.47365e+06 0 -1.74294e+06 1.49625e+06 0 -1.75292e+06 1.51861e+06 0 -1.76323e+06 1.54071e+06 0 -1.77391e+06 1.56252e+06 0 -1.78499e+06 1.58402e+06 0 -1.79653e+06 1.6052e+06 0 -1.80857e+06 1.62601e+06 0 -1.82118e+06 1.64646e+06 0 -1.83442e+06 1.66651e+06 0 -1.84835e+06 1.68615e+06 0 -1.86306e+06 1.70537e+06 0 -1.87862e+06 1.72414e+06 0 -1.56218e+06 1.02315e+06 0 -1.56901e+06 1.04592e+06 0 -1.57593e+06 1.06876e+06 0 -1.58294e+06 1.09165e+06 0 -1.59004e+06 1.1146e+06 0 -1.59724e+06 1.13759e+06 0 -1.60453e+06 1.16061e+06 0 -1.61191e+06 1.18367e+06 0 -1.61938e+06 1.20674e+06 0 -1.62696e+06 1.22981e+06 0 -1.63464e+06 1.25288e+06 0 -1.64242e+06 1.27593e+06 0 -1.65032e+06 1.29895e+06 0 -1.65834e+06 1.32192e+06 0 -1.6665e+06 1.34483e+06 0 -1.67479e+06 1.36767e+06 0 -1.68324e+06 1.39041e+06 0 -1.69187e+06 1.41304e+06 0 -1.70068e+06 1.43555e+06 0 -1.70969e+06 1.4579e+06 0 -1.71894e+06 1.4801e+06 0 -1.72844e+06 1.50211e+06 0 -1.73823e+06 1.52392e+06 0 -1.74833e+06 1.54551e+06 0 -1.75878e+06 1.56686e+06 0 -1.76962e+06 1.58794e+06 0 -1.78088e+06 1.60876e+06 0 -1.79263e+06 1.62928e+06 0 -1.8049e+06 1.64949e+06 0 -1.81775e+06 1.66937e+06 0 -1.83125e+06 1.68892e+06 0 -1.84546e+06 1.70812e+06 0 -1.54508e+06 1.02021e+06 0 -1.55159e+06 1.04223e+06 0 -1.5582e+06 1.06431e+06 0 -1.5649e+06 1.08645e+06 0 -1.57168e+06 1.10863e+06 0 -1.57856e+06 1.13086e+06 0 -1.58552e+06 1.15313e+06 0 -1.59258e+06 1.17543e+06 0 -1.59973e+06 1.19775e+06 0 -1.60698e+06 1.22008e+06 0 -1.61432e+06 1.24242e+06 0 -1.62177e+06 1.26475e+06 0 -1.62934e+06 1.28706e+06 0 -1.63701e+06 1.30935e+06 0 -1.64481e+06 1.3316e+06 0 -1.65275e+06 1.35379e+06 0 -1.66083e+06 1.37592e+06 0 -1.66906e+06 1.39797e+06 0 -1.67747e+06 1.41992e+06 0 -1.68606e+06 1.44177e+06 0 -1.69486e+06 1.46349e+06 0 -1.70388e+06 1.48508e+06 0 -1.71315e+06 1.50651e+06 0 -1.72269e+06 1.52778e+06 0 -1.73253e+06 1.54886e+06 0 -1.7427e+06 1.56974e+06 0 -1.75324e+06 1.59041e+06 0 -1.76418e+06 1.61085e+06 0 -1.77556e+06 1.63105e+06 0 -1.78742e+06 1.651e+06 0 -1.79982e+06 1.67069e+06 0 -1.81281e+06 1.69009e+06 0 -1.52798e+06 1.01722e+06 0 -1.53419e+06 1.03848e+06 0 -1.54048e+06 1.0598e+06 0 -1.54686e+06 1.08117e+06 0 -1.55333e+06 1.1026e+06 0 -1.55989e+06 1.12407e+06 0 -1.56653e+06 1.14557e+06 0 -1.57326e+06 1.16711e+06 0 -1.58008e+06 1.18868e+06 0 -1.587e+06 1.21026e+06 0 -1.59401e+06 1.23186e+06 0 -1.60112e+06 1.25346e+06 0 -1.60833e+06 1.27506e+06 0 -1.61566e+06 1.29664e+06 0 -1.6231e+06 1.3182e+06 0 -1.63067e+06 1.33972e+06 0 -1.63837e+06 1.3612e+06 0 -1.64621e+06 1.38263e+06 0 -1.65421e+06 1.40399e+06 0 -1.66237e+06 1.42528e+06 0 -1.67072e+06 1.44647e+06 0 -1.67926e+06 1.46757e+06 0 -1.68802e+06 1.48855e+06 0 -1.69702e+06 1.5094e+06 0 -1.70627e+06 1.53012e+06 0 -1.71581e+06 1.55069e+06 0 -1.72566e+06 1.57109e+06 0 -1.73584e+06 1.59132e+06 0 -1.7464e+06 1.61138e+06 0 -1.75736e+06 1.63123e+06 0 -1.76876e+06 1.65089e+06 0 -1.78065e+06 1.67033e+06 0 -1.51087e+06 1.01416e+06 0 -1.51678e+06 1.03466e+06 0 -1.52277e+06 1.05522e+06 0 -1.52884e+06 1.07583e+06 0 -1.53499e+06 1.09649e+06 0 -1.54123e+06 1.11719e+06 0 -1.54755e+06 1.13794e+06 0 -1.55395e+06 1.15871e+06 0 -1.56044e+06 1.17952e+06 0 -1.56702e+06 1.20035e+06 0 -1.5737e+06 1.2212e+06 0 -1.58047e+06 1.24206e+06 0 -1.58733e+06 1.26292e+06 0 -1.5943e+06 1.28378e+06 0 -1.60138e+06 1.30464e+06 0 -1.60858e+06 1.32547e+06 0 -1.6159e+06 1.34628e+06 0 -1.62334e+06 1.36705e+06 0 -1.63093e+06 1.38778e+06 0 -1.63867e+06 1.40846e+06 0 -1.64656e+06 1.42907e+06 0 -1.65464e+06 1.44962e+06 0 -1.6629e+06 1.47008e+06 0 -1.67136e+06 1.49045e+06 0 -1.68005e+06 1.51072e+06 0 -1.68898e+06 1.53088e+06 0 -1.69818e+06 1.55092e+06 0 -1.70765e+06 1.57084e+06 0 -1.71744e+06 1.59061e+06 0 -1.72757e+06 1.61025e+06 0 -1.73806e+06 1.62973e+06 0 -1.74896e+06 1.64904e+06 0 -1.49377e+06 1.01103e+06 0 -1.49937e+06 1.03078e+06 0 -1.50506e+06 1.05057e+06 0 -1.51082e+06 1.07042e+06 0 -1.51666e+06 1.09031e+06 0 -1.52258e+06 1.11025e+06 0 -1.52858e+06 1.13022e+06 0 -1.53466e+06 1.15023e+06 0 -1.54082e+06 1.17027e+06 0 -1.54707e+06 1.19034e+06 0 -1.5534e+06 1.21043e+06 0 -1.55983e+06 1.23054e+06 0 -1.56634e+06 1.25066e+06 0 -1.57296e+06 1.27079e+06 0 -1.57967e+06 1.29092e+06 0 -1.58649e+06 1.31104e+06 0 -1.59343e+06 1.33115e+06 0 -1.60048e+06 1.35124e+06 0 -1.60766e+06 1.3713e+06 0 -1.61497e+06 1.39133e+06 0 -1.62242e+06 1.41133e+06 0 -1.63003e+06 1.43127e+06 0 -1.6378e+06 1.45116e+06 0 -1.64576e+06 1.47098e+06 0 -1.6539e+06 1.49074e+06 0 -1.66225e+06 1.51041e+06 0 -1.67082e+06 1.53e+06 0 -1.67963e+06 1.5495e+06 0 -1.68871e+06 1.5689e+06 0 -1.69806e+06 1.5882e+06 0 -1.70772e+06 1.60738e+06 0 -1.71771e+06 1.62644e+06 0 -1.47666e+06 1.00783e+06 0 -1.48197e+06 1.02682e+06 0 -1.48735e+06 1.04585e+06 0 -1.49281e+06 1.06493e+06 0 -1.49834e+06 1.08405e+06 0 -1.50394e+06 1.10322e+06 0 -1.50962e+06 1.12242e+06 0 -1.51538e+06 1.14166e+06 0 -1.52122e+06 1.16094e+06 0 -1.52713e+06 1.18024e+06 0 -1.53313e+06 1.19956e+06 0 -1.53921e+06 1.21891e+06 0 -1.54538e+06 1.23828e+06 0 -1.55164e+06 1.25766e+06 0 -1.55799e+06 1.27704e+06 0 -1.56443e+06 1.29644e+06 0 -1.57098e+06 1.31582e+06 0 -1.57764e+06 1.33521e+06 0 -1.58441e+06 1.35458e+06 0 -1.5913e+06 1.37393e+06 0 -1.59832e+06 1.39326e+06 0 -1.60547e+06 1.41256e+06 0 -1.61277e+06 1.43182e+06 0 -1.62022e+06 1.45105e+06 0 -1.62783e+06 1.47023e+06 0 -1.63563e+06 1.48935e+06 0 -1.64361e+06 1.50842e+06 0 -1.65179e+06 1.52742e+06 0 -1.6602e+06 1.54635e+06 0 -1.66884e+06 1.56521e+06 0 -1.67773e+06 1.58399e+06 0 -1.6869e+06 1.60268e+06 0 -1.45954e+06 1.00457e+06 0 -1.46456e+06 1.02279e+06 0 -1.46965e+06 1.04105e+06 0 -1.4748e+06 1.05936e+06 0 -1.48003e+06 1.07772e+06 0 -1.48533e+06 1.09611e+06 0 -1.49069e+06 1.11454e+06 0 -1.49613e+06 1.133e+06 0 -1.50164e+06 1.1515e+06 0 -1.50723e+06 1.17003e+06 0 -1.51289e+06 1.18859e+06 0 -1.51863e+06 1.20717e+06 0 -1.52445e+06 1.22577e+06 0 -1.53035e+06 1.24439e+06 0 -1.53634e+06 1.26302e+06 0 -1.54241e+06 1.28166e+06 0 -1.54858e+06 1.30031e+06 0 -1.55485e+06 1.31897e+06 0 -1.56122e+06 1.33762e+06 0 -1.56769e+06 1.35626e+06 0 -1.57428e+06 1.3749e+06 0 -1.58098e+06 1.39352e+06 0 -1.58782e+06 1.41212e+06 0 -1.59478e+06 1.4307e+06 0 -1.60189e+06 1.44925e+06 0 -1.60915e+06 1.46777e+06 0 -1.61657e+06 1.48625e+06 0 -1.62416e+06 1.50469e+06 0 -1.63194e+06 1.52308e+06 0 -1.63991e+06 1.54142e+06 0 -1.64809e+06 1.55971e+06 0 -1.65649e+06 1.57795e+06 0 -1.44243e+06 1.00123e+06 0 -1.44716e+06 1.01868e+06 0 -1.45195e+06 1.03618e+06 0 -1.45681e+06 1.05372e+06 0 -1.46174e+06 1.0713e+06 0 -1.46673e+06 1.08891e+06 0 -1.47178e+06 1.10657e+06 0 -1.47691e+06 1.12425e+06 0 -1.4821e+06 1.14197e+06 0 -1.48736e+06 1.15972e+06 0 -1.49268e+06 1.1775e+06 0 -1.49809e+06 1.1953e+06 0 -1.50356e+06 1.21313e+06 0 -1.50911e+06 1.23098e+06 0 -1.51474e+06 1.24885e+06 0 -1.52045e+06 1.26673e+06 0 -1.52624e+06 1.28463e+06 0 -1.53212e+06 1.30253e+06 0 -1.53809e+06 1.32044e+06 0 -1.54416e+06 1.33836e+06 0 -1.55032e+06 1.35627e+06 0 -1.55659e+06 1.37418e+06 0 -1.56297e+06 1.39209e+06 0 -1.56947e+06 1.40998e+06 0 -1.57609e+06 1.42786e+06 0 -1.58283e+06 1.44572e+06 0 -1.58972e+06 1.46356e+06 0 -1.59675e+06 1.48138e+06 0 -1.60393e+06 1.49916e+06 0 -1.61128e+06 1.51692e+06 0 -1.6188e+06 1.53464e+06 0 -1.62652e+06 1.55229e+06 0 </DataArray> 
</PointData> 
<Points> 
<DataArray type="Float32" NumberOfComponents="3"> 