<?xml version="1.0"?> 
<VTKFile type="StructuredGrid" version="0.1"> 
<StructuredGrid WholeExtent="0 31 0 31 0 0"> 
<Piece Extent="0 31 0 31 0 0"> 
<PointData>
<DataArray type="Float32" Name="|E|" format="ascii" NumberOfComponents="3"> 
986983 221247 0 955640 212822 0 925613 204385 0 896877 195969 0 869413 187603 0 843199 179309 0 818210 171104 0 794424 163002 0 771817 155013 0 750365 147143 0 730046 139397 0 710835 131777 0 692711 124283 0 675653 116915 0 659639 109671 0 644650 102547 0 630667 95538.5 0 617671 88641.3 0 605646 81849.6 0 594575 75157.4 0 584445 68558.2 0 575240 62045.3 0 566950 55611.4 0 559561 49249.3 0 553065 42951.4 0 547451 36709.9 0 542713 30517 0 538843 24364.7 0 535836 18245 0 533687 12149.7 0 532394 6070.79 0 531954 0 0 985072 225871 0 953757 217302 0 923761 208721 0 895059 200159 0 867632 191648 0 841454 183208 0 816504 174857 0 792756 166609 0 770187 158474 0 748773 150459 0 728490 142567 0 709315 134801 0 691225 127162 0 674200 119649 0 658217 112259 0 643257 104989 0 629301 97834.9 0 616331 90791.5 0 604329 83853.1 0 593280 77013.8 0 583168 70267 0 573981 63605.6 0 565705 57022.4 0 558328 50509.9 0 551841 44060.4 0 546235 37666 0 541501 31318.7 0 537633 25010.2 0 534625 18732.5 0 532473 12477.1 0 531174 6235.75 0 530726 0 0 983131 230489 0 951844 221776 0 921879 213048 0 893211 204341 0 865820 195684 0 839680 187098 0 814768 178602 0 791058 170208 0 768528 161927 0 747151 153766 0 726904 145729 0 707765 137818 0 689710 130034 0 672717 122375 0 656765 114840 0 641835 107424 0 627906 100124 0 614961 92935.1 0 602983 85850.6 0 591955 78864.6 0 581862 71970.4 0 572691 65161 0 564429 58428.9 0 557064 51766.5 0 550586 45165.9 0 544987 38619.1 0 540257 32117.8 0 536390 25653.7 0 533381 19218.4 0 531226 12803.5 0 529920 6400.17 0 529463 0 0 981161 235100 0 949902 226241 0 919967 217368 0 891334 208515 0 863978 199711 0 837876 190979 0 813002 182337 0 789331 173798 0 766838 165371 0 745499 157064 0 725289 148882 0 706185 140826 0 688165 132897 0 671204 125093 0 655284 117413 0 640383 109852 0 626481 102407 0 613562 95072.3 0 601606 87841.9 0 590599 80709.6 0 580525 73668.5 0 571370 66711.5 0 563122 59830.9 0 555769 53019 0 549300 46267.8 0 543707 39569 0 538981 32914.3 0 535116 26295.1 0 532106 19702.8 0 529946 13128.7 0 528634 6564.03 0 528167 0 0 979160 239704 0 947929 230699 0 918025 221679 0 889426 212680 0 862107 203730 0 836042 194852 0 811206 186063 0 787573 177378 0 765119 168806 0 743817 160354 0 723644 152026 0 704576 143825 0 686589 135751 0 669662 127803 0 653773 119978 0 638901 112273 0 625027 104683 0 612132 97202.7 0 600200 89826.9 0 589213 82548.7 0 579158 75361.1 0 570019 68256.9 0 561785 61228.3 0 554443 54267.4 0 547983 47366 0 542396 40515.8 0 537674 33708.1 0 533809 26934.2 0 530797 20185.4 0 528633 13452.8 0 527314 6727.32 0 526837 0 0 977129 244301 0 945926 235149 0 916054 225982 0 887489 216836 0 860206 207739 0 834178 198715 0 809380 189780 0 785786 180949 0 763370 172232 0 742106 163635 0 721970 155162 0 702937 146816 0 684985 138598 0 668090 130505 0 652232 122535 0 637389 114686 0 623542 106951 0 610673 99326.5 0 598763 91805.6 0 587798 84381.8 0 577760 77048.2 0 568638 69797.2 0 560417 62621.1 0 553086 55511.7 0 546635 48460.6 0 541054 41459.3 0 536335 34499.1 0 532471 27571.2 0 529457 20666.4 0 527288 13775.8 0 525960 6890.04 0 525473 0 0 975068 248891 0 943892 239591 0 914052 230276 0 885521 220983 0 858274 211740 0 832285 202569 0 807525 193488 0 783969 184512 0 761591 175649 0 740365 166906 0 720265 158289 0 701268 149798 0 683350 141435 0 666488 133198 0 650661 125085 0 635847 117091 0 622028 109212 0 609183 101443 0 597297 93777.8 0 586352 86209 0 576333 78729.7 0 567226 71332.4 0 559019 64009.2 0 551699 56751.6 0 545256 49551.3 0 539680 42399.6 0 534964 35287.5 0 531101 28205.9 0 528084 21145.7 0 525909 14097.6 0 524574 7052.18 0 524075 0 0 972977 253473 0 941829 244025 0 912020 234562 0 883524 225122 0 856313 215731 0 830361 206413 0 805640 197187 0 782122 188064 0 759782 179056 0 738594 170169 0 718531 161407 0 699570 152772 0 681686 144265 0 664857 135884 0 649061 127627 0 634276 119489 0 620484 111466 0 607664 103553 0 595800 95743.5 0 584876 88030 0 574875 80405.5 0 565784 72862.4 0 557590 65392.5 0 550281 57987.3 0 543846 50638.3 0 538276 43336.6 0 533562 36073 0 529699 28838.3 0 526679 21623.3 0 524499 14418.3 0 523154 7213.73 0 522643 0 0 970855 258047 0 939735 248450 0 909958 238840 0 881496 229251 0 854322 219713 0 828407 210249 0 803724 200876 0 780246 191607 0 757944 182454 0 736794 173422 0 716768 164515 0 697842 155736 0 679993 147085 0 663196 138561 0 647431 130160 0 632675 121879 0 618910 113713 0 606115 105656 0 594274 97702.6 0 583370 89844.8 0 573388 82075.6 0 564312 74387.1 0 556131 66770.9 0 548832 59218.6 0 542405 51721.4 0 536840 44270.2 0 532129 36855.7 0 528265 29468.5 0 525242 22099.1 0 523055 14737.7 0 521702 7374.68 0 521179 0 0 968702 262614 0 937610 252868 0 907865 243108 0 879438 233371 0 852301 223685 0 826424 214074 0 801779 204555 0 778339 195141 0 756076 185842 0 734963 176665 0 714975 167614 0 696085 158692 0 678270 149897 0 661506 141229 0 645771 132685 0 631045 124261 0 617307 115952 0 604537 107752 0 592719 99655 0 581835 91653.4 0 571870 83739.9 0 562810 75906.3 0 554642 68144.5 0 547353 60445.5 0 540933 52800.6 0 535373 45200.4 0 530664 37635.5 0 526799 30096.3 0 523773 22573.1 0 521579 15056 0 520216 7535.01 0 519680 0 0 966519 267173 0 935455 257276 0 905742 247367 0 877350 237482 0 850249 227648 0 824410 217890 0 799805 208224 0 776403 198665 0 754179 189221 0 733104 179899 0 713152 170704 0 694298 161638 0 676517 152700 0 659786 143889 0 644083 135202 0 629385 126636 0 615674 118184 0 602929 109841 0 591133 101601 0 580270 93455.7 0 570323 85398.2 0 561278 77420.2 0 553122 69513 0 545844 61668 0 539431 53875.8 0 533876 46127.1 0 529168 38412.3 0 525302 30721.7 0 522272 23045.3 0 520071 15373.1 0 518698 7694.73 0 518149 0 0 964304 271724 0 933270 261676 0 903589 251617 0 875232 241583 0 848168 231601 0 822367 221696 0 797800 211884 0 774438 202178 0 752252 192589 0 731215 183123 0 711300 173785 0 692481 164575 0 674735 155494 0 658037 146541 0 642364 137711 0 627696 129002 0 614011 120408 0 601291 111922 0 589518 103540 0 578675 95251.5 0 568745 87050.6 0 559716 78928.5 0 551572 70876.6 0 544304 62885.8 0 537898 54946.9 0 532347 47050.3 0 527641 39186.3 0 523774 31344.8 0 520738 23515.8 0 518531 15688.9 0 517146 7853.83 0 516584 0 0 962059 276266 0 931053 266067 0 901405 255858 0 873083 245674 0 846056 235545 0 820294 225492 0 795765 215533 0 772442 205682 0 750295 195948 0 729296 186338 0 709418 176856 0 690636 167503 0 672924 158279 0 656258 149183 0 640617 140211 0 625977 131360 0 612320 122624 0 599624 113997 0 587873 105471 0 577050 97040.8 0 567138 88696.9 0 558123 80431.3 0 549993 72235.1 0 542733 64099.1 0 536335 56014 0 530788 47970 0 526083 39957.2 0 522214 31965.4 0 519174 23984.3 0 516958 16003.5 0 515562 8012.28 0 514985 0 0 959783 280801 0 928806 270449 0 899191 260089 0 870904 249756 0 843914 239478 0 818190 229278 0 793701 219173 0 770417 209176 0 748308 199297 0 727347 189543 0 707507 179917 0 688760 170421 0 671083 161055 0 654450 151816 0 638840 142703 0 624229 133710 0 610598 124832 0 597928 116063 0 586199 107396 0 575396 98823.5 0 565501 90337.1 0 556501 81928.4 0 548383 73588.4 0 541133 65307.8 0 534741 57077 0 529198 48886.1 0 524494 40725.1 0 520622 32583.5 0 517577 24451 0 515353 16316.8 0 513946 8170.1 0 513354 0 0 957475 285326 0 926528 274822 0 896945 264311 0 868694 253828 0 841742 243401 0 816057 233053 0 791606 222802 0 768361 212659 0 746292 202636 0 725369 192737 0 705566 182968 0 686856 173329 0 669213 163821 0 652613 154441 0 637033 145186 0 622452 136052 0 608848 127033 0 596202 118122 0 584496 109314 0 573712 100600 0 563835 91971.1 0 554850 83419.7 0 546743 74936.4 0 539502 66511.7 0 533117 58135.8 0 527577 49798.6 0 522874 41489.9 0 519000 33199.2 0 515949 24915.8 0 513716 16628.8 0 512297 8327.26 0 511690 0 0 955136 289843 0 924218 279186 0 894670 268523 0 866454 257890 0 839540 247314 0 813893 236818 0 789482 226420 0 766277 216132 0 744246 205964 0 723362 195922 0 703596 186009 0 684922 176228 0 667313 166578 0 650746 157056 0 635198 147660 0 620645 138385 0 607068 129225 0 594447 120174 0 582763 111225 0 571999 102369 0 562139 93598.8 0 553168 84905.3 0 545073 76279.2 0 537842 67710.9 0 531463 59190.3 0 525926 50707.4 0 521223 42251.6 0 517346 33812.3 0 514289 25378.6 0 512047 16939.5 0 510615 8483.76 0 509993 0 0 952765 294351 0 921878 283540 0 892363 272725 0 864184 261941 0 837307 251216 0 811699 240573 0 787328 230028 0 764162 219595 0 742171 209282 0 721325 199096 0 701596 189041 0 682958 179117 0 665384 169325 0 648851 159662 0 633333 150125 0 618810 140710 0 605259 131409 0 592662 122218 0 581001 113128 0 570256 104131 0 560413 95220.2 0 551457 86385.1 0 543374 77616.6 0 536151 68905.2 0 529778 60240.6 0 524244 51612.4 0 519541 43010.2 0 515661 34422.9 0 512598 25839.5 0 510346 17248.9 0 508902 8639.59 0 508263 0 0 950363 298849 0 919507 287884 0 890025 276917 0 861883 265982 0 835044 255108 0 809476 244317 0 785144 233625 0 762018 223046 0 740066 212589 0 719259 202260 0 699568 192062 0 680966 181996 0 663427 172063 0 646926 162259 0 631439 152582 0 616945 143026 0 603421 133585 0 590849 124254 0 579209 115024 0 568484 105887 0 558658 96835.1 0 549716 87858.9 0 541645 78948.7 0 534430 70094.6 0 528063 61286.5 0 522532 52513.7 0 517828 43765.5 0 513945 35030.8 0 510875 26298.5 0 508613 17557 0 507156 8794.74 0 506500 0 0 947930 303338 0 917104 292218 0 887657 281098 0 859551 270012 0 832751 258989 0 807222 248050 0 782930 237212 0 759844 226487 0 737931 215886 0 717163 205413 0 697510 195072 0 678944 184865 0 661440 174791 0 644972 164846 0 629516 155029 0 615051 145333 0 601554 135753 0 589006 126282 0 577388 116912 0 566683 107636 0 556874 98443.6 0 547946 89326.6 0 539886 80275.2 0 532680 71279.1 0 526318 62328 0 520789 53411.2 0 516085 44517.6 0 512198 35636.2 0 509121 26755.4 0 506849 17863.7 0 505377 8949.21 0 504704 0 0 945465 307818 0 914670 296543 0 885258 285269 0 857189 274032 0 830428 262859 0 804938 251772 0 780687 240787 0 757640 229917 0 735767 219172 0 715038 208556 0 695422 198073 0 676893 187724 0 659423 177509 0 642989 167424 0 627564 157467 0 613128 147632 0 599658 137912 0 587135 128302 0 575539 118793 0 564853 109377 0 555060 100045 0 546146 90788.4 0 538097 81596.2 0 530900 72458.6 0 524543 63365.1 0 519017 54304.7 0 514312 45266.5 0 510420 36238.8 0 507336 27210.3 0 505053 18169 0 503567 9102.97 0 502876 0 0 942968 312288 0 912205 300857 0 882828 289430 0 854796 278041 0 828074 266718 0 802624 255483 0 778413 244351 0 755407 233336 0 733574 222446 0 712883 211687 0 693306 201062 0 674813 190573 0 657378 180217 0 640977 169992 0 625583 159896 0 611176 149921 0 597733 140063 0 585234 130314 0 573660 120666 0 562993 111112 0 553218 101641 0 544318 92243.9 0 536279 82911.5 0 529090 73633 0 522738 64397.6 0 517214 55194.4 0 512507 46012 0 508612 36838.8 0 505519 27663.2 0 503225 18473 0 501725 9256.04 0 501016 0 0 940439 316748 0 909708 305161 0 880367 293579 0 852373 282039 0 825690 270566 0 800280 259182 0 776110 247904 0 753144 236744 0 731351 225710 0 710700 214808 0 691160 204042 0 672704 193411 0 655304 182915 0 638936 172551 0 623574 162315 0 609195 152202 0 595779 142205 0 583304 132318 0 571752 122532 0 561105 112839 0 551346 103229 0 542459 93693.3 0 534432 84221.2 0 527251 74802.3 0 520904 65425.6 0 515381 56080.1 0 510673 46754.1 0 506772 37436.1 0 503672 28113.9 0 501366 18775.5 0 499851 9408.38 0 499123 0 0 937878 321198 0 907180 309454 0 877874 297718 0 849919 286025 0 823275 274402 0 797906 262871 0 773777 251446 0 750852 240140 0 729099 228963 0 708487 217918 0 688985 207010 0 670566 196238 0 653201 185602 0 636866 175099 0 621535 164725 0 607186 154473 0 593796 144339 0 581346 134314 0 569816 124390 0 559187 114559 0 549445 104811 0 540572 95136.4 0 532555 85525.1 0 525382 75966.4 0 519039 66449 0 513518 56961.8 0 508808 47492.9 0 504902 38030.6 0 501794 28562.6 0 499476 19076.6 0 497945 9560.01 0 497198 0 0 935285 325638 0 904621 313736 0 875351 301845 0 847434 290000 0 820830 278227 0 795502 266547 0 771414 254976 0 748530 243525 0 726817 232204 0 706244 221017 0 686781 209967 0 668399 199055 0 651069 188280 0 634767 177638 0 619468 167125 0 605148 156736 0 591785 146463 0 579359 136301 0 567850 126240 0 557241 116271 0 547515 106386 0 538656 96573.1 0 530649 86823.2 0 523483 77125.2 0 517145 67467.8 0 511625 57839.4 0 506913 48228.3 0 503002 38622.3 0 499884 29009.2 0 497554 19376.3 0 496008 9710.9 0 495241 0 0 932660 330067 0 902030 318007 0 872797 305961 0 844919 293964 0 818355 282041 0 793068 270212 0 769021 258494 0 746178 246899 0 724506 235434 0 703973 224104 0 684548 212914 0 666203 201862 0 648909 190947 0 632640 180166 0 617372 169515 0 603081 158989 0 589745 148579 0 577343 138280 0 565856 128082 0 555266 117976 0 545556 107953 0 536710 98003.4 0 528714 88115.5 0 521555 78278.7 0 515222 68481.8 0 509703 58712.9 0 504989 48960.1 0 501072 39211.2 0 497945 29453.6 0 495602 19674.5 0 494039 9861.06 0 493252 0 0 930003 334485 0 899407 322267 0 870211 310066 0 842372 297916 0 815850 285842 0 790604 273865 0 766598 262000 0 743797 250260 0 722166 238652 0 701672 227181 0 682286 215849 0 663978 204657 0 646719 193603 0 630484 182684 0 615247 171896 0 600985 161232 0 587676 150686 0 575299 140250 0 563834 129916 0 553262 119674 0 543568 109514 0 534736 99427.2 0 526750 89401.8 0 519598 79426.9 0 513269 69491 0 507750 59582.3 0 503034 49688.5 0 499111 39797.2 0 495974 29895.8 0 493618 19971.3 0 492038 10010.5 0 491231 0 0 927314 338892 0 896753 326515 0 867595 314159 0 839795 301855 0 813314 289631 0 788110 277506 0 764146 265495 0 741386 253610 0 719796 241858 0 699343 230245 0 679995 218773 0 661724 207441 0 644501 196249 0 628299 185192 0 613094 174267 0 598861 163466 0 585579 152784 0 573226 142212 0 561782 131741 0 551230 121363 0 541552 111068 0 532733 100844 0 524757 90682.1 0 517612 80569.7 0 511286 70495.5 0 505768 60447.5 0 501049 50413.3 0 497120 40380.4 0 493973 30335.8 0 491604 20266.5 0 490007 10159.1 0 489178 0 0 924592 343288 0 894066 330752 0 864947 318240 0 837188 305783 0 810748 293408 0 785586 281134 0 761664 268977 0 738946 256947 0 717397 245053 0 696984 233298 0 677676 221685 0 659442 210214 0 642254 198884 0 626086 187690 0 610912 176627 0 596709 165690 0 583453 154872 0 571125 144165 0 559703 133559 0 549169 123045 0 539507 112614 0 530701 102255 0 522735 91956.3 0 515597 81707 0 509275 71495 0 503757 61308.4 0 499034 51134.5 0 495098 40960.6 0 491942 30773.6 0 489558 20560.3 0 487944 10307 0 487093 0 0 921838 347672 0 891349 334977 0 862268 322308 0 834549 309698 0 808151 297173 0 783032 284750 0 759152 272447 0 736477 260272 0 714969 248235 0 694597 236339 0 675327 224586 0 657131 212976 0 639979 201508 0 623845 190176 0 608702 178978 0 594528 167905 0 581299 156952 0 568995 146109 0 557595 135368 0 547080 124720 0 537434 114154 0 528640 103659 0 520684 93224.4 0 513553 82838.7 0 507234 72489.7 0 501716 62165 0 496990 51852.1 0 493047 41537.9 0 489880 31209.2 0 487483 20852.5 0 485850 10454.1 0 484977 0 0 919052 352045 0 888599 339190 0 859558 326365 0 831880 313601 0 805524 300925 0 780447 288354 0 756611 275904 0 733978 263585 0 712512 251405 0 692180 239368 0 672950 227475 0 654791 215727 0 637675 204121 0 621575 192653 0 606464 181318 0 592319 170110 0 579117 159021 0 566837 148044 0 555458 137169 0 544962 126386 0 535332 115685 0 526551 105056 0 518605 94486.3 0 511480 83964.8 0 505164 73479.3 0 499646 63017.3 0 494917 52566 0 490966 42112.1 0 487788 31642.4 0 485376 21143.2 0 483725 10600.4 0 482830 0 0 916234 356406 0 885818 343390 0 856816 330408 0 829180 317492 0 802867 304664 0 777833 291945 0 754040 279349 0 731450 266886 0 710026 254563 0 689734 242385 0 670544 230353 0 652423 218466 0 635343 206722 0 619276 195118 0 604197 183648 0 590082 172305 0 576907 161082 0 564651 149970 0 553293 138961 0 542816 128045 0 533202 117210 0 524433 106446 0 516497 95741.9 0 509378 85085.3 0 503066 74464 0 497547 63865.3 0 492814 53276.2 0 488856 42683.4 0 485666 32073.4 0 483239 21432.3 0 481569 10745.9 0 480651 0 0 913383 360754 0 883004 347578 0 854043 334439 0 826450 321369 0 800179 308390 0 775189 295523 0 751440 282780 0 728892 270173 0 707510 257708 0 687260 245389 0 668109 233218 0 650026 221193 0 632982 209313 0 616950 197573 0 601903 185967 0 587817 174490 0 574668 163133 0 562437 151888 0 551101 140745 0 540642 129695 0 531043 118727 0 522288 107829 0 514360 96991.2 0 507248 86200.1 0 500938 75443.5 0 495419 64708.8 0 490681 53982.6 0 486715 43251.6 0 483514 32502.1 0 481072 21719.8 0 479382 10890.7 0 478441 0 0 </DataArray> 
</PointData> 
<Points> 
<DataArray type="Float32" NumberOfComponents="3"> 