<?xml version="1.0"?> 
<VTKFile type="StructuredGrid" version="0.1"> 
<StructuredGrid WholeExtent="0 31 0 31 0 0"> 
<Piece Extent="0 31 0 31 0 0"> 
<PointData>
<DataArray type="Float32" Name="|E|" format="ascii" NumberOfComponents="3"> 
1.03997e+06 56701.8 0 1.00709e+06 54671.5 0 975424 52605.9 0 944993 50520.9 0 915801 48428.1 0 887847 46337.3 0 861128 44256 0 835634 42190.4 0 811354 40145.2 0 788275 38124 0 766381 36129.4 0 745656 34163.2 0 726082 32226.5 0 707641 30319.8 0 690316 28443.3 0 674088 26596.5 0 658940 24779 0 644856 22989.6 0 631818 21227.3 0 619811 19490.6 0 608820 17778.2 0 598832 16088.1 0 589833 14418.9 0 581812 12768.4 0 574759 11134.9 0 568664 9516.22 0 563518 7910.43 0 559315 6315.39 0 556049 4728.99 0 553716 3149.07 0 552311 1573.46 0 551834 0 0 1.03977e+06 58490.4 0 1.00689e+06 56395.2 0 975231 54264 0 944806 52112.9 0 915619 49953.8 0 887671 47796.8 0 860957 45649.8 0 835469 43519 0 811196 41409.4 0 788122 39324.4 0 766234 37266.9 0 745514 35238.7 0 725945 33241 0 707510 31274.3 0 690189 29338.7 0 673966 27433.8 0 658823 25559 0 644742 23713.3 0 631708 21895.5 0 619705 20104.2 0 608717 18337.8 0 598732 16594.6 0 589736 14872.7 0 581718 13170.3 0 574667 11485.4 0 568573 9815.77 0 563429 8159.43 0 559228 6514.18 0 555963 4877.84 0 553630 3248.19 0 552226 1622.99 0 551749 0 0 1.03956e+06 60278.7 0 1.00669e+06 58118.6 0 975035 55921.8 0 944615 53704.5 0 915433 51479.2 0 887491 49256.1 0 860783 47043.3 0 835301 44847.3 0 811033 42673.1 0 787966 40524.5 0 766084 38404.1 0 745369 36314 0 725806 34255.3 0 707375 32228.5 0 690060 30233.8 0 673841 28270.8 0 658702 26338.8 0 644626 24436.7 0 631596 22563.5 0 619596 20717.5 0 608612 18897.2 0 598629 17100.8 0 589636 15326.5 0 581620 13572.1 0 574571 11835.8 0 568480 10115.2 0 563337 8408.35 0 559137 6712.91 0 555873 5026.65 0 553541 3347.28 0 552137 1672.5 0 551660 0 0 1.03935e+06 62066.8 0 1.00649e+06 59841.8 0 974836 57579.3 0 944420 55295.9 0 915244 53004.3 0 887308 50715 0 860606 48436.5 0 835130 46175.3 0 810868 43936.6 0 787806 41724.2 0 765930 39541 0 745221 37388.9 0 725663 35269.2 0 707238 33182.4 0 689927 31128.6 0 673713 29107.5 0 658579 27118.3 0 644507 25160 0 631480 23231.3 0 619484 21330.7 0 608503 19456.5 0 598524 17606.9 0 589534 15780.1 0 581520 13973.8 0 574473 12186 0 568384 10414.6 0 563243 8657.2 0 559044 6911.58 0 555781 5175.41 0 553449 3446.34 0 552046 1722 0 551569 0 0 1.03914e+06 63854.6 0 1.00628e+06 61564.8 0 974633 59236.6 0 944222 56886.9 0 915052 54529 0 887121 52173.6 0 860425 49829.3 0 834955 47502.9 0 810699 45199.7 0 787643 42923.6 0 765772 40677.5 0 745069 38463.5 0 725517 36282.8 0 707097 34136 0 689791 32023.2 0 673582 29944 0 658452 27897.6 0 644384 25883 0 631362 23898.9 0 619369 21943.6 0 608392 20015.6 0 598416 18112.9 0 589428 16233.5 0 581417 14375.3 0 574373 12536.2 0 568285 10713.9 0 563146 8905.96 0 558948 7110.19 0 555686 5324.13 0 553355 3545.37 0 551953 1771.48 0 551476 0 0 1.03893e+06 65642.3 0 1.00607e+06 63287.5 0 974426 60893.6 0 944021 58477.7 0 914856 56053.4 0 886931 53631.9 0 860241 51221.8 0 834777 48830.2 0 810527 46462.4 0 787477 44122.6 0 765612 41813.8 0 744915 39537.9 0 725368 37296.2 0 706953 35089.4 0 689652 32917.5 0 673448 30780.2 0 658323 28676.7 0 644259 26605.8 0 631240 24566.2 0 619252 22556.4 0 608278 20574.5 0 598305 18618.7 0 589320 16686.8 0 581312 14776.8 0 574269 12886.3 0 568183 11013 0 563046 9154.65 0 558849 7308.73 0 555589 5472.8 0 553259 3644.37 0 551856 1820.94 0 551380 0 0 1.03871e+06 67429.8 0 1.00585e+06 65010 0 974216 62550.3 0 943816 60068.1 0 914656 57577.5 0 886737 55089.8 0 860053 52614 0 834595 50157.1 0 810351 47724.9 0 787307 45321.4 0 765448 42949.7 0 744756 40611.9 0 725215 38309.2 0 706806 36042.5 0 689510 33811.6 0 673311 31616.2 0 658190 29455.5 0 644131 27328.4 0 631116 25233.4 0 619131 23169 0 608161 21133.3 0 598191 19124.3 0 589209 17140 0 581203 15178 0 574163 13236.2 0 568079 11312.1 0 562943 9403.26 0 558748 7507.2 0 555488 5621.41 0 553159 3743.33 0 551757 1870.39 0 551281 0 0 1.03849e+06 69217.1 0 1.00563e+06 66732.2 0 974002 64206.7 0 943607 61658.3 0 914453 59101.3 0 886540 56547.4 0 859861 54005.8 0 834409 51483.7 0 810172 48987 0 787134 46519.8 0 765281 44085.2 0 744595 41685.5 0 725059 39322 0 706655 36995.2 0 689365 34705.3 0 673171 32451.9 0 658054 30234 0 643999 28050.7 0 630989 25900.3 0 619008 23781.4 0 608041 21691.8 0 598074 19629.8 0 589095 17593 0 581092 15579.2 0 574054 13586 0 567972 11611.1 0 562838 9651.78 0 558644 7705.62 0 555385 5769.99 0 553057 3842.27 0 551656 1919.82 0 551179 0 0 1.03826e+06 71004.2 0 1.00541e+06 68454.2 0 973785 65862.8 0 943395 63248.1 0 914246 60624.8 0 886339 58004.6 0 859666 55397.2 0 834220 52810 0 809989 50248.7 0 786957 47717.8 0 765110 45220.5 0 744430 42758.9 0 724900 40334.4 0 706502 37947.7 0 689217 35598.8 0 673027 33287.3 0 657916 31012.4 0 643865 28772.8 0 630859 26567.1 0 618881 24393.5 0 607918 22250.2 0 597954 20135.1 0 588978 18045.9 0 580978 15980.2 0 573942 13935.8 0 567862 11910 0 562730 9900.23 0 558538 7903.96 0 555280 5918.51 0 552952 3941.17 0 551551 1969.24 0 551075 0 0 1.03804e+06 72791.1 0 1.00519e+06 70176 0 973564 67518.7 0 943179 64837.7 0 914036 62147.9 0 886134 59461.5 0 859468 56788.3 0 834028 54135.9 0 809803 51510.1 0 786777 48915.5 0 764936 46355.4 0 744262 43831.9 0 724738 41346.5 0 706345 38899.9 0 689065 36492 0 672881 34122.5 0 657774 31790.4 0 643728 29494.6 0 630726 27233.6 0 618752 25005.5 0 607792 22808.4 0 597832 20640.2 0 588859 18498.6 0 580861 16381.1 0 573828 14285.4 0 567750 12208.7 0 562619 10148.6 0 558428 8102.24 0 555172 6066.98 0 552845 4040.04 0 551444 2018.64 0 550969 0 0 1.0378e+06 74577.9 0 1.00496e+06 71897.6 0 973340 69174.3 0 942960 66426.9 0 913822 63670.7 0 885926 60918.1 0 859266 58179.1 0 833832 55461.4 0 809613 52771.1 0 786594 50112.9 0 764759 47489.9 0 744091 44904.6 0 724572 42358.3 0 706185 39851.7 0 688910 37384.9 0 672731 34957.4 0 657629 32568.2 0 643587 30216.3 0 630590 27899.9 0 618620 25617.3 0 607664 23366.4 0 597707 21145.2 0 588737 18951.1 0 580741 16781.9 0 573711 14634.9 0 567635 12507.4 0 562506 10396.9 0 558316 8300.46 0 555061 6215.4 0 552735 4138.87 0 551335 2068.02 0 550859 0 0 1.03757e+06 76364.5 0 1.00473e+06 73619 0 973112 70829.6 0 942737 68015.8 0 913605 65193.1 0 885714 62374.3 0 859060 59569.5 0 833633 56786.6 0 809420 54031.8 0 786407 51309.9 0 764578 48624.2 0 743916 45977 0 724403 43369.8 0 706021 40803.3 0 688752 38277.5 0 672578 35792 0 657481 33345.8 0 643444 30937.7 0 630451 28565.9 0 618485 26228.8 0 607532 23924.3 0 597579 21650 0 588612 19403.5 0 580619 17182.5 0 573591 14984.2 0 567517 12806 0 562390 10645.1 0 558202 8498.6 0 554947 6363.77 0 552622 4237.67 0 551223 2117.39 0 550747 0 0 1.03733e+06 78150.9 0 1.00449e+06 75340.1 0 972881 72484.7 0 942510 69604.4 0 913384 66715.3 0 885499 63830.2 0 858851 60959.5 0 833430 58111.4 0 809224 55292.2 0 786217 52506.5 0 764394 49758.1 0 743738 47049 0 724231 44381 0 705855 41754.6 0 688592 39169.9 0 672422 36626.4 0 657330 34123.1 0 643298 31658.8 0 630309 29231.8 0 618347 26840.2 0 607398 24481.9 0 597448 22154.6 0 588484 19855.8 0 580494 17583 0 573468 15333.5 0 567396 13104.5 0 562271 10893.2 0 558084 8696.68 0 554831 6512.09 0 552507 4336.44 0 551108 2166.74 0 550632 0 0 1.03709e+06 79937.2 0 1.00425e+06 77061 0 972646 74139.5 0 942280 71192.7 0 913159 68237.1 0 885281 65285.7 0 858639 62349.2 0 833224 59435.9 0 809024 56552.1 0 786023 53702.9 0 764207 50891.6 0 743557 48120.8 0 724056 45391.8 0 705686 42705.5 0 688427 40061.9 0 672264 37460.4 0 657176 34900.1 0 643149 32379.7 0 630164 29897.4 0 618206 27451.3 0 607261 25039.3 0 597314 22659 0 588353 20307.9 0 580366 17983.3 0 573343 15682.6 0 567273 13402.8 0 562149 11141.2 0 557964 8894.69 0 554712 6660.36 0 552388 4435.17 0 550990 2216.07 0 550515 0 0 1.03684e+06 81723.3 0 1.00401e+06 78781.7 0 972407 75794 0 942047 72780.8 0 912931 69758.6 0 885058 66740.9 0 858423 63738.6 0 833014 60760 0 808820 57811.7 0 785826 54898.8 0 764016 52024.8 0 743373 49192.1 0 723877 46402.4 0 705513 43656.2 0 688260 40953.6 0 672102 38294.2 0 657019 35676.9 0 642996 33100.3 0 630016 30562.8 0 618062 28062.3 0 607121 25596.6 0 597177 23163.3 0 588220 20759.8 0 580235 18383.5 0 573214 16031.6 0 567147 13701.1 0 562025 11389.1 0 557841 9092.62 0 554591 6808.57 0 552268 4533.86 0 550870 2265.38 0 550395 0 0 1.03659e+06 83509.2 0 1.00376e+06 80502.1 0 972165 77448.3 0 941809 74368.5 0 912699 71279.7 0 884833 68195.7 0 858203 65127.5 0 832801 62083.7 0 808614 59071 0 785626 56094.4 0 763822 53157.6 0 743185 50263.2 0 723696 47412.5 0 705337 44606.5 0 688090 41845.1 0 671937 39127.7 0 656859 36453.4 0 642841 33820.7 0 629865 31227.9 0 617915 28673 0 606978 26153.6 0 597038 23667.4 0 588083 21211.6 0 580102 18783.6 0 573084 16380.5 0 567018 13999.2 0 561898 11637 0 557716 9290.49 0 554466 6956.73 0 552144 4632.52 0 550747 2314.68 0 550272 0 0 1.03634e+06 85295 0 1.00351e+06 82222.4 0 971919 79102.3 0 941569 75955.9 0 912464 72800.5 0 884603 69650.2 0 857980 66516.2 0 832584 63407.1 0 808403 60329.9 0 785422 57289.6 0 763625 54290.1 0 742994 51333.8 0 723511 48422.4 0 705158 45556.5 0 687916 42736.2 0 671768 39960.9 0 656696 37229.6 0 642683 34540.9 0 629711 31892.9 0 617766 29283.5 0 606832 26710.5 0 596896 24171.3 0 587944 21663.2 0 579966 19183.5 0 572950 16729.2 0 566887 14297.3 0 561769 11884.7 0 557588 9488.28 0 554339 7104.84 0 552018 4731.15 0 550621 2363.96 0 550147 0 0 1.03608e+06 87080.7 0 1.00326e+06 83942.4 0 971670 80756 0 941324 77543 0 912225 74321 0 884370 71104.4 0 857754 67904.4 0 832364 64730.1 0 808190 61588.4 0 785215 58484.5 0 763424 55422.2 0 742799 52404.2 0 723322 49431.9 0 704975 46506.2 0 687740 43627 0 671597 40793.9 0 656530 38005.6 0 642521 35260.8 0 629554 32557.5 0 617613 29893.8 0 606683 27267.1 0 596751 24675 0 587802 22114.7 0 579827 19583.3 0 572813 17077.8 0 566753 14595.2 0 561636 12132.4 0 557457 9686 0 554210 7252.89 0 551889 4829.74 0 550493 2413.22 0 550018 0 0 1.03582e+06 88866.2 0 1.003e+06 85662.2 0 971417 82409.4 0 941076 79129.8 0 911983 75841.2 0 884134 72558.2 0 857523 69292.3 0 832141 66052.8 0 807973 62846.6 0 785005 59679 0 763220 56554 0 742602 53474.2 0 723131 50441.1 0 704790 47455.6 0 687560 44517.6 0 671423 41626.5 0 656361 38781.3 0 642357 35980.4 0 629395 33222 0 617458 30503.8 0 606532 27823.6 0 596603 25178.5 0 587658 22565.9 0 579685 19982.9 0 572674 17426.3 0 566616 14893.1 0 561501 12379.9 0 557324 9883.65 0 554078 7400.89 0 551758 4928.29 0 550362 2462.46 0 549888 0 0 1.03556e+06 90651.6 0 1.00274e+06 87381.8 0 971161 84062.6 0 940825 80716.2 0 911737 77361 0 883894 74011.6 0 857290 70679.8 0 831913 67375 0 807752 64104.3 0 784791 60873.2 0 763013 57685.4 0 742401 54543.8 0 722936 51450 0 704601 48404.6 0 687377 45407.8 0 671245 42458.9 0 656189 39556.7 0 642190 36699.8 0 629232 33886.2 0 617300 31113.7 0 606378 28379.8 0 596452 25681.9 0 587510 23017.1 0 579541 20382.4 0 572532 17774.7 0 566476 15190.8 0 561363 12627.4 0 557188 10081.2 0 553943 7548.83 0 551624 5026.8 0 550229 2511.68 0 549754 0 0 1.03529e+06 92436.9 0 1.00248e+06 89101.2 0 970901 85715.6 0 940569 82302.4 0 911487 78880.5 0 883650 75464.7 0 857053 72067 0 831683 68696.9 0 807528 65361.7 0 784573 62066.9 0 762802 58816.5 0 742196 55613.1 0 722738 52458.5 0 704409 49353.3 0 687191 46297.7 0 671065 43290.9 0 656014 40331.8 0 642020 37418.9 0 629067 34550.1 0 617138 31723.3 0 606220 28935.8 0 596299 26185 0 587360 23468 0 579393 20781.7 0 572388 18122.9 0 566334 15488.4 0 561223 12874.8 0 557049 10278.7 0 553805 7696.72 0 551487 5125.28 0 550092 2560.89 0 549618 0 0 1.03502e+06 94222 0 1.00221e+06 90820.4 0 970637 87368.2 0 940311 83888.3 0 911234 80399.6 0 883403 76917.4 0 856812 73453.8 0 831449 70018.4 0 807301 66618.8 0 784353 63260.3 0 762588 59947.2 0 741989 56682 0 722537 53466.6 0 704214 50301.7 0 687002 47187.3 0 670881 44122.6 0 655835 41106.7 0 641846 38137.7 0 628898 35213.8 0 616974 32332.7 0 606060 29491.7 0 596142 26688 0 587207 23918.8 0 579243 21180.9 0 572240 18471 0 566189 15785.9 0 561080 13122.1 0 556907 10476.1 0 553665 7844.55 0 551348 5223.72 0 549954 2610.07 0 549480 0 0 1.03475e+06 96007 0 1.00194e+06 92539.4 0 970370 89020.6 0 940048 85473.9 0 910977 81918.4 0 883153 78369.7 0 856568 74840.2 0 831211 71339.6 0 807070 67875.4 0 784129 64453.3 0 762370 61077.5 0 741778 57750.6 0 722332 54474.5 0 704016 51249.8 0 686809 48076.5 0 670695 44954.1 0 655654 41881.2 0 641670 38856.3 0 628727 35877.3 0 616807 32941.8 0 605897 30047.3 0 595983 27190.8 0 587051 24369.4 0 579091 21579.9 0 572090 18819 0 566041 16083.2 0 560934 13369.3 0 556763 10673.5 0 553522 7992.32 0 551206 5322.12 0 549812 2659.24 0 549339 0 0 1.03447e+06 97791.9 0 1.00166e+06 94258.2 0 970099 90672.8 0 939782 87059.1 0 910717 83436.9 0 882898 79821.7 0 856320 76226.2 0 830970 72660.3 0 806836 69131.7 0 783901 65646 0 762150 62207.4 0 741564 58818.8 0 722125 55481.9 0 703814 52197.5 0 686614 48965.5 0 670505 45785.2 0 655470 42655.5 0 641491 39574.6 0 628552 36540.5 0 616637 33550.8 0 605731 30602.7 0 595821 27693.4 0 586893 24819.8 0 578935 21978.7 0 571938 19166.8 0 565890 16380.5 0 560786 13616.4 0 556616 10870.8 0 553376 8140.03 0 551061 5420.48 0 549668 2708.39 0 549195 0 0 1.03419e+06 99576.7 0 1.00139e+06 95976.7 0 969824 92324.7 0 939513 88644.1 0 910453 84955 0 882641 81273.3 0 856068 77611.9 0 830725 73980.7 0 806598 70387.5 0 783670 66838.2 0 761926 63337 0 741346 59886.7 0 721914 56489 0 703610 53144.8 0 686415 49854.1 0 670312 46616.1 0 655282 43429.5 0 641309 40292.7 0 628375 37203.5 0 616464 34159.4 0 605563 31157.9 0 595656 28195.8 0 586731 25270.1 0 578777 22377.4 0 571782 19514.5 0 565737 16677.6 0 560635 13863.4 0 556467 11068 0 553228 8287.69 0 550914 5518.81 0 549521 2757.51 0 549048 0 0 1.0339e+06 101361 0 1.0011e+06 97695.1 0 969546 93976.3 0 939240 90228.7 0 910185 86472.8 0 882379 82724.6 0 855814 78997.2 0 830477 75300.7 0 806357 71643 0 783436 68030.1 0 761698 64466.2 0 741125 60954.1 0 721700 57495.8 0 703402 54091.9 0 686213 50742.4 0 670116 47446.6 0 655092 44203.2 0 641124 41010.4 0 628194 37866.2 0 616289 34767.9 0 605391 31712.8 0 595488 28698 0 586567 25720.1 0 578616 22776 0 571624 19862 0 565581 16974.7 0 560481 14110.3 0 556314 11265.1 0 553077 8435.28 0 550764 5617.09 0 549372 2806.62 0 548899 0 0 1.03362e+06 103146 0 1.00082e+06 99413.2 0 969265 95627.6 0 938963 91813 0 909914 87990.2 0 882114 84175.5 0 855555 80382.1 0 830226 76620.3 0 806112 72898.1 0 783198 69221.6 0 761467 65595 0 740901 62021.2 0 721482 58502.2 0 703191 55038.6 0 686009 51630.3 0 669917 48276.8 0 654899 44976.6 0 640935 41727.9 0 628011 38528.6 0 616110 35376.1 0 605217 32267.6 0 595318 29200 0 586400 26170 0 578452 23174.4 0 571463 20209.4 0 565423 17271.6 0 560324 14357.1 0 556160 11462.1 0 552924 8582.82 0 550611 5715.33 0 549220 2855.71 0 548747 0 0 1.03332e+06 104931 0 1.00053e+06 101131 0 968979 97278.7 0 938683 93397.1 0 909639 89507.3 0 881846 85626.1 0 855293 81766.6 0 829971 77939.5 0 805864 74152.8 0 782957 70412.7 0 761233 66723.4 0 740674 63088 0 721261 59508.2 0 702977 55984.9 0 685801 52518 0 669715 49106.7 0 654702 45749.7 0 640744 42445.1 0 627825 39190.8 0 615928 35984.1 0 605040 32822.1 0 595144 29701.8 0 586230 26619.7 0 578285 23572.6 0 571299 20556.7 0 565261 17568.4 0 560165 14603.8 0 556002 11659 0 552767 8730.3 0 550456 5813.54 0 549065 2904.78 0 548592 0 0 1.03303e+06 106715 0 1.00024e+06 102849 0 968691 98929.6 0 938399 94980.8 0 909361 91024.1 0 881574 87076.2 0 855028 83150.8 0 829712 79258.3 0 805612 75407.2 0 782712 71603.4 0 760996 67851.4 0 740443 64154.3 0 721038 60513.9 0 702759 56930.9 0 685589 53405.3 0 669510 49936.3 0 654503 46522.5 0 640550 43162.1 0 627636 39852.7 0 615744 36591.8 0 604859 33376.4 0 594968 30203.3 0 586058 27069.3 0 578116 23970.7 0 571132 20903.8 0 565097 17865 0 560003 14850.4 0 555842 11855.9 0 552608 8877.71 0 550298 5911.7 0 548908 2953.82 0 548435 0 0 1.03273e+06 108500 0 999941 104566 0 968398 100580 0 938111 96564.2 0 909079 92540.5 0 881298 88526 0 854759 84534.5 0 829450 80576.8 0 805357 76661.1 0 782465 72793.7 0 760755 68979.1 0 740210 65220.3 0 720810 61519.2 0 702538 57876.5 0 685375 54292.2 0 669302 50765.5 0 654300 47295 0 640353 43878.7 0 627444 40514.4 0 615557 37199.3 0 604676 33930.5 0 594789 30704.7 0 585882 27518.6 0 577944 24368.6 0 570963 21250.8 0 564931 18161.6 0 559838 15096.9 0 555679 12052.7 0 552447 9025.07 0 550137 6009.82 0 548748 3002.85 0 548275 0 0 1.03243e+06 110284 0 999641 106284 0 968102 102230 0 937820 98147.3 0 908794 94056.6 0 881019 89975.4 0 854486 85917.9 0 829184 81894.8 0 805099 77914.6 0 782213 73983.6 0 760511 70106.3 0 739972 66285.9 0 720580 62524.1 0 702315 58821.8 0 685158 55178.8 0 669090 51594.4 0 654095 48067.1 0 640153 44595 0 627249 41175.7 0 615366 37806.5 0 604491 34484.3 0 594607 31205.9 0 585704 27967.8 0 577769 24766.3 0 570791 21597.7 0 564761 18458 0 559671 15343.2 0 555513 12249.4 0 552283 9172.36 0 549974 6107.91 0 548585 3051.86 0 548113 0 0 1.03212e+06 112068 0 999337 108001 0 967802 103881 0 937525 99730 0 908505 95572.3 0 880736 91424.5 0 854210 87300.9 0 828915 83212.4 0 804837 79167.7 0 781959 75173.1 0 760263 71233.2 0 739732 67351.1 0 720346 63528.6 0 702088 59766.7 0 684937 56065.1 0 668876 52423 0 653886 48839 0 639950 45311.1 0 627051 41836.9 0 615173 38413.5 0 604302 35037.9 0 594423 31706.9 0 585523 28416.7 0 577591 25163.9 0 570616 21944.3 0 564589 18754.3 0 559501 15589.5 0 555345 12446 0 552116 9319.59 0 549808 6205.94 0 548420 3100.84 0 547948 0 0 </DataArray> 
</PointData> 
<Points> 
<DataArray type="Float32" NumberOfComponents="3"> 