<?xml version="1.0"?> 
<VTKFile type="StructuredGrid" version="0.1"> 
<StructuredGrid WholeExtent="0 31 0 31 0 0"> 
<Piece Extent="0 31 0 31 0 0"> 
<PointData>
<DataArray type="Float32" Name="|E|" format="ascii" NumberOfComponents="3"> 
1.20512e+06 -122971 0 1.33554e+06 -96240.3 0 1.41245e+06 -121564 0 1.49505e+06 -116072 0 1.56315e+06 -103780 0 1.62133e+06 -86372 0 1.66703e+06 -67801.3 0 1.7013e+06 -49128.8 0 1.72432e+06 -31216.6 0 1.73694e+06 -14531.4 0 1.74004e+06 643.614 0 1.73463e+06 14143 0 1.72177e+06 25912.3 0 1.7025e+06 35968.1 0 1.67784e+06 44387.7 0 1.64875e+06 51285.3 0 1.61607e+06 56799.1 0 1.5806e+06 61077.5 0 1.54301e+06 64269.7 0 1.50389e+06 66519.6 0 1.46375e+06 67961.1 0 1.42304e+06 68716.2 0 1.3821e+06 68893.7 0 1.34125e+06 68589.6 0 1.30075e+06 67887.4 0 1.26079e+06 66859 0 1.22155e+06 65566 0 1.18316e+06 64060.7 0 1.14573e+06 62387.5 0 1.10935e+06 60583.4 0 1.07408e+06 58680 0 1.03997e+06 56701.7 0 1.21235e+06 -123709 0 1.33269e+06 -102302 0 1.41328e+06 -125764 0 1.49575e+06 -120142 0 1.56443e+06 -107082 0 1.62255e+06 -89068.3 0 1.66827e+06 -69850.1 0 1.70243e+06 -50567.1 0 1.72535e+06 -32080.7 0 1.73785e+06 -14866.3 0 1.74082e+06 783.894 0 1.73528e+06 14703 0 1.72229e+06 26834.7 0 1.7029e+06 37197.6 0 1.67814e+06 45872 0 1.64895e+06 52976.5 0 1.6162e+06 58654 0 1.58066e+06 63057.8 0 1.543e+06 66342.1 0 1.50384e+06 68655.2 0 1.46366e+06 70135.5 0 1.42291e+06 70908.5 0 1.38195e+06 71086.7 0 1.34109e+06 70768.8 0 1.30056e+06 70040.9 0 1.2606e+06 68977.1 0 1.22135e+06 67640.8 0 1.18296e+06 66086.1 0 1.14553e+06 64358.4 0 1.10915e+06 62496.1 0 1.07388e+06 60531.6 0 1.03977e+06 58490.3 0 1.2185e+06 -124336 0 1.33019e+06 -108209 0 1.41403e+06 -130077 0 1.49653e+06 -124213 0 1.56573e+06 -110396 0 1.62381e+06 -91760.3 0 1.66953e+06 -71892.8 0 1.7036e+06 -51997.5 0 1.72641e+06 -32935.7 0 1.73878e+06 -15191.9 0 1.74161e+06 933.355 0 1.73594e+06 15271.7 0 1.72283e+06 27765.1 0 1.70332e+06 38434.4 0 1.67846e+06 47362.8 0 1.64917e+06 54673.4 0 1.61633e+06 60513.7 0 1.58072e+06 65042.1 0 1.54301e+06 68417.8 0 1.50379e+06 70793.6 0 1.46357e+06 72312 0 1.42279e+06 73102.6 0 1.3818e+06 73281 0 1.34092e+06 72949 0 1.30038e+06 72195.1 0 1.2604e+06 71095.7 0 1.22115e+06 69716 0 1.18275e+06 68111.6 0 1.14532e+06 66329.4 0 1.10894e+06 64408.8 0 1.07367e+06 62383 0 1.03956e+06 60278.6 0 1.22365e+06 -124863 0 1.32797e+06 -113988 0 1.41471e+06 -134494 0 1.4974e+06 -128289 0 1.56705e+06 -113720 0 1.62512e+06 -94448.2 0 1.67083e+06 -73929.2 0 1.7048e+06 -53419.7 0 1.72749e+06 -33781.4 0 1.73973e+06 -15508.3 0 1.74244e+06 1092.15 0 1.73663e+06 15849.2 0 1.72338e+06 28703.7 0 1.70376e+06 39678.7 0 1.67878e+06 48860.3 0 1.6494e+06 56376 0 1.61647e+06 62378.4 0 1.58078e+06 67030.7 0 1.54301e+06 70497 0 1.50374e+06 72934.8 0 1.46348e+06 74490.9 0 1.42267e+06 75298.5 0 1.38165e+06 75476.7 0 1.34075e+06 75130.2 0 1.30019e+06 74350.1 0 1.2602e+06 73214.8 0 1.22094e+06 71791.5 0 1.18254e+06 70137.3 0 1.14511e+06 68300.5 0 1.10872e+06 66321.4 0 1.07346e+06 64234.3 0 1.03936e+06 62066.7 0 1.2279e+06 -125296 0 1.32599e+06 -119667 0 1.41535e+06 -139008 0 1.49833e+06 -132372 0 1.56839e+06 -117052 0 1.62646e+06 -97132 0 1.67216e+06 -75959.4 0 1.70603e+06 -54833.5 0 1.72861e+06 -34617.9 0 1.74072e+06 -15815.1 0 1.74328e+06 1260.42 0 1.73734e+06 16435.7 0 1.72396e+06 29650.7 0 1.70421e+06 40930.5 0 1.67912e+06 50364.4 0 1.64963e+06 58084.5 0 1.61662e+06 64248.1 0 1.58086e+06 69023.5 0 1.54302e+06 72579.7 0 1.5037e+06 75078.9 0 1.4634e+06 76672.1 0 1.42254e+06 77496.3 0 1.3815e+06 77673.9 0 1.34057e+06 77312.6 0 1.30001e+06 76505.9 0 1.26e+06 75334.5 0 1.22073e+06 73867.4 0 1.18233e+06 72163.3 0 1.14489e+06 70271.6 0 1.10851e+06 68234 0 1.07324e+06 66085.5 0 1.03914e+06 63854.6 0 1.2313e+06 -125642 0 1.32419e+06 -125272 0 1.41598e+06 -143613 0 1.49932e+06 -136464 0 1.56975e+06 -120393 0 1.62785e+06 -99811.7 0 1.67352e+06 -77983.1 0 1.70729e+06 -56238.9 0 1.72976e+06 -35444.8 0 1.74173e+06 -16112.2 0 1.74415e+06 1438.34 0 1.73806e+06 17031.4 0 1.72455e+06 30606.3 0 1.70467e+06 42190.1 0 1.67947e+06 51875.5 0 1.64988e+06 59799 0 1.61678e+06 66122.9 0 1.58094e+06 71020.6 0 1.54303e+06 74666.1 0 1.50366e+06 77226 0 1.46331e+06 78855.7 0 1.42242e+06 79696 0 1.38135e+06 79872.6 0 1.3404e+06 79496.1 0 1.29982e+06 78662.5 0 1.2598e+06 77454.8 0 1.22052e+06 75943.7 0 1.18211e+06 74189.4 0 1.14467e+06 72242.8 0 1.10829e+06 70146.5 0 1.07303e+06 67936.6 0 1.03893e+06 65642.3 0 1.2339e+06 -125908 0 1.32253e+06 -130826 0 1.41659e+06 -148303 0 1.50038e+06 -140567 0 1.57115e+06 -123741 0 1.62928e+06 -102487 0 1.67491e+06 -80000.3 0 1.70859e+06 -57635.6 0 1.73093e+06 -36262.1 0 1.74276e+06 -16399.4 0 1.74504e+06 1626.05 0 1.73881e+06 17636.5 0 1.72515e+06 31570.6 0 1.70515e+06 43457.5 0 1.67983e+06 53393.6 0 1.65013e+06 61519.6 0 1.61694e+06 68003 0 1.58102e+06 73022.2 0 1.54305e+06 76756.1 0 1.50362e+06 79376.2 0 1.46322e+06 81041.8 0 1.4223e+06 81897.6 0 1.3812e+06 82072.8 0 1.34023e+06 81680.7 0 1.29963e+06 80820 0 1.2596e+06 79575.7 0 1.22031e+06 78020.4 0 1.18189e+06 76215.8 0 1.14445e+06 74214 0 1.10807e+06 72059 0 1.07281e+06 69787.6 0 1.03871e+06 67429.7 0 1.23575e+06 -126097 0 1.32099e+06 -136355 0 1.41722e+06 -153074 0 1.50148e+06 -144681 0 1.57258e+06 -127096 0 1.63074e+06 -105159 0 1.67634e+06 -82010.8 0 1.70992e+06 -59023.5 0 1.73214e+06 -37069.8 0 1.74383e+06 -16676.6 0 1.74595e+06 1823.72 0 1.73958e+06 18251 0 1.72578e+06 32543.7 0 1.70564e+06 44733 0 1.6802e+06 54918.8 0 1.6504e+06 63246.5 0 1.61711e+06 69888.5 0 1.58111e+06 75028.3 0 1.54307e+06 78849.9 0 1.50358e+06 81529.4 0 1.46314e+06 83230.4 0 1.42218e+06 84101.3 0 1.38105e+06 84274.6 0 1.34005e+06 83866.6 0 1.29943e+06 82978.4 0 1.25939e+06 81697.2 0 1.22009e+06 80097.4 0 1.18167e+06 78242.4 0 1.14423e+06 76185.4 0 1.10784e+06 73971.5 0 1.07258e+06 71638.4 0 1.03849e+06 69217 0 1.23689e+06 -126213 0 1.31953e+06 -141882 0 1.41786e+06 -157923 0 1.50265e+06 -148808 0 1.57405e+06 -130457 0 1.63224e+06 -107827 0 1.67779e+06 -84014.4 0 1.71128e+06 -60402.5 0 1.73337e+06 -37867.5 0 1.74492e+06 -16943.6 0 1.74689e+06 2031.52 0 1.74036e+06 18875.2 0 1.72642e+06 33525.8 0 1.70615e+06 46016.7 0 1.68058e+06 56451.3 0 1.65067e+06 64979.7 0 1.61729e+06 71779.4 0 1.5812e+06 77039.1 0 1.54309e+06 80947.6 0 1.50355e+06 83685.8 0 1.46306e+06 85421.5 0 1.42206e+06 86307 0 1.3809e+06 86478 0 1.33988e+06 86053.7 0 1.29924e+06 85137.7 0 1.25918e+06 83819.4 0 1.21988e+06 82174.9 0 1.18145e+06 80269.2 0 1.144e+06 78156.9 0 1.10762e+06 75884 0 1.07236e+06 73489.2 0 1.03826e+06 71004.1 0 1.23733e+06 -126258 0 1.31812e+06 -147431 0 1.41854e+06 -162844 0 1.50386e+06 -152949 0 1.57556e+06 -133824 0 1.63378e+06 -110490 0 1.67929e+06 -86011.1 0 1.71267e+06 -61772.4 0 1.73463e+06 -38655.2 0 1.74603e+06 -17200.3 0 1.74785e+06 2249.61 0 1.74117e+06 19509.3 0 1.72708e+06 34517 0 1.70667e+06 47308.7 0 1.68098e+06 57991.2 0 1.65095e+06 66719.4 0 1.61747e+06 73675.8 0 1.5813e+06 79054.5 0 1.54312e+06 83049.3 0 1.50351e+06 85845.5 0 1.46298e+06 87615.3 0 1.42194e+06 88514.8 0 1.38074e+06 88683 0 1.3397e+06 88242 0 1.29904e+06 87297.9 0 1.25897e+06 85942.2 0 1.21966e+06 84252.9 0 1.18122e+06 82296.3 0 1.14377e+06 80128.5 0 1.10739e+06 77796.5 0 1.07212e+06 75339.8 0 1.03804e+06 72791.1 0 1.23709e+06 -126233 0 1.31677e+06 -153025 0 1.41927e+06 -167836 0 1.50512e+06 -157103 0 1.5771e+06 -137196 0 1.63536e+06 -113149 0 1.68082e+06 -88000.6 0 1.71409e+06 -63133.1 0 1.73592e+06 -39432.7 0 1.74717e+06 -17446.3 0 1.74884e+06 2478.15 0 1.742e+06 20153.4 0 1.72776e+06 35517.6 0 1.70721e+06 48609.1 0 1.68138e+06 59538.6 0 1.65124e+06 68465.7 0 1.61766e+06 75578 0 1.58141e+06 81074.8 0 1.54315e+06 85154.9 0 1.50348e+06 88008.5 0 1.4629e+06 89811.8 0 1.42181e+06 90724.8 0 1.38059e+06 90889.7 0 1.33952e+06 90431.6 0 1.29884e+06 89459.1 0 1.25876e+06 88065.7 0 1.21943e+06 86331.3 0 1.18099e+06 84323.7 0 1.14354e+06 82100.2 0 1.10715e+06 79709 0 1.07189e+06 77190.4 0 1.0378e+06 74577.8 0 1.23617e+06 -126140 0 1.31545e+06 -158688 0 1.42004e+06 -172894 0 1.50643e+06 -161271 0 1.57868e+06 -140572 0 1.63697e+06 -115804 0 1.68238e+06 -89982.8 0 1.71555e+06 -64484.5 0 1.73724e+06 -40199.9 0 1.74834e+06 -17681.7 0 1.74985e+06 2717.32 0 1.74285e+06 20807.6 0 1.72845e+06 36527.7 0 1.70775e+06 49918.2 0 1.6818e+06 61093.7 0 1.65155e+06 70218.7 0 1.61786e+06 77485.9 0 1.58152e+06 83099.9 0 1.54319e+06 87264.6 0 1.50346e+06 90174.8 0 1.46282e+06 92011 0 1.42169e+06 92936.9 0 1.38044e+06 93098.1 0 1.33934e+06 92622.6 0 1.29864e+06 91621.3 0 1.25854e+06 90190 0 1.21921e+06 88410.2 0 1.18076e+06 86351.4 0 1.1433e+06 84072.1 0 1.10691e+06 81621.5 0 1.07165e+06 79040.9 0 1.03757e+06 76364.4 0 1.23457e+06 -125977 0 1.31416e+06 -164445 0 1.42087e+06 -178016 0 1.50778e+06 -165454 0 1.58031e+06 -143953 0 1.63862e+06 -118455 0 1.68398e+06 -91957.6 0 1.71704e+06 -65826.3 0 1.73859e+06 -40956.5 0 1.74954e+06 -17906.2 0 1.75088e+06 2967.29 0 1.74371e+06 21472.2 0 1.72916e+06 37547.4 0 1.70832e+06 51236 0 1.68223e+06 62656.6 0 1.65185e+06 71978.5 0 1.61807e+06 79399.7 0 1.58163e+06 85130.1 0 1.54323e+06 89378.5 0 1.50343e+06 92344.5 0 1.46274e+06 94213 0 1.42157e+06 95151.2 0 1.38028e+06 95308.3 0 1.33916e+06 94814.9 0 1.29844e+06 93784.5 0 1.25833e+06 92314.9 0 1.21898e+06 90489.6 0 1.18052e+06 88379.4 0 1.14306e+06 86044.1 0 1.10667e+06 83534 0 1.07141e+06 80891.3 0 1.03733e+06 78150.8 0 1.23229e+06 -125744 0 1.3129e+06 -170321 0 1.42176e+06 -183198 0 1.50918e+06 -169652 0 1.58198e+06 -147336 0 1.64031e+06 -121100 0 1.68561e+06 -93924.7 0 1.71856e+06 -67158.5 0 1.73997e+06 -41702.5 0 1.75076e+06 -18119.7 0 1.75193e+06 3228.23 0 1.7446e+06 22147.3 0 1.72989e+06 38576.9 0 1.7089e+06 52562.8 0 1.68267e+06 64227.4 0 1.65217e+06 73745.2 0 1.61828e+06 81319.4 0 1.58175e+06 87165.2 0 1.54327e+06 91496.6 0 1.50341e+06 94517.8 0 1.46266e+06 96417.8 0 1.42145e+06 97367.9 0 1.38012e+06 97520.2 0 1.33897e+06 97008.5 0 1.29823e+06 95948.7 0 1.25811e+06 94440.6 0 1.21875e+06 92569.5 0 1.18029e+06 90407.6 0 1.14282e+06 88016.2 0 1.10643e+06 85446.6 0 1.07117e+06 82741.6 0 1.03709e+06 79937.1 0 1.22931e+06 -125440 0 1.31167e+06 -176341 0 1.42272e+06 -188437 0 1.51063e+06 -173866 0 1.58369e+06 -150723 0 1.64203e+06 -123741 0 1.68728e+06 -95884.1 0 1.72011e+06 -68480.8 0 1.74138e+06 -42437.7 0 1.752e+06 -18321.9 0 1.75301e+06 3500.32 0 1.74551e+06 22833.1 0 1.73063e+06 39616.4 0 1.70949e+06 53898.5 0 1.68312e+06 65806.4 0 1.6525e+06 75519 0 1.6185e+06 83245.3 0 1.58188e+06 89205.6 0 1.54331e+06 93619 0 1.50339e+06 96694.6 0 1.46259e+06 98625.5 0 1.42133e+06 99586.8 0 1.37997e+06 99734 0 1.33879e+06 99203.6 0 1.29803e+06 98114 0 1.25788e+06 96567.1 0 1.21851e+06 94649.9 0 1.18004e+06 92436.3 0 1.14257e+06 89988.5 0 1.10618e+06 87359.1 0 1.07092e+06 84591.9 0 1.03684e+06 81723.2 0 1.2256e+06 -125061 0 1.31047e+06 -182533 0 1.42376e+06 -193726 0 1.51213e+06 -178095 0 1.58544e+06 -154112 0 1.64379e+06 -126378 0 1.68898e+06 -97835.4 0 1.7217e+06 -69793.2 0 1.74282e+06 -43161.9 0 1.75328e+06 -18512.7 0 1.75411e+06 3783.73 0 1.74644e+06 23529.7 0 1.73139e+06 40666 0 1.71009e+06 55243.5 0 1.68358e+06 67393.5 0 1.65284e+06 77300 0 1.61872e+06 85177.3 0 1.58201e+06 91251.1 0 1.54336e+06 95745.8 0 1.50337e+06 98875 0 1.46251e+06 100836 0 1.42121e+06 101808 0 1.37981e+06 101950 0 1.3386e+06 101400 0 1.29782e+06 100280 0 1.25766e+06 98694.4 0 1.21828e+06 96730.9 0 1.1798e+06 94465.2 0 1.14232e+06 91961 0 1.10593e+06 89271.8 0 1.07067e+06 86442.1 0 1.03659e+06 83509.2 0 1.22113e+06 -124605 0 1.30932e+06 -188926 0 1.42487e+06 -199063 0 1.51367e+06 -182340 0 1.58725e+06 -157501 0 1.64559e+06 -129009 0 1.69072e+06 -99778.6 0 1.72332e+06 -71095.5 0 1.74429e+06 -43875 0 1.75458e+06 -18691.9 0 1.75523e+06 4078.63 0 1.74738e+06 24237.4 0 1.73217e+06 41725.8 0 1.71071e+06 56597.9 0 1.68406e+06 68988.9 0 1.65318e+06 79088.3 0 1.61895e+06 87115.5 0 1.58214e+06 93302 0 1.54341e+06 97877.1 0 1.50335e+06 101059 0 1.46244e+06 103050 0 1.42109e+06 104032 0 1.37965e+06 104167 0 1.33841e+06 103598 0 1.29761e+06 102448 0 1.25743e+06 100822 0 1.21804e+06 98812.4 0 1.17955e+06 96494.5 0 1.14207e+06 93933.7 0 1.10567e+06 91184.4 0 1.07041e+06 88292.2 0 1.03634e+06 85295 0 1.21585e+06 -124066 0 1.30825e+06 -195548 0 1.42605e+06 -204440 0 1.51526e+06 -186602 0 1.58909e+06 -160892 0 1.64743e+06 -131636 0 1.6925e+06 -101713 0 1.72497e+06 -72387.6 0 1.74579e+06 -44576.6 0 1.7559e+06 -18859.5 0 1.75638e+06 4385.21 0 1.74835e+06 24956.2 0 1.73296e+06 42796.1 0 1.71134e+06 57961.7 0 1.68454e+06 70592.8 0 1.65353e+06 80883.9 0 1.61919e+06 89060.2 0 1.58228e+06 95358.3 0 1.54347e+06 100013 0 1.50333e+06 103247 0 1.46236e+06 105267 0 1.42097e+06 106258 0 1.37949e+06 106387 0 1.33822e+06 105798 0 1.2974e+06 104616 0 1.2572e+06 102951 0 1.2178e+06 100894 0 1.1793e+06 98524.2 0 1.14182e+06 95906.6 0 1.10542e+06 93097.1 0 1.07016e+06 90142.3 0 1.03608e+06 87080.6 0 1.20971e+06 -123440 0 1.30726e+06 -202431 0 1.42731e+06 -209850 0 1.5169e+06 -190882 0 1.59099e+06 -164281 0 1.6493e+06 -134257 0 1.69431e+06 -103640 0 1.72665e+06 -73669.2 0 1.74732e+06 -45266.8 0 1.75726e+06 -19015.1 0 1.75755e+06 4703.64 0 1.74934e+06 25686.4 0 1.73377e+06 43877 0 1.71199e+06 59335.2 0 1.68504e+06 72205.3 0 1.6539e+06 82687.1 0 1.61943e+06 91011.3 0 1.58242e+06 97420.1 0 1.54353e+06 102153 0 1.50332e+06 105439 0 1.46229e+06 107486 0 1.42085e+06 108487 0 1.37933e+06 108608 0 1.33803e+06 107999 0 1.29718e+06 106786 0 1.25697e+06 105081 0 1.21755e+06 102977 0 1.17905e+06 100554 0 1.14156e+06 97879.6 0 1.10515e+06 95009.9 0 1.0699e+06 91992.3 0 1.03582e+06 88866.2 0 1.20265e+06 -122720 0 1.3064e+06 -209611 0 1.42865e+06 -215286 0 1.5186e+06 -195181 0 1.59293e+06 -167669 0 1.65121e+06 -136873 0 1.69616e+06 -105557 0 1.72837e+06 -74940.2 0 1.74887e+06 -45945.3 0 1.75863e+06 -19158.6 0 1.75874e+06 5034.11 0 1.75034e+06 26428.2 0 1.7346e+06 44968.7 0 1.71265e+06 60718.5 0 1.68554e+06 73826.5 0 1.65427e+06 84497.9 0 1.61969e+06 92969 0 1.58257e+06 99487.5 0 1.54359e+06 104298 0 1.50331e+06 107634 0 1.46222e+06 109709 0 1.42072e+06 110718 0 1.37917e+06 110832 0 1.33784e+06 110201 0 1.29697e+06 108957 0 1.25674e+06 107212 0 1.2173e+06 105060 0 1.17879e+06 102585 0 1.1413e+06 99852.9 0 1.10489e+06 96922.7 0 1.06963e+06 93842.2 0 1.03556e+06 90651.6 0 1.19459e+06 -121897 0 1.3057e+06 -217122 0 1.43005e+06 -220736 0 1.52035e+06 -199501 0 1.59491e+06 -171054 0 1.65316e+06 -139485 0 1.69804e+06 -107465 0 1.73011e+06 -76200.6 0 1.75046e+06 -46611.9 0 1.76004e+06 -19289.8 0 1.75996e+06 5376.8 0 1.75137e+06 27181.6 0 1.73544e+06 46071.3 0 1.71332e+06 62111.7 0 1.68606e+06 75456.6 0 1.65465e+06 86316.5 0 1.61994e+06 94933.4 0 1.58272e+06 101561 0 1.54365e+06 106448 0 1.5033e+06 109833 0 1.46214e+06 111935 0 1.4206e+06 112952 0 1.37901e+06 113057 0 1.33765e+06 112405 0 1.29675e+06 111129 0 1.2565e+06 109343 0 1.21705e+06 107144 0 1.17853e+06 104615 0 1.14103e+06 101826 0 1.10462e+06 98835.6 0 1.06936e+06 95692.1 0 1.03529e+06 92436.8 0 1.18544e+06 -120964 0 1.30521e+06 -225005 0 1.43152e+06 -226188 0 1.52216e+06 -203844 0 1.59694e+06 -174434 0 1.65515e+06 -142091 0 1.69996e+06 -109364 0 1.73189e+06 -77450.1 0 1.75208e+06 -47266.5 0 1.76147e+06 -19408.5 0 1.7612e+06 5731.88 0 1.75241e+06 27947 0 1.7363e+06 47185 0 1.71401e+06 63515 0 1.68659e+06 77095.7 0 1.65503e+06 88143 0 1.62021e+06 96904.6 0 1.58288e+06 103639 0 1.54372e+06 108603 0 1.50329e+06 112037 0 1.46207e+06 114165 0 1.42048e+06 115188 0 1.37885e+06 115285 0 1.33745e+06 114611 0 1.29653e+06 113303 0 1.25626e+06 111475 0 1.2168e+06 109229 0 1.17827e+06 106647 0 1.14076e+06 103800 0 1.10435e+06 100749 0 1.06909e+06 97542 0 1.03502e+06 94222 0 1.1751e+06 -119908 0 1.30499e+06 -233302 0 1.43304e+06 -231629 0 1.52404e+06 -208213 0 1.59902e+06 -177807 0 1.65718e+06 -144693 0 1.70192e+06 -111253 0 1.73371e+06 -78688.6 0 1.75373e+06 -47908.8 0 1.76293e+06 -19514.7 0 1.76246e+06 6099.55 0 1.75348e+06 28724.4 0 1.73718e+06 48309.9 0 1.7147e+06 64928.6 0 1.68713e+06 78743.9 0 1.65543e+06 89977.4 0 1.62048e+06 98882.6 0 1.58304e+06 105724 0 1.54379e+06 110762 0 1.50328e+06 114244 0 1.462e+06 116398 0 1.42036e+06 117427 0 1.37868e+06 117514 0 1.33726e+06 116818 0 1.29631e+06 115477 0 1.25602e+06 113609 0 1.21655e+06 111314 0 1.17801e+06 108678 0 1.14049e+06 105774 0 1.10408e+06 102662 0 1.06882e+06 99391.8 0 1.03475e+06 96007 0 1.16344e+06 -118719 0 1.3051e+06 -242058 0 1.43459e+06 -237041 0 1.526e+06 -212613 0 1.60113e+06 -181172 0 1.65925e+06 -147291 0 1.70391e+06 -113132 0 1.73555e+06 -79916 0 1.7554e+06 -48538.7 0 1.76441e+06 -19607.9 0 1.76374e+06 6479.97 0 1.75456e+06 29514.1 0 1.73807e+06 49446.3 0 1.71542e+06 66352.5 0 1.68768e+06 80401.3 0 1.65583e+06 91819.9 0 1.62075e+06 100868 0 1.58321e+06 107815 0 1.54386e+06 112927 0 1.50328e+06 116456 0 1.46193e+06 118634 0 1.42024e+06 119669 0 1.37852e+06 119746 0 1.33706e+06 119028 0 1.29608e+06 117653 0 1.25578e+06 115743 0 1.21629e+06 113400 0 1.17774e+06 110710 0 1.14022e+06 107748 0 1.1038e+06 104575 0 1.06854e+06 101242 0 1.03447e+06 97791.9 0 1.15033e+06 -117380 0 1.30564e+06 -251324 0 1.43616e+06 -242406 0 1.52804e+06 -217047 0 1.60328e+06 -184525 0 1.66136e+06 -149885 0 1.70594e+06 -115001 0 1.73743e+06 -81132.1 0 1.75711e+06 -49156 0 1.76592e+06 -19688.2 0 1.76505e+06 6873.33 0 1.75567e+06 30316.1 0 1.73898e+06 50594.2 0 1.71614e+06 67786.9 0 1.68824e+06 82068.2 0 1.65624e+06 93670.7 0 1.62104e+06 102860 0 1.58338e+06 109911 0 1.54394e+06 115096 0 1.50327e+06 118672 0 1.46186e+06 120873 0 1.42011e+06 121913 0 1.37835e+06 121980 0 1.33686e+06 121238 0 1.29586e+06 119830 0 1.25553e+06 117878 0 1.21603e+06 115486 0 1.17747e+06 112743 0 1.13994e+06 109723 0 1.10352e+06 106488 0 1.06825e+06 103091 0 1.03419e+06 99576.7 0 1.13559e+06 -115876 0 1.30669e+06 -261154 0 1.43771e+06 -247698 0 1.53017e+06 -221523 0 1.60547e+06 -187863 0 1.66351e+06 -152475 0 1.708e+06 -116858 0 1.73934e+06 -82336.8 0 1.75884e+06 -49760.5 0 1.76746e+06 -19755.2 0 1.76638e+06 7279.79 0 1.75679e+06 31130.8 0 1.73991e+06 51753.9 0 1.71688e+06 69232.1 0 1.68881e+06 83744.5 0 1.65666e+06 95529.7 0 1.62133e+06 104859 0 1.58356e+06 112014 0 1.54402e+06 117271 0 1.50327e+06 120892 0 1.4618e+06 123116 0 1.41999e+06 124161 0 1.37819e+06 124216 0 1.33666e+06 123451 0 1.29563e+06 122009 0 1.25528e+06 120014 0 1.21576e+06 117573 0 1.17719e+06 114776 0 1.13966e+06 111697 0 1.10323e+06 108401 0 1.06797e+06 104941 0 1.03391e+06 101361 0 1.11903e+06 -114187 0 1.30838e+06 -271608 0 1.4392e+06 -252892 0 1.53243e+06 -226048 0 1.60768e+06 -191182 0 1.66572e+06 -155063 0 1.71009e+06 -118705 0 1.74129e+06 -83529.9 0 1.76061e+06 -50352.1 0 1.76902e+06 -19808.7 0 1.76773e+06 7699.54 0 1.75793e+06 31958.4 0 1.74085e+06 52925.4 0 1.71764e+06 70688.1 0 1.68939e+06 85430.5 0 1.65709e+06 97397.3 0 1.62162e+06 106866 0 1.58374e+06 114123 0 1.5441e+06 119451 0 1.50327e+06 123116 0 1.46173e+06 125362 0 1.41987e+06 126411 0 1.37802e+06 126455 0 1.33645e+06 125665 0 1.2954e+06 124188 0 1.25503e+06 122151 0 1.2155e+06 119661 0 1.17691e+06 116809 0 1.13937e+06 113672 0 1.10294e+06 110315 0 1.06768e+06 106791 0 1.03362e+06 103146 0 1.10045e+06 -112290 0 1.31085e+06 -282750 0 1.44059e+06 -257956 0 1.53482e+06 -230632 0 1.6099e+06 -194479 0 1.66797e+06 -157650 0 1.71222e+06 -120539 0 1.74327e+06 -84711.2 0 1.7624e+06 -50930.7 0 1.77061e+06 -19848.5 0 1.76911e+06 8132.71 0 1.75909e+06 32798.9 0 1.7418e+06 54109 0 1.7184e+06 72155.1 0 1.68998e+06 87126.3 0 1.65753e+06 99273.3 0 1.62192e+06 108879 0 1.58392e+06 116238 0 1.54418e+06 121636 0 1.50327e+06 125344 0 1.46166e+06 127612 0 1.41974e+06 128664 0 1.37785e+06 128695 0 1.33625e+06 127881 0 1.29516e+06 126370 0 1.25477e+06 124289 0 1.21523e+06 121750 0 1.17663e+06 118843 0 1.13909e+06 115647 0 1.10265e+06 112228 0 1.06739e+06 108640 0 1.03333e+06 104930 0 1.07957e+06 -110160 0 1.31426e+06 -294654 0 1.44182e+06 -262853 0 1.53737e+06 -235286 0 1.61213e+06 -197747 0 1.67029e+06 -160237 0 1.71438e+06 -122361 0 1.74528e+06 -85880.6 0 1.76423e+06 -51496 0 1.77223e+06 -19874.3 0 1.77051e+06 8579.46 0 1.76028e+06 33652.6 0 1.74278e+06 55304.9 0 1.71918e+06 73633.2 0 1.69058e+06 88832 0 1.65797e+06 101158 0 1.62223e+06 110901 0 1.58411e+06 118359 0 1.54427e+06 123826 0 1.50327e+06 127577 0 1.46159e+06 129866 0 1.41962e+06 130919 0 1.37768e+06 130938 0 1.33604e+06 130099 0 1.29493e+06 128552 0 1.25452e+06 126428 0 1.21495e+06 123839 0 1.17635e+06 120877 0 1.13879e+06 117623 0 1.10236e+06 114142 0 1.06709e+06 110490 0 1.03303e+06 106715 0 1.05611e+06 -107766 0 1.31881e+06 -307397 0 1.44281e+06 -267540 0 1.54013e+06 -240023 0 1.61435e+06 -200980 0 1.67266e+06 -162825 0 1.71657e+06 -124170 0 1.74734e+06 -87037.9 0 1.76608e+06 -52048.2 0 1.77387e+06 -19885.9 0 1.77193e+06 9039.9 0 1.76148e+06 34519.8 0 1.74376e+06 56513 0 1.71997e+06 75122.6 0 1.69119e+06 90547.7 0 1.65842e+06 103052 0 1.62254e+06 112930 0 1.5843e+06 120487 0 1.54436e+06 126022 0 1.50328e+06 129815 0 1.46153e+06 132123 0 1.41949e+06 133178 0 1.37751e+06 133184 0 1.33583e+06 132318 0 1.29469e+06 130736 0 1.25426e+06 128569 0 1.21468e+06 125929 0 1.17606e+06 122912 0 1.1385e+06 119599 0 1.10206e+06 116056 0 1.06679e+06 112340 0 1.03273e+06 108499 0 1.02972e+06 -105073 0 1.32472e+06 -321065 0 1.44346e+06 -271970 0 1.54313e+06 -244862 0 1.61654e+06 -204172 0 1.67511e+06 -165416 0 1.71878e+06 -125965 0 1.74943e+06 -88182.6 0 1.76796e+06 -52587.1 0 1.77554e+06 -19882.8 0 1.77337e+06 9514.13 0 1.7627e+06 35400.6 0 1.74477e+06 57733.7 0 1.72077e+06 76623.6 0 1.69182e+06 92273.6 0 1.65888e+06 104954 0 1.62286e+06 114966 0 1.58449e+06 122621 0 1.54445e+06 128223 0 1.50328e+06 132057 0 1.46146e+06 134384 0 1.41937e+06 135440 0 1.37733e+06 135432 0 1.33562e+06 134540 0 1.29445e+06 132921 0 1.25399e+06 130710 0 1.2144e+06 128020 0 1.17577e+06 124947 0 1.1382e+06 121575 0 1.10176e+06 117970 0 1.06649e+06 114189 0 1.03243e+06 110284 0 1.00001e+06 -102042 0 1.33228e+06 -335757 0 1.44366e+06 -276082 0 1.54644e+06 -249822 0 1.61867e+06 -207313 0 1.67765e+06 -168014 0 1.721e+06 -127746 0 1.75157e+06 -89314.6 0 1.76987e+06 -53112.9 0 1.77724e+06 -19864.7 0 1.77483e+06 10002.2 0 1.76394e+06 36295.4 0 1.74579e+06 58966.9 0 1.72159e+06 78136.2 0 1.69245e+06 94009.7 0 1.65935e+06 106866 0 1.62318e+06 117011 0 1.58469e+06 124762 0 1.54455e+06 130430 0 1.50329e+06 134303 0 1.46139e+06 136649 0 1.41924e+06 137705 0 1.37716e+06 137682 0 1.33541e+06 136763 0 1.29421e+06 135108 0 1.25373e+06 132852 0 1.21412e+06 130111 0 1.17548e+06 126983 0 1.1379e+06 123551 0 1.10145e+06 119884 0 1.06618e+06 116039 0 1.03212e+06 112068 0 </DataArray> 
</PointData> 
<Points> 
<DataArray type="Float32" NumberOfComponents="3"> 