<?xml version="1.0"?> 
<VTKFile type="StructuredGrid" version="0.1"> 
<StructuredGrid WholeExtent="0 31 0 31 0 0"> 
<Piece Extent="0 31 0 31 0 0"> 
<PointData>
<DataArray type="Float32" Name="|E|" format="ascii" NumberOfComponents="3"> 
1125.79 2721.41 0 -257.981 965.902 0 -157.339 778.054 0 -202.042 517.057 0 -144.551 355.444 0 -118.656 241.353 0 -87.7114 165.84 0 -66.8459 115.492 0 -50.0865 81.5351 0 -38.0444 58.445 0 -29.0259 42.4157 0 -22.3824 31.1315 0 -17.3987 23.046 0 -13.6364 17.1765 0 -10.7582 12.8628 0 -8.53434 9.66338 0 -6.79872 7.2727 0 -5.4333 5.47682 0 -4.35206 4.12263 0 -3.49175 3.09899 0 -2.80503 2.32409 0 -2.25601 1.73708 0 -1.8171 1.29229 0 -1.4669 0.955239 0 -1.18871 0.69976 0 -0.969451 0.505952 0 -0.798938 0.358644 0 -0.669341 0.246277 0 -0.574791 0.160062 0 -0.511125 0.0933597 0 -0.475687 0.0411975 0 -0.467293 9.53674e-07 0 367.741 2132.64 0 -273.904 1043.67 0 -239.734 734.558 0 -229.066 491.488 0 -169.648 332.99 0 -131.603 225.879 0 -96.6904 155.026 0 -72.248 108.067 0 -53.6707 76.4527 0 -40.3796 54.9344 0 -30.6112 39.9727 0 -23.4692 29.4085 0 -18.1592 21.8167 0 -14.1742 16.2885 0 -11.1425 12.2147 0 -8.81056 9.18597 0 -6.99817 6.91838 0 -5.57766 5.21231 0 -4.45667 3.92431 0 -3.56759 2.94987 0 -2.86003 2.21181 0 -2.2959 1.65253 0 -1.84608 1.2287 0 -1.48802 0.907564 0 -1.20419 0.664218 0 -0.980911 0.479702 0 -0.807551 0.33956 0 -0.67595 0.232773 0 -0.579998 0.150968 0 -0.515344 0.0878281 0 -0.479196 0.0386333 0 -0.470242 -9.61125e-07 0 -62.1033 1888.88 0 -343.868 1041.68 0 -304.93 693.614 0 -257.672 461.281 0 -191.015 309.653 0 -143.348 209.661 0 -104.463 143.882 0 -76.9918 100.468 0 -56.7979 71.2792 0 -42.4332 51.375 0 -32.0119 37.5011 0 -24.4367 27.6679 0 -18.8406 20.5758 0 -14.6591 15.3927 0 -11.4908 11.5611 0 -9.06207 8.70454 0 -7.18042 6.56115 0 -5.70995 4.94569 0 -4.55276 3.72447 0 -3.63738 2.79967 0 -2.9107 2.09875 0 -2.33271 1.56742 0 -1.87284 1.16472 0 -1.50755 0.859615 0 -1.21852 0.628486 0 -0.991539 0.453326 0 -0.815555 0.320392 0 -0.682109 0.219217 0 -0.584863 0.141847 0 -0.519295 0.0822842 0 -0.482483 0.0360648 0 -0.472997 2.38419e-07 0 -349.918 1729.28 0 -428.61 1003.67 0 -360.295 649.54 0 -285.04 428.002 0 -209.283 285.4 0 -153.668 192.904 0 -111.087 132.505 0 -81.0687 92.7598 0 -59.479 66.0522 0 -44.2093 47.7894 0 -33.2318 35.0142 0 -25.287 25.918 0 -19.4444 19.3283 0 -15.092 14.492 0 -11.8036 10.9037 0 -9.28915 8.22034 0 -7.34566 6.20184 0 -5.83028 4.67751 0 -4.64038 3.52347 0 -3.70114 2.64861 0 -2.95707 1.98507 0 -2.36643 1.48186 0 -1.89739 1.10042 0 -1.52548 0.81144 0 -1.23171 0.5926 0 -1.00133 0.426844 0 -0.82295 0.301157 0 -0.687816 0.205621 0 -0.589385 0.132702 0 -0.522976 0.0767303 0 -0.485548 0.0334937 0 -0.475559 0 0 -565.107 1593.96 0 -512.55 944.559 0 -408.259 601.181 0 -309.817 392.488 0 -224.724 260.34 0 -162.449 175.787 0 -116.603 120.983 0 -84.4806 85.0002 0 -61.7263 60.806 0 -45.7136 44.1977 0 -34.2755 32.5243 0 -26.0229 24.1658 0 -19.9722 18.0786 0 -15.4738 13.5893 0 -12.0816 10.2445 0 -9.49216 7.7345 0 -7.49409 5.84116 0 -5.93878 4.40824 0 -4.7196 3.32163 0 -3.75891 2.49692 0 -2.99915 1.87091 0 -2.39707 1.39595 0 -1.91973 1.03586 0 -1.54182 0.76309 0 -1.24374 0.55659 0 -1.01029 0.400279 0 -0.829735 0.281868 0 -0.693069 0.191993 0 -0.593561 0.123541 0 -0.526385 0.071169 0 -0.488387 0.0309206 0 -0.477925 5.96046e-08 0 -735.513 1458.94 0 -589.256 872.213 0 -449.496 548.829 0 -331.325 355.283 0 -237.454 234.692 0 -169.649 158.467 0 -121.044 109.411 0 -87.2387 77.2452 0 -63.5533 55.5741 0 -46.9539 40.6193 0 -35.1483 30.0428 0 -26.6474 22.4184 0 -20.4258 16.8311 0 -15.8057 12.6871 0 -12.3255 9.58508 0 -9.6715 7.24812 0 -7.62595 5.47986 0 -6.03557 4.13838 0 -4.79051 3.11928 0 -3.81075 2.34481 0 -3.03698 1.75644 0 -2.42466 1.3098 0 -1.93987 0.971132 0 -1.55657 0.71461 0 -1.25462 0.52049 0 -1.01842 0.373653 0 -0.835909 0.26254 0 -0.697868 0.178341 0 -0.597392 0.114369 0 -0.529522 0.0656051 0 -0.491002 0.0283491 0 -0.480096 -2.98023e-08 0 -873.346 1319.42 0 -655.992 790.942 0 -484.137 493.22 0 -349.19 316.882 0 -247.543 208.691 0 -175.261 141.097 0 -124.445 97.8794 0 -89.3608 69.5478 0 -64.9756 50.3875 0 -47.9392 37.0724 0 -35.856 27.5806 0 -27.1641 20.6823 0 -20.8076 15.5897 0 -16.0889 11.7881 0 -12.5359 8.92708 0 -9.82762 6.76227 0 -7.7415 5.11863 0 -6.12082 3.86839 0 -4.8532 2.91674 0 -3.8567 2.19251 0 -3.07059 1.64178 0 -2.44921 1.22351 0 -1.95782 0.906291 0 -1.56974 0.666049 0 -1.26436 0.484331 0 -1.02571 0.346987 0 -0.84147 0.243188 0 -0.702211 0.164676 0 -0.600875 0.105191 0 -0.532385 0.0600403 0 -0.49339 0.0257781 0 -0.482069 1.19209e-07 0 -984.559 1174.95 0 -711.663 703.655 0 -512.173 435.244 0 -363.224 277.747 0 -255.049 182.586 0 -179.303 123.826 0 -126.846 86.4757 0 -90.87 61.9578 0 -66.0106 45.2754 0 -48.6798 33.5737 0 -36.4054 25.1478 0 -27.5768 18.9636 0 -21.1197 14.3582 0 -16.3248 10.8947 0 -12.7137 8.27205 0 -9.96101 6.27795 0 -7.84104 4.75814 0 -6.19471 3.59873 0 -4.90777 2.71431 0 -3.89683 2.04021 0 -3.10001 1.5271 0 -2.47074 1.13718 0 -1.97359 0.841407 0 -1.58134 0.617451 0 -1.27296 0.448145 0 -1.03217 0.320302 0 -0.84642 0.223824 0 -0.706098 0.151006 0 -0.60401 0.0960127 0 -0.534972 0.0544774 0 -0.49555 0.02321 0 -0.483844 1.19209e-07 0 -1072.47 1026.85 0 -755.946 612.539 0 -533.61 375.787 0 -373.356 238.328 0 -260.04 156.623 0 -181.817 106.795 0 -128.291 75.282 0 -91.7937 54.5216 0 -66.6774 40.2645 0 -49.1873 30.1387 0 -36.8035 22.7536 0 -27.8897 17.2678 0 -21.3648 13.1401 0 -16.5149 10.0089 0 -12.8598 7.62144 0 -10.0722 5.79613 0 -7.92489 4.39904 0 -6.25742 3.32983 0 -4.95435 2.51229 0 -3.93122 1.88814 0 -3.12529 1.41253 0 -2.48929 1.0509 0 -1.9872 0.776548 0 -1.59137 0.568865 0 -1.28042 0.411963 0 -1.0378 0.293621 0 -0.850759 0.204464 0 -0.709528 0.137341 0 -0.606796 0.0868395 0 -0.537284 0.0489202 0 -0.497482 0.0206459 0 -0.485421 1.78814e-07 0 -1139.24 876.851 0 -788.923 519.372 0 -548.518 315.7 0 -379.599 199.059 0 -262.599 131.044 0 -182.861 90.1413 0 -128.829 64.3751 0 -92.1637 47.2818 0 -66.997 35.3791 0 -49.4741 26.7815 0 -37.0577 20.4064 0 -28.1073 15.6002 0 -21.5454 11.9387 0 -16.6609 9.13301 0 -12.9752 6.97662 0 -10.1617 5.3177 0 -7.99338 4.04195 0 -6.30917 3.06211 0 -4.99305 2.31097 0 -3.95993 1.73648 0 -3.14647 1.29821 0 -2.50487 0.964772 0 -1.99866 0.71178 0 -1.59984 0.520333 0 -1.28674 0.375817 0 -1.0426 0.266963 0 -0.854487 0.18512 0 -0.712502 0.123688 0 -0.609232 0.0776768 0 -0.539318 0.0433716 0 -0.499185 0.0180865 0 -0.486798 -1.19209e-07 0 -1186.47 726.752 0 -810.905 425.664 0 -557.039 255.772 0 -382.035 160.356 0 -262.825 106.078 0 -182.506 73.9911 0 -128.518 53.8253 0 -92.0149 40.2771 0 -66.9913 30.6411 0 -49.5532 23.5147 0 -37.1761 18.1137 0 -28.2342 13.9653 0 -21.6644 10.7569 0 -16.7642 8.26887 0 -13.0607 6.33886 0 -10.2303 4.84354 0 -8.04689 3.68744 0 -6.35017 2.79597 0 -5.02401 2.11063 0 -3.98306 1.58542 0 -3.16361 1.18427 0 -2.51751 0.878884 0 -2.008 0.647166 0 -1.60677 0.471902 0 -1.29194 0.339736 0 -1.04658 0.240349 0 -0.857606 0.165807 0 -0.715019 0.110058 0 -0.611318 0.0685308 0 -0.541075 0.0378345 0 -0.500658 0.0155337 0 -0.487976 -1.19209e-07 0 -1215.54 578.27 0 -822.345 332.721 0 -559.388 196.728 0 -380.796 122.61 0 -260.841 81.9417 0 -180.84 58.4622 0 -127.417 43.6961 0 -91.3848 33.5415 0 -66.6837 26.0695 0 -49.4385 20.3492 0 -37.1668 15.8822 0 -28.2753 12.3673 0 -21.7246 9.59739 0 -16.8267 7.41825 0 -13.1176 5.70935 0 -10.2783 4.37445 0 -8.08578 3.33607 0 -6.38065 2.5318 0 -5.04737 1.91153 0 -4.00068 1.43516 0 -3.17676 1.07084 0 -2.52726 0.793329 0 -2.01523 0.58277 0 -1.61216 0.423614 0 -1.29602 0.303751 0 -1.04974 0.213799 0 -0.860117 0.146538 0 -0.71708 0.0964581 0 -0.613054 0.0594056 0 -0.542554 0.0323114 0 -0.501901 0.0129881 0 -0.488953 -1.78814e-07 0 -1227.75 432.999 0 -823.798 241.684 0 -555.842 139.228 0 -376.06 86.1865 0 -256.787 58.8364 0 -177.96 43.6613 0 -125.593 34.0434 0 -90.3134 27.1048 0 -66.0983 21.6808 0 -49.1441 17.2946 0 -37.0381 13.7178 0 -28.2355 10.81 0 -21.7289 8.46262 0 -16.8501 6.58279 0 -13.1467 5.0892 0 -10.3067 3.9112 0 -8.11045 2.98838 0 -6.40087 2.26997 0 -5.0633 1.71393 0 -4.0129 1.28588 0 -3.18597 0.958052 0 -2.53415 0.708196 0 -2.02037 0.518654 0 -1.61603 0.375514 0 -1.29899 0.267891 0 -1.05208 0.187333 0 -0.862024 0.127326 0 -0.718685 0.0828973 0 -0.614439 0.0503073 0 -0.543755 0.0268055 0 -0.502913 0.0104518 0 -0.48973 2.38419e-07 0 -1224.35 292.378 0 -815.884 153.553 0 -546.731 83.8645 0 -368.042 51.4213 0 -250.822 36.9457 0 -173.974 29.6829 0 -123.113 24.915 0 -88.8422 20.9919 0 -65.2598 17.4889 0 -48.6845 14.3591 0 -36.7986 11.6255 0 -28.1198 9.29664 0 -21.6804 7.35475 0 -16.8362 5.76395 0 -13.1493 4.47942 0 -10.3159 3.45448 0 -8.12132 2.64485 0 -6.41107 2.01082 0 -5.07194 1.51808 0 -4.01981 1.13775 0 -3.19132 0.846024 0 -2.53822 0.62357 0 -2.02345 0.454878 0 -1.6184 0.327642 0 -1.30086 0.232186 0 -1.0536 0.160972 0 -0.863327 0.108185 0 -0.719837 0.0693847 0 -0.615475 0.0412408 0 -0.544677 0.0213194 0 -0.503694 0.00792512 0 -0.490306 1.78814e-07 0 -1206.6 157.692 0 -799.277 69.1966 0 -532.426 31.1698 0 -356.987 18.621 0 -243.121 16.4336 0 -168.998 16.6079 0 -120.05 16.3506 0 -87.0138 15.2229 0 -64.193 13.5048 0 -48.0742 11.5493 0 -36.4568 9.60955 0 -27.9332 7.82991 0 -21.5821 6.27568 0 -16.7869 4.96307 0 -13.1264 3.88094 0 -10.3067 3.00496 0 -8.11881 2.30596 0 -6.41152 1.75469 0 -5.07346 1.32421 0 -4.02152 0.990932 0 -3.19286 0.734877 0 -2.5395 0.539537 0 -2.0245 0.391502 0 -1.61928 0.28004 0 -1.30163 0.196663 0 -1.05432 0.134735 0 -0.86403 0.0891283 0 -0.720535 0.0559285 0 -0.61616 0.0322118 0 -0.545321 0.0158562 0 -0.504243 0.00540894 0 -0.490681 -7.15256e-07 0 -1175.77 30.0558 0 -774.683 -10.6348 0 -513.333 -18.3856 0 -343.167 -11.9385 0 -233.877 -2.55641 0 -163.155 4.50318 0 -116.478 8.38135 0 -84.8712 9.8132 0 -62.9231 9.73701 0 -47.3277 8.87038 0 -36.0213 7.67329 0 -27.681 6.41222 0 -21.4369 5.22707 0 -16.7039 4.18131 0 -13.0791 3.29461 0 -10.2797 2.56325 0 -8.10334 1.97215 0 -6.40249 1.5019 0 -5.06804 1.13256 0 -4.01814 0.845597 0 -3.19067 0.624728 0 -2.53805 0.456178 0 -2.02354 0.328584 0 -1.61868 0.232749 0 -1.30132 0.161352 0 -1.05424 0.108642 0 -0.864137 0.0701678 0 -0.720782 0.0425371 0 -0.616497 0.0232248 0 -0.545686 0.0104186 0 -0.504561 0.00290549 0 -0.490855 2.38419e-07 0 -1133.16 -89.5798 0 -742.832 -85.3044 0 -489.883 -64.3868 0 -326.882 -40.0122 0 -223.295 -19.9038 0 -156.571 -6.57939 0 -112.471 1.02952 0 -82.4575 4.77352 0 -61.4747 6.19157 0 -46.4595 6.32609 0 -35.5006 5.81942 0 -27.3679 5.04547 0 -21.248 4.21032 0 -16.5891 3.41971 0 -13.0086 2.7212 0 -10.2357 2.1299 0 -8.07537 1.64382 0 -6.38426 1.25274 0 -5.05584 0.94334 0 -4.00977 0.701897 0 -3.18482 0.515686 0 -2.5339 0.373573 0 -2.02061 0.266179 0 -1.61663 0.185808 0 -1.29994 0.126278 0 -1.05337 0.0827102 0 -0.86365 0.0513165 0 -0.72058 0.0292184 0 -0.616485 0.0142851 0 -0.545773 0.00500959 0 -0.504648 0.000415325 0 -0.490828 1.19209e-07 0 -1080.07 -200.433 0 -704.458 -154.28 0 -462.524 -106.47 0 -308.45 -65.3857 0 -211.592 -35.5123 0 -149.378 -16.6038 0 -108.105 -5.69116 0 -79.8151 0.109868 0 -59.8722 2.87197 0 -45.4835 3.91896 0 -34.9029 4.04984 0 -26.9992 3.73117 0 -21.0183 3.22661 0 -16.4443 2.67919 0 -12.916 2.16138 0 -10.1755 1.70544 0 -8.03534 1.32135 0 -6.35712 1.00749 0 -5.03706 0.756751 0 -3.99655 0.559983 0 -3.17538 0.40786 0 -2.52711 0.291799 0 -2.01573 0.204342 0 -1.61315 0.139256 0 -1.29749 0.0914705 0 -1.05171 0.0569587 0 -0.862574 0.0325867 0 -0.71993 0.0159809 0 -0.616127 0.00539795 0 -0.545582 -0.000368714 0 -0.504503 -0.00206023 0 -0.490599 -2.38419e-07 0 -1017.78 -301.891 0 -660.289 -217.129 0 -431.72 -144.315 0 -288.216 -87.876 0 -198.995 -49.312 0 -141.706 -25.5501 0 -103.453 -11.7755 0 -76.9854 -4.17614 0 -58.139 -0.220568 0 -44.4136 1.65025 0 -34.2363 2.36583 0 -26.5794 2.47046 0 -20.7508 2.2769 0 -16.2714 1.9605 0 -12.8024 1.61578 0 -10.0996 1.29033 0 -7.9837 1.00511 0 -6.32135 0.766423 0 -5.01188 0.572991 0 -3.97858 0.419995 0 -3.16243 0.301353 0 -2.51773 0.21093 0 -2.00893 0.143128 0 -1.60825 0.0931307 0 -1.294 0.0569551 0 -1.04927 0.0314055 0 -0.860914 0.0139912 0 -0.718835 0.0028322 0 -0.615421 -0.00343263 0 -0.545113 -0.00571269 0 -0.504127 -0.00452012 0 -0.49017 1.19209e-07 0 -947.566 -393.505 0 -611.032 -273.506 0 -397.948 -177.641 0 -266.544 -107.332 0 -185.736 -61.2616 0 -133.684 -33.4144 0 -98.5862 -17.2266 0 -74.0079 -8.08705 0 -56.2978 -3.08696 0 -43.2629 -0.479936 0 -33.5086 0.767966 0 -26.1136 1.26409 0 -20.4484 1.36193 0 -16.0721 1.26431 0 -12.669 1.08491 0 -10.0088 0.884991 0 -7.9209 0.69541 0 -6.27724 0.529779 0 -4.98049 0.392245 0 -3.95599 0.282072 0 -3.14605 0.196266 0 -2.50581 0.131039 0 -2.00025 0.0825872 0 -1.60195 0.0474686 0 -1.28948 0.0227569 0 -1.04606 0.00606918 0 -0.858673 -0.00445759 0 -0.717298 -0.0102196 0 -0.614371 -0.0122006 0 -0.544367 -0.0110202 0 -0.50352 -0.00696349 0 -0.489539 1.19209e-07 0 -870.66 -474.997 0 -557.352 -323.143 0 -361.695 -206.191 0 -243.827 -123.639 0 -172.051 -71.3507 0 -125.438 -40.2087 0 -93.5741 -22.0554 0 -70.9203 -11.6292 0 -54.3702 -5.7301 0 -42.0439 -2.47255 0 -32.7274 -0.743714 0 -25.606 0.112485 0 -20.1139 0.482238 0 -15.8483 0.591145 0 -12.5169 0.569253 0 -9.90384 0.489805 0 -7.84742 0.392559 0 -6.22511 0.29779 0 -4.94308 0.214686 0 -3.92891 0.146343 0 -3.12633 0.0926941 0 -2.4914 0.0521952 0 -1.98972 0.0227703 0 -1.59429 0.00230634 0 -1.28393 -0.0110983 0 -1.04209 -0.0190331 0 -0.855858 -0.0227486 0 -0.715321 -0.0231661 0 -0.612978 -0.0209017 0 -0.543346 -0.0162886 0 -0.502682 -0.00938869 0 -0.488708 -4.76837e-07 0 -788.234 -546.257 0 -499.857 -365.838 0 -323.475 -229.728 0 -220.483 -136.721 0 -158.17 -79.6018 0 -117.087 -45.9599 0 -88.4811 -26.2801 0 -67.7576 -14.8125 0 -52.3764 -8.15465 0 -40.7687 -4.3295 0 -31.8998 -2.16974 0 -25.0613 -0.984246 0 -19.75 -0.361805 0 -15.6017 -0.0585817 0 -12.3472 0.0691941 0 -9.78543 0.10511 0 -7.7637 0.0968291 0 -6.16524 0.0706725 0 -4.89985 0.0404804 0 -3.89747 0.0129317 0 -3.10335 -0.00927225 0 -2.47456 -0.0255334 0 -1.97738 -0.0362743 0 -1.58527 -0.042322 0 -1.27738 -0.0445859 0 -1.03736 -0.0438846 0 -0.852473 -0.0408702 0 -0.712908 -0.0360005 0 -0.611244 -0.0295315 0 -0.542049 -0.0215151 0 -0.501614 -0.0117953 0 -0.487677 3.57628e-07 0 -701.367 -607.355 0 -439.072 -401.423 0 -283.843 -248.017 0 -196.957 -146.554 0 -144.312 -86.0719 0 -108.745 -50.7087 0 -83.3668 -29.926 0 -64.5522 -17.6496 0 -50.3355 -10.3669 0 -39.4481 -6.05354 0 -31.0327 -3.51114 0 -24.4836 -2.02627 0 -19.3595 -1.17002 0 -15.3338 -0.68455 0 -12.161 -0.414935 0 -9.65424 -0.268798 0 -7.67021 -0.191532 0 -6.09793 -0.151376 0 -4.851 -0.130218 0 -3.86179 -0.118045 0 -3.07719 -0.109543 0 -2.45534 -0.102083 0 -1.96327 -0.0944987 0 -1.57493 -0.0863826 0 -1.26984 -0.077682 0 -1.03189 -0.068468 0 -0.848525 -0.0588109 0 -0.710062 -0.0487159 0 -0.609169 -0.0380852 0 -0.540478 -0.0266972 0 -0.500317 -0.0141813 0 -0.486446 0 0 -610.995 -658.565 0 -375.417 -429.739 0 -243.43 -260.812 0 -173.715 -153.179 0 -130.676 -90.8509 0 -100.518 -54.5078 0 -78.2843 -33.0239 0 -61.3335 -20.1558 0 -48.265 -12.3745 0 -38.0927 -7.64813 0 -30.1326 -4.76936 0 -23.877 -3.01401 0 -18.9448 -1.94238 0 -15.0465 -1.28654 0 -11.9593 -0.882865 0 -9.51099 -0.631657 0 -7.5674 -0.472298 0 -6.0235 -0.36817 0 -4.79673 -0.297266 0 -3.82202 -0.246475 0 -3.04794 -0.208037 0 -2.43381 -0.177391 0 -1.94742 -0.151858 0 -1.5633 -0.129842 0 -1.26132 -0.110363 0 -1.02568 -0.0927673 0 -0.844019 -0.0765593 0 -0.706786 -0.0613035 0 -0.606757 -0.0465587 0 -0.538633 -0.0318326 0 -0.498791 -0.0165463 0 -0.485016 -1.19209e-07 0 -517.824 -700.411 0 -309.181 -450.566 0 -202.998 -267.854 0 -151.225 -156.725 0 -117.436 -94.057 0 -92.504 -57.4215 0 -73.2786 -35.61 0 -58.1288 -22.3481 0 -46.1805 -14.1863 0 -36.7118 -9.11737 0 -29.2054 -5.94626 0 -23.245 -3.94813 0 -18.5084 -2.67901 0 -14.7412 -1.86442 0 -11.7432 -1.33439 0 -9.35636 -0.983244 0 -7.45573 -0.745271 0 -5.94223 -0.579543 0 -4.73723 -0.460526 0 -3.77827 -0.372254 0 -3.01569 -0.304673 0 -2.41002 -0.251399 0 -1.92987 -0.208308 0 -1.55038 -0.172669 0 -1.25185 -0.142606 0 -1.01876 -0.116766 0 -0.838962 -0.0941044 0 -0.703085 -0.0737568 0 -0.60401 -0.0549463 0 -0.536518 -0.0369188 0 -0.497037 -0.01889 0 -0.483387 1.19209e-07 0 -422.143 -733.808 0 -240.533 -463.522 0 -163.53 -268.88 0 -129.913 -157.441 0 -104.735 -95.8255 0 -84.7943 -59.5255 0 -68.3847 -37.7231 0 -54.9637 -24.2457 0 -44.0955 -15.8119 0 -35.3145 -10.466 0 -28.2568 -7.04395 0 -22.5915 -4.82951 0 -18.0527 -3.38015 0 -14.4195 -2.41814 0 -11.5136 -1.76934 0 -9.19101 -1.32337 0 -7.33564 -1.01027 0 -5.85444 -0.785337 0 -4.67272 -0.619875 0 -3.7307 -0.495283 0 -2.98054 -0.399375 0 -2.38403 -0.324048 0 -1.91067 -0.263807 0 -1.53622 -0.214832 0 -1.24143 -0.17439 0 -1.01111 -0.14045 0 -0.833361 -0.111436 0 -0.698963 -0.086069 0 -0.60093 -0.0632443 0 -0.534131 -0.041953 0 -0.495056 -0.0212098 0 -0.48156 0 0 -323.455 -760.302 0 -169.58 -467.869 0 -126.334 -263.669 0 -110.084 -155.725 0 -92.7083 -96.2893 0 -77.4632 -60.9102 0 -63.6294 -39.4025 0 -51.8622 -25.8692 0 -42.0208 -17.2617 0 -33.9094 -11.6992 0 -27.2916 -8.06482 0 -21.9197 -5.65923 0 -17.5798 -4.04615 0 -14.0828 -2.94775 0 -11.2717 -2.18763 0 -9.0156 -1.65187 0 -7.20759 -1.26714 0 -5.76042 -0.985414 0 -4.60339 -0.775196 0 -3.67944 -0.615468 0 -2.94258 -0.492072 0 -2.3559 -0.395284 0 -1.88986 -0.318314 0 -1.52084 -0.256302 0 -1.2301 -0.205693 0 -1.00277 -0.163802 0 -0.827222 -0.128544 0 -0.694423 -0.0982333 0 -0.597519 -0.0714486 0 -0.531477 -0.0469337 0 -0.492849 -0.0235057 0 -0.479536 0 0 -219.5 -783.026 0 -96.6981 -462.056 0 -93.1249 -252.232 0 -91.7983 -152.117 0 -81.5271 -95.5616 0 -70.5487 -61.6858 0 -59.0383 -40.6821 0 -48.8448 -27.2428 0 -39.9649 -18.5452 0 -32.5047 -12.823 0 -26.3139 -9.01107 0 -21.233 -6.43878 0 -17.0918 -4.6773 0 -13.7326 -3.45344 0 -11.0182 -2.58912 0 -8.83079 -1.96866 0 -7.07201 -1.51573 0 -5.66047 -1.17965 0 -4.52946 -0.926378 0 -3.62462 -0.732725 0 -2.90189 -0.582695 0 -2.32571 -0.465056 0 -1.86747 -0.37179 0 -1.50427 -0.297051 0 -1.21785 -0.236493 0 -0.993738 -0.186809 0 -0.820554 -0.145417 0 -0.689471 -0.110242 0 -0.593782 -0.0795549 0 -0.528555 -0.051857 0 -0.490417 -0.0257764 0 -0.477316 0 0 -104.172 -807.909 0 -23.3926 -442.981 0 -65.9447 -235.176 0 -74.7311 -147.237 0 -71.488 -93.729 0 -63.9989 -61.9816 0 -54.6626 -41.5912 0 -45.9164 -28.3903 0 -37.9394 -19.6743 0 -31.1065 -13.8421 0 -25.3279 -9.88636 0 -20.5345 -7.16901 0 -16.5904 -5.27441 0 -13.3703 -3.93525 0 -10.7542 -2.97386 0 -8.63721 -2.27361 0 -6.92932 -1.75593 0 -5.55489 -1.36794 0 -4.45111 -1.07333 0 -3.56639 -0.846971 0 -2.85858 -0.67118 0 -2.2935 -0.533314 0 -1.84355 -0.424198 0 -1.48653 -0.337049 0 -1.20472 -0.266771 0 -0.984028 -0.209456 0 -0.813363 -0.162047 0 -0.684112 -0.12209 0 -0.589719 -0.0875592 0 -0.525368 -0.056722 0 -0.487761 -0.0280216 0 -0.474901 -2.38419e-07 0 39.7347 -853.446 0 44.4258 -402.902 0 -45.9229 -215.24 0 -58.489 -141.192 0 -62.9363 -91.0342 0 -57.6789 -61.8917 0 -50.5876 -42.1593 0 -43.0592 -29.341 0 -35.9629 -20.6563 0 -29.7162 -14.7642 0 -24.3388 -10.6926 0 -19.8265 -7.85195 0 -16.0778 -5.83776 0 -12.9972 -4.39362 0 -10.4805 -3.34174 0 -8.43549 -2.56672 0 -6.77996 -1.98761 0 -5.44397 -1.55018 0 -4.36856 -1.21594 0 -3.50488 -0.958136 0 -2.81274 -0.757464 0 -2.25936 -0.600012 0 -1.81814 -0.475501 0 -1.46766 -0.376272 0 -1.19072 -0.296508 0 -0.973652 -0.23173 0 -0.805658 -0.178422 0 -0.678349 -0.133769 0 -0.585335 -0.0954567 0 -0.521918 -0.0615259 0 -0.484883 -0.0302392 0 -0.472292 7.15256e-07 0 256.854 -960.864 0 88.8777 -325.307 0 -29.867 -199.499 0 -43.8489 -132.593 0 -55.8503 -88.2504 0 -51.4842 -61.3096 0 -46.9194 -42.4927 0 -40.2234 -30.0847 0 -34.0724 -21.5216 0 -28.3242 -15.5822 0 -23.3564 -11.4414 0 -19.1084 -8.48378 0 -15.5568 -6.37118 0 -12.614 -4.82703 0 -10.1981 -3.69379 0 -8.22615 -2.84745 0 -6.62437 -2.21094 0 -5.328 -1.72618 0 -4.28201 -1.35419 0 -3.44023 -1.06612 0 -2.76446 -0.841505 0 -2.22333 -0.6651 0 -1.7913 -0.525669 0 -1.44768 -0.414692 0 -1.17588 -0.325684 0 -0.962625 -0.253617 0 -0.797448 -0.194534 0 -0.672189 -0.145274 0 -0.580633 -0.103245 0 -0.518207 -0.0662673 0 -0.481784 -0.0324285 0 -0.469489 -9.53674e-07 0 704.255 -1339.23 0 43.6542 -148.814 0 8.95537 -215.821 0 -42.3938 -111.011 0 -45.1686 -89.7944 0 -47.5344 -58.8221 0 -42.7903 -43.0608 0 -37.7665 -30.575 0 -32.1334 -22.2512 0 -26.9885 -16.344 0 -22.3631 -12.1047 0 -18.3905 -9.08563 0 -15.026 -6.86449 0 -12.2228 -5.24168 0 -9.90748 -4.02709 0 -8.0099 -3.11726 0 -6.46291 -2.42515 0 -5.20729 -1.89618 0 -4.19165 -1.48786 0 -3.37259 -1.17094 0 -2.71385 -0.923215 0 -2.1855 -0.72855 0 -1.76305 -0.574661 0 -1.42663 -0.452287 0 -1.16021 -0.354282 0 -0.950958 -0.275103 0 -0.78874 -0.210375 0 -0.665638 -0.1566 0 -0.575616 -0.110919 0 -0.514237 -0.0709423 0 -0.478465 -0.03459 0 -0.466495 1.90735e-06 0 </DataArray> 
</PointData> 
<Points> 
<DataArray type="Float32" NumberOfComponents="3"> 