<?xml version="1.0"?> 
<VTKFile type="StructuredGrid" version="0.1"> 
<StructuredGrid WholeExtent="0 31 0 31 0 0"> 
<Piece Extent="0 31 0 31 0 0"> 
<PointData>
<DataArray type="Float32" Name="|E|" format="ascii" NumberOfComponents="3"> 
1.3362e+06 4.76837e-07 0 1.3631e+06 0.0887667 0 1.42154e+06 0.0452767 0 1.48768e+06 0.0206671 0 1.5509e+06 0.00931173 0 1.60617e+06 0.00341367 0 1.65136e+06 0.000557527 0 1.68584e+06 -0.00102372 0 1.7097e+06 -0.00192264 0 1.72347e+06 -0.00245675 0 1.72791e+06 -0.00274846 0 1.72393e+06 -0.00286412 0 1.71252e+06 -0.00284705 0 1.69466e+06 -0.00273094 0 1.67134e+06 -0.00254908 0 1.64347e+06 -0.00232515 0 1.61191e+06 -0.00208163 0 1.57742e+06 -0.00183436 0 1.54069e+06 -0.00159541 0 1.50231e+06 -0.00137055 0 1.46281e+06 -0.00116616 0 1.42263e+06 -0.000982404 0 1.38215e+06 -0.000820935 0 1.34167e+06 -0.000678837 0 1.30148e+06 -0.000557005 0 1.26177e+06 -0.000452936 0 1.22273e+06 -0.00036329 0 1.1845e+06 -0.000288129 0 1.1472e+06 -0.000224769 0 1.11092e+06 -0.000171542 0 1.07572e+06 -0.000127077 0 1.04167e+06 -9.11951e-05 0 1.33611e+06 -7.59959e-07 0 1.36305e+06 -2475.12 0 1.42153e+06 -3493.47 0 1.48769e+06 -3583.1 0 1.55092e+06 -3264.89 0 1.60618e+06 -2758.84 0 1.65138e+06 -2183.25 0 1.68586e+06 -1594.99 0 1.70972e+06 -1025.34 0 1.72348e+06 -491.903 0 1.72792e+06 -5.11618 0 1.72394e+06 429.349 0 1.71253e+06 809.206 0 1.69467e+06 1134.74 0 1.67135e+06 1408.1 0 1.64348e+06 1632.75 0 1.61191e+06 1812.93 0 1.57742e+06 1953.29 0 1.54069e+06 2058.52 0 1.50231e+06 2133.2 0 1.46281e+06 2181.61 0 1.42263e+06 2207.67 0 1.38215e+06 2214.9 0 1.34167e+06 2206.38 0 1.30147e+06 2184.84 0 1.26177e+06 2152.61 0 1.22273e+06 2111.7 0 1.1845e+06 2063.81 0 1.1472e+06 2010.39 0 1.11092e+06 1952.65 0 1.07572e+06 1891.62 0 1.04166e+06 1828.14 0 1.33584e+06 3.8743e-07 0 1.36291e+06 -4955.41 0 1.4215e+06 -6989.57 0 1.4877e+06 -7167.4 0 1.55095e+06 -6530.33 0 1.60623e+06 -5517.88 0 1.65143e+06 -4366.52 0 1.68591e+06 -3189.92 0 1.70976e+06 -2050.56 0 1.72352e+06 -983.663 0 1.72796e+06 -10.0727 0 1.72398e+06 858.864 0 1.71256e+06 1618.58 0 1.6947e+06 2269.63 0 1.67137e+06 2816.34 0 1.6435e+06 3265.63 0 1.61193e+06 3625.99 0 1.57743e+06 3906.68 0 1.5407e+06 4117.13 0 1.50232e+06 4266.48 0 1.46282e+06 4363.29 0 1.42263e+06 4415.41 0 1.38215e+06 4429.84 0 1.34167e+06 4412.81 0 1.30147e+06 4369.72 0 1.26176e+06 4305.25 0 1.22273e+06 4223.42 0 1.1845e+06 4127.63 0 1.1472e+06 4020.78 0 1.11091e+06 3905.31 0 1.07572e+06 3783.24 0 1.04166e+06 3656.29 0 1.3354e+06 2.98023e-08 0 1.36268e+06 -7446.05 0 1.42145e+06 -10490.9 0 1.48773e+06 -10754.1 0 1.55101e+06 -9796.84 0 1.6063e+06 -8277.32 0 1.65151e+06 -6549.87 0 1.68599e+06 -4784.74 0 1.70984e+06 -3075.56 0 1.72359e+06 -1475.14 0 1.72802e+06 -14.7102 0 1.72403e+06 1288.71 0 1.7126e+06 2428.28 0 1.69474e+06 3404.84 0 1.6714e+06 4224.89 0 1.64352e+06 4898.78 0 1.61195e+06 5439.28 0 1.57745e+06 5860.28 0 1.54071e+06 6175.93 0 1.50233e+06 6399.92 0 1.46282e+06 6545.11 0 1.42264e+06 6623.25 0 1.38215e+06 6644.88 0 1.34167e+06 6619.31 0 1.30147e+06 6554.66 0 1.26176e+06 6457.94 0 1.22272e+06 6335.18 0 1.18449e+06 6191.49 0 1.14719e+06 6031.21 0 1.11091e+06 5857.99 0 1.07571e+06 5674.88 0 1.04165e+06 5484.44 0 1.33477e+06 5.06639e-07 0 1.36235e+06 -9952.16 0 1.42138e+06 -14000 0 1.48776e+06 -14344.4 0 1.5511e+06 -13065 0 1.60641e+06 -11037.3 0 1.65162e+06 -8733.3 0 1.6861e+06 -6379.37 0 1.70994e+06 -4100.23 0 1.72369e+06 -1966.19 0 1.72811e+06 -18.8733 0 1.72411e+06 1719.05 0 1.71267e+06 3238.47 0 1.69479e+06 4540.52 0 1.67145e+06 5633.87 0 1.64356e+06 6532.34 0 1.61198e+06 7252.94 0 1.57747e+06 7814.21 0 1.54073e+06 8235 0 1.50234e+06 8533.59 0 1.46283e+06 8727.13 0 1.42264e+06 8831.27 0 1.38215e+06 8860.06 0 1.34167e+06 8825.93 0 1.30146e+06 8739.69 0 1.26175e+06 8610.71 0 1.22271e+06 8447 0 1.18448e+06 8255.4 0 1.14718e+06 8041.67 0 1.11089e+06 7810.7 0 1.0757e+06 7566.55 0 1.04164e+06 7312.62 0 1.33397e+06 -8.9407e-07 0 1.36193e+06 -12479 0 1.42129e+06 -17519.4 0 1.4878e+06 -17939.4 0 1.55121e+06 -16335.2 0 1.60655e+06 -13798.2 0 1.65177e+06 -10916.9 0 1.68624e+06 -7973.77 0 1.71008e+06 -5124.45 0 1.72382e+06 -2456.68 0 1.72822e+06 -22.4047 0 1.72421e+06 2150.05 0 1.71276e+06 4049.32 0 1.69487e+06 5676.83 0 1.67151e+06 7043.43 0 1.64361e+06 8166.43 0 1.61202e+06 9067.07 0 1.5775e+06 9768.55 0 1.54075e+06 10294.4 0 1.50235e+06 10667.6 0 1.46284e+06 10909.4 0 1.42264e+06 11039.5 0 1.38215e+06 11075.4 0 1.34166e+06 11032.7 0 1.30146e+06 10924.9 0 1.26174e+06 10763.6 0 1.2227e+06 10558.9 0 1.18447e+06 10319.4 0 1.14717e+06 10052.2 0 1.11088e+06 9763.45 0 1.07568e+06 9458.24 0 1.04162e+06 9140.81 0 1.33297e+06 7.15256e-07 0 1.36142e+06 -15031.9 0 1.42118e+06 -21051.6 0 1.48785e+06 -21540.3 0 1.55135e+06 -19608.1 0 1.60671e+06 -16559.9 0 1.65194e+06 -13100.6 0 1.68642e+06 -9567.88 0 1.71025e+06 -6148.13 0 1.72397e+06 -2946.46 0 1.72836e+06 -25.1478 0 1.72433e+06 2581.87 0 1.71286e+06 4860.98 0 1.69496e+06 6813.93 0 1.67159e+06 8453.73 0 1.64367e+06 9801.18 0 1.61207e+06 10881.8 0 1.57754e+06 11723.4 0 1.54078e+06 12354.3 0 1.50237e+06 12802 0 1.46285e+06 13092 0 1.42265e+06 13248 0 1.38215e+06 13291 0 1.34166e+06 13239.7 0 1.30145e+06 13110.2 0 1.26173e+06 12916.6 0 1.22269e+06 12670.9 0 1.18445e+06 12383.4 0 1.14715e+06 12062.8 0 1.11086e+06 11716.2 0 1.07566e+06 11350 0 1.0416e+06 10969 0 1.33179e+06 -6.55651e-07 0 1.36082e+06 -17616.5 0 1.42105e+06 -24599 0 1.48791e+06 -25148.3 0 1.55151e+06 -22884.1 0 1.60691e+06 -19322.9 0 1.65215e+06 -15284.5 0 1.68662e+06 -11161.6 0 1.71044e+06 -7171.14 0 1.72415e+06 -3435.39 0 1.72853e+06 -26.9452 0 1.72448e+06 3014.68 0 1.71299e+06 5673.62 0 1.69506e+06 7951.96 0 1.67167e+06 9864.91 0 1.64374e+06 11436.7 0 1.61212e+06 12697.2 0 1.57758e+06 13678.9 0 1.54081e+06 14414.8 0 1.50239e+06 14936.8 0 1.46286e+06 15275 0 1.42265e+06 15456.9 0 1.38215e+06 15506.9 0 1.34165e+06 15446.9 0 1.30144e+06 15295.7 0 1.26172e+06 15069.7 0 1.22267e+06 14783.1 0 1.18444e+06 14447.6 0 1.14713e+06 14073.4 0 1.11084e+06 13669.1 0 1.07564e+06 13241.7 0 1.04158e+06 12797.3 0 1.33041e+06 5.36442e-07 0 1.36013e+06 -20238.4 0 1.42091e+06 -28164.1 0 1.48799e+06 -28764.5 0 1.55169e+06 -26163.8 0 1.60714e+06 -22087.1 0 1.6524e+06 -17468.6 0 1.68686e+06 -12755 0 1.71067e+06 -8193.37 0 1.72436e+06 -3923.34 0 1.72872e+06 -27.6397 0 1.72464e+06 3448.63 0 1.71313e+06 6487.41 0 1.69519e+06 9091.09 0 1.67178e+06 11277.1 0 1.64383e+06 13073.2 0 1.61219e+06 14513.5 0 1.57763e+06 15635.2 0 1.54084e+06 16475.9 0 1.50242e+06 17072.2 0 1.46288e+06 17458.5 0 1.42266e+06 17666.1 0 1.38214e+06 17723.1 0 1.34165e+06 17654.4 0 1.30143e+06 17481.4 0 1.2617e+06 17223.1 0 1.22265e+06 16895.3 0 1.18442e+06 16511.9 0 1.14711e+06 16084.2 0 1.11082e+06 15622 0 1.07561e+06 15133.6 0 1.04155e+06 14625.6 0 1.32882e+06 -5.36442e-07 0 1.35935e+06 -22903.5 0 1.42075e+06 -31749 0 1.48807e+06 -32390.2 0 1.5519e+06 -29447.6 0 1.6074e+06 -24853 0 1.65267e+06 -19652.9 0 1.68713e+06 -14347.8 0 1.71093e+06 -9214.72 0 1.7246e+06 -4410.17 0 1.72893e+06 -27.0737 0 1.72483e+06 3883.9 0 1.7133e+06 7302.49 0 1.69533e+06 10231.5 0 1.67189e+06 12690.5 0 1.64392e+06 14710.8 0 1.61226e+06 16330.7 0 1.57769e+06 17592.2 0 1.54088e+06 18537.7 0 1.50245e+06 19208.3 0 1.46289e+06 19642.6 0 1.42267e+06 19875.8 0 1.38214e+06 19939.7 0 1.34164e+06 19862.1 0 1.30142e+06 19667.4 0 1.26169e+06 19376.6 0 1.22263e+06 19007.8 0 1.18439e+06 18576.3 0 1.14708e+06 18095 0 1.11079e+06 17575 0 1.07559e+06 17025.4 0 1.04152e+06 16453.9 0 1.32703e+06 5.96046e-07 0 1.35848e+06 -25618.1 0 1.42057e+06 -35356.1 0 1.48816e+06 -36026.4 0 1.55214e+06 -32736 0 1.60769e+06 -27620.5 0 1.65298e+06 -21837.5 0 1.68744e+06 -15940.1 0 1.71122e+06 -10235.1 0 1.72487e+06 -4895.72 0 1.72917e+06 -25.0895 0 1.72504e+06 4320.65 0 1.71348e+06 8119.05 0 1.69548e+06 11373.2 0 1.67202e+06 14105.1 0 1.64403e+06 16349.5 0 1.61235e+06 18149.1 0 1.57775e+06 19550.2 0 1.54093e+06 20600.3 0 1.50248e+06 21345 0 1.46291e+06 21827.2 0 1.42268e+06 22086 0 1.38214e+06 22156.7 0 1.34163e+06 22070.3 0 1.3014e+06 21853.7 0 1.26167e+06 21530.4 0 1.22261e+06 21120.4 0 1.18436e+06 20640.8 0 1.14705e+06 20106 0 1.11076e+06 19528.1 0 1.07555e+06 18917.4 0 1.04149e+06 18282.3 0 1.32502e+06 -4.17233e-07 0 1.35754e+06 -28388.7 0 1.42038e+06 -38987.4 0 1.48827e+06 -39674.4 0 1.5524e+06 -36029.5 0 1.60801e+06 -30389.9 0 1.65332e+06 -24022.4 0 1.68777e+06 -17531.9 0 1.71153e+06 -11254.3 0 1.72516e+06 -5379.86 0 1.72943e+06 -21.529 0 1.72528e+06 4759.03 0 1.71368e+06 8937.23 0 1.69565e+06 12516.6 0 1.67216e+06 15521.3 0 1.64414e+06 17989.6 0 1.61244e+06 19968.5 0 1.57782e+06 21509.3 0 1.54098e+06 22663.8 0 1.50251e+06 23482.5 0 1.46293e+06 24012.5 0 1.42268e+06 24296.8 0 1.38214e+06 24374.2 0 1.34162e+06 24278.8 0 1.30139e+06 24040.3 0 1.26165e+06 23684.4 0 1.22258e+06 23233.3 0 1.18434e+06 22705.5 0 1.14702e+06 22117.1 0 1.11072e+06 21481.3 0 1.07552e+06 20809.4 0 1.04145e+06 20110.7 0 1.32278e+06 4.17233e-07 0 1.35651e+06 -31222 0 1.42018e+06 -42645 0 1.48839e+06 -43335.3 0 1.55269e+06 -39328.5 0 1.60836e+06 -33161.4 0 1.65369e+06 -26207.6 0 1.68814e+06 -19122.9 0 1.71188e+06 -12272.3 0 1.72548e+06 -5862.46 0 1.72972e+06 -16.2338 0 1.72553e+06 5199.22 0 1.7139e+06 9757.21 0 1.69584e+06 13661.7 0 1.67232e+06 16939 0 1.64427e+06 19631.1 0 1.61254e+06 21789.3 0 1.5779e+06 23469.5 0 1.54104e+06 24728.4 0 1.50255e+06 25620.9 0 1.46296e+06 26198.5 0 1.42269e+06 26508.2 0 1.38214e+06 26592.2 0 1.34161e+06 26487.7 0 1.30137e+06 26227.2 0 1.26162e+06 25838.8 0 1.22255e+06 25346.3 0 1.1843e+06 24770.4 0 1.14698e+06 24128.3 0 1.11069e+06 23434.6 0 1.07548e+06 22701.5 0 1.04141e+06 21939.2 0 1.3203e+06 -1.78814e-07 0 1.3554e+06 -34125.4 0 1.41996e+06 -46330.6 0 1.48852e+06 -47010.3 0 1.553e+06 -42633.4 0 1.60874e+06 -35935.2 0 1.65409e+06 -28393 0 1.68854e+06 -20713.2 0 1.71226e+06 -13289 0 1.72583e+06 -6343.35 0 1.73004e+06 -9.04524 0 1.72581e+06 5641.38 0 1.71415e+06 10579.1 0 1.69604e+06 14808.6 0 1.67249e+06 18358.5 0 1.64441e+06 21274.3 0 1.61265e+06 23611.6 0 1.57798e+06 25431 0 1.5411e+06 26794 0 1.50259e+06 27760.2 0 1.46298e+06 28385.3 0 1.42271e+06 28720.3 0 1.38214e+06 28810.8 0 1.3416e+06 28697.2 0 1.30135e+06 28414.6 0 1.2616e+06 27993.4 0 1.22252e+06 27459.6 0 1.18427e+06 26835.5 0 1.14695e+06 26139.7 0 1.11065e+06 25388 0 1.07543e+06 24593.7 0 1.04137e+06 23767.7 0 1.31757e+06 0 0 1.35422e+06 -37106.4 0 1.41973e+06 -50046 0 1.48866e+06 -50700.6 0 1.55334e+06 -45944.7 0 1.60916e+06 -38711.4 0 1.65453e+06 -30578.8 0 1.68897e+06 -22302.8 0 1.71267e+06 -14304.2 0 1.72621e+06 -6822.41 0 1.73038e+06 0.195819 0 1.72611e+06 6085.67 0 1.71441e+06 11403.2 0 1.69626e+06 15957.6 0 1.67267e+06 19779.9 0 1.64455e+06 22919.1 0 1.61276e+06 25435.3 0 1.57807e+06 27393.8 0 1.54116e+06 28860.8 0 1.50264e+06 29900.5 0 1.46301e+06 30573 0 1.42272e+06 30933 0 1.38214e+06 31029.9 0 1.34159e+06 30907.1 0 1.30133e+06 30602.3 0 1.26157e+06 30148.4 0 1.22249e+06 29573.2 0 1.18423e+06 28900.8 0 1.14691e+06 28151.3 0 1.1106e+06 27341.6 0 1.07539e+06 26486 0 1.04132e+06 25596.3 0 1.31457e+06 2.38419e-07 0 1.35298e+06 -40173.2 0 1.41948e+06 -53792.7 0 1.48882e+06 -54407.5 0 1.55371e+06 -49262.7 0 1.6096e+06 -41490.2 0 1.655e+06 -32764.9 0 1.68943e+06 -23891.4 0 1.71311e+06 -15317.9 0 1.72661e+06 -7299.49 0 1.73075e+06 11.6488 0 1.72644e+06 6532.27 0 1.71468e+06 12229.5 0 1.6965e+06 17108.7 0 1.67287e+06 21203.3 0 1.64471e+06 24565.8 0 1.61289e+06 27260.8 0 1.57817e+06 29358.1 0 1.54124e+06 30928.9 0 1.50269e+06 32042 0 1.46304e+06 32761.6 0 1.42273e+06 33146.6 0 1.38214e+06 33249.8 0 1.34158e+06 33117.5 0 1.30131e+06 32790.5 0 1.26154e+06 32303.7 0 1.22246e+06 31687.1 0 1.18419e+06 30966.3 0 1.14686e+06 30163 0 1.11055e+06 29295.2 0 1.07534e+06 28378.3 0 1.04127e+06 27425 0 1.31129e+06 -1.19209e-07 0 1.35167e+06 -43334.5 0 1.41923e+06 -57571.8 0 1.48899e+06 -58132.2 0 1.55411e+06 -52587.8 0 1.61008e+06 -44271.8 0 1.65551e+06 -34951.3 0 1.68993e+06 -25479.2 0 1.71358e+06 -16329.9 0 1.72705e+06 -7774.44 0 1.73114e+06 25.4735 0 1.72678e+06 6981.33 0 1.71498e+06 13058.3 0 1.69675e+06 18262.3 0 1.67308e+06 22628.9 0 1.64488e+06 26214.5 0 1.61302e+06 29088 0 1.57827e+06 31324 0 1.54131e+06 32998.4 0 1.50274e+06 34184.6 0 1.46307e+06 34951.2 0 1.42274e+06 35361 0 1.38214e+06 35470.3 0 1.34156e+06 35328.6 0 1.30128e+06 34979.1 0 1.26151e+06 34459.4 0 1.22242e+06 33801.3 0 1.18415e+06 33032.1 0 1.14681e+06 32174.9 0 1.1105e+06 31249.1 0 1.07529e+06 30270.8 0 1.04121e+06 29253.8 0 1.30771e+06 1.19209e-07 0 1.35031e+06 -46599.6 0 1.41897e+06 -61384.4 0 1.48918e+06 -61876 0 1.55453e+06 -55920.2 0 1.61059e+06 -47056.4 0 1.65604e+06 -37138 0 1.69046e+06 -27066 0 1.71408e+06 -17340.1 0 1.72751e+06 -8247.13 0 1.73155e+06 41.8303 0 1.72715e+06 7433.02 0 1.7153e+06 13889.7 0 1.69702e+06 19418.3 0 1.6733e+06 24056.8 0 1.64507e+06 27865.4 0 1.61317e+06 30917.1 0 1.57838e+06 33291.6 0 1.54139e+06 35069.3 0 1.50279e+06 36328.4 0 1.4631e+06 37141.9 0 1.42276e+06 37576.3 0 1.38214e+06 37691.5 0 1.34155e+06 37540.2 0 1.30126e+06 37168.3 0 1.26148e+06 36615.5 0 1.22238e+06 35915.8 0 1.1841e+06 35098.2 0 1.14676e+06 34187 0 1.11045e+06 33203 0 1.07523e+06 32163.4 0 1.04116e+06 31082.6 0 1.3038e+06 0 0 1.3489e+06 -49978.6 0 1.41869e+06 -65231 0 1.48938e+06 -65640.3 0 1.55498e+06 -59260.2 0 1.61113e+06 -49844.1 0 1.65661e+06 -39325.1 0 1.69102e+06 -28651.6 0 1.71461e+06 -18348.3 0 1.728e+06 -8717.4 0 1.73199e+06 60.8796 0 1.72754e+06 7887.51 0 1.71564e+06 14723.9 0 1.69731e+06 20576.9 0 1.67354e+06 25487.3 0 1.64526e+06 29518.5 0 1.61332e+06 32748.3 0 1.5785e+06 35260.9 0 1.54148e+06 37141.8 0 1.50285e+06 38473.6 0 1.46313e+06 39333.7 0 1.42277e+06 39792.6 0 1.38213e+06 39913.6 0 1.34154e+06 39752.5 0 1.30123e+06 39358 0 1.26144e+06 38772.1 0 1.22233e+06 38030.7 0 1.18405e+06 37164.5 0 1.14671e+06 36199.4 0 1.11039e+06 35157.2 0 1.07517e+06 34056.1 0 1.04109e+06 32911.6 0 1.29954e+06 0 0 1.34746e+06 -53482.2 0 1.41841e+06 -69112 0 1.4896e+06 -69426.5 0 1.55546e+06 -62608 0 1.6117e+06 -52635.2 0 1.65722e+06 -41512.4 0 1.69161e+06 -30236.2 0 1.71518e+06 -19354.5 0 1.72852e+06 -9185.11 0 1.73246e+06 82.7826 0 1.72795e+06 8344.96 0 1.71599e+06 15561 0 1.69761e+06 21738.4 0 1.67379e+06 26920.3 0 1.64546e+06 31174 0 1.61348e+06 34581.5 0 1.57862e+06 37232.1 0 1.54156e+06 39215.9 0 1.50291e+06 40620.2 0 1.46317e+06 41526.6 0 1.42279e+06 42009.8 0 1.38213e+06 42136.5 0 1.34152e+06 41965.5 0 1.3012e+06 41548.3 0 1.2614e+06 40929.1 0 1.22229e+06 40145.9 0 1.184e+06 39231.1 0 1.14665e+06 38211.9 0 1.11033e+06 37111.5 0 1.07511e+06 35949 0 1.04103e+06 34740.6 0 1.2949e+06 -1.19209e-07 0 1.34599e+06 -57122 0 1.41811e+06 -73027.1 0 1.48985e+06 -73236 0 1.55597e+06 -65963.7 0 1.6123e+06 -55429.7 0 1.65785e+06 -43700 0 1.69223e+06 -31819.6 0 1.71577e+06 -20358.6 0 1.72907e+06 -9650.11 0 1.73295e+06 107.7 0 1.72838e+06 8805.54 0 1.71637e+06 16401.2 0 1.69793e+06 22902.9 0 1.67405e+06 28356.1 0 1.64567e+06 32832 0 1.61365e+06 36417.1 0 1.57875e+06 39205.3 0 1.54166e+06 41291.7 0 1.50297e+06 42768.2 0 1.46321e+06 43720.9 0 1.4228e+06 44228.2 0 1.38213e+06 44360.3 0 1.3415e+06 44179.3 0 1.30118e+06 43739.2 0 1.26136e+06 43086.6 0 1.22224e+06 42261.5 0 1.18395e+06 41298 0 1.14659e+06 40224.8 0 1.11027e+06 39066 0 1.07504e+06 37842 0 1.04096e+06 36569.7 0 1.28985e+06 0 0 1.34452e+06 -60910.6 0 1.4178e+06 -76975.8 0 1.49012e+06 -77070.6 0 1.5565e+06 -69327.5 0 1.61294e+06 -58228 0 1.65852e+06 -45887.8 0 1.69289e+06 -33401.6 0 1.71639e+06 -21360.3 0 1.72964e+06 -10112.2 0 1.73347e+06 135.795 0 1.72884e+06 9269.43 0 1.71676e+06 17244.7 0 1.69826e+06 24070.5 0 1.67433e+06 29794.8 0 1.6459e+06 34492.7 0 1.61383e+06 38255 0 1.57889e+06 41180.6 0 1.54176e+06 43369.3 0 1.50304e+06 44917.9 0 1.46325e+06 45916.5 0 1.42282e+06 46447.6 0 1.38213e+06 46585 0 1.34148e+06 46393.8 0 1.30114e+06 45930.7 0 1.26132e+06 45244.6 0 1.22219e+06 44377.6 0 1.18389e+06 43365.3 0 1.14653e+06 42237.8 0 1.1102e+06 41020.7 0 1.07497e+06 39735.1 0 1.04089e+06 38398.9 0 1.28435e+06 4.76837e-07 0 1.34306e+06 -64861.5 0 1.41747e+06 -80956.9 0 1.49041e+06 -80932 0 1.55706e+06 -72699.4 0 1.61361e+06 -61030.2 0 1.65923e+06 -48075.9 0 1.69358e+06 -34982.4 0 1.71705e+06 -22359.7 0 1.73024e+06 -10571.4 0 1.73401e+06 167.227 0 1.72932e+06 9736.78 0 1.71718e+06 18091.7 0 1.69861e+06 25241.4 0 1.67462e+06 31236.6 0 1.64614e+06 36156.1 0 1.61401e+06 40095.4 0 1.57903e+06 43158.1 0 1.54186e+06 45448.9 0 1.50311e+06 47069.1 0 1.46329e+06 48113.4 0 1.42284e+06 48668.2 0 1.38213e+06 48810.7 0 1.34147e+06 48609.1 0 1.30111e+06 48122.8 0 1.26128e+06 47403.2 0 1.22214e+06 46494.1 0 1.18383e+06 45432.9 0 1.14646e+06 44251.2 0 1.11013e+06 42975.6 0 1.0749e+06 41628.4 0 1.04081e+06 40228.3 0 1.27836e+06 -1.19209e-07 0 1.34163e+06 -68989.6 0 1.41712e+06 -84968.4 0 1.49073e+06 -84822.2 0 1.55765e+06 -76079.2 0 1.61432e+06 -63836.5 0 1.65996e+06 -50264.1 0 1.6943e+06 -36561.7 0 1.71773e+06 -23356.6 0 1.73087e+06 -11027.4 0 1.73458e+06 202.159 0 1.72982e+06 10207.8 0 1.71761e+06 18942.2 0 1.69898e+06 26415.7 0 1.67493e+06 32681.7 0 1.64638e+06 37822.5 0 1.61421e+06 41938.4 0 1.57918e+06 45137.8 0 1.54197e+06 47530.4 0 1.50319e+06 49222.1 0 1.46334e+06 50311.9 0 1.42286e+06 50890 0 1.38213e+06 51037.4 0 1.34145e+06 50825.3 0 1.30108e+06 50315.7 0 1.26123e+06 49562.3 0 1.22208e+06 48611 0 1.18377e+06 47500.8 0 1.1464e+06 46264.8 0 1.11006e+06 44930.7 0 1.07482e+06 43521.8 0 1.04073e+06 42057.7 0 1.27183e+06 -2.38419e-07 0 1.34025e+06 -73310.9 0 1.41675e+06 -89007.8 0 1.49108e+06 -88743.3 0 1.55827e+06 -79466.8 0 1.61506e+06 -66647.2 0 1.66073e+06 -52452.3 0 1.69506e+06 -38139.4 0 1.71845e+06 -24350.8 0 1.73153e+06 -11480 0 1.73518e+06 240.752 0 1.73034e+06 10682.6 0 1.71806e+06 19796.5 0 1.69936e+06 27593.7 0 1.67524e+06 34130 0 1.64664e+06 39491.9 0 1.61441e+06 43784.2 0 1.57933e+06 47120 0 1.54208e+06 49614.1 0 1.50326e+06 51376.9 0 1.46338e+06 52511.8 0 1.42288e+06 53113.2 0 1.38212e+06 53265.2 0 1.34143e+06 53042.3 0 1.30104e+06 52509.3 0 1.26118e+06 51722 0 1.22202e+06 50728.4 0 1.1837e+06 49569.1 0 1.14632e+06 48278.7 0 1.10998e+06 46886 0 1.07474e+06 45415.4 0 1.04065e+06 43887.3 0 1.2647e+06 1.19209e-07 0 1.33897e+06 -77842.8 0 1.41634e+06 -93071.7 0 1.49147e+06 -92697.6 0 1.55891e+06 -82861.8 0 1.61583e+06 -69462.6 0 1.66154e+06 -54640.6 0 1.69585e+06 -39715.6 0 1.71919e+06 -25342.2 0 1.73222e+06 -11929.2 0 1.73579e+06 283.166 0 1.73089e+06 11161.4 0 1.71853e+06 20654.7 0 1.69976e+06 28775.4 0 1.67557e+06 35581.9 0 1.64691e+06 41164.6 0 1.61462e+06 45632.8 0 1.57949e+06 49104.7 0 1.5422e+06 51699.9 0 1.50334e+06 53533.5 0 1.46343e+06 54713.4 0 1.4229e+06 55337.6 0 1.38212e+06 55494.1 0 1.3414e+06 55260.3 0 1.301e+06 54703.6 0 1.26113e+06 53882.3 0 1.22196e+06 52846.3 0 1.18363e+06 51637.8 0 1.14625e+06 50292.9 0 1.1099e+06 48841.6 0 1.07466e+06 47309.2 0 1.04056e+06 45717 0 1.25692e+06 -1.19209e-07 0 1.3378e+06 -82604.5 0 1.4159e+06 -97155.4 0 1.49191e+06 -96688 0 1.55957e+06 -86263.7 0 1.61665e+06 -72282.9 0 1.66237e+06 -56828.9 0 1.69667e+06 -41290.1 0 1.71997e+06 -26330.8 0 1.73294e+06 -12374.8 0 1.73644e+06 329.56 0 1.73146e+06 11644.3 0 1.71903e+06 21517.1 0 1.70018e+06 29961 0 1.67592e+06 37037.4 0 1.64719e+06 42840.5 0 1.61484e+06 47484.4 0 1.57966e+06 51092 0 1.54232e+06 53788 0 1.50343e+06 55692.1 0 1.46348e+06 56916.6 0 1.42292e+06 57563.5 0 1.38212e+06 57724.2 0 1.34138e+06 57479.2 0 1.30097e+06 56898.8 0 1.26108e+06 56043.3 0 1.2219e+06 54964.7 0 1.18356e+06 53707 0 1.14617e+06 52307.4 0 1.10982e+06 50797.4 0 1.07457e+06 49203.2 0 1.04047e+06 47546.9 0 1.2484e+06 7.15256e-07 0 1.3368e+06 -87616.8 0 1.41539e+06 -101254 0 1.49239e+06 -100717 0 1.56026e+06 -89672.1 0 1.6175e+06 -75108.4 0 1.66324e+06 -59017 0 1.69753e+06 -42862.8 0 1.72078e+06 -27316.4 0 1.73368e+06 -12816.5 0 1.73711e+06 380.093 0 1.73205e+06 12131.5 0 1.71953e+06 22383.7 0 1.70061e+06 31150.7 0 1.67628e+06 38496.7 0 1.64748e+06 44520 0 1.61507e+06 49339 0 1.57984e+06 53082.1 0 1.54245e+06 55878.4 0 1.50351e+06 57852.7 0 1.46353e+06 59121.5 0 1.42294e+06 59790.7 0 1.38211e+06 59955.4 0 1.34136e+06 59699.1 0 1.30093e+06 59094.7 0 1.26103e+06 58204.9 0 1.22183e+06 57083.6 0 1.18349e+06 55776.5 0 1.14609e+06 54322.3 0 1.10973e+06 52753.5 0 1.07448e+06 51097.3 0 1.04038e+06 49376.9 0 1.23907e+06 -4.76837e-07 0 1.33601e+06 -92902.3 0 1.41482e+06 -105359 0 1.49294e+06 -104789 0 1.56096e+06 -93086 0 1.61839e+06 -77939.5 0 1.66414e+06 -61204.9 0 1.69842e+06 -44433.6 0 1.72162e+06 -28298.9 0 1.73445e+06 -13254.3 0 1.7378e+06 434.919 0 1.73266e+06 12623.3 0 1.72006e+06 23254.7 0 1.70106e+06 32344.7 0 1.67665e+06 39960 0 1.64778e+06 46203 0 1.61531e+06 51196.9 0 1.58002e+06 55074.9 0 1.54258e+06 57971.3 0 1.5036e+06 60015.4 0 1.46358e+06 61328.2 0 1.42296e+06 62019.5 0 1.38211e+06 62188 0 1.34133e+06 61920.1 0 1.30088e+06 61291.5 0 1.26097e+06 60367.2 0 1.22177e+06 59203.1 0 1.18341e+06 57846.5 0 1.146e+06 56337.4 0 1.10964e+06 54709.8 0 1.07438e+06 52991.6 0 1.04028e+06 51207 0 1.22882e+06 4.76837e-07 0 1.33549e+06 -98486.1 0 1.41415e+06 -109464 0 1.49355e+06 -108908 0 1.56169e+06 -96504.5 0 1.61932e+06 -80776.5 0 1.66507e+06 -63392.5 0 1.69934e+06 -46002.4 0 1.72249e+06 -29278.3 0 1.73526e+06 -13688 0 1.73852e+06 494.188 0 1.7333e+06 13119.8 0 1.72061e+06 24130.3 0 1.70152e+06 33543.1 0 1.67703e+06 41427.4 0 1.64809e+06 47889.7 0 1.61556e+06 53058.1 0 1.5802e+06 57070.7 0 1.54272e+06 60066.7 0 1.50369e+06 62180.3 0 1.46364e+06 63536.7 0 1.42299e+06 64249.9 0 1.38211e+06 64421.8 0 1.34131e+06 64142.2 0 1.30084e+06 63489.2 0 1.26091e+06 62530.3 0 1.2217e+06 61323.2 0 1.18333e+06 59916.9 0 1.14592e+06 58353 0 1.10955e+06 56666.4 0 1.07429e+06 54886.1 0 1.04018e+06 53037.3 0 1.21755e+06 -4.76837e-07 0 1.3353e+06 -104395 0 1.41337e+06 -113559 0 1.49425e+06 -113078 0 1.56242e+06 -99926.3 0 1.6203e+06 -83620 0 1.66604e+06 -65579.7 0 1.7003e+06 -47569.1 0 1.72339e+06 -30254.3 0 1.73609e+06 -14117.3 0 1.73927e+06 558.046 0 1.73395e+06 13621.1 0 1.72118e+06 25010.7 0 1.702e+06 34746.1 0 1.67743e+06 42899 0 1.64841e+06 49580.3 0 1.61581e+06 54922.7 0 1.5804e+06 59069.5 0 1.54286e+06 62164.7 0 1.50379e+06 64347.4 0 1.46369e+06 65747.2 0 1.42301e+06 66481.8 0 1.3821e+06 66656.9 0 1.34128e+06 66365.3 0 1.30079e+06 65687.8 0 1.26085e+06 64694 0 1.22162e+06 63443.8 0 1.18325e+06 61987.8 0 1.14583e+06 60368.9 0 1.10945e+06 58623.3 0 1.07418e+06 56780.8 0 1.04008e+06 54867.8 0 1.20512e+06 -4.76837e-07 0 1.33554e+06 -110661 0 1.41245e+06 -117630 0 1.49505e+06 -117304 0 1.56315e+06 -103350 0 1.62133e+06 -86470.4 0 1.66703e+06 -67766.4 0 1.7013e+06 -49133.4 0 1.72432e+06 -31227 0 1.73694e+06 -14542 0 1.74004e+06 626.634 0 1.73463e+06 14127.5 0 1.72177e+06 25896 0 1.7025e+06 35953.8 0 1.67784e+06 44375 0 1.64875e+06 51274.9 0 1.61607e+06 56790.9 0 1.5806e+06 61071.4 0 1.54301e+06 64265.5 0 1.50389e+06 66516.9 0 1.46375e+06 67959.6 0 1.42304e+06 68715.5 0 1.3821e+06 68893.5 0 1.34125e+06 68589.6 0 1.30075e+06 67887.3 0 1.26079e+06 66858.6 0 1.22155e+06 65565.1 0 1.18316e+06 64059.2 0 1.14573e+06 62385.2 0 1.10935e+06 60580.4 0 1.07408e+06 58675.7 0 1.03997e+06 56698.5 0 </DataArray> 
</PointData> 
<Points> 
<DataArray type="Float32" NumberOfComponents="3"> 