<?xml version="1.0"?> 
<VTKFile type="StructuredGrid" version="0.1"> 
<StructuredGrid WholeExtent="0 31 0 31 0 0"> 
<Piece Extent="0 31 0 31 0 0"> 
<PointData>
<DataArray type="Float32" Name="|E|" format="ascii" NumberOfComponents="3"> 
374047 5.49336e+06 0 551871 5.64052e+06 0 735674 5.74906e+06 0 923975 5.82911e+06 0 1.1156e+06 5.88616e+06 0 1.30954e+06 5.92348e+06 0 1.50485e+06 5.94316e+06 0 1.70067e+06 5.94667e+06 0 1.89616e+06 5.93511e+06 0 2.09053e+06 5.90938e+06 0 2.28301e+06 5.87025e+06 0 2.47291e+06 5.81843e+06 0 2.65953e+06 5.7546e+06 0 2.84225e+06 5.67939e+06 0 3.02047e+06 5.59345e+06 0 3.19365e+06 5.49742e+06 0 3.36128e+06 5.39193e+06 0 3.52291e+06 5.27763e+06 0 3.67813e+06 5.15516e+06 0 3.82657e+06 5.02517e+06 0 3.96792e+06 4.8883e+06 0 4.10192e+06 4.7452e+06 0 4.22833e+06 4.59651e+06 0 4.34699e+06 4.44284e+06 0 4.45773e+06 4.28482e+06 0 4.56048e+06 4.12304e+06 0 4.65515e+06 3.9581e+06 0 4.74171e+06 3.79054e+06 0 4.82013e+06 3.62091e+06 0 4.89039e+06 3.44969e+06 0 4.95248e+06 3.27736e+06 0 5.00631e+06 3.10433e+06 0 840296 5.18739e+06 0 942324 5.23802e+06 0 1.05909e+06 5.28159e+06 0 1.18573e+06 5.31473e+06 0 1.31921e+06 5.33635e+06 0 1.45724e+06 5.3463e+06 0 1.59812e+06 5.34481e+06 0 1.74051e+06 5.33231e+06 0 1.88332e+06 5.3093e+06 0 2.02563e+06 5.27631e+06 0 2.16665e+06 5.23387e+06 0 2.30571e+06 5.18254e+06 0 2.44223e+06 5.12286e+06 0 2.57571e+06 5.05537e+06 0 2.7057e+06 4.98062e+06 0 2.83182e+06 4.89916e+06 0 2.95377e+06 4.81151e+06 0 3.07126e+06 4.71819e+06 0 3.18409e+06 4.61973e+06 0 3.29207e+06 4.51662e+06 0 3.39506e+06 4.40935e+06 0 3.49298e+06 4.29838e+06 0 3.58575e+06 4.18417e+06 0 3.67333e+06 4.06715e+06 0 3.75573e+06 3.94775e+06 0 3.83296e+06 3.82634e+06 0 3.90505e+06 3.70332e+06 0 3.97207e+06 3.57904e+06 0 4.03411e+06 3.45386e+06 0 4.09128e+06 3.32811e+06 0 4.14371e+06 3.20215e+06 0 4.19157e+06 3.07633e+06 0 1.02047e+06 4.91927e+06 0 1.11081e+06 4.93883e+06 0 1.20632e+06 4.95119e+06 0 1.30641e+06 4.95634e+06 0 1.41012e+06 4.95406e+06 0 1.51649e+06 4.9442e+06 0 1.62455e+06 4.92676e+06 0 1.73347e+06 4.90186e+06 0 1.84245e+06 4.86972e+06 0 1.95083e+06 4.83062e+06 0 2.05803e+06 4.78493e+06 0 2.16351e+06 4.73302e+06 0 2.26686e+06 4.6753e+06 0 2.3677e+06 4.61218e+06 0 2.46572e+06 4.54409e+06 0 2.56065e+06 4.47146e+06 0 2.65231e+06 4.39471e+06 0 2.74051e+06 4.31425e+06 0 2.82515e+06 4.23049e+06 0 2.90614e+06 4.1438e+06 0 2.98343e+06 4.05457e+06 0 3.05699e+06 3.96314e+06 0 3.12682e+06 3.86984e+06 0 3.19296e+06 3.77499e+06 0 3.25543e+06 3.67888e+06 0 3.31431e+06 3.58179e+06 0 3.36966e+06 3.48395e+06 0 3.42156e+06 3.38559e+06 0 3.47011e+06 3.28693e+06 0 3.51539e+06 3.18813e+06 0 3.55749e+06 3.08935e+06 0 3.5965e+06 2.9907e+06 0 1.11123e+06 4.69364e+06 0 1.18791e+06 4.69297e+06 0 1.26797e+06 4.68761e+06 0 1.35064e+06 4.67702e+06 0 1.43527e+06 4.66093e+06 0 1.52119e+06 4.63925e+06 0 1.60781e+06 4.61202e+06 0 1.69455e+06 4.57934e+06 0 1.78089e+06 4.54138e+06 0 1.86637e+06 4.49839e+06 0 1.95058e+06 4.45064e+06 0 2.03315e+06 4.39843e+06 0 2.1138e+06 4.34208e+06 0 2.19225e+06 4.28194e+06 0 2.26831e+06 4.21834e+06 0 2.34181e+06 4.15163e+06 0 2.41262e+06 4.08215e+06 0 2.48065e+06 4.01023e+06 0 2.54584e+06 3.93619e+06 0 2.60817e+06 3.86033e+06 0 2.66763e+06 3.78294e+06 0 2.72424e+06 3.7043e+06 0 2.77802e+06 3.62465e+06 0 2.82905e+06 3.54424e+06 0 2.87736e+06 3.46328e+06 0 2.92305e+06 3.38198e+06 0 2.96619e+06 3.3005e+06 0 3.00687e+06 3.21902e+06 0 3.04518e+06 3.13768e+06 0 3.08122e+06 3.05662e+06 0 3.11507e+06 2.97595e+06 0 3.14685e+06 2.89579e+06 0 1.14855e+06 4.5007e+06 0 1.21531e+06 4.48891e+06 0 1.28383e+06 4.47288e+06 0 1.3537e+06 4.45255e+06 0 1.42448e+06 4.42787e+06 0 1.49573e+06 4.39885e+06 0 1.56703e+06 4.36555e+06 0 1.63799e+06 4.3281e+06 0 1.70823e+06 4.28666e+06 0 1.77744e+06 4.24144e+06 0 1.84532e+06 4.19267e+06 0 1.91162e+06 4.14062e+06 0 1.97613e+06 4.08556e+06 0 2.03868e+06 4.02777e+06 0 2.09915e+06 3.96754e+06 0 2.15741e+06 3.90515e+06 0 2.21341e+06 3.84088e+06 0 2.2671e+06 3.775e+06 0 2.31846e+06 3.70777e+06 0 2.3675e+06 3.63944e+06 0 2.41423e+06 3.57025e+06 0 2.4587e+06 3.5004e+06 0 2.50096e+06 3.43009e+06 0 2.54107e+06 3.35952e+06 0 2.5791e+06 3.28886e+06 0 2.61513e+06 3.21824e+06 0 2.64925e+06 3.14781e+06 0 2.68154e+06 3.07769e+06 0 2.71209e+06 3.00799e+06 0 2.74098e+06 2.93879e+06 0 2.76832e+06 2.87018e+06 0 2.79417e+06 2.80221e+06 0 1.15571e+06 4.33616e+06 0 1.21389e+06 4.31665e+06 0 1.27308e+06 4.29367e+06 0 1.33291e+06 4.26712e+06 0 1.39306e+06 4.23702e+06 0 1.45319e+06 4.2034e+06 0 1.51298e+06 4.16636e+06 0 1.57214e+06 4.12603e+06 0 1.6304e+06 4.08259e+06 0 1.68754e+06 4.03621e+06 0 1.74333e+06 3.98713e+06 0 1.79761e+06 3.93557e+06 0 1.85023e+06 3.88177e+06 0 1.90108e+06 3.82597e+06 0 1.95007e+06 3.76841e+06 0 1.99714e+06 3.70935e+06 0 2.04226e+06 3.64902e+06 0 2.08542e+06 3.58764e+06 0 2.12662e+06 3.52543e+06 0 2.16589e+06 3.4626e+06 0 2.20326e+06 3.39933e+06 0 2.23879e+06 3.33581e+06 0 2.27253e+06 3.27219e+06 0 2.30456e+06 3.20863e+06 0 2.33494e+06 3.14526e+06 0 2.36375e+06 3.08219e+06 0 2.39108e+06 3.01954e+06 0 2.41701e+06 2.9574e+06 0 2.44162e+06 2.89584e+06 0 2.46498e+06 2.83494e+06 0 2.48719e+06 2.77475e+06 0 2.50832e+06 2.71532e+06 0 1.14353e+06 4.19435e+06 0 1.19462e+06 4.16975e+06 0 1.24619e+06 4.14209e+06 0 1.29795e+06 4.11141e+06 0 1.34965e+06 4.07773e+06 0 1.40103e+06 4.04114e+06 0 1.45184e+06 4.00175e+06 0 1.50186e+06 3.9597e+06 0 1.55089e+06 3.91515e+06 0 1.59876e+06 3.86828e+06 0 1.64531e+06 3.81929e+06 0 1.69042e+06 3.76839e+06 0 1.73399e+06 3.71579e+06 0 1.77595e+06 3.66171e+06 0 1.81624e+06 3.60636e+06 0 1.85484e+06 3.54996e+06 0 1.89174e+06 3.49271e+06 0 1.92694e+06 3.43479e+06 0 1.96047e+06 3.3764e+06 0 1.99236e+06 3.31772e+06 0 2.02265e+06 3.25889e+06 0 2.05142e+06 3.20007e+06 0 2.0787e+06 3.1414e+06 0 2.10459e+06 3.083e+06 0 2.12914e+06 3.02497e+06 0 2.15243e+06 2.96741e+06 0 2.17455e+06 2.91041e+06 0 2.19556e+06 2.85405e+06 0 2.21554e+06 2.79837e+06 0 2.23458e+06 2.74345e+06 0 2.25273e+06 2.68931e+06 0 2.27007e+06 2.636e+06 0 1.11895e+06 4.0714e+06 0 1.16403e+06 4.04315e+06 0 1.20926e+06 4.01226e+06 0 1.25439e+06 3.97874e+06 0 1.29922e+06 3.94267e+06 0 1.34354e+06 3.90414e+06 0 1.38716e+06 3.86326e+06 0 1.42991e+06 3.82018e+06 0 1.47162e+06 3.77506e+06 0 1.51218e+06 3.72807e+06 0 1.55147e+06 3.67939e+06 0 1.5894e+06 3.62922e+06 0 1.6259e+06 3.57774e+06 0 1.66093e+06 3.52515e+06 0 1.69445e+06 3.47165e+06 0 1.72647e+06 3.4174e+06 0 1.75699e+06 3.36261e+06 0 1.78602e+06 3.30743e+06 0 1.8136e+06 3.25202e+06 0 1.83977e+06 3.19654e+06 0 1.86458e+06 3.14113e+06 0 1.8881e+06 3.0859e+06 0 1.91038e+06 3.03098e+06 0 1.93149e+06 2.97647e+06 0 1.9515e+06 2.92245e+06 0 1.97048e+06 2.86902e+06 0 1.9885e+06 2.81624e+06 0 2.00565e+06 2.76416e+06 0 2.02197e+06 2.71285e+06 0 2.03755e+06 2.66234e+06 0 2.05244e+06 2.61267e+06 0 2.06672e+06 2.56386e+06 0 1.08617e+06 3.96395e+06 0 1.12613e+06 3.9331e+06 0 1.16601e+06 3.89989e+06 0 1.20561e+06 3.86439e+06 0 1.24475e+06 3.82668e+06 0 1.28327e+06 3.78685e+06 0 1.32102e+06 3.74503e+06 0 1.35785e+06 3.70136e+06 0 1.39365e+06 3.65599e+06 0 1.42831e+06 3.60908e+06 0 1.46176e+06 3.56081e+06 0 1.49394e+06 3.51136e+06 0 1.52479e+06 3.46089e+06 0 1.55429e+06 3.40958e+06 0 1.58243e+06 3.35761e+06 0 1.60922e+06 3.30515e+06 0 1.63467e+06 3.25234e+06 0 1.65881e+06 3.19935e+06 0 1.68168e+06 3.1463e+06 0 1.70332e+06 3.09334e+06 0 1.72379e+06 3.04059e+06 0 1.74315e+06 2.98815e+06 0 1.76145e+06 2.93613e+06 0 1.77877e+06 2.88461e+06 0 1.79517e+06 2.83367e+06 0 1.81071e+06 2.78338e+06 0 1.82547e+06 2.73381e+06 0 1.83951e+06 2.68499e+06 0 1.85289e+06 2.63697e+06 0 1.86567e+06 2.58979e+06 0 1.87792e+06 2.54347e+06 0 1.88969e+06 2.49804e+06 0 1.04791e+06 3.86944e+06 0 1.08347e+06 3.83665e+06 0 1.11879e+06 3.80176e+06 0 1.15371e+06 3.76484e+06 0 1.18808e+06 3.72597e+06 0 1.22175e+06 3.68526e+06 0 1.25462e+06 3.64283e+06 0 1.28656e+06 3.59882e+06 0 1.31748e+06 3.55339e+06 0 1.34731e+06 3.50667e+06 0 1.37598e+06 3.45884e+06 0 1.40346e+06 3.41005e+06 0 1.42971e+06 3.36047e+06 0 1.45472e+06 3.31026e+06 0 1.47849e+06 3.25958e+06 0 1.50104e+06 3.20857e+06 0 1.52239e+06 3.15738e+06 0 1.54258e+06 3.10615e+06 0 1.56164e+06 3.05499e+06 0 1.57962e+06 3.00404e+06 0 1.59659e+06 2.95339e+06 0 1.61258e+06 2.90314e+06 0 1.62768e+06 2.85338e+06 0 1.64193e+06 2.80419e+06 0 1.6554e+06 2.75564e+06 0 1.66816e+06 2.70779e+06 0 1.68026e+06 2.66068e+06 0 1.69176e+06 2.61436e+06 0 1.70274e+06 2.56887e+06 0 1.71323e+06 2.52423e+06 0 1.72329e+06 2.48047e+06 0 1.73299e+06 2.4376e+06 0 1.00599e+06 3.78579e+06 0 1.03773e+06 3.75154e+06 0 1.06913e+06 3.71538e+06 0 1.10004e+06 3.67741e+06 0 1.13035e+06 3.6377e+06 0 1.15992e+06 3.59638e+06 0 1.18868e+06 3.55356e+06 0 1.21651e+06 3.50937e+06 0 1.24335e+06 3.46395e+06 0 1.26915e+06 3.41747e+06 0 1.29385e+06 3.37005e+06 0 1.31742e+06 3.32186e+06 0 1.33986e+06 3.27305e+06 0 1.36116e+06 3.22376e+06 0 1.38133e+06 3.17414e+06 0 1.40039e+06 3.12433e+06 0 1.41837e+06 3.07446e+06 0 1.4353e+06 3.02464e+06 0 1.45124e+06 2.975e+06 0 1.46622e+06 2.92565e+06 0 1.4803e+06 2.87667e+06 0 1.49354e+06 2.82815e+06 0 1.506e+06 2.78018e+06 0 1.51773e+06 2.73281e+06 0 1.52879e+06 2.68613e+06 0 1.53924e+06 2.64017e+06 0 1.54915e+06 2.59498e+06 0 1.55856e+06 2.55059e+06 0 1.56753e+06 2.50705e+06 0 1.57611e+06 2.46437e+06 0 1.58435e+06 2.42257e+06 0 1.5923e+06 2.38167e+06 0 961619 3.71133e+06 0 990027 3.67594e+06 0 1.01802e+06 3.63881e+06 0 1.04547e+06 3.60004e+06 0 1.07228e+06 3.55971e+06 0 1.09835e+06 3.51794e+06 0 1.12359e+06 3.47484e+06 0 1.14793e+06 3.43056e+06 0 1.17131e+06 3.38521e+06 0 1.1937e+06 3.33894e+06 0 1.21505e+06 3.2919e+06 0 1.23534e+06 3.24422e+06 0 1.25459e+06 3.19606e+06 0 1.27278e+06 3.14753e+06 0 1.28993e+06 3.09879e+06 0 1.30607e+06 3.04995e+06 0 1.32123e+06 3.00114e+06 0 1.33545e+06 2.95247e+06 0 1.34878e+06 2.90404e+06 0 1.36126e+06 2.85596e+06 0 1.37294e+06 2.8083e+06 0 1.38389e+06 2.76115e+06 0 1.39414e+06 2.71458e+06 0 1.40377e+06 2.66866e+06 0 1.41282e+06 2.62343e+06 0 1.42135e+06 2.57895e+06 0 1.42942e+06 2.53525e+06 0 1.43708e+06 2.49237e+06 0 1.44436e+06 2.45033e+06 0 1.45134e+06 2.40916e+06 0 1.45804e+06 2.36888e+06 0 1.46451e+06 2.32949e+06 0 915636 3.64472e+06 0 941109 3.6084e+06 0 966114 3.5705e+06 0 990549 3.5311e+06 0 1.01432e+06 3.49028e+06 0 1.03735e+06 3.44817e+06 0 1.05956e+06 3.40488e+06 0 1.0809e+06 3.36052e+06 0 1.10132e+06 3.31524e+06 0 1.12079e+06 3.26917e+06 0 1.13928e+06 3.22245e+06 0 1.15679e+06 3.17519e+06 0 1.17331e+06 3.12755e+06 0 1.18886e+06 3.07965e+06 0 1.20346e+06 3.03161e+06 0 1.21713e+06 2.98356e+06 0 1.22991e+06 2.93559e+06 0 1.24185e+06 2.88783e+06 0 1.25297e+06 2.84037e+06 0 1.26334e+06 2.79329e+06 0 1.273e+06 2.74667e+06 0 1.282e+06 2.7006e+06 0 1.29041e+06 2.65513e+06 0 1.29826e+06 2.61033e+06 0 1.30561e+06 2.56624e+06 0 1.31252e+06 2.5229e+06 0 1.31903e+06 2.48036e+06 0 1.3252e+06 2.43864e+06 0 1.33106e+06 2.39777e+06 0 1.33666e+06 2.35776e+06 0 1.34204e+06 2.31864e+06 0 1.34724e+06 2.2804e+06 0 868616 3.58484e+06 0 891486 3.54777e+06 0 913856 3.50923e+06 0 935637 3.4693e+06 0 956749 3.42809e+06 0 977123 3.38569e+06 0 996700 3.34222e+06 0 1.01543e+06 3.29782e+06 0 1.03328e+06 3.25259e+06 0 1.05023e+06 3.20667e+06 0 1.06626e+06 3.16018e+06 0 1.08136e+06 3.11326e+06 0 1.09555e+06 3.06604e+06 0 1.10884e+06 3.01862e+06 0 1.12125e+06 2.97114e+06 0 1.13281e+06 2.9237e+06 0 1.14356e+06 2.8764e+06 0 1.15354e+06 2.82935e+06 0 1.16279e+06 2.78263e+06 0 1.17135e+06 2.73633e+06 0 1.17929e+06 2.69053e+06 0 1.18665e+06 2.64529e+06 0 1.19347e+06 2.60067e+06 0 1.19981e+06 2.55673e+06 0 1.20571e+06 2.51352e+06 0 1.21124e+06 2.47106e+06 0 1.21642e+06 2.42941e+06 0 1.22131e+06 2.38857e+06 0 1.22594e+06 2.34859e+06 0 1.23037e+06 2.30946e+06 0 1.23462e+06 2.27122e+06 0 1.23873e+06 2.23386e+06 0 820958 3.5308e+06 0 841503 3.49308e+06 0 861529 3.45399e+06 0 880957 3.41361e+06 0 899718 3.37204e+06 0 917754 3.32938e+06 0 935016 3.28575e+06 0 951464 3.24127e+06 0 967071 3.19606e+06 0 981819 3.15023e+06 0 995702 3.10392e+06 0 1.00872e+06 3.05725e+06 0 1.02088e+06 3.01033e+06 0 1.03221e+06 2.96328e+06 0 1.04273e+06 2.91621e+06 0 1.05247e+06 2.86924e+06 0 1.06147e+06 2.82244e+06 0 1.06977e+06 2.77593e+06 0 1.07741e+06 2.72978e+06 0 1.08443e+06 2.68408e+06 0 1.09089e+06 2.63889e+06 0 1.09682e+06 2.59428e+06 0 1.10229e+06 2.55031e+06 0 1.10733e+06 2.50702e+06 0 1.112e+06 2.46446e+06 0 1.11633e+06 2.42266e+06 0 1.12037e+06 2.38167e+06 0 1.12416e+06 2.34149e+06 0 1.12774e+06 2.30217e+06 0 1.13115e+06 2.2637e+06 0 1.13441e+06 2.2261e+06 0 1.13758e+06 2.18939e+06 0 772934 3.48185e+06 0 791390 3.44355e+06 0 809316 3.40396e+06 0 826643 3.36316e+06 0 843312 3.32126e+06 0 859273 3.27835e+06 0 874485 3.23455e+06 0 888917 3.18997e+06 0 902547 3.14472e+06 0 915365 3.09894e+06 0 927368 3.05272e+06 0 938561 3.0062e+06 0 948958 2.95949e+06 0 958581 2.91269e+06 0 967456 2.86592e+06 0 975614 2.81927e+06 0 983093 2.77284e+06 0 989932 2.72672e+06 0 996173 2.68098e+06 0 1.00186e+06 2.63571e+06 0 1.00704e+06 2.59096e+06 0 1.01175e+06 2.54681e+06 0 1.01605e+06 2.5033e+06 0 1.01997e+06 2.46048e+06 0 1.02356e+06 2.41839e+06 0 1.02686e+06 2.37707e+06 0 1.02991e+06 2.33655e+06 0 1.03276e+06 2.29685e+06 0 1.03542e+06 2.258e+06 0 1.03795e+06 2.21999e+06 0 1.04037e+06 2.18286e+06 0 1.04271e+06 2.1466e+06 0 724732 3.43736e+06 0 741298 3.39853e+06 0 757329 3.35847e+06 0 772768 3.31727e+06 0 787562 3.27504e+06 0 801668 3.23187e+06 0 815054 3.18786e+06 0 827693 3.14314e+06 0 839572 3.09782e+06 0 850682 3.052e+06 0 861025 3.00581e+06 0 870611 2.95936e+06 0 879456 2.91275e+06 0 887581 2.8661e+06 0 895016 2.81951e+06 0 901793 2.77307e+06 0 907946 2.72687e+06 0 913516 2.681e+06 0 918543 2.63554e+06 0 923070 2.59055e+06 0 927139 2.5461e+06 0 930793 2.50225e+06 0 934076 2.45905e+06 0 937028 2.41655e+06 0 939691 2.37478e+06 0 942103 2.33378e+06 0 944302 2.29358e+06 0 946324 2.25419e+06 0 948200 2.21565e+06 0 949964 2.17795e+06 0 951643 2.14112e+06 0 953266 2.10516e+06 0 676473 3.39682e+06 0 691318 3.35747e+06 0 705631 3.31695e+06 0 719362 3.27536e+06 0 732465 3.23278e+06 0 744904 3.18932e+06 0 756651 3.14508e+06 0 767688 3.10017e+06 0 778004 3.05471e+06 0 787594 3.0088e+06 0 796466 2.96255e+06 0 804629 2.91608e+06 0 812103 2.8695e+06 0 818910 2.82289e+06 0 825080 2.77637e+06 0 830644 2.73003e+06 0 835638 2.68395e+06 0 840100 2.63822e+06 0 844069 2.5929e+06 0 847586 2.54807e+06 0 850692 2.50379e+06 0 853427 2.46011e+06 0 855832 2.41709e+06 0 857946 2.37477e+06 0 859807 2.33318e+06 0 861451 2.29237e+06 0 862913 2.25234e+06 0 864225 2.21313e+06 0 865418 2.17476e+06 0 866522 2.13724e+06 0 867561 2.10057e+06 0 868562 2.06477e+06 0 628234 3.35977e+06 0 641503 3.31991e+06 0 654249 3.27894e+06 0 666425 3.23693e+06 0 677994 3.19398e+06 0 688926 3.1502e+06 0 699197 3.10568e+06 0 708793 3.06053e+06 0 717708 3.01487e+06 0 725942 2.9688e+06 0 733501 2.92242e+06 0 740401 2.87586e+06 0 746660 2.8292e+06 0 752303 2.78255e+06 0 757358 2.73601e+06 0 761857 2.68966e+06 0 765835 2.64359e+06 0 769329 2.59788e+06 0 772376 2.5526e+06 0 775016 2.50781e+06 0 777286 2.46358e+06 0 779226 2.41997e+06 0 780873 2.37701e+06 0 782264 2.33475e+06 0 783434 2.29322e+06 0 784418 2.25247e+06 0 785246 2.2125e+06 0 785949 2.17336e+06 0 786556 2.13504e+06 0 787092 2.09757e+06 0 787582 2.06096e+06 0 788048 2.0252e+06 0 580057 3.32585e+06 0 591875 3.28547e+06 0 603182 3.24402e+06 0 613937 3.20157e+06 0 624109 3.15823e+06 0 633671 3.11408e+06 0 642605 3.06923e+06 0 650901 3.02379e+06 0 658556 2.97786e+06 0 665573 2.93156e+06 0 671961 2.88498e+06 0 677735 2.83824e+06 0 682916 2.79142e+06 0 687529 2.74464e+06 0 691602 2.69798e+06 0 695166 2.65153e+06 0 698255 2.60538e+06 0 700905 2.55959e+06 0 703151 2.51424e+06 0 705031 2.4694e+06 0 706580 2.42512e+06 0 707835 2.38145e+06 0 708832 2.33845e+06 0 709604 2.29614e+06 0 710185 2.25458e+06 0 710605 2.21378e+06 0 710894 2.17378e+06 0 711080 2.13459e+06 0 711188 2.09623e+06 0 711242 2.05871e+06 0 711265 2.02204e+06 0 711277 1.98623e+06 0 531959 3.29473e+06 0 542435 3.25382e+06 0 552415 3.21186e+06 0 561864 3.16894e+06 0 570755 3.12515e+06 0 579068 3.08059e+06 0 586787 3.03536e+06 0 593907 2.98957e+06 0 600426 2.94332e+06 0 606349 2.89671e+06 0 611688 2.84986e+06 0 616460 2.80285e+06 0 620685 2.7558e+06 0 624388 2.7088e+06 0 627597 2.66194e+06 0 630343 2.6153e+06 0 632657 2.56896e+06 0 634575 2.52301e+06 0 636129 2.4775e+06 0 637355 2.4325e+06 0 638287 2.38807e+06 0 638959 2.34427e+06 0 639404 2.30112e+06 0 639653 2.25869e+06 0 639737 2.21699e+06 0 639685 2.17605e+06 0 639523 2.13592e+06 0 639276 2.09659e+06 0 638969 2.0581e+06 0 638622 2.02044e+06 0 638256 1.98364e+06 0 637889 1.94768e+06 0 483940 3.26613e+06 0 493166 3.22466e+06 0 501916 3.18216e+06 0 510160 3.13873e+06 0 517875 3.09445e+06 0 525044 3.04943e+06 0 531656 3.00376e+06 0 537708 2.95755e+06 0 543201 2.91091e+06 0 548142 2.86393e+06 0 552543 2.81672e+06 0 556423 2.76938e+06 0 559802 2.72202e+06 0 562704 2.67471e+06 0 565157 2.62756e+06 0 567190 2.58064e+06 0 568835 2.53404e+06 0 570122 2.48783e+06 0 571086 2.44208e+06 0 571757 2.39685e+06 0 572169 2.35219e+06 0 572352 2.30815e+06 0 572337 2.26479e+06 0 572154 2.22213e+06 0 571829 2.18021e+06 0 571389 2.13906e+06 0 570859 2.09871e+06 0 570261 2.05917e+06 0 569616 2.02046e+06 0 568945 1.98259e+06 0 568264 1.94557e+06 0 567591 1.9094e+06 0 435981 3.23983e+06 0 444040 3.19775e+06 0 451645 3.15468e+06 0 458772 3.11068e+06 0 465403 3.06586e+06 0 471523 3.02032e+06 0 477125 2.97415e+06 0 482207 2.92746e+06 0 486773 2.88035e+06 0 490832 2.83293e+06 0 494397 2.78529e+06 0 497486 2.73755e+06 0 500120 2.68978e+06 0 502322 2.6421e+06 0 504119 2.59458e+06 0 505539 2.54731e+06 0 506611 2.50036e+06 0 507366 2.45382e+06 0 507833 2.40774e+06 0 508043 2.36219e+06 0 508026 2.31722e+06 0 507810 2.27288e+06 0 507423 2.22921e+06 0 506892 2.18626e+06 0 506242 2.14405e+06 0 505496 2.10262e+06 0 504677 2.06198e+06 0 503806 2.02215e+06 0 502901 1.98316e+06 0 501979 1.94501e+06 0 501056 1.9077e+06 0 500146 1.87125e+06 0 388056 3.21561e+06 0 395018 3.17289e+06 0 401554 3.12918e+06 0 407644 3.08456e+06 0 413272 3.03915e+06 0 418428 2.99302e+06 0 423107 2.94629e+06 0 427310 2.89905e+06 0 431041 2.85141e+06 0 434312 2.80347e+06 0 437134 2.75533e+06 0 439527 2.7071e+06 0 441510 2.65886e+06 0 443107 2.61072e+06 0 444342 2.56276e+06 0 445243 2.51506e+06 0 445836 2.46769e+06 0 446149 2.42074e+06 0 446211 2.37426e+06 0 446049 2.32832e+06 0 445691 2.28297e+06 0 445162 2.23825e+06 0 444488 2.19422e+06 0 443692 2.1509e+06 0 442798 2.10834e+06 0 441826 2.06655e+06 0 440797 2.02556e+06 0 439727 1.98539e+06 0 438635 1.94605e+06 0 437535 1.90756e+06 0 436441 1.86991e+06 0 435365 1.83312e+06 0 340128 3.19328e+06 0 346055 3.14986e+06 0 351589 3.10547e+06 0 356712 3.06018e+06 0 361413 3.0141e+06 0 365683 2.96733e+06 0 369521 2.91996e+06 0 372928 2.8721e+06 0 375910 2.82385e+06 0 378479 2.77532e+06 0 380648 2.72661e+06 0 382434 2.67782e+06 0 383857 2.62904e+06 0 384940 2.58037e+06 0 385704 2.53188e+06 0 386176 2.48368e+06 0 386380 2.43582e+06 0 386341 2.38839e+06 0 386086 2.34144e+06 0 385639 2.29505e+06 0 385026 2.24925e+06 0 384268 2.20409e+06 0 383389 2.15963e+06 0 382411 2.11589e+06 0 381352 2.07291e+06 0 380232 2.03072e+06 0 379068 1.98932e+06 0 377876 1.94875e+06 0 376669 1.90902e+06 0 375462 1.87013e+06 0 374267 1.8321e+06 0 373093 1.79492e+06 0 292150 3.1727e+06 0 297099 3.12853e+06 0 301691 3.08338e+06 0 305913 3.03735e+06 0 309755 2.99054e+06 0 313213 2.94305e+06 0 316285 2.89497e+06 0 318975 2.84642e+06 0 321290 2.79749e+06 0 323241 2.7483e+06 0 324842 2.69894e+06 0 326109 2.64951e+06 0 327060 2.60011e+06 0 327716 2.55084e+06 0 328099 2.50177e+06 0 328230 2.45299e+06 0 328134 2.40457e+06 0 327831 2.3566e+06 0 327346 2.30912e+06 0 326701 2.2622e+06 0 325916 2.2159e+06 0 325013 2.17025e+06 0 324012 2.1253e+06 0 322931 2.08109e+06 0 321787 2.03765e+06 0 320596 1.99499e+06 0 319373 1.95315e+06 0 318132 1.91213e+06 0 316884 1.87196e+06 0 315641 1.83264e+06 0 314413 1.79417e+06 0 313209 1.75656e+06 0 244072 3.15372e+06 0 248093 3.10872e+06 0 251799 3.06276e+06 0 255179 3.01592e+06 0 258228 2.9683e+06 0 260941 2.92001e+06 0 263320 2.87116e+06 0 265370 2.82183e+06 0 267097 2.77215e+06 0 268513 2.72222e+06 0 269629 2.67213e+06 0 270463 2.622e+06 0 271029 2.57191e+06 0 271347 2.52196e+06 0 271436 2.47224e+06 0 271316 2.42282e+06 0 271006 2.37378e+06 0 270527 2.3252e+06 0 269899 2.27714e+06 0 269141 2.22965e+06 0 268270 2.18278e+06 0 267306 2.13659e+06 0 266264 2.09111e+06 0 265160 2.04638e+06 0 264009 2.00242e+06 0 262825 1.95927e+06 0 261618 1.91693e+06 0 260402 1.87544e+06 0 259185 1.83479e+06 0 257977 1.795e+06 0 256785 1.75606e+06 0 255618 1.718e+06 0 195837 3.13622e+06 0 198975 3.09033e+06 0 201845 3.04346e+06 0 204441 2.99573e+06 0 206758 2.94724e+06 0 208794 2.89807e+06 0 210552 2.84835e+06 0 212036 2.79818e+06 0 213254 2.74767e+06 0 214215 2.69692e+06 0 214932 2.64603e+06 0 215417 2.59512e+06 0 215686 2.54427e+06 0 215754 2.49358e+06 0 215639 2.44313e+06 0 215355 2.39302e+06 0 214922 2.3433e+06 0 214355 2.29406e+06 0 213671 2.24535e+06 0 212886 2.19724e+06 0 212015 2.14977e+06 0 211073 2.10299e+06 0 210072 2.05694e+06 0 209027 2.01165e+06 0 207948 1.96715e+06 0 206846 1.92346e+06 0 205732 1.8806e+06 0 204613 1.83859e+06 0 203499 1.79744e+06 0 202395 1.75715e+06 0 201309 1.71773e+06 0 200246 1.67917e+06 0 147382 3.12008e+06 0 149679 3.07321e+06 0 151762 3.02537e+06 0 153628 2.97667e+06 0 155273 2.9272e+06 0 156698 2.87708e+06 0 157906 2.82641e+06 0 158900 2.77531e+06 0 159687 2.72388e+06 0 160277 2.67224e+06 0 160679 2.62048e+06 0 160904 2.56872e+06 0 160964 2.51704e+06 0 160872 2.46554e+06 0 160642 2.41432e+06 0 160287 2.36344e+06 0 159820 2.31299e+06 0 159255 2.26304e+06 0 158604 2.21365e+06 0 157880 2.16487e+06 0 157094 2.11675e+06 0 156258 2.06934e+06 0 155383 2.02268e+06 0 154476 1.9768e+06 0 153548 1.93173e+06 0 152607 1.88748e+06 0 151660 1.84408e+06 0 150713 1.80153e+06 0 149772 1.75985e+06 0 148842 1.71905e+06 0 147929 1.67912e+06 0 147036 1.64006e+06 0 98640.6 3.10521e+06 0 100134 3.05727e+06 0 101477 3.00837e+06 0 102666 2.9586e+06 0 103701 2.90807e+06 0 104581 2.8569e+06 0 105310 2.8052e+06 0 105891 2.75309e+06 0 106330 2.70066e+06 0 106633 2.64804e+06 0 106808 2.59534e+06 0 106862 2.54265e+06 0 106805 2.49008e+06 0 106647 2.43771e+06 0 106396 2.38565e+06 0 106061 2.33396e+06 0 105654 2.28273e+06 0 105182 2.23202e+06 0 104655 2.1819e+06 0 104081 2.13242e+06 0 103468 2.08362e+06 0 102824 2.03556e+06 0 102156 1.98827e+06 0 101470 1.94177e+06 0 100772 1.8961e+06 0 100068 1.85127e+06 0 99362.5 1.80731e+06 0 98659.6 1.76421e+06 0 97963.3 1.722e+06 0 97276.9 1.68066e+06 0 96603.3 1.64022e+06 0 95944.8 1.60065e+06 0 49539.3 3.09152e+06 0 50267.8 3.04241e+06 0 50915.9 2.99234e+06 0 51482.7 2.94141e+06 0 51967.8 2.88973e+06 0 52372.1 2.83742e+06 0 52697.1 2.78459e+06 0 52945.4 2.73137e+06 0 53120.1 2.67787e+06 0 53224.8 2.6242e+06 0 53263.8 2.57047e+06 0 53241.7 2.51679e+06 0 53163.3 2.46326e+06 0 53033.6 2.40997e+06 0 52857.8 2.35701e+06 0 52640.8 2.30446e+06 0 52387.8 2.2524e+06 0 52103.4 2.2009e+06 0 51792.4 2.15001e+06 0 51459.2 2.0998e+06 0 51107.8 2.0503e+06 0 50742.2 2.00156e+06 0 50365.9 1.95361e+06 0 49982.2 1.90648e+06 0 49594 1.8602e+06 0 49204 1.81479e+06 0 48814.5 1.77025e+06 0 48427.8 1.7266e+06 0 48045.5 1.68384e+06 0 47669.5 1.64198e+06 0 47301.1 1.60101e+06 0 46941.5 1.56093e+06 0 0 3.07891e+06 0 0 3.02853e+06 0 0 2.97718e+06 0 0 2.92498e+06 0 0 2.87204e+06 0 0 2.81849e+06 0 0 2.76445e+06 0 0 2.71003e+06 0 0 2.65536e+06 0 0 2.60056e+06 0 0 2.54574e+06 0 0 2.491e+06 0 0 2.43644e+06 0 0 2.38217e+06 0 0 2.32827e+06 0 0 2.27482e+06 0 0 2.2219e+06 0 0 2.16957e+06 0 0 2.1179e+06 0 0 2.06692e+06 0 0 2.0167e+06 0 0 1.96727e+06 0 0 1.91866e+06 0 0 1.87089e+06 0 0 1.824e+06 0 0 1.77799e+06 0 0 1.73288e+06 0 0 1.68867e+06 0 0 1.64537e+06 0 0 1.60298e+06 0 0 1.5615e+06 0 0 1.52091e+06 0 </DataArray> 
</PointData> 
<Points> 
<DataArray type="Float32" NumberOfComponents="3"> 