<?xml version="1.0"?> 
<VTKFile type="StructuredGrid" version="0.1"> 
<StructuredGrid WholeExtent="0 7 0 7 0 0"> 
<Piece Extent="0 7 0 7 0 0"> 
<PointData>
<DataArray type="Float32" Name="|E|" format="ascii" NumberOfComponents="3"> 
1.73891e+06 -693609 0 1.94312e+06 44098.2 0 1.53558e+06 287549 0 1.14525e+06 256787 0 860835 184047 0 671646 114602 0 564071 54735.6 0 527203 0 0 1.86443e+06 -743676 0 1.98811e+06 86938.9 0 1.52459e+06 332646 0 1.13058e+06 289220 0 848964 205668 0 663167 128150 0 557699 61119.3 0 521603 0 0 2.00505e+06 -799767 0 2.03383e+06 141146 0 1.51062e+06 379313 0 1.11491e+06 321519 0 836111 226793 0 653915 141451 0 550645 67346.7 0 515337 0 0 2.16748e+06 -864556 0 2.07778e+06 208264 0 1.49336e+06 427242 0 1.09821e+06 353583 0 822269 247411 0 643896 154493 0 542921 73410.5 0 508407 0 0 2.36037e+06 -941494 0 2.11635e+06 290114 0 1.47275e+06 476118 0 1.08036e+06 385196 0 807446 267579 0 633117 167228 0 534539 79314.7 0 500815 0 0 2.59518e+06 -1.03516e+06 0 2.14428e+06 388815 0 1.44933e+06 525687 0 1.06117e+06 415914 0 791682 287497 0 621583 179539 0 525509 85089.7 0 492570 0 0 2.88739e+06 -1.15171e+06 0 2.15387e+06 506811 0 1.42451e+06 575879 0 1.04017e+06 444930 0 775074 307610 0 609306 191183 0 515823 90814.7 0 483703 0 0 3.25824e+06 -1.29964e+06 0 2.13376e+06 646633 0 1.40125e+06 627242 0 1.01644e+06 470601 0 757823 328939 0 596312 201613 0 505434 96688.7 0 474296 0 0 </DataArray> 
</PointData> 
<Points> 
<DataArray type="Float32" NumberOfComponents="3"> 
0.1947 0.02 0 0.220171 0.02 0 0.245643 0.02 0 0.271114 0.02 0 0.296586 0.02 0 0.322057 0.02 0 0.347529 0.02 0 0.373 0.02 0 0.195714 0.0225429 0 0.221041 0.0225429 0 0.246367 0.0225429 0 0.271694 0.0225429 0 0.29702 0.0225429 0 0.322347 0.0225429 0 0.347673 0.0225429 0 0.373 0.0225429 0 0.196729 0.0250857 0 0.22191 0.0250857 0 0.247092 0.0250857 0 0.272273 0.0250857 0 0.297455 0.0250857 0 0.322637 0.0250857 0 0.347818 0.0250857 0 0.373 0.0250857 0 0.197743 0.0276286 0 0.22278 0.0276286 0 0.247816 0.0276286 0 0.272853 0.0276286 0 0.29789 0.0276286 0 0.322927 0.0276286 0 0.347963 0.0276286 0 0.373 0.0276286 0 0.198757 0.0301714 0 0.223649 0.0301714 0 0.248541 0.0301714 0 0.273433 0.0301714 0 0.298324 0.0301714 0 0.323216 0.0301714 0 0.348108 0.0301714 0 0.373 0.0301714 0 0.199771 0.0327143 0 0.224518 0.0327143 0 0.249265 0.0327143 0 0.274012 0.0327143 0 0.298759 0.0327143 0 0.323506 0.0327143 0 0.348253 0.0327143 0 0.373 0.0327143 0 0.200786 0.0352571 0 0.225388 0.0352571 0 0.24999 0.0352571 0 0.274592 0.0352571 0 0.299194 0.0352571 0 0.323796 0.0352571 0 0.348398 0.0352571 0 0.373 0.0352571 0 0.2018 0.0378 0 0.226257 0.0378 0 0.250714 0.0378 0 0.275171 0.0378 0 0.299629 0.0378 0 0.324086 0.0378 0 0.348543 0.0378 0 0.373 0.0378 0 
</DataArray>
</Points> 
</Piece> 
</StructuredGrid> 
</VTKFile> 
