<?xml version="1.0"?> 
<VTKFile type="StructuredGrid" version="0.1"> 
<StructuredGrid WholeExtent="0 7 0 7 0 0"> 
<Piece Extent="0 7 0 7 0 0"> 
<PointData>
<DataArray type="Float32" Name="|E|" format="ascii" NumberOfComponents="3"> 
318.834 0 0 -114.933 -78.943 0 -25.0367 -3.19361 0 -11.7108 7.58084 0 -3.37275 1.40659 0 -0.748021 1.82499 0 -0.203079 0.325528 0 -0.00544696 -1.49012e-08 0 196.885 -5.96046e-08 0 -55.9126 -75.0844 0 -30.0513 -6.92335 0 -10.814 0.689585 0 -4.11459 1.94931 0 -1.31001 0.734705 0 -0.367236 0.449408 0 -0.202238 -7.45058e-09 0 123.974 5.21541e-08 0 -24.8429 -64.6836 0 -26.9321 -13.1333 0 -10.2205 -2.62328 0 -4.37087 0.509161 0 -1.51856 0.324413 0 -0.576442 0.24541 0 -0.304283 3.72529e-09 0 78.8787 -1.49012e-08 0 -9.314 -53.9816 0 -21.05 -17.832 0 -9.14387 -5.14191 0 -4.09178 -0.988945 0 -1.56038 -0.158742 0 -0.647744 0.0336565 0 -0.382853 -1.11759e-08 0 49.5945 2.98023e-08 0 -2.24468 -45.1107 0 -14.8945 -20.6594 0 -7.41449 -7.18521 0 -3.41791 -2.24923 0 -1.39807 -0.658499 0 -0.605523 -0.166309 0 -0.387766 1.49012e-08 0 29.1994 -4.47035e-08 0 0.327319 -38.7582 0 -9.33806 -22.0664 0 -5.18451 -8.72034 0 -2.44809 -3.18387 0 -1.04814 -1.08832 0 -0.466711 -0.333258 0 -0.312168 -4.47035e-08 0 13.5618 -2.98023e-08 0 0.635229 -34.9696 0 -4.46459 -22.6408 0 -2.65748 -9.67082 0 -1.27614 -3.76728 0 -0.560329 -1.37652 0 -0.253736 -0.446898 0 -0.173421 8.19564e-08 0 -7.45058e-09 5.96046e-08 0 -1.86265e-09 -33.6382 0 2.79397e-09 -22.791 0 5.58794e-09 -10.0113 0 -5.58794e-09 -3.97876 0 1.11759e-08 -1.4842 0 -2.23517e-08 -0.489988 0 4.47035e-08 -7.45058e-08 0 </DataArray> 
</PointData> 
<Points> 
<DataArray type="Float32" NumberOfComponents="3"> 
0.13 0.035 0 0.137857 0.0328571 0 0.145714 0.0307143 0 0.153571 0.0285714 0 0.161429 0.0264286 0 0.169286 0.0242857 0 0.177143 0.0221429 0 0.185 0.02 0 0.13 0.0364286 0 0.137857 0.0345918 0 0.145714 0.0327551 0 0.153571 0.0309184 0 0.161429 0.0290816 0 0.169286 0.0272449 0 0.177143 0.0254082 0 0.185 0.0235714 0 0.13 0.0378571 0 0.137857 0.0363265 0 0.145714 0.0347959 0 0.153571 0.0332653 0 0.161429 0.0317347 0 0.169286 0.0302041 0 0.177143 0.0286735 0 0.185 0.0271429 0 0.13 0.0392857 0 0.137857 0.0380612 0 0.145714 0.0368367 0 0.153571 0.0356122 0 0.161429 0.0343878 0 0.169286 0.0331633 0 0.177143 0.0319388 0 0.185 0.0307143 0 0.13 0.0407143 0 0.137857 0.0397959 0 0.145714 0.0388776 0 0.153571 0.0379592 0 0.161429 0.0370408 0 0.169286 0.0361224 0 0.177143 0.0352041 0 0.185 0.0342857 0 0.13 0.0421429 0 0.137857 0.0415306 0 0.145714 0.0409184 0 0.153571 0.0403061 0 0.161429 0.0396939 0 0.169286 0.0390816 0 0.177143 0.0384694 0 0.185 0.0378571 0 0.13 0.0435714 0 0.137857 0.0432653 0 0.145714 0.0429592 0 0.153571 0.0426531 0 0.161429 0.0423469 0 0.169286 0.0420408 0 0.177143 0.0417347 0 0.185 0.0414286 0 0.13 0.045 0 0.137857 0.045 0 0.145714 0.045 0 0.153571 0.045 0 0.161429 0.045 0 0.169286 0.045 0 0.177143 0.045 0 0.185 0.045 0 
</DataArray>
</Points> 
</Piece> 
</StructuredGrid> 
</VTKFile> 
