<?xml version="1.0"?> 
<VTKFile type="StructuredGrid" version="0.1"> 
<StructuredGrid WholeExtent="0 7 0 7 0 0"> 
<Piece Extent="0 7 0 7 0 0"> 
<PointData>
<DataArray type="Float32" Name="|E|" format="ascii" NumberOfComponents="3"> 
-2.13772e+06 0 0 -2.16753e+06 52068.6 0 -2.25291e+06 102626 0 -2.39902e+06 157491 0 -2.61789e+06 220262 0 -2.94273e+06 292521 0 -3.36856e+06 320815 0 -3.78208e+06 68293.2 0 -2.13426e+06 0 0 -2.15665e+06 49082.7 0 -2.22024e+06 96488.7 0 -2.32825e+06 148630 0 -2.48479e+06 209553 0 -2.70608e+06 291487 0 -3.01977e+06 396359 0 -3.40832e+06 480811 0 -2.13039e+06 0 0 -2.14636e+06 44842.5 0 -2.19167e+06 88526.9 0 -2.2679e+06 135487 0 -2.37717e+06 190720 0 -2.52307e+06 259608 0 -2.72082e+06 351955 0 -2.9865e+06 490130 0 -2.12609e+06 0 0 -2.13665e+06 39327.6 0 -2.16701e+06 78290.2 0 -2.21748e+06 118940 0 -2.28932e+06 165539 0 -2.38352e+06 222470 0 -2.50266e+06 297048 0 -2.65598e+06 394581 0 -2.12134e+06 0 0 -2.12757e+06 32640.6 0 -2.14602e+06 65504.3 0 -2.17657e+06 99289.9 0 -2.21944e+06 136255 0 -2.27538e+06 178670 0 -2.34459e+06 231262 0 -2.42855e+06 296170 0 -2.11614e+06 0 0 -2.11917e+06 24818.3 0 -2.12854e+06 50125.8 0 -2.1444e+06 75958.3 0 -2.16646e+06 103123 0 -2.19481e+06 132697 0 -2.22972e+06 165911 0 -2.27144e+06 203432 0 -2.11044e+06 0 0 -2.11152e+06 15993.6 0 -2.11471e+06 32099.3 0 -2.12048e+06 48514.4 0 -2.1288e+06 65035 0 -2.13947e+06 81773.4 0 -2.1524e+06 98957.9 0 -2.16766e+06 116078 0 -2.10422e+06 0 0 -2.10452e+06 6532.33 0 -2.10517e+06 11078.8 0 -2.10586e+06 13303.5 0 -2.1067e+06 14527.4 0 -2.10788e+06 15139.6 0 -2.10952e+06 14439.7 0 -2.11164e+06 11012.4 0 </DataArray> 
</PointData> 
<Points> 
<DataArray type="Float32" NumberOfComponents="3"> 
0 0.01 0 0.0107143 0.01 0 0.0214286 0.01 0 0.0321429 0.01 0 0.0428571 0.01 0 0.0535714 0.01 0 0.0642857 0.01 0 0.075 0.01 0 0 0.0108571 0 0.00930612 0.0108571 0 0.0186122 0.0108571 0 0.0279184 0.0108571 0 0.0372245 0.0108571 0 0.0465306 0.0108571 0 0.0558367 0.0108571 0 0.0651429 0.0108571 0 0 0.0117143 0 0.00789796 0.0117143 0 0.0157959 0.0117143 0 0.0236939 0.0117143 0 0.0315918 0.0117143 0 0.0394898 0.0117143 0 0.0473878 0.0117143 0 0.0552857 0.0117143 0 0 0.0125714 0 0.0064898 0.0125714 0 0.0129796 0.0125714 0 0.0194694 0.0125714 0 0.0259592 0.0125714 0 0.032449 0.0125714 0 0.0389388 0.0125714 0 0.0454286 0.0125714 0 0 0.0134286 0 0.00508163 0.0134286 0 0.0101633 0.0134286 0 0.0152449 0.0134286 0 0.0203265 0.0134286 0 0.0254082 0.0134286 0 0.0304898 0.0134286 0 0.0355714 0.0134286 0 0 0.0142857 0 0.00367347 0.0142857 0 0.00734694 0.0142857 0 0.0110204 0.0142857 0 0.0146939 0.0142857 0 0.0183673 0.0142857 0 0.0220408 0.0142857 0 0.0257143 0.0142857 0 0 0.0151429 0 0.00226531 0.0151429 0 0.00453061 0.0151429 0 0.00679592 0.0151429 0 0.00906122 0.0151429 0 0.0113265 0.0151429 0 0.0135918 0.0151429 0 0.0158571 0.0151429 0 0 0.016 0 0.000857143 0.016 0 0.00171429 0.016 0 0.00257143 0.016 0 0.00342857 0.016 0 0.00428571 0.016 0 0.00514286 0.016 0 0.006 0.016 0 
</DataArray>
</Points> 
</Piece> 
</StructuredGrid> 
</VTKFile> 
