<?xml version="1.0"?> 
<VTKFile type="StructuredGrid" version="0.1"> 
<StructuredGrid WholeExtent="0 7 0 7 0 0"> 
<Piece Extent="0 7 0 7 0 0"> 
<PointData>
<DataArray type="Float32" Name="|E|" format="ascii" NumberOfComponents="3"> 
-2.08592e+06 174546 0 -2.16765e+06 268653 0 -2.27713e+06 385603 0 -2.43623e+06 501580 0 -2.65984e+06 718430 0 -2.90897e+06 1.11603e+06 0 -3.60833e+06 -733861 0 -5.7895e+06 1.81073e+07 0 -2.18053e+06 315231 0 -2.28414e+06 441855 0 -2.43103e+06 593312 0 -2.62397e+06 759953 0 -2.87041e+06 960369 0 -3.37552e+06 1.47983e+06 0 -3.31409e+06 3.34071e+06 0 -402360 2.9322e+06 0 -2.32446e+06 522240 0 -2.47656e+06 693337 0 -2.65894e+06 864075 0 -2.86839e+06 1.13673e+06 0 -3.08603e+06 1.7453e+06 0 -2.81388e+06 2.43445e+06 0 -1.43953e+06 2.81104e+06 0 -383912 1.28945e+06 0 -2.58859e+06 930957 0 -2.72286e+06 1.15247e+06 0 -2.82202e+06 1.54492e+06 0 -2.7856e+06 2.06452e+06 0 -2.38503e+06 2.39382e+06 0 -1.53952e+06 2.34382e+06 0 -895928 1.83397e+06 0 -750327 1.17307e+06 0 -2.66765e+06 1.75057e+06 0 -2.58782e+06 2.13603e+06 0 -2.34378e+06 2.34888e+06 0 -1.92157e+06 2.26969e+06 0 -1.4139e+06 1.89865e+06 0 -1.09484e+06 1.49658e+06 0 -949014 1.02087e+06 0 -738407 537227 0 -2.06554e+06 2.34827e+06 0 -1.78491e+06 2.09155e+06 0 -1.52859e+06 1.68622e+06 0 -1.32366e+06 1.22592e+06 0 -1.20274e+06 904341 0 -1.06007e+06 587426 0 -809326 239318 0 -514933 7362.37 0 -1.51716e+06 1.4098e+06 0 -1.43842e+06 619538 0 -1.31003e+06 167068 0 -1.1317e+06 -4243.65 0 -879021 -105187 0 -587218 -193955 0 -331801 -212020 0 -149411 -181221 0 1.78814e-07 -8.91812e+06 0 -1.11759e-07 -4.998e+06 0 0 -2.28686e+06 0 1.49012e-08 -662189 0 -2.98023e-08 75214 0 4.47035e-08 259011 0 -5.96046e-08 196137 0 0 77112.3 0 </DataArray> 
</PointData> 
<Points> 
<DataArray type="Float32" NumberOfComponents="3"> 
0.016 0.021 0 0.0244286 0.021 0 0.0328571 0.021 0 0.0412857 0.021 0 0.0497143 0.021 0 0.0581429 0.021 0 0.0665714 0.021 0 0.075 0.021 0 0.028 0.023 0 0.0354286 0.023 0 0.0428571 0.023 0 0.0502857 0.023 0 0.0577143 0.023 0 0.0651429 0.023 0 0.0725714 0.023 0 0.08 0.023 0 0.04 0.025 0 0.0464286 0.025 0 0.0528571 0.025 0 0.0592857 0.025 0 0.0657143 0.025 0 0.0721429 0.025 0 0.0785714 0.025 0 0.085 0.025 0 0.052 0.027 0 0.0574286 0.027 0 0.0628571 0.027 0 0.0682857 0.027 0 0.0737143 0.027 0 0.0791429 0.027 0 0.0845714 0.027 0 0.09 0.027 0 0.064 0.029 0 0.0684286 0.029 0 0.0728571 0.029 0 0.0772857 0.029 0 0.0817143 0.029 0 0.0861429 0.029 0 0.0905714 0.029 0 0.095 0.029 0 0.076 0.031 0 0.0794286 0.031 0 0.0828571 0.031 0 0.0862857 0.031 0 0.0897143 0.031 0 0.0931429 0.031 0 0.0965714 0.031 0 0.1 0.031 0 0.088 0.033 0 0.0904286 0.033 0 0.0928571 0.033 0 0.0952857 0.033 0 0.0977143 0.033 0 0.100143 0.033 0 0.102571 0.033 0 0.105 0.033 0 0.1 0.035 0 0.101429 0.035 0 0.102857 0.035 0 0.104286 0.035 0 0.105714 0.035 0 0.107143 0.035 0 0.108571 0.035 0 0.11 0.035 0 
</DataArray>
</Points> 
</Piece> 
</StructuredGrid> 
</VTKFile> 
