<?xml version="1.0"?> 
<VTKFile type="StructuredGrid" version="0.1"> 
<StructuredGrid WholeExtent="0 7 0 7 0 0"> 
<Piece Extent="0 7 0 7 0 0"> 
<PointData>
<DataArray type="Float32" Name="|E|" format="ascii" NumberOfComponents="3"> 
-1.66922e+06 0 0 -1.70046e+06 273781 0 -1.7872e+06 571261 0 -1.91923e+06 892598 0 -2.02866e+06 1.30218e+06 0 -2.08792e+06 1.57584e+06 0 -2.05443e+06 1.35898e+06 0 -3.31568e+06 3.45064e+06 0 -1.56044e+06 0 0 -1.60103e+06 293481 0 -1.69129e+06 600104 0 -1.82247e+06 935049 0 -1.95399e+06 1.30924e+06 0 -2.03164e+06 1.59577e+06 0 -2.21572e+06 1.46746e+06 0 -2.74244e+06 2.05484e+06 0 -1.44443e+06 0 0 -1.49524e+06 310400 0 -1.59168e+06 628377 0 -1.72668e+06 968874 0 -1.87603e+06 1.32962e+06 0 -1.99313e+06 1.61604e+06 0 -2.29388e+06 1.5536e+06 0 -2.60893e+06 1.37126e+06 0 -1.32161e+06 0 0 -1.38414e+06 325460 0 -1.48855e+06 654421 0 -1.63055e+06 999529 0 -1.79695e+06 1.35523e+06 0 -1.9567e+06 1.64379e+06 0 -2.33432e+06 1.63661e+06 0 -2.69378e+06 969613 0 -1.19276e+06 0 0 -1.26828e+06 338917 0 -1.38217e+06 678229 0 -1.53326e+06 1.02838e+06 0 -1.71652e+06 1.38388e+06 0 -1.91653e+06 1.67898e+06 0 -2.35172e+06 1.72344e+06 0 -2.90084e+06 754131 0 -1.05864e+06 0 0 -1.14816e+06 350916 0 -1.27274e+06 699954 0 -1.43428e+06 1.05591e+06 0 -1.634e+06 1.41434e+06 0 -1.87029e+06 1.72023e+06 0 -2.34997e+06 1.81679e+06 0 -3.16874e+06 695565 0 -919941 0 0 -1.02421e+06 361542 0 -1.16043e+06 719743 0 -1.33326e+06 1.08213e+06 0 -1.5487e+06 1.44578e+06 0 -1.81711e+06 1.76571e+06 0 -2.32945e+06 1.91607e+06 0 -3.44337e+06 791651 0 -777311 0 0 -896901 370845 0 -1.04538e+06 737677 0 -1.23003e+06 1.10694e+06 0 -1.4602e+06 1.47736e+06 0 -1.75672e+06 1.81358e+06 0 -2.29025e+06 2.01865e+06 0 -3.67606e+06 1.03024e+06 0 </DataArray> 
</PointData> 
<Points> 
<DataArray type="Float32" NumberOfComponents="3"> 
0 0.045 0 0.0142857 0.045 0 0.0285714 0.045 0 0.0428571 0.045 0 0.0571429 0.045 0 0.0714286 0.045 0 0.0857143 0.045 0 0.1 0.045 0 0 0.0505 0 0.0142857 0.0499184 0 0.0285714 0.0493367 0 0.0428571 0.0487551 0 0.0571429 0.0481735 0 0.0714286 0.0475918 0 0.0857143 0.0470102 0 0.1 0.0464286 0 0 0.056 0 0.0142857 0.0548367 0 0.0285714 0.0536735 0 0.0428571 0.0525102 0 0.0571429 0.0513469 0 0.0714286 0.0501837 0 0.0857143 0.0490204 0 0.1 0.0478571 0 0 0.0615 0 0.0142857 0.0597551 0 0.0285714 0.0580102 0 0.0428571 0.0562653 0 0.0571429 0.0545204 0 0.0714286 0.0527755 0 0.0857143 0.0510306 0 0.1 0.0492857 0 0 0.067 0 0.0142857 0.0646735 0 0.0285714 0.0623469 0 0.0428571 0.0600204 0 0.0571429 0.0576939 0 0.0714286 0.0553673 0 0.0857143 0.0530408 0 0.1 0.0507143 0 0 0.0725 0 0.0142857 0.0695918 0 0.0285714 0.0666837 0 0.0428571 0.0637755 0 0.0571429 0.0608673 0 0.0714286 0.0579592 0 0.0857143 0.055051 0 0.1 0.0521429 0 0 0.078 0 0.0142857 0.0745102 0 0.0285714 0.0710204 0 0.0428571 0.0675306 0 0.0571429 0.0640408 0 0.0714286 0.060551 0 0.0857143 0.0570612 0 0.1 0.0535714 0 0 0.0835 0 0.0142857 0.0794286 0 0.0285714 0.0753571 0 0.0428571 0.0712857 0 0.0571429 0.0672143 0 0.0714286 0.0631429 0 0.0857143 0.0590714 0 0.1 0.055 0 
</DataArray>
</Points> 
</Piece> 
</StructuredGrid> 
</VTKFile> 
