<?xml version="1.0"?> 
<VTKFile type="StructuredGrid" version="0.1"> 
<StructuredGrid WholeExtent="0 7 0 7 0 0"> 
<Piece Extent="0 7 0 7 0 0"> 
<PointData>
<DataArray type="Float32" Name="|E|" format="ascii" NumberOfComponents="3"> 
1.28127e+06 -130742 0 1.75102e+06 -21434.1 0 1.55907e+06 62995.5 0 1.2017e+06 64153 0 906957 47499.8 0 704089 29651.2 0 587574 14205.1 0 547451 0 0 1.28356e+06 -130975 0 1.75586e+06 -24967.6 0 1.5591e+06 71921.3 0 1.2008e+06 73429.9 0 906139 53980 0 703490 33868.1 0 587125 16155.6 0 547060 0 0 1.28426e+06 -131047 0 1.76165e+06 -28418.2 0 1.55911e+06 80910.2 0 1.19989e+06 82733.1 0 905247 60440.7 0 702828 38086.1 0 586623 18100.9 0 546615 0 0 1.28335e+06 -130954 0 1.7684e+06 -31788.8 0 1.55908e+06 89962.9 0 1.19895e+06 92071.2 0 904278 66877.1 0 702103 42307.2 0 586068 20040 0 546115 0 0 1.28078e+06 -130692 0 1.77616e+06 -35081.9 0 1.55899e+06 99079.4 0 1.19799e+06 101453 0 903233 73284.3 0 701315 46533.7 0 585461 21971.8 0 545561 0 0 1.27652e+06 -130257 0 1.78495e+06 -38299.3 0 1.55882e+06 108259 0 1.19702e+06 110887 0 902111 79656.8 0 700465 50768 0 584802 23895 0 544952 0 0 1.27048e+06 -129641 0 1.79482e+06 -41442.2 0 1.55856e+06 117500 0 1.19604e+06 120384 0 900911 85988.7 0 699551 55013 0 584092 25808.4 0 544287 0 0 1.26261e+06 -128838 0 1.80582e+06 -44510.6 0 1.55819e+06 126800 0 1.19506e+06 129956 0 899630 92273 0 698574 59271.9 0 583330 27710.3 0 543565 0 0 </DataArray> 
</PointData> 
<Points> 
<DataArray type="Float32" NumberOfComponents="3"> 
0.19 0.005 0 0.216143 0.005 0 0.242286 0.005 0 0.268429 0.005 0 0.294571 0.005 0 0.320714 0.005 0 0.346857 0.005 0 0.373 0.005 0 0.190071 0.0057 0 0.216204 0.0057 0 0.242337 0.0057 0 0.268469 0.0057 0 0.294602 0.0057 0 0.320735 0.0057 0 0.346867 0.0057 0 0.373 0.0057 0 0.190143 0.0064 0 0.216265 0.0064 0 0.242388 0.0064 0 0.26851 0.0064 0 0.294633 0.0064 0 0.320755 0.0064 0 0.346878 0.0064 0 0.373 0.0064 0 0.190214 0.0071 0 0.216327 0.0071 0 0.242439 0.0071 0 0.268551 0.0071 0 0.294663 0.0071 0 0.320776 0.0071 0 0.346888 0.0071 0 0.373 0.0071 0 0.190286 0.0078 0 0.216388 0.0078 0 0.24249 0.0078 0 0.268592 0.0078 0 0.294694 0.0078 0 0.320796 0.0078 0 0.346898 0.0078 0 0.373 0.0078 0 0.190357 0.0085 0 0.216449 0.0085 0 0.242541 0.0085 0 0.268633 0.0085 0 0.294724 0.0085 0 0.320816 0.0085 0 0.346908 0.0085 0 0.373 0.0085 0 0.190429 0.0092 0 0.21651 0.0092 0 0.242592 0.0092 0 0.268673 0.0092 0 0.294755 0.0092 0 0.320837 0.0092 0 0.346918 0.0092 0 0.373 0.0092 0 0.1905 0.0099 0 0.216571 0.0099 0 0.242643 0.0099 0 0.268714 0.0099 0 0.294786 0.0099 0 0.320857 0.0099 0 0.346929 0.0099 0 0.373 0.0099 0 
</DataArray>
</Points> 
</Piece> 
</StructuredGrid> 
</VTKFile> 
