<?xml version="1.0"?> 
<VTKFile type="StructuredGrid" version="0.1"> 
<StructuredGrid WholeExtent="0 7 0 7 0 0"> 
<Piece Extent="0 7 0 7 0 0"> 
<PointData>
<DataArray type="Float32" Name="|E|" format="ascii" NumberOfComponents="3"> 
-2.13665e+06 0 0 -2.16874e+06 0.136206 0 -2.26092e+06 0.248668 0 -2.41977e+06 0.535547 0 -2.65774e+06 0.0133653 0 -2.98286e+06 -3.17841 0 -3.35156e+06 -10.0512 0 -3.56632e+06 -2.38419e-07 0 -2.13614e+06 0 0 -2.1682e+06 7867.56 0 -2.26032e+06 16311.5 0 -2.41906e+06 25936 0 -2.65693e+06 37662.1 0 -2.9824e+06 48365.8 0 -3.35295e+06 43792.2 0 -3.57086e+06 9.31323e-08 0 -2.13459e+06 0 0 -2.16659e+06 15724.1 0 -2.25854e+06 32602.8 0 -2.41692e+06 51828.8 0 -2.65447e+06 75320.3 0 -2.981e+06 96988.5 0 -3.35707e+06 88408.6 0 -3.58471e+06 -1.04308e-07 0 -2.13201e+06 0 0 -2.16391e+06 23559.7 0 -2.25557e+06 48854.4 0 -2.41337e+06 77639.8 0 -2.65033e+06 112964 0 -2.97859e+06 146103 0 -3.36373e+06 134633 0 -3.60848e+06 8.9407e-08 0 -2.1284e+06 0 0 -2.16017e+06 31365 0 -2.25142e+06 65046.2 0 -2.40841e+06 103334 0 -2.64447e+06 150565 0 -2.97509e+06 195939 0 -3.37257e+06 183275 0 -3.64331e+06 -4.47035e-08 0 -2.12377e+06 0 0 -2.15536e+06 39132.1 0 -2.24609e+06 81154.4 0 -2.40205e+06 128884 0 -2.63681e+06 188069 0 -2.9704e+06 246725 0 -3.38298e+06 235206 0 -3.69095e+06 1.49012e-08 0 -2.11812e+06 0 0 -2.1495e+06 46855.6 0 -2.23959e+06 97148.4 0 -2.39431e+06 154278 0 -2.62721e+06 225377 0 -2.96447e+06 298700 0 -3.39401e+06 291354 0 -3.75399e+06 2.98023e-08 0 -2.11146e+06 0 0 -2.14259e+06 54536.6 0 -2.23193e+06 112980 0 -2.38523e+06 179541 0 -2.61551e+06 262302 0 -2.95734e+06 352145 0 -3.40411e+06 352747 0 -3.83623e+06 1.19209e-07 0 </DataArray> 
</PointData> 
<Points> 
<DataArray type="Float32" NumberOfComponents="3"> 
0 0 0 0.0107143 0 0 0.0214286 0 0 0.0321429 0 0 0.0428571 0 0 0.0535714 0 0 0.0642857 0 0 0.075 0 0 0 0.00142857 0 0.0107143 0.00142857 0 0.0214286 0.00142857 0 0.0321429 0.00142857 0 0.0428571 0.00142857 0 0.0535714 0.00142857 0 0.0642857 0.00142857 0 0.075 0.00142857 0 0 0.00285714 0 0.0107143 0.00285714 0 0.0214286 0.00285714 0 0.0321429 0.00285714 0 0.0428571 0.00285714 0 0.0535714 0.00285714 0 0.0642857 0.00285714 0 0.075 0.00285714 0 0 0.00428571 0 0.0107143 0.00428571 0 0.0214286 0.00428571 0 0.0321429 0.00428571 0 0.0428571 0.00428571 0 0.0535714 0.00428571 0 0.0642857 0.00428571 0 0.075 0.00428571 0 0 0.00571429 0 0.0107143 0.00571429 0 0.0214286 0.00571429 0 0.0321429 0.00571429 0 0.0428571 0.00571429 0 0.0535714 0.00571429 0 0.0642857 0.00571429 0 0.075 0.00571429 0 0 0.00714286 0 0.0107143 0.00714286 0 0.0214286 0.00714286 0 0.0321429 0.00714286 0 0.0428571 0.00714286 0 0.0535714 0.00714286 0 0.0642857 0.00714286 0 0.075 0.00714286 0 0 0.00857143 0 0.0107143 0.00857143 0 0.0214286 0.00857143 0 0.0321429 0.00857143 0 0.0428571 0.00857143 0 0.0535714 0.00857143 0 0.0642857 0.00857143 0 0.075 0.00857143 0 0 0.01 0 0.0107143 0.01 0 0.0214286 0.01 0 0.0321429 0.01 0 0.0428571 0.01 0 0.0535714 0.01 0 0.0642857 0.01 0 0.075 0.01 0 
</DataArray>
</Points> 
</Piece> 
</StructuredGrid> 
</VTKFile> 
