<?xml version="1.0"?> 
<VTKFile type="StructuredGrid" version="0.1"> 
<StructuredGrid WholeExtent="0 7 0 7 0 0"> 
<Piece Extent="0 7 0 7 0 0"> 
<PointData>
<DataArray type="Float32" Name="|E|" format="ascii" NumberOfComponents="3"> 
277090 4.20266e+06 0 274861 4.16884e+06 0 273764 4.1522e+06 0 273878 4.15394e+06 0 275505 4.17861e+06 0 279296 4.2361e+06 0 286629 4.34733e+06 0 300999 4.56528e+06 0 216105 4.19132e+06 0 236478 4.1561e+06 0 257644 4.13529e+06 0 283117 4.12921e+06 0 317368 4.14017e+06 0 367719 4.17271e+06 0 446945 4.23378e+06 0 584560 4.329e+06 0 157156 4.15022e+06 0 193881 4.11689e+06 0 230482 4.09171e+06 0 271900 4.07429e+06 0 323615 4.06435e+06 0 392804 4.06088e+06 0 489200 4.06016e+06 0 625549 4.05077e+06 0 107101 4.09169e+06 0 150420 4.06236e+06 0 192850 4.03421e+06 0 238887 4.00672e+06 0 292928 3.97854e+06 0 359590 3.94697e+06 0 443434 3.90705e+06 0 547814 3.8506e+06 0 68374.6 4.03021e+06 0 108825 4.00528e+06 0 148128 3.97577e+06 0 189525 3.94137e+06 0 235905 3.90083e+06 0 289792 3.85181e+06 0 352985 3.79073e+06 0 425759 3.71285e+06 0 39714.1 3.97788e+06 0 70228 3.95657e+06 0 99777.2 3.92674e+06 0 130313 3.88842e+06 0 163477 3.84077e+06 0 200515 3.78226e+06 0 242067 3.71077e+06 0 287843 3.62389e+06 0 18087.1 3.94292e+06 0 34337.4 3.92388e+06 0 50055.3 3.89418e+06 0 66129.7 3.85399e+06 0 83284 3.80288e+06 0 102022 3.7399e+06 0 122535 3.66385e+06 0 144562 3.57347e+06 0 0 3.92988e+06 0 0 3.91166e+06 0 0 3.88205e+06 0 0 3.84131e+06 0 0 3.78913e+06 0 0 3.72481e+06 0 0 3.64744e+06 0 0 3.55621e+06 0 </DataArray> 
</PointData> 
<Points> 
<DataArray type="Float32" NumberOfComponents="3"> 
0.1465 0.0627913 0 0.1515 0.0624616 0 0.1565 0.0621319 0 0.1615 0.0618023 0 0.1665 0.0614726 0 0.1715 0.061143 0 0.1765 0.0608133 0 0.1815 0.0604836 0 0.1465 0.0698211 0 0.1515 0.0695385 0 0.1565 0.069256 0 0.1615 0.0689734 0 0.1665 0.0686908 0 0.1715 0.0684083 0 0.1765 0.0681257 0 0.1815 0.0678431 0 0.1465 0.0768509 0 0.1515 0.0766154 0 0.1565 0.07638 0 0.1615 0.0761445 0 0.1665 0.075909 0 0.1715 0.0756735 0 0.1765 0.0754381 0 0.1815 0.0752026 0 0.1465 0.0838807 0 0.1515 0.0836923 0 0.1565 0.083504 0 0.1615 0.0833156 0 0.1665 0.0831272 0 0.1715 0.0829388 0 0.1765 0.0827505 0 0.1815 0.0825621 0 0.1465 0.0909105 0 0.1515 0.0907693 0 0.1565 0.090628 0 0.1615 0.0904867 0 0.1665 0.0903454 0 0.1715 0.0902041 0 0.1765 0.0900628 0 0.1815 0.0899216 0 0.1465 0.0979404 0 0.1515 0.0978462 0 0.1565 0.097752 0 0.1615 0.0976578 0 0.1665 0.0975636 0 0.1715 0.0974694 0 0.1765 0.0973752 0 0.1815 0.097281 0 0.1465 0.10497 0 0.1515 0.104923 0 0.1565 0.104876 0 0.1615 0.104829 0 0.1665 0.104782 0 0.1715 0.104735 0 0.1765 0.104688 0 0.1815 0.104641 0 0.1465 0.112 0 0.1515 0.112 0 0.1565 0.112 0 0.1615 0.112 0 0.1665 0.112 0 0.1715 0.112 0 0.1765 0.112 0 0.1815 0.112 0 
</DataArray>
</Points> 
</Piece> 
</StructuredGrid> 
</VTKFile> 
