<?xml version="1.0"?> 
<VTKFile type="StructuredGrid" version="0.1"> 
<StructuredGrid WholeExtent="0 7 0 7 0 0"> 
<Piece Extent="0 7 0 7 0 0"> 
<PointData>
<DataArray type="Float32" Name="|E|" format="ascii" NumberOfComponents="3"> 
-2.11146e+06 0 0 -2.14259e+06 54466 0 -2.23193e+06 107546 0 -2.38523e+06 165332 0 -2.61551e+06 231580 0 -2.95734e+06 307508 0 -3.40411e+06 336375 0 -3.83623e+06 70622.7 0 -2.10784e+06 0 0 -2.13121e+06 51328.3 0 -2.19769e+06 101065 0 -2.31088e+06 155953 0 -2.47538e+06 220252 0 -2.7084e+06 306621 0 -3.0384e+06 416104 0 -3.44592e+06 502189 0 -2.10379e+06 0 0 -2.12045e+06 46883.3 0 -2.16778e+06 92671 0 -2.24757e+06 142065 0 -2.36219e+06 200312 0 -2.51564e+06 273097 0 -2.72396e+06 370319 0 -3.00354e+06 514681 0 -2.09929e+06 0 0 -2.11031e+06 41108.4 0 -2.142e+06 81906.7 0 -2.19474e+06 124603 0 -2.26997e+06 173691 0 -2.36881e+06 233825 0 -2.49412e+06 312628 0 -2.65562e+06 415553 0 -2.09433e+06 0 0 -2.10083e+06 34111.4 0 -2.12006e+06 68492.7 0 -2.15195e+06 103918 0 -2.19676e+06 142778 0 -2.25532e+06 187496 0 -2.32788e+06 243085 0 -2.4161e+06 311774 0 -2.0889e+06 0 0 -2.09205e+06 25932.2 0 -2.10182e+06 52387.1 0 -2.11835e+06 79426.4 0 -2.14136e+06 107913 0 -2.17096e+06 138988 0 -2.20746e+06 173984 0 -2.25112e+06 213630 0 -2.08294e+06 0 0 -2.08407e+06 16709.6 0 -2.08738e+06 33537.2 0 -2.09339e+06 50694 0 -2.10206e+06 67975.8 0 -2.11318e+06 85506.2 0 -2.12665e+06 103529 0 -2.14257e+06 121518 0 -2.07644e+06 0 0 -2.07676e+06 6822.4 0 -2.07743e+06 11585.2 0 -2.07815e+06 13933.2 0 -2.07902e+06 15227.5 0 -2.08026e+06 15863.6 0 -2.08197e+06 15103.6 0 -2.08417e+06 11471.7 0 </DataArray> 
</PointData> 
<Points> 
<DataArray type="Float32" NumberOfComponents="3"> 
0 0.01 0 0.0107143 0.01 0 0.0214286 0.01 0 0.0321429 0.01 0 0.0428571 0.01 0 0.0535714 0.01 0 0.0642857 0.01 0 0.075 0.01 0 0 0.0108571 0 0.00930612 0.0108571 0 0.0186122 0.0108571 0 0.0279184 0.0108571 0 0.0372245 0.0108571 0 0.0465306 0.0108571 0 0.0558367 0.0108571 0 0.0651429 0.0108571 0 0 0.0117143 0 0.00789796 0.0117143 0 0.0157959 0.0117143 0 0.0236939 0.0117143 0 0.0315918 0.0117143 0 0.0394898 0.0117143 0 0.0473878 0.0117143 0 0.0552857 0.0117143 0 0 0.0125714 0 0.0064898 0.0125714 0 0.0129796 0.0125714 0 0.0194694 0.0125714 0 0.0259592 0.0125714 0 0.032449 0.0125714 0 0.0389388 0.0125714 0 0.0454286 0.0125714 0 0 0.0134286 0 0.00508163 0.0134286 0 0.0101633 0.0134286 0 0.0152449 0.0134286 0 0.0203265 0.0134286 0 0.0254082 0.0134286 0 0.0304898 0.0134286 0 0.0355714 0.0134286 0 0 0.0142857 0 0.00367347 0.0142857 0 0.00734694 0.0142857 0 0.0110204 0.0142857 0 0.0146939 0.0142857 0 0.0183673 0.0142857 0 0.0220408 0.0142857 0 0.0257143 0.0142857 0 0 0.0151429 0 0.00226531 0.0151429 0 0.00453061 0.0151429 0 0.00679592 0.0151429 0 0.00906122 0.0151429 0 0.0113265 0.0151429 0 0.0135918 0.0151429 0 0.0158571 0.0151429 0 0 0.016 0 0.000857143 0.016 0 0.00171429 0.016 0 0.00257143 0.016 0 0.00342857 0.016 0 0.00428571 0.016 0 0.00514286 0.016 0 0.006 0.016 0 
</DataArray>
</Points> 
</Piece> 
</StructuredGrid> 
</VTKFile> 
