<?xml version="1.0"?> 
<VTKFile type="StructuredGrid" version="0.1"> 
<StructuredGrid WholeExtent="0 7 0 7 0 0"> 
<Piece Extent="0 7 0 7 0 0"> 
<PointData>
<DataArray type="Float32" Name="|E|" format="ascii" NumberOfComponents="3"> 
3.29599e+06 -1.36524e+06 0 2.11675e+06 640513 0 1.39715e+06 620912 0 1.01839e+06 470569 0 758788 326737 0 597235 202360 0 506220 96554.9 0 475034 0 0 3.68206e+06 -981178 0 2.06083e+06 788264 0 1.3465e+06 702060 0 958309 533173 0 705424 374188 0 549832 235790 0 462237 114516 0 429272 0 0 4.0072e+06 -503793 0 1.99959e+06 933506 0 1.29515e+06 787759 0 896255 596529 0 648615 420818 0 496743 267460 0 410488 131007 0 373810 0 0 4.25799e+06 52005.1 0 1.93768e+06 1.07564e+06 0 1.24301e+06 877807 0 832697 660697 0 588499 466776 0 438402 297626 0 351751 146209 0 309832 0 0 4.42386e+06 669252 0 1.87962e+06 1.21547e+06 0 1.18997e+06 971807 0 768304 725931 0 525420 512230 0 375483 326500 0 287073 160231 0 238745 0 0 4.49754e+06 1.32951e+06 0 1.82913e+06 1.35504e+06 0 1.13616e+06 1.06918e+06 0 703836 792682 0 459896 557362 0 308837 354279 0 217717 173123 0 162160 0 0 4.47514e+06 2.01342e+06 0 1.78859e+06 1.49719e+06 0 1.08203e+06 1.16924e+06 0 640020 861543 0 392579 602357 0 239396 381132 0 145090 184857 0 81840.2 0 0 4.35633e+06 2.70129e+06 0 1.75874e+06 1.64505e+06 0 1.02848e+06 1.2712e+06 0 577452 933133 0 324224 647364 0 168053 407192 0 70713.4 195309 0 -399.705 0 0 </DataArray> 
</PointData> 
<Points> 
<DataArray type="Float32" NumberOfComponents="3"> 
0.2018 0.0378 0 0.226257 0.0378 0 0.250714 0.0378 0 0.275171 0.0378 0 0.299629 0.0378 0 0.324086 0.0378 0 0.348543 0.0378 0 0.373 0.0378 0 0.202484 0.0398184 0 0.22742 0.0410734 0 0.25216 0.0423185 0 0.276707 0.0435538 0 0.301062 0.0447796 0 0.325227 0.0459958 0 0.349206 0.0472025 0 0.373 0.0484 0 0.202901 0.0419587 0 0.228176 0.0444908 0 0.253114 0.0469893 0 0.277724 0.0494548 0 0.302011 0.051888 0 0.325982 0.0542895 0 0.349643 0.05666 0 0.373 0.059 0 0.203026 0.0441667 0 0.228486 0.0479763 0 0.253537 0.0517247 0 0.27819 0.0554136 0 0.302454 0.0590442 0 0.326338 0.0626179 0 0.34985 0.0661361 0 0.373 0.0696 0 0.202846 0.0463814 0 0.228333 0.051447 0 0.253411 0.0564313 0 0.27809 0.0613363 0 0.302379 0.0661639 0 0.326288 0.0709159 0 0.349826 0.075594 0 0.373 0.0802 0 0.202366 0.0485402 0 0.22772 0.0548194 0 0.252737 0.0610152 0 0.277424 0.0671293 0 0.301788 0.0731633 0 0.325834 0.0791187 0 0.34957 0.0849971 0 0.373 0.0908 0 0.201608 0.0505849 0 0.226672 0.0580161 0 0.251539 0.0653888 0 0.276212 0.0727039 0 0.300692 0.0799618 0 0.324982 0.0871634 0 0.349084 0.0943093 0 0.373 0.1014 0 0.200607 0.0524662 0 0.225234 0.0609711 0 0.249862 0.0694759 0 0.27449 0.0779807 0 0.299117 0.0864855 0 0.323745 0.0949904 0 0.348372 0.103495 0 0.373 0.112 0 
</DataArray>
</Points> 
</Piece> 
</StructuredGrid> 
</VTKFile> 
