<?xml version="1.0"?> 
<VTKFile type="StructuredGrid" version="0.1"> 
<StructuredGrid WholeExtent="0 7 0 7 0 0"> 
<Piece Extent="0 7 0 7 0 0"> 
<PointData>
<DataArray type="Float32" Name="|E|" format="ascii" NumberOfComponents="3"> 
-2.23517e-08 -9.53674e-07 0 4.19095e-09 316.19 0 -9.31323e-10 75.2367 0 0 12.5425 0 0 7.43409 0 -1.11759e-08 1.29216 0 1.49012e-08 0.474575 0 0 0.0210535 0 95.2559 2.98023e-07 0 -43.6593 360.396 0 -7.98496 101.901 0 -5.58911 30.1038 0 -1.65027 9.45209 0 -0.820763 4.21994 0 -0.383142 1.39731 0 -0.176546 0.480772 0 225.029 -1.19209e-07 0 -92.6065 422.435 0 -32.5534 143.927 0 -15.8253 48.5286 0 -7.29729 18.8436 0 -3.50499 7.53841 0 -1.50497 3.97553 0 -1.03678 1.01357 0 408.605 4.76837e-07 0 -146.281 506.531 0 -82.8663 203.433 0 -40.4889 77.3334 0 -21.1661 31.9802 0 -10.6419 15.2087 0 -6.69487 5.74596 0 -2.39468 5.73873 0 686.466 -1.07288e-06 0 -204.555 623.294 0 -170.713 283.015 0 -99.3195 119.151 0 -56.1645 50.8722 0 -31.8891 22.9726 0 -16.842 12.7636 0 -13.8895 2.32844 0 1162.51 1.19209e-06 0 -271.718 794.481 0 -315.472 393.78 0 -227.776 168.593 0 -143.308 64.5087 0 -88.5861 23.0674 0 -56.6104 6.02624 0 -26.2204 -2.73512 0 2215.18 -9.53674e-07 0 -376.987 1060.55 0 -563.138 563.001 0 -500.586 215.336 0 -361.039 15.4344 0 -224.014 -65.0714 0 -129.124 -63.8596 0 -100.254 -6.57457 0 6906.89 0 0 -626.238 1406.49 0 -1034.52 828.776 0 -1103.68 222.375 0 -933.93 -258.188 0 -625.935 -575.441 0 -261.226 -722.336 0 120.03 -792.258 0 </DataArray> 
</PointData> 
<Points> 
<DataArray type="Float32" NumberOfComponents="3"> 
0.125 0.02 0 0.133571 0.02 0 0.142143 0.02 0 0.150714 0.02 0 0.159286 0.02 0 0.167857 0.02 0 0.176429 0.02 0 0.185 0.02 0 0.125 0.0201429 0 0.132449 0.0204286 0 0.139898 0.0207143 0 0.147347 0.021 0 0.154796 0.0212857 0 0.162245 0.0215714 0 0.169694 0.0218571 0 0.177143 0.0221429 0 0.125 0.0202857 0 0.131327 0.0208571 0 0.137653 0.0214286 0 0.14398 0.022 0 0.150306 0.0225714 0 0.156633 0.0231429 0 0.162959 0.0237143 0 0.169286 0.0242857 0 0.125 0.0204286 0 0.130204 0.0212857 0 0.135408 0.0221429 0 0.140612 0.023 0 0.145816 0.0238571 0 0.15102 0.0247143 0 0.156224 0.0255714 0 0.161429 0.0264286 0 0.125 0.0205714 0 0.129082 0.0217143 0 0.133163 0.0228571 0 0.137245 0.024 0 0.141327 0.0251429 0 0.145408 0.0262857 0 0.14949 0.0274286 0 0.153571 0.0285714 0 0.125 0.0207143 0 0.127959 0.0221429 0 0.130918 0.0235714 0 0.133878 0.025 0 0.136837 0.0264286 0 0.139796 0.0278571 0 0.142755 0.0292857 0 0.145714 0.0307143 0 0.125 0.0208571 0 0.126837 0.0225714 0 0.128673 0.0242857 0 0.13051 0.026 0 0.132347 0.0277143 0 0.134184 0.0294286 0 0.13602 0.0311429 0 0.137857 0.0328571 0 0.125 0.021 0 0.125714 0.023 0 0.126429 0.025 0 0.127143 0.027 0 0.127857 0.029 0 0.128571 0.031 0 0.129286 0.033 0 0.13 0.035 0 
</DataArray>
</Points> 
</Piece> 
</StructuredGrid> 
</VTKFile> 
