<?xml version="1.0"?> 
<VTKFile type="StructuredGrid" version="0.1"> 
<StructuredGrid WholeExtent="0 7 0 7 0 0"> 
<Piece Extent="0 7 0 7 0 0"> 
<PointData>
<DataArray type="Float32" Name="|E|" format="ascii" NumberOfComponents="3"> 
372195 5.46616e+06 0 1.20091e+06 5.91636e+06 0 2.06987e+06 5.93399e+06 0 2.90596e+06 5.67995e+06 0 3.64795e+06 5.21022e+06 0 4.25071e+06 4.58017e+06 0 4.69183e+06 3.85132e+06 0 4.97074e+06 3.08227e+06 0 990914 4.44288e+06 0 1.52891e+06 4.27497e+06 0 1.96779e+06 3.79063e+06 0 2.15419e+06 3.19881e+06 0 2.15116e+06 2.67104e+06 0 2.06202e+06 2.25609e+06 0 1.95256e+06 1.94135e+06 0 1.85195e+06 1.70141e+06 0 889096 3.9824e+06 0 1.28113e+06 3.62666e+06 0 1.48817e+06 3.05635e+06 0 1.47554e+06 2.49909e+06 0 1.36013e+06 2.05535e+06 0 1.22579e+06 1.71938e+06 0 1.10625e+06 1.46412e+06 0 1.01087e+06 1.26703e+06 0 716425 3.72788e+06 0 998650 3.27403e+06 0 1.08567e+06 2.67079e+06 0 1.00466e+06 2.12639e+06 0 871908 1.70137e+06 0 748194 1.37719e+06 0 649972 1.12626e+06 0 575882 928436 0 532788 3.57489e+06 0 731204 3.04804e+06 0 751146 2.40956e+06 0 651808 1.85348e+06 0 534815 1.42287e+06 0 439025 1.095e+06 0 368630 843263 0 320102 647836 0 351960 3.48272e+06 0 479384 2.88537e+06 0 464754 2.19932e+06 0 377631 1.61907e+06 0 293853 1.17938e+06 0 232563 851287 0 192066 602101 0 166680 406638 0 174920 3.43267e+06 0 237517 2.75614e+06 0 215755 2.00919e+06 0 163944 1.40385e+06 0 121805 961905 0 94377.6 639356 0 78147.4 394064 0 70888.6 195040 0 0 3.41681e+06 0 0 2.64244e+06 0 0 1.82486e+06 0 0 1.20336e+06 0 0 768713 0 0 455606 0 0 212095 0 0 -46.8483 0 </DataArray> 
</PointData> 
<Points> 
<DataArray type="Float32" NumberOfComponents="3"> 
0.188 0.0600551 0 0.190112 0.0597701 0 0.192215 0.0591928 0 0.194248 0.0583229 0 0.196152 0.0571769 0 0.197872 0.0557873 0 0.199367 0.0541992 0 0.200607 0.0524662 0 0.188 0.0674758 0 0.193668 0.0674082 0 0.199442 0.0670392 0 0.205188 0.066363 0 0.210765 0.0653887 0 0.21604 0.0641397 0 0.220894 0.062652 0 0.225234 0.0609711 0 0.188 0.0748965 0 0.197196 0.0749862 0 0.206574 0.0747814 0 0.215953 0.0742742 0 0.225144 0.0734688 0 0.233966 0.0723811 0 0.242252 0.0710383 0 0.249862 0.0694759 0 0.188 0.0823172 0 0.200697 0.0825049 0 0.213611 0.0824215 0 0.226546 0.0820595 0 0.239295 0.0814202 0 0.251656 0.0805139 0 0.263442 0.0793589 0 0.27449 0.0779807 0 0.188 0.0897379 0 0.20417 0.089965 0 0.220557 0.0899614 0 0.236972 0.0897218 0 0.253222 0.0892462 0 0.269114 0.0885402 0 0.284468 0.0876147 0 0.299117 0.0864855 0 0.188 0.0971586 0 0.207616 0.0973671 0 0.227412 0.0974033 0 0.247235 0.0972642 0 0.266931 0.0969496 0 0.286345 0.0964619 0 0.30533 0.0958063 0 0.323745 0.0949904 0 0.188 0.104579 0 0.211035 0.104712 0 0.234178 0.104749 0 0.257338 0.104689 0 0.280427 0.104533 0 0.303353 0.104281 0 0.32603 0.103934 0 0.348372 0.103495 0 0.188 0.112 0 0.214429 0.112 0 0.240857 0.112 0 0.267286 0.112 0 0.293714 0.112 0 0.320143 0.112 0 0.346571 0.112 0 0.373 0.112 0 
</DataArray>
</Points> 
</Piece> 
</StructuredGrid> 
</VTKFile> 
