<?xml version="1.0"?> 
<VTKFile type="StructuredGrid" version="0.1"> 
<StructuredGrid WholeExtent="0 7 0 7 0 0"> 
<Piece Extent="0 7 0 7 0 0"> 
<PointData>
<DataArray type="Float32" Name="|E|" format="ascii" NumberOfComponents="3"> 
1.22366e+06 -124863 0 1.73543e+06 -17804.3 0 1.55422e+06 61985 0 1.19966e+06 65550 0 903579 47312.3 0 702617 29614.7 0 588607 14421.8 0 552003 0 0 1.22593e+06 -125094 0 1.74007e+06 -19118.8 0 1.55428e+06 71757.1 0 1.1987e+06 74224.6 0 902802 54052.4 0 701990 33830.1 0 588146 16291.6 0 551490 0 0 1.22157e+06 -124650 0 1.74503e+06 -20212.5 0 1.55444e+06 81655.3 0 1.19771e+06 82873.3 0 901928 60796.2 0 701319 38043.8 0 587635 18149.9 0 550976 0 0 1.21024e+06 -123494 0 1.75028e+06 -21039.2 0 1.5547e+06 91743.7 0 1.1967e+06 91464.1 0 900953 67552.4 0 700604 42262.4 0 587074 19986.7 0 550466 0 0 1.19134e+06 -121565 0 1.75579e+06 -21549.4 0 1.55507e+06 102093 0 1.19566e+06 99960.6 0 899871 74331.1 0 699850 46493.7 0 586463 21791 0 549972 0 0 1.16405e+06 -118780 0 1.76149e+06 -21689.5 0 1.55554e+06 112786 0 1.19461e+06 108320 0 898675 81143.6 0 699062 50746.6 0 585805 23549.3 0 549512 0 0 1.12724e+06 -115024 0 1.7673e+06 -21400.3 0 1.55612e+06 123918 0 1.19355e+06 116492 0 897350 88003.7 0 698247 55032.2 0 585103 25246.1 0 549116 0 0 1.07947e+06 -110150 0 1.77309e+06 -20615.8 0 1.55681e+06 135604 0 1.19251e+06 124414 0 895881 94927.7 0 697416 59364.1 0 584360 26862.1 0 548822 0 0 </DataArray> 
</PointData> 
<Points> 
<DataArray type="Float32" NumberOfComponents="3"> 
0.19 0.005 0 0.216143 0.005 0 0.242286 0.005 0 0.268429 0.005 0 0.294571 0.005 0 0.320714 0.005 0 0.346857 0.005 0 0.373 0.005 0 0.190071 0.0057 0 0.216204 0.0057 0 0.242337 0.0057 0 0.268469 0.0057 0 0.294602 0.0057 0 0.320735 0.0057 0 0.346867 0.0057 0 0.373 0.0057 0 0.190143 0.0064 0 0.216265 0.0064 0 0.242388 0.0064 0 0.26851 0.0064 0 0.294633 0.0064 0 0.320755 0.0064 0 0.346878 0.0064 0 0.373 0.0064 0 0.190214 0.0071 0 0.216327 0.0071 0 0.242439 0.0071 0 0.268551 0.0071 0 0.294663 0.0071 0 0.320776 0.0071 0 0.346888 0.0071 0 0.373 0.0071 0 0.190286 0.0078 0 0.216388 0.0078 0 0.24249 0.0078 0 0.268592 0.0078 0 0.294694 0.0078 0 0.320796 0.0078 0 0.346898 0.0078 0 0.373 0.0078 0 0.190357 0.0085 0 0.216449 0.0085 0 0.242541 0.0085 0 0.268633 0.0085 0 0.294724 0.0085 0 0.320816 0.0085 0 0.346908 0.0085 0 0.373 0.0085 0 0.190429 0.0092 0 0.21651 0.0092 0 0.242592 0.0092 0 0.268673 0.0092 0 0.294755 0.0092 0 0.320837 0.0092 0 0.346918 0.0092 0 0.373 0.0092 0 0.1905 0.0099 0 0.216571 0.0099 0 0.242643 0.0099 0 0.268714 0.0099 0 0.294786 0.0099 0 0.320857 0.0099 0 0.346929 0.0099 0 0.373 0.0099 0 
</DataArray>
</Points> 
</Piece> 
</StructuredGrid> 
</VTKFile> 
