<?xml version="1.0"?> 
<VTKFile type="StructuredGrid" version="0.1"> 
<StructuredGrid WholeExtent="0 7 0 7 0 0"> 
<Piece Extent="0 7 0 7 0 0"> 
<PointData>
<DataArray type="Float32" Name="|E|" format="ascii" NumberOfComponents="3"> 
-2.07937e+06 47086.9 0 -2.1374e+06 122479 0 -2.24577e+06 194911 0 -2.41246e+06 272263 0 -2.65174e+06 356476 0 -2.99224e+06 437887 0 -3.47208e+06 422699 0 -3.80533e+06 5.96046e-07 0 -2.07754e+06 61113.4 0 -2.14014e+06 139149 0 -2.25039e+06 216836 0 -2.41765e+06 302030 0 -2.65418e+06 397100 0 -2.99406e+06 497238 0 -3.50133e+06 505141 0 -3.90991e+06 8.6452e-08 0 -2.07704e+06 76272.1 0 -2.1432e+06 156973 0 -2.25479e+06 239912 0 -2.42205e+06 332962 0 -2.65515e+06 438822 0 -2.99333e+06 559446 0 -3.52928e+06 600683 0 -4.04816e+06 1.50663e-07 0 -2.07731e+06 92759.6 0 -2.14654e+06 175863 0 -2.25896e+06 264251 0 -2.42558e+06 365078 0 -2.65451e+06 481385 0 -2.98962e+06 625004 0 -3.55162e+06 712353 0 -4.23847e+06 -2.81259e-07 0 -2.07816e+06 110288 0 -2.15009e+06 195742 0 -2.26292e+06 289944 0 -2.42809e+06 398370 0 -2.65209e+06 524512 0 -2.9827e+06 694337 0 -3.56089e+06 842786 0 -4.51923e+06 2.85683e-07 0 -2.07905e+06 128024 0 -2.15372e+06 216701 0 -2.26671e+06 316916 0 -2.42951e+06 432664 0 -2.64759e+06 568443 0 -2.97264e+06 766918 0 -3.54573e+06 992241 0 -4.98638e+06 -1.22935e-07 0 -2.07866e+06 144188 0 -2.15712e+06 239671 0 -2.27002e+06 344461 0 -2.43037e+06 466816 0 -2.63997e+06 616757 0 -2.95954e+06 836575 0 -3.49465e+06 1.15228e+06 0 -5.92201e+06 -5.02914e-07 0 -2.07452e+06 155025 0 -2.16002e+06 268904 0 -2.27065e+06 369933 0 -2.43408e+06 494914 0 -2.62578e+06 688827 0 -2.93935e+06 870753 0 -3.42441e+06 1.28446e+06 0 -8.26556e+06 -2.74181e-06 0 </DataArray> 
</PointData> 
<Points> 
<DataArray type="Float32" NumberOfComponents="3"> 
0.006 0.016 0 0.0158571 0.0151429 0 0.0257143 0.0142857 0 0.0355714 0.0134286 0 0.0454286 0.0125714 0 0.0552857 0.0117143 0 0.0651429 0.0108571 0 0.075 0.01 0 0.00742857 0.0167143 0 0.0170816 0.0159796 0 0.0267347 0.0152449 0 0.0363878 0.0145102 0 0.0460408 0.0137755 0 0.0556939 0.0130408 0 0.0653469 0.0123061 0 0.075 0.0115714 0 0.00885714 0.0174286 0 0.0183061 0.0168163 0 0.0277551 0.0162041 0 0.0372041 0.0155918 0 0.0466531 0.0149796 0 0.056102 0.0143673 0 0.065551 0.0137551 0 0.075 0.0131429 0 0.0102857 0.0181429 0 0.0195306 0.0176531 0 0.0287755 0.0171633 0 0.0380204 0.0166735 0 0.0472653 0.0161837 0 0.0565102 0.0156939 0 0.0657551 0.0152041 0 0.075 0.0147143 0 0.0117143 0.0188571 0 0.0207551 0.0184898 0 0.0297959 0.0181224 0 0.0388367 0.0177551 0 0.0478776 0.0173878 0 0.0569184 0.0170204 0 0.0659592 0.0166531 0 0.075 0.0162857 0 0.0131429 0.0195714 0 0.0219796 0.0193265 0 0.0308163 0.0190816 0 0.0396531 0.0188367 0 0.0484898 0.0185918 0 0.0573265 0.0183469 0 0.0661633 0.018102 0 0.075 0.0178571 0 0.0145714 0.0202857 0 0.0232041 0.0201633 0 0.0318367 0.0200408 0 0.0404694 0.0199184 0 0.049102 0.0197959 0 0.0577347 0.0196735 0 0.0663673 0.019551 0 0.075 0.0194286 0 0.016 0.021 0 0.0244286 0.021 0 0.0328571 0.021 0 0.0412857 0.021 0 0.0497143 0.021 0 0.0581429 0.021 0 0.0665714 0.021 0 0.075 0.021 0 
</DataArray>
</Points> 
</Piece> 
</StructuredGrid> 
</VTKFile> 
