<?xml version="1.0"?> 
<VTKFile type="StructuredGrid" version="0.1"> 
<StructuredGrid WholeExtent="0 7 0 7 0 0"> 
<Piece Extent="0 7 0 7 0 0"> 
<PointData>
<DataArray type="Float32" Name="|E|" format="ascii" NumberOfComponents="3"> 
1.2219e-06 2.47955e-05 0 9.06172e-08 311.676 0 7.11971e-08 63.9649 0 -1.05698e-07 23.2258 0 1.00234e-07 5.09016 0 -7.1479e-08 2.16741 0 -3.53903e-08 0.7988 0 -4.47035e-07 5.48363e-06 0 159.282 -2.29362e-06 0 -10.2348 311.368 0 -3.75399 63.5642 0 -1.37065 23.3303 0 -0.0866014 5.05049 0 -0.332171 2.13684 0 -0.00711566 0.831246 0 -0.00617578 8.33203e-07 0 321.078 2.01579e-06 0 -20.2585 310.451 0 -7.48443 62.3495 0 -2.78547 23.6487 0 -0.128629 4.93287 0 -0.688591 2.04046 0 -0.0195104 0.932115 0 -0.0575523 2.32845e-07 0 487.953 -1.77417e-06 0 -29.8538 308.946 0 -11.1658 60.2819 0 -4.29185 24.1952 0 -0.0788478 4.74182 0 -1.09451 1.86347 0 -0.0455 1.11215 0 -0.21855 -4.03845e-07 0 662.57 1.53296e-06 0 -38.7912 306.889 0 -14.7683 57.2955 0 -5.94384 24.9934 0 0.115412 4.48642 0 -1.57706 1.57873 0 -0.100312 1.38953 0 -0.599094 -4.30737e-08 0 847.744 -1.15484e-06 0 -46.8223 304.334 0 -18.2556 53.2948 0 -7.80594 26.0763 0 0.515272 4.18287 0 -2.16582 1.14251 0 -0.21186 1.79004 0 -1.39739 2.55182e-07 0 1046.5 3.51667e-06 0 -53.6739 301.359 0 -21.5815 48.1517 0 -9.95746 27.4848 0 1.19368 3.85893 0 -2.89282 0.487377 0 -0.430004 2.34657 0 -2.97434 6.70552e-07 0 1262.11 -5.72205e-06 0 -59.0405 298.072 0 -24.6865 41.7014 0 -12.4978 29.2669 0 2.23925 3.5612 0 -3.79138 -0.489156 0 -0.841806 3.09692 0 -5.98508 6.91414e-06 0 </DataArray> 
</PointData> 
<Points> 
<DataArray type="Float32" NumberOfComponents="3"> 
0.125 0.02 0 0.133571 0.02 0 0.142143 0.02 0 0.150714 0.02 0 0.159286 0.02 0 0.167857 0.02 0 0.176429 0.02 0 0.185 0.02 0 0.125 0.0201429 0 0.133571 0.0202245 0 0.142143 0.0203061 0 0.150714 0.0203878 0 0.159286 0.0204694 0 0.167857 0.020551 0 0.176429 0.0206327 0 0.185 0.0207143 0 0.125 0.0202857 0 0.133571 0.020449 0 0.142143 0.0206122 0 0.150714 0.0207755 0 0.159286 0.0209388 0 0.167857 0.021102 0 0.176429 0.0212653 0 0.185 0.0214286 0 0.125 0.0204286 0 0.133571 0.0206735 0 0.142143 0.0209184 0 0.150714 0.0211633 0 0.159286 0.0214082 0 0.167857 0.0216531 0 0.176429 0.021898 0 0.185 0.0221429 0 0.125 0.0205714 0 0.133571 0.020898 0 0.142143 0.0212245 0 0.150714 0.021551 0 0.159286 0.0218776 0 0.167857 0.0222041 0 0.176429 0.0225306 0 0.185 0.0228571 0 0.125 0.0207143 0 0.133571 0.0211224 0 0.142143 0.0215306 0 0.150714 0.0219388 0 0.159286 0.0223469 0 0.167857 0.0227551 0 0.176429 0.0231633 0 0.185 0.0235714 0 0.125 0.0208571 0 0.133571 0.0213469 0 0.142143 0.0218367 0 0.150714 0.0223265 0 0.159286 0.0228163 0 0.167857 0.0233061 0 0.176429 0.0237959 0 0.185 0.0242857 0 0.125 0.021 0 0.133571 0.0215714 0 0.142143 0.0221429 0 0.150714 0.0227143 0 0.159286 0.0232857 0 0.167857 0.0238571 0 0.176429 0.0244286 0 0.185 0.025 0 
</DataArray>
</Points> 
</Piece> 
</StructuredGrid> 
</VTKFile> 
