<?xml version="1.0"?> 
<VTKFile type="StructuredGrid" version="0.1"> 
<StructuredGrid WholeExtent="0 7 0 7 0 0"> 
<Piece Extent="0 7 0 7 0 0"> 
<PointData>
<DataArray type="Float32" Name="|E|" format="ascii" NumberOfComponents="3"> 
276968 4.2008e+06 0 274754 4.16722e+06 0 273654 4.15054e+06 0 273745 4.15192e+06 0 275315 4.17573e+06 0 278984 4.23138e+06 0 286055 4.33863e+06 0 299693 4.54547e+06 0 215931 4.19107e+06 0 236508 4.15593e+06 0 257719 4.13514e+06 0 283142 4.12904e+06 0 317470 4.13986e+06 0 368362 4.17204e+06 0 450530 4.23221e+06 0 595829 4.3256e+06 0 156860 4.15057e+06 0 193936 4.11722e+06 0 230641 4.09203e+06 0 272027 4.07458e+06 0 323843 4.06455e+06 0 393636 4.06088e+06 0 491841 4.0598e+06 0 631642 4.05029e+06 0 106762 4.09176e+06 0 150451 4.06242e+06 0 193008 4.03421e+06 0 239037 4.00658e+06 0 293168 3.97816e+06 0 360243 3.94615e+06 0 444995 3.9055e+06 0 550623 3.84775e+06 0 68090.9 4.02982e+06 0 108837 4.00492e+06 0 148250 3.97533e+06 0 189651 3.94079e+06 0 236091 3.90001e+06 0 290206 3.85061e+06 0 353792 3.78901e+06 0 427058 3.71052e+06 0 39534.8 3.97743e+06 0 70238.8 3.95612e+06 0 99861.5 3.92625e+06 0 130405 3.88783e+06 0 163605 3.84003e+06 0 200766 3.78132e+06 0 242504 3.70958e+06 0 288451 3.62241e+06 0 18011.6 3.943e+06 0 34350.7 3.92393e+06 0 50103.3 3.89419e+06 0 66182.1 3.85396e+06 0 83355.3 3.80279e+06 0 102151 3.73975e+06 0 122752 3.6636e+06 0 144900 3.57311e+06 0 0 3.93105e+06 0 0 3.91274e+06 0 0 3.88308e+06 0 0 3.84234e+06 0 0 3.7902e+06 0 0 3.72592e+06 0 0 3.64856e+06 0 0 3.5572e+06 0 </DataArray> 
</PointData> 
<Points> 
<DataArray type="Float32" NumberOfComponents="3"> 
0.1465 0.0627913 0 0.1515 0.0624616 0 0.1565 0.0621319 0 0.1615 0.0618023 0 0.1665 0.0614726 0 0.1715 0.061143 0 0.1765 0.0608133 0 0.1815 0.0604836 0 0.1465 0.0698211 0 0.1515 0.0695385 0 0.1565 0.069256 0 0.1615 0.0689734 0 0.1665 0.0686908 0 0.1715 0.0684083 0 0.1765 0.0681257 0 0.1815 0.0678431 0 0.1465 0.0768509 0 0.1515 0.0766154 0 0.1565 0.07638 0 0.1615 0.0761445 0 0.1665 0.075909 0 0.1715 0.0756735 0 0.1765 0.0754381 0 0.1815 0.0752026 0 0.1465 0.0838807 0 0.1515 0.0836923 0 0.1565 0.083504 0 0.1615 0.0833156 0 0.1665 0.0831272 0 0.1715 0.0829388 0 0.1765 0.0827505 0 0.1815 0.0825621 0 0.1465 0.0909105 0 0.1515 0.0907693 0 0.1565 0.090628 0 0.1615 0.0904867 0 0.1665 0.0903454 0 0.1715 0.0902041 0 0.1765 0.0900628 0 0.1815 0.0899216 0 0.1465 0.0979404 0 0.1515 0.0978462 0 0.1565 0.097752 0 0.1615 0.0976578 0 0.1665 0.0975636 0 0.1715 0.0974694 0 0.1765 0.0973752 0 0.1815 0.097281 0 0.1465 0.10497 0 0.1515 0.104923 0 0.1565 0.104876 0 0.1615 0.104829 0 0.1665 0.104782 0 0.1715 0.104735 0 0.1765 0.104688 0 0.1815 0.104641 0 0.1465 0.112 0 0.1515 0.112 0 0.1565 0.112 0 0.1615 0.112 0 0.1665 0.112 0 0.1715 0.112 0 0.1765 0.112 0 0.1815 0.112 0 
</DataArray>
</Points> 
</Piece> 
</StructuredGrid> 
</VTKFile> 
