<?xml version="1.0"?> 
<VTKFile type="StructuredGrid" version="0.1"> 
<StructuredGrid WholeExtent="0 7 0 7 0 0"> 
<Piece Extent="0 7 0 7 0 0"> 
<PointData>
<DataArray type="Float32" Name="|E|" format="ascii" NumberOfComponents="3"> 
1.32638e+06 -7.15256e-06 0 1.72319e+06 -4.97734e-05 0 1.55151e+06 -8.05934e-05 0 1.20076e+06 4.64301e-05 0 905543 -1.22056e-05 0 704089 -1.00369e-05 0 589995 1.35376e-05 0 553072 0 0 1.32452e+06 -6.64362e-07 0 1.72345e+06 -2457.38 0 1.55157e+06 9109.56 0 1.20074e+06 9166.09 0 905505 6812.28 0 704058 4262.93 0 589966 2011.64 0 553046 0 0 1.31887e+06 1.81331e-07 0 1.72424e+06 -4889.75 0 1.55173e+06 18247.6 0 1.20067e+06 18321.9 0 905390 13627.8 0 703965 8527.72 0 589880 4019.82 0 552970 0 0 1.30927e+06 -1.63272e-07 0 1.72554e+06 -7271.43 0 1.55201e+06 27443.6 0 1.20055e+06 27456.5 0 905196 20450.1 0 703810 12796.3 0 589737 6020.87 0 552847 0 0 1.29543e+06 2.59606e-07 0 1.72733e+06 -9575.26 0 1.55239e+06 36729.6 0 1.20039e+06 36557.4 0 904923 27283 0 703596 17071.1 0 589537 8010.71 0 552680 0 0 1.27695e+06 -3.08268e-07 0 1.7296e+06 -11772 0 1.55288e+06 46141.5 0 1.20018e+06 45610.3 0 904565 34130.7 0 703323 21354.9 0 589282 9984.62 0 552476 0 0 1.25326e+06 5.21541e-08 0 1.73231e+06 -13829.3 0 1.5535e+06 55720.1 0 1.19994e+06 54597.5 0 904119 40998.5 0 702996 25651.1 0 588971 11937 0 552246 0 0 1.22366e+06 4.52995e-06 0 1.73543e+06 -15711 0 1.55422e+06 65513.4 0 1.19966e+06 63497.5 0 903579 47892.3 0 702617 29964.2 0 588607 13860.9 0 552003 0 0 </DataArray> 
</PointData> 
<Points> 
<DataArray type="Float32" NumberOfComponents="3"> 
0.19 0 0 0.216143 0 0 0.242286 0 0 0.268429 0 0 0.294571 0 0 0.320714 0 0 0.346857 0 0 0.373 0 0 0.19 0.000714286 0 0.216143 0.000714286 0 0.242286 0.000714286 0 0.268429 0.000714286 0 0.294571 0.000714286 0 0.320714 0.000714286 0 0.346857 0.000714286 0 0.373 0.000714286 0 0.19 0.00142857 0 0.216143 0.00142857 0 0.242286 0.00142857 0 0.268429 0.00142857 0 0.294571 0.00142857 0 0.320714 0.00142857 0 0.346857 0.00142857 0 0.373 0.00142857 0 0.19 0.00214286 0 0.216143 0.00214286 0 0.242286 0.00214286 0 0.268429 0.00214286 0 0.294571 0.00214286 0 0.320714 0.00214286 0 0.346857 0.00214286 0 0.373 0.00214286 0 0.19 0.00285714 0 0.216143 0.00285714 0 0.242286 0.00285714 0 0.268429 0.00285714 0 0.294571 0.00285714 0 0.320714 0.00285714 0 0.346857 0.00285714 0 0.373 0.00285714 0 0.19 0.00357143 0 0.216143 0.00357143 0 0.242286 0.00357143 0 0.268429 0.00357143 0 0.294571 0.00357143 0 0.320714 0.00357143 0 0.346857 0.00357143 0 0.373 0.00357143 0 0.19 0.00428571 0 0.216143 0.00428571 0 0.242286 0.00428571 0 0.268429 0.00428571 0 0.294571 0.00428571 0 0.320714 0.00428571 0 0.346857 0.00428571 0 0.373 0.00428571 0 0.19 0.005 0 0.216143 0.005 0 0.242286 0.005 0 0.268429 0.005 0 0.294571 0.005 0 0.320714 0.005 0 0.346857 0.005 0 0.373 0.005 0 
</DataArray>
</Points> 
</Piece> 
</StructuredGrid> 
</VTKFile> 
