<?xml version="1.0"?> 
<VTKFile type="StructuredGrid" version="0.1"> 
<StructuredGrid WholeExtent="0 256 0 256 0 0"> 
<Piece Extent="0 256 0 256 0 0"> 
<CellData>
<DataArray type="Float32" Name="err_h1" format="ascii" NumberOfComponents="1"> 
0.246154 0.0933879 0.0361872 0.0257374 0.0105946 0.00855887 0.00366191 0.00323333 0.00163358 0.00139829 0.000851147 0.000679028 0.000466015 0.000355916 0.000259882 0.00019779 0.000152054 0.000122072 0.000102615 9.15259e-05 8.51064e-05 8.19918e-05 8.00496e-05 7.89197e-05 7.78139e-05 7.67456e-05 7.55023e-05 7.41527e-05 7.2668e-05 7.11025e-05 6.94727e-05 6.78138e-05 6.61455e-05 6.44888e-05 6.28578e-05 6.12635e-05 5.9714e-05 5.82144e-05 5.6768e-05 5.53763e-05 5.40397e-05 5.27578e-05 5.15293e-05 5.03523e-05 4.92251e-05 4.81454e-05 4.71107e-05 4.6119e-05 4.51671e-05 4.4254e-05 4.33774e-05 4.25341e-05 4.17227e-05 4.09414e-05 4.01884e-05 3.94619e-05 3.87602e-05 3.80821e-05 3.7426e-05 3.67908e-05 3.61754e-05 3.55784e-05 3.49992e-05 3.44363e-05 3.38895e-05 3.33575e-05 3.28397e-05 3.23354e-05 3.18439e-05 3.13648e-05 3.08972e-05 3.04408e-05 2.99951e-05 2.95595e-05 2.91336e-05 2.87172e-05 2.83097e-05 2.79108e-05 2.75201e-05 2.71374e-05 2.67625e-05 2.63948e-05 2.60343e-05 2.56806e-05 2.53336e-05 2.4993e-05 2.46587e-05 2.43303e-05 2.40077e-05 2.36907e-05 2.33792e-05 2.30729e-05 2.27718e-05 2.24757e-05 2.21844e-05 2.18978e-05 2.16159e-05 2.13382e-05 2.1065e-05 2.07959e-05 2.0531e-05 2.027e-05 2.00129e-05 1.97597e-05 1.95101e-05 1.92641e-05 1.90216e-05 1.87826e-05 1.85469e-05 1.83145e-05 1.80852e-05 1.78591e-05 1.76361e-05 1.7416e-05 1.71988e-05 1.69845e-05 1.6773e-05 1.65642e-05 1.63581e-05 1.61546e-05 1.59537e-05 1.57552e-05 1.55592e-05 1.53656e-05 1.51744e-05 1.49856e-05 1.47988e-05 1.46144e-05 1.4432e-05 1.42519e-05 1.40738e-05 1.38977e-05 1.37237e-05 1.35517e-05 1.33815e-05 1.32132e-05 1.30468e-05 1.28823e-05 1.27194e-05 1.25584e-05 1.23991e-05 1.22414e-05 1.20855e-05 1.19311e-05 1.17783e-05 1.16271e-05 1.14774e-05 1.13293e-05 1.11826e-05 1.10374e-05 1.08936e-05 1.07512e-05 1.06102e-05 1.04705e-05 1.03322e-05 1.01951e-05 1.00594e-05 9.92489e-06 9.79161e-06 9.65956e-06 9.52868e-06 9.39898e-06 9.27043e-06 9.143e-06 9.01667e-06 8.89143e-06 8.76725e-06 8.64414e-06 8.52202e-06 8.40091e-06 8.28079e-06 8.16165e-06 8.04345e-06 7.92619e-06 7.80986e-06 7.69441e-06 7.57985e-06 7.46615e-06 7.3533e-06 7.24127e-06 7.13008e-06 7.01966e-06 6.91005e-06 6.80119e-06 6.6931e-06 6.58574e-06 6.4791e-06 6.37317e-06 6.26792e-06 6.16336e-06 6.05947e-06 5.95623e-06 5.85362e-06 5.75164e-06 5.65026e-06 5.54948e-06 5.44928e-06 5.34967e-06 5.25058e-06 5.15206e-06 5.05407e-06 4.95658e-06 4.85961e-06 4.76314e-06 4.66714e-06 4.57161e-06 4.47654e-06 4.38192e-06 4.28773e-06 4.19397e-06 4.10061e-06 4.00767e-06 3.91511e-06 3.82293e-06 3.73112e-06 3.63967e-06 3.54857e-06 3.45782e-06 3.36739e-06 3.27729e-06 3.1875e-06 3.09802e-06 3.00883e-06 2.91994e-06 2.83133e-06 2.743e-06 2.65494e-06 2.56715e-06 2.47963e-06 2.39237e-06 2.30537e-06 2.21863e-06 2.13217e-06 2.04597e-06 1.96005e-06 1.87443e-06 1.78911e-06 1.70412e-06 1.61949e-06 1.53526e-06 1.45146e-06 1.36818e-06 1.28548e-06 1.20347e-06 1.12229e-06 1.04213e-06 9.63237e-07 8.85962e-07 8.10662e-07 7.38296e-07 6.69086e-07 6.05011e-07 5.49598e-07 4.90683e-07 4.93905e-07 3.34161e-07 0.0878595 0.0978351 0.0381944 0.0191006 0.0121259 0.00576391 0.00470107 0.00238965 0.00221036 0.00131416 0.00116593 0.000786739 0.000659114 0.000481846 0.000392849 0.000302727 0.000247571 0.000199777 0.000168185 0.000142883 0.00012581 0.000112577 0.000103426 9.62331e-05 9.09135e-05 8.65003e-05 8.2908e-05 7.97376e-05 7.69397e-05 7.43626e-05 7.1981e-05 6.974e-05 6.76268e-05 6.56216e-05 6.37173e-05 6.19058e-05 6.01821e-05 5.85416e-05 5.69803e-05 5.54942e-05 5.40795e-05 5.27326e-05 5.14497e-05 5.02273e-05 4.90618e-05 4.795e-05 4.68884e-05 4.5874e-05 4.49036e-05 4.39748e-05 4.3085e-05 4.22315e-05 4.14119e-05 4.06242e-05 3.98664e-05 3.91365e-05 3.84328e-05 3.77537e-05 3.70978e-05 3.64635e-05 3.58496e-05 3.5255e-05 3.46786e-05 3.41193e-05 3.35762e-05 3.30484e-05 3.25351e-05 3.20356e-05 3.15492e-05 3.10753e-05 3.06131e-05 3.01622e-05 2.97221e-05 2.92923e-05 2.88722e-05 2.84615e-05 2.80599e-05 2.76668e-05 2.7282e-05 2.69051e-05 2.65359e-05 2.6174e-05 2.58192e-05 2.54712e-05 2.51298e-05 2.47947e-05 2.44657e-05 2.41427e-05 2.38254e-05 2.35137e-05 2.32073e-05 2.29061e-05 2.26099e-05 2.23187e-05 2.20322e-05 2.17503e-05 2.14729e-05 2.11998e-05 2.0931e-05 2.06663e-05 2.04056e-05 2.01488e-05 1.98958e-05 1.96465e-05 1.94008e-05 1.91586e-05 1.89199e-05 1.86845e-05 1.84524e-05 1.82235e-05 1.79976e-05 1.77749e-05 1.75551e-05 1.73382e-05 1.71241e-05 1.69128e-05 1.67043e-05 1.64984e-05 1.62951e-05 1.60943e-05 1.58961e-05 1.57002e-05 1.55068e-05 1.53157e-05 1.51269e-05 1.49404e-05 1.4756e-05 1.45738e-05 1.43937e-05 1.42156e-05 1.40396e-05 1.38656e-05 1.36936e-05 1.35234e-05 1.33552e-05 1.31887e-05 1.30241e-05 1.28613e-05 1.27002e-05 1.25408e-05 1.23831e-05 1.2227e-05 1.20725e-05 1.19197e-05 1.17683e-05 1.16185e-05 1.14703e-05 1.13234e-05 1.11781e-05 1.10341e-05 1.08916e-05 1.07504e-05 1.06106e-05 1.04721e-05 1.03349e-05 1.01989e-05 1.00642e-05 9.93078e-06 9.79853e-06 9.66747e-06 9.53756e-06 9.40881e-06 9.28118e-06 9.15466e-06 9.02922e-06 8.90485e-06 8.78152e-06 8.65922e-06 8.53792e-06 8.41762e-06 8.29828e-06 8.17989e-06 8.06245e-06 7.94592e-06 7.83029e-06 7.71555e-06 7.60168e-06 7.48866e-06 7.37647e-06 7.26511e-06 7.15454e-06 7.04477e-06 6.93577e-06 6.82753e-06 6.72003e-06 6.61326e-06 6.5072e-06 6.40185e-06 6.29718e-06 6.19317e-06 6.08983e-06 5.98713e-06 5.88506e-06 5.7836e-06 5.68275e-06 5.58249e-06 5.4828e-06 5.38367e-06 5.2851e-06 5.18707e-06 5.08956e-06 4.99256e-06 4.89607e-06 4.80006e-06 4.70453e-06 4.60947e-06 4.51486e-06 4.42069e-06 4.32695e-06 4.23363e-06 4.14072e-06 4.04821e-06 3.95609e-06 3.86434e-06 3.77296e-06 3.68193e-06 3.59125e-06 3.50091e-06 3.4109e-06 3.3212e-06 3.23182e-06 3.14274e-06 3.05395e-06 2.96545e-06 2.87724e-06 2.78929e-06 2.70162e-06 2.61421e-06 2.52707e-06 2.44019e-06 2.35356e-06 2.26719e-06 2.18109e-06 2.09525e-06 2.00969e-06 1.92441e-06 1.83944e-06 1.75479e-06 1.67048e-06 1.58656e-06 1.50307e-06 1.42007e-06 1.33762e-06 1.25584e-06 1.17484e-06 1.09478e-06 1.01593e-06 9.38451e-07 8.63089e-07 7.89469e-07 7.20725e-07 6.51823e-07 5.99507e-07 5.27727e-07 5.344e-07 3.94453e-07 0.0522435 0.0232659 0.0281859 0.0106576 0.00939113 0.0054445 0.00405698 0.00286441 0.00204186 0.00160764 0.00115425 0.000935262 0.000689522 0.000558044 0.000423678 0.000342348 0.000267892 0.000218864 0.000177746 0.000149672 0.000127641 0.000112528 0.000101134 9.322e-05 8.7209e-05 8.27833e-05 7.92086e-05 7.63052e-05 7.37649e-05 7.15097e-05 6.94212e-05 6.74697e-05 6.56134e-05 6.3842e-05 6.2142e-05 6.05099e-05 5.89414e-05 5.7435e-05 5.59888e-05 5.46014e-05 5.32713e-05 5.19967e-05 5.07757e-05 4.96063e-05 4.84862e-05 4.74133e-05 4.63854e-05 4.54e-05 4.4455e-05 4.35483e-05 4.26777e-05 4.18412e-05 4.10369e-05 4.02627e-05 3.95171e-05 3.87983e-05 3.81048e-05 3.74351e-05 3.67879e-05 3.61618e-05 3.55556e-05 3.49683e-05 3.43989e-05 3.38462e-05 3.33096e-05 3.2788e-05 3.22808e-05 3.17871e-05 3.13064e-05 3.0838e-05 3.03813e-05 2.99357e-05 2.95008e-05 2.90761e-05 2.8661e-05 2.82553e-05 2.78585e-05 2.74702e-05 2.709e-05 2.67178e-05 2.63531e-05 2.59957e-05 2.56452e-05 2.53015e-05 2.49643e-05 2.46334e-05 2.43086e-05 2.39896e-05 2.36762e-05 2.33684e-05 2.30658e-05 2.27684e-05 2.24759e-05 2.21883e-05 2.19053e-05 2.16269e-05 2.1353e-05 2.10833e-05 2.08177e-05 2.05563e-05 2.02988e-05 2.00451e-05 1.97952e-05 1.95489e-05 1.93062e-05 1.90669e-05 1.8831e-05 1.85984e-05 1.8369e-05 1.81428e-05 1.79196e-05 1.76994e-05 1.74821e-05 1.72677e-05 1.70561e-05 1.68472e-05 1.6641e-05 1.64374e-05 1.62364e-05 1.60378e-05 1.58418e-05 1.5648e-05 1.54567e-05 1.52677e-05 1.50809e-05 1.48963e-05 1.47139e-05 1.45336e-05 1.43553e-05 1.41791e-05 1.40049e-05 1.38326e-05 1.36623e-05 1.34938e-05 1.33272e-05 1.31624e-05 1.29994e-05 1.28381e-05 1.26786e-05 1.25207e-05 1.23644e-05 1.22098e-05 1.20568e-05 1.19053e-05 1.17553e-05 1.16069e-05 1.14599e-05 1.13144e-05 1.11703e-05 1.10276e-05 1.08863e-05 1.07463e-05 1.06076e-05 1.04703e-05 1.03342e-05 1.01994e-05 1.00658e-05 9.93339e-06 9.8022e-06 9.67217e-06 9.54329e-06 9.41553e-06 9.28889e-06 9.16333e-06 9.03884e-06 8.9154e-06 8.79298e-06 8.67158e-06 8.55118e-06 8.43174e-06 8.31326e-06 8.19572e-06 8.0791e-06 7.96339e-06 7.84857e-06 7.73462e-06 7.62153e-06 7.50927e-06 7.39784e-06 7.28722e-06 7.17739e-06 7.06834e-06 6.96005e-06 6.85251e-06 6.74571e-06 6.63962e-06 6.53424e-06 6.42954e-06 6.32553e-06 6.22217e-06 6.11947e-06 6.0174e-06 5.91595e-06 5.81511e-06 5.71486e-06 5.6152e-06 5.51611e-06 5.41757e-06 5.31957e-06 5.22211e-06 5.12517e-06 5.02874e-06 4.9328e-06 4.83734e-06 4.74235e-06 4.64783e-06 4.55375e-06 4.46011e-06 4.3669e-06 4.2741e-06 4.18171e-06 4.08971e-06 3.99809e-06 3.90684e-06 3.81596e-06 3.72544e-06 3.63525e-06 3.54541e-06 3.45588e-06 3.36668e-06 3.27778e-06 3.18918e-06 3.10088e-06 3.01287e-06 2.92513e-06 2.83767e-06 2.75049e-06 2.66356e-06 2.5769e-06 2.49051e-06 2.40438e-06 2.3185e-06 2.2329e-06 2.14757e-06 2.06252e-06 1.97776e-06 1.89331e-06 1.80919e-06 1.72543e-06 1.64206e-06 1.55913e-06 1.4767e-06 1.39483e-06 1.31363e-06 1.23322e-06 1.15373e-06 1.07544e-06 9.9844e-07 9.23548e-07 8.501e-07 7.81543e-07 7.11943e-07 6.59085e-07 5.84326e-07 5.87872e-07 4.71324e-07 0.0206584 0.0233102 0.0132111 0.00806316 0.00651583 0.00488319 0.00371939 0.0028279 0.00216968 0.00166052 0.00129978 0.00100215 0.000794408 0.000618464 0.000493982 0.000389367 0.000313708 0.000251571 0.000205983 0.000169637 0.000142996 0.000122449 0.000107575 9.64073e-05 8.83496e-05 8.22889e-05 7.77716e-05 7.42156e-05 7.13666e-05 6.89537e-05 6.68576e-05 6.49635e-05 6.32207e-05 6.15839e-05 6.00329e-05 5.85508e-05 5.71297e-05 5.57636e-05 5.44491e-05 5.31838e-05 5.1966e-05 5.0794e-05 4.96665e-05 4.8582e-05 4.75389e-05 4.65357e-05 4.55709e-05 4.46427e-05 4.37495e-05 4.28897e-05 4.20616e-05 4.12638e-05 4.04946e-05 3.97524e-05 3.9036e-05 3.8344e-05 3.76749e-05 3.70277e-05 3.64011e-05 3.5794e-05 3.52054e-05 3.46344e-05 3.408e-05 3.35413e-05 3.30176e-05 3.25082e-05 3.20123e-05 3.15292e-05 3.10584e-05 3.05994e-05 3.01514e-05 2.97142e-05 2.92871e-05 2.88698e-05 2.84617e-05 2.80627e-05 2.76722e-05 2.72899e-05 2.69155e-05 2.65488e-05 2.61893e-05 2.58369e-05 2.54913e-05 2.51522e-05 2.48195e-05 2.44929e-05 2.41721e-05 2.38571e-05 2.35476e-05 2.32434e-05 2.29444e-05 2.26505e-05 2.23614e-05 2.2077e-05 2.17972e-05 2.15219e-05 2.12509e-05 2.09841e-05 2.07214e-05 2.04627e-05 2.02078e-05 1.99568e-05 1.97094e-05 1.94656e-05 1.92253e-05 1.89884e-05 1.87549e-05 1.85245e-05 1.82974e-05 1.80733e-05 1.78522e-05 1.76341e-05 1.74189e-05 1.72065e-05 1.69969e-05 1.67899e-05 1.65856e-05 1.63839e-05 1.61846e-05 1.59879e-05 1.57936e-05 1.56016e-05 1.5412e-05 1.52246e-05 1.50395e-05 1.48565e-05 1.46757e-05 1.4497e-05 1.43203e-05 1.41456e-05 1.39729e-05 1.38021e-05 1.36332e-05 1.34662e-05 1.3301e-05 1.31376e-05 1.29759e-05 1.2816e-05 1.26578e-05 1.25012e-05 1.23463e-05 1.21929e-05 1.20412e-05 1.18909e-05 1.17422e-05 1.1595e-05 1.14492e-05 1.13049e-05 1.11619e-05 1.10204e-05 1.08802e-05 1.07413e-05 1.06038e-05 1.04675e-05 1.03325e-05 1.01988e-05 1.00662e-05 9.93488e-06 9.80472e-06 9.6757e-06 9.54783e-06 9.42106e-06 9.29539e-06 9.17079e-06 9.04725e-06 8.92475e-06 8.80326e-06 8.68278e-06 8.56328e-06 8.44474e-06 8.32714e-06 8.21047e-06 8.09472e-06 7.97985e-06 7.86587e-06 7.75275e-06 7.64048e-06 7.52903e-06 7.4184e-06 7.30857e-06 7.19953e-06 7.09124e-06 6.98372e-06 6.87693e-06 6.77087e-06 6.66552e-06 6.56086e-06 6.45689e-06 6.35358e-06 6.25093e-06 6.14892e-06 6.04753e-06 5.94676e-06 5.84659e-06 5.74701e-06 5.648e-06 5.54956e-06 5.45166e-06 5.3543e-06 5.25747e-06 5.16115e-06 5.06533e-06 4.97e-06 4.87515e-06 4.78077e-06 4.68683e-06 4.59335e-06 4.50029e-06 4.40766e-06 4.31544e-06 4.22362e-06 4.13219e-06 4.04114e-06 3.95046e-06 3.86014e-06 3.77017e-06 3.68054e-06 3.59125e-06 3.50228e-06 3.41363e-06 3.32528e-06 3.23725e-06 3.1495e-06 3.06204e-06 2.97487e-06 2.88797e-06 2.80135e-06 2.71501e-06 2.62893e-06 2.54312e-06 2.45758e-06 2.37231e-06 2.28733e-06 2.20262e-06 2.11821e-06 2.03411e-06 1.95034e-06 1.86692e-06 1.78387e-06 1.70125e-06 1.61909e-06 1.53745e-06 1.45641e-06 1.37606e-06 1.29654e-06 1.21797e-06 1.14062e-06 1.06454e-06 9.90577e-07 9.17952e-07 8.50143e-07 7.80901e-07 7.28139e-07 6.52486e-07 6.53246e-07 5.56907e-07 0.00834924 0.0159991 0.00870828 0.00581548 0.00472928 0.00443979 0.0033233 0.0028109 0.00213109 0.0017362 0.00134317 0.00108105 0.00084868 0.000681432 0.000540754 0.000435378 0.000349114 0.000283287 0.000230403 0.000189917 0.000158028 0.000133863 0.000115288 0.000101469 9.10799e-05 8.3429e-05 7.76824e-05 7.33621e-05 6.99942e-05 6.73085e-05 6.50688e-05 6.31436e-05 6.14265e-05 5.98593e-05 5.83974e-05 5.70165e-05 5.5699e-05 5.44352e-05 5.32185e-05 5.20451e-05 5.09122e-05 4.98183e-05 4.87618e-05 4.77417e-05 4.6757e-05 4.58066e-05 4.48892e-05 4.4004e-05 4.31495e-05 4.23248e-05 4.15285e-05 4.07593e-05 4.00163e-05 3.9298e-05 3.86033e-05 3.79312e-05 3.72805e-05 3.66501e-05 3.60391e-05 3.54464e-05 3.48712e-05 3.43127e-05 3.377e-05 3.32423e-05 3.27289e-05 3.22292e-05 3.17425e-05 3.12681e-05 3.08056e-05 3.03544e-05 2.9914e-05 2.94838e-05 2.90636e-05 2.86528e-05 2.82511e-05 2.78581e-05 2.74734e-05 2.70967e-05 2.67278e-05 2.63663e-05 2.60119e-05 2.56644e-05 2.53235e-05 2.4989e-05 2.46608e-05 2.43385e-05 2.4022e-05 2.3711e-05 2.34055e-05 2.31053e-05 2.281e-05 2.25198e-05 2.22343e-05 2.19534e-05 2.16771e-05 2.14051e-05 2.11374e-05 2.08738e-05 2.06142e-05 2.03585e-05 2.01066e-05 1.98585e-05 1.9614e-05 1.9373e-05 1.91354e-05 1.89012e-05 1.86702e-05 1.84425e-05 1.82178e-05 1.79962e-05 1.77776e-05 1.75619e-05 1.7349e-05 1.71388e-05 1.69314e-05 1.67267e-05 1.65245e-05 1.63249e-05 1.61277e-05 1.5933e-05 1.57407e-05 1.55507e-05 1.53629e-05 1.51775e-05 1.49942e-05 1.4813e-05 1.46341e-05 1.4457e-05 1.42821e-05 1.41091e-05 1.39381e-05 1.37689e-05 1.36016e-05 1.34362e-05 1.32726e-05 1.31107e-05 1.29506e-05 1.27921e-05 1.26353e-05 1.24802e-05 1.23267e-05 1.21747e-05 1.20243e-05 1.18754e-05 1.1728e-05 1.15821e-05 1.14376e-05 1.12945e-05 1.11528e-05 1.10125e-05 1.08735e-05 1.07358e-05 1.05994e-05 1.04643e-05 1.03305e-05 1.01978e-05 1.00664e-05 9.93612e-06 9.80702e-06 9.67905e-06 9.55221e-06 9.42647e-06 9.3018e-06 9.17819e-06 9.05563e-06 8.93409e-06 8.81356e-06 8.69401e-06 8.57543e-06 8.45779e-06 8.3411e-06 8.22532e-06 8.11044e-06 7.99644e-06 7.88331e-06 7.77103e-06 7.65959e-06 7.54897e-06 7.43915e-06 7.33011e-06 7.22186e-06 7.11436e-06 7.00761e-06 6.90159e-06 6.79628e-06 6.69167e-06 6.58775e-06 6.48451e-06 6.38192e-06 6.27998e-06 6.17867e-06 6.07799e-06 5.97791e-06 5.87843e-06 5.77952e-06 5.68119e-06 5.58341e-06 5.48617e-06 5.38947e-06 5.29329e-06 5.19761e-06 5.10244e-06 5.00774e-06 4.91352e-06 4.81977e-06 4.72646e-06 4.63359e-06 4.54115e-06 4.44914e-06 4.35753e-06 4.26632e-06 4.17549e-06 4.08505e-06 3.99498e-06 3.90526e-06 3.8159e-06 3.72688e-06 3.63819e-06 3.54983e-06 3.46179e-06 3.37406e-06 3.28664e-06 3.19952e-06 3.11269e-06 3.02615e-06 2.93989e-06 2.85392e-06 2.76822e-06 2.68281e-06 2.59768e-06 2.51283e-06 2.42827e-06 2.344e-06 2.26004e-06 2.17639e-06 2.09307e-06 2.01011e-06 1.92752e-06 1.84534e-06 1.76362e-06 1.68239e-06 1.60173e-06 1.52171e-06 1.44243e-06 1.36402e-06 1.2866e-06 1.21044e-06 1.13559e-06 1.06286e-06 9.91431e-07 9.24743e-07 8.56429e-07 8.04234e-07 7.2875e-07 7.27424e-07 6.47639e-07 0.00540099 0.0103189 0.00616947 0.00371036 0.00346922 0.00328947 0.00306391 0.00249427 0.002128 0.00168767 0.00139526 0.00110871 0.000905169 0.00072417 0.000588825 0.00047452 0.000386373 0.00031402 0.000257439 0.000211859 0.0001762 0.000147985 0.000126159 0.000109256 9.64199e-05 8.66779e-05 7.93723e-05 7.38486e-05 6.96555e-05 6.63948e-05 6.38025e-05 6.16663e-05 5.98511e-05 5.82549e-05 5.68146e-05 5.54844e-05 5.42364e-05 5.30514e-05 5.19175e-05 5.08267e-05 4.97743e-05 4.87568e-05 4.77723e-05 4.68192e-05 4.58964e-05 4.50028e-05 4.41377e-05 4.33002e-05 4.24894e-05 4.17045e-05 4.09445e-05 4.02087e-05 3.9496e-05 3.88055e-05 3.81364e-05 3.74877e-05 3.68585e-05 3.6248e-05 3.56553e-05 3.50797e-05 3.45203e-05 3.39764e-05 3.34473e-05 3.29323e-05 3.24309e-05 3.19423e-05 3.14661e-05 3.10016e-05 3.05484e-05 3.0106e-05 2.96739e-05 2.92517e-05 2.8839e-05 2.84354e-05 2.80405e-05 2.7654e-05 2.72755e-05 2.69048e-05 2.65416e-05 2.61856e-05 2.58365e-05 2.54941e-05 2.51581e-05 2.48284e-05 2.45047e-05 2.41869e-05 2.38746e-05 2.35678e-05 2.32663e-05 2.29699e-05 2.26785e-05 2.23919e-05 2.211e-05 2.18326e-05 2.15596e-05 2.12909e-05 2.10264e-05 2.07659e-05 2.05094e-05 2.02567e-05 2.00077e-05 1.97624e-05 1.95206e-05 1.92823e-05 1.90474e-05 1.88158e-05 1.85874e-05 1.83621e-05 1.81398e-05 1.79206e-05 1.77043e-05 1.74909e-05 1.72802e-05 1.70723e-05 1.6867e-05 1.66643e-05 1.64642e-05 1.62666e-05 1.60715e-05 1.58787e-05 1.56883e-05 1.55002e-05 1.53143e-05 1.51306e-05 1.49491e-05 1.47698e-05 1.45925e-05 1.44172e-05 1.42439e-05 1.40726e-05 1.39031e-05 1.37356e-05 1.35699e-05 1.3406e-05 1.32439e-05 1.30835e-05 1.29248e-05 1.27678e-05 1.26125e-05 1.24587e-05 1.23066e-05 1.2156e-05 1.20069e-05 1.18594e-05 1.17133e-05 1.15686e-05 1.14254e-05 1.12836e-05 1.11431e-05 1.1004e-05 1.08662e-05 1.07297e-05 1.05945e-05 1.04605e-05 1.03278e-05 1.01962e-05 1.00659e-05 9.93671e-06 9.80868e-06 9.68177e-06 9.55597e-06 9.43125e-06 9.3076e-06 9.18501e-06 9.06342e-06 8.94286e-06 8.82329e-06 8.70469e-06 8.58706e-06 8.47035e-06 8.35457e-06 8.2397e-06 8.12571e-06 8.0126e-06 7.90035e-06 7.78893e-06 7.67834e-06 7.56856e-06 7.45958e-06 7.35137e-06 7.24393e-06 7.13724e-06 7.03129e-06 6.92605e-06 6.82153e-06 6.71769e-06 6.61454e-06 6.51205e-06 6.41022e-06 6.30902e-06 6.20845e-06 6.1085e-06 6.00914e-06 5.91037e-06 5.81218e-06 5.71455e-06 5.61747e-06 5.52093e-06 5.42492e-06 5.32942e-06 5.23443e-06 5.13992e-06 5.0459e-06 4.95235e-06 4.85926e-06 4.76661e-06 4.6744e-06 4.58262e-06 4.49126e-06 4.40031e-06 4.30975e-06 4.21958e-06 4.12978e-06 4.04036e-06 3.9513e-06 3.86259e-06 3.77423e-06 3.6862e-06 3.5985e-06 3.51112e-06 3.42406e-06 3.33731e-06 3.25087e-06 3.16473e-06 3.07888e-06 2.99333e-06 2.90807e-06 2.82311e-06 2.73843e-06 2.65405e-06 2.56998e-06 2.4862e-06 2.40274e-06 2.31961e-06 2.23682e-06 2.15438e-06 2.07233e-06 1.99069e-06 1.90949e-06 1.82878e-06 1.74862e-06 1.66907e-06 1.59021e-06 1.51213e-06 1.43498e-06 1.35887e-06 1.28407e-06 1.21062e-06 1.1393e-06 1.06927e-06 1.00393e-06 9.3681e-07 8.85492e-07 8.1072e-07 8.07814e-07 7.41505e-07 0.00326748 0.00688813 0.00537253 0.00281355 0.00224394 0.00243481 0.00241093 0.00225194 0.00192281 0.001653 0.00135788 0.0011333 0.000922832 0.000761249 0.000619961 0.000509464 0.000416387 0.000342609 0.000281825 0.000233384 0.000194114 0.000162926 0.000138056 0.000118545 0.000103292 9.15368e-05 8.25196e-05 7.56608e-05 7.04276e-05 6.6417e-05 6.32896e-05 6.08012e-05 5.87618e-05 5.70407e-05 5.55418e-05 5.42011e-05 5.29731e-05 5.18284e-05 5.07464e-05 4.97141e-05 4.87226e-05 4.77661e-05 4.6841e-05 4.59446e-05 4.50753e-05 4.42319e-05 4.34133e-05 4.26188e-05 4.18478e-05 4.10994e-05 4.03731e-05 3.96681e-05 3.89837e-05 3.83194e-05 3.76743e-05 3.70477e-05 3.64389e-05 3.58473e-05 3.52721e-05 3.47127e-05 3.41684e-05 3.36386e-05 3.31226e-05 3.262e-05 3.21301e-05 3.16524e-05 3.11863e-05 3.07315e-05 3.02875e-05 2.98537e-05 2.94298e-05 2.90154e-05 2.86101e-05 2.82135e-05 2.78254e-05 2.74454e-05 2.70732e-05 2.67085e-05 2.6351e-05 2.60004e-05 2.56567e-05 2.53194e-05 2.49884e-05 2.46634e-05 2.43444e-05 2.4031e-05 2.37231e-05 2.34205e-05 2.31231e-05 2.28306e-05 2.25431e-05 2.22602e-05 2.19819e-05 2.17081e-05 2.14385e-05 2.11732e-05 2.09119e-05 2.06547e-05 2.04012e-05 2.01516e-05 1.99056e-05 1.96632e-05 1.94243e-05 1.91888e-05 1.89565e-05 1.87276e-05 1.85018e-05 1.8279e-05 1.80593e-05 1.78425e-05 1.76286e-05 1.74175e-05 1.72091e-05 1.70034e-05 1.68004e-05 1.65999e-05 1.64019e-05 1.62064e-05 1.60133e-05 1.58225e-05 1.56341e-05 1.54479e-05 1.5264e-05 1.50822e-05 1.49025e-05 1.47249e-05 1.45494e-05 1.43759e-05 1.42043e-05 1.40347e-05 1.38669e-05 1.3701e-05 1.35369e-05 1.33746e-05 1.3214e-05 1.30551e-05 1.2898e-05 1.27425e-05 1.25886e-05 1.24363e-05 1.22855e-05 1.21363e-05 1.19886e-05 1.18424e-05 1.16977e-05 1.15543e-05 1.14124e-05 1.12718e-05 1.11326e-05 1.09947e-05 1.08582e-05 1.07229e-05 1.05888e-05 1.0456e-05 1.03244e-05 1.01941e-05 1.00648e-05 9.93676e-06 9.80982e-06 9.68399e-06 9.55925e-06 9.43558e-06 9.31296e-06 9.19138e-06 9.07081e-06 8.95124e-06 8.83265e-06 8.71503e-06 8.59834e-06 8.48259e-06 8.36774e-06 8.25379e-06 8.14072e-06 8.02851e-06 7.91714e-06 7.80661e-06 7.69689e-06 7.58798e-06 7.47985e-06 7.37248e-06 7.26588e-06 7.16001e-06 7.05487e-06 6.95045e-06 6.84672e-06 6.74368e-06 6.64132e-06 6.53961e-06 6.43854e-06 6.33811e-06 6.2383e-06 6.1391e-06 6.04049e-06 5.94246e-06 5.845e-06 5.7481e-06 5.65175e-06 5.55593e-06 5.46063e-06 5.36584e-06 5.27155e-06 5.17776e-06 5.08444e-06 4.99158e-06 4.89919e-06 4.80723e-06 4.71572e-06 4.62463e-06 4.53396e-06 4.44369e-06 4.35382e-06 4.26434e-06 4.17523e-06 4.0865e-06 3.99813e-06 3.91012e-06 3.82246e-06 3.73513e-06 3.64814e-06 3.56147e-06 3.47513e-06 3.38911e-06 3.3034e-06 3.218e-06 3.1329e-06 3.04812e-06 2.96363e-06 2.87946e-06 2.79559e-06 2.71203e-06 2.62879e-06 2.54588e-06 2.4633e-06 2.38108e-06 2.29922e-06 2.21775e-06 2.13669e-06 2.05608e-06 1.97596e-06 1.89636e-06 1.81736e-06 1.73901e-06 1.6614e-06 1.58463e-06 1.50884e-06 1.43414e-06 1.3608e-06 1.28883e-06 1.21902e-06 1.15049e-06 1.08658e-06 1.02081e-06 9.70495e-07 8.96742e-07 8.92643e-07 8.37407e-07 0.00241545 0.00476816 0.00416438 0.00279792 0.00160675 0.00160583 0.00185533 0.00183601 0.00172755 0.00151224 0.0013143 0.00110528 0.000932464 0.000773707 0.000644943 0.000533218 0.000442697 0.000366422 0.000304545 0.000253325 0.000211837 0.000177972 0.000150729 0.000128826 0.000111435 9.77065e-05 8.69932e-05 7.86835e-05 7.22818e-05 6.73472e-05 6.35282e-05 6.0534e-05 5.81447e-05 5.61899e-05 5.45474e-05 5.31268e-05 5.18657e-05 5.07194e-05 4.96576e-05 4.86591e-05 4.77099e-05 4.68004e-05 4.5924e-05 4.50765e-05 4.4255e-05 4.34574e-05 4.26825e-05 4.1929e-05 4.11963e-05 4.04837e-05 3.97906e-05 3.91164e-05 3.84605e-05 3.78225e-05 3.72018e-05 3.65978e-05 3.601e-05 3.54378e-05 3.48806e-05 3.4338e-05 3.38093e-05 3.32941e-05 3.27917e-05 3.23018e-05 3.18239e-05 3.13574e-05 3.0902e-05 3.04572e-05 3.00225e-05 2.95977e-05 2.91823e-05 2.87759e-05 2.83783e-05 2.7989e-05 2.76079e-05 2.72345e-05 2.68686e-05 2.651e-05 2.61584e-05 2.58135e-05 2.54752e-05 2.51431e-05 2.48171e-05 2.44971e-05 2.41827e-05 2.38738e-05 2.35703e-05 2.3272e-05 2.29787e-05 2.26903e-05 2.24066e-05 2.21275e-05 2.18529e-05 2.15826e-05 2.13165e-05 2.10546e-05 2.07966e-05 2.05426e-05 2.02923e-05 2.00457e-05 1.98027e-05 1.95632e-05 1.93271e-05 1.90944e-05 1.88649e-05 1.86386e-05 1.84154e-05 1.81952e-05 1.79779e-05 1.77636e-05 1.75521e-05 1.73433e-05 1.71372e-05 1.69338e-05 1.6733e-05 1.65346e-05 1.63388e-05 1.61454e-05 1.59543e-05 1.57656e-05 1.55791e-05 1.53949e-05 1.52128e-05 1.50329e-05 1.4855e-05 1.46793e-05 1.45056e-05 1.43338e-05 1.41639e-05 1.3996e-05 1.38298e-05 1.36656e-05 1.35031e-05 1.33423e-05 1.31833e-05 1.3026e-05 1.28704e-05 1.27163e-05 1.25639e-05 1.24131e-05 1.22637e-05 1.21159e-05 1.19696e-05 1.18248e-05 1.16813e-05 1.15393e-05 1.13987e-05 1.12594e-05 1.11215e-05 1.09848e-05 1.08495e-05 1.07154e-05 1.05825e-05 1.04509e-05 1.03205e-05 1.01913e-05 1.00632e-05 9.93621e-06 9.81037e-06 9.68563e-06 9.56197e-06 9.43936e-06 9.31779e-06 9.19724e-06 9.0777e-06 8.95914e-06 8.84154e-06 8.7249e-06 8.60919e-06 8.4944e-06 8.38051e-06 8.26749e-06 8.15535e-06 8.04406e-06 7.93361e-06 7.82397e-06 7.71514e-06 7.60711e-06 7.49985e-06 7.39335e-06 7.2876e-06 7.18258e-06 7.07828e-06 6.97468e-06 6.87178e-06 6.76955e-06 6.66799e-06 6.56708e-06 6.46681e-06 6.36717e-06 6.26814e-06 6.16971e-06 6.07187e-06 5.97461e-06 5.87791e-06 5.78177e-06 5.68616e-06 5.59109e-06 5.49654e-06 5.40249e-06 5.30894e-06 5.21587e-06 5.12328e-06 5.03116e-06 4.93948e-06 4.84826e-06 4.75747e-06 4.6671e-06 4.57715e-06 4.48761e-06 4.39846e-06 4.3097e-06 4.22133e-06 4.13332e-06 4.04569e-06 3.95841e-06 3.87148e-06 3.7849e-06 3.69866e-06 3.61275e-06 3.52717e-06 3.44192e-06 3.35699e-06 3.27238e-06 3.18809e-06 3.10411e-06 3.02046e-06 2.93713e-06 2.85412e-06 2.77144e-06 2.6891e-06 2.60711e-06 2.52548e-06 2.44422e-06 2.36336e-06 2.28292e-06 2.20293e-06 2.12342e-06 2.04443e-06 1.96602e-06 1.88824e-06 1.81116e-06 1.73487e-06 1.65947e-06 1.5851e-06 1.51186e-06 1.44002e-06 1.36958e-06 1.30132e-06 1.23432e-06 1.17187e-06 1.10748e-06 1.05824e-06 9.85634e-07 9.80659e-07 9.34565e-07 0.0017557 0.00349329 0.00325946 0.00251775 0.00150388 0.00111694 0.00129757 0.0014615 0.00144669 0.00136211 0.00121199 0.00106356 0.000909621 0.000775602 0.000653068 0.000550031 0.000460526 0.000386166 0.000323224 0.000271248 0.000227948 0.000192409 0.000163186 0.000139421 0.00012016 0.000104709 9.23998e-05 8.26885e-05 7.50768e-05 6.91452e-05 6.45256e-05 6.09154e-05 5.80649e-05 5.57793e-05 5.39073e-05 5.23365e-05 5.09836e-05 4.97888e-05 4.87092e-05 4.77146e-05 4.67838e-05 4.59022e-05 4.50596e-05 4.42491e-05 4.3466e-05 4.27069e-05 4.19696e-05 4.12525e-05 4.05545e-05 3.98747e-05 3.92125e-05 3.85672e-05 3.79385e-05 3.73258e-05 3.67285e-05 3.61464e-05 3.5579e-05 3.50258e-05 3.44864e-05 3.39603e-05 3.34471e-05 3.29463e-05 3.24575e-05 3.19803e-05 3.15143e-05 3.10591e-05 3.06143e-05 3.01795e-05 2.97543e-05 2.93384e-05 2.89315e-05 2.85333e-05 2.81433e-05 2.77615e-05 2.73873e-05 2.70207e-05 2.66612e-05 2.63088e-05 2.59631e-05 2.56239e-05 2.5291e-05 2.49643e-05 2.46434e-05 2.43282e-05 2.40186e-05 2.37143e-05 2.34152e-05 2.31212e-05 2.28321e-05 2.25477e-05 2.22679e-05 2.19927e-05 2.17218e-05 2.14551e-05 2.11926e-05 2.0934e-05 2.06794e-05 2.04286e-05 2.01815e-05 1.9938e-05 1.9698e-05 1.94614e-05 1.92282e-05 1.89983e-05 1.87716e-05 1.8548e-05 1.83274e-05 1.81098e-05 1.7895e-05 1.76832e-05 1.74741e-05 1.72677e-05 1.70639e-05 1.68628e-05 1.66642e-05 1.64681e-05 1.62744e-05 1.6083e-05 1.58941e-05 1.57073e-05 1.55229e-05 1.53406e-05 1.51605e-05 1.49824e-05 1.48065e-05 1.46325e-05 1.44606e-05 1.42906e-05 1.41224e-05 1.39562e-05 1.37918e-05 1.36292e-05 1.34683e-05 1.33092e-05 1.31517e-05 1.29959e-05 1.28418e-05 1.26893e-05 1.25383e-05 1.23889e-05 1.22411e-05 1.20947e-05 1.19498e-05 1.18063e-05 1.16642e-05 1.15235e-05 1.13842e-05 1.12462e-05 1.11096e-05 1.09742e-05 1.08401e-05 1.07072e-05 1.05756e-05 1.04452e-05 1.03159e-05 1.01878e-05 1.00609e-05 9.93506e-06 9.81033e-06 9.6867e-06 9.56412e-06 9.44259e-06 9.32208e-06 9.20258e-06 9.08408e-06 8.96654e-06 8.84997e-06 8.73432e-06 8.6196e-06 8.50579e-06 8.39286e-06 8.28081e-06 8.16961e-06 8.05926e-06 7.94973e-06 7.84101e-06 7.73309e-06 7.62595e-06 7.51958e-06 7.41396e-06 7.30908e-06 7.20493e-06 7.10148e-06 6.99874e-06 6.89667e-06 6.79528e-06 6.69455e-06 6.59446e-06 6.49501e-06 6.39617e-06 6.29795e-06 6.20032e-06 6.10326e-06 6.00679e-06 5.91088e-06 5.81551e-06 5.72068e-06 5.62638e-06 5.53259e-06 5.43931e-06 5.34652e-06 5.25421e-06 5.16238e-06 5.07101e-06 4.98009e-06 4.88962e-06 4.79958e-06 4.70997e-06 4.62077e-06 4.53198e-06 4.44359e-06 4.35559e-06 4.26797e-06 4.18073e-06 4.09386e-06 4.00736e-06 3.9212e-06 3.83541e-06 3.74995e-06 3.66484e-06 3.58006e-06 3.49562e-06 3.41152e-06 3.32774e-06 3.2443e-06 3.16118e-06 3.0784e-06 2.99596e-06 2.91386e-06 2.83211e-06 2.75072e-06 2.6697e-06 2.58906e-06 2.50883e-06 2.42902e-06 2.34966e-06 2.27079e-06 2.19243e-06 2.11463e-06 2.03744e-06 1.96093e-06 1.88517e-06 1.81024e-06 1.73624e-06 1.66331e-06 1.59156e-06 1.52124e-06 1.45234e-06 1.38562e-06 1.32014e-06 1.25915e-06 1.19614e-06 1.14798e-06 1.07657e-06 1.07096e-06 1.03254e-06 0.00136637 0.00263812 0.00254531 0.0022016 0.00145481 0.000908718 0.000912738 0.0010804 0.00118268 0.00116548 0.00109702 0.000986962 0.000873188 0.000756548 0.000651378 0.000555134 0.000472109 0.00039963 0.000338281 0.000286008 0.000242235 0.000205504 0.000175023 0.000149774 0.000129046 0.000112116 9.84111e-05 8.7398e-05 7.86239e-05 7.16788e-05 6.62094e-05 6.19067e-05 5.85119e-05 5.58105e-05 5.36318e-05 5.18418e-05 5.03391e-05 4.90472e-05 4.79102e-05 4.68872e-05 4.59491e-05 4.50749e-05 4.42497e-05 4.34633e-05 4.27083e-05 4.19796e-05 4.12736e-05 4.05879e-05 3.99207e-05 3.92708e-05 3.86371e-05 3.8019e-05 3.74159e-05 3.68274e-05 3.62529e-05 3.56922e-05 3.51448e-05 3.46103e-05 3.40884e-05 3.35788e-05 3.3081e-05 3.25946e-05 3.21195e-05 3.1655e-05 3.12011e-05 3.07572e-05 3.03231e-05 2.98984e-05 2.94828e-05 2.9076e-05 2.86778e-05 2.82877e-05 2.79056e-05 2.75312e-05 2.71641e-05 2.68043e-05 2.64514e-05 2.61052e-05 2.57655e-05 2.54321e-05 2.51048e-05 2.47833e-05 2.44676e-05 2.41574e-05 2.38525e-05 2.35529e-05 2.32583e-05 2.29686e-05 2.26837e-05 2.24034e-05 2.21277e-05 2.18562e-05 2.15891e-05 2.13261e-05 2.10671e-05 2.0812e-05 2.05607e-05 2.03132e-05 2.00692e-05 1.98289e-05 1.95919e-05 1.93584e-05 1.91281e-05 1.8901e-05 1.8677e-05 1.84561e-05 1.82382e-05 1.80231e-05 1.7811e-05 1.76016e-05 1.73949e-05 1.71909e-05 1.69895e-05 1.67906e-05 1.65943e-05 1.64004e-05 1.62088e-05 1.60196e-05 1.58327e-05 1.56481e-05 1.54656e-05 1.52853e-05 1.51071e-05 1.4931e-05 1.47569e-05 1.45847e-05 1.44146e-05 1.42464e-05 1.408e-05 1.39155e-05 1.37528e-05 1.35918e-05 1.34326e-05 1.32751e-05 1.31192e-05 1.2965e-05 1.28124e-05 1.26614e-05 1.25119e-05 1.2364e-05 1.22176e-05 1.20726e-05 1.19291e-05 1.1787e-05 1.16463e-05 1.1507e-05 1.1369e-05 1.12323e-05 1.10969e-05 1.09628e-05 1.083e-05 1.06983e-05 1.05679e-05 1.04387e-05 1.03107e-05 1.01837e-05 1.0058e-05 9.93328e-06 9.80969e-06 9.68717e-06 9.5657e-06 9.44526e-06 9.32582e-06 9.20739e-06 9.08993e-06 8.97344e-06 8.85789e-06 8.74326e-06 8.62954e-06 8.51672e-06 8.40478e-06 8.2937e-06 8.18346e-06 8.07406e-06 7.96547e-06 7.85769e-06 7.75069e-06 7.64447e-06 7.539e-06 7.43428e-06 7.33029e-06 7.22702e-06 7.12445e-06 7.02257e-06 6.92137e-06 6.82083e-06 6.72094e-06 6.6217e-06 6.52308e-06 6.42507e-06 6.32767e-06 6.23085e-06 6.13462e-06 6.03895e-06 5.94384e-06 5.84927e-06 5.75525e-06 5.66174e-06 5.56874e-06 5.47624e-06 5.38424e-06 5.29272e-06 5.20167e-06 5.11108e-06 5.02094e-06 4.93125e-06 4.84199e-06 4.75316e-06 4.66474e-06 4.