<?xml version="1.0"?> 
<VTKFile type="StructuredGrid" version="0.1"> 
<StructuredGrid WholeExtent="0 256 0 256 0 0"> 
<Piece Extent="0 256 0 256 0 0"> 
<CellData>
<DataArray type="Float32" Name="err_h1" format="ascii" NumberOfComponents="1"> 
6.72368e-05 6.72135e-05 6.71901e-05 6.71667e-05 6.71433e-05 6.71199e-05 6.70964e-05 6.70729e-05 6.70494e-05 6.70259e-05 6.70023e-05 6.69787e-05 6.6955e-05 6.69314e-05 6.69077e-05 6.68839e-05 6.68602e-05 6.68364e-05 6.68126e-05 6.67887e-05 6.67649e-05 6.6741e-05 6.6717e-05 6.66931e-05 6.66691e-05 6.6645e-05 6.6621e-05 6.65969e-05 6.65728e-05 6.65487e-05 6.65245e-05 6.65003e-05 6.64761e-05 6.64518e-05 6.64276e-05 6.64032e-05 6.63789e-05 6.63545e-05 6.63301e-05 6.63057e-05 6.62813e-05 6.62568e-05 6.62323e-05 6.62077e-05 6.61832e-05 6.61586e-05 6.61339e-05 6.61093e-05 6.60846e-05 6.60599e-05 6.60352e-05 6.60104e-05 6.59856e-05 6.59608e-05 6.59359e-05 6.5911e-05 6.58861e-05 6.58612e-05 6.58362e-05 6.58112e-05 6.57862e-05 6.57611e-05 6.57361e-05 6.5711e-05 6.56858e-05 6.56607e-05 6.56355e-05 6.56102e-05 6.5585e-05 6.55597e-05 6.55344e-05 6.55091e-05 6.54837e-05 6.54583e-05 6.54329e-05 6.54075e-05 6.5382e-05 6.53565e-05 6.5331e-05 6.53054e-05 6.52798e-05 6.52542e-05 6.52286e-05 6.52029e-05 6.51772e-05 6.51515e-05 6.51257e-05 6.51e-05 6.50742e-05 6.50483e-05 6.50225e-05 6.49966e-05 6.49707e-05 6.49447e-05 6.49188e-05 6.48928e-05 6.48667e-05 6.48407e-05 6.48146e-05 6.47885e-05 6.47624e-05 6.47362e-05 6.471e-05 6.46838e-05 6.46576e-05 6.46313e-05 6.4605e-05 6.45787e-05 6.45523e-05 6.45259e-05 6.44995e-05 6.44731e-05 6.44466e-05 6.44202e-05 6.43936e-05 6.43671e-05 6.43405e-05 6.43139e-05 6.42873e-05 6.42607e-05 6.4234e-05 6.42073e-05 6.41806e-05 6.41538e-05 6.4127e-05 6.41002e-05 6.40734e-05 6.40466e-05 6.40197e-05 6.39928e-05 6.39658e-05 6.39389e-05 6.39119e-05 6.38848e-05 6.38578e-05 6.38307e-05 6.38036e-05 6.37765e-05 6.37494e-05 6.37222e-05 6.3695e-05 6.36678e-05 6.36405e-05 6.36132e-05 6.35859e-05 6.35586e-05 6.35313e-05 6.35039e-05 6.34765e-05 6.3449e-05 6.34216e-05 6.33941e-05 6.33666e-05 6.3339e-05 6.33115e-05 6.32839e-05 6.32563e-05 6.32286e-05 6.3201e-05 6.31733e-05 6.31456e-05 6.31178e-05 6.30901e-05 6.30623e-05 6.30345e-05 6.30066e-05 6.29788e-05 6.29509e-05 6.2923e-05 6.2895e-05 6.2867e-05 6.28391e-05 6.2811e-05 6.2783e-05 6.27549e-05 6.27268e-05 6.26987e-05 6.26706e-05 6.26424e-05 6.26142e-05 6.2586e-05 6.25578e-05 6.25295e-05 6.25012e-05 6.24729e-05 6.24446e-05 6.24162e-05 6.23878e-05 6.23594e-05 6.2331e-05 6.23025e-05 6.2274e-05 6.22455e-05 6.2217e-05 6.21884e-05 6.21598e-05 6.21312e-05 6.21026e-05 6.20739e-05 6.20453e-05 6.20166e-05 6.19878e-05 6.19591e-05 6.19303e-05 6.19015e-05 6.18727e-05 6.18438e-05 6.1815e-05 6.17861e-05 6.17572e-05 6.17282e-05 6.16992e-05 6.16703e-05 6.16412e-05 6.16122e-05 6.15832e-05 6.15541e-05 6.1525e-05 6.14958e-05 6.14667e-05 6.14375e-05 6.14083e-05 6.13791e-05 6.13498e-05 6.13206e-05 6.12913e-05 6.1262e-05 6.12326e-05 6.12033e-05 6.11739e-05 6.11445e-05 6.11151e-05 6.10856e-05 6.10561e-05 6.10266e-05 6.09971e-05 6.09676e-05 6.0938e-05 6.09084e-05 6.08788e-05 6.08492e-05 6.08195e-05 6.07898e-05 6.07601e-05 6.07304e-05 6.07007e-05 6.06709e-05 6.06411e-05 6.06113e-05 6.05815e-05 6.05516e-05 6.05217e-05 6.04918e-05 6.04619e-05 6.0432e-05 6.0402e-05 6.72926e-05 6.72691e-05 6.72457e-05 6.72222e-05 6.71986e-05 6.71751e-05 6.71515e-05 6.71279e-05 6.71042e-05 6.70806e-05 6.70569e-05 6.70331e-05 6.70094e-05 6.69856e-05 6.69617e-05 6.69379e-05 6.6914e-05 6.68901e-05 6.68662e-05 6.68422e-05 6.68182e-05 6.67942e-05 6.67701e-05 6.6746e-05 6.67219e-05 6.66978e-05 6.66736e-05 6.66494e-05 6.66252e-05 6.66009e-05 6.65766e-05 6.65523e-05 6.65279e-05 6.65036e-05 6.64792e-05 6.64547e-05 6.64303e-05 6.64058e-05 6.63812e-05 6.63567e-05 6.63321e-05 6.63075e-05 6.62829e-05 6.62582e-05 6.62335e-05 6.62088e-05 6.6184e-05 6.61592e-05 6.61344e-05 6.61096e-05 6.60847e-05 6.60598e-05 6.60349e-05 6.601e-05 6.5985e-05 6.596e-05 6.59349e-05 6.59099e-05 6.58848e-05 6.58596e-05 6.58345e-05 6.58093e-05 6.57841e-05 6.57589e-05 6.57336e-05 6.57083e-05 6.5683e-05 6.56576e-05 6.56322e-05 6.56068e-05 6.55814e-05 6.55559e-05 6.55304e-05 6.55049e-05 6.54794e-05 6.54538e-05 6.54282e-05 6.54026e-05 6.53769e-05 6.53512e-05 6.53255e-05 6.52998e-05 6.5274e-05 6.52482e-05 6.52224e-05 6.51965e-05 6.51706e-05 6.51447e-05 6.51188e-05 6.50928e-05 6.50668e-05 6.50408e-05 6.50147e-05 6.49887e-05 6.49626e-05 6.49364e-05 6.49103e-05 6.48841e-05 6.48579e-05 6.48316e-05 6.48054e-05 6.47791e-05 6.47527e-05 6.47264e-05 6.47e-05 6.46736e-05 6.46472e-05 6.46207e-05 6.45942e-05 6.45677e-05 6.45412e-05 6.45146e-05 6.4488e-05 6.44614e-05 6.44347e-05 6.44081e-05 6.43814e-05 6.43546e-05 6.43279e-05 6.43011e-05 6.42743e-05 6.42474e-05 6.42206e-05 6.41937e-05 6.41668e-05 6.41398e-05 6.41129e-05 6.40859e-05 6.40588e-05 6.40318e-05 6.40047e-05 6.39776e-05 6.39505e-05 6.39233e-05 6.38961e-05 6.38689e-05 6.38417e-05 6.38144e-05 6.37871e-05 6.37598e-05 6.37325e-05 6.37051e-05 6.36777e-05 6.36503e-05 6.36229e-05 6.35954e-05 6.35679e-05 6.35404e-05 6.35128e-05 6.34853e-05 6.34577e-05 6.343e-05 6.34024e-05 6.33747e-05 6.3347e-05 6.33193e-05 6.32915e-05 6.32637e-05 6.32359e-05 6.32081e-05 6.31803e-05 6.31524e-05 6.31245e-05 6.30965e-05 6.30686e-05 6.30406e-05 6.30126e-05 6.29846e-05 6.29565e-05 6.29284e-05 6.29003e-05 6.28722e-05 6.2844e-05 6.28158e-05 6.27876e-05 6.27594e-05 6.27311e-05 6.27028e-05 6.26745e-05 6.26462e-05 6.26178e-05 6.25894e-05 6.2561e-05 6.25326e-05 6.25041e-05 6.24757e-05 6.24472e-05 6.24186e-05 6.23901e-05 6.23615e-05 6.23329e-05 6.23042e-05 6.22756e-05 6.22469e-05 6.22182e-05 6.21895e-05 6.21607e-05 6.2132e-05 6.21032e-05 6.20743e-05 6.20455e-05 6.20166e-05 6.19877e-05 6.19588e-05 6.19298e-05 6.19009e-05 6.18719e-05 6.18429e-05 6.18138e-05 6.17848e-05 6.17557e-05 6.17266e-05 6.16974e-05 6.16683e-05 6.16391e-05 6.16099e-05 6.15807e-05 6.15514e-05 6.15221e-05 6.14928e-05 6.14635e-05 6.14342e-05 6.14048e-05 6.13754e-05 6.1346e-05 6.13165e-05 6.12871e-05 6.12576e-05 6.12281e-05 6.11986e-05 6.1169e-05 6.11394e-05 6.11098e-05 6.10802e-05 6.10506e-05 6.10209e-05 6.09912e-05 6.09615e-05 6.09318e-05 6.0902e-05 6.08722e-05 6.08424e-05 6.08126e-05 6.07827e-05 6.07529e-05 6.0723e-05 6.06931e-05 6.06631e-05 6.06332e-05 6.06032e-05 6.05732e-05 6.05432e-05 6.05131e-05 6.0483e-05 6.0453e-05 6.04228e-05 6.73531e-05 6.73296e-05 6.7306e-05 6.72824e-05 6.72587e-05 6.72351e-05 6.72114e-05 6.71876e-05 6.71639e-05 6.71401e-05 6.71163e-05 6.70924e-05 6.70685e-05 6.70446e-05 6.70207e-05 6.69967e-05 6.69727e-05 6.69487e-05 6.69246e-05 6.69006e-05 6.68764e-05 6.68523e-05 6.68281e-05 6.68039e-05 6.67797e-05 6.67554e-05 6.67311e-05 6.67068e-05 6.66825e-05 6.66581e-05 6.66337e-05 6.66092e-05 6.65848e-05 6.65603e-05 6.65357e-05 6.65112e-05 6.64866e-05 6.6462e-05 6.64373e-05 6.64127e-05 6.6388e-05 6.63632e-05 6.63385e-05 6.63137e-05 6.62889e-05 6.6264e-05 6.62392e-05 6.62143e-05 6.61893e-05 6.61644e-05 6.61394e-05 6.61143e-05 6.60893e-05 6.60642e-05 6.60391e-05 6.6014e-05 6.59888e-05 6.59636e-05 6.59384e-05 6.59132e-05 6.58879e-05 6.58626e-05 6.58372e-05 6.58119e-05 6.57865e-05 6.57611e-05 6.57356e-05 6.57102e-05 6.56846e-05 6.56591e-05 6.56336e-05 6.5608e-05 6.55823e-05 6.55567e-05 6.5531e-05 6.55053e-05 6.54796e-05 6.54538e-05 6.5428e-05 6.54022e-05 6.53764e-05 6.53505e-05 6.53246e-05 6.52987e-05 6.52727e-05 6.52468e-05 6.52207e-05 6.51947e-05 6.51686e-05 6.51425e-05 6.51164e-05 6.50903e-05 6.50641e-05 6.50379e-05 6.50117e-05 6.49854e-05 6.49591e-05 6.49328e-05 6.49065e-05 6.48801e-05 6.48537e-05 6.48273e-05 6.48008e-05 6.47743e-05 6.47478e-05 6.47213e-05 6.46947e-05 6.46681e-05 6.46415e-05 6.46149e-05 6.45882e-05 6.45615e-05 6.45348e-05 6.4508e-05 6.44812e-05 6.44544e-05 6.44276e-05 6.44007e-05 6.43738e-05 6.43469e-05 6.432e-05 6.4293e-05 6.4266e-05 6.4239e-05 6.42119e-05 6.41849e-05 6.41578e-05 6.41306e-05 6.41035e-05 6.40763e-05 6.40491e-05 6.40218e-05 6.39946e-05 6.39673e-05 6.394e-05 6.39126e-05 6.38853e-05 6.38579e-05 6.38305e-05 6.3803e-05 6.37755e-05 6.3748e-05 6.37205e-05 6.3693e-05 6.36654e-05 6.36378e-05 6.36101e-05 6.35825e-05 6.35548e-05 6.35271e-05 6.34993e-05 6.34716e-05 6.34438e-05 6.3416e-05 6.33881e-05 6.33603e-05 6.33324e-05 6.33045e-05 6.32765e-05 6.32486e-05 6.32206e-05 6.31926e-05 6.31645e-05 6.31364e-05 6.31083e-05 6.30802e-05 6.30521e-05 6.30239e-05 6.29957e-05 6.29675e-05 6.29392e-05 6.2911e-05 6.28827e-05 6.28543e-05 6.2826e-05 6.27976e-05 6.27692e-05 6.27408e-05 6.27124e-05 6.26839e-05 6.26554e-05 6.26269e-05 6.25983e-05 6.25697e-05 6.25411e-05 6.25125e-05 6.24839e-05 6.24552e-05 6.24265e-05 6.23978e-05 6.2369e-05 6.23403e-05 6.23115e-05 6.22826e-05 6.22538e-05 6.22249e-05 6.2196e-05 6.21671e-05 6.21382e-05 6.21092e-05 6.20802e-05 6.20512e-05 6.20222e-05 6.19931e-05 6.1964e-05 6.19349e-05 6.19058e-05 6.18766e-05 6.18474e-05 6.18182e-05 6.1789e-05 6.17598e-05 6.17305e-05 6.17012e-05 6.16719e-05 6.16425e-05 6.16131e-05 6.15837e-05 6.15543e-05 6.15249e-05 6.14954e-05 6.14659e-05 6.14364e-05 6.14069e-05 6.13773e-05 6.13477e-05 6.13181e-05 6.12885e-05 6.12588e-05 6.12292e-05 6.11995e-05 6.11698e-05 6.114e-05 6.11102e-05 6.10805e-05 6.10506e-05 6.10208e-05 6.0991e-05 6.09611e-05 6.09312e-05 6.09012e-05 6.08713e-05 6.08413e-05 6.08113e-05 6.07813e-05 6.07513e-05 6.07212e-05 6.06911e-05 6.0661e-05 6.06309e-05 6.06007e-05 6.05706e-05 6.05404e-05 6.05102e-05 6.04799e-05 6.04497e-05 6.74182e-05 6.73945e-05 6.73708e-05 6.73471e-05 6.73233e-05 6.72996e-05 6.72757e-05 6.72519e-05 6.7228e-05 6.72041e-05 6.71802e-05 6.71562e-05 6.71322e-05 6.71082e-05 6.70842e-05 6.70601e-05 6.7036e-05 6.70118e-05 6.69877e-05 6.69635e-05 6.69393e-05 6.6915e-05 6.68907e-05 6.68664e-05 6.6842e-05 6.68177e-05 6.67933e-05 6.67688e-05 6.67444e-05 6.67199e-05 6.66953e-05 6.66708e-05 6.66462e-05 6.66216e-05 6.6597e-05 6.65723e-05 6.65476e-05 6.65229e-05 6.64981e-05 6.64733e-05 6.64485e-05 6.64237e-05 6.63988e-05 6.63739e-05 6.63489e-05 6.6324e-05 6.6299e-05 6.6274e-05 6.62489e-05 6.62238e-05 6.61987e-05 6.61736e-05 6.61484e-05 6.61232e-05 6.6098e-05 6.60728e-05 6.60475e-05 6.60222e-05 6.59968e-05 6.59715e-05 6.59461e-05 6.59206e-05 6.58952e-05 6.58697e-05 6.58442e-05 6.58187e-05 6.57931e-05 6.57675e-05 6.57419e-05 6.57162e-05 6.56905e-05 6.56648e-05 6.56391e-05 6.56133e-05 6.55875e-05 6.55617e-05 6.55359e-05 6.551e-05 6.54841e-05 6.54581e-05 6.54322e-05 6.54062e-05 6.53802e-05 6.53541e-05 6.5328e-05 6.53019e-05 6.52758e-05 6.52496e-05 6.52234e-05 6.51972e-05 6.5171e-05 6.51447e-05 6.51184e-05 6.50921e-05 6.50657e-05 6.50393e-05 6.50129e-05 6.49865e-05 6.496e-05 6.49335e-05 6.4907e-05 6.48804e-05 6.48539e-05 6.48273e-05 6.48006e-05 6.4774e-05 6.47473e-05 6.47206e-05 6.46938e-05 6.4667e-05 6.46402e-05 6.46134e-05 6.45866e-05 6.45597e-05 6.45328e-05 6.45058e-05 6.44789e-05 6.44519e-05 6.44249e-05 6.43978e-05 6.43708e-05 6.43437e-05 6.43165e-05 6.42894e-05 6.42622e-05 6.4235e-05 6.42078e-05 6.41805e-05 6.41532e-05 6.41259e-05 6.40986e-05 6.40712e-05 6.40438e-05 6.40164e-05 6.3989e-05 6.39615e-05 6.3934e-05 6.39065e-05 6.38789e-05 6.38513e-05 6.38237e-05 6.37961e-05 6.37684e-05 6.37408e-05 6.37131e-05 6.36853e-05 6.36576e-05 6.36298e-05 6.36019e-05 6.35741e-05 6.35462e-05 6.35183e-05 6.34904e-05 6.34625e-05 6.34345e-05 6.34065e-05 6.33785e-05 6.33504e-05 6.33224e-05 6.32943e-05 6.32661e-05 6.3238e-05 6.32098e-05 6.31816e-05 6.31534e-05 6.31251e-05 6.30968e-05 6.30685e-05 6.30402e-05 6.30119e-05 6.29835e-05 6.29551e-05 6.29266e-05 6.28982e-05 6.28697e-05 6.28412e-05 6.28127e-05 6.27841e-05 6.27555e-05 6.27269e-05 6.26983e-05 6.26696e-05 6.26409e-05 6.26122e-05 6.25835e-05 6.25547e-05 6.25259e-05 6.24971e-05 6.24683e-05 6.24394e-05 6.24106e-05 6.23817e-05 6.23527e-05 6.23238e-05 6.22948e-05 6.22658e-05 6.22368e-05 6.22077e-05 6.21786e-05 6.21495e-05 6.21204e-05 6.20912e-05 6.20621e-05 6.20329e-05 6.20036e-05 6.19744e-05 6.19451e-05 6.19158e-05 6.18865e-05 6.18572e-05 6.18278e-05 6.17984e-05 6.1769e-05 6.17395e-05 6.17101e-05 6.16806e-05 6.16511e-05 6.16216e-05 6.1592e-05 6.15624e-05 6.15328e-05 6.15032e-05 6.14735e-05 6.14439e-05 6.14142e-05 6.13844e-05 6.13547e-05 6.13249e-05 6.12951e-05 6.12653e-05 6.12355e-05 6.12056e-05 6.11757e-05 6.11458e-05 6.11159e-05 6.10859e-05 6.1056e-05 6.1026e-05 6.09959e-05 6.09659e-05 6.09358e-05 6.09057e-05 6.08756e-05 6.08455e-05 6.08153e-05 6.07852e-05 6.0755e-05 6.07247e-05 6.06945e-05 6.06642e-05 6.06339e-05 6.06036e-05 6.05733e-05 6.05429e-05 6.05126e-05 6.04822e-05 6.74855e-05 6.74618e-05 6.7438e-05 6.74141e-05 6.73903e-05 6.73664e-05 6.73424e-05 6.73185e-05 6.72945e-05 6.72705e-05 6.72464e-05 6.72224e-05 6.71983e-05 6.71741e-05 6.715e-05 6.71258e-05 6.71015e-05 6.70773e-05 6.7053e-05 6.70287e-05 6.70044e-05 6.698e-05 6.69556e-05 6.69311e-05 6.69067e-05 6.68822e-05 6.68577e-05 6.68331e-05 6.68085e-05 6.67839e-05 6.67593e-05 6.67346e-05 6.67099e-05 6.66852e-05 6.66604e-05 6.66356e-05 6.66108e-05 6.6586e-05 6.65611e-05 6.65362e-05 6.65113e-05 6.64863e-05 6.64613e-05 6.64363e-05 6.64112e-05 6.63861e-05 6.6361e-05 6.63359e-05 6.63107e-05 6.62855e-05 6.62603e-05 6.6235e-05 6.62098e-05 6.61844e-05 6.61591e-05 6.61337e-05 6.61083e-05 6.60829e-05 6.60574e-05 6.6032e-05 6.60064e-05 6.59809e-05 6.59553e-05 6.59297e-05 6.59041e-05 6.58784e-05 6.58527e-05 6.5827e-05 6.58013e-05 6.57755e-05 6.57497e-05 6.57238e-05 6.5698e-05 6.56721e-05 6.56462e-05 6.56202e-05 6.55943e-05 6.55682e-05 6.55422e-05 6.55162e-05 6.54901e-05 6.54639e-05 6.54378e-05 6.54116e-05 6.53854e-05 6.53592e-05 6.53329e-05 6.53066e-05 6.52803e-05 6.5254e-05 6.52276e-05 6.52012e-05 6.51748e-05 6.51483e-05 6.51218e-05 6.50953e-05 6.50688e-05 6.50422e-05 6.50156e-05 6.4989e-05 6.49624e-05 6.49357e-05 6.4909e-05 6.48822e-05 6.48555e-05 6.48287e-05 6.48019e-05 6.4775e-05 6.47482e-05 6.47213e-05 6.46943e-05 6.46674e-05 6.46404e-05 6.46134e-05 6.45863e-05 6.45593e-05 6.45322e-05 6.45051e-05 6.44779e-05 6.44507e-05 6.44235e-05 6.43963e-05 6.43691e-05 6.43418e-05 6.43145e-05 6.42871e-05 6.42598e-05 6.42324e-05 6.4205e-05 6.41775e-05 6.415e-05 6.41225e-05 6.4095e-05 6.40675e-05 6.40399e-05 6.40123e-05 6.39847e-05 6.3957e-05 6.39293e-05 6.39016e-05 6.38739e-05 6.38461e-05 6.38183e-05 6.37905e-05 6.37626e-05 6.37348e-05 6.37069e-05 6.3679e-05 6.3651e-05 6.3623e-05 6.3595e-05 6.3567e-05 6.35389e-05 6.35109e-05 6.34828e-05 6.34546e-05 6.34265e-05 6.33983e-05 6.33701e-05 6.33418e-05 6.33136e-05 6.32853e-05 6.3257e-05 6.32286e-05 6.32003e-05 6.31719e-05 6.31435e-05 6.3115e-05 6.30865e-05 6.30581e-05 6.30295e-05 6.3001e-05 6.29724e-05 6.29438e-05 6.29152e-05 6.28866e-05 6.28579e-05 6.28292e-05 6.28005e-05 6.27717e-05 6.2743e-05 6.27142e-05 6.26853e-05 6.26565e-05 6.26276e-05 6.25987e-05 6.25698e-05 6.25408e-05 6.25119e-05 6.24829e-05 6.24539e-05 6.24248e-05 6.23957e-05 6.23666e-05 6.23375e-05 6.23084e-05 6.22792e-05 6.225e-05 6.22208e-05 6.21915e-05 6.21623e-05 6.2133e-05 6.21037e-05 6.20743e-05 6.2045e-05 6.20156e-05 6.19862e-05 6.19567e-05 6.19273e-05 6.18978e-05 6.18683e-05 6.18387e-05 6.18092e-05 6.17796e-05 6.175e-05 6.17204e-05 6.16907e-05 6.1661e-05 6.16313e-05 6.16016e-05 6.15719e-05 6.15421e-05 6.15123e-05 6.14825e-05 6.14526e-05 6.14228e-05 6.13929e-05 6.1363e-05 6.1333e-05 6.13031e-05 6.12731e-05 6.12431e-05 6.12131e-05 6.1183e-05 6.11529e-05 6.11228e-05 6.10927e-05 6.10626e-05 6.10324e-05 6.10022e-05 6.0972e-05 6.09418e-05 6.09115e-05 6.08812e-05 6.08509e-05 6.08206e-05 6.07903e-05 6.07599e-05 6.07295e-05 6.06991e-05 6.06686e-05 6.06382e-05 6.06077e-05 6.05772e-05 6.05467e-05 6.05161e-05 6.75563e-05 6.75324e-05 6.75085e-05 6.74845e-05 6.74606e-05 6.74366e-05 6.74125e-05 6.73884e-05 6.73644e-05 6.73402e-05 6.73161e-05 6.72919e-05 6.72677e-05 6.72434e-05 6.72191e-05 6.71948e-05 6.71705e-05 6.71461e-05 6.71217e-05 6.70973e-05 6.70729e-05 6.70484e-05 6.70238e-05 6.69993e-05 6.69747e-05 6.69501e-05 6.69255e-05 6.69008e-05 6.68761e-05 6.68514e-05 6.68266e-05 6.68018e-05 6.6777e-05 6.67522e-05 6.67273e-05 6.67024e-05 6.66775e-05 6.66525e-05 6.66275e-05 6.66025e-05 6.65774e-05 6.65524e-05 6.65273e-05 6.65021e-05 6.64769e-05 6.64517e-05 6.64265e-05 6.64013e-05 6.6376e-05 6.63506e-05 6.63253e-05 6.62999e-05 6.62745e-05 6.62491e-05 6.62236e-05 6.61981e-05 6.61726e-05 6.61471e-05 6.61215e-05 6.60959e-05 6.60702e-05 6.60446e-05 6.60189e-05 6.59931e-05 6.59674e-05 6.59416e-05 6.59158e-05 6.589e-05 6.58641e-05 6.58382e-05 6.58123e-05 6.57863e-05 6.57603e-05 6.57343e-05 6.57083e-05 6.56822e-05 6.56561e-05 6.563e-05 6.56038e-05 6.55776e-05 6.55514e-05 6.55252e-05 6.54989e-05 6.54726e-05 6.54463e-05 6.54199e-05 6.53935e-05 6.53671e-05 6.53407e-05 6.53142e-05 6.52877e-05 6.52612e-05 6.52346e-05 6.5208e-05 6.51814e-05 6.51548e-05 6.51281e-05 6.51014e-05 6.50747e-05 6.5048e-05 6.50212e-05 6.49944e-05 6.49675e-05 6.49407e-05 6.49138e-05 6.48869e-05 6.48599e-05 6.4833e-05 6.4806e-05 6.47789e-05 6.47519e-05 6.47248e-05 6.46977e-05 6.46705e-05 6.46434e-05 6.46162e-05 6.4589e-05 6.45617e-05 6.45344e-05 6.45071e-05 6.44798e-05 6.44524e-05 6.44251e-05 6.43976e-05 6.43702e-05 6.43427e-05 6.43152e-05 6.42877e-05 6.42602e-05 6.42326e-05 6.4205e-05 6.41774e-05 6.41497e-05 6.4122e-05 6.40943e-05 6.40666e-05 6.40388e-05 6.4011e-05 6.39832e-05 6.39554e-05 6.39275e-05 6.38996e-05 6.38717e-05 6.38437e-05 6.38157e-05 6.37877e-05 6.37597e-05 6.37316e-05 6.37036e-05 6.36754e-05 6.36473e-05 6.36191e-05 6.3591e-05 6.35627e-05 6.35345e-05 6.35062e-05 6.34779e-05 6.34496e-05 6.34213e-05 6.33929e-05 6.33645e-05 6.33361e-05 6.33076e-05 6.32791e-05 6.32506e-05 6.32221e-05 6.31936e-05 6.3165e-05 6.31364e-05 6.31077e-05 6.30791e-05 6.30504e-05 6.30217e-05 6.2993e-05 6.29642e-05 6.29354e-05 6.29066e-05 6.28778e-05 6.28489e-05 6.282e-05 6.27911e-05 6.27622e-05 6.27332e-05 6.27042e-05 6.26752e-05 6.26462e-05 6.26171e-05 6.2588e-05 6.25589e-05 6.25298e-05 6.25006e-05 6.24714e-05 6.24422e-05 6.2413e-05 6.23837e-05 6.23545e-05 6.23251e-05 6.22958e-05 6.22664e-05 6.22371e-05 6.22077e-05 6.21782e-05 6.21488e-05 6.21193e-05 6.20898e-05 6.20602e-05 6.20307e-05 6.20011e-05 6.19715e-05 6.19419e-05 6.19122e-05 6.18826e-05 6.18529e-05 6.18231e-05 6.17934e-05 6.17636e-05 6.17338e-05 6.1704e-05 6.16741e-05 6.16443e-05 6.16144e-05 6.15845e-05 6.15545e-05 6.15246e-05 6.14946e-05 6.14646e-05 6.14346e-05 6.14045e-05 6.13744e-05 6.13443e-05 6.13142e-05 6.1284e-05 6.12539e-05 6.12237e-05 6.11935e-05 6.11632e-05 6.11329e-05 6.11027e-05 6.10723e-05 6.1042e-05 6.10117e-05 6.09813e-05 6.09509e-05 6.09204e-05 6.089e-05 6.08595e-05 6.0829e-05 6.07985e-05 6.0768e-05 6.07374e-05 6.07068e-05 6.06762e-05 6.06456e-05 6.0615e-05 6.05843e-05 6.05536e-05 6.763e-05 6.7606e-05 6.75819e-05 6.75579e-05 6.75338e-05 6.75097e-05 6.74855e-05 6.74614e-05 6.74372e-05 6.74129e-05 6.73886e-05 6.73643e-05 6.734e-05 6.73157e-05 6.72913e-05 6.72668e-05 6.72424e-05 6.72179e-05 6.71934e-05 6.71689e-05 6.71443e-05 6.71197e-05 6.70951e-05 6.70704e-05 6.70457e-05 6.7021e-05 6.69962e-05 6.69714e-05 6.69466e-05 6.69218e-05 6.68969e-05 6.6872e-05 6.68471e-05 6.68221e-05 6.67971e-05 6.67721e-05 6.67471e-05 6.6722e-05 6.66969e-05 6.66717e-05 6.66466e-05 6.66214e-05 6.65961e-05 6.65709e-05 6.65456e-05 6.65203e-05 6.64949e-05 6.64695e-05 6.64441e-05 6.64187e-05 6.63932e-05 6.63677e-05 6.63422e-05 6.63166e-05 6.62911e-05 6.62655e-05 6.62398e-05 6.62141e-05 6.61884e-05 6.61627e-05 6.61369e-05 6.61112e-05 6.60853e-05 6.60595e-05 6.60336e-05 6.60077e-05 6.59818e-05 6.59558e-05 6.59298e-05 6.59038e-05 6.58777e-05 6.58517e-05 6.58256e-05 6.57994e-05 6.57733e-05 6.57471e-05 6.57208e-05 6.56946e-05 6.56683e-05 6.5642e-05 6.56157e-05 6.55893e-05 6.55629e-05 6.55365e-05 6.551e-05 6.54835e-05 6.5457e-05 6.54305e-05 6.54039e-05 6.53773e-05 6.53507e-05 6.5324e-05 6.52974e-05 6.52706e-05 6.52439e-05 6.52171e-05 6.51904e-05 6.51635e-05 6.51367e-05 6.51098e-05 6.50829e-05 6.5056e-05 6.5029e-05 6.5002e-05 6.4975e-05 6.49479e-05 6.49209e-05 6.48938e-05 6.48666e-05 6.48395e-05 6.48123e-05 6.47851e-05 6.47578e-05 6.47306e-05 6.47033e-05 6.46759e-05 6.46486e-05 6.46212e-05 6.45938e-05 6.45664e-05 6.45389e-05 6.45114e-05 6.44839e-05 6.44563e-05 6.44288e-05 6.44012e-05 6.43735e-05 6.43459e-05 6.43182e-05 6.42905e-05 6.42628e-05 6.4235e-05 6.42072e-05 6.41794e-05 6.41516e-05 6.41237e-05 6.40958e-05 6.40679e-05 6.40399e-05 6.40119e-05 6.39839e-05 6.39559e-05 6.39278e-05 6.38997e-05 6.38716e-05 6.38435e-05 6.38153e-05 6.37871e-05 6.37589e-05 6.37307e-05 6.37024e-05 6.36741e-05 6.36458e-05 6.36174e-05 6.3589e-05 6.35606e-05 6.35322e-05 6.35037e-05 6.34753e-05 6.34468e-05 6.34182e-05 6.33897e-05 6.33611e-05 6.33325e-05 6.33038e-05 6.32752e-05 6.32465e-05 6.32177e-05 6.3189e-05 6.31602e-05 6.31314e-05 6.31026e-05 6.30738e-05 6.30449e-05 6.3016e-05 6.29871e-05 6.29581e-05 6.29291e-05 6.29001e-05 6.28711e-05 6.28421e-05 6.2813e-05 6.27839e-05 6.27548e-05 6.27256e-05 6.26964e-05 6.26672e-05 6.2638e-05 6.26088e-05 6.25795e-05 6.25502e-05 6.25208e-05 6.24915e-05 6.24621e-05 6.24327e-05 6.24033e-05 6.23738e-05 6.23444e-05 6.23149e-05 6.22853e-05 6.22558e-05 6.22262e-05 6.21966e-05 6.2167e-05 6.21373e-05 6.21076e-05 6.20779e-05 6.20482e-05 6.20185e-05 6.19887e-05 6.19589e-05 6.19291e-05 6.18993e-05 6.18694e-05 6.18395e-05 6.18096e-05 6.17796e-05 6.17497e-05 6.17197e-05 6.16897e-05 6.16596e-05 6.16296e-05 6.15995e-05 6.15694e-05 6.15393e-05 6.15091e-05 6.14789e-05 6.14487e-05 6.14185e-05 6.13882e-05 6.1358e-05 6.13277e-05 6.12974e-05 6.1267e-05 6.12367e-05 6.12063e-05 6.11759e-05 6.11454e-05 6.1115e-05 6.10845e-05 6.1054e-05 6.10235e-05 6.09929e-05 6.09623e-05 6.09317e-05 6.09011e-05 6.08705e-05 6.08398e-05 6.08091e-05 6.07784e-05 6.07477e-05 6.07169e-05 6.06862e-05 6.06554e-05 6.06245e-05 6.05937e-05 6.77068e-05 6.76827e-05 6.76586e-05 6.76344e-05 6.76102e-05 6.7586e-05 6.75617e-05 6.75374e-05 6.75131e-05 6.74888e-05 6.74644e-05 6.744e-05 6.74155e-05 6.7391e-05 6.73665e-05 6.7342e-05 6.73174e-05 6.72929e-05 6.72682e-05 6.72436e-05 6.72189e-05 6.71942e-05 6.71694e-05 6.71446e-05 6.71198e-05 6.7095e-05 6.70701e-05 6.70452e-05 6.70203e-05 6.69953e-05 6.69704e-05 6.69453e-05 6.69203e-05 6.68952e-05 6.68701e-05 6.6845e-05 6.68198e-05 6.67946e-05 6.67694e-05 6.67441e-05 6.67188e-05 6.66935e-05 6.66682e-05 6.66428e-05 6.66174e-05 6.65919e-05 6.65665e-05 6.6541e-05 6.65154e-05 6.64899e-05 6.64643e-05 6.64387e-05 6.6413e-05 6.63874e-05 6.63617e-05 6.63359e-05 6.63102e-05 6.62844e-05 6.62585e-05 6.62327e-05 6.62068e-05 6.61809e-05 6.6155e-05 6.6129e-05 6.6103e-05 6.6077e-05 6.60509e-05 6.60248e-05 6.59987e-05 6.59726e-05 6.59464e-05 6.59202e-05 6.5894e-05 6.58677e-05 6.58414e-05 6.58151e-05 6.57887e-05 6.57624e-05 6.57359e-05 6.57095e-05 6.5683e-05 6.56566e-05 6.563e-05 6.56035e-05 6.55769e-05 6.55503e-05 6.55237e-05 6.5497e-05 6.54703e-05 6.54436e-05 6.54168e-05 6.539e-05 6.53632e-05 6.53364e-05 6.53095e-05 6.52826e-05 6.52557e-05 6.52288e-05 6.52018e-05 6.51748e-05 6.51478e-05 6.51207e-05 6.50936e-05 6.50665e-05 6.50393e-05 6.50121e-05 6.49849e-05 6.49577e-05 6.49305e-05 6.49032e-05 6.48758e-05 6.48485e-05 6.48211e-05 6.47937e-05 6.47663e-05 6.47388e-05 6.47114e-05 6.46839e-05 6.46563e-05 6.46287e-05 6.46012e-05 6.45735e-05 6.45459e-05 6.45182e-05 6.44905e-05 6.44628e-05 6.4435e-05 6.44072e-05 6.43794e-05 6.43516e-05 6.43237e-05 6.42958e-05 6.42679e-05 6.42399e-05 6.42119e-05 6.41839e-05 6.41559e-05 6.41278e-05 6.40998e-05 6.40716e-05 6.40435e-05 6.40153e-05 6.39871e-05 6.39589e-05 6.39307e-05 6.39024e-05 6.38741e-05 6.38458e-05 6.38174e-05 6.3789e-05 6.37606e-05 6.37322e-05 6.37037e-05 6.36752e-05 6.36467e-05 6.36182e-05 6.35896e-05 6.3561e-05 6.35324e-05 6.35037e-05 6.34751e-05 6.34464e-05 6.34176e-05 6.33889e-05 6.33601e-05 6.33313e-05 6.33025e-05 6.32736e-05 6.32447e-05 6.32158e-05 6.31869e-05 6.31579e-05 6.31289e-05 6.30999e-05 6.30709e-05 6.30418e-05 6.30127e-05 6.29836e-05 6.29545e-05 6.29253e-05 6.28961e-05 6.28669e-05 6.28377e-05 6.28084e-05 6.27791e-05 6.27498e-05 6.27204e-05 6.26911e-05 6.26617e-05 6.26322e-05 6.26028e-05 6.25733e-05 6.25438e-05 6.25143e-05 6.24848e-05 6.24552e-05 6.24256e-05 6.2396e-05 6.23663e-05 6.23367e-05 6.2307e-05 6.22773e-05 6.22475e-05 6.22177e-05 6.2188e-05 6.21581e-05 6.21283e-05 6.20984e-05 6.20685e-05 6.20386e-05 6.20087e-05 6.19787e-05 6.19487e-05 6.19187e-05 6.18887e-05 6.18586e-05 6.18285e-05 6.17984e-05 6.17683e-05 6.17381e-05 6.17079e-05 6.16777e-05 6.16475e-05 6.16172e-05 6.1587e-05 6.15567e-05 6.15263e-05 6.1496e-05 6.14656e-05 6.14352e-05 6.14048e-05 6.13744e-05 6.13439e-05 6.13134e-05 6.12829e-05 6.12524e-05 6.12218e-05 6.11912e-05 6.11606e-05 6.113e-05 6.10993e-05 6.10687e-05 6.1038e-05 6.10072e-05 6.09765e-05 6.09457e-05 6.09149e-05 6.08841e-05 6.08533e-05 6.08224e-05 6.07916e-05 6.07607e-05 6.07297e-05 6.06988e-05 6.06678e-05 6.06368e-05 6.77867e-05 6.77625e-05 6.77383e-05 6.7714e-05 6.76897e-05 6.76654e-05 6.7641e-05 6.76166e-05 6.75922e-05 6.75677e-05 6.75432e-05 6.75187e-05 6.74941e-05 6.74695e-05 6.74449e-05 6.74203e-05 6.73956e-05 6.73709e-05 6.73461e-05 6.73214e-05 6.72966e-05 6.72717e-05 6.72469e-05 6.7222e-05 6.71971e-05 6.71721e-05 6.71471e-05 6.71221e-05 6.70971e-05 6.7072e-05 6.70469e-05 6.70218e-05 6.69966e-05 6.69714e-05 6.69462e-05 6.69209e-05 6.68956e-05 6.68703e-05 6.6845e-05 6.68196e-05 6.67942e-05 6.67687e-05 6.67433e-05 6.67178e-05 6.66923e-05 6.66667e-05 6.66411e-05 6.66155e-05 6.65898e-05 6.65642e-05 6.65385e-05 6.65127e-05 6.6487e-05 6.64612e-05 6.64353e-05 6.64095e-05 6.63836e-05 6.63577e-05 6.63317e-05 6.63058e-05 6.62798e-05 6.62537e-05 6.62277e-05 6.62016e-05 6.61755e-05 6.61493e-05 6.61231e-05 6.60969e-05 6.60707e-05 6.60444e-05 6.60181e-05 6.59918e-05 6.59654e-05 6.5939e-05 6.59126e-05 6.58862e-05 6.58597e-05 6.58332e-05 6.58067e-05 6.57801e-05 6.57535e-05 6.57269e-05 6.57002e-05 6.56736e-05 6.56469e-05 6.56201e-05 6.55934e-05 6.55666e-05 6.55398e-05 6.55129e-05 6.5486e-05 6.54591e-05 6.54322e-05 6.54052e-05 6.53782e-05 6.53512e-05 6.53242e-05 6.52971e-05 6.527e-05 6.52428e-05 6.52157e-05 6.51885e-05 6.51612e-05 6.5134e-05 6.51067e-05 6.50794e-05 6.50521e-05 6.50247e-05 6.49973e-05 6.49699e-05 6.49425e-05 6.4915e-05 6.48875e-05 6.48599e-05 6.48324e-05 6.48048e-05 6.47772e-05 6.47495e-05 6.47219e-05 6.46942e-05 6.46664e-05 6.46387e-05 6.46109e-05 6.45831e-05 6.45553e-05 6.45274e-05 6.44995e-05 6.44716e-05 6.44436e-05 6.44156e-05 6.43876e-05 6.43596e-05 6.43316e-05 6.43035e-05 6.42754e-05 6.42472e-05 6.4219e-05 6.41908e-05 6.41626e-05 6.41344e-05 6.41061e-05 6.40778e-05 6.40495e-05 6.40211e-05 6.39927e-05 6.39643e-05 6.39359e-05 6.39074e-05 6.38789e-05 6.38504e-05 6.38218e-05 6.37933e-05 6.37647e-05 6.3736e-05 6.37074e-05 6.36787e-05 6.365e-05 6.36213e-05 6.35925e-05 6.35637e-05 6.35349e-05 6.35061e-05 6.34772e-05 6.34483e-05 6.34194e-05 6.33904e-05 6.33615e-05 6.33325e-05 6.33035e-05 6.32744e-05 6.32453e-05 6.32162e-05 6.31871e-05 6.31579e-05 6.31288e-05 6.30996e-05 6.30703e-05 6.30411e-05 6.30118e-05 6.29825e-05 6.29532e-05 6.29238e-05 6.28944e-05 6.2865e-05 6.28356e-05 6.28061e-05 6.27766e-05 6.27471e-05 6.27176e-05 6.2688e-05 6.26584e-05 6.26288e-05 6.25991e-05 6.25695e-05 6.25398e-05 6.25101e-05 6.24803e-05 6.24506e-05 6.24208e-05 6.2391e-05 6.23611e-05 6.23313e-05 6.23014e-05 6.22715e-05 6.22415e-05 6.22116e-05 6.21816e-05 6.21516e-05 6.21215e-05 6.20915e-05 6.20614e-05 6.20313e-05 6.20011e-05 6.1971e-05 6.19408e-05 6.19106e-05 6.18803e-05 6.18501e-05 6.18198e-05 6.17895e-05 6.17592e-05 6.17288e-05 6.16984e-05 6.1668e-05 6.16376e-05 6.16072e-05 6.15767e-05 6.15462e-05 6.15157e-05 6.14851e-05 6.14546e-05 6.1424e-05 6.13934e-05 6.13627e-05 6.13321e-05 6.13014e-05 6.12707e-05 6.12399e-05 6.12092e-05 6.11784e-05 6.11476e-05 6.11168e-05 6.10859e-05 6.1055e-05 6.10241e-05 6.09932e-05 6.09623e-05 6.09313e-05 6.09003e-05 6.08693e-05 6.08383e-05 6.08072e-05 6.07762e-05 6.07451e-05 6.0714e-05 6.06828e-05 6.78698e-05 6.78455e-05 6.78211e-05 6.77967e-05 6.77723e-05 6.77479e-05 6.77234e-05 6.76989e-05 6.76743e-05 6.76498e-05 6.76252e-05 6.76005e-05 6.75759e-05 6.75512e-05 6.75264e-05 6.75017e-05 6.74769e-05 6.74521e-05 6.74272e-05 6.74023e-05 6.73774e-05 6.73525e-05 6.73275e-05 6.73025e-05 6.72774e-05 6.72524e-05 6.72273e-05 6.72021e-05 6.7177e-05 6.71518e-05 6.71266e-05 6.71013e-05 6.7076e-05 6.70507e-05 6.70254e-05 6.7e-05 6.69746e-05 6.69492e-05 6.69237e-05 6.68982e-05 6.68727e-05 6.68471e-05 6.68215e-05 6.67959e-05 6.67703e-05 6.67446e-05 6.67189e-05 6.66932e-05 6.66674e-05 6.66416e-05 6.66158e-05 6.65899e-05 6.6564e-05 6.65381e-05 6.65122e-05 6.64862e-05 6.64602e-05 6.64341e-05 6.64081e-05 6.6382e-05 6.63558e-05 6.63297e-05 6.63035e-05 6.62773e-05 6.6251e-05 6.62248e-05 6.61985e-05 6.61721e-05 6.61458e-05 6.61194e-05 6.6093e-05 6.60665e-05 6.604e-05 6.60135e-05 6.5987e-05 6.59604e-05 6.59338e-05 6.59072e-05 6.58805e-05 6.58538e-05 6.58271e-05 6.58004e-05 6.57736e-05 6.57468e-05 6.572e-05 6.56931e-05 6.56662e-05 6.56393e-05 6.56123e-05 6.55854e-05 6.55583e-05 6.55313e-05 6.55042e-05 6.54772e-05 6.545e-05 6.54229e-05 6.53957e-05 6.53685e-05 6.53413e-05 6.5314e-05 6.52867e-05 6.52594e-05 6.5232e-05 6.52046e-05 6.51772e-05 6.51498e-05 6.51223e-05 6.50948e-05 6.50673e-05 6.50398e-05 6.50122e-05 6.49846e-05 6.49569e-05 6.49293e-05 6.49016e-05 6.48739e-05 6.48461e-05 6.48183e-05 6.47905e-05 6.47627e-05 6.47348e-05 6.47069e-05 6.4679e-05 6.46511e-05 6.46231e-05 6.45951e-05 6.45671e-05 6.4539e-05 6.45109e-05 6.44828e-05 6.44547e-05 6.44265e-05 6.43983e-05 6.43701e-05 6.43419e-05 6.43136e-05 6.42853e-05 6.42569e-05 6.42286e-05 6.42002e-05 6.41718e-05 6.41433e-05 6.41149e-05 6.40864e-05 6.40579e-05 6.40293e-05 6.40007e-05 6.39721e-05 6.39435e-05 6.39148e-05 6.38861e-05 6.38574e-05 6.38287e-05 6.37999e-05 6.37711e-05 6.37423e-05 6.37135e-05 6.36846e-05 6.36557e-05 6.36268e-05 6.35978e-05 6.35688e-05 6.35398e-05 6.35108e-05 6.34817e-05 6.34527e-05 6.34235e-05 6.33944e-05 6.33652e-05 6.33361e-05 6.33068e-05 6.32776e-05 6.32483e-05 6.3219e-05 6.31897e-05 6.31604e-05 6.3131e-05 6.31016e-05 6.30722e-05 6.30427e-05 6.30132e-05 6.29837e-05 6.29542e-05 6.29246e-05 6.28951e-05 6.28655e-05 6.28358e-05 6.28062e-05 6.27765e-05 6.27468e-05 6.2717e-05 6.26873e-05 6.26575e-05 6.26277e-05 6.25979e-05 6.2568e-05 6.25381e-05 6.25082e-05 6.24783e-05 6.24483e-05 6.24183