<?xml version="1.0"?> 
<VTKFile type="StructuredGrid" version="0.1"> 
<StructuredGrid WholeExtent="0 256 0 256 0 0"> 
<Piece Extent="0 256 0 256 0 0"> 
<CellData>
<DataArray type="Float32" Name="err_h1" format="ascii" NumberOfComponents="1"> 
7.22301e-05 7.22147e-05 7.21993e-05 7.21838e-05 7.21683e-05 7.21527e-05 7.21372e-05 7.21216e-05 7.21059e-05 7.20903e-05 7.20746e-05 7.20588e-05 7.20431e-05 7.20273e-05 7.20114e-05 7.19956e-05 7.19797e-05 7.19638e-05 7.19478e-05 7.19318e-05 7.19158e-05 7.18998e-05 7.18837e-05 7.18676e-05 7.18515e-05 7.18353e-05 7.18191e-05 7.18028e-05 7.17866e-05 7.17703e-05 7.1754e-05 7.17376e-05 7.17212e-05 7.17048e-05 7.16883e-05 7.16718e-05 7.16553e-05 7.16388e-05 7.16222e-05 7.16056e-05 7.15889e-05 7.15722e-05 7.15555e-05 7.15388e-05 7.1522e-05 7.15052e-05 7.14884e-05 7.14715e-05 7.14546e-05 7.14377e-05 7.14207e-05 7.14037e-05 7.13867e-05 7.13697e-05 7.13526e-05 7.13355e-05 7.13183e-05 7.13011e-05 7.12839e-05 7.12667e-05 7.12494e-05 7.12321e-05 7.12148e-05 7.11974e-05 7.118e-05 7.11626e-05 7.11451e-05 7.11276e-05 7.11101e-05 7.10925e-05 7.10749e-05 7.10573e-05 7.10397e-05 7.1022e-05 7.10043e-05 7.09865e-05 7.09687e-05 7.09509e-05 7.09331e-05 7.09152e-05 7.08973e-05 7.08794e-05 7.08614e-05 7.08434e-05 7.08254e-05 7.08073e-05 7.07892e-05 7.07711e-05 7.07529e-05 7.07348e-05 7.07165e-05 7.06983e-05 7.068e-05 7.06617e-05 7.06434e-05 7.0625e-05 7.06066e-05 7.05881e-05 7.05697e-05 7.05512e-05 7.05326e-05 7.05141e-05 7.04955e-05 7.04769e-05 7.04582e-05 7.04395e-05 7.04208e-05 7.0402e-05 7.03833e-05 7.03644e-05 7.03456e-05 7.03267e-05 7.03078e-05 7.02889e-05 7.02699e-05 7.02509e-05 7.02319e-05 7.02128e-05 7.01937e-05 7.01746e-05 7.01554e-05 7.01362e-05 7.0117e-05 7.00978e-05 7.00785e-05 7.00592e-05 7.00398e-05 7.00205e-05 7.0001e-05 6.99816e-05 6.99621e-05 6.99426e-05 6.99231e-05 6.99035e-05 6.9884e-05 6.98643e-05 6.98447e-05 6.9825e-05 6.98053e-05 6.97855e-05 6.97657e-05 6.97459e-05 6.97261e-05 6.97062e-05 6.96863e-05 6.96664e-05 6.96464e-05 6.96264e-05 6.96064e-05 6.95863e-05 6.95662e-05 6.95461e-05 6.95259e-05 6.95058e-05 6.94855e-05 6.94653e-05 6.9445e-05 6.94247e-05 6.94044e-05 6.9384e-05 6.93636e-05 6.93432e-05 6.93227e-05 6.93022e-05 6.92817e-05 6.92611e-05 6.92406e-05 6.92199e-05 6.91993e-05 6.91786e-05 6.91579e-05 6.91372e-05 6.91164e-05 6.90956e-05 6.90748e-05 6.90539e-05 6.9033e-05 6.90121e-05 6.89911e-05 6.89701e-05 6.89491e-05 6.89281e-05 6.8907e-05 6.88859e-05 6.88648e-05 6.88436e-05 6.88224e-05 6.88011e-05 6.87799e-05 6.87586e-05 6.87373e-05 6.87159e-05 6.86945e-05 6.86731e-05 6.86517e-05 6.86302e-05 6.86087e-05 6.85872e-05 6.85656e-05 6.8544e-05 6.85224e-05 6.85007e-05 6.8479e-05 6.84573e-05 6.84355e-05 6.84138e-05 6.8392e-05 6.83701e-05 6.83482e-05 6.83263e-05 6.83044e-05 6.82824e-05 6.82605e-05 6.82384e-05 6.82164e-05 6.81943e-05 6.81722e-05 6.815e-05 6.81279e-05 6.81057e-05 6.80834e-05 6.80612e-05 6.80389e-05 6.80165e-05 6.79942e-05 6.79718e-05 6.79494e-05 6.79269e-05 6.79045e-05 6.7882e-05 6.78594e-05 6.78369e-05 6.78143e-05 6.77916e-05 6.7769e-05 6.77463e-05 6.77236e-05 6.77008e-05 6.76781e-05 6.76553e-05 6.76324e-05 6.76096e-05 6.75867e-05 6.75637e-05 6.75408e-05 6.75178e-05 6.74948e-05 6.74717e-05 6.74487e-05 6.74256e-05 6.74024e-05 6.73793e-05 6.73561e-05 6.73329e-05 6.73096e-05 6.72863e-05 7.23737e-05 7.23581e-05 7.23426e-05 7.2327e-05 7.23114e-05 7.22958e-05 7.22801e-05 7.22644e-05 7.22487e-05 7.22329e-05 7.22171e-05 7.22013e-05 7.21854e-05 7.21695e-05 7.21536e-05 7.21376e-05 7.21216e-05 7.21056e-05 7.20896e-05 7.20735e-05 7.20574e-05 7.20412e-05 7.2025e-05 7.20088e-05 7.19926e-05 7.19763e-05 7.196e-05 7.19437e-05 7.19273e-05 7.19109e-05 7.18944e-05 7.1878e-05 7.18615e-05 7.18449e-05 7.18284e-05 7.18118e-05 7.17952e-05 7.17785e-05 7.17618e-05 7.17451e-05 7.17283e-05 7.17115e-05 7.16947e-05 7.16779e-05 7.1661e-05 7.16441e-05 7.16271e-05 7.16102e-05 7.15932e-05 7.15761e-05 7.1559e-05 7.15419e-05 7.15248e-05 7.15076e-05 7.14904e-05 7.14732e-05 7.14559e-05 7.14386e-05 7.14213e-05 7.1404e-05 7.13866e-05 7.13691e-05 7.13517e-05 7.13342e-05 7.13167e-05 7.12991e-05 7.12815e-05 7.12639e-05 7.12463e-05 7.12286e-05 7.12109e-05 7.11932e-05 7.11754e-05 7.11576e-05 7.11397e-05 7.11219e-05 7.1104e-05 7.1086e-05 7.10681e-05 7.10501e-05 7.10321e-05 7.1014e-05 7.09959e-05 7.09778e-05 7.09596e-05 7.09415e-05 7.09232e-05 7.0905e-05 7.08867e-05 7.08684e-05 7.08501e-05 7.08317e-05 7.08133e-05 7.07948e-05 7.07764e-05 7.07579e-05 7.07393e-05 7.07208e-05 7.07022e-05 7.06835e-05 7.06649e-05 7.06462e-05 7.06274e-05 7.06087e-05 7.05899e-05 7.05711e-05 7.05522e-05 7.05334e-05 7.05144e-05 7.04955e-05 7.04765e-05 7.04575e-05 7.04385e-05 7.04194e-05 7.04003e-05 7.03812e-05 7.0362e-05 7.03428e-05 7.03236e-05 7.03043e-05 7.0285e-05 7.02657e-05 7.02463e-05 7.02269e-05 7.02075e-05 7.01881e-05 7.01686e-05 7.01491e-05 7.01295e-05 7.01099e-05 7.00903e-05 7.00707e-05 7.0051e-05 7.00313e-05 7.00116e-05 6.99918e-05 6.9972e-05 6.99522e-05 6.99323e-05 6.99124e-05 6.98925e-05 6.98726e-05 6.98526e-05 6.98326e-05 6.98125e-05 6.97924e-05 6.97723e-05 6.97522e-05 6.9732e-05 6.97118e-05 6.96916e-05 6.96713e-05 6.9651e-05 6.96307e-05 6.96103e-05 6.95899e-05 6.95695e-05 6.9549e-05 6.95285e-05 6.9508e-05 6.94875e-05 6.94669e-05 6.94463e-05 6.94256e-05 6.9405e-05 6.93842e-05 6.93635e-05 6.93427e-05 6.93219e-05 6.93011e-05 6.92803e-05 6.92594e-05 6.92384e-05 6.92175e-05 6.91965e-05 6.91755e-05 6.91544e-05 6.91333e-05 6.91122e-05 6.90911e-05 6.90699e-05 6.90487e-05 6.90275e-05 6.90062e-05 6.89849e-05 6.89636e-05 6.89422e-05 6.89209e-05 6.88994e-05 6.8878e-05 6.88565e-05 6.8835e-05 6.88134e-05 6.87919e-05 6.87703e-05 6.87486e-05 6.8727e-05 6.87053e-05 6.86835e-05 6.86618e-05 6.864e-05 6.86182e-05 6.85963e-05 6.85744e-05 6.85525e-05 6.85306e-05 6.85086e-05 6.84866e-05 6.84646e-05 6.84425e-05 6.84204e-05 6.83983e-05 6.83761e-05 6.83539e-05 6.83317e-05 6.83094e-05 6.82872e-05 6.82649e-05 6.82425e-05 6.82201e-05 6.81977e-05 6.81753e-05 6.81528e-05 6.81303e-05 6.81078e-05 6.80853e-05 6.80627e-05 6.80401e-05 6.80174e-05 6.79947e-05 6.7972e-05 6.79493e-05 6.79265e-05 6.79037e-05 6.78809e-05 6.78581e-05 6.78352e-05 6.78122e-05 6.77893e-05 6.77663e-05 6.77433e-05 6.77203e-05 6.76972e-05 6.76741e-05 6.7651e-05 6.76278e-05 6.76046e-05 6.75814e-05 6.75582e-05 6.75349e-05 6.75116e-05 6.74882e-05 6.74649e-05 6.74415e-05 6.7418e-05 6.73946e-05 7.252e-05 7.25044e-05 7.24887e-05 7.24731e-05 7.24574e-05 7.24416e-05 7.24259e-05 7.24101e-05 7.23942e-05 7.23784e-05 7.23625e-05 7.23466e-05 7.23306e-05 7.23146e-05 7.22986e-05 7.22826e-05 7.22665e-05 7.22504e-05 7.22342e-05 7.2218e-05 7.22018e-05 7.21856e-05 7.21693e-05 7.2153e-05 7.21366e-05 7.21203e-05 7.21038e-05 7.20874e-05 7.20709e-05 7.20544e-05 7.20379e-05 7.20213e-05 7.20047e-05 7.19881e-05 7.19714e-05 7.19547e-05 7.1938e-05 7.19212e-05 7.19045e-05 7.18876e-05 7.18708e-05 7.18539e-05 7.1837e-05 7.182e-05 7.1803e-05 7.1786e-05 7.1769e-05 7.17519e-05 7.17348e-05 7.17176e-05 7.17004e-05 7.16832e-05 7.1666e-05 7.16487e-05 7.16314e-05 7.1614e-05 7.15967e-05 7.15793e-05 7.15618e-05 7.15444e-05 7.15269e-05 7.15093e-05 7.14918e-05 7.14742e-05 7.14565e-05 7.14389e-05 7.14212e-05 7.14035e-05 7.13857e-05 7.13679e-05 7.13501e-05 7.13322e-05 7.13144e-05 7.12964e-05 7.12785e-05 7.12605e-05 7.12425e-05 7.12244e-05 7.12064e-05 7.11883e-05 7.11701e-05 7.11519e-05 7.11337e-05 7.11155e-05 7.10972e-05 7.10789e-05 7.10606e-05 7.10422e-05 7.10238e-05 7.10054e-05 7.09869e-05 7.09684e-05 7.09499e-05 7.09313e-05 7.09127e-05 7.08941e-05 7.08755e-05 7.08568e-05 7.08381e-05 7.08193e-05 7.08005e-05 7.07817e-05 7.07629e-05 7.0744e-05 7.07251e-05 7.07061e-05 7.06871e-05 7.06681e-05 7.06491e-05 7.063e-05 7.06109e-05 7.05918e-05 7.05726e-05 7.05534e-05 7.05342e-05 7.05149e-05 7.04956e-05 7.04763e-05 7.04569e-05 7.04376e-05 7.04181e-05 7.03987e-05 7.03792e-05 7.03597e-05 7.03401e-05 7.03205e-05 7.03009e-05 7.02813e-05 7.02616e-05 7.02419e-05 7.02222e-05 7.02024e-05 7.01826e-05 7.01627e-05 7.01429e-05 7.0123e-05 7.0103e-05 7.00831e-05 7.00631e-05 7.00431e-05 7.0023e-05 7.00029e-05 6.99828e-05 6.99626e-05 6.99424e-05 6.99222e-05 6.9902e-05 6.98817e-05 6.98614e-05 6.9841e-05 6.98207e-05 6.98003e-05 6.97798e-05 6.97594e-05 6.97389e-05 6.97183e-05 6.96978e-05 6.96772e-05 6.96565e-05 6.96359e-05 6.96152e-05 6.95945e-05 6.95737e-05 6.95529e-05 6.95321e-05 6.95112e-05 6.94904e-05 6.94695e-05 6.94485e-05 6.94275e-05 6.94065e-05 6.93855e-05 6.93644e-05 6.93433e-05 6.93222e-05 6.9301e-05 6.92798e-05 6.92586e-05 6.92373e-05 6.92161e-05 6.91947e-05 6.91734e-05 6.9152e-05 6.91306e-05 6.91091e-05 6.90877e-05 6.90662e-05 6.90446e-05 6.9023e-05 6.90014e-05 6.89798e-05 6.89581e-05 6.89364e-05 6.89147e-05 6.8893e-05 6.88712e-05 6.88494e-05 6.88275e-05 6.88056e-05 6.87837e-05 6.87618e-05 6.87398e-05 6.87178e-05 6.86957e-05 6.86737e-05 6.86516e-05 6.86294e-05 6.86073e-05 6.85851e-05 6.85629e-05 6.85406e-05 6.85183e-05 6.8496e-05 6.84737e-05 6.84513e-05 6.84289e-05 6.84064e-05 6.8384e-05 6.83615e-05 6.83389e-05 6.83164e-05 6.82938e-05 6.82712e-05 6.82485e-05 6.82258e-05 6.82031e-05 6.81804e-05 6.81576e-05 6.81348e-05 6.81119e-05 6.80891e-05 6.80662e-05 6.80432e-05 6.80203e-05 6.79973e-05 6.79742e-05 6.79512e-05 6.79281e-05 6.7905e-05 6.78819e-05 6.78587e-05 6.78355e-05 6.78122e-05 6.7789e-05 6.77657e-05 6.77423e-05 6.7719e-05 6.76956e-05 6.76722e-05 6.76487e-05 6.76253e-05 6.76017e-05 6.75782e-05 6.75546e-05 6.7531e-05 6.75074e-05 7.26689e-05 7.26532e-05 7.26375e-05 7.26218e-05 7.2606e-05 7.25902e-05 7.25743e-05 7.25584e-05 7.25425e-05 7.25266e-05 7.25106e-05 7.24946e-05 7.24785e-05 7.24624e-05 7.24463e-05 7.24302e-05 7.2414e-05 7.23978e-05 7.23816e-05 7.23653e-05 7.2349e-05 7.23327e-05 7.23163e-05 7.22999e-05 7.22834e-05 7.2267e-05 7.22505e-05 7.22339e-05 7.22174e-05 7.22008e-05 7.21842e-05 7.21675e-05 7.21508e-05 7.21341e-05 7.21173e-05 7.21005e-05 7.20837e-05 7.20668e-05 7.20499e-05 7.2033e-05 7.20161e-05 7.19991e-05 7.19821e-05 7.1965e-05 7.19479e-05 7.19308e-05 7.19137e-05 7.18965e-05 7.18793e-05 7.1862e-05 7.18447e-05 7.18274e-05 7.18101e-05 7.17927e-05 7.17753e-05 7.17578e-05 7.17404e-05 7.17229e-05 7.17053e-05 7.16878e-05 7.16701e-05 7.16525e-05 7.16348e-05 7.16171e-05 7.15994e-05 7.15816e-05 7.15638e-05 7.1546e-05 7.15281e-05 7.15102e-05 7.14923e-05 7.14744e-05 7.14564e-05 7.14383e-05 7.14203e-05 7.14022e-05 7.13841e-05 7.13659e-05 7.13477e-05 7.13295e-05 7.13112e-05 7.1293e-05 7.12746e-05 7.12563e-05 7.12379e-05 7.12195e-05 7.12011e-05 7.11826e-05 7.11641e-05 7.11455e-05 7.11269e-05 7.11083e-05 7.10897e-05 7.1071e-05 7.10523e-05 7.10336e-05 7.10148e-05 7.0996e-05 7.09772e-05 7.09583e-05 7.09394e-05 7.09205e-05 7.09015e-05 7.08825e-05 7.08635e-05 7.08444e-05 7.08253e-05 7.08062e-05 7.0787e-05 7.07678e-05 7.07486e-05 7.07294e-05 7.07101e-05 7.06908e-05 7.06714e-05 7.0652e-05 7.06326e-05 7.06132e-05 7.05937e-05 7.05742e-05 7.05546e-05 7.0535e-05 7.05154e-05 7.04958e-05 7.04761e-05 7.04564e-05 7.04367e-05 7.04169e-05 7.03971e-05 7.03773e-05 7.03574e-05 7.03375e-05 7.03176e-05 7.02976e-05 7.02776e-05 7.02576e-05 7.02375e-05 7.02174e-05 7.01973e-05 7.01771e-05 7.0157e-05 7.01367e-05 7.01165e-05 7.00962e-05 7.00759e-05 7.00555e-05 7.00352e-05 7.00147e-05 6.99943e-05 6.99738e-05 6.99533e-05 6.99328e-05 6.99122e-05 6.98916e-05 6.9871e-05 6.98503e-05 6.98296e-05 6.98089e-05 6.97881e-05 6.97673e-05 6.97465e-05 6.97256e-05 6.97047e-05 6.96838e-05 6.96629e-05 6.96419e-05 6.96209e-05 6.95998e-05 6.95787e-05 6.95576e-05 6.95365e-05 6.95153e-05 6.94941e-05 6.94729e-05 6.94516e-05 6.94303e-05 6.94089e-05 6.93876e-05 6.93662e-05 6.93447e-05 6.93233e-05 6.93018e-05 6.92803e-05 6.92587e-05 6.92371e-05 6.92155e-05 6.91939e-05 6.91722e-05 6.91505e-05 6.91287e-05 6.91069e-05 6.90851e-05 6.90633e-05 6.90414e-05 6.90195e-05 6.89976e-05 6.89756e-05 6.89536e-05 6.89316e-05 6.89095e-05 6.88874e-05 6.88653e-05 6.88432e-05 6.8821e-05 6.87988e-05 6.87765e-05 6.87542e-05 6.87319e-05 6.87096e-05 6.86872e-05 6.86648e-05 6.86424e-05 6.86199e-05 6.85974e-05 6.85749e-05 6.85523e-05 6.85297e-05 6.85071e-05 6.84844e-05 6.84618e-05 6.8439e-05 6.84163e-05 6.83935e-05 6.83707e-05 6.83479e-05 6.8325e-05 6.83021e-05 6.82792e-05 6.82562e-05 6.82332e-05 6.82102e-05 6.81871e-05 6.8164e-05 6.81409e-05 6.81178e-05 6.80946e-05 6.80714e-05 6.80481e-05 6.80248e-05 6.80015e-05 6.79782e-05 6.79548e-05 6.79315e-05 6.7908e-05 6.78846e-05 6.78611e-05 6.78376e-05 6.7814e-05 6.77904e-05 6.77668e-05 6.77432e-05 6.77195e-05 6.76958e-05 6.76721e-05 6.76483e-05 6.76245e-05 7.28206e-05 7.28049e-05 7.27891e-05 7.27732e-05 7.27573e-05 7.27414e-05 7.27255e-05 7.27095e-05 7.26935e-05 7.26775e-05 7.26614e-05 7.26453e-05 7.26292e-05 7.2613e-05 7.25968e-05 7.25806e-05 7.25643e-05 7.2548e-05 7.25317e-05 7.25153e-05 7.24989e-05 7.24825e-05 7.2466e-05 7.24495e-05 7.2433e-05 7.24164e-05 7.23998e-05 7.23832e-05 7.23666e-05 7.23499e-05 7.23331e-05 7.23164e-05 7.22996e-05 7.22828e-05 7.22659e-05 7.2249e-05 7.22321e-05 7.22151e-05 7.21982e-05 7.21811e-05 7.21641e-05 7.2147e-05 7.21299e-05 7.21127e-05 7.20955e-05 7.20783e-05 7.20611e-05 7.20438e-05 7.20265e-05 7.20091e-05 7.19917e-05 7.19743e-05 7.19569e-05 7.19394e-05 7.19219e-05 7.19043e-05 7.18868e-05 7.18692e-05 7.18515e-05 7.18338e-05 7.18161e-05 7.17984e-05 7.17806e-05 7.17628e-05 7.1745e-05 7.17271e-05 7.17092e-05 7.16912e-05 7.16733e-05 7.16553e-05 7.16372e-05 7.16192e-05 7.1601e-05 7.15829e-05 7.15647e-05 7.15465e-05 7.15283e-05 7.151e-05 7.14917e-05 7.14734e-05 7.1455e-05 7.14367e-05 7.14182e-05 7.13998e-05 7.13813e-05 7.13627e-05 7.13442e-05 7.13256e-05 7.1307e-05 7.12883e-05 7.12696e-05 7.12509e-05 7.12321e-05 7.12133e-05 7.11945e-05 7.11757e-05 7.11568e-05 7.11378e-05 7.11189e-05 7.10999e-05 7.10809e-05 7.10618e-05 7.10428e-05 7.10236e-05 7.10045e-05 7.09853e-05 7.09661e-05 7.09468e-05 7.09276e-05 7.09083e-05 7.08889e-05 7.08695e-05 7.08501e-05 7.08307e-05 7.08112e-05 7.07917e-05 7.07722e-05 7.07526e-05 7.0733e-05 7.07133e-05 7.06937e-05 7.0674e-05 7.06542e-05 7.06345e-05 7.06147e-05 7.05948e-05 7.0575e-05 7.05551e-05 7.05351e-05 7.05152e-05 7.04952e-05 7.04752e-05 7.04551e-05 7.0435e-05 7.04149e-05 7.03947e-05 7.03745e-05 7.03543e-05 7.03341e-05 7.03138e-05 7.02935e-05 7.02731e-05 7.02527e-05 7.02323e-05 7.02119e-05 7.01914e-05 7.01709e-05 7.01503e-05 7.01297e-05 7.01091e-05 7.00885e-05 7.00678e-05 7.00471e-05 7.00264e-05 7.00056e-05 6.99848e-05 6.9964e-05 6.99431e-05 6.99222e-05 6.99013e-05 6.98803e-05 6.98593e-05 6.98383e-05 6.98172e-05 6.97961e-05 6.9775e-05 6.97538e-05 6.97326e-05 6.97114e-05 6.96902e-05 6.96689e-05 6.96476e-05 6.96262e-05 6.96048e-05 6.95834e-05 6.9562e-05 6.95405e-05 6.9519e-05 6.94975e-05 6.94759e-05 6.94543e-05 6.94326e-05 6.9411e-05 6.93893e-05 6.93675e-05 6.93458e-05 6.9324e-05 6.93021e-05 6.92803e-05 6.92584e-05 6.92365e-05 6.92145e-05 6.91925e-05 6.91705e-05 6.91484e-05 6.91264e-05 6.91043e-05 6.90821e-05 6.90599e-05 6.90377e-05 6.90155e-05 6.89932e-05 6.89709e-05 6.89486e-05 6.89262e-05 6.89038e-05 6.88814e-05 6.88589e-05 6.88364e-05 6.88139e-05 6.87913e-05 6.87687e-05 6.87461e-05 6.87234e-05 6.87008e-05 6.8678e-05 6.86553e-05 6.86325e-05 6.86097e-05 6.85869e-05 6.8564e-05 6.85411e-05 6.85182e-05 6.84952e-05 6.84722e-05 6.84492e-05 6.84261e-05 6.8403e-05 6.83799e-05 6.83567e-05 6.83335e-05 6.83103e-05 6.82871e-05 6.82638e-05 6.82405e-05 6.82172e-05 6.81938e-05 6.81704e-05 6.81469e-05 6.81235e-05 6.81e-05 6.80765e-05 6.80529e-05 6.80293e-05 6.80057e-05 6.7982e-05 6.79583e-05 6.79346e-05 6.79109e-05 6.78871e-05 6.78633e-05 6.78395e-05 6.78156e-05 6.77917e-05 6.77678e-05 6.77438e-05 7.29751e-05 7.29592e-05 7.29433e-05 7.29274e-05 7.29115e-05 7.28955e-05 7.28794e-05 7.28634e-05 7.28473e-05 7.28312e-05 7.2815e-05 7.27988e-05 7.27826e-05 7.27663e-05 7.27501e-05 7.27337e-05 7.27174e-05 7.2701e-05 7.26846e-05 7.26681e-05 7.26516e-05 7.26351e-05 7.26186e-05 7.2602e-05 7.25853e-05 7.25687e-05 7.2552e-05 7.25353e-05 7.25185e-05 7.25017e-05 7.24849e-05 7.24681e-05 7.24512e-05 7.24343e-05 7.24173e-05 7.24003e-05 7.23833e-05 7.23663e-05 7.23492e-05 7.23321e-05 7.23149e-05 7.22977e-05 7.22805e-05 7.22633e-05 7.2246e-05 7.22287e-05 7.22113e-05 7.21939e-05 7.21765e-05 7.21591e-05 7.21416e-05 7.21241e-05 7.21065e-05 7.20889e-05 7.20713e-05 7.20537e-05 7.2036e-05 7.20183e-05 7.20005e-05 7.19828e-05 7.1965e-05 7.19471e-05 7.19292e-05 7.19113e-05 7.18934e-05 7.18754e-05 7.18574e-05 7.18393e-05 7.18213e-05 7.18031e-05 7.1785e-05 7.17668e-05 7.17486e-05 7.17304e-05 7.17121e-05 7.16938e-05 7.16754e-05 7.16571e-05 7.16387e-05 7.16202e-05 7.16018e-05 7.15832e-05 7.15647e-05 7.15461e-05 7.15275e-05 7.15089e-05 7.14902e-05 7.14715e-05 7.14528e-05 7.1434e-05 7.14152e-05 7.13964e-05 7.13775e-05 7.13586e-05 7.13396e-05 7.13207e-05 7.13017e-05 7.12826e-05 7.12636e-05 7.12445e-05 7.12253e-05 7.12062e-05 7.1187e-05 7.11677e-05 7.11485e-05 7.11292e-05 7.11098e-05 7.10905e-05 7.10711e-05 7.10516e-05 7.10322e-05 7.10127e-05 7.09931e-05 7.09736e-05 7.0954e-05 7.09344e-05 7.09147e-05 7.0895e-05 7.08753e-05 7.08555e-05 7.08357e-05 7.08159e-05 7.0796e-05 7.07761e-05 7.07562e-05 7.07363e-05 7.07163e-05 7.06963e-05 7.06762e-05 7.06561e-05 7.0636e-05 7.06158e-05 7.05956e-05 7.05754e-05 7.05552e-05 7.05349e-05 7.05146e-05 7.04942e-05 7.04738e-05 7.04534e-05 7.0433e-05 7.04125e-05 7.0392e-05 7.03714e-05 7.03509e-05 7.03302e-05 7.03096e-05 7.02889e-05 7.02682e-05 7.02475e-05 7.02267e-05 7.02059e-05 7.01851e-05 7.01642e-05 7.01433e-05 7.01223e-05 7.01014e-05 7.00804e-05 7.00593e-05 7.00383e-05 7.00172e-05 6.9996e-05 6.99749e-05 6.99537e-05 6.99324e-05 6.99112e-05 6.98899e-05 6.98686e-05 6.98472e-05 6.98258e-05 6.98044e-05 6.97829e-05 6.97614e-05 6.97399e-05 6.97184e-05 6.96968e-05 6.96751e-05 6.96535e-05 6.96318e-05 6.96101e-05 6.95883e-05 6.95666e-05 6.95448e-05 6.95229e-05 6.9501e-05 6.94791e-05 6.94572e-05 6.94352e-05 6.94132e-05 6.93912e-05 6.93691e-05 6.9347e-05 6.93249e-05 6.93027e-05 6.92805e-05 6.92583e-05 6.9236e-05 6.92137e-05 6.91914e-05 6.9169e-05 6.91466e-05 6.91242e-05 6.91018e-05 6.90793e-05 6.90568e-05 6.90342e-05 6.90116e-05 6.8989e-05 6.89664e-05 6.89437e-05 6.8921e-05 6.88982e-05 6.88755e-05 6.88526e-05 6.88298e-05 6.88069e-05 6.8784e-05 6.87611e-05 6.87381e-05 6.87151e-05 6.86921e-05 6.86691e-05 6.8646e-05 6.86228e-05 6.85997e-05 6.85765e-05 6.85533e-05 6.853e-05 6.85068e-05 6.84834e-05 6.84601e-05 6.84367e-05 6.84133e-05 6.83899e-05 6.83664e-05 6.83429e-05 6.83194e-05 6.82958e-05 6.82722e-05 6.82486e-05 6.82249e-05 6.82012e-05 6.81775e-05 6.81538e-05 6.813e-05 6.81062e-05 6.80823e-05 6.80585e-05 6.80345e-05 6.80106e-05 6.79866e-05 6.79626e-05 6.79386e-05 6.79145e-05 6.78904e-05 6.78663e-05 7.31323e-05 7.31164e-05 7.31004e-05 7.30844e-05 7.30683e-05 7.30523e-05 7.30362e-05 7.302e-05 7.30038e-05 7.29876e-05 7.29714e-05 7.29551e-05 7.29388e-05 7.29225e-05 7.29061e-05 7.28897e-05 7.28732e-05 7.28568e-05 7.28402e-05 7.28237e-05 7.28071e-05 7.27905e-05 7.27739e-05 7.27572e-05 7.27405e-05 7.27237e-05 7.2707e-05 7.26901e-05 7.26733e-05 7.26564e-05 7.26395e-05 7.26226e-05 7.26056e-05 7.25886e-05 7.25715e-05 7.25545e-05 7.25373e-05 7.25202e-05 7.2503e-05 7.24858e-05 7.24686e-05 7.24513e-05 7.2434e-05 7.24166e-05 7.23992e-05 7.23818e-05 7.23644e-05 7.23469e-05 7.23294e-05 7.23118e-05 7.22943e-05 7.22766e-05 7.2259e-05 7.22413e-05 7.22236e-05 7.22058e-05 7.21881e-05 7.21703e-05 7.21524e-05 7.21345e-05 7.21166e-05 7.20987e-05 7.20807e-05 7.20627e-05 7.20446e-05 7.20265e-05 7.20084e-05 7.19903e-05 7.19721e-05 7.19539e-05 7.19356e-05 7.19173e-05 7.1899e-05 7.18807e-05 7.18623e-05 7.18439e-05 7.18254e-05 7.18069e-05 7.17884e-05 7.17699e-05 7.17513e-05 7.17327e-05 7.1714e-05 7.16953e-05 7.16766e-05 7.16579e-05 7.16391e-05 7.16203e-05 7.16014e-05 7.15825e-05 7.15636e-05 7.15447e-05 7.15257e-05 7.15067e-05 7.14876e-05 7.14685e-05 7.14494e-05 7.14303e-05 7.14111e-05 7.13919e-05 7.13726e-05 7.13533e-05 7.1334e-05 7.13147e-05 7.12953e-05 7.12759e-05 7.12564e-05 7.12369e-05 7.12174e-05 7.11979e-05 7.11783e-05 7.11587e-05 7.1139e-05 7.11193e-05 7.10996e-05 7.10799e-05 7.10601e-05 7.10403e-05 7.10204e-05 7.10005e-05 7.09806e-05 7.09607e-05 7.09407e-05 7.09207e-05 7.09006e-05 7.08805e-05 7.08604e-05 7.08403e-05 7.08201e-05 7.07999e-05 7.07796e-05 7.07593e-05 7.0739e-05 7.07187e-05 7.06983e-05 7.06779e-05 7.06575e-05 7.0637e-05 7.06165e-05 7.05959e-05 7.05753e-05 7.05547e-05 7.05341e-05 7.05134e-05 7.04927e-05 7.0472e-05 7.04512e-05 7.04304e-05 7.04095e-05 7.03887e-05 7.03677e-05 7.03468e-05 7.03258e-05 7.03048e-05 7.02838e-05 7.02627e-05 7.02416e-05 7.02205e-05 7.01993e-05 7.01781e-05 7.01569e-05 7.01356e-05 7.01143e-05 7.0093e-05 7.00716e-05 7.00502e-05 7.00288e-05 7.00073e-05 6.99858e-05 6.99643e-05 6.99427e-05 6.99211e-05 6.98995e-05 6.98778e-05 6.98561e-05 6.98344e-05 6.98126e-05 6.97908e-05 6.9769e-05 6.97472e-05 6.97253e-05 6.97033e-05 6.96814e-05 6.96594e-05 6.96374e-05 6.96153e-05 6.95932e-05 6.95711e-05 6.9549e-05 6.95268e-05 6.95046e-05 6.94823e-05 6.946e-05 6.94377e-05 6.94154e-05 6.9393e-05 6.93706e-05 6.93481e-05 6.93257e-05 6.93032e-05 6.92806e-05 6.92581e-05 6.92354e-05 6.92128e-05 6.91901e-05 6.91674e-05 6.91447e-05 6.91219e-05 6.90991e-05 6.90763e-05 6.90535e-05 6.90306e-05 6.90076e-05 6.89847e-05 6.89617e-05 6.89387e-05 6.89156e-05 6.88925e-05 6.88694e-05 6.88462e-05 6.88231e-05 6.87999e-05 6.87766e-05 6.87533e-05 6.873e-05 6.87067e-05 6.86833e-05 6.86599e-05 6.86364e-05 6.8613e-05 6.85895e-05 6.85659e-05 6.85424e-05 6.85188e-05 6.84951e-05 6.84715e-05 6.84478e-05 6.84241e-05 6.84003e-05 6.83765e-05 6.83527e-05 6.83288e-05 6.8305e-05 6.8281e-05 6.82571e-05 6.82331e-05 6.82091e-05 6.81851e-05 6.8161e-05 6.81369e-05 6.81128e-05 6.80886e-05 6.80644e-05 6.80402e-05 6.80159e-05 6.79916e-05 7.32923e-05 7.32763e-05 7.32602e-05 7.32441e-05 7.3228e-05 7.32119e-05 7.31957e-05 7.31794e-05 7.31632e-05 7.31469e-05 7.31306e-05 7.31142e-05 7.30978e-05 7.30814e-05 7.30649e-05 7.30484e-05 7.30319e-05 7.30153e-05 7.29987e-05 7.29821e-05 7.29654e-05 7.29487e-05 7.2932e-05 7.29152e-05 7.28984e-05 7.28816e-05 7.28647e-05 7.28478e-05 7.28309e-05 7.28139e-05 7.27969e-05 7.27799e-05 7.27628e-05 7.27457e-05 7.27286e-05 7.27114e-05 7.26942e-05 7.2677e-05 7.26597e-05 7.26424e-05 7.2625e-05 7.26077e-05 7.25903e-05 7.25728e-05 7.25553e-05 7.25378e-05 7.25203e-05 7.25027e-05 7.24851e-05 7.24675e-05 7.24498e-05 7.24321e-05 7.24143e-05 7.23965e-05 7.23787e-05 7.23609e-05 7.2343e-05 7.23251e-05 7.23071e-05 7.22891e-05 7.22711e-05 7.22531e-05 7.2235e-05 7.22169e-05 7.21987e-05 7.21805e-05 7.21623e-05 7.21441e-05 7.21258e-05 7.21075e-05 7.20891e-05 7.20707e-05 7.20523e-05 7.20338e-05 7.20153e-05 7.19968e-05 7.19783e-05 7.19597e-05 7.19411e-05 7.19224e-05 7.19037e-05 7.1885e-05 7.18662e-05 7.18474e-05 7.18286e-05 7.18097e-05 7.17908e-05 7.17719e-05 7.1753e-05 7.1734e-05 7.17149e-05 7.16959e-05 7.16768e-05 7.16576e-05 7.16385e-05 7.16193e-05 7.16001e-05 7.15808e-05 7.15615e-05 7.15422e-05 7.15228e-05 7.15034e-05 7.1484e-05 7.14645e-05 7.1445e-05 7.14255e-05 7.14059e-05 7.13863e-05 7.13667e-05 7.1347e-05 7.13273e-05 7.13076e-05 7.12878e-05 7.1268e-05 7.12481e-05 7.12283e-05 7.12084e-05 7.11884e-05 7.11685e-05 7.11485e-05 7.11284e-05 7.11084e-05 7.10883e-05 7.10681e-05 7.10479e-05 7.10277e-05 7.10075e-05 7.09872e-05 7.09669e-05 7.09466e-05 7.09262e-05 7.09058e-05 7.08854e-05 7.08649e-05 7.08444e-05 7.08239e-05 7.08033e-05 7.07827e-05 7.0762e-05 7.07414e-05 7.07207e-05 7.06999e-05 7.06791e-05 7.06583e-05 7.06375e-05 7.06166e-05 7.05957e-05 7.05748e-05 7.05538e-05 7.05328e-05 7.05118e-05 7.04907e-05 7.04696e-05 7.04484e-05 7.04273e-05 7.04061e-05 7.03848e-05 7.03636e-05 7.03423e-05 7.03209e-05 7.02995e-05 7.02781e-05 7.02567e-05 7.02352e-05 7.02137e-05 7.01922e-05 7.01706e-05 7.0149e-05 7.01274e-05 7.01057e-05 7.0084e-05 7.00623e-05 7.00405e-05 7.00187e-05 6.99969e-05 6.9975e-05 6.99531e-05 6.99312e-05 6.99092e-05 6.98872e-05 6.98652e-05 6.98431e-05 6.9821e-05 6.97989e-05 6.97767e-05 6.97545e-05 6.97323e-05 6.971e-05 6.96877e-05 6.96654e-05 6.9643e-05 6.96206e-05 6.95982e-05 6.95757e-05 6.95533e-05 6.95307e-05 6.95082e-05 6.94856e-05 6.9463e-05 6.94403e-05 6.94176e-05 6.93949e-05 6.93721e-05 6.93494e-05 6.93265e-05 6.93037e-05 6.92808e-05 6.92579e-05 6.92349e-05 6.9212e-05 6.91889e-05 6.91659e-05 6.91428e-05 6.91197e-05 6.90966e-05 6.90734e-05 6.90502e-05 6.90269e-05 6.90037e-05 6.89803e-05 6.8957e-05 6.89336e-05 6.89102e-05 6.88868e-05 6.88633e-05 6.88398e-05 6.88163e-05 6.87927e-05 6.87691e-05 6.87455e-05 6.87218e-05 6.86982e-05 6.86744e-05 6.86507e-05 6.86269e-05 6.86031e-05 6.85792e-05 6.85553e-05 6.85314e-05 6.85075e-05 6.84835e-05 6.84595e-05 6.84354e-05 6.84113e-05 6.83872e-05 6.83631e-05 6.83389e-05 6.83147e-05 6.82905e-05 6.82662e-05 6.82419e-05 6.82176e-05 6.81932e-05 6.81688e-05 6.81444e-05 6.81199e-05 7.34551e-05 7.3439e-05 7.34229e-05 7.34067e-05 7.33905e-05 7.33743e-05 7.3358e-05 7.33417e-05 7.33253e-05 7.3309e-05 7.32926e-05 7.32761e-05 7.32596e-05 7.32431e-05 7.32266e-05 7.321e-05 7.31934e-05 7.31767e-05 7.316e-05 7.31433e-05 7.31266e-05 7.31098e-05 7.3093e-05 7.30761e-05 7.30592e-05 7.30423e-05 7.30254e-05 7.30084e-05 7.29913e-05 7.29743e-05 7.29572e-05 7.29401e-05 7.29229e-05 7.29057e-05 7.28885e-05 7.28712e-05 7.28539e-05 7.28366e-05 7.28192e-05 7.28018e-05 7.27844e-05 7.27669e-05 7.27494e-05 7.27319e-05 7.27143e-05 7.26967e-05 7.26791e-05 7.26614e-05 7.26437e-05 7.26259e-05 7.26082e-05 7.25904e-05 7.25725e-05 7.25546e-05 7.25367e-05 7.25188e-05 7.25008e-05 7.24828e-05 7.24647e-05 7.24466e-05 7.24285e-05 7.24104e-05 7.23922e-05 7.2374e-05 7.23557e-05 7.23374e-05 7.23191e-05 7.23008e-05 7.22824e-05 7.22639e-05 7.22455e-05 7.2227e-05 7.22085e-05 7.21899e-05 7.21713e-05 7.21527e-05 7.2134e-05 7.21153e-05 7.20966e-05 7.20778e-05 7.2059e-05 7.20402e-05 7.20213e-05 7.20024e-05 7.19835e-05 7.19645e-05 7.19455e-05 7.19265e-05 7.19074e-05 7.18883e-05 7.18692e-05 7.185e-05 7.18308e-05 7.18115e-05 7.17923e-05 7.1773e-05 7.17536e-05 7.17342e-05 7.17148e-05 7.16954e-05 7.16759e-05 7.16564e-05 7.16368e-05 7.16173e-05 7.15976e-05 7.1578e-05 7.15583e-05 7.15386e-05 7.15188e-05 7.14991e-05 7.14792e-05 7.14594e-05 7.14395e-05 7.14196e-05 7.13996e-05 7.13796e-05 7.13596e-05 7.13396e-05 7.13195e-05 7.12993e-05 7.12792e-05 7.1259e-05 7.12388e-05 7.12185e-05 7.11982e-05 7.11779e-05 7.11575e-05 7.11371e-05 7.11167e-05 7.10962e-05 7.10757e-05 7.10552e-05 7.10346e-05 7.1014e-05 7.09934e-05 7.09727e-05 7.09521e-05 7.09313e-05 7.09106e-05 7.08898e-05 7.08689e-05 7.0848e-05 7.08271e-05 7.08062e-05 7.07852e-05 7.07642e-05 7.07432e-05 7.07221e-05 7.0701e-05 7.06799e-05 7.06587e-05 7.06375e-05 7.06163e-05 7.0595e-05 7.05737e-05 7.05524e-05 7.0531e-05 7.05096e-05 7.04881e-05 7.04667e-05 7.04452e-05 7.04236e-05 7.04021e-05 7.03804e-05 7.03588e-05 7.03371e-05 7.03154e-05 7.02937e-05 7.02719e-05 7.02501e-05 7.02283e-05 7.02064e-05 7.01845e-05 7.01625e-05 7.01406e-05 7.01186e-05 7.00965e-05 7.00744e-05 7.00523e-05 7.00302e-05 7.0008e-05 6.99858e-05 6.99636e-05 6.99413e-05 6.9919e-05 6.98967e-05 6.98743e-05 6.98519e-05 6.98294e-05 6.9807e-05 6.97845e-05 6.97619e-05 6.97393e-05 6.97167e-05 6.96941e-05 6.96714e-05 6.96487e-05 6.9626e-05 6.96032e-05 6.95804e-05 6.95576e-05 6.95347e-05 6.95118e-05 6.94889e-05 6.94659e-05 6.94429e-05 6.94199e-05 6.93968e-05 6.93737e-05 6.93506e-05 6.93274e-05 6.93042e-05 6.9281e-05 6.92577e-05 6.92344e-05 6.92111e-05 6.91877e-05 6.91643e-05 6.91409e-05 6.91174e-05 6.90939e-05 6.90704e-05 6.90468e-05 6.90232e-05 6.89996e-05 6.8976e-05 6.89523e-05 6.89285e-05 6.89048e-05 6.8881e-05 6.88572e-05 6.88333e-05 6.88094e-05 6.87855e-05 6.87616e-05 6.87376e-05 6.87136e-05 6.86895e-05 6.86655e-05 6.86413e-05 6.86172e-05 6.8593e-05 6.85688e-05 6.85446e-05 6.85203e-05 6.8496e-05 6.84717e-05 6.84473e-05 6.84229e-05 6.83984e-05 6.8374e-05 6.83495e-05 6.8325e-05 6.83004e-05 6.82758e-05 6.82512e-05 7.36208e-05 7.36046e-05 7.35884e-05 7.35721e-05 7.35558e-05 7.35395e-05 7.35232e-05 7.35068e-05 7.34903e-05 7.34739e-05 7.34574e-05 7.34409e-05 7.34243e-05 7.34077e-05 7.33911e-05 7.33744e-05 7.33577e-05 7.3341e-05 7.33242e-05 7.33074e-05 7.32906e-05 7.32737e-05 7.32568e-05 7.32399e-05 7.32229e-05 7.32059e-05 7.31888e-05 7.31718e-05 7.31546e-05 7.31375e-05 7.31203e-05 7.31031e-05 7.30858e-05 7.30686e-05 7.30512e-05 7.30339e-05 7.30165e-05 7.29991e-05 7.29816e-05 7.29641e-05 7.29466e-05 7.2929e-05 7.29115e-05 7.28938e-05 7.28762e-05 7.28585e-05 7.28407e-05 7.2823e-05 7.28052e-05 7.27873e-05 7.27694e-05 7.27515e-05 7.27336e-05 7.27156e-05 7.26976e-05 7.26796e-05 7.26615e-05 7.26434e-05 7.26252e-05 7.26071e-05 7.25888e-05 7.25706e-05 7.25523e-05 7.2534e-05 7.25156e-05 7.24972e-05 7.24788e-05 7.24604e-05 7.24419e-05 7.24233e-05 7.24048e-05 7.23862e-05 7.23676e-05 7.23489e-05 7.23302e-05 7.23115e-05 7.22927e-05 7.22739e-05 7.22551e-05 7.22362e-05 7.22173e-05 7.21983e-05 7.21794e-05 7.21604e-05 7.21413e-05 7.21222e-05 7.21031e-05 7.2084e-05 7.20648e-05 7.20456e-05 7.20263e-05 7.20071e-05 7.19877e-05 7.19684e-05 7.1949e-05 7.19296e-05 7.19101e-05 7.18906e-05 7.18711e-05 7.18516e-05 7.1832e-05 7.18123e-05 7.17927e-05 7.1773e-05 7.17532e-05 7.17335e-05 7.17137e-05 7.16938e-05 7.1674e-05 7.16541e-05 7.16341e-05 7.16142e-05 7.15942e-05 7.15741e-05 7.15541e-05 7.15339e-05 7.15138e-05 7.14936e-05 7.14734e-05 7.14532e-05 7.14329e-05 7.14126e-05 7.13922e-05 7.13719e-05 7.13514e-05 7.1331e-05 7.13105e-05 7.129e-05 7.12694e-05 7.12489e-05 7.12282e-05 7.12076e-05 7.11869e-05 7.11662e-05 7.11454e-05 7.11246e-05 7.11038e-05 7.10829e-05 7.1062e-05 7.10411e-05 7.10202e-05 7.09992e-05 7.09781e-05 7.09571e-05 7.0936e-05 7.09148e-05 7.08937e-05 7.08725e-05 7.08512e-05 7.083e-05 7.08087e-05 7.07873e-05 7.0766e-05 7.07446e-05 7.07231e-05 7.07017e-05 7.06802e-05 7.06586e-05 7.0637e-05 7.06154e-05 7.05938e-05 7.05721e-05 7.05504e-05 7.05287e-05 7.05069e-05 7.04851e-05 7.04632e-05 7.04414e-05 7.04195e-05 7.03975e-05 7.03755e-05 7.03535e-05 7.03315e-05 7.03094e-05 7.02873e-05 7.02651e-05 7.02429e-05 7.02207e-05 7.01985e-05 7.01762e-05 7.01539e-05 7.01315e-05 7.01092e-05 7.00867e-05 7.00643e-05 7.00418e-05 7.00193e-05 6.99967e-05 6.99742e-05 6.99515e-05 6.99289e-05 6.99062e-05 6.98835e-05 6.98607e-05 6.98379e-05 6.98151e-05 6.97923e-05 6.97694e-