<?xml version="1.0"?> 
<VTKFile type="StructuredGrid" version="0.1"> 
<StructuredGrid WholeExtent="0 256 0 256 0 0"> 
<Piece Extent="0 256 0 256 0 0"> 
<CellData>
<DataArray type="Float32" Name="err_h1" format="ascii" NumberOfComponents="1"> 
0.000139171 0.000136849 0.000134551 0.000132274 0.00013002 0.000127788 0.000125581 0.000123397 0.000121237 0.000119102 0.000116992 0.000114907 0.000112848 0.000110815 0.000108807 0.000106826 0.000104871 0.000102943 0.000101041 9.91655e-05 9.73171e-05 9.54956e-05 9.37009e-05 9.1933e-05 9.0192e-05 8.84778e-05 8.67904e-05 8.51297e-05 8.34956e-05 8.18879e-05 8.03067e-05 7.87517e-05 7.72229e-05 7.57199e-05 7.42428e-05 7.27912e-05 7.1365e-05 6.99639e-05 6.85878e-05 6.72364e-05 6.59095e-05 6.46068e-05 6.3328e-05 6.2073e-05 6.08414e-05 5.96329e-05 5.84473e-05 5.72843e-05 5.61436e-05 5.50249e-05 5.39279e-05 5.28522e-05 5.17976e-05 5.07638e-05 4.97505e-05 4.87573e-05 4.7784e-05 4.68302e-05 4.58956e-05 4.49799e-05 4.40827e-05 4.32039e-05 4.2343e-05 4.14997e-05 4.06738e-05 3.9865e-05 3.90728e-05 3.82971e-05 3.75374e-05 3.67936e-05 3.60654e-05 3.53523e-05 3.46542e-05 3.39707e-05 3.33016e-05 3.26466e-05 3.20053e-05 3.13776e-05 3.07631e-05 3.01617e-05 2.95729e-05 2.89966e-05 2.84325e-05 2.78804e-05 2.73399e-05 2.68109e-05 2.62931e-05 2.57863e-05 2.52903e-05 2.48047e-05 2.43294e-05 2.38642e-05 2.34089e-05 2.29631e-05 2.25268e-05 2.20997e-05 2.16816e-05 2.12723e-05 2.08716e-05 2.04794e-05 2.00954e-05 1.97194e-05 1.93513e-05 1.89909e-05 1.86381e-05 1.82926e-05 1.79542e-05 1.76229e-05 1.72985e-05 1.69808e-05 1.66696e-05 1.63648e-05 1.60663e-05 1.57739e-05 1.54875e-05 1.52069e-05 1.49321e-05 1.46628e-05 1.43989e-05 1.41404e-05 1.38871e-05 1.36388e-05 1.33956e-05 1.31571e-05 1.29234e-05 1.26943e-05 1.24698e-05 1.22496e-05 1.20338e-05 1.18222e-05 1.16147e-05 1.14112e-05 1.12116e-05 1.10159e-05 1.08239e-05 1.06356e-05 1.04508e-05 1.02696e-05 1.00917e-05 9.91718e-06 9.74591e-06 9.57781e-06 9.41281e-06 9.25084e-06 9.09183e-06 8.93572e-06 8.78242e-06 8.63188e-06 8.48404e-06 8.33882e-06 8.19618e-06 8.05604e-06 7.91835e-06 7.78306e-06 7.6501e-06 7.51942e-06 7.39098e-06 7.2647e-06 7.14056e-06 7.01849e-06 6.89844e-06 6.78038e-06 6.66424e-06 6.55e-06 6.43759e-06 6.32699e-06 6.21814e-06 6.11101e-06 6.00555e-06 5.90172e-06 5.79949e-06 5.69881e-06 5.59966e-06 5.50199e-06 5.40577e-06 5.31096e-06 5.21753e-06 5.12544e-06 5.03467e-06 4.94518e-06 4.85693e-06 4.76991e-06 4.68408e-06 4.5994e-06 4.51586e-06 4.43342e-06 4.35206e-06 4.27174e-06 4.19245e-06 4.11415e-06 4.03683e-06 3.96045e-06 3.88499e-06 3.81043e-06 3.73675e-06 3.66391e-06 3.59191e-06 3.52071e-06 3.4503e-06 3.38066e-06 3.31176e-06 3.24358e-06 3.17611e-06 3.10932e-06 3.0432e-06 2.97773e-06 2.91288e-06 2.84865e-06 2.78501e-06 2.72194e-06 2.65944e-06 2.59747e-06 2.53604e-06 2.47512e-06 2.41469e-06 2.35474e-06 2.29527e-06 2.23624e-06 2.17765e-06 2.1195e-06 2.06175e-06 2.0044e-06 1.94745e-06 1.89087e-06 1.83466e-06 1.77881e-06 1.72331e-06 1.66815e-06 1.61333e-06 1.55883e-06 1.50465e-06 1.4508e-06 1.39726e-06 1.34404e-06 1.29114e-06 1.23856e-06 1.18632e-06 1.13442e-06 1.08289e-06 1.03174e-06 9.81006e-07 9.3073e-07 8.80962e-07 8.31768e-07 7.83232e-07 7.35467e-07 6.88613e-07 6.42855e-07 5.98437e-07 5.55666e-07 5.14953e-07 4.76871e-07 4.41979e-07 4.11155e-07 3.84555e-07 3.70868e-07 0.000138935 0.000136625 0.00013434 0.000132075 0.000129833 0.000127613 0.000125417 0.000123244 0.000121095 0.00011897 0.00011687 0.000114795 0.000112746 0.000110721 0.000108723 0.00010675 0.000104803 0.000102883 0.000100989 9.91207e-05 9.72795e-05 9.54648e-05 9.36766e-05 9.19151e-05 9.01802e-05 8.84718e-05 8.679e-05 8.51346e-05 8.35056e-05 8.19029e-05 8.03264e-05 7.87759e-05 7.72513e-05 7.57525e-05 7.42792e-05 7.28314e-05 7.14087e-05 7.0011e-05 6.86381e-05 6.72898e-05 6.59658e-05 6.46658e-05 6.33897e-05 6.21371e-05 6.09079e-05 5.97016e-05 5.85181e-05 5.73571e-05 5.62182e-05 5.51012e-05 5.40058e-05 5.29317e-05 5.18786e-05 5.08461e-05 4.9834e-05 4.8842e-05 4.78697e-05 4.69169e-05 4.59832e-05 4.50683e-05 4.4172e-05 4.32938e-05 4.24335e-05 4.15908e-05 4.07654e-05 3.9957e-05 3.91652e-05 3.83898e-05 3.76304e-05 3.68868e-05 3.61587e-05 3.54457e-05 3.47477e-05 3.40642e-05 3.33951e-05 3.274e-05 3.20986e-05 3.14708e-05 3.08561e-05 3.02544e-05 2.96654e-05 2.90888e-05 2.85244e-05 2.79719e-05 2.7431e-05 2.69016e-05 2.63834e-05 2.58761e-05 2.53795e-05 2.48934e-05 2.44176e-05 2.39518e-05 2.34958e-05 2.30495e-05 2.26125e-05 2.21848e-05 2.1766e-05 2.1356e-05 2.09546e-05 2.05616e-05 2.01769e-05 1.98002e-05 1.94313e-05 1.90702e-05 1.87165e-05 1.83702e-05 1.8031e-05 1.76989e-05 1.73736e-05 1.70551e-05 1.6743e-05 1.64374e-05 1.61381e-05 1.58448e-05 1.55575e-05 1.52761e-05 1.50003e-05 1.47301e-05 1.44654e-05 1.4206e-05 1.39518e-05 1.37026e-05 1.34585e-05 1.32191e-05 1.29845e-05 1.27546e-05 1.25291e-05 1.23081e-05 1.20914e-05 1.18789e-05 1.16705e-05 1.14661e-05 1.12657e-05 1.1069e-05 1.08762e-05 1.0687e-05 1.05014e-05 1.03193e-05 1.01406e-05 9.9652e-06 9.79308e-06 9.62415e-06 9.45833e-06 9.29555e-06 9.13573e-06 8.97881e-06 8.82472e-06 8.67339e-06 8.52477e-06 8.37878e-06 8.23537e-06 8.09448e-06 7.95604e-06 7.82001e-06 7.68632e-06 7.55493e-06 7.42577e-06 7.29879e-06 7.17395e-06 7.0512e-06 6.93048e-06 6.81175e-06 6.69496e-06 6.58006e-06 6.46702e-06 6.35579e-06 6.24632e-06 6.13858e-06 6.03252e-06 5.92811e-06 5.8253e-06 5.72406e-06 5.62435e-06 5.52613e-06 5.42936e-06 5.33403e-06 5.24008e-06 5.14748e-06 5.05621e-06 4.96623e-06 4.87751e-06 4.79002e-06 4.70373e-06 4.6186e-06 4.53462e-06 4.45175e-06 4.36997e-06 4.28925e-06 4.20956e-06 4.13087e-06 4.05316e-06 3.97642e-06 3.9006e-06 3.82569e-06 3.75167e-06 3.67851e-06 3.60619e-06 3.53469e-06 3.46398e-06 3.39405e-06 3.32488e-06 3.25644e-06 3.18872e-06 3.1217e-06 3.05535e-06 2.98966e-06 2.92462e-06 2.8602e-06 2.79639e-06 2.73318e-06 2.67053e-06 2.60845e-06 2.54692e-06 2.48592e-06 2.42543e-06 2.36545e-06 2.30596e-06 2.24696e-06 2.18842e-06 2.13034e-06 2.07271e-06 2.01552e-06 1.95876e-06 1.90243e-06 1.84653e-06 1.79104e-06 1.73596e-06 1.6813e-06 1.62706e-06 1.57324e-06 1.51985e-06 1.4669e-06 1.4144e-06 1.36237e-06 1.31084e-06 1.25984e-06 1.2094e-06 1.15957e-06 1.11041e-06 1.06199e-06 1.01439e-06 9.67711e-07 9.22089e-07 8.77674e-07 8.34649e-07 7.93237e-07 7.53707e-07 7.16377e-07 6.81617e-07 6.4987e-07 6.21604e-07 5.97362e-07 5.77705e-07 5.6324e-07 5.54906e-07 5.44322e-07 0.000138701 0.000136405 0.000134133 0.00013188 0.00012965 0.000127442 0.000125257 0.000123095 0.000120957 0.000118843 0.000116754 0.000114689 0.000112649 0.000110634 0.000108645 0.000106681 0.000104743 0.000102831 0.000100944 9.90845e-05 9.72508e-05 9.54433e-05 9.36622e-05 9.19074e-05 9.0179e-05 8.84768e-05 8.6801e-05 8.51514e-05 8.35279e-05 8.19305e-05 8.0359e-05 7.88134e-05 7.72934e-05 7.5799e-05 7.43299e-05 7.28861e-05 7.14672e-05 7.00732e-05 6.87037e-05 6.73587e-05 6.60378e-05 6.47407e-05 6.34674e-05 6.22174e-05 6.09906e-05 5.97867e-05 5.86054e-05 5.74464e-05 5.63094e-05 5.51942e-05 5.41004e-05 5.30279e-05 5.19761e-05 5.0945e-05 4.99341e-05 4.89432e-05 4.79719e-05 4.702e-05 4.60871e-05 4.5173e-05 4.42773e-05 4.33997e-05 4.25399e-05 4.16976e-05 4.08725e-05 4.00644e-05 3.92728e-05 3.84975e-05 3.77382e-05 3.69947e-05 3.62665e-05 3.55535e-05 3.48553e-05 3.41717e-05 3.35023e-05 3.2847e-05 3.22053e-05 3.15771e-05 3.09621e-05 3.036e-05 2.97705e-05 2.91935e-05 2.86285e-05 2.80755e-05 2.75341e-05 2.70041e-05 2.64853e-05 2.59773e-05 2.54801e-05 2.49934e-05 2.45169e-05 2.40504e-05 2.35937e-05 2.31466e-05 2.27089e-05 2.22804e-05 2.18608e-05 2.14501e-05 2.10479e-05 2.06541e-05 2.02686e-05 1.9891e-05 1.95214e-05 1.91594e-05 1.88049e-05 1.84577e-05 1.81177e-05 1.77848e-05 1.74586e-05 1.71392e-05 1.68264e-05 1.65199e-05 1.62197e-05 1.59256e-05 1.56374e-05 1.53551e-05 1.50785e-05 1.48075e-05 1.45419e-05 1.42817e-05 1.40266e-05 1.37767e-05 1.35317e-05 1.32915e-05 1.30561e-05 1.28253e-05 1.2599e-05 1.23772e-05 1.21597e-05 1.19464e-05 1.17372e-05 1.1532e-05 1.13308e-05 1.11334e-05 1.09398e-05 1.07499e-05 1.05635e-05 1.03806e-05 1.02012e-05 1.00251e-05 9.85225e-06 9.68261e-06 9.51608e-06 9.35259e-06 9.19208e-06 9.03447e-06 8.8797e-06 8.7277e-06 8.57842e-06 8.43177e-06 8.28771e-06 8.14618e-06 8.00711e-06 7.87046e-06 7.73615e-06 7.60415e-06 7.47439e-06 7.34682e-06 7.22139e-06 7.09806e-06 6.97678e-06 6.85748e-06 6.74014e-06 6.6247e-06 6.51113e-06 6.39937e-06 6.28938e-06 6.18112e-06 6.07456e-06 5.96965e-06 5.86635e-06 5.76462e-06 5.66443e-06 5.56575e-06 5.46852e-06 5.37273e-06 5.27834e-06 5.1853e-06 5.0936e-06 5.0032e-06 4.91406e-06 4.82615e-06 4.73946e-06 4.65394e-06 4.56956e-06 4.48631e-06 4.40415e-06 4.32305e-06 4.24299e-06 4.16395e-06 4.08589e-06 4.00879e-06 3.93263e-06 3.85738e-06 3.78302e-06 3.70953e-06 3.63689e-06 3.56506e-06 3.49404e-06 3.4238e-06 3.35431e-06 3.28557e-06 3.21754e-06 3.15021e-06 3.08357e-06 3.01758e-06 2.95224e-06 2.88753e-06 2.82342e-06 2.75991e-06 2.69697e-06 2.63459e-06 2.57275e-06 2.51145e-06 2.45065e-06 2.39036e-06 2.33055e-06 2.27122e-06 2.21235e-06 2.15393e-06 2.09595e-06 2.0384e-06 1.98126e-06 1.92454e-06 1.86822e-06 1.8123e-06 1.75677e-06 1.70163e-06 1.64688e-06 1.59252e-06 1.53854e-06 1.48497e-06 1.4318e-06 1.37904e-06 1.32673e-06 1.27486e-06 1.22348e-06 1.17262e-06 1.12232e-06 1.07263e-06 1.02363e-06 9.75396e-07 9.28034e-07 8.81668e-07 8.36455e-07 7.92586e-07 7.50294e-07 7.09866e-07 6.71647e-07 6.36048e-07 6.0357e-07 5.74734e-07 5.50226e-07 5.30374e-07 5.16841e-07 5.15724e-07 0.000138472 0.000136189 0.000133929 0.000131689 0.000129471 0.000127275 0.000125102 0.000122952 0.000120825 0.000118722 0.000116643 0.000114588 0.000112558 0.000110553 0.000108573 0.000106619 0.00010469 0.000102786 0.000100908 9.90566e-05 9.72307e-05 9.54308e-05 9.36571e-05 9.19094e-05 9.01878e-05 8.84922e-05 8.68227e-05 8.51792e-05 8.35615e-05 8.19697e-05 8.04036e-05 7.88631e-05 7.73481e-05 7.58583e-05 7.43938e-05 7.29542e-05 7.15394e-05 7.01492e-05 6.87834e-05 6.74418e-05 6.61242e-05 6.48303e-05 6.35599e-05 6.23127e-05 6.10884e-05 5.98869e-05 5.87079e-05 5.7551e-05 5.6416e-05 5.53026e-05 5.42105e-05 5.31395e-05 5.20892e-05 5.10594e-05 5.00497e-05 4.90598e-05 4.80895e-05 4.71385e-05 4.62063e-05 4.52929e-05 4.43977e-05 4.35206e-05 4.26612e-05 4.18192e-05 4.09944e-05 4.01863e-05 3.93948e-05 3.86196e-05 3.78603e-05 3.71166e-05 3.63883e-05 3.5675e-05 3.49766e-05 3.42926e-05 3.36229e-05 3.29671e-05 3.2325e-05 3.16963e-05 3.10807e-05 3.04781e-05 2.9888e-05 2.93103e-05 2.87447e-05 2.8191e-05 2.76489e-05 2.71182e-05 2.65986e-05 2.609e-05 2.5592e-05 2.51044e-05 2.46271e-05 2.41598e-05 2.37023e-05 2.32544e-05 2.28158e-05 2.23865e-05 2.19661e-05 2.15545e-05 2.11514e-05 2.07568e-05 2.03704e-05 1.9992e-05 1.96214e-05 1.92585e-05 1.89032e-05 1.85552e-05 1.82143e-05 1.78805e-05 1.75535e-05 1.72332e-05 1.69195e-05 1.66122e-05 1.63112e-05 1.60162e-05 1.57273e-05 1.54441e-05 1.51667e-05 1.48949e-05 1.46285e-05 1.43675e-05 1.41117e-05 1.38609e-05 1.36152e-05 1.33742e-05 1.31381e-05 1.29066e-05 1.26796e-05 1.2457e-05 1.22388e-05 1.20248e-05 1.18149e-05 1.1609e-05 1.14072e-05 1.12091e-05 1.10148e-05 1.08242e-05 1.06372e-05 1.04538e-05 1.02737e-05 1.0097e-05 9.92355e-06 9.75332e-06 9.58621e-06 9.42216e-06 9.26109e-06 9.10293e-06 8.94762e-06 8.7951e-06 8.64529e-06 8.49813e-06 8.35357e-06 8.21155e-06 8.072e-06 7.93487e-06 7.8001e-06 7.66764e-06 7.53744e-06 7.40943e-06 7.28358e-06 7.15983e-06 7.03813e-06 6.91844e-06 6.80071e-06 6.68489e-06 6.57094e-06 6.45882e-06 6.34847e-06 6.23987e-06 6.13297e-06 6.02773e-06 5.92411e-06 5.82207e-06 5.72158e-06 5.6226e-06 5.52509e-06 5.42902e-06 5.33436e-06 5.24107e-06 5.14912e-06 5.05847e-06 4.9691e-06 4.88097e-06 4.79406e-06 4.70833e-06 4.62376e-06 4.54032e-06 4.45798e-06 4.37671e-06 4.29649e-06 4.21729e-06 4.13909e-06 4.06186e-06 3.98557e-06 3.91021e-06 3.83575e-06 3.76216e-06 3.68943e-06 3.61753e-06 3.54644e-06 3.47614e-06 3.40661e-06 3.33783e-06 3.26978e-06 3.20244e-06 3.13579e-06 3.06981e-06 3.00449e-06 2.9398e-06 2.87574e-06 2.81228e-06 2.74941e-06 2.6871e-06 2.62536e-06 2.56416e-06 2.50348e-06 2.44332e-06 2.38366e-06 2.32449e-06 2.26579e-06 2.20756e-06 2.14978e-06 2.09244e-06 2.03554e-06 1.97907e-06 1.92301e-06 1.86738e-06 1.81215e-06 1.75732e-06 1.70291e-06 1.64889e-06 1.59529e-06 1.5421e-06 1.48933e-06 1.43699e-06 1.3851e-06 1.33368e-06 1.28275e-06 1.23234e-06 1.1825e-06 1.13328e-06 1.08473e-06 1.03692e-06 9.8995e-07 9.43923e-07 8.98974e-07 8.5526e-07 8.12976e-07 7.72355e-07 7.33679e-07 6.97271e-07 6.63538e-07 6.32888e-07 6.05944e-07 5.83023e-07 5.643e-07 5.46957e-07 0.000138246 0.000135976 0.000133729 0.0001315 0.000129295 0.00012711 0.000124949 0.000122809 0.000120693 0.000118601 0.000116532 0.000114488 0.000112468 0.000110472 0.000108501 0.000106556 0.000104635 0.00010274 0.00010087 9.90264e-05 9.72081e-05 9.54156e-05 9.36489e-05 9.1908e-05 9.01929e-05 8.85037e-05 8.68403e-05 8.52026e-05 8.35905e-05 8.20041e-05 8.04432e-05 7.89076e-05 7.73973e-05 7.5912e-05 7.44518e-05 7.30163e-05 7.16054e-05 7.02189e-05 6.88567e-05 6.75184e-05 6.62039e-05 6.4913e-05 6.36454e-05 6.24009e-05 6.11792e-05 5.998e-05 5.88032e-05 5.76484e-05 5.65153e-05 5.54037e-05 5.43133e-05 5.32438e-05 5.2195e-05 5.11664e-05 5.01579e-05 4.91692e-05 4.81998e-05 4.72496e-05 4.63183e-05 4.54055e-05 4.4511e-05 4.36344e-05 4.27754e-05 4.19338e-05 4.11093e-05 4.03015e-05 3.95101e-05 3.8735e-05 3.79757e-05 3.7232e-05 3.65036e-05 3.57902e-05 3.50915e-05 3.44073e-05 3.37373e-05 3.30812e-05 3.24387e-05 3.18096e-05 3.11936e-05 3.05905e-05 2.99999e-05 2.94217e-05 2.88556e-05 2.83012e-05 2.77585e-05 2.72272e-05 2.67069e-05 2.61976e-05 2.56989e-05 2.52106e-05 2.47326e-05 2.42645e-05 2.38063e-05 2.33576e-05 2.29182e-05 2.24881e-05 2.20668e-05 2.16544e-05 2.12506e-05 2.08551e-05 2.04678e-05 2.00886e-05 1.97172e-05 1.93535e-05 1.89973e-05 1.86484e-05 1.83067e-05 1.79721e-05 1.76442e-05 1.73231e-05 1.70086e-05 1.67004e-05 1.63985e-05 1.61027e-05 1.58129e-05 1.5529e-05 1.52507e-05 1.49781e-05 1.47109e-05 1.44491e-05 1.41924e-05 1.39409e-05 1.36943e-05 1.34526e-05 1.32157e-05 1.29834e-05 1.27556e-05 1.25323e-05 1.23133e-05 1.20985e-05 1.18879e-05 1.16813e-05 1.14787e-05 1.128e-05 1.1085e-05 1.08937e-05 1.0706e-05 1.05218e-05 1.03411e-05 1.01637e-05 9.9896e-06 9.81872e-06 9.65097e-06 9.48628e-06 9.32458e-06 9.16581e-06 9.00989e-06 8.85676e-06 8.70636e-06 8.55863e-06 8.41349e-06 8.2709e-06 8.1308e-06 7.99312e-06 7.85781e-06 7.72482e-06 7.59409e-06 7.46557e-06 7.33922e-06 7.21497e-06 7.09279e-06 6.97262e-06 6.85441e-06 6.73813e-06 6.62373e-06 6.51116e-06 6.40038e-06 6.29135e-06 6.18403e-06 6.07837e-06 5.97435e-06 5.87192e-06 5.77104e-06 5.67168e-06 5.5738e-06 5.47737e-06 5.38236e-06 5.28872e-06 5.19643e-06 5.10545e-06 5.01576e-06 4.92732e-06 4.8401e-06 4.75407e-06 4.66921e-06 4.58549e-06 4.50287e-06 4.42134e-06 4.34086e-06 4.26141e-06 4.18296e-06 4.10549e-06 4.02898e-06 3.95339e-06 3.87872e-06 3.80493e-06 3.732e-06 3.6599e-06 3.58863e-06 3.51816e-06 3.44846e-06 3.37952e-06 3.31131e-06 3.24382e-06 3.17703e-06 3.11092e-06 3.04548e-06 2.98067e-06 2.9165e-06 2.85293e-06 2.78996e-06 2.72757e-06 2.66574e-06 2.60446e-06 2.54372e-06 2.48349e-06 2.42377e-06 2.36454e-06 2.3058e-06 2.24752e-06 2.1897e-06 2.13234e-06 2.07541e-06 2.01891e-06 1.96284e-06 1.90718e-06 1.85193e-06 1.79709e-06 1.74266e-06 1.68863e-06 1.63501e-06 1.5818e-06 1.529e-06 1.47663e-06 1.42469e-06 1.37321e-06 1.3222e-06 1.2717e-06 1.22173e-06 1.17234e-06 1.12358e-06 1.07551e-06 1.02822e-06 9.81783e-07 9.36326e-07 8.91984e-07 8.48922e-07 8.07339e-07 7.6748e-07 7.29621e-07 6.94126e-07 6.61324e-07 6.31793e-07 6.05776e-07 5.85111e-07 5.70959e-07 0.000138023 0.000135766 0.000133532 0.000131315 0.000129121 0.000126949 0.000124798 0.00012267 0.000120565 0.000118483 0.000116425 0.00011439 0.00011238 0.000110394 0.000108432 0.000106495 0.000104583 0.000102697 0.000100835 9.8999e-05 9.71883e-05 9.54031e-05 9.36435e-05 9.19095e-05 9.0201e-05 8.85181e-05 8.68608e-05 8.5229e-05 8.36226e-05 8.20415e-05 8.04858e-05 7.89552e-05 7.74496e-05 7.59689e-05 7.4513e-05 7.30816e-05 7.16747e-05 7.02919e-05 6.89332e-05 6.75983e-05 6.62871e-05 6.49992e-05 6.37344e-05 6.24926e-05 6.12734e-05 6.00766e-05 5.8902e-05 5.77492e-05 5.66181e-05 5.55083e-05 5.44196e-05 5.33516e-05 5.23042e-05 5.1277e-05 5.02696e-05 4.9282e-05 4.83136e-05 4.73643e-05 4.64338e-05 4.55216e-05 4.46277e-05 4.37516e-05 4.28931e-05 4.20518e-05 4.12275e-05 4.04199e-05 3.96287e-05 3.88536e-05 3.80943e-05 3.73506e-05 3.66221e-05 3.59085e-05 3.52096e-05 3.45252e-05 3.38548e-05 3.31984e-05 3.25555e-05 3.1926e-05 3.13095e-05 3.07059e-05 3.01148e-05 2.9536e-05 2.89692e-05 2.84143e-05 2.7871e-05 2.73389e-05 2.6818e-05 2.63079e-05 2.58085e-05 2.53195e-05 2.48407e-05 2.43719e-05 2.39128e-05 2.34633e-05 2.30232e-05 2.25922e-05 2.21702e-05 2.17569e-05 2.13522e-05 2.09559e-05 2.05678e-05 2.01878e-05 1.98155e-05 1.9451e-05 1.90939e-05 1.87442e-05 1.84017e-05 1.80661e-05 1.77375e-05 1.74155e-05 1.71001e-05 1.67911e-05 1.64883e-05 1.61917e-05 1.59011e-05 1.56163e-05 1.53373e-05 1.50638e-05 1.47958e-05 1.45332e-05 1.42757e-05 1.40234e-05 1.37761e-05 1.35336e-05 1.32959e-05 1.30628e-05 1.28343e-05 1.26102e-05 1.23905e-05 1.2175e-05 1.19637e-05 1.17564e-05 1.15531e-05 1.13536e-05 1.1158e-05 1.0966e-05 1.07776e-05 1.05928e-05 1.04114e-05 1.02334e-05 1.00587e-05 9.88715e-06 9.71878e-06 9.55348e-06 9.39119e-06 9.23183e-06 9.07533e-06 8.92163e-06 8.77067e-06 8.62238e-06 8.4767e-06 8.33358e-06 8.19295e-06 8.05475e-06 7.91893e-06 7.78544e-06 7.65422e-06 7.52523e-06 7.3984e-06 7.27369e-06 7.15105e-06 7.03043e-06 6.91179e-06 6.79508e-06 6.68026e-06 6.56727e-06 6.45609e-06 6.34667e-06 6.23896e-06 6.13293e-06 6.02854e-06 5.92574e-06 5.82451e-06 5.72481e-06 5.6266e-06 5.52984e-06 5.43451e-06 5.34056e-06 5.24797e-06 5.1567e-06 5.06672e-06 4.978e-06 4.89052e-06 4.80423e-06 4.71912e-06 4.63515e-06 4.5523e-06 4.47054e-06 4.38984e-06 4.31018e-06 4.23154e-06 4.15388e-06 4.07718e-06 4.00142e-06 3.92657e-06 3.85262e-06 3.77954e-06 3.70731e-06 3.6359e-06 3.5653e-06 3.49549e-06 3.42644e-06 3.35814e-06 3.29056e-06 3.22369e-06 3.15751e-06 3.092e-06 3.02714e-06 2.96292e-06 2.89933e-06 2.83633e-06 2.77392e-06 2.71209e-06 2.65081e-06 2.59007e-06 2.52987e-06 2.47018e-06 2.41099e-06 2.3523e-06 2.29408e-06 2.23634e-06 2.17905e-06 2.12221e-06 2.06581e-06 2.00985e-06 1.95431e-06 1.89919e-06 1.84449e-06 1.7902e-06 1.73632e-06 1.68286e-06 1.62981e-06 1.57719e-06 1.52499e-06 1.47323e-06 1.42193e-06 1.3711e-06 1.32077e-06 1.27096e-06 1.22172e-06 1.1731e-06 1.12513e-06 1.0779e-06 1.03148e-06 9.85972e-07 9.41494e-07 8.98187e-07 8.5622e-07 8.158e-07 7.77156e-07 7.40605e-07 7.06408e-07 6.75114e-07 6.46702e-07 6.21977e-07 6.00844e-07 0.000137805 0.00013556 0.000133338 0.000131133 0.000128951 0.00012679 0.000124651 0.000122533 0.000120439 0.000118367 0.000116319 0.000114294 0.000112293 0.000110316 0.000108364 0.000106436 0.000104533 0.000102654 0.000100801 9.89722e-05 9.7169e-05 9.53911e-05 9.36384e-05 9.19111e-05 9.02091e-05 8.85325e-05 8.68812e-05 8.52551e-05 8.36543e-05 8.20786e-05 8.05279e-05 7.90022e-05 7.75013e-05 7.60251e-05 7.45734e-05 7.31462e-05 7.17431e-05 7.0364e-05 6.90088e-05 6.76773e-05 6.63692e-05 6.50842e-05 6.38223e-05 6.25831e-05 6.13664e-05 6.0172e-05 5.89996e-05 5.78489e-05 5.67197e-05 5.56117e-05 5.45246e-05 5.34582e-05 5.24122e-05 5.13863e-05 5.03802e-05 4.93936e-05 4.84262e-05 4.74778e-05 4.6548e-05 4.56366e-05 4.47432e-05 4.38677e-05 4.30096e-05 4.21687e-05 4.13447e-05 4.05373e-05 3.97462e-05 3.89712e-05 3.8212e-05 3.74682e-05 3.67396e-05 3.60259e-05 3.53268e-05 3.46421e-05 3.39715e-05 3.33147e-05 3.26715e-05 3.20415e-05 3.14246e-05 3.08205e-05 3.02289e-05 2.96495e-05 2.90822e-05 2.85267e-05 2.79827e-05 2.745e-05 2.69284e-05 2.64177e-05 2.59176e-05 2.54278e-05 2.49483e-05 2.44787e-05 2.40189e-05 2.35686e-05 2.31277e-05 2.26959e-05 2.22731e-05 2.1859e-05 2.14535e-05 2.10563e-05 2.06674e-05 2.02865e-05 1.99134e-05 1.9548e-05 1.91901e-05 1.88395e-05 1.84962e-05 1.81598e-05 1.78303e-05 1.75075e-05 1.71912e-05 1.68814e-05 1.65778e-05 1.62804e-05 1.59889e-05 1.57033e-05 1.54234e-05 1.51492e-05 1.48804e-05 1.46169e-05 1.43587e-05 1.41055e-05 1.38574e-05 1.36142e-05 1.33757e-05 1.31418e-05 1.29126e-05 1.26877e-05 1.24673e-05 1.22511e-05 1.2039e-05 1.1831e-05 1.1627e-05 1.14268e-05 1.12304e-05 1.10378e-05 1.08487e-05 1.06632e-05 1.04812e-05 1.03025e-05 1.01271e-05 9.95497e-06 9.78597e-06 9.62005e-06 9.45715e-06 9.29718e-06 9.14009e-06 8.98581e-06 8.83427e-06 8.68542e-06 8.53918e-06 8.3955e-06 8.25433e-06 8.1156e-06 7.97926e-06 7.84526e-06 7.71354e-06 7.58404e-06 7.45672e-06 7.33153e-06 7.20842e-06 7.08734e-06 6.96825e-06 6.85109e-06 6.73583e-06 6.62242e-06 6.51082e-06 6.40098e-06 6.29287e-06 6.18645e-06 6.08167e-06 5.9785e-06 5.8769e-06 5.77684e-06 5.67828e-06 5.58118e-06 5.4855e-06 5.39123e-06 5.29832e-06 5.20674e-06 5.11646e-06 5.02745e-06 4.93968e-06 4.85311e-06 4.76773e-06 4.6835e-06 4.6004e-06 4.51839e-06 4.43746e-06 4.35757e-06 4.2787e-06 4.20083e-06 4.12392e-06 4.04797e-06 3.97294e-06 3.89881e-06 3.82555e-06 3.75316e-06 3.68159e-06 3.61085e-06 3.54089e-06 3.47171e-06 3.40329e-06 3.3356e-06 3.26862e-06 3.20234e-06 3.13674e-06 3.0718e-06 3.00751e-06 2.94385e-06 2.88079e-06 2.81834e-06 2.75646e-06 2.69515e-06 2.6344e-06 2.57418e-06 2.51448e-06 2.4553e-06 2.39661e-06 2.33841e-06 2.28069e-06 2.22344e-06 2.16664e-06 2.1103e-06 2.05439e-06 1.99891e-06 1.94387e-06 1.88924e-06 1.83504e-06 1.78125e-06 1.72788e-06 1.67493e-06 1.6224e-06 1.57031e-06 1.51865e-06 1.46744e-06 1.41671e-06 1.36646e-06 1.31673e-06 1.26755e-06 1.21895e-06 1.17099e-06 1.12373e-06 1.07724e-06 1.03159e-06 9.86896e-07 9.43278e-07 9.0088e-07 8.59881e-07 8.20472e-07 7.82932e-07 7.47461e-07 7.14573e-07 6.84317e-07 6.58088e-07 6.35799e-07 0.000137589 0.000135358 0.000133147 0.000130955 0.000128784 0.000126634 0.000124506 0.000122399 0.000120315 0.000118254 0.000116216 0.000114201 0.000112209 0.000110241 0.000108298 0.000106379 0.000104484 0.000102613 0.000100768 9.8947e-05 9.71513e-05 9.53805e-05 9.36347e-05 9.19141e-05 9.02186e-05 8.85481e-05 8.69028e-05 8.52825e-05 8.36872e-05 8.21167e-05 8.05712e-05 7.90503e-05 7.75541e-05 7.60823e-05 7.46349e-05 7.32117e-05 7.18125e-05 7.04371e-05 6.90854e-05 6.77572e-05 6.64522e-05 6.51702e-05 6.39111e-05 6.26746e-05 6.14604e-05 6.02683e-05 5.90981e-05 5.79494e-05 5.68222e-05 5.57159e-05 5.46305e-05 5.35657e-05 5.25211e-05 5.14964e-05 5.04915e-05 4.9506e-05 4.85396e-05 4.75921e-05 4.66631e-05 4.57524e-05 4.48596e-05 4.39846e-05 4.31269e-05 4.22864e-05 4.14627e-05 4.06555e-05 3.98646e-05 3.90897e-05 3.83304e-05 3.75866e-05 3.68579e-05 3.61441e-05 3.54448e-05 3.47599e-05 3.4089e-05 3.34318e-05 3.27882e-05 3.21579e-05 3.15405e-05 3.09359e-05 3.03438e-05 2.97639e-05 2.9196e-05 2.86399e-05 2.80953e-05 2.75619e-05 2.70397e-05 2.65282e-05 2.60274e-05 2.5537e-05 2.50567e-05 2.45863e-05 2.41258e-05 2.36747e-05 2.3233e-05 2.28004e-05 2.23768e-05 2.19619e-05 2.15555e-05 2.11576e-05 2.07678e-05 2.03861e-05 2.00121e-05 1.96459e-05 1.92872e-05 1.89357e-05 1.85915e-05 1.82543e-05 1.79239e-05 1.76003e-05 1.72832e-05 1.69725e-05 1.66681e-05 1.63699e-05 1.60776e-05 1.57912e-05 1.55105e-05 1.52354e-05 1.49658e-05 1.47015e-05 1.44425e-05 1.41886e-05 1.39396e-05 1.36956e-05 1.34564e-05 1.32218e-05 1.29917e-05 1.27662e-05 1.2545e-05 1.2328e-05 1.21152e-05 1.19065e-05 1.17017e-05 1.15009e-05 1.13038e-05 1.11105e-05 1.09208e-05 1.07346e-05 1.05519e-05 1.03726e-05 1.01965e-05 1.00238e-05 9.85413e-06 9.6876e-06 9.52409e-06 9.36353e-06 9.20585e-06 9.05098e-06 8.89888e-06 8.74946e-06 8.60267e-06 8.45845e-06 8.31674e-06 8.17748e-06 8.04062e-06 7.90611e-06 7.77389e-06 7.6439e-06 7.5161e-06 7.39043e-06 7.26686e-06 7.14532e-06 7.02578e-06 6.90818e-06 6.79249e-06 6.67865e-06 6.56664e-06 6.4564e-06 6.34789e-06 6.24108e-06 6.13592e-06 6.03238e-06 5.93042e-06 5.83e-06 5.73109e-06 5.63365e-06 5.53765e-06 5.44305e-06 5.34983e-06 5.25794e-06 5.16736e-06 5.07807e-06 4.99001e-06 4.90318e-06 4.81753e-06 4.73305e-06 4.6497e-06 4.56746e-06 4.48629e-06 4.40618e-06 4.3271e-06 4.24902e-06 4.17192e-06 4.09577e-06 4.02056e-06 3.94626e-06 3.87284e-06 3.80029e-06 3.72858e-06 3.65769e-06 3.58761e-06 3.51831e-06 3.44977e-06 3.38197e-06 3.3149e-06 3.24853e-06 3.18285e-06 3.11785e-06 3.05349e-06 2.98978e-06 2.92668e-06 2.86419e-06 2.80229e-06 2.74096e-06 2.6802e-06 2.61998e-06 2.56029e-06 2.50113e-06 2.44247e-06 2.38431e-06 2.32664e-06 2.26944e-06 2.21271e-06 2.15643e-06 2.10061e-06 2.04522e-06 1.99027e-06 1.93575e-06 1.88166e-06 1.828e-06 1.77476e-06 1.72194e-06 1.66956e-06 1.6176e-06 1.56609e-06 1.51503e-06 1.46444e-06 1.41434e-06 1.36475e-06 1.31569e-06 1.26721e-06 1.21934e-06 1.17214e-06 1.12567e-06 1.08001e-06 1.03524e-06 9.91463e-07 9.48812e-07 9.07439e-07 8.67505e-07 8.29254e-07 7.92843e-07 7.58737e-07 7.26781e-07 6.98129e-07 6.72913e-07 0.000137378 0.000135158 0.00013296 0.000130779 0.00012862 0.000126481 0.000124363 0.000122268 0.000120194 0.000118143 0.000116114 0.000114109 0.000112127 0.000110168 0.000108233 0.000106323 0.000104436 0.000102574 0.000100736 9.8923e-05 9.71345e-05 9.53708e-05 9.3632e-05 9.19179e-05 9.02288e-05 8.85645e-05 8.6925e-05 8.53104e-05 8.37205e-05 8.21554e-05 8.06148e-05 7.90988e-05 7.76072e-05 7.61398e-05 7.46966e-05 7.32774e-05 7.1882e-05 7.05103e-05 6.91621e-05 6.78371e-05 6.65353e-05 6.52563e-05 6.39999e-05 6.2766e-05 6.15543e-05 6.03646e-05 5.91965e-05 5.805e-05 5.69246e-05 5.58202e-05 5.47364e-05 5.36731e-05 5.26299e-05 5.16066e-05 5.06028e-05 4.96184e-05 4.8653e-05 4.77063e-05 4.67781e-05 4.58681e-05 4.4976e-05 4.41014e-05 4.32442e-05 4.24041e-05 4.15807e-05 4.07737e-05 3.9983e-05 3.92081e-05 3.84489e-05 3.77051e-05 3.69763e-05 3.62623e-05 3.55629e-05 3.48777e-05 3.42065e-05 3.35491e-05 3.29051e-05 3.22743e-05 3.16565e-05 3.10514e-05 3.04588e-05 2.98784e-05 2.93099e-05 2.87532e-05 2.8208e-05 2.76741e-05 2.71511e-05 2.6639e-05 2.61375e-05 2.56463e-05 2.51653e-05 2.46942e-05 2.42329e-05 2.3781e-05 2.33385e-05 2.29052e-05 2.24807e-05 2.2065e-05 2.16579e-05 2.12591e-05 2.08685e-05 2.04859e-05 2.01112e-05 1.97441e-05 1.93845e-05 1.90323e-05 1.86872e-05 1.83491e-05 1.80179e-05 1.76934e-05 1.73755e-05 1.7064e-05 1.67588e-05 1.64597e-05 1.61666e-05 1.58793e-05 1.55978e-05 1.53219e-05 1.50515e-05 1.47864e-05 1.45266e-05 1.42719e-05 1.40222e-05 1.37774e-05 1.35374e-05 1.3302e-05 1.30712e-05 1.28449e-05 1.2623e-05 1.24053e-05 1.21917e-05 1.19823e-05 1.17769e-05 1.15753e-05 1.13775e-05 1.11835e-05 1.09931e-05 1.08063e-05 1.06229e-05 1.04429e-05 1.02662e-05 1.00928e-05 9.92259e-06 9.75544e-06 9.59131e-06 9.43015e-06 9.27188e-06 9.11643e-06 8.96375e-06 8.81376e-06 8.66641e-06 8.52164e-06 8.3794e-06 8.23961e-06 8.10223e-06 7.9672e-06 7.83447e-06 7.70399e-06 7.5757e-06 7.44956e-06 7.32551e-06 7.20351e-06 7.08352e-06 6.96548e-06 6.84935e-06 6.73509e-06 6.62265e-06 6.512e-06 6.40309e-06 6.29589e-06 6.19034e-06 6.08643e-06 5.9841e-06 5.88332e-06 5.78406e-06 5.68628e-06 5.58994e-06 5.49502e-06 5.40148e-06 5.30928e-06 5.21841e-06 5.12881e-06 5.04048e-06 4.95337e-06 4.86746e-06 4.78271e-06 4.69911e-06 4.61662e-06 4.53522e-06 4.45488e-06 4.37558e-06 4.29729e-06 4.21999e-06 4.14365e-06 4.06825e-06 3.99377e-06 3.92019e-06 3.84747e-06 3.77561e-06 3.70458e-06 3.63436e-06 3.56493e-06 3.49628e-06 3.42837e-06 3.36119e-06 3.29474e-06 3.22897e-06 3.16389e-06 3.09947e-06 3.03569e-06 2.97254e-06 2.91001e-06 2.84808e-06 2.78673e-06 2.72595e-06 2.66572e-06 2.60604e-06 2.54689e-06 2.48825e-06 2.43012e-06 2.37248e-06 2.31533e-06 2.25866e-06 2.20244e-06 2.14669e-06 2.09139e-06 2.03653e-06 1.98211e-06 1.92812e-06 1.87457e-06 1.82144e-06 1.76875e-06 1.71649e-06 1.66467e-06 1.6133e-06 1.56237e-06 1.51192e-06 1.46195e-06 1.41249e-06 1.36355e-06 1.31518e-06 1.2674e-06 1.22027e-06 1.17384e-06 1.12817e-06 1.08334e-06 1.03945e-06 9.96593e-07 9.54917e-07 9.14552e-07 8.75715e-07 8.38524e-07 8.03425e-07 7.70284e-07 7.40296e-07 7.13359e-07 0.00013717 0.000134962 0.000132776 0.000130606 0.000128458 0.00012633 0.000124224 0.000122138 0.000120075 0.000118034 0.000116015 0.000114019 0.000112046 0.000110097 0.000108171 0.000106269 0.00010439 0.000102536 0.000100706 9.89003e-05 9.71191e-05 9.53624e-05 9.36303e-05 9.19228e-05 9.024e-05 8.85818e-05 8.69482e-05 8.53392e-05 8.37548e-05 8.21948e-05 8.06592e-05 7.9148e-05 7.76609e-05 7.6198e-05 7.47589e-05 7.33437e-05 7.19521e-05 7.0584e-05 6.92392e-05 6.79176e-05 6.66188e-05 6.53427e-05 6.40892e-05 6.28579e-05 6.16487e-05 6.04612e-05 5.92954e-05 5.81508e-05 5.70274e-05 5.59247e-05 5.48426e-05 5.37808e-05 5.27391e-05 5.1717e-05 5.07145e-05 4.97311e-05 4.87667e-05 4.78209e-05 4.68935e-05 4.59842e-05 4.50927e-05 4.42187e-05 4.33619e-05 4.25221e-05 4.1699e-05 4.08923e-05 4.01017e-05 3.9327e-05 3.85678e-05 3.78239e-05 3.70951e-05 3.6381e-05 3.56813e-05 3.49959e-05 3.43245e-05 3.36667e-05 3.30224e-05 3.23912e-05 3.1773e-05 3.11674e-05 3.05743e-05 2.99934e-05 2.94244e-05 2.88671e-05 2.83212e-05 2.77866e-05 2.72631e-05 2.67503e-05 2.6248e-05 2.57561e-05 2.52744e-05 2.48026e-05 2.43405e-05 2.38879e-05 2.34446e-05 2.30104e-05 2.25852e-05 2.21687e-05 2.17607e-05 2.13611e-05 2.09697e-05 2.05863e-05 2.02107e-05 1.98428e-05 1.94824e-05 1.91293e-05 1.87834e-05 1.84445e-05 1.81125e-05 1.77871e-05 1.74684e-05 1.7156e-05 1.685e-05 1.655e-05 1.62561e-05 1.59681e-05 1.56857e-05 1.5409e-05 1.51378e-05 1.48719e-05 1.46113e-05 1.43558e-05 1.41053e-05 1.38598e-05 1.3619e-05 1.33828e-05 1.31513e-05 1.29242e-05 1.27015e-05 1.24831e-05 1.22689e-05 1.20587e-05 1.18525e-05 1.16503e-05 1.14518e-05 1.12571e-05 1.1066e-05 1.08785e-05 1.06945e-05 1.05139e-05 1.03366e-05 1.01625e-05 9.99162e-06 9.82385e-06 9.65912e-06 9.49736e-06 9.33849e-06 9.18246e-06 9.0292e-06 8.87865e-06 8.73075e-06 8.58543e-06 8.44264e-06 8.30232e-06 8.16442e-06 8.02888e-06 7.89564e-06 7.76466e-06 7.63589e-06 7.50927e-06 7.38475e-06 7.26229e-06 7.14184e-06 7.02336e-06 6.90679e-06 6.79211e-06 6.67925e-06 6.56819e-06 6.45888e-06 6.35128e-06 6.24535e-06 6.14106e-06 6.03836e-06 5.93723e-06 5.83761e-06 5.73949e-06 5.64282e-06 5.54757e-06 5.45371e-06 5.36121e-06 5.27003e-06 5.18015e-06 5.09152e-06 5.00414e-06 4.91796e-06 4.83295e-06 4.7491e-06 4.66637e-06 4.58473e-06 4.50417e-06 4.42465e-06 4.34615e-06 4.26864e-06 4.19211e-06 4.11653e-06 4.04187e-06 3.96812e-06 3.89524e-06 3.82323e-06 3.75206