<?xml version="1.0"?> 
<VTKFile type="StructuredGrid" version="0.1"> 
<StructuredGrid WholeExtent="0 15 0 15 0 0"> 
<Piece Extent="0 15 0 15 0 0"> 
<PointData>
<DataArray type="Float32" Name="E" format="ascii" NumberOfComponents="3"> 
-1.00948e+06 0 0 -1.00944e+06 0 0 -1.00932e+06 0 0 -1.00911e+06 0 0 -1.00883e+06 0 0 -1.00846e+06 0 0 -1.00801e+06 0 0 -1.00748e+06 0 0 -1.00687e+06 0 0 -1.00618e+06 0 0 -1.0054e+06 0 0 -1.00455e+06 0 0 -1.00361e+06 0 0 -1.0026e+06 0 0 -1.00151e+06 0 0 -1.00034e+06 0 0 -1.0096e+06 -0.000402646 0 -1.00956e+06 139.502 0 -1.00944e+06 278.951 0 -1.00923e+06 418.294 0 -1.00895e+06 557.478 0 -1.00858e+06 696.448 0 -1.00813e+06 835.151 0 -1.0076e+06 973.532 0 -1.00699e+06 1111.54 0 -1.00629e+06 1249.12 0 -1.00552e+06 1386.23 0 -1.00466e+06 1522.84 0 -1.00373e+06 1658.94 0 -1.00272e+06 1794.53 0 -1.00162e+06 1929.69 0 -1.00045e+06 2064.55 0 -1.00996e+06 -0.000799087 0 -1.00992e+06 279.157 0 -1.00979e+06 558.209 0 -1.00959e+06 837.051 0 -1.0093e+06 1115.57 0 -1.00893e+06 1393.67 0 -1.00848e+06 1671.24 0 -1.00795e+06 1948.15 0 -1.00734e+06 2224.31 0 -1.00664e+06 2499.61 0 -1.00587e+06 2773.94 0 -1.00501e+06 3047.21 0 -1.00408e+06 3319.37 0 -1.00306e+06 3590.4 0 -1.00197e+06 3860.35 0 -1.00079e+06 4129.37 0 -1.01055e+06 -0.00118007 0 -1.01051e+06 419.116 0 -1.01039e+06 838.077 0 -1.01018e+06 1256.73 0 -1.00989e+06 1674.91 0 -1.00953e+06 2092.45 0 -1.00907e+06 2509.2 0 -1.00854e+06 2924.98 0 -1.00793e+06 3339.61 0 -1.00723e+06 3752.91 0 -1.00645e+06 4164.72 0 -1.00559e+06 4574.86 0 -1.00466e+06 4983.16 0 -1.00364e+06 5389.51 0 -1.00254e+06 5793.82 0 -1.00137e+06 6196.11 0 -1.01139e+06 -0.00153171 0 -1.01135e+06 559.524 0 -1.01122e+06 1118.85 0 -1.01101e+06 1677.76 0 -1.01073e+06 2236.07 0 -1.01035e+06 2793.54 0 -1.0099e+06 3349.97 0 -1.00937e+06 3905.12 0 -1.00875e+06 4458.74 0 -1.00805e+06 5010.58 0 -1.00727e+06 5560.37 0 -1.00641e+06 6107.84 0 -1.00547e+06 6652.68 0 -1.00444e+06 7194.59 0 -1.00334e+06 7733.29 0 -1.00216e+06 8268.48 0 -1.01246e+06 -0.00183617 0 -1.01242e+06 700.515 0 -1.01229e+06 1400.79 0 -1.01209e+06 2100.57 0 -1.0118e+06 2799.62 0 -1.01142e+06 3497.67 0 -1.01097e+06 4194.45 0 -1.01043e+06 4889.68 0 -1.00981e+06 5583.03 0 -1.00911e+06 6274.19 0 -1.00832e+06 6962.78 0 -1.00746e+06 7648.42 0 -1.00651e+06 8330.67 0 -1.00548e+06 9009.04 0 -1.00437e+06 9682.97 0 -1.00318e+06 10351.8 0 -1.01377e+06 -0.00207437 0 -1.01373e+06 842.204 0 -1.01361e+06 1684.13 0 -1.0134e+06 2525.51 0 -1.01311e+06 3366.06 0 -1.01273e+06 4205.47 0 -1.01227e+06 5043.44 0 -1.01173e+06 5879.63 0 -1.01111e+06 6713.68 0 -1.0104e+06 7545.19 0 -1.00961e+06 8373.73 0 -1.00874e+06 9198.81 0 -1.00778e+06 10019.9 0 -1.00675e+06 10836.3 0 -1.00563e+06 11647.3 0 -1.00443e+06 12451.9 0 -1.01533e+06 -0.00222979 0 -1.01529e+06 984.683 0 -1.01516e+06 1969.07 0 -1.01495e+06 2952.87 0 -1.01466e+06 3935.77 0 -1.01428e+06 4917.44 0 -1.01382e+06 5897.56 0 -1.01328e+06 6875.76 0 -1.01265e+06 7851.64 0 -1.01194e+06 8824.77 0 -1.01114e+06 9794.67 0 -1.01026e+06 10760.8 0 -1.0093e+06 11722.5 0 -1.00825e+06 12679.1 0 -1.00713e+06 13629.7 0 -1.00592e+06 14573.3 0 -1.01713e+06 -0.00229166 0 -1.01709e+06 1128.01 0 -1.01696e+06 2255.72 0 -1.01675e+06 3382.82 0 -1.01645e+06 4508.99 0 -1.01607e+06 5633.92 0 -1.01561e+06 6757.24 0 -1.01506e+06 7878.58 0 -1.01443e+06 8997.54 0 -1.01371e+06 10113.7 0 -1.01291e+06 11226.5 0 -1.01203e+06 12335.4 0 -1.01105e+06 13439.9 0 -1.01e+06 14539.1 0 -1.00886e+06 15632.3 0 -1.00764e+06 16718.4 0 -1.01917e+06 -0.00225687 0 -1.01913e+06 1272.21 0 -1.019e+06 2544.12 0 -1.01879e+06 3815.44 0 -1.0185e+06 5085.84 0 -1.01811e+06 6355.01 0 -1.01765e+06 7622.61 0 -1.01709e+06 8888.27 0 -1.01646e+06 10151.6 0 -1.01573e+06 11412.2 0 -1.01493e+06 12669.5 0 -1.01403e+06 13923.1 0 -1.01306e+06 15172.3 0 -1.01199e+06 16416.6 0 -1.01084e+06 17655.1 0 -1.0096e+06 18887 0 -1.02147e+06 -0.00212992 0 -1.02142e+06 1417.27 0 -1.02129e+06 2834.26 0 -1.02108e+06 4250.68 0 -1.02078e+06 5666.25 0 -1.0204e+06 7080.66 0 -1.01993e+06 8493.58 0 -1.01937e+06 9904.7 0 -1.01873e+06 11313.6 0 -1.018e+06 12720 0 -1.01719e+06 14123.4 0 -1.01629e+06 15523.3 0 -1.0153e+06 16919.2 0 -1.01423e+06 18310.6 0 -1.01307e+06 19696.9 0 -1.01182e+06 21077.5 0 -1.024e+06 -0.00192104 0 -1.02396e+06 1563.14 0 -1.02383e+06 3126.02 0 -1.02362e+06 4688.4 0 -1.02332e+06 6250.01 0 -1.02293e+06 7810.57 0 -1.02246e+06 9369.81 0 -1.0219e+06 10927.4 0 -1.02125e+06 12483.1 0 -1.02052e+06 14036.5 0 -1.0197e+06 15587.2 0 -1.0188e+06 17134.9 0 -1.01781e+06 18679.2 0 -1.01673e+06 20219.5 0 -1.01556e+06 21755.5 0 -1.0143e+06 23286.7 0 -1.02679e+06 -0.00164386 0 -1.02675e+06 1709.74 0 -1.02662e+06 3419.26 0 -1.0264e+06 5128.35 0 -1.0261e+06 6836.78 0 -1.02571e+06 8544.32 0 -1.02524e+06 10250.7 0 -1.02468e+06 11955.8 0 -1.02403e+06 13659.1 0 -1.02329e+06 15360.6 0 -1.02247e+06 17059.8 0 -1.02156e+06 18756.5 0 -1.02056e+06 20450.4 0 -1.01947e+06 22141 0 -1.0183e+06 23828.2 0 -1.01703e+06 25511.4 0 -1.02983e+06 -0.00131264 0 -1.02979e+06 1856.97 0 -1.02966e+06 3713.76 0 -1.02944e+06 5570.2 0 -1.02914e+06 7426.12 0 -1.02875e+06 9281.34 0 -1.02827e+06 11135.6 0 -1.02771e+06 12988.9 0 -1.02706e+06 14840.8 0 -1.02632e+06 16691.2 0 -1.02549e+06 18539.8 0 -1.02458e+06 20386.5 0 -1.02357e+06 22230.9 0 -1.02248e+06 24072.8 0 -1.0213e+06 25912.1 0 -1.02003e+06 27748.3 0 -1.03312e+06 -0.000940474 0 -1.03308e+06 2004.69 0 -1.03295e+06 4009.26 0 -1.03273e+06 6013.58 0 -1.03243e+06 8017.52 0 -1.03203e+06 10021 0 -1.03156e+06 12023.7 0 -1.03099e+06 14025.7 0 -1.03034e+06 16026.8 0 -1.0296e+06 18026.8 0 -1.02877e+06 20025.5 0 -1.02785e+06 22022.8 0 -1.02684e+06 24018.6 0 -1.02575e+06 26012.6 0 -1.02456e+06 28004.6 0 -1.02329e+06 29994.6 0 -1.03666e+06 -0.000537559 0 -1.03662e+06 2152.77 0 -1.03649e+06 4305.48 0 -1.03627e+06 6458.04 0 -1.03597e+06 8610.38 0 -1.03557e+06 10762.4 0 -1.03509e+06 12914.1 0 -1.03453e+06 15065.3 0 -1.03387e+06 17216 0 -1.03313e+06 19366 0 -1.0323e+06 21515.3 0 -1.03138e+06 23663.8 0 -1.03037e+06 25811.4 0 -1.02927e+06 27957.9 0 -1.02808e+06 30103.2 0 -1.02681e+06 32247.3 0 </DataArray> 
</PointData> 
<Points> 
<DataArray type="Float32" NumberOfComponents="3"> 
0 0 0 0 0.0018 0 0 0.0036 0 0 0.0054 0 0 0.0072 0 0 0.009 0 0 0.0108 0 0 0.0126 0 0 0.0144 0 0 0.0162 0 0 0.018 0 0 0.0198 0 0 0.0216 0 0 0.0234 0 0 0.0252 0 0 0.027 0 0.00306667 0 0 0.00306667 0.0018 0 0.00306667 0.0036 0 0.00306667 0.0054 0 0.00306667 0.0072 0 0.00306667 0.009 0 0.00306667 0.0108 0 0.00306667 0.0126 0 0.00306667 0.0144 0 0.00306667 0.0162 0 0.00306667 0.018 0 0.00306667 0.0198 0 0.00306667 0.0216 0 0.00306667 0.0234 0 0.00306667 0.0252 0 0.00306667 0.027 0 0.00613333 0 0 0.00613333 0.0018 0 0.00613333 0.0036 0 0.00613333 0.0054 0 0.00613333 0.0072 0 0.00613333 0.009 0 0.00613333 0.0108 0 0.00613333 0.0126 0 0.00613333 0.0144 0 0.00613333 0.0162 0 0.00613333 0.018 0 0.00613333 0.0198 0 0.00613333 0.0216 0 0.00613333 0.0234 0 0.00613333 0.0252 0 0.00613333 0.027 0 0.0092 0 0 0.0092 0.0018 0 0.0092 0.0036 0 0.0092 0.0054 0 0.0092 0.0072 0 0.0092 0.009 0 0.0092 0.0108 0 0.0092 0.0126 0 0.0092 0.0144 0 0.0092 0.0162 0 0.0092 0.018 0 0.0092 0.0198 0 0.0092 0.0216 0 0.0092 0.0234 0 0.0092 0.0252 0 0.0092 0.027 0 0.0122667 0 0 0.0122667 0.0018 0 0.0122667 0.0036 0 0.0122667 0.0054 0 0.0122667 0.0072 0 0.0122667 0.009 0 0.0122667 0.0108 0 0.0122667 0.0126 0 0.0122667 0.0144 0 0.0122667 0.0162 0 0.0122667 0.018 0 0.0122667 0.0198 0 0.0122667 0.0216 0 0.0122667 0.0234 0 0.0122667 0.0252 0 0.0122667 0.027 0 0.0153333 0 0 0.0153333 0.0018 0 0.0153333 0.0036 0 0.0153333 0.0054 0 0.0153333 0.0072 0 0.0153333 0.009 0 0.0153333 0.0108 0 0.0153333 0.0126 0 0.0153333 0.0144 0 0.0153333 0.0162 0 0.0153333 0.018 0 0.0153333 0.0198 0 0.0153333 0.0216 0 0.0153333 0.0234 0 0.0153333 0.0252 0 0.0153333 0.027 0 0.0184 0 0 0.0184 0.0018 0 0.0184 0.0036 0 0.0184 0.0054 0 0.0184 0.0072 0 0.0184 0.009 0 0.0184 0.0108 0 0.0184 0.0126 0 0.0184 0.0144 0 0.0184 0.0162 0 0.0184 0.018 0 0.0184 0.0198 0 0.0184 0.0216 0 0.0184 0.0234 0 0.0184 0.0252 0 0.0184 0.027 0 0.0214667 0 0 0.0214667 0.0018 0 0.0214667 0.0036 0 0.0214667 0.0054 0 0.0214667 0.0072 0 0.0214667 0.009 0 0.0214667 0.0108 0 0.0214667 0.0126 0 0.0214667 0.0144 0 0.0214667 0.0162 0 0.0214667 0.018 0 0.0214667 0.0198 0 0.0214667 0.0216 0 0.0214667 0.0234 0 0.0214667 0.0252 0 0.0214667 0.027 0 0.0245333 0 0 0.0245333 0.0018 0 0.0245333 0.0036 0 0.0245333 0.0054 0 0.0245333 0.0072 0 0.0245333 0.009 0 0.0245333 0.0108 0 0.0245333 0.0126 0 0.0245333 0.0144 0 0.0245333 0.0162 0 0.0245333 0.018 0 0.0245333 0.0198 0 0.0245333 0.0216 0 0.0245333 0.0234 0 0.0245333 0.0252 0 0.0245333 0.027 0 0.0276 0 0 0.0276 0.0018 0 0.0276 0.0036 0 0.0276 0.0054 0 0.0276 0.0072 0 0.0276 0.009 0 0.0276 0.0108 0 0.0276 0.0126 0 0.0276 0.0144 0 0.0276 0.0162 0 0.0276 0.018 0 0.0276 0.0198 0 0.0276 0.0216 0 0.0276 0.0234 0 0.0276 0.0252 0 0.0276 0.027 0 0.0306667 0 0 0.0306667 0.0018 0 0.0306667 0.0036 0 0.0306667 0.0054 0 0.0306667 0.0072 0 0.0306667 0.009 0 0.0306667 0.0108 0 0.0306667 0.0126 0 0.0306667 0.0144 0 0.0306667 0.0162 0 0.0306667 0.018 0 0.0306667 0.0198 0 0.0306667 0.0216 0 0.0306667 0.0234 0 0.0306667 0.0252 0 0.0306667 0.027 0 0.0337333 0 0 0.0337333 0.0018 0 0.0337333 0.0036 0 0.0337333 0.0054 0 0.0337333 0.0072 0 0.0337333 0.009 0 0.0337333 0.0108 0 0.0337333 0.0126 0 0.0337333 0.0144 0 0.0337333 0.0162 0 0.0337333 0.018 0 0.0337333 0.0198 0 0.0337333 0.0216 0 0.0337333 0.0234 0 0.0337333 0.0252 0 0.0337333 0.027 0 0.0368 0 0 0.0368 0.0018 0 0.0368 0.0036 0 0.0368 0.0054 0 0.0368 0.0072 0 0.0368 0.009 0 0.0368 0.0108 0 0.0368 0.0126 0 0.0368 0.0144 0 0.0368 0.0162 0 0.0368 0.018 0 0.0368 0.0198 0 0.0368 0.0216 0 0.0368 0.0234 0 0.0368 0.0252 0 0.0368 0.027 0 0.0398667 0 0 0.0398667 0.0018 0 0.0398667 0.0036 0 0.0398667 0.0054 0 0.0398667 0.0072 0 0.0398667 0.009 0 0.0398667 0.0108 0 0.0398667 0.0126 0 0.0398667 0.0144 0 0.0398667 0.0162 0 0.0398667 0.018 0 0.0398667 0.0198 0 0.0398667 0.0216 0 0.0398667 0.0234 0 0.0398667 0.0252 0 0.0398667 0.027 0 0.0429333 0 0 0.0429333 0.0018 0 0.0429333 0.0036 0 0.0429333 0.0054 0 0.0429333 0.0072 0 0.0429333 0.009 0 0.0429333 0.0108 0 0.0429333 0.0126 0 0.0429333 0.0144 0 0.0429333 0.0162 0 0.0429333 0.018 0 0.0429333 0.0198 0 0.0429333 0.0216 0 0.0429333 0.0234 0 0.0429333 0.0252 0 0.0429333 0.027 0 0.046 0 0 0.046 0.0018 0 0.046 0.0036 0 0.046 0.0054 0 0.046 0.0072 0 0.046 0.009 0 0.046 0.0108 0 0.046 0.0126 0 0.046 0.0144 0 0.046 0.0162 0 0.046 0.018 0 0.046 0.0198 0 0.046 0.0216 0 0.046 0.0234 0 0.046 0.0252 0 0.046 0.027 0 
</DataArray>
</Points> 
</Piece> 
</StructuredGrid> 
</VTKFile> 
