<?xml version="1.0"?> 
<VTKFile type="StructuredGrid" version="0.1"> 
<StructuredGrid WholeExtent="0 15 0 15 0 0"> 
<Piece Extent="0 15 0 15 0 0"> 
<PointData>
<DataArray type="Float32" Name="E" format="ascii" NumberOfComponents="3"> 
2.86754e+06 5.24521e-06 0 2.86673e+06 -6.72881e-07 0 2.86429e+06 5.15953e-07 0 2.86017e+06 -6.14673e-07 0 2.85428e+06 7.45058e-07 0 2.8465e+06 -5.28991e-07 0 2.83666e+06 6.70552e-07 0 2.82456e+06 -3.27826e-07 0 2.80989e+06 4.47035e-07 0 2.7923e+06 -3.8743e-07 0 2.77135e+06 5.96046e-08 0 2.74645e+06 5.96046e-08 0 2.71688e+06 0 0 2.68176e+06 -5.96046e-08 0 2.63993e+06 -4.76837e-07 0 2.58998e+06 6.67572e-06 0 3.02784e+06 -0.459448 0 3.02772e+06 -15154.7 0 3.02737e+06 -30369.5 0 3.0268e+06 -45702.9 0 3.02602e+06 -61212.1 0 3.02507e+06 -76950.9 0 3.02398e+06 -92968.7 0 3.02279e+06 -109308 0 3.02157e+06 -126002 0 3.02039e+06 -143070 0 3.01933e+06 -160515 0 3.01852e+06 -178314 0 3.01808e+06 -196411 0 3.01818e+06 -214705 0 3.01902e+06 -233037 0 3.02084e+06 -251170 0 3.2677e+06 -0.104232 0 3.26785e+06 -14507.7 0 3.2683e+06 -29029.2 0 3.26907e+06 -43578.6 0 3.27014e+06 -58170.7 0 3.27153e+06 -72821.4 0 3.27325e+06 -87548.6 0 3.27529e+06 -102373 0 3.27768e+06 -117320 0 3.28042e+06 -132420 0 3.28352e+06 -147714 0 3.28699e+06 -163255 0 3.29085e+06 -179114 0 3.2951e+06 -195387 0 3.29976e+06 -212205 0 3.30484e+06 -229742 0 3.44789e+06 0.0276848 0 3.44809e+06 -10009.5 0 3.44868e+06 -20015.3 0 3.44968e+06 -30013.2 0 3.45107e+06 -39998.5 0 3.45286e+06 -49965.3 0 3.45506e+06 -59906.1 0 3.45767e+06 -69811 0 3.46069e+06 -79666.9 0 3.46413e+06 -89456.1 0 3.46798e+06 -99154.7 0 3.47226e+06 -108730 0 3.47697e+06 -118138 0 3.48209e+06 -127318 0 3.48763e+06 -136187 0 3.49357e+06 -144636 0 3.55158e+06 0.0699807 0 3.55176e+06 -5218.97 0 3.55227e+06 -10428.8 0 3.55314e+06 -15620.5 0 3.55434e+06 -20785.2 0 3.5559e+06 -25914.4 0 3.5578e+06 -31000.5 0 3.56004e+06 -36036.3 0 3.56263e+06 -41016.3 0 3.56557e+06 -45936.9 0 3.56886e+06 -50797.4 0 3.5725e+06 -55601 0 3.5765e+06 -60356.7 0 3.58086e+06 -65081.4 0 3.5856e+06 -69803 0 3.59075e+06 -74563 0 3.59422e+06 0.0763874 0 3.59434e+06 -1518.49 0 3.59472e+06 -3026.92 0 3.59535e+06 -4515.23 0 3.59624e+06 -5973.15 0 3.59738e+06 -7390.21 0 3.59876e+06 -8755.55 0 3.6004e+06 -10057.7 0 3.60229e+06 -11284.6 0 3.60443e+06 -12422.6 0 3.60682e+06 -13456.9 0 3.60945e+06 -14370.5 0 3.61232e+06 -15143.7 0 3.61542e+06 -15754.1 0 3.61874e+06 -16176.6 0 3.62226e+06 -16383.9 0 3.59653e+06 0.0748556 0 3.59661e+06 959.028 0 3.59683e+06 1927.87 0 3.59721e+06 2916.26 0 3.59773e+06 3933.88 0 3.5984e+06 4990.27 0 3.59922e+06 6094.78 0 3.60018e+06 7256.42 0 3.60129e+06 8483.74 0 3.60254e+06 9784.71 0 3.60393e+06 11166.7 0 3.60546e+06 12636.5 0 3.60713e+06 14201.6 0 3.60893e+06 15872 0 3.61089e+06 17665.9 0 3.61302e+06 19616.7 0 3.57695e+06 0.056564 0 3.57698e+06 2235.21 0 3.57707e+06 4477.86 0 3.57721e+06 6735.42 0 3.57741e+06 9015.45 0 3.57766e+06 11325.7 0 3.57796e+06 13674.1 0 3.57832e+06 16069.2 0 3.57873e+06 18519.7 0 3.57918e+06 21035.1 0 3.57969e+06 23625 0 3.58023e+06 26297.7 0 3.58082e+06 29057.5 0 3.58144e+06 31896.7 0 3.58207e+06 34781 0 3.58267e+06 37628.3 0 3.54939e+06 0.0465253 0 3.54939e+06 2594.32 0 3.54937e+06 5194.71 0 3.54934e+06 7807.11 0 3.5493e+06 10437.3 0 3.54924e+06 13090.8 0 3.54917e+06 15772.5 0 3.54908e+06 18486.5 0 3.54898e+06 21236.2 0 3.54885e+06 24024.1 0 3.54869e+06 26852.9 0 3.54851e+06 29728.8 0 3.54829e+06 32669 0 3.54804e+06 35719.8 0 3.54777e+06 38991.6 0 3.54755e+06 42708.4 0 3.52303e+06 -0.0105816 0 3.52301e+06 2276.93 0 3.52292e+06 4552.61 0 3.52279e+06 6826.05 0 3.52259e+06 9096.84 0 3.52233e+06 11365.5 0 3.522e+06 13634.2 0 3.5216e+06 15906.9 0 3.52112e+06 18190.2 0 3.52056e+06 20492.7 0 3.51992e+06 22823.4 0 3.51919e+06 25184.3 0 3.51836e+06 27553.5 0 3.51742e+06 29847.6 0 3.51633e+06 31843.8 0 3.51499e+06 33073.7 0 3.50138e+06 -0.0778402 0 3.50138e+06 2077.66 0 3.50139e+06 4144.9 0 3.50141e+06 6190.99 0 3.50143e+06 8204.33 0 3.50145e+06 10171.9 0 3.50145e+06 12078.2 0 3.50144e+06 13904.4 0 3.50141e+06 15627.5 0 3.50133e+06 17221.1 0 3.50119e+06 18659.4 0 3.50099e+06 19931.7 0 3.50069e+06 21077.3 0 3.50029e+06 22263.5 0 3.49982e+06 23945.5 0 3.49936e+06 27084.5 0 3.47796e+06 -0.398813 0 3.4781e+06 3059.85 0 3.47849e+06 6068.17 0 3.47915e+06 8975.57 0 3.48004e+06 11736.3 0 3.48115e+06 14310.8 0 3.48245e+06 16668.5 0 3.4839e+06 18791.1 0 3.48547e+06 20674.6 0 3.48711e+06 22329.8 0 3.48878e+06 23774 0 3.49043e+06 25004.4 0 3.492e+06 25930 0 3.49342e+06 26218.4 0 3.49463e+06 24981.8 0 3.49547e+06 20346.1 0 3.42521e+06 -1.19694 0 3.42583e+06 9642.17 0 3.42766e+06 19126.4 0 3.43069e+06 28294.7 0 3.43487e+06 36985.6 0 3.44016e+06 45032.9 0 3.44647e+06 52262.7 0 3.45374e+06 58489.8 0 3.46187e+06 63515.4 0 3.47075e+06 67130 0 3.48028e+06 69129.8 0 3.49034e+06 69370.1 0 3.50081e+06 67895 0 3.51155e+06 65227.1 0 3.52237e+06 62960.7 0 3.53297e+06 64574 0 3.25983e+06 -2.94579 0 3.26175e+06 30732 0 3.26751e+06 61077.4 0 3.27706e+06 90652.4 0 3.29036e+06 119074 0 3.30729e+06 145964 0 3.3277e+06 170958 0 3.35139e+06 193711 0 3.37805e+06 213914 0 3.40727e+06 231294 0 3.43854e+06 245604 0 3.47117e+06 256552 0 3.50441e+06 263606 0 3.53747e+06 265523 0 3.56979e+06 259367 0 3.60159e+06 239137 0 2.7866e+06 -0.66965 0 2.79026e+06 83176.2 0 2.80132e+06 166248 0 2.82005e+06 249075 0 2.84687e+06 331434 0 2.88244e+06 412977 0 2.9276e+06 493168 0 2.98342e+06 571211 0 3.05122e+06 645963 0 3.13252e+06 715833 0 3.22903e+06 778685 0 3.3424e+06 831773 0 3.47387e+06 871805 0 3.62328e+06 895284 0 3.78732e+06 899448 0 3.9561e+06 883926 0 1.83584e+06 13.0408 0 1.8359e+06 132737 0 1.83609e+06 267220 0 1.83647e+06 405280 0 1.83714e+06 548964 0 1.83833e+06 700660 0 1.84045e+06 863287 0 1.8443e+06 1.04057e+06 0 1.85138e+06 1.23747e+06 0 1.86455e+06 1.46086e+06 0 1.88921e+06 1.72075e+06 0 1.93566e+06 2.03235e+06 0 2.02351e+06 2.41985e+06 0 2.19039e+06 2.923e+06 0 2.50774e+06 3.60819e+06 0 3.109e+06 4.57399e+06 0 </DataArray> 
</PointData> 
<Points> 
<DataArray type="Float32" NumberOfComponents="3"> 
0.307 0 0 0.307 0.000333333 0 0.307 0.000666667 0 0.307 0.001 0 0.307 0.00133333 0 0.307 0.00166667 0 0.307 0.002 0 0.307 0.00233333 0 0.307 0.00266667 0 0.307 0.003 0 0.307 0.00333333 0 0.307 0.00366667 0 0.307 0.004 0 0.307 0.00433333 0 0.307 0.00466667 0 0.307 0.005 0 0.312716 0 0 0.312716 0.000357358 0 0.312716 0.000714716 0 0.312716 0.00107207 0 0.312716 0.00142943 0 0.312716 0.00178679 0 0.312716 0.00214415 0 0.312716 0.00250151 0 0.312716 0.00285886 0 0.312716 0.00321622 0 0.312716 0.00357358 0 0.312716 0.00393094 0 0.312716 0.0042883 0 0.312716 0.00464565 0 0.312716 0.00500301 0 0.312716 0.00536037 0 0.318432 0 0 0.318432 0.000381383 0 0.318432 0.000762766 0 0.318432 0.00114415 0 0.318432 0.00152553 0 0.318432 0.00190691 0 0.318432 0.0022883 0 0.318432 0.00266968 0 0.318432 0.00305106 0 0.318432 0.00343245 0 0.318432 0.00381383 0 0.318432 0.00419521 0 0.318432 0.00457659 0 0.318432 0.00495798 0 0.318432 0.00533936 0 0.318432 0.00572074 0 0.324148 0 0 0.324148 0.000405408 0 0.324148 0.000810815 0 0.324148 0.00121622 0 0.324148 0.00162163 0 0.324148 0.00202704 0 0.324148 0.00243245 0 0.324148 0.00283785 0 0.324148 0.00324326 0 0.324148 0.00364867 0 0.324148 0.00405408 0 0.324148 0.00445948 0 0.324148 0.00486489 0 0.324148 0.0052703 0 0.324148 0.00567571 0 0.324148 0.00608111 0 0.329863 0 0 0.329863 0.000429432 0 0.329863 0.000858865 0 0.329863 0.0012883 0 0.329863 0.00171773 0 0.329863 0.00214716 0 0.329863 0.00257659 0 0.329863 0.00300603 0 0.329863 0.00343546 0 0.329863 0.00386489 0 0.329863 0.00429432 0 0.329863 0.00472376 0 0.329863 0.00515319 0 0.329863 0.00558262 0 0.329863 0.00601205 0 0.329863 0.00644148 0 0.335579 0 0 0.335579 0.000453457 0 0.335579 0.000906914 0 0.335579 0.00136037 0 0.335579 0.00181383 0 0.335579 0.00226729 0 0.335579 0.00272074 0 0.335579 0.0031742 0 0.335579 0.00362766 0 0.335579 0.00408111 0 0.335579 0.00453457 0 0.335579 0.00498803 0 0.335579 0.00544148 0 0.335579 0.00589494 0 0.335579 0.0063484 0 0.335579 0.00680186 0 0.341295 0 0 0.341295 0.000477482 0 0.341295 0.000954964 0 0.341295 0.00143245 0 0.341295 0.00190993 0 0.341295 0.00238741 0 0.341295 0.00286489 0 0.341295 0.00334237 0 0.341295 0.00381985 0 0.341295 0.00429734 0 0.341295 0.00477482 0 0.341295 0.0052523 0 0.341295 0.00572978 0 0.341295 0.00620726 0 0.341295 0.00668474 0 0.341295 0.00716223 0 0.347011 0 0 0.347011 0.000501506 0 0.347011 0.00100301 0 0.347011 0.00150452 0 0.347011 0.00200603 0 0.347011 0.00250753 0 0.347011 0.00300904 0 0.347011 0.00351055 0 0.347011 0.00401205 0 0.347011 0.00451356 0 0.347011 0.00501506 0 0.347011 0.00551657 0 0.347011 0.00601808 0 0.347011 0.00651958 0 0.347011 0.00702109 0 0.347011 0.0075226 0 0.352727 0 0 0.352727 0.000525531 0 0.352727 0.00105106 0 0.352727 0.00157659 0 0.352727 0.00210212 0 0.352727 0.00262766 0 0.352727 0.00315319 0 0.352727 0.00367872 0 0.352727 0.00420425 0 0.352727 0.00472978 0 0.352727 0.00525531 0 0.352727 0.00578084 0 0.352727 0.00630637 0 0.352727 0.00683191 0 0.352727 0.00735744 0 0.352727 0.00788297 0 0.358443 0 0 0.358443 0.000549556 0 0.358443 0.00109911 0 0.358443 0.00164867 0 0.358443 0.00219822 0 0.358443 0.00274778 0 0.358443 0.00329734 0 0.358443 0.00384689 0 0.358443 0.00439645 0 0.358443 0.004946 0 0.358443 0.00549556 0 0.358443 0.00604512 0 0.358443 0.00659467 0 0.358443 0.00714423 0 0.358443 0.00769378 0 0.358443 0.00824334 0 0.364159 0 0 0.364159 0.000573581 0 0.364159 0.00114716 0 0.364159 0.00172074 0 0.364159 0.00229432 0 0.364159 0.0028679 0 0.364159 0.00344148 0 0.364159 0.00401506 0 0.364159 0.00458865 0 0.364159 0.00516223 0 0.364159 0.00573581 0 0.364159 0.00630939 0 0.364159 0.00688297 0 0.364159 0.00745655 0 0.364159 0.00803013 0 0.364159 0.00860371 0 0.369874 0 0 0.369874 0.000597605 0 0.369874 0.00119521 0 0.369874 0.00179282 0 0.369874 0.00239042 0 0.369874 0.00298803 0 0.369874 0.00358563 0 0.369874 0.00418324 0 0.369874 0.00478084 0 0.369874 0.00537845 0 0.369874 0.00597605 0 0.369874 0.00657366 0 0.369874 0.00717127 0 0.369874 0.00776887 0 0.369874 0.00836648 0 0.369874 0.00896408 0 0.37559 0 0 0.37559 0.00062163 0 0.37559 0.00124326 0 0.37559 0.00186489 0 0.37559 0.00248652 0 0.37559 0.00310815 0 0.37559 0.00372978 0 0.37559 0.00435141 0 0.37559 0.00497304 0 0.37559 0.00559467 0 0.37559 0.0062163 0 0.37559 0.00683793 0 0.37559 0.00745956 0 0.37559 0.00808119 0 0.37559 0.00870282 0 0.37559 0.00932445 0 0.381306 0 0 0.381306 0.000645655 0 0.381306 0.00129131 0 0.381306 0.00193696 0 0.381306 0.00258262 0 0.381306 0.00322827 0 0.381306 0.00387393 0 0.381306 0.00451958 0 0.381306 0.00516524 0 0.381306 0.00581089 0 0.381306 0.00645655 0 0.381306 0.0071022 0 0.381306 0.00774786 0 0.381306 0.00839351 0 0.381306 0.00903917 0 0.381306 0.00968482 0 0.387022 0 0 0.387022 0.00066968 0 0.387022 0.00133936 0 0.387022 0.00200904 0 0.387022 0.00267872 0 0.387022 0.0033484 0 0.387022 0.00401808 0 0.387022 0.00468776 0 0.387022 0.00535744 0 0.387022 0.00602712 0 0.387022 0.0066968 0 0.387022 0.00736648 0 0.387022 0.00803616 0 0.387022 0.00870584 0 0.387022 0.00937552 0 0.387022 0.0100452 0 0.392738 0 0 0.392738 0.000693704 0 0.392738 0.00138741 0 0.392738 0.00208111 0 0.392738 0.00277482 0 0.392738 0.00346852 0 0.392738 0.00416223 0 0.392738 0.00485593 0 0.392738 0.00554964 0 0.392738 0.00624334 0 0.392738 0.00693704 0 0.392738 0.00763075 0 0.392738 0.00832445 0 0.392738 0.00901816 0 0.392738 0.00971186 0 0.392738 0.0104056 0 
</DataArray>
</Points> 
</Piece> 
</StructuredGrid> 
</VTKFile> 
