<?xml version="1.0"?> 
<VTKFile type="StructuredGrid" version="0.1"> 
<StructuredGrid WholeExtent="0 15 0 15 0 0"> 
<Piece Extent="0 15 0 15 0 0"> 
<PointData>
<DataArray type="Float32" Name="E" format="ascii" NumberOfComponents="3"> 
-1.03666e+06 -0.000537559 0 -1.03662e+06 2152.77 0 -1.03649e+06 4305.48 0 -1.03627e+06 6458.04 0 -1.03597e+06 8610.38 0 -1.03557e+06 10762.4 0 -1.03509e+06 12914.1 0 -1.03453e+06 15065.3 0 -1.03387e+06 17216 0 -1.03313e+06 19366 0 -1.0323e+06 21515.3 0 -1.03138e+06 23663.8 0 -1.03037e+06 25811.4 0 -1.02927e+06 27957.9 0 -1.02808e+06 30103.2 0 -1.02681e+06 32247.3 0 -1.05397e+06 0.00135273 0 -1.05392e+06 2764.75 0 -1.05379e+06 5529.68 0 -1.05358e+06 8294.96 0 -1.05327e+06 11060.8 0 -1.05288e+06 13827.3 0 -1.0524e+06 16594.6 0 -1.05184e+06 19363 0 -1.05119e+06 22132.6 0 -1.05045e+06 24903.4 0 -1.04962e+06 27675.8 0 -1.0487e+06 30449.7 0 -1.04769e+06 33225.3 0 -1.0466e+06 36002.8 0 -1.04541e+06 38782.1 0 -1.04414e+06 41563.4 0 -1.07555e+06 0.00373099 0 -1.07551e+06 3367.73 0 -1.07538e+06 6735.95 0 -1.07517e+06 10105.1 0 -1.07488e+06 13475.8 0 -1.0745e+06 16848.4 0 -1.07403e+06 20223.3 0 -1.07348e+06 23601.1 0 -1.07284e+06 26982.2 0 -1.07212e+06 30367 0 -1.07131e+06 33755.8 0 -1.07042e+06 37149.1 0 -1.06944e+06 40547.3 0 -1.06836e+06 43950.6 0 -1.0672e+06 47359.3 0 -1.06596e+06 50773.8 0 -1.10131e+06 0.00705988 0 -1.10127e+06 3946.06 0 -1.10115e+06 7893.05 0 -1.10095e+06 11841.9 0 -1.10067e+06 15793.4 0 -1.10031e+06 19748.7 0 -1.09987e+06 23708.4 0 -1.09935e+06 27673.5 0 -1.09875e+06 31644.9 0 -1.09807e+06 35623.2 0 -1.0973e+06 39609.3 0 -1.09645e+06 43603.9 0 -1.09552e+06 47607.8 0 -1.0945e+06 51621.5 0 -1.0934e+06 55645.8 0 -1.09221e+06 59681.1 0 -1.13098e+06 0.012188 0 -1.13095e+06 4477.75 0 -1.13084e+06 8957.1 0 -1.13066e+06 13439.6 0 -1.13041e+06 17926.9 0 -1.13009e+06 22420.5 0 -1.1297e+06 26921.8 0 -1.12923e+06 31432.4 0 -1.12869e+06 35953.8 0 -1.12808e+06 40487.1 0 -1.12739e+06 45033.8 0 -1.12662e+06 49595.1 0 -1.12578e+06 54172 0 -1.12485e+06 58765.5 0 -1.12385e+06 63376.5 0 -1.12277e+06 68005.8 0 -1.16414e+06 0.0203714 0 -1.16411e+06 4928.91 0 -1.16402e+06 9860.49 0 -1.16388e+06 14797.4 0 -1.16369e+06 19742.2 0 -1.16343e+06 24697.6 0 -1.16312e+06 29666 0 -1.16274e+06 34650 0 -1.16231e+06 39651.9 0 -1.16181e+06 44674.1 0 -1.16125e+06 49719 0 -1.16063e+06 54788.6 0 -1.15994e+06 59885.2 0 -1.15918e+06 65010.8 0 -1.15834e+06 70167.6 0 -1.15744e+06 75357.6 0 -1.20003e+06 0.0335754 0 -1.20002e+06 5245.59 0 -1.19997e+06 10495.6 0 -1.19989e+06 15754.3 0 -1.19977e+06 21026.1 0 -1.19963e+06 26315.2 0 -1.19944e+06 31625.8 0 -1.19922e+06 36961.8 0 -1.19896e+06 42327.1 0 -1.19866e+06 47725.3 0 -1.19831e+06 53160 0 -1.19792e+06 58634.3 0 -1.19748e+06 64151.1 0 -1.19699e+06 69712.7 0 -1.19644e+06 75321.1 0 -1.19584e+06 80977.8 0 -1.23743e+06 0.0559811 0 -1.23744e+06 5340.03 0 -1.23745e+06 10687.4 0 -1.23747e+06 16049.4 0 -1.23749e+06 21433.2 0 -1.23752e+06 26845.8 0 -1.23756e+06 32294.4 0 -1.23759e+06 37785.7 0 -1.23761e+06 43326.3 0 -1.23763e+06 48922.6 0 -1.23764e+06 54580.8 0 -1.23762e+06 60306.9 0 -1.23759e+06 66106.7 0 -1.23752e+06 71986 0 -1.23741e+06 77950.6 0 -1.23726e+06 84006 0 -1.27429e+06 0.0921517 0 -1.27433e+06 5064.81 0 -1.27445e+06 10141.7 0 -1.27463e+06 15242.6 0 -1.27489e+06 20379.4 0 -1.27522e+06 25563.6 0 -1.27561e+06 30806.8 0 -1.27606e+06 36119.9 0 -1.27657e+06 41513.7 0 -1.27713e+06 46998.3 0 -1.27773e+06 52583.6 0 -1.27836e+06 58278.6 0 -1.27903e+06 64091.7 0 -1.27972e+06 70030.5 0 -1.28043e+06 76101 0 -1.28115e+06 82309.2 0 -1.30724e+06 0.153735 0 -1.30733e+06 4179.76 0 -1.30761e+06 8379.68 0 -1.30807e+06 12619.7 0 -1.30871e+06 16919.6 0 -1.30952e+06 21298.9 0 -1.31051e+06 25776.6 0 -1.31165e+06 30371.3 0 -1.31294e+06 35100.9 0 -1.31437e+06 39982.3 0 -1.31593e+06 45031.5 0 -1.3176e+06 50263.3 0 -1.31937e+06 55691.4 0 -1.32121e+06 61328.3 0 -1.32312e+06 67185.4 0 -1.32506e+06 73270.3 0 -1.33065e+06 0.245379 0 -1.33084e+06 2281.18 0 -1.33139e+06 4594.6 0 -1.33231e+06 6972.28 0 -1.33358e+06 9446.41 0 -1.33521e+06 12049.1 0 -1.33718e+06 14812.5 0 -1.33948e+06 17768.8 0 -1.34211e+06 20950.3 0 -1.34504e+06 24389.1 0 -1.34826e+06 28117.6 0 -1.35174e+06 32168.2 0 -1.35547e+06 36572.9 0 -1.35942e+06 41363 0 -1.36356e+06 46568 0 -1.36787e+06 52221.3 0 -1.33547e+06 0.335465 0 -1.33579e+06 -1206.98 0 -1.33674e+06 -2369.78 0 -1.33834e+06 -3444.26 0 -1.34056e+06 -4385.61 0 -1.34341e+06 -5148.47 0 -1.34689e+06 -5686.82 0 -1.35097e+06 -5954.1 0 -1.35566e+06 -5903.45 0 -1.36092e+06 -5488.19 0 -1.36676e+06 -4662.4 0 -1.37313e+06 -3381.55 0 -1.38001e+06 -1602.91 0 -1.38737e+06 714.559 0 -1.39517e+06 3610.92 0 -1.40337e+06 7112.96 0 -1.30847e+06 0.270115 0 -1.30894e+06 -6810.25 0 -1.31036e+06 -13584.2 0 -1.31273e+06 -20283.9 0 -1.31607e+06 -26867.3 0 -1.3204e+06 -33286.8 0 -1.32573e+06 -39486.7 0 -1.3321e+06 -45401.1 0 -1.33953e+06 -50952.2 0 -1.34805e+06 -56047.4 0 -1.35767e+06 -60578.2 0 -1.36841e+06 -64419.6 0 -1.38025e+06 -67430.7 0 -1.39318e+06 -69459.1 0 -1.40711e+06 -70348.3 0 -1.42195e+06 -69926.7 0 -1.23597e+06 -0.418565 0 -1.23643e+06 -13821.3 0 -1.23783e+06 -27697.2 0 -1.24019e+06 -41681.2 0 -1.24356e+06 -55825.1 0 -1.24801e+06 -70177.7 0 -1.25362e+06 -84782.5 0 -1.26051e+06 -99675.8 0 -1.26882e+06 -114883 0 -1.27873e+06 -130410 0 -1.29046e+06 -146241 0 -1.30428e+06 -162317 0 -1.3205e+06 -178525 0 -1.33953e+06 -194660 0 -1.36186e+06 -210392 0 -1.38806e+06 -225263 0 -1.12102e+06 -1.2554 0 -1.12108e+06 -18009.2 0 -1.12127e+06 -36184.7 0 -1.12161e+06 -54695.2 0 -1.12211e+06 -73717.1 0 -1.1228e+06 -93437.9 0 -1.12373e+06 -114061 0 -1.12494e+06 -135814 0 -1.12649e+06 -158954 0 -1.12845e+06 -183784 0 -1.1309e+06 -210666 0 -1.13394e+06 -240048 0 -1.13766e+06 -272500 0 -1.14218e+06 -308759 0 -1.14764e+06 -349805 0 -1.15427e+06 -396882 0 -1.0008e+06 -1.12628 0 -1.00026e+06 -14618.2 0 -998662 -29385.4 0 -995974 -44452.5 0 -992178 -59976.6 0 -987243 -76120.7 0 -981137 -93054 0 -973823 -110948 0 -965268 -129968 0 -955436 -150263 0 -944288 -171939 0 -931772 -195040 0 -917799 -219492 0 -902216 -245038 0 -884684 -271053 0 -864240 -295254 0 </DataArray> 
</PointData> 
<Points> 
<DataArray type="Float32" NumberOfComponents="3"> 
0.046 0 0 0.046 0.0018 0 0.046 0.0036 0 0.046 0.0054 0 0.046 0.0072 0 0.046 0.009 0 0.046 0.0108 0 0.046 0.0126 0 0.046 0.0144 0 0.046 0.0162 0 0.046 0.018 0 0.046 0.0198 0 0.046 0.0216 0 0.046 0.0234 0 0.046 0.0252 0 0.046 0.027 0 0.0586667 0 0 0.0586667 0.0018 0 0.0586667 0.0036 0 0.0586667 0.0054 0 0.0586667 0.0072 0 0.0586667 0.009 0 0.0586667 0.0108 0 0.0586667 0.0126 0 0.0586667 0.0144 0 0.0586667 0.0162 0 0.0586667 0.018 0 0.0586667 0.0198 0 0.0586667 0.0216 0 0.0586667 0.0234 0 0.0586667 0.0252 0 0.0586667 0.027 0 0.0713333 0 0 0.0713333 0.0018 0 0.0713333 0.0036 0 0.0713333 0.0054 0 0.0713333 0.0072 0 0.0713333 0.009 0 0.0713333 0.0108 0 0.0713333 0.0126 0 0.0713333 0.0144 0 0.0713333 0.0162 0 0.0713333 0.018 0 0.0713333 0.0198 0 0.0713333 0.0216 0 0.0713333 0.0234 0 0.0713333 0.0252 0 0.0713333 0.027 0 0.084 0 0 0.084 0.0018 0 0.084 0.0036 0 0.084 0.0054 0 0.084 0.0072 0 0.084 0.009 0 0.084 0.0108 0 0.084 0.0126 0 0.084 0.0144 0 0.084 0.0162 0 0.084 0.018 0 0.084 0.0198 0 0.084 0.0216 0 0.084 0.0234 0 0.084 0.0252 0 0.084 0.027 0 0.0966667 0 0 0.0966667 0.0018 0 0.0966667 0.0036 0 0.0966667 0.0054 0 0.0966667 0.0072 0 0.0966667 0.009 0 0.0966667 0.0108 0 0.0966667 0.0126 0 0.0966667 0.0144 0 0.0966667 0.0162 0 0.0966667 0.018 0 0.0966667 0.0198 0 0.0966667 0.0216 0 0.0966667 0.0234 0 0.0966667 0.0252 0 0.0966667 0.027 0 0.109333 0 0 0.109333 0.0018 0 0.109333 0.0036 0 0.109333 0.0054 0 0.109333 0.0072 0 0.109333 0.009 0 0.109333 0.0108 0 0.109333 0.0126 0 0.109333 0.0144 0 0.109333 0.0162 0 0.109333 0.018 0 0.109333 0.0198 0 0.109333 0.0216 0 0.109333 0.0234 0 0.109333 0.0252 0 0.109333 0.027 0 0.122 0 0 0.122 0.0018 0 0.122 0.0036 0 0.122 0.0054 0 0.122 0.0072 0 0.122 0.009 0 0.122 0.0108 0 0.122 0.0126 0 0.122 0.0144 0 0.122 0.0162 0 0.122 0.018 0 0.122 0.0198 0 0.122 0.0216 0 0.122 0.0234 0 0.122 0.0252 0 0.122 0.027 0 0.134667 0 0 0.134667 0.0018 0 0.134667 0.0036 0 0.134667 0.0054 0 0.134667 0.0072 0 0.134667 0.009 0 0.134667 0.0108 0 0.134667 0.0126 0 0.134667 0.0144 0 0.134667 0.0162 0 0.134667 0.018 0 0.134667 0.0198 0 0.134667 0.0216 0 0.134667 0.0234 0 0.134667 0.0252 0 0.134667 0.027 0 0.147333 0 0 0.147333 0.0018 0 0.147333 0.0036 0 0.147333 0.0054 0 0.147333 0.0072 0 0.147333 0.009 0 0.147333 0.0108 0 0.147333 0.0126 0 0.147333 0.0144 0 0.147333 0.0162 0 0.147333 0.018 0 0.147333 0.0198 0 0.147333 0.0216 0 0.147333 0.0234 0 0.147333 0.0252 0 0.147333 0.027 0 0.16 0 0 0.16 0.0018 0 0.16 0.0036 0 0.16 0.0054 0 0.16 0.0072 0 0.16 0.009 0 0.16 0.0108 0 0.16 0.0126 0 0.16 0.0144 0 0.16 0.0162 0 0.16 0.018 0 0.16 0.0198 0 0.16 0.0216 0 0.16 0.0234 0 0.16 0.0252 0 0.16 0.027 0 0.172667 0 0 0.172667 0.0018 0 0.172667 0.0036 0 0.172667 0.0054 0 0.172667 0.0072 0 0.172667 0.009 0 0.172667 0.0108 0 0.172667 0.0126 0 0.172667 0.0144 0 0.172667 0.0162 0 0.172667 0.018 0 0.172667 0.0198 0 0.172667 0.0216 0 0.172667 0.0234 0 0.172667 0.0252 0 0.172667 0.027 0 0.185333 0 0 0.185333 0.0018 0 0.185333 0.0036 0 0.185333 0.0054 0 0.185333 0.0072 0 0.185333 0.009 0 0.185333 0.0108 0 0.185333 0.0126 0 0.185333 0.0144 0 0.185333 0.0162 0 0.185333 0.018 0 0.185333 0.0198 0 0.185333 0.0216 0 0.185333 0.0234 0 0.185333 0.0252 0 0.185333 0.027 0 0.198 0 0 0.198 0.0018 0 0.198 0.0036 0 0.198 0.0054 0 0.198 0.0072 0 0.198 0.009 0 0.198 0.0108 0 0.198 0.0126 0 0.198 0.0144 0 0.198 0.0162 0 0.198 0.018 0 0.198 0.0198 0 0.198 0.0216 0 0.198 0.0234 0 0.198 0.0252 0 0.198 0.027 0 0.210667 0 0 0.210667 0.0018 0 0.210667 0.0036 0 0.210667 0.0054 0 0.210667 0.0072 0 0.210667 0.009 0 0.210667 0.0108 0 0.210667 0.0126 0 0.210667 0.0144 0 0.210667 0.0162 0 0.210667 0.018 0 0.210667 0.0198 0 0.210667 0.0216 0 0.210667 0.0234 0 0.210667 0.0252 0 0.210667 0.027 0 0.223333 0 0 0.223333 0.0018 0 0.223333 0.0036 0 0.223333 0.0054 0 0.223333 0.0072 0 0.223333 0.009 0 0.223333 0.0108 0 0.223333 0.0126 0 0.223333 0.0144 0 0.223333 0.0162 0 0.223333 0.018 0 0.223333 0.0198 0 0.223333 0.0216 0 0.223333 0.0234 0 0.223333 0.0252 0 0.223333 0.027 0 0.236 0 0 0.236 0.0018 0 0.236 0.0036 0 0.236 0.0054 0 0.236 0.0072 0 0.236 0.009 0 0.236 0.0108 0 0.236 0.0126 0 0.236 0.0144 0 0.236 0.0162 0 0.236 0.018 0 0.236 0.0198 0 0.236 0.0216 0 0.236 0.0234 0 0.236 0.0252 0 0.236 0.027 0 
</DataArray>
</Points> 
</Piece> 
</StructuredGrid> 
</VTKFile> 
