<?xml version="1.0"?> 
<VTKFile type="StructuredGrid" version="0.1"> 
<StructuredGrid WholeExtent="0 15 0 15 0 0"> 
<Piece Extent="0 15 0 15 0 0"> 
<PointData>
<DataArray type="Float32" Name="E" format="ascii" NumberOfComponents="3"> 
-1.39698e-08 -3.3832e+06 0 1.25839e+06 -1.69957e+06 0 1.35024e+06 -1.0041e+06 0 1.29285e+06 -583264 0 1.24714e+06 -285720 0 1.16455e+06 -58494.6 0 1.08038e+06 123043 0 981395 270195 0 876268 390719 0 763105 488747 0 644451 567641 0 520943 629508 0 393796 676074 0 263986 708505 0 132415 727644 0 0 733969 0 1.34423e-09 -3.07137e+06 0 1.18892e+06 -1.69128e+06 0 1.29979e+06 -1.00285e+06 0 1.26952e+06 -586812 0 1.22375e+06 -291323 0 1.14935e+06 -64834.2 0 1.06654e+06 115442 0 970834 262058 0 867314 381799 0 755980 479369 0 638735 557780 0 516549 619323 0 390597 665616 0 261892 697870 0 131386 716900 0 0 723188 0 9.09495e-10 -2.81764e+06 0 1.11957e+06 -1.67365e+06 0 1.25338e+06 -1.00055e+06 0 1.24441e+06 -589639 0 1.20153e+06 -296337 0 1.13372e+06 -70995 0 1.05303e+06 108148 0 960217 254044 0 858457 373057 0 748877 470100 0 633058 548041 0 512181 609234 0 387415 655253 0 259812 687322 0 130361 706240 0 0 712492 0 -1.5134e-09 -2.60839e+06 0 1.0521e+06 -1.6493e+06 0 1.20988e+06 -997037 0 1.2183e+06 -591731 0 1.18009e+06 -300834 0 1.11786e+06 -76922.4 0 1.03975e+06 101122 0 949591 246178 0 849682 364478 0 741804 460948 0 627418 538418 0 507838 599244 0 384250 644985 0 257745 676860 0 129342 695665 0 0 701880 0 2.2701e-09 -2.43355e+06 0 987539 -1.62018e+06 0 1.16854e+06 -992227 0 1.1917e+06 -593093 0 1.15922e+06 -304858 0 1.1019e+06 -82585 0 1.02664e+06 94337.3 0 938987 238474 0 840977 356053 0 734768 451917 0 621814 528908 0 503521 589352 0 381105 634809 0 255692 666486 0 128328 685174 0 0 691350 0 -2.41562e-09 -2.28569e+06 0 926472 -1.58773e+06 0 1.12892e+06 -986111 0 1.16496e+06 -593736 0 1.13874e+06 -308438 0 1.08593e+06 -87966.2 0 1.01367e+06 87779.6 0 928427 230939 0 832337 347775 0 727773 443009 0 616247 519509 0 499231 579560 0 377980 624725 0 253651 656197 0 127320 674766 0 0 680903 0 1.80444e-09 -2.15927e+06 0 869139 -1.55303e+06 0 1.09074e+06 -978723 0 1.13831e+06 -593682 0 1.11858e+06 -311593 0 1.07003e+06 -93058.8 0 1.00081e+06 81439.7 0 917924 223576 0 823759 339641 0 720822 434226 0 610717 510220 0 494970 569866 0 374875 614732 0 251624 645995 0 126319 664440 0 0 670537 0 -5.52973e-10 -2.05023e+06 0 815581 -1.51686e+06 0 1.05382e+06 -970128 0 1.11192e+06 -592954 0 1.09868e+06 -314338 0 1.05422e+06 -97861.3 0 988065 75312.3 0 907490 216387 0 815242 331649 0 713917 425566 0 605225 501039 0 490737 560271 0 371791 604830 0 249610 635877 0 125324 654197 0 0 660252 0 -1.16415e-10 -1.95559e+06 0 765717 -1.47977e+06 0 1.01807e+06 -960411 0 1.08591e+06 -591578 0 1.07901e+06 -316683 0 1.03854e+06 -102376 0 975418 69393.9 0 897130 209370 0 806786 323798 0 707062 417030 0 599772 491965 0 486534 550774 0 368729 595017 0 247611 625844 0 124337 644035 0 0 650048 0 8.73115e-10 -1.87324e+06 0 719402 -1.44215e+06 0 983429 -949670 0 1.06034e+06 -589584 0 1.05956e+06 -318638 0 1.02301e+06 -106607 0 962870 63682.7 0 886851 202524 0 798392 316086 0 700256 408615 0 594358 482998 0 482361 541373 0 365688 585293 0 245626 615896 0 123356 633955 0 0 639923 0 -5.23869e-10 -1.80177e+06 0 676471 -1.40424e+06 0 949833 -938012 0 1.03531e+06 -587002 0 1.04031e+06 -320211 0 1.00765e+06 -110562 0 950420 58177.3 0 876657 195846 0 790061 308512 0 693503 400322 0 588984 474138 0 478220 532069 0 362671 575658 0 243655 606031 0 122383 623954 0 0 629878 0 -1.16415e-10 -1.74033e+06 0 636778 -1.36616e+06 0 917224 -925549 0 1.01086e+06 -583863 0 1.02125e+06 -321409 0 992471 -114248 0 938065 52877.3 0 866554 189333 0 781794 301078 0 686803 392148 0 583652 465383 0 474110 522860 0 359676 566111 0 241699 596248 0 121417 614034 0 0 619912 0 0 -1.68867e+06 0 600221 -1.32791e+06 0 885511 -912398 0 987075 -580202 0 1.00236e+06 -322239 0 977499 -117675 0 925804 47783.4 0 856546 182982 0 773590 293781 0 680159 384091 0 578362 456733 0 470033 513746 0 356705 556651 0 239759 586548 0 120459 604192 0 0 610024 0 2.32831e-10 -1.64708e+06 0 566785 -1.28939e+06 0 854561 -898681 0 964049 -576052 0 983610 -322703 0 962760 -120857 0 913630 42897.7 0 846643 176787 0 765451 286624 0 673573 376150 0 573114 448187 0 465989 504724 0 353758 547278 0 237834 576929 0 119509 594430 0 0 600214 0 -4.65661e-10 -1.61649e+06 0 536572 -1.25037e+06 0 824172 -884527 0 941904 -571451 0 964951 -322802 0 948292 -123809 0 901531 38225 0 836853 170741 0 757374 279607 0 667047 368322 0 567910 439747 0 461979 495795 0 350836 537991 0 235924 567391 0 118567 584745 0 0 590481 0 -3.72529e-09 -1.59858e+06 0 509849 -1.21049e+06 0 794049 -870076 0 920815 -566440 0 946301 -322528 0 934146 -126555 0 889487 33773.7 0 827190 164835 0 749356 272734 0 660584 360602 0 562750 431412 0 458003 486956 0 347940 528790 0 234031 557932 0 117634 575137 0 0 580825 0 </DataArray> 
</PointData> 
<Points> 
<DataArray type="Float32" NumberOfComponents="3"> 
0.398 0.03 0 0.398 0.0365333 0 0.398 0.0430667 0 0.398 0.0496 0 0.398 0.0561333 0 0.398 0.0626667 0 0.398 0.0692 0 0.398 0.0757333 0 0.398 0.0822667 0 0.398 0.0888 0 0.398 0.0953333 0 0.398 0.101867 0 0.398 0.1084 0 0.398 0.114933 0 0.398 0.121467 0 0.398 0.128 0 0.398533 0.03 0 0.398533 0.0365333 0 0.398533 0.0430667 0 0.398533 0.0496 0 0.398533 0.0561333 0 0.398533 0.0626667 0 0.398533 0.0692 0 0.398533 0.0757333 0 0.398533 0.0822667 0 0.398533 0.0888 0 0.398533 0.0953333 0 0.398533 0.101867 0 0.398533 0.1084 0 0.398533 0.114933 0 0.398533 0.121467 0 0.398533 0.128 0 0.399067 0.03 0 0.399067 0.0365333 0 0.399067 0.0430667 0 0.399067 0.0496 0 0.399067 0.0561333 0 0.399067 0.0626667 0 0.399067 0.0692 0 0.399067 0.0757333 0 0.399067 0.0822667 0 0.399067 0.0888 0 0.399067 0.0953333 0 0.399067 0.101867 0 0.399067 0.1084 0 0.399067 0.114933 0 0.399067 0.121467 0 0.399067 0.128 0 0.3996 0.03 0 0.3996 0.0365333 0 0.3996 0.0430667 0 0.3996 0.0496 0 0.3996 0.0561333 0 0.3996 0.0626667 0 0.3996 0.0692 0 0.3996 0.0757333 0 0.3996 0.0822667 0 0.3996 0.0888 0 0.3996 0.0953333 0 0.3996 0.101867 0 0.3996 0.1084 0 0.3996 0.114933 0 0.3996 0.121467 0 0.3996 0.128 0 0.400133 0.03 0 0.400133 0.0365333 0 0.400133 0.0430667 0 0.400133 0.0496 0 0.400133 0.0561333 0 0.400133 0.0626667 0 0.400133 0.0692 0 0.400133 0.0757333 0 0.400133 0.0822667 0 0.400133 0.0888 0 0.400133 0.0953333 0 0.400133 0.101867 0 0.400133 0.1084 0 0.400133 0.114933 0 0.400133 0.121467 0 0.400133 0.128 0 0.400667 0.03 0 0.400667 0.0365333 0 0.400667 0.0430667 0 0.400667 0.0496 0 0.400667 0.0561333 0 0.400667 0.0626667 0 0.400667 0.0692 0 0.400667 0.0757333 0 0.400667 0.0822667 0 0.400667 0.0888 0 0.400667 0.0953333 0 0.400667 0.101867 0 0.400667 0.1084 0 0.400667 0.114933 0 0.400667 0.121467 0 0.400667 0.128 0 0.4012 0.03 0 0.4012 0.0365333 0 0.4012 0.0430667 0 0.4012 0.0496 0 0.4012 0.0561333 0 0.4012 0.0626667 0 0.4012 0.0692 0 0.4012 0.0757333 0 0.4012 0.0822667 0 0.4012 0.0888 0 0.4012 0.0953333 0 0.4012 0.101867 0 0.4012 0.1084 0 0.4012 0.114933 0 0.4012 0.121467 0 0.4012 0.128 0 0.401733 0.03 0 0.401733 0.0365333 0 0.401733 0.0430667 0 0.401733 0.0496 0 0.401733 0.0561333 0 0.401733 0.0626667 0 0.401733 0.0692 0 0.401733 0.0757333 0 0.401733 0.0822667 0 0.401733 0.0888 0 0.401733 0.0953333 0 0.401733 0.101867 0 0.401733 0.1084 0 0.401733 0.114933 0 0.401733 0.121467 0 0.401733 0.128 0 0.402267 0.03 0 0.402267 0.0365333 0 0.402267 0.0430667 0 0.402267 0.0496 0 0.402267 0.0561333 0 0.402267 0.0626667 0 0.402267 0.0692 0 0.402267 0.0757333 0 0.402267 0.0822667 0 0.402267 0.0888 0 0.402267 0.0953333 0 0.402267 0.101867 0 0.402267 0.1084 0 0.402267 0.114933 0 0.402267 0.121467 0 0.402267 0.128 0 0.4028 0.03 0 0.4028 0.0365333 0 0.4028 0.0430667 0 0.4028 0.0496 0 0.4028 0.0561333 0 0.4028 0.0626667 0 0.4028 0.0692 0 0.4028 0.0757333 0 0.4028 0.0822667 0 0.4028 0.0888 0 0.4028 0.0953333 0 0.4028 0.101867 0 0.4028 0.1084 0 0.4028 0.114933 0 0.4028 0.121467 0 0.4028 0.128 0 0.403333 0.03 0 0.403333 0.0365333 0 0.403333 0.0430667 0 0.403333 0.0496 0 0.403333 0.0561333 0 0.403333 0.0626667 0 0.403333 0.0692 0 0.403333 0.0757333 0 0.403333 0.0822667 0 0.403333 0.0888 0 0.403333 0.0953333 0 0.403333 0.101867 0 0.403333 0.1084 0 0.403333 0.114933 0 0.403333 0.121467 0 0.403333 0.128 0 0.403867 0.03 0 0.403867 0.0365333 0 0.403867 0.0430667 0 0.403867 0.0496 0 0.403867 0.0561333 0 0.403867 0.0626667 0 0.403867 0.0692 0 0.403867 0.0757333 0 0.403867 0.0822667 0 0.403867 0.0888 0 0.403867 0.0953333 0 0.403867 0.101867 0 0.403867 0.1084 0 0.403867 0.114933 0 0.403867 0.121467 0 0.403867 0.128 0 0.4044 0.03 0 0.4044 0.0365333 0 0.4044 0.0430667 0 0.4044 0.0496 0 0.4044 0.0561333 0 0.4044 0.0626667 0 0.4044 0.0692 0 0.4044 0.0757333 0 0.4044 0.0822667 0 0.4044 0.0888 0 0.4044 0.0953333 0 0.4044 0.101867 0 0.4044 0.1084 0 0.4044 0.114933 0 0.4044 0.121467 0 0.4044 0.128 0 0.404933 0.03 0 0.404933 0.0365333 0 0.404933 0.0430667 0 0.404933 0.0496 0 0.404933 0.0561333 0 0.404933 0.0626667 0 0.404933 0.0692 0 0.404933 0.0757333 0 0.404933 0.0822667 0 0.404933 0.0888 0 0.404933 0.0953333 0 0.404933 0.101867 0 0.404933 0.1084 0 0.404933 0.114933 0 0.404933 0.121467 0 0.404933 0.128 0 0.405467 0.03 0 0.405467 0.0365333 0 0.405467 0.0430667 0 0.405467 0.0496 0 0.405467 0.0561333 0 0.405467 0.0626667 0 0.405467 0.0692 0 0.405467 0.0757333 0 0.405467 0.0822667 0 0.405467 0.0888 0 0.405467 0.0953333 0 0.405467 0.101867 0 0.405467 0.1084 0 0.405467 0.114933 0 0.405467 0.121467 0 0.405467 0.128 0 0.406 0.03 0 0.406 0.0365333 0 0.406 0.0430667 0 0.406 0.0496 0 0.406 0.0561333 0 0.406 0.0626667 0 0.406 0.0692 0 0.406 0.0757333 0 0.406 0.0822667 0 0.406 0.0888 0 0.406 0.0953333 0 0.406 0.101867 0 0.406 0.1084 0 0.406 0.114933 0 0.406 0.121467 0 0.406 0.128 0 
</DataArray>
</Points> 
</Piece> 
</StructuredGrid> 
</VTKFile> 
