<?xml version="1.0"?> 
<VTKFile type="StructuredGrid" version="0.1"> 
<StructuredGrid WholeExtent="0 63 0 63 0 0"> 
<Piece Extent="0 63 0 63 0 0"> 
<PointData>
<DataArray type="Float32" Name="|E|" format="ascii" NumberOfComponents="3"> 
-934004 1.00802e+06 0 -936714 1.02506e+06 0 -939469 1.04214e+06 0 -942271 1.05927e+06 0 -945121 1.07645e+06 0 -948018 1.09368e+06 0 -950964 1.11096e+06 0 -953958 1.12829e+06 0 -957001 1.14567e+06 0 -960094 1.16311e+06 0 -963237 1.1806e+06 0 -966432 1.19815e+06 0 -969678 1.21575e+06 0 -972976 1.23341e+06 0 -976327 1.25112e+06 0 -979732 1.2689e+06 0 -983191 1.28673e+06 0 -986706 1.30463e+06 0 -990277 1.32259e+06 0 -993904 1.34061e+06 0 -997590 1.35869e+06 0 -1.00133e+06 1.37685e+06 0 -1.00514e+06 1.39507e+06 0 -1.009e+06 1.41336e+06 0 -1.01293e+06 1.43172e+06 0 -1.01692e+06 1.45015e+06 0 -1.02097e+06 1.46866e+06 0 -1.02509e+06 1.48724e+06 0 -1.02927e+06 1.5059e+06 0 -1.03352e+06 1.52464e+06 0 -1.03784e+06 1.54346e+06 0 -1.04223e+06 1.56237e+06 0 -1.04668e+06 1.58137e+06 0 -1.05121e+06 1.60045e+06 0 -1.05582e+06 1.61962e+06 0 -1.06049e+06 1.63889e+06 0 -1.06524e+06 1.65826e+06 0 -1.07007e+06 1.67773e+06 0 -1.07497e+06 1.69731e+06 0 -1.07995e+06 1.71699e+06 0 -1.08501e+06 1.73678e+06 0 -1.09015e+06 1.75669e+06 0 -1.09537e+06 1.77672e+06 0 -1.10067e+06 1.79688e+06 0 -1.10606e+06 1.81716e+06 0 -1.11153e+06 1.83757e+06 0 -1.11708e+06 1.85813e+06 0 -1.12271e+06 1.87883e+06 0 -1.12843e+06 1.89967e+06 0 -1.13423e+06 1.92068e+06 0 -1.14012e+06 1.94184e+06 0 -1.14609e+06 1.96318e+06 0 -1.15215e+06 1.98468e+06 0 -1.15828e+06 2.00638e+06 0 -1.1645e+06 2.02826e+06 0 -1.1708e+06 2.05033e+06 0 -1.17718e+06 2.07262e+06 0 -1.18363e+06 2.09511e+06 0 -1.19016e+06 2.11783e+06 0 -1.19676e+06 2.14079e+06 0 -1.20343e+06 2.16398e+06 0 -1.21016e+06 2.18743e+06 0 -1.21695e+06 2.21114e+06 0 -1.2238e+06 2.23512e+06 0 -921167 1.01877e+06 0 -923881 1.036e+06 0 -926642 1.05329e+06 0 -929450 1.07062e+06 0 -932305 1.088e+06 0 -935209 1.10543e+06 0 -938161 1.12292e+06 0 -941162 1.14046e+06 0 -944213 1.15805e+06 0 -947313 1.1757e+06 0 -950465 1.1934e+06 0 -953668 1.21116e+06 0 -956923 1.22898e+06 0 -960230 1.24686e+06 0 -963591 1.2648e+06 0 -967006 1.28279e+06 0 -970476 1.30085e+06 0 -974001 1.31898e+06 0 -977583 1.33717e+06 0 -981222 1.35542e+06 0 -984920 1.37374e+06 0 -988676 1.39214e+06 0 -992493 1.4106e+06 0 -996370 1.42913e+06 0 -1.00031e+06 1.44774e+06 0 -1.00431e+06 1.46642e+06 0 -1.00838e+06 1.48519e+06 0 -1.01251e+06 1.50403e+06 0 -1.01671e+06 1.52295e+06 0 -1.02097e+06 1.54195e+06 0 -1.0253e+06 1.56105e+06 0 -1.0297e+06 1.58023e+06 0 -1.03417e+06 1.5995e+06 0 -1.03872e+06 1.61886e+06 0 -1.04333e+06 1.63833e+06 0 -1.04802e+06 1.65789e+06 0 -1.05278e+06 1.67755e+06 0 -1.05762e+06 1.69732e+06 0 -1.06253e+06 1.7172e+06 0 -1.06752e+06 1.7372e+06 0 -1.07259e+06 1.75731e+06 0 -1.07773e+06 1.77754e+06 0 -1.08296e+06 1.7979e+06 0 -1.08826e+06 1.81839e+06 0 -1.09364e+06 1.83901e+06 0 -1.09911e+06 1.85978e+06 0 -1.10465e+06 1.88069e+06 0 -1.11028e+06 1.90175e+06 0 -1.11599e+06 1.92297e+06 0 -1.12177e+06 1.94435e+06 0 -1.12764e+06 1.96591e+06 0 -1.13359e+06 1.98764e+06 0 -1.13961e+06 2.00955e+06 0 -1.14571e+06 2.03165e+06 0 -1.15188e+06 2.05395e+06 0 -1.15813e+06 2.07646e+06 0 -1.16445e+06 2.09919e+06 0 -1.17084e+06 2.12213e+06 0 -1.17729e+06 2.14531e+06 0 -1.1838e+06 2.16873e+06 0 -1.19037e+06 2.19241e+06 0 -1.19699e+06 2.21635e+06 0 -1.20366e+06 2.24055e+06 0 -1.21037e+06 2.26505e+06 0 -908270 1.02954e+06 0 -910988 1.04697e+06 0 -913753 1.06445e+06 0 -916565 1.08198e+06 0 -919425 1.09957e+06 0 -922334 1.11721e+06 0 -925292 1.1349e+06 0 -928298 1.15265e+06 0 -931355 1.17045e+06 0 -934462 1.18831e+06 0 -937620 1.20623e+06 0 -940830 1.22421e+06 0 -944092 1.24224e+06 0 -947408 1.26034e+06 0 -950777 1.2785e+06 0 -954200 1.29673e+06 0 -957678 1.31501e+06 0 -961213 1.33337e+06 0 -964804 1.35179e+06 0 -968453 1.37028e+06 0 -972160 1.38884e+06 0 -975926 1.40747e+06 0 -979753 1.42618e+06 0 -983641 1.44496e+06 0 -987591 1.46382e+06 0 -991604 1.48276e+06 0 -995680 1.50177e+06 0 -999822 1.52087e+06 0 -1.00403e+06 1.54006e+06 0 -1.0083e+06 1.55933e+06 0 -1.01265e+06 1.5787e+06 0 -1.01706e+06 1.59816e+06 0 -1.02154e+06 1.61771e+06 0 -1.02609e+06 1.63736e+06 0 -1.03071e+06 1.65711e+06 0 -1.03541e+06 1.67696e+06 0 -1.04017e+06 1.69693e+06 0 -1.04502e+06 1.717e+06 0 -1.04993e+06 1.73719e+06 0 -1.05493e+06 1.7575e+06 0 -1.06e+06 1.77794e+06 0 -1.06514e+06 1.7985e+06 0 -1.07036e+06 1.81919e+06 0 -1.07566e+06 1.84002e+06 0 -1.08104e+06 1.86099e+06 0 -1.08649e+06 1.88211e+06 0 -1.09202e+06 1.90338e+06 0 -1.09763e+06 1.92481e+06 0 -1.10331e+06 1.9464e+06 0 -1.10907e+06 1.96816e+06 0 -1.11491e+06 1.99011e+06 0 -1.12082e+06 2.01223e+06 0 -1.1268e+06 2.03455e+06 0 -1.13285e+06 2.05707e+06 0 -1.13896e+06 2.0798e+06 0 -1.14514e+06 2.10274e+06 0 -1.15139e+06 2.1259e+06 0 -1.15769e+06 2.1493e+06 0 -1.16405e+06 2.17294e+06 0 -1.17046e+06 2.19683e+06 0 -1.17691e+06 2.22099e+06 0 -1.1834e+06 2.24541e+06 0 -1.18993e+06 2.27012e+06 0 -1.19648e+06 2.29512e+06 0 -895312 1.04032e+06 0 -898033 1.05795e+06 0 -900801 1.07563e+06 0 -903617 1.09337e+06 0 -906481 1.11116e+06 0 -909393 1.12901e+06 0 -912355 1.14691e+06 0 -915366 1.16486e+06 0 -918428 1.18288e+06 0 -921540 1.20095e+06 0 -924703 1.21909e+06 0 -927918 1.23728e+06 0 -931186 1.25554e+06 0 -934508 1.27386e+06 0 -937883 1.29224e+06 0 -941313 1.31069e+06 0 -944798 1.32921e+06 0 -948340 1.3478e+06 0 -951938 1.36645e+06 0 -955594 1.38518e+06 0 -959309 1.40398e+06 0 -963083 1.42286e+06 0 -966918 1.44181e+06 0 -970814 1.46084e+06 0 -974771 1.47995e+06 0 -978792 1.49914e+06 0 -982877 1.51842e+06 0 -987026 1.53778e+06 0 -991241 1.55724e+06 0 -995522 1.57678e+06 0 -999871 1.59642e+06 0 -1.00429e+06 1.61616e+06 0 -1.00877e+06 1.63599e+06 0 -1.01333e+06 1.65593e+06 0 -1.01796e+06 1.67597e+06 0 -1.02265e+06 1.69612e+06 0 -1.02742e+06 1.71639e+06 0 -1.03227e+06 1.73677e+06 0 -1.03718e+06 1.75728e+06 0 -1.04217e+06 1.7779e+06 0 -1.04724e+06 1.79866e+06 0 -1.05237e+06 1.81955e+06 0 -1.05758e+06 1.84058e+06 0 -1.06287e+06 1.86175e+06 0 -1.06823e+06 1.88307e+06 0 -1.07367e+06 1.90454e+06 0 -1.07917e+06 1.92618e+06 0 -1.08475e+06 1.94798e+06 0 -1.0904e+06 1.96995e+06 0 -1.09613e+06 1.9921e+06 0 -1.10192e+06 2.01443e+06 0 -1.10778e+06 2.03696e+06 0 -1.1137e+06 2.05969e+06 0 -1.11968e+06 2.08262e+06 0 -1.12573e+06 2.10577e+06 0 -1.13183e+06 2.12915e+06 0 -1.13798e+06 2.15275e+06 0 -1.14419e+06 2.1766e+06 0 -1.15043e+06 2.2007e+06 0 -1.15672e+06 2.22507e+06 0 -1.16303e+06 2.2497e+06 0 -1.16937e+06 2.27461e+06 0 -1.17573e+06 2.29981e+06 0 -1.1821e+06 2.32532e+06 0 -882295 1.05112e+06 0 -885017 1.06895e+06 0 -887787 1.08683e+06 0 -890605 1.10478e+06 0 -893471 1.12277e+06 0 -896386 1.14082e+06 0 -899351 1.15893e+06 0 -902365 1.1771e+06 0 -905429 1.19533e+06 0 -908545 1.21362e+06 0 -911712 1.23197e+06 0 -914931 1.25039e+06 0 -918203 1.26886e+06 0 -921529 1.28741e+06 0 -924909 1.30602e+06 0 -928343 1.3247e+06 0 -931834 1.34345e+06 0 -935380 1.36227e+06 0 -938984 1.38116e+06 0 -942645 1.40013e+06 0 -946366 1.41917e+06 0 -950145 1.43829e+06 0 -953985 1.45749e+06 0 -957886 1.47677e+06 0 -961849 1.49613e+06 0 -965875 1.51559e+06 0 -969964 1.53512e+06 0 -974118 1.55475e+06 0 -978336 1.57448e+06 0 -982621 1.59429e+06 0 -986973 1.61421e+06 0 -991392 1.63422e+06 0 -995879 1.65435e+06 0 -1.00044e+06 1.67457e+06 0 -1.00506e+06 1.69491e+06 0 -1.00976e+06 1.71536e+06 0 -1.01452e+06 1.73594e+06 0 -1.01936e+06 1.75663e+06 0 -1.02427e+06 1.77745e+06 0 -1.02925e+06 1.7984e+06 0 -1.0343e+06 1.81948e+06 0 -1.03942e+06 1.8407e+06 0 -1.04462e+06 1.86207e+06 0 -1.04988e+06 1.88358e+06 0 -1.05522e+06 1.90526e+06 0 -1.06062e+06 1.92709e+06 0 -1.0661e+06 1.94909e+06 0 -1.07164e+06 1.97126e+06 0 -1.07725e+06 1.99361e+06 0 -1.08292e+06 2.01614e+06 0 -1.08866e+06 2.03887e+06 0 -1.09446e+06 2.0618e+06 0 -1.10031e+06 2.08494e+06 0 -1.10622e+06 2.10829e+06 0 -1.11218e+06 2.13187e+06 0 -1.11818e+06 2.15568e+06 0 -1.12423e+06 2.17972e+06 0 -1.13031e+06 2.20402e+06 0 -1.13643e+06 2.22858e+06 0 -1.14257e+06 2.25341e+06 0 -1.14872e+06 2.27851e+06 0 -1.15489e+06 2.30391e+06 0 -1.16106e+06 2.3296e+06 0 -1.16722e+06 2.3556e+06 0 -869216 1.06193e+06 0 -871939 1.07996e+06 0 -874710 1.09805e+06 0 -877528 1.1162e+06 0 -880396 1.1344e+06 0 -883312 1.15266e+06 0 -886278 1.17098e+06 0 -889293 1.18936e+06 0 -892360 1.20781e+06 0 -895477 1.22631e+06 0 -898646 1.24488e+06 0 -901868 1.26352e+06 0 -905143 1.28222e+06 0 -908471 1.30099e+06 0 -911853 1.31983e+06 0 -915291 1.33873e+06 0 -918784 1.35772e+06 0 -922333 1.37677e+06 0 -925940 1.3959e+06 0 -929604 1.41511e+06 0 -933328 1.4344e+06 0 -937110 1.45376e+06 0 -940953 1.47321e+06 0 -944856 1.49275e+06 0 -948821 1.51237e+06 0 -952849 1.53208e+06 0 -956940 1.55188e+06 0 -961094 1.57178e+06 0 -965314 1.59177e+06 0 -969598 1.61186e+06 0 -973949 1.63206e+06 0 -978366 1.65236e+06 0 -982850 1.67277e+06 0 -987402 1.69329e+06 0 -992022 1.71393e+06 0 -996710 1.73468e+06 0 -1.00147e+06 1.75556e+06 0 -1.00629e+06 1.77656e+06 0 -1.01119e+06 1.7977e+06 0 -1.01615e+06 1.81897e+06 0 -1.02119e+06 1.84038e+06 0 -1.02629e+06 1.86194e+06 0 -1.03146e+06 1.88365e+06 0 -1.03669e+06 1.90551e+06 0 -1.042e+06 1.92754e+06 0 -1.04736e+06 1.94973e+06 0 -1.0528e+06 1.9721e+06 0 -1.05829e+06 1.99464e+06 0 -1.06385e+06 2.01737e+06 0 -1.06946e+06 2.0403e+06 0 -1.07513e+06 2.06342e+06 0 -1.08085e+06 2.08675e+06 0 -1.08662e+06 2.1103e+06 0 -1.09244e+06 2.13407e+06 0 -1.09829e+06 2.15807e+06 0 -1.10419e+06 2.18231e+06 0 -1.11011e+06 2.2068e+06 0 -1.11606e+06 2.23154e+06 0 -1.12202e+06 2.25655e+06 0 -1.128e+06 2.28184e+06 0 -1.13398e+06 2.30742e+06 0 -1.13995e+06 2.33329e+06 0 -1.14591e+06 2.35946e+06 0 -1.15184e+06 2.38595e+06 0 -856076 1.07276e+06 0 -858799 1.09099e+06 0 -861569 1.10929e+06 0 -864387 1.12764e+06 0 -867254 1.14605e+06 0 -870170 1.16452e+06 0 -873135 1.18305e+06 0 -876151 1.20165e+06 0 -879218 1.2203e+06 0 -882336 1.23903e+06 0 -885505 1.25782e+06 0 -888728 1.27667e+06 0 -892003 1.2956e+06 0 -895332 1.3146e+06 0 -898715 1.33366e+06 0 -902153 1.3528e+06 0 -905647 1.37202e+06 0 -909197 1.39131e+06 0 -912805 1.41068e+06 0 -916470 1.43013e+06 0 -920193 1.44966e+06 0 -923976 1.46928e+06 0 -927819 1.48898e+06 0 -931722 1.50877e+06 0 -935686 1.52865e+06 0 -939713 1.54862e+06 0 -943802 1.56869e+06 0 -947954 1.58886e+06 0 -952170 1.60913e+06 0 -956450 1.6295e+06 0 -960796 1.64997e+06 0 -965207 1.67056e+06 0 -969683 1.69126e+06 0 -974226 1.71207e+06 0 -978835 1.73301e+06 0 -983511 1.75407e+06 0 -988253 1.77526e+06 0 -993062 1.79658e+06 0 -997938 1.81803e+06 0 -1.00288e+06 1.83963e+06 0 -1.00789e+06 1.86137e+06 0 -1.01296e+06 1.88327e+06 0 -1.0181e+06 1.90532e+06 0 -1.02329e+06 1.92753e+06 0 -1.02856e+06 1.94991e+06 0 -1.03388e+06 1.97247e+06 0 -1.03926e+06 1.9952e+06 0 -1.04469e+06 2.01812e+06 0 -1.05018e+06 2.04123e+06 0 -1.05573e+06 2.06454e+06 0 -1.06132e+06 2.08806e+06 0 -1.06695e+06 2.11179e+06 0 -1.07262e+06 2.13575e+06 0 -1.07833e+06 2.15993e+06 0 -1.08407e+06 2.18436e+06 0 -1.08984e+06 2.20903e+06 0 -1.09562e+06 2.23395e+06 0 -1.10142e+06 2.25914e+06 0 -1.10721e+06 2.2846e+06 0 -1.11301e+06 2.31034e+06 0 -1.11879e+06 2.33638e+06 0 -1.12455e+06 2.36272e+06 0 -1.13027e+06 2.38936e+06 0 -1.13594e+06 2.41633e+06 0 -842875 1.0836e+06 0 -845595 1.10204e+06 0 -848363 1.12053e+06 0 -851180 1.13909e+06 0 -854045 1.15771e+06 0 -856959 1.17639e+06 0 -859923 1.19514e+06 0 -862938 1.21395e+06 0 -866003 1.23282e+06 0 -869120 1.25177e+06 0 -872288 1.27078e+06 0 -875509 1.28986e+06 0 -878783 1.30901e+06 0 -882111 1.32823e+06 0 -885493 1.34753e+06 0 -888930 1.3669e+06 0 -892422 1.38636e+06 0 -895971 1.40589e+06 0 -899577 1.4255e+06 0 -903240 1.44519e+06 0 -906962 1.46497e+06 0 -910742 1.48484e+06 0 -914582 1.50479e+06 0 -918482 1.52484e+06 0 -922442 1.54498e+06 0 -926464 1.56522e+06 0 -930548 1.58555e+06 0 -934694 1.60599e+06 0 -938903 1.62653e+06 0 -943175 1.64718e+06 0 -947511 1.66794e+06 0 -951912 1.68882e+06 0 -956376 1.70981e+06 0 -960905 1.73092e+06 0 -965498 1.75216e+06 0 -970155 1.77353e+06 0 -974877 1.79502e+06 0 -979663 1.81666e+06 0 -984512 1.83844e+06 0 -989425 1.86036e+06 0 -994399 1.88244e+06 0 -999434 1.90467e+06 0 -1.00453e+06 1.92707e+06 0 -1.00968e+06 1.94963e+06 0 -1.01489e+06 1.97237e+06 0 -1.02016e+06 1.99528e+06 0 -1.02548e+06 2.01839e+06 0 -1.03085e+06 2.04168e+06 0 -1.03626e+06 2.06517e+06 0 -1.04172e+06 2.08887e+06 0 -1.04722e+06 2.11278e+06 0 -1.05275e+06 2.13692e+06 0 -1.05831e+06 2.16128e+06 0 -1.0639e+06 2.18588e+06 0 -1.06951e+06 2.21072e+06 0 -1.07513e+06 2.23581e+06 0 -1.08076e+06 2.26117e+06 0 -1.08638e+06 2.2868e+06 0 -1.09199e+06 2.3127e+06 0 -1.09759e+06 2.33889e+06 0 -1.10315e+06 2.36538e+06 0 -1.10867e+06 2.39217e+06 0 -1.11413e+06 2.41928e+06 0 -1.11953e+06 2.44671e+06 0 -829612 1.09445e+06 0 -832329 1.11309e+06 0 -835094 1.1318e+06 0 -837907 1.15056e+06 0 -840769 1.16939e+06 0 -843680 1.18829e+06 0 -846641 1.20725e+06 0 -849652 1.22627e+06 0 -852715 1.24536e+06 0 -855828 1.26453e+06 0 -858994 1.28376e+06 0 -862212 1.30306e+06 0 -865483 1.32244e+06 0 -868807 1.3419e+06 0 -872186 1.36143e+06 0 -875620 1.38103e+06 0 -879109 1.40072e+06 0 -882654 1.42049e+06 0 -886255 1.44035e+06 0 -889914 1.46029e+06 0 -893631 1.48032e+06 0 -897406 1.50044e+06 0 -901240 1.52065e+06 0 -905133 1.54095e+06 0 -909087 1.56136e+06 0 -913101 1.58186e+06 0 -917176 1.60246e+06 0 -921312 1.62317e+06 0 -925511 1.64399e+06 0 -929771 1.66492e+06 0 -934093 1.68597e+06 0 -938478 1.70713e+06 0 -942925 1.72842e+06 0 -947435 1.74983e+06 0 -952006 1.77137e+06 0 -956640 1.79305e+06 0 -961336 1.81486e+06 0 -966092 1.83681e+06 0 -970909 1.85891e+06 0 -975785 1.88117e+06 0 -980719 1.90358e+06 0 -985710 1.92615e+06 0 -990756 1.94889e+06 0 -995856 1.9718e+06 0 -1.00101e+06 1.9949e+06 0 -1.00621e+06 2.01818e+06 0 -1.01145e+06 2.04164e+06 0 -1.01674e+06 2.06531e+06 0 -1.02207e+06 2.08919e+06 0 -1.02743e+06 2.11327e+06 0 -1.03282e+06 2.13758e+06 0 -1.03824e+06 2.16211e+06 0 -1.04368e+06 2.18687e+06 0 -1.04914e+06 2.21188e+06 0 -1.0546e+06 2.23714e+06 0 -1.06006e+06 2.26265e+06 0 -1.06551e+06 2.28843e+06 0 -1.07095e+06 2.31449e+06 0 -1.07636e+06 2.34083e+06 0 -1.08173e+06 2.36746e+06 0 -1.08705e+06 2.39439e+06 0 -1.09232e+06 2.42163e+06 0 -1.09751e+06 2.44918e+06 0 -1.10261e+06 2.47706e+06 0 -816286 1.10531e+06 0 -818999 1.12416e+06 0 -821759 1.14307e+06 0 -824567 1.16205e+06 0 -827425 1.18109e+06 0 -830331 1.2002e+06 0 -833288 1.21937e+06 0 -836294 1.23861e+06 0 -839352 1.25792e+06 0 -842461 1.27731e+06 0 -845621 1.29676e+06 0 -848834 1.31629e+06 0 -852100 1.3359e+06 0 -855420 1.35559e+06 0 -858793 1.37535e+06 0 -862221 1.39519e+06 0 -865704 1.41512e+06 0 -869243 1.43513e+06 0 -872838 1.45523e+06 0 -876490 1.47542e+06 0 -880199 1.4957e+06 0 -883966 1.51607e+06 0 -887791 1.53654e+06 0 -891675 1.5571e+06 0 -895619 1.57777e+06 0 -899621 1.59854e+06 0 -903684 1.61942e+06 0 -907807 1.6404e+06 0 -911990 1.6615e+06 0 -916234 1.68272e+06 0 -920538 1.70405e+06 0 -924903 1.7255e+06 0 -929328 1.74709e+06 0 -933813 1.7688e+06 0 -938359 1.79064e+06 0 -942963 1.81263e+06 0 -947626 1.83475e+06 0 -952346 1.85703e+06 0 -957124 1.87945e+06 0 -961956 1.90204e+06 0 -966843 1.92478e+06 0 -971781 1.94769e+06 0 -976770 1.97078e+06 0 -981807 1.99404e+06 0 -986889 2.01749e+06 0 -992013 2.04113e+06 0 -997177 2.06497e+06 0 -1.00237e+06 2.08901e+06 0 -1.0076e+06 2.11326e+06 0 -1.01286e+06 2.13773e+06 0 -1.01814e+06 2.16242e+06 0 -1.02343e+06 2.18735e+06 0 -1.02873e+06 2.21251e+06 0 -1.03404e+06 2.23793e+06 0 -1.03933e+06 2.26359e+06 0 -1.04462e+06 2.28952e+06 0 -1.04988e+06 2.31572e+06 0 -1.05511e+06 2.3422e+06 0 -1.0603e+06 2.36896e+06 0 -1.06544e+06 2.39602e+06 0 -1.0705e+06 2.42338e+06 0 -1.07549e+06 2.45105e+06 0 -1.08038e+06 2.47904e+06 0 -1.08516e+06 2.50735e+06 0 -802898 1.11619e+06 0 -805604 1.13524e+06 0 -808358 1.15436e+06 0 -811161 1.17355e+06 0 -814012 1.1928e+06 0 -816913 1.21212e+06 0 -819863 1.23151e+06 0 -822863 1.25097e+06 0 -825914 1.2705e+06 0 -829017 1.29011e+06 0 -832171 1.30979e+06 0 -835377 1.32955e+06 0 -838636 1.34938e+06 0 -841948 1.3693e+06 0 -845313 1.3893e+06 0 -848734 1.40938e+06 0 -852208 1.42955e+06 0 -855739 1.4498e+06 0 -859325 1.47015e+06 0 -862967 1.49058e+06 0 -866666 1.51111e+06 0 -870421 1.53174e+06 0 -874235 1.55247e+06 0 -878106 1.5733e+06 0 -882036 1.59423e+06 0 -886024 1.61527e+06 0 -890070 1.63642e+06 0 -894176 1.65768e+06 0 -898340 1.67906e+06 0 -902563 1.70056e+06 0 -906844 1.72218e+06 0 -911184 1.74392e+06 0 -915583 1.7658e+06 0 -920038 1.78782e+06 0 -924551 1.80997e+06 0 -929120 1.83226e+06 0 -933744 1.8547e+06 0 -938423 1.8773e+06 0 -943154 1.90005e+06 0 -947936 1.92296e+06 0 -952767 1.94604e+06 0 -957645 1.96929e+06 0 -962569 1.99272e+06 0 -967534 2.01634e+06 0 -972537 2.04014e+06 0 -977576 2.06414e+06 0 -982647 2.08835e+06 0 -987745 2.11276e+06 0 -992865 2.13739e+06 0 -998002 2.16224e+06 0 -1.00315e+06 2.18731e+06 0 -1.0083e+06 2.21263e+06 0 -1.01345e+06 2.23819e+06 0 -1.01859e+06 2.264e+06 0 -1.02372e+06 2.29007e+06 0 -1.02881e+06 2.3164e+06 0 -1.03387e+06 2.34301e+06 0 -1.03888e+06 2.3699e+06 0 -1.04383e+06 2.39708e+06 0 -1.04871e+06 2.42455e+06 0 -1.0535e+06 2.45233e+06 0 -1.05819e+06 2.48042e+06 0 -1.06276e+06 2.50882e+06 0 -1.06721e+06 2.53754e+06 0 -789447 1.12707e+06 0 -792146 1.14633e+06 0 -794892 1.16566e+06 0 -797687 1.18506e+06 0 -800531 1.20452e+06 0 -803423 1.22406e+06 0 -806366 1.24367e+06 0 -809358 1.26334e+06 0 -812401 1.2831e+06 0 -815495 1.30293e+06 0 -818640 1.32283e+06 0 -821837 1.34282e+06 0 -825087 1.36289e+06 0 -828390 1.38304e+06 0 -831746 1.40327e+06 0 -835156 1.42359e+06 0 -838620 1.444e+06 0 -842139 1.4645e+06 0 -845713 1.48509e+06 0 -849343 1.50578e+06 0 -853028 1.52656e+06 0 -856770 1.54745e+06 0 -860569 1.56843e+06 0 -864424 1.58952e+06 0 -868336 1.61072e+06 0 -872306 1.63203e+06 0 -876332 1.65346e+06 0 -880416 1.675e+06 0 -884557 1.69666e+06 0 -888755 1.71844e+06 0 -893009 1.74035e+06 0 -897320 1.76239e+06 0 -901686 1.78457e+06 0 -906107 1.80688e+06 0 -910582 1.82934e+06 0 -915109 1.85195e+06 0 -919689 1.87471e+06 0 -924318 1.89762e+06 0 -928996 1.9207e+06 0 -933721 1.94394e+06 0 -938489 1.96735e+06 0 -943299 1.99095e+06 0 -948148 2.01472e+06 0 -953033 2.03868e+06 0 -957949 2.06284e+06 0 -962893 2.0872e+06 0 -967861 2.11177e+06 0 -972847 2.13655e+06 0 -977846 2.16155e+06 0 -982853 2.18677e+06 0 -987860 2.21223e+06 0 -992861 2.23793e+06 0 -997847 2.26388e+06 0 -1.00281e+06 2.29008e+06 0 -1.00774e+06 2.31655e+06 0 -1.01263e+06 2.34328e+06 0 -1.01747e+06 2.37029e+06 0 -1.02224e+06 2.39758e+06 0 -1.02693e+06 2.42516e+06 0 -1.03154e+06 2.45303e+06 0 -1.03604e+06 2.48121e+06 0 -1.04042e+06 2.50969e+06 0 -1.04466e+06 2.53849e+06 0 -1.04874e+06 2.5676e+06 0 -775933 1.13796e+06 0 -778623 1.15744e+06 0 -781360 1.17697e+06 0 -784146 1.19658e+06 0 -786980 1.21626e+06 0 -789863 1.23601e+06 0 -792796 1.25584e+06 0 -795778 1.27573e+06 0 -798811 1.29571e+06 0 -801895 1.31576e+06 0 -805030 1.3359e+06 0 -808216 1.35611e+06 0 -811454 1.37641e+06 0 -814745 1.3968e+06 0 -818089 1.41727e+06 0 -821487 1.43783e+06 0 -824938 1.45848e+06 0 -828443 1.47922e+06 0 -832003 1.50006e+06 0 -835617 1.521e+06 0 -839287 1.54204e+06 0 -843011 1.56318e+06 0 -846792 1.58443e+06 0 -850628 1.60579e+06 0 -854519 1.62725e+06 0 -858466 1.64883e+06 0 -862469 1.67053e+06 0 -866528 1.69235e+06 0 -870641 1.71429e+06 0 -874809 1.73636e+06 0 -879032 1.75857e+06 0 -883308 1.7809e+06 0 -887637 1.80338e+06 0 -892017 1.826e+06 0 -896448 1.84876e+06 0 -900929 1.87168e+06 0 -905457 1.89475e+06 0 -910031 1.91799e+06 0 -914649 1.94139e+06 0 -919308 1.96496e+06 0 -924006 1.98871e+06 0 -928740 2.01264e+06 0 -933506 2.03676e+06 0 -938301 2.06107e+06 0 -943121 2.08558e+06 0 -947961 2.1103e+06 0 -952816 2.13522e+06 0 -957680 2.16037e+06 0 -962548 2.18573e+06 0 -967412 2.21133e+06 0 -972266 2.23717e+06 0 -977102 2.26325e+06 0 -981911 2.28958e+06 0 -986684 2.31616e+06 0 -991410 2.34301e+06 0 -996080 2.37013e+06 0 -1.00068e+06 2.39753e+06 0 -1.0052e+06 2.4252e+06 0 -1.00962e+06 2.45317e+06 0 -1.01394e+06 2.48143e+06 0 -1.01813e+06 2.50999e+06 0 -1.02218e+06 2.53885e+06 0 -1.02607e+06 2.56802e+06 0 -1.02978e+06 2.5975e+06 0 -762355 1.14887e+06 0 -765034 1.16855e+06 0 -767761 1.1883e+06 0 -770536 1.20812e+06 0 -773359 1.22801e+06 0 -776231 1.24798e+06 0 -779153 1.26802e+06 0 -782124 1.28814e+06 0 -785144 1.30834e+06 0 -788216 1.32862e+06 0 -791338 1.34898e+06 0 -794512 1.36942e+06 0 -797737 1.38996e+06 0 -801014 1.41058e+06 0 -804343 1.43128e+06 0 -807726 1.45209e+06 0 -811161 1.47298e+06 0 -814650 1.49397e+06 0 -818192 1.51506e+06 0 -821788 1.53625e+06 0 -825439 1.55755e+06 0 -829143 1.57895e+06 0 -832902 1.60046e+06 0 -836715 1.62208e+06 0 -840583 1.64381e+06 0 -844504 1.66567e+06 0 -848479 1.68764e+06 0 -852508 1.70974e+06 0 -856589 1.73197e+06 0 -860724 1.75433e+06 0 -864909 1.77682e+06 0 -869146 1.79945e+06 0 -873432 1.82223e+06 0 -877767 1.84515e+06 0 -882149 1.86822e+06 0 -886576 1.89145e+06 0 -891047 1.91484e+06 0 -895559 1.9384e+06 0 -900109 1.96212e+06 0 -904696 1.98602e+06 0 -909316 2.0101e+06 0 -913966 2.03437e+06 0 -918642 2.05883e+06 0 -923339 2.08349e+06 0 -928052 2.10835e+06 0 -932778 2.13341e+06 0 -937510 2.1587e+06 0 -942242 2.1842e+06 0 -946968 2.20993e+06 0 -951679 2.2359e+06 0 -956368 2.2621e+06 0 -961027 2.28855e+06 0 -965646 2.31525e+06 0 -970215 2.34221e+06 0 -974724 2.36944e+06 0 -979159 2.39693e+06 0 -983510 2.4247e+06 0 -987762 2.45275e+06 0 -991901 2.48109e+06 0 -995912 2.50972e+06 0 -999779 2.53864e+06 0 -1.00348e+06 2.56786e+06 0 -1.00701e+06 2.59738e+06 0 -1.01033e+06 2.62721e+06 0 -748713 1.15978e+06 0 -751380 1.17967e+06 0 -754095 1.19963e+06 0 -756858 1.21966e+06 0 -759668 1.23977e+06 0 -762528 1.25995e+06 0 -765436 1.28021e+06 0 -768393 1.30056e+06 0 -771400 1.32098e+06 0 -774457 1.34148e+06 0 -777565 1.36208e+06 0 -780723 1.38275e+06 0 -783933 1.40352e+06 0 -787194 1.42437e+06 0 -790507 1.44532e+06 0 -793871 1.46636e+06 0 -797288 1.4875e+06 0 -800758 1.50874e+06 0 -804280 1.53008e+06 0 -807856 1.55153e+06 0 -811484 1.57308e+06 0 -815165 1.59474e+06 0 -818899 1.61651e+06 0 -822686 1.6384e+06 0 -826525 1.66041e+06 0 -830417 1.68253e+06 0 -834360 1.70479e+06 0 -838355 1.72717e+06 0 -842401 1.74968e+06 0 -846496 1.77232e+06 0 -850640 1.79511e+06 0 -854833 1.81804e+06 0 -859071 1.84111e+06 0 -863355 1.86434e+06 0 -867681 1.88772e+06 0 -872049 1.91126e+06 0 -876456 1.93496e+06 0 -880900 1.95884e+06 0 -885377 1.98289e+06 0 -889884 2.00711e+06 0 -894418 2.03153e+06 0 -898976 2.05613e+06 0 -903552 2.08093e+06 0 -908142 2.10593e+06 0 -912742 2.13113e+06 0 -917344 2.15655e+06 0 -921943 2.18218e+06 0 -926533 2.20804e+06 0 -931105 2.23413e+06 0 -935653 2.26046e+06 0 -940166 2.28702e+06 0 -944637 2.31383e+06 0 -949054 2.3409e+06 0 -953407 2.36822e+06 0 -957684 2.39581e+06 0 -961874 2.42367e+06 0 -965961 2.4518e+06 0 -969933 2.48021e+06 0 -973774 2.5089e+06 0 -977467 2.53787e+06 0 -980996 2.56714e+06 0 -984342 2.5967e+06 0 -987487 2.62655e+06 0 -990408 2.65669e+06 0 -735007 1.17069e+06 0 -737661 1.19079e+06 0 -740362 1.21096e+06 0 -743110 1.23121e+06 0 -745907 1.25154e+06 0 -748751 1.27194e+06 0 -751645 1.29242e+06 0 -754587 1.31299e+06 0 -757578 1.33363e+06 0 -760619 1.35437e+06 0 -763710 1.37519e+06 0 -766851 1.3961e+06 0 -770043 1.4171e+06 0 -773285 1.43819e+06 0 -776578 1.45938e+06 0 -779923 1.48066e+06 0 -783319 1.50205e+06 0 -786767 1.52354e+06 0 -790267 1.54513e+06 0 -793818 1.56683e+06 0 -797421 1.58864e+06 0 -801075 1.61056e+06 0 -804781 1.6326e+06 0 -808538 1.65475e+06 0 -812346 1.67703e+06 0 -816204 1.69943e+06 0 -820112 1.72196e+06 0 -824069 1.74462e+06 0 -828074 1.76741e+06 0 -832126 1.79035e+06 0 -836224 1.81343e+06 0 -840367 1.83665e+06 0 -844552 1.86002e+06 0 -848779 1.88355e+06 0 -853045 1.90724e+06 0 -857347 1.93109e+06 0 -861684 1.95511e+06 0 -866052 1.9793e+06 0 -870449 2.00368e+06 0 -874869 2.02823e+06 0 -879311 2.05297e+06 0 -883768 2.07791e+06 0 -888237 2.10304e+06 0 -892713 2.12838e+06 0 -897188 2.15392e+06 0 -901658 2.17969e+06 0 -906115 2.20567e+06 0 -910553 2.23188e+06 0 -914962 2.25831e+06 0 -919335 2.28499e+06 0 -923662 2.31191e+06 0 -927933 2.33908e+06 0 -932137 2.36649e+06 0 -936262 2.39417e+06 0 -940297 2.42211e+06 0 -944228 2.45031e+06 0 -948040 2.47879e+06 0 -951719 2.50754e+06 0 -955249 2.53657e+06 0 -958612 2.56587e+06 0 -961792 2.59546e+06 0 -964768 2.62533e+06 0 -967521 2.65548e+06 0 -970030 2.68592e+06 0 -721236 1.18161e+06 0 -723875 1.20192e+06 0 -726561 1.22231e+06 0 -729294 1.24277e+06 0 -732074 1.26331e+06 0 -734902 1.28393e+06 0 -737779 1.30464e+06 0 -740703 1.32543e+06 0 -743677 1.3463e+06 0 -746700 1.36726e+06 0 -749772 1.38831e+06 0 -752893 1.40945e+06 0 -756065 1.43069e+06 0 -759286 1.45202e+06 0 -762558 1.47345e+06 0 -765880 1.49498e+06 0 -769253 1.51661e+06 0 -772676 1.53835e+06 0 -776150 1.56019e+06 0 -779674 1.58215e+06 0 -783249 1.60422e+06 0 -786873 1.6264e+06 0 -790548 1.6487e+06 0 -794271 1.67112e+06 0 -798044 1.69367e+06 0 -801864 1.71635e+06 0 -805733 1.73916e+06 0 -809647 1.7621e+06 0 -813607 1.78518e+06 0 -817612 1.8084e+06 0 -821659 1.83177e+06 0 -825747 1.85529e+06 0 -829874 1.87896e+06 0 -834039 1.90279e+06 0 -838238 1.92679e+06 0 -842469 1.95095e+06 0 -846730 1.97528e+06 0 -851016 1.99979e+06 0 -855325 2.02448e+06 0 -859652 2.04936e+06 0 -863993 2.07443e+06 0 -868343 2.09969e+06 0 -872697 2.12516e+06 0 -877049 2.15083e+06 0 -881392 2.17672e+06 0 -885721 2.20282e+06 0 -890027 2.22914e+06 0 -894303 2.25569e+06 0 -898539 2.28247e+06 0 -902728 2.30949e+06 0 -906857 2.33675e+06 0 -910918 2.36426e+06 0 -914898 2.39202e+06 0 -918786 2.42004e+06 0 -922567 2.44831e+06 0 -926228 2.47685e+06 0 -929754 2.50566e+06 0 -933129 2.53473e+06 0 -936337 2.56407e+06 0 -939360 2.59369e+06 0 -942179 2.62358e+06 0 -944775 2.65373e+06 0 -947128 2.68416e+06 0 -949215 2.71486e+06 0 -707401 1.19254e+06 0 -710023 1.21306e+06 0 -712692 1.23366e+06 0 -715407 1.25434e+06 0 -718170 1.2751e+06 0 -720980 1.29594e+06 0 -723838 1.31686e+06 0 -726743 1.33788e+06 0 -729697 1.35898e+06 0 -732699 1.38017e+06 0 -735750 1.40145e+06 0 -738850 1.42282e+06 0 -741999 1.4443e+06 0 -745198 1.46587e+06 0 -748445 1.48754e+06 0 -751742 1.50931e+06 0 -755089 1.53119e+06 0 -758485 1.55318e+06 0 -761930 1.57528e+06 0 -765424 1.59749e+06 0 -768967 1.61981e+06 0 -772558 1.64226e+06 0 -776197 1.66483e+06 0 -779884 1.68752e+06 0 -783618 1.71034e+06 0 -787397 1.73329e+06 0 -791221 1.75638e+06 0 -795090 1.7796e+06 0 -799000 1.80297e+06 0 -802952 1.82648e+06 0 -806943 1.85014e+06 0 -810972 1.87395e+06 0 -815036 1.89792e+06 0 -819133 1.92206e+06 0 -823260 1.94636e+06 0 -827414 1.97083e+06 0 -831592 1.99547e+06 0 -835791 2.0203e+06 0 -840005 2.04531e+06 0 -844232 2.0705e+06 0 -848465 2.09589e+06 0 -852700 2.12148e+06 0 -856931 2.14728e+06 0 -861152 2.17328e+06 0 -865355 2.19949e+06 0 -869534 2.22593e+06 0 -873680 2.25259e+06 0 -877785 2.27947e+06 0 -881840 2.30659e+06 0 -885834 2.33394e+06 0 -889757 2.36154e+06 0 -893598 2.38938e+06 0 -897345 2.41747e+06 0 -900983 2.44581e+06 0 -904501 2.47441e+06 0 -907882 2.50326e+06 0 -911112 2.53238e+06 0 -914174 2.56176e+06 0 -917050 2.5914e+06 0 -919724 2.6213e+06 0 -922174 2.65146e+06 0 -924382 2.68188e+06 0 -926327 2.71256e+06 0 -927986 2.74349e+06 0 -693501 1.20347e+06 0 -696105 1.2242e+06 0 -698755 1.24502e+06 0 -701451 1.26591e+06 0 -704194 1.28689e+06 0 -706984 1.30795e+06 0 -709821 1.3291e+06 0 -712705 1.35033e+06 0 -715637 1.37166e+06 0 -718617 1.39308e+06 0 -721645 1.4146e+06 0 -724721 1.43621e+06 0 -727845 1.45792e+06 0 -731018 1.47973e+06 0 -734239 1.50164e+06 0 -737508 1.52366e+06 0 -740826 1.54579e+06 0 -744191 1.56803e+06 0 -747605 1.59038e+06 0 -751066 1.61284e+06 0 -754574 1.63543e+06 0 -758129 1.65814e+06 0 -761730 1.68097e+06 0 -765376 1.70393e+06 0 -769067 1.72702e+06 0 -772801 1.75025e+06 0 -776578 1.77362e+06 0 -780395 1.79712e+06 0 -784252 1.82077e+06 0 -788147 1.84457e+06 0 -792078 1.86852e+06 0 -796042 1.89263e+06 0 -800037 1.9169e+06 0 -804061 1.94134e+06 0 -808110 1.96594e+06 0 -812182 1.99072e+06 0 -816271 2.01567e+06 0 -820376 2.04081e+06 0 -824490 2.06613e+06 0 -828609 2.09165e+06 0 -832727 2.11736e+06 0 -836840 2.14327e+06 0 -840941 2.16938e+06 0 -845022 2.19571e+06 0 -849078 2.22225e+06 0 -853098 2.24901e+06 0 -857076 2.276e+06 0 -861002 2.30321e+06 0 -864866 2.33065e+06 0 -868658 2.35833e+06 0 -872366 2.38625e+06 0 -875978 2.41441e+06 0 -879482 2.44281e+06 0 -882863 2.47147e+06 0 -886108 2.50037e+06 0 -889201 2.52953e+06 0 -892126 2.55894e+06 0 -894866 2.5886e+06 0 -897403 2.61851e+06 0 -899719 2.64868e+06 0 -901794 2.67909e+06 0 -903607 2.70975e+06 0 -905139 2.74065e+06 0 -906365 2.77178e+06 0 -679535 1.2144e+06 0 -682119 1.23535e+06 0 -684749 1.25638e+06 0 -687424 1.27749e+06 0 -690146 1.29868e+06 0 -692914 1.31997e+06 0 -695728 1.34134e+06 0 -698589 1.3628e+06 0 -701498 1.38436e+06 0 -704453 1.40601e+06 0 -707455 1.42775e+06 0 -710505 1.4496e+06 0 -713602 1.47155e+06 0 -716747 1.4936e+06 0 -719938 1.51575e+06 0 -723177 1.53802e+06 0 -726463 1.5604e+06 0 -729795 1.58288e+06 0 -733174 1.60549e+06 0 -736599 1.62822e+06 0 -740069 1.65106e+06 0 -743585 1.67403e+06 0 -747144 1.69713e+06 0 -750746 1.72036e+06 0 -754390 1.74373e+06 0 -758076 1.76723e+06 0 -761800 1.79087e+06 0 -765563 1.81466e+06 0 -769362 1.83859e+06 0 -773196 1.86268e+06 0 -777061 1.88692e+06 0 -780956 1.91133e+06 0 -784878 1.93589e+06 0 -788823 1.96062e+06 0 -792789 1.98553e+06 0 -796772 2.01061e+06 0 -800767 2.03587e+06 0 -804771 2.06132e+06 0 -808778 2.08695e+06 0 -812783 2.11278e+06 0 -816781 2.13881e+06 0 -820765 2.16504e+06 0 -824728 2.19147e+06 0 -828663 2.21812e+06 0 -832563 2.24498e+06 0 -836418 2.27206e+06 0 -840220 2.29936e+06 0 -843959 2.32689e+06 0 -847624 2.35465e+06 0 -851205 2.38264e+06 0 -854689 2.41087e+06 0 -858064 2.43934e+06 0 -861317 2.46805e+06 0 -864433 2.497e+06 0 -867398 2.52619e+06 0 -870195 2.55563e+06 0 -872807 2.58531e+06 0 -875219 2.61524e+06 0 -877411 2.6454e+06 0 -879363 2.67581e+06 0 -881058 2.70645e+06 0 -882473 2.73731e+06 0 -883588 2.7684e+06 0 -884380 2.7997e+06 0 -665504 1.22534e+06 0 -668066 1.2465e+06 0 -670674 1.26774e+06 0 -673327 1.28907e+06 0 -676025 1.31048e+06 0 -678769 1.33199e+06 0 -6