<?xml version="1.0"?> 
<VTKFile type="StructuredGrid" version="0.1"> 
<StructuredGrid WholeExtent="0 63 0 63 0 0"> 
<Piece Extent="0 63 0 63 0 0"> 
<PointData>
<DataArray type="Float32" Name="|E|" format="ascii" NumberOfComponents="3"> 
276972 4.20086e+06 0 276669 4.19627e+06 0 276381 4.1919e+06 0 276107 4.18774e+06 0 275848 4.18381e+06 0 275602 4.18008e+06 0 275370 4.17657e+06 0 275152 4.17326e+06 0 274948 4.17016e+06 0 274757 4.16727e+06 0 274580 4.16458e+06 0 274417 4.1621e+06 0 274267 4.15983e+06 0 274130 4.15776e+06 0 274008 4.1559e+06 0 273899 4.15425e+06 0 273804 4.15282e+06 0 273724 4.15159e+06 0 273657 4.15058e+06 0 273605 4.14979e+06 0 273568 4.14923e+06 0 273546 4.14889e+06 0 273539 4.14879e+06 0 273548 4.14892e+06 0 273573 4.1493e+06 0 273614 4.14993e+06 0 273672 4.15081e+06 0 273748 4.15196e+06 0 273841 4.15338e+06 0 273954 4.15508e+06 0 274085 4.15707e+06 0 274236 4.15936e+06 0 274408 4.16197e+06 0 274601 4.1649e+06 0 274816 4.16817e+06 0 275055 4.17179e+06 0 275318 4.17577e+06 0 275606 4.18014e+06 0 275921 4.18492e+06 0 276263 4.19011e+06 0 276635 4.19575e+06 0 277037 4.20185e+06 0 277472 4.20844e+06 0 277941 4.21555e+06 0 278446 4.22321e+06 0 278989 4.23144e+06 0 279572 4.2403e+06 0 280199 4.2498e+06 0 280871 4.26e+06 0 281592 4.27094e+06 0 282366 4.28267e+06 0 283196 4.29525e+06 0 284086 4.30875e+06 0 285040 4.32323e+06 0 286065 4.33878e+06 0 287166 4.35548e+06 0 288350 4.37343e+06 0 289624 4.39275e+06 0 290996 4.41356e+06 0 292477 4.43603e+06 0 294078 4.46031e+06 0 295813 4.48662e+06 0 297696 4.51519e+06 0 299748 4.5463e+06 0 270443 4.20256e+06 0 270443 4.1979e+06 0 270453 4.19346e+06 0 270473 4.18924e+06 0 270504 4.18523e+06 0 270545 4.18143e+06 0 270597 4.17785e+06 0 270661 4.17447e+06 0 270737 4.17129e+06 0 270826 4.16832e+06 0 270928 4.16556e+06 0 271044 4.16299e+06 0 271174 4.16064e+06 0 271319 4.15848e+06 0 271479 4.15653e+06 0 271655 4.15479e+06 0 271849 4.15326e+06 0 272060 4.15193e+06 0 272289 4.15082e+06 0 272537 4.14993e+06 0 272806 4.14925e+06 0 273095 4.1488e+06 0 273407 4.14858e+06 0 273741 4.14859e+06 0 274100 4.14883e+06 0 274483 4.14932e+06 0 274894 4.15006e+06 0 275332 4.15106e+06 0 275800 4.15232e+06 0 276298 4.15386e+06 0 276829 4.15568e+06 0 277395 4.15779e+06 0 277997 4.1602e+06 0 278637 4.16293e+06 0 279317 4.16598e+06 0 280041 4.16937e+06 0 280810 4.17312e+06 0 281627 4.17724e+06 0 282496 4.18174e+06 0 283419 4.18665e+06 0 284401 4.19199e+06 0 285446 4.19777e+06 0 286557 4.20402e+06 0 287739 4.21076e+06 0 288998 4.21803e+06 0 290340 4.22585e+06 0 291770 4.23425e+06 0 293297 4.24328e+06 0 294928 4.25296e+06 0 296671 4.26334e+06 0 298538 4.27448e+06 0 300539 4.28641e+06 0 302686 4.29921e+06 0 304995 4.31292e+06 0 307482 4.32763e+06 0 310166 4.34342e+06 0 313069 4.36037e+06 0 316216 4.37858e+06 0 319639 4.39818e+06 0 323372 4.41929e+06 0 327457 4.44206e+06 0 331947 4.46666e+06 0 336902 4.4933e+06 0 342402 4.52222e+06 0 263701 4.20385e+06 0 264005 4.19913e+06 0 264313 4.19463e+06 0 264626 4.19034e+06 0 264946 4.18627e+06 0 265272 4.18241e+06 0 265607 4.17875e+06 0 265951 4.1753e+06 0 266305 4.17206e+06 0 266671 4.16901e+06 0 267049 4.16617e+06 0 267440 4.16352e+06 0 267846 4.16108e+06 0 268267 4.15884e+06 0 268705 4.1568e+06 0 269161 4.15496e+06 0 269636 4.15333e+06 0 270132 4.15191e+06 0 270650 4.15069e+06 0 271190 4.14968e+06 0 271756 4.14889e+06 0 272347 4.14832e+06 0 272967 4.14797e+06 0 273616 4.14784e+06 0 274296 4.14795e+06 0 275009 4.14829e+06 0 275758 4.14888e+06 0 276544 4.14972e+06 0 277369 4.15081e+06 0 278237 4.15217e+06 0 279149 4.15379e+06 0 280108 4.15571e+06 0 281117 4.15791e+06 0 282180 4.16042e+06 0 283300 4.16324e+06 0 284481 4.16638e+06 0 285726 4.16987e+06 0 287040 4.17371e+06 0 288428 4.17792e+06 0 289894 4.18251e+06 0 291444 4.18751e+06 0 293085 4.19294e+06 0 294823 4.19881e+06 0 296665 4.20515e+06 0 298619 4.21198e+06 0 300694 4.21934e+06 0 302900 4.22724e+06 0 305248 4.23573e+06 0 307750 4.24484e+06 0 310420 4.2546e+06 0 313272 4.26506e+06 0 316324 4.27627e+06 0 319596 4.28827e+06 0 323109 4.30113e+06 0 326889 4.3149e+06 0 330964 4.32965e+06 0 335368 4.34547e+06 0 340140 4.36243e+06 0 345325 4.38064e+06 0 350976 4.40021e+06 0 357156 4.42125e+06 0 363941 4.44391e+06 0 371422 4.46835e+06 0 379714 4.49476e+06 0 256759 4.20473e+06 0 257365 4.19996e+06 0 257970 4.1954e+06 0 258575 4.19106e+06 0 259181 4.18693e+06 0 259791 4.18301e+06 0 260406 4.17929e+06 0 261027 4.17578e+06 0 261656 4.17246e+06 0 262294 4.16934e+06 0 262944 4.16642e+06 0 263606 4.1637e+06 0 264283 4.16117e+06 0 264975 4.15884e+06 0 265685 4.15671e+06 0 266415 4.15478e+06 0 267165 4.15305e+06 0 267938 4.15152e+06 0 268736 4.15019e+06 0 269560 4.14907e+06 0 270413 4.14816e+06 0 271296 4.14746e+06 0 272212 4.14698e+06 0 273164 4.14671e+06 0 274153 4.14667e+06 0 275182 4.14686e+06 0 276254 4.14729e+06 0 277371 4.14795e+06 0 278538 4.14886e+06 0 279755 4.15003e+06 0 281028 4.15146e+06 0 282360 4.15316e+06 0 283755 4.15514e+06 0 285216 4.15741e+06 0 286748 4.15998e+06 0 288357 4.16286e+06 0 290047 4.16606e+06 0 291824 4.16961e+06 0 293694 4.1735e+06 0 295663 4.17776e+06 0 297739 4.1824e+06 0 299929 4.18744e+06 0 302242 4.19291e+06 0 304688 4.19881e+06 0 307276 4.20518e+06 0 310018 4.21203e+06 0 312926 4.2194e+06 0 316015 4.22731e+06 0 319299 4.2358e+06 0 322796 4.24489e+06 0 326525 4.25463e+06 0 330508 4.26505e+06 0 334768 4.2762e+06 0 339334 4.28813e+06 0 344235 4.30089e+06 0 349509 4.31453e+06 0 355196 4.32913e+06 0 361343 4.34476e+06 0 368005 4.36148e+06 0 375245 4.3794e+06 0 383139 4.3986e+06 0 391774 4.4192e+06 0 401256 4.44132e+06 0 411717 4.4651e+06 0 249629 4.20519e+06 0 250535 4.20038e+06 0 251434 4.19578e+06 0 252328 4.19139e+06 0 253219 4.18721e+06 0 254109 4.18324e+06 0 255000 4.17946e+06 0 255894 4.17588e+06 0 256794 4.1725e+06 0 257701 4.16931e+06 0 258618 4.16632e+06 0 259546 4.16352e+06 0 260488 4.16091e+06 0 261445 4.1585e+06 0 262420 4.15628e+06 0 263416 4.15425e+06 0 264433 4.15242e+06 0 265475 4.15078e+06 0 266544 4.14934e+06 0 267643 4.14811e+06 0 268773 4.14707e+06 0 269937 4.14624e+06 0 271139 4.14562e+06 0 272380 4.14521e+06 0 273665 4.14502e+06 0 274995 4.14505e+06 0 276375 4.1453e+06 0 277807 4.14579e+06 0 279296 4.14651e+06 0 280845 4.14748e+06 0 282459 4.1487e+06 0 284141 4.15018e+06 0 285897 4.15192e+06 0 287731 4.15394e+06 0 289648 4.15625e+06 0 291655 4.15885e+06 0 293758 4.16176e+06 0 295963 4.16499e+06 0 298278 4.16855e+06 0 300710 4.17245e+06 0 303267 4.17671e+06 0 305959 4.18135e+06 0 308796 4.18639e+06 0 311789 4.19183e+06 0 314950 4.19771e+06 0 318292 4.20404e+06 0 321829 4.21084e+06 0 325578 4.21815e+06 0 329556 4.22598e+06 0 333783 4.23437e+06 0 338281 4.24335e+06 0 343074 4.25295e+06 0 348190 4.26321e+06 0 353659 4.27417e+06 0 359518 4.28587e+06 0 365804 4.29837e+06 0 372565 4.3117e+06 0 379850 4.32594e+06 0 387719 4.34114e+06 0 396241 4.35737e+06 0 405495 4.3747e+06 0 415574 4.39322e+06 0 426586 4.413e+06 0 438664 4.43415e+06 0 242325 4.20523e+06 0 243529 4.20039e+06 0 244719 4.19576e+06 0 245898 4.19133e+06 0 247069 4.18711e+06 0 248235 4.18308e+06 0 249398 4.17926e+06 0 250561 4.17562e+06 0 251726 4.17218e+06 0 252897 4.16893e+06 0 254075 4.16587e+06 0 255263 4.16299e+06 0 256463 4.16031e+06 0 257679 4.15781e+06 0 258912 4.1555e+06 0 260166 4.15338e+06 0 261442 4.15145e+06 0 262745 4.1497e+06 0 264075 4.14815e+06 0 265438 4.1468e+06 0 266834 4.14563e+06 0 268268 4.14467e+06 0 269743 4.14391e+06 0 271261 4.14335e+06 0 272827 4.14301e+06 0 274444 4.14287e+06 0 276116 4.14295e+06 0 277846 4.14325e+06 0 279640 4.14378e+06 0 281501 4.14455e+06 0 283434 4.14555e+06 0 285444 4.14679e+06 0 287536 4.1483e+06 0 289717 4.15006e+06 0 291992 4.15209e+06 0 294368 4.1544e+06 0 296851 4.15701e+06 0 299450 4.15991e+06 0 302172 4.16312e+06 0 305026 4.16665e+06 0 308021 4.17053e+06 0 311168 4.17475e+06 0 314478 4.17933e+06 0 317962 4.1843e+06 0 321635 4.18967e+06 0 325511 4.19545e+06 0 329605 4.20168e+06 0 333935 4.20836e+06 0 338520 4.21552e+06 0 343383 4.22318e+06 0 348545 4.23138e+06 0 354034 4.24014e+06 0 359878 4.24949e+06 0 366112 4.25947e+06 0 372770 4.2701e+06 0 379895 4.28143e+06 0 387534 4.2935e+06 0 395739 4.30634e+06 0 404570 4.32002e+06 0 414097 4.33457e+06 0 424399 4.35005e+06 0 435565 4.36652e+06 0 447701 4.38403e+06 0 460933 4.40265e+06 0 234863 4.20485e+06 0 236359 4.19999e+06 0 237836 4.19533e+06 0 239296 4.19088e+06 0 240742 4.18662e+06 0 242179 4.18256e+06 0 243609 4.17868e+06 0 245035 4.175e+06 0 246461 4.1715e+06 0 247888 4.16819e+06 0 249321 4.16507e+06 0 250762 4.16212e+06 0 252214 4.15936e+06 0 253681 4.15678e+06 0 255164 4.15438e+06 0 256668 4.15217e+06 0 258195 4.15014e+06 0 259748 4.14829e+06 0 261331 4.14663e+06 0 262946 4.14515e+06 0 264598 4.14387e+06 0 266290 4.14277e+06 0 268025 4.14187e+06 0 269807 4.14116e+06 0 271639 4.14065e+06 0 273527 4.14035e+06 0 275475 4.14025e+06 0 277486 4.14037e+06 0 279565 4.1407e+06 0 281718 4.14125e+06 0 283949 4.14203e+06 0 286265 4.14304e+06 0 288670 4.14429e+06 0 291172 4.14579e+06 0 293776 4.14755e+06 0 296491 4.14956e+06 0 299323 4.15185e+06 0 302281 4.15441e+06 0 305373 4.15727e+06 0 308609 4.16043e+06 0 311999 4.1639e+06 0 315555 4.16769e+06 0 319287 4.17183e+06 0 323209 4.17631e+06 0 327335 4.18116e+06 0 331681 4.18639e+06 0 336262 4.19202e+06 0 341098 4.19806e+06 0 346208 4.20454e+06 0 351616 4.21148e+06 0 357344 4.21889e+06 0 363421 4.22681e+06 0 369875 4.23525e+06 0 376742 4.24423e+06 0 384056 4.2538e+06 0 391861 4.26397e+06 0 400201 4.27478e+06 0 409131 4.28626e+06 0 418707 4.29845e+06 0 428996 4.31137e+06 0 440074 4.32506e+06 0 452026 4.33957e+06 0 464948 4.35492e+06 0 478955 4.37116e+06 0 227261 4.20405e+06 0 229044 4.19918e+06 0 230801 4.19451e+06 0 232536 4.19003e+06 0 234252 4.18575e+06 0 235954 4.18165e+06 0 237644 4.17774e+06 0 239327 4.17402e+06 0 241006 4.17047e+06 0 242684 4.16711e+06 0 244365 4.16392e+06 0 246052 4.16091e+06 0 247748 4.15808e+06 0 249457 4.15542e+06 0 251182 4.15294e+06 0 252927 4.15064e+06 0 254694 4.14851e+06 0 256488 4.14656e+06 0 258313 4.14479e+06 0 260171 4.14319e+06 0 262066 4.14178e+06 0 264003 4.14055e+06 0 265985 4.13951e+06 0 268017 4.13865e+06 0 270102 4.13798e+06 0 272246 4.13751e+06 0 274452 4.13723e+06 0 276726 4.13716e+06 0 279073 4.13729e+06 0 281498 4.13763e+06 0 284006 4.13818e+06 0 286604 4.13895e+06 0 289299 4.13995e+06 0 292095 4.14118e+06 0 295002 4.14265e+06 0 298026 4.14437e+06 0 301175 4.14633e+06 0 304458 4.14856e+06 0 307885 4.15106e+06 0 311464 4.15383e+06 0 315208 4.1569e+06 0 319126 4.16026e+06 0 323232 4.16393e+06 0 327540 4.16793e+06 0 332063 4.17225e+06 0 336817 4.17693e+06 0 341820 4.18196e+06 0 347090 4.18737e+06 0 352648 4.19318e+06 0 358516 4.19938e+06 0 364719 4.20602e+06 0 371284 4.21309e+06 0 378240 4.22063e+06 0 385620 4.22865e+06 0 393460 4.23717e+06 0 401801 4.24621e+06 0 410688 4.2558e+06 0 420169 4.26595e+06 0 430301 4.2767e+06 0 441146 4.28806e+06 0 452773 4.30006e+06 0 465259 4.31272e+06 0 478692 4.32605e+06 0 493174 4.34008e+06 0 219535 4.20282e+06 0 221598 4.19796e+06 0 223629 4.19328e+06 0 225632 4.1888e+06 0 227611 4.1845e+06 0 229571 4.18038e+06 0 231515 4.17644e+06 0 233448 4.17268e+06 0 235373 4.16909e+06 0 237294 4.16568e+06 0 239215 4.16244e+06 0 241139 4.15937e+06 0 243071 4.15647e+06 0 245014 4.15374e+06 0 246972 4.15118e+06 0 248948 4.14879e+06 0 250947 4.14657e+06 0 252972 4.14452e+06 0 255026 4.14264e+06 0 257115 4.14093e+06 0 259243 4.13939e+06 0 261412 4.13803e+06 0 263628 4.13684e+06 0 265896 4.13584e+06 0 268219 4.13501e+06 0 270602 4.13437e+06 0 273051 4.13391e+06 0 275570 4.13365e+06 0 278165 4.13357e+06 0 280843 4.1337e+06 0 283607 4.13403e+06 0 286466 4.13456e+06 0 289425 4.1353e+06 0 292492 4.13626e+06 0 295673 4.13745e+06 0 298978 4.13886e+06 0 302414 4.1405e+06 0 305989 4.14239e+06 0 309715 4.14453e+06 0 313600 4.14692e+06 0 317657 4.14958e+06 0 321896 4.15251e+06 0 326330 4.15572e+06 0 330973 4.15923e+06 0 335839 4.16304e+06 0 340945 4.16716e+06 0 346308 4.17161e+06 0 351946 4.17639e+06 0 357879 4.18152e+06 0 364130 4.18701e+06 0 370723 4.19287e+06 0 377684 4.19913e+06 0 385043 4.20578e+06 0 392830 4.21286e+06 0 401080 4.22036e+06 0 409832 4.22832e+06 0 419128 4.23673e+06 0 429013 4.24562e+06 0 439541 4.25501e+06 0 450766 4.26489e+06 0 462752 4.2753e+06 0 475570 4.28623e+06 0 489294 4.2977e+06 0 504014 4.30971e+06 0 211705 4.20118e+06 0 214040 4.19633e+06 0 216338 4.19166e+06 0 218601 4.18718e+06 0 220835 4.18287e+06 0 223046 4.17874e+06 0 225236 4.17478e+06 0 227410 4.17099e+06 0 229573 4.16737e+06 0 231729 4.16391e+06 0 233881 4.16062e+06 0 236035 4.1575e+06 0 238193 4.15454e+06 0 240361 4.15174e+06 0 242542 4.14911e+06 0 244740 4.14663e+06 0 246959 4.14432e+06 0 249204 4.14217e+06 0 251478 4.14019e+06 0 253787 4.13837e+06 0 256133 4.13671e+06 0 258523 4.13522e+06 0 260959 4.13389e+06 0 263448 4.13274e+06 0 265993 4.13175e+06 0 268601 4.13094e+06 0 271276 4.13031e+06 0 274023 4.12985e+06 0 276849 4.12958e+06 0 279758 4.12949e+06 0 282758 4.12959e+06 0 285856 4.12989e+06 0 289056 4.13038e+06 0 292368 4.13107e+06 0 295799 4.13197e+06 0 299356 4.13308e+06 0 303048 4.13441e+06 0 306885 4.13595e+06 0 310876 4.13773e+06 0 315032 4.13974e+06 0 319363 4.142e+06 0 323881 4.1445e+06 0 328599 4.14726e+06 0 333531 4.15029e+06 0 338691 4.15358e+06 0 344095 4.15716e+06 0 349760 4.16103e+06 0 355704 4.16519e+06 0 361947 4.16966e+06 0 368510 4.17446e+06 0 375417 4.17957e+06 0 382693 4.18503e+06 0 390366 4.19084e+06 0 398465 4.197e+06 0 407023 4.20353e+06 0 416076 4.21044e+06 0 425663 4.21774e+06 0 435827 4.22544e+06 0 446614 4.23354e+06 0 458075 4.24205e+06 0 470267 4.25097e+06 0 483251 4.26031e+06 0 497093 4.27007e+06 0 511870 4.28024e+06 0 203790 4.19913e+06 0 206389 4.1943e+06 0 208944 4.18965e+06 0 211459 4.18518e+06 0 213940 4.18087e+06 0 216391 4.17673e+06 0 218819 4.17276e+06 0 221226 4.16895e+06 0 223618 4.1653e+06 0 226000 4.16182e+06 0 228375 4.15849e+06 0 230748 4.15532e+06 0 233124 4.1523e+06 0 235507 4.14944e+06 0 237901 4.14673e+06 0 240310 4.14418e+06 0 242740 4.14179e+06 0 245193 4.13955e+06 0 247676 4.13746e+06 0 250191 4.13553e+06 0 252745 4.13375e+06 0 255341 4.13213e+06 0 257985 4.13067e+06 0 260681 4.12937e+06 0 263434 4.12823e+06 0 266250 4.12726e+06 0 269134 4.12645e+06 0 272092 4.12581e+06 0 275129 4.12533e+06 0 278253 4.12504e+06 0 281468 4.12491e+06 0 284782 4.12497e+06 0 288202 4.12521e+06 0 291735 4.12564e+06 0 295389 4.12625e+06 0 299172 4.12706e+06 0 303093 4.12807e+06 0 307161 4.12929e+06 0 311385 4.13071e+06 0 315777 4.13235e+06 0 320346 4.13421e+06 0 325105 4.13629e+06 0 330067 4.1386e+06 0 335244 4.14116e+06 0 340651 4.14395e+06 0 346303 4.14699e+06 0 352217 4.1503e+06 0 358411 4.15386e+06 0 364903 4.1577e+06 0 371714 4.16181e+06 0 378867 4.16621e+06 0 386385 4.1709e+06 0 394294 4.17589e+06 0 402622 4.18119e+06 0 411400 4.18679e+06 0 420660 4.19272e+06 0 430438 4.19896e+06 0 440774 4.20553e+06 0 451708 4.21243e+06 0 463286 4.21966e+06 0 475558 4.22722e+06 0 488578 4.2351e+06 0 502403 4.24329e+06 0 517099 4.2518e+06 0 195811 4.19667e+06 0 198663 4.19188e+06 0 201465 4.18726e+06 0 204223 4.1828e+06 0 206940 4.17851e+06 0 209624 4.17437e+06 0 212279 4.1704e+06 0 214910 4.16658e+06 0 217522 4.16291e+06 0 220120 4.1594e+06 0 222709 4.15604e+06 0 225292 4.15282e+06 0 227875 4.14976e+06 0 230463 4.14684e+06 0 233059 4.14407e+06 0 235670 4.14145e+06 0 238298 4.13897e+06 0 240949 4.13664e+06 0 243628 4.13446e+06 0 246339 4.13242e+06 0 249087 4.13053e+06 0 251877 4.12879e+06 0 254713 4.1272e+06 0 257602 4.12576e+06 0 260549 4.12447e+06 0 263558 4.12333e+06 0 266635 4.12235e+06 0 269786 4.12152e+06 0 273018 4.12086e+06 0 276336 4.12035e+06 0 279746 4.12001e+06 0 283257 4.11983e+06 0 286874 4.11983e+06 0 290605 4.11999e+06 0 294458 4.12033e+06 0 298441 4.12085e+06 0 302563 4.12155e+06 0 306833 4.12244e+06 0 311261 4.12351e+06 0 315856 4.12478e+06 0 320630 4.12625e+06 0 325595 4.12792e+06 0 330761 4.1298e+06 0 336143 4.13189e+06 0 341754 4.1342e+06 0 347609 4.13673e+06 0 353725 4.13949e+06 0 360117 4.14247e+06 0 366804 4.14569e+06 0 373806 4.14916e+06 0 381143 4.15287e+06 0 388838 4.15683e+06 0 396916 4.16104e+06 0 405401 4.16551e+06 0 414322 4.17024e+06 0 423708 4.17523e+06 0 433593 4.18049e+06 0 444011 4.18601e+06 0 455000 4.1918e+06 0 466599 4.19784e+06 0 478852 4.20414e+06 0 491806 4.21068e+06 0 505510 4.21746e+06 0 520019 4.22447e+06 0 187788 4.19381e+06 0 190883 4.18907e+06 0 193921 4.18449e+06 0 196910 4.18006e+06 0 199855 4.17579e+06 0 202761 4.17167e+06 0 205633 4.1677e+06 0 208478 4.16388e+06 0 211300 4.1602e+06 0 214104 4.15667e+06 0 216895 4.15328e+06 0 219678 4.15003e+06 0 222458 4.14692e+06 0 225240 4.14396e+06 0 228029 4.14113e+06 0 230829 4.13844e+06 0 233645 4.13589e+06 0 236482 4.13347e+06 0 239345 4.1312e+06 0 242239 4.12906e+06 0 245168 4.12706e+06 0 248139 4.12521e+06 0 251155 4.12349e+06 0 254223 4.12191e+06 0 257347 4.12047e+06 0 260534 4.11918e+06 0 263788 4.11803e+06 0 267117 4.11703e+06 0 270525 4.11617e+06 0 274019 4.11546e+06 0 277606 4.1149e+06 0 281292 4.1145e+06 0 285086 4.11425e+06 0 288993 4.11416e+06 0 293022 4.11423e+06 0 297181 4.11447e+06 0 301478 4.11486e+06 0 305923 4.11543e+06 0 310525 4.11617e+06 0 315295 4.11708e+06 0 320242 4.11818e+06 0 325377 4.11945e+06 0 330713 4.12091e+06 0 336263 4.12255e+06 0 342039 4.12439e+06 0 348056 4.12642e+06 0 354329 4.12865e+06 0 360874 4.13108e+06 0 367708 4.13371e+06 0 374849 4.13656e+06 0 382317 4.13961e+06 0 390133 4.14287e+06 0 398319 4.14635e+06 0 406899 4.15004e+06 0 415898 4.15395e+06 0 425343 4.15807e+06 0 435264 4.16241e+06 0 445691 4.16695e+06 0 456658 4.17171e+06 0 468201 4.17666e+06 0 480356 4.18181e+06 0 493164 4.18714e+06 0 506668 4.19264e+06 0 520914 4.19829e+06 0 179742 4.19056e+06 0 183067 4.18588e+06 0 186331 4.18135e+06 0 189540 4.17696e+06 0 192700 4.17272e+06 0 195817 4.16862e+06 0 198896 4.16467e+06 0 201944 4.16085e+06 0 204965 4.15717e+06 0 207964 4.15363e+06 0 210947 4.15022e+06 0 213920 4.14695e+06 0 216886 4.14381e+06 0 219851 4.1408e+06 0 222821 4.13792e+06 0 225799 4.13517e+06 0 228791 4.13255e+06 0 231803 4.13006e+06 0 234838 4.1277e+06 0 237903 4.12547e+06 0 241001 4.12337e+06 0 244139 4.12139e+06 0 247322 4.11955e+06 0 250554 4.11784e+06 0 253842 4.11627e+06 0 257191 4.11482e+06 0 260607 4.11351e+06 0 264096 4.11233e+06 0 267663 4.11129e+06 0 271316 4.11039e+06 0 275061 4.10963e+06 0 278904 4.109e+06 0 282853 4.10852e+06 0 286915 4.10818e+06 0 291098 4.10799e+06 0 295409 4.10795e+06 0 299858 4.10805e+06 0 304453 4.10831e+06 0 309203 4.10872e+06 0 314118 4.10929e+06 0 319208 4.11001e+06 0 324484 4.1109e+06 0 329958 4.11195e+06 0 335641 4.11317e+06 0 341547 4.11456e+06 0 347688 4.11611e+06 0 354079 4.11784e+06 0 360735 4.11974e+06 0 367673 4.12181e+06 0 374908 4.12406e+06 0 382460 4.12649e+06 0 390348 4.1291e+06 0 398591 4.13188e+06 0 407212 4.13484e+06 0 416233 4.13798e+06 0 425680 4.14129e+06 0 435578 4.14477e+06 0 445955 4.14842e+06 0 456840 4.15222e+06 0 468264 4.15617e+06 0 480259 4.16027e+06 0 492861 4.1645e+06 0 506105 4.16883e+06 0 520032 4.17327e+06 0 171693 4.18694e+06 0 175236 4.18232e+06 0 178713 4.17785e+06 0 182130 4.17352e+06 0 185494 4.16932e+06 0 188811 4.16525e+06 0 192085 4.16132e+06 0 195324 4.15752e+06 0 198533 4.15385e+06 0 201717 4.1503e+06 0 204881 4.14688e+06 0 208031 4.14359e+06 0 211172 4.14042e+06 0 214310 4.13737e+06 0 217449 4.13445e+06 0 220594 4.13164e+06 0 223751 4.12896e+06 0 226924 4.1264e+06 0 230120 4.12396e+06 0 233342 4.12164e+06 0 236597 4.11945e+06 0 239889 4.11737e+06 0 243224 4.11541e+06 0 246608 4.11358e+06 0 250045 4.11187e+06 0 253542 4.11028e+06 0 257104 4.10881e+06 0 260737 4.10747e+06 0 264448 4.10625e+06 0 268242 4.10516e+06 0 272127 4.10419e+06 0 276108 4.10336e+06 0 280194 4.10265e+06 0 284391 4.10207e+06 0 288706 4.10163e+06 0 293148 4.10131e+06 0 297725 4.10114e+06 0 302446 4.1011e+06 0 307319 4.10119e+06 0 312354 4.10143e+06 0 317560 4.10181e+06 0 322949 4.10232e+06 0 328530 4.10299e+06 0 334316 4.10379e+06 0 340318 4.10475e+06 0 346550 4.10585e+06 0 353024 4.10709e+06 0 359755 4.10849e+06 0 366758 4.11003e+06 0 374048 4.11173e+06 0 381643 4.11357e+06 0 389559 4.11556e+06 0 397816 4.11769e+06 0 406433 4.11997e+06 0 415431 4.12239e+06 0 424831 4.12494e+06 0 434658 4.12763e+06 0 444936 4.13044e+06 0 455689 4.13337e+06 0 466946 4.13641e+06 0 478734 4.13955e+06 0 491083 4.14278e+06 0 504024 4.14607e+06 0 517591 4.14942e+06 0 163663 4.18295e+06 0 167411 4.17841e+06 0 171087 4.17401e+06 0 174700 4.16974e+06 0 178255 4.16559e+06 0 181759 4.16157e+06 0 185217 4.15767e+06 0 188635 4.15389e+06 0 192020 4.15023e+06 0 195377 4.14669e+06 0 198710 4.14327e+06 0 202027 4.13996e+06 0 205331 4.13677e+06 0 208629 4.13369e+06 0 211926 4.13073e+06 0 215226 4.12788e+06 0 218536 4.12515e+06 0 221860 4.12252e+06 0 225203 4.12001e+06 0 228571 4.11761e+06 0 231969 4.11532e+06 0 235403 4.11315e+06 0 238877 4.11108e+06 0 242398 4.10913e+06 0 245970 4.10729e+06 0 249600 4.10556e+06 0 253293 4.10395e+06 0 257056 4.10245e+06 0 260894 4.10106e+06 0 264813 4.09979e+06 0 268820 4.09863e+06 0 272923 4.09759e+06 0 277126 4.09666e+06 0 281439 4.09586e+06 0 285867 4.09517e+06 0 290419 4.0946e+06 0 295103 4.09415e+06 0 299927 4.09383e+06 0 304900 4.09362e+06 0 310031 4.09354e+06 0 315328 4.09358e+06 0 320803 4.09374e+06 0 326465 4.09404e+06 0 332326 4.09445e+06 0 338396 4.09499e+06 0 344688 4.09566e+06 0 351214 4.09645e+06 0 357987 4.09737e+06 0 365021 4.09842e+06 0 372332 4.09958e+06 0 379933 4.10087e+06 0 387842 4.10228e+06 0 396074 4.10381e+06 0 404649 4.10545e+06 0 413584 4.1072e+06 0 422900 4.10906e+06 0 432616 4.11101e+06 0 442755 4.11306e+06 0 453338 4.11519e+06 0 464390 4.1174e+06 0 475934 4.11967e+06 0 487997 4.12198e+06 0 500604 4.12433e+06 0 513783 4.1267e+06 0 155672 4.17861e+06 0 159610 4.17416e+06 0 163473 4.16984e+06 0 167267 4.16564e+06 0 171001 4.16155e+06 0 174679 4.15758e+06 0 178308 4.15372e+06 0 181894 4.14997e+06 0 185442 4.14633e+06 0 188959 4.14281e+06 0 192451 4.13939e+06 0 195922 4.13608e+06 0 199378 4.13287e+06 0 202825 4.12978e+06 0 206267 4.12678e+06 0 209711 4.1239e+06 0 213161 4.12111e+06 0 216623 4.11843e+06 0 220102 4.11586e+06 0 223603 4.11338e+06 0 227132 4.11101e+06 0 230694 4.10874e+06 0 234294 4.10658e+06 0 237939 4.10451e+06 0 241632 4.10255e+06 0 245381 4.1007e+06 0 249191 4.09894e+06 0 253068 4.09729e+06 0 257017 4.09574e+06 0 261046 4.09429e+06 0 265160 4.09295e+06 0 269365 4.09172e+06 0 273670 4.09059e+06 0 278080 4.08956e+06 0 282603 4.08864e+06 0 287246 4.08783e+06 0 292017 4.08712e+06 0 296924 4.08652e+06 0 301975 4.08603e+06 0 307179 4.08564e+06 0 312545 4.08536e+06 0 318082 4.08519e+06 0 323800 4.08513e+06 0 329710 4.08518e+06 0 335822 4.08533e+06 0 342147 4.08559e+06 0 348696 4.08595e+06 0 355483 4.08642e+06 0 362520 4.08699e+06 0 369821 4.08767e+06 0 377398 4.08844e+06 0 385268 4.08931e+06 0 393445 4.09027e+06 0 401945 4.09132e+06 0 410785 4.09245e+06 0 419983 4.09366e+06 0 429557 4.09494e+06 0 439525 4.09629e+06 0 449908 4.09769e+06 0 460725 4.09914e+06 0 471999 4.10061e+06 0 483750 4.10211e+06 0 496001 4.10361e+06 0 508777 4.1051e+06 0 147741 4.17393e+06 0 151854 4.16959e+06 0 155888 4.16536e+06 0 159851 4.16123e+06 0 163749 4.15721e+06 0 167588 4.1533e+06 0 171375 4.14949e+06 0 175116 4.14578e+06 0 178816 4.14217e+06 0 182481 4.13867e+06 0 186118 4.13526e+06 0 189732 4.13195e+06 0 193327 4.12874e+06 0 196911 4.12563e+06 0 200487 4.12262e+06 0 204062 4.1197e+06 0 207641 4.11687e+06 0 211228 4.11414e+06 0 214831 4.11151e+06 0 218453 4.10897e+06 0 222100 4.10652e+06 0 225777 4.10417e+06 0 229490 4.10191e+06 0 233245 4.09974e+06 0 237047 4.09767e+06 0 240901 4.09569e+06 0 244813 4.0938e+06 0 248790 4.09201e+06 0 252836 4.09031e+06 0 256958 4.0887e+06 0 261163 4.08718e+06 0 265457 4.08576e+06 0 269845 4.08444e+06 0 274336 4.0832e+06 0 278935 4.08206e+06 0 283651 4.08101e+06 0 288490 4.08006e+06 0 293461 4.0792e+06 0 298571 4.07843e+06 0 303828 4.07776e+06 0 309241 4.07718e+06 0 314819 4.07669e+06 0 320571 4.0763e+06 0 326507 4.07599e+06 0 332637 4.07578e+06 0 338971 4.07565e+06 0 345521 4.07562e+06 0 352296 4.07566e+06 0 359310 4.07579e+06 0 366574 4.07601e+06 0 374101 4.0763e+06 0 381905 4.07666e+06 0 389999 4.0771e+06 0 398398 4.0776e+06 0 407117 4.07816e+06 0 416171 4.07877e+06 0 425576 4.07944e+06 0 435349 4.08014e+06 0 445508 4.08087e+06 0 456070 4.08162e+06 0 467053 4.08238e+06 0 478476 4.08314e+06 0 490357 4.08388e+06 0 502718 4.08458e+06 0 139888 4.16894e+06 0 144161 4.16471e+06 0 148352 4.16057e+06 0 152469 4.15653e+06 0 156518 4.15259e+06 0 160505 4.14874e+06 0 164436 4.14499e+06 0 168318 4.14133e+06 0 172157 4.13776e+06 0 175958 4.13428e+06 0 179728 4.1309e+06 0 183471 4.1276e+06 0 187194 4.12439e+06 0 190902 4.12127e+06 0 194600 4.11824e+06 0 198294 4.1153e+06 0 201989 4.11244e+06 0 205691 4.10967e+06 0 209404 4.10699e+06 0 213134 4.10439e+06 0 216887 4.10187e+06 0 220668 4.09944e+06 0 224481 4.0971e+06 0 228333 4.09483e+06 0 232230 4.09266e+06 0 236176 4.09056e+06 0 240177 4.08855e+06 0 244239 4.08662e+06 0 248368 4.08478e+06 0 252570 4.08302e+06 0 256850 4.08134e+06 0 261216 4.07974e+06 0 265673 4.07823e+06 0 270228 4.0768e+06 0 274888 4.07545e+06 0 279660 4.07418e+06 0 284550 4.073e+06 0 289566 4.07189e+06 0 294716 4.07087e+06 0 300008 4.06992e+06 0 305449 4.06906e+06 0 311049 4.06827e+06 0 316815 4.06756e+06 0 322757 4.06693e+06 0 328884 4.06637e+06 0 335206 4.06588e+06 0 341733 4.06546e+06 0 348475 4.06512e+06 0 355443 4.06484e+06 0 362648 4.06462e+06 0 370103 4.06446e+06 0 377818 4.06436e+06 0 385807 4.0643e+06 0 394082 4.0643e+06 0 402658 4.06433e+06 0 411547 4.0644e+06 0 420763 4.0645e+06 0 430323 4.06461e+06 0 440239 4.06474e+06 0 450529 4.06486e+06 0 461207 4.06497e+06 0 472291 4.06506e+06 0 483795 4.0651e+06 0 495736 4.0651e+06 0 132132 4.16365e+06 0 136550 4.15953e+06 0 140883 4.1555e+06 0 145139 4.15156e+06 0 149324 4.1477e+06 0 153445 4.14393e+06 0 157507 4.14024e+06 0 161518 4.13663e+06 0 165482 4.13311e+06 0 169406 4.12967e+06 0 173296 4.12631e+06 0 177157 4.12303e+06 0 180995 4.11983e+06 0 184815 4.11672e+06 0 188623 4.11368e+06 0 192423 4.11072e+06 0 196223 4.10783e+06 0 200026 4.10503e+06 0 203838 4.1023e+06 0 207664 4.09965e+06 0 211510 4.09707e+06 0 215381 4.09457e+06 0 219282 4.09215e+06 0 223219 4.0898e+06 0 227197 4.08753e+06 0 231222 4.08533e+06 0 235299 4.0832e+06 0 239433 4.08115e+06 0 243631 4.07917e+06 0 247898 4.07727e+06 0 252240 4.07544e+06 0 256664 4.07368e+06 0 261175 4.07199e+06 0 265780 4.07037e+06 0 270484 4.06883e+06 0 275296 4.06735e+06 0 280221 4.06595e+06 0 285267 4.06461e+06 0 290441 4.06334e+06 0 295750 4.06214e+06 0 301202 4.06101e+06 0 306805 4.05994e+06 0 312567 4.05894e+06 0 318496 4.05799e+06 0 324602 4.05711e+06 0 330893 4.05629e+06 0 337378 4.05552e+06 0 344067 4.0548e+06 0 350970 4.05414e+06 0 358098 4.05352e+06 0 365460 4.05294e+06 0 373068 4.05241e+06 0 380933 4.05191e+06 0 389067 4.05143e+06 0 397481 4.05098e+06 0 406188 4.05055e+06 0 415200 4.05013e+06 0 424530 4.0497e+06 0 434192 4.04927e+06 0 444199 4.04883e+06 0 454563 4.04835e+06 0 465300 4.04783e+06 0 476423 4.04726e+06 0 487946 4.04662e+06 0 124492 4.15808e+06 0 129038 4.15408e+06 0 133498 4.15017e+06 0 137879 4.14632e+06 0 142186 4.14256e+06 0 146426 4.13887e+06 0 150605 4.13525e+06 0 154731 4.13171e+06 0 158807 4.12824e+06 0 162841 4.12484e+06 0 166838 4.12152e+06 0 170804 4.11826e+06 0 174744 4.11508e+06 0 178664 4.11197e+06 0 182569 4.10893e+06 0 186464 4.10596e+06 0 190356 4.10306e+06 0 194248 4.10023e+06 0 198147 4.09747e+06 0 202057 4.09477e+06 0 205984 4.09214e+06 0 209933 4.08958e+06 0 213910 4.08709e+06 0 217919 4.08466e+06 0 221967 4.0823e+06 0 226057 4.08e+06 0 230197 4.07777e+06 0 234391 4.07561e+06 0 238644 4.0735e+06 0 242964 4.07146e+06 0 247354 4.06949e+06 0 251822 4.06758e+06 0 256372 4.06573e+06 0 261012 4.06394e+06 0 265747 4.06221e+06 0 270584 4.06054e+06 0 275530 4.05893e+06 0 280590 4.05738e+06 0 285772 4.05588e+06 0 291083 4.05444e+06 0 296530 4.05306e+06 0 302120 4.05172e+06 0 307861 4.05044e+06 0 313762 4.04921e+06 0 319830 4.04803e+06 0 326073 4.04689e+06 0 332500 4.04579e+06 0 339120 4.04473e+06 0 345941 4.04371e+06 0 352974 4.04272e+06 0 360228 4.04176e+06 0 367713 4.04083e+06 0 375439 4.03991e+06 0 383415 4.03901e+06 0 391654 4.03811e+06 0 400166 4.03722e+06 0 408961 4.03632e+06 0 418052 4.03541e+06 0 427449 4.03448e+06 0 437165 4.03351e+06 0 447210 4.0325e+06 0 457598 4.03144e+06 0 468339 4.03031e+06 0 479447 4.0291e+06 0 116984 4.15225e+06 0 121643 4.14838e+06 0 126214 4.14458e+06 0 130704 4.14085e+06 0 135118 4.13718e+06 0 139463 4.13358e+06 0 143746 4.13004e+06 0 147973 4.12657e+06 0 152148 4.12316e+06 0 156279 4.11981e+06 0 160370 4.11653e+06 0 164428 4.11331e+06 0 168458 4.11015e+06 0 172465 4.10706e+06 0 176455 4.10402e+06 0 180433 4.10105e+06 0 184404 4.09814e+06 0 188374 4.09529e+06 0 192347 4.0925e+06 0 196329 4.08976e+06 0 200326 4.08709e+06 0 204341 4.08448e+06 0 208381 4.08192e+06 0 212451 4.07942e+06 0 216555 4.07698e+06 0 220700 4.0746e+06 0 224889 4.07227e+06 0 229130 4.07e+06 0 233427 4.06778e+06 0 237786 4.06562e+06 0 242211 4.06351e+06 0 246710 4.06146e+06 0 251287 4.05946e+06 0 255949 4.0575e+06 0 260701 4.05561e+06 0 265550 4.05375e+06 0 270501 4.05195e+06 0 275562 4.0502e+06 0 280738 4.04849e+06 0 286036 4.04683e+06 0 291463 4.04521e+06 0 297027 4.04363e+06 0 302733 4.0421e+06 0 308590 4.04059e+06 0 314605 4.03913e+06 0 320786 4.0377e+06 0 327140 4.0363e+06 0 333676 4.03492e+06 0 340402 4.03357e+06 0 347326 4.03224e+06 0 354458 4.03092e+06 0 361806 4.02962e+06 0 369380 4.02832e+06 0 377187 4.02703e+06 0 385240 4.02572e+06 0 393545 4.02441e+06 0 402115 4.02308e+06 0 410958 4.02172e+06 0 420085 4.02033e+06 0 429505 4.0189e+06 0 439229 4.01741e+06 0 449267 4.01585e+06 0 459630 4.01422e+06 0 470327 4.01251e+06 0 109625 4.14618e+06 0 114381 4.14245e+06 0 119047 4.13878e+06 0 123631 4.13516e+06 0 128137 4.13159e+06 0 132574 4.12808e+06 0 136946 4.12463e+06 0 141259 4.12123e+06 0 145520 4.11789e+06 0 149734 4.1146e+06 0 153907 4.11136e+06 0 158045 4.10818e+06 0 162152 4.10506e+06 0 166234 4.10198e+06 0 170296 4.09896e+06 0 174345 4.09599e+06 0 178384 4.09308