<?xml version="1.0"?> 
<VTKFile type="StructuredGrid" version="0.1"> 
<StructuredGrid WholeExtent="0 63 0 63 0 0"> 
<Piece Extent="0 63 0 63 0 0"> 
<PointData>
<DataArray type="Float32" Name="|E|" format="ascii" NumberOfComponents="3"> 
-5.30222e+06 5.30222e+06 0 -5.25323e+06 5.3826e+06 0 -5.20245e+06 5.46224e+06 0 -5.14991e+06 5.5411e+06 0 -5.0956e+06 5.61912e+06 0 -5.03954e+06 5.69625e+06 0 -4.98175e+06 5.77243e+06 0 -4.92223e+06 5.84762e+06 0 -4.861e+06 5.92176e+06 0 -4.79809e+06 5.99479e+06 0 -4.73351e+06 6.06668e+06 0 -4.66729e+06 6.13736e+06 0 -4.59944e+06 6.20679e+06 0 -4.52999e+06 6.2749e+06 0 -4.45897e+06 6.34166e+06 0 -4.38641e+06 6.407e+06 0 -4.31233e+06 6.47088e+06 0 -4.23677e+06 6.53325e+06 0 -4.15976e+06 6.59405e+06 0 -4.08133e+06 6.65324e+06 0 -4.00152e+06 6.71077e+06 0 -3.92037e+06 6.76659e+06 0 -3.83791e+06 6.82065e+06 0 -3.7542e+06 6.8729e+06 0 -3.66926e+06 6.9233e+06 0 -3.58314e+06 6.9718e+06 0 -3.4959e+06 7.01836e+06 0 -3.40757e+06 7.06292e+06 0 -3.3182e+06 7.10546e+06 0 -3.22784e+06 7.14593e+06 0 -3.13655e+06 7.18427e+06 0 -3.04437e+06 7.22046e+06 0 -2.95137e+06 7.25446e+06 0 -2.85758e+06 7.28622e+06 0 -2.76308e+06 7.31571e+06 0 -2.66792e+06 7.34289e+06 0 -2.57215e+06 7.36773e+06 0 -2.47584e+06 7.39018e+06 0 -2.37905e+06 7.41023e+06 0 -2.28183e+06 7.42782e+06 0 -2.18426e+06 7.44295e+06 0 -2.08639e+06 7.45556e+06 0 -1.9883e+06 7.46564e+06 0 -1.89004e+06 7.47316e+06 0 -1.79169e+06 7.47808e+06 0 -1.69331e+06 7.4804e+06 0 -1.59497e+06 7.48007e+06 0 -1.49674e+06 7.47709e+06 0 -1.3987e+06 7.47143e+06 0 -1.30091e+06 7.46309e+06 0 -1.20345e+06 7.45204e+06 0 -1.10639e+06 7.43831e+06 0 -1.00982e+06 7.42189e+06 0 -913798 7.40281e+06 0 -818413 7.38114e+06 0 -723741 7.35697e+06 0 -629863 7.33046e+06 0 -536857 7.30185e+06 0 -444798 7.27154e+06 0 -353753 7.24016e+06 0 -263771 7.20865e+06 0 -174868 7.17852e+06 0 -86997.1 7.15212e+06 0 1.93195e-06 7.13312e+06 0 -5.00677e+06 5.02011e+06 0 -4.96285e+06 5.09678e+06 0 -4.91711e+06 5.17276e+06 0 -4.86956e+06 5.24802e+06 0 -4.82021e+06 5.32248e+06 0 -4.76908e+06 5.39609e+06 0 -4.71619e+06 5.46878e+06 0 -4.66154e+06 5.5405e+06 0 -4.60517e+06 5.61118e+06 0 -4.54708e+06 5.68077e+06 0 -4.48732e+06 5.74921e+06 0 -4.42591e+06 5.81643e+06 0 -4.36287e+06 5.88237e+06 0 -4.29823e+06 5.94699e+06 0 -4.23204e+06 6.01021e+06 0 -4.16433e+06 6.07199e+06 0 -4.09513e+06 6.13227e+06 0 -4.02449e+06 6.19098e+06 0 -3.95245e+06 6.24809e+06 0 -3.87906e+06 6.30353e+06 0 -3.80436e+06 6.35725e+06 0 -3.72841e+06 6.40921e+06 0 -3.65125e+06 6.45934e+06 0 -3.57294e+06 6.50762e+06 0 -3.49353e+06 6.55398e+06 0 -3.41308e+06 6.59839e+06 0 -3.33165e+06 6.64081e+06 0 -3.2493e+06 6.68118e+06 0 -3.16609e+06 6.71948e+06 0 -3.08209e+06 6.75567e+06 0 -2.99735e+06 6.78971e+06 0 -2.91196e+06 6.82156e+06 0 -2.82597e+06 6.8512e+06 0 -2.73946e+06 6.8786e+06 0 -2.65248e+06 6.90374e+06 0 -2.56513e+06 6.92657e+06 0 -2.47746e+06 6.94709e+06 0 -2.38956e+06 6.96528e+06 0 -2.30149e+06 6.9811e+06 0 -2.21332e+06 6.99455e+06 0 -2.12515e+06 7.00561e+06 0 -2.03703e+06 7.01428e+06 0 -1.94905e+06 7.02052e+06 0 -1.86129e+06 7.02435e+06 0 -1.77381e+06 7.02575e+06 0 -1.6867e+06 7.02472e+06 0 -1.60003e+06 7.02124e+06 0 -1.51388e+06 7.01533e+06 0 -1.42832e+06 7.00697e+06 0 -1.34343e+06 6.99617e+06 0 -1.25928e+06 6.98292e+06 0 -1.17592e+06 6.96721e+06 0 -1.09344e+06 6.94905e+06 0 -1.01187e+06 6.9284e+06 0 -931268 6.90523e+06 0 -851668 6.87949e+06 0 -773084 6.85108e+06 0 -695508 6.81982e+06 0 -618899 6.78546e+06 0 -543176 6.74752e+06 0 -468208 6.70531e+06 0 -393797 6.65763e+06 0 -319683 6.60261e+06 0 -245503 6.5372e+06 0 -4.7431e+06 4.78195e+06 0 -4.70356e+06 4.85505e+06 0 -4.66218e+06 4.92755e+06 0 -4.619e+06 4.99938e+06 0 -4.574e+06 5.07047e+06 0 -4.52721e+06 5.14076e+06 0 -4.47865e+06 5.21018e+06 0 -4.42834e+06 5.27866e+06 0 -4.37629e+06 5.34613e+06 0 -4.32253e+06 5.41254e+06 0 -4.2671e+06 5.47781e+06 0 -4.21002e+06 5.54187e+06 0 -4.15133e+06 5.60467e+06 0 -4.09107e+06 5.66615e+06 0 -4.02927e+06 5.72623e+06 0 -3.96598e+06 5.78486e+06 0 -3.90125e+06 5.84198e+06 0 -3.83511e+06 5.89753e+06 0 -3.76763e+06 5.95145e+06 0 -3.69886e+06 6.00369e+06 0 -3.62885e+06 6.05419e+06 0 -3.55767e+06 6.10291e+06 0 -3.48537e+06 6.1498e+06 0 -3.41201e+06 6.19481e+06 0 -3.33766e+06 6.23789e+06 0 -3.26239e+06 6.27901e+06 0 -3.18627e+06 6.31812e+06 0 -3.10937e+06 6.35519e+06 0 -3.03176e+06 6.39019e+06 0 -2.95351e+06 6.42308e+06 0 -2.87471e+06 6.45383e+06 0 -2.79542e+06 6.48243e+06 0 -2.71572e+06 6.50885e+06 0 -2.6357e+06 6.53306e+06 0 -2.55542e+06 6.55506e+06 0 -2.47499e+06 6.57483e+06 0 -2.39446e+06 6.59235e+06 0 -2.31393e+06 6.60763e+06 0 -2.23348e+06 6.62066e+06 0 -2.15318e+06 6.63142e+06 0 -2.07313e+06 6.63994e+06 0 -1.9934e+06 6.6462e+06 0 -1.91407e+06 6.65022e+06 0 -1.83524e+06 6.652e+06 0 -1.75697e+06 6.65156e+06 0 -1.67935e+06 6.6489e+06 0 -1.60247e+06 6.64405e+06 0 -1.52641e+06 6.63702e+06 0 -1.45124e+06 6.62782e+06 0 -1.37705e+06 6.61649e+06 0 -1.30393e+06 6.60302e+06 0 -1.23195e+06 6.58745e+06 0 -1.16122e+06 6.5698e+06 0 -1.09181e+06 6.55007e+06 0 -1.02385e+06 6.5283e+06 0 -957426 6.50449e+06 0 -892686 6.47869e+06 0 -829782 6.45095e+06 0 -768912 6.42135e+06 0 -710325 6.39006e+06 0 -654345 6.3574e+06 0 -601404 6.32392e+06 0 -552056 6.29061e+06 0 -507073 6.25928e+06 0 -4.50672e+06 4.57873e+06 0 -4.47096e+06 4.64848e+06 0 -4.43338e+06 4.71769e+06 0 -4.39399e+06 4.7863e+06 0 -4.3528e+06 4.85423e+06 0 -4.30983e+06 4.92141e+06 0 -4.2651e+06 4.98777e+06 0 -4.21862e+06 5.05323e+06 0 -4.17043e+06 5.11774e+06 0 -4.12054e+06 5.1812e+06 0 -4.06898e+06 5.24357e+06 0 -4.0158e+06 5.30476e+06 0 -3.96103e+06 5.36471e+06 0 -3.90472e+06 5.42335e+06 0 -3.84689e+06 5.48062e+06 0 -3.78762e+06 5.53645e+06 0 -3.72693e+06 5.59078e+06 0 -3.6649e+06 5.64356e+06 0 -3.60157e+06 5.69471e+06 0 -3.537e+06 5.7442e+06 0 -3.47127e+06 5.79196e+06 0 -3.40443e+06 5.83794e+06 0 -3.33655e+06 5.8821e+06 0 -3.2677e+06 5.9244e+06 0 -3.19795e+06 5.96478e+06 0 -3.12738e+06 6.00322e+06 0 -3.05607e+06 6.03967e+06 0 -2.98409e+06 6.07411e+06 0 -2.91152e+06 6.10651e+06 0 -2.83844e+06 6.13684e+06 0 -2.76494e+06 6.16508e+06 0 -2.69109e+06 6.19122e+06 0 -2.61699e+06 6.21523e+06 0 -2.54271e+06 6.23712e+06 0 -2.46835e+06 6.25687e+06 0 -2.39398e+06 6.27448e+06 0 -2.3197e+06 6.28995e+06 0 -2.24558e+06 6.30329e+06 0 -2.17171e+06 6.31451e+06 0 -2.09818e+06 6.32361e+06 0 -2.02508e+06 6.33061e+06 0 -1.95248e+06 6.33554e+06 0 -1.88047e+06 6.33841e+06 0 -1.80913e+06 6.33925e+06 0 -1.73854e+06 6.33808e+06 0 -1.66879e+06 6.33495e+06 0 -1.59996e+06 6.32988e+06 0 -1.53212e+06 6.32292e+06 0 -1.46536e+06 6.31411e+06 0 -1.39976e+06 6.3035e+06 0 -1.33539e+06 6.29113e+06 0 -1.27233e+06 6.27706e+06 0 -1.21067e+06 6.26135e+06 0 -1.15047e+06 6.24408e+06 0 -1.09184e+06 6.22531e+06 0 -1.03482e+06 6.20514e+06 0 -979517 6.18365e+06 0 -925977 6.16096e+06 0 -874257 6.13716e+06 0 -824382 6.11236e+06 0 -776338 6.08662e+06 0 -730046 6.05991e+06 0 -685334 6.03197e+06 0 -641873 6.00216e+06 0 -4.29402e+06 4.40379e+06 0 -4.26152e+06 4.4704e+06 0 -4.22723e+06 4.53654e+06 0 -4.19116e+06 4.60214e+06 0 -4.15331e+06 4.66711e+06 0 -4.1137e+06 4.7314e+06 0 -4.07234e+06 4.79491e+06 0 -4.02926e+06 4.85759e+06 0 -3.98449e+06 4.91934e+06 0 -3.93804e+06 4.98011e+06 0 -3.88996e+06 5.03981e+06 0 -3.84027e+06 5.09838e+06 0 -3.78902e+06 5.15574e+06 0 -3.73626e+06 5.21183e+06 0 -3.68203e+06 5.26657e+06 0 -3.62638e+06 5.31991e+06 0 -3.56936e+06 5.37177e+06 0 -3.51104e+06 5.42211e+06 0 -3.45147e+06 5.47085e+06 0 -3.39072e+06 5.51794e+06 0 -3.32886e+06 5.56334e+06 0 -3.26596e+06 5.60699e+06 0 -3.20208e+06 5.64885e+06 0 -3.13731e+06 5.68887e+06 0 -3.07172e+06 5.72702e+06 0 -3.0054e+06 5.76326e+06 0 -2.93841e+06 5.79756e+06 0 -2.87085e+06 5.82988e+06 0 -2.8028e+06 5.86022e+06 0 -2.73434e+06 5.88855e+06 0 -2.66557e+06 5.91485e+06 0 -2.59656e+06 5.93912e+06 0 -2.5274e+06 5.96135e+06 0 -2.45819e+06 5.98154e+06 0 -2.38901e+06 5.99969e+06 0 -2.31994e+06 6.0158e+06 0 -2.25107e+06 6.02989e+06 0 -2.18249e+06 6.04197e+06 0 -2.11429e+06 6.05207e+06 0 -2.04654e+06 6.0602e+06 0 -1.97933e+06 6.0664e+06 0 -1.91275e+06 6.07069e+06 0 -1.84686e+06 6.07311e+06 0 -1.78176e+06 6.0737e+06 0 -1.71751e+06 6.0725e+06 0 -1.65419e+06 6.06956e+06 0 -1.59187e+06 6.06493e+06 0 -1.53063e+06 6.05867e+06 0 -1.47052e+06 6.05084e+06 0 -1.41162e+06 6.04149e+06 0 -1.35398e+06 6.0307e+06 0 -1.29766e+06 6.01853e+06 0 -1.24272e+06 6.00506e+06 0 -1.18921e+06 5.99037e+06 0 -1.13717e+06 5.97453e+06 0 -1.08664e+06 5.95764e+06 0 -1.03766e+06 5.93978e+06 0 -990253 5.92104e+06 0 -944443 5.9015e+06 0 -900256 5.88127e+06 0 -857723 5.86045e+06 0 -816895 5.83921e+06 0 -777859 5.81783e+06 0 -740774 5.7968e+06 0 -4.10185e+06 4.25188e+06 0 -4.07218e+06 4.31556e+06 0 -4.04075e+06 4.37884e+06 0 -4.00757e+06 4.44164e+06 0 -3.97264e+06 4.50387e+06 0 -3.93598e+06 4.56547e+06 0 -3.89761e+06 4.62635e+06 0 -3.85754e+06 4.68645e+06 0 -3.8158e+06 4.74567e+06 0 -3.77243e+06 4.80395e+06 0 -3.72744e+06 4.86122e+06 0 -3.68089e+06 4.91739e+06 0 -3.6328e+06 4.9724e+06 0 -3.58324e+06 5.02617e+06 0 -3.53224e+06 5.07864e+06 0 -3.47986e+06 5.12974e+06 0 -3.42615e+06 5.17941e+06 0 -3.37119e+06 5.22758e+06 0 -3.31502e+06 5.2742e+06 0 -3.25773e+06 5.31921e+06 0 -3.19937e+06 5.36256e+06 0 -3.14003e+06 5.40421e+06 0 -3.07977e+06 5.4441e+06 0 -3.01868e+06 5.4822e+06 0 -2.95684e+06 5.51848e+06 0 -2.89433e+06 5.55289e+06 0 -2.83123e+06 5.58542e+06 0 -2.76763e+06 5.61604e+06 0 -2.70362e+06 5.64473e+06 0 -2.63928e+06 5.67148e+06 0 -2.5747e+06 5.69628e+06 0 -2.50997e+06 5.71913e+06 0 -2.44518e+06 5.74002e+06 0 -2.38042e+06 5.75896e+06 0 -2.31577e+06 5.77596e+06 0 -2.25131e+06 5.79104e+06 0 -2.18714e+06 5.80422e+06 0 -2.12334e+06 5.81551e+06 0 -2.05999e+06 5.82495e+06 0 -1.99717e+06 5.83257e+06 0 -1.93496e+06 5.8384e+06 0 -1.87344e+06 5.84249e+06 0 -1.81268e+06 5.84487e+06 0 -1.75274e+06 5.84561e+06 0 -1.69371e+06 5.84475e+06 0 -1.63563e+06 5.84234e+06 0 -1.57858e+06 5.83845e+06 0 -1.52261e+06 5.83314e+06 0 -1.46778e+06 5.82647e+06 0 -1.41413e+06 5.81851e+06 0 -1.3617e+06 5.80934e+06 0 -1.31055e+06 5.79902e+06 0 -1.26071e+06 5.78764e+06 0 -1.21219e+06 5.77527e+06 0 -1.16504e+06 5.76198e+06 0 -1.11927e+06 5.74787e+06 0 -1.0749e+06 5.73301e+06 0 -1.03193e+06 5.71748e+06 0 -990359 5.70137e+06 0 -950190 5.68476e+06 0 -911398 5.66772e+06 0 -873946 5.6503e+06 0 -837763 5.63249e+06 0 -802726 5.61415e+06 0 -3.92757e+06 4.11888e+06 0 -3.90035e+06 4.17986e+06 0 -3.87141e+06 4.24049e+06 0 -3.84075e+06 4.30068e+06 0 -3.80838e+06 4.36038e+06 0 -3.77432e+06 4.41949e+06 0 -3.73858e+06 4.47793e+06 0 -3.70118e+06 4.53564e+06 0 -3.66215e+06 4.59254e+06 0 -3.62151e+06 4.64853e+06 0 -3.57929e+06 4.70356e+06 0 -3.53554e+06 4.75754e+06 0 -3.49029e+06 4.81041e+06 0 -3.4436e+06 4.86208e+06 0 -3.39551e+06 4.9125e+06 0 -3.34608e+06 4.96159e+06 0 -3.29537e+06 5.00929e+06 0 -3.24343e+06 5.05554e+06 0 -3.19034e+06 5.10028e+06 0 -3.13616e+06 5.14346e+06 0 -3.08097e+06 5.18502e+06 0 -3.02484e+06 5.22493e+06 0 -2.96785e+06 5.26313e+06 0 -2.91008e+06 5.2996e+06 0 -2.85161e+06 5.33429e+06 0 -2.79253e+06 5.36718e+06 0 -2.73292e+06 5.39824e+06 0 -2.67287e+06 5.42746e+06 0 -2.61246e+06 5.45482e+06 0 -2.55179e+06 5.48032e+06 0 -2.49094e+06 5.50394e+06 0 -2.43e+06 5.52569e+06 0 -2.36905e+06 5.54557e+06 0 -2.3082e+06 5.5636e+06 0 -2.24751e+06 5.57979e+06 0 -2.18708e+06 5.59416e+06 0 -2.12698e+06 5.60674e+06 0 -2.0673e+06 5.61755e+06 0 -2.00812e+06 5.62663e+06 0 -1.94951e+06 5.63403e+06 0 -1.89155e+06 5.63977e+06 0 -1.8343e+06 5.64391e+06 0 -1.77783e+06 5.6465e+06 0 -1.7222e+06 5.64759e+06 0 -1.66748e+06 5.64724e+06 0 -1.61372e+06 5.6455e+06 0 -1.56096e+06 5.64245e+06 0 -1.50927e+06 5.63814e+06 0 -1.45867e+06 5.63264e+06 0 -1.4092e+06 5.62602e+06 0 -1.36091e+06 5.61836e+06 0 -1.31381e+06 5.60971e+06 0 -1.26793e+06 5.60016e+06 0 -1.22329e+06 5.58978e+06 0 -1.17989e+06 5.57864e+06 0 -1.13775e+06 5.56681e+06 0 -1.09687e+06 5.55435e+06 0 -1.05725e+06 5.54135e+06 0 -1.01887e+06 5.52787e+06 0 -981731 5.51396e+06 0 -945817 5.49969e+06 0 -911120 5.48513e+06 0 -877641 5.47037e+06 0 -845404 5.45557e+06 0 -3.76892e+06 4.00155e+06 0 -3.74381e+06 4.06002e+06 0 -3.71704e+06 4.11819e+06 0 -3.68859e+06 4.17598e+06 0 -3.65847e+06 4.23332e+06 0 -3.6267e+06 4.29013e+06 0 -3.59329e+06 4.34633e+06 0 -3.55826e+06 4.40184e+06 0 -3.52162e+06 4.45659e+06 0 -3.48342e+06 4.51049e+06 0 -3.44368e+06 4.56346e+06 0 -3.40244e+06 4.61544e+06 0 -3.35974e+06 4.66635e+06 0 -3.31563e+06 4.71612e+06 0 -3.27016e+06 4.76467e+06 0 -3.22339e+06 4.81195e+06 0 -3.17537e+06 4.85788e+06 0 -3.12617e+06 4.90241e+06 0 -3.07586e+06 4.94548e+06 0 -3.0245e+06 4.98704e+06 0 -2.97216e+06 5.02703e+06 0 -2.91894e+06 5.06542e+06 0 -2.86489e+06 5.10216e+06 0 -2.81011e+06 5.13721e+06 0 -2.75468e+06 5.17056e+06 0 -2.69868e+06 5.20216e+06 0 -2.64219e+06 5.23199e+06 0 -2.58532e+06 5.26005e+06 0 -2.52813e+06 5.28633e+06 0 -2.47073e+06 5.31081e+06 0 -2.41319e+06 5.33349e+06 0 -2.35561e+06 5.35439e+06 0 -2.29806e+06 5.3735e+06 0 -2.24064e+06 5.39085e+06 0 -2.18343e+06 5.40646e+06 0 -2.12651e+06 5.42035e+06 0 -2.06996e+06 5.43255e+06 0 -2.01385e+06 5.44309e+06 0 -1.95827e+06 5.45202e+06 0 -1.90327e+06 5.45937e+06 0 -1.84893e+06 5.46519e+06 0 -1.79531e+06 5.46952e+06 0 -1.74247e+06 5.47244e+06 0 -1.69046e+06 5.47398e+06 0 -1.63935e+06 5.4742e+06 0 -1.58917e+06 5.47318e+06 0 -1.53996e+06 5.47096e+06 0 -1.49178e+06 5.46762e+06 0 -1.44464e+06 5.46322e+06 0 -1.39858e+06 5.45782e+06 0 -1.35362e+06 5.4515e+06 0 -1.30978e+06 5.44432e+06 0 -1.26708e+06 5.43635e+06 0 -1.22553e+06 5.42765e+06 0 -1.18512e+06 5.41829e+06 0 -1.14586e+06 5.40834e+06 0 -1.10776e+06 5.39786e+06 0 -1.07079e+06 5.3869e+06 0 -1.03496e+06 5.37553e+06 0 -1.00024e+06 5.3638e+06 0 -966624 5.35177e+06 0 -934082 5.33949e+06 0 -902584 5.32699e+06 0 -872077 5.31426e+06 0 -3.62394e+06 3.89728e+06 0 -3.60069e+06 3.95343e+06 0 -3.5758e+06 4.00933e+06 0 -3.54929e+06 4.0649e+06 0 -3.52115e+06 4.12007e+06 0 -3.4914e+06 4.17476e+06 0 -3.46005e+06 4.22888e+06 0 -3.42711e+06 4.28236e+06 0 -3.39262e+06 4.33513e+06 0 -3.35659e+06 4.38709e+06 0 -3.31907e+06 4.43819e+06 0 -3.28008e+06 4.48833e+06 0 -3.23967e+06 4.53745e+06 0 -3.19789e+06 4.58548e+06 0 -3.15478e+06 4.63234e+06 0 -3.1104e+06 4.67797e+06 0 -3.06482e+06 4.72231e+06 0 -3.01809e+06 4.7653e+06 0 -2.97028e+06 4.80688e+06 0 -2.92147e+06 4.84699e+06 0 -2.87172e+06 4.88559e+06 0 -2.82111e+06 4.92264e+06 0 -2.76972e+06 4.9581e+06 0 -2.71764e+06 4.99194e+06 0 -2.66494e+06 5.02411e+06 0 -2.61171e+06 5.05461e+06 0 -2.55804e+06 5.08342e+06 0 -2.50401e+06 5.11051e+06 0 -2.4497e+06 5.13588e+06 0 -2.39521e+06 5.15953e+06 0 -2.34063e+06 5.18146e+06 0 -2.28602e+06 5.20169e+06 0 -2.23149e+06 5.22021e+06 0 -2.17711e+06 5.23706e+06 0 -2.12296e+06 5.25225e+06 0 -2.06911e+06 5.26582e+06 0 -2.01566e+06 5.27778e+06 0 -1.96266e+06 5.28819e+06 0 -1.91019e+06 5.29708e+06 0 -1.85831e+06 5.3045e+06 0 -1.80708e+06 5.31048e+06 0 -1.75657e+06 5.3151e+06 0 -1.70682e+06 5.31839e+06 0 -1.65789e+06 5.32041e+06 0 -1.60983e+06 5.32123e+06 0 -1.56266e+06 5.32089e+06 0 -1.51643e+06 5.31948e+06 0 -1.47117e+06 5.31703e+06 0 -1.42691e+06 5.31363e+06 0 -1.38367e+06 5.30933e+06 0 -1.34147e+06 5.30419e+06 0 -1.30031e+06 5.29829e+06 0 -1.26022e+06 5.29167e+06 0 -1.22119e+06 5.28441e+06 0 -1.18323e+06 5.27656e+06 0 -1.14633e+06 5.26817e+06 0 -1.11048e+06 5.25931e+06 0 -1.07569e+06 5.25003e+06 0 -1.04193e+06 5.24038e+06 0 -1.00919e+06 5.23041e+06 0 -977450 5.22016e+06 0 -946697 5.20968e+06 0 -916912 5.19901e+06 0 -888083 5.18823e+06 0 -3.49101e+06 3.80397e+06 0 -3.46936e+06 3.85798e+06 0 -3.44612e+06 3.91178e+06 0 -3.42131e+06 3.9653e+06 0 -3.39491e+06 4.01847e+06 0 -3.36695e+06 4.07119e+06 0 -3.33742e+06 4.1234e+06 0 -3.30636e+06 4.17502e+06 0 -3.27377e+06 4.22596e+06 0 -3.23969e+06 4.27615e+06 0 -3.20415e+06 4.32551e+06 0 -3.16718e+06 4.37397e+06 0 -3.12883e+06 4.42145e+06 0 -3.08914e+06 4.46789e+06 0 -3.04816e+06 4.51321e+06 0 -3.00595e+06 4.55735e+06 0 -2.96256e+06 4.60025e+06 0 -2.91807e+06 4.64184e+06 0 -2.87253e+06 4.68208e+06 0 -2.82601e+06 4.7209e+06 0 -2.7786e+06 4.75827e+06 0 -2.73036e+06 4.79413e+06 0 -2.68138e+06 4.82846e+06 0 -2.63173e+06 4.86123e+06 0 -2.5815e+06 4.8924e+06 0 -2.53076e+06 4.92195e+06 0 -2.47962e+06 4.94986e+06 0 -2.42814e+06 4.97613e+06 0 -2.37642e+06 5.00075e+06 0 -2.32454e+06 5.02372e+06 0 -2.27259e+06 5.04505e+06 0 -2.22064e+06 5.06473e+06 0 -2.16877e+06 5.0828e+06 0 -2.11708e+06 5.09927e+06 0 -2.06563e+06 5.11416e+06 0 -2.0145e+06 5.12751e+06 0 -1.96376e+06 5.13935e+06 0 -1.91349e+06 5.14971e+06 0 -1.86373e+06 5.15864e+06 0 -1.81456e+06 5.16619e+06 0 -1.76604e+06 5.1724e+06 0 -1.71821e+06 5.17732e+06 0 -1.67112e+06 5.181e+06 0 -1.62483e+06 5.18351e+06 0 -1.57937e+06 5.1849e+06 0 -1.53477e+06 5.18523e+06 0 -1.49107e+06 5.18455e+06 0 -1.44829e+06 5.18293e+06 0 -1.40646e+06 5.18042e+06 0 -1.36559e+06 5.1771e+06 0 -1.3257e+06 5.173e+06 0 -1.28679e+06 5.16821e+06 0 -1.24888e+06 5.16276e+06 0 -1.21196e+06 5.15672e+06 0 -1.17604e+06 5.15015e+06 0 -1.14111e+06 5.14309e+06 0 -1.10715e+06 5.1356e+06 0 -1.07417e+06 5.12772e+06 0 -1.04215e+06 5.1195e+06 0 -1.01107e+06 5.11098e+06 0 -980914 5.10222e+06 0 -951667 5.09323e+06 0 -923306 5.08407e+06 0 -895803 5.07475e+06 0 -3.3687e+06 3.71992e+06 0 -3.34844e+06 3.77196e+06 0 -3.32665e+06 3.82383e+06 0 -3.30333e+06 3.87546e+06 0 -3.27847e+06 3.92677e+06 0 -3.25209e+06 3.97769e+06 0 -3.22419e+06 4.02813e+06 0 -3.19478e+06 4.07802e+06 0 -3.1639e+06 4.12728e+06 0 -3.13156e+06 4.17583e+06 0 -3.0978e+06 4.2236e+06 0 -3.06265e+06 4.27052e+06 0 -3.02615e+06 4.3165e+06 0 -2.98834e+06 4.36148e+06 0 -2.94929e+06 4.4054e+06 0 -2.90903e+06 4.44818e+06 0 -2.86764e+06 4.48976e+06 0 -2.82516e+06 4.53009e+06 0 -2.78168e+06 4.56912e+06 0 -2.73725e+06 4.60678e+06 0 -2.69195e+06 4.64304e+06 0 -2.64585e+06 4.67785e+06 0 -2.59904e+06 4.71119e+06 0 -2.5516e+06 4.74301e+06 0 -2.50359e+06 4.77329e+06 0 -2.45511e+06 4.80202e+06 0 -2.40624e+06 4.82917e+06 0 -2.35707e+06 4.85474e+06 0 -2.30767e+06 4.87872e+06 0 -2.25813e+06 4.90112e+06 0 -2.20853e+06 4.92195e+06 0 -2.15895e+06 4.9412e+06 0 -2.10947e+06 4.95891e+06 0 -2.06017e+06 4.97509e+06 0 -2.01112e+06 4.98977e+06 0 -1.96239e+06 5.00298e+06 0 -1.91405e+06 5.01475e+06 0 -1.86617e+06 5.02513e+06 0 -1.8188e+06 5.03415e+06 0 -1.772e+06 5.04187e+06 0 -1.72583e+06 5.04832e+06 0 -1.68034e+06 5.05356e+06 0 -1.63557e+06 5.05765e+06 0 -1.59156e+06 5.06062e+06 0 -1.54834e+06 5.06256e+06 0 -1.50595e+06 5.06349e+06 0 -1.46442e+06 5.0635e+06 0 -1.42377e+06 5.06262e+06 0 -1.38401e+06 5.06092e+06 0 -1.34517e+06 5.05846e+06 0 -1.30725e+06 5.05529e+06 0 -1.27026e+06 5.05146e+06 0 -1.23421e+06 5.04703e+06 0 -1.19909e+06 5.04206e+06 0 -1.1649e+06 5.03658e+06 0 -1.13164e+06 5.03066e+06 0 -1.09929e+06 5.02433e+06 0 -1.06785e+06 5.01764e+06 0 -1.0373e+06 5.01063e+06 0 -1.00764e+06 5.00334e+06 0 -978835 4.99582e+06 0 -950878 4.98808e+06 0 -923749 4.98018e+06 0 -897430 4.97213e+06 0 -3.25578e+06 3.64375e+06 0 -3.23675e+06 3.69397e+06 0 -3.21623e+06 3.74406e+06 0 -3.19422e+06 3.79394e+06 0 -3.17072e+06 3.84355e+06 0 -3.14574e+06 3.89279e+06 0 -3.11928e+06 3.9416e+06 0 -3.09136e+06 3.9899e+06 0 -3.062e+06 4.03761e+06 0 -3.03122e+06 4.08466e+06 0 -2.99906e+06 4.13096e+06 0 -2.96554e+06 4.17645e+06 0 -2.93071e+06 4.22106e+06 0 -2.89461e+06 4.26471e+06 0 -2.8573e+06 4.30733e+06 0 -2.81881e+06 4.34887e+06 0 -2.77922e+06 4.38926e+06 0 -2.73857e+06 4.42845e+06 0 -2.69695e+06 4.46637e+06 0 -2.65441e+06 4.50299e+06 0 -2.61103e+06 4.53825e+06 0 -2.56688e+06 4.57212e+06 0 -2.52204e+06 4.60457e+06 0 -2.47658e+06 4.63555e+06 0 -2.4306e+06 4.66506e+06 0 -2.38416e+06 4.69306e+06 0 -2.33735e+06 4.71955e+06 0 -2.29025e+06 4.74452e+06 0 -2.24294e+06 4.76796e+06 0 -2.1955e+06 4.78988e+06 0 -2.14802e+06 4.81029e+06 0 -2.10057e+06 4.82919e+06 0 -2.05322e+06 4.84661e+06 0 -2.00606e+06 4.86258e+06 0 -1.95914e+06 4.8771e+06 0 -1.91255e+06 4.89023e+06 0 -1.86634e+06 4.90199e+06 0 -1.82057e+06 4.91242e+06 0 -1.77531e+06 4.92156e+06 0 -1.73061e+06 4.92946e+06 0 -1.68651e+06 4.93617e+06 0 -1.64306e+06 4.94173e+06 0 -1.60031e+06 4.9462e+06 0 -1.55829e+06 4.94963e+06 0 -1.51704e+06 4.95206e+06 0 -1.47657e+06 4.95357e+06 0 -1.43693e+06 4.95419e+06 0 -1.39812e+06 4.95399e+06 0 -1.36016e+06 4.95302e+06 0 -1.32307e+06 4.95133e+06 0 -1.28685e+06 4.94897e+06 0 -1.25151e+06 4.946e+06 0 -1.21706e+06 4.94247e+06 0 -1.18349e+06 4.93842e+06 0 -1.15079e+06 4.9339e+06 0 -1.11897e+06 4.92895e+06 0 -1.08801e+06 4.92363e+06 0 -1.0579e+06 4.91796e+06 0 -1.02863e+06 4.91199e+06 0 -1.00019e+06 4.90576e+06 0 -972557 4.8993e+06 0 -945721 4.89263e+06 0 -919661 4.8858e+06 0 -894357 4.87882e+06 0 -3.15122e+06 3.57432e+06 0 -3.13325e+06 3.62287e+06 0 -3.11385e+06 3.67131e+06 0 -3.09299e+06 3.71958e+06 0 -3.0707e+06 3.7676e+06 0 -3.04696e+06 3.81531e+06 0 -3.02179e+06 3.86261e+06 0 -2.99519e+06 3.90944e+06 0 -2.9672e+06 3.95572e+06 0 -2.93782e+06 4.00137e+06 0 -2.9071e+06 4.04633e+06 0 -2.87506e+06 4.09051e+06 0 -2.84173e+06 4.13385e+06 0 -2.80718e+06 4.17627e+06 0 -2.77143e+06 4.21772e+06 0 -2.73455e+06 4.25812e+06 0 -2.69659e+06 4.29742e+06 0 -2.65761e+06 4.33556e+06 0 -2.61768e+06 4.37249e+06 0 -2.57686e+06 4.40816e+06 0 -2.53522e+06 4.44252e+06 0 -2.49283e+06 4.47555e+06 0 -2.44978e+06 4.50719e+06 0 -2.40614e+06 4.53743e+06 0 -2.36198e+06 4.56625e+06 0 -2.31739e+06 4.59361e+06 0 -2.27244e+06 4.61952e+06 0 -2.22722e+06 4.64397e+06 0 -2.1818e+06 4.66694e+06 0 -2.13626e+06 4.68846e+06 0 -2.09069e+06 4.70851e+06 0 -2.04515e+06 4.72713e+06 0 -1.99972e+06 4.74433e+06 0 -1.95447e+06 4.76012e+06 0 -1.90947e+06 4.77454e+06 0 -1.86478e+06 4.78763e+06 0 -1.82046e+06 4.7994e+06 0 -1.77659e+06 4.80991e+06 0 -1.7332e+06 4.81919e+06 0 -1.69035e+06 4.82729e+06 0 -1.64808e+06 4.83425e+06 0 -1.60645e+06 4.84013e+06 0 -1.56548e+06 4.84496e+06 0 -1.52522e+06 4.84881e+06 0 -1.48568e+06 4.85172e+06 0 -1.44691e+06 4.85375e+06 0 -1.40891e+06 4.85494e+06 0 -1.37171e+06 4.85535e+06 0 -1.33533e+06 4.85503e+06 0 -1.29977e+06 4.85404e+06 0 -1.26503e+06 4.85241e+06 0 -1.23114e+06 4.8502e+06 0 -1.19808e+06 4.84746e+06 0 -1.16585e+06 4.84422e+06 0 -1.13446e+06 4.84054e+06 0 -1.10389e+06 4.83646e+06 0 -1.07414e+06 4.83201e+06 0 -1.04519e+06 4.82724e+06 0 -1.01704e+06 4.82218e+06 0 -989670 4.81686e+06 0 -963065 4.81131e+06 0 -937211 4.80557e+06 0 -912092 4.79966e+06 0 -887689 4.79362e+06 0 -3.0541e+06 3.51069e+06 0 -3.03706e+06 3.55769e+06 0 -3.01864e+06 3.60461e+06 0 -2.99881e+06 3.6514e+06 0 -2.97758e+06 3.69796e+06 0 -2.95495e+06 3.74424e+06 0 -2.93092e+06 3.79015e+06 0 -2.90551e+06 3.83562e+06 0 -2.87874e+06 3.88058e+06 0 -2.85063e+06 3.92495e+06 0 -2.8212e+06 3.96866e+06 0 -2.79049e+06 4.01164e+06 0 -2.75853e+06 4.05381e+06 0 -2.72537e+06 4.09511e+06 0 -2.69105e+06 4.13547e+06 0 -2.65563e+06 4.17483e+06 0 -2.61915e+06 4.21313e+06 0 -2.58169e+06 4.25032e+06 0 -2.54329e+06 4.28634e+06 0 -2.50403e+06 4.32114e+06 0 -2.46398e+06 4.35469e+06 0 -2.4232e+06 4.38695e+06 0 -2.38178e+06 4.41788e+06 0 -2.33978e+06 4.44745e+06 0 -2.29728e+06 4.47565e+06 0 -2.25437e+06 4.50246e+06 0 -2.21111e+06 4.52785e+06 0 -2.16759e+06 4.55184e+06 0 -2.12389e+06 4.57441e+06 0 -2.08007e+06 4.59558e+06 0 -2.03622e+06 4.61534e+06 0 -1.99241e+06 4.63372e+06 0 -1.9487e+06 4.65073e+06 0 -1.90518e+06 4.6664e+06 0 -1.86189e+06 4.68075e+06 0 -1.81892e+06 4.69382e+06 0 -1.7763e+06 4.70564e+06 0 -1.73411e+06 4.71624e+06 0 -1.6924e+06 4.72567e+06 0 -1.6512e+06 4.73397e+06 0 -1.61057e+06 4.74118e+06 0 -1.57054e+06 4.74736e+06 0 -1.53116e+06 4.75254e+06 0 -1.49245e+06 4.75679e+06 0 -1.45444e+06 4.76014e+06 0 -1.41716e+06 4.76264e+06 0 -1.38062e+06 4.76436e+06 0 -1.34485e+06 4.76533e+06 0 -1.30985e+06 4.7656e+06 0 -1.27563e+06 4.76523e+06 0 -1.24221e+06 4.76426e+06 0 -1.20958e+06 4.76273e+06 0 -1.17775e+06 4.76069e+06 0 -1.14671e+06 4.75819e+06 0 -1.11647e+06 4.75526e+06 0 -1.087e+06 4.75194e+06 0 -1.05832e+06 4.74826e+06 0 -1.03039e+06 4.74428e+06 0 -1.00323e+06 4.74001e+06 0 -976799 4.73549e+06 0 -951102 4.73076e+06 0 -926118 4.72583e+06 0 -901832 4.72073e+06 0 -878227 4.7155e+06 0 -2.96363e+06 3.45208e+06 0 -2.94741e+06 3.49764e+06 0 -2.92985e+06 3.54317e+06 0 -2.91093e+06 3.58857e+06 0 -2.89064e+06 3.63379e+06 0 -2.869e+06 3.67875e+06 0 -2.846e+06 3.72338e+06 0 -2.82165e+06 3.7676e+06 0 -2.79598e+06 3.81133e+06 0 -2.769e+06 3.85452e+06 0 -2.74075e+06 3.89708e+06 0 -2.71124e+06 3.93894e+06 0 -2.68052e+06 3.98003e+06 0 -2.64862e+06 4.0203e+06 0 -2.6156e+06 4.05966e+06 0 -2.5815e+06 4.09806e+06 0 -2.54638e+06 4.13545e+06 0 -2.51029e+06 4.17176e+06 0 -2.47329e+06 4.20695e+06 0 -2.43545e+06 4.24098e+06 0 -2.39685e+06 4.27379e+06 0 -2.35753e+06 4.30535e+06 0 -2.31759e+06 4.33563e+06 0 -2.27709e+06 4.36461e+06 0 -2.23611e+06 4.39225e+06 0 -2.19473e+06 4.41856e+06 0 -2.15301e+06 4.4435e+06 0 -2.11104e+06 4.46709e+06 0 -2.06889e+06 4.48931e+06 0 -2.02663e+06 4.51017e+06 0 -1.98434e+06 4.52969e+06 0 -1.9421e+06 4.54787e+06 0 -1.89995e+06 4.56474e+06 0 -1.85799e+06 4.58031e+06 0 -1.81625e+06 4.59462e+06 0 -1.77482e+06 4.60769e+06 0 -1.73374e+06 4.61956e+06 0 -1.69307e+06 4.63027e+06 0 -1.65285e+06 4.63985e+06 0 -1.61314e+06 4.64835e+06 0 -1.57397e+06 4.65581e+06 0 -1.53538e+06 4.66228e+06 0 -1.49741e+06 4.66779e+06 0 -1.46009e+06 4.67241e+06 0 -1.42344e+06 4.67617e+06 0 -1.38749e+06 4.67912e+06 0 -1.35225e+06 4.68131e+06 0 -1.31774e+06 4.6828e+06 0 -1.28397e+06 4.68361e+06 0 -1.25095e+06 4.68381e+06 0 -1.21869e+06 4.68343e+06 0 -1.18719e+06 4.68252e+06 0 -1.15645e+06 4.68112e+06 0 -1.12646e+06 4.67927e+06 0 -1.09723e+06 4.677e+06 0 -1.06875e+06 4.67436e+06 0 -1.04101e+06 4.67139e+06 0 -1.014e+06 4.6681e+06 0 -987704 4.66454e+06 0 -962120 4.66074e+06 0 -937230 4.65672e+06 0 -913022 4.65251e+06 0 -889481 4.64814e+06 0 -866591 4.64362e+06 0 -2.87912e+06 3.39781e+06 0 -2.86363e+06 3.44207e+06 0 -2.84683e+06 3.48629e+06 0 -2.82871e+06 3.53043e+06 0 -2.80926e+06 3.5744e+06 0 -2.7885e+06 3.61814e+06 0 -2.76641e+06 3.66158e+06 0 -2.74302e+06 3.70464e+06 0 -2.71834e+06 3.74725e+06 0 -2.69239e+06 3.78934e+06 0 -2.66519e+06 3.83083e+06 0 -2.63677e+06 3.87166e+06 0 -2.60717e+06 3.91177e+06 0 -2.57643e+06 3.95107e+06 0 -2.54458e+06 3.98952e+06 0 -2.51169e+06 4.02704e+06 0 -2.4778e+06 4.06359e+06 0 -2.44296e+06 4.0991e+06 0 -2.40724e+06 4.13353e+06 0 -2.37071e+06 4.16684e+06 0 -2.33342e+06 4.19898e+06 0 -2.29545e+06 4.22991e+06 0 -2.25686e+06 4.2596e+06 0 -2.21773e+06 4.28804e+06 0 -2.17813e+06 4.31519e+06 0 -2.13814e+06 4.34105e+06 0 -2.09783e+06 4.36559e+06 0 -2.05727e+06 4.38882e+06 0 -2.01653e+06 4.41073e+06 0 -1.9757e+06 4.43134e+06 0 -1.93483e+06 4.45064e+06 0 -1.894e+06 4.46866e+06 0 -1.85328e+06 4.48541e+06 0 -1.81272e+06 4.50091e+06 0 -1.7724e+06 4.5152e+06 0 -1.73236e+06 4.52829e+06 0 -1.69266e+06 4.54023e+06 0 -1.65336e+06 4.55105e+06 0 -1.61449e+06 4.56079e+06 0 -1.57612e+06 4.56949e+06 0 -1.53826e+06 4.57719e+06 0 -1.50097e+06 4.58393e+06 0 -1.46427e+06 4.58976e+06 0 -1.4282e+06 4.59472e+06 0 -1.39277e+06 4.59886e+06 0 -1.358e+06 4.60223e+06 0 -1.32392e+06 4.60487e+06 0 -1.29055e+06 4.60682e+06 0 -1.25788e+06 4.60814e+06 0 -1.22593e+06 4.60886e+06 0 -1.19471e+06 4.60902e+06 0 -1.16422e+06 4.60867e+06 0 -1.13445e+06 4.60784e+06 0 -1.10541e+06 4.60658e+06 0 -1.07708e+06 4.60492e+06 0 -1.04948e+06 4.6029e+06 0 -1.02258e+06 4.60055e+06 0 -996385 4.5979e+06 0 -970877 4.59498e+06 0 -946047 4.59182e+06 0 -921883 4.58844e+06 0 -898372 4.58488e+06 0 -875500 4.58115e+06 0 -853253 4.57728e+06 0 -2.79999e+06 3.34736e+06 0 -2.78512e+06 3.39039e+06 0 -2.76899e+06 3.43342e+06 0 -2.75158e+06 3.47639e+06 0 -2.73288e+06 3.51921e+06 0 -2.7129e+06 3.56182e+06 0 -2.69164e+06 3.60416e+06 0 -2.66911e+06 3.64614e+06 0 -2.64532e+06 3.68771e+06 0 -2.6203e+06 3.72878e+06 0 -2.59405e+06 3.76929e+06 0 -2.56662e+06 3.80917e+06 0 -2.53804e+06 3.84836e+06 0 -2.50834e+06 3.88678e+06 0 -2.47757e+06 3.92438e+06 0 -2.44578e+06 3.96109e+06 0 -2.41301e+06 3.99687e+06 0 -2.37932e+06 4.03165e+06 0 -2.34477e+06 4.06538e+06 0 -2.30943e+06 4.09803e+06 0 -2.27335e+06 4.12955e+06 0 -2.2366e+06 4.15991e+06 0 -2.19925e+06 4.18908e+06 0 -2.16137e+06 4.21703e+06 0 -2.12304e+06 4.24373e+06 0 -2.08432e+06 4.26918e+06 0 -2.04529e+06 4.29337e+06 0 -2.00602e+06 4.31629e+06 0 -1.96658e+06 4.33793e+06 0 -1.92704e+06 4.35831e+06 0 -1.88747e+06 4.37744e+06 0 -1.84794e+06 4.39532e+06 0 -1.80851e+06 4.41197e+06 0 -1.76924e+06 4.42743e+06 0 -1.73019e+06 4.44171e+06 0 -1.69141e+06 4.45484e+06 0 -1.65297e+06 4.46686e+06 0 -1.61491e+06 4.47779e+06 0 -1.57728e+06 4.48769e+06 0 -1.54011e+06 4.49658e+06 0 -1.50344e+06 4.5045e+06 0 -1.46732e+06 4.51151e+06 0 -1.43177e+06 4.51764e+06 0 -1.39681e+06 4.52293e+06 0 -1.36248e+06 4.52743e+06 0 -1.32879e+06 4.53119e+06 0 -1.29576e+06 4.53424e+06 0 -1.2634e+06 4.53663e+06 0 -1.23173e+06 4.5384e+06 0 -1.20074e+06 4.5396e+06 0 -1.17045e+06 4.54026e+06 0 -1.14086e+06 4.54042e+06 0 -1.11197e+06 4.54013e+06 0 -1.08377e+06 4.53941e+06 0 -1.05627e+06 4.5383e+06 0 -1.02945e+06 4.53684e+06 0 -1.00332e+06 4.53506e+06 0 -977856 4.53298e+06 0 -953055 4.53064e+06 0 -928905 4.52806e+06 0 -905396 4.52527e+06 0 -882514 4.52229e+06 0 -860248 4.51915e+06 0 -838582 4.51586e+06 0 -2.72569e+06 3.30024e+06 0 -2.71138e+06 3.34215e+06 0 -2.69584e+06 3.38407e+06 0 -2.67906e+06 3.42595e+06 0 -2.66103e+06 3.46771e+06 0 -2.64175e+06 3.50928e+06 0 -2.62123e+06 3.55059e+06 0 -2.59947e+06 3.59159e+06 0 -2.57649e+06 3.63218e+06 0 -2.5523e+06 3.67232e+06 0 -2.52692e+06 3.71192e+06 0 -2.50039e+06 3.75092e+06 0 -2.47273e+06 3.78926e+06 0 -2.44399e+06 3.82687e+06 0 -2.4142e+06 3.86368e+06 0 -2.38341e+06 3.89965e+06 0 -2.35167e+06 3.93471e+06 0 -2.31903e+06 3.96881e+06 0 -2.28555e+06 4.00191e+06 0 -2.25129e+06 4.03396e+06 0 -2.21632e+06 4.06492e+06 0 -2.18069e+06 4.09476e+06 0 -2.14448e+06 4.12344e+06 0 -2.10775e+06 4.15094e+06 0 -2.07058e+06 4.17725e+06 0 -2.03303e+06 4.20234e+06 0 -1.99518e+06 4.22621e+06 0 -1.95709e+06 4.24885e+06 0 -1.91883e+06 4.27026e+06 0 -1.88048e+06 4.29044e+06 0 -1.84209e+06 4.30941e+06 0 -1.80374e+06 4.32718e+06 0 -1.76549e+06 4.34376e+06 0 -1.72739e+06 4.35919e+06 0 -1.6895e+06 4.37347e+06 0 -1.65189e+06 4.38665e+06 0 -1.61459e+06 4.39875e+06 0 -1.57766e+06 4.40981e+06 0 -1.54113e+06 4.41986e+06 0 -1.50506e+06 4.42894e+06 0 -1.46948e+06 4.43709e+06 0 -1.43442e+06 4.44435e+06 0 