<?xml version="1.0"?> 
<VTKFile type="StructuredGrid" version="0.1"> 
<StructuredGrid WholeExtent="0 63 0 63 0 0"> 
<Piece Extent="0 63 0 63 0 0"> 
<PointData>
<DataArray type="Float32" Name="|E|" format="ascii" NumberOfComponents="3"> 
-2.02415e+06 0 0 -2.02417e+06 2585.16 0 -2.02421e+06 5170.43 0 -2.02428e+06 7755.91 0 -2.02438e+06 10341.7 0 -2.02451e+06 12927.8 0 -2.02467e+06 15514.5 0 -2.02485e+06 18101.7 0 -2.02507e+06 20689.5 0 -2.02531e+06 23278.2 0 -2.02558e+06 25867.7 0 -2.02588e+06 28458.1 0 -2.02621e+06 31049.6 0 -2.02657e+06 33642.2 0 -2.02695e+06 36236 0 -2.02737e+06 38831.2 0 -2.02781e+06 41427.7 0 -2.02828e+06 44025.8 0 -2.02878e+06 46625.5 0 -2.02931e+06 49226.9 0 -2.02987e+06 51830 0 -2.03045e+06 54435.1 0 -2.03107e+06 57042.1 0 -2.03171e+06 59651.3 0 -2.03238e+06 62262.6 0 -2.03308e+06 64876.2 0 -2.03381e+06 67492.1 0 -2.03457e+06 70110.6 0 -2.03536e+06 72731.6 0 -2.03617e+06 75355.2 0 -2.03702e+06 77981.6 0 -2.03789e+06 80610.9 0 -2.03879e+06 83243.2 0 -2.03972e+06 85878.5 0 -2.04068e+06 88516.9 0 -2.04167e+06 91158.6 0 -2.04269e+06 93803.7 0 -2.04373e+06 96452.3 0 -2.04481e+06 99104.4 0 -2.04592e+06 101760 0 -2.04705e+06 104420 0 -2.04821e+06 107083 0 -2.0494e+06 109751 0 -2.05063e+06 112422 0 -2.05188e+06 115098 0 -2.05316e+06 117778 0 -2.05446e+06 120462 0 -2.0558e+06 123151 0 -2.05717e+06 125845 0 -2.05857e+06 128543 0 -2.05999e+06 131246 0 -2.06145e+06 133954 0 -2.06294e+06 136667 0 -2.06445e+06 139385 0 -2.06599e+06 142109 0 -2.06757e+06 144838 0 -2.06917e+06 147572 0 -2.07081e+06 150313 0 -2.07247e+06 153058 0 -2.07416e+06 155810 0 -2.07588e+06 158568 0 -2.07764e+06 161332 0 -2.07942e+06 164102 0 -2.08123e+06 166880 0 -2.02188e+06 0 0 -2.0219e+06 2698.14 0 -2.02194e+06 5396.41 0 -2.02202e+06 8094.9 0 -2.02213e+06 10793.7 0 -2.02226e+06 13493 0 -2.02243e+06 16192.7 0 -2.02263e+06 18893.1 0 -2.02286e+06 21594.3 0 -2.02311e+06 24296.3 0 -2.0234e+06 26999.2 0 -2.02372e+06 29703.2 0 -2.02407e+06 32408.4 0 -2.02445e+06 35114.8 0 -2.02486e+06 37822.6 0 -2.0253e+06 40531.8 0 -2.02578e+06 43242.6 0 -2.02628e+06 45955.1 0 -2.02681e+06 48669.4 0 -2.02737e+06 51385.5 0 -2.02797e+06 54103.7 0 -2.02859e+06 56823.9 0 -2.02925e+06 59546.4 0 -2.02993e+06 62271.2 0 -2.03065e+06 64998.4 0 -2.03139e+06 67728.1 0 -2.03217e+06 70460.5 0 -2.03298e+06 73195.6 0 -2.03382e+06 75933.6 0 -2.03469e+06 78674.5 0 -2.03559e+06 81418.5 0 -2.03652e+06 84165.7 0 -2.03748e+06 86916.2 0 -2.03847e+06 89670.1 0 -2.03949e+06 92427.5 0 -2.04055e+06 95188.5 0 -2.04163e+06 97953.3 0 -2.04275e+06 100722 0 -2.04389e+06 103495 0 -2.04507e+06 106271 0 -2.04628e+06 109052 0 -2.04752e+06 111837 0 -2.04879e+06 114627 0 -2.05009e+06 117421 0 -2.05143e+06 120220 0 -2.05279e+06 123024 0 -2.05419e+06 125832 0 -2.05561e+06 128646 0 -2.05707e+06 131465 0 -2.05856e+06 134289 0 -2.06008e+06 137118 0 -2.06163e+06 139953 0 -2.06322e+06 142794 0 -2.06483e+06 145640 0 -2.06648e+06 148493 0 -2.06816e+06 151351 0 -2.06987e+06 154215 0 -2.07161e+06 157086 0 -2.07338e+06 159963 0 -2.07519e+06 162847 0 -2.07702e+06 165738 0 -2.07889e+06 168635 0 -2.08079e+06 171539 0 -2.08273e+06 174450 0 -2.01959e+06 0 0 -2.0196e+06 2812.73 0 -2.01965e+06 5625.58 0 -2.01973e+06 8438.69 0 -2.01985e+06 11252.2 0 -2.01999e+06 14066.1 0 -2.02017e+06 16880.6 0 -2.02038e+06 19695.9 0 -2.02062e+06 22511.9 0 -2.0209e+06 25328.9 0 -2.0212e+06 28146.9 0 -2.02154e+06 30966.1 0 -2.02192e+06 33786.6 0 -2.02232e+06 36608.5 0 -2.02276e+06 39431.9 0 -2.02323e+06 42256.9 0 -2.02373e+06 45083.6 0 -2.02426e+06 47912.3 0 -2.02483e+06 50742.8 0 -2.02543e+06 53575.5 0 -2.02606e+06 56410.4 0 -2.02672e+06 59247.6 0 -2.02742e+06 62087.3 0 -2.02815e+06 64929.5 0 -2.02891e+06 67774.4 0 -2.0297e+06 70622.2 0 -2.03053e+06 73472.8 0 -2.03139e+06 76326.5 0 -2.03228e+06 79183.4 0 -2.0332e+06 82043.5 0 -2.03416e+06 84907.1 0 -2.03515e+06 87774.1 0 -2.03617e+06 90644.9 0 -2.03723e+06 93519.4 0 -2.03831e+06 96397.8 0 -2.03944e+06 99280.3 0 -2.04059e+06 102167 0 -2.04178e+06 105058 0 -2.043e+06 107953 0 -2.04425e+06 110853 0 -2.04553e+06 113757 0 -2.04685e+06 116667 0 -2.0482e+06 119581 0 -2.04959e+06 122500 0 -2.05101e+06 125425 0 -2.05246e+06 128355 0 -2.05394e+06 131290 0 -2.05546e+06 134231 0 -2.05701e+06 137177 0 -2.0586e+06 140130 0 -2.06021e+06 143088 0 -2.06186e+06 146053 0 -2.06355e+06 149024 0 -2.06527e+06 152001 0 -2.06702e+06 154985 0 -2.0688e+06 157976 0 -2.07062e+06 160973 0 -2.07248e+06 163978 0 -2.07436e+06 166989 0 -2.07629e+06 170008 0 -2.07824e+06 173035 0 -2.08023e+06 176069 0 -2.08225e+06 179110 0 -2.08431e+06 182160 0 -2.01727e+06 0 0 -2.01729e+06 2928.9 0 -2.01734e+06 5857.96 0 -2.01742e+06 8787.28 0 -2.01754e+06 11717 0 -2.0177e+06 14647.2 0 -2.01789e+06 17578.1 0 -2.01811e+06 20509.8 0 -2.01837e+06 23442.4 0 -2.01866e+06 26376 0 -2.01899e+06 29310.8 0 -2.01935e+06 32246.8 0 -2.01974e+06 35184.3 0 -2.02017e+06 38123.3 0 -2.02063e+06 41063.9 0 -2.02113e+06 44006.4 0 -2.02166e+06 46950.8 0 -2.02223e+06 49897.2 0 -2.02283e+06 52845.9 0 -2.02347e+06 55796.8 0 -2.02414e+06 58750.2 0 -2.02484e+06 61706.1 0 -2.02558e+06 64664.8 0 -2.02635e+06 67626.3 0 -2.02716e+06 70590.7 0 -2.028e+06 73558.3 0 -2.02888e+06 76529.1 0 -2.02979e+06 79503.2 0 -2.03074e+06 82480.9 0 -2.03172e+06 85462.2 0 -2.03273e+06 88447.3 0 -2.03378e+06 91436.2 0 -2.03487e+06 94429.3 0 -2.03599e+06 97426.5 0 -2.03714e+06 100428 0 -2.03833e+06 103434 0 -2.03956e+06 106445 0 -2.04082e+06 109460 0 -2.04211e+06 112480 0 -2.04344e+06 115505 0 -2.04481e+06 118536 0 -2.04621e+06 121571 0 -2.04764e+06 124613 0 -2.04911e+06 127659 0 -2.05062e+06 130712 0 -2.05216e+06 133770 0 -2.05373e+06 136835 0 -2.05534e+06 139905 0 -2.05699e+06 142983 0 -2.05867e+06 146066 0 -2.06039e+06 149156 0 -2.06214e+06 152253 0 -2.06393e+06 155357 0 -2.06576e+06 158468 0 -2.06762e+06 161587 0 -2.06951e+06 164713 0 -2.07145e+06 167846 0 -2.07341e+06 170988 0 -2.07542e+06 174137 0 -2.07746e+06 177294 0 -2.07953e+06 180460 0 -2.08165e+06 183634 0 -2.08379e+06 186817 0 -2.08598e+06 190008 0 -2.01493e+06 0 0 -2.01495e+06 3046.67 0 -2.015e+06 6093.5 0 -2.0151e+06 9140.63 0 -2.01522e+06 12188.2 0 -2.01539e+06 15236.3 0 -2.01559e+06 18285.2 0 -2.01582e+06 21334.9 0 -2.0161e+06 24385.6 0 -2.0164e+06 27437.5 0 -2.01675e+06 30490.6 0 -2.01713e+06 33545.1 0 -2.01755e+06 36601.2 0 -2.018e+06 39659 0 -2.01849e+06 42718.6 0 -2.01902e+06 45780.2 0 -2.01958e+06 48843.9 0 -2.02018e+06 51909.9 0 -2.02082e+06 54978.3 0 -2.02149e+06 58049.2 0 -2.0222e+06 61122.8 0 -2.02295e+06 64199.3 0 -2.02373e+06 67278.7 0 -2.02455e+06 70361.3 0 -2.02541e+06 73447.1 0 -2.0263e+06 76536.4 0 -2.02723e+06 79629.2 0 -2.02819e+06 82725.7 0 -2.0292e+06 85826.1 0 -2.03024e+06 88930.5 0 -2.03131e+06 92039 0 -2.03242e+06 95151.9 0 -2.03357e+06 98269.2 0 -2.03476e+06 101391 0 -2.03598e+06 104518 0 -2.03724e+06 107649 0 -2.03854e+06 110786 0 -2.03987e+06 113928 0 -2.04125e+06 117075 0 -2.04265e+06 120228 0 -2.0441e+06 123387 0 -2.04558e+06 126551 0 -2.0471e+06 129722 0 -2.04866e+06 132899 0 -2.05026e+06 136082 0 -2.05189e+06 139271 0 -2.05356e+06 142467 0 -2.05526e+06 145670 0 -2.05701e+06 148881 0 -2.05879e+06 152098 0 -2.06061e+06 155323 0 -2.06247e+06 158555 0 -2.06437e+06 161795 0 -2.0663e+06 165043 0 -2.06827e+06 168299 0 -2.07028e+06 171563 0 -2.07233e+06 174835 0 -2.07441e+06 178117 0 -2.07654e+06 181407 0 -2.0787e+06 184706 0 -2.0809e+06 188014 0 -2.08314e+06 191332 0 -2.08542e+06 194659 0 -2.08773e+06 197996 0 -2.01257e+06 0 0 -2.01259e+06 3166.02 0 -2.01265e+06 6332.21 0 -2.01274e+06 9498.73 0 -2.01288e+06 12665.7 0 -2.01305e+06 15833.4 0 -2.01326e+06 19001.8 0 -2.01351e+06 22171.1 0 -2.0138e+06 25341.6 0 -2.01413e+06 28513.3 0 -2.01449e+06 31686.4 0 -2.0149e+06 34861 0 -2.01534e+06 38037.4 0 -2.01582e+06 41215.6 0 -2.01634e+06 44395.8 0 -2.0169e+06 47578.2 0 -2.01749e+06 50762.9 0 -2.01813e+06 53950.2 0 -2.0188e+06 57140 0 -2.01951e+06 60332.7 0 -2.02026e+06 63528.3 0 -2.02105e+06 66727 0 -2.02188e+06 69929 0 -2.02274e+06 73134.5 0 -2.02365e+06 76343.5 0 -2.02459e+06 79556.3 0 -2.02557e+06 82773 0 -2.02659e+06 85993.8 0 -2.02765e+06 89218.8 0 -2.02875e+06 92448.3 0 -2.02989e+06 95682.3 0 -2.03107e+06 98921 0 -2.03228e+06 102165 0 -2.03354e+06 105413 0 -2.03483e+06 108667 0 -2.03616e+06 111927 0 -2.03753e+06 115192 0 -2.03895e+06 118463 0 -2.0404e+06 121739 0 -2.04188e+06 125022 0 -2.04341e+06 128311 0 -2.04498e+06 131607 0 -2.04659e+06 134909 0 -2.04824e+06 138218 0 -2.04992e+06 141534 0 -2.05165e+06 144857 0 -2.05342e+06 148188 0 -2.05522e+06 151526 0 -2.05707e+06 154872 0 -2.05895e+06 158226 0 -2.06088e+06 161588 0 -2.06284e+06 164958 0 -2.06485e+06 168337 0 -2.06689e+06 171724 0 -2.06898e+06 175121 0 -2.07111e+06 178526 0 -2.07327e+06 181941 0 -2.07548e+06 185366 0 -2.07773e+06 188800 0 -2.08001e+06 192244 0 -2.08234e+06 195698 0 -2.08471e+06 199163 0 -2.08712e+06 202638 0 -2.08957e+06 206124 0 -2.01019e+06 0 0 -2.01021e+06 3286.94 0 -2.01027e+06 6574.06 0 -2.01037e+06 9861.55 0 -2.01051e+06 13149.6 0 -2.0107e+06 16438.3 0 -2.01092e+06 19727.8 0 -2.01118e+06 23018.4 0 -2.01149e+06 26310.2 0 -2.01183e+06 29603.3 0 -2.01222e+06 32898 0 -2.01264e+06 36194.4 0 -2.01311e+06 39492.7 0 -2.01362e+06 42792.9 0 -2.01416e+06 46095.4 0 -2.01475e+06 49400.3 0 -2.01538e+06 52707.8 0 -2.01605e+06 56017.9 0 -2.01676e+06 59331 0 -2.01751e+06 62647.1 0 -2.0183e+06 65966.4 0 -2.01914e+06 69289.2 0 -2.02001e+06 72615.6 0 -2.02092e+06 75945.7 0 -2.02188e+06 79279.8 0 -2.02287e+06 82617.9 0 -2.02391e+06 85960.4 0 -2.02499e+06 89307.4 0 -2.02611e+06 92659 0 -2.02727e+06 96015.4 0 -2.02847e+06 99376.9 0 -2.02971e+06 102744 0 -2.03099e+06 106116 0 -2.03232e+06 109493 0 -2.03368e+06 112877 0 -2.03509e+06 116266 0 -2.03654e+06 119661 0 -2.03803e+06 123063 0 -2.03956e+06 126472 0 -2.04113e+06 129887 0 -2.04275e+06 133309 0 -2.0444e+06 136738 0 -2.0461e+06 140174 0 -2.04784e+06 143618 0 -2.04962e+06 147069 0 -2.05144e+06 150529 0 -2.05331e+06 153996 0 -2.05521e+06 157472 0 -2.05716e+06 160957 0 -2.05915e+06 164450 0 -2.06119e+06 167952 0 -2.06326e+06 171463 0 -2.06538e+06 174984 0 -2.06754e+06 178514 0 -2.06974e+06 182054 0 -2.07199e+06 185604 0 -2.07427e+06 189165 0 -2.07661e+06 192736 0 -2.07898e+06 196317 0 -2.08139e+06 199910 0 -2.08385e+06 203514 0 -2.08636e+06 207129 0 -2.0889e+06 210756 0 -2.09149e+06 214395 0 -2.00779e+06 0 0 -2.00781e+06 3409.42 0 -2.00787e+06 6819.05 0 -2.00798e+06 10229.1 0 -2.00813e+06 13639.7 0 -2.00832e+06 17051 0 -2.00856e+06 20463.3 0 -2.00883e+06 23876.7 0 -2.00916e+06 27291.4 0 -2.00952e+06 30707.6 0 -2.00992e+06 34125.5 0 -2.01037e+06 37545.2 0 -2.01086e+06 40967 0 -2.0114e+06 44391 0 -2.01198e+06 47817.4 0 -2.0126e+06 51246.4 0 -2.01326e+06 54678.2 0 -2.01396e+06 58113 0 -2.01471e+06 61551 0 -2.0155e+06 64992.3 0 -2.01634e+06 68437.1 0 -2.01721e+06 71885.7 0 -2.01813e+06 75338.2 0 -2.0191e+06 78794.8 0 -2.0201e+06 82255.8 0 -2.02115e+06 85721.2 0 -2.02225e+06 89191.3 0 -2.02338e+06 92666.4 0 -2.02456e+06 96146.5 0 -2.02578e+06 99631.9 0 -2.02705e+06 103123 0 -2.02836e+06 106619 0 -2.02971e+06 110122 0 -2.03111e+06 113631 0 -2.03255e+06 117145 0 -2.03403e+06 120667 0 -2.03555e+06 124195 0 -2.03712e+06 127730 0 -2.03874e+06 131272 0 -2.0404e+06 134822 0 -2.0421e+06 138379 0 -2.04384e+06 141944 0 -2.04563e+06 145517 0 -2.04747e+06 149098 0 -2.04934e+06 152688 0 -2.05126e+06 156286 0 -2.05323e+06 159893 0 -2.05524e+06 163510 0 -2.05729e+06 167135 0 -2.05939e+06 170771 0 -2.06154e+06 174416 0 -2.06372e+06 178071 0 -2.06596e+06 181736 0 -2.06823e+06 185412 0 -2.07056e+06 189099 0 -2.07292e+06 192797 0 -2.07534e+06 196506 0 -2.07779e+06 200227 0 -2.0803e+06 203959 0 -2.08284e+06 207704 0 -2.08544e+06 211461 0 -2.08808e+06 215231 0 -2.09076e+06 219013 0 -2.09349e+06 222809 0 -2.00536e+06 0 0 -2.00539e+06 3533.46 0 -2.00545e+06 7067.14 0 -2.00557e+06 10601.2 0 -2.00572e+06 14136 0 -2.00593e+06 17671.5 0 -2.00617e+06 21208.1 0 -2.00646e+06 24745.9 0 -2.0068e+06 28285.1 0 -2.00718e+06 31826 0 -2.00761e+06 35368.6 0 -2.00808e+06 38913.3 0 -2.0086e+06 42460.3 0 -2.00916e+06 46009.6 0 -2.00977e+06 49561.6 0 -2.01042e+06 53116.4 0 -2.01112e+06 56674.3 0 -2.01186e+06 60235.4 0 -2.01265e+06 63800 0 -2.01348e+06 67368.2 0 -2.01436e+06 70940.2 0 -2.01528e+06 74516.4 0 -2.01625e+06 78096.8 0 -2.01726e+06 81681.8 0 -2.01832e+06 85271.4 0 -2.01943e+06 88866 0 -2.02058e+06 92465.6 0 -2.02177e+06 96070.7 0 -2.02301e+06 99681.3 0 -2.0243e+06 103298 0 -2.02563e+06 106920 0 -2.02701e+06 110549 0 -2.02843e+06 114184 0 -2.0299e+06 117825 0 -2.03141e+06 121474 0 -2.03297e+06 125130 0 -2.03458e+06 128793 0 -2.03623e+06 132463 0 -2.03793e+06 136142 0 -2.03968e+06 139828 0 -2.04147e+06 143523 0 -2.0433e+06 147226 0 -2.04519e+06 150938 0 -2.04712e+06 154659 0 -2.04909e+06 158389 0 -2.05111e+06 162129 0 -2.05318e+06 165879 0 -2.0553e+06 169638 0 -2.05746e+06 173408 0 -2.05967e+06 177188 0 -2.06193e+06 180979 0 -2.06423e+06 184781 0 -2.06658e+06 188595 0 -2.06898e+06 192420 0 -2.07142e+06 196257 0 -2.07392e+06 200105 0 -2.07646e+06 203967 0 -2.07904e+06 207841 0 -2.08168e+06 211728 0 -2.08436e+06 215628 0 -2.08709e+06 219542 0 -2.08987e+06 223469 0 -2.0927e+06 227411 0 -2.09557e+06 231367 0 -2.00292e+06 0 0 -2.00294e+06 3659.05 0 -2.00301e+06 7318.33 0 -2.00313e+06 10978.1 0 -2.0033e+06 14638.5 0 -2.00351e+06 18299.8 0 -2.00377e+06 21962.3 0 -2.00407e+06 25626 0 -2.00443e+06 29291.3 0 -2.00483e+06 32958.4 0 -2.00528e+06 36627.5 0 -2.00578e+06 40298.7 0 -2.00632e+06 43972.4 0 -2.00691e+06 47648.7 0 -2.00755e+06 51327.9 0 -2.00823e+06 55010.2 0 -2.00896e+06 58695.8 0 -2.00974e+06 62384.9 0 -2.01057e+06 66077.8 0 -2.01145e+06 69774.6 0 -2.01237e+06 73475.7 0 -2.01334e+06 77181.2 0 -2.01436e+06 80891.4 0 -2.01542e+06 84606.4 0 -2.01653e+06 88326.6 0 -2.01769e+06 92052.1 0 -2.0189e+06 95783.2 0 -2.02016e+06 99520.1 0 -2.02146e+06 103263 0 -2.02281e+06 107012 0 -2.02421e+06 110768 0 -2.02566e+06 114531 0 -2.02715e+06 118300 0 -2.0287e+06 122077 0 -2.03029e+06 125862 0 -2.03193e+06 129654 0 -2.03362e+06 133454 0 -2.03535e+06 137263 0 -2.03714e+06 141079 0 -2.03897e+06 144905 0 -2.04085e+06 148740 0 -2.04278e+06 152584 0 -2.04476e+06 156438 0 -2.04679e+06 160301 0 -2.04887e+06 164175 0 -2.05099e+06 168059 0 -2.05317e+06 171953 0 -2.05539e+06 175859 0 -2.05767e+06 179775 0 -2.05999e+06 183703 0 -2.06236e+06 187643 0 -2.06478e+06 191595 0 -2.06725e+06 195560 0 -2.06977e+06 199537 0 -2.07234e+06 203527 0 -2.07496e+06 207530 0 -2.07763e+06 211547 0 -2.08035e+06 215578 0 -2.08312e+06 219623 0 -2.08594e+06 223682 0 -2.08882e+06 227756 0 -2.09174e+06 231846 0 -2.09471e+06 235951 0 -2.09773e+06 240072 0 -2.00045e+06 0 0 -2.00047e+06 3786.17 0 -2.00055e+06 7572.61 0 -2.00067e+06 11359.5 0 -2.00085e+06 15147.2 0 -2.00107e+06 18935.9 0 -2.00134e+06 22725.7 0 -2.00166e+06 26517 0 -2.00204e+06 30310 0 -2.00246e+06 34104.8 0 -2.00293e+06 37901.9 0 -2.00345e+06 41701.3 0 -2.00402e+06 45503.4 0 -2.00464e+06 49308.3 0 -2.00531e+06 53116.3 0 -2.00603e+06 56927.7 0 -2.00679e+06 60742.7 0 -2.00761e+06 64561.5 0 -2.00848e+06 68384.4 0 -2.0094e+06 72211.6 0 -2.01037e+06 76043.4 0 -2.01138e+06 79880 0 -2.01245e+06 83721.6 0 -2.01357e+06 87568.6 0 -2.01474e+06 91421.1 0 -2.01595e+06 95279.5 0 -2.01722e+06 99143.9 0 -2.01854e+06 103015 0 -2.01991e+06 106892 0 -2.02133e+06 110776 0 -2.02279e+06 114668 0 -2.02431e+06 118566 0 -2.02588e+06 122473 0 -2.0275e+06 126387 0 -2.02917e+06 130309 0 -2.03089e+06 134240 0 -2.03266e+06 138179 0 -2.03449e+06 142128 0 -2.03636e+06 146086 0 -2.03828e+06 150053 0 -2.04026e+06 154030 0 -2.04228e+06 158018 0 -2.04436e+06 162015 0 -2.04649e+06 166024 0 -2.04867e+06 170043 0 -2.0509e+06 174074 0 -2.05318e+06 178117 0 -2.05552e+06 182171 0 -2.0579e+06 186237 0 -2.06034e+06 190316 0 -2.06283e+06 194408 0 -2.06537e+06 198513 0 -2.06797e+06 202632 0 -2.07061e+06 206764 0 -2.07331e+06 210911 0 -2.07606e+06 215072 0 -2.07886e+06 219248 0 -2.08172e+06 223439 0 -2.08463e+06 227645 0 -2.08759e+06 231868 0 -2.09061e+06 236106 0 -2.09367e+06 240362 0 -2.09679e+06 244634 0 -2.09997e+06 248924 0 -1.99796e+06 0 0 -1.99799e+06 3914.83 0 -1.99807e+06 7829.95 0 -1.9982e+06 11745.6 0 -1.99838e+06 15662.1 0 -1.99861e+06 19579.6 0 -1.9989e+06 23498.4 0 -1.99923e+06 27418.7 0 -1.99962e+06 31340.9 0 -2.00007e+06 35265.2 0 -2.00056e+06 39191.8 0 -2.0011e+06 43120.9 0 -2.0017e+06 47053 0 -2.00235e+06 50988.1 0 -2.00305e+06 54926.6 0 -2.0038e+06 58868.8 0 -2.00461e+06 62814.8 0 -2.00547e+06 66765 0 -2.00638e+06 70719.6 0 -2.00734e+06 74678.9 0 -2.00835e+06 78643.1 0 -2.00942e+06 82612.6 0 -2.01054e+06 86587.5 0 -2.01171e+06 90568.2 0 -2.01293e+06 94555 0 -2.01421e+06 98548 0 -2.01554e+06 102548 0 -2.01692e+06 106554 0 -2.01835e+06 110568 0 -2.01984e+06 114589 0 -2.02138e+06 118618 0 -2.02297e+06 122655 0 -2.02461e+06 126700 0 -2.02631e+06 130753 0 -2.02806e+06 134816 0 -2.02986e+06 138888 0 -2.03172e+06 142969 0 -2.03363e+06 147060 0 -2.03559e+06 151161 0 -2.03761e+06 155272 0 -2.03968e+06 159394 0 -2.0418e+06 163527 0 -2.04398e+06 167672 0 -2.04621e+06 171828 0 -2.0485e+06 175996 0 -2.05084e+06 180176 0 -2.05323e+06 184369 0 -2.05567e+06 188575 0 -2.05818e+06 192794 0 -2.06073e+06 197027 0 -2.06334e+06 201274 0 -2.06601e+06 205535 0 -2.06873e+06 209811 0 -2.0715e+06 214102 0 -2.07433e+06 218409 0 -2.07721e+06 222731 0 -2.08015e+06 227070 0 -2.08315e+06 231425 0 -2.0862e+06 235796 0 -2.0893e+06 240186 0 -2.09246e+06 244593 0 -2.09568e+06 249018 0 -2.09895e+06 253462 0 -2.10228e+06 257924 0 -1.99545e+06 0 0 -1.99548e+06 4045.01 0 -1.99556e+06 8090.33 0 -1.9957e+06 12136.2 0 -1.99589e+06 16183 0 -1.99613e+06 20230.9 0 -1.99643e+06 24280.2 0 -1.99678e+06 28331.2 0 -1.99719e+06 32384.2 0 -1.99765e+06 36439.4 0 -1.99817e+06 40497.1 0 -1.99874e+06 44557.6 0 -1.99937e+06 48621.2 0 -2.00005e+06 52688.2 0 -2.00078e+06 56758.8 0 -2.00157e+06 60833.3 0 -2.00241e+06 64912 0 -2.00331e+06 68995.3 0 -2.00426e+06 73083.3 0 -2.00527e+06 77176.4 0 -2.00633e+06 81274.8 0 -2.00744e+06 85378.9 0 -2.00861e+06 89488.9 0 -2.00984e+06 93605.2 0 -2.01112e+06 97728 0 -2.01245e+06 101858 0 -2.01385e+06 105994 0 -2.01529e+06 110139 0 -2.01679e+06 114291 0 -2.01835e+06 118451 0 -2.01996e+06 122619 0 -2.02162e+06 126796 0 -2.02334e+06 130982 0 -2.02512e+06 135177 0 -2.02695e+06 139382 0 -2.02884e+06 143597 0 -2.03078e+06 147822 0 -2.03278e+06 152058 0 -2.03484e+06 156304 0 -2.03695e+06 160562 0 -2.03912e+06 164832 0 -2.04134e+06 169113 0 -2.04362e+06 173407 0 -2.04596e+06 177713 0 -2.04835e+06 182032 0 -2.0508e+06 186365 0 -2.0533e+06 190712 0 -2.05586e+06 195072 0 -2.05848e+06 199447 0 -2.06116e+06 203837 0 -2.06389e+06 208242 0 -2.06668e+06 212663 0 -2.06953e+06 217099 0 -2.07243e+06 221552 0 -2.07539e+06 226022 0 -2.07841e+06 230509 0 -2.08149e+06 235014 0 -2.08463e+06 239536 0 -2.08782e+06 244077 0 -2.09107e+06 248637 0 -2.09438e+06 253217 0 -2.09775e+06 257816 0 -2.10118e+06 262435 0 -2.10467e+06 267075 0 -1.99292e+06 0 0 -1.99295e+06 4176.71 0 -1.99304e+06 8353.75 0 -1.99318e+06 12531.4 0 -1.99338e+06 16710 0 -1.99363e+06 20889.8 0 -1.99395e+06 25071.2 0 -1.99431e+06 29254.3 0 -1.99474e+06 33439.6 0 -1.99522e+06 37627.3 0 -1.99576e+06 41817.7 0 -1.99636e+06 46011.2 0 -1.99701e+06 50207.9 0 -1.99772e+06 54408.3 0 -1.99849e+06 58612.6 0 -1.99931e+06 62821.2 0 -2.00019e+06 67034.3 0 -2.00113e+06 71252.3 0 -2.00213e+06 75475.4 0 -2.00318e+06 79704 0 -2.00429e+06 83938.3 0 -2.00546e+06 88178.8 0 -2.00668e+06 92425.7 0 -2.00796e+06 96679.3 0 -2.0093e+06 100940 0 -2.0107e+06 105208 0 -2.01215e+06 109484 0 -2.01366e+06 113768 0 -2.01523e+06 118060 0 -2.01685e+06 122361 0 -2.01854e+06 126671 0 -2.02028e+06 130990 0 -2.02208e+06 135319 0 -2.02394e+06 139658 0 -2.02585e+06 144007 0 -2.02783e+06 148368 0 -2.02986e+06 152739 0 -2.03195e+06 157122 0 -2.0341e+06 161516 0 -2.0363e+06 165923 0 -2.03857e+06 170342 0 -2.04089e+06 174775 0 -2.04328e+06 179220 0 -2.04572e+06 183680 0 -2.04822e+06 188153 0 -2.05078e+06 192641 0 -2.0534e+06 197144 0 -2.05608e+06 201662 0 -2.05882e+06 206195 0 -2.06162e+06 210745 0 -2.06447e+06 215312 0 -2.06739e+06 219895 0 -2.07037e+06 224495 0 -2.07341e+06 229114 0 -2.0765e+06 233751 0 -2.07966e+06 238406 0 -2.08288e+06 243080 0 -2.08616e+06 247775 0 -2.0895e+06 252489 0 -2.0929e+06 257224 0 -2.09637e+06 261979 0 -2.09989e+06 266757 0 -2.10348e+06 271556 0 -2.10712e+06 276378 0 -1.99037e+06 0 0 -1.9904e+06 4309.92 0 -1.99049e+06 8620.19 0 -1.99064e+06 12931.1 0 -1.99085e+06 17243.1 0 -1.99111e+06 21556.3 0 -1.99144e+06 25871.2 0 -1.99182e+06 30188.1 0 -1.99227e+06 34507.2 0 -1.99277e+06 38829 0 -1.99334e+06 43153.6 0 -1.99396e+06 47481.6 0 -1.99464e+06 51813.1 0 -1.99538e+06 56148.5 0 -1.99618e+06 60488.1 0 -1.99704e+06 64832.4 0 -1.99796e+06 69181.5 0 -1.99894e+06 73535.8 0 -1.99998e+06 77895.7 0 -2.00108e+06 82261.5 0 -2.00224e+06 86633.6 0 -2.00346e+06 91012.2 0 -2.00474e+06 95397.8 0 -2.00607e+06 99790.6 0 -2.00747e+06 104191 0 -2.00893e+06 108599 0 -2.01045e+06 113016 0 -2.01202e+06 117441 0 -2.01366e+06 121876 0 -2.01536e+06 126320 0 -2.01712e+06 130773 0 -2.01894e+06 135237 0 -2.02082e+06 139711 0 -2.02276e+06 144196 0 -2.02476e+06 148692 0 -2.02682e+06 153200 0 -2.02894e+06 157720 0 -2.03112e+06 162252 0 -2.03337e+06 166797 0 -2.03567e+06 171355 0 -2.03804e+06 175927 0 -2.04047e+06 180513 0 -2.04296e+06 185113 0 -2.04551e+06 189728 0 -2.04812e+06 194358 0 -2.05079e+06 199004 0 -2.05353e+06 203666 0 -2.05633e+06 208344 0 -2.05919e+06 213040 0 -2.06211e+06 217753 0 -2.06509e+06 222484 0 -2.06814e+06 227233 0 -2.07125e+06 232001 0 -2.07443e+06 236788 0 -2.07766e+06 241595 0 -2.08096e+06 246423 0 -2.08432e+06 251271 0 -2.08775e+06 256141 0 -2.09124e+06 261032 0 -2.09479e+06 265946 0 -2.09841e+06 270882 0 -2.10209e+06 275842 0 -2.10584e+06 280826 0 -2.10965e+06 285834 0 -1.9878e+06 0 0 -1.98783e+06 4444.62 0 -1.98792e+06 8889.62 0 -1.98808e+06 13335.3 0 -1.98829e+06 17782.1 0 -1.98857e+06 22230.3 0 -1.98891e+06 26680.3 0 -1.98931e+06 31132.4 0 -1.98978e+06 35586.9 0 -1.9903e+06 40044.3 0 -1.99089e+06 44504.7 0 -1.99154e+06 48968.7 0 -1.99225e+06 53436.6 0 -1.99303e+06 57908.6 0 -1.99386e+06 62385.2 0 -1.99476e+06 66866.7 0 -1.99572e+06 71353.5 0 -1.99674e+06 75845.9 0 -1.99782e+06 80344.3 0 -1.99897e+06 84849 0 -2.00018e+06 89360.4 0 -2.00145e+06 93879 0 -2.00278e+06 98405 0 -2.00418e+06 102939 0 -2.00563e+06 107481 0 -2.00715e+06 112031 0 -2.00874e+06 116591 0 -2.01038e+06 121160 0 -2.01209e+06 125738 0 -2.01386e+06 130327 0 -2.0157e+06 134926 0 -2.01759e+06 139536 0 -2.01955e+06 144158 0 -2.02158e+06 148791 0 -2.02367e+06 153436 0 -2.02582e+06 158094 0 -2.02803e+06 162764 0 -2.03031e+06 167448 0 -2.03265e+06 172146 0 -2.03505e+06 176858 0 -2.03752e+06 181585 0 -2.04005e+06 186327 0 -2.04265e+06 191084 0 -2.04531e+06 195858 0 -2.04804e+06 200647 0 -2.05083e+06 205454 0 -2.05368e+06 210278 0 -2.0566e+06 215120 0 -2.05959e+06 219981 0 -2.06264e+06 224860 0 -2.06575e+06 229759 0 -2.06893e+06 234677 0 -2.07218e+06 239616 0 -2.07549e+06 244576 0 -2.07886e+06 249557 0 -2.08231e+06 254560 0 -2.08582e+06 259586 0 -2.08939e+06 264635 0 -2.09303e+06 269707 0 -2.09674e+06 274804 0 -2.10052e+06 279926 0 -2.10436e+06 285073 0 -2.10827e+06 290245 0 -2.11225e+06 295445 0 -1.98521e+06 0 0 -1.98524e+06 4580.81 0 -1.98533e+06 9162.03 0 -1.9855e+06 13744 0 -1.98572e+06 18327.2 0 -1.98601e+06 22911.8 0 -1.98637e+06 27498.4 0 -1.98679e+06 32087.2 0 -1.98727e+06 36678.7 0 -1.98782e+06 41273.1 0 -1.98843e+06 45871 0 -1.98911e+06 50472.5 0 -1.98985e+06 55078.3 0 -1.99065e+06 59688.5 0 -1.99152e+06 64303.7 0 -1.99246e+06 68924.1 0 -1.99346e+06 73550.1 0 -1.99452e+06 78182.3 0 -1.99565e+06 82820.8 0 -1.99684e+06 87466.2 0 -1.9981e+06 92118.8 0 -1.99943e+06 96778.9 0 -2.00082e+06 101447 0 -2.00227e+06 106124 0 -2.00379e+06 110809 0 -2.00537e+06 115504 0 -2.00702e+06 120208 0 -2.00874e+06 124922 0 -2.01052e+06 129647 0 -2.01236e+06 134383 0 -2.01427e+06 139130 0 -2.01625e+06 143888 0 -2.01829e+06 148659 0 -2.0204e+06 153442 0 -2.02258e+06 158239 0 -2.02482e+06 163049 0 -2.02713e+06 167873 0 -2.0295e+06 172711 0 -2.03194e+06 177564 0 -2.03444e+06 182433 0 -2.03702e+06 187317 0 -2.03966e+06 192217 0 -2.04236e+06 197135 0 -2.04514e+06 202069 0 -2.04798e+06 207022 0 -2.05089e+06 211992 0 -2.05386e+06 216981 0 -2.0569e+06 221990 0 -2.06001e+06 227019 0 -2.06319e+06 232067 0 -2.06644e+06 237137 0 -2.06975e+06 242228 0 -2.07314e+06 247342 0 -2.07659e+06 252478 0 -2.08011e+06 257637 0 -2.0837e+06 262819 0 -2.08736e+06 268027 0 -2.09108e+06 273259 0 -2.09488e+06 278517 0 -2.09875e+06 283801 0 -2.10268e+06 289112 0 -2.10669e+06 294450 0 -2.11077e+06 299817 0 -2.11491e+06 305212 0 -1.98259e+06 0 0 -1.98263e+06 4718.49 0 -1.98273e+06 9437.41 0 -1.98289e+06 14157.2 0 -1.98313e+06 18878.2 0 -1.98343e+06 23600.8 0 -1.9838e+06 28325.4 0 -1.98424e+06 33052.5 0 -1.98474e+06 37782.3 0 -1.98531e+06 42515.5 0 -1.98595e+06 47252.2 0 -1.98665e+06 51992.9 0 -1.98742e+06 56738.1 0 -1.98826e+06 61488.2 0 -1.98917e+06 66243.5 0 -1.99014e+06 71004.4 0 -1.99118e+06 75771.4 0 -1.99229e+06 80544.9 0 -1.99346e+06 85325.3 0 -1.99471e+06 90113 0 -1.99602e+06 94908.4 0 -1.9974e+06 99712 0 -1.99884e+06 104524 0 -2.00035e+06 109345 0 -2.00194e+06 114176 0 -2.00358e+06 119017 0 -2.0053e+06 123868 0 -2.00709e+06 128729 0 -2.00894e+06 133602 0 -2.01086e+06 138487 0 -2.01285e+06 143383 0 -2.01491e+06 148293 0 -2.01704e+06 153215 0 -2.01923e+06 158151 0 -2.02149e+06 163101 0 -2.02383e+06 168065 0 -2.02623e+06 173045 0 -2.0287e+06 178040 0 -2.03124e+06 183051 0 -2.03385e+06 188078 0 -2.03653e+06 193122 0 -2.03928e+06 198184 0 -2.04209e+06 203264 0 -2.04498e+06 208363 0 -2.04794e+06 213480 0 -2.05097e+06 218618 0 -2.05406e+06 223775 0 -2.05723e+06 228954 0 -2.06047e+06 234154 0 -2.06378e+06 239375 0 -2.06716e+06 244619 0 -2.07061e+06 249887 0 -2.07414e+06 255178 0 -2.07773e+06 260494 0 -2.0814e+06 265834 0 -2.08513e+06 271201 0 -2.08894e+06 276593 0 -2.09283e+06 282013 0 -2.09678e+06 287460 0 -2.10081e+06 292936 0 -2.10491e+06 298441 0 -2.10908e+06 303976 0 -2.11332e+06 309541 0 -2.11764e+06 315137 0 -1.97996e+06 0 0 -1.97999e+06 4857.64 0 -1.9801e+06 9715.74 0 -1.98027e+06 14574.7 0 -1.98052e+06 19435 0 -1.98083e+06 24297.1 0 -1.98121e+06 29161.3 0 -1.98167e+06 34028.1 0 -1.98219e+06 38897.9 0 -1.98278e+06 43771.2 0 -1.98345e+06 48648.4 0 -1.98418e+06 53529.8 0 -1.98498e+06 58416.1 0 -1.98585e+06 63307.5 0 -1.98679e+06 68204.5 0 -1.98781e+06 73107.5 0 -1.98889e+06 78017.1 0 -1.99004e+06 82933.6 0 -1.99126e+06 87857.5 0 -1.99256e+06 92789.2 0 -1.99392e+06 97729.3 0 -1.99535e+06 102678 0 -1.99685e+06 107636 0 -1.99843e+06 112604 0 -2.00007e+06 117581 0 -2.00179e+06 122570 0 -2.00357e+06 127569 0 -2.00543e+06 132580 0 -2.00736e+06 137603 0 -2.00936e+06 142639 0 -2.01143e+06 147688 0 -2.01357e+06 152750 0 -2.01578e+06 157826 0 -2.01806e+06 162916 0 -2.02042e+06 168022 0 -2.02284e+06 173143 0 -2.02534e+06 178281 0 -2.02791e+06 183435 0 -2.03055e+06 188606 0 -2.03327e+06 193795 0 -2.03605e+06 199002 0 -2.03891e+06 204228 0 -2.04184e+06 209473 0 -2.04484e+06 214739 0 -2.04792e+06 220024 0 -2.05107e+06 225332 0 -2.05429e+06 230660 0 -2.05759e+06 236012 0 -2.06096e+06 241386 0 -2.0644e+06 246784 0 -2.06792e+06 252206 0 -2.07151e+06 257653 0 -2.07517e+06 263126 0 -2.07891e+06 268625 0 -2.08272e+06 274151 0 -2.08661e+06 279705 0 -2.09058e+06 285287 0 -2.09462e+06 290898 0 -2.09873e+06 296540 0 -2.10292e+06 302212 0 -2.10718e+06 307915 0 -2.11152e+06 313651 0 -2.11594e+06 319419 0 -2.12044e+06 325222 0 -1.9773e+06 0 0 -1.97734e+06 4998.25 0 -1.97745e+06 9997 0 -1.97763e+06 14996.7 0 -1.97788e+06 19997.8 0 -1.97821e+06 25000.8 0 -1.97861e+06 30006 0 -1.97908e+06 35014.1 0 -1.97962e+06 40025.4 0 -1.98024e+06 45040.3 0 -1.98093e+06 50059.4 0 -1.98169e+06 55083.1 0 -1.98252e+06 60111.9 0 -1.98343e+06 65146.3 0 -1.98441e+06 70186.6 0 -1.98546e+06 75233.4 0 -1.98658e+06 80287.2 0 -1.98778e+06 85348.3 0 -1.98905e+06 90417.4 0 -1.99039e+06 95494.9 0 -1.99181e+06 100581 0 -1.9933e+06 105677 0 -1.99486e+06 110782 0 -1.99649e+06 115898 0 -1.9982e+06 121025 0 -1.99998e+06 126163 0 -2.00184e+06 131313 0 -2.00377e+06 136475 0 -2.00577e+06 141651 0 -2.00785e+06 146839 0 -2.01e+06 152042 0 -2.01222e+06 157259 0 -2.01452e+06 162491 0 -2.01689e+06 167738 0 -2.01934e+06 173002 0 -2.02186e+06 178283 0 -2.02446e+06 183580 0 -2.02713e+06 188896 0 -2.02987e+06 194230 0 -2.03269e+06 199583 0 -2.03559e+06 204955 0 -2.03856e+06 210348 0 -2.0416e+06 215761 0 -2.04472e+06 221196 0 -2.04792e+06 226654 0 -2.05119e+06 232133 0 -2.05454e+06 237637 0 -2.05797e+06 243164 0 -2.06147e+06 248716 0 -2.06505e+06 254293 0 -2.0687e+06 259897 0 -2.07243e+06 265528 0 -2.07624e+06 271186 0 -2.08013e+06 276872 0 -2.08409e+06 282587 0 -2.08813e+06 288333 0 -2.09225e+06 294109 0 -2.09645e+06 299916 0 -2.10073e+06 305756 0 -2.10508e+06 311628 0 -2.10951e+06 317535 0 -2.11403e+06 323477 0 -2.11862e+06 329454 0 -2.12329e+06 335468 0 -1.97463e+06 0 0 -1.97466e+06 5140.32 0 -1.97478e+06 10281.2 0 -1.97497e+06 15423 0 -1.97523e+06 20566.4 0 -1.97557e+06 25711.7 0 -1.97598e+06 30859.6 0 -1.97647e+06 36010.3 0 -1.97703e+06 41164.5 0 -1.97767e+06 46322.7 0 -1.97839e+06 51485.3 0 -1.97918e+06 56652.8 0 -1.98004e+06 61825.7 0 -1.98098e+06 67004.5 0 -1.982e+06 72189.7 0 -1.98309e+06 77381.9 0 -1.98426e+06 82581.4 0 -1.9855e+06 87788.9 0 -1.98682e+06 93004.9 0 -1.98821e+06 98229.8 0 -1.98968e+06 103464 0 -1.99123e+06 108708 0 -1.99285e+06 113963 0 -1.99455e+06 119229 0 -1.99632e+06 124507 0 -1.99817e+06 129796 0 -2.0001e+06 135099 0 -2.0021e+06 140414 0 -2.00418e+06 145744 0 -2.00633e+06 151087 0 -2.00857e+06 156446 0 -2.01088e+06 161820 0 -2.01326e+06 167210 0 -2.01572e+06 172617 0 -2.01827e+06 178041 0 -2.02088e+06 183483 0 -2.02358e+06 188943 0 -2.02635e+06 194423 0 -2.0292e+06 199922 0 -2.03213e+06 205442 0 -2.03513e+06 210982 0 -2.03822e+06 216545 0 -2.04138e+06 222129 0 -2.04462e+06 227737 0 -2.04794e+06 233368 0 -2.05134e+06 239024 0 -2.05482e+06 244705 0 -2.05837e+06 250411 0 -2.06201e+06 256144 0 -2.06572e+06 261905 0 -2.06952e+06 267693 0 -2.07339e+06 273511 0 -2.07735e+06 279358 0 -2.08138e+06 285235 0 -2.0855e+06 291144 0 -2.0897e+06 297085 0 -2.09397e+06 303059 0 -2.09833e+06 309067 0 -2.10277e+06 315109 0 -2.10729e+06 321188 0 -2.1119e+06 327302 0 -2.11658e+06 333455 0 -2.1213