<?xml version="1.0"?> 
<VTKFile type="StructuredGrid" version="0.1"> 
<StructuredGrid WholeExtent="0 63 0 63 0 0"> 
<Piece Extent="0 63 0 63 0 0"> 
<PointData>
<DataArray type="Float32" Name="|E|" format="ascii" NumberOfComponents="3"> 
3.11591e+06 -1.29065e+06 0 3.26642e+06 -894414 0 3.27954e+06 -605867 0 3.2489e+06 -365957 0 3.18887e+06 -166509 0 3.11428e+06 -68.6168 0 3.03165e+06 139200 0 2.94555e+06 255950 0 2.85871e+06 354022 0 2.77283e+06 436529 0 2.68895e+06 506019 0 2.60768e+06 564574 0 2.52936e+06 613905 0 2.45412e+06 655417 0 2.38199e+06 690275 0 2.31292e+06 719444 0 2.24681e+06 743730 0 2.18356e+06 763809 0 2.12301e+06 780248 0 2.06502e+06 793527 0 2.00946e+06 804054 0 1.95618e+06 812177 0 1.90505e+06 818194 0 1.85594e+06 822361 0 1.80873e+06 824899 0 1.76332e+06 825999 0 1.71958e+06 825830 0 1.67744e+06 824535 0 1.63679e+06 822242 0 1.59756e+06 819064 0 1.55967e+06 815099 0 1.52304e+06 810433 0 1.48761e+06 805145 0 1.45332e+06 799302 0 1.42012e+06 792966 0 1.38794e+06 786190 0 1.35675e+06 779025 0 1.32649e+06 771513 0 1.29713e+06 763694 0 1.26862e+06 755602 0 1.24093e+06 747270 0 1.21403e+06 738726 0 1.18788e+06 729995 0 1.16246e+06 721102 0 1.13773e+06 712067 0 1.11368e+06 702909 0 1.09027e+06 693646 0 1.06749e+06 684294 0 1.04531e+06 674866 0 1.02372e+06 665376 0 1.00269e+06 655835 0 982203 646255 0 962248 636644 0 942806 627012 0 923862 617366 0 905401 607714 0 887410 598063 0 869876 588418 0 852786 578784 0 836128 569168 0 819891 559572 0 804064 550000 0 788637 540457 0 773598 530946 0 3.20499e+06 -1.27338e+06 0 3.3174e+06 -873876 0 3.31823e+06 -578859 0 3.27761e+06 -337090 0 3.21055e+06 -137471 0 3.13047e+06 28286 0 3.04356e+06 166415 0 2.95409e+06 281824 0 2.86456e+06 378484 0 2.77653e+06 459587 0 2.69092e+06 527722 0 2.60825e+06 584996 0 2.52878e+06 633129 0 2.4526e+06 673529 0 2.3797e+06 707360 0 2.31e+06 735584 0 2.24338e+06 759001 0 2.17969e+06 778282 0 2.11878e+06 793988 0 2.0605e+06 806594 0 2.0047e+06 816503 0 1.95122e+06 824057 0 1.89993e+06 829551 0 1.85068e+06 833236 0 1.80337e+06 835329 0 1.75787e+06 836020 0 1.71407e+06 835471 0 1.67188e+06 833825 0 1.6312e+06 831207 0 1.59194e+06 827728 0 1.55404e+06 823482 0 1.51741e+06 818556 0 1.48199e+06 813025 0 1.44772e+06 806957 0 1.41453e+06 800410 0 1.38238e+06 793438 0 1.35122e+06 786089 0 1.321e+06 778405 0 1.29167e+06 770425 0 1.26321e+06 762182 0 1.23557e+06 753708 0 1.20872e+06 745030 0 1.18262e+06 736174 0 1.15725e+06 727162 0 1.13258e+06 718016 0 1.10859e+06 708753 0 1.08524e+06 699391 0 1.06252e+06 689944 0 1.0404e+06 680427 0 1.01887e+06 670853 0 997900 661232 0 977479 651575 0 957588 641892 0 938210 632191 0 919331 622480 0 900935 612766 0 883008 603055 0 865538 593353 0 848512 583665 0 831918 573996 0 815744 564350 0 799979 554731 0 784613 545142 0 769636 535587 0 3.28896e+06 -1.25161e+06 0 3.36865e+06 -850019 0 3.35656e+06 -550270 0 3.30599e+06 -307205 0 3.23187e+06 -107733 0 3.14633e+06 57127.3 0 3.05517e+06 193975 0 2.96237e+06 307945 0 2.87019e+06 403123 0 2.78003e+06 482771 0 2.69272e+06 549517 0 2.60866e+06 605484 0 2.52807e+06 652400 0 2.45098e+06 691676 0 2.37733e+06 724471 0 2.30701e+06 751743 0 2.23987e+06 774287 0 2.17577e+06 792767 0 2.11451e+06 807739 0 2.05595e+06 819671 0 1.99991e+06 828961 0 1.94623e+06 835948 0 1.89478e+06 840918 0 1.84541e+06 844122 0 1.79799e+06 845771 0 1.75241e+06 846052 0 1.70855e+06 845124 0 1.66631e+06 843128 0 1.6256e+06 840186 0 1.58632e+06 836405 0 1.54841e+06 831879 0 1.51178e+06 826693 0 1.47636e+06 820920 0 1.4421e+06 814626 0 1.40894e+06 807868 0 1.37682e+06 800699 0 1.34568e+06 793166 0 1.3155e+06 785309 0 1.28621e+06 777167 0 1.25779e+06 768772 0 1.2302e+06 760155 0 1.20339e+06 751343 0 1.17735e+06 742361 0 1.15203e+06 733230 0 1.12742e+06 723971 0 1.10348e+06 714602 0 1.08019e+06 705139 0 1.05753e+06 695597 0 1.03547e+06 685990 0 1.014e+06 676330 0 993091 666628 0 972732 656895 0 952904 647138 0 933589 637367 0 914772 627589 0 896439 617811 0 878575 608039 0 861167 598279 0 844203 588536 0 827671 578813 0 811558 569116 0 795854 559448 0 780549 549812 0 765631 540212 0 3.36887e+06 -1.22598e+06 0 3.41981e+06 -823256 0 3.39444e+06 -520158 0 3.33399e+06 -276329 0 3.25282e+06 -77315.5 0 3.16184e+06 86441.6 0 3.06648e+06 221872 0 2.97037e+06 334305 0 2.87557e+06 427933 0 2.78333e+06 506078 0 2.69434e+06 571399 0 2.60893e+06 626035 0 2.52724e+06 671717 0 2.44925e+06 709855 0 2.37486e+06 741606 0 2.30394e+06 767921 0 2.23631e+06 789588 0 2.17179e+06 807265 0 2.1102e+06 821501 0 2.05136e+06 832759 0 1.99509e+06 841430 0 1.94123e+06 847848 0 1.88962e+06 852297 0 1.84012e+06 855019 0 1.79261e+06 856225 0 1.74694e+06 856097 0 1.70302e+06 854791 0 1.66074e+06 852444 0 1.61999e+06 849177 0 1.5807e+06 845095 0 1.54277e+06 840290 0 1.50614e+06 834844 0 1.47074e+06 828829 0 1.43649e+06 822308 0 1.40335e+06 815340 0 1.37125e+06 807973 0 1.34015e+06 800255 0 1.30999e+06 792226 0 1.28075e+06 783921 0 1.25237e+06 775374 0 1.22482e+06 766613 0 1.19806e+06 757666 0 1.17207e+06 748556 0 1.1468e+06 739306 0 1.12224e+06 729933 0 1.09836e+06 720457 0 1.07512e+06 710892 0 1.05252e+06 701254 0 1.03052e+06 691556 0 1.00911e+06 681809 0 988261 672025 0 967962 662212 0 948194 652381 0 928940 642539 0 910185 632693 0 891913 622850 0 874110 613016 0 856763 603196 0 839860 593396 0 823388 583619 0 807335 573870 0 791690 564151 0 776443 554467 0 761583 544820 0 3.44547e+06 -1.19697e+06 0 3.47062e+06 -793876 0 3.43183e+06 -488577 0 3.36159e+06 -244489 0 3.27339e+06 -46238.3 0 3.17699e+06 116216 0 3.07747e+06 250093 0 2.9781e+06 360895 0 2.88073e+06 452907 0 2.78644e+06 529503 0 2.69579e+06 593366 0 2.60906e+06 646646 0 2.52629e+06 691077 0 2.44742e+06 728067 0 2.37232e+06 758765 0 2.30081e+06 784117 0 2.23269e+06 804904 0 2.16777e+06 821775 0 2.10585e+06 835274 0 2.04674e+06 845857 0 1.99024e+06 853910 0 1.9362e+06 859760 0 1.88444e+06 863686 0 1.83482e+06 865928 0 1.78721e+06 866691 0 1.74147e+06 866154 0 1.69749e+06 864470 0 1.65516e+06 861774 0 1.61439e+06 858183 0 1.57507e+06 853800 0 1.53714e+06 848715 0 1.50051e+06 843009 0 1.46511e+06 836751 0 1.43088e+06 830004 0 1.39775e+06 822824 0 1.36568e+06 815261 0 1.33461e+06 807357 0 1.30449e+06 799154 0 1.27528e+06 790686 0 1.24694e+06 781986 0 1.21943e+06 773081 0 1.19272e+06 763998 0 1.16678e+06 754760 0 1.14156e+06 745388 0 1.11705e+06 735901 0 1.09322e+06 726316 0 1.07004e+06 716649 0 1.04749e+06 706914 0 1.02555e+06 697123 0 1.0042e+06 687288 0 983409 677420 0 963169 667528 0 943460 657621 0 924266 647706 0 905570 637791 0 887357 627882 0 869614 617985 0 852327 608104 0 835482 598245 0 819068 588413 0 803074 578610 0 787486 568840 0 772296 559106 0 757492 549410 0 3.51931e+06 -1.16493e+06 0 3.52091e+06 -762117 0 3.4687e+06 -455584 0 3.38875e+06 -211714 0 3.29354e+06 -14520.8 0 3.19179e+06 146436 0 3.08815e+06 278629 0 2.98556e+06 387710 0 2.88565e+06 478041 0 2.78934e+06 553042 0 2.69708e+06 615414 0 2.60905e+06 667316 0 2.52522e+06 710480 0 2.44549e+06 746310 0 2.36969e+06 775948 0 2.2976e+06 800331 0 2.22902e+06 820234 0 2.16371e+06 836298 0 2.10147e+06 849058 0 2.04209e+06 858966 0 1.98537e+06 866400 0 1.93115e+06 871682 0 1.87925e+06 875086 0 1.82951e+06 876848 0 1.78181e+06 877169 0 1.73599e+06 876223 0 1.69195e+06 874162 0 1.64958e+06 871117 0 1.60878e+06 867202 0 1.56945e+06 862519 0 1.5315e+06 857155 0 1.49487e+06 851188 0 1.45948e+06 844688 0 1.42526e+06 837715 0 1.39216e+06 830323 0 1.36011e+06 822561 0 1.32906e+06 814472 0 1.29898e+06 806095 0 1.26981e+06 797463 0 1.24151e+06 788608 0 1.21404e+06 779559 0 1.18738e+06 770339 0 1.16148e+06 760972 0 1.13631e+06 751478 0 1.11185e+06 741876 0 1.08807e+06 732181 0 1.06495e+06 722410 0 1.04245e+06 712576 0 1.02057e+06 702692 0 999268 692768 0 978536 682815 0 958353 672842 0 938702 662858 0 919565 652869 0 900927 642883 0 882772 632907 0 865087 622945 0 847857 613002 0 831070 603084 0 814713 593194 0 798775 583336 0 783244 573513 0 768109 563728 0 753360 553984 0 3.59079e+06 -1.13012e+06 0 3.57053e+06 -728168 0 3.50499e+06 -421232 0 3.41545e+06 -178035 0 3.31328e+06 17817.5 0 3.20623e+06 177088 0 3.09852e+06 307471 0 2.99275e+06 414740 0 2.89034e+06 503329 0 2.79205e+06 576690 0 2.69821e+06 637541 0 2.6089e+06 688042 0 2.52404e+06 729924 0 2.44348e+06 764583 0 2.36699e+06 793153 0 2.29434e+06 816563 0 2.22529e+06 835578 0 2.1596e+06 850833 0 2.09705e+06 862854 0 2.03741e+06 872086 0 1.98049e+06 878901 0 1.92609e+06 883615 0 1.87404e+06 886498 0 1.8242e+06 887781 0 1.77639e+06 887660 0 1.73051e+06 886306 0 1.68642e+06 883868 0 1.644e+06 880474 0 1.60317e+06 876236 0 1.56382e+06 871252 0 1.52587e+06 865608 0 1.48924e+06 859382 0 1.45385e+06 852639 0 1.41965e+06 845439 0 1.38656e+06 837835 0 1.35453e+06 829875 0 1.32352e+06 821600 0 1.29347e+06 813047 0 1.26433e+06 804251 0 1.23607e+06 795242 0 1.20864e+06 786046 0 1.18202e+06 776689 0 1.15617e+06 767192 0 1.13105e+06 757575 0 1.10664e+06 747856 0 1.08291e+06 738051 0 1.05984e+06 728175 0 1.0374e+06 718242 0 1.01556e+06 708262 0 994318 698248 0 973642 688209 0 953515 678154 0 933919 668091 0 914838 658027 0 896256 647970 0 878158 637924 0 860528 627896 0 843354 617890 0 826623 607911 0 810322 597962 0 794438 588048 0 778961 578171 0 763880 568334 0 749185 558539 0 3.66019e+06 -1.09274e+06 0 3.6194e+06 -692187 0 3.54067e+06 -385576 0 3.44167e+06 -143479 0 3.33259e+06 50757.6 0 3.22029e+06 208161 0 3.10857e+06 336607 0 2.99967e+06 441979 0 2.89481e+06 528765 0 2.79457e+06 600443 0 2.69918e+06 659743 0 2.60862e+06 708822 0 2.52275e+06 749407 0 2.44137e+06 782884 0 2.36421e+06 810379 0 2.29101e+06 832812 0 2.22152e+06 850937 0 2.15546e+06 865380 0 2.0926e+06 876662 0 2.03271e+06 885217 0 1.97558e+06 891413 0 1.92101e+06 895560 0 1.86883e+06 897922 0 1.81887e+06 898726 0 1.77098e+06 898163 0 1.72502e+06 896403 0 1.68088e+06 893588 0 1.63843e+06 889845 0 1.59756e+06 885284 0 1.5582e+06 879999 0 1.52024e+06 874077 0 1.4836e+06 867590 0 1.44823e+06 860604 0 1.41403e+06 853177 0 1.38096e+06 845361 0 1.34896e+06 837202 0 1.31797e+06 828740 0 1.28795e+06 820012 0 1.25885e+06 811051 0 1.23062e+06 801886 0 1.20324e+06 792544 0 1.17666e+06 783048 0 1.15085e+06 773420 0 1.12578e+06 763679 0 1.10142e+06 753842 0 1.07774e+06 743926 0 1.05471e+06 733944 0 1.03232e+06 723910 0 1.01054e+06 713834 0 989350 703729 0 968727 693602 0 948654 683464 0 929112 673321 0 910086 663181 0 891558 653050 0 873514 642934 0 855939 632838 0 838819 622768 0 822142 612726 0 805894 602718 0 790064 592746 0 774640 582813 0 759611 572922 0 744967 563076 0 3.72774e+06 -1.05296e+06 0 3.66745e+06 -654301 0 3.57573e+06 -348667 0 3.46738e+06 -108075 0 3.35146e+06 84280.8 0 3.23398e+06 239639 0 3.1183e+06 366030 0 3.00633e+06 469420 0 2.89905e+06 554344 0 2.7969e+06 624299 0 2.69999e+06 682017 0 2.60821e+06 729655 0 2.52136e+06 768928 0 2.43917e+06 801214 0 2.36136e+06 827628 0 2.28763e+06 849078 0 2.21769e+06 866310 0 2.15128e+06 879940 0 2.08812e+06 890480 0 2.02799e+06 898359 0 1.97066e+06 903936 0 1.91593e+06 907517 0 1.86361e+06 909358 0 1.81354e+06 909683 0 1.76556e+06 908680 0 1.71954e+06 906512 0 1.67534e+06 903322 0 1.63285e+06 899231 0 1.59196e+06 894346 0 1.55258e+06 888762 0 1.51461e+06 882560 0 1.47797e+06 875812 0 1.4426e+06 868584 0 1.40842e+06 860930 0 1.37537e+06 852901 0 1.34339e+06 844542 0 1.31243e+06 835893 0 1.28244e+06 826989 0 1.25337e+06 817862 0 1.22518e+06 808541 0 1.19783e+06 799052 0 1.17129e+06 789416 0 1.14552e+06 779656 0 1.1205e+06 769790 0 1.09618e+06 759835 0 1.07255e+06 749806 0 1.04957e+06 739717 0 1.02723e+06 729580 0 1.0055e+06 719407 0 984363 709209 0 963791 698994 0 943770 688770 0 924281 678546 0 905307 668329 0 886832 658123 0 868841 647936 0 851319 637772 0 834252 627635 0 817627 617530 0 801431 607460 0 785653 597429 0 770280 587439 0 755302 577493 0 740708 567594 0 3.79358e+06 -1.0109e+06 0 3.71464e+06 -614622 0 3.61012e+06 -310553 0 3.49256e+06 -71852.3 0 3.36987e+06 118369 0 3.2473e+06 271511 0 3.12771e+06 395728 0 3.01271e+06 497056 0 2.90307e+06 580061 0 2.79905e+06 648252 0 2.70065e+06 704362 0 2.60767e+06 750538 0 2.51986e+06 788485 0 2.43689e+06 819571 0 2.35844e+06 844897 0 2.28419e+06 865360 0 2.21383e+06 881697 0 2.14706e+06 894513 0 2.08362e+06 904311 0 2.02325e+06 911513 0 1.96572e+06 916472 0 1.91083e+06 919485 0 1.85838e+06 920807 0 1.80821e+06 920654 0 1.76015e+06 919210 0 1.71406e+06 916636 0 1.66981e+06 913070 0 1.62728e+06 908631 0 1.58636e+06 903423 0 1.54696e+06 897539 0 1.50898e+06 891058 0 1.47235e+06 884050 0 1.43698e+06 876578 0 1.40281e+06 868697 0 1.36978e+06 860455 0 1.33782e+06 851896 0 1.30688e+06 843059 0 1.27692e+06 833979 0 1.24788e+06 824685 0 1.21973e+06 815207 0 1.19242e+06 805569 0 1.16592e+06 795793 0 1.14019e+06 785900 0 1.11521e+06 775908 0 1.09094e+06 765833 0 1.06735e+06 755690 0 1.04442e+06 745493 0 1.02213e+06 735253 0 1.00045e+06 724982 0 979357 714689 0 958835 704384 0 938864 694075 0 919426 683768 0 900503 673471 0 882079 663190 0 864139 652930 0 846668 642695 0 829652 632491 0 813077 622321 0 796932 612189 0 781204 602097 0 765880 592049 0 750952 582047 0 736406 572092 0 3.85782e+06 -966660 0 3.76092e+06 -573243 0 3.64384e+06 -271281 0 3.5172e+06 -34837.1 0 3.38784e+06 153003 0 3.26023e+06 303764 0 3.1368e+06 425694 0 3.01883e+06 524880 0 2.90687e+06 605911 0 2.80102e+06 672301 0 2.70116e+06 726775 0 2.60702e+06 771470 0 2.51826e+06 808079 0 2.43453e+06 837954 0 2.35546e+06 862186 0 2.28071e+06 881659 0 2.20993e+06 897098 0 2.14282e+06 909098 0 2.07909e+06 918154 0 2.01849e+06 924679 0 1.96077e+06 929019 0 1.90573e+06 931466 0 1.85315e+06 932269 0 1.80288e+06 931638 0 1.75473e+06 929754 0 1.70858e+06 926774 0 1.66427e+06 922833 0 1.62171e+06 918046 0 1.58077e+06 912516 0 1.54135e+06 906332 0 1.50336e+06 899571 0 1.46673e+06 892303 0 1.43137e+06 884587 0 1.39721e+06 876478 0 1.36419e+06 868023 0 1.33225e+06 859264 0 1.30134e+06 850238 0 1.2714e+06 840980 0 1.2424e+06 831520 0 1.21428e+06 821884 0 1.187e+06 812096 0 1.16054e+06 802179 0 1.13485e+06 792152 0 1.10991e+06 782033 0 1.08568e+06 771837 0 1.06214e+06 761579 0 1.03926e+06 751272 0 1.01701e+06 740928 0 995376 730557 0 974332 720169 0 953859 709773 0 933936 699376 0 914547 688985 0 895673 678608 0 877299 668250 0 859408 657915 0 841986 647609 0 825019 637336 0 808494 627100 0 792397 616903 0 776717 606750 0 761442 596642 0 746561 586582 0 732062 576572 0 3.92055e+06 -920336 0 3.80628e+06 -530246 0 3.67685e+06 -230893 0 3.54128e+06 2943.41 0 3.40534e+06 188165 0 3.27278e+06 336385 0 3.14558e+06 455918 0 3.02469e+06 552887 0 2.91045e+06 631891 0 2.80281e+06 696441 0 2.70152e+06 749252 0 2.60624e+06 792449 0 2.51657e+06 827707 0 2.4321e+06 856364 0 2.35242e+06 879496 0 2.27717e+06 897975 0 2.20599e+06 912513 0 2.13855e+06 923696 0 2.07455e+06 932009 0 2.01372e+06 937857 0 1.95582e+06 941579 0 1.90062e+06 943460 0 1.84792e+06 943744 0 1.79754e+06 942635 0 1.74932e+06 940313 0 1.7031e+06 936927 0 1.65875e+06 932610 0 1.61615e+06 927476 0 1.57518e+06 921624 0 1.53574e+06 915140 0 1.49775e+06 908100 0 1.46111e+06 900571 0 1.42576e+06 892612 0 1.39161e+06 884274 0 1.3586e+06 875605 0 1.32669e+06 866645 0 1.2958e+06 857431 0 1.26589e+06 847995 0 1.23691e+06 838366 0 1.20882e+06 828571 0 1.18158e+06 818633 0 1.15516e+06 808574 0 1.12951e+06 798412 0 1.1046e+06 788164 0 1.08042e+06 777846 0 1.05692e+06 767472 0 1.03408e+06 757055 0 1.01188e+06 746605 0 990287 736133 0 969289 725648 0 948862 715159 0 928987 704674 0 909645 694198 0 890818 683739 0 872491 673302 0 854648 662892 0 837274 652513 0 820355 642170 0 803877 631865 0 787827 621603 0 772194 611387 0 756965 601217 0 742130 591098 0 727677 581031 0 3.98181e+06 -872002 0 3.85067e+06 -485704 0 3.70914e+06 -189432 0 3.56478e+06 41463.2 0 3.42237e+06 223839 0 3.28494e+06 369362 0 3.15403e+06 486392 0 3.03029e+06 581069 0 2.91382e+06 657994 0 2.80442e+06 720669 0 2.70175e+06 771794 0 2.60535e+06 813474 0 2.51479e+06 847369 0 2.42959e+06 874799 0 2.34933e+06 896826 0 2.27359e+06 914308 0 2.20202e+06 927943 0 2.13425e+06 938308 0 2.06998e+06 945878 0 2.00894e+06 951048 0 1.95085e+06 954152 0 1.89551e+06 955467 0 1.84269e+06 955232 0 1.79221e+06 953647 0 1.74391e+06 950886 0 1.69763e+06 947095 0 1.65323e+06 942404 0 1.61059e+06 936922 0 1.5696e+06 930748 0 1.53015e+06 923964 0 1.49214e+06 916644 0 1.45551e+06 908854 0 1.42015e+06 900651 0 1.38601e+06 892085 0 1.35302e+06 883202 0 1.32112e+06 874040 0 1.29026e+06 864636 0 1.26037e+06 855021 0 1.23142e+06 845224 0 1.20336e+06 835269 0 1.17616e+06 825181 0 1.14977e+06 814978 0 1.12416e+06 804680 0 1.09929e+06 794303 0 1.07514e+06 783862 0 1.05168e+06 773370 0 1.02889e+06 762841 0 1.00673e+06 752284 0 985181 741710 0 964228 731127 0 943845 720544 0 924015 709969 0 904719 699407 0 885938 688864 0 867657 678347 0 849860 667860 0 832532 657407 0 815658 646991 0 799226 636618 0 783222 626289 0 767634 616007 0 752450 605776 0 737659 595596 0 723250 585470 0 4.04166e+06 -821723 0 3.89409e+06 -439682 0 3.7407e+06 -146937 0 3.5877e+06 80696.9 0 3.43892e+06 260008 0 3.29672e+06 402684 0 3.16217e+06 517106 0 3.03563e+06 609420 0 2.91698e+06 684218 0 2.80587e+06 744983 0 2.70183e+06 794396 0 2.60435e+06 834543 0 2.51291e+06 867063 0 2.42701e+06 893260 0 2.34618e+06 914177 0 2.26998e+06 930657 0 2.19801e+06 943388 0 2.12993e+06 952933 0 2.06541e+06 959759 0 2.00414e+06 964252 0 1.94589e+06 966738 0 1.8904e+06 967488 0 1.83746e+06 966735 0 1.78689e+06 964674 0 1.73851e+06 961474 0 1.69217e+06 957278 0 1.64772e+06 952213 0 1.60505e+06 946384 0 1.56403e+06 939887 0 1.52456e+06 932803 0 1.48655e+06 925205 0 1.44991e+06 917154 0 1.41456e+06 908706 0 1.38043e+06 899912 0 1.34745e+06 890813 0 1.31557e+06 881449 0 1.28472e+06 871855 0 1.25486e+06 862061 0 1.22594e+06 852094 0 1.19791e+06 841979 0 1.17073e+06 831738 0 1.14437e+06 821391 0 1.1188e+06 810955 0 1.09397e+06 800448 0 1.06986e+06 789883 0 1.04644e+06 779273 0 1.02368e+06 768630 0 1.00156e+06 757965 0 980059 747287 0 959148 736605 0 938809 725927 0 919022 715260 0 899770 704610 0 881033 693983 0 862796 683384 0 845043 672818 0 827759 662289 0 810930 651801 0 794542 641357 0 778581 630960 0 763037 620612 0 747896 610316 0 733148 600074 0 718781 589888 0 4.10011e+06 -769561 0 3.93651e+06 -392239 0 3.7715e+06 -103445 0 3.61003e+06 120620 0 3.45499e+06 296653 0 3.3081e+06 436338 0 3.17e+06 548054 0 3.04071e+06 637936 0 2.91993e+06 710557 0 2.80715e+06 769379 0 2.70178e+06 817058 0 2.60325e+06 855655 0 2.51096e+06 886790 0 2.42437e+06 911745 0 2.34297e+06 931547 0 2.26632e+06 947023 0 2.19398e+06 958847 0 2.12559e+06 967572 0 2.06081e+06 973654 0 1.99935e+06 977470 0 1.94092e+06 979338 0 1.88529e+06 979524 0 1.83223e+06 978252 0 1.78157e+06 975716 0 1.73311e+06 972077 0 1.68671e+06 967477 0 1.64222e+06 962038 0 1.59951e+06 955863 0 1.55847e+06 949043 0 1.51898e+06 941660 0 1.48096e+06 933781 0 1.44432e+06 925469 0 1.40897e+06 916777 0 1.37485e+06 907753 0 1.34188e+06 898439 0 1.31001e+06 888873 0 1.27919e+06 879087 0 1.24935e+06 869113 0 1.22045e+06 858975 0 1.19245e+06 848699 0 1.1653e+06 838305 0 1.13898e+06 827812 0 1.11343e+06 817239 0 1.08864e+06 806600 0 1.06457e+06 795909 0 1.04118e+06 785179 0 1.01847e+06 774422 0 996386 763647 0 974922 752865 0 954051 742082 0 933753 731307 0 914008 720547 0 894797 709808 0 876103 699095 0 857909 688414 0 840198 677768 0 822957 667161 0 806170 656599 0 789824 646082 0 773906 635615 0 758403 625199 0 743304 614838 0 728597 604532 0 714271 594284 0 4.15717e+06 -715570 0 3.97793e+06 -343429 0 3.80153e+06 -58993.7 0 3.63175e+06 161209 0 3.47058e+06 333760 0 3.3191e+06 470313 0 3.17751e+06 579226 0 3.04554e+06 666609 0 2.92268e+06 737008 0 2.80826e+06 793855 0 2.70161e+06 839777 0 2.60204e+06 876810 0 2.50892e+06 906549 0 2.42166e+06 930255 0 2.33972e+06 948937 0 2.26262e+06 963406 0 2.18992e+06 974322 0 2.12124e+06 982226 0 2.05621e+06 987563 0 1.99454e+06 990702 0 1.93595e+06 991952 0 1.88018e+06 991573 0 1.82701e+06 989785 0 1.77626e+06 986773 0 1.72773e+06 982697 0 1.68127e+06 977693 0 1.63673e+06 971879 0 1.59399e+06 965357 0 1.55292e+06 958216 0 1.51341e+06 950533 0 1.47538e+06 942374 0 1.43874e+06 933801 0 1.40339e+06 924864 0 1.36927e+06 915610 0 1.33632e+06 906080 0 1.30447e+06 896310 0 1.27366e+06 886333 0 1.24384e+06 876177 0 1.21497e+06 865868 0 1.18699e+06 855430 0 1.15987e+06 844882 0 1.13358e+06 834243 0 1.10807e+06 823530 0 1.08331e+06 812758 0 1.05927e+06 801941 0 1.03592e+06 791090 0 1.01324e+06 780217 0 991194 769332 0 969769 758443 0 948937 747558 0 928678 736686 0 908973 725831 0 889802 715001 0 871148 704201 0 852995 693435 0 835325 682707 0 818124 672022 0 801378 661383 0 785072 650793 0 769195 640255 0 753732 629770 0 738673 619341 0 724006 608971 0 709719 598659 0 4.21286e+06 -659802 0 4.01832e+06 -293302 0 3.83078e+06 -13615.7 0 3.65287e+06 202440 0 3.48569e+06 371313 0 3.32971e+06 504598 0 3.1847e+06 610615 0 3.05012e+06 695436 0 2.92522e+06 763568 0 2.80921e+06 818408 0 2.7013e+06 862552 0 2.60073e+06 898006 0 2.50681e+06 926339 0 2.4189e+06 948789 0 2.33643e+06 966347 0 2.2589e+06 979806 0 2.18585e+06 989813 0 2.11687e+06 996894 0 2.0516e+06 1.00149e+06 0 1.98974e+06 1.00395e+06 0 1.93098e+06 1.00458e+06 0 1.87508e+06 1.00364e+06 0 1.8218e+06 1.00133e+06 0 1.77096e+06 997846 0 1.72236e+06 993333 0 1.67584e+06 987925 0 1.63125e+06 981738 0 1.58847e+06 974869 0 1.54738e+06 967406 0 1.50786e+06 959423 0 1.46982e+06 950984 0 1.43317e+06 942149 0 1.39782e+06 932967 0 1.36371e+06 923483 0 1.33077e+06 913736 0 1.29893e+06 903763 0 1.26813e+06 893593 0 1.23834e+06 883255 0 1.20948e+06 872774 0 1.18153e+06 862172 0 1.15444e+06 851469 0 1.12817e+06 840683 0 1.10269e+06 829829 0 1.07796e+06 818924 0 1.05396e+06 807978 0 1.03064e+06 797006 0 1.008e+06 786015 0 985989 775018 0 964600 764021 0 943805 753033 0 923584 742061 0 903917 731111 0 884785 720189 0 866169 709299 0 848054 698447 0 830424 687637 0 813262 676872 0 796555 666155 0 780288 655490 0 764449 644878 0 749026 634323 0 734005 623826 0 719376 613389 0 705127 603013 0 4.26717e+06 -602306 0 4.05768e+06 -241905 0 3.85924e+06 32655.4 0 3.67336e+06 244292 0 3.5003e+06 409296 0 3.33992e+06 539184 0 3.19159e+06 642214 0 3.05445e+06 724410 0 2.92757e+06 790232 0 2.81001e+06 843037 0 2.70087e+06 885382 0 2.59933e+06 919242 0 2.50462e+06 946159 0 2.41608e+06 967348 0 2.3331e+06 983777 0 2.25514e+06 996223 0 2.18175e+06 1.00532e+06 0 2.11249e+06 1.01158e+06 0 2.04699e+06 1.01542e+06 0 1.98493e+06 1.01721e+06 0 1.92601e+06 1.01723e+06 0 1.86998e+06 1.01572e+06 0 1.8166e+06 1.0129e+06 0 1.76567e+06 1.00894e+06 0 1.717e+06 1.00399e+06 0 1.67042e+06 998174 0 1.62579e+06 991614 0 1.58298e+06 984399 0 1.54186e+06 976614 0 1.50232e+06 968330 0 1.46427e+06 959611 0 1.42761e+06 950514 0 1.39226e+06 941086 0 1.35816e+06 931371 0 1.32522e+06 921408 0 1.29339e+06 911229 0 1.26262e+06 900866 0 1.23284e+06 890346 0 1.204e+06 879692 0 1.17608e+06 868925 0 1.14901e+06 858066 0 1.12277e+06 847131 0 1.09732e+06 836137 0 1.07262e+06 825096 0 1.04864e+06 814021 0 1.02536e+06 802925 0 1.00274e+06 791816 0 980771 780705 0 959416 769600 0 938657 758507 0 918472 747434 0 898840 736387 0 879745 725371 0 861166 714391 0 843088 703452 0 825495 692557 0 808370 681710 0 791700 670914 0 775471 660172 0 759669 649486 0 744283 638858 0 729299 628291 0 714706 617786 0 700493 607343 0 4.32009e+06 -543129 0 4.09598e+06 -189283 0 3.88689e+06 79787.9 0 3.69322e+06 286742 0 3.51443e+06 447694 0 3.34975e+06 574058 0 3.19817e+06 674016 0 3.05854e+06 753527 0 2.92973e+06 816998 0 2.81066e+06 867738 0 2.70033e+06 908264 0 2.59783e+06 940518 0 2.50236e+06 966010 0 2.4132e+06 985931 0 2.32972e+06 1.00123e+06 0 2.25136e+06 1.01266e+06 0 2.17763e+06 1.02084e+06 0 2.1081e+06 1.02628e+06 0 2.04237e+06 1.02938e+06 0 1.98013e+06 1.03049e+06 0 1.92106e+06 1.02989e+06 0 1.8649e+06 1.02782e+06 0 1.81141e+06 1.02448e+06 0 1.76039e+06 1.02004e+06 0 1.71165e+06 1.01466e+06 0 1.66502e+06 1.00844e+06 0 1.62034e+06 1.00151e+06 0 1.5775e+06 993946 0 1.53635e+06 985839 0 1.49679e+06 977255 0 1.45873e+06 968256 0 1.42206e+06 958896 0 1.38672e+06 949222 0 1.35262e+06 939276 0 1.31969e+06 929095 0 1.28787e+06 918711 0 1.25711e+06 908154 0 1.22734e+06 897450 0 1.19853e+06 886622 0 1.17062e+06 875690 0 1.14358e+06 864674 0 1.11736e+06 853589 0 1.09193e+06 842452 0 1.06726e+06 831274 0 1.04332e+06 820070 0 1.02006e+06 808848 0 997481 797620 0 975540 786394 0 954218 775178 0 933492 763979 0 913340 752804 0 893743 741658 0 874682 730547 0 856139 719475 0 838096 708447 0 820538 697466 0 803449 686536 0 786815 675659 0 770621 664839 0 754855 654077 0 739503 643376 0 724555 632737 0 709997 622161 0 695819 611651 0 4.37162e+06 -482317 0 4.13322e+06 -135477 0 3.91373e+06 127751 0 3.71246e+06 329768 0 3.52805e+06 486493 0 3.35919e+06 609211 0 3.20444e+06 706013 0 3.06238e+06 782781 0 2.9317e+06 843861 0 2.81116e+06 892509 0 2.69966e+06 931199 0 2.59625e+06 961832 0 2.50004e+06 985891 0 2.41028e+06 1.00454e+06 0 2.32632e+06 1.0187e+06 0 2.24756e+06 1.02911e+06 0 2.1735e+06 1.03638e+06 0 2.1037e+06 1.04099e+06 0 2.03776e+06 1.04335e+06 0 1.97533e+06 1.04378e+06 0 1.91611e+06 1.04256e+06 0 1.85982e+06 1.03993e+06 0 1.80623e+06 1.03608e+06 0 1.75513e+06 1.03117e+06 0 1.70632e+06 1.02534e+06 0 1.65963e+06 1.01873e+06 0 1.61491e+06 1.01142e+06 0 1.57203e+06 1.00351e+06 0 1.53086e+06 995082 0 1.49128e+06 986198 0 1.4532e+06 976918 0 1.41653e+06 967295 0 1.38119e+06 957375 0 1.34708e+06 947197 0 1.31416e+06 936797 0 1.28235e+06 926208 0 1.2516e+06 915456 0 1.22185e+06 904567 0 1.19306e+06 893564 0 1.16517e+06 882466 0 1.13815e+06 871291 0 1.11195e+06 860056 0 1.08655e+06 848775 0 1.0619e+06 837460 0 1.03798e+06 826124 0 1.01476e+06 814776 0 992207 803427 0 970296 792085 0 949005 780757 0 928310 769450 0 908190 758171 0 888626 746925 0 869598 735717 0 851088 724552 0 833078 713433 0 815554 702365 0 798499 691350 0 781898 680391 0 765738 669491 0 750006 658651 0 734688 647874 0 719773 637162 0 705249 626515 0 691104 615936 0 4.42174e+06 -419914 0 4.16938e+06 -80529.8 0 3.93975e+06 176516 0 3.73106e+06 373352 0 3.54119e+06 525678 0 3.36824e+06 644634 0 3.2104e+06 738199 0 3.06599e+06 812170 0 2.93348e+06 870820 0 2.81151e+06 917350 0 2.69889e+06 954184 0 2.59458e+06 983185 0 2.49765e+06 1.0058e+06 0 2.40731e+06 1.02317e+06 0 2.32288e+06 1.03619e+06 0 2.24373e+06 1.04558e+06 0 2.16936e+06 1.05194e+06 0 2.0993e+06 1.05573e+06 0 2.03314e+06 1.05733e+06 0 1.97053e+06 1.05709e+06 0 1.91117e+06 1.05526e+06 0 1.85476e+06 1.05206e+06 0 1.80107e+06 1.04769e+06 0 1.74988e+06 1.04231e+06 0 1.70101e+06 1.03605e+06 0 1.65426e+06 1.02903e+06 0 1.6095e+06 1.02135e+06 0 1.56658e+06 1.0131e+06 0 1.52538e+06 1.00434e+06 0 1.48579e+06 995159 0 1.4477e+06 985599 0 1.41102e+06 975713 0 1.37567e+06 965545 0 1.34157e+06 955135 0 1.30865e+06 944516 0 1.27685e+06 933719 0 1.2461e+06 922772 0 1.21637e+06 911698 0 1.18759e+06 900519 0 1.15972e+06 889253 0 1.13272e+06 877919 0 1.10654e+06 866532 0 1.08116e+06 855106 0 1.05654e+06 843652 0 1.03265e+06 832183 0 1.00945e+06 820708 0 986922 809236 0 965040 797776 0 943777 786335 0 923112 774919 0 903023 763535 0 883489 752187 0 864492 740881 0 846013 729621 0 828035 718411 0 810543 707253 0 793519 696151 0 776951 685109 0 760823 674127 0 745123 663208 0 729838 652354 0 714954 641567 0 700462 630847 0 686348 620197 0 4.47045e+06 -355964 0 4.20445e+06 -24478.8 0 3.96494e+06 226053 0 3.74902e+06 417472 0 3.55382e+06 565235 0 3.37691e+06 680317 0 3.21607e+06 770567 0 3.06936e+06 841687 0 2.93507e+06 897871 0 2.81172e+06 942257 0 2.69801e+06 977218 0 2.59282e+06 1.00458e+06 0 2.4952e+06 1.02574e+06 0 2.4043e+06 1.04182e+06 0 2.31941e+06 1.0537e+06 0 2.23989e+06 1.06208e+06 0 2.16521e+06 1.06751e+06 0 2.0949e+06 1.07047e+06 0 2.02853e+06 1.07134e+06 0 1.96575e+06 1.07042e+06 0 1.90624e+06 1.06797e+06 0 1.84971e+06 1.06421e+06 0 1.79592e+06 1.05933e+06 0 1.74466e+06 1.05347e+06 0 1.69571e+06 1.04677e+06 0 1.64891e+06 1.03935e+06 0 1.60411e+06 1.0313e+06 0 1.56115e+06 1.0227e+06 0 1.51993e+06 1.01362e+06 0 1.48031e+06 1.00414e+06 0 1.44221e+06 994298 0 1.40552e+06 984148 0 1.37016e+06 973733 0 1.33606e+06 963089 0 1.30314e+06 952251 0 1.27135e+06 941246 0 1.24062e+06 930103 0 1.21089e+06 918842 0 1.18213e+06 907486 0 1.15427e+06 896052 0 1.12729e+06 884558 0 1.10113e+06 873018 0 1.07577e+06 861445 0 1.05117e+06 849851 0 1.0273e+06 838248 0 1.00413e+06 826644 0 981628 815048 0 959771 803469 0 938536 791913 0 917898 780387 0 897837 768896 0 878332 757445 0 859364 746039 0 840915 734682 0 822967 723378 0 805504 712130 0 788512 700940 0 771974 689812 0 755876 678747 0 740207 667748 0 724951 656815 0 710098 645951 0 695636 635157 0 681553 624434 0 4.51771e+06 -290510 0 4.23842e+06 32637.6 0 3.98928e+06 276334 0 3.76634e+06 462108 0 3.56596e+06 605152 0 3.38519e+06 716250 0 3.22143e+06 803112 0 3.0725e+06 871328 0 2.93649e+06 925012 0 2.81179e+06 967229 0 2.69702e+06 1.0003e+06 0 2.59099e+06 1.026e+06 0 2.49269e+06 1.04571e+06 0 2.40125e+06 1.0605e+06 0 2.31591e+06 1.07124e+06 0 2.23603e+06 1.07859e+06 0 2.16106e+06 1.08311e+06 0 2.0905e+06 1.08524e+06 0 2.02393e+06 1.08536e+06 0 1.96098e+06 1.08376e+06 0 1.90132e+06 1.0807e+06 0 1.84468e+06 1.07638e+06 0 1.7908e+06 1.07098e+06 0 1.73945e+06 1.06465e+06 0 1.69044e+06 1.05752e+06 0 1.64358e+06 1.04969e+06 0 1.59873e+06 1.04127e+06 0 1.55575e+06 1.03232e+06 0 1.51449e+06 1.02292e+06 0 1.47485e+06 1.01314e+06 0 1.43673e+06 1.00302e+06 0 1.40003e+06 992601 0 1.36467e+06 981938 0 1.33057e+06 971061 0 1.29765e+06 960002 0 1.26586e+06 948789 0 1.23514e+06 937448 0 1.20542e+06 926000 0 1.17667e+06 914466 0 1.14883e+06 902863 0 1.12186e+06 891207 0 1.09572e+06 879512 0 1.07038e+06 867792 0 1.0458e+06 856057 0 1.02195e+06 844318 0 998802 832584 0 976324 820863 0 954491 809163 0 933281 797491 0 912669 785853 0 892634 774253 0 873156 762698 0 854215 751191 0 835794 739736 0 817874 728336 0 800439 716996 0 783475 705716 0 766966 694501 0 750897 683351 0 735256 672269 0 720030 661257 0 705206 650315 0 690772 639444 0 676717 628646 0 4.56352e+06 -223596 0 4.27128e+06 90782.5 0 4.01279e+06 327333 0 3.78301e+06 507243 0 3.57761e+06 645415 0 3.39308e+06 752425 0 3.2265e+06 835826 0 3.0754e+06 