<?xml version="1.0"?> 
<VTKFile type="StructuredGrid" version="0.1"> 
<StructuredGrid WholeExtent="0 63 0 63 0 0"> 
<Piece Extent="0 63 0 63 0 0"> 
<PointData>
<DataArray type="Float32" Name="|E|" format="ascii" NumberOfComponents="3"> 
-5.36442e-07 -7.62939e-06 0 3.84171e-07 785.547 0 -3.26894e-07 945.821 0 2.30968e-07 880.213 0 -1.50874e-07 773.454 0 1.11759e-07 661.649 0 -9.68575e-08 559.901 0 5.58794e-08 471.143 0 1.49012e-08 395.505 0 -5.96046e-08 331.825 0 4.47035e-08 278.575 0 -8.19564e-08 234.214 0 2.23517e-08 197.321 0 8.19564e-08 166.647 0 -4.47035e-08 141.126 0 -1.49012e-08 119.858 0 0 102.097 0 1.49012e-08 87.2275 0 7.45058e-09 74.7416 0 7.45058e-09 64.2251 0 1.49012e-08 55.3387 0 1.49012e-08 47.805 0 4.47035e-08 41.3973 0 -5.96046e-08 35.9297 0 1.04308e-07 31.2498 0 -1.19209e-07 27.2321 0 7.45058e-08 23.7732 0 1.49012e-08 20.7872 0 -4.47035e-08 18.2031 0 7.45058e-08 15.9615 0 -4.47035e-08 14.0128 0 1.49012e-08 12.3154 0 -4.47035e-08 10.834 0 -4.47035e-08 9.53902 0 0 8.40523 0 0 7.41112 0 0 6.53837 0 0 5.77121 0 -1.49012e-08 5.09611 0 0 4.50141 0 0 3.97702 0 0 3.51418 0 0 3.10531 0 0 2.74375 0 -2.98023e-08 2.42375 0 0 2.14023 0 0 1.88877 0 0 1.66547 0 0 1.46689 0 0 1.29001 0 0 1.13216 0 0 0.990943 0 0 0.864264 0 -2.98023e-08 0.75023 0 -2.98023e-08 0.647155 0 0 0.553515 0 2.98023e-08 0.467936 0 0 0.389158 0 2.98023e-08 0.316035 0 0 0.247499 0 2.98023e-08 0.182551 0 -8.9407e-08 0.120251 0 1.19209e-07 0.0596931 0 -1.19209e-07 1.43051e-06 0 20.7903 2.08616e-06 0 7.32646 785.681 0 -0.660007 945.862 0 -2.27472 880.224 0 -3.02246 773.455 0 -3.08481 661.645 0 -2.96037 559.895 0 -2.73858 471.136 0 -2.48028 395.497 0 -2.21789 331.817 0 -1.96551 278.567 0 -1.73164 234.207 0 -1.51956 197.314 0 -1.3302 166.641 0 -1.16293 141.12 0 -1.0163 119.853 0 -0.888439 102.093 0 -0.777336 87.2235 0 -0.680994 74.7381 0 -0.597533 64.222 0 -0.525234 55.3359 0 -0.462562 47.8025 0 -0.408168 41.395 0 -0.360881 35.9277 0 -0.319689 31.248 0 -0.283729 27.2305 0 -0.252262 23.7717 0 -0.22466 20.7859 0 -0.200389 18.2019 0 -0.178998 15.9604 0 -0.1601 14.0118 0 -0.143367 12.3145 0 -0.128522 10.8332 0 -0.115325 9.53829 0 -0.103573 8.40456 0 -0.0930892 7.41052 0 -0.0837248 6.53781 0 -0.0753492 5.77069 0 -0.0678495 5.09564 0 -0.0611277 4.50099 0 -0.0550989 3.97663 0 -0.0496882 3.51383 0 -0.0448305 3.10498 0 -0.0404687 2.74345 0 -0.036552 2.42347 0 -0.0330358 2.13998 0 -0.0298814 1.88854 0 -0.0270534 1.66526 0 -0.0245221 1.4667 0 -0.0222591 1.28984 0 -0.0202425 1.132 0 -0.0184495 0.990802 0 -0.016863 0.864137 0 -0.0154664 0.750117 0 -0.0142467 0.647053 0 -0.0131912 0.553426 0 -0.0122919 0.467856 0 -0.0115395 0.389091 0 -0.0109285 0.315979 0 -0.0104554 0.247454 0 -0.0101166 0.182517 0 -0.00991234 0.120229 0 -0.00984317 0.0596818 0 -0.00991258 -1.59815e-06 0 41.5956 -6.97374e-06 0 14.6465 786.078 0 -1.32266 945.983 0 -4.55002 880.257 0 -6.04542 773.457 0 -6.16968 661.632 0 -5.92079 559.876 0 -5.47713 471.114 0 -4.96049 395.474 0 -4.43569 331.794 0 -3.93092 278.546 0 -3.46317 234.187 0 -3.03901 197.295 0 -2.66029 166.624 0 -2.32576 141.104 0 -2.0325 119.839 0 -1.77679 102.08 0 -1.55459 87.2118 0 -1.36191 74.7276 0 -1.19499 64.2126 0 -1.0504 55.3275 0 -0.925063 47.795 0 -0.816281 41.3883 0 -0.721711 35.9216 0 -0.639332 31.2426 0 -0.567416 27.2256 0 -0.504486 23.7673 0 -0.449285 20.7819 0 -0.400748 18.1983 0 -0.357967 15.9572 0 -0.320173 14.0089 0 -0.286711 12.3118 0 -0.257022 10.8308 0 -0.23063 9.53609 0 -0.207126 8.40255 0 -0.186161 7.40869 0 -0.167434 6.53614 0 -0.150684 5.76917 0 -0.135685 5.09425 0 -0.122243 4.49972 0 -0.110186 3.97547 0 -0.0993659 3.51277 0 -0.0896513 3.10401 0 -0.0809283 2.74257 0 -0.0730953 2.42267 0 -0.0660638 2.13924 0 -0.0597554 1.88787 0 -0.0541 1.66465 0 -0.0490378 1.46614 0 -0.0445124 1.28933 0 -0.0404792 1.13154 0 -0.0368938 0.990386 0 -0.0337209 0.863762 0 -0.0309282 0.749781 0 -0.0284887 0.646755 0 -0.0263786 0.553162 0 -0.0245797 0.467626 0 -0.0230751 0.388893 0 -0.0218532 0.315813 0 -0.020907 0.24732 0 -0.0202296 0.182416 0 -0.0198208 0.120159 0 -0.0196826 0.0596459 0 -0.0198209 1.52737e-06 0 62.4308 6.55651e-06 0 21.9536 786.739 0 -1.99059 946.184 0 -6.82647 880.311 0 -9.0694 773.462 0 -9.25469 661.609 0 -8.8813 559.844 0 -8.2156 471.077 0 -7.44057 395.436 0 -6.65332 331.756 0 -5.89613 278.509 0 -5.19449 234.152 0 -4.55824 197.264 0 -3.99017 166.595 0 -3.48838 141.078 0 -3.04851 119.815 0 -2.66495 102.058 0 -2.33167 87.1924 0 -2.04267 74.7102 0 -1.79231 64.197 0 -1.57544 55.3135 0 -1.38744 47.7825 0 -1.22428 41.3771 0 -1.08244 35.9116 0 -0.958884 31.2336 0 -0.851021 27.2175 0 -0.756634 23.76 0 -0.673841 20.7753 0 -0.601043 18.1924 0 -0.536879 15.9518 0 -0.480194 14.004 0 -0.430006 12.3074 0 -0.385478 10.8267 0 -0.345895 9.53243 0 -0.310644 8.39922 0 -0.2792 7.40565 0 -0.251112 6.53337 0 -0.22599 5.76664 0 -0.203495 5.09195 0 -0.183334 4.49761 0 -0.165251 3.97354 0 -0.149022 3.51101 0 -0.134453 3.1024 0 -0.12137 2.74109 0 -0.109622 2.42132 0 -0.0990761 2.13801 0 -0.0896147 1.88675 0 -0.081133 1.66362 0 -0.0735405 1.46521 0 -0.0667539 1.28849 0 -0.0607048 1.13077 0 -0.0553276 0.989692 0 -0.050569 0.863137 0 -0.0463807 0.749221 0 -0.0427218 0.646256 0 -0.0395573 0.552723 0 -0.0368594 0.467243 0 -0.0346029 0.388565 0 -0.0327706 0.315538 0 -0.0313511 0.247098 0 -0.030335 0.182248 0 -0.029722 0.120045 0 -0.0295141 0.059588 0 -0.0297218 -1.49012e-06 0 83.3109 -1.07288e-06 0 29.2413 787.665 0 -2.66643 946.465 0 -9.10465 880.387 0 -12.0949 773.468 0 -12.3399 661.579 0 -11.842 559.8 0 -10.954 471.025 0 -9.92045 395.382 0 -8.87068 331.703 0 -7.86103 278.458 0 -6.9255 234.104 0 -6.07716 197.219 0 -5.31974 166.554 0 -4.6507 141.041 0 -4.06423 119.781 0 -3.55284 102.028 0 -3.10849 87.1652 0 -2.72319 74.6858 0 -2.38941 64.1751 0 -2.10027 55.294 0 -1.84964 47.765 0 -1.63212 41.3614 0 -1.44302 35.8976 0 -1.2783 31.2209 0 -1.1345 27.2062 0 -1.00867 23.7498 0 -0.898295 20.7661 0 -0.801245 18.184 0 -0.715705 15.9443 0 -0.640138 13.9972 0 -0.573231 12.3012 0 -0.513869 10.8211 0 -0.461099 9.52731 0 -0.414105 8.39457 0 -0.372187 7.40141 0 -0.334743 6.5295 0 -0.301253 5.76311 0 -0.271264 5.08871 0 -0.244388 4.49466 0 -0.220281 3.97084 0 -0.198647 3.50854 0 -0.179224 3.10014 0 -0.161784 2.73903 0 -0.146123 2.41944 0 -0.132065 2.1363 0 -0.119452 1.88518 0 -0.108146 1.66219 0 -0.0980241 1.46391 0 -0.0889776 1.2873 0 -0.0809136 1.1297 0 -0.0737457 0.988722 0 -0.0674022 0.862264 0 -0.0618192 0.748439 0 -0.0569419 0.64556 0 -0.0527235 0.552108 0 -0.0491269 0.466707 0 -0.0461188 0.388106 0 -0.0436765 0.315154 0 -0.0417838 0.246787 0 -0.0404293 0.182012 0 -0.0396118 0.119885 0 -0.0393342 0.0595057 0 -0.0396105 1.13249e-06 0 104.251 -6.67572e-06 0 36.503 788.855 0 -3.35275 946.825 0 -11.3851 880.485 0 -15.1224 773.475 0 -15.4254 661.539 0 -14.8028 559.743 0 -13.6922 470.959 0 -12.4001 395.313 0 -11.0877 331.635 0 -9.82554 278.393 0 -8.65608 234.043 0 -7.59564 197.162 0 -6.64888 166.501 0 -5.81261 140.993 0 -5.07955 119.738 0 -4.44037 101.989 0 -3.88497 87.1302 0 -3.40339 74.6545 0 -2.98622 64.1471 0 -2.62484 55.2688 0 -2.3116 47.7425 0 -2.03974 41.3413 0 -1.8034 35.8795 0 -1.59753 31.2047 0 -1.41781 27.1916 0 -1.26055 23.7367 0 -1.12261 20.7543 0 -1.00132 18.1733 0 -0.894418 15.9346 0 -0.799977 13.9884 0 -0.71636 12.2932 0 -0.642172 10.8139 0 -0.576224 9.52074 0 -0.517494 8.38858 0 -0.465107 7.39595 0 -0.418312 6.52452 0 -0.376458 5.75857 0 -0.338981 5.08457 0 -0.305393 4.49086 0 -0.275266 3.96738 0 -0.24823 3.50537 0 -0.223957 3.09725 0 -0.202161 2.73638 0 -0.18259 2.41702 0 -0.165022 2.13409 0 -0.14926 1.88316 0 -0.135131 1.66035 0 -0.122482 1.46224 0 -0.111177 1.28578 0 -0.1011 1.12832 0 -0.0921426 0.987476 0 -0.0842158 0.861142 0 -0.077239 0.747433 0 -0.0711441 0.644665 0 -0.0658731 0.551318 0 -0.0613781 0.466018 0 -0.0576193 0.387516 0 -0.0545673 0.31466 0 -0.0522015 0.246389 0 -0.0505087 0.181709 0 -0.0494865 0.119679 0 -0.0491389 0.0594015 0 -0.0494834 -8.79169e-07 0 125.266 -2.38419e-07 0 43.7321 790.311 0 -4.05213 947.264 0 -13.6685 880.604 0 -18.1524 773.484 0 -18.5112 661.49 0 -17.7639 559.674 0 -16.4302 470.878 0 -14.8793 395.229 0 -13.3043 331.552 0 -11.7896 278.312 0 -10.3861 233.967 0 -9.11359 197.092 0 -7.97749 166.437 0 -6.97401 140.934 0 -6.0944 119.685 0 -5.32743 101.942 0 -4.66103 87.0875 0 -4.08321 74.6162 0 -3.58266 64.1128 0 -3.14908 55.2382 0 -2.77325 47.7151 0 -2.44708 41.3167 0 -2.16353 35.8575 0 -1.91654 31.1849 0 -1.70092 27.1738 0 -1.51225 23.7206 0 -1.34676 20.7398 0 -1.20124 18.1603 0 -1.07299 15.9228 0 -0.959685 13.9777 0 -0.85937 12.2835 0 -0.770367 10.8051 0 -0.691248 9.51272 0 -0.62079 8.38127 0 -0.557942 7.38929 0 -0.501803 6.51845 0 -0.451591 5.75302 0 -0.406631 5.0795 0 -0.366336 4.48623 0 -0.330194 3.96315 0 -0.297759 3.5015 0 -0.268641 3.09371 0 -0.242494 2.73315 0 -0.219015 2.41406 0 -0.19794 2.13139 0 -0.179031 1.8807 0 -0.162082 1.65811 0 -0.146908 1.46019 0 -0.133347 1.28393 0 -0.121259 1.12664 0 -0.110514 0.985954 0 -0.101005 0.85977 0 -0.0926357 0.746206 0 -0.0853241 0.643572 0 -0.0790017 0.550354 0 -0.073609 0.465178 0 -0.0691002 0.386796 0 -0.065439 0.314057 0 -0.0626005 0.245903 0 -0.0605697 0.181339 0 -0.0593423 0.119429 0 -0.0589242 0.0592732 0 -0.0593366 4.91738e-07 0 146.372 1.43051e-06 0 50.9218 792.034 0 -4.76707 947.78 0 -15.9554 880.745 0 -21.1854 773.495 0 -21.5974 661.433 0 -20.7253 559.592 0 -19.168 470.782 0 -17.3582 395.13 0 -15.5203 331.453 0 -13.753 278.218 0 -12.1156 233.878 0 -10.6309 197.009 0 -9.30547 166.361 0 -8.13479 140.865 0 -7.10865 119.623 0 -6.21395 101.885 0 -5.43658 87.0371 0 -4.76255 74.571 0 -4.17868 64.0724 0 -3.67292 55.202 0 -3.23454 47.6826 0 -2.85409 41.2877 0 -2.52336 35.8314 0 -2.23527 31.1616 0 -1.98378 27.1528 0 -1.76372 23.7017 0 -1.5707 20.7228 0 -1.40098 18.1449 0 -1.25139 15.9088 0 -1.11924 13.9651 0 -1.00224 12.2721 0 -0.89843 10.7947 0 -0.806153 9.50324 0 -0.723976 8.37264 0 -0.650676 7.38142 0 -0.5852 6.51127 0 -0.526638 5.74647 0 -0.474201 5.07351 0 -0.427205 4.48076 0 -0.385053 3.95815 0 -0.347226 3.49693 0 -0.313266 3.08953 0 -0.282771 2.72933 0 -0.255389 2.41057 0 -0.230811 2.1282 0 -0.208759 1.87779 0 -0.188992 1.65546 0 -0.171296 1.45778 0 -0.155482 1.28173 0 -0.141384 1.12465 0 -0.128853 0.984157 0 -0.117764 0.858153 0 -0.108004 0.744756 0 -0.0994779 0.642283 0 -0.0921049 0.549215 0 -0.0858158 0.464186 0 -0.0805576 0.385944 0 -0.076288 0.313345 0 -0.072977 0.245328 0 -0.0706083 0.180903 0 -0.0691756 0.119132 0 -0.0686866 0.059122 0 -0.069166 -7.7486e-07 0 167.585 -3.8147e-06 0 58.0652 794.024 0 -5.50005 948.374 0 -18.2464 880.907 0 -24.222 773.507 0 -24.6841 661.366 0 -23.687 559.497 0 -21.9055 470.671 0 -19.8366 395.015 0 -17.7357 331.34 0 -15.7157 278.109 0 -13.8442 233.775 0 -12.1475 196.914 0 -10.6327 166.274 0 -9.29486 140.786 0 -8.12223 119.551 0 -7.09983 101.821 0 -6.21153 86.9789 0 -5.44134 74.5189 0 -4.77418 64.0257 0 -4.1963 55.1602 0 -3.69541 47.6452 0 -3.26072 41.2542 0 -2.88283 35.8014 0 -2.55368 31.1346 0 -2.26635 27.1286 0 -2.01493 23.6799 0 -1.7944 20.7031 0 -1.60049 18.1271 0 -1.42959 15.8928 0 -1.27861 13.9505 0 -1.14494 12.2588 0 -1.02634 10.7826 0 -0.920917 9.49231 0 -0.827034 8.36269 0 -0.743291 7.37235 0 -0.668488 6.50299 0 -0.601584 5.73891 0 -0.541678 5.06661 0 -0.487989 4.47446 0 -0.439833 3.95238 0 -0.396619 3.49166 0 -0.357822 3.08471 0 -0.322985 2.72493 0 -0.291705 2.40655 0 -0.263626 2.12453 0 -0.238435 1.87444 0 -0.215855 1.6524 0 -0.19564 1.455 0 -0.177575 1.27921 0 -0.161469 1.12236 0 -0.147156 0.982086 0 -0.134489 0.856287 0 -0.12334 0.743085 0 -0.113601 0.640795 0 -0.105179 0.547903 0 -0.0979944 0.463042 0 -0.0919879 0.384964 0 -0.0871102 0.312524 0 -0.0833275 0.244666 0 -0.0806207 0.1804 0 -0.0789828 0.118791 0 -0.0784222 0.0589475 0 -0.0789675 8.9407e-07 0 188.919 3.8147e-06 0 65.1553 796.283 0 -6.25347 949.043 0 -20.542 881.091 0 -27.2625 773.52 0 -27.7713 661.291 0 -26.649 559.389 0 -24.6427 470.546 0 -22.3145 394.885 0 -19.9505 331.211 0 -17.6776 277.985 0 -15.5721 233.659 0 -13.6631 196.806 0 -11.9591 166.175 0 -10.4541 140.696 0 -9.13503 119.469 0 -7.98498 101.747 0 -6.9858 86.913 0 -6.1195 74.4598 0 -5.36911 63.9728 0 -4.71915 55.1129 0 -4.1558 47.6029 0 -3.6669 41.2162 0 -3.24191 35.7674 0 -2.87173 31.1041 0 -2.54859 27.1011 0 -2.26583 23.6552 0 -2.01782 20.6808 0 -1.79976 18.107 0 -1.60756 15.8745 0 -1.43777 13.934 0 -1.28745 12.2439 0 -1.15408 10.769 0 -1.03552 9.47993 0 -0.929945 8.35142 0 -0.835772 7.36208 0 -0.751652 6.49362 0 -0.676416 5.73035 0 -0.609049 5.0588 0 -0.548674 4.46732 0 -0.494522 3.94585 0 -0.445927 3.48569 0 -0.402301 3.07926 0 -0.363127 2.71994 0 -0.327953 2.40199 0 -0.296379 2.12037 0 -0.268053 1.87064 0 -0.242663 1.64894 0 -0.219932 1.45185 0 -0.19962 1.27634 0 -0.181511 1.11976 0 -0.165417 0.97974 0 -0.151174 0.854176 0 -0.138639 0.741192 0 -0.127689 0.639111 0 -0.118219 0.546417 0 -0.110141 0.461747 0 -0.103387 0.383853 0 -0.0979022 0.311595 0 -0.0936482 0.243916 0 -0.0906033 0.17983 0 -0.0887599 0.118405 0 -0.0881272 0.0587502 0 -0.0887371 -3.57628e-07 0 210.39 -1.43051e-06 0 72.1847 798.812 0 -7.02967 949.788 0 -22.8429 881.297 0 -30.3075 773.534 0 -30.8591 661.206 0 -29.6116 559.269 0 -27.3796 470.406 0 -24.7918 394.74 0 -22.1644 331.067 0 -19.6386 277.847 0 -17.299 233.529 0 -15.1779 196.686 0 -13.2845 166.064 0 -11.6124 140.595 0 -10.147 119.378 0 -8.86931 101.665 0 -7.75931 86.8394 0 -6.79695 74.3938 0 -5.96339 63.9137 0 -5.24141 55.06 0 -4.61564 47.5556 0 -4.07259 41.1739 0 -3.60054 35.7294 0 -3.18937 31.07 0 -2.83045 27.0704 0 -2.5164 23.6276 0 -2.24094 20.6559 0 -1.99874 18.0845 0 -1.78528 15.8542 0 -1.5967 13.9156 0 -1.42975 12.2271 0 -1.28162 10.7538 0 -1.14995 9.46611 0 -1.03269 8.33883 0 -0.9281 7.3506 0 -0.834675 6.48315 0 -0.751118 5.7208 0 -0.6763 5.05007 0 -0.609249 4.45934 0 -0.549109 3.93856 0 -0.495141 3.47903 0 -0.446691 3.07316 0 -0.403187 2.71438 0 -0.364125 2.39691 0 -0.329062 2.11572 0 -0.297605 1.8664 0 -0.269409 1.64508 0 -0.244168 1.44833 0 -0.221612 1.27315 0 -0.201502 1.11686 0 -0.183631 0.977121 0 -0.167816 0.851817 0 -0.153896 0.73908 0 -0.141737 0.63723 0 -0.131221 0.544759 0 -0.122251 0.460301 0 -0.114751 0.382614 0 -0.10866 0.310557 0 -0.103935 0.243079 0 -0.100552 0.179195 0 -0.0985034 0.117975 0 -0.0977978 0.0585299 0 -0.0984711 2.98023e-07 0 232.016 1.90735e-06 0 79.1461 801.613 0 -7.83089 950.606 0 -25.1497 881.523 0 -33.3575 773.549 0 -33.9475 661.113 0 -32.5746 559.136 0 -30.116 470.251 0 -27.2684 394.58 0 -24.3775 330.908 0 -21.5986 277.694 0 -19.0248 233.385 0 -16.6915 196.552 0 -14.6089 165.942 0 -12.7698 140.484 0 -11.1579 119.278 0 -9.75272 101.575 0 -8.53196 86.758 0 -7.47362 74.3209 0 -6.55694 63.8485 0 -5.763 55.0016 0 -5.07488 47.5033 0 -4.47773 41.1271 0 -3.95867 35.6874 0 -3.50656 31.0323 0 -3.11191 27.0366 0 -2.76659 23.5971 0 -2.46372 20.6284 0 -2.19741 18.0596 0 -1.96271 15.8317 0 -1.75537 13.8952 0 -1.5718 12.2087 0 -1.40894 10.737 0 -1.26417 9.45084 0 -1.13525 8.32492 0 -1.02026 7.33793 0 -0.917544 6.47159 0 -0.825677 5.71024 0 -0.74342 5.04043 0 -0.669701 4.45053 0 -0.603583 3.93051 0 -0.544249 3.47167 0 -0.490984 3.06644 0 -0.443156 2.70823 0 -0.400212 2.39129 0 -0.361666 2.11059 0 -0.327084 1.86172 0 -0.296088 1.64081 0 -0.26834 1.44445 0 -0.243544 1.26962 0 -0.221438 1.11366 0 -0.201793 0.974228 0 -0.184408 0.849214 0 -0.169107 0.736747 0 -0.155741 0.635154 0 -0.144181 0.542928 0 -0.134321 0.458704 0 -0.126076 0.381245 0 -0.11938 0.309413 0 -0.114185 0.242155 0 -0.110465 0.178493 0 -0.108209 0.117498 0 -0.10743 0.0582869 0 -0.108166 -6.55651e-07 0 253.812 9.53674e-07 0 86.0319 804.688 0 -8.6593 951.496 0 -27.4631 881.772 0 -36.4129 773.565 0 -37.0366 661.01 0 -35.5381 558.991 0 -32.8521 470.082 0 -29.7443 394.404 0 -26.5896 330.734 0 -23.5575 277.527 0 -20.7495 233.228 0 -18.204 196.406 0 -15.9321 165.808 0 -13.9259 140.362 0 -12.1678 119.167 0 -10.6351 101.475 0 -9.30368 86.669 0 -8.14942 74.2412 0 -7.14971 63.7771 0 -6.28386 54.9377 0 -5.53345 47.4461 0 -4.88227 41.0758 0 -4.31624 35.6415 0 -3.82325 30.9911 0 -3.39291 26.9995 0 -3.01637 23.5637 0 -2.68612 20.5983 0 -2.39575 18.0324 0 -2.13983 15.8071 0 -1.91376 13.8729 0 -1.7136 12.1884 0 -1.53603 10.7187 0 -1.37818 9.43413 0 -1.23761 8.30971 0 -1.11223 7.32406 0 -1.00024 6.45893 0 -0.900078 5.69869 0 -0.810393 5.02988 0 -0.730019 4.44089 0 -0.657932 3.9217 0 -0.593242 3.46362 0 -0.53517 3.05908 0 -0.483026 2.7015 0 -0.436208 2.38514 0 -0.394184 2.10498 0 -0.356483 1.8566 0 -0.322692 1.63614 0 -0.292442 1.4402 0 -0.265411 1.26576 0 -0.241313 1.11016 0 -0.219897 0.971066 0 -0.200946 0.846366 0 -0.184267 0.734196 0 -0.169697 0.632883 0 -0.157095 0.540925 0 -0.146347 0.456959 0 -0.137359 0.379748 0 -0.130059 0.30816 0 -0.124394 0.241145 0 -0.120336 0.177726 0 -0.117874 0.116978 0 -0.117021 0.058021 0 -0.117816 4.17233e-07 0 275.796 0 0 92.8339 808.038 0 -9.51697 952.456 0 -29.7837 882.041 0 -39.4742 773.581 0 -40.1265 660.899 0 -38.5023 558.832 0 -35.5876 469.897 0 -32.2194 394.213 0 -28.8006 330.544 0 -25.5152 277.345 0 -22.4729 233.057 0 -19.7152 196.248 0 -17.2541 165.663 0 -15.0809 140.23 0 -13.1765 119.048 0 -11.5165 101.368 0 -10.0744 86.5723 0 -8.82429 74.1545 0 -7.7416 63.6995 0 -6.80394 54.8683 0 -5.99131 47.384 0 -5.28615 41.0202 0 -4.67322 35.5916 0 -4.13939 30.9463 0 -3.67341 26.9593 0 -3.2657 23.5275 0 -2.90811 20.5656 0 -2.59371 18.0029 0 -2.31661 15.7804 0 -2.07183 13.8487 0 -1.85512 12.1665 0 -1.66285 10.6987 0 -1.49195 9.41598 0 -1.33976 8.29318 0 -1.20401 7.309 0 -1.08275 6.4452 0 -0.974307 5.68615 0 -0.877208 5.01842 0 -0.79019 4.43043 0 -0.712145 3.91214 0 -0.642109 3.45487 0 -0.579238 3.05108 0 -0.522787 2.69419 0 -0.472102 2.37847 0 -0.426608 2.09888 0 -0.385795 1.85104 0 -0.349214 1.63108 0 -0.316468 1.43558 0 -0.287207 1.26156 0 -0.261122 1.10636 0 -0.23794 0.967631 0 -0.217425 0.843274 0 -0.199371 0.731426 0 -0.1836 0.630418 0 -0.16996 0.53875 0 -0.158325 0.455063 0 -0.148595 0.378124 0 -0.140692 0.306801 0 -0.134558 0.240049 0 -0.130163 0.176892 0 -0.127495 0.116413 0 -0.126566 0.0577325 0 -0.12742 -6.55651e-07 0 297.983 -9.53674e-07 0 99.5442 811.666 0 -10.4058 953.486 0 -32.1121 882.332 0 -42.5419 773.598 0 -43.2171 660.778 0 -41.467 558.661 0 -38.3226 469.698 0 -34.6937 394.006 0 -31.0105 330.34 0 -27.4716 277.149 0 -24.1949 232.872 0 -21.225 196.077 0 -18.5747 165.506 0 -16.2346 140.087 0 -14.184 118.919 0 -12.3966 101.251 0 -10.844 86.4679 0 -9.49813 74.061 0 -8.33256 63.6158 0 -7.32316 54.7934 0 -6.44838 47.317 0 -5.68932 40.9602 0 -5.02955 35.5378 0 -4.45494 30.898 0 -3.95338 26.9158 0 -3.51455 23.4883 0 -3.12966 20.5303 0 -2.79126 17.9711 0 -2.49302 15.7516 0 -2.22957 13.8226 0 -1.99633 12.1428 0 -1.7894 10.6772 0 -1.60546 9.3964 0 -1.44166 8.27535 0 -1.29556 7.29275 0 -1.16506 6.43037 0 -1.04835 5.67262 0 -0.943852 5.00607 0 -0.850202 4.41913 0 -0.766211 3.90182 0 -0.69084 3.44544 0 -0.623181 3.04246 0 -0.562431 2.68631 0 -0.507887 2.37127 0 -0.458931 2.09231 0 -0.415012 1.84504 0 -0.375649 1.62561 0 -0.340412 1.43061 0 -0.308926 1.25704 0 -0.280858 1.10227 0 -0.255914 0.963927 0 -0.233841 0.839939 0 -0.214415 0.728439 0 -0.197446 0.627761 0 -0.18277 0.536406 0 -0.170251 0.45302 0 -0.159781 0.376373 0 -0.151276 0.305335 0 -0.144674 0.238866 0 -0.139942 0.175995 0 -0.137067 0.115805 0 -0.136061 0.0574217 0 -0.136973 5.36442e-07 0 320.393 9.53674e-07 0 106.154 815.574 0 -11.3277 954.582 0 -34.4491 882.644 0 -45.6164 773.614 0 -46.3086 660.648 0 -44.4325 558.477 0 -41.057 469.484 0 -37.167 393.785 0 -33.2191 330.12 0 -29.4266 276.938 0 -25.9155 232.674 0 -22.7333 195.893 0 -19.8938 165.338 0 -17.3868 139.934 0 -15.1901 118.78 0 -13.2754 101.127 0 -11.6124 86.3558 0 -10.1709 73.9606 0 -8.92251 63.5259 0 -7.84145 54.713 0 -6.90461 47.245 0 -6.09172 40.8957 0 -5.38519 35.48 0 -4.76986 30.8461 0 -4.23278 26.8692 0 -3.76287 23.4464 0 -3.35073 20.4925 0 -2.98838 17.9369 0 -2.66904 15.7207 0 -2.38695 13.7946 0 -2.1372 12.1174 0 -1.91564 10.6541 0 -1.71869 9.3754 0 -1.54331 8.25623 0 -1.38688 7.27531 0 -1.24716 6.41447 0 -1.12219 5.6581 0 -1.01031 4.99281 0 -0.910043 4.40702 0 -0.820119 3.89075 0 -0.739424 3.43532 0 -0.666987 3.03321 0 -0.601949 2.67786 0 -0.543555 2.36354 0 -0.491144 2.08526 0 -0.444127 1.83861 0 -0.401988 1.61974 0 -0.364268 1.42527 0 -0.330563 1.25219 0 -0.300517 1.09787 0 -0.273816 0.959955 0 -0.250189 0.836362 0 -0.229395 0.725235 0 -0.211231 0.624909 0 -0.195521 0.533891 0 -0.18212 0.450829 0 -0.170913 0.374494 0 -0.161807 0.303763 0 -0.154739 0.237599 0 -0.149669 0.175032 0 -0.146586 0.115152 0 -0.145504 0.0570882 0 -0.14647 -1.19209e-07 0 343.043 0 0 112.655 819.765 0 -12.2843 955.743 0 -36.7953 882.977 0 -48.698 773.631 0 -49.4009 660.509 0 -47.3987 558.28 0 -43.7908 469.255 0 -39.6393 393.548 0 -35.4264 329.885 0 -31.3801 276.713 0 -27.6345 232.462 0 -24.24 195.697 0 -21.2113 165.157 0 -18.5374 139.77 0 -16.1947 118.632 0 -14.1529 100.993 0 -12.3795 86.2361 0 -10.8424 73.8533 0 -9.51139 63.43 0 -8.35876 54.6272 0 -7.35993 47.1682 0 -6.4933 40.8269 0 -5.74008 35.4183 0 -5.08411 30.7907 0 -4.51156 26.8194 0 -4.01063 23.4016 0 -3.57129 20.4521 0 -3.18504 17.9004 0 -2.84463 15.6877 0 -2.54394 13.7647 0 -2.27773 12.0902 0 -2.04155 10.6295 0 -1.83162 9.35296 0 -1.64468 8.2358 0 -1.47795 7.2567 0 -1.32902 6.39749 0 -1.19582 5.6426 0 -1.07657 4.97865 0 -0.969702 4.39408 0 -0.873858 3.87892 0 -0.787852 3.42451 0 -0.710648 3.02333 0 -0.641331 2.66883 0 -0.579098 2.3553 0 -0.523241 2.07773 0 -0.473134 1.83174 0 -0.428227 1.61348 0 -0.388029 1.41957 0 -0.352111 1.24702 0 -0.320093 1.09318 0 -0.29164 0.955715 0 -0.266463 0.832545 0 -0.244306 0.721815 0 -0.22495 0.621868 0 -0.20821 0.531208 0 -0.19393 0.44849 0 -0.181987 0.37249 0 -0.172282 0.302087 0 -0.164748 0.236247 0 -0.159341 0.174005 0 -0.156051 0.114456 0 -0.154889 0.0567326 0 -0.155908 -1.19209e-07 0 365.951 -4.76837e-07 0 119.037 824.24 0 -13.2771 956.966 0 -39.1516 883.331 0 -51.7873 773.646 0 -52.4941 660.36 0 -50.3657 558.07 0 -46.524 469.011 0 -42.1106 393.295 0 -37.6323 329.636 0 -33.332 276.473 0 -29.3517 232.237 0 -25.745 195.488 0 -22.5271 164.966 0 -19.6865 139.596 0 -17.1978 118.474 0 -15.029 100.851 0 -13.1453 86.1088 0 -11.5128 73.7392 0 -10.0991 63.3279 0 -8.87501 54.5358 0 -7.8143 47.0864 0 -6.89401 40.7537 0 -6.09417 35.3527 0 -5.39763 30.7319 0 -4.78968 26.7665 0 -4.25779 23.3539 0 -3.79131 20.4091 0 -3.3812 17.8616 0 -3.01978 15.6525 0 -2.70051 13.7329 0 -2.41787 12.0614 0 -2.16712 10.6032 0 -1.94424 9.32911 0 -1.74577 8.21408 0 -1.56875 7.2369 0 -1.41063 6.37943 0 -1.26923 5.62612 0 -1.14262 4.9636 0 -1.02917 4.38033 0 -0.927416 3.86635 0 -0.836113 3.41302 0 -0.754154 3.01283 0 -0.68057 2.65924 0 -0.614507 2.34653 0 -0.555213 2.06972 0 -0.502025 1.82444 0 -0.454357 1.60683 0 -0.411689 1.41351 0 -0.373565 1.24151 0 -0.339581 1.08819 0 -0.309382 0.951208 0 -0.282659 0.828489 0 -0.259143 0.718183 0 -0.2386 0.618634 0 -0.220833 0.528356 0 -0.205677 0.446006 0 -0.193 0.370361 0 -0.182697 0.300305 0 -0.174697 0.23481 0 -0.168955 0.172915 0 -0.165456 0.113717 0 -0.164214 0.0563549 0 -0.165284 0 0 389.136 0 0 125.291 829.003 0 -14.3075 958.25 0 -41.5186 883.707 0 -54.8847 773.661 0 -55.5884 660.202 0 -53.3336 557.847 0 -49.2564 468.752 0 -44.5807 393.028 0 -39.8367 329.371 0 -35.2822 276.219 0 -31.0672 231.998 0 -27.2482 195.266 0 -23.8412 164.763 0 -20.8338 139.411 0 -18.1993 118.307 0 -15.9035 100.701 0 -13.9097 85.9738 0 -12.1818 73.6183 0 -10.6856 63.2197 0 -9.39015 54.439 0 -8.26765 46.9998 0 -7.29378 40.6762 0 -6.44742 35.2832 0 -5.71038 30.6695 0 -5.0671 26.7104 0 -4.50432 23.3034 0 -4.01076 20.3636 0 -3.57684 17.8204 0 -3.19444 15.6153 0 -2.85666 13.6992 0 -2.55762 12.0308 0 -2.29233 10.5754 0 -2.05652 9.30385 0 -1.84654 8.19108 0 -1.65926 7.21593 0 -1.49199 6.36031 0 -1.34239 5.60866 0 -1.20845 4.94766 0 -1.08842 4.36576 0 -0.980784 3.85304 0 -0.884196 3.40085 0 -0.797496 3.00171 0 -0.719656 2.64907 0 -0.649774 2.33725 0 -0.587054 2.06125 0 -0.530794 1.8167 0 -0.480373 1.59978 0 -0.435242 1.4071 0 -0.394919 1.23569 0 -0.358975 1.08291 0 -0.327035 0.946436 0 -0.298773 0.824193 0 -0.273902 0.714335 0 -0.252176 0.615212 0 -0.233385 0.525338 0 -0.217355 0.443375 0 -0.203947 0.368107 0 -0.193049 0.29842 0 -0.184585 0.233289 0 -0.178506 0.17176 0 -0.174798 0.112934 0 -0.173475 0.0559551 0 -0.174594 -1.19209e-07 0 412.617 4.76837e-07 0 131.408 834.057 0 -15.3766 959.592 0 -43.8972 884.104 0 -57.9905 773.675 0 -58.6836 660.035 0 -56.3023 557.611 0 -51.988 468.478 0 -47.0497 392.745 0 -42.0395 329.09 0 -37.2306 275.95 0 -32.7808 231.745 0 -28.7494 195.032 0 -25.1533 164.548 0 -21.9793 139.216 0 -19.199 118.131 0 -16.7763 100.542 0 -14.6725 85.8313 0 -12.8493 73.4907 0 -11.2708 63.1054 0 -9.9041 54.3368 0 -8.71992 46.9084 0 -7.69258 40.5943 0 -6.79978 35.2098 0 -6.02232 30.6036 0 -5.34379 26.6512 0 -4.75018 23.2501 0 -4.22959 20.3155 0 -3.77192 17.777 0 -3.3686 15.5761 0 -3.01233 13.6636 0 -2.69694 11.9985 0 -2.41715 10.5461 0 -2.16845 9.27717 0 -1.94699 8.16679 0 -1.74948 7.1938 0 -1.57306 6.34012 0 -1.41529 5.59023 0 -1.27404 4.93082 0 -1.14746 4.35039 0 -1.03395 3.83899 0 -0.932092 3.38801 0 -0.840664 2.98997 0 -0.758581 2.63835 0 -0.684891 2.32745 0 -0.618755 2.0523 0 -0.559432 1.80854 0 -0.506268 1.59234 0 -0.458683 1.40033 0 -0.416167 1.22954 0 -0.378271 1.07734 0 -0.344596 0.941401 0 -0.3148 0.819661 0 -0.288578 0.710277 0 -0.265673 0.611601 0 -0.245862 0.522154 0 -0.228963 0.440601 0 -0.214825 0.365729 0 -0.203333 0.296432 0 -0.194406 0.231686 0 -0.187991 0.170542 0 -0.184074 0.112108 0 -0.182668 0.0555335 0 -0.183833 6.55651e-07 0 436.415 9.53674e-07 0 137.376 839.404 0 -16.4855 960.988 0 -46.2882 884.522 0 -61.105 773.687 0 -61.7798 659.858 0 -59.2721 557.362 0 -54.7187 468.19 0 -49.5174 392.446 0 -44.2406 328.795 0 -39.1771 275.667 0 -34.4924 231.479 0 -30.2486 194.785 0 -26.4635 164.322 0 -23.1229 139.01 0 -20.1969 117.945 0 -17.6474 100.375 0 -15.4337 85.6811 0 -13.5154 73.3562 0 -11.8547 62.9851 0 -10.4168 54.2292 0 -9.17105 46.8121 0 -8.09034 40.508 0 -7.1512 35.1325 0 -6.33341 30.5342 0 -5.6197 26.5888 0 -4.99533 23.194 0 -4.44778 20.2649 0 -3.96642 17.7313 0 -3.54222 15.5347 0 -3.16752 13.6261 0 -2.83582 11.9645 0 -2.54155 10.5152 0 -2.28 9.24909 0 -2.0471 8.14122 0 -1.83938 7.1705 0 -1.65385 6.31886 0 -1.48793 5.57083 0 -1.33938 4.91311 0 -1.20627 4.3342 0 -1.0869 3.8242 0 -0.979791 3.37449 0 -0.883649 2.97762 0 -0.797336 2.62706 0 -0.71985 2.31714 0 -0.650309 2.04289 0 -0.587934 1.79996 0 -0.532035 1.58452 0 -0.482004 1.39321 0 -0.437304 1.22307 0 -0.397462 1.07148 0 -0.362059 0.936104 0 -0.330734 0.814894 0 -0.303168 0.706007 0 -0.279088 0.607802 0 -0.258262 0.518804 0 -0.240494 0.437683 0 -0.22563 0.363229 0 -0.213547 0.29434 0 -0.204157 0.229999 0 -0.197407 0.169262 0 -0.193281 0.11124 0 -0.191791 0.0550906 0 -0.192999 -8.34465e-07 0 460.55 0 0 143.184 845.049 0 -17.6348 962.437 0 -48.6926 884.962 0 -64.2287 773.698 0 -64.8771 659.672 0 -62.2428 557.1 0 -57.4485 467.886 0 -51.9838 392.133 0 -46.4399 328.485 0 -41.1216 275.369 0 -36.2019 231.199 0 -31.7457 194.526 0 -27.7715 164.084 0 -24.2644 138.794 0 -21.1928 117.75 0 -18.5167 100.199 0 -16.1933 85.5234 0 -14.18 73.2149 0 -12.4371 62.8587 0 -10.9282 54.1161 0 -9.62099 46.7109 0 -8.48702 40.4175 0 -7.50162 35.0513 0 -6.6436 30.4614 0 -5.8948 26.5234 0 -5.23974 23.135 0 -4.6653 20.2117 0 -4.1603 17.6833 0 -3.71528 15.4913 0 -3.3222 13.5868 0 -2.97423 11.9288 0 -2.66553 10.4828 0 -2.39115 9.21961 0 -2.14684 8.11438 0 -1.92894 7.14604 0 -1.73433 6.29655 0 -1.56028 5.55047 0 -1.40447 4.89451 0 -1.26484 4.31721 0 -1.13963 3.80867 0 -1.02728 3.36031 0 -0.926441 2.96465 0 -0.835912 2.61521 0 -0.754643 2.30631 0 -0.681709 2.03301 0 -0.616291 1.79094 0 -0.557668 1.57631 0 -0.505201 1.38574 0 -0.458324 1.21628 0 -0.416544 1.06533 0 -0.37942 0.930547 0 -0.346572 0.809892 0 -0.317667 0.701528 0 -0.292417 0.603818 0 -0.270578 0.515291 0 -0.251948 0.434622 0 -0.23636 0.360607 0 -0.223686 0.292147 0 -0.213836 0.228231 0 -0.20675 0.16792 0 -0.202413 0.11033 0 -0.200838 0.0546258 0 -0.202088 2.38419e-07 0 485.044 0 0 148.821 850.993 0 -18.8251 963.935 0 -51.1113 885.423 0 -67.3618 773.706 0 -67.9756 659.477 0 -65.2146 556.825 0 -60.1774 467.567 0 -54.4488 391.804 0 -48.6373 328.159 0 -43.064 275.057 0 -37.9091 230.906 0 -33.2405 194.254 0 -29.0773 163.835 0 -25.4038 138.568 0 -22.1867 117.545 0 -19.3842 100.015 0 -16.951 85.3582 0 -14.8429 73.0669 0 -13.018 62.7263 0 -11.4382 53.9977 0 -10.0697 46.605 0 -8.88255 40.3226 0 -7.85102 34.9663 0 -6.95285 30.3851 0 -6.16903 26.4548 0 -5.48338 23.0733 0 -4.8821 20.1561 0 -4.35354 17.6331 0 -3.88776 15.4458 0 -3.47635 13.5456 0 -3.11215 11.8915 0 -2.78906 10.4489 0 -2.5019 9.18874 0 -2.2462 8.08627 0 -2.01816 7.12042 0 -1.81448 6.27319 0 -1.63234 5.52915 0 -1.46927 4.87504 0 -1.32315 4.29943 0 -1.19212 3.79242 0 -1.07456 3.34545 0 -0.969032 2.95107 0 -0.874301 2.6028 0 -0.789263 2.29498 0 -0.712947 2.02266 0 -0.644499 1.78151 0 -0.583161 1.56771 0 -0.528266 1.37792 0 -0.479222 1.20918 0 -0.435511 1.05889 0 -0.396673 0.924731 0 -0.362309 0.804657 0 -0.33207 0.696842 0 -0.305656 0.599649 0 -0.282809 0.511615 0 -0.263318 0.431419 0 -0.247009 0.357863 0 -0.233747 0.289852 0 -0.223437 0.226381 0 -0.216018 0.166515 0 -0.211469 0.109379 0 -0.209807 0.05414 0 -0.211094 4.76837e-07 0 509.917 0 0 154.275 857.242 0 -20.0567 965.479 0 -53.5454 885.906 0 -70.5045 773.711 0 -71.0751 659.272 0 -68.1875 556.536 0 -62.9052 467.234 0 -56.9124 391.459 0 -50.8327 327.818 0 -45.0042 274.731 0 -39.6141 230.599 0 -34.7329 193.97 0 -30.3808 163.575 0 -26.5409 138.331 0 -23.1785 117.331 0 -20.2496 99.8224 0 -17.7069 85.1854 0 -15.5041 72.9122 0 -13.5973 62.5879 0 -11.9468 53.8739 0 -10.517 46.4943 0 -9.27689 40.2235 0 -8.19932 34.8775 0 -7.26111 30.3053 0 -6.44238 26.3831 0 -5.7262 23.0088 0 -5.09817 20.0979 0 -4.5461 17.5805 0 -4.05962 15.3983 0 -3.62993 13.5026 0 -3.24955 11.8524 0 -2.91212 10.4134 0 -2.61221 9.15649 0 -2.34517 8.0569 0 -2.10701 7.09366 0 -1.8943 6.24878 0 -1.70409 5.50687 0 -1.5338 4.8547 0 -1.3812 4.28084 0 -1.24437 3.77544 0 -1.1216 3.32993 0 -1.01141 2.93689 0 -0.912494 2.58985 0 -0.8237 2.28315 0 -0.744016 2.01186 0 -0.672548 1.77165 0 -0.608508 1.55873 0 -0.551194 1.3