<?xml version="1.0"?> 
<VTKFile type="StructuredGrid" version="0.1"> 
<StructuredGrid WholeExtent="0 63 0 63 0 0"> 
<Piece Extent="0 63 0 63 0 0"> 
<PointData>
<DataArray type="Float32" Name="|E|" format="ascii" NumberOfComponents="3"> 
1.3394e+06 0 0 1.34609e+06 0.00975026 0 1.36412e+06 0.0112124 0 1.38981e+06 0.00837899 0 1.41986e+06 0.00575553 0 1.45197e+06 0.00394434 0 1.48452e+06 0.00270081 0 1.51644e+06 0.00183051 0 1.54697e+06 0.00121427 0 1.57561e+06 0.000778332 0 1.60202e+06 0.000471555 0 1.62602e+06 0.000251442 0 1.64747e+06 9.23127e-05 0 1.66632e+06 -2.39909e-05 0 1.68256e+06 -0.000112563 0 1.69621e+06 -0.00017707 0 1.70732e+06 -0.000229746 0 1.71596e+06 -0.000268906 0 1.72221e+06 -0.000299335 0 1.72616e+06 -0.000323117 0 1.72793e+06 -0.000340283 0 1.72762e+06 -0.000351906 0 1.72534e+06 -0.000356108 0 1.72122e+06 -0.000359863 0 1.71537e+06 -0.000357956 0 1.70792e+06 -0.000353396 0 1.69897e+06 -0.00034672 0 1.68865e+06 -0.000336766 0 1.67708e+06 -0.000324428 0 1.66435e+06 -0.000311673 0 1.65059e+06 -0.000297964 0 1.63588e+06 -0.000283122 0 1.62032e+06 -0.000267744 0 1.60402e+06 -0.000253916 0 1.58704e+06 -0.000236988 0 1.56949e+06 -0.00022316 0 1.55143e+06 -0.000207901 0 1.53293e+06 -0.000193954 0 1.51406e+06 -0.000179827 0 1.49489e+06 -0.000165999 0 1.47547e+06 -0.000154018 0 1.45585e+06 -0.000141382 0 1.43609e+06 -0.000130892 0 1.41622e+06 -0.000119209 0 1.3963e+06 -0.000109911 0 1.37636e+06 -0.000100255 0 1.35643e+06 -9.19104e-05 0 1.33655e+06 -8.23736e-05 0 1.31674e+06 -7.58171e-05 0 1.29704e+06 -6.80685e-05 0 1.27746e+06 -6.18696e-05 0 1.25802e+06 -5.56707e-05 0 1.23876e+06 -4.99487e-05 0 1.21968e+06 -4.45843e-05 0 1.20079e+06 -4.00543e-05 0 1.18213e+06 -3.55244e-05 0 1.16369e+06 -3.15905e-05 0 1.14548e+06 -2.83718e-05 0 1.12753e+06 -2.45571e-05 0 1.10983e+06 -2.11e-05 0 1.09239e+06 -1.85966e-05 0 1.07523e+06 -1.60933e-05 0 1.05834e+06 -1.32322e-05 0 1.04173e+06 -1.21593e-05 0 1.33938e+06 9.68575e-08 0 1.34607e+06 -687.971 0 1.36411e+06 -1211.99 0 1.3898e+06 -1537.5 0 1.41986e+06 -1709.34 0 1.45197e+06 -1774.97 0 1.48452e+06 -1767.81 0 1.51644e+06 -1710.83 0 1.54697e+06 -1620.08 0 1.57561e+06 -1506.9 0 1.60203e+06 -1379.31 0 1.62602e+06 -1242.99 0 1.64747e+06 -1101.98 0 1.66632e+06 -959.222 0 1.68256e+06 -816.854 0 1.69621e+06 -676.485 0 1.70732e+06 -539.339 0 1.71596e+06 -406.359 0 1.72221e+06 -278.274 0 1.72617e+06 -155.646 0 1.72793e+06 -38.8976 0 1.72762e+06 71.6669 0 1.72534e+06 175.843 0 1.72122e+06 273.516 0 1.71537e+06 364.645 0 1.70792e+06 449.261 0 1.69897e+06 527.448 0 1.68866e+06 599.34 0 1.67708e+06 665.113 0 1.66435e+06 724.974 0 1.65059e+06 779.155 0 1.63588e+06 827.909 0 1.62032e+06 871.5 0 1.60402e+06 910.203 0 1.58705e+06 944.294 0 1.56949e+06 974.05 0 1.55143e+06 999.747 0 1.53293e+06 1021.65 0 1.51406e+06 1040.03 0 1.49489e+06 1055.13 0 1.47547e+06 1067.2 0 1.45585e+06 1076.46 0 1.43609e+06 1083.14 0 1.41622e+06 1087.45 0 1.3963e+06 1089.57 0 1.37636e+06 1089.7 0 1.35643e+06 1088.01 0 1.33655e+06 1084.65 0 1.31674e+06 1079.79 0 1.29704e+06 1073.55 0 1.27746e+06 1066.07 0 1.25802e+06 1057.47 0 1.23876e+06 1047.85 0 1.21968e+06 1037.33 0 1.20079e+06 1025.99 0 1.18213e+06 1013.92 0 1.16368e+06 1001.21 0 1.14548e+06 987.925 0 1.12753e+06 974.132 0 1.10983e+06 959.894 0 1.09239e+06 945.269 0 1.07523e+06 930.307 0 1.05834e+06 915.057 0 1.04173e+06 899.561 0 1.33932e+06 -7.30157e-07 0 1.34602e+06 -1376.47 0 1.36407e+06 -2424.6 0 1.38978e+06 -3075.46 0 1.41985e+06 -3419 0 1.45196e+06 -3550.16 0 1.48453e+06 -3535.77 0 1.51645e+06 -3421.76 0 1.54698e+06 -3240.23 0 1.57562e+06 -3013.84 0 1.60204e+06 -2758.64 0 1.62603e+06 -2485.99 0 1.64748e+06 -2203.97 0 1.66633e+06 -1918.44 0 1.68257e+06 -1633.7 0 1.69622e+06 -1352.96 0 1.70733e+06 -1078.67 0 1.71597e+06 -812.703 0 1.72222e+06 -556.532 0 1.72618e+06 -311.275 0 1.72794e+06 -77.7767 0 1.72763e+06 143.353 0 1.72535e+06 351.706 0 1.72123e+06 547.051 0 1.71538e+06 729.31 0 1.70792e+06 898.541 0 1.69898e+06 1054.91 0 1.68866e+06 1198.7 0 1.67708e+06 1330.24 0 1.66436e+06 1449.97 0 1.65059e+06 1558.33 0 1.63588e+06 1655.83 0 1.62033e+06 1743.02 0 1.60402e+06 1820.42 0 1.58705e+06 1888.6 0 1.56949e+06 1948.11 0 1.55143e+06 1999.5 0 1.53293e+06 2043.32 0 1.51406e+06 2080.07 0 1.49489e+06 2110.27 0 1.47547e+06 2134.4 0 1.45585e+06 2152.93 0 1.43609e+06 2166.29 0 1.41622e+06 2174.9 0 1.3963e+06 2179.15 0 1.37636e+06 2179.41 0 1.35643e+06 2176.02 0 1.33655e+06 2169.31 0 1.31674e+06 2159.58 0 1.29704e+06 2147.11 0 1.27746e+06 2132.14 0 1.25802e+06 2114.94 0 1.23876e+06 2095.71 0 1.21967e+06 2074.66 0 1.20079e+06 2051.98 0 1.18212e+06 2027.85 0 1.16368e+06 2002.42 0 1.14548e+06 1975.85 0 1.12752e+06 1948.26 0 1.10983e+06 1919.79 0 1.09239e+06 1890.54 0 1.07523e+06 1860.62 0 1.05834e+06 1830.11 0 1.04173e+06 1799.12 0 1.33922e+06 1.2666e-06 0 1.34593e+06 -2066.06 0 1.36402e+06 -3638.44 0 1.38975e+06 -4614.34 0 1.41984e+06 -5129.29 0 1.45196e+06 -5325.79 0 1.48453e+06 -5304.02 0 1.51646e+06 -5132.89 0 1.54699e+06 -4860.51 0 1.57564e+06 -4520.87 0 1.60206e+06 -4138.03 0 1.62605e+06 -3729.01 0 1.6475e+06 -3305.97 0 1.66635e+06 -2877.66 0 1.68259e+06 -2450.54 0 1.69624e+06 -2029.42 0 1.70735e+06 -1617.97 0 1.71599e+06 -1219.02 0 1.72224e+06 -834.757 0 1.72619e+06 -466.868 0 1.72796e+06 -116.618 0 1.72764e+06 215.078 0 1.72537e+06 527.608 0 1.72124e+06 820.625 0 1.71539e+06 1094.01 0 1.70794e+06 1347.86 0 1.69899e+06 1582.42 0 1.68867e+06 1798.09 0 1.67709e+06 1995.41 0 1.66437e+06 2174.99 0 1.6506e+06 2337.53 0 1.63589e+06 2483.79 0 1.62033e+06 2614.56 0 1.60403e+06 2730.66 0 1.58705e+06 2832.93 0 1.5695e+06 2922.2 0 1.55143e+06 2999.29 0 1.53293e+06 3065 0 1.51406e+06 3120.13 0 1.49489e+06 3165.43 0 1.47547e+06 3201.62 0 1.45585e+06 3229.41 0 1.43609e+06 3249.45 0 1.41622e+06 3262.36 0 1.3963e+06 3268.74 0 1.37636e+06 3269.13 0 1.35643e+06 3264.05 0 1.33655e+06 3253.98 0 1.31674e+06 3239.38 0 1.29703e+06 3220.67 0 1.27745e+06 3198.22 0 1.25802e+06 3172.41 0 1.23876e+06 3143.57 0 1.21967e+06 3111.99 0 1.20079e+06 3077.98 0 1.18212e+06 3041.78 0 1.16368e+06 3003.64 0 1.14548e+06 2963.78 0 1.12752e+06 2922.4 0 1.10982e+06 2879.69 0 1.09239e+06 2835.81 0 1.07522e+06 2790.92 0 1.05834e+06 2745.17 0 1.04173e+06 2698.69 0 1.33908e+06 0 0 1.34581e+06 -2757.24 0 1.36394e+06 -4854.12 0 1.3897e+06 -6154.59 0 1.41981e+06 -6840.53 0 1.45196e+06 -7102.06 0 1.48454e+06 -7072.72 0 1.51647e+06 -6844.33 0 1.54701e+06 -6480.99 0 1.57566e+06 -6028.03 0 1.60208e+06 -5517.49 0 1.62608e+06 -4972.08 0 1.64753e+06 -4407.98 0 1.66638e+06 -3836.88 0 1.68262e+06 -3267.35 0 1.69627e+06 -2705.84 0 1.70738e+06 -2157.23 0 1.71601e+06 -1625.29 0 1.72226e+06 -1112.93 0 1.72622e+06 -622.408 0 1.72798e+06 -155.404 0 1.72766e+06 286.86 0 1.72539e+06 703.568 0 1.72126e+06 1094.26 0 1.71541e+06 1458.78 0 1.70795e+06 1797.24 0 1.699e+06 2109.98 0 1.68868e+06 2397.54 0 1.67711e+06 2660.63 0 1.66438e+06 2900.07 0 1.65061e+06 3116.78 0 1.6359e+06 3311.79 0 1.62034e+06 3486.15 0 1.60403e+06 3640.95 0 1.58706e+06 3777.3 0 1.5695e+06 3896.32 0 1.55144e+06 3999.1 0 1.53294e+06 4086.72 0 1.51407e+06 4160.22 0 1.49489e+06 4220.61 0 1.47547e+06 4268.87 0 1.45585e+06 4305.92 0 1.43609e+06 4332.63 0 1.41622e+06 4349.85 0 1.3963e+06 4358.35 0 1.37636e+06 4358.86 0 1.35643e+06 4352.09 0 1.33655e+06 4338.67 0 1.31674e+06 4319.2 0 1.29703e+06 4294.24 0 1.27745e+06 4264.31 0 1.25802e+06 4229.9 0 1.23875e+06 4191.44 0 1.21967e+06 4149.34 0 1.20079e+06 4103.98 0 1.18212e+06 4055.72 0 1.16368e+06 4004.86 0 1.14548e+06 3951.71 0 1.12752e+06 3896.54 0 1.10982e+06 3839.59 0 1.09239e+06 3781.08 0 1.07522e+06 3721.24 0 1.05833e+06 3660.23 0 1.04173e+06 3598.25 0 1.33889e+06 8.9407e-08 0 1.34565e+06 -3450.58 0 1.36383e+06 -6072.26 0 1.38964e+06 -7696.68 0 1.41979e+06 -8553.02 0 1.45195e+06 -8879.19 0 1.48455e+06 -8842 0 1.51649e+06 -8556.16 0 1.54704e+06 -8101.73 0 1.57569e+06 -7535.36 0 1.60212e+06 -6897.06 0 1.62611e+06 -6215.2 0 1.64757e+06 -5510.01 0 1.66642e+06 -4796.08 0 1.68265e+06 -4084.15 0 1.6963e+06 -3382.23 0 1.70741e+06 -2696.44 0 1.71605e+06 -2031.5 0 1.72229e+06 -1391.04 0 1.72624e+06 -777.878 0 1.72801e+06 -194.116 0 1.72769e+06 358.718 0 1.72541e+06 879.607 0 1.72128e+06 1367.97 0 1.71543e+06 1823.62 0 1.70797e+06 2246.69 0 1.69902e+06 2637.62 0 1.6887e+06 2997.07 0 1.67712e+06 3325.92 0 1.66439e+06 3625.21 0 1.65062e+06 3896.1 0 1.63591e+06 4139.86 0 1.62035e+06 4357.8 0 1.60404e+06 4551.29 0 1.58707e+06 4721.73 0 1.56951e+06 4870.49 0 1.55144e+06 4998.96 0 1.53294e+06 5108.48 0 1.51407e+06 5200.35 0 1.4949e+06 5275.83 0 1.47547e+06 5336.15 0 1.45585e+06 5382.46 0 1.43609e+06 5415.85 0 1.41623e+06 5437.36 0 1.3963e+06 5447.98 0 1.37636e+06 5448.62 0 1.35643e+06 5440.15 0 1.33655e+06 5423.37 0 1.31674e+06 5399.03 0 1.29703e+06 5367.83 0 1.27745e+06 5330.42 0 1.25802e+06 5287.39 0 1.23875e+06 5239.32 0 1.21967e+06 5186.69 0 1.20079e+06 5129.99 0 1.18212e+06 5069.66 0 1.16368e+06 5006.09 0 1.14547e+06 4939.65 0 1.12752e+06 4870.68 0 1.10982e+06 4799.49 0 1.09238e+06 4726.36 0 1.07522e+06 4651.55 0 1.05833e+06 4575.3 0 1.04172e+06 4497.82 0 1.33867e+06 2.68221e-07 0 1.34546e+06 -4146.62 0 1.36371e+06 -7293.48 0 1.38957e+06 -9241.05 0 1.41975e+06 -10267.1 0 1.45194e+06 -10657.4 0 1.48456e+06 -10612 0 1.51651e+06 -10268.5 0 1.54707e+06 -9722.81 0 1.57573e+06 -9042.89 0 1.60216e+06 -8276.75 0 1.62616e+06 -7458.4 0 1.64761e+06 -6612.07 0 1.66646e+06 -5755.29 0 1.6827e+06 -4900.91 0 1.69634e+06 -4058.57 0 1.70745e+06 -3235.59 0 1.71608e+06 -2437.64 0 1.72233e+06 -1669.07 0 1.72628e+06 -933.26 0 1.72804e+06 -232.735 0 1.72772e+06 430.673 0 1.72544e+06 1055.74 0 1.72131e+06 1641.78 0 1.71546e+06 2188.56 0 1.708e+06 2696.24 0 1.69904e+06 3165.35 0 1.68872e+06 3596.68 0 1.67714e+06 3991.3 0 1.66441e+06 4350.44 0 1.65064e+06 4675.5 0 1.63592e+06 4968 0 1.62036e+06 5229.52 0 1.60405e+06 5461.7 0 1.58708e+06 5666.22 0 1.56952e+06 5844.73 0 1.55145e+06 5998.88 0 1.53295e+06 6130.29 0 1.51408e+06 6240.52 0 1.4949e+06 6331.1 0 1.47548e+06 6403.48 0 1.45586e+06 6459.03 0 1.43609e+06 6499.09 0 1.41623e+06 6524.9 0 1.3963e+06 6537.64 0 1.37636e+06 6538.4 0 1.35643e+06 6528.23 0 1.33654e+06 6508.09 0 1.31674e+06 6478.88 0 1.29703e+06 6441.44 0 1.27745e+06 6396.54 0 1.25801e+06 6344.91 0 1.23875e+06 6287.21 0 1.21967e+06 6224.06 0 1.20078e+06 6156.02 0 1.18211e+06 6083.62 0 1.16367e+06 6007.33 0 1.14547e+06 5927.6 0 1.12751e+06 5844.84 0 1.10981e+06 5759.41 0 1.09238e+06 5671.65 0 1.07521e+06 5581.87 0 1.05833e+06 5490.37 0 1.04172e+06 5397.39 0 1.3384e+06 7.15256e-07 0 1.34524e+06 -4845.9 0 1.36356e+06 -8518.39 0 1.38949e+06 -10788.2 0 1.41972e+06 -11983 0 1.45194e+06 -12436.9 0 1.48457e+06 -12382.9 0 1.51654e+06 -11981.4 0 1.54711e+06 -11344.3 0 1.57577e+06 -10550.7 0 1.6022e+06 -9656.6 0 1.62621e+06 -8701.67 0 1.64766e+06 -7714.16 0 1.66651e+06 -6714.48 0 1.68275e+06 -5717.64 0 1.69639e+06 -4734.85 0 1.7075e+06 -3774.67 0 1.71613e+06 -2843.69 0 1.72237e+06 -1947 0 1.72632e+06 -1088.54 0 1.72808e+06 -271.243 0 1.72776e+06 502.742 0 1.72548e+06 1232 0 1.72135e+06 1915.71 0 1.71549e+06 2553.61 0 1.70802e+06 3145.91 0 1.69907e+06 3693.19 0 1.68875e+06 4196.41 0 1.67716e+06 4656.79 0 1.66443e+06 5075.77 0 1.65065e+06 5455 0 1.63594e+06 5796.23 0 1.62038e+06 6101.32 0 1.60407e+06 6372.19 0 1.58709e+06 6610.78 0 1.56953e+06 6819.03 0 1.55146e+06 6998.86 0 1.53295e+06 7152.16 0 1.51408e+06 7280.76 0 1.49491e+06 7386.42 0 1.47548e+06 7470.85 0 1.45586e+06 7535.66 0 1.43609e+06 7582.38 0 1.41623e+06 7612.49 0 1.3963e+06 7627.34 0 1.37636e+06 7628.22 0 1.35643e+06 7616.34 0 1.33654e+06 7592.84 0 1.31673e+06 7558.75 0 1.29703e+06 7515.06 0 1.27745e+06 7462.68 0 1.25801e+06 7402.44 0 1.23874e+06 7335.12 0 1.21966e+06 7261.44 0 1.20078e+06 7182.05 0 1.18211e+06 7097.58 0 1.16367e+06 7008.58 0 1.14546e+06 6915.56 0 1.12751e+06 6819 0 1.10981e+06 6719.32 0 1.09237e+06 6616.94 0 1.07521e+06 6512.2 0 1.05832e+06 6405.44 0 1.04171e+06 6296.96 0 1.33809e+06 -8.9407e-07 0 1.34498e+06 -5549.01 0 1.36339e+06 -9747.62 0 1.38939e+06 -12338.5 0 1.41967e+06 -13701.2 0 1.45193e+06 -14217.9 0 1.48459e+06 -14154.9 0 1.51657e+06 -13695 0 1.54715e+06 -12966.2 0 1.57582e+06 -12058.8 0 1.60226e+06 -11036.6 0 1.62626e+06 -9945.04 0 1.64772e+06 -8816.28 0 1.66657e+06 -7673.67 0 1.6828e+06 -6534.32 0 1.69645e+06 -5411.06 0 1.70755e+06 -4313.66 0 1.71618e+06 -3249.63 0 1.72243e+06 -2224.82 0 1.72637e+06 -1243.69 0 1.72813e+06 -309.621 0 1.72781e+06 574.946 0 1.72552e+06 1408.38 0 1.72139e+06 2189.77 0 1.71553e+06 2918.8 0 1.70806e+06 3595.71 0 1.6991e+06 4221.17 0 1.68877e+06 4796.26 0 1.67719e+06 5322.4 0 1.66445e+06 5801.22 0 1.65068e+06 6234.61 0 1.63596e+06 6624.57 0 1.62039e+06 6973.23 0 1.60408e+06 7282.78 0 1.5871e+06 7555.44 0 1.56954e+06 7793.42 0 1.55147e+06 7998.93 0 1.53296e+06 8174.11 0 1.51409e+06 8321.06 0 1.49491e+06 8441.81 0 1.47548e+06 8538.28 0 1.45586e+06 8612.33 0 1.4361e+06 8665.72 0 1.41623e+06 8700.11 0 1.3963e+06 8717.07 0 1.37636e+06 8718.07 0 1.35643e+06 8704.49 0 1.33654e+06 8677.62 0 1.31673e+06 8638.66 0 1.29702e+06 8588.72 0 1.27744e+06 8528.84 0 1.25801e+06 8459.99 0 1.23874e+06 8383.05 0 1.21966e+06 8298.83 0 1.20077e+06 8208.1 0 1.1821e+06 8111.56 0 1.16366e+06 8009.84 0 1.14546e+06 7903.53 0 1.1275e+06 7793.16 0 1.1098e+06 7679.25 0 1.09237e+06 7562.23 0 1.0752e+06 7442.53 0 1.05831e+06 7320.52 0 1.04171e+06 7196.54 0 1.33775e+06 1.37091e-06 0 1.34468e+06 -6256.52 0 1.3632e+06 -10981.8 0 1.38929e+06 -13892.4 0 1.41962e+06 -15421.8 0 1.45192e+06 -16000.6 0 1.4846e+06 -15928 0 1.51661e+06 -15409.5 0 1.5472e+06 -14588.7 0 1.57587e+06 -13567.2 0 1.60232e+06 -12416.9 0 1.62633e+06 -11188.5 0 1.64778e+06 -9918.44 0 1.66663e+06 -8632.84 0 1.68287e+06 -7350.95 0 1.69651e+06 -6087.2 0 1.70762e+06 -4852.54 0 1.71624e+06 -3655.46 0 1.72248e+06 -2502.5 0 1.72643e+06 -1398.7 0 1.72818e+06 -347.851 0 1.72786e+06 647.302 0 1.72557e+06 1584.93 0 1.72143e+06 2463.99 0 1.71557e+06 3284.15 0 1.7081e+06 4045.66 0 1.69914e+06 4749.29 0 1.68881e+06 5396.26 0 1.67722e+06 5988.15 0 1.66448e+06 6526.81 0 1.6507e+06 7014.35 0 1.63598e+06 7453.04 0 1.62041e+06 7845.26 0 1.6041e+06 8193.48 0 1.58711e+06 8500.2 0 1.56955e+06 8767.91 0 1.55148e+06 8999.08 0 1.53297e+06 9196.14 0 1.5141e+06 9361.45 0 1.49492e+06 9497.27 0 1.47549e+06 9605.78 0 1.45587e+06 9689.07 0 1.4361e+06 9749.12 0 1.41623e+06 9787.8 0 1.3963e+06 9806.86 0 1.37636e+06 9807.97 0 1.35643e+06 9792.68 0 1.33654e+06 9762.44 0 1.31673e+06 9718.59 0 1.29702e+06 9662.4 0 1.27744e+06 9595.03 0 1.258e+06 9517.57 0 1.23874e+06 9431 0 1.21965e+06 9336.25 0 1.20077e+06 9234.17 0 1.1821e+06 9125.55 0 1.16366e+06 9011.11 0 1.14545e+06 8891.5 0 1.1275e+06 8767.34 0 1.1098e+06 8639.19 0 1.09236e+06 8507.54 0 1.07519e+06 8372.87 0 1.05831e+06 8235.6 0 1.0417e+06 8096.12 0 1.33735e+06 -9.53674e-07 0 1.34435e+06 -6969.01 0 1.36298e+06 -12221.6 0 1.38916e+06 -15450.5 0 1.41956e+06 -17145.2 0 1.4519e+06 -17785.2 0 1.48462e+06 -17702.4 0 1.51665e+06 -17124.8 0 1.54725e+06 -16211.7 0 1.57594e+06 -15076 0 1.60239e+06 -13797.3 0 1.6264e+06 -12432.1 0 1.64786e+06 -11020.7 0 1.66671e+06 -9592 0 1.68294e+06 -8167.53 0 1.69659e+06 -6763.24 0 1.70769e+06 -5391.32 0 1.71631e+06 -4061.16 0 1.72255e+06 -2780.04 0 1.72649e+06 -1553.55 0 1.72824e+06 -385.915 0 1.72791e+06 719.83 0 1.72562e+06 1761.65 0 1.72148e+06 2738.39 0 1.71561e+06 3649.68 0 1.70814e+06 4495.79 0 1.69918e+06 5277.59 0 1.68884e+06 5996.43 0 1.67725e+06 6654.06 0 1.66451e+06 7252.55 0 1.65073e+06 7794.24 0 1.636e+06 8281.64 0 1.62043e+06 8717.42 0 1.60412e+06 9104.31 0 1.58713e+06 9445.08 0 1.56956e+06 9742.51 0 1.55149e+06 9999.34 0 1.53298e+06 10218.3 0 1.51411e+06 10401.9 0 1.49492e+06 10552.8 0 1.47549e+06 10673.4 0 1.45587e+06 10765.9 0 1.4361e+06 10832.6 0 1.41623e+06 10875.5 0 1.3963e+06 10896.7 0 1.37636e+06 10897.9 0 1.35642e+06 10880.9 0 1.33654e+06 10847.3 0 1.31673e+06 10798.6 0 1.29702e+06 10736.1 0 1.27743e+06 10661.3 0 1.258e+06 10575.2 0 1.23873e+06 10479 0 1.21965e+06 10373.7 0 1.20076e+06 10260.3 0 1.18209e+06 10139.6 0 1.16365e+06 10012.4 0 1.14544e+06 9879.5 0 1.12749e+06 9741.54 0 1.10979e+06 9599.13 0 1.09235e+06 9452.85 0 1.07519e+06 9303.21 0 1.0583e+06 9150.69 0 1.04169e+06 8995.71 0 1.33692e+06 9.53674e-07 0 1.34399e+06 -7687.1 0 1.36274e+06 -13467.6 0 1.38903e+06 -17013.1 0 1.4195e+06 -18871.8 0 1.45189e+06 -19572 0 1.48464e+06 -19478.3 0 1.51669e+06 -18841.1 0 1.54731e+06 -17835.5 0 1.57601e+06 -16585.2 0 1.60246e+06 -15178 0 1.62648e+06 -13675.9 0 1.64794e+06 -12122.9 0 1.66679e+06 -10551.2 0 1.68303e+06 -8984.05 0 1.69667e+06 -7439.19 0 1.70776e+06 -5929.97 0 1.71639e+06 -4466.71 0 1.72262e+06 -3057.41 0 1.72656e+06 -1708.23 0 1.72831e+06 -423.793 0 1.72797e+06 792.55 0 1.72568e+06 1938.56 0 1.72153e+06 3012.99 0 1.71566e+06 4015.39 0 1.70818e+06 4946.11 0 1.69922e+06 5806.07 0 1.68888e+06 6596.78 0 1.67729e+06 7320.14 0 1.66454e+06 7978.46 0 1.65076e+06 8574.29 0 1.63603e+06 9110.4 0 1.62046e+06 9589.73 0 1.60414e+06 10015.3 0 1.58715e+06 10390.1 0 1.56958e+06 10717.2 0 1.5515e+06 10999.7 0 1.53299e+06 11240.5 0 1.51412e+06 11442.5 0 1.49493e+06 11608.4 0 1.4755e+06 11741 0 1.45588e+06 11842.8 0 1.4361e+06 11916.1 0 1.41623e+06 11963.3 0 1.39631e+06 11986.6 0 1.37636e+06 11987.9 0 1.35642e+06 11969.2 0 1.33654e+06 11932.2 0 1.31672e+06 11878.6 0 1.29701e+06 11809.9 0 1.27743e+06 11727.5 0 1.25799e+06 11632.8 0 1.23872e+06 11527 0 1.21964e+06 11411.1 0 1.20076e+06 11286.4 0 1.18209e+06 11153.6 0 1.16364e+06 11013.7 0 1.14544e+06 10867.5 0 1.12748e+06 10715.7 0 1.10978e+06 10559.1 0 1.09234e+06 10398.2 0 1.07518e+06 10233.6 0 1.05829e+06 10065.8 0 1.04168e+06 9895.31 0 1.33644e+06 -1.01328e-06 0 1.34359e+06 -8411.41 0 1.36248e+06 -14720.4 0 1.38888e+06 -18580.7 0 1.41944e+06 -20601.8 0 1.45188e+06 -21361.1 0 1.48467e+06 -21255.8 0 1.51674e+06 -20558.5 0 1.54738e+06 -19459.9 0 1.57609e+06 -18094.9 0 1.60255e+06 -16559 0 1.62657e+06 -14919.7 0 1.64803e+06 -13225.2 0 1.66688e+06 -11510.3 0 1.68311e+06 -9800.5 0 1.69675e+06 -8115.04 0 1.70785e+06 -6468.48 0 1.71647e+06 -4872.1 0 1.7227e+06 -3334.61 0 1.72663e+06 -1862.71 0 1.72838e+06 -461.467 0 1.72804e+06 865.48 0 1.72574e+06 2115.69 0 1.72159e+06 3287.79 0 1.71572e+06 4381.33 0 1.70824e+06 5396.64 0 1.69927e+06 6334.76 0 1.68892e+06 7197.33 0 1.67733e+06 7986.42 0 1.66458e+06 8704.55 0 1.65079e+06 9354.51 0 1.63606e+06 9939.33 0 1.62048e+06 10462.2 0 1.60416e+06 10926.4 0 1.58717e+06 11335.2 0 1.5696e+06 11692.1 0 1.55152e+06 12000.2 0 1.53301e+06 12262.9 0 1.51413e+06 12483.2 0 1.49494e+06 12664.2 0 1.47551e+06 12808.8 0 1.45588e+06 12919.7 0 1.43611e+06 12999.7 0 1.41624e+06 13051.2 0 1.39631e+06 13076.6 0 1.37636e+06 13078 0 1.35642e+06 13057.5 0 1.33653e+06 13017.2 0 1.31672e+06 12958.6 0 1.29701e+06 12883.7 0 1.27742e+06 12793.8 0 1.25799e+06 12690.5 0 1.23872e+06 12575 0 1.21963e+06 12448.6 0 1.20075e+06 12312.5 0 1.18208e+06 12167.6 0 1.16363e+06 12015 0 1.14543e+06 11855.5 0 1.12747e+06 11690 0 1.10977e+06 11519.1 0 1.09233e+06 11343.5 0 1.07517e+06 11163.9 0 1.05828e+06 10980.9 0 1.04167e+06 10794.9 0 1.33592e+06 7.15256e-07 0 1.34315e+06 -9142.58 0 1.3622e+06 -15980.8 0 1.38873e+06 -20153.7 0 1.41936e+06 -22335.5 0 1.45186e+06 -23152.8 0 1.48469e+06 -23035 0 1.5168e+06 -22277.1 0 1.54745e+06 -21085.1 0 1.57617e+06 -19605.1 0 1.60264e+06 -17940.3 0 1.62666e+06 -16163.8 0 1.64813e+06 -14327.6 0 1.66698e+06 -12469.4 0 1.68321e+06 -10616.9 0 1.69685e+06 -8790.76 0 1.70794e+06 -7006.84 0 1.71656e+06 -5277.31 0 1.72279e+06 -3611.6 0 1.72672e+06 -2016.98 0 1.72845e+06 -498.919 0 1.72811e+06 938.64 0 1.72581e+06 2293.06 0 1.72166e+06 3562.84 0 1.71578e+06 4747.49 0 1.70829e+06 5847.4 0 1.69932e+06 6863.68 0 1.68897e+06 7798.09 0 1.67737e+06 8652.92 0 1.66462e+06 9430.85 0 1.65082e+06 10134.9 0 1.63609e+06 10768.4 0 1.62051e+06 11334.8 0 1.60418e+06 11837.7 0 1.58719e+06 12280.5 0 1.56962e+06 12667.1 0 1.55154e+06 13000.8 0 1.53302e+06 13285.3 0 1.51414e+06 13524 0 1.49495e+06 13720 0 1.47551e+06 13876.6 0 1.45589e+06 13996.8 0 1.43611e+06 14083.4 0 1.41624e+06 14139.2 0 1.39631e+06 14166.6 0 1.37636e+06 14168.1 0 1.35642e+06 14145.9 0 1.33653e+06 14102.2 0 1.31672e+06 14038.7 0 1.297e+06 13957.5 0 1.27742e+06 13860.1 0 1.25798e+06 13748.2 0 1.23871e+06 13623.1 0 1.21963e+06 13486.2 0 1.20074e+06 13338.7 0 1.18207e+06 13181.7 0 1.16363e+06 13016.4 0 1.14542e+06 12843.6 0 1.12746e+06 12664.2 0 1.10976e+06 12479 0 1.09232e+06 12288.9 0 1.07516e+06 12094.3 0 1.05827e+06 11896 0 1.04166e+06 11694.5 0 1.33536e+06 -1.19209e-06 0 1.34268e+06 -9881.29 0 1.3619e+06 -17249.3 0 1.38856e+06 -21732.6 0 1.41928e+06 -24073.2 0 1.45185e+06 -24947.2 0 1.48472e+06 -24816.2 0 1.51685e+06 -23996.9 0 1.54753e+06 -22711.2 0 1.57626e+06 -21115.9 0 1.60274e+06 -19322 0 1.62677e+06 -17408 0 1.64823e+06 -15430 0 1.66708e+06 -13428.5 0 1.68332e+06 -11433.2 0 1.69695e+06 -9466.36 0 1.70804e+06 -7545.04 0 1.71666e+06 -5682.33 0 1.72288e+06 -3888.39 0 1.7268e+06 -2171.03 0 1.72854e+06 -536.131 0 1.72819e+06 1012.05 0 1.72588e+06 2470.67 0 1.72173e+06 3838.14 0 1.71584e+06 5113.91 0 1.70835e+06 6298.41 0 1.69937e+06 7392.84 0 1.68902e+06 8399.1 0 1.67741e+06 9319.64 0 1.66466e+06 10157.4 0 1.65086e+06 10915.6 0 1.63612e+06 11597.8 0 1.62054e+06 12207.7 0 1.60421e+06 12749.1 0 1.58722e+06 13226 0 1.56964e+06 13642.2 0 1.55155e+06 14001.6 0 1.53303e+06 14307.9 0 1.51415e+06 14564.9 0 1.49496e+06 14776 0 1.47552e+06 14944.6 0 1.45589e+06 15074 0 1.43612e+06 15167.2 0 1.41624e+06 15227.2 0 1.39631e+06 15256.7 0 1.37635e+06 15258.3 0 1.35642e+06 15234.4 0 1.33653e+06 15187.2 0 1.31671e+06 15118.9 0 1.297e+06 15031.4 0 1.27741e+06 14926.5 0 1.25797e+06 14805.9 0 1.2387e+06 14671.2 0 1.21962e+06 14523.7 0 1.20073e+06 14364.9 0 1.18206e+06 14195.8 0 1.16362e+06 14017.7 0 1.14541e+06 13831.6 0 1.12745e+06 13638.4 0 1.10975e+06 13439 0 1.09231e+06 13234.2 0 1.07515e+06 13024.7 0 1.05826e+06 12811.1 0 1.04165e+06 12594.1 0 1.33474e+06 1.43051e-06 0 1.34217e+06 -10628.2 0 1.36157e+06 -18526.7 0 1.38837e+06 -23317.9 0 1.4192e+06 -25815.3 0 1.45183e+06 -26744.6 0 1.48475e+06 -26599.3 0 1.51691e+06 -25718.2 0 1.54761e+06 -24338.2 0 1.57636e+06 -22627.2 0 1.60284e+06 -20703.9 0 1.62688e+06 -18652.4 0 1.64834e+06 -16532.5 0 1.6672e+06 -14387.6 0 1.68343e+06 -12249.4 0 1.69706e+06 -10141.8 0 1.70815e+06 -8083.06 0 1.71676e+06 -6087.14 0 1.72298e+06 -4164.94 0 1.7269e+06 -2324.82 0 1.72863e+06 -573.083 0 1.72828e+06 1085.72 0 1.72596e+06 2648.56 0 1.7218e+06 4113.71 0 1.71591e+06 5480.61 0 1.70842e+06 6749.69 0 1.69943e+06 7922.27 0 1.68908e+06 9000.36 0 1.67746e+06 9986.61 0 1.6647e+06 10884.1 0 1.6509e+06 11696.4 0 1.63616e+06 12427.3 0 1.62058e+06 13080.7 0 1.60424e+06 13660.8 0 1.58724e+06 14171.7 0 1.56966e+06 14617.6 0 1.55157e+06 15002.6 0 1.53305e+06 15330.7 0 1.51416e+06 15605.9 0 1.49497e+06 15832 0 1.47553e+06 16012.6 0 1.4559e+06 16151.2 0 1.43612e+06 16251.1 0 1.41624e+06 16315.3 0 1.39631e+06 16346.9 0 1.37635e+06 16348.6 0 1.35642e+06 16322.9 0 1.33652e+06 16272.4 0 1.31671e+06 16199.1 0 1.29699e+06 16105.3 0 1.27741e+06 15992.9 0 1.25797e+06 15863.7 0 1.2387e+06 15719.3 0 1.21961e+06 15561.3 0 1.20072e+06 15391.1 0 1.18205e+06 15210 0 1.16361e+06 15019.1 0 1.1454e+06 14819.7 0 1.12744e+06 14612.7 0 1.10974e+06 14399.1 0 1.0923e+06 14179.6 0 1.07514e+06 13955.1 0 1.05825e+06 13726.3 0 1.04164e+06 13493.8 0 1.33409e+06 -4.76837e-07 0 1.34162e+06 -11384.1 0 1.36122e+06 -19813.7 0 1.38818e+06 -24910 0 1.41911e+06 -27562 0 1.45182e+06 -28545.1 0 1.48478e+06 -28384.7 0 1.51698e+06 -27440.9 0 1.5477e+06 -25966.1 0 1.57646e+06 -24139.2 0 1.60296e+06 -22086.3 0 1.62699e+06 -19897 0 1.64847e+06 -17635.1 0 1.66732e+06 -15346.6 0 1.68355e+06 -13065.5 0 1.69718e+06 -10817.1 0 1.70826e+06 -8620.89 0 1.71687e+06 -6491.74 0 1.72308e+06 -4441.25 0 1.727e+06 -2478.35 0 1.72873e+06 -609.757 0 1.72837e+06 1159.69 0 1.72605e+06 2826.74 0 1.72188e+06 4389.57 0 1.71599e+06 5847.59 0 1.70848e+06 7201.26 0 1.6995e+06 8451.98 0 1.68914e+06 9601.9 0 1.67752e+06 10653.8 0 1.66475e+06 11611.1 0 1.65095e+06 12477.5 0 1.6362e+06 13257 0 1.62061e+06 13954 0 1.60427e+06 14572.6 0 1.58727e+06 15117.5 0 1.56968e+06 15593.1 0 1.55159e+06 16003.7 0 1.53307e+06 16353.6 0 1.51418e+06 16647.1 0 1.49498e+06 16888.3 0 1.47554e+06 17080.8 0 1.4559e+06 17228.6 0 1.43612e+06 17335.1 0 1.41625e+06 17403.6 0 1.39631e+06 17437.2 0 1.37635e+06 17438.9 0 1.35641e+06 17411.5 0 1.33652e+06 17357.6 0 1.3167e+06 17279.4 0 1.29699e+06 17179.3 0 1.2774e+06 17059.4 0 1.25796e+06 16921.5 0 1.23869e+06 16767.5 0 1.2196e+06 16598.9 0 1.20071e+06 16417.3 0 1.18204e+06 16224.1 0 1.16359e+06 16020.6 0 1.14539e+06 15807.8 0 1.12743e+06 15587 0 1.10973e+06 15359.1 0 1.09229e+06 15125 0 1.07512e+06 14885.5 0 1.05823e+06 14641.4 0 1.04162e+06 14393.4 0 1.33339e+06 -1.19209e-07 0 1.34104e+06 -12149.7 0 1.36085e+06 -21110.8 0 1.38797e+06 -26509.3 0 1.41902e+06 -29313.6 0 1.4518e+06 -30349.1 0 1.48482e+06 -30172.3 0 1.51705e+06 -29165.2 0 1.54779e+06 -27595.1 0 1.57657e+06 -25651.8 0 1.60308e+06 -23469.1 0 1.62712e+06 -21141.8 0 1.64859e+06 -18737.7 0 1.66745e+06 -16305.7 0 1.68368e+06 -13881.5 0 1.6973e+06 -11492.3 0 1.70839e+06 -9158.53 0 1.71699e+06 -6896.1 0 1.7232e+06 -4717.3 0 1.72711e+06 -2631.6 0 1.72883e+06 -646.134 0 1.72847e+06 1233.96 0 1.72614e+06 3005.23 0 1.72197e+06 4665.75 0 1.71607e+06 6214.89 0 1.70856e+06 7653.14 0 1.69956e+06 8981.99 0 1.6892e+06 10203.7 0 1.67757e+06 11321.4 0 1.6648e+06 12338.4 0 1.65099e+06 13258.9 0 1.63624e+06 14087.1 0 1.62065e+06 14827.4 0 1.6043e+06 15484.7 0 1.5873e+06 16063.6 0 1.56971e+06 16568.8 0 1.55161e+06 17004.9 0 1.53309e+06 17376.7 0 1.51419e+06 17688.5 0 1.49499e+06 17944.6 0 1.47555e+06 18149.2 0 1.45591e+06 18306.1 0 1.43613e+06 18419.2 0 1.41625e+06 18491.9 0 1.39631e+06 18527.6 0 1.37635e+06 18529.4 0 1.35641e+06 18500.2 0 1.33652e+06 18442.8 0 1.3167e+06 18359.8 0 1.29698e+06 18253.4 0 1.27739e+06 18125.9 0 1.25795e+06 17979.4 0 1.23868e+06 17815.7 0 1.21959e+06 17636.6 0 1.2007e+06 17443.6 0 1.18203e+06 17238.3 0 1.16358e+06 17022 0 1.14537e+06 16796 0 1.12742e+06 16561.3 0 1.10971e+06 16319.1 0 1.09228e+06 16070.4 0 1.07511e+06 15815.9 0 1.05822e+06 15556.6 0 1.04161e+06 15293 0 1.33264e+06 2.38419e-07 0 1.34042e+06 -12925.7 0 1.36046e+06 -22418.8 0 1.38776e+06 -28116.2 0 1.41892e+06 -31070.4 0 1.45178e+06 -32156.6 0 1.48486e+06 -31962.4 0 1.51713e+06 -30891.1 0 1.54789e+06 -29225.2 0 1.57669e+06 -27165.1 0 1.6032e+06 -24852.3 0 1.62725e+06 -22386.9 0 1.64873e+06 -19840.5 0 1.66758e+06 -17264.7 0 1.68381e+06 -14697.4 0 1.69744e+06 -12167.3 0 1.70851e+06 -9695.95 0 1.71711e+06 -7300.2 0 1.72332e+06 -4993.07 0 1.72722e+06 -2784.55 0 1.72894e+06 -682.196 0 1.72857e+06 1308.55 0 1.72624e+06 3184.06 0 1.72206e+06 4942.27 0 1.71615e+06 6582.52 0 1.70864e+06 8105.34 0 1.69964e+06 9512.31 0 1.68926e+06 10805.9 0 1.67763e+06 11989.2 0 1.66486e+06 13066 0 1.65104e+06 14040.5 0 1.63628e+06 14917.3 0 1.62069e+06 15701.2 0 1.60434e+06 16397 0 1.58733e+06 17009.8 0 1.56973e+06 17544.7 0 1.55164e+06 18006.4 0 1.5331e+06 18400 0 1.51421e+06 18730 0 1.49501e+06 19001.1 0 1.47556e+06 19217.7 0 1.45592e+06 19383.8 0 1.43613e+06 19503.4 0 1.41625e+06 19580.3 0 1.39631e+06 19618.1 0 1.37635e+06 19619.9 0 1.35641e+06 19589 0 1.33651e+06 19528.2 0 1.31669e+06 19440.2 0 1.29698e+06 19327.5 0 1.27739e+06 19192.5 0 1.25794e+06 19037.3 0 1.23867e+06 18864 0 1.21958e+06 18674.3 0 1.20069e+06 18469.9 0 1.18202e+06 18252.5 0 1.16357e+06 18023.5 0 1.14536e+06 17784.1 0 1.1274e+06 17535.7 0 1.1097e+06 17279.2 0 1.09226e+06 17015.8 0 1.07509e+06 16746.4 0 1.0582e+06 16471.7 0 1.0416e+06 16192.7 0 1.33184e+06 -2.38419e-07 0 1.33977e+06 -13713.1 0 1.36005e+06 -23738.4 0 1.38753e+06 -29731.2 0 1.41881e+06 -32832.8 0 1.45176e+06 -33967.9 0 1.4849e+06 -33755.1 0 1.51721e+06 -32618.8 0 1.548e+06 -30856.5 0 1.57681e+06 -28679.2 0 1.60334e+06 -26235.9 0 1.6274e+06 -23632.2 0 1.64887e+06 -20943.3 0 1.66773e+06 -18223.6 0 1.68395e+06 -15513.2 0 1.69758e+06 -12842.1 0 1.70865e+06 -10233.1 0 1.71724e+06 -7704.05 0 1.72344e+06 -5268.54 0 1.72734e+06 -2937.18 0 1.72905e+06 -717.925 0 1.72868e+06 1383.49 0 1.72634e+06 3363.23 0 1.72215e+06 5219.13 0 1.71624e+06 6950.5 0 1.70872e+06 8557.89 0 1.69971e+06 10043 0 1.68933e+06 11408.3 0 1.6777e+06 12657.3 0 1.66492e+06 13793.9 0 1.65109e+06 14822.5 0 1.63633e+06 15747.9 0 1.62073e+06 16575.2 0 1.60437e+06 17309.6 0 1.58736e+06 17956.4 0 1.56976e+06 18520.8 0 1.55166e+06 19008.1 0 1.53313e+06 19423.4 0 1.51422e+06 19771.7 0 1.49502e+06 20057.8 0 1.47557e+06 20286.3 0 1.45593e+06 20461.5 0 1.43614e+06 20587.8 0 1.41625e+06 20668.9 0 1.39631e+06 20708.7 0 1.37635e+06 20710.5 0 1.35641e+06 20677.8 0 1.33651e+06 20613.6 0 1.31669e+06 20520.7 0 1.29697e+06 20401.7 0 1.27738e+06 20259.2 0 1.25793e+06 20095.3 0 1.23866e+06 19912.3 0 1.21957e+06 19712 0 1.20068e+06 19496.3 0 1.182e+06 19266.8 0 1.16356e+06 19025 0 1.14535e+06 18772.3 0 1.12739e+06 18510 0 1.10968e+06 18239.3 0 1.09225e+06 17961.2 0 1.07508e+06 17676.8 0 1.05819e+06 17386.9 0 1.04158e+06 17092.4 0 1.33099e+06 -2.38419e-07 0 1.33907e+06 -14512.6 0 1.35962e+06 -25070.3 0 1.38729e+06 -31354.8 0 1.4187e+06 -34600.9 0 1.45174e+06 -35783.2 0 1.48494e+06 -35550.6 0 1.51729e+06 -34348.3 0 1.54811e+06 -32489 0 1.57694e+06 -30194 0 1.60348e+06 -27620 0 1.62754e+06 -24877.7 0 1.64903e+06 -22046.2 0 1.66788e+06 -19182.6 0 1.68411e+06 -16328.9 0 1.69773e+06 -13516.7 0 1.7088e+06 -10770.1 0 1.71738e+06 -8107.61 0 1.72358e+06 -5543.7 0 1.72747e+06 -3089.48 0 1.72917e+06 -753.301 0 1.72879e+06 1458.79 0 1.72645e+06 3542.77 0 1.72225e+06 5496.37 0 1.71633e+06 7318.85 0 1.70881e+06 9010.81 0 1.69979e+06 10574 0 1.68941e+06 12011.2 0 1.67776e+06 13325.8 0 1.66498e+06 14522.1 0 1.65115e+06 15604.7 0 1.63638e+06 16578.7 0 1.62077e+06 17449.5 0 1.60441e+06 18222.4 0 1.58739e+06 18903.1 0 1.56979e+06 19497.1 0 1.55168e+06 20010 0 1.53315e+06 20447.1 0 1.51424e+06 20813.6 0 1.49504e+06 21114.7 0 1.47558e+06 21355.1 0 1.45594e+06 21539.5 0 1.43615e+06 21672.3 0 1.41626e+06 21757.6 0 1.39631e+06 21799.4 0 1.37635e+06 21801.3 0 1.3564e+06 21766.8 0 1.3365e+06 21699.1 0 1.31668e+06 21601.2 0 1.29696e+06 21476 0 1.27737e+06 21325.9 0 1.25792e+06 21153.4 0 1.23865e+06 20960.7 0 1.21956e+0