<?xml version="1.0"?> 
<VTKFile type="StructuredGrid" version="0.1"> 
<StructuredGrid WholeExtent="0 63 0 63 0 0"> 
<Piece Extent="0 63 0 63 0 0"> 
<PointData>
<DataArray type="Float32" Name="|E|" format="ascii" NumberOfComponents="3"> 
447165 775967 0 437820 758608 0 428732 741524 0 419896 724708 0 411304 708152 0 402950 691850 0 394828 675794 0 386932 659979 0 379256 644397 0 371795 629042 0 364543 613908 0 357495 598990 0 350646 584281 0 343991 569775 0 337524 555467 0 331242 541352 0 325140 527424 0 319214 513677 0 313459 500108 0 307870 486709 0 302445 473477 0 297180 460407 0 292070 447493 0 287111 434731 0 282302 422116 0 277637 409644 0 273114 397310 0 268730 385109 0 264481 373038 0 260365 361090 0 256378 349263 0 252518 337552 0 248782 325953 0 245168 314461 0 241672 303072 0 238293 291783 0 235027 280588 0 231873 269484 0 228829 258468 0 225892 247534 0 223060 236679 0 220331 225899 0 217702 215191 0 215173 204549 0 212741 193971 0 210405 183453 0 208162 172990 0 206011 162579 0 203951 152217 0 201979 141898 0 200094 131620 0 198295 121379 0 196580 111171 0 194948 100992 0 193397 90839.4 0 191926 80708.2 0 190534 70595.2 0 189220 60496.7 0 187982 50408.8 0 186820 40328 0 185731 30250.4 0 184716 20172.4 0 183773 10090.2 0 182900 0 0 440088 777551 0 430898 760138 0 421961 743002 0 413271 726134 0 404821 709529 0 396605 693179 0 388617 677077 0 380852 661216 0 373302 645591 0 365964 630193 0 358831 615019 0 351899 600060 0 345162 585312 0 338616 570769 0 332255 556424 0 326076 542273 0 320073 528311 0 314244 514530 0 308582 500928 0 303085 487498 0 297748 474235 0 292569 461135 0 287542 448192 0 282664 435402 0 277932 422759 0 273343 410261 0 268894 397900 0 264581 385674 0 260401 373578 0 256351 361607 0 252429 349757 0 248631 338023 0 244955 326401 0 241399 314888 0 237960 303478 0 234635 292168 0 231422 280954 0 228319 269831 0 225323 258796 0 222433 247844 0 219646 236971 0 216960 226174 0 214374 215448 0 211885 204791 0 209492 194197 0 207192 183663 0 204985 173185 0 202868 162760 0 200840 152383 0 198899 142050 0 197043 131759 0 195272 121505 0 193584 111284 0 191977 101094 0 190450 90928.7 0 189001 80786.1 0 187631 70662.1 0 186336 60552.8 0 185117 50454.7 0 183972 40363.9 0 182899 30276.8 0 181899 20189.6 0 180969 10098.6 0 180109 0 0 433000 779085 0 423966 761619 0 415180 744432 0 406637 727516 0 398329 710863 0 390252 694466 0 382398 678319 0 374762 662415 0 367339 646747 0 360124 631308 0 353110 616094 0 346293 601096 0 339669 586311 0 333232 571731 0 326977 557351 0 320901 543165 0 314998 529169 0 309265 515357 0 303698 501722 0 298292 488262 0 293044 474969 0 287949 461840 0 283006 448868 0 278209 436051 0 273555 423382 0 269042 410857 0 264666 398472 0 260424 386221 0 256313 374101 0 252330 362107 0 248472 350234 0 244737 338478 0 241121 326835 0 237623 315301 0 234240 303871 0 230970 292541 0 227809 281308 0 224757 270166 0 221810 259112 0 218967 248143 0 216225 237253 0 213583 226439 0 211039 215697 0 208590 205024 0 206236 194414 0 203973 183866 0 201801 173373 0 199718 162933 0 197722 152543 0 195812 142197 0 193986 131893 0 192243 121626 0 190581 111394 0 189000 101191 0 187496 91014.7 0 186071 80861.1 0 184721 70726.4 0 183447 60606.9 0 182246 50498.8 0 181118 40398.5 0 180062 30302.2 0 179076 20206.2 0 178160 10106.7 0 177312 0 0 425903 780568 0 417024 763052 0 408390 745816 0 399993 728852 0 391828 712153 0 383889 695712 0 376169 679521 0 368664 663575 0 361367 647865 0 354275 632387 0 347380 617134 0 340680 602099 0 334168 587277 0 327839 572661 0 321691 558247 0 315717 544028 0 309915 530000 0 304278 516156 0 298805 502491 0 293490 489000 0 288331 475679 0 283322 462521 0 278462 449523 0 273746 436679 0 269171 423984 0 264733 411434 0 260431 399024 0 256260 386750 0 252218 374607 0 248301 362590 0 244508 350695 0 240835 338918 0 237280 327254 0 233841 315700 0 230514 304250 0 227298 292902 0 224190 281649 0 221188 270490 0 218291 259418 0 215495 248432 0 212798 237525 0 210200 226695 0 207697 215938 0 205289 205249 0 202973 194624 0 200748 184061 0 198611 173554 0 196562 163101 0 194599 152697 0 192720 142339 0 190923 132022 0 189208 121743 0 187573 111499 0 186017 101285 0 184537 91097.4 0 183134 80933.2 0 181806 70788.2 0 180551 60658.8 0 179369 50541.2 0 178259 40431.6 0 177218 30326.5 0 176248 20222 0 175345 10114.4 0 174510 0 0 418797 782001 0 410074 764437 0 401591 747153 0 393341 730144 0 385318 713400 0 377517 696915 0 369932 680683 0 362557 664695 0 355387 648946 0 348417 633430 0 341642 618139 0 335058 603068 0 328658 588210 0 322439 573561 0 316397 559113 0 310526 544862 0 304823 530802 0 299284 516928 0 293905 503233 0 288681 489714 0 283610 476364 0 278688 463180 0 273911 450155 0 269275 437285 0 264779 424566 0 260417 411991 0 256188 399558 0 252088 387260 0 248115 375095 0 244266 363056 0 240537 351140 0 236927 339343 0 233432 327659 0 230051 316085 0 226781 304616 0 223619 293249 0 220564 281979 0 217613 270802 0 214764 259713 0 212015 248710 0 209365 237787 0 206810 226942 0 204350 216169 0 201982 205465 0 199704 194827 0 197516 184249 0 195415 173729 0 193400 163263 0 191469 152846 0 189621 142475 0 187854 132146 0 186168 121856 0 184559 111600 0 183028 101375 0 181573 91176.9 0 180192 81002.4 0 178885 70847.5 0 177651 60708.5 0 176487 50581.8 0 175394 40463.4 0 174370 30349.8 0 173414 20237.2 0 172525 10121.9 0 171702 0 0 411682 783385 0 403115 765773 0 394783 748444 0 386680 731390 0 378800 714603 0 371137 698077 0 363686 681804 0 356442 665777 0 349399 649990 0 342552 634436 0 335896 619109 0 329428 604003 0 323141 589111 0 317031 574429 0 311095 559949 0 305327 545667 0 299724 531577 0 294282 517673 0 288997 503950 0 283865 490403 0 278883 477026 0 274046 463815 0 269352 450765 0 264798 437870 0 260379 425126 0 256094 412529 0 251938 400072 0 247910 387753 0 244006 375566 0 240223 363506 0 236559 351569 0 233012 339752 0 229578 328049 0 226255 316456 0 223041 304969 0 219934 293584 0 216932 282296 0 214032 271102 0 211232 259998 0 208530 248978 0 205925 238040 0 203414 227179 0 200995 216392 0 198668 205674 0 196429 195021 0 194278 184430 0 192213 173897 0 190232 163418 0 188334 152988 0 186517 142605 0 184780 132265 0 183121 121963 0 181539 111697 0 180034 101461 0 178602 91253 0 177245 81068.7 0 175959 70904.3 0 174744 60756.2 0 173600 50620.6 0 172524 40493.8 0 171516 30372.1 0 170575 20251.7 0 169700 10128.9 0 168890 0 0 404559 784717 0 396148 767061 0 387967 749688 0 380011 732591 0 372273 715763 0 364749 699197 0 357433 682884 0 350319 666819 0 343403 650996 0 336679 635406 0 330143 620044 0 323790 604904 0 317616 589980 0 311615 575266 0 305785 560755 0 300121 546443 0 294618 532323 0 289273 518391 0 284082 504640 0 279041 491066 0 274148 477664 0 269397 464428 0 264787 451353 0 260313 438434 0 255973 425667 0 251764 413046 0 247682 400568 0 243725 388227 0 239890 376019 0 236174 363939 0 232575 351983 0 229090 340146 0 225716 328424 0 222452 316813 0 219295 305309 0 216243 293906 0 213293 282602 0 210444 271392 0 207693 260271 0 205038 249236 0 202478 238283 0 200011 227407 0 197635 216606 0 195348 205874 0 193148 195208 0 191034 184604 0 189005 174058 0 187058 163566 0 185192 153125 0 183407 142731 0 181699 132379 0 180069 122067 0 178514 111789 0 177034 101544 0 175626 91325.9 0 174291 81132.1 0 173027 70958.6 0 171833 60801.7 0 170707 50657.7 0 169649 40522.8 0 168657 30393.3 0 167731 20265.5 0 166870 10135.7 0 166073 0 0 397428 786000 0 389173 768300 0 381144 750885 0 373334 733748 0 365740 716880 0 358354 700274 0 351172 683925 0 344188 667823 0 337399 651964 0 330798 636340 0 324382 620945 0 318145 605772 0 312083 590816 0 306193 576071 0 300468 561531 0 294907 547190 0 289504 533042 0 284257 519082 0 279160 505305 0 274211 491705 0 269406 478277 0 264741 465017 0 260215 451918 0 255822 438976 0 251560 426187 0 247427 413545 0 243419 401045 0 239533 388683 0 235767 376455 0 232118 364355 0 228584 352380 0 225161 340525 0 221849 328785 0 218643 317157 0 215543 305635 0 212545 294216 0 209648 282895 0 206849 271669 0 204148 260533 0 201540 249484 0 199026 238516 0 196603 227626 0 194269 216811 0 192022 206066 0 189861 195387 0 187785 184770 0 185791 174212 0 183878 163709 0 182045 153256 0 180291 142851 0 178613 132488 0 177011 122165 0 175483 111878 0 174028 101623 0 172645 91395.5 0 171333 81192.6 0 170090 71010.4 0 168916 60845.1 0 167809 50693 0 166768 40550.4 0 165793 30413.5 0 164883 20278.7 0 164035 10142.1 0 163251 0 0 390291 787233 0 382191 769492 0 374313 752036 0 366651 734859 0 359199 717953 0 351951 701311 0 344904 684925 0 338051 668788 0 331388 652895 0 324911 637237 0 318614 621810 0 312493 606606 0 306544 591620 0 300763 576845 0 295145 562276 0 289687 547907 0 284384 533732 0 279233 519746 0 274231 505944 0 269374 492319 0 264657 478867 0 260079 465583 0 255636 452461 0 251324 439497 0 247141 426686 0 243084 414023 0 239149 401503 0 235335 389121 0 231638 376874 0 228056 364755 0 224587 352762 0 221227 340888 0 217975 329131 0 214828 317486 0 211784 305948 0 208841 294513 0 205997 283177 0 203249 271935 0 200596 260785 0 198037 249721 0 195568 238739 0 193188 227836 0 190896 217008 0 188690 206250 0 186568 195558 0 184529 184930 0 182571 174360 0 180693 163845 0 178893 153382 0 177169 142965 0 175521 132593 0 173947 122260 0 172446 111963 0 171017 101698 0 169658 91461.8 0 168369 81250.3 0 167148 71059.7 0 165994 60886.4 0 164906 50726.6 0 163883 40576.7 0 162924 30432.7 0 162029 20291.1 0 161195 10148.1 0 160424 0 0 383146 788417 0 375203 770635 0 367476 753141 0 359960 735926 0 352651 718983 0 345542 702305 0 338629 685884 0 331907 669714 0 325371 653788 0 319016 638099 0 312839 622641 0 306834 607407 0 300998 592392 0 295326 577589 0 289815 562992 0 284460 548596 0 279257 534395 0 274204 520384 0 269296 506556 0 264530 492908 0 259902 479433 0 255410 466126 0 251051 452982 0 246820 439997 0 242715 427165 0 238734 414482 0 234873 401942 0 231131 389541 0 227503 377275 0 223988 365138 0 220583 353127 0 217286 341237 0 214095 329463 0 211006 317801 0 208019 306247 0 205131 294797 0 202339 283446 0 199643 272190 0 197039 261025 0 194527 249948 0 192104 238953 0 189768 228037 0 187518 217196 0 185353 206425 0 183270 195722 0 181268 185082 0 179346 174501 0 177502 163975 0 175734 153501 0 174042 143075 0 172424 132692 0 170878 122350 0 169405 112043 0 168001 101770 0 166666 91524.9 0 165400 81305.1 0 164200 71106.6 0 163067 60925.6 0 161998 50758.5 0 160993 40601.5 0 160050 30450.9 0 159170 20302.9 0 158351 10153.9 0 157592 0 0 375996 789550 0 368208 771730 0 360633 754199 0 353264 736948 0 346097 719970 0 339126 703258 0 332348 686804 0 325756 670602 0 319347 654644 0 313116 638924 0 307058 623437 0 301170 608174 0 295446 593131 0 289884 578300 0 284479 563677 0 279227 549256 0 274124 535030 0 269168 520994 0 264354 507143 0 259680 493472 0 255141 479974 0 250735 466646 0 246459 453481 0 242309 440475 0 238283 427623 0 234378 414921 0 230592 402362 0 226920 389943 0 223362 377659 0 219914 365505 0 216574 353477 0 213339 341570 0 210209 329780 0 207179 318103 0 204248 306534 0 201415 295069 0 198676 283703 0 196031 272434 0 193476 261255 0 191011 250164 0 188634 239156 0 186342 228228 0 184135 217375 0 182010 206593 0 179966 195878 0 178001 185227 0 176115 174635 0 174305 164099 0 172570 153615 0 170910 143179 0 169321 132787 0 167804 122435 0 166357 112120 0 164980 101838 0 163669 91584.7 0 162426 81357 0 161248 71150.9 0 160134 60962.7 0 159084 50788.6 0 158097 40625 0 157172 30468 0 156307 20314 0 155502 10159.3 0 154755 0 0 368840 790634 0 361208 772778 0 353783 755211 0 346561 737926 0 339537 720914 0 332705 704169 0 326061 687684 0 319600 671450 0 313317 655463 0 307209 639714 0 301271 624198 0 295499 608908 0 289888 593837 0 284435 578981 0 279136 564333 0 273987 549887 0 268985 535637 0 264126 521578 0 259407 507704 0 254824 494011 0 250374 480492 0 246054 467143 0 241862 453958 0 237793 440932 0 233846 428061 0 230017 415340 0 226304 402763 0 222704 390327 0 219215 378025 0 215834 365855 0 212558 353810 0 209387 341888 0 206317 330083 0 203346 318391 0 200472 306807 0 197693 295328 0 195007 283949 0 192413 272666 0 189908 261474 0 187490 250371 0 185158 239350 0 182911 228410 0 180745 217545 0 178661 206752 0 176656 196026 0 174729 185365 0 172879 174763 0 171103 164217 0 169401 153723 0 167772 143277 0 166214 132876 0 164725 122516 0 163305 112192 0 161953 101902 0 160667 91641.2 0 159447 81406 0 158290 71192.7 0 157197 60997.6 0 156166 50817 0 155197 40647 0 154288 30484.1 0 153438 20324.4 0 152648 10164.3 0 151915 0 0 361679 791668 0 354202 773777 0 346929 756177 0 339854 738858 0 332971 721815 0 326278 705039 0 319768 688523 0 313438 672260 0 307282 656244 0 301297 640467 0 295478 624924 0 289822 609608 0 284324 594512 0 278981 579631 0 273788 564958 0 268743 550488 0 263841 536216 0 259079 522135 0 254454 508240 0 249962 494525 0 245601 480986 0 241368 467617 0 237259 454413 0 233271 441368 0 229402 428479 0 225650 415740 0 222010 403146 0 218482 390692 0 215062 378374 0 211748 366188 0 208538 354128 0 205429 342191 0 202419 330371 0 199507 318664 0 196690 307067 0 193966 295574 0 191333 284182 0 188790 272886 0 186334 261682 0 183964 250567 0 181677 239535 0 179474 228583 0 177351 217707 0 175307 206903 0 173341 196167 0 171452 185495 0 169637 174883 0 167896 164328 0 166227 153825 0 164629 143370 0 163101 132961 0 161641 122592 0 160248 112261 0 158921 101963 0 157660 91694.5 0 156462 81452.2 0 155328 71232.1 0 154255 61030.4 0 153244 50843.6 0 152292 40667.7 0 151400 30499.2 0 150566 20334.2 0 149789 10169 0 149069 0 0 354513 792652 0 347192 774729 0 340069 757096 0 333141 739747 0 326401 722673 0 319846 705867 0 313470 689322 0 307270 673032 0 301241 656988 0 295379 641185 0 289680 625616 0 284140 610274 0 278755 595154 0 273521 580249 0 268435 565554 0 263492 551061 0 258690 536767 0 254026 522665 0 249495 508749 0 245095 495014 0 240823 481456 0 236676 468068 0 232650 454845 0 228744 441783 0 224953 428876 0 221277 416120 0 217711 403509 0 214254 391040 0 210903 378706 0 207657 366505 0 204511 354430 0 201465 342478 0 198517 330644 0 195663 318924 0 192903 307313 0 190233 295808 0 187653 284403 0 185161 273095 0 182754 261879 0 180432 250752 0 178191 239709 0 176031 228747 0 173951 217860 0 171948 207046 0 170021 196300 0 168169 185618 0 166390 174997 0 164684 164433 0 163048 153921 0 161481 143458 0 159983 133040 0 158551 122664 0 157186 112325 0 155885 102020 0 154648 91744.5 0 153473 81495.4 0 152361 71268.9 0 151309 61061.2 0 150316 50868.5 0 149383 40687 0 148507 30513.2 0 147688 20343.3 0 146926 10173.4 0 146219 0 0 347343 793588 0 340177 775633 0 333205 757970 0 326423 740591 0 319826 723488 0 313409 706654 0 307168 690082 0 301098 673764 0 295196 657695 0 289457 641866 0 283877 626273 0 278453 610907 0 273181 595764 0 268056 580837 0 263076 566119 0 258237 551606 0 253535 537290 0 248968 523168 0 244531 509233 0 240223 495479 0 236040 481902 0 231978 468496 0 228036 455255 0 224211 442176 0 220499 429253 0 216899 416480 0 213407 403854 0 210021 391369 0 206740 379021 0 203560 366805 0 200480 354716 0 197496 342750 0 194608 330903 0 191813 319170 0 189110 307547 0 186495 296029 0 183968 284612 0 181527 273293 0 179170 262066 0 176894 250928 0 174700 239874 0 172584 228901 0 170546 218005 0 168584 207181 0 166696 196425 0 164881 185735 0 163139 175105 0 161466 164532 0 159863 154012 0 158328 143541 0 156860 133115 0 155457 122731 0 154119 112385 0 152844 102073 0 151631 91791.2 0 150480 81535.9 0 149389 71303.3 0 148357 61089.8 0 147384 50891.6 0 146469 40705 0 145610 30526.2 0 144807 20351.7 0 144059 10177.5 0 143365 0 0 340169 794474 0 333158 776489 0 326338 758797 0 319702 741390 0 313247 724260 0 306968 707399 0 300861 690801 0 294921 674459 0 289146 658364 0 283530 642512 0 278070 626895 0 272761 611507 0 267601 596342 0 262586 581393 0 257712 566655 0 252976 552121 0 248375 537786 0 243904 523644 0 239562 509690 0 235346 495919 0 231251 482324 0 227276 468900 0 223417 455644 0 219673 442548 0 216040 429609 0 212515 416821 0 209097 404180 0 205783 391681 0 202571 379318 0 199458 367088 0 196443 354986 0 193522 343008 0 190695 331148 0 187959 319402 0 185312 307767 0 182752 296238 0 180278 284810 0 177888 273479 0 175580 262241 0 173352 251093 0 171203 240029 0 169132 229046 0 167136 218140 0 165214 207307 0 163366 196543 0 161589 185844 0 159882 175205 0 158244 164624 0 156674 154096 0 155170 143618 0 153732 133185 0 152358 122794 0 151047 112441 0 149798 102123 0 148610 91834.7 0 147481 81573.4 0 146412 71335.2 0 145401 61116.3 0 144448 50913 0 143550 40721.5 0 142708 30538.2 0 141921 20359.4 0 141187 10181.2 0 140507 0 0 332992 795311 0 326136 777298 0 319466 759579 0 312977 742145 0 306664 724989 0 300523 708104 0 294550 691481 0 288741 675114 0 283091 658997 0 277598 643122 0 272257 627483 0 267065 612074 0 262018 596887 0 257112 581918 0 252344 567160 0 247711 552607 0 243210 538254 0 238836 524094 0 234589 510122 0 230463 496334 0 226458 482722 0 222569 469282 0 218794 456010 0 215130 442899 0 211575 429945 0 208127 417143 0 204783 404487 0 201541 391974 0 198397 379598 0 195352 367355 0 192401 355241 0 189543 343250 0 186777 331378 0 184099 319621 0 181509 307974 0 179004 296434 0 176583 284995 0 174244 273654 0 171985 262406 0 169805 251248 0 167702 240175 0 165674 229182 0 163721 218267 0 161840 207426 0 160031 196653 0 158291 185945 0 156620 175299 0 155017 164710 0 153480 154175 0 152008 143690 0 150599 133250 0 149254 122853 0 147970 112493 0 146747 102169 0 145583 91874.9 0 144479 81608.1 0 143431 71364.6 0 142441 61140.7 0 141507 50932.7 0 140627 40736.7 0 139802 30549.2 0 139030 20366.4 0 138311 10184.6 0 137644 0 0 325812 796098 0 319111 778060 0 312592 760315 0 306248 742856 0 300077 725676 0 294074 708767 0 288235 692121 0 282556 675732 0 277033 659592 0 271663 643696 0 266441 628037 0 261365 612607 0 256430 597401 0 251633 582413 0 246972 567636 0 242442 553065 0 238040 538694 0 233764 524517 0 229611 510529 0 225577 496724 0 221660 483096 0 217857 469642 0 214165 456354 0 210583 443229 0 207107 430260 0 203734 417444 0 200464 404776 0 197293 392250 0 194219 379861 0 191240 367606 0 188354 355479 0 185560 343477 0 182854 331593 0 180235 319825 0 177701 308168 0 175251 296617 0 172883 285168 0 170595 273817 0 168386 262560 0 166253 251392 0 164195 240310 0 162212 229309 0 160301 218386 0 158461 207536 0 156691 196755 0 154989 186040 0 153354 175386 0 151785 164791 0 150281 154248 0 148840 143756 0 147462 133310 0 146146 122907 0 144889 112541 0 143692 102211 0 142553 91911.9 0 141471 81640 0 140446 71391.6 0 139476 61163 0 138561 50950.6 0 137700 40750.6 0 136892 30559.2 0 136136 20372.8 0 135431 10187.6 0 134778 0 0 318630 796837 0 312084 778774 0 305714 761006 0 299517 743523 0 293487 726320 0 287622 709388 0 281917 692721 0 276368 676311 0 270972 660151 0 265724 644235 0 260622 628556 0 255661 613107 0 250838 597883 0 246151 582876 0 241595 568082 0 237168 553494 0 232867 539107 0 228688 524914 0 224628 510910 0 220686 497089 0 216857 483447 0 213140 469978 0 209532 456676 0 206031 443537 0 202633 430556 0 199337 417727 0 196140 405045 0 193041 392507 0 190036 380107 0 187124 367840 0 184303 355702 0 181571 343688 0 178926 331795 0 176366 320016 0 173889 308349 0 171494 296788 0 169179 285330 0 166942 273969 0 164781 262703 0 162696 251527 0 160684 240436 0 158745 229427 0 156876 218496 0 155077 207638 0 153346 196850 0 151682 186128 0 150083 175467 0 148549 164864 0 147078 154316 0 145669 143817 0 144321 133365 0 143033 122956 0 141803 112585 0 140632 102250 0 139518 91945.7 0 138460 81669 0 137456 71416.1 0 136507 61183.2 0 135612 50966.8 0 134769 40763 0 133978 30568.1 0 133237 20378.5 0 132547 10190.3 0 131907 0 0 311446 797528 0 305054 779442 0 298835 761650 0 292783 744146 0 286895 726922 0 281168 709969 0 275596 693282 0 270177 676852 0 264907 660673 0 259782 644738 0 254798 629040 0 249953 613574 0 245243 598332 0 240665 583309 0 236215 568499 0 231891 553895 0 227689 539491 0 223607 525283 0 219642 511265 0 215791 497430 0 212051 483774 0 208420 470291 0 204895 456976 0 201475 443825 0 198155 430831 0 194935 417990 0 191812 405296 0 188784 392747 0 185849 380335 0 183004 368057 0 180248 355909 0 177578 343885 0 174994 331981 0 172492 320193 0 170072 308516 0 167732 296946 0 165470 285479 0 163284 274110 0 161173 262836 0 159135 251651 0 157169 240553 0 155274 229536 0 153447 218597 0 151689 207732 0 149997 196937 0 148370 186208 0 146808 175541 0 145308 164932 0 143870 154377 0 142493 143873 0 141175 133416 0 139915 123001 0 138714 112625 0 137568 102285 0 136479 91976.2 0 135444 81695.1 0 134462 71438.1 0 133534 61201.4 0 132658 50981.3 0 131833 40774.1 0 131059 30576.1 0 130335 20383.5 0 129660 10192.7 0 129033 0 0 304260 798169 0 298023 780062 0 291953 762250 0 286047 744726 0 280301 727481 0 274711 710509 0 269273 693803 0 263983 677354 0 258839 661157 0 253836 645205 0 248972 629490 0 244243 614008 0 239645 598750 0 235175 583711 0 230832 568885 0 226610 554266 0 222508 539849 0 218523 525627 0 214652 511594 0 210892 497746 0 207241 484077 0 203696 470582 0 200254 457255 0 196915 444091 0 193674 431085 0 190530 418233 0 187480 405529 0 184523 392968 0 181657 380546 0 178879 368259 0 176188 356100 0 173581 344067 0 171057 332154 0 168614 320356 0 166251 308671 0 163965 297092 0 161756 285617 0 159621 274240 0 157559 262957 0 155569 251765 0 153649 240659 0 151798 229635 0 150014 218690 0 148296 207818 0 146644 197017 0 145055 186281 0 143528 175608 0 142063 164994 0 140658 154433 0 139312 143924 0 138024 133461 0 136794 123042 0 135619 112661 0 134500 102317 0 133435 92003.5 0 132424 81718.4 0 131464 71457.6 0 130557 61217.4 0 129700 50994 0 128894 40783.8 0 128137 30583 0 127428 20387.9 0 126768 10194.8 0 126154 0 0 297074 798762 0 290990 780635 0 285070 762804 0 279310 745261 0 273705 727998 0 268252 711008 0 262947 694284 0 257787 677819 0 252769 661605 0 247889 645637 0 243143 629907 0 238529 614408 0 234043 599136 0 229683 584082 0 225445 569242 0 221326 554610 0 217324 540179 0 213435 525943 0 209658 511898 0 205990 498038 0 202427 484357 0 198968 470850 0 195610 457511 0 192351 444336 0 189188 431320 0 186120 418457 0 183144 405742 0 180259 393172 0 177461 380740 0 174750 368443 0 172124 356276 0 169580 344233 0 167116 332311 0 164732 320506 0 162426 308812 0 160195 297225 0 158038 285742 0 155954 274358 0 153942 263068 0 151999 251869 0 150125 240756 0 148318 229726 0 146576 218774 0 144899 207896 0 143286 197089 0 141734 186347 0 140244 175669 0 138813 165049 0 137441 154484 0 136127 143969 0 134870 133502 0 133668 123078 0 132521 112693 0 131428 102344 0 130388 92027.5 0 129399 81738.9 0 128462 71474.7 0 127576 61231.3 0 126739 51005.1 0 125951 40792.1 0 125211 30588.9 0 124518 20391.5 0 123872 10196.5 0 123272 0 0 289887 799306 0 283957 781162 0 278186 763313 0 272571 745753 0 267107 728473 0 261791 711467 0 256620 694727 0 251589 678246 0 246697 662017 0 241939 646033 0 237312 630288 0 232813 614776 0 228439 599489 0 224188 584423 0 220055 569570 0 216039 554924 0 212136 540481 0 208345 526234 0 204661 512177 0 201084 498305 0 197610 484613 0 194236 471095 0 190961 457746 0 187783 444560 0 184699 431534 0 181707 418661 0 178804 405938 0 175990 393358 0 173262 380917 0 170618 368611 0 168056 356435 0 165574 344385 0 163172 332455 0 160846 320642 0 158596 308940 0 156420 297346 0 154316 285856 0 152284 274465 0 150320 263168 0 148425 251963 0 146597 240844 0 144833 229807 0 143134 218849 0 141498 207966 0 139924 197153 0 138410 186407 0 136956 175723 0 135560 165098 0 134221 154528 0 132938 144009 0 131711 133538 0 130538 123110 0 129419 112721 0 128352 102369 0 127336 92048.3 0 126371 81756.5 0 125456 71489.3 0 124591 61243.2 0 123773 51014.4 0 123004 40799.1 0 122281 30593.7 0 121604 20394.6 0 120973 10197.9 0 120387 0 0 282700 799802 0 276924 781641 0 271302 763777 0 265831 746201 0 260508 728906 0 255329 711884 0 250291 695130 0 245390 678634 0 240623 662391 0 235987 646394 0 231478 630636 0 227095 615111 0 222833 599812 0 218690 584733 0 214663 569868 0 210749 555211 0 206946 540756 0 203251 526497 0 199662 512430 0 196175 498547 0 192789 484845 0 189501 471317 0 186310 457958 0 183212 444764 0 180206 431728 0 177290 418846 0 174461 406114 0 171718 393526 0 169058 381077 0 166481 368763 0 163984 356579 0 161565 344521 0 159223 332584 0 156956 320764 0 154763 309055 0 152641 297455 0 150591 285958 0 148609 274560 0 146695 263258 0 144847 252046 0 143064 240921 0 141345 229879 0 139689 218916 0 138093 208027 0 136558 197210 0 135082 186458 0 133664 175770 0 132302 165141 0 130996 154567 0 129746 144044 0 128549 133569 0 127404 123137 0 126312 112745 0 125271 102389 0 124281 92065.9 0 123339 81771.3 0 122447 71501.5 0 121602 61253 0 120804 51021.9 0 120053 40804.7 0 119347 30597.6 0 118686 20396.9 0 118070 10198.9 0 117497 0 0 275513 800250 0 269890 782075 0 264417 764195 0 259091 746605 0 253909 729296 0 248866 712262 0 243961 695494 0 239189 678985 0 234547 662730 0 230033 646720 0 225643 630950 0 221374 615413 0 217224 600102 0 213190 585012 0 209268 570136 0 205457 555468 0 201753 541003 0 198155 526735 0 194659 512657 0 191263 498765 0 187966 485054 0 184764 471517 0 181655 458149 0 178638 444946 0 175710 431902 0 172869 419012 0 170114 406272 0 167442 393676 0 164852 381220 0 162341 368899 0 159909 356708 0 157552 344643 0 155271 332699 0 153062 320872 0 150926 309157 0 148859 297551 0 146861 286048 0 144930 274644 0 143065 263336 0 141265 252119 0 139528 240990 0 137853 229942 0 136239 218974 0 134684 208081 0 133188 197259 0 131750 186503 0 130367 175811 0 129041 165178 0 127768 154600 0 126549 144073 0 125382 133595 0 124267 123160 0 123202 112765 0 122187 102406 0 121221 92080.3 0 120303 81783.2 0 119433 71511.2 0 118609 61260.7 0 117831 51027.8 0 117098 40809 0 116410 30600.5 0 115765 20398.6 0 115164 10199.7 0 114605 0 0 268328 800650 0 262857 782461 0 257533 764569 0 252351 746966 0 247309 729645 0 242403 712598 0 237630 695818 0 232987 679298 0 228471 663031 0 224078 647011 0 219806 631230 0 215653 615682 0 211614 600361 0 207688 585261 0 203872 570375 0 200163 555698 0 196558 541223 0 193056 526946 0 189654 512859 0 186349 498959 0 183140 485239 0 180023 471694 0 176998 458318 0 174061 445107 0 171211 432056 0 168446 419159 0 165764 406411 0 163163 393808 0 160642 381345 0 158198 369018 0 155830 356820 0 153536 344749 0 151315 332799 0 149165 320967 0 147085 309246 0 145073 297634 0 143128 286126 0 141248 274717 0 139432 263404 0 137679 252183 0 135988 241048 0 134357 229997 0 132785 219024 0 131271 208127 0 129815 197300 0 128414 186541 0 127067 175845 0 125775 165208 0 124536 154627 0 123348 144098 0 122212 133616 0 121125 123178 0 120088 112781 0 119099 102420 0 118158 92091.5 0 117264 81792.3 0 116416 71518.5 0 115613 61266.3 0 114854 51032 0 114140 40811.9 0 113469 30602.3 0 112840 20399.6 0 112254 10200.1 0 111709 0 0 261143 801003 0 255825 782802 0 250649 764899 0 245612 747285 0 240710 729952 0 235940 712895 0 231299 696104 0 226785 679574 0 222393 663297 0 218122 647266 0 213969 631476 0 209930 615918 0 206002 600588 0 202185 585479 0 198473 570585 0 194866 555899 0 191361 541416 0 187955 527130 0 184647 513036 0 181433 499128 0 178311 485401 0 175280 471848 0 172337 458466 0 169481 445248 0 166709 432190 0 164020 419286 0 161411 406532 0 158881 393923 0 156429 381454 0 154051 369121 0 151748 356918 0 149517 344841 0 147356 332886 0 145265 321048 0 143241 309322 0 141283 297705 0 139391 286192 0 137562 274779 0 135795 263462 0 134090 252236 0 132444 241097 0 130857 230042 0 129328 219065 0 127855 208164 0 126437 197334 0 125074 186572 0 123764 175873 0 122506 165233 0 121300 154649 0 120144 144117 0 119038 133632 0 117980 123192 0 116971 112792 0 116008 102430 0 115092 92099.5 0 114221 81798.7 0 113395 71523.3 0 112613 61269.8 0 111874 51034.4 0 111178 40813.4 0 110525 30603.2 0 109912 20400 0 109341 10200.1 0 108809 0 0 253960 801307 0 248794 783097 0 243766 765183 0 238873 747559 0 234111 730218 0 229477 713151 0 224968 696351 0 220582 679812 0 216316 663526 0 212166 647487 0 208130 631688 0 204205 616122 0 200390 600784 0 196680 585667 0 193074 570765 0 189569 556072 0 186162 541582 0 182853 527289 0 179637 513188 0 176514 499273 0 173480 485539 0 170535 471980 0 167675 458591 0 164899 445367 0 162205 432303 0 159591 419394 0 157055 406634 0 154597 394020 0 152213 381546 0 149902 369207 0 147663 356999 0 145494 344917 0 143394 332958 0 141361 321115 0 139393 309385 0 137491 297764 0 135651 286247 0 133873 274830 0 132155 263509 0 130497 252279 0 128897 241136 0 127354 230078 0 125867 219098 0 124435 208194 0 123056 197361 0 121731 186595 0 120457 175894 0 119234 165251 0 118060 154665 0 116936 144130 0 115860 133644 0 114832 123202 0 113849 112800 0 112913 102436 0 112022 92104.3 0 111174 81802.2 0 110371 71525.7 0 109610 61271.3 0 108891 51035.2 0 108214 40813.6 0 107577 30603 0 106981 20399.7 0 106424 10199.9 0 105907 0 0 246780 801564 0 241766 783345 0 236885 765423 0 232135 747791 0 227512 730442 0 223014 713367 0 218638 696559 0 214380 680012 0 210238 663719 0 206209 647672 0 202291 631866 0 198481 616294 0 194776 600949 0 191174 585825 0 187673 570916 0 184269 556216 0 180962 541720 0 177748 527421 0 174626 513314 0 171593 499394 0 168647 485654 0 165787 472089 0 163010 458695 0 160314 445466 0 157698 432397 0 155159 419483 0 152697 406718 0 150309 394099 0 147994 381620 0 145750 369277 0 143575 357065 0 141468 344979 0 139428 333015 0 137454 321169 0 135543 309435 0 133695 297810 0 131907 286290 0 130180 274869 0 128512 263545 0 126901 252312 0 125347 241166 0 123848 230104 0 122403 219122 0 121011 208215 0 119672 197380 0 118384 186612 0 117146 175908 0 115957 165263 0 114817 154675 0 113725 144139 0 112679 133651 0 111679 123207 0 110725 112804 0 109815 102438 0 108948 92105.8 0 108124 81802.8 0 107343 71525.7 0 106603 61270.7 0 105904 51034.2 0 105245 40812.5 0 104626 30601.9 0 104046 20398.7 0 103505 10199.3 0 103001 0 0 239