<?xml version="1.0"?> 
<VTKFile type="StructuredGrid" version="0.1"> 
<StructuredGrid WholeExtent="0 63 0 63 0 0"> 
<Piece Extent="0 63 0 63 0 0"> 
<PointData>
<DataArray type="Float32" Name="|E|" format="ascii" NumberOfComponents="3"> 
-1.62641e+06 1.55185e+06 0 -1.63751e+06 1.5677e+06 0 -1.64878e+06 1.58344e+06 0 -1.66024e+06 1.59905e+06 0 -1.6719e+06 1.61451e+06 0 -1.68378e+06 1.62983e+06 0 -1.69588e+06 1.64499e+06 0 -1.70823e+06 1.65998e+06 0 -1.72083e+06 1.67479e+06 0 -1.7337e+06 1.68941e+06 0 -1.74687e+06 1.70381e+06 0 -1.76035e+06 1.71801e+06 0 -1.77415e+06 1.73196e+06 0 -1.78832e+06 1.74568e+06 0 -1.80286e+06 1.75913e+06 0 -1.8178e+06 1.77232e+06 0 -1.83318e+06 1.78521e+06 0 -1.84901e+06 1.7978e+06 0 -1.86534e+06 1.81008e+06 0 -1.88219e+06 1.82201e+06 0 -1.89961e+06 1.8336e+06 0 -1.91762e+06 1.84482e+06 0 -1.93627e+06 1.85565e+06 0 -1.95561e+06 1.86607e+06 0 -1.97567e+06 1.87606e+06 0 -1.99651e+06 1.88561e+06 0 -2.01818e+06 1.89468e+06 0 -2.04073e+06 1.90326e+06 0 -2.06422e+06 1.91132e+06 0 -2.08871e+06 1.91882e+06 0 -2.11427e+06 1.92574e+06 0 -2.14096e+06 1.93204e+06 0 -2.16886e+06 1.93767e+06 0 -2.19804e+06 1.94261e+06 0 -2.22859e+06 1.94679e+06 0 -2.2606e+06 1.95015e+06 0 -2.29416e+06 1.95264e+06 0 -2.32937e+06 1.95417e+06 0 -2.36633e+06 1.95465e+06 0 -2.40517e+06 1.95397e+06 0 -2.446e+06 1.95202e+06 0 -2.48896e+06 1.94864e+06 0 -2.5342e+06 1.94366e+06 0 -2.58187e+06 1.93686e+06 0 -2.63216e+06 1.928e+06 0 -2.68527e+06 1.91677e+06 0 -2.7414e+06 1.90281e+06 0 -2.80082e+06 1.88569e+06 0 -2.86381e+06 1.86487e+06 0 -2.93071e+06 1.83972e+06 0 -3.0019e+06 1.80944e+06 0 -3.07786e+06 1.7731e+06 0 -3.15913e+06 1.72955e+06 0 -3.24638e+06 1.67739e+06 0 -3.34042e+06 1.61489e+06 0 -3.44223e+06 1.53998e+06 0 -3.553e+06 1.45008e+06 0 -3.67416e+06 1.34202e+06 0 -3.80744e+06 1.21189e+06 0 -3.95489e+06 1.05474e+06 0 -4.11895e+06 864343 0 -4.30246e+06 632657 0 -4.50871e+06 349210 0 -4.7414e+06 6.67572e-06 0 -1.62143e+06 1.56091e+06 0 -1.63262e+06 1.57666e+06 0 -1.64399e+06 1.5923e+06 0 -1.65555e+06 1.60782e+06 0 -1.66733e+06 1.6232e+06 0 -1.67932e+06 1.63843e+06 0 -1.69154e+06 1.65352e+06 0 -1.704e+06 1.66843e+06 0 -1.71673e+06 1.68317e+06 0 -1.72973e+06 1.69773e+06 0 -1.74303e+06 1.71208e+06 0 -1.75665e+06 1.72623e+06 0 -1.7706e+06 1.74015e+06 0 -1.7849e+06 1.75383e+06 0 -1.7996e+06 1.76726e+06 0 -1.81469e+06 1.78043e+06 0 -1.83023e+06 1.79332e+06 0 -1.84622e+06 1.80592e+06 0 -1.86272e+06 1.81821e+06 0 -1.87974e+06 1.83017e+06 0 -1.89732e+06 1.8418e+06 0 -1.91551e+06 1.85306e+06 0 -1.93434e+06 1.86395e+06 0 -1.95386e+06 1.87445e+06 0 -1.97411e+06 1.88453e+06 0 -1.99513e+06 1.89418e+06 0 -2.01699e+06 1.90337e+06 0 -2.03973e+06 1.91208e+06 0 -2.06342e+06 1.92028e+06 0 -2.0881e+06 1.92794e+06 0 -2.11386e+06 1.93504e+06 0 -2.14076e+06 1.94153e+06 0 -2.16886e+06 1.94738e+06 0 -2.19826e+06 1.95254e+06 0 -2.22904e+06 1.95697e+06 0 -2.26127e+06 1.9606e+06 0 -2.29506e+06 1.96337e+06 0 -2.33052e+06 1.9652e+06 0 -2.36774e+06 1.96601e+06 0 -2.40685e+06 1.96568e+06 0 -2.44798e+06 1.9641e+06 0 -2.49127e+06 1.96112e+06 0 -2.53686e+06 1.95656e+06 0 -2.58492e+06 1.95022e+06 0 -2.63564e+06 1.94186e+06 0 -2.68923e+06 1.93116e+06 0 -2.74592e+06 1.91779e+06 0 -2.80598e+06 1.9013e+06 0 -2.8697e+06 1.88119e+06 0 -2.93744e+06 1.85681e+06 0 -3.00962e+06 1.8274e+06 0 -3.08673e+06 1.79205e+06 0 -3.16935e+06 1.74963e+06 0 -3.2582e+06 1.69876e+06 0 -3.35412e+06 1.63778e+06 0 -3.45815e+06 1.56464e+06 0 -3.57155e+06 1.47683e+06 0 -3.69584e+06 1.37126e+06 0 -3.83284e+06 1.24407e+06 0 -3.98477e+06 1.09045e+06 0 -4.15424e+06 904266 0 -4.34434e+06 677636 0 -4.55875e+06 400269 0 -4.80169e+06 58407 0 -1.61643e+06 1.57003e+06 0 -1.62772e+06 1.58569e+06 0 -1.63919e+06 1.60124e+06 0 -1.65086e+06 1.61666e+06 0 -1.66274e+06 1.63196e+06 0 -1.67485e+06 1.64712e+06 0 -1.68718e+06 1.66212e+06 0 -1.69977e+06 1.67697e+06 0 -1.71262e+06 1.69165e+06 0 -1.72575e+06 1.70615e+06 0 -1.73919e+06 1.72045e+06 0 -1.75294e+06 1.73455e+06 0 -1.76703e+06 1.74844e+06 0 -1.78148e+06 1.76209e+06 0 -1.79632e+06 1.7755e+06 0 -1.81157e+06 1.78866e+06 0 -1.82726e+06 1.80155e+06 0 -1.84342e+06 1.81416e+06 0 -1.86008e+06 1.82647e+06 0 -1.87727e+06 1.83846e+06 0 -1.89502e+06 1.85013e+06 0 -1.91338e+06 1.86145e+06 0 -1.93239e+06 1.8724e+06 0 -1.95209e+06 1.88298e+06 0 -1.97252e+06 1.89315e+06 0 -1.99373e+06 1.9029e+06 0 -2.01577e+06 1.91221e+06 0 -2.0387e+06 1.92105e+06 0 -2.06258e+06 1.9294e+06 0 -2.08746e+06 1.93722e+06 0 -2.11342e+06 1.9445e+06 0 -2.14052e+06 1.95118e+06 0 -2.16883e+06 1.95725e+06 0 -2.19845e+06 1.96264e+06 0 -2.22944e+06 1.96731e+06 0 -2.2619e+06 1.97121e+06 0 -2.29593e+06 1.97426e+06 0 -2.33163e+06 1.97641e+06 0 -2.36911e+06 1.97754e+06 0 -2.4085e+06 1.97757e+06 0 -2.44993e+06 1.97636e+06 0 -2.49353e+06 1.97379e+06 0 -2.53947e+06 1.96967e+06 0 -2.58793e+06 1.9638e+06 0 -2.63908e+06 1.95593e+06 0 -2.69316e+06 1.94579e+06 0 -2.7504e+06 1.93301e+06 0 -2.81108e+06 1.91717e+06 0 -2.87553e+06 1.89778e+06 0 -2.94411e+06 1.8742e+06 0 -3.01727e+06 1.8457e+06 0 -3.09552e+06 1.81136e+06 0 -3.17947e+06 1.7701e+06 0 -3.26989e+06 1.72057e+06 0 -3.36766e+06 1.66115e+06 0 -3.47387e+06 1.58983e+06 0 -3.58985e+06 1.50417e+06 0 -3.7172e+06 1.40115e+06 0 -3.85786e+06 1.277e+06 0 -4.01416e+06 1.127e+06 0 -4.18892e+06 945155 0 -4.38548e+06 723737 0 -4.60786e+06 452652 0 -4.86082e+06 118409 0 -1.61143e+06 1.57921e+06 0 -1.62281e+06 1.59478e+06 0 -1.63439e+06 1.61024e+06 0 -1.64616e+06 1.62558e+06 0 -1.65815e+06 1.6408e+06 0 -1.67037e+06 1.65588e+06 0 -1.68282e+06 1.67082e+06 0 -1.69553e+06 1.6856e+06 0 -1.70851e+06 1.70022e+06 0 -1.72177e+06 1.71466e+06 0 -1.73533e+06 1.72892e+06 0 -1.74922e+06 1.74298e+06 0 -1.76345e+06 1.75684e+06 0 -1.77805e+06 1.77047e+06 0 -1.79304e+06 1.78387e+06 0 -1.80844e+06 1.79702e+06 0 -1.82429e+06 1.80991e+06 0 -1.8406e+06 1.82253e+06 0 -1.85742e+06 1.83486e+06 0 -1.87477e+06 1.84688e+06 0 -1.8927e+06 1.85859e+06 0 -1.91123e+06 1.86997e+06 0 -1.93041e+06 1.88099e+06 0 -1.95029e+06 1.89165e+06 0 -1.9709e+06 1.90191e+06 0 -1.99229e+06 1.91177e+06 0 -2.01452e+06 1.9212e+06 0 -2.03764e+06 1.93017e+06 0 -2.06171e+06 1.93867e+06 0 -2.08679e+06 1.94666e+06 0 -2.11294e+06 1.95411e+06 0 -2.14024e+06 1.961e+06 0 -2.16877e+06 1.96727e+06 0 -2.19859e+06 1.9729e+06 0 -2.2298e+06 1.97782e+06 0 -2.26249e+06 1.98199e+06 0 -2.29675e+06 1.98533e+06 0 -2.3327e+06 1.98778e+06 0 -2.37044e+06 1.98925e+06 0 -2.41011e+06 1.98964e+06 0 -2.45183e+06 1.98882e+06 0 -2.49576e+06 1.98665e+06 0 -2.54205e+06 1.98297e+06 0 -2.59089e+06 1.97758e+06 0 -2.64248e+06 1.97023e+06 0 -2.69704e+06 1.96064e+06 0 -2.75483e+06 1.94847e+06 0 -2.81614e+06 1.93331e+06 0 -2.8813e+06 1.91465e+06 0 -2.95071e+06 1.89189e+06 0 -3.02483e+06 1.86431e+06 0 -3.10421e+06 1.83103e+06 0 -3.18948e+06 1.79096e+06 0 -3.28144e+06 1.74281e+06 0 -3.38102e+06 1.68499e+06 0 -3.48937e+06 1.61555e+06 0 -3.60788e+06 1.5321e+06 0 -3.73823e+06 1.4317e+06 0 -3.88246e+06 1.31066e+06 0 -4.04304e+06 1.16439e+06 0 -4.22297e+06 987002 0 -4.42585e+06 770948 0 -4.65601e+06 506344 0 -4.91875e+06 179981 0 -1.60642e+06 1.58845e+06 0 -1.6179e+06 1.60393e+06 0 -1.62958e+06 1.61931e+06 0 -1.64146e+06 1.63457e+06 0 -1.65356e+06 1.64971e+06 0 -1.66588e+06 1.66472e+06 0 -1.67845e+06 1.6796e+06 0 -1.69128e+06 1.69432e+06 0 -1.70438e+06 1.70888e+06 0 -1.71777e+06 1.72328e+06 0 -1.73147e+06 1.7375e+06 0 -1.74549e+06 1.75152e+06 0 -1.75986e+06 1.76535e+06 0 -1.7746e+06 1.77896e+06 0 -1.78974e+06 1.79234e+06 0 -1.80529e+06 1.80549e+06 0 -1.82129e+06 1.81839e+06 0 -1.83776e+06 1.83102e+06 0 -1.85474e+06 1.84338e+06 0 -1.87226e+06 1.85544e+06 0 -1.89035e+06 1.8672e+06 0 -1.90906e+06 1.87863e+06 0 -1.92841e+06 1.88972e+06 0 -1.94846e+06 1.90046e+06 0 -1.96925e+06 1.91082e+06 0 -1.99082e+06 1.92079e+06 0 -2.01324e+06 1.93034e+06 0 -2.03654e+06 1.93945e+06 0 -2.0608e+06 1.9481e+06 0 -2.08607e+06 1.95625e+06 0 -2.11243e+06 1.96389e+06 0 -2.13993e+06 1.97097e+06 0 -2.16866e+06 1.97746e+06 0 -2.19869e+06 1.98332e+06 0 -2.23012e+06 1.9885e+06 0 -2.26303e+06 1.99293e+06 0 -2.29753e+06 1.99657e+06 0 -2.33372e+06 1.99934e+06 0 -2.37173e+06 2.00114e+06 0 -2.41167e+06 2.00189e+06 0 -2.45369e+06 2.00146e+06 0 -2.49794e+06 1.99971e+06 0 -2.54458e+06 1.99648e+06 0 -2.59381e+06 1.99157e+06 0 -2.64583e+06 1.98474e+06 0 -2.70087e+06 1.97573e+06 0 -2.7592e+06 1.96418e+06 0 -2.82113e+06 1.9497e+06 0 -2.88701e+06 1.9318e+06 0 -2.95724e+06 1.90989e+06 0 -3.03232e+06 1.88326e+06 0 -3.1128e+06 1.85105e+06 0 -3.19936e+06 1.81222e+06 0 -3.29284e+06 1.76549e+06 0 -3.3942e+06 1.70931e+06 0 -3.50465e+06 1.6418e+06 0 -3.62564e+06 1.56062e+06 0 -3.75892e+06 1.4629e+06 0 -3.90664e+06 1.34506e+06 0 -4.07141e+06 1.2026e+06 0 -4.25638e+06 1.0298e+06 0 -4.46542e+06 819257 0 -4.70317e+06 561327 0 -4.97544e+06 243099 0 -1.6014e+06 1.59775e+06 0 -1.61298e+06 1.61315e+06 0 -1.62475e+06 1.62845e+06 0 -1.63674e+06 1.64364e+06 0 -1.64895e+06 1.65871e+06 0 -1.66139e+06 1.67365e+06 0 -1.67408e+06 1.68846e+06 0 -1.68702e+06 1.70313e+06 0 -1.70025e+06 1.71764e+06 0 -1.71376e+06 1.73199e+06 0 -1.72759e+06 1.74617e+06 0 -1.74175e+06 1.76017e+06 0 -1.75626e+06 1.77397e+06 0 -1.77114e+06 1.78756e+06 0 -1.78642e+06 1.80094e+06 0 -1.80213e+06 1.81409e+06 0 -1.81828e+06 1.82699e+06 0 -1.83491e+06 1.83965e+06 0 -1.85204e+06 1.85203e+06 0 -1.86972e+06 1.86413e+06 0 -1.88798e+06 1.87594e+06 0 -1.90685e+06 1.88743e+06 0 -1.92638e+06 1.8986e+06 0 -1.9466e+06 1.90942e+06 0 -1.96757e+06 1.91987e+06 0 -1.98932e+06 1.92995e+06 0 -2.01192e+06 1.93963e+06 0 -2.03541e+06 1.94888e+06 0 -2.05986e+06 1.95768e+06 0 -2.08532e+06 1.966e+06 0 -2.11187e+06 1.97382e+06 0 -2.13957e+06 1.98111e+06 0 -2.1685e+06 1.98782e+06 0 -2.19875e+06 1.99391e+06 0 -2.23039e+06 1.99934e+06 0 -2.26353e+06 2.00405e+06 0 -2.29827e+06 2.00799e+06 0 -2.3347e+06 2.01107e+06 0 -2.37297e+06 2.01321e+06 0 -2.41319e+06 2.01433e+06 0 -2.4555e+06 2.01429e+06 0 -2.50007e+06 2.01296e+06 0 -2.54706e+06 2.01019e+06 0 -2.59667e+06 2.00577e+06 0 -2.64912e+06 1.99948e+06 0 -2.70464e+06 1.99105e+06 0 -2.76352e+06 1.98014e+06 0 -2.82607e+06 1.96636e+06 0 -2.89265e+06 1.94924e+06 0 -2.96369e+06 1.9282e+06 0 -3.03971e+06 1.90255e+06 0 -3.12128e+06 1.87144e+06 0 -3.20912e+06 1.83387e+06 0 -3.30408e+06 1.7886e+06 0 -3.40719e+06 1.73411e+06 0 -3.51969e+06 1.66858e+06 0 -3.6431e+06 1.58972e+06 0 -3.77925e+06 1.49476e+06 0 -3.93038e+06 1.38019e+06 0 -4.09923e+06 1.24164e+06 0 -4.28913e+06 1.07353e+06 0 -4.50417e+06 868651 0 -4.74932e+06 617582 0 -5.03086e+06 307736 0 -1.59636e+06 1.60712e+06 0 -1.60804e+06 1.62244e+06 0 -1.61992e+06 1.63766e+06 0 -1.63201e+06 1.65277e+06 0 -1.64433e+06 1.66778e+06 0 -1.65688e+06 1.68266e+06 0 -1.66968e+06 1.69741e+06 0 -1.68275e+06 1.71203e+06 0 -1.6961e+06 1.7265e+06 0 -1.70974e+06 1.74081e+06 0 -1.7237e+06 1.75495e+06 0 -1.73799e+06 1.76892e+06 0 -1.75264e+06 1.7827e+06 0 -1.76767e+06 1.79628e+06 0 -1.78309e+06 1.80965e+06 0 -1.79894e+06 1.8228e+06 0 -1.81524e+06 1.83572e+06 0 -1.83203e+06 1.8484e+06 0 -1.84932e+06 1.86081e+06 0 -1.86716e+06 1.87296e+06 0 -1.88558e+06 1.88481e+06 0 -1.90462e+06 1.89637e+06 0 -1.92432e+06 1.90761e+06 0 -1.94471e+06 1.91852e+06 0 -1.96585e+06 1.92908e+06 0 -1.98779e+06 1.93927e+06 0 -2.01056e+06 1.94907e+06 0 -2.03424e+06 1.95846e+06 0 -2.05887e+06 1.96741e+06 0 -2.08453e+06 1.97591e+06 0 -2.11127e+06 1.98392e+06 0 -2.13917e+06 1.9914e+06 0 -2.16831e+06 1.99833e+06 0 -2.19876e+06 2.00466e+06 0 -2.23062e+06 2.01035e+06 0 -2.26399e+06 2.01534e+06 0 -2.29895e+06 2.01957e+06 0 -2.33564e+06 2.02298e+06 0 -2.37416e+06 2.02547e+06 0 -2.41465e+06 2.02695e+06 0 -2.45726e+06 2.02731e+06 0 -2.50215e+06 2.02642e+06 0 -2.54949e+06 2.02411e+06 0 -2.59949e+06 2.02019e+06 0 -2.65236e+06 2.01445e+06 0 -2.70836e+06 2.00661e+06 0 -2.76777e+06 1.99635e+06 0 -2.83093e+06 1.98329e+06 0 -2.89821e+06 1.96697e+06 0 -2.97006e+06 1.94681e+06 0 -3.047e+06 1.92216e+06 0 -3.12964e+06 1.89219e+06 0 -3.21874e+06 1.85592e+06 0 -3.31516e+06 1.81214e+06 0 -3.41998e+06 1.75939e+06 0 -3.53449e+06 1.69588e+06 0 -3.66027e+06 1.61941e+06 0 -3.79922e+06 1.52726e+06 0 -3.95368e+06 1.41605e+06 0 -4.12651e+06 1.2815e+06 0 -4.3212e+06 1.11819e+06 0 -4.54208e+06 919115 0 -4.79442e+06 675090 0 -5.08497e+06 373865 0 -1.59131e+06 1.61654e+06 0 -1.60309e+06 1.63179e+06 0 -1.61507e+06 1.64694e+06 0 -1.62727e+06 1.66199e+06 0 -1.6397e+06 1.67693e+06 0 -1.65236e+06 1.69175e+06 0 -1.66528e+06 1.70646e+06 0 -1.67847e+06 1.72102e+06 0 -1.69194e+06 1.73545e+06 0 -1.70571e+06 1.74972e+06 0 -1.71979e+06 1.76383e+06 0 -1.73422e+06 1.77778e+06 0 -1.749e+06 1.79154e+06 0 -1.76417e+06 1.80511e+06 0 -1.77974e+06 1.81848e+06 0 -1.79573e+06 1.83164e+06 0 -1.81219e+06 1.84458e+06 0 -1.82912e+06 1.85728e+06 0 -1.84658e+06 1.86972e+06 0 -1.86458e+06 1.88191e+06 0 -1.88316e+06 1.89383e+06 0 -1.90236e+06 1.90545e+06 0 -1.92223e+06 1.91677e+06 0 -1.94279e+06 1.92776e+06 0 -1.96411e+06 1.93842e+06 0 -1.98621e+06 1.94873e+06 0 -2.00917e+06 1.95866e+06 0 -2.03303e+06 1.96819e+06 0 -2.05785e+06 1.9773e+06 0 -2.0837e+06 1.98597e+06 0 -2.11063e+06 1.99417e+06 0 -2.13873e+06 2.00186e+06 0 -2.16807e+06 2.00901e+06 0 -2.19873e+06 2.01559e+06 0 -2.23081e+06 2.02153e+06 0 -2.26439e+06 2.0268e+06 0 -2.29959e+06 2.03134e+06 0 -2.33652e+06 2.03507e+06 0 -2.3753e+06 2.03791e+06 0 -2.41607e+06 2.03977e+06 0 -2.45897e+06 2.04053e+06 0 -2.50418e+06 2.04007e+06 0 -2.55187e+06 2.03823e+06 0 -2.60224e+06 2.03483e+06 0 -2.65554e+06 2.02964e+06 0 -2.71201e+06 2.02241e+06 0 -2.77196e+06 2.01282e+06 0 -2.83572e+06 2.00049e+06 0 -2.90369e+06 1.98498e+06 0 -2.97633e+06 1.96574e+06 0 -3.05418e+06 1.94211e+06 0 -3.13789e+06 1.9133e+06 0 -3.22821e+06 1.87836e+06 0 -3.32606e+06 1.83611e+06 0 -3.43256e+06 1.78513e+06 0 -3.54903e+06 1.7237e+06 0 -3.67712e+06 1.64967e+06 0 -3.8188e+06 1.5604e+06 0 -3.9765e+06 1.45261e+06 0 -4.15321e+06 1.32216e+06 0 -4.35257e+06 1.16377e+06 0 -4.57913e+06 970635 0 -4.83845e+06 733830 0 -5.13774e+06 441456 0 -1.58625e+06 1.62603e+06 0 -1.59812e+06 1.64121e+06 0 -1.61021e+06 1.65629e+06 0 -1.62251e+06 1.67128e+06 0 -1.63505e+06 1.68616e+06 0 -1.64782e+06 1.70093e+06 0 -1.66086e+06 1.71558e+06 0 -1.67416e+06 1.73011e+06 0 -1.68776e+06 1.74449e+06 0 -1.70165e+06 1.75873e+06 0 -1.71587e+06 1.77282e+06 0 -1.73043e+06 1.78674e+06 0 -1.74535e+06 1.80049e+06 0 -1.76065e+06 1.81406e+06 0 -1.77636e+06 1.82743e+06 0 -1.7925e+06 1.8406e+06 0 -1.80911e+06 1.85356e+06 0 -1.82619e+06 1.86628e+06 0 -1.8438e+06 1.87877e+06 0 -1.86196e+06 1.891e+06 0 -1.8807e+06 1.90297e+06 0 -1.90007e+06 1.91467e+06 0 -1.9201e+06 1.92606e+06 0 -1.94084e+06 1.93715e+06 0 -1.96232e+06 1.94792e+06 0 -1.98461e+06 1.95834e+06 0 -2.00774e+06 1.9684e+06 0 -2.03178e+06 1.97808e+06 0 -2.05679e+06 1.98735e+06 0 -2.08282e+06 1.9962e+06 0 -2.10994e+06 2.00458e+06 0 -2.13824e+06 2.01248e+06 0 -2.16778e+06 2.01986e+06 0 -2.19865e+06 2.02667e+06 0 -2.23094e+06 2.03289e+06 0 -2.26475e+06 2.03844e+06 0 -2.30018e+06 2.04328e+06 0 -2.33735e+06 2.04734e+06 0 -2.37638e+06 2.05053e+06 0 -2.41743e+06 2.05277e+06 0 -2.46062e+06 2.05394e+06 0 -2.50615e+06 2.05393e+06 0 -2.55418e+06 2.05257e+06 0 -2.60494e+06 2.04968e+06 0 -2.65865e+06 2.04506e+06 0 -2.7156e+06 2.03845e+06 0 -2.77607e+06 2.02954e+06 0 -2.84043e+06 2.01796e+06 0 -2.90908e+06 2.00328e+06 0 -2.9825e+06 1.98497e+06 0 -3.06125e+06 1.96239e+06 0 -3.146e+06 1.93478e+06 0 -3.23752e+06 1.90119e+06 0 -3.33678e+06 1.86051e+06 0 -3.44491e+06 1.81136e+06 0 -3.56331e+06 1.75204e+06 0 -3.69365e+06 1.6805e+06 0 -3.83799e+06 1.59418e+06 0 -3.99885e+06 1.4899e+06 0 -4.17932e+06 1.36363e+06 0 -4.38322e+06 1.21026e+06 0 -4.61528e+06 1.0232e+06 0 -4.88138e+06 793781 0 -5.18913e+06 510480 0 -1.58116e+06 1.63559e+06 0 -1.59314e+06 1.6507e+06 0 -1.60533e+06 1.66572e+06 0 -1.61774e+06 1.68065e+06 0 -1.63038e+06 1.69547e+06 0 -1.64327e+06 1.71019e+06 0 -1.65642e+06 1.7248e+06 0 -1.66984e+06 1.73928e+06 0 -1.68356e+06 1.75363e+06 0 -1.69758e+06 1.76785e+06 0 -1.71192e+06 1.78191e+06 0 -1.72661e+06 1.79582e+06 0 -1.74167e+06 1.80956e+06 0 -1.75711e+06 1.82312e+06 0 -1.77296e+06 1.8365e+06 0 -1.78925e+06 1.84968e+06 0 -1.806e+06 1.86266e+06 0 -1.82324e+06 1.87542e+06 0 -1.841e+06 1.88794e+06 0 -1.85931e+06 1.90023e+06 0 -1.87822e+06 1.91226e+06 0 -1.89775e+06 1.92402e+06 0 -1.91794e+06 1.9355e+06 0 -1.93884e+06 1.94669e+06 0 -1.9605e+06 1.95756e+06 0 -1.98296e+06 1.9681e+06 0 -2.00627e+06 1.9783e+06 0 -2.03049e+06 1.98812e+06 0 -2.05568e+06 1.99756e+06 0 -2.08189e+06 2.00658e+06 0 -2.10921e+06 2.01516e+06 0 -2.1377e+06 2.02327e+06 0 -2.16744e+06 2.03087e+06 0 -2.19852e+06 2.03793e+06 0 -2.23102e+06 2.04441e+06 0 -2.26505e+06 2.05025e+06 0 -2.30071e+06 2.0554e+06 0 -2.33812e+06 2.05979e+06 0 -2.37742e+06 2.06334e+06 0 -2.41873e+06 2.06596e+06 0 -2.46222e+06 2.06756e+06 0 -2.50806e+06 2.06799e+06 0 -2.55643e+06 2.06712e+06 0 -2.60757e+06 2.06476e+06 0 -2.6617e+06 2.06072e+06 0 -2.71911e+06 2.05473e+06 0 -2.78011e+06 2.04651e+06 0 -2.84506e+06 2.0357e+06 0 -2.91438e+06 2.02188e+06 0 -2.98857e+06 2.00452e+06 0 -3.06821e+06 1.98301e+06 0 -3.15397e+06 1.95662e+06 0 -3.24667e+06 1.92443e+06 0 -3.34731e+06 1.88535e+06 0 -3.45704e+06 1.83805e+06 0 -3.57731e+06 1.7809e+06 0 -3.70985e+06 1.71191e+06 0 -3.85678e+06 1.6286e+06 0 -4.02071e+06 1.52788e+06 0 -4.20484e+06 1.40588e+06 0 -4.41313e+06 1.25764e+06 0 -4.65053e+06 1.07678e+06 0 -4.92317e+06 854920 0 -5.23911e+06 580907 0 -1.57606e+06 1.64521e+06 0 -1.58813e+06 1.66025e+06 0 -1.60042e+06 1.67522e+06 0 -1.61294e+06 1.69009e+06 0 -1.62569e+06 1.70487e+06 0 -1.63869e+06 1.71954e+06 0 -1.65196e+06 1.7341e+06 0 -1.6655e+06 1.74855e+06 0 -1.67934e+06 1.76287e+06 0 -1.69348e+06 1.77706e+06 0 -1.70796e+06 1.7911e+06 0 -1.72278e+06 1.805e+06 0 -1.73797e+06 1.81873e+06 0 -1.75355e+06 1.8323e+06 0 -1.76954e+06 1.84569e+06 0 -1.78597e+06 1.85888e+06 0 -1.80286e+06 1.87189e+06 0 -1.82025e+06 1.88468e+06 0 -1.83817e+06 1.89725e+06 0 -1.85664e+06 1.90959e+06 0 -1.8757e+06 1.92168e+06 0 -1.89539e+06 1.93352e+06 0 -1.91575e+06 1.94509e+06 0 -1.93681e+06 1.95637e+06 0 -1.95864e+06 1.96735e+06 0 -1.98127e+06 1.97801e+06 0 -2.00476e+06 1.98834e+06 0 -2.02915e+06 1.99832e+06 0 -2.05452e+06 2.00792e+06 0 -2.08092e+06 2.01712e+06 0 -2.10843e+06 2.02589e+06 0 -2.13711e+06 2.03421e+06 0 -2.16705e+06 2.04205e+06 0 -2.19833e+06 2.04936e+06 0 -2.23105e+06 2.0561e+06 0 -2.26529e+06 2.06223e+06 0 -2.30119e+06 2.06769e+06 0 -2.33884e+06 2.07242e+06 0 -2.37839e+06 2.07633e+06 0 -2.41997e+06 2.07935e+06 0 -2.46375e+06 2.08136e+06 0 -2.5099e+06 2.08225e+06 0 -2.55862e+06 2.08188e+06 0 -2.61013e+06 2.08006e+06 0 -2.66468e+06 2.0766e+06 0 -2.72255e+06 2.07126e+06 0 -2.78406e+06 2.06375e+06 0 -2.84959e+06 2.05372e+06 0 -2.91958e+06 2.04076e+06 0 -2.99453e+06 2.02438e+06 0 -3.07503e+06 2.00397e+06 0 -3.16179e+06 1.97882e+06 0 -3.25566e+06 1.94805e+06 0 -3.35763e+06 1.91061e+06 0 -3.46892e+06 1.86521e+06 0 -3.59102e+06 1.81028e+06 0 -3.72569e+06 1.74388e+06 0 -3.87514e+06 1.66364e+06 0 -4.04205e+06 1.56656e+06 0 -4.22973e+06 1.44891e+06 0 -4.44228e+06 1.30591e+06 0 -4.68485e+06 1.13137e+06 0 -4.96382e+06 917225 0 -5.28765e+06 652703 0 -1.57093e+06 1.65489e+06 0 -1.58311e+06 1.66988e+06 0 -1.5955e+06 1.68479e+06 0 -1.60812e+06 1.69961e+06 0 -1.62098e+06 1.71434e+06 0 -1.6341e+06 1.72897e+06 0 -1.64748e+06 1.7435e+06 0 -1.66114e+06 1.75791e+06 0 -1.67509e+06 1.77221e+06 0 -1.68936e+06 1.78637e+06 0 -1.70396e+06 1.8004e+06 0 -1.71892e+06 1.81428e+06 0 -1.73424e+06 1.82802e+06 0 -1.74995e+06 1.84159e+06 0 -1.76609e+06 1.85499e+06 0 -1.78266e+06 1.86821e+06 0 -1.7997e+06 1.88124e+06 0 -1.81724e+06 1.89407e+06 0 -1.8353e+06 1.90668e+06 0 -1.85392e+06 1.91908e+06 0 -1.87314e+06 1.93124e+06 0 -1.89299e+06 1.94315e+06 0 -1.91351e+06 1.95481e+06 0 -1.93474e+06 1.96619e+06 0 -1.95674e+06 1.97728e+06 0 -1.97954e+06 1.98807e+06 0 -2.0032e+06 1.99854e+06 0 -2.02777e+06 2.00867e+06 0 -2.05332e+06 2.01843e+06 0 -2.07991e+06 2.02781e+06 0 -2.1076e+06 2.03679e+06 0 -2.13647e+06 2.04532e+06 0 -2.16661e+06 2.05339e+06 0 -2.19809e+06 2.06095e+06 0 -2.23102e+06 2.06797e+06 0 -2.26548e+06 2.07439e+06 0 -2.3016e+06 2.08017e+06 0 -2.3395e+06 2.08524e+06 0 -2.3793e+06 2.08952e+06 0 -2.42115e+06 2.09293e+06 0 -2.46522e+06 2.09537e+06 0 -2.51168e+06 2.09672e+06 0 -2.56074e+06 2.09685e+06 0 -2.61262e+06 2.09558e+06 0 -2.66758e+06 2.09272e+06 0 -2.7259e+06 2.08803e+06 0 -2.78793e+06 2.08124e+06 0 -2.85404e+06 2.07201e+06 0 -2.92468e+06 2.05994e+06 0 -3.00037e+06 2.04455e+06 0 -3.08172e+06 2.02527e+06 0 -3.16946e+06 2.00139e+06 0 -3.26446e+06 1.97207e+06 0 -3.36774e+06 1.9363e+06 0 -3.48056e+06 1.89284e+06 0 -3.60443e+06 1.84016e+06 0 -3.74118e+06 1.77642e+06 0 -3.89307e+06 1.6993e+06 0 -4.06287e+06 1.60594e+06 0 -4.25398e+06 1.49272e+06 0 -4.47065e+06 1.35504e+06 0 -4.71821e+06 1.18695e+06 0 -5.00328e+06 980672 0 -5.33471e+06 725837 0 -1.56578e+06 1.66464e+06 0 -1.57806e+06 1.67957e+06 0 -1.59055e+06 1.69443e+06 0 -1.60328e+06 1.70921e+06 0 -1.61625e+06 1.7239e+06 0 -1.62947e+06 1.73849e+06 0 -1.64297e+06 1.75298e+06 0 -1.65675e+06 1.76737e+06 0 -1.67082e+06 1.78164e+06 0 -1.68522e+06 1.79578e+06 0 -1.69995e+06 1.8098e+06 0 -1.71503e+06 1.82368e+06 0 -1.73048e+06 1.83741e+06 0 -1.74633e+06 1.85099e+06 0 -1.7626e+06 1.86441e+06 0 -1.77932e+06 1.87765e+06 0 -1.7965e+06 1.89071e+06 0 -1.81419e+06 1.90358e+06 0 -1.8324e+06 1.91625e+06 0 -1.85118e+06 1.9287e+06 0 -1.87055e+06 1.94093e+06 0 -1.89055e+06 1.95293e+06 0 -1.91124e+06 1.96467e+06 0 -1.93263e+06 1.97616e+06 0 -1.95479e+06 1.98736e+06 0 -1.97776e+06 1.99828e+06 0 -2.00159e+06 2.00889e+06 0 -2.02634e+06 2.01917e+06 0 -2.05207e+06 2.0291e+06 0 -2.07884e+06 2.03867e+06 0 -2.10672e+06 2.04784e+06 0 -2.13578e+06 2.0566e+06 0 -2.16611e+06 2.0649e+06 0 -2.1978e+06 2.07272e+06 0 -2.23093e+06 2.08001e+06 0 -2.26561e+06 2.08673e+06 0 -2.30196e+06 2.09283e+06 0 -2.34009e+06 2.09824e+06 0 -2.38014e+06 2.10289e+06 0 -2.42226e+06 2.1067e+06 0 -2.46662e+06 2.10958e+06 0 -2.51339e+06 2.1114e+06 0 -2.56278e+06 2.11204e+06 0 -2.61503e+06 2.11132e+06 0 -2.67039e+06 2.10907e+06 0 -2.72917e+06 2.10505e+06 0 -2.7917e+06 2.09899e+06 0 -2.85837e+06 2.09058e+06 0 -2.92966e+06 2.07941e+06 0 -3.00608e+06 2.06504e+06 0 -3.08827e+06 2.0469e+06 0 -3.17697e+06 2.02432e+06 0 -3.27307e+06 1.99648e+06 0 -3.37763e+06 1.96242e+06 0 -3.49193e+06 1.92093e+06 0 -3.61752e+06 1.87056e+06 0 -3.7563e+06 1.80951e+06 0 -3.91056e+06 1.73557e+06 0 -4.08315e+06 1.64599e+06 0 -4.27758e+06 1.53728e+06 0 -4.49823e+06 1.40503e+06 0 -4.75059e+06 1.24351e+06 0 -5.04154e+06 1.04523e+06 0 -5.38026e+06 800274 0 -1.5606e+06 1.67446e+06 0 -1.57298e+06 1.68934e+06 0 -1.58558e+06 1.70415e+06 0 -1.59841e+06 1.71888e+06 0 -1.61149e+06 1.73353e+06 0 -1.62483e+06 1.74809e+06 0 -1.63844e+06 1.76255e+06 0 -1.65233e+06 1.77691e+06 0 -1.66653e+06 1.79116e+06 0 -1.68105e+06 1.8053e+06 0 -1.6959e+06 1.8193e+06 0 -1.71111e+06 1.83318e+06 0 -1.7267e+06 1.84692e+06 0 -1.74268e+06 1.86051e+06 0 -1.75909e+06 1.87394e+06 0 -1.77594e+06 1.88721e+06 0 -1.79327e+06 1.90031e+06 0 -1.8111e+06 1.91322e+06 0 -1.82946e+06 1.92594e+06 0 -1.84839e+06 1.93846e+06 0 -1.86792e+06 1.95076e+06 0 -1.88808e+06 1.96284e+06 0 -1.90892e+06 1.97468e+06 0 -1.93048e+06 1.98627e+06 0 -1.9528e+06 1.99759e+06 0 -1.97594e+06 2.00864e+06 0 -1.99994e+06 2.01939e+06 0 -2.02486e+06 2.02983e+06 0 -2.05076e+06 2.03993e+06 0 -2.07771e+06 2.04969e+06 0 -2.10578e+06 2.05906e+06 0 -2.13503e+06 2.06804e+06 0 -2.16556e+06 2.07658e+06 0 -2.19744e+06 2.08465e+06 0 -2.23078e+06 2.09222e+06 0 -2.26568e+06 2.09924e+06 0 -2.30225e+06 2.10566e+06 0 -2.34062e+06 2.11142e+06 0 -2.38092e+06 2.11645e+06 0 -2.42331e+06 2.12067e+06 0 -2.46795e+06 2.12399e+06 0 -2.51503e+06 2.12629e+06 0 -2.56475e+06 2.12744e+06 0 -2.61736e+06 2.12729e+06 0 -2.67313e+06 2.12566e+06 0 -2.73235e+06 2.12232e+06 0 -2.79537e+06 2.11701e+06 0 -2.86261e+06 2.10942e+06 0 -2.93452e+06 2.09918e+06 0 -3.01166e+06 2.08584e+06 0 -3.09466e+06 2.06886e+06 0 -3.1843e+06 2.04761e+06 0 -3.28148e+06 2.02129e+06 0 -3.38728e+06 1.98897e+06 0 -3.50303e+06 1.94949e+06 0 -3.6303e+06 1.90146e+06 0 -3.77103e+06 1.84316e+06 0 -3.92759e+06 1.77246e+06 0 -4.10288e+06 1.68672e+06 0 -4.30051e+06 1.5826e+06 0 -4.52499e+06 1.45585e+06 0 -4.78197e+06 1.30101e+06 0 -5.07856e+06 1.11089e+06 0 -5.42427e+06 875980 0 -1.5554e+06 1.68434e+06 0 -1.56787e+06 1.69918e+06 0 -1.58058e+06 1.71394e+06 0 -1.59352e+06 1.72864e+06 0 -1.6067e+06 1.74325e+06 0 -1.62015e+06 1.75778e+06 0 -1.63387e+06 1.77221e+06 0 -1.64789e+06 1.78655e+06 0 -1.66221e+06 1.80079e+06 0 -1.67684e+06 1.81491e+06 0 -1.69182e+06 1.82891e+06 0 -1.70716e+06 1.84279e+06 0 -1.72288e+06 1.85654e+06 0 -1.739e+06 1.87014e+06 0 -1.75554e+06 1.8836e+06 0 -1.77253e+06 1.8969e+06 0 -1.79e+06 1.91003e+06 0 -1.80798e+06 1.92299e+06 0 -1.82649e+06 1.93577e+06 0 -1.84556e+06 1.94835e+06 0 -1.86524e+06 1.96072e+06 0 -1.88556e+06 1.97289e+06 0 -1.90656e+06 1.98482e+06 0 -1.92828e+06 1.99652e+06 0 -1.95076e+06 2.00796e+06 0 -1.97406e+06 2.01914e+06 0 -1.99823e+06 2.03004e+06 0 -2.02333e+06 2.04064e+06 0 -2.04941e+06 2.05092e+06 0 -2.07654e+06 2.06086e+06 0 -2.10478e+06 2.07044e+06 0 -2.13423e+06 2.07964e+06 0 -2.16494e+06 2.08842e+06 0 -2.19703e+06 2.09676e+06 0 -2.23057e+06 2.10461e+06 0 -2.26569e+06 2.11193e+06 0 -2.30248e+06 2.11868e+06 0 -2.34108e+06 2.12479e+06 0 -2.38163e+06 2.13021e+06 0 -2.42428e+06 2.13484e+06 0 -2.4692e+06 2.1386e+06 0 -2.51658e+06 2.14139e+06 0 -2.56664e+06 2.14307e+06 0 -2.61961e+06 2.14349e+06 0 -2.67577e+06 2.14248e+06 0 -2.73543e+06 2.13983e+06 0 -2.79894e+06 2.13528e+06 0 -2.86672e+06 2.12854e+06 0 -2.93926e+06 2.11924e+06 0 -3.01709e+06 2.10695e+06 0 -3.1009e+06 2.09117e+06 0 -3.19145e+06 2.07126e+06 0 -3.28968e+06 2.04648e+06 0 -3.3967e+06 2.01593e+06 0 -3.51385e+06 1.9785e+06 0 -3.64274e+06 1.93286e+06 0 -3.78537e+06 1.87735e+06 0 -3.94414e+06 1.80995e+06 0 -4.12203e+06 1.72811e+06 0 -4.32276e+06 1.62865e+06 0 -4.55091e+06 1.50751e+06 0 -4.81233e+06 1.35945e+06 0 -5.11432e+06 1.17761e+06 0 -5.46672e+06 952917 0 -1.55016e+06 1.69429e+06 0 -1.56274e+06 1.70908e+06 0 -1.57554e+06 1.72381e+06 0 -1.58859e+06 1.73847e+06 0 -1.60189e+06 1.75305e+06 0 -1.61545e+06 1.76755e+06 0 -1.62928e+06 1.78196e+06 0 -1.64341e+06 1.79628e+06 0 -1.65785e+06 1.8105e+06 0 -1.67261e+06 1.82462e+06 0 -1.68771e+06 1.83862e+06 0 -1.70318e+06 1.85251e+06 0 -1.71903e+06 1.86626e+06 0 -1.73528e+06 1.87989e+06 0 -1.75196e+06 1.89337e+06 0 -1.76909e+06 1.9067e+06 0 -1.7867e+06 1.91988e+06 0 -1.80482e+06 1.93288e+06 0 -1.82347e+06 1.94572e+06 0 -1.8427e+06 1.95837e+06 0 -1.86253e+06 1.97082e+06 0 -1.883e+06 1.98307e+06 0 -1.90415e+06 1.99511e+06 0 -1.92603e+06 2.00692e+06 0 -1.94868e+06 2.01848e+06 0 -1.97214e+06 2.02979e+06 0 -1.99648e+06 2.04084e+06 0 -2.02174e+06 2.0516e+06 0 -2.048e+06 2.06206e+06 0 -2.0753e+06 2.07219e+06 0 -2.10373e+06 2.08198e+06 0 -2.13336e+06 2.09141e+06 0 -2.16427e+06 2.10043e+06 0 -2.19655e+06 2.10903e+06 0 -2.2303e+06 2.11717e+06 0 -2.26562e+06 2.1248e+06 0 -2.30264e+06 2.13188e+06 0 -2.34148e+06 2.13835e+06 0 -2.38227e+06 2.14415e+06 0 -2.42518e+06 2.1492e+06 0 -2.47038e+06 2.15341e+06 0 -2.51806e+06 2.15669e+06 0 -2.56844e+06 2.1589e+06 0 -2.62177e+06 2.15991e+06 0 -2.67831e+06 2.15954e+06 0 -2.7384e+06 2.15759e+06 0 -2.8024e+06 2.15382e+06 0 -2.87072e+06 2.14793e+06 0 -2.94386e+06 2.13959e+06 0 -3.02239e+06 2.12838e+06 0 -3.10697e+06 2.11381e+06 0 -3.19842e+06 2.09528e+06 0 -3.29767e+06 2.07207e+06 0 -3.40586e+06 2.04332e+06 0 -3.52437e+06 2.00798e+06 0 -3.65484e+06 1.96476e+06 0 -3.79929e+06 1.91209e+06 0 -3.9602e+06 1.84803e+06 0 -4.14061e+06 1.77015e+06 0 -4.3443e+06 1.67543e+06 0 -4.57598e+06 1.55997e+06 0 -4.84165e+06 1.41879e+06 0 -5.1488e+06 1.24536e+06 0 -5.50757e+06 1.03105e+06 0 -1.54489e+06 1.7043e+06 0 -1.55757e+06 1.71906e+06 0 -1.57048e+06 1.73375e+06 0 -1.58363e+06 1.74838e+06 0 -1.59704e+06 1.76293e+06 0 -1.61071e+06 1.77741e+06 0 -1.62466e+06 1.7918e+06 0 -1.6389e+06 1.80611e+06 0 -1.65346e+06 1.82032e+06 0 -1.66834e+06 1.83443e+06 0 -1.68357e+06 1.84844e+06 0 -1.69916e+06 1.86233e+06 0 -1.71514e+06 1.8761e+06 0 -1.73152e+06 1.88974e+06 0 -1.74834e+06 1.90325e+06 0 -1.7656e+06 1.91662e+06 0 -1.78335e+06 1.92984e+06 0 -1.80161e+06 1.9429e+06 0 -1.82041e+06 1.9558e+06 0 -1.83978e+06 1.96852e+06 0 -1.85976e+06 1.98106e+06 0 -1.88039e+06 1.9934e+06 0 -1.9017e+06 2.00553e+06 0 -1.92373e+06 2.01745e+06 0 -1.94654e+06 2.02914e+06 0 -1.97017e+06 2.0406e+06 0 -1.99467e+06 2.05179e+06 0 -2.0201e+06 2.06272e+06 0 -2.04653e+06 2.07335e+06 0 -2.07401e+06 2.08368e+06 0 -2.10262e+06 2.09369e+06 0 -2.13243e+06 2.10334e+06 0 -2.16353e+06 2.11261e+06 0 -2.19601e+06 2.12148e+06 0 -2.22996e+06 2.1299e+06 0 -2.26549e+06 2.13785e+06 0 -2.30273e+06 2.14526e+06 0 -2.34179e+06 2.15209e+06 0 -2.38283e+06 2.15828e+06 0 -2.426e+06 2.16376e+06 0 -2.47147e+06 2.16843e+06 0 -2.51945e+06 2.17221e+06 0 -2.57015e+06 2.17496e+06 0 -2.62383e+06 2.17656e+06 0 -2.68076e+06 2.17684e+06 0 -2.74128e+06 2.1756e+06 0 -2.80574e+06 2.17262e+06 0 -2.8746e+06 2.16761e+06 0 -2.94833e+06 2.16024e+06 0 -3.02753e+06 2.15012e+06 0 -3.11287e+06 2.13678e+06 0 -3.20519e+06 2.11965e+06 0 -3.30543e+06 2.09804e+06 0 -3.41477e+06 2.07113e+06 0 -3.53459e+06 2.0379e+06 0 -3.66658e+06 1.99715e+06 0 -3.8128e+06 1.94736e+06 0 -3.97576e+06 1.8867e+06 0 -4.15858e+06 1.81284e+06 0 -4.36511e+06 1.72292e+06 0 -4.60018e+06 1.61322e+06 0 -4.86991e+06 1.47903e+06 0 -5.18197e+06 1.31413e+06 0 -5.5468e+06 1.11034e+06 0 -1.53959e+06 1.71438e+06 0 -1.55237e+06 1.7291e+06 0 -1.56538e+06 1.74376e+06 0 -1.57864e+06 1.75836e+06 0 -1.59215e+06 1.77289e+06 0 -1.60593e+06 1.78735e+06 0 -1.62e+06 1.80173e+06 0 -1.63436e+06 1.81602e+06 0 -1.64903e+06 1.83023e+06 0 -1.66404e+06 1.84434e+06 0 -1.67939e+06 1.85835e+06 0 -1.69511e+06 1.87225e+06 0 -1.71121e+06 1.88604e+06 0 -1.72773e+06 1.89971e+06 0 -1.74468e+06 1.91326e+06 0 -1.76208e+06 1.92666e+06 0 -1.77997e+06 1.93993e+06 0 -1.79837e+06 1.95305e+06 0 -1.81731e+06 1.96601e+06 0 -1.83683e+06 1.9788e+06 0 -1.85696e+06 1.99142e+06 0 -1.87773e+06 2.00386e+06 0 -1.89919e+06 2.0161e+06 0 -1.92138e+06 2.02813e+06 0 -1.94435e+06 2.03995e+06 0 -1.96814e+06 2.05154e+06 0 -1.9928e+06 2.06289e+06 0 -2.0184e+06 2.07398e+06 0 -2.045e+06 2.0848e+06 0 -2.07265e+06 2.09533e+06 0 -2.10144e+06 2.10555e+06 0 -2.1