<?xml version="1.0"?> 
<VTKFile type="StructuredGrid" version="0.1"> 
<StructuredGrid WholeExtent="0 63 0 63 0 0"> 
<Piece Extent="0 63 0 63 0 0"> 
<PointData>
<DataArray type="Float32" Name="|E|" format="ascii" NumberOfComponents="3"> 
-2.25477e+06 970024 0 -2.26574e+06 993214 0 -2.27656e+06 1.01693e+06 0 -2.2872e+06 1.04119e+06 0 -2.2976e+06 1.06602e+06 0 -2.30773e+06 1.09143e+06 0 -2.3175e+06 1.11746e+06 0 -2.32686e+06 1.14411e+06 0 -2.33572e+06 1.17142e+06 0 -2.34401e+06 1.19938e+06 0 -2.35163e+06 1.22801e+06 0 -2.35846e+06 1.25733e+06 0 -2.36439e+06 1.28731e+06 0 -2.36928e+06 1.31796e+06 0 -2.373e+06 1.34924e+06 0 -2.37538e+06 1.38111e+06 0 -2.37625e+06 1.41352e+06 0 -2.37543e+06 1.44638e+06 0 -2.37272e+06 1.47958e+06 0 -2.36791e+06 1.51297e+06 0 -2.36081e+06 1.54637e+06 0 -2.35121e+06 1.57955e+06 0 -2.33892e+06 1.61223e+06 0 -2.32377e+06 1.6441e+06 0 -2.30562e+06 1.67478e+06 0 -2.2844e+06 1.70384e+06 0 -2.26005e+06 1.73082e+06 0 -2.23264e+06 1.75523e+06 0 -2.20227e+06 1.77656e+06 0 -2.16918e+06 1.79431e+06 0 -2.13367e+06 1.80799e+06 0 -2.09612e+06 1.81718e+06 0 -2.057e+06 1.82151e+06 0 -2.01683e+06 1.8207e+06 0 -1.97616e+06 1.81458e+06 0 -1.93555e+06 1.80306e+06 0 -1.89553e+06 1.78616e+06 0 -1.85663e+06 1.76396e+06 0 -1.81928e+06 1.73664e+06 0 -1.78386e+06 1.70441e+06 0 -1.75071e+06 1.66752e+06 0 -1.72005e+06 1.62623e+06 0 -1.69206e+06 1.5808e+06 0 -1.66686e+06 1.53147e+06 0 -1.64449e+06 1.47845e+06 0 -1.62498e+06 1.4219e+06 0 -1.60829e+06 1.36196e+06 0 -1.59437e+06 1.2987e+06 0 -1.58312e+06 1.23212e+06 0 -1.57445e+06 1.16217e+06 0 -1.56824e+06 1.08874e+06 0 -1.56438e+06 1.01161e+06 0 -1.56273e+06 930485 0 -1.56321e+06 844965 0 -1.56572e+06 754449 0 -1.57032e+06 658314 0 -1.5771e+06 555200 0 -1.58666e+06 444421 0 -1.60066e+06 321433 0 -1.61976e+06 189539 0 -1.65316e+06 15078.8 0 -1.7369e+06 -130047 0 -1.79117e+06 -619931 0 -3.23123e+06 -4.76837e-07 0 -2.25019e+06 972217 0 -2.26105e+06 995383 0 -2.27177e+06 1.01906e+06 0 -2.28229e+06 1.04328e+06 0 -2.29259e+06 1.06806e+06 0 -2.30259e+06 1.09341e+06 0 -2.31224e+06 1.11936e+06 0 -2.32147e+06 1.14593e+06 0 -2.33021e+06 1.17312e+06 0 -2.33837e+06 1.20096e+06 0 -2.34585e+06 1.22945e+06 0 -2.35255e+06 1.25859e+06 0 -2.35834e+06 1.28839e+06 0 -2.36311e+06 1.31881e+06 0 -2.36671e+06 1.34984e+06 0 -2.36898e+06 1.38143e+06 0 -2.36976e+06 1.41353e+06 0 -2.36886e+06 1.44603e+06 0 -2.36609e+06 1.47883e+06 0 -2.36127e+06 1.51179e+06 0 -2.35419e+06 1.54471e+06 0 -2.34467e+06 1.57737e+06 0 -2.33251e+06 1.60951e+06 0 -2.31756e+06 1.6408e+06 0 -2.2997e+06 1.67087e+06 0 -2.27884e+06 1.69932e+06 0 -2.25496e+06 1.72569e+06 0 -2.22811e+06 1.74951e+06 0 -2.19841e+06 1.77028e+06 0 -2.16608e+06 1.78752e+06 0 -2.13141e+06 1.80076e+06 0 -2.09479e+06 1.80959e+06 0 -2.05666e+06 1.81366e+06 0 -2.01753e+06 1.8127e+06 0 -1.97792e+06 1.80654e+06 0 -1.93838e+06 1.79509e+06 0 -1.89943e+06 1.77835e+06 0 -1.86155e+06 1.75642e+06 0 -1.8252e+06 1.72945e+06 0 -1.79074e+06 1.69763e+06 0 -1.75848e+06 1.66122e+06 0 -1.72867e+06 1.62044e+06 0 -1.70149e+06 1.57556e+06 0 -1.67704e+06 1.52679e+06 0 -1.6554e+06 1.47433e+06 0 -1.63658e+06 1.41835e+06 0 -1.62056e+06 1.35897e+06 0 -1.6073e+06 1.29625e+06 0 -1.59672e+06 1.2302e+06 0 -1.58873e+06 1.16076e+06 0 -1.58324e+06 1.08781e+06 0 -1.58014e+06 1.01115e+06 0 -1.57934e+06 930464 0 -1.58074e+06 845362 0 -1.58433e+06 755293 0 -1.5901e+06 659537 0 -1.59849e+06 557116 0 -1.60952e+06 446569 0 -1.62666e+06 326013 0 -1.64673e+06 192182 0 -1.69349e+06 34014.5 0 -1.75761e+06 -133628 0 -1.93795e+06 -459087 0 -2.85862e+06 -1.86265e-07 0 -2.24561e+06 974390 0 -2.25637e+06 997531 0 -2.26698e+06 1.02118e+06 0 -2.2774e+06 1.04536e+06 0 -2.28758e+06 1.07008e+06 0 -2.29747e+06 1.09537e+06 0 -2.307e+06 1.12124e+06 0 -2.31611e+06 1.14771e+06 0 -2.32472e+06 1.1748e+06 0 -2.33275e+06 1.20251e+06 0 -2.3401e+06 1.23086e+06 0 -2.34667e+06 1.25984e+06 0 -2.35234e+06 1.28944e+06 0 -2.35699e+06 1.31964e+06 0 -2.36047e+06 1.35042e+06 0 -2.36264e+06 1.38174e+06 0 -2.36333e+06 1.41351e+06 0 -2.36236e+06 1.44567e+06 0 -2.35955e+06 1.47808e+06 0 -2.35472e+06 1.51061e+06 0 -2.34768e+06 1.54306e+06 0 -2.33823e+06 1.57523e+06 0 -2.32621e+06 1.60683e+06 0 -2.31147e+06 1.63755e+06 0 -2.2939e+06 1.66704e+06 0 -2.27341e+06 1.69489e+06 0 -2.24999e+06 1.72067e+06 0 -2.22369e+06 1.74391e+06 0 -2.19465e+06 1.76414e+06 0 -2.16306e+06 1.78088e+06 0 -2.12923e+06 1.7937e+06 0 -2.09352e+06 1.80219e+06 0 -2.05636e+06 1.80601e+06 0 -2.01825e+06 1.80491e+06 0 -1.97968e+06 1.79871e+06 0 -1.94119e+06 1.78732e+06 0 -1.90328e+06 1.77075e+06 0 -1.86642e+06 1.74908e+06 0 -1.83105e+06 1.72245e+06 0 -1.79752e+06 1.69105e+06 0 -1.76616e+06 1.65509e+06 0 -1.73719e+06 1.61482e+06 0 -1.7108e+06 1.57047e+06 0 -1.68711e+06 1.52225e+06 0 -1.66619e+06 1.47036e+06 0 -1.64806e+06 1.41494e+06 0 -1.63271e+06 1.35612e+06 0 -1.62012e+06 1.29394e+06 0 -1.61021e+06 1.22842e+06 0 -1.60291e+06 1.15949e+06 0 -1.59815e+06 1.08703e+06 0 -1.59582e+06 1.01084e+06 0 -1.59585e+06 930618 0 -1.59819e+06 845962 0 -1.60283e+06 756349 0 -1.60983e+06 661066 0 -1.61962e+06 559248 0 -1.63251e+06 449398 0 -1.65159e+06 330374 0 -1.67525e+06 197653 0 -1.7264e+06 48784.4 0 -1.792e+06 -120474 0 -2.0139e+06 -341561 0 -2.61709e+06 7.89762e-07 0 -2.24103e+06 976544 0 -2.25169e+06 999659 0 -2.2622e+06 1.02327e+06 0 -2.27252e+06 1.04741e+06 0 -2.28259e+06 1.07207e+06 0 -2.29236e+06 1.0973e+06 0 -2.30177e+06 1.12309e+06 0 -2.31076e+06 1.14947e+06 0 -2.31925e+06 1.17646e+06 0 -2.32716e+06 1.20404e+06 0 -2.33438e+06 1.23224e+06 0 -2.34083e+06 1.26105e+06 0 -2.34638e+06 1.29046e+06 0 -2.35091e+06 1.32045e+06 0 -2.35429e+06 1.35099e+06 0 -2.35636e+06 1.38202e+06 0 -2.35696e+06 1.41348e+06 0 -2.35594e+06 1.44529e+06 0 -2.3531e+06 1.47732e+06 0 -2.34826e+06 1.50943e+06 0 -2.34126e+06 1.54143e+06 0 -2.3319e+06 1.5731e+06 0 -2.32003e+06 1.60417e+06 0 -2.3055e+06 1.63435e+06 0 -2.28821e+06 1.66327e+06 0 -2.26809e+06 1.69054e+06 0 -2.24513e+06 1.71575e+06 0 -2.21939e+06 1.73843e+06 0 -2.19099e+06 1.75814e+06 0 -2.16014e+06 1.77441e+06 0 -2.12713e+06 1.78682e+06 0 -2.09231e+06 1.79498e+06 0 -2.0561e+06 1.79857e+06 0 -2.01898e+06 1.79733e+06 0 -1.98144e+06 1.79109e+06 0 -1.94397e+06 1.77977e+06 0 -1.90708e+06 1.76336e+06 0 -1.87122e+06 1.74194e+06 0 -1.83682e+06 1.71564e+06 0 -1.80422e+06 1.68464e+06 0 -1.77374e+06 1.64914e+06 0 -1.74561e+06 1.60937e+06 0 -1.72001e+06 1.56554e+06 0 -1.69707e+06 1.51787e+06 0 -1.67687e+06 1.46653e+06 0 -1.65943e+06 1.41167e+06 0 -1.64476e+06 1.35339e+06 0 -1.63283e+06 1.29176e+06 0 -1.6236e+06 1.22677e+06 0 -1.617e+06 1.15836e+06 0 -1.61295e+06 1.08641e+06 0 -1.6114e+06 1.0107e+06 0 -1.61228e+06 930948 0 -1.61555e+06 846761 0 -1.62123e+06 757626 0 -1.62946e+06 662867 0 -1.64061e+06 561664 0 -1.65533e+06 452689 0 -1.67609e+06 334985 0 -1.70354e+06 204570 0 -1.75618e+06 62216.1 0 -1.82868e+06 -99383.4 0 -2.05192e+06 -253834 0 -2.45707e+06 -1.05798e-06 0 -2.23646e+06 978679 0 -2.24703e+06 1.00177e+06 0 -2.25743e+06 1.02535e+06 0 -2.26764e+06 1.04943e+06 0 -2.2776e+06 1.07405e+06 0 -2.28726e+06 1.09921e+06 0 -2.29656e+06 1.12492e+06 0 -2.30544e+06 1.15121e+06 0 -2.31381e+06 1.17809e+06 0 -2.32159e+06 1.20555e+06 0 -2.3287e+06 1.2336e+06 0 -2.33502e+06 1.26224e+06 0 -2.34046e+06 1.29146e+06 0 -2.34488e+06 1.32124e+06 0 -2.34816e+06 1.35153e+06 0 -2.35014e+06 1.38229e+06 0 -2.35067e+06 1.41344e+06 0 -2.34958e+06 1.44491e+06 0 -2.34672e+06 1.47656e+06 0 -2.34189e+06 1.50825e+06 0 -2.33493e+06 1.53981e+06 0 -2.32566e+06 1.57099e+06 0 -2.31394e+06 1.60156e+06 0 -2.29963e+06 1.6312e+06 0 -2.28263e+06 1.65956e+06 0 -2.26288e+06 1.68628e+06 0 -2.24038e+06 1.71092e+06 0 -2.21519e+06 1.73307e+06 0 -2.18743e+06 1.75227e+06 0 -2.1573e+06 1.76809e+06 0 -2.1251e+06 1.7801e+06 0 -2.09115e+06 1.78795e+06 0 -2.05588e+06 1.79131e+06 0 -2.01973e+06 1.78994e+06 0 -1.98319e+06 1.78367e+06 0 -1.94673e+06 1.77242e+06 0 -1.91085e+06 1.75617e+06 0 -1.87597e+06 1.735e+06 0 -1.84252e+06 1.70903e+06 0 -1.81084e+06 1.67841e+06 0 -1.78123e+06 1.64336e+06 0 -1.75393e+06 1.60407e+06 0 -1.72912e+06 1.56076e+06 0 -1.70693e+06 1.51362e+06 0 -1.68744e+06 1.46283e+06 0 -1.67069e+06 1.40853e+06 0 -1.6567e+06 1.3508e+06 0 -1.64544e+06 1.28972e+06 0 -1.63688e+06 1.22526e+06 0 -1.63098e+06 1.15737e+06 0 -1.62766e+06 1.08593e+06 0 -1.62689e+06 1.01072e+06 0 -1.62861e+06 931455 0 -1.63281e+06 847757 0 -1.63954e+06 759127 0 -1.64896e+06 664927 0 -1.66147e+06 564380 0 -1.67791e+06 456363 0 -1.70032e+06 339980 0 -1.73105e+06 212341 0 -1.78437e+06 75345.7 0 -1.86315e+06 -74925.9 0 -2.06994e+06 -187484 0 -2.34927e+06 6.4075e-07 0 -2.23189e+06 980795 0 -2.24236e+06 1.00386e+06 0 -2.25267e+06 1.0274e+06 0 -2.26278e+06 1.05144e+06 0 -2.27263e+06 1.076e+06 0 -2.28219e+06 1.10109e+06 0 -2.29137e+06 1.12673e+06 0 -2.30013e+06 1.15293e+06 0 -2.30838e+06 1.17969e+06 0 -2.31605e+06 1.20703e+06 0 -2.32304e+06 1.23494e+06 0 -2.32926e+06 1.26341e+06 0 -2.33458e+06 1.29244e+06 0 -2.3389e+06 1.322e+06 0 -2.34208e+06 1.35205e+06 0 -2.34397e+06 1.38254e+06 0 -2.34443e+06 1.41339e+06 0 -2.3433e+06 1.44452e+06 0 -2.34042e+06 1.4758e+06 0 -2.3356e+06 1.50709e+06 0 -2.32869e+06 1.5382e+06 0 -2.31953e+06 1.56892e+06 0 -2.30797e+06 1.59898e+06 0 -2.29388e+06 1.62809e+06 0 -2.27717e+06 1.65592e+06 0 -2.25779e+06 1.68209e+06 0 -2.23575e+06 1.7062e+06 0 -2.21109e+06 1.72783e+06 0 -2.18396e+06 1.74654e+06 0 -2.15455e+06 1.76192e+06 0 -2.12314e+06 1.77356e+06 0 -2.09005e+06 1.7811e+06 0 -2.0557e+06 1.78424e+06 0 -2.0205e+06 1.78275e+06 0 -1.98494e+06 1.77645e+06 0 -1.94947e+06 1.76526e+06 0 -1.91457e+06 1.74918e+06 0 -1.88066e+06 1.72825e+06 0 -1.84815e+06 1.70259e+06 0 -1.81737e+06 1.67236e+06 0 -1.78862e+06 1.63774e+06 0 -1.76214e+06 1.59894e+06 0 -1.73811e+06 1.55614e+06 0 -1.71667e+06 1.50953e+06 0 -1.69789e+06 1.45928e+06 0 -1.68184e+06 1.40552e+06 0 -1.66852e+06 1.34835e+06 0 -1.65794e+06 1.28781e+06 0 -1.65006e+06 1.22389e+06 0 -1.64485e+06 1.15653e+06 0 -1.64227e+06 1.0856e+06 0 -1.64227e+06 1.0109e+06 0 -1.64484e+06 932139 0 -1.64997e+06 848951 0 -1.65774e+06 760851 0 -1.66834e+06 667240 0 -1.68219e+06 567393 0 -1.70023e+06 460377 0 -1.72428e+06 345390 0 -1.75765e+06 220640 0 -1.81144e+06 88566.3 0 -1.89395e+06 -49826.8 0 -2.078e+06 -136499 0 -2.27567e+06 -2.08616e-07 0 -2.22733e+06 982892 0 -2.23771e+06 1.00592e+06 0 -2.24792e+06 1.02943e+06 0 -2.25792e+06 1.05343e+06 0 -2.26768e+06 1.07793e+06 0 -2.27712e+06 1.10296e+06 0 -2.2862e+06 1.12852e+06 0 -2.29484e+06 1.15462e+06 0 -2.30299e+06 1.18128e+06 0 -2.31054e+06 1.20849e+06 0 -2.31742e+06 1.23625e+06 0 -2.32352e+06 1.26456e+06 0 -2.32874e+06 1.2934e+06 0 -2.33296e+06 1.32275e+06 0 -2.33605e+06 1.35255e+06 0 -2.33786e+06 1.38277e+06 0 -2.33826e+06 1.41332e+06 0 -2.33709e+06 1.44412e+06 0 -2.33419e+06 1.47504e+06 0 -2.3294e+06 1.50593e+06 0 -2.32255e+06 1.53661e+06 0 -2.31349e+06 1.56686e+06 0 -2.30209e+06 1.59644e+06 0 -2.28822e+06 1.62505e+06 0 -2.27181e+06 1.65235e+06 0 -2.25281e+06 1.67799e+06 0 -2.23121e+06 1.70158e+06 0 -2.2071e+06 1.7227e+06 0 -2.18059e+06 1.74094e+06 0 -2.15188e+06 1.7559e+06 0 -2.12124e+06 1.76717e+06 0 -2.089e+06 1.77443e+06 0 -2.05554e+06 1.77736e+06 0 -2.02129e+06 1.77575e+06 0 -1.98668e+06 1.76943e+06 0 -1.95219e+06 1.75831e+06 0 -1.91825e+06 1.74238e+06 0 -1.8853e+06 1.72169e+06 0 -1.8537e+06 1.69634e+06 0 -1.82382e+06 1.66649e+06 0 -1.79592e+06 1.6323e+06 0 -1.77026e+06 1.59396e+06 0 -1.74701e+06 1.55166e+06 0 -1.7263e+06 1.50558e+06 0 -1.70824e+06 1.45587e+06 0 -1.69288e+06 1.40266e+06 0 -1.68024e+06 1.34603e+06 0 -1.67033e+06 1.28603e+06 0 -1.66313e+06 1.22265e+06 0 -1.65862e+06 1.15582e+06 0 -1.65677e+06 1.08542e+06 0 -1.65755e+06 1.01124e+06 0 -1.66096e+06 933001 0 -1.66702e+06 850340 0 -1.67583e+06 762794 0 -1.68759e+06 669801 0 -1.70275e+06 570693 0 -1.72229e+06 464706 0 -1.74793e+06 351188 0 -1.78336e+06 229291 0 -1.83751e+06 101905 0 -1.92107e+06 -25521 0 -2.08157e+06 -96746.7 0 -2.22512e+06 8.19564e-07 0 -2.22278e+06 984971 0 -2.23306e+06 1.00797e+06 0 -2.24317e+06 1.03144e+06 0 -2.25308e+06 1.0554e+06 0 -2.26273e+06 1.07984e+06 0 -2.27207e+06 1.1048e+06 0 -2.28104e+06 1.13028e+06 0 -2.28958e+06 1.15629e+06 0 -2.29761e+06 1.18284e+06 0 -2.30506e+06 1.20992e+06 0 -2.31183e+06 1.23754e+06 0 -2.31782e+06 1.26569e+06 0 -2.32294e+06 1.29434e+06 0 -2.32706e+06 1.32347e+06 0 -2.33007e+06 1.35304e+06 0 -2.33181e+06 1.38299e+06 0 -2.33216e+06 1.41325e+06 0 -2.33095e+06 1.44372e+06 0 -2.32804e+06 1.47427e+06 0 -2.32328e+06 1.50477e+06 0 -2.31649e+06 1.53503e+06 0 -2.30755e+06 1.56484e+06 0 -2.29631e+06 1.59394e+06 0 -2.28267e+06 1.62205e+06 0 -2.26656e+06 1.64884e+06 0 -2.24792e+06 1.67397e+06 0 -2.22678e+06 1.69705e+06 0 -2.2032e+06 1.71769e+06 0 -2.1773e+06 1.73548e+06 0 -2.14929e+06 1.75003e+06 0 -2.11941e+06 1.76095e+06 0 -2.088e+06 1.76793e+06 0 -2.05542e+06 1.77067e+06 0 -2.02208e+06 1.76894e+06 0 -1.98842e+06 1.76259e+06 0 -1.95488e+06 1.75154e+06 0 -1.9219e+06 1.73577e+06 0 -1.88988e+06 1.71531e+06 0 -1.8592e+06 1.69027e+06 0 -1.83019e+06 1.66079e+06 0 -1.80314e+06 1.62702e+06 0 -1.77828e+06 1.58914e+06 0 -1.7558e+06 1.54734e+06 0 -1.73584e+06 1.50178e+06 0 -1.71848e+06 1.4526e+06 0 -1.70381e+06 1.39993e+06 0 -1.69185e+06 1.34385e+06 0 -1.68261e+06 1.28439e+06 0 -1.6761e+06 1.22155e+06 0 -1.67228e+06 1.15526e+06 0 -1.67117e+06 1.08539e+06 0 -1.67273e+06 1.01174e+06 0 -1.67698e+06 934038 0 -1.68397e+06 851924 0 -1.6938e+06 764956 0 -1.7067e+06 672606 0 -1.72314e+06 574271 0 -1.74409e+06 469333 0 -1.77124e+06 357332 0 -1.80827e+06 238187 0 -1.86256e+06 115257 0 -1.945e+06 -2729.07 0 -2.08366e+06 -65298.4 0 -2.19053e+06 -9.53674e-07 0 -2.21822e+06 987032 0 -2.22841e+06 1.01001e+06 0 -2.23844e+06 1.03344e+06 0 -2.24824e+06 1.05734e+06 0 -2.2578e+06 1.08174e+06 0 -2.26703e+06 1.10663e+06 0 -2.2759e+06 1.13202e+06 0 -2.28433e+06 1.15794e+06 0 -2.29226e+06 1.18438e+06 0 -2.2996e+06 1.21134e+06 0 -2.30627e+06 1.23881e+06 0 -2.31216e+06 1.26679e+06 0 -2.31718e+06 1.29526e+06 0 -2.32122e+06 1.32418e+06 0 -2.32414e+06 1.35351e+06 0 -2.32582e+06 1.3832e+06 0 -2.32611e+06 1.41317e+06 0 -2.32488e+06 1.44331e+06 0 -2.32197e+06 1.47351e+06 0 -2.31723e+06 1.50363e+06 0 -2.31052e+06 1.53347e+06 0 -2.3017e+06 1.56284e+06 0 -2.29063e+06 1.59147e+06 0 -2.27722e+06 1.6191e+06 0 -2.26141e+06 1.6454e+06 0 -2.24314e+06 1.67004e+06 0 -2.22245e+06 1.69263e+06 0 -2.19939e+06 1.71279e+06 0 -2.1741e+06 1.73015e+06 0 -2.14677e+06 1.7443e+06 0 -2.11764e+06 1.75489e+06 0 -2.08705e+06 1.7616e+06 0 -2.05533e+06 1.76415e+06 0 -2.02289e+06 1.76232e+06 0 -1.99016e+06 1.75595e+06 0 -1.95756e+06 1.74497e+06 0 -1.9255e+06 1.72935e+06 0 -1.8944e+06 1.70912e+06 0 -1.86462e+06 1.68438e+06 0 -1.83648e+06 1.65526e+06 0 -1.81026e+06 1.6219e+06 0 -1.78621e+06 1.58448e+06 0 -1.76449e+06 1.54317e+06 0 -1.74526e+06 1.49812e+06 0 -1.72862e+06 1.44947e+06 0 -1.71463e+06 1.39733e+06 0 -1.70335e+06 1.3418e+06 0 -1.69479e+06 1.28289e+06 0 -1.68895e+06 1.22059e+06 0 -1.68584e+06 1.15485e+06 0 -1.68546e+06 1.08552e+06 0 -1.6878e+06 1.01241e+06 0 -1.6929e+06 935252 0 -1.7008e+06 853702 0 -1.71164e+06 767332 0 -1.72567e+06 675649 0 -1.74336e+06 578114 0 -1.76565e+06 474239 0 -1.79418e+06 363775 0 -1.83245e+06 247247 0 -1.88663e+06 128483 0 -1.96643e+06 18256.8 0 -2.08584e+06 -40068.7 0 -2.16729e+06 9.23872e-07 0 -2.21368e+06 989075 0 -2.22378e+06 1.01202e+06 0 -2.23371e+06 1.03541e+06 0 -2.24342e+06 1.05927e+06 0 -2.25287e+06 1.08361e+06 0 -2.26201e+06 1.10843e+06 0 -2.27078e+06 1.13375e+06 0 -2.27911e+06 1.15957e+06 0 -2.28693e+06 1.1859e+06 0 -2.29417e+06 1.21273e+06 0 -2.30073e+06 1.24006e+06 0 -2.30653e+06 1.26788e+06 0 -2.31146e+06 1.29616e+06 0 -2.31541e+06 1.32487e+06 0 -2.31826e+06 1.35397e+06 0 -2.31988e+06 1.3834e+06 0 -2.32013e+06 1.41308e+06 0 -2.31887e+06 1.4429e+06 0 -2.31597e+06 1.47276e+06 0 -2.31127e+06 1.5025e+06 0 -2.30464e+06 1.53194e+06 0 -2.29593e+06 1.56087e+06 0 -2.28504e+06 1.58905e+06 0 -2.27187e+06 1.61621e+06 0 -2.25635e+06 1.64203e+06 0 -2.23846e+06 1.66618e+06 0 -2.21821e+06 1.6883e+06 0 -2.19567e+06 1.70801e+06 0 -2.17098e+06 1.72494e+06 0 -2.14432e+06 1.73871e+06 0 -2.11594e+06 1.74898e+06 0 -2.08614e+06 1.75544e+06 0 -2.05527e+06 1.7578e+06 0 -2.02372e+06 1.75587e+06 0 -1.99189e+06 1.74949e+06 0 -1.96021e+06 1.73858e+06 0 -1.92907e+06 1.72311e+06 0 -1.89887e+06 1.70311e+06 0 -1.86998e+06 1.67867e+06 0 -1.84269e+06 1.6499e+06 0 -1.8173e+06 1.61695e+06 0 -1.79404e+06 1.57998e+06 0 -1.77308e+06 1.53915e+06 0 -1.75458e+06 1.4946e+06 0 -1.73865e+06 1.44647e+06 0 -1.72535e+06 1.39488e+06 0 -1.71474e+06 1.33988e+06 0 -1.70685e+06 1.28152e+06 0 -1.7017e+06 1.21977e+06 0 -1.69929e+06 1.15457e+06 0 -1.69964e+06 1.08579e+06 0 -1.70276e+06 1.01324e+06 0 -1.7087e+06 936641 0 -1.71752e+06 855672 0 -1.72937e+06 769921 0 -1.7445e+06 678926 0 -1.7634e+06 582212 0 -1.78695e+06 479408 0 -1.81675e+06 370474 0 -1.85596e+06 256410 0 -1.90977e+06 141455 0 -1.98597e+06 37383.2 0 -2.0889e+06 -19550.7 0 -2.15238e+06 -3.8743e-07 0 -2.20913e+06 991101 0 -2.21915e+06 1.01401e+06 0 -2.22899e+06 1.03737e+06 0 -2.23861e+06 1.06118e+06 0 -2.24796e+06 1.08546e+06 0 -2.25701e+06 1.11021e+06 0 -2.26567e+06 1.13545e+06 0 -2.2739e+06 1.16118e+06 0 -2.28163e+06 1.1874e+06 0 -2.28877e+06 1.2141e+06 0 -2.29523e+06 1.24129e+06 0 -2.30094e+06 1.26895e+06 0 -2.30578e+06 1.29704e+06 0 -2.30965e+06 1.32555e+06 0 -2.31243e+06 1.35442e+06 0 -2.31399e+06 1.38359e+06 0 -2.3142e+06 1.41298e+06 0 -2.31294e+06 1.44249e+06 0 -2.31004e+06 1.47201e+06 0 -2.30539e+06 1.50138e+06 0 -2.29883e+06 1.53042e+06 0 -2.29026e+06 1.55893e+06 0 -2.27955e+06 1.58667e+06 0 -2.26661e+06 1.61337e+06 0 -2.25139e+06 1.63872e+06 0 -2.23387e+06 1.66241e+06 0 -2.21406e+06 1.68406e+06 0 -2.19204e+06 1.70334e+06 0 -2.16794e+06 1.71986e+06 0 -2.14194e+06 1.73327e+06 0 -2.11428e+06 1.74323e+06 0 -2.08527e+06 1.74944e+06 0 -2.05523e+06 1.75163e+06 0 -2.02455e+06 1.74961e+06 0 -1.99362e+06 1.74322e+06 0 -1.96283e+06 1.73237e+06 0 -1.9326e+06 1.71705e+06 0 -1.9033e+06 1.69728e+06 0 -1.87527e+06 1.67312e+06 0 -1.84883e+06 1.64471e+06 0 -1.82426e+06 1.61216e+06 0 -1.80178e+06 1.57563e+06 0 -1.78158e+06 1.53527e+06 0 -1.7638e+06 1.49123e+06 0 -1.74857e+06 1.44362e+06 0 -1.73596e+06 1.39256e+06 0 -1.72602e+06 1.3381e+06 0 -1.7188e+06 1.28028e+06 0 -1.71433e+06 1.21909e+06 0 -1.71263e+06 1.15444e+06 0 -1.71371e+06 1.08622e+06 0 -1.71761e+06 1.01422e+06 0 -1.72438e+06 938205 0 -1.73411e+06 857834 0 -1.74696e+06 772719 0 -1.76318e+06 682432 0 -1.78325e+06 586556 0 -1.80801e+06 484824 0 -1.83896e+06 377391 0 -1.87889e+06 265623 0 -1.93206e+06 154073 0 -2.00418e+06 54726.5 0 -2.09322e+06 -2643.63 0 -2.14371e+06 8.64267e-07 0 -2.2046e+06 993110 0 -2.21452e+06 1.01599e+06 0 -2.22427e+06 1.03931e+06 0 -2.2338e+06 1.06307e+06 0 -2.24307e+06 1.08729e+06 0 -2.25201e+06 1.11197e+06 0 -2.26059e+06 1.13713e+06 0 -2.26872e+06 1.16276e+06 0 -2.27635e+06 1.18887e+06 0 -2.28339e+06 1.21546e+06 0 -2.28976e+06 1.2425e+06 0 -2.29538e+06 1.27e+06 0 -2.30014e+06 1.29791e+06 0 -2.30393e+06 1.32621e+06 0 -2.30665e+06 1.35485e+06 0 -2.30816e+06 1.38377e+06 0 -2.30834e+06 1.41288e+06 0 -2.30706e+06 1.44208e+06 0 -2.30418e+06 1.47126e+06 0 -2.29958e+06 1.50027e+06 0 -2.29311e+06 1.52892e+06 0 -2.28467e+06 1.55702e+06 0 -2.27414e+06 1.58433e+06 0 -2.26144e+06 1.61058e+06 0 -2.24653e+06 1.63548e+06 0 -2.22937e+06 1.65871e+06 0 -2.21e+06 1.67993e+06 0 -2.18849e+06 1.69877e+06 0 -2.16497e+06 1.7149e+06 0 -2.13963e+06 1.72796e+06 0 -2.11269e+06 1.73762e+06 0 -2.08444e+06 1.7436e+06 0 -2.05522e+06 1.74563e+06 0 -2.02539e+06 1.74352e+06 0 -1.99534e+06 1.73712e+06 0 -1.96544e+06 1.72635e+06 0 -1.93609e+06 1.71117e+06 0 -1.90767e+06 1.69162e+06 0 -1.8805e+06 1.66775e+06 0 -1.85489e+06 1.63968e+06 0 -1.83113e+06 1.60753e+06 0 -1.80942e+06 1.57143e+06 0 -1.78997e+06 1.53154e+06 0 -1.77292e+06 1.48799e+06 0 -1.75839e+06 1.4409e+06 0 -1.74646e+06 1.39037e+06 0 -1.73719e+06 1.33645e+06 0 -1.73065e+06 1.27918e+06 0 -1.72686e+06 1.21854e+06 0 -1.72585e+06 1.15445e+06 0 -1.72766e+06 1.08679e+06 0 -1.73234e+06 1.01537e+06 0 -1.73995e+06 939943 0 -1.75058e+06 860185 0 -1.76441e+06 775724 0 -1.7817e+06 686162 0 -1.80291e+06 591135 0 -1.82883e+06 490471 0 -1.86081e+06 384494 0 -1.90127e+06 274844 0 -1.9536e+06 166272 0 -2.02149e+06 70427.3 0 -2.09893e+06 11466.8 0 -2.13986e+06 -1.16229e-06 0 -2.20007e+06 995101 0 -2.20991e+06 1.01795e+06 0 -2.21957e+06 1.04123e+06 0 -2.22901e+06 1.06494e+06 0 -2.23818e+06 1.0891e+06 0 -2.24704e+06 1.11372e+06 0 -2.25552e+06 1.13879e+06 0 -2.26356e+06 1.16433e+06 0 -2.27109e+06 1.19033e+06 0 -2.27804e+06 1.21679e+06 0 -2.28432e+06 1.2437e+06 0 -2.28986e+06 1.27103e+06 0 -2.29454e+06 1.29876e+06 0 -2.29826e+06 1.32686e+06 0 -2.30091e+06 1.35527e+06 0 -2.30238e+06 1.38394e+06 0 -2.30253e+06 1.41277e+06 0 -2.30125e+06 1.44167e+06 0 -2.2984e+06 1.47052e+06 0 -2.29384e+06 1.49917e+06 0 -2.28747e+06 1.52745e+06 0 -2.27916e+06 1.55515e+06 0 -2.26882e+06 1.58203e+06 0 -2.25636e+06 1.60785e+06 0 -2.24175e+06 1.63231e+06 0 -2.22496e+06 1.6551e+06 0 -2.20603e+06 1.67588e+06 0 -2.18503e+06 1.69432e+06 0 -2.16208e+06 1.71007e+06 0 -2.13738e+06 1.72279e+06 0 -2.11114e+06 1.73217e+06 0 -2.08366e+06 1.73792e+06 0 -2.05524e+06 1.73979e+06 0 -2.02625e+06 1.7376e+06 0 -1.99705e+06 1.73119e+06 0 -1.96802e+06 1.72049e+06 0 -1.93955e+06 1.70547e+06 0 -1.91198e+06 1.68613e+06 0 -1.88566e+06 1.66255e+06 0 -1.86088e+06 1.63482e+06 0 -1.83791e+06 1.60305e+06 0 -1.81698e+06 1.56739e+06 0 -1.79827e+06 1.52796e+06 0 -1.78194e+06 1.4849e+06 0 -1.7681e+06 1.43833e+06 0 -1.75685e+06 1.38832e+06 0 -1.74826e+06 1.33494e+06 0 -1.74238e+06 1.27822e+06 0 -1.73927e+06 1.21813e+06 0 -1.73896e+06 1.1546e+06 0 -1.74151e+06 1.08752e+06 0 -1.74696e+06 1.01668e+06 0 -1.75539e+06 941854 0 -1.76693e+06 862723 0 -1.78173e+06 778933 0 -1.80007e+06 690110 0 -1.82239e+06 595940 0 -1.8494e+06 496333 0 -1.88233e+06 391754 0 -1.92318e+06 284039 0 -1.97452e+06 178017 0 -2.03824e+06 84652.7 0 -2.10604e+06 23390.1 0 -2.13982e+06 7.15256e-07 0 -2.19554e+06 997077 0 -2.2053e+06 1.01989e+06 0 -2.21488e+06 1.04313e+06 0 -2.22423e+06 1.0668e+06 0 -2.23331e+06 1.0909e+06 0 -2.24208e+06 1.11544e+06 0 -2.25046e+06 1.14044e+06 0 -2.25841e+06 1.16588e+06 0 -2.26585e+06 1.19178e+06 0 -2.27272e+06 1.21811e+06 0 -2.27891e+06 1.24488e+06 0 -2.28436e+06 1.27205e+06 0 -2.28897e+06 1.2996e+06 0 -2.29263e+06 1.3275e+06 0 -2.29523e+06 1.35569e+06 0 -2.29665e+06 1.3841e+06 0 -2.29679e+06 1.41266e+06 0 -2.2955e+06 1.44127e+06 0 -2.29268e+06 1.46979e+06 0 -2.28818e+06 1.49809e+06 0 -2.2819e+06 1.526e+06 0 -2.27374e+06 1.5533e+06 0 -2.26358e+06 1.57978e+06 0 -2.25137e+06 1.60518e+06 0 -2.23706e+06 1.62921e+06 0 -2.22064e+06 1.65157e+06 0 -2.20214e+06 1.67193e+06 0 -2.18164e+06 1.68997e+06 0 -2.15926e+06 1.70536e+06 0 -2.13519e+06 1.71775e+06 0 -2.10965e+06 1.72685e+06 0 -2.08291e+06 1.73239e+06 0 -2.05528e+06 1.73412e+06 0 -2.02711e+06 1.73185e+06 0 -1.99875e+06 1.72544e+06 0 -1.97059e+06 1.71482e+06 0 -1.94297e+06 1.69994e+06 0 -1.91625e+06 1.68082e+06 0 -1.89077e+06 1.65751e+06 0 -1.8668e+06 1.63011e+06 0 -1.84462e+06 1.59873e+06 0 -1.82445e+06 1.56349e+06 0 -1.80648e+06 1.52453e+06 0 -1.79085e+06 1.48196e+06 0 -1.77771e+06 1.43588e+06 0 -1.76713e+06 1.3864e+06 0 -1.75921e+06 1.33356e+06 0 -1.75401e+06 1.27739e+06 0 -1.75157e+06 1.21786e+06 0 -1.75196e+06 1.1549e+06 0 -1.75523e+06 1.08839e+06 0 -1.76145e+06 1.01815e+06 0 -1.77071e+06 943937 0 -1.78314e+06 865448 0 -1.79891e+06 782344 0 -1.81828e+06 694274 0 -1.84168e+06 600965 0 -1.86975e+06 502398 0 -1.90353e+06 399149 0 -1.94466e+06 293184 0 -1.99492e+06 189297 0 -2.0547e+06 97574.8 0 -2.11451e+06 33587.8 0 -2.14284e+06 -5.96046e-07 0 -2.19102e+06 999035 0 -2.2007e+06 1.02182e+06 0 -2.21019e+06 1.04502e+06 0 -2.21946e+06 1.06863e+06 0 -2.22846e+06 1.09268e+06 0 -2.23713e+06 1.11715e+06 0 -2.24543e+06 1.14207e+06 0 -2.25329e+06 1.16742e+06 0 -2.26064e+06 1.1932e+06 0 -2.26742e+06 1.21941e+06 0 -2.27354e+06 1.24604e+06 0 -2.27891e+06 1.27305e+06 0 -2.28344e+06 1.30043e+06 0 -2.28704e+06 1.32812e+06 0 -2.28959e+06 1.35609e+06 0 -2.29098e+06 1.38426e+06 0 -2.29109e+06 1.41255e+06 0 -2.28982e+06 1.44086e+06 0 -2.28702e+06 1.46907e+06 0 -2.28259e+06 1.49703e+06 0 -2.27642e+06 1.52457e+06 0 -2.26839e+06 1.55149e+06 0 -2.25843e+06 1.57757e+06 0 -2.24646e+06 1.60255e+06 0 -2.23245e+06 1.62617e+06 0 -2.2164e+06 1.64811e+06 0 -2.19833e+06 1.66808e+06 0 -2.17832e+06 1.68573e+06 0 -2.15651e+06 1.70076e+06 0 -2.13306e+06 1.71285e+06 0 -2.1082e+06 1.72169e+06 0 -2.08219e+06 1.72702e+06 0 -2.05534e+06 1.7286e+06 0 -2.02797e+06 1.72626e+06 0 -2.00045e+06 1.71986e+06 0 -1.97312e+06 1.70931e+06 0 -1.94635e+06 1.69457e+06 0 -1.92047e+06 1.67567e+06 0 -1.89581e+06 1.65264e+06 0 -1.87265e+06 1.62557e+06 0 -1.85125e+06 1.59457e+06 0 -1.83183e+06 1.55975e+06 0 -1.81459e+06 1.52124e+06 0 -1.79967e+06 1.47915e+06 0 -1.78721e+06 1.43358e+06 0 -1.77731e+06 1.38462e+06 0 -1.77006e+06 1.33232e+06 0 -1.76552e+06 1.27669e+06 0 -1.76376e+06 1.21772e+06 0 -1.76485e+06 1.15534e+06 0 -1.76884e+06 1.08942e+06 0 -1.77583e+06 1.01978e+06 0 -1.78591e+06 946190 0 -1.79922e+06 868358 0 -1.81594e+06 785953 0 -1.83633e+06 698647 0 -1.86078e+06 606203 0 -1.88986e+06 508654 0 -1.92445e+06 406663 0 -1.96577e+06 302262 0 -2.01493e+06 200120 0 -2.07105e+06 109360 0 -2.12424e+06 42413.5 0 -2.14839e+06 -1.19209e-07 0 -2.18651e+06 1.00098e+06 0 -2.1961e+06 1.02373e+06 0 -2.20552e+06 1.04689e+06 0 -2.2147e+06 1.07045e+06 0 -2.22361e+06 1.09444e+06 0 -2.2322e+06 1.11884e+06 0 -2.24041e+06 1.14367e+06 0 -2.24818e+06 1.16893e+06 0 -2.25545e+06 1.19461e+06 0 -2.26215e+06 1.2207e+06 0 -2.26819e+06 1.24718e+06 0 -2.27348e+06 1.27404e+06 0 -2.27795e+06 1.30124e+06 0 -2.28149e+06 1.32874e+06 0 -2.28399e+06 1.35649e+06 0 -2.28535e+06 1.38441e+06 0 -2.28546e+06 1.41244e+06 0 -2.28419e+06 1.44046e+06 0 -2.28143e+06 1.46836e+06 0 -2.27707e+06 1.49598e+06 0 -2.271e+06 1.52317e+06 0 -2.26312e+06 1.54971e+06 0 -2.25335e+06 1.5754e+06 0 -2.24163e+06 1.59998e+06 0 -2.22793e+06 1.62319e+06 0 -2.21224e+06 1.64474e+06 0 -2.1946e+06 1.66431e+06 0 -2.17508e+06 1.6816e+06 0 -2.15382e+06 1.69629e+06 0 -2.13099e+06 1.70807e+06 0 -2.1068e+06 1.71666e+06 0 -2.08151e+06 1.72179e+06 0 -2.05542e+06 1.72325e+06 0 -2.02885e+06 1.72084e+06 0 -2.00214e+06 1.71444e+06 0 -1.97564e+06 1.70397e+06 0 -1.9497e+06 1.68938e+06 0 -1.92464e+06 1.67068e+06 0 -1.90079e+06 1.64793e+06 0 -1.87842e+06 1.62118e+06 0 -1.85779e+06 1.59056e+06 0 -1.83912e+06 1.55615e+06 0 -1.8226e+06 1.51809e+06 0 -1.80839e+06 1.47648e+06 0 -1.79662e+06 1.43141e+06 0 -1.78739e+06 1.38297e+06 0 -1.7808e+06 1.3312e+06 0 -1.77692e+06 1.27613e+06 0 -1.77584e+06 1.21772e+06 0 -1.77761e+06 1.15592e+06 0 -1.78233e+06 1.09059e+06 0 -1.79008e+06 1.02156e+06 0 -1.80097e+06 948613 0 -1.81516e+06 871451 0 -1.83283e+06 789758 0 -1.85422e+06 703227 0 -1.8797e+06 611646 0 -1.90975e+06 515092 0 -1.94509e+06 414282 0 -1.98656e+06 311264 0 -2.03463e+06 210509 0 -2.08746e+06 120161 0 -2.13516e+06 50141.4 0 -2.15604e+06 -5.96046e-08 0 -2.182e+06 1.00291e+06 0 -2.19152e+06 1.02562e+06 0 -2.20085e+06 1.04874e+06 0 -2.20995e+06 1.07225e+06 0 -2.21878e+06 1.09618e+06 0 -2.22728e+06 1.12052e+06 0 -2.23541e+06 1.14527e+06 0 -2.2431e+06 1.17043e+06 0 -2.25029e+06 1.196e+06 0 -2.2569e+06 1.22197e+06 0 -2.26287e+06 1.24831e+06 0 -2.26809e+06 1.27501e+06 0 -2.2725e+06 1.30204e+06 0 -2.27598e+06 1.32934e+06 0 -2.27845e+06 1.35687e+06 0 -2.27978e+06 1.38456e+06 0 -2.27988e+06 1.41233e+06 0 -2.27862e+06 1.44007e+06 0 -2.27591e+06 1.46766e+06 0 -2.27162e+06 1.49495e+06 0 -2.26566e+06 1.52179e+06 0 -2.25793e+06 1.54797e+06 0 -2.24836e+06 1.57328e+06 0 -2.23689e+06 1.59747e+06 0 -2.22348e+06 1.62029e+06 0 -2.20816e+06 1.64144e+06 0 -2.19094e+06 1.66064e+06 0 -2.17191e+06 1.67757e+06 0 -2.1512e+06 1.69193e+06 0 -2.12897e+06 1.70342e+06 0 -2.10544e+06 1.71177e+06 0 -2.08086e+06 1.71671e+06 0 -2.05552e+06 1.71804e+06 0 -2.02973e+06 1.71558e+06 0 -2.00382e+06 1.70919e+06 0 -1.97814e+06 1.69879e+06 0 -1.95301e+06 1.68435e+06 0 -1.92877e+06 1.66586e+06 0 -1.90571e+06 1.64337e+06 0 -1.88413e+06 1.61695e+06 0 -1.86426e+06 1.58669e+06 0 -1.84633e+06 1.5527e+06 0 -1.83053e+06 1.51508e+06 0 -1.81701e+06 1.47394e+06 0 -1.80592e+06 1.42938e+06 0 -1.79736e+06 1.38145e+06 0 -1.79143e+06 1.33022e+06 0 -1.78822e+06 1.2757e+06 0 -1.7878e+06 1.21786e+06 0 -1.79026e+06 1.15664e+06 0 -1.7957e+06 1.09191e+06 0 -1.8042e+06 1.02351e+06 0 -1.81591e+06 951204 0 -1.83096e+06 874724 0 -1.84956e+06 793758 0 -1.87195e+06 708009 0 -1.89843e+06 617290 0 -1.92944e+06 521704 0 -1.96548e+06 421997 0 -2.00708e+06 320188 0 -2.05412e+06 220494 0 -2.10401e+06 130118 0 -2.14719e+06 56986.3 0 -2.1655e+06 1.78814e-07 0 -2.1775e+06 1.00482e+06 0 -2.18694e+06 1.0275e+06 0 -2.19619e+06 1.05057e+06 0 -2.20521e+06 1.07404e+06 0 -2.21396e+06 1.09791e+06 0 -2.22238e+06 1.12217e+06 0 -2.23043e+06 1.14684e+06 0 -2.23804e+06 1.17191e+06 0 -2.24515e+06 1.19737e+06 0 -2.25168e+06 1.22322e+06 0 -2.25757e+06 1.24943e+06 0 -2.26274e+06 1.27597e+06 0 -2.26708e+06 1.30282e+06 0 -2.27052e+06 1.32994e+06 0 -2.27294e+06 1.35725e+06 0 -2.27426e+06 1.38471e+06 0 -2.27435e+06 1.41222e+06 0 -2.27312e+06 1.43968e+06 0 -2.27045e+06 1.46697e+06 0 -2.26624e+06 1.49394e+06 0 -2.26039e+06 1.52044e+06 0 -2.25281e+06 1.54626e+06 0 -2.24344e+06 1.5712e+06 0 -2.23222e+06 1.59501e+06 0 -2.21912e+06 1.61745e+06 0 -2.20415e+06 1.63823e+06 0 -2.18735e+06 1.65706e+06 0 -2.16881e+06 1.67364e+06 0 -2.14864e+06 1.68769e+06 0 -2.12701e+06 1.6989e+06 0 -2.10413e+06 1.70701e+06 0 -2.08025e+06 1.71178e+06 0 -2.05564e+06 1.71299e+06 0 -2.03061e+06 1.71047e+06 0 -2.00549e+06 1.7041e+06 0 -1.98061e+06 1.69378e+06 0 -1.95629e+06 1.67948e+06 0 -1.93284e+06 1.6612e+06 0 -1.91058e+06 1.63898e+06 0 -1.88976e+06 1.61288e+06 0 -1.87065e+06 1.58298e+06 0 -1.85345e+06 1.54939e+06 0 -1.83836e+06 1.51222e+06 0 -1.82554e+06 1.47155e+06 0 -1.81512e+06 1.42748e+06 0 -1.80722e+06 1.38007e+06 0 -1.80195e+06 1.32937e+06 0 -1.79939e+06 1.2754e+06 0 -1.79964e+06 1.21813e+06 0 -1.80279e+06 1.1575e+06 0 -1.80894e+06 1.09338e+06 0 -1.8182e+06 1.02561e+06 0 -1.83071e+06 953963 0 -1.84663e+06 878177 0 -1.86615e+06 797948 0 -1.88951e+06 712991 0 -1.91699e+06 623131 0 -1.94892e+06 528485 0 -1.98565e+06 429804 0 -2.02738e+06 329039 0 -2.07347e