<?xml version="1.0"?> 
<VTKFile type="StructuredGrid" version="0.1"> 
<StructuredGrid WholeExtent="0 63 0 63 0 0"> 
<Piece Extent="0 63 0 63 0 0"> 
<PointData>
<DataArray type="Float32" Name="|E|" format="ascii" NumberOfComponents="3"> 
-1.97721e+06 1.08049e+06 0 -1.98447e+06 1.10164e+06 0 -1.9916e+06 1.12291e+06 0 -1.99856e+06 1.14427e+06 0 -2.00533e+06 1.16571e+06 0 -2.0119e+06 1.18721e+06 0 -2.01823e+06 1.20874e+06 0 -2.02431e+06 1.23029e+06 0 -2.03011e+06 1.25182e+06 0 -2.03561e+06 1.2733e+06 0 -2.04079e+06 1.2947e+06 0 -2.04561e+06 1.31597e+06 0 -2.05007e+06 1.33707e+06 0 -2.05413e+06 1.35795e+06 0 -2.05779e+06 1.37855e+06 0 -2.06102e+06 1.39881e+06 0 -2.06382e+06 1.41867e+06 0 -2.06617e+06 1.43805e+06 0 -2.06807e+06 1.45688e+06 0 -2.06953e+06 1.47507e+06 0 -2.07055e+06 1.49253e+06 0 -2.07114e+06 1.50918e+06 0 -2.07135e+06 1.52492e+06 0 -2.07118e+06 1.53966e+06 0 -2.0707e+06 1.55328e+06 0 -2.06994e+06 1.56569e+06 0 -2.06898e+06 1.57679e+06 0 -2.06788e+06 1.58647e+06 0 -2.06673e+06 1.59464e+06 0 -2.06561e+06 1.60121e+06 0 -2.06463e+06 1.60608e+06 0 -2.06391e+06 1.60917e+06 0 -2.06354e+06 1.61041e+06 0 -2.06367e+06 1.60973e+06 0 -2.06442e+06 1.60707e+06 0 -2.06591e+06 1.60238e+06 0 -2.06829e+06 1.59562e+06 0 -2.07169e+06 1.58676e+06 0 -2.07624e+06 1.57578e+06 0 -2.08209e+06 1.56267e+06 0 -2.08935e+06 1.54743e+06 0 -2.09817e+06 1.53006e+06 0 -2.10866e+06 1.51061e+06 0 -2.12095e+06 1.48908e+06 0 -2.13516e+06 1.46554e+06 0 -2.15141e+06 1.44004e+06 0 -2.16981e+06 1.41267e+06 0 -2.19049e+06 1.38354e+06 0 -2.21357e+06 1.35279e+06 0 -2.2392e+06 1.32063e+06 0 -2.26753e+06 1.28729e+06 0 -2.29878e+06 1.25313e+06 0 -2.33322e+06 1.21862e+06 0 -2.37124e+06 1.1844e+06 0 -2.41341e+06 1.15137e+06 0 -2.46065e+06 1.12077e+06 0 -2.51429e+06 1.09465e+06 0 -2.57717e+06 1.07558e+06 0 -2.65321e+06 1.06842e+06 0 -2.75024e+06 1.08197e+06 0 -2.89317e+06 1.1361e+06 0 -3.11745e+06 1.21975e+06 0 -3.52611e+06 1.85744e+06 0 -6.50956e+06 2.88148e+06 0 -1.96839e+06 1.07939e+06 0 -1.97557e+06 1.10029e+06 0 -1.98262e+06 1.12128e+06 0 -1.98952e+06 1.14237e+06 0 -1.99625e+06 1.16352e+06 0 -2.00278e+06 1.18474e+06 0 -2.0091e+06 1.20598e+06 0 -2.01519e+06 1.22724e+06 0 -2.02102e+06 1.24848e+06 0 -2.02657e+06 1.26967e+06 0 -2.03182e+06 1.29078e+06 0 -2.03674e+06 1.31177e+06 0 -2.04133e+06 1.33259e+06 0 -2.04555e+06 1.35321e+06 0 -2.0494e+06 1.37357e+06 0 -2.05286e+06 1.3936e+06 0 -2.05592e+06 1.41326e+06 0 -2.05857e+06 1.43247e+06 0 -2.0608e+06 1.45116e+06 0 -2.06263e+06 1.46926e+06 0 -2.06405e+06 1.48668e+06 0 -2.06509e+06 1.50334e+06 0 -2.06576e+06 1.51915e+06 0 -2.06609e+06 1.53402e+06 0 -2.06612e+06 1.54786e+06 0 -2.06591e+06 1.56056e+06 0 -2.06549e+06 1.57204e+06 0 -2.06495e+06 1.5822e+06 0 -2.06435e+06 1.59094e+06 0 -2.06378e+06 1.59818e+06 0 -2.06333e+06 1.60383e+06 0 -2.0631e+06 1.60781e+06 0 -2.06321e+06 1.61004e+06 0 -2.06376e+06 1.61046e+06 0 -2.06487e+06 1.60902e+06 0 -2.06668e+06 1.60564e+06 0 -2.0693e+06 1.6003e+06 0 -2.07286e+06 1.59297e+06 0 -2.07749e+06 1.5836e+06 0 -2.08333e+06 1.5722e+06 0 -2.09049e+06 1.55875e+06 0 -2.0991e+06 1.54326e+06 0 -2.10927e+06 1.52574e+06 0 -2.12114e+06 1.50622e+06 0 -2.13481e+06 1.48472e+06 0 -2.15038e+06 1.46131e+06 0 -2.16797e+06 1.43605e+06 0 -2.18769e+06 1.40904e+06 0 -2.20963e+06 1.38038e+06 0 -2.23392e+06 1.35026e+06 0 -2.26067e+06 1.31887e+06 0 -2.29003e+06 1.28651e+06 0 -2.32218e+06 1.25356e+06 0 -2.35735e+06 1.22057e+06 0 -2.39588e+06 1.18828e+06 0 -2.4383e+06 1.15774e+06 0 -2.48537e+06 1.13054e+06 0 -2.53843e+06 1.109e+06 0 -2.59997e+06 1.09697e+06 0 -2.67383e+06 1.09778e+06 0 -2.76269e+06 1.14102e+06 0 -2.92184e+06 1.17087e+06 0 -3.0144e+06 1.44376e+06 0 -3.66119e+06 2.03644e+06 0 -1.95961e+06 1.0783e+06 0 -1.9667e+06 1.09894e+06 0 -1.97368e+06 1.11967e+06 0 -1.98051e+06 1.14048e+06 0 -1.98719e+06 1.16137e+06 0 -1.99369e+06 1.1823e+06 0 -2e+06 1.20326e+06 0 -2.00608e+06 1.22423e+06 0 -2.01193e+06 1.24519e+06 0 -2.01752e+06 1.2661e+06 0 -2.02284e+06 1.28693e+06 0 -2.02786e+06 1.30764e+06 0 -2.03256e+06 1.3282e+06 0 -2.03693e+06 1.34856e+06 0 -2.04096e+06 1.36868e+06 0 -2.04463e+06 1.3885e+06 0 -2.04793e+06 1.40796e+06 0 -2.05085e+06 1.427e+06 0 -2.05339e+06 1.44556e+06 0 -2.05556e+06 1.46356e+06 0 -2.05736e+06 1.48093e+06 0 -2.0588e+06 1.49759e+06 0 -2.0599e+06 1.51346e+06 0 -2.06069e+06 1.52845e+06 0 -2.06121e+06 1.54247e+06 0 -2.06149e+06 1.55544e+06 0 -2.06159e+06 1.56727e+06 0 -2.06157e+06 1.57786e+06 0 -2.06149e+06 1.58713e+06 0 -2.06144e+06 1.59499e+06 0 -2.06149e+06 1.60137e+06 0 -2.06174e+06 1.60617e+06 0 -2.06229e+06 1.60934e+06 0 -2.06325e+06 1.61079e+06 0 -2.06472e+06 1.61049e+06 0 -2.06683e+06 1.60836e+06 0 -2.06969e+06 1.60436e+06 0 -2.07342e+06 1.59847e+06 0 -2.07814e+06 1.59064e+06 0 -2.08398e+06 1.58087e+06 0 -2.09106e+06 1.56913e+06 0 -2.09949e+06 1.55544e+06 0 -2.10939e+06 1.53978e+06 0 -2.12088e+06 1.52218e+06 0 -2.13405e+06 1.50267e+06 0 -2.14902e+06 1.48128e+06 0 -2.16588e+06 1.45807e+06 0 -2.18472e+06 1.43312e+06 0 -2.20565e+06 1.40652e+06 0 -2.22875e+06 1.3784e+06 0 -2.25412e+06 1.34895e+06 0 -2.28185e+06 1.31839e+06 0 -2.31207e+06 1.28704e+06 0 -2.3449e+06 1.25535e+06 0 -2.38054e+06 1.22392e+06 0 -2.41925e+06 1.19361e+06 0 -2.46145e+06 1.16566e+06 0 -2.50777e+06 1.14176e+06 0 -2.55903e+06 1.12573e+06 0 -2.61919e+06 1.11752e+06 0 -2.68116e+06 1.1402e+06 0 -2.78257e+06 1.17604e+06 0 -2.87254e+06 1.30299e+06 0 -2.96697e+06 1.46673e+06 0 -1.95084e+06 1.07722e+06 0 -1.95786e+06 1.0976e+06 0 -1.96476e+06 1.11807e+06 0 -1.97153e+06 1.13862e+06 0 -1.97816e+06 1.15923e+06 0 -1.98462e+06 1.17989e+06 0 -1.99091e+06 1.20058e+06 0 -1.99699e+06 1.22127e+06 0 -2.00285e+06 1.24195e+06 0 -2.00848e+06 1.26258e+06 0 -2.01385e+06 1.28314e+06 0 -2.01895e+06 1.30359e+06 0 -2.02376e+06 1.32389e+06 0 -2.02827e+06 1.344e+06 0 -2.03246e+06 1.36389e+06 0 -2.03632e+06 1.38349e+06 0 -2.03984e+06 1.40275e+06 0 -2.04302e+06 1.42163e+06 0 -2.04584e+06 1.44005e+06 0 -2.04833e+06 1.45795e+06 0 -2.05047e+06 1.47527e+06 0 -2.05229e+06 1.49192e+06 0 -2.05379e+06 1.50783e+06 0 -2.05501e+06 1.52293e+06 0 -2.05598e+06 1.53712e+06 0 -2.05673e+06 1.55033e+06 0 -2.05731e+06 1.56247e+06 0 -2.05777e+06 1.57346e+06 0 -2.05819e+06 1.58322e+06 0 -2.05861e+06 1.59166e+06 0 -2.05914e+06 1.59871e+06 0 -2.05984e+06 1.60428e+06 0 -2.06082e+06 1.60832e+06 0 -2.06216e+06 1.61075e+06 0 -2.06398e+06 1.61151e+06 0 -2.06638e+06 1.61055e+06 0 -2.06948e+06 1.60783e+06 0 -2.07338e+06 1.6033e+06 0 -2.0782e+06 1.59694e+06 0 -2.08407e+06 1.58871e+06 0 -2.09108e+06 1.57861e+06 0 -2.09936e+06 1.56663e+06 0 -2.10902e+06 1.55276e+06 0 -2.12016e+06 1.53701e+06 0 -2.13288e+06 1.51941e+06 0 -2.1473e+06 1.49998e+06 0 -2.16349e+06 1.47876e+06 0 -2.18155e+06 1.45582e+06 0 -2.20156e+06 1.43123e+06 0 -2.2236e+06 1.4051e+06 0 -2.24774e+06 1.37757e+06 0 -2.27406e+06 1.34882e+06 0 -2.30263e+06 1.31912e+06 0 -2.33352e+06 1.28881e+06 0 -2.36683e+06 1.25838e+06 0 -2.40267e+06 1.22848e+06 0 -2.4412e+06 1.20015e+06 0 -2.48279e+06 1.1745e+06 0 -2.52722e+06 1.15461e+06 0 -2.57734e+06 1.14095e+06 0 -2.62885e+06 1.14417e+06 0 -2.69028e+06 1.1647e+06 0 -2.76589e+06 1.23579e+06 0 -2.83443e+06 1.37823e+06 0 -1.9421e+06 1.07613e+06 0 -1.94903e+06 1.09626e+06 0 -1.95586e+06 1.11648e+06 0 -1.96257e+06 1.13677e+06 0 -1.96915e+06 1.15712e+06 0 -1.97558e+06 1.17751e+06 0 -1.98183e+06 1.19793e+06 0 -1.98791e+06 1.21835e+06 0 -1.99378e+06 1.23876e+06 0 -1.99944e+06 1.25912e+06 0 -2.00486e+06 1.27941e+06 0 -2.01004e+06 1.2996e+06 0 -2.01494e+06 1.31965e+06 0 -2.01957e+06 1.33952e+06 0 -2.02391e+06 1.35918e+06 0 -2.02794e+06 1.37857e+06 0 -2.03166e+06 1.39765e+06 0 -2.03507e+06 1.41636e+06 0 -2.03816e+06 1.43464e+06 0 -2.04094e+06 1.45244e+06 0 -2.0434e+06 1.4697e+06 0 -2.04556e+06 1.48633e+06 0 -2.04744e+06 1.50228e+06 0 -2.04906e+06 1.51746e+06 0 -2.05044e+06 1.5318e+06 0 -2.05162e+06 1.54523e+06 0 -2.05265e+06 1.55766e+06 0 -2.05357e+06 1.56902e+06 0 -2.05444e+06 1.57922e+06 0 -2.05532e+06 1.58819e+06 0 -2.05629e+06 1.59586e+06 0 -2.05742e+06 1.60215e+06 0 -2.0588e+06 1.607e+06 0 -2.06052e+06 1.61033e+06 0 -2.06267e+06 1.6121e+06 0 -2.06536e+06 1.61225e+06 0 -2.06869e+06 1.61072e+06 0 -2.07276e+06 1.60749e+06 0 -2.07769e+06 1.60251e+06 0 -2.08358e+06 1.59576e+06 0 -2.09055e+06 1.58721e+06 0 -2.0987e+06 1.57687e+06 0 -2.10814e+06 1.56471e+06 0 -2.11897e+06 1.55075e+06 0 -2.13129e+06 1.53498e+06 0 -2.1452e+06 1.51745e+06 0 -2.16078e+06 1.49816e+06 0 -2.17812e+06 1.47718e+06 0 -2.1973e+06 1.45456e+06 0 -2.21838e+06 1.43038e+06 0 -2.24143e+06 1.40476e+06 0 -2.26651e+06 1.37784e+06 0 -2.29365e+06 1.34982e+06 0 -2.3229e+06 1.32099e+06 0 -2.3543e+06 1.29172e+06 0 -2.38787e+06 1.2625e+06 0 -2.42361e+06 1.23416e+06 0 -2.46171e+06 1.20751e+06 0 -2.50182e+06 1.18461e+06 0 -2.54479e+06 1.16683e+06 0 -2.59006e+06 1.1592e+06 0 -2.63656e+06 1.16563e+06 0 -2.68635e+06 1.1947e+06 0 -2.73705e+06 1.27884e+06 0 -1.93339e+06 1.07505e+06 0 -1.94023e+06 1.09494e+06 0 -1.94699e+06 1.1149e+06 0 -1.95363e+06 1.13494e+06 0 -1.96016e+06 1.15503e+06 0 -1.96654e+06 1.17516e+06 0 -1.97278e+06 1.19531e+06 0 -1.97884e+06 1.21547e+06 0 -1.98472e+06 1.23561e+06 0 -1.9904e+06 1.25571e+06 0 -1.99587e+06 1.27574e+06 0 -2.0011e+06 1.29568e+06 0 -2.00609e+06 1.31548e+06 0 -2.01083e+06 1.33512e+06 0 -2.0153e+06 1.35455e+06 0 -2.0195e+06 1.37373e+06 0 -2.02341e+06 1.39262e+06 0 -2.02703e+06 1.41117e+06 0 -2.03036e+06 1.42932e+06 0 -2.0334e+06 1.44702e+06 0 -2.03615e+06 1.46421e+06 0 -2.03864e+06 1.48081e+06 0 -2.04086e+06 1.49678e+06 0 -2.04284e+06 1.51204e+06 0 -2.04461e+06 1.52651e+06 0 -2.0462e+06 1.54013e+06 0 -2.04764e+06 1.55282e+06 0 -2.04899e+06 1.56451e+06 0 -2.05029e+06 1.57513e+06 0 -2.05159e+06 1.5846e+06 0 -2.05298e+06 1.59284e+06 0 -2.05451e+06 1.5998e+06 0 -2.05627e+06 1.6054e+06 0 -2.05834e+06 1.60958e+06 0 -2.06081e+06 1.61229e+06 0 -2.06377e+06 1.61347e+06 0 -2.06733e+06 1.61307e+06 0 -2.07157e+06 1.61106e+06 0 -2.07661e+06 1.60739e+06 0 -2.08254e+06 1.60204e+06 0 -2.08948e+06 1.59498e+06 0 -2.09752e+06 1.58619e+06 0 -2.10677e+06 1.57567e+06 0 -2.11732e+06 1.56342e+06 0 -2.12927e+06 1.54943e+06 0 -2.14271e+06 1.53371e+06 0 -2.15774e+06 1.5163e+06 0 -2.17442e+06 1.49722e+06 0 -2.19283e+06 1.47652e+06 0 -2.21304e+06 1.45427e+06 0 -2.23511e+06 1.43054e+06 0 -2.25907e+06 1.40546e+06 0 -2.28496e+06 1.37917e+06 0 -2.3128e+06 1.3519e+06 0 -2.34259e+06 1.32393e+06 0 -2.37433e+06 1.29565e+06 0 -2.40793e+06 1.26764e+06 0 -2.4434e+06 1.2406e+06 0 -2.48052e+06 1.21579e+06 0 -2.51914e+06 1.19463e+06 0 -2.55916e+06 1.17968e+06 0 -2.59961e+06 1.1753e+06 0 -2.63914e+06 1.18548e+06 0 -2.67372e+06 1.22039e+06 0 -1.92469e+06 1.07397e+06 0 -1.93145e+06 1.09361e+06 0 -1.93814e+06 1.11334e+06 0 -1.94472e+06 1.13312e+06 0 -1.95119e+06 1.15296e+06 0 -1.95753e+06 1.17283e+06 0 -1.96373e+06 1.19273e+06 0 -1.96978e+06 1.21263e+06 0 -1.97566e+06 1.23251e+06 0 -1.98136e+06 1.25235e+06 0 -1.98686e+06 1.27213e+06 0 -1.99215e+06 1.29182e+06 0 -1.99722e+06 1.31138e+06 0 -2.00206e+06 1.33078e+06 0 -2.00665e+06 1.35e+06 0 -2.01099e+06 1.36898e+06 0 -2.01507e+06 1.38768e+06 0 -2.01888e+06 1.40607e+06 0 -2.02243e+06 1.42409e+06 0 -2.02572e+06 1.44168e+06 0 -2.02874e+06 1.45879e+06 0 -2.03152e+06 1.47537e+06 0 -2.03406e+06 1.49135e+06 0 -2.03638e+06 1.50666e+06 0 -2.03851e+06 1.52125e+06 0 -2.04047e+06 1.53504e+06 0 -2.0423e+06 1.54797e+06 0 -2.04404e+06 1.55996e+06 0 -2.04573e+06 1.57096e+06 0 -2.04744e+06 1.58087e+06 0 -2.04921e+06 1.58965e+06 0 -2.05113e+06 1.59723e+06 0 -2.05324e+06 1.60353e+06 0 -2.05565e+06 1.6085e+06 0 -2.05842e+06 1.61209e+06 0 -2.06165e+06 1.61424e+06 0 -2.06542e+06 1.61491e+06 0 -2.06983e+06 1.61404e+06 0 -2.07498e+06 1.61161e+06 0 -2.08096e+06 1.60758e+06 0 -2.08788e+06 1.60193e+06 0 -2.09582e+06 1.59464e+06 0 -2.1049e+06 1.58568e+06 0 -2.11519e+06 1.57506e+06 0 -2.12681e+06 1.56277e+06 0 -2.13983e+06 1.54881e+06 0 -2.15433e+06 1.53321e+06 0 -2.17041e+06 1.51598e+06 0 -2.18812e+06 1.49716e+06 0 -2.20753e+06 1.47679e+06 0 -2.22869e+06 1.45494e+06 0 -2.25165e+06 1.43169e+06 0 -2.27642e+06 1.40717e+06 0 -2.30303e+06 1.38153e+06 0 -2.33145e+06 1.35499e+06 0 -2.36164e+06 1.32785e+06 0 -2.39354e+06 1.30053e+06 0 -2.42701e+06 1.27357e+06 0 -2.46189e+06 1.2478e+06 0 -2.49784e+06 1.22439e+06 0 -2.53446e+06 1.20486e+06 0 -2.57094e+06 1.19195e+06 0 -2.60614e+06 1.18928e+06 0 -2.63677e+06 1.20263e+06 0 -1.91601e+06 1.07289e+06 0 -1.9227e+06 1.0923e+06 0 -1.9293e+06 1.11178e+06 0 -1.93582e+06 1.13132e+06 0 -1.94223e+06 1.1509e+06 0 -1.94853e+06 1.17053e+06 0 -1.95471e+06 1.19017e+06 0 -1.96074e+06 1.20982e+06 0 -1.96661e+06 1.22945e+06 0 -1.97232e+06 1.24904e+06 0 -1.97785e+06 1.26857e+06 0 -1.98319e+06 1.28801e+06 0 -1.98832e+06 1.30734e+06 0 -1.99325e+06 1.32652e+06 0 -1.99795e+06 1.34552e+06 0 -2.00241e+06 1.3643e+06 0 -2.00665e+06 1.38282e+06 0 -2.01064e+06 1.40105e+06 0 -2.01439e+06 1.41893e+06 0 -2.0179e+06 1.43641e+06 0 -2.02118e+06 1.45345e+06 0 -2.02422e+06 1.46998e+06 0 -2.02706e+06 1.48596e+06 0 -2.02969e+06 1.50133e+06 0 -2.03215e+06 1.51601e+06 0 -2.03445e+06 1.52996e+06 0 -2.03664e+06 1.5431e+06 0 -2.03874e+06 1.55537e+06 0 -2.04081e+06 1.5667e+06 0 -2.04288e+06 1.57704e+06 0 -2.04502e+06 1.58631e+06 0 -2.04729e+06 1.59445e+06 0 -2.04974e+06 1.60141e+06 0 -2.05246e+06 1.60712e+06 0 -2.05552e+06 1.61153e+06 0 -2.059e+06 1.61459e+06 0 -2.06298e+06 1.61625e+06 0 -2.06756e+06 1.61647e+06 0 -2.07281e+06 1.61521e+06 0 -2.07885e+06 1.61243e+06 0 -2.08575e+06 1.60811e+06 0 -2.09361e+06 1.60223e+06 0 -2.10253e+06 1.59477e+06 0 -2.1126e+06 1.58571e+06 0 -2.12391e+06 1.57504e+06 0 -2.13653e+06 1.56278e+06 0 -2.15056e+06 1.54892e+06 0 -2.16607e+06 1.53349e+06 0 -2.18313e+06 1.51649e+06 0 -2.2018e+06 1.49796e+06 0 -2.22213e+06 1.47796e+06 0 -2.24417e+06 1.45654e+06 0 -2.26793e+06 1.4338e+06 0 -2.29343e+06 1.40985e+06 0 -2.32064e+06 1.38485e+06 0 -2.34952e+06 1.35903e+06 0 -2.38e+06 1.33268e+06 0 -2.41192e+06 1.30621e+06 0 -2.44509e+06 1.28019e+06 0 -2.47917e+06 1.25546e+06 0 -2.51372e+06 1.23311e+06 0 -2.54794e+06 1.21484e+06 0 -2.58069e+06 1.2029e+06 0 -2.60972e+06 1.20151e+06 0 -1.90735e+06 1.07181e+06 0 -1.91396e+06 1.09098e+06 0 -1.92049e+06 1.11022e+06 0 -1.92694e+06 1.12952e+06 0 -1.9333e+06 1.14887e+06 0 -1.93955e+06 1.16824e+06 0 -1.94569e+06 1.18764e+06 0 -1.9517e+06 1.20704e+06 0 -1.95757e+06 1.22642e+06 0 -1.96328e+06 1.24576e+06 0 -1.96883e+06 1.26505e+06 0 -1.97421e+06 1.28426e+06 0 -1.9794e+06 1.30335e+06 0 -1.9844e+06 1.32231e+06 0 -1.9892e+06 1.3411e+06 0 -1.99378e+06 1.35969e+06 0 -1.99816e+06 1.37803e+06 0 -2.00231e+06 1.3961e+06 0 -2.00624e+06 1.41384e+06 0 -2.00996e+06 1.43121e+06 0 -2.01346e+06 1.44817e+06 0 -2.01676e+06 1.46466e+06 0 -2.01986e+06 1.48063e+06 0 -2.02278e+06 1.49603e+06 0 -2.02554e+06 1.5108e+06 0 -2.02816e+06 1.52488e+06 0 -2.03067e+06 1.53821e+06 0 -2.03312e+06 1.55073e+06 0 -2.03552e+06 1.56237e+06 0 -2.03794e+06 1.57309e+06 0 -2.04042e+06 1.58281e+06 0 -2.04302e+06 1.59148e+06 0 -2.04579e+06 1.59905e+06 0 -2.0488e+06 1.60544e+06 0 -2.05213e+06 1.61062e+06 0 -2.05585e+06 1.61453e+06 0 -2.06003e+06 1.61712e+06 0 -2.06476e+06 1.61836e+06 0 -2.07013e+06 1.61819e+06 0 -2.07621e+06 1.6166e+06 0 -2.08311e+06 1.61355e+06 0 -2.09091e+06 1.60901e+06 0 -2.09969e+06 1.60296e+06 0 -2.10954e+06 1.59539e+06 0 -2.12056e+06 1.58629e+06 0 -2.13282e+06 1.57565e+06 0 -2.14641e+06 1.56347e+06 0 -2.1614e+06 1.54976e+06 0 -2.17785e+06 1.53453e+06 0 -2.19583e+06 1.51781e+06 0 -2.21539e+06 1.49963e+06 0 -2.23657e+06 1.48002e+06 0 -2.2594e+06 1.45907e+06 0 -2.28389e+06 1.43684e+06 0 -2.31002e+06 1.41346e+06 0 -2.33775e+06 1.38909e+06 0 -2.367e+06 1.36395e+06 0 -2.39763e+06 1.33832e+06 0 -2.42946e+06 1.3126e+06 0 -2.46218e+06 1.28738e+06 0 -2.49534e+06 1.2634e+06 0 -2.52827e+06 1.24182e+06 0 -2.55997e+06 1.22404e+06 0 -2.58857e+06 1.21261e+06 0 -1.89871e+06 1.07073e+06 0 -1.90523e+06 1.08967e+06 0 -1.91169e+06 1.10868e+06 0 -1.91808e+06 1.12774e+06 0 -1.92438e+06 1.14685e+06 0 -1.93058e+06 1.16598e+06 0 -1.93668e+06 1.18513e+06 0 -1.94267e+06 1.20429e+06 0 -1.94852e+06 1.22343e+06 0 -1.95424e+06 1.24253e+06 0 -1.95981e+06 1.26158e+06 0 -1.96522e+06 1.28055e+06 0 -1.97046e+06 1.29942e+06 0 -1.97553e+06 1.31817e+06 0 -1.98041e+06 1.33675e+06 0 -1.9851e+06 1.35514e+06 0 -1.98959e+06 1.37331e+06 0 -1.99389e+06 1.39121e+06 0 -1.99799e+06 1.40882e+06 0 -2.00189e+06 1.42608e+06 0 -2.0056e+06 1.44295e+06 0 -2.00912e+06 1.45939e+06 0 -2.01247e+06 1.47535e+06 0 -2.01565e+06 1.49077e+06 0 -2.01869e+06 1.5056e+06 0 -2.0216e+06 1.5198e+06 0 -2.02442e+06 1.5333e+06 0 -2.02718e+06 1.54604e+06 0 -2.0299e+06 1.55797e+06 0 -2.03264e+06 1.56904e+06 0 -2.03543e+06 1.57918e+06 0 -2.03833e+06 1.58833e+06 0 -2.0414e+06 1.59645e+06 0 -2.04469e+06 1.60349e+06 0 -2.04827e+06 1.60938e+06 0 -2.05221e+06 1.61408e+06 0 -2.05658e+06 1.61755e+06 0 -2.06147e+06 1.61973e+06 0 -2.06694e+06 1.62061e+06 0 -2.07308e+06 1.62013e+06 0 -2.07997e+06 1.61827e+06 0 -2.08771e+06 1.615e+06 0 -2.09636e+06 1.6103e+06 0 -2.10603e+06 1.60415e+06 0 -2.11678e+06 1.59654e+06 0 -2.1287e+06 1.58745e+06 0 -2.14188e+06 1.57688e+06 0 -2.15637e+06 1.56484e+06 0 -2.17225e+06 1.55133e+06 0 -2.18959e+06 1.53636e+06 0 -2.20843e+06 1.51995e+06 0 -2.22881e+06 1.50213e+06 0 -2.25077e+06 1.48296e+06 0 -2.27433e+06 1.46248e+06 0 -2.29946e+06 1.44078e+06 0 -2.32614e+06 1.41797e+06 0 -2.35431e+06 1.3942e+06 0 -2.38383e+06 1.36968e+06 0 -2.41455e+06 1.34469e+06 0 -2.44618e+06 1.31962e+06 0 -2.47835e+06 1.29498e+06 0 -2.51048e+06 1.27153e+06 0 -2.54175e+06 1.2502e+06 0 -2.57072e+06 1.23263e+06 0 -1.89009e+06 1.06964e+06 0 -1.89653e+06 1.08836e+06 0 -1.90291e+06 1.10714e+06 0 -1.90923e+06 1.12597e+06 0 -1.91547e+06 1.14484e+06 0 -1.92163e+06 1.16374e+06 0 -1.92769e+06 1.18265e+06 0 -1.93364e+06 1.20157e+06 0 -1.93948e+06 1.22047e+06 0 -1.9452e+06 1.23934e+06 0 -1.95078e+06 1.25815e+06 0 -1.95621e+06 1.2769e+06 0 -1.96149e+06 1.29555e+06 0 -1.96662e+06 1.31407e+06 0 -1.97157e+06 1.33245e+06 0 -1.97636e+06 1.35065e+06 0 -1.98097e+06 1.36864e+06 0 -1.98539e+06 1.38639e+06 0 -1.98964e+06 1.40386e+06 0 -1.99371e+06 1.421e+06 0 -1.99761e+06 1.43779e+06 0 -2.00134e+06 1.45417e+06 0 -2.0049e+06 1.4701e+06 0 -2.00833e+06 1.48554e+06 0 -2.01162e+06 1.50043e+06 0 -2.0148e+06 1.51472e+06 0 -2.0179e+06 1.52837e+06 0 -2.02094e+06 1.54131e+06 0 -2.02396e+06 1.5535e+06 0 -2.02699e+06 1.56488e+06 0 -2.03007e+06 1.5754e+06 0 -2.03326e+06 1.58501e+06 0 -2.0366e+06 1.59365e+06 0 -2.04014e+06 1.60127e+06 0 -2.04396e+06 1.60782e+06 0 -2.04811e+06 1.61326e+06 0 -2.05266e+06 1.61754e+06 0 -2.05769e+06 1.62063e+06 0 -2.06326e+06 1.62247e+06 0 -2.06946e+06 1.62304e+06 0 -2.07635e+06 1.62231e+06 0 -2.08403e+06 1.62024e+06 0 -2.09257e+06 1.61682e+06 0 -2.10206e+06 1.61201e+06 0 -2.11257e+06 1.60582e+06 0 -2.12417e+06 1.59821e+06 0 -2.13696e+06 1.58919e+06 0 -2.15099e+06 1.57875e+06 0 -2.16634e+06 1.56689e+06 0 -2.18306e+06 1.55362e+06 0 -2.20122e+06 1.53894e+06 0 -2.22085e+06 1.52288e+06 0 -2.242e+06 1.50547e+06 0 -2.26468e+06 1.48674e+06 0 -2.28888e+06 1.46674e+06 0 -2.3146e+06 1.44557e+06 0 -2.34176e+06 1.42332e+06 0 -2.37029e+06 1.40012e+06 0 -2.40002e+06 1.37618e+06 0 -2.43074e+06 1.35174e+06 0 -2.46213e+06 1.32717e+06 0 -2.49369e+06 1.30295e+06 0 -2.52478e+06 1.27967e+06 0 -2.55429e+06 1.25842e+06 0 -1.88148e+06 1.06856e+06 0 -1.88784e+06 1.08706e+06 0 -1.89415e+06 1.10561e+06 0 -1.9004e+06 1.12421e+06 0 -1.90658e+06 1.14284e+06 0 -1.91268e+06 1.16151e+06 0 -1.9187e+06 1.18019e+06 0 -1.92463e+06 1.19887e+06 0 -1.93045e+06 1.21754e+06 0 -1.93615e+06 1.23617e+06 0 -1.94174e+06 1.25476e+06 0 -1.94719e+06 1.27328e+06 0 -1.95251e+06 1.29171e+06 0 -1.95768e+06 1.31003e+06 0 -1.9627e+06 1.32821e+06 0 -1.96757e+06 1.34622e+06 0 -1.97227e+06 1.36404e+06 0 -1.97682e+06 1.38163e+06 0 -1.9812e+06 1.39895e+06 0 -1.98542e+06 1.41598e+06 0 -1.98949e+06 1.43268e+06 0 -1.9934e+06 1.44899e+06 0 -1.99717e+06 1.46489e+06 0 -2.00081e+06 1.48033e+06 0 -2.00434e+06 1.49526e+06 0 -2.00777e+06 1.50964e+06 0 -2.01112e+06 1.52342e+06 0 -2.01442e+06 1.53654e+06 0 -2.01771e+06 1.54896e+06 0 -2.02101e+06 1.56063e+06 0 -2.02436e+06 1.5715e+06 0 -2.02781e+06 1.58152e+06 0 -2.0314e+06 1.59063e+06 0 -2.03519e+06 1.5988e+06 0 -2.03922e+06 1.60597e+06 0 -2.04357e+06 1.61209e+06 0 -2.04829e+06 1.61714e+06 0 -2.05345e+06 1.62105e+06 0 -2.05911e+06 1.62381e+06 0 -2.06536e+06 1.62536e+06 0 -2.07226e+06 1.62569e+06 0 -2.07989e+06 1.62476e+06 0 -2.08833e+06 1.62254e+06 0 -2.09765e+06 1.61902e+06 0 -2.10792e+06 1.61417e+06 0 -2.11923e+06 1.60798e+06 0 -2.13165e+06 1.60044e+06 0 -2.14525e+06 1.59153e+06 0 -2.16009e+06 1.58126e+06 0 -2.17624e+06 1.56963e+06 0 -2.19375e+06 1.55663e+06 0 -2.21268e+06 1.54228e+06 0 -2.23305e+06 1.5266e+06 0 -2.25489e+06 1.50961e+06 0 -2.27822e+06 1.49134e+06 0 -2.30302e+06 1.47185e+06 0 -2.32925e+06 1.45119e+06 0 -2.35684e+06 1.42948e+06 0 -2.38567e+06 1.40682e+06 0 -2.41556e+06 1.38339e+06 0 -2.44624e+06 1.35941e+06 0 -2.47734e+06 1.33521e+06 0 -2.50832e+06 1.31115e+06 0 -2.53832e+06 1.28793e+06 0 -1.87289e+06 1.06748e+06 0 -1.87917e+06 1.08575e+06 0 -1.8854e+06 1.10408e+06 0 -1.89158e+06 1.12245e+06 0 -1.8977e+06 1.14086e+06 0 -1.90375e+06 1.1593e+06 0 -1.90973e+06 1.17774e+06 0 -1.91562e+06 1.19619e+06 0 -1.92141e+06 1.21463e+06 0 -1.92711e+06 1.23304e+06 0 -1.93269e+06 1.25141e+06 0 -1.93816e+06 1.26971e+06 0 -1.9435e+06 1.28792e+06 0 -1.94871e+06 1.30603e+06 0 -1.95379e+06 1.32402e+06 0 -1.95872e+06 1.34184e+06 0 -1.96352e+06 1.35949e+06 0 -1.96816e+06 1.37692e+06 0 -1.97267e+06 1.3941e+06 0 -1.97703e+06 1.41101e+06 0 -1.98124e+06 1.42761e+06 0 -1.98533e+06 1.44386e+06 0 -1.98928e+06 1.45972e+06 0 -1.99312e+06 1.47515e+06 0 -1.99686e+06 1.49012e+06 0 -2.00051e+06 1.50456e+06 0 -2.00409e+06 1.51845e+06 0 -2.00764e+06 1.53173e+06 0 -2.01116e+06 1.54436e+06 0 -2.01471e+06 1.55629e+06 0 -2.01831e+06 1.56748e+06 0 -2.022e+06 1.57787e+06 0 -2.02582e+06 1.58742e+06 0 -2.02983e+06 1.59609e+06 0 -2.03407e+06 1.60383e+06 0 -2.0386e+06 1.61059e+06 0 -2.04347e+06 1.61634e+06 0 -2.04876e+06 1.62104e+06 0 -2.05451e+06 1.62464e+06 0 -2.06081e+06 1.62712e+06 0 -2.06771e+06 1.62844e+06 0 -2.0753e+06 1.62858e+06 0 -2.08364e+06 1.6275e+06 0 -2.0928e+06 1.62519e+06 0 -2.10286e+06 1.62162e+06 0 -2.11389e+06 1.61677e+06 0 -2.12597e+06 1.61064e+06 0 -2.13915e+06 1.60321e+06 0 -2.15352e+06 1.59446e+06 0 -2.16912e+06 1.58441e+06 0 -2.18602e+06 1.57304e+06 0 -2.20426e+06 1.56035e+06 0 -2.22389e+06 1.54637e+06 0 -2.24495e+06 1.53109e+06 0 -2.26743e+06 1.51454e+06 0 -2.29135e+06 1.49674e+06 0 -2.31669e+06 1.47775e+06 0 -2.34338e+06 1.45761e+06 0 -2.37134e+06 1.43641e+06 0 -2.40043e+06 1.41425e+06 0 -2.43045e+06 1.39127e+06 0 -2.46107e+06 1.36767e+06 0 -2.49191e+06 1.34367e+06 0 -2.52228e+06 1.31972e+06 0 -1.86431e+06 1.06639e+06 0 -1.87051e+06 1.08445e+06 0 -1.87666e+06 1.10256e+06 0 -1.88278e+06 1.12071e+06 0 -1.88883e+06 1.13889e+06 0 -1.89483e+06 1.1571e+06 0 -1.90076e+06 1.17532e+06 0 -1.90661e+06 1.19354e+06 0 -1.91238e+06 1.21175e+06 0 -1.91806e+06 1.22994e+06 0 -1.92363e+06 1.24808e+06 0 -1.92911e+06 1.26617e+06 0 -1.93447e+06 1.28417e+06 0 -1.93971e+06 1.30208e+06 0 -1.94484e+06 1.31987e+06 0 -1.94983e+06 1.33751e+06 0 -1.9547e+06 1.35498e+06 0 -1.95944e+06 1.37225e+06 0 -1.96405e+06 1.3893e+06 0 -1.96853e+06 1.40609e+06 0 -1.97288e+06 1.42259e+06 0 -1.97712e+06 1.43877e+06 0 -1.98124e+06 1.45458e+06 0 -1.98526e+06 1.47e+06 0 -1.98918e+06 1.48498e+06 0 -1.99304e+06 1.49948e+06 0 -1.99683e+06 1.51346e+06 0 -2.0006e+06 1.52688e+06 0 -2.00435e+06 1.53969e+06 0 -2.00812e+06 1.55186e+06 0 -2.01194e+06 1.56333e+06 0 -2.01585e+06 1.57407e+06 0 -2.01989e+06 1.58402e+06 0 -2.0241e+06 1.59315e+06 0 -2.02853e+06 1.60141e+06 0 -2.03322e+06 1.60877e+06 0 -2.03824e+06 1.61518e+06 0 -2.04364e+06 1.6206e+06 0 -2.04948e+06 1.625e+06 0 -2.05582e+06 1.62834e+06 0 -2.06272e+06 1.6306e+06 0 -2.07027e+06 1.63174e+06 0 -2.07851e+06 1.63173e+06 0 -2.08753e+06 1.63056e+06 0 -2.09739e+06 1.6282e+06 0 -2.10815e+06 1.62463e+06 0 -2.1199e+06 1.61984e+06 0 -2.1327e+06 1.61381e+06 0 -2.14661e+06 1.60653e+06 0 -2.16169e+06 1.59799e+06 0 -2.178e+06 1.58818e+06 0 -2.1956e+06 1.57711e+06 0 -2.21452e+06 1.56477e+06 0 -2.23481e+06 1.55117e+06 0 -2.25649e+06 1.53632e+06 0 -2.27956e+06 1.52023e+06 0 -2.30403e+06 1.50292e+06 0 -2.32985e+06 1.48443e+06 0 -2.35696e+06 1.4648e+06 0 -2.38526e+06 1.4441e+06 0 -2.41458e+06 1.42239e+06 0 -2.4447e+06 1.39981e+06 0 -2.47529e+06 1.37648e+06 0 -2.50585e+06 1.35266e+06 0 -1.85575e+06 1.06531e+06 0 -1.86186e+06 1.08315e+06 0 -1.86794e+06 1.10104e+06 0 -1.87398e+06 1.11896e+06 0 -1.87998e+06 1.13693e+06 0 -1.88592e+06 1.15491e+06 0 -1.8918e+06 1.17291e+06 0 -1.89761e+06 1.19091e+06 0 -1.90335e+06 1.2089e+06 0 -1.909e+06 1.22687e+06 0 -1.91457e+06 1.24479e+06 0 -1.92005e+06 1.26266e+06 0 -1.92542e+06 1.28046e+06 0 -1.93069e+06 1.29817e+06 0 -1.93585e+06 1.31576e+06 0 -1.9409e+06 1.33322e+06 0 -1.94583e+06 1.35052e+06 0 -1.95065e+06 1.36764e+06 0 -1.95535e+06 1.38454e+06 0 -1.95994e+06 1.40121e+06 0 -1.96442e+06 1.41761e+06 0 -1.96879e+06 1.4337e+06 0 -1.97305e+06 1.44947e+06 0 -1.97723e+06 1.46486e+06 0 -1.98133e+06 1.47984e+06 0 -1.98537e+06 1.49439e+06 0 -1.98936e+06 1.50845e+06 0 -1.99332e+06 1.52199e+06 0 -1.99727e+06 1.53497e+06 0 -2.00125e+06 1.54734e+06 0 -2.00527e+06 1.55908e+06 0 -2.00939e+06 1.57012e+06 0 -2.01362e+06 1.58044e+06 0 -2.01801e+06 1.59e+06 0 -2.02261e+06 1.59874e+06 0 -2.02746e+06 1.60665e+06 0 -2.03261e+06 1.61366e+06 0 -2.03811e+06 1.61976e+06 0 -2.04402e+06 1.6249e+06 0 -2.0504e+06 1.62905e+06 0 -2.05731e+06 1.63218e+06 0 -2.06481e+06 1.63426e+06 0 -2.07297e+06 1.63527e+06 0 -2.08185e+06 1.63517e+06 0 -2.09151e+06 1.63395e+06 0 -2.10203e+06 1.63159e+06 0 -2.11347e+06 1.62807e+06 0 -2.1259e+06 1.62337e+06 0 -2.13937e+06 1.61748e+06 0 -2.15396e+06 1.61039e+06 0 -2.16971e+06 1.60209e+06 0 -2.18669e+06 1.59258e+06 0 -2.20493e+06 1.58184e+06 0 -2.22448e+06 1.56987e+06 0 -2.24538e+06 1.55669e+06 0 -2.26763e+06 1.54228e+06 0 -2.29124e+06 1.52667e+06 0 -2.3162e+06 1.50986e+06 0 -2.34246e+06 1.49187e+06 0 -2.36995e+06 1.47274e+06 0 -2.39856e+06 1.45251e+06 0 -2.42809e+06 1.43124e+06 0 -2.45833e+06 1.40898e+06 0 -2.48888e+06 1.38591e+06 0 -1.84719e+06 1.06422e+06 0 -1.85323e+06 1.08184e+06 0 -1.85923e+06 1.09952e+06 0 -1.8652e+06 1.11723e+06 0 -1.87113e+06 1.13497e+06 0 -1.87702e+06 1.15274e+06 0 -1.88285e+06 1.17052e+06 0 -1.88862e+06 1.1883e+06 0 -1.89432e+06 1.20607e+06 0 -1.89995e+06 1.22382e+06 0 -1.9055e+06 1.24153e+06 0 -1.91097e+06 1.25919e+06 0 -1.91635e+06 1.27678e+06 0 -1.92164e+06 1.29429e+06 0 -1.92683e+06 1.31169e+06 0 -1.93192e+06 1.32897e+06 0 -1.93691e+06 1.3461e+06 0 -1.9418e+06 1.36306e+06 0 -1.94658e+06 1.37983e+06 0 -1.95126e+06 1.39637e+06 0 -1.95584e+06 1.41266e+06 0 -1.96033e+06 1.42867e+06 0 -1.96474e+06 1.44438e+06 0 -1.96906e+06 1.45974e+06 0 -1.97331e+06 1.47472e+06 0 -1.97751e+06 1.48929e+06 0 -1.98167e+06 1.50342e+06 0 -1.98581e+06 1.51706e+06 0 -1.98995e+06 1.53018e+06 0 -1.99411e+06 1.54274e+06 0 -1.99832e+06 1.55471e+06 0 -2.00261e+06 1.56604e+06 0 -2.00702e+06 1.5767e+06 0 -2.01158e+06 1.58664e+06 0 -2.01634e+06 1.59583e+06 0 -2.02132e+06 1.60423e+06 0 -2.02659e+06 1.61181e+06 0 -2.03219e+06 1.61853e+06 0 -2.03817e+06 1.62436e+06 0 -2.04458e+06 1.62926e+06 0 -2.05149e+06 1.63321e+06 0 -2.05895e+06 1.63617e+06 0 -2.06702e+06 1.63813e+06 0 -2.07577e+06 1.63904e+06 0 -2.08525e+06 1.6389e+06 0 -2.09553e+06 1.63768e+06 0 -2.10668e+06 1.63536e+06 0 -2.11875e+06 1.63193e+06 0 -2.13181e+06 1.62737e+06 0 -2.14592e+06 1.62166e+06 0 -2.16114e+06 1.6148e+06 0 -2.17752e+06 1.60678e+06 0 -2.19511e+06 1.59758e+06 0 -2.21395e+06 1.5872e+06 0 -2.23408e+06 1.57564e+06 0 -2.25553e+06 1.56289e+06 0 -2.27831e+06 1.54895e+06 0 -2.30241e+06 1.53383e+06 0 -2.32782e+06 1.51752e+06 0 -2.35449e+06 1.50004e+06 0 -2.38233e+06 1.48141e+06 0 -2.41122e+06 1.46164e+06 0 -2.44098e+06 1.44076e+06 0 -2.47133e+06 1.41885e+06 0 -1.83865e+06 1.06312e+06 0 -1.8446e+06 1.08054e+06 0 -1.85053e+06 1.098e+06 0 -1.85643e+06 1.1155e+06 0 -1.8623e+06 1.13302e+06 0 -1.86812e+06 1.15057e+06 0 -1.8739e+06 1.16813e+06 0 -1.87963e+06 1.1857e+06 0 -1.88529e+06 1.20325e+06 0 -1.89089e+06 1.22079e+06 0 -1.89643e+06 1.23829e+06 0 -1.90189e+06 1.25574e+06 0 -1.90727e+06 1.27314e+06 0 -1.91257e+06 1.29045e+06 0 -1.91778e+06 1.30766e+06 0 -1.9229e+06 1.32476e+06 0 -1.92794e+06 1.34172e+06 0 -1.93288e+06 1.35853e+06 0 -1.93773e+06 1.37515e+06 0 -1.9425e+06 1.39156e+06 0 -1.94717e+06 1.40775e+06 0 -1.95177e+06 1.42367e+06 0 -1.95629e+06 1.43931e+06 0 -1.96074e+06 1.45463e+06 0 -1.96513e+06 1.4696e+06 0 -1.96947e+06 1.48419e+06 0 -1.97379e+06 1.49836e+06 0 -1.97808e+06 1.51209e+06 0 -1.98239e+06 1.52534e+06 0 -1.98672e+06 1.53807e+06 0 -1.99109e+06 1.55024e+06 0 -1.99555e+06 1.56182e+06 0 -2.00012e+06 1.57278e+06 0 -2.00483e+06 1.58308e+06 0 -2.00972e+06 1.59268e+06 0 -2.01484e+06 1.60154e+06 0 -2.02021e+06 1.60964e+06 0 -2.02589e+06 1.61694e+06 0 -2.03193e+06 1.62341e+06 0 -2.03837e+06 1.62901e+06 0 -2.04528e+06 1.63372e+06 0 -2.05269e+06 1.6375e+06 0 -2.06068e+06 1.64034e+06 0 -2.0693e+06 1.64221e+06 0 -2.07861e+06 1.64308e+06 0 -2.08866e+06 1.64294e+06 0 -2.09953e+06 1.64176e+06 0 -2.11127e+06 1.63952e+06 0 -2.12393e+06 1.63622e+06 0 -2.13759e+06 1.63183e+06 0 -2.15229e+06 1.62634e+06 0 -2.1681e+06 1.61975e+06 0 -2.18506e+06 1.61203e+06 0 -2.20321e+06 1.60318e+06 0 -2.2226e+06 1.59319e+06 0 -2.24327e+06 1.58206e+06 0 -2.26522e+06 1.56976e+06 0 -2.28848e+06 1.55631e+06 0 -2.31303e+06 1.54169e+06 0 -2.33886e+06 1.52589e+06 0 -2.3659e+06 1.50893e+06 0 -2.39407e+06 1.49079e+06 0 -2.42324e+06 1.47146e+06 0 -2.45321e+06 1.451e+06 0 -1.83012e+06 1.06203e+06 0 -1.83599e+06 1.07923e+06 0 -1.84185e+06 1.09648e+06 0 -1.84767e+06 1.11377e+06 0 -1.85347e+06 1.13108e+06 0 -1.85924e+06 1.14842e+06 0 -1.86496e+06 1.16577e+06 0 -1.87064e+06 1.18312e+06 0 -1.87626e+06 1.20046e+06 0 -1.88183e+06 1.21778e+06 0 -1.88734e+06 1.23508e+06 0 -1.89279e+06 1.25233e+06 0 -1.89817e+06 1.26952e+06 0 -1.90347e+06 1.28663e+06 0 -1.9087e+06 1.30366e+06 0 -1.91385e+06 1.32058e+06 0 -1.91892e+06 1.33738e+06 0 -1.92391e+06 1.35402e+06 0 -1.92882e+06 1.3705e+06 0 -1.93365e+06 1.38679e+06 0 -1.93841e+06 1.40286e+06 0 -1.9431e+06 1.41869e+06 0 -1.94772e+06 1.43426e+06 0 -1.