<?xml version="1.0"?> 
<VTKFile type="StructuredGrid" version="0.1"> 
<StructuredGrid WholeExtent="0 127 0 127 0 0"> 
<Piece Extent="0 127 0 127 0 0"> 
<PointData>
<DataArray type="Float32" Name="|E|" format="ascii" NumberOfComponents="3"> 
1.04904e-05 1.09097e+07 0 -1.62509e-06 6.29856e+06 0 -6.29225e-08 5.01475e+06 0 -2.01166e-07 4.33892e+06 0 4.63566e-07 3.84601e+06 0 1.43191e-07 3.49629e+06 0 1.4808e-07 3.20829e+06 0 -2.37022e-07 2.97571e+06 0 -1.00397e-06 2.77491e+06 0 1.40257e-06 2.60174e+06 0 -8.56817e-07 2.44774e+06 0 -1.85333e-07 2.31001e+06 0 -5.92321e-07 2.18489e+06 0 9.574e-07 2.07047e+06 0 -9.38773e-07 1.96488e+06 0 3.18512e-07 1.86688e+06 0 3.1665e-08 1.77539e+06 0 1.19954e-06 1.68958e+06 0 -1.51992e-06 1.60877e+06 0 7.33882e-07 1.53241e+06 0 -5.43892e-07 1.46001e+06 0 1.50874e-06 1.3912e+06 0 -1.88127e-06 1.32564e+06 0 1.29268e-06 1.26306e+06 0 -1.17719e-06 1.20322e+06 0 1.3262e-06 1.14591e+06 0 -1.79559e-06 1.09095e+06 0 2.05636e-06 1.0382e+06 0 -1.3411e-06 987507 0 2.04891e-06 938765 0 -2.68966e-06 891868 0 2.12342e-06 846727 0 -1.08778e-06 803262 0 6.70552e-07 761402 0 -8.49366e-07 721083 0 5.06639e-07 682251 0 -1.78814e-07 644856 0 -1.49012e-08 608852 0 1.49012e-07 574200 0 -2.23517e-07 540863 0 -1.78814e-07 508809 0 4.02331e-07 478008 0 -2.38419e-07 448431 0 -4.47035e-08 420054 0 -2.38419e-07 392852 0 2.98023e-07 366804 0 5.96046e-08 341887 0 1.19209e-07 318081 0 -3.57628e-07 295366 0 2.38419e-07 273723 0 -2.38419e-07 253132 0 2.98023e-08 233573 0 -5.96046e-08 215027 0 1.19209e-07 197473 0 5.96046e-07 180891 0 3.27826e-07 165260 0 -2.38419e-07 150558 0 1.04308e-06 136762 0 -6.85453e-07 123848 0 8.34465e-07 111791 0 -9.83477e-07 100567 0 8.34465e-07 90147.3 0 -9.23872e-07 80505.4 0 3.57628e-07 71612.5 0 -6.25849e-07 63438.9 0 -3.57628e-07 55954.1 0 2.98023e-08 49126.7 0 1.19209e-07 42924.6 0 1.78814e-07 37315.1 0 -1.19209e-07 32265 0 1.19209e-07 27740.7 0 -1.19209e-07 23708.5 0 2.98023e-07 20134.6 0 -5.96046e-08 16985.3 0 5.96046e-08 14227.3 0 5.96046e-07 11827.9 0 -6.55651e-07 9755.02 0 6.55651e-07 7977.54 0 -9.53674e-07 6465.41 0 6.55651e-07 5189.88 0 -5.96046e-07 4123.61 0 2.38419e-07 3240.85 0 1.78814e-07 2517.54 0 -6.55651e-07 1931.41 0 3.57628e-07 1462.06 0 -5.96046e-08 1091 0 1.78814e-07 801.648 0 -1.2517e-06 579.333 0 2.02656e-06 411.237 0 -3.75509e-06 286.317 0 4.17233e-06 195.209 0 -4.11272e-06 130.099 0 3.51667e-06 84.5886 0 -3.51667e-06 53.5363 0 2.5034e-06 32.9006 0 -1.90735e-06 19.5779 0 1.07288e-06 11.245 0 -8.34465e-07 6.21205 0 9.53674e-07 3.28716 0 -4.76837e-07 1.65842 0 1.78814e-06 0.793452 0 -1.90735e-06 0.357785 0 2.38419e-06 0.150949 0 -2.02656e-06 0.059042 0 1.66893e-06 0.0212908 0 -2.02656e-06 0.00694752 0 1.43051e-06 0.00191021 0 -1.43051e-06 0.000517845 0 1.19209e-06 0.000116348 0 -1.19209e-06 2.86102e-05 0 5.96046e-07 -4.76837e-06 0 -5.96046e-07 -1.62125e-05 0 -3.57628e-07 9.53674e-06 0 4.76837e-07 -5.24521e-05 0 -3.57628e-07 1.71661e-05 0 3.57628e-07 1.33514e-05 0 -4.76837e-07 1.14441e-05 0 1.07288e-06 5.53131e-05 0 -2.38419e-07 -9.15527e-05 0 -1.19209e-07 -4.57764e-05 0 -2.38419e-07 3.05176e-05 0 5.96046e-07 -6.86646e-05 0 -1.19209e-07 -8.01086e-05 0 0 9.91821e-05 0 1.19209e-07 -0.000236511 0 -4.76837e-07 0.000213623 0 0 -0.000183105 0 -1.90735e-06 1.00663e+08 0 -3.01228e+06 6.97503e+06 0 -1.20161e+06 5.87392e+06 0 -644972 4.92716e+06 0 -419898 4.28892e+06 0 -303472 3.8413e+06 0 -234610 3.49349e+06 0 -189529 3.21678e+06 0 -158259 2.98502e+06 0 -135298 2.78771e+06 0 -117900 2.61521e+06 0 -104245 2.46248e+06 0 -93298.2 2.32519e+06 0 -84319.1 2.20061e+06 0 -76836.5 2.08647e+06 0 -70500.4 1.98114e+06 0 -65068 1.88332e+06 0 -60354.9 1.79197e+06 0 -56224.7 1.70626e+06 0 -52571.7 1.62553e+06 0 -49313.9 1.54922e+06 0 -46386.6 1.47686e+06 0 -43738.3 1.40807e+06 0 -41327.1 1.34252e+06 0 -39119 1.27993e+06 0 -37086.1 1.22007e+06 0 -35205.1 1.16272e+06 0 -33456.7 1.10772e+06 0 -31824.6 1.0549e+06 0 -30295 1.00413e+06 0 -28856.2 955306 0 -27498.2 908311 0 -26212.5 863057 0 -24991.7 819465 0 -23829.5 777463 0 -22720.4 736990 0 -21659.5 697988 0 -20642.9 660408 0 -19666.9 624204 0 -18728.5 589338 0 -17824.8 555772 0 -16953.7 523473 0 -16113.1 492412 0 -15301.2 462560 0 -14516.5 433894 0 -13757.9 406388 0 -13024.2 380022 0 -12314.4 354773 0 -11627.9 330622 0 -10964 307550 0 -10322.2 285537 0 -9702.1 264565 0 -9103.34 244615 0 -8525.68 225668 0 -7968.93 207706 0 -7432.97 190708 0 -6917.69 174654 0 -6423.04 159525 0 -5948.97 145298 0 -5495.44 131951 0 -5062.44 119460 0 -4649.91 107803 0 -4257.81 96952.7 0 -3886.07 86884.1 0 -3534.59 77569.8 0 -3203.23 68981.8 0 -2891.82 61091.1 0 -2600.12 53867.7 0 -2327.85 47281 0 -2074.7 41299.7 0 -1840.26 35891.9 0 -1624.08 31025.1 0 -1425.66 26666.7 0 -1244.41 22783.7 0 -1079.72 19343.4 0 -930.896 16312.9 0 -797.193 13660 0 -677.827 11352.9 0 -571.971 9360.5 0 -478.76 7652.66 0 -397.305 6200.32 0 -326.697 4975.67 0 -266.021 3952.31 0 -214.361 3105.37 0 -170.812 2411.66 0 -134.489 1849.7 0 -104.538 1399.86 0 -80.1426 1044.33 0 -60.5344 767.175 0 -44.9974 554.294 0 -32.8749 393.376 0 -23.5733 273.822 0 -16.5644 186.648 0 -11.3861 124.366 0 -7.64132 80.8407 0 -4.99591 51.1499 0 -3.17432 31.4236 0 -1.9547 18.6911 0 -1.16292 10.7299 0 -0.666082 5.92319 0 -0.365817 3.1312 0 -0.191756 1.57759 0 -0.0954309 0.753374 0 -0.0448167 0.338831 0 -0.0197195 0.142444 0 -0.00805901 0.0554793 0 -0.00303041 0.0198193 0 -0.00104061 0.00641331 0 -0.000319238 0.00184194 0 -8.47807e-05 0.000465271 0 -1.97025e-05 0.000104509 0 -4.00469e-06 2.23949e-05 0 -1.77574e-06 -1.47265e-08 0 -2.46723e-07 -2.68818e-06 0 1.42908e-06 2.19769e-05 0 -3.46186e-07 4.70046e-06 0 4.48055e-07 9.71452e-06 0 -1.07044e-07 6.78677e-06 0 1.1371e-06 1.17439e-05 0 -1.39857e-06 1.80394e-06 0 -2.95001e-07 -1.16322e-05 0 1.63301e-06 2.03928e-05 0 -7.71412e-07 2.08908e-05 0 -8.21851e-07 8.02361e-06 0 3.22178e-07 -9.86585e-06 0 -1.79085e-07 2.60024e-05 0 -4.48777e-07 -5.36946e-05 0 3.59809e-07 9.09148e-05 0 -7.90916e-06 -0.000529649 0 -3.08068e+06 5.34309e+06 0 -1.83565e+06 5.13574e+06 0 -1.15305e+06 4.61865e+06 0 -796048 4.15042e+06 0 -591331 3.76674e+06 0 -463581 3.45576e+06 0 -377758 3.19637e+06 0 -316946 2.97652e+06 0 -271939 2.78589e+06 0 -237467 2.61828e+06 0 -210324 2.46869e+06 0 -188442 2.33378e+06 0 -170461 2.21088e+06 0 -155432 2.09803e+06 0 -142691 1.99368e+06 0 -131750 1.89661e+06 0 -122251 1.80587e+06 0 -113920 1.72064e+06 0 -106548 1.64029e+06 0 -99970.9 1.56429e+06 0 -94060.2 1.49218e+06 0 -88712.1 1.42359e+06 0 -83842.9 1.35819e+06 0 -79384.2 1.29573e+06 0 -75279.6 1.23595e+06 0 -71482.5 1.17867e+06 0 -67953.8 1.1237e+06 0 -64660.6 1.0709e+06 0 -61575.1 1.02013e+06 0 -58673.7 971277 0 -55936 924235 0 -53344.8 878917 0 -50885.1 835242 0 -48544 793140 0 -46310.5 752549 0 -44174.7 713412 0 -42128.3 675680 0 -40164.1 639308 0 -38275.6 604255 0 -36457.3 570487 0 -34704.4 537970 0 -33012.9 506674 0 -31379.1 476572 0 -29799.9 447639 0 -28272.6 419852 0 -26795.1 393189 0 -25365.4 367630 0 -23981.8 343154 0 -22643.1 319744 0 -21348.1 297381 0 -20096 276046 0 -18886 255723 0 -17717.5 236392 0 -16590.3 218037 0 -15503.9 200638 0 -14458.1 184177 0 -13452.8 168634 0 -12487.9 153988 0 -11563.3 140220 0 -10679 127306 0 -9834.9 115225 0 -9030.95 103953 0 -8267.05 93464.2 0 -7543.06 83734.2 0 -6858.75 74735.9 0 -6213.85 66442.1 0 -5607.99 58824.2 0 -5040.72 51853 0 -4511.46 45498.7 0 -4019.54 39730.5 0 -3564.18 34517.2 0 -3144.48 29827.3 0 -2759.41 25628.9 0 -2407.84 21890 0 -2088.52 18578.6 0 -1800.08 15662.8 0 -1541.06 13111.4 0 -1309.93 10893.4 0 -1105.03 8978.77 0 -924.694 7338.25 0 -767.164 5943.71 0 -630.669 4768.28 0 -513.417 3786.44 0 -413.626 2974.18 0 -329.531 2309.13 0 -259.414 1770.59 0 -201.615 1339.66 0 -154.55 999.19 0 -116.73 733.865 0 -86.7689 530.135 0 -63.3957 376.177 0 -45.4634 261.824 0 -31.9516 178.461 0 -21.9685 118.91 0 -14.7484 77.3002 0 -9.64687 48.9172 0 -6.13298 30.0593 0 -3.7793 17.8861 0 -2.25042 10.2728 0 -1.29034 5.67457 0 -0.709574 3.00231 0 -0.372523 1.51426 0 -0.185735 0.724099 0 -0.0874147 0.3262 0 -0.0385608 0.137412 0 -0.0158115 0.0536462 0 -0.00596815 0.0192062 0 -0.00205223 0.0062311 0 -0.000634262 0.00179345 0 -0.000171098 0.000453048 0 -3.98596e-05 9.30454e-05 0 -7.7847e-06 2.28657e-05 0 -3.87557e-06 8.07166e-07 0 1.01712e-06 -5.20359e-06 0 1.71536e-06 1.11337e-05 0 -3.99561e-07 4.44858e-06 0 2.3233e-07 5.47885e-06 0 1.91063e-07 5.86058e-06 0 -5.3748e-07 -6.14492e-06 0 -1.34989e-06 -4.80504e-06 0 4.86569e-07 -1.86835e-05 0 1.82618e-06 -7.28609e-06 0 -7.54448e-07 1.09111e-05 0 -9.22349e-07 9.34349e-07 0 -6.16092e-07 -1.75673e-05 0 4.53841e-07 1.76434e-05 0 3.11622e-07 1.01603e-05 0 4.06825e-06 0.000252128 0 -2.8791e+06 4.45771e+06 0 -2.08156e+06 4.49101e+06 0 -1.48336e+06 4.25225e+06 0 -1.09565e+06 3.94286e+06 0 -844208 3.64648e+06 0 -675769 3.38253e+06 0 -557718 3.15175e+06 0 -471786 2.94922e+06 0 -407004 2.77021e+06 0 -356775 2.61035e+06 0 -316850 2.46631e+06 0 -284459 2.33538e+06 0 -257702 2.21545e+06 0 -235256 2.10485e+06 0 -216168 2.00225e+06 0 -199742 1.90655e+06 0 -185452 1.81689e+06 0 -172903 1.73254e+06 0 -161786 1.6529e+06 0 -151861 1.57748e+06 0 -142935 1.50584e+06 0 -134854 1.43764e+06 0 -127495 1.37257e+06 0 -120755 1.31036e+06 0 -114550 1.2508e+06 0 -108809 1.19369e+06 0 -103474 1.13885e+06 0 -98496.2 1.08615e+06 0 -93832.6 1.03544e+06 0 -89447.8 986625 0 -85311.4 939595 0 -81397 894265 0 -77682.1 850555 0 -74147.1 808396 0 -70775.1 767726 0 -67551.3 728491 0 -64463 690641 0 -61498.9 654132 0 -58649.5 618925 0 -55906.1 584983 0 -53261.6 552274 0 -50709.4 520770 0 -48244 490442 0 -45860.8 461267 0 -43555.5 433222 0 -41324.5 406285 0 -39165 380436 0 -37074.4 355657 0 -35050.5 331929 0 -33091.5 309234 0 -31196.1 287556 0 -29363.1 266877 0 -27591.5 247181 0 -25880.7 228449 0 -24230.2 210665 0 -22639.5 193811 0 -21108.4 177869 0 -19636.7 162818 0 -18224.3 148641 0 -16871.2 135315 0 -15577.4 122820 0 -14342.6 111134 0 -13166.9 100234 0 -12050.1 90094.2 0 -10991.9 80690.9 0 -9992.02 71997.8 0 -9050.06 63987.9 0 -8165.43 56633.4 0 -7337.43 49905.7 0 -6565.2 43775.5 0 -5847.73 38212.9 0 -5183.84 33187.5 0 -4572.16 28668.4 0 -4011.18 24624.5 0 -3499.19 21024.6 0 -3034.34 17837.7 0 -2614.62 15032.8 0 -2237.86 12579.4 0 -1901.77 10447.6 0 -1603.95 8608.13 0 -1341.91 7032.72 0 -1113.09 5694.14 0 -914.895 4566.38 0 -744.692 3624.78 0 -599.875 2846.16 0 -477.87 2208.94 0 -376.168 1693.17 0 -292.349 1280.63 0 -224.109 954.838 0 -169.279 701.061 0 -125.846 506.279 0 -91.9639 359.143 0 -65.968 249.899 0 -46.3782 170.29 0 -31.9016 113.442 0 -21.4287 73.7319 0 -14.0259 46.6527 0 -8.92424 28.6654 0 -5.50476 17.0563 0 -3.28171 9.79672 0 -1.8843 5.41235 0 -1.03792 2.86429 0 -0.545976 1.44519 0 -0.272848 0.691431 0 -0.128765 0.311699 0 -0.0569859 0.131424 0 -0.023458 0.0513635 0 -0.00889494 0.0184111 0 -0.00307352 0.00597609 0 -0.000955461 0.00172509 0 -0.000261356 0.000435815 0 -6.03221e-05 8.73834e-05 0 -1.27608e-05 1.67517e-05 0 -4.85586e-06 -5.209e-06 0 1.05169e-06 -7.26082e-07 0 1.93017e-06 1.74623e-09 0 -1.56433e-09 5.03554e-06 0 1.82939e-07 7.02112e-06 0 -3.22947e-07 1.01647e-05 0 -1.37962e-06 -9.88832e-06 0 -1.80904e-06 -3.18489e-06 0 2.3314e-07 -9.34792e-06 0 1.65919e-06 -2.49222e-06 0 2.51239e-08 -8.93697e-06 0 -5.37519e-07 1.59894e-05 0 -6.3199e-07 -7.872e-06 0 8.71791e-07 1.81692e-05 0 -7.63126e-06 -0.000305049 0 -2.70917e+06 3.91216e+06 0 -2.15639e+06 4.00091e+06 0 -1.67919e+06 3.90254e+06 0 -1.31589e+06 3.71286e+06 0 -1.0534e+06 3.49639e+06 0 -863566 3.28393e+06 0 -724008 3.08606e+06 0 -618868 2.90544e+06 0 -537795 2.74126e+06 0 -473853 2.59185e+06 0 -422418 2.45531e+06 0 -380299 2.32992e+06 0 -345266 2.21417e+06 0 -315716 2.10678e+06 0 -290483 2.00667e+06 0 -268693 1.91295e+06 0 -249688 1.82487e+06 0 -232963 1.74181e+06 0 -218121 1.66322e+06 0 -204851 1.58865e+06 0 -192905 1.51773e+06 0 -182082 1.45012e+06 0 -172219 1.38555e+06 0 -163181 1.32375e+06 0 -154856 1.26453e+06 0 -147154 1.2077e+06 0 -139994 1.15309e+06 0 -133313 1.10057e+06 0 -127054 1.05001e+06 0 -121170 1.0013e+06 0 -115619 954339 0 -110366 909052 0 -105382 865358 0 -100640 823188 0 -96117 782484 0 -91793.5 743190 0 -87652 705259 0 -83677.6 668647 0 -79857.1 633316 0 -76179.1 599231 0 -72633.4 566360 0 -69211.4 534674 0 -65905.6 504146 0 -62709.4 474754 0 -59617 446474 0 -56623.7 419286 0 -53725.2 393171 0 -50918 368109 0 -48199.1 344084 0 -45566.1 321078 0 -43016.8 299076 0 -40549.7 278060 0 -38163.3 258015 0 -35856.6 238925 0 -33629 220772 0 -31479.7 203541 0 -29408.4 187213 0 -27414.9 171772 0 -25498.9 157197 0 -23660.4 143472 0 -21899.3 130574 0 -20215.6 118484 0 -18609.2 107180 0 -17080 96638.4 0 -15627.7 86836.2 0 -14252.1 77748.6 0 -12952.7 69350.1 0 -11728.9 61614.4 0 -10579.9 54514.3 0 -9504.82 48021.8 0 -8502.49 42108.2 0 -7571.54 36744.3 0 -6710.4 31900.3 0 -5917.26 27546.1 0 -5190.1 23651.5 0 -4526.68 20186.1 0 -3924.54 17119.6 0 -3381.03 14421.8 0 -2893.3 12063.2 0 -2458.37 10014.8 0 -2073.07 8248.07 0 -1734.17 6735.71 0 -1438.3 5451.33 0 -1182.1 4369.77 0 -962.128 3467.2 0 -775.006 2721.24 0 -617.386 2111.05 0 -486.014 1617.42 0 -377.753 1222.8 0 -289.619 911.316 0 -218.805 668.811 0 -162.707 482.777 0 -118.941 342.322 0 -85.3551 238.093 0 -60.0391 162.177 0 -41.3241 107.993 0 -27.7786 70.1623 0 -18.1983 44.3772 0 -11.5912 27.2574 0 -7.15869 16.2131 0 -4.27394 9.30953 0 -2.45821 5.14175 0 -1.35675 2.72041 0 -0.71536 1.37231 0 -0.358478 0.656441 0 -0.169718 0.295881 0 -0.0753948 0.124723 0 -0.0311728 0.0487333 0 -0.0118822 0.0174641 0 -0.00413044 0.0056702 0 -0.0012938 0.00163295 0 -0.000356888 0.000411739 0 -8.34257e-05 8.70861e-05 0 -1.81161e-05 1.55466e-05 0 -5.81732e-06 -2.03913e-06 0 1.27542e-06 3.54694e-06 0 2.5327e-06 7.49575e-06 0 3.30554e-07 4.97606e-06 0 6.07644e-07 1.87391e-05 0 -1.12942e-06 -7.50553e-06 0 -1.32055e-06 -7.56839e-06 0 -1.51753e-06 2.9942e-06 0 5.71701e-07 6.68503e-06 0 1.7493e-06 -3.55346e-06 0 2.53785e-08 -1.56001e-05 0 2.99216e-07 1.3018e-05 0 -2.04577e-06 -2.52165e-05 0 1.28096e-05 0.000281595 0 -2.56405e+06 3.53617e+06 0 -2.16795e+06 3.62891e+06 0 -1.78981e+06 3.59831e+06 0 -1.4714e+06 3.48624e+06 0 -1.21923e+06 3.3343e+06 0 -1.02409e+06 3.16905e+06 0 -873162 3.00479e+06 0 -755319 2.84784e+06 0 -661987 2.70062e+06 0 -586937 2.56351e+06 0 -525665 2.43609e+06 0 -474925 2.31755e+06 0 -432350 2.20705e+06 0 -396193 2.10373e+06 0 -365148 2.00684e+06 0 -338224 1.91569e+06 0 -314658 1.82969e+06 0 -293859 1.74831e+06 0 -275361 1.67111e+06 0 -258791 1.5977e+06 0 -243850 1.52774e+06 0 -230298 1.46093e+06 0 -217935 1.39703e+06 0 -206597 1.3358e+06 0 -196149 1.27705e+06 0 -186476 1.22062e+06 0 -177482 1.16635e+06 0 -169087 1.1141e+06 0 -161221 1.06376e+06 0 -153825 1.01523e+06 0 -146847 968416 0 -140246 923232 0 -133981 879607 0 -128021 837476 0 -122336 796781 0 -116903 757470 0 -111699 719497 0 -106705 682819 0 -101904 647398 0 -97282.5 613201 0 -92827.3 580197 0 -88527.1 548358 0 -84372.5 517659 0 -80355 488075 0 -76467.3 459585 0 -72703.2 432170 0 -69057.1 405810 0 -65524.5 380489 0 -62101.5 356188 0 -58784.9 332892 0 -55571.8 310585 0 -52460 289251 0 -49447.9 268876 0 -46533.9 249444 0 -43716.9 230940 0 -40996.2 213347 0 -38371.2 196650 0 -35841.5 180831 0 -33406.9 165874 0 -31067.3 151761 0 -28822.5 138472 0 -26672.6 125989 0 -24617.4 114290 0 -22657 103354 0 -20791.2 93159.9 0 -19019.7 83683.6 0 -17342.1 74901.1 0 -15757.8 66787.5 0 -14266.2 59316.9 0 -12866.1 52462.7 0 -11556.5 46197.5 0 -10335.8 40493.2 0 -9202.37 35321.3 0 -8154.26 30652.7 0 -7189.2 26458.1 0 -6304.69 22707.9 0 -5497.93 19372.5 0 -4765.9 16422.4 0 -4105.32 13828.4 0 -3512.7 11561.6 0 -2984.35 9593.85 0 -2516.42 7897.66 0 -2104.92 6446.43 0 -1745.75 5214.63 0 -1434.77 4177.92 0 -1167.82 3313.26 0 -940.751 2599.05 0 -749.501 2015.18 0 -590.105 1543.11 0 -458.751 1165.96 0 -351.81 868.458 0 -265.877 636.983 0 -197.79 459.525 0 -144.656 325.634 0 -103.869 226.343 0 -73.1116 154.073 0 -50.3622 102.528 0 -33.886 66.5658 0 -22.2238 42.0723 0 -14.1733 25.8225 0 -8.76642 15.3476 0 -5.24283 8.80531 0 -3.02151 4.85899 0 -1.67153 2.56836 0 -0.883707 1.29423 0 -0.444226 0.618354 0 -0.211084 0.278312 0 -0.094169 0.117122 0 -0.0391289 0.0456644 0 -0.0150023 0.0163109 0 -0.00525035 0.00526728 0 -0.00165768 0.00151008 0 -0.000462404 0.000375477 0 -0.00010943 8.29678e-05 0 -2.33165e-05 1.75489e-05 0 -6.14134e-06 9.16398e-06 0 1.18505e-06 5.58421e-06 0 2.54673e-06 5.61262e-06 0 1.01612e-06 -2.69804e-06 0 -4.08167e-07 8.03918e-06 0 -4.09302e-07 1.90018e-05 0 -1.49904e-06 2.63983e-06 0 -1.70074e-06 -2.75858e-06 0 -3.1403e-08 -1.16294e-05 0 1.58389e-06 9.07201e-06 0 7.71484e-07 -1.81124e-05 0 3.43076e-07 1.93026e-05 0 -1.27119e-05 -0.000193007 0 -2.45714e+06 3.25819e+06 0 -2.15384e+06 3.34041e+06 0 -1.85208e+06 3.34056e+06 0 -1.57918e+06 3.2766e+06 0 -1.34782e+06 3.172e+06 0 -1.15787e+06 3.04653e+06 0 -1.00397e+06 2.91322e+06 0 -879354 2.77979e+06 0 -777902 2.65025e+06 0 -694558 2.52653e+06 0 -625387 2.40929e+06 0 -567360 2.29862e+06 0 -518174 2.19425e+06 0 -476061 2.09578e+06 0 -439665 2.00275e+06 0 -407932 1.91472e+06 0 -380039 1.83126e+06 0 -355333 1.75196e+06 0 -333294 1.67649e+06 0 -313507 1.60452e+06 0 -295630 1.53576e+06 0 -279388 1.46997e+06 0 -264551 1.40692e+06 0 -250930 1.34642e+06 0 -238366 1.2883e+06 0 -226727 1.23238e+06 0 -215899 1.17855e+06 0 -205786 1.12668e+06 0 -196308 1.07665e+06 0 -187394 1.02838e+06 0 -178983 981773 0 -171024 936755 0 -163471 893256 0 -156285 851216 0 -149431 810579 0 -142879 771295 0 -136604 733320 0 -130583 696613 0 -124794 661138 0 -119222 626863 0 -113849 593758 0 -108663 561796 0 -103653 530952 0 -98806.2 501204 0 -94115.6 472530 0 -89572.9 444912 0 -85171.3 418332 0 -80905.1 392773 0 -76769.6 368218 0 -72760.4 344653 0 -68874.3 322062 0 -65108.3 300430 0 -61460.1 279744 0 -57927.9 259989 0 -54510.3 241150 0 -51206.1 223212 0 -48014.7 206161 0 -44935.4 189980 0 -41968 174654 0 -39112.3 160166 0 -36368.1 146498 0 -33735.5 133632 0 -31214.5 121549 0 -28805 110228 0 -26507 99649.6 0 -24320.2 89791.2 0 -22244.4 80630 0 -20279.1 72142.7 0 -18423.5 64304.6 0 -16676.8 57090.4 0 -15037.8 50474.1 0 -13505 44428.7 0 -12076.7 38927 0 -10750.9 33940.9 0 -9525.11 29442.1 0 -8396.75 25401.9 0 -7362.81 21791.4 0 -6420 18581.9 0 -5564.7 15744.6 0 -4793.06 13251.1 0 -4100.94 11073.3 0 -3484.01 9183.8 0 -2937.7 7556.01 0 -2457.35 6164.12 0 -2038.14 4983.4 0 -1675.21 3990.29 0 -1363.68 3162.52 0 -1098.7 2479.23 0 -875.521 1921.01 0 -689.501 1470.01 0 -536.189 1109.94 0 -411.353 826.118 0 -311.016 605.461 0 -231.493 436.434 0 -169.412 309.01 0 -121.733 214.596 0 -85.7585 145.939 0 -59.1319 97.0173 0 -39.8318 62.9205 0 -26.1574 39.7223 0 -16.7071 24.3494 0 -10.3514 14.4521 0 -6.20309 8.27881 0 -3.5831 4.56058 0 -1.98742 2.40587 0 -1.05391 1.20958 0 -0.531642 0.576328 0 -0.253645 0.258543 0 -0.11369 0.10835 0 -0.0474999 0.0420206 0 -0.0183282 0.0148991 0 -0.00646152 0.00476677 0 -0.00205814 0.00133683 0 -0.000579417 0.000327935 0 -0.000140125 5.97886e-05 0 -2.94619e-05 1.01454e-05 0 -7.3703e-06 4.06336e-06 0 -9.2783e-07 1.09058e-06 0 2.37924e-06 -3.76534e-06 0 2.27281e-06 -5.71832e-07 0 1.57277e-07 3.26242e-06 0 -1.55147e-06 9.70345e-06 0 -2.03287e-06 -4.2785e-06 0 -1.02576e-06 -6.143e-06 0 -8.55653e-07 -9.23127e-06 0 2.22528e-06 2.20556e-05 0 -9.17353e-08 -3.59491e-05 0 7.81147e-06 0.000114918 0 -2.37218e+06 3.03959e+06 0 -2.13269e+06 3.1093e+06 0 -1.8867e+06 3.12308e+06 0 -1.65416e+06 3.08786e+06 0 -1.44657e+06 3.01669e+06 0 -1.26779e+06 2.92263e+06 0 -1.11681e+06 2.81617e+06 0 -990343 2.70454e+06 0 -884514 2.59235e+06 0 -795654 2.48229e+06 0 -720600 2.37583e+06 0 -656752 2.27368e+06 0 -602014 2.17611e+06 0 -554718 2.08309e+06 0 -513536 1.99448e+06 0 -477410 1.91005e+06 0 -445494 1.82955e+06 0 -417106 1.75271e+06 0 -391695 1.67928e+06 0 -368813 1.60903e+06 0 -348091 1.54172e+06 0 -329225 1.47716e+06 0 -311963 1.41516e+06 0 -296093 1.35555e+06 0 -281438 1.29818e+06 0 -267848 1.24292e+06 0 -255195 1.18964e+06 0 -243372 1.13824e+06 0 -232284 1.08862e+06 0 -221852 1.04068e+06 0 -212006 994356 0 -202687 949570 0 -193841 906258 0 -185423 864364 0 -177394 823835 0 -169719 784624 0 -162368 746690 0 -155312 709995 0 -148530 674503 0 -142000 640185 0 -135704 607011 0 -129626 574957 0 -123752 543998 0 -118070 514113 0 -112570 485282 0 -107242 457488 0 -102078 430712 0 -97070.4 404938 0 -92214.5 380152 0 -87504.8 356339 0 -82937 333485 0 -78507.7 311575 0 -74214.1 290597 0 -70053.7 270537 0 -66024.8 251381 0 -62126 233116 0 -58356.2 215727 0 -54714.8 199200 0 -51201.3 183519 0 -47815.4 168670 0 -44557.1 154636 0 -41426.2 141399 0 -38423 128942 0 -35547.3 117246 0 -32799.3 106292 0 -30178.7 96058.5 0 -27685.5 86525.1 0 -25319.2 77669.1 0 -23079.2 69467.4 0 -20964.8 61896 0 -18974.8 54930 0 -17107.9 48543.9 0 -15362.4 42711.5 0 -13736.2 37405.9 0 -12227 32599.7 0 -10832 28265.3 0 -9548.06 24374.7 0 -8371.83 20899.7 0 -7299.45 17812.3 0 -6326.8 15084.3 0 -5449.42 12688.3 0 -4662.57 10596.9 0 -3961.28 8783.41 0 -3340.34 7222.09 0 -2794.41 5887.9 0 -2317.98 4756.89 0 -1905.53 3806.24 0 -1551.48 3014.45 0 -1250.33 2361.34 0 -996.649 1828.19 0 -785.176 1397.79 0 -610.85 1054.47 0 -468.864 784.096 0 -354.703 574.088 0 -264.186 413.376 0 -193.486 292.349 0 -139.154 202.776 0 -98.1306 137.716 0 -67.7409 91.418 0 -45.6912 59.1944 0 -30.0505 37.3038 0 -19.2266 22.8217 0 -11.9359 13.5151 0 -7.16861 7.72231 0 -4.15142 4.24145 0 -2.3094 2.22975 0 -1.22877 1.11638 0 -0.62224 0.529229 0 -0.298186 0.235921 0 -0.13434 0.0980697 0 -0.0564618 0.0376273 0 -0.0219352 0.0131521 0 -0.00779617 0.0041161 0 -0.00250512 0.00112271 0 -0.000713643 0.000264061 0 -0.000175757 4.34211e-05 0 -3.61042e-05 5.4976e-06 0 -9.151e-06 -9.36352e-06 0 -2.13573e-06 -2.85264e-06 0 1.15801e-06 -5.72763e-06 0 3.83053e-06 -5.12227e-07 0 1.33895e-06 1.1432e-05 0 -3.62366e-06 -7.20471e-06 0 -1.81625e-06 5.9735e-06 0 1.79862e-08 -8.15839e-07 0 -9.40345e-07 5.11855e-06 0 1.2425e-06 2.18172e-05 0 -4.39491e-06 -6.41644e-05 0 -2.30707e+06 2.86068e+06 0 -2.11028e+06 2.91899e+06 0 -1.90606e+06 2.93794e+06 0 -1.70699e+06 2.9199e+06 0 -1.52257e+06 2.87167e+06 0 -1.35755e+06 2.80161e+06 0 -1.2132e+06 2.71737e+06 0 -1.08852e+06 2.62506e+06 0 -981443 2.52906e+06 0 -889573 2.43231e+06 0 -810587 2.33672e+06 0 -742403 2.24342e+06 0 -683242 2.15305e+06 0 -631615 2.06593e+06 0 -586289 1.98217e+06 0 -546256 1.90175e+06 0 -510684 1.82458e+06 0 -478894 1.75054e+06 0 -450324 1.67945e+06 0 -424510 1.61118e+06 0 -401065 1.54556e+06 0 -379670 1.48243e+06 0 -360053 1.42166e+06 0 -341988 1.3631e+06 0 -325282 1.30664e+06 0 -309772 1.25216e+06 0 -295317 1.19955e+06 0 -281798 1.14872e+06 0 -269112 1.09959e+06 0 -257169 1.05208e+06 0 -245891 1.00611e+06 0 -235213 961628 0 -225074 918566 0 -215425 876874 0 -206219 836506 0 -197417 797417 0 -188985 759569 0 -180891 722927 0 -173111 687458 0 -165618 653132 0 -158394 619925 0 -151419 587811 0 -144677 556767 0 -138154 526775 0 -131838 497815 0 -125718 469870 0 -119785 442923 0 -114030 416960 0 -108447 391966 0 -103029 367928 0 -97772.1 344832 0 -92671.3 322665 0 -87723.5 301415 0 -82925.7 281070 0 -78275.7 261615 0 -73771.8 243040 0 -69412.6 225330 0 -65197.3 208472 0 -61125.3 192452 0 -57196.2 177256 0 -53409.8 162868 0 -49766 149273 0 -46265.1 136453 0 -42907.1 124392 0 -39692 113072 0 -36620 102472 0 -33690.9 92573.5 0 -30904.5 83354.9 0 -28260.3 74794.4 0 -25757.7 66869.4 0 -23395.8 59556.3 0 -21173.3 52830.8 0 -19088.5 46667.8 0 -17139.7 41041.7 0 -15324.4 35926.2 0 -13640 31294.5 0 -12083.2 27119.5 0 -10650.7 23374 0 -9338.57 20030.5 0 -8142.42 17061.5 0 -7057.63 14439.8 0 -6079.19 12138.4 0 -5201.79 10130.9 0 -4419.84 8391.43 0 -3727.52 6894.82 0 -3118.82 5616.84 0 -2587.61 4534.29 0 -2127.7 3625.1 0 -1732.88 2868.46 0 -1397 2244.88 0 -1114 1736.3 0 -878.034 1326.14 0 -683.456 999.288 0 -524.914 742.163 0 -397.384 542.677 0 -296.211 390.206 0 -217.137 275.538 0 -156.326 190.792 0 -110.369 129.336 0 -76.29 85.6771 0 -51.5349 55.3482 0 -33.9515 34.7884 0 -21.7644 21.2189 0 -13.5409 12.5223 0 -8.15277 7.12607 0 -4.73468 3.89516 0 -2.64232 2.03586 0 -1.41104 1.01208 0 -0.717531 0.475532 0 -0.345497 0.209575 0 -0.15651 0.0858113 0 -0.0661951 0.0322568 0 -0.025906 0.0109425 0 -0.00928481 0.00328 0 -0.00301214 0.000826669 0 -0.000869268 0.000174944 0 -0.000218345 1.32723e-05 0 -4.52917e-05 -2.6999e-06 0 -8.89495e-06 -3.09944e-06 0 -3.07907e-06 9.42498e-07 0 1.83878e-07 2.63192e-06 0 4.69096e-06 -2.82656e-06 0 1.36322e-06 1.7425e-06 0 -3.88076e-06 -1.35768e-05 0 -3.46638e-06 -8.91276e-06 0 1.94984e-06 1.06581e-05 0 -1.095e-06 3.18885e-06 0 1.04476e-05 0.000129983 0 -2.25485e+06 2.7094e+06 0 -2.08964e+06 2.75824e+06 0 -1.91678e+06 2.77852e+06 0 -1.74507e+06 2.77061e+06 0 -1.58158e+06 2.73803e+06 0 -1.4309e+06 2.68589e+06 0 -1.29517e+06 2.61955e+06 0 -1.17473e+06 2.54376e+06 0 -1.06881e+06 2.46232e+06 0 -976054 2.37808e+06 0 -894899 2.29305e+06 0 -823803 2.2086e+06 0 -761346 2.12561e+06 0 -706270 2.04466e+06 0 -657491 1.96606e+06 0 -614088 1.88996e+06 0 -575280 1.81644e+06 0 -540414 1.74547e+06 0 -508938 1.677e+06 0 -480389 1.61095e+06 0 -454378 1.54723e+06 0 -430573 1.48574e+06 0 -408696 1.42637e+06 0 -388509 1.36902e+06 0 -369810 1.31361e+06 0 -352423 1.26003e+06 0 -336200 1.20822e+06 0 -321011 1.15807e+06 0 -306745 1.10953e+06 0 -293306 1.06252e+06 0 -280608 1.01699e+06 0 -268578 972878 0 -257152 930130 0 -246273 888701 0 -235891 848548 0 -225962 809632 0 -216449 771918 0 -207316 735372 0 -198534 699966 0 -190077 665672 0 -181920 632466 0 -174044 600326 0 -166430 569230 0 -159062 539161 0 -151926 510100 0 -145009 482032 0 -138301 454941 0 -131793 428813 0 -125476 403636 0 -119344 379395 0 -113391 356079 0 -107611 333677 0 -102001 312175 0 -96557.7 291564 0 -91277.6 271830 0 -86159 252962 0 -81200.3 234948 0 -76400.3 217776 0 -71758.2 201432 0 -67273.6 185904 0 -62946.1 171177 0 -58775.7 157236 0 -54762.7 144066 0 -50907 131652 0 -47208.9 119975 0 -43668.5 109017 0 -40285.9 98761.5 0 -37061 89187 0 -33993.6 80273.5 0 -31083.1 71999.5 0 -28328.9 64342.7 0 -25729.8 57280 0 -23284.4 50787.7 0 -20991 44841.1 0 -18847.3 39415.2 0 -16850.9 34484.1 0 -14998.5 30021.7 0 -13286.8 26001.5 0 -11711.9 22396.9 0 -10269.5 19181.1 0 -8954.62 16327.2 0 -7762.27 13808.8 0 -6686.88 11599.6 0 -5722.56 9673.91 0 -4863.14 8006.48 0 -4102.2 6572.98 0 -3433.13 5349.88 0 -2849.19 4314.7 0 -2343.55 3446.08 0 -1909.4 2723.88 0 -1539.97 2129.3 0 -1228.62 1644.88 0 -968.919 1254.65 0 -754.684 944.064 0 -580.039 700.055 0 -439.477 511.014 0 -327.89 366.751 0 -240.611 258.437 0 -173.429 178.538 0 -122.606 120.715 0 -84.8749 79.7315 0 -57.4302 51.3347 0 -37.9068 32.1411 0 -24.3517 19.516 0 -15.187 11.4563 0 -9.16857 6.47804 0 -5.3409 3.51368 0 -2.99096 1.81901 0 -1.60351 0.893446 0 -0.819045 0.413305 0 -0.396385 0.178418 0 -0.180606 0.0709829 0 -0.0768961 0.0255888 0 -0.0303244 0.00814238 0 -0.0109655 0.00216943 0 -0.00359093 0.000431691 0 -0.00105018 3.62433e-05 0 -0.000267788 -1.72779e-05 0 -5.81749e-05 -1.71382e-05 0 -1.04522e-05 -1.48891e-05 0 -4.26476e-06 -7.06129e-06 0 3.14321e-08 5.52274e-06 0 4.92588e-06 7.98702e-06 0 6.78003e-07 -1.40592e-05 0 -3.49921e-06 -8.43219e-06 0 -3.35975e-06 -1.05351e-05 0 2.47662e-06 1.58362e-05 0 -6.63474e-06 -9.19551e-05 0 -2.21322e+06 2.57858e+06 0 -2.07135e+06 2.6197e+06 0 -1.92277e+06 2.63947e+06 0 -1.77324e+06 2.63754e+06 0 -1.62808e+06 2.61559e+06 0 -1.49117e+06 2.5767e+06 0 -1.36485e+06 2.52448e+06 0 -1.25016e+06 2.46249e+06 0 -1.14712e+06 2.3938e+06 0 -1.05515e+06 2.32096e+06 0 -973339 2.24589e+06 0 -900622 2.17003e+06 0 -835940 2.0944e+06 0 -778292 2.01971e+06 0 -726767 1.94644e+06 0 -680560 1.87489e+06 0 -638969 1.80524e+06 0 -601388 1.73758e+06 0 -567294 1.67195e+06 0 -536241 1.60834e+06 0 -507845 1.54672e+06 0 -481777 1.48704e+06 0 -457757 1.42925e+06 0 -435541 1.37327e+06 0 -414921 1.31904e+06 0 -395717 1.2665e+06 0 -377771 1.21558e+06 0 -360950 1.16623e+06 0 -345134 1.11837e+06 0 -330221 1.07196e+06 0 -316120 1.02694e+06 0 -302752 983272 0 -290048 940905 0 -277947 899800 0 -266394 859920 0 -255343 821229 0 -244750 783696 0 -234579 747292 0 -224796 711991 0 -215373 677768 0 -206283 644601 0 -197503 612470 0 -189014 581355 0 -180797 551240 0 -172837 522109 0 -165120 493946 0 -157633 466737 0 -150367 440471 0 -143312 415134 0 -136460 390715 0 -129804 367203 0 -123339 344586 0 -117060 322855 0 -110963 301997 0 -105045 282003 0 -99302.7 262862 0 -93735.1 244562 0 -88340.4 227093 0 -83117.6 210441 0 -78066 194596 0 -73185.4 179544 0 -68475.6 165271 0 -63936.8 151764 0 -59569.1 139007 0 -55372.8 126984 0 -51348.1 115679 0 -47495.4 105074 0 -43814.6 95151.8 0 -40305.7 85891.7 0 -36968.4 77274.1 0 -33802.2 69277.9 0 -30806.2 61881.4 0 -27979.3 55061.8 0 -25319.9 48795.7 0 -22826 43059.3 0 -20495.2 37827.6 0 -18324.6 33075.7 0 -16310.9 28777.8 0 -14450.2 24908.1 0 -12738.3 21440.6 0 -11170.5 18349 0 -9741.41 15607.2 0 -8445.5 13189.5 0 -7276.68 11070.1 0 -6228.54 9224.15 0 -5294.37 7627.11 0 -4467.17 6255.3 0 -3739.74 5085.91 0 -3104.75 4097.16 0 -2554.8 3268.35 0 -2082.47 2580.02 0 -1680.43 2013.98 0 -1341.47 1553.41 0 -1058.62 1182.89 0 -825.167 888.434 0 -634.743 657.471 0 -481.375 478.854 0 -359.527 342.811 0 -264.136 240.89 0 -190.636 165.887 0 -134.969 111.756 0 -93.5871 73.5065 0 -63.4419 47.0977 0 -41.9613 29.3205 0 -27.0186 17.6829 0 -16.8939 10.2955 0 -10.2288 5.76348 0 -5.97807 3.08712 0 -3.36016 1.57279 0 -1.80896 0.756444 0 -0.928344 0.340103 0 -0.451684 0.141012 0 -0.20705 0.0528116 0 -0.0887644 0.0172292 0 -0.0352826 0.0045339 0 -0.0128732 0.000717154 0 -0.00425813 -0.000105889 0 -0.00126081 -0.00014786 0 -0.000328038 -7.54828e-05 0 -7.19695e-05 -3.17972e-05 0 -1.20765e-05 -1.00248e-05 0 -3.98059e-06 -1.19209e-06 0 -1.251e-06 -6.29947e-06 0 3.16859e-06 -4.4778e-06 0 1.68453e-06 -1.23791e-05 0 -3.38675e-06 -1.36886e-05 0 -3.46452e-06 -1.24164e-05 0 5.52926e-06 4.93675e-05 0 -2.17924e+06 2.46342e+06 0 -2.05568e+06 2.49827e+06 0 -1.92615e+06 2.51677e+06 0 -1.79475e+06 2.51828e+06 0 -1.66536e+06 2.50357e+06 0 -1.54114e+06 2.47442e+06 0 -1.4243e+06 2.43323e+06 0 -1.31611e+06 2.38256e+06 0 -1.21709e+06 2.32482e+06 0 -1.12717e+06 2.26213e+06 0 -1.04592e+06 2.19623e+06 0 -972700 2.12851e+06 0 -906770 2.06002e+06 0 -847380 