<?xml version="1.0"?> 
<VTKFile type="StructuredGrid" version="0.1"> 
<StructuredGrid WholeExtent="0 127 0 127 0 0"> 
<Piece Extent="0 127 0 127 0 0"> 
<PointData>
<DataArray type="Float32" Name="|E|" format="ascii" NumberOfComponents="3"> 
-2.02397e+06 0 0 -2.02398e+06 1282.44 0 -2.02399e+06 2564.9 0 -2.024e+06 3847.37 0 -2.02403e+06 5129.88 0 -2.02406e+06 6412.44 0 -2.0241e+06 7695.05 0 -2.02414e+06 8977.73 0 -2.0242e+06 10260.5 0 -2.02426e+06 11543.3 0 -2.02432e+06 12826.3 0 -2.0244e+06 14109.4 0 -2.02448e+06 15392.6 0 -2.02456e+06 16675.9 0 -2.02466e+06 17959.4 0 -2.02476e+06 19243 0 -2.02487e+06 20526.8 0 -2.02499e+06 21810.8 0 -2.02511e+06 23095 0 -2.02524e+06 24379.4 0 -2.02538e+06 25664 0 -2.02552e+06 26948.8 0 -2.02567e+06 28233.9 0 -2.02583e+06 29519.2 0 -2.02599e+06 30804.8 0 -2.02616e+06 32090.6 0 -2.02634e+06 33376.8 0 -2.02653e+06 34663.2 0 -2.02672e+06 35950 0 -2.02692e+06 37237 0 -2.02713e+06 38524.4 0 -2.02734e+06 39812.2 0 -2.02757e+06 41100.3 0 -2.02779e+06 42388.7 0 -2.02803e+06 43677.6 0 -2.02827e+06 44966.8 0 -2.02852e+06 46256.4 0 -2.02878e+06 47546.5 0 -2.02904e+06 48836.9 0 -2.02931e+06 50127.8 0 -2.02959e+06 51419.2 0 -2.02987e+06 52711 0 -2.03017e+06 54003.3 0 -2.03046e+06 55296 0 -2.03077e+06 56589.3 0 -2.03108e+06 57883.1 0 -2.0314e+06 59177.3 0 -2.03173e+06 60472.2 0 -2.03206e+06 61767.5 0 -2.03241e+06 63063.4 0 -2.03275e+06 64359.9 0 -2.03311e+06 65656.9 0 -2.03347e+06 66954.6 0 -2.03384e+06 68252.8 0 -2.03422e+06 69551.6 0 -2.0346e+06 70851.1 0 -2.03499e+06 72151.2 0 -2.03539e+06 73452 0 -2.03579e+06 74753.4 0 -2.03621e+06 76055.5 0 -2.03663e+06 77358.3 0 -2.03705e+06 78661.7 0 -2.03748e+06 79965.9 0 -2.03792e+06 81270.8 0 -2.03837e+06 82576.5 0 -2.03883e+06 83882.8 0 -2.03929e+06 85190 0 -2.03976e+06 86497.9 0 -2.04023e+06 87806.6 0 -2.04072e+06 89116.1 0 -2.04121e+06 90426.4 0 -2.0417e+06 91737.5 0 -2.04221e+06 93049.4 0 -2.04272e+06 94362.2 0 -2.04324e+06 95675.9 0 -2.04376e+06 96990.4 0 -2.0443e+06 98305.8 0 -2.04484e+06 99622.1 0 -2.04538e+06 100939 0 -2.04594e+06 102257 0 -2.0465e+06 103576 0 -2.04707e+06 104896 0 -2.04764e+06 106217 0 -2.04823e+06 107539 0 -2.04882e+06 108862 0 -2.04941e+06 110186 0 -2.05002e+06 111511 0 -2.05063e+06 112837 0 -2.05125e+06 114164 0 -2.05188e+06 115492 0 -2.05251e+06 116821 0 -2.05315e+06 118151 0 -2.0538e+06 119483 0 -2.05445e+06 120815 0 -2.05511e+06 122148 0 -2.05578e+06 123483 0 -2.05646e+06 124819 0 -2.05714e+06 126156 0 -2.05784e+06 127494 0 -2.05853e+06 128833 0 -2.05924e+06 130173 0 -2.05995e+06 131515 0 -2.06067e+06 132858 0 -2.0614e+06 134202 0 -2.06213e+06 135547 0 -2.06288e+06 136894 0 -2.06362e+06 138242 0 -2.06438e+06 139591 0 -2.06514e+06 140941 0 -2.06591e+06 142293 0 -2.06669e+06 143646 0 -2.06748e+06 145001 0 -2.06827e+06 146357 0 -2.06907e+06 147714 0 -2.06988e+06 149072 0 -2.07069e+06 150432 0 -2.07151e+06 151794 0 -2.07234e+06 153157 0 -2.07318e+06 154521 0 -2.07402e+06 155887 0 -2.07488e+06 157254 0 -2.07573e+06 158623 0 -2.0766e+06 159993 0 -2.07747e+06 161365 0 -2.07835e+06 162738 0 -2.07924e+06 164113 0 -2.08014e+06 165489 0 -2.08104e+06 166867 0 -2.02285e+06 0 0 -2.02285e+06 1341.85 0 -2.02286e+06 2683.7 0 -2.02288e+06 4025.59 0 -2.02291e+06 5367.51 0 -2.02294e+06 6709.48 0 -2.02298e+06 8051.52 0 -2.02303e+06 9393.64 0 -2.02309e+06 10735.8 0 -2.02315e+06 12078.2 0 -2.02323e+06 13420.6 0 -2.02331e+06 14763.1 0 -2.02339e+06 16105.8 0 -2.02349e+06 17448.7 0 -2.02359e+06 18791.7 0 -2.0237e+06 20134.9 0 -2.02382e+06 21478.3 0 -2.02394e+06 22821.9 0 -2.02408e+06 24165.7 0 -2.02422e+06 25509.8 0 -2.02437e+06 26854 0 -2.02452e+06 28198.6 0 -2.02469e+06 29543.4 0 -2.02486e+06 30888.5 0 -2.02504e+06 32233.9 0 -2.02522e+06 33579.7 0 -2.02542e+06 34925.7 0 -2.02562e+06 36272.1 0 -2.02583e+06 37618.8 0 -2.02604e+06 38965.9 0 -2.02627e+06 40313.3 0 -2.0265e+06 41661.2 0 -2.02674e+06 43009.5 0 -2.02699e+06 44358.1 0 -2.02724e+06 45707.2 0 -2.0275e+06 47056.8 0 -2.02777e+06 48406.7 0 -2.02805e+06 49757.2 0 -2.02834e+06 51108.1 0 -2.02863e+06 52459.6 0 -2.02893e+06 53811.5 0 -2.02924e+06 55164 0 -2.02955e+06 56517 0 -2.02988e+06 57870.5 0 -2.03021e+06 59224.6 0 -2.03055e+06 60579.3 0 -2.03089e+06 61934.6 0 -2.03125e+06 63290.4 0 -2.03161e+06 64646.9 0 -2.03198e+06 66004 0 -2.03236e+06 67361.8 0 -2.03274e+06 68720.2 0 -2.03313e+06 70079.2 0 -2.03353e+06 71439 0 -2.03394e+06 72799.4 0 -2.03436e+06 74160.6 0 -2.03478e+06 75522.5 0 -2.03521e+06 76885.1 0 -2.03565e+06 78248.4 0 -2.0361e+06 79612.6 0 -2.03655e+06 80977.5 0 -2.03701e+06 82343.2 0 -2.03748e+06 83709.7 0 -2.03796e+06 85077 0 -2.03844e+06 86445.1 0 -2.03894e+06 87814.1 0 -2.03944e+06 89184 0 -2.03994e+06 90554.7 0 -2.04046e+06 91926.4 0 -2.04098e+06 93298.9 0 -2.04151e+06 94672.3 0 -2.04205e+06 96046.7 0 -2.0426e+06 97422 0 -2.04315e+06 98798.3 0 -2.04371e+06 100176 0 -2.04428e+06 101554 0 -2.04486e+06 102933 0 -2.04545e+06 104313 0 -2.04604e+06 105695 0 -2.04664e+06 107077 0 -2.04725e+06 108460 0 -2.04786e+06 109845 0 -2.04849e+06 111230 0 -2.04912e+06 112617 0 -2.04976e+06 114005 0 -2.05041e+06 115394 0 -2.05106e+06 116784 0 -2.05172e+06 118175 0 -2.05239e+06 119567 0 -2.05307e+06 120961 0 -2.05376e+06 122356 0 -2.05445e+06 123752 0 -2.05515e+06 125149 0 -2.05586e+06 126548 0 -2.05658e+06 127947 0 -2.05731e+06 129348 0 -2.05804e+06 130751 0 -2.05878e+06 132155 0 -2.05953e+06 133560 0 -2.06029e+06 134966 0 -2.06105e+06 136374 0 -2.06182e+06 137783 0 -2.0626e+06 139193 0 -2.06339e+06 140605 0 -2.06419e+06 142018 0 -2.06499e+06 143433 0 -2.0658e+06 144849 0 -2.06662e+06 146267 0 -2.06745e+06 147686 0 -2.06829e+06 149107 0 -2.06913e+06 150529 0 -2.06998e+06 151953 0 -2.07084e+06 153378 0 -2.07171e+06 154805 0 -2.07258e+06 156233 0 -2.07347e+06 157663 0 -2.07436e+06 159095 0 -2.07526e+06 160528 0 -2.07616e+06 161963 0 -2.07708e+06 163400 0 -2.078e+06 164838 0 -2.07893e+06 166278 0 -2.07987e+06 167720 0 -2.08082e+06 169163 0 -2.08177e+06 170608 0 -2.08274e+06 172055 0 -2.08371e+06 173504 0 -2.08469e+06 174954 0 -2.02172e+06 0 0 -2.02172e+06 1401.75 0 -2.02173e+06 2803.51 0 -2.02175e+06 4205.3 0 -2.02178e+06 5607.13 0 -2.02182e+06 7009.02 0 -2.02186e+06 8410.99 0 -2.02192e+06 9813.04 0 -2.02198e+06 11215.2 0 -2.02205e+06 12617.5 0 -2.02213e+06 14019.9 0 -2.02221e+06 15422.4 0 -2.02231e+06 16825.1 0 -2.02241e+06 18228 0 -2.02252e+06 19631.1 0 -2.02264e+06 21034.3 0 -2.02277e+06 22437.8 0 -2.0229e+06 23841.5 0 -2.02305e+06 25245.5 0 -2.0232e+06 26649.7 0 -2.02336e+06 28054.3 0 -2.02353e+06 29459.1 0 -2.0237e+06 30864.2 0 -2.02389e+06 32269.6 0 -2.02408e+06 33675.4 0 -2.02428e+06 35081.5 0 -2.02449e+06 36487.9 0 -2.02471e+06 37894.8 0 -2.02493e+06 39302 0 -2.02517e+06 40709.7 0 -2.02541e+06 42117.8 0 -2.02566e+06 43526.3 0 -2.02592e+06 44935.3 0 -2.02619e+06 46344.7 0 -2.02646e+06 47754.6 0 -2.02674e+06 49165.1 0 -2.02704e+06 50576 0 -2.02733e+06 51987.5 0 -2.02764e+06 53399.5 0 -2.02796e+06 54812 0 -2.02828e+06 56225.2 0 -2.02862e+06 57638.9 0 -2.02896e+06 59053.2 0 -2.02931e+06 60468.2 0 -2.02966e+06 61883.7 0 -2.03003e+06 63300 0 -2.0304e+06 64716.8 0 -2.03079e+06 66134.4 0 -2.03118e+06 67552.7 0 -2.03158e+06 68971.6 0 -2.03198e+06 70391.3 0 -2.0324e+06 71811.8 0 -2.03282e+06 73232.9 0 -2.03325e+06 74654.9 0 -2.0337e+06 76077.6 0 -2.03414e+06 77501.2 0 -2.0346e+06 78925.5 0 -2.03507e+06 80350.7 0 -2.03554e+06 81776.7 0 -2.03602e+06 83203.6 0 -2.03651e+06 84631.4 0 -2.03701e+06 86060.1 0 -2.03752e+06 87489.7 0 -2.03803e+06 88920.2 0 -2.03855e+06 90351.6 0 -2.03909e+06 91784 0 -2.03963e+06 93217.4 0 -2.04017e+06 94651.7 0 -2.04073e+06 96087.1 0 -2.0413e+06 97523.5 0 -2.04187e+06 98960.9 0 -2.04245e+06 100399 0 -2.04304e+06 101839 0 -2.04364e+06 103280 0 -2.04425e+06 104721 0 -2.04486e+06 106164 0 -2.04548e+06 107608 0 -2.04612e+06 109053 0 -2.04676e+06 110500 0 -2.04741e+06 111947 0 -2.04806e+06 113396 0 -2.04873e+06 114846 0 -2.0494e+06 116297 0 -2.05008e+06 117749 0 -2.05077e+06 119203 0 -2.05147e+06 120658 0 -2.05218e+06 122114 0 -2.0529e+06 123571 0 -2.05362e+06 125030 0 -2.05435e+06 126491 0 -2.0551e+06 127952 0 -2.05585e+06 129415 0 -2.0566e+06 130880 0 -2.05737e+06 132345 0 -2.05814e+06 133813 0 -2.05893e+06 135281 0 -2.05972e+06 136751 0 -2.06052e+06 138223 0 -2.06133e+06 139696 0 -2.06215e+06 141171 0 -2.06297e+06 142647 0 -2.06381e+06 144125 0 -2.06465e+06 145604 0 -2.0655e+06 147085 0 -2.06636e+06 148568 0 -2.06723e+06 150052 0 -2.06811e+06 151538 0 -2.06899e+06 153025 0 -2.06989e+06 154515 0 -2.07079e+06 156005 0 -2.0717e+06 157498 0 -2.07262e+06 158992 0 -2.07355e+06 160489 0 -2.07449e+06 161987 0 -2.07543e+06 163486 0 -2.07639e+06 164988 0 -2.07735e+06 166491 0 -2.07832e+06 167996 0 -2.0793e+06 169503 0 -2.08029e+06 171012 0 -2.08129e+06 172523 0 -2.08229e+06 174036 0 -2.08331e+06 175551 0 -2.08433e+06 177068 0 -2.08536e+06 178586 0 -2.08641e+06 180107 0 -2.08745e+06 181630 0 -2.08851e+06 183155 0 -2.02058e+06 0 0 -2.02059e+06 1462.14 0 -2.0206e+06 2924.3 0 -2.02062e+06 4386.5 0 -2.02065e+06 5848.74 0 -2.02069e+06 7311.05 0 -2.02074e+06 8773.44 0 -2.0208e+06 10235.9 0 -2.02086e+06 11698.5 0 -2.02094e+06 13161.3 0 -2.02102e+06 14624.1 0 -2.02112e+06 16087.2 0 -2.02122e+06 17550.4 0 -2.02133e+06 19013.8 0 -2.02145e+06 20477.4 0 -2.02157e+06 21941.3 0 -2.02171e+06 23405.4 0 -2.02186e+06 24869.8 0 -2.02201e+06 26334.4 0 -2.02217e+06 27799.3 0 -2.02235e+06 29264.6 0 -2.02253e+06 30730.2 0 -2.02272e+06 32196.1 0 -2.02292e+06 33662.3 0 -2.02312e+06 35129 0 -2.02334e+06 36596 0 -2.02357e+06 38063.5 0 -2.0238e+06 39531.4 0 -2.02404e+06 40999.7 0 -2.02429e+06 42468.5 0 -2.02456e+06 43937.7 0 -2.02482e+06 45407.5 0 -2.0251e+06 46877.8 0 -2.02539e+06 48348.5 0 -2.02569e+06 49819.9 0 -2.02599e+06 51291.8 0 -2.02631e+06 52764.2 0 -2.02663e+06 54237.3 0 -2.02696e+06 55710.9 0 -2.0273e+06 57185.2 0 -2.02765e+06 58660.2 0 -2.02801e+06 60135.8 0 -2.02838e+06 61612 0 -2.02875e+06 63089 0 -2.02914e+06 64566.7 0 -2.02953e+06 66045.1 0 -2.02993e+06 67524.2 0 -2.03034e+06 69004.2 0 -2.03076e+06 70484.8 0 -2.03119e+06 71966.3 0 -2.03163e+06 73448.6 0 -2.03208e+06 74931.8 0 -2.03254e+06 76415.8 0 -2.033e+06 77900.6 0 -2.03347e+06 79386.3 0 -2.03396e+06 80873 0 -2.03445e+06 82360.5 0 -2.03495e+06 83849 0 -2.03546e+06 85338.4 0 -2.03598e+06 86828.8 0 -2.03651e+06 88320.2 0 -2.03704e+06 89812.6 0 -2.03759e+06 91306 0 -2.03814e+06 92800.5 0 -2.03871e+06 94296 0 -2.03928e+06 95792.6 0 -2.03986e+06 97290.3 0 -2.04045e+06 98789.1 0 -2.04105e+06 100289 0 -2.04166e+06 101790 0 -2.04228e+06 103292 0 -2.0429e+06 104796 0 -2.04354e+06 106300 0 -2.04418e+06 107806 0 -2.04483e+06 109313 0 -2.0455e+06 110822 0 -2.04617e+06 112331 0 -2.04685e+06 113842 0 -2.04754e+06 115355 0 -2.04824e+06 116868 0 -2.04894e+06 118383 0 -2.04966e+06 119899 0 -2.05039e+06 121417 0 -2.05112e+06 122936 0 -2.05187e+06 124457 0 -2.05262e+06 125979 0 -2.05338e+06 127502 0 -2.05415e+06 129027 0 -2.05493e+06 130553 0 -2.05572e+06 132081 0 -2.05652e+06 133611 0 -2.05733e+06 135142 0 -2.05814e+06 136675 0 -2.05897e+06 138209 0 -2.0598e+06 139745 0 -2.06065e+06 141282 0 -2.0615e+06 142821 0 -2.06236e+06 144362 0 -2.06323e+06 145905 0 -2.06411e+06 147449 0 -2.065e+06 148995 0 -2.0659e+06 150543 0 -2.06681e+06 152092 0 -2.06773e+06 153643 0 -2.06865e+06 155197 0 -2.06959e+06 156752 0 -2.07054e+06 158308 0 -2.07149e+06 159867 0 -2.07245e+06 161428 0 -2.07343e+06 162990 0 -2.07441e+06 164555 0 -2.0754e+06 166121 0 -2.0764e+06 167690 0 -2.07741e+06 169260 0 -2.07843e+06 170833 0 -2.07946e+06 172408 0 -2.08049e+06 173984 0 -2.08154e+06 175563 0 -2.0826e+06 177144 0 -2.08366e+06 178727 0 -2.08474e+06 180312 0 -2.08582e+06 181899 0 -2.08691e+06 183489 0 -2.08802e+06 185081 0 -2.08913e+06 186675 0 -2.09025e+06 188271 0 -2.09138e+06 189870 0 -2.09252e+06 191471 0 -2.01944e+06 0 0 -2.01944e+06 1523.04 0 -2.01946e+06 3046.09 0 -2.01948e+06 4569.18 0 -2.01952e+06 6092.33 0 -2.01956e+06 7615.55 0 -2.01961e+06 9138.86 0 -2.01967e+06 10662.3 0 -2.01974e+06 12185.8 0 -2.01982e+06 13709.5 0 -2.01991e+06 15233.4 0 -2.02001e+06 16757.4 0 -2.02012e+06 18281.7 0 -2.02024e+06 19806.1 0 -2.02037e+06 21330.8 0 -2.02051e+06 22855.8 0 -2.02065e+06 24381 0 -2.02081e+06 25906.5 0 -2.02098e+06 27432.3 0 -2.02115e+06 28958.5 0 -2.02134e+06 30485 0 -2.02153e+06 32011.9 0 -2.02173e+06 33539.1 0 -2.02195e+06 35066.8 0 -2.02217e+06 36594.9 0 -2.0224e+06 38123.4 0 -2.02264e+06 39652.4 0 -2.0229e+06 41181.8 0 -2.02316e+06 42711.8 0 -2.02343e+06 44242.2 0 -2.02371e+06 45773.2 0 -2.024e+06 47304.8 0 -2.02429e+06 48836.9 0 -2.0246e+06 50369.6 0 -2.02492e+06 51902.9 0 -2.02525e+06 53436.8 0 -2.02559e+06 54971.4 0 -2.02593e+06 56506.7 0 -2.02629e+06 58042.6 0 -2.02665e+06 59579.2 0 -2.02703e+06 61116.6 0 -2.02741e+06 62654.6 0 -2.02781e+06 64193.5 0 -2.02821e+06 65733.1 0 -2.02862e+06 67273.5 0 -2.02905e+06 68814.7 0 -2.02948e+06 70356.8 0 -2.02992e+06 71899.7 0 -2.03037e+06 73443.5 0 -2.03083e+06 74988.2 0 -2.0313e+06 76533.8 0 -2.03178e+06 78080.3 0 -2.03227e+06 79627.8 0 -2.03277e+06 81176.2 0 -2.03328e+06 82725.6 0 -2.0338e+06 84276.1 0 -2.03433e+06 85827.5 0 -2.03487e+06 87380 0 -2.03541e+06 88933.6 0 -2.03597e+06 90488.3 0 -2.03654e+06 92044.1 0 -2.03711e+06 93601 0 -2.0377e+06 95159 0 -2.03829e+06 96718.2 0 -2.0389e+06 98278.6 0 -2.03951e+06 99840.2 0 -2.04014e+06 101403 0 -2.04077e+06 102967 0 -2.04142e+06 104532 0 -2.04207e+06 106099 0 -2.04273e+06 107667 0 -2.0434e+06 109236 0 -2.04409e+06 110807 0 -2.04478e+06 112379 0 -2.04548e+06 113952 0 -2.04619e+06 115527 0 -2.04691e+06 117103 0 -2.04764e+06 118681 0 -2.04838e+06 120260 0 -2.04913e+06 121841 0 -2.04989e+06 123423 0 -2.05066e+06 125007 0 -2.05144e+06 126592 0 -2.05223e+06 128179 0 -2.05303e+06 129767 0 -2.05384e+06 131357 0 -2.05466e+06 132949 0 -2.05548e+06 134542 0 -2.05632e+06 136137 0 -2.05717e+06 137734 0 -2.05803e+06 139333 0 -2.0589e+06 140933 0 -2.05977e+06 142535 0 -2.06066e+06 144139 0 -2.06156e+06 145744 0 -2.06246e+06 147352 0 -2.06338e+06 148961 0 -2.06431e+06 150573 0 -2.06524e+06 152186 0 -2.06619e+06 153801 0 -2.06714e+06 155418 0 -2.06811e+06 157037 0 -2.06908e+06 158658 0 -2.07007e+06 160281 0 -2.07107e+06 161906 0 -2.07207e+06 163533 0 -2.07309e+06 165163 0 -2.07411e+06 166794 0 -2.07515e+06 168428 0 -2.07619e+06 170063 0 -2.07725e+06 171701 0 -2.07831e+06 173341 0 -2.07939e+06 174984 0 -2.08047e+06 176628 0 -2.08157e+06 178275 0 -2.08267e+06 179924 0 -2.08379e+06 181576 0 -2.08491e+06 183230 0 -2.08605e+06 184886 0 -2.08719e+06 186545 0 -2.08835e+06 188206 0 -2.08951e+06 189870 0 -2.09069e+06 191536 0 -2.09187e+06 193205 0 -2.09307e+06 194876 0 -2.09427e+06 196550 0 -2.09549e+06 198226 0 -2.09672e+06 199905 0 -2.01829e+06 0 0 -2.0183e+06 1584.43 0 -2.01831e+06 3168.87 0 -2.01834e+06 4753.36 0 -2.01838e+06 6337.9 0 -2.01842e+06 7922.53 0 -2.01848e+06 9507.26 0 -2.01854e+06 11092.1 0 -2.01862e+06 12677.1 0 -2.0187e+06 14262.3 0 -2.0188e+06 15847.6 0 -2.01891e+06 17433.1 0 -2.01902e+06 19018.9 0 -2.01915e+06 20604.9 0 -2.01929e+06 22191.2 0 -2.01944e+06 23777.8 0 -2.01959e+06 25364.6 0 -2.01976e+06 26951.8 0 -2.01994e+06 28539.3 0 -2.02013e+06 30127.2 0 -2.02032e+06 31715.5 0 -2.02053e+06 33304.2 0 -2.02075e+06 34893.3 0 -2.02098e+06 36482.9 0 -2.02122e+06 38073 0 -2.02147e+06 39663.5 0 -2.02172e+06 41254.5 0 -2.02199e+06 42846.1 0 -2.02227e+06 44438.2 0 -2.02256e+06 46030.9 0 -2.02286e+06 47624.2 0 -2.02317e+06 49218.1 0 -2.02349e+06 50812.7 0 -2.02382e+06 52407.9 0 -2.02416e+06 54003.7 0 -2.02451e+06 55600.3 0 -2.02487e+06 57197.6 0 -2.02524e+06 58795.6 0 -2.02563e+06 60394.4 0 -2.02602e+06 61994 0 -2.02642e+06 63594.3 0 -2.02683e+06 65195.5 0 -2.02725e+06 66797.5 0 -2.02768e+06 68400.5 0 -2.02813e+06 70004.2 0 -2.02858e+06 71608.9 0 -2.02904e+06 73214.6 0 -2.02952e+06 74821.1 0 -2.03e+06 76428.7 0 -2.03049e+06 78037.2 0 -2.031e+06 79646.8 0 -2.03151e+06 81257.4 0 -2.03204e+06 82869.1 0 -2.03257e+06 84481.8 0 -2.03312e+06 86095.7 0 -2.03367e+06 87710.6 0 -2.03424e+06 89326.7 0 -2.03481e+06 90944 0 -2.0354e+06 92562.5 0 -2.03599e+06 94182.2 0 -2.0366e+06 95803.1 0 -2.03722e+06 97425.3 0 -2.03785e+06 99048.8 0 -2.03848e+06 100674 0 -2.03913e+06 102300 0 -2.03979e+06 103927 0 -2.04046e+06 105556 0 -2.04114e+06 107186 0 -2.04183e+06 108818 0 -2.04253e+06 110451 0 -2.04324e+06 112085 0 -2.04396e+06 113721 0 -2.04469e+06 115359 0 -2.04543e+06 116998 0 -2.04618e+06 118638 0 -2.04694e+06 120281 0 -2.04771e+06 121924 0 -2.0485e+06 123570 0 -2.04929e+06 125217 0 -2.05009e+06 126865 0 -2.05091e+06 128516 0 -2.05173e+06 130168 0 -2.05257e+06 131822 0 -2.05341e+06 133477 0 -2.05427e+06 135135 0 -2.05513e+06 136794 0 -2.05601e+06 138455 0 -2.0569e+06 140118 0 -2.0578e+06 141783 0 -2.0587e+06 143450 0 -2.05962e+06 145118 0 -2.06055e+06 146789 0 -2.06149e+06 148462 0 -2.06244e+06 150136 0 -2.0634e+06 151813 0 -2.06437e+06 153492 0 -2.06536e+06 155173 0 -2.06635e+06 156855 0 -2.06735e+06 158541 0 -2.06837e+06 160228 0 -2.06939e+06 161917 0 -2.07043e+06 163609 0 -2.07147e+06 165303 0 -2.07253e+06 166999 0 -2.07359e+06 168698 0 -2.07467e+06 170398 0 -2.07576e+06 172102 0 -2.07686e+06 173807 0 -2.07797e+06 175515 0 -2.07909e+06 177225 0 -2.08022e+06 178938 0 -2.08136e+06 180654 0 -2.08251e+06 182371 0 -2.08368e+06 184092 0 -2.08485e+06 185815 0 -2.08603e+06 187540 0 -2.08723e+06 189269 0 -2.08843e+06 190999 0 -2.08965e+06 192733 0 -2.09088e+06 194469 0 -2.09212e+06 196208 0 -2.09337e+06 197950 0 -2.09463e+06 199694 0 -2.0959e+06 201442 0 -2.09718e+06 203192 0 -2.09847e+06 204945 0 -2.09978e+06 206701 0 -2.10109e+06 208460 0 -2.01714e+06 0 0 -2.01715e+06 1646.31 0 -2.01716e+06 3292.63 0 -2.01719e+06 4939.01 0 -2.01723e+06 6585.45 0 -2.01728e+06 8231.98 0 -2.01734e+06 9878.63 0 -2.01741e+06 11525.4 0 -2.01749e+06 13172.3 0 -2.01758e+06 14819.5 0 -2.01768e+06 16466.8 0 -2.0178e+06 18114.3 0 -2.01792e+06 19762.1 0 -2.01806e+06 21410.2 0 -2.0182e+06 23058.5 0 -2.01836e+06 24707.2 0 -2.01853e+06 26356.2 0 -2.01871e+06 28005.6 0 -2.0189e+06 29655.4 0 -2.0191e+06 31305.5 0 -2.01931e+06 32956.1 0 -2.01953e+06 34607.2 0 -2.01977e+06 36258.7 0 -2.02001e+06 37910.7 0 -2.02026e+06 39563.2 0 -2.02053e+06 41216.3 0 -2.02081e+06 42870 0 -2.02109e+06 44524.2 0 -2.02139e+06 46179.1 0 -2.0217e+06 47834.6 0 -2.02202e+06 49490.7 0 -2.02235e+06 51147.5 0 -2.02269e+06 52805.1 0 -2.02305e+06 54463.3 0 -2.02341e+06 56122.3 0 -2.02379e+06 57782.1 0 -2.02417e+06 59442.7 0 -2.02457e+06 61104.1 0 -2.02497e+06 62766.4 0 -2.02539e+06 64429.5 0 -2.02582e+06 66093.5 0 -2.02626e+06 67758.4 0 -2.02671e+06 69424.3 0 -2.02717e+06 71091.1 0 -2.02765e+06 72758.9 0 -2.02813e+06 74427.7 0 -2.02862e+06 76097.6 0 -2.02913e+06 77768.5 0 -2.02965e+06 79440.5 0 -2.03017e+06 81113.6 0 -2.03071e+06 82787.8 0 -2.03126e+06 84463.2 0 -2.03182e+06 86139.8 0 -2.03239e+06 87817.5 0 -2.03298e+06 89496.5 0 -2.03357e+06 91176.7 0 -2.03417e+06 92858.3 0 -2.03479e+06 94541.1 0 -2.03541e+06 96225.2 0 -2.03605e+06 97910.7 0 -2.0367e+06 99597.5 0 -2.03736e+06 101286 0 -2.03803e+06 102975 0 -2.03871e+06 104667 0 -2.0394e+06 106359 0 -2.04011e+06 108053 0 -2.04082e+06 109749 0 -2.04155e+06 111446 0 -2.04228e+06 113145 0 -2.04303e+06 114845 0 -2.04379e+06 116547 0 -2.04456e+06 118251 0 -2.04534e+06 119956 0 -2.04613e+06 121663 0 -2.04694e+06 123372 0 -2.04775e+06 125082 0 -2.04858e+06 126795 0 -2.04941e+06 128509 0 -2.05026e+06 130225 0 -2.05112e+06 131942 0 -2.05199e+06 133662 0 -2.05287e+06 135384 0 -2.05376e+06 137107 0 -2.05467e+06 138833 0 -2.05558e+06 140560 0 -2.05651e+06 142290 0 -2.05744e+06 144021 0 -2.05839e+06 145755 0 -2.05935e+06 147491 0 -2.06032e+06 149229 0 -2.0613e+06 150969 0 -2.0623e+06 152711 0 -2.0633e+06 154455 0 -2.06432e+06 156202 0 -2.06534e+06 157951 0 -2.06638e+06 159702 0 -2.06743e+06 161456 0 -2.06849e+06 163212 0 -2.06957e+06 164970 0 -2.07065e+06 166731 0 -2.07175e+06 168494 0 -2.07285e+06 170260 0 -2.07397e+06 172028 0 -2.0751e+06 173799 0 -2.07624e+06 175572 0 -2.07739e+06 177348 0 -2.07856e+06 179127 0 -2.07973e+06 180908 0 -2.08092e+06 182692 0 -2.08211e+06 184479 0 -2.08332e+06 186268 0 -2.08454e+06 188060 0 -2.08578e+06 189855 0 -2.08702e+06 191653 0 -2.08828e+06 193454 0 -2.08954e+06 195257 0 -2.09082e+06 197064 0 -2.09211e+06 198873 0 -2.09341e+06 200686 0 -2.09473e+06 202501 0 -2.09605e+06 204320 0 -2.09739e+06 206142 0 -2.09873e+06 207966 0 -2.10009e+06 209795 0 -2.10146e+06 211626 0 -2.10285e+06 213460 0 -2.10424e+06 215298 0 -2.10565e+06 217139 0 -2.01599e+06 0 0 -2.01599e+06 1708.68 0 -2.01601e+06 3417.38 0 -2.01604e+06 5126.14 0 -2.01608e+06 6834.97 0 -2.01613e+06 8543.9 0 -2.01619e+06 10252.9 0 -2.01627e+06 11962.2 0 -2.01635e+06 13671.5 0 -2.01645e+06 15381.1 0 -2.01656e+06 17090.9 0 -2.01668e+06 18801 0 -2.01682e+06 20511.3 0 -2.01696e+06 22221.9 0 -2.01712e+06 23932.9 0 -2.01728e+06 25644.2 0 -2.01746e+06 27355.8 0 -2.01765e+06 29067.9 0 -2.01786e+06 30780.4 0 -2.01807e+06 32493.3 0 -2.0183e+06 34206.8 0 -2.01853e+06 35920.7 0 -2.01878e+06 37635.1 0 -2.01904e+06 39350.1 0 -2.01931e+06 41065.7 0 -2.0196e+06 42781.9 0 -2.01989e+06 44498.7 0 -2.0202e+06 46216.2 0 -2.02052e+06 47934.3 0 -2.02084e+06 49653.1 0 -2.02119e+06 51372.7 0 -2.02154e+06 53093 0 -2.0219e+06 54814.1 0 -2.02228e+06 56536 0 -2.02267e+06 58258.8 0 -2.02307e+06 59982.4 0 -2.02348e+06 61706.9 0 -2.0239e+06 63432.2 0 -2.02433e+06 65158.6 0 -2.02478e+06 66885.9 0 -2.02524e+06 68614.1 0 -2.0257e+06 70343.4 0 -2.02619e+06 72073.7 0 -2.02668e+06 73805.1 0 -2.02718e+06 75537.6 0 -2.0277e+06 77271.2 0 -2.02822e+06 79005.9 0 -2.02876e+06 80741.9 0 -2.02931e+06 82479 0 -2.02988e+06 84217.3 0 -2.03045e+06 85956.9 0 -2.03104e+06 87697.8 0 -2.03163e+06 89439.9 0 -2.03224e+06 91183.4 0 -2.03286e+06 92928.3 0 -2.0335e+06 94674.5 0 -2.03414e+06 96422.2 0 -2.0348e+06 98171.3 0 -2.03546e+06 99921.9 0 -2.03614e+06 101674 0 -2.03683e+06 103428 0 -2.03754e+06 105183 0 -2.03825e+06 106939 0 -2.03898e+06 108698 0 -2.03972e+06 110458 0 -2.04047e+06 112219 0 -2.04123e+06 113983 0 -2.042e+06 115748 0 -2.04279e+06 117514 0 -2.04358e+06 119283 0 -2.04439e+06 121053 0 -2.04521e+06 122825 0 -2.04605e+06 124600 0 -2.04689e+06 126375 0 -2.04775e+06 128153 0 -2.04862e+06 129933 0 -2.0495e+06 131715 0 -2.05039e+06 133499 0 -2.05129e+06 135285 0 -2.05221e+06 137072 0 -2.05314e+06 138862 0 -2.05407e+06 140655 0 -2.05503e+06 142449 0 -2.05599e+06 144245 0 -2.05697e+06 146044 0 -2.05795e+06 147845 0 -2.05895e+06 149648 0 -2.05996e+06 151454 0 -2.06099e+06 153262 0 -2.06202e+06 155072 0 -2.06307e+06 156884 0 -2.06413e+06 158700 0 -2.0652e+06 160517 0 -2.06628e+06 162337 0 -2.06738e+06 164160 0 -2.06849e+06 165985 0 -2.06961e+06 167813 0 -2.07074e+06 169643 0 -2.07188e+06 171476 0 -2.07304e+06 173312 0 -2.07421e+06 175150 0 -2.07539e+06 176991 0 -2.07658e+06 178835 0 -2.07779e+06 180682 0 -2.079e+06 182532 0 -2.08023e+06 184384 0 -2.08147e+06 186240 0 -2.08273e+06 188098 0 -2.08399e+06 189960 0 -2.08527e+06 191824 0 -2.08656e+06 193692 0 -2.08786e+06 195563 0 -2.08918e+06 197436 0 -2.09051e+06 199313 0 -2.09185e+06 201193 0 -2.0932e+06 203077 0 -2.09456e+06 204964 0 -2.09594e+06 206854 0 -2.09733e+06 208747 0 -2.09873e+06 210644 0 -2.10014e+06 212544 0 -2.10157e+06 214448 0 -2.10301e+06 216355 0 -2.10446e+06 218265 0 -2.10592e+06 220180 0 -2.1074e+06 222098 0 -2.10889e+06 224019 0 -2.11039e+06 225944 0 -2.01482e+06 0 0 -2.01483e+06 1771.54 0 -2.01485e+06 3543.11 0 -2.01488e+06 5314.74 0 -2.01492e+06 7086.45 0 -2.01498e+06 8858.27 0 -2.01504e+06 10630.2 0 -2.01512e+06 12402.3 0 -2.01522e+06 14174.7 0 -2.01532e+06 15947.2 0 -2.01544e+06 17720 0 -2.01557e+06 19493 0 -2.01571e+06 21266.4 0 -2.01586e+06 23040.1 0 -2.01603e+06 24814.1 0 -2.01621e+06 26588.6 0 -2.0164e+06 28363.4 0 -2.0166e+06 30138.7 0 -2.01681e+06 31914.4 0 -2.01704e+06 33690.7 0 -2.01728e+06 35467.5 0 -2.01753e+06 37244.8 0 -2.0178e+06 39022.7 0 -2.01807e+06 40801.2 0 -2.01836e+06 42580.4 0 -2.01866e+06 44360.2 0 -2.01898e+06 46140.7 0 -2.0193e+06 47921.9 0 -2.01964e+06 49703.9 0 -2.01999e+06 51486.6 0 -2.02035e+06 53270.2 0 -2.02073e+06 55054.6 0 -2.02112e+06 56839.8 0 -2.02152e+06 58626 0 -2.02193e+06 60413 0 -2.02235e+06 62201 0 -2.02279e+06 63990 0 -2.02324e+06 65780 0 -2.0237e+06 67571 0 -2.02418e+06 69363 0 -2.02466e+06 71156.2 0 -2.02516e+06 72950.5 0 -2.02567e+06 74745.9 0 -2.0262e+06 76542.5 0 -2.02673e+06 78340.3 0 -2.02728e+06 80139.3 0 -2.02784e+06 81939.7 0 -2.02841e+06 83741.3 0 -2.029e+06 85544.2 0 -2.0296e+06 87348.4 0 -2.03021e+06 89154.1 0 -2.03083e+06 90961.2 0 -2.03147e+06 92769.7 0 -2.03212e+06 94579.6 0 -2.03278e+06 96391.1 0 -2.03345e+06 98204.1 0 -2.03413e+06 100019 0 -2.03483e+06 101835 0 -2.03554e+06 103653 0 -2.03627e+06 105472 0 -2.037e+06 107293 0 -2.03775e+06 109116 0 -2.03851e+06 110941 0 -2.03928e+06 112767 0 -2.04007e+06 114595 0 -2.04087e+06 116425 0 -2.04168e+06 118257 0 -2.0425e+06 120091 0 -2.04333e+06 121926 0 -2.04418e+06 123764 0 -2.04504e+06 125604 0 -2.04592e+06 127446 0 -2.0468e+06 129289 0 -2.0477e+06 131135 0 -2.04861e+06 132983 0 -2.04954e+06 134833 0 -2.05047e+06 136686 0 -2.05142e+06 138540 0 -2.05239e+06 140397 0 -2.05336e+06 142256 0 -2.05435e+06 144117 0 -2.05535e+06 145981 0 -2.05636e+06 147847 0 -2.05739e+06 149716 0 -2.05842e+06 151587 0 -2.05947e+06 153460 0 -2.06054e+06 155336 0 -2.06162e+06 157215 0 -2.0627e+06 159096 0 -2.06381e+06 160980 0 -2.06492e+06 162867 0 -2.06605e+06 164756 0 -2.06719e+06 166648 0 -2.06834e+06 168542 0 -2.06951e+06 170440 0 -2.07069e+06 172340 0 -2.07188e+06 174243 0 -2.07309e+06 176150 0 -2.0743e+06 178059 0 -2.07553e+06 179971 0 -2.07678e+06 181886 0 -2.07804e+06 183804 0 -2.0793e+06 185725 0 -2.08059e+06 187650 0 -2.08188e+06 189577 0 -2.08319e+06 191508 0 -2.08451e+06 193442 0 -2.08585e+06 195380 0 -2.0872e+06 197320 0 -2.08856e+06 199264 0 -2.08993e+06 201212 0 -2.09132e+06 203163 0 -2.09272e+06 205117 0 -2.09413e+06 207075 0 -2.09556e+06 209036 0 -2.097e+06 211002 0 -2.09845e+06 212970 0 -2.09992e+06 214943 0 -2.1014e+06 216919 0 -2.10289e+06 218899 0 -2.10439e+06 220883 0 -2.10591e+06 222870 0 -2.10745e+06 224862 0 -2.10899e+06 226857 0 -2.11055e+06 228857 0 -2.11212e+06 230860 0 -2.11371e+06 232868 0 -2.11531e+06 234879 0 -2.01366e+06 0 0 -2.01366e+06 1834.9 0 -2.01368e+06 3669.83 0 -2.01371e+06 5504.81 0 -2.01376e+06 7339.89 0 -2.01382e+06 9175.09 0 -2.01389e+06 11010.4 0 -2.01398e+06 12846 0 -2.01407e+06 14681.7 0 -2.01418e+06 16517.7 0 -2.01431e+06 18354 0 -2.01444e+06 20190.5 0 -2.01459e+06 22027.4 0 -2.01476e+06 23864.7 0 -2.01493e+06 25702.3 0 -2.01512e+06 27540.4 0 -2.01532e+06 29378.9 0 -2.01554e+06 31217.9 0 -2.01577e+06 33057.5 0 -2.01601e+06 34897.5 0 -2.01626e+06 36738.2 0 -2.01653e+06 38579.5 0 -2.01681e+06 40421.3 0 -2.01711e+06 42263.9 0 -2.01741e+06 44107.2 0 -2.01773e+06 45951.2 0 -2.01807e+06 47795.9 0 -2.01841e+06 49641.5 0 -2.01877e+06 51487.8 0 -2.01914e+06 53335.1 0 -2.01953e+06 55183.2 0 -2.01993e+06 57032.2 0 -2.02034e+06 58882.2 0 -2.02076e+06 60733.1 0 -2.0212e+06 62585.1 0 -2.02165e+06 64438.1 0 -2.02211e+06 66292.1 0 -2.02259e+06 68147.3 0 -2.02308e+06 70003.6 0 -2.02358e+06 71861.1 0 -2.0241e+06 73719.8 0 -2.02463e+06 75579.7 0 -2.02517e+06 77440.8 0 -2.02573e+06 79303.3 0 -2.0263e+06 81167.1 0 -2.02688e+06 83032.2 0 -2.02748e+06 84898.8 0 -2.02809e+06 86766.8 0 -2.02871e+06 88636.2 0 -2.02934e+06 90507.1 0 -2.02999e+06 92379.5 0 -2.03065e+06 94253.5 0 -2.03133e+06 96129.1 0 -2.03201e+06 98006.3 0 -2.03272e+06 99885.1 0 -2.03343e+06 101766 0 -2.03416e+06 103648 0 -2.0349e+06 105532 0 -2.03565e+06 107418 0 -2.03642e+06 109305 0 -2.0372e+06 111195 0 -2.038e+06 113086 0 -2.0388e+06 114979 0 -2.03962e+06 116875 0 -2.04046e+06 118772 0 -2.04131e+06 120671 0 -2.04217e+06 122573 0 -2.04304e+06 124476 0 -2.04393e+06 126381 0 -2.04483e+06 128289 0 -2.04574e+06 130199 0 -2.04667e+06 132111 0 -2.04761e+06 134026 0 -2.04857e+06 135942 0 -2.04953e+06 137862 0 -2.05052e+06 139783 0 -2.05151e+06 141707 0 -2.05252e+06 143633 0 -2.05354e+06 145562 0 -2.05458e+06 147493 0 -2.05562e+06 149427 0 -2.05669e+06 151364 0 -2.05776e+06 153303 0 -2.05885e+06 155245 0 -2.05996e+06 157189 0 -2.06107e+06 159137 0 -2.0622e+06 161087 0 -2.06335e+06 163040 0 -2.0645e+06 164995 0 -2.06567e+06 166954 0 -2.06686e+06 168916 0 -2.06806e+06 170880 0 -2.06927e+06 172848 0 -2.07049e+06 174819 0 -2.07173e+06 176792 0 -2.07299e+06 178769 0 -2.07425e+06 180750 0 -2.07553e+06 182733 0 -2.07683e+06 184720 0 -2.07813e+06 186710 0 -2.07946e+06 188703 0 -2.08079e+06 190700 0 -2.08214e+06 192700 0 -2.0835e+06 194703 0 -2.08488e+06 196710 0 -2.08627e+06 198721 0 -2.08768e+06 200735 0 -2.08909e+06 202753 0 -2.09053e+06 204775 0 -2.09197e+06 206800 0 -2.09343e+06 208829 0 -2.09491e+06 210862 0 -2.0964e+06 212899 0 -2.0979e+06 214940 0 -2.09941e+06 216984 0 -2.10094e+06 219033 0 -2.10249e+06 221086 0 -2.10405e+06 223143 0 -2.10562e+06 225204 0 -2.10721e+06 227269 0 -2.10881e+06 229338 0 -2.11042e+06 231412 0 -2.11205e+06 233490 0 -2.11369e+06 235572 0 -2.11535e+06 237659 0 -2.11702e+06 239751 0 -2.11871e+06 241846 0 -2.12041e+06 243947 0 -2.01248e+06 0 0 -2.01249e+06 1898.74 0 -2.01251e+06 3797.51 0 -2.01255e+06 5696.35 0 -2.01259e+06 7595.29 0 -2.01266e+06 9494.37 0 -2.01273e+06 11393.6 0 -2.01282e+06 13293 0 -2.01292e+06 15192.7 0 -2.01304e+06 17092.6 0 -2.01317e+06 18992.9 0 -2.01332e+06 20893.4 0 -2.01348e+06 22794.4 0 -2.01365e+06 24695.7 0 -2.01384e+06 26597.5 0 -2.01404e+06 28499.7 0 -2.01425e+06 30402.4 0 -2.01448e+06 32305.7 0 -2.01472e+06 34209.5 0 -2.01498e+06 36113.9 0 -2.01525e+06 38018.9 0 -2.01553e+06 39924.7 0 -2.01583e+06 41831.1 0 -2.01614e+06 43738.2 0 -2.01646e+06 45646.1 0 -2.0168e+06 47554.8 0 -2.01716e+06 49464.4 0 -2.01752e+06 51374.8 0 -2.0179e+06 53286.1 0 -2.0183e+06 55198.4 0 -2.0187e+06 57111.6 0 -2.01913e+06 59025.9 0 -2.01956e+06 60941.1 0 -2.02001e+06 62857.5 0 -2.02048e+06 64774.9 0 -2.02095e+06 66693.5 0 -2.02145e+06 68613.3 0 -2.02195e+06 70534.3 0 -2.02247e+06 72456.5 0 -2.023e+06 74380 0 -2.02355e+06 76304.8 0 -2.02411e+06 78231 0 -2.02469e+06 80158.6 0 -2.02528e+06 82087.6 0 -2.02588e+06 84018 0 -2.0265e+06 85949.9 0 -2.02713e+06 87883.4 0 -2.02777e+06 89818.4 0 -2.02843e+06 91755 0 -2.02911e+06 93693.3 0 -2.02979e+06 95633.2 0 -2.03049e+06 97574.9 0 -2.03121e+06 99518.2 0 -2.03194e+06 101463 0 -2.03268e+06 103410 0 -2.03344e+06 105359 0 -2.0342