<?xml version="1.0"?> 
<VTKFile type="StructuredGrid" version="0.1"> 
<StructuredGrid WholeExtent="0 127 0 127 0 0"> 
<Piece Extent="0 127 0 127 0 0"> 
<PointData>
<DataArray type="Float32" Name="|E|" format="ascii" NumberOfComponents="3"> 
-2.08104e+06 166867 0 -2.08443e+06 171962 0 -2.08793e+06 177080 0 -2.09152e+06 182221 0 -2.09522e+06 187385 0 -2.09902e+06 192575 0 -2.10292e+06 197790 0 -2.10692e+06 203031 0 -2.11103e+06 208300 0 -2.11523e+06 213597 0 -2.11955e+06 218923 0 -2.12396e+06 224279 0 -2.12849e+06 229665 0 -2.13311e+06 235084 0 -2.13784e+06 240534 0 -2.14268e+06 246019 0 -2.14763e+06 251538 0 -2.15268e+06 257093 0 -2.15784e+06 262684 0 -2.1631e+06 268313 0 -2.16848e+06 273981 0 -2.17397e+06 279689 0 -2.17956e+06 285437 0 -2.18527e+06 291228 0 -2.19108e+06 297062 0 -2.19701e+06 302941 0 -2.20305e+06 308865 0 -2.20921e+06 314836 0 -2.21547e+06 320856 0 -2.22186e+06 326925 0 -2.22835e+06 333045 0 -2.23497e+06 339217 0 -2.2417e+06 345443 0 -2.24855e+06 351725 0 -2.25552e+06 358063 0 -2.26261e+06 364460 0 -2.26982e+06 370917 0 -2.27715e+06 377435 0 -2.28461e+06 384016 0 -2.29219e+06 390663 0 -2.29989e+06 397376 0 -2.30772e+06 404158 0 -2.31568e+06 411011 0 -2.32377e+06 417936 0 -2.33199e+06 424936 0 -2.34035e+06 432013 0 -2.34883e+06 439168 0 -2.35745e+06 446405 0 -2.36621e+06 453725 0 -2.37511e+06 461131 0 -2.38415e+06 468625 0 -2.39333e+06 476211 0 -2.40265e+06 483890 0 -2.41213e+06 491665 0 -2.42175e+06 499539 0 -2.43152e+06 507516 0 -2.44145e+06 515598 0 -2.45153e+06 523789 0 -2.46178e+06 532092 0 -2.47218e+06 540511 0 -2.48276e+06 549049 0 -2.4935e+06 557709 0 -2.50441e+06 566497 0 -2.51551e+06 575417 0 -2.52678e+06 584472 0 -2.53824e+06 593668 0 -2.54989e+06 603008 0 -2.56173e+06 612499 0 -2.57378e+06 622146 0 -2.58603e+06 631955 0 -2.59849e+06 641930 0 -2.61117e+06 652080 0 -2.62408e+06 662410 0 -2.63722e+06 672927 0 -2.65061e+06 683639 0 -2.66424e+06 694555 0 -2.67813e+06 705681 0 -2.6923e+06 717028 0 -2.70674e+06 728605 0 -2.72148e+06 740423 0 -2.73652e+06 752492 0 -2.75188e+06 764824 0 -2.76758e+06 777431 0 -2.78363e+06 790329 0 -2.80005e+06 803530 0 -2.81686e+06 817052 0 -2.83407e+06 830910 0 -2.85173e+06 845125 0 -2.86984e+06 859715 0 -2.88844e+06 874704 0 -2.90756e+06 890114 0 -2.92723e+06 905973 0 -2.9475e+06 922310 0 -2.9684e+06 939155 0 -2.98998e+06 956543 0 -3.01229e+06 974515 0 -3.03539e+06 993111 0 -3.05934e+06 1.01238e+06 0 -3.08423e+06 1.03237e+06 0 -3.11012e+06 1.05315e+06 0 -3.13712e+06 1.07479e+06 0 -3.16532e+06 1.09735e+06 0 -3.19485e+06 1.12092e+06 0 -3.22585e+06 1.1456e+06 0 -3.25847e+06 1.1715e+06 0 -3.2929e+06 1.19876e+06 0 -3.32935e+06 1.22751e+06 0 -3.36807e+06 1.25792e+06 0 -3.40936e+06 1.29022e+06 0 -3.45356e+06 1.32461e+06 0 -3.5011e+06 1.36142e+06 0 -3.55248e+06 1.40096e+06 0 -3.60833e+06 1.44362e+06 0 -3.66944e+06 1.49006e+06 0 -3.73675e+06 1.54063e+06 0 -3.81149e+06 1.59634e+06 0 -3.89544e+06 1.65907e+06 0 -3.99035e+06 1.72643e+06 0 -4.09974e+06 1.80899e+06 0 -4.22775e+06 1.89795e+06 0 -4.37772e+06 1.99489e+06 0 -4.56831e+06 2.16598e+06 0 -4.79687e+06 2.22722e+06 0 -5.10693e+06 2.56745e+06 0 -5.58913e+06 2.85073e+06 0 -6.18232e+06 2.77381e+06 0 -7.96205e+06 3.79472e+06 0 -1.64839e+07 5.34259e+07 0 -2.08469e+06 174954 0 -2.08819e+06 180072 0 -2.0918e+06 185213 0 -2.09551e+06 190378 0 -2.09932e+06 195567 0 -2.10322e+06 200783 0 -2.10723e+06 206024 0 -2.11135e+06 211294 0 -2.11556e+06 216591 0 -2.11987e+06 221917 0 -2.12429e+06 227274 0 -2.12881e+06 232661 0 -2.13344e+06 238080 0 -2.13817e+06 243531 0 -2.143e+06 249016 0 -2.14794e+06 254536 0 -2.15298e+06 260091 0 -2.15813e+06 265683 0 -2.16339e+06 271313 0 -2.16876e+06 276981 0 -2.17423e+06 282689 0 -2.17981e+06 288438 0 -2.1855e+06 294229 0 -2.1913e+06 300064 0 -2.1972e+06 305942 0 -2.20322e+06 311867 0 -2.20936e+06 317838 0 -2.2156e+06 323857 0 -2.22196e+06 329926 0 -2.22843e+06 336046 0 -2.23501e+06 342217 0 -2.24171e+06 348443 0 -2.24853e+06 354723 0 -2.25547e+06 361061 0 -2.26252e+06 367456 0 -2.26969e+06 373911 0 -2.27699e+06 380427 0 -2.2844e+06 387007 0 -2.29194e+06 393651 0 -2.2996e+06 400362 0 -2.30738e+06 407141 0 -2.31529e+06 413991 0 -2.32333e+06 420913 0 -2.3315e+06 427909 0 -2.3398e+06 434981 0 -2.34823e+06 442132 0 -2.35679e+06 449364 0 -2.36549e+06 456679 0 -2.37432e+06 464079 0 -2.38329e+06 471567 0 -2.39241e+06 479146 0 -2.40166e+06 486818 0 -2.41106e+06 494585 0 -2.42061e+06 502452 0 -2.4303e+06 510420 0 -2.44015e+06 518493 0 -2.45015e+06 526675 0 -2.46031e+06 534967 0 -2.47063e+06 543375 0 -2.48111e+06 551901 0 -2.49176e+06 560550 0 -2.50258e+06 569326 0 -2.51357e+06 578231 0 -2.52474e+06 587273 0 -2.5361e+06 596453 0 -2.54763e+06 605779 0 -2.55936e+06 615253 0 -2.57129e+06 624883 0 -2.58342e+06 634674 0 -2.59575e+06 644631 0 -2.60831e+06 654760 0 -2.62108e+06 665070 0 -2.63408e+06 675566 0 -2.64731e+06 686256 0 -2.66079e+06 697147 0 -2.67453e+06 708250 0 -2.68853e+06 719571 0 -2.7028e+06 731122 0 -2.71736e+06 742912 0 -2.73221e+06 754952 0 -2.74738e+06 767254 0 -2.76287e+06 779831 0 -2.77871e+06 792696 0 -2.7949e+06 805863 0 -2.81147e+06 819350 0 -2.82844e+06 833172 0 -2.84584e+06 847348 0 -2.86367e+06 861899 0 -2.88198e+06 876846 0 -2.90079e+06 892214 0 -2.92013e+06 908028 0 -2.94005e+06 924317 0 -2.96057e+06 941113 0 -2.98175e+06 958450 0 -3.00364e+06 976368 0 -3.02628e+06 994907 0 -3.04973e+06 1.01412e+06 0 -3.07408e+06 1.03405e+06 0 -3.09939e+06 1.05476e+06 0 -3.12575e+06 1.07632e+06 0 -3.15326e+06 1.09881e+06 0 -3.18203e+06 1.1223e+06 0 -3.21219e+06 1.1469e+06 0 -3.24389e+06 1.17271e+06 0 -3.27729e+06 1.19987e+06 0 -3.31259e+06 1.22851e+06 0 -3.35002e+06 1.25882e+06 0 -3.38984e+06 1.29098e+06 0 -3.43239e+06 1.32525e+06 0 -3.47802e+06 1.36189e+06 0 -3.52722e+06 1.40125e+06 0 -3.58052e+06 1.44376e+06 0 -3.63862e+06 1.4899e+06 0 -3.70239e+06 1.54027e+06 0 -3.7728e+06 1.59587e+06 0 -3.85156e+06 1.65736e+06 0 -3.93999e+06 1.72632e+06 0 -4.04072e+06 1.80564e+06 0 -4.15906e+06 1.89379e+06 0 -4.29281e+06 2.00214e+06 0 -4.46372e+06 2.1312e+06 0 -4.66917e+06 2.27314e+06 0 -4.90498e+06 2.51072e+06 0 -5.3667e+06 2.77147e+06 0 -5.65799e+06 3.04808e+06 0 -7.09553e+06 4.53183e+06 0 -8.07526e+06 7.22492e+06 0 396685 6.24389e+06 0 -2.08851e+06 183155 0 -2.09213e+06 188296 0 -2.09585e+06 193461 0 -2.09967e+06 198651 0 -2.10359e+06 203866 0 -2.10761e+06 209109 0 -2.11172e+06 214378 0 -2.11594e+06 219676 0 -2.12026e+06 225003 0 -2.12468e+06 230360 0 -2.1292e+06 235748 0 -2.13383e+06 241167 0 -2.13856e+06 246620 0 -2.14339e+06 252105 0 -2.14832e+06 257626 0 -2.15336e+06 263182 0 -2.1585e+06 268775 0 -2.16375e+06 274405 0 -2.1691e+06 280074 0 -2.17456e+06 285783 0 -2.18013e+06 291532 0 -2.1858e+06 297324 0 -2.19158e+06 303158 0 -2.19747e+06 309037 0 -2.20347e+06 314962 0 -2.20958e+06 320933 0 -2.2158e+06 326953 0 -2.22214e+06 333021 0 -2.22858e+06 339141 0 -2.23514e+06 345312 0 -2.24181e+06 351537 0 -2.2486e+06 357817 0 -2.2555e+06 364153 0 -2.26252e+06 370548 0 -2.26965e+06 377001 0 -2.27691e+06 383516 0 -2.28428e+06 390094 0 -2.29178e+06 396737 0 -2.29939e+06 403445 0 -2.30713e+06 410222 0 -2.315e+06 417069 0 -2.32299e+06 423988 0 -2.3311e+06 430980 0 -2.33935e+06 438049 0 -2.34772e+06 445196 0 -2.35623e+06 452423 0 -2.36487e+06 459733 0 -2.37364e+06 467129 0 -2.38255e+06 474611 0 -2.39159e+06 482184 0 -2.40078e+06 489849 0 -2.41011e+06 497610 0 -2.41959e+06 505469 0 -2.42921e+06 513430 0 -2.43898e+06 521495 0 -2.4489e+06 529667 0 -2.45897e+06 537951 0 -2.46921e+06 546348 0 -2.4796e+06 554864 0 -2.49016e+06 563502 0 -2.50088e+06 572265 0 -2.51177e+06 581159 0 -2.52284e+06 590187 0 -2.53409e+06 599354 0 -2.54552e+06 608665 0 -2.55714e+06 618124 0 -2.56895e+06 627738 0 -2.58096e+06 637512 0 -2.59317e+06 647451 0 -2.60559e+06 657563 0 -2.61823e+06 667853 0 -2.63109e+06 678328 0 -2.64419e+06 688997 0 -2.65752e+06 699867 0 -2.6711e+06 710947 0 -2.68494e+06 722244 0 -2.69904e+06 733770 0 -2.71342e+06 745534 0 -2.7281e+06 757547 0 -2.74308e+06 769820 0 -2.75837e+06 782368 0 -2.774e+06 795202 0 -2.78997e+06 808337 0 -2.80632e+06 821790 0 -2.82304e+06 835578 0 -2.84018e+06 849718 0 -2.85775e+06 864231 0 -2.87578e+06 879138 0 -2.89429e+06 894464 0 -2.91331e+06 910235 0 -2.93289e+06 926479 0 -2.95305e+06 943227 0 -2.97385e+06 960515 0 -2.99532e+06 978380 0 -3.01751e+06 996864 0 -3.04049e+06 1.01601e+06 0 -3.06432e+06 1.03589e+06 0 -3.08908e+06 1.05653e+06 0 -3.11483e+06 1.07803e+06 0 -3.14168e+06 1.10044e+06 0 -3.16972e+06 1.12385e+06 0 -3.19908e+06 1.14836e+06 0 -3.2299e+06 1.17408e+06 0 -3.26232e+06 1.20113e+06 0 -3.29653e+06 1.22966e+06 0 -3.33273e+06 1.25985e+06 0 -3.37119e+06 1.29187e+06 0 -3.41217e+06 1.32598e+06 0 -3.45603e+06 1.36246e+06 0 -3.50318e+06 1.40162e+06 0 -3.5541e+06 1.44389e+06 0 -3.60942e+06 1.48976e+06 0 -3.66991e+06 1.53982e+06 0 -3.73639e+06 1.59501e+06 0 -3.81034e+06 1.65602e+06 0 -3.89299e+06 1.72445e+06 0 -3.98617e+06 1.80266e+06 0 -4.0949e+06 1.89041e+06 0 -4.2171e+06 1.99661e+06 0 -4.36762e+06 2.1222e+06 0 -4.553e+06 2.26763e+06 0 -4.75073e+06 2.48356e+06 0 -5.11955e+06 2.73965e+06 0 -5.40319e+06 3.07382e+06 0 -6.17799e+06 4.04679e+06 0 -7.12281e+06 5.57215e+06 0 -4.27287e+06 9.36539e+06 0 -708088 6.77332e+06 0 -2.09252e+06 191471 0 -2.09625e+06 196636 0 -2.10008e+06 201826 0 -2.10401e+06 207042 0 -2.10804e+06 212285 0 -2.11216e+06 217555 0 -2.11639e+06 222854 0 -2.12071e+06 228181 0 -2.12513e+06 233539 0 -2.12966e+06 238928 0 -2.13428e+06 244348 0 -2.13901e+06 249801 0 -2.14384e+06 255288 0 -2.14877e+06 260809 0 -2.1538e+06 266366 0 -2.15893e+06 271959 0 -2.16417e+06 277590 0 -2.16952e+06 283260 0 -2.17496e+06 288970 0 -2.18052e+06 294720 0 -2.18618e+06 300512 0 -2.19194e+06 306347 0 -2.19782e+06 312227 0 -2.2038e+06 318152 0 -2.20989e+06 324124 0 -2.21609e+06 330143 0 -2.2224e+06 336212 0 -2.22882e+06 342332 0 -2.23535e+06 348503 0 -2.24199e+06 354728 0 -2.24875e+06 361007 0 -2.25562e+06 367343 0 -2.2626e+06 373737 0 -2.2697e+06 380190 0 -2.27692e+06 386703 0 -2.28426e+06 393280 0 -2.29171e+06 399921 0 -2.29928e+06 406628 0 -2.30698e+06 413402 0 -2.3148e+06 420247 0 -2.32274e+06 427163 0 -2.33081e+06 434153 0 -2.339e+06 441219 0 -2.34732e+06 448362 0 -2.35577e+06 455585 0 -2.36435e+06 462891 0 -2.37306e+06 470282 0 -2.38191e+06 477760 0 -2.39089e+06 485327 0 -2.40001e+06 492987 0 -2.40927e+06 500741 0 -2.41868e+06 508594 0 -2.42822e+06 516547 0 -2.43792e+06 524605 0 -2.44776e+06 532769 0 -2.45776e+06 541044 0 -2.4679e+06 549432 0 -2.47821e+06 557938 0 -2.48868e+06 566566 0 -2.49931e+06 575319 0 -2.51011e+06 584201 0 -2.52108e+06 593216 0 -2.53222e+06 602371 0 -2.54355e+06 611668 0 -2.55506e+06 621114 0 -2.56675e+06 630713 0 -2.57865e+06 640471 0 -2.59074e+06 650394 0 -2.60303e+06 660488 0 -2.61554e+06 670760 0 -2.62827e+06 681217 0 -2.64122e+06 691866 0 -2.65441e+06 702716 0 -2.66784e+06 713774 0 -2.68152e+06 725049 0 -2.69546e+06 736551 0 -2.70968e+06 748290 0 -2.72417e+06 760278 0 -2.73896e+06 772525 0 -2.75407e+06 785044 0 -2.76949e+06 797850 0 -2.78525e+06 810955 0 -2.80137e+06 824376 0 -2.81787e+06 838130 0 -2.83476e+06 852236 0 -2.85207e+06 866713 0 -2.86982e+06 881583 0 -2.88804e+06 896869 0 -2.90676e+06 912598 0 -2.92601e+06 928799 0 -2.94582e+06 945501 0 -2.96625e+06 962741 0 -2.98732e+06 980554 0 -3.00909e+06 998985 0 -3.03161e+06 1.01808e+06 0 -3.05494e+06 1.03789e+06 0 -3.07916e+06 1.05847e+06 0 -3.10433e+06 1.07989e+06 0 -3.13054e+06 1.10223e+06 0 -3.15789e+06 1.12556e+06 0 -3.18649e+06 1.14998e+06 0 -3.21647e+06 1.17561e+06 0 -3.24796e+06 1.20256e+06 0 -3.28113e+06 1.23097e+06 0 -3.31619e+06 1.26102e+06 0 -3.35334e+06 1.2929e+06 0 -3.39285e+06 1.32685e+06 0 -3.43504e+06 1.36313e+06 0 -3.48028e+06 1.40207e+06 0 -3.52899e+06 1.44409e+06 0 -3.58173e+06 1.48965e+06 0 -3.63918e+06 1.53934e+06 0 -3.70207e+06 1.59405e+06 0 -3.7716e+06 1.65453e+06 0 -3.849e+06 1.72221e+06 0 -3.93554e+06 1.79929e+06 0 -4.03541e+06 1.88623e+06 0 -4.14789e+06 1.98971e+06 0 -4.28112e+06 2.11274e+06 0 -4.44707e+06 2.25636e+06 0 -4.62122e+06 2.45692e+06 0 -4.90727e+06 2.70471e+06 0 -5.18876e+06 3.03522e+06 0 -5.62476e+06 3.75427e+06 0 -6.37894e+06 4.85402e+06 0 -5.25411e+06 7.49914e+06 0 -2.14983e+06 8.2166e+06 0 -1.14916e+06 7.04661e+06 0 -2.09672e+06 199905 0 -2.10056e+06 205096 0 -2.1045e+06 210312 0 -2.10853e+06 215555 0 -2.11266e+06 220826 0 -2.11689e+06 226125 0 -2.12122e+06 231454 0 -2.12565e+06 236812 0 -2.13018e+06 242202 0 -2.1348e+06 247623 0 -2.13953e+06 253077 0 -2.14435e+06 258564 0 -2.14928e+06 264087 0 -2.15431e+06 269644 0 -2.15944e+06 275239 0 -2.16467e+06 280871 0 -2.17e+06 286542 0 -2.17544e+06 292252 0 -2.18098e+06 298003 0 -2.18663e+06 303796 0 -2.19238e+06 309633 0 -2.19824e+06 315513 0 -2.2042e+06 321439 0 -2.21027e+06 327411 0 -2.21645e+06 333431 0 -2.22274e+06 339500 0 -2.22913e+06 345620 0 -2.23564e+06 351792 0 -2.24225e+06 358017 0 -2.24898e+06 364296 0 -2.25582e+06 370632 0 -2.26277e+06 377025 0 -2.26984e+06 383477 0 -2.27702e+06 389990 0 -2.28432e+06 396566 0 -2.29173e+06 403205 0 -2.29927e+06 409911 0 -2.30692e+06 416684 0 -2.31469e+06 423527 0 -2.32259e+06 430441 0 -2.33061e+06 437428 0 -2.33875e+06 444491 0 -2.34702e+06 451632 0 -2.35541e+06 458852 0 -2.36394e+06 466154 0 -2.37259e+06 473541 0 -2.38138e+06 481014 0 -2.3903e+06 488577 0 -2.39936e+06 496231 0 -2.40855e+06 503980 0 -2.41788e+06 511827 0 -2.42736e+06 519774 0 -2.43698e+06 527825 0 -2.44674e+06 535982 0 -2.45666e+06 544249 0 -2.46673e+06 552629 0 -2.47695e+06 561126 0 -2.48733e+06 569744 0 -2.49787e+06 578487 0 -2.50857e+06 587359 0 -2.51945e+06 596363 0 -2.53049e+06 605506 0 -2.54171e+06 614791 0 -2.55312e+06 624223 0 -2.5647e+06 633809 0 -2.57648e+06 643552 0 -2.58845e+06 653460 0 -2.60063e+06 663539 0 -2.61301e+06 673794 0 -2.62561e+06 684234 0 -2.63842e+06 694865 0 -2.65147e+06 705695 0 -2.66475e+06 716733 0 -2.67828e+06 727987 0 -2.69206e+06 739468 0 -2.70611e+06 751184 0 -2.72043e+06 763148 0 -2.73505e+06 775370 0 -2.74996e+06 787863 0 -2.76519e+06 800641 0 -2.78074e+06 813718 0 -2.79665e+06 827110 0 -2.81292e+06 840833 0 -2.82957e+06 854906 0 -2.84663e+06 869348 0 -2.86411e+06 884182 0 -2.88205e+06 899431 0 -2.90047e+06 915121 0 -2.9194e+06 931280 0 -2.93888e+06 947939 0 -2.95894e+06 965132 0 -2.97963e+06 982896 0 -3.00099e+06 1.00127e+06 0 -3.02307e+06 1.02031e+06 0 -3.04592e+06 1.04006e+06 0 -3.06962e+06 1.06058e+06 0 -3.09424e+06 1.08194e+06 0 -3.11984e+06 1.1042e+06 0 -3.14653e+06 1.12745e+06 0 -3.1744e+06 1.15179e+06 0 -3.20357e+06 1.17731e+06 0 -3.23418e+06 1.20415e+06 0 -3.26637e+06 1.23245e+06 0 -3.30033e+06 1.26237e+06 0 -3.33626e+06 1.2941e+06 0 -3.37439e+06 1.32787e+06 0 -3.415e+06 1.36395e+06 0 -3.45844e+06 1.40266e+06 0 -3.50509e+06 1.44439e+06 0 -3.55543e+06 1.48962e+06 0 -3.61007e+06 1.53891e+06 0 -3.66965e+06 1.5931e+06 0 -3.73516e+06 1.65298e+06 0 -3.80774e+06 1.71982e+06 0 -3.88837e+06 1.7957e+06 0 -3.98029e+06 1.8815e+06 0 -4.08398e+06 1.98235e+06 0 -4.20334e+06 2.10233e+06 0 -4.35049e+06 2.24282e+06 0 -4.50797e+06 2.43079e+06 0 -4.73213e+06 2.66664e+06 0 -4.99061e+06 2.97945e+06 0 -5.27841e+06 3.55334e+06 0 -5.79146e+06 4.40041e+06 0 -5.44689e+06 6.22663e+06 0 -3.33952e+06 7.67493e+06 0 -1.42117e+06 6.7808e+06 0 -922929 6.01613e+06 0 -2.10109e+06 208460 0 -2.10504e+06 213677 0 -2.10909e+06 218921 0 -2.11323e+06 224193 0 -2.11746e+06 229492 0 -2.1218e+06 234822 0 -2.12623e+06 240181 0 -2.13076e+06 245571 0 -2.13539e+06 250994 0 -2.14011e+06 256449 0 -2.14494e+06 261937 0 -2.14986e+06 267461 0 -2.15489e+06 273020 0 -2.16001e+06 278615 0 -2.16524e+06 284248 0 -2.17056e+06 289920 0 -2.17599e+06 295632 0 -2.18152e+06 301384 0 -2.18716e+06 307178 0 -2.19289e+06 313015 0 -2.19873e+06 318897 0 -2.20468e+06 324823 0 -2.21073e+06 330796 0 -2.21689e+06 336817 0 -2.22316e+06 342887 0 -2.22953e+06 349008 0 -2.23601e+06 355180 0 -2.2426e+06 361405 0 -2.2493e+06 367685 0 -2.25611e+06 374020 0 -2.26303e+06 380413 0 -2.27006e+06 386866 0 -2.27721e+06 393378 0 -2.28447e+06 399953 0 -2.29185e+06 406592 0 -2.29935e+06 413297 0 -2.30696e+06 420069 0 -2.31469e+06 426910 0 -2.32254e+06 433822 0 -2.33051e+06 440808 0 -2.3386e+06 447869 0 -2.34682e+06 455007 0 -2.35516e+06 462224 0 -2.36363e+06 469523 0 -2.37223e+06 476906 0 -2.38096e+06 484376 0 -2.38982e+06 491935 0 -2.39881e+06 499585 0 -2.40794e+06 507329 0 -2.4172e+06 515171 0 -2.42661e+06 523112 0 -2.43616e+06 531156 0 -2.44585e+06 539307 0 -2.45568e+06 547567 0 -2.46567e+06 555940 0 -2.47581e+06 564429 0 -2.4861e+06 573039 0 -2.49656e+06 581773 0 -2.50717e+06 590635 0 -2.51795e+06 599629 0 -2.5289e+06 608761 0 -2.54002e+06 618035 0 -2.55132e+06 627456 0 -2.5628e+06 637028 0 -2.57446e+06 646759 0 -2.58632e+06 656653 0 -2.59838e+06 666717 0 -2.61063e+06 676957 0 -2.6231e+06 687380 0 -2.63578e+06 697995 0 -2.64869e+06 708807 0 -2.66183e+06 719827 0 -2.67521e+06 731062 0 -2.68884e+06 742522 0 -2.70272e+06 754217 0 -2.71688e+06 766158 0 -2.73132e+06 778357 0 -2.74605e+06 790826 0 -2.76108e+06 803579 0 -2.77644e+06 816629 0 -2.79213e+06 829993 0 -2.80818e+06 843687 0 -2.8246e+06 857729 0 -2.84141e+06 872140 0 -2.85864e+06 886940 0 -2.8763e+06 902154 0 -2.89443e+06 917806 0 -2.91306e+06 933926 0 -2.93221e+06 950543 0 -2.95193e+06 967692 0 -2.97224e+06 985409 0 -2.99321e+06 1.00374e+06 0 -3.01486e+06 1.02272e+06 0 -3.03726e+06 1.04242e+06 0 -3.06046e+06 1.06287e+06 0 -3.08453e+06 1.08416e+06 0 -3.10955e+06 1.10635e+06 0 -3.13561e+06 1.12952e+06 0 -3.16278e+06 1.15377e+06 0 -3.19119e+06 1.1792e+06 0 -3.22096e+06 1.20593e+06 0 -3.25222e+06 1.23411e+06 0 -3.28514e+06 1.26389e+06 0 -3.3199e+06 1.29547e+06 0 -3.35672e+06 1.32906e+06 0 -3.39586e+06 1.36493e+06 0 -3.43761e+06 1.4034e+06 0 -3.48233e+06 1.44484e+06 0 -3.53044e+06 1.48972e+06 0 -3.58246e+06 1.53859e+06 0 -3.63898e+06 1.59222e+06 0 -3.70081e+06 1.65144e+06 0 -3.76897e+06 1.71742e+06 0 -3.84429e+06 1.79204e+06 0 -3.92915e+06 1.87651e+06 0 -4.02475e+06 1.97485e+06 0 -4.13283e+06 2.09146e+06 0 -4.26307e+06 2.22827e+06 0 -4.40601e+06 2.40526e+06 0 -4.58764e+06 2.62847e+06 0 -4.8109e+06 2.91989e+06 0 -5.03331e+06 3.39934e+06 0 -5.36436e+06 4.08577e+06 0 -5.3297e+06 5.38891e+06 0 -4.03095e+06 6.84128e+06 0 -2.18156e+06 6.88203e+06 0 -1.19189e+06 5.95717e+06 0 -778251 5.30117e+06 0 -2.10565e+06 217139 0 -2.1097e+06 222384 0 -2.11385e+06 227656 0 -2.1181e+06 232957 0 -2.12244e+06 238287 0 -2.12688e+06 243647 0 -2.13141e+06 249038 0 -2.13604e+06 254462 0 -2.14077e+06 259918 0 -2.14559e+06 265408 0 -2.15052e+06 270932 0 -2.15554e+06 276493 0 -2.16066e+06 282090 0 -2.16588e+06 287724 0 -2.1712e+06 293397 0 -2.17662e+06 299110 0 -2.18214e+06 304864 0 -2.18776e+06 310659 0 -2.19348e+06 316497 0 -2.19931e+06 322380 0 -2.20524e+06 328308 0 -2.21127e+06 334282 0 -2.21741e+06 340304 0 -2.22366e+06 346375 0 -2.23001e+06 352496 0 -2.23646e+06 358669 0 -2.24303e+06 364895 0 -2.2497e+06 371175 0 -2.25648e+06 377511 0 -2.26338e+06 383905 0 -2.27038e+06 390357 0 -2.27749e+06 396870 0 -2.28472e+06 403444 0 -2.29206e+06 410083 0 -2.29952e+06 416787 0 -2.30709e+06 423558 0 -2.31478e+06 430398 0 -2.32258e+06 437310 0 -2.33051e+06 444294 0 -2.33855e+06 451353 0 -2.34672e+06 458489 0 -2.35501e+06 465704 0 -2.36343e+06 473001 0 -2.37197e+06 480381 0 -2.38064e+06 487848 0 -2.38944e+06 495403 0 -2.39837e+06 503049 0 -2.40744e+06 510790 0 -2.41664e+06 518626 0 -2.42597e+06 526563 0 -2.43545e+06 534602 0 -2.44507e+06 542747 0 -2.45483e+06 551001 0 -2.46474e+06 559367 0 -2.4748e+06 567849 0 -2.48501e+06 576451 0 -2.49537e+06 585177 0 -2.5059e+06 594031 0 -2.51659e+06 603016 0 -2.52744e+06 612139 0 -2.53846e+06 621402 0 -2.54966e+06 630812 0 -2.56103e+06 640373 0 -2.57259e+06 650092 0 -2.58433e+06 659974 0 -2.59627e+06 670024 0 -2.60841e+06 680250 0 -2.62075e+06 690659 0 -2.63331e+06 701258 0 -2.64608e+06 712054 0 -2.65908e+06 723057 0 -2.67231e+06 734274 0 -2.68579e+06 745716 0 -2.69952e+06 757391 0 -2.71351e+06 769312 0 -2.72777e+06 781490 0 -2.74232e+06 793936 0 -2.75717e+06 806665 0 -2.77233e+06 819691 0 -2.78782e+06 833029 0 -2.80365e+06 846696 0 -2.81985e+06 860710 0 -2.83642e+06 875090 0 -2.8534e+06 889859 0 -2.8708e+06 905040 0 -2.88865e+06 920657 0 -2.90698e+06 936739 0 -2.92582e+06 953317 0 -2.9452e+06 970424 0 -2.96515e+06 988098 0 -2.98573e+06 1.00638e+06 0 -3.00697e+06 1.02531e+06 0 -3.02893e+06 1.04495e+06 0 -3.05165e+06 1.06535e+06 0 -3.07521e+06 1.08657e+06 0 -3.09967e+06 1.10869e+06 0 -3.12511e+06 1.13179e+06 0 -3.15162e+06 1.15595e+06 0 -3.1793e+06 1.18128e+06 0 -3.20826e+06 1.20791e+06 0 -3.23863e+06 1.23597e+06 0 -3.27057e+06 1.26561e+06 0 -3.30423e+06 1.29703e+06 0 -3.33981e+06 1.33044e+06 0 -3.37756e+06 1.3661e+06 0 -3.41772e+06 1.40432e+06 0 -3.46063e+06 1.44546e+06 0 -3.50665e+06 1.48998e+06 0 -3.55624e+06 1.53841e+06 0 -3.60993e+06 1.59148e+06 0 -3.66838e+06 1.65002e+06 0 -3.73248e+06 1.7151e+06 0 -3.80299e+06 1.78845e+06 0 -3.8816e+06 1.87146e+06 0 -3.96975e+06 1.96739e+06 0 -4.06834e+06 2.08053e+06 0 -4.18408e+06 2.2134e+06 0 -4.3132e+06 2.38073e+06 0 -4.46567e+06 2.5914e+06 0 -4.65304e+06 2.86222e+06 0 -4.83868e+06 3.27354e+06 0 -5.05867e+06 3.85182e+06 0 -5.11528e+06 4.82224e+06 0 -4.36057e+06 6.08086e+06 0 -2.85097e+06 6.62012e+06 0 -1.63128e+06 6.10037e+06 0 -1.07076e+06 5.45439e+06 0 -743380 4.93699e+06 0 -2.11039e+06 225944 0 -2.11455e+06 231218 0 -2.1188e+06 236519 0 -2.12315e+06 241850 0 -2.12759e+06 247212 0 -2.13213e+06 252604 0 -2.13676e+06 258029 0 -2.14149e+06 263487 0 -2.14632e+06 268978 0 -2.15124e+06 274504 0 -2.15626e+06 280066 0 -2.16138e+06 285664 0 -2.16659e+06 291300 0 -2.1719e+06 296974 0 -2.17731e+06 302689 0 -2.18283e+06 308444 0 -2.18844e+06 314241 0 -2.19415e+06 320081 0 -2.19996e+06 325964 0 -2.20588e+06 331894 0 -2.2119e+06 337869 0 -2.21802e+06 343892 0 -2.22424e+06 349965 0 -2.23057e+06 356087 0 -2.23701e+06 362261 0 -2.24355e+06 368488 0 -2.25019e+06 374769 0 -2.25695e+06 381106 0 -2.26381e+06 387500 0 -2.27078e+06 393953 0 -2.27786e+06 400466 0 -2.28506e+06 407041 0 -2.29236e+06 413679 0 -2.29978e+06 420383 0 -2.30731e+06 427154 0 -2.31496e+06 433994 0 -2.32272e+06 440904 0 -2.33061e+06 447888 0 -2.33861e+06 454946 0 -2.34672e+06 462080 0 -2.35497e+06 469294 0 -2.36333e+06 476589 0 -2.37182e+06 483967 0 -2.38043e+06 491431 0 -2.38917e+06 498983 0 -2.39805e+06 506627 0 -2.40705e+06 514363 0 -2.41618e+06 522196 0 -2.42545e+06 530129 0 -2.43486e+06 538163 0 -2.44441e+06 546303 0 -2.4541e+06 554552 0 -2.46393e+06 562912 0 -2.47391e+06 571389 0 -2.48404e+06 579984 0 -2.49432e+06 588703 0 -2.50476e+06 597549 0 -2.51535e+06 606527 0 -2.52611e+06 615640 0 -2.53704e+06 624895 0 -2.54814e+06 634295 0 -2.55941e+06 643846 0 -2.57086e+06 653554 0 -2.58249e+06 663424 0 -2.59432e+06 673463 0 -2.60634e+06 683677 0 -2.61856e+06 694072 0 -2.63098e+06 704657 0 -2.64362e+06 715439 0 -2.65649e+06 726426 0 -2.66958e+06 737627 0 -2.68291e+06 749051 0 -2.69648e+06 760709 0 -2.71031e+06 772612 0 -2.72441e+06 784770 0 -2.73879e+06 797196 0 -2.75345e+06 809903 0 -2.76842e+06 822906 0 -2.78371e+06 836220 0 -2.79934e+06 849862 0 -2.81531e+06 863850 0 -2.83165e+06 878203 0 -2.84839e+06 892942 0 -2.86553e+06 908092 0 -2.88311e+06 923677 0 -2.90115e+06 939724 0 -2.91968e+06 956265 0 -2.93873e+06 973333 0 -2.95835e+06 990965 0 -2.97855e+06 1.0092e+06 0 -2.99939e+06 1.02809e+06 0 -3.02092e+06 1.04767e+06 0 -3.04319e+06 1.06801e+06 0 -3.06625e+06 1.08918e+06 0 -3.09017e+06 1.11123e+06 0 -3.11503e+06 1.13425e+06 0 -3.1409e+06 1.15833e+06 0 -3.16788e+06 1.18357e+06 0 -3.19607e+06 1.21009e+06 0 -3.2256e+06 1.23803e+06 0 -3.25659e+06 1.26754e+06 0 -3.2892e+06 1.2988e+06 0 -3.32362e+06 1.33203e+06 0 -3.36004e+06 1.36748e+06 0 -3.39871e+06 1.40545e+06 0 -3.43992e+06 1.44629e+06 0 -3.48398e+06 1.49044e+06 0 -3.53131e+06 1.53843e+06 0 -3.58237e+06 1.59093e+06 0 -3.63771e+06 1.64876e+06 0 -3.69809e+06 1.71294e+06 0 -3.76419e+06 1.78502e+06 0 -3.83724e+06 1.8665e+06 0 -3.91861e+06 1.96012e+06 0 -4.00893e+06 2.06985e+06 0 -4.11249e+06 2.19862e+06 0 -4.22857e+06 2.35746e+06 0 -4.35995e+06 2.55611e+06 0 -4.51637e+06 2.80818e+06 0 -4.67435e+06 3.16814e+06 0 -4.83113e+06 3.66666e+06 0 -4.89768e+06 4.42526e+06 0 -4.46493e+06 5.46257e+06 0 -3.33594e+06 6.19789e+06 0 -2.11246e+06 6.08862e+06 0 -1.36601e+06 5.54372e+06 0 -974299 5.07922e+06 0 -732869 4.67606e+06 0 -2.11531e+06 234879 0 -2.11957e+06 240182 0 -2.12393e+06 245514 0 -2.12838e+06 250877 0 -2.13292e+06 256271 0 -2.13756e+06 261697 0 -2.14229e+06 267156 0 -2.14712e+06 272649 0 -2.15204e+06 278176 0 -2.15705e+06 283740 0 -2.16217e+06 289340 0 -2.16738e+06 294977 0 -2.17269e+06 300654 0 -2.17809e+06 306370 0 -2.18359e+06 312126 0 -2.18919e+06 317925 0 -2.1949e+06 323766 0 -2.2007e+06 329652 0 -2.2066e+06 335583 0 -2.2126e+06 341560 0 -2.2187e+06 347585 0 -2.22491e+06 353659 0 -2.23122e+06 359782 0 -2.23763e+06 365958 0 -2.24415e+06 372186 0 -2.25077e+06 378468 0 -2.2575e+06 384806 0 -2.26433e+06 391201 0 -2.27128e+06 397655 0 -2.27833e+06 404169 0 -2.28549e+06 410744 0 -2.29276e+06 417383 0 -2.30014e+06 424088 0 -2.30763e+06 430859 0 -2.31524e+06 437698 0 -2.32296e+06 444609 0 -2.3308e+06 451592 0 -2.33876e+06 458649 0 -2.34683e+06 465783 0 -2.35502e+06 472995 0 -2.36334e+06 480289 0 -2.37177e+06 487665 0 -2.38033e+06 495127 0 -2.38902e+06 502678 0 -2.39783e+06 510319 0 -2.40677e+06 518053 0 -2.41584e+06 525883 0 -2.42505e+06 533812 0 -2.43439e+06 541842 0 -2.44387e+06 549978 0 -2.45348e+06 558222 0 -2.46324e+06 566578 0 -2.47314e+06 575049 0 -2.48319e+06 583639 0 -2.49339e+06 592352 0 -2.50374e+06 601191 0 -2.51425e+06 610162 0 -2.52492e+06 619268 0 -2.53575e+06 628515 0 -2.54675e+06 637906 0 -2.55792e+06 647449 0 -2.56927e+06 657147 0 -2.5808e+06 667007 0 -2.59251e+06 677035 0 -2.60441e+06 687238 0 -2.61651e+06 697621 0 -2.62882e+06 708194 0 -2.64133e+06 718962 0 -2.65406e+06 729936 0 -2.66701e+06 741122 0 -2.68019e+06 752532 0 -2.69362e+06 764174 0 -2.70729e+06 776059 0 -2.72123e+06 788199 0 -2.73544e+06 800607 0 -2.74992e+06 813295 0 -2.76471e+06 826277 0 -2.7798e+06 839569 0 -2.79522e+06 853189 0 -2.81098e+06 867152 0 -2.8271e+06 881480 0 -2.8436e+06 896193 0 -2.86049e+06 911314 0 -2.87781e+06 926869 0 -2.89557e+06 942884 0 -2.9138e+06 959391 0 -2.93254e+06 976423 0 -2.95181e+06 994015 0 -2.97166e+06 1.01221e+06 0 -2.99212e+06 1.03105e+06 0 -3.01324e+06 1.05059e+06 0 -3.03506e+06 1.07087e+06 0 -3.05764e+06 1.09198e+06 0 -3.08105e+06 1.11396e+06 0 -3.10534e+06 1.13691e+06 0 -3.1306e+06 1.16091e+06 0 -3.15691e+06 1.18606e+06 0 -3.18437e+06 1.21248e+06 0 -3.21308e+06 1.24031e+06 0 -3.24318e+06 1.26968e+06 0 -3.27479e+06 1.30079e+06 0 -3.3081e+06 1.33385e+06 0 -3.34327e+06 1.36908e+06 0 -3.38053e+06 1.4068e+06 0 -3.42014e+06 1.44734e+06 0 -3.46237e+06 1.49112e+06 0 -3.50759e+06 1.53866e+06 0 -3.55619e+06 1.5906e+06 0 -3.60866e+06 1.64772e+06 0 -3.66561e+06 1.71099e+06 0 -3.72767e+06 1.78184e+06 0 -3.79573e+06 1.86177e+06 0 -3.87097e+06 1.95317e+06 0 -3.95394e+06 2.05961e+06 0 -4.04724e+06 2.18426e+06 0 -4.15137e+06 2.33558e+06 0 -4.2664e+06 2.523e+06 0 -4.39793e+06 2.7582e+06 0 -4.53222e+06 3.0785e+06 0 -4.652e+06 3.51441e+06 0 -4.70644e+06 4.13376e+06 0 -4.45021e+06 4.98078e+06 0 -3.64097e+06 5.74469e+06 0 -2.54788e+06 5.92899e+06 0 -1.69693e+06 5.58296e+06 0 -1.2042e+06 5.14505e+06 0 -902629 4.76219e+06 0 -713282 4.43099e+06 0 -2.12041e+06 243947 0 -2.12478e+06 249280 0 -2.12923e+06 254645 0 -2.13378e+06 260040 0 -2.13842e+06 265467 0 -2.14316e+06 270928 0 -2.14799e+06 276422 0 -2.15291e+06 281952 0 -2.15792e+06 287517 0 -2.16304e+06 293119 0 -2.16824e+06 298758 0 -2.17354e+06 304436 0 -2.17894e+06 310154 0 -2.18444e+06 315913 0 -2.19003e+06 321713 0 -2.19572e+06 327557 0 -2.20151e+06 333444 0 -2.2074e+06 339377 0 -2.21339e+06 345356 0 -2.21947e+06 351383 0 -2.22566e+06 357458 0 -2.23195e+06 363584 0 -2.23834e+06 369761 0 -2.24484e+06 375991 0 -2.25144e+06 382274 0 -2.25814e+06 388614 0 -2.26495e+06 395010 0 -2.27186e+06 401465 0 -2.27888e+06 407980 0 -2.28601e+06 414557 0 -2.29325e+06 421197 0 -2.30059e+06 427902 0 -2.30805e+06 434674 0 -2.31562e+06 441514 0 -2.3233e+06 448424 0 -2.3311e+06 455407 0 -2.33901e+06 462464 0 -2.34704e+06 469598 0 -2.35518e+06 476810 0 -2.36345e+06 484103 0 -2.37183e+06 491478 0 -2.38034e+06 498939 0 -2.38897e+06 506488 0 -2.39772e+06 514127 0 -2.40661e+06 521859 0 -2.41562e+06 529687 0 -2.42476e+06 537613 0 -2.43403e+06 545641 0 -2.44344e+06 553774 0 -2.45299e+06 562014 0 -2.46267e+06 570366 0 -2.4725e+06 578833 0 -2.48247e+06 587418 0 -2.49259e+06 596126 0 -2.50286e+06 604960 0 -2.51328e+06 613924 0 -2.52386e+06 623024 0 -2.5346e+06 632264 0 -2.54551e+06 641649 0 -2.55658e+06 651183 0 -2.56782e+06 660873 0 -2.57924e+06 670725 0 -2.59085e+06 680744 0 -2.60264e+06 690936 0 -2.61462e+06 701310 0 -2.6268e+06 711871 0 -2.63919e+06 722628 0 -2.65179e+06 733589 0 -2.6646e+06 744763 0 -2.67765e+06 756159 0 -2.69093e+06 767786 0 -2.70445e+06 779657 0 -2.71822e+06 791781 0 -2.73227e+06 804172 0 -2.74658e+06 816842 0 -2.76119e+06 829807 0 -2.77609e+06 843080 0 -2.79131e+06 856678 0 -2.80686e+06 870620 0 -2.82276e+06 884925 0 -2.83903e+06 899613 0 -2.85568e+06 914709 0 -2.87274e+06 930236 0 -2.89023e+06 946222 0 -2.90817e+06 962698 0 -2.9266e+06 979696 0 -2.94555e+06 997252 0 -2.96505e+06 1.01541e+06 0 -2.98514e+06 1.0342e+06 0 -3.00586e+06 1.0537e+06 0 -3.02725e+06 1.07393e+06 0 -3.04937e+06 1.09498e+06 0 -3.07228e+06 1.1169e+06 0 -3.09603e+06 1.13978e+06 0 -3.1207e+06 1.16371e+06 0 -3.14637e+06 1.18877e+06 0 -3.17312e+06 1.2151e+06 0 -3.20106e+06 1.24281e+06 0 -3.2303e+06 1.27206e+06 0 -3.26097e+06 1.30302e+06 0 -3.29322e+06 1.33589e+06 0 -3.32721e+06 1.37092e+06 0 -3.36313e+06 1.40839e+06 0 -3.40123e+06 1.44863e+06 0 -3.44174e+06 1.49206e+06 0 -3.48497e+06 1.53915e+06 0 -3.53129e+06 1.59053e+06 0 -3.58109e+06 1.64694e+06 0 -3.63489e+06 1.70932e+06 0 -3.69323e+06 1.77897e+06 0 -3.75679e+06 1.85735e+06 0 -3.82649e+06 1.94661e+06 0 -3.90285e+06 2.04993e+06 0 -3.98739e+06 2.17053e+06 0 -4.08084e+06 2.31511e+06 0 -4.18245e+06 2.49226e+06 0 -4.29435e+06 2.71226e+06 0 -4.4081e+06 3.00125e+06 0 -4.50402e+06 3.38663e+06 0 -4.54458e+06 3.90936e+06 0 -4.38192e+06 4.6083e+06 0 -3.80758e+06 5.3241e+06 0 -2.89529e+06 5.67958e+06 0 -2.03075e+06 5.54284e+06 0 -1.44937e+06 5.18249e+06 0 -1.0886e+06 4.82324e+06 0 -850972 4.49452e+06 0 -693137 4.21083e+06 0 -2.12569e+06 253150 