<?xml version="1.0"?> 
<VTKFile type="StructuredGrid" version="0.1"> 
<StructuredGrid WholeExtent="0 127 0 127 0 0"> 
<Piece Extent="0 127 0 127 0 0"> 
<PointData>
<DataArray type="Float32" Name="|E|" format="ascii" NumberOfComponents="3"> 
482869 7.32372e+06 0 442305 6.70848e+06 0 425636 6.45567e+06 0 414382 6.28497e+06 0 405400 6.14873e+06 0 397914 6.0352e+06 0 391423 5.93675e+06 0 385704 5.85001e+06 0 380578 5.77227e+06 0 375939 5.7019e+06 0 371700 5.63761e+06 0 367802 5.57848e+06 0 364194 5.52377e+06 0 360840 5.47289e+06 0 357708 5.42539e+06 0 354773 5.38087e+06 0 352013 5.33901e+06 0 349411 5.29955e+06 0 346951 5.26224e+06 0 344621 5.2269e+06 0 342408 5.19334e+06 0 340304 5.16142e+06 0 338299 5.13101e+06 0 336385 5.10198e+06 0 334556 5.07424e+06 0 332806 5.0477e+06 0 331129 5.02226e+06 0 329520 4.99786e+06 0 327975 4.97443e+06 0 326490 4.9519e+06 0 325060 4.93022e+06 0 323684 4.90934e+06 0 322357 4.88922e+06 0 321077 4.8698e+06 0 319841 4.85106e+06 0 318647 4.83295e+06 0 317493 4.81544e+06 0 316376 4.7985e+06 0 315295 4.78211e+06 0 314248 4.76623e+06 0 313233 4.75084e+06 0 312250 4.73592e+06 0 311295 4.72144e+06 0 310369 4.70739e+06 0 309469 4.69375e+06 0 308595 4.6805e+06 0 307746 4.66762e+06 0 306921 4.65509e+06 0 306117 4.64291e+06 0 305336 4.63106e+06 0 304575 4.61952e+06 0 303834 4.60829e+06 0 303113 4.59734e+06 0 302410 4.58668e+06 0 301725 4.57629e+06 0 301057 4.56615e+06 0 300405 4.55627e+06 0 299770 4.54663e+06 0 299149 4.53723e+06 0 298544 4.52804e+06 0 297953 4.51908e+06 0 297376 4.51033e+06 0 296812 4.50177e+06 0 296261 4.49342e+06 0 295723 4.48526e+06 0 295197 4.47728e+06 0 294683 4.46948e+06 0 294180 4.46185e+06 0 293688 4.45439e+06 0 293207 4.44709e+06 0 292736 4.43996e+06 0 292276 4.43297e+06 0 291825 4.42613e+06 0 291384 4.41944e+06 0 290952 4.41289e+06 0 290529 4.40648e+06 0 290115 4.4002e+06 0 289709 4.39404e+06 0 289312 4.38802e+06 0 288922 4.38211e+06 0 288541 4.37633e+06 0 288168 4.37066e+06 0 287801 4.36511e+06 0 287442 4.35967e+06 0 287091 4.35433e+06 0 286746 4.3491e+06 0 286408 4.34398e+06 0 286077 4.33895e+06 0 285752 4.33402e+06 0 285433 4.32919e+06 0 285120 4.32445e+06 0 284814 4.3198e+06 0 284514 4.31524e+06 0 284219 4.31077e+06 0 283930 4.30639e+06 0 283646 4.30209e+06 0 283368 4.29787e+06 0 283095 4.29373e+06 0 282828 4.28968e+06 0 282565 4.28569e+06 0 282308 4.28179e+06 0 282055 4.27796e+06 0 281807 4.2742e+06 0 281564 4.27051e+06 0 281326 4.2669e+06 0 281092 4.26335e+06 0 280863 4.25987e+06 0 280638 4.25646e+06 0 280417 4.25312e+06 0 280201 4.24984e+06 0 279989 4.24662e+06 0 279781 4.24346e+06 0 279577 4.24037e+06 0 279377 4.23734e+06 0 279181 4.23437e+06 0 278989 4.23145e+06 0 278801 4.2286e+06 0 278616 4.2258e+06 0 278436 4.22306e+06 0 278259 4.22037e+06 0 278085 4.21774e+06 0 277915 4.21517e+06 0 277749 4.21265e+06 0 277587 4.21018e+06 0 277427 4.20777e+06 0 277272 4.2054e+06 0 277119 4.20309e+06 0 276970 4.20083e+06 0 -84063.9 6.77127e+06 0 73766.2 6.6142e+06 0 161180 6.43351e+06 0 206424 6.27984e+06 0 233297 6.15069e+06 0 250427 6.03964e+06 0 262228 5.94255e+06 0 270637 5.85628e+06 0 276855 5.77874e+06 0 281536 5.70835e+06 0 285122 5.64396e+06 0 287894 5.58466e+06 0 290051 5.52976e+06 0 291733 5.47868e+06 0 293042 5.43097e+06 0 294055 5.38625e+06 0 294830 5.34419e+06 0 295412 5.30453e+06 0 295836 5.26704e+06 0 296129 5.23152e+06 0 296315 5.1978e+06 0 296411 5.16572e+06 0 296433 5.13515e+06 0 296391 5.10599e+06 0 296297 5.07811e+06 0 296159 5.05143e+06 0 295983 5.02587e+06 0 295776 5.00135e+06 0 295543 4.97781e+06 0 295287 4.95517e+06 0 295013 4.93339e+06 0 294724 4.91241e+06 0 294422 4.89219e+06 0 294110 4.87269e+06 0 293789 4.85386e+06 0 293461 4.83567e+06 0 293128 4.81809e+06 0 292791 4.80107e+06 0 292451 4.78461e+06 0 292109 4.76866e+06 0 291766 4.75321e+06 0 291422 4.73822e+06 0 291079 4.72368e+06 0 290737 4.70958e+06 0 290395 4.69588e+06 0 290056 4.68257e+06 0 289718 4.66964e+06 0 289383 4.65706e+06 0 289050 4.64483e+06 0 288721 4.63293e+06 0 288394 4.62135e+06 0 288070 4.61007e+06 0 287750 4.59909e+06 0 287434 4.58839e+06 0 287120 4.57795e+06 0 286811 4.56778e+06 0 286505 4.55786e+06 0 286203 4.54819e+06 0 285905 4.53875e+06 0 285611 4.52953e+06 0 285321 4.52053e+06 0 285034 4.51175e+06 0 284752 4.50317e+06 0 284473 4.49478e+06 0 284198 4.48659e+06 0 283927 4.47859e+06 0 283661 4.47076e+06 0 283397 4.4631e+06 0 283138 4.45562e+06 0 282883 4.4483e+06 0 282632 4.44113e+06 0 282384 4.43412e+06 0 282140 4.42727e+06 0 281900 4.42055e+06 0 281663 4.41398e+06 0 281431 4.40754e+06 0 281201 4.40124e+06 0 280976 4.39507e+06 0 280754 4.38902e+06 0 280536 4.3831e+06 0 280321 4.3773e+06 0 280109 4.37161e+06 0 279901 4.36604e+06 0 279697 4.36058e+06 0 279496 4.35523e+06 0 279298 4.34998e+06 0 279104 4.34484e+06 0 278912 4.33979e+06 0 278725 4.33485e+06 0 278540 4.33e+06 0 278358 4.32525e+06 0 278180 4.32059e+06 0 278005 4.31601e+06 0 277833 4.31153e+06 0 277664 4.30713e+06 0 277498 4.30282e+06 0 277336 4.29858e+06 0 277176 4.29443e+06 0 277019 4.29036e+06 0 276865 4.28637e+06 0 276714 4.28245e+06 0 276567 4.27861e+06 0 276422 4.27484e+06 0 276280 4.27114e+06 0 276140 4.26751e+06 0 276004 4.26395e+06 0 275871 4.26046e+06 0 275740 4.25704e+06 0 275612 4.25368e+06 0 275487 4.25039e+06 0 275365 4.24716e+06 0 275245 4.244e+06 0 275129 4.24089e+06 0 275015 4.23785e+06 0 274904 4.23487e+06 0 274795 4.23194e+06 0 274690 4.22908e+06 0 274587 4.22627e+06 0 274486 4.22352e+06 0 274389 4.22083e+06 0 274294 4.21819e+06 0 274202 4.2156e+06 0 274113 4.21307e+06 0 274026 4.2106e+06 0 273942 4.20817e+06 0 273861 4.2058e+06 0 273783 4.20348e+06 0 273707 4.20121e+06 0 -273245 6.57484e+06 0 -140069 6.46243e+06 0 -45065 6.34295e+06 0 23967.8 6.22513e+06 0 73196.3 6.11577e+06 0 109299 6.01654e+06 0 136462 5.92674e+06 0 157518 5.84528e+06 0 174205 5.77101e+06 0 187705 5.70293e+06 0 198800 5.6402e+06 0 208049 5.58214e+06 0 215846 5.52817e+06 0 222485 5.4778e+06 0 228185 5.43064e+06 0 233115 5.38634e+06 0 237407 5.34462e+06 0 241163 5.30523e+06 0 244467 5.26795e+06 0 247385 5.23259e+06 0 249972 5.19899e+06 0 252274 5.16702e+06 0 254328 5.13653e+06 0 256166 5.10742e+06 0 257814 5.07959e+06 0 259295 5.05295e+06 0 260629 5.02742e+06 0 261831 5.00291e+06 0 262917 4.97937e+06 0 263899 4.95674e+06 0 264787 4.93496e+06 0 265592 4.91398e+06 0 266321 4.89375e+06 0 266983 4.87424e+06 0 267583 4.85539e+06 0 268127 4.83719e+06 0 268621 4.81959e+06 0 269069 4.80256e+06 0 269475 4.78607e+06 0 269843 4.77011e+06 0 270176 4.75463e+06 0 270477 4.73963e+06 0 270749 4.72507e+06 0 270994 4.71094e+06 0 271215 4.69722e+06 0 271413 4.68389e+06 0 271591 4.67094e+06 0 271750 4.65834e+06 0 271891 4.64609e+06 0 272016 4.63417e+06 0 272126 4.62257e+06 0 272222 4.61127e+06 0 272306 4.60027e+06 0 272378 4.58954e+06 0 272439 4.57909e+06 0 272491 4.5689e+06 0 272533 4.55897e+06 0 272567 4.54927e+06 0 272593 4.53981e+06 0 272612 4.53058e+06 0 272624 4.52156e+06 0 272630 4.51276e+06 0 272630 4.50416e+06 0 272626 4.49576e+06 0 272616 4.48755e+06 0 272602 4.47953e+06 0 272584 4.47168e+06 0 272562 4.46401e+06 0 272537 4.45651e+06 0 272509 4.44918e+06 0 272478 4.442e+06 0 272444 4.43497e+06 0 272408 4.4281e+06 0 272370 4.42137e+06 0 272330 4.41478e+06 0 272289 4.40834e+06 0 272246 4.40202e+06 0 272201 4.39583e+06 0 272156 4.38978e+06 0 272109 4.38384e+06 0 272061 4.37802e+06 0 272013 4.37233e+06 0 271964 4.36674e+06 0 271915 4.36127e+06 0 271865 4.3559e+06 0 271815 4.35065e+06 0 271765 4.34549e+06 0 271715 4.34044e+06 0 271665 4.33548e+06 0 271615 4.33062e+06 0 271565 4.32586e+06 0 271515 4.32118e+06 0 271466 4.3166e+06 0 271417 4.31211e+06 0 271369 4.3077e+06 0 271321 4.30337e+06 0 271275 4.29913e+06 0 271228 4.29497e+06 0 271183 4.29089e+06 0 271138 4.28688e+06 0 271094 4.28296e+06 0 271052 4.2791e+06 0 271010 4.27532e+06 0 270969 4.27162e+06 0 270930 4.26798e+06 0 270891 4.26441e+06 0 270854 4.26091e+06 0 270818 4.25748e+06 0 270783 4.25412e+06 0 270750 4.25081e+06 0 270717 4.24758e+06 0 270687 4.2444e+06 0 270658 4.24129e+06 0 270630 4.23824e+06 0 270604 4.23525e+06 0 270579 4.23231e+06 0 270557 4.22944e+06 0 270535 4.22663e+06 0 270516 4.22387e+06 0 270498 4.22116e+06 0 270482 4.21851e+06 0 270468 4.21592e+06 0 270456 4.21338e+06 0 270446 4.2109e+06 0 270437 4.20847e+06 0 270431 4.20609e+06 0 270427 4.20376e+06 0 270424 4.20148e+06 0 -392517 6.40334e+06 0 -289739 6.32495e+06 0 -198067 6.23685e+06 0 -124011 6.14623e+06 0 -64797.2 6.05737e+06 0 -17692.6 5.97269e+06 0 20124.7 5.89326e+06 0 50817.2 5.81926e+06 0 76071.6 5.75047e+06 0 97111 5.6865e+06 0 114850 5.62692e+06 0 129964 5.5713e+06 0 142964 5.51925e+06 0 154240 5.47043e+06 0 164094 5.42451e+06 0 172763 5.38124e+06 0 180434 5.34036e+06 0 187259 5.30166e+06 0 193360 5.26497e+06 0 198838 5.23011e+06 0 203775 5.19693e+06 0 208242 5.16531e+06 0 212295 5.13514e+06 0 215986 5.10629e+06 0 219355 5.07869e+06 0 222438 5.05225e+06 0 225267 5.02688e+06 0 227867 5.00253e+06 0 230263 4.97912e+06 0 232475 4.9566e+06 0 234520 4.93492e+06 0 236414 4.91403e+06 0 238171 4.89388e+06 0 239804 4.87443e+06 0 241322 4.85564e+06 0 242737 4.83749e+06 0 244056 4.81993e+06 0 245288 4.80294e+06 0 246440 4.78649e+06 0 247517 4.77056e+06 0 248527 4.75511e+06 0 249473 4.74013e+06 0 250360 4.72559e+06 0 251194 4.71148e+06 0 251977 4.69777e+06 0 252714 4.68446e+06 0 253408 4.67151e+06 0 254061 4.65893e+06 0 254677 4.64669e+06 0 255257 4.63477e+06 0 255805 4.62317e+06 0 256322 4.61188e+06 0 256811 4.60087e+06 0 257273 4.59015e+06 0 257709 4.5797e+06 0 258123 4.56951e+06 0 258514 4.55957e+06 0 258884 4.54988e+06 0 259235 4.54041e+06 0 259568 4.53118e+06 0 259884 4.52216e+06 0 260183 4.51335e+06 0 260467 4.50475e+06 0 260737 4.49635e+06 0 260993 4.48813e+06 0 261237 4.4801e+06 0 261469 4.47225e+06 0 261689 4.46458e+06 0 261899 4.45707e+06 0 262098 4.44973e+06 0 262288 4.44255e+06 0 262470 4.43552e+06 0 262642 4.42864e+06 0 262807 4.4219e+06 0 262964 4.41531e+06 0 263115 4.40885e+06 0 263258 4.40253e+06 0 263395 4.39634e+06 0 263526 4.39027e+06 0 263652 4.38433e+06 0 263772 4.37851e+06 0 263888 4.3728e+06 0 263998 4.36721e+06 0 264104 4.36173e+06 0 264207 4.35636e+06 0 264305 4.3511e+06 0 264399 4.34594e+06 0 264490 4.34088e+06 0 264578 4.33591e+06 0 264663 4.33105e+06 0 264746 4.32628e+06 0 264825 4.3216e+06 0 264902 4.31701e+06 0 264977 4.3125e+06 0 265050 4.30809e+06 0 265121 4.30376e+06 0 265190 4.29951e+06 0 265258 4.29534e+06 0 265324 4.29125e+06 0 265389 4.28724e+06 0 265452 4.28331e+06 0 265515 4.27945e+06 0 265576 4.27566e+06 0 265637 4.27195e+06 0 265697 4.2683e+06 0 265757 4.26473e+06 0 265816 4.26122e+06 0 265875 4.25778e+06 0 265933 4.25441e+06 0 265992 4.2511e+06 0 266050 4.24786e+06 0 266108 4.24468e+06 0 266167 4.24156e+06 0 266226 4.2385e+06 0 266285 4.2355e+06 0 266344 4.23256e+06 0 266404 4.22968e+06 0 266465 4.22686e+06 0 266526 4.22409e+06 0 266588 4.22138e+06 0 266651 4.21873e+06 0 266715 4.21613e+06 0 266780 4.21358e+06 0 266846 4.21109e+06 0 266913 4.20865e+06 0 266982 4.20626e+06 0 267051 4.20393e+06 0 267123 4.20164e+06 0 -500179 6.26077e+06 0 -401345 6.19853e+06 0 -316614 6.13071e+06 0 -243079 6.05934e+06 0 -180706 5.98707e+06 0 -128162 5.91595e+06 0 -84009.5 5.84725e+06 0 -46773.5 5.78165e+06 0 -15200.3 5.71945e+06 0 11764 5.66069e+06 0 34961.2 5.60524e+06 0 55065.3 5.55295e+06 0 72610.2 5.50361e+06 0 88022.5 5.457e+06 0 101643 5.41292e+06 0 113748 5.37118e+06 0 124560 5.33159e+06 0 134263 5.29399e+06 0 143007 5.25823e+06 0 150920 5.22417e+06 0 158106 5.19169e+06 0 164653 5.16067e+06 0 170637 5.13102e+06 0 176122 5.10263e+06 0 181163 5.07543e+06 0 185808 5.04934e+06 0 190097 5.02429e+06 0 194066 5.00022e+06 0 197747 4.97706e+06 0 201167 4.95476e+06 0 204350 4.93328e+06 0 207317 4.91256e+06 0 210088 4.89257e+06 0 212680 4.87327e+06 0 215107 4.85461e+06 0 217383 4.83658e+06 0 219520 4.81913e+06 0 221529 4.80223e+06 0 223421 4.78587e+06 0 225202 4.77001e+06 0 226883 4.75464e+06 0 228470 4.73972e+06 0 229970 4.72525e+06 0 231389 4.71119e+06 0 232732 4.69753e+06 0 234005 4.68426e+06 0 235213 4.67136e+06 0 236359 4.65881e+06 0 237447 4.64661e+06 0 238482 4.63472e+06 0 239467 4.62315e+06 0 240404 4.61188e+06 0 241296 4.60091e+06 0 242147 4.59021e+06 0 242959 4.57978e+06 0 243733 4.5696e+06 0 244473 4.55968e+06 0 245180 4.55e+06 0 245856 4.54055e+06 0 246502 4.53133e+06 0 247121 4.52232e+06 0 247714 4.51353e+06 0 248281 4.50493e+06 0 248826 4.49654e+06 0 249348 4.48833e+06 0 249849 4.48031e+06 0 250331 4.47247e+06 0 250793 4.4648e+06 0 251238 4.4573e+06 0 251665 4.44996e+06 0 252077 4.44278e+06 0 252473 4.43575e+06 0 252854 4.42887e+06 0 253222 4.42214e+06 0 253576 4.41555e+06 0 253918 4.40909e+06 0 254249 4.40277e+06 0 254568 4.39658e+06 0 254876 4.39052e+06 0 255174 4.38457e+06 0 255462 4.37875e+06 0 255741 4.37305e+06 0 256012 4.36746e+06 0 256274 4.36197e+06 0 256528 4.3566e+06 0 256774 4.35134e+06 0 257014 4.34617e+06 0 257246 4.34111e+06 0 257473 4.33614e+06 0 257693 4.33128e+06 0 257907 4.3265e+06 0 258116 4.32182e+06 0 258319 4.31723e+06 0 258518 4.31272e+06 0 258712 4.3083e+06 0 258902 4.30397e+06 0 259087 4.29972e+06 0 259269 4.29555e+06 0 259446 4.29145e+06 0 259621 4.28744e+06 0 259792 4.2835e+06 0 259960 4.27964e+06 0 260125 4.27585e+06 0 260287 4.27213e+06 0 260447 4.26848e+06 0 260605 4.2649e+06 0 260761 4.26139e+06 0 260914 4.25795e+06 0 261066 4.25457e+06 0 261216 4.25126e+06 0 261365 4.24801e+06 0 261513 4.24482e+06 0 261659 4.2417e+06 0 261804 4.23863e+06 0 261948 4.23563e+06 0 262092 4.23269e+06 0 262235 4.2298e+06 0 262377 4.22697e+06 0 262519 4.2242e+06 0 262661 4.22148e+06 0 262803 4.21882e+06 0 262945 4.21622e+06 0 263087 4.21367e+06 0 263229 4.21117e+06 0 263372 4.20872e+06 0 263515 4.20633e+06 0 263659 4.20399e+06 0 263804 4.2017e+06 0 -576544 6.13035e+06 0 -490576 6.08209e+06 0 -410990 6.02824e+06 0 -340113 5.97088e+06 0 -277600 5.9117e+06 0 -223006 5.85212e+06 0 -175525 5.79327e+06 0 -134290 5.73591e+06 0 -98423.5 5.68053e+06 0 -67134.7 5.6274e+06 0 -39727.1 5.57662e+06 0 -15610 5.52819e+06 0 5712.92 5.48207e+06 0 24654.9 5.43817e+06 0 41559.5 5.39638e+06 0 56712.5 5.35658e+06 0 70352 5.31865e+06 0 82677.6 5.28247e+06 0 93856.6 5.24794e+06 0 104031 5.21495e+06 0 113320 5.1834e+06 0 121827 5.1532e+06 0 129640 5.12426e+06 0 136833 5.09652e+06 0 143473 5.06988e+06 0 149616 5.04429e+06 0 155311 5.01969e+06 0 160602 4.99602e+06 0 165528 4.97322e+06 0 170121 4.95125e+06 0 174411 4.93006e+06 0 178426 4.90961e+06 0 182187 4.88986e+06 0 185717 4.87077e+06 0 189034 4.85232e+06 0 192156 4.83446e+06 0 195096 4.81718e+06 0 197870 4.80044e+06 0 200490 4.78421e+06 0 202966 4.76848e+06 0 205309 4.75322e+06 0 207529 4.73842e+06 0 209634 4.72404e+06 0 211632 4.71007e+06 0 213529 4.6965e+06 0 215333 4.68331e+06 0 217050 4.67048e+06 0 218685 4.658e+06 0 220242 4.64586e+06 0 221728 4.63403e+06 0 223146 4.62251e+06 0 224500 4.6113e+06 0 225794 4.60036e+06 0 227032 4.58971e+06 0 228216 4.57932e+06 0 229350 4.56918e+06 0 230436 4.55929e+06 0 231478 4.54965e+06 0 232477 4.54023e+06 0 233436 4.53103e+06 0 234357 4.52205e+06 0 235241 4.51328e+06 0 236092 4.50471e+06 0 236910 4.49634e+06 0 237697 4.48815e+06 0 238455 4.48015e+06 0 239186 4.47232e+06 0 239890 4.46467e+06 0 240569 4.45718e+06 0 241223 4.44986e+06 0 241856 4.44269e+06 0 242466 4.43568e+06 0 243056 4.42881e+06 0 243626 4.42209e+06 0 244178 4.4155e+06 0 244712 4.40906e+06 0 245228 4.40275e+06 0 245729 4.39656e+06 0 246214 4.3905e+06 0 246684 4.38457e+06 0 247140 4.37875e+06 0 247583 4.37305e+06 0 248013 4.36747e+06 0 248430 4.36199e+06 0 248836 4.35662e+06 0 249231 4.35136e+06 0 249615 4.3462e+06 0 249990 4.34114e+06 0 250354 4.33618e+06 0 250709 4.33131e+06 0 251055 4.32654e+06 0 251393 4.32186e+06 0 251723 4.31726e+06 0 252046 4.31276e+06 0 252361 4.30834e+06 0 252669 4.30401e+06 0 252971 4.29976e+06 0 253266 4.29558e+06 0 253556 4.29149e+06 0 253839 4.28748e+06 0 254118 4.28354e+06 0 254391 4.27967e+06 0 254660 4.27588e+06 0 254924 4.27216e+06 0 255184 4.26851e+06 0 255440 4.26493e+06 0 255692 4.26142e+06 0 255940 4.25797e+06 0 256185 4.25459e+06 0 256427 4.25128e+06 0 256666 4.24803e+06 0 256903 4.24484e+06 0 257136 4.24171e+06 0 257368 4.23864e+06 0 257598 4.23564e+06 0 257825 4.23269e+06 0 258051 4.2298e+06 0 258275 4.22696e+06 0 258498 4.22419e+06 0 258720 4.22147e+06 0 258940 4.2188e+06 0 259160 4.21619e+06 0 259379 4.21364e+06 0 259598 4.21113e+06 0 259816 4.20868e+06 0 260033 4.20628e+06 0 260251 4.20394e+06 0 260469 4.20164e+06 0 -643000 6.0128e+06 0 -561913 5.97379e+06 0 -487822 5.93047e+06 0 -420079 5.8838e+06 0 -358921 5.83493e+06 0 -304110 5.78492e+06 0 -255265 5.73467e+06 0 -211856 5.68487e+06 0 -173317 5.63603e+06 0 -139078 5.58851e+06 0 -108609 5.54253e+06 0 -81424.7 5.4982e+06 0 -57101 5.45559e+06 0 -35266.8 5.4147e+06 0 -15602.2 5.37549e+06 0 2167.09 5.33792e+06 0 18276.3 5.30192e+06 0 32926.7 5.26743e+06 0 46290.9 5.23437e+06 0 58517.3 5.20267e+06 0 69733.7 5.17226e+06 0 80050.4 5.14306e+06 0 89563.1 5.11502e+06 0 98355.2 5.08806e+06 0 106499 5.06214e+06 0 114059 5.03718e+06 0 121090 5.01315e+06 0 127642 4.98999e+06 0 133758 4.96766e+06 0 139477 4.94611e+06 0 144834 4.9253e+06 0 149858 4.90519e+06 0 154578 4.88576e+06 0 159018 4.86696e+06 0 163200 4.84877e+06 0 167144 4.83116e+06 0 170867 4.8141e+06 0 174388 4.79756e+06 0 177719 4.78153e+06 0 180875 4.76597e+06 0 183868 4.75088e+06 0 186709 4.73622e+06 0 189408 4.72198e+06 0 191975 4.70814e+06 0 194417 4.69469e+06 0 196744 4.68161e+06 0 198963 4.66888e+06 0 201079 4.6565e+06 0 203100 4.64444e+06 0 205031 4.6327e+06 0 206877 4.62126e+06 0 208644 4.61011e+06 0 210335 4.59925e+06 0 211955 4.58866e+06 0 213509 4.57833e+06 0 214999 4.56825e+06 0 216429 4.55841e+06 0 217802 4.54881e+06 0 219122 4.53944e+06 0 220391 4.53029e+06 0 221612 4.52135e+06 0 222787 4.51262e+06 0 223918 4.50408e+06 0 225008 4.49574e+06 0 226059 4.48759e+06 0 227072 4.47962e+06 0 228050 4.47182e+06 0 228994 4.46419e+06 0 229906 4.45673e+06 0 230787 4.44943e+06 0 231639 4.44228e+06 0 232463 4.43529e+06 0 233261 4.42844e+06 0 234033 4.42174e+06 0 234780 4.41518e+06 0 235505 4.40875e+06 0 236207 4.40245e+06 0 236889 4.39628e+06 0 237550 4.39024e+06 0 238192 4.38431e+06 0 238815 4.37851e+06 0 239421 4.37282e+06 0 240010 4.36724e+06 0 240583 4.36178e+06 0 241140 4.35642e+06 0 241683 4.35116e+06 0 242212 4.34601e+06 0 242727 4.34096e+06 0 243229 4.336e+06 0 243719 4.33115e+06 0 244197 4.32638e+06 0 244664 4.3217e+06 0 245120 4.31712e+06 0 245566 4.31262e+06 0 246002 4.3082e+06 0 246428 4.30387e+06 0 246846 4.29962e+06 0 247255 4.29546e+06 0 247656 4.29137e+06 0 248049 4.28735e+06 0 248435 4.28342e+06 0 248813 4.27955e+06 0 249185 4.27576e+06 0 249551 4.27205e+06 0 249910 4.2684e+06 0 250264 4.26482e+06 0 250612 4.2613e+06 0 250955 4.25786e+06 0 251293 4.25448e+06 0 251627 4.25116e+06 0 251956 4.24791e+06 0 252281 4.24472e+06 0 252603 4.24159e+06 0 252921 4.23852e+06 0 253235 4.23551e+06 0 253546 4.23256e+06 0 253855 4.22967e+06 0 254161 4.22684e+06 0 254464 4.22406e+06 0 254765 4.22134e+06 0 255065 4.21867e+06 0 255362 4.21605e+06 0 255658 4.21349e+06 0 255952 4.21099e+06 0 256246 4.20853e+06 0 256538 4.20613e+06 0 256829 4.20378e+06 0 257120 4.20148e+06 0 -694378 5.904e+06 0 -620525 5.87279e+06 0 -550989 5.8376e+06 0 -486623 5.7993e+06 0 -427464 5.75872e+06 0 -373487 5.71664e+06 0 -324485 5.67375e+06 0 -280161 5.63066e+06 0 -240149 5.58783e+06 0 -204058 5.54564e+06 0 -171495 5.50435e+06 0 -142085 5.46413e+06 0 -115482 5.42512e+06 0 -91369 5.38736e+06 0 -69465 5.35091e+06 0 -49520.5 5.31575e+06 0 -31315.7 5.28187e+06 0 -14658.2 5.24925e+06 0 620.486 5.21784e+06 0 14667.9 5.1876e+06 0 27613.1 5.15849e+06 0 39569.1 5.13045e+06 0 50635.2 5.10344e+06 0 60898.7 5.07741e+06 0 70436.5 5.05232e+06 0 79316.5 5.02812e+06 0 87599 5.00476e+06 0 95337.4 4.98222e+06 0 102579 4.96044e+06 0 109367 4.9394e+06 0 115738 4.91905e+06 0 121728 4.89937e+06 0 127365 4.88033e+06 0 132679 4.86188e+06 0 137693 4.84402e+06 0 142431 4.82671e+06 0 146912 4.80992e+06 0 151156 4.79364e+06 0 155178 4.77784e+06 0 158995 4.76251e+06 0 162620 4.74761e+06 0 166066 4.73314e+06 0 169345 4.71908e+06 0 172468 4.7054e+06 0 175444 4.6921e+06 0 178284 4.67916e+06 0 180994 4.66657e+06 0 183583 4.65431e+06 0 186059 4.64237e+06 0 188428 4.63073e+06 0 190695 4.6194e+06 0 192868 4.60835e+06 0 194950 4.59757e+06 0 196948 4.58706e+06 0 198865 4.57681e+06 0 200707 4.5668e+06 0 202476 4.55704e+06 0 204177 4.54751e+06 0 205814 4.5382e+06 0 207390 4.5291e+06 0 208907 4.52022e+06 0 210369 4.51154e+06 0 211778 4.50305e+06 0 213138 4.49476e+06 0 214450 4.48665e+06 0 215716 4.47872e+06 0 216940 4.47096e+06 0 218122 4.46337e+06 0 219265 4.45594e+06 0 220371 4.44868e+06 0 221441 4.44156e+06 0 222477 4.4346e+06 0 223480 4.42778e+06 0 224453 4.4211e+06 0 225395 4.41456e+06 0 226310 4.40816e+06 0 227197 4.40188e+06 0 228058 4.39574e+06 0 228894 4.38971e+06 0 229707 4.38381e+06 0 230497 4.37802e+06 0 231265 4.37235e+06 0 232012 4.36679e+06 0 232740 4.36134e+06 0 233448 4.356e+06 0 234138 4.35076e+06 0 234810 4.34562e+06 0 235466 4.34058e+06 0 236105 4.33563e+06 0 236729 4.33078e+06 0 237338 4.32603e+06 0 237934 4.32136e+06 0 238515 4.31679e+06 0 239084 4.31229e+06 0 239640 4.30789e+06 0 240185 4.30357e+06 0 240718 4.29932e+06 0 241240 4.29516e+06 0 241752 4.29108e+06 0 242254 4.28707e+06 0 242747 4.28314e+06 0 243230 4.27928e+06 0 243705 4.2755e+06 0 244172 4.27178e+06 0 244630 4.26814e+06 0 245082 4.26456e+06 0 245526 4.26105e+06 0 245963 4.25761e+06 0 246394 4.25423e+06 0 246819 4.25091e+06 0 247238 4.24766e+06 0 247652 4.24447e+06 0 248060 4.24135e+06 0 248464 4.23828e+06 0 248863 4.23527e+06 0 249258 4.23232e+06 0 249649 4.22943e+06 0 250036 4.22659e+06 0 250420 4.22381e+06 0 250800 4.22109e+06 0 251178 4.21842e+06 0 251553 4.2158e+06 0 251925 4.21324e+06 0 252295 4.21073e+06 0 252664 4.20827e+06 0 253030 4.20587e+06 0 253395 4.20351e+06 0 253759 4.20121e+06 0 -737800 5.80351e+06 0 -668559 5.77823e+06 0 -603414 5.74953e+06 0 -542327 5.71796e+06 0 -485489 5.68413e+06 0 -432906 5.64864e+06 0 -384499 5.61203e+06 0 -340097 5.57481e+06 0 -299474 5.53739e+06 0 -262363 5.50011e+06 0 -228485 5.46325e+06 0 -197557 5.427e+06 0 -169304 5.39153e+06 0 -143468 5.35694e+06 0 -119811 5.32329e+06 0 -98115 5.29063e+06 0 -78182.4 5.25898e+06 0 -59836.8 5.22833e+06 0 -42920.2 5.1987e+06 0 -27292 5.17004e+06 0 -12826.9 5.14235e+06 0 586.386 5.11558e+06 0 13046.8 5.08972e+06 0 24642.5 5.06473e+06 0 35451.9 5.04058e+06 0 45544.9 5.01722e+06 0 54984 4.99464e+06 0 63825.1 4.9728e+06 0 72118.2 4.95166e+06 0 79908.5 4.9312e+06 0 87236.2 4.91139e+06 0 94137.9 4.8922e+06 0 100647 4.87361e+06 0 106792 4.85558e+06 0 112601 4.8381e+06 0 118098 4.82114e+06 0 123306 4.80468e+06 0 128245 4.7887e+06 0 132933 4.77319e+06 0 137387 4.75811e+06 0 141623 4.74346e+06 0 145656 4.72921e+06 0 149498 4.71536e+06 0 153161 4.70188e+06 0 156656 4.68876e+06 0 159994 4.67599e+06 0 163185 4.66356e+06 0 166236 4.65145e+06 0 169156 4.63965e+06 0 171953 4.62814e+06 0 174633 4.61693e+06 0 177203 4.606e+06 0 179669 4.59533e+06 0 182037 4.58493e+06 0 184312 4.57477e+06 0 186499 4.56486e+06 0 188603 4.55518e+06 0 190627 4.54573e+06 0 192576 4.5365e+06 0 194453 4.52748e+06 0 196263 4.51866e+06 0 198008 4.51005e+06 0 199692 4.50162e+06 0 201318 4.49339e+06 0 202887 4.48533e+06 0 204404 4.47745e+06 0 205870 4.46975e+06 0 207288 4.4622e+06 0 208660 4.45482e+06 0 209988 4.4476e+06 0 211274 4.44052e+06 0 212520 4.4336e+06 0 213727 4.42682e+06 0 214898 4.42017e+06 0 216034 4.41367e+06 0 217137 4.4073e+06 0 218207 4.40105e+06 0 219247 4.39493e+06 0 220257 4.38893e+06 0 221239 4.38306e+06 0 222194 4.37729e+06 0 223123 4.37165e+06 0 224027 4.36611e+06 0 224908 4.36068e+06 0 225766 4.35535e+06 0 226602 4.35013e+06 0 227417 4.34501e+06 0 228212 4.33999e+06 0 228988 4.33506e+06 0 229746 4.33023e+06 0 230486 4.32549e+06 0 231208 4.32084e+06 0 231915 4.31627e+06 0 232606 4.31179e+06 0 233282 4.3074e+06 0 233944 4.30309e+06 0 234592 4.29886e+06 0 235227 4.2947e+06 0 235849 4.29063e+06 0 236460 4.28663e+06 0 237058 4.28271e+06 0 237646 4.27886e+06 0 238224 4.27508e+06 0 238791 4.27137e+06 0 239348 4.26773e+06 0 239897 4.26416e+06 0 240436 4.26065e+06 0 240968 4.25721e+06 0 241491 4.25384e+06 0 242007 4.25053e+06 0 242515 4.24728e+06 0 243017 4.2441e+06 0 243513 4.24097e+06 0 244002 4.23791e+06 0 244485 4.2349e+06 0 244963 4.23195e+06 0 245436 4.22906e+06 0 245904 4.22622e+06 0 246368 4.22345e+06 0 246827 4.22072e+06 0 247283 4.21805e+06 0 247735 4.21543e+06 0 248183 4.21287e+06 0 248629 4.21036e+06 0 249072 4.2079e+06 0 249512 4.2055e+06 0 249950 4.20314e+06 0 250386 4.20083e+06 0 -772609 5.70982e+06 0 -708345 5.68949e+06 0 -647073 5.66606e+06 0 -589169 5.63998e+06 0 -534748 5.61172e+06 0 -483870 5.58175e+06 0 -436511 5.55051e+06 0 -392586 5.5184e+06 0 -351955 5.48578e+06 0 -314444 5.45296e+06 0 -279855 5.42019e+06 0 -247979 5.38769e+06 0 -218607 5.35562e+06 0 -191531 5.32411e+06 0 -166556 5.29324e+06 0 -143497 5.26309e+06 0 -122181 5.2337e+06 0 -102453 5.20509e+06 0 -84169.2 5.1773e+06 0 -67198.7 5.1503e+06 0 -51424.3 5.12411e+06 0 -36739.6 5.09871e+06 0 -23049.1 5.07408e+06 0 -10266.7 5.05021e+06 0 1685.42 5.02707e+06 0 12876.9 5.00464e+06 0 23370.8 4.98291e+06 0 33223.9 4.96184e+06 0 42487.4 4.94141e+06 0 51207.7 4.9216e+06 0 59426.7 4.90239e+06 0 67182.5 4.88375e+06 0 74509.5 4.86566e+06 0 81439.2 4.84811e+06 0 88000.1 4.83106e+06 0 94218.3 4.8145e+06 0 100118 4.79841e+06 0 105720 4.78278e+06 0 111044 4.76758e+06 0 116110 4.75281e+06 0 120934 4.73843e+06 0 125531 4.72445e+06 0 129915 4.71084e+06 0 134100 4.69758e+06 0 138097 4.68468e+06 0 141919 4.67211e+06 0 145575 4.65986e+06 0 149074 4.64793e+06 0 152427 4.63629e+06 0 155640 4.62494e+06 0 158723 4.61388e+06 0 161681 4.60308e+06 0 164522 4.59254e+06 0 167252 4.58226e+06 0 169877 4.57222e+06 0 172402 4.56242e+06 0 174833 4.55284e+06 0 177173 4.54349e+06 0 179429 4.53435e+06 0 181603 4.52541e+06 0 183700 4.51668e+06 0 185724 4.50814e+06 0 187678 4.4998e+06 0 189565 4.49163e+06 0 191389 4.48364e+06 0 193152 4.47583e+06 0 194857 4.46818e+06 0 196507 4.4607e+06 0 198105 4.45337e+06 0 199652 4.4462e+06 0 201152 4.43917e+06 0 202605 4.43229e+06 0 204014 4.42556e+06 0 205381 4.41896e+06 0 206708 4.41249e+06 0 207997 4.40616e+06 0 209248 4.39995e+06 0 210464 4.39387e+06 0 211646 4.3879e+06 0 212796 4.38206e+06 0 213915 4.37633e+06 0 215004 4.37071e+06 0 216064 4.3652e+06 0 217097 4.35979e+06 0 218103 4.3545e+06 0 219084 4.3493e+06 0 220041 4.3442e+06 0 220974 4.3392e+06 0 221886 4.33429e+06 0 222775 4.32948e+06 0 223645 4.32475e+06 0 224494 4.32012e+06 0 225325 4.31557e+06 0 226137 4.31111e+06 0 226932 4.30673e+06 0 227711 4.30244e+06 0 228473 4.29822e+06 0 229220 4.29408e+06 0 229952 4.29002e+06 0 230670 4.28603e+06 0 231374 4.28212e+06 0 232066 4.27828e+06 0 232745 4.27451e+06 0 233412 4.27081e+06 0 234068 4.26718e+06 0 234713 4.26361e+06 0 235347 4.26012e+06 0 235972 4.25669e+06 0 236587 4.25332e+06 0 237193 4.25001e+06 0 237791 4.24677e+06 0 238380 4.24359e+06 0 238962 4.24047e+06 0 239536 4.23741e+06 0 240103 4.2344e+06 0 240664 4.23146e+06 0 241219 4.22857e+06 0 241767 4.22574e+06 0 242310 4.22296e+06 0 242848 4.22024e+06 0 243381 4.21757e+06 0 243910 4.21495e+06 0 244434 4.21239e+06 0 244955 4.20988e+06 0 245472 4.20742e+06 0 245985 4.20501e+06 0 246496 4.20266e+06 0 247004 4.20035e+06 0 -801506 5.62236e+06 0 -741200 5.60603e+06 0 -683544 5.58693e+06 0 -628644 5.5654e+06 0 -576648 5.5418e+06 0 -527622 5.51649e+06 0 -481584 5.48983e+06 0 -438494 5.46216e+06 0 -398274 5.43378e+06 0 -360812 5.40496e+06 0 -325971 5.37594e+06 0 -293600 5.34692e+06 0 -263541 5.31805e+06 0 -235632 5.28948e+06 0 -209716 5.26131e+06 0 -185638 5.23362e+06 0 -163253 5.20648e+06 0 -142426 5.17992e+06 0 -123029 5.15398e+06 0 -104945 5.12869e+06 0 -88066.4 5.10405e+06 0 -72293.7 5.08005e+06 0 -57537.3 5.05672e+06 0 -43714.8 5.03402e+06 0 -30751.4 5.01196e+06 0 -18579.2 4.99053e+06 0 -7136.11 4.9697e+06 0 3634.06 4.94946e+06 0 13782.6 4.9298e+06 0 23356.1 4.9107e+06 0 32397.1 4.89214e+06 0 40944.3 4.8741e+06 0 49033.1 4.85657e+06 0 56695.8 4.83953e+06 0 63962 4.82296e+06 0 70858.7 4.80684e+06 0 77410.9 4.79117e+06 0 83641.2 4.77592e+06 0 89570.6 4.76108e+06 0 95218.4 4.74664e+06 0 100602 4.73258e+06 0 105739 4.71888e+06 0 110643 4.70554e+06 0 115329 4.69255e+06 0 119809 4.67988e+06 0 124097 4.66754e+06 0 128202 4.6555e+06 0 132135 4.64377e+06 0 135905 4.63232e+06 0 139523 4.62115e+06 0 142996 4.61025e+06 0 146331 4.59961e+06 0 149537 4.58922e+06 0 152619 4.57908e+06 0 155585 4.56917e+06 0 158440 4.55949e+06 0 161190 4.55003e+06 0 163840 4.54079e+06 0 166395 4.53176e+06 0 168859 4.52292e+06 0 171238 4.51429e+06 0 173534 4.50584e+06 0 175753 4.49758e+06 0 177897 4.4895e+06 0 179970 4.48159e+06 0 181975 4.47385e+06 0 183916 4.46627e+06 0 185794 4.45885e+06 0 187614 4.45159e+06 0 189377 4.44448e+06 0 191087 4.43751e+06 0 192744 4.43069e+06 0 194352 4.42401e+06 0 195913 4.41746e+06 0 197428 4.41104e+06 0 198900 4.40475e+06 0 200331 4.39859e+06 0 201721 4.39255e+06 0 203073 4.38662e+06 0 204389 4.38081e+06 0 205669 4.37512e+06 0 206916 4.36954e+06 0 208130 4.36406e+06 0 209313 4.35869e+06 0 210466 4.35342e+06 0 211591 4.34825e+06 0 212688 4.34318e+06 0 213758 4.3382e+06 0 214804 4.33332e+06 0 215825 4.32853e+06 0 216822 4.32383e+06 0 217797 4.31922e+06 0 218751 4.31469e+06 0 219684 4.31025e+06 0 220596 4.30589e+06 0 221490 4.30161e+06 0 222366 4.29741e+06 0 223223 4.29329e+06 0 224064 4.28924e+06 0 224889 4.28527e+06 0 225698 4.28137e+06 0 226493 4.27754e+06 0 227273 4.27379e+06 0 228039 4.2701e+06 0 228793 4.26648e+06 0 229533 4.26293e+06 0 230262 4.25944e+06 0 230979 4.25602e+06 0 231686 4.25266e+06 0 232382 4.24936e+06 0 233067 4.24613e+06 0 233744 4.24296e+06 0 234411 4.23984e+06 0 235070 4.23678e+06 0 235721 4.23379e+06 0 236363 4.23085e+06 0 236999 4.22796e+06 0 237627 4.22513e+06 0 238249 4.22236e+06 0 238865 4.21964e+06 0 239475 4.21697e+06 0 240080 4.21436e+06 0 240680 4.2118e+06 0 241275 4.20929e+06 0 241865 4.20683e+06 0 242452 4.20442e+06 0 243035 4.20207e+06 0 243614 4.19976e+06 0 -824870 5.54036e+06 0 -768382 5.52739e+06 0 -714002 5.51189e+06 0 -661940 5.49416e+06 0 -612312 5.47448e+06 0 -565198 5.45313e+06 0 -5