<?xml version="1.0"?> 
<VTKFile type="StructuredGrid" version="0.1"> 
<StructuredGrid WholeExtent="0 127 0 127 0 0"> 
<Piece Extent="0 127 0 127 0 0"> 
<PointData>
<DataArray type="Float32" Name="|E|" format="ascii" NumberOfComponents="3"> 
-2.13329e+06 0 0 -2.13338e+06 -8.51155e-07 0 -2.13364e+06 -1.65308e-06 0 -2.13408e+06 -2.49296e-06 0 -2.1347e+06 -3.30225e-06 0 -2.1355e+06 -4.22117e-06 0 -2.13647e+06 -4.92233e-06 0 -2.13762e+06 -5.97977e-06 0 -2.13895e+06 -6.75719e-06 0 -2.14046e+06 -7.59869e-06 0 -2.14215e+06 -8.46422e-06 0 -2.14401e+06 -9.44697e-06 0 -2.14605e+06 -1.03427e-05 0 -2.14828e+06 -1.13924e-05 0 -2.15068e+06 -1.18501e-05 0 -2.15327e+06 -1.30352e-05 0 -2.15603e+06 -1.40549e-05 0 -2.15898e+06 -1.46127e-05 0 -2.16211e+06 -1.54715e-05 0 -2.16542e+06 -1.67927e-05 0 -2.16892e+06 -1.74082e-05 0 -2.1726e+06 -1.83341e-05 0 -2.17647e+06 -1.96111e-05 0 -2.18053e+06 -2.02553e-05 0 -2.18477e+06 -2.16973e-05 0 -2.1892e+06 -2.18458e-05 0 -2.19382e+06 -2.34761e-05 0 -2.19863e+06 -2.44631e-05 0 -2.20363e+06 -2.59336e-05 0 -2.20883e+06 -2.70307e-05 0 -2.21422e+06 -2.74875e-05 0 -2.2198e+06 -2.8329e-05 0 -2.22558e+06 -2.98275e-05 0 -2.23156e+06 -3.12049e-05 0 -2.23774e+06 -3.20766e-05 0 -2.24412e+06 -3.38107e-05 0 -2.2507e+06 -3.41665e-05 0 -2.25749e+06 -3.55188e-05 0 -2.26448e+06 -3.68897e-05 0 -2.27168e+06 -3.7916e-05 0 -2.27909e+06 -3.90317e-05 0 -2.28671e+06 -4.04436e-05 0 -2.29454e+06 -4.19468e-05 0 -2.30258e+06 -4.24236e-05 0 -2.31084e+06 -4.41168e-05 0 -2.31932e+06 -4.5076e-05 0 -2.32803e+06 -4.59738e-05 0 -2.33695e+06 -4.72553e-05 0 -2.3461e+06 -4.85741e-05 0 -2.35547e+06 -4.97624e-05 0 -2.36508e+06 -4.97699e-05 0 -2.37492e+06 -5.23403e-05 0 -2.38499e+06 -5.15953e-05 0 -2.39529e+06 -5.3376e-05 0 -2.40584e+06 -5.54323e-05 0 -2.41663e+06 -5.51641e-05 0 -2.42766e+06 -5.60433e-05 0 -2.43894e+06 -5.6155e-05 0 -2.45047e+06 -5.74961e-05 0 -2.46225e+06 -5.85616e-05 0 -2.47428e+06 -5.72726e-05 0 -2.48657e+06 -5.82188e-05 0 -2.49912e+06 -5.70863e-05 0 -2.51194e+06 -5.67883e-05 0 -2.52502e+06 -5.5939e-05 0 -2.53836e+06 -5.54472e-05 0 -2.55198e+06 -5.50896e-05 0 -2.56587e+06 -5.28544e-05 0 -2.58004e+06 -5.05e-05 0 -2.59448e+06 -4.67449e-05 0 -2.60921e+06 -4.35263e-05 0 -2.62421e+06 -4.03076e-05 0 -2.6395e+06 -3.66867e-05 0 -2.65508e+06 -3.17246e-05 0 -2.67094e+06 -2.58982e-05 0 -2.68709e+06 -1.8388e-05 0 -2.70354e+06 -1.06096e-05 0 -2.72027e+06 -1.3411e-06 0 -2.73729e+06 6.79493e-06 0 -2.75461e+06 1.93119e-05 0 -2.77221e+06 3.21269e-05 0 -2.7901e+06 4.57764e-05 0 -2.80828e+06 6.1959e-05 0 -2.82675e+06 8.18074e-05 0 -2.84549e+06 0.000100613 0 -2.86451e+06 0.000123113 0 -2.8838e+06 0.000147849 0 -2.90336e+06 0.000174671 0 -2.92318e+06 0.000202924 0 -2.94324e+06 0.000236154 0 -2.96354e+06 0.000272572 0 -2.98407e+06 0.000311315 0 -3.00482e+06 0.000352383 0 -3.02576e+06 0.000397384 0 -3.04688e+06 0.000448406 0 -3.06816e+06 0.000501156 0 -3.08958e+06 0.000554502 0 -3.11111e+06 0.000613987 0 -3.13273e+06 0.00067836 0 -3.1544e+06 0.00074774 0 -3.1761e+06 0.000814319 0 -3.19778e+06 0.000885546 0 -3.21942e+06 0.000962019 0 -3.24095e+06 0.00103408 0 -3.26234e+06 0.00111067 0 -3.28354e+06 0.00118625 0 -3.3045e+06 0.00125992 0 -3.32515e+06 0.00132835 0 -3.34543e+06 0.00139773 0 -3.36529e+06 0.001454 0 -3.38466e+06 0.0015105 0 -3.40346e+06 0.00154996 0 -3.42163e+06 0.00157762 0 -3.43909e+06 0.0015949 0 -3.45578e+06 0.00159883 0 -3.4716e+06 0.00158334 0 -3.4865e+06 0.00155067 0 -3.5004e+06 0.00149894 0 -3.51322e+06 0.00142682 0 -3.5249e+06 0.00133109 0 -3.53537e+06 0.00122058 0 -3.54458e+06 0.00108385 0 -3.55246e+06 0.000933886 0 -3.55898e+06 0.000772953 0 -3.5641e+06 0.000586987 0 -3.56778e+06 0.00040102 0 -3.56999e+06 0.000199318 0 -3.57073e+06 1.62125e-05 0 -2.13329e+06 0 0 -2.13337e+06 23.5834 0 -2.13364e+06 47.172 0 -2.13408e+06 70.771 0 -2.1347e+06 94.3856 0 -2.1355e+06 118.021 0 -2.13647e+06 141.682 0 -2.13762e+06 165.375 0 -2.13895e+06 189.104 0 -2.14046e+06 212.875 0 -2.14214e+06 236.693 0 -2.14401e+06 260.564 0 -2.14605e+06 284.492 0 -2.14828e+06 308.484 0 -2.15068e+06 332.544 0 -2.15327e+06 356.679 0 -2.15603e+06 380.894 0 -2.15898e+06 405.194 0 -2.16211e+06 429.586 0 -2.16542e+06 454.074 0 -2.16892e+06 478.666 0 -2.1726e+06 503.365 0 -2.17647e+06 528.18 0 -2.18053e+06 553.115 0 -2.18477e+06 578.177 0 -2.1892e+06 603.372 0 -2.19382e+06 628.706 0 -2.19863e+06 654.185 0 -2.20363e+06 679.816 0 -2.20883e+06 705.606 0 -2.21422e+06 731.561 0 -2.2198e+06 757.687 0 -2.22558e+06 783.992 0 -2.23156e+06 810.482 0 -2.23774e+06 837.164 0 -2.24412e+06 864.045 0 -2.2507e+06 891.133 0 -2.25749e+06 918.434 0 -2.26448e+06 945.955 0 -2.27168e+06 973.704 0 -2.27908e+06 1001.69 0 -2.2867e+06 1029.91 0 -2.29453e+06 1058.39 0 -2.30258e+06 1087.12 0 -2.31084e+06 1116.12 0 -2.31932e+06 1145.39 0 -2.32802e+06 1174.94 0 -2.33695e+06 1204.78 0 -2.3461e+06 1234.91 0 -2.35547e+06 1265.34 0 -2.36508e+06 1296.07 0 -2.37491e+06 1327.13 0 -2.38498e+06 1358.5 0 -2.39529e+06 1390.2 0 -2.40584e+06 1422.23 0 -2.41663e+06 1454.6 0 -2.42766e+06 1487.31 0 -2.43894e+06 1520.37 0 -2.45046e+06 1553.78 0 -2.46224e+06 1587.54 0 -2.47428e+06 1621.66 0 -2.48657e+06 1656.14 0 -2.49912e+06 1690.97 0 -2.51194e+06 1726.16 0 -2.52501e+06 1761.7 0 -2.53836e+06 1797.59 0 -2.55198e+06 1833.82 0 -2.56587e+06 1870.39 0 -2.58004e+06 1907.27 0 -2.59448e+06 1944.47 0 -2.6092e+06 1981.95 0 -2.62421e+06 2019.72 0 -2.6395e+06 2057.73 0 -2.65508e+06 2095.96 0 -2.67094e+06 2134.39 0 -2.68709e+06 2172.96 0 -2.70353e+06 2211.66 0 -2.72027e+06 2250.41 0 -2.73729e+06 2289.17 0 -2.7546e+06 2327.88 0 -2.77221e+06 2366.47 0 -2.7901e+06 2404.85 0 -2.80828e+06 2442.94 0 -2.82674e+06 2480.63 0 -2.84549e+06 2517.82 0 -2.86451e+06 2554.38 0 -2.8838e+06 2590.18 0 -2.90336e+06 2625.05 0 -2.92318e+06 2658.85 0 -2.94324e+06 2691.37 0 -2.96354e+06 2722.42 0 -2.98407e+06 2751.78 0 -3.00481e+06 2779.2 0 -3.02575e+06 2804.43 0 -3.04687e+06 2827.18 0 -3.06816e+06 2847.14 0 -3.08957e+06 2864 0 -3.11111e+06 2877.4 0 -3.13273e+06 2886.97 0 -3.1544e+06 2892.31 0 -3.1761e+06 2893.02 0 -3.19778e+06 2888.66 0 -3.21942e+06 2878.79 0 -3.24095e+06 2862.94 0 -3.26234e+06 2840.66 0 -3.28355e+06 2811.48 0 -3.3045e+06 2774.92 0 -3.32515e+06 2730.54 0 -3.34544e+06 2677.89 0 -3.3653e+06 2616.58 0 -3.38466e+06 2546.22 0 -3.40347e+06 2466.5 0 -3.42164e+06 2377.16 0 -3.4391e+06 2278 0 -3.45578e+06 2168.93 0 -3.47161e+06 2049.92 0 -3.48651e+06 1921.08 0 -3.5004e+06 1782.61 0 -3.51323e+06 1634.83 0 -3.52491e+06 1478.19 0 -3.53538e+06 1313.29 0 -3.54459e+06 1140.8 0 -3.55248e+06 961.572 0 -3.559e+06 776.525 0 -3.56411e+06 586.695 0 -3.56779e+06 393.201 0 -3.57e+06 197.227 0 -3.57074e+06 -3.87695e-06 0 -2.13328e+06 0 0 -2.13337e+06 47.1668 0 -2.13363e+06 94.3439 0 -2.13408e+06 141.542 0 -2.1347e+06 188.771 0 -2.13549e+06 236.041 0 -2.13647e+06 283.364 0 -2.13762e+06 330.749 0 -2.13895e+06 378.207 0 -2.14045e+06 425.749 0 -2.14214e+06 473.385 0 -2.144e+06 521.126 0 -2.14605e+06 568.983 0 -2.14827e+06 616.966 0 -2.15068e+06 665.087 0 -2.15326e+06 713.357 0 -2.15603e+06 761.787 0 -2.15897e+06 810.387 0 -2.1621e+06 859.17 0 -2.16542e+06 908.147 0 -2.16892e+06 957.329 0 -2.1726e+06 1006.73 0 -2.17647e+06 1056.36 0 -2.18052e+06 1106.23 0 -2.18476e+06 1156.35 0 -2.18919e+06 1206.74 0 -2.19381e+06 1257.41 0 -2.19863e+06 1308.37 0 -2.20363e+06 1359.63 0 -2.20882e+06 1411.21 0 -2.21421e+06 1463.12 0 -2.2198e+06 1515.37 0 -2.22558e+06 1567.98 0 -2.23156e+06 1620.96 0 -2.23774e+06 1674.32 0 -2.24411e+06 1728.09 0 -2.2507e+06 1782.26 0 -2.25748e+06 1836.86 0 -2.26447e+06 1891.91 0 -2.27167e+06 1947.4 0 -2.27908e+06 2003.37 0 -2.2867e+06 2059.83 0 -2.29453e+06 2116.78 0 -2.30257e+06 2174.25 0 -2.31084e+06 2232.24 0 -2.31932e+06 2290.78 0 -2.32802e+06 2349.88 0 -2.33694e+06 2409.55 0 -2.34609e+06 2469.81 0 -2.35547e+06 2530.67 0 -2.36507e+06 2592.14 0 -2.37491e+06 2654.25 0 -2.38498e+06 2716.99 0 -2.39529e+06 2780.39 0 -2.40583e+06 2844.45 0 -2.41662e+06 2909.19 0 -2.42765e+06 2974.62 0 -2.43893e+06 3040.73 0 -2.45046e+06 3107.55 0 -2.46224e+06 3175.08 0 -2.47427e+06 3243.32 0 -2.48656e+06 3312.27 0 -2.49911e+06 3381.94 0 -2.51193e+06 3452.32 0 -2.52501e+06 3523.4 0 -2.53835e+06 3595.18 0 -2.55197e+06 3667.64 0 -2.56586e+06 3740.76 0 -2.58003e+06 3814.54 0 -2.59447e+06 3888.93 0 -2.6092e+06 3963.9 0 -2.6242e+06 4039.43 0 -2.63949e+06 4115.45 0 -2.65507e+06 4191.92 0 -2.67093e+06 4268.77 0 -2.68708e+06 4345.93 0 -2.70353e+06 4423.31 0 -2.72026e+06 4500.82 0 -2.73728e+06 4578.35 0 -2.7546e+06 4655.77 0 -2.7722e+06 4732.94 0 -2.79009e+06 4809.7 0 -2.80827e+06 4885.88 0 -2.82674e+06 4961.27 0 -2.84548e+06 5035.65 0 -2.8645e+06 5108.78 0 -2.8838e+06 5180.37 0 -2.90335e+06 5250.13 0 -2.92317e+06 5317.71 0 -2.94323e+06 5382.76 0 -2.96354e+06 5444.87 0 -2.98407e+06 5503.59 0 -3.00481e+06 5558.44 0 -3.02575e+06 5608.9 0 -3.04687e+06 5654.4 0 -3.06815e+06 5694.34 0 -3.08957e+06 5728.06 0 -3.1111e+06 5754.87 0 -3.13272e+06 5774.01 0 -3.1544e+06 5784.7 0 -3.1761e+06 5786.12 0 -3.19779e+06 5777.42 0 -3.21942e+06 5757.68 0 -3.24096e+06 5726 0 -3.26235e+06 5681.45 0 -3.28355e+06 5623.09 0 -3.30451e+06 5549.98 0 -3.32516e+06 5461.22 0 -3.34545e+06 5355.94 0 -3.36531e+06 5233.31 0 -3.38468e+06 5092.6 0 -3.40349e+06 4933.17 0 -3.42166e+06 4754.49 0 -3.43912e+06 4556.18 0 -3.45581e+06 4338.03 0 -3.47164e+06 4100.02 0 -3.48654e+06 3842.33 0 -3.50043e+06 3565.38 0 -3.51326e+06 3269.81 0 -3.52494e+06 2956.53 0 -3.53541e+06 2626.71 0 -3.54462e+06 2281.73 0 -3.55251e+06 1923.25 0 -3.55903e+06 1553.14 0 -3.56415e+06 1173.46 0 -3.56783e+06 786.447 0 -3.57004e+06 394.476 0 -3.57078e+06 1.65851e-06 0 -2.13327e+06 0 0 -2.13336e+06 70.7499 0 -2.13363e+06 141.515 0 -2.13407e+06 212.312 0 -2.13469e+06 283.155 0 -2.13548e+06 354.061 0 -2.13646e+06 425.045 0 -2.13761e+06 496.122 0 -2.13894e+06 567.309 0 -2.14045e+06 638.622 0 -2.14213e+06 710.075 0 -2.144e+06 781.687 0 -2.14604e+06 853.472 0 -2.14826e+06 925.447 0 -2.15067e+06 997.628 0 -2.15325e+06 1070.03 0 -2.15602e+06 1142.68 0 -2.15897e+06 1215.58 0 -2.1621e+06 1288.75 0 -2.16541e+06 1362.22 0 -2.16891e+06 1435.99 0 -2.17259e+06 1510.09 0 -2.17646e+06 1584.53 0 -2.18051e+06 1659.34 0 -2.18476e+06 1734.52 0 -2.18919e+06 1810.11 0 -2.19381e+06 1886.11 0 -2.19862e+06 1962.54 0 -2.20362e+06 2039.44 0 -2.20881e+06 2116.81 0 -2.2142e+06 2194.67 0 -2.21979e+06 2273.05 0 -2.22557e+06 2351.96 0 -2.23155e+06 2431.43 0 -2.23773e+06 2511.48 0 -2.24411e+06 2592.12 0 -2.25069e+06 2673.38 0 -2.25747e+06 2755.29 0 -2.26446e+06 2837.85 0 -2.27166e+06 2921.1 0 -2.27907e+06 3005.05 0 -2.28669e+06 3089.73 0 -2.29452e+06 3175.16 0 -2.30256e+06 3261.36 0 -2.31083e+06 3348.35 0 -2.31931e+06 3436.16 0 -2.32801e+06 3524.81 0 -2.33693e+06 3614.31 0 -2.34608e+06 3704.7 0 -2.35545e+06 3795.99 0 -2.36506e+06 3888.2 0 -2.3749e+06 3981.36 0 -2.38497e+06 4075.47 0 -2.39527e+06 4170.57 0 -2.40582e+06 4266.66 0 -2.41661e+06 4363.77 0 -2.42764e+06 4461.91 0 -2.43892e+06 4561.09 0 -2.45045e+06 4661.32 0 -2.46223e+06 4762.61 0 -2.47426e+06 4864.97 0 -2.48655e+06 4968.4 0 -2.4991e+06 5072.89 0 -2.51192e+06 5178.46 0 -2.525e+06 5285.08 0 -2.53834e+06 5392.75 0 -2.55196e+06 5501.44 0 -2.56585e+06 5611.13 0 -2.58002e+06 5721.79 0 -2.59446e+06 5833.38 0 -2.60918e+06 5945.84 0 -2.62419e+06 6059.13 0 -2.63948e+06 6173.16 0 -2.65506e+06 6287.87 0 -2.67092e+06 6403.15 0 -2.68707e+06 6518.89 0 -2.70351e+06 6634.96 0 -2.72025e+06 6751.23 0 -2.73727e+06 6867.53 0 -2.75458e+06 6983.66 0 -2.77219e+06 7099.42 0 -2.79008e+06 7214.57 0 -2.80826e+06 7328.84 0 -2.82672e+06 7441.93 0 -2.84547e+06 7553.5 0 -2.86449e+06 7663.2 0 -2.88378e+06 7770.6 0 -2.90334e+06 7875.24 0 -2.92316e+06 7976.63 0 -2.94322e+06 8074.21 0 -2.96353e+06 8167.38 0 -2.98406e+06 8255.46 0 -3.0048e+06 8337.75 0 -3.02574e+06 8413.46 0 -3.04686e+06 8481.73 0 -3.06815e+06 8541.65 0 -3.08957e+06 8592.25 0 -3.1111e+06 8632.47 0 -3.13272e+06 8661.2 0 -3.1544e+06 8677.26 0 -3.1761e+06 8679.41 0 -3.19779e+06 8666.37 0 -3.21942e+06 8636.79 0 -3.24096e+06 8589.29 0 -3.26236e+06 8522.48 0 -3.28356e+06 8434.96 0 -3.30452e+06 8325.32 0 -3.32518e+06 8192.2 0 -3.34547e+06 8034.29 0 -3.36533e+06 7850.37 0 -3.3847e+06 7639.32 0 -3.40351e+06 7400.18 0 -3.42169e+06 7132.17 0 -3.43916e+06 6834.71 0 -3.45585e+06 6507.49 0 -3.47168e+06 6150.47 0 -3.48658e+06 5763.93 0 -3.50048e+06 5348.48 0 -3.51331e+06 4905.11 0 -3.52499e+06 4435.17 0 -3.53547e+06 3940.4 0 -3.54468e+06 3422.89 0 -3.55257e+06 2885.13 0 -3.5591e+06 2329.92 0 -3.56421e+06 1760.35 0 -3.56789e+06 1179.78 0 -3.57011e+06 591.769 0 -3.57085e+06 6.31437e-07 0 -2.13326e+06 0 0 -2.13335e+06 94.3328 0 -2.13362e+06 188.686 0 -2.13406e+06 283.081 0 -2.13468e+06 377.539 0 -2.13547e+06 472.079 0 -2.13645e+06 566.724 0 -2.1376e+06 661.493 0 -2.13893e+06 756.409 0 -2.14044e+06 851.492 0 -2.14212e+06 946.763 0 -2.14399e+06 1042.24 0 -2.14603e+06 1137.96 0 -2.14825e+06 1233.92 0 -2.15066e+06 1330.16 0 -2.15324e+06 1426.7 0 -2.15601e+06 1523.56 0 -2.15895e+06 1620.76 0 -2.16208e+06 1718.33 0 -2.1654e+06 1816.28 0 -2.1689e+06 1914.64 0 -2.17258e+06 2013.44 0 -2.17645e+06 2112.7 0 -2.1805e+06 2212.44 0 -2.18474e+06 2312.68 0 -2.18917e+06 2413.46 0 -2.19379e+06 2514.8 0 -2.1986e+06 2616.71 0 -2.20361e+06 2719.24 0 -2.2088e+06 2822.39 0 -2.21419e+06 2926.21 0 -2.21978e+06 3030.72 0 -2.22556e+06 3135.93 0 -2.23154e+06 3241.89 0 -2.23771e+06 3348.62 0 -2.24409e+06 3456.14 0 -2.25067e+06 3564.49 0 -2.25746e+06 3673.7 0 -2.26445e+06 3783.78 0 -2.27165e+06 3894.77 0 -2.27906e+06 4006.71 0 -2.28667e+06 4119.62 0 -2.29451e+06 4233.52 0 -2.30255e+06 4348.45 0 -2.31081e+06 4464.44 0 -2.31929e+06 4581.52 0 -2.32799e+06 4699.72 0 -2.33692e+06 4819.06 0 -2.34607e+06 4939.58 0 -2.35544e+06 5061.29 0 -2.36505e+06 5184.24 0 -2.37488e+06 5308.45 0 -2.38495e+06 5433.94 0 -2.39526e+06 5560.73 0 -2.40581e+06 5688.86 0 -2.41659e+06 5818.33 0 -2.42762e+06 5949.18 0 -2.4389e+06 6081.42 0 -2.45043e+06 6215.06 0 -2.46221e+06 6350.11 0 -2.47424e+06 6486.59 0 -2.48653e+06 6624.5 0 -2.49909e+06 6763.83 0 -2.5119e+06 6904.58 0 -2.52498e+06 7046.75 0 -2.53833e+06 7190.3 0 -2.55194e+06 7335.23 0 -2.56583e+06 7481.48 0 -2.58e+06 7629.03 0 -2.59444e+06 7777.81 0 -2.60917e+06 7927.77 0 -2.62417e+06 8078.82 0 -2.63946e+06 8230.87 0 -2.65504e+06 8383.81 0 -2.6709e+06 8537.52 0 -2.68705e+06 8691.84 0 -2.7035e+06 8846.61 0 -2.72023e+06 9001.64 0 -2.73725e+06 9156.71 0 -2.75457e+06 9311.56 0 -2.77217e+06 9465.91 0 -2.79006e+06 9619.45 0 -2.80824e+06 9771.81 0 -2.82671e+06 9922.61 0 -2.84545e+06 10071.4 0 -2.86447e+06 10217.7 0 -2.88377e+06 10360.9 0 -2.90333e+06 10500.4 0 -2.92314e+06 10635.6 0 -2.94321e+06 10765.7 0 -2.96351e+06 10890 0 -2.98404e+06 11007.4 0 -3.00479e+06 11117.2 0 -3.02573e+06 11218.1 0 -3.04685e+06 11309.2 0 -3.06814e+06 11389.1 0 -3.08956e+06 11456.6 0 -3.1111e+06 11510.3 0 -3.13272e+06 11548.6 0 -3.1544e+06 11570.1 0 -3.1761e+06 11573 0 -3.19779e+06 11555.6 0 -3.21943e+06 11516.2 0 -3.24097e+06 11452.9 0 -3.26237e+06 11363.9 0 -3.28358e+06 11247.2 0 -3.30454e+06 11101.1 0 -3.3252e+06 10923.6 0 -3.34549e+06 10713.1 0 -3.36536e+06 10467.9 0 -3.38474e+06 10186.5 0 -3.40355e+06 9867.71 0 -3.42173e+06 9510.38 0 -3.43921e+06 9113.77 0 -3.4559e+06 8677.48 0 -3.47174e+06 8201.44 0 -3.48664e+06 7686.03 0 -3.50055e+06 7132.08 0 -3.51338e+06 6540.88 0 -3.52507e+06 5914.25 0 -3.53555e+06 5254.49 0 -3.54476e+06 4564.42 0 -3.55266e+06 3847.32 0 -3.55918e+06 3106.95 0 -3.5643e+06 2347.43 0 -3.56798e+06 1573.25 0 -3.5702e+06 789.13 0 -3.57094e+06 -9.95351e-07 0 -2.13325e+06 0 0 -2.13334e+06 117.915 0 -2.1336e+06 235.856 0 -2.13404e+06 353.85 0 -2.13466e+06 471.921 0 -2.13546e+06 590.095 0 -2.13643e+06 708.4 0 -2.13758e+06 826.862 0 -2.13891e+06 945.505 0 -2.14042e+06 1064.36 0 -2.14211e+06 1183.45 0 -2.14397e+06 1302.8 0 -2.14602e+06 1422.44 0 -2.14824e+06 1542.39 0 -2.15064e+06 1662.7 0 -2.15323e+06 1783.37 0 -2.15599e+06 1904.44 0 -2.15894e+06 2025.94 0 -2.16207e+06 2147.89 0 -2.16538e+06 2270.33 0 -2.16888e+06 2393.29 0 -2.17256e+06 2516.79 0 -2.17643e+06 2640.86 0 -2.18049e+06 2765.53 0 -2.18473e+06 2890.84 0 -2.18916e+06 3016.81 0 -2.19378e+06 3143.48 0 -2.19859e+06 3270.87 0 -2.20359e+06 3399.03 0 -2.20879e+06 3527.97 0 -2.21418e+06 3657.74 0 -2.21976e+06 3788.37 0 -2.22554e+06 3919.89 0 -2.23152e+06 4052.34 0 -2.2377e+06 4185.75 0 -2.24408e+06 4320.15 0 -2.25066e+06 4455.59 0 -2.25744e+06 4592.09 0 -2.26443e+06 4729.69 0 -2.27163e+06 4868.44 0 -2.27904e+06 5008.36 0 -2.28666e+06 5149.49 0 -2.29449e+06 5291.87 0 -2.30253e+06 5435.53 0 -2.3108e+06 5580.52 0 -2.31928e+06 5726.87 0 -2.32798e+06 5874.61 0 -2.3369e+06 6023.79 0 -2.34605e+06 6174.43 0 -2.35542e+06 6326.58 0 -2.36503e+06 6480.26 0 -2.37486e+06 6635.52 0 -2.38493e+06 6792.38 0 -2.39524e+06 6950.87 0 -2.40579e+06 7111.03 0 -2.41657e+06 7272.87 0 -2.4276e+06 7436.43 0 -2.43888e+06 7601.73 0 -2.45041e+06 7768.78 0 -2.46219e+06 7937.6 0 -2.47422e+06 8108.19 0 -2.48651e+06 8280.58 0 -2.49906e+06 8454.74 0 -2.51188e+06 8630.68 0 -2.52496e+06 8808.39 0 -2.5383e+06 8987.83 0 -2.55192e+06 9168.99 0 -2.56581e+06 9351.81 0 -2.57998e+06 9536.25 0 -2.59442e+06 9722.23 0 -2.60914e+06 9909.67 0 -2.62415e+06 10098.5 0 -2.63944e+06 10288.6 0 -2.65501e+06 10479.7 0 -2.67088e+06 10671.9 0 -2.68703e+06 10864.8 0 -2.70347e+06 11058.3 0 -2.7202e+06 11252.1 0 -2.73723e+06 11445.9 0 -2.75454e+06 11639.5 0 -2.77215e+06 11832.4 0 -2.79004e+06 12024.3 0 -2.80822e+06 12214.8 0 -2.82668e+06 12403.3 0 -2.84543e+06 12589.3 0 -2.86445e+06 12772.2 0 -2.88375e+06 12951.2 0 -2.90331e+06 13125.7 0 -2.92312e+06 13294.7 0 -2.94319e+06 13457.4 0 -2.96349e+06 13612.7 0 -2.98403e+06 13759.6 0 -3.00477e+06 13896.8 0 -3.02572e+06 14023 0 -3.04684e+06 14136.9 0 -3.06813e+06 14236.8 0 -3.08955e+06 14321.2 0 -3.11109e+06 14388.4 0 -3.13271e+06 14436.3 0 -3.1544e+06 14463.2 0 -3.1761e+06 14466.9 0 -3.1978e+06 14445.3 0 -3.21944e+06 14396.1 0 -3.24098e+06 14317 0 -3.26239e+06 14205.8 0 -3.2836e+06 14060 0 -3.30456e+06 13877.4 0 -3.32523e+06 13655.6 0 -3.34553e+06 13392.5 0 -3.3654e+06 13086.1 0 -3.38478e+06 12734.4 0 -3.4036e+06 12335.9 0 -3.42179e+06 11889.3 0 -3.43927e+06 11393.5 0 -3.45597e+06 10848.2 0 -3.47181e+06 10253.1 0 -3.48672e+06 9608.83 0 -3.50063e+06 8916.34 0 -3.51347e+06 8177.29 0 -3.52516e+06 7393.92 0 -3.53565e+06 6569.12 0 -3.54487e+06 5706.42 0 -3.55277e+06 4809.93 0 -3.5593e+06 3884.33 0 -3.56442e+06 2934.78 0 -3.5681e+06 1966.89 0 -3.57032e+06 986.579 0 -3.57106e+06 1.11992e-07 0 -2.13323e+06 0 0 -2.13332e+06 141.497 0 -2.13358e+06 283.026 0 -2.13403e+06 424.616 0 -2.13465e+06 566.301 0 -2.13544e+06 708.109 0 -2.13642e+06 850.074 0 -2.13757e+06 992.227 0 -2.1389e+06 1134.6 0 -2.1404e+06 1277.22 0 -2.14209e+06 1420.13 0 -2.14395e+06 1563.35 0 -2.146e+06 1706.91 0 -2.14822e+06 1850.86 0 -2.15062e+06 1995.22 0 -2.15321e+06 2140.03 0 -2.15597e+06 2285.31 0 -2.15892e+06 2431.11 0 -2.16205e+06 2577.45 0 -2.16537e+06 2724.38 0 -2.16886e+06 2871.93 0 -2.17255e+06 3020.12 0 -2.17641e+06 3169 0 -2.18047e+06 3318.61 0 -2.18471e+06 3468.98 0 -2.18914e+06 3620.14 0 -2.19376e+06 3772.14 0 -2.19857e+06 3925.02 0 -2.20357e+06 4078.8 0 -2.20877e+06 4233.53 0 -2.21416e+06 4389.26 0 -2.21974e+06 4546.01 0 -2.22552e+06 4703.84 0 -2.2315e+06 4862.77 0 -2.23768e+06 5022.86 0 -2.24406e+06 5184.14 0 -2.25064e+06 5346.66 0 -2.25742e+06 5510.46 0 -2.26441e+06 5675.59 0 -2.27161e+06 5842.08 0 -2.27902e+06 6009.98 0 -2.28664e+06 6179.33 0 -2.29447e+06 6350.19 0 -2.30251e+06 6522.58 0 -2.31077e+06 6696.57 0 -2.31925e+06 6872.18 0 -2.32795e+06 7049.48 0 -2.33688e+06 7228.48 0 -2.34602e+06 7409.26 0 -2.3554e+06 7591.83 0 -2.365e+06 7776.25 0 -2.37484e+06 7962.56 0 -2.38491e+06 8150.79 0 -2.39522e+06 8340.98 0 -2.40576e+06 8533.16 0 -2.41655e+06 8727.38 0 -2.42758e+06 8923.65 0 -2.43886e+06 9122 0 -2.45039e+06 9322.46 0 -2.46216e+06 9525.05 0 -2.4742e+06 9729.76 0 -2.48649e+06 9936.62 0 -2.49904e+06 10145.6 0 -2.51185e+06 10356.8 0 -2.52493e+06 10570 0 -2.53828e+06 10785.3 0 -2.55189e+06 11002.7 0 -2.56578e+06 11222.1 0 -2.57995e+06 11443.4 0 -2.59439e+06 11666.6 0 -2.60912e+06 11891.6 0 -2.62412e+06 12118.1 0 -2.63941e+06 12346.2 0 -2.65499e+06 12575.6 0 -2.67085e+06 12806.2 0 -2.687e+06 13037.7 0 -2.70344e+06 13269.9 0 -2.72018e+06 13502.5 0 -2.7372e+06 13735.1 0 -2.75451e+06 13967.4 0 -2.77212e+06 14198.9 0 -2.79001e+06 14429.3 0 -2.80819e+06 14657.9 0 -2.82666e+06 14884.1 0 -2.8454e+06 15107.3 0 -2.86443e+06 15326.8 0 -2.88372e+06 15541.6 0 -2.90328e+06 15751 0 -2.9231e+06 15953.9 0 -2.94317e+06 16149.1 0 -2.96347e+06 16335.6 0 -2.98401e+06 16511.9 0 -3.00475e+06 16676.6 0 -3.0257e+06 16828.1 0 -3.04682e+06 16964.8 0 -3.06811e+06 17084.8 0 -3.08954e+06 17186.2 0 -3.11108e+06 17266.8 0 -3.13271e+06 17324.4 0 -3.15439e+06 17356.7 0 -3.1761e+06 17361.3 0 -3.1978e+06 17335.4 0 -3.21945e+06 17276.4 0 -3.241e+06 17181.7 0 -3.2624e+06 17048.3 0 -3.28362e+06 16873.5 0 -3.30459e+06 16654.4 0 -3.32526e+06 16388.4 0 -3.34557e+06 16072.8 0 -3.36545e+06 15705.1 0 -3.38484e+06 15283.1 0 -3.40367e+06 14805 0 -3.42186e+06 14269.1 0 -3.43934e+06 13674.2 0 -3.45605e+06 13019.8 0 -3.4719e+06 12305.7 0 -3.48682e+06 11532.5 0 -3.50074e+06 10701.4 0 -3.51358e+06 9814.48 0 -3.52528e+06 8874.32 0 -3.53577e+06 7884.43 0 -3.545e+06 6849.03 0 -3.5529e+06 5773.06 0 -3.55943e+06 4662.13 0 -3.56456e+06 3522.46 0 -3.56824e+06 2360.76 0 -3.57046e+06 1184.14 0 -3.5712e+06 1.42958e-07 0 -2.13321e+06 0 0 -2.1333e+06 165.079 0 -2.13356e+06 330.194 0 -2.13401e+06 495.382 0 -2.13462e+06 660.678 0 -2.13542e+06 826.121 0 -2.1364e+06 991.745 0 -2.13755e+06 1157.59 0 -2.13888e+06 1323.69 0 -2.14038e+06 1490.08 0 -2.14207e+06 1656.8 0 -2.14393e+06 1823.89 0 -2.14598e+06 1991.38 0 -2.1482e+06 2159.32 0 -2.1506e+06 2327.74 0 -2.15319e+06 2496.68 0 -2.15595e+06 2666.17 0 -2.1589e+06 2836.27 0 -2.16203e+06 3007 0 -2.16534e+06 3178.42 0 -2.16884e+06 3350.55 0 -2.17252e+06 3523.44 0 -2.17639e+06 3697.14 0 -2.18045e+06 3871.68 0 -2.18469e+06 4047.11 0 -2.18912e+06 4223.46 0 -2.19374e+06 4400.79 0 -2.19855e+06 4579.14 0 -2.20355e+06 4758.56 0 -2.20874e+06 4939.08 0 -2.21413e+06 5120.75 0 -2.21972e+06 5303.63 0 -2.2255e+06 5487.76 0 -2.23148e+06 5673.18 0 -2.23765e+06 5859.95 0 -2.24403e+06 6048.11 0 -2.25061e+06 6237.72 0 -2.2574e+06 6428.82 0 -2.26439e+06 6621.46 0 -2.27159e+06 6815.69 0 -2.27899e+06 7011.58 0 -2.28661e+06 7209.16 0 -2.29444e+06 7408.48 0 -2.30249e+06 7609.61 0 -2.31075e+06 7812.59 0 -2.31923e+06 8017.47 0 -2.32793e+06 8224.31 0 -2.33685e+06 8433.15 0 -2.346e+06 8644.05 0 -2.35537e+06 8857.05 0 -2.36498e+06 9072.21 0 -2.37481e+06 9289.56 0 -2.38488e+06 9509.16 0 -2.39519e+06 9731.05 0 -2.40573e+06 9955.27 0 -2.41652e+06 10181.8 0 -2.42755e+06 10410.8 0 -2.43883e+06 10642.2 0 -2.45036e+06 10876.1 0 -2.46214e+06 11112.5 0 -2.47417e+06 11351.3 0 -2.48646e+06 11592.6 0 -2.49901e+06 11836.5 0 -2.51182e+06 12082.8 0 -2.5249e+06 12331.6 0 -2.53825e+06 12582.8 0 -2.55186e+06 12836.4 0 -2.56575e+06 13092.4 0 -2.57992e+06 13350.6 0 -2.59436e+06 13611 0 -2.60908e+06 13873.4 0 -2.62409e+06 14137.8 0 -2.63938e+06 14403.9 0 -2.65495e+06 14671.5 0 -2.67082e+06 14940.5 0 -2.68697e+06 15210.6 0 -2.70341e+06 15481.5 0 -2.72014e+06 15752.9 0 -2.73717e+06 16024.3 0 -2.75448e+06 16295.3 0 -2.77209e+06 16565.5 0 -2.78998e+06 16834.2 0 -2.80816e+06 17100.9 0 -2.82662e+06 17364.9 0 -2.84537e+06 17625.4 0 -2.86439e+06 17881.4 0 -2.88369e+06 18132.1 0 -2.90325e+06 18376.5 0 -2.92307e+06 18613.2 0 -2.94314e+06 18841 0 -2.96345e+06 19058.6 0 -2.98398e+06 19264.4 0 -3.00473e+06 19456.6 0 -3.02568e+06 19633.5 0 -3.04681e+06 19793 0 -3.0681e+06 19933.1 0 -3.08953e+06 20051.4 0 -3.11107e+06 20145.6 0 -3.1327e+06 20213 0 -3.15439e+06 20250.8 0 -3.17611e+06 20256.2 0 -3.19781e+06 20226.1 0 -3.21946e+06 20157.5 0 -3.24101e+06 20047 0 -3.26243e+06 19891.5 0 -3.28365e+06 19687.7 0 -3.30463e+06 19432.2 0 -3.3253e+06 19122 0 -3.34562e+06 18753.9 0 -3.36551e+06 18325 0 -3.3849e+06 17832.9 0 -3.40374e+06 17275.1 0 -3.42194e+06 16649.9 0 -3.43943e+06 15955.9 0 -3.45615e+06 15192.4 0 -3.47201e+06 14359.3 0 -3.48694e+06 13457.2 0 -3.50086e+06 12487.5 0 -3.51371e+06 11452.6 0 -3.52542e+06 10355.6 0 -3.53592e+06 9200.55 0 -3.54515e+06 7992.36 0 -3.55306e+06 6736.81 0 -3.5596e+06 5440.45 0 -3.56473e+06 4110.52 0 -3.56841e+06 2754.89 0 -3.57063e+06 1381.84 0 -3.57138e+06 4.88944e-08 0 -2.13319e+06 0 0 -2.13327e+06 188.66 0 -2.13354e+06 377.361 0 -2.13398e+06 566.145 0 -2.1346e+06 755.054 0 -2.1354e+06 944.129 0 -2.13637e+06 1133.41 0 -2.13752e+06 1322.94 0 -2.13885e+06 1512.77 0 -2.14036e+06 1702.93 0 -2.14204e+06 1893.47 0 -2.14391e+06 2084.42 0 -2.14595e+06 2275.84 0 -2.14818e+06 2467.77 0 -2.15058e+06 2660.24 0 -2.15316e+06 2853.31 0 -2.15593e+06 3047.02 0 -2.15888e+06 3241.42 0 -2.16201e+06 3436.54 0 -2.16532e+06 3632.44 0 -2.16882e+06 3829.16 0 -2.1725e+06 4026.75 0 -2.17637e+06 4225.26 0 -2.18042e+06 4424.73 0 -2.18466e+06 4625.22 0 -2.18909e+06 4826.77 0 -2.19371e+06 5029.43 0 -2.19852e+06 5233.25 0 -2.20352e+06 5438.29 0 -2.20872e+06 5644.6 0 -2.21411e+06 5852.23 0 -2.21969e+06 6061.23 0 -2.22547e+06 6271.66 0 -2.23145e+06 6483.57 0 -2.23763e+06 6697.01 0 -2.24401e+06 6912.05 0 -2.25059e+06 7128.74 0 -2.25737e+06 7347.14 0 -2.26436e+06 7567.3 0 -2.27156e+06 7789.28 0 -2.27897e+06 8013.14 0 -2.28658e+06 8238.95 0 -2.29441e+06 8466.75 0 -2.30246e+06 8696.6 0 -2.31072e+06 8928.58 0 -2.3192e+06 9162.73 0 -2.3279e+06 9399.11 0 -2.33682e+06 9637.78 0 -2.34597e+06 9878.81 0 -2.35534e+06 10122.2 0 -2.36495e+06 10368.1 0 -2.37478e+06 10616.5 0 -2.38485e+06 10867.5 0 -2.39516e+06 11121.1 0 -2.4057e+06 11377.3 0 -2.41649e+06 11636.3 0 -2.42752e+06 11898 0 -2.4388e+06 12162.4 0 -2.45032e+06 12429.7 0 -2.4621e+06 12699.8 0 -2.47413e+06 12972.8 0 -2.48642e+06 13248.6 0 -2.49897e+06 13527.3 0 -2.51179e+06 13808.8 0 -2.52486e+06 14093.1 0 -2.53821e+06 14380.2 0 -2.55183e+06 14670.1 0 -2.56572e+06 14962.6 0 -2.57988e+06 15257.7 0 -2.59432e+06 15555.3 0 -2.60905e+06 15855.2 0 -2.62405e+06 16157.3 0 -2.63934e+06 16461.5 0 -2.65491e+06 16767.4 0 -2.67078e+06 17074.9 0 -2.68693e+06 17383.6 0 -2.70337e+06 17693.2 0 -2.7201e+06 18003.3 0 -2.73713e+06 18313.5 0 -2.75444e+06 18623.3 0 -2.77205e+06 18932 0 -2.78994e+06 19239.2 0 -2.80812e+06 19544.1 0 -2.82659e+06 19845.8 0 -2.84533e+06 20143.5 0 -2.86436e+06 20436.2 0 -2.88365e+06 20722.8 0 -2.90322e+06 21002.1 0 -2.92304e+06 21272.7 0 -2.94311e+06 21533.1 0 -2.96342e+06 21781.9 0 -2.98395e+06 22017.1 0 -3.0047e+06 22236.9 0 -3.02565e+06 22439.1 0 -3.04678e+06 22621.6 0 -3.06808e+06 22781.8 0 -3.08951e+06 22917.2 0 -3.11106e+06 23024.9 0 -3.13269e+06 23102 0 -3.15439e+06 23145.4 0 -3.17611e+06 23151.7 0 -3.19781e+06 23117.5 0 -3.21947e+06 23039.2 0 -3.24103e+06 22913.2 0 -3.26245e+06 22735.6 0 -3.28368e+06 22502.8 0 -3.30467e+06 22211.1 0 -3.32535e+06 21856.6 0 -3.34568e+06 21436.1 0 -3.36557e+06 20946.1 0 -3.38498e+06 20383.7 0 -3.40382e+06 19746.4 0 -3.42203e+06 19031.9 0 -3.43954e+06 18238.8 0 -3.45626e+06 17366.3 0 -3.47213e+06 16414.1 0 -3.48707e+06 15383 0 -3.50101e+06 14274.8 0 -3.51387e+06 13091.9 0 -3.52558e+06 11837.9 0 -3.53609e+06 10517.6 0 -3.54533e+06 9136.53 0 -3.55324e+06 7701.28 0 -3.55979e+06 6219.36 0 -3.56492e+06 4699.05 0 -3.56861e+06 3149.33 0 -3.57083e+06 1579.69 0 -3.57157e+06 5.47618e-07 0 -2.13316e+06 0 0 -2.13325e+06 212.24 0 -2.13351e+06 424.526 0 -2.13396e+06 636.906 0 -2.13457e+06 849.426 0 -2.13537e+06 1062.13 0 -2.13634e+06 1275.07 0 -2.1375e+06 1488.3 0 -2.13882e+06 1701.85 0 -2.14033e+06 1915.77 0 -2.14202e+06 2130.13 0 -2.14388e+06 2344.95 0 -2.14593e+06 2560.29 0 -2.14815e+06 2776.21 0 -2.15055e+06 2992.74 0 -2.15314e+06 3209.94 0 -2.1559e+06 3427.86 0 -2.15885e+06 3646.55 0 -2.16198e+06 3866.07 0 -2.16529e+06 4086.45 0 -2.16879e+06 4307.76 0 -2.17247e+06 4530.04 0 -2.17634e+06 4753.36 0 -2.18039e+06 4977.76 0 -2.18463e+06 5203.31 0 -2.18906e+06 5430.05 0 -2.19368e+06 5658.04 0 -2.19849e+06 5887.34 0 -2.2035e+06 6118.01 0 -2.20869e+06 6350.1 0 -2.21408e+06 6583.68 0 -2.21966e+06 6818.8 0 -2.22544e+06 7055.53 0 -2.23142e+06 7293.93 0 -2.2376e+06 7534.05 0 -2.24398e+06 7775.97 0 -2.25056e+06 8019.74 0 -2.25734e+06 8265.43 0 -2.26433e+06 8513.11 0 -2.27153e+06 8762.84 0 -2.27893e+06 9014.68 0 -2.28655e+06 9268.7 0 -2.29438e+06 9524.97 0 -2.30243e+06 9783.56 0 -2.31069e+06 10044.5 0 -2.31917e+06 10307.9 0 -2.32786e+06 10573.9 0 -2.33679e+06 10842.4 0 -2.34593e+06 11113.5 0 -2.35531e+06 11387.4 0 -2.36491e+06 11664 0 -2.37475e+06 11943.5 0 -2.38482e+06 12225.8 0 -2.39512e+06 12511.1 0 -2.40567e+06 12799.3 0 -2.41645e+06 13090.7 0 -2.42748e+06 13385.1 0 -2.43876e+06 13682.6 0 -2.45028e+06 13983.3 0 -2.46206e+06 14287.1 0 -2.4741e+06 14594.2 0 -2.48638e+06 14904.5 0 -2.49893e+06 15218 0 -2.51175e+06 15534.7 0 -2.52482e+06 15854.6 0 -2.53817e+06 16177.6 0 -2.55178e+06 16503.7 0 -2.56567e+06 16832.8 0 -2.57984e+06 17164.8 0 -2.59428e+06 17499.6 0 -2.609e+06 17837 0 -2.62401e+06 18176.9 0 -2.6393e+06 18519.1 0 -2.65487e+06 18863.2 0 -2.67073e+06 19209.1 0 -2.68689e+06 19556.4 0 -2.70333e+06 19904.8 0 -2.72006e+06 20253.7 0 -2.73708e+06 20602.7 0 -2.7544e+06 20951.2 0 -2.772e+06 21298.6 0 -2.7899e+06 21644.3 0 -2.80808e+06 21987.3 0 -2.82654e+06 22326.7 0 -2.84529e+06 22661.7 0 -2.86432e+06 22991.1 0 -2.88361e+06 23313.5 0 -2.90318e+06 23627.8 0 -2.923e+06 23932.3 0 -2.94307e+06 24225.4 0 -2.96338e+06 24505.4 0 -2.98392e+06 24770.1 0 -3.00467e+06 25017.5 0 -3.02563e+06 25245.1 0 -3.04676e+06 25450.5 0 -3.06806e+06 25630.9 0 -3.08949e+06 25783.4 0 -3.11105e+06 25904.8 0 -3.13269e+06 25991.7 0 -3.15438e+06 26040.7 0 -3.17611e+06 26048 0 -3.19782e+06 26009.7 0 -3.21948e+06 25921.8 0 -3.24105e+06 25780.2 0 -3.26248e+06 25580.7 0 -3.28372e+06 25319 0 -3.30471e+06 24991 0 -3.32541e+06 24592.5 0 -3.34574e+06 24119.5 0 -3.36565e+06 23568.5 0 -3.38506e+06 22936 0 -3.40392e+06 22219.1 0 -3.42214e+06 21415.4 0 -3.43966e+06 20523.2 0 -3.45639e+06 19541.6 0 -3.47227e+06 18470.3 0 -3.48722e+06 17310.3 0 -3.50117e+06 16063.3 0 -3.51404e+06 14732.4 0 -3.52576e+06 13321.4 0 -3.53628e+06 11835.8 0 -3.54553e+06 10281.7 0 -3.55345e+06 8666.59 0 -3.56e+06 6998.95 0 -3.56514e+06 5288.1 0 -3.56883e+06 3544.12 0 -3.57105e+06 1777.72 0 -3.5718e+06 9.1549e-07 0 -2.13313e+06 0 0 -2.13322e+06 235.819 0 -2.13348e+06 471.69 0 -2.13393e+06 707.665 0 -2.13454e+06