<?xml version="1.0"?> 
<VTKFile type="StructuredGrid" version="0.1"> 
<StructuredGrid WholeExtent="0 3 0 3 0 0"> 
<Piece Extent="0 3 0 3 0 0"> 
<PointData>
<DataArray type="Float32" Name="|E|" format="ascii" NumberOfComponents="3"> 
1.74522e+06 -696128 0 1.38599e+06 307286 0 728625 135654 0 535395 0 0 2.09438e+06 -835399 0 1.35284e+06 401610 0 710226 173075 0 526925 0 0 2.58098e+06 -1.02949e+06 0 1.30775e+06 477847 0 686315 209043 0 514311 0 0 3.32094e+06 -1.32464e+06 0 1.25134e+06 505992 0 649982 242336 0 487800 0 0 </DataArray> 
</PointData> 
<Points> 
<DataArray type="Float32" NumberOfComponents="3"> 
0.1947 0.02 0 0.254133 0.02 0 0.313567 0.02 0 0.373 0.02 0 0.197067 0.0259333 0 0.255711 0.0259333 0 0.314356 0.0259333 0 0.373 0.0259333 0 0.199433 0.0318667 0 0.257289 0.0318667 0 0.315144 0.0318667 0 0.373 0.0318667 0 0.2018 0.0378 0 0.258867 0.0378 0 0.315933 0.0378 0 0.373 0.0378 0 
</DataArray>
</Points> 
</Piece> 
</StructuredGrid> 
</VTKFile> 
