<?xml version="1.0"?> 
<VTKFile type="StructuredGrid" version="0.1"> 
<StructuredGrid WholeExtent="0 3 0 3 0 0"> 
<Piece Extent="0 3 0 3 0 0"> 
<PointData>
<DataArray type="Float32" Name="|E|" format="ascii" NumberOfComponents="3"> 
-1.49012e-07 6.05773e+06 0 -1.02445e-07 21894.3 0 7.07805e-08 -260035 0 2.68221e-07 -1.04858e+06 0 -2.13455e+06 2.13011e+06 0 -2.84435e+06 1.22582e+06 0 -1.63928e+06 783935 0 353601 630687 0 -2.01583e+06 1.89492e+06 0 -2.33082e+06 1.854e+06 0 -2.84562e+06 1.71704e+06 0 -1.68221e+06 -943147 0 -1.59127e+06 1.78223e+06 0 -1.979e+06 1.97653e+06 0 -2.6561e+06 2.12454e+06 0 -4.69384e+06 5.96046e-08 0 </DataArray> 
</PointData> 
<Points> 
<DataArray type="Float32" NumberOfComponents="3"> 
0.1 0.045 0 0.104333 0.045 0 0.108667 0.045 0 0.113 0.045 0 0.0892667 0.0524444 0 0.0949778 0.0505753 0 0.101232 0.0485284 0 0.10811 0.0462774 0 0.0785333 0.0598889 0 0.0863362 0.0569248 0 0.0948806 0.0536791 0 0.104277 0.0501096 0 0.0678 0.0673333 0 0.0795333 0.0632222 0 0.0912667 0.0591111 0 0.103 0.055 0 
</DataArray>
</Points> 
</Piece> 
</StructuredGrid> 
</VTKFile> 
