<?xml version="1.0"?> 
<VTKFile type="StructuredGrid" version="0.1"> 
<StructuredGrid WholeExtent="0 3 0 3 0 0"> 
<Piece Extent="0 3 0 3 0 0"> 
<PointData>
<DataArray type="Float32" Name="|E|" format="ascii" NumberOfComponents="3"> 
-2.08948e+06 84092.2 0 -2.2982e+06 231887 0 -2.88873e+06 423139 0 -3.80674e+06 -3.57628e-07 0 -2.1151e+06 131018 0 -2.31772e+06 299847 0 -2.89224e+06 539719 0 -4.06711e+06 -2.29571e-07 0 -2.13345e+06 177886 0 -2.33677e+06 382124 0 -2.88075e+06 660805 0 -4.55898e+06 2.27243e-07 0 -2.1314e+06 167511 0 -2.35556e+06 473689 0 -2.83787e+06 761077 0 -5.51469e+06 5.36442e-07 0 </DataArray> 
</PointData> 
<Points> 
<DataArray type="Float32" NumberOfComponents="3"> 
0.006 0.016 0 0.029 0.014 0 0.052 0.012 0 0.075 0.01 0 0.00933333 0.0176667 0 0.0312222 0.0163333 0 0.0531111 0.015 0 0.075 0.0136667 0 0.0126667 0.0193333 0 0.0334444 0.0186667 0 0.0542222 0.018 0 0.075 0.0173333 0 0.016 0.021 0 0.0356667 0.021 0 0.0553333 0.021 0 0.075 0.021 0 
</DataArray>
</Points> 
</Piece> 
</StructuredGrid> 
</VTKFile> 
