<?xml version="1.0"?> 
<VTKFile type="StructuredGrid" version="0.1"> 
<StructuredGrid WholeExtent="0 3 0 3 0 0"> 
<Piece Extent="0 3 0 3 0 0"> 
<PointData>
<DataArray type="Float32" Name="|E|" format="ascii" NumberOfComponents="3"> 
1.24451e+06 -126991 0 1.42814e+06 76624.4 0 757096 35010 0 547923 0 0 1.25075e+06 -127627 0 1.42723e+06 105660 0 756053 46486.7 0 547579 0 0 1.25076e+06 -127629 0 1.42632e+06 135532 0 755030 57962.5 0 547456 0 0 1.24435e+06 -126974 0 1.42534e+06 166518 0 754070 69455.3 0 547632 0 0 </DataArray> 
</PointData> 
<Points> 
<DataArray type="Float32" NumberOfComponents="3"> 
0.19 0.005 0 0.251 0.005 0 0.312 0.005 0 0.373 0.005 0 0.190167 0.00663333 0 0.251111 0.00663333 0 0.312056 0.00663333 0 0.373 0.00663333 0 0.190333 0.00826667 0 0.251222 0.00826667 0 0.312111 0.00826667 0 0.373 0.00826667 0 0.1905 0.0099 0 0.251333 0.0099 0 0.312167 0.0099 0 0.373 0.0099 0 
</DataArray>
</Points> 
</Piece> 
</StructuredGrid> 
</VTKFile> 
