<?xml version="1.0"?> 
<VTKFile type="StructuredGrid" version="0.1"> 
<StructuredGrid WholeExtent="0 3 0 3 0 0"> 
<Piece Extent="0 3 0 3 0 0"> 
<PointData>
<DataArray type="Float32" Name="|E|" format="ascii" NumberOfComponents="3"> 
364901 5.35904e+06 0 2.28068e+06 5.68981e+06 0 3.71325e+06 4.38622e+06 0 4.32606e+06 2.68251e+06 0 795903 3.88876e+06 0 1.35162e+06 2.72671e+06 0 1.06563e+06 1.71111e+06 0 825213 1.21119e+06 0 399279 3.50877e+06 0 520116 2.06621e+06 0 317211 1.04094e+06 0 197787 472305 0 0 3.41951e+06 0 0 1.59799e+06 0 0 548196 0 0 -25943.7 0 </DataArray> 
</PointData> 
<Points> 
<DataArray type="Float32" NumberOfComponents="3"> 
0.188 0.0600551 0 0.192903 0.0589349 0 0.197322 0.056275 0 0.200607 0.0524662 0 0.188 0.0773701 0 0.212463 0.0772203 0 0.236608 0.0754769 0 0.258071 0.0723108 0 0.188 0.094685 0 0.231374 0.0948987 0 0.274591 0.0940415 0 0.315536 0.0921554 0 0.188 0.112 0 0.249667 0.112 0 0.311333 0.112 0 0.373 0.112 0 
</DataArray>
</Points> 
</Piece> 
</StructuredGrid> 
</VTKFile> 
