<?xml version="1.0"?> 
<VTKFile type="StructuredGrid" version="0.1"> 
<StructuredGrid WholeExtent="0 15 0 15 0 0"> 
<Piece Extent="0 15 0 15 0 0"> 
<PointData>
<DataArray type="Float32" Name="E" format="ascii" NumberOfComponents="3"> 
-604622 -2.55757 0 -604262 -962.122 0 -603161 -1754.7 0 -601256 -2203.88 0 -598424 -2123.85 0 -594461 -1310.46 0 -589041 446.017 0 -581669 3323.72 0 -571608 7403.59 0 -557883 12492.5 0 -539201 18087.2 0 -514310 22710.9 0 -481570 25419.5 0 -438745 20748.9 0 -381719 12438.7 0 -226597 -53191.3 0 -604282 -2.65071 0 -603966 -672.319 0 -603002 -1167.14 0 -601334 -1300.06 0 -598858 -868.174 0 -595393 361.646 0 -590639 2647.69 0 -584123 6248.78 0 -575116 11359.8 0 -562577 17971 0 -545126 25688.3 0 -521222 33460.5 0 -489225 39730.1 0 -447088 42397.5 0 -389989 39660.3 0 -297119 37914.5 0 -604049 -2.7103 0 -603778 -419.534 0 -602952 -656.805 0 -601526 -520.221 0 -599416 206.225 0 -596468 1780.05 0 -592419 4503.73 0 -586835 8713.21 0 -579013 14726.4 0 -567886 22718.1 0 -551976 32495.3 0 -529518 43243.3 0 -498761 53408.9 0 -457992 61480.1 0 -404596 66373.9 0 -332194 77594.5 0 -603911 -2.72101 0 -603685 -204.497 0 -602996 -225.366 0 -601813 132.434 0 -600072 1093.41 0 -597652 2933.65 0 -594336 5993.06 0 -589743 10678.3 0 -583223 17431.2 0 -573722 26622.2 0 -559681 38312.3 0 -539116 51918.3 0 -510051 65965.2 0 -471013 78794.1 0 -421047 89574 0 -359497 104624 0 -603854 -2.68072 0 -603671 -27.3743 0 -603118 126.715 0 -602174 656.756 0 -600800 1790.64 0 -598910 3816.13 0 -596340 7101.52 0 -592778 12113.9 0 -587655 19412.5 0 -579975 29571.7 0 -568141 42952.4 0 -549939 59274 0 -523030 77153.2 0 -485914 94523.3 0 -438669 110002 0 -382880 126959 0 -603865 -2.58899 0 -603724 112.282 0 -603301 400.305 0 -602590 1053.88 0 -601572 2298.85 0 -600202 4426.81 0 -598374 7823.36 0 -595860 13001.5 0 -592198 20622.9 0 -586503 31464.5 0 -577206 46228.2 0 -561886 65051.5 0 -537677 86746.9 0 -502655 108729 0 -457390 128511 0 -404846 147206 0 -603929 -2.44855 0 -603828 215.576 0 -603529 597.701 0 -603038 1327.44 0 -602360 2622.98 0 -601490 4771.4 0 -600382 8162.87 0 -598903 13337.5 0 -596726 21035.7 0 -593131 32218.8 0 -586676 47955.4 0 -574810 68944.1 0 -554004 94435.6 0 -521405 121375 0 -477496 145717 0 -426370 166478 0 -604034 -2.26039 0 -603970 284.284 0 -603785 722.687 0 -603498 1483.63 0 -603136 2772.22 0 -602732 4862.5 0 -602303 8135.49 0 -601816 13136.4 0 -601098 20651.2 0 -599651 31787.4 0 -596277 47970.1 0 -588469 70597.1 0 -572014 99756.7 0 -542498 132248 0 -499512 162020 0 -448249 185540 0 -604165 -2.03517 0 -604134 320.867 0 -604053 780.522 0 -603950 1531.27 0 -603874 2760.05 0 -603892 4719.8 0 -604082 7768.55 0 -604509 12432.8 0 -605167 19503.5 0 -605826 30172.7 0 -605657 46162.9 0 -602479 69631 0 -591601 102035 0 -566416 140831 0 -524239 177630 0 -471250 205108 0 -604309 -1.76864 0 -604308 328.419 0 -604317 777.899 0 -604375 1481.62 0 -604548 2604.09 0 -604934 4369.8 0 -605665 7101.05 0 -606898 11282.1 0 -608794 17664.2 0 -611403 27444.3 0 -614399 42521.1 0 -616235 65721.8 0 -612411 100346 0 -593717 146082 0 -552928 192497 0 -496293 226035 0 -604455 -1.48922 0 -604478 310.652 0 -604563 722.774 0 -604756 1348.23 0 -605136 2325.58 0 -605829 3845.17 0 -607006 6182.83 0 -608912 9759.02 0 -611841 15244.8 0 -616152 23745.9 0 -622020 37178.5 0 -628937 58742.5 0 -633529 93601.1 0 -624892 146075 0 -587480 205998 0 -524779 249588 0 -604591 -1.17118 0 -604634 271.745 0 -604779 624.249 0 -605078 1146.45 0 -605622 1948.9 0 -606549 3183.52 0 -608076 5072.19 0 -610485 7955.33 0 -614232 12388.2 0 -619836 19305.4 0 -628132 30425.5 0 -639521 48965 0 -653310 80960.6 0 -659580 137482 0 -631115 216112 0 -558804 277802 0 -604707 -0.886516 0 -604765 216.345 0 -604954 492.171 0 -605331 893.157 0 -605989 1500.42 0 -607087 2426.03 0 -608838 3833.1 0 -611614 5974.27 0 -615844 9258.5 0 -622420 14420.3 0 -632227 22702.4 0 -647284 37140.1 0 -668819 62745.2 0 -695430 115775 0 -688578 216324 0 -602579 315200 0 -604796 -0.54377 0 -604863 149.238 0 -605081 337.097 0 -605505 605.784 0 -606235 1007.93 0 -607420 1615.28 0 -609313 2531.71 0 -612224 3922.31 0 -616786 6039.03 0 -623632 9367.67 0 -634492 14752.1 0 -651195 23863.6 0 -677777 42274.2 0 -724148 76981.8 0 -765626 190989 0 -671117 364595 0 -604853 -0.284879 0 -604924 75.5149 0 -605155 169.502 0 -605598 302.363 0 -606350 498.901 0 -607566 793.113 0 -609464 1235.37 0 -612423 1895.05 0 -616890 2917.5 0 -623888 4438 0 -634441 7085.68 0 -651523 11074.3 0 -680473 19869.7 0 -726909 37687 0 -862398 92958.3 0 -812988 420483 0 -604873 1.19209e-07 0 -604944 -5.7742e-08 0 -605172 -4.84288e-08 0 -605608 1.3411e-07 0 -606344 -5.96046e-08 0 -607518 4.47035e-08 0 -609355 7.45058e-09 0 -612149 -4.47035e-08 0 -616454 2.98023e-08 0 -622897 1.49012e-08 0 -632972 1.49012e-08 0 -648820 4.47035e-08 0 -673294 -8.9407e-08 0 -727555 -4.47035e-08 0 -798178 1.19209e-07 0 -1.66948e+06 -1.78814e-07 0 </DataArray> 
</PointData> 
<Points> 
<DataArray type="Float32" NumberOfComponents="3"> 
0.253 0 0 0.253 0.0018 0 0.253 0.0036 0 0.253 0.0054 0 0.253 0.0072 0 0.253 0.009 0 0.253 0.0108 0 0.253 0.0126 0 0.253 0.0144 0 0.253 0.0162 0 0.253 0.018 0 0.253 0.0198 0 0.253 0.0216 0 0.253 0.0234 0 0.253 0.0252 0 0.253 0.027 0 0.253733 0 0 0.253733 0.00177333 0 0.253733 0.00354667 0 0.253733 0.00532 0 0.253733 0.00709333 0 0.253733 0.00886667 0 0.253733 0.01064 0 0.253733 0.0124133 0 0.253733 0.0141867 0 0.253733 0.01596 0 0.253733 0.0177333 0 0.253733 0.0195067 0 0.253733 0.02128 0 0.253733 0.0230533 0 0.253733 0.0248267 0 0.253733 0.0266 0 0.254467 0 0 0.254467 0.00174667 0 0.254467 0.00349333 0 0.254467 0.00524 0 0.254467 0.00698667 0 0.254467 0.00873333 0 0.254467 0.01048 0 0.254467 0.0122267 0 0.254467 0.0139733 0 0.254467 0.01572 0 0.254467 0.0174667 0 0.254467 0.0192133 0 0.254467 0.02096 0 0.254467 0.0227067 0 0.254467 0.0244533 0 0.254467 0.0262 0 0.2552 0 0 0.2552 0.00172 0 0.2552 0.00344 0 0.2552 0.00516 0 0.2552 0.00688 0 0.2552 0.0086 0 0.2552 0.01032 0 0.2552 0.01204 0 0.2552 0.01376 0 0.2552 0.01548 0 0.2552 0.0172 0 0.2552 0.01892 0 0.2552 0.02064 0 0.2552 0.02236 0 0.2552 0.02408 0 0.2552 0.0258 0 0.255933 0 0 0.255933 0.00169333 0 0.255933 0.00338667 0 0.255933 0.00508 0 0.255933 0.00677333 0 0.255933 0.00846667 0 0.255933 0.01016 0 0.255933 0.0118533 0 0.255933 0.0135467 0 0.255933 0.01524 0 0.255933 0.0169333 0 0.255933 0.0186267 0 0.255933 0.02032 0 0.255933 0.0220133 0 0.255933 0.0237067 0 0.255933 0.0254 0 0.256667 0 0 0.256667 0.00166667 0 0.256667 0.00333333 0 0.256667 0.005 0 0.256667 0.00666667 0 0.256667 0.00833333 0 0.256667 0.01 0 0.256667 0.0116667 0 0.256667 0.0133333 0 0.256667 0.015 0 0.256667 0.0166667 0 0.256667 0.0183333 0 0.256667 0.02 0 0.256667 0.0216667 0 0.256667 0.0233333 0 0.256667 0.025 0 0.2574 0 0 0.2574 0.00164 0 0.2574 0.00328 0 0.2574 0.00492 0 0.2574 0.00656 0 0.2574 0.0082 0 0.2574 0.00984 0 0.2574 0.01148 0 0.2574 0.01312 0 0.2574 0.01476 0 0.2574 0.0164 0 0.2574 0.01804 0 0.2574 0.01968 0 0.2574 0.02132 0 0.2574 0.02296 0 0.2574 0.0246 0 0.258133 0 0 0.258133 0.00161333 0 0.258133 0.00322667 0 0.258133 0.00484 0 0.258133 0.00645333 0 0.258133 0.00806667 0 0.258133 0.00968 0 0.258133 0.0112933 0 0.258133 0.0129067 0 0.258133 0.01452 0 0.258133 0.0161333 0 0.258133 0.0177467 0 0.258133 0.01936 0 0.258133 0.0209733 0 0.258133 0.0225867 0 0.258133 0.0242 0 0.258867 0 0 0.258867 0.00158667 0 0.258867 0.00317333 0 0.258867 0.00476 0 0.258867 0.00634667 0 0.258867 0.00793333 0 0.258867 0.00952 0 0.258867 0.0111067 0 0.258867 0.0126933 0 0.258867 0.01428 0 0.258867 0.0158667 0 0.258867 0.0174533 0 0.258867 0.01904 0 0.258867 0.0206267 0 0.258867 0.0222133 0 0.258867 0.0238 0 0.2596 0 0 0.2596 0.00156 0 0.2596 0.00312 0 0.2596 0.00468 0 0.2596 0.00624 0 0.2596 0.0078 0 0.2596 0.00936 0 0.2596 0.01092 0 0.2596 0.01248 0 0.2596 0.01404 0 0.2596 0.0156 0 0.2596 0.01716 0 0.2596 0.01872 0 0.2596 0.02028 0 0.2596 0.02184 0 0.2596 0.0234 0 0.260333 0 0 0.260333 0.00153333 0 0.260333 0.00306667 0 0.260333 0.0046 0 0.260333 0.00613333 0 0.260333 0.00766667 0 0.260333 0.0092 0 0.260333 0.0107333 0 0.260333 0.0122667 0 0.260333 0.0138 0 0.260333 0.0153333 0 0.260333 0.0168667 0 0.260333 0.0184 0 0.260333 0.0199333 0 0.260333 0.0214667 0 0.260333 0.023 0 0.261067 0 0 0.261067 0.00150667 0 0.261067 0.00301333 0 0.261067 0.00452 0 0.261067 0.00602667 0 0.261067 0.00753333 0 0.261067 0.00904 0 0.261067 0.0105467 0 0.261067 0.0120533 0 0.261067 0.01356 0 0.261067 0.0150667 0 0.261067 0.0165733 0 0.261067 0.01808 0 0.261067 0.0195867 0 0.261067 0.0210933 0 0.261067 0.0226 0 0.2618 0 0 0.2618 0.00148 0 0.2618 0.00296 0 0.2618 0.00444 0 0.2618 0.00592 0 0.2618 0.0074 0 0.2618 0.00888 0 0.2618 0.01036 0 0.2618 0.01184 0 0.2618 0.01332 0 0.2618 0.0148 0 0.2618 0.01628 0 0.2618 0.01776 0 0.2618 0.01924 0 0.2618 0.02072 0 0.2618 0.0222 0 0.262533 0 0 0.262533 0.00145333 0 0.262533 0.00290667 0 0.262533 0.00436 0 0.262533 0.00581333 0 0.262533 0.00726667 0 0.262533 0.00872 0 0.262533 0.0101733 0 0.262533 0.0116267 0 0.262533 0.01308 0 0.262533 0.0145333 0 0.262533 0.0159867 0 0.262533 0.01744 0 0.262533 0.0188933 0 0.262533 0.0203467 0 0.262533 0.0218 0 0.263267 0 0 0.263267 0.00142667 0 0.263267 0.00285333 0 0.263267 0.00428 0 0.263267 0.00570667 0 0.263267 0.00713333 0 0.263267 0.00856 0 0.263267 0.00998667 0 0.263267 0.0114133 0 0.263267 0.01284 0 0.263267 0.0142667 0 0.263267 0.0156933 0 0.263267 0.01712 0 0.263267 0.0185467 0 0.263267 0.0199733 0 0.263267 0.0214 0 0.264 0 0 0.264 0.0014 0 0.264 0.0028 0 0.264 0.0042 0 0.264 0.0056 0 0.264 0.007 0 0.264 0.0084 0 0.264 0.0098 0 0.264 0.0112 0 0.264 0.0126 0 0.264 0.014 0 0.264 0.0154 0 0.264 0.0168 0 0.264 0.0182 0 0.264 0.0196 0 0.264 0.021 0 
</DataArray>
</Points> 
</Piece> 
</StructuredGrid> 
</VTKFile> 
