<?xml version="1.0"?> 
<VTKFile type="StructuredGrid" version="0.1"> 
<StructuredGrid WholeExtent="0 15 0 15 0 0"> 
<Piece Extent="0 15 0 15 0 0"> 
<PointData>
<DataArray type="Float32" Name="E" format="ascii" NumberOfComponents="3"> 
-1.27537e+06 1.35293e+06 0 -1.33303e+06 1.48308e+06 0 -1.36467e+06 1.65397e+06 0 -1.35012e+06 1.85346e+06 0 -1.27802e+06 2.0563e+06 0 -1.1545e+06 2.23502e+06 0 -999898 2.37297e+06 0 -836822 2.46874e+06 0 -681111 2.5308e+06 0 -540263 2.57024e+06 0 -416098 2.59651e+06 0 -307722 2.61644e+06 0 -213380 2.6346e+06 0 -131351 2.65402e+06 0 -60275.4 2.67683e+06 0 903.187 2.70446e+06 0 -1.32343e+06 1.35062e+06 0 -1.38616e+06 1.48486e+06 0 -1.42183e+06 1.66097e+06 0 -1.40936e+06 1.86651e+06 0 -1.33723e+06 2.07545e+06 0 -1.21186e+06 2.25939e+06 0 -1.05424e+06 2.4009e+06 0 -887875 2.49837e+06 0 -729330 2.56055e+06 0 -586468 2.59892e+06 0 -461184 2.62324e+06 0 -352493 2.64048e+06 0 -258485 2.65518e+06 0 -177250 2.67022e+06 0 -107261 2.68741e+06 0 -47253.5 2.708e+06 0 -1.3769e+06 1.34583e+06 0 -1.4452e+06 1.48483e+06 0 -1.48504e+06 1.66703e+06 0 -1.47473e+06 1.87953e+06 0 -1.40248e+06 2.09551e+06 0 -1.2749e+06 2.28553e+06 0 -1.11372e+06 2.43133e+06 0 -943432 2.53102e+06 0 -781401 2.59363e+06 0 -635925 2.63112e+06 0 -508986 2.65365e+06 0 -399499 2.66838e+06 0 -305384 2.67992e+06 0 -224537 2.69107e+06 0 -155227 2.70348e+06 0 -96007 2.71812e+06 0 -1.43696e+06 1.33801e+06 0 -1.51121e+06 1.48264e+06 0 -1.55546e+06 1.67192e+06 0 -1.5474e+06 1.89245e+06 0 -1.47493e+06 2.11658e+06 0 -1.34476e+06 2.31374e+06 0 -1.17939e+06 2.46471e+06 0 -1.0044e+06 2.56726e+06 0 -838104 2.6307e+06 0 -689293 2.66754e+06 0 -560067 2.68843e+06 0 -449236 2.70085e+06 0 -354527 2.7095e+06 0 -273633 2.71719e+06 0 -204608 2.72551e+06 0 -145857 2.73527e+06 0 -1.50489e+06 1.32652e+06 0 -1.58553e+06 1.47782e+06 0 -1.63448e+06 1.67535e+06 0 -1.62882e+06 1.90517e+06 0 -1.55601e+06 2.13876e+06 0 -1.42284e+06 2.34434e+06 0 -1.25255e+06 2.50158e+06 0 -1.07194e+06 2.60781e+06 0 -900412 2.6726e+06 0 -747384 2.70908e+06 0 -615108 2.72851e+06 0 -502284 2.73877e+06 0 -406430 2.74478e+06 0 -325015 2.7494e+06 0 -255874 2.7542e+06 0 -197232 2.75996e+06 0 -1.58241e+06 1.3105e+06 0 -1.66992e+06 1.46978e+06 0 -1.7239e+06 1.67691e+06 0 -1.72083e+06 1.91749e+06 0 -1.64762e+06 2.16214e+06 0 -1.51098e+06 2.37774e+06 0 -1.33491e+06 2.54267e+06 0 -1.14756e+06 2.65362e+06 0 -969618 2.72042e+06 0 -811269 2.75692e+06 0 -674990 2.7751e+06 0 -559378 2.78336e+06 0 -461723 2.78692e+06 0 -379237 2.78879e+06 0 -309538 2.79056e+06 0 -250623 2.79304e+06 0 -1.67173e+06 1.28892e+06 0 -1.76663e+06 1.45773e+06 0 -1.82605e+06 1.67605e+06 0 -1.82586e+06 1.92915e+06 0 -1.75222e+06 2.1868e+06 0 -1.61163e+06 2.41442e+06 0 -1.42878e+06 2.58885e+06 0 -1.23332e+06 2.70593e+06 0 -1.04746e+06 2.77565e+06 0 -882380 2.81267e+06 0 -740876 2.82985e+06 0 -621465 2.83626e+06 0 -521180 2.83754e+06 0 -436958 2.83689e+06 0 -366148 2.83604e+06 0 -306545 2.83579e+06 0 -1.77578e+06 1.26046e+06 0 -1.87858e+06 1.44057e+06 0 -1.944e+06 1.67195e+06 0 -1.9471e+06 1.93971e+06 0 -1.87314e+06 2.21277e+06 0 -1.72812e+06 2.45496e+06 0 -1.53735e+06 2.64127e+06 0 -1.33207e+06 2.76638e+06 0 -1.13637e+06 2.84029e+06 0 -962694 2.87854e+06 0 -814340 2.89506e+06 0 -689786 2.89977e+06 0 -585786 2.89887e+06 0 -498944 2.89588e+06 0 -426349 2.89266e+06 0 -365429 2.89014e+06 0 -1.89837e+06 1.22334e+06 0 -2.00971e+06 1.41677e+06 0 -2.08187e+06 1.66343e+06 0 -2.08893e+06 1.94843e+06 0 -2.01492e+06 2.23991e+06 0 -1.86508e+06 2.49999e+06 0 -1.66508e+06 2.70142e+06 0 -1.44788e+06 2.83723e+06 0 -1.23982e+06 2.91718e+06 0 -1.05503e+06 2.9577e+06 0 -897592 2.97405e+06 0 -766030 2.97724e+06 0 -656811 2.97421e+06 0 -566145 2.96893e+06 0 -490747 2.96351e+06 0 -427845 2.95892e+06 0 -2.04455e+06 1.17503e+06 0 -2.16532e+06 1.38406e+06 0 -2.24532e+06 1.64864e+06 0 -2.25736e+06 1.95407e+06 0 -2.18398e+06 2.2678e+06 0 -2.02915e+06 2.55015e+06 0 -1.81852e+06 2.77117e+06 0 -1.5868e+06 2.92159e+06 0 -1.36301e+06 3.0104e+06 0 -1.16359e+06 3.05488e+06 0 -993862 3.07182e+06 0 -852584 3.07372e+06 0 -735925 3.06855e+06 0 -639660 3.06088e+06 0 -560069 3.05318e+06 0 -493786 3.04671e+06 0 -2.2211e+06 1.11163e+06 0 -2.35278e+06 1.33884e+06 0 -2.44232e+06 1.62461e+06 0 -2.46102e+06 1.95447e+06 0 -2.38959e+06 2.29537e+06 0 -2.23014e+06 2.60587e+06 0 -2.00761e+06 2.85288e+06 0 -1.75821e+06 3.02381e+06 0 -1.51412e+06 3.12603e+06 0 -1.295e+06 3.17731e+06 0 -1.10814e+06 3.19624e+06 0 -952966 3.19726e+06 0 -825448 3.18985e+06 0 -720748 3.17954e+06 0 -634619 3.16915e+06 0 -563361 3.1601e+06 0 -2.43759e+06 1.0265e+06 0 -2.58277e+06 1.27519e+06 0 -2.68453e+06 1.58632e+06 0 -2.7126e+06 1.94568e+06 0 -2.64565e+06 2.32013e+06 0 -2.48313e+06 2.66684e+06 0 -2.24809e+06 2.94916e+06 0 -1.97744e+06 3.14994e+06 0 -1.70688e+06 3.27332e+06 0 -1.46045e+06 3.3367e+06 0 -1.24874e+06 3.36046e+06 0 -1.07269e+06 3.36153e+06 0 -928471 3.35158e+06 0 -810744 3.33781e+06 0 -714326 3.32421e+06 0 -634485 3.31256e+06 0 -2.70815e+06 907717 0 -2.87143e+06 1.18268e+06 0 -2.98962e+06 1.52482e+06 0 -3.0315e+06 1.9202e+06 0 -2.97378e+06 2.33647e+06 0 -2.81229e+06 2.73045e+06 0 -2.56623e+06 3.06208e+06 0 -2.2713e+06 3.3081e+06 0 -1.96621e+06 3.4668e+06 0 -1.68077e+06 3.55291e+06 0 -1.43115e+06 3.58787e+06 0 -1.22167e+06 3.59174e+06 0 -1.04952e+06 3.57936e+06 0 -909083 3.56011e+06 0 -794674 3.53949e+06 0 -700941 3.52092e+06 0 -3.05676e+06 733043 0 -3.24496e+06 1.04225e+06 0 -3.38593e+06 1.42335e+06 0 -3.4488e+06 1.86304e+06 0 -3.40915e+06 2.33152e+06 0 -3.25826e+06 2.78768e+06 0 -3.00843e+06 3.18961e+06 0 -2.69003e+06 3.50701e+06 0 -2.34178e+06 3.72849e+06 0 -1.99942e+06 3.86102e+06 0 -1.6881e+06 3.92341e+06 0 -1.42026e+06 3.93826e+06 0 -1.19776e+06 3.92576e+06 0 -1.01585e+06 3.90057e+06 0 -867064 3.87129e+06 0 -743507 3.8413e+06 0 -3.52389e+06 458993 0 -3.74745e+06 816633 0 -3.9205e+06 1.24814e+06 0 -4.01636e+06 1.74201e+06 0 -4.01182e+06 2.27442e+06 0 -3.89357e+06 2.81131e+06 0 -3.66316e+06 3.31405e+06 0 -3.33797e+06 3.74754e+06 0 -2.94755e+06 4.08765e+06 0 -2.52686e+06 4.32496e+06 0 -2.10911e+06 4.46418e+06 0 -1.72063e+06 4.52034e+06 0 -1.37864e+06 4.51397e+06 0 -1.0915e+06 4.46686e+06 0 -860525 4.39949e+06 0 -681604 4.33001e+06 0 -4.19837e+06 -5.96046e-07 0 -4.4657e+06 430410 0 -4.68123e+06 927502 0 -4.82799e+06 1.48402e+06 0 -4.8895e+06 2.0875e+06 0 -4.85125e+06 2.7199e+06 0 -4.70259e+06 3.35786e+06 0 -4.43886e+06 3.97388e+06 0 -4.06322e+06 4.53865e+06 0 -3.58751e+06 5.02421e+06 0 -3.03156e+06 5.40713e+06 0 -2.42101e+06 5.67066e+06 0 -1.78447e+06 5.80543e+06 0 -1.15088e+06 5.80867e+06 0 -547676 5.68239e+06 0 5.96046e-07 5.431e+06 0 </DataArray> 
</PointData> 
<Points> 
<DataArray type="Float32" NumberOfComponents="3"> 
0.19 0.055 0 0.192667 0.0598667 0 0.195333 0.0647333 0 0.198 0.0696 0 0.200667 0.0744667 0 0.203333 0.0793333 0 0.206 0.0842 0 0.208667 0.0890667 0 0.211333 0.0939333 0 0.214 0.0988 0 0.216667 0.103667 0 0.219333 0.108533 0 0.222 0.1134 0 0.224667 0.118267 0 0.227333 0.123133 0 0.23 0.128 0 0.192 0.055 0 0.19443 0.0596151 0 0.196885 0.064247 0 0.199364 0.068891 0 0.201864 0.0735423 0 0.204383 0.078196 0 0.206917 0.0828473 0 0.209465 0.0874912 0 0.212023 0.0921229 0 0.214589 0.0967375 0 0.217161 0.10133 0 0.219734 0.105896 0 0.222308 0.110431 0 0.224878 0.114929 0 0.227443 0.119387 0 0.23 0.1238 0 0.194 0.055 0 0.196201 0.0593622 0 0.198451 0.0637562 0 0.200746 0.068173 0 0.203081 0.0726035 0 0.205451 0.0770386 0 0.207852 0.0814687 0 0.210279 0.0858845 0 0.212727 0.0902765 0 0.21519 0.0946355 0 0.217663 0.0989523 0 0.220141 0.103218 0 0.222619 0.107423 0 0.225092 0.111561 0 0.227554 0.115622 0 0.23 0.1196 0 0.196 0.055 0 0.197982 0.0591082 0 0.200032 0.0632609 0 0.202145 0.0674458 0 0.204316 0.0716501 0 0.206538 0.0758605 0 0.208805 0.0800636 0 0.21111 0.0842456 0 0.213444 0.0883932 0 0.215802 0.092493 0 0.218175 0.096532 0 0.220555 0.100498 0 0.222935 0.104378 0 0.225307 0.108162 0 0.227665 0.111839 0 0.23 0.1154 0 0.198 0.055 0 0.199771 0.0588528 0 0.201627 0.0627611 0 0.203563 0.0667094 0 0.205571 0.0706817 0 0.207645 0.0746613 0 0.209777 0.078631 0 0.211957 0.0825736 0 0.214177 0.0864718 0 0.216426 0.0903088 0 0.218695 0.0940683 0 0.220975 0.0977348 0 0.223255 0.101294 0 0.225525 0.104732 0 0.227776 0.108038 0 0.23 0.1112 0 0.2 0.055 0 0.201569 0.0585963 0 0.203237 0.0622566 0 0.204998 0.0659634 0 0.206846 0.0696979 0 0.208772 0.0734403 0 0.210767 0.0771703 0 0.212822 0.0808674 0 0.214924 0.0845112 0 0.217062 0.0880817 0 0.219226 0.0915599 0 0.221402 0.094928 0 0.223578 0.0981696 0 0.225744 0.10127 0 0.227888 0.104217 0 0.23 0.107 0 0.202 0.055 0 0.203375 0.0583384 0 0.204861 0.0617475 0 0.206452 0.0652078 0 0.208141 0.0686984 0 0.20992 0.072197 0 0.211778 0.0756806 0 0.213704 0.079126 0 0.215686 0.08251 0 0.217711 0.0858103 0 0.219766 0.0890055 0 0.221835 0.0920762 0 0.223906 0.0950049 0 0.225966 0.0977764 0 0.228001 0.100378 0 0.23 0.1028 0 0.204 0.055 0 0.205191 0.0580793 0 0.206501 0.0612336 0 0.207925 0.0644423 0 0.209457 0.0676827 0 0.211088 0.0709306 0 0.212808 0.074161 0 0.214605 0.0773483 0 0.216465 0.0804672 0 0.218373 0.0834933 0 0.220315 0.086404 0 0.222276 0.0891785 0 0.224239 0.0917988 0 0.22619 0.0942499 0 0.228114 0.0965198 0 0.23 0.0986 0 0.206 0.055 0 0.207016 0.0578189 0 0.208156 0.0607149 0 0.209418 0.0636667 0 0.210795 0.0666505 0 0.212279 0.0696407 0 0.21386 0.0726107 0 0.215525 0.0755331 0 0.217259 0.0783812 0 0.219049 0.0811294 0 0.220876 0.0837539 0 0.222723 0.0862336 0 0.224575 0.0885506 0 0.226415 0.0906904 0 0.228228 0.0926425 0 0.23 0.0944 0 0.208 0.055 0 0.208849 0.0575572 0 0.209827 0.0601914 0 0.21093 0.0628808 0 0.212154 0.0656013 0 0.213492 0.0683265 0 0.214933 0.0710285 0 0.216464 0.0736792 0 0.218071 0.0762509 0 0.219738 0.0787171 0 0.221446 0.0810539 0 0.223178 0.0832404 0 0.224916 0.0852593 0 0.226643 0.0870975 0 0.228342 0.088746 0 0.23 0.0902 0 0.21 0.055 0 0.210692 0.0572942 0 0.211513 0.0596629 0 0.212462 0.0620845 0 0.213536 0.0645348 0 0.214728 0.0669873 0 0.216028 0.0694137 0 0.217424 0.0717855 0 0.218901 0.0740746 0 0.220441 0.0762549 0 0.222028 0.0783026 0 0.223641 0.0801977 0 0.225262 0.0819242 0 0.226873 0.0834706 0 0.228457 0.08483 0 0.23 0.086 0 0.212 0.055 0 0.212544 0.0570299 0 0.213216 0.0591293 0 0.214015 0.0612775 0 0.214941 0.0634506 0 0.215987 0.0656224 0 0.217146 0.0677651 0 0.218404 0.0698504 0 0.219748 0.071851 0 0.22116 0.0737412 0 0.222621 0.0754985 0 0.224111 0.0771042 0 0.225612 0.0785443 0 0.227105 0.0798092 0 0.228573 0.0808945 0 0.23 0.0818 0 0.214 0.055 0 0.214406 0.0567643 0 0.214935 0.0585907 0 0.215589 0.0604596 0 0.21637 0.0623481 0 0.217271 0.064231 0 0.218287 0.0660817 0 0.219406 0.0678729 0 0.220614 0.0695785 0 0.221893 0.0711744 0 0.223225 0.0726401 0 0.224589 0.0739588 0 0.225967 0.0751187 0 0.22734 0.0761129 0 0.228689 0.0769392 0 0.23 0.0776 0 0.216 0.055 0 0.216276 0.0564973 0 0.21667 0.0580469 0 0.217185 0.0596305 0 0.217822 0.0612269 0 0.218581 0.0628125 0 0.219453 0.0643623 0 0.220431 0.0658513 0 0.221499 0.0672553 0 0.222642 0.0685529 0 0.223841 0.0697257 0 0.225076 0.07076 0 0.226327 0.0716466 0 0.227576 0.0723812 0 0.228806 0.0729642 0 0.23 0.0734 0 0.218 0.055 0 0.218157 0.056229 0 0.218422 0.0574979 0 0.218802 0.0587901 0 0.2193 0.0600865 0 0.219916 0.0613659 0 0.220645 0.0626058 0 0.221478 0.0637842 0 0.222404 0.06488 0 0.223407 0.0658748 0 0.224469 0.0667538 0 0.22557 0.0675065 0 0.226692 0.0681269 0 0.227815 0.0686135 0 0.228923 0.0689691 0 0.23 0.0692 0 0.22 0.055 0 0.220046 0.0559594 0 0.220191 0.0569435 0 0.220441 0.0579381 0 0.220803 0.0589265 0 0.221277 0.0598904 0 0.221862 0.0608111 0 0.222549 0.0616701 0 0.22333 0.0624505 0 0.224189 0.0631383 0 0.22511 0.0637226 0 0.226074 0.0641969 0 0.227062 0.0645586 0 0.228056 0.0648093 0 0.229041 0.0649539 0 0.23 0.065 0 
</DataArray>
</Points> 
</Piece> 
</StructuredGrid> 
</VTKFile> 
