<?xml version="1.0"?> 
<VTKFile type="StructuredGrid" version="0.1"> 
<StructuredGrid WholeExtent="0 15 0 15 0 0"> 
<Piece Extent="0 15 0 15 0 0"> 
<PointData>
<DataArray type="Float32" Name="E" format="ascii" NumberOfComponents="3"> 
317129 4.65744e+06 0 911634 4.00692e+06 0 979336 3.60489e+06 0 952948 3.32795e+06 0 888322 3.12711e+06 0 809823 2.97537e+06 0 726063 2.85759e+06 0 640987 2.76449e+06 0 556397 2.69019e+06 0 473066 2.63077e+06 0 391258 2.58361e+06 0 310955 2.54689e+06 0 231977 2.51936e+06 0 154051 2.50017e+06 0 76845.4 2.48879e+06 0 0 2.48488e+06 0 636094 4.89352e+06 0 1.06776e+06 4.04282e+06 0 1.10987e+06 3.59638e+06 0 1.0598e+06 3.29194e+06 0 978795 3.07695e+06 0 887432 2.91518e+06 0 793230 2.79021e+06 0 699329 2.69136e+06 0 606942 2.61217e+06 0 516449 2.54834e+06 0 427809 2.49695e+06 0 340764 2.45597e+06 0 254936 2.42397e+06 0 169873 2.39994e+06 0 85075.8 2.38315e+06 0 0 2.37315e+06 0 977378 5.04573e+06 0 1.25138e+06 4.06357e+06 0 1.24984e+06 3.56896e+06 0 1.17151e+06 3.242e+06 0 1.07123e+06 3.01373e+06 0 965326 2.84337e+06 0 859627 2.71201e+06 0 756169 2.60802e+06 0 655503 2.52432e+06 0 557553 2.45623e+06 0 461958 2.40059e+06 0 368221 2.35517e+06 0 275778 2.31834e+06 0 184026 2.28892e+06 0 92325.7 2.26602e+06 0 0 2.24894e+06 0 1.33261e+06 5.13117e+06 0 1.45279e+06 4.05813e+06 0 1.39539e+06 3.52218e+06 0 1.28471e+06 3.17666e+06 0 1.16283e+06 2.9375e+06 0 1.04114e+06 2.76012e+06 0 923179 2.62348e+06 0 809711 2.51509e+06 0 700517 2.42736e+06 0 595030 2.3553e+06 0 492557 2.29551e+06 0 392376 2.24558e+06 0 293756 2.20371e+06 0 195975 2.16855e+06 0 98303.7 2.13901e+06 0 0 2.11421e+06 0 1.69505e+06 5.15928e+06 0 1.66291e+06 4.0229e+06 0 1.54207e+06 3.45569e+06 0 1.39594e+06 3.09617e+06 0 1.25091e+06 2.849e+06 0 1.11267e+06 2.66641e+06 0 982066 2.52574e+06 0 858424 2.4138e+06 0 740695 2.32259e+06 0 627798 2.2469e+06 0 518716 2.18314e+06 0 412512 2.12874e+06 0 308323 2.08176e+06 0 205346 2.04068e+06 0 102817 2.00426e+06 0 0 1.97141e+06 0 2.05877e+06 5.13619e+06 0 1.8739e+06 3.95809e+06 0 1.68546e+06 3.37043e+06 0 1.50202e+06 3.0019e+06 0 1.33313e+06 2.74979e+06 0 1.1781e+06 2.5639e+06 0 1.03484e+06 2.42046e+06 0 901152 2.30581e+06 0 775106 2.2117e+06 0 655115 2.13275e+06 0 539849 2.06526e+06 0 428190 2.00651e+06 0 319172 1.95447e+06 0 211952 1.90748e+06 0 105784 1.86417e+06 0 0 1.82331e+06 0 2.41843e+06 5.06656e+06 0 2.07953e+06 3.86613e+06 0 1.82177e+06 3.26856e+06 0 1.60045e+06 2.89611e+06 0 1.40773e+06 2.64204e+06 0 1.23617e+06 2.45466e+06 0 1.0806e+06 2.30964e+06 0 937217 2.19306e+06 0 803258 2.09659e+06 0 676632 2.01476e+06 0 555731 1.94378e+06 0 439281 1.88089e+06 0 326252 1.82395e+06 0 215801 1.77122e+06 0 107236 1.72127e+06 0 0 1.67275e+06 0 2.76918e+06 4.95448e+06 0 2.27507e+06 3.75061e+06 0 1.9482e+06 3.15306e+06 0 1.68954e+06 2.7815e+06 0 1.47368e+06 2.52821e+06 0 1.28625e+06 2.34098e+06 0 1.11895e+06 2.19539e+06 0 966428 2.07757e+06 0 825086 1.9792e+06 0 692382 1.89482e+06 0 566463 1.82064e+06 0 445937 1.75384e+06 0 329742 1.69227e+06 0 217065 1.63414e+06 0 107294 1.57798e+06 0 0 1.52243e+06 0 3.10673e+06 4.80391e+06 0 2.45721e+06 3.61575e+06 0 2.063e+06 3.02731e+06 0 1.76841e+06 2.66096e+06 0 1.53062e+06 2.41081e+06 0 1.32826e+06 2.22508e+06 0 1.15001e+06 2.07975e+06 0 989011 1.96123e+06 0 840888 1.86135e+06 0 702704 1.77472e+06 0 572405 1.69761e+06 0 448519 1.62721e+06 0 329981 1.56136e+06 0 216027 1.49827e+06 0 106137 1.43649e+06 0 0 1.37473e+06 0 3.42733e+06 4.61888e+06 0 2.6239e+06 3.46588e+06 0 2.16539e+06 2.89471e+06 0 1.83695e+06 2.53727e+06 0 1.57876e+06 2.29218e+06 0 1.36263e+06 2.10898e+06 0 1.17429e+06 1.96453e+06 0 1.00551e+06 1.84571e+06 0 851218 1.7446e+06 0 708146 1.65601e+06 0 574086 1.57625e+06 0 447522 1.50259e+06 0 327405 1.43287e+06 0 213033 1.36538e+06 0 103968 1.2987e+06 0 0 1.23164e+06 0 3.72785e+06 4.40347e+06 0 2.77419e+06 3.30522e+06 0 2.25537e+06 2.7584e+06 0 1.89561e+06 2.4129e+06 0 1.61878e+06 2.17432e+06 0 1.39008e+06 1.99439e+06 0 1.19254e+06 1.85123e+06 0 1.01666e+06 1.73237e+06 0 856783 1.63028e+06 0 709373 1.53996e+06 0 572120 1.45785e+06 0 443494 1.38129e+06 0 322482 1.3082e+06 0 208436 1.23691e+06 0 100990 1.1661e+06 0 0 1.09473e+06 0 4.00577e+06 4.16183e+06 0 2.90797e+06 3.13765e+06 0 2.33357e+06 2.6211e+06 0 1.94524e+06 2.28992e+06 0 1.6516e+06 2.05889e+06 0 1.41156e+06 1.88267e+06 0 1.20565e+06 1.74102e+06 0 1.02329e+06 1.62228e+06 0 858348 1.51938e+06 0 707081 1.42757e+06 0 567132 1.34343e+06 0 436984 1.26438e+06 0 315665 1.18842e+06 0 202578 1.11399e+06 0 97395.5 1.03986e+06 0 0 965166 0 4.25914e+06 3.8981e+06 0 3.02581e+06 2.96654e+06 0 2.40098e+06 2.48504e+06 0 1.98696e+06 2.16997e+06 0 1.67832e+06 1.94711e+06 0 1.42805e+06 1.7748e+06 0 1.21453e+06 1.63475e+06 0 1.02624e+06 1.51622e+06 0 856662 1.41265e+06 0 701940 1.31957e+06 0 559712 1.23373e+06 0 428499 1.15263e+06 0 307372 1.07437e+06 0 195763 997455 0 93352.9 920808 0 0 843722 0 4.48661e+06 3.61632e+06 0 3.12874e+06 2.79474e+06 0 2.45883e+06 2.35197e+06 0 2.02196e+06 2.05425e+06 0 1.70004e+06 1.83986e+06 0 1.44057e+06 1.67147e+06 0 1.22009e+06 1.53299e+06 0 1.0263e+06 1.41469e+06 0 852419 1.31058e+06 0 694554 1.21649e+06 0 550384 1.1293e+06 0 418488 1.04662e+06 0 297970 966603 0 188265 887869 0 89013.8 809460 0 0 730847 0 4.68732e+06 3.32043e+06 0 3.21809e+06 2.62452e+06 0 2.50842e+06 2.22315e+06 0 2.05144e+06 1.94361e+06 0 1.71784e+06 1.73772e+06 0 1.45004e+06 1.57311e+06 0 1.22314e+06 1.4361e+06 0 1.02417e+06 1.31802e+06 0 846222 1.2135e+06 0 685444 1.11865e+06 0 539599 1.03049e+06 0 407336 946705 0 287778 865494 0 180320 785560 0 84515.2 706080 0 0 626684 0 4.8609e+06 3.01416e+06 0 3.29537e+06 2.45758e+06 0 2.55109e+06 2.09944e+06 0 2.07657e+06 1.83855e+06 0 1.73272e+06 1.64097e+06 0 1.4573e+06 1.47992e+06 0 1.22442e+06 1.3442e+06 0 1.02046e+06 1.22633e+06 0 838596 1.12154e+06 0 675052 1.02622e+06 0 527743 937505 0 395379 853094 0 277081 771222 0 172147 690644 0 80000.5 610703 0 0 531059 0 </DataArray> 
</PointData> 
<Points> 
<DataArray type="Float32" NumberOfComponents="3"> 
0.305 0.0600551 0 0.305 0.0645847 0 0.305 0.0691144 0 0.305 0.0736441 0 0.305 0.0781737 0 0.305 0.0827034 0 0.305 0.0872331 0 0.305 0.0917627 0 0.305 0.0962924 0 0.305 0.100822 0 0.305 0.105352 0 0.305 0.109881 0 0.305 0.114411 0 0.305 0.118941 0 0.305 0.12347 0 0.305 0.128 0 0.305983 0.0599578 0 0.306335 0.0645528 0 0.306687 0.0691392 0 0.307038 0.0737172 0 0.307388 0.0782867 0 0.307738 0.0828478 0 0.308087 0.0874005 0 0.308436 0.0919448 0 0.308783 0.0964807 0 0.30913 0.101008 0 0.309477 0.105528 0 0.309823 0.110039 0 0.310168 0.114541 0 0.310513 0.119036 0 0.310857 0.123522 0 0.3112 0.128 0 0.306971 0.0597981 0 0.307683 0.0644556 0 0.308393 0.0690969 0 0.3091 0.0737222 0 0.309805 0.0783314 0 0.310507 0.0829247 0 0.311207 0.0875022 0 0.311905 0.0920639 0 0.3126 0.09661 0 0.313293 0.10114 0 0.313983 0.105655 0 0.314671 0.110155 0 0.315357 0.114639 0 0.31604 0.119108 0 0.316721 0.123561 0 0.3174 0.128 0 0.307957 0.0595746 0 0.309036 0.0642916 0 0.310109 0.0689856 0 0.311177 0.073657 0 0.31224 0.0783058 0 0.313297 0.0829322 0 0.31435 0.0875364 0 0.315397 0.0921185 0 0.31644 0.0966787 0 0.317477 0.101217 0 0.31851 0.105734 0 0.319538 0.11023 0 0.32056 0.114704 0 0.321578 0.119157 0 0.322592 0.123589 0 0.3236 0.128 0 0.308937 0.0592868 0 0.310386 0.0640597 0 0.311827 0.0688041 0 0.313259 0.0735202 0 0.314682 0.0782084 0 0.316097 0.0828688 0 0.317504 0.0875017 0 0.318902 0.0921074 0 0.320292 0.0966861 0 0.321674 0.101238 0 0.323048 0.105763 0 0.324414 0.110262 0 0.325773 0.114735 0 0.327123 0.119182 0 0.328465 0.123604 0 0.3298 0.128 0 0.309903 0.0589349 0 0.311726 0.0637598 0 0.313537 0.0685518 0 0.315335 0.0733112 0 0.317122 0.0780383 0 0.318896 0.0827336 0 0.320658 0.0873973 0 0.322408 0.0920297 0 0.324147 0.0966312 0 0.325874 0.101202 0 0.32759 0.105742 0 0.329294 0.110253 0 0.330987 0.114734 0 0.332669 0.119185 0 0.33434 0.123607 0 0.336 0.128 0 0.31085 0.0585197 0 0.313048 0.0633923 0 0.315231 0.0682289 0 0.317397 0.0730298 0 0.319547 0.0777955 0 0.321682 0.0825264 0 0.323801 0.0872228 0 0.325905 0.0918851 0 0.327993 0.0965137 0 0.330067 0.101109 0 0.332125 0.105671 0 0.334169 0.110201 0 0.336198 0.114698 0 0.338213 0.119164 0 0.340214 0.123597 0 0.3422 0.128 0 0.311771 0.0580433 0 0.314344 0.0629587 0 0.316898 0.0678364 0 0.319433 0.0726767 0 0.321948 0.0774802 0 0.324444 0.0822473 0 0.326921 0.0869782 0 0.32938 0.0916736 0 0.33182 0.0963337 0 0.334241 0.100959 0 0.336645 0.10555 0 0.339031 0.110106 0 0.341399 0.114629 0 0.34375 0.119119 0 0.346084 0.123576 0 0.3484 0.128 0 0.31266 0.057508 0 0.315607 0.062461 0 0.318531 0.067376 0 0.321433 0.0722534 0 0.324313 0.0770937 0 0.327171 0.0818972 0 0.330007 0.0866644 0 0.332822 0.0913956 0 0.335616 0.0960914 0 0.338388 0.100752 0 0.341141 0.105378 0 0.343873 0.109969 0 0.346584 0.114527 0 0.349276 0.119051 0 0.351948 0.123542 0 0.3546 0.128 0 0.313512 0.0569172 0 0.316828 0.0619022 0 0.32012 0.0668503 0 0.323388 0.0717619 0 0.326631 0.0766375 0 0.329851 0.0814775 0 0.333047 0.0862823 0 0.33622 0.0910521 0 0.339371 0.0957875 0 0.342498 0.100489 0 0.345603 0.105156 0 0.348686 0.10979 0 0.351747 0.114391 0 0.354786 0.11896 0 0.357804 0.123496 0 0.3608 0.128 0 0.314322 0.056275 0 0.318002 0.0612857 0 0.321657 0.0662622 0 0.325287 0.071205 0 0.328893 0.0761142 0 0.332474 0.0809903 0 0.336031 0.0858336 0 0.339564 0.0906444 0 0.343074 0.0954231 0 0.34656 0.10017 0 0.350023 0.104885 0 0.353464 0.109569 0 0.356881 0.114223 0 0.360276 0.118845 0 0.363649 0.123438 0 0.367 0.128 0 0.315085 0.0555859 0 0.319122 0.0606158 0 0.323134 0.0656157 0 0.327123 0.0705859 0 0.331088 0.0755265 0 0.33503 0.080438 0 0.338948 0.0853204 0 0.342843 0.0901742 0 0.346716 0.0949994 0 0.350566 0.0997965 0 0.354393 0.104566 0 0.358198 0.109307 0 0.361981 0.114021 0 0.365742 0.118708 0 0.369482 0.123367 0 0.3732 0.128 0 0.315798 0.0548549 0 0.320182 0.0598972 0 0.324546 0.064915 0 0.328888 0.0699086 0 0.333209 0.074878 0 0.337509 0.0798236 0 0.341789 0.0847453 0 0.346048 0.0896435 0 0.350287 0.0945183 0 0.354505 0.0993698 0 0.358704 0.104198 0 0.362882 0.109004 0 0.367041 0.113787 0 0.37118 0.118547 0 0.3753 0.123285 0 0.3794 0.128 0 0.316457 0.0540875 0 0.321179 0.059135 0 0.325884 0.0641649 0 0.330573 0.0691775 0 0.335246 0.0741726 0 0.339903 0.0791505 0 0.344544 0.0841113 0 0.349168 0.089055 0 0.353777 0.0939816 0 0.35837 0.0988914 0 0.362947 0.103784 0 0.367509 0.108661 0 0.372055 0.11352 0 0.376585 0.118363 0 0.3811 0.12319 0 0.3856 0.128 0 0.317061 0.0532894 0 0.322108 0.0583347 0 0.327146 0.0633706 0 0.332174 0.0683972 0 0.337194 0.0734146 0 0.342204 0.0784227 0 0.347204 0.0834215 0 0.352196 0.0884112 0 0.357178 0.0933917 0 0.362152 0.098363 0 0.367116 0.103325 0 0.372071 0.108278 0 0.377017 0.113222 0 0.381953 0.118157 0 0.386881 0.123083 0 0.3918 0.128 0 0.317607 0.0524662 0 0.322966 0.0575018 0 0.328326 0.0625374 0 0.333685 0.067573 0 0.339045 0.0726086 0 0.344405 0.0776442 0 0.349764 0.0826797 0 0.355124 0.0877153 0 0.360483 0.0927509 0 0.365843 0.0977865 0 0.371202 0.102822 0 0.376562 0.107858 0 0.381921 0.112893 0 0.387281 0.117929 0 0.39264 0.122964 0 0.398 0.128 0 
</DataArray>
</Points> 
</Piece> 
</StructuredGrid> 
</VTKFile> 
