<?xml version="1.0"?> 
<VTKFile type="StructuredGrid" version="0.1"> 
<StructuredGrid WholeExtent="0 15 0 15 0 0"> 
<Piece Extent="0 15 0 15 0 0"> 
<PointData>
<DataArray type="Float32" Name="E" format="ascii" NumberOfComponents="3"> 
-530850 93494.6 0 -521006 101720 0 -512641 102816 0 -504286 103068 0 -495775 102858 0 -487054 102598 0 -478141 102338 0 -469065 102118 0 -459855 101939 0 -450537 101802 0 -441133 101700 0 -431660 101628 0 -422132 101581 0 -412560 101556 0 -402953 101548 0 -393316 101555 0 -550708 211051 0 -540883 209361 0 -530953 208462 0 -521138 207631 0 -511440 206822 0 -501846 205990 0 -492329 205133 0 -482871 204252 0 -473452 203348 0 -464060 202425 0 -454684 201487 0 -445315 200534 0 -435948 199571 0 -426578 198598 0 -417202 197617 0 -407817 196628 0 -557551 321900 0 -549000 319982 0 -540408 317912 0 -531719 315838 0 -522942 313772 0 -514091 311718 0 -505182 309677 0 -496225 307645 0 -487230 305619 0 -478204 303599 0 -469153 301581 0 -460080 299563 0 -450988 297544 0 -441879 295522 0 -432755 293497 0 -423617 291466 0 -572843 428190 0 -564139 425517 0 -555422 422843 0 -546708 420144 0 -537991 417417 0 -529265 414661 0 -520525 411877 0 -511768 409066 0 -502990 406230 0 -494190 403370 0 -485368 400486 0 -476524 397580 0 -467658 394653 0 -458772 391705 0 -449866 388737 0 -440941 385749 0 -592567 534311 0 -583909 530925 0 -575226 527499 0 -566518 524030 0 -557786 520521 0 -549035 516973 0 -540268 513387 0 -531486 509765 0 -522692 506107 0 -513885 502413 0 -505068 498684 0 -496240 494920 0 -487401 491122 0 -478553 487291 0 -469694 483429 0 -460825 479532 0 -618333 640654 0 -609386 636491 0 -600440 632277 0 -591494 628019 0 -582547 623715 0 -573598 619365 0 -564647 614966 0 -555694 610521 0 -546737 606028 0 -537779 601488 0 -528819 596902 0 -519858 592270 0 -510896 587592 0 -501933 582867 0 -492972 578097 0 -484010 573287 0 -650373 747254 0 -641042 742367 0 -631711 737416 0 -622383 732394 0 -613058 727307 0 -603740 722156 0 -594429 716943 0 -585126 711668 0 -575833 706332 0 -566549 700935 0 -557277 695478 0 -548016 689963 0 -538767 684393 0 -529532 678769 0 -520309 673093 0 -511102 667351 0 -689912 853821 0 -679979 848257 0 -670055 842607 0 -660144 836879 0 -650248 831067 0 -640369 825170 0 -630507 819192 0 -620666 813133 0 -610847 806994 0 -601050 800779 0 -591279 794486 0 -581533 788116 0 -571814 781667 0 -562124 775139 0 -552462 768535 0 -542827 761885 0 -738655 958960 0 -727861 953008 0 -717088 946913 0 -706337 940676 0 -695611 934313 0 -684914 927827 0 -674248 921218 0 -663617 914491 0 -653023 907647 0 -642469 900691 0 -631956 893628 0 -621489 886464 0 -611068 879207 0 -600697 871861 0 -590377 864421 0 -580112 856836 0 -799466 1.06025e+06 0 -787459 1.05429e+06 0 -775462 1.04814e+06 0 -763491 1.0418e+06 0 -751559 1.03526e+06 0 -739670 1.02852e+06 0 -727831 1.02159e+06 0 -716048 1.01449e+06 0 -704326 1.00721e+06 0 -692668 999765 0 -681078 992153 0 -669558 984376 0 -658110 976436 0 -646734 968341 0 -635434 960118 0 -624215 951852 0 -876482 1.15311e+06 0 -862611 1.14833e+06 0 -848813 1.14309e+06 0 -835068 1.13743e+06 0 -821380 1.1314e+06 0 -807764 1.12504e+06 0 -794228 1.11834e+06 0 -780779 1.11133e+06 0 -767424 1.10403e+06 0 -754173 1.09645e+06 0 -741031 1.08863e+06 0 -728006 1.08057e+06 0 -715105 1.0723e+06 0 -702328 1.06381e+06 0 -689671 1.05509e+06 0 -677118 1.04604e+06 0 -978199 1.22586e+06 0 -961706 1.22441e+06 0 -945068 1.22219e+06 0 -928447 1.21925e+06 0 -911903 1.21558e+06 0 -895465 1.21123e+06 0 -879166 1.20624e+06 0 -863029 1.20065e+06 0 -847068 1.1945e+06 0 -831293 1.18782e+06 0 -815711 1.18065e+06 0 -800325 1.17301e+06 0 -785141 1.16494e+06 0 -770171 1.15648e+06 0 -755441 1.14768e+06 0 -740996 1.13867e+06 0 -1.11384e+06 1.25776e+06 0 -1.09365e+06 1.26466e+06 0 -1.07352e+06 1.2699e+06 0 -1.05322e+06 1.27337e+06 0 -1.03284e+06 1.27522e+06 0 -1.0125e+06 1.27566e+06 0 -992231 1.27484e+06 0 -972117 1.27286e+06 0 -952209 1.26983e+06 0 -932556 1.26585e+06 0 -913195 1.261e+06 0 -894152 1.25536e+06 0 -875434 1.24899e+06 0 -857032 1.24196e+06 0 -838906 1.23433e+06 0 -820979 1.22613e+06 0 -1.3141e+06 1.17522e+06 0 -1.286e+06 1.21608e+06 0 -1.25694e+06 1.24621e+06 0 -1.22806e+06 1.26997e+06 0 -1.19953e+06 1.28879e+06 0 -1.17147e+06 1.30301e+06 0 -1.14399e+06 1.31336e+06 0 -1.11711e+06 1.32048e+06 0 -1.09083e+06 1.32482e+06 0 -1.06517e+06 1.3268e+06 0 -1.0401e+06 1.32675e+06 0 -1.01563e+06 1.32493e+06 0 -991788 1.32157e+06 0 -968605 1.3168e+06 0 -946145 1.31072e+06 0 -924508 1.30337e+06 0 -1.61643e+06 593978 0 -1.59957e+06 746317 0 -1.56962e+06 891069 0 -1.53073e+06 1.00776e+06 0 -1.48732e+06 1.09855e+06 0 -1.44191e+06 1.17065e+06 0 -1.39622e+06 1.22724e+06 0 -1.35141e+06 1.27102e+06 0 -1.30811e+06 1.30464e+06 0 -1.26667e+06 1.32998e+06 0 -1.22719e+06 1.34859e+06 0 -1.18966e+06 1.36177e+06 0 -1.15396e+06 1.37054e+06 0 -1.11991e+06 1.37581e+06 0 -1.08731e+06 1.37836e+06 0 -1.0559e+06 1.37893e+06 0 -1.9785e+06 -146727 0 -1.97553e+06 -336916 0 -1.98326e+06 -287513 0 -1.97101e+06 -28011.3 0 -1.93497e+06 279663 0 -1.88321e+06 543213 0 -1.82096e+06 759123 0 -1.75288e+06 929857 0 -1.68294e+06 1.0602e+06 0 -1.61361e+06 1.15898e+06 0 -1.54656e+06 1.23292e+06 0 -1.48281e+06 1.28756e+06 0 -1.42288e+06 1.32715e+06 0 -1.36703e+06 1.3548e+06 0 -1.3153e+06 1.37273e+06 0 -1.26766e+06 1.3823e+06 0 </DataArray> 
</PointData> 
<Points> 
<DataArray type="Float32" NumberOfComponents="3"> 
0.0125 0.062 0 0.0125 0.0632 0 0.0125 0.0644 0 0.0125 0.0656 0 0.0125 0.0668 0 0.0125 0.068 0 0.0125 0.0692 0 0.0125 0.0704 0 0.0125 0.0716 0 0.0125 0.0728 0 0.0125 0.074 0 0.0125 0.0752 0 0.0125 0.0764 0 0.0125 0.0776 0 0.0125 0.0788 0 0.0125 0.08 0 0.0265 0.0608667 0 0.0263556 0.0620311 0 0.0262111 0.0631956 0 0.0260667 0.06436 0 0.0259222 0.0655244 0 0.0257778 0.0666889 0 0.0256333 0.0678533 0 0.0254889 0.0690178 0 0.0253444 0.0701822 0 0.0252 0.0713467 0 0.0250556 0.0725111 0 0.0249111 0.0736756 0 0.0247667 0.07484 0 0.0246222 0.0760044 0 0.0244778 0.0771689 0 0.0243333 0.0783333 0 0.0405 0.0597333 0 0.0402111 0.0608622 0 0.0399222 0.0619911 0 0.0396333 0.06312 0 0.0393444 0.0642489 0 0.0390556 0.0653778 0 0.0387667 0.0665067 0 0.0384778 0.0676356 0 0.0381889 0.0687644 0 0.0379 0.0698933 0 0.0376111 0.0710222 0 0.0373222 0.0721511 0 0.0370333 0.07328 0 0.0367444 0.0744089 0 0.0364556 0.0755378 0 0.0361667 0.0766667 0 0.0545 0.0586 0 0.0540667 0.0596933 0 0.0536333 0.0607867 0 0.0532 0.06188 0 0.0527667 0.0629733 0 0.0523333 0.0640667 0 0.0519 0.06516 0 0.0514667 0.0662533 0 0.0510333 0.0673467 0 0.0506 0.06844 0 0.0501667 0.0695333 0 0.0497333 0.0706267 0 0.0493 0.07172 0 0.0488667 0.0728133 0 0.0484333 0.0739067 0 0.048 0.075 0 0.0685 0.0574667 0 0.0679222 0.0585244 0 0.0673444 0.0595822 0 0.0667667 0.06064 0 0.0661889 0.0616978 0 0.0656111 0.0627556 0 0.0650333 0.0638133 0 0.0644556 0.0648711 0 0.0638778 0.0659289 0 0.0633 0.0669867 0 0.0627222 0.0680444 0 0.0621444 0.0691022 0 0.0615667 0.07016 0 0.0609889 0.0712178 0 0.0604111 0.0722756 0 0.0598333 0.0733333 0 0.0825 0.0563333 0 0.0817778 0.0573556 0 0.0810556 0.0583778 0 0.0803333 0.0594 0 0.0796111 0.0604222 0 0.0788889 0.0614444 0 0.0781667 0.0624667 0 0.0774444 0.0634889 0 0.0767222 0.0645111 0 0.076 0.0655333 0 0.0752778 0.0665556 0 0.0745556 0.0675778 0 0.0738333 0.0686 0 0.0731111 0.0696222 0 0.0723889 0.0706444 0 0.0716667 0.0716667 0 0.0965 0.0552 0 0.0956333 0.0561867 0 0.0947667 0.0571733 0 0.0939 0.05816 0 0.0930333 0.0591467 0 0.0921667 0.0601333 0 0.0913 0.06112 0 0.0904333 0.0621067 0 0.0895667 0.0630933 0 0.0887 0.06408 0 0.0878333 0.0650667 0 0.0869667 0.0660533 0 0.0861 0.06704 0 0.0852333 0.0680267 0 0.0843667 0.0690133 0 0.0835 0.07 0 0.1105 0.0540667 0 0.109489 0.0550178 0 0.108478 0.0559689 0 0.107467 0.05692 0 0.106456 0.0578711 0 0.105444 0.0588222 0 0.104433 0.0597733 0 0.103422 0.0607244 0 0.102411 0.0616756 0 0.1014 0.0626267 0 0.100389 0.0635778 0 0.0993778 0.0645289 0 0.0983667 0.06548 0 0.0973556 0.0664311 0 0.0963444 0.0673822 0 0.0953333 0.0683333 0 0.1245 0.0529333 0 0.123344 0.0538489 0 0.122189 0.0547644 0 0.121033 0.05568 0 0.119878 0.0565956 0 0.118722 0.0575111 0 0.117567 0.0584267 0 0.116411 0.0593422 0 0.115256 0.0602578 0 0.1141 0.0611733 0 0.112944 0.0620889 0 0.111789 0.0630044 0 0.110633 0.06392 0 0.109478 0.0648356 0 0.108322 0.0657511 0 0.107167 0.0666667 0 0.1385 0.0518 0 0.1372 0.05268 0 0.1359 0.05356 0 0.1346 0.05444 0 0.1333 0.05532 0 0.132 0.0562 0 0.1307 0.05708 0 0.1294 0.05796 0 0.1281 0.05884 0 0.1268 0.05972 0 0.1255 0.0606 0 0.1242 0.06148 0 0.1229 0.06236 0 0.1216 0.06324 0 0.1203 0.06412 0 0.119 0.065 0 0.1525 0.0506667 0 0.151056 0.0515111 0 0.149611 0.0523556 0 0.148167 0.0532 0 0.146722 0.0540444 0 0.145278 0.0548889 0 0.143833 0.0557333 0 0.142389 0.0565778 0 0.140944 0.0574222 0 0.1395 0.0582667 0 0.138056 0.0591111 0 0.136611 0.0599556 0 0.135167 0.0608 0 0.133722 0.0616444 0 0.132278 0.0624889 0 0.130833 0.0633333 0 0.1665 0.0495333 0 0.164911 0.0503422 0 0.163322 0.0511511 0 0.161733 0.05196 0 0.160144 0.0527689 0 0.158556 0.0535778 0 0.156967 0.0543867 0 0.155378 0.0551956 0 0.153789 0.0560044 0 0.1522 0.0568133 0 0.150611 0.0576222 0 0.149022 0.0584311 0 0.147433 0.05924 0 0.145844 0.0600489 0 0.144256 0.0608578 0 0.142667 0.0616667 0 0.1805 0.0484 0 0.178767 0.0491733 0 0.177033 0.0499467 0 0.1753 0.05072 0 0.173567 0.0514933 0 0.171833 0.0522667 0 0.1701 0.05304 0 0.168367 0.0538133 0 0.166633 0.0545867 0 0.1649 0.05536 0 0.163167 0.0561333 0 0.161433 0.0569067 0 0.1597 0.05768 0 0.157967 0.0584533 0 0.156233 0.0592267 0 0.1545 0.06 0 0.1945 0.0472667 0 0.192622 0.0480044 0 0.190744 0.0487422 0 0.188867 0.04948 0 0.186989 0.0502178 0 0.185111 0.0509556 0 0.183233 0.0516933 0 0.181356 0.0524311 0 0.179478 0.0531689 0 0.1776 0.0539067 0 0.175722 0.0546444 0 0.173844 0.0553822 0 0.171967 0.05612 0 0.170089 0.0568578 0 0.168211 0.0575956 0 0.166333 0.0583333 0 0.2085 0.0461333 0 0.206478 0.0468356 0 0.204456 0.0475378 0 0.202433 0.04824 0 0.200411 0.0489422 0 0.198389 0.0496444 0 0.196367 0.0503467 0 0.194344 0.0510489 0 0.192322 0.0517511 0 0.1903 0.0524533 0 0.188278 0.0531556 0 0.186256 0.0538578 0 0.184233 0.05456 0 0.182211 0.0552622 0 0.180189 0.0559644 0 0.178167 0.0566667 0 0.2225 0.045 0 0.220333 0.0456667 0 0.218167 0.0463333 0 0.216 0.047 0 0.213833 0.0476667 0 0.211667 0.0483333 0 0.2095 0.049 0 0.207333 0.0496667 0 0.205167 0.0503333 0 0.203 0.051 0 0.200833 0.0516667 0 0.198667 0.0523333 0 0.1965 0.053 0 0.194333 0.0536667 0 0.192167 0.0543333 0 0.19 0.055 0 
</DataArray>
</Points> 
</Piece> 
</StructuredGrid> 
</VTKFile> 
