<?xml version="1.0"?> 
<VTKFile type="StructuredGrid" version="0.1"> 
<StructuredGrid WholeExtent="0 15 0 15 0 0"> 
<Piece Extent="0 15 0 15 0 0"> 
<PointData>
<DataArray type="Float32" Name="E" format="ascii" NumberOfComponents="3"> 
-690627 202423 0 -681208 193449 0 -671849 184332 0 -662560 175070 0 -653354 165658 0 -644245 156088 0 -635251 146353 0 -626395 136441 0 -617707 126346 0 -609234 116061 0 -601048 105591 0 -593264 94973.4 0 -586068 84194.4 0 -579753 73687.2 0 -574803 62620.9 0 -571655 51642.6 0 -702273 260386 0 -692797 252190 0 -683328 243853 0 -673874 235373 0 -664444 226746 0 -655047 217970 0 -645688 209044 0 -636371 199964 0 -627100 190727 0 -617873 181327 0 -608687 171759 0 -599532 162015 0 -590394 152086 0 -581255 141932 0 -572106 131601 0 -562967 120959 0 -716895 317331 0 -707552 310072 0 -698165 302666 0 -688745 295110 0 -679305 287398 0 -669856 279528 0 -660409 271496 0 -650975 263301 0 -641564 254940 0 -632187 246411 0 -622851 237707 0 -613565 228822 0 -604337 219749 0 -595168 210490 0 -586051 201038 0 -576966 191375 0 -734423 371913 0 -725420 365769 0 -716314 359475 0 -707118 353030 0 -697845 346429 0 -688507 339667 0 -679115 332740 0 -669682 325644 0 -660218 318377 0 -650734 310942 0 -641241 303343 0 -631746 295586 0 -622257 287668 0 -612783 279578 0 -603339 271297 0 -593930 262890 0 -754759 422185 0 -746366 417409 0 -737791 412463 0 -729053 407343 0 -720174 402048 0 -711169 396578 0 -702056 390934 0 -692850 385114 0 -683561 379115 0 -674204 372925 0 -664791 366535 0 -655336 359941 0 -645850 353157 0 -636344 346213 0 -626822 339138 0 -617302 331769 0 -777715 465118 0 -770301 462105 0 -762599 458909 0 -754634 455517 0 -746428 451915 0 -738005 448092 0 -729388 444044 0 -720600 439775 0 -711664 435298 0 -702599 430628 0 -693423 425777 0 -684148 420737 0 -674788 415469 0 -665358 409923 0 -655875 404087 0 -646331 398318 0 -802992 496270 0 -797040 495494 0 -790659 494509 0 -783888 493315 0 -776762 491909 0 -769311 490281 0 -761561 488413 0 -753533 486278 0 -745250 483848 0 -736735 481103 0 -728013 478048 0 -719112 474728 0 -710058 471230 0 -700875 467621 0 -691578 463851 0 -682213 459229 0 -830139 508163 0 -826437 510654 0 -822073 512816 0 -817096 514637 0 -811555 516115 0 -805505 517265 0 -799000 518116 0 -792093 518701 0 -784829 519044 0 -777245 519140 0 -769366 518938 0 -761207 518332 0 -752776 517193 0 -744088 515491 0 -735166 513462 0 -726024 512365 0 -858282 488312 0 -857815 495359 0 -856474 502087 0 -854311 508456 0 -851365 514411 0 -847666 519893 0 -843243 524847 0 -838131 529237 0 -832372 533069 0 -826030 536405 0 -819185 539377 0 -811929 542158 0 -804353 544891 0 -796522 547477 0 -788444 549351 0 -780057 548493 0 -886442 419801 0 -890685 433024 0 -893498 445732 0 -895040 457956 0 -895467 469726 0 -894922 481071 0 -893525 492002 0 -891359 502490 0 -888464 512447 0 -884835 521722 0 -880429 530118 0 -875186 537457 0 -869075 543700 0 -862145 549233 0 -854621 555107 0 -846971 564202 0 -912610 264045 0 -924894 288259 0 -935122 311569 0 -943299 333909 0 -949458 355233 0 -953673 375518 0 -956080 394784 0 -956879 413111 0 -956338 430640 0 -954772 447563 0 -952513 464072 0 -949840 480269 0 -946896 496017 0 -943558 510644 0 -939274 522760 0 -932893 529055 0 -931577 -26756.1 0 -953000 11064.5 0 -972329 47964.3 0 -989810 83940.3 0 -1.00557e+06 118974 0 -1.01962e+06 153044 0 -1.03184e+06 186099 0 -1.04201e+06 218046 0 -1.04983e+06 248754 0 -1.055e+06 278066 0 -1.05732e+06 305845 0 -1.05677e+06 332055 0 -1.05375e+06 356866 0 -1.04923e+06 380879 0 -1.04501e+06 405165 0 -1.04402e+06 432369 0 -941657 -538362 0 -980885 -475156 0 -1.01412e+06 -413624 0 -1.04203e+06 -354074 0 -1.06544e+06 -296795 0 -1.08527e+06 -242014 0 -1.10255e+06 -189857 0 -1.11826e+06 -140324 0 -1.13332e+06 -93267.1 0 -1.14837e+06 -48382.5 0 -1.16366e+06 -5206.93 0 -1.17883e+06 36863.7 0 -1.19269e+06 78557 0 -1.20294e+06 120630 0 -1.20588e+06 164007 0 -1.19611e+06 208886 0 -913287 -1.50633e+06 0 -986238 -1.41894e+06 0 -1.05595e+06 -1.32939e+06 0 -1.12067e+06 -1.23751e+06 0 -1.17878e+06 -1.14328e+06 0 -1.22892e+06 -1.04699e+06 0 -1.27002e+06 -949301 0 -1.3015e+06 -851223 0 -1.32331e+06 -754207 0 -1.33619e+06 -660162 0 -1.34178e+06 -571510 0 -1.34286e+06 -491229 0 -1.34356e+06 -422924 0 -1.34956e+06 -370833 0 -1.36841e+06 -340104 0 -1.40966e+06 -335995 0 -753491 -2.40442e+06 0 -795509 -2.39289e+06 0 -852036 -2.37942e+06 0 -922190 -2.3629e+06 0 -1.00469e+06 -2.34171e+06 0 -1.09778e+06 -2.31381e+06 0 -1.19913e+06 -2.27665e+06 0 -1.30577e+06 -2.22707e+06 0 -1.41389e+06 -2.16123e+06 0 -1.51879e+06 -2.07452e+06 0 -1.61468e+06 -1.9615e+06 0 -1.69457e+06 -1.81576e+06 0 -1.75013e+06 -1.62982e+06 0 -1.77155e+06 -1.3951e+06 0 -1.74741e+06 -1.1016e+06 0 -1.66464e+06 -738686 0 -540256 -1.70189e+06 0 -474609 -1.76449e+06 0 -416248 -1.82711e+06 0 -367242 -1.89679e+06 0 -330511 -1.98119e+06 0 -309717 -2.08745e+06 0 -309287 -2.22383e+06 0 -334502 -2.39981e+06 0 -391618 -2.62637e+06 0 -487987 -2.91622e+06 0 -632170 -3.2839e+06 0 -834053 -3.74596e+06 0 -1.10493e+06 -4.32098e+06 0 -1.45756e+06 -5.02958e+06 0 -1.90624e+06 -5.89467e+06 0 -2.46664e+06 -6.93987e+06 0 </DataArray> 
</PointData> 
<Points> 
<DataArray type="Float32" NumberOfComponents="3"> 
0.046 0.027 0 0.0437667 0.0286667 0 0.0415333 0.0303333 0 0.0393 0.032 0 0.0370667 0.0336667 0 0.0348333 0.0353333 0 0.0326 0.037 0 0.0303667 0.0386667 0 0.0281333 0.0403333 0 0.0259 0.042 0 0.0236667 0.0436667 0 0.0214333 0.0453333 0 0.0192 0.047 0 0.0169667 0.0486667 0 0.0147333 0.0503333 0 0.0125 0.052 0 0.0586667 0.027 0 0.0565222 0.0285911 0 0.0543778 0.0301822 0 0.0522333 0.0317733 0 0.0500889 0.0333644 0 0.0479444 0.0349556 0 0.0458 0.0365467 0 0.0436556 0.0381378 0 0.0415111 0.0397289 0 0.0393667 0.04132 0 0.0372222 0.0429111 0 0.0350778 0.0445022 0 0.0329333 0.0460933 0 0.0307889 0.0476844 0 0.0286444 0.0492756 0 0.0265 0.0508667 0 0.0713333 0.027 0 0.0692778 0.0285156 0 0.0672222 0.0300311 0 0.0651667 0.0315467 0 0.0631111 0.0330622 0 0.0610556 0.0345778 0 0.059 0.0360933 0 0.0569444 0.0376089 0 0.0548889 0.0391244 0 0.0528333 0.04064 0 0.0507778 0.0421556 0 0.0487222 0.0436711 0 0.0466667 0.0451867 0 0.0446111 0.0467022 0 0.0425556 0.0482178 0 0.0405 0.0497333 0 0.084 0.027 0 0.0820333 0.02844 0 0.0800667 0.02988 0 0.0781 0.03132 0 0.0761333 0.03276 0 0.0741667 0.0342 0 0.0722 0.03564 0 0.0702333 0.03708 0 0.0682667 0.03852 0 0.0663 0.03996 0 0.0643333 0.0414 0 0.0623667 0.04284 0 0.0604 0.04428 0 0.0584333 0.04572 0 0.0564667 0.04716 0 0.0545 0.0486 0 0.0966667 0.027 0 0.0947889 0.0283644 0 0.0929111 0.0297289 0 0.0910333 0.0310933 0 0.0891556 0.0324578 0 0.0872778 0.0338222 0 0.0854 0.0351867 0 0.0835222 0.0365511 0 0.0816444 0.0379156 0 0.0797667 0.03928 0 0.0778889 0.0406444 0 0.0760111 0.0420089 0 0.0741333 0.0433733 0 0.0722556 0.0447378 0 0.0703778 0.0461022 0 0.0685 0.0474667 0 0.109333 0.027 0 0.107544 0.0282889 0 0.105756 0.0295778 0 0.103967 0.0308667 0 0.102178 0.0321556 0 0.100389 0.0334444 0 0.0986 0.0347333 0 0.0968111 0.0360222 0 0.0950222 0.0373111 0 0.0932333 0.0386 0 0.0914444 0.0398889 0 0.0896556 0.0411778 0 0.0878667 0.0424667 0 0.0860778 0.0437556 0 0.0842889 0.0450444 0 0.0825 0.0463333 0 0.122 0.027 0 0.1203 0.0282133 0 0.1186 0.0294267 0 0.1169 0.03064 0 0.1152 0.0318533 0 0.1135 0.0330667 0 0.1118 0.03428 0 0.1101 0.0354933 0 0.1084 0.0367067 0 0.1067 0.03792 0 0.105 0.0391333 0 0.1033 0.0403467 0 0.1016 0.04156 0 0.0999 0.0427733 0 0.0982 0.0439867 0 0.0965 0.0452 0 0.134667 0.027 0 0.133056 0.0281378 0 0.131444 0.0292756 0 0.129833 0.0304133 0 0.128222 0.0315511 0 0.126611 0.0326889 0 0.125 0.0338267 0 0.123389 0.0349644 0 0.121778 0.0361022 0 0.120167 0.03724 0 0.118556 0.0383778 0 0.116944 0.0395156 0 0.115333 0.0406533 0 0.113722 0.0417911 0 0.112111 0.0429289 0 0.1105 0.0440667 0 0.147333 0.027 0 0.145811 0.0280622 0 0.144289 0.0291244 0 0.142767 0.0301867 0 0.141244 0.0312489 0 0.139722 0.0323111 0 0.1382 0.0333733 0 0.136678 0.0344356 0 0.135156 0.0354978 0 0.133633 0.03656 0 0.132111 0.0376222 0 0.130589 0.0386844 0 0.129067 0.0397467 0 0.127544 0.0408089 0 0.126022 0.0418711 0 0.1245 0.0429333 0 0.16 0.027 0 0.158567 0.0279867 0 0.157133 0.0289733 0 0.1557 0.02996 0 0.154267 0.0309467 0 0.152833 0.0319333 0 0.1514 0.03292 0 0.149967 0.0339067 0 0.148533 0.0348933 0 0.1471 0.03588 0 0.145667 0.0368667 0 0.144233 0.0378533 0 0.1428 0.03884 0 0.141367 0.0398267 0 0.139933 0.0408133 0 0.1385 0.0418 0 0.172667 0.027 0 0.171322 0.0279111 0 0.169978 0.0288222 0 0.168633 0.0297333 0 0.167289 0.0306444 0 0.165944 0.0315556 0 0.1646 0.0324667 0 0.163256 0.0333778 0 0.161911 0.0342889 0 0.160567 0.0352 0 0.159222 0.0361111 0 0.157878 0.0370222 0 0.156533 0.0379333 0 0.155189 0.0388444 0 0.153844 0.0397556 0 0.1525 0.0406667 0 0.185333 0.027 0 0.184078 0.0278356 0 0.182822 0.0286711 0 0.181567 0.0295067 0 0.180311 0.0303422 0 0.179056 0.0311778 0 0.1778 0.0320133 0 0.176544 0.0328489 0 0.175289 0.0336844 0 0.174033 0.03452 0 0.172778 0.0353556 0 0.171522 0.0361911 0 0.170267 0.0370267 0 0.169011 0.0378622 0 0.167756 0.0386978 0 0.1665 0.0395333 0 0.198 0.027 0 0.196833 0.02776 0 0.195667 0.02852 0 0.1945 0.02928 0 0.193333 0.03004 0 0.192167 0.0308 0 0.191 0.03156 0 0.189833 0.03232 0 0.188667 0.03308 0 0.1875 0.03384 0 0.186333 0.0346 0 0.185167 0.03536 0 0.184 0.03612 0 0.182833 0.03688 0 0.181667 0.03764 0 0.1805 0.0384 0 0.210667 0.027 0 0.209589 0.0276844 0 0.208511 0.0283689 0 0.207433 0.0290533 0 0.206356 0.0297378 0 0.205278 0.0304222 0 0.2042 0.0311067 0 0.203122 0.0317911 0 0.202044 0.0324756 0 0.200967 0.03316 0 0.199889 0.0338444 0 0.198811 0.0345289 0 0.197733 0.0352133 0 0.196656 0.0358978 0 0.195578 0.0365822 0 0.1945 0.0372667 0 0.223333 0.027 0 0.222344 0.0276089 0 0.221356 0.0282178 0 0.220367 0.0288267 0 0.219378 0.0294356 0 0.218389 0.0300444 0 0.2174 0.0306533 0 0.216411 0.0312622 0 0.215422 0.0318711 0 0.214433 0.03248 0 0.213444 0.0330889 0 0.212456 0.0336978 0 0.211467 0.0343067 0 0.210478 0.0349156 0 0.209489 0.0355244 0 0.2085 0.0361333 0 0.236 0.027 0 0.2351 0.0275333 0 0.2342 0.0280667 0 0.2333 0.0286 0 0.2324 0.0291333 0 0.2315 0.0296667 0 0.2306 0.0302 0 0.2297 0.0307333 0 0.2288 0.0312667 0 0.2279 0.0318 0 0.227 0.0323333 0 0.2261 0.0328667 0 0.2252 0.0334 0 0.2243 0.0339333 0 0.2234 0.0344667 0 0.2225 0.035 0 
</DataArray>
</Points> 
</Piece> 
</StructuredGrid> 
</VTKFile> 
