<?xml version="1.0"?> 
<VTKFile type="StructuredGrid" version="0.1"> 
<StructuredGrid WholeExtent="0 15 0 15 0 0"> 
<Piece Extent="0 15 0 15 0 0"> 
<PointData>
<DataArray type="Float32" Name="E" format="ascii" NumberOfComponents="3"> 
358078 5.431e+06 0 -704067 4.33001e+06 0 -735859 3.8413e+06 0 -701894 3.52092e+06 0 -633975 3.31256e+06 0 -562949 3.1601e+06 0 -494001 3.04671e+06 0 -428129 2.95892e+06 0 -366161 2.89014e+06 0 -307489 2.83579e+06 0 -251812 2.79304e+06 0 -198560 2.75996e+06 0 -147249 2.73527e+06 0 -97363.1 2.71812e+06 0 -48449.5 2.708e+06 0 0 2.70446e+06 0 300033 4.55062e+06 0 -318695 4.22865e+06 0 -524299 3.82408e+06 0 -554328 3.55138e+06 0 -530870 3.34846e+06 0 -486902 3.19931e+06 0 -435649 3.08464e+06 0 -382796 2.99529e+06 0 -330309 2.9246e+06 0 -279215 2.8685e+06 0 -229690 2.8242e+06 0 -181712 2.78984e+06 0 -135056 2.76415e+06 0 -89439.8 2.74629e+06 0 -44540.9 2.73571e+06 0 0 2.73207e+06 0 274168 4.15833e+06 0 -130545 4.03426e+06 0 -348070 3.77604e+06 0 -422984 3.54831e+06 0 -432547 3.36733e+06 0 -411803 3.22555e+06 0 -377349 3.11392e+06 0 -336715 3.02509e+06 0 -293718 2.95401e+06 0 -250145 2.8971e+06 0 -206888 2.85189e+06 0 -164290 2.81669e+06 0 -122430 2.7903e+06 0 -81219.5 2.7719e+06 0 -40486.1 2.76098e+06 0 0 2.75724e+06 0 258919 3.92705e+06 0 -25226.5 3.871e+06 0 -218441 3.70548e+06 0 -311401 3.52724e+06 0 -342758 3.37087e+06 0 -340503 3.24104e+06 0 -320417 3.13502e+06 0 -291052 3.04867e+06 0 -256995 2.97846e+06 0 -220762 2.92161e+06 0 -183700 2.87611e+06 0 -146508 2.84047e+06 0 -109505 2.81365e+06 0 -72788.6 2.7949e+06 0 -36323.6 2.78375e+06 0 0 2.77992e+06 0 248679 3.77174e+06 0 38152.7 3.74243e+06 0 -124283 3.63261e+06 0 -219563 3.49566e+06 0 -263305 3.36379e+06 0 -274387 3.24764e+06 0 -266074 3.14901e+06 0 -246556 3.06653e+06 0 -220723 2.99821e+06 0 -191445 2.94218e+06 0 -160402 2.8969e+06 0 -128549 2.86119e+06 0 -96406.1 2.83419e+06 0 -64223 2.81525e+06 0 -32089.1 2.80396e+06 0 0 2.80008e+06 0 241210 3.65845e+06 0 79478.1 3.64168e+06 0 -55292.2 3.56538e+06 0 -145104 3.45989e+06 0 -194298 3.34988e+06 0 -214248 3.24749e+06 0 -215038 3.15705e+06 0 -203839 3.07931e+06 0 -185343 3.01363e+06 0 -162524 2.95899e+06 0 -137228 2.91436e+06 0 -110580 2.8789e+06 0 -83243.8 2.85193e+06 0 -55592 2.83294e+06 0 -27815.5 2.8216e+06 0 0 2.8177e+06 0 235509 3.57199e+06 0 108042 3.56164e+06 0 -3576.9 3.50628e+06 0 -84807.3 3.42382e+06 0 -134944 3.33216e+06 0 -160184 3.2425e+06 0 -167679 3.16033e+06 0 -163274 3.08774e+06 0 -151178 3.02515e+06 0 -134249 2.97229e+06 0 -114366 2.92864e+06 0 -92735.6 2.89367e+06 0 -70112.3 2.86691e+06 0 -46954.4 2.848e+06 0 -23531 2.83667e+06 0 0 2.83277e+06 0 231034 3.50412e+06 0 128831 3.49724e+06 0 36207.4 3.45539e+06 0 -35620.4 3.38964e+06 0 -83994.8 3.31276e+06 0 -111879 3.23431e+06 0 -124054 3.15994e+06 0 -125044 3.09251e+06 0 -118423 3.03321e+06 0 -106793 2.98237e+06 0 -91955.2 2.93991e+06 0 -75121.7 2.9056e+06 0 -57086.4 2.87919e+06 0 -38358 2.86045e+06 0 -19259 2.84919e+06 0 0 2.84531e+06 0 227459 3.4499e+06 0 144648 3.44492e+06 0 67666 3.41204e+06 0 5028.58 3.35837e+06 0 -40089.5 3.29313e+06 0 -68755.4 3.22417e+06 0 -83997.3 3.15683e+06 0 -89163.8 3.09429e+06 0 -87163.3 3.03825e+06 0 -80254.5 2.98951e+06 0 -70085.4 2.94835e+06 0 -57811.6 2.91482e+06 0 -44220.5 2.88885e+06 0 -29838.5 2.87033e+06 0 -15016.9 2.85918e+06 0 0 2.85533e+06 0 224578 3.4062e+06 0 157187 3.40222e+06 0 93248.4 3.37535e+06 0 39190.5 3.33041e+06 0 -1924.75 3.27418e+06 0 -30120.9 3.21301e+06 0 -47193.8 3.15175e+06 0 -55524.4 3.09365e+06 0 -57386.6 3.04069e+06 0 -54664 2.994e+06 0 -48800 2.95416e+06 0 -40847.1 2.92144e+06 0 -31548.7 2.89595e+06 0 -21419.6 2.8777e+06 0 -10816.9 2.86668e+06 0 0 2.86287e+06 0 222251 3.3709e+06 0 167529 3.36737e+06 0 114659 3.34454e+06 0 68472.3 3.30587e+06 0 31667.9 3.25647e+06 0 4751.29 3.20152e+06 0 -13239.9 3.14534e+06 0 -23923.1 3.09109e+06 0 -29005.1 3.04089e+06 0 -29993.8 2.99609e+06 0 -28100.1 2.95751e+06 0 -24241.2 2.92559e+06 0 -19086.1 2.90058e+06 0 -13113.2 2.88262e+06 0 -6665.47 2.87174e+06 0 0 2.86797e+06 0 220384 3.34258e+06 0 176401 3.3391e+06 0 133118 3.31892e+06 0 94134.1 3.28465e+06 0 61706.8 3.24029e+06 0 36570.9 3.19016e+06 0 18313.7 3.13806e+06 0 5905.26 3.087e+06 0 -1872.23 3.03917e+06 0 -6168.41 2.99603e+06 0 -7951.01 2.95857e+06 0 -7980.65 2.92738e+06 0 -6830.01 2.90283e+06 0 -4920.7 2.88513e+06 0 -2564 2.87439e+06 0 0 2.87067e+06 0 218911 3.32024e+06 0 184317 3.31653e+06 0 149531 3.29795e+06 0 117177 3.26663e+06 0 89071 3.22584e+06 0 66007.8 3.17924e+06 0 47932.6 3.13025e+06 0 34264.6 3.0817e+06 0 24201.3 3.03577e+06 0 16925.2 2.994e+06 0 11711.9 2.95748e+06 0 7969.44 2.92692e+06 0 5237.35 2.90276e+06 0 3166.26 2.8853e+06 0 1490.61 2.87468e+06 0 0 2.871e+06 0 217786 3.30318e+06 0 191665 3.29901e+06 0 164599 3.28122e+06 0 138418 3.25167e+06 0 114525 3.21317e+06 0 93687.1 3.16897e+06 0 76083.5 3.12216e+06 0 61482.2 3.07543e+06 0 49434.9 3.0309e+06 0 39428.6 2.99017e+06 0 30976.9 2.95437e+06 0 23662.2 2.92429e+06 0 17146.6 2.90045e+06 0 11164 2.88317e+06 0 5505.32 2.87265e+06 0 0 2.869e+06 0 216981 3.29097e+06 0 198753 3.28612e+06 0 178885 3.26843e+06 0 158539 3.23963e+06 0 138739 3.20233e+06 0 120185 3.15947e+06 0 103220 3.11396e+06 0 87893.2 3.06835e+06 0 74064.1 3.02471e+06 0 61501.3 2.98465e+06 0 49948.4 2.94933e+06 0 39163.8 2.91958e+06 0 28937.6 2.89594e+06 0 19094.7 2.87879e+06 0 9490.08 2.86833e+06 0 0 2.8647e+06 0 216478 3.28335e+06 0 205853 3.27761e+06 0 192890 3.25938e+06 0 178158 3.23044e+06 0 162340 3.1933e+06 0 146064 3.15081e+06 0 129802 3.10574e+06 0 113849 3.06056e+06 0 98345.2 3.0173e+06 0 83322.6 2.97753e+06 0 68747.6 2.94243e+06 0 54553.1 2.91282e+06 0 40659.6 2.88928e+06 0 26986.6 2.87218e+06 0 13457.6 2.86175e+06 0 0 2.85813e+06 0 </DataArray> 
</PointData> 
<Points> 
<DataArray type="Float32" NumberOfComponents="3"> 
0.23 0.065 0 0.23 0.0692 0 0.23 0.0734 0 0.23 0.0776 0 0.23 0.0818 0 0.23 0.086 0 0.23 0.0902 0 0.23 0.0944 0 0.23 0.0986 0 0.23 0.1028 0 0.23 0.107 0 0.23 0.1112 0 0.23 0.1154 0 0.23 0.1196 0 0.23 0.1238 0 0.23 0.128 0 0.2325 0.0648352 0 0.2325 0.0690462 0 0.2325 0.0732571 0 0.2325 0.0774681 0 0.2325 0.0816791 0 0.2325 0.0858901 0 0.2325 0.0901011 0 0.2325 0.0943121 0 0.2325 0.0985231 0 0.2325 0.102734 0 0.2325 0.106945 0 0.2325 0.111156 0 0.2325 0.115367 0 0.2325 0.119578 0 0.2325 0.123789 0 0.2325 0.128 0 0.235 0.0646703 0 0.235 0.0688923 0 0.235 0.0731143 0 0.235 0.0773363 0 0.235 0.0815582 0 0.235 0.0857802 0 0.235 0.0900022 0 0.235 0.0942242 0 0.235 0.0984462 0 0.235 0.102668 0 0.235 0.10689 0 0.235 0.111112 0 0.235 0.115334 0 0.235 0.119556 0 0.235 0.123778 0 0.235 0.128 0 0.2375 0.0645055 0 0.2375 0.0687385 0 0.2375 0.0729714 0 0.2375 0.0772044 0 0.2375 0.0814374 0 0.2375 0.0856703 0 0.2375 0.0899033 0 0.2375 0.0941363 0 0.2375 0.0983692 0 0.2375 0.102602 0 0.2375 0.106835 0 0.2375 0.111068 0 0.2375 0.115301 0 0.2375 0.119534 0 0.2375 0.123767 0 0.2375 0.128 0 0.24 0.0643407 0 0.24 0.0685846 0 0.24 0.0728286 0 0.24 0.0770725 0 0.24 0.0813165 0 0.24 0.0855605 0 0.24 0.0898044 0 0.24 0.0940484 0 0.24 0.0982923 0 0.24 0.102536 0 0.24 0.10678 0 0.24 0.111024 0 0.24 0.115268 0 0.24 0.119512 0 0.24 0.123756 0 0.24 0.128 0 0.2425 0.0641758 0 0.2425 0.0684308 0 0.2425 0.0726857 0 0.2425 0.0769407 0 0.2425 0.0811956 0 0.2425 0.0854506 0 0.2425 0.0897055 0 0.2425 0.0939605 0 0.2425 0.0982154 0 0.2425 0.10247 0 0.2425 0.106725 0 0.2425 0.11098 0 0.2425 0.115235 0 0.2425 0.11949 0 0.2425 0.123745 0 0.2425 0.128 0 0.245 0.064011 0 0.245 0.0682769 0 0.245 0.0725429 0 0.245 0.0768088 0 0.245 0.0810747 0 0.245 0.0853407 0 0.245 0.0896066 0 0.245 0.0938725 0 0.245 0.0981385 0 0.245 0.102404 0 0.245 0.10667 0 0.245 0.110936 0 0.245 0.115202 0 0.245 0.119468 0 0.245 0.123734 0 0.245 0.128 0 0.2475 0.0638462 0 0.2475 0.0681231 0 0.2475 0.0724 0 0.2475 0.0766769 0 0.2475 0.0809539 0 0.2475 0.0852308 0 0.2475 0.0895077 0 0.2475 0.0937846 0 0.2475 0.0980616 0 0.2475 0.102338 0 0.2475 0.106615 0 0.2475 0.110892 0 0.2475 0.115169 0 0.2475 0.119446 0 0.2475 0.123723 0 0.2475 0.128 0 0.25 0.0636814 0 0.25 0.0679693 0 0.25 0.0722572 0 0.25 0.0765451 0 0.25 0.080833 0 0.25 0.0851209 0 0.25 0.0894088 0 0.25 0.0936967 0 0.25 0.0979846 0 0.25 0.102273 0 0.25 0.10656 0 0.25 0.110848 0 0.25 0.115136 0 0.25 0.119424 0 0.25 0.123712 0 0.25 0.128 0 0.2525 0.0635165 0 0.2525 0.0678154 0 0.2525 0.0721143 0 0.2525 0.0764132 0 0.2525 0.0807121 0 0.2525 0.085011 0 0.2525 0.0893099 0 0.2525 0.0936088 0 0.2525 0.0979077 0 0.2525 0.102207 0 0.2525 0.106506 0 0.2525 0.110804 0 0.2525 0.115103 0 0.2525 0.119402 0 0.2525 0.123701 0 0.2525 0.128 0 0.255 0.0633517 0 0.255 0.0676616 0 0.255 0.0719715 0 0.255 0.0762814 0 0.255 0.0805912 0 0.255 0.0849011 0 0.255 0.089211 0 0.255 0.0935209 0 0.255 0.0978308 0 0.255 0.102141 0 0.255 0.106451 0 0.255 0.11076 0 0.255 0.11507 0 0.255 0.11938 0 0.255 0.12369 0 0.255 0.128 0 0.2575 0.0631869 0 0.2575 0.0675077 0 0.2575 0.0718286 0 0.2575 0.0761495 0 0.2575 0.0804704 0 0.2575 0.0847912 0 0.2575 0.0891121 0 0.2575 0.093433 0 0.2575 0.0977539 0 0.2575 0.102075 0 0.2575 0.106396 0 0.2575 0.110716 0 0.2575 0.115037 0 0.2575 0.119358 0 0.2575 0.123679 0 0.2575 0.128 0 0.26 0.063022 0 0.26 0.0673539 0 0.26 0.0716858 0 0.26 0.0760176 0 0.26 0.0803495 0 0.26 0.0846814 0 0.26 0.0890132 0 0.26 0.0933451 0 0.26 0.0976769 0 0.26 0.102009 0 0.26 0.106341 0 0.26 0.110673 0 0.26 0.115004 0 0.26 0.119336 0 0.26 0.123668 0 0.26 0.128 0 0.2625 0.0628572 0 0.2625 0.0672001 0 0.2625 0.0715429 0 0.2625 0.0758858 0 0.2625 0.0802286 0 0.2625 0.0845715 0 0.2625 0.0889143 0 0.2625 0.0932572 0 0.2625 0.0976 0 0.2625 0.101943 0 0.2625 0.106286 0 0.2625 0.110629 0 0.2625 0.114971 0 0.2625 0.119314 0 0.2625 0.123657 0 0.2625 0.128 0 0.265 0.0626924 0 0.265 0.0670462 0 0.265 0.0714001 0 0.265 0.0757539 0 0.265 0.0801077 0 0.265 0.0844616 0 0.265 0.0888154 0 0.265 0.0931693 0 0.265 0.0975231 0 0.265 0.101877 0 0.265 0.106231 0 0.265 0.110585 0 0.265 0.114938 0 0.265 0.119292 0 0.265 0.123646 0 0.265 0.128 0 0.2675 0.0625275 0 0.2675 0.0668924 0 0.2675 0.0712572 0 0.2675 0.075622 0 0.2675 0.0799869 0 0.2675 0.0843517 0 0.2675 0.0887165 0 0.2675 0.0930814 0 0.2675 0.0974462 0 0.2675 0.101811 0 0.2675 0.106176 0 0.2675 0.110541 0 0.2675 0.114906 0 0.2675 0.11927 0 0.2675 0.123635 0 0.2675 0.128 0 
</DataArray>
</Points> 
</Piece> 
</StructuredGrid> 
</VTKFile> 
