<?xml version="1.0"?> 
<VTKFile type="StructuredGrid" version="0.1"> 
<StructuredGrid WholeExtent="0 15 0 15 0 0"> 
<Piece Extent="0 15 0 15 0 0"> 
<PointData>
<DataArray type="Float32" Name="E" format="ascii" NumberOfComponents="3"> 
-556604 0 0 -556166 0 0 -555668 0 0 -555112 0 0 -554505 0 0 -553852 0 0 -553161 0 0 -552440 0 0 -551698 0 0 -550945 0 0 -550189 0 0 -549438 0 0 -548701 0 0 -547983 0 0 -547291 0 0 -546626 0 0 -556655 509.84 0 -556216 587.011 0 -555715 661.234 0 -555156 730.263 0 -554543 792.142 0 -553884 845.196 0 -553186 888.116 0 -552457 919.999 0 -551708 940.379 0 -550947 949.235 0 -550184 946.992 0 -549427 934.509 0 -548684 913.043 0 -547962 884.216 0 -547267 849.927 0 -546601 812.357 0 -556805 1020.6 0 -556362 1178.59 0 -555854 1330.55 0 -555282 1471.77 0 -554654 1598.21 0 -553977 1706.41 0 -553258 1793.7 0 -552508 1858.21 0 -551736 1899 0 -550952 1916.03 0 -550168 1910.17 0 -549393 1883.19 0 -548634 1837.66 0 -547900 1776.94 0 -547196 1704.94 0 -546526 1626.26 0 -557061 1533.08 0 -556613 1779.61 0 -556090 2016.54 0 -555499 2236.49 0 -554844 2433.02 0 -554134 2600.69 0 -553380 2735.29 0 -552591 2833.96 0 -551780 2895.22 0 -550959 2919.03 0 -550139 2906.73 0 -549331 2861.09 0 -548545 2786.15 0 -547790 2687.19 0 -547071 2570.45 0 -546395 2443.07 0 -557436 2048.36 0 -556979 2395.42 0 -556437 2728.98 0 -555814 3038 0 -555119 3313.33 0 -554362 3547.2 0 -553555 3733.7 0 -552710 3868.87 0 -551842 3950.68 0 -550964 3979.08 0 -550090 3955.97 0 -549234 3885.17 0 -548408 3772.39 0 -547620 3625.16 0 -546881 3452.32 0 -546194 3264.69 0 -557948 2566.63 0 -557480 3032.63 0 -556909 3479.46 0 -556243 3892.54 0 -555492 4259.02 0 -554669 4568.53 0 -553788 4813.27 0 -552865 4988.13 0 -551917 5090.58 0 -550961 5120.56 0 -550014 5080.53 0 -549091 4975.44 0 -548207 4812.87 0 -547376 4602.82 0 -546606 4357.8 0 -545906 4091.69 0 -558625 3090.09 0 -558141 3698.74 0 -557532 4282.85 0 -556807 4820.34 0 -555979 5294.66 0 -555066 5692.17 0 -554086 6003.28 0 -553059 6221.84 0 -552005 6344.97 0 -550945 6372.66 0 -549899 6307.82 0 -548886 6156.47 0 -547925 5927.92 0 -547033 5635.43 0 -546222 5294.8 0 -545504 4927.96 0 -559504 3615.7 0 -558999 4405.52 0 -558337 5158.26 0 -557531 5848.05 0 -556600 6451.56 0 -555568 6952.4 0 -554458 7339.43 0 -553295 7606.24 0 -552104 7750.02 0 -550908 7770.87 0 -549732 7671.82 0 -548599 7459.28 0 -547534 7144.17 0 -546560 6742.2 0 -545695 6276.1 0 -544951 5769.46 0 -560635 4151.85 0 -560105 5165.32 0 -559369 6134.13 0 -558451 7011.72 0 -557380 7771.11 0 -556190 8392.44 0 -554911 8865.28 0 -553575 9184.6 0 -552209 9348.81 0 -550840 9358.24 0 -549496 9215.03 0 -548206 8924.55 0 -547002 8497.05 0 -545915 7951.79 0 -544973 7313.83 0 -544201 6630.15 0 -562108 4681.22 0 -561528 6006.75 0 -560687 7250.44 0 -559610 8364.55 0 -558347 9309.18 0 -556947 10067.3 0 -555453 10632.9 0 -553900 11006.9 0 -552318 11191 0 -550735 11185.9 0 -549177 10991 0 -547681 10606.4 0 -546287 10038.5 0 -545040 9303.15 0 -543992 8439.09 0 -543159 7486.12 0 -563993 5230.88 0 -563387 6959.88 0 -562372 8580.35 0 -561059 9986.61 0 -559525 11144.5 0 -557848 12045.7 0 -556085 12701.6 0 -554271 13126.4 0 -552432 13329.3 0 -550589 13311.6 0 -548766 13065.9 0 -546999 12580.4 0 -545340 11844.9 0 -543862 10868.1 0 -542636 9679.85 0 -541785 8384.67 0 -566628 5760.09 0 -565813 8118.53 0 -564539 10248.5 0 -562843 12013 0 -560919 13387.5 0 -558880 14410.4 0 -556791 15131.4 0 -554679 15590.9 0 -552553 15811 0 -550415 15793.1 0 -548274 15518.6 0 -546155 14950.6 0 -544119 14044 0 -542271 12763.4 0 -540794 11134.1 0 -539673 9272.73 0 -569948 6209.65 0 -569235 9683.41 0 -567308 12531.6 0 -564971 14669.1 0 -562476 16188.5 0 -559981 17245.9 0 -557527 17965.4 0 -555107 18424.5 0 -552693 18659.4 0 -550251 18671.7 0 -547755 18428.7 0 -545196 17858.4 0 -542614 16845.5 0 -540160 15247.2 0 -538052 12982.8 0 -537157 10120.5 0 -576199 7143.51 0 -573798 12166.3 0 -570792 16039.1 0 -567286 18312.4 0 -564010 19708.7 0 -561008 20598.1 0 -558211 21196 0 -555528 21598.9 0 -552875 21846.5 0 -550174 21939.4 0 -547342 21839.7 0 -544295 21455.6 0 -540969 20582.9 0 -537415 18877 0 -534350 15674.4 0 -531473 11563.3 0 -583850 6301.24 0 -581712 18574.9 0 -574444 21937.1 0 -569173 23319.2 0 -565094 23956.8 0 -561723 24382.3 0 -558724 24715.2 0 -555904 25005.8 0 -553132 25265.3 0 -550293 25492.4 0 -547260 25673.3 0 -543849 25756.3 0 -539745 25623.3 0 -534508 24754.6 0 -527432 21947.4 0 -526369 10410.4 0 -626633 41915.4 0 -586556 33579.5 0 -575272 30577.6 0 -569264 29127 0 -565209 28504.9 0 -561913 28281.2 0 -558982 28295.8 0 -556215 28458.2 0 -553486 28731.8 0 -550693 29113.2 0 -547715 29630.8 0 -544358 30364.7 0 -540249 31459.1 0 -534227 33319.9 0 -523039 36621.7 0 -482669 45107.6 0 </DataArray> 
</PointData> 
<Points> 
<DataArray type="Float32" NumberOfComponents="3"> 
0 0.052 0 0 0.0526667 0 0 0.0533333 0 0 0.054 0 0 0.0546667 0 0 0.0553333 0 0 0.056 0 0 0.0566667 0 0 0.0573333 0 0 0.058 0 0 0.0586667 0 0 0.0593333 0 0 0.06 0 0 0.0606667 0 0 0.0613333 0 0 0.062 0 0.000833333 0.052 0 0.000833333 0.0526667 0 0.000833333 0.0533333 0 0.000833333 0.054 0 0.000833333 0.0546667 0 0.000833333 0.0553333 0 0.000833333 0.056 0 0.000833333 0.0566667 0 0.000833333 0.0573333 0 0.000833333 0.058 0 0.000833333 0.0586667 0 0.000833333 0.0593333 0 0.000833333 0.06 0 0.000833333 0.0606667 0 0.000833333 0.0613333 0 0.000833333 0.062 0 0.00166667 0.052 0 0.00166667 0.0526667 0 0.00166667 0.0533333 0 0.00166667 0.054 0 0.00166667 0.0546667 0 0.00166667 0.0553333 0 0.00166667 0.056 0 0.00166667 0.0566667 0 0.00166667 0.0573333 0 0.00166667 0.058 0 0.00166667 0.0586667 0 0.00166667 0.0593333 0 0.00166667 0.06 0 0.00166667 0.0606667 0 0.00166667 0.0613333 0 0.00166667 0.062 0 0.0025 0.052 0 0.0025 0.0526667 0 0.0025 0.0533333 0 0.0025 0.054 0 0.0025 0.0546667 0 0.0025 0.0553333 0 0.0025 0.056 0 0.0025 0.0566667 0 0.0025 0.0573333 0 0.0025 0.058 0 0.0025 0.0586667 0 0.0025 0.0593333 0 0.0025 0.06 0 0.0025 0.0606667 0 0.0025 0.0613333 0 0.0025 0.062 0 0.00333333 0.052 0 0.00333333 0.0526667 0 0.00333333 0.0533333 0 0.00333333 0.054 0 0.00333333 0.0546667 0 0.00333333 0.0553333 0 0.00333333 0.056 0 0.00333333 0.0566667 0 0.00333333 0.0573333 0 0.00333333 0.058 0 0.00333333 0.0586667 0 0.00333333 0.0593333 0 0.00333333 0.06 0 0.00333333 0.0606667 0 0.00333333 0.0613333 0 0.00333333 0.062 0 0.00416667 0.052 0 0.00416667 0.0526667 0 0.00416667 0.0533333 0 0.00416667 0.054 0 0.00416667 0.0546667 0 0.00416667 0.0553333 0 0.00416667 0.056 0 0.00416667 0.0566667 0 0.00416667 0.0573333 0 0.00416667 0.058 0 0.00416667 0.0586667 0 0.00416667 0.0593333 0 0.00416667 0.06 0 0.00416667 0.0606667 0 0.00416667 0.0613333 0 0.00416667 0.062 0 0.005 0.052 0 0.005 0.0526667 0 0.005 0.0533333 0 0.005 0.054 0 0.005 0.0546667 0 0.005 0.0553333 0 0.005 0.056 0 0.005 0.0566667 0 0.005 0.0573333 0 0.005 0.058 0 0.005 0.0586667 0 0.005 0.0593333 0 0.005 0.06 0 0.005 0.0606667 0 0.005 0.0613333 0 0.005 0.062 0 0.00583333 0.052 0 0.00583333 0.0526667 0 0.00583333 0.0533333 0 0.00583333 0.054 0 0.00583333 0.0546667 0 0.00583333 0.0553333 0 0.00583333 0.056 0 0.00583333 0.0566667 0 0.00583333 0.0573333 0 0.00583333 0.058 0 0.00583333 0.0586667 0 0.00583333 0.0593333 0 0.00583333 0.06 0 0.00583333 0.0606667 0 0.00583333 0.0613333 0 0.00583333 0.062 0 0.00666667 0.052 0 0.00666667 0.0526667 0 0.00666667 0.0533333 0 0.00666667 0.054 0 0.00666667 0.0546667 0 0.00666667 0.0553333 0 0.00666667 0.056 0 0.00666667 0.0566667 0 0.00666667 0.0573333 0 0.00666667 0.058 0 0.00666667 0.0586667 0 0.00666667 0.0593333 0 0.00666667 0.06 0 0.00666667 0.0606667 0 0.00666667 0.0613333 0 0.00666667 0.062 0 0.0075 0.052 0 0.0075 0.0526667 0 0.0075 0.0533333 0 0.0075 0.054 0 0.0075 0.0546667 0 0.0075 0.0553333 0 0.0075 0.056 0 0.0075 0.0566667 0 0.0075 0.0573333 0 0.0075 0.058 0 0.0075 0.0586667 0 0.0075 0.0593333 0 0.0075 0.06 0 0.0075 0.0606667 0 0.0075 0.0613333 0 0.0075 0.062 0 0.00833333 0.052 0 0.00833333 0.0526667 0 0.00833333 0.0533333 0 0.00833333 0.054 0 0.00833333 0.0546667 0 0.00833333 0.0553333 0 0.00833333 0.056 0 0.00833333 0.0566667 0 0.00833333 0.0573333 0 0.00833333 0.058 0 0.00833333 0.0586667 0 0.00833333 0.0593333 0 0.00833333 0.06 0 0.00833333 0.0606667 0 0.00833333 0.0613333 0 0.00833333 0.062 0 0.00916667 0.052 0 0.00916667 0.0526667 0 0.00916667 0.0533333 0 0.00916667 0.054 0 0.00916667 0.0546667 0 0.00916667 0.0553333 0 0.00916667 0.056 0 0.00916667 0.0566667 0 0.00916667 0.0573333 0 0.00916667 0.058 0 0.00916667 0.0586667 0 0.00916667 0.0593333 0 0.00916667 0.06 0 0.00916667 0.0606667 0 0.00916667 0.0613333 0 0.00916667 0.062 0 0.01 0.052 0 0.01 0.0526667 0 0.01 0.0533333 0 0.01 0.054 0 0.01 0.0546667 0 0.01 0.0553333 0 0.01 0.056 0 0.01 0.0566667 0 0.01 0.0573333 0 0.01 0.058 0 0.01 0.0586667 0 0.01 0.0593333 0 0.01 0.06 0 0.01 0.0606667 0 0.01 0.0613333 0 0.01 0.062 0 0.0108333 0.052 0 0.0108333 0.0526667 0 0.0108333 0.0533333 0 0.0108333 0.054 0 0.0108333 0.0546667 0 0.0108333 0.0553333 0 0.0108333 0.056 0 0.0108333 0.0566667 0 0.0108333 0.0573333 0 0.0108333 0.058 0 0.0108333 0.0586667 0 0.0108333 0.0593333 0 0.0108333 0.06 0 0.0108333 0.0606667 0 0.0108333 0.0613333 0 0.0108333 0.062 0 0.0116667 0.052 0 0.0116667 0.0526667 0 0.0116667 0.0533333 0 0.0116667 0.054 0 0.0116667 0.0546667 0 0.0116667 0.0553333 0 0.0116667 0.056 0 0.0116667 0.0566667 0 0.0116667 0.0573333 0 0.0116667 0.058 0 0.0116667 0.0586667 0 0.0116667 0.0593333 0 0.0116667 0.06 0 0.0116667 0.0606667 0 0.0116667 0.0613333 0 0.0116667 0.062 0 0.0125 0.052 0 0.0125 0.0526667 0 0.0125 0.0533333 0 0.0125 0.054 0 0.0125 0.0546667 0 0.0125 0.0553333 0 0.0125 0.056 0 0.0125 0.0566667 0 0.0125 0.0573333 0 0.0125 0.058 0 0.0125 0.0586667 0 0.0125 0.0593333 0 0.0125 0.06 0 0.0125 0.0606667 0 0.0125 0.0613333 0 0.0125 0.062 0 
</DataArray>
</Points> 
</Piece> 
</StructuredGrid> 
</VTKFile> 
