<?xml version="1.0"?> 
<VTKFile type="StructuredGrid" version="0.1"> 
<StructuredGrid WholeExtent="0 15 0 15 0 0"> 
<Piece Extent="0 15 0 15 0 0"> 
<PointData>
<DataArray type="Float32" Name="E" format="ascii" NumberOfComponents="3"> 
-679243 0 0 -679216 0 0 -679134 0 0 -678997 0 0 -678806 0 0 -678561 0 0 -678261 0 0 -677906 0 0 -677498 0 0 -677035 0 0 -676519 0 0 -675949 0 0 -675325 0 0 -674648 0 0 -673918 0 0 -673135 0 0 -679327 0.000528687 0 -679300 93.1393 0 -679218 186.244 0 -679081 279.281 0 -678890 372.216 0 -678644 465.016 0 -678344 557.646 0 -677989 650.074 0 -677580 742.267 0 -677118 834.193 0 -676601 925.825 0 -676031 1017.15 0 -675407 1108.14 0 -674729 1198.83 0 -673999 1289.25 0 -673216 1379.5 0 -679569 0.00104935 0 -679541 186.376 0 -679459 372.683 0 -679322 558.854 0 -679131 744.823 0 -678885 930.523 0 -678584 1115.88 0 -678229 1300.84 0 -677819 1485.31 0 -677356 1669.25 0 -676838 1852.58 0 -676267 2035.24 0 -675642 2217.22 0 -674964 2398.49 0 -674233 2579.08 0 -673450 2759.12 0 -679969 0.00154958 0 -679942 279.804 0 -679859 559.507 0 -679722 839.009 0 -679530 1118.21 0 -679283 1397.01 0 -678982 1675.31 0 -678626 1952.99 0 -678215 2229.95 0 -677750 2506.08 0 -677231 2781.26 0 -676658 3055.4 0 -676032 3328.39 0 -675352 3600.15 0 -674620 3870.65 0 -673835 4139.89 0 -680528 0.00201029 0 -680501 373.516 0 -680418 746.901 0 -680280 1120.02 0 -680087 1492.76 0 -679840 1864.97 0 -679537 2236.51 0 -679180 2607.25 0 -678768 2977.02 0 -678301 3345.67 0 -677780 3713.03 0 -677205 4078.92 0 -676576 4443.16 0 -675894 4805.57 0 -675158 5165.96 0 -674370 5524.15 0 -681246 0.00240648 0 -681219 467.597 0 -681136 935.035 0 -680997 1402.16 0 -680804 1868.82 0 -680555 2334.84 0 -680251 2800.06 0 -679892 3264.3 0 -679478 3727.36 0 -679009 4189.02 0 -678485 4649.07 0 -677907 5107.26 0 -677275 5563.3 0 -676588 6016.89 0 -675848 6467.7 0 -675055 6915.31 0 -682125 0.00271096 0 -682097 562.117 0 -682014 1124.06 0 -681875 1685.64 0 -681680 2246.7 0 -681430 2807.04 0 -681124 3366.47 0 -680763 3924.77 0 -680347 4481.73 0 -679875 5037.08 0 -679348 5590.55 0 -678766 6141.83 0 -678129 6690.56 0 -677438 7236.35 0 -676692 7778.71 0 -675893 8317.06 0 -683164 0.00289948 0 -683136 657.134 0 -683052 1314.08 0 -682912 1970.64 0 -682717 2626.64 0 -682465 3281.87 0 -682158 3936.12 0 -681794 4589.16 0 -681375 5240.74 0 -680901 5890.59 0 -680370 6538.39 0 -679784 7183.79 0 -679142 7826.4 0 -678445 8465.76 0 -677693 9101.32 0 -676885 9732.4 0 -684365 0.0029555 0 -684337 752.682 0 -684253 1505.17 0 -684112 2257.27 0 -683915 3008.8 0 -683662 3759.54 0 -683353 4509.27 0 -682987 5257.78 0 -682565 6004.79 0 -682087 6750.02 0 -681553 7493.17 0 -680962 8233.86 0 -680315 8971.7 0 -679612 9706.22 0 -678852 10436.9 0 -678036 11163 0 -685729 0.00287308 0 -685700 848.771 0 -685616 1697.35 0 -685474 2545.56 0 -685276 3393.2 0 -685022 4240.09 0 -684710 5086 0 -684342 5930.71 0 -683918 6773.98 0 -683436 7615.52 0 -682898 8455.05 0 -682303 9292.23 0 -681651 10126.7 0 -680942 10957.9 0 -680175 11785.5 0 -679351 12608.9 0 -687256 0.00265723 0 -687227 945.385 0 -687142 1890.6 0 -687000 2835.46 0 -686801 3779.81 0 -686545 4723.45 0 -686232 5666.19 0 -685862 6607.83 0 -685434 7548.15 0 -684950 8486.89 0 -684408 9423.78 0 -683809 10358.5 0 -683152 11290.8 0 -682437 12220.3 0 -681664 13146.5 0 -680833 14069.1 0 -688947 0.00232199 0 -688919 1042.49 0 -688833 2084.82 0 -688690 3126.85 0 -688490 4168.43 0 -688233 5209.39 0 -687918 6249.58 0 -687546 7288.8 0 -687117 8326.88 0 -686629 9363.6 0 -686084 10398.7 0 -685482 11432 0 -684820 12463.3 0 -684101 13492.1 0 -683322 14518.3 0 -682485 15541.4 0 -690804 0.00188707 0 -690775 1140.01 0 -690689 2279.9 0 -690546 3419.54 0 -690345 4558.82 0 -690086 5697.6 0 -689770 6835.74 0 -689397 7973.11 0 -688965 9109.56 0 -688476 10244.9 0 -687928 11379 0 -687322 12511.6 0 -686658 13642.6 0 -685934 14771.7 0 -685151 15898.8 0 -684309 17023.5 0 -692826 0.00137429 0 -692797 1237.88 0 -692711 2475.68 0 -692567 3713.29 0 -692366 4950.64 0 -692106 6187.62 0 -691789 7424.15 0 -691414 8660.11 0 -690982 9895.4 0 -690490 11129.9 0 -689941 12363.5 0 -689333 13596.1 0 -688665 14827.4 0 -687939 16057.4 0 -687153 17286 0 -686307 18513 0 -695015 0.000803765 0 -694986 1336.01 0 -694899 2671.96 0 -694755 4007.81 0 -694553 5343.5 0 -694293 6678.98 0 -693976 8014.19 0 -693600 9349.06 0 -693166 10683.5 0 -692674 12017.6 0 -692123 13351 0 -691513 14683.9 0 -690844 16016.2 0 -690116 17347.6 0 -689327 18678.1 0 -688480 20006.7 0 -697370 0.000190623 0 -697341 1434.28 0 -697254 2868.54 0 -697110 4302.78 0 -696908 5736.98 0 -696648 7171.12 0 -696330 8605.19 0 -695954 10039.2 0 -695519 11473 0 -695026 12906.7 0 -694475 14340.3 0 -693864 15773.7 0 -693195 17207 0 -692466 18640.4 0 -691676 20074.2 0 -690821 21510.7 0 </DataArray> 
</PointData> 
<Points> 
<DataArray type="Float32" NumberOfComponents="3"> 
0 0 0 0 0.0018 0 0 0.0036 0 0 0.0054 0 0 0.0072 0 0 0.009 0 0 0.0108 0 0 0.0126 0 0 0.0144 0 0 0.0162 0 0 0.018 0 0 0.0198 0 0 0.0216 0 0 0.0234 0 0 0.0252 0 0 0.027 0 0.00306667 0 0 0.00306667 0.0018 0 0.00306667 0.0036 0 0.00306667 0.0054 0 0.00306667 0.0072 0 0.00306667 0.009 0 0.00306667 0.0108 0 0.00306667 0.0126 0 0.00306667 0.0144 0 0.00306667 0.0162 0 0.00306667 0.018 0 0.00306667 0.0198 0 0.00306667 0.0216 0 0.00306667 0.0234 0 0.00306667 0.0252 0 0.00306667 0.027 0 0.00613333 0 0 0.00613333 0.0018 0 0.00613333 0.0036 0 0.00613333 0.0054 0 0.00613333 0.0072 0 0.00613333 0.009 0 0.00613333 0.0108 0 0.00613333 0.0126 0 0.00613333 0.0144 0 0.00613333 0.0162 0 0.00613333 0.018 0 0.00613333 0.0198 0 0.00613333 0.0216 0 0.00613333 0.0234 0 0.00613333 0.0252 0 0.00613333 0.027 0 0.0092 0 0 0.0092 0.0018 0 0.0092 0.0036 0 0.0092 0.0054 0 0.0092 0.0072 0 0.0092 0.009 0 0.0092 0.0108 0 0.0092 0.0126 0 0.0092 0.0144 0 0.0092 0.0162 0 0.0092 0.018 0 0.0092 0.0198 0 0.0092 0.0216 0 0.0092 0.0234 0 0.0092 0.0252 0 0.0092 0.027 0 0.0122667 0 0 0.0122667 0.0018 0 0.0122667 0.0036 0 0.0122667 0.0054 0 0.0122667 0.0072 0 0.0122667 0.009 0 0.0122667 0.0108 0 0.0122667 0.0126 0 0.0122667 0.0144 0 0.0122667 0.0162 0 0.0122667 0.018 0 0.0122667 0.0198 0 0.0122667 0.0216 0 0.0122667 0.0234 0 0.0122667 0.0252 0 0.0122667 0.027 0 0.0153333 0 0 0.0153333 0.0018 0 0.0153333 0.0036 0 0.0153333 0.0054 0 0.0153333 0.0072 0 0.0153333 0.009 0 0.0153333 0.0108 0 0.0153333 0.0126 0 0.0153333 0.0144 0 0.0153333 0.0162 0 0.0153333 0.018 0 0.0153333 0.0198 0 0.0153333 0.0216 0 0.0153333 0.0234 0 0.0153333 0.0252 0 0.0153333 0.027 0 0.0184 0 0 0.0184 0.0018 0 0.0184 0.0036 0 0.0184 0.0054 0 0.0184 0.0072 0 0.0184 0.009 0 0.0184 0.0108 0 0.0184 0.0126 0 0.0184 0.0144 0 0.0184 0.0162 0 0.0184 0.018 0 0.0184 0.0198 0 0.0184 0.0216 0 0.0184 0.0234 0 0.0184 0.0252 0 0.0184 0.027 0 0.0214667 0 0 0.0214667 0.0018 0 0.0214667 0.0036 0 0.0214667 0.0054 0 0.0214667 0.0072 0 0.0214667 0.009 0 0.0214667 0.0108 0 0.0214667 0.0126 0 0.0214667 0.0144 0 0.0214667 0.0162 0 0.0214667 0.018 0 0.0214667 0.0198 0 0.0214667 0.0216 0 0.0214667 0.0234 0 0.0214667 0.0252 0 0.0214667 0.027 0 0.0245333 0 0 0.0245333 0.0018 0 0.0245333 0.0036 0 0.0245333 0.0054 0 0.0245333 0.0072 0 0.0245333 0.009 0 0.0245333 0.0108 0 0.0245333 0.0126 0 0.0245333 0.0144 0 0.0245333 0.0162 0 0.0245333 0.018 0 0.0245333 0.0198 0 0.0245333 0.0216 0 0.0245333 0.0234 0 0.0245333 0.0252 0 0.0245333 0.027 0 0.0276 0 0 0.0276 0.0018 0 0.0276 0.0036 0 0.0276 0.0054 0 0.0276 0.0072 0 0.0276 0.009 0 0.0276 0.0108 0 0.0276 0.0126 0 0.0276 0.0144 0 0.0276 0.0162 0 0.0276 0.018 0 0.0276 0.0198 0 0.0276 0.0216 0 0.0276 0.0234 0 0.0276 0.0252 0 0.0276 0.027 0 0.0306667 0 0 0.0306667 0.0018 0 0.0306667 0.0036 0 0.0306667 0.0054 0 0.0306667 0.0072 0 0.0306667 0.009 0 0.0306667 0.0108 0 0.0306667 0.0126 0 0.0306667 0.0144 0 0.0306667 0.0162 0 0.0306667 0.018 0 0.0306667 0.0198 0 0.0306667 0.0216 0 0.0306667 0.0234 0 0.0306667 0.0252 0 0.0306667 0.027 0 0.0337333 0 0 0.0337333 0.0018 0 0.0337333 0.0036 0 0.0337333 0.0054 0 0.0337333 0.0072 0 0.0337333 0.009 0 0.0337333 0.0108 0 0.0337333 0.0126 0 0.0337333 0.0144 0 0.0337333 0.0162 0 0.0337333 0.018 0 0.0337333 0.0198 0 0.0337333 0.0216 0 0.0337333 0.0234 0 0.0337333 0.0252 0 0.0337333 0.027 0 0.0368 0 0 0.0368 0.0018 0 0.0368 0.0036 0 0.0368 0.0054 0 0.0368 0.0072 0 0.0368 0.009 0 0.0368 0.0108 0 0.0368 0.0126 0 0.0368 0.0144 0 0.0368 0.0162 0 0.0368 0.018 0 0.0368 0.0198 0 0.0368 0.0216 0 0.0368 0.0234 0 0.0368 0.0252 0 0.0368 0.027 0 0.0398667 0 0 0.0398667 0.0018 0 0.0398667 0.0036 0 0.0398667 0.0054 0 0.0398667 0.0072 0 0.0398667 0.009 0 0.0398667 0.0108 0 0.0398667 0.0126 0 0.0398667 0.0144 0 0.0398667 0.0162 0 0.0398667 0.018 0 0.0398667 0.0198 0 0.0398667 0.0216 0 0.0398667 0.0234 0 0.0398667 0.0252 0 0.0398667 0.027 0 0.0429333 0 0 0.0429333 0.0018 0 0.0429333 0.0036 0 0.0429333 0.0054 0 0.0429333 0.0072 0 0.0429333 0.009 0 0.0429333 0.0108 0 0.0429333 0.0126 0 0.0429333 0.0144 0 0.0429333 0.0162 0 0.0429333 0.018 0 0.0429333 0.0198 0 0.0429333 0.0216 0 0.0429333 0.0234 0 0.0429333 0.0252 0 0.0429333 0.027 0 0.046 0 0 0.046 0.0018 0 0.046 0.0036 0 0.046 0.0054 0 0.046 0.0072 0 0.046 0.009 0 0.046 0.0108 0 0.046 0.0126 0 0.046 0.0144 0 0.046 0.0162 0 0.046 0.018 0 0.046 0.0198 0 0.046 0.0216 0 0.046 0.0234 0 0.046 0.0252 0 0.046 0.027 0 
</DataArray>
</Points> 
</Piece> 
</StructuredGrid> 
</VTKFile> 
