<?xml version="1.0"?> 
<VTKFile type="StructuredGrid" version="0.1"> 
<StructuredGrid WholeExtent="0 15 0 15 0 0"> 
<Piece Extent="0 15 0 15 0 0"> 
<PointData>
<DataArray type="Float32" Name="E" format="ascii" NumberOfComponents="3"> 
-546626 0 0 -544796 0 0 -542969 0 0 -541144 0 0 -539322 0 0 -537503 0 0 -535688 0 0 -533876 0 0 -532068 0 0 -530262 0 0 -528461 0 0 -526663 0 0 -524869 0 0 -523079 0 0 -521292 0 0 -519510 0 0 -546601 7635.24 0 -544159 7619.18 0 -541723 7601.87 0 -539292 7583.41 0 -536867 7563.96 0 -534449 7543.66 0 -532037 7522.63 0 -529632 7501.01 0 -527234 7478.94 0 -524843 7456.52 0 -522460 7433.88 0 -520084 7411.13 0 -517715 7388.37 0 -515353 7365.69 0 -512999 7343.16 0 -510652 7320.86 0 -546526 15284.8 0 -543467 15242.4 0 -540417 15196 0 -537378 15146.4 0 -534349 15094 0 -531333 15039.5 0 -528328 14983.3 0 -525335 14925.9 0 -522354 14867.8 0 -519386 14809.5 0 -516430 14751.2 0 -513486 14693.4 0 -510554 14636.3 0 -507634 14580.2 0 -504726 14525.3 0 -501828 14471.8 0 -546395 22962.9 0 -542709 22880 0 -539040 22789.1 0 -535389 22691.7 0 -531757 22589.5 0 -528145 22483.7 0 -524553 22375.8 0 -520980 22267 0 -517427 22158.3 0 -513894 22050.8 0 -510378 21945.3 0 -506881 21842.4 0 -503401 21742.7 0 -499938 21646.7 0 -496490 21554.6 0 -493056 21466.8 0 -546194 30683.4 0 -541870 30540.8 0 -537575 30384.1 0 -533311 30217.3 0 -529079 30043.6 0 -524878 29866.4 0 -520709 29688.3 0 -516569 29511.8 0 -512459 29338.9 0 -508375 29171.3 0 -504318 29010.2 0 -500285 28856.6 0 -496273 28711.1 0 -492282 28574.1 0 -488310 28445.9 0 -484355 28326.3 0 -545906 38461.8 0 -540930 38230.8 0 -536004 37979.5 0 -531129 37714.6 0 -526303 37443.4 0 -521527 37171.5 0 -516797 36904.1 0 -512109 36645.1 0 -507461 36397.5 0 -502849 36163.4 0 -498269 35944.1 0 -493718 35740.2 0 -489192 35552 0 -484689 35379.3 0 -480206 35221.4 0 -475740 35077.8 0 -545504 46309.8 0 -539863 45953.2 0 -534303 45567 0 -528824 45168 0 -523422 44767.8 0 -518091 44377 0 -512825 44003.1 0 -507616 43651.2 0 -502455 43324.6 0 -497337 43024.8 0 -492255 42751.9 0 -487204 42505.3 0 -482178 42283.7 0 -477173 42085.5 0 -472188 41908.8 0 -467218 41751.8 0 -544951 54247.2 0 -538631 53703.6 0 -532442 53130.2 0 -526379 52550.6 0 -520429 51987.5 0 -514579 51455.3 0 -508812 50963.8 0 -503113 50517.3 0 -497468 50117 0 -491867 49761.3 0 -486301 49447.4 0 -480762 49171.7 0 -475245 48930.6 0 -469746 48720.2 0 -464262 48537.2 0 -458789 48378.2 0 -544201 62276.5 0 -537187 61473.7 0 -530388 60636.9 0 -523780 59823.2 0 -517332 59063 0 -511011 58376 0 -504787 57768.1 0 -498633 57238.5 0 -492530 56781 0 -486464 56388.2 0 -480424 56052 0 -474405 55764.8 0 -468401 55519.7 0 -462407 55310.8 0 -456423 55133.1 0 -450445 54981.9 0 -543159 70433.3 0 -535468 69230.9 0 -528102 68036.9 0 -521021 66926.6 0 -514151 65948.1 0 -507424 65111 0 -500789 64407.9 0 -494211 63821.9 0 -487668 63334.8 0 -481147 62929.9 0 -474638 62592.7 0 -468139 62311.5 0 -461644 62076.9 0 -455152 61881.1 0 -448663 61717.9 0 -442175 61582 0 -541785 78696.7 0 -533375 76929.9 0 -525551 75237.8 0 -518122 73783.9 0 -510933 72594 0 -503870 71645.2 0 -496864 70891.1 0 -489882 70289.7 0 -482905 69806.4 0 -475927 69415.2 0 -468945 69096.7 0 -461959 68836.5 0 -454967 68623.5 0 -447971 68449.2 0 -440970 68307 0 -433966 68191.4 0 -539673 87122.3 0 -530807 84442.9 0 -522713 82098.3 0 -515141 80297.2 0 -507759 78969.6 0 -500415 77987.3 0 -493057 77247 0 -485667 76676.4 0 -478249 76228.8 0 -470804 75873 0 -463339 75588.1 0 -455856 75359.2 0 -448359 75175.2 0 -440850 75027.8 0 -433332 74910.5 0 -425804 74818.1 0 -537157 95758.7 0 -527488 91497.5 0 -519659 88387.5 0 -512215 86386.9 0 -504732 85084.4 0 -497123 84181.1 0 -489392 83522.4 0 -481577 83022.1 0 -473696 82633.2 0 -465770 82327.1 0 -457808 82084.8 0 -449819 81893.1 0 -441808 81742.2 0 -433779 81624.5 0 -425736 81534.2 0 -417681 81466.3 0 -531473 104133 0 -523494 97524.6 0 -516589 93790.7 0 -509562 92079.3 0 -501963 91010.2 0 -494022 90300.5 0 -485878 89769.8 0 -477600 89362.7 0 -469236 89044.2 0 -460811 88794.1 0 -452340 88598.4 0 -443835 88446.6 0 -435302 88330.5 0 -426747 88243.7 0 -418174 88181 0 -409585 88138.1 0 -526369 113601 0 -517955 100227 0 -514391 98560.2 0 -507370 97479.4 0 -499497 96904.7 0 -491118 96418.5 0 -482491 96033.5 0 -473721 95723.6 0 -464851 95477 0 -455913 95284.1 0 -446923 95135.7 0 -437893 95024.3 0 -428832 94943.2 0 -419745 94887.3 0 -410636 94852.1 0 -401509 94833.9 0 -482669 93494.6 0 -518111 101720 0 -513019 102816 0 -505835 103068 0 -497272 102858 0 -488356 102598 0 -479208 102338 0 -469915 102118 0 -460526 101939 0 -451064 101802 0 -441546 101700 0 -431985 101628 0 -422389 101581 0 -412765 101556 0 -403117 101548 0 -393448 101555 0 </DataArray> 
</PointData> 
<Points> 
<DataArray type="Float32" NumberOfComponents="3"> 
0 0.062 0 0 0.0622 0 0 0.0624 0 0 0.0626 0 0 0.0628 0 0 0.063 0 0 0.0632 0 0 0.0634 0 0 0.0636 0 0 0.0638 0 0 0.064 0 0 0.0642 0 0 0.0644 0 0 0.0646 0 0 0.0648 0 0 0.065 0 0.000833333 0.062 0 0.000833333 0.0622667 0 0.000833333 0.0625333 0 0.000833333 0.0628 0 0.000833333 0.0630667 0 0.000833333 0.0633333 0 0.000833333 0.0636 0 0.000833333 0.0638667 0 0.000833333 0.0641333 0 0.000833333 0.0644 0 0.000833333 0.0646667 0 0.000833333 0.0649333 0 0.000833333 0.0652 0 0.000833333 0.0654667 0 0.000833333 0.0657333 0 0.000833333 0.066 0 0.00166667 0.062 0 0.00166667 0.0623333 0 0.00166667 0.0626667 0 0.00166667 0.063 0 0.00166667 0.0633333 0 0.00166667 0.0636667 0 0.00166667 0.064 0 0.00166667 0.0643333 0 0.00166667 0.0646667 0 0.00166667 0.065 0 0.00166667 0.0653333 0 0.00166667 0.0656667 0 0.00166667 0.066 0 0.00166667 0.0663333 0 0.00166667 0.0666667 0 0.00166667 0.067 0 0.0025 0.062 0 0.0025 0.0624 0 0.0025 0.0628 0 0.0025 0.0632 0 0.0025 0.0636 0 0.0025 0.064 0 0.0025 0.0644 0 0.0025 0.0648 0 0.0025 0.0652 0 0.0025 0.0656 0 0.0025 0.066 0 0.0025 0.0664 0 0.0025 0.0668 0 0.0025 0.0672 0 0.0025 0.0676 0 0.0025 0.068 0 0.00333333 0.062 0 0.00333333 0.0624667 0 0.00333333 0.0629333 0 0.00333333 0.0634 0 0.00333333 0.0638667 0 0.00333333 0.0643333 0 0.00333333 0.0648 0 0.00333333 0.0652667 0 0.00333333 0.0657333 0 0.00333333 0.0662 0 0.00333333 0.0666667 0 0.00333333 0.0671333 0 0.00333333 0.0676 0 0.00333333 0.0680667 0 0.00333333 0.0685333 0 0.00333333 0.069 0 0.00416667 0.062 0 0.00416667 0.0625333 0 0.00416667 0.0630667 0 0.00416667 0.0636 0 0.00416667 0.0641333 0 0.00416667 0.0646667 0 0.00416667 0.0652 0 0.00416667 0.0657333 0 0.00416667 0.0662667 0 0.00416667 0.0668 0 0.00416667 0.0673333 0 0.00416667 0.0678667 0 0.00416667 0.0684 0 0.00416667 0.0689333 0 0.00416667 0.0694667 0 0.00416667 0.07 0 0.005 0.062 0 0.005 0.0626 0 0.005 0.0632 0 0.005 0.0638 0 0.005 0.0644 0 0.005 0.065 0 0.005 0.0656 0 0.005 0.0662 0 0.005 0.0668 0 0.005 0.0674 0 0.005 0.068 0 0.005 0.0686 0 0.005 0.0692 0 0.005 0.0698 0 0.005 0.0704 0 0.005 0.071 0 0.00583333 0.062 0 0.00583333 0.0626667 0 0.00583333 0.0633333 0 0.00583333 0.064 0 0.00583333 0.0646667 0 0.00583333 0.0653333 0 0.00583333 0.066 0 0.00583333 0.0666667 0 0.00583333 0.0673333 0 0.00583333 0.068 0 0.00583333 0.0686667 0 0.00583333 0.0693333 0 0.00583333 0.07 0 0.00583333 0.0706667 0 0.00583333 0.0713333 0 0.00583333 0.072 0 0.00666667 0.062 0 0.00666667 0.0627333 0 0.00666667 0.0634667 0 0.00666667 0.0642 0 0.00666667 0.0649333 0 0.00666667 0.0656667 0 0.00666667 0.0664 0 0.00666667 0.0671333 0 0.00666667 0.0678667 0 0.00666667 0.0686 0 0.00666667 0.0693333 0 0.00666667 0.0700667 0 0.00666667 0.0708 0 0.00666667 0.0715333 0 0.00666667 0.0722667 0 0.00666667 0.073 0 0.0075 0.062 0 0.0075 0.0628 0 0.0075 0.0636 0 0.0075 0.0644 0 0.0075 0.0652 0 0.0075 0.066 0 0.0075 0.0668 0 0.0075 0.0676 0 0.0075 0.0684 0 0.0075 0.0692 0 0.0075 0.07 0 0.0075 0.0708 0 0.0075 0.0716 0 0.0075 0.0724 0 0.0075 0.0732 0 0.0075 0.074 0 0.00833333 0.062 0 0.00833333 0.0628667 0 0.00833333 0.0637333 0 0.00833333 0.0646 0 0.00833333 0.0654667 0 0.00833333 0.0663333 0 0.00833333 0.0672 0 0.00833333 0.0680667 0 0.00833333 0.0689333 0 0.00833333 0.0698 0 0.00833333 0.0706667 0 0.00833333 0.0715333 0 0.00833333 0.0724 0 0.00833333 0.0732667 0 0.00833333 0.0741333 0 0.00833333 0.075 0 0.00916667 0.062 0 0.00916667 0.0629333 0 0.00916667 0.0638667 0 0.00916667 0.0648 0 0.00916667 0.0657333 0 0.00916667 0.0666667 0 0.00916667 0.0676 0 0.00916667 0.0685333 0 0.00916667 0.0694667 0 0.00916667 0.0704 0 0.00916667 0.0713333 0 0.00916667 0.0722667 0 0.00916667 0.0732 0 0.00916667 0.0741333 0 0.00916667 0.0750667 0 0.00916667 0.076 0 0.01 0.062 0 0.01 0.063 0 0.01 0.064 0 0.01 0.065 0 0.01 0.066 0 0.01 0.067 0 0.01 0.068 0 0.01 0.069 0 0.01 0.07 0 0.01 0.071 0 0.01 0.072 0 0.01 0.073 0 0.01 0.074 0 0.01 0.075 0 0.01 0.076 0 0.01 0.077 0 0.0108333 0.062 0 0.0108333 0.0630667 0 0.0108333 0.0641333 0 0.0108333 0.0652 0 0.0108333 0.0662667 0 0.0108333 0.0673333 0 0.0108333 0.0684 0 0.0108333 0.0694667 0 0.0108333 0.0705333 0 0.0108333 0.0716 0 0.0108333 0.0726667 0 0.0108333 0.0737333 0 0.0108333 0.0748 0 0.0108333 0.0758667 0 0.0108333 0.0769333 0 0.0108333 0.078 0 0.0116667 0.062 0 0.0116667 0.0631333 0 0.0116667 0.0642667 0 0.0116667 0.0654 0 0.0116667 0.0665333 0 0.0116667 0.0676667 0 0.0116667 0.0688 0 0.0116667 0.0699333 0 0.0116667 0.0710667 0 0.0116667 0.0722 0 0.0116667 0.0733333 0 0.0116667 0.0744667 0 0.0116667 0.0756 0 0.0116667 0.0767333 0 0.0116667 0.0778667 0 0.0116667 0.079 0 0.0125 0.062 0 0.0125 0.0632 0 0.0125 0.0644 0 0.0125 0.0656 0 0.0125 0.0668 0 0.0125 0.068 0 0.0125 0.0692 0 0.0125 0.0704 0 0.0125 0.0716 0 0.0125 0.0728 0 0.0125 0.074 0 0.0125 0.0752 0 0.0125 0.0764 0 0.0125 0.0776 0 0.0125 0.0788 0 0.0125 0.08 0 
</DataArray>
</Points> 
</Piece> 
</StructuredGrid> 
</VTKFile> 
