<?xml version="1.0"?> 
<VTKFile type="StructuredGrid" version="0.1"> 
<StructuredGrid WholeExtent="0 15 0 15 0 0"> 
<Piece Extent="0 15 0 15 0 0"> 
<PointData>
<DataArray type="Float32" Name="E" format="ascii" NumberOfComponents="3"> 
1.52789e+06 156.692 0 1.51404e+06 89593.9 0 1.50335e+06 181146 0 1.495e+06 275823 0 1.4888e+06 374867 0 1.48465e+06 479810 0 1.48259e+06 592596 0 1.48281e+06 715769 0 1.48571e+06 852784 0 1.49197e+06 1.00851e+06 0 1.50273e+06 1.19009e+06 0 1.51975e+06 1.40839e+06 0 1.54574e+06 1.6806e+06 0 1.5854e+06 2.0344e+06 0 1.6465e+06 2.51534e+06 0 1.7767e+06 3.18944e+06 0 1.47566e+06 -134.403 0 1.46316e+06 87796 0 1.45258e+06 177596 0 1.44366e+06 270456 0 1.43612e+06 367588 0 1.42978e+06 470498 0 1.42452e+06 581079 0 1.42025e+06 701806 0 1.41693e+06 836033 0 1.41458e+06 988479 0 1.41321e+06 1.16602e+06 0 1.41278e+06 1.37914e+06 0 1.41287e+06 1.64417e+06 0 1.41298e+06 1.98848e+06 0 1.41146e+06 2.45562e+06 0 1.42591e+06 3.13525e+06 0 1.42298e+06 -172.343 0 1.41129e+06 86091 0 1.40084e+06 174244 0 1.39134e+06 265371 0 1.38251e+06 360672 0 1.37409e+06 461600 0 1.36577e+06 569987 0 1.35722e+06 688214 0 1.348e+06 819496 0 1.33749e+06 968332 0 1.32469e+06 1.14123e+06 0 1.30788e+06 1.34807e+06 0 1.28383e+06 1.60407e+06 0 1.24687e+06 1.93509e+06 0 1.18551e+06 2.38223e+06 0 1.08683e+06 3.03892e+06 0 1.36968e+06 -194.473 0 1.3587e+06 84536 0 1.34833e+06 171142 0 1.33827e+06 260649 0 1.32821e+06 354212 0 1.31777e+06 453231 0 1.30652e+06 559457 0 1.29388e+06 675160 0 1.27905e+06 803379 0 1.2608e+06 948337 0 1.23723e+06 1.11608e+06 0 1.2051e+06 1.31569e+06 0 1.15864e+06 1.56098e+06 0 1.08739e+06 1.87528e+06 0 970681 2.29562e+06 0 768054 2.90656e+06 0 1.31599e+06 -209.758 0 1.30563e+06 83147.3 0 1.2953e+06 168343 0 1.2847e+06 256357 0 1.27344e+06 348294 0 1.26107e+06 445492 0 1.24701e+06 549611 0 1.23045e+06 662787 0 1.21025e+06 787858 0 1.18467e+06 928716 0 1.15096e+06 1.09086e+06 0 1.10455e+06 1.2824e+06 0 1.03744e+06 1.51549e+06 0 934981 1.80998e+06 0 768617 2.19721e+06 0 475961 2.74407e+06 0 1.26211e+06 -219.957 0 1.25232e+06 81941.9 0 1.24201e+06 165886 0 1.23086e+06 252550 0 1.21844e+06 342988 0 1.20421e+06 438465 0 1.18744e+06 540544 0 1.16713e+06 651210 0 1.14181e+06 773071 0 1.10927e+06 909644 0 1.06603e+06 1.06581e+06 0 1.00635e+06 1.24855e+06 0 920351 1.46807e+06 0 789995 1.74011e+06 0 580623 2.08879e+06 0 215233 2.55771e+06 0 1.20829e+06 -224.552 0 1.19901e+06 80933 0 1.18872e+06 163798 0 1.17704e+06 249268 0 1.16349e+06 338341 0 1.14745e+06 432210 0 1.12807e+06 532324 0 1.10414e+06 640509 0 1.07393e+06 759115 0 1.03478e+06 891242 0 982578 1.04108e+06 0 910625 1.21436e+06 0 807529 1.41914e+06 0 652784 1.66648e+06 0 407705 1.97225e+06 0 -11077.5 2.35409e+06 0 1.15473e+06 -222.856 0 1.14597e+06 80128 0 1.13569e+06 162093 0 1.12348e+06 246530 0 1.10884e+06 334381 0 1.09105e+06 426755 0 1.06914e+06 524989 0 1.04173e+06 630726 0 1.00681e+06 746039 0 961378 873576 0 900779 1.01677e+06 0 817536 1.18001e+06 0 699149 1.36899e+06 0 523660 1.58984e+06 0 250614 1.84949e+06 0 -201517 2.13991e+06 0 1.10167e+06 -214.615 0 1.09343e+06 79527.6 0 1.08317e+06 160774 0 1.07047e+06 244340 0 1.05476e+06 331108 0 1.03527e+06 422105 0 1.0109e+06 518538 0 980108 621862 0 940672 733847 0 889266 856654 0 820803 992903 0 727245 1.14557e+06 0 595410 1.31783e+06 0 402916 1.51085e+06 0 109872 1.72236e+06 0 -356136 1.92153e+06 0 1.04933e+06 -199.741 0 1.04163e+06 79125.6 0 1.03142e+06 159829 0 1.01825e+06 242681 0 1.00151e+06 328504 0 980347 418233 0 953575 512942 0 919508 613880 0 875720 722495 0 818629 840430 0 742829 969445 0 639934 1.11105e+06 0 496534 1.2658e+06 0 290823 1.43007e+06 0 -14208.6 1.59265e+06 0 -476288 1.70471e+06 0 997893 -178.51 0 990797 78909.4 0 980672 159234 0 967061 241521 0 949313 326525 0 926517 415087 0 897393 508138 0 860132 606706 0 812144 711898 0 749650 824811 0 667036 946303 0 555797 1.07639e+06 0 402762 1.21299e+06 0 187644 1.34802e+06 0 -121530 1.46209e+06 0 -564337 1.49427e+06 0 947563 -151.497 0 941129 78860.9 0 931135 158957 0 917114 240812 0 898384 325113 0 873981 412596 0 842546 504039 0 802165 600239 0 750121 701939 0 682501 809665 0 593605 923349 0 475038 1.0415e+06 0 314345 1.15947e+06 0 93626.4 1.26517e+06 0 -212201 1.33234e+06 0 -623306 1.29399e+06 0 898504 -119.599 0 892811 78957.6 0 882998 158957 0 868598 240498 0 848908 324193 0 822916 410669 0 789202 500540 0 745767 594354 0 689805 692475 0 617338 794836 0 522708 900425 0 397867 1.00626e+06 0 231541 1.1053e+06 0 8998.12 1.18198e+06 0 -286528 1.20498e+06 0 -656486 1.10645e+06 0 850867 -83.9487 0 846000 79174 0 836422 159188 0 821673 240515 0 801037 323686 0 773470 409208 0 737500 497521 0 691073 588913 0 631330 683350 0 554305 780153 0 454515 877365 0 324500 970567 0 154608 1.05054e+06 0 -66042.2 1.09897e+06 0 -344968 1.08148e+06 0 -667020 933104 0 804776 -45.9044 0 800827 79482.9 0 791536 159600 0 776463 240795 0 754890 323504 0 725753 408108 0 687547 494861 0 638184 583775 0 574804 674401 0 493524 765442 0 389180 854004 0 255135 934331 0 83781.4 995301 0 -131380 1.01674e+06 0 -388067 963259 0 -657444 774251 0 760338 -4.49722 0 757403 79856.2 0 748449 160147 0 733074 241270 0 710569 323563 0 679863 407267 0 639435 492437 0 587197 578796 0 520331 665471 0 435126 750540 0 326876 830200 0 190001 897505 0 19333.3 939722 0 -186902 936035 0 -416191 851544 0 -629194 629194 0 </DataArray> 
</PointData> 
<Points> 
<DataArray type="Float32" NumberOfComponents="3"> 
0.391 0 0 0.391116 0.000693704 0 0.391232 0.00138741 0 0.391348 0.00208111 0 0.391463 0.00277482 0 0.391579 0.00346852 0 0.391695 0.00416223 0 0.391811 0.00485593 0 0.391927 0.00554964 0 0.392043 0.00624334 0 0.392159 0.00693704 0 0.392274 0.00763075 0 0.39239 0.00832445 0 0.392506 0.00901816 0 0.392622 0.00971186 0 0.392738 0.0104056 0 0.3914 0 0 0.391504 0.000668877 0 0.391608 0.00134 0 0.391713 0.00201339 0 0.391818 0.00268905 0 0.391923 0.00336699 0 0.392029 0.00404723 0 0.392135 0.00472977 0 0.392242 0.00541464 0 0.392349 0.00610183 0 0.392456 0.00679137 0 0.392563 0.00748326 0 0.392671 0.00817752 0 0.39278 0.00887415 0 0.392888 0.00957318 0 0.392997 0.0102746 0 0.3918 0 0 0.391894 0.000647908 0 0.391988 0.00129987 0 0.392084 0.00195594 0 0.392179 0.00261613 0 0.392276 0.00328051 0 0.392372 0.00394909 0 0.39247 0.00462193 0 0.392568 0.00529907 0 0.392667 0.00598054 0 0.392766 0.00666639 0 0.392866 0.00735666 0 0.392967 0.00805139 0 0.393068 0.00875063 0 0.39317 0.00945442 0 0.393273 0.0101628 0 0.3922 0 0 0.392285 0.00063083 0 0.392371 0.00126714 0 0.392458 0.00190901 0 0.392546 0.00255651 0 0.392634 0.00320971 0 0.392724 0.00386869 0 0.392814 0.00453353 0 0.392904 0.0052043 0 0.392996 0.00588109 0 0.393088 0.00656397 0 0.393182 0.00725303 0 0.393276 0.00794835 0 0.393371 0.00865002 0 0.393467 0.00935813 0 0.393563 0.0100728 0 0.3926 0 0 0.392678 0.000617669 0 0.392757 0.00124191 0 0.392837 0.00187284 0 0.392917 0.00251055 0 0.392999 0.00315517 0 0.393081 0.00380679 0 0.393165 0.00446555 0 0.393249 0.00513154 0 0.393334 0.0058049 0 0.39342 0.00648575 0 0.393507 0.00717421 0 0.393595 0.00787042 0 0.393684 0.00857449 0 0.393774 0.00928658 0 0.393865 0.0100068 0 0.393 0 0 0.393072 0.000608446 0 0.393144 0.00122426 0 0.393218 0.00184759 0 0.393292 0.00247856 0 0.393368 0.00311731 0 0.393444 0.00376399 0 0.393521 0.00441876 0 0.3936 0.00508175 0 0.393679 0.00575314 0 0.393759 0.00643307 0 0.39384 0.00712171 0 0.393923 0.00781924 0 0.394006 0.00852582 0 0.39409 0.00924163 0 0.394176 0.00996685 0 0.3934 0 0 0.393466 0.000603176 0 0.393533 0.00121425 0 0.393601 0.00183339 0 0.39367 0.00246073 0 0.39374 0.00309646 0 0.39381 0.00374074 0 0.393882 0.00439375 0 0.393955 0.00505565 0 0.394028 0.00572665 0 0.394103 0.00640691 0 0.394179 0.00709665 0 0.394255 0.00779604 0 0.394333 0.00850532 0 0.394412 0.00922467 0 0.394492 0.00995432 0 0.3938 0 0 0.393861 0.00060187 0 0.393923 0.00121192 0 0.393985 0.00183031 0 0.394049 0.00245723 0 0.394113 0.00309284 0 0.394179 0.00373733 0 0.394245 0.00439088 0 0.394312 0.00505369 0 0.39438 0.00572596 0 0.394449 0.00640789 0 0.394519 0.00709969 0 0.39459 0.00780158 0 0.394663 0.00851377 0 0.394736 0.0092365 0 0.39481 0.00997001 0 0.3942 0 0 0.394256 0.000604529 0 0.394313 0.00121727 0 0.39437 0.0018384 0 0.394428 0.00246809 0 0.394487 0.0031065 0 0.394547 0.00375384 0 0.394608 0.00441028 0 0.394669 0.00507603 0 0.394732 0.00575127 0 0.394795 0.00643621 0 0.394859 0.00713107 0 0.394925 0.00783605 0 0.394991 0.00855139 0 0.395058 0.00927732 0 0.395126 0.0100141 0 0.3946 0 0 0.394651 0.000611154 0 0.394702 0.00123031 0 0.394754 0.00185763 0 0.394807 0.00249328 0 0.39486 0.00313742 0 0.394914 0.00379022 0 0.394969 0.00445186 0 0.395025 0.00512252 0 0.395081 0.00580238 0 0.395138 0.00649165 0 0.395196 0.0071905 0 0.395255 0.00789915 0 0.395314 0.0086178 0 0.395375 0.00934667 0 0.395436 0.010086 0 0.395 0 0 0.395045 0.000621735 0 0.395091 0.001251 0 0.395137 0.00188794 0 0.395183 0.00253269 0 0.39523 0.00318539 0 0.395278 0.0038462 0 0.395327 0.00451527 0 0.395376 0.00519274 0 0.395425 0.00587879 0 0.395476 0.00657357 0 0.395526 0.00727726 0 0.395578 0.00799002 0 0.39563 0.00871203 0 0.395683 0.00944348 0 0.395737 0.0101845 0 0.3954 0 0 0.395439 0.00063626 0 0.395478 0.00127929 0 0.395517 0.00192921 0 0.395557 0.00258612 0 0.395597 0.00325014 0 0.395638 0.00392138 0 0.395679 0.00459996 0 0.39572 0.005286 0 0.395762 0.00597963 0 0.395805 0.00668097 0 0.395848 0.00739015 0 0.395891 0.00810731 0 0.395935 0.00883258 0 0.39598 0.0095661 0 0.396025 0.010308 0 0.3958 0 0 0.395831 0.00065471 0 0.395863 0.00131511 0 0.395894 0.00198128 0 0.395926 0.00265329 0 0.395958 0.00333122 0 0.395991 0.00401515 0 0.396024 0.00470515 0 0.396057 0.00540131 0 0.39609 0.00610372 0 0.396124 0.00681245 0 0.396158 0.0075276 0 0.396192 0.00824924 0 0.396227 0.00897747 0 0.396262 0.00971239 0 0.396297 0.0104541 0 0.3962 0 0 0.396222 0.00067706 0 0.396245 0.00135836 0 0.396268 0.00204394 0 0.396291 0.00273384 0 0.396314 0.00342811 0 0.396337 0.00412678 0 0.39636 0.00482989 0 0.396383 0.00553749 0 0.396407 0.00624963 0 0.396431 0.00696633 0 0.396455 0.00768766 0 0.396479 0.00841365 0 0.396503 0.00914436 0 0.396527 0.00987981 0 0.396552 0.0106201 0 0.3966 0 0 0.396612 0.000703279 0 0.396624 0.00140892 0 0.396637 0.00211695 0 0.396649 0.00282736 0 0.396661 0.00354017 0 0.396673 0.00425539 0 0.396686 0.00497304 0 0.396698 0.00569313 0 0.396711 0.00641567 0 0.396723 0.00714067 0 0.396736 0.00786815 0 0.396748 0.00859812 0 0.396761 0.00933058 0 0.396774 0.0100656 0 0.396786 0.0108031 0 0.397 0 0 0.397 0.000733333 0 0.397 0.00146667 0 0.397 0.0022 0 0.397 0.00293333 0 0.397 0.00366667 0 0.397 0.0044 0 0.397 0.00513333 0 0.397 0.00586667 0 0.397 0.0066 0 0.397 0.00733333 0 0.397 0.00806667 0 0.397 0.0088 0 0.397 0.00953333 0 0.397 0.0102667 0 0.397 0.011 0 
</DataArray>
</Points> 
</Piece> 
</StructuredGrid> 
</VTKFile> 
