<?xml version="1.0"?> 
<VTKFile type="StructuredGrid" version="0.1"> 
<StructuredGrid WholeExtent="0 15 0 15 0 0"> 
<Piece Extent="0 15 0 15 0 0"> 
<PointData>
<DataArray type="Float32" Name="E" format="ascii" NumberOfComponents="3"> 
48056.7 5.34729 0 47254.7 8140.85 0 44884.9 15938.7 0 41049 23078.4 0 35908.6 29284.5 0 29672.6 34320.9 0 22583 38001.4 0 14892.8 40184.8 0 6860.41 40776.1 0 -1292.85 39663.3 0 -9341.41 36815.1 0 -17135.4 31756.5 0 -24568.2 24815 0 -30886.9 12333.9 0 -36767.1 -1941.85 0 0 -73249.1 0 37247.8 3.871 0 36664.4 6004.78 0 34939.7 11760.9 0 32145.7 17038.5 0 28398.2 21632.7 0 23849.8 25363.4 0 18681.9 28080.6 0 13098 29663.7 0 7316.72 30014.5 0 1580.32 29050.7 0 -3840.6 26668 0 -8575.8 22780.6 0 -12019.8 17087.1 0 -13084.9 9766.36 0 -8458.46 -168.023 0 0 -3111.49 0 29253.3 2.81331 0 28828.6 4453.71 0 27573.3 8726.45 0 25540.4 12650.1 0 22816.1 16074.1 0 19515.9 18864.3 0 15781.3 20908.7 0 11776.4 22118.8 0 7689.25 22429.9 0 3733.47 21801.7 0 166.277 20227.3 0 -2695.81 17740.5 0 -4448.15 14512.8 0 -4600.23 10870.5 0 -3247.48 7935.84 0 0 6078.17 0 23280.9 2.03787 0 22972 3327.58 0 22059.5 6524.06 0 20582.8 9467.72 0 18606.7 12049.6 0 16219 14173.7 0 13528.1 15761.9 0 10661.9 16757.1 0 7765.49 17127.2 0 5002.39 16870.6 0 2551.44 16026.3 0 604.033 14692.7 0 -659.678 13047.5 0 -1135.81 11390.1 0 -735.668 10069.1 0 0 9659.68 0 18789.6 1.46294 0 18564.6 2509.45 0 17899.7 4924.88 0 16824.4 7159.24 0 15386.9 9135.31 0 13652.5 10786.2 0 11701.9 12060 0 9628.81 12922.6 0 7537.66 13361.6 0 5539.57 13391.4 0 3747.09 13058.1 0 2262.87 12446.6 0 1163.38 11683 0 478.702 10934.9 0 112.941 10378.8 0 0 10157.9 0 15378.6 1.03939 0 15213.5 1912.45 0 14725.7 3758.18 0 13936.8 5475.71 0 12881.7 7011.05 0 11608 8318.42 0 10173.3 9363.67 0 8643.76 10126.7 0 7090.57 10604.2 0 5586.07 10811.7 0 4197.92 10785.9 0 2981.79 10584.6 0 1971.25 10286 0 1165.75 9975.18 0 541.021 9748.11 0 0 9651.81 0 12762.2 0.732246 0 12639.6 1472.57 0 12277.2 2898.2 0 11690.3 4233.79 0 10904.1 5441.86 0 9951.94 6491.1 0 8874.35 7358.85 0 7716.59 8032.71 0 6526.17 8511.93 0 5349.56 8808.38 0 4228.22 8946.53 0 3193.87 8962.78 0 2263.96 8900.96 0 1438.63 8811.37 0 694.017 8731.31 0 0 8706.3 0 10737 0.513252 0 10644.3 1143.38 0 10370 2253.89 0 9924.92 3301.42 0 9326.68 4259.91 0 8598.61 5107.77 0 7768.54 5829.57 0 6867.22 6416.91 0 5926.29 6869.24 0 4976.04 7193.96 0 4042.77 7406.11 0 3146.33 7526.8 0 2297.78 7581.76 0 1497.8 7595.78 0 738.316 7595.45 0 0 7589.51 0 9159.48 0.359164 0 9087.74 891.789 0 8875.19 1760.58 0 8529.42 2585.33 0 8062.67 3347.82 0 7491.09 4032.98 0 6833.83 4629.9 0 6111.82 5132.44 0 5346.43 5539.53 0 4557.93 5855.13 0 3763.95 6087.69 0 2978.05 6249.31 0 2208.59 6353.83 0 1458.37 6416.12 0 724.343 6446.88 0 0 6458.14 0 7928.65 0.2513 0 7871.6 694.501 0 7702.34 1372.91 0 7426.17 2020.47 0 7051.62 2624.39 0 6589.95 3173.98 0 6054.42 3661.36 0 5459.54 4081.75 0 4820.09 4433.68 0 4150.18 4718.77 0 3462.3 4941.45 0 2766.52 5108.18 0 2069.93 5226.7 0 1376.39 5304.44 0 686.909 5348.78 0 0 5362.81 0 6973.65 0.175426 0 6926.89 535.212 0 6787.95 1059.18 0 6560.58 1561.58 0 6250.81 2033.39 0 5866.62 2466.99 0 5417.4 2856.61 0 4913.48 3198.48 0 4365.45 3490.94 0 3783.59 3734.3 0 3177.29 3930.58 0 2554.54 4083.1 0 1921.67 4195.81 0 1283.22 4272.95 0 642.1 4317.73 0 0 4333.22 0 6244.74 0.121103 0 6205.14 402.451 0 6087.32 797.133 0 5893.99 1176.89 0 5629.56 1535.42 0 5299.82 1867.34 0 4911.69 2168.44 0 4472.79 2435.81 0 3991.07 2667.85 0 3474.41 2864.22 0 2930.25 3025.66 0 2365.32 3153.68 0 1785.41 3250.3 0 1195.37 3317.58 0 599.139 3357.46 0 0 3370.98 0 5707.23 0.0809238 0 5672.52 288.006 0 5569.12 570.815 0 5399.1 843.626 0 5165.79 1102.19 0 4873.62 1342.8 0 4527.92 1562.53 0 4134.6 1759.22 0 3699.97 1931.55 0 3230.41 2078.97 0 2732.13 2201.57 0 2211.05 2299.98 0 1672.6 2375.1 0 1121.69 2427.99 0 562.798 2459.5 0 0 2470.36 0 5337.38 0.0496761 0 5305.83 185.801 0 5211.79 368.409 0 5056.91 544.867 0 4843.89 712.541 0 4576.31 869.12 0 4258.54 1012.73 0 3895.47 1141.94 0 3492.39 1255.83 0 3054.79 1353.9 0 2588.16 1436.04 0 2097.87 1502.43 0 1589.1 1553.45 0 1066.78 1589.57 0 535.586 1611.2 0 0 1618.64 0 5119.72 0.0236404 0 5089.96 91.111 0 5001.21 180.702 0 4854.9 267.362 0 4653.39 349.83 0 4399.81 426.993 0 4098 497.937 0 3752.31 561.957 0 3367.5 618.569 0 2948.55 667.49 0 2500.56 708.618 0 2028.64 741.985 0 1537.79 767.719 0 1032.9 785.988 0 518.755 796.951 0 0 800.735 0 5045.41 0 0 5016.26 0 0 4929.27 0 0 4785.83 0 0 4588.17 0 0 4339.29 0 0 4042.85 0 0 3703.02 0 0 3324.39 0 0 2911.79 0 0 2470.18 0 0 2004.56 0 0 1519.9 0 0 1021.07 0 0 512.871 0 0 0 0 0 </DataArray> 
</PointData> 
<Points> 
<DataArray type="Float32" NumberOfComponents="3"> 
0.416 0 0 0.416 0.00133333 0 0.416 0.00266667 0 0.416 0.004 0 0.416 0.00533333 0 0.416 0.00666667 0 0.416 0.008 0 0.416 0.00933333 0 0.416 0.0106667 0 0.416 0.012 0 0.416 0.0133333 0 0.416 0.0146667 0 0.416 0.016 0 0.416 0.0173333 0 0.416 0.0186667 0 0.416 0.02 0 0.418067 0 0 0.418067 0.00133333 0 0.418067 0.00266667 0 0.418067 0.004 0 0.418067 0.00533333 0 0.418067 0.00666667 0 0.418067 0.008 0 0.418067 0.00933333 0 0.418067 0.0106667 0 0.418067 0.012 0 0.418067 0.0133333 0 0.418067 0.0146667 0 0.418067 0.016 0 0.418067 0.0173333 0 0.418067 0.0186667 0 0.418067 0.02 0 0.420133 0 0 0.420133 0.00133333 0 0.420133 0.00266667 0 0.420133 0.004 0 0.420133 0.00533333 0 0.420133 0.00666667 0 0.420133 0.008 0 0.420133 0.00933333 0 0.420133 0.0106667 0 0.420133 0.012 0 0.420133 0.0133333 0 0.420133 0.0146667 0 0.420133 0.016 0 0.420133 0.0173333 0 0.420133 0.0186667 0 0.420133 0.02 0 0.4222 0 0 0.4222 0.00133333 0 0.4222 0.00266667 0 0.4222 0.004 0 0.4222 0.00533333 0 0.4222 0.00666667 0 0.4222 0.008 0 0.4222 0.00933333 0 0.4222 0.0106667 0 0.4222 0.012 0 0.4222 0.0133333 0 0.4222 0.0146667 0 0.4222 0.016 0 0.4222 0.0173333 0 0.4222 0.0186667 0 0.4222 0.02 0 0.424267 0 0 0.424267 0.00133333 0 0.424267 0.00266667 0 0.424267 0.004 0 0.424267 0.00533333 0 0.424267 0.00666667 0 0.424267 0.008 0 0.424267 0.00933333 0 0.424267 0.0106667 0 0.424267 0.012 0 0.424267 0.0133333 0 0.424267 0.0146667 0 0.424267 0.016 0 0.424267 0.0173333 0 0.424267 0.0186667 0 0.424267 0.02 0 0.426333 0 0 0.426333 0.00133333 0 0.426333 0.00266667 0 0.426333 0.004 0 0.426333 0.00533333 0 0.426333 0.00666667 0 0.426333 0.008 0 0.426333 0.00933333 0 0.426333 0.0106667 0 0.426333 0.012 0 0.426333 0.0133333 0 0.426333 0.0146667 0 0.426333 0.016 0 0.426333 0.0173333 0 0.426333 0.0186667 0 0.426333 0.02 0 0.4284 0 0 0.4284 0.00133333 0 0.4284 0.00266667 0 0.4284 0.004 0 0.4284 0.00533333 0 0.4284 0.00666667 0 0.4284 0.008 0 0.4284 0.00933333 0 0.4284 0.0106667 0 0.4284 0.012 0 0.4284 0.0133333 0 0.4284 0.0146667 0 0.4284 0.016 0 0.4284 0.0173333 0 0.4284 0.0186667 0 0.4284 0.02 0 0.430467 0 0 0.430467 0.00133333 0 0.430467 0.00266667 0 0.430467 0.004 0 0.430467 0.00533333 0 0.430467 0.00666667 0 0.430467 0.008 0 0.430467 0.00933333 0 0.430467 0.0106667 0 0.430467 0.012 0 0.430467 0.0133333 0 0.430467 0.0146667 0 0.430467 0.016 0 0.430467 0.0173333 0 0.430467 0.0186667 0 0.430467 0.02 0 0.432533 0 0 0.432533 0.00133333 0 0.432533 0.00266667 0 0.432533 0.004 0 0.432533 0.00533333 0 0.432533 0.00666667 0 0.432533 0.008 0 0.432533 0.00933333 0 0.432533 0.0106667 0 0.432533 0.012 0 0.432533 0.0133333 0 0.432533 0.0146667 0 0.432533 0.016 0 0.432533 0.0173333 0 0.432533 0.0186667 0 0.432533 0.02 0 0.4346 0 0 0.4346 0.00133333 0 0.4346 0.00266667 0 0.4346 0.004 0 0.4346 0.00533333 0 0.4346 0.00666667 0 0.4346 0.008 0 0.4346 0.00933333 0 0.4346 0.0106667 0 0.4346 0.012 0 0.4346 0.0133333 0 0.4346 0.0146667 0 0.4346 0.016 0 0.4346 0.0173333 0 0.4346 0.0186667 0 0.4346 0.02 0 0.436667 0 0 0.436667 0.00133333 0 0.436667 0.00266667 0 0.436667 0.004 0 0.436667 0.00533333 0 0.436667 0.00666667 0 0.436667 0.008 0 0.436667 0.00933333 0 0.436667 0.0106667 0 0.436667 0.012 0 0.436667 0.0133333 0 0.436667 0.0146667 0 0.436667 0.016 0 0.436667 0.0173333 0 0.436667 0.0186667 0 0.436667 0.02 0 0.438733 0 0 0.438733 0.00133333 0 0.438733 0.00266667 0 0.438733 0.004 0 0.438733 0.00533333 0 0.438733 0.00666667 0 0.438733 0.008 0 0.438733 0.00933333 0 0.438733 0.0106667 0 0.438733 0.012 0 0.438733 0.0133333 0 0.438733 0.0146667 0 0.438733 0.016 0 0.438733 0.0173333 0 0.438733 0.0186667 0 0.438733 0.02 0 0.4408 0 0 0.4408 0.00133333 0 0.4408 0.00266667 0 0.4408 0.004 0 0.4408 0.00533333 0 0.4408 0.00666667 0 0.4408 0.008 0 0.4408 0.00933333 0 0.4408 0.0106667 0 0.4408 0.012 0 0.4408 0.0133333 0 0.4408 0.0146667 0 0.4408 0.016 0 0.4408 0.0173333 0 0.4408 0.0186667 0 0.4408 0.02 0 0.442867 0 0 0.442867 0.00133333 0 0.442867 0.00266667 0 0.442867 0.004 0 0.442867 0.00533333 0 0.442867 0.00666667 0 0.442867 0.008 0 0.442867 0.00933333 0 0.442867 0.0106667 0 0.442867 0.012 0 0.442867 0.0133333 0 0.442867 0.0146667 0 0.442867 0.016 0 0.442867 0.0173333 0 0.442867 0.0186667 0 0.442867 0.02 0 0.444933 0 0 0.444933 0.00133333 0 0.444933 0.00266667 0 0.444933 0.004 0 0.444933 0.00533333 0 0.444933 0.00666667 0 0.444933 0.008 0 0.444933 0.00933333 0 0.444933 0.0106667 0 0.444933 0.012 0 0.444933 0.0133333 0 0.444933 0.0146667 0 0.444933 0.016 0 0.444933 0.0173333 0 0.444933 0.0186667 0 0.444933 0.02 0 0.447 0 0 0.447 0.00133333 0 0.447 0.00266667 0 0.447 0.004 0 0.447 0.00533333 0 0.447 0.00666667 0 0.447 0.008 0 0.447 0.00933333 0 0.447 0.0106667 0 0.447 0.012 0 0.447 0.0133333 0 0.447 0.0146667 0 0.447 0.016 0 0.447 0.0173333 0 0.447 0.0186667 0 0.447 0.02 0 
</DataArray>
</Points> 
</Piece> 
</StructuredGrid> 
</VTKFile> 
