<?xml version="1.0"?> 
<VTKFile type="StructuredGrid" version="0.1"> 
<StructuredGrid WholeExtent="0 15 0 15 0 0"> 
<Piece Extent="0 15 0 15 0 0"> 
<PointData>
<DataArray type="Float32" Name="E" format="ascii" NumberOfComponents="3"> 
-673135 0 0 -666065 0 0 -658950 0 0 -651788 0 0 -644576 0 0 -637311 0 0 -629984 0 0 -622585 0 0 -615095 0 0 -607487 0 0 -599723 0 0 -591753 0 0 -583515 0 0 -574943 0 0 -565981 0 0 -556604 0 0 -673216 12968.6 0 -666139 12418.2 0 -659018 11860.4 0 -651851 11296.6 0 -644637 10728.7 0 -637372 10159.5 0 -630048 9592.38 0 -622654 9031.4 0 -615172 8481.2 0 -607574 7946.36 0 -599820 7430.03 0 -591857 6931.64 0 -583620 6443.35 0 -575039 5946.67 0 -566058 5411.5 0 -556655 4802.61 0 -673450 25937.7 0 -666350 24834.9 0 -659209 23715.6 0 -652028 22583 0 -644806 21441.3 0 -637540 20296 0 -630223 19154.2 0 -622845 18024.6 0 -615386 16917.5 0 -607817 15843.3 0 -600094 14810.3 0 -592155 13819.1 0 -583924 12854.6 0 -575320 11877.6 0 -566284 10822.6 0 -556805 9614.02 0 -673835 38917 0 -666690 37256.9 0 -659513 35568.7 0 -652304 33857.7 0 -645064 32130.4 0 -637792 30395.4 0 -630484 28663.8 0 -623128 26949.7 0 -615708 25270.2 0 -608191 23644.8 0 -600527 22090.8 0 -592639 20615 0 -584430 19197.2 0 -575797 17773.7 0 -566671 16232 0 -557061 14443.4 0 -674370 51928.5 0 -667154 49702.5 0 -659916 47434.4 0 -652659 45131.7 0 -645386 42802.9 0 -638098 40459.3 0 -630792 38115.8 0 -623462 35791.9 0 -616092 33513.6 0 -608651 31312.3 0 -601082 29221.9 0 -593290 27264.5 0 -585140 25423.5 0 -576486 23607 0 -567239 21634.6 0 -557436 19299.9 0 -675055 65004.4 0 -667735 62199.8 0 -660409 59338.6 0 -653080 56429.1 0 -645751 53481 0 -638427 50507.2 0 -631110 47525.2 0 -623797 44559.5 0 -616479 41644 0 -609132 38825.4 0 -601698 36161.4 0 -594064 33707.1 0 -586043 31469.7 0 -577408 29334.1 0 -568015 27019 0 -557948 24192.8 0 -675893 78179.5 0 -668437 74781.3 0 -660991 71313 0 -653560 67782 0 -646149 64197.8 0 -638762 60573.4 0 -631408 56927 0 -624091 53285.4 0 -616812 49688.2 0 -609559 46194.7 0 -602289 42891.4 0 -594886 39886.6 0 -587104 37253.8 0 -578578 34886.5 0 -569042 32362.8 0 -558625 29131.6 0 -676885 91482.4 0 -669264 87475.4 0 -661671 83387.1 0 -654108 79222.5 0 -646582 74989.3 0 -639102 70698.6 0 -631678 66367.3 0 -624324 62021.3 0 -617050 57701 0 -609863 53471.3 0 -602753 49438.8 0 -595635 45775.8 0 -588236 42683.4 0 -579997 40159.9 0 -570374 37622.8 0 -559504 34129.7 0 -678036 104929 0 -670228 100301 0 -662460 95582 0 -654738 90775.4 0 -647068 85885 0 -639462 80918.9 0 -631932 75890.7 0 -624499 70822.2 0 -617184 65750.7 0 -610014 60737.1 0 -603011 55888.8 0 -596169 51413.4 0 -589284 47688 0 -581612 45002.9 0 -572077 42719.4 0 -560635 39210 0 -679351 118521 0 -671338 113262 0 -663376 107907 0 -655471 102454 0 -647630 96902.6 0 -639866 91258.3 0 -632197 85529.5 0 -624643 79733.1 0 -617239 73897 0 -610024 68077 0 -603046 62361.8 0 -596373 56935.1 0 -590020 52280.1 0 -583262 49233.2 0 -574214 47496.4 0 -562108 44424.8 0 -680833 132247 0 -672605 126355 0 -664433 120360 0 -656326 114258 0 -648292 108047 0 -640346 101726 0 -632505 95300.7 0 -624797 88778.6 0 -617253 82182.8 0 -609935 75547.9 0 -602904 68964.2 0 -596252 62535.9 0 -590224 56647.9 0 -584629 52695.7 0 -576792 51665.6 0 -563993 49928.7 0 -682485 146089 0 -674033 139563 0 -665641 132929 0 -657318 126181 0 -649075 119313 0 -640925 112321 0 -632890 105204 0 -624994 97968.8 0 -617284 90619.6 0 -609794 83192 0 -602657 75729.7 0 -595920 68376.9 0 -589861 61147.1 0 -585230 55459.3 0 -579621 54721.2 0 -566628 55827.5 0 -684309 160024 0 -675629 152869 0 -667008 145599 0 -658459 138207 0 -649993 130686 0 -641625 123030 0 -633376 115233 0 -625273 107291 0 -617355 99216.5 0 -609692 90999.3 0 -602320 82703.9 0 -595530 74418.5 0 -589177 66177.8 0 -584685 58038.8 0 -582150 55897.2 0 -569948 62678.1 0 -686307 174029 0 -677392 166250 0 -668537 158349 0 -659754 150319 0 -651057 142152 0 -642459 133838 0 -633983 125369 0 -625656 116739 0 -617515 107937 0 -609623 98994.9 0 -602068 89848.1 0 -594949 80663.3 0 -588674 71641.6 0 -583089 61599.2 0 -583139 54815.2 0 -576199 67285 0 -688480 188081 0 -679324 179687 0 -670229 171162 0 -661206 162500 0 -652269 153691 0 -643434 144726 0 -634721 135594 0 -626157 126286 0 -617782 116788 0 -609644 107090 0 -601856 97239.7 0 -594471 87090.7 0 -587970 77037.3 0 -581832 67286.4 0 -581148 52135.6 0 -583850 67225.9 0 -690821 202163 0 -681423 193161 0 -672082 184019 0 -662813 174731 0 -653631 165287 0 -644552 155677 0 -635596 145891 0 -626788 135914 0 -618164 125733 0 -609785 115323 0 -601705 104710 0 -594155 93778.8 0 -586967 82990.2 0 -582023 70645.9 0 -572789 65319.6 0 -626633 -22027.7 0 </DataArray> 
</PointData> 
<Points> 
<DataArray type="Float32" NumberOfComponents="3"> 
0 0.027 0 0 0.0286667 0 0 0.0303333 0 0 0.032 0 0 0.0336667 0 0 0.0353333 0 0 0.037 0 0 0.0386667 0 0 0.0403333 0 0 0.042 0 0 0.0436667 0 0 0.0453333 0 0 0.047 0 0 0.0486667 0 0 0.0503333 0 0 0.052 0 0.00306667 0.027 0 0.00291778 0.0286667 0 0.00276889 0.0303333 0 0.00262 0.032 0 0.00247111 0.0336667 0 0.00232222 0.0353333 0 0.00217333 0.037 0 0.00202444 0.0386667 0 0.00187556 0.0403333 0 0.00172667 0.042 0 0.00157778 0.0436667 0 0.00142889 0.0453333 0 0.00128 0.047 0 0.00113111 0.0486667 0 0.000982222 0.0503333 0 0.000833333 0.052 0 0.00613333 0.027 0 0.00583556 0.0286667 0 0.00553778 0.0303333 0 0.00524 0.032 0 0.00494222 0.0336667 0 0.00464444 0.0353333 0 0.00434667 0.037 0 0.00404889 0.0386667 0 0.00375111 0.0403333 0 0.00345333 0.042 0 0.00315556 0.0436667 0 0.00285778 0.0453333 0 0.00256 0.047 0 0.00226222 0.0486667 0 0.00196444 0.0503333 0 0.00166667 0.052 0 0.0092 0.027 0 0.00875333 0.0286667 0 0.00830667 0.0303333 0 0.00786 0.032 0 0.00741333 0.0336667 0 0.00696667 0.0353333 0 0.00652 0.037 0 0.00607333 0.0386667 0 0.00562667 0.0403333 0 0.00518 0.042 0 0.00473333 0.0436667 0 0.00428667 0.0453333 0 0.00384 0.047 0 0.00339333 0.0486667 0 0.00294667 0.0503333 0 0.0025 0.052 0 0.0122667 0.027 0 0.0116711 0.0286667 0 0.0110756 0.0303333 0 0.01048 0.032 0 0.00988444 0.0336667 0 0.00928889 0.0353333 0 0.00869333 0.037 0 0.00809778 0.0386667 0 0.00750222 0.0403333 0 0.00690667 0.042 0 0.00631111 0.0436667 0 0.00571556 0.0453333 0 0.00512 0.047 0 0.00452444 0.0486667 0 0.00392889 0.0503333 0 0.00333333 0.052 0 0.0153333 0.027 0 0.0145889 0.0286667 0 0.0138444 0.0303333 0 0.0131 0.032 0 0.0123556 0.0336667 0 0.0116111 0.0353333 0 0.0108667 0.037 0 0.0101222 0.0386667 0 0.00937778 0.0403333 0 0.00863333 0.042 0 0.00788889 0.0436667 0 0.00714444 0.0453333 0 0.0064 0.047 0 0.00565556 0.0486667 0 0.00491111 0.0503333 0 0.00416667 0.052 0 0.0184 0.027 0 0.0175067 0.0286667 0 0.0166133 0.0303333 0 0.01572 0.032 0 0.0148267 0.0336667 0 0.0139333 0.0353333 0 0.01304 0.037 0 0.0121467 0.0386667 0 0.0112533 0.0403333 0 0.01036 0.042 0 0.00946667 0.0436667 0 0.00857333 0.0453333 0 0.00768 0.047 0 0.00678667 0.0486667 0 0.00589333 0.0503333 0 0.005 0.052 0 0.0214667 0.027 0 0.0204244 0.0286667 0 0.0193822 0.0303333 0 0.01834 0.032 0 0.0172978 0.0336667 0 0.0162556 0.0353333 0 0.0152133 0.037 0 0.0141711 0.0386667 0 0.0131289 0.0403333 0 0.0120867 0.042 0 0.0110444 0.0436667 0 0.0100022 0.0453333 0 0.00896 0.047 0 0.00791778 0.0486667 0 0.00687556 0.0503333 0 0.00583333 0.052 0 0.0245333 0.027 0 0.0233422 0.0286667 0 0.0221511 0.0303333 0 0.02096 0.032 0 0.0197689 0.0336667 0 0.0185778 0.0353333 0 0.0173867 0.037 0 0.0161956 0.0386667 0 0.0150044 0.0403333 0 0.0138133 0.042 0 0.0126222 0.0436667 0 0.0114311 0.0453333 0 0.01024 0.047 0 0.00904889 0.0486667 0 0.00785778 0.0503333 0 0.00666667 0.052 0 0.0276 0.027 0 0.02626 0.0286667 0 0.02492 0.0303333 0 0.02358 0.032 0 0.02224 0.0336667 0 0.0209 0.0353333 0 0.01956 0.037 0 0.01822 0.0386667 0 0.01688 0.0403333 0 0.01554 0.042 0 0.0142 0.0436667 0 0.01286 0.0453333 0 0.01152 0.047 0 0.01018 0.0486667 0 0.00884 0.0503333 0 0.0075 0.052 0 0.0306667 0.027 0 0.0291778 0.0286667 0 0.0276889 0.0303333 0 0.0262 0.032 0 0.0247111 0.0336667 0 0.0232222 0.0353333 0 0.0217333 0.037 0 0.0202444 0.0386667 0 0.0187556 0.0403333 0 0.0172667 0.042 0 0.0157778 0.0436667 0 0.0142889 0.0453333 0 0.0128 0.047 0 0.0113111 0.0486667 0 0.00982222 0.0503333 0 0.00833333 0.052 0 0.0337333 0.027 0 0.0320956 0.0286667 0 0.0304578 0.0303333 0 0.02882 0.032 0 0.0271822 0.0336667 0 0.0255444 0.0353333 0 0.0239067 0.037 0 0.0222689 0.0386667 0 0.0206311 0.0403333 0 0.0189933 0.042 0 0.0173556 0.0436667 0 0.0157178 0.0453333 0 0.01408 0.047 0 0.0124422 0.0486667 0 0.0108044 0.0503333 0 0.00916667 0.052 0 0.0368 0.027 0 0.0350133 0.0286667 0 0.0332267 0.0303333 0 0.03144 0.032 0 0.0296533 0.0336667 0 0.0278667 0.0353333 0 0.02608 0.037 0 0.0242933 0.0386667 0 0.0225067 0.0403333 0 0.02072 0.042 0 0.0189333 0.0436667 0 0.0171467 0.0453333 0 0.01536 0.047 0 0.0135733 0.0486667 0 0.0117867 0.0503333 0 0.01 0.052 0 0.0398667 0.027 0 0.0379311 0.0286667 0 0.0359956 0.0303333 0 0.03406 0.032 0 0.0321244 0.0336667 0 0.0301889 0.0353333 0 0.0282533 0.037 0 0.0263178 0.0386667 0 0.0243822 0.0403333 0 0.0224467 0.042 0 0.0205111 0.0436667 0 0.0185756 0.0453333 0 0.01664 0.047 0 0.0147044 0.0486667 0 0.0127689 0.0503333 0 0.0108333 0.052 0 0.0429333 0.027 0 0.0408489 0.0286667 0 0.0387644 0.0303333 0 0.03668 0.032 0 0.0345956 0.0336667 0 0.0325111 0.0353333 0 0.0304267 0.037 0 0.0283422 0.0386667 0 0.0262578 0.0403333 0 0.0241733 0.042 0 0.0220889 0.0436667 0 0.0200044 0.0453333 0 0.01792 0.047 0 0.0158356 0.0486667 0 0.0137511 0.0503333 0 0.0116667 0.052 0 0.046 0.027 0 0.0437667 0.0286667 0 0.0415333 0.0303333 0 0.0393 0.032 0 0.0370667 0.0336667 0 0.0348333 0.0353333 0 0.0326 0.037 0 0.0303667 0.0386667 0 0.0281333 0.0403333 0 0.0259 0.042 0 0.0236667 0.0436667 0 0.0214333 0.0453333 0 0.0192 0.047 0 0.0169667 0.0486667 0 0.0147333 0.0503333 0 0.0125 0.052 0 
</DataArray>
</Points> 
</Piece> 
</StructuredGrid> 
</VTKFile> 
