<?xml version="1.0"?> 
<VTKFile type="StructuredGrid" version="0.1"> 
<StructuredGrid WholeExtent="0 15 0 15 0 0"> 
<Piece Extent="0 15 0 15 0 0"> 
<PointData>
<DataArray type="Float32" Name="E" format="ascii" NumberOfComponents="3"> 
-134400 1.39698e-09 0 -119821 -5.67525e-10 0 -116323 4.94765e-10 0 -115099 0 0 -115198 2.91038e-10 0 -116254 -8.14907e-10 0 -118219 3.49246e-10 0 -121162 -5.82077e-10 0 -125259 2.32831e-10 0 -130804 -3.49246e-10 0 -138298 4.65661e-10 0 -148590 -2.32831e-10 0 -163223 -2.32831e-10 0 -186329 1.62981e-09 0 -227382 -1.39698e-09 0 -362163 0 0 -117469 10147.9 0 -117271 3958.2 0 -115243 1696.4 0 -114498 346.696 0 -114709 -625.189 0 -115786 -1505.63 0 -117714 -2410.34 0 -120568 -3436.37 0 -124512 -4682.84 0 -129815 -6288.51 0 -136893 -8468.62 0 -146424 -11655.5 0 -159582 -16609 0 -178018 -25771.3 0 -205421 -43983.7 0 -218299 -98772.3 0 -113618 9058.14 0 -113406 5380.64 0 -113067 2490.11 0 -112939 401.309 0 -113390 -1341.81 0 -114492 -2981.33 0 -116304 -4701.55 0 -118912 -6656.27 0 -122449 -9017.92 0 -127106 -12015.8 0 -133146 -16005.2 0 -140893 -21565.6 0 -150651 -29810.2 0 -162354 -42606.8 0 -173096 -64007.3 0 -177950 -94752.4 0 -109767 8564.9 0 -110307 5374.59 0 -110500 2555.29 0 -110804 100.415 0 -111428 -2148.36 0 -112503 -4377.09 0 -114115 -6760.91 0 -116347 -9477.24 0 -119291 -12729.9 0 -123053 -16782.5 0 -127728 -22005.9 0 -133352 -28949.4 0 -139732 -38425.4 0 -146059 -51545.2 0 -150484 -69339.9 0 -148905 -91309.8 0 -106814 7887.88 0 -107363 4983.47 0 -107836 2212.94 0 -108336 -411.959 0 -109016 -2978.15 0 -109984 -5619.97 0 -111318 -8492.53 0 -113083 -11769.6 0 -115330 -15654.1 0 -118093 -20395.9 0 -121359 -26313.5 0 -125003 -33813.1 0 -128675 -43377.3 0 -131640 -55456.1 0 -132577 -70160 0 -130297 -86574.3 0 -103923 7202.46 0 -104575 4432.51 0 -105133 1705.25 0 -105686 -994.376 0 -106318 -3738.88 0 -107102 -6636.85 0 -108096 -9824.55 0 -109340 -13460.4 0 -110854 -17727.8 0 -112627 -22839.4 0 -114590 -29039.1 0 -116575 -36590.3 0 -118256 -45736.3 0 -119092 -56588.6 0 -118381 -68983.9 0 -115357 -82204.9 0 -101202 6495.43 0 -101867 3824.94 0 -102441 1160.65 0 -102958 -1542.21 0 -103466 -4352.74 0 -104010 -7369.23 0 -104625 -10712.4 0 -105328 -14522.8 0 -106117 -18958.4 0 -106961 -24191.7 0 -107778 -30399.8 0 -108419 -37743.8 0 -108641 -46324.7 0 -108105 -56116.4 0 -106411 -66881.3 0 -103257 -78116.1 0 -98579.4 5758.36 0 -99259.3 3210.29 0 -99806.6 645.526 0 -100239 -1989.03 0 -100578 -4766.73 0 -100848 -7779.22 0 -101063 -11135.8 0 -101226 -14960.5 0 -101321 -19388.9 0 -101311 -24560.9 0 -101127 -30608.4 0 -100664 -37631.9 0 -99771.1 -45665.7 0 -98266.6 -54629.8 0 -95964.8 -64300.1 0 -92720.7 -74260.1 0 -96097.2 4998.3 0 -96785 2605.46 0 -97288.9 195.287 0 -97611.2 -2298.56 0 -97759 -4950.48 0 -97739.2 -7848.53 0 -97552.2 -11092.6 0 -97188.5 -14793.8 0 -96625.9 -19071.1 0 -95829 -24044.9 0 -94749.6 -29824.6 0 -93329.8 -36487.3 0 -91508.5 -44048.3 0 -89231.4 -52423.6 0 -86460.6 -61406 0 -83190.6 -70640.3 0 -93792.8 4198.18 0 -94494.5 2016.75 0 -94952.9 -177.038 0 -95157.1 -2453.92 0 -95105.4 -4891.78 0 -94794.5 -7574.28 0 -94214.6 -10593.2 0 -93346.3 -14049.4 0 -92161.3 -18051.9 0 -90626.3 -22713.8 0 -88710.1 -28142.9 0 -86397.1 -34424.8 0 -83703.6 -41594.5 0 -80691.3 -49597.7 0 -77467.7 -58250.8 0 -74134.9 -67210.2 0 -91706.2 3346.38 0 -92451.3 1433.94 0 -92869.6 -469.356 0 -92956.9 -2451.64 0 -92707.8 -4591 0 -92115.3 -6965.65 0 -91161.5 -9657.5 0 -89817.2 -12757.8 0 -88044.5 -16369.6 0 -85804.4 -20607.7 0 -83070.3 -25595.7 0 -79851 -31455.6 0 -76224.2 -38284.8 0 -72370.7 -46101.9 0 -68562.7 -54781.6 0 -65132.2 -63928 0 -89933.6 2400.58 0 -90722.8 841.729 0 -91118.4 -686.255 0 -91089 -2293.3 0 -90648.9 -4056.97 0 -89792.4 -6041.66 0 -88494.2 -8314.72 0 -86712.5 -10955.2 0 -84392.8 -14059.6 0 -81477.8 -17747.4 0 -77922.2 -22166.9 0 -73726.1 -27500.1 0 -68991.5 -33954.9 0 -64002.6 -41714.5 0 -59324.4 -50800.1 0 -55491.3 -60761.3 0 -88441.3 1282.05 0 -89432.9 220.486 0 -89782.4 -821.597 0 -89626.6 -1977.9 0 -89000 -3303.19 0 -87904.5 -4831.48 0 -86304.4 -6606.8 0 -84139.8 -8690.71 0 -81332.6 -11168.1 0 -77791.2 -14156.3 0 -73423.2 -17822.2 0 -68162.3 -22411 0 -62045.7 -28283.4 0 -55397.5 -35932.1 0 -49023.5 -45813.3 0 -44772.7 -57697.3 0 -87737.4 -58.0291 0 -88677.4 -430.203 0 -88960.2 -824.64 0 -88620.7 -1493.56 0 -87811.4 -2347.88 0 -86513.7 -3377.25 0 -84671.4 -4593.35 0 -82201.9 -6036.45 0 -78998.1 -7770.79 0 -74925.9 -9894.55 0 -69817.1 -12565.4 0 -63476 -16042.9 0 -55718.8 -20826.6 0 -46531.2 -27758.6 0 -37189.1 -38672.2 0 -29901.3 -53929.9 0 -87224.6 -2453.83 0 -88976.6 -708.879 0 -88659.1 -587.025 0 -88076.7 -816.957 0 -87101.6 -1225.77 0 -85660.2 -1738.82 0 -83657.2 -2356.36 0 -80987 -3095.07 0 -77519.1 -3989.94 0 -73077.9 -5099.07 0 -67425 -6517.61 0 -60205.2 -8439.47 0 -50840.4 -11206.9 0 -38537.3 -15923.8 0 -21581.4 -24782.3 0 -10504 -50236.1 0 -94946.2 0 0 -89629.1 0 0 -88694 0 0 -87903.9 0 0 -86860.9 0 0 -85363.2 0 0 -83301 0 0 -80558.7 0 0 -76992.8 0 0 -72415.4 0 0 -66548.6 0 0 -58959.7 0 0 -48903.1 0 0 -34463.8 0 0 -11309.4 0 0 54831.1 0 0 </DataArray> 
</PointData> 
<Points> 
<DataArray type="Float32" NumberOfComponents="3"> 
0.406 0.02 0 0.406 0.0206667 0 0.406 0.0213333 0 0.406 0.022 0 0.406 0.0226667 0 0.406 0.0233333 0 0.406 0.024 0 0.406 0.0246667 0 0.406 0.0253333 0 0.406 0.026 0 0.406 0.0266667 0 0.406 0.0273333 0 0.406 0.028 0 0.406 0.0286667 0 0.406 0.0293333 0 0.406 0.03 0 0.406667 0.02 0 0.406667 0.0206667 0 0.406667 0.0213333 0 0.406667 0.022 0 0.406667 0.0226667 0 0.406667 0.0233333 0 0.406667 0.024 0 0.406667 0.0246667 0 0.406667 0.0253333 0 0.406667 0.026 0 0.406667 0.0266667 0 0.406667 0.0273333 0 0.406667 0.028 0 0.406667 0.0286667 0 0.406667 0.0293333 0 0.406667 0.03 0 0.407333 0.02 0 0.407333 0.0206667 0 0.407333 0.0213333 0 0.407333 0.022 0 0.407333 0.0226667 0 0.407333 0.0233333 0 0.407333 0.024 0 0.407333 0.0246667 0 0.407333 0.0253333 0 0.407333 0.026 0 0.407333 0.0266667 0 0.407333 0.0273333 0 0.407333 0.028 0 0.407333 0.0286667 0 0.407333 0.0293333 0 0.407333 0.03 0 0.408 0.02 0 0.408 0.0206667 0 0.408 0.0213333 0 0.408 0.022 0 0.408 0.0226667 0 0.408 0.0233333 0 0.408 0.024 0 0.408 0.0246667 0 0.408 0.0253333 0 0.408 0.026 0 0.408 0.0266667 0 0.408 0.0273333 0 0.408 0.028 0 0.408 0.0286667 0 0.408 0.0293333 0 0.408 0.03 0 0.408667 0.02 0 0.408667 0.0206667 0 0.408667 0.0213333 0 0.408667 0.022 0 0.408667 0.0226667 0 0.408667 0.0233333 0 0.408667 0.024 0 0.408667 0.0246667 0 0.408667 0.0253333 0 0.408667 0.026 0 0.408667 0.0266667 0 0.408667 0.0273333 0 0.408667 0.028 0 0.408667 0.0286667 0 0.408667 0.0293333 0 0.408667 0.03 0 0.409333 0.02 0 0.409333 0.0206667 0 0.409333 0.0213333 0 0.409333 0.022 0 0.409333 0.0226667 0 0.409333 0.0233333 0 0.409333 0.024 0 0.409333 0.0246667 0 0.409333 0.0253333 0 0.409333 0.026 0 0.409333 0.0266667 0 0.409333 0.0273333 0 0.409333 0.028 0 0.409333 0.0286667 0 0.409333 0.0293333 0 0.409333 0.03 0 0.41 0.02 0 0.41 0.0206667 0 0.41 0.0213333 0 0.41 0.022 0 0.41 0.0226667 0 0.41 0.0233333 0 0.41 0.024 0 0.41 0.0246667 0 0.41 0.0253333 0 0.41 0.026 0 0.41 0.0266667 0 0.41 0.0273333 0 0.41 0.028 0 0.41 0.0286667 0 0.41 0.0293333 0 0.41 0.03 0 0.410667 0.02 0 0.410667 0.0206667 0 0.410667 0.0213333 0 0.410667 0.022 0 0.410667 0.0226667 0 0.410667 0.0233333 0 0.410667 0.024 0 0.410667 0.0246667 0 0.410667 0.0253333 0 0.410667 0.026 0 0.410667 0.0266667 0 0.410667 0.0273333 0 0.410667 0.028 0 0.410667 0.0286667 0 0.410667 0.0293333 0 0.410667 0.03 0 0.411333 0.02 0 0.411333 0.0206667 0 0.411333 0.0213333 0 0.411333 0.022 0 0.411333 0.0226667 0 0.411333 0.0233333 0 0.411333 0.024 0 0.411333 0.0246667 0 0.411333 0.0253333 0 0.411333 0.026 0 0.411333 0.0266667 0 0.411333 0.0273333 0 0.411333 0.028 0 0.411333 0.0286667 0 0.411333 0.0293333 0 0.411333 0.03 0 0.412 0.02 0 0.412 0.0206667 0 0.412 0.0213333 0 0.412 0.022 0 0.412 0.0226667 0 0.412 0.0233333 0 0.412 0.024 0 0.412 0.0246667 0 0.412 0.0253333 0 0.412 0.026 0 0.412 0.0266667 0 0.412 0.0273333 0 0.412 0.028 0 0.412 0.0286667 0 0.412 0.0293333 0 0.412 0.03 0 0.412667 0.02 0 0.412667 0.0206667 0 0.412667 0.0213333 0 0.412667 0.022 0 0.412667 0.0226667 0 0.412667 0.0233333 0 0.412667 0.024 0 0.412667 0.0246667 0 0.412667 0.0253333 0 0.412667 0.026 0 0.412667 0.0266667 0 0.412667 0.0273333 0 0.412667 0.028 0 0.412667 0.0286667 0 0.412667 0.0293333 0 0.412667 0.03 0 0.413333 0.02 0 0.413333 0.0206667 0 0.413333 0.0213333 0 0.413333 0.022 0 0.413333 0.0226667 0 0.413333 0.0233333 0 0.413333 0.024 0 0.413333 0.0246667 0 0.413333 0.0253333 0 0.413333 0.026 0 0.413333 0.0266667 0 0.413333 0.0273333 0 0.413333 0.028 0 0.413333 0.0286667 0 0.413333 0.0293333 0 0.413333 0.03 0 0.414 0.02 0 0.414 0.0206667 0 0.414 0.0213333 0 0.414 0.022 0 0.414 0.0226667 0 0.414 0.0233333 0 0.414 0.024 0 0.414 0.0246667 0 0.414 0.0253333 0 0.414 0.026 0 0.414 0.0266667 0 0.414 0.0273333 0 0.414 0.028 0 0.414 0.0286667 0 0.414 0.0293333 0 0.414 0.03 0 0.414667 0.02 0 0.414667 0.0206667 0 0.414667 0.0213333 0 0.414667 0.022 0 0.414667 0.0226667 0 0.414667 0.0233333 0 0.414667 0.024 0 0.414667 0.0246667 0 0.414667 0.0253333 0 0.414667 0.026 0 0.414667 0.0266667 0 0.414667 0.0273333 0 0.414667 0.028 0 0.414667 0.0286667 0 0.414667 0.0293333 0 0.414667 0.03 0 0.415333 0.02 0 0.415333 0.0206667 0 0.415333 0.0213333 0 0.415333 0.022 0 0.415333 0.0226667 0 0.415333 0.0233333 0 0.415333 0.024 0 0.415333 0.0246667 0 0.415333 0.0253333 0 0.415333 0.026 0 0.415333 0.0266667 0 0.415333 0.0273333 0 0.415333 0.028 0 0.415333 0.0286667 0 0.415333 0.0293333 0 0.415333 0.03 0 0.416 0.02 0 0.416 0.0206667 0 0.416 0.0213333 0 0.416 0.022 0 0.416 0.0226667 0 0.416 0.0233333 0 0.416 0.024 0 0.416 0.0246667 0 0.416 0.0253333 0 0.416 0.026 0 0.416 0.0266667 0 0.416 0.0273333 0 0.416 0.028 0 0.416 0.0286667 0 0.416 0.0293333 0 0.416 0.03 0 
</DataArray>
</Points> 
</Piece> 
</StructuredGrid> 
</VTKFile> 
