<?xml version="1.0"?> 
<VTKFile type="StructuredGrid" version="0.1"> 
<StructuredGrid WholeExtent="0 15 0 15 0 0"> 
<Piece Extent="0 15 0 15 0 0"> 
<PointData>
<DataArray type="Float32" Name="E" format="ascii" NumberOfComponents="3"> 
-779258 0 0 -724529 0 0 -671709 0 0 -619855 0 0 -568390 0 0 -517038 0 0 -465675 0 0 -414245 0 0 -362728 0 0 -311118 0 0 -259418 0 0 -207638 0 0 -155790 0 0 -103890 0 0 -51954.1 0 0 0 0 0 -765952 10985.9 0 -712631 10555 0 -660940 10323.2 0 -610028 10224.3 0 -559420 10191.1 0 -508889 10188.1 0 -458334 10198.6 0 -407710 10214.8 0 -357000 10233 0 -306199 10251 0 -255313 10267.5 0 -204349 10281.9 0 -153321 10293.5 0 -102242 10302 0 -51129.9 10307.2 0 0 10309 0 -752701 21719.7 0 -700769 20965.1 0 -650184 20583.6 0 -600205 20426.3 0 -550450 20377.1 0 -500740 20377.9 0 -450995 20401.2 0 -401178 20434.2 0 -351275 20470.1 0 -301284 20505.3 0 -251210 20537.6 0 -201063 20565.5 0 -150853 20588.1 0 -100596 20604.6 0 -50306.3 20614.7 0 0 20618.1 0 -739526 32218.6 0 -688957 31255.6 0 -639449 30794.5 0 -590390 30611.1 0 -541484 30559.7 0 -492594 30569.9 0 -443658 30608.2 0 -394647 30658.2 0 -345552 30711.4 0 -296371 30763.2 0 -247110 30810.3 0 -197778 30851 0 -148388 30883.9 0 -98951.1 30907.9 0 -49483.4 30922.6 0 0 30927.5 0 -726457 42511.5 0 -677206 41452 0 -628739 40968.1 0 -580584 40783.6 0 -532522 40741 0 -484450 40765 0 -436323 40819.6 0 -388119 40886.8 0 -339831 40957 0 -291460 41024.5 0 -243012 41085.8 0 -194496 41138.5 0 -145924 41181 0 -97307.3 41212 0 -48661.1 41231 0 0 41237.3 0 -713519 52638.2 0 -665520 51579.4 0 -618056 51115.3 0 -570790 50948.4 0 -523564 50922.6 0 -476309 50963.7 0 -428991 51035.8 0 -381593 51120.2 0 -334113 51206.8 0 -286552 51289.4 0 -238917 51364 0 -191216 51428 0 -143461 51479.5 0 -95664.5 51517.1 0 -47839.4 51540.1 0 0 51547.7 0 -700724 62644.3 0 -653900 61660.5 0 -607402 61245.9 0 -561007 61109.4 0 -514613 61106.2 0 -468172 61166.8 0 -421661 61257 0 -375070 61358.5 0 -328397 61460.9 0 -281646 61557.9 0 -234823 61645.1 0 -187938 61719.7 0 -141000 61779.6 0 -94022.9 61823.3 0 -47018.3 61849.9 0 0 61858.9 0 -688073 72574.7 0 -642343 71714.9 0 -596774 71368 0 -551236 71270.2 0 -505667 71293.2 0 -460038 71374.9 0 -414334 71483.6 0 -368549 71601.9 0 -322684 71719.5 0 -276742 71830.1 0 -230732 71929.1 0 -184661 72013.6 0 -138541 72081.3 0 -92382.2 72130.7 0 -46197.6 72160.8 0 0 72170.9 0 -675556 82468.9 0 -630844 81758.4 0 -586172 81488.4 0 -541476 81433.6 0 -496727 81485.1 0 -451907 81588.6 0 -407009 81715.8 0 -362030 81850.4 0 -316972 81982.6 0 -271841 82106 0 -226643 82216.1 0 -181387 82309.8 0 -136083 82384.8 0 -90742.5 82439.5 0 -45377.5 82472.7 0 0 82483.8 0 -663154 92357.5 0 -619395 91803 0 -575591 91612.2 0 -531727 91602 0 -487792 91682.8 0 -443780 91808.4 0 -399687 91953.8 0 -355514 92104.2 0 -311263 92250.3 0 -266941 92385.8 0 -222555 92506.3 0 -178113 92608.5 0 -133626 92690.2 0 -89103.7 92749.7 0 -44557.8 92785.9 0 0 92798 0 -650848 102262 0 -607987 101857 0 -565029 101743 0 -521987 101777 0 -478862 101887 0 -435656 102035 0 -392367 102198 0 -348999 102364 0 -305556 102523 0 -262044 102670 0 -218469 102800 0 -174842 102910 0 -131170 102998 0 -87465.7 103062 0 -43738.5 103100 0 0 103113 0 -638616 112195 0 -596614 111927 0 -554484 111885 0 -512255 111961 0 -469937 112099 0 -427534 112268 0 -385050 112448 0 -342487 112628 0 -299851 112800 0 -257148 112957 0 -214385 113096 0 -171571 113214 0 -128716 113307 0 -85828.5 113375 0 -42919.7 113417 0 0 113430 0 -626441 122164 0 -585267 122015 0 -543952 122038 0 -502530 122154 0 -461016 122320 0 -419416 122509 0 -377735 122705 0 -335976 122899 0 -294147 123082 0 -252253 123249 0 -210302 123396 0 -168302 123520 0 -126262 123619 0 -84192.1 123691 0 -42101.2 123734 0 0 123749 0 -614307 132172 0 -573940 132124 0 -533430 132206 0 -492811 132358 0 -452098 132549 0 -411300 132757 0 -370421 132969 0 -329468 133175 0 -288445 133369 0 -247361 133545 0 -206221 133700 0 -165034 133830 0 -123810 133933 0 -82556.2 134008 0 -41283 134054 0 0 134069 0 -602201 142217 0 -562630 142255 0 -522917 142387 0 -483097 142573 0 -443184 142787 0 -403186 143013 0 -363110 143240 0 -322960 143458 0 -282745 143661 0 -242469 143846 0 -202141 144007 0 -161768 144143 0 -121358 144250 0 -80921 144328 0 -40465.2 144375 0 0 144391 0 -590108 152296 0 -551330 152407 0 -512411 152583 0 -473387 152799 0 -434272 153035 0 -395074 153278 0 -355799 153517 0 -316454 153746 0 -277045 153959 0 -237579 154151 0 -198062 154318 0 -158502 154459 0 -118907 154570 0 -79286.3 154650 0 -39647.6 154699 0 0 154715 0 </DataArray> 
</PointData> 
<Points> 
<DataArray type="Float32" NumberOfComponents="3"> 
0 0.065 0 0 0.0692 0 0 0.0734 0 0 0.0776 0 0 0.0818 0 0 0.086 0 0 0.0902 0 0 0.0944 0 0 0.0986 0 0 0.1028 0 0 0.107 0 0 0.1112 0 0 0.1154 0 0 0.1196 0 0 0.1238 0 0 0.128 0 0.000833333 0.066 0 0.000833333 0.0701333 0 0.000833333 0.0742667 0 0.000833333 0.0784 0 0.000833333 0.0825333 0 0.000833333 0.0866667 0 0.000833333 0.0908 0 0.000833333 0.0949333 0 0.000833333 0.0990667 0 0.000833333 0.1032 0 0.000833333 0.107333 0 0.000833333 0.111467 0 0.000833333 0.1156 0 0.000833333 0.119733 0 0.000833333 0.123867 0 0.000833333 0.128 0 0.00166667 0.067 0 0.00166667 0.0710667 0 0.00166667 0.0751333 0 0.00166667 0.0792 0 0.00166667 0.0832667 0 0.00166667 0.0873333 0 0.00166667 0.0914 0 0.00166667 0.0954667 0 0.00166667 0.0995333 0 0.00166667 0.1036 0 0.00166667 0.107667 0 0.00166667 0.111733 0 0.00166667 0.1158 0 0.00166667 0.119867 0 0.00166667 0.123933 0 0.00166667 0.128 0 0.0025 0.068 0 0.0025 0.072 0 0.0025 0.076 0 0.0025 0.08 0 0.0025 0.084 0 0.0025 0.088 0 0.0025 0.092 0 0.0025 0.096 0 0.0025 0.1 0 0.0025 0.104 0 0.0025 0.108 0 0.0025 0.112 0 0.0025 0.116 0 0.0025 0.12 0 0.0025 0.124 0 0.0025 0.128 0 0.00333333 0.069 0 0.00333333 0.0729333 0 0.00333333 0.0768667 0 0.00333333 0.0808 0 0.00333333 0.0847333 0 0.00333333 0.0886667 0 0.00333333 0.0926 0 0.00333333 0.0965333 0 0.00333333 0.100467 0 0.00333333 0.1044 0 0.00333333 0.108333 0 0.00333333 0.112267 0 0.00333333 0.1162 0 0.00333333 0.120133 0 0.00333333 0.124067 0 0.00333333 0.128 0 0.00416667 0.07 0 0.00416667 0.0738667 0 0.00416667 0.0777333 0 0.00416667 0.0816 0 0.00416667 0.0854667 0 0.00416667 0.0893333 0 0.00416667 0.0932 0 0.00416667 0.0970667 0 0.00416667 0.100933 0 0.00416667 0.1048 0 0.00416667 0.108667 0 0.00416667 0.112533 0 0.00416667 0.1164 0 0.00416667 0.120267 0 0.00416667 0.124133 0 0.00416667 0.128 0 0.005 0.071 0 0.005 0.0748 0 0.005 0.0786 0 0.005 0.0824 0 0.005 0.0862 0 0.005 0.09 0 0.005 0.0938 0 0.005 0.0976 0 0.005 0.1014 0 0.005 0.1052 0 0.005 0.109 0 0.005 0.1128 0 0.005 0.1166 0 0.005 0.1204 0 0.005 0.1242 0 0.005 0.128 0 0.00583333 0.072 0 0.00583333 0.0757333 0 0.00583333 0.0794667 0 0.00583333 0.0832 0 0.00583333 0.0869333 0 0.00583333 0.0906667 0 0.00583333 0.0944 0 0.00583333 0.0981333 0 0.00583333 0.101867 0 0.00583333 0.1056 0 0.00583333 0.109333 0 0.00583333 0.113067 0 0.00583333 0.1168 0 0.00583333 0.120533 0 0.00583333 0.124267 0 0.00583333 0.128 0 0.00666667 0.073 0 0.00666667 0.0766667 0 0.00666667 0.0803333 0 0.00666667 0.084 0 0.00666667 0.0876667 0 0.00666667 0.0913333 0 0.00666667 0.095 0 0.00666667 0.0986667 0 0.00666667 0.102333 0 0.00666667 0.106 0 0.00666667 0.109667 0 0.00666667 0.113333 0 0.00666667 0.117 0 0.00666667 0.120667 0 0.00666667 0.124333 0 0.00666667 0.128 0 0.0075 0.074 0 0.0075 0.0776 0 0.0075 0.0812 0 0.0075 0.0848 0 0.0075 0.0884 0 0.0075 0.092 0 0.0075 0.0956 0 0.0075 0.0992 0 0.0075 0.1028 0 0.0075 0.1064 0 0.0075 0.11 0 0.0075 0.1136 0 0.0075 0.1172 0 0.0075 0.1208 0 0.0075 0.1244 0 0.0075 0.128 0 0.00833333 0.075 0 0.00833333 0.0785333 0 0.00833333 0.0820667 0 0.00833333 0.0856 0 0.00833333 0.0891333 0 0.00833333 0.0926667 0 0.00833333 0.0962 0 0.00833333 0.0997333 0 0.00833333 0.103267 0 0.00833333 0.1068 0 0.00833333 0.110333 0 0.00833333 0.113867 0 0.00833333 0.1174 0 0.00833333 0.120933 0 0.00833333 0.124467 0 0.00833333 0.128 0 0.00916667 0.076 0 0.00916667 0.0794667 0 0.00916667 0.0829333 0 0.00916667 0.0864 0 0.00916667 0.0898667 0 0.00916667 0.0933333 0 0.00916667 0.0968 0 0.00916667 0.100267 0 0.00916667 0.103733 0 0.00916667 0.1072 0 0.00916667 0.110667 0 0.00916667 0.114133 0 0.00916667 0.1176 0 0.00916667 0.121067 0 0.00916667 0.124533 0 0.00916667 0.128 0 0.01 0.077 0 0.01 0.0804 0 0.01 0.0838 0 0.01 0.0872 0 0.01 0.0906 0 0.01 0.094 0 0.01 0.0974 0 0.01 0.1008 0 0.01 0.1042 0 0.01 0.1076 0 0.01 0.111 0 0.01 0.1144 0 0.01 0.1178 0 0.01 0.1212 0 0.01 0.1246 0 0.01 0.128 0 0.0108333 0.078 0 0.0108333 0.0813333 0 0.0108333 0.0846667 0 0.0108333 0.088 0 0.0108333 0.0913333 0 0.0108333 0.0946667 0 0.0108333 0.098 0 0.0108333 0.101333 0 0.0108333 0.104667 0 0.0108333 0.108 0 0.0108333 0.111333 0 0.0108333 0.114667 0 0.0108333 0.118 0 0.0108333 0.121333 0 0.0108333 0.124667 0 0.0108333 0.128 0 0.0116667 0.079 0 0.0116667 0.0822667 0 0.0116667 0.0855333 0 0.0116667 0.0888 0 0.0116667 0.0920667 0 0.0116667 0.0953333 0 0.0116667 0.0986 0 0.0116667 0.101867 0 0.0116667 0.105133 0 0.0116667 0.1084 0 0.0116667 0.111667 0 0.0116667 0.114933 0 0.0116667 0.1182 0 0.0116667 0.121467 0 0.0116667 0.124733 0 0.0116667 0.128 0 0.0125 0.08 0 0.0125 0.0832 0 0.0125 0.0864 0 0.0125 0.0896 0 0.0125 0.0928 0 0.0125 0.096 0 0.0125 0.0992 0 0.0125 0.1024 0 0.0125 0.1056 0 0.0125 0.1088 0 0.0125 0.112 0 0.0125 0.1152 0 0.0125 0.1184 0 0.0125 0.1216 0 0.0125 0.1248 0 0.0125 0.128 0 
</DataArray>
</Points> 
</Piece> 
</StructuredGrid> 
</VTKFile> 
