<?xml version="1.0"?> 
<VTKFile type="StructuredGrid" version="0.1"> 
<StructuredGrid WholeExtent="0 15 0 15 0 0"> 
<Piece Extent="0 15 0 15 0 0"> 
<PointData>
<DataArray type="Float32" Name="E" format="ascii" NumberOfComponents="3"> 
-1.04595e+06 -0.000141025 0 -1.04591e+06 2151.17 0 -1.04578e+06 4302.33 0 -1.04556e+06 6453.44 0 -1.04526e+06 8604.49 0 -1.04487e+06 10755.5 0 -1.04439e+06 12906.3 0 -1.04382e+06 15057 0 -1.04317e+06 17207.5 0 -1.04243e+06 19357.8 0 -1.04161e+06 21507.8 0 -1.04069e+06 23657.4 0 -1.03969e+06 25806.7 0 -1.03859e+06 27955.5 0 -1.03741e+06 30103.8 0 -1.03614e+06 32251.4 0 -1.06323e+06 0.0019584 0 -1.06318e+06 2758.52 0 -1.06306e+06 5517.29 0 -1.06284e+06 8276.57 0 -1.06254e+06 11036.6 0 -1.06215e+06 13797.7 0 -1.06168e+06 16560 0 -1.06112e+06 19323.8 0 -1.06048e+06 22089.3 0 -1.05974e+06 24856.7 0 -1.05892e+06 27626.3 0 -1.05801e+06 30398.3 0 -1.05702e+06 33172.8 0 -1.05593e+06 35950 0 -1.05476e+06 38730 0 -1.05349e+06 41513 0 -1.08474e+06 0.00462387 0 -1.0847e+06 3352.9 0 -1.08458e+06 6706.4 0 -1.08437e+06 10061.1 0 -1.08408e+06 13417.6 0 -1.08371e+06 16776.5 0 -1.08325e+06 20138.4 0 -1.08271e+06 23503.8 0 -1.08208e+06 26873.3 0 -1.08137e+06 30247.3 0 -1.08058e+06 33626.5 0 -1.0797e+06 37011.3 0 -1.07873e+06 40402.1 0 -1.07768e+06 43799.3 0 -1.07654e+06 47203.5 0 -1.07531e+06 50614.9 0 -1.11035e+06 0.00835641 0 -1.11031e+06 3916.78 0 -1.11019e+06 7834.66 0 -1.11e+06 11754.7 0 -1.10973e+06 15678 0 -1.10938e+06 19605.7 0 -1.10896e+06 23538.7 0 -1.10845e+06 27478 0 -1.10787e+06 31424.8 0 -1.10721e+06 35379.9 0 -1.10647e+06 39344.2 0 -1.10564e+06 43318.7 0 -1.10474e+06 47304.1 0 -1.10375e+06 51301.4 0 -1.10268e+06 55311.2 0 -1.10153e+06 59334.3 0 -1.13974e+06 0.014044 0 -1.13971e+06 4425.55 0 -1.13961e+06 8852.93 0 -1.13944e+06 13284 0 -1.1392e+06 17720.5 0 -1.1389e+06 22164.3 0 -1.13853e+06 26617.1 0 -1.13809e+06 31080.5 0 -1.13758e+06 35556.4 0 -1.137e+06 40046.2 0 -1.13634e+06 44551.4 0 -1.13562e+06 49073.6 0 -1.13482e+06 53613.9 0 -1.13394e+06 58173.7 0 -1.13298e+06 62753.9 0 -1.13195e+06 67355.6 0 -1.17241e+06 0.0229915 0 -1.17239e+06 4841.64 0 -1.17231e+06 9686.3 0 -1.17219e+06 14537 0 -1.17201e+06 19396.6 0 -1.17178e+06 24268.1 0 -1.1715e+06 29154.4 0 -1.17117e+06 34058.2 0 -1.17078e+06 38982.4 0 -1.17033e+06 43929.6 0 -1.16983e+06 48902.3 0 -1.16926e+06 53903.2 0 -1.16864e+06 58934.6 0 -1.16794e+06 63998.9 0 -1.16719e+06 69098.5 0 -1.16636e+06 74235.7 0 -1.20752e+06 0.0371824 0 -1.20751e+06 5106.16 0 -1.20747e+06 10217.2 0 -1.20742e+06 15337.9 0 -1.20733e+06 20473.1 0 -1.20723e+06 25627.5 0 -1.20709e+06 30805.7 0 -1.20693e+06 36012.2 0 -1.20673e+06 41251.2 0 -1.2065e+06 46527 0 -1.20624e+06 51843.5 0 -1.20594e+06 57204.3 0 -1.20559e+06 62612.7 0 -1.2052e+06 68071.6 0 -1.20477e+06 73583.6 0 -1.20428e+06 79150.4 0 -1.24369e+06 0.0606385 0 -1.2437e+06 5125.01 0 -1.24373e+06 10258 0 -1.24378e+06 15406.8 0 -1.24385e+06 20579.2 0 -1.24394e+06 25783 0 -1.24404e+06 31025.7 0 -1.24415e+06 36314.8 0 -1.24427e+06 41657.5 0 -1.2444e+06 47060.9 0 -1.24452e+06 52531.6 0 -1.24464e+06 58076.4 0 -1.24474e+06 63701.5 0 -1.24483e+06 69413.4 0 -1.24489e+06 75218.4 0 -1.24491e+06 81122.4 0 -1.27868e+06 0.0974989 0 -1.27873e+06 4744.15 0 -1.27887e+06 9501.08 0 -1.2791e+06 14283.4 0 -1.27942e+06 19103.8 0 -1.27982e+06 23974.5 0 -1.28031e+06 28907.7 0 -1.28088e+06 33915.3 0 -1.28151e+06 39008.8 0 -1.28222e+06 44199.2 0 -1.28298e+06 49497.1 0 -1.2838e+06 54912.7 0 -1.28467e+06 60455.1 0 -1.28557e+06 66133.1 0 -1.28651e+06 71953.7 0 -1.28747e+06 77923.9 0 -1.3089e+06 0.157459 0 -1.309e+06 3719.89 0 -1.30931e+06 7460.43 0 -1.30983e+06 11242.1 0 -1.31055e+06 15085.1 0 -1.31146e+06 19009.7 0 -1.31257e+06 23035.5 0 -1.31385e+06 27181.9 0 -1.31532e+06 31467.4 0 -1.31694e+06 35910 0 -1.31872e+06 40526.7 0 -1.32063e+06 45333.6 0 -1.32266e+06 50345.6 0 -1.3248e+06 55576.5 0 -1.32703e+06 61039.6 0 -1.32931e+06 66744.6 0 -1.32852e+06 0.241524 0 -1.32872e+06 1660.91 0 -1.3293e+06 3353.57 0 -1.33027e+06 5109.54 0 -1.33163e+06 6960.58 0 -1.33336e+06 8938.52 0 -1.33546e+06 11075.3 0 -1.33792e+06 13403 0 -1.34073e+06 15954 0 -1.34387e+06 18760.8 0 -1.34734e+06 21856.3 0 -1.3511e+06 25273.5 0 -1.35514e+06 29045.4 0 -1.35944e+06 33204.4 0 -1.36396e+06 37781.7 0 -1.3687e+06 42811.3 0 -1.32847e+06 0.312978 0 -1.3288e+06 -1957.15 0 -1.32977e+06 -3873.07 0 -1.3314e+06 -5706.49 0 -1.33366e+06 -7415.45 0 -1.33657e+06 -8957.32 0 -1.34012e+06 -10288.6 0 -1.3443e+06 -11365.2 0 -1.34911e+06 -12142 0 -1.35452e+06 -12574.1 0 -1.36053e+06 -12616.4 0 -1.36712e+06 -12224.6 0 -1.37426e+06 -11355.4 0 -1.38192e+06 -9965.76 0 -1.39008e+06 -8012.61 0 -1.39871e+06 -5463.05 0 -1.29615e+06 0.224383 0 -1.29661e+06 -7540.35 0 -1.298e+06 -15050.5 0 -1.30032e+06 -22498.6 0 -1.30358e+06 -29849.1 0 -1.30782e+06 -37061.3 0 -1.31305e+06 -44086.9 0 -1.31929e+06 -50868.3 0 -1.32658e+06 -57336.4 0 -1.33495e+06 -63408.8 0 -1.34442e+06 -68988 0 -1.35501e+06 -73960.8 0 -1.36672e+06 -78199.1 0 -1.37953e+06 -81563.7 0 -1.39339e+06 -83911.2 0 -1.40823e+06 -85084.6 0 -1.21939e+06 -0.44019 0 -1.21982e+06 -14260.2 0 -1.22113e+06 -28578 0 -1.22335e+06 -43009.8 0 -1.22652e+06 -57610.9 0 -1.23069e+06 -72433.7 0 -1.23596e+06 -87526.7 0 -1.24243e+06 -102932 0 -1.25023e+06 -118681 0 -1.25954e+06 -134791 0 -1.27056e+06 -151257 0 -1.28353e+06 -168037 0 -1.29877e+06 -185040 0 -1.31666e+06 -202092 0 -1.33764e+06 -218906 0 -1.36226e+06 -235074 0 -1.1028e+06 -1.21441 0 -1.10284e+06 -18040.9 0 -1.10296e+06 -36242.6 0 -1.10317e+06 -54768.2 0 -1.10349e+06 -73787.9 0 -1.10396e+06 -93482.3 0 -1.10459e+06 -114047 0 -1.10545e+06 -135700 0 -1.10658e+06 -158686 0 -1.10804e+06 -183294 0 -1.1099e+06 -209868 0 -1.11224e+06 -238831 0 -1.11514e+06 -270719 0 -1.11871e+06 -306227 0 -1.12306e+06 -346275 0 -1.12837e+06 -392033 0 -983187 -1.08088 0 -982653 -14472.2 0 -981048 -29087.4 0 -978356 -43990.6 0 -974557 -59332.4 0 -969621 -75269.5 0 -963517 -91964.2 0 -956214 -109581 0 -947680 -128279 0 -937886 -148199 0 -926799 -169444 0 -914377 -192053 0 -900543 -215955 0 -885166 -240906 0 -867946 -266319 0 -848027 -290112 0 </DataArray> 
</PointData> 
<Points> 
<DataArray type="Float32" NumberOfComponents="3"> 
0.046 0 0 0.046 0.0018 0 0.046 0.0036 0 0.046 0.0054 0 0.046 0.0072 0 0.046 0.009 0 0.046 0.0108 0 0.046 0.0126 0 0.046 0.0144 0 0.046 0.0162 0 0.046 0.018 0 0.046 0.0198 0 0.046 0.0216 0 0.046 0.0234 0 0.046 0.0252 0 0.046 0.027 0 0.0586667 0 0 0.0586667 0.0018 0 0.0586667 0.0036 0 0.0586667 0.0054 0 0.0586667 0.0072 0 0.0586667 0.009 0 0.0586667 0.0108 0 0.0586667 0.0126 0 0.0586667 0.0144 0 0.0586667 0.0162 0 0.0586667 0.018 0 0.0586667 0.0198 0 0.0586667 0.0216 0 0.0586667 0.0234 0 0.0586667 0.0252 0 0.0586667 0.027 0 0.0713333 0 0 0.0713333 0.0018 0 0.0713333 0.0036 0 0.0713333 0.0054 0 0.0713333 0.0072 0 0.0713333 0.009 0 0.0713333 0.0108 0 0.0713333 0.0126 0 0.0713333 0.0144 0 0.0713333 0.0162 0 0.0713333 0.018 0 0.0713333 0.0198 0 0.0713333 0.0216 0 0.0713333 0.0234 0 0.0713333 0.0252 0 0.0713333 0.027 0 0.084 0 0 0.084 0.0018 0 0.084 0.0036 0 0.084 0.0054 0 0.084 0.0072 0 0.084 0.009 0 0.084 0.0108 0 0.084 0.0126 0 0.084 0.0144 0 0.084 0.0162 0 0.084 0.018 0 0.084 0.0198 0 0.084 0.0216 0 0.084 0.0234 0 0.084 0.0252 0 0.084 0.027 0 0.0966667 0 0 0.0966667 0.0018 0 0.0966667 0.0036 0 0.0966667 0.0054 0 0.0966667 0.0072 0 0.0966667 0.009 0 0.0966667 0.0108 0 0.0966667 0.0126 0 0.0966667 0.0144 0 0.0966667 0.0162 0 0.0966667 0.018 0 0.0966667 0.0198 0 0.0966667 0.0216 0 0.0966667 0.0234 0 0.0966667 0.0252 0 0.0966667 0.027 0 0.109333 0 0 0.109333 0.0018 0 0.109333 0.0036 0 0.109333 0.0054 0 0.109333 0.0072 0 0.109333 0.009 0 0.109333 0.0108 0 0.109333 0.0126 0 0.109333 0.0144 0 0.109333 0.0162 0 0.109333 0.018 0 0.109333 0.0198 0 0.109333 0.0216 0 0.109333 0.0234 0 0.109333 0.0252 0 0.109333 0.027 0 0.122 0 0 0.122 0.0018 0 0.122 0.0036 0 0.122 0.0054 0 0.122 0.0072 0 0.122 0.009 0 0.122 0.0108 0 0.122 0.0126 0 0.122 0.0144 0 0.122 0.0162 0 0.122 0.018 0 0.122 0.0198 0 0.122 0.0216 0 0.122 0.0234 0 0.122 0.0252 0 0.122 0.027 0 0.134667 0 0 0.134667 0.0018 0 0.134667 0.0036 0 0.134667 0.0054 0 0.134667 0.0072 0 0.134667 0.009 0 0.134667 0.0108 0 0.134667 0.0126 0 0.134667 0.0144 0 0.134667 0.0162 0 0.134667 0.018 0 0.134667 0.0198 0 0.134667 0.0216 0 0.134667 0.0234 0 0.134667 0.0252 0 0.134667 0.027 0 0.147333 0 0 0.147333 0.0018 0 0.147333 0.0036 0 0.147333 0.0054 0 0.147333 0.0072 0 0.147333 0.009 0 0.147333 0.0108 0 0.147333 0.0126 0 0.147333 0.0144 0 0.147333 0.0162 0 0.147333 0.018 0 0.147333 0.0198 0 0.147333 0.0216 0 0.147333 0.0234 0 0.147333 0.0252 0 0.147333 0.027 0 0.16 0 0 0.16 0.0018 0 0.16 0.0036 0 0.16 0.0054 0 0.16 0.0072 0 0.16 0.009 0 0.16 0.0108 0 0.16 0.0126 0 0.16 0.0144 0 0.16 0.0162 0 0.16 0.018 0 0.16 0.0198 0 0.16 0.0216 0 0.16 0.0234 0 0.16 0.0252 0 0.16 0.027 0 0.172667 0 0 0.172667 0.0018 0 0.172667 0.0036 0 0.172667 0.0054 0 0.172667 0.0072 0 0.172667 0.009 0 0.172667 0.0108 0 0.172667 0.0126 0 0.172667 0.0144 0 0.172667 0.0162 0 0.172667 0.018 0 0.172667 0.0198 0 0.172667 0.0216 0 0.172667 0.0234 0 0.172667 0.0252 0 0.172667 0.027 0 0.185333 0 0 0.185333 0.0018 0 0.185333 0.0036 0 0.185333 0.0054 0 0.185333 0.0072 0 0.185333 0.009 0 0.185333 0.0108 0 0.185333 0.0126 0 0.185333 0.0144 0 0.185333 0.0162 0 0.185333 0.018 0 0.185333 0.0198 0 0.185333 0.0216 0 0.185333 0.0234 0 0.185333 0.0252 0 0.185333 0.027 0 0.198 0 0 0.198 0.0018 0 0.198 0.0036 0 0.198 0.0054 0 0.198 0.0072 0 0.198 0.009 0 0.198 0.0108 0 0.198 0.0126 0 0.198 0.0144 0 0.198 0.0162 0 0.198 0.018 0 0.198 0.0198 0 0.198 0.0216 0 0.198 0.0234 0 0.198 0.0252 0 0.198 0.027 0 0.210667 0 0 0.210667 0.0018 0 0.210667 0.0036 0 0.210667 0.0054 0 0.210667 0.0072 0 0.210667 0.009 0 0.210667 0.0108 0 0.210667 0.0126 0 0.210667 0.0144 0 0.210667 0.0162 0 0.210667 0.018 0 0.210667 0.0198 0 0.210667 0.0216 0 0.210667 0.0234 0 0.210667 0.0252 0 0.210667 0.027 0 0.223333 0 0 0.223333 0.0018 0 0.223333 0.0036 0 0.223333 0.0054 0 0.223333 0.0072 0 0.223333 0.009 0 0.223333 0.0108 0 0.223333 0.0126 0 0.223333 0.0144 0 0.223333 0.0162 0 0.223333 0.018 0 0.223333 0.0198 0 0.223333 0.0216 0 0.223333 0.0234 0 0.223333 0.0252 0 0.223333 0.027 0 0.236 0 0 0.236 0.0018 0 0.236 0.0036 0 0.236 0.0054 0 0.236 0.0072 0 0.236 0.009 0 0.236 0.0108 0 0.236 0.0126 0 0.236 0.0144 0 0.236 0.0162 0 0.236 0.018 0 0.236 0.0198 0 0.236 0.0216 0 0.236 0.0234 0 0.236 0.0252 0 0.236 0.027 0 
</DataArray>
</Points> 
</Piece> 
</StructuredGrid> 
</VTKFile> 
