<?xml version="1.0"?> 
<VTKFile type="StructuredGrid" version="0.1"> 
<StructuredGrid WholeExtent="0 15 0 15 0 0"> 
<Piece Extent="0 15 0 15 0 0"> 
<PointData>
<DataArray type="Float32" Name="E" format="ascii" NumberOfComponents="3"> 
-1.0096e+06 0 0 -998998 0 0 -988327 0 0 -977586 0 0 -966770 0 0 -955875 0 0 -944887 0 0 -933790 0 0 -922554 0 0 -911139 0 0 -899486 0 0 -887520 0 0 -875149 0 0 -862275 0 0 -848818 0 0 -834751 0 0 -1.00972e+06 19444.7 0 -999103 18619.9 0 -988423 17784 0 -977676 16939.1 0 -966858 16088.3 0 -955963 15235.6 0 -944979 14386.4 0 -933890 13546.9 0 -922666 12724.2 0 -911264 11925.1 0 -899626 11153.7 0 -887669 10408.1 0 -875298 9674.79 0 -862410 8924.23 0 -848926 8110.69 0 -834822 7183.01 0 -1.01006e+06 38890.8 0 -999414 37238.2 0 -988706 35560.7 0 -977938 33863.1 0 -967108 32152.1 0 -956213 30436 0 -945241 28726.1 0 -934176 27035.8 0 -922987 25380.6 0 -911630 23776.1 0 -900036 22233.8 0 -888113 20752 0 -875747 19304.3 0 -862821 17827.4 0 -849254 16222 0 -835038 14379.2 0 -1.01063e+06 58352.9 0 -999920 55864.8 0 -989157 53334.1 0 -978348 50768.9 0 -967494 48179.4 0 -956591 45579 0 -945634 42985 0 -934605 40419.3 0 -923477 37908.6 0 -912199 35481.9 0 -900692 33164 0 -888842 30960.8 0 -876502 28835.1 0 -863525 26682.4 0 -849819 24332.5 0 -835408 21600.5 0 -1.01143e+06 77864.9 0 -1.00061e+06 74527.8 0 -989757 71127 0 -978878 67673.4 0 -967975 64180.4 0 -957049 60665.8 0 -946099 57153 0 -935113 53673.1 0 -924065 50266.3 0 -912905 46981.1 0 -901542 43866.7 0 -889831 40951.1 0 -877569 38196.6 0 -864546 35449.5 0 -850649 32435 0 -835954 28859 0 -1.01246e+06 97476.7 0 -1.00148e+06 93271.2 0 -990492 88979.6 0 -979503 84614 0 -968517 80189.6 0 -957541 75726.6 0 -946576 71253 0 -935621 66807.7 0 -924660 62445.3 0 -913650 58238.1 0 -902496 54273.9 0 -891021 50627.8 0 -878938 47293.1 0 -865920 44065.3 0 -851786 40514 0 -836694 36169.1 0 -1.01371e+06 117242 0 -1.00253e+06 112145 0 -991359 106941 0 -980216 101641 0 -969104 96259.6 0 -958034 90816.4 0 -947017 85340.2 0 -936062 79874.8 0 -925168 74484.3 0 -914314 69265.6 0 -903422 64350.9 0 -892300 59900.1 0 -880566 55996.2 0 -867676 52430.7 0 -853292 48535.4 0 -837682 43529 0 -1.0152e+06 137202 0 -1.00376e+06 131191 0 -992372 125057 0 -981028 118805 0 -969743 112447 0 -958529 106000 0 -947407 99489.5 0 -936397 92956.5 0 -925520 86470.5 0 -914786 80137.5 0 -904159 74135 0 -893491 68715.3 0 -882332 64161.3 0 -869836 60382.9 0 -855245 56440.2 0 -838947 50972.8 0 -1.01692e+06 157379 0 -1.00521e+06 150436 0 -993553 143357 0 -981967 136142 0 -970460 128798 0 -959052 121335 0 -947765 113772 0 -936633 106146 0 -925697 98512.8 0 -915001 90986.1 0 -904574 83746.3 0 -894360 77132.8 0 -884009 71662.9 0 -872334 67694.7 0 -857771 64101.1 0 -840609 58417.8 0 -1.0189e+06 177771 0 -1.00688e+06 169885 0 -994929 161852 0 -983065 153670 0 -971297 145337 0 -959646 136857 0 -948139 128243 0 -936817 119513 0 -925735 110722 0 -914973 101945 0 -904613 93379.6 0 -894728 85337.9 0 -885224 78541.5 0 -874974 74057.2 0 -860985 71286.8 0 -842701 65994.6 0 -1.02112e+06 198359 0 -1.00878e+06 189525 0 -996519 180536 0 -984352 171386 0 -972292 162066 0 -960361 152579 0 -948587 142917 0 -937016 133105 0 -925713 123153 0 -914766 113146 0 -904337 103184 0 -894554 93635.8 0 -885642 85059.9 0 -877210 79305.8 0 -865030 77515.3 0 -845514 73324.9 0 -1.0236e+06 219114 0 -1.01093e+06 209332 0 -998340 199389 0 -985851 189272 0 -973477 178976 0 -961237 168484 0 -949163 157805 0 -937297 146912 0 -925712 135850 0 -914502 124618 0 -903828 113325 0 -894003 102176 0 -885168 91774.8 0 -878278 83620.7 0 -869650 82051 0 -849137 81346 0 -1.02634e+06 240003 0 -1.01333e+06 229279 0 -1.0004e+06 218383 0 -987576 207307 0 -974871 196035 0 -962304 184563 0 -949906 172857 0 -937719 160951 0 -925800 148762 0 -914285 136397 0 -903253 123816 0 -893156 111139 0 -884254 98899.4 0 -877477 88012.9 0 -873861 84198.8 0 -854278 89868.7 0 -1.02934e+06 260994 0 -1.01598e+06 249335 0 -1.0027e+06 237494 0 -989532 225461 0 -976484 213225 0 -963579 200767 0 -950840 188087 0 -938314 175118 0 -926049 161950 0 -914141 148369 0 -902821 134658 0 -892082 120622 0 -883232 106436 0 -875470 93352.5 0 -875098 84307.8 0 -862228 102930 0 -1.03261e+06 282057 0 -1.01888e+06 269473 0 -1.00524e+06 256694 0 -991718 243711 0 -978319 230515 0 -965064 217088 0 -951982 203413 0 -939096 189480 0 -926483 175204 0 -914190 160696 0 -902393 145664 0 -891453 130421 0 -881291 115063 0 -874702 98574.8 0 -870377 85954.4 0 -875489 111829 0 -1.03614e+06 303165 0 -1.02203e+06 289668 0 -1.00803e+06 275961 0 -994133 262035 0 -980372 247882 0 -966761 233491 0 -953324 218840 0 -940083 203919 0 -927117 188637 0 -914370 173140 0 -902391 156798 0 -890228 141169 0 -881386 122119 0 -869651 109448 0 -870358 85572.4 0 -952195 -36982.9 0 </DataArray> 
</PointData> 
<Points> 
<DataArray type="Float32" NumberOfComponents="3"> 
0 0.027 0 0 0.0286667 0 0 0.0303333 0 0 0.032 0 0 0.0336667 0 0 0.0353333 0 0 0.037 0 0 0.0386667 0 0 0.0403333 0 0 0.042 0 0 0.0436667 0 0 0.0453333 0 0 0.047 0 0 0.0486667 0 0 0.0503333 0 0 0.052 0 0.00306667 0.027 0 0.00291778 0.0286667 0 0.00276889 0.0303333 0 0.00262 0.032 0 0.00247111 0.0336667 0 0.00232222 0.0353333 0 0.00217333 0.037 0 0.00202444 0.0386667 0 0.00187556 0.0403333 0 0.00172667 0.042 0 0.00157778 0.0436667 0 0.00142889 0.0453333 0 0.00128 0.047 0 0.00113111 0.0486667 0 0.000982222 0.0503333 0 0.000833333 0.052 0 0.00613333 0.027 0 0.00583556 0.0286667 0 0.00553778 0.0303333 0 0.00524 0.032 0 0.00494222 0.0336667 0 0.00464444 0.0353333 0 0.00434667 0.037 0 0.00404889 0.0386667 0 0.00375111 0.0403333 0 0.00345333 0.042 0 0.00315556 0.0436667 0 0.00285778 0.0453333 0 0.00256 0.047 0 0.00226222 0.0486667 0 0.00196444 0.0503333 0 0.00166667 0.052 0 0.0092 0.027 0 0.00875333 0.0286667 0 0.00830667 0.0303333 0 0.00786 0.032 0 0.00741333 0.0336667 0 0.00696667 0.0353333 0 0.00652 0.037 0 0.00607333 0.0386667 0 0.00562667 0.0403333 0 0.00518 0.042 0 0.00473333 0.0436667 0 0.00428667 0.0453333 0 0.00384 0.047 0 0.00339333 0.0486667 0 0.00294667 0.0503333 0 0.0025 0.052 0 0.0122667 0.027 0 0.0116711 0.0286667 0 0.0110756 0.0303333 0 0.01048 0.032 0 0.00988444 0.0336667 0 0.00928889 0.0353333 0 0.00869333 0.037 0 0.00809778 0.0386667 0 0.00750222 0.0403333 0 0.00690667 0.042 0 0.00631111 0.0436667 0 0.00571556 0.0453333 0 0.00512 0.047 0 0.00452444 0.0486667 0 0.00392889 0.0503333 0 0.00333333 0.052 0 0.0153333 0.027 0 0.0145889 0.0286667 0 0.0138444 0.0303333 0 0.0131 0.032 0 0.0123556 0.0336667 0 0.0116111 0.0353333 0 0.0108667 0.037 0 0.0101222 0.0386667 0 0.00937778 0.0403333 0 0.00863333 0.042 0 0.00788889 0.0436667 0 0.00714444 0.0453333 0 0.0064 0.047 0 0.00565556 0.0486667 0 0.00491111 0.0503333 0 0.00416667 0.052 0 0.0184 0.027 0 0.0175067 0.0286667 0 0.0166133 0.0303333 0 0.01572 0.032 0 0.0148267 0.0336667 0 0.0139333 0.0353333 0 0.01304 0.037 0 0.0121467 0.0386667 0 0.0112533 0.0403333 0 0.01036 0.042 0 0.00946667 0.0436667 0 0.00857333 0.0453333 0 0.00768 0.047 0 0.00678667 0.0486667 0 0.00589333 0.0503333 0 0.005 0.052 0 0.0214667 0.027 0 0.0204244 0.0286667 0 0.0193822 0.0303333 0 0.01834 0.032 0 0.0172978 0.0336667 0 0.0162556 0.0353333 0 0.0152133 0.037 0 0.0141711 0.0386667 0 0.0131289 0.0403333 0 0.0120867 0.042 0 0.0110444 0.0436667 0 0.0100022 0.0453333 0 0.00896 0.047 0 0.00791778 0.0486667 0 0.00687556 0.0503333 0 0.00583333 0.052 0 0.0245333 0.027 0 0.0233422 0.0286667 0 0.0221511 0.0303333 0 0.02096 0.032 0 0.0197689 0.0336667 0 0.0185778 0.0353333 0 0.0173867 0.037 0 0.0161956 0.0386667 0 0.0150044 0.0403333 0 0.0138133 0.042 0 0.0126222 0.0436667 0 0.0114311 0.0453333 0 0.01024 0.047 0 0.00904889 0.0486667 0 0.00785778 0.0503333 0 0.00666667 0.052 0 0.0276 0.027 0 0.02626 0.0286667 0 0.02492 0.0303333 0 0.02358 0.032 0 0.02224 0.0336667 0 0.0209 0.0353333 0 0.01956 0.037 0 0.01822 0.0386667 0 0.01688 0.0403333 0 0.01554 0.042 0 0.0142 0.0436667 0 0.01286 0.0453333 0 0.01152 0.047 0 0.01018 0.0486667 0 0.00884 0.0503333 0 0.0075 0.052 0 0.0306667 0.027 0 0.0291778 0.0286667 0 0.0276889 0.0303333 0 0.0262 0.032 0 0.0247111 0.0336667 0 0.0232222 0.0353333 0 0.0217333 0.037 0 0.0202444 0.0386667 0 0.0187556 0.0403333 0 0.0172667 0.042 0 0.0157778 0.0436667 0 0.0142889 0.0453333 0 0.0128 0.047 0 0.0113111 0.0486667 0 0.00982222 0.0503333 0 0.00833333 0.052 0 0.0337333 0.027 0 0.0320956 0.0286667 0 0.0304578 0.0303333 0 0.02882 0.032 0 0.0271822 0.0336667 0 0.0255444 0.0353333 0 0.0239067 0.037 0 0.0222689 0.0386667 0 0.0206311 0.0403333 0 0.0189933 0.042 0 0.0173556 0.0436667 0 0.0157178 0.0453333 0 0.01408 0.047 0 0.0124422 0.0486667 0 0.0108044 0.0503333 0 0.00916667 0.052 0 0.0368 0.027 0 0.0350133 0.0286667 0 0.0332267 0.0303333 0 0.03144 0.032 0 0.0296533 0.0336667 0 0.0278667 0.0353333 0 0.02608 0.037 0 0.0242933 0.0386667 0 0.0225067 0.0403333 0 0.02072 0.042 0 0.0189333 0.0436667 0 0.0171467 0.0453333 0 0.01536 0.047 0 0.0135733 0.0486667 0 0.0117867 0.0503333 0 0.01 0.052 0 0.0398667 0.027 0 0.0379311 0.0286667 0 0.0359956 0.0303333 0 0.03406 0.032 0 0.0321244 0.0336667 0 0.0301889 0.0353333 0 0.0282533 0.037 0 0.0263178 0.0386667 0 0.0243822 0.0403333 0 0.0224467 0.042 0 0.0205111 0.0436667 0 0.0185756 0.0453333 0 0.01664 0.047 0 0.0147044 0.0486667 0 0.0127689 0.0503333 0 0.0108333 0.052 0 0.0429333 0.027 0 0.0408489 0.0286667 0 0.0387644 0.0303333 0 0.03668 0.032 0 0.0345956 0.0336667 0 0.0325111 0.0353333 0 0.0304267 0.037 0 0.0283422 0.0386667 0 0.0262578 0.0403333 0 0.0241733 0.042 0 0.0220889 0.0436667 0 0.0200044 0.0453333 0 0.01792 0.047 0 0.0158356 0.0486667 0 0.0137511 0.0503333 0 0.0116667 0.052 0 0.046 0.027 0 0.0437667 0.0286667 0 0.0415333 0.0303333 0 0.0393 0.032 0 0.0370667 0.0336667 0 0.0348333 0.0353333 0 0.0326 0.037 0 0.0303667 0.0386667 0 0.0281333 0.0403333 0 0.0259 0.042 0 0.0236667 0.0436667 0 0.0214333 0.0453333 0 0.0192 0.047 0 0.0169667 0.0486667 0 0.0147333 0.0503333 0 0.0125 0.052 0 
</DataArray>
</Points> 
</Piece> 
</StructuredGrid> 
</VTKFile> 
