<?xml version="1.0"?> 
<VTKFile type="StructuredGrid" version="0.1"> 
<StructuredGrid WholeExtent="0 15 0 15 0 0"> 
<Piece Extent="0 15 0 15 0 0"> 
<PointData>
<DataArray type="Float32" Name="E" format="ascii" NumberOfComponents="3"> 
2.29119e+06 -434.974 0 2.27201e+06 133936 0 2.25592e+06 271089 0 2.24323e+06 412842 0 2.23368e+06 561153 0 2.22703e+06 718375 0 2.22323e+06 887418 0 2.22238e+06 1.07203e+06 0 2.22491e+06 1.2772e+06 0 2.23175e+06 1.50985e+06 0 2.24473e+06 1.78005e+06 0 2.26756e+06 2.10322e+06 0 2.30699e+06 2.5047e+06 0 2.3768e+06 3.02881e+06 0 2.50121e+06 3.76e+06 0 2.71394e+06 4.87193e+06 0 2.21446e+06 -3.62399 0 2.19589e+06 131348 0 2.18005e+06 265768 0 2.16655e+06 404721 0 2.155e+06 550088 0 2.1451e+06 704138 0 2.13655e+06 869699 0 2.12912e+06 1.05042e+06 0 2.12265e+06 1.25116e+06 0 2.1171e+06 1.47873e+06 0 2.1127e+06 1.743e+06 0 2.11022e+06 2.05922e+06 0 2.11127e+06 2.45226e+06 0 2.11874e+06 2.96555e+06 0 2.13665e+06 3.68077e+06 0 2.16244e+06 4.75471e+06 0 2.13581e+06 15.6958 0 2.11837e+06 128893 0 2.10273e+06 260735 0 2.0884e+06 397026 0 2.07496e+06 539567 0 2.06196e+06 690542 0 2.04889e+06 852671 0 2.03519e+06 1.02947e+06 0 2.02012e+06 1.22562e+06 0 2.00276e+06 1.44767e+06 0 1.98183e+06 1.70512e+06 0 1.9554e+06 2.01255e+06 0 1.92026e+06 2.39357e+06 0 1.86991e+06 2.88892e+06 0 1.7897e+06 3.57379e+06 0 1.64199e+06 4.59122e+06 0 2.05618e+06 7.64453 0 2.03978e+06 126607 0 2.02425e+06 256072 0 2.00911e+06 389873 0 1.99385e+06 529739 0 1.97788e+06 677761 0 1.9605e+06 836537 0 1.9408e+06 1.00941e+06 0 1.91754e+06 1.20085e+06 0 1.88894e+06 1.41703e+06 0 1.85232e+06 1.66687e+06 0 1.80335e+06 1.96393e+06 0 1.73448e+06 2.32981e+06 0 1.63107e+06 2.80108e+06 0 1.46229e+06 3.44342e+06 0 1.15741e+06 4.38003e+06 0 1.97591e+06 11.2987 0 1.96045e+06 124541 0 1.94499e+06 251853 0 1.92904e+06 383364 0 1.91201e+06 520732 0 1.8932e+06 665946 0 1.87169e+06 821472 0 1.84625e+06 990462 0 1.81515e+06 1.17709e+06 0 1.77584e+06 1.3871e+06 0 1.72438e+06 1.62865e+06 0 1.6543e+06 1.91396e+06 0 1.55429e+06 2.26203e+06 0 1.40288e+06 2.70399e+06 0 1.15606e+06 3.29337e+06 0 715630 4.12584e+06 0 1.89536e+06 9.11194 0 1.88074e+06 122733 0 1.86533e+06 248137 0 1.84857e+06 377581 0 1.82983e+06 512648 0 1.80826e+06 655221 0 1.78277e+06 807616 0 1.75182e+06 972769 0 1.71323e+06 1.15453e+06 0 1.66373e+06 1.3581e+06 0 1.59825e+06 1.59077e+06 0 1.50849e+06 1.86314e+06 0 1.38e+06 2.19109e+06 0 1.18593e+06 2.59933e+06 0 872503 3.12716e+06 0 322850 3.83657e+06 0 1.81488e+06 9.63672 0 1.80105e+06 121207 0 1.78565e+06 244965 0 1.7681e+06 372582 0 1.74769e+06 505560 0 1.72346e+06 645670 0 1.69412e+06 795065 0 1.65786e+06 956445 0 1.61207e+06 1.13329e+06 0 1.55286e+06 1.3302e+06 0 1.47417e+06 1.55346e+06 0 1.36616e+06 1.81182e+06 0 1.21193e+06 2.11768e+06 0 980736 2.48858e+06 0 612848 2.94822e+06 0 -16572.6 3.52186e+06 0 1.73482e+06 8.89417 0 1.72175e+06 119977 0 1.70636e+06 242360 0 1.68804e+06 368398 0 1.66601e+06 499506 0 1.63919e+06 637336 0 1.60611e+06 783868 0 1.56471e+06 941542 0 1.512e+06 1.11343e+06 0 1.44353e+06 1.30348e+06 0 1.35241e+06 1.51684e+06 0 1.22758e+06 1.76024e+06 0 1.05039e+06 2.04231e+06 0 787771 2.37299e+06 0 378017 2.75988e+06 0 -300589 3.19196e+06 0 1.65553e+06 8.66313 0 1.64322e+06 119044 0 1.62786e+06 240326 0 1.6088e+06 365031 0 1.58518e+06 494487 0 1.55583e+06 630219 0 1.51911e+06 774021 0 1.47272e+06 928052 0 1.41334e+06 1.09494e+06 0 1.33603e+06 1.27792e+06 0 1.23325e+06 1.48092e+06 0 1.09304e+06 1.70852e+06 0 895712 1.96536e+06 0 607491 2.25366e+06 0 168582 2.56532e+06 0 -529490 2.85687e+06 0 1.57732e+06 8.21065 0 1.56582e+06 118400 0 1.55052e+06 238845 0 1.53076e+06 362457 0 1.50559e+06 490470 0 1.47376e+06 624276 0 1.43348e+06 765472 0 1.38224e+06 915909 0 1.31641e+06 1.07775e+06 0 1.23067e+06 1.25344e+06 0 1.11699e+06 1.44564e+06 0 962850 1.65666e+06 0 748260 1.88707e+06 0 440329 2.13154e+06 0 -15230.4 2.36752e+06 0 -705651 2.52563e+06 0 1.5005e+06 7.82523 0 1.48989e+06 118025 0 1.47471e+06 237883 0 1.45428e+06 360626 0 1.42761e+06 487392 0 1.39335e+06 619429 0 1.34957e+06 758122 0 1.29358e+06 904999 0 1.22152e+06 1.06171e+06 0 1.12775e+06 1.2299e+06 0 1.00392e+06 1.41085e+06 0 837337 1.60458e+06 0 608416 1.80761e+06 0 286692 2.00749e+06 0 -173535 2.16928e+06 0 -833059 2.2058e+06 0 1.42537e+06 7.396 0 1.41574e+06 117894 0 1.40074e+06 237391 0 1.37969e+06 359469 0 1.35155e+06 485162 0 1.31489e+06 615565 0 1.26767e+06 751837 0 1.20704e+06 895161 0 1.12893e+06 1.04665e+06 0 1.02753e+06 1.20708e+06 0 894334 1.37636e+06 0 716837 1.55215e+06 0 476581 1.72709e+06 0 146949 1.88232e+06 0 -306755 1.97313e+06 0 -916716 1.90311e+06 0 1.35217e+06 6.92053 0 1.34363e+06 117974 0 1.3289e+06 237308 0 1.30728e+06 358900 0 1.2777e+06 483670 0 1.23867e+06 612551 0 1.18805e+06 746457 0 1.12286e+06 886206 0 1.03891e+06 1.03234e+06 0 930269 1.18475e+06 0 788512 1.34191e+06 0 601688 1.4992e+06 0 353160 1.6456e+06 0 21416.4 1.75681e+06 0 -415571 1.7814e+06 0 -961965 1.62131e+06 0 1.28112e+06 6.37955 0 1.27382e+06 118229 0 1.25943e+06 237567 0 1.23728e+06 358823 0 1.20629e+06 482794 0 1.1649e+06 610235 0 1.11091e+06 741802 0 1.04125e+06 877923 0 951645 1.01855e+06 0 836192 1.16265e+06 0 686726 1.30725e+06 0 492226 1.44556e+06 0 238555 1.56327e+06 0 -89660.8 1.63179e+06 0 -500842 1.59618e+06 0 -973679 1.36209e+06 0 1.21242e+06 5.68793 0 1.20649e+06 118618 0 1.19253e+06 238097 0 1.16989e+06 359140 0 1.1375e+06 482407 0 1.09376e+06 608463 0 1.03643e+06 737688 0 962370 870097 0 867323 1.00502e+06 0 745499 1.1405e+06 0 589231 1.27215e+06 0 388777 1.3911e+06 0 133154 1.48029e+06 0 -186143 1.50813e+06 0 -563445 1.41948e+06 0 -955091 1.12478e+06 0 1.14622e+06 4.79447 0 1.1418e+06 119104 0 1.12834e+06 238826 0 1.10525e+06 359750 0 1.07146e+06 482383 0 1.02537e+06 607082 0 964708 733932 0 886341 862516 0 786065 991530 0 658352 1.11806e+06 0 496249 1.23639e+06 0 291623 1.33574e+06 0 37304 1.39693e+06 0 -268111 1.38681e+06 0 -603988 1.25343e+06 0 -905679 905679 0 </DataArray> 
</PointData> 
<Points> 
<DataArray type="Float32" NumberOfComponents="3"> 
0.391 0 0 0.391116 0.000693704 0 0.391232 0.00138741 0 0.391348 0.00208111 0 0.391463 0.00277482 0 0.391579 0.00346852 0 0.391695 0.00416223 0 0.391811 0.00485593 0 0.391927 0.00554964 0 0.392043 0.00624334 0 0.392159 0.00693704 0 0.392274 0.00763075 0 0.39239 0.00832445 0 0.392506 0.00901816 0 0.392622 0.00971186 0 0.392738 0.0104056 0 0.3914 0 0 0.391504 0.000668877 0 0.391608 0.00134 0 0.391713 0.00201339 0 0.391818 0.00268905 0 0.391923 0.00336699 0 0.392029 0.00404723 0 0.392135 0.00472977 0 0.392242 0.00541464 0 0.392349 0.00610183 0 0.392456 0.00679137 0 0.392563 0.00748326 0 0.392671 0.00817752 0 0.39278 0.00887415 0 0.392888 0.00957318 0 0.392997 0.0102746 0 0.3918 0 0 0.391894 0.000647908 0 0.391988 0.00129987 0 0.392084 0.00195594 0 0.392179 0.00261613 0 0.392276 0.00328051 0 0.392372 0.00394909 0 0.39247 0.00462193 0 0.392568 0.00529907 0 0.392667 0.00598054 0 0.392766 0.00666639 0 0.392866 0.00735666 0 0.392967 0.00805139 0 0.393068 0.00875063 0 0.39317 0.00945442 0 0.393273 0.0101628 0 0.3922 0 0 0.392285 0.00063083 0 0.392371 0.00126714 0 0.392458 0.00190901 0 0.392546 0.00255651 0 0.392634 0.00320971 0 0.392724 0.00386869 0 0.392814 0.00453353 0 0.392904 0.0052043 0 0.392996 0.00588109 0 0.393088 0.00656397 0 0.393182 0.00725303 0 0.393276 0.00794835 0 0.393371 0.00865002 0 0.393467 0.00935813 0 0.393563 0.0100728 0 0.3926 0 0 0.392678 0.000617669 0 0.392757 0.00124191 0 0.392837 0.00187284 0 0.392917 0.00251055 0 0.392999 0.00315517 0 0.393081 0.00380679 0 0.393165 0.00446555 0 0.393249 0.00513154 0 0.393334 0.0058049 0 0.39342 0.00648575 0 0.393507 0.00717421 0 0.393595 0.00787042 0 0.393684 0.00857449 0 0.393774 0.00928658 0 0.393865 0.0100068 0 0.393 0 0 0.393072 0.000608446 0 0.393144 0.00122426 0 0.393218 0.00184759 0 0.393292 0.00247856 0 0.393368 0.00311731 0 0.393444 0.00376399 0 0.393521 0.00441876 0 0.3936 0.00508175 0 0.393679 0.00575314 0 0.393759 0.00643307 0 0.39384 0.00712171 0 0.393923 0.00781924 0 0.394006 0.00852582 0 0.39409 0.00924163 0 0.394176 0.00996685 0 0.3934 0 0 0.393466 0.000603176 0 0.393533 0.00121425 0 0.393601 0.00183339 0 0.39367 0.00246073 0 0.39374 0.00309646 0 0.39381 0.00374074 0 0.393882 0.00439375 0 0.393955 0.00505565 0 0.394028 0.00572665 0 0.394103 0.00640691 0 0.394179 0.00709665 0 0.394255 0.00779604 0 0.394333 0.00850532 0 0.394412 0.00922467 0 0.394492 0.00995432 0 0.3938 0 0 0.393861 0.00060187 0 0.393923 0.00121192 0 0.393985 0.00183031 0 0.394049 0.00245723 0 0.394113 0.00309284 0 0.394179 0.00373733 0 0.394245 0.00439088 0 0.394312 0.00505369 0 0.39438 0.00572596 0 0.394449 0.00640789 0 0.394519 0.00709969 0 0.39459 0.00780158 0 0.394663 0.00851377 0 0.394736 0.0092365 0 0.39481 0.00997001 0 0.3942 0 0 0.394256 0.000604529 0 0.394313 0.00121727 0 0.39437 0.0018384 0 0.394428 0.00246809 0 0.394487 0.0031065 0 0.394547 0.00375384 0 0.394608 0.00441028 0 0.394669 0.00507603 0 0.394732 0.00575127 0 0.394795 0.00643621 0 0.394859 0.00713107 0 0.394925 0.00783605 0 0.394991 0.00855139 0 0.395058 0.00927732 0 0.395126 0.0100141 0 0.3946 0 0 0.394651 0.000611154 0 0.394702 0.00123031 0 0.394754 0.00185763 0 0.394807 0.00249328 0 0.39486 0.00313742 0 0.394914 0.00379022 0 0.394969 0.00445186 0 0.395025 0.00512252 0 0.395081 0.00580238 0 0.395138 0.00649165 0 0.395196 0.0071905 0 0.395255 0.00789915 0 0.395314 0.0086178 0 0.395375 0.00934667 0 0.395436 0.010086 0 0.395 0 0 0.395045 0.000621735 0 0.395091 0.001251 0 0.395137 0.00188794 0 0.395183 0.00253269 0 0.39523 0.00318539 0 0.395278 0.0038462 0 0.395327 0.00451527 0 0.395376 0.00519274 0 0.395425 0.00587879 0 0.395476 0.00657357 0 0.395526 0.00727726 0 0.395578 0.00799002 0 0.39563 0.00871203 0 0.395683 0.00944348 0 0.395737 0.0101845 0 0.3954 0 0 0.395439 0.00063626 0 0.395478 0.00127929 0 0.395517 0.00192921 0 0.395557 0.00258612 0 0.395597 0.00325014 0 0.395638 0.00392138 0 0.395679 0.00459996 0 0.39572 0.005286 0 0.395762 0.00597963 0 0.395805 0.00668097 0 0.395848 0.00739015 0 0.395891 0.00810731 0 0.395935 0.00883258 0 0.39598 0.0095661 0 0.396025 0.010308 0 0.3958 0 0 0.395831 0.00065471 0 0.395863 0.00131511 0 0.395894 0.00198128 0 0.395926 0.00265329 0 0.395958 0.00333122 0 0.395991 0.00401515 0 0.396024 0.00470515 0 0.396057 0.00540131 0 0.39609 0.00610372 0 0.396124 0.00681245 0 0.396158 0.0075276 0 0.396192 0.00824924 0 0.396227 0.00897747 0 0.396262 0.00971239 0 0.396297 0.0104541 0 0.3962 0 0 0.396222 0.00067706 0 0.396245 0.00135836 0 0.396268 0.00204394 0 0.396291 0.00273384 0 0.396314 0.00342811 0 0.396337 0.00412678 0 0.39636 0.00482989 0 0.396383 0.00553749 0 0.396407 0.00624963 0 0.396431 0.00696633 0 0.396455 0.00768766 0 0.396479 0.00841365 0 0.396503 0.00914436 0 0.396527 0.00987981 0 0.396552 0.0106201 0 0.3966 0 0 0.396612 0.000703279 0 0.396624 0.00140892 0 0.396637 0.00211695 0 0.396649 0.00282736 0 0.396661 0.00354017 0 0.396673 0.00425539 0 0.396686 0.00497304 0 0.396698 0.00569313 0 0.396711 0.00641567 0 0.396723 0.00714067 0 0.396736 0.00786815 0 0.396748 0.00859812 0 0.396761 0.00933058 0 0.396774 0.0100656 0 0.396786 0.0108031 0 0.397 0 0 0.397 0.000733333 0 0.397 0.00146667 0 0.397 0.0022 0 0.397 0.00293333 0 0.397 0.00366667 0 0.397 0.0044 0 0.397 0.00513333 0 0.397 0.00586667 0 0.397 0.0066 0 0.397 0.00733333 0 0.397 0.00806667 0 0.397 0.0088 0 0.397 0.00953333 0 0.397 0.0102667 0 0.397 0.011 0 
</DataArray>
</Points> 
</Piece> 
</StructuredGrid> 
</VTKFile> 
