<?xml version="1.0"?> 
<VTKFile type="StructuredGrid" version="0.1"> 
<StructuredGrid WholeExtent="0 15 0 15 0 0"> 
<Piece Extent="0 15 0 15 0 0"> 
<PointData>
<DataArray type="Float32" Name="E" format="ascii" NumberOfComponents="3"> 
-1.91142e+06 2.03502e+06 0 -1.99826e+06 2.22756e+06 0 -2.04663e+06 2.48218e+06 0 -2.02534e+06 2.78043e+06 0 -1.91718e+06 3.08483e+06 0 -1.73146e+06 3.35358e+06 0 -1.49907e+06 3.56092e+06 0 -1.25427e+06 3.7045e+06 0 -1.02089e+06 3.79728e+06 0 -810022 3.85609e+06 0 -624224 3.89526e+06 0 -462040 3.92502e+06 0 -320795 3.95221e+06 0 -197914 3.98136e+06 0 -91400 4.01563e+06 0 -27.1774 4.05733e+06 0 -1.98272e+06 2.03089e+06 0 -2.07785e+06 2.22977e+06 0 -2.13219e+06 2.49244e+06 0 -2.11402e+06 2.79986e+06 0 -2.00581e+06 3.11345e+06 0 -1.81721e+06 3.39002e+06 0 -1.58017e+06 3.60271e+06 0 -1.33035e+06 3.74887e+06 0 -1.09269e+06 3.84182e+06 0 -878815 3.89902e+06 0 -691392 3.93525e+06 0 -528828 3.96095e+06 0 -388227 3.98293e+06 0 -266753 4.00549e+06 0 -162112 4.03135e+06 0 -72697.6 4.06229e+06 0 -2.06267e+06 2.02283e+06 0 -2.16638e+06 2.22928e+06 0 -2.22692e+06 2.5013e+06 0 -2.21195e+06 2.81926e+06 0 -2.10352e+06 3.14344e+06 0 -1.91152e+06 3.42914e+06 0 -1.66901e+06 3.64827e+06 0 -1.41321e+06 3.79777e+06 0 -1.17029e+06 3.89136e+06 0 -952516 3.94723e+06 0 -762669 3.98074e+06 0 -599002 4.00268e+06 0 -458361 4.01991e+06 0 -337618 4.03661e+06 0 -234180 4.05526e+06 0 -146084 4.07731e+06 0 -2.15283e+06 2.01018e+06 0 -2.26545e+06 2.22559e+06 0 -2.33249e+06 2.50843e+06 0 -2.32083e+06 2.8385e+06 0 -2.212e+06 3.17492e+06 0 -2.01602e+06 3.47135e+06 0 -1.76711e+06 3.69825e+06 0 -1.50417e+06 3.85204e+06 0 -1.25481e+06 3.94688e+06 0 -1.03206e+06 4.00176e+06 0 -838849 4.0328e+06 0 -673257 4.05123e+06 0 -531836 4.06412e+06 0 -411142 4.07563e+06 0 -308251 4.08812e+06 0 -220899 4.10283e+06 0 -2.25517e+06 1.99211e+06 0 -2.37712e+06 2.21803e+06 0 -2.451e+06 2.51339e+06 0 -2.44284e+06 2.85744e+06 0 -2.33343e+06 3.20808e+06 0 -2.13283e+06 3.51716e+06 0 -1.87642e+06 3.75349e+06 0 -1.60495e+06 3.91279e+06 0 -1.34773e+06 4.00962e+06 0 -1.11868e+06 4.06394e+06 0 -920962 4.09278e+06 0 -752475 4.10796e+06 0 -609436 4.11686e+06 0 -488048 4.12376e+06 0 -385053 4.13098e+06 0 -297880 4.13967e+06 0 -2.37219e+06 1.96752e+06 0 -2.50396e+06 2.20577e+06 0 -2.58514e+06 2.51561e+06 0 -2.58074e+06 2.87581e+06 0 -2.47064e+06 3.24304e+06 0 -2.26473e+06 3.56717e+06 0 -1.99952e+06 3.81504e+06 0 -1.71785e+06 3.98142e+06 0 -1.45097e+06 4.08125e+06 0 -1.21398e+06 4.13556e+06 0 -1.01033e+06 4.1625e+06 0 -837760 4.17467e+06 0 -692110 4.1799e+06 0 -569181 4.18266e+06 0 -465358 4.18534e+06 0 -377730 4.18909e+06 0 -2.50709e+06 1.93498e+06 0 -2.64933e+06 2.18763e+06 0 -2.7384e+06 2.51425e+06 0 -2.73818e+06 2.89322e+06 0 -2.62735e+06 3.27995e+06 0 -2.4154e+06 3.62213e+06 0 -2.13988e+06 3.88426e+06 0 -1.84594e+06 4.0598e+06 0 -1.56716e+06 4.16397e+06 0 -1.32011e+06 4.21903e+06 0 -1.10872e+06 4.24444e+06 0 -930539 4.25383e+06 0 -781026 4.25562e+06 0 -655535 4.25462e+06 0 -550017 4.25335e+06 0 -461349 4.25305e+06 0 -2.66406e+06 1.89254e+06 0 -2.81758e+06 2.16201e+06 0 -2.91539e+06 2.50813e+06 0 -2.91998e+06 2.90901e+06 0 -2.80856e+06 3.31883e+06 0 -2.58985e+06 3.68289e+06 0 -2.30229e+06 3.96286e+06 0 -1.99351e+06 4.15043e+06 0 -1.69995e+06 4.26083e+06 0 -1.44006e+06 4.31768e+06 0 -1.21849e+06 4.34205e+06 0 -1.0327e+06 4.34889e+06 0 -877680 4.34742e+06 0 -748289 4.34289e+06 0 -640025 4.33812e+06 0 -549160 4.33432e+06 0 -2.8487e+06 1.83752e+06 0 -3.01457e+06 2.12663e+06 0 -3.12227e+06 2.49548e+06 0 -3.13269e+06 2.92211e+06 0 -3.02114e+06 3.35952e+06 0 -2.79508e+06 3.75043e+06 0 -2.49351e+06 4.0531e+06 0 -2.16673e+06 4.25671e+06 0 -1.85457e+06 4.37611e+06 0 -1.57808e+06 4.4363e+06 0 -1.34299e+06 4.46037e+06 0 -1.14679e+06 4.46489e+06 0 -984014 4.46023e+06 0 -848862 4.4523e+06 0 -736317 4.44415e+06 0 -642591 4.43746e+06 0 -3.06845e+06 1.766e+06 0 -3.24824e+06 2.07803e+06 0 -3.3676e+06 2.47355e+06 0 -3.38544e+06 2.93069e+06 0 -3.27477e+06 3.40141e+06 0 -3.04112e+06 3.82573e+06 0 -2.72346e+06 4.15783e+06 0 -2.37473e+06 4.38335e+06 0 -2.03893e+06 4.51599e+06 0 -1.74057e+06 4.58203e+06 0 -1.48715e+06 4.60694e+06 0 -1.27648e+06 4.6095e+06 0 -1.10261e+06 4.60161e+06 0 -959070 4.59013e+06 0 -840001 4.57867e+06 0 -740597 4.56871e+06 0 -3.33356e+06 1.6719e+06 0 -3.52977e+06 2.0108e+06 0 -3.66345e+06 2.4379e+06 0 -3.69128e+06 2.93154e+06 0 -3.58351e+06 3.44296e+06 0 -3.34286e+06 3.90952e+06 0 -3.00721e+06 4.28066e+06 0 -2.6318e+06 4.537e+06 0 -2.26548e+06 4.68972e+06 0 -1.9376e+06 4.76591e+06 0 -1.65862e+06 4.79374e+06 0 -1.42721e+06 4.79496e+06 0 -1.23701e+06 4.78369e+06 0 -1.08073e+06 4.7681e+06 0 -951962 4.75261e+06 0 -845554 4.73965e+06 0 -3.65868e+06 1.54511e+06 0 -3.87545e+06 1.91597e+06 0 -4.02757e+06 2.38101e+06 0 -4.0695e+06 2.91883e+06 0 -3.96847e+06 3.48052e+06 0 -3.72322e+06 4.00143e+06 0 -3.36873e+06 4.42569e+06 0 -2.96134e+06 4.72698e+06 0 -2.55523e+06 4.91158e+06 0 -2.18641e+06 5.00591e+06 0 -1.87025e+06 5.04089e+06 0 -1.60768e+06 5.04215e+06 0 -1.39246e+06 5.02722e+06 0 -1.21624e+06 5.00659e+06 0 -1.07101e+06 4.98581e+06 0 -950495 4.96734e+06 0 -4.06603e+06 1.36751e+06 0 -4.31019e+06 1.77788e+06 0 -4.48707e+06 2.28952e+06 0 -4.54973e+06 2.88143e+06 0 -4.46261e+06 3.50588e+06 0 -4.21901e+06 4.09779e+06 0 -3.84809e+06 4.59629e+06 0 -3.40436e+06 4.9659e+06 0 -2.94653e+06 5.20401e+06 0 -2.51921e+06 5.3329e+06 0 -2.14613e+06 5.38488e+06 0 -1.8333e+06 5.39019e+06 0 -1.57631e+06 5.37135e+06 0 -1.36663e+06 5.34283e+06 0 -1.19517e+06 5.31304e+06 0 -1.05368e+06 5.28641e+06 0 -4.59248e+06 1.1055e+06 0 -4.87444e+06 1.56786e+06 0 -5.08545e+06 2.13837e+06 0 -5.17951e+06 2.79707e+06 0 -5.11953e+06 3.50004e+06 0 -4.89213e+06 4.18548e+06 0 -4.5161e+06 4.79003e+06 0 -4.03791e+06 5.2678e+06 0 -3.51625e+06 5.60166e+06 0 -3.00437e+06 5.80216e+06 0 -2.53884e+06 5.89723e+06 0 -2.13718e+06 5.92002e+06 0 -1.80179e+06 5.90006e+06 0 -1.52617e+06 5.85924e+06 0 -1.30038e+06 5.81147e+06 0 -1.11514e+06 5.76432e+06 0 -5.30533e+06 693843 0 -5.63884e+06 1.23029e+06 0 -5.89677e+06 1.87748e+06 0 -6.03904e+06 2.61826e+06 0 -6.03071e+06 3.41748e+06 0 -5.85192e+06 4.22427e+06 0 -5.50558e+06 4.98081e+06 0 -5.01884e+06 5.63475e+06 0 -4.43694e+06 6.15045e+06 0 -3.81215e+06 6.5144e+06 0 -3.19276e+06 6.7337e+06 0 -2.61578e+06 6.82987e+06 0 -2.10444e+06 6.83142e+06 0 -1.66935e+06 6.76774e+06 0 -1.31119e+06 6.66563e+06 0 -1.02374e+06 6.5481e+06 0 -6.33475e+06 2.38419e-07 0 -6.73329e+06 648963 0 -7.05297e+06 1.39742e+06 0 -7.26899e+06 2.23433e+06 0 -7.35738e+06 3.14112e+06 0 -7.29762e+06 4.09148e+06 0 -7.07529e+06 5.05207e+06 0 -6.68448e+06 5.98427e+06 0 -6.12958e+06 6.84679e+06 0 -5.42609e+06 7.59908e+06 0 -4.60016e+06 8.2049e+06 0 -3.68677e+06 8.63543e+06 0 -2.7267e+06 8.87082e+06 0 -1.76331e+06 8.89968e+06 0 -840064 8.71604e+06 0 1.78814e-06 8.31384e+06 0 </DataArray> 
</PointData> 
<Points> 
<DataArray type="Float32" NumberOfComponents="3"> 
0.19 0.055 0 0.192667 0.0598667 0 0.195333 0.0647333 0 0.198 0.0696 0 0.200667 0.0744667 0 0.203333 0.0793333 0 0.206 0.0842 0 0.208667 0.0890667 0 0.211333 0.0939333 0 0.214 0.0988 0 0.216667 0.103667 0 0.219333 0.108533 0 0.222 0.1134 0 0.224667 0.118267 0 0.227333 0.123133 0 0.23 0.128 0 0.192 0.055 0 0.19443 0.0596151 0 0.196885 0.064247 0 0.199364 0.068891 0 0.201864 0.0735423 0 0.204383 0.078196 0 0.206917 0.0828473 0 0.209465 0.0874912 0 0.212023 0.0921229 0 0.214589 0.0967375 0 0.217161 0.10133 0 0.219734 0.105896 0 0.222308 0.110431 0 0.224878 0.114929 0 0.227443 0.119387 0 0.23 0.1238 0 0.194 0.055 0 0.196201 0.0593622 0 0.198451 0.0637562 0 0.200746 0.068173 0 0.203081 0.0726035 0 0.205451 0.0770386 0 0.207852 0.0814687 0 0.210279 0.0858845 0 0.212727 0.0902765 0 0.21519 0.0946355 0 0.217663 0.0989523 0 0.220141 0.103218 0 0.222619 0.107423 0 0.225092 0.111561 0 0.227554 0.115622 0 0.23 0.1196 0 0.196 0.055 0 0.197982 0.0591082 0 0.200032 0.0632609 0 0.202145 0.0674458 0 0.204316 0.0716501 0 0.206538 0.0758605 0 0.208805 0.0800636 0 0.21111 0.0842456 0 0.213444 0.0883932 0 0.215802 0.092493 0 0.218175 0.096532 0 0.220555 0.100498 0 0.222935 0.104378 0 0.225307 0.108162 0 0.227665 0.111839 0 0.23 0.1154 0 0.198 0.055 0 0.199771 0.0588528 0 0.201627 0.0627611 0 0.203563 0.0667094 0 0.205571 0.0706817 0 0.207645 0.0746613 0 0.209777 0.078631 0 0.211957 0.0825736 0 0.214177 0.0864718 0 0.216426 0.0903088 0 0.218695 0.0940683 0 0.220975 0.0977348 0 0.223255 0.101294 0 0.225525 0.104732 0 0.227776 0.108038 0 0.23 0.1112 0 0.2 0.055 0 0.201569 0.0585963 0 0.203237 0.0622566 0 0.204998 0.0659634 0 0.206846 0.0696979 0 0.208772 0.0734403 0 0.210767 0.0771703 0 0.212822 0.0808674 0 0.214924 0.0845112 0 0.217062 0.0880817 0 0.219226 0.0915599 0 0.221402 0.094928 0 0.223578 0.0981696 0 0.225744 0.10127 0 0.227888 0.104217 0 0.23 0.107 0 0.202 0.055 0 0.203375 0.0583384 0 0.204861 0.0617475 0 0.206452 0.0652078 0 0.208141 0.0686984 0 0.20992 0.072197 0 0.211778 0.0756806 0 0.213704 0.079126 0 0.215686 0.08251 0 0.217711 0.0858103 0 0.219766 0.0890055 0 0.221835 0.0920762 0 0.223906 0.0950049 0 0.225966 0.0977764 0 0.228001 0.100378 0 0.23 0.1028 0 0.204 0.055 0 0.205191 0.0580793 0 0.206501 0.0612336 0 0.207925 0.0644423 0 0.209457 0.0676827 0 0.211088 0.0709306 0 0.212808 0.074161 0 0.214605 0.0773483 0 0.216465 0.0804672 0 0.218373 0.0834933 0 0.220315 0.086404 0 0.222276 0.0891785 0 0.224239 0.0917988 0 0.22619 0.0942499 0 0.228114 0.0965198 0 0.23 0.0986 0 0.206 0.055 0 0.207016 0.0578189 0 0.208156 0.0607149 0 0.209418 0.0636667 0 0.210795 0.0666505 0 0.212279 0.0696407 0 0.21386 0.0726107 0 0.215525 0.0755331 0 0.217259 0.0783812 0 0.219049 0.0811294 0 0.220876 0.0837539 0 0.222723 0.0862336 0 0.224575 0.0885506 0 0.226415 0.0906904 0 0.228228 0.0926425 0 0.23 0.0944 0 0.208 0.055 0 0.208849 0.0575572 0 0.209827 0.0601914 0 0.21093 0.0628808 0 0.212154 0.0656013 0 0.213492 0.0683265 0 0.214933 0.0710285 0 0.216464 0.0736792 0 0.218071 0.0762509 0 0.219738 0.0787171 0 0.221446 0.0810539 0 0.223178 0.0832404 0 0.224916 0.0852593 0 0.226643 0.0870975 0 0.228342 0.088746 0 0.23 0.0902 0 0.21 0.055 0 0.210692 0.0572942 0 0.211513 0.0596629 0 0.212462 0.0620845 0 0.213536 0.0645348 0 0.214728 0.0669873 0 0.216028 0.0694137 0 0.217424 0.0717855 0 0.218901 0.0740746 0 0.220441 0.0762549 0 0.222028 0.0783026 0 0.223641 0.0801977 0 0.225262 0.0819242 0 0.226873 0.0834706 0 0.228457 0.08483 0 0.23 0.086 0 0.212 0.055 0 0.212544 0.0570299 0 0.213216 0.0591293 0 0.214015 0.0612775 0 0.214941 0.0634506 0 0.215987 0.0656224 0 0.217146 0.0677651 0 0.218404 0.0698504 0 0.219748 0.071851 0 0.22116 0.0737412 0 0.222621 0.0754985 0 0.224111 0.0771042 0 0.225612 0.0785443 0 0.227105 0.0798092 0 0.228573 0.0808945 0 0.23 0.0818 0 0.214 0.055 0 0.214406 0.0567643 0 0.214935 0.0585907 0 0.215589 0.0604596 0 0.21637 0.0623481 0 0.217271 0.064231 0 0.218287 0.0660817 0 0.219406 0.0678729 0 0.220614 0.0695785 0 0.221893 0.0711744 0 0.223225 0.0726401 0 0.224589 0.0739588 0 0.225967 0.0751187 0 0.22734 0.0761129 0 0.228689 0.0769392 0 0.23 0.0776 0 0.216 0.055 0 0.216276 0.0564973 0 0.21667 0.0580469 0 0.217185 0.0596305 0 0.217822 0.0612269 0 0.218581 0.0628125 0 0.219453 0.0643623 0 0.220431 0.0658513 0 0.221499 0.0672553 0 0.222642 0.0685529 0 0.223841 0.0697257 0 0.225076 0.07076 0 0.226327 0.0716466 0 0.227576 0.0723812 0 0.228806 0.0729642 0 0.23 0.0734 0 0.218 0.055 0 0.218157 0.056229 0 0.218422 0.0574979 0 0.218802 0.0587901 0 0.2193 0.0600865 0 0.219916 0.0613659 0 0.220645 0.0626058 0 0.221478 0.0637842 0 0.222404 0.06488 0 0.223407 0.0658748 0 0.224469 0.0667538 0 0.22557 0.0675065 0 0.226692 0.0681269 0 0.227815 0.0686135 0 0.228923 0.0689691 0 0.23 0.0692 0 0.22 0.055 0 0.220046 0.0559594 0 0.220191 0.0569435 0 0.220441 0.0579381 0 0.220803 0.0589265 0 0.221277 0.0598904 0 0.221862 0.0608111 0 0.222549 0.0616701 0 0.22333 0.0624505 0 0.224189 0.0631383 0 0.22511 0.0637226 0 0.226074 0.0641969 0 0.227062 0.0645586 0 0.228056 0.0648093 0 0.229041 0.0649539 0 0.23 0.065 0 
</DataArray>
</Points> 
</Piece> 
</StructuredGrid> 
</VTKFile> 
