<?xml version="1.0"?> 
<VTKFile type="StructuredGrid" version="0.1"> 
<StructuredGrid WholeExtent="0 15 0 15 0 0"> 
<Piece Extent="0 15 0 15 0 0"> 
<PointData>
<DataArray type="Float32" Name="E" format="ascii" NumberOfComponents="3"> 
0 -800745 0 267421 -748873 0 497304 -626757 0 645215 -463481 0 728239 -300164 0 759691 -151953 0 755283 -22669.8 0 723131 87431.9 0 670118 179924 0 600596 256335 0 518193 318301 0 425729 367136 0 325639 403974 0 220053 429668 0 110902 444839 0 0 449854 0 0 -712637 0 243563 -672661 0 451931 -568594 0 596099 -427779 0 680717 -282300 0 717674 -147259 0 718773 -27974.4 0 692254 74570.5 0 644306 161101 0 579442 232855 0 501240 291142 0 412615 337151 0 316065 371881 0 213794 396122 0 107810 410439 0 0 415173 0 0 -635744 0 222331 -602830 0 413906 -514113 0 552652 -392407 0 638126 -263265 0 679118 -140986 0 685055 -31565.4 0 663487 63300 0 620188 143766 0 559614 210716 0 485327 265214 0 400292 308291 0 307062 340837 0 207907 363567 0 104901 376996 0 0 381437 0 0 -566410 0 203984 -538677 0 381567 -462944 0 514522 -357666 0 600028 -243462 0 644028 -133396 0 654082 -33679.9 0 636876 53473.8 0 597793 127786 0 541152 189821 0 470487 240427 0 388787 280483 0 298651 310774 0 202403 331940 0 102181 344451 0 0 348588 0 0 -502962 0 188278 -479431 0 353903 -414746 0 481194 -323735 0 566102 -223181 0 612320 -124735 0 625826 -34520.1 0 612445 44939.8 0 577149 113037 0 524088 170071 0 456748 216695 0 378123 253650 0 290849 281621 0 197297 301178 0 99656.1 312741 0 0 316566 0 0 -444376 0 174883 -424392 0 330208 -369196 0 452174 -290703 0 536066 -202637 0 583881 -115217 0 600253 -34267.2 0 590198 37550.7 0 558276 99398.6 0 508448 151362 0 444134 193930 0 368323 227715 0 283674 253310 0 192598 271215 0 97332.5 281804 0 0 285308 0 0 -389880 0 163495 -372949 0 309947 -325993 0 427025 -258590 0 509661 -181986 0 558589 -105023 0 577320 -33084.1 0 570133 31167.7 0 541190 86752.3 0 494254 133595 0 432668 172044 0 359405 202599 0 277140 225766 0 188318 241982 0 95215.3 251575 0 0 254750 0 0 -338838 0 153856 -324569 0 292700 -284848 0 405377 -227372 0 486653 -161338 0 536326 -94301.4 0 556977 -31116.4 0 552241 25660.2 0 525900 74984.6 0 481522 116669 0 422367 150947 0 351385 178221 0 271260 198917 0 184464 213410 0 93309 221987 0 0 224826 0 0 -290701 0 145757 -278783 0 278131 -245493 0 386920 -196993 0 466832 -140763 0 516974 -83172.3 0 539176 -28493.4 0 536509 20906.3 0 512412 63985.2 0 470267 100485 0 413248 130552 0 344278 154501 0 266047 172688 0 181047 185430 0 91617.7 192972 0 0 195469 0 0 -244989 0 139029 -235172 0 265970 -207672 0 371395 -167375 0 450015 -120305 0 500429 -71733.5 0 523866 -25329.8 0 522921 16792 0 500727 53647.7 0 460497 84946.5 0 405322 110768 0 338097 131358 0 261510 147003 0 178071 157969 0 90144.9 164462 0 0 166611 0 0 -201273 0 133536 -193361 0 256003 -171140 0 358589 -138427 0 436043 -99980.2 0 486596 -60063.1 0 511000 -21727.2 0 511460 13211.2 0 490846 43869.7 0 452221 69957.5 0 398600 91509 0 332850 108708 0 257657 121785 0 175543 130954 0 88893.7 136385 0 0 138182 0 0 -159165 0 129172 -153004 0 248059 -135667 0 348331 -110047 0 424788 -79790.9 0 475392 -48222.5 0 500535 -17775.8 0 502109 10064.1 0 482767 34552.1 0 445443 55423.8 0 393090 72685.4 0 328546 86471.6 0 254496 96958.4 0 173469 104314 0 87866.5 108670 0 0 110113 0 0 -118308 0 125858 -113783 0 242009 -101029 0 340487 -82128 0 416141 -59724.1 0 466750 -36260.6 0 492436 -13556.5 0 494853 7256.96 0 476486 25598.8 0 440169 41252.4 0 388798 54210 0 325192 64564.8 0 252031 72444.4 0 171851 77972.4 0 87065.6 81247.4 0 0 82331.7 0 0 -78370.2 0 123531 -75397.7 0 237754 -67011.1 0 334954 -54557.3 0 410023 -39757.2 0 460616 -24216 0 486673 -9142.8 0 489680 4700.55 0 472003 16916.4 0 436400 27351.7 0 385730 35995.3 0 322793 42905.6 0 250268 48165.6 0 170693 51856.4 0 86492.3 54043.2 0 0 54767.2 0 0 -39035.6 0 122151 -37562.5 0 235227 -33403.4 0 331663 -27220.1 0 406374 -19860.5 0 456950 -12120.2 0 483223 -4602.57 0 486580 2309.29 0 469314 8413.5 0 434138 13631 0 383887 17954.3 0 321353 21411.5 0 249208 24043.5 0 169998 25890.6 0 86147.9 26985 0 0 27347.4 0 0 0 0 121694 0 0 234389 0 0 330570 0 0 405162 0 0 455731 0 0 482075 0 0 485548 0 0 468417 0 0 433384 0 0 383273 0 0 320872 0 0 248855 0 0 169766 0 0 86033.1 0 0 0 0 0 </DataArray> 
</PointData> 
<Points> 
<DataArray type="Float32" NumberOfComponents="3"> 
0.416 0.03 0 0.416 0.0365333 0 0.416 0.0430667 0 0.416 0.0496 0 0.416 0.0561333 0 0.416 0.0626667 0 0.416 0.0692 0 0.416 0.0757333 0 0.416 0.0822667 0 0.416 0.0888 0 0.416 0.0953333 0 0.416 0.101867 0 0.416 0.1084 0 0.416 0.114933 0 0.416 0.121467 0 0.416 0.128 0 0.418067 0.03 0 0.418067 0.0365333 0 0.418067 0.0430667 0 0.418067 0.0496 0 0.418067 0.0561333 0 0.418067 0.0626667 0 0.418067 0.0692 0 0.418067 0.0757333 0 0.418067 0.0822667 0 0.418067 0.0888 0 0.418067 0.0953333 0 0.418067 0.101867 0 0.418067 0.1084 0 0.418067 0.114933 0 0.418067 0.121467 0 0.418067 0.128 0 0.420133 0.03 0 0.420133 0.0365333 0 0.420133 0.0430667 0 0.420133 0.0496 0 0.420133 0.0561333 0 0.420133 0.0626667 0 0.420133 0.0692 0 0.420133 0.0757333 0 0.420133 0.0822667 0 0.420133 0.0888 0 0.420133 0.0953333 0 0.420133 0.101867 0 0.420133 0.1084 0 0.420133 0.114933 0 0.420133 0.121467 0 0.420133 0.128 0 0.4222 0.03 0 0.4222 0.0365333 0 0.4222 0.0430667 0 0.4222 0.0496 0 0.4222 0.0561333 0 0.4222 0.0626667 0 0.4222 0.0692 0 0.4222 0.0757333 0 0.4222 0.0822667 0 0.4222 0.0888 0 0.4222 0.0953333 0 0.4222 0.101867 0 0.4222 0.1084 0 0.4222 0.114933 0 0.4222 0.121467 0 0.4222 0.128 0 0.424267 0.03 0 0.424267 0.0365333 0 0.424267 0.0430667 0 0.424267 0.0496 0 0.424267 0.0561333 0 0.424267 0.0626667 0 0.424267 0.0692 0 0.424267 0.0757333 0 0.424267 0.0822667 0 0.424267 0.0888 0 0.424267 0.0953333 0 0.424267 0.101867 0 0.424267 0.1084 0 0.424267 0.114933 0 0.424267 0.121467 0 0.424267 0.128 0 0.426333 0.03 0 0.426333 0.0365333 0 0.426333 0.0430667 0 0.426333 0.0496 0 0.426333 0.0561333 0 0.426333 0.0626667 0 0.426333 0.0692 0 0.426333 0.0757333 0 0.426333 0.0822667 0 0.426333 0.0888 0 0.426333 0.0953333 0 0.426333 0.101867 0 0.426333 0.1084 0 0.426333 0.114933 0 0.426333 0.121467 0 0.426333 0.128 0 0.4284 0.03 0 0.4284 0.0365333 0 0.4284 0.0430667 0 0.4284 0.0496 0 0.4284 0.0561333 0 0.4284 0.0626667 0 0.4284 0.0692 0 0.4284 0.0757333 0 0.4284 0.0822667 0 0.4284 0.0888 0 0.4284 0.0953333 0 0.4284 0.101867 0 0.4284 0.1084 0 0.4284 0.114933 0 0.4284 0.121467 0 0.4284 0.128 0 0.430467 0.03 0 0.430467 0.0365333 0 0.430467 0.0430667 0 0.430467 0.0496 0 0.430467 0.0561333 0 0.430467 0.0626667 0 0.430467 0.0692 0 0.430467 0.0757333 0 0.430467 0.0822667 0 0.430467 0.0888 0 0.430467 0.0953333 0 0.430467 0.101867 0 0.430467 0.1084 0 0.430467 0.114933 0 0.430467 0.121467 0 0.430467 0.128 0 0.432533 0.03 0 0.432533 0.0365333 0 0.432533 0.0430667 0 0.432533 0.0496 0 0.432533 0.0561333 0 0.432533 0.0626667 0 0.432533 0.0692 0 0.432533 0.0757333 0 0.432533 0.0822667 0 0.432533 0.0888 0 0.432533 0.0953333 0 0.432533 0.101867 0 0.432533 0.1084 0 0.432533 0.114933 0 0.432533 0.121467 0 0.432533 0.128 0 0.4346 0.03 0 0.4346 0.0365333 0 0.4346 0.0430667 0 0.4346 0.0496 0 0.4346 0.0561333 0 0.4346 0.0626667 0 0.4346 0.0692 0 0.4346 0.0757333 0 0.4346 0.0822667 0 0.4346 0.0888 0 0.4346 0.0953333 0 0.4346 0.101867 0 0.4346 0.1084 0 0.4346 0.114933 0 0.4346 0.121467 0 0.4346 0.128 0 0.436667 0.03 0 0.436667 0.0365333 0 0.436667 0.0430667 0 0.436667 0.0496 0 0.436667 0.0561333 0 0.436667 0.0626667 0 0.436667 0.0692 0 0.436667 0.0757333 0 0.436667 0.0822667 0 0.436667 0.0888 0 0.436667 0.0953333 0 0.436667 0.101867 0 0.436667 0.1084 0 0.436667 0.114933 0 0.436667 0.121467 0 0.436667 0.128 0 0.438733 0.03 0 0.438733 0.0365333 0 0.438733 0.0430667 0 0.438733 0.0496 0 0.438733 0.0561333 0 0.438733 0.0626667 0 0.438733 0.0692 0 0.438733 0.0757333 0 0.438733 0.0822667 0 0.438733 0.0888 0 0.438733 0.0953333 0 0.438733 0.101867 0 0.438733 0.1084 0 0.438733 0.114933 0 0.438733 0.121467 0 0.438733 0.128 0 0.4408 0.03 0 0.4408 0.0365333 0 0.4408 0.0430667 0 0.4408 0.0496 0 0.4408 0.0561333 0 0.4408 0.0626667 0 0.4408 0.0692 0 0.4408 0.0757333 0 0.4408 0.0822667 0 0.4408 0.0888 0 0.4408 0.0953333 0 0.4408 0.101867 0 0.4408 0.1084 0 0.4408 0.114933 0 0.4408 0.121467 0 0.4408 0.128 0 0.442867 0.03 0 0.442867 0.0365333 0 0.442867 0.0430667 0 0.442867 0.0496 0 0.442867 0.0561333 0 0.442867 0.0626667 0 0.442867 0.0692 0 0.442867 0.0757333 0 0.442867 0.0822667 0 0.442867 0.0888 0 0.442867 0.0953333 0 0.442867 0.101867 0 0.442867 0.1084 0 0.442867 0.114933 0 0.442867 0.121467 0 0.442867 0.128 0 0.444933 0.03 0 0.444933 0.0365333 0 0.444933 0.0430667 0 0.444933 0.0496 0 0.444933 0.0561333 0 0.444933 0.0626667 0 0.444933 0.0692 0 0.444933 0.0757333 0 0.444933 0.0822667 0 0.444933 0.0888 0 0.444933 0.0953333 0 0.444933 0.101867 0 0.444933 0.1084 0 0.444933 0.114933 0 0.444933 0.121467 0 0.444933 0.128 0 0.447 0.03 0 0.447 0.0365333 0 0.447 0.0430667 0 0.447 0.0496 0 0.447 0.0561333 0 0.447 0.0626667 0 0.447 0.0692 0 0.447 0.0757333 0 0.447 0.0822667 0 0.447 0.0888 0 0.447 0.0953333 0 0.447 0.101867 0 0.447 0.1084 0 0.447 0.114933 0 0.447 0.121467 0 0.447 0.128 0 
</DataArray>
</Points> 
</Piece> 
</StructuredGrid> 
</VTKFile> 
