<?xml version="1.0"?> 
<VTKFile type="StructuredGrid" version="0.1"> 
<StructuredGrid WholeExtent="0 15 0 15 0 0"> 
<Piece Extent="0 15 0 15 0 0"> 
<PointData>
<DataArray type="Float32" Name="E" format="ascii" NumberOfComponents="3"> 
478853 7.03256e+06 0 1.35328e+06 6.02909e+06 0 1.47396e+06 5.41238e+06 0 1.42756e+06 4.99291e+06 0 1.33273e+06 4.6901e+06 0 1.21407e+06 4.46204e+06 0 1.08871e+06 4.28538e+06 0 960964 4.1459e+06 0 834134 4.03468e+06 0 709145 3.9458e+06 0 586476 3.87531e+06 0 466070 3.82047e+06 0 347668 3.77942e+06 0 230858 3.7509e+06 0 115148 3.73409e+06 0 0 3.72854e+06 0 965779 7.42981e+06 0 1.60078e+06 6.09454e+06 0 1.66508e+06 5.39828e+06 0 1.58928e+06 4.9398e+06 0 1.46763e+06 4.61459e+06 0 1.33056e+06 4.37179e+06 0 1.18925e+06 4.18423e+06 0 1.04842e+06 4.0362e+06 0 909872 3.91767e+06 0 774181 3.8222e+06 0 641277 3.74538e+06 0 510775 3.68417e+06 0 382107 3.63642e+06 0 254599 3.60062e+06 0 127500 3.57569e+06 0 0 3.56095e+06 0 1.48591e+06 7.67104e+06 0 1.88047e+06 6.13138e+06 0 1.87419e+06 5.35835e+06 0 1.75688e+06 4.86491e+06 0 1.60608e+06 4.51987e+06 0 1.44728e+06 4.26401e+06 0 1.28873e+06 4.06692e+06 0 1.1336e+06 3.91118e+06 0 982658 3.7859e+06 0 835801 3.68408e+06 0 692481 3.60092e+06 0 551954 3.53306e+06 0 413375 3.47807e+06 0 275837 3.43417e+06 0 138382 3.40003e+06 0 0 3.37464e+06 0 2.02658e+06 7.80326e+06 0 2.18489e+06 6.12692e+06 0 2.09275e+06 5.28953e+06 0 1.92663e+06 4.76696e+06 0 1.74345e+06 4.40557e+06 0 1.56095e+06 4.13907e+06 0 1.38404e+06 3.9341e+06 0 1.21391e+06 3.77178e+06 0 1.05019e+06 3.64049e+06 0 892038 3.53273e+06 0 738410 3.44336e+06 0 588220 3.36875e+06 0 440376 3.30621e+06 0 293788 3.25368e+06 0 147367 3.20956e+06 0 0 3.17254e+06 0 2.57822e+06 7.84743e+06 0 2.50221e+06 6.07694e+06 0 2.31332e+06 5.1909e+06 0 2.0935e+06 4.64633e+06 0 1.87559e+06 4.27283e+06 0 1.66824e+06 3.99846e+06 0 1.47238e+06 3.78746e+06 0 1.28699e+06 3.61982e+06 0 1.11048e+06 3.48336e+06 0 941225 3.37018e+06 0 777686 3.27488e+06 0 618464 3.19358e+06 0 462262 3.12336e+06 0 307874 3.06196e+06 0 154154 3.00749e+06 0 0 2.95836e+06 0 3.13234e+06 7.81453e+06 0 2.82118e+06 5.98224e+06 0 2.52905e+06 5.06385e+06 0 2.25273e+06 4.50506e+06 0 1.99894e+06 4.12401e+06 0 1.76638e+06 3.84464e+06 0 1.55155e+06 3.6295e+06 0 1.35109e+06 3.45783e+06 0 1.16212e+06 3.31704e+06 0 982224 3.199e+06 0 809415 3.09811e+06 0 642009 3.01031e+06 0 478561 2.93252e+06 0 317803 2.86225e+06 0 158616 2.79743e+06 0 0 2.73627e+06 0 3.68107e+06 7.71178e+06 0 3.13246e+06 5.84662e+06 0 2.73418e+06 4.91165e+06 0 2.40048e+06 4.34649e+06 0 2.11084e+06 3.96237e+06 0 1.85344e+06 3.68076e+06 0 1.62014e+06 3.46325e+06 0 1.40517e+06 3.28872e+06 0 1.20433e+06 3.14441e+06 0 1.0145e+06 3.02207e+06 0 833243 2.91598e+06 0 658655 2.82197e+06 0 489191 2.73683e+06 0 323585 2.65797e+06 0 160800 2.58318e+06 0 0 2.51053e+06 0 4.21713e+06 7.54507e+06 0 3.42896e+06 5.67547e+06 0 2.92444e+06 4.73882e+06 0 2.53416e+06 4.17471e+06 0 2.20968e+06 3.79165e+06 0 1.92846e+06 3.51024e+06 0 1.67758e+06 3.29191e+06 0 1.44892e+06 3.11553e+06 0 1.23703e+06 2.96839e+06 0 1.03809e+06 2.84224e+06 0 849320 2.73136e+06 0 668628 2.63151e+06 0 494420 2.53943e+06 0 325478 2.45247e+06 0 160886 2.36837e+06 0 0 2.2852e+06 0 4.73389e+06 7.31999e+06 0 3.70568e+06 5.475e+06 0 3.09716e+06 4.55046e+06 0 2.65245e+06 3.99407e+06 0 2.29495e+06 3.61562e+06 0 1.99134e+06 3.33644e+06 0 1.72405e+06 3.11852e+06 0 1.48269e+06 2.9411e+06 0 1.26066e+06 2.7917e+06 0 1.05352e+06 2.6622e+06 0 858197 2.54692e+06 0 672479 2.44168e+06 0 494766 2.34319e+06 0 323916 2.2488e+06 0 159148 2.1563e+06 0 0 2.06382e+06 0 5.22548e+06 7.04218e+06 0 3.95947e+06 5.25158e+06 0 3.25113e+06 4.35168e+06 0 2.75518e+06 3.80874e+06 0 2.36698e+06 3.43779e+06 0 2.0427e+06 3.16241e+06 0 1.76031e+06 2.9458e+06 0 1.50731e+06 2.76792e+06 0 1.27606e+06 2.6167e+06 0 1.06162e+06 2.48424e+06 0 860678 2.36501e+06 0 670959 2.25486e+06 0 490891 2.15059e+06 0 319420 2.0496e+06 0 155895 1.94978e+06 0 0 1.84939e+06 0 5.6868e+06 6.71746e+06 0 4.18882e+06 5.01136e+06 0 3.38636e+06 4.14721e+06 0 2.84306e+06 3.62244e+06 0 2.42678e+06 3.26118e+06 0 2.08368e+06 2.99069e+06 0 1.78752e+06 2.776e+06 0 1.52391e+06 2.59806e+06 0 1.28432e+06 2.44535e+06 0 1.0634e+06 2.31029e+06 0 857697 2.18753e+06 0 664904 2.07305e+06 0 483504 1.96371e+06 0 312530 1.85704e+06 0 151435 1.75106e+06 0 0 1.64424e+06 0 6.11362e+06 6.3518e+06 0 4.39343e+06 4.75995e+06 0 3.50376e+06 3.94116e+06 0 2.91741e+06 3.43825e+06 0 2.4758e+06 3.08822e+06 0 2.11568e+06 2.8233e+06 0 1.80702e+06 2.61086e+06 0 1.53375e+06 2.43309e+06 0 1.28659e+06 2.27914e+06 0 1.05992e+06 2.14183e+06 0 850200 2.01601e+06 0 655142 1.89778e+06 0 473293 1.78416e+06 0 303760 1.67279e+06 0 146056 1.56187e+06 0 0 1.4501e+06 0 6.50251e+06 5.95129e+06 0 4.57402e+06 4.50226e+06 0 3.60487e+06 3.73692e+06 0 2.97991e+06 3.2586e+06 0 2.51566e+06 2.92074e+06 0 2.14024e+06 2.66172e+06 0 1.82022e+06 2.45164e+06 0 1.53809e+06 2.27415e+06 0 1.28402e+06 2.11918e+06 0 1.0522e+06 1.97996e+06 0 839078 1.85156e+06 0 642439 1.73026e+06 0 460887 1.61317e+06 0 293571 1.4981e+06 0 140013 1.38344e+06 0 0 1.26813e+06 0 6.85091e+06 5.52201e+06 0 4.73194e+06 4.24245e+06 0 3.69154e+06 3.53712e+06 0 3.03241e+06 3.08525e+06 0 2.54804e+06 2.76006e+06 0 2.15887e+06 2.50695e+06 0 1.82846e+06 2.2992e+06 0 1.53812e+06 2.12202e+06 0 1.27763e+06 1.96621e+06 0 1.04113e+06 1.82543e+06 0 825121 1.69499e+06 0 627470 1.5713e+06 0 446837 1.45159e+06 0 282370 1.3338e+06 0 133535 1.21653e+06 0 0 1.09898e+06 0 7.15702e+06 5.06994e+06 0 4.86899e+06 3.98386e+06 0 3.76578e+06 3.34371e+06 0 3.07673e+06 2.91943e+06 0 2.57456e+06 2.607e+06 0 2.173e+06 2.35962e+06 0 1.83296e+06 2.15402e+06 0 1.5349e+06 1.97715e+06 0 1.26835e+06 1.82068e+06 0 1.02751e+06 1.67873e+06 0 809005 1.54683e+06 0 610815 1.42146e+06 0 431622 1.29996e+06 0 270517 1.18039e+06 0 126825 1.06153e+06 0 0 942867 0 7.41979e+06 4.60089e+06 0 4.98716e+06 3.72912e+06 0 3.82956e+06 3.15804e+06 0 3.11457e+06 2.76189e+06 0 2.59666e+06 2.46206e+06 0 2.18385e+06 2.22002e+06 0 1.8348e+06 2.01635e+06 0 1.52934e+06 1.83974e+06 0 1.25693e+06 1.68283e+06 0 1.01198e+06 1.54014e+06 0 791294 1.40737e+06 0 592965 1.28106e+06 0 415659 1.15855e+06 0 258335 1.03803e+06 0 120075 918464 0 0 799591 0 </DataArray> 
</PointData> 
<Points> 
<DataArray type="Float32" NumberOfComponents="3"> 
0.305 0.0600551 0 0.305 0.0645847 0 0.305 0.0691144 0 0.305 0.0736441 0 0.305 0.0781737 0 0.305 0.0827034 0 0.305 0.0872331 0 0.305 0.0917627 0 0.305 0.0962924 0 0.305 0.100822 0 0.305 0.105352 0 0.305 0.109881 0 0.305 0.114411 0 0.305 0.118941 0 0.305 0.12347 0 0.305 0.128 0 0.305983 0.0599578 0 0.306335 0.0645528 0 0.306687 0.0691392 0 0.307038 0.0737172 0 0.307388 0.0782867 0 0.307738 0.0828478 0 0.308087 0.0874005 0 0.308436 0.0919448 0 0.308783 0.0964807 0 0.30913 0.101008 0 0.309477 0.105528 0 0.309823 0.110039 0 0.310168 0.114541 0 0.310513 0.119036 0 0.310857 0.123522 0 0.3112 0.128 0 0.306971 0.0597981 0 0.307683 0.0644556 0 0.308393 0.0690969 0 0.3091 0.0737222 0 0.309805 0.0783314 0 0.310507 0.0829247 0 0.311207 0.0875022 0 0.311905 0.0920639 0 0.3126 0.09661 0 0.313293 0.10114 0 0.313983 0.105655 0 0.314671 0.110155 0 0.315357 0.114639 0 0.31604 0.119108 0 0.316721 0.123561 0 0.3174 0.128 0 0.307957 0.0595746 0 0.309036 0.0642916 0 0.310109 0.0689856 0 0.311177 0.073657 0 0.31224 0.0783058 0 0.313297 0.0829322 0 0.31435 0.0875364 0 0.315397 0.0921185 0 0.31644 0.0966787 0 0.317477 0.101217 0 0.31851 0.105734 0 0.319538 0.11023 0 0.32056 0.114704 0 0.321578 0.119157 0 0.322592 0.123589 0 0.3236 0.128 0 0.308937 0.0592868 0 0.310386 0.0640597 0 0.311827 0.0688041 0 0.313259 0.0735202 0 0.314682 0.0782084 0 0.316097 0.0828688 0 0.317504 0.0875017 0 0.318902 0.0921074 0 0.320292 0.0966861 0 0.321674 0.101238 0 0.323048 0.105763 0 0.324414 0.110262 0 0.325773 0.114735 0 0.327123 0.119182 0 0.328465 0.123604 0 0.3298 0.128 0 0.309903 0.0589349 0 0.311726 0.0637598 0 0.313537 0.0685518 0 0.315335 0.0733112 0 0.317122 0.0780383 0 0.318896 0.0827336 0 0.320658 0.0873973 0 0.322408 0.0920297 0 0.324147 0.0966312 0 0.325874 0.101202 0 0.32759 0.105742 0 0.329294 0.110253 0 0.330987 0.114734 0 0.332669 0.119185 0 0.33434 0.123607 0 0.336 0.128 0 0.31085 0.0585197 0 0.313048 0.0633923 0 0.315231 0.0682289 0 0.317397 0.0730298 0 0.319547 0.0777955 0 0.321682 0.0825264 0 0.323801 0.0872228 0 0.325905 0.0918851 0 0.327993 0.0965137 0 0.330067 0.101109 0 0.332125 0.105671 0 0.334169 0.110201 0 0.336198 0.114698 0 0.338213 0.119164 0 0.340214 0.123597 0 0.3422 0.128 0 0.311771 0.0580433 0 0.314344 0.0629587 0 0.316898 0.0678364 0 0.319433 0.0726767 0 0.321948 0.0774802 0 0.324444 0.0822473 0 0.326921 0.0869782 0 0.32938 0.0916736 0 0.33182 0.0963337 0 0.334241 0.100959 0 0.336645 0.10555 0 0.339031 0.110106 0 0.341399 0.114629 0 0.34375 0.119119 0 0.346084 0.123576 0 0.3484 0.128 0 0.31266 0.057508 0 0.315607 0.062461 0 0.318531 0.067376 0 0.321433 0.0722534 0 0.324313 0.0770937 0 0.327171 0.0818972 0 0.330007 0.0866644 0 0.332822 0.0913956 0 0.335616 0.0960914 0 0.338388 0.100752 0 0.341141 0.105378 0 0.343873 0.109969 0 0.346584 0.114527 0 0.349276 0.119051 0 0.351948 0.123542 0 0.3546 0.128 0 0.313512 0.0569172 0 0.316828 0.0619022 0 0.32012 0.0668503 0 0.323388 0.0717619 0 0.326631 0.0766375 0 0.329851 0.0814775 0 0.333047 0.0862823 0 0.33622 0.0910521 0 0.339371 0.0957875 0 0.342498 0.100489 0 0.345603 0.105156 0 0.348686 0.10979 0 0.351747 0.114391 0 0.354786 0.11896 0 0.357804 0.123496 0 0.3608 0.128 0 0.314322 0.056275 0 0.318002 0.0612857 0 0.321657 0.0662622 0 0.325287 0.071205 0 0.328893 0.0761142 0 0.332474 0.0809903 0 0.336031 0.0858336 0 0.339564 0.0906444 0 0.343074 0.0954231 0 0.34656 0.10017 0 0.350023 0.104885 0 0.353464 0.109569 0 0.356881 0.114223 0 0.360276 0.118845 0 0.363649 0.123438 0 0.367 0.128 0 0.315085 0.0555859 0 0.319122 0.0606158 0 0.323134 0.0656157 0 0.327123 0.0705859 0 0.331088 0.0755265 0 0.33503 0.080438 0 0.338948 0.0853204 0 0.342843 0.0901742 0 0.346716 0.0949994 0 0.350566 0.0997965 0 0.354393 0.104566 0 0.358198 0.109307 0 0.361981 0.114021 0 0.365742 0.118708 0 0.369482 0.123367 0 0.3732 0.128 0 0.315798 0.0548549 0 0.320182 0.0598972 0 0.324546 0.064915 0 0.328888 0.0699086 0 0.333209 0.074878 0 0.337509 0.0798236 0 0.341789 0.0847453 0 0.346048 0.0896435 0 0.350287 0.0945183 0 0.354505 0.0993698 0 0.358704 0.104198 0 0.362882 0.109004 0 0.367041 0.113787 0 0.37118 0.118547 0 0.3753 0.123285 0 0.3794 0.128 0 0.316457 0.0540875 0 0.321179 0.059135 0 0.325884 0.0641649 0 0.330573 0.0691775 0 0.335246 0.0741726 0 0.339903 0.0791505 0 0.344544 0.0841113 0 0.349168 0.089055 0 0.353777 0.0939816 0 0.35837 0.0988914 0 0.362947 0.103784 0 0.367509 0.108661 0 0.372055 0.11352 0 0.376585 0.118363 0 0.3811 0.12319 0 0.3856 0.128 0 0.317061 0.0532894 0 0.322108 0.0583347 0 0.327146 0.0633706 0 0.332174 0.0683972 0 0.337194 0.0734146 0 0.342204 0.0784227 0 0.347204 0.0834215 0 0.352196 0.0884112 0 0.357178 0.0933917 0 0.362152 0.098363 0 0.367116 0.103325 0 0.372071 0.108278 0 0.377017 0.113222 0 0.381953 0.118157 0 0.386881 0.123083 0 0.3918 0.128 0 0.317607 0.0524662 0 0.322966 0.0575018 0 0.328326 0.0625374 0 0.333685 0.067573 0 0.339045 0.0726086 0 0.344405 0.0776442 0 0.349764 0.0826797 0 0.355124 0.0877153 0 0.360483 0.0927509 0 0.365843 0.0977865 0 0.371202 0.102822 0 0.376562 0.107858 0 0.381921 0.112893 0 0.387281 0.117929 0 0.39264 0.122964 0 0.398 0.128 0 
</DataArray>
</Points> 
</Piece> 
</StructuredGrid> 
</VTKFile> 
