<?xml version="1.0"?> 
<VTKFile type="StructuredGrid" version="0.1"> 
<StructuredGrid WholeExtent="0 31 0 31 0 0"> 
<Piece Extent="0 31 0 31 0 0"> 
<PointData>
<DataArray type="Float32" Name="|E|" format="ascii" NumberOfComponents="3"> 
-2.08616e-07 -1.90735e-06 0 1.24332e-07 917.444 0 -1.18278e-07 742.921 0 9.12696e-08 534.155 0 -4.47035e-08 374.773 0 2.6077e-08 262.488 0 -4.84288e-08 184.94 0 2.98023e-08 131.666 0 -7.45058e-09 94.8528 0 -1.49012e-08 69.176 0 7.45058e-09 51.0362 0 1.49012e-08 38.0495 0 -7.45058e-09 28.6273 0 5.96046e-08 21.7058 0 -2.98023e-08 16.5641 0 -2.23517e-08 12.7072 0 1.49012e-08 9.78959 0 2.98023e-08 7.56702 0 0 5.86384 0 7.45058e-09 4.55214 0 -2.98023e-08 3.53758 0 1.49012e-08 2.74979 0 -1.49012e-08 2.13573 0 2.98023e-08 1.65506 0 -4.47035e-08 1.27684 0 2.98023e-08 0.977123 0 -4.47035e-08 0.737158 0 4.47035e-08 0.542108 0 -5.96046e-08 0.380013 0 5.96046e-08 0.241001 0 -8.9407e-08 0.116637 0 5.96046e-08 -0.000285506 0 40.6765 -2.32458e-06 0 -1.23975 913.273 0 -7.55716 755.943 0 -7.40321 550.666 0 -6.62756 390.803 0 -5.29356 276.599 0 -4.24156 196.62 0 -3.28637 141.107 0 -2.55908 102.377 0 -1.98573 75.1365 0 -1.5495 55.7654 0 -1.21605 41.8099 0 -0.960582 31.632 0 -0.76382 24.1176 0 -0.610959 18.5089 0 -0.491242 14.2815 0 -0.396706 11.0682 0 -0.321499 8.60822 0 -0.261286 6.71342 0 -0.212828 5.24646 0 -0.173675 4.10575 0 -0.141959 3.21532 0 -0.116235 2.51774 0 -0.0953788 1.96922 0 -0.0785081 1.53611 0 -0.0649304 1.19228 0 -0.0541028 0.917313 0 -0.0456058 0.695085 0 -0.0391219 0.512684 0 -0.0344247 0.359609 0 -0.0313792 0.227055 0 -0.0298716 0.107516 0 82.1534 2.86102e-06 0 -1.03976 909.623 0 -15.2146 768.683 0 -15.1359 567.608 0 -13.803 407.367 0 -11.2001 291.384 0 -9.04997 208.996 0 -7.10713 151.202 0 -5.57083 110.485 0 -4.36161 81.6108 0 -3.4239 60.9284 0 -2.70314 45.9402 0 -2.14646 34.9466 0 -1.7151 26.7908 0 -1.37842 20.6738 0 -1.11356 16.0417 0 -0.903588 12.5042 0 -0.735903 9.78293 0 -0.601116 7.67644 0 -0.492181 6.03725 0 -0.403758 4.75598 0 -0.331754 3.75059 0 -0.273008 2.95892 0 -0.225045 2.33344 0 -0.185921 1.8375 0 -0.154098 1.44264 0 -0.128358 1.12655 0 -0.10774 0.871632 0 -0.0914983 0.663842 0 -0.0790668 0.491853 0 -0.0700519 0.346347 0 -0.0641849 0.219571 0 124.509 -2.02656e-06 0 0.666665 906.543 0 -22.8768 781.176 0 -23.2148 584.948 0 -21.5305 424.494 0 -17.7678 306.861 0 -14.4837 222.107 0 -11.5214 161.996 0 -9.1031 119.228 0 -7.18612 88.643 0 -5.68015 66.5727 0 -4.51058 50.4788 0 -3.60137 38.6087 0 -2.89182 29.7571 0 -2.33525 23.0871 0 -1.89541 18.0126 0 -1.5453 14.1193 0 -1.26462 11.1102 0 -1.03813 8.76962 0 -0.854346 6.93925 0 -0.704508 5.50126 0 -0.581906 4.36709 0 -0.481333 3.46944 0 -0.398711 2.75673 0 -0.330824 2.18906 0 -0.275115 1.73539 0 -0.229544 1.37133 0 -0.192485 1.07763 0 -0.162649 0.838944 0 -0.139028 0.642936 0 -0.120858 0.479555 0 -0.107577 0.340558 0 167.834 1.66893e-06 0 3.94915 904.092 0 -30.4404 793.47 0 -31.6473 602.661 0 -29.8181 442.209 0 -25.0403 323.05 0 -20.6079 235.987 0 -16.5939 173.528 0 -13.23 128.65 0 -10.5279 96.275 0 -8.38261 72.7384 0 -6.69701 55.4635 0 -5.3768 42.6506 0 -4.33949 33.0463 0 -3.52104 25.7746 0 -2.87129 20.217 0 -2.35187 15.9335 0 -1.93383 12.6077 0 -1.59522 10.0086 0 -1.31938 7.96623 0 -1.09355 6.35379 0 -0.907938 5.07562 0 -0.754915 4.05889 0 -0.628499 3.2476 0 -0.523958 2.59835 0 -0.437518 2.07727 0 -0.366155 1.65768 0 -0.307437 1.3185 0 -0.25941 1.0429 0 -0.220514 0.817398 0 -0.189527 0.631028 0 -0.165488 0.474915 0 212.234 -3.21865e-06 0 8.88065 902.339 0 -37.7946 805.619 0 -40.4297 620.727 0 -38.6769 460.535 0 -33.058 339.973 0 -27.4922 250.671 0 -22.3966 185.841 0 -18.032 138.796 0 -14.4664 104.554 0 -11.6052 79.4694 0 -9.33109 60.9357 0 -7.53405 47.1094 0 -6.11237 36.6917 0 -4.98363 28.7659 0 -4.08301 22.6808 0 -3.35992 17.9698 0 -2.77561 14.2955 0 -2.30052 11.4111 0 -1.91201 9.13396 0 -1.59269 7.32753 0 -1.32913 5.88858 0 -1.11083 4.73827 0 -0.929557 3.81586 0 -0.778788 3.07412 0 -0.653298 2.47608 0 -0.548887 1.99259 0 -0.462158 1.60054 0 -0.390361 1.28144 0 -0.331268 1.02049 0 -0.283092 0.805655 0 -0.244386 0.627282 0 257.834 2.14577e-06 0 15.5378 901.368 0 -44.8211 817.684 0 -49.5462 639.133 0 -48.1195 479.494 0 -41.8585 357.656 0 -35.2095 266.193 0 -29.0104 198.981 0 -23.5972 149.713 0 -19.0924 113.528 0 -15.4333 86.8121 0 -12.4926 66.9387 0 -10.1458 52.0247 0 -8.27529 40.7283 0 -6.78059 32.0923 0 -5.58138 25.4318 0 -4.61411 20.2526 0 -3.82925 16.1955 0 -3.18864 12.9964 0 -2.6628 10.4594 0 -2.22896 8.43755 0 -1.86942 6.81937 0 -1.57034 5.51955 0 -1.32082 4.47216 0 -1.1122 3.62586 0 -0.937536 2.94033 0 -0.791226 2.38368 0 -0.66873 1.93058 0 -0.566344 1.56074 0 -0.481044 1.25784 0 -0.410371 1.00866 0 -0.352286 0.80259 0 304.779 -4.76837e-07 0 24.0013 901.274 0 -51.3945 829.739 0 -58.9667 657.874 0 -58.1584 499.106 0 -51.4778 376.127 0 -43.8342 282.589 0 -36.5244 212.995 0 -30.0223 161.452 0 -24.5078 123.249 0 -19.9659 94.8154 0 -16.2746 73.5179 0 -13.2981 57.4382 0 -10.9058 45.1934 0 -8.98122 35.787 0 -7.428 28.4994 0 -6.16896 22.8079 0 -5.14296 18.3305 0 -4.3022 14.7848 0 -3.60948 11.9607 0 -3.03583 9.70004 0 -2.55859 7.88243 0 -2.16 6.41559 0 -1.826 5.22802 0 -1.5454 4.26388 0 -1.30922 3.47922 0 -1.1102 2.8392 0 -0.942444 2.31605 0 -0.801108 1.88747 0 -0.682222 1.53552 0 -0.582532 1.24558 0 -0.499297 1.006 0 353.24 -1.90735e-06 0 34.3564 902.171 0 -57.3828 841.869 0 -68.6465 676.953 0 -68.8041 519.39 0 -61.9511 395.421 0 -53.4412 299.895 0 -45.0367 227.931 0 -37.4144 174.064 0 -30.8269 133.769 0 -25.3171 103.531 0 -20.7852 80.7211 0 -17.0919 63.3934 0 -14.0965 50.1262 0 -11.669 39.8847 0 -9.6976 31.9143 0 -8.09106 25.6631 0 -6.77589 20.7247 0 -5.69376 16.7978 0 -4.79878 13.657 0 -4.05489 11.1319 0 -3.43374 9.09287 0 -2.91295 7.43991 0 -2.47476 6.09552 0 -2.105 4.99901 0 -1.79227 4.10247 0 -1.52734 3.36786 0 -1.30268 2.76476 0 -1.11212 2.26868 0 -0.950566 1.85987 0 -0.813809 1.5222 0 -0.698291 1.24281 0 403.419 1.90735e-06 0 46.6929 904.193 0 -62.6482 854.177 0 -78.5243 696.389 0 -80.0628 540.369 0 -73.3132 415.573 0 -64.1055 318.151 0 -54.6528 243.84 0 -45.8927 187.605 0 -38.1774 145.143 0 -31.6172 113.012 0 -26.1508 88.5979 0 -21.6464 69.9351 0 -17.9577 55.5671 0 -14.9442 44.4212 0 -12.4808 35.7082 0 -10.4617 28.8458 0 -8.80066 23.4026 0 -7.42811 19.0571 0 -6.2885 15.5674 0 -5.33778 12.7504 0 -4.54105 10.466 0 -3.87059 8.60624 0 -3.30429 7.08697 0 -2.82445 5.84226 0 -2.41683 4.81995 0 -2.06983 3.97852 0 -1.77401 3.28465 0 -1.5216 2.7115 0 -1.30617 2.23733 0 -1.1224 1.84434 0 -0.965749 1.51833 0 455.555 2.38419e-07 0 61.1061 907.498 0 -67.0483 866.785 0 -88.5222 716.213 0 -91.9333 562.07 0 -85.5984 436.626 0 -75.902 337.401 0 -65.4849 260.772 0 -55.5889 202.132 0 -46.7023 157.428 0 -39.0148 123.314 0 -32.518 97.1995 0 -27.1015 77.1094 0 -22.6205 61.5566 0 -18.9278 49.4321 0 -15.8873 39.9121 0 -13.3799 32.3833 0 -11.3064 26.3882 0 -9.58517 21.5836 0 -8.15026 17.7106 0 -6.9487 14.5719 0 -5.93814 12.0166 0 -5.08468 9.92769 0 -4.36118 8.2141 0 -3.7458 6.80417 0 -3.22088 5.64112 0 -2.77205 4.67963 0 -2.38758 3.88331 0 -2.0578 3.22272 0 -1.77468 2.67397 0 -1.53157 2.21744 0 -1.32281 1.83748 0 509.935 -2.38419e-06 0 77.6963 912.273 0 -70.4374 879.838 0 -98.5454 736.477 0 -104.404 584.524 0 -98.8399 458.627 0 -88.9056 357.696 0 -77.6508 278.783 0 -66.6482 217.705 0 -56.5616 170.684 0 -47.6786 134.492 0 -40.0567 106.578 0 -33.6216 84.9625 0 -28.2404 68.1348 0 -23.7646 54.9521 0 -20.0502 44.5558 0 -16.9668 36.3011 0 -14.4026 29.7032 0 -12.2636 24.3964 0 -10.4728 20.1029 0 -8.96747 16.6109 0 -7.69683 13.7573 0 -6.61999 11.4156 0 -5.7039 9.48699 0 -4.92189 7.89372 0 -4.25229 6.57398 0 -3.67743 5.47836 0 -3.18284 4.56711 0 -2.75658 3.808 0 -2.38874 3.17482 0 -2.07108 2.64598 0 -1.79657 2.20422 0 566.901 2.86102e-06 0 96.5689 918.74 0 -72.6692 893.51 0 -108.483 757.259 0 -117.453 607.776 0 -113.068 481.632 0 -103.192 379.092 0 -91.2732 297.931 0 -79.2287 234.389 0 -67.9343 184.974 0 -57.7997 146.606 0 -48.9626 116.785 0 -41.3997 93.5397 0 -35.0022 75.3401 0 -29.6282 61.0128 0 -25.1303 49.6652 0 -21.3699 40.6203 0 -18.2234 33.3652 0 -15.585 27.5097 0 -13.3661 22.7565 0 -11.4933 18.8776 0 -9.90677 15.6968 0 -8.55748 13.0774 0 -7.40572 10.9122 0 -6.41913 9.11666 0 -5.57134 7.62359 0 -4.84078 6.37914 0 -4.20971 5.33992 0 -3.66348 4.4707 0 -3.18992 3.74276 0 -2.77889 3.13239 0 -2.42173 2.6206 0 626.869 0 0 117.834 927.162 0 -73.5993 908.009 0 -118.209 778.664 0 -131.039 631.885 0 -128.311 505.704 0 -118.837 401.658 0 -106.48 318.284 0 -93.5018 252.252 0 -81.0203 200.366 0 -69.5947 159.715 0 -59.461 127.874 0 -50.6611 102.885 0 -43.1246 83.2074 0 -36.7263 67.641 0 -31.3221 55.2603 0 -26.7687 45.3556 0 -22.9334 37.3841 0 -19.6994 30.9305 0 -16.9663 25.6759 0 -14.6497 21.3747 0 -12.6797 17.8368 0 -10.9984 14.914 0 -9.55842 12.49 0 -8.32089 10.4729 0 -7.25388 8.78961 0 -6.33122 7.3814 0 -5.53128 6.20098 0 -4.83616 5.2099 0 -4.23098 4.37672 0 -3.70333 3.67545 0 -3.2426 3.08527 0 690.348 -1.43051e-06 0 141.603 937.856 0 -73.0901 923.582 0 -127.586 800.836 0 -145.11 656.933 0 -144.588 530.924 0 -135.919 425.476 0 -123.404 339.92 0 -109.652 271.368 0 -96.041 216.93 0 -83.3092 173.885 0 -71.8105 139.896 0 -61.6687 113.038 0 -52.8665 91.766 0 -45.3077 74.856 0 -38.8603 61.3517 0 -33.382 50.5105 0 -28.7345 41.7587 0 -24.7915 34.6536 0 -21.4418 28.8534 0 -18.5898 24.0933 0 -16.1548 20.1675 0 -14.0691 16.9154 0 -12.2769 14.2105 0 -10.7317 11.9528 0 -9.39515 10.0626 0 -8.23566 8.47619 0 -7.22698 7.14177 0 -6.34738 6.01745 0 -5.57866 5.0689 0 -4.90567 4.26769 0 -4.31549 3.59101 0 757.967 4.76837e-07 0 167.988 951.203 0 -71.0161 940.525 0 -136.468 823.966 0 -159.595 683.034 0 -161.911 557.387 0 -154.515 450.643 0 -142.185 362.929 0 -127.876 291.822 0 -113.241 234.745 0 -99.2204 189.18 0 -86.3081 152.904 0 -74.7284 124.037 0 -64.533 101.038 0 -55.6691 82.6662 0 -48.0278 67.9363 0 -41.4755 56.0729 0 -35.8735 46.4701 0 -31.0889 38.6558 0 -27.0012 32.263 0 -23.5039 27.0058 0 -20.5052 22.6611 0 -17.9273 19.0541 0 -15.7046 16.047 0 -13.7822 13.5308 0 -12.1143 11.4188 0 -10.6631 9.64086 0 -9.39659 8.14112 0 -8.28858 6.87347 0 -7.31696 5.8006 0 -6.46321 4.89148 0 -5.71157 4.12119 0 830.511 -4.76837e-07 0 197.094 967.665 0 -67.2732 959.187 0 -144.712 848.297 0 -174.41 710.342 0 -180.285 585.22 0 -174.704 477.276 0 -162.969 387.423 0 -148.387 313.714 0 -132.891 253.898 0 -117.641 205.674 0 -103.294 166.952 0 -90.1962 135.914 0 -78.4842 111.035 0 -68.1649 91.0653 0 -59.1659 74.9921 0 -51.3725 62.0084 0 -44.6524 51.4745 0 -38.8713 42.8871 0 -33.9016 35.8512 0 -29.6274 30.0572 0 -25.9461 25.2625 0 -22.769 21.2762 0 -20.0202 17.9477 0 -17.6353 15.1578 0 -15.5601 12.8111 0 -13.7492 10.8318 0 -12.1645 9.15769 0 -10.774 7.7395 0 -9.55083 6.53582 0 -8.47262 5.51305 0 -7.52004 4.64411 0 908.981 4.76837e-07 0 229.008 987.804 0 -61.7903 979.983 0 -152.18 874.137 0 -189.463 739.064 0 -199.702 614.584 0 -196.565 505.526 0 -185.913 413.539 0 -171.414 337.163 0 -155.287 274.489 0 -138.922 223.447 0 -123.16 182.095 0 -108.486 148.696 0 -95.1444 121.759 0 -83.2176 100.028 0 -72.6856 82.4719 0 -63.4654 68.2518 0 -55.4409 56.6935 0 -48.4827 47.2597 0 -42.4606 39.5247 0 -37.2517 33.152 0 -32.7438 27.8763 0 -28.8371 23.4884 0 -25.445 19.8225 0 -22.4927 16.7475 0 -19.9166 14.1586 0 -17.6626 11.9717 0 -15.6846 10.1202 0 -13.9448 8.54784 0 -12.4103 7.21166 0 -11.0535 6.07363 0 -9.85133 5.10464 0 994.667 4.76837e-07 0 263.783 1012.31 0 -54.5469 1003.4 0 -158.761 901.869 0 -204.666 769.474 0 -220.154 645.691 0 -220.179 535.577 0 -211.184 441.445 0 -197.21 362.317 0 -180.759 296.64 0 -163.459 242.59 0 -146.352 198.391 0 -130.08 162.408 0 -115.014 133.194 0 -101.331 109.505 0 -89.0825 90.2952 0 -78.2315 74.6967 0 -68.6909 62.0005 0 -60.3457 51.633 0 -53.0698 43.134 0 -46.7369 36.1364 0 -41.2274 30.3485 0 -36.4318 25.5391 0 -32.2524 21.5245 0 -28.6032 18.1592 0 -25.41 15.327 0 -22.609 12.9353 0 -20.146 10.9084 0 -17.9734 9.18869 0 -16.0532 7.72339 0 -14.3517 6.47579 0 -12.8397 5.41201 0 1089.27 -2.38419e-06 0 301.408 1042.04 0 -45.5977 1030.01 0 -164.387 931.963 0 -219.947 801.923 0 -241.636 678.82 0 -245.635 567.667 0 -238.967 471.354 0 -226.052 389.362 0 -209.673 320.502 0 -191.702 263.215 0 -173.385 215.91 0 -155.54 177.069 0 -138.683 145.312 0 -123.108 119.419 0 -108.955 98.3401 0 -96.2516 81.183 0 -84.9564 67.2047 0 -74.9807 55.7935 0 -66.2118 46.4507 0 -58.527 38.774 0 -51.8029 32.4404 0 -45.9222 27.192 0 -40.7769 22.8235 0 -36.2701 19.1712 0 -32.3156 16.1049 0 -28.8384 13.5206 0 -25.7736 11.336 0 -23.0675 9.48069 0 -20.6688 7.90733 0 -18.5394 6.56335 0 -16.6443 5.41984 0 1195.07 3.8147e-06 0 341.76 1078.04 0 -35.1083 1060.48 0 -169.06 964.979 0 -235.272 836.856 0 -264.165 714.331 0 -273.041 602.104 0 -269.474 503.533 0 -258.256 418.528 0 -242.448 346.265 0 -224.16 285.463 0 -204.85 234.734 0 -185.522 192.7 0 -166.852 158.068 0 -149.27 129.66 0 -133.026 106.433 0 -118.235 87.481 0 -104.918 72.0302 0 -93.0291 59.4291 0 -82.4831 49.1376 0 -73.1699 40.7122 0 -64.9694 33.7929 0 -57.7604 28.0889 0 -51.4263 23.3675 0 -45.8593 19.4426 0 -40.9619 16.1655 0 -36.6467 13.418 0 -32.8366 11.1048 0 -29.463 9.15453 0 -26.4753 7.49651 0 -23.8161 6.09685 0 -21.445 4.90329 0 1315.22 -3.8147e-06 0 384.524 1121.61 0 -23.4042 1095.54 0 -172.888 1001.58 0 -250.685 874.821 0 -287.804 752.68 0 -302.543 639.275 0 -302.955 538.325 0 -294.187 450.11 0 -279.564 374.17 0 -261.424 309.512 0 -241.437 254.97 0 -220.796 209.328 0 -200.351 171.401 0 -180.685 140.076 0 -162.176 114.337 0 -145.051 93.2738 0 -129.414 76.0896 0 -115.286 62.0957 0 -102.623 50.7076 0 -91.3437 41.4358 0 -81.3412 33.8757 0 -72.4976 27.6962 0 -64.6923 22.6291 0 -57.808 18.4586 0 -51.7346 15.0126 0 -46.373 12.153 0 -41.6338 9.77119 0 -37.438 7.77496 0 -33.704 6.10863 0 -30.391 4.69291 0 -27.4336 3.50904 0 1454.18 1.90735e-06 0 429.06 1174.36 0 -11.0389 1136.01 0 -176.134 1042.51 0 -266.34 916.468 0 -312.701 794.432 0 -334.353 679.672 0 -339.728 576.157 0 -334.285 484.478 0 -321.588 404.523 0 -304.189 335.591 0 -283.957 276.757 0 -262.277 226.989 0 -240.176 185.237 0 -218.401 150.477 0 -197.481 121.74 0 -177.772 98.1348 0 -159.49 78.8521 0 -142.742 63.1734 0 -127.554 50.4706 0 -113.891 40.2039 0 -101.676 31.9167 0 -90.805 25.2283 0 -81.1622 19.8251 0 -72.6261 15.4517 0 -65.0765 11.9017 0 -58.3977 9.01142 0 -52.4853 6.64949 0 -47.2472 4.71801 0 -42.6128 3.11707 0 -38.4654 1.81119 0 -34.7792 0.725106 0 1618.49 -9.53674e-07 0 474.19 1238.19 0 1.12009 1182.74 0 -179.274 1088.59 0 -282.57 962.538 0 -339.14 840.258 0 -368.798 723.892 0 -380.217 617.559 0 -379.1 522.092 0 -369.209 437.703 0 -353.286 363.987 0 -333.381 300.274 0 -311.06 245.738 0 -287.525 199.489 0 -263.696 160.62 0 -240.263 128.241 0 -217.73 101.502 0 -196.45 79.6035 0 -176.646 61.8112 0 -158.44 47.461 0 -141.871 35.9629 0 -126.915 26.8024 0 -113.503 19.5384 0 -101.536 13.7997 0 -90.8968 9.27836 0 -81.4625 5.72295 0 -73.1099 2.9277 0 -65.7137 0.72975 0 -59.1542 -1.00504 0 -53.3179 -2.35141 0 -48.1927 -3.41977 0 -43.5836 -4.28322 0 1818.09 9.53674e-07 0 517.846 1315.32 0 11.7936 1236.45 0 -183.062 1140.66 0 -299.94 1013.83 0 -367.607 890.915 0 -406.38 772.631 0 -425.006 663.159 0 -429.341 563.504 0 -423.287 474.174 0 -409.734 395.056 0 -390.886 325.745 0 -368.472 265.644 0 -343.86 214.051 0 -318.136 170.206 0 -292.158 133.33 0 -266.593 102.646 0 -241.948 77.3966 0 -218.59 56.8562 0 -196.768 40.3428 0 -176.632 27.2264 0 -158.244 16.9348 0 -141.601 8.95906 0 -126.646 2.85503 0 -113.282 -1.75649 0 -101.391 -5.19199 0 -90.8416 -7.70791 0 -81.5116 -9.51417 0 -73.276 -10.7784 0 -66.0011 -11.6741 0 -59.4366 -12.272 0 -53.7579 -12.4736 0 2068.7 -1.90735e-06 0 556.521 1408.03 0 19.2164 1297.63 0 -188.594 1199.49 0 -319.326 1071.11 0 -398.853 947.194 0 -447.844 826.648 0 -474.908 713.665 0 -485.946 609.345 0 -484.916 514.468 0 -474.804 429.204 0 -457.927 353.425 0 -436.146 286.782 0 -410.975 228.784 0 -383.656 178.854 0 -355.207 136.357 0 -326.459 100.628 0 -298.086 70.99 0 -270.62 46.7659 0 -244.469 27.2893 0 -219.929 11.9152 0 -197.193 0.0297006 0 -176.368 -8.94019 0 -157.48 -15.5185 0 -140.497 -20.1745 0 -125.332 -23.3198 0 -111.857 -25.3071 0 -99.9123 -26.4201 0 -89.353 -26.8731 0 -80.0796 -26.7826 0 -72.1424 -26.3466 0 -64.7495 -26.2952 0 2396.41 0 0 584.438 1518.11 0 21.1835 1366.13 0 -197.331 1265.61 0 -341.963 1135.01 0 -433.961 1009.82 0 -494.248 886.688 0 -531.041 769.797 0 -550.154 660.274 0 -555.505 559.146 0 -550.098 466.858 0 -536.312 383.566 0 -516.099 309.187 0 -491.087 243.472 0 -462.649 186.053 0 -431.949 136.478 0 -399.971 94.2335 0 -367.552 58.7682 0 -335.396 29.5013 0 -304.087 5.83361 0 -274.1 -12.8452 0 -245.807 -27.1497 0 -219.478 -37.6895 0 -195.286 -45.0573 0 -173.316 -49.8148 0 -153.578 -52.4798 0 -136.022 -53.5196 0 -120.545 -53.3628 0 -106.941 -52.4099 0 -94.9012 -51.0246 0 -84.0135 -49.2523 0 -75.5463 -45.5475 0 2846.93 0 0 592.426 1645.48 0 15.4188 1440.86 0 -211.075 1339.16 0 -369.438 1205.81 0 -474.356 1079.3 0 -547.002 953.349 0 -594.881 832.181 0 -623.578 716.884 0 -636.851 608.713 0 -637.634 508.38 0 -628.299 416.336 0 -610.832 332.782 0 -586.934 257.738 0 -558.076 191.077 0 -525.537 132.564 0 -490.438 81.8783 0 -453.756 38.635 0 -416.353 2.40094 0 -378.984 -27.2956 0 -342.309 -50.9594 0 -306.905 -69.1271 0 -273.264 -82.3677 0 -241.784 -91.2829 0 -212.759 -96.5022 0 -186.369 -98.6649 0 -162.685 -98.3847 0 -141.705 -96.1974 0 -123.46 -92.5215 0 -108.01 -87.7732 0 -95.2477 -82.8774 0 -81.8088 -82.2269 0 3505.48 0 0 566.602 1785.35 0 0.711446 1519.66 0 -231.922 1419.73 0 -403.583 1283.22 0 -521.735 1155.78 0 -607.842 1026.91 0 -668.259 901.197 0 -708.22 779.556 0 -731.177 663.48 0 -739.898 553.941 0 -736.655 451.691 0 -723.404 357.239 0 -701.86 270.901 0 -673.548 192.829 0 -639.83 123.039 0 -601.927 61.4406 0 -560.938 7.85339 0 -517.848 -37.9691 0 -473.549 -76.3254 0 -428.849 -107.553 0 -384.496 -132.022 0 -341.189 -150.136 0 -299.591 -162.339 0 -260.328 -169.144 0 -223.967 -171.165 0 -190.949 -169.163 0 -161.481 -164.063 0 -135.398 -156.903 0 -112.327 -148.328 0 -92.4293 -137.553 0 -81.9198 -115.918 0 4543.48 -2.86102e-06 0 488.056 1922.39 0 -20.9025 1600.91 0 -262.408 1505.76 0 -446.095 1366.26 0 -577.889 1238.81 0 -678.684 1107.2 0 -753.268 976.804 0 -806.409 848.301 0 -841.106 723.407 0 -859.838 603.353 0 -864.683 489.205 0 -857.474 381.8 0 -839.872 281.784 0 -813.396 189.628 0 -779.448 105.644 0 -739.319 30.0139 0 -694.199 -37.1994 0 -645.175 -96.0267 0 -593.244 -146.574 0 -539.312 -189.002 0 -484.207 -223.502 0 -428.702 -250.274 0 -373.543 -269.502 0 -319.503 -281.337 0 -267.455 -285.889 0 -218.472 -283.255 0 -173.901 -273.663 0 -135.324 -257.764 0 -103.829 -237.933 0 -77.9374 -220.051 0 -43.6663 -227.101 0 6341.57 6.67572e-06 0 333.619 2022.56 0 -40.236 1688.74 0 -306.957 1593.19 0 -497.51 1453.44 0 -644.504 1327.51 0 -761.385 1193.36 0 -852.036 1058.5 0 -920.635 922.605 0 -969.504 787.954 0 -1000.75 655.903 0 -1016.11 527.879 0 -1017.22 405.058 0 -1005.57 288.457 0 -982.611 178.912 0 -949.718 77.0912 0 -908.213 -16.491 0 -859.354 -101.467 0 -804.33 -177.603 0 -744.251 -244.784 0 -680.137 -302.997 0 -612.902 -352.316 0 -543.341 -392.873 0 -472.11 -424.829 0 -399.71 -448.317 0 -326.485 -463.354 0 -252.669 -469.691 0 -178.586 -466.398 0 -105.241 -451.341 0 -36.1849 -418.327 0 17.8578 -354.541 0 21.1908 -208.289 0 9880.83 -3.8147e-06 0 88.416 2017.27 0 -41.6697 1811.62 0 -373.676 1663.98 0 -554.481 1549.16 0 -724.045 1418.02 0 -856.944 1285.1 0 -966.672 1144.95 0 -1053.3 1001.61 0 -1119.36 856.052 0 -1166.17 710.355 0 -1195.09 566.109 0 -1207.36 424.903 0 -1204.23 288.14 0 -1186.95 157.081 0 -1156.79 32.8221 0 -1115.02 -83.7006 0 -1062.94 -191.717 0 -1001.83 -290.62 0 -932.937 -379.967 0 -857.489 -459.478 0 -776.646 -529.04 0 -691.481 -588.712 0 -602.941 -638.746 0 -511.779 -679.623 0 -418.427 -712.181 0 -322.721 -737.757 0 -223.322 -759.197 0 -116.154 -781.223 0 9.10424 -820.633 0 180.444 -908.297 0 476.978 -1236.29 0 </DataArray> 
</PointData> 
<Points> 
<DataArray type="Float32" NumberOfComponents="3"> 