<?xml version="1.0"?> 
<VTKFile type="StructuredGrid" version="0.1"> 
<StructuredGrid WholeExtent="0 31 0 31 0 0"> 
<Piece Extent="0 31 0 31 0 0"> 
<PointData>
<DataArray type="Float32" Name="|E|" format="ascii" NumberOfComponents="3"> 
463271 7.02648e+06 0 407238 6.17662e+06 0 380941 5.77777e+06 0 363824 5.51815e+06 0 351385 5.32949e+06 0 341640 5.18168e+06 0 333719 5.06155e+06 0 327103 4.9612e+06 0 321470 4.87577e+06 0 316604 4.80196e+06 0 312350 4.73744e+06 0 308597 4.68052e+06 0 305259 4.6299e+06 0 302272 4.58458e+06 0 299582 4.54379e+06 0 297149 4.50689e+06 0 294939 4.47337e+06 0 292924 4.44281e+06 0 291082 4.41487e+06 0 289393 4.38925e+06 0 287841 4.36571e+06 0 286411 4.34403e+06 0 285094 4.32404e+06 0 283877 4.30559e+06 0 282754 4.28855e+06 0 281715 4.2728e+06 0 280756 4.25825e+06 0 279870 4.24481e+06 0 279053 4.23242e+06 0 278301 4.22101e+06 0 277610 4.21054e+06 0 276978 4.20095e+06 0 -520822 6.21331e+06 0 -167658 5.98714e+06 0 -12370.8 5.71275e+06 0 73319.5 5.49428e+06 0 124218 5.31989e+06 0 157573 5.17883e+06 0 180569 5.06191e+06 0 197171 4.96323e+06 0 209545 4.87866e+06 0 219014 4.80528e+06 0 226412 4.74094e+06 0 232294 4.68404e+06 0 237038 4.63336e+06 0 240913 4.58794e+06 0 244114 4.54702e+06 0 246784 4.50997e+06 0 249033 4.47629e+06 0 250943 4.44558e+06 0 252580 4.41748e+06 0 253995 4.3917e+06 0 255229 4.36801e+06 0 256316 4.34619e+06 0 257284 4.32606e+06 0 258155 4.30747e+06 0 258948 4.29029e+06 0 259681 4.27441e+06 0 260367 4.25973e+06 0 261019 4.24616e+06 0 261648 4.23364e+06 0 262263 4.2221e+06 0 262876 4.2115e+06 0 263493 4.20178e+06 0 -732812 5.78481e+06 0 -488202 5.66102e+06 0 -299221 5.52146e+06 0 -169458 5.37668e+06 0 -78397.4 5.24439e+06 0 -13134.9 5.12766e+06 0 35179.3 5.02586e+06 0 71904 4.937e+06 0 100501 4.85909e+06 0 123224 4.79036e+06 0 141596 4.72938e+06 0 156675 4.67496e+06 0 169214 4.62615e+06 0 179759 4.58215e+06 0 188719 4.54233e+06 0 196402 4.50614e+06 0 203047 4.47314e+06 0 208839 4.44297e+06 0 213924 4.41529e+06 0 218422 4.38986e+06 0 222428 4.36644e+06 0 226021 4.34483e+06 0 229266 4.32486e+06 0 232219 4.3064e+06 0 234924 4.28932e+06 0 237424 4.2735e+06 0 239750 4.25886e+06 0 241935 4.24531e+06 0 244004 4.23279e+06 0 245982 4.22123e+06 0 247890 4.21058e+06 0 249748 4.20081e+06 0 -848788 5.43627e+06 0 -643164 5.38907e+06 0 -475410 5.31103e+06 0 -341303 5.22209e+06 0 -236692 5.13077e+06 0 -155147 5.04313e+06 0 -91139.9 4.96174e+06 0 -40278.4 4.88742e+06 0 672.953 4.82005e+06 0 34080.9 4.75913e+06 0 61672.4 4.70403e+06 0 84719.7 4.65413e+06 0 104171 4.60883e+06 0 120743 4.56761e+06 0 134983 4.53e+06 0 147318 4.4956e+06 0 158081 4.46407e+06 0 167538 4.43508e+06 0 175902 4.4084e+06 0 183347 4.38378e+06 0 190014 4.36103e+06 0 196022 4.33999e+06 0 201470 4.32049e+06 0 206440 4.30242e+06 0 211003 4.28565e+06 0 215221 4.2701e+06 0 219147 4.25566e+06 0 222827 4.24228e+06 0 226301 4.22987e+06 0 229608 4.2184e+06 0 232780 4.20781e+06 0 235848 4.19805e+06 0 -887607 5.17236e+06 0 -724554 5.15352e+06 0 -578972 5.1154e+06 0 -454747 5.06303e+06 0 -350704 5.00354e+06 0 -264590 4.94161e+06 0 -193516 4.88041e+06 0 -134737 4.82173e+06 0 -85872.3 4.76647e+06 0 -44973.3 4.71498e+06 0 -10485.1 4.6673e+06 0 18819 4.62328e+06 0 43904.8 4.58269e+06 0 65533.9 4.54527e+06 0 84310.7 4.51076e+06 0 100718 4.47892e+06 0 115143 4.44949e+06 0 127902 4.42227e+06 0 139251 4.39705e+06 0 149404 4.37367e+06 0 158536 4.35197e+06 0 166796 4.33181e+06 0 174308 4.31306e+06 0 181179 4.29562e+06 0 187499 4.27939e+06 0 193349 4.26427e+06 0 198796 4.25021e+06 0 203901 4.23713e+06 0 208718 4.22497e+06 0 213295 4.21368e+06 0 217677 4.20322e+06 0 221904 4.19356e+06 0 -896725 4.95549e+06 0 -761286 4.95673e+06 0 -637124 4.94087e+06 0 -526040 4.91279e+06 0 -428688 4.87626e+06 0 -344493 4.83479e+06 0 -272236 4.79102e+06 0 -210419 4.74685e+06 0 -157534 4.70351e+06 0 -112189 4.66178e+06 0 -73173 4.62207e+06 0 -39454.2 4.58458e+06 0 -10173.1 4.54938e+06 0 15381.9 4.51642e+06 0 37798.3 4.48562e+06 0 57561.1 4.45687e+06 0 75071.5 4.43005e+06 0 90662.7 4.40503e+06 0 104613 4.38168e+06 0 117155 4.35989e+06 0 128487 4.33954e+06 0 138775 4.32054e+06 0 148161 4.30278e+06 0 156770 4.28618e+06 0 164706 4.27067e+06 0 172063 4.25617e+06 0 178922 4.24262e+06 0 185355 4.22997e+06 0 191426 4.21816e+06 0 197193 4.20716e+06 0 202709 4.19692e+06 0 208023 4.18742e+06 0 -885506 4.77776e+06 0 -772516 4.78923e+06 0 -666007 4.78785e+06 0 -567989 4.77573e+06 0 -479307 4.75551e+06 0 -400142 4.72955e+06 0 -330119 4.6999e+06 0 -268540 4.66818e+06 0 -214546 4.63562e+06 0 -167243 4.60309e+06 0 -125772 4.57119e+06 0 -89345.8 4.54032e+06 0 -57267.8 4.51071e+06 0 -28930.7 4.4825e+06 0 -3811.61 4.45573e+06 0 18536.8 4.43041e+06 0 38496.1 4.40652e+06 0 56391.8 4.384e+06 0 72501.4 4.36281e+06 0 87062.7 4.34287e+06 0 100279 4.32412e+06 0 112328 4.30649e+06 0 123359 4.28991e+06 0 133506 4.27434e+06 0 142885 4.2597e+06 0 151596 4.24596e+06 0 159731 4.23305e+06 0 167370 4.22094e+06 0 174585 4.20959e+06 0 181440 4.19895e+06 0 187996 4.18901e+06 0 194309 4.17974e+06 0 -863358 4.62805e+06 0 -767496 4.64622e+06 0 -675718 4.65387e+06 0 -589481 4.65255e+06 0 -509675 4.64389e+06 0 -436737 4.62951e+06 0 -370704 4.61094e+06 0 -311333 4.58946e+06 0 -258194 4.56614e+06 0 -210762 4.54182e+06 0 -168473 4.51715e+06 0 -130770 4.49257e+06 0 -97125 4.46843e+06 0 -67054.8 4.44495e+06 0 -40123.3 4.42229e+06 0 -15943.6 4.40053e+06 0 5825.17 4.37973e+06 0 25482 4.35989e+06 0 43288.3 4.34102e+06 0 59472.4 4.32311e+06 0 74234.1 4.30612e+06 0 87748.4 4.29002e+06 0 100169 4.27478e+06 0 111631 4.26037e+06 0 122255 4.24674e+06 0 132147 4.23386e+06 0 141403 4.2217e+06 0 150107 4.21023e+06 0 158337 4.19941e+06 0 166163 4.18922e+06 0 173651 4.17964e+06 0 180860 4.17065e+06 0 -834321 4.50081e+06 0 -752163 4.52285e+06 0 -672534 4.53645e+06 0 -596596 4.54249e+06 0 -525136 4.54206e+06 0 -458650 4.53629e+06 0 -397359 4.52628e+06 0 -341262 4.51303e+06 0 -290194 4.49742e+06 0 -243877 4.48018e+06 0 -201971 4.46191e+06 0 -164104 4.44308e+06 0 -129899 4.42405e+06 0 -98991.8 4.40511e+06 0 -71036.6 4.38645e+06 0 -45715.4 4.36821e+06 0 -22738.3 4.35051e+06 0 -1843.34 4.33341e+06 0 17204.2 4.31695e+06 0 34614.3 4.30115e+06 0 50574.2 4.28602e+06 0 65250.7 4.27155e+06 0 78792.9 4.25774e+06 0 91333.9 4.24458e+06 0 102993 4.23205e+06 0 113877 4.22013e+06 0 124083 4.20879e+06 0 133698 4.19803e+06 0 142803 4.18781e+06 0 151471 4.17813e+06 0 159769 4.16897e+06 0 167761 4.16031e+06 0 -801164 4.39121e+06 0 -730064 4.41567e+06 0 -660538 4.43316e+06 0 -593494 4.44428e+06 0 -529596 4.44977e+06 0 -469325 4.4504e+06 0 -412964 4.44697e+06 0 -360634 4.44026e+06 0 -312322 4.43096e+06 0 -267910 4.41968e+06 0 -227213 4.40696e+06 0 -190000 4.39322e+06 0 -156015 4.37883e+06 0 -124994 4.36408e+06 0 -96677.5 4.34919e+06 0 -70813.3 4.33434e+06 0 -47164.4 4.31966e+06 0 -25510.2 4.30525e+06 0 -5647.36 4.29118e+06 0 12610 4.27751e+06 0 29431.1 4.26427e+06 0 44970 4.25148e+06 0 59366 4.23916e+06 0 72745.8 4.22731e+06 0 85224.1 4.21593e+06 0 96905.6 4.20501e+06 0 107885 4.19456e+06 0 118251 4.18456e+06 0 128082 4.175e+06 0 137454 4.16587e+06 0 146433 4.15716e+06 0 155087 4.14887e+06 0 -765515 4.29603e+06 0 -703492 4.32189e+06 0 -642434 4.34196e+06 0 -583051 4.35662e+06 0 -525898 4.36638e+06 0 -471403 4.37178e+06 0 -419861 4.37342e+06 0 -371445 4.37187e+06 0 -326224 4.36768e+06 0 -284179 4.36136e+06 0 -245227 4.35335e+06 0 -209237 4.34404e+06 0 -176046 4.33377e+06 0 -145473 4.3228e+06 0 -117328 4.31138e+06 0 -91418.5 4.29968e+06 0 -67557.5 4.28786e+06 0 -45565 4.27603e+06 0 -25270.3 4.26429e+06 0 -6513.53 4.25271e+06 0 10854 4.24134e+06 0 26970.1 4.23023e+06 0 41961.7 4.2194e+06 0 55946 4.20888e+06 0 69030.7 4.19868e+06 0 81315 4.1888e+06 0 92890.5 4.17926e+06 0 103842 4.17005e+06 0 114248 4.16118e+06 0 124181 4.15263e+06 0 133709 4.14442e+06 0 142899 4.13652e+06 0 -728409 4.2127e+06 0 -673949 4.23935e+06 0 -620053 4.26111e+06 0 -567287 4.27825e+06 0 -516109 4.29111e+06 0 -466890 4.3001e+06 0 -419910 4.30563e+06 0 -375357 4.30815e+06 0 -333340 4.30809e+06 0 -293898 4.30585e+06 0 -257014 4.3018e+06 0 -222625 4.29629e+06 0 -190635 4.28961e+06 0 -160926 4.28201e+06 0 -133364 4.27371e+06 0 -107810 4.26489e+06 0 -84117.6 4.25572e+06 0 -62144.9 4.24632e+06 0 -41752.2 4.23678e+06 0 -22805.4 4.22721e+06 0 -5177.02 4.21765e+06 0 11253.4 4.20817e+06 0 26598.9 4.19882e+06 0 40965.4 4.18961e+06 0 54451.6 4.18058e+06 0 67149.8 4.17175e+06 0 79146.1 4.16313e+06 0 90520.9 4.15474e+06 0 101349 4.14656e+06 0 111702 4.13862e+06 0 121646 4.13092e+06 0 131245 4.12344e+06 0 -690517 4.1393e+06 0 -642434 4.16633e+06 0 -594657 4.1892e+06 0 -547635 4.20808e+06 0 -501745 4.22321e+06 0 -457306 4.23488e+06 0 -414570 4.24341e+06 0 -373722 4.24913e+06 0 -334889 4.25239e+06 0 -298139 4.25349e+06 0 -263494 4.25276e+06 0 -230939 4.25048e+06 0 -200424 4.24689e+06 0 -171878 4.24224e+06 0 -145211 4.23672e+06 0 -120322 4.23051e+06 0 -97105.7 4.22375e+06 0 -75449.3 4.21658e+06 0 -55241.8 4.20911e+06 0 -36373.2 4.20142e+06 0 -18736.2 4.19359e+06 0 -2227.8 4.18568e+06 0 13250.8 4.17774e+06 0 27793.5 4.16981e+06 0 41489.2 4.16194e+06 0 54422.2 4.15414e+06 0 66671.7 4.14643e+06 0 78312.8 4.13884e+06 0 89416.5 4.13137e+06 0 100050 4.12404e+06 0 110276 4.11685e+06 0 120158 4.10981e+06 0 -652267 4.07431e+06 0 -609632 4.10148e+06 0 -567130 4.12504e+06 0 -525124 4.14513e+06 0 -483925 4.16192e+06 0 -443803 4.17562e+06 0 -404980 4.18647e+06 0 -367631 4.19472e+06 0 -331883 4.20064e+06 0 -297819 4.20448e+06 0 -265486 4.2065e+06 0 -234894 4.20694e+06 0 -206028 4.20601e+06 0 -178850 4.20392e+06 0 -153302 4.20084e+06 0 -129317 4.19694e+06 0 -106816 4.19237e+06 0 -85716.1 4.18723e+06 0 -65928.6 4.18165e+06 0 -47365.5 4.17571e+06 0 -29938.2 4.16949e+06 0 -13559.9 4.16306e+06 0 1854.33 4.15647e+06 0 16386.4 4.14977e+06 0 30115 4.14301e+06 0 43115.9 4.1362e+06 0 55461.1 4.12939e+06 0 67219.6 4.12259e+06 0 78457.1 4.11582e+06 0 89236.5 4.10909e+06 0 99617.4 4.10242e+06 0 109659 4.09581e+06 0 -613939 4.01657e+06 0 -576010 4.04368e+06 0 -538100 4.06767e+06 0 -500505 4.0886e+06 0 -463483 4.1066e+06 0 -427260 4.12184e+06 0 -392033 4.13448e+06 0 -357957 4.14473e+06 0 -325155 4.15279e+06 0 -293717 4.15886e+06 0 -263698 4.16316e+06 0 -235128 4.16589e+06 0 -208012 4.16722e+06 0 -182335 4.16733e+06 0 -158065 4.16639e+06 0 -135157 4.16453e+06 0 -113557 4.1619e+06 0 -93202.5 4.15859e+06 0 -74026.1 4.15473e+06 0 -55957.8 4.15039e+06 0 -38925.6 4.14566e+06 0 -22857.2 4.14061e+06 0 -7681.02 4.13528e+06 0 6673.65 4.12975e+06 0 20275.7 4.12403e+06 0 33192 4.11818e+06 0 45487.3 4.11223e+06 0 57224.1 4.10619e+06 0 68462.5 4.10009e+06 0 79260.6 4.09396e+06 0 89673.9 4.08779e+06 0 99758 4.08161e+06 0 -575711 3.9651e+06 0 -541890 3.99206e+06 0 -508015 4.01627e+06 0 -474328 4.03778e+06 0 -441043 4.05667e+06 0 -408352 4.07306e+06 0 -376423 4.0871e+06 0 -345397 4.09893e+06 0 -315387 4.10871e+06 0 -286479 4.1166e+06 0 -258737 4.12279e+06 0 -232198 4.12743e+06 0 -206881 4.13068e+06 0 -182786 4.13268e+06 0 -159900 4.13359e+06 0 -138194 4.13352e+06 0 -117633 4.1326e+06 0 -98171.3 4.13093e+06 0 -79758.6 4.12861e+06 0 -62339.9 4.12573e+06 0 -45857.8 4.12236e+06 0 -30252.8 4.11858e+06 0 -15465 4.11443e+06 0 -1434.25 4.10997e+06 0 11899 4.10524e+06 0 24593.2 4.10029e+06 0 36706 4.09515e+06 0 48293.2 4.08984e+06 0 59409.2 4.08439e+06 0 70107.2 4.07882e+06 0 80438 4.07315e+06 0 90453.1 4.06738e+06 0 -537697 3.91914e+06 0 -507498 3.9459e+06 0 -477200 3.9702e+06 0 -447001 3.99208e+06 0 -417078 4.01162e+06 0 -387597 4.02889e+06 0 -358699 4.04401e+06 0 -330510 4.05708e+06 0 -303132 4.06825e+06 0 -276647 4.07763e+06 0 -251118 4.08538e+06 0 -226587 4.09162e+06 0 -203082 4.09648e+06 0 -180612 4.1001e+06 0 -159176 4.1026e+06 0 -138758 4.10409e+06 0 -119337 4.10468e+06 0 -100880 4.10446e+06 0 -83351.2 4.10352e+06 0 -66707.3 4.10195e+06 0 -50903.1 4.09981e+06 0 -35890.5 4.09718e+06 0 -21619.7 4.0941e+06 0 -8040.1 4.09064e+06 0 4899.21 4.08683e+06 0 17249.1 4.08272e+06 0 29059.9 4.07834e+06 0 40381.3 4.07371e+06 0 51262.1 4.06888e+06 0 61750.1 4.06385e+06 0 71891.7 4.05865e+06 0 81733.9 4.05328e+06 0 -499962 3.87807e+06 0 -472989 3.90458e+06 0 -445888 3.92888e+06 0 -418825 3.95101e+06 0 -391948 3.97101e+06 0 -365396 3.98895e+06 0 -339291 4.0049e+06 0 -313743 4.01897e+06 0 -288843 4.03124e+06 0 -264667 4.04184e+06 0 -241275 4.05087e+06 0 -218711 4.05845e+06 0 -197006 4.06468e+06 0 -176176 4.06967e+06 0 -156227 4.07354e+06 0 -137154 4.07638e+06 0 -118944 4.07828e+06 0 -101576 4.07933e+06 0 -85023.6 4.07962e+06 0 -69254 4.07922e+06 0 -54232 4.07819e+06 0 -39918.9 4.0766e+06 0 -26273.9 4.0745e+06 0 -13254.8 4.07195e+06 0 -818.213 4.06898e+06 0 11079.5 4.06564e+06 0 22482.1 4.06197e+06 0 33433.4 4.05798e+06 0 43976.5 4.05372e+06 0 54154.4 4.0492e+06 0 64008.8 4.04444e+06 0 73582.4 4.03946e+06 0 -462544 3.84138e+06 0 -438468 3.86762e+06 0 -414251 3.89186e+06 0 -390029 3.91413e+06 0 -365927 3.93446e+06 0 -342062 3.9529e+06 0 -318540 3.96951e+06 0 -295455 3.98436e+06 0 -272889 3.99753e+06 0 -250909 4.00912e+06 0 -229573 4.01921e+06 0 -208923 4.02789e+06 0 -188991 4.03527e+06 0 -169797 4.04144e+06 0 -151353 4.04647e+06 0 -133659 4.05047e+06 0 -116709 4.05352e+06 0 -100491 4.05569e+06 0 -84984.9 4.05705e+06 0 -70167.9 4.05768e+06 0 -56012.2 4.05764e+06 0 -42486.9 4.05699e+06 0 -29558.9 4.05577e+06 0 -17193.1 4.05404e+06 0 -5353.12 4.05184e+06 0 5998.35 4.04921e+06 0 16899.2 4.04619e+06 0 27387.4 4.0428e+06 0 37501.2 4.03907e+06 0 47278.4 4.03502e+06 0 56756.5 4.03068e+06 0 65973.9 4.02606e+06 0 -425455 3.80864e+06 0 -404007 3.83461e+06 0 -382411 3.85876e+06 0 -360782 3.8811e+06 0 -339226 3.90165e+06 0 -317841 3.92046e+06 0 -296717 3.93758e+06 0 -275936 3.95305e+06 0 -255570 3.96695e+06 0 -235681 3.97934e+06 0 -216318 3.9903e+06 0 -197524 3.99992e+06 0 -179329 4.00826e+06 0 -161756 4.01541e+06 0 -144818 4.02144e+06 0 -128521 4.02644e+06 0 -112863 4.03047e+06 0 -97837.4 4.03361e+06 0 -83431.5 4.03592e+06 0 -69627.8 4.03746e+06 0 -56405.4 4.0383e+06 0 -43739.9 4.03847e+06 0 -31604.6 4.03805e+06 0 -19970.6 4.03706e+06 0 -8807.47 4.03556e+06 0 1916.46 4.03357e+06 0 12233.6 4.03113e+06 0 22176.9 4.02828e+06 0 31779.7 4.02504e+06 0 41075.4 4.02143e+06 0 50097.1 4.01747e+06 0 58878.9 4.01319e+06 0 -388698 3.7795e+06 0 -369650 3.8052e+06 0 -350457 3.82923e+06 0 -331213 3.85159e+06 0 -312007 3.8723e+06 0 -292922 3.89139e+06 0 -274037 3.9089e+06 0 -255420 3.92486e+06 0 -237135 3.93934e+06 0 -219235 3.95239e+06 0 -201768 3.96407e+06 0 -184771 3.97445e+06 0 -168273 3.9836e+06 0 -152297 3.99159e+06 0 -136857 3.99847e+06 0 -121963 4.00432e+06 0 -107616 4.0092e+06 0 -93812.6 4.01318e+06 0 -80545.2 4.01631e+06 0 -67801.4 4.01865e+06 0 -55565.3 4.02025e+06 0 -43818 4.02117e+06 0 -32537.9 4.02144e+06 0 -21701.3 4.02112e+06 0 -11283.1 4.02023e+06 0 -1256.48 4.01882e+06 0 8406.04 4.01692e+06 0 17732.9 4.01456e+06 0 26752.8 4.01176e+06 0 35495.1 4.00855e+06 0 43988.7 4.00495e+06 0 52264 4.00097e+06 0 -352260 3.75366e+06 0 -335426 3.77912e+06 0 -318451 3.80302e+06 0 -301416 3.82536e+06 0 -284395 3.84617e+06 0 -267458 3.86547e+06 0 -250671 3.88327e+06 0 -234095 3.89962e+06 0 -217784 3.91457e+06 0 -201784 3.92815e+06 0 -186139 3.94043e+06 0 -170880 3.95145e+06 0 -156037 3.96127e+06 0 -141631 3.96995e+06 0 -127676 3.97756e+06 0 -114183 3.98413e+06 0 -101156 3.98975e+06 0 -88594.6 3.99445e+06 0 -76493.7 3.99829e+06 0 -64845 4.00132e+06 0 -53636.8 4.00359e+06 0 -42854.3 4.00516e+06 0 -32480.4 4.00605e+06 0 -22495.9 4.00631e+06 0 -12879.9 4.00597e+06 0 -3610.1 4.00508e+06 0 5336.77 4.00365e+06 0 13985 4.00173e+06 0 22359.2 3.99933e+06 0 30484.9 3.99648e+06 0 38387.3 3.9932e+06 0 46092.9 3.9895e+06 0 -316125 3.73089e+06 0 -301346 3.75611e+06 0 -286437 3.77987e+06 0 -271463 3.80219e+06 0 -256486 3.82306e+06 0 -241566 3.8425e+06 0 -226760 3.86053e+06 0 -212117 3.87719e+06 0 -197684 3.89251e+06 0 -183504 3.90653e+06 0 -169612 3.91929e+06 0 -156039 3.93084e+06 0 -142809 3.94122e+06 0 -129944 3.95049e+06 0 -117456 3.9587e+06 0 -105358 3.96589e+06 0 -93653.8 3.97212e+06 0 -82345.3 3.97744e+06 0 -71430.2 3.98189e+06 0 -60902.9 3.98553e+06 0 -50754.7 3.98838e+06 0 -40974.3 3.99051e+06 0 -31548.1 3.99194e+06 0 -22460.7 3.99271e+06 0 -13694.9 3.99286e+06 0 -5232.26 3.99242e+06 0 2946.88 3.99142e+06 0 10863 3.98989e+06 0 18537.2 3.98784e+06 0 25991.2 3.98532e+06 0 33246.9 3.98232e+06 0 40327.3 3.97888e+06 0 -280269 3.71097e+06 0 -267416 3.73598e+06 0 -254443 3.75962e+06 0 -241406 3.78188e+06 0 -228356 3.80278e+06 0 -215342 3.82233e+06 0 -202413 3.84054e+06 0 -189610 3.85744e+06 0 -176975 3.87306e+06 0 -164542 3.88743e+06 0 -152343 3.90058e+06 0 -140405 3.91257e+06 0 -128750 3.92341e+06 0 -117396 3.93317e+06 0 -106357 3.94189e+06 0 -95643 3.9496e+06 0 -85260.1 3.95635e+06 0 -75211 3.9622e+06 0 -65494.8 3.96717e+06 0 -56108.1 3.97131e+06 0 -47044.6 3.97467e+06 0 -38295.7 3.97728e+06 0 -29850.7 3.97917e+06 0 -21697.4 3.98039e+06 0 -13821.6 3.98096e+06 0 -6208.23 3.98092e+06 0 1159.08 3.98029e+06 0 8297.51 3.9791e+06 0 15224.9 3.97737e+06 0 21959.7 3.97513e+06 0 28520.6 3.97239e+06 0 34927.3 3.96917e+06 0 -244666 3.69375e+06 0 -233631 3.71856e+06 0 -222488 3.74208e+06 0 -211283 3.76429e+06 0 -200060 3.7852e+06 0 -188859 3.80482e+06 0 -177720 3.82317e+06 0 -166679 3.84026e+06 0 -155770 3.85611e+06 0 -145022 3.87076e+06 0 -134463 3.88424e+06 0 -124115 3.89657e+06 0 -113998 3.9078e+06 0 -104128 3.91797e+06 0 -94518.3 3.9271e+06 0 -85177.4 3.93524e+06 0 -76111.6 3.94244e+06 0 -67324.1 3.94872e+06 0 -58815.2 3.95413e+06 0 -50583 3.95871e+06 0 -42622.9 3.9625e+06 0 -34928.5 3.96552e+06 0 -27491.6 3.96781e+06 0 -20302.3 3.96941e+06 0 -13349.3 3.97034e+06 0 -6620.27 3.97064e+06 0 -101.748 3.97033e+06 0 6220.51 3.96944e+06 0 12361.4 3.96799e+06 0 18336.4 3.96599e+06 0 24161.3 3.96348e+06 0 29852.6 3.96045e+06 0 -209289 3.67907e+06 0 -199981 3.70372e+06 0 -190580 3.72712e+06 0 -181122 3.74928e+06 0 -171644 3.77019e+06 0 -162177 3.78986e+06 0 -152756 3.80831e+06 0 -143410 3.82554e+06 0 -134166 3.84159e+06 0 -125049 3.85646e+06 0 -116083 3.87019e+06 0 -107286 3.88282e+06 0 -98675.2 3.89436e+06 0 -90264.6 3.90485e+06 0 -82065.3 3.91433e+06 0 -74085.4 3.92283e+06 0 -66330.8 3.93038e+06 0 -58804.7 3.93703e+06 0 -51508.2 3.94281e+06 0 -44440.2 3.94775e+06 0 -37597.6 3.95189e+06 0 -30975.6 3.95526e+06 0 -24568 3.95789e+06 0 -18366.8 3.95981e+06 0 -12363.3 3.96105e+06 0 -6547.49 3.96164e+06 0 -908.38 3.9616e+06 0 4565.6 3.96096e+06 0 9886.7 3.95974e+06 0 15067.7 3.95796e+06 0 20121.6 3.95563e+06 0 25062.2 3.95278e+06 0 -174107 3.66683e+06 0 -166454 3.69133e+06 0 -158722 3.71463e+06 0 -150941 3.73674e+06 0 -143139 3.75764e+06 0 -135343 3.77735e+06 0 -127580 3.79587e+06 0 -119872 3.81322e+06 0 -112243 3.82941e+06 0 -104713 3.84446e+06 0 -97299.8 3.8584e+06 0 -90020.3 3.87124e+06 0 -82887.9 3.88303e+06 0 -75914.3 3.89379e+06 0 -69108.8 3.90355e+06 0 -62478.5 3.91233e+06 0 -56028.7 3.92019e+06 0 -49762.5 3.92714e+06 0 -43681 3.93321e+06 0 -37784 3.93845e+06 0 -32069.3 3.94288e+06 0 -26533.4 3.94653e+06 0 -21171.5 3.94944e+06 0 -15977.8 3.95163e+06 0 -10945.2 3.95312e+06 0 -6065.85 3.95395e+06 0 -1331.13 3.95414e+06 0 3268.24 3.95371e+06 0 7742.09 3.95269e+06 0 12100.7 3.95108e+06 0 16354.6 3.94892e+06 0 20515 3.94621e+06 0 -139088 3.65692e+06 0 -133032 3.68131e+06 0 -126912 3.70453e+06 0 -120751 3.72659e+06 0 -114572 3.74748e+06 0 -108395 3.76721e+06 0 -102240 3.78579e+06 0 -96126.3 3.80322e+06 0 -90071 3.81952e+06 0 -84090.3 3.8347e+06 0 -78198.4 3.8488e+06 0 -72408.2 3.86182e+06 0 -66730.7 3.87381e+06 0 -61175 3.88477e+06 0 -55748.8 3.89475e+06 0 -50457.9 3.90376e+06 0 -45306.7 3.91185e+06 0 -40297.9 3.91903e+06 0 -35432.7 3.92534e+06 0 -30711.1 3.93082e+06 0 -26131.8 3.93548e+06 0 -21692.3 3.93936e+06 0 -17389 3.94249e+06 0 -13217.6 3.94489e+06 0 -9172.73 3.94659e+06 0 -5248.4 3.94762e+06 0 -1437.99 3.94799e+06 0 2265.65 3.94773e+06 0 5870.14 3.94686e+06 0 9383.48 3.9454e+06 0 12813.9 3.94337e+06 0 16170.1 3.94077e+06 0 -104200 3.64929e+06 0 -99696.1 3.67358e+06 0 -95143.8 3.69674e+06 0 -90560.4 3.71876e+06 0 -85961.7 3.73964e+06 0 -81363 3.75938e+06 0 -76779.2 3.77799e+06 0 -72223.9 3.79548e+06 0 -67710.2 3.81186e+06 0 -63249.7 3.82715e+06 0 -58853.1 3.84136e+06 0 -54529.9 3.85452e+06 0 -50288.3 3.86665e+06 0 -46135.1 3.87777e+06 0 -42076.2 3.88791e+06 0 -38116.1 3.8971e+06 0 -34257.9 3.90536e+06 0 -30504 3.91272e+06 0 -26855.4 3.91922e+06 0 -23312.2 3.92487e+06 0 -19873.7 3.92971e+06 0 -16538.1 3.93376e+06 0 -13302.9 3.93706e+06 0 -10165 3.93963e+06 0 -7120.72 3.94148e+06 0 -4165.59 3.94266e+06 0 -1294.85 3.94317e+06 0 1496.71 3.94304e+06 0 4214.67 3.94229e+06 0 6864.89 3.94094e+06 0 9453.38 3.93901e+06 0 11986.6 3.9365e+06 0 -69411.7 3.64386e+06 0 -66426.7 3.66809e+06 0 -63409.6 3.6912e+06 0 -60371.3 3.71319e+06 0 -57322.3 3.73406e+06 0 -54272.6 3.75381e+06 0 -51232 3.77245e+06 0 -48209.3 3.78998e+06 0 -45213.2 3.80642e+06 0 -42251.4 3.82177e+06 0 -39331 3.83607e+06 0 -36458.1 3.84932e+06 0 -33638.2 3.86154e+06 0 -30876 3.87277e+06 0 -28175.2 3.88303e+06 0 -25539 3.89233e+06 0 -22969.5 3.90072e+06 0 -20468.2 3.90821e+06 0 -18036.1 3.91483e+06 0 -15673.1 3.92061e+06 0 -13378.9 3.92557e+06 0 -11152.4 3.92975e+06 0 -8992.09 3.93317e+06 0 -6895.87 3.93585e+06 0 -4861.35 3.93782e+06 0 -2885.71 3.93909e+06 0 -965.818 3.93971e+06 0 901.724 3.93967e+06 0 2720.56 3.93901e+06 0 4494.53 3.93774e+06 0 6227.6 3.93587e+06 0 7924.03 3.93343e+06 0 -34689.1 3.64061e+06 0 -33202.1 3.66479e+06 0 -31698.8 3.68788e+06 0 -30184.8 3.70985e+06 0 -28665.3 3.73072e+06 0 -27145.3 3.75047e+06 0 -25629.5 3.76912e+06 0 -24122.4 3.78668e+06 0 -22628.3 3.80315e+06 0 -21150.9 3.81854e+06 0 -19693.9 3.83288e+06 0 -18260.2 3.84619e+06 0 -16852.6 3.85847e+06 0 -15473.5 3.86977e+06 0 -14124.6 3.88009e+06 0 -12807.7 3.88947e+06 0 -11523.7 3.89792e+06 0 -10273.5 3.90549e+06 0 -9057.54 3.91218e+06 0 -7875.84 3.91804e+06 0 -6728.21 3.92308e+06 0 -5614.16 3.92733e+06 0 -4532.94 3.93082e+06 0 -3483.56 3.93357e+06 0 -2464.82 3.9356e+06 0 -1475.36 3.93694e+06 0 -513.61 3.93761e+06 0 422.093 3.93763e+06 0 1333.55 3.93702e+06 0 2222.67 3.9358e+06 0 3091.42 3.93398e+06 0 3941.9 3.93158e+06 0 0 3.63951e+06 0 0 3.66368e+06 0 0 3.68675e+06 0 0 3.70872e+06 0 0 3.72958e+06 0 0 3.74934e+06 0 0 3.76799e+06 0 0 3.78556e+06 0 0 3.80203e+06 0 0 3.81744e+06 0 0 3.8318e+06 0 0 3.84512e+06 0 0 3.85743e+06 0 0 3.86875e+06 0 0 3.87909e+06 0 0 3.88849e+06 0 0 3.89697e+06 0 0 3.90456e+06 0 0 3.91128e+06 0 0 3.91716e+06 0 0 3.92223e+06 0 0 3.92651e+06 0 0 3.93002e+06 0 0 3.93279e+06 0 0 3.93485e+06 0 0 3.93621e+06 0 0 3.9369e+06 0 0 3.93694e+06 0 0 3.93635e+06 0 0 3.93514e+06 0 0 3.93333e+06 0 0 3.93094e+06 0 </DataArray> 
</PointData> 
<Points> 
<DataArray type="Float32" NumberOfComponents="3"> 