<?xml version="1.0"?> 
<VTKFile type="StructuredGrid" version="0.1"> 
<StructuredGrid WholeExtent="0 31 0 31 0 0"> 
<Piece Extent="0 31 0 31 0 0"> 
<PointData>
<DataArray type="Float32" Name="|E|" format="ascii" NumberOfComponents="3"> 
-2.02487e+06 0 0 -2.02493e+06 5250.21 0 -2.02511e+06 10502.1 0 -2.02541e+06 15756.6 0 -2.02582e+06 21014.8 0 -2.02635e+06 26277.8 0 -2.027e+06 31546.4 0 -2.02777e+06 36821.7 0 -2.02865e+06 42104.8 0 -2.02966e+06 47396.7 0 -2.03078e+06 52698.4 0 -2.03202e+06 58011.1 0 -2.03338e+06 63335.7 0 -2.03486e+06 68673.4 0 -2.03645e+06 74025.2 0 -2.03817e+06 79392.3 0 -2.04e+06 84775.6 0 -2.04196e+06 90176.3 0 -2.04403e+06 95595.1 0 -2.04622e+06 101033 0 -2.04853e+06 106492 0 -2.05097e+06 111973 0 -2.05352e+06 117478 0 -2.05619e+06 123008 0 -2.05899e+06 128565 0 -2.0619e+06 134151 0 -2.06494e+06 139767 0 -2.0681e+06 145411 0 -2.07138e+06 151082 0 -2.07479e+06 156778 0 -2.07831e+06 162492 0 -2.08196e+06 168228 0 -2.02022e+06 0 0 -2.02031e+06 6261.06 0 -2.02055e+06 12524.4 0 -2.02095e+06 18791.4 0 -2.02151e+06 25063.4 0 -2.02224e+06 31341.9 0 -2.02312e+06 37628.2 0 -2.02416e+06 43923.8 0 -2.02537e+06 50230 0 -2.02673e+06 56548.4 0 -2.02826e+06 62880.4 0 -2.02995e+06 69227.3 0 -2.03179e+06 75590.8 0 -2.0338e+06 81972.2 0 -2.03598e+06 88373.1 0 -2.03831e+06 94794.9 0 -2.04081e+06 101239 0 -2.04347e+06 107707 0 -2.04629e+06 114201 0 -2.04928e+06 120722 0 -2.05243e+06 127272 0 -2.05574e+06 133853 0 -2.05922e+06 140465 0 -2.06286e+06 147111 0 -2.06667e+06 153792 0 -2.07065e+06 160509 0 -2.0748e+06 167263 0 -2.07911e+06 174057 0 -2.0836e+06 180891 0 -2.08825e+06 187771 0 -2.09308e+06 194698 0 -2.09807e+06 201682 0 -2.01549e+06 0 0 -2.0156e+06 7305.57 0 -2.01591e+06 14614.3 0 -2.01644e+06 21928.1 0 -2.01717e+06 29248.9 0 -2.01811e+06 36578.8 0 -2.01926e+06 43919.8 0 -2.02062e+06 51273.8 0 -2.02219e+06 58643 0 -2.02397e+06 66029.3 0 -2.02596e+06 73434.8 0 -2.02816e+06 80861.6 0 -2.03057e+06 88311.9 0 -2.03319e+06 95787.6 0 -2.03602e+06 103291 0 -2.03907e+06 110824 0 -2.04232e+06 118390 0 -2.04579e+06 125989 0 -2.04948e+06 133625 0 -2.05338e+06 141300 0 -2.05749e+06 149016 0 -2.06182e+06 156775 0 -2.06637e+06 164580 0 -2.07114e+06 172433 0 -2.07612e+06 180337 0 -2.08133e+06 188295 0 -2.08676e+06 196310 0 -2.0924e+06 204386 0 -2.09828e+06 212526 0 -2.10437e+06 220734 0 -2.11069e+06 229011 0 -2.11723e+06 237364 0 -2.01066e+06 0 0 -2.0108e+06 8383.72 0 -2.01119e+06 16771.7 0 -2.01186e+06 25166.6 0 -2.01278e+06 33571.2 0 -2.01397e+06 41988.3 0 -2.01542e+06 50420.8 0 -2.01714e+06 58871.4 0 -2.01912e+06 67343 0 -2.02136e+06 75838.6 0 -2.02387e+06 84360.9 0 -2.02665e+06 92912.9 0 -2.02969e+06 101498 0 -2.033e+06 110118 0 -2.03658e+06 118777 0 -2.04042e+06 127478 0 -2.04454e+06 136224 0 -2.04892e+06 145018 0 -2.05358e+06 153864 0 -2.05851e+06 162764 0 -2.06372e+06 171722 0 -2.0692e+06 180742 0 -2.07495e+06 189828 0 -2.08099e+06 198984 0 -2.0873e+06 208214 0 -2.0939e+06 217523 0 -2.10077e+06 226914 0 -2.10793e+06 236391 0 -2.11537e+06 245958 0 -2.1231e+06 255619 0 -2.13112e+06 265375 0 -2.13943e+06 275238 0 -2.00575e+06 0 0 -2.00591e+06 9495.14 0 -2.0064e+06 18995.8 0 -2.00722e+06 28505.9 0 -2.00835e+06 38029.1 0 -2.00981e+06 47569.2 0 -2.0116e+06 57130.2 0 -2.01371e+06 66715.9 0 -2.01615e+06 76330.3 0 -2.01891e+06 85977.2 0 -2.022e+06 95660.8 0 -2.02541e+06 105385 0 -2.02916e+06 115154 0 -2.03323e+06 124972 0 -2.03763e+06 134844 0 -2.04237e+06 144773 0 -2.04744e+06 154764 0 -2.05284e+06 164821 0 -2.05858e+06 174950 0 -2.06466e+06 185155 0 -2.07108e+06 195443 0 -2.07784e+06 205817 0 -2.08494e+06 216285 0 -2.09239e+06 226851 0 -2.10018e+06 237520 0 -2.10833e+06 248299 0 -2.11682e+06 259192 0 -2.12567e+06 270206 0 -2.13488e+06 281347 0 -2.14444e+06 292624 0 -2.15437e+06 304042 0 -2.16467e+06 315617 0 -2.00074e+06 0 0 -2.00094e+06 10639.5 0 -2.00153e+06 21286.2 0 -2.00251e+06 31945.3 0 -2.00388e+06 42621.7 0 -2.00564e+06 53320.6 0 -2.00779e+06 64047.2 0 -2.01034e+06 74806.8 0 -2.01327e+06 85604.6 0 -2.0166e+06 96446 0 -2.02032e+06 107337 0 -2.02444e+06 118282 0 -2.02895e+06 129287 0 -2.03387e+06 140358 0 -2.03918e+06 151501 0 -2.04489e+06 162721 0 -2.05101e+06 174026 0 -2.05754e+06 185422 0 -2.06447e+06 196915 0 -2.07181e+06 208514 0 -2.07956e+06 220224 0 -2.08773e+06 232054 0 -2.09631e+06 244011 0 -2.10532e+06 256101 0 -2.11474e+06 268335 0 -2.1246e+06 280719 0 -2.13488e+06 293263 0 -2.1456e+06 305977 0 -2.15676e+06 318871 0 -2.16836e+06 331957 0 -2.18041e+06 345241 0 -2.19291e+06 358746 0 -1.99565e+06 0 0 -1.99589e+06 11816.5 0 -1.99659e+06 23642.2 0 -1.99775e+06 35483.8 0 -1.99937e+06 47347.9 0 -2.00145e+06 59241.4 0 -2.004e+06 71170.9 0 -2.00701e+06 83143.5 0 -2.01049e+06 95166.2 0 -2.01443e+06 107246 0 -2.01885e+06 119390 0 -2.02373e+06 131606 0 -2.02908e+06 143901 0 -2.0349e+06 156283 0 -2.0412e+06 168760 0 -2.04798e+06 181341 0 -2.05524e+06 194034 0 -2.06298e+06 206848 0 -2.07121e+06 219793 0 -2.07993e+06 232878 0 -2.08913e+06 246112 0 -2.09884e+06 259507 0 -2.10904e+06 273072 0 -2.11975e+06 286820 0 -2.13096e+06 300761 0 -2.14269e+06 314908 0 -2.15493e+06 329276 0 -2.1677e+06 343878 0 -2.181e+06 358729 0 -2.19483e+06 373845 0 -2.20921e+06 389240 0 -2.22413e+06 404942 0 -1.99047e+06 0 0 -1.99075e+06 13025.8 0 -1.99156e+06 26063.2 0 -1.99292e+06 39120.7 0 -1.99481e+06 52206.9 0 -1.99725e+06 65330.5 0 -2.00022e+06 78500.4 0 -2.00374e+06 91725.6 0 -2.0078e+06 105015 0 -2.01241e+06 118378 0 -2.01756e+06 131824 0 -2.02326e+06 145362 0 -2.02952e+06 159003 0 -2.03633e+06 172757 0 -2.04369e+06 186635 0 -2.05162e+06 200647 0 -2.06011e+06 214807 0 -2.06917e+06 229125 0 -2.07879e+06 243615 0 -2.08899e+06 258288 0 -2.09978e+06 273158 0 -2.11114e+06 288240 0 -2.1231e+06 303549 0 -2.13565e+06 319102 0 -2.1488e+06 334914 0 -2.16256e+06 351005 0 -2.17693e+06 367393 0 -2.19192e+06 384099 0 -2.20755e+06 401145 0 -2.22381e+06 418555 0 -2.24072e+06 436351 0 -2.25829e+06 454574 0 -1.9852e+06 0 0 -1.98552e+06 14267.1 0 -1.98646e+06 28548.5 0 -1.98803e+06 42854.9 0 -1.99021e+06 57197.4 0 -1.99302e+06 71587 0 -1.99645e+06 86034.9 0 -2.00051e+06 100552 0 -2.00519e+06 115151 0 -2.01051e+06 129843 0 -2.01646e+06 144640 0 -2.02304e+06 159554 0 -2.03026e+06 174600 0 -2.03812e+06 189789 0 -2.04663e+06 205137 0 -2.05579e+06 220658 0 -2.0656e+06 236368 0 -2.07607e+06 252282 0 -2.08719e+06 268417 0 -2.09899e+06 284789 0 -2.11146e+06 301419 0 -2.12461e+06 318325 0 -2.13845e+06 335529 0 -2.15298e+06 353053 0 -2.16822e+06 370922 0 -2.18416e+06 389160 0 -2.20083e+06 407796 0 -2.21822e+06 426860 0 -2.23636e+06 446383 0 -2.25525e+06 466402 0 -2.2749e+06 486951 0 -2.29534e+06 508090 0 -1.97985e+06 0 0 -1.98022e+06 15540 0 -1.98129e+06 31097.4 0 -1.98307e+06 46685.7 0 -1.98557e+06 62318.6 0 -1.98877e+06 78009.8 0 -1.99269e+06 93773.3 0 -1.99732e+06 109623 0 -2.00267e+06 125575 0 -2.00874e+06 141642 0 -2.01554e+06 157841 0 -2.02305e+06 174187 0 -2.0313e+06 190697 0 -2.04029e+06 207389 0 -2.05001e+06 224281 0 -2.06048e+06 241391 0 -2.07169e+06 258740 0 -2.08366e+06 276349 0 -2.09639e+06 294238 0 -2.10989e+06 312432 0 -2.12416e+06 330957 0 -2.13922e+06 349838 0 -2.15507e+06 369105 0 -2.17171e+06 388790 0 -2.18917e+06 408925 0 -2.20746e+06 429547 0 -2.22657e+06 450696 0 -2.24654e+06 472415 0 -2.26736e+06 494752 0 -2.28907e+06 517762 0 -2.31167e+06 541497 0 -2.33519e+06 566046 0 -1.97441e+06 0 0 -1.97482e+06 16844.2 0 -1.97604e+06 33709.4 0 -1.97806e+06 50612.2 0 -1.98088e+06 67569.3 0 -1.9845e+06 84597.7 0 -1.98893e+06 101715 0 -1.99418e+06 118938 0 -2.00023e+06 136286 0 -2.0071e+06 153776 0 -2.01478e+06 171429 0 -2.02329e+06 189264 0 -2.03263e+06 207302 0 -2.0428e+06 225566 0 -2.05381e+06 244079 0 -2.06567e+06 262865 0 -2.07837e+06 281948 0 -2.09193e+06 301357 0 -2.10636e+06 321121 0 -2.12166e+06 341270 0 -2.13784e+06 361839 0 -2.15492e+06 382864 0 -2.1729e+06 404384 0 -2.19179e+06 426441 0 -2.21161e+06 449084 0 -2.23238e+06 472363 0 -2.2541e+06 496336 0 -2.27679e+06 521067 0 -2.30047e+06 546625 0 -2.32517e+06 573093 0 -2.3509e+06 600555 0 -2.3777e+06 629142 0 -1.96889e+06 0 0 -1.96935e+06 18179.3 0 -1.97071e+06 36383.7 0 -1.97298e+06 54633.3 0 -1.97614e+06 72948.5 0 -1.98021e+06 91349.8 0 -1.98518e+06 109858 0 -1.99106e+06 128496 0 -1.99786e+06 147284 0 -2.00557e+06 166247 0 -2.0142e+06 185407 0 -2.02375e+06 204790 0 -2.03424e+06 224422 0 -2.04566e+06 244331 0 -2.05802e+06 264546 0 -2.07134e+06 285097 0 -2.08561e+06 306018 0 -2.10085e+06 327343 0 -2.11707e+06 349110 0 -2.13427e+06 371360 0 -2.15246e+06 394139 0 -2.17167e+06 417494 0 -2.19189e+06 441480 0 -2.21315e+06 466154 0 -2.23546e+06 491583 0 -2.25884e+06 517839 0 -2.2833e+06 545005 0 -2.30887e+06 573174 0 -2.33556e+06 602451 0 -2.36341e+06 632962 0 -2.39244e+06 664842 0 -2.42269e+06 698288 0 -1.96328e+06 0 0 -1.9638e+06 19545.1 0 -1.96531e+06 39119.8 0 -1.96784e+06 58748.3 0 -1.97136e+06 78455.1 0 -1.97589e+06 98264.9 0 -1.98143e+06 118203 0 -1.98799e+06 138296 0 -1.99556e+06 158571 0 -2.00415e+06 179055 0 -2.01377e+06 199777 0 -2.02442e+06 220770 0 -2.03611e+06 242064 0 -2.04884e+06 263694 0 -2.06263e+06 285697 0 -2.07747e+06 308111 0 -2.09339e+06 330977 0 -2.11039e+06 354341 0 -2.12848e+06 378253 0 -2.14767e+06 402765 0 -2.16798e+06 427936 0 -2.18942e+06 453832 0 -2.21199e+06 480524 0 -2.23573e+06 508093 0 -2.26064e+06 536631 0 -2.28674e+06 566241 0 -2.31407e+06 597041 0 -2.34262e+06 629170 0 -2.37245e+06 662789 0 -2.40356e+06 698087 0 -2.43599e+06 735287 0 -2.46978e+06 774687 0 -1.95759e+06 0 0 -1.95816e+06 20941.1 0 -1.95984e+06 41916.9 0 -1.96263e+06 62956.1 0 -1.96653e+06 84088 0 -1.97155e+06 105342 0 -1.97768e+06 126748 0 -1.98494e+06 148339 0 -1.99332e+06 170145 0 -2.00283e+06 192201 0 -2.01349e+06 214543 0 -2.02528e+06 237207 0 -2.03823e+06 260234 0 -2.05233e+06 283666 0 -2.0676e+06 307547 0 -2.08405e+06 331926 0 -2.10169e+06 356855 0 -2.12052e+06 382393 0 -2.14057e+06 408601 0 -2.16184e+06 435551 0 -2.18434e+06 463318 0 -2.2081e+06 491989 0 -2.23312e+06 521661 0 -2.25942e+06 552447 0 -2.28703e+06 584471 0 -2.31595e+06 617883 0 -2.34622e+06 652855 0 -2.37784e+06 689591 0 -2.41086e+06 728337 0 -2.44527e+06 769388 0 -2.48111e+06 813112 0 -2.5184e+06 859976 0 -1.95181e+06 0 0 -1.95244e+06 22367 0 -1.95429e+06 44774.3 0 -1.95736e+06 67255.9 0 -1.96166e+06 89846.1 0 -1.96718e+06 112580 0 -1.97393e+06 135493 0 -1.98192e+06 158622 0 -1.99115e+06 182007 0 -2.00162e+06 205687 0 -2.01335e+06 229706 0 -2.02633e+06 254108 0 -2.04059e+06 278941 0 -2.05612e+06 304257 0 -2.07293e+06 330112 0 -2.09105e+06 356565 0 -2.11047e+06 383683 0 -2.13121e+06 411538 0 -2.15329e+06 440210 0 -2.1767e+06 469790 0 -2.20148e+06 500379 0 -2.22763e+06 532091 0 -2.25517e+06 565057 0 -2.28411e+06 599430 0 -2.31447e+06 635388 0 -2.34627e+06 673141 0 -2.37951e+06 712942 0 -2.41421e+06 755096 0 -2.45037e+06 799983 0 -2.48799e+06 848061 0 -2.52705e+06 899970 0 -2.56747e+06 956432 0 -1.94596e+06 0 0 -1.94665e+06 23822.4 0 -1.94867e+06 47691.5 0 -1.95203e+06 71646.7 0 -1.95674e+06 95728.3 0 -1.96278e+06 119977 0 -1.97018e+06 144435 0 -1.97892e+06 169147 0 -1.98903e+06 194157 0 -2.0005e+06 219514 0 -2.01334e+06 245269 0 -2.02756e+06 271475 0 -2.04317e+06 298192 0 -2.06018e+06 325480 0 -2.0786e+06 353409 0 -2.09844e+06 382052 0 -2.11971e+06 411492 0 -2.14242e+06 441820 0 -2.16659e+06 473138 0 -2.19222e+06 505562 0 -2.21933e+06 539224 0 -2.24793e+06 574277 0 -2.27803e+06 610896 0 -2.30965e+06 649292 0 -2.34278e+06 689713 0 -2.37743e+06 732461 0 -2.4136e+06 777909 0 -2.45125e+06 826509 0 -2.49035e+06 878863 0 -2.53081e+06 935699 0 -2.57248e+06 998133 0 -2.61502e+06 1.06724e+06 0 -1.94002e+06 0 0 -1.94077e+06 25307 0 -1.94297e+06 50667.6 0 -1.94664e+06 76127.6 0 -1.95176e+06 101733 0 -1.95835e+06 127533 0 -1.96641e+06 153575 0 -1.97595e+06 179911 0 -1.98696e+06 206594 0 -1.99946e+06 233682 0 -2.01346e+06 261234 0 -2.02896e+06 289315 0 -2.04597e+06 317993 0 -2.06451e+06 347346 0 -2.08458e+06 377454 0 -2.1062e+06 408410 0 -2.12937e+06 440316 0 -2.1541e+06 473285 0 -2.18041e+06 507447 0 -2.2083e+06 542952 0 -2.23779e+06 579970 0 -2.26887e+06 618703 0 -2.30155e+06 659389 0 -2.33583e+06 702317 0 -2.37168e+06 747837 0 -2.40908e+06 796379 0 -2.44797e+06 848494 0 -2.48824e+06 904864 0 -2.52975e+06 966466 0 -2.57217e+06 1.03441e+06 0 -2.61504e+06 1.11062e+06 0 -2.6574e+06 1.1966e+06 0 -1.934e+06 0 0 -1.93481e+06 26820.5 0 -1.93721e+06 53702.1 0 -1.94118e+06 80697.5 0 -1.94674e+06 107860 0 -1.9539e+06 135246 0 -1.96264e+06 162911 0 -1.97299e+06 190914 0 -1.98494e+06 219320 0 -1.99851e+06 248193 0 -2.01369e+06 277604 0 -2.03051e+06 307630 0 -2.04897e+06 338354 0 -2.06908e+06 369866 0 -2.09085e+06 402265 0 -2.11429e+06 435665 0 -2.1394e+06 470189 0 -2.1662e+06 505982 0 -2.19469e+06 543205 0 -2.22488e+06 582050 0 -2.25675e+06 622740 0 -2.29031e+06 665541 0 -2.32553e+06 710775 0 -2.36238e+06 758836 0 -2.40079e+06 810216 0 -2.44067e+06 865535 0 -2.48186e+06 925606 0 -2.52407e+06 991472 0 -2.56686e+06 1.06467e+06 0 -2.6094e+06 1.14676e+06 0 -2.65061e+06 1.24124e+06 0 -2.68797e+06 1.34984e+06 0 -1.92789e+06 0 0 -1.92877e+06 28362.4 0 -1.93136e+06 56794.2 0 -1.93566e+06 85355.6 0 -1.94168e+06 114108 0 -1.94941e+06 143115 0 -1.95886e+06 172441 0 -1.97004e+06 202156 0 -1.98296e+06 232332 0 -1.99762e+06 263046 0 -2.01404e+06 294382 0 -2.03221e+06 326427 0 -2.05215e+06 359281 0 -2.07388e+06 393052 0 -2.09738e+06 427860 0 -2.12268e+06 463841 0 -2.14978e+06 501149 0 -2.17867e+06 539961 0 -2.20936e+06 580483 0 -2.24184e+06 622957 0 -2.27608e+06 667674 0 -2.31205e+06 714984 0 -2.3497e+06 765320 0 -2.38893e+06 819224 0 -2.42959e+06 877381 0 -2.47145e+06 940689 0 -2.51411e+06 1.01034e+06 0 -2.55693e+06 1.08789e+06 0 -2.59885e+06 1.17556e+06 0 -2.63807e+06 1.27578e+06 0 -2.67201e+06 1.39465e+06 0 -2.69418e+06 1.53321e+06 0 -1.92171e+06 0 0 -1.92266e+06 29932.5 0 -1.92545e+06 59943.2 0 -1.93008e+06 90100.8 0 -1.93656e+06 120475 0 -1.94488e+06 151139 0 -1.95506e+06 182166 0 -1.96711e+06 213636 0 -1.98102e+06 245632 0 -1.9968e+06 278244 0 -2.01448e+06 311568 0 -2.03404e+06 345709 0 -2.0555e+06 380783 0 -2.07887e+06 416917 0 -2.10415e+06 454257 0 -2.13134e+06 492966 0 -2.16044e+06 533233 0 -2.19144e+06 575276 0 -2.22432e+06 619355 0 -2.25906e+06 665777 0 -2.2956e+06 714919 0 -2.33386e+06 767241 0 -2.37372e+06 823322 0 -2.41498e+06 883901 0 -2.45733e+06 949938 0 -2.50026e+06 1.02271e+06 0 -2.54293e+06 1.10389e+06 0 -2.58398e+06 1.19576e+06 0 -2.62121e+06 1.30137e+06 0 -2.6508e+06 1.42503e+06 0 -2.66602e+06 1.57445e+06 0 -2.65324e+06 1.74659e+06 0 -1.91545e+06 0 0 -1.91647e+06 31530.3 0 -1.91946e+06 63148.5 0 -1.92443e+06 94932.1 0 -1.93138e+06 126961 0 -1.94032e+06 159316 0 -1.95125e+06 192083 0 -1.96418e+06 225352 0 -1.9791e+06 259219 0 -1.99605e+06 293787 0 -2.015e+06 329167 0 -2.03599e+06 365481 0 -2.059e+06 402865 0 -2.08404e+06 441472 0 -2.11112e+06 481472 0 -2.14022e+06 523064 0 -2.17133e+06 566478 0 -2.20442e+06 611982 0 -2.23947e+06 659900 0 -2.27639e+06 710623 0 -2.3151e+06 764634 0 -2.35543e+06 822538 0 -2.39714e+06 885103 0 -2.43985e+06 953332 0 -2.48295e+06 1.02854e+06 0 -2.52542e+06 1.11249e+06 0 -2.56563e+06 1.20745e+06 0 -2.60093e+06 1.31661e+06 0 -2.6267e+06 1.44415e+06 0 -2.63475e+06 1.59569e+06 0 -2.61096e+06 1.773e+06 0 -2.53617e+06 1.9623e+06 0 -1.90911e+06 0 0 -1.9102e+06 33155.5 0 -1.9134e+06 66409.3 0 -1.91872e+06 99848.7 0 -1.92616e+06 133563 0 -1.93573e+06 167645 0 -1.94742e+06 202191 0 -1.96125e+06 237304 0 -1.97722e+06 273093 0 -1.99534e+06 309674 0 -2.01561e+06 347178 0 -2.03804e+06 385746 0 -2.06262e+06 425536 0 -2.08936e+06 466728 0 -2.11825e+06 509524 0 -2.14927e+06 554163 0 -2.18238e+06 600923 0 -2.21754e+06 650134 0 -2.25467e+06 702199 0 -2.29365e+06 757610 0 -2.33431e+06 816986 0 -2.37635e+06 881110 0 -2.41934e+06 950999 0 -2.46258e+06 1.02798e+06 0 -2.50491e+06 1.11381e+06 0 -2.54448e+06 1.21078e+06 0 -2.57826e+06 1.3219e+06 0 -2.60105e+06 1.45123e+06 0 -2.60361e+06 1.60267e+06 0 -2.57126e+06 1.77699e+06 0 -2.48455e+06 1.95709e+06 0 -2.33107e+06 2.11466e+06 0 -1.90269e+06 0 0 -1.90385e+06 34807.7 0 -1.90727e+06 69724.9 0 -1.91295e+06 104849 0 -1.92089e+06 140282 0 -1.93109e+06 176125 0 -1.94357e+06 212490 0 -1.95832e+06 249491 0 -1.97535e+06 287252 0 -1.99467e+06 325907 0 -2.01628e+06 365605 0 -2.04018e+06 406509 0 -2.06636e+06 448803 0 -2.09481e+06 492696 0 -2.12552e+06 538431 0 -2.15844e+06 586289 0 -2.19352e+06 636606 0 -2.23067e+06 689789 0 -2.26977e+06 746331 0 -2.31061e+06 806853 0 -2.35288e+06 872138 0 -2.39609e+06 943191 0 -2.43949e+06 1.02133e+06 0 -2.48182e+06 1.10826e+06 0 -2.52108e+06 1.20619e+06 0 -2.55397e+06 1.31799e+06 0 -2.57493e+06 1.44717e+06 0 -2.57426e+06 1.59691e+06 0 -2.5368e+06 1.76533e+06 0 -2.44451e+06 1.93752e+06 0 -2.28493e+06 2.07316e+06 0 -2.06854e+06 2.1399e+06 0 -1.8962e+06 0 0 -1.89743e+06 36486.6 0 -1.90107e+06 73094.6 0 -1.90711e+06 109933 0 -1.91556e+06 147115 0 -1.92642e+06 184755 0 -1.93969e+06 222977 0 -1.95539e+06 261911 0 -1.9735e+06 301696 0 -1.99404e+06 342486 0 -2.01701e+06 384449 0 -2.04239e+06 427773 0 -2.07018e+06 472671 0 -2.10035e+06 519388 0 -2.13287e+06 568207 0 -2.16767e+06 619465 0 -2.20466e+06 673566 0 -2.2437e+06 730999 0 -2.28459e+06 792376 0 -2.32698e+06 858464 0 -2.37038e+06 930243 0 -2.41398e+06 1.00898e+06 0 -2.45649e+06 1.09632e+06 0 -2.49581e+06 1.19436e+06 0 -2.52855e+06 1.30572e+06 0 -2.54899e+06 1.43348e+06 0 -2.54739e+06 1.58e+06 0 -2.50875e+06 1.74268e+06 0 -2.41564e+06 1.90578e+06 0 -2.25787e+06 2.03451e+06 0 -2.04495e+06 2.08243e+06 0 -1.81181e+06 2.03482e+06 0 -1.88962e+06 0 0 -1.89094e+06 38191.8 0 -1.8948e+06 76517.8 0 -1.90121e+06 115099 0 -1.91018e+06 154061 0 -1.92171e+06 193533 0 -1.93579e+06 233651 0 -1.95245e+06 274563 0 -1.97166e+06 316425 0 -1.99344e+06 359410 0 -2.01778e+06 403710 0 -2.04466e+06 449541 0 -2.07407e+06 497147 0 -2.10595e+06 546812 0 -2.14026e+06 598869 0 -2.17689e+06 653716 0 -2.2157e+06 711834 0 -2.25648e+06 773816 0 -2.29889e+06 840403 0 -2.34242e+06 912536 0 -2.38625e+06 991422 0 -2.4291e+06 1.07861e+06 0 -2.46887e+06 1.17605e+06 0 -2.50217e+06 1.28615e+06 0 -2.52338e+06 1.41154e+06 0 -2.52303e+06 1.55409e+06 0 -2.48662e+06 1.711e+06 0 -2.39735e+06 1.86752e+06 0 -2.24563e+06 1.99137e+06 0 -2.04124e+06 2.04045e+06 0 -1.8169e+06 1.98963e+06 0 -1.61319e+06 1.85213e+06 0 -1.88297e+06 0 0 -1.88436e+06 39923 0 -1.88846e+06 79993.7 0 -1.89525e+06 120346 0 -1.90475e+06 161120 0 -1.91695e+06 202457 0 -1.93187e+06 244512 0 -1.94949e+06 287446 0 -1.96983e+06 331437 0 -1.99286e+06 376680 0 -2.01859e+06 423390 0 -2.04698e+06 471815 0 -2.078e+06 522234 0 -2.11158e+06 574977 0 -2.14764e+06 630431 0 -2.18603e+06 689063 0 -2.22654e+06 751443 0 -2.26883e+06 818280 0 -2.31241e+06 890467 0 -2.35648e+06 969135 0 -2.3998e+06 1.05573e+06 0 -2.44034e+06 1.15205e+06 0 -2.47481e+06 1.26027e+06 0 -2.49787e+06 1.38272e+06 0 -2.50059e+06 1.5209e+06 0 -2.46926e+06 1.67232e+06 0 -2.38759e+06 1.82396e+06 0 -2.24568e+06 1.94671e+06 0 -2.05197e+06 2.00103e+06 0 -1.83689e+06 1.95965e+06 0 -1.64004e+06 1.8305e+06 0 -1.48676e+06 1.63979e+06 0 -1.87625e+06 0 0 -1.87772e+06 41679.7 0 -1.88204e+06 83521.6 0 -1.88922e+06 125674 0 -1.89926e+06 168289 0 -1.91215e+06 211527 0 -1.92791e+06 255556 0 -1.94652e+06 300559 0 -1.96799e+06 346732 0 -1.99229e+06 394294 0 -2.01941e+06 443490 0 -2.04931e+06 494597 0 -2.08194e+06 547938 0 -2.11719e+06 603890 0 -2.15495e+06 662902 0 -2.195e+06 725520 0 -2.23702e+06 792414 0 -2.28054e+06 864421 0 -2.32481e+06 942597 0 -2.36866e+06 1.02827e+06 0 -2.41016e+06 1.1231e+06 0 -2.44627e+06 1.22904e+06 0 -2.47199e+06 1.34818e+06 0 -2.47916e+06 1.48185e+06 0 -2.45506e+06 1.62808e+06 0 -2.38394e+06 1.77602e+06 0 -2.25492e+06 1.90009e+06 0 -2.07392e+06 1.96328e+06 0 -1.86825e+06 1.93598e+06 0 -1.67604e+06 1.81876e+06 0 -1.52567e+06 1.63628e+06 0 -1.4219e+06 1.40263e+06 0 -1.86945e+06 0 0 -1.871e+06 43461.7 0 -1.87556e+06 87100.8 0 -1.88313e+06 131080 0 -1.89372e+06 175568 0 -1.90731e+06 220741 0 -1.92392e+06 266784 0 -1.94353e+06 313900 0 -1.96614e+06 362308 0 -1.99172e+06 412252 0 -2.02024e+06 464008 0 -2.05165e+06 517889 0 -2.08586e+06 574261 0 -2.12275e+06 633556 0 -2.16213e+06 696292 0 -2.20369e+06 763100 0 -2.24701e+06 834760 0 -2.29138e+06 912248 0 -2.33572e+06 996782 0 -2.37829e+06 1.08987e+06 0 -2.41629e+06 1.19329e+06 0 -2.44521e+06 1.30893e+06 0 -2.4577e+06 1.43805e+06 0 -2.44225e+06 1.57934e+06 0 -2.3838e+06 1.7242e+06 0 -2.27023e+06 1.85092e+06 0 -2.10403e+06 1.9254e+06 0 -1.90856e+06 1.916e+06 0 -1.72005e+06 1.81505e+06 0 -1.57008e+06 1.64132e+06 0 -1.46775e+06 1.41032e+06 0 -1.40176e+06 1.13911e+06 0 -1.86257e+06 0 0 -1.86421e+06 45268.5 0 -1.86901e+06 90730.6 0 -1.87698e+06 136565 0 -1.88812e+06 182956 0 -1.90242e+06 230096 0 -1.91989e+06 278193 0 -1.94052e+06 327467 0 -1.96428e+06 378163 0 -1.99114e+06 430553 0 -2.02106e+06 484944 0 -2.05397e+06 541690 0 -2.08974e+06 601205 0 -2.12821e+06 663978 0 -2.1691e+06 730603 0 -2.21201e+06 801804 0 -2.25632e+06 878478 0 -2.30105e+06 961737 0 -2.34465e+06 1.05295e+06 0 -2.38463e+06 1.15373e+06 0 -2.41696e+06 1.26581e+06 0 -2.43519e+06 1.39046e+06 0 -2.42912e+06 1.52695e+06 0 -2.38465e+06 1.66888e+06 0 -2.28858e+06 1.79859e+06 0 -2.13939e+06 1.88541e+06 0 -1.95563e+06 1.89651e+06 0 -1.77106e+06 1.81596e+06 0 -1.61951e+06 1.6542e+06 0 -1.51655e+06 1.43187e+06 0 -1.44858e+06 1.16598e+06 0 -1.40405e+06 907842 0 -1.85562e+06 0 0 -1.85734e+06 47099.8 0 -1.86238e+06 94410.2 0 -1.87076e+06 142126 0 -1.88246e+06 190450 0 -1.89749e+06 239593 0 -1.91583e+06 289781 0 -1.93748e+06 341258 0 -1.96239e+06 394296 0 -1.99055e+06 449195 0 -2.02187e+06 506297 0 -2.05625e+06 566000 0 -2.09354e+06 628768 0 -2.13351e+06 695156 0 -2.17579e+06 765835 0 -2.21983e+06 841628 0 -2.26477e+06 923549 0 -2.30924e+06 1.01283e+06 0 -2.35109e+06 1.11095e+06 0 -2.3868e+06 1.21948e+06 0 -2.41079e+06 1.33971e+06 0 -2.4142e+06 1.47147e+06 0 -2.38421e+06 1.61029e+06 0 -2.30701e+06 1.74251e+06 0 -2.17708e+06 1.84162e+06 0 -2.00723e+06 1.87457e+06 0 -1.82789e+06 1.81895e+06 0 -1.67372e+06 1.67555e+06 0 -1.56686e+06 1.46798e+06 0 -1.49818e+06 1.21773e+06 0 -1.45187e+06 933849 0 -1.46678e+06 549128 0 -1.8486e+06 0 0 -1.8504e+06 48955.2 0 -1.85569e+06 98139.1 0 -1.86448e+06 147764 0 -1.87675e+06 198050 0 -1.89251e+06 249228 0 -1.91173e+06 301546 0 -1.9344e+06 355273 0 -1.96048e+06 410705 0 -1.98992e+06 468176 0 -2.02263e+06 528066 0 -2.05847e+06 590816 0 -2.09723e+06 656947 0 -2.13861e+06 727081 0 -2.18211e+06 801972 0 -2.227e+06 882541 0 -2.27211e+06 969906 0 -2.31557e+06 1.06539e+06 0 -2.35441e+06 1.17047e+06 0 -2.38384e+06 1.28645e+06 0 -2.39633e+06 1.41363e+06 0 -2.38057e+06 1.54922e+06 0 -2.32283e+06 1.68307e+06 0 -2.21414e+06 1.79319e+06 0 -2.06103e+06 1.84799e+06 0 -1.88904e+06 1.82014e+06 0 -1.73275e+06 1.70211e+06 0 -1.61907e+06 1.51066e+06 0 -1.54949e+06 1.27189e+06 0 -1.50481e+06 963683 0 -1.52829e+06 543120 0 -1.69432e+06 -111253 0 -1.84151e+06 0 0 -1.84339e+06 50834.5 0 -1.84893e+06 101916 0 -1.85813e+06 153477 0 -1.87098e+06 205754 0 -1.88747e+06 259002 0 -1.90758e+06 313488 0 -1.93129e+06 369508 0 -1.95854e+06 427388 0 -1.98926e+06 487495 0 -2.02334e+06 550248 0 -2.0606e+06 616138 0 -2.10077e+06 685743 0 -2.14344e+06 759757 0 -2.18797e+06 839016 0 -2.23338e+06 924536 0 -2.2781e+06 1.01752e+06 0 -2.31963e+06 1.11932e+06 0 -2.35396e+06 1.23123e+06 0 -2.37476e+06 1.35386e+06 0 -2.37234e+06 1.48555e+06 0 -2.33378e+06 1.61915e+06 0 -2.2477e+06 1.73753e+06 0 -2.11431e+06 1.81273e+06 0 -1.95282e+06 1.81497e+06 0 -1.796e+06 1.72823e+06 0 -1.67474e+06 1.55939e+06 0 -1.60028e+06 1.32934e+06 0 -1.55909e+06 1.03467e+06 0 -1.57169e+06 640866 0 -1.7268e+06 237838 0 -1.90818e+06 60627.5 0 </DataArray> 
</PointData> 
<Points> 
<DataArray type="Float32" NumberOfComponents="3"> 