<?xml version="1.0"?> 
<VTKFile type="StructuredGrid" version="0.1"> 
<StructuredGrid WholeExtent="0 31 0 31 0 0"> 
<Piece Extent="0 31 0 31 0 0"> 
<PointData>
<DataArray type="Float32" Name="|E|" format="ascii" NumberOfComponents="3"> 
1.22206e+06 -124700 0 1.4197e+06 -111992 0 1.56416e+06 -106090 0 1.66939e+06 -67193.2 0 1.72535e+06 -31556.3 0 1.74097e+06 635.844 0 1.72218e+06 25849.4 0 1.67807e+06 44362 0 1.61613e+06 56783.5 0 1.54302e+06 64258.4 0 1.46376e+06 67953.8 0 1.38214e+06 68885.5 0 1.30084e+06 67878.6 0 1.2217e+06 65555.2 0 1.14594e+06 62375.1 0 1.07434e+06 58665.8 0 1.00736e+06 54658 0 945230 50510 0 888046 46328.8 0 835794 42184.1 0 788396 38119.6 0 745738 34160.3 0 707687 30318.2 0 674100 26596 0 644836 22989.8 0 619760 19491.4 0 598752 16089.2 0 581705 12769.6 0 568530 9517.34 0 559154 6316.31 0 553528 3149.61 0 551618 0 0 1.22451e+06 -124950 0 1.41903e+06 -117203 0 1.56579e+06 -109256 0 1.67047e+06 -69296.3 0 1.72644e+06 -32404.3 0 1.74172e+06 772.275 0 1.72271e+06 26772.3 0 1.67837e+06 45846.3 0 1.61626e+06 58637.9 0 1.54301e+06 66330.6 0 1.46367e+06 70127.8 0 1.38199e+06 71078.3 0 1.30066e+06 70031.9 0 1.2215e+06 67630 0 1.14573e+06 64346 0 1.07413e+06 60517.4 0 1.00716e+06 56381.7 0 945043 52102 0 887870 47788.4 0 835629 43512.7 0 788243 39320 0 745597 35235.9 0 707556 31272.7 0 673978 27433.2 0 644722 23713.5 0 619654 20104.9 0 598652 16595.6 0 581611 13171.5 0 568439 9816.89 0 559066 6515.1 0 553442 3248.73 0 551533 0 0 1.22653e+06 -125156 0 1.41848e+06 -122420 0 1.56741e+06 -112440 0 1.67159e+06 -71388.8 0 1.72755e+06 -33244.8 0 1.7425e+06 918.195 0 1.72326e+06 27703.2 0 1.67868e+06 47337 0 1.6164e+06 60497.1 0 1.54302e+06 68406.2 0 1.46358e+06 72304 0 1.38184e+06 73272.5 0 1.30047e+06 72186 0 1.22129e+06 69705.1 0 1.14552e+06 66316.9 0 1.07393e+06 62368.9 0 1.00696e+06 58105.2 0 944852 53693.7 0 887691 49247.6 0 835461 44841 0 788086 40520 0 745452 36311.1 0 707422 32226.9 0 673853 28270.2 0 644606 24436.9 0 619545 20718.2 0 598550 17101.9 0 581513 13573.3 0 568346 10116.3 0 558976 6713.82 0 553353 3347.82 0 551445 0 0 1.22812e+06 -125318 0 1.41806e+06 -127651 0 1.56904e+06 -115638 0 1.67276e+06 -73471.4 0 1.72869e+06 -34077.4 0 1.7433e+06 1073.72 0 1.72382e+06 28642.3 0 1.679e+06 48834.3 0 1.61654e+06 62361.4 0 1.54302e+06 70485.3 0 1.46349e+06 74482.6 0 1.38169e+06 75468.1 0 1.30029e+06 74340.8 0 1.22109e+06 71780.6 0 1.14531e+06 68287.9 0 1.07372e+06 64220.2 0 1.00676e+06 59828.3 0 944658 55285 0 887507 50706.6 0 835290 46169 0 787927 41719.7 0 745303 37386 0 707284 33180.8 0 673725 29106.9 0 644487 25160.1 0 619434 21331.4 0 598445 17608 0 581413 13975 0 568250 10415.7 0 558883 6912.49 0 553261 3446.88 0 551354 0 0 1.22928e+06 -125437 0 1.41776e+06 -132902 0 1.57067e+06 -118850 0 1.67397e+06 -75544.6 0 1.72986e+06 -34901.7 0 1.74413e+06 1238.95 0 1.7244e+06 29589.8 0 1.67933e+06 50338.3 0 1.61669e+06 64230.7 0 1.54303e+06 72567.9 0 1.4634e+06 76663.5 0 1.38155e+06 77665.2 0 1.3001e+06 76496.5 0 1.22088e+06 73856.4 0 1.1451e+06 70259 0 1.0735e+06 66071.4 0 1.00655e+06 61551.3 0 944460 56876.1 0 887321 52165.2 0 835115 47496.6 0 787764 42919.1 0 745152 38460.7 0 707143 34134.4 0 673594 29943.4 0 644364 25883.2 0 619319 21944.3 0 598336 18113.9 0 581310 14376.5 0 568151 10715 0 558787 7111.09 0 553167 3545.91 0 551260 0 0 1.23003e+06 -125513 0 1.41758e+06 -138181 0 1.57232e+06 -122073 0 1.67523e+06 -77608.9 0 1.73105e+06 -35717.4 0 1.74498e+06 1414.01 0 1.725e+06 30545.7 0 1.67968e+06 51849.2 0 1.61684e+06 66105.1 0 1.54304e+06 74654.1 0 1.46332e+06 78846.9 0 1.38139e+06 79863.7 0 1.29991e+06 78653 0 1.22067e+06 75932.6 0 1.14488e+06 72230.1 0 1.07329e+06 67922.4 0 1.00634e+06 63274 0 944258 58466.8 0 887130 53623.4 0 834936 48823.9 0 787597 44118.2 0 744997 39535 0 706999 35087.8 0 673460 30779.6 0 644239 26606 0 619201 22557.1 0 598225 18619.7 0 581205 14777.9 0 568049 11014.1 0 558688 7309.63 0 553071 3644.9 0 551164 0 0 1.23035e+06 -125546 0 1.41752e+06 -143494 0 1.57398e+06 -125305 0 1.67653e+06 -79664.8 0 1.73226e+06 -36524.1 0 1.74586e+06 1599 0 1.72561e+06 31510.4 0 1.68003e+06 53367 0 1.61701e+06 67984.9 0 1.54306e+06 76743.9 0 1.46323e+06 81032.7 0 1.38124e+06 82063.8 0 1.29972e+06 80810.4 0 1.22046e+06 78009.2 0 1.14466e+06 74201.4 0 1.07307e+06 69773.4 0 1.00612e+06 64996.5 0 944053 60057.3 0 886936 55081.4 0 834754 50150.8 0 787428 45316.9 0 744839 40609 0 706852 36040.9 0 673323 31615.6 0 644111 27328.5 0 619081 23169.7 0 598111 19125.3 0 581096 15179.2 0 567945 11313.2 0 558587 7508.11 0 552971 3743.87 0 551066 0 0 1.23025e+06 -125536 0 1.41757e+06 -148850 0 1.57566e+06 -128544 0 1.67787e+06 -81712.8 0 1.7335e+06 -37321.5 0 1.74676e+06 1794.03 0 1.72624e+06 32483.8 0 1.6804e+06 54892 0 1.61718e+06 69870 0 1.54308e+06 78837.6 0 1.46315e+06 83221.1 0 1.38109e+06 84265.4 0 1.29953e+06 82968.6 0 1.22025e+06 80086.2 0 1.14444e+06 76172.7 0 1.07284e+06 71624.2 0 1.00591e+06 66718.8 0 943845 61647.4 0 886739 56538.9 0 834569 51477.4 0 787254 46515.3 0 744677 41682.7 0 706701 36993.6 0 673183 32451.3 0 643979 28050.8 0 618957 23782 0 597995 19630.8 0 580985 15580.4 0 567838 11612.2 0 558483 7706.52 0 552869 3842.8 0 550964 0 0 1.22973e+06 -125483 0 1.41773e+06 -154253 0 1.57735e+06 -131787 0 1.67925e+06 -83753.6 0 1.73477e+06 -38109.2 0 1.74768e+06 1999.21 0 1.72689e+06 33466.3 0 1.68079e+06 56424.2 0 1.61736e+06 71760.7 0 1.54311e+06 80935 0 1.46307e+06 85412 0 1.38094e+06 86468.6 0 1.29933e+06 85127.8 0 1.22003e+06 82163.6 0 1.14421e+06 78144.1 0 1.07262e+06 73475 0 1.00568e+06 68440.8 0 943633 63237.3 0 886538 57996.2 0 834380 52803.7 0 787078 47713.4 0 744513 42756 0 706548 37946.1 0 673039 33286.7 0 643845 28772.9 0 618831 24394.2 0 597875 20136.1 0 580871 15981.4 0 567728 11911.1 0 558377 7904.86 0 552765 3941.7 0 550860 0 0 1.22879e+06 -125387 0 1.41801e+06 -159713 0 1.57906e+06 -135033 0 1.68068e+06 -85787.5 0 1.73607e+06 -38886.8 0 1.74863e+06 2214.63 0 1.72755e+06 34458 0 1.68118e+06 57963.8 0 1.61754e+06 73656.9 0 1.54313e+06 83036.4 0 1.46299e+06 87605.6 0 1.38079e+06 88673.5 0 1.29914e+06 87287.9 0 1.21981e+06 84241.5 0 1.14398e+06 80115.6 0 1.07239e+06 75325.6 0 1.00546e+06 70162.6 0 943417 64826.8 0 886334 59453.1 0 834188 54129.6 0 786898 48911.1 0 744345 43829 0 706391 38898.3 0 672893 34121.9 0 643708 29494.8 0 618702 25006.2 0 597753 20641.2 0 580754 16382.3 0 567616 12209.8 0 558268 8103.14 0 552657 4040.57 0 550753 0 0 1.22742e+06 -125247 0 1.4184e+06 -165236 0 1.58079e+06 -138279 0 1.68214e+06 -87815.1 0 1.73739e+06 -39654 0 1.74961e+06 2440.39 0 1.72824e+06 35459.1 0 1.68158e+06 59510.8 0 1.61773e+06 75558.8 0 1.54316e+06 85141.8 0 1.46291e+06 89801.8 0 1.38064e+06 90880 0 1.29894e+06 89449 0 1.21959e+06 86319.8 0 1.14375e+06 82087.3 0 1.07215e+06 77176.2 0 1.00523e+06 71884.1 0 943198 66416 0 886126 60909.7 0 833992 55455.1 0 786714 50108.4 0 744173 44901.8 0 706231 39850.1 0 672743 34956.8 0 643567 30216.4 0 618570 25618 0 597628 21146.2 0 580635 16783 0 567501 12508.5 0 558156 8301.36 0 552547 4139.4 0 550644 0 0 1.22561e+06 -125062 0 1.41892e+06 -170830 0 1.58254e+06 -141522 0 1.68365e+06 -89837.2 0 1.73874e+06 -40410.2 0 1.75061e+06 2676.59 0 1.72893e+06 36469.7 0 1.682e+06 61065.5 0 1.61793e+06 77466.4 0 1.5432e+06 87251.3 0 1.46283e+06 92000.8 0 1.38048e+06 93088.3 0 1.29874e+06 91611 0 1.21936e+06 88398.6 0 1.14351e+06 84059.1 0 1.07192e+06 79026.6 0 1.005e+06 73605.5 0 942975 68004.9 0 885914 62365.9 0 833793 56780.3 0 786528 51305.5 0 743999 45974.1 0 706068 40801.7 0 672590 35791.4 0 643424 30937.8 0 618435 26229.5 0 597500 21651 0 580512 17183.6 0 567383 12807.1 0 558041 8499.5 0 552434 4238.2 0 550532 0 0 1.22336e+06 -124832 0 1.41955e+06 -176503 0 1.58431e+06 -144761 0 1.6852e+06 -91854.2 0 1.74012e+06 -41155.2 0 1.75163e+06 2923.32 0 1.72965e+06 37490 0 1.68243e+06 62628 0 1.61814e+06 79380 0 1.54324e+06 89364.9 0 1.46275e+06 94202.6 0 1.38033e+06 95298.3 0 1.29854e+06 93774.1 0 1.21913e+06 90477.9 0 1.14327e+06 86031.1 0 1.07167e+06 80877 0 1.00476e+06 75326.6 0 942749 69593.6 0 885699 63821.8 0 833590 58105.1 0 786337 52502.1 0 743821 47046.2 0 705901 41753 0 672435 36625.8 0 643278 31659 0 618297 26840.9 0 597369 22155.6 0 580387 17584.1 0 567263 13105.6 0 557924 8697.57 0 552319 4336.96 0 550417 0 0 1.22065e+06 -124556 0 1.42032e+06 -182262 0 1.5861e+06 -147992 0 1.68679e+06 -93866.9 0 1.74152e+06 -41888.4 0 1.75267e+06 3180.66 0 1.73038e+06 38520.2 0 1.68286e+06 64198.4 0 1.61835e+06 81299.5 0 1.54328e+06 91482.7 0 1.46268e+06 96407.2 0 1.38017e+06 97510 0 1.29833e+06 95938.2 0 1.2189e+06 92557.7 0 1.14303e+06 88003.2 0 1.07143e+06 82727.3 0 1.00452e+06 77047.5 0 942519 71181.9 0 885480 65277.3 0 833384 59429.6 0 786144 53698.4 0 743639 48117.9 0 705732 42703.9 0 672276 37459.8 0 643129 32379.8 0 618156 27452 0 597235 22660 0 580259 17984.5 0 567139 13403.9 0 557804 8895.58 0 552201 4435.69 0 550300 0 0 1.21748e+06 -124232 0 1.42122e+06 -188117 0 1.5879e+06 -151212 0 1.68843e+06 -95876 0 1.74295e+06 -42609.4 0 1.75374e+06 3448.7 0 1.73112e+06 39560.5 0 1.68331e+06 65776.8 0 1.61857e+06 83225.2 0 1.54332e+06 93604.8 0 1.4626e+06 98614.7 0 1.38002e+06 99723.6 0 1.29813e+06 98103.3 0 1.21867e+06 94638 0 1.14278e+06 89975.4 0 1.07118e+06 84577.5 0 1.00428e+06 78768.2 0 942285 72769.9 0 885258 66732.5 0 833174 60753.7 0 785947 54894.4 0 743455 49189.3 0 705559 43654.6 0 672114 38293.6 0 642976 33100.5 0 618012 28063 0 597098 23164.3 0 580129 18384.7 0 567013 13702.2 0 557681 9093.51 0 552080 4534.39 0 550180 0 0 1.21383e+06 -123860 0 1.42227e+06 -194074 0 1.58972e+06 -154419 0 1.69011e+06 -97882.3 0 1.74441e+06 -43317.7 0 1.75484e+06 3727.49 0 1.73189e+06 40611 0 1.68377e+06 67363.4 0 1.61879e+06 85157 0 1.54337e+06 95731.3 0 1.46253e+06 100825 0 1.37986e+06 101939 0 1.29792e+06 100270 0 1.21843e+06 96718.9 0 1.14254e+06 91947.9 0 1.07093e+06 86427.7 0 1.00404e+06 80488.6 0 942048 74357.6 0 885033 68187.3 0 832961 62077.5 0 785747 56090 0 743267 50260.3 0 705383 44604.9 0 671949 39127.1 0 642821 33820.9 0 617865 28673.7 0 596959 23668.4 0 579995 18784.7 0 566885 14000.3 0 557556 9291.38 0 551957 4633.05 0 550057 0 0 1.20968e+06 -123437 0 1.42347e+06 -200142 0 1.59156e+06 -157610 0 1.69183e+06 -99886.5 0 1.74589e+06 -44012.8 0 1.75595e+06 4017.12 0 1.73267e+06 41672.1 0 1.68425e+06 68958.2 0 1.61903e+06 87095.1 0 1.54342e+06 97862.3 0 1.46245e+06 103039 0 1.3797e+06 104156 0 1.29771e+06 102437 0 1.21819e+06 98800.3 0 1.14228e+06 93920.5 0 1.07068e+06 88277.8 0 1.00379e+06 82208.9 0 941807 75945 0 884803 69641.8 0 832744 63400.8 0 785543 57285.2 0 743076 51331 0 705204 45554.9 0 671780 39960.3 0 642663 34541 0 617716 29284.2 0 596817 24172.3 0 579859 19184.6 0 566753 14298.4 0 557428 9489.17 0 551831 4731.67 0 549932 0 0 1.20502e+06 -122962 0 1.42483e+06 -206331 0 1.5934e+06 -160780 0 1.6936e+06 -101890 0 1.7474e+06 -44694 0 1.7571e+06 4317.62 0 1.73346e+06 42743.8 0 1.68473e+06 70561.4 0 1.61926e+06 89039.6 0 1.54348e+06 99997.8 0 1.46238e+06 105255 0 1.37954e+06 106376 0 1.2975e+06 104605 0 1.21795e+06 100882 0 1.14203e+06 95893.3 0 1.07042e+06 90127.8 0 1.00353e+06 83928.9 0 941563 77532.1 0 884570 71095.9 0 832524 64723.9 0 785336 58480.1 0 742882 52401.3 0 705021 46504.6 0 671609 40793.3 0 642501 35260.9 0 617563 29894.5 0 596672 24676 0 579720 19584.4 0 566619 14596.3 0 557297 9686.89 0 551702 4830.26 0 549804 0 0 1.19984e+06 -122433 0 1.42636e+06 -212650 0 1.59525e+06 -163927 0 1.69542e+06 -103893 0 1.74894e+06 -45360.9 0 1.75826e+06 4629.04 0 1.73428e+06 43826.3 0 1.68522e+06 72173.2 0 1.61951e+06 90990.5 0 1.54354e+06 102138 0 1.46231e+06 107475 0 1.37938e+06 108597 0 1.29728e+06 106775 0 1.21771e+06 102965 0 1.14177e+06 97866.3 0 1.07016e+06 91977.8 0 1.00328e+06 85648.7 0 941315 79118.9 0 884334 72549.7 0 832301 66046.5 0 785125 59674.6 0 742684 53471.3 0 704836 47454 0 671435 41625.9 0 642337 35980.6 0 617408 30504.5 0 596524 25179.5 0 579579 19984 0 566482 14894.1 0 557163 9884.54 0 551571 4928.81 0 549673 0 0 1.1941e+06 -121847 0 1.42808e+06 -219108 0 1.59711e+06 -167047 0 1.69729e+06 -105897 0 1.7505e+06 -46012.8 0 1.75945e+06 4951.42 0 1.7351e+06 44919.9 0 1.68573e+06 73793.6 0 1.61976e+06 92948 0 1.5436e+06 104283 0 1.46223e+06 109697 0 1.37922e+06 110820 0 1.29707e+06 108946 0 1.21746e+06 105048 0 1.14151e+06 99839.5 0 1.0699e+06 93827.7 0 1.00302e+06 87368.3 0 941064 80705.4 0 884094 74003.2 0 832073 67368.8 0 784911 60868.8 0 742483 54541 0 704647 48403 0 671258 42458.3 0 642170 36699.9 0 617249 31114.4 0 596373 25682.9 0 579434 20383.5 0 566343 15191.9 0 557027 10082.1 0 551437 5027.32 0 549540 0 0 1.18779e+06 -121203 0 1.43001e+06 -225714 0 1.59896e+06 -170135 0 1.69921e+06 -107903 0 1.75208e+06 -46649 0 1.76067e+06 5284.79 0 1.73595e+06 46024.8 0 1.68625e+06 75422.9 0 1.62002e+06 94912.2 0 1.54366e+06 106432 0 1.46216e+06 111923 0 1.37906e+06 113046 0 1.29685e+06 111118 0 1.21721e+06 107132 0 1.14124e+06 101813 0 1.06963e+06 95677.6 0 1.00275e+06 89087.7 0 940809 82291.5 0 883851 75456.2 0 831843 68690.7 0 784694 62062.5 0 742279 55610.3 0 704455 49351.8 0 671077 43290.3 0 642000 37419 0 617088 31724 0 596220 26186 0 579287 20782.8 0 566200 15489.5 0 556889 10279.6 0 551300 5125.8 0 549404 0 0 1.18088e+06 -120498 0 1.43215e+06 -232480 0 1.60081e+06 -173187 0 1.70119e+06 -109913 0 1.75368e+06 -47268.8 0 1.76191e+06 5629.14 0 1.73681e+06 47141.1 0 1.68677e+06 77061 0 1.62028e+06 96883.2 0 1.54373e+06 108587 0 1.46209e+06 114153 0 1.3789e+06 115273 0 1.29663e+06 113291 0 1.21696e+06 109216 0 1.14098e+06 103787 0 1.06936e+06 97527.5 0 1.00249e+06 90806.9 0 940550 83877.4 0 883604 76908.9 0 831609 70012.2 0 784473 63255.9 0 742071 56679.2 0 704260 50300.1 0 670893 44122.1 0 641827 38137.9 0 616924 32333.3 0 596063 26689 0 579137 21182 0 566055 15787 0 556747 10477 0 551161 5224.24 0 549266 0 0 1.17334e+06 -119728 0 1.43453e+06 -239414 0 1.60265e+06 -176198 0 1.70323e+06 -111927 0 1.75531e+06 -47871.4 0 1.76318e+06 5984.47 0 1.73768e+06 48269 0 1.68731e+06 78708.2 0 1.62055e+06 98861 0 1.5438e+06 110746 0 1.46202e+06 116385 0 1.37874e+06 117503 0 1.29641e+06 115465 0 1.21671e+06 111301 0 1.14071e+06 105760 0 1.06908e+06 99377.3 0 1.00221e+06 92525.8 0 940288 85463 0 883353 78361.3 0 831371 71333.3 0 784249 64448.9 0 741860 57747.8 0 704062 51248.2 0 670707 44953.5 0 641650 38856.5 0 616757 32942.5 0 595904 27191.8 0 578984 21581 0 565908 16084.3 0 556603 10674.4 0 551019 5322.64 0 549124 0 0 1.16514e+06 -118892 0 1.43716e+06 -246529 0 1.60446e+06 -179164 0 1.70532e+06 -113948 0 1.75696e+06 -48456.1 0 1.76448e+06 6350.76 0 1.73857e+06 49408.9 0 1.68786e+06 80364.6 0 1.62083e+06 100846 0 1.54388e+06 112910 0 1.46195e+06 118621 0 1.37857e+06 119734 0 1.29619e+06 117641 0 1.21645e+06 113387 0 1.14043e+06 107735 0 1.0688e+06 101227 0 1.00194e+06 94244.6 0 940022 87048.2 0 883099 79813.3 0 831130 72654.1 0 784021 65641.6 0 741646 58816 0 703860 52195.9 0 670517 45784.6 0 641471 39574.8 0 616587 33551.4 0 595742 27694.4 0 578829 21979.8 0 565757 16381.6 0 556456 10871.6 0 550875 5421 0 548980 0 0 1.15625e+06 -117984 0 1.44007e+06 -253836 0 1.60625e+06 -182079 0 1.70748e+06 -115977 0 1.75862e+06 -49021.8 0 1.7658e+06 6727.97 0 1.73947e+06 50560.8 0 1.68842e+06 82030.3 0 1.62111e+06 102838 0 1.54395e+06 115080 0 1.46189e+06 120860 0 1.37841e+06 121968 0 1.29596e+06 119818 0 1.21619e+06 115473 0 1.14015e+06 109709 0 1.06852e+06 103077 0 1.00166e+06 95963.2 0 939753 88633.2 0 882841 81264.9 0 830885 73974.5 0 783791 66833.8 0 741428 59883.8 0 703656 53143.3 0 670324 46615.5 0 641289 40292.8 0 616414 34160.1 0 595577 28196.8 0 578670 22378.5 0 565604 16678.7 0 556307 11068.8 0 550727 5519.32 0 548834 0 0 1.14662e+06 -117002 0 1.44329e+06 -261346 0 1.608e+06 -184938 0 1.70972e+06 -118017 0 1.7603e+06 -49567.8 0 1.76715e+06 7116.05 0 1.74039e+06 51725.1 0 1.689e+06 83705.5 0 1.6214e+06 104837 0 1.54403e+06 117254 0 1.46182e+06 123102 0 1.37824e+06 124204 0 1.29573e+06 121996 0 1.21592e+06 117560 0 1.13987e+06 111684 0 1.06824e+06 104927 0 1.00138e+06 97681.5 0 939480 90217.8 0 882580 82716.2 0 830637 75294.5 0 783556 68025.7 0 741208 60951.3 0 703448 54090.3 0 670128 47446 0 641104 41010.6 0 616239 34768.5 0 595410 28698.9 0 578509 22777.1 0 565448 16975.7 0 556155 11265.9 0 550577 5617.61 0 548685 0 0 1.13623e+06 -115942 0 1.44684e+06 -269072 0 1.6097e+06 -187733 0 1.71202e+06 -120068 0 1.76199e+06 -50092.9 0 1.76853e+06 7514.92 0 1.74132e+06 52901.9 0 1.68958e+06 85390.2 0 1.62169e+06 106843 0 1.54411e+06 119434 0 1.46175e+06 125348 0 1.37807e+06 126443 0 1.2955e+06 124176 0 1.21566e+06 119648 0 1.13959e+06 113658 0 1.06795e+06 106776 0 1.00109e+06 99399.7 0 939203 91802.2 0 882315 84167.1 0 830386 76614.1 0 783318 69217.2 0 740984 62018.4 0 703237 55037 0 669929 48276.2 0 640916 41728.1 0 616060 35376.8 0 595239 29200.9 0 578346 23175.5 0 565290 17272.6 0 556000 11463 0 550425 5715.85 0 548533 0 0 1.12503e+06 -114799 0 1.45074e+06 -277026 0 1.61134e+06 -190459 0 1.71441e+06 -122133 0 1.7637e+06 -50596.1 0 1.76994e+06 7924.47 0 1.74227e+06 54091.5 0 1.69018e+06 87084.7 0 1.62199e+06 108856 0 1.5442e+06 121619 0 1.46168e+06 127598 0 1.3779e+06 128683 0 1.29527e+06 126357 0 1.21539e+06 121737 0 1.1393e+06 115634 0 1.06766e+06 108626 0 1.00081e+06 101118 0 938923 93386.2 0 882046 85617.6 0 830131 77933.3 0 783077 70408.3 0 740756 63085.1 0 703023 55983.3 0 669727 49106.1 0 640724 42445.3 0 615878 35984.7 0 595066 29702.7 0 578179 23573.7 0 565128 17569.4 0 555842 11659.9 0 550270 5814.05 0 548379 0 0 1.11296e+06 -113568 0 1.45504e+06 -285223 0 1.6129e+06 -193109 0 1.71689e+06 -124216 0 1.76541e+06 -51076.1 0 1.77139e+06 8344.6 0 1.74322e+06 55294.1 0 1.69078e+06 88789.1 0 1.62229e+06 110877 0 1.54429e+06 123810 0 1.46162e+06 129851 0 1.37773e+06 130926 0 1.29503e+06 128539 0 1.21512e+06 123826 0 1.13901e+06 117609 0 1.06736e+06 110476 0 1.00051e+06 102835 0 938639 94969.9 0 881774 87067.8 0 829872 79252.1 0 782833 71599 0 740526 64151.5 0 702805 56929.3 0 669522 49935.7 0 640530 43162.2 0 615694 36592.4 0 594890 30204.3 0 578010 23971.8 0 564964 17866.1 0 555682 11856.8 0 550112 5912.22 0 548221 0 0 1.09999e+06 -112244 0 1.45977e+06 -293675 0 1.61438e+06 -195674 0 1.71945e+06 -126317 0 1.76713e+06 -51531.8 0 1.77286e+06 8775.15 0 1.74419e+06 56509.9 0 1.6914e+06 90503.5 0 1.6226e+06 112905 0 1.54438e+06 126006 0 1.46155e+06 132107 0 1.37756e+06 133172 0 1.2948e+06 130723 0 1.21484e+06 125916 0 1.13872e+06 119585 0 1.06706e+06 112325 0 1.00022e+06 104553 0 938352 96553.3 0 881499 88517.6 0 829610 80570.5 0 782585 72789.3 0 740292 65217.5 0 702585 57874.9 0 669314 50764.9 0 640333 43878.8 0 615507 37199.9 0 594711 30705.7 0 577838 24369.7 0 564798 18162.6 0 555519 12053.6 0 549951 6010.34 0 548062 0 0 1.08605e+06 -110822 0 1.46495e+06 -302397 0 1.61575e+06 -198148 0 1.72213e+06 -128441 0 1.76885e+06 -51961.7 0 1.77437e+06 9215.95 0 1.74517e+06 57739.1 0 1.69204e+06 92228.1 0 1.62292e+06 114940 0 1.54447e+06 128208 0 1.46148e+06 134368 0 1.37739e+06 135420 0 1.29456e+06 132908 0 1.21456e+06 128007 0 1.13842e+06 121561 0 1.06676e+06 114175 0 999917 106270 0 938061 98136.4 0 881220 89967 0 829345 81888.6 0 782334 73979.2 0 740055 66283 0 702361 58820.2 0 669102 51593.8 0 640133 44595.2 0 615316 37807.2 0 594529 31206.9 0 577663 24767.4 0 564628 18459 0 555354 12250.3 0 549788 6108.42 0 547899 0 0 1.07109e+06 -109295 0 1.47065e+06 -311406 0 1.617e+06 -200520 0 1.72491e+06 -130590 0 1.77057e+06 -52364.4 0 1.77592e+06 9666.8 0 1.74615e+06 58982 0 1.69268e+06 93963.1 0 1.62324e+06 116983 0 1.54457e+06 130415 0 1.46142e+06 136631 0 1.37722e+06 137670 0 1.29432e+06 135094 0 1.21428e+06 130098 0 1.13812e+06 123537 0 1.06645e+06 116025 0 999614 107987 0 937766 99719.2 0 880937 91416.1 0 829076 83206.2 0 782079 75168.7 0 739814 67348.2 0 702134 59765.1 0 668888 52422.4 0 639930 45311.2 0 615123 38414.1 0 594344 31707.8 0 577485 25164.9 0 564456 18755.3 0 555186 12446.9 0 549622 6206.46 0 547734 0 0 </DataArray> 
</PointData> 
<Points> 
<DataArray type="Float32" NumberOfComponents="3"> 