<?xml version="1.0"?> 
<VTKFile type="StructuredGrid" version="0.1"> 
<StructuredGrid WholeExtent="0 31 0 31 0 0"> 
<Piece Extent="0 31 0 31 0 0"> 
<PointData>
<DataArray type="Float32" Name="|E|" format="ascii" NumberOfComponents="3"> 
-2.10877e+06 0 0 -2.11025e+06 12214.2 0 -2.11461e+06 24444.5 0 -2.12187e+06 36737 0 -2.13204e+06 49139.2 0 -2.14517e+06 61700.2 0 -2.16131e+06 74470.6 0 -2.1805e+06 87503.1 0 -2.20283e+06 100854 0 -2.22837e+06 114583 0 -2.25722e+06 128752 0 -2.2895e+06 143429 0 -2.32535e+06 158685 0 -2.3649e+06 174591 0 -2.40836e+06 191220 0 -2.45591e+06 208639 0 -2.5078e+06 226907 0 -2.56429e+06 246056 0 -2.62571e+06 266081 0 -2.69242e+06 286905 0 -2.76485e+06 308340 0 -2.8435e+06 330010 0 -2.92892e+06 351252 0 -3.02173e+06 370944 0 -3.12249e+06 387267 0 -3.23156e+06 397332 0 -3.34866e+06 396635 0 -3.4718e+06 378376 0 -3.59511e+06 333502 0 -3.7061e+06 253515 0 -3.78662e+06 140632 0 -3.82444e+06 -6363.1 0 -2.1078e+06 0 0 -2.10919e+06 12072.6 0 -2.11329e+06 24159.9 0 -2.12012e+06 36304.9 0 -2.12968e+06 48551.6 0 -2.14202e+06 60945.8 0 -2.15718e+06 73534.2 0 -2.1752e+06 86365.9 0 -2.19615e+06 99492.6 0 -2.2201e+06 112969 0 -2.24714e+06 126853 0 -2.27737e+06 141207 0 -2.31091e+06 156096 0 -2.34788e+06 171587 0 -2.38845e+06 187750 0 -2.43279e+06 204650 0 -2.4811e+06 222348 0 -2.53361e+06 240891 0 -2.59062e+06 260297 0 -2.65241e+06 280541 0 -2.71937e+06 301518 0 -2.79193e+06 323002 0 -2.87057e+06 344575 0 -2.95588e+06 365514 0 -3.04844e+06 384632 0 -3.14884e+06 400035 0 -3.25738e+06 408794 0 -3.37374e+06 406390 0 -3.49574e+06 385905 0 -3.61716e+06 336755 0 -3.72498e+06 250448 0 -3.80233e+06 126843 0 -2.10681e+06 0 0 -2.10812e+06 11917.2 0 -2.11197e+06 23847.8 0 -2.11837e+06 35831.7 0 -2.12735e+06 47909.6 0 -2.13892e+06 60124 0 -2.15313e+06 72518.4 0 -2.17002e+06 85137.6 0 -2.18965e+06 98029.6 0 -2.21207e+06 111245 0 -2.23737e+06 124836 0 -2.26563e+06 138861 0 -2.29695e+06 153379 0 -2.33145e+06 168452 0 -2.36926e+06 184147 0 -2.41053e+06 200526 0 -2.45544e+06 217651 0 -2.5042e+06 235575 0 -2.55702e+06 254333 0 -2.61418e+06 273931 0 -2.676e+06 294324 0 -2.74283e+06 315384 0 -2.81512e+06 336856 0 -2.89334e+06 358280 0 -2.97808e+06 378885 0 -3.06993e+06 397411 0 -3.16946e+06 411857 0 -3.27697e+06 419113 0 -3.39212e+06 414625 0 -3.51274e+06 391370 0 -3.63255e+06 338125 0 -3.73819e+06 255808 0 -2.10581e+06 0 0 -2.10703e+06 11748.1 0 -2.11064e+06 23508.2 0 -2.11663e+06 35317.5 0 -2.12504e+06 47213.3 0 -2.13587e+06 59235 0 -2.14917e+06 71422.8 0 -2.16497e+06 83817.9 0 -2.18331e+06 96464.1 0 -2.20427e+06 109408 0 -2.22789e+06 122697 0 -2.25426e+06 136385 0 -2.28346e+06 150526 0 -2.31559e+06 165178 0 -2.35077e+06 180401 0 -2.38913e+06 196255 0 -2.43081e+06 212800 0 -2.476e+06 230093 0 -2.52487e+06 248178 0 -2.57767e+06 267080 0 -2.63466e+06 286795 0 -2.69614e+06 307263 0 -2.76247e+06 328340 0 -2.83408e+06 349755 0 -2.91146e+06 371032 0 -2.99518e+06 391388 0 -3.08583e+06 409572 0 -3.18397e+06 423574 0 -3.28995e+06 430203 0 -3.40342e+06 425187 0 -3.52257e+06 398440 0 -3.64022e+06 351384 0 -2.10479e+06 0 0 -2.10593e+06 11565.2 0 -2.1093e+06 23141.3 0 -2.1149e+06 34762.3 0 -2.12275e+06 46462.8 0 -2.13287e+06 58279 0 -2.14529e+06 70247.9 0 -2.16004e+06 82407.2 0 -2.17715e+06 94797.1 0 -2.19669e+06 107460 0 -2.2187e+06 120440 0 -2.24326e+06 133784 0 -2.27043e+06 147543 0 -2.3003e+06 161770 0 -2.33297e+06 176519 0 -2.36856e+06 191847 0 -2.40718e+06 207813 0 -2.44898e+06 224470 0 -2.49413e+06 241868 0 -2.54282e+06 260047 0 -2.59527e+06 279023 0 -2.65174e+06 298782 0 -2.71253e+06 319256 0 -2.77798e+06 340294 0 -2.84852e+06 361614 0 -2.92463e+06 382739 0 -3.00686e+06 402892 0 -3.09581e+06 420871 0 -3.19205e+06 434595 0 -3.29591e+06 441724 0 -3.40744e+06 435164 0 -3.52407e+06 414088 0 -2.10374e+06 0 0 -2.10481e+06 11368.6 0 -2.10795e+06 22746.9 0 -2.11318e+06 34166.3 0 -2.12049e+06 45658.3 0 -2.12993e+06 57256.2 0 -2.14149e+06 68993.9 0 -2.15523e+06 80906.1 0 -2.17116e+06 93029.1 0 -2.18934e+06 105401 0 -2.20981e+06 118063 0 -2.23263e+06 131058 0 -2.25785e+06 144430 0 -2.28557e+06 158229 0 -2.31585e+06 172503 0 -2.34879e+06 187307 0 -2.3845e+06 202692 0 -2.42311e+06 218714 0 -2.46475e+06 235421 0 -2.50957e+06 252859 0 -2.55777e+06 271061 0 -2.60956e+06 290039 0 -2.66518e+06 309772 0 -2.72493e+06 330190 0 -2.78913e+06 351141 0 -2.8582e+06 372354 0 -2.93261e+06 393364 0 -3.01289e+06 413470 0 -3.09964e+06 431354 0 -3.19339e+06 445665 0 -3.29472e+06 452440 0 -3.40332e+06 449355 0 -2.10268e+06 0 0 -2.10367e+06 11158.3 0 -2.1066e+06 22325.3 0 -2.11146e+06 33529.6 0 -2.11826e+06 44800 0 -2.12703e+06 56166.8 0 -2.13778e+06 67661.2 0 -2.15054e+06 79314.8 0 -2.16534e+06 91160.4 0 -2.18221e+06 103233 0 -2.2012e+06 115569 0 -2.22236e+06 128207 0 -2.24573e+06 141189 0 -2.27138e+06 154557 0 -2.29938e+06 168357 0 -2.32982e+06 182637 0 -2.36277e+06 197446 0 -2.39835e+06 212834 0 -2.43667e+06 228852 0 -2.47787e+06 245545 0 -2.52208e+06 262953 0 -2.5695e+06 281106 0 -2.62032e+06 300013 0 -2.67477e+06 319651 0 -2.73313e+06 339950 0 -2.79573e+06 360771 0 -2.86294e+06 381850 0 -2.93522e+06 402801 0 -3.0131e+06 422863 0 -3.09713e+06 441153 0 -3.18793e+06 455759 0 -3.28597e+06 464236 0 -2.1016e+06 0 0 -2.10252e+06 10934.3 0 -2.10523e+06 21876.3 0 -2.10974e+06 32852.2 0 -2.11605e+06 43887.8 0 -2.12418e+06 55010.9 0 -2.13415e+06 66250 0 -2.14598e+06 77633.6 0 -2.15968e+06 89191.6 0 -2.17531e+06 100955 0 -2.19288e+06 112958 0 -2.21244e+06 125233 0 -2.23404e+06 137820 0 -2.25773e+06 150755 0 -2.28356e+06 164080 0 -2.31161e+06 177839 0 -2.34196e+06 192076 0 -2.37468e+06 206837 0 -2.40987e+06 222170 0 -2.44765e+06 238121 0 -2.48813e+06 254731 0 -2.53147e+06 272039 0 -2.57782e+06 290070 0 -2.62737e+06 308832 0 -2.68034e+06 328305 0 -2.737e+06 348429 0 -2.79764e+06 369070 0 -2.86263e+06 390019 0 -2.93239e+06 410884 0 -3.00741e+06 431091 0 -3.08825e+06 449786 0 -3.17553e+06 465067 0 -2.1005e+06 0 0 -2.10136e+06 10696.8 0 -2.10386e+06 21400.2 0 -2.10803e+06 32134.2 0 -2.11387e+06 42922.1 0 -2.12139e+06 53788.8 0 -2.1306e+06 64760.4 0 -2.14153e+06 75862.9 0 -2.15419e+06 87122.8 0 -2.16862e+06 98568.4 0 -2.18484e+06 110229 0 -2.20288e+06 122137 0 -2.22278e+06 134323 0 -2.2446e+06 146824 0 -2.26838e+06 159675 0 -2.29417e+06 172916 0 -2.32204e+06 186586 0 -2.35205e+06 200728 0 -2.3843e+06 215385 0 -2.41887e+06 230600 0 -2.45586e+06 246417 0 -2.49538e+06 262875 0 -2.53758e+06 280009 0 -2.58259e+06 297843 0 -2.6306e+06 316387 0 -2.68181e+06 335626 0 -2.73645e+06 355507 0 -2.79481e+06 375926 0 -2.85723e+06 396702 0 -2.92409e+06 417492 0 -2.99585e+06 437945 0 -3.07307e+06 456746 0 -2.09939e+06 0 0 -2.10017e+06 10445.6 0 -2.10248e+06 20896.9 0 -2.10633e+06 31375.6 0 -2.11171e+06 41902.8 0 -2.11865e+06 52500.6 0 -2.12714e+06 63192.8 0 -2.13721e+06 74002.9 0 -2.14887e+06 84954.6 0 -2.16215e+06 96073.1 0 -2.17707e+06 107385 0 -2.19366e+06 118918 0 -2.21196e+06 130701 0 -2.23199e+06 142765 0 -2.25381e+06 155143 0 -2.27746e+06 167868 0 -2.30298e+06 180977 0 -2.33045e+06 194508 0 -2.35993e+06 208500 0 -2.39148e+06 222993 0 -2.42519e+06 238027 0 -2.46116e+06 253642 0 -2.49949e+06 269876 0 -2.5403e+06 286762 0 -2.58373e+06 304324 0 -2.62994e+06 322573 0 -2.67912e+06 341504 0 -2.73147e+06 361075 0 -2.78726e+06 381215 0 -2.84679e+06 401741 0 -2.91041e+06 422545 0 -2.97857e+06 442749 0 -2.09825e+06 0 0 -2.09897e+06 10180.8 0 -2.1011e+06 20366.5 0 -2.10463e+06 30576.6 0 -2.10958e+06 40830 0 -2.11595e+06 51146.4 0 -2.12375e+06 61547.2 0 -2.133e+06 72053.7 0 -2.1437e+06 82687.1 0 -2.15589e+06 93469.4 0 -2.16958e+06 104425 0 -2.18479e+06 115577 0 -2.20155e+06 126952 0 -2.21989e+06 138578 0 -2.23985e+06 150483 0 -2.26147e+06 162696 0 -2.28478e+06 175251 0 -2.30984e+06 188180 0 -2.33671e+06 201519 0 -2.36543e+06 215303 0 -2.39608e+06 229570 0 -2.42873e+06 244358 0 -2.46347e+06 259703 0 -2.50038e+06 275640 0 -2.53959e+06 292203 0 -2.58122e+06 309415 0 -2.6254e+06 327294 0 -2.6723e+06 345836 0 -2.72212e+06 365028 0 -2.77509e+06 384782 0 -2.83145e+06 405106 0 -2.89157e+06 425422 0 -2.0971e+06 0 0 -2.09776e+06 9902.41 0 -2.09971e+06 19809 0 -2.10294e+06 29737.3 0 -2.10747e+06 39704 0 -2.11331e+06 49726.5 0 -2.12045e+06 59824 0 -2.12891e+06 70015.7 0 -2.1387e+06 80320.5 0 -2.14985e+06 90757.8 0 -2.16235e+06 101348 0 -2.17625e+06 112114 0 -2.19155e+06 123078 0 -2.20829e+06 134263 0 -2.22649e+06 145695 0 -2.24619e+06 157401 0 -2.26741e+06 169407 0 -2.29021e+06 181744 0 -2.31461e+06 194442 0 -2.34068e+06 207534 0 -2.36846e+06 221052 0 -2.39801e+06 235031 0 -2.42941e+06 249506 0 -2.46272e+06 264512 0 -2.49804e+06 280081 0 -2.53545e+06 296245 0 -2.57507e+06 313032 0 -2.61702e+06 330457 0 -2.66145e+06 348537 0 -2.70853e+06 367237 0 -2.75844e+06 386614 0 -2.81145e+06 406292 0 -2.09592e+06 0 0 -2.09653e+06 9610.52 0 -2.0983e+06 19224.4 0 -2.10126e+06 28857.6 0 -2.10539e+06 38524.7 0 -2.11071e+06 48240.9 0 -2.11722e+06 58023.2 0 -2.12493e+06 67889 0 -2.13386e+06 77855 0 -2.14401e+06 87938.3 0 -2.1554e+06 98157 0 -2.16805e+06 108530 0 -2.18197e+06 119078 0 -2.19719e+06 129821 0 -2.21372e+06 140781 0 -2.2316e+06 151981 0 -2.25085e+06 163445 0 -2.27151e+06 175199 0 -2.29361e+06 187270 0 -2.31719e+06 199685 0 -2.34229e+06 212474 0 -2.36895e+06 225668 0 -2.39725e+06 239297 0 -2.42722e+06 253395 0 -2.45894e+06 267993 0 -2.49248e+06 283123 0 -2.52792e+06 298815 0 -2.56537e+06 315096 0 -2.60492e+06 331993 0 -2.64671e+06 349503 0 -2.69087e+06 367696 0 -2.73759e+06 386328 0 -2.09473e+06 0 0 -2.09528e+06 9305.13 0 -2.09689e+06 18613 0 -2.09958e+06 27937.7 0 -2.10333e+06 37292.3 0 -2.10816e+06 46689.8 0 -2.11408e+06 56145.1 0 -2.12108e+06 65673.8 0 -2.12918e+06 75290.9 0 -2.13838e+06 85011.1 0 -2.14871e+06 94850 0 -2.16018e+06 104825 0 -2.17279e+06 114952 0 -2.18656e+06 125250 0 -2.20153e+06 135738 0 -2.21769e+06 146436 0 -2.23509e+06 157364 0 -2.25374e+06 168544 0 -2.27367e+06 180000 0 -2.29492e+06 191755 0 -2.31751e+06 203836 0 -2.34149e+06 216268 0 -2.36689e+06 229079 0 -2.39377e+06 242299 0 -2.42217e+06 255956 0 -2.45215e+06 270079 0 -2.48378e+06 284701 0 -2.51712e+06 299848 0 -2.55225e+06 315552 0 -2.58927e+06 331823 0 -2.62829e+06 348734 0 -2.66942e+06 366122 0 -2.09352e+06 0 0 -2.09402e+06 8986.24 0 -2.09548e+06 17974.6 0 -2.0979e+06 26977.6 0 -2.1013e+06 36006.8 0 -2.10566e+06 45073.3 0 -2.11101e+06 54189.8 0 -2.11733e+06 63370.2 0 -2.12465e+06 72628.1 0 -2.13296e+06 81976.1 0 -2.14229e+06 91427.7 0 -2.15263e+06 100997 0 -2.164e+06 110700 0 -2.17642e+06 120551 0 -2.1899e+06 130567 0 -2.20445e+06 140764 0 -2.2201e+06 151161 0 -2.23687e+06 161776 0 -2.25477e+06 172630 0 -2.27384e+06 183741 0 -2.29409e+06 195134 0 -2.31556e+06 206829 0 -2.33829e+06 218851 0 -2.3623e+06 231224 0 -2.38763e+06 243976 0 -2.41434e+06 257131 0 -2.44246e+06 270718 0 -2.47206e+06 284764 0 -2.50318e+06 299300 0 -2.5359e+06 314342 0 -2.57029e+06 329954 0 -2.60645e+06 346027 0 -2.09229e+06 0 0 -2.09274e+06 8653.91 0 -2.09405e+06 17309.4 0 -2.09623e+06 25977.4 0 -2.09929e+06 34668.3 0 -2.10321e+06 43391.5 0 -2.10802e+06 52157.4 0 -2.11371e+06 60978.4 0 -2.12028e+06 69866.7 0 -2.12775e+06 78833.5 0 -2.13612e+06 87889.9 0 -2.14541e+06 97048 0 -2.15561e+06 106321 0 -2.16675e+06 115722 0 -2.17883e+06 125266 0 -2.19187e+06 134965 0 -2.20588e+06 144836 0 -2.22088e+06 154894 0 -2.23688e+06 165156 0 -2.25391e+06 175640 0 -2.27198e+06 186363 0 -2.29113e+06 197345 0 -2.31136e+06 208606 0 -2.33272e+06 220168 0 -2.35523e+06 232051 0 -2.37892e+06 244280 0 -2.40383e+06 256877 0 -2.43001e+06 269869 0 -2.45748e+06 283281 0 -2.48631e+06 297132 0 -2.51655e+06 311477 0 -2.54826e+06 326241 0 -2.09105e+06 0 0 -2.09145e+06 8308.15 0 -2.09262e+06 16617.4 0 -2.09457e+06 24937.3 0 -2.0973e+06 33277 0 -2.10081e+06 41644.4 0 -2.10511e+06 50048.1 0 -2.11019e+06 58498.7 0 -2.11607e+06 67007 0 -2.12274e+06 75583 0 -2.13021e+06 84236.3 0 -2.1385e+06 92976.7 0 -2.14761e+06 101815 0 -2.15754e+06 110764 0 -2.16831e+06 119833 0 -2.17993e+06 129036 0 -2.1924e+06 138386 0 -2.20575e+06 147894 0 -2.21998e+06 157576 0 -2.23511e+06 167446 0 -2.25115e+06 177519 0 -2.26813e+06 187811 0 -2.28606e+06 198339 0 -2.30497e+06 209120 0 -2.32487e+06 220173 0 -2.34579e+06 231518 0 -2.36776e+06 243174 0 -2.3908e+06 255162 0 -2.41496e+06 267507 0 -2.44026e+06 280224 0 -2.46675e+06 293358 0 -2.49447e+06 306858 0 -2.08978e+06 0 0 -2.09014e+06 7948.99 0 -2.09118e+06 15898.6 0 -2.09291e+06 23857.2 0 -2.09534e+06 31832.7 0 -2.09846e+06 39832.1 0 -2.10228e+06 47862 0 -2.10679e+06 55931 0 -2.11201e+06 64048.9 0 -2.11793e+06 72224.8 0 -2.12456e+06 80466.7 0 -2.13191e+06 88782.8 0 -2.13999e+06 97181.9 0 -2.14879e+06 105674 0 -2.15833e+06 114269 0 -2.16862e+06 122976 0 -2.17966e+06 131807 0 -2.19146e+06 140773 0 -2.20404e+06 149884 0 -2.2174e+06 159153 0 -2.23156e+06 168593 0 -2.24653e+06 178217 0 -2.26233e+06 188037 0 -2.27897e+06 198070 0 -2.29647e+06 208330 0 -2.31484e+06 218832 0 -2.33412e+06 229595 0 -2.35431e+06 240634 0 -2.37544e+06 251969 0 -2.39754e+06 263615 0 -2.42064e+06 275609 0 -2.44477e+06 287911 0 -2.0885e+06 0 0 -2.08881e+06 7576.47 0 -2.08973e+06 15153.2 0 -2.09126e+06 22737.2 0 -2.0934e+06 30335.7 0 -2.09615e+06 37954.5 0 -2.09952e+06 45598.9 0 -2.1035e+06 53275.5 0 -2.1081e+06 60992.7 0 -2.11332e+06 68758.7 0 -2.11916e+06 76580.8 0 -2.12564e+06 84465.5 0 -2.13275e+06 92419.9 0 -2.1405e+06 100452 0 -2.14889e+06 108570 0 -2.15793e+06 116783 0 -2.16764e+06 125098 0 -2.178e+06 133526 0 -2.18904e+06 142076 0 -2.20077e+06 150757 0 -2.21318e+06 159579 0 -2.2263e+06 168554 0 -2.24012e+06 177692 0 -2.25467e+06 187005 0 -2.26996e+06 196506 0 -2.286e+06 206206 0 -2.3028e+06 216121 0 -2.32039e+06 226263 0 -2.33877e+06 236648 0 -2.35797e+06 247289 0 -2.37801e+06 258214 0 -2.3989e+06 269393 0 -2.0872e+06 0 0 -2.08747e+06 7190.61 0 -2.08827e+06 14381.1 0 -2.08961e+06 21577.6 0 -2.09148e+06 28786 0 -2.09389e+06 36011.7 0 -2.09684e+06 43258.8 0 -2.10032e+06 50532.1 0 -2.10434e+06 57838.3 0 -2.10891e+06 65184.8 0 -2.11401e+06 72578.3 0 -2.11967e+06 80024.3 0 -2.12588e+06 87528.4 0 -2.13265e+06 95096.5 0 -2.13997e+06 102736 0 -2.14786e+06 110453 0 -2.15632e+06 118255 0 -2.16536e+06 126150 0 -2.17497e+06 134146 0 -2.18518e+06 142249 0 -2.19598e+06 150468 0 -2.20738e+06 158812 0 -2.21939e+06 167290 0 -2.23203e+06 175910 0 -2.24529e+06 184684 0 -2.25918e+06 193620 0 -2.27373e+06 202730 0 -2.28894e+06 212024 0 -2.30482e+06 221515 0 -2.32138e+06 231213 0 -2.33865e+06 241140 0 -2.35663e+06 251273 0 -2.08587e+06 0 0 -2.08611e+06 6791.44 0 -2.08681e+06 13582.5 0 -2.08797e+06 20378.2 0 -2.08959e+06 27183.8 0 -2.09168e+06 34003.8 0 -2.09423e+06 40841.6 0 -2.09725e+06 47700.6 0 -2.10074e+06 54585.7 0 -2.10469e+06 61503.1 0 -2.10911e+06 68459 0 -2.11401e+06 75458.5 0 -2.11938e+06 82506 0 -2.12524e+06 89606 0 -2.13157e+06 96763.6 0 -2.1384e+06 103985 0 -2.14571e+06 111275 0 -2.15351e+06 118641 0 -2.16181e+06 126088 0 -2.17062e+06 133623 0 -2.17993e+06 141251 0 -2.18976e+06 148981 0 -2.2001e+06 156818 0 -2.21097e+06 164770 0 -2.22238e+06 172845 0 -2.23432e+06 181051 0 -2.24681e+06 189396 0 -2.25985e+06 197888 0 -2.27346e+06 206537 0 -2.28764e+06 215350 0 -2.3024e+06 224346 0 -2.31776e+06 233506 0 -2.08454e+06 0 0 -2.08474e+06 6379.01 0 -2.08534e+06 12757.5 0 -2.08633e+06 19139.3 0 -2.08773e+06 25529 0 -2.08951e+06 31930.7 0 -2.0917e+06 38347.2 0 -2.09429e+06 44780.8 0 -2.09728e+06 51234.6 0 -2.10067e+06 57713.5 0 -2.10446e+06 64222.9 0 -2.10865e+06 70767.6 0 -2.11326e+06 77351.6 0 -2.11827e+06 83978.4 0 -2.12369e+06 90651.4 0 -2.12953e+06 97375 0 -2.13578e+06 104154 0 -2.14245e+06 110993 0 -2.14954e+06 117897 0 -2.15706e+06 124871 0 -2.16501e+06 131920 0 -2.17339e+06 139049 0 -2.18221e+06 146263 0 -2.19148e+06 153569 0 -2.20118e+06 160971 0 -2.21134e+06 168477 0 -2.22196e+06 176092 0 -2.23304e+06 183823 0 -2.24459e+06 191677 0 -2.25662e+06 199660 0 -2.26912e+06 207785 0 -2.28212e+06 216038 0 -2.08318e+06 0 0 -2.08335e+06 5953.33 0 -2.08386e+06 11906 0 -2.0847e+06 17861 0 -2.08588e+06 23822 0 -2.0874e+06 29792.6 0 -2.08925e+06 35775.4 0 -2.09144e+06 41772.2 0 -2.09397e+06 47784.6 0 -2.09684e+06 53815.7 0 -2.10005e+06 59869.9 0 -2.1036e+06 65951.5 0 -2.10749e+06 72064.5 0 -2.11173e+06 78212 0 -2.11631e+06 84396.4 0 -2.12124e+06 90620.6 0 -2.12653e+06 96887.9 0 -2.13216e+06 103202 0 -2.13815e+06 109567 0 -2.14449e+06 115986 0 -2.1512e+06 122464 0 -2.15826e+06 129005 0 -2.16569e+06 135612 0 -2.17349e+06 142289 0 -2.18166e+06 149042 0 -2.1902e+06 155875 0 -2.19913e+06 162792 0 -2.20843e+06 169799 0 -2.21812e+06 176900 0 -2.2282e+06 184099 0 -2.23868e+06 191408 0 -2.24956e+06 198813 0 -2.0818e+06 0 0 -2.08195e+06 5514.44 0 -2.08237e+06 11028.1 0 -2.08308e+06 16543.3 0 -2.08406e+06 22062.8 0 -2.08532e+06 27589.6 0 -2.08687e+06 33126.4 0 -2.0887e+06 38674.5 0 -2.09081e+06 44234.8 0 -2.09321e+06 49808.8 0 -2.09588e+06 55399.3 0 -2.09884e+06 61009.9 0 -2.10209e+06 66644.3 0 -2.10562e+06 72305.6 0 -2.10944e+06 77996 0 -2.11354e+06 83717.5 0 -2.11794e+06 89472.3 0 -2.12263e+06 95262.5 0 -2.12762e+06 101091 0 -2.13289e+06 106961 0 -2.13847e+06 112875 0 -2.14434e+06 118837 0 -2.15051e+06 124849 0 -2.15698e+06 130915 0 -2.16376e+06 137038 0 -2.17085e+06 143221 0 -2.17824e+06 149468 0 -2.18595e+06 155781 0 -2.19397e+06 162166 0 -2.20231e+06 168624 0 -2.21097e+06 175164 0 -2.21995e+06 181775 0 -2.08041e+06 0 0 -2.08053e+06 5062.38 0 -2.08088e+06 10123.9 0 -2.08145e+06 15186.4 0 -2.08226e+06 20251.6 0 -2.0833e+06 25322 0 -2.08456e+06 30400.1 0 -2.08606e+06 35487.3 0 -2.08779e+06 40584.3 0 -2.08976e+06 45691.5 0 -2.09195e+06 50810 0 -2.09438e+06 55942 0 -2.09704e+06 61090.6 0 -2.09993e+06 66258.7 0 -2.10306e+06 71448.8 0 -2.10642e+06 76662.8 0 -2.11002e+06 81902 0 -2.11385e+06 87168 0 -2.11793e+06 92462.2 0 -2.12224e+06 97786.5 0 -2.1268e+06 103143 0 -2.1316e+06 108534 0 -2.13664e+06 113962 0 -2.14192e+06 119430 0 -2.14745e+06 124939 0 -2.15323e+06 130492 0 -2.15925e+06 136091 0 -2.16553e+06 141739 0 -2.17206e+06 147439 0 -2.17884e+06 153192 0 -2.18588e+06 159003 0 -2.19318e+06 164866 0 -2.079e+06 0 0 -2.07909e+06 4597.17 0 -2.07937e+06 9193.52 0 -2.07984e+06 13790.2 0 -2.08049e+06 18388.5 0 -2.08132e+06 22990.1 0 -2.08233e+06 27596.9 0 -2.08353e+06 32210.8 0 -2.08492e+06 36832.5 0 -2.0865e+06 41462.1 0 -2.08826e+06 46099.5 0 -2.09021e+06 50745.6 0 -2.09234e+06 55401.9 0 -2.09466e+06 60070.7 0 -2.09717e+06 64754.3 0 -2.09986e+06 69454.9 0 -2.10275e+06 74173.9 0 -2.10582e+06 78912.6 0 -2.10908e+06 83672 0 -2.11253e+06 88452.9 0 -2.11618e+06 93256.4 0 -2.12002e+06 98083.8 0 -2.12405e+06 102937 0 -2.12827e+06 107816 0 -2.13269e+06 112725 0 -2.13731e+06 117664 0 -2.14212e+06 122635 0 -2.14712e+06 127640 0 -2.15233e+06 132681 0 -2.15774e+06 137759 0 -2.16335e+06 142877 0 -2.16916e+06 148030 0 -2.07757e+06 0 0 -2.07764e+06 4118.85 0 -2.07786e+06 8236.91 0 -2.07823e+06 12354.9 0 -2.07873e+06 16473.6 0 -2.07938e+06 20594 0 -2.08018e+06 24717.4 0 -2.08111e+06 28845.5 0 -2.0822e+06 32979.4 0 -2.08343e+06 37119.4 0 -2.0848e+06 41265.3 0 -2.08633e+06 45416.9 0 -2.088e+06 49574.4 0 -2.08981e+06 53738.7 0 -2.09177e+06 57911 0 -2.09387e+06 62093.3 0 -2.09612e+06 66287.1 0 -2.09852e+06 70493.9 0 -2.10106e+06 74714.9 0 -2.10375e+06 78950.8 0 -2.10659e+06 83202.3 0 -2.10958e+06 87469.9 0 -2.11272e+06 91754.3 0 -2.11601e+06 96056 0 -2.11945e+06 100376 0 -2.12304e+06 104715 0 -2.12679e+06 109074 0 -2.13068e+06 113454 0 -2.13473e+06 117858 0 -2.13893e+06 122285 0 -2.14328e+06 126738 0 -2.14779e+06 131212 0 -2.07612e+06 0 0 -2.07618e+06 3627.45 0 -2.07634e+06 7254.14 0 -2.07662e+06 10880.5 0 -2.077e+06 14507 0 -2.07749e+06 18133.9 0 -2.07809e+06 21762 0 -2.0788e+06 25392.2 0 -2.07962e+06 29025.9 0 -2.08054e+06 32663.7 0 -2.08158e+06 36305.9 0 -2.08273e+06 39952.2 0 -2.08399e+06 43602.2 0 -2.08536e+06 47255.7 0 -2.08684e+06 50912.6 0 -2.08843e+06 54573.6 0 -2.09013e+06 58239.6 0 -2.09194e+06 61911.5 0 -2.09386e+06 65590.5 0 -2.09589e+06 69277.8 0 -2.09802e+06 72974.3 0 -2.10028e+06 76680.7 0 -2.10264e+06 80397.6 0 -2.10512e+06 84125.4 0 -2.10771e+06 87864.4 0 -2.11041e+06 91614.4 0 -2.11322e+06 95375.6 0 -2.11615e+06 99148 0 -2.1192e+06 102932 0 -2.12235e+06 106728 0 -2.12562e+06 110539 0 -2.12901e+06 114363 0 -2.07466e+06 0 0 -2.0747e+06 3122.99 0 -2.07482e+06 6245.28 0 -2.07501e+06 9367.04 0 -2.07529e+06 12488.4 0 -2.07565e+06 15609.5 0 -2.07608e+06 18730.5 0 -2.07659e+06 21851.6 0 -2.07718e+06 24973.5 0 -2.07785e+06 28096.9 0 -2.0786e+06 31222.5 0 -2.07942e+06 34350.5 0 -2.08033e+06 37481 0 -2.08132e+06 40613.5 0 -2.08239e+06 43747.7 0 -2.08354e+06 46883 0 -2.08476e+06 50019.2 0 -2.08607e+06 53156.3 0 -2.08746e+06 56294.4 0 -2.08892e+06 59433.8 0 -2.09047e+06 62575 0 -2.09209e+06 65718.8 0 -2.09379e+06 68865.8 0 -2.09557e+06 72017.1 0 -2.09743e+06 75173.5 0 -2.09937e+06 78335.7 0 -2.1014e+06 81504.2 0 -2.10351e+06 84679.1 0 -2.10569e+06 87859.7 0 -2.10796e+06 91044.6 0 -2.11032e+06 94232.4 0 -2.11275e+06 97417 0 -2.07317e+06 0 0 -2.0732e+06 2605.51 0 -2.07328e+06 5210.39 0 -2.07342e+06 7814.56 0 -2.0736e+06 10418 0 -2.07384e+06 13020.6 0 -2.07414e+06 15622.3 0 -2.07449e+06 18222.9 0 -2.07489e+06 20822.5 0 -2.07534e+06 23421 0 -2.07585e+06 26018.7 0 -2.07641e+06 28616 0 -2.07702e+06 31213.3 0 -2.07768e+06 33810.6 0 -2.07841e+06 36408.2 0 -2.07918e+06 39005.8 0 -2.08001e+06 41603.3 0 -2.0809e+06 44200 0 -2.08184e+06 46795.5 0 -2.08284e+06 49389.2 0 -2.08389e+06 51980.3 0 -2.08499e+06 54568.3 0 -2.08614e+06 57152.6 0 -2.08735e+06 59732.9 0 -2.08861e+06 62309.2 0 -2.08993e+06 64882 0 -2.09129e+06 67452.2 0 -2.09272e+06 70021.4 0 -2.09419e+06 72591.5 0 -2.09572e+06 75165.2 0 -2.09731e+06 77746.3 0 -2.09895e+06 80336.3 0 -2.07167e+06 0 0 -2.07169e+06 2075.01 0 -2.07174e+06 4149.44 0 -2.07182e+06 6223.06 0 -2.07194e+06 8295.65 0 -2.07209e+06 10367 0 -2.07227e+06 12436.9 0 -2.07248e+06 14505.2 0 -2.07273e+06 16571.6 0 -2.07301e+06 18635.7 0 -2.07333e+06 20697.3 0 -2.07367e+06 22755.8 0 -2.07405e+06 24811.1 0 -2.07446e+06 26863.1 0 -2.07491e+06 28911.8 0 -2.07538e+06 30957.7 0 -2.07589e+06 33001.1 0 -2.07644e+06 35042.3 0 -2.07701e+06 37081.8 0 -2.07763e+06 39119.5 0 -2.07827e+06 41155.3 0 -2.07895e+06 43188.6 0 -2.07967e+06 45218.5 0 -2.08042e+06 47243.6 0 -2.0812e+06 49262.3 0 -2.08202e+06 51272.5 0 -2.08287e+06 53271.8 0 -2.08375e+06 55257.6 0 -2.08466e+06 57227.3 0 -2.08561e+06 59177.8 0 -2.08658e+06 61106.5 0 -2.0876e+06 63009.5 0 -2.07015e+06 0 0 -2.07016e+06 1531.72 0 -2.07019e+06 3062.81 0 -2.07023e+06 4592.81 0 -2.07029e+06 6121.28 0 -2.07037e+06 7647.74 0 -2.07047e+06 9171.68 0 -2.07058e+06 10692.7 0 -2.07072e+06 12210.6 0 -2.07086e+06 13725.4 0 -2.07103e+06 15237 0 -2.07122e+06 16744.9 0 -2.07142e+06 18247.7 0 -2.07164e+06 19743.6 0 -2.07188e+06 21230.9 0 -2.07213e+06 22707.7 0 -2.0724e+06 24173.2 0 -2.07269e+06 25627 0 -2.073e+06 27070.2 0 -2.07332e+06 28504.3 0 -2.07366e+06 29931.7 0 -2.07402e+06 31355.1 0 -2.07439e+06 32777.4 0 -2.07478e+06 34201.4 0 -2.07519e+06 35629.8 0 -2.07562e+06 37064.5 0 -2.07607e+06 38507.5 0 -2.07653e+06 39959.9 0 -2.07701e+06 41423 0 -2.07751e+06 42897.5 0 -2.07803e+06 44384.9 0 -2.07857e+06 45883.1 0 </DataArray> 
</PointData> 
<Points> 
<DataArray type="Float32" NumberOfComponents="3"> 