<?xml version="1.0"?> 
<VTKFile type="StructuredGrid" version="0.1"> 
<StructuredGrid WholeExtent="0 31 0 31 0 0"> 
<Piece Extent="0 31 0 31 0 0"> 
<PointData>
<DataArray type="Float32" Name="|E|" format="ascii" NumberOfComponents="3"> 
3.20702e+06 -1.32839e+06 0 3.10596e+06 -207342 0 2.74542e+06 254023 0 2.44723e+06 481119 0 2.1903e+06 594456 0 1.97837e+06 646267 0 1.79869e+06 663069 0 1.64471e+06 658673 0 1.51061e+06 641269 0 1.39247e+06 615811 0 1.28738e+06 585490 0 1.19322e+06 552398 0 1.10839e+06 517941 0 1.03172e+06 483065 0 962250 448409 0 899255 414394 0 842134 381288 0 790394 349252 0 743621 318366 0 701464 288655 0 663623 260104 0 629837 232667 0 599881 206276 0 573560 180850 0 550705 156296 0 531172 132515 0 514839 109401 0 501603 86847.2 0 491383 64742.2 0 484115 42974.4 0 479755 21431.3 0 478276 0 0 3.34877e+06 -1.27256e+06 0 3.14727e+06 -152072 0 2.763e+06 302035 0 2.45067e+06 521059 0 2.18726e+06 627828 0 1.97126e+06 674830 0 1.78914e+06 688002 0 1.63356e+06 680867 0 1.49842e+06 661343 0 1.37963e+06 634214 0 1.27416e+06 602540 0 1.17982e+06 568324 0 1.09499e+06 532903 0 1.01843e+06 497177 0 949176 461747 0 886462 427009 0 829671 393211 0 778294 360499 0 731902 328943 0 690131 298559 0 652669 269326 0 619246 241192 0 589628 214086 0 563612 187923 0 541021 162606 0 521704 138034 0 505532 114098 0 492397 90686.9 0 482211 67687.3 0 474904 44983.9 0 470423 22460.6 0 468737 0 0 3.4854e+06 -1.20714e+06 0 3.18814e+06 -93488.3 0 2.77952e+06 351267 0 2.45352e+06 561579 0 2.18378e+06 661573 0 1.96386e+06 703665 0 1.77937e+06 713165 0 1.62225e+06 703263 0 1.48612e+06 681598 0 1.36669e+06 652774 0 1.26086e+06 619724 0 1.16636e+06 584357 0 1.08152e+06 547946 0 1.00506e+06 511343 0 936005 475114 0 873554 439627 0 817073 405114 0 766036 371706 0 720000 339462 0 678589 308390 0 641479 278462 0 608392 249622 0 579083 221795 0 553343 194891 0 530988 168813 0 511859 143453 0 495821 118702 0 482761 94444.9 0 472582 70565.2 0 465210 46944.5 0 460585 23463.1 0 458667 0 0 3.61705e+06 -1.1327e+06 0 3.22824e+06 -31770.3 0 2.79498e+06 401665 0 2.45579e+06 602656 0 2.17987e+06 695676 0 1.95616e+06 732766 0 1.76941e+06 738554 0 1.6108e+06 725857 0 1.47371e+06 702029 0 1.35367e+06 671489 0 1.24749e+06 637038 0 1.15283e+06 600496 0 1.06797e+06 563069 0 991614 525563 0 922737 488508 0 860530 452250 0 804339 417000 0 753619 382875 0 707914 349925 0 666837 318150 0 630053 287515 0 597273 257960 0 568247 229406 0 542756 201760 0 520609 174919 0 501642 148776 0 485712 123217 0 472700 98124.1 0 462504 73378.3 0 455041 48857.9 0 450248 24440.1 0 448077 0 0 3.74379e+06 -1.04975e+06 0 3.26728e+06 32921 0 2.80938e+06 453177 0 2.45747e+06 644268 0 2.17554e+06 730123 0 1.94821e+06 762122 0 1.75926e+06 764160 0 1.59922e+06 748644 0 1.4612e+06 722631 0 1.34058e+06 690354 0 1.23405e+06 654479 0 1.13923e+06 616737 0 1.05435e+06 578270 0 978083 539834 0 909372 501930 0 847392 464876 0 791468 428867 0 741042 394006 0 695644 360333 0 654875 327841 0 618390 296488 0 585893 266210 0 557122 236923 0 531853 208531 0 509889 180929 0 491057 154006 0 475210 127645 0 462221 101727 0 451983 76128.7 0 444408 50725.8 0 439424 25392.3 0 436977 0 0 3.86563e+06 -958729 0 3.30502e+06 100422 0 2.82274e+06 505749 0 2.45857e+06 686392 0 2.17082e+06 764898 0 1.94e+06 791726 0 1.74894e+06 789978 0 1.58753e+06 771618 0 1.44862e+06 743402 0 1.32742e+06 709365 0 1.22056e+06 672045 0 1.12557e+06 633079 0 1.04067e+06 593546 0 964472 554157 0 895912 515379 0 834138 477507 0 778460 440717 0 728305 405102 0 683189 370689 0 642703 337465 0 606493 305383 0 574251 274373 0 545710 244347 0 520638 215207 0 498830 186845 0 480109 159146 0 464320 131990 0 451331 105256 0 441028 78818.5 0 433318 52549.7 0 428122 26320.6 0 425379 0 0 3.98251e+06 -860046 0 3.34128e+06 170572 0 2.83505e+06 559329 0 2.45909e+06 729006 0 2.16573e+06 799988 0 1.93156e+06 821570 0 1.73847e+06 816001 0 1.57573e+06 794776 0 1.43596e+06 764336 0 1.31421e+06 728521 0 1.20701e+06 689733 0 1.11186e+06 649521 0 1.02692e+06 608897 0 950785 568531 0 882357 528855 0 820771 490143 0 765317 452553 0 715409 416163 0 670552 380995 0 630324 347025 0 594362 314203 0 562351 282452 0 534015 251683 0 509115 221793 0 487439 192670 0 468805 164198 0 453051 136254 0 440039 108714 0 429649 81449.8 0 421782 54331.1 0 416354 27225.9 0 413296 0 0 4.09437e+06 -754075 0 3.37589e+06 243213 0 2.84633e+06 613866 0 2.45906e+06 772085 0 2.16029e+06 835379 0 1.92291e+06 851645 0 1.72787e+06 842226 0 1.56385e+06 818114 0 1.42324e+06 785432 0 1.30095e+06 747819 0 1.19342e+06 707542 0 1.09811e+06 666060 0 1.01312e+06 624324 0 937022 582956 0 868710 542360 0 807290 502785 0 752039 464374 0 702355 427193 0 657732 391252 0 617738 356524 0 582000 322950 0 550195 290452 0 522040 258933 0 497288 228290 0 475722 198407 0 457151 169165 0 441409 140440 0 428352 112103 0 417855 84024.4 0 409811 56071.4 0 404131 28109 0 400739 0 0 4.20108e+06 -641171 0 3.40872e+06 318192 0 2.85658e+06 669310 0 2.45847e+06 815608 0 2.15451e+06 871059 0 1.91406e+06 881945 0 1.71714e+06 868646 0 1.5519e+06 841628 0 1.41048e+06 806687 0 1.28765e+06 767256 0 1.1798e+06 725471 0 1.0843e+06 682697 0 999253 639824 0 923189 597433 0 854973 555894 0 793699 515435 0 738628 476183 0 689144 438192 0 644732 401465 0 604948 365965 0 569410 331629 0 537788 298374 0 509790 266101 0 485164 234702 0 463684 204059 0 445155 174051 0 429404 144550 0 416282 115425 0 405657 86544.3 0 397417 57772.1 0 391466 28970.6 0 387721 0 0 4.30251e+06 -521678 0 3.43967e+06 395359 0 2.8658e+06 725612 0 2.45734e+06 859551 0 2.14842e+06 907016 0 1.90504e+06 912464 0 1.70632e+06 895257 0 1.53989e+06 865316 0 1.39767e+06 828098 0 1.27433e+06 786832 0 1.16614e+06 743518 0 1.07046e+06 699431 0 985340 655400 0 909288 611962 0 841149 569459 0 780000 528095 0 725086 487983 0 675780 449165 0 631555 411635 0 591957 375349 0 556597 340241 0 525134 306221 0 497271 273189 0 472747 241031 0 451333 209629 0 432825 178857 0 417045 148586 0 403838 118683 0 393066 89011.2 0 384611 59434.2 0 378372 29811.4 0 374258 0 0 4.39852e+06 -395933 0 3.46865e+06 474568 0 2.87401e+06 782724 0 2.45569e+06 903893 0 2.14204e+06 943238 0 1.89585e+06 943194 0 1.69541e+06 922056 0 1.52783e+06 889173 0 1.38484e+06 849663 0 1.26098e+06 806545 0 1.15246e+06 761683 0 1.05659e+06 716262 0 971380 671052 0 895322 626545 0 827241 583055 0 766194 540767 0 711415 499775 0 662265 460113 0 618204 421764 0 578770 384681 0 543564 348790 0 512238 313998 0 484488 280200 0 460046 247282 0 438676 215120 0 420169 183587 0 404341 152552 0 391030 121877 0 380094 91426.7 0 371407 61059.2 0 364862 30632.1 0 360363 0 0 4.48894e+06 -264271 0 3.49559e+06 555678 0 2.88121e+06 840598 0 2.45354e+06 948612 0 2.1354e+06 979716 0 1.88653e+06 974129 0 1.68443e+06 949038 0 1.51574e+06 913199 0 1.372e+06 871382 0 1.24762e+06 826395 0 1.13877e+06 779966 0 1.04269e+06 733191 0 957378 686780 0 881297 641183 0 813252 596686 0 752287 553452 0 697620 511563 0 648602 471039 0 604682 431857 0 565389 393963 0 530315 357278 0 499106 321706 0 471448 287137 0 447068 253455 0 425723 220534 0 407198 188243 0 391304 156448 0 377871 125011 0 366753 93792.2 0 357817 62647.9 0 350951 31433.2 0 346051 0 0 4.5736e+06 -127027 0 3.52044e+06 638553 0 2.88742e+06 899189 0 2.4509e+06 993689 0 2.1285e+06 1.01644e+06 0 1.87709e+06 1.00527e+06 0 1.6734e+06 976200 0 1.50364e+06 937391 0 1.35916e+06 893254 0 1.23427e+06 846382 0 1.12507e+06 798367 0 1.02877e+06 750220 0 943341 702586 0 867216 655879 0 799187 610353 0 738281 566154 0 683704 523348 0 634796 481946 0 590995 441916 0 551821 403198 0 516858 365709 0 485743 329348 0 458158 294004 0 433821 259555 0 412482 225874 0 393922 192827 0 377943 160278 0 364373 128086 0 353056 96109.1 0 343857 64201.3 0 336654 32215.2 0 331338 0 0 4.65234e+06 15458.2 0 3.54316e+06 723061 0 2.89264e+06 958452 0 2.44779e+06 1.0391e+06 0 2.12137e+06 1.0534e+06 0 1.86755e+06 1.0366e+06 0 1.66233e+06 1.00354e+06 0 1.49153e+06 961748 0 1.34632e+06 915277 0 1.22092e+06 866505 0 1.11137e+06 816888 0 1.01484e+06 767348 0 929273 718472 0 853085 670634 0 785049 624060 0 724180 578876 0 669671 535135 0 620850 492837 0 577146 451944 0 538070 412389 0 503197 374085 0 472158 336928 0 444626 300802 0 420313 265583 0 398963 231142 0 380350 197341 0 364272 164043 0 350548 131104 0 339018 98378.7 0 329540 65720.4 0 321986 32978.5 0 316241 0 0 4.72499e+06 162839 0 3.56372e+06 809075 0 2.89688e+06 1.01834e+06 0 2.44423e+06 1.08484e+06 0 2.11404e+06 1.09059e+06 0 1.85792e+06 1.06812e+06 0 1.65124e+06 1.03106e+06 0 1.47943e+06 986268 0 1.33351e+06 937451 0 1.2076e+06 886764 0 1.09768e+06 835529 0 1.00091e+06 784578 0 915182 734440 0 838909 685450 0 770845 637808 0 709990 591619 0 655526 546925 0 606769 503715 0 563141 461944 0 524142 421540 0 489340 382410 0 458357 344448 0 430860 307534 0 406554 271543 0 385177 236340 0 366496 201787 0 350302 167744 0 336410 134065 0 324653 100602 0 314882 67205.8 0 306964 33723.6 0 300775 0 0 4.79139e+06 314765 0 3.58209e+06 896473 0 2.90016e+06 1.07882e+06 0 2.44025e+06 1.13087e+06 0 2.10652e+06 1.12799e+06 0 1.84823e+06 1.09983e+06 0 1.64015e+06 1.05874e+06 0 1.46736e+06 1.01095e+06 0 1.32073e+06 959776 0 1.1943e+06 907162 0 1.08401e+06 854292 0 986975 801911 0 901072 750493 0 824694 700331 0 756578 651600 0 695715 604388 0 641273 558722 0 592560 514583 0 548986 471919 0 510043 430652 0 475293 390687 0 444348 351911 0 416869 314203 0 392553 277435 0 371133 241470 0 352369 206167 0 336047 171383 0 321973 136971 0 309975 102780 0 299898 68658.1 0 291603 34450.8 0 284958 0 0 4.85139e+06 470876 0 3.59827e+06 985137 0 2.90248e+06 1.13984e+06 0 2.43586e+06 1.17719e+06 0 2.09883e+06 1.16561e+06 0 1.83849e+06 1.13172e+06 0 1.62907e+06 1.0866e+06 0 1.45533e+06 1.03579e+06 0 1.308e+06 982253 0 1.18105e+06 927698 0 1.07037e+06 873178 0 973051 819351 0 886952 766632 0 810445 715279 0 742255 665440 0 681360 617185 0 626919 570530 0 578227 525445 0 534686 481873 0 495781 439730 0 461064 398917 0 430140 359319 0 402662 320812 0 378322 283263 0 356845 246534 0 337984 210483 0 321519 174962 0 307251 139823 0 295001 104913 0 284606 70077.9 0 275922 35160.3 0 268809 0 0 4.90485e+06 630808 0 3.61224e+06 1.07495e+06 0 2.90387e+06 1.20137e+06 0 2.43108e+06 1.22378e+06 0 2.09099e+06 1.20343e+06 0 1.82872e+06 1.16379e+06 0 1.61802e+06 1.11463e+06 0 1.44335e+06 1.0608e+06 0 1.29532e+06 1.00488e+06 0 1.16784e+06 948374 0 1.05676e+06 892189 0 959144 836898 0 872827 782861 0 796168 730298 0 727882 679331 0 666932 630015 0 612468 582351 0 563776 536303 0 520249 491808 0 481363 448776 0 446660 407104 0 415741 366675 0 388249 327361 0 363870 289027 0 342322 251534 0 323352 214734 0 306733 178481 0 292259 142622 0 279745 107002 0 269022 71465.4 0 259937 35852.2 0 252344 0 0 4.95164e+06 794186 0 3.62401e+06 1.16581e+06 0 2.90432e+06 1.26336e+06 0 2.42593e+06 1.27062e+06 0 2.08301e+06 1.24145e+06 0 1.81893e+06 1.19603e+06 0 1.60701e+06 1.14283e+06 0 1.43143e+06 1.08597e+06 0 1.28271e+06 1.02766e+06 0 1.1547e+06 969191 0 1.0432e+06 911327 0 945262 854556 0 858705 799183 0 781871 745391 0 713464 693277 0 652436 642880 0 597928 594189 0 549215 547162 0 505681 501727 0 466795 457793 0 432091 415251 0 401160 373981 0 373640 333854 0 349209 294731 0 327578 256470 0 308487 218924 0 291702 181941 0 277013 145368 0 264225 109047 0 253162 72820.9 0 243667 36526.6 0 235584 0 0 4.99164e+06 960630 0 3.63356e+06 1.25761e+06 0 2.90386e+06 1.32578e+06 0 2.42043e+06 1.31771e+06 0 2.07493e+06 1.27967e+06 0 1.80915e+06 1.22845e+06 0 1.59606e+06 1.17119e+06 0 1.41959e+06 1.11129e+06 0 1.27019e+06 1.0506e+06 0 1.14162e+06 990152 0 1.02969e+06 930595 0 931413 872328 0 844592 815601 0 767560 760560 0 699008 707281 0 637879 655783 0 583304 606048 0 534549 558024 0 490990 511635 0 452086 466783 0 417363 423359 0 386406 381240 0 358845 340291 0 334349 300375 0 312624 261345 0 293402 223052 0 276443 185343 0 261527 148061 0 248456 111049 0 237046 74144.3 0 227130 37183.6 0 218547 0 0 5.02475e+06 1.12976e+06 0 3.6409e+06 1.35024e+06 0 2.90249e+06 1.38858e+06 0 2.41461e+06 1.36502e+06 0 2.06674e+06 1.31806e+06 0 1.79939e+06 1.26104e+06 0 1.58518e+06 1.19972e+06 0 1.40784e+06 1.13678e+06 0 1.25775e+06 1.07369e+06 0 1.12863e+06 1.01126e+06 0 1.01625e+06 949994 0 917606 890217 0 830497 832118 0 753242 775811 0 684520 721346 0 623267 668730 0 568603 617932 0 519786 568893 0 476182 521533 0 437243 475751 0 402487 431432 0 371490 388452 0 343875 346675 0 319304 305960 0 297474 266159 0 278111 227119 0 260969 188687 0 245819 150703 0 232457 113007 0 220690 75435.8 0 210346 37823 0 201253 0 0 5.05089e+06 1.30117e+06 0 3.64604e+06 1.4436e+06 0 2.90023e+06 1.45173e+06 0 2.40847e+06 1.41254e+06 0 2.05848e+06 1.35663e+06 0 1.78966e+06 1.29379e+06 0 1.57438e+06 1.22841e+06 0 1.3962e+06 1.16243e+06 0 1.24542e+06 1.09693e+06 0 1.11573e+06 1.03251e+06 0 1.00288e+06 969528 0 903848 908225 0 816427 848738 0 738924 791146 0 670008 735477 0 608607 681723 0 553832 629843 0 504932 579772 0 461266 531425 0 422276 484697 0 387472 439472 0 356422 395621 0 328741 353008 0 304084 311488 0 282140 270912 0 262629 231126 0 245295 191973 0 229905 153292 0 216244 114922 0 204114 76694.9 0 193333 38444.7 0 183722 0 0 5.07e+06 1.47448e+06 0 3.64899e+06 1.5376e+06 0 2.8971e+06 1.5152e+06 0 2.40204e+06 1.46026e+06 0 2.05015e+06 1.39538e+06 0 1.77999e+06 1.32671e+06 0 1.56368e+06 1.25726e+06 0 1.38467e+06 1.18824e+06 0 1.2332e+06 1.12033e+06 0 1.10293e+06 1.05391e+06 0 989585 989199 0 890148 926356 0 802390 865465 0 724613 806570 0 655479 749678 0 593906 694766 0 538998 641786 0 489996 590665 0 446249 541314 0 407191 493625 0 372325 447480 0 341210 402748 0 313453 359289 0 288701 316959 0 266636 275605 0 246970 235073 0 229438 195201 0 213801 155829 0 199835 116792 0 187336 77921.3 0 176111 39048.4 0 165974 0 0 5.08201e+06 1.64928e+06 0 3.64975e+06 1.63215e+06 0 2.89309e+06 1.57894e+06 0 2.39532e+06 1.50818e+06 0 2.04176e+06 1.43429e+06 0 1.77037e+06 1.35979e+06 0 1.55309e+06 1.28628e+06 0 1.37327e+06 1.21421e+06 0 1.2211e+06 1.14389e+06 0 1.09023e+06 1.07546e+06 0 976384 1.00901e+06 0 876515 944612 0 788394 882301 0 710317 822085 0 640939 763951 0 579171 707863 0 524109 653763 0 474984 601574 0 431139 551202 0 391999 502537 0 357058 455459 0 325866 409834 0 298024 365521 0 273169 322374 0 250975 280239 0 231147 238959 0 213413 198371 0 197524 158313 0 183249 118617 0 170374 79114.6 0 158700 39633.7 0 148030 0 0 5.08691e+06 1.82516e+06 0 3.64833e+06 1.72716e+06 0 2.88823e+06 1.64293e+06 0 2.38834e+06 1.55627e+06 0 2.03334e+06 1.47336e+06 0 1.76083e+06 1.39303e+06 0 1.54263e+06 1.31545e+06 0 1.362e+06 1.24034e+06 0 1.20914e+06 1.16761e+06 0 1.07767e+06 1.09716e+06 0 963283 1.02896e+06 0 862956 962998 0 774446 899250 0 696043 837697 0 626396 778302 0 564410 721019 0 509171 665780 0 459905 612504 0 415945 561093 0 376707 511436 0 341678 463410 0 310400 416880 0 282463 371705 0 257498 327734 0 235171 284814 0 215177 242784 0 197236 201483 0 181091 160743 0 166503 120397 0 153249 80274.1 0 141121 40200.3 0 129911 0 0 5.08469e+06 2.00174e+06 0 3.64474e+06 1.82253e+06 0 2.88252e+06 1.70712e+06 0 2.38111e+06 1.60453e+06 0 2.02489e+06 1.51258e+06 0 1.75138e+06 1.42642e+06 0 1.5323e+06 1.34478e+06 0 1.35089e+06 1.26664e+06 0 1.19733e+06 1.19148e+06 0 1.06523e+06 1.11901e+06 0 950292 1.04906e+06 0 849481 981516 0 760555 916317 0 681799 853408 0 611858 792735 0 549628 734236 0 494191 677838 0 444765 623456 0 400673 570989 0 361324 520324 0 326196 471336 0 294822 423889 0 266783 377840 0 241703 333039 0 219237 289329 0 199073 246549 0 180922 204535 0 164519 163119 0 149615 122131 0 135979 81398.8 0 123393 40747.7 0 111638 0 0 5.07534e+06 2.17859e+06 0 3.639e+06 1.91817e+06 0 2.87598e+06 1.77148e+06 0 2.37364e+06 1.65294e+06 0 2.01643e+06 1.55195e+06 0 1.74204e+06 1.45997e+06 0 1.52211e+06 1.37427e+06 0 1.33994e+06 1.29309e+06 0 1.18567e+06 1.21551e+06 0 1.05293e+06 1.14102e+06 0 937418 1.0693e+06 0 836099 1.00017e+06 0 746729 933504 0 667593 869223 0 597331 807252 0 534835 747518 0 479179 689943 0 429573 634436 0 385333 580894 0 345860 529203 0 310621 479237 0 279142 430861 0 250995 383928 0 225794 338288 0 203187 293783 0 182850 250251 0 164488 207526 0 147825 165438 0 132605 123817 0 118585 82488 0 105537 41275.2 0 93232.9 0 0 5.05891e+06 2.35532e+06 0 3.6311e+06 2.01401e+06 0 2.86861e+06 1.83598e+06 0 2.36593e+06 1.7015e+06 0 2.00797e+06 1.59146e+06 0 1.7328e+06 1.49366e+06 0 1.51209e+06 1.40392e+06 0 1.32916e+06 1.3197e+06 0 1.17418e+06 1.23971e+06 0 1.04078e+06 1.16319e+06 0 924673 1.08969e+06 0 822817 1.01896e+06 0 732977 950816 0 653433 885146 0 582824 821858 0 520037 760871 0 464140 702097 0 414335 645445 0 369932 590809 0 330321 538075 0 294962 487116 0 263371 437796 0 235110 389969 0 209785 343482 0 187033 298177 0 166524 253891 0 147950 210455 0 131028 167701 0 115490 125454 0 101085 83540.4 0 87574.5 41782.2 0 74717.7 0 0 5.03543e+06 2.53152e+06 0 3.62108e+06 2.10994e+06 0 2.86042e+06 1.90058e+06 0 2.358e+06 1.75019e+06 0 1.99951e+06 1.6311e+06 0 1.72368e+06 1.5275e+06 0 1.50223e+06 1.43372e+06 0 1.31857e+06 1.34647e+06 0 1.16287e+06 1.26406e+06 0 1.02879e+06 1.18551e+06 0 912063 1.11024e+06 0 809646 1.03789e+06 0 719305 968256 0 639326 901180 0 568344 836558 0 505241 774296 0 449082 714304 0 399061 656486 0 354479 600738 0 314718 546943 0 279229 494974 0 247518 444696 0 219140 395963 0 193687 348620 0 170790 302509 0 150108 257466 0 131323 213322 0 114143 169905 0 98289.2 127041 0 83499.5 84554.8 0 69525.7 42267.9 0 56114 0 0 5.00498e+06 2.7068e+06 0 3.60892e+06 2.2059e+06 0 2.85142e+06 1.96525e+06 0 2.34986e+06 1.799e+06 0 1.99107e+06 1.67087e+06 0 1.71469e+06 1.56149e+06 0 1.49255e+06 1.46367e+06 0 1.30816e+06 1.37339e+06 0 1.15174e+06 1.28858e+06 0 1.01698e+06 1.208e+06 0 899600 1.13094e+06 0 796592 1.05697e+06 0 705724 985827 0 625280 917330 0 553898 851355 0 490456 787799 0 434013 726568 0 383757 667564 0 338981 610682 0 299059 555807 0 263431 502813 0 231595 451562 0 203094 401910 0 177513 353702 0 154471 306779 0 133617 260976 0 114624 216123 0 97187.7 172048 0 81020.6 128576 0 65848.4 85529.9 0 51411.5 42731.5 0 37443.9 0 0 4.96765e+06 2.88076e+06 0 3.59466e+06 2.30179e+06 0 2.84162e+06 2.02995e+06 0 2.34151e+06 1.84792e+06 0 1.98264e+06 1.71076e+06 0 1.70585e+06 1.59561e+06 0 1.48305e+06 1.49376e+06 0 1.29796e+06 1.40048e+06 0 1.14081e+06 1.31325e+06 0 1.00534e+06 1.23064e+06 0 887291 1.15179e+06 0 783666 1.0762e+06 0 692240 1.00353e+06 0 611304 933599 0 539494 866252 0 475688 801382 0 418939 738891 0 368431 678680 0 323446 620645 0 283351 564671 0 247576 510632 0 215609 458393 0 186984 407809 0 161274 358727 0 138088 310985 0 117065 264418 0 97867.6 218857 0 80179.6 174129 0 63702.7 130057 0 48151.4 86464.1 0 33252.8 43172 0 18729.9 0 0 4.92353e+06 3.053e+06 0 3.57829e+06 2.39753e+06 0 2.83101e+06 2.09466e+06 0 2.33296e+06 1.89695e+06 0 1.97425e+06 1.75076e+06 0 1.69715e+06 1.62986e+06 0 1.47374e+06 1.524e+06 0 1.28796e+06 1.42771e+06 0 1.13008e+06 1.33808e+06 0 993886 1.25344e+06 0 875145 1.1728e+06 0 770875 1.09557e+06 0 678862 1.02138e+06 0 597405 949990 0 525140 881254 0 460945 815050 0 403869 751278 0 353089 689839 0 307882 630629 0 267603 573535 0 231674 518434 0 199572 465191 0 170820 413662 0 144982 363693 0 121656 315125 0 100467 267792 0 81069.7 221523 0 63135.3 176145 0 46353.6 131481 0 30428.2 87356 0 15070.1 43588.2 0 -5.08838 0 0 </DataArray> 
</PointData> 
<Points> 
<DataArray type="Float32" NumberOfComponents="3"> 