<?xml version="1.0"?> 
<VTKFile type="StructuredGrid" version="0.1"> 
<StructuredGrid WholeExtent="0 15 0 15 0 0"> 
<Piece Extent="0 15 0 15 0 0"> 
<PointData>
<DataArray type="Float32" Name="E" format="ascii" NumberOfComponents="3"> 
-785542 140503 0 -774083 155156 0 -764628 155790 0 -754184 155198 0 -742657 154464 0 -730300 153853 0 -717321 153387 0 -703900 153036 0 -690160 152778 0 -676193 152591 0 -662062 152459 0 -647812 152370 0 -633474 152315 0 -619071 152288 0 -604618 152285 0 -590128 152301 0 -824449 318467 0 -809749 316674 0 -795159 314596 0 -780740 312725 0 -766462 311024 0 -752283 309441 0 -738171 307932 0 -724103 306467 0 -710060 305024 0 -696030 303589 0 -682005 302155 0 -667976 300715 0 -653939 299268 0 -639890 297811 0 -625829 296345 0 -611751 294870 0 -837178 481661 0 -824104 478612 0 -810927 475995 0 -797683 473259 0 -784378 470411 0 -771019 467484 0 -757612 464506 0 -744160 461499 0 -730668 458475 0 -717140 455443 0 -703578 452406 0 -689986 449367 0 -676365 446325 0 -662718 443279 0 -649046 440229 0 -635351 437173 0 -858848 642814 0 -845933 638820 0 -832991 634545 0 -819998 630311 0 -806960 626109 0 -793882 621919 0 -780766 617720 0 -767615 613500 0 -754432 609251 0 -741216 604970 0 -727969 600655 0 -714691 596305 0 -701385 591921 0 -688050 587505 0 -674689 583056 0 -661301 578578 0 -888753 801154 0 -875688 796106 0 -862603 791113 0 -849514 786003 0 -836412 780789 0 -823294 775487 0 -810157 770113 0 -797000 764675 0 -783823 759179 0 -770627 753629 0 -757411 748027 0 -744178 742375 0 -730926 736672 0 -717658 730921 0 -704373 725121 0 -691072 719272 0 -927044 961243 0 -913675 954959 0 -900293 948560 0 -886891 942127 0 -873477 935648 0 -860055 929114 0 -846628 922515 0 -833198 915848 0 -819766 909109 0 -806333 902299 0 -792899 895417 0 -779465 888464 0 -766031 881442 0 -752598 874350 0 -739167 867191 0 -725738 859967 0 -975090 1.12098e+06 0 -961081 1.11368e+06 0 -947082 1.10629e+06 0 -933099 1.09877e+06 0 -919127 1.09115e+06 0 -905165 1.08342e+06 0 -891213 1.07559e+06 0 -877273 1.06767e+06 0 -863344 1.05966e+06 0 -849429 1.05156e+06 0 -835529 1.04337e+06 0 -821646 1.03509e+06 0 -807779 1.02673e+06 0 -793931 1.01829e+06 0 -780101 1.00976e+06 0 -766291 1.00115e+06 0 -1.03412e+06 1.28131e+06 0 -1.01924e+06 1.27288e+06 0 -1.00438e+06 1.26438e+06 0 -989522 1.25577e+06 0 -974690 1.24703e+06 0 -959883 1.23817e+06 0 -945105 1.22919e+06 0 -930360 1.22008e+06 0 -915649 1.21086e+06 0 -900974 1.20151e+06 0 -886336 1.19205e+06 0 -871739 1.18247e+06 0 -857183 1.17277e+06 0 -842670 1.16297e+06 0 -828203 1.15306e+06 0 -813781 1.14305e+06 0 -1.10731e+06 1.4387e+06 0 -1.09114e+06 1.42993e+06 0 -1.075e+06 1.42079e+06 0 -1.05889e+06 1.41143e+06 0 -1.04282e+06 1.4019e+06 0 -1.02679e+06 1.39217e+06 0 -1.0108e+06 1.38226e+06 0 -994864 1.37217e+06 0 -978978 1.36191e+06 0 -963152 1.35148e+06 0 -947387 1.34089e+06 0 -931688 1.33014e+06 0 -916057 1.31924e+06 0 -900496 1.3082e+06 0 -885009 1.297e+06 0 -869599 1.28566e+06 0 -1.19801e+06 1.59203e+06 0 -1.18001e+06 1.58262e+06 0 -1.16204e+06 1.57333e+06 0 -1.1441e+06 1.56376e+06 0 -1.12624e+06 1.55383e+06 0 -1.10845e+06 1.54366e+06 0 -1.09074e+06 1.53319e+06 0 -1.07312e+06 1.52246e+06 0 -1.05559e+06 1.51148e+06 0 -1.03816e+06 1.50025e+06 0 -1.02083e+06 1.48878e+06 0 -1.0036e+06 1.47707e+06 0 -986488 1.46515e+06 0 -969487 1.45301e+06 0 -952601 1.44068e+06 0 -935827 1.42818e+06 0 -1.31444e+06 1.72853e+06 0 -1.29368e+06 1.72253e+06 0 -1.273e+06 1.71477e+06 0 -1.25238e+06 1.70639e+06 0 -1.23181e+06 1.69752e+06 0 -1.21135e+06 1.68803e+06 0 -1.19098e+06 1.67806e+06 0 -1.17075e+06 1.66759e+06 0 -1.15066e+06 1.65667e+06 0 -1.13073e+06 1.64533e+06 0 -1.11096e+06 1.63359e+06 0 -1.09136e+06 1.62149e+06 0 -1.07195e+06 1.60903e+06 0 -1.05273e+06 1.59623e+06 0 -1.03371e+06 1.58311e+06 0 -1.01489e+06 1.56963e+06 0 -1.46558e+06 1.84229e+06 0 -1.44087e+06 1.83713e+06 0 -1.41603e+06 1.83356e+06 0 -1.39127e+06 1.82888e+06 0 -1.36668e+06 1.82303e+06 0 -1.34225e+06 1.81641e+06 0 -1.31804e+06 1.8088e+06 0 -1.29405e+06 1.80037e+06 0 -1.2703e+06 1.79112e+06 0 -1.24681e+06 1.7811e+06 0 -1.22358e+06 1.77036e+06 0 -1.20063e+06 1.75895e+06 0 -1.17795e+06 1.74692e+06 0 -1.15556e+06 1.73433e+06 0 -1.13346e+06 1.72124e+06 0 -1.11164e+06 1.70774e+06 0 -1.67382e+06 1.88066e+06 0 -1.64315e+06 1.89759e+06 0 -1.61239e+06 1.90522e+06 0 -1.58131e+06 1.91034e+06 0 -1.55011e+06 1.91323e+06 0 -1.51902e+06 1.91358e+06 0 -1.48814e+06 1.91221e+06 0 -1.4576e+06 1.909e+06 0 -1.42749e+06 1.90429e+06 0 -1.39785e+06 1.89816e+06 0 -1.36874e+06 1.89074e+06 0 -1.34017e+06 1.88214e+06 0 -1.31216e+06 1.87243e+06 0 -1.28472e+06 1.86169e+06 0 -1.25785e+06 1.84995e+06 0 -1.23155e+06 1.83724e+06 0 -1.97375e+06 1.73129e+06 0 -1.93475e+06 1.78092e+06 0 -1.89325e+06 1.83237e+06 0 -1.85129e+06 1.87312e+06 0 -1.80919e+06 1.9052e+06 0 -1.76724e+06 1.93064e+06 0 -1.72575e+06 1.94938e+06 0 -1.6848e+06 1.96301e+06 0 -1.64454e+06 1.97194e+06 0 -1.60505e+06 1.97699e+06 0 -1.5664e+06 1.97872e+06 0 -1.52866e+06 1.97761e+06 0 -1.49184e+06 1.97408e+06 0 -1.45599e+06 1.96848e+06 0 -1.4211e+06 1.96111e+06 0 -1.38716e+06 1.95225e+06 0 -2.41781e+06 965563 0 -2.39554e+06 1.17534e+06 0 -2.35422e+06 1.34493e+06 0 -2.29881e+06 1.48985e+06 0 -2.2362e+06 1.61051e+06 0 -2.17014e+06 1.70933e+06 0 -2.1034e+06 1.79035e+06 0 -2.03775e+06 1.85539e+06 0 -1.97406e+06 1.90727e+06 0 -1.91284e+06 1.94779e+06 0 -1.85423e+06 1.9787e+06 0 -1.79824e+06 2.00149e+06 0 -1.74476e+06 2.01737e+06 0 -1.69367e+06 2.02742e+06 0 -1.64482e+06 2.03253e+06 0 -1.59808e+06 2.03342e+06 0 -2.94732e+06 476783 0 -2.89877e+06 -336277 0 -2.94349e+06 -436613 0 -2.95974e+06 -73910.2 0 -2.92941e+06 342256 0 -2.86455e+06 719445 0 -2.77347e+06 1.03876e+06 0 -2.66932e+06 1.28825e+06 0 -2.5596e+06 1.48696e+06 0 -2.45039e+06 1.63919e+06 0 -2.34488e+06 1.75809e+06 0 -2.24505e+06 1.8493e+06 0 -2.15167e+06 1.9193e+06 0 -2.06489e+06 1.97227e+06 0 -1.98447e+06 2.01149e+06 0 -1.90998e+06 2.03949e+06 0 </DataArray> 
</PointData> 
<Points> 
<DataArray type="Float32" NumberOfComponents="3"> 
0.0125 0.062 0 0.0125 0.0632 0 0.0125 0.0644 0 0.0125 0.0656 0 0.0125 0.0668 0 0.0125 0.068 0 0.0125 0.0692 0 0.0125 0.0704 0 0.0125 0.0716 0 0.0125 0.0728 0 0.0125 0.074 0 0.0125 0.0752 0 0.0125 0.0764 0 0.0125 0.0776 0 0.0125 0.0788 0 0.0125 0.08 0 0.0265 0.0608667 0 0.0263556 0.0620311 0 0.0262111 0.0631956 0 0.0260667 0.06436 0 0.0259222 0.0655244 0 0.0257778 0.0666889 0 0.0256333 0.0678533 0 0.0254889 0.0690178 0 0.0253444 0.0701822 0 0.0252 0.0713467 0 0.0250556 0.0725111 0 0.0249111 0.0736756 0 0.0247667 0.07484 0 0.0246222 0.0760044 0 0.0244778 0.0771689 0 0.0243333 0.0783333 0 0.0405 0.0597333 0 0.0402111 0.0608622 0 0.0399222 0.0619911 0 0.0396333 0.06312 0 0.0393444 0.0642489 0 0.0390556 0.0653778 0 0.0387667 0.0665067 0 0.0384778 0.0676356 0 0.0381889 0.0687644 0 0.0379 0.0698933 0 0.0376111 0.0710222 0 0.0373222 0.0721511 0 0.0370333 0.07328 0 0.0367444 0.0744089 0 0.0364556 0.0755378 0 0.0361667 0.0766667 0 0.0545 0.0586 0 0.0540667 0.0596933 0 0.0536333 0.0607867 0 0.0532 0.06188 0 0.0527667 0.0629733 0 0.0523333 0.0640667 0 0.0519 0.06516 0 0.0514667 0.0662533 0 0.0510333 0.0673467 0 0.0506 0.06844 0 0.0501667 0.0695333 0 0.0497333 0.0706267 0 0.0493 0.07172 0 0.0488667 0.0728133 0 0.0484333 0.0739067 0 0.048 0.075 0 0.0685 0.0574667 0 0.0679222 0.0585244 0 0.0673444 0.0595822 0 0.0667667 0.06064 0 0.0661889 0.0616978 0 0.0656111 0.0627556 0 0.0650333 0.0638133 0 0.0644556 0.0648711 0 0.0638778 0.0659289 0 0.0633 0.0669867 0 0.0627222 0.0680444 0 0.0621444 0.0691022 0 0.0615667 0.07016 0 0.0609889 0.0712178 0 0.0604111 0.0722756 0 0.0598333 0.0733333 0 0.0825 0.0563333 0 0.0817778 0.0573556 0 0.0810556 0.0583778 0 0.0803333 0.0594 0 0.0796111 0.0604222 0 0.0788889 0.0614444 0 0.0781667 0.0624667 0 0.0774444 0.0634889 0 0.0767222 0.0645111 0 0.076 0.0655333 0 0.0752778 0.0665556 0 0.0745556 0.0675778 0 0.0738333 0.0686 0 0.0731111 0.0696222 0 0.0723889 0.0706444 0 0.0716667 0.0716667 0 0.0965 0.0552 0 0.0956333 0.0561867 0 0.0947667 0.0571733 0 0.0939 0.05816 0 0.0930333 0.0591467 0 0.0921667 0.0601333 0 0.0913 0.06112 0 0.0904333 0.0621067 0 0.0895667 0.0630933 0 0.0887 0.06408 0 0.0878333 0.0650667 0 0.0869667 0.0660533 0 0.0861 0.06704 0 0.0852333 0.0680267 0 0.0843667 0.0690133 0 0.0835 0.07 0 0.1105 0.0540667 0 0.109489 0.0550178 0 0.108478 0.0559689 0 0.107467 0.05692 0 0.106456 0.0578711 0 0.105444 0.0588222 0 0.104433 0.0597733 0 0.103422 0.0607244 0 0.102411 0.0616756 0 0.1014 0.0626267 0 0.100389 0.0635778 0 0.0993778 0.0645289 0 0.0983667 0.06548 0 0.0973556 0.0664311 0 0.0963444 0.0673822 0 0.0953333 0.0683333 0 0.1245 0.0529333 0 0.123344 0.0538489 0 0.122189 0.0547644 0 0.121033 0.05568 0 0.119878 0.0565956 0 0.118722 0.0575111 0 0.117567 0.0584267 0 0.116411 0.0593422 0 0.115256 0.0602578 0 0.1141 0.0611733 0 0.112944 0.0620889 0 0.111789 0.0630044 0 0.110633 0.06392 0 0.109478 0.0648356 0 0.108322 0.0657511 0 0.107167 0.0666667 0 0.1385 0.0518 0 0.1372 0.05268 0 0.1359 0.05356 0 0.1346 0.05444 0 0.1333 0.05532 0 0.132 0.0562 0 0.1307 0.05708 0 0.1294 0.05796 0 0.1281 0.05884 0 0.1268 0.05972 0 0.1255 0.0606 0 0.1242 0.06148 0 0.1229 0.06236 0 0.1216 0.06324 0 0.1203 0.06412 0 0.119 0.065 0 0.1525 0.0506667 0 0.151056 0.0515111 0 0.149611 0.0523556 0 0.148167 0.0532 0 0.146722 0.0540444 0 0.145278 0.0548889 0 0.143833 0.0557333 0 0.142389 0.0565778 0 0.140944 0.0574222 0 0.1395 0.0582667 0 0.138056 0.0591111 0 0.136611 0.0599556 0 0.135167 0.0608 0 0.133722 0.0616444 0 0.132278 0.0624889 0 0.130833 0.0633333 0 0.1665 0.0495333 0 0.164911 0.0503422 0 0.163322 0.0511511 0 0.161733 0.05196 0 0.160144 0.0527689 0 0.158556 0.0535778 0 0.156967 0.0543867 0 0.155378 0.0551956 0 0.153789 0.0560044 0 0.1522 0.0568133 0 0.150611 0.0576222 0 0.149022 0.0584311 0 0.147433 0.05924 0 0.145844 0.0600489 0 0.144256 0.0608578 0 0.142667 0.0616667 0 0.1805 0.0484 0 0.178767 0.0491733 0 0.177033 0.0499467 0 0.1753 0.05072 0 0.173567 0.0514933 0 0.171833 0.0522667 0 0.1701 0.05304 0 0.168367 0.0538133 0 0.166633 0.0545867 0 0.1649 0.05536 0 0.163167 0.0561333 0 0.161433 0.0569067 0 0.1597 0.05768 0 0.157967 0.0584533 0 0.156233 0.0592267 0 0.1545 0.06 0 0.1945 0.0472667 0 0.192622 0.0480044 0 0.190744 0.0487422 0 0.188867 0.04948 0 0.186989 0.0502178 0 0.185111 0.0509556 0 0.183233 0.0516933 0 0.181356 0.0524311 0 0.179478 0.0531689 0 0.1776 0.0539067 0 0.175722 0.0546444 0 0.173844 0.0553822 0 0.171967 0.05612 0 0.170089 0.0568578 0 0.168211 0.0575956 0 0.166333 0.0583333 0 0.2085 0.0461333 0 0.206478 0.0468356 0 0.204456 0.0475378 0 0.202433 0.04824 0 0.200411 0.0489422 0 0.198389 0.0496444 0 0.196367 0.0503467 0 0.194344 0.0510489 0 0.192322 0.0517511 0 0.1903 0.0524533 0 0.188278 0.0531556 0 0.186256 0.0538578 0 0.184233 0.05456 0 0.182211 0.0552622 0 0.180189 0.0559644 0 0.178167 0.0566667 0 0.2225 0.045 0 0.220333 0.0456667 0 0.218167 0.0463333 0 0.216 0.047 0 0.213833 0.0476667 0 0.211667 0.0483333 0 0.2095 0.049 0 0.207333 0.0496667 0 0.205167 0.0503333 0 0.203 0.051 0 0.200833 0.0516667 0 0.198667 0.0523333 0 0.1965 0.053 0 0.194333 0.0536667 0 0.192167 0.0543333 0 0.19 0.055 0 
</DataArray>
</Points> 
</Piece> 
</StructuredGrid> 
</VTKFile> 
