<?xml version="1.0"?> 
<VTKFile type="StructuredGrid" version="0.1"> 
<StructuredGrid WholeExtent="0 15 0 15 0 0"> 
<Piece Extent="0 15 0 15 0 0"> 
<PointData>
<DataArray type="Float32" Name="E" format="ascii" NumberOfComponents="3"> 
-1.07568e+06 -1.7089e+06 0 -737354 -1.33531e+06 0 -609831 -1.23382e+06 0 -531039 -1.19375e+06 0 -464494 -1.17513e+06 0 -400614 -1.16651e+06 0 -335958 -1.16375e+06 0 -269116 -1.16535e+06 0 -198781 -1.17085e+06 0 -123162 -1.18068e+06 0 -39009.4 -1.19636e+06 0 60116.8 -1.22144e+06 0 188750 -1.26511e+06 0 383699 -1.35542e+06 0 756511 -1.59416e+06 0 1.69607e+06 -2.38961e+06 0 -845110 -648738 0 -776882 -664825 0 -698983 -690992 0 -621058 -711307 0 -545349 -724877 0 -471995 -732754 0 -400560 -735846 0 -330418 -734581 0 -260956 -728877 0 -191660 -718197 0 -122240 -701574 0 -52859.9 -677692 0 15289.8 -645275 0 78545.1 -604632 0 126220 -563705 0 125101 -561830 0 -732392 -252474 0 -676501 -299125 0 -620872 -327314 0 -566071 -350648 0 -512106 -370579 0 -459096 -386899 0 -407234 -399309 0 -356754 -407638 0 -307922 -411857 0 -261052 -412028 0 -216518 -408296 0 -174759 -400843 0 -136228 -389647 0 -101258 -373424 0 -69726.7 -345209 0 -40387 -274251 0 -568467 22906.6 0 -529025 -16829.1 0 -491970 -58537.9 0 -455780 -95153.6 0 -420257 -126320 0 -385415 -152516 0 -351319 -174213 0 -318078 -191792 0 -285837 -205543 0 -254769 -215719 0 -225067 -222547 0 -196940 -226281 0 -170597 -227344 0 -146208 -226926 0 -123636 -229416 0 -101145 -252362 0 -318692 174593 0 -317721 121838 0 -311059 79313.6 0 -300873 42310.8 0 -288118 9834.7 0 -273462 -18538 0 -257444 -43131.9 0 -240514 -64246.8 0 -223050 -82175.3 0 -205373 -97201.5 0 -187752 -109607 0 -170407 -119662 0 -153514 -127565 0 -137252 -133147 0 -122064 -134631 0 -109923 -123449 0 -141259 143606 0 -155162 121464 0 -164618 97107.7 0 -169822 73336.1 0 -171476 50861.4 0 -170245 29969.1 0 -166689 10801.3 0 -161287 -6578.33 0 -154446 -22156.4 0 -146520 -35957.9 0 -137815 -48034.3 0 -128603 -58459.4 0 -119122 -67352.7 0 -109555 -75015.5 0 -99828.2 -82537.2 0 -88684.5 -94376.5 0 -68280.8 93597.6 0 -78664.4 82940.5 0 -87123.3 71905.1 0 -93764 60036.6 0 -98534.2 47698.7 0 -101480 35281.8 0 -102734 23099.9 0 -102472 11388.2 0 -100888 313.379 0 -98176.9 -10013.6 0 -94524 -19528 0 -90096.7 -28201.7 0 -85041.9 -36023.7 0 -79501.2 -42930.1 0 -73739.2 -48511.9 0 -68771.2 -50771.7 0 -34448 60015.2 0 -41777 55291.6 0 -48214.2 49386.5 0 -53584.9 42842.2 0 -57885.9 35842.1 0 -61131 28540.8 0 -63344.6 21093.1 0 -64571.1 13645.5 0 -64873.3 6329.36 0 -64329.2 -744.078 0 -63027.6 -7484.21 0 -61064.5 -13820.6 0 -58540 -19706.2 0 -55545.7 -25142.5 0 -52084.4 -30304.8 0 -47674 -36100.9 0 -19224.5 38069.3 0 -23831.4 35575.2 0 -28042.4 32576.8 0 -31809.9 29020.6 0 -35041.7 25009.3 0 -37679.9 20656 0 -39698.9 16067.5 0 -41094.3 11342.8 0 -41878.1 6572.11 0 -42074.4 1835.87 0 -41716.4 -2796.08 0 -40842.2 -7265.15 0 -39491.8 -11522.2 0 -37709.2 -15515.9 0 -35585.2 -19139.1 0 -33492.8 -21994.6 0 -11138.3 24707.1 0 -14202.9 23334.5 0 -17068.9 21542.2 0 -19657.3 19409.9 0 -21932 16977.2 0 -23860.5 14290.1 0 -25415.3 11401.5 0 -26578.6 8367.85 0 -27342.8 5246.02 0 -27709.6 2090.76 0 -27689.3 -1046.62 0 -27300 -4119.24 0 -26566.4 -7085.96 0 -25517.1 -9915.69 0 -24158.4 -12606.7 0 -22337.1 -15269.6 0 -6614.05 15961.8 0 -8711.52 15193.7 0 -10672.9 14161 0 -12477.5 12876.9 0 -14089.5 11370.2 0 -15479.8 9673.36 0 -16627 7820.53 0 -17515.4 5847.4 0 -18135.1 3790.34 0 -18481.7 1685.52 0 -18555.8 -431.981 0 -18362.2 -2528.94 0 -17908.9 -4574.35 0 -17207 -6538.48 0 -16282.7 -8387.68 0 -15252.6 -10065.6 0 -4218.4 10320.7 0 -5623.18 9860.52 0 -6970.12 9231.38 0 -8221.2 8438.54 0 -9351.97 7494.69 0 -10340.9 6416.74 0 -11169.5 5224.81 0 -11823 3941.27 0 -12291.3 2589.85 0 -12567.9 1194.9 0 -12650.4 -219.221 0 -12540.5 -1628.78 0 -12243.6 -3011.22 0 -11768.5 -4345.87 0 -11120.7 -5614.5 0 -10261.5 -6796.85 0 -2736.47 6451.37 0 -3767.76 6216.84 0 -4741.98 5854.03 0 -5647.56 5377.57 0 -6467.95 4797.18 0 -7187.8 4124.1 0 -7793.88 3371.22 0 -8275.12 2552.91 0 -8622.94 1684.6 0 -8831.42 782.439 0 -8897.32 -137.152 0 -8819.98 -1057.78 0 -8601.01 -1963.38 0 -8244.09 -2838.46 0 -7757.76 -3669.5 0 -7175.61 -4457.24 0 -1984.89 3767.5 0 -2741 3638.68 0 -3468.29 3444.52 0 -4149.02 3179.74 0 -4768.92 2848.76 0 -5315.17 2458.01 0 -5776.47 2015.27 0 -6143.35 1529.41 0 -6408.3 1010.08 0 -6565.93 467.494 0 -6613.01 -87.8562 0 -6548.53 -645.444 0 -6373.74 -1195 0 -6092.14 -1726.69 0 -5708.01 -2229.89 0 -5217.08 -2680.49 0 -1560.13 1694.63 0 -2182.47 1670.34 0 -2781.72 1596.22 0 -3344.76 1483.52 0 -3859.27 1336.06 0 -4313.88 1157.57 0 -4698.43 952.174 0 -5004.23 724.39 0 -5224.27 479.124 0 -5353.36 221.554 0 -5388.21 -42.9708 0 -5327.46 -309.014 0 -5171.65 -571.129 0 -4923.18 -823.963 0 -4586.58 -1063.62 0 -4170.2 -1300.03 0 -1320.37 7.15256e-07 0 -1910.38 -6.03031e-08 0 -2478.89 -5.9139e-08 0 -3018.25 1.30385e-07 0 -3514.9 -1.50874e-07 0 -3956.08 9.31323e-08 0 -4330.73 -1.56462e-07 0 -4629.42 2.86847e-07 0 -4844.56 -3.12924e-07 0 -4970.51 2.5332e-07 0 -5003.67 -2.08616e-07 0 -4942.46 2.5332e-07 0 -4787.29 -2.98023e-07 0 -4540.09 2.23517e-07 0 -4205.16 -8.9407e-08 0 -3802.12 -9.53674e-07 0 </DataArray> 
</PointData> 
<Points> 
<DataArray type="Float32" NumberOfComponents="3"> 
0.253 0.027 0 0.252967 0.0275333 0 0.252933 0.0280667 0 0.2529 0.0286 0 0.252867 0.0291333 0 0.252833 0.0296667 0 0.2528 0.0302 0 0.252767 0.0307333 0 0.252733 0.0312667 0 0.2527 0.0318 0 0.252667 0.0323333 0 0.252633 0.0328667 0 0.2526 0.0334 0 0.252567 0.0339333 0 0.252533 0.0344667 0 0.2525 0.035 0 0.256267 0.02656 0 0.256236 0.0271351 0 0.256204 0.0277102 0 0.256173 0.0282853 0 0.256142 0.0288604 0 0.256111 0.0294356 0 0.25608 0.0300107 0 0.256049 0.0305858 0 0.256018 0.0311609 0 0.255987 0.031736 0 0.255956 0.0323111 0 0.255924 0.0328862 0 0.255893 0.0334613 0 0.255862 0.0340364 0 0.255831 0.0346116 0 0.2558 0.0351867 0 0.259533 0.02612 0 0.259504 0.0267369 0 0.259476 0.0273538 0 0.259447 0.0279707 0 0.259418 0.0285876 0 0.259389 0.0292044 0 0.25936 0.0298213 0 0.259331 0.0304382 0 0.259302 0.0310551 0 0.259273 0.031672 0 0.259244 0.0322889 0 0.259216 0.0329058 0 0.259187 0.0335227 0 0.259158 0.0341396 0 0.259129 0.0347564 0 0.2591 0.0353733 0 0.2628 0.02568 0 0.262773 0.0263387 0 0.262747 0.0269973 0 0.26272 0.027656 0 0.262693 0.0283147 0 0.262667 0.0289733 0 0.26264 0.029632 0 0.262613 0.0302907 0 0.262587 0.0309493 0 0.26256 0.031608 0 0.262533 0.0322667 0 0.262507 0.0329253 0 0.26248 0.033584 0 0.262453 0.0342427 0 0.262427 0.0349013 0 0.2624 0.03556 0 0.266067 0.02524 0 0.266042 0.0259404 0 0.266018 0.0266409 0 0.265993 0.0273413 0 0.265969 0.0280418 0 0.265944 0.0287422 0 0.26592 0.0294427 0 0.265896 0.0301431 0 0.265871 0.0308436 0 0.265847 0.031544 0 0.265822 0.0322444 0 0.265798 0.0329449 0 0.265773 0.0336453 0 0.265749 0.0343458 0 0.265724 0.0350462 0 0.2657 0.0357467 0 0.269333 0.0248 0 0.269311 0.0255422 0 0.269289 0.0262844 0 0.269267 0.0270267 0 0.269244 0.0277689 0 0.269222 0.0285111 0 0.2692 0.0292533 0 0.269178 0.0299956 0 0.269156 0.0307378 0 0.269133 0.03148 0 0.269111 0.0322222 0 0.269089 0.0329644 0 0.269067 0.0337067 0 0.269044 0.0344489 0 0.269022 0.0351911 0 0.269 0.0359333 0 0.2726 0.02436 0 0.27258 0.025144 0 0.27256 0.025928 0 0.27254 0.026712 0 0.27252 0.027496 0 0.2725 0.02828 0 0.27248 0.029064 0 0.27246 0.029848 0 0.27244 0.030632 0 0.27242 0.031416 0 0.2724 0.0322 0 0.27238 0.032984 0 0.27236 0.033768 0 0.27234 0.034552 0 0.27232 0.035336 0 0.2723 0.03612 0 0.275867 0.02392 0 0.275849 0.0247458 0 0.275831 0.0255716 0 0.275813 0.0263973 0 0.275796 0.0272231 0 0.275778 0.0280489 0 0.27576 0.0288747 0 0.275742 0.0297004 0 0.275724 0.0305262 0 0.275707 0.031352 0 0.275689 0.0321778 0 0.275671 0.0330036 0 0.275653 0.0338293 0 0.275636 0.0346551 0 0.275618 0.0354809 0 0.2756 0.0363067 0 0.279133 0.02348 0 0.279118 0.0243476 0 0.279102 0.0252151 0 0.279087 0.0260827 0 0.279071 0.0269502 0 0.279056 0.0278178 0 0.27904 0.0286853 0 0.279024 0.0295529 0 0.279009 0.0304204 0 0.278993 0.031288 0 0.278978 0.0321556 0 0.278962 0.0330231 0 0.278947 0.0338907 0 0.278931 0.0347582 0 0.278916 0.0356258 0 0.2789 0.0364933 0 0.2824 0.02304 0 0.282387 0.0239493 0 0.282373 0.0248587 0 0.28236 0.025768 0 0.282347 0.0266773 0 0.282333 0.0275867 0 0.28232 0.028496 0 0.282307 0.0294053 0 0.282293 0.0303147 0 0.28228 0.031224 0 0.282267 0.0321333 0 0.282253 0.0330427 0 0.28224 0.033952 0 0.282227 0.0348613 0 0.282213 0.0357707 0 0.2822 0.03668 0 0.285667 0.0226 0 0.285656 0.0235511 0 0.285644 0.0245022 0 0.285633 0.0254533 0 0.285622 0.0264044 0 0.285611 0.0273556 0 0.2856 0.0283067 0 0.285589 0.0292578 0 0.285578 0.0302089 0 0.285567 0.03116 0 0.285556 0.0321111 0 0.285544 0.0330622 0 0.285533 0.0340133 0 0.285522 0.0349644 0 0.285511 0.0359156 0 0.2855 0.0368667 0 0.288933 0.02216 0 0.288924 0.0231529 0 0.288916 0.0241458 0 0.288907 0.0251387 0 0.288898 0.0261316 0 0.288889 0.0271244 0 0.28888 0.0281173 0 0.288871 0.0291102 0 0.288862 0.0301031 0 0.288853 0.031096 0 0.288844 0.0320889 0 0.288836 0.0330818 0 0.288827 0.0340747 0 0.288818 0.0350676 0 0.288809 0.0360604 0 0.2888 0.0370533 0 0.2922 0.02172 0 0.292193 0.0227547 0 0.292187 0.0237893 0 0.29218 0.024824 0 0.292173 0.0258587 0 0.292167 0.0268933 0 0.29216 0.027928 0 0.292153 0.0289627 0 0.292147 0.0299973 0 0.29214 0.031032 0 0.292133 0.0320667 0 0.292127 0.0331013 0 0.29212 0.034136 0 0.292113 0.0351707 0 0.292107 0.0362053 0 0.2921 0.03724 0 0.295467 0.02128 0 0.295462 0.0223564 0 0.295458 0.0234329 0 0.295453 0.0245093 0 0.295449 0.0255858 0 0.295444 0.0266622 0 0.29544 0.0277387 0 0.295436 0.0288151 0 0.295431 0.0298916 0 0.295427 0.030968 0 0.295422 0.0320444 0 0.295418 0.0331209 0 0.295413 0.0341973 0 0.295409 0.0352738 0 0.295404 0.0363502 0 0.2954 0.0374267 0 0.298733 0.02084 0 0.298731 0.0219582 0 0.298729 0.0230764 0 0.298727 0.0241947 0 0.298724 0.0253129 0 0.298722 0.0264311 0 0.29872 0.0275493 0 0.298718 0.0286676 0 0.298716 0.0297858 0 0.298713 0.030904 0 0.298711 0.0320222 0 0.298709 0.0331404 0 0.298707 0.0342587 0 0.298704 0.0353769 0 0.298702 0.0364951 0 0.2987 0.0376133 0 0.302 0.0204 0 0.302 0.02156 0 0.302 0.02272 0 0.302 0.02388 0 0.302 0.02504 0 0.302 0.0262 0 0.302 0.02736 0 0.302 0.02852 0 0.302 0.02968 0 0.302 0.03084 0 0.302 0.032 0 0.302 0.03316 0 0.302 0.03432 0 0.302 0.03548 0 0.302 0.03664 0 0.302 0.0378 0 
</DataArray>
</Points> 
</Piece> 
</StructuredGrid> 
</VTKFile> 
