<?xml version="1.0"?> 
<VTKFile type="StructuredGrid" version="0.1"> 
<StructuredGrid WholeExtent="0 15 0 15 0 0"> 
<Piece Extent="0 15 0 15 0 0"> 
<PointData>
<DataArray type="Float32" Name="E" format="ascii" NumberOfComponents="3"> 
-819886 0 0 -817142 0 0 -814402 0 0 -811667 0 0 -808936 0 0 -806211 0 0 -803490 0 0 -800775 0 0 -798065 0 0 -795360 0 0 -792662 0 0 -789969 0 0 -787282 0 0 -784601 0 0 -781926 0 0 -779258 0 0 -819852 11443.7 0 -816191 11421.6 0 -812538 11396.6 0 -808894 11370 0 -805259 11341.8 0 -801633 11312.2 0 -798016 11281.5 0 -794410 11249.9 0 -790815 11217.4 0 -787230 11184.4 0 -783656 11151 0 -780093 11117.3 0 -776540 11083.6 0 -772999 11049.9 0 -769469 11016.4 0 -765949 10983.4 0 -819747 22910.7 0 -815160 22849.6 0 -810588 22783.1 0 -806030 22711.5 0 -801489 22635.6 0 -796965 22556.1 0 -792457 22474 0 -787968 22389.9 0 -783497 22304.6 0 -779044 22218.6 0 -774609 22132.6 0 -770192 22047 0 -765793 21962.5 0 -761411 21879.2 0 -757047 21797.7 0 -752699 21718.1 0 -819562 34418.5 0 -814035 34300.6 0 -808534 34170 0 -803059 34029.3 0 -797611 33880.7 0 -792192 33726.4 0 -786801 33568.4 0 -781440 33408.4 0 -776108 33248.3 0 -770804 33089.4 0 -765527 32932.9 0 -760278 32780.1 0 -755054 32631.7 0 -749855 32488.4 0 -744680 32350.8 0 -739527 32219.4 0 -819276 45991.2 0 -812794 45788 0 -806354 45562.6 0 -799957 45321 0 -793606 45068.3 0 -787300 44808.9 0 -781041 44547.3 0 -774826 44286.9 0 -768653 44030.9 0 -762522 43781.8 0 -756429 43541.8 0 -750373 43312.2 0 -744351 43094.1 0 -738359 42888.3 0 -732397 42695.1 0 -726461 42514.6 0 -818871 57653.3 0 -811409 57321.5 0 -804018 56959.7 0 -796701 56575.6 0 -789456 56179.6 0 -782282 55780.6 0 -775176 55386 0 -768134 55002.1 0 -761152 54633.4 0 -754223 54283.4 0 -747344 53954.3 0 -740509 53647.4 0 -733714 53363.1 0 -726954 53101.3 0 -720226 52861.6 0 -713525 52643 0 -818292 69411.3 0 -809837 68907.7 0 -801492 68351.1 0 -793263 67770.9 0 -785146 67185.2 0 -777134 66609 0 -769218 66054.5 0 -761387 65529.7 0 -753631 65040.1 0 -745941 64588.4 0 -738307 64175.6 0 -730721 63801.1 0 -723176 63463.5 0 -715666 63160.7 0 -708186 62890.3 0 -700730 62649.7 0 -817522 81332.8 0 -808029 80541 0 -798731 79714.3 0 -789617 78870.3 0 -780667 78042.2 0 -771866 77254 0 -763189 76519.9 0 -754617 75849 0 -746131 75243.4 0 -737715 74702.7 0 -729355 74223.3 0 -721040 73800.9 0 -712761 73430.4 0 -704512 73106.8 0 -696286 72824.8 0 -688080 72580 0 -816422 93329.8 0 -805912 92216.4 0 -795688 91007 0 -785736 89817.2 0 -776025 88695.1 0 -766503 87669 0 -757131 86754 0 -747872 85949.1 0 -738697 85250 0 -729585 84646 0 -720519 84127.4 0 -711487 83683.2 0 -702481 83304.1 0 -693495 82981 0 -684523 82706.4 0 -675561 82473.6 0 -815001 105671 0 -803397 103881 0 -792298 102160 0 -781616 100532 0 -771243 99073.6 0 -761098 97812.6 0 -751101 96738.9 0 -741205 95837.5 0 -731373 95081.9 0 -721583 94452.1 0 -711820 93926.4 0 -702074 93488.7 0 -692338 93124.1 0 -682609 92821 0 -672883 92569.4 0 -663159 92361.3 0 -812914 117865 0 -800343 115505 0 -788517 113049 0 -777264 110900 0 -766390 109110 0 -755720 107653 0 -745167 106483 0 -734667 105539 0 -724195 104779 0 -713729 104162 0 -703265 103662 0 -692796 103256 0 -682321 102925 0 -671839 102657 0 -661349 102440 0 -650852 102265 0 -810174 130984 0 -796577 126856 0 -784299 123488 0 -772774 120791 0 -761564 118743 0 -750473 117201 0 -739393 116017 0 -728302 115105 0 -717180 114386 0 -706029 113822 0 -694849 113373 0 -683643 113017 0 -672414 112734 0 -661166 112510 0 -649900 112334 0 -638619 112197 0 -805996 143073 0 -791827 137771 0 -779736 133155 0 -768306 130073 0 -756927 127985 0 -745437 126496 0 -733834 125410 0 -722123 124584 0 -710333 123956 0 -698472 123467 0 -686557 123090 0 -674596 122796 0 -662599 122569 0 -650571 122395 0 -638518 122263 0 -626443 122166 0 -799261 157980 0 -785810 147138 0 -775180 141697 0 -764148 138743 0 -752622 136899 0 -740683 135646 0 -728499 134720 0 -716134 134043 0 -703636 133523 0 -691042 133134 0 -678369 132834 0 -665636 132610 0 -652855 132442 0 -640036 132318 0 -627185 132231 0 -614308 132173 0 -788632 170052 0 -779354 153400 0 -771210 148953 0 -760709 146973 0 -748681 145688 0 -736236 144723 0 -723377 144040 0 -710311 143509 0 -697074 143128 0 -683715 142835 0 -670266 142623 0 -656743 142466 0 -643166 142357 0 -629545 142283 0 -615888 142239 0 -602202 142218 0 -713444 140503 0 -775799 155156 0 -770046 155790 0 -757337 155198 0 -745432 154464 0 -731909 153853 0 -718498 153387 0 -704606 153036 0 -690626 152778 0 -676469 152591 0 -662226 152459 0 -647901 152370 0 -633517 152315 0 -619085 152288 0 -604616 152285 0 -590115 152301 0 </DataArray> 
</PointData> 
<Points> 
<DataArray type="Float32" NumberOfComponents="3"> 
0 0.062 0 0 0.0622 0 0 0.0624 0 0 0.0626 0 0 0.0628 0 0 0.063 0 0 0.0632 0 0 0.0634 0 0 0.0636 0 0 0.0638 0 0 0.064 0 0 0.0642 0 0 0.0644 0 0 0.0646 0 0 0.0648 0 0 0.065 0 0.000833333 0.062 0 0.000833333 0.0622667 0 0.000833333 0.0625333 0 0.000833333 0.0628 0 0.000833333 0.0630667 0 0.000833333 0.0633333 0 0.000833333 0.0636 0 0.000833333 0.0638667 0 0.000833333 0.0641333 0 0.000833333 0.0644 0 0.000833333 0.0646667 0 0.000833333 0.0649333 0 0.000833333 0.0652 0 0.000833333 0.0654667 0 0.000833333 0.0657333 0 0.000833333 0.066 0 0.00166667 0.062 0 0.00166667 0.0623333 0 0.00166667 0.0626667 0 0.00166667 0.063 0 0.00166667 0.0633333 0 0.00166667 0.0636667 0 0.00166667 0.064 0 0.00166667 0.0643333 0 0.00166667 0.0646667 0 0.00166667 0.065 0 0.00166667 0.0653333 0 0.00166667 0.0656667 0 0.00166667 0.066 0 0.00166667 0.0663333 0 0.00166667 0.0666667 0 0.00166667 0.067 0 0.0025 0.062 0 0.0025 0.0624 0 0.0025 0.0628 0 0.0025 0.0632 0 0.0025 0.0636 0 0.0025 0.064 0 0.0025 0.0644 0 0.0025 0.0648 0 0.0025 0.0652 0 0.0025 0.0656 0 0.0025 0.066 0 0.0025 0.0664 0 0.0025 0.0668 0 0.0025 0.0672 0 0.0025 0.0676 0 0.0025 0.068 0 0.00333333 0.062 0 0.00333333 0.0624667 0 0.00333333 0.0629333 0 0.00333333 0.0634 0 0.00333333 0.0638667 0 0.00333333 0.0643333 0 0.00333333 0.0648 0 0.00333333 0.0652667 0 0.00333333 0.0657333 0 0.00333333 0.0662 0 0.00333333 0.0666667 0 0.00333333 0.0671333 0 0.00333333 0.0676 0 0.00333333 0.0680667 0 0.00333333 0.0685333 0 0.00333333 0.069 0 0.00416667 0.062 0 0.00416667 0.0625333 0 0.00416667 0.0630667 0 0.00416667 0.0636 0 0.00416667 0.0641333 0 0.00416667 0.0646667 0 0.00416667 0.0652 0 0.00416667 0.0657333 0 0.00416667 0.0662667 0 0.00416667 0.0668 0 0.00416667 0.0673333 0 0.00416667 0.0678667 0 0.00416667 0.0684 0 0.00416667 0.0689333 0 0.00416667 0.0694667 0 0.00416667 0.07 0 0.005 0.062 0 0.005 0.0626 0 0.005 0.0632 0 0.005 0.0638 0 0.005 0.0644 0 0.005 0.065 0 0.005 0.0656 0 0.005 0.0662 0 0.005 0.0668 0 0.005 0.0674 0 0.005 0.068 0 0.005 0.0686 0 0.005 0.0692 0 0.005 0.0698 0 0.005 0.0704 0 0.005 0.071 0 0.00583333 0.062 0 0.00583333 0.0626667 0 0.00583333 0.0633333 0 0.00583333 0.064 0 0.00583333 0.0646667 0 0.00583333 0.0653333 0 0.00583333 0.066 0 0.00583333 0.0666667 0 0.00583333 0.0673333 0 0.00583333 0.068 0 0.00583333 0.0686667 0 0.00583333 0.0693333 0 0.00583333 0.07 0 0.00583333 0.0706667 0 0.00583333 0.0713333 0 0.00583333 0.072 0 0.00666667 0.062 0 0.00666667 0.0627333 0 0.00666667 0.0634667 0 0.00666667 0.0642 0 0.00666667 0.0649333 0 0.00666667 0.0656667 0 0.00666667 0.0664 0 0.00666667 0.0671333 0 0.00666667 0.0678667 0 0.00666667 0.0686 0 0.00666667 0.0693333 0 0.00666667 0.0700667 0 0.00666667 0.0708 0 0.00666667 0.0715333 0 0.00666667 0.0722667 0 0.00666667 0.073 0 0.0075 0.062 0 0.0075 0.0628 0 0.0075 0.0636 0 0.0075 0.0644 0 0.0075 0.0652 0 0.0075 0.066 0 0.0075 0.0668 0 0.0075 0.0676 0 0.0075 0.0684 0 0.0075 0.0692 0 0.0075 0.07 0 0.0075 0.0708 0 0.0075 0.0716 0 0.0075 0.0724 0 0.0075 0.0732 0 0.0075 0.074 0 0.00833333 0.062 0 0.00833333 0.0628667 0 0.00833333 0.0637333 0 0.00833333 0.0646 0 0.00833333 0.0654667 0 0.00833333 0.0663333 0 0.00833333 0.0672 0 0.00833333 0.0680667 0 0.00833333 0.0689333 0 0.00833333 0.0698 0 0.00833333 0.0706667 0 0.00833333 0.0715333 0 0.00833333 0.0724 0 0.00833333 0.0732667 0 0.00833333 0.0741333 0 0.00833333 0.075 0 0.00916667 0.062 0 0.00916667 0.0629333 0 0.00916667 0.0638667 0 0.00916667 0.0648 0 0.00916667 0.0657333 0 0.00916667 0.0666667 0 0.00916667 0.0676 0 0.00916667 0.0685333 0 0.00916667 0.0694667 0 0.00916667 0.0704 0 0.00916667 0.0713333 0 0.00916667 0.0722667 0 0.00916667 0.0732 0 0.00916667 0.0741333 0 0.00916667 0.0750667 0 0.00916667 0.076 0 0.01 0.062 0 0.01 0.063 0 0.01 0.064 0 0.01 0.065 0 0.01 0.066 0 0.01 0.067 0 0.01 0.068 0 0.01 0.069 0 0.01 0.07 0 0.01 0.071 0 0.01 0.072 0 0.01 0.073 0 0.01 0.074 0 0.01 0.075 0 0.01 0.076 0 0.01 0.077 0 0.0108333 0.062 0 0.0108333 0.0630667 0 0.0108333 0.0641333 0 0.0108333 0.0652 0 0.0108333 0.0662667 0 0.0108333 0.0673333 0 0.0108333 0.0684 0 0.0108333 0.0694667 0 0.0108333 0.0705333 0 0.0108333 0.0716 0 0.0108333 0.0726667 0 0.0108333 0.0737333 0 0.0108333 0.0748 0 0.0108333 0.0758667 0 0.0108333 0.0769333 0 0.0108333 0.078 0 0.0116667 0.062 0 0.0116667 0.0631333 0 0.0116667 0.0642667 0 0.0116667 0.0654 0 0.0116667 0.0665333 0 0.0116667 0.0676667 0 0.0116667 0.0688 0 0.0116667 0.0699333 0 0.0116667 0.0710667 0 0.0116667 0.0722 0 0.0116667 0.0733333 0 0.0116667 0.0744667 0 0.0116667 0.0756 0 0.0116667 0.0767333 0 0.0116667 0.0778667 0 0.0116667 0.079 0 0.0125 0.062 0 0.0125 0.0632 0 0.0125 0.0644 0 0.0125 0.0656 0 0.0125 0.0668 0 0.0125 0.068 0 0.0125 0.0692 0 0.0125 0.0704 0 0.0125 0.0716 0 0.0125 0.0728 0 0.0125 0.074 0 0.0125 0.0752 0 0.0125 0.0764 0 0.0125 0.0776 0 0.0125 0.0788 0 0.0125 0.08 0 
</DataArray>
</Points> 
</Piece> 
</StructuredGrid> 
</VTKFile> 
