<?xml version="1.0"?> 
<VTKFile type="StructuredGrid" version="0.1"> 
<StructuredGrid WholeExtent="0 15 0 15 0 0"> 
<Piece Extent="0 15 0 15 0 0"> 
<PointData>
<DataArray type="Float32" Name="E" format="ascii" NumberOfComponents="3"> 
-590129 152296 0 -551341 152407 0 -512421 152583 0 -473395 152799 0 -434278 153035 0 -395079 153278 0 -355804 153517 0 -316458 153746 0 -277048 153959 0 -237581 154151 0 -198064 154318 0 -158504 154459 0 -118909 154570 0 -79287.3 154650 0 -39648.1 154699 0 0 154715 0 -611752 294869 0 -571757 297753 0 -531616 300623 0 -491332 303484 0 -450913 306335 0 -410366 309169 0 -369701 311977 0 -328925 314751 0 -288049 317483 0 -247083 320165 0 -206036 322790 0 -164921 325351 0 -123748 327843 0 -82528.3 330261 0 -41274.9 332600 0 0 334858 0 -635352 437166 0 -594164 442766 0 -552779 448407 0 -511196 454059 0 -469419 459700 0 -427454 465313 0 -385309 470880 0 -342995 476384 0 -300524 481812 0 -257909 487150 0 -215162 492385 0 -172299 497505 0 -129335 502500 0 -86285.8 507360 0 -43168.3 512076 0 0 516642 0 -661302 578570 0 -619074 587280 0 -576518 596028 0 -533647 604782 0 -490475 613513 0 -447014 622195 0 -403279 630802 0 -359282 639310 0 -315040 647696 0 -270569 655939 0 -225886 664017 0 -181010 671913 0 -135962 679607 0 -90762.2 687083 0 -45433.7 694325 0 0 701319 0 -691073 719270 0 -647738 731544 0 -603945 743834 0 -559708 756111 0 -515038 768341 0 -469951 780490 0 -424458 792526 0 -378577 804415 0 -332325 816126 0 -285719 827626 0 -238783 838885 0 -191537 849872 0 -144008 860558 0 -96222.7 870916 0 -48209.5 880918 0 0 890541 0 -725738 859962 0 -681253 876226 0 -636161 892514 0 -590466 908786 0 -544177 924999 0 -497300 941109 0 -449846 957072 0 -401829 972842 0 -353264 988371 0 -304170 1.00361e+06 0 -254570 1.01852e+06 0 -204489 1.03305e+06 0 -153956 1.04715e+06 0 -103006 1.06078e+06 0 -51673.7 1.07389e+06 0 0 1.08645e+06 0 -766293 1.00114e+06 0 -720685 1.0219e+06 0 -674285 1.04273e+06 0 -627088 1.06357e+06 0 -579083 1.08438e+06 0 -530268 1.10509e+06 0 -480639 1.12564e+06 0 -430203 1.14595e+06 0 -378967 1.16598e+06 0 -326949 1.18563e+06 0 -274169 1.20484e+06 0 -220654 1.22354e+06 0 -166437 1.24166e+06 0 -111558 1.25913e+06 0 -56062.1 1.27587e+06 0 0 1.29183e+06 0 -813775 1.14309e+06 0 -767219 1.16894e+06 0 -719644 1.19499e+06 0 -671005 1.22116e+06 0 -621267 1.24738e+06 0 -570404 1.27354e+06 0 -518395 1.29957e+06 0 -465230 1.32536e+06 0 -410907 1.35081e+06 0 -355431 1.37581e+06 0 -298819 1.40025e+06 0 -241098 1.42403e+06 0 -182304 1.44703e+06 0 -122485 1.46914e+06 0 -61695.3 1.49026e+06 0 0 1.51028e+06 0 -869611 1.28557e+06 0 -822510 1.3174e+06 0 -774054 1.34962e+06 0 -724172 1.38214e+06 0 -672790 1.41488e+06 0 -619840 1.4477e+06 0 -565268 1.48046e+06 0 -509033 1.51302e+06 0 -451110 1.54522e+06 0 -391496 1.57689e+06 0 -330202 1.60787e+06 0 -267254 1.63798e+06 0 -202698 1.66706e+06 0 -136588 1.69495e+06 0 -68995.2 1.72149e+06 0 0 1.74653e+06 0 -935800 1.42837e+06 0 -888781 1.46708e+06 0 -840034 1.50667e+06 0 -789361 1.54698e+06 0 -736599 1.58784e+06 0 -681609 1.62903e+06 0 -624284 1.67033e+06 0 -564544 1.71151e+06 0 -502341 1.75232e+06 0 -437658 1.7925e+06 0 -370510 1.83179e+06 0 -300941 1.86994e+06 0 -229016 1.90672e+06 0 -154820 1.9419e+06 0 -78447.6 1.97526e+06 0 0 2.00661e+06 0 -1.0149e+06 1.56954e+06 0 -969349 1.61696e+06 0 -921374 1.66588e+06 0 -870693 1.71613e+06 0 -817022 1.76746e+06 0 -760108 1.81955e+06 0 -699749 1.87204e+06 0 -635809 1.92452e+06 0 -568228 1.97655e+06 0 -497016 2.02773e+06 0 -422249 2.07765e+06 0 -344047 2.12596e+06 0 -262563 2.17234e+06 0 -177960 2.21654e+06 0 -90395.7 2.25834e+06 0 0 2.29755e+06 0 -1.11162e+06 1.70784e+06 0 -1.06934e+06 1.76584e+06 0 -1.02387e+06 1.82671e+06 0 -974508 1.89016e+06 0 -920649 1.9557e+06 0 -861804 2.02269e+06 0 -797641 2.09039e+06 0 -728005 2.15802e+06 0 -652918 2.22481e+06 0 -572561 2.29007e+06 0 -487250 2.35318e+06 0 -397380 2.4137e+06 0 -303373 2.4713e+06 0 -205621 2.52583e+06 0 -104433 2.57726e+06 0 0 2.62565e+06 0 -1.23146e+06 1.83794e+06 0 -1.19674e+06 1.91022e+06 0 -1.1571e+06 1.98797e+06 0 -1.11124e+06 2.07047e+06 0 -1.05797e+06 2.15667e+06 0 -996387 2.24518e+06 0 -926020 2.33443e+06 0 -846884 2.42279e+06 0 -759483 2.50872e+06 0 -664699 2.591e+06 0 -563645 2.66883e+06 0 -457489 2.74184e+06 0 -347314 2.8101e+06 0 -233996 2.87398e+06 0 -118134 2.93416e+06 0 0 2.99145e+06 0 -1.38721e+06 1.95187e+06 0 -1.36686e+06 2.04509e+06 0 -1.33875e+06 2.14869e+06 0 -1.2996e+06 2.26144e+06 0 -1.2466e+06 2.38075e+06 0 -1.17806e+06 2.50299e+06 0 -1.09375e+06 2.62403e+06 0 -994940 2.74007e+06 0 -884093 2.84824e+06 0 -764332 2.94698e+06 0 -638850 3.03596e+06 0 -510444 3.11593e+06 0 -381256 3.18835e+06 0 -252707 3.25514e+06 0 -125554 3.31844e+06 0 0 3.38046e+06 0 -1.59804e+06 2.03368e+06 0 -1.60893e+06 2.15949e+06 0 -1.60492e+06 2.30925e+06 0 -1.5768e+06 2.47843e+06 0 -1.5176e+06 2.65815e+06 0 -1.42494e+06 2.83679e+06 0 -1.3021e+06 3.00317e+06 0 -1.1569e+06 3.14953e+06 0 -998988 3.2728e+06 0 -837145 3.37402e+06 0 -677802 3.45684e+06 0 -524888 3.526e+06 0 -380344 3.58626e+06 0 -244799 3.64194e+06 0 -118155 3.69684e+06 0 0 3.75424e+06 0 -1.91066e+06 2.03461e+06 0 -1.99636e+06 2.22652e+06 0 -2.04407e+06 2.48078e+06 0 -2.02326e+06 2.77929e+06 0 -1.91687e+06 3.08466e+06 0 -1.73318e+06 3.35452e+06 0 -1.50178e+06 3.56241e+06 0 -1.25673e+06 3.70585e+06 0 -1.02247e+06 3.79814e+06 0 -810742 3.85649e+06 0 -624381 3.89535e+06 0 -461921 3.92496e+06 0 -320590 3.95209e+06 0 -197725 3.98126e+06 0 -91283.4 4.01557e+06 0 0 4.05732e+06 0 </DataArray> 
</PointData> 
<Points> 
<DataArray type="Float32" NumberOfComponents="3"> 
0.0125 0.08 0 0.0125 0.0832 0 0.0125 0.0864 0 0.0125 0.0896 0 0.0125 0.0928 0 0.0125 0.096 0 0.0125 0.0992 0 0.0125 0.1024 0 0.0125 0.1056 0 0.0125 0.1088 0 0.0125 0.112 0 0.0125 0.1152 0 0.0125 0.1184 0 0.0125 0.1216 0 0.0125 0.1248 0 0.0125 0.128 0 0.0243333 0.0783333 0 0.0245111 0.0816444 0 0.0246889 0.0849556 0 0.0248667 0.0882667 0 0.0250444 0.0915778 0 0.0252222 0.0948889 0 0.0254 0.0982 0 0.0255778 0.101511 0 0.0257556 0.104822 0 0.0259333 0.108133 0 0.0261111 0.111444 0 0.0262889 0.114756 0 0.0264667 0.118067 0 0.0266444 0.121378 0 0.0268222 0.124689 0 0.027 0.128 0 0.0361667 0.0766667 0 0.0365222 0.0800889 0 0.0368778 0.0835111 0 0.0372333 0.0869333 0 0.0375889 0.0903556 0 0.0379444 0.0937778 0 0.0383 0.0972 0 0.0386556 0.100622 0 0.0390111 0.104044 0 0.0393667 0.107467 0 0.0397222 0.110889 0 0.0400778 0.114311 0 0.0404333 0.117733 0 0.0407889 0.121156 0 0.0411444 0.124578 0 0.0415 0.128 0 0.048 0.075 0 0.0485333 0.0785333 0 0.0490667 0.0820667 0 0.0496 0.0856 0 0.0501333 0.0891333 0 0.0506667 0.0926667 0 0.0512 0.0962 0 0.0517333 0.0997333 0 0.0522667 0.103267 0 0.0528 0.1068 0 0.0533333 0.110333 0 0.0538667 0.113867 0 0.0544 0.1174 0 0.0549333 0.120933 0 0.0554667 0.124467 0 0.056 0.128 0 0.0598333 0.0733333 0 0.0605444 0.0769778 0 0.0612556 0.0806222 0 0.0619667 0.0842667 0 0.0626778 0.0879111 0 0.0633889 0.0915556 0 0.0641 0.0952 0 0.0648111 0.0988444 0 0.0655222 0.102489 0 0.0662333 0.106133 0 0.0669444 0.109778 0 0.0676556 0.113422 0 0.0683667 0.117067 0 0.0690778 0.120711 0 0.0697889 0.124356 0 0.0705 0.128 0 0.0716667 0.0716667 0 0.0725556 0.0754222 0 0.0734444 0.0791778 0 0.0743333 0.0829333 0 0.0752222 0.0866889 0 0.0761111 0.0904444 0 0.077 0.0942 0 0.0778889 0.0979556 0 0.0787778 0.101711 0 0.0796667 0.105467 0 0.0805556 0.109222 0 0.0814444 0.112978 0 0.0823333 0.116733 0 0.0832222 0.120489 0 0.0841111 0.124244 0 0.085 0.128 0 0.0835 0.07 0 0.0845667 0.0738667 0 0.0856333 0.0777333 0 0.0867 0.0816 0 0.0877667 0.0854667 0 0.0888333 0.0893333 0 0.0899 0.0932 0 0.0909667 0.0970667 0 0.0920333 0.100933 0 0.0931 0.1048 0 0.0941667 0.108667 0 0.0952333 0.112533 0 0.0963 0.1164 0 0.0973667 0.120267 0 0.0984333 0.124133 0 0.0995 0.128 0 0.0953333 0.0683333 0 0.0965778 0.0723111 0 0.0978222 0.0762889 0 0.0990667 0.0802667 0 0.100311 0.0842444 0 0.101556 0.0882222 0 0.1028 0.0922 0 0.104044 0.0961778 0 0.105289 0.100156 0 0.106533 0.104133 0 0.107778 0.108111 0 0.109022 0.112089 0 0.110267 0.116067 0 0.111511 0.120044 0 0.112756 0.124022 0 0.114 0.128 0 0.107167 0.0666667 0 0.108589 0.0707556 0 0.110011 0.0748444 0 0.111433 0.0789333 0 0.112856 0.0830222 0 0.114278 0.0871111 0 0.1157 0.0912 0 0.117122 0.0952889 0 0.118544 0.0993778 0 0.119967 0.103467 0 0.121389 0.107556 0 0.122811 0.111644 0 0.124233 0.115733 0 0.125656 0.119822 0 0.127078 0.123911 0 0.1285 0.128 0 0.119 0.065 0 0.1206 0.0692 0 0.1222 0.0734 0 0.1238 0.0776 0 0.1254 0.0818 0 0.127 0.086 0 0.1286 0.0902 0 0.1302 0.0944 0 0.1318 0.0986 0 0.1334 0.1028 0 0.135 0.107 0 0.1366 0.1112 0 0.1382 0.1154 0 0.1398 0.1196 0 0.1414 0.1238 0 0.143 0.128 0 0.130833 0.0633333 0 0.132611 0.0676444 0 0.134389 0.0719556 0 0.136167 0.0762667 0 0.137944 0.0805778 0 0.139722 0.0848889 0 0.1415 0.0892 0 0.143278 0.0935111 0 0.145056 0.0978222 0 0.146833 0.102133 0 0.148611 0.106444 0 0.150389 0.110756 0 0.152167 0.115067 0 0.153944 0.119378 0 0.155722 0.123689 0 0.1575 0.128 0 0.142667 0.0616667 0 0.144622 0.0660889 0 0.146578 0.0705111 0 0.148533 0.0749333 0 0.150489 0.0793556 0 0.152444 0.0837778 0 0.1544 0.0882 0 0.156356 0.0926222 0 0.158311 0.0970444 0 0.160267 0.101467 0 0.162222 0.105889 0 0.164178 0.110311 0 0.166133 0.114733 0 0.168089 0.119156 0 0.170044 0.123578 0 0.172 0.128 0 0.1545 0.06 0 0.156633 0.0645333 0 0.158767 0.0690667 0 0.1609 0.0736 0 0.163033 0.0781333 0 0.165167 0.0826667 0 0.1673 0.0872 0 0.169433 0.0917333 0 0.171567 0.0962667 0 0.1737 0.1008 0 0.175833 0.105333 0 0.177967 0.109867 0 0.1801 0.1144 0 0.182233 0.118933 0 0.184367 0.123467 0 0.1865 0.128 0 0.166333 0.0583333 0 0.168644 0.0629778 0 0.170956 0.0676222 0 0.173267 0.0722667 0 0.175578 0.0769111 0 0.177889 0.0815556 0 0.1802 0.0862 0 0.182511 0.0908444 0 0.184822 0.0954889 0 0.187133 0.100133 0 0.189444 0.104778 0 0.191756 0.109422 0 0.194067 0.114067 0 0.196378 0.118711 0 0.198689 0.123356 0 0.201 0.128 0 0.178167 0.0566667 0 0.180656 0.0614222 0 0.183144 0.0661778 0 0.185633 0.0709333 0 0.188122 0.0756889 0 0.190611 0.0804444 0 0.1931 0.0852 0 0.195589 0.0899556 0 0.198078 0.0947111 0 0.200567 0.0994667 0 0.203056 0.104222 0 0.205544 0.108978 0 0.208033 0.113733 0 0.210522 0.118489 0 0.213011 0.123244 0 0.2155 0.128 0 0.19 0.055 0 0.192667 0.0598667 0 0.195333 0.0647333 0 0.198 0.0696 0 0.200667 0.0744667 0 0.203333 0.0793333 0 0.206 0.0842 0 0.208667 0.0890667 0 0.211333 0.0939333 0 0.214 0.0988 0 0.216667 0.103667 0 0.219333 0.108533 0 0.222 0.1134 0 0.224667 0.118267 0 0.227333 0.123133 0 0.23 0.128 0 
</DataArray>
</Points> 
</Piece> 
</StructuredGrid> 
</VTKFile> 
