<?xml version="1.0"?> 
<VTKFile type="StructuredGrid" version="0.1"> 
<StructuredGrid WholeExtent="0 15 0 15 0 0"> 
<Piece Extent="0 15 0 15 0 0"> 
<PointData>
<DataArray type="Float32" Name="E" format="ascii" NumberOfComponents="3"> 
-9.31323e-09 -3.64043e+06 0 1.35419e+06 -1.83746e+06 0 1.45613e+06 -1.09126e+06 0 1.39916e+06 -638315 0 1.35302e+06 -316214 0 1.26654e+06 -68682.7 0 1.17684e+06 129994 0 1.07021e+06 291604 0 956025 424108 0 832633 531832 0 703002 618347 0 568050 685996 0 429217 736749 0 287619 771991 0 144232 792742 0 0 799592 0 4.12001e-10 -3.30616e+06 0 1.27959e+06 -1.82815e+06 0 1.40206e+06 -1.08959e+06 0 1.37388e+06 -641828 0 1.32769e+06 -322006 0 1.24991e+06 -75383.7 0 1.16169e+06 121849 0 1.05859e+06 282794 0 946186 414399 0 824809 521592 0 696744 607572 0 563254 674870 0 425735 725335 0 285347 760396 0 143117 781037 0 0 787850 0 6.76664e-10 -3.03405e+06 0 1.20516e+06 -1.80885e+06 0 1.35229e+06 -1.0868e+06 0 1.34673e+06 -644573 0 1.3036e+06 -327175 0 1.23282e+06 -81892.2 0 1.14689e+06 114035 0 1.04692e+06 274120 0 936455 404886 0 817011 511474 0 690528 596932 0 558484 663850 0 422271 714027 0 283088 748896 0 142006 769423 0 0 776199 0 -1.5425e-09 -2.80952e+06 0 1.13277e+06 -1.78237e+06 0 1.30562e+06 -1.08272e+06 0 1.31851e+06 -646540 0 1.28036e+06 -331796 0 1.21549e+06 -88150.4 0 1.13235e+06 106507 0 1.03525e+06 265609 0 926815 395552 0 809248 501486 0 684352 586421 0 553741 652939 0 418826 702821 0 280843 737490 0 140900 757902 0 0 764639 0 2.28465e-09 -2.62182e+06 0 1.06354e+06 -1.75078e+06 0 1.26126e+06 -1.07725e+06 0 1.28978e+06 -647729 0 1.25772e+06 -335915 0 1.19807e+06 -94125.1 0 1.11799e+06 99239.2 0 1.0236e+06 257274 0 917255 386386 0 801527 491632 0 678216 576034 0 549027 642138 0 415401 691718 0 278612 726179 0 139800 746471 0 0 753169 0 -1.30967e-09 -2.46297e+06 0 998067 -1.71564e+06 0 1.21874e+06 -1.07039e+06 0 1.26092e+06 -648157 0 1.23552e+06 -339563 0 1.18066e+06 -99798.8 0 1.10379e+06 92215.7 0 1.01201e+06 249125 0 907767 377382 0 793852 481915 0 672120 565770 0 544342 631445 0 411996 680715 0 276394 714962 0 138707 735130 0 0 741789 0 6.69388e-10 -2.32706e+06 0 936613 -1.6781e+06 0 1.17774e+06 -1.06218e+06 0 1.23216e+06 -647844 0 1.21366e+06 -342762 0 1.16332e+06 -105164 0 1.08973e+06 85426.7 0 1.00049e+06 241163 0 898350 368537 0 786227 472335 0 666065 555627 0 539688 620862 0 408614 669812 0 274191 703839 0 137620 723880 0 0 730496 0 -5.82077e-11 -2.20973e+06 0 879220 -1.63898e+06 0 1.13811e+06 -1.05269e+06 0 1.20369e+06 -646815 0 1.19208e+06 -345524 0 1.14609e+06 -110219 0 1.07578e+06 78866.4 0 989048 233390 0 889003 359847 0 778654 462892 0 660052 545604 0 535064 610387 0 405253 659008 0 272001 692808 0 136540 712718 0 0 719292 0 -4.07454e-10 -2.1078e+06 0 825798 -1.5989e+06 0 1.09972e+06 -1.042e+06 0 1.17562e+06 -645099 0 1.17075e+06 -347863 0 1.12901e+06 -114967 0 1.06195e+06 72531.2 0 977690 225804 0 879724 351311 0 771135 453584 0 654081 535699 0 530473 600020 0 401915 648302 0 269826 681870 0 135468 701646 0 0 708175 0 4.07454e-10 -2.01899e+06 0 776192 -1.55827e+06 0 1.06252e+06 -1.03022e+06 0 1.14805e+06 -642728 0 1.14966e+06 -349788 0 1.11209e+06 -119412 0 1.04823e+06 66419 0 966423 218404 0 870516 342928 0 763673 444411 0 648154 525913 0 525914 589760 0 398601 637694 0 267666 671024 0 134402 690661 0 0 697145 0 -2.91038e-10 -1.94176e+06 0 730221 -1.51733e+06 0 1.02644e+06 -1.01747e+06 0 1.12104e+06 -639732 0 1.1288e+06 -351307 0 1.09536e+06 -123562 0 1.03462e+06 60528.3 0 955253 211187 0 861379 334697 0 756269 435371 0 642271 516243 0 521389 579606 0 395311 627184 0 265522 660269 0 133345 679764 0 0 686201 0 -1.16415e-10 -1.87522e+06 0 687728 -1.47624e+06 0 991427 -1.00386e+06 0 1.09466e+06 -636147 0 1.10814e+06 -352429 0 1.07883e+06 -127425 0 1.02112e+06 54858.7 0 944185 204150 0 852313 326618 0 748926 426462 0 636434 506690 0 516898 569556 0 392046 616769 0 263393 649605 0 132295 668953 0 0 675343 0 0 -1.81905e+06 0 648600 -1.43498e+06 0 957377 -989523 0 1.069e+06 -632008 0 1.08768e+06 -353159 0 1.06253e+06 -131012 0 1.00772e+06 49410.6 0 933225 197288 0 843320 318690 0 741644 417683 0 630643 497253 0 512443 559610 0 388806 606450 0 261281 639029 0 131253 658229 0 0 664569 0 2.32831e-10 -1.77355e+06 0 612815 -1.39347e+06 0 924154 -974586 0 1.04415e+06 -627350 0 1.06738e+06 -353502 0 1.04648e+06 -134337 0 994428 44186.3 0 922380 190595 0 834399 310914 0 734426 409031 0 624899 487931 0 508024 549767 0 385592 596227 0 259185 628543 0 130220 647590 0 0 653880 0 -4.65661e-10 -1.73967e+06 0 580476 -1.35146e+06 0 891544 -959187 0 1.02024e+06 -622215 0 1.04718e+06 -353457 0 1.03073e+06 -137416 0 981220 39190.7 0 911662 184066 0 825549 303292 0 727275 400503 0 619203 478724 0 503642 540026 0 382405 586098 0 257105 618145 0 129195 637036 0 0 643276 0 -3.72529e-09 -1.71914e+06 0 551857 -1.30858e+06 0 859239 -943473 0 997453 -616646 0 1.027e+06 -353017 0 1.01533e+06 -140274 0 968079 34432.5 0 901083 177688 0 816766 295827 0 720194 392095 0 613555 469634 0 499298 530383 0 379245 576063 0 255043 607834 0 128179 626567 0 0 632754 0 </DataArray> 
</PointData> 
<Points> 
<DataArray type="Float32" NumberOfComponents="3"> 
0.398 0.03 0 0.398 0.0365333 0 0.398 0.0430667 0 0.398 0.0496 0 0.398 0.0561333 0 0.398 0.0626667 0 0.398 0.0692 0 0.398 0.0757333 0 0.398 0.0822667 0 0.398 0.0888 0 0.398 0.0953333 0 0.398 0.101867 0 0.398 0.1084 0 0.398 0.114933 0 0.398 0.121467 0 0.398 0.128 0 0.398533 0.03 0 0.398533 0.0365333 0 0.398533 0.0430667 0 0.398533 0.0496 0 0.398533 0.0561333 0 0.398533 0.0626667 0 0.398533 0.0692 0 0.398533 0.0757333 0 0.398533 0.0822667 0 0.398533 0.0888 0 0.398533 0.0953333 0 0.398533 0.101867 0 0.398533 0.1084 0 0.398533 0.114933 0 0.398533 0.121467 0 0.398533 0.128 0 0.399067 0.03 0 0.399067 0.0365333 0 0.399067 0.0430667 0 0.399067 0.0496 0 0.399067 0.0561333 0 0.399067 0.0626667 0 0.399067 0.0692 0 0.399067 0.0757333 0 0.399067 0.0822667 0 0.399067 0.0888 0 0.399067 0.0953333 0 0.399067 0.101867 0 0.399067 0.1084 0 0.399067 0.114933 0 0.399067 0.121467 0 0.399067 0.128 0 0.3996 0.03 0 0.3996 0.0365333 0 0.3996 0.0430667 0 0.3996 0.0496 0 0.3996 0.0561333 0 0.3996 0.0626667 0 0.3996 0.0692 0 0.3996 0.0757333 0 0.3996 0.0822667 0 0.3996 0.0888 0 0.3996 0.0953333 0 0.3996 0.101867 0 0.3996 0.1084 0 0.3996 0.114933 0 0.3996 0.121467 0 0.3996 0.128 0 0.400133 0.03 0 0.400133 0.0365333 0 0.400133 0.0430667 0 0.400133 0.0496 0 0.400133 0.0561333 0 0.400133 0.0626667 0 0.400133 0.0692 0 0.400133 0.0757333 0 0.400133 0.0822667 0 0.400133 0.0888 0 0.400133 0.0953333 0 0.400133 0.101867 0 0.400133 0.1084 0 0.400133 0.114933 0 0.400133 0.121467 0 0.400133 0.128 0 0.400667 0.03 0 0.400667 0.0365333 0 0.400667 0.0430667 0 0.400667 0.0496 0 0.400667 0.0561333 0 0.400667 0.0626667 0 0.400667 0.0692 0 0.400667 0.0757333 0 0.400667 0.0822667 0 0.400667 0.0888 0 0.400667 0.0953333 0 0.400667 0.101867 0 0.400667 0.1084 0 0.400667 0.114933 0 0.400667 0.121467 0 0.400667 0.128 0 0.4012 0.03 0 0.4012 0.0365333 0 0.4012 0.0430667 0 0.4012 0.0496 0 0.4012 0.0561333 0 0.4012 0.0626667 0 0.4012 0.0692 0 0.4012 0.0757333 0 0.4012 0.0822667 0 0.4012 0.0888 0 0.4012 0.0953333 0 0.4012 0.101867 0 0.4012 0.1084 0 0.4012 0.114933 0 0.4012 0.121467 0 0.4012 0.128 0 0.401733 0.03 0 0.401733 0.0365333 0 0.401733 0.0430667 0 0.401733 0.0496 0 0.401733 0.0561333 0 0.401733 0.0626667 0 0.401733 0.0692 0 0.401733 0.0757333 0 0.401733 0.0822667 0 0.401733 0.0888 0 0.401733 0.0953333 0 0.401733 0.101867 0 0.401733 0.1084 0 0.401733 0.114933 0 0.401733 0.121467 0 0.401733 0.128 0 0.402267 0.03 0 0.402267 0.0365333 0 0.402267 0.0430667 0 0.402267 0.0496 0 0.402267 0.0561333 0 0.402267 0.0626667 0 0.402267 0.0692 0 0.402267 0.0757333 0 0.402267 0.0822667 0 0.402267 0.0888 0 0.402267 0.0953333 0 0.402267 0.101867 0 0.402267 0.1084 0 0.402267 0.114933 0 0.402267 0.121467 0 0.402267 0.128 0 0.4028 0.03 0 0.4028 0.0365333 0 0.4028 0.0430667 0 0.4028 0.0496 0 0.4028 0.0561333 0 0.4028 0.0626667 0 0.4028 0.0692 0 0.4028 0.0757333 0 0.4028 0.0822667 0 0.4028 0.0888 0 0.4028 0.0953333 0 0.4028 0.101867 0 0.4028 0.1084 0 0.4028 0.114933 0 0.4028 0.121467 0 0.4028 0.128 0 0.403333 0.03 0 0.403333 0.0365333 0 0.403333 0.0430667 0 0.403333 0.0496 0 0.403333 0.0561333 0 0.403333 0.0626667 0 0.403333 0.0692 0 0.403333 0.0757333 0 0.403333 0.0822667 0 0.403333 0.0888 0 0.403333 0.0953333 0 0.403333 0.101867 0 0.403333 0.1084 0 0.403333 0.114933 0 0.403333 0.121467 0 0.403333 0.128 0 0.403867 0.03 0 0.403867 0.0365333 0 0.403867 0.0430667 0 0.403867 0.0496 0 0.403867 0.0561333 0 0.403867 0.0626667 0 0.403867 0.0692 0 0.403867 0.0757333 0 0.403867 0.0822667 0 0.403867 0.0888 0 0.403867 0.0953333 0 0.403867 0.101867 0 0.403867 0.1084 0 0.403867 0.114933 0 0.403867 0.121467 0 0.403867 0.128 0 0.4044 0.03 0 0.4044 0.0365333 0 0.4044 0.0430667 0 0.4044 0.0496 0 0.4044 0.0561333 0 0.4044 0.0626667 0 0.4044 0.0692 0 0.4044 0.0757333 0 0.4044 0.0822667 0 0.4044 0.0888 0 0.4044 0.0953333 0 0.4044 0.101867 0 0.4044 0.1084 0 0.4044 0.114933 0 0.4044 0.121467 0 0.4044 0.128 0 0.404933 0.03 0 0.404933 0.0365333 0 0.404933 0.0430667 0 0.404933 0.0496 0 0.404933 0.0561333 0 0.404933 0.0626667 0 0.404933 0.0692 0 0.404933 0.0757333 0 0.404933 0.0822667 0 0.404933 0.0888 0 0.404933 0.0953333 0 0.404933 0.101867 0 0.404933 0.1084 0 0.404933 0.114933 0 0.404933 0.121467 0 0.404933 0.128 0 0.405467 0.03 0 0.405467 0.0365333 0 0.405467 0.0430667 0 0.405467 0.0496 0 0.405467 0.0561333 0 0.405467 0.0626667 0 0.405467 0.0692 0 0.405467 0.0757333 0 0.405467 0.0822667 0 0.405467 0.0888 0 0.405467 0.0953333 0 0.405467 0.101867 0 0.405467 0.1084 0 0.405467 0.114933 0 0.405467 0.121467 0 0.405467 0.128 0 0.406 0.03 0 0.406 0.0365333 0 0.406 0.0430667 0 0.406 0.0496 0 0.406 0.0561333 0 0.406 0.0626667 0 0.406 0.0692 0 0.406 0.0757333 0 0.406 0.0822667 0 0.406 0.0888 0 0.406 0.0953333 0 0.406 0.101867 0 0.406 0.1084 0 0.406 0.114933 0 0.406 0.121467 0 0.406 0.128 0 
</DataArray>
</Points> 
</Piece> 
</StructuredGrid> 
</VTKFile> 
