<?xml version="1.0"?> 
<VTKFile type="StructuredGrid" version="0.1"> 
<StructuredGrid WholeExtent="0 8 0 8 0 0"> 
<Piece Extent="0 8 0 8 0 0"> 
<CellData>
<DataArray type="Float32" Name="err_h1" format="ascii" NumberOfComponents="1"> 
17.683 17.917 18.195 18.5086 18.8596 19.2532 19.6967 20.1984 18.7503 19.0437 19.2806 19.4612 19.5923 19.6714 19.6874 19.6214 22.4553 22.6443 23.1231 23.6927 24.3028 24.9414 25.6154 26.3526 26.6034 28.1583 29.7153 31.126 32.5048 33.934 35.4396 36.9775 47.7373 43.6384 44.6881 47.6378 51.2863 55.1465 59.0345 62.9407 15.3285 41.204 64.2393 83.5242 102.416 122.668 144.534 166.849 185.461 139.429 124.098 126.106 137.39 154.436 178.397 218.121 293.766 198.086 187.738 244.924 343.959 483.341 677.811 954.195 
</DataArray> 
</CellData> 
<Points> 
<DataArray type="Float32" NumberOfComponents="3"> 
-0.05 0.01875 0 -0.05 0.0195312 0 -0.05 0.0203125 0 -0.05 0.0210938 0 -0.05 0.021875 0 -0.05 0.0226562 0 -0.05 0.0234375 0 -0.05 0.0242188 0 -0.05 0.025 0 -0.0428125 0.0195312 0 -0.0428125 0.0203711 0 -0.0428125 0.0212109 0 -0.0428125 0.0220508 0 -0.0428125 0.0228906 0 -0.0428125 0.0237305 0 -0.0428125 0.0245703 0 -0.0428125 0.0254102 0 -0.0428125 0.02625 0 -0.035625 0.0203125 0 -0.035625 0.0212109 0 -0.035625 0.0221094 0 -0.035625 0.0230078 0 -0.035625 0.0239063 0 -0.035625 0.0248047 0 -0.035625 0.0257031 0 -0.035625 0.0266016 0 -0.035625 0.0275 0 -0.0284375 0.0210938 0 -0.0284375 0.0220508 0 -0.0284375 0.0230078 0 -0.0284375 0.0239648 0 -0.0284375 0.0249219 0 -0.0284375 0.0258789 0 -0.0284375 0.0268359 0 -0.0284375 0.027793 0 -0.0284375 0.02875 0 -0.02125 0.021875 0 -0.02125 0.0228906 0 -0.02125 0.0239062 0 -0.02125 0.0249219 0 -0.02125 0.0259375 0 -0.02125 0.0269531 0 -0.02125 0.0279688 0 -0.02125 0.0289844 0 -0.02125 0.03 0 -0.0140625 0.0226562 0 -0.0140625 0.0237305 0 -0.0140625 0.0248047 0 -0.0140625 0.0258789 0 -0.0140625 0.0269531 0 -0.0140625 0.0280273 0 -0.0140625 0.0291016 0 -0.0140625 0.0301758 0 -0.0140625 0.03125 0 -0.006875 0.0234375 0 -0.006875 0.0245703 0 -0.006875 0.0257031 0 -0.006875 0.0268359 0 -0.006875 0.0279688 0 -0.006875 0.0291016 0 -0.006875 0.0302344 0 -0.006875 0.0313672 0 -0.006875 0.0325 0 0.0003125 0.0242188 0 0.0003125 0.0254102 0 0.0003125 0.0266016 0 0.0003125 0.027793 0 0.0003125 0.0289844 0 0.0003125 0.0301758 0 0.0003125 0.0313672 0 0.0003125 0.0325586 0 0.0003125 0.03375 0 0.0075 0.025 0 0.0075 0.02625 0 0.0075 0.0275 0 0.0075 0.02875 0 0.0075 0.03 0 0.0075 0.03125 0 0.0075 0.0325 0 0.0075 0.03375 0 0.0075 0.035 0 
</DataArray>
</Points> 
</Piece> 
</StructuredGrid> 
</VTKFile> 
