<?xml version="1.0"?> 
<VTKFile type="StructuredGrid" version="0.1"> 
<StructuredGrid WholeExtent="0 8 0 8 0 0"> 
<Piece Extent="0 8 0 8 0 0"> 
<CellData>
<DataArray type="Float32" Name="err_h1" format="ascii" NumberOfComponents="1"> 
369.886 300.728 252.261 215.411 185.914 174.092 228.203 417.886 41.7138 56.3358 80.2742 114.232 156.225 201.711 242.848 270.571 70.1305 83.4953 96.9832 109.23 119.096 125.657 128.545 132.143 81.6565 83.4369 85.6498 87.9479 90.2593 92.6734 95.0568 95.6954 68.5009 68.6747 68.6633 68.4452 67.9062 66.8799 65.2754 63.6555 51.6014 50.5452 49.5341 48.5179 47.4917 46.4891 45.5416 44.4198 33.4896 32.9089 32.2985 31.6678 31.0099 30.3021 29.5151 28.7061 19.8114 19.7179 19.649 19.6069 19.6004 19.6459 19.7691 19.9877 
</DataArray> 
</CellData> 
<Points> 
<DataArray type="Float32" NumberOfComponents="3"> 
0.09021 0.0098 0 0.0912962 0.0123258 0 0.0923823 0.0148516 0 0.0934685 0.0173774 0 0.0945546 0.0199032 0 0.0956408 0.022429 0 0.096727 0.0249548 0 0.0978131 0.0274806 0 0.0988993 0.0300064 0 0.103934 0.0098 0 0.104884 0.0123258 0 0.105835 0.0148516 0 0.106785 0.0173774 0 0.107735 0.0199032 0 0.108686 0.022429 0 0.109636 0.0249548 0 0.110586 0.0274806 0 0.111537 0.0300064 0 0.117657 0.0098 0 0.118472 0.0123258 0 0.119287 0.0148516 0 0.120101 0.0173774 0 0.120916 0.0199032 0 0.121731 0.022429 0 0.122545 0.0249548 0 0.12336 0.0274806 0 0.124174 0.0300064 0 0.131381 0.0098 0 0.13206 0.0123258 0 0.132739 0.0148516 0 0.133418 0.0173774 0 0.134097 0.0199032 0 0.134776 0.022429 0 0.135454 0.0249548 0 0.136133 0.0274806 0 0.136812 0.0300064 0 0.145105 0.0098 0 0.145648 0.0123258 0 0.146191 0.0148516 0 0.146734 0.0173774 0 0.147277 0.0199032 0 0.14782 0.022429 0 0.148363 0.0249548 0 0.148907 0.0274806 0 0.14945 0.0300064 0 0.158829 0.0098 0 0.159236 0.0123258 0 0.159643 0.0148516 0 0.160051 0.0173774 0 0.160458 0.0199032 0 0.160865 0.022429 0 0.161273 0.0249548 0 0.16168 0.0274806 0 0.162087 0.0300064 0 0.172553 0.0098 0 0.172824 0.0123258 0 0.173096 0.0148516 0 0.173367 0.0173774 0 0.173639 0.0199032 0 0.17391 0.022429 0 0.174182 0.0249548 0 0.174453 0.0274806 0 0.174725 0.0300064 0 0.186276 0.0098 0 0.186412 0.0123258 0 0.186548 0.0148516 0 0.186684 0.0173774 0 0.186819 0.0199032 0 0.186955 0.022429 0 0.187091 0.0249548 0 0.187227 0.0274806 0 0.187362 0.0300064 0 0.2 0.0098 0 0.2 0.0123258 0 0.2 0.0148516 0 0.2 0.0173774 0 0.2 0.0199032 0 0.2 0.022429 0 0.2 0.0249548 0 0.2 0.0274806 0 0.2 0.0300064 0 
</DataArray>
</Points> 
</Piece> 
</StructuredGrid> 
</VTKFile> 
