<?xml version="1.0"?> 
<VTKFile type="StructuredGrid" version="0.1"> 
<StructuredGrid WholeExtent="0 8 0 8 0 0"> 
<Piece Extent="0 8 0 8 0 0"> 
<CellData>
<DataArray type="Float32" Name="err_h1" format="ascii" NumberOfComponents="1"> 
322.113 289.928 218.064 166.169 143.453 147.411 182.524 256.641 76.6236 84.2723 110.561 113.463 109.399 108.093 116.309 115.563 33.2516 41.0835 53.39 64.6102 69.9307 72.7499 77.4613 79.7842 14.2588 19.6024 27.7325 36.1765 42.9471 48.2355 54.4903 60.9263 7.51077 9.24784 13.894 19.3954 25.3073 31.3466 38.9156 48.6708 3.87956 5.43811 7.30353 10.4491 14.1901 19.867 27.7756 38.4923 2.23692 2.99409 4.3934 5.7971 8.00332 12.0819 20.5165 30.9336 1.46897 1.95963 2.68266 3.77435 4.66853 6.44223 17.96 32.2974 
</DataArray> 
</CellData> 
<Points> 
<DataArray type="Float32" NumberOfComponents="3"> 
0.0075 0.0125 0 0.0075 0.0140625 0 0.0075 0.015625 0 0.0075 0.0171875 0 0.0075 0.01875 0 0.0075 0.0203125 0 0.0075 0.021875 0 0.0075 0.0234375 0 0.0075 0.025 0 0.01124 0.0125 0 0.0109288 0.0140625 0 0.0106175 0.015625 0 0.0103062 0.0171875 0 0.009995 0.01875 0 0.00968375 0.0203125 0 0.0093725 0.021875 0 0.00906125 0.0234375 0 0.00875 0.025 0 0.01498 0.0125 0 0.0143575 0.0140625 0 0.013735 0.015625 0 0.0131125 0.0171875 0 0.01249 0.01875 0 0.0118675 0.0203125 0 0.011245 0.021875 0 0.0106225 0.0234375 0 0.01 0.025 0 0.01872 0.0125 0 0.0177862 0.0140625 0 0.0168525 0.015625 0 0.0159188 0.0171875 0 0.014985 0.01875 0 0.0140512 0.0203125 0 0.0131175 0.021875 0 0.0121838 0.0234375 0 0.01125 0.025 0 0.02246 0.0125 0 0.021215 0.0140625 0 0.01997 0.015625 0 0.018725 0.0171875 0 0.01748 0.01875 0 0.016235 0.0203125 0 0.01499 0.021875 0 0.013745 0.0234375 0 0.0125 0.025 0 0.0262 0.0125 0 0.0246438 0.0140625 0 0.0230875 0.015625 0 0.0215313 0.0171875 0 0.019975 0.01875 0 0.0184188 0.0203125 0 0.0168625 0.021875 0 0.0153063 0.0234375 0 0.01375 0.025 0 0.02994 0.0125 0 0.0280725 0.0140625 0 0.026205 0.015625 0 0.0243375 0.0171875 0 0.02247 0.01875 0 0.0206025 0.0203125 0 0.018735 0.021875 0 0.0168675 0.0234375 0 0.015 0.025 0 0.03368 0.0125 0 0.0315013 0.0140625 0 0.0293225 0.015625 0 0.0271438 0.0171875 0 0.024965 0.01875 0 0.0227863 0.0203125 0 0.0206075 0.021875 0 0.0184288 0.0234375 0 0.01625 0.025 0 0.03742 0.0125 0 0.03493 0.0140625 0 0.03244 0.015625 0 0.02995 0.0171875 0 0.02746 0.01875 0 0.02497 0.0203125 0 0.02248 0.021875 0 0.01999 0.0234375 0 0.0175 0.025 0 
</DataArray>
</Points> 
</Piece> 
</StructuredGrid> 
</VTKFile> 
