<?xml version="1.0"?> 
<VTKFile type="StructuredGrid" version="0.1"> 
<StructuredGrid WholeExtent="0 7 0 7 0 0"> 
<Piece Extent="0 7 0 7 0 0"> 
<PointData>
<DataArray type="Float32" Name="|E|" format="ascii" NumberOfComponents="3"> 
1.29366e+06 -537959 0 1.84009e+06 -25429.2 0 1.5652e+06 136910 0 1.18504e+06 129364 0 885668 94199.4 0 685148 57696.4 0 571133 27691.2 0 531922 0 0 1.36467e+06 -567486 0 1.85468e+06 -20900.7 0 1.56201e+06 158938 0 1.17824e+06 148401 0 881009 107358 0 682174 65922.2 0 569194 31561.2 0 530374 0 0 1.4343e+06 -596444 0 1.87153e+06 -13672.4 0 1.55845e+06 181626 0 1.17117e+06 167336 0 876045 120414 0 678942 74057.9 0 567030 35397.7 0 528609 0 0 1.50344e+06 -625195 0 1.89037e+06 -3641.23 0 1.55445e+06 204972 0 1.16382e+06 186177 0 870774 133360 0 675454 82103.4 0 564641 39198.8 0 526627 0 0 1.57296e+06 -654102 0 1.91091e+06 9318.34 0 1.54991e+06 228973 0 1.15618e+06 204924 0 865196 146190 0 671711 90057.8 0 562028 42962.6 0 524430 0 0 1.64374e+06 -683535 0 1.93288e+06 25353.1 0 1.54477e+06 253615 0 1.14822e+06 223578 0 859311 158897 0 667715 97919.8 0 559192 46687.7 0 522020 0 0 1.71672e+06 -713884 0 1.95597e+06 44633.1 0 1.53892e+06 278881 0 1.13995e+06 242132 0 853119 171479 0 663468 105687 0 556132 50372.9 0 519398 0 0 1.79291e+06 -745567 0 1.97984e+06 67355.2 0 1.53229e+06 304744 0 1.13134e+06 260575 0 846617 183934 0 658971 113356 0 552849 54017.7 0 516566 0 0 </DataArray> 
</PointData> 
<Points> 
<DataArray type="Float32" NumberOfComponents="3"> 
0.1905 0.0099 0 0.216571 0.0099 0 0.242643 0.0099 0 0.268714 0.0099 0 0.294786 0.0099 0 0.320857 0.0099 0 0.346929 0.0099 0 0.373 0.0099 0 0.1911 0.0113429 0 0.217086 0.0113429 0 0.243071 0.0113429 0 0.269057 0.0113429 0 0.295043 0.0113429 0 0.321029 0.0113429 0 0.347014 0.0113429 0 0.373 0.0113429 0 0.1917 0.0127857 0 0.2176 0.0127857 0 0.2435 0.0127857 0 0.2694 0.0127857 0 0.2953 0.0127857 0 0.3212 0.0127857 0 0.3471 0.0127857 0 0.373 0.0127857 0 0.1923 0.0142286 0 0.218114 0.0142286 0 0.243929 0.0142286 0 0.269743 0.0142286 0 0.295557 0.0142286 0 0.321371 0.0142286 0 0.347186 0.0142286 0 0.373 0.0142286 0 0.1929 0.0156714 0 0.218629 0.0156714 0 0.244357 0.0156714 0 0.270086 0.0156714 0 0.295814 0.0156714 0 0.321543 0.0156714 0 0.347271 0.0156714 0 0.373 0.0156714 0 0.1935 0.0171143 0 0.219143 0.0171143 0 0.244786 0.0171143 0 0.270429 0.0171143 0 0.296071 0.0171143 0 0.321714 0.0171143 0 0.347357 0.0171143 0 0.373 0.0171143 0 0.1941 0.0185571 0 0.219657 0.0185571 0 0.245214 0.0185571 0 0.270771 0.0185571 0 0.296329 0.0185571 0 0.321886 0.0185571 0 0.347443 0.0185571 0 0.373 0.0185571 0 0.1947 0.02 0 0.220171 0.02 0 0.245643 0.02 0 0.271114 0.02 0 0.296586 0.02 0 0.322057 0.02 0 0.347529 0.02 0 0.373 0.02 0 
</DataArray>
</Points> 
</Piece> 
</StructuredGrid> 
</VTKFile> 
