<?xml version="1.0"?> 
<VTKFile type="StructuredGrid" version="0.1"> 
<StructuredGrid WholeExtent="0 7 0 7 0 0"> 
<Piece Extent="0 7 0 7 0 0"> 
<PointData>
<DataArray type="Float32" Name="|E|" format="ascii" NumberOfComponents="3"> 
1.31196e+06 -133873 0 1.78343e+06 -18624.5 0 1.56709e+06 67535.7 0 1.19249e+06 65899.1 0 893243 47693.9 0 690689 29426.4 0 575333 14025.8 0 535752 0 0 1.31437e+06 -134119 0 1.78843e+06 -21750 0 1.56701e+06 77102.9 0 1.1915e+06 75420.7 0 892399 54195 0 690087 33612.8 0 574889 15950.4 0 535367 0 0 1.31518e+06 -134202 0 1.79441e+06 -24785.2 0 1.5669e+06 86735.1 0 1.19049e+06 84966.7 0 891477 60675 0 689422 37800 0 574392 17869.6 0 534928 0 0 1.31435e+06 -134117 0 1.8014e+06 -27732.7 0 1.56674e+06 96433.1 0 1.18945e+06 94545.3 0 890477 67129.1 0 688694 41990.2 0 573843 19782.5 0 534436 0 0 1.31184e+06 -133861 0 1.80941e+06 -30594.3 0 1.56651e+06 106197 0 1.18838e+06 104165 0 889396 73552.2 0 687903 46185.4 0 573242 21687.8 0 533889 0 0 1.3076e+06 -133428 0 1.8185e+06 -33371.3 0 1.56619e+06 116027 0 1.18728e+06 113836 0 888236 79938.5 0 687048 50388.4 0 572590 23584.4 0 533289 0 0 1.30157e+06 -132813 0 1.82871e+06 -36064.5 0 1.56576e+06 125921 0 1.18617e+06 123568 0 886993 86281.8 0 686130 54601.9 0 571887 25470.9 0 532633 0 0 1.29366e+06 -132006 0 1.84009e+06 -38673.1 0 1.5652e+06 135876 0 1.18504e+06 133372 0 885668 92574.9 0 685148 58829.2 0 571133 27345.6 0 531922 0 0 </DataArray> 
</PointData> 
<Points> 
<DataArray type="Float32" NumberOfComponents="3"> 
0.19 0.005 0 0.216143 0.005 0 0.242286 0.005 0 0.268429 0.005 0 0.294571 0.005 0 0.320714 0.005 0 0.346857 0.005 0 0.373 0.005 0 0.190071 0.0057 0 0.216204 0.0057 0 0.242337 0.0057 0 0.268469 0.0057 0 0.294602 0.0057 0 0.320735 0.0057 0 0.346867 0.0057 0 0.373 0.0057 0 0.190143 0.0064 0 0.216265 0.0064 0 0.242388 0.0064 0 0.26851 0.0064 0 0.294633 0.0064 0 0.320755 0.0064 0 0.346878 0.0064 0 0.373 0.0064 0 0.190214 0.0071 0 0.216327 0.0071 0 0.242439 0.0071 0 0.268551 0.0071 0 0.294663 0.0071 0 0.320776 0.0071 0 0.346888 0.0071 0 0.373 0.0071 0 0.190286 0.0078 0 0.216388 0.0078 0 0.24249 0.0078 0 0.268592 0.0078 0 0.294694 0.0078 0 0.320796 0.0078 0 0.346898 0.0078 0 0.373 0.0078 0 0.190357 0.0085 0 0.216449 0.0085 0 0.242541 0.0085 0 0.268633 0.0085 0 0.294724 0.0085 0 0.320816 0.0085 0 0.346908 0.0085 0 0.373 0.0085 0 0.190429 0.0092 0 0.21651 0.0092 0 0.242592 0.0092 0 0.268673 0.0092 0 0.294755 0.0092 0 0.320837 0.0092 0 0.346918 0.0092 0 0.373 0.0092 0 0.1905 0.0099 0 0.216571 0.0099 0 0.242643 0.0099 0 0.268714 0.0099 0 0.294786 0.0099 0 0.320857 0.0099 0 0.346929 0.0099 0 0.373 0.0099 0 
</DataArray>
</Points> 
</Piece> 
</StructuredGrid> 
</VTKFile> 
