<?xml version="1.0"?> 
<VTKFile type="StructuredGrid" version="0.1"> 
<StructuredGrid WholeExtent="0 7 0 7 0 0"> 
<Piece Extent="0 7 0 7 0 0"> 
<PointData>
<DataArray type="Float32" Name="|E|" format="ascii" NumberOfComponents="3"> 
-2.16537e+06 0 0 -2.19583e+06 0.121893 0 -2.28319e+06 0.224994 0 -2.43341e+06 0.505189 0 -2.6581e+06 0.0364559 0 -2.9652e+06 -2.98541 0 -3.31425e+06 -9.56139 0 -3.518e+06 -2.38419e-07 0 -2.16488e+06 0 0 -2.19532e+06 7465.08 0 -2.28263e+06 15446.1 0 -2.43274e+06 24503.3 0 -2.65733e+06 35550.8 0 -2.96476e+06 45725 0 -3.31556e+06 41511 0 -3.52232e+06 9.31323e-08 0 -2.16341e+06 0 0 -2.19379e+06 14920.3 0 -2.28095e+06 30873.7 0 -2.43074e+06 48966 0 -2.65501e+06 71096 0 -2.96341e+06 91691.2 0 -3.31945e+06 83805.9 0 -3.53547e+06 -1.04308e-07 0 -2.16096e+06 0 0 -2.19126e+06 22356.8 0 -2.27815e+06 46265.6 0 -2.4274e+06 73351.5 0 -2.6511e+06 106623 0 -2.96109e+06 138120 0 -3.32572e+06 127630 0 -3.55805e+06 8.9407e-08 0 -2.15753e+06 0 0 -2.18771e+06 29766.3 0 -2.27423e+06 61603.2 0 -2.42273e+06 97627.2 0 -2.64556e+06 142105 0 -2.95773e+06 185224 0 -3.33404e+06 173755 0 -3.59114e+06 -4.47035e-08 0 -2.15313e+06 0 0 -2.18315e+06 37141.9 0 -2.26921e+06 76864.9 0 -2.41675e+06 121768 0 -2.63832e+06 177486 0 -2.95322e+06 233221 0 -3.34383e+06 223009 0 -3.63641e+06 1.49012e-08 0 -2.14776e+06 0 0 -2.1776e+06 44478.9 0 -2.26308e+06 92022.5 0 -2.40947e+06 145762 0 -2.62925e+06 212672 0 -2.94752e+06 282332 0 -3.35417e+06 276276 0 -3.69634e+06 2.98023e-08 0 -2.14143e+06 0 0 -2.17105e+06 51779.3 0 -2.25586e+06 107031 0 -2.40094e+06 169636 0 -2.6182e+06 247481 0 -2.94066e+06 332821 0 -3.36359e+06 334533 0 -3.77454e+06 1.19209e-07 0 </DataArray> 
</PointData> 
<Points> 
<DataArray type="Float32" NumberOfComponents="3"> 
0 0 0 0.0107143 0 0 0.0214286 0 0 0.0321429 0 0 0.0428571 0 0 0.0535714 0 0 0.0642857 0 0 0.075 0 0 0 0.00142857 0 0.0107143 0.00142857 0 0.0214286 0.00142857 0 0.0321429 0.00142857 0 0.0428571 0.00142857 0 0.0535714 0.00142857 0 0.0642857 0.00142857 0 0.075 0.00142857 0 0 0.00285714 0 0.0107143 0.00285714 0 0.0214286 0.00285714 0 0.0321429 0.00285714 0 0.0428571 0.00285714 0 0.0535714 0.00285714 0 0.0642857 0.00285714 0 0.075 0.00285714 0 0 0.00428571 0 0.0107143 0.00428571 0 0.0214286 0.00428571 0 0.0321429 0.00428571 0 0.0428571 0.00428571 0 0.0535714 0.00428571 0 0.0642857 0.00428571 0 0.075 0.00428571 0 0 0.00571429 0 0.0107143 0.00571429 0 0.0214286 0.00571429 0 0.0321429 0.00571429 0 0.0428571 0.00571429 0 0.0535714 0.00571429 0 0.0642857 0.00571429 0 0.075 0.00571429 0 0 0.00714286 0 0.0107143 0.00714286 0 0.0214286 0.00714286 0 0.0321429 0.00714286 0 0.0428571 0.00714286 0 0.0535714 0.00714286 0 0.0642857 0.00714286 0 0.075 0.00714286 0 0 0.00857143 0 0.0107143 0.00857143 0 0.0214286 0.00857143 0 0.0321429 0.00857143 0 0.0428571 0.00857143 0 0.0535714 0.00857143 0 0.0642857 0.00857143 0 0.075 0.00857143 0 0 0.01 0 0.0107143 0.01 0 0.0214286 0.01 0 0.0321429 0.01 0 0.0428571 0.01 0 0.0535714 0.01 0 0.0642857 0.01 0 0.075 0.01 0 
</DataArray>
</Points> 
</Piece> 
</StructuredGrid> 
</VTKFile> 
