<?xml version="1.0"?> 
<VTKFile type="StructuredGrid" version="0.1"> 
<StructuredGrid WholeExtent="0 7 0 7 0 0"> 
<Piece Extent="0 7 0 7 0 0"> 
<PointData>
<DataArray type="Float32" Name="|E|" format="ascii" NumberOfComponents="3"> 
-1.71708e+06 0 0 -1.7497e+06 264733 0 -1.8402e+06 548345 0 -1.97596e+06 841981 0 -2.07823e+06 1.2047e+06 0 -2.10602e+06 1.40163e+06 0 -1.87737e+06 1.16121e+06 0 -3.15216e+06 3.8723e+06 0 -1.61099e+06 0 0 -1.65376e+06 285782 0 -1.75e+06 578910 0 -1.88877e+06 886264 0 -2.01891e+06 1.20836e+06 0 -2.06391e+06 1.40778e+06 0 -2.03425e+06 1.23303e+06 0 -2.40563e+06 2.54965e+06 0 -1.49704e+06 0 0 -1.55088e+06 304612 0 -1.65584e+06 610248 0 -1.80286e+06 923361 0 -1.95745e+06 1.22784e+06 0 -2.04548e+06 1.41386e+06 0 -2.11045e+06 1.27229e+06 0 -2.07237e+06 1.90659e+06 0 -1.37531e+06 0 0 -1.4419e+06 322178 0 -1.55756e+06 640632 0 -1.71659e+06 959109 0 -1.89599e+06 1.25531e+06 0 -2.03492e+06 1.42861e+06 0 -2.1575e+06 1.29696e+06 0 -1.93112e+06 1.51436e+06 0 -1.24635e+06 0 0 -1.32715e+06 338694 0 -1.45514e+06 669998 0 -1.6287e+06 995080 0 -1.83408e+06 1.289e+06 0 -2.02607e+06 1.45365e+06 0 -2.19656e+06 1.3154e+06 0 -1.8912e+06 1.25455e+06 0 -1.11072e+06 0 0 -1.20689e+06 354223 0 -1.34846e+06 698392 0 -1.53817e+06 1.03182e+06 0 -1.77047e+06 1.32808e+06 0 -2.01594e+06 1.48931e+06 0 -2.23698e+06 1.33394e+06 0 -1.90999e+06 1.06705e+06 0 -968962 0 0 -1.08139e+06 368726 0 -1.23739e+06 725788 0 -1.44412e+06 1.06932e+06 0 -1.7037e+06 1.37198e+06 0 -2.00266e+06 1.53544e+06 0 -2.28264e+06 1.35739e+06 0 -1.96582e+06 923785 0 -821693 0 0 -950980 382095 0 -1.12183e+06 751999 0 -1.34588e+06 1.10727e+06 0 -1.63243e+06 1.41994e+06 0 -1.98454e+06 1.59172e+06 0 -2.33465e+06 1.38972e+06 0 -2.0476e+06 809386 0 </DataArray> 
</PointData> 
<Points> 
<DataArray type="Float32" NumberOfComponents="3"> 
0 0.045 0 0.0142857 0.045 0 0.0285714 0.045 0 0.0428571 0.045 0 0.0571429 0.045 0 0.0714286 0.045 0 0.0857143 0.045 0 0.1 0.045 0 0 0.0505 0 0.0142857 0.0499184 0 0.0285714 0.0493367 0 0.0428571 0.0487551 0 0.0571429 0.0481735 0 0.0714286 0.0475918 0 0.0857143 0.0470102 0 0.1 0.0464286 0 0 0.056 0 0.0142857 0.0548367 0 0.0285714 0.0536735 0 0.0428571 0.0525102 0 0.0571429 0.0513469 0 0.0714286 0.0501837 0 0.0857143 0.0490204 0 0.1 0.0478571 0 0 0.0615 0 0.0142857 0.0597551 0 0.0285714 0.0580102 0 0.0428571 0.0562653 0 0.0571429 0.0545204 0 0.0714286 0.0527755 0 0.0857143 0.0510306 0 0.1 0.0492857 0 0 0.067 0 0.0142857 0.0646735 0 0.0285714 0.0623469 0 0.0428571 0.0600204 0 0.0571429 0.0576939 0 0.0714286 0.0553673 0 0.0857143 0.0530408 0 0.1 0.0507143 0 0 0.0725 0 0.0142857 0.0695918 0 0.0285714 0.0666837 0 0.0428571 0.0637755 0 0.0571429 0.0608673 0 0.0714286 0.0579592 0 0.0857143 0.055051 0 0.1 0.0521429 0 0 0.078 0 0.0142857 0.0745102 0 0.0285714 0.0710204 0 0.0428571 0.0675306 0 0.0571429 0.0640408 0 0.0714286 0.060551 0 0.0857143 0.0570612 0 0.1 0.0535714 0 0 0.0835 0 0.0142857 0.0794286 0 0.0285714 0.0753571 0 0.0428571 0.0712857 0 0.0571429 0.0672143 0 0.0714286 0.0631429 0 0.0857143 0.0590714 0 0.1 0.055 0 
</DataArray>
</Points> 
</Piece> 
</StructuredGrid> 
</VTKFile> 
