<?xml version="1.0"?> 
<VTKFile type="StructuredGrid" version="0.1"> 
<StructuredGrid WholeExtent="0 7 0 7 0 0"> 
<Piece Extent="0 7 0 7 0 0"> 
<PointData>
<DataArray type="Float32" Name="|E|" format="ascii" NumberOfComponents="3"> 
3.44611e+06 -1.42743e+06 0 2.14385e+06 710550 0 1.37245e+06 648241 0 997247 474303 0 742204 324884 0 583985 199772 0 494983 95018.4 0 464481 0 0 3.865e+06 -1.02993e+06 0 2.0763e+06 871356 0 1.31354e+06 727491 0 935200 534677 0 688535 370941 0 536974 232252 0 451686 112513 0 419532 0 0 4.22671e+06 -531389 0 2.0005e+06 1.03034e+06 0 1.2533e+06 809574 0 871677 595387 0 631606 415908 0 484503 262823 0 400847 128508 0 365133 0 0 4.51759e+06 55175.8 0 1.92091e+06 1.18704e+06 0 1.19153e+06 893725 0 807330 656788 0 571538 459870 0 427063 291772 0 343250 143204 0 302482 0 0 4.72637e+06 715015 0 1.84209e+06 1.34281e+06 0 1.12791e+06 978653 0 743020 719668 0 508639 502809 0 365381 319407 0 279921 156732 0 232986 0 0 4.84418e+06 1.43198e+06 0 1.76798e+06 1.50103e+06 0 1.06221e+06 1.0623e+06 0 679661 785387 0 443426 544500 0 300315 346138 0 212081 169120 0 158258 0 0 4.86437e+06 2.18854e+06 0 1.70145e+06 1.66722e+06 0 994510 1.14157e+06 0 618004 855974 0 376695 584412 0 232654 372540 0 141155 180235 0 80007.2 0 0 4.7822e+06 2.96536e+06 0 1.64389e+06 1.84942e+06 0 925387 1.21181e+06 0 558378 934280 0 309702 621504 0 162747 399455 0 69010.8 189687 0 -346.851 0 0 </DataArray> 
</PointData> 
<Points> 
<DataArray type="Float32" NumberOfComponents="3"> 
0.2018 0.0378 0 0.226257 0.0378 0 0.250714 0.0378 0 0.275171 0.0378 0 0.299629 0.0378 0 0.324086 0.0378 0 0.348543 0.0378 0 0.373 0.0378 0 0.202484 0.0398184 0 0.22742 0.0410734 0 0.25216 0.0423185 0 0.276707 0.0435538 0 0.301062 0.0447796 0 0.325227 0.0459958 0 0.349206 0.0472025 0 0.373 0.0484 0 0.202901 0.0419587 0 0.228176 0.0444908 0 0.253114 0.0469893 0 0.277724 0.0494548 0 0.302011 0.051888 0 0.325982 0.0542895 0 0.349643 0.05666 0 0.373 0.059 0 0.203026 0.0441667 0 0.228486 0.0479763 0 0.253537 0.0517247 0 0.27819 0.0554136 0 0.302454 0.0590442 0 0.326338 0.0626179 0 0.34985 0.0661361 0 0.373 0.0696 0 0.202846 0.0463814 0 0.228333 0.051447 0 0.253411 0.0564313 0 0.27809 0.0613363 0 0.302379 0.0661639 0 0.326288 0.0709159 0 0.349826 0.075594 0 0.373 0.0802 0 0.202366 0.0485402 0 0.22772 0.0548194 0 0.252737 0.0610152 0 0.277424 0.0671293 0 0.301788 0.0731633 0 0.325834 0.0791187 0 0.34957 0.0849971 0 0.373 0.0908 0 0.201608 0.0505849 0 0.226672 0.0580161 0 0.251539 0.0653888 0 0.276212 0.0727039 0 0.300692 0.0799618 0 0.324982 0.0871634 0 0.349084 0.0943093 0 0.373 0.1014 0 0.200607 0.0524662 0 0.225234 0.0609711 0 0.249862 0.0694759 0 0.27449 0.0779807 0 0.299117 0.0864855 0 0.323745 0.0949904 0 0.348372 0.103495 0 0.373 0.112 0 
</DataArray>
</Points> 
</Piece> 
</StructuredGrid> 
</VTKFile> 
