<?xml version="1.0"?> 
<VTKFile type="StructuredGrid" version="0.1"> 
<StructuredGrid WholeExtent="0 7 0 7 0 0"> 
<Piece Extent="0 7 0 7 0 0"> 
<PointData>
<DataArray type="Float32" Name="|E|" format="ascii" NumberOfComponents="3"> 
-2.06463e+06 0 0 -2.06584e+06 22053.5 0 -2.06927e+06 44510.1 0 -2.07502e+06 68833.7 0 -2.08277e+06 97559.8 0 -2.09211e+06 128685 0 -2.10343e+06 153798 0 -2.11812e+06 169052 0 -2.04403e+06 0 0 -2.04764e+06 42314.6 0 -2.05762e+06 85373.5 0 -2.07407e+06 129053 0 -2.09819e+06 173479 0 -2.13075e+06 220420 0 -2.16913e+06 267802 0 -2.2102e+06 310228 0 -2.02163e+06 0 0 -2.02879e+06 65333.7 0 -2.04893e+06 132101 0 -2.08348e+06 200475 0 -2.13229e+06 273457 0 -2.19021e+06 349588 0 -2.25647e+06 419289 0 -2.34424e+06 488687 0 -1.99755e+06 0 0 -2.00923e+06 91085.5 0 -2.04314e+06 185064 0 -2.09986e+06 283768 0 -2.17322e+06 391620 0 -2.26491e+06 499487 0 -2.40368e+06 626037 0 -2.58632e+06 838081 0 -1.97189e+06 0 0 -1.98891e+06 119596 0 -2.03945e+06 243769 0 -2.11884e+06 378535 0 -2.22466e+06 529937 0 -2.38977e+06 704153 0 -2.59521e+06 1.03262e+06 0 -2.6604e+06 1.73195e+06 0 -1.94467e+06 0 0 -1.96779e+06 150518 0 -2.03664e+06 307831 0 -2.14068e+06 488892 0 -2.3018e+06 698405 0 -2.50847e+06 1.01458e+06 0 -2.5046e+06 1.63378e+06 0 -2.04978e+06 2.38053e+06 0 -1.91557e+06 0 0 -1.94608e+06 182838 0 -2.03352e+06 380420 0 -2.17056e+06 613237 0 -2.37516e+06 894234 0 -2.43198e+06 1.35401e+06 0 -2.01444e+06 1.78463e+06 0 -1.3889e+06 1.00548e+06 0 -1.88438e+06 0 0 -1.92388e+06 217002 0 -2.03027e+06 463091 0 -2.2047e+06 740558 0 -2.37001e+06 1.09268e+06 0 -2.14303e+06 1.51379e+06 0 -1.62666e+06 1.41648e+06 0 -1.41902e+06 161240 0 </DataArray> 
</PointData> 
<Points> 
<DataArray type="Float32" NumberOfComponents="3"> 
0 0.021 0 0.00228571 0.021 0 0.00457143 0.021 0 0.00685714 0.021 0 0.00914286 0.021 0 0.0114286 0.021 0 0.0137143 0.021 0 0.016 0.021 0 0 0.023 0 0.004 0.023 0 0.008 0.023 0 0.012 0.023 0 0.016 0.023 0 0.02 0.023 0 0.024 0.023 0 0.028 0.023 0 0 0.025 0 0.00571429 0.025 0 0.0114286 0.025 0 0.0171429 0.025 0 0.0228571 0.025 0 0.0285714 0.025 0 0.0342857 0.025 0 0.04 0.025 0 0 0.027 0 0.00742857 0.027 0 0.0148571 0.027 0 0.0222857 0.027 0 0.0297143 0.027 0 0.0371429 0.027 0 0.0445714 0.027 0 0.052 0.027 0 0 0.029 0 0.00914286 0.029 0 0.0182857 0.029 0 0.0274286 0.029 0 0.0365714 0.029 0 0.0457143 0.029 0 0.0548571 0.029 0 0.064 0.029 0 0 0.031 0 0.0108571 0.031 0 0.0217143 0.031 0 0.0325714 0.031 0 0.0434286 0.031 0 0.0542857 0.031 0 0.0651429 0.031 0 0.076 0.031 0 0 0.033 0 0.0125714 0.033 0 0.0251429 0.033 0 0.0377143 0.033 0 0.0502857 0.033 0 0.0628571 0.033 0 0.0754286 0.033 0 0.088 0.033 0 0 0.035 0 0.0142857 0.035 0 0.0285714 0.035 0 0.0428571 0.035 0 0.0571429 0.035 0 0.0714286 0.035 0 0.0857143 0.035 0 0.1 0.035 0 
</DataArray>
</Points> 
</Piece> 
</StructuredGrid> 
</VTKFile> 
