<?xml version="1.0"?> 
<VTKFile type="StructuredGrid" version="0.1"> 
<StructuredGrid WholeExtent="0 7 0 7 0 0"> 
<Piece Extent="0 7 0 7 0 0"> 
<PointData>
<DataArray type="Float32" Name="|E|" format="ascii" NumberOfComponents="3"> 
316.211 0 0 -113.987 -78.2935 0 -24.8307 -3.16734 0 -11.6145 7.51847 0 -3.345 1.39502 0 -0.741867 1.80998 0 -0.201409 0.32285 0 -0.00540215 -1.49012e-08 0 195.265 -5.96046e-08 0 -55.4525 -74.4667 0 -29.8041 -6.86639 0 -10.725 0.683912 0 -4.08074 1.93328 0 -1.29923 0.728661 0 -0.364215 0.445711 0 -0.200574 -7.45058e-09 0 122.954 5.21541e-08 0 -24.6385 -64.1515 0 -26.7105 -13.0252 0 -10.1365 -2.60169 0 -4.3349 0.504972 0 -1.50606 0.321744 0 -0.571699 0.243391 0 -0.301779 3.72529e-09 0 78.2297 -1.49012e-08 0 -9.23736 -53.5374 0 -20.8768 -17.6853 0 -9.06864 -5.09961 0 -4.05811 -0.980808 0 -1.54754 -0.157436 0 -0.642415 0.0333795 0 -0.379703 -1.11759e-08 0 49.1865 2.98023e-08 0 -2.22621 -44.7396 0 -14.7719 -20.4894 0 -7.35348 -7.1261 0 -3.38979 -2.23073 0 -1.38656 -0.653081 0 -0.600541 -0.164941 0 -0.384576 1.49012e-08 0 28.9592 -4.47035e-08 0 0.324626 -38.4394 0 -9.26123 -21.8849 0 -5.14185 -8.6486 0 -2.42795 -3.15768 0 -1.03952 -1.07936 0 -0.462871 -0.330516 0 -0.3096 -4.47035e-08 0 13.4502 -2.98023e-08 0 0.630003 -34.6819 0 -4.42786 -22.4545 0 -2.63561 -9.59126 0 -1.26564 -3.73628 0 -0.555719 -1.36519 0 -0.251649 -0.443221 0 -0.171994 8.19564e-08 0 -7.45058e-09 5.96046e-08 0 -1.86265e-09 -33.3615 0 2.79397e-09 -22.6035 0 5.58794e-09 -9.92891 0 -5.58794e-09 -3.94603 0 1.11759e-08 -1.47199 0 -2.23517e-08 -0.485956 0 4.47035e-08 -7.45058e-08 0 </DataArray> 
</PointData> 
<Points> 
<DataArray type="Float32" NumberOfComponents="3"> 
0.13 0.035 0 0.137857 0.0328571 0 0.145714 0.0307143 0 0.153571 0.0285714 0 0.161429 0.0264286 0 0.169286 0.0242857 0 0.177143 0.0221429 0 0.185 0.02 0 0.13 0.0364286 0 0.137857 0.0345918 0 0.145714 0.0327551 0 0.153571 0.0309184 0 0.161429 0.0290816 0 0.169286 0.0272449 0 0.177143 0.0254082 0 0.185 0.0235714 0 0.13 0.0378571 0 0.137857 0.0363265 0 0.145714 0.0347959 0 0.153571 0.0332653 0 0.161429 0.0317347 0 0.169286 0.0302041 0 0.177143 0.0286735 0 0.185 0.0271429 0 0.13 0.0392857 0 0.137857 0.0380612 0 0.145714 0.0368367 0 0.153571 0.0356122 0 0.161429 0.0343878 0 0.169286 0.0331633 0 0.177143 0.0319388 0 0.185 0.0307143 0 0.13 0.0407143 0 0.137857 0.0397959 0 0.145714 0.0388776 0 0.153571 0.0379592 0 0.161429 0.0370408 0 0.169286 0.0361224 0 0.177143 0.0352041 0 0.185 0.0342857 0 0.13 0.0421429 0 0.137857 0.0415306 0 0.145714 0.0409184 0 0.153571 0.0403061 0 0.161429 0.0396939 0 0.169286 0.0390816 0 0.177143 0.0384694 0 0.185 0.0378571 0 0.13 0.0435714 0 0.137857 0.0432653 0 0.145714 0.0429592 0 0.153571 0.0426531 0 0.161429 0.0423469 0 0.169286 0.0420408 0 0.177143 0.0417347 0 0.185 0.0414286 0 0.13 0.045 0 0.137857 0.045 0 0.145714 0.045 0 0.153571 0.045 0 0.161429 0.045 0 0.169286 0.045 0 0.177143 0.045 0 0.185 0.045 0 
</DataArray>
</Points> 
</Piece> 
</StructuredGrid> 
</VTKFile> 
