<?xml version="1.0"?> 
<VTKFile type="StructuredGrid" version="0.1"> 
<StructuredGrid WholeExtent="0 7 0 7 0 0"> 
<Piece Extent="0 7 0 7 0 0"> 
<PointData>
<DataArray type="Float32" Name="|E|" format="ascii" NumberOfComponents="3"> 
-1.78814e-07 3.8723e+06 0 1.00583e-07 2.09047e+06 0 -7.45058e-08 1.42149e+06 0 -2.23517e-08 975053 0 5.96046e-08 634898 0 -5.96046e-08 342588 0 5.96046e-08 14320.1 0 -1.19209e-07 -524288 0 -1.27977e+06 2.54965e+06 0 -568962 2.05385e+06 0 -313719 1.50607e+06 0 -188986 1.09132e+06 0 -113094 757014 0 -69098.7 472194 0 -34976.2 198641 0 -4.47035e-08 -129387 0 -1.52287e+06 1.90659e+06 0 -1.01229e+06 1.77846e+06 0 -638691 1.47667e+06 0 -404351 1.14703e+06 0 -250313 840841 0 -143617 562455 0 -71955 318289 0 1.63913e-07 13329.8 0 -1.61124e+06 1.51436e+06 0 -1.2588e+06 1.50199e+06 0 -904487 1.36095e+06 0 -612865 1.13138e+06 0 -392091 873256 0 -227521 614913 0 -103710 375738 0 0 134041 0 -1.67727e+06 1.25455e+06 0 -1.40581e+06 1.27092e+06 0 -1.09054e+06 1.20932e+06 0 -781025 1.06059e+06 0 -515403 852769 0 -302194 621891 0 -135770 392125 0 0 158137 0 -1.74801e+06 1.06705e+06 0 -1.5093e+06 1.08383e+06 0 -1.21522e+06 1.05433e+06 0 -900162 952848 0 -606372 784664 0 -358249 578323 0 -156929 362446 0 -5.96046e-08 139324 0 -1.82964e+06 923785 0 -1.59307e+06 929274 0 -1.30063e+06 906634 0 -977269 825423 0 -664495 679794 0 -393172 491664 0 -171090 288212 0 2.98023e-07 81025.3 0 -1.92218e+06 809386 0 -1.66764e+06 796405 0 -1.36034e+06 767483 0 -1.02207e+06 689837 0 -694088 553243 0 -408241 377441 0 -176492 187780 0 -7.15256e-07 -670.552 0 </DataArray> 
</PointData> 
<Points> 
<DataArray type="Float32" NumberOfComponents="3"> 
0.1 0.045 0 0.101857 0.045 0 0.103714 0.045 0 0.105571 0.045 0 0.107429 0.045 0 0.109286 0.045 0 0.111143 0.045 0 0.113 0.045 0 0.1 0.0464286 0 0.101615 0.0462372 0 0.103264 0.0460418 0 0.104948 0.0458422 0 0.106668 0.0456384 0 0.108424 0.0454302 0 0.11022 0.0452175 0 0.112055 0.045 0 0.1 0.0478571 0 0.101445 0.0474915 0 0.102942 0.047113 0 0.104492 0.0467208 0 0.1061 0.0463143 0 0.107767 0.0458925 0 0.109498 0.0454548 0 0.111295 0.045 0 0.1 0.0492857 0 0.101351 0.0487503 0 0.10276 0.0481921 0 0.104231 0.0476094 0 0.105767 0.0470007 0 0.107374 0.0463643 0 0.109055 0.0456981 0 0.110817 0.045 0 0.1 0.0507143 0 0.101335 0.0500004 0 0.102726 0.0492561 0 0.104178 0.0484792 0 0.105696 0.0476677 0 0.107282 0.0468191 0 0.108943 0.0459308 0 0.110683 0.045 0 0.1 0.0521429 0 0.101395 0.0512288 0 0.10284 0.0502825 0 0.104337 0.049302 0 0.105888 0.0482857 0 0.107498 0.0472314 0 0.109168 0.0461369 0 0.110904 0.045 0 0.1 0.0535714 0 0.101532 0.052423 0 0.103096 0.0512505 0 0.104694 0.0500533 0 0.106325 0.0488305 0 0.107992 0.0475812 0 0.109695 0.0463047 0 0.111436 0.045 0 0.1 0.055 0 0.101742 0.0535714 0 0.103485 0.0521429 0 0.105227 0.0507143 0 0.106969 0.0492857 0 0.108711 0.0478571 0 0.110454 0.0464286 0 0.112196 0.045 0 
</DataArray>
</Points> 
</Piece> 
</StructuredGrid> 
</VTKFile> 
