<?xml version="1.0"?> 
<VTKFile type="StructuredGrid" version="0.1"> 
<StructuredGrid WholeExtent="0 127 0 127 0 0"> 
<Piece Extent="0 127 0 127 0 0"> 
<PointData>
<DataArray type="Float32" Name="|E|" format="ascii" NumberOfComponents="3"> 
-2.10812e+06 0 0 -2.10821e+06 2965.2 0 -2.10846e+06 5930.92 0 -2.10889e+06 8897.8 0 -2.10949e+06 11866.5 0 -2.11027e+06 14837.6 0 -2.11121e+06 17811.8 0 -2.11233e+06 20789.7 0 -2.11362e+06 23772 0 -2.11508e+06 26759.4 0 -2.11671e+06 29752.4 0 -2.11852e+06 32751.7 0 -2.1205e+06 35758.1 0 -2.12265e+06 38772.1 0 -2.12498e+06 41794.5 0 -2.12748e+06 44826 0 -2.13016e+06 47867.1 0 -2.13302e+06 50918.7 0 -2.13605e+06 53981.4 0 -2.13926e+06 57055.9 0 -2.14264e+06 60142.9 0 -2.14621e+06 63243.3 0 -2.14995e+06 66357.6 0 -2.15388e+06 69486.8 0 -2.15798e+06 72631.4 0 -2.16227e+06 75792.4 0 -2.16674e+06 78970.4 0 -2.17139e+06 82166.3 0 -2.17623e+06 85380.9 0 -2.18126e+06 88615 0 -2.18647e+06 91869.4 0 -2.19187e+06 95144.9 0 -2.19745e+06 98442.5 0 -2.20323e+06 101763 0 -2.2092e+06 105107 0 -2.21537e+06 108476 0 -2.22173e+06 111871 0 -2.22828e+06 115292 0 -2.23503e+06 118740 0 -2.24199e+06 122217 0 -2.24914e+06 125724 0 -2.25649e+06 129261 0 -2.26405e+06 132829 0 -2.27182e+06 136429 0 -2.27979e+06 140063 0 -2.28798e+06 143732 0 -2.29637e+06 147436 0 -2.30498e+06 151176 0 -2.31381e+06 154954 0 -2.32286e+06 158771 0 -2.33212e+06 162627 0 -2.34161e+06 166525 0 -2.35133e+06 170464 0 -2.36127e+06 174446 0 -2.37145e+06 178473 0 -2.38186e+06 182544 0 -2.39251e+06 186661 0 -2.4034e+06 190826 0 -2.41453e+06 195038 0 -2.42591e+06 199300 0 -2.43753e+06 203612 0 -2.44941e+06 207974 0 -2.46155e+06 212388 0 -2.47395e+06 216854 0 -2.48661e+06 221374 0 -2.49954e+06 225946 0 -2.51275e+06 230573 0 -2.52623e+06 235254 0 -2.53999e+06 239989 0 -2.55404e+06 244778 0 -2.56837e+06 249622 0 -2.58301e+06 254519 0 -2.59794e+06 259469 0 -2.61319e+06 264471 0 -2.62874e+06 269524 0 -2.64461e+06 274625 0 -2.6608e+06 279773 0 -2.67733e+06 284966 0 -2.69419e+06 290199 0 -2.71139e+06 295470 0 -2.72894e+06 300774 0 -2.74685e+06 306106 0 -2.76513e+06 311459 0 -2.78377e+06 316828 0 -2.8028e+06 322204 0 -2.82222e+06 327578 0 -2.84203e+06 332939 0 -2.86225e+06 338276 0 -2.88288e+06 343575 0 -2.90394e+06 348821 0 -2.92543e+06 353996 0 -2.94736e+06 359081 0 -2.96975e+06 364054 0 -2.99259e+06 368889 0 -3.01591e+06 373558 0 -3.0397e+06 378031 0 -3.06399e+06 382271 0 -3.08876e+06 386240 0 -3.11404e+06 389893 0 -3.13982e+06 393182 0 -3.16611e+06 396052 0 -3.1929e+06 398443 0 -3.2202e+06 400288 0 -3.248e+06 401513 0 -3.27627e+06 402038 0 -3.30502e+06 401775 0 -3.3342e+06 400627 0 -3.36378e+06 398490 0 -3.39371e+06 395253 0 -3.42394e+06 390796 0 -3.45438e+06 384994 0 -3.48494e+06 377717 0 -3.51551e+06 368831 0 -3.54594e+06 358204 0 -3.57608e+06 345705 0 -3.60571e+06 331214 0 -3.63464e+06 314623 0 -3.66259e+06 295848 0 -3.6893e+06 274831 0 -3.71445e+06 251555 0 -3.73773e+06 226045 0 -3.75881e+06 198385 0 -3.77735e+06 168716 0 -3.79303e+06 137235 0 -3.80557e+06 104199 0 -3.8147e+06 69948.2 0 -3.82022e+06 35157.2 0 -3.82239e+06 -527.501 0 -2.10788e+06 0 0 -2.10797e+06 2957.32 0 -2.10822e+06 5915.15 0 -2.10864e+06 8874.12 0 -2.10924e+06 11834.9 0 -2.11e+06 14798 0 -2.11093e+06 17764.1 0 -2.11203e+06 20734 0 -2.1133e+06 23708.1 0 -2.11474e+06 26687.2 0 -2.11635e+06 29671.8 0 -2.11813e+06 32662.7 0 -2.12008e+06 35660.5 0 -2.1222e+06 38665.8 0 -2.12449e+06 41679.3 0 -2.12696e+06 44701.7 0 -2.1296e+06 47733.6 0 -2.13241e+06 50775.8 0 -2.1354e+06 53828.9 0 -2.13856e+06 56893.6 0 -2.14189e+06 59970.6 0 -2.14541e+06 63060.7 0 -2.14909e+06 66164.5 0 -2.15296e+06 69282.9 0 -2.157e+06 72416.4 0 -2.16123e+06 75566 0 -2.16563e+06 78732.4 0 -2.17021e+06 81916.3 0 -2.17498e+06 85118.5 0 -2.17993e+06 88339.9 0 -2.18506e+06 91581.2 0 -2.19037e+06 94843.3 0 -2.19588e+06 98127 0 -2.20157e+06 101433 0 -2.20745e+06 104763 0 -2.21352e+06 108116 0 -2.21978e+06 111495 0 -2.22623e+06 114900 0 -2.23288e+06 118332 0 -2.23972e+06 121792 0 -2.24676e+06 125280 0 -2.254e+06 128798 0 -2.26144e+06 132348 0 -2.26909e+06 135928 0 -2.27694e+06 139542 0 -2.28499e+06 143190 0 -2.29325e+06 146872 0 -2.30173e+06 150590 0 -2.31041e+06 154345 0 -2.31931e+06 158138 0 -2.32843e+06 161970 0 -2.33777e+06 165842 0 -2.34733e+06 169755 0 -2.35711e+06 173710 0 -2.36712e+06 177709 0 -2.37736e+06 181751 0 -2.38783e+06 185839 0 -2.39854e+06 189973 0 -2.40948e+06 194155 0 -2.42067e+06 198385 0 -2.4321e+06 202663 0 -2.44378e+06 206992 0 -2.45571e+06 211372 0 -2.4679e+06 215803 0 -2.48035e+06 220286 0 -2.49305e+06 224822 0 -2.50603e+06 229412 0 -2.51927e+06 234055 0 -2.53279e+06 238752 0 -2.54659e+06 243503 0 -2.56068e+06 248307 0 -2.57505e+06 253165 0 -2.58972e+06 258077 0 -2.60469e+06 263040 0 -2.61996e+06 268054 0 -2.63554e+06 273118 0 -2.65143e+06 278230 0 -2.66765e+06 283387 0 -2.6842e+06 288587 0 -2.70108e+06 293826 0 -2.7183e+06 299101 0 -2.73587e+06 304407 0 -2.7538e+06 309739 0 -2.77209e+06 315091 0 -2.79074e+06 320455 0 -2.80978e+06 325824 0 -2.82921e+06 331187 0 -2.84903e+06 336534 0 -2.86925e+06 341854 0 -2.88989e+06 347131 0 -2.91095e+06 352351 0 -2.93244e+06 357496 0 -2.95438e+06 362545 0 -2.97676e+06 367476 0 -2.9996e+06 372264 0 -3.02291e+06 376880 0 -3.0467e+06 381292 0 -3.07098e+06 385465 0 -3.09574e+06 389358 0 -3.12101e+06 392928 0 -3.14677e+06 396124 0 -3.17305e+06 398891 0 -3.19982e+06 401169 0 -3.2271e+06 402891 0 -3.25487e+06 403981 0 -3.28312e+06 404360 0 -3.31182e+06 403937 0 -3.34096e+06 402617 0 -3.3705e+06 400295 0 -3.40038e+06 396859 0 -3.43054e+06 392190 0 -3.46091e+06 386163 0 -3.49139e+06 378648 0 -3.52185e+06 369511 0 -3.55217e+06 358622 0 -3.58217e+06 345851 0 -3.61166e+06 331079 0 -3.64041e+06 314202 0 -3.66818e+06 295137 0 -3.69467e+06 273832 0 -3.71959e+06 250270 0 -3.74262e+06 224485 0 -3.76342e+06 196562 0 -3.78167e+06 166649 0 -3.79706e+06 134957 0 -3.8093e+06 101688 0 -3.8181e+06 67347.8 0 -3.82337e+06 31961.3 0 -2.10764e+06 0 0 -2.10773e+06 2949.23 0 -2.10798e+06 5898.97 0 -2.10839e+06 8849.83 0 -2.10898e+06 11802.4 0 -2.10973e+06 14757.4 0 -2.11064e+06 17715.3 0 -2.11173e+06 20676.8 0 -2.11298e+06 23642.6 0 -2.1144e+06 26613.2 0 -2.11598e+06 29589.2 0 -2.11774e+06 32571.4 0 -2.11966e+06 35560.4 0 -2.12175e+06 38556.8 0 -2.12401e+06 41561.2 0 -2.12644e+06 44574.4 0 -2.12904e+06 47596.9 0 -2.13181e+06 50629.5 0 -2.13475e+06 53672.8 0 -2.13786e+06 56727.5 0 -2.14115e+06 59794.3 0 -2.14461e+06 62873.9 0 -2.14824e+06 65967.1 0 -2.15205e+06 69074.5 0 -2.15603e+06 72196.8 0 -2.16019e+06 75334.8 0 -2.16452e+06 78489.3 0 -2.16904e+06 81661.1 0 -2.17373e+06 84850.8 0 -2.1786e+06 88059.3 0 -2.18366e+06 91287.3 0 -2.18889e+06 94535.8 0 -2.19431e+06 97805.5 0 -2.19991e+06 101097 0 -2.2057e+06 104412 0 -2.21168e+06 107750 0 -2.21784e+06 111113 0 -2.22419e+06 114502 0 -2.23074e+06 117917 0 -2.23747e+06 121359 0 -2.24441e+06 124829 0 -2.25153e+06 128329 0 -2.25886e+06 131859 0 -2.26638e+06 135420 0 -2.2741e+06 139014 0 -2.28203e+06 142640 0 -2.29016e+06 146300 0 -2.2985e+06 149996 0 -2.30704e+06 153728 0 -2.3158e+06 157497 0 -2.32477e+06 161304 0 -2.33395e+06 165151 0 -2.34336e+06 169038 0 -2.35298e+06 172966 0 -2.36282e+06 176937 0 -2.37289e+06 180951 0 -2.38319e+06 185009 0 -2.39372e+06 189113 0 -2.40448e+06 193263 0 -2.41548e+06 197461 0 -2.42672e+06 201707 0 -2.4382e+06 206002 0 -2.44993e+06 210347 0 -2.46191e+06 214743 0 -2.47414e+06 219191 0 -2.48663e+06 223690 0 -2.49937e+06 228242 0 -2.51239e+06 232847 0 -2.52567e+06 237506 0 -2.53923e+06 242218 0 -2.55306e+06 246983 0 -2.56718e+06 251802 0 -2.58158e+06 256673 0 -2.59627e+06 261597 0 -2.61127e+06 266572 0 -2.62656e+06 271597 0 -2.64216e+06 276671 0 -2.65808e+06 281792 0 -2.67432e+06 286957 0 -2.69088e+06 292163 0 -2.70778e+06 297407 0 -2.72501e+06 302685 0 -2.7426e+06 307992 0 -2.76053e+06 313323 0 -2.77883e+06 318671 0 -2.7975e+06 324029 0 -2.81654e+06 329389 0 -2.83597e+06 334740 0 -2.85579e+06 340073 0 -2.87601e+06 345374 0 -2.89665e+06 350629 0 -2.91771e+06 355822 0 -2.93919e+06 360935 0 -2.96112e+06 365949 0 -2.98349e+06 370838 0 -3.00633e+06 375579 0 -3.02963e+06 380142 0 -3.0534e+06 384495 0 -3.07766e+06 388601 0 -3.10241e+06 392420 0 -3.12766e+06 395907 0 -3.1534e+06 399013 0 -3.17965e+06 401680 0 -3.2064e+06 403849 0 -3.23365e+06 405451 0 -3.26138e+06 406412 0 -3.2896e+06 406649 0 -3.31826e+06 406074 0 -3.34735e+06 404589 0 -3.37684e+06 402090 0 -3.40666e+06 398464 0 -3.43675e+06 393593 0 -3.46704e+06 387351 0 -3.49743e+06 379609 0 -3.5278e+06 370235 0 -3.55801e+06 359098 0 -3.58788e+06 346071 0 -3.61722e+06 331037 0 -3.64582e+06 313894 0 -3.6734e+06 294564 0 -3.6997e+06 272996 0 -3.72441e+06 249180 0 -3.74721e+06 223153 0 -3.76777e+06 195003 0 -3.78577e+06 164895 0 -3.80091e+06 133007 0 -3.81288e+06 99678.6 0 -3.82144e+06 65206.3 0 -2.1074e+06 0 0 -2.10749e+06 2940.95 0 -2.10773e+06 5882.39 0 -2.10814e+06 8824.93 0 -2.10872e+06 11769.2 0 -2.10946e+06 14715.7 0 -2.11036e+06 17665.2 0 -2.11143e+06 20618.2 0 -2.11266e+06 23575.4 0 -2.11406e+06 26537.3 0 -2.11562e+06 29504.7 0 -2.11734e+06 32478 0 -2.11924e+06 35458 0 -2.1213e+06 38445.2 0 -2.12352e+06 41440.4 0 -2.12592e+06 44444.1 0 -2.12848e+06 47457 0 -2.13121e+06 50479.8 0 -2.1341e+06 53513.2 0 -2.13717e+06 56557.7 0 -2.1404e+06 59614.1 0 -2.14381e+06 62683.1 0 -2.14739e+06 65765.3 0 -2.15114e+06 68861.6 0 -2.15506e+06 71972.5 0 -2.15915e+06 75098.8 0 -2.16342e+06 78241.3 0 -2.16787e+06 81400.7 0 -2.17249e+06 84577.7 0 -2.17729e+06 87773.2 0 -2.18226e+06 90987.8 0 -2.18742e+06 94222.5 0 -2.19275e+06 97478 0 -2.19827e+06 100755 0 -2.20397e+06 104055 0 -2.20985e+06 107377 0 -2.21592e+06 110724 0 -2.22217e+06 114096 0 -2.22861e+06 117494 0 -2.23524e+06 120919 0 -2.24206e+06 124372 0 -2.24908e+06 127853 0 -2.25629e+06 131364 0 -2.26369e+06 134905 0 -2.27129e+06 138478 0 -2.27909e+06 142083 0 -2.28709e+06 145721 0 -2.29529e+06 149395 0 -2.3037e+06 153103 0 -2.31231e+06 156848 0 -2.32114e+06 160631 0 -2.33017e+06 164452 0 -2.33942e+06 168313 0 -2.34888e+06 172214 0 -2.35857e+06 176157 0 -2.36847e+06 180142 0 -2.37859e+06 184171 0 -2.38895e+06 188245 0 -2.39953e+06 192364 0 -2.41034e+06 196529 0 -2.42139e+06 200743 0 -2.43267e+06 205004 0 -2.4442e+06 209315 0 -2.45597e+06 213675 0 -2.46799e+06 218086 0 -2.48026e+06 222549 0 -2.49279e+06 227064 0 -2.50557e+06 231630 0 -2.51862e+06 236250 0 -2.53193e+06 240923 0 -2.54552e+06 245648 0 -2.55938e+06 250427 0 -2.57352e+06 255259 0 -2.58795e+06 260143 0 -2.60267e+06 265078 0 -2.61768e+06 270064 0 -2.633e+06 275099 0 -2.64862e+06 280181 0 -2.66455e+06 285309 0 -2.6808e+06 290480 0 -2.69738e+06 295691 0 -2.71428e+06 300939 0 -2.73152e+06 306218 0 -2.74911e+06 311525 0 -2.76705e+06 316853 0 -2.78535e+06 322197 0 -2.80402e+06 327548 0 -2.82306e+06 332897 0 -2.84249e+06 338236 0 -2.8623e+06 343553 0 -2.88252e+06 348834 0 -2.90315e+06 354066 0 -2.9242e+06 359232 0 -2.94567e+06 364314 0 -2.96758e+06 369291 0 -2.98994e+06 374140 0 -3.01276e+06 378835 0 -3.03604e+06 383346 0 -3.0598e+06 387640 0 -3.08403e+06 391681 0 -3.10876e+06 395429 0 -3.13398e+06 398837 0 -3.15969e+06 401856 0 -3.18591e+06 404429 0 -3.21263e+06 406494 0 -3.23984e+06 407983 0 -3.26754e+06 408822 0 -3.2957e+06 408927 0 -3.32432e+06 408210 0 -3.35336e+06 406572 0 -3.38279e+06 403910 0 -3.41254e+06 400111 0 -3.44256e+06 395056 0 -3.47278e+06 388620 0 -3.50308e+06 380674 0 -3.53334e+06 371087 0 -3.56344e+06 359728 0 -3.59319e+06 346474 0 -3.6224e+06 331208 0 -3.65084e+06 313831 0 -3.67826e+06 294266 0 -3.70438e+06 272468 0 -3.7289e+06 248429 0 -3.7515e+06 222188 0 -3.77186e+06 193844 0 -3.78964e+06 163542 0 -3.80456e+06 131483 0 -3.81632e+06 98111 0 -2.10716e+06 0 0 -2.10724e+06 2932.46 0 -2.10749e+06 5865.4 0 -2.10789e+06 8799.43 0 -2.10846e+06 11735.1 0 -2.10919e+06 14673.1 0 -2.11007e+06 17613.9 0 -2.11113e+06 20558.2 0 -2.11234e+06 23506.6 0 -2.11371e+06 26459.7 0 -2.11525e+06 29418.1 0 -2.11695e+06 32382.3 0 -2.11882e+06 35353.1 0 -2.12085e+06 38331 0 -2.12304e+06 41316.7 0 -2.1254e+06 44310.8 0 -2.12792e+06 47314 0 -2.1306e+06 50326.8 0 -2.13346e+06 53350 0 -2.13648e+06 56384.1 0 -2.13966e+06 59430 0 -2.14302e+06 62488.1 0 -2.14654e+06 65559.3 0 -2.15023e+06 68644.2 0 -2.15409e+06 71743.5 0 -2.15813e+06 74858 0 -2.16233e+06 77988.3 0 -2.16671e+06 81135.1 0 -2.17126e+06 84299.3 0 -2.17598e+06 87481.6 0 -2.18088e+06 90682.7 0 -2.18595e+06 93903.4 0 -2.1912e+06 97144.5 0 -2.19663e+06 100407 0 -2.20224e+06 103691 0 -2.20803e+06 106998 0 -2.21401e+06 110329 0 -2.22016e+06 113685 0 -2.2265e+06 117066 0 -2.23303e+06 120473 0 -2.23974e+06 123907 0 -2.24664e+06 127369 0 -2.25373e+06 130861 0 -2.26102e+06 134382 0 -2.2685e+06 137934 0 -2.27617e+06 141518 0 -2.28404e+06 145135 0 -2.29211e+06 148786 0 -2.30038e+06 152471 0 -2.30886e+06 156192 0 -2.31753e+06 159950 0 -2.32642e+06 163745 0 -2.33552e+06 167580 0 -2.34482e+06 171454 0 -2.35434e+06 175369 0 -2.36408e+06 179326 0 -2.37404e+06 183325 0 -2.38421e+06 187368 0 -2.39462e+06 191456 0 -2.40525e+06 195590 0 -2.4161e+06 199770 0 -2.4272e+06 203998 0 -2.43852e+06 208274 0 -2.45009e+06 212599 0 -2.4619e+06 216974 0 -2.47396e+06 221399 0 -2.48626e+06 225876 0 -2.49882e+06 230405 0 -2.51164e+06 234986 0 -2.52471e+06 239619 0 -2.53805e+06 244305 0 -2.55167e+06 249043 0 -2.56555e+06 253834 0 -2.57972e+06 258677 0 -2.59416e+06 263572 0 -2.6089e+06 268517 0 -2.62393e+06 273512 0 -2.63926e+06 278556 0 -2.65489e+06 283646 0 -2.67083e+06 288780 0 -2.68709e+06 293956 0 -2.70367e+06 299170 0 -2.72058e+06 304420 0 -2.73783e+06 309699 0 -2.75541e+06 315005 0 -2.77335e+06 320329 0 -2.79165e+06 325667 0 -2.81031e+06 331009 0 -2.82934e+06 336348 0 -2.84876e+06 341673 0 -2.86857e+06 346973 0 -2.88877e+06 352234 0 -2.90939e+06 357443 0 -2.93042e+06 362581 0 -2.95187e+06 367632 0 -2.97377e+06 372573 0 -2.9961e+06 377381 0 -3.0189e+06 382030 0 -3.04215e+06 386490 0 -3.06588e+06 390728 0 -3.09009e+06 394707 0 -3.11478e+06 398385 0 -3.13997e+06 401718 0 -3.16565e+06 404654 0 -3.19183e+06 407137 0 -3.2185e+06 409104 0 -3.24567e+06 410487 0 -3.27332e+06 411211 0 -3.30144e+06 411194 0 -3.33e+06 410345 0 -3.35898e+06 408566 0 -3.38834e+06 405755 0 -3.41803e+06 401797 0 -3.44797e+06 396574 0 -3.4781e+06 389962 0 -3.50831e+06 381832 0 -3.53848e+06 372055 0 -3.56847e+06 360500 0 -3.5981e+06 347045 0 -3.62718e+06 331575 0 -3.65548e+06 313994 0 -3.68276e+06 294226 0 -3.70872e+06 272231 0 -3.73308e+06 248001 0 -3.75551e+06 221582 0 -3.77569e+06 193079 0 -3.7933e+06 162596 0 -3.80804e+06 130554 0 -2.10692e+06 0 0 -2.107e+06 2923.77 0 -2.10724e+06 5848.01 0 -2.10764e+06 8773.32 0 -2.1082e+06 11700.3 0 -2.10891e+06 14629.4 0 -2.10979e+06 17561.4 0 -2.11082e+06 20496.8 0 -2.11202e+06 23436.3 0 -2.11337e+06 26380.3 0 -2.11489e+06 29329.4 0 -2.11656e+06 32284.4 0 -2.1184e+06 35245.8 0 -2.1204e+06 38214.2 0 -2.12256e+06 41190.3 0 -2.12488e+06 44174.6 0 -2.12736e+06 47167.7 0 -2.13001e+06 50170.4 0 -2.13281e+06 53183.2 0 -2.13579e+06 56206.8 0 -2.13893e+06 59241.9 0 -2.14223e+06 62289 0 -2.1457e+06 65349 0 -2.14933e+06 68422.4 0 -2.15313e+06 71509.9 0 -2.1571e+06 74612.3 0 -2.16124e+06 77730.2 0 -2.16555e+06 80864.4 0 -2.17003e+06 84015.6 0 -2.17468e+06 87184.5 0 -2.1795e+06 90371.9 0 -2.1845e+06 93578.5 0 -2.18967e+06 96805.2 0 -2.19501e+06 100053 0 -2.20053e+06 103322 0 -2.20623e+06 106613 0 -2.21211e+06 109928 0 -2.21817e+06 113266 0 -2.22441e+06 116630 0 -2.23083e+06 120019 0 -2.23743e+06 123435 0 -2.24422e+06 126879 0 -2.2512e+06 130351 0 -2.25837e+06 133852 0 -2.26573e+06 137383 0 -2.27328e+06 140946 0 -2.28102e+06 144541 0 -2.28896e+06 148169 0 -2.29709e+06 151831 0 -2.30543e+06 155528 0 -2.31396e+06 159261 0 -2.3227e+06 163031 0 -2.33165e+06 166839 0 -2.3408e+06 170686 0 -2.35016e+06 174573 0 -2.35973e+06 178501 0 -2.36952e+06 182471 0 -2.37952e+06 186484 0 -2.38975e+06 190540 0 -2.4002e+06 194642 0 -2.41087e+06 198789 0 -2.42177e+06 202983 0 -2.4329e+06 207225 0 -2.44427e+06 211514 0 -2.45587e+06 215853 0 -2.46771e+06 220242 0 -2.4798e+06 224681 0 -2.49214e+06 229171 0 -2.50472e+06 233712 0 -2.51757e+06 238306 0 -2.53067e+06 242951 0 -2.54403e+06 247649 0 -2.55766e+06 252399 0 -2.57157e+06 257201 0 -2.58575e+06 262054 0 -2.60021e+06 266959 0 -2.61496e+06 271913 0 -2.63e+06 276917 0 -2.64533e+06 281967 0 -2.66097e+06 287063 0 -2.67692e+06 292202 0 -2.69318e+06 297382 0 -2.70976e+06 302599 0 -2.72667e+06 307848 0 -2.74391e+06 313127 0 -2.7615e+06 318429 0 -2.77943e+06 323749 0 -2.79771e+06 329080 0 -2.81636e+06 334413 0 -2.83539e+06 339740 0 -2.85479e+06 345050 0 -2.87458e+06 350333 0 -2.89476e+06 355573 0 -2.91535e+06 360758 0 -2.93636e+06 365869 0 -2.95779e+06 370888 0 -2.97966e+06 375793 0 -3.00197e+06 380562 0 -3.02473e+06 385166 0 -3.04795e+06 389577 0 -3.07165e+06 393760 0 -3.09582e+06 397679 0 -3.12047e+06 401292 0 -3.14562e+06 404552 0 -3.17126e+06 407410 0 -3.19739e+06 409808 0 -3.22402e+06 411684 0 -3.25113e+06 412969 0 -3.27873e+06 413587 0 -3.30679e+06 413456 0 -3.33529e+06 412487 0 -3.36421e+06 410581 0 -3.3935e+06 407633 0 -3.42311e+06 403533 0 -3.45297e+06 398161 0 -3.48302e+06 391393 0 -3.51313e+06 383102 0 -3.5432e+06 373157 0 -3.57309e+06 361432 0 -3.6026e+06 347804 0 -3.63157e+06 332161 0 -3.65974e+06 314406 0 -3.68689e+06 294469 0 -3.71272e+06 272308 0 -3.73693e+06 247919 0 -3.75922e+06 221361 0 -3.77926e+06 192679 0 -3.79673e+06 162239 0 -2.10668e+06 0 0 -2.10676e+06 2914.88 0 -2.10699e+06 5830.22 0 -2.10739e+06 8746.6 0 -2.10793e+06 11664.6 0 -2.10864e+06 14584.8 0 -2.1095e+06 17507.7 0 -2.11052e+06 20434 0 -2.1117e+06 23364.3 0 -2.11303e+06 26299 0 -2.11452e+06 29238.8 0 -2.11617e+06 32184.4 0 -2.11798e+06 35136.2 0 -2.11995e+06 38094.9 0 -2.12207e+06 41061 0 -2.12436e+06 44035.3 0 -2.1268e+06 47018.3 0 -2.12941e+06 50010.6 0 -2.13217e+06 53012.9 0 -2.1351e+06 56025.8 0 -2.13819e+06 59049.9 0 -2.14144e+06 62085.9 0 -2.14486e+06 65134.4 0 -2.14844e+06 68196.1 0 -2.15218e+06 71271.7 0 -2.15609e+06 74361.8 0 -2.16016e+06 77467.2 0 -2.1644e+06 80588.6 0 -2.16881e+06 83726.6 0 -2.17339e+06 86882 0 -2.17813e+06 90055.5 0 -2.18305e+06 93247.8 0 -2.18814e+06 96459.8 0 -2.1934e+06 99692.2 0 -2.19883e+06 102946 0 -2.20444e+06 106221 0 -2.21022e+06 109519 0 -2.21619e+06 112841 0 -2.22232e+06 116188 0 -2.22864e+06 119559 0 -2.23514e+06 122957 0 -2.24182e+06 126381 0 -2.24869e+06 129834 0 -2.25574e+06 133315 0 -2.26298e+06 136825 0 -2.2704e+06 140367 0 -2.27802e+06 143940 0 -2.28583e+06 147545 0 -2.29383e+06 151183 0 -2.30203e+06 154856 0 -2.31042e+06 158565 0 -2.31901e+06 162309 0 -2.32781e+06 166091 0 -2.33681e+06 169910 0 -2.34601e+06 173770 0 -2.35542e+06 177669 0 -2.36504e+06 181609 0 -2.37488e+06 185591 0 -2.38493e+06 189617 0 -2.39519e+06 193686 0 -2.40568e+06 197801 0 -2.41639e+06 201961 0 -2.42733e+06 206167 0 -2.4385e+06 210422 0 -2.4499e+06 214724 0 -2.46153e+06 219076 0 -2.4734e+06 223477 0 -2.48552e+06 227928 0 -2.49788e+06 232430 0 -2.51049e+06 236984 0 -2.52335e+06 241589 0 -2.53647e+06 246246 0 -2.54986e+06 250954 0 -2.5635e+06 255715 0 -2.57742e+06 260526 0 -2.59161e+06 265389 0 -2.60608e+06 270302 0 -2.62084e+06 275264 0 -2.63589e+06 280274 0 -2.65122e+06 285331 0 -2.66687e+06 290431 0 -2.68281e+06 295574 0 -2.69907e+06 300756 0 -2.71565e+06 305974 0 -2.73255e+06 311223 0 -2.74978e+06 316500 0 -2.76735e+06 321798 0 -2.78527e+06 327112 0 -2.80354e+06 332434 0 -2.82218e+06 337757 0 -2.84118e+06 343072 0 -2.86056e+06 348367 0 -2.88032e+06 353631 0 -2.90048e+06 358850 0 -2.92105e+06 364010 0 -2.94203e+06 369094 0 -2.96343e+06 374082 0 -2.98526e+06 378952 0 -3.00753e+06 383682 0 -3.03026e+06 388243 0 -3.05344e+06 392606 0 -3.07709e+06 396737 0 -3.10122e+06 400598 0 -3.12583e+06 404149 0 -3.15092e+06 407342 0 -3.17651e+06 410126 0 -3.20259e+06 412445 0 -3.22916e+06 414236 0 -3.25622e+06 415431 0 -3.28375e+06 415952 0 -3.31175e+06 415719 0 -3.34018e+06 414641 0 -3.36903e+06 412620 0 -3.39824e+06 409552 0 -3.42778e+06 405326 0 -3.45756e+06 399823 0 -3.48751e+06 392920 0 -3.51754e+06 384490 0 -3.54751e+06 374404 0 -3.57729e+06 362535 0 -3.6067e+06 348763 0 -3.63556e+06 332975 0 -3.66362e+06 315080 0 -3.69065e+06 295006 0 -3.71636e+06 272710 0 -3.74047e+06 248208 0 -3.76265e+06 221491 0 -3.78257e+06 192875 0 -2.10643e+06 0 0 -2.10651e+06 2905.78 0 -2.10674e+06 5812.02 0 -2.10713e+06 8719.28 0 -2.10767e+06 11628.1 0 -2.10836e+06 14539.1 0 -2.10921e+06 17452.8 0 -2.11022e+06 20369.8 0 -2.11138e+06 23290.7 0 -2.11269e+06 26215.9 0 -2.11416e+06 29146.2 0 -2.11578e+06 32082.1 0 -2.11756e+06 35024.1 0 -2.1195e+06 37972.9 0 -2.12159e+06 40929 0 -2.12384e+06 43893.1 0 -2.12625e+06 46865.7 0 -2.12881e+06 49847.5 0 -2.13154e+06 52839 0 -2.13442e+06 55841 0 -2.13746e+06 58853.9 0 -2.14066e+06 61878.6 0 -2.14402e+06 64915.5 0 -2.14754e+06 67965.3 0 -2.15123e+06 71028.8 0 -2.15507e+06 74106.5 0 -2.15908e+06 77199.2 0 -2.16326e+06 80307.6 0 -2.1676e+06 83432.2 0 -2.1721e+06 86573.9 0 -2.17677e+06 89733.4 0 -2.18161e+06 92911.4 0 -2.18662e+06 96108.6 0 -2.1918e+06 99325.7 0 -2.19714e+06 102564 0 -2.20266e+06 105823 0 -2.20835e+06 109105 0 -2.21422e+06 112410 0 -2.22026e+06 115738 0 -2.22648e+06 119092 0 -2.23287e+06 122471 0 -2.23944e+06 125876 0 -2.2462e+06 129309 0 -2.25313e+06 132770 0 -2.26025e+06 136260 0 -2.26755e+06 139780 0 -2.27505e+06 143331 0 -2.28272e+06 146913 0 -2.29059e+06 150528 0 -2.29865e+06 154177 0 -2.30691e+06 157860 0 -2.31536e+06 161579 0 -2.324e+06 165334 0 -2.33285e+06 169127 0 -2.3419e+06 172958 0 -2.35115e+06 176829 0 -2.36061e+06 180739 0 -2.37027e+06 184691 0 -2.38015e+06 188685 0 -2.39024e+06 192723 0 -2.40054e+06 196804 0 -2.41107e+06 200930 0 -2.42181e+06 205102 0 -2.43278e+06 209321 0 -2.44398e+06 213587 0 -2.45541e+06 217902 0 -2.46707e+06 222265 0 -2.47897e+06 226678 0 -2.49111e+06 231140 0 -2.50349e+06 235654 0 -2.51612e+06 240218 0 -2.529e+06 244834 0 -2.54213e+06 249501 0 -2.55553e+06 254219 0 -2.56918e+06 258988 0 -2.58311e+06 263809 0 -2.59731e+06 268679 0 -2.61178e+06 273599 0 -2.62654e+06 278568 0 -2.64159e+06 283584 0 -2.65693e+06 288645 0 -2.67256e+06 293749 0 -2.6885e+06 298894 0 -2.70475e+06 304077 0 -2.72132e+06 309294 0 -2.73821e+06 314542 0 -2.75543e+06 319815 0 -2.77298e+06 325108 0 -2.79088e+06 330415 0 -2.80913e+06 335729 0 -2.82774e+06 341040 0 -2.84671e+06 346341 0 -2.86607e+06 351620 0 -2.8858e+06 356866 0 -2.90593e+06 362064 0 -2.92646e+06 367200 0 -2.9474e+06 372256 0 -2.96877e+06 377213 0 -2.99056e+06 382050 0 -3.01279e+06 386741 0 -3.03547e+06 391261 0 -3.05861e+06 395578 0 -3.08221e+06 399659 0 -3.10628e+06 403467 0 -3.13084e+06 406959 0 -3.15588e+06 410088 0 -3.18141e+06 412805 0 -3.20743e+06 415052 0 -3.23394e+06 416765 0 -3.26093e+06 417877 0 -3.28839e+06 418312 0 -3.31632e+06 417987 0 -3.34468e+06 416812 0 -3.37344e+06 414691 0 -3.40258e+06 411518 0 -3.43203e+06 407184 0 -3.46172e+06 401570 0 -3.49159e+06 394553 0 -3.52152e+06 386007 0 -3.5514e+06 375804 0 -3.58108e+06 363819 0 -3.61039e+06 349932 0 -3.63914e+06 334032 0 -3.66711e+06 316028 0 -3.69404e+06 295846 0 -3.71966e+06 273465 0 -3.74368e+06 248826 0 -3.76577e+06 222202 0 -2.10619e+06 0 0 -2.10627e+06 2896.49 0 -2.10649e+06 5793.42 0 -2.10687e+06 8691.35 0 -2.10741e+06 11590.8 0 -2.10809e+06 14492.4 0 -2.10893e+06 17396.7 0 -2.10991e+06 20304.2 0 -2.11105e+06 23215.4 0 -2.11235e+06 26131.1 0 -2.11379e+06 29051.6 0 -2.11539e+06 31977.6 0 -2.11714e+06 34909.6 0 -2.11905e+06 37848.3 0 -2.12111e+06 40794.2 0 -2.12333e+06 43747.9 0 -2.12569e+06 46709.9 0 -2.12822e+06 49681 0 -2.1309e+06 52661.6 0 -2.13374e+06 55652.5 0 -2.13673e+06 58654.1 0 -2.13988e+06 61667.1 0 -2.14319e+06 64692.3 0 -2.14666e+06 67730.1 0 -2.15028e+06 70781.3 0 -2.15407e+06 73846.4 0 -2.15801e+06 76926.2 0 -2.16212e+06 80021.4 0 -2.16639e+06 83132.6 0 -2.17083e+06 86260.4 0 -2.17542e+06 89405.7 0 -2.18018e+06 92569.1 0 -2.18511e+06 95751.4 0 -2.1902e+06 98953.2 0 -2.19547e+06 102175 0 -2.2009e+06 105419 0 -2.20649e+06 108684 0 -2.21226e+06 111971 0 -2.21821e+06 115283 0 -2.22432e+06 118618 0 -2.23061e+06 121978 0 -2.23708e+06 125365 0 -2.24372e+06 128778 0 -2.25054e+06 132218 0 -2.25754e+06 135687 0 -2.26473e+06 139186 0 -2.27209e+06 142714 0 -2.27964e+06 146274 0 -2.28738e+06 149865 0 -2.29531e+06 153490 0 -2.30342e+06 157148 0 -2.31173e+06 160841 0 -2.32023e+06 164570 0 -2.32893e+06 168336 0 -2.33782e+06 172139 0 -2.34691e+06 175981 0 -2.35621e+06 179862 0 -2.36571e+06 183783 0 -2.37541e+06 187746 0 -2.38533e+06 191751 0 -2.39545e+06 195800 0 -2.40579e+06 199892 0 -2.41635e+06 204030 0 -2.42713e+06 208213 0 -2.43812e+06 212443 0 -2.44935e+06 216720 0 -2.4608e+06 221045 0 -2.47248e+06 225419 0 -2.4844e+06 229842 0 -2.49656e+06 234315 0 -2.50895e+06 238839 0 -2.5216e+06 243413 0 -2.53449e+06 248038 0 -2.54763e+06 252714 0 -2.56104e+06 257440 0 -2.5747e+06 262218 0 -2.58863e+06 267046 0 -2.60283e+06 271923 0 -2.6173e+06 276849 0 -2.63206e+06 281823 0 -2.6471e+06 286843 0 -2.66243e+06 291907 0 -2.67806e+06 297014 0 -2.69398e+06 302160 0 -2.71022e+06 307343 0 -2.72677e+06 312559 0 -2.74364e+06 317803 0 -2.76084e+06 323072 0 -2.77837e+06 328359 0 -2.79625e+06 333658 0 -2.81447e+06 338962 0 -2.83305e+06 344262 0 -2.85199e+06 349548 0 -2.87131e+06 354811 0 -2.89101e+06 360038 0 -2.9111e+06 365214 0 -2.93159e+06 370326 0 -2.95249e+06 375355 0 -2.97381e+06 380282 0 -2.99555e+06 385086 0 -3.01773e+06 389741 0 -3.04036e+06 394220 0 -3.06344e+06 398494 0 -3.08699e+06 402528 0 -3.11101e+06 406285 0 -3.1355e+06 409722 0 -3.16048e+06 412794 0 -3.18594e+06 415449 0 -3.21189e+06 417629 0 -3.23833e+06 419273 0 -3.26525e+06 420311 0 -3.29264e+06 420669 0 -3.32048e+06 420264 0 -3.34876e+06 419005 0 -3.37745e+06 416798 0 -3.40649e+06 413537 0 -3.43585e+06 409112 0 -3.46546e+06 403407 0 -3.49523e+06 396298 0 -3.52507e+06 387660 0 -3.55486e+06 377367 0 -3.58444e+06 365294 0 -3.61366e+06 351321 0 -3.64232e+06 335341 0 -3.6702e+06 317257 0 -3.69705e+06 297018 0 -3.7226e+06 274526 0 -3.74655e+06 250007 0 -2.10594e+06 0 0 -2.10602e+06 2886.99 0 -2.10624e+06 5774.41 0 -2.10662e+06 8662.82 0 -2.10714e+06 11552.8 0 -2.10781e+06 14444.8 0 -2.10864e+06 17339.4 0 -2.10961e+06 20237.1 0 -2.11073e+06 23138.6 0 -2.112e+06 26044.4 0 -2.11343e+06 28954.9 0 -2.115e+06 31870.9 0 -2.11673e+06 34792.8 0 -2.1186e+06 37721.1 0 -2.12063e+06 40656.6 0 -2.12281e+06 43599.7 0 -2.12514e+06 46551 0 -2.12763e+06 49511.1 0 -2.13027e+06 52480.7 0 -2.13306e+06 55460.2 0 -2.136e+06 58450.3 0 -2.1391e+06 61451.6 0 -2.14236e+06 64464.8 0 -2.14577e+06 67490.4 0 -2.14934e+06 70529.1 0 -2.15307e+06 73581.5 0 -2.15695e+06 76648.3 0 -2.16099e+06 79730.1 0 -2.16519e+06 82827.6 0 -2.16956e+06 85941.5 0 -2.17408e+06 89072.4 0 -2.17876e+06 92221.1 0 -2.18361e+06 95388.3 0 -2.18862e+06 98574.6 0 -2.1938e+06 101781 0 -2.19914e+06 105008 0 -2.20465e+06 108256 0 -2.21033e+06 111527 0 -2.21617e+06 114820 0 -2.22219e+06 118137 0 -2.22837e+06 121479 0 -2.23473e+06 124846 0 -2.24127e+06 128239 0 -2.24797e+06 131659 0 -2.25486e+06 135107 0 -2.26192e+06 138584 0 -2.26917e+06 142090 0 -2.27659e+06 145627 0 -2.2842e+06 149195 0 -2.29199e+06 152795 0 -2.29997e+06 156429 0 -2.30813e+06 160096 0 -2.31649e+06 163799 0 -2.32504e+06 167537 0 -2.33378e+06 171312 0 -2.34271e+06 175125 0 -2.35185e+06 178976 0 -2.36118e+06 182868 0 -2.37072e+06 186799 0 -2.38046e+06 190772 0 -2.39041e+06 194788 0 -2.40057e+06 198846 0 -2.41094e+06 202949 0 -2.42152e+06 207097 0 -2.43232e+06 211290 0 -2.44334e+06 215530 0 -2.45459e+06 219817 0 -2.46606e+06 224152 0 -2.47776e+06 228536 0 -2.4897e+06 232969 0 -2.50186e+06 237451 0 -2.51427e+06 241984 0 -2.52693e+06 246566 0 -2.53983e+06 251200 0 -2.55298e+06 255883 0 -2.56638e+06 260617 0 -2.58005e+06 265402 0 -2.59397e+06 270235 0 -2.60817e+06 275118 0 -2.62264e+06 280049 0 -2.63739e+06 285027 0 -2.65242e+06 290050 0 -2.66773e+06 295116 0 -2.68335e+06 300224 0 -2.69926e+06 305370 0 -2.71547e+06 310552 0 -2.732e+06 315765 0 -2.74885e+06 321006 0 -2.76602e+06 326269 0 -2.78352e+06 331549 0 -2.80137e+06 336839 0 -2.81956e+06 342132 0 -2.8381e+06 347419 0 -2.85701e+06 352691 0 -2.87629e+06 357937 0 -2.89594e+06 363145 0 -2.91599e+06 368300 0 -2.93643e+06 373388 0 -2.95728e+06 378390 0 -2.97855e+06 383288 0 -3.00024e+06 388060 0 -3.02236e+06 392680 0 -3.04493e+06 397122 0 -3.06795e+06 401355 0 -3.09143e+06 405345 0 -3.11538e+06 409055 0 -3.13981e+06 412442 0 -3.16471e+06 415460 0 -3.1901e+06 418059 0 -3.21598e+06 420180 0 -3.24234e+06 421762 0 -3.26918e+06 422737 0 -3.29648e+06 423028 0 -3.32424e+06 422554 0 -3.35244e+06 421226 0 -3.38103e+06 418947 0 -3.40999e+06 415614 0 -3.43925e+06 411118 0 -3.46877e+06 405341 0 -3.49844e+06 398163 0 -3.52819e+06 389458 0 -3.55788e+06 379101 0 -3.58738e+06 366968 0 -3.61651e+06 352940 0 -3.64509e+06 336908 0 -3.6729e+06 318794 0 -3.69969e+06 298473 0 -3.72517e+06 276122 0 -2.1057e+06 0 0 -2.10577e+06 2877.29 0 -2.10599e+06 5755 0 -2.10636e+06 8633.68 0 -2.10687e+06 11513.9 0 -2.10754e+06 14396.1 0 -2.10835e+06 17280.8 0 -2.1093e+06 20168.7 0 -2.11041e+06 23060.2 0 -2.11166e+06 25955.9 0 -2.11306e+06 28856.3 0 -2.11461e+06 31762 0 -2.11631e+06 34673.5 0 -2.11816e+06 37591.4 0 -2.12015e+06 40516.2 0 -2.1223e+06 43448.5 0 -2.12459e+06 46388.9 0 -2.12704e+06 49337.9 0 -2.12963e+06 52296.2 0 -2.13238e+06 55264.2 0 -2.13528e+06 58242.6 0 -2.13833e+06 61232 0 -2.14154e+06 64233 0 -2.14489e+06 67246.3 0 -2.1484e+06 70272.3 0 -2.15207e+06 73311.8 0 -2.15589e+06 76365.4 0 -2.15987e+06 79433.7 0 -2.164e+06 82517.3 0 -2.16829e+06 85617.1 0 -2.17274e+06 88733.5 0 -2.17735e+06 91867.3 0 -2.18212e+06 95019.3 0 -2.18705e+06 98190 0 -2.19214e+06 101380 0 -2.1974e+06 104591 0 -2.20282e+06 107822 0 -2.2084e+06 111075 0 -2.21415e+06 114351 0 -2.22006e+06 117650 0 -2.22615e+06 120973 0 -2.2324e+06 124320 0 -2.23883e+06 127693 0 -2.24543e+06 131093 0 -2.2522e+06 134520 0 -2.25914e+06 137975 0 -2.26626e+06 141459 0 -2.27356e+06 144973 0 -2.28104e+06 148517 0 -2.2887e+06 152093 0 -2.29654e+06 155702 0 -2.30457e+06 159343 0 -2.31278e+06 163019 0 -2.32118e+06 166730 0 -2.32977e+06 170477 0 -2.33855e+06 174261 0 -2.34753e+06 178083 0 -2.3567e+06 181944 0 -2.36607e+06 185845 0 -2.37564e+06 189785 0 -2.38541e+06 193768 0 -2.39539e+06 197793 0 -2.40558e+06 201861 0 -2.41597e+06 205973 0 -2.42658e+06 210130 0 -2.4374e+06 214333 0 -2.44844e+06 218582 0 -2.4597e+06 222878 0 -2.47119e+06 227222 0 -2.4829e+06 23161