<?xml version="1.0"?> 
<VTKFile type="StructuredGrid" version="0.1"> 
<StructuredGrid WholeExtent="0 127 0 127 0 0"> 
<Piece Extent="0 127 0 127 0 0"> 
<PointData>
<DataArray type="Float32" Name="|E|" format="ascii" NumberOfComponents="3"> 
-2.13335e+06 0 0 -2.13343e+06 1.73149e-06 0 -2.1337e+06 3.4568e-06 0 -2.13414e+06 5.20708e-06 0 -2.13476e+06 6.95059e-06 0 -2.13556e+06 8.69279e-06 0 -2.13653e+06 1.04274e-05 0 -2.13769e+06 1.22368e-05 0 -2.13902e+06 1.39707e-05 0 -2.14052e+06 1.5755e-05 0 -2.14221e+06 1.75678e-05 0 -2.14408e+06 1.9341e-05 0 -2.14612e+06 2.11934e-05 0 -2.14835e+06 2.29403e-05 0 -2.15075e+06 2.48454e-05 0 -2.15333e+06 2.66777e-05 0 -2.1561e+06 2.87071e-05 0 -2.15905e+06 3.03918e-05 0 -2.16218e+06 3.23607e-05 0 -2.16549e+06 3.43695e-05 0 -2.16899e+06 3.62881e-05 0 -2.17268e+06 3.81265e-05 0 -2.17654e+06 4.03076e-05 0 -2.1806e+06 4.24571e-05 0 -2.18484e+06 4.44073e-05 0 -2.18927e+06 4.63556e-05 0 -2.19389e+06 4.89838e-05 0 -2.19871e+06 5.06677e-05 0 -2.20371e+06 5.29289e-05 0 -2.2089e+06 5.49145e-05 0 -2.21429e+06 5.72167e-05 0 -2.21988e+06 5.96903e-05 0 -2.22566e+06 6.19292e-05 0 -2.23164e+06 6.4373e-05 0 -2.23782e+06 6.6556e-05 0 -2.2442e+06 6.897e-05 0 -2.25078e+06 7.13915e-05 0 -2.25757e+06 7.35223e-05 0 -2.26456e+06 7.6279e-05 0 -2.27176e+06 7.80597e-05 0 -2.27917e+06 8.11815e-05 0 -2.28678e+06 8.36253e-05 0 -2.29462e+06 8.58158e-05 0 -2.30266e+06 8.85725e-05 0 -2.31092e+06 9.08822e-05 0 -2.3194e+06 9.30578e-05 0 -2.32811e+06 9.5427e-05 0 -2.33703e+06 9.83626e-05 0 -2.34618e+06 0.000100046 0 -2.35555e+06 0.000102445 0 -2.36516e+06 0.000104636 0 -2.375e+06 0.00010699 0 -2.38507e+06 0.000109375 0 -2.39537e+06 0.000111043 0 -2.40592e+06 0.000112504 0 -2.41671e+06 0.000114173 0 -2.42774e+06 0.000115275 0 -2.43902e+06 0.000118166 0 -2.45055e+06 0.000117481 0 -2.46233e+06 0.000120014 0 -2.47436e+06 0.000119001 0 -2.48665e+06 0.000118613 0 -2.4992e+06 0.000119627 0 -2.51201e+06 0.000117481 0 -2.52509e+06 0.000116229 0 -2.53844e+06 0.000113785 0 -2.55206e+06 0.000110924 0 -2.56595e+06 0.000107527 0 -2.58011e+06 0.00010246 0 -2.59455e+06 9.82881e-05 0 -2.60928e+06 9.05395e-05 0 -2.62428e+06 8.38637e-05 0 -2.63957e+06 7.48634e-05 0 -2.65514e+06 6.33597e-05 0 -2.67101e+06 5.1558e-05 0 -2.68716e+06 3.67165e-05 0 -2.7036e+06 2.07424e-05 0 -2.72033e+06 2.563e-06 0 -2.73735e+06 -1.8239e-05 0 -2.75466e+06 -4.25577e-05 0 -2.77226e+06 -6.81877e-05 0 -2.79015e+06 -9.84669e-05 0 -2.80833e+06 -0.000131488 0 -2.82679e+06 -0.000168562 0 -2.84553e+06 -0.000210047 0 -2.86454e+06 -0.000257611 0 -2.88383e+06 -0.00030601 0 -2.90339e+06 -0.000362873 0 -2.9232e+06 -0.000423789 0 -2.94325e+06 -0.000492454 0 -2.96355e+06 -0.000564814 0 -2.98407e+06 -0.000646114 0 -3.00481e+06 -0.000733733 0 -3.02574e+06 -0.000827551 0 -3.04686e+06 -0.000929832 0 -3.06813e+06 -0.00103796 0 -3.08954e+06 -0.00115645 0 -3.11107e+06 -0.00127983 0 -3.13268e+06 -0.00141072 0 -3.15434e+06 -0.00154924 0 -3.17603e+06 -0.0016923 0 -3.19771e+06 -0.00184107 0 -3.21933e+06 -0.00199413 0 -3.24086e+06 -0.00214982 0 -3.26224e+06 -0.00230694 0 -3.28343e+06 -0.00246119 0 -3.30438e+06 -0.00261474 0 -3.32502e+06 -0.0027597 0 -3.3453e+06 -0.00289559 0 -3.36515e+06 -0.00302052 0 -3.3845e+06 -0.00312734 0 -3.4033e+06 -0.00321484 0 -3.42146e+06 -0.00327754 0 -3.43892e+06 -0.00331354 0 -3.45559e+06 -0.00331712 0 -3.47141e+06 -0.00328708 0 -3.48631e+06 -0.00321865 0 -3.5002e+06 -0.00310898 0 -3.51302e+06 -0.00295711 0 -3.52469e+06 -0.00276446 0 -3.53517e+06 -0.00252986 0 -3.54437e+06 -0.00225544 0 -3.55226e+06 -0.00194359 0 -3.55879e+06 -0.0015974 0 -3.5639e+06 -0.00122404 0 -3.56758e+06 -0.000827312 0 -3.5698e+06 -0.000417233 0 -3.57055e+06 -3.8147e-06 0 -2.13334e+06 0 0 -2.13343e+06 23.5837 0 -2.1337e+06 47.1726 0 -2.13414e+06 70.7719 0 -2.13476e+06 94.3868 0 -2.13556e+06 118.022 0 -2.13653e+06 141.684 0 -2.13769e+06 165.377 0 -2.13902e+06 189.106 0 -2.14052e+06 212.878 0 -2.14221e+06 236.696 0 -2.14407e+06 260.567 0 -2.14612e+06 284.495 0 -2.14834e+06 308.487 0 -2.15075e+06 332.548 0 -2.15333e+06 356.683 0 -2.1561e+06 380.898 0 -2.15905e+06 405.198 0 -2.16218e+06 429.59 0 -2.16549e+06 454.078 0 -2.16899e+06 478.67 0 -2.17267e+06 503.37 0 -2.17654e+06 528.184 0 -2.1806e+06 553.119 0 -2.18484e+06 578.181 0 -2.18927e+06 603.375 0 -2.19389e+06 628.709 0 -2.1987e+06 654.188 0 -2.20371e+06 679.819 0 -2.2089e+06 705.609 0 -2.21429e+06 731.563 0 -2.21988e+06 757.689 0 -2.22566e+06 783.993 0 -2.23164e+06 810.482 0 -2.23782e+06 837.164 0 -2.2442e+06 864.044 0 -2.25078e+06 891.131 0 -2.25756e+06 918.43 0 -2.26456e+06 945.951 0 -2.27176e+06 973.699 0 -2.27916e+06 1001.68 0 -2.28678e+06 1029.91 0 -2.29461e+06 1058.38 0 -2.30266e+06 1087.11 0 -2.31092e+06 1116.11 0 -2.3194e+06 1145.38 0 -2.3281e+06 1174.92 0 -2.33703e+06 1204.76 0 -2.34618e+06 1234.88 0 -2.35555e+06 1265.31 0 -2.36516e+06 1296.05 0 -2.37499e+06 1327.09 0 -2.38506e+06 1358.46 0 -2.39537e+06 1390.16 0 -2.40592e+06 1422.18 0 -2.41671e+06 1454.55 0 -2.42774e+06 1487.26 0 -2.43902e+06 1520.31 0 -2.45054e+06 1553.72 0 -2.46232e+06 1587.47 0 -2.47436e+06 1621.59 0 -2.48665e+06 1656.06 0 -2.4992e+06 1690.88 0 -2.51201e+06 1726.06 0 -2.52509e+06 1761.59 0 -2.53844e+06 1797.47 0 -2.55205e+06 1833.69 0 -2.56594e+06 1870.25 0 -2.58011e+06 1907.12 0 -2.59455e+06 1944.31 0 -2.60927e+06 1981.78 0 -2.62428e+06 2019.53 0 -2.63957e+06 2057.53 0 -2.65514e+06 2095.74 0 -2.671e+06 2134.15 0 -2.68715e+06 2172.71 0 -2.70359e+06 2211.39 0 -2.72032e+06 2250.12 0 -2.73735e+06 2288.86 0 -2.75466e+06 2327.55 0 -2.77226e+06 2366.11 0 -2.79015e+06 2404.47 0 -2.80832e+06 2442.53 0 -2.82678e+06 2480.19 0 -2.84552e+06 2517.35 0 -2.86454e+06 2553.88 0 -2.88383e+06 2589.64 0 -2.90338e+06 2624.48 0 -2.92319e+06 2658.24 0 -2.94325e+06 2690.72 0 -2.96355e+06 2721.73 0 -2.98407e+06 2751.04 0 -3.00481e+06 2778.42 0 -3.02574e+06 2803.6 0 -3.04686e+06 2826.31 0 -3.06813e+06 2846.22 0 -3.08954e+06 2863.03 0 -3.11107e+06 2876.38 0 -3.13268e+06 2885.89 0 -3.15434e+06 2891.19 0 -3.17603e+06 2891.84 0 -3.19771e+06 2887.43 0 -3.21933e+06 2877.51 0 -3.24086e+06 2861.62 0 -3.26224e+06 2839.29 0 -3.28343e+06 2810.06 0 -3.30438e+06 2773.47 0 -3.32502e+06 2729.05 0 -3.3453e+06 2676.38 0 -3.36515e+06 2615.04 0 -3.38451e+06 2544.67 0 -3.40331e+06 2464.95 0 -3.42147e+06 2375.62 0 -3.43892e+06 2276.48 0 -3.4556e+06 2167.44 0 -3.47142e+06 2048.47 0 -3.48632e+06 1919.69 0 -3.50021e+06 1781.28 0 -3.51303e+06 1633.59 0 -3.5247e+06 1477.05 0 -3.53518e+06 1312.25 0 -3.54439e+06 1139.89 0 -3.55227e+06 960.796 0 -3.5588e+06 775.892 0 -3.56392e+06 586.213 0 -3.5676e+06 392.876 0 -3.56982e+06 197.063 0 -3.57056e+06 2.73436e-06 0 -2.13334e+06 0 0 -2.13343e+06 47.1674 0 -2.13369e+06 94.3451 0 -2.13414e+06 141.544 0 -2.13476e+06 188.773 0 -2.13555e+06 236.044 0 -2.13653e+06 283.368 0 -2.13768e+06 330.753 0 -2.13901e+06 378.212 0 -2.14052e+06 425.754 0 -2.1422e+06 473.391 0 -2.14407e+06 521.132 0 -2.14611e+06 568.99 0 -2.14834e+06 616.973 0 -2.15074e+06 665.095 0 -2.15333e+06 713.365 0 -2.15609e+06 761.794 0 -2.15904e+06 810.395 0 -2.16217e+06 859.178 0 -2.16549e+06 908.155 0 -2.16899e+06 957.338 0 -2.17267e+06 1006.74 0 -2.17654e+06 1056.37 0 -2.18059e+06 1106.24 0 -2.18484e+06 1156.36 0 -2.18927e+06 1206.75 0 -2.19389e+06 1257.42 0 -2.1987e+06 1308.37 0 -2.2037e+06 1359.64 0 -2.2089e+06 1411.21 0 -2.21429e+06 1463.12 0 -2.21987e+06 1515.37 0 -2.22565e+06 1567.98 0 -2.23163e+06 1620.96 0 -2.23781e+06 1674.32 0 -2.24419e+06 1728.08 0 -2.25077e+06 1782.26 0 -2.25756e+06 1836.86 0 -2.26455e+06 1891.9 0 -2.27175e+06 1947.39 0 -2.27916e+06 2003.36 0 -2.28678e+06 2059.81 0 -2.29461e+06 2116.76 0 -2.30265e+06 2174.22 0 -2.31092e+06 2232.21 0 -2.3194e+06 2290.75 0 -2.3281e+06 2349.84 0 -2.33702e+06 2409.51 0 -2.34617e+06 2469.76 0 -2.35555e+06 2530.62 0 -2.36515e+06 2592.09 0 -2.37499e+06 2654.18 0 -2.38506e+06 2716.92 0 -2.39537e+06 2780.31 0 -2.40591e+06 2844.36 0 -2.4167e+06 2909.09 0 -2.42773e+06 2974.51 0 -2.43901e+06 3040.62 0 -2.45054e+06 3107.43 0 -2.46232e+06 3174.94 0 -2.47435e+06 3243.17 0 -2.48664e+06 3312.11 0 -2.49919e+06 3381.76 0 -2.51201e+06 3452.12 0 -2.52508e+06 3523.18 0 -2.53843e+06 3594.94 0 -2.55205e+06 3667.38 0 -2.56594e+06 3740.49 0 -2.5801e+06 3814.24 0 -2.59454e+06 3888.61 0 -2.60927e+06 3963.56 0 -2.62427e+06 4039.05 0 -2.63956e+06 4115.05 0 -2.65513e+06 4191.48 0 -2.671e+06 4268.3 0 -2.68715e+06 4345.43 0 -2.70359e+06 4422.77 0 -2.72032e+06 4500.24 0 -2.73734e+06 4577.73 0 -2.75465e+06 4655.1 0 -2.77225e+06 4732.22 0 -2.79014e+06 4808.94 0 -2.80832e+06 4885.06 0 -2.82678e+06 4960.39 0 -2.84552e+06 5034.71 0 -2.86453e+06 5107.77 0 -2.88382e+06 5179.3 0 -2.90338e+06 5248.99 0 -2.92319e+06 5316.5 0 -2.94325e+06 5381.47 0 -2.96354e+06 5443.49 0 -2.98407e+06 5502.12 0 -3.0048e+06 5556.88 0 -3.02574e+06 5607.25 0 -3.04685e+06 5652.66 0 -3.06813e+06 5692.51 0 -3.08954e+06 5726.12 0 -3.11106e+06 5752.82 0 -3.13268e+06 5771.86 0 -3.15434e+06 5782.45 0 -3.17603e+06 5783.77 0 -3.19771e+06 5774.96 0 -3.21934e+06 5755.12 0 -3.24086e+06 5723.35 0 -3.26225e+06 5678.71 0 -3.28344e+06 5620.26 0 -3.30439e+06 5547.07 0 -3.32503e+06 5458.25 0 -3.34531e+06 5352.91 0 -3.36516e+06 5230.24 0 -3.38452e+06 5089.51 0 -3.40332e+06 4930.07 0 -3.42149e+06 4751.41 0 -3.43895e+06 4553.13 0 -3.45562e+06 4335.05 0 -3.47145e+06 4097.12 0 -3.48634e+06 3839.55 0 -3.50024e+06 3562.73 0 -3.51306e+06 3267.33 0 -3.52474e+06 2954.25 0 -3.53521e+06 2624.64 0 -3.54442e+06 2279.91 0 -3.55231e+06 1921.7 0 -3.55884e+06 1551.87 0 -3.56395e+06 1172.49 0 -3.56764e+06 785.797 0 -3.56986e+06 394.148 0 -3.5706e+06 -2.63005e-06 0 -2.13333e+06 0 0 -2.13342e+06 70.7508 0 -2.13369e+06 141.517 0 -2.13413e+06 212.315 0 -2.13475e+06 283.159 0 -2.13555e+06 354.065 0 -2.13652e+06 425.05 0 -2.13767e+06 496.128 0 -2.139e+06 567.316 0 -2.14051e+06 638.629 0 -2.1422e+06 710.084 0 -2.14406e+06 781.696 0 -2.14611e+06 853.482 0 -2.14833e+06 925.457 0 -2.15074e+06 997.639 0 -2.15332e+06 1070.04 0 -2.15609e+06 1142.69 0 -2.15903e+06 1215.59 0 -2.16217e+06 1288.76 0 -2.16548e+06 1362.23 0 -2.16898e+06 1436 0 -2.17266e+06 1510.1 0 -2.17653e+06 1584.54 0 -2.18058e+06 1659.35 0 -2.18483e+06 1734.53 0 -2.18926e+06 1810.12 0 -2.19388e+06 1886.12 0 -2.19869e+06 1962.55 0 -2.20369e+06 2039.45 0 -2.20889e+06 2116.81 0 -2.21428e+06 2194.68 0 -2.21986e+06 2273.05 0 -2.22564e+06 2351.97 0 -2.23162e+06 2431.43 0 -2.2378e+06 2511.48 0 -2.24418e+06 2592.12 0 -2.25076e+06 2673.38 0 -2.25755e+06 2755.28 0 -2.26454e+06 2837.84 0 -2.27174e+06 2921.08 0 -2.27915e+06 3005.03 0 -2.28677e+06 3089.7 0 -2.2946e+06 3175.13 0 -2.30264e+06 3261.32 0 -2.31091e+06 3348.31 0 -2.31939e+06 3436.11 0 -2.32809e+06 3524.75 0 -2.33701e+06 3614.25 0 -2.34616e+06 3704.63 0 -2.35554e+06 3795.91 0 -2.36514e+06 3888.11 0 -2.37498e+06 3981.26 0 -2.38505e+06 4075.36 0 -2.39535e+06 4170.45 0 -2.4059e+06 4266.53 0 -2.41669e+06 4363.63 0 -2.42772e+06 4461.75 0 -2.439e+06 4560.91 0 -2.45053e+06 4661.12 0 -2.4623e+06 4762.4 0 -2.47434e+06 4864.74 0 -2.48663e+06 4968.14 0 -2.49918e+06 5072.62 0 -2.51199e+06 5178.16 0 -2.52507e+06 5284.76 0 -2.53842e+06 5392.4 0 -2.55203e+06 5501.06 0 -2.56592e+06 5610.72 0 -2.58009e+06 5721.35 0 -2.59453e+06 5832.9 0 -2.60925e+06 5945.32 0 -2.62426e+06 6058.57 0 -2.63955e+06 6172.56 0 -2.65512e+06 6287.22 0 -2.67098e+06 6402.45 0 -2.68713e+06 6518.13 0 -2.70357e+06 6634.16 0 -2.7203e+06 6750.36 0 -2.73733e+06 6866.59 0 -2.75464e+06 6982.66 0 -2.77224e+06 7098.35 0 -2.79013e+06 7213.42 0 -2.8083e+06 7327.61 0 -2.82676e+06 7440.61 0 -2.8455e+06 7552.1 0 -2.86452e+06 7661.69 0 -2.88381e+06 7768.99 0 -2.90336e+06 7873.53 0 -2.92318e+06 7974.8 0 -2.94324e+06 8072.27 0 -2.96353e+06 8165.31 0 -2.98406e+06 8253.27 0 -3.0048e+06 8335.43 0 -3.02573e+06 8410.99 0 -3.04685e+06 8479.12 0 -3.06812e+06 8538.9 0 -3.08953e+06 8589.34 0 -3.11106e+06 8629.41 0 -3.13267e+06 8657.98 0 -3.15434e+06 8673.89 0 -3.17603e+06 8675.88 0 -3.19771e+06 8662.68 0 -3.21934e+06 8632.95 0 -3.24087e+06 8585.31 0 -3.26226e+06 8518.37 0 -3.28345e+06 8430.71 0 -3.3044e+06 8320.96 0 -3.32505e+06 8187.74 0 -3.34533e+06 8029.75 0 -3.36519e+06 7845.77 0 -3.38455e+06 7634.68 0 -3.40335e+06 7395.54 0 -3.42152e+06 7127.55 0 -3.43898e+06 6830.14 0 -3.45566e+06 6503.01 0 -3.47149e+06 6146.12 0 -3.48639e+06 5759.75 0 -3.50028e+06 5344.51 0 -3.51311e+06 4901.39 0 -3.52479e+06 4431.75 0 -3.53527e+06 3937.3 0 -3.54448e+06 3420.16 0 -3.55237e+06 2882.8 0 -3.5589e+06 2328.02 0 -3.56402e+06 1758.9 0 -3.5677e+06 1178.81 0 -3.56992e+06 591.279 0 -3.57067e+06 1.78814e-07 0 -2.13332e+06 0 0 -2.13341e+06 94.334 0 -2.13368e+06 188.689 0 -2.13412e+06 283.085 0 -2.13474e+06 377.543 0 -2.13554e+06 472.085 0 -2.13651e+06 566.731 0 -2.13766e+06 661.501 0 -2.13899e+06 756.418 0 -2.1405e+06 851.502 0 -2.14219e+06 946.774 0 -2.14405e+06 1042.26 0 -2.1461e+06 1137.97 0 -2.14832e+06 1233.94 0 -2.15072e+06 1330.18 0 -2.15331e+06 1426.72 0 -2.15608e+06 1523.58 0 -2.15902e+06 1620.78 0 -2.16215e+06 1718.34 0 -2.16547e+06 1816.3 0 -2.16897e+06 1914.66 0 -2.17265e+06 2013.46 0 -2.17652e+06 2112.71 0 -2.18057e+06 2212.45 0 -2.18482e+06 2312.7 0 -2.18925e+06 2413.48 0 -2.19387e+06 2514.81 0 -2.19868e+06 2616.73 0 -2.20368e+06 2719.25 0 -2.20888e+06 2822.4 0 -2.21427e+06 2926.22 0 -2.21985e+06 3030.72 0 -2.22563e+06 3135.94 0 -2.23161e+06 3241.89 0 -2.23779e+06 3348.62 0 -2.24417e+06 3456.14 0 -2.25075e+06 3564.48 0 -2.25754e+06 3673.68 0 -2.26453e+06 3783.76 0 -2.27173e+06 3894.75 0 -2.27914e+06 4006.68 0 -2.28675e+06 4119.58 0 -2.29458e+06 4233.48 0 -2.30263e+06 4348.41 0 -2.31089e+06 4464.39 0 -2.31937e+06 4581.46 0 -2.32807e+06 4699.65 0 -2.337e+06 4818.98 0 -2.34615e+06 4939.48 0 -2.35552e+06 5061.19 0 -2.36513e+06 5184.13 0 -2.37496e+06 5308.32 0 -2.38503e+06 5433.79 0 -2.39534e+06 5560.57 0 -2.40589e+06 5688.68 0 -2.41667e+06 5818.14 0 -2.4277e+06 5948.97 0 -2.43898e+06 6081.18 0 -2.45051e+06 6214.8 0 -2.46229e+06 6349.83 0 -2.47432e+06 6486.29 0 -2.48661e+06 6624.16 0 -2.49916e+06 6763.47 0 -2.51198e+06 6904.19 0 -2.52506e+06 7046.32 0 -2.5384e+06 7189.84 0 -2.55202e+06 7334.72 0 -2.56591e+06 7480.93 0 -2.58007e+06 7628.44 0 -2.59451e+06 7777.17 0 -2.60924e+06 7927.08 0 -2.62424e+06 8078.07 0 -2.63953e+06 8230.06 0 -2.6551e+06 8382.94 0 -2.67097e+06 8536.58 0 -2.68712e+06 8690.84 0 -2.70356e+06 8845.53 0 -2.72029e+06 9000.48 0 -2.73731e+06 9155.46 0 -2.75462e+06 9310.22 0 -2.77222e+06 9464.48 0 -2.79011e+06 9617.92 0 -2.80829e+06 9770.17 0 -2.82675e+06 9920.86 0 -2.84549e+06 10069.5 0 -2.86451e+06 10215.7 0 -2.88379e+06 10358.7 0 -2.90335e+06 10498.1 0 -2.92316e+06 10633.2 0 -2.94322e+06 10763.1 0 -2.96352e+06 10887.2 0 -2.98404e+06 11004.5 0 -3.00478e+06 11114.1 0 -3.02572e+06 11214.9 0 -3.04684e+06 11305.7 0 -3.06811e+06 11385.5 0 -3.08953e+06 11452.7 0 -3.11105e+06 11506.2 0 -3.13267e+06 11544.3 0 -3.15434e+06 11565.6 0 -3.17604e+06 11568.3 0 -3.19772e+06 11550.7 0 -3.21935e+06 11511.1 0 -3.24088e+06 11447.6 0 -3.26227e+06 11358.4 0 -3.28347e+06 11241.6 0 -3.30442e+06 11095.3 0 -3.32507e+06 10917.7 0 -3.34536e+06 10707.1 0 -3.36522e+06 10461.8 0 -3.38458e+06 10180.4 0 -3.40339e+06 9861.52 0 -3.42156e+06 9504.21 0 -3.43903e+06 9107.68 0 -3.45572e+06 8671.51 0 -3.47155e+06 8195.65 0 -3.48645e+06 7680.47 0 -3.50035e+06 7126.79 0 -3.51318e+06 6535.93 0 -3.52487e+06 5909.68 0 -3.53535e+06 5250.36 0 -3.54456e+06 4560.78 0 -3.55246e+06 3844.22 0 -3.55899e+06 3104.42 0 -3.56411e+06 2345.51 0 -3.56779e+06 1571.95 0 -3.57001e+06 788.476 0 -3.57076e+06 2.83122e-06 0 -2.13331e+06 0 0 -2.13339e+06 117.917 0 -2.13366e+06 235.86 0 -2.1341e+06 353.854 0 -2.13472e+06 471.927 0 -2.13552e+06 590.103 0 -2.1365e+06 708.409 0 -2.13765e+06 826.872 0 -2.13898e+06 945.517 0 -2.14049e+06 1064.37 0 -2.14217e+06 1183.46 0 -2.14404e+06 1302.81 0 -2.14608e+06 1422.45 0 -2.14831e+06 1542.41 0 -2.15071e+06 1662.71 0 -2.15329e+06 1783.39 0 -2.15606e+06 1904.46 0 -2.15901e+06 2025.96 0 -2.16214e+06 2147.92 0 -2.16545e+06 2270.36 0 -2.16895e+06 2393.31 0 -2.17263e+06 2516.81 0 -2.1765e+06 2640.88 0 -2.18056e+06 2765.55 0 -2.1848e+06 2890.86 0 -2.18923e+06 3016.83 0 -2.19385e+06 3143.49 0 -2.19866e+06 3270.89 0 -2.20367e+06 3399.04 0 -2.20886e+06 3527.98 0 -2.21425e+06 3657.75 0 -2.21984e+06 3788.38 0 -2.22562e+06 3919.9 0 -2.2316e+06 4052.34 0 -2.23777e+06 4185.75 0 -2.24415e+06 4320.15 0 -2.25074e+06 4455.58 0 -2.25752e+06 4592.07 0 -2.26451e+06 4729.67 0 -2.27171e+06 4868.41 0 -2.27912e+06 5008.32 0 -2.28674e+06 5149.44 0 -2.29457e+06 5291.82 0 -2.30261e+06 5435.47 0 -2.31087e+06 5580.45 0 -2.31935e+06 5726.79 0 -2.32806e+06 5874.52 0 -2.33698e+06 6023.68 0 -2.34613e+06 6174.31 0 -2.3555e+06 6326.45 0 -2.36511e+06 6480.11 0 -2.37494e+06 6635.35 0 -2.38501e+06 6792.2 0 -2.39532e+06 6950.67 0 -2.40587e+06 7110.8 0 -2.41665e+06 7272.63 0 -2.42769e+06 7436.16 0 -2.43896e+06 7601.43 0 -2.45049e+06 7768.45 0 -2.46227e+06 7937.24 0 -2.4743e+06 8107.81 0 -2.48659e+06 8280.16 0 -2.49914e+06 8454.28 0 -2.51196e+06 8630.19 0 -2.52503e+06 8807.85 0 -2.53838e+06 8987.25 0 -2.552e+06 9168.36 0 -2.56588e+06 9351.13 0 -2.58005e+06 9535.5 0 -2.59449e+06 9721.43 0 -2.60921e+06 9908.81 0 -2.62422e+06 10097.6 0 -2.63951e+06 10287.5 0 -2.65508e+06 10478.7 0 -2.67094e+06 10670.7 0 -2.68709e+06 10863.5 0 -2.70353e+06 11056.9 0 -2.72026e+06 11250.6 0 -2.73728e+06 11444.3 0 -2.7546e+06 11637.8 0 -2.7722e+06 11830.6 0 -2.79009e+06 12022.4 0 -2.80826e+06 12212.8 0 -2.82672e+06 12401.1 0 -2.84547e+06 12587 0 -2.86448e+06 12769.7 0 -2.88377e+06 12948.5 0 -2.90333e+06 13122.8 0 -2.92314e+06 13291.6 0 -2.9432e+06 13454.1 0 -2.9635e+06 13609.3 0 -2.98403e+06 13755.9 0 -3.00477e+06 13892.9 0 -3.0257e+06 14018.9 0 -3.04682e+06 14132.5 0 -3.0681e+06 14232.2 0 -3.08952e+06 14316.4 0 -3.11105e+06 14383.3 0 -3.13267e+06 14431 0 -3.15434e+06 14457.6 0 -3.17604e+06 14461 0 -3.19772e+06 14439.1 0 -3.21935e+06 14389.7 0 -3.24089e+06 14310.4 0 -3.26228e+06 14198.9 0 -3.28349e+06 14052.9 0 -3.30444e+06 13870.1 0 -3.3251e+06 13648.2 0 -3.34539e+06 13385 0 -3.36526e+06 13078.4 0 -3.38463e+06 12726.7 0 -3.40344e+06 12328.2 0 -3.42162e+06 11881.6 0 -3.43909e+06 11385.9 0 -3.45578e+06 10840.7 0 -3.47162e+06 10245.9 0 -3.48653e+06 9601.87 0 -3.50044e+06 8909.73 0 -3.51327e+06 8171.09 0 -3.52496e+06 7388.21 0 -3.53545e+06 6563.97 0 -3.54467e+06 5701.88 0 -3.55257e+06 4806.05 0 -3.5591e+06 3881.16 0 -3.56422e+06 2932.37 0 -3.56791e+06 1965.27 0 -3.57013e+06 985.762 0 -3.57088e+06 -3.42727e-06 0 -2.13329e+06 0 0 -2.13338e+06 141.499 0 -2.13364e+06 283.029 0 -2.13409e+06 424.622 0 -2.13471e+06 566.308 0 -2.1355e+06 708.118 0 -2.13648e+06 850.085 0 -2.13763e+06 992.239 0 -2.13896e+06 1134.61 0 -2.14047e+06 1277.24 0 -2.14215e+06 1420.14 0 -2.14402e+06 1563.36 0 -2.14606e+06 1706.93 0 -2.14829e+06 1850.88 0 -2.15069e+06 1995.24 0 -2.15328e+06 2140.05 0 -2.15604e+06 2285.33 0 -2.15899e+06 2431.13 0 -2.16212e+06 2577.48 0 -2.16544e+06 2724.41 0 -2.16893e+06 2871.95 0 -2.17262e+06 3020.15 0 -2.17648e+06 3169.03 0 -2.18054e+06 3318.64 0 -2.18478e+06 3469 0 -2.18921e+06 3620.17 0 -2.19383e+06 3772.16 0 -2.19864e+06 3925.03 0 -2.20365e+06 4078.82 0 -2.20884e+06 4233.55 0 -2.21423e+06 4389.27 0 -2.21982e+06 4546.02 0 -2.2256e+06 4703.84 0 -2.23158e+06 4862.77 0 -2.23775e+06 5022.86 0 -2.24413e+06 5184.14 0 -2.25072e+06 5346.65 0 -2.2575e+06 5510.45 0 -2.26449e+06 5675.56 0 -2.27169e+06 5842.05 0 -2.2791e+06 6009.94 0 -2.28672e+06 6179.28 0 -2.29455e+06 6350.13 0 -2.30259e+06 6522.51 0 -2.31085e+06 6696.49 0 -2.31933e+06 6872.09 0 -2.32803e+06 7049.37 0 -2.33696e+06 7228.36 0 -2.34611e+06 7409.12 0 -2.35548e+06 7591.67 0 -2.36508e+06 7776.08 0 -2.37492e+06 7962.36 0 -2.38499e+06 8150.57 0 -2.3953e+06 8340.74 0 -2.40584e+06 8532.9 0 -2.41663e+06 8727.09 0 -2.42766e+06 8923.33 0 -2.43894e+06 9121.65 0 -2.45047e+06 9322.08 0 -2.46224e+06 9524.62 0 -2.47428e+06 9729.3 0 -2.48657e+06 9936.12 0 -2.49912e+06 10145.1 0 -2.51193e+06 10356.2 0 -2.52501e+06 10569.4 0 -2.53835e+06 10784.6 0 -2.55197e+06 11002 0 -2.56586e+06 11221.3 0 -2.58002e+06 11442.5 0 -2.59446e+06 11665.7 0 -2.60919e+06 11890.5 0 -2.62419e+06 12117 0 -2.63948e+06 12345 0 -2.65505e+06 12574.3 0 -2.67091e+06 12804.8 0 -2.68706e+06 13036.2 0 -2.7035e+06 13268.3 0 -2.72023e+06 13500.7 0 -2.73726e+06 13733.2 0 -2.75457e+06 13965.4 0 -2.77217e+06 14196.8 0 -2.79006e+06 14427 0 -2.80824e+06 14655.4 0 -2.8267e+06 14881.5 0 -2.84544e+06 15104.5 0 -2.86446e+06 15323.8 0 -2.88375e+06 15538.4 0 -2.9033e+06 15747.6 0 -2.92312e+06 15950.2 0 -2.94318e+06 16145.2 0 -2.96348e+06 16331.4 0 -2.98401e+06 16507.5 0 -3.00475e+06 16671.9 0 -3.02569e+06 16823.2 0 -3.04681e+06 16959.6 0 -3.06809e+06 17079.3 0 -3.08951e+06 17180.3 0 -3.11104e+06 17260.7 0 -3.13266e+06 17318 0 -3.15434e+06 17350 0 -3.17604e+06 17354.2 0 -3.19773e+06 17328 0 -3.21936e+06 17268.8 0 -3.2409e+06 17173.7 0 -3.2623e+06 17040.1 0 -3.28351e+06 16865 0 -3.30447e+06 16645.7 0 -3.32513e+06 16379.5 0 -3.34543e+06 16063.7 0 -3.3653e+06 15695.9 0 -3.38468e+06 15273.9 0 -3.4035e+06 14795.7 0 -3.42169e+06 14259.8 0 -3.43917e+06 13665.1 0 -3.45587e+06 13010.8 0 -3.47171e+06 12297 0 -3.48663e+06 11524.1 0 -3.50054e+06 10693.5 0 -3.51338e+06 9807.05 0 -3.52508e+06 8867.47 0 -3.53557e+06 7878.25 0 -3.5448e+06 6843.58 0 -3.5527e+06 5768.41 0 -3.55924e+06 4658.33 0 -3.56436e+06 3519.57 0 -3.56805e+06 2358.81 0 -3.57028e+06 1183.16 0 -3.57102e+06 1.69873e-06 0 -2.13327e+06 0 0 -2.13336e+06 165.081 0 -2.13362e+06 330.198 0 -2.13407e+06 495.388 0 -2.13469e+06 660.687 0 -2.13548e+06 826.131 0 -2.13646e+06 991.757 0 -2.13761e+06 1157.6 0 -2.13894e+06 1323.7 0 -2.14045e+06 1490.1 0 -2.14213e+06 1656.82 0 -2.144e+06 1823.91 0 -2.14604e+06 1991.4 0 -2.14827e+06 2159.34 0 -2.15067e+06 2327.76 0 -2.15326e+06 2496.7 0 -2.15602e+06 2666.2 0 -2.15897e+06 2836.3 0 -2.1621e+06 3007.03 0 -2.16541e+06 3178.45 0 -2.16891e+06 3350.58 0 -2.17259e+06 3523.47 0 -2.17646e+06 3697.17 0 -2.18052e+06 3871.71 0 -2.18476e+06 4047.13 0 -2.18919e+06 4223.49 0 -2.19381e+06 4400.82 0 -2.19862e+06 4579.17 0 -2.20362e+06 4758.58 0 -2.20882e+06 4939.1 0 -2.21421e+06 5120.77 0 -2.21979e+06 5303.64 0 -2.22557e+06 5487.77 0 -2.23155e+06 5673.18 0 -2.23773e+06 5859.95 0 -2.24411e+06 6048.1 0 -2.25069e+06 6237.7 0 -2.25748e+06 6428.79 0 -2.26447e+06 6621.43 0 -2.27167e+06 6815.66 0 -2.27907e+06 7011.53 0 -2.28669e+06 7209.1 0 -2.29452e+06 7408.41 0 -2.30257e+06 7609.53 0 -2.31083e+06 7812.49 0 -2.31931e+06 8017.36 0 -2.32801e+06 8224.18 0 -2.33693e+06 8433.01 0 -2.34608e+06 8643.89 0 -2.35545e+06 8856.87 0 -2.36506e+06 9072 0 -2.37489e+06 9289.34 0 -2.38496e+06 9508.91 0 -2.39527e+06 9730.77 0 -2.40582e+06 9954.96 0 -2.4166e+06 10181.5 0 -2.42763e+06 10410.5 0 -2.43891e+06 10641.8 0 -2.45044e+06 10875.7 0 -2.46221e+06 11112 0 -2.47425e+06 11350.8 0 -2.48654e+06 11592 0 -2.49909e+06 11835.8 0 -2.5119e+06 12082.1 0 -2.52498e+06 12330.8 0 -2.53832e+06 12582 0 -2.55194e+06 12835.5 0 -2.56583e+06 13091.4 0 -2.57999e+06 13349.6 0 -2.59443e+06 13609.9 0 -2.60915e+06 13872.2 0 -2.62416e+06 14136.5 0 -2.63945e+06 14402.5 0 -2.65502e+06 14670 0 -2.67088e+06 14938.9 0 -2.68703e+06 15208.9 0 -2.70347e+06 15479.6 0 -2.7202e+06 15750.8 0 -2.73722e+06 16022.1 0 -2.75453e+06 16293 0 -2.77213e+06 16563 0 -2.79003e+06 16831.6 0 -2.8082e+06 17098.1 0 -2.82666e+06 17361.8 0 -2.84541e+06 17622.1 0 -2.86443e+06 17877.9 0 -2.88372e+06 18128.4 0 -2.90327e+06 18372.5 0 -2.92309e+06 18608.9 0 -2.94315e+06 18836.5 0 -2.96345e+06 19053.8 0 -2.98398e+06 19259.2 0 -3.00473e+06 19451.1 0 -3.02567e+06 19627.7 0 -3.04679e+06 19786.9 0 -3.06807e+06 19926.7 0 -3.08949e+06 20044.7 0 -3.11103e+06 20138.5 0 -3.13265e+06 20205.5 0 -3.15433e+06 20242.9 0 -3.17604e+06 20247.9 0 -3.19773e+06 20217.5 0 -3.21937e+06 20148.5 0 -3.24092e+06 20037.7 0 -3.26233e+06 19881.9 0 -3.28354e+06 19677.8 0 -3.30451e+06 19422.1 0 -3.32518e+06 19111.6 0 -3.34548e+06 18743.3 0 -3.36536e+06 18314.3 0 -3.38475e+06 17822 0 -3.40358e+06 17264.3 0 -3.42177e+06 16639.1 0 -3.43926e+06 15945.2 0 -3.45597e+06 15182 0 -3.47182e+06 14349.1 0 -3.48674e+06 13447.4 0 -3.50067e+06 12478.3 0 -3.51351e+06 11443.9 0 -3.52522e+06 10347.6 0 -3.53572e+06 9193.33 0 -3.54495e+06 7986 0 -3.55286e+06 6731.38 0 -3.5594e+06 5436.02 0 -3.56453e+06 4107.15 0 -3.56822e+06 2752.61 0 -3.57045e+06 1380.69 0 -3.57119e+06 1.78814e-07 0 -2.13324e+06 0 0 -2.13333e+06 188.662 0 -2.1336e+06 377.366 0 -2.13404e+06 566.152 0 -2.13466e+06 755.063 0 -2.13546e+06 944.141 0 -2.13643e+06 1133.43 0 -2.13759e+06 1322.96 0 -2.13892e+06 1512.79 0 -2.14042e+06 1702.95 0 -2.14211e+06 1893.49 0 -2.14397e+06 2084.45 0 -2.14602e+06 2275.87 0 -2.14824e+06 2467.8 0 -2.15065e+06 2660.27 0 -2.15323e+06 2853.35 0 -2.156e+06 3047.06 0 -2.15895e+06 3241.45 0 -2.16208e+06 3436.57 0 -2.16539e+06 3632.47 0 -2.16889e+06 3829.2 0 -2.17257e+06 4026.79 0 -2.17644e+06 4225.29 0 -2.18049e+06 4424.76 0 -2.18474e+06 4625.25 0 -2.18917e+06 4826.8 0 -2.19379e+06 5029.46 0 -2.1986e+06 5233.28 0 -2.2036e+06 5438.32 0 -2.20879e+06 5644.62 0 -2.21418e+06 5852.25 0 -2.21977e+06 6061.24 0 -2.22555e+06 6271.67 0 -2.23153e+06 6483.57 0 -2.2377e+06 6697.01 0 -2.24408e+06 6912.04 0 -2.25066e+06 7128.73 0 -2.25745e+06 7347.11 0 -2.26444e+06 7567.27 0 -2.27164e+06 7789.24 0 -2.27905e+06 8013.09 0 -2.28666e+06 8238.88 0 -2.29449e+06 8466.67 0 -2.30254e+06 8696.51 0 -2.3108e+06 8928.47 0 -2.31928e+06 9162.6 0 -2.32798e+06 9398.96 0 -2.3369e+06 9637.62 0 -2.34605e+06 9878.62 0 -2.35542e+06 10122 0 -2.36503e+06 10367.9 0 -2.37486e+06 10616.3 0 -2.38493e+06 10867.2 0 -2.39524e+06 11120.8 0 -2.40578e+06 11377 0 -2.41657e+06 11635.9 0 -2.4276e+06 11897.5 0 -2.43888e+06 12162 0 -2.4504e+06 12429.2 0 -2.46218e+06 12699.3 0 -2.47421e+06 12972.2 0 -2.4865e+06 13247.9 0 -2.49905e+06 13526.5 0 -2.51186e+06 13808 0 -2.52494e+06 14092.2 0 -2.53829e+06 14379.3 0 -2.5519e+06 14669.1 0 -2.56579e+06 14961.5 0 -2.57995e+06 15256.5 0 -2.59439e+06 15554 0 -2.60912e+06 15853.8 0 -2.62412e+06 16155.9 0 -2.63941e+06 16459.9 0 -2.65498e+06 16765.7 0 -2.67084e+06 17073 0 -2.68699e+06 17381.5 0 -2.70343e+06 17691 0 -2.72016e+06 18001 0 -2.73718e+06 18311 0 -2.75449e+06 18620.6 0 -2.7721e+06 18929.2 0 -2.78999e+06 19236.2 0 -2.80816e+06 19540.8 0 -2.82663e+06 19842.3 0 -2.84537e+06 20139.7 0 -2.86439e+06 20432.2 0 -2.88368e+06 20718.5 0 -2.90324e+06 20997.5 0 -2.92305e+06 21267.8 0 -2.94312e+06 21528 0 -2.96342e+06 21776.4 0 -2.98395e+06 22011.2 0 -3.0047e+06 22230.7 0 -3.02564e+06 22432.5 0 -3.04677e+06 22614.6 0 -3.06805e+06 22774.5 0 -3.08948e+06 22909.4 0 -3.11102e+06 23016.8 0 -3.13265e+06 23093.5 0 -3.15433e+06 23136.4 0 -3.17604e+06 23142.3 0 -3.19774e+06 23107.7 0 -3.21939e+06 23029 0 -3.24094e+06 22902.6 0 -3.26235e+06 22724.7 0 -3.28357e+06 22491.5 0 -3.30455e+06 22199.4 0 -3.32522e+06 21844.8 0 -3.34554e+06 21424 0 -3.36543e+06 20933.9 0 -3.38482e+06 20371.4 0 -3.40366e+06 19734 0 -3.42186e+06 19019.6 0 -3.43936e+06 18226.7 0 -3.45608e+06 17354.3 0 -3.47194e+06 16402.5 0 -3.48688e+06 15371.9 0 -3.50081e+06 14264.2 0 -3.51367e+06 13082 0 -3.52538e+06 11828.8 0 -3.53589e+06 10509.4 0 -3.54512e+06 9129.26 0 -3.55304e+06 7695.08 0 -3.55959e+06 6214.29 0 -3.56472e+06 4695.19 0 -3.56842e+06 3146.73 0 -3.57064e+06 1578.38 0 -3.57139e+06 -2.98023e-08 0 -2.13322e+06 0 0 -2.13331e+06 212.242 0 -2.13357e+06 424.532 0 -2.13402e+06 636.914 0 -2.13464e+06 849.437 0 -2.13543e+06 1062.15 0 -2.13641e+06 1275.09 0 -2.13756e+06 1488.31 0 -2.13889e+06 1701.87 0 -2.1404e+06 1915.8 0 -2.14208e+06 2130.15 0 -2.14395e+06 2344.98 0 -2.14599e+06 2560.32 0 -2.14822e+06 2776.24 0 -2.15062e+06 2992.77 0 -2.1532e+06 3209.98 0 -2.15597e+06 3427.9 0 -2.15892e+06 3646.59 0 -2.16205e+06 3866.1 0 -2.16536e+06 4086.49 0 -2.16886e+06 4307.8 0 -2.17254e+06 4530.08 0 -2.17641e+06 4753.4 0 -2.18046e+06 4977.8 0 -2.18471e+06 5203.34 0 -2.18914e+06 5430.08 0 -2.19376e+06 5658.07 0 -2.19857e+06 5887.37 0 -2.20357e+06 6118.03 0 -2.20876e+06 6350.12 0 -2.21415e+06 6583.7 0 -2.21974e+06 6818.82 0 -2.22552e+06 7055.54 0 -2.2315e+06 7293.93 0 -2.23767e+06 7534.05 0 -2.24405e+06 7775.96 0 -2.25063e+06 8019.72 0 -2.25742e+06 8265.4 0 -2.26441e+06 8513.07 0 -2.27161e+06 8762.79 0 -2.27901e+06 9014.62 0 -2.28663e+06 9268.63 0 -2.29446e+06 9524.88 0 -2.30251e+06 9783.45 0 -2.31077e+06 10044.4 0 -2.31925e+06 10307.8 0 -2.32794e+06 10573.7 0 -2.33687e+06 10842.2 0 -2.34601e+06 11113.3 0 -2.35539e+06 11387.1 0 -2.36499e+06 11663.7 0 -2.37483e+06 11943.2 0 -2.3849e+06 12225.5 0 -2.3952e+06 12510.7 0 -2.40575e+06 12798.9 0 -2.41653e+06 13090.2 0 -2.42756e+06 13384.6 0 -2.43884e+06 13682.1 0 -2.45036e+06 13982.7 0 -2.46214e+06 14286.5 0 -2.47417e+06 14593.5 0 -2.48646e+06 14903.7 0 -2.49901e+06 15217.2 0 -2.51182e+06 15533.8 0 -2.5249e+06 15853.6 0 -2.53824e+06 16176.5 0 -2.55186e+06 16502.5 0 -2.56575e+06 16831.5 0 -2.57991e+06 17163.4 0 -2.59435e+06 17498.1 0 -2.60907e+06 17835.4 0 -2.62408e+06 18175.2 0 -2.63936e+06 18517.3 0 -2.65494e+06 18861.3 0 -2.6708e+06 19207 0 -2.68695e+06 19554.2 0 -2.70339e+06 19902.3 0 -2.72012e+06 20251.1 0 -2.73714e+06 20599.9 0 -2.75445e+06 20948.2 0 -2.77205e+06 21295.4 0 -2.78994e+06 21640.8 0 -2.80812e+06 21983.6 0 -2.82658e+06 22322.8 0 -2.84533e+06 22657.5 0 -2.86435e+06 22986.6 0 -2.88364e+06 23308.7 0 -2.9032e+06 23622.7 0 -2.92302e+06 23926.9 0 -2.94308e+06 24219.6 0 -2.96339e+06 24499.2 0 -2.98392e+06 24763.5 0 -3.00467e+06 25010.5 0 -3.02561e+06 25237.7 0 -3.04674e+06 25442.7 0 -3.06803e+06 25622.7 0 -3.08946e+06 25774.7 0 -3.111e+06 25895.6 0 -3.13264e+06 25982.1 0 -3.15433e+06 26030.6 0 -3.17604e+06 26037.4 0 -3.19775e+06 25998.6 0 -3.2194e+06 25910.3 0 -3.24096e+06 25768.3 0 -3.26238e+06 25568.4 0 -3.28361e+06 25306.3 0 -3.30459e+06 24977.9 0 -3.32528e+06 24579.1 0 -3.3456e+06 24105.9 0 -3.3655e+06 23554.7 0 -3.38491e+06 22922.1 0 -3.40376e+06 22205.1 0 -3.42197e+06 21401.5 0 -3.43948e+06 20509.5 0 -3.45621e+06 19528.1 0 -3.47208e+06 18457.3 0 -3.48703e+06 17297.8 0 -3.50097e+06 16051.4 0 -3.51384e+06 14721.2 0 -3.52556e+06 13311.2 0 -3.53608e+06 11826.5 0 -3.54532e+06 10273.5 0 -3.55325e+06 8659.61 0 -3.5598e+06 6993.26 0 -3.56494e+06 5283.76 0 -3.56864e+06 3541.2 0 -3.57087e+06 1776.25 0 -3.57162e+06 -1.49012e-06 0 -2.13319e+06 0 0 -2.13328e+06 235.822 0 -2.13354e+06 471.696 0 -2.13399e+06 707.674 0 -2.13461e+06 943.807 0 -