<?xml version="1.0"?> 
<VTKFile type="StructuredGrid" version="0.1"> 
<StructuredGrid WholeExtent="0 127 0 127 0 0"> 
<Piece Extent="0 127 0 127 0 0"> 
<PointData>
<DataArray type="Float32" Name="|E|" format="ascii" NumberOfComponents="3"> 
1.3394e+06 1.90735e-06 0 1.34595e+06 0.00121404 0 1.36372e+06 0.00140511 0 1.3891e+06 0.00105665 0 1.41885e+06 0.000726702 0 1.45068e+06 0.000501894 0 1.48301e+06 0.000341833 0 1.51474e+06 0.000232002 0 1.54514e+06 0.000154179 0 1.57371e+06 9.94354e-05 0 1.6001e+06 6.28643e-05 0 1.62412e+06 3.19444e-05 0 1.64564e+06 1.41487e-05 0 1.6646e+06 -2.94298e-06 0 1.68099e+06 -1.11461e-05 0 1.69482e+06 -1.98185e-05 0 1.70615e+06 -2.77683e-05 0 1.71503e+06 -3.56138e-05 0 1.72155e+06 -3.89814e-05 0 1.7258e+06 -4.04119e-05 0 1.72788e+06 -4.12762e-05 0 1.72789e+06 -4.22001e-05 0 1.72595e+06 -4.39435e-05 0 1.72217e+06 -4.66704e-05 0 1.71667e+06 -4.68493e-05 0 1.70956e+06 -4.47631e-05 0 1.70097e+06 -4.32432e-05 0 1.69101e+06 -4.39584e-05 0 1.67978e+06 -4.22001e-05 0 1.66739e+06 -3.77297e-05 0 1.65396e+06 -3.84152e-05 0 1.63958e+06 -3.58522e-05 0 1.62434e+06 -3.76403e-05 0 1.60834e+06 -3.24249e-05 0 1.59167e+06 -3.25143e-05 0 1.57439e+06 -2.7597e-05 0 1.5566e+06 -2.72691e-05 0 1.53837e+06 -2.5183e-05 0 1.51975e+06 -2.38419e-05 0 1.50081e+06 -2.19643e-05 0 1.48161e+06 -2.14577e-05 0 1.4622e+06 -1.72853e-05 0 1.44264e+06 -1.60933e-05 0 1.42296e+06 -1.54376e-05 0 1.40321e+06 -1.5676e-05 0 1.38343e+06 -1.26362e-05 0 1.36365e+06 -1.20401e-05 0 1.3439e+06 -9.35793e-06 0 1.32422e+06 -1.09673e-05 0 1.30463e+06 -8.88109e-06 0 1.28515e+06 -7.56979e-06 0 1.26582e+06 -7.27177e-06 0 1.24663e+06 -6.97374e-06 0 1.22763e+06 -6.07967e-06 0 1.20881e+06 -6.25849e-06 0 1.1902e+06 -4.70877e-06 0 1.1718e+06 -4.17233e-06 0 1.15364e+06 -4.35114e-06 0 1.13572e+06 -3.27826e-06 0 1.11804e+06 -3.15905e-06 0 1.10062e+06 -1.90735e-06 0 1.08347e+06 -2.26498e-06 0 1.06658e+06 -2.68221e-06 0 1.04997e+06 -2.5034e-06 0 1.03364e+06 -2.26498e-06 0 1.01759e+06 -8.9407e-07 0 1.00182e+06 -1.66893e-06 0 986350 -2.98023e-07 0 971165 -1.60933e-06 0 956272 -7.15256e-07 0 941671 -1.78814e-07 0 927364 -1.01328e-06 0 913351 -4.17233e-07 0 899631 -5.36442e-07 0 886205 -6.55651e-07 0 873072 -4.76837e-07 0 860231 5.96046e-08 0 847681 -1.19209e-07 0 835421 -2.38419e-07 0 823450 4.17233e-07 0 811766 -5.96046e-08 0 800368 5.36442e-07 0 789254 1.19209e-07 0 778421 4.76837e-07 0 767870 3.57628e-07 0 757597 1.19209e-07 0 747600 5.96046e-08 0 737878 5.96046e-08 0 728428 1.37091e-06 0 719249 5.36442e-07 0 710338 4.76837e-07 0 701694 2.98023e-07 0 693314 2.38419e-07 0 685197 8.9407e-07 0 677339 7.15256e-07 0 669740 9.53674e-07 0 662397 5.96046e-07 0 655309 4.17233e-07 0 648472 4.17233e-07 0 641887 4.76837e-07 0 635550 3.57628e-07 0 629460 5.96046e-07 0 623615 5.96046e-07 0 618013 4.76837e-07 0 612653 2.98023e-07 0 607534 4.17233e-07 0 602653 4.76837e-07 0 598009 2.98023e-07 0 593601 2.38419e-07 0 589427 3.57628e-07 0 585486 2.38419e-07 0 581777 4.17233e-07 0 578299 4.47035e-07 0 575050 4.47035e-07 0 572030 1.78814e-07 0 569238 2.68221e-07 0 566672 2.68221e-07 0 564332 2.08616e-07 0 562217 2.38419e-07 0 560326 1.78814e-07 0 558660 1.19209e-07 0 557216 1.19209e-07 0 555995 8.9407e-08 0 554997 1.04308e-07 0 554220 7.45058e-08 0 553666 1.49012e-08 0 553333 3.72529e-08 0 553221 0 0 1.3394e+06 -1.18464e-06 0 1.34594e+06 -338.786 0 1.36372e+06 -597.929 0 1.3891e+06 -759.894 0 1.41885e+06 -846.191 0 1.45068e+06 -880.011 0 1.48301e+06 -877.76 0 1.51474e+06 -850.749 0 1.54515e+06 -806.886 0 1.57371e+06 -751.779 0 1.6001e+06 -689.401 0 1.62412e+06 -622.577 0 1.64564e+06 -553.321 0 1.6646e+06 -483.093 0 1.68099e+06 -412.962 0 1.69482e+06 -343.732 0 1.70615e+06 -276.013 0 1.71503e+06 -210.277 0 1.72155e+06 -146.889 0 1.7258e+06 -86.1308 0 1.72788e+06 -28.2166 0 1.72789e+06 26.6979 0 1.72595e+06 78.5064 0 1.72217e+06 127.146 0 1.71667e+06 172.592 0 1.70957e+06 214.852 0 1.70097e+06 253.962 0 1.69101e+06 289.985 0 1.67978e+06 322.999 0 1.66739e+06 353.103 0 1.65396e+06 380.407 0 1.63958e+06 405.031 0 1.62434e+06 427.103 0 1.60834e+06 446.753 0 1.59167e+06 464.116 0 1.57439e+06 479.327 0 1.5566e+06 492.519 0 1.53837e+06 503.823 0 1.51975e+06 513.367 0 1.50081e+06 521.275 0 1.48161e+06 527.665 0 1.4622e+06 532.652 0 1.44264e+06 536.344 0 1.42296e+06 538.843 0 1.40321e+06 540.246 0 1.38343e+06 540.644 0 1.36365e+06 540.123 0 1.3439e+06 538.763 0 1.32422e+06 536.638 0 1.30463e+06 533.818 0 1.28515e+06 530.368 0 1.26582e+06 526.347 0 1.24663e+06 521.81 0 1.22763e+06 516.81 0 1.20881e+06 511.393 0 1.1902e+06 505.604 0 1.1718e+06 499.482 0 1.15364e+06 493.064 0 1.13572e+06 486.384 0 1.11804e+06 479.474 0 1.10062e+06 472.363 0 1.08347e+06 465.075 0 1.06658e+06 457.635 0 1.04997e+06 450.066 0 1.03364e+06 442.387 0 1.01759e+06 434.615 0 1.00182e+06 426.769 0 986350 418.862 0 971165 410.908 0 956271 402.92 0 941671 394.909 0 927364 386.885 0 913351 378.857 0 899631 370.834 0 886205 362.822 0 873072 354.828 0 860231 346.859 0 847681 338.918 0 835421 331.011 0 823450 323.143 0 811766 315.315 0 800368 307.532 0 789253 299.796 0 778421 292.11 0 767870 284.474 0 757596 276.891 0 747600 269.362 0 737878 261.888 0 728428 254.469 0 719249 247.106 0 710338 239.799 0 701694 232.549 0 693314 225.354 0 685196 218.215 0 677339 211.131 0 669740 204.102 0 662397 197.127 0 655309 190.205 0 648472 183.335 0 641887 176.515 0 635550 169.746 0 629460 163.025 0 623615 156.351 0 618013 149.723 0 612653 143.139 0 607534 136.598 0 602653 130.099 0 598009 123.639 0 593601 117.217 0 589427 110.831 0 585486 104.48 0 581777 98.1617 0 578299 91.8744 0 575050 85.6163 0 572030 79.3855 0 569238 73.1802 0 566672 66.9984 0 564332 60.8383 0 562217 54.698 0 560326 48.5754 0 558659 42.4687 0 557216 36.3759 0 555995 30.295 0 554997 24.224 0 554220 18.1611 0 553666 12.104 0 553332 6.05103 0 553221 0 0 1.33938e+06 4.91738e-07 0 1.34593e+06 -677.636 0 1.36371e+06 -1195.93 0 1.38909e+06 -1519.84 0 1.41885e+06 -1692.42 0 1.45068e+06 -1760.05 0 1.48301e+06 -1755.54 0 1.51475e+06 -1701.51 0 1.54515e+06 -1613.78 0 1.57371e+06 -1503.56 0 1.60011e+06 -1378.81 0 1.62412e+06 -1245.16 0 1.64564e+06 -1106.64 0 1.6646e+06 -966.185 0 1.68099e+06 -825.923 0 1.69483e+06 -687.463 0 1.70615e+06 -552.025 0 1.71504e+06 -420.552 0 1.72156e+06 -293.776 0 1.7258e+06 -172.259 0 1.72788e+06 -56.4309 0 1.72789e+06 53.3981 0 1.72595e+06 157.015 0 1.72217e+06 254.294 0 1.71667e+06 345.186 0 1.70957e+06 429.706 0 1.70097e+06 507.927 0 1.69101e+06 579.972 0 1.67978e+06 646 0 1.66739e+06 706.209 0 1.65396e+06 760.817 0 1.63958e+06 810.065 0 1.62434e+06 854.208 0 1.60834e+06 893.508 0 1.59167e+06 928.235 0 1.57439e+06 958.656 0 1.5566e+06 985.039 0 1.53837e+06 1007.65 0 1.51975e+06 1026.74 0 1.50081e+06 1042.55 0 1.48161e+06 1055.33 0 1.4622e+06 1065.31 0 1.44264e+06 1072.69 0 1.42296e+06 1077.69 0 1.40321e+06 1080.49 0 1.38343e+06 1081.29 0 1.36365e+06 1080.25 0 1.3439e+06 1077.53 0 1.32422e+06 1073.28 0 1.30463e+06 1067.64 0 1.28515e+06 1060.74 0 1.26582e+06 1052.69 0 1.24663e+06 1043.62 0 1.22763e+06 1033.62 0 1.20881e+06 1022.79 0 1.1902e+06 1011.21 0 1.1718e+06 998.963 0 1.15364e+06 986.128 0 1.13572e+06 972.769 0 1.11804e+06 958.949 0 1.10062e+06 944.725 0 1.08347e+06 930.15 0 1.06658e+06 915.271 0 1.04997e+06 900.132 0 1.03364e+06 884.773 0 1.01759e+06 869.23 0 1.00182e+06 853.537 0 986349 837.723 0 971164 821.816 0 956271 805.84 0 941671 789.818 0 927364 773.77 0 913351 757.715 0 899631 741.668 0 886205 725.644 0 873072 709.656 0 860231 693.717 0 847681 677.836 0 835421 662.023 0 823450 646.285 0 811766 630.631 0 800367 615.065 0 789253 599.593 0 778421 584.219 0 767869 568.948 0 757596 553.782 0 747599 538.724 0 737877 523.775 0 728428 508.938 0 719249 494.212 0 710338 479.598 0 701694 465.097 0 693314 450.708 0 685196 436.43 0 677339 422.263 0 669740 408.205 0 662397 394.254 0 655308 380.41 0 648472 366.669 0 641886 353.03 0 635549 339.491 0 629459 326.049 0 623614 312.701 0 618013 299.445 0 612653 286.278 0 607533 273.196 0 602652 260.197 0 598008 247.277 0 593600 234.433 0 589427 221.662 0 585486 208.96 0 581777 196.323 0 578299 183.749 0 575050 171.233 0 572030 158.771 0 569237 146.36 0 566672 133.997 0 564332 121.677 0 562217 109.396 0 560326 97.1508 0 558659 84.9374 0 557216 72.7518 0 555995 60.59 0 554996 48.4481 0 554220 36.3221 0 553665 24.2081 0 553332 12.102 0 553221 0 0 1.33936e+06 2.83122e-07 0 1.34591e+06 -1016.62 0 1.36369e+06 -1794.09 0 1.38908e+06 -2279.91 0 1.41885e+06 -2538.73 0 1.45068e+06 -2640.14 0 1.48301e+06 -2633.35 0 1.51475e+06 -2552.3 0 1.54515e+06 -2420.69 0 1.57371e+06 -2255.36 0 1.60011e+06 -2068.22 0 1.62413e+06 -1867.74 0 1.64565e+06 -1659.97 0 1.66461e+06 -1449.28 0 1.681e+06 -1238.88 0 1.69483e+06 -1031.19 0 1.70616e+06 -828.033 0 1.71504e+06 -630.823 0 1.72156e+06 -440.658 0 1.72581e+06 -258.384 0 1.72788e+06 -84.6407 0 1.7279e+06 80.103 0 1.72595e+06 235.529 0 1.72217e+06 381.448 0 1.71667e+06 517.785 0 1.70957e+06 644.565 0 1.70098e+06 761.897 0 1.69101e+06 869.963 0 1.67978e+06 969.006 0 1.6674e+06 1059.32 0 1.65396e+06 1141.23 0 1.63958e+06 1215.1 0 1.62434e+06 1281.32 0 1.60834e+06 1340.27 0 1.59167e+06 1392.36 0 1.5744e+06 1437.99 0 1.55661e+06 1477.56 0 1.53837e+06 1511.47 0 1.51975e+06 1540.11 0 1.50081e+06 1563.83 0 1.48161e+06 1583 0 1.4622e+06 1597.96 0 1.44264e+06 1609.04 0 1.42296e+06 1616.53 0 1.40321e+06 1620.74 0 1.38343e+06 1621.94 0 1.36365e+06 1620.37 0 1.3439e+06 1616.29 0 1.32422e+06 1609.92 0 1.30463e+06 1601.46 0 1.28515e+06 1591.1 0 1.26581e+06 1579.04 0 1.24663e+06 1565.43 0 1.22763e+06 1550.43 0 1.20881e+06 1534.18 0 1.1902e+06 1516.81 0 1.1718e+06 1498.45 0 1.15364e+06 1479.19 0 1.13572e+06 1459.15 0 1.11804e+06 1438.42 0 1.10062e+06 1417.09 0 1.08347e+06 1395.23 0 1.06658e+06 1372.91 0 1.04997e+06 1350.2 0 1.03364e+06 1327.16 0 1.01759e+06 1303.85 0 1.00182e+06 1280.31 0 986349 1256.58 0 971164 1232.72 0 956271 1208.76 0 941670 1184.73 0 927363 1160.66 0 913350 1136.57 0 899630 1112.5 0 886204 1088.47 0 873071 1064.48 0 860230 1040.58 0 847680 1016.75 0 835420 993.034 0 823449 969.428 0 811765 945.946 0 800367 922.597 0 789253 899.389 0 778421 876.329 0 767869 853.422 0 757596 830.673 0 747599 808.086 0 737877 785.663 0 728427 763.407 0 719248 741.318 0 710337 719.397 0 701693 697.646 0 693313 676.062 0 685196 654.645 0 677338 633.394 0 669739 612.307 0 662396 591.381 0 655308 570.614 0 648472 550.003 0 641886 529.545 0 635549 509.237 0 629459 489.074 0 623614 469.052 0 618012 449.168 0 612653 429.417 0 607533 409.794 0 602652 390.295 0 598008 370.916 0 593600 351.65 0 589426 332.493 0 585485 313.44 0 581777 294.485 0 578298 275.623 0 575050 256.849 0 572030 238.156 0 569237 219.54 0 566671 200.995 0 564331 182.515 0 562216 164.094 0 560326 145.726 0 558659 127.406 0 557215 109.128 0 555994 90.8849 0 554996 72.6721 0 554220 54.4831 0 553665 36.3121 0 553332 18.1531 0 553220 0 0 1.33932e+06 1.01328e-06 0 1.34588e+06 -1355.79 0 1.36367e+06 -2392.47 0 1.38907e+06 -3040.14 0 1.41884e+06 -3385.15 0 1.45068e+06 -3520.31 0 1.48301e+06 -3511.23 0 1.51475e+06 -3403.12 0 1.54516e+06 -3227.63 0 1.57372e+06 -3007.17 0 1.60012e+06 -2757.64 0 1.62413e+06 -2490.33 0 1.64565e+06 -2213.29 0 1.66461e+06 -1932.37 0 1.681e+06 -1651.84 0 1.69484e+06 -1374.92 0 1.70616e+06 -1104.04 0 1.71505e+06 -841.09 0 1.72157e+06 -587.535 0 1.72581e+06 -344.502 0 1.72789e+06 -112.844 0 1.7279e+06 106.815 0 1.72596e+06 314.049 0 1.72218e+06 508.608 0 1.71668e+06 690.391 0 1.70957e+06 859.431 0 1.70098e+06 1015.87 0 1.69101e+06 1159.96 0 1.67978e+06 1292.02 0 1.6674e+06 1412.43 0 1.65397e+06 1521.65 0 1.63958e+06 1620.15 0 1.62435e+06 1708.43 0 1.60835e+06 1787.03 0 1.59167e+06 1856.48 0 1.5744e+06 1917.32 0 1.55661e+06 1970.09 0 1.53837e+06 2015.31 0 1.51975e+06 2053.48 0 1.50081e+06 2085.11 0 1.48161e+06 2110.67 0 1.4622e+06 2130.62 0 1.44264e+06 2145.38 0 1.42296e+06 2155.38 0 1.40321e+06 2160.99 0 1.38343e+06 2162.58 0 1.36365e+06 2160.5 0 1.3439e+06 2155.06 0 1.32422e+06 2146.56 0 1.30463e+06 2135.28 0 1.28515e+06 2121.48 0 1.26581e+06 2105.39 0 1.24663e+06 2087.24 0 1.22762e+06 2067.24 0 1.20881e+06 2045.58 0 1.1902e+06 2022.42 0 1.1718e+06 1997.93 0 1.15364e+06 1972.26 0 1.13571e+06 1945.54 0 1.11804e+06 1917.9 0 1.10062e+06 1889.45 0 1.08346e+06 1860.3 0 1.06658e+06 1830.54 0 1.04997e+06 1800.26 0 1.03364e+06 1769.55 0 1.01759e+06 1738.46 0 1.00182e+06 1707.07 0 986348 1675.45 0 971163 1643.63 0 956270 1611.68 0 941669 1579.64 0 927362 1547.54 0 913349 1515.43 0 899630 1483.33 0 886204 1451.29 0 873071 1419.31 0 860229 1387.43 0 847680 1355.67 0 835420 1324.05 0 823449 1292.57 0 811765 1261.26 0 800366 1230.13 0 789252 1199.19 0 778420 1168.44 0 767868 1137.9 0 757595 1107.56 0 747598 1077.45 0 737876 1047.55 0 728426 1017.88 0 719247 988.424 0 710337 959.196 0 701692 930.194 0 693313 901.416 0 685195 872.86 0 677338 844.525 0 669738 816.409 0 662396 788.508 0 655307 760.819 0 648471 733.338 0 641885 706.06 0 635548 678.982 0 629458 652.098 0 623613 625.403 0 618012 598.89 0 612652 572.556 0 607532 546.392 0 602651 520.394 0 598007 494.554 0 593599 468.866 0 589426 443.324 0 585485 417.92 0 581776 392.646 0 578298 367.497 0 575049 342.465 0 572029 317.542 0 569236 292.721 0 566671 267.994 0 564331 243.353 0 562216 218.792 0 560325 194.302 0 558658 169.875 0 557215 145.503 0 555994 121.18 0 554995 96.8961 0 554219 72.6442 0 553664 48.4162 0 553331 24.2041 0 553220 0 0 1.33928e+06 -1.13249e-06 0 1.34584e+06 -1695.23 0 1.36365e+06 -2991.15 0 1.38906e+06 -3800.6 0 1.41883e+06 -4231.73 0 1.45068e+06 -4400.59 0 1.48301e+06 -4389.17 0 1.51476e+06 -4253.99 0 1.54516e+06 -4034.6 0 1.57373e+06 -3759 0 1.60012e+06 -3447.07 0 1.62414e+06 -3112.92 0 1.64566e+06 -2766.62 0 1.66462e+06 -2415.46 0 1.68101e+06 -2064.8 0 1.69485e+06 -1718.64 0 1.70617e+06 -1380.04 0 1.71506e+06 -1051.35 0 1.72157e+06 -734.404 0 1.72582e+06 -430.611 0 1.7279e+06 -141.038 0 1.72791e+06 133.536 0 1.72596e+06 392.579 0 1.72218e+06 635.778 0 1.71668e+06 863.007 0 1.70958e+06 1074.31 0 1.70099e+06 1269.86 0 1.69102e+06 1449.97 0 1.67979e+06 1615.04 0 1.6674e+06 1765.56 0 1.65397e+06 1902.08 0 1.63958e+06 2025.2 0 1.62435e+06 2135.55 0 1.60835e+06 2233.8 0 1.59167e+06 2320.61 0 1.5744e+06 2396.67 0 1.55661e+06 2462.62 0 1.53837e+06 2519.14 0 1.51975e+06 2566.86 0 1.50081e+06 2606.4 0 1.48161e+06 2638.35 0 1.4622e+06 2663.28 0 1.44264e+06 2681.74 0 1.42296e+06 2694.23 0 1.40321e+06 2701.25 0 1.38343e+06 2703.24 0 1.36365e+06 2700.63 0 1.3439e+06 2693.83 0 1.32422e+06 2683.2 0 1.30463e+06 2669.1 0 1.28515e+06 2651.85 0 1.26581e+06 2631.74 0 1.24663e+06 2609.06 0 1.22762e+06 2584.06 0 1.20881e+06 2556.97 0 1.1902e+06 2528.02 0 1.1718e+06 2497.41 0 1.15364e+06 2465.32 0 1.13571e+06 2431.93 0 1.11804e+06 2397.37 0 1.10062e+06 2361.82 0 1.08346e+06 2325.38 0 1.06658e+06 2288.18 0 1.04997e+06 2250.33 0 1.03363e+06 2211.93 0 1.01759e+06 2173.08 0 1.00182e+06 2133.84 0 986347 2094.31 0 971162 2054.54 0 956269 2014.6 0 941668 1974.55 0 927361 1934.43 0 913348 1894.29 0 899629 1854.17 0 886203 1814.11 0 873070 1774.14 0 860228 1734.29 0 847679 1694.59 0 835419 1655.06 0 823448 1615.71 0 811764 1576.58 0 800365 1537.66 0 789251 1498.98 0 778419 1460.55 0 767867 1422.37 0 757594 1384.45 0 747597 1346.81 0 737875 1309.44 0 728426 1272.34 0 719246 1235.53 0 710336 1199 0 701692 1162.74 0 693312 1126.77 0 685194 1091.07 0 677337 1055.66 0 669738 1020.51 0 662395 985.634 0 655306 951.023 0 648470 916.672 0 641885 882.575 0 635548 848.727 0 629457 815.122 0 623612 781.753 0 618011 748.613 0 612651 715.694 0 607532 682.99 0 602651 650.492 0 598007 618.192 0 593599 586.083 0 589425 554.155 0 585484 522.399 0 581775 490.808 0 578297 459.372 0 575048 428.081 0 572028 396.927 0 569236 365.901 0 566670 334.992 0 564330 304.191 0 562215 273.49 0 560324 242.877 0 558657 212.343 0 557214 181.879 0 555993 151.475 0 554995 121.12 0 554218 90.8052 0 553664 60.5202 0 553331 30.2551 0 553219 0 0 1.33922e+06 -4.76837e-07 0 1.34579e+06 -2034.98 0 1.36362e+06 -3590.2 0 1.38904e+06 -4561.34 0 1.41883e+06 -5078.5 0 1.45068e+06 -5281 0 1.48302e+06 -5267.2 0 1.51476e+06 -5104.93 0 1.54517e+06 -4841.61 0 1.57374e+06 -4510.86 0 1.60013e+06 -4136.52 0 1.62415e+06 -3735.52 0 1.64567e+06 -3319.95 0 1.66463e+06 -2898.55 0 1.68102e+06 -2477.75 0 1.69486e+06 -2062.35 0 1.70618e+06 -1656.03 0 1.71506e+06 -1261.6 0 1.72158e+06 -881.263 0 1.72583e+06 -516.71 0 1.7279e+06 -169.221 0 1.72792e+06 160.269 0 1.72597e+06 471.121 0 1.72219e+06 762.96 0 1.71669e+06 1035.63 0 1.70958e+06 1289.19 0 1.70099e+06 1523.86 0 1.69102e+06 1739.99 0 1.67979e+06 1938.07 0 1.66741e+06 2118.69 0 1.65397e+06 2282.51 0 1.63959e+06 2430.26 0 1.62435e+06 2562.68 0 1.60835e+06 2680.58 0 1.59167e+06 2784.76 0 1.5744e+06 2876.02 0 1.55661e+06 2955.16 0 1.53837e+06 3022.98 0 1.51975e+06 3080.25 0 1.50081e+06 3127.69 0 1.48161e+06 3166.03 0 1.4622e+06 3195.95 0 1.44264e+06 3218.1 0 1.42296e+06 3233.09 0 1.40321e+06 3241.5 0 1.38343e+06 3243.89 0 1.36365e+06 3240.76 0 1.3439e+06 3232.6 0 1.32422e+06 3219.85 0 1.30463e+06 3202.93 0 1.28515e+06 3182.22 0 1.26581e+06 3158.09 0 1.24663e+06 3130.87 0 1.22762e+06 3100.87 0 1.20881e+06 3068.37 0 1.19019e+06 3033.63 0 1.1718e+06 2996.9 0 1.15364e+06 2958.39 0 1.13571e+06 2918.31 0 1.11804e+06 2876.85 0 1.10062e+06 2834.18 0 1.08346e+06 2790.45 0 1.06658e+06 2745.82 0 1.04997e+06 2700.4 0 1.03363e+06 2654.32 0 1.01758e+06 2607.69 0 1.00182e+06 2560.61 0 986346 2513.17 0 971161 2465.45 0 956268 2417.52 0 941667 2369.45 0 927360 2321.31 0 913347 2273.14 0 899628 2225 0 886201 2176.93 0 873068 2128.97 0 860227 2081.15 0 847677 2033.51 0 835418 1986.07 0 823446 1938.86 0 811762 1891.89 0 800364 1845.19 0 789250 1798.78 0 778418 1752.66 0 767866 1706.84 0 757593 1661.35 0 747596 1616.17 0 737874 1571.32 0 728424 1526.81 0 719245 1482.63 0 710335 1438.79 0 701691 1395.29 0 693311 1352.12 0 685193 1309.29 0 677336 1266.79 0 669737 1224.61 0 662394 1182.76 0 655305 1141.23 0 648469 1100.01 0 641883 1059.09 0 635547 1018.47 0 629456 978.146 0 623611 938.103 0 618010 898.335 0 612650 858.833 0 607531 819.588 0 602650 780.59 0 598006 741.831 0 593598 703.299 0 589424 664.985 0 585483 626.879 0 581774 588.969 0 578296 551.246 0 575047 513.697 0 572027 476.312 0 569235 439.081 0 566669 401.99 0 564329 365.03 0 562214 328.187 0 560323 291.452 0 558657 254.812 0 557213 218.255 0 555992 181.77 0 554994 145.344 0 554217 108.966 0 553663 72.6242 0 553330 36.3061 0 553218 0 0 1.33916e+06 -7.15256e-07 0 1.34574e+06 -2375.13 0 1.36358e+06 -4189.7 0 1.38902e+06 -5322.41 0 1.41882e+06 -5925.51 0 1.45067e+06 -6161.57 0 1.48302e+06 -6145.35 0 1.51477e+06 -5955.94 0 1.54518e+06 -5648.67 0 1.57375e+06 -5262.75 0 1.60015e+06 -4825.99 0 1.62417e+06 -4358.14 0 1.64569e+06 -3873.29 0 1.66465e+06 -3381.64 0 1.68103e+06 -2890.7 0 1.69487e+06 -2406.06 0 1.70619e+06 -1932.01 0 1.71508e+06 -1471.84 0 1.72159e+06 -1028.11 0 1.72584e+06 -602.796 0 1.72791e+06 -197.39 0 1.72792e+06 187.016 0 1.72598e+06 549.677 0 1.7222e+06 890.156 0 1.7167e+06 1208.28 0 1.70959e+06 1504.09 0 1.701e+06 1777.87 0 1.69103e+06 2030.02 0 1.6798e+06 2261.12 0 1.66741e+06 2471.84 0 1.65398e+06 2662.96 0 1.63959e+06 2835.33 0 1.62435e+06 2989.82 0 1.60835e+06 3127.37 0 1.59168e+06 3248.91 0 1.5744e+06 3355.38 0 1.55661e+06 3447.71 0 1.53837e+06 3526.83 0 1.51975e+06 3593.64 0 1.50081e+06 3648.99 0 1.48161e+06 3693.72 0 1.4622e+06 3728.62 0 1.44264e+06 3754.46 0 1.42296e+06 3771.95 0 1.40321e+06 3781.76 0 1.38343e+06 3784.55 0 1.36365e+06 3780.9 0 1.3439e+06 3771.37 0 1.32422e+06 3756.5 0 1.30463e+06 3736.75 0 1.28515e+06 3712.6 0 1.26581e+06 3684.45 0 1.24663e+06 3652.69 0 1.22762e+06 3617.69 0 1.20881e+06 3579.77 0 1.19019e+06 3539.24 0 1.1718e+06 3496.38 0 1.15364e+06 3451.46 0 1.13571e+06 3404.7 0 1.11804e+06 3356.33 0 1.10062e+06 3306.55 0 1.08346e+06 3255.53 0 1.06658e+06 3203.45 0 1.04996e+06 3150.47 0 1.03363e+06 3096.71 0 1.01758e+06 3042.31 0 1.00182e+06 2987.38 0 986344 2932.03 0 971159 2876.36 0 956266 2820.44 0 941666 2764.36 0 927359 2708.2 0 913346 2652 0 899626 2595.84 0 886200 2539.75 0 873067 2483.8 0 860226 2428.01 0 847676 2372.43 0 835416 2317.08 0 823445 2262 0 811761 2207.21 0 800363 2152.72 0 789248 2098.57 0 778416 2044.77 0 767865 1991.32 0 757591 1938.24 0 747595 1885.53 0 737873 1833.21 0 728423 1781.28 0 719244 1729.74 0 710333 1678.59 0 701689 1627.84 0 693309 1577.48 0 685192 1527.5 0 677334 1477.92 0 669735 1428.71 0 662393 1379.89 0 655304 1331.43 0 648468 1283.34 0 641882 1235.6 0 635545 1188.22 0 629455 1141.17 0 623610 1094.45 0 618009 1048.06 0 612649 1001.97 0 607529 956.185 0 602648 910.688 0 598005 865.469 0 593596 820.515 0 589423 775.816 0 585482 731.358 0 581773 687.13 0 578295 643.12 0 575046 599.313 0 572026 555.698 0 569234 512.26 0 566668 468.988 0 564328 425.868 0 562213 382.885 0 560322 340.027 0 558655 297.28 0 557212 254.631 0 555991 212.064 0 554993 169.568 0 554216 127.127 0 553662 84.7281 0 553329 42.3571 0 553217 0 0 1.33908e+06 -1.66893e-06 0 1.34567e+06 -2715.74 0 1.36354e+06 -4789.73 0 1.389e+06 -6083.88 0 1.4188e+06 -6772.78 0 1.45067e+06 -7042.33 0 1.48302e+06 -7023.62 0 1.51478e+06 -6807.04 0 1.54519e+06 -6455.79 0 1.57376e+06 -6014.68 0 1.60016e+06 -5515.49 0 1.62418e+06 -4980.76 0 1.6457e+06 -4426.63 0 1.66466e+06 -3864.73 0 1.68105e+06 -3303.64 0 1.69488e+06 -2749.76 0 1.70621e+06 -2207.98 0 1.71509e+06 -1682.07 0 1.72161e+06 -1174.94 0 1.72585e+06 -688.867 0 1.72793e+06 -225.544 0 1.72794e+06 213.779 0 1.72599e+06 628.25 0 1.72221e+06 1017.37 0 1.71671e+06 1380.93 0 1.7096e+06 1719.01 0 1.70101e+06 2031.89 0 1.69104e+06 2320.07 0 1.6798e+06 2584.18 0 1.66742e+06 2825 0 1.65398e+06 3043.43 0 1.6396e+06 3240.41 0 1.62436e+06 3416.98 0 1.60836e+06 3574.17 0 1.59168e+06 3713.07 0 1.57441e+06 3834.74 0 1.55661e+06 3940.27 0 1.53837e+06 4030.69 0 1.51975e+06 4107.04 0 1.50081e+06 4170.29 0 1.48161e+06 4221.41 0 1.46221e+06 4261.3 0 1.44264e+06 4290.83 0 1.42296e+06 4310.81 0 1.40321e+06 4322.03 0 1.38343e+06 4325.21 0 1.36365e+06 4321.04 0 1.3439e+06 4310.15 0 1.32422e+06 4293.15 0 1.30463e+06 4270.59 0 1.28515e+06 4242.98 0 1.26581e+06 4210.8 0 1.24663e+06 4174.51 0 1.22762e+06 4134.51 0 1.2088e+06 4091.17 0 1.19019e+06 4044.85 0 1.1718e+06 3995.87 0 1.15363e+06 3944.53 0 1.13571e+06 3891.09 0 1.11803e+06 3835.81 0 1.10062e+06 3778.91 0 1.08346e+06 3720.61 0 1.06657e+06 3661.09 0 1.04996e+06 3600.54 0 1.03363e+06 3539.1 0 1.01758e+06 3476.93 0 1.00182e+06 3414.15 0 986343 3350.9 0 971158 3287.27 0 956265 3223.36 0 941664 3159.27 0 927357 3095.08 0 913344 3030.86 0 899624 2966.67 0 886198 2902.57 0 873065 2838.62 0 860224 2774.87 0 847674 2711.34 0 835415 2648.09 0 823443 2585.14 0 811759 2522.52 0 800361 2460.26 0 789247 2398.37 0 778415 2336.87 0 767863 2275.79 0 757590 2215.13 0 747593 2154.89 0 737871 2095.1 0 728422 2035.75 0 719243 1976.84 0 710332 1918.39 0 701688 1860.39 0 693308 1802.83 0 685190 1745.72 0 677333 1689.05 0 669734 1632.82 0 662391 1577.01 0 655303 1521.64 0 648466 1466.67 0 641881 1412.12 0 635544 1357.96 0 629454 1304.19 0 623609 1250.8 0 618007 1197.78 0 612648 1145.11 0 607528 1092.78 0 602647 1040.79 0 598003 989.106 0 593595 937.731 0 589421 886.646 0 585481 835.838 0 581772 785.291 0 578294 734.993 0 575045 684.929 0 572025 635.082 0 569232 585.44 0 566667 535.986 0 564326 486.705 0 562212 437.583 0 560321 388.602 0 558654 339.749 0 557211 291.006 0 555990 242.359 0 554991 193.792 0 554215 145.288 0 553660 96.8321 0 553327 48.4081 0 553216 0 0 1.339e+06 3.45707e-06 0 1.3456e+06 -3056.86 0 1.36349e+06 -5390.37 0 1.38897e+06 -6845.8 0 1.41879e+06 -7620.37 0 1.45067e+06 -7923.3 0 1.48303e+06 -7902.04 0 1.51479e+06 -7658.23 0 1.5452e+06 -7262.97 0 1.57377e+06 -6766.65 0 1.60017e+06 -6205.01 0 1.62419e+06 -5603.41 0 1.64572e+06 -4979.98 0 1.66468e+06 -4347.82 0 1.68106e+06 -3716.58 0 1.6949e+06 -3093.45 0 1.70622e+06 -2483.94 0 1.7151e+06 -1892.28 0 1.72162e+06 -1321.76 0 1.72587e+06 -774.921 0 1.72794e+06 -253.68 0 1.72795e+06 240.56 0 1.726e+06 706.842 0 1.72222e+06 1144.6 0 1.71672e+06 1553.61 0 1.70961e+06 1933.95 0 1.70101e+06 2285.94 0 1.69104e+06 2610.13 0 1.67981e+06 2907.25 0 1.66742e+06 3178.18 0 1.65399e+06 3423.91 0 1.6396e+06 3645.51 0 1.62436e+06 3844.14 0 1.60836e+06 4020.98 0 1.59168e+06 4177.24 0 1.57441e+06 4314.13 0 1.55662e+06 4432.84 0 1.53838e+06 4534.56 0 1.51976e+06 4620.45 0 1.50082e+06 4691.61 0 1.48162e+06 4749.11 0 1.46221e+06 4793.99 0 1.44264e+06 4827.2 0 1.42296e+06 4849.68 0 1.40321e+06 4862.3 0 1.38343e+06 4865.88 0 1.36365e+06 4861.19 0 1.3439e+06 4848.94 0 1.32422e+06 4829.81 0 1.30463e+06 4804.42 0 1.28515e+06 4773.36 0 1.26581e+06 4737.16 0 1.24663e+06 4696.33 0 1.22762e+06 4651.33 0 1.2088e+06 4602.57 0 1.19019e+06 4550.46 0 1.1718e+06 4495.36 0 1.15363e+06 4437.6 0 1.13571e+06 4377.48 0 1.11803e+06 4315.29 0 1.10061e+06 4251.28 0 1.08346e+06 4185.69 0 1.06657e+06 4118.73 0 1.04996e+06 4050.6 0 1.03363e+06 3981.49 0 1.01758e+06 3911.54 0 1.00182e+06 3840.92 0 986341 3769.76 0 971156 3698.17 0 956263 3626.28 0 941662 3554.18 0 927355 3481.97 0 913342 3409.72 0 899623 3337.5 0 886197 3265.4 0 873063 3193.45 0 860222 3121.72 0 847673 3050.26 0 835413 2979.1 0 823442 2908.28 0 811758 2837.83 0 800359 2767.79 0 789245 2698.16 0 778413 2628.98 0 767861 2560.26 0 757588 2492.02 0 747592 2424.25 0 737869 2356.98 0 728420 2290.22 0 719241 2223.95 0 710330 2158.19 0 701686 2092.93 0 693306 2028.18 0 685189 1963.93 0 677331 1900.18 0 669732 1836.92 0 662389 1774.14 0 655301 1711.84 0 648465 1650.01 0 641879 1588.63 0 635542 1527.71 0 629452 1467.22 0 623607 1407.15 0 618006 1347.5 0 612646 1288.25 0 607527 1229.38 0 602646 1170.88 0 598002 1112.74 0 593594 1054.95 0 589420 997.476 0 585479 940.317 0 581770 883.452 0 578292 826.867 0 575044 770.544 0 572023 714.467 0 569231 658.62 0 566665 602.984 0 564325 547.543 0 562210 492.28 0 560320 437.177 0 558653 382.217 0 557209 327.382 0 555988 272.654 0 554990 218.016 0 554214 163.449 0 553659 108.936 0 553326 54.4591 0 553214 0 0 1.3389e+06 -4.94719e-06 0 1.34552e+06 -3398.57 0 1.36344e+06 -5991.67 0 1.38894e+06 -7608.23 0 1.41878e+06 -8468.3 0 1.45067e+06 -8804.51 0 1.48303e+06 -8780.62 0 1.51479e+06 -8509.54 0 1.54521e+06 -8070.23 0 1.57379e+06 -7518.67 0 1.60019e+06 -6894.55 0 1.62421e+06 -6226.06 0 1.64573e+06 -5533.33 0 1.6647e+06 -4830.91 0 1.68108e+06 -4129.51 0 1.69492e+06 -3437.13 0 1.70624e+06 -2759.88 0 1.71512e+06 -2102.48 0 1.72164e+06 -1468.56 0 1.72588e+06 -860.956 0 1.72795e+06 -281.795 0 1.72796e+06 267.363 0 1.72602e+06 785.455 0 1.72223e+06 1271.85 0 1.71673e+06 1726.31 0 1.70962e+06 2148.91 0 1.70102e+06 2540.01 0 1.69105e+06 2900.22 0 1.67982e+06 3230.35 0 1.66743e+06 3531.38 0 1.654e+06 3804.4 0 1.63961e+06 4050.63 0 1.62437e+06 4271.33 0 1.60837e+06 4467.81 0 1.59169e+06 4641.43 0 1.57441e+06 4793.52 0 1.55662e+06 4925.42 0 1.53838e+06 5038.45 0 1.51976e+06 5133.87 0 1.50082e+06 5212.94 0 1.48162e+06 5276.83 0 1.46221e+06 5326.68 0 1.44264e+06 5363.59 0 1.42296e+06 5388.56 0 1.40321e+06 5402.58 0 1.38343e+06 5406.56 0 1.36365e+06 5401.34 0 1.3439e+06 5387.73 0 1.32422e+06 5366.47 0 1.30463e+06 5338.26 0 1.28515e+06 5303.75 0 1.26581e+06 5263.53 0 1.24663e+06 5218.16 0 1.22762e+06 5168.15 0 1.2088e+06 5113.98 0 1.19019e+06 5056.08 0 1.1718e+06 4994.85 0 1.15363e+06 4930.67 0 1.13571e+06 4863.87 0 1.11803e+06 4794.77 0 1.10061e+06 4723.65 0 1.08346e+06 4650.77 0 1.06657e+06 4576.37 0 1.04996e+06 4500.67 0 1.03363e+06 4423.88 0 1.01758e+06 4346.16 0 1.00181e+06 4267.69 0 986339 4188.62 0 971154 4109.08 0 956261 4029.2 0 941660 3949.09 0 927353 3868.85 0 913340 3788.57 0 899620 3708.34 0 886194 3628.22 0 873061 3548.28 0 860220 3468.58 0 847671 3389.18 0 835411 3310.11 0 823440 3231.42 0 811756 3153.15 0 800357 3075.32 0 789243 2997.96 0 778411 2921.09 0 767859 2844.73 0 757586 2768.9 0 747590 2693.61 0 737868 2618.87 0 728418 2544.68 0 719239 2471.05 0 710328 2397.99 0 701684 2325.48 0 693304 2253.53 0 685187 2182.14 0 677329 2111.31 0 669730 2041.02 0 662388 1971.26 0 655299 1902.04 0 648463 1833.34 0 641878 1765.15 0 635541 1697.45 0 629451 1630.24 0 623606 1563.5 0 618004 1497.22 0 612644 1431.38 0 607525 1365.98 0 602644 1300.98 0 598000 1236.38 0 593592 1172.16 0 589418 1108.31 0 585478 1044.8 0 581769 981.613 0 578291 918.74 0 575042 856.16 0 572022 793.852 0 569229 731.799 0 566663 669.982 0 564323 608.381 0 562209 546.978 0 560318 485.752 0 558651 424.685 0 557208 363.757 0 555987 302.949 0 554988 242.239 0 554212 181.61 0 553657 121.04 0 553324 60.51 0 553213 0 0 1.33879e+06 4.94719e-06 0 1.34543e+06 -3740.94 0 1.36338e+06 -6593.73 0 1.3889e+06 -8371.22 0 1.41876e+06 -9316.63 0 1.45066e+06 -9685.98 0 1.48304e+06 -9659.39 0 1.51481e+06 -9360.98 0 1.54523e+06 -8877.57 0 1.57381e+06 -8270.74 0 1.60021e+06 -7584.14 0 1.62423e+06 -6848.74 0 1.64575e+06 -6086.69 0 1.66472e+06 -5314 0 1.6811e+06 -4542.43 0 1.69494e+06 -3780.8 0 1.70626e+06 -3035.82 0 1.71514e+06 -2312.66 0 1.72166e+06 -1615.34 0 1.7259e+06 -946.97 0 1.72797e+06 -309.888 0 1.72798e+06 294.188 0 1.72603e+06 864.092 0 1.72225e+06 1399.13 0 1.71674e+06 1899.03 0 1.70963e+06 2363.89 0 1.70103e+06 2794.1 0 1.69106e+06 3190.33 0 1.67983e+06 3553.47 0 1.66744e+06 3884.6 0 1.654e+06 4184.92 0 1.63962e+06 4455.77 0 1.62437e+06 4698.53 0 1.60837e+06 4914.66 0 1.59169e+06 5105.64 0 1.57442e+06 5272.93 0 1.55662e+06 5418.02 0 1.53838e+06 5542.34 0 1.51976e+06 5647.31 0 1.50082e+06 5734.27 0 1.48162e+06 5804.55 0 1.46221e+06 5859.39 0 1.44264e+06 5899.98 0 1.42296e+06 5927.45 0 1.40321e+06 5942.87 0 1.38343e+06 5947.24 0 1.36364e+06 5941.5 0 1.3439e+06 5926.52 0 1.32422e+06 5903.14 0 1.30462e+06 5872.1 0 1.28515e+06 5834.14 0 1.26581e+06 5789.9 0 1.24663e+06 5739.99 0 1.22762e+06 5684.98 0 1.2088e+06 5625.39 0 1.19019e+06 5561.7 0 1.17179e+06 5494.35 0 1.15363e+06 5423.74 0 1.1357e+06 5350.27 0 1.11803e+06 5274.25 0 1.10061e+06 5196.02 0 1.08345e+06 5115.85 0 1.06657e+06 5034.01 0 1.04996e+06 4950.74 0 1.03362e+06 4866.27 0 1.01758e+06 4780.78 0 1.00181e+06 4694.46 0 986337 4607.48 0 971152 4519.99 0 956258 4432.12 0 941658 4344 0 927351 4255.74 0 913338 4167.43 0 899618 4079.17 0 886192 3991.04 0 873059 3903.11 0 860218