<?xml version="1.0"?> 
<VTKFile type="StructuredGrid" version="0.1"> 
<StructuredGrid WholeExtent="0 127 0 127 0 0"> 
<Piece Extent="0 127 0 127 0 0"> 
<PointData>
<DataArray type="Float32" Name="|E|" format="ascii" NumberOfComponents="3"> 
1451.33 0 0 255.451 -629.584 0 245.189 -379.987 0 104.26 -384.912 0 66.7166 -318.41 0 18.2192 -294.232 0 -8.42874 -259.513 0 -31.662 -234.566 0 -47.7113 -209.804 0 -60.1806 -188.516 0 -69.1688 -168.88 0 -75.7027 -151.281 0 -80.1867 -135.277 0 -83.0756 -120.806 0 -84.6733 -107.687 0 -85.2423 -95.8112 0 -84.9869 -85.0598 0 -84.076 -75.3346 0 -82.6466 -66.5432 0 -80.8119 -58.6026 0 -78.6649 -51.4368 0 -76.2825 -44.9767 0 -73.7284 -39.1588 0 -71.0549 -33.9252 0 -68.3056 -29.223 0 -65.5161 -25.0038 0 -62.7157 -21.2233 0 -59.9282 -17.841 0 -57.1731 -14.82 0 -54.4657 -12.1265 0 -51.8185 -9.72961 0 -49.241 -7.60123 0 -46.7405 -5.71568 0 -44.3226 -4.04955 0 -41.9909 -2.5815 0 -39.748 -1.29213 0 -37.5952 -0.163743 0 -35.5329 0.819742 0 -33.5609 1.67295 0 -31.6782 2.40916 0 -29.8832 3.04045 0 -28.1742 3.57775 0 -26.5489 4.03099 0 -25.005 4.40917 0 -23.5398 4.72043 0 -22.1506 4.97214 0 -20.8345 5.17097 0 -19.5886 5.32293 0 -18.4101 5.43347 0 -17.2961 5.50747 0 -16.2436 5.54936 0 -15.2499 5.56311 0 -14.3121 5.5523 0 -13.4276 5.52014 0 -12.5938 5.46952 0 -11.808 5.40303 0 -11.0678 5.32296 0 -10.3709 5.23141 0 -9.71494 5.1302 0 -9.09775 5.021 0 -8.51725 4.90526 0 -7.97143 4.78429 0 -7.45837 4.65925 0 -6.97626 4.53115 0 -6.52336 4.40089 0 -6.09803 4.26928 0 -5.69869 4.13701 0 -5.32386 4.00467 0 -4.97212 3.87282 0 -4.64215 3.7419 0 -4.33268 3.6123 0 -4.0425 3.48438 0 -3.77049 3.35842 0 -3.51557 3.23466 0 -3.27673 3.1133 0 -3.05302 2.99452 0 -2.84354 2.87845 0 -2.64742 2.76519 0 -2.46388 2.65482 0 -2.29214 2.54741 0 -2.1315 2.443 0 -1.98129 2.3416 0 -1.84086 2.24322 0 -1.70962 2.14786 0 -1.58701 2.05549 0 -1.4725 1.96609 0 -1.36558 1.87961 0 -1.2658 1.79603 0 -1.17269 1.71527 0 -1.08586 1.63728 0 -1.00489 1.56201 0 -0.929441 1.48938 0 -0.859145 1.41933 0 -0.793683 1.35177 0 -0.732745 1.28665 0 -0.676043 1.22388 0 -0.623303 1.16338 0 -0.574271 1.10507 0 -0.528704 1.04889 0 -0.486376 0.99474 0 -0.447074 0.942551 0 -0.410595 0.892241 0 -0.37675 0.843731 0 -0.345362 0.796943 0 -0.316262 0.751797 0 -0.289289 0.708219 0 -0.264298 0.666131 0 -0.241144 0.625461 0 -0.219695 0.586128 0 -0.199824 0.548061 0 -0.181413 0.511186 0 -0.164347 0.475433 0 -0.148521 0.440729 0 -0.133832 0.407003 0 -0.120184 0.374188 0 -0.107482 0.342213 0 -0.0956405 0.311011 0 -0.0845739 0.280514 0 -0.0742032 0.250657 0 -0.0644468 0.221373 0 -0.055233 0.192595 0 -0.0464866 0.164262 0 -0.0381394 0.136308 0 -0.0301194 0.10867 0 -0.0223621 0.0812824 0 -0.0147997 0.0540839 0 -0.00736672 0.02701 0 9.53674e-07 2.86102e-06 0 1145.67 -2.49967e-06 0 376.319 -520.824 0 225.54 -386.203 0 130.443 -362.657 0 69.0372 -316.83 0 28.299 -286.903 0 -3.25501 -257.277 0 -25.6596 -231.731 0 -43.02 -208.445 0 -55.7556 -187.42 0 -65.3193 -168.359 0 -72.2145 -151.048 0 -77.075 -135.337 0 -80.2764 -121.067 0 -82.1628 -108.117 0 -82.9879 -96.3675 0 -82.9648 -85.7151 0 -82.2631 -76.0637 0 -81.0232 -67.3267 0 -79.36 -59.4242 0 -77.3683 -52.2833 0 -75.1267 -45.8371 0 -72.7001 -40.0243 0 -70.1422 -34.7885 0 -67.4976 -30.0781 0 -64.8029 -25.846 0 -62.0882 -22.0488 0 -59.3783 -18.6467 0 -56.6931 -15.6036 0 -54.049 -12.8863 0 -51.4588 -10.4642 0 -48.9326 -8.30982 0 -46.4784 -6.39769 0 -44.102 -4.70471 0 -41.8075 -3.20978 0 -39.598 -1.89367 0 -37.475 -0.738864 0 -35.4394 0.270597 0 -33.491 1.14923 0 -31.6293 1.91024 0 -29.853 2.56563 0 -28.1605 3.12629 0 -26.5497 3.60212 0 -25.0185 4.00207 0 -23.5644 4.3343 0 -22.1848 4.60615 0 -20.877 4.8243 0 -19.6383 4.99476 0 -18.4659 5.12298 0 -17.357 5.21389 0 -16.3088 5.2719 0 -15.3186 5.30102 0 -14.3837 5.30484 0 -13.5014 5.28661 0 -12.6692 5.24922 0 -11.8846 5.19529 0 -11.1453 5.12716 0 -10.4487 5.04691 0 -9.79283 4.95644 0 -9.17542 4.8574 0 -8.59444 4.75129 0 -8.04791 4.63944 0 -7.53396 4.52301 0 -7.0508 4.40307 0 -6.5967 4.28052 0 -6.17005 4.15619 0 -5.76929 4.0308 0 -5.39296 3.90496 0 -5.03966 3.77924 0 -4.70807 3.6541 0 -4.39694 3.52997 0 -4.10508 3.4072 0 -3.83136 3.28609 0 -3.57472 3.16691 0 -3.33417 3.04987 0 -3.10874 2.93515 0 -2.89755 2.82291 0 -2.69974 2.71325 0 -2.51452 2.60629 0 -2.34114 2.50207 0 -2.17888 2.40066 0 -2.02707 2.30209 0 -1.88508 2.20638 0 -1.75231 2.11352 0 -1.62821 2.0235 0 -1.51224 1.93631 0 -1.4039 1.85192 0 -1.30273 1.77028 0 -1.20828 1.69136 0 -1.12015 1.61509 0 -1.03792 1.54144 0 -0.961248 1.47033 0 -0.889772 1.40169 0 -0.823169 1.33548 0 -0.76113 1.2716 0 -0.703368 1.21 0 -0.649607 1.1506 0 -0.599594 1.09333 0 -0.553085 1.03811 0 -0.509854 0.98486 0 -0.469686 0.933513 0 -0.43238 0.883989 0 -0.397745 0.836216 0 -0.365603 0.790114 0 -0.335785 0.745611 0 -0.308131 0.70263 0 -0.282493 0.661099 0 -0.258728 0.620943 0 -0.236702 0.582091 0 -0.216288 0.544471 0 -0.197367 0.50801 0 -0.179827 0.472638 0 -0.163558 0.438285 0 -0.148459 0.404885 0 -0.134433 0.372366 0 -0.121386 0.340663 0 -0.109232 0.309708 0 -0.0978845 0.279435 0 -0.087264 0.249777 0 -0.0772914 0.220672 0 -0.0678917 0.192054 0 -0.0589923 0.163858 0 -0.0505237 0.13602 0 -0.0424151 0.108478 0 -0.0346017 0.0811684 0 -0.027015 0.0540274 0 -0.0195929 0.0269924 0 -0.0122673 -1.82912e-06 0 934.068 2.14577e-06 0 434.85 -433.34 0 228.316 -378.516 0 144.432 -346.056 0 76.3121 -311.425 0 35.6357 -280.961 0 2.85217 -253.984 0 -20.2842 -229.104 0 -38.2068 -206.755 0 -51.495 -186.28 0 -61.4817 -167.693 0 -68.7816 -150.736 0 -73.9839 -135.306 0 -77.4995 -121.257 0 -79.6641 -108.48 0 -80.7417 -96.8657 0 -80.946 -86.3176 0 -80.4505 -76.7457 0 -79.3973 -68.0678 0 -77.9034 -60.2078 0 -76.0654 -53.0956 0 -73.9632 -46.6669 0 -71.6631 -40.8622 0 -69.2201 -35.627 0 -66.6795 -30.911 0 -64.0792 -26.6683 0 -61.45 -22.8564 0 -58.8174 -19.4365 0 -56.2023 -16.3731 0 -53.6215 -13.6334 0 -51.0884 -11.1876 0 -48.6137 -9.00849 0 -46.2059 -7.07095 0 -43.8712 -5.35217 0 -41.6143 -3.83131 0 -39.4384 -2.48934 0 -37.3455 -1.3089 0 -35.3368 -0.274176 0 -33.4125 0.629245 0 -31.5721 1.41448 0 -29.8148 2.09344 0 -28.139 2.677 0 -26.5431 3.17498 0 -25.0249 3.59635 0 -23.5822 3.9492 0 -22.2125 4.24089 0 -20.9134 4.47808 0 -19.6821 4.66681 0 -18.5161 4.81251 0 -17.4126 4.92013 0 -16.369 4.9941 0 -15.3825 5.03845 0 -14.4507 5.05678 0 -13.5709 5.05235 0 -12.7406 5.02811 0 -11.9574 4.98667 0 -11.219 4.9304 0 -10.5231 4.86142 0 -9.86745 4.78163 0 -9.24999 4.69272 0 -8.66869 4.5962 0 -8.12163 4.49344 0 -7.60694 4.38562 0 -7.12286 4.27382 0 -6.6677 4.15898 0 -6.23986 4.04193 0 -5.83781 3.92342 0 -5.4601 3.80409 0 -5.10535 3.68451 0 -4.77225 3.56518 0 -4.45956 3.44652 0 -4.16611 3.32892 0 -3.89078 3.21268 0 -3.63251 3.0981 0 -3.39032 2.9854 0 -3.16325 2.87477 0 -2.95042 2.76637 0 -2.75099 2.66035 0 -2.56417 2.5568 0 -2.38919 2.45581 0 -2.22537 2.35743 0 -2.07202 2.26172 0 -1.92851 2.16869 0 -1.79427 2.07835 0 -1.66871 1.99072 0 -1.55133 1.90576 0 -1.44161 1.82347 0 -1.3391 1.74381 0 -1.24335 1.66675 0 -1.15395 1.59223 0 -1.07049 1.52021 0 -0.992626 1.45064 0 -0.919997 1.38345 0 -0.85228 1.31859 0 -0.789167 1.25599 0 -0.730368 1.19559 0 -0.67561 1.13731 0 -0.624635 1.08108 0 -0.577204 1.02684 0 -0.533087 0.974518 0 -0.492071 0.924033 0 -0.453953 0.875317 0 -0.418543 0.828297 0 -0.385662 0.782901 0 -0.355139 0.739056 0 -0.326817 0.69669 0 -0.300544 0.655732 0 -0.276178 0.616111 0 -0.253586 0.577756 0 -0.232639 0.540598 0 -0.213218 0.504566 0 -0.19521 0.469592 0 -0.178506 0.435608 0 -0.163005 0.402546 0 -0.148608 0.370342 0 -0.135223 0.338926 0 -0.122762 0.308233 0 -0.11114 0.278198 0 -0.100276 0.248758 0 -0.090091 0.219846 0 -0.080511 0.191401 0 -0.0714637 0.163357 0 -0.0628781 0.135652 0 -0.0546857 0.108223 0 -0.0468197 0.0810054 0 -0.0392146 0.0539381 0 -0.0318062 0.0269571 0 -0.0245274 1.451e-06 0 783.807 1.04308e-07 0 457.128 -363.075 0 239.175 -362.577 0 153.49 -331.968 0 84.7064 -304.128 0 42.0924 -275.376 0 8.96207 -250.195 0 -15.1114 -226.413 0 -33.4811 -204.875 0 -47.3116 -185.032 0 -57.7021 -166.914 0 -65.3889 -150.333 0 -70.9245 -135.193 0 -74.7438 -121.375 0 -77.1805 -108.778 0 -78.5048 -97.3058 0 -78.9323 -86.868 0 -78.6393 -77.381 0 -77.77 -68.7669 0 -76.4433 -60.9535 0 -74.7571 -53.8739 0 -72.7929 -47.4659 0 -70.6183 -41.6725 0 -68.2891 -36.4406 0 -65.8521 -31.7216 0 -63.3456 -27.4705 0 -60.8016 -23.6461 0 -58.2462 -20.2102 0 -55.701 -17.1281 0 -53.1834 -14.3677 0 -50.7075 -11.8997 0 -48.2846 -9.69706 0 -45.9233 -7.73527 0 -43.6306 -5.99176 0 -41.4114 -4.44593 0 -39.2694 -3.07897 0 -37.2069 -1.87369 0 -35.2254 -0.814409 0 -33.3254 0.113152 0 -31.5067 0.922019 0 -29.7687 1.62405 0 -28.11 2.23002 0 -26.5292 2.74974 0 -25.0243 3.19212 0 -23.5933 3.56526 0 -22.2339 3.87648 0 -20.9437 4.13245 0 -19.7202 4.3392 0 -18.5608 4.50217 0 -17.4629 4.6263 0 -16.4241 4.71607 0 -15.4417 4.77549 0 -14.5132 4.8082 0 -13.636 4.81748 0 -12.8079 4.80627 0 -12.0264 4.77724 0 -11.2891 4.73277 0 -10.594 4.67499 0 -9.93877 4.60583 0 -9.32144 4.52701 0 -8.74 4.44006 0 -8.19255 4.34636 0 -7.67727 4.24713 0 -7.19243 4.14346 0 -6.73635 4.03631 0 -6.30745 3.92655 0 -5.90424 3.81492 0 -5.52527 3.7021 0 -5.16918 3.58867 0 -4.83467 3.47515 0 -4.52053 3.36198 0 -4.22558 3.24956 0 -3.94872 3.13822 0 -3.68891 3.02826 0 -3.44516 2.91991 0 -3.21653 2.81338 0 -3.00214 2.70887 0 -2.80116 2.60649 0 -2.61279 2.50639 0 -2.43629 2.40864 0 -2.27095 2.31332 0 -2.11612 2.22048 0 -1.97116 2.13016 0 -1.83548 2.04238 0 -1.70852 1.95715 0 -1.58977 1.87445 0 -1.47871 1.79429 0 -1.3749 1.71663 0 -1.27788 1.64145 0 -1.18724 1.5687 0 -1.10259 1.49834 0 -1.02356 1.43033 0 -0.949809 1.36461 0 -0.881005 1.30113 0 -0.816842 1.23983 0 -0.75703 1.18064 0 -0.701296 1.1235 0 -0.649383 1.06834 0 -0.601049 1.0151 0 -0.556066 0.963719 0 -0.514219 0.914115 0 -0.475306 0.866224 0 -0.439136 0.819978 0 -0.405529 0.775304 0 -0.374316 0.732136 0 -0.345337 0.690403 0 -0.318442 0.650035 0 -0.293487 0.610965 0 -0.270338 0.573124 0 -0.248868 0.536444 0 -0.228956 0.500858 0 -0.210489 0.466298 0 -0.193359 0.432698 0 -0.177462 0.399992 0 -0.162702 0.368115 0 -0.148985 0.337001 0 -0.136223 0.306586 0 -0.124332 0.276806 0 -0.11323 0.247597 0 -0.102839 0.218895 0 -0.0930841 0.190637 0 -0.083893 0.162762 0 -0.0751957 0.135204 0 -0.0669234 0.107903 0 -0.0590099 0.0807948 0 -0.0513902 0.0538161 0 -0.0440003 0.0269057 0 -0.0367734 -1.09896e-06 0 674.317 -9.23872e-07 0 458.597 -306.594 0 251.234 -342.032 0 160.567 -318.853 0 92.818 -295.835 0 48.2276 -269.756 0 14.8235 -246.115 0 -10.0588 -223.58 0 -28.8829 -202.848 0 -43.1996 -183.666 0 -53.9877 -166.032 0 -62.0391 -149.839 0 -67.8994 -134.999 0 -72.012 -121.42 0 -74.7141 -109.012 0 -76.279 -97.6885 0 -76.9252 -87.3669 0 -76.8311 -77.9699 0 -76.1427 -69.4242 0 -74.9807 -61.6616 0 -73.4444 -54.6181 0 -71.6167 -48.2344 0 -69.5663 -42.4552 0 -67.3501 -37.2294 0 -65.0158 -32.5098 0 -62.6027 -28.2527 0 -60.1435 -24.4177 0 -57.6651 -20.9678 0 -55.1897 -17.8687 0 -52.7353 -15.0891 0 -50.3166 -12.6002 0 -47.9454 -10.3754 0 -45.6309 -8.3905 0 -43.3803 -6.62332 0 -41.199 -5.05348 0 -39.0912 -3.6624 0 -37.0594 -2.43306 0 -35.1054 -1.34995 0 -33.2299 -0.398894 0 -31.4332 0.433021 0 -29.7147 1.15758 0 -28.0734 1.78549 0 -26.508 2.32652 0 -25.0168 2.78953 0 -23.5978 3.18261 0 -22.2489 3.51305 0 -20.9679 3.78752 0 -19.7524 4.01203 0 -18.5999 4.19205 0 -17.508 4.33252 0 -16.4743 4.4379 0 -15.4961 4.51224 0 -14.5711 4.5592 0 -13.6969 4.58206 0 -12.8711 4.5838 0 -12.0914 4.56709 0 -11.3555 4.53433 0 -10.6614 4.48769 0 -10.0068 4.42912 0 -9.38976 4.36034 0 -8.80834 4.28292 0 -8.26068 4.19826 0 -7.74496 4.1076 0 -7.25949 4.01204 0 -6.80263 3.91258 0 -6.37281 3.81009 0 -5.96855 3.70535 0 -5.58844 3.59904 0 -5.23112 3.49177 0 -4.89532 3.38406 0 -4.57982 3.2764 0 -4.28347 3.16917 0 -4.00518 3.06274 0 -3.74391 2.9574 0 -3.49868 2.85343 0 -3.26857 2.75104 0 -3.05269 2.65041 0 -2.85022 2.55171 0 -2.66037 2.45507 0 -2.48241 2.36059 0 -2.31562 2.26834 0 -2.15936 2.17841 0 -2.01299 2.09082 0 -1.87592 2.00562 0 -1.74761 1.92281 0 -1.62753 1.8424 0 -1.51518 1.76438 0 -1.4101 1.68875 0 -1.31185 1.61547 0 -1.22001 1.54451 0 -1.1342 1.47584 0 -1.05404 1.40941 0 -0.979194 1.34518 0 -0.90933 1.2831 0 -0.844143 1.22311 0 -0.783343 1.16515 0 -0.726656 1.10917 0 -0.673824 1.05511 0 -0.624608 1.0029 0 -0.578777 0.95247 0 -0.536118 0.903766 0 -0.496426 0.856719 0 -0.459512 0.811262 0 -0.425195 0.76733 0 -0.393305 0.724855 0 -0.363683 0.683771 0 -0.336177 0.644011 0 -0.310644 0.605509 0 -0.28695 0.568198 0 -0.264966 0.532013 0 -0.244573 0.496888 0 -0.225656 0.462757 0 -0.208107 0.429556 0 -0.191823 0.397221 0 -0.176707 0.365687 0 -0.162665 0.334891 0 -0.149609 0.304769 0 -0.137455 0.275258 0 -0.12612 0.246295 0 -0.115528 0.217818 0 -0.105603 0.189764 0 -0.0962733 0.162071 0 -0.0874688 0.134677 0 -0.0791214 0.107519 0 -0.0711649 0.0805343 0 -0.0635347 0.0536618 0 -0.0561668 0.0268382 0 -0.0489964 3.09199e-07 0 592.31 1.2368e-06 0 448.571 -261.049 0 261.347 -319.401 0 166.768 -305.908 0 100.176 -287.038 0 54.1636 -263.927 0 20.384 -241.841 0 -5.12912 -220.581 0 -24.417 -200.691 0 -39.1668 -182.182 0 -50.3405 -165.05 0 -58.7367 -149.255 0 -64.9107 -134.727 0 -69.3065 -121.395 0 -72.2667 -109.183 0 -74.0662 -98.0144 0 -74.9263 -87.8148 0 -75.0271 -78.5127 0 -74.5166 -70.04 0 -73.5166 -62.3321 0 -72.1283 -55.3285 0 -70.4355 -48.9722 0 -68.5079 -43.2103 0 -66.4038 -37.9933 0 -64.1714 -33.2756 0 -61.8511 -29.0146 0 -59.4762 -25.1712 0 -57.0745 -21.709 0 -54.6687 -18.5947 0 -52.2774 -15.7974 0 -49.916 -13.289 0 -47.5965 -11.0433 0 -45.3288 -9.03649 0 -43.1205 -7.24668 0 -40.9774 -5.6538 0 -38.9039 -4.23947 0 -36.903 -2.98687 0 -34.9768 -1.88064 0 -33.1262 -0.906751 0 -31.3517 -0.0523735 0 -29.6531 0.694174 0 -28.0295 1.34355 0 -26.4798 1.90545 0 -25.0025 2.38871 0 -23.5958 2.80136 0 -22.2577 3.15072 0 -20.9862 3.4434 0 -19.7789 3.68543 0 -18.6336 3.88227 0 -17.5479 4.03886 0 -16.5194 4.15969 0 -15.5458 4.2488 0 -14.6246 4.30987 0 -13.7535 4.3462 0 -12.9302 4.36077 0 -12.1526 4.35629 0 -11.4183 4.33517 0 -10.7253 4.29961 0 -10.0715 4.25155 0 -9.45495 4.19278 0 -8.87372 4.12485 0 -8.32599 4.0492 0 -7.80999 3.96707 0 -7.32404 3.87961 0 -6.86652 3.78783 0 -6.43591 3.6926 0 -6.03074 3.59474 0 -5.64959 3.49494 0 -5.29116 3.39383 0 -4.95417 3.29195 0 -4.63741 3.1898 0 -4.33976 3.08778 0 -4.06013 2.98627 0 -3.79748 2.88558 0 -3.55086 2.78599 0 -3.31934 2.68775 0 -3.10205 2.59103 0 -2.89816 2.49603 0 -2.7069 2.40287 0 -2.52753 2.31167 0 -2.35935 2.22253 0 -2.20171 2.13552 0 -2.05399 2.05069 0 -1.91559 1.96808 0 -1.78597 1.88771 0 -1.66461 1.80961 0 -1.55101 1.73377 0 -1.4447 1.66018 0 -1.34525 1.58882 0 -1.25225 1.51968 0 -1.16531 1.45271 0 -1.08405 1.38789 0 -1.00814 1.32517 0 -0.937243 1.26451 0 -0.871058 1.20585 0 -0.809293 1.14915 0 -0.751676 1.09435 0 -0.69795 1.0414 0 -0.647872 0.990222 0 -0.601212 0.940774 0 -0.557758 0.892989 0 -0.517305 0.846803 0 -0.479662 0.802156 0 -0.444651 0.758981 0 -0.412098 0.717217 0 -0.381845 0.676799 0 -0.353741 0.637663 0 -0.327642 0.599744 0 -0.303413 0.56298 0 -0.280926 0.527306 0 -0.260061 0.492657 0 -0.240703 0.458971 0 -0.222743 0.426185 0 -0.20608 0.394236 0 -0.190615 0.36306 0 -0.176255 0.332597 0 -0.162911 0.302782 0 -0.1505 0.273555 0 -0.138939 0.244854 0 -0.12815 0.216616 0 -0.118061 0.188781 0 -0.108597 0.161286 0 -0.0996906 0.13407 0 -0.0912726 0.10707 0 -0.0832769 0.0802262 0 -0.0756404 0.0534751 0 -0.0682993 0.0267538 0 -0.0611885 7.15256e-07 0 529.18 -2.563e-06 0 432.568 -224.148 0 268.407 -296.303 0 172.339 -292.831 0 106.706 -277.969 0 59.8624 -257.855 0 25.6556 -237.407 0 -0.347349 -217.42 0 -20.0802 -198.412 0 -35.2227 -180.583 0 -46.762 -163.972 0 -55.4858 -148.584 0 -61.9606 -134.378 0 -66.6299 -121.301 0 -69.8402 -109.292 0 -71.8681 -98.2844 0 -72.937 -88.2121 0 -73.2287 -79.0099 0 -72.8927 -70.6145 0 -72.0523 -62.9654 0 -70.8097 -56.0052 0 -69.25 -49.6796 0 -67.444 -43.9378 0 -65.4507 -38.7324 0 -63.3195 -34.0189 0 -61.0913 -29.7563 0 -58.8003 -25.9064 0 -56.4749 -22.4338 0 -54.1385 -19.3059 0 -51.8102 -16.4925 0 -49.5059 -13.966 0 -47.2383 -11.7007 0 -45.0175 -9.67309 0 -42.8516 -7.86172 0 -40.7468 -6.24675 0 -38.7079 -4.81004 0 -36.7381 -3.53497 0 -34.8398 -2.40635 0 -33.0144 -1.41027 0 -31.2624 -0.534026 0 -29.5839 0.233978 0 -27.9782 0.904325 0 -26.4445 1.48666 0 -24.9814 1.98977 0 -23.5872 2.42166 0 -22.2602 2.7896 0 -20.9984 3.10021 0 -19.7997 3.3595 0 -18.6618 3.57293 0 -17.5826 3.74545 0 -16.5596 3.88154 0 -15.5907 3.98526 0 -14.6735 4.06029 0 -13.8058 4.10996 0 -12.9853 4.13726 0 -12.2099 4.14491 0 -11.4774 4.13536 0 -10.7857 4.1108 0 -10.1329 4.07321 0 -9.517 4.02438 0 -8.93612 3.9659 0 -8.38848 3.89922 0 -7.87234 3.82561 0 -7.38605 3.74623 0 -6.92803 3.6621 0 -6.49675 3.57413 0 -6.09078 3.48314 0 -5.70872 3.38985 0 -5.34928 3.2949 0 -5.0112 3.19886 0 -4.6933 3.10222 0 -4.39444 3.00541 0 -4.11355 2.90884 0 -3.84962 2.81281 0 -3.60168 2.71763 0 -3.36883 2.62354 0 -3.1502 2.53076 0 -2.94496 2.43946 0 -2.75236 2.34981 0 -2.57164 2.26192 0 -2.40214 2.17589 0 -2.24318 2.09182 0 -2.09415 2.00977 0 -1.95447 1.92978 0 -1.82359 1.85188 0 -1.70099 1.77611 0 -1.58617 1.70245 0 -1.47868 1.63093 0 -1.37807 1.56152 0 -1.28394 1.49421 0 -1.1959 1.42897 0 -1.11358 1.36577 0 -1.03663 1.30458 0 -0.964731 1.24536 0 -0.897574 1.18806 0 -0.834871 1.13264 0 -0.776347 1.07903 0 -0.721747 1.0272 0 -0.670827 0.977092 0 -0.623359 0.92864 0 -0.579128 0.88179 0 -0.537931 0.836484 0 -0.499577 0.792663 0 -0.463885 0.750263 0 -0.430684 0.709227 0 -0.399815 0.669491 0 -0.371125 0.630995 0 -0.344471 0.593676 0 -0.319718 0.557473 0 -0.296738 0.522325 0 -0.275411 0.488168 0 -0.255621 0.454943 0 -0.23726 0.422586 0 -0.220225 0.391037 0 -0.204419 0.360236 0 -0.189747 0.330119 0 -0.176123 0.300627 0 -0.16346 0.271699 0 -0.151678 0.243274 0 -0.1407 0.215291 0 -0.130451 0.187689 0 -0.120858 0.160407 0 -0.111853 0.133384 0 -0.103369 0.106559 0 -0.0953389 0.07987 0 -0.0877 0.0532555 0 -0.0803901 0.0266531 0 -0.0733436 -6.25849e-07 0 479.277 2.47359e-06 0 413.831 -194.071 0 272.299 -273.75 0 177.226 -279.58 0 112.453 -268.748 0 65.2598 -251.556 0 30.6546 -232.828 0 4.26568 -214.111 0 -15.8727 -196.014 0 -31.3741 -178.877 0 -43.2552 -162.799 0 -52.2897 -147.829 0 -59.0517 -133.953 0 -63.9843 -121.14 0 -67.4365 -109.34 0 -69.6863 -98.4993 0 -70.9588 -88.5597 0 -71.4372 -79.4621 0 -71.2723 -71.1483 0 -70.5887 -63.5617 0 -69.4896 -56.6483 0 -68.0612 -50.3566 0 -66.3753 -44.6379 0 -64.4917 -39.4465 0 -62.4607 -34.7398 0 -60.3239 -30.4777 0 -58.1163 -26.6233 0 -55.8668 -23.1421 0 -53.5995 -20.0023 0 -51.3341 -17.1743 0 -49.0869 -14.631 0 -46.871 -12.3473 0 -44.6972 -10.3002 0 -42.5738 -8.46828 0 -40.5075 -6.83218 0 -38.5032 -5.37397 0 -36.5648 -4.07723 0 -34.6947 -2.92693 0 -32.8946 -1.90932 0 -31.1653 -1.0118 0 -29.5072 -0.222877 0 -27.9197 0.467956 0 -26.4023 1.07028 0 -24.9536 1.59284 0 -23.5723 2.0436 0 -22.2566 2.4298 0 -21.0048 2.75806 0 -19.8149 3.03435 0 -18.6847 3.26414 0 -17.6121 3.45238 0 -16.5949 3.60354 0 -15.631 3.72171 0 -14.718 3.81056 0 -13.8538 3.87344 0 -13.0363 3.91336 0 -12.2633 3.93305 0 -11.5328 3.93496 0 -10.8427 3.92133 0 -10.191 3.89414 0 -9.5759 3.85521 0 -8.99553 3.80614 0 -8.44814 3.74839 0 -7.93201 3.68327 0 -7.44552 3.61194 0 -6.98712 3.53545 0 -6.55531 3.45472 0 -6.14866 3.3706 0 -5.76581 3.28381 0 -5.40548 3.19503 0 -5.06642 3.10481 0 -4.74746 3.01369 0 -4.44748 2.92211 0 -4.16543 2.83048 0 -3.9003 2.73912 0 -3.65113 2.64836 0 -3.41702 2.55845 0 -3.19712 2.46961 0 -2.99061 2.38204 0 -2.79672 2.29591 0 -2.61473 2.21134 0 -2.44395 2.12846 0 -2.28373 2.04735 0 -2.13345 1.96809 0 -1.99254 1.89074 0 -1.86044 1.81533 0 -1.73664 1.7419 0 -1.62066 1.67046 0 -1.51202 1.60102 0 -1.41029 1.53358 0 -1.31507 1.46812 0 -1.22597 1.40463 0 -1.14261 1.34308 0 -1.06466 1.28344 0 -0.991781 1.22567 0 -0.923681 1.16975 0 -0.860063 1.11561 0 -0.800657 1.06323 0 -0.745205 1.01254 0 -0.693465 0.963511 0 -0.645208 0.916072 0 -0.60022 0.870176 0 -0.558296 0.825766 0 -0.519246 0.782786 0 -0.482889 0.741179 0 -0.449055 0.700886 0 -0.417582 0.661849 0 -0.388319 0.624009 0 -0.361123 0.587305 0 -0.335857 0.55168 0 -0.312396 0.517073 0 -0.290615 0.483424 0 -0.270403 0.450673 0 -0.251649 0.418762 0 -0.23425 0.387629 0 -0.21811 0.357214 0 -0.203135 0.327461 0 -0.189235 0.298306 0 -0.176328 0.269691 0 -0.164331 0.241557 0 -0.153168 0.213842 0 -0.142765 0.186488 0 -0.133048 0.159434 0 -0.12395 0.13262 0 -0.115403 0.105984 0 -0.107344 0.0794656 0 -0.0997065 0.0530038 0 -0.0924314 0.0265364 0 -0.0854527 3.05474e-07 0 438.842 -9.23872e-07 0 394.23 -169.39 0 273.356 -252.331 0 181.306 -266.245 0 117.482 -259.445 0 70.3029 -245.07 0 35.3898 -228.115 0 8.6959 -210.668 0 -11.7973 -193.503 0 -27.6261 -177.068 0 -39.8234 -161.536 0 -49.1513 -146.992 0 -56.1865 -133.455 0 -61.3718 -120.912 0 -65.0574 -109.328 0 -67.5225 -98.6601 0 -68.9932 -88.8582 0 -69.6539 -79.8697 0 -69.6566 -71.6415 0 -69.1268 -64.1213 0 -68.1689 -57.2582 0 -66.8699 -51.0034 0 -65.3025 -45.3106 0 -63.5275 -40.1359 0 -61.5956 -35.4381 0 -59.5495 -31.1788 0 -57.4247 -27.3219 0 -55.2507 -23.8339 0 -53.0521 -20.6838 0 -50.8493 -17.8427 0 -48.6591 -15.2841 0 -46.495 -12.9832 0 -44.3681 -10.9176 0 -42.2873 -9.06625 0 -40.2596 -7.40997 0 -38.2902 -5.93112 0 -36.3832 -4.6135 0 -34.5415 -3.44225 0 -32.7669 -2.40376 0 -31.0607 -1.48557 0 -29.4231 -0.676265 0 -27.8542 0.0345632 0 -26.3532 0.656439 0 -24.9192 1.19805 0 -23.551 1.66731 0 -22.2469 2.07146 0 -21.0054 2.41705 0 -19.8244 2.71008 0 -18.7021 2.956 0 -17.6365 3.15974 0 -16.6253 3.32579 0 -15.6665 3.45823 0 -14.758 3.56076 0 -13.8976 3.63672 0 -13.0833 3.68914 0 -12.3129 3.72076 0 -11.5845 3.73406 0 -10.8961 3.73128 0 -10.2458 3.71443 0 -9.63165 3.68533 0 -9.05196 3.64562 0 -8.50496 3.59677 0 -7.98899 3.5401 0 -7.50244 3.4768 0 -7.04379 3.40792 0 -6.61157 3.33443 0 -6.20437 3.25716 0 -5.82084 3.17687 0 -5.45972 3.09424 0 -5.11979 3.00986 0 -4.79987 2.92426 0 -4.49888 2.83791 0 -4.21575 2.75122 0 -3.94951 2.66455 0 -3.69919 2.57822 0 -3.4639 2.49249 0 -3.2428 2.40762 0 -3.03508 2.32379 0 -2.83998 2.24119 0 -2.65677 2.15997 0 -2.48478 2.08024 0 -2.32335 2.00211 0 -2.17187 1.92567 0 -2.02978 1.85097 0 -1.89652 1.77807 0 -1.77157 1.707 0 -1.65446 1.6378 0 -1.54471 1.57046 0 -1.44191 1.50501 0 -1.34563 1.44142 0 -1.25549 1.37969 0 -1.17113 1.31981 0 -1.0922 1.26173 0 -1.01838 1.20545 0 -0.949365 1.15091 0 -0.884859 1.09809 0 -0.824594 1.04695 0 -0.768313 0.997424 0 -0.715774 0.949485 0 -0.666749 0.903077 0 -0.621021 0.858151 0 -0.578389 0.814654 0 -0.53866 0.772533 0 -0.501654 0.731734 0 -0.467201 0.692202 0 -0.435138 0.653879 0 -0.405316 0.61671 0 -0.377589 0.580638 0 -0.351823 0.545605 0 -0.327889 0.511554 0 -0.305666 0.478427 0 -0.28504 0.446166 0 -0.265902 0.414714 0 -0.248149 0.384011 0 -0.231682 0.353999 0 -0.21641 0.324621 0 -0.202242 0.295818 0 -0.189096 0.267531 0 -0.176891 0.239702 0 -0.165549 0.212271 0 -0.154996 0.18518 0 -0.14516 0.158368 0 -0.135974 0.131777 0 -0.12737 0.105346 0 -0.119284 0.0790139 0 -0.111653 0.0527201 0 -0.104416 0.0264032 0 -0.0975093 4.61936e-07 0 405.34 1.2517e-06 0 374.811 -148.99 0 272.068 -232.356 0 184.485 -252.965 0 121.848 -250.107 0 74.9587 -238.44 0 39.862 -223.28 0 12.9348 -207.106 0 -7.85854 -190.885 0 -23.9826 -175.163 0 -36.4701 -160.185 0 -46.0733 -146.077 0 -53.3674 -132.886 0 -58.7946 -120.619 0 -62.7049 -109.258 0 -65.3783 -98.7677 0 -67.0416 -89.1083 0 -67.8801 -80.2334 0 -68.0467 -72.0949 0 -67.6677 -64.6446 0 -66.8486 -57.835 0 -65.677 -51.6202 0 -64.2265 -45.956 0 -62.5586 -40.8005 0 -60.7249 -36.1141 0 -58.7686 -31.8596 0 -56.7259 -28.0021 0 -54.6269 -24.5091 0 -52.4968 -21.3503 0 -50.3564 -18.4976 0 -48.223 -15.9249 0 -46.1105 -13.6082 0 -44.0306 -11.5253 0 -41.9925 -9.65549 0 -40.0033 -7.97998 0 -38.0689 -6.48136 0 -36.1936 -5.14365 0 -34.3804 -3.95218 0 -32.6317 -2.89347 0 -30.9486 -1.95519 0 -29.3319 -1.12606 0 -27.7816 -0.395728 0 -26.2973 0.245248 0 -24.8783 0.805501 0 -23.5234 1.29291 0 -22.2312 1.71466 0 -21.0001 2.0773 0 -19.8284 2.38681 0 -18.7143 2.6486 0 -17.6557 2.86763 0 -16.6508 3.04838 0 -15.6974 3.19492 0 -14.7936 3.31097 0 -13.9371 3.39988 0 -13.1262 3.46468 0 -12.3586 3.50813 0 -11.6326 3.53273 0 -10.9461 3.54071 0 -10.2972 3.53413 0 -9.68425 3.51481 0 -9.10538 3.48441 0 -8.55893 3.44441 0 -8.04326 3.39616 0 -7.5568 3.34085 0 -7.09804 3.27957 0 -6.66553 3.21329 0 -6.25789 3.14286 0 -5.87381 3.06906 0 -5.51201 2.99258 0 -5.1713 2.91403 0 -4.85053 2.83396 0 -4.54861 2.75284 0 -4.26451 2.67111 0 -3.99723 2.58913 0 -3.74584 2.50723 0 -3.50946 2.42571 0 -3.28723 2.3448 0 -3.07838 2.26474 0 -2.88212 2.18569 0 -2.69776 2.10782 0 -2.52461 2.03126 0 -2.36203 1.95613 0 -2.20941 1.88252 0 -2.06618 1.81049 0 -1.9318 1.74012 0 -1.80576 1.67144 0 -1.68756 1.60448 0 -1.57675 1.53927 0 -1.4729 1.47582 0 -1.3756 1.41412 0 -1.28447 1.35418 0 -1.19914 1.29598 0 -1.11926 1.23949 0 -1.04452 1.1847 0 -0.974616 1.13158 0 -0.909248 1.08008 0 -0.848149 1.03019 0 -0.791061 0.981849 0 -0.737745 0.935021 0 -0.687971 0.889662 0 -0.641524 0.845722 0 -0.598201 0.803155 0 -0.55781 0.761909 0 -0.520171 0.721934 0 -0.485113 0.683176 0 -0.452475 0.645584 0 -0.422106 0.609102 0 -0.393861 0.573675 0 -0.367606 0.53925 0 -0.343211 0.50577 0 -0.320556 0.47318 0 -0.299525 0.441423 0 -0.280012 0.410444 0 -0.261912 0.380186 0 -0.245127 0.350592 0 -0.229565 0.321604 0 -0.215137 0.293166 0 -0.201759 0.265222 0 -0.18935 0.237712 0 -0.177835 0.210578 0 -0.167137 0.183764 0 -0.157187 0.15721 0 -0.147917 0.130857 0 -0.13926 0.104645 0 -0.131152 0.0785146 0 -0.123531 0.0524047 0 -0.116337 0.0262538 0 -0.109506 -9.98378e-07 0 377.032 -6.55651e-07 0 356.133 -131.998 0 268.943 -213.952 0 186.728 -239.887 0 125.589 -240.78 0 79.2109 -231.706 0 44.0678 -218.339 0 16.9771 -203.436 0 -4.0611 -188.167 0 -20.4469 -173.167 0 -33.1984 -158.752 0 -43.0583 -145.086 0 -50.5968 -132.249 0 -56.2545 -120.264 0 -60.3806 -109.13 0 -63.2552 -98.8232 0 -65.1053 -89.311 0 -66.117 -80.5537 0 -66.4436 -72.5087 0 -66.2124 -65.1318 0 -65.5294 -58.379 0 -64.4832 -52.2071 0 -63.1479 -46.5742 0 -61.5858 -41.4404 0 -59.8492 -36.7676 0 -57.9819 -32.52 0 -56.0206 -28.6638 0 -53.996 -25.1675 0 -51.934 -22.0017 0 -49.8557 -19.1388 0 -47.7788 -16.5536 0 -45.718 -14.2222 0 -43.685 -12.1231 0 -41.6895 -10.2359 0 -39.739 -8.5421 0 -37.8397 -7.02458 0 -35.9961 -5.66757 0 -34.2117 -4.45659 0 -32.4889 -3.37832 0 -30.8292 -2.42056 0 -29.2335 -1.57214 0 -27.7021 -0.822799 0 -26.2348 -0.16317 0 -24.831 0.415319 0 -23.4896 0.9205 0 -22.2094 1.35952 0 -20.9891 1.73891 0 -19.8269 2.06462 0 -18.7211 2.34205 0 -17.67 2.57615 0 -16.6715 2.7714 0 -15.7237 2.93187 0 -14.8247 3.06128 0 -13.9725 3.163 0 -13.1651 3.24006 0 -12.4005 3.29523 0 -11.677 3.33102 0 -10.9925 3.3497 0 -10.3454 3.35331 0 -9.73369 3.34371 0 -9.15581 3.32256 0 -8.61006 3.29137 0 -8.09483 3.2515 0 -7.60859 3.20415 0 -7.14984 3.15045 0 -6.71718 3.09135 0 -6.30923 3.02775 0 -5.92469 2.96043 0 -5.56233 2.89009 0 -5.22095 2.81737 0 -4.89942 2.74282 0 -4.59667 2.66694 0 -4.31167 2.59017 0 -4.04345 2.51288 0 -3.79107 2.43543 0 -3.55367 2.35812 0 -3.33039 2.2812 0 -3.12047 2.2049 0 -2.92313 2.12941 0 -2.73768 2.05492 0 -2.56343 1.98155 0 -2.39976 1.90943 0 -2.24605 1.83866 0 -2.10174 1.76933 0 -1.96629 1.7015 0 -1.83918 1.63522 0 -1.71994 1.57053 0 -1.60811 1.50746 0 -1.50325 1.44603 0 -1.40497 1.38624 0 -1.31288 1.3281 0 -1.22661 1.2716 0 -1.14582 1.21671 0 -1.07019 1.16344 0 -0.999422 1.11174 0 -0.933217 1.0616 0 -0.871308 1.01297 0 -0.813438 0.965826 0 -0.759366 0.920127 0 -0.708865 0.875831 0 -0.661717 0.832895 0 -0.617721 0.791273 0 -0.576686 0.750918 0 -0.53843 0.711782 0 -0.502782 0.673816 0 -0.469584 0.636968 0 -0.438681 0.601187 0 -0.409931 0.566422 0 -0.383198 0.532619 0 -0.358353 0.499724 0 -0.335276 0.467685 0 -0.313852 0.436447 0 -0.293972 0.405955 0 -0.275533 0.376156 0 -0.258438 0.346992 0 -0.242594 0.31841 0 -0.227911 0.290353 0 -0.214307 0.262764 0 -0.201702 0.235587 0 -0.190018 0.208766 0 -0.179182 0.182243 0 -0.169123 0.15596 0 -0.159773 0.12986 0 -0.151067 0.103882 0 -0.142942 0.077968 0 -0.135335 0.0520569 0 -0.128186 0.026088 0 -0.121435 2.98023e-07 0 352.701 8.04663e-07 0 338.464 -117.737 0 264.436 -197.132 0 188.048 -227.141 0 128.734 -231.51 0 83.0551 -224.91 0 48.0028 -213.308 0 20.8194 -199.674 0 -0.409331 -185.358 0 -17.022 -171.085 0 -30.0113 -157.239 0 -40.1086 -144.023 0 -47.8767 -131.544 0 -53.7534 -119.848 0 -58.0863 -108.947 0 -61.1548 -98.8277 0 -63.1858 -89.467 0 -64.3658 -80.8314 0 -64.8486 -72.8836 0 -64.7619 -65.5835 0 -64.2124 -58.8906 0 -63.2894 -52.7644 0 -62.0675 -47.1655 0 -60.6098 -42.0558 0 -58.9691 -37.3988 0 -57.1898 -33.1601 0 -55.3091 -29.3072 0 -53.3585 -25.8093 0 -51.364 -22.638 0 -49.3475 -19.7665 0 -47.327 -17.1699 0 -45.3176 -14.8251 0 -43.3315 -12.7109 0 -41.3786 -10.8073 0 -39.4669 -9.09622 0 -37.6027 -7.56066 0 -35.791 -6.18514 0 -34.0355 -4.95536 0 -32.3387 -3.85819 0 -30.7026 -2.88155 0 -29.1282 -2.01439 0 -27.6159 -1.24653 0 -26.1658 -0.568705 0 -24.7773 0.027612 0 -23.4497 0.550196 0 -22.1818 1.00616 0 -20.9724 1.40199 0 -19.8199 1.74362 0 -18.7228 2.03644 0 -17.6792 2.28539 0 -16.6873 2.49494 0 -15.7454 2.66917 0 -14.8514 2.81178 0 -14.0036 2.92616 0 -13.1999 3.01535 0 -12.4386 3.08214 0 -11.7177 3.12903 0 -11.0355 3.15831 0 -10.3902 3.17204 0 -9.77998 3.17209 0 -9.20324 3.16014 0 -8.65834 3.13771 0 -8.14369 3.10617 0 -7.6578 3.06676 0 -7.1992 3.02059 0 -6.7665 2.96866 0 -6.35835 2.91187 0 -5.97348 2.85101 0 -5.61066 2.78681 0 -5.26872 2.71991 0 -4.94653 2.65089 0 -4.64305 2.58024 0 -4.35724 2.50843 0 -4.08816 2.43584 0 -3.83487 2.36285 0 -3.59652 2.28975 0 -3.37227 2.21682 0 -3.16134 2.1443 0 -2.96299 2.0724 0 -2.77651 2.00128 0 -2.60123 1.93112 0 -2.43651 1.86203 0 -2.28177 1.79412 0 -2.13643 1.72749 0 -1.99995 1.66222 0 -1.87183 1.59836 0 -1.75159 1.53596 0 -1.63878 1.47504 0 -1.53296 1.41565 0 -1.43373 1.35779 0 -1.34071 1.30147 0 -1.25353 1.24668 0 -1.17187 1.19342 0 -1.09538 1.14167 0 -1.02377 1.09142 0 -0.956758 1.04263 0 -0.894064 0.995294 0 -0.835434 0.949365 0 -0.780629 0.904811 0 -0.72942 0.861594 0 -0.681591 0.819677 0 -0.636941 0.779015 0 -0.595278 0.739567 0 -0.556422 0.701285 0 -0.520201 0.664124 0 -0.486456 0.628036 0 -0.455033 0.