<?xml version="1.0"?> 
<VTKFile type="StructuredGrid" version="0.1"> 
<StructuredGrid WholeExtent="0 3 0 3 0 0"> 
<Piece Extent="0 3 0 3 0 0"> 
<PointData>
<DataArray type="Float32" Name="|E|" format="ascii" NumberOfComponents="3"> 
216.975 462.228 0 -7.13627 -12.8476 0 -12.7231 6.47063 0 -14.6307 1.84774e-06 0 -900.484 991.1 0 -25.0064 73.1156 0 -3.43854 0.121459 0 -3.56624 2.90573e-07 0 -654.066 -805.67 0 -28.8297 -22.4214 0 1.56271 2.61071 0 3.76199 -3.50177e-07 0 165.105 -643.557 0 -22.5487 -39.1388 0 -6.67689 2.66255 0 -6.40678 -3.57628e-07 0 </DataArray> 
</PointData> 
<Points> 
<DataArray type="Float32" NumberOfComponents="3"> 
0.125 0.021 0 0.145 0.0223333 0 0.165 0.0236667 0 0.185 0.025 0 0.126667 0.0256667 0 0.146111 0.026 0 0.165556 0.0263333 0 0.185 0.0266667 0 0.128333 0.0303333 0 0.147222 0.0296667 0 0.166111 0.029 0 0.185 0.0283333 0 0.13 0.035 0 0.148333 0.0333333 0 0.166667 0.0316667 0 0.185 0.03 0 
</DataArray>
</Points> 
</Piece> 
</StructuredGrid> 
</VTKFile> 
