<?xml version="1.0"?> 
<VTKFile type="StructuredGrid" version="0.1"> 
<StructuredGrid WholeExtent="0 3 0 3 0 0"> 
<Piece Extent="0 3 0 3 0 0"> 
<PointData>
<DataArray type="Float32" Name="|E|" format="ascii" NumberOfComponents="3"> 
-2.03202e+06 0 0 -2.03439e+06 47995.7 0 -2.07037e+06 -155069 0 -2.12577e+06 13334.9 0 -1.96754e+06 0 0 -2.02577e+06 190198 0 -2.13809e+06 351702 0 -2.49367e+06 507197 0 -1.91009e+06 0 0 -2.00766e+06 338977 0 -2.42182e+06 840377 0 -2.28335e+06 1.74197e+06 0 -1.87354e+06 0 0 -2.06067e+06 554921 0 -2.28152e+06 1.62477e+06 0 -1.34491e+06 -104736 0 </DataArray> 
</PointData> 
<Points> 
<DataArray type="Float32" NumberOfComponents="3"> 
0 0.021 0 0.00533333 0.021 0 0.0106667 0.021 0 0.016 0.021 0 0 0.0256667 0 0.0146667 0.0256667 0 0.0293333 0.0256667 0 0.044 0.0256667 0 0 0.0303333 0 0.024 0.0303333 0 0.048 0.0303333 0 0.072 0.0303333 0 0 0.035 0 0.0333333 0.035 0 0.0666667 0.035 0 0.1 0.035 0 
</DataArray>
</Points> 
</Piece> 
</StructuredGrid> 
</VTKFile> 
