<?xml version="1.0"?> 
<VTKFile type="StructuredGrid" version="0.1"> 
<StructuredGrid WholeExtent="0 3 0 3 0 0"> 
<Piece Extent="0 3 0 3 0 0"> 
<PointData>
<DataArray type="Float32" Name="|E|" format="ascii" NumberOfComponents="3"> 
-1.87354e+06 0 0 -2.06067e+06 561310 0 -2.28152e+06 1.57481e+06 0 -1.34491e+06 5.96046e-08 0 -1.81082e+06 0 0 -1.98816e+06 604831 0 -2.2011e+06 1.53369e+06 0 -1.92586e+06 -3.1665e-08 0 -1.74484e+06 0 0 -1.91097e+06 642063 0 -2.13345e+06 1.49728e+06 0 -2.51534e+06 1.11759e-08 0 -1.66941e+06 0 0 -1.82635e+06 673622 0 -2.07429e+06 1.45717e+06 0 -3.18863e+06 2.68221e-07 0 </DataArray> 
</PointData> 
<Points> 
<DataArray type="Float32" NumberOfComponents="3"> 
0 0.035 0 0.0333333 0.035 0 0.0666667 0.035 0 0.1 0.035 0 0 0.0383333 0 0.0333333 0.0383333 0 0.0666667 0.0383333 0 0.1 0.0383333 0 0 0.0416667 0 0.0333333 0.0416667 0 0.0666667 0.0416667 0 0.1 0.0416667 0 0 0.045 0 0.0333333 0.045 0 0.0666667 0.045 0 0.1 0.045 0 
</DataArray>
</Points> 
</Piece> 
</StructuredGrid> 
</VTKFile> 
