<?xml version="1.0"?> 
<VTKFile type="StructuredGrid" version="0.1"> 
<StructuredGrid WholeExtent="0 3 0 3 0 0"> 
<Piece Extent="0 3 0 3 0 0"> 
<PointData>
<DataArray type="Float32" Name="|E|" format="ascii" NumberOfComponents="3"> 
3.32094e+06 -1.37558e+06 0 1.25134e+06 541247 0 649982 241739 0 487800 0 0 4.09237e+06 -325859 0 1.12109e+06 719786 0 514432 330900 0 355410 0 0 4.45534e+06 1.09887e+06 0 984577 927015 0 357924 407802 0 182128 0 0 4.32606e+06 2.68251e+06 0 844067 1.15659e+06 0 195309 479480 0 -8959.31 0 0 </DataArray> 
</PointData> 
<Points> 
<DataArray type="Float32" NumberOfComponents="3"> 
0.2018 0.0378 0 0.258867 0.0378 0 0.315933 0.0378 0 0.373 0.0378 0 0.202976 0.0426901 0 0.261564 0.0495278 0 0.318207 0.0561385 0 0.373 0.0625333 0 0.202558 0.0478306 0 0.26129 0.0614196 0 0.318072 0.0745576 0 0.373 0.0872667 0 0.200607 0.0524662 0 0.258071 0.0723108 0 0.315536 0.0921554 0 0.373 0.112 0 
</DataArray>
</Points> 
</Piece> 
</StructuredGrid> 
</VTKFile> 
