<?xml version="1.0"?> 
<VTKFile type="StructuredGrid" version="0.1"> 
<StructuredGrid WholeExtent="0 3 0 3 0 0"> 
<Piece Extent="0 3 0 3 0 0"> 
<PointData>
<DataArray type="Float32" Name="|E|" format="ascii" NumberOfComponents="3"> 
-2.1314e+06 47109 0 -2.35556e+06 574765 0 -2.83787e+06 1.70378e+06 0 -5.51469e+06 1.73768e+07 0 -2.47278e+06 381826 0 -2.7307e+06 771260 0 -2.63692e+06 3.00571e+06 0 -279137 654960 0 -2.20778e+06 1.2885e+06 0 -1.85211e+06 2.09668e+06 0 -1.035e+06 1.08123e+06 0 -626871 302573 0 -1.19209e-07 -8.17422e+06 0 -3.25963e-08 -2.55549e+06 0 3.72529e-09 341854 0 -2.08616e-07 194429 0 </DataArray> 
</PointData> 
<Points> 
<DataArray type="Float32" NumberOfComponents="3"> 
0.016 0.021 0 0.0356667 0.021 0 0.0553333 0.021 0 0.075 0.021 0 0.044 0.0256667 0 0.0582222 0.0256667 0 0.0724444 0.0256667 0 0.0866667 0.0256667 0 0.072 0.0303333 0 0.0807778 0.0303333 0 0.0895556 0.0303333 0 0.0983333 0.0303333 0 0.1 0.035 0 0.103333 0.035 0 0.106667 0.035 0 0.11 0.035 0 
</DataArray>
</Points> 
</Piece> 
</StructuredGrid> 
</VTKFile> 
