<?xml version="1.0"?> 
<VTKFile type="StructuredGrid" version="0.1"> 
<StructuredGrid WholeExtent="0 15 0 15 0 0"> 
<Piece Extent="0 15 0 15 0 0"> 
<PointData>
<DataArray type="Float32" Name="|E|" format="ascii" NumberOfComponents="3"> 
0 5.27033e+06 0 -2.21189e-09 952957 0 -9.59262e-08 -4995.85 0 2.28174e-07 4281.43 0 -3.5204e-07 106977 0 4.41447e-07 103528 0 -3.72529e-07 33572.3 0 3.91155e-07 -22848.3 0 -2.5332e-07 -25438.6 0 8.9407e-08 1919.01 0 8.9407e-08 12117.6 0 -4.47035e-08 66.2436 0 1.49012e-08 -5876.51 0 -1.49012e-08 1079.27 0 0 3487.93 0 -4.76837e-07 -0.00109863 0 -2.02656e+06 830949 0 -1.96119e+06 694340 0 -1.38083e+06 739768 0 -796213 616903 0 -378480 375028 0 -140163 150894 0 -37146 20604.5 0 -10388.5 -19312.5 0 -7864.11 -12356.9 0 -2948.46 1906.36 0 2148.53 4228 0 1397.15 -589.727 0 -811.353 -2052.31 0 -304.004 766.082 0 419.798 2099.2 0 281.654 6383.49 0 -2.46614e+06 694311 0 -2.29057e+06 779129 0 -2.27248e+06 535437 0 -2.02563e+06 433216 0 -1.55738e+06 390062 0 -1.00924e+06 294305 0 -526297 149731 0 -201352 25234.2 0 -48817.5 -31487.6 0 -9972.6 -28358.9 0 -5338.1 -4268.51 0 243.373 6753.52 0 2117.06 1335.82 0 -612.074 -4514.09 0 -3839.15 -22511.8 0 -598.686 -6788.07 0 -2.44073e+06 1.30957e+06 0 -2.52716e+06 1.04547e+06 0 -2.48122e+06 937701 0 -2.47761e+06 689949 0 -2.39196e+06 447919 0 -2.10435e+06 281970 0 -1.60679e+06 156779 0 -1.00708e+06 39543.9 0 -474807 -48620.3 0 -144034 -74632.2 0 -22360 -48109 0 -4760.24 -11705.9 0 -890.758 6380.96 0 2265.71 3860.95 0 2421.59 10642.8 0 -10.0735 -75.375 0 -2.4906e+06 1.47065e+06 0 -2.5153e+06 1.40643e+06 0 -2.5785e+06 1.25483e+06 0 -2.58809e+06 1.13092e+06 0 -2.60363e+06 915889 0 -2.59795e+06 631432 0 -2.45875e+06 355079 0 -2.08125e+06 121119 0 -1.47076e+06 -63143.5 0 -789171 -164202 0 -273466 -150060 0 -42204.7 -65399.7 0 -1695.04 -9376.31 0 -1732.05 2377.45 0 1573.25 994.912 0 4460.9 24605.7 0 -2.39104e+06 1.73655e+06 0 -2.45052e+06 1.65049e+06 0 -2.50698e+06 1.55259e+06 0 -2.58033e+06 1.41965e+06 0 -2.6273e+06 1.29306e+06 0 -2.66452e+06 1.1102e+06 0 -2.6991e+06 840630 0 -2.65921e+06 518971 0 -2.40524e+06 186344 0 -1.84166e+06 -115391 0 -1.06879e+06 -289154 0 -390547 -240611 0 -48408.9 -50855 0 13077.9 37165.4 0 -11952.9 -36024.3 0 -6211.08 -26751.6 0 -2.32147e+06 1.84684e+06 0 -2.37186e+06 1.80113e+06 0 -2.42441e+06 1.74888e+06 0 -2.48426e+06 1.6669e+06 0 -2.56153e+06 1.54926e+06 0 -2.63151e+06 1.42071e+06 0 -2.68909e+06 1.25128e+06 0 -2.74463e+06 1.00405e+06 0 -2.76003e+06 680827 0 -2.59692e+06 288044 0 -2.08506e+06 -141215 0 -1.24957e+06 -422426 0 -443053 -326644 0 -15280.2 30030 0 62601.2 192830 0 -42523.9 -147850 0 -2.2324e+06 1.94309e+06 0 -2.2807e+06 1.91242e+06 0 -2.33831e+06 1.86491e+06 0 -2.39678e+06 1.81705e+06 0 -2.46055e+06 1.7472e+06 0 -2.53984e+06 1.64456e+06 0 -2.62402e+06 1.51839e+06 0 -2.7005e+06 1.34877e+06 0 -2.77088e+06 1.10831e+06 0 -2.813e+06 791874 0 -2.69672e+06 359155 0 -2.19478e+06 -194541 0 -1.27852e+06 -559498 0 -385049 -352134 0 42874.2 136122 0 -73740.6 -211044 0 -2.1548e+06 1.98999e+06 0 -2.20012e+06 1.97421e+06 0 -2.24896e+06 1.95245e+06 0 -2.30813e+06 1.91264e+06 0 -2.37243e+06 1.86627e+06 0 -2.44218e+06 1.80107e+06 0 -2.525e+06 1.70777e+06 0 -2.61938e+06 1.58552e+06 0 -2.71325e+06 1.40931e+06 0 -2.79803e+06 1.15891e+06 0 -2.8528e+06 835263 0 -2.73894e+06 343683 0 -2.16012e+06 -327977 0 -1.11023e+06 -665573 0 -199501 -225793 0 -96930.7 -230749 0 -2.08013e+06 2.01378e+06 0 -2.12329e+06 2.00964e+06 0 -2.1718e+06 1.99781e+06 0 -2.22425e+06 1.97975e+06 0 -2.28589e+06 1.94648e+06 0 -2.3559e+06 1.90179e+06 0 -2.43335e+06 1.83665e+06 0 -2.52285e+06 1.7451e+06 0 -2.62771e+06 1.62206e+06 0 -2.73842e+06 1.43148e+06 0 -2.83771e+06 1.1574e+06 0 -2.89809e+06 797912 0 -2.72284e+06 192477 0 -1.93507e+06 -568152 0 -712605 -632712 0 -119403 -237246 0 -2.01063e+06 2.01761e+06 0 -2.0526e+06 2.02312e+06 0 -2.09885e+06 2.02291e+06 0 -2.15094e+06 2.01483e+06 0 -2.20827e+06 1.99871e+06 0 -2.27439e+06 1.96908e+06 0 -2.35111e+06 1.9252e+06 0 -2.43797e+06 1.85743e+06 0 -2.53787e+06 1.76158e+06 0 -2.65686e+06 1.62894e+06 0 -2.78534e+06 1.40964e+06 0 -2.90043e+06 1.0957e+06 0 -2.95e+06 647206 0 -2.58077e+06 -150614 0 -1.42297e+06 -838303 0 -163970 -271133 0 -1.94532e+06 2.00636e+06 0 -1.98687e+06 2.02079e+06 0 -2.03233e+06 2.03016e+06 0 -2.08262e+06 2.03322e+06 0 -2.13938e+06 2.02794e+06 0 -2.20286e+06 2.01261e+06 0 -2.27591e+06 1.98347e+06 0 -2.36168e+06 1.93757e+06 0 -2.46057e+06 1.86332e+06 0 -2.5755e+06 1.75794e+06 0 -2.7149e+06 1.60207e+06 0 -2.8624e+06 1.33368e+06 0 -3.00012e+06 948434 0 -2.95572e+06 306823 0 -2.15183e+06 -732027 0 -378040 -515184 0 -1.88332e+06 1.98399e+06 0 -1.92517e+06 2.00668e+06 0 -1.97073e+06 2.02476e+06 0 -2.02066e+06 2.03724e+06 0 -2.07619e+06 2.04255e+06 0 -2.13911e+06 2.03871e+06 0 -2.21041e+06 2.02277e+06 0 -2.29321e+06 1.99139e+06 0 -2.39169e+06 1.93904e+06 0 -2.50647e+06 1.85301e+06 0 -2.64448e+06 1.72976e+06 0 -2.80964e+06 1.52905e+06 0 -2.98768e+06 1.17962e+06 0 -3.12537e+06 650746 0 -2.75262e+06 -410885 0 -897680 -989875 0 -1.82408e+06 1.95287e+06 0 -1.86693e+06 1.98359e+06 0 -1.91309e+06 2.01014e+06 0 -1.9635e+06 2.03141e+06 0 -2.01905e+06 2.04613e+06 0 -2.08135e+06 2.05242e+06 0 -2.15243e+06 2.04803e+06 0 -2.23402e+06 2.02929e+06 0 -2.33056e+06 1.99216e+06 0 -2.44632e+06 1.92763e+06 0 -2.58452e+06 1.82247e+06 0 -2.75584e+06 1.66608e+06 0 -2.95686e+06 1.38087e+06 0 -3.18454e+06 899809 0 -3.17057e+06 -36190.7 0 -1.72626e+06 -1.49316e+06 0 -1.76705e+06 1.91493e+06 0 -1.81148e+06 1.9538e+06 0 -1.85897e+06 1.98863e+06 0 -1.91035e+06 2.01843e+06 0 -1.96672e+06 2.04199e+06 0 -2.02934e+06 2.05771e+06 0 -2.10043e+06 2.06326e+06 0 -2.18233e+06 2.05581e+06 0 -2.2781e+06 2.03102e+06 0 -2.39387e+06 1.98294e+06 0 -2.53386e+06 1.89822e+06 0 -2.70913e+06 1.76304e+06 0 -2.925e+06 1.53826e+06 0 -3.19709e+06 1.10874e+06 0 -3.42614e+06 293124 0 -2.7008e+06 -1.73791e+06 0 -1.71177e+06 1.87168e+06 0 -1.75839e+06 1.9189e+06 0 -1.8078e+06 1.9621e+06 0 -1.86078e+06 2.00036e+06 0 -1.91847e+06 2.03244e+06 0 -1.98229e+06 2.05687e+06 0 -2.05404e+06 2.0717e+06 0 -2.1367e+06 2.07412e+06 0 -2.23323e+06 2.06027e+06 0 -2.34937e+06 2.02483e+06 0 -2.49169e+06 1.95773e+06 0 -2.67043e+06 1.8419e+06 0 -2.89932e+06 1.65169e+06 0 -3.19795e+06 1.28822e+06 0 -3.57397e+06 561226 0 -3.55916e+06 -1.54328e+06 0 </DataArray> 
</PointData> 
<Points> 
<DataArray type="Float32" NumberOfComponents="3"> 
0.1 0.045 0 0.100867 0.045 0 0.101733 0.045 0 0.1026 0.045 0 0.103467 0.045 0 0.104333 0.045 0 0.1052 0.045 0 0.106067 0.045 0 0.106933 0.045 0 0.1078 0.045 0 0.108667 0.045 0 0.109533 0.045 0 0.1104 0.045 0 0.111267 0.045 0 0.112133 0.045 0 0.113 0.045 0 0.0978533 0.0461667 0 0.0987608 0.0460931 0 0.0996726 0.0460191 0 0.100589 0.0459448 0 0.10151 0.0458701 0 0.102435 0.0457951 0 0.103365 0.0457197 0 0.104299 0.0456439 0 0.105239 0.0455677 0 0.106182 0.0454912 0 0.107131 0.0454143 0 0.108084 0.0453369 0 0.109042 0.0452593 0 0.110005 0.0451812 0 0.110973 0.0451027 0 0.111945 0.0450238 0 0.0957067 0.0473333 0 0.0966517 0.0471937 0 0.0976053 0.0470528 0 0.0985676 0.0469106 0 0.0995387 0.0467671 0 0.100519 0.0466223 0 0.101508 0.0464761 0 0.102507 0.0463286 0 0.103514 0.0461796 0 0.104532 0.0460293 0 0.105559 0.0458776 0 0.106595 0.0457244 0 0.107642 0.0455698 0 0.108698 0.0454136 0 0.109765 0.045256 0 0.110842 0.0450969 0 0.09356 0.0485 0 0.0945416 0.0483008 0 0.0955355 0.048099 0 0.0965422 0.0478947 0 0.0975617 0.0476877 0 0.0985944 0.0474781 0 0.0996405 0.0472658 0 0.1007 0.0470507 0 0.101774 0.0468327 0 0.102862 0.0466119 0 0.103964 0.0463881 0 0.105082 0.0461613 0 0.106214 0.0459315 0 0.107362 0.0456985 0 0.108525 0.0454624 0 0.109705 0.045223 0 0.0914133 0.0496667 0 0.0924327 0.0494131 0 0.0934678 0.0491557 0 0.0945192 0.0488942 0 0.0955871 0.0486286 0 0.0966719 0.0483588 0 0.0977742 0.0480846 0 0.0988942 0.0478061 0 0.100032 0.047523 0 0.101189 0.0472352 0 0.102365 0.0469427 0 0.103561 0.0466454 0 0.104777 0.046343 0 0.106013 0.0460355 0 0.107271 0.0457227 0 0.10855 0.0454046 0 0.0892667 0.0508333 0 0.0903272 0.0505297 0 0.0914065 0.0502207 0 0.0925051 0.0499062 0 0.0936233 0.049586 0 0.0947619 0.04926 0 0.0959213 0.0489281 0 0.0971022 0.04859 0 0.0983051 0.0482456 0 0.0995306 0.0478947 0 0.100779 0.0475372 0 0.102052 0.0471728 0 0.10335 0.0468013 0 0.104672 0.0464226 0 0.106021 0.0460364 0 0.107397 0.0456424 0 0.08712 0.052 0 0.0882274 0.0516492 0 0.089356 0.0512918 0 0.0905064 0.0509274 0 0.0916792 0.050556 0 0.092875 0.0501772 0 0.0940946 0.0497909 0 0.0953387 0.0493969 0 0.0966079 0.0489949 0 0.0979032 0.0485847 0 0.0992252 0.0481659 0 0.100575 0.0477384 0 0.101953 0.0473019 0 0.103361 0.0468561 0 0.104799 0.0464007 0 0.106268 0.0459353 0 0.0849733 0.0531667 0 0.0861355 0.0527706 0 0.0873208 0.0523667 0 0.0885297 0.0519548 0 0.0897632 0.0515345 0 0.0910218 0.0511056 0 0.0923064 0.0506678 0 0.0936178 0.0502209 0 0.0949568 0.0497646 0 0.0963244 0.0492986 0 0.0977214 0.0488225 0 0.0991488 0.0483361 0 0.100608 0.047839 0 0.102099 0.0473308 0 0.103624 0.0468112 0 0.105183 0.0462798 0 0.0828267 0.0543333 0 0.0840537 0.0538927 0 0.0853051 0.0534433 0 0.0865815 0.0529849 0 0.0878837 0.0525172 0 0.0892126 0.05204 0 0.0905688 0.0515529 0 0.0919534 0.0510557 0 0.0933672 0.050548 0 0.094811 0.0500295 0 0.096286 0.0494998 0 0.0977931 0.0489586 0 0.0993333 0.0484054 0 0.100908 0.04784 0 0.102518 0.0472618 0 0.104164 0.0466705 0 0.08068 0.0555 0 0.0819842 0.0550142 0 0.0833132 0.0545191 0 0.0846679 0.0540145 0 0.086049 0.0535 0 0.0874573 0.0529755 0 0.0888935 0.0524405 0 0.0903585 0.0518948 0 0.0918532 0.051338 0 0.0933785 0.0507698 0 0.0949354 0.0501899 0 0.0965248 0.0495978 0 0.0981478 0.0489933 0 0.0998054 0.0483758 0 0.101499 0.047745 0 0.103229 0.0471005 0 0.0785333 0.0566667 0 0.079929 0.056134 0 0.0813494 0.055592 0 0.0827951 0.0550403 0 0.0842667 0.0544787 0 0.0857651 0.0539069 0 0.0872909 0.0533246 0 0.0888449 0.0527315 0 0.0904279 0.0521274 0 0.0920406 0.0515119 0 0.0936841 0.0508848 0 0.0953591 0.0502456 0 0.0970665 0.049594 0 0.0988073 0.0489296 0 0.100583 0.0482522 0 0.102393 0.0475612 0 0.0763867 0.0578333 0 0.0778905 0.057251 0 0.0794176 0.0566596 0 0.0809686 0.056059 0 0.0825441 0.0554489 0 0.0841446 0.0548291 0 0.0857707 0.0541994 0 0.087423 0.0535596 0 0.0891022 0.0529093 0 0.0908089 0.0522484 0 0.0925439 0.0515766 0 0.0943078 0.0508935 0 0.0961014 0.0501989 0 0.0979254 0.0494926 0 0.0997805 0.0487742 0 0.101668 0.0480434 0 0.07424 0.059 0 0.0758706 0.0583639 0 0.0775218 0.0577198 0 0.079194 0.0570674 0 0.0808877 0.0564068 0 0.0826032 0.0557375 0 0.084341 0.0550596 0 0.0861015 0.0543729 0 0.0878852 0.0536771 0 0.0896925 0.052972 0 0.0915238 0.0522576 0 0.0933798 0.0515336 0 0.0952608 0.0507998 0 0.0971674 0.0500561 0 0.0991001 0.0493021 0 0.10106 0.0485378 0 0.0720933 0.0601667 0 0.0738714 0.0594717 0 0.0756656 0.0587703 0 0.0774762 0.0580626 0 0.0793035 0.0573483 0 0.0811476 0.0566275 0 0.0830089 0.0558999 0 0.0848874 0.0551656 0 0.0867836 0.0544244 0 0.0886977 0.0536763 0 0.0906298 0.052921 0 0.0925802 0.0521586 0 0.0945493 0.0513889 0 0.0965373 0.0506119 0 0.0985444 0.0498273 0 0.100571 0.0490352 0 0.0699467 0.0613333 0 0.0718948 0.0605731 0 0.0738524 0.0598092 0 0.0758196 0.0590415 0 0.0777965 0.05827 0 0.0797831 0.0574948 0 0.0817795 0.0567157 0 0.0837858 0.0559328 0 0.085802 0.055146 0 0.0878282 0.0543553 0 0.0898645 0.0535606 0 0.091911 0.052762 0 0.0939677 0.0519594 0 0.0960348 0.0511528 0 0.0981122 0.0503421 0 0.1002 0.0495273 0 0.0678 0.0625 0 0.0699428 0.0616671 0 0.0720856 0.0608343 0 0.0742284 0.0600014 0 0.0763712 0.0591685 0 0.078514 0.0583356 0 0.0806568 0.0575028 0 0.0827996 0.0566699 0 0.0849424 0.055837 0 0.0870852 0.0550041 0 0.089228 0.0541713 0 0.0913708 0.0533384 0 0.0935136 0.0525055 0 0.0956564 0.0516727 0 0.0977992 0.0508398 0 0.099942 0.0500069 0 
</DataArray>
</Points> 
</Piece> 
</StructuredGrid> 
</VTKFile> 
