<?xml version="1.0"?> 
<VTKFile type="StructuredGrid" version="0.1"> 
<StructuredGrid WholeExtent="0 15 0 15 0 0"> 
<Piece Extent="0 15 0 15 0 0"> 
<PointData>
<DataArray type="Float32" Name="|E|" format="ascii" NumberOfComponents="3"> 
-1.78814e-07 5.54856e+06 0 2.06637e-09 3.84488e+06 0 5.12227e-08 2.89376e+06 0 -4.56348e-08 2.25627e+06 0 3.49246e-08 1.7364e+06 0 -7.45058e-09 1.28283e+06 0 3.25963e-08 888032 0 -5.58794e-08 565508 0 5.40167e-08 329342 0 -5.40167e-08 177259 0 9.68575e-08 90127.3 0 -1.22935e-07 44257.4 0 1.08033e-07 21357 0 -8.56817e-08 10183.6 0 3.72529e-08 4918.7 0 0 3253.89 0 -414802 4.22471e+06 0 -240464 3.15382e+06 0 -171012 2.47378e+06 0 -143229 1.94243e+06 0 -126369 1.48232e+06 0 -110822 1.07502e+06 0 -91466.1 726396 0 -68097.3 451918 0 -44879.4 259293 0 -26452.3 139350 0 -14356.5 71656.6 0 -7402.28 35919.2 0 -3712.03 17762.5 0 -1830.32 8746.18 0 -883.576 4318.54 0 -137.069 2110.53 0 -534972 3.32289e+06 0 -366763 2.64017e+06 0 -300527 2.1098e+06 0 -264695 1.651e+06 0 -235953 1.24009e+06 0 -203139 876654 0 -161385 574422 0 -114972 347304 0 -73159.4 195737 0 -42407.7 104888 0 -23059.7 54514.8 0 -12075.7 27871.4 0 -6194.01 14136.7 0 -3137.17 7150.1 0 -1541.09 3634.29 0 -619.762 1728.6 0 -573549 2.7349e+06 0 -467147 2.23052e+06 0 -411087 1.78256e+06 0 -369895 1.37629e+06 0 -327557 1.00771e+06 0 -273181 687510 0 -207323 432972 0 -141140 253056 0 -87033.5 139894 0 -49864 74802.1 0 -27275.5 39331.1 0 -14534.9 20519.3 0 -7633.44 10671.1 0 -3968.88 5547.7 0 -2013.61 2888.05 0 -982.495 1416.05 0 -634635 2.29875e+06 0 -560627 1.87223e+06 0 -508247 1.47826e+06 0 -458821 1.11287e+06 0 -396706 783521 0 -316484 508686 0 -228028 304640 0 -148520 171328 0 -89263.3 92951.7 0 -50873.5 49711.6 0 -28118.6 26487.6 0 -15282 14111.3 0 -8225.99 7525.26 0 -4392.59 4020.15 0 -2307.66 2139.07 0 -1210.08 1086.44 0 -707765 1.91774e+06 0 -646746 1.54251e+06 0 -592487 1.18715e+06 0 -526205 856166 0 -436436 567760 0 -329198 344133 0 -224494 193548 0 -140571 104328 0 -83041.8 55638.6 0 -47433.9 29829 0 -26611.7 16123.8 0 -14784.4 8773.63 0 -8164.56 4797.08 0 -4481.47 2630.02 0 -2435.72 1428.7 0 -1331.39 748.234 0 -781378 1.56712e+06 0 -725075 1.22735e+06 0 -657352 900490 0 -561690 604237 0 -439044 365570 0 -310456 201084 0 -200834 104216 0 -122078 53395 0 -71661.3 27893.9 0 -41342.1 14945.5 0 -23642.9 8171.13 0 -13454.7 4530.1 0 -7630.32 2534.09 0 -4308.52 1421.01 0 -2419.14 784.153 0 -1365.68 418.644 0 -853755 1.23116e+06 0 -787272 912788 0 -687803 612655 0 -551746 363102 0 -400390 188681 0 -264971 88271.1 0 -164263 39595.1 0 -98374.4 18191.2 0 -58067.1 8818.45 0 -34070.4 4507.77 0 -19932 2405.78 0 -11639.6 1325.46 0 -6784.81 744.356 0 -3943.36 417.104 0 -2284.32 223.316 0 -1327.72 112.58 0 -914188 889300 0 -811410 587663 0 -661363 330620 0 -486920 151174 0 -325871 52839.3 0 -203885 11829.3 0 -123530 -894.579 0 -74180.1 -3421.61 0 -44496.7 -3098.33 0 -26696.8 -2245.4 0 -16021.3 -1490.42 0 -9614.44 -949.079 0 -5764.82 -594.409 0 -3449.88 -374.828 0 -2059.55 -243.34 0 -1230.39 -158.837 0 -929696 523499 0 -760947 261257 0 -560672 83602.4 0 -374155 -4480.33 0 -233352 -30505 0 -141747 -29290.4 0 -86135.8 -21677.7 0 -52666 -14710.1 0 -32341.7 -9603.45 0 -19915.2 -6137.55 0 -12285.2 -3875.72 0 -7584.26 -2432.89 0 -4680.59 -1525.75 0 -2884.31 -961.597 0 -1772.64 -611.593 0 -1086.47 -387.85 0 -840891 148993 0 -608407 -17986 0 -397681 -83287.9 0 -243558 -84834.7 0 -147058 -64242.2 0 -90146.1 -43959.9 0 -56132.1 -29144.7 0 -35252 -19051.3 0 -22254.3 -12338.1 0 -14099.6 -7947.15 0 -8952.93 -5104.83 0 -5690.33 -3276.71 0 -3615.89 -2106.48 0 -2294 -1359.99 0 -1449.36 -882.782 0 -908.485 -570.214 0 -611253 -151400 0 -381422 -177219 0 -225449 -143175 0 -134613 -99307.6 0 -83491.4 -66049.2 0 -53106.7 -43843.8 0 -34138.9 -29070.3 0 -22094.8 -19201.8 0 -14375.2 -12661.4 0 -9385.35 -8343.76 0 -6139.58 -5499.39 0 -4019.33 -3628.32 0 -2630.11 -2399.53 0 -1716.89 -1593.49 0 -1112.43 -1063.13 0 -707.615 -705.041 0 -310964 -268691 0 -174519 -189892 0 -103974 -124337 0 -66391.4 -82115 0 -43466.4 -55410.2 0 -28653.3 -37519.1 0 -19020.2 -25356 0 -12718.1 -17141.4 0 -8539.82 -11603.6 0 -5749.88 -7861.12 0 -3876.46 -5332.13 0 -2614.49 -3622.69 0 -1761.41 -2468.32 0 -1181.63 -1689.48 0 -781.099 -1163.01 0 -494.094 -795.393 0 -99165.8 -204341 0 -63351.9 -128681 0 -43271.2 -87388.9 0 -29253.7 -61010.7 0 -19713 -42369.7 0 -13437.6 -29340.2 0 -9251.48 -20369 0 -6396.35 -14180.7 0 -4433.76 -9883.99 0 -3078.9 -6898.01 0 -2139.48 -4821.08 0 -1486.5 -3376.39 0 -1030.37 -2372.55 0 -708.561 -1676.91 0 -471.995 -1196.53 0 -272.271 -852.726 0 -29051.1 -111348 0 -20613.8 -82619 0 -13598.3 -59870.3 0 -9263.25 -42430.9 0 -6558.11 -30132.7 0 -4670.02 -21546.6 0 -3328.27 -15449.6 0 -2375.12 -11089.1 0 -1699.87 -7967.95 0 -1216.93 -5733.37 0 -871.679 -4131.83 0 -623.526 -2985.03 0 -444.115 -2165.35 0 -311.406 -1584.3 0 -202.644 -1181.32 0 -52.4878 -907.866 0 1.01328e-06 -61564.4 0 -9.27248e-08 -48027.2 0 1.72295e-08 -38077.2 0 -6.98492e-09 -28144.3 0 -2.04891e-08 -20524 0 -1.30385e-08 -15117.7 0 8.19564e-08 -11182.2 0 -8.9407e-08 -8279.42 0 3.35276e-08 -6133.73 0 -7.07805e-08 -4551.35 0 7.45058e-08 -3383.4 0 -4.47035e-08 -2522.43 0 1.49012e-08 -1891.64 0 -8.19564e-08 -1433.79 0 4.47035e-08 -1131.07 0 -2.38419e-07 -1140.71 0 </DataArray> 
</PointData> 
<Points> 
<DataArray type="Float32" NumberOfComponents="3"> 
0.075 0.021 0 0.0783333 0.021 0 0.0816667 0.021 0 0.085 0.021 0 0.0883333 0.021 0 0.0916667 0.021 0 0.095 0.021 0 0.0983333 0.021 0 0.101667 0.021 0 0.105 0.021 0 0.108333 0.021 0 0.111667 0.021 0 0.115 0.021 0 0.118333 0.021 0 0.121667 0.021 0 0.125 0.021 0 0.0773333 0.0219333 0 0.0805333 0.0219333 0 0.0837333 0.0219333 0 0.0869333 0.0219333 0 0.0901333 0.0219333 0 0.0933333 0.0219333 0 0.0965333 0.0219333 0 0.0997333 0.0219333 0 0.102933 0.0219333 0 0.106133 0.0219333 0 0.109333 0.0219333 0 0.112533 0.0219333 0 0.115733 0.0219333 0 0.118933 0.0219333 0 0.122133 0.0219333 0 0.125333 0.0219333 0 0.0796667 0.0228667 0 0.0827333 0.0228667 0 0.0858 0.0228667 0 0.0888667 0.0228667 0 0.0919333 0.0228667 0 0.095 0.0228667 0 0.0980667 0.0228667 0 0.101133 0.0228667 0 0.1042 0.0228667 0 0.107267 0.0228667 0 0.110333 0.0228667 0 0.1134 0.0228667 0 0.116467 0.0228667 0 0.119533 0.0228667 0 0.1226 0.0228667 0 0.125667 0.0228667 0 0.082 0.0238 0 0.0849333 0.0238 0 0.0878667 0.0238 0 0.0908 0.0238 0 0.0937333 0.0238 0 0.0966667 0.0238 0 0.0996 0.0238 0 0.102533 0.0238 0 0.105467 0.0238 0 0.1084 0.0238 0 0.111333 0.0238 0 0.114267 0.0238 0 0.1172 0.0238 0 0.120133 0.0238 0 0.123067 0.0238 0 0.126 0.0238 0 0.0843333 0.0247333 0 0.0871333 0.0247333 0 0.0899333 0.0247333 0 0.0927333 0.0247333 0 0.0955333 0.0247333 0 0.0983333 0.0247333 0 0.101133 0.0247333 0 0.103933 0.0247333 0 0.106733 0.0247333 0 0.109533 0.0247333 0 0.112333 0.0247333 0 0.115133 0.0247333 0 0.117933 0.0247333 0 0.120733 0.0247333 0 0.123533 0.0247333 0 0.126333 0.0247333 0 0.0866667 0.0256667 0 0.0893333 0.0256667 0 0.092 0.0256667 0 0.0946667 0.0256667 0 0.0973333 0.0256667 0 0.1 0.0256667 0 0.102667 0.0256667 0 0.105333 0.0256667 0 0.108 0.0256667 0 0.110667 0.0256667 0 0.113333 0.0256667 0 0.116 0.0256667 0 0.118667 0.0256667 0 0.121333 0.0256667 0 0.124 0.0256667 0 0.126667 0.0256667 0 0.089 0.0266 0 0.0915333 0.0266 0 0.0940667 0.0266 0 0.0966 0.0266 0 0.0991333 0.0266 0 0.101667 0.0266 0 0.1042 0.0266 0 0.106733 0.0266 0 0.109267 0.0266 0 0.1118 0.0266 0 0.114333 0.0266 0 0.116867 0.0266 0 0.1194 0.0266 0 0.121933 0.0266 0 0.124467 0.0266 0 0.127 0.0266 0 0.0913333 0.0275333 0 0.0937333 0.0275333 0 0.0961333 0.0275333 0 0.0985333 0.0275333 0 0.100933 0.0275333 0 0.103333 0.0275333 0 0.105733 0.0275333 0 0.108133 0.0275333 0 0.110533 0.0275333 0 0.112933 0.0275333 0 0.115333 0.0275333 0 0.117733 0.0275333 0 0.120133 0.0275333 0 0.122533 0.0275333 0 0.124933 0.0275333 0 0.127333 0.0275333 0 0.0936667 0.0284667 0 0.0959333 0.0284667 0 0.0982 0.0284667 0 0.100467 0.0284667 0 0.102733 0.0284667 0 0.105 0.0284667 0 0.107267 0.0284667 0 0.109533 0.0284667 0 0.1118 0.0284667 0 0.114067 0.0284667 0 0.116333 0.0284667 0 0.1186 0.0284667 0 0.120867 0.0284667 0 0.123133 0.0284667 0 0.1254 0.0284667 0 0.127667 0.0284667 0 0.096 0.0294 0 0.0981333 0.0294 0 0.100267 0.0294 0 0.1024 0.0294 0 0.104533 0.0294 0 0.106667 0.0294 0 0.1088 0.0294 0 0.110933 0.0294 0 0.113067 0.0294 0 0.1152 0.0294 0 0.117333 0.0294 0 0.119467 0.0294 0 0.1216 0.0294 0 0.123733 0.0294 0 0.125867 0.0294 0 0.128 0.0294 0 0.0983333 0.0303333 0 0.100333 0.0303333 0 0.102333 0.0303333 0 0.104333 0.0303333 0 0.106333 0.0303333 0 0.108333 0.0303333 0 0.110333 0.0303333 0 0.112333 0.0303333 0 0.114333 0.0303333 0 0.116333 0.0303333 0 0.118333 0.0303333 0 0.120333 0.0303333 0 0.122333 0.0303333 0 0.124333 0.0303333 0 0.126333 0.0303333 0 0.128333 0.0303333 0 0.100667 0.0312667 0 0.102533 0.0312667 0 0.1044 0.0312667 0 0.106267 0.0312667 0 0.108133 0.0312667 0 0.11 0.0312667 0 0.111867 0.0312667 0 0.113733 0.0312667 0 0.1156 0.0312667 0 0.117467 0.0312667 0 0.119333 0.0312667 0 0.1212 0.0312667 0 0.123067 0.0312667 0 0.124933 0.0312667 0 0.1268 0.0312667 0 0.128667 0.0312667 0 0.103 0.0322 0 0.104733 0.0322 0 0.106467 0.0322 0 0.1082 0.0322 0 0.109933 0.0322 0 0.111667 0.0322 0 0.1134 0.0322 0 0.115133 0.0322 0 0.116867 0.0322 0 0.1186 0.0322 0 0.120333 0.0322 0 0.122067 0.0322 0 0.1238 0.0322 0 0.125533 0.0322 0 0.127267 0.0322 0 0.129 0.0322 0 0.105333 0.0331333 0 0.106933 0.0331333 0 0.108533 0.0331333 0 0.110133 0.0331333 0 0.111733 0.0331333 0 0.113333 0.0331333 0 0.114933 0.0331333 0 0.116533 0.0331333 0 0.118133 0.0331333 0 0.119733 0.0331333 0 0.121333 0.0331333 0 0.122933 0.0331333 0 0.124533 0.0331333 0 0.126133 0.0331333 0 0.127733 0.0331333 0 0.129333 0.0331333 0 0.107667 0.0340667 0 0.109133 0.0340667 0 0.1106 0.0340667 0 0.112067 0.0340667 0 0.113533 0.0340667 0 0.115 0.0340667 0 0.116467 0.0340667 0 0.117933 0.0340667 0 0.1194 0.0340667 0 0.120867 0.0340667 0 0.122333 0.0340667 0 0.1238 0.0340667 0 0.125267 0.0340667 0 0.126733 0.0340667 0 0.1282 0.0340667 0 0.129667 0.0340667 0 0.11 0.035 0 0.111333 0.035 0 0.112667 0.035 0 0.114 0.035 0 0.115333 0.035 0 0.116667 0.035 0 0.118 0.035 0 0.119333 0.035 0 0.120667 0.035 0 0.122 0.035 0 0.123333 0.035 0 0.124667 0.035 0 0.126 0.035 0 0.127333 0.035 0 0.128667 0.035 0 0.13 0.035 0 
</DataArray>
</Points> 
</Piece> 
</StructuredGrid> 
</VTKFile> 
