<?xml version="1.0"?> 
<VTKFile type="StructuredGrid" version="0.1"> 
<StructuredGrid WholeExtent="0 256 0 256 0 0"> 
<Piece Extent="0 256 0 256 0 0"> 
<CellData>
<DataArray type="Float32" Name="err_h1" format="ascii" NumberOfComponents="1"> 
7.4386 2.11416 0.859901 0.395639 0.193971 0.118424 0.0882729 0.0740582 0.0617098 0.0528165 0.0448874 0.0387987 0.0336355 0.0295495 0.0261182 0.0233129 0.0209341 0.0189317 0.0172085 0.0157247 0.0144296 0.0132955 0.0122935 0.0114046 0.0106113 0.00990037 0.00926029 0.00868189 0.00815724 0.00767979 0.00724388 0.00684476 0.00647831 0.00614097 0.00582969 0.00554179 0.00527493 0.00502708 0.00479643 0.00458139 0.00438055 0.00419267 0.00401663 0.00385143 0.00369619 0.0035501 0.00341245 0.00328258 0.00315991 0.00304389 0.00293406 0.00282998 0.00273123 0.00263745 0.00254832 0.00246352 0.00238278 0.00230582 0.00223243 0.00216238 0.00209546 0.0020315 0.00197031 0.00191174 0.00185565 0.00180188 0.00175032 0.00170085 0.00165336 0.00160774 0.00156389 0.00152174 0.00148118 0.00144216 0.00140458 0.00136839 0.00133352 0.00129991 0.00126751 0.00123625 0.00120609 0.00117699 0.00114889 0.00112177 0.00109557 0.00107027 0.00104583 0.00102221 0.000999395 0.000977344 0.000956035 0.000935442 0.000915542 0.000896312 0.000877732 0.000859783 0.000842446 0.000825704 0.00080954 0.000793941 0.000778892 0.00076438 0.000750394 0.000736921 0.000723952 0.000711476 0.000699486 0.000687973 0.000676929 0.000666348 0.000656224 0.000646551 0.000637323 0.000628536 0.000620187 0.00061227 0.000604784 0.000597724 0.000591089 0.000584876 0.000579083 0.000573709 0.00056875 0.000564208 0.000560079 0.000556362 0.000553058 0.000550164 0.00054768 0.000545605 0.000543937 0.000542677 0.000541823 0.000541374 0.00054133 0.000541689 0.000542451 0.000543615 0.000545179 0.000547143 0.000549507 0.000552268 0.000555428 0.000558985 0.000562938 0.000567289 0.000572036 0.00057718 0.000582721 0.000588661 0.000595 0.00060174 0.000608883 0.000616432 0.000624388 0.000632756 0.000641539 0.000650741 0.000660369 0.000670427 0.000680922 0.00069186 0.000703251 0.000715102 0.000727422 0.000740223 0.000753516 0.000767312 0.000781625 0.00079647 0.000811861 0.000827817 0.000844353 0.000861491 0.00087925 0.000897654 0.000916725 0.000936489 0.000956974 0.00097821 0.00100023 0.00102306 0.00104674 0.00107132 0.00109682 0.0011233 0.0011508 0.00117938 0.00120909 0.00123998 0.00127212 0.00130558 0.00134043 0.00137676 0.00141463 0.00145415 0.00149541 0.00153853 0.00158361 0.00163078 0.00168018 0.00173195 0.00178626 0.00184327 0.00190319 0.00196622 0.00203258 0.00210253 0.00217635 0.00225433 0.00233682 0.00242418 0.00251682 0.00261519 0.00271981 0.00283125 0.00295012 0.00307715 0.00321313 0.00335897 0.00351568 0.00368443 0.00386655 0.00406353 0.00427716 0.00450939 0.00476265 0.00503947 0.00534338 0.00567756 0.00604743 0.00645668 0.0069145 0.00742398 0.00800265 0.00864901 0.00940064 0.0102387 0.0112522 0.0123666 0.0138062 0.0153301 0.0175228 0.0196587 0.0232814 0.0262762 0.0327626 0.0367061 0.0495657 0.0560158 0.0885443 0.140503 0.268213 0.634706 1.80459 5.43068 1.88187 0.761236 0.298997 0.224391 0.16119 0.123004 0.0927171 0.0741117 0.0603654 0.0507071 0.0431364 0.0372998 0.0325552 0.0287114 0.0255147 0.022847 0.0205865 0.018659 0.0169982 0.0155577 0.0142986 0.0131913 0.0122115 0.0113401 0.0105611 0.00986185 0.00923142 0.00866093 0.00814284 0.00767082 0.00723944 0.00684409 0.00648078 0.00614608 0.005837 0.00555095 0.00528564 0.00503909 0.00480952 0.0045954 0.00439532 0.00420808 0.00403257 0.00386782 0.00371294 0.00356716 0.00342975 0.00330008 0.00317757 0.00306168 0.00295195 0.00284794 0.00274925 0.00265551 0.0025664 0.00248161 0.00240087 0.00232391 0.00225051 0.00218044 0.0021135 0.00204952 0.0019883 0.00192971 0.00187358 0.00181979 0.00176821 0.00171871 0.00167119 0.00162554 0.00158168 0.0015395 0.00149893 0.00145989 0.0014223 0.0013861 0.00135122 0.00131761 0.0012852 0.00125394 0.00122378 0.00119469 0.0011666 0.00113949 0.0011133 0.00108802 0.00106359 0.00104 0.0010172 0.000995178 0.000973897 0.000953335 0.000933467 0.000914272 0.000895728 0.000877816 0.000860518 0.000843817 0.000827695 0.000812139 0.000797133 0.000782666 0.000768723 0.000755295 0.00074237 0.000729939 0.000717992 0.000706521 0.000695518 0.000684976 0.000674889 0.00066525 0.000656055 0.000647297 0.000638973 0.000631079 0.000623611 0.000616565 0.000609939 0.00060373 0.000597935 0.000592553 0.000587582 0.000583019 0.000578864 0.000575114 0.000571769 0.000568828 0.00056629 0.000564153 0.000562416 0.000561079 0.000560141 0.000559601 0.000559459 0.000559712 0.000560362 0.000561406 0.000562845 0.000564678 0.000566904 0.000569523 0.000572535 0.000575939 0.000579736 0.000583926 0.000588509 0.000593486 0.000598857 0.000604625 0.00061079 0.000617355 0.000624321 0.000631692 0.00063947 0.00064766 0.000656265 0.000665291 0.000674742 0.000684625 0.000694946 0.000705713 0.000716933 0.000728615 0.00074077 0.000753407 0.000766538 0.000780176 0.000794333 0.000809024 0.000824266 0.000840074 0.000856466 0.000873463 0.000891084 0.000909353 0.000928293 0.000947929 0.00096829 0.000989404 0.0010113 0.00103402 0.00105759 0.00108206 0.00110746 0.00113384 0.00116124 0.00118972 0.00121934 0.00125014 0.0012822 0.00131558 0.00135035 0.0013866 0.0014244 0.00146385 0.00150505 0.0015481 0.00159312 0.00164023 0.00168957 0.00174129 0.00179555 0.00185252 0.00191239 0.00197537 0.00204169 0.0021116 0.00218538 0.00226332 0.00234577 0.00243309 0.00252569 0.00262403 0.00272861 0.00283999 0.00295882 0.00308579 0.00322171 0.00336747 0.0035241 0.00369275 0.00387474 0.00407159 0.00428504 0.00451707 0.00477004 0.00504663 0.00535004 0.00568398 0.00605293 0.00646215 0.00691808 0.00742839 0.00800273 0.00865266 0.00939337 0.0102429 0.0112266 0.0123734 0.0137287 0.0153375 0.0172854 0.0196319 0.0225416 0.0260434 0.030443 0.0356097 0.0421196 0.0504327 0.0636852 0.0967093 0.171092 0.387685 0.677191 1.30648 1.08438 0.232077 0.144143 0.119148 0.0860672 0.072947 0.0652166 0.0571012 0.0502048 0.0437783 0.0384759 0.0338864 0.0300781 0.0268242 0.0240799 0.0217235 0.0197037 0.017952 0.0164289 0.0150935 0.013918 0.0128768 0.0119505 0.0111223 0.010379 0.009709 0.00910295 0.00855282 0.00805187 0.0075943 0.00717519 0.00679029 0.00643591 0.00610887 0.00580639 0.00552603 0.00526565 0.00502338 0.00479754 0.00458666 0.00438943 0.00420468 0.00403136 0.00386853 0.00371535 0.00357106 0.00343498 0.00330648 0.00318501 0.00307005 0.00296114 0.00285786 0.00275982 0.00266667 0.00257808 0.00249376 0.00241344 0.00233686 0.0022638 0.00219404 0.00212738 0.00206364 0.00200266 0.00194427 0.00188833 0.00183471 0.00178328 0.00173393 0.00168654 0.00164102 0.00159727 0.0015552 0.00151473 0.00147578 0.00143828 0.00140217 0.00136737 0.00133383 0.00130149 0.0012703 0.00124022 0.00121119 0.00118316 0.00115611 0.00113 0.00110477 0.00108041 0.00105687 0.00103414 0.00101217 0.000990953 0.00097045 0.000950641 0.000931505 0.000913021 0.000895168 0.000877928 0.000861285 0.000845221 0.000829722 0.000814773 0.000800361 0.000786474 0.000773099 0.000760227 0.000747846 0.000735949 0.000724525 0.000713568 0.000703069 0.000693022 0.000683421 0.00067426 0.000665533 0.000657237 0.000649366 0.000641916 0.000634885 0.000628268 0.000622063 0.000616267 0.000610878 0.000605894 0.000601312 0.000597131 0.00059335 0.000589967 0.00058698 0.00058439 0.000582193 0.000580391 0.000578981 0.000577963 0.000577335 0.000577099 0.000577252 0.000577794 0.000578725 0.000580045 0.000581752 0.000583848 0.000586331 0.000589201 0.00059246 0.000596107 0.000600142 0.000604568 0.000609384 0.000614592 0.000620193 0.00062619 0.000632584 0.000639379 0.000646577 0.000654181 0.000662197 0.000670628 0.000679479 0.000688756 0.000698466 0.000708614 0.000719208 0.000730258 0.000741771 0.000753757 0.000766228 0.000779195 0.00079267 0.000806666 0.000821199 0.000836284 0.000851937 0.000868178 0.000885025 0.000902499 0.000920622 0.000939419 0.000958914 0.000979136 0.00100011 0.00102188 0.00104446 0.00106791 0.00109224 0.00111752 0.00114377 0.00117105 0.00119942 0.00122891 0.0012596 0.00129154 0.0013248 0.00135946 0.00139559 0.00143327 0.00147261 0.00151369 0.00155663 0.00160153 0.00164852 0.00169774 0.00174934 0.00180347 0.00186031 0.00192004 0.00198288 0.00204906 0.00211881 0.00219243 0.0022702 0.00235245 0.00243957 0.00253195 0.00263005 0.00273437 0.00284547 0.00296397 0.00309059 0.00322611 0.00337142 0.00352754 0.00369562 0.00387696 0.00407305 0.00428562 0.00451666 0.00476844 0.00504367 0.00534544 0.00567752 0.00604414 0.00645073 0.00690323 0.00740979 0.00797877 0.00862321 0.00935472 0.0101959 0.0111617 0.0122948 0.0136102 0.0151953 0.0170457 0.0193555 0.0220277 0.025523 0.0294245 0.0349458 0.0408631 0.0511061 0.0638856 0.0944624 0.143511 0.244892 0.394434 0.550122 0.60815 0.206427 0.077517 0.0612611 0.0583751 0.0532562 0.0480492 0.0432832 0.0390355 0.0353256 0.0319317 0.0289319 0.0262302 0.0238489 0.0217309 0.0198639 0.0182081 0.0167428 0.0154397 0.0142795 0.0132424 0.0123128 0.0114767 0.0107225 0.0100399 0.00942027 0.00885625 0.00834142 0.00787024 0.00743794 0.00704035 0.00667387 0.00633532 0.00602193 0.00573126 0.00546116 0.00520972 0.00497525 0.00475626 0.00455139 0.00435945 0.00417937 0.00401018 0.00385101 0.00370109 0.0035597 0.0034262 0.00330002 0.00318061 0.00306751 0.00296027 0.00285849 0.0027618 0.00266987 0.00258238 0.00249906 0.00241965 0.00234389 0.00227158 0.00220249 0.00213646 0.00207329 0.00201282 0.00195491 0.00189941 0.00184619 0.00179513 0.00174612 0.00169905 0.00165382 0.00161034 0.00156852 0.00152828 0.00148955 0.00145226 0.00141633 0.00138172 0.00134835 0.00131617 0.00128513 0.00125519 0.0012263 0.00119841 0.00117148 0.00114548 0.00112038 0.00109612 0.0010727 0.00105006 0.0010282 0.00100707 0.000986664 0.000966947 0.000947899 0.000929501 0.000911732 0.000894574 0.00087801 0.000862024 0.000846599 0.000831723 0.000817382 0.000803563 0.000790255 0.000777446 0.000765127 0.000753288 0.00074192 0.000731015 0.000720566 0.000710565 0.000701007 0.000691884 0.000683192 0.000674926 0.000667081 0.000659653 0.000652639 0.000646033 0.000639835 0.00063404 0.000628646 0.000623651 0.000619053 0.000614849 0.000611038 0.000607619 0.00060459 0.000601951 0.000599699 0.000597833 0.000596354 0.00059526 0.000594551 0.000594225 0.000594283 0.000594724 0.000595547 0.000596753 0.000598341 0.000600312 0.000602665 0.0006054 0.00060852 0.000612023 0.000615911 0.000620185 0.000624846 0.000629895 0.000635336 0.00064117 0.000647399 0.000654026 0.000661056 0.00066849 0.000676335 0.000684595 0.000693274 0.000702378 0.000711915 0.000721891 0.000732314 0.000743192 0.000754534 0.000766351 0.000778653 0.000791452 0.00080476 0.000818591 0.000832959 0.000847881 0.000863373 0.000879453 0.000896141 0.000913457 0.000931424 0.000950066 0.000969407 0.000989477 0.0010103 0.00103192 0.00105435 0.00107765 0.00110184 0.00112696 0.00115307 0.0011802 0.00120842 0.00123776 0.0012683 0.00130009 0.0013332 0.0013677 0.00140368 0.00144121 0.00148038 0.0015213 0.00156406 0.00160879 0.0016556 0.00170463 0.00175603 0.00180996 0.00186658 0.00192609 0.00198869 0.00205461 0.00212409 0.00219741 0.00227486 0.00235678 0.00244353 0.00253551 0.00263316 0.00273699 0.00284755 0.00296546 0.00309141 0.00322619 0.00337067 0.00352586 0.00369287 0.003873 0.00406771 0.0042787 0.0045079 0.00475758 0.00503033 0.00532925 0.00565788 0.00602055 0.00642221 0.00686914 0.0073683 0.00792924 0.00856188 0.00928153 0.0101021 0.01105 0.0121436 0.0134316 0.0149332 0.0167458 0.0188689 0.021517 0.0245965 0.0286442 0.0332786 0.0401064 0.048134 0.0628762 0.0820203 0.121371 0.169783 0.24638 0.293766 0.356932 0.0631539 0.0549887 0.0518955 0.0423559 0.0391109 0.0361402 0.0336762 0.0311931 0.0288454 0.0266391 0.0245804 0.0226868 0.020944 0.0193561 0.0179083 0.0165952 0.0154031 0.014323 0.0133429 0.0124534 0.0116448 0.0109087 0.0102374 0.00962411 0.00906266 0.00854769 0.00807441 0.00763861 0.00723656 0.00686494 0.00652083 0.00620163 0.00590503 0.00562898 0.00537164 0.00513138 0.00490673 0.00469637 0.00449913 0.00431394 0.00413984 0.00397597 0.00382154 0.00367584 0.00353822 0.00340811 0.00328496 0.00316828 0.00305764 0.00295261 0.00285283 0.00275795 0.00266766 0.00258166 0.00249969 0.00242151 0.00234687 0.00227557 0.00220743 0.00214224 0.00207985 0.0020201 0.00196285 0.00190796 0.0018553 0.00180475 0.00175622 0.00170959 0.00166476 0.00162166 0.00158019 0.00154029 0.00150186 0.00146485 0.00142919 0.00139483 0.00136169 0.00132973 0.00129891 0.00126916 0.00124045 0.00121274 0.00118598 0.00116014 0.00113518 0.00111107 0.00108778 0.00106528 0.00104354 0.00102254 0.00100225 0.000982641 0.000963701 0.000945406 0.000927737 0.000910675 0.000894204 0.000878307 0.000862969 0.000848175 0.000833914 0.000820171 0.000806935 0.000794196 0.000781944 0.000770167 0.000758859 0.00074801 0.000737613 0.000727661 0.000718146 0.000709064 0.000700408 0.000692174 0.000684356 0.00067695 0.000669952 0.000663359 0.000657167 0.000651373 0.000645975 0.00064097 0.000636355 0.000632129 0.000628291 0.000624837 0.000621767 0.00061908 0.000616775 0.000614849 0.000613304 0.000612137 0.000611348 0.000610937 0.000610904 0.000611247 0.000611967 0.000613064 0.000614538 0.000616388 0.000618617 0.000621223 0.000624208 0.000627573 0.000631318 0.000635446 0.000639957 0.000644854 0.000650139 0.000655814 0.000661882 0.000668346 0.000675211 0.000682479 0.000690156 0.000698247 0.000706756 0.00071569 0.000725056 0.00073486 0.000745111 0.000755818 0.000766989 0.000778634 0.000790765 0.000803393 0.000816531 0.000830192 0.000844392 0.000859145 0.00087447 0.000890382 0.000906904 0.000924054 0.000941855 0.000960332 0.000979509 0.000999413 0.00102007 0.00104152 0.0010638 0.00108692 0.00111095 0.0011359 0.00116184 0.00118881 0.00121685 0.00124602 0.00127638 0.00130799 0.00134092 0.00137524 0.00141102 0.00144835 0.00148732 0.00152803 0.00157058 0.00161508 0.00166166 0.00171044 0.00176158 0.00181523 0.00187157 0.00193077 0.00199304 0.0020586 0.00212771 0.00220062 0.00227764 0.00235908 0.00244531 0.00253672 0.00263375 0.0027369 0.0028467 0.00296377 0.00308879 0.00322252 0.00336583 0.0035197 0.00368522 0.00386366 0.00405645 0.00426523 0.00449189 0.00473863 0.00500799 0.0053029 0.00562688 0.00598398 0.00637913 0.00681801 0.00730782 0.00785665 0.00847543 0.00917581 0.00997516 0.0108902 0.0119501 0.0131777 0.0146253 0.0163195 0.0183622 0.0207696 0.0237636 0.0273117 0.0319782 0.037631 0.0458992 0.0565172 0.073703 0.0959122 0.128154 0.163218 0.184722 0.197467 0.0674115 0.0318232 0.029052 0.0309688 0.0296971 0.02839 0.0266823 0.0251445 0.0236095 0.0221564 0.020762 0.019441 0.0181954 0.0170268 0.0159367 0.0149227 0.013983 0.0131134 0.0123104 0.0115692 0.0108854 0.0102544 0.00967207 0.00913417 0.00863691 0.00817676 0.00775047 0.00735508 0.00698788 0.00664644 0.00632853 0.00603215 0.00575548 0.00549689 0.00525488 0.00502811 0.00481538 0.00461556 0.00442767 0.00425078 0.00408408 0.00392681 0.00377829 0.00363788 0.00350501 0.00337916 0.00325985 0.00314664 0.00303912 0.00293692 0.00283971 0.00274716 0.00265898 0.00257491 0.0024947 0.00241811 0.00234493 0.00227498 0.00220805 0.00214399 0.00208264 0.00202384 0.00196746 0.00191337 0.00186145 0.00181159 0.00176369 0.00171765 0.00167337 0.00163077 0.00158978 0.00155031 0.00151229 0.00147566 0.00144036 0.00140633 0.0013735 0.00134184 0.00131129 0.0012818 0.00125334 0.00122586 0.00119932 0.00117368 0.00114892 0.001125 0.00110189 0.00107955 0.00105797 0.00103712 0.00101698 0.000997509 0.000978701 0.000960534 0.000942986 0.00092604 0.00090968 0.000893889 0.000878653 0.000863957 0.000849788 0.000836133 0.000822982 0.000810323 0.000798145 0.000786441 0.000775199 0.000764413 0.000754075 0.000744176 0.000734712 0.000725674 0.000717059 0.000708859 0.000701072 0.000693691 0.000686714 0.000680135 0.000673953 0.000668163 0.000662763 0.00065775 0.000653122 0.000648877 0.000645012 0.000641527 0.00063842 0.000635689 0.000633333 0.000631351 0.000629743 0.000628508 0.000627644 0.000627152 0.000627032 0.000627283 0.000627904 0.000628897 0.000630262 0.000631999 0.000634107 0.00063659 0.000639446 0.000642678 0.000646286 0.000650273 0.00065464 0.000659389 0.000664522 0.000670044 0.000675955 0.000682261 0.000688964 0.00069607 0.000703582 0.000711506 0.000719847 0.000728613 0.000737808 0.000747442 0.000757522 0.000768056 0.000779055 0.000790527 0.000802485 0.00081494 0.000827904 0.000841392 0.000855418 0.000869997 0.000885147 0.000900886 0.000917232 0.000934208 0.000951834 0.000970134 0.000989135 0.00100886 0.00102935 0.00105062 0.0010727 0.00109565 0.00111949 0.00114426 0.00117001 0.00119678 0.00122463 0.0012536 0.00128376 0.00131516 0.00134787 0.00138197 0.00141752 0.00145462 0.00149334 0.00153379 0.00157607 0.00162029 0.00166658 0.00171506 0.00176587 0.00181917 0.00187514 0.00193395 0.0019958 0.00206092 0.00212954 0.00220193 0.00227838 0.0023592 0.00244476 0.00253543 0.00263166 0.00273392 0.00284274 0.00295872 0.00308253 0.00321492 0.00335672 0.00350888 0.00367248 0.00384874 0.00403905 0.00424501 0.00446842 0.00471142 0.00497643 0.00526629 0.00558433 0.00593445 0.00632125 0.00675027 0.00722796 0.00776242 0.00836288 0.00904159 0.00981189 0.010693 0.0117042 0.0128773 0.0142387 0.0158444 0.0177276 0.0199963 0.0226845 0.0260299 0.030057 0.0353609 0.041933 0.0512262 0.062847 0.079091 0.0975451 0.115191 0.128331 0.116952 0.0233059 0.0283916 0.027037 0.0240078 0.0232666 0.0222838 0.0214867 0.0205202 0.0195722 0.0185975 0.0176462 0.0167152 0.0158179 0.0149572 0.014137 0.0133592 0.0126245 0.0119328 0.0112833 0.0106747 0.0101051 0.00957277 0.00907545 0.00861104 0.00817737 0.00777234 0.00739394 0.00704023 0.0067094 0.00639975 0.00610971 0.00583781 0.0055827 0.00534312 0.00511792 0.00490606 0.00470655 0.00451851 0.0043411 0.00417359 0.00401528 0.00386552 0.00372374 0.0035894 0.003462 0.00334109 0.00322624 0.00311706 0.0030132 0.00291432 0.00282013 0.00273032 0.00264465 0.00256286 0.00248473 0.00241005 0.00233863 0.00227027 0.00220482 0.00214211 0.002082 0.00202435 0.00196902 0.00191591 0.00186489 0.00181587 0.00176874 0.00172342 0.00167981 0.00163783 0.00159741 0.00155847 0.00152096 0.0014848 0.00144993 0.00141631 0.00138387 0.00135256 0.00132235 0.00129318 0.00126502 0.00123781 0.00121154 0.00118616 0.00116163 0.00113793 0.00111503 0.0010929 0.00107151 0.00105084 0.00103087 0.00101156 0.000992914 0.000974895 0.000957488 0.000940678 0.000924446 0.000908777 0.000893657 0.000879072 0.000865008 0.000851453 0.000838396 0.000825827 0.000813734 0.000802109 0.000790942 0.000780225 0.000769951 0.000760112 0.000750702 0.000741714 0.000733143 0.000724983 0.00071723 0.000709878 0.000702924 0.000696364 0.000690193 0.00068441 0.000679011 0.000673994 0.000669355 0.000665093 0.000661206 0.000657693 0.000654551 0.000651779 0.000649377 0.000647343 0.000645676 0.000644376 0.000643442 0.000642873 0.000642671 0.000642833 0.000643362 0.000644256 0.000645517 0.000647144 0.000649139 0.000651502 0.000654235 0.000657339 0.000660815 0.000664666 0.000668894 0.000673499 0.000678487 0.000683858 0.000689618 0.000695768 0.000702314 0.00070926 0.00071661 0.00072437 0.000732546 0.000741144 0.000750172 0.000759636 0.000769544 0.000779907 0.000790732 0.00080203 0.000813813 0.000826092 0.000838879 0.00085219 0.000866037 0.000880437 0.000895407 0.000910965 0.000927129 0.000943921 0.000961363 0.000979478 0.000998291 0.00101783 0.00103812 0.0010592 0.00108109 0.00110384 0.00112747 0.00115204 0.00117758 0.00120414 0.00123176 0.00126051 0.00129044 0.0013216 0.00135407 0.00138791 0.0014232 0.00146002 0.00149846 0.00153861 0.00158058 0.00162447 0.00167041 0.00171852 0.00176894 0.00182183 0.00187736 0.00193569 0.00199704 0.00206162 0.00212965 0.00220141 0.00227717 0.00235725 0.00244199 0.00253177 0.00262702 0.0027282 0.00283584 0.0029505 0.00307284 0.00320359 0.00334356 0.00349367 0.00365496 0.0038286 0.00401594 0.0042185 0.00443803 0.00467655 0.00493638 0.00522022 0.00553123 0.00587307 0.0062501 0.0066674 0.00713114 0.00764851 0.00822845 0.00888126 0.00962034 0.0104605 0.0114227 0.012528 0.0138102 0.0152994 0.0170533 0.0191129 0.0215883 0.0245334 0.0281836 0.0326035 0.0383067 0.04527 0.0543466 0.0647969 0.0766127 0.0876719 0.0936336 0.0667108 0.0277784 0.0186201 0.018461 0.0193421 0.0187931 0.0183395 0.0176729 0.0170666 0.0164054 0.0157524 0.0150867 0.0144289 0.0137789 0.0131444 0.0125283 0.0119338 0.0113629 0.0108168 0.0102964 0.0098018 0.00933284 0.00888901 0.00846961 0.00807371 0.00770031 0.00734833 0.00701664 0.00670411 0.00640963 0.00613211 0.00587051 0.00562382 0.00539108 0.0051714 0.00496394 0.00476789 0.00458251 0.00440712 0.00424105 0.00408372 0.00393456 0.00379306 0.00365872 0.00353109 0.00340977 0.00329436 0.0031845 0.00307986 0.00298012 0.002885 0.00279423 0.00270755 0.00262473 0.00254556 0.00246983 0.00239734 0.00232793 0.00226143 0.00219769 0.00213655 0.00207788 0.00202157 0.00196748 0.00191551 0.00186555 0.00181751 0.00177129 0.00172681 0.00168398 0.00164273 0.00160299 0.00156469 0.00152777 0.00149216 0.00145781 0.00142467 0.00139269 0.00136181 0.00133199 0.0013032 0.00127539 0.00124852 0.00122256 0.00119747 0.00117322 0.00114979 0.00112714 0.00110524 0.00108408 0.00106362 0.00104384 0.00102473 0.00100626 0.000988414 0.000971171 0.000954515 0.00093843 0.000922901 0.000907913 0.000893454 0.000879509 0.000866067 0.000853117 0.000840647 0.000828649 0.000817113 0.000806029 0.00079539 0.000785188 0.000775416 0.000766067 0.000757134 0.000748613 0.000740498 0.000732783 0.000725465 0.000718539 0.000712 0.000705847 0.000700074 0.00069468 0.000689662 0.000685016 0.000680742 0.000676836 0.000673298 0.000670126 0.000667317 0.000664873 0.00066279 0.000661069 0.000659708 0.000658708 0.000658068 0.000657788 0.000657868 0.000658308 0.000659108 0.00066027 0.000661793 0.000663679 0.000665929 0.000668544 0.000671525 0.000674875 0.000678594 0.000682687 0.000687154 0.000692 0.000697226 0.000702837 0.000708837 0.000715228 0.000722017 0.000729209 0.000736808 0.00074482 0.000753253 0.000762113 0.000771408 0.000781146 0.000791335 0.000801987 0.000813109 0.000824715 0.000836816 0.000849424 0.000862553 0.000876217 0.000890433 0.000905217 0.000920588 0.000936563 0.000953164 0.000970412 0.000988331 0.00100695 0.00102628 0.00104637 0.00106724 0.00108892 0.00111145 0.00113487 0.00115921 0.00118452 0.00121084 0.00123823 0.00126673 0.00129639 0.00132729 0.00135948 0.00139304 0.00142803 0.00146454 0.00150265 0.00154246 0.00158407 0.00162758 0.00167312 0.00172081 0.00177078 0.00182319 0.0018782 0.00193599 0.00199675 0.00206069 0.00212804 0.00219906 0.00227402 0.00235322 0.00243701 0.00252575 0.00261986 0.00271978 0.00282602 0.00293915 0.00305978 0.00318863 0.00332647 0.0034742 0.0036328 0.00380341 0.0039873 0.00418594 0.004401 0.00463437 0.00488827 0.00516524 0.00546822 0.00580066 0.00616659 0.00657075 0.00701872 0.00751721 0.00807405 0.00869892 0.00940298 0.0102005 0.0111076 0.0121459 0.0133383 0.0147194 0.0163212 0.0182023 0.0204073 0.0230434 0.0261687 0.0299875 0.0345398 0.0401507 0.0466398 0.0541287 0.0618124 0.0679434 0.0727164 0.0413093 0.0148578 0.0172622 0.0166822 0.0156753 0.0154822 0.0151029 0.0147836 0.0143623 0.0139375 0.013478 0.013013 0.0125382 0.012064 0.011592 0.011127 0.0106712 0.0102272 0.00979662 0.0093808 0.00898061 0.0085966 0.00822903 0.00787793 0.00754315 0.00722437 0.00692117 0.00663304 0.00635942 0.00609969 0.00585324 0.00561941 0.00539758 0.00518711 0.00498741 0.00479787 0.00461794 0.00444706 0.00428472 0.00413044 0.00398375 0.00384421 0.0037114 0.00358495 0.00346449 0.00334967 0.00324017 0.0031357 0.00303597 0.00294072 0.00284969 0.00276266 0.00267942 0.00259974 0.00252345 0.00245037 0.00238032 0.00231316 0.00224872 0.00218688 0.0021275 0.00207047 0.00201565 0.00196296 0.00191228 0.00186352 0.00181658 0.0017714 0.00172788 0.00168594 0.00164553 0.00160656 0.00156899 0.00153274 0.00149777 0.00146401 0.00143143 0.00139996 0.00136957 0.00134021 0.00131185 0.00128444 0.00125795 0.00123235 0.0012076 0.00118367 0.00116054 0.00113818 0.00111655 0.00109564 0.00107542 0.00105588 0.00103698 0.00101872 0.00100106 0.000984004 0.000967523 0.000951603 0.000936231 0.000921392 0.000907073 0.000893262 0.000879946 0.000867114 0.000854757 0.000842864 0.000831426 0.000820435 0.000809882 0.00079976 0.000790062 0.000780781 0.00077191 0.000763446 0.00075538 0.00074771 0.000740431 0.000733537 0.000727026 0.000720893 0.000715136 0.000709751 0.000704735 0.000700088 0.000695805 0.000691885 0.000688326 0.000685127 0.000682287 0.000679804 0.000677677 0.000675906 0.00067449 0.000673429 0.000672722 0.000672369 0.000672371 0.000672728 0.00067344 0.000674507 0.000675932 0.000677714 0.000679855 0.000682356 0.00068522 0.000688448 0.000692042 0.000696004 0.000700338 0.000705045 0.000710131 0.000715598 0.000721449 0.000727691 0.000734326 0.000741361 0.000748801 0.000756652 0.000764921 0.000773615 0.000782742 0.000792309 0.000802326 0.000812803 0.000823749 0.000835176 0.000847096 0.000859522 0.000872466 0.000885944 0.000899971 0.000914564 0.00092974 0.000945519 0.000961921 0.000978967 0.000996681 0.00101509 0.00103421 0.00105408 0.00107473 0.00109619 0.00111849 0.00114167 0.00116577 0.00119083 0.0012169 0.00124402 0.00127224 0.00130163 0.00133223 0.00136412 0.00139736 0.00143202 0.00146818 0.00150593 0.00154536 0.00158656 0.00162965 0.00167473 0.00172194 0.0017714 0.00182327 0.0018777 0.00193487 0.00199496 0.00205818 0.00212476 0.00219493 0.00226898 0.00234719 0.0024299 0.00251746 0.00261026 0.00270875 0.00281342 0.0029248 0.00304351 0.0031702 0.00330564 0.00345068 0.00360626 0.00377346 0.0039535 0.00414776 0.00435781 0.00458546 0.00483277 0.00510211 0.00539624 0.00571834 0.00607212 0.0064619 0.00689281 0.0073708 0.00790304 0.00849785 0.00916543 0.00991752 0.0107689 0.0117362 0.0128414 0.0141078 0.0155694 0.0172583 0.0192293 0.0215247 0.0242351 0.0274009 0.0311554 0.0354605 0.0404039 0.0456306 0.050793 0.055308 0.057711 0.0254555 0.0150957 0.0129159 0.0130091 0.0132964 0.0130346 0.012842 0.0125526 0.0122813 0.0119706 0.0116527 0.0113159 0.0109721 0.0106209 0.0102677 0.00991417 0.00956343 0.00921722 0.00887742 0.00854533 0.00822211 0.00790856 0.00760532 0.00731279 0.00703121 0.00676069 0.00650119 0.0062526 0.00601473 0.00578731 0.00557004 0.00536259 0.00516459 0.00497568 0.00479546 0.00462356 0.00445959 0.00430318 0.00415397 0.00401159 0.00387571 0.00374601 0.00362215 0.00350385 0.00339082 0.00328279 0.00317949 0.00308068 0.00298614 0.00289563 0.00280896 0.00272593 0.00264636 0.00257006 0.00249688 0.00242666 0.00235925 0.00229452 0.00223234 0.00217258 0.00211512 0.00205987 0.00200671 0.00195554 0.00190629 0.00185885 0.00181315 0.0017691 0.00172665 0.00168571 0.00164622 0.00160812 0.00157136 0.00153587 0.0015016 0.00146851 0.00143654 0.00140566 0.00137582 0.00134698 0.0013191 0.00129214 0.00126608 0.00124089 0.00121652 0.00119295 0.00117015 0.00114811 0.00112678 0.00110616 0.00108621 0.00106692 0.00104827 0.00103024 0.0010128 0.000995947 0.00097966 0.000963926 0.000948728 0.000934055 0.000919892 0.000906228 0.000893052 0.000880352 0.000868118 0.000856342 0.000845014 0.000834125 0.000823667 0.000813634 0.000804018 0.000794812 0.000786012 0.00077761 0.000769601 0.000761982 0.000754747 0.000747891 0.000741412 0.000735306 0.000729569 0.000724198 0.000719191 0.000714545 0.000710259 0.000706329 0.000702755 0.000699535 0.000696667 0.00069415 0.000691984 0.000690168 0.000688702 0.000687584 0.000686815 0.000686395 0.000686323 0.000686602 0.00068723 0.000688209 0.000689539 0.000691223 0.00069326 0.000695654 0.000698405 0.000701515 0.000704988 0.000708825 0.000713029 0.000717603 0.000722552 0.000727878 0.000733586 0.00073968 0.000746165 0.000753046 0.00076033 0.000768022 0.000776128 0.000784658 0.000793617 0.000803014 0.000812858 0.00082316 0.000833929 0.000845176 0.000856913 0.000869153 0.000881909 0.000895196 0.00090903 0.000923426 0.000938403 0.000953979 0.000970174 0.000987011 0.00100451 0.0010227 0.0010416 0.00106125 0.00108166 0.00110288 0.00112494 0.00114787 0.00117171 0.0011965 0.00122229 0.00124912 0.00127705 0.00130613 0.00133642 0.00136797 0.00140086 0.00143516 0.00147094 0.00150828 0.00154729 0.00158805 0.00163066 0.00167525 0.00172193 0.00177083 0.00182209 0.00187588 0.00193235 0.0019917 0.00205412 0.00211983 0.00218907 0.0022621 0.00233921 0.00242071 0.00250695 0.00259831 0.00269522 0.00279814 0.00290759 0.00302416 0.00314848 0.00328127 0.00342334 0.0035756 0.00373906 0.00391487 0.00410434 0.00430895 0.00453036 0.00477052 0.00503162 0.0053162 0.00562719 0.00596796 0.00634245 0.00675525 0.00721171 0.00771809 0.00828183 0.00891154 0.00961762 0.010412 0.0113094 0.0123262 0.0134837 0.0148041 0.0163184 0.0180552 0.0200599 0.0223623 0.0250216 0.02804 0.031454 0.0351463 0.0389822 0.0426618 0.0454624 0.0475505 0.0172694 0.0111111 0.0117755 0.0115458 0.011199 0.0111345 0.0109665 0.0108153 0.0106123 0.0104023 0.0101688 0.00992586 0.00967067 0.00940882 0.00914112 0.00887061 0.00859879 0.00832763 0.00805852 0.0077928 0.00753152 0.0072756 0.00702574 0.00678253 0.00654639 0.00631763 0.00609645 0.00588295 0.00567718 0.0054791 0.00528863 0.00510562 0.00492993 0.00476136 0.0045997 0.00444473 0.0042962 0.00415389 0.00401754 0.00388692 0.00376179 0.0036419 0.00352704 0.00341697 0.00331148 0.00321036 0.0031134 0.00302042 0.00293123 0.00284565 0.00276351 0.00268465 0.00260892 0.00253617 0.00246627 0.00239908 0.00233447 0.00227233 0.00221254 0.00215501 0.00209961 0.00204627 0.00199489 0.00194538 0.00189766 0.00185165 0.00180728 0.00176449 0.00172319 0.00168333 0.00164486 0.00160771 0.00157183 0.00153717 0.00150368 0.00147131 0.00144003 0.00140979 0.00138055 0.00135228 0.00132493 0.00129848 0.0012729 0.00124814 0.00122419 0.00120102 0.0011786 0.00115691 0.00113592 0.00111562 0.00109597 0.00107696 0.00105858 0.00104079 0.0010236 0.00100697 0.0009909 0.000975369 0.000960364 0.000945872 0.000931882 0.000918381 0.000905358 0.000892802 0.000880705 0.000869057 0.000857849 0.000847072 0.00083672 0.000826785 0.00081726 0.000808138 0.000799414 0.000791083 0.000783138 0.000775576 0.000768392 0.000761581 0.00075514 0.000749066 0.000743354 0.000738003 0.00073301 0.000728372 0.000724086 0.000720152 0.000716567 0.00071333 0.00071044 0.000707895 0.000705695 0.000703839 0.00070232