<?xml version="1.0"?> 
<VTKFile type="StructuredGrid" version="0.1"> 
<StructuredGrid WholeExtent="0 256 0 256 0 0"> 
<Piece Extent="0 256 0 256 0 0"> 
<CellData>
<DataArray type="Float32" Name="err_h1" format="ascii" NumberOfComponents="1"> 
0.0178672 0.0082322 0.00488115 0.00277308 0.00151213 0.000815798 0.00045006 0.00024243 0.000141339 7.50967e-05 5.05433e-05 2.78043e-05 2.51912e-05 1.80458e-05 1.8778e-05 1.63999e-05 1.64989e-05 1.53446e-05 1.49835e-05 1.41867e-05 1.36638e-05 1.30049e-05 1.24529e-05 1.18707e-05 1.13402e-05 1.08158e-05 1.03243e-05 9.8503e-06 9.40222e-06 8.97426e-06 8.56877e-06 8.18308e-06 7.81742e-06 7.47022e-06 7.14106e-06 6.82872e-06 6.53248e-06 6.25147e-06 5.98494e-06 5.73195e-06 5.49193e-06 5.26406e-06 5.04771e-06 4.84236e-06 4.64708e-06 4.46178e-06 4.28541e-06 4.11789e-06 3.95848e-06 3.80691e-06 3.6626e-06 3.52533e-06 3.39457e-06 3.27005e-06 3.15142e-06 3.03842e-06 2.9307e-06 2.82793e-06 2.73012e-06 2.63667e-06 2.54764e-06 2.46265e-06 2.38158e-06 2.30419e-06 2.23038e-06 2.15987e-06 2.09261e-06 2.02837e-06 1.96708e-06 1.90853e-06 1.85269e-06 1.79937e-06 1.74842e-06 1.69984e-06 1.65345e-06 1.60924e-06 1.56697e-06 1.52675e-06 1.4883e-06 1.45173e-06 1.41679e-06 1.38365e-06 1.35189e-06 1.32182e-06 1.29306e-06 1.26576e-06 1.23982e-06 1.21512e-06 1.19167e-06 1.16943e-06 1.1483e-06 1.12831e-06 1.1093e-06 1.09132e-06 1.07427e-06 1.05821e-06 1.043e-06 1.0286e-06 1.01508e-06 1.00229e-06 9.903e-07 9.78951e-07 9.68404e-07 9.58421e-07 9.49047e-07 9.40267e-07 9.32119e-07 9.24417e-07 9.17322e-07 9.10703e-07 9.04526e-07 8.98819e-07 8.93508e-07 8.88603e-07 8.84121e-07 8.7996e-07 8.76196e-07 8.72712e-07 8.69561e-07 8.66704e-07 8.64145e-07 8.6183e-07 8.59849e-07 8.57989e-07 8.56384e-07 8.55067e-07 8.53897e-07 8.52958e-07 8.52152e-07 8.5154e-07 8.51096e-07 8.50814e-07 8.50649e-07 8.50631e-07 8.50754e-07 8.50952e-07 8.51301e-07 8.51756e-07 8.523e-07 8.52945e-07 8.53685e-07 8.54507e-07 8.55381e-07 8.56354e-07 8.57427e-07 8.58521e-07 8.59692e-07 8.60941e-07 8.6223e-07 8.6357e-07 8.65001e-07 8.66596e-07 8.68171e-07 8.69585e-07 8.71051e-07 8.7256e-07 8.74164e-07 8.7578e-07 8.77452e-07 8.79137e-07 8.80824e-07 8.82568e-07 8.84325e-07 8.86093e-07 8.87871e-07 8.89694e-07 8.91506e-07 8.93356e-07 8.95201e-07 8.97035e-07 8.9891e-07 9.00766e-07 9.0269e-07 9.04554e-07 9.0644e-07 9.08349e-07 9.10258e-07 9.12168e-07 9.14067e-07 9.16008e-07 9.17923e-07 9.19875e-07 9.21778e-07 9.23723e-07 9.25637e-07 9.27546e-07 9.29465e-07 9.31414e-07 9.33333e-07 9.35261e-07 9.37171e-07 9.39106e-07 9.41042e-07 9.42973e-07 9.44858e-07 9.46787e-07 9.48706e-07 9.50596e-07 9.52506e-07 9.54428e-07 9.56313e-07 9.58224e-07 9.60102e-07 9.61997e-07 9.6389e-07 9.6576e-07 9.67676e-07 9.69533e-07 9.71428e-07 9.73298e-07 9.75186e-07 9.77044e-07 9.78914e-07 9.80775e-07 9.82631e-07 9.84506e-07 9.86345e-07 9.882e-07 9.90047e-07 9.91895e-07 9.93743e-07 9.95587e-07 9.97426e-07 9.99263e-07 1.0011e-06 1.00294e-06 1.00477e-06 1.0066e-06 1.00842e-06 1.01026e-06 1.01209e-06 1.01391e-06 1.01574e-06 1.01756e-06 1.01938e-06 1.0212e-06 1.02303e-06 1.02485e-06 1.02667e-06 1.02849e-06 1.03031e-06 1.03213e-06 1.03396e-06 1.03578e-06 1.0376e-06 1.03943e-06 1.04125e-06 1.04308e-06 1.04491e-06 1.04673e-06 1.04857e-06 1.05039e-06 1.05226e-06 1.05401e-06 1.05602e-06 1.05797e-06 0.0137715 0.00497483 0.00215262 0.0011436 0.000605223 0.000313946 0.000187742 8.4722e-05 7.03242e-05 2.0075e-05 3.52251e-05 1.28974e-05 2.38416e-05 1.58328e-05 1.94095e-05 1.62756e-05 1.70412e-05 1.55274e-05 1.53405e-05 1.4392e-05 1.39092e-05 1.31837e-05 1.26337e-05 1.20186e-05 1.14804e-05 1.09373e-05 1.04367e-05 9.95063e-06 9.49446e-06 9.05796e-06 8.64573e-06 8.25362e-06 7.88248e-06 7.53027e-06 7.19667e-06 6.8803e-06 6.58047e-06 6.29619e-06 6.02669e-06 5.77103e-06 5.52855e-06 5.29848e-06 5.0801e-06 4.87286e-06 4.67591e-06 4.48898e-06 4.31124e-06 4.14239e-06 3.98179e-06 3.8291e-06 3.6838e-06 3.54558e-06 3.41396e-06 3.28868e-06 3.16932e-06 3.05568e-06 2.94732e-06 2.84407e-06 2.74568e-06 2.65183e-06 2.56235e-06 2.47701e-06 2.39559e-06 2.31791e-06 2.24381e-06 2.17308e-06 2.10559e-06 2.04117e-06 1.97971e-06 1.92106e-06 1.86507e-06 1.81164e-06 1.76064e-06 1.71199e-06 1.66558e-06 1.62131e-06 1.57906e-06 1.53879e-06 1.50037e-06 1.46381e-06 1.42892e-06 1.39576e-06 1.36408e-06 1.33401e-06 1.30535e-06 1.27813e-06 1.25219e-06 1.22756e-06 1.20418e-06 1.18198e-06 1.16091e-06 1.14094e-06 1.12201e-06 1.10406e-06 1.0871e-06 1.07105e-06 1.05586e-06 1.04152e-06 1.02798e-06 1.01526e-06 1.00322e-06 9.91933e-07 9.81293e-07 9.71304e-07 9.61935e-07 9.53177e-07 9.44895e-07 9.37216e-07 9.30008e-07 9.23302e-07 9.17057e-07 9.1125e-07 9.05829e-07 9.00849e-07 8.96222e-07 8.91954e-07 8.88029e-07 8.84416e-07 8.81123e-07 8.78118e-07 8.75378e-07 8.72886e-07 8.70678e-07 8.68702e-07 8.66939e-07 8.65351e-07 8.63995e-07 8.62824e-07 8.61826e-07 8.60991e-07 8.60305e-07 8.59774e-07 8.59394e-07 8.59123e-07 8.58995e-07 8.58974e-07 8.59057e-07 8.59264e-07 8.59551e-07 8.59945e-07 8.60416e-07 8.61004e-07 8.61624e-07 8.62322e-07 8.63084e-07 8.63922e-07 8.64844e-07 8.6579e-07 8.66816e-07 8.67899e-07 8.69059e-07 8.70294e-07 8.71542e-07 8.72734e-07 8.73962e-07 8.75221e-07 8.76547e-07 8.779e-07 8.79281e-07 8.80696e-07 8.82123e-07 8.83615e-07 8.85067e-07 8.86561e-07 8.88127e-07 8.89659e-07 8.91213e-07 8.92788e-07 8.94392e-07 8.95979e-07 8.9759e-07 8.99219e-07 9.0086e-07 9.02508e-07 9.04154e-07 9.05815e-07 9.07488e-07 9.09169e-07 9.10853e-07 9.12538e-07 9.14241e-07 9.15942e-07 9.17655e-07 9.19363e-07 9.21066e-07 9.22788e-07 9.24506e-07 9.26232e-07 9.27948e-07 9.29687e-07 9.31412e-07 9.33145e-07 9.34878e-07 9.36621e-07 9.38353e-07 9.40092e-07 9.41827e-07 9.43564e-07 9.45302e-07 9.4704e-07 9.48776e-07 9.50513e-07 9.52252e-07 9.53989e-07 9.55731e-07 9.57467e-07 9.59213e-07 9.60954e-07 9.62697e-07 9.64437e-07 9.66177e-07 9.67918e-07 9.69659e-07 9.714e-07 9.73139e-07 9.74884e-07 9.7662e-07 9.78356e-07 9.80096e-07 9.81836e-07 9.83574e-07 9.85316e-07 9.87057e-07 9.88795e-07 9.90535e-07 9.92277e-07 9.94016e-07 9.95754e-07 9.97497e-07 9.99239e-07 1.00098e-06 1.00272e-06 1.00446e-06 1.00621e-06 1.00795e-06 1.00969e-06 1.01144e-06 1.01319e-06 1.01493e-06 1.01668e-06 1.01843e-06 1.02018e-06 1.02193e-06 1.02368e-06 1.02543e-06 1.02719e-06 1.02894e-06 1.0307e-06 1.03246e-06 1.03421e-06 1.03599e-06 1.03771e-06 1.03956e-06 1.04115e-06 1.04326e-06 1.04557e-06 0.014299 0.00456979 0.00186783 0.000994398 0.000556503 0.000287362 0.000178858 8.04845e-05 6.7656e-05 2.27293e-05 3.41642e-05 1.60554e-05 2.36346e-05 1.72716e-05 1.95653e-05 1.70149e-05 1.72878e-05 1.59635e-05 1.55777e-05 1.46805e-05 1.41111e-05 1.33914e-05 1.27994e-05 1.2177e-05 1.16156e-05 1.10627e-05 1.05476e-05 1.00525e-05 9.58632e-06 9.14228e-06 8.7226e-06 8.32435e-06 7.94747e-06 7.59028e-06 7.2521e-06 6.93167e-06 6.62813e-06 6.34054e-06 6.06795e-06 5.80956e-06 5.56454e-06 5.33215e-06 5.11165e-06 4.90244e-06 4.70372e-06 4.51512e-06 4.33587e-06 4.16558e-06 4.00369e-06 3.84977e-06 3.70335e-06 3.56406e-06 3.43148e-06 3.30527e-06 3.18507e-06 3.07061e-06 2.96153e-06 2.85757e-06 2.75854e-06 2.66407e-06 2.57402e-06 2.48812e-06 2.40621e-06 2.32804e-06 2.25348e-06 2.18234e-06 2.11443e-06 2.04967e-06 1.98782e-06 1.92883e-06 1.87252e-06 1.81879e-06 1.76751e-06 1.71857e-06 1.6719e-06 1.62738e-06 1.58491e-06 1.54439e-06 1.5058e-06 1.46897e-06 1.43393e-06 1.40054e-06 1.36872e-06 1.33844e-06 1.30963e-06 1.28222e-06 1.25615e-06 1.23136e-06 1.20783e-06 1.18549e-06 1.16428e-06 1.14419e-06 1.12512e-06 1.10704e-06 1.08993e-06 1.07375e-06 1.05847e-06 1.04398e-06 1.03034e-06 1.01745e-06 1.00533e-06 9.93897e-07 9.83167e-07 9.73077e-07 9.63543e-07 9.54673e-07 9.46304e-07 9.38497e-07 9.31195e-07 9.24373e-07 9.18024e-07 9.12093e-07 9.06582e-07 9.01474e-07 8.96738e-07 8.92373e-07 8.8833e-07 8.84613e-07 8.8119e-07 8.78065e-07 8.75229e-07 8.72648e-07 8.70334e-07 8.68185e-07 8.66311e-07 8.6465e-07 8.63167e-07 8.61873e-07 8.60768e-07 8.5982e-07 8.59012e-07 8.58375e-07 8.57865e-07 8.57496e-07 8.57249e-07 8.57106e-07 8.57084e-07 8.57162e-07 8.57354e-07 8.57624e-07 8.57984e-07 8.58429e-07 8.58945e-07 8.59533e-07 8.60198e-07 8.60917e-07 8.61703e-07 8.62567e-07 8.63481e-07 8.64439e-07 8.6547e-07 8.66565e-07 8.67657e-07 8.68774e-07 8.69898e-07 8.71061e-07 8.72266e-07 8.73504e-07 8.74779e-07 8.76072e-07 8.7741e-07 8.78744e-07 8.80125e-07 8.81533e-07 8.82947e-07 8.84377e-07 8.85829e-07 8.87298e-07 8.88789e-07 8.90258e-07 8.91768e-07 8.93289e-07 8.94818e-07 8.96359e-07 8.97897e-07 8.99461e-07 9.01034e-07 9.02602e-07 9.04188e-07 9.05773e-07 9.07376e-07 9.08973e-07 9.10581e-07 9.1219e-07 9.13809e-07 9.15419e-07 9.17039e-07 9.18662e-07 9.20294e-07 9.21933e-07 9.23565e-07 9.25202e-07 9.26846e-07 9.28493e-07 9.30131e-07 9.3178e-07 9.33426e-07 9.35073e-07 9.3672e-07 9.38364e-07 9.40025e-07 9.41672e-07 9.43324e-07 9.44979e-07 9.46632e-07 9.48292e-07 9.49954e-07 9.51609e-07 9.53267e-07 9.54933e-07 9.56594e-07 9.58254e-07 9.59918e-07 9.61578e-07 9.63245e-07 9.64905e-07 9.66568e-07 9.68233e-07 9.69896e-07 9.71564e-07 9.73225e-07 9.74897e-07 9.76562e-07 9.78228e-07 9.79897e-07 9.81568e-07 9.83233e-07 9.84904e-07 9.86573e-07 9.88247e-07 9.8992e-07 9.9159e-07 9.93265e-07 9.9494e-07 9.96614e-07 9.98288e-07 9.99966e-07 1.00164e-06 1.00332e-06 1.005e-06 1.00668e-06 1.00836e-06 1.01005e-06 1.01173e-06 1.01341e-06 1.0151e-06 1.01679e-06 1.01847e-06 1.02017e-06 1.02185e-06 1.02356e-06 1.0252e-06 1.02701e-06 1.02844e-06 1.03065e-06 1.03333e-06 0.0135019 0.00414891 0.00177906 0.000933565 0.000519666 0.000257801 0.000157325 6.98192e-05 5.75683e-05 2.38562e-05 3.05188e-05 1.91778e-05 2.27473e-05 1.88624e-05 1.95531e-05 1.78178e-05 1.74927e-05 1.64205e-05 1.58051e-05 1.49757e-05 1.43114e-05 1.36015e-05 1.29655e-05 1.23365e-05 1.17515e-05 1.11888e-05 1.06592e-05 1.0155e-05 9.67871e-06 9.22705e-06 8.7999e-06 8.39544e-06 8.01278e-06 7.65057e-06 7.30777e-06 6.98325e-06 6.67597e-06 6.385e-06 6.10935e-06 5.84813e-06 5.60059e-06 5.36578e-06 5.14319e-06 4.93194e-06 4.73144e-06 4.54109e-06 4.36032e-06 4.18854e-06 4.02531e-06 3.87012e-06 3.72253e-06 3.58214e-06 3.44852e-06 3.32135e-06 3.20024e-06 3.08493e-06 2.97505e-06 2.87033e-06 2.77056e-06 2.67543e-06 2.58472e-06 2.49823e-06 2.4157e-06 2.33701e-06 2.2619e-06 2.19026e-06 2.12185e-06 2.05663e-06 1.99433e-06 1.93491e-06 1.87816e-06 1.82404e-06 1.77238e-06 1.72306e-06 1.67603e-06 1.63114e-06 1.58834e-06 1.54748e-06 1.50856e-06 1.47143e-06 1.43606e-06 1.40235e-06 1.37025e-06 1.33968e-06 1.31058e-06 1.28289e-06 1.25653e-06 1.2315e-06 1.2077e-06 1.1851e-06 1.16363e-06 1.14329e-06 1.12396e-06 1.10567e-06 1.08833e-06 1.07192e-06 1.05639e-06 1.04171e-06 1.02783e-06 1.01477e-06 1.00243e-06 9.90837e-07 9.79867e-07 9.69571e-07 9.5993e-07 9.5083e-07 9.42298e-07 9.34311e-07 9.26847e-07 9.19888e-07 9.1336e-07 9.07302e-07 9.01632e-07 8.96384e-07 8.91493e-07 8.86987e-07 8.82838e-07 8.78983e-07 8.75446e-07 8.72212e-07 8.69258e-07 8.66532e-07 8.6411e-07 8.61925e-07 8.59942e-07 8.58164e-07 8.56589e-07 8.55212e-07 8.54012e-07 8.52979e-07 8.52103e-07 8.51385e-07 8.50814e-07 8.50355e-07 8.50042e-07 8.49837e-07 8.49766e-07 8.49792e-07 8.49912e-07 8.50127e-07 8.5044e-07 8.50826e-07 8.51285e-07 8.51833e-07 8.52436e-07 8.5312e-07 8.53874e-07 8.54681e-07 8.5554e-07 8.56467e-07 8.57449e-07 8.5847e-07 8.59539e-07 8.606e-07 8.61702e-07 8.62846e-07 8.64023e-07 8.65229e-07 8.6647e-07 8.67748e-07 8.69033e-07 8.70361e-07 8.71696e-07 8.73059e-07 8.7444e-07 8.75847e-07 8.7727e-07 8.78704e-07 8.80151e-07 8.81608e-07 8.83097e-07 8.84583e-07 8.86092e-07 8.8759e-07 8.89112e-07 8.90646e-07 8.92179e-07 8.9373e-07 8.95277e-07 8.96838e-07 8.98406e-07 8.99973e-07 9.01548e-07 9.03132e-07 9.04711e-07 9.06294e-07 9.07892e-07 9.09489e-07 9.11086e-07 9.12686e-07 9.14283e-07 9.1589e-07 9.17497e-07 9.19113e-07 9.20717e-07 9.2233e-07 9.23936e-07 9.25548e-07 9.27159e-07 9.28771e-07 9.30387e-07 9.32001e-07 9.33619e-07 9.35229e-07 9.36849e-07 9.38468e-07 9.40083e-07 9.41701e-07 9.43318e-07 9.44938e-07 9.46553e-07 9.48171e-07 9.49787e-07 9.51406e-07 9.53023e-07 9.54641e-07 9.56257e-07 9.57872e-07 9.59489e-07 9.61103e-07 9.6272e-07 9.64337e-07 9.65952e-07 9.67567e-07 9.69184e-07 9.70798e-07 9.72415e-07 9.74028e-07 9.75646e-07 9.77263e-07 9.78878e-07 9.80492e-07 9.8211e-07 9.83726e-07 9.85342e-07 9.86958e-07 9.88577e-07 9.90194e-07 9.91811e-07 9.9343e-07 9.95047e-07 9.96668e-07 9.98286e-07 9.99907e-07 1.00153e-06 1.00315e-06 1.00477e-06 1.00639e-06 1.00802e-06 1.00963e-06 1.01128e-06 1.01284e-06 1.01462e-06 1.0159e-06 1.0182e-06 1.02124e-06 0.0118239 0.00357498 0.00151865 0.000771797 0.000417977 0.000199085 0.000119099 5.41771e-05 4.44167e-05 2.53219e-05 2.70202e-05 2.18266e-05 2.21706e-05 2.0236e-05 1.96854e-05 1.8536e-05 1.77551e-05 1.68458e-05 1.6055e-05 1.52596e-05 1.45207e-05 1.38081e-05 1.31354e-05 1.24952e-05 1.18893e-05 1.13151e-05 1.07718e-05 1.02579e-05 9.7718e-06 9.31226e-06 8.87775e-06 8.46696e-06 8.07853e-06 7.71125e-06 7.36383e-06 7.0352e-06 6.72417e-06 6.42981e-06 6.15107e-06 5.88705e-06 5.63694e-06 5.39979e-06 5.17503e-06 4.9618e-06 4.75948e-06 4.56742e-06 4.3851e-06 4.21187e-06 4.04732e-06 3.89086e-06 3.74212e-06 3.60063e-06 3.46601e-06 3.3379e-06 3.21591e-06 3.09974e-06 2.98911e-06 2.88365e-06 2.78319e-06 2.68741e-06 2.59609e-06 2.50901e-06 2.42595e-06 2.34672e-06 2.27115e-06 2.19901e-06 2.13018e-06 2.06452e-06 2.00182e-06 1.94201e-06 1.88491e-06 1.83042e-06 1.7784e-06 1.72879e-06 1.68142e-06 1.63625e-06 1.59314e-06 1.55203e-06 1.51281e-06 1.47544e-06 1.43983e-06 1.40585e-06 1.37352e-06 1.3427e-06 1.31339e-06 1.28547e-06 1.25891e-06 1.23366e-06 1.20966e-06 1.18686e-06 1.16521e-06 1.14464e-06 1.12514e-06 1.10666e-06 1.08915e-06 1.07256e-06 1.05687e-06 1.04202e-06 1.028e-06 1.01475e-06 1.00226e-06 9.90486e-07 9.79369e-07 9.6889e-07 9.59072e-07 9.49863e-07 9.41202e-07 9.33083e-07 9.25484e-07 9.18363e-07 9.11724e-07 9.05494e-07 8.99719e-07 8.94338e-07 8.89337e-07 8.84711e-07 8.80429e-07 8.76462e-07 8.72821e-07 8.69455e-07 8.66406e-07 8.63579e-07 8.61045e-07 8.58723e-07 8.5663e-07 8.54753e-07 8.53077e-07 8.51593e-07 8.50285e-07 8.49155e-07 8.48186e-07 8.47369e-07 8.46684e-07 8.46154e-07 8.45746e-07 8.45462e-07 8.45289e-07 8.45222e-07 8.45252e-07 8.45385e-07 8.45596e-07 8.45901e-07 8.46284e-07 8.46748e-07 8.47273e-07 8.47873e-07 8.48537e-07 8.4926e-07 8.50051e-07 8.50891e-07 8.51785e-07 8.52731e-07 8.53695e-07 8.54697e-07 8.55732e-07 8.56806e-07 8.57912e-07 8.59047e-07 8.60213e-07 8.61403e-07 8.62631e-07 8.6387e-07 8.65149e-07 8.66442e-07 8.67756e-07 8.69087e-07 8.70434e-07 8.71798e-07 8.73182e-07 8.74576e-07 8.75985e-07 8.77412e-07 8.78836e-07 8.80284e-07 8.81741e-07 8.83197e-07 8.84669e-07 8.86145e-07 8.87629e-07 8.89121e-07 8.90625e-07 8.92132e-07 8.93638e-07 8.95161e-07 8.96673e-07 8.98197e-07 8.99736e-07 9.01258e-07 9.02792e-07 9.04326e-07 9.05866e-07 9.07406e-07 9.08952e-07 9.10501e-07 9.12047e-07 9.13589e-07 9.15142e-07 9.16692e-07 9.18239e-07 9.19794e-07 9.21346e-07 9.22907e-07 9.24452e-07 9.26011e-07 9.27569e-07 9.29118e-07 9.3068e-07 9.32237e-07 9.33789e-07 9.35349e-07 9.36906e-07 9.38463e-07 9.40019e-07 9.41576e-07 9.43135e-07 9.44689e-07 9.46246e-07 9.47802e-07 9.49355e-07 9.50914e-07 9.5247e-07 9.54024e-07 9.55581e-07 9.57133e-07 9.58688e-07 9.60246e-07 9.61799e-07 9.63355e-07 9.64908e-07 9.66465e-07 9.68017e-07 9.69574e-07 9.71128e-07 9.72682e-07 9.74238e-07 9.75791e-07 9.77346e-07 9.78902e-07 9.80456e-07 9.82013e-07 9.83568e-07 9.85122e-07 9.86679e-07 9.88235e-07 9.89792e-07 9.91348e-07 9.92907e-07 9.9446e-07 9.96026e-07 9.97567e-07 9.99162e-07 1.00064e-06 1.00239e-06 1.00351e-06 1.00592e-06 1.00932e-06 0.00993812 0.00306372 0.00120276 0.000594558 0.00030483 0.000146628 8.27744e-05 4.66602e-05 3.4425e-05 2.85248e-05 2.52057e-05 2.40548e-05 2.2174e-05 2.13604e-05 2.001e-05 1.91567e-05 1.80837e-05 1.72364e-05 1.63285e-05 1.5532e-05 1.47388e-05 1.40111e-05 1.33089e-05 1.26532e-05 1.20287e-05 1.14416e-05 1.08853e-05 1.03611e-05 9.86552e-06 9.39787e-06 8.95606e-06 8.53884e-06 8.14468e-06 7.77225e-06 7.42021e-06 7.08742e-06 6.77262e-06 6.47486e-06 6.19299e-06 5.92618e-06 5.67343e-06 5.43398e-06 5.20699e-06 4.99178e-06 4.7876e-06 4.59386e-06 4.40994e-06 4.23527e-06 4.06933e-06 3.91163e-06 3.7617e-06 3.61913e-06 3.48347e-06 3.3544e-06 3.23151e-06 3.11451e-06 3.00306e-06 2.89688e-06 2.7957e-06 2.69926e-06 2.6073e-06 2.51962e-06 2.436e-06 2.35623e-06 2.28013e-06 2.20754e-06 2.13821e-06 2.07212e-06 2.00899e-06 1.94878e-06 1.89127e-06 1.83642e-06 1.78405e-06 1.73407e-06 1.68639e-06 1.64087e-06 1.59746e-06 1.55604e-06 1.51654e-06 1.47887e-06 1.44296e-06 1.40875e-06 1.37611e-06 1.34507e-06 1.31549e-06 1.28733e-06 1.26053e-06 1.23503e-06 1.21082e-06 1.18779e-06 1.16591e-06 1.14514e-06 1.12543e-06 1.10674e-06 1.08901e-06 1.07225e-06 1.05635e-06 1.04131e-06 1.02709e-06 1.01366e-06 1.00098e-06 9.89044e-07 9.77815e-07 9.6715e-07 9.57158e-07 9.47771e-07 9.38948e-07 9.30687e-07 9.22911e-07 9.15654e-07 9.08852e-07 9.02514e-07 8.96588e-07 8.91076e-07 8.85946e-07 8.81193e-07 8.76784e-07 8.72701e-07 8.68928e-07 8.65461e-07 8.62266e-07 8.59371e-07 8.5671e-07 8.5428e-07 8.5208e-07 8.50102e-07 8.48326e-07 8.46758e-07 8.45364e-07 8.44137e-07 8.43082e-07 8.42175e-07 8.41405e-07 8.40794e-07 8.40293e-07 8.39926e-07 8.39666e-07 8.39518e-07 8.39478e-07 8.39543e-07 8.39688e-07 8.39919e-07 8.40225e-07 8.40616e-07 8.41083e-07 8.41624e-07 8.42224e-07 8.42875e-07 8.4361e-07 8.44379e-07 8.45219e-07 8.46076e-07 8.46991e-07 8.47937e-07 8.4892e-07 8.4994e-07 8.50983e-07 8.52059e-07 8.53171e-07 8.54315e-07 8.5548e-07 8.56676e-07 8.57896e-07 8.59125e-07 8.60391e-07 8.61666e-07 8.62968e-07 8.64278e-07 8.65615e-07 8.66953e-07 8.68318e-07 8.69677e-07 8.71068e-07 8.72466e-07 8.73867e-07 8.7528e-07 8.76698e-07 8.78123e-07 8.79562e-07 8.81004e-07 8.82464e-07 8.83914e-07 8.85374e-07 8.8684e-07 8.88309e-07 8.89783e-07 8.91262e-07 8.92741e-07 8.94228e-07 8.95717e-07 8.97205e-07 8.98699e-07 9.00197e-07 9.01696e-07 9.03192e-07 9.04684e-07 9.06193e-07 9.0769e-07 9.09192e-07 9.10696e-07 9.12195e-07 9.13703e-07 9.15206e-07 9.16711e-07 9.18213e-07 9.19718e-07 9.21225e-07 9.22729e-07 9.24235e-07 9.25738e-07 9.27248e-07 9.2875e-07 9.3025e-07 9.3176e-07 9.33262e-07 9.34767e-07 9.36268e-07 9.3777e-07 9.39275e-07 9.40776e-07 9.42278e-07 9.43777e-07 9.45276e-07 9.46775e-07 9.48277e-07 9.49775e-07 9.51275e-07 9.52771e-07 9.5427e-07 9.55769e-07 9.57265e-07 9.58761e-07 9.60258e-07 9.61754e-07 9.63249e-07 9.64746e-07 9.6624e-07 9.67736e-07 9.69231e-07 9.70726e-07 9.7222e-07 9.73716e-07 9.75208e-07 9.76704e-07 9.78199e-07 9.79691e-07 9.81187e-07 9.82677e-07 9.84179e-07 9.85653e-07 9.87191e-07 9.88584e-07 9.9031e-07 9.91278e-07 9.93789e-07 9.97548e-07 0.00818621 0.00271826 0.00092132 0.000460108 0.000209712 0.00011838 5.65311e-05 4.81071e-05 2.95055e-05 3.19145e-05 2.50022e-05 2.58137e-05 2.26413e-05 2.22766e-05 2.04798e-05 1.97029e-05 1.84605e-05 1.76022e-05 1.66187e-05 1.57967e-05 1.49631e-05 1.42122e-05 1.3485e-05 1.2811e-05 1.21694e-05 1.15683e-05 1.09997e-05 1.04648e-05 9.95981e-06 9.48394e-06 9.03482e-06 8.61114e-06 8.21119e-06 7.83361e-06 7.47692e-06 7.13995e-06 6.82136e-06 6.52018e-06 6.23519e-06 5.96553e-06 5.7102e-06 5.46834e-06 5.23919e-06 5.02197e-06 4.81591e-06 4.62051e-06 4.43496e-06 4.25887e-06 4.09153e-06 3.93259e-06 3.78147e-06 3.6378e-06 3.50112e-06 3.37108e-06 3.24729e-06 3.12945e-06 3.01721e-06 2.91028e-06 2.8084e-06 2.71128e-06 2.6187e-06 2.53044e-06 2.44624e-06 2.36597e-06 2.28933e-06 2.21626e-06 2.1465e-06 2.07995e-06 2.01641e-06 1.9558e-06 1.89791e-06 1.84268e-06 1.78996e-06 1.73966e-06 1.69163e-06 1.64582e-06 1.60209e-06 1.56038e-06 1.52058e-06 1.48265e-06 1.44647e-06 1.412e-06 1.37914e-06 1.34781e-06 1.31801e-06 1.2896e-06 1.26259e-06 1.23687e-06 1.21242e-06 1.18917e-06 1.1671e-06 1.14612e-06 1.1262e-06 1.10731e-06 1.08941e-06 1.07241e-06 1.05636e-06 1.04114e-06 1.02675e-06 1.01315e-06 1.00028e-06 9.88185e-07 9.76769e-07 9.65939e-07 9.55812e-07 9.46244e-07 9.37283e-07 9.28876e-07 9.20973e-07 9.13553e-07 9.06621e-07 9.00139e-07 8.94086e-07 8.88435e-07 8.83198e-07 8.78307e-07 8.73772e-07 8.69567e-07 8.6569e-07 8.62104e-07 8.58805e-07 8.55759e-07 8.5297e-07 8.50456e-07 8.48183e-07 8.46077e-07 8.44214e-07 8.42532e-07 8.41052e-07 8.39735e-07 8.38588e-07 8.37577e-07 8.36737e-07 8.36016e-07 8.35452e-07 8.34993e-07 8.34655e-07 8.34426e-07 8.34291e-07 8.3426e-07 8.34332e-07 8.34495e-07 8.3474e-07 8.35054e-07 8.3545e-07 8.359e-07 8.36416e-07 8.37022e-07 8.37665e-07 8.38377e-07 8.39128e-07 8.39921e-07 8.40766e-07 8.41645e-07 8.42572e-07 8.43524e-07 8.44504e-07 8.45527e-07 8.46576e-07 8.47647e-07 8.48762e-07 8.49893e-07 8.51047e-07 8.52235e-07 8.5343e-07 8.54653e-07 8.55882e-07 8.57142e-07 8.58418e-07 8.59702e-07 8.60995e-07 8.62319e-07 8.63645e-07 8.64982e-07 8.66324e-07 8.67672e-07 8.69047e-07 8.70422e-07 8.71803e-07 8.73185e-07 8.74586e-07 8.7598e-07 8.77386e-07 8.78803e-07 8.80219e-07 8.81632e-07 8.83068e-07 8.84492e-07 8.85919e-07 8.87356e-07 8.88789e-07 8.90232e-07 8.91672e-07 8.93114e-07 8.94551e-07 8.95998e-07 8.97448e-07 8.98895e-07 9.00341e-07 9.01786e-07 9.03239e-07 9.04694e-07 9.0614e-07 9.07587e-07 9.09042e-07 9.10491e-07 9.11943e-07 9.13395e-07 9.14847e-07 9.16297e-07 9.17748e-07 9.19192e-07 9.20646e-07 9.22096e-07 9.23544e-07 9.24995e-07 9.26441e-07 9.2789e-07 9.29334e-07 9.30781e-07 9.32231e-07 9.33671e-07 9.35115e-07 9.36557e-07 9.38004e-07 9.39445e-07 9.40886e-07 9.42327e-07 9.43771e-07 9.45209e-07 9.46646e-07 9.48087e-07 9.49525e-07 9.50964e-07 9.52401e-07 9.53837e-07 9.55273e-07 9.56709e-07 9.58145e-07 9.5958e-07 9.61015e-07 9.62448e-07 9.63882e-07 9.65315e-07 9.66747e-07 9.6818e-07 9.69613e-07 9.7104e-07 9.72481e-07 9.7389e-07 9.75372e-07 9.76683e-07 9.78385e-07 9.79198e-07 9.81818e-07 9.85932e-07 0.00669117 0.00252905 0.000716924 0.000388993 0.000143542 0.000113072 4.26259e-05 5.26545e-05 2.88043e-05 3.46528e-05 2.58349e-05 2.71796e-05 2.33966e-05 2.3051e-05 2.10384e-05 2.0203e-05 1.88661e-05 1.7954e-05 1.69189e-05 1.60576e-05 1.51911e-05 1.44127e-05 1.36628e-05 1.29691e-05 1.2311e-05 1.16956e-05 1.11147e-05 1.0569e-05 1.00546e-05 9.57046e-06 9.11401e-06 8.68383e-06 8.27807e-06 7.8953e-06 7.53394e-06 7.19277e-06 6.87038e-06 6.56574e-06 6.27763e-06 6.0051e-06 5.74716e-06 5.50292e-06 5.27156e-06 5.05233e-06 4.84441e-06 4.64726e-06 4.46014e-06 4.28256e-06 4.11387e-06 3.95365e-06 3.80134e-06 3.65657e-06 3.51886e-06 3.38784e-06 3.26316e-06 3.14445e-06 3.03142e-06 2.92373e-06 2.82116e-06 2.72336e-06 2.63016e-06 2.5413e-06 2.45654e-06 2.3757e-06 2.29859e-06 2.225e-06 2.1548e-06 2.08779e-06 2.02384e-06 1.96281e-06 1.90456e-06 1.84894e-06 1.79586e-06 1.74521e-06 1.69686e-06 1.65072e-06 1.60669e-06 1.56468e-06 1.5246e-06 1.48639e-06 1.44991e-06 1.4152e-06 1.38205e-06 1.35051e-06 1.32043e-06 1.2918e-06 1.26455e-06 1.23861e-06 1.21393e-06 1.19048e-06 1.16817e-06 1.147e-06 1.12686e-06 1.10779e-06 1.08967e-06 1.07251e-06 1.05623e-06 1.04084e-06 1.02628e-06 1.01249e-06 9.99447e-07 9.87144e-07 9.75598e-07 9.64614e-07 9.54312e-07 9.44608e-07 9.35487e-07 9.26895e-07 9.18867e-07 9.11303e-07 9.04228e-07 8.97613e-07 8.91419e-07 8.85648e-07 8.80243e-07 8.75251e-07 8.70594e-07 8.66275e-07 8.62265e-07 8.58554e-07 8.5515e-07 8.52011e-07 8.49145e-07 8.46493e-07 8.44094e-07 8.41914e-07 8.39934e-07 8.38167e-07 8.36577e-07 8.35164e-07 8.33925e-07 8.32829e-07 8.31896e-07 8.31101e-07 8.30441e-07 8.29894e-07 8.29476e-07 8.29168e-07 8.28972e-07 8.28868e-07 8.28863e-07 8.2894e-07 8.291e-07 8.29357e-07 8.29656e-07 8.30055e-07 8.30524e-07 8.31035e-07 8.31623e-07 8.32252e-07 8.32937e-07 8.33672e-07 8.34456e-07 8.35278e-07 8.36136e-07 8.37027e-07 8.37954e-07 8.3891e-07 8.39898e-07 8.40928e-07 8.4197e-07 8.43046e-07 8.44155e-07 8.45269e-07 8.46423e-07 8.47574e-07 8.48763e-07 8.49968e-07 8.5118e-07 8.52403e-07 8.53656e-07 8.54921e-07 8.5619e-07 8.57472e-07 8.58757e-07 8.60065e-07 8.61382e-07 8.62704e-07 8.64028e-07 8.65371e-07 8.66715e-07 8.68064e-07 8.69415e-07 8.70776e-07 8.72135e-07 8.73513e-07 8.7489e-07 8.76259e-07 8.7764e-07 8.79024e-07 8.80407e-07 8.81793e-07 8.83182e-07 8.84572e-07 8.85965e-07 8.87362e-07 8.8876e-07 8.9015e-07 8.91546e-07 8.92945e-07 8.94352e-07 8.95745e-07 8.97138e-07 8.98538e-07 8.99943e-07 9.0134e-07 9.02737e-07 9.04138e-07 9.0554e-07 9.06936e-07 9.08334e-07 9.09733e-07 9.11129e-07 9.12527e-07 9.13925e-07 9.15319e-07 9.16713e-07 9.18106e-07 9.195e-07 9.20894e-07 9.22285e-07 9.23674e-07 9.25061e-07 9.26452e-07 9.27841e-07 9.2923e-07 9.30615e-07 9.32e-07 9.33389e-07 9.3477e-07 9.36154e-07 9.37536e-07 9.38918e-07 9.403e-07 9.41678e-07 9.43058e-07 9.44437e-07 9.45816e-07 9.47192e-07 9.48568e-07 9.49945e-07 9.51319e-07 9.52693e-07 9.54065e-07 9.55439e-07 9.5681e-07 9.58184e-07 9.59549e-07 9.6093e-07 9.62274e-07 9.63701e-07 9.64933e-07 9.66612e-07 9.67272e-07 9.70004e-07 9.74469e-07 0.00546813 0.00243477 0.00060036 0.000369376 0.000108792 0.000118109 3.95964e-05 5.68144e-05 3.05243e-05 3.66977e-05 2.72203e-05 2.8286e-05 2.43062e-05 2.37444e-05 2.16434e-05 2.06796e-05 1.92864e-05 1.82996e-05 1.72241e-05 1.63173e-05 1.54213e-05 1.46134e-05 1.38417e-05 1.31277e-05 1.24535e-05 1.18234e-05 1.12303e-05 1.06737e-05 1.01499e-05 9.65741e-06 9.19364e-06 8.7569e-06 8.34533e-06 7.95732e-06 7.59129e-06 7.24587e-06 6.91967e-06 6.61156e-06 6.3203e-06 6.0449e-06 5.78433e-06 5.53769e-06 5.30413e-06 5.08285e-06 4.87306e-06 4.6742e-06 4.48547e-06 4.30641e-06 4.13634e-06 3.97485e-06 3.82135e-06 3.67547e-06 3.53672e-06 3.40473e-06 3.27913e-06 3.15959e-06 3.04575e-06 2.93729e-06 2.83403e-06 2.73554e-06 2.64172e-06 2.55225e-06 2.46693e-06 2.38556e-06 2.30792e-06 2.23386e-06 2.16318e-06 2.09575e-06 2.03136e-06 1.96994e-06 1.91129e-06 1.85531e-06 1.80187e-06 1.75089e-06 1.70218e-06 1.65574e-06 1.6114e-06 1.56909e-06 1.52873e-06 1.49022e-06 1.45351e-06 1.41849e-06 1.38513e-06 1.3533e-06 1.323e-06 1.29413e-06 1.26664e-06 1.24049e-06 1.21558e-06 1.19191e-06 1.16941e-06 1.14801e-06 1.1277e-06 1.10839e-06 1.09011e-06 1.07274e-06 1.05629e-06 1.04069e-06 1.02593e-06 1.01199e-06 9.98793e-07 9.86296e-07 9.74553e-07 9.63455e-07 9.52996e-07 9.43127e-07 9.33835e-07 9.25113e-07 9.1693e-07 9.09222e-07 9.02024e-07 8.95261e-07 8.88944e-07 8.83028e-07 8.77522e-07 8.7236e-07 8.6758e-07 8.63141e-07 8.5903e-07 8.55201e-07 8.51662e-07 8.4844e-07 8.45455e-07 8.42697e-07 8.4019e-07 8.37916e-07 8.35846e-07 8.33973e-07 8.3228e-07 8.30784e-07 8.29437e-07 8.28258e-07 8.27233e-07 8.26349e-07 8.25596e-07 8.24967e-07 8.24475e-07 8.24092e-07 8.23801e-07 8.23621e-07 8.23538e-07 8.23542e-07 8.2364e-07 8.23803e-07 8.24053e-07 8.24382e-07 8.2476e-07 8.25213e-07 8.25717e-07 8.2629e-07 8.26909e-07 8.27579e-07 8.28296e-07 8.29046e-07 8.29846e-07 8.30669e-07 8.31539e-07 8.32434e-07 8.3337e-07 8.34334e-07 8.35329e-07 8.36351e-07 8.37386e-07 8.38454e-07 8.39534e-07 8.40649e-07 8.41782e-07 8.42917e-07 8.44073e-07 8.45252e-07 8.46445e-07 8.47651e-07 8.48867e-07 8.50098e-07 8.51335e-07 8.52583e-07 8.53848e-07 8.55109e-07 8.56389e-07 8.57674e-07 8.58966e-07 8.60259e-07 8.61563e-07 8.62874e-07 8.64189e-07 8.65504e-07 8.66825e-07 8.68148e-07 8.69477e-07 8.70812e-07 8.7214e-07 8.73479e-07 8.74815e-07 8.76155e-07 8.77494e-07 8.78845e-07 8.80182e-07 8.81528e-07 8.82875e-07 8.84225e-07 8.85567e-07 8.86911e-07 8.88257e-07 8.8961e-07 8.90956e-07 8.92306e-07 8.93653e-07 8.95e-07 8.96347e-07 8.97694e-07 8.99042e-07 9.00382e-07 9.0173e-07 9.03076e-07 9.04418e-07 9.0576e-07 9.07102e-07 9.08444e-07 9.09784e-07 9.11123e-07 9.1246e-07 9.13796e-07 9.15132e-07 9.16469e-07 9.17805e-07 9.19138e-07 9.20469e-07 9.21798e-07 9.23131e-07 9.2446e-07 9.25787e-07 9.27114e-07 9.2844e-07 9.29765e-07 9.3109e-07 9.32411e-07 9.33733e-07 9.35053e-07 9.36374e-07 9.37695e-07 9.39012e-07 9.40327e-07 9.41643e-07 9.42957e-07 9.44272e-07 9.45584e-07 9.46898e-07 9.48203e-07 9.49525e-07 9.50805e-07 9.52179e-07 9.53332e-07 9.5499e-07 9.55497e-07 9.58345e-07 9.63157e-07 0.00448835 0.0023774 0.000557302 0.000375007 0.000101024 0.000124557 4.30192e-05 5.98836e-05 3.3356e-05 3.82749e-05 2.88653e-05 2.92535e-05 2.5286e-05 2.44006e-05 2.22681e-05 2.11472e-05 1.97125e-05 1.86436e-05 1.75315e-05 1.65773e-05 1.56526e-05 1.48147e-05 1.40214e-05 1.3287e-05 1.25966e-05 1.19519e-05 1.13464e-05 1.0779e-05 1.02457e-05 9.74481e-06 9.27365e-06 8.83036e-06 8.41291e-06 8.01967e-06 7.64893e-06 7.29927e-06 6.96922e-06 6.65764e-06 6.3632e-06 6.08492e-06 5.8217e-06 5.57265e-06 5.33687e-06 5.11355e-06 4.90189e-06 4.70127e-06 4.51097e-06 4.33039e-06 4.15896e-06 3.99617e-06 3.84148e-06 3.69446e-06 3.5547e-06 3.42171e-06 3.29522e-06 3.1748e-06 3.06016e-06 2.95096e-06 2.84696e-06 2.74781e-06 2.65335e-06 2.56328e-06 2.4774e-06 2.39547e-06 2.31732e-06 2.24279e-06 2.17165e-06 2.10376e-06 2.03896e-06 1.97711e-06 1.91809e-06 1.86172e-06 1.80795e-06 1.75659e-06 1.70759e-06 1.6608e-06 1.61616e-06 1.57354e-06 1.53291e-06 1.49413e-06 1.45713e-06 1.42186e-06 1.38823e-06 1.35615e-06 1.32561e-06 1.2965e-06 1.26878e-06 1.24238e-06 1.21727e-06 1.19339e-06 1.17066e-06 1.14907e-06 1.12853e-06 1.10906e-06 1.09054e-06 1.073e-06 1.05636e-06 1.0406e-06 1.02566e-06 1.01154e-06 9.9814e-07 9.85513e-07 9.73588e-07 9.62321e-07 9.51674e-07 9.41686e-07 9.32251e-07 9.23381e-07 9.15015e-07 9.07184e-07 8.99831e-07 8.92936e-07 8.86465e-07 8.80428e-07 8.74784e-07 8.69524e-07 8.64612e-07 8.6004e-07 8.55797e-07 8.51878e-07 8.48241e-07 8.4488e-07 8.41771e-07 8.38941e-07 8.36316e-07 8.33926e-07 8.3176e-07 8.29776e-07 8.28006e-07 8.26399e-07 8.24976e-07 8.23709e-07 8.22591e-07 8.21633e-07 8.20791e-07 8.20088e-07 8.1951e-07 8.19031e-07 8.18675e-07 8.18422e-07 8.18258e-07 8.18186e-07 8.18205e-07 8.18301e-07 8.18471e-07 8.18719e-07 8.19044e-07 8.19436e-07 8.19882e-07 8.20373e-07 8.20921e-07 8.21531e-07 8.22179e-07 8.22871e-07 8.23607e-07 8.24368e-07 8.25177e-07 8.26021e-07 8.26893e-07 8.27798e-07 8.28726e-07 8.29685e-07 8.30669e-07 8.31681e-07 8.32708e-07 8.33773e-07 8.34835e-07 8.35927e-07 8.37033e-07 8.38155e-07 8.39296e-07 8.40446e-07 8.41608e-07 8.42781e-07 8.43966e-07 8.45175e-07 8.46375e-07 8.47595e-07 8.48821e-07 8.50045e-07 8.51286e-07 8.52531e-07 8.53785e-07 8.55044e-07 8.56303e-07 8.57569e-07 8.58849e-07 8.60112e-07 8.6139e-07 8.62673e-07 8.63957e-07 8.65239e-07 8.66526e-07 8.67813e-07 8.69116e-07 8.70406e-07 8.71696e-07 8.72994e-07 8.7429e-07 8.75583e-07 8.76879e-07 8.78175e-07 8.79475