<?xml version="1.0"?> 
<VTKFile type="StructuredGrid" version="0.1"> 
<StructuredGrid WholeExtent="0 256 0 256 0 0"> 
<Piece Extent="0 256 0 256 0 0"> 
<CellData>
<DataArray type="Float32" Name="err_h1" format="ascii" NumberOfComponents="1"> 
0.0555663 0.0203418 0.00434595 0.00342128 0.00195353 0.000447215 0.000223661 0.00014765 7.83842e-05 4.69638e-05 3.47173e-05 2.53411e-05 1.74676e-05 1.40527e-05 9.7849e-06 8.09274e-06 6.0128e-06 5.32813e-06 4.98114e-06 5.22897e-06 5.73462e-06 6.34283e-06 6.9981e-06 7.63302e-06 8.24644e-06 8.82295e-06 9.36531e-06 9.87331e-06 1.03498e-05 1.07974e-05 1.12193e-05 1.16179e-05 1.19958e-05 1.23553e-05 1.26984e-05 1.30269e-05 1.33425e-05 1.36466e-05 1.39405e-05 1.42253e-05 1.4502e-05 1.47716e-05 1.50348e-05 1.52924e-05 1.55451e-05 1.57934e-05 1.60379e-05 1.62788e-05 1.65167e-05 1.67523e-05 1.69856e-05 1.7217e-05 1.74467e-05 1.76752e-05 1.79024e-05 1.81289e-05 1.83545e-05 1.85794e-05 1.8804e-05 1.90285e-05 1.92528e-05 1.94772e-05 1.97016e-05 1.99263e-05 2.01513e-05 2.03769e-05 2.06029e-05 2.08297e-05 2.10568e-05 2.12847e-05 2.15135e-05 2.1743e-05 2.19734e-05 2.22047e-05 2.24368e-05 2.267e-05 2.29041e-05 2.31393e-05 2.33755e-05 2.36128e-05 2.38511e-05 2.40905e-05 2.43312e-05 2.45727e-05 2.48155e-05 2.50595e-05 2.53043e-05 2.55503e-05 2.57975e-05 2.60457e-05 2.6295e-05 2.65454e-05 2.67968e-05 2.70493e-05 2.73028e-05 2.75573e-05 2.78127e-05 2.80691e-05 2.83264e-05 2.85845e-05 2.88435e-05 2.91032e-05 2.93639e-05 2.96251e-05 2.98871e-05 3.01498e-05 3.0413e-05 3.06767e-05 3.09411e-05 3.12055e-05 3.14705e-05 3.17358e-05 3.20015e-05 3.22672e-05 3.2533e-05 3.27989e-05 3.30646e-05 3.33303e-05 3.35956e-05 3.38608e-05 3.41255e-05 3.43898e-05 3.46534e-05 3.49164e-05 3.51784e-05 3.54396e-05 3.56997e-05 3.59587e-05 3.62162e-05 3.64726e-05 3.67273e-05 3.69805e-05 3.72318e-05 3.74812e-05 3.77284e-05 3.79734e-05 3.82159e-05 3.84559e-05 3.8693e-05 3.89272e-05 3.91582e-05 3.93858e-05 3.96102e-05 3.98308e-05 4.00475e-05 4.02598e-05 4.0468e-05 4.06717e-05 4.08705e-05 4.10643e-05 4.1253e-05 4.1436e-05 4.16136e-05 4.17849e-05 4.19502e-05 4.21089e-05 4.22609e-05 4.24058e-05 4.25435e-05 4.26735e-05 4.27958e-05 4.29099e-05 4.30155e-05 4.31124e-05 4.32006e-05 4.32792e-05 4.33485e-05 4.34076e-05 4.34569e-05 4.34955e-05 4.35236e-05 4.35406e-05 4.35464e-05 4.35407e-05 4.35232e-05 4.34935e-05 4.34518e-05 4.33971e-05 4.33298e-05 4.32495e-05 4.31558e-05 4.30487e-05 4.29279e-05 4.27933e-05 4.26448e-05 4.24819e-05 4.23049e-05 4.21133e-05 4.19071e-05 4.16863e-05 4.14506e-05 4.12003e-05 4.09349e-05 4.06549e-05 4.03598e-05 4.00497e-05 3.9725e-05 3.93853e-05 3.90309e-05 3.86617e-05 3.8278e-05 3.78797e-05 3.74671e-05 3.70402e-05 3.65992e-05 3.61442e-05 3.56756e-05 3.51936e-05 3.4698e-05 3.41895e-05 3.3668e-05 3.31341e-05 3.25876e-05 3.20292e-05 3.1459e-05 3.08772e-05 3.0284e-05 2.96798e-05 2.9065e-05 2.84397e-05 2.78043e-05 2.71589e-05 2.65042e-05 2.58401e-05 2.51671e-05 2.44855e-05 2.37955e-05 2.30973e-05 2.23914e-05 2.16779e-05 2.09573e-05 2.02297e-05 1.94954e-05 1.87546e-05 1.80077e-05 1.72549e-05 1.64966e-05 1.57329e-05 1.49641e-05 1.41903e-05 1.34121e-05 1.26297e-05 1.18429e-05 1.10526e-05 1.02588e-05 9.46169e-06 8.66176e-06 7.85942e-06 7.05515e-06 6.24974e-06 5.44371e-06 4.63889e-06 3.83775e-06 3.04436e-06 2.27253e-06 1.55459e-06 0.0248427 0.0178321 0.00464327 0.00393869 0.00166158 0.000672405 0.000476589 0.000260783 0.000109961 6.83908e-05 4.91261e-05 3.65139e-05 3.01706e-05 2.16281e-05 1.79288e-05 1.32593e-05 1.09789e-05 8.69957e-06 7.48744e-06 6.70943e-06 6.46817e-06 6.57905e-06 6.89946e-06 7.3461e-06 7.84004e-06 8.35131e-06 8.8561e-06 9.34522e-06 9.81372e-06 1.02598e-05 1.06839e-05 1.10868e-05 1.147e-05 1.18351e-05 1.21837e-05 1.25174e-05 1.28377e-05 1.31459e-05 1.34432e-05 1.37309e-05 1.40099e-05 1.42811e-05 1.45455e-05 1.48038e-05 1.50565e-05 1.53044e-05 1.55481e-05 1.57879e-05 1.60244e-05 1.6258e-05 1.6489e-05 1.67178e-05 1.69448e-05 1.71701e-05 1.73941e-05 1.76169e-05 1.78388e-05 1.80599e-05 1.82805e-05 1.85006e-05 1.87205e-05 1.89403e-05 1.91601e-05 1.938e-05 1.96002e-05 1.98206e-05 2.00414e-05 2.02627e-05 2.04847e-05 2.07072e-05 2.09304e-05 2.11544e-05 2.13792e-05 2.16047e-05 2.18312e-05 2.20585e-05 2.22868e-05 2.2516e-05 2.27463e-05 2.29776e-05 2.321e-05 2.34433e-05 2.36778e-05 2.39134e-05 2.415e-05 2.43877e-05 2.46267e-05 2.48667e-05 2.51077e-05 2.53498e-05 2.5593e-05 2.58373e-05 2.60826e-05 2.6329e-05 2.65765e-05 2.6825e-05 2.70744e-05 2.73248e-05 2.75762e-05 2.78285e-05 2.80816e-05 2.83356e-05 2.85905e-05 2.88461e-05 2.91024e-05 2.93595e-05 2.96172e-05 2.98756e-05 3.01345e-05 3.03938e-05 3.06537e-05 3.09138e-05 3.11744e-05 3.14352e-05 3.16962e-05 3.19574e-05 3.22186e-05 3.24798e-05 3.27408e-05 3.30017e-05 3.32622e-05 3.35225e-05 3.37822e-05 3.40415e-05 3.43e-05 3.45578e-05 3.48147e-05 3.50705e-05 3.53253e-05 3.55787e-05 3.58309e-05 3.60815e-05 3.63306e-05 3.65779e-05 3.68233e-05 3.70666e-05 3.73077e-05 3.75464e-05 3.77825e-05 3.80161e-05 3.82466e-05 3.8474e-05 3.86982e-05 3.8919e-05 3.91362e-05 3.93493e-05 3.95587e-05 3.97637e-05 3.99643e-05 4.01603e-05 4.03512e-05 4.05371e-05 4.07176e-05 4.08925e-05 4.10616e-05 4.12247e-05 4.13814e-05 4.15315e-05 4.16748e-05 4.1811e-05 4.194e-05 4.20612e-05 4.21747e-05 4.228e-05 4.23769e-05 4.24652e-05 4.25446e-05 4.26148e-05 4.26755e-05 4.27265e-05 4.27676e-05 4.27985e-05 4.28188e-05 4.28285e-05 4.28272e-05 4.28147e-05 4.27908e-05 4.27552e-05 4.27078e-05 4.26481e-05 4.25762e-05 4.24918e-05 4.23947e-05 4.22847e-05 4.21616e-05 4.20255e-05 4.18759e-05 4.17128e-05 4.15362e-05 4.13459e-05 4.11417e-05 4.09235e-05 4.06916e-05 4.04456e-05 4.01854e-05 3.99112e-05 3.96229e-05 3.93205e-05 3.9004e-05 3.86735e-05 3.83289e-05 3.79705e-05 3.75981e-05 3.72119e-05 3.68121e-05 3.63987e-05 3.59718e-05 3.55316e-05 3.50781e-05 3.46118e-05 3.41326e-05 3.36409e-05 3.31369e-05 3.26205e-05 3.20922e-05 3.15521e-05 3.10004e-05 3.04375e-05 2.98634e-05 2.92785e-05 2.86831e-05 2.80773e-05 2.74615e-05 2.68358e-05 2.62006e-05 2.55563e-05 2.49029e-05 2.42408e-05 2.35702e-05 2.28913e-05 2.22047e-05 2.15103e-05 2.08086e-05 2.00998e-05 1.93842e-05 1.8662e-05 1.79334e-05 1.7199e-05 1.64588e-05 1.57133e-05 1.49627e-05 1.42073e-05 1.34474e-05 1.26836e-05 1.19161e-05 1.11454e-05 1.03722e-05 9.59705e-06 8.82076e-06 8.04448e-06 7.26976e-06 6.49834e-06 5.7341e-06 4.98026e-06 4.24845e-06 3.55231e-06 0.0121387 0.0121448 0.00554731 0.00166502 0.00193954 0.00111397 0.000343995 0.000198572 0.000163344 0.000109977 7.59785e-05 5.29545e-05 3.91103e-05 3.15177e-05 2.41926e-05 1.99184e-05 1.56564e-05 1.30017e-05 1.07104e-05 9.2548e-06 8.25599e-06 7.74098e-06 7.57233e-06 7.6527e-06 7.89831e-06 8.23755e-06 8.62865e-06 9.04136e-06 9.45909e-06 9.87165e-06 1.02734e-05 1.06617e-05 1.10354e-05 1.13945e-05 1.17392e-05 1.20706e-05 1.23893e-05 1.26965e-05 1.29931e-05 1.32802e-05 1.35584e-05 1.38289e-05 1.40922e-05 1.43492e-05 1.46005e-05 1.48468e-05 1.50884e-05 1.53261e-05 1.55601e-05 1.5791e-05 1.60191e-05 1.62448e-05 1.64684e-05 1.66902e-05 1.69105e-05 1.71294e-05 1.73472e-05 1.75642e-05 1.77804e-05 1.7996e-05 1.82113e-05 1.84263e-05 1.86412e-05 1.88562e-05 1.90712e-05 1.92865e-05 1.9502e-05 1.97179e-05 1.99343e-05 2.01513e-05 2.03689e-05 2.05871e-05 2.0806e-05 2.10258e-05 2.12464e-05 2.14678e-05 2.169e-05 2.19132e-05 2.21373e-05 2.23624e-05 2.25885e-05 2.28156e-05 2.30438e-05 2.3273e-05 2.35033e-05 2.37347e-05 2.3967e-05 2.42005e-05 2.44351e-05 2.46707e-05 2.49074e-05 2.51452e-05 2.5384e-05 2.56239e-05 2.58647e-05 2.61066e-05 2.63495e-05 2.65935e-05 2.68383e-05 2.7084e-05 2.73307e-05 2.75782e-05 2.78266e-05 2.80758e-05 2.83257e-05 2.85764e-05 2.88278e-05 2.90799e-05 2.93325e-05 2.95857e-05 2.98394e-05 3.00936e-05 3.03481e-05 3.0603e-05 3.08582e-05 3.11135e-05 3.1369e-05 3.16246e-05 3.18802e-05 3.21357e-05 3.2391e-05 3.2646e-05 3.29007e-05 3.3155e-05 3.34088e-05 3.36619e-05 3.39144e-05 3.4166e-05 3.44166e-05 3.46662e-05 3.49146e-05 3.51617e-05 3.54074e-05 3.56516e-05 3.58941e-05 3.61347e-05 3.63734e-05 3.66099e-05 3.68442e-05 3.7076e-05 3.73053e-05 3.75318e-05 3.77553e-05 3.79758e-05 3.81929e-05 3.84066e-05 3.86167e-05 3.88229e-05 3.9025e-05 3.92229e-05 3.94163e-05 3.96051e-05 3.9789e-05 3.99677e-05 4.01411e-05 4.0309e-05 4.04711e-05 4.06272e-05 4.0777e-05 4.09204e-05 4.10569e-05 4.11866e-05 4.13089e-05 4.14239e-05 4.15311e-05 4.16303e-05 4.17213e-05 4.18039e-05 4.18777e-05 4.19426e-05 4.19982e-05 4.20445e-05 4.2081e-05 4.21077e-05 4.21241e-05 4.21301e-05 4.21255e-05 4.21101e-05 4.20836e-05 4.20459e-05 4.19967e-05 4.19359e-05 4.18631e-05 4.17783e-05 4.16812e-05 4.15719e-05 4.145e-05 4.13154e-05 4.11681e-05 4.10077e-05 4.08343e-05 4.06479e-05 4.04481e-05 4.02351e-05 4.00088e-05 3.97689e-05 3.95156e-05 3.92488e-05 3.89686e-05 3.86748e-05 3.83676e-05 3.80468e-05 3.77128e-05 3.73653e-05 3.70045e-05 3.66305e-05 3.62433e-05 3.58431e-05 3.54299e-05 3.50037e-05 3.4565e-05 3.41139e-05 3.36505e-05 3.31748e-05 3.26872e-05 3.21876e-05 3.16765e-05 3.11539e-05 3.06201e-05 3.00752e-05 2.95195e-05 2.89533e-05 2.83767e-05 2.77899e-05 2.71933e-05 2.6587e-05 2.59715e-05 2.53467e-05 2.47132e-05 2.4071e-05 2.34204e-05 2.27616e-05 2.20952e-05 2.14212e-05 2.07399e-05 2.00517e-05 1.93567e-05 1.86554e-05 1.79481e-05 1.7235e-05 1.65166e-05 1.57933e-05 1.50654e-05 1.43335e-05 1.35979e-05 1.28594e-05 1.21185e-05 1.13762e-05 1.06335e-05 9.89152e-06 9.15204e-06 8.41695e-06 7.68953e-06 6.97238e-06 6.27438e-06 5.60331e-06 0.00614388 0.00688967 0.00460682 0.00120174 0.00105901 0.000917423 0.000495252 0.000357822 0.000177474 9.23953e-05 7.43098e-05 6.48143e-05 5.13059e-05 4.06061e-05 3.29352e-05 2.64354e-05 2.19529e-05 1.80004e-05 1.51801e-05 1.2863e-05 1.12229e-05 1.00335e-05 9.27834e-06 8.85577e-06 8.69419e-06 8.72261e-06 8.87989e-06 9.12157e-06 9.4141e-06 9.73531e-06 1.00701e-05 1.0409e-05 1.0746e-05 1.10774e-05 1.14011e-05 1.17162e-05 1.20223e-05 1.23193e-05 1.26077e-05 1.28878e-05 1.31602e-05 1.34254e-05 1.3684e-05 1.39366e-05 1.41837e-05 1.44259e-05 1.46637e-05 1.48974e-05 1.51276e-05 1.53545e-05 1.55786e-05 1.58002e-05 1.60196e-05 1.6237e-05 1.64529e-05 1.66673e-05 1.68806e-05 1.70928e-05 1.73043e-05 1.75151e-05 1.77254e-05 1.79354e-05 1.81451e-05 1.83548e-05 1.85645e-05 1.87743e-05 1.89844e-05 1.91948e-05 1.94056e-05 1.96168e-05 1.98286e-05 2.0041e-05 2.0254e-05 2.04677e-05 2.06822e-05 2.08974e-05 2.11136e-05 2.13305e-05 2.15484e-05 2.17672e-05 2.19869e-05 2.22076e-05 2.24292e-05 2.2652e-05 2.28757e-05 2.31005e-05 2.33263e-05 2.35531e-05 2.37809e-05 2.40098e-05 2.42397e-05 2.44707e-05 2.47027e-05 2.49357e-05 2.51698e-05 2.54048e-05 2.56409e-05 2.58779e-05 2.61158e-05 2.63547e-05 2.65944e-05 2.68351e-05 2.70766e-05 2.73189e-05 2.7562e-05 2.78058e-05 2.80504e-05 2.82956e-05 2.85415e-05 2.8788e-05 2.90349e-05 2.92825e-05 2.95304e-05 2.97788e-05 3.00274e-05 3.02763e-05 3.05255e-05 3.07748e-05 3.10242e-05 3.12736e-05 3.15229e-05 3.17721e-05 3.20211e-05 3.22697e-05 3.2518e-05 3.27657e-05 3.30129e-05 3.32594e-05 3.35052e-05 3.37501e-05 3.39939e-05 3.42367e-05 3.44783e-05 3.47185e-05 3.49573e-05 3.51945e-05 3.543e-05 3.56637e-05 3.58954e-05 3.61249e-05 3.63521e-05 3.65769e-05 3.67993e-05 3.70187e-05 3.72352e-05 3.74488e-05 3.7659e-05 3.78658e-05 3.8069e-05 3.82683e-05 3.84637e-05 3.86549e-05 3.88418e-05 3.9024e-05 3.92015e-05 3.9374e-05 3.95412e-05 3.9703e-05 3.98592e-05 4.00095e-05 4.01538e-05 4.02916e-05 4.04229e-05 4.05475e-05 4.06651e-05 4.07753e-05 4.08781e-05 4.09731e-05 4.10603e-05 4.11392e-05 4.12098e-05 4.12716e-05 4.13244e-05 4.13683e-05 4.14027e-05 4.14275e-05 4.14427e-05 4.14477e-05 4.14426e-05 4.14269e-05 4.14005e-05 4.13634e-05 4.13152e-05 4.12557e-05 4.11849e-05 4.11024e-05 4.10082e-05 4.09021e-05 4.07839e-05 4.06536e-05 4.05109e-05 4.03557e-05 4.01881e-05 4.00077e-05 3.98147e-05 3.96089e-05 3.93901e-05 3.91584e-05 3.89139e-05 3.86563e-05 3.83856e-05 3.8102e-05 3.78054e-05 3.74958e-05 3.71734e-05 3.68379e-05 3.64896e-05 3.61285e-05 3.57546e-05 3.53682e-05 3.49691e-05 3.45578e-05 3.41344e-05 3.36987e-05 3.3251e-05 3.27916e-05 3.23204e-05 3.18379e-05 3.13438e-05 3.08387e-05 3.03226e-05 2.97958e-05 2.92585e-05 2.87108e-05 2.81531e-05 2.75854e-05 2.70081e-05 2.64214e-05 2.58256e-05 2.52208e-05 2.46074e-05 2.39856e-05 2.33556e-05 2.27178e-05 2.20725e-05 2.14199e-05 2.07603e-05 2.00941e-05 1.94215e-05 1.87432e-05 1.80591e-05 1.737e-05 1.66762e-05 1.59784e-05 1.52769e-05 1.45724e-05 1.38658e-05 1.31576e-05 1.24493e-05 1.17418e-05 1.10368e-05 1.03359e-05 9.64204e-06 8.95686e-06 8.28744e-06 7.63885e-06 0.00289965 0.00398847 0.00297907 0.00127067 0.000442019 0.000554135 0.000404697 0.000222591 0.000237636 0.000162197 0.000104352 6.81447e-05 5.47932e-05 4.59359e-05 3.89882e-05 3.2861e-05 2.75088e-05 2.33187e-05 1.97315e-05 1.69561e-05 1.46856e-05 1.29663e-05 1.16638e-05 1.07458e-05 1.01377e-05 9.78396e-06 9.62731e-06 9.61762e-06 9.71379e-06 9.88295e-06 1.01009e-05 1.035e-05 1.06176e-05 1.08952e-05 1.11769e-05 1.14588e-05 1.17385e-05 1.20142e-05 1.22851e-05 1.25507e-05 1.28109e-05 1.30657e-05 1.33153e-05 1.35599e-05 1.37999e-05 1.40354e-05 1.4267e-05 1.44949e-05 1.47195e-05 1.49412e-05 1.51601e-05 1.53766e-05 1.55909e-05 1.58034e-05 1.60142e-05 1.62237e-05 1.64319e-05 1.66391e-05 1.68455e-05 1.70512e-05 1.72563e-05 1.74611e-05 1.76656e-05 1.787e-05 1.80743e-05 1.82787e-05 1.84833e-05 1.86881e-05 1.88933e-05 1.9099e-05 1.9305e-05 1.95116e-05 1.97189e-05 1.99268e-05 2.01354e-05 2.03447e-05 2.05548e-05 2.07658e-05 2.09776e-05 2.11903e-05 2.14039e-05 2.16184e-05 2.18339e-05 2.20503e-05 2.22678e-05 2.24862e-05 2.27057e-05 2.29262e-05 2.31477e-05 2.33702e-05 2.35937e-05 2.38183e-05 2.40438e-05 2.42704e-05 2.4498e-05 2.47266e-05 2.49561e-05 2.51867e-05 2.54182e-05 2.56506e-05 2.58839e-05 2.61181e-05 2.63532e-05 2.65891e-05 2.68257e-05 2.70632e-05 2.73014e-05 2.75404e-05 2.778e-05 2.80202e-05 2.8261e-05 2.85023e-05 2.87442e-05 2.89865e-05 2.92292e-05 2.94722e-05 2.97155e-05 2.99591e-05 3.02028e-05 3.04465e-05 3.06904e-05 3.09341e-05 3.11778e-05 3.14213e-05 3.16645e-05 3.19073e-05 3.21498e-05 3.23916e-05 3.26328e-05 3.28733e-05 3.3113e-05 3.33518e-05 3.35896e-05 3.38263e-05 3.40616e-05 3.42956e-05 3.45281e-05 3.4759e-05 3.49882e-05 3.52154e-05 3.54408e-05 3.56639e-05 3.58847e-05 3.61032e-05 3.63189e-05 3.6532e-05 3.67421e-05 3.69492e-05 3.7153e-05 3.73535e-05 3.75503e-05 3.77433e-05 3.79324e-05 3.81174e-05 3.8298e-05 3.84741e-05 3.86455e-05 3.88119e-05 3.89733e-05 3.91293e-05 3.92798e-05 3.94245e-05 3.95632e-05 3.96958e-05 3.98219e-05 3.99415e-05 4.00542e-05 4.01598e-05 4.02582e-05 4.0349e-05 4.04321e-05 4.05073e-05 4.05742e-05 4.06328e-05 4.06828e-05 4.0724e-05 4.07561e-05 4.0779e-05 4.07923e-05 4.07961e-05 4.07899e-05 4.07736e-05 4.07472e-05 4.07102e-05 4.06626e-05 4.06043e-05 4.05349e-05 4.04545e-05 4.03627e-05 4.02596e-05 4.01448e-05 4.00184e-05 3.988e-05 3.973e-05 3.95678e-05 3.93935e-05 3.92069e-05 3.9008e-05 3.87969e-05 3.85733e-05 3.83375e-05 3.8089e-05 3.78281e-05 3.75548e-05 3.7269e-05 3.69708e-05 3.66601e-05 3.63371e-05 3.60015e-05 3.56538e-05 3.52936e-05 3.49216e-05 3.45374e-05 3.41416e-05 3.37337e-05 3.33142e-05 3.28833e-05 3.24408e-05 3.1987e-05 3.15222e-05 3.10464e-05 3.05597e-05 3.00627e-05 2.9555e-05 2.90372e-05 2.85094e-05 2.79719e-05 2.74247e-05 2.68682e-05 2.63027e-05 2.57282e-05 2.51452e-05 2.45537e-05 2.39542e-05 2.33469e-05 2.27322e-05 2.21102e-05 2.14814e-05 2.0846e-05 2.02045e-05 1.95573e-05 1.89047e-05 1.82474e-05 1.75856e-05 1.69202e-05 1.62515e-05 1.55806e-05 1.4908e-05 1.42348e-05 1.35622e-05 1.28915e-05 1.22242e-05 1.15626e-05 1.09078e-05 1.02659e-05 9.64008e-06 0.0014041 0.00207008 0.00199698 0.000999751 0.000328244 0.000245046 0.000296509 0.000175233 0.000136599 0.000147573 0.000122065 9.95016e-05 7.30673e-05 5.60951e-05 4.51192e-05 3.8207e-05 3.27648e-05 2.82028e-05 2.44106e-05 2.11639e-05 1.85163e-05 1.63227e-05 1.45812e-05 1.32112e-05 1.21789e-05 1.143e-05 1.09208e-05 1.0606e-05 1.04455e-05 1.04033e-05 1.04498e-05 1.0561e-05 1.07185e-05 1.0908e-05 1.11191e-05 1.13441e-05 1.15777e-05 1.18159e-05 1.20559e-05 1.22959e-05 1.25345e-05 1.27711e-05 1.3005e-05 1.3236e-05 1.34639e-05 1.36889e-05 1.39109e-05 1.41301e-05 1.43467e-05 1.45607e-05 1.47725e-05 1.49823e-05 1.51902e-05 1.53965e-05 1.56012e-05 1.58047e-05 1.60071e-05 1.62085e-05 1.64091e-05 1.66091e-05 1.68086e-05 1.70078e-05 1.72066e-05 1.74054e-05 1.76041e-05 1.78028e-05 1.80017e-05 1.82009e-05 1.84003e-05 1.86001e-05 1.88004e-05 1.90012e-05 1.92026e-05 1.94046e-05 1.96072e-05 1.98106e-05 2.00148e-05 2.02197e-05 2.04255e-05 2.06321e-05 2.08395e-05 2.10479e-05 2.12572e-05 2.14675e-05 2.16787e-05 2.18909e-05 2.2104e-05 2.23182e-05 2.25333e-05 2.27495e-05 2.29667e-05 2.31848e-05 2.3404e-05 2.36242e-05 2.38453e-05 2.40675e-05 2.42906e-05 2.45147e-05 2.47398e-05 2.49657e-05 2.51926e-05 2.54204e-05 2.56491e-05 2.58785e-05 2.61088e-05 2.63399e-05 2.65718e-05 2.68044e-05 2.70377e-05 2.72717e-05 2.75062e-05 2.77414e-05 2.79771e-05 2.82133e-05 2.84499e-05 2.8687e-05 2.89244e-05 2.91621e-05 2.94e-05 2.96381e-05 2.98764e-05 3.01146e-05 3.03529e-05 3.05911e-05 3.08291e-05 3.10668e-05 3.13043e-05 3.15414e-05 3.17779e-05 3.2014e-05 3.22493e-05 3.24839e-05 3.27176e-05 3.29504e-05 3.31821e-05 3.34127e-05 3.3642e-05 3.38699e-05 3.40963e-05 3.4321e-05 3.4544e-05 3.47652e-05 3.49843e-05 3.52013e-05 3.5416e-05 3.56282e-05 3.5838e-05 3.60449e-05 3.62489e-05 3.645e-05 3.66478e-05 3.68423e-05 3.70332e-05 3.72204e-05 3.74036e-05 3.75829e-05 3.77578e-05 3.79285e-05 3.80943e-05 3.82554e-05 3.84115e-05 3.85625e-05 3.8708e-05 3.88478e-05 3.8982e-05 3.911e-05 3.92319e-05 3.93472e-05 3.9456e-05 3.95579e-05 3.96528e-05 3.97403e-05 3.98204e-05 3.98928e-05 3.99573e-05 4.00138e-05 4.00619e-05 4.01013e-05 4.01322e-05 4.01541e-05 4.01669e-05 4.01703e-05 4.01644e-05 4.01486e-05 4.0123e-05 4.00874e-05 4.00415e-05 3.99853e-05 3.99185e-05 3.9841e-05 3.97527e-05 3.96535e-05 3.95432e-05 3.94217e-05 3.92887e-05 3.91444e-05 3.89884e-05 3.88208e-05 3.86416e-05 3.84506e-05 3.82478e-05 3.80331e-05 3.78064e-05 3.75679e-05 3.73173e-05 3.70549e-05 3.67805e-05 3.6494e-05 3.61957e-05 3.58855e-05 3.55631e-05 3.52291e-05 3.48833e-05 3.45261e-05 3.41573e-05 3.37769e-05 3.33852e-05 3.29823e-05 3.25681e-05 3.2143e-05 3.17071e-05 3.12604e-05 3.08032e-05 3.03356e-05 2.98577e-05 2.93697e-05 2.88721e-05 2.83647e-05 2.78479e-05 2.7322e-05 2.6787e-05 2.62432e-05 2.5691e-05 2.51307e-05 2.45623e-05 2.39862e-05 2.34028e-05 2.28124e-05 2.22152e-05 2.16117e-05 2.10022e-05 2.03872e-05 1.97672e-05 1.91427e-05 1.85141e-05 1.78821e-05 1.72474e-05 1.66108e-05 1.59732e-05 1.53354e-05 1.4699e-05 1.40648e-05 1.34351e-05 1.28106e-05 1.2196e-05 1.15942e-05 0.000645781 0.00112059 0.00111662 0.000834475 0.000288624 0.000196289 0.000124023 0.000153314 0.000103793 9.96545e-05 9.96206e-05 9.14334e-05 8.35082e-05 6.95401e-05 5.69576e-05 4.64948e-05 3.90348e-05 3.34178e-05 2.90219e-05 2.54253e-05 2.23958e-05 1.98707e-05 1.77554e-05 1.60231e-05 1.46196e-05 1.35131e-05 1.2663e-05 1.20346e-05 1.15925e-05 1.1304e-05 1.11395e-05 1.10727e-05 1.10816e-05 1.11482e-05 1.12581e-05 1.13999e-05 1.15648e-05 1.17461e-05 1.1939e-05 1.21395e-05 1.2345e-05 1.25534e-05 1.27633e-05 1.29736e-05 1.31836e-05 1.33927e-05 1.36007e-05 1.38073e-05 1.40125e-05 1.42163e-05 1.44185e-05 1.46195e-05 1.4819e-05 1.50174e-05 1.52147e-05 1.54111e-05 1.56065e-05 1.58013e-05 1.59954e-05 1.61891e-05 1.63823e-05 1.65752e-05 1.6768e-05 1.69607e-05 1.71535e-05 1.73463e-05 1.75393e-05 1.77324e-05 1.7926e-05 1.81199e-05 1.83143e-05 1.85092e-05 1.87046e-05 1.89007e-05 1.90974e-05 1.92948e-05 1.94929e-05 1.96919e-05 1.98916e-05 2.00922e-05 2.02936e-05 2.04959e-05 2.06991e-05 2.09032e-05 2.11083e-05 2.13143e-05 2.15214e-05 2.17294e-05 2.19383e-05 2.21483e-05 2.23592e-05 2.25711e-05 2.27841e-05 2.2998e-05 2.32129e-05 2.34288e-05 2.36457e-05 2.38635e-05 2.40823e-05 2.4302e-05 2.45226e-05 2.47441e-05 2.49665e-05 2.51898e-05 2.54139e-05 2.56388e-05 2.58645e-05 2.6091e-05 2.63182e-05 2.6546e-05 2.67746e-05 2.70037e-05 2.72335e-05 2.74638e-05 2.76946e-05 2.79258e-05 2.81575e-05 2.83895e-05 2.86218e-05 2.88544e-05 2.90872e-05 2.93201e-05 2.95531e-05 2.97861e-05 3.0019e-05 3.02518e-05 3.04844e-05 3.07167e-05 3.09487e-05 3.11802e-05 3.14113e-05 3.16417e-05 3.18714e-05 3.21004e-05 3.23285e-05 3.25556e-05 3.27816e-05 3.30064e-05 3.323e-05 3.34521e-05 3.36728e-05 3.38917e-05 3.41089e-05 3.43243e-05 3.45377e-05 3.47488e-05 3.49577e-05 3.51642e-05 3.53681e-05 3.55694e-05 3.57677e-05 3.59631e-05 3.61553e-05 3.63442e-05 3.65296e-05 3.67113e-05 3.68893e-05 3.70631e-05 3.72329e-05 3.73983e-05 3.75592e-05 3.77154e-05 3.78666e-05 3.80128e-05 3.81537e-05 3.82893e-05 3.84191e-05 3.85431e-05 3.8661e-05 3.87727e-05 3.8878e-05 3.89765e-05 3.90683e-05 3.91531e-05 3.92305e-05 3.93006e-05 3.9363e-05 3.94176e-05 3.94642e-05 3.95026e-05 3.95325e-05 3.95539e-05 3.95665e-05 3.95701e-05 3.95646e-05 3.95497e-05 3.95255e-05 3.94915e-05 3.94478e-05 3.93941e-05 3.93303e-05 3.92562e-05 3.91717e-05 3.9077e-05 3.89712e-05 3.88549e-05 3.87278e-05 3.85895e-05 3.84403e-05 3.828e-05 3.81084e-05 3.79256e-05 3.77315e-05 3.7526e-05 3.73091e-05 3.70807e-05 3.68409e-05 3.65897e-05 3.63269e-05 3.60529e-05 3.5767e-05 3.54698e-05 3.51614e-05 3.48418e-05 3.45109e-05 3.41688e-05 3.38157e-05 3.34515e-05 3.30764e-05 3.26905e-05 3.22938e-05 3.18867e-05 3.14691e-05 3.10412e-05 3.06032e-05 3.01551e-05 2.96973e-05 2.92299e-05 2.8753e-05 2.82669e-05 2.77719e-05 2.7268e-05 2.67554e-05 2.62347e-05 2.57059e-05 2.51693e-05 2.46251e-05 2.40738e-05 2.35157e-05 2.2951e-05 2.23802e-05 2.18036e-05 2.12218e-05 2.06351e-05 2.00443e-05 1.94495e-05 1.88518e-05 1.82517e-05 1.765e-05 1.70477e-05 1.64457e-05 1.5845e-05 1.52475e-05 1.46535e-05 1.40676e-05 1.3491e-05 0.000316943 0.000546942 0.000682585 0.000494308 0.00031643 0.00012776 0.000135542 7.08535e-05 8.73727e-05 7.55087e-05 7.81722e-05 7.51589e-05 7.22809e-05 6.87412e-05 6.18559e-05 5.41345e-05 4.63258e-05 3.97117e-05 3.43037e-05 2.99806e-05 2.64581e-05 2.35325e-05 2.10861e-05 1.90281e-05 1.73124e-05 1.58932e-05 1.47392e-05 1.38176e-05 1.30997e-05 1.25572e-05 1.21636e-05 1.18942e-05 1.17269e-05 1.16418e-05 1.16224e-05 1.16548e-05 1.17273e-05 1.18309e-05 1.19582e-05 1.21033e-05 1.22618e-05 1.24303e-05 1.26059e-05 1.27867e-05 1.29711e-05 1.31579e-05 1.33462e-05 1.35354e-05 1.37251e-05 1.39148e-05 1.41044e-05 1.42937e-05 1.44826e-05 1.4671e-05 1.4859e-05 1.50466e-05 1.52337e-05 1.54206e-05 1.56071e-05 1.57934e-05 1.59795e-05 1.61656e-05 1.63516e-05 1.65377e-05 1.67239e-05 1.69103e-05 1.70969e-05 1.72839e-05 1.74713e-05 1.7659e-05 1.78473e-05 1.80361e-05 1.82254e-05 1.84154e-05 1.86061e-05 1.87975e-05 1.89895e-05 1.91824e-05 1.93761e-05 1.95706e-05 1.9766e-05 1.99622e-05 2.01594e-05 2.03574e-05 2.05564e-05 2.07563e-05 2.09572e-05 2.1159e-05 2.13619e-05 2.15657e-05 2.17705e-05 2.19762e-05 2.2183e-05 2.23908e-05 2.25995e-05 2.28093e-05 2.30199e-05 2.32315e-05 2.34441e-05 2.36577e-05 2.38721e-05 2.40875e-05 2.43038e-05 2.45209e-05 2.47389e-05 2.49577e-05 2.51774e-05 2.53978e-05 2.5619e-05 2.58409e-05 2.60634e-05 2.62867e-05 2.65105e-05 2.6735e-05 2.696e-05 2.71854e-05 2.74115e-05 2.76379e-05 2.78646e-05 2.80916e-05 2.8319e-05 2.85465e-05 2.87743e-05 2.90021e-05 2.92299e-05 2.94579e-05 2.96856e-05 2.99132e-05 3.01405e-05 3.03676e-05 3.05942e-05 3.08204e-05 3.10461e-05 3.12712e-05 3.14955e-05 3.1719e-05 3.19416e-05 3.21632e-05 3.23838e-05 3.26031e-05 3.28212e-05 3.30378e-05 3.32529e-05 3.34664e-05 3.36781e-05 3.3888e-05 3.40959e-05 3.43015e-05 3.45049e-05 3.47059e-05 3.49046e-05 3.51004e-05 3.52934e-05 3.54835e-05 3.56705e-05 3.58542e-05 3.60345e-05 3.62112e-05 3.63842e-05 3.65533e-05 3.67182e-05 3.6879e-05 3.70354e-05 3.71871e-05 3.73341e-05 3.74762e-05 3.7613e-05 3.77447e-05 3.78708e-05 3.79913e-05 3.81059e-05 3.82144e-05 3.83168e-05 3.84127e-05 3.8502e-05 3.85845e-05 3.866e-05 3.87283e-05 3.87893e-05 3.88428e-05 3.88885e-05 3.89264e-05 3.89561e-05 3.89776e-05 3.89905e-05 3.8995e-05 3.89906e-05 3.89773e-05 3.89549e-05 3.89233e-05 3.88823e-05 3.88317e-05 3.87715e-05 3.87014e-05 3.86214e-05 3.85313e-05 3.8431e-05 3.83204e-05 3.81995e-05 3.8068e-05 3.7926e-05 3.77733e-05 3.761e-05 3.74358e-05 3.72508e-05 3.7055e-05 3.68482e-05 3.66306e-05 3.64018e-05 3.61622e-05 3.59117e-05 3.56501e-05 3.53774e-05 3.5094e-05 3.47998e-05 3.44947e-05 3.41789e-05 3.38524e-05 3.35153e-05 3.31676e-05 3.28094e-05 3.2441e-05 3.20622e-05 3.16733e-05 3.12746e-05 3.0866e-05 3.04476e-05 3.00197e-05 2.95825e-05 2.91361e-05 2.86808e-05 2.82166e-05 2.77438e-05 2.72628e-05 2.67735e-05 2.62765e-05 2.57719e-05 2.52601e-05 2.47411e-05 2.42156e-05 2.36838e-05 2.3146e-05 2.26028e-05 2.20544e-05 2.15016e-05 2.09446e-05 2.03842e-05 1.9821e-05 1.92556e-05 1.86888e-05 1.81217e-05 1.75551e-05 1.69903e-05 1.64277e-05 1.5871e-05 1.53218e-05 0.000155519 0.000286453 0.000349005 0.000356675 0.0001873 0.000135089 7.47274e-05 9.30927e-05 5.34823e-05 6.40154e-05 5.95458e-05 6.30931e-05 6.11797e-05 5.99103e-05 5.77445e-05 5.41287e-05 4.9536e-05 4.42975e-05 3.92094e-05 3.46004e-05 3.06496e-05 2.73134e-05 2.45051e-05 2.21359e-05 2.01308e-05 1.84391e-05 1.70185e-05 1.58381e-05 1.48693e-05 1.40875e-05 1.34691e-05 1.29925e-05 1.2637e-05 1.2384e-05 1.22163e-05 1.2119e-05 1.20791e-05 1.20857e-05 1.21296e-05 1.22031e-05 1.23002e-05 1.24157e-05 1.25457e-05 1.2687e-05 1.28372e-05 1.2994e-05 1.31561e-05 1.33221e-05 1.34912e-05 1.36625e-05 1.38355e-05 1.40099e-05 1.4185e-05 1.4361e-05 1.45374e-05 1.47142e-05 1.48913e-05 1.50686e-05 1.52462e-05 1.54239e-05 1.56019e-05 1.57801e-05 1.59586e-05 1.61373e-05 1.63164e-05 1.64958e-05 1.66757e-05 1.68559e-05 1.70367e-05 1.7218e-05 1.73998e-05 1.75823e-05 1.77653e-05 1.79491e-05 1.81335e-05 1.83187e-05 1.85046e-05 1.86914e-05 1.88789e-05 1.90673e-05 1.92566e-05 1.94467e-05 1.96378e-05 1.98298e-05 2.00227e-05 2.02166e-05 2.04113e-05 2.06071e-05 2.08039e-05 2.10016e-05 2.12003e-05 2.14e-05 2.16007e-05 2.18024e-05 2.20051e-05 2.22087e-05 2.24133e-05 2.26189e-05 2.28254e-05 2.30329e-05 2.32412e-05 2.34506e-05 2.36608e-05 2.38719e-05 2.40839e-05 2.42968e-05 2.45105e-05 2.4725e-05 2.49402e-05 2.51562e-05 2.5373e-05 2.55904e-05 2.58085e-05 2.60272e-05 2.62465e-05 2.64663e-05 2.66867e-05 2.69076e-05 2.71289e-05 2.73505e-05 2.75725e-05 2.77948e-05 2.80173e-05 2.824e-05 2.84629e-05 2.86858e-05 2.89087e-05 2.91316e-05 2.93543e-05 2.95769e-05 2.97992e-05 3.00211e-05 3.02427e-05 3.04638e-05 3.06843e-05 3.09042e-05 3.11234e-05 3.13417e-05 3.15591e-05 3.17755e-05 3.19908e-05 3.22049e-05 3.24177e-05 3.26291e-05 3.28389e-05 3.30472e-05 3.32537e-05 3.34584e-05 3.3661e-05 3.38616e-05 3.40599e-05 3.42559e-05 3.44494e-05 3.46402e-05 3.48283e-05 3.50134e-05 3.51955e-05 3.53745e-05 3.55501e-05 3.57221e-05 3.58906e-05 3.60552e-05 3.62159e-05 3.63724e-05 3.65245e-05 3.66724e-05 3.68154e-05 3.69538e-05 3.70871e-05 3.72153e-05 3.73382e-05 3.74557e-05 3.75674e-05 3.76733e-05 3.77732e-05 3.78669e-05 3.79542e-05 3.8035e-05 3.81089e-05 3.81761e-05 3.82361e-05 3.82889e-05 3.83342e-05 3.8372e-05 3.84019e-05 3.8424e-05 3.8438e-05 3.84436e-05 3.84409e-05 3.84297e-05 3.84096e-05 3.83809e-05 3.8343e-05 3.82959e-05 3.82397e-05 3.81741e-05 3.80988e-05 3.80141e-05 3.79196e-05 3.78152e-05 3.77009e-05 3.75766e-05 3.74422e-05 3.72976e-05 3.71429e-05 3.69777e-05 3.68023e-05 3.66165e-05 3.64202e-05 3.62135e-05 3.59965e-05 3.57687e-05 3.55306e-05 3.5282e-05 3.50231e-05 3.47536e-05 3.44739e-05 3.41838e-05 3.38834e-05 3.35729e-05 3.3252e-05 3.29213e-05 3.25806e-05 3.22299e-05 3.18696e-05 3.14995e-05 3.112e-05 3.07311e-05 3.0333e-05 2.99257e-05 2.95097e-05 2.90849e-05 2.86516e-05 2.82099e-05 2.77602e-05 2.73026e-05 2.68374e-05 2.6365e-05 2.58855e-05 2.53991e-05 2.49063e-05 2.44075e-05 2.3903e-05 2.33931e-05 2.28785e-05 2.23595e-05 2.18367e-05 2.13105e-05 2.07818e-05 2.02511e-05 1.97193e-05 1.9187e-05 1.86556e-05 1.81253e-05 1.75991e-05 1.70785e-05 7.20009e-05 0.000142447 0.000207462 0.000180829 0.00017378 7.16502e-05 7.71842e-05 4.59854e-05 6.44517e-05 4.76739e-05 5.35272e-05 5.0466e-05 5.27332e-05 5.18241e-05 5.12357e-05 4.97644e-05 4.76395e-05 4.47935e-05 4.13585e-05 3.76972e-05 3.4087e-05 3.07531e-05 2.77821e-05 2.51909e-05 2.29533e-05 2.103e-05 1.9384e-05 1.79817e-05 1.67958e-05 1.58019e-05 1.49788e-05 1.4307e-05 1.3768e-05 1.33449e-05 1.30218e-05 1.27843e-05 1.26191e-05 1.25146e-05 1.24606e-05 1.24484e-05 1.24705e-05 1.25207e-05 1.25937e-05 1.26853e-05 1.27918e-05 1.29106e-05 1.3039e-05 1.31754e-05 1.33182e-05 1.3466e-05 1.3618e-05 1.37734e-05 1.39315e-05 1.40918e-05 1.42539e-05 1.44175e-05 1.45825e-05 1.47485e-05 1.49154e-05 1.50831e-05 1.52516e-05 1.54209e-05 1.55907e-05 1.57612e-05 1.59323e-05 1.61041e-05 1.62764e-05 1.64494e-05 1.66231e-05 1.67974e-05 1.69725e-05 1.71482e-05 1.73247e-05 1.75019e-05 1.76799e-05 1.78588e-05 1.80384e-05 1.82188e-05 1.84002e-05 1.85824e-05 1.87655e-05 1.89495e-05 1.91345e-05 1.93203e-05 1.95071e-05 1.96949e-05 1.98836e-05 2.00734e-05 2.02641e-05 2.04557e-05 2.06484e-05 2.08421e-05 2.10367e-05 2.12324e-05 2.1429e-05 2.16266e-05 2.18252e-05 2.20248e-05 2.22254e-05 2.24269e-05 2.26293e-05 2.28327e-05 2.3037e-05 2.32422e-05 2.34483e-05 2.36552e-05 2.3863e-05 2.40716e-05 2.4281e-05 2.44913e-05 2.47022e-05 2.49139e-05 2.51263e-05 2.53393e-05 2.55531e-05 2.57673e-05 2.59822e-05 2.61976e-05 2.64135e-05 2.66297e-05 2.68464e-05 2.70635e-05 2.72809e-05 2.74985e-05 2.77164e-05 2.79344e-05 2.81525e-05 2.83707e-05 2.85887e-05 2.88068e-05 2.90247e-05 2.92425e-05 2.94599e-05 2.96769e-05 2.98936e-05 3.01098e-05 3.03253e-05 3.05402e-05 3.07544e-05 3.09677e-05 3.11802e-05 3.13916e-05 3.16019e-05 3.1811e-05 3.20188e-05 3.22252e-05 3.24302e-05 3.26335e-05 3.2835e-05 3.30347e-05 3.32325e-05 3.34282e-05 3.36217e-05 3.38129e-05 3.40017e-05 3.41878e-05 3.43714e-05 3.4552e-05 3.47296e-05 3.49041e-05 3.50753e-05 3.52432e-05 3.54074e-05 3.55681e-05 3.57247e-05 3.58775e-05 3.6026e-05 3.61702e-05 3.63099e-05 3.6445e-05 3.65753e-05 3.67004e-05 3.68206e-05 3.69354e-05 3.70448e-05 3.71486e-05 3.72464e-05 3.73384e-05 3.74242e-05 3.75037e-05 3.75767e-05 3.76431e-05 3.77027e-05 3.77552e-05 3.78007e-05 3.78389e-05 3.78697e-05 3.78928e-05 3.79081e-05 3.79156e-05 3.7915e-05 3.79062e-05 3.7889e-05 3.78635e-05 3.78292e-05 3.77863e-05 3.77344e-05 3.76737e-05 3.76038e-05 3.75248e-05 3.74364e-05 3.73387e-05 3.72315e-05 