<?xml version="1.0"?> 
<VTKFile type="StructuredGrid" version="0.1"> 
<StructuredGrid WholeExtent="0 256 0 256 0 0"> 
<Piece Extent="0 256 0 256 0 0"> 
<CellData>
<DataArray type="Float32" Name="err_h1" format="ascii" NumberOfComponents="1"> 
0.000100754 0.000100464 0.000100175 9.98875e-05 9.96003e-05 9.93141e-05 9.90287e-05 9.87443e-05 9.84608e-05 9.81781e-05 9.78964e-05 9.76156e-05 9.73357e-05 9.70567e-05 9.67787e-05 9.65016e-05 9.62253e-05 9.59501e-05 9.56757e-05 9.54023e-05 9.51298e-05 9.48583e-05 9.45877e-05 9.43181e-05 9.40494e-05 9.37816e-05 9.35148e-05 9.32489e-05 9.2984e-05 9.27201e-05 9.24571e-05 9.21951e-05 9.1934e-05 9.16739e-05 9.14148e-05 9.11567e-05 9.08995e-05 9.06433e-05 9.0388e-05 9.01337e-05 8.98805e-05 8.96282e-05 8.93768e-05 8.91265e-05 8.88771e-05 8.86288e-05 8.83814e-05 8.8135e-05 8.78896e-05 8.76451e-05 8.74017e-05 8.71593e-05 8.69179e-05 8.66774e-05 8.6438e-05 8.61995e-05 8.59621e-05 8.57256e-05 8.54902e-05 8.52557e-05 8.50223e-05 8.47899e-05 8.45584e-05 8.4328e-05 8.40986e-05 8.38702e-05 8.36427e-05 8.34163e-05 8.31909e-05 8.29665e-05 8.27432e-05 8.25208e-05 8.22994e-05 8.2079e-05 8.18597e-05 8.16413e-05 8.1424e-05 8.12077e-05 8.09924e-05 8.0778e-05 8.05647e-05 8.03524e-05 8.01411e-05 7.99309e-05 7.97216e-05 7.95133e-05 7.9306e-05 7.90998e-05 7.88945e-05 7.86903e-05 7.8487e-05 7.82848e-05 7.80835e-05 7.78833e-05 7.7684e-05 7.74858e-05 7.72885e-05 7.70923e-05 7.6897e-05 7.67027e-05 7.65095e-05 7.63172e-05 7.61259e-05 7.59356e-05 7.57463e-05 7.5558e-05 7.53706e-05 7.51842e-05 7.49989e-05 7.48145e-05 7.4631e-05 7.44486e-05 7.42671e-05 7.40866e-05 7.39071e-05 7.37285e-05 7.35509e-05 7.33743e-05 7.31986e-05 7.30239e-05 7.28501e-05 7.26773e-05 7.25055e-05 7.23346e-05 7.21646e-05 7.19956e-05 7.18276e-05 7.16604e-05 7.14942e-05 7.1329e-05 7.11647e-05 7.10013e-05 7.08388e-05 7.06773e-05 7.05167e-05 7.0357e-05 7.01982e-05 7.00403e-05 6.98834e-05 6.97273e-05 6.95721e-05 6.94179e-05 6.92645e-05 6.91121e-05 6.89605e-05 6.88098e-05 6.866e-05 6.85111e-05 6.8363e-05 6.82158e-05 6.80695e-05 6.79241e-05 6.77795e-05 6.76358e-05 6.74929e-05 6.73509e-05 6.72097e-05 6.70693e-05 6.69299e-05 6.67912e-05 6.66534e-05 6.65164e-05 6.63802e-05 6.62448e-05 6.61103e-05 6.59765e-05 6.58436e-05 6.57115e-05 6.55802e-05 6.54496e-05 6.53199e-05 6.51909e-05 6.50628e-05 6.49354e-05 6.48087e-05 6.46829e-05 6.45578e-05 6.44334e-05 6.43099e-05 6.4187e-05 6.4065e-05 6.39436e-05 6.3823e-05 6.37031e-05 6.3584e-05 6.34656e-05 6.33479e-05 6.32309e-05 6.31146e-05 6.29991e-05 6.28842e-05 6.277e-05 6.26565e-05 6.25437e-05 6.24316e-05 6.23202e-05 6.22094e-05 6.20993e-05 6.19899e-05 6.18811e-05 6.1773e-05 6.16655e-05 6.15587e-05 6.14525e-05 6.13469e-05 6.1242e-05 6.11377e-05 6.1034e-05 6.09309e-05 6.08285e-05 6.07266e-05 6.06253e-05 6.05247e-05 6.04246e-05 6.03251e-05 6.02262e-05 6.01278e-05 6.00301e-05 5.99329e-05 5.98362e-05 5.97401e-05 5.96446e-05 5.95496e-05 5.94552e-05 5.93613e-05 5.92679e-05 5.9175e-05 5.90827e-05 5.89909e-05 5.88996e-05 5.88088e-05 5.87185e-05 5.86287e-05 5.85394e-05 5.84506e-05 5.83622e-05 5.82744e-05 5.8187e-05 5.81001e-05 5.80136e-05 5.79277e-05 5.78421e-05 5.7757e-05 5.76724e-05 5.75882e-05 5.75044e-05 5.74211e-05 5.73382e-05 5.72557e-05 5.71736e-05 5.7092e-05 5.70107e-05 5.69299e-05 5.68494e-05 5.67694e-05 5.66897e-05 0.000100496 0.000100209 9.99232e-05 9.96381e-05 9.9354e-05 9.90707e-05 9.87882e-05 9.85067e-05 9.8226e-05 9.79462e-05 9.76673e-05 9.73893e-05 9.71122e-05 9.6836e-05 9.65606e-05 9.62862e-05 9.60126e-05 9.574e-05 9.54683e-05 9.51975e-05 9.49276e-05 9.46586e-05 9.43905e-05 9.41234e-05 9.38571e-05 9.35918e-05 9.33274e-05 9.3064e-05 9.28015e-05 9.25399e-05 9.22792e-05 9.20195e-05 9.17608e-05 9.15029e-05 9.12461e-05 9.09901e-05 9.07351e-05 9.04811e-05 9.0228e-05 8.99759e-05 8.97247e-05 8.94745e-05 8.92252e-05 8.89769e-05 8.87296e-05 8.84832e-05 8.82378e-05 8.79934e-05 8.77499e-05 8.75074e-05 8.72659e-05 8.70254e-05 8.67858e-05 8.65472e-05 8.63096e-05 8.60729e-05 8.58373e-05 8.56026e-05 8.53689e-05 8.51361e-05 8.49044e-05 8.46736e-05 8.44439e-05 8.42151e-05 8.39873e-05 8.37604e-05 8.35346e-05 8.33098e-05 8.30859e-05 8.2863e-05 8.26412e-05 8.24203e-05 8.22004e-05 8.19815e-05 8.17635e-05 8.15466e-05 8.13307e-05 8.11157e-05 8.09018e-05 8.06888e-05 8.04768e-05 8.02658e-05 8.00558e-05 7.98468e-05 7.96388e-05 7.94318e-05 7.92257e-05 7.90207e-05 7.88166e-05 7.86135e-05 7.84115e-05 7.82103e-05 7.80102e-05 7.78111e-05 7.76129e-05 7.74158e-05 7.72196e-05 7.70244e-05 7.68301e-05 7.66369e-05 7.64446e-05 7.62533e-05 7.6063e-05 7.58736e-05 7.56853e-05 7.54978e-05 7.53114e-05 7.51259e-05 7.49414e-05 7.47579e-05 7.45753e-05 7.43937e-05 7.4213e-05 7.40333e-05 7.38546e-05 7.36768e-05 7.35e-05 7.33241e-05 7.31492e-05 7.29752e-05 7.28021e-05 7.263e-05 7.24588e-05 7.22886e-05 7.21193e-05 7.1951e-05 7.17835e-05 7.1617e-05 7.14514e-05 7.12868e-05 7.1123e-05 7.09602e-05 7.07983e-05 7.06373e-05 7.04772e-05 7.0318e-05 7.01597e-05 7.00024e-05 6.98459e-05 6.96903e-05 6.95356e-05 6.93818e-05 6.92288e-05 6.90768e-05 6.89256e-05 6.87753e-05 6.86259e-05 6.84774e-05 6.83297e-05 6.81828e-05 6.80369e-05 6.78918e-05 6.77475e-05 6.76041e-05 6.74615e-05 6.73198e-05 6.71789e-05 6.70388e-05 6.68995e-05 6.67611e-05 6.66235e-05 6.64868e-05 6.63508e-05 6.62156e-05 6.60813e-05 6.59477e-05 6.5815e-05 6.5683e-05 6.55519e-05 6.54215e-05 6.52919e-05 6.5163e-05 6.5035e-05 6.49077e-05 6.47812e-05 6.46554e-05 6.45304e-05 6.44061e-05 6.42826e-05 6.41599e-05 6.40378e-05 6.39165e-05 6.3796e-05 6.36761e-05 6.3557e-05 6.34386e-05 6.33209e-05 6.32039e-05 6.30876e-05 6.2972e-05 6.28571e-05 6.27429e-05 6.26294e-05 6.25165e-05 6.24043e-05 6.22928e-05 6.2182e-05 6.20718e-05 6.19623e-05 6.18534e-05 6.17452e-05 6.16376e-05 6.15306e-05 6.14243e-05 6.13186e-05 6.12136e-05 6.11091e-05 6.10053e-05 6.0902e-05 6.07994e-05 6.06974e-05 6.05959e-05 6.04951e-05 6.03948e-05 6.02951e-05 6.0196e-05 6.00975e-05 5.99995e-05 5.99021e-05 5.98052e-05 5.97089e-05 5.96132e-05 5.95179e-05 5.94232e-05 5.93291e-05 5.92355e-05 5.91423e-05 5.90498e-05 5.89577e-05 5.88661e-05 5.8775e-05 5.86845e-05 5.85944e-05 5.85048e-05 5.84157e-05 5.83271e-05 5.82389e-05 5.81512e-05 5.8064e-05 5.79773e-05 5.7891e-05 5.78051e-05 5.77197e-05 5.76348e-05 5.75503e-05 5.74662e-05 5.73825e-05 5.72993e-05 5.72164e-05 5.7134e-05 5.7052e-05 5.69705e-05 5.68893e-05 5.68085e-05 5.67281e-05 5.66481e-05 0.000100248 9.99639e-05 9.9681e-05 9.93989e-05 9.91176e-05 9.88372e-05 9.85576e-05 9.82789e-05 9.8001e-05 9.7724e-05 9.74478e-05 9.71726e-05 9.68981e-05 9.66246e-05 9.63519e-05 9.60801e-05 9.58092e-05 9.55391e-05 9.527e-05 9.50017e-05 9.47343e-05 9.44678e-05 9.42022e-05 9.39375e-05 9.36737e-05 9.34108e-05 9.31488e-05 9.28877e-05 9.26275e-05 9.23682e-05 9.21099e-05 9.18524e-05 9.15959e-05 9.13403e-05 9.10856e-05 9.08319e-05 9.05791e-05 9.03272e-05 9.00762e-05 8.98262e-05 8.95771e-05 8.93289e-05 8.90817e-05 8.88354e-05 8.859e-05 8.83456e-05 8.81022e-05 8.78597e-05 8.76181e-05 8.73775e-05 8.71379e-05 8.68991e-05 8.66614e-05 8.64246e-05 8.61888e-05 8.59539e-05 8.572e-05 8.5487e-05 8.5255e-05 8.5024e-05 8.47939e-05 8.45648e-05 8.43366e-05 8.41095e-05 8.38833e-05 8.3658e-05 8.34337e-05 8.32104e-05 8.29881e-05 8.27667e-05 8.25463e-05 8.23269e-05 8.21085e-05 8.1891e-05 8.16745e-05 8.14589e-05 8.12444e-05 8.10308e-05 8.08182e-05 8.06065e-05 8.03959e-05 8.01862e-05 7.99774e-05 7.97697e-05 7.95629e-05 7.93571e-05 7.91523e-05 7.89484e-05 7.87455e-05 7.85436e-05 7.83426e-05 7.81426e-05 7.79436e-05 7.77456e-05 7.75485e-05 7.73524e-05 7.71572e-05 7.69631e-05 7.67698e-05 7.65776e-05 7.63863e-05 7.6196e-05 7.60066e-05 7.58182e-05 7.56307e-05 7.54442e-05 7.52587e-05 7.50741e-05 7.48904e-05 7.47077e-05 7.4526e-05 7.43452e-05 7.41653e-05 7.39864e-05 7.38085e-05 7.36314e-05 7.34553e-05 7.32802e-05 7.3106e-05 7.29327e-05 7.27603e-05 7.25889e-05 7.24184e-05 7.22488e-05 7.20802e-05 7.19124e-05 7.17456e-05 7.15797e-05 7.14147e-05 7.12506e-05 7.10874e-05 7.09252e-05 7.07638e-05 7.06033e-05 7.04437e-05 7.0285e-05 7.01272e-05 6.99703e-05 6.98143e-05 6.96592e-05 6.95049e-05 6.93515e-05 6.9199e-05 6.90474e-05 6.88966e-05 6.87467e-05 6.85976e-05 6.84494e-05 6.83021e-05 6.81556e-05 6.80099e-05 6.78651e-05 6.77211e-05 6.7578e-05 6.74357e-05 6.72942e-05 6.71536e-05 6.70138e-05 6.68748e-05 6.67366e-05 6.65992e-05 6.64626e-05 6.63268e-05 6.61919e-05 6.60577e-05 6.59243e-05 6.57917e-05 6.56599e-05 6.55289e-05 6.53986e-05 6.52691e-05 6.51404e-05 6.50124e-05 6.48852e-05 6.47588e-05 6.46331e-05 6.45081e-05 6.43839e-05 6.42605e-05 6.41377e-05 6.40157e-05 6.38944e-05 6.37739e-05 6.3654e-05 6.35349e-05 6.34164e-05 6.32987e-05 6.31817e-05 6.30653e-05 6.29497e-05 6.28347e-05 6.27205e-05 6.26069e-05 6.24939e-05 6.23816e-05 6.227e-05 6.21591e-05 6.20488e-05 6.19391e-05 6.18301e-05 6.17218e-05 6.1614e-05 6.15069e-05 6.14004e-05 6.12946e-05 6.11893e-05 6.10847e-05 6.09807e-05 6.08773e-05 6.07744e-05 6.06722e-05 6.05705e-05 6.04695e-05 6.0369e-05 6.02691e-05 6.01697e-05 6.00709e-05 5.99727e-05 5.9875e-05 5.97779e-05 5.96813e-05 5.95853e-05 5.94898e-05 5.93948e-05 5.93003e-05 5.92064e-05 5.9113e-05 5.90201e-05 5.89277e-05 5.88358e-05 5.87444e-05 5.86535e-05 5.85631e-05 5.84732e-05 5.83838e-05 5.82948e-05 5.82063e-05 5.81182e-05 5.80307e-05 5.79435e-05 5.78569e-05 5.77707e-05 5.76849e-05 5.75995e-05 5.75146e-05 5.74301e-05 5.73461e-05 5.72625e-05 5.71792e-05 5.70964e-05 5.7014e-05 5.6932e-05 5.68504e-05 5.67692e-05 5.66884e-05 5.6608e-05 0.000100009 9.97283e-05 9.94483e-05 9.9169e-05 9.88906e-05 9.8613e-05 9.83362e-05 9.80602e-05 9.77851e-05 9.75108e-05 9.72374e-05 9.69647e-05 9.6693e-05 9.6422e-05 9.6152e-05 9.58827e-05 9.56144e-05 9.53469e-05 9.50802e-05 9.48144e-05 9.45495e-05 9.42854e-05 9.40223e-05 9.376e-05 9.34985e-05 9.3238e-05 9.29783e-05 9.27196e-05 9.24617e-05 9.22047e-05 9.19486e-05 9.16933e-05 9.1439e-05 9.11856e-05 9.09331e-05 9.06815e-05 9.04308e-05 9.0181e-05 8.99321e-05 8.96841e-05 8.9437e-05 8.91909e-05 8.89457e-05 8.87014e-05 8.8458e-05 8.82155e-05 8.7974e-05 8.77334e-05 8.74937e-05 8.72549e-05 8.70171e-05 8.67802e-05 8.65443e-05 8.63092e-05 8.60752e-05 8.5842e-05 8.56098e-05 8.53786e-05 8.51483e-05 8.49189e-05 8.46904e-05 8.4463e-05 8.42364e-05 8.40108e-05 8.37862e-05 8.35625e-05 8.33398e-05 8.3118e-05 8.28971e-05 8.26773e-05 8.24583e-05 8.22403e-05 8.20233e-05 8.18072e-05 8.15921e-05 8.1378e-05 8.11648e-05 8.09525e-05 8.07412e-05 8.05309e-05 8.03215e-05 8.01131e-05 7.99056e-05 7.96991e-05 7.94935e-05 7.92889e-05 7.90853e-05 7.88826e-05 7.86808e-05 7.848e-05 7.82802e-05 7.80813e-05 7.78834e-05 7.76864e-05 7.74904e-05 7.72953e-05 7.71012e-05 7.6908e-05 7.67158e-05 7.65246e-05 7.63342e-05 7.61448e-05 7.59564e-05 7.57689e-05 7.55823e-05 7.53967e-05 7.52121e-05 7.50283e-05 7.48455e-05 7.46637e-05 7.44827e-05 7.43027e-05 7.41237e-05 7.39455e-05 7.37683e-05 7.35921e-05 7.34167e-05 7.32423e-05 7.30687e-05 7.28961e-05 7.27245e-05 7.25537e-05 7.23838e-05 7.22149e-05 7.20469e-05 7.18797e-05 7.17135e-05 7.15482e-05 7.13838e-05 7.12202e-05 7.10576e-05 7.08958e-05 7.0735e-05 7.0575e-05 7.04159e-05 7.02577e-05 7.01004e-05 6.9944e-05 6.97884e-05 6.96337e-05 6.94798e-05 6.93268e-05 6.91747e-05 6.90235e-05 6.88731e-05 6.87235e-05 6.85748e-05 6.84269e-05 6.82799e-05 6.81337e-05 6.79884e-05 6.78439e-05 6.77002e-05 6.75573e-05 6.74153e-05 6.72741e-05 6.71337e-05 6.69941e-05 6.68553e-05 6.67173e-05 6.65801e-05 6.64437e-05 6.63081e-05 6.61733e-05 6.60393e-05 6.5906e-05 6.57736e-05 6.56419e-05 6.5511e-05 6.53808e-05 6.52514e-05 6.51228e-05 6.49949e-05 6.48677e-05 6.47414e-05 6.46157e-05 6.44908e-05 6.43666e-05 6.42432e-05 6.41204e-05 6.39984e-05 6.38771e-05 6.37565e-05 6.36367e-05 6.35175e-05 6.3399e-05 6.32812e-05 6.31641e-05 6.30477e-05 6.2932e-05 6.2817e-05 6.27026e-05 6.25889e-05 6.24758e-05 6.23634e-05 6.22517e-05 6.21406e-05 6.20302e-05 6.19204e-05 6.18112e-05 6.17027e-05 6.15948e-05 6.14875e-05 6.13808e-05 6.12747e-05 6.11693e-05 6.10644e-05 6.09602e-05 6.08565e-05 6.07535e-05 6.0651e-05 6.05491e-05 6.04478e-05 6.0347e-05 6.02468e-05 6.01472e-05 6.00481e-05 5.99496e-05 5.98517e-05 5.97542e-05 5.96573e-05 5.9561e-05 5.94652e-05 5.93699e-05 5.92751e-05 5.91808e-05 5.90871e-05 5.89938e-05 5.89011e-05 5.88088e-05 5.87171e-05 5.86258e-05 5.8535e-05 5.84447e-05 5.83549e-05 5.82655e-05 5.81766e-05 5.80881e-05 5.80001e-05 5.79126e-05 5.78255e-05 5.77389e-05 5.76527e-05 5.75669e-05 5.74815e-05 5.73966e-05 5.73121e-05 5.7228e-05 5.71443e-05 5.7061e-05 5.69782e-05 5.68957e-05 5.68136e-05 5.67319e-05 5.66506e-05 5.65697e-05 9.97733e-05 9.94953e-05 9.92181e-05 9.89417e-05 9.8666e-05 9.83912e-05 9.81172e-05 9.78439e-05 9.75715e-05 9.72999e-05 9.70291e-05 9.67591e-05 9.649e-05 9.62216e-05 9.59541e-05 9.56875e-05 9.54216e-05 9.51566e-05 9.48924e-05 9.46291e-05 9.43666e-05 9.4105e-05 9.38442e-05 9.35843e-05 9.33252e-05 9.3067e-05 9.28096e-05 9.25531e-05 9.22975e-05 9.20427e-05 9.17889e-05 9.15358e-05 9.12837e-05 9.10324e-05 9.07821e-05 9.05326e-05 9.02839e-05 9.00362e-05 8.97894e-05 8.95434e-05 8.92984e-05 8.90542e-05 8.8811e-05 8.85686e-05 8.83272e-05 8.80866e-05 8.7847e-05 8.76082e-05 8.73704e-05 8.71335e-05 8.68975e-05 8.66624e-05 8.64282e-05 8.6195e-05 8.59626e-05 8.57312e-05 8.55007e-05 8.52711e-05 8.50425e-05 8.48147e-05 8.45879e-05 8.4362e-05 8.41371e-05 8.39131e-05 8.369e-05 8.34678e-05 8.32466e-05 8.30263e-05 8.2807e-05 8.25885e-05 8.2371e-05 8.21545e-05 8.19389e-05 8.17242e-05 8.15105e-05 8.12977e-05 8.10858e-05 8.08749e-05 8.06649e-05 8.04558e-05 8.02477e-05 8.00405e-05 7.98343e-05 7.9629e-05 7.94247e-05 7.92212e-05 7.90188e-05 7.88172e-05 7.86166e-05 7.8417e-05 7.82182e-05 7.80205e-05 7.78236e-05 7.76277e-05 7.74327e-05 7.72387e-05 7.70456e-05 7.68534e-05 7.66622e-05 7.64719e-05 7.62825e-05 7.6094e-05 7.59065e-05 7.57199e-05 7.55343e-05 7.53495e-05 7.51657e-05 7.49829e-05 7.48009e-05 7.46199e-05 7.44397e-05 7.42605e-05 7.40822e-05 7.39049e-05 7.37284e-05 7.35529e-05 7.33782e-05 7.32045e-05 7.30317e-05 7.28598e-05 7.26888e-05 7.25187e-05 7.23495e-05 7.21811e-05 7.20137e-05 7.18472e-05 7.16816e-05 7.15168e-05 7.1353e-05 7.119e-05 7.10279e-05 7.08667e-05 7.07063e-05 7.05469e-05 7.03883e-05 7.02305e-05 7.00737e-05 6.99177e-05 6.97625e-05 6.96083e-05 6.94548e-05 6.93023e-05 6.91505e-05 6.89997e-05 6.88496e-05 6.87004e-05 6.85521e-05 6.84045e-05 6.82579e-05 6.8112e-05 6.79669e-05 6.78227e-05 6.76793e-05 6.75367e-05 6.73949e-05 6.7254e-05 6.71138e-05 6.69744e-05 6.68359e-05 6.66981e-05 6.65611e-05 6.64249e-05 6.62895e-05 6.61548e-05 6.6021e-05 6.58879e-05 6.57556e-05 6.5624e-05 6.54932e-05 6.53631e-05 6.52338e-05 6.51053e-05 6.49775e-05 6.48504e-05 6.47241e-05 6.45985e-05 6.44736e-05 6.43495e-05 6.4226e-05 6.41033e-05 6.39813e-05 6.386e-05 6.37394e-05 6.36195e-05 6.35003e-05 6.33818e-05 6.3264e-05 6.31468e-05 6.30304e-05 6.29146e-05 6.27994e-05 6.2685e-05 6.25712e-05 6.2458e-05 6.23455e-05 6.22337e-05 6.21225e-05 6.20119e-05 6.19019e-05 6.17926e-05 6.16839e-05 6.15759e-05 6.14684e-05 6.13616e-05 6.12553e-05 6.11497e-05 6.10446e-05 6.09402e-05 6.08363e-05 6.0733e-05 6.06303e-05 6.05282e-05 6.04266e-05 6.03256e-05 6.02252e-05 6.01253e-05 6.0026e-05 5.99272e-05 5.98289e-05 5.97312e-05 5.96341e-05 5.95374e-05 5.94413e-05 5.93457e-05 5.92506e-05 5.9156e-05 5.90619e-05 5.89683e-05 5.88753e-05 5.87827e-05 5.86906e-05 5.85989e-05 5.85078e-05 5.84171e-05 5.83269e-05 5.82372e-05 5.81479e-05 5.80591e-05 5.79707e-05 5.78828e-05 5.77953e-05 5.77082e-05 5.76216e-05 5.75354e-05 5.74497e-05 5.73643e-05 5.72794e-05 5.71949e-05 5.71108e-05 5.7027e-05 5.69437e-05 5.68608e-05 5.67783e-05 5.66961e-05 5.66144e-05 5.6533e-05 9.95434e-05 9.92682e-05 9.89937e-05 9.87201e-05 9.84472e-05 9.81751e-05 9.79038e-05 9.76332e-05 9.73635e-05 9.70945e-05 9.68263e-05 9.65589e-05 9.62923e-05 9.60266e-05 9.57616e-05 9.54974e-05 9.5234e-05 9.49715e-05 9.47098e-05 9.44489e-05 9.41888e-05 9.39295e-05 9.36711e-05 9.34135e-05 9.31567e-05 9.29008e-05 9.26457e-05 9.23915e-05 9.21381e-05 9.18855e-05 9.16338e-05 9.1383e-05 9.1133e-05 9.08838e-05 9.06355e-05 9.03881e-05 9.01416e-05 8.98959e-05 8.96511e-05 8.94071e-05 8.91641e-05 8.89219e-05 8.86806e-05 8.84401e-05 8.82006e-05 8.79619e-05 8.77242e-05 8.74873e-05 8.72513e-05 8.70161e-05 8.67819e-05 8.65486e-05 8.63162e-05 8.60847e-05 8.5854e-05 8.56243e-05 8.53955e-05 8.51676e-05 8.49405e-05 8.47144e-05 8.44892e-05 8.42649e-05 8.40416e-05 8.38191e-05 8.35975e-05 8.33769e-05 8.31572e-05 8.29383e-05 8.27204e-05 8.25035e-05 8.22874e-05 8.20722e-05 8.1858e-05 8.16447e-05 8.14323e-05 8.12209e-05 8.10103e-05 8.08007e-05 8.0592e-05 8.03842e-05 8.01774e-05 7.99714e-05 7.97664e-05 7.95623e-05 7.93592e-05 7.91569e-05 7.89556e-05 7.87552e-05 7.85557e-05 7.83572e-05 7.81596e-05 7.79628e-05 7.77671e-05 7.75722e-05 7.73783e-05 7.71852e-05 7.69931e-05 7.68019e-05 7.66117e-05 7.64223e-05 7.62339e-05 7.60464e-05 7.58598e-05 7.56741e-05 7.54893e-05 7.53054e-05 7.51225e-05 7.49404e-05 7.47593e-05 7.45791e-05 7.43998e-05 7.42213e-05 7.40438e-05 7.38672e-05 7.36915e-05 7.35167e-05 7.33427e-05 7.31697e-05 7.29976e-05 7.28264e-05 7.2656e-05 7.24865e-05 7.2318e-05 7.21503e-05 7.19835e-05 7.18175e-05 7.16525e-05 7.14883e-05 7.1325e-05 7.11626e-05 7.1001e-05 7.08403e-05 7.06805e-05 7.05215e-05 7.03634e-05 7.02061e-05 7.00497e-05 6.98941e-05 6.97394e-05 6.95856e-05 6.94326e-05 6.92804e-05 6.91291e-05 6.89785e-05 6.88289e-05 6.868e-05 6.8532e-05 6.83848e-05 6.82384e-05 6.80929e-05 6.79481e-05 6.78042e-05 6.76611e-05 6.75187e-05 6.73772e-05 6.72365e-05 6.70966e-05 6.69574e-05 6.6819e-05 6.66815e-05 6.65447e-05 6.64086e-05 6.62734e-05 6.61389e-05 6.60052e-05 6.58722e-05 6.574e-05 6.56086e-05 6.54779e-05 6.53479e-05 6.52187e-05 6.50903e-05 6.49625e-05 6.48355e-05 6.47092e-05 6.45837e-05 6.44589e-05 6.43347e-05 6.42113e-05 6.40886e-05 6.39666e-05 6.38453e-05 6.37247e-05 6.36048e-05 6.34855e-05 6.3367e-05 6.32491e-05 6.31319e-05 6.30153e-05 6.28995e-05 6.27843e-05 6.26697e-05 6.25558e-05 6.24425e-05 6.23299e-05 6.22179e-05 6.21066e-05 6.19959e-05 6.18858e-05 6.17763e-05 6.16675e-05 6.15592e-05 6.14516e-05 6.13445e-05 6.12381e-05 6.11323e-05 6.1027e-05 6.09223e-05 6.08183e-05 6.07147e-05 6.06118e-05 6.05094e-05 6.04076e-05 6.03064e-05 6.02057e-05 6.01055e-05 6.00059e-05 5.99068e-05 5.98083e-05 5.97103e-05 5.96128e-05 5.95159e-05 5.94195e-05 5.93235e-05 5.92281e-05 5.91332e-05 5.90388e-05 5.89449e-05 5.88514e-05 5.87585e-05 5.8666e-05 5.85741e-05 5.84825e-05 5.83915e-05 5.83009e-05 5.82108e-05 5.81211e-05 5.80319e-05 5.79431e-05 5.78548e-05 5.77669e-05 5.76795e-05 5.75924e-05 5.75058e-05 5.74196e-05 5.73339e-05 5.72485e-05 5.71635e-05 5.7079e-05 5.69948e-05 5.69111e-05 5.68277e-05 5.67447e-05 5.66621e-05 5.65799e-05 5.6498e-05 9.93179e-05 9.90454e-05 9.87737e-05 9.85028e-05 9.82326e-05 9.79632e-05 9.76945e-05 9.74266e-05 9.71595e-05 9.68931e-05 9.66275e-05 9.63627e-05 9.60986e-05 9.58354e-05 9.55729e-05 9.53112e-05 9.50503e-05 9.47901e-05 9.45308e-05 9.42723e-05 9.40146e-05 9.37576e-05 9.35015e-05 9.32462e-05 9.29918e-05 9.27381e-05 9.24852e-05 9.22332e-05 9.1982e-05 9.17316e-05 9.14821e-05 9.12334e-05 9.09855e-05 9.07384e-05 9.04922e-05 9.02469e-05 9.00024e-05 8.97587e-05 8.95159e-05 8.92739e-05 8.90328e-05 8.87926e-05 8.85532e-05 8.83146e-05 8.8077e-05 8.78401e-05 8.76042e-05 8.73691e-05 8.71349e-05 8.69016e-05 8.66692e-05 8.64376e-05 8.62069e-05 8.59771e-05 8.57481e-05 8.55201e-05 8.52929e-05 8.50666e-05 8.48412e-05 8.46167e-05 8.43931e-05 8.41704e-05 8.39485e-05 8.37276e-05 8.35075e-05 8.32884e-05 8.30701e-05 8.28528e-05 8.26363e-05 8.24208e-05 8.22061e-05 8.19923e-05 8.17795e-05 8.15675e-05 8.13565e-05 8.11463e-05 8.09371e-05 8.07288e-05 8.05213e-05 8.03148e-05 8.01092e-05 7.99045e-05 7.97007e-05 7.94978e-05 7.92958e-05 7.90947e-05 7.88945e-05 7.86953e-05 7.84969e-05 7.82995e-05 7.81029e-05 7.79073e-05 7.77125e-05 7.75187e-05 7.73258e-05 7.71338e-05 7.69426e-05 7.67524e-05 7.65631e-05 7.63747e-05 7.61872e-05 7.60006e-05 7.58149e-05 7.56301e-05 7.54462e-05 7.52632e-05 7.50811e-05 7.48999e-05 7.47195e-05 7.45401e-05 7.43616e-05 7.41839e-05 7.40072e-05 7.38313e-05 7.36563e-05 7.34822e-05 7.3309e-05 7.31367e-05 7.29652e-05 7.27946e-05 7.26249e-05 7.24561e-05 7.22882e-05 7.21211e-05 7.19549e-05 7.17895e-05 7.1625e-05 7.14614e-05 7.12987e-05 7.11368e-05 7.09757e-05 7.08155e-05 7.06562e-05 7.04977e-05 7.03401e-05 7.01833e-05 7.00273e-05 6.98722e-05 6.97179e-05 6.95645e-05 6.94119e-05 6.92601e-05 6.91091e-05 6.8959e-05 6.88097e-05 6.86612e-05 6.85135e-05 6.83666e-05 6.82206e-05 6.80753e-05 6.79309e-05 6.77872e-05 6.76443e-05 6.75023e-05 6.7361e-05 6.72205e-05 6.70808e-05 6.69419e-05 6.68037e-05 6.66663e-05 6.65297e-05 6.63939e-05 6.62588e-05 6.61245e-05 6.59909e-05 6.58581e-05 6.5726e-05 6.55947e-05 6.54641e-05 6.53342e-05 6.52051e-05 6.50767e-05 6.4949e-05 6.48221e-05 6.46959e-05 6.45704e-05 6.44456e-05 6.43215e-05 6.41981e-05 6.40754e-05 6.39533e-05 6.3832e-05 6.37114e-05 6.35914e-05 6.34722e-05 6.33536e-05 6.32356e-05 6.31184e-05 6.30018e-05 6.28858e-05 6.27705e-05 6.26558e-05 6.25418e-05 6.24285e-05 6.23157e-05 6.22036e-05 6.20921e-05 6.19813e-05 6.1871e-05 6.17614e-05 6.16524e-05 6.1544e-05 6.14362e-05 6.1329e-05 6.12223e-05 6.11163e-05 6.10108e-05 6.0906e-05 6.08016e-05 6.06979e-05 6.05947e-05 6.04921e-05 6.03901e-05 6.02886e-05 6.01876e-05 6.00872e-05 5.99873e-05 5.9888e-05 5.97892e-05 5.96909e-05 5.95931e-05 5.94958e-05 5.93991e-05 5.93029e-05 5.92071e-05 5.91119e-05 5.90171e-05 5.89229e-05 5.88291e-05 5.87358e-05 5.8643e-05 5.85507e-05 5.84588e-05 5.83674e-05 5.82764e-05 5.8186e-05 5.80959e-05 5.80063e-05 5.79171e-05 5.78284e-05 5.77401e-05 5.76523e-05 5.75648e-05 5.74778e-05 5.73912e-05 5.7305e-05 5.72192e-05 5.71338e-05 5.70488e-05 5.69642e-05 5.688e-05 5.67962e-05 5.67128e-05 5.66297e-05 5.6547e-05 5.64647e-05 9.90973e-05 9.88276e-05 9.85586e-05 9.82904e-05 9.80229e-05 9.77561e-05 9.74901e-05 9.72248e-05 9.69602e-05 9.66964e-05 9.64333e-05 9.6171e-05 9.59094e-05 9.56486e-05 9.53886e-05 9.51293e-05 9.48708e-05 9.46131e-05 9.43561e-05 9.41e-05 9.38446e-05 9.359e-05 9.33361e-05 9.30831e-05 9.28309e-05 9.25794e-05 9.23288e-05 9.20789e-05 9.18299e-05 9.15816e-05 9.13342e-05 9.10876e-05 9.08418e-05 9.05968e-05 9.03527e-05 9.01093e-05 8.98668e-05 8.96252e-05 8.93843e-05 8.91443e-05 8.89051e-05 8.86668e-05 8.84293e-05 8.81926e-05 8.79568e-05 8.77218e-05 8.74877e-05 8.72544e-05 8.7022e-05 8.67904e-05 8.65597e-05 8.63299e-05 8.61009e-05 8.58727e-05 8.56455e-05 8.5419e-05 8.51935e-05 8.49688e-05 8.4745e-05 8.45221e-05 8.43e-05 8.40789e-05 8.38586e-05 8.36391e-05 8.34206e-05 8.32029e-05 8.29861e-05 8.27702e-05 8.25551e-05 8.2341e-05 8.21277e-05 8.19153e-05 8.17038e-05 8.14932e-05 8.12835e-05 8.10746e-05 8.08667e-05 8.06596e-05 8.04535e-05 8.02482e-05 8.00438e-05 7.98403e-05 7.96377e-05 7.94359e-05 7.92351e-05 7.90352e-05 7.88361e-05 7.8638e-05 7.84407e-05 7.82443e-05 7.80489e-05 7.78543e-05 7.76606e-05 7.74678e-05 7.72758e-05 7.70848e-05 7.68947e-05 7.67054e-05 7.65171e-05 7.63296e-05 7.6143e-05 7.59573e-05 7.57725e-05 7.55886e-05 7.54055e-05 7.52234e-05 7.50421e-05 7.48617e-05 7.46822e-05 7.45035e-05 7.43258e-05 7.41489e-05 7.39729e-05 7.37977e-05 7.36235e-05 7.34501e-05 7.32776e-05 7.31059e-05 7.29351e-05 7.27652e-05 7.25961e-05 7.24279e-05 7.22606e-05 7.20941e-05 7.19285e-05 7.17637e-05 7.15998e-05 7.14368e-05 7.12745e-05 7.11132e-05 7.09526e-05 7.0793e-05 7.06341e-05 7.04761e-05 7.03189e-05 7.01626e-05 7.00071e-05 6.98524e-05 6.96985e-05 6.95455e-05 6.93933e-05 6.92419e-05 6.90913e-05 6.89415e-05 6.87926e-05 6.86444e-05 6.8497e-05 6.83505e-05 6.82047e-05 6.80598e-05 6.79156e-05 6.77722e-05 6.76296e-05 6.74878e-05 6.73468e-05 6.72065e-05 6.7067e-05 6.69283e-05 6.67903e-05 6.66532e-05 6.65167e-05 6.6381e-05 6.62461e-05 6.61119e-05 6.59785e-05 6.58458e-05 6.57139e-05 6.55827e-05 6.54522e-05 6.53224e-05 6.51934e-05 6.50651e-05 6.49374e-05 6.48106e-05 6.46844e-05 6.45589e-05 6.44341e-05 6.431e-05 6.41867e-05 6.4064e-05 6.39419e-05 6.38206e-05 6.36999e-05 6.358e-05 6.34606e-05 6.3342e-05 6.3224e-05 6.31067e-05 6.299e-05 6.2874e-05 6.27586e-05 6.26438e-05 6.25297e-05 6.24162e-05 6.23034e-05 6.21911e-05 6.20795e-05 6.19685e-05 6.18581e-05 6.17483e-05 6.16391e-05 6.15306e-05 6.14226e-05 6.13152e-05 6.12083e-05 6.11021e-05 6.09964e-05 6.08913e-05 6.07868e-05 6.06828e-05 6.05794e-05 6.04766e-05 6.03743e-05 6.02725e-05 6.01713e-05 6.00706e-05 5.99705e-05 5.98708e-05 5.97717e-05 5.96732e-05 5.95751e-05 5.94775e-05 5.93805e-05 5.92839e-05 5.91879e-05 5.90923e-05 5.89972e-05 5.89026e-05 5.88085e-05 5.87149e-05 5.86217e-05 5.8529e-05 5.84368e-05 5.8345e-05 5.82537e-05 5.81628e-05 5.80724e-05 5.79824e-05 5.78928e-05 5.78037e-05 5.7715e-05 5.76267e-05 5.75389e-05 5.74514e-05 5.73644e-05 5.72778e-05 5.71916e-05 5.71058e-05 5.70203e-05 5.69353e-05 5.68506e-05 5.67664e-05 5.66825e-05 5.6599e-05 5.65158e-05 5.6433e-05 9.88816e-05 9.86145e-05 9.83482e-05 9.80826e-05 9.78177e-05 9.75535e-05 9.72901e-05 9.70273e-05 9.67653e-05 9.6504e-05 9.62434e-05 9.59836e-05 9.57245e-05 9.54661e-05 9.52085e-05 9.49516e-05 9.46955e-05 9.44401e-05 9.41855e-05 9.39316e-05 9.36785e-05 9.34262e-05 9.31746e-05 9.29238e-05 9.26738e-05 9.24245e-05 9.2176e-05 9.19283e-05 9.16814e-05 9.14353e-05 9.119e-05 9.09454e-05 9.07017e-05 9.04588e-05 9.02166e-05 8.99753e-05 8.97347e-05 8.9495e-05 8.92561e-05 8.9018e-05 8.87807e-05 8.85443e-05 8.83086e-05 8.80738e-05 8.78398e-05 8.76067e-05 8.73743e-05 8.71428e-05 8.69122e-05 8.66823e-05 8.64533e-05 8.62252e-05 8.59979e-05 8.57714e-05 8.55458e-05 8.5321e-05 8.50971e-05 8.4874e-05 8.46518e-05 8.44304e-05 8.42099e-05 8.39902e-05 8.37714e-05 8.35535e-05 8.33364e-05 8.31201e-05 8.29048e-05 8.26903e-05 8.24767e-05 8.22639e-05 8.2052e-05 8.1841e-05 8.16308e-05 8.14215e-05 8.12131e-05 8.10055e-05 8.07988e-05 8.0593e-05 8.03881e-05 8.01841e-05 7.99809e-05 7.97786e-05 7.95771e-05 7.93766e-05 7.91769e-05 7.89781e-05 7.87801e-05 7.85831e-05 7.83869e-05 7.81916e-05 7.79972e-05 7.78036e-05 7.76109e-05 7.74191e-05 7.72282e-05 7.70382e-05 7.6849e-05 7.66607e-05 7.64733e-05 7.62867e-05 7.6101e-05 7.59162e-05 7.57323e-05 7.55492e-05 7.5367e-05 7.51857e-05 7.50052e-05 7.48256e-05 7.46469e-05 7.4469e-05 7.4292e-05 7.41159e-05 7.39406e-05 7.37662e-05 7.35927e-05 7.342e-05 7.32482e-05 7.30772e-05 7.2907e-05 7.27378e-05 7.25693e-05 7.24018e-05 7.2235e-05 7.20692e-05 7.19041e-05 7.17399e-05 7.15766e-05 7.1414e-05 7.12524e-05 7.10915e-05 7.09315e-05 7.07723e-05 7.06139e-05 7.04564e-05 7.02997e-05 7.01438e-05 6.99887e-05 6.98345e-05 6.9681e-05 6.95284e-05 6.93765e-05 6.92255e-05 6.90753e-05 6.89259e-05 6.87773e-05 6.86295e-05 6.84824e-05 6.83362e-05 6.81907e-05 6.8046e-05 6.79022e-05 6.7759e-05 6.76167e-05 6.74751e-05 6.73343e-05 6.71943e-05 6.7055e-05 6.69165e-05 6.67788e-05 6.66417e-05 6.65055e-05 6.637e-05 6.62352e-05 6.61012e-05 6.59679e-05 6.58353e-05 6.57035e-05 6.55724e-05 6.5442e-05 6.53123e-05 6.51834e-05 6.50551e-05 6.49276e-05 6.48007e-05 6.46746e-05 6.45491e-05 6.44244e-05 6.43003e-05 6.41769e-05 6.40542e-05 6.39322e-05 6.38109e-05 6.36902e-05 6.35702e-05 6.34508e-05 6.33321e-05 6.3214e-05 6.30966e-05 6.29799e-05 6.28638e-05 6.27483e-05 6.26334e-05 6.25192e-05 6.24056e-05 6.22926e-05 6.21803e-05 6.20685e-05 6.19574e-05 6.18468e-05 6.17369e-05 6.16275e-05 6.15188e-05 6.14106e-05 6.1303e-05 6.1196e-05 6.10895e-05 6.09836e-05 6.08783e-05 6.07736e-05 6.06694e-05 6.05657e-05 6.04627e-05 6.03601e-05 6.02581e-05 6.01566e-05 6.00556e-05 5.99552e-05 5.98553e-05 5.97559e-05 5.96571e-05 5.95587e-05 5.94608e-05 5.93635e-05 5.92666e-05 5.91702e-05 5.90743e-05 5.89789e-05 5.8884e-05 5.87896e-05 5.86956e-05 5.86021e-05 5.8509e-05 5.84164e-05 5.83242e-05 5.82325e-05 5.81413e-05 5.80505e-05 5.79601e-05 5.78701e-05 5.77806e-05 5.76915e-05 5.76029e-05 5.75146e-05 5.74267e-05 5.73393e-05 5.72522e-05 5.71656e-05 5.70793e-05 5.69935e-05 5.6908e-05 5.68229e-05 5.67382e-05 5.66539e-05 5.65699e-05 5.64863e-05 5.6403e-05 9.86706e-05 9.84061e-05 9.81424e-05 9.78795e-05 9.76172e-05 9.73555e-05 9.70946e-05 9.68344e-05 9.65749e-05 9.63161e-05 9.60579e-05 9.58005e-05 9.55439e-05 9.52879e-05 9.50326e-05 9.47781e-05 9.45243e-05 9.42713e-05 9.40189e-05 9.37673e-05 9.35165e-05 9.32664e-05 9.3017e-05 9.27684e-05 9.25206e-05 9.22735e-05 9.20271e-05 9.17816e-05 9.15368e-05 9.12927e-05 9.10495e-05 9.0807e-05 9.05652e-05 9.03243e-05 9.00842e-05 8.98448e-05 8.96062e-05 8.93684e-05 8.91314e-05 8.88952e-05 8.86598e-05 8.84252e-05 8.81914e-05 8.79584e-05 8.77262e-05 8.74948e-05 8.72643e-05 8.70345e-05 8.68056e-05 8.65774e-05 8.63501e-05 8.61237e-05 8.5898e-05 8.56732e-05 8.54492e-05 8.5226e-05 8.50037e-05 8.47822e-05 8.45615e-05 8.43416e-05 8.41226e-05 8.39045e-05 8.36872e-05 8.34707e-05 8.32551e-05 8.30403e-05 8.28263e-05 8.26132e-05 8.2401e-05 8.21896e-05 8.1979e-05 8.17693e-05 8.15605e-05 8.13525e-05 8.11454e-05 8.09391e-05 8.07337e-05 8.05291e-05 8.03254e-05 8.01225e-05 7.99206e-05 7.97194e-05 7.95191e-05 7.93197e-05 7.91212e-05 7.89235e-05 7.87266e-05 7.85307e-05 7.83356e-05 7.81413e-05 7.79479e-05 7.77554e-05 7.75637e-05 7.73729e-05 7.7183e-05 7.69939e-05 7.68057e-05 7.66183e-05 7.64318e-05 7.62462e-05 7.60614e-05 7.58774e-05 7.56944e-05 7.55121e-05 7.53308e-05 7.51503e-05 7.49706e-05 7.47918e-05 7.46139e-05 7.44368e-05 7.42606e-05 7.40852e-05 7.39106e-05 7.37369e-05 7.35641e-05 7.33921e-05 7.32209e-05 7.30506e-05 7.28811e-05 7.27125e-05 7.25447e-05 7.23777e-05 7.22116e-05 7.20463e-05 7.18818e-05 7.17182e-05 7.15554e-05 7.13934e-05 7.12322e-05 7.10719e-05 7.09124e-05 7.07537e-05 7.05958e-05 7.04387e-05 7.02825e-05 7.0127e-05 6.99724e-05 6.98185e-05 6.96655e-05 6.95132e-05 6.93618e-05 6.92111e-05 6.90613e-05 6.89122e-05 6.87639e-05 6.86164e-05 6.84697e-05 6.83238e-05 6.81786e-05 6.80342e-05 6.78906e-05 6.77478e-05 6.76057e-05 6.74643e-05 6.73238e-05 6.7184e-05 6.70449e-05 6.69066e-05 6.6769e-05 6.66322e-05 6.64961e-05 6.63608e-05 6.62261e-05 6.60923e-05 6.59591e-05 6.58266e-05 6.56949e-05 6.55639e-05 6.54336e-05 6.5304e-05 6.51751e-05 6.5047e-05 6.49195e-05 6.47927e-05 6.46666e-05 6.45412e-05 6.44164e-05 6.42924e-05 6.4169e-05 6.40463e-05 6.39243e-05 6.38029e-05 6.36822e-05 6.35621e-05 6.34427e-05 6.3324e-05 6.32058e-05 6.30884e-05 6.29715e-05 6.28553e-05 6.27397e-05 6.26248e-05 6.25105e-05 6.23967e-05 6.22836e-05 6.21711e-05 6.20592e-05 6.19479e-05 6.18372e-05 6.17271e-0