<?xml version="1.0"?> 
<VTKFile type="StructuredGrid" version="0.1"> 
<StructuredGrid WholeExtent="0 15 0 15 0 0"> 
<Piece Extent="0 15 0 15 0 0"> 
<PointData>
<DataArray type="Float32" Name="|E|" format="ascii" NumberOfComponents="3"> 
-373423 0 0 -374145 -0.163188 0 -376313 -0.325732 0 -379934 -0.486947 0 -385019 -0.646067 0 -391585 -0.802206 0 -399652 -0.954311 0 -409245 -1.10112 0 -420393 -1.24109 0 -433130 -1.37241 0 -447492 -1.49285 0 -463521 -1.5998 0 -481259 -1.69015 0 -500754 -1.76027 0 -522055 -1.80599 0 -545213 -1.8226 0 -371420 0 0 -372138 2403.42 0 -374297 4814.56 0 -377901 7241.1 0 -382965 9690.68 0 -389502 12170.8 0 -397534 14689 0 -407087 17252.3 0 -418189 19867.8 0 -430874 22542.1 0 -445180 25281.6 0 -461147 28092 0 -478820 30978.5 0 -498247 33945.5 0 -519477 36996.4 0 -542562 40133.7 0 -365428 0 0 -366137 4785.31 0 -368266 9586.13 0 -371823 14417.9 0 -376819 19296.1 0 -383270 24235.7 0 -391198 29251.8 0 -400629 34358.9 0 -411591 39571.2 0 -424120 44902.4 0 -438254 50365.1 0 -454036 55971.4 0 -471512 61731.9 0 -490731 67656 0 -511746 73751.1 0 -534610 80022.7 0 -355502 0 0 -356194 7124.05 0 -358275 14271.6 0 -361751 21465.9 0 -366634 28730.3 0 -372941 36087.9 0 -380693 43561.3 0 -389918 51172.8 0 -400645 58944.1 0 -412911 66896.1 0 -426756 75048.8 0 -442224 83420.9 0 -459364 92029.4 0 -478229 100889 0 -498875 110014 0 -521361 119411 0 -341731 0 0 -342401 9397.56 0 -344413 18826.7 0 -347774 28318.9 0 -352497 37905.6 0 -358600 47617.8 0 -366103 57486.4 0 -375036 67541.8 0 -385429 77813.7 0 -397320 88331 0 -410751 99121.5 0 -425770 110212 0 -442428 121626 0 -460781 133386 0 -480893 145512 0 -502827 158019 0 -324243 0 0 -324883 11583.3 0 -326806 23206.5 0 -330019 34909.3 0 -334534 46731.6 0 -340371 58712.7 0 -347550 70892.2 0 -356101 83308.7 0 -366056 96000.7 0 -377455 109006 0 -390342 122360 0 -404767 136100 0 -420784 150257 0 -438456 164864 0 -457849 179948 0 -479036 195532 0 -303204 0 0 -303807 13658.3 0 -305620 27364.8 0 -308649 41167.9 0 -312908 55115.8 0 -318415 69256.7 0 -325192 83638.7 0 -333269 98309.6 0 -342679 113317 0 -353463 128708 0 -365667 144529 0 -379343 160824 0 -394550 177639 0 -411353 195013 0 -429825 212987 0 -450046 231595 0 -278817 0 0 -279377 15599.1 0 -281058 31254.8 0 -283869 47024.1 0 -287821 62963.8 0 -292933 79130.8 0 -299229 95582.2 0 -306737 112375 0 -315491 129567 0 -325533 147215 0 -336909 165376 0 -349673 184106 0 -363888 203461 0 -379620 223495 0 -396949 244260 0 -415959 265805 0 -251326 0 0 -251835 17382.3 0 -253364 34829.7 0 -255920 52407.2 0 -259517 70180.4 0 -264171 88214.9 0 -269905 106577 0 -276747 125333 0 -284733 144551 0 -293901 164297 0 -304300 184641 0 -315984 205651 0 -329014 227395 0 -343462 249943 0 -359408 273361 0 -376941 297716 0 -221013 0 0 -221464 18985 0 -222820 38043.1 0 -225088 57247.3 0 -228280 76671.5 0 -232412 96389.7 0 -237506 116477 0 -243589 137010 0 -250693 158065 0 -258858 179720 0 -268130 202057 0 -278560 225156 0 -290211 249099 0 -303152 273971 0 -317464 299857 0 -333237 326842 0 -188196 0 0 -188583 20385.2 0 -189747 40850.7 0 -191695 61477.3 0 -194436 82346.3 0 -197986 103540 0 -202365 125142 0 -207598 147236 0 -213714 169911 0 -220749 193254 0 -228747 217358 0 -237755 242315 0 -247833 268224 0 -259045 295184 0 -271469 323298 0 -285193 352674 0 -153230 0 0 -153548 21562.3 0 -154503 43211.4 0 -156100 65034.9 0 -158349 87120.7 0 -161263 109558 0 -164858 132438 0 -169157 155854 0 -174185 179902 0 -179974 204679 0 -186561 230288 0 -193990 256836 0 -202310 284432 0 -211582 313192 0 -221874 343238 0 -233265 374698 0 -116503 0 0 -116746 22498.3 0 -117476 45088.9 0 -118698 67864.7 0 -120419 90919.5 0 -122649 114349 0 -125402 138249 0 -128695 162721 0 -132549 187868 0 -136989 213796 0 -142045 240618 0 -147753 268448 0 -154153 297410 0 -161294 327635 0 -169233 359258 0 -178035 392429 0 -78429.2 0 0 -78593.4 23178.2 0 -79087.2 46452.9 0 -79913.4 69920.9 0 -81077.3 93680.4 0 -82585.9 117831 0 -84448.9 142475 0 -86678.1 167718 0 -89288.3 193668 0 -92297 220439 0 -95725.2 248148 0 -99597.9 276922 0 -103944 306892 0 -108798 338198 0 -114201 370992 0 -120199 405437 0 -39444.2 0 0 -39527.1 23590.9 0 -39776.1 47280.7 0 -40192.8 71169 0 -40779.8 95356.5 0 -41540.9 119946 0 -42480.8 145042 0 -43605.9 170754 0 -44923.5 197193 0 -46442.8 224477 0 -48174.6 252730 0 -50131.8 282081 0 -52329.6 312668 0 -54785.7 344639 0 -57521.3 378155 0 -60560.8 413386 0 0 0 0 0 23729.2 0 0 47558.3 0 0 71587.5 0 0 95918.5 0 0 120655 0 0 145903 0 0 171772 0 0 198376 0 0 225833 0 0 254268 0 0 283813 0 0 314609 0 0 346805 0 0 380563 0 0 416061 0 </DataArray> 
</PointData> 
<Points> 
<DataArray type="Float32" NumberOfComponents="3"> 
0 0 0 0.0004 0 0 0.0008 0 0 0.0012 0 0 0.0016 0 0 0.002 0 0 0.0024 0 0 0.0028 0 0 0.0032 0 0 0.0036 0 0 0.004 0 0 0.0044 0 0 0.0048 0 0 0.0052 0 0 0.0056 0 0 0.006 0 0 0 0.000666667 0 0.0004 0.000666667 0 0.0008 0.000666667 0 0.0012 0.000666667 0 0.0016 0.000666667 0 0.002 0.000666667 0 0.0024 0.000666667 0 0.0028 0.000666667 0 0.0032 0.000666667 0 0.0036 0.000666667 0 0.004 0.000666667 0 0.0044 0.000666667 0 0.0048 0.000666667 0 0.0052 0.000666667 0 0.0056 0.000666667 0 0.006 0.000666667 0 0 0.00133333 0 0.0004 0.00133333 0 0.0008 0.00133333 0 0.0012 0.00133333 0 0.0016 0.00133333 0 0.002 0.00133333 0 0.0024 0.00133333 0 0.0028 0.00133333 0 0.0032 0.00133333 0 0.0036 0.00133333 0 0.004 0.00133333 0 0.0044 0.00133333 0 0.0048 0.00133333 0 0.0052 0.00133333 0 0.0056 0.00133333 0 0.006 0.00133333 0 0 0.002 0 0.0004 0.002 0 0.0008 0.002 0 0.0012 0.002 0 0.0016 0.002 0 0.002 0.002 0 0.0024 0.002 0 0.0028 0.002 0 0.0032 0.002 0 0.0036 0.002 0 0.004 0.002 0 0.0044 0.002 0 0.0048 0.002 0 0.0052 0.002 0 0.0056 0.002 0 0.006 0.002 0 0 0.00266667 0 0.0004 0.00266667 0 0.0008 0.00266667 0 0.0012 0.00266667 0 0.0016 0.00266667 0 0.002 0.00266667 0 0.0024 0.00266667 0 0.0028 0.00266667 0 0.0032 0.00266667 0 0.0036 0.00266667 0 0.004 0.00266667 0 0.0044 0.00266667 0 0.0048 0.00266667 0 0.0052 0.00266667 0 0.0056 0.00266667 0 0.006 0.00266667 0 0 0.00333333 0 0.0004 0.00333333 0 0.0008 0.00333333 0 0.0012 0.00333333 0 0.0016 0.00333333 0 0.002 0.00333333 0 0.0024 0.00333333 0 0.0028 0.00333333 0 0.0032 0.00333333 0 0.0036 0.00333333 0 0.004 0.00333333 0 0.0044 0.00333333 0 0.0048 0.00333333 0 0.0052 0.00333333 0 0.0056 0.00333333 0 0.006 0.00333333 0 0 0.004 0 0.0004 0.004 0 0.0008 0.004 0 0.0012 0.004 0 0.0016 0.004 0 0.002 0.004 0 0.0024 0.004 0 0.0028 0.004 0 0.0032 0.004 0 0.0036 0.004 0 0.004 0.004 0 0.0044 0.004 0 0.0048 0.004 0 0.0052 0.004 0 0.0056 0.004 0 0.006 0.004 0 0 0.00466667 0 0.0004 0.00466667 0 0.0008 0.00466667 0 0.0012 0.00466667 0 0.0016 0.00466667 0 0.002 0.00466667 0 0.0024 0.00466667 0 0.0028 0.00466667 0 0.0032 0.00466667 0 0.0036 0.00466667 0 0.004 0.00466667 0 0.0044 0.00466667 0 0.0048 0.00466667 0 0.0052 0.00466667 0 0.0056 0.00466667 0 0.006 0.00466667 0 0 0.00533333 0 0.0004 0.00533333 0 0.0008 0.00533333 0 0.0012 0.00533333 0 0.0016 0.00533333 0 0.002 0.00533333 0 0.0024 0.00533333 0 0.0028 0.00533333 0 0.0032 0.00533333 0 0.0036 0.00533333 0 0.004 0.00533333 0 0.0044 0.00533333 0 0.0048 0.00533333 0 0.0052 0.00533333 0 0.0056 0.00533333 0 0.006 0.00533333 0 0 0.006 0 0.0004 0.006 0 0.0008 0.006 0 0.0012 0.006 0 0.0016 0.006 0 0.002 0.006 0 0.0024 0.006 0 0.0028 0.006 0 0.0032 0.006 0 0.0036 0.006 0 0.004 0.006 0 0.0044 0.006 0 0.0048 0.006 0 0.0052 0.006 0 0.0056 0.006 0 0.006 0.006 0 0 0.00666667 0 0.0004 0.00666667 0 0.0008 0.00666667 0 0.0012 0.00666667 0 0.0016 0.00666667 0 0.002 0.00666667 0 0.0024 0.00666667 0 0.0028 0.00666667 0 0.0032 0.00666667 0 0.0036 0.00666667 0 0.004 0.00666667 0 0.0044 0.00666667 0 0.0048 0.00666667 0 0.0052 0.00666667 0 0.0056 0.00666667 0 0.006 0.00666667 0 0 0.00733333 0 0.0004 0.00733333 0 0.0008 0.00733333 0 0.0012 0.00733333 0 0.0016 0.00733333 0 0.002 0.00733333 0 0.0024 0.00733333 0 0.0028 0.00733333 0 0.0032 0.00733333 0 0.0036 0.00733333 0 0.004 0.00733333 0 0.0044 0.00733333 0 0.0048 0.00733333 0 0.0052 0.00733333 0 0.0056 0.00733333 0 0.006 0.00733333 0 0 0.008 0 0.0004 0.008 0 0.0008 0.008 0 0.0012 0.008 0 0.0016 0.008 0 0.002 0.008 0 0.0024 0.008 0 0.0028 0.008 0 0.0032 0.008 0 0.0036 0.008 0 0.004 0.008 0 0.0044 0.008 0 0.0048 0.008 0 0.0052 0.008 0 0.0056 0.008 0 0.006 0.008 0 0 0.00866667 0 0.0004 0.00866667 0 0.0008 0.00866667 0 0.0012 0.00866667 0 0.0016 0.00866667 0 0.002 0.00866667 0 0.0024 0.00866667 0 0.0028 0.00866667 0 0.0032 0.00866667 0 0.0036 0.00866667 0 0.004 0.00866667 0 0.0044 0.00866667 0 0.0048 0.00866667 0 0.0052 0.00866667 0 0.0056 0.00866667 0 0.006 0.00866667 0 0 0.00933333 0 0.0004 0.00933333 0 0.0008 0.00933333 0 0.0012 0.00933333 0 0.0016 0.00933333 0 0.002 0.00933333 0 0.0024 0.00933333 0 0.0028 0.00933333 0 0.0032 0.00933333 0 0.0036 0.00933333 0 0.004 0.00933333 0 0.0044 0.00933333 0 0.0048 0.00933333 0 0.0052 0.00933333 0 0.0056 0.00933333 0 0.006 0.00933333 0 0 0.01 0 0.0004 0.01 0 0.0008 0.01 0 0.0012 0.01 0 0.0016 0.01 0 0.002 0.01 0 0.0024 0.01 0 0.0028 0.01 0 0.0032 0.01 0 0.0036 0.01 0 0.004 0.01 0 0.0044 0.01 0 0.0048 0.01 0 0.0052 0.01 0 0.0056 0.01 0 0.006 0.01 0 
</DataArray>
</Points> 
</Piece> 
</StructuredGrid> 
</VTKFile> 
