<?xml version="1.0"?> 
<VTKFile type="StructuredGrid" version="0.1"> 
<StructuredGrid WholeExtent="0 15 0 15 0 0"> 
<Piece Extent="0 15 0 15 0 0"> 
<PointData>
<DataArray type="Float32" Name="|E|" format="ascii" NumberOfComponents="3"> 
-4.65807e+06 -392604 0 -3.60375e+06 -798747 0 -2.96583e+06 -386551 0 -2.79795e+06 -103204 0 -2.77633e+06 42235.6 0 -2.77303e+06 152279 0 -2.79132e+06 269535 0 -2.84169e+06 382488 0 -2.91559e+06 500479 0 -3.00841e+06 621008 0 -3.12957e+06 709835 0 -3.27395e+06 971612 0 -3.50752e+06 1.10659e+06 0 -3.79407e+06 1.0443e+06 0 -4.60505e+06 2.32208e+06 0 -8.96422e+06 2.862e+07 0 -3.13525e+06 -1.09795e+06 0 -2.77135e+06 -422558 0 -2.73814e+06 -73021.8 0 -2.74726e+06 78068.1 0 -2.74706e+06 182112 0 -2.7685e+06 294508 0 -2.82031e+06 409717 0 -2.89093e+06 520986 0 -2.97682e+06 632946 0 -3.08496e+06 775933 0 -3.20819e+06 916233 0 -3.4146e+06 1.08695e+06 0 -3.6018e+06 1.4584e+06 0 -4.20452e+06 1.89093e+06 0 -4.50582e+06 3.71749e+06 0 209761 2.58342e+06 0 -2.66753e+06 -204420 0 -2.71672e+06 37560.4 0 -2.72299e+06 130365 0 -2.72097e+06 223183 0 -2.74971e+06 336336 0 -2.8057e+06 449550 0 -2.87479e+06 558647 0 -2.95431e+06 670621 0 -3.05201e+06 806323 0 -3.16601e+06 945434 0 -3.33006e+06 1.13252e+06 0 -3.50334e+06 1.49375e+06 0 -3.83583e+06 1.70493e+06 0 -4.06527e+06 3.12387e+06 0 -2.17042e+06 4.64175e+06 0 -677466 3.32876e+06 0 -2.70064e+06 113246 0 -2.68589e+06 181564 0 -2.695e+06 282891 0 -2.73914e+06 397004 0 -2.80034e+06 505426 0 -2.86667e+06 610690 0 -2.94079e+06 722189 0 -3.03038e+06 853488 0 -3.13523e+06 1.00235e+06 0 -3.26896e+06 1.19702e+06 0 -3.42046e+06 1.50547e+06 0 -3.62117e+06 1.74361e+06 0 -3.70928e+06 2.85345e+06 0 -2.58873e+06 3.97254e+06 0 -1.07603e+06 3.45029e+06 0 -733422 2.80894e+06 0 -2.65021e+06 262363 0 -2.68806e+06 365323 0 -2.7451e+06 472907 0 -2.80485e+06 575316 0 -2.86578e+06 678681 0 -2.93522e+06 792275 0 -3.01816e+06 925756 0 -3.11314e+06 1.08338e+06 0 -3.22479e+06 1.27882e+06 0 -3.34841e+06 1.55138e+06 0 -3.46094e+06 1.85889e+06 0 -3.40436e+06 2.73146e+06 0 -2.60325e+06 3.50619e+06 0 -1.45461e+06 3.27603e+06 0 -881735 2.61654e+06 0 -637254 2.07392e+06 0 -2.707e+06 458600 0 -2.76115e+06 565739 0 -2.81358e+06 665972 0 -2.87023e+06 770418 0 -2.93688e+06 888485 0 -3.01375e+06 1.02657e+06 0 -3.0981e+06 1.1888e+06 0 -3.18959e+06 1.38503e+06 0 -3.27523e+06 1.65133e+06 0 -3.30014e+06 2.01326e+06 0 -3.11907e+06 2.6924e+06 0 -2.46395e+06 3.186e+06 0 -1.61127e+06 3.02492e+06 0 -1.0837e+06 2.56967e+06 0 -835821 2.13967e+06 0 -685066 1.72973e+06 0 -2.77714e+06 688864 0 -2.82636e+06 783329 0 -2.88229e+06 889658 0 -2.9463e+06 1.01361e+06 0 -3.01528e+06 1.15648e+06 0 -3.08511e+06 1.32392e+06 0 -3.14805e+06 1.53066e+06 0 -3.17602e+06 1.81029e+06 0 -3.10182e+06 2.18465e+06 0 -2.82282e+06 2.67918e+06 0 -2.25809e+06 2.94032e+06 0 -1.62928e+06 2.77531e+06 0 -1.21161e+06 2.43916e+06 0 -974851 2.08604e+06 0 -821672 1.73282e+06 0 -727419 1.40714e+06 0 -2.84943e+06 925429 0 -2.90261e+06 1.03963e+06 0 -2.95971e+06 1.17369e+06 0 -3.0136e+06 1.32408e+06 0 -3.05605e+06 1.50434e+06 0 -3.06901e+06 1.729e+06 0 -3.0149e+06 2.01181e+06 0 -2.83976e+06 2.33735e+06 0 -2.50245e+06 2.64184e+06 0 -2.02685e+06 2.7177e+06 0 -1.57645e+06 2.53437e+06 0 -1.27177e+06 2.26518e+06 0 -1.07261e+06 1.97344e+06 0 -932786 1.67144e+06 0 -840069 1.38309e+06 0 -772876 1.10141e+06 0 -2.91976e+06 1.23438e+06 0 -2.95975e+06 1.38624e+06 0 -2.97994e+06 1.54483e+06 0 -2.96975e+06 1.73953e+06 0 -2.90586e+06 1.96388e+06 0 -2.75851e+06 2.20287e+06 0 -2.50852e+06 2.41778e+06 0 -2.16974e+06 2.54096e+06 0 -1.80231e+06 2.48668e+06 0 -1.49965e+06 2.29444e+06 0 -1.28974e+06 2.06487e+06 0 -1.13389e+06 1.81651e+06 0 -1.01673e+06 1.56008e+06 0 -936629 1.31215e+06 0 -878380 1.06176e+06 0 -819928 802553 0 -2.90071e+06 1.66664e+06 0 -2.85431e+06 1.80619e+06 0 -2.76728e+06 1.99342e+06 0 -2.61882e+06 2.16346e+06 0 -2.4041e+06 2.29978e+06 0 -2.14003e+06 2.37729e+06 0 -1.86312e+06 2.36085e+06 0 -1.61685e+06 2.23452e+06 0 -1.42935e+06 2.04441e+06 0 -1.28701e+06 1.83877e+06 0 -1.16854e+06 1.62341e+06 0 -1.07839e+06 1.40851e+06 0 -1.01872e+06 1.19717e+06 0 -975053 972414 0 -922802 727382 0 -834934 478616 0 -2.56476e+06 2.00414e+06 0 -2.41891e+06 2.17104e+06 0 -2.22496e+06 2.22021e+06 0 -2.01302e+06 2.23605e+06 0 -1.8102e+06 2.20811e+06 0 -1.63466e+06 2.11211e+06 0 -1.49203e+06 1.95308e+06 0 -1.37535e+06 1.76682e+06 0 -1.27265e+06 1.58078e+06 0 -1.18694e+06 1.40067e+06 0 -1.13029e+06 1.22594e+06 0 -1.09864e+06 1.04189e+06 0 -1.07059e+06 829071 0 -1.0173e+06 588821 0 -914912 347142 0 -760814 140694 0 -2.01449e+06 2.21676e+06 0 -1.83824e+06 2.05367e+06 0 -1.70516e+06 2.02028e+06 0 -1.59722e+06 1.94723e+06 0 -1.50048e+06 1.80222e+06 0 -1.40839e+06 1.62064e+06 0 -1.32302e+06 1.44641e+06 0 -1.25446e+06 1.2971e+06 0 -1.21516e+06 1.16149e+06 0 -1.20375e+06 1.01459e+06 0 -1.19838e+06 831674 0 -1.16824e+06 606336 0 -1.08698e+06 360079 0 -945079 132284 0 -757760 -38786.8 0 -557954 -135112 0 -1.56597e+06 1.59882e+06 0 -1.54372e+06 1.76314e+06 0 -1.47725e+06 1.6089e+06 0 -1.39784e+06 1.38595e+06 0 -1.33279e+06 1.20926e+06 0 -1.29948e+06 1.09539e+06 0 -1.30104e+06 1.00748e+06 0 -1.32317e+06 895209 0 -1.33622e+06 725812 0 -1.30763e+06 499354 0 -1.21607e+06 245730 0 -1.05893e+06 10471.9 0 -854502 -164755 0 -636190 -258817 0 -438965 -276881 0 -286130 -243917 0 -1.50772e+06 1.61373e+06 0 -1.38728e+06 964741 0 -1.36556e+06 778660 0 -1.40547e+06 775343 0 -1.46521e+06 772911 0 -1.50388e+06 681280 0 -1.48773e+06 484170 0 -1.39772e+06 218444 0 -1.23492e+06 -53766.9 0 -1.01844e+06 -275255 0 -779074 -410394 0 -551025 -451632 0 -361888 -417769 0 -225191 -342096 0 -139140 -257610 0 -91401.3 -185603 0 -1.48776e+06 -55635.9 0 -1.67239e+06 436791 0 -1.70512e+06 469443 0 -1.60822e+06 240675 0 -1.41259e+06 -88005.1 0 -1.15546e+06 -397912 0 -876851 -614082 0 -613289 -707734 0 -391511 -690673 0 -226181 -596570 0 -119323 -466568 0 -61637.7 -338462 0 -37445.2 -236183 0 -30617.9 -166946 0 -29018.3 -125563 0 -26467.1 -101421 0 2.6226e-06 -1.11406e+07 0 -2.44472e-07 -5.01782e+06 0 -2.14204e-08 -1.40452e+06 0 1.96509e-07 385590 0 -6.51926e-08 971481 0 -7.45058e-09 874381 0 2.23517e-08 492792 0 -1.49012e-07 89342 0 2.5332e-07 -198138 0 -2.68221e-07 -329810 0 2.68221e-07 -332634 0 -1.3411e-07 -263887 0 1.78814e-07 -178504 0 -1.93715e-07 -111065 0 2.08616e-07 -72272.4 0 -1.78814e-06 -56103 0 </DataArray> 
</PointData> 
<Points> 
<DataArray type="Float32" NumberOfComponents="3"> 
0.016 0.021 0 0.0199333 0.021 0 0.0238667 0.021 0 0.0278 0.021 0 0.0317333 0.021 0 0.0356667 0.021 0 0.0396 0.021 0 0.0435333 0.021 0 0.0474667 0.021 0 0.0514 0.021 0 0.0553333 0.021 0 0.0592667 0.021 0 0.0632 0.021 0 0.0671333 0.021 0 0.0710667 0.021 0 0.075 0.021 0 0.0216 0.0219333 0 0.0253156 0.0219333 0 0.0290311 0.0219333 0 0.0327467 0.0219333 0 0.0364622 0.0219333 0 0.0401778 0.0219333 0 0.0438933 0.0219333 0 0.0476089 0.0219333 0 0.0513244 0.0219333 0 0.05504 0.0219333 0 0.0587556 0.0219333 0 0.0624711 0.0219333 0 0.0661867 0.0219333 0 0.0699022 0.0219333 0 0.0736178 0.0219333 0 0.0773333 0.0219333 0 0.0272 0.0228667 0 0.0306978 0.0228667 0 0.0341956 0.0228667 0 0.0376933 0.0228667 0 0.0411911 0.0228667 0 0.0446889 0.0228667 0 0.0481867 0.0228667 0 0.0516844 0.0228667 0 0.0551822 0.0228667 0 0.05868 0.0228667 0 0.0621778 0.0228667 0 0.0656756 0.0228667 0 0.0691733 0.0228667 0 0.0726711 0.0228667 0 0.0761689 0.0228667 0 0.0796667 0.0228667 0 0.0328 0.0238 0 0.03608 0.0238 0 0.03936 0.0238 0 0.04264 0.0238 0 0.04592 0.0238 0 0.0492 0.0238 0 0.05248 0.0238 0 0.05576 0.0238 0 0.05904 0.0238 0 0.06232 0.0238 0 0.0656 0.0238 0 0.06888 0.0238 0 0.07216 0.0238 0 0.07544 0.0238 0 0.07872 0.0238 0 0.082 0.0238 0 0.0384 0.0247333 0 0.0414622 0.0247333 0 0.0445244 0.0247333 0 0.0475867 0.0247333 0 0.0506489 0.0247333 0 0.0537111 0.0247333 0 0.0567733 0.0247333 0 0.0598356 0.0247333 0 0.0628978 0.0247333 0 0.06596 0.0247333 0 0.0690222 0.0247333 0 0.0720844 0.0247333 0 0.0751467 0.0247333 0 0.0782089 0.0247333 0 0.0812711 0.0247333 0 0.0843333 0.0247333 0 0.044 0.0256667 0 0.0468444 0.0256667 0 0.0496889 0.0256667 0 0.0525333 0.0256667 0 0.0553778 0.0256667 0 0.0582222 0.0256667 0 0.0610667 0.0256667 0 0.0639111 0.0256667 0 0.0667556 0.0256667 0 0.0696 0.0256667 0 0.0724444 0.0256667 0 0.0752889 0.0256667 0 0.0781333 0.0256667 0 0.0809778 0.0256667 0 0.0838222 0.0256667 0 0.0866667 0.0256667 0 0.0496 0.0266 0 0.0522267 0.0266 0 0.0548533 0.0266 0 0.05748 0.0266 0 0.0601067 0.0266 0 0.0627333 0.0266 0 0.06536 0.0266 0 0.0679867 0.0266 0 0.0706133 0.0266 0 0.07324 0.0266 0 0.0758667 0.0266 0 0.0784933 0.0266 0 0.08112 0.0266 0 0.0837467 0.0266 0 0.0863733 0.0266 0 0.089 0.0266 0 0.0552 0.0275333 0 0.0576089 0.0275333 0 0.0600178 0.0275333 0 0.0624267 0.0275333 0 0.0648356 0.0275333 0 0.0672444 0.0275333 0 0.0696533 0.0275333 0 0.0720622 0.0275333 0 0.0744711 0.0275333 0 0.07688 0.0275333 0 0.0792889 0.0275333 0 0.0816978 0.0275333 0 0.0841067 0.0275333 0 0.0865156 0.0275333 0 0.0889244 0.0275333 0 0.0913333 0.0275333 0 0.0608 0.0284667 0 0.0629911 0.0284667 0 0.0651822 0.0284667 0 0.0673733 0.0284667 0 0.0695644 0.0284667 0 0.0717556 0.0284667 0 0.0739467 0.0284667 0 0.0761378 0.0284667 0 0.0783289 0.0284667 0 0.08052 0.0284667 0 0.0827111 0.0284667 0 0.0849022 0.0284667 0 0.0870933 0.0284667 0 0.0892844 0.0284667 0 0.0914756 0.0284667 0 0.0936667 0.0284667 0 0.0664 0.0294 0 0.0683733 0.0294 0 0.0703467 0.0294 0 0.07232 0.0294 0 0.0742933 0.0294 0 0.0762667 0.0294 0 0.07824 0.0294 0 0.0802133 0.0294 0 0.0821867 0.0294 0 0.08416 0.0294 0 0.0861333 0.0294 0 0.0881067 0.0294 0 0.09008 0.0294 0 0.0920533 0.0294 0 0.0940267 0.0294 0 0.096 0.0294 0 0.072 0.0303333 0 0.0737556 0.0303333 0 0.0755111 0.0303333 0 0.0772667 0.0303333 0 0.0790222 0.0303333 0 0.0807778 0.0303333 0 0.0825333 0.0303333 0 0.0842889 0.0303333 0 0.0860444 0.0303333 0 0.0878 0.0303333 0 0.0895556 0.0303333 0 0.0913111 0.0303333 0 0.0930667 0.0303333 0 0.0948222 0.0303333 0 0.0965778 0.0303333 0 0.0983333 0.0303333 0 0.0776 0.0312667 0 0.0791378 0.0312667 0 0.0806756 0.0312667 0 0.0822133 0.0312667 0 0.0837511 0.0312667 0 0.0852889 0.0312667 0 0.0868267 0.0312667 0 0.0883644 0.0312667 0 0.0899022 0.0312667 0 0.09144 0.0312667 0 0.0929778 0.0312667 0 0.0945156 0.0312667 0 0.0960533 0.0312667 0 0.0975911 0.0312667 0 0.0991289 0.0312667 0 0.100667 0.0312667 0 0.0832 0.0322 0 0.08452 0.0322 0 0.08584 0.0322 0 0.08716 0.0322 0 0.08848 0.0322 0 0.0898 0.0322 0 0.09112 0.0322 0 0.09244 0.0322 0 0.09376 0.0322 0 0.09508 0.0322 0 0.0964 0.0322 0 0.09772 0.0322 0 0.09904 0.0322 0 0.10036 0.0322 0 0.10168 0.0322 0 0.103 0.0322 0 0.0888 0.0331333 0 0.0899022 0.0331333 0 0.0910044 0.0331333 0 0.0921067 0.0331333 0 0.0932089 0.0331333 0 0.0943111 0.0331333 0 0.0954133 0.0331333 0 0.0965156 0.0331333 0 0.0976178 0.0331333 0 0.09872 0.0331333 0 0.0998222 0.0331333 0 0.100924 0.0331333 0 0.102027 0.0331333 0 0.103129 0.0331333 0 0.104231 0.0331333 0 0.105333 0.0331333 0 0.0944 0.0340667 0 0.0952844 0.0340667 0 0.0961689 0.0340667 0 0.0970533 0.0340667 0 0.0979378 0.0340667 0 0.0988222 0.0340667 0 0.0997067 0.0340667 0 0.100591 0.0340667 0 0.101476 0.0340667 0 0.10236 0.0340667 0 0.103244 0.0340667 0 0.104129 0.0340667 0 0.105013 0.0340667 0 0.105898 0.0340667 0 0.106782 0.0340667 0 0.107667 0.0340667 0 0.1 0.035 0 0.100667 0.035 0 0.101333 0.035 0 0.102 0.035 0 0.102667 0.035 0 0.103333 0.035 0 0.104 0.035 0 0.104667 0.035 0 0.105333 0.035 0 0.106 0.035 0 0.106667 0.035 0 0.107333 0.035 0 0.108 0.035 0 0.108667 0.035 0 0.109333 0.035 0 0.11 0.035 0 
</DataArray>
</Points> 
</Piece> 
</StructuredGrid> 
</VTKFile> 
