<?xml version="1.0"?> 
<VTKFile type="StructuredGrid" version="0.1"> 
<StructuredGrid WholeExtent="0 15 0 15 0 0"> 
<Piece Extent="0 15 0 15 0 0"> 
<PointData>
<DataArray type="Float32" Name="|E|" format="ascii" NumberOfComponents="3"> 
-282635 0 0 -281127 -67920.1 0 -276413 -136736 0 -267906 -207654 0 -255085 -282499 0 -236727 -347403 0 -208874 -405259 0 -176304 -605356 0 -155339 -1.07199e+06 0 -133107 -1.41602e+06 0 -43751.5 -824971 0 171927 909106 0 474574 2.33315e+06 0 705210 258954 0 659725 -9.24702e+06 0 211690 -2.96112e+07 0 -343019 0 0 -341007 -95079.3 0 -334606 -192844 0 -322973 -296940 0 -305130 -413756 0 -286569 -543238 0 -258401 -671439 0 -175772 -857467 0 -55553.4 -1.28495e+06 0 -89428 -2.03e+06 0 -538992 -2.78159e+06 0 -1.47262e+06 -2.96842e+06 0 -2.62389e+06 -2.27789e+06 0 -3.50696e+06 -1.11245e+06 0 -3.67479e+06 -624588 0 -2.92213e+06 -2.3767e+06 0 -405053 0 0 -403277 -122653 0 -397757 -251551 0 -388167 -394757 0 -377235 -560025 0 -356584 -762829 0 -331417 -1.0869e+06 0 -440667 -1.62717e+06 0 -915572 -2.21211e+06 0 -1.77885e+06 -2.38e+06 0 -2.69352e+06 -1.85713e+06 0 -3.21496e+06 -978734 0 -3.17132e+06 -468797 0 -2.7958e+06 -690695 0 -2.54831e+06 -941239 0 -2.82656e+06 749715 0 -468156 0 0 -467709 -149735 0 -466906 -310662 0 -468998 -496035 0 -477967 -728775 0 -523822 -1.07087e+06 0 -765192 -1.55169e+06 0 -1.37844e+06 -1.93464e+06 0 -2.21293e+06 -1.82773e+06 0 -2.81846e+06 -1.21068e+06 0 -2.92158e+06 -574040 0 -2.69824e+06 -366939 0 -2.52947e+06 -451267 0 -2.59589e+06 -282295 0 -2.73568e+06 206124 0 -2.62117e+06 -363600 0 -531191 0 0 -533677 -175393 0 -543188 -367270 0 -569595 -598054 0 -641372 -909412 0 -887649 -1.31951e+06 0 -1.4655e+06 -1.62554e+06 0 -2.20421e+06 -1.48586e+06 0 -2.66034e+06 -939631 0 -2.67701e+06 -456213 0 -2.54106e+06 -312637 0 -2.54256e+06 -276874 0 -2.65229e+06 -55277.3 0 -2.688e+06 194119 0 -2.6315e+06 147494 0 -2.68704e+06 483333 0 -593431 0 0 -600508 -198417 0 -626974 -418873 0 -694678 -692388 0 -884979 -1.04366e+06 0 -1.35383e+06 -1.35167e+06 0 -2.02043e+06 -1.307e+06 0 -2.47661e+06 -871855 0 -2.54597e+06 -446978 0 -2.4954e+06 -275695 0 -2.54781e+06 -164395 0 -2.62421e+06 54744.2 0 -2.61941e+06 230031 0 -2.60325e+06 253910 0 -2.65687e+06 360138 0 -2.69144e+06 365240 0 -654622 0 0 -667628 -217887 0 -717132 -462897 0 -844604 -763342 0 -1.17345e+06 -1.08126e+06 0 -1.75111e+06 -1.18114e+06 0 -2.26807e+06 -892104 0 -2.44582e+06 -487875 0 -2.45488e+06 -259883 0 -2.5146e+06 -105383 0 -2.57441e+06 100832 0 -2.57633e+06 253313 0 -2.59628e+06 316810 0 -2.66249e+06 434200 0 -2.7185e+06 571779 0 -2.7831e+06 724614 0 -714272 0 0 -734326 -233460 0 -811557 -496344 0 -1.01098e+06 -797431 0 -1.44728e+06 -1.02027e+06 0 -1.99739e+06 -925112 0 -2.31771e+06 -572944 0 -2.39808e+06 -284961 0 -2.46137e+06 -95883.6 0 -2.5243e+06 105271 0 -2.54437e+06 263868 0 -2.5822e+06 362907 0 -2.65069e+06 498344 0 -2.71068e+06 648144 0 -2.77521e+06 769915 0 -2.84711e+06 911495 0 -771485 0 0 -799668 -245083 0 -907814 -516607 0 -1.17905e+06 -790954 0 -1.66418e+06 -894698 0 -2.11451e+06 -680307 0 -2.31124e+06 -360704 0 -2.39427e+06 -128040 0 -2.46851e+06 78711 0 -2.50826e+06 255858 0 -2.55377e+06 384512 0 -2.62321e+06 531720 0 -2.68916e+06 689151 0 -2.75997e+06 832374 0 -2.83936e+06 1.0181e+06 0 -2.92158e+06 1.24532e+06 0 -825383 0 0 -862670 -252658 0 -1.00336e+06 -522530 0 -1.33387e+06 -749795 0 -1.8137e+06 -744060 0 -2.16113e+06 -481136 0 -2.30862e+06 -202462 0 -2.39967e+06 22464 0 -2.46149e+06 221607 0 -2.51302e+06 377905 0 -2.58316e+06 535467 0 -2.65518e+06 703463 0 -2.72979e+06 869148 0 -2.80914e+06 1.07544e+06 0 -2.88184e+06 1.32705e+06 0 -2.89986e+06 1.66151e+06 0 -875553 0 0 -922533 -255978 0 -1.09552e+06 -514815 0 -1.46539e+06 -684571 0 -1.90798e+06 -594931 0 -2.18095e+06 -322057 0 -2.3121e+06 -65021.8 0 -2.3988e+06 156474 0 -2.46163e+06 341908 0 -2.53186e+06 511804 0 -2.60892e+06 690674 0 -2.68621e+06 874136 0 -2.76377e+06 1.09177e+06 0 -2.82721e+06 1.35926e+06 0 -2.80704e+06 1.69369e+06 0 -2.57214e+06 2.04841e+06 0 -922129 0 0 -978766 -254954 0 -1.18164e+06 -495555 0 -1.57029e+06 -605819 0 -1.96578e+06 -458643 0 -2.1922e+06 -188609 0 -2.31434e+06 59031.2 0 -2.39775e+06 273810 0 -2.4708e+06 461731 0 -2.5511e+06 650385 0 -2.63179e+06 847215 0 -2.70863e+06 1.07083e+06 0 -2.76745e+06 1.34173e+06 0 -2.73474e+06 1.67651e+06 0 -2.4801e+06 2.01057e+06 0 -1.99483e+06 2.09883e+06 0 -965473 0 0 -1.03113e+06 -249885 0 -1.25948e+06 -467330 0 -1.65066e+06 -521532 0 -2.00196e+06 -337000 0 -2.19916e+06 -71291.7 0 -2.31477e+06 171121 0 -2.40022e+06 384095 0 -2.48269e+06 583802 0 -2.56785e+06 790856 0 -2.64658e+06 1.0179e+06 0 -2.70732e+06 1.28488e+06 0 -2.68597e+06 1.61243e+06 0 -2.45543e+06 1.9401e+06 0 -2.01617e+06 2.04771e+06 0 -1.59573e+06 1.77743e+06 0 -1.00578e+06 0 0 -1.07948e+06 -241445 0 -1.32774e+06 -432514 0 -1.71109e+06 -436823 0 -2.02518e+06 -228159 0 -2.20295e+06 34604.4 0 -2.31506e+06 274805 0 -2.40498e+06 492270 0 -2.49404e+06 707426 0 -2.57829e+06 938259 0 -2.64519e+06 1.1984e+06 0 -2.65017e+06 1.51257e+06 0 -2.47341e+06 1.84528e+06 0 -2.08546e+06 1.98522e+06 0 -1.68197e+06 1.75524e+06 0 -1.44819e+06 1.25654e+06 0 -1.04299e+06 0 0 -1.12371e+06 -230369 0 -1.38619e+06 -393108 0 -1.7562e+06 -354519 0 -2.04003e+06 -129701 0 -2.20465e+06 132137 0 -2.31564e+06 373318 0 -2.41046e+06 599963 0 -2.50183e+06 834548 0 -2.57817e+06 1.09049e+06 0 -2.61207e+06 1.38681e+06 0 -2.50616e+06 1.72274e+06 0 -2.18521e+06 1.9238e+06 0 -1.79706e+06 1.76141e+06 0 -1.55136e+06 1.27618e+06 0 -1.56746e+06 422558 0 -1.07695e+06 0 0 -1.16373e+06 -217200 0 -1.43539e+06 -350785 0 -1.78971e+06 -275824 0 -2.04918e+06 -39497.2 0 -2.205e+06 223665 0 -2.31634e+06 468519 0 -2.41494e+06 708786 0 -2.50315e+06 964257 0 -2.56159e+06 1.24465e+06 0 -2.52745e+06 1.57352e+06 0 -2.29551e+06 1.84663e+06 0 -1.93533e+06 1.79003e+06 0 -1.66766e+06 1.39479e+06 0 -1.67352e+06 718594 0 -1.88584e+06 174420 0 </DataArray> 
</PointData> 
<Points> 
<DataArray type="Float32" NumberOfComponents="3"> 
0 0.021 0 0.00106667 0.021 0 0.00213333 0.021 0 0.0032 0.021 0 0.00426667 0.021 0 0.00533333 0.021 0 0.0064 0.021 0 0.00746667 0.021 0 0.00853333 0.021 0 0.0096 0.021 0 0.0106667 0.021 0 0.0117333 0.021 0 0.0128 0.021 0 0.0138667 0.021 0 0.0149333 0.021 0 0.016 0.021 0 0 0.0219333 0 0.00144 0.0219333 0 0.00288 0.0219333 0 0.00432 0.0219333 0 0.00576 0.0219333 0 0.0072 0.0219333 0 0.00864 0.0219333 0 0.01008 0.0219333 0 0.01152 0.0219333 0 0.01296 0.0219333 0 0.0144 0.0219333 0 0.01584 0.0219333 0 0.01728 0.0219333 0 0.01872 0.0219333 0 0.02016 0.0219333 0 0.0216 0.0219333 0 0 0.0228667 0 0.00181333 0.0228667 0 0.00362667 0.0228667 0 0.00544 0.0228667 0 0.00725333 0.0228667 0 0.00906667 0.0228667 0 0.01088 0.0228667 0 0.0126933 0.0228667 0 0.0145067 0.0228667 0 0.01632 0.0228667 0 0.0181333 0.0228667 0 0.0199467 0.0228667 0 0.02176 0.0228667 0 0.0235733 0.0228667 0 0.0253867 0.0228667 0 0.0272 0.0228667 0 0 0.0238 0 0.00218667 0.0238 0 0.00437333 0.0238 0 0.00656 0.0238 0 0.00874667 0.0238 0 0.0109333 0.0238 0 0.01312 0.0238 0 0.0153067 0.0238 0 0.0174933 0.0238 0 0.01968 0.0238 0 0.0218667 0.0238 0 0.0240533 0.0238 0 0.02624 0.0238 0 0.0284267 0.0238 0 0.0306133 0.0238 0 0.0328 0.0238 0 0 0.0247333 0 0.00256 0.0247333 0 0.00512 0.0247333 0 0.00768 0.0247333 0 0.01024 0.0247333 0 0.0128 0.0247333 0 0.01536 0.0247333 0 0.01792 0.0247333 0 0.02048 0.0247333 0 0.02304 0.0247333 0 0.0256 0.0247333 0 0.02816 0.0247333 0 0.03072 0.0247333 0 0.03328 0.0247333 0 0.03584 0.0247333 0 0.0384 0.0247333 0 0 0.0256667 0 0.00293333 0.0256667 0 0.00586667 0.0256667 0 0.0088 0.0256667 0 0.0117333 0.0256667 0 0.0146667 0.0256667 0 0.0176 0.0256667 0 0.0205333 0.0256667 0 0.0234667 0.0256667 0 0.0264 0.0256667 0 0.0293333 0.0256667 0 0.0322667 0.0256667 0 0.0352 0.0256667 0 0.0381333 0.0256667 0 0.0410667 0.0256667 0 0.044 0.0256667 0 0 0.0266 0 0.00330667 0.0266 0 0.00661333 0.0266 0 0.00992 0.0266 0 0.0132267 0.0266 0 0.0165333 0.0266 0 0.01984 0.0266 0 0.0231467 0.0266 0 0.0264533 0.0266 0 0.02976 0.0266 0 0.0330667 0.0266 0 0.0363733 0.0266 0 0.03968 0.0266 0 0.0429867 0.0266 0 0.0462933 0.0266 0 0.0496 0.0266 0 0 0.0275333 0 0.00368 0.0275333 0 0.00736 0.0275333 0 0.01104 0.0275333 0 0.01472 0.0275333 0 0.0184 0.0275333 0 0.02208 0.0275333 0 0.02576 0.0275333 0 0.02944 0.0275333 0 0.03312 0.0275333 0 0.0368 0.0275333 0 0.04048 0.0275333 0 0.04416 0.0275333 0 0.04784 0.0275333 0 0.05152 0.0275333 0 0.0552 0.0275333 0 0 0.0284667 0 0.00405333 0.0284667 0 0.00810667 0.0284667 0 0.01216 0.0284667 0 0.0162133 0.0284667 0 0.0202667 0.0284667 0 0.02432 0.0284667 0 0.0283733 0.0284667 0 0.0324267 0.0284667 0 0.03648 0.0284667 0 0.0405333 0.0284667 0 0.0445867 0.0284667 0 0.04864 0.0284667 0 0.0526933 0.0284667 0 0.0567467 0.0284667 0 0.0608 0.0284667 0 0 0.0294 0 0.00442667 0.0294 0 0.00885333 0.0294 0 0.01328 0.0294 0 0.0177067 0.0294 0 0.0221333 0.0294 0 0.02656 0.0294 0 0.0309867 0.0294 0 0.0354133 0.0294 0 0.03984 0.0294 0 0.0442667 0.0294 0 0.0486933 0.0294 0 0.05312 0.0294 0 0.0575467 0.0294 0 0.0619733 0.0294 0 0.0664 0.0294 0 0 0.0303333 0 0.0048 0.0303333 0 0.0096 0.0303333 0 0.0144 0.0303333 0 0.0192 0.0303333 0 0.024 0.0303333 0 0.0288 0.0303333 0 0.0336 0.0303333 0 0.0384 0.0303333 0 0.0432 0.0303333 0 0.048 0.0303333 0 0.0528 0.0303333 0 0.0576 0.0303333 0 0.0624 0.0303333 0 0.0672 0.0303333 0 0.072 0.0303333 0 0 0.0312667 0 0.00517333 0.0312667 0 0.0103467 0.0312667 0 0.01552 0.0312667 0 0.0206933 0.0312667 0 0.0258667 0.0312667 0 0.03104 0.0312667 0 0.0362133 0.0312667 0 0.0413867 0.0312667 0 0.04656 0.0312667 0 0.0517333 0.0312667 0 0.0569067 0.0312667 0 0.06208 0.0312667 0 0.0672533 0.0312667 0 0.0724267 0.0312667 0 0.0776 0.0312667 0 0 0.0322 0 0.00554667 0.0322 0 0.0110933 0.0322 0 0.01664 0.0322 0 0.0221867 0.0322 0 0.0277333 0.0322 0 0.03328 0.0322 0 0.0388267 0.0322 0 0.0443733 0.0322 0 0.04992 0.0322 0 0.0554667 0.0322 0 0.0610133 0.0322 0 0.06656 0.0322 0 0.0721067 0.0322 0 0.0776533 0.0322 0 0.0832 0.0322 0 0 0.0331333 0 0.00592 0.0331333 0 0.01184 0.0331333 0 0.01776 0.0331333 0 0.02368 0.0331333 0 0.0296 0.0331333 0 0.03552 0.0331333 0 0.04144 0.0331333 0 0.04736 0.0331333 0 0.05328 0.0331333 0 0.0592 0.0331333 0 0.06512 0.0331333 0 0.07104 0.0331333 0 0.07696 0.0331333 0 0.08288 0.0331333 0 0.0888 0.0331333 0 0 0.0340667 0 0.00629333 0.0340667 0 0.0125867 0.0340667 0 0.01888 0.0340667 0 0.0251733 0.0340667 0 0.0314667 0.0340667 0 0.03776 0.0340667 0 0.0440533 0.0340667 0 0.0503467 0.0340667 0 0.05664 0.0340667 0 0.0629333 0.0340667 0 0.0692267 0.0340667 0 0.07552 0.0340667 0 0.0818133 0.0340667 0 0.0881067 0.0340667 0 0.0944 0.0340667 0 0 0.035 0 0.00666667 0.035 0 0.0133333 0.035 0 0.02 0.035 0 0.0266667 0.035 0 0.0333333 0.035 0 0.04 0.035 0 0.0466667 0.035 0 0.0533333 0.035 0 0.06 0.035 0 0.0666667 0.035 0 0.0733333 0.035 0 0.08 0.035 0 0.0866667 0.035 0 0.0933333 0.035 0 0.1 0.035 0 
</DataArray>
</Points> 
</Piece> 
</StructuredGrid> 
</VTKFile> 
