<?xml version="1.0"?> 
<VTKFile type="StructuredGrid" version="0.1"> 
<StructuredGrid WholeExtent="0 127 0 127 0 0"> 
<Piece Extent="0 127 0 127 0 0"> 
<PointData>
<DataArray type="Float32" Name="|E|" format="ascii" NumberOfComponents="3"> 
3103.04 4425.78 0 489.712 1394.31 0 237.315 1165.95 0 -8.6999 1174.45 0 -81.9434 1052.16 0 -149.734 999.109 0 -174.592 913.705 0 -193.843 846.065 0 -199.824 774.343 0 -201.973 709.923 0 -199.352 648.243 0 -194.618 591.697 0 -188.007 539.23 0 -180.41 491.173 0 -172.12 447.119 0 -163.503 406.925 0 -154.753 370.294 0 -146.044 336.982 0 -137.49 306.722 0 -129.177 279.266 0 -121.164 254.372 0 -113.492 231.814 0 -106.186 211.38 0 -99.2609 192.874 0 -92.7213 176.113 0 -86.5658 160.932 0 -80.7878 147.177 0 -75.3766 134.711 0 -70.3189 123.406 0 -65.5992 113.148 0 -61.201 103.835 0 -57.1068 95.3717 0 -53.299 87.6758 0 -49.7599 80.671 0 -46.4723 74.2895 0 -43.4193 68.4702 0 -40.5848 63.1585 0 -37.9532 58.3051 0 -35.5099 53.8661 0 -33.241 49.802 0 -31.1337 46.0772 0 -29.1757 42.6601 0 -27.3558 39.5221 0 -25.6634 36.6375 0 -24.0888 33.9834 0 -22.623 31.539 0 -21.2577 29.2858 0 -19.9851 27.2069 0 -18.7982 25.2871 0 -17.6906 23.513 0 -16.6561 21.8721 0 -15.6894 20.3533 0 -14.7854 18.9465 0 -13.9394 17.6425 0 -13.1471 16.433 0 -12.4047 15.3105 0 -11.7086 14.2681 0 -11.0554 13.2996 0 -10.442 12.3993 0 -9.86586 11.5619 0 -9.32421 10.7827 0 -8.81475 10.0574 0 -8.33528 9.38196 0 -7.88382 8.75269 0 -7.45849 8.16627 0 -7.05761 7.6196 0 -6.67957 7.10984 0 -6.32295 6.63437 0 -5.98636 6.19077 0 -5.66858 5.77682 0 -5.36844 5.39047 0 -5.08486 5.02979 0 -4.81686 4.69304 0 -4.56348 4.37858 0 -4.32389 4.08488 0 -4.09727 3.81057 0 -3.88287 3.55432 0 -3.68 3.31493 0 -3.488 3.09128 0 -3.30626 2.8823 0 -3.13422 2.68704 0 -2.97134 2.50458 0 -2.81711 2.33409 0 -2.67108 2.17476 0 -2.5328 2.02587 0 -2.40185 1.88672 0 -2.27786 1.75669 0 -2.16046 1.63517 0 -2.0493 1.5216 0 -1.94407 1.41547 0 -1.84446 1.31629 0 -1.75018 1.22359 0 -1.66097 1.13696 0 -1.57657 1.05602 0 -1.49675 0.980339 0 -1.42129 0.909636 0 -1.34996 0.843543 0 -1.28257 0.781766 0 -1.21894 0.724034 0 -1.15888 0.670051 0 -1.10224 0.619603 0 -1.04884 0.572423 0 -0.998568 0.52832 0 -0.951255 0.487067 0 -0.90678 0.448484 0 -0.865034 0.412389 0 -0.825883 0.378623 0 -0.789237 0.347011 0 -0.754992 0.317423 0 -0.723054 0.289714 0 -0.693334 0.263757 0 -0.665761 0.239415 0 -0.640261 0.216617 0 -0.616757 0.195208 0 -0.595199 0.175149 0 -0.575526 0.156282 0 -0.557691 0.138581 0 -0.541644 0.121929 0 -0.527356 0.106267 0 -0.514775 0.0915148 0 -0.503886 0.0776417 0 -0.494668 0.0645468 0 -0.487089 0.0521958 0 -0.48114 0.0405393 0 -0.476816 0.0295324 0 -0.474113 0.0191326 0 -0.473025 0.00930166 0 -0.473567 -1.90735e-06 0 1414.81 2706.32 0 479.064 1468.7 0 153.714 1248.5 0 -27.7546 1170.16 0 -112.731 1068.35 0 -167.791 994.033 0 -193.959 911.976 0 -209.422 839.362 0 -214.515 768.029 0 -214.836 702.578 0 -211.047 641.079 0 -205.049 584.544 0 -197.385 532.381 0 -188.794 484.633 0 -179.624 440.961 0 -170.205 401.153 0 -160.737 364.919 0 -151.383 331.995 0 -142.252 302.112 0 -133.422 275.015 0 -124.948 250.462 0 -116.866 228.224 0 -109.194 208.089 0 -101.944 189.86 0 -95.1152 173.357 0 -88.7033 158.412 0 -82.6978 144.876 0 -77.0847 132.609 0 -71.8479 121.488 0 -66.9693 111.398 0 -62.43 102.237 0 -58.2106 93.9141 0 -54.2915 86.3453 0 -50.6536 79.4563 0 -47.2779 73.1802 0 -44.1465 67.4567 0 -41.242 62.2321 0 -38.5479 57.4579 0 -36.0488 53.0908 0 -33.73 49.0921 0 -31.5778 45.4269 0 -29.5796 42.0638 0 -27.7236 38.975 0 -25.9986 36.1353 0 -24.3947 33.522 0 -22.9024 31.1148 0 -21.5131 28.8954 0 -20.2189 26.8474 0 -19.0124 24.956 0 -17.8869 23.2077 0 -16.8363 21.5904 0 -15.8548 20.0932 0 -14.9373 18.7061 0 -14.0791 17.4202 0 -13.2756 16.2274 0 -12.523 15.1202 0 -11.8175 14.0919 0 -11.1557 13.1363 0 -10.5345 12.2478 0 -9.9511 11.4214 0 -9.40284 10.6523 0 -8.88729 9.93627 0 -8.40223 9.26939 0 -7.94561 8.64806 0 -7.51555 8.06898 0 -7.1103 7.5291 0 -6.72825 7.02562 0 -6.36791 6.55597 0 -6.0279 6.11777 0 -5.70697 5.70883 0 -5.40391 5.32711 0 -5.11765 4.97075 0 -4.84716 4.63801 0 -4.59149 4.32726 0 -4.34978 4.03704 0 -4.1212 3.76595 0 -3.905 3.5127 0 -3.70045 3.27611 0 -3.50691 3.05505 0 -3.32374 2.8485 0 -3.15038 2.6555 0 -2.98628 2.47516 0 -2.83093 2.30662 0 -2.68385 2.14913 0 -2.54461 2.00195 0 -2.41278 1.86441 0 -2.28796 1.73587 0 -2.1698 1.61574 0 -2.05794 1.50348 0 -1.95206 1.39856 0 -1.85185 1.30051 0 -1.75702 1.20889 0 -1.6673 1.12326 0 -1.58244 1.04323 0 -1.50218 0.968438 0 -1.42632 0.89854 0 -1.35462 0.833216 0 -1.28689 0.772156 0 -1.22295 0.715084 0 -1.1626 0.661744 0 -1.10569 0.611872 0 -1.05206 0.565252 0 -1.00156 0.521656 0 -0.954038 0.480897 0 -0.909373 0.442763 0 -0.867452 0.407104 0 -0.828141 0.373732 0 -0.791348 0.3425 0 -0.756968 0.313263 0 -0.724906 0.285891 0 -0.695073 0.260245 0 -0.667397 0.236216 0 -0.6418 0.213689 0 -0.618211 0.192565 0 -0.59657 0.172735 0 -0.576826 0.15412 0 -0.558921 0.13664 0 -0.542812 0.120201 0 -0.528467 0.104744 0 -0.515836 0.090204 0 -0.504895 0.0764962 0 -0.495633 0.0635879 0 -0.488014 0.0514173 0 -0.482025 0.0399267 0 -0.477665 0.0290829 0 -0.474925 0.0188329 0 -0.473805 0.00915618 0 -0.474313 8.29488e-07 0 831.623 2280.86 0 378.861 1517.33 0 93.3973 1290.72 0 -58.6309 1177.64 0 -140.228 1075.23 0 -188.292 991.063 0 -212.765 908.052 0 -225.434 832.771 0 -229.023 761.047 0 -227.668 695.047 0 -222.582 633.616 0 -215.341 577.208 0 -206.599 525.351 0 -197.022 477.951 0 -186.972 434.675 0 -176.76 395.276 0 -166.583 359.452 0 -156.593 326.93 0 -146.894 297.434 0 -137.557 270.707 0 -128.632 246.502 0 -120.147 224.591 0 -112.118 204.761 0 -104.551 186.815 0 -97.4406 170.573 0 -90.779 155.869 0 -84.552 142.554 0 -78.7427 130.491 0 -73.3318 119.555 0 -68.2989 109.635 0 -63.6227 100.629 0 -59.2818 92.4472 0 -55.2549 85.0069 0 -51.521 78.2348 0 -48.06 72.0649 0 -44.8526 66.4381 0 -41.8803 61.3012 0 -39.1257 56.6068 0 -36.5725 52.3122 0 -34.2052 48.3793 0 -32.0097 44.7739 0 -29.9725 41.4653 0 -28.0814 38.426 0 -26.3249 35.6312 0 -24.6925 33.0589 0 -23.1746 30.6891 0 -21.762 28.5038 0 -20.4468 26.4869 0 -19.2212 24.6238 0 -18.0784 22.9014 0 -17.012 21.3078 0 -16.0162 19.8323 0 -15.0857 18.4651 0 -14.2155 17.1974 0 -13.4011 16.0213 0 -12.6385 14.9294 0 -11.9239 13.9151 0 -11.2538 12.9725 0 -10.6249 12.0959 0 -10.0345 11.2805 0 -9.47976 10.5215 0 -8.95827 9.81481 0 -8.46776 9.15655 0 -8.00611 8.54318 0 -7.57142 7.97145 0 -7.16191 7.43837 0 -6.77592 6.94119 0 -6.41196 6.47738 0 -6.06861 6.04459 0 -5.74459 5.64067 0 -5.43868 5.26362 0 -5.14979 4.91158 0 -4.87687 4.58285 0 -4.61895 4.27584 0 -4.37517 3.98909 0 -4.14467 3.72123 0 -3.9267 3.47099 0 -3.72052 3.2372 0 -3.52546 3.01875 0 -3.34089 2.81463 0 -3.16624 2.6239 0 -3.00094 2.44567 0 -2.84448 2.27911 0 -2.69639 2.12345 0 -2.5562 1.97799 0 -2.4235 1.84204 0 -2.29788 1.715 0 -2.17897 1.59627 0 -2.06643 1.48532 0 -1.95991 1.38162 0 -1.85911 1.28472 0 -1.76374 1.19416 0 -1.67352 1.10952 0 -1.5882 1.03043 0 -1.50752 0.95651 0 -1.43126 0.887431 0 -1.3592 0.822871 0 -1.29114 0.762527 0 -1.22689 0.706127 0 -1.16626 0.653412 0 -1.10909 0.604133 0 -1.05522 0.558063 0 -1.00449 0.514985 0 -0.956772 0.47471 0 -0.911922 0.437037 0 -0.869829 0.401802 0 -0.830361 0.368834 0 -0.793424 0.337982 0 -0.758912 0.309102 0 -0.726728 0.282064 0 -0.696784 0.256737 0 -0.669006 0.233002 0 -0.643315 0.210761 0 -0.61964 0.1899 0 -0.59792 0.170324 0 -0.578104 0.15195 0 -0.560133 0.134695 0 -0.543964 0.118475 0 -0.529561 0.103224 0 -0.516879 0.088876 0 -0.505892 0.0753623 0 -0.496584 0.0626318 0 -0.488923 0.0506325 0 -0.482897 0.0393103 0 -0.4785 0.0286246 0 -0.475726 0.0185347 0 -0.474573 0.00900725 0 -0.475051 1.40932e-06 0 545.804 2124.6 0 271.193 1547.01 0 37.9094 1316.49 0 -93.0058 1185.37 0 -167.327 1078.19 0 -209.72 987.809 0 -231.51 902.969 0 -241.586 825.827 0 -243.424 753.589 0 -240.407 687.241 0 -233.964 625.889 0 -225.478 569.673 0 -215.647 518.146 0 -205.088 471.126 0 -194.163 428.267 0 -183.166 389.294 0 -172.288 353.896 0 -161.673 321.788 0 -151.415 292.691 0 -141.582 266.342 0 -132.214 242.494 0 -123.336 220.917 0 -114.959 201.397 0 -107.082 183.739 0 -99.6974 167.763 0 -92.7928 153.305 0 -86.3505 140.214 0 -80.3505 128.356 0 -74.7706 117.609 0 -69.588 107.86 0 -64.7791 99.0113 0 -60.3205 90.9718 0 -56.1889 83.6612 0 -52.3622 77.007 0 -48.8186 70.9442 0 -45.5375 65.4147 0 -42.4997 60.3662 0 -39.6865 55.7521 0 -37.0809 51.5304 0 -34.6668 47.6637 0 -32.4292 44.1185 0 -30.3543 40.8646 0 -28.4293 37.875 0 -26.6423 35.1255 0 -24.9823 32.5944 0 -23.4395 30.2621 0 -22.0044 28.111 0 -20.6687 26.1253 0 -19.4247 24.2907 0 -18.2651 22.5943 0 -17.1834 21.0244 0 -16.1737 19.5707 0 -15.2304 18.2234 0 -14.3486 16.974 0 -13.5237 15.8146 0 -12.7514 14.7381 0 -12.0279 13.7379 0 -11.3496 12.8083 0 -10.7133 11.9437 0 -10.116 11.1392 0 -9.555 10.3904 0 -9.02772 9.69306 0 -8.53187 9.04344 0 -8.06532 8.43805 0 -7.62612 7.87369 0 -7.21243 7.34744 0 -6.82261 6.85658 0 -6.4551 6.39862 0 -6.10849 5.97126 0 -5.78144 5.57237 0 -5.47275 5.19998 0 -5.18128 4.85228 0 -4.90598 4.52758 0 -4.64588 4.22432 0 -4.40006 3.94105 0 -4.16769 3.67642 0 -3.94798 3.4292 0 -3.74019 3.19821 0 -3.54365 2.98238 0 -3.35772 2.7807 0 -3.18179 2.59224 0 -3.01532 2.41612 0 -2.85778 2.25154 0 -2.70868 2.09772 0 -2.56757 1.95398 0 -2.43401 1.81965 0 -2.3076 1.6941 0 -2.18797 1.57677 0 -2.07475 1.46713 0 -1.96761 1.36466 0 -1.86624 1.26889 0 -1.77034 1.1794 0 -1.67963 1.09577 0 -1.59385 1.01761 0 -1.51275 0.944567 0 -1.43611 0.876304 0 -1.3637 0.812512 0 -1.29531 0.752884 0 -1.23076 0.697157 0 -1.16985 0.64507 0 -1.11243 0.596382 0 -1.05832 0.550865 0 -1.00738 0.508307 0 -0.959458 0.468516 0 -0.914426 0.431302 0 -0.872165 0.396497 0 -0.832544 0.363931 0 -0.795465 0.333457 0 -0.760823 0.304935 0 -0.728519 0.278234 0 -0.698466 0.253222 0 -0.670588 0.229789 0 -0.644805 0.207827 0 -0.621046 0.187236 0 -0.59925 0.167912 0 -0.579361 0.149777 0 -0.561326 0.13275 0 -0.545097 0.116744 0 -0.530639 0.101704 0 -0.517906 0.08755 0 -0.506872 0.0742258 0 -0.497521 0.061674 0 -0.489819 0.0498502 0 -0.483754 0.0386911 0 -0.479322 0.0281706 0 -0.476514 0.0182347 0 -0.475329 0.00886106 0 -0.475773 -6.40983e-07 0 361.258 2040.82 0 171.814 1562.92 0 -15.8945 1332.74 0 -128.571 1190.75 0 -194.546 1078.66 0 -231.593 983.672 0 -250.265 896.999 0 -257.765 818.405 0 -257.715 745.708 0 -253.022 679.137 0 -245.184 617.91 0 -235.448 561.938 0 -224.525 510.773 0 -212.987 464.16 0 -201.193 421.74 0 -189.42 383.211 0 -177.852 348.253 0 -166.62 316.573 0 -155.815 287.886 0 -145.494 261.925 0 -135.694 238.441 0 -126.433 217.204 0 -117.715 198.001 0 -109.537 180.636 0 -101.886 164.93 0 -94.7446 150.719 0 -88.0932 137.857 0 -81.9081 126.207 0 -76.1644 115.65 0 -70.8367 106.075 0 -65.8992 97.3841 0 -61.3265 89.4885 0 -57.0939 82.3087 0 -53.1772 75.7734 0 -49.5537 69.8186 0 -46.2015 64.3871 0 -43.1002 59.4275 0 -40.2304 54.8942 0 -37.5742 50.7458 0 -35.1148 46.9457 0 -32.8366 43.461 0 -30.7252 40.262 0 -28.7673 37.3224 0 -26.9507 34.6184 0 -25.2641 32.1286 0 -23.6971 29.8339 0 -22.2403 27.7172 0 -20.8848 25.7627 0 -19.6228 23.9567 0 -18.4469 22.2864 0 -17.3504 20.7404 0 -16.3271 19.3084 0 -15.3716 17.9811 0 -14.4785 16.75 0 -13.6433 15.6074 0 -12.8616 14.5463 0 -12.1294 13.5603 0 -11.4432 12.6437 0 -10.7997 11.7911 0 -10.1957 10.9977 0 -9.62854 10.259 0 -9.09562 9.57104 0 -8.59458 8.93008 0 -8.12325 8.33269 0 -7.67963 7.77573 0 -7.26188 7.25632 0 -6.86831 6.77179 0 -6.49734 6.3197 0 -6.14753 5.89777 0 -5.81754 5.50392 0 -5.50612 5.13622 0 -5.21214 4.79286 0 -4.93451 4.4722 0 -4.67225 4.17269 0 -4.42445 3.89291 0 -4.19024 3.63153 0 -3.96883 3.38733 0 -3.75948 3.15915 0 -3.56148 2.94594 0 -3.37421 2.7467 0 -3.19704 2.56051 0 -3.02943 2.38652 0 -2.87083 2.22392 0 -2.72075 2.07195 0 -2.57873 1.92993 0 -2.44433 1.79721 0 -2.31715 1.67317 0 -2.1968 1.55724 0 -2.08291 1.44891 0 -1.97516 1.34766 0 -1.87323 1.25305 0 -1.77681 1.16463 0 -1.68562 1.08199 0 -1.5994 1.00477 0 -1.51789 0.932605 0 -1.44087 0.865162 0 -1.36811 0.802138 0 -1.2994 0.743227 0 -1.23456 0.688177 0 -1.17338 0.636718 0 -1.1157 0.588623 0 -1.06136 0.543657 0 -1.01021 0.50162 0 -0.962097 0.462318 0 -0.916886 0.42556 0 -0.87446 0.391184 0 -0.834688 0.359024 0 -0.797471 0.328929 0 -0.762701 0.300765 0 -0.73028 0.2744 0 -0.700121 0.249706 0 -0.672144 0.226571 0 -0.64627 0.204893 0 -0.622429 0.184569 0 -0.600558 0.165497 0 -0.580599 0.147602 0 -0.5625 0.130804 0 -0.546212 0.115015 0 -0.5317 0.100179 0 -0.518917 0.0862259 0 -0.507837 0.0730874 0 -0.498443 0.0607175 0 -0.490702 0.0490658 0 -0.4846 0.0380774 0 -0.480132 0.0277156 0 -0.47729 0.0179383 0 -0.476073 0.00871373 0 -0.476487 -8.42847e-08 0 222.624 1981.36 0 82.4292 1569.28 0 -68.257 1342.03 0 -164.447 1193.38 0 -221.883 1077.03 0 -253.681 978.532 0 -269.008 890.208 0 -273.907 810.482 0 -271.88 737.414 0 -265.492 670.732 0 -256.233 609.683 0 -245.243 554.004 0 -233.225 503.234 0 -220.714 457.057 0 -208.059 415.097 0 -195.52 377.03 0 -183.271 342.528 0 -171.434 311.288 0 -160.092 283.02 0 -149.295 257.456 0 -139.072 234.345 0 -129.436 213.455 0 -120.387 194.573 0 -111.915 177.506 0 -104.005 162.074 0 -96.6344 148.115 0 -89.7801 135.483 0 -83.4155 124.044 0 -77.5132 113.679 0 -72.045 104.28 0 -66.9831 95.7485 0 -62.3002 87.998 0 -57.9697 80.9501 0 -53.9662 74.5345 0 -50.2655 68.6884 0 -46.8446 63.3555 0 -43.682 58.4855 0 -40.7575 54.0333 0 -38.0524 49.9587 0 -35.5492 46.2255 0 -33.2317 42.8015 0 -31.0851 39.6578 0 -29.0955 36.7683 0 -27.2503 34.1099 0 -25.5379 31.6616 0 -23.9476 29.4047 0 -22.4696 27.3224 0 -21.095 25.3993 0 -19.8156 23.6219 0 -18.6239 21.9778 0 -17.513 20.4557 0 -16.4767 19.0456 0 -15.5092 17.7383 0 -14.6052 16.5256 0 -13.7599 15.3998 0 -12.9691 14.3541 0 -12.2285 13.3824 0 -11.5346 12.4788 0 -10.884 11.6382 0 -10.2735 10.8558 0 -9.7004 10.1273 0 -9.16198 9.44878 0 -8.65588 8.81649 0 -8.17988 8.22712 0 -7.73196 7.67757 0 -7.31025 7.16501 0 -6.91302 6.68683 0 -6.53867 6.24062 0 -6.18574 5.82414 0 -5.85287 5.43535 0 -5.53879 5.07233 0 -5.24235 4.73333 0 -4.96245 4.41671 0 -4.69809 4.12096 0 -4.44834 3.84468 0 -4.21234 3.58655 0 -3.98927 3.34538 0 -3.77837 3.12002 0 -3.57896 2.90944 0 -3.39037 2.71264 0 -3.21199 2.52874 0 -3.04325 2.35687 0 -2.88361 2.19625 0 -2.73257 2.04614 0 -2.58966 1.90584 0 -2.45445 1.77473 0 -2.3265 1.6522 0 -2.20545 1.53768 0 -2.09092 1.43066 0 -1.98257 1.33064 0 -1.88009 1.23717 0 -1.78315 1.14983 0 -1.69149 1.0682 0 -1.60484 0.991914 0 -1.52293 0.920624 0 -1.44554 0.854004 0 -1.37244 0.791748 0 -1.30342 0.733561 0 -1.23828 0.67918 0 -1.17684 0.628357 0 -1.11892 0.580852 0 -1.06435 0.536442 0 -1.01299 0.494925 0 -0.964688 0.456112 0 -0.919302 0.419811 0 -0.876714 0.385867 0 -0.836795 0.35411 0 -0.799441 0.324396 0 -0.764546 0.29659 0 -0.732011 0.270562 0 -0.701747 0.246185 0 -0.673674 0.223352 0 -0.647711 0.201956 0 -0.623789 0.181898 0 -0.601844 0.163082 0 -0.581817 0.145428 0 -0.563655 0.128855 0 -0.54731 0.113285 0 -0.532744 0.0986555 0 -0.519913 0.0848977 0 -0.508787 0.0719487 0 -0.499351 0.0597621 0 -0.49157 0.0482821 0 -0.485431 0.0374615 0 -0.480928 0.0272616 0 -0.478053 0.0176379 0 -0.476805 0.0085653 0 -0.477187 2.31899e-07 0 109.226 1934.37 0 1.89352 1568.69 0 -118.987 1345.95 0 -200.183 1193.28 0 -249.23 1073.56 0 -275.834 972.354 0 -287.692 882.638 0 -289.96 802.045 0 -285.896 728.715 0 -277.797 662.025 0 -267.1 601.21 0 -254.855 545.875 0 -241.743 495.533 0 -228.266 449.819 0 -214.758 408.34 0 -201.463 370.755 0 -188.544 336.723 0 -176.114 305.935 0 -164.245 278.098 0 -152.982 252.939 0 -142.347 230.207 0 -132.346 209.671 0 -122.975 191.117 0 -114.218 174.351 0 -106.055 159.197 0 -98.4621 145.493 0 -91.4112 133.094 0 -84.8729 121.869 0 -78.8169 111.698 0 -73.2129 102.476 0 -68.0308 94.1052 0 -63.2414 86.501 0 -58.8165 79.5859 0 -54.7292 73.2909 0 -50.954 67.5541 0 -47.4668 62.3205 0 -44.2451 57.5405 0 -41.2679 53.1699 0 -38.5156 49.1694 0 -35.9701 45.5034 0 -33.6148 42.1404 0 -31.4341 39.052 0 -29.4139 36.2128 0 -27.5411 33.6002 0 -25.8037 31.1935 0 -24.1909 28.9745 0 -22.6925 26.9267 0 -21.2994 25.0352 0 -20.0032 23.2865 0 -18.7962 21.6685 0 -17.6714 20.1704 0 -16.6223 18.7823 0 -15.6432 17.4951 0 -14.7286 16.3007 0 -13.8737 15.1918 0 -13.0739 14.1616 0 -12.3252 13.204 0 -11.6238 12.3135 0 -10.9663 11.485 0 -10.3495 10.7137 0 -9.77058 9.99541 0 -9.22681 9.32628 0 -8.71577 8.70269 0 -8.23523 8.12134 0 -7.78312 7.57922 0 -7.35754 7.07354 0 -6.95674 6.60172 0 -6.5791 6.16139 0 -6.22313 5.75038 0 -5.88744 5.36664 0 -5.57076 5.00833 0 -5.27192 4.67369 0 -4.98979 4.36112 0 -4.72338 4.06914 0 -4.47174 3.79636 0 -4.23398 3.5415 0 -4.00928 3.30335 0 -3.79688 3.08082 0 -3.59608 2.87287 0 -3.4062 2.67853 0 -3.22664 2.49691 0 -3.0568 2.32717 0 -2.89614 2.16854 0 -2.74416 2.02028 0 -2.60038 1.88172 0 -2.46436 1.75222 0 -2.33567 1.6312 0 -2.21394 1.51809 0 -2.09877 1.41238 0 -1.98984 1.3136 0 -1.88681 1.22128 0 -1.78938 1.135 0 -1.69726 1.05438 0 -1.61017 0.979038 0 -1.52788 0.908628 0 -1.45012 0.842831 0 -1.37669 0.781345 0 -1.30736 0.723879 0 -1.24194 0.670175 0 -1.18023 0.619983 0 -1.12207 0.573071 0 -1.06729 0.529216 0 -1.01573 0.488223 0 -0.967232 0.449897 0 -0.921674 0.414056 0 -0.878927 0.380543 0 -0.838863 0.34919 0 -0.801376 0.31986 0 -0.766359 0.29241 0 -0.733711 0.26672 0 -0.703345 0.242661 0 -0.675177 0.22013 0 -0.649128 0.199015 0 -0.625126 0.179226 0 -0.603109 0.160664 0 -0.583014 0.143249 0 -0.56479 0.126906 0 -0.548389 0.111552 0 -0.533771 0.0971285 0 -0.520892 0.0835701 0 -0.509722 0.0708079 0 -0.500244 0.0588037 0 -0.492424 0.0474979 0 -0.486249 0.0368442 0 -0.481712 0.026806 0 -0.478804 0.017339 0 -0.477525 0.00841917 0 -0.477877 2.8871e-07 0 11.9579 1894.17 0 -71.264 1563 0 -167.929 1345.49 0 -235.499 1190.65 0 -276.46 1068.39 0 -297.935 965.151 0 -306.268 874.321 0 -305.881 793.098 0 -299.741 719.62 0 -289.92 653.02 0 -277.773 592.498 0 -264.274 537.553 0 -250.073 487.673 0 -235.638 442.45 0 -221.287 401.475 0 -207.248 364.388 0 -193.67 330.841 0 -180.658 300.518 0 -168.274 273.121 0 -156.556 248.376 0 -145.519 226.031 0 -135.163 205.854 0 -125.477 187.632 0 -116.443 171.173 0 -108.036 156.301 0 -100.228 142.855 0 -92.9865 130.692 0 -86.2802 119.682 0 -80.0758 109.707 0 -74.3406 100.663 0 -69.0425 92.455 0 -64.1504 84.9981 0 -59.6344 78.2167 0 -55.4663 72.043 0 -51.6193 66.4163 0 -48.0682 61.2824 0 -44.7895 56.5928 0 -41.7615 52.3042 0 -38.9638 48.378 0 -36.3776 44.7795 0 -33.9857 41.4777 0 -31.7722 38.4449 0 -29.7225 35.6562 0 -27.823 33.0894 0 -26.0616 30.7245 0 -24.4271 28.5435 0 -22.909 26.5303 0 -21.498 24.6703 0 -20.1855 22.9504 0 -18.9637 21.3587 0 -17.8254 19.8847 0 -16.764 18.5185 0 -15.7737 17.2514 0 -14.8488 16.0754 0 -13.9844 14.9834 0 -13.1761 13.9687 0 -12.4194 13.0254 0 -11.7108 12.148 0 -11.0466 11.3315 0 -10.4237 10.5713 0 -9.83909 9.86327 0 -9.29011 9.20357 0 -8.77427 8.58869 0 -8.28931 8.01539 0 -7.83311 7.48071 0 -7.40376 6.98191 0 -6.99948 6.51645 0 -6.61863 6.08203 0 -6.25968 5.67648 0 -5.92125 5.29783 0 -5.60204 4.94421 0 -5.30084 4.61395 0 -5.01655 4.30545 0 -4.74814 4.01724 0 -4.49463 3.74797 0 -4.25516 3.49637 0 -4.02887 3.26127 0 -3.81501 3.04156 0 -3.61284 2.83625 0 -3.42171 2.64436 0 -3.24098 2.46503 0 -3.07006 2.29743 0 -2.90841 2.14079 0 -2.75551 1.99439 0 -2.61088 1.85756 0 -2.47407 1.72968 0 -2.34466 1.61016 0 -2.22225 1.49847 0 -2.10646 1.39408 0 -1.99696 1.29653 0 -1.8934 1.20536 0 -1.79548 1.12016 0 -1.7029 1.04055 0 -1.6154 0.966146 0 -1.53272 0.896618 0 -1.45462 0.831645 0 -1.38085 0.770929 0 -1.31122 0.714185 0 -1.24552 0.66116 0 -1.18356 0.6116 0 -1.12517 0.565283 0 -1.07017 0.521983 0 -1.0184 0.481513 0 -0.969727 0.443676 0 -0.924001 0.408297 0 -0.881099 0.375213 0 -0.840894 0.344268 0 -0.803276 0.315316 0 -0.768139 0.288228 0 -0.735381 0.262875 0 -0.704914 0.239136 0 -0.676653 0.216904 0 -0.65052 0.196073 0 -0.62644 0.176554 0 -0.604351 0.158243 0 -0.584191 0.14107 0 -0.565907 0.124956 0 -0.549451 0.10982 0 -0.53478 0.0956032 0 -0.521855 0.0822412 0 -0.510641 0.0696696 0 -0.501122 0.0578449 0 -0.493265 0.0467119 0 -0.487054 0.0362286 0 -0.482484 0.0263522 0 -0.479543 0.0170403 0 -0.478233 0.00827162 0 -0.478552 5.81145e-07 0 -74.023 1858.21 0 -138.337 1553.44 0 -215.009 1341.44 0 -270.213 1185.7 0 -303.455 1061.67 0 -319.892 956.948 0 -324.685 865.284 0 -321.631 783.645 0 -313.394 710.138 0 -301.842 643.72 0 -288.242 583.549 0 -273.494 529.042 0 -258.209 479.659 0 -242.826 434.954 0 -227.644 394.505 0 -212.871 357.933 0 -198.648 324.886 0 -185.065 295.039 0 -172.178 268.092 0 -160.016 243.77 0 -148.587 221.819 0 -137.885 202.007 0 -127.895 184.123 0 -118.592 167.974 0 -109.949 153.386 0 -101.931 140.202 0 -94.5062 128.277 0 -87.6375 117.484 0 -81.2899 107.707 0 -75.4282 98.8433 0 -70.0182 90.7986 0 -65.0271 83.4901 0 -60.4235 76.8432 0 -56.1776 70.7915 0 -52.2615 65.2753 0 -48.6489 60.2416 0 -45.3155 55.6428 0 -42.2385 51.4366 0 -39.397 47.585 0 -36.7717 44.0541 0 -34.3447 40.8137 0 -32.0996 37.8366 0 -30.0214 35.0986 0 -28.0963 32.5778 0 -26.3117 30.2547 0 -24.6561 28.1118 0 -23.119 26.1333 0 -21.6908 24.3049 0 -20.3626 22.6138 0 -19.1265 21.0485 0 -17.9751 19.5984 0 -16.9019 18.2542 0 -15.9006 17.0073 0 -14.9658 15.8498 0 -14.0923 14.7747 0 -13.2756 13.7756 0 -12.5113 12.8465 0 -11.7956 11.9822 0 -11.1249 11.1778 0 -10.496 10.4287 0 -9.90593 9.73091 0 -9.35188 9.08067 0 -8.83138 8.47451 0 -8.3421 7.90927 0 -7.88193 7.38204 0 -7.44892 6.89013 0 -7.04124 6.43106 0 -6.65725 6.00254 0 -6.29542 5.60248 0 -5.95431 5.2289 0 -5.63262 4.88 0 -5.32913 4.55412 0 -5.04273 4.24968 0 -4.77235 3.96525 0 -4.51703 3.6995 0 -4.27588 3.45117 0 -4.04804 3.21911 0 -3.83274 3.00224 0 -3.62925 2.79957 0 -3.43689 2.61014 0 -3.25502 2.43311 0 -3.08305 2.26764 0 -2.92042 2.11299 0 -2.76662 1.96845 0 -2.62116 1.83336 0 -2.48358 1.70711 0 -2.35346 1.58911 0 -2.23039 1.47882 0 -2.114 1.37576 0 -2.00393 1.27944 0 -1.89985 1.18942 0 -1.80145 1.1053 0 -1.70844 1.0267 0 -1.62053 0.953238 0 -1.53747 0.884593 0 -1.45902 0.820445 0 -1.38494 0.760502 0 -1.31501 0.704482 0 -1.24904 0.652132 0 -1.18683 0.603209 0 -1.1282 0.557484 0 -1.07299 0.514744 0 -1.02103 0.474796 0 -0.972174 0.437449 0 -0.926284 0.402531 0 -0.88323 0.369878 0 -0.842886 0.339341 0 -0.80514 0.31077 0 -0.769885 0.284043 0 -0.73702 0.259027 0 -0.706454 0.235605 0 -0.678103 0.213674 0 -0.651887 0.193129 0 -0.627731 0.173875 0 -0.605573 0.155823 0 -0.585347 0.138891 0 -0.567005 0.123004 0 -0.550495 0.108086 0 -0.535773 0.0940763 0 -0.522801 0.0809129 0 -0.511546 0.0685302 0 -0.501986 0.0568851 0 -0.494091 0.0459275 0 -0.487845 0.0356104 0 -0.483241 0.0258953 0 -0.480269 0.0167427 0 -0.478928 0.00812347 0 -0.479218 -1.75647e-06 0 -151.56 1824.8 0 -200.345 1540.84 0 -260.224 1334.37 0 -304.199 1178.65 0 -330.115 1053.51 0 -341.627 947.784 0 -342.898 855.556 0 -337.176 773.697 0 -326.833 700.277 0 -313.55 634.131 0 -298.498 574.371 0 -282.506 520.348 0 -266.147 471.495 0 -249.827 427.336 0 -233.825 387.432 0 -218.332 351.394 0 -203.475 318.86 0 -189.334 289.502 0 -175.956 263.015 0 -163.361 239.123 0 -151.551 217.572 0 -140.513 198.131 0 -130.228 180.589 0 -120.665 164.755 0 -111.792 150.456 0 -103.573 137.535 0 -95.9702 125.851 0 -88.9449 115.277 0 -82.4592 105.7 0 -76.4757 97.017 0 -70.9581 89.1368 0 -65.8718 81.9775 0 -61.1839 75.4659 0 -56.8632 69.5368 0 -52.8806 64.1317 0 -49.209 59.1986 0 -45.8229 54.6909 0 -42.699 50.5673 0 -39.8155 46.7905 0 -37.1525 43.3275 0 -34.6917 40.1486 0 -32.4162 37.2274 0 -30.3106 34.5401 0 -28.3608 32.0654 0 -26.5539 29.7843 0 -24.8781 27.6795 0 -23.3227 25.7357 0 -21.8778 23.9389 0 -20.5344 22.2767 0 -19.2845 20.7378 0 -18.1206 19.3118 0 -17.0358 17.9897 0 -16.0241 16.7629 0 -15.0796 15.6239 0 -14.1973 14.5657 0 -13.3725 13.5821 0 -12.6007 12.6674 0 -11.8782 11.8162 0 -11.2012 11.0238 0 -10.5665 10.2859 0 -9.97111 9.59837 0 -9.41214 8.95759 0 -8.8871 8.36017 0 -8.39363 7.803 0 -7.92959 7.28323 0 -7.493 6.79822 0 -7.08203 6.34554 0 -6.69499 5.92294 0 -6.33033 5.52836 0 -5.98661 5.15987 0 -5.66251 4.8157 0 -5.35679 4.4942 0 -5.06831 4.19383 0 -4.79602 3.91319 0 -4.53894 3.65096 0 -4.29615 3.40591 0 -4.06679 3.1769 0 -3.85009 2.96287 0 -3.6453 2.76284 0 -3.45174 2.57588 0 -3.26875 2.40114 0 -3.09576 2.23781 0 -2.93218 2.08516 0 -2.7775 1.94249 0 -2.63122 1.80914 0 -2.49289 1.6845 0 -2.36207 1.56802 0 -2.23836 1.45915 0 -2.12138 1.35741 0 -2.01076 1.26233 0 -1.90617 1.17347 0 -1.8073 1.09043 0 -1.71386 1.01283 0 -1.62555 0.940314 0 -1.54212 0.872552 0 -1.46333 0.809233 0 -1.38893 0.750062 0 -1.31872 0.694767 0 -1.25248 0.643095 0 -1.19003 0.59481 0 -1.13118 0.549678 0 -1.07576 0.507498 0 -1.0236 0.46807 0 -0.974574 0.431217 0 -0.928522 0.396758 0 -0.88532 0.36454 0 -0.84484 0.334408 0 -0.806969 0.306221 0 -0.771599 0.279853 0 -0.738629 0.255175 0 -0.707967 0.232076 0 -0.679526 0.210442 0 -0.653229 0.190183 0 -0.628998 0.171198 0 -0.606772 0.153402 0 -0.586484 0.136709 0 -0.568083 0.121052 0 -0.55152 0.106352 0 -0.536749 0.0925479 0 -0.523732 0.0795837 0 -0.512435 0.0673897 0 -0.502835 0.0559281 0 -0.494903 0.0451418 0 -0.488623 0.0349959 0 -0.483987 0.025439 0 -0.480983 0.016444 0 -0.479612 0.00797453 0 -0.479874 2.79024e-06 0 -222.474 1792.95 0 -258.078 1525.79 0 -303.61 1324.73 0 -337.372 1169.71 0 -356.354 1044.03 0 -363.074 937.703 0 -360.861 845.165 0 -352.485 763.267 0 -340.037 690.048 0 -325.028 624.26 0 -308.53 564.968 0 -291.304 511.476 0 -273.881 463.187 0 -256.637 419.599 0 -239.828 380.263 0 -223.628 344.775 0 -208.15 312.768 0 -193.465 283.909 0 -179.608 257.892 0 -166.591 234.438 0 -154.41 213.294 0 -143.047 194.23 0 -132.475 177.034 0 -122.661 161.519 0 -113.567 147.511 0 -105.153 134.856 0 -97.3787 123.414 0 -90.2026 113.062 0 -83.5841 103.686 0 -77.4833 95.185 0 -71.8623 87.4703 0 -66.6845 80.461 0 -61.9157 74.0854 0 -57.5232 68.2794 0 -53.4769 62.9858 0 -49.7486 58.1536 0 -46.312 53.7374 0 -43.143 49.6966 0 -40.2191 45.9949 0 -37.52 42.5999 0 -35.0268 39.4827 0 -32.7221 36.6175 0 -30.5902 33.981 0 -28.6167 31.5524 0 -26.7883 29.3133 0 -25.0931 27.2467 0 -23.52 25.3376 0 -22.059 23.5726 0 -20.7011 21.9393 0 -19.4379 20.4267 0 -18.2618 19.0249 0 -17.166 17.7248 0 -16.144 16.5182 0 -15.1903 15.3977 0 -14.2994 14.3565 0 -13.4667 13.3885 0 -12.6878 12.488 0 -11.9586 11.65 0 -11.2756 10.8697 0 -10.6352 10.1429 0 -10.0346 9.46566 0 -9.47088 8.83435 0 -8.94143 8.24568 0 -8.44389 7.69659 0 -7.97609 7.18429 0 -7.53602 6.70618 0 -7.12183 6.2599 0 -6.73182 5.84323 0 -6.36441 5.45415 0 -6.01815 5.09075 0 -5.6917 4.75131 0 -5.3838 4.43419 0 -5.09331 4.13791 0 -4.81916 3.86106 0 -4.56035 3.60235 0 -4.31596 3.36058 0 -4.08513 3.13463 0 -3.86705 2.92344 0 -3.66099 2.72606 0 -3.46626 2.54156 0 -3.28219 2.36912 0 -3.10819 2.20795 0 -2.94368 2.0573 0 -2.78814 1.91649 0 -2.64107 1.78488 0 -2.502 1.66187 0 -2.3705 1.5469 0 -2.24616 1.43946 0 -2.12859 1.33904 0 -2.01744 1.24519 0 -1.91236 1.15749 0 -1.81303 1.07553 0 -1.71916 0.998945 0 -1.63046 0.927375 0 -1.54668 0.8605 0 -1.46755 0.798006 0 -1.39285 0.739612 0 -1.32235 0.685042 0 -1.25586 0.634049 0 -1.19316 0.586398 0 -1.13409 0.541864 0 -1.07847 0.500242 0 -1.02613 0.461341 0 -0.976925 0.424978 0 -0.930717 0.390982 0 -0.887368 0.359194 0 -0.846755 0.329471 0 -0.808763 0.301667 0 -0.77328 0.275658 0 -0.740207 0.25132 0 -0.709451 0.22854 0 -0.680923 0.207209 0 -0.654546 0.187234 0 -0.630243 0.168518 0 -0.60795 0.150976 0 -0.5876 0.134527 0 -0.569142 0.119096 0 -0.552528 0.104616 0 -0.537708 0.0910212 0 -0.524646 0.0782521 0 -0.513308 0.0662494 0 -0.503669 0.0549665 0 -0.495702 0.0443575 0 -0.489388 0.0343784 0 -0.484719 0.0249818 0 -0.481684 0.0161451 0 -0.480283 0.00782613 0 -0.480516 -2.40654e-06 0 -288.006 1761.96 0 -312.143 1508.72 0 -345.227 1312.88 0 -369.672 1159.06 0 -382.104 1033.31 0 -384.178 926.75 0 -378.538 834.139 0 -367.53 752.369 0 -352.988 679.463 0 -336.263 614.113 0 -318.328 555.349 0 -299.88 502.43 0 -281.407 454.738 0 -263.253 411.749 0 -245.65 373 0 -228.757 338.079 0 -212.673 306.613 0 -197.456 278.264 0 -183.132 252.725 0 -169.706 229.718 0 -157.165 208.987 0 -145.487 190.304 0 -134.638 173.46 0 -124.58 158.266 0 -115.272 144.552 0 -106.671 132.166 0 -98.7318 120.969 0 -91.4108 110.839 0 -84.6645 101.665 0 -78.4513 93.3482 0 -72.731 85.7999 0 -67.4655 78.9413 0 -62.619 72.7022 0 -58.1578 67.0198 0 -54.0505 61.8381 0 -50.2678 57.1072 0 -46.7829 52.7827 0 -43.5706 48.8249 0 -40.6082 45.1984 0 -37.8744 41.8715 0 -35.35 38.8161 0 -33.0174 36.0069 0 -30.8603 33.4213 0 -28.864 31.039 0 -27.015 28.8418 0 -25.301 26.8135 0 -23.711 24.9392 0 -22.2346 23.2059 0 -20.8626 21.6016 0 -19.5866 20.1154 0 -18.3988 18.7377 0 -17.2922 17.4597 0 -16.2605 16.2733 0 -15.2977 15.1713 0 -14.3986 14.147 0 -13.5584 13.1946 0 -12.7725 12.3085 0 -12.0369 11.4836 0 -11.3479 10.7154 0 -10.7021 9.99978 0 -10.0965 9.33281 0 -9.52811 8.71098 0 -8.99438 8.13106 0 -8.49288 7.59005 0 -8.02143 7.08523 0 -7.57798 6.61404 0 -7.16067 6.17416 0 -6.76777 5.76343 0 -6.39768 5.37984 0 -6.04895 5.02155 0 -5.7202 4.68684 0 -5.41019 4.37412 0 -5.11773 4.08192 0 -4.84176 3.80887 0 -4.58126 3.55369 0 -4.33531 3.3152 0 -4.10304 3.0923 0 -3.88363 2.88397 0 -3.67634 2.68923 0 -3.48045 2.50721 0 -3.29532 2.33707 0 -3.12034 2.17804 0 -2.95493 2.0294 0 -2.79855 1.89046 0 -2.6507 1.76059 0 -2.51091 1.63921 0 -2.37875 1.52577 0 -2.25379 1.41974 0 -2.13566 1.32065 0 -2.02398 1.22804 0 -1.91841 1.1415 0 -1.81864 1.06062 0 -1.72435 0.985046 0 -1.63527 0.914425 0 -1.55114 0.848433 0 -1.47168 0.78677 0 -1.39668 0.729151 0 -1.32591 0.675307 0 -1.25916 0.624995 0 -1.19623 0.577981 0 -1.13694 0.534043 0 -1.08112 0.492982 0 -1.0286 0.454604 0 -0.979229 0.418733 0 -0.932866 0.385198 0 -0.889376 0.353848 0 -0.848633 0.324529 0 -0.810521 0.297111 0 -0.774928 0.27146 0 -0.741755 0.247464 0 -0.710906 0.225002 0 -0.682294 0.203974 0 -0.655839 0.184285 0 -0.631464 0.165836 0 -0.609105 0.148549 0 -0.588696 0.132343 0 -0.570183 0.117142 0 -0.553516 0.102879 0 -0.53865 0.089493 0 -0.525545 0.0769211 0 -0.514166 0.0651086 0 -0.504489 0.054008 0 -0.496486 0.0435719 0 -0.490138 0.0337589 0 -0.485438 0.0245265 0 -0.482373 0.0158462 0 -0.480942 0.00767894 0 -0.481149 1.62423e-06 0 -349.039 1731.41 0 -363.009 1489.94 0 -385.143 1299.12 0 -401.06 1146.86 