<?xml version="1.0"?> 
<VTKFile type="StructuredGrid" version="0.1"> 
<StructuredGrid WholeExtent="0 127 0 127 0 0"> 
<Piece Extent="0 127 0 127 0 0"> 
<PointData>
<DataArray type="Float32" Name="|E|" format="ascii" NumberOfComponents="3"> 
299734 4.54609e+06 0 299932 4.54909e+06 0 300132 4.55212e+06 0 300333 4.55518e+06 0 300536 4.55826e+06 0 300741 4.56136e+06 0 300947 4.56449e+06 0 301155 4.56765e+06 0 301365 4.57083e+06 0 301577 4.57404e+06 0 301790 4.57728e+06 0 302005 4.58054e+06 0 302222 4.58384e+06 0 302441 4.58716e+06 0 302662 4.59051e+06 0 302885 4.59389e+06 0 303110 4.5973e+06 0 303337 4.60074e+06 0 303565 4.6042e+06 0 303796 4.6077e+06 0 304029 4.61123e+06 0 304264 4.6148e+06 0 304501 4.61839e+06 0 304740 4.62202e+06 0 304981 4.62568e+06 0 305225 4.62937e+06 0 305470 4.6331e+06 0 305718 4.63686e+06 0 305969 4.64065e+06 0 306221 4.64449e+06 0 306476 4.64835e+06 0 306734 4.65226e+06 0 306993 4.6562e+06 0 307256 4.66017e+06 0 307520 4.66419e+06 0 307788 4.66825e+06 0 308058 4.67234e+06 0 308330 4.67647e+06 0 308605 4.68065e+06 0 308883 4.68486e+06 0 309164 4.68912e+06 0 309448 4.69342e+06 0 309734 4.69776e+06 0 310023 4.70215e+06 0 310315 4.70658e+06 0 310610 4.71106e+06 0 310909 4.71558e+06 0 311210 4.72015e+06 0 311514 4.72477e+06 0 311822 4.72943e+06 0 312133 4.73415e+06 0 312447 4.73892e+06 0 312765 4.74373e+06 0 313086 4.74861e+06 0 313411 4.75353e+06 0 313739 4.75851e+06 0 314071 4.76354e+06 0 314406 4.76863e+06 0 314745 4.77377e+06 0 315089 4.77898e+06 0 315436 4.78424e+06 0 315787 4.78957e+06 0 316142 4.79496e+06 0 316502 4.80041e+06 0 316865 4.80593e+06 0 317233 4.81151e+06 0 317606 4.81716e+06 0 317983 4.82288e+06 0 318365 4.82867e+06 0 318751 4.83453e+06 0 319143 4.84047e+06 0 319539 4.84648e+06 0 319940 4.85257e+06 0 320347 4.85873e+06 0 320759 4.86498e+06 0 321177 4.87132e+06 0 321600 4.87773e+06 0 322029 4.88424e+06 0 322463 4.89083e+06 0 322904 4.89752e+06 0 323351 4.9043e+06 0 323805 4.91118e+06 0 324265 4.91815e+06 0 324732 4.92523e+06 0 325205 4.93242e+06 0 325686 4.93971e+06 0 326174 4.94712e+06 0 326670 4.95464e+06 0 327174 4.96228e+06 0 327686 4.97004e+06 0 328206 4.97793e+06 0 328735 4.98595e+06 0 329272 4.9941e+06 0 329819 5.0024e+06 0 330375 5.01084e+06 0 330942 5.01943e+06 0 331518 5.02817e+06 0 332106 5.03708e+06 0 332704 5.04616e+06 0 333314 5.05541e+06 0 333936 5.06484e+06 0 334571 5.07447e+06 0 335219 5.08429e+06 0 335880 5.09433e+06 0 336557 5.10458e+06 0 337248 5.11507e+06 0 337955 5.1258e+06 0 338679 5.13678e+06 0 339421 5.14804e+06 0 340183 5.15958e+06 0 340964 5.17143e+06 0 341767 5.1836e+06 0 342592 5.19613e+06 0 343443 5.20903e+06 0 344321 5.22235e+06 0 345228 5.23611e+06 0 346168 5.25036e+06 0 347144 5.26516e+06 0 348160 5.28058e+06 0 349224 5.29671e+06 0 350342 5.31367e+06 0 351526 5.33163e+06 0 352791 5.35081e+06 0 354158 5.37155e+06 0 355659 5.39432e+06 0 357342 5.41984e+06 0 359277 5.44919e+06 0 361572 5.48399e+06 0 321577 4.53469e+06 0 321973 4.5377e+06 0 322374 4.54074e+06 0 322779 4.5438e+06 0 323188 4.54689e+06 0 323602 4.55e+06 0 324020 4.55314e+06 0 324443 4.55631e+06 0 324870 4.55951e+06 0 325301 4.56273e+06 0 325738 4.56598e+06 0 326179 4.56926e+06 0 326625 4.57256e+06 0 327076 4.5759e+06 0 327532 4.57926e+06 0 327994 4.58266e+06 0 328460 4.58608e+06 0 328932 4.58954e+06 0 329409 4.59302e+06 0 329892 4.59654e+06 0 330380 4.60009e+06 0 330874 4.60367e+06 0 331374 4.60728e+06 0 331880 4.61093e+06 0 332392 4.61461e+06 0 332911 4.61833e+06 0 333435 4.62208e+06 0 333966 4.62586e+06 0 334503 4.62968e+06 0 335048 4.63354e+06 0 335599 4.63743e+06 0 336156 4.64136e+06 0 336722 4.64533e+06 0 337294 4.64933e+06 0 337874 4.65338e+06 0 338461 4.65746e+06 0 339056 4.66158e+06 0 339659 4.66575e+06 0 340270 4.66996e+06 0 340889 4.6742e+06 0 341517 4.67849e+06 0 342153 4.68283e+06 0 342798 4.68721e+06 0 343453 4.69163e+06 0 344116 4.6961e+06 0 344789 4.70062e+06 0 345472 4.70518e+06 0 346164 4.70979e+06 0 346867 4.71445e+06 0 347580 4.71916e+06 0 348304 4.72392e+06 0 349039 4.72873e+06 0 349785 4.73359e+06 0 350543 4.73851e+06 0 351313 4.74348e+06 0 352095 4.7485e+06 0 352889 4.75359e+06 0 353696 4.75873e+06 0 354516 4.76392e+06 0 355350 4.76918e+06 0 356198 4.7745e+06 0 357061 4.77988e+06 0 357938 4.78533e+06 0 358830 4.79084e+06 0 359739 4.79641e+06 0 360663 4.80206e+06 0 361604 4.80777e+06 0 362563 4.81355e+06 0 363539 4.8194e+06 0 364534 4.82533e+06 0 365548 4.83133e+06 0 366581 4.83741e+06 0 367635 4.84357e+06 0 368710 4.84981e+06 0 369807 4.85613e+06 0 370926 4.86253e+06 0 372069 4.86902e+06 0 373237 4.8756e+06 0 374430 4.88227e+06 0 375649 4.88903e+06 0 376896 4.89589e+06 0 378171 4.90285e+06 0 379476 4.9099e+06 0 380812 4.91706e+06 0 382180 4.92433e+06 0 383583 4.9317e+06 0 385020 4.93919e+06 0 386495 4.94679e+06 0 388009 4.95451e+06 0 389564 4.96236e+06 0 391161 4.97033e+06 0 392804 4.97843e+06 0 394494 4.98666e+06 0 396234 4.99503e+06 0 398027 5.00354e+06 0 399876 5.01221e+06 0 401784 5.02102e+06 0 403755 5.03e+06 0 405794 5.03913e+06 0 407903 5.04844e+06 0 410089 5.05793e+06 0 412356 5.06759e+06 0 414711 5.07745e+06 0 417159 5.0875e+06 0 419709 5.09776e+06 0 422368 5.10823e+06 0 425145 5.11893e+06 0 428051 5.12985e+06 0 431097 5.14102e+06 0 434296 5.15244e+06 0 437664 5.16412e+06 0 441218 5.17607e+06 0 444977 5.18831e+06 0 448963 5.20085e+06 0 453204 5.21369e+06 0 457728 5.22685e+06 0 462571 5.24033e+06 0 467772 5.25415e+06 0 473377 5.26831e+06 0 479438 5.28281e+06 0 486012 5.29764e+06 0 493163 5.31279e+06 0 500955 5.32821e+06 0 509449 5.34384e+06 0 518692 5.35961e+06 0 528698 5.37535e+06 0 539410 5.39086e+06 0 550651 5.40581e+06 0 342119 4.52231e+06 0 342710 4.52531e+06 0 343307 4.52834e+06 0 343910 4.53139e+06 0 344521 4.53446e+06 0 345139 4.53757e+06 0 345763 4.5407e+06 0 346395 4.54385e+06 0 347034 4.54703e+06 0 347681 4.55025e+06 0 348335 4.55349e+06 0 348997 4.55675e+06 0 349667 4.56005e+06 0 350344 4.56337e+06 0 351030 4.56673e+06 0 351725 4.57011e+06 0 352428 4.57353e+06 0 353139 4.57697e+06 0 353859 4.58045e+06 0 354588 4.58396e+06 0 355327 4.5875e+06 0 356075 4.59107e+06 0 356832 4.59467e+06 0 357599 4.59831e+06 0 358376 4.60198e+06 0 359163 4.60569e+06 0 359960 4.60943e+06 0 360768 4.6132e+06 0 361587 4.61701e+06 0 362417 4.62086e+06 0 363258 4.62474e+06 0 364110 4.62866e+06 0 364974 4.63262e+06 0 365850 4.63662e+06 0 366739 4.64065e+06 0 367640 4.64473e+06 0 368553 4.64884e+06 0 369480 4.653e+06 0 370420 4.65719e+06 0 371374 4.66143e+06 0 372342 4.66571e+06 0 373325 4.67004e+06 0 374322 4.6744e+06 0 375334 4.67882e+06 0 376362 4.68327e+06 0 377405 4.68778e+06 0 378465 4.69233e+06 0 379541 4.69693e+06 0 380635 4.70157e+06 0 381746 4.70627e+06 0 382875 4.71101e+06 0 384022 4.71581e+06 0 385188 4.72066e+06 0 386374 4.72556e+06 0 387580 4.73051e+06 0 388807 4.73552e+06 0 390055 4.74059e+06 0 391324 4.74571e+06 0 392616 4.75089e+06 0 393931 4.75612e+06 0 395270 4.76142e+06 0 396633 4.76678e+06 0 398021 4.7722e+06 0 399435 4.77768e+06 0 400877 4.78322e+06 0 402346 4.78884e+06 0 403843 4.79452e+06 0 405370 4.80026e+06 0 406927 4.80608e+06 0 408516 4.81197e+06 0 410138 4.81793e+06 0 411793 4.82396e+06 0 413483 4.83007e+06 0 415209 4.83626e+06 0 416973 4.84252e+06 0 418776 4.84887e+06 0 420619 4.8553e+06 0 422503 4.86181e+06 0 424432 4.8684e+06 0 426405 4.87509e+06 0 428426 4.88186e+06 0 430495 4.88873e+06 0 432616 4.89569e+06 0 434789 4.90274e+06 0 437018 4.9099e+06 0 439305 4.91715e+06 0 441652 4.92451e+06 0 444062 4.93197e+06 0 446539 4.93953e+06 0 449085 4.94721e+06 0 451703 4.955e+06 0 454397 4.96291e+06 0 457172 4.97093e+06 0 460030 4.97908e+06 0 462977 4.98734e+06 0 466017 4.99574e+06 0 469155 5.00426e+06 0 472396 5.01292e+06 0 475747 5.02171e+06 0 479213 5.03064e+06 0 482802 5.03971e+06 0 486520 5.04892e+06 0 490376 5.05828e+06 0 494378 5.06779e+06 0 498534 5.07745e+06 0 502856 5.08726e+06 0 507353 5.09723e+06 0 512037 5.10735e+06 0 516919 5.11764e+06 0 522014 5.12807e+06 0 527335 5.13867e+06 0 532897 5.14942e+06 0 538715 5.16032e+06 0 544806 5.17136e+06 0 551186 5.18255e+06 0 557873 5.19387e+06 0 564885 5.20531e+06 0 572238 5.21685e+06 0 579948 5.22848e+06 0 588030 5.24019e+06 0 596498 5.25194e+06 0 605363 5.26372e+06 0 614635 5.27549e+06 0 624326 5.28722e+06 0 634453 5.29889e+06 0 645051 5.31048e+06 0 656191 5.32198e+06 0 668012 5.33339e+06 0 361339 4.5091e+06 0 362116 4.51207e+06 0 362902 4.51507e+06 0 363697 4.51809e+06 0 364502 4.52113e+06 0 365316 4.52421e+06 0 366140 4.5273e+06 0 366973 4.53043e+06 0 367817 4.53358e+06 0 368671 4.53676e+06 0 369535 4.53997e+06 0 370410 4.54321e+06 0 371295 4.54647e+06 0 372191 4.54976e+06 0 373099 4.55309e+06 0 374018 4.55644e+06 0 374948 4.55982e+06 0 375891 4.56323e+06 0 376845 4.56667e+06 0 377812 4.57015e+06 0 378791 4.57365e+06 0 379784 4.57719e+06 0 380789 4.58076e+06 0 381807 4.58436e+06 0 382839 4.58799e+06 0 383885 4.59166e+06 0 384946 4.59537e+06 0 386020 4.5991e+06 0 387110 4.60287e+06 0 388214 4.60668e+06 0 389334 4.61052e+06 0 390470 4.6144e+06 0 391621 4.61832e+06 0 392790 4.62227e+06 0 393975 4.62627e+06 0 395177 4.6303e+06 0 396397 4.63436e+06 0 397635 4.63847e+06 0 398891 4.64262e+06 0 400167 4.64681e+06 0 401461 4.65104e+06 0 402775 4.65532e+06 0 404110 4.65963e+06 0 405465 4.66399e+06 0 406842 4.66839e+06 0 408240 4.67284e+06 0 409661 4.67733e+06 0 411105 4.68187e+06 0 412572 4.68646e+06 0 414063 4.69109e+06 0 415579 4.69577e+06 0 417120 4.7005e+06 0 418687 4.70528e+06 0 420282 4.71011e+06 0 421903 4.71499e+06 0 423553 4.71992e+06 0 425232 4.72491e+06 0 426941 4.72995e+06 0 428681 4.73504e+06 0 430452 4.74019e+06 0 432256 4.7454e+06 0 434093 4.75066e+06 0 435965 4.75598e+06 0 437872 4.76137e+06 0 439816 4.76681e+06 0 441798 4.77231e+06 0 443818 4.77787e+06 0 445879 4.7835e+06 0 447981 4.7892e+06 0 450127 4.79495e+06 0 452316 4.80078e+06 0 454551 4.80667e+06 0 456834 4.81263e+06 0 459165 4.81867e+06 0 461547 4.82477e+06 0 463981 4.83095e+06 0 466470 4.8372e+06 0 469014 4.84352e+06 0 471617 4.84992e+06 0 474281 4.8564e+06 0 477006 4.86296e+06 0 479797 4.8696e+06 0 482656 4.87632e+06 0 485584 4.88312e+06 0 488585 4.89001e+06 0 491662 4.89698e+06 0 494818 4.90404e+06 0 498056 4.91119e+06 0 501379 4.91843e+06 0 504791 4.92575e+06 0 508296 4.93317e+06 0 511898 4.94068e+06 0 515601 4.94829e+06 0 519408 4.95599e+06 0 523326 4.96379e+06 0 527359 4.97168e+06 0 531511 4.97968e+06 0 535789 4.98776e+06 0 540198 4.99595e+06 0 544744 5.00424e+06 0 549433 5.01262e+06 0 554272 5.0211e+06 0 559267 5.02968e+06 0 564426 5.03836e+06 0 569757 5.04713e+06 0 575266 5.05599e+06 0 580963 5.06495e+06 0 586854 5.07399e+06 0 592949 5.08311e+06 0 599256 5.09231e+06 0 605783 5.10159e+06 0 612540 5.11094e+06 0 619534 5.12034e+06 0 626775 5.1298e+06 0 634271 5.13931e+06 0 642029 5.14886e+06 0 650057 5.15842e+06 0 658362 5.16801e+06 0 666951 5.1776e+06 0 675831 5.18718e+06 0 685005 5.19673e+06 0 694478 5.20626e+06 0 704252 5.21573e+06 0 714326 5.22515e+06 0 724690 5.23448e+06 0 735322 5.24373e+06 0 746172 5.25286e+06 0 757141 5.26187e+06 0 379232 4.4952e+06 0 380187 4.49813e+06 0 381154 4.50108e+06 0 382132 4.50405e+06 0 383122 4.50705e+06 0 384124 4.51008e+06 0 385137 4.51313e+06 0 386163 4.51621e+06 0 387202 4.51931e+06 0 388253 4.52245e+06 0 389318 4.5256e+06 0 390395 4.52879e+06 0 391486 4.532e+06 0 392591 4.53525e+06 0 393710 4.53852e+06 0 394842 4.54182e+06 0 395990 4.54514e+06 0 397152 4.5485e+06 0 398330 4.55189e+06 0 399522 4.55531e+06 0 400731 4.55875e+06 0 401955 4.56223e+06 0 403196 4.56574e+06 0 404454 4.56929e+06 0 405728 4.57286e+06 0 407020 4.57647e+06 0 408330 4.58011e+06 0 409658 4.58378e+06 0 411004 4.58749e+06 0 412369 4.59123e+06 0 413753 4.595e+06 0 415157 4.59882e+06 0 416582 4.60266e+06 0 418026 4.60654e+06 0 419492 4.61046e+06 0 420979 4.61442e+06 0 422489 4.61841e+06 0 424020 4.62244e+06 0 425575 4.62651e+06 0 427153 4.63062e+06 0 428756 4.63477e+06 0 430383 4.63896e+06 0 432035 4.64319e+06 0 433713 4.64745e+06 0 435418 4.65177e+06 0 437149 4.65612e+06 0 438909 4.66052e+06 0 440696 4.66495e+06 0 442513 4.66944e+06 0 444360 4.67397e+06 0 446238 4.67854e+06 0 448147 4.68316e+06 0 450088 4.68782e+06 0 452062 4.69254e+06 0 454071 4.6973e+06 0 456114 4.7021e+06 0 458193 4.70696e+06 0 460309 4.71187e+06 0 462463 4.71683e+06 0 464656 4.72183e+06 0 466888 4.72689e+06 0 469162 4.73201e+06 0 471478 4.73717e+06 0 473838 4.74239e+06 0 476242 4.74767e+06 0 478692 4.753e+06 0 481190 4.75838e+06 0 483736 4.76383e+06 0 486333 4.76933e+06 0 488982 4.77489e+06 0 491684 4.7805e+06 0 494442 4.78618e+06 0 497256 4.79192e+06 0 500129 4.79772e+06 0 503062 4.80358e+06 0 506058 4.8095e+06 0 509118 4.81549e+06 0 512245 4.82154e+06 0 515441 4.82766e+06 0 518708 4.83384e+06 0 522049 4.84009e+06 0 525465 4.84641e+06 0 528960 4.85279e+06 0 532537 4.85924e+06 0 536197 4.86576e+06 0 539945 4.87234e+06 0 543783 4.879e+06 0 547714 4.88572e+06 0 551741 4.89252e+06 0 555869 4.89938e+06 0 560101 4.90632e+06 0 564439 4.91332e+06 0 568889 4.9204e+06 0 573454 4.92754e+06 0 578138 4.93475e+06 0 582946 4.94203e+06 0 587882 4.94937e+06 0 592951 4.95678e+06 0 598156 4.96426e+06 0 603504 4.9718e+06 0 608999 4.9794e+06 0 614645 4.98706e+06 0 620449 4.99478e+06 0 626415 5.00255e+06 0 632549 5.01037e+06 0 638855 5.01825e+06 0 645339 5.02616e+06 0 652007 5.03412e+06 0 658863 5.04211e+06 0 665913 5.05013e+06 0 673162 5.05818e+06 0 680614 5.06624e+06 0 688274 5.07432e+06 0 696146 5.08241e+06 0 704234 5.09049e+06 0 712543 5.09857e+06 0 721073 5.10662e+06 0 729829 5.11466e+06 0 738812 5.12266e+06 0 748023 5.13061e+06 0 757462 5.13852e+06 0 767130 5.14636e+06 0 777024 5.15413e+06 0 787146 5.16182e+06 0 797498 5.16942e+06 0 808089 5.17692e+06 0 818944 5.18431e+06 0 830115 5.19158e+06 0 395812 4.48075e+06 0 396936 4.48362e+06 0 398074 4.48651e+06 0 399225 4.48942e+06 0 400390 4.49236e+06 0 401569 4.49533e+06 0 402762 4.49832e+06 0 403971 4.50134e+06 0 405193 4.50438e+06 0 406431 4.50744e+06 0 407685 4.51054e+06 0 408954 4.51366e+06 0 410239 4.51681e+06 0 411540 4.51998e+06 0 412858 4.52318e+06 0 414193 4.52641e+06 0 415545 4.52967e+06 0 416914 4.53296e+06 0 418302 4.53627e+06 0 419707 4.53961e+06 0 421131 4.54299e+06 0 422575 4.54639e+06 0 424037 4.54982e+06 0 425519 4.55329e+06 0 427021 4.55678e+06 0 428544 4.5603e+06 0 430088 4.56386e+06 0 431653 4.56745e+06 0 433240 4.57107e+06 0 434849 4.57472e+06 0 436481 4.57841e+06 0 438136 4.58213e+06 0 439815 4.58588e+06 0 441518 4.58967e+06 0 443246 4.59349e+06 0 444999 4.59734e+06 0 446778 4.60124e+06 0 448583 4.60516e+06 0 450415 4.60913e+06 0 452275 4.61313e+06 0 454164 4.61716e+06 0 456081 4.62124e+06 0 458027 4.62535e+06 0 460004 4.6295e+06 0 462012 4.63369e+06 0 464051 4.63792e+06 0 466123 4.64219e+06 0 468228 4.64649e+06 0 470367 4.65084e+06 0 472541 4.65523e+06 0 474751 4.65966e+06 0 476997 4.66414e+06 0 479281 4.66865e+06 0 481602 4.67321e+06 0 483964 4.67781e+06 0 486366 4.68246e+06 0 488809 4.68715e+06 0 491294 4.69188e+06 0 493823 4.69666e+06 0 496397 4.70149e+06 0 499017 4.70636e+06 0 501684 4.71128e+06 0 504399 4.71624e+06 0 507164 4.72126e+06 0 509980 4.72632e+06 0 512848 4.73143e+06 0 515771 4.73659e+06 0 518748 4.7418e+06 0 521783 4.74705e+06 0 524876 4.75236e+06 0 528029 4.75772e+06 0 531244 4.76313e+06 0 534523 4.76859e+06 0 537867 4.77411e+06 0 541279 4.77967e+06 0 544760 4.78529e+06 0 548312 4.79096e+06 0 551938 4.79668e+06 0 555639 4.80245e+06 0 559419 4.80828e+06 0 563278 4.81416e+06 0 567220 4.82009e+06 0 571247 4.82608e+06 0 575362 4.83212e+06 0 579567 4.83821e+06 0 583865 4.84435e+06 0 588259 4.85054e+06 0 592751 4.85679e+06 0 597345 4.86309e+06 0 602043 4.86943e+06 0 606849 4.87583e+06 0 611766 4.88228e+06 0 616797 4.88877e+06 0 621945 4.89531e+06 0 627214 4.90189e+06 0 632607 4.90852e+06 0 638128 4.91519e+06 0 643781 4.9219e+06 0 649568 4.92865e+06 0 655493 4.93543e+06 0 661561 4.94224e+06 0 667774 4.94909e+06 0 674137 4.95597e+06 0 680652 4.96286e+06 0 687324 4.96978e+06 0 694156 4.97672e+06 0 701151 4.98367e+06 0 708313 4.99063e+06 0 715644 4.9976e+06 0 723147 5.00456e+06 0 730827 5.01152e+06 0 738684 5.01847e+06 0 746721 5.02541e+06 0 754942 5.03232e+06 0 763346 5.03921e+06 0 771937 5.04606e+06 0 780714 5.05287e+06 0 789680 5.05964e+06 0 798835 5.06636e+06 0 808180 5.07302e+06 0 817714 5.07961e+06 0 827439 5.08613e+06 0 837352 5.09258e+06 0 847453 5.09894e+06 0 857739 5.10521e+06 0 868201 5.11138e+06 0 878821 5.11745e+06 0 889565 5.12341e+06 0 411105 4.46586e+06 0 412388 4.46866e+06 0 413686 4.47148e+06 0 415000 4.47433e+06 0 416330 4.4772e+06 0 417675 4.48009e+06 0 419038 4.48301e+06 0 420416 4.48595e+06 0 421812 4.48891e+06 0 423225 4.4919e+06 0 424656 4.49492e+06 0 426104 4.49796e+06 0 427571 4.50103e+06 0 429056 4.50412e+06 0 430561 4.50724e+06 0 432084 4.51039e+06 0 433627 4.51356e+06 0 435190 4.51676e+06 0 436774 4.51999e+06 0 438378 4.52324e+06 0 440003 4.52652e+06 0 441650 4.52983e+06 0 443319 4.53317e+06 0 445010 4.53654e+06 0 446724 4.53994e+06 0 448462 4.54336e+06 0 450223 4.54682e+06 0 452008 4.5503e+06 0 453818 4.55382e+06 0 455654 4.55737e+06 0 457515 4.56094e+06 0 459402 4.56455e+06 0 461317 4.56819e+06 0 463258 4.57186e+06 0 465228 4.57557e+06 0 467226 4.5793e+06 0 469254 4.58307e+06 0 471311 4.58688e+06 0 473398 4.59071e+06 0 475517 4.59458e+06 0 477667 4.59848e+06 0 479850 4.60242e+06 0 482066 4.60639e+06 0 484316 4.6104e+06 0 486601 4.61445e+06 0 488921 4.61853e+06 0 491278 4.62264e+06 0 493671 4.62679e+06 0 496103 4.63098e+06 0 498573 4.63521e+06 0 501083 4.63947e+06 0 503634 4.64377e+06 0 506226 4.64811e+06 0 508861 4.65248e+06 0 511540 4.6569e+06 0 514263 4.66135e+06 0 517032 4.66585e+06 0 519848 4.67038e+06 0 522712 4.67495e+06 0 525625 4.67957e+06 0 528588 4.68422e+06 0 531603 4.68891e+06 0 534671 4.69365e+06 0 537793 4.69842e+06 0 540971 4.70324e+06 0 544206 4.7081e+06 0 547499 4.713e+06 0 550852 4.71794e+06 0 554267 4.72292e+06 0 557744 4.72795e+06 0 561287 4.73301e+06 0 564895 4.73812e+06 0 568572 4.74327e+06 0 572318 4.74846e+06 0 576136 4.7537e+06 0 580028 4.75897e+06 0 583995 4.76429e+06 0 588039 4.76965e+06 0 592163 4.77505e+06 0 596368 4.78049e+06 0 600657 4.78597e+06 0 605031 4.79149e+06 0 609493 4.79705e+06 0 614046 4.80265e+06 0 618691 4.80829e+06 0 623431 4.81396e+06 0 628268 4.81967e+06 0 633205 4.82542e+06 0 638244 4.8312e+06 0 643388 4.83702e+06 0 648640 4.84286e+06 0 654001 4.84874e+06 0 659475 4.85465e+06 0 665064 4.86058e+06 0 670771 4.86654e+06 0 676598 4.87253e+06 0 682549 4.87853e+06 0 688625 4.88456e+06 0 694831 4.8906e+06 0 701167 4.89666e+06 0 707637 4.90273e+06 0 714243 4.90881e+06 0 720988 4.9149e+06 0 727874 4.92099e+06 0 734904 4.92708e+06 0 742079 4.93317e+06 0 749402 4.93925e+06 0 756876 4.94532e+06 0 764500 4.95137e+06 0 772279 4.95741e+06 0 780213 4.96342e+06 0 788303 4.9694e+06 0 796550 4.97535e+06 0 804957 4.98126e+06 0 813523 4.98713e+06 0 822249 4.99296e+06 0 831135 4.99873e+06 0 840182 5.00445e+06 0 849390 5.0101e+06 0 858757 5.01569e+06 0 868283 5.0212e+06 0 877967 5.02664e+06 0 887807 5.03199e+06 0 897803 5.03726e+06 0 907952 5.04244e+06 0 918257 5.04751e+06 0 928725 5.05249e+06 0 939371 5.05735e+06 0 425147 4.45065e+06 0 426579 4.45337e+06 0 428027 4.45611e+06 0 429493 4.45888e+06 0 430977 4.46167e+06 0 432478 4.46448e+06 0 433997 4.46731e+06 0 435535 4.47016e+06 0 437092 4.47304e+06 0 438668 4.47595e+06 0 440264 4.47888e+06 0 441880 4.48183e+06 0 443515 4.4848e+06 0 445172 4.4878e+06 0 446849 4.49083e+06 0 448548 4.49388e+06 0 450268 4.49695e+06 0 452011 4.50006e+06 0 453776 4.50318e+06 0 455564 4.50634e+06 0 457375 4.50951e+06 0 459211 4.51272e+06 0 461070 4.51595e+06 0 462955 4.51921e+06 0 464864 4.5225e+06 0 466800 4.52581e+06 0 468761 4.52915e+06 0 470749 4.53252e+06 0 472765 4.53592e+06 0 474808 4.53934e+06 0 476880 4.5428e+06 0 478981 4.54628e+06 0 481111 4.54979e+06 0 483271 4.55334e+06 0 485462 4.55691e+06 0 487684 4.56051e+06 0 489938 4.56414e+06 0 492225 4.5678e+06 0 494545 4.57149e+06 0 496899 4.57521e+06 0 499287 4.57897e+06 0 501711 4.58275e+06 0 504172 4.58657e+06 0 506669 4.59042e+06 0 509204 4.59429e+06 0 511777 4.59821e+06 0 514390 4.60215e+06 0 517043 4.60613e+06 0 519737 4.61014e+06 0 522473 4.61418e+06 0 525252 4.61825e+06 0 528075 4.62236e+06 0 530942 4.6265e+06 0 533856 4.63068e+06 0 536816 4.63489e+06 0 539824 4.63913e+06 0 542882 4.64341e+06 0 545989 4.64772e+06 0 549147 4.65207e+06 0 552358 4.65645e+06 0 555623 4.66086e+06 0 558942 4.66531e+06 0 562318 4.66979e+06 0 565750 4.67431e+06 0 569242 4.67886e+06 0 572793 4.68344e+06 0 576406 4.68806e+06 0 580082 4.69272e+06 0 583822 4.6974e+06 0 587628 4.70213e+06 0 591501 4.70688e+06 0 595443 4.71167e+06 0 599456 4.71649e+06 0 603541 4.72135e+06 0 607699 4.72623e+06 0 611933 4.73115e+06 0 616244 4.7361e+06 0 620635 4.74108e+06 0 625106 4.74609e+06 0 629660 4.75113e+06 0 634298 4.75621e+06 0 639023 4.7613e+06 0 643836 4.76643e+06 0 648739 4.77158e+06 0 653735 4.77676e+06 0 658825 4.78197e+06 0 664011 4.78719e+06 0 669296 4.79244e+06 0 674681 4.79771e+06 0 680168 4.803e+06 0 685760 4.80831e+06 0 691459 4.81363e+06 0 697266 4.81897e+06 0 703184 4.82432e+06 0 709215 4.82968e+06 0 715361 4.83505e+06 0 721623 4.84043e+06 0 728004 4.84581e+06 0 734506 4.8512e+06 0 741131 4.85658e+06 0 747879 4.86196e+06 0 754754 4.86733e+06 0 761757 4.8727e+06 0 768889 4.87805e+06 0 776153 4.88339e+06 0 783548 4.88871e+06 0 791078 4.89401e+06 0 798742 4.89929e+06 0 806542 4.90453e+06 0 814480 4.90975e+06 0 822555 4.91493e+06 0 830768 4.92006e+06 0 839120 4.92516e+06 0 847612 4.93021e+06 0 856243 4.9352e+06 0 865014 4.94015e+06 0 873924 4.94503e+06 0 882973 4.94984e+06 0 892160 4.95459e+06 0 901486 4.95927e+06 0 910948 4.96387e+06 0 920547 4.9684e+06 0 930281 4.97284e+06 0 940149 4.97719e+06 0 950149 4.98144e+06 0 960278 4.98561e+06 0 970529 4.98967e+06 0 980888 4.99363e+06 0 437984 4.43521e+06 0 439553 4.43785e+06 0 441141 4.4405e+06 0 442748 4.44318e+06 0 444375 4.44588e+06 0 446020 4.4486e+06 0 447686 4.45134e+06 0 449371 4.4541e+06 0 451078 4.45689e+06 0 452805 4.45969e+06 0 454553 4.46252e+06 0 456323 4.46538e+06 0 458115 4.46825e+06 0 459930 4.47115e+06 0 461767 4.47407e+06 0 463627 4.47702e+06 0 465511 4.47999e+06 0 467419 4.48298e+06 0 469352 4.486e+06 0 471309 4.48904e+06 0 473292 4.49211e+06 0 475300 4.4952e+06 0 477335 4.49831e+06 0 479396 4.50145e+06 0 481485 4.50462e+06 0 483602 4.50781e+06 0 485747 4.51102e+06 0 487921 4.51426e+06 0 490124 4.51753e+06 0 492357 4.52082e+06 0 494620 4.52414e+06 0 496915 4.52749e+06 0 499242 4.53086e+06 0 501600 4.53426e+06 0 503992 4.53769e+06 0 506417 4.54114e+06 0 508876 4.54462e+06 0 511371 4.54813e+06 0 513901 4.55167e+06 0 516467 4.55523e+06 0 519070 4.55882e+06 0 521711 4.56244e+06 0 524391 4.56608e+06 0 527110 4.56976e+06 0 529869 4.57346e+06 0 532669 4.57719e+06 0 535510 4.58095e+06 0 538394 4.58474e+06 0 541322 4.58856e+06 0 544294 4.59241e+06 0 547312 4.59628e+06 0 550375 4.60018e+06 0 553486 4.60412e+06 0 556645 4.60808e+06 0 559853 4.61207e+06 0 563112 4.61609e+06 0 566421 4.62013e+06 0 569783 4.62421e+06 0 573199 4.62831e+06 0 576669 4.63245e+06 0 580195 4.63661e+06 0 583777 4.6408e+06 0 587418 4.64502e+06 0 591118 4.64926e+06 0 594878 4.65354e+06 0 598701 4.65784e+06 0 602586 4.66217e+06 0 606536 4.66653e+06 0 610552 4.67091e+06 0 614635 4.67532e+06 0 618787 4.67975e+06 0 623009 4.68421e+06 0 627302 4.6887e+06 0 631668 4.69321e+06 0 636109 4.69774e+06 0 640625 4.7023e+06 0 645219 4.70688e+06 0 649892 4.71148e+06 0 654646 4.7161e+06 0 659483 4.72074e+06 0 664403 4.72541e+06 0 669408 4.73008e+06 0 674501 4.73478e+06 0 679682 4.7395e+06 0 684954 4.74422e+06 0 690318 4.74897e+06 0 695776 4.75372e+06 0 701330 4.75849e+06 0 706980 4.76326e+06 0 712729 4.76805e+06 0 718579 4.77284e+06 0 724530 4.77763e+06 0 730586 4.78243e+06 0 736746 4.78723e+06 0 743013 4.79202e+06 0 749389 4.79682e+06 0 755874 4.80161e+06 0 762470 4.80639e+06 0 769179 4.81116e+06 0 776002 4.81592e+06 0 782940 4.82067e+06 0 789994 4.8254e+06 0 797166 4.8301e+06 0 804456 4.83479e+06 0 811866 4.83945e+06 0 819396 4.84408e+06 0 827047 4.84868e+06 0 834820 4.85325e+06 0 842716 4.85777e+06 0 850734 4.86226e+06 0 858875 4.8667e+06 0 867139 4.8711e+06 0 875527 4.87544e+06 0 884039 4.87973e+06 0 892673 4.88397e+06 0 901431 4.88814e+06 0 910310 4.89225e+06 0 919312 4.89629e+06 0 928435 4.90026e+06 0 937678 4.90415e+06 0 947041 4.90797e+06 0 956521 4.9117e+06 0 966118 4.91535e+06 0 975830 4.91891e+06 0 985656 4.92238e+06 0 995595 4.92576e+06 0 1.00565e+06 4.92904e+06 0 1.01582e+06 4.93222e+06 0 449664 4.41963e+06 0 451361 4.42218e+06 0 453078 4.42474e+06 0 454816 4.42732e+06 0 456574 4.42992e+06 0 458353 4.43254e+06 0 460153 4.43519e+06 0 461975 4.43785e+06 0 463819 4.44053e+06 0 465685 4.44324e+06 0 467574 4.44596e+06 0 469487 4.44871e+06 0 471422 4.45148e+06 0 473382 4.45427e+06 0 475366 4.45708e+06 0 477375 4.45991e+06 0 479409 4.46277e+06 0 481469 4.46565e+06 0 483554 4.46855e+06 0 485667 4.47147e+06 0 487806 4.47441e+06 0 489973 4.47738e+06 0 492167 4.48037e+06 0 494391 4.48339e+06 0 496643 4.48642e+06 0 498925 4.48948e+06 0 501236 4.49256e+06 0 503579 4.49567e+06 0 505952 4.4988e+06 0 508357 4.50195e+06 0 510795 4.50513e+06 0 513265 4.50833e+06 0 515769 4.51155e+06 0 518307 4.5148e+06 0 520880 4.51808e+06 0 523488 4.52137e+06 0 526132 4.52469e+06 0 528813 4.52804e+06 0 531531 4.53141e+06 0 534288 4.53481e+06 0 537083 4.53822e+06 0 539918 4.54167e+06 0 542793 4.54514e+06 0 545709 4.54863e+06 0 548668 4.55215e+06 0 551669 4.55569e+06 0 554713 4.55926e+06 0 557802 4.56285e+06 0 560936 4.56647e+06 0 564116 4.57011e+06 0 567344 4.57377e+06 0 570619 4.57746e+06 0 573943 4.58118e+06 0 577316 4.58492e+06 0 580741 4.58868e+06 0 584217 4.59246e+06 0 587746 4.59628e+06 0 591329 4.60011e+06 0 594967 4.60397e+06 0 598660 4.60785e+06 0 602410 4.61175e+06 0 606219 4.61568e+06 0 610087 4.61963e+06 0 614015 4.6236e+06 0 618004 4.62759e+06 0 622056 4.6316e+06 0 626172 4.63564e+06 0 630354 4.63969e+06 0 634601 4.64377e+06 0 638916 4.64786e+06 0 643300 4.65198e+06 0 647754 4.65611e+06 0 652279 4.66026e+06 0 656877 4.66443e+06 0 661549 4.66861e+06 0 666297 4.67281e+06 0 671121 4.67702e+06 0 676024 4.68125e+06 0 681005 4.68549e+06 0 686068 4.68974e+06 0 691213 4.694e+06 0 696441 4.69827e+06 0 701754 4.70255e+06 0 707154 4.70684e+06 0 712641 4.71113e+06 0 718218 4.71543e+06 0 723884 4.71973e+06 0 729643 4.72404e+06 0 735494 4.72834e+06 0 741440 4.73264e+06 0 747482 4.73694e+06 0 753620 4.74124e+06 0 759857 4.74553e+06 0 766192 4.74981e+06 0 772629 4.75408e+06 0 779167 4.75834e+06 0 785807 4.76258e+06 0 792552 4.76681e+06 0 799400 4.77101e+06 0 806355 4.7752e+06 0 813416 4.77936e+06 0 820584 4.7835e+06 0 827860 4.78761e+06 0 835245 4.79169e+06 0 842739 4.79574e+06 0 850342 4.79975e+06 0 858055 4.80372e+06 0 865879 4.80765e+06 0 873813 4.81153e+06 0 881858 4.81537e+06 0 890013 4.81916e+06 0 898279 4.82289e+06 0 906655 4.82657e+06 0 915141 4.83019e+06 0 923737 4.83375e+06 0 932442 4.83725e+06 0 941255 4.84068e+06 0 950177 4.84403e+06 0 959205 4.84732e+06 0 968339 4.85052e+06 0 977578 4.85365e+06 0 986921 4.8567e+06 0 996366 4.85966e+06 0 1.00591e+06 4.86254e+06 0 1.01556e+06 4.86533e+06 0 1.0253e+06 4.86802e+06 0 1.03514e+06 4.87062e+06 0 1.04507e+06 4.87312e+06 0 460239 4.40399e+06 0 462054 4.40643e+06 0 463890 4.40889e+06 0 465748 4.41138e+06 0 467627 4.41388e+06 0 469529 4.4164e+06 0 471453 4.41894e+06 0 473401 4.42149e+06 0 475371 4.42407e+06 0 477365 4.42667e+06 0 479383 4.42928e+06 0 481426 4.43192e+06 0 483493 4.43458e+06 0 485586 4.43725e+06 0 487704 4.43995e+06 0 489849 4.44267e+06 0 492020 4.4454e+06 0 494218 4.44816e+06 0 496444 4.45093e+06 0 498697 4.45373e+06 0 500979 4.45655e+06 0 503290 4.45939e+06 0 505630 4.46225e+06 0 508000 4.46513e+06 0 510400 4.46803e+06 0 512831 4.47095e+06 0 515294 4.4739e+06 0 517789 4.47686e+06 0 520316 4.47985e+06 0 522877 4.48285e+06 0 525471 4.48588e+06 0 528099 4.48893e+06 0 530763 4.492e+06 0 533462 4.49509e+06 0 536197 4.49821e+06 0 538969 4.50134e+06 0 541778 4.5045e+06 0 544626 4.50768e+06 0 547512 4.51088e+06 0 550438 4.5141e+06 0 553404 4.51734e+06 0 556411 4.5206e+06 0 559460 4.52389e+06 0 562551 4.52719e+06 0 565686 4.53052e+06 0 568864 4.53387e+06 0 572088 4.53724e+06 0 575356 4.54063e+06 0 578672 4.54404e+06 0 582034 4.54747e+06 0 585445 4.55092e+06 0 588905 4.55439e+06 0 592414 4.55789e+06 0 595974 4.5614e+06 0 599587 4.56493e+06 0 603251 4.56848e+06 0 606969 4.57205e+06 0 610742 4.57564e+06 0 614571 4.57925e+06 0 618455 4.58288e+06 0 622398 4.58652e+06 0 626399 4.59018e+06 0 630459 4.59386e+06 0 634580 4.59756e+06 0 638763 4.60127e+06 0 643009 4.60499e+06 0 647318 4.60874e+06 0 651692 4.61249e+06 0 656133 4.61626e+06 0 660640 4.62005e+06 0 665216 4.62384e+06 0 669862 4.62765e+06 0 674578 4.63147e+06 0 679365 4.6353e+06 0 684226 4.63914e+06 0 689160 4.64299e+06 0 694170 4.64684e+06 0 699256 4.6507e+06 0 704420 4.65457e+06 0 709662 4.65845e+06 0 714984 4.66232e+06 0 720387 4.6662e+06 0 725872 4.67008e+06 0 731441 4.67396e+06 0 737094 4.67784e+06 0 742832 4.68171e+06 0 748657 4.68558e+06 0 754570 4.68945e+06 0 760571 4.69331e+06 0 766662 4.69716e+06 0 772843 4.701e+06 0 779116 4.70482e+06 0 785482 4.70864e+06 0 791941 4.71243e+06 0 798495 4.71621e+06 0 805143 4.71997e+06 0 811888 4.72371e+06 0 818729 4.72742e+06 0 825667 4.73111e+06 0 832703 4.73477e+06 0 839838 4.7384e+06 0 847071 4.742e+06 0 854403 4.74557e+06 0 861835 4.74909e+06 0 869367 4.75258e+06 0 876999 4.75603e+06 0 884732 4.75943e+06 0 892564 4.76278e+06 0 900497 4.76609e+06 0 908529 4.76935e+06 0 916662 4.77255e+06 0 924894 4.77569e+06 0 933225 4.77878e+06 0 941655 4.7818e+06 0 950184 4.78476e+06 0 958809 4.78765e+06 0 967532 4.79048e+06 0 976350 4.79323e+06 0 985264 4.79591e+06 0 994271 4.79851e+06 0 1.00337e+06 4.80103e+06 0 1.01256e+06 4.80347e+06 0 1.02185e+06 4.80583e+06 0 1.03122e+06 4.8081e+06 0 1.04068e+06 4.81028e+06 0 1.05022e+06 4.81237e+06 0 1.05985e+06 4.81436e+06 0 1.06957e+06 4.81626e+06 0 469763 4.38834e+06 0 471687 4.39068e+06 0 473632 4.39304e+06 0 475600 4.39542e+06 0 477591 4.39782e+06 0 479606 4.40023e+06 0 481644 4.40266e+06 0 483705 4.40511e+06 0 485792 4.40758e+06 0 487903 4.41006e+06 0 490039 4.41256e+06 0 492201 4.41509e+06 0 494388 4.41763e+06 