<?xml version="1.0"?> 
<VTKFile type="StructuredGrid" version="0.1"> 
<StructuredGrid WholeExtent="0 127 0 127 0 0"> 
<Piece Extent="0 127 0 127 0 0"> 
<PointData>
<DataArray type="Float32" Name="|E|" format="ascii" NumberOfComponents="3"> 
3.0716e+06 -1.2723e+06 0 3.20302e+06 -1.06166e+06 0 3.25219e+06 -894470 0 3.27395e+06 -744559 0 3.27664e+06 -607975 0 3.26675e+06 -483657 0 3.24744e+06 -370163 0 3.22124e+06 -266496 0 3.18989e+06 -171745 0 3.15471e+06 -85085.9 0 3.11672e+06 -5793.98 0 3.07671e+06 66798.6 0 3.03531e+06 133288 0 2.993e+06 194220 0 2.95017e+06 250082 0 2.90712e+06 301320 0 2.8641e+06 348336 0 2.82129e+06 391491 0 2.77884e+06 431117 0 2.73687e+06 467508 0 2.69547e+06 500936 0 2.65471e+06 531645 0 2.61462e+06 559854 0 2.57526e+06 585766 0 2.53664e+06 609563 0 2.49878e+06 631411 0 2.46168e+06 651460 0 2.42535e+06 669848 0 2.38978e+06 686700 0 2.35497e+06 702131 0 2.32091e+06 716245 0 2.28757e+06 729138 0 2.25496e+06 740898 0 2.22306e+06 751604 0 2.19184e+06 761331 0 2.16129e+06 770145 0 2.1314e+06 778111 0 2.10214e+06 785284 0 2.0735e+06 791718 0 2.04546e+06 797462 0 2.01801e+06 802560 0 1.99113e+06 807055 0 1.96479e+06 810986 0 1.93899e+06 814387 0 1.91371e+06 817292 0 1.88893e+06 819732 0 1.86464e+06 821735 0 1.84082e+06 823329 0 1.81746e+06 824538 0 1.79455e+06 825386 0 1.77207e+06 825893 0 1.75001e+06 826080 0 1.72835e+06 825966 0 1.70709e+06 825568 0 1.68622e+06 824903 0 1.66572e+06 823987 0 1.64558e+06 822834 0 1.62579e+06 821456 0 1.60635e+06 819869 0 1.58724e+06 818082 0 1.56845e+06 816108 0 1.54998e+06 813956 0 1.53182e+06 811638 0 1.51396e+06 809162 0 1.49638e+06 806538 0 1.4791e+06 803773 0 1.46208e+06 800875 0 1.44534e+06 797853 0 1.42886e+06 794712 0 1.41264e+06 791460 0 1.39667e+06 788104 0 1.38094e+06 784647 0 1.36546e+06 781098 0 1.3502e+06 777460 0 1.33518e+06 773739 0 1.32037e+06 769940 0 1.30579e+06 766067 0 1.29142e+06 762125 0 1.27726e+06 758117 0 1.2633e+06 754048 0 1.24954e+06 749921 0 1.23598e+06 745740 0 1.22261e+06 741508 0 1.20942e+06 737228 0 1.19643e+06 732904 0 1.18361e+06 728537 0 1.17097e+06 724132 0 1.1585e+06 719689 0 1.14621e+06 715213 0 1.13408e+06 710705 0 1.12211e+06 706168 0 1.11031e+06 701603 0 1.09867e+06 697013 0 1.08718e+06 692400 0 1.07584e+06 687765 0 1.06466e+06 683110 0 1.05362e+06 678437 0 1.04273e+06 673748 0 1.03198e+06 669044 0 1.02137e+06 664326 0 1.0109e+06 659596 0 1.00057e+06 654855 0 990367 650105 0 980298 645347 0 970360 640581 0 960549 635809 0 950865 631032 0 941304 626251 0 931866 621467 0 922548 616681 0 913349 611893 0 904267 607105 0 895300 602317 0 886447 597530 0 877707 592744 0 869076 587961 0 860555 583181 0 852142 578404 0 843835 573631 0 835633 568864 0 827534 564101 0 819537 559344 0 811641 554593 0 803845 549849 0 796147 545111 0 788546 540381 0 781040 535659 0 773630 530945 0 3.129e+06 -1.26979e+06 0 3.23484e+06 -1.05581e+06 0 3.2788e+06 -884714 0 3.29631e+06 -732683 0 3.29593e+06 -594933 0 3.28343e+06 -469912 0 3.26192e+06 -356031 0 3.23383e+06 -252206 0 3.20082e+06 -157447 0 3.16418e+06 -70894.9 0 3.12492e+06 8211.23 0 3.08378e+06 80559.7 0 3.04137e+06 146766 0 2.99816e+06 207385 0 2.95454e+06 262919 0 2.91078e+06 313818 0 2.86712e+06 360490 0 2.82374e+06 403302 0 2.78078e+06 442587 0 2.73835e+06 478643 0 2.69654e+06 511743 0 2.6554e+06 542132 0 2.61498e+06 570031 0 2.57531e+06 595643 0 2.53642e+06 619149 0 2.49831e+06 640717 0 2.46099e+06 660496 0 2.42445e+06 678625 0 2.3887e+06 695228 0 2.35372e+06 710420 0 2.3195e+06 724304 0 2.28603e+06 736977 0 2.2533e+06 748525 0 2.22127e+06 759028 0 2.18995e+06 768561 0 2.15931e+06 777189 0 2.12933e+06 784976 0 2.09999e+06 791978 0 2.07128e+06 798248 0 2.04318e+06 803835 0 2.01567e+06 808782 0 1.98873e+06 813132 0 1.96235e+06 816924 0 1.9365e+06 820191 0 1.91118e+06 822968 0 1.88637e+06 825286 0 1.86204e+06 827171 0 1.8382e+06 828652 0 1.81481e+06 829752 0 1.79188e+06 830495 0 1.76937e+06 830901 0 1.74729e+06 830992 0 1.72562e+06 830785 0 1.70435e+06 830298 0 1.68347e+06 829547 0 1.66295e+06 828547 0 1.64281e+06 827314 0 1.62301e+06 825860 0 1.60357e+06 824198 0 1.58445e+06 822340 0 1.56566e+06 820297 0 1.54719e+06 818079 0 1.52903e+06 815697 0 1.51117e+06 813159 0 1.49359e+06 810475 0 1.47631e+06 807653 0 1.4593e+06 804700 0 1.44256e+06 801624 0 1.42609e+06 798431 0 1.40987e+06 795129 0 1.39391e+06 791724 0 1.37819e+06 788221 0 1.36271e+06 784626 0 1.34746e+06 780944 0 1.33245e+06 777181 0 1.31765e+06 773341 0 1.30308e+06 769428 0 1.28872e+06 765448 0 1.27457e+06 761403 0 1.26062e+06 757297 0 1.24687e+06 753135 0 1.23332e+06 748920 0 1.21996e+06 744655 0 1.20679e+06 740343 0 1.19381e+06 735988 0 1.181e+06 731591 0 1.16838e+06 727157 0 1.15593e+06 722686 0 1.14364e+06 718182 0 1.13153e+06 713648 0 1.11958e+06 709084 0 1.10779e+06 704494 0 1.09616e+06 699880 0 1.08469e+06 695242 0 1.07337e+06 690584 0 1.0622e+06 685907 0 1.05117e+06 681212 0 1.0403e+06 676501 0 1.02956e+06 671776 0 1.01897e+06 667038 0 1.00852e+06 662289 0 998198 657529 0 988014 652760 0 977961 647983 0 968039 643199 0 958244 638410 0 948575 633616 0 939031 628818 0 929608 624018 0 920306 619216 0 911123 614413 0 902057 609610 0 893106 604807 0 884269 600005 0 875544 595206 0 866930 590409 0 858425 585615 0 850028 580825 0 841736 576040 0 833550 571260 0 825466 566485 0 817485 561715 0 809605 556953 0 801824 552197 0 794141 547448 0 786555 542707 0 779065 537974 0 771669 533249 0 3.18058e+06 -1.26411e+06 0 3.26708e+06 -1.04836e+06 0 3.30535e+06 -874160 0 3.31866e+06 -720272 0 3.31517e+06 -581489 0 3.30004e+06 -455846 0 3.27633e+06 -341644 0 3.24633e+06 -237703 0 3.21166e+06 -142973 0 3.17358e+06 -56556.4 0 3.13303e+06 22340 0 3.09076e+06 94424.9 0 3.04735e+06 160331 0 3.00326e+06 220625 0 2.95884e+06 275819 0 2.91437e+06 326369 0 2.87008e+06 372689 0 2.82613e+06 415151 0 2.78267e+06 454089 0 2.73978e+06 489806 0 2.69756e+06 522573 0 2.65605e+06 552639 0 2.6153e+06 580225 0 2.57533e+06 605533 0 2.53617e+06 628748 0 2.49781e+06 650033 0 2.46026e+06 669542 0 2.42353e+06 687410 0 2.38759e+06 703763 0 2.35245e+06 718714 0 2.31808e+06 732368 0 2.28447e+06 744820 0 2.25161e+06 756156 0 2.21948e+06 766456 0 2.18805e+06 775794 0 2.15731e+06 784236 0 2.12725e+06 791844 0 2.09784e+06 798675 0 2.06906e+06 804781 0 2.04089e+06 810210 0 2.01332e+06 815006 0 1.98633e+06 819212 0 1.9599e+06 822864 0 1.93401e+06 825999 0 1.90865e+06 828648 0 1.8838e+06 830842 0 1.85944e+06 832610 0 1.83557e+06 833977 0 1.81216e+06 834969 0 1.7892e+06 835607 0 1.76668e+06 835913 0 1.74458e+06 835907 0 1.72289e+06 835607 0 1.70161e+06 835030 0 1.68071e+06 834193 0 1.66019e+06 833111 0 1.64003e+06 831798 0 1.62023e+06 830267 0 1.60078e+06 828531 0 1.58166e+06 826602 0 1.56287e+06 824490 0 1.5444e+06 822206 0 1.52623e+06 819759 0 1.50837e+06 817160 0 1.4908e+06 814416 0 1.47352e+06 811536 0 1.45652e+06 808527 0 1.43978e+06 805398 0 1.42331e+06 802153 0 1.4071e+06 798801 0 1.39115e+06 795347 0 1.37543e+06 791797 0 1.35996e+06 788157 0 1.34472e+06 784432 0 1.32972e+06 780626 0 1.31493e+06 776745 0 1.30037e+06 772792 0 1.28602e+06 768773 0 1.27188e+06 764690 0 1.25794e+06 760549 0 1.2442e+06 756352 0 1.23066e+06 752103 0 1.21732e+06 747805 0 1.20416e+06 743461 0 1.19119e+06 739074 0 1.1784e+06 734647 0 1.16578e+06 730183 0 1.15334e+06 725684 0 1.14108e+06 721153 0 1.12898e+06 716591 0 1.11704e+06 712002 0 1.10527e+06 707387 0 1.09365e+06 702747 0 1.08219e+06 698086 0 1.07089e+06 693404 0 1.05973e+06 688704 0 1.04872e+06 683987 0 1.03786e+06 679255 0 1.02714e+06 674509 0 1.01657e+06 669751 0 1.00613e+06 664981 0 995824 660202 0 985655 655414 0 975618 650618 0 965711 645817 0 955932 641010 0 946279 636199 0 936750 631385 0 927344 626568 0 918058 621750 0 908890 616931 0 899840 612113 0 890905 607295 0 882084 602479 0 873375 597665 0 864776 592855 0 856286 588047 0 847904 583244 0 839629 578446 0 831458 573653 0 823390 568865 0 815424 564084 0 807559 559309 0 799793 554542 0 792125 549782 0 784555 545029 0 777079 540285 0 769699 535550 0 3.22815e+06 -1.25611e+06 0 3.29941e+06 -1.03951e+06 0 3.33182e+06 -862831 0 3.34096e+06 -707340 0 3.33433e+06 -567648 0 3.31657e+06 -441464 0 3.29065e+06 -327002 0 3.25875e+06 -222991 0 3.22242e+06 -128325 0 3.18288e+06 -42072.5 0 3.14106e+06 36590.7 0 3.09767e+06 108393 0 3.05326e+06 173982 0 3.00828e+06 233939 0 2.96307e+06 288780 0 2.9179e+06 338973 0 2.87298e+06 384933 0 2.82847e+06 427038 0 2.7845e+06 465624 0 2.74117e+06 500995 0 2.69854e+06 533427 0 2.65666e+06 563165 0 2.61558e+06 590435 0 2.57531e+06 615438 0 2.53588e+06 638358 0 2.49728e+06 659360 0 2.45952e+06 678596 0 2.42258e+06 696202 0 2.38646e+06 712303 0 2.35116e+06 727014 0 2.31664e+06 740437 0 2.2829e+06 752667 0 2.24991e+06 763791 0 2.21766e+06 773888 0 2.18614e+06 783031 0 2.15531e+06 791286 0 2.12516e+06 798715 0 2.09567e+06 805375 0 2.06682e+06 811316 0 2.03859e+06 816588 0 2.01096e+06 821233 0 1.98392e+06 825294 0 1.95744e+06 828807 0 1.93151e+06 831808 0 1.90611e+06 834330 0 1.88123e+06 836401 0 1.85684e+06 838051 0 1.83294e+06 839306 0 1.8095e+06 840188 0 1.78652e+06 840722 0 1.76398e+06 840927 0 1.74186e+06 840825 0 1.72016e+06 840432 0 1.69886e+06 839766 0 1.67795e+06 838843 0 1.65742e+06 837678 0 1.63726e+06 836285 0 1.61745e+06 834677 0 1.59799e+06 832867 0 1.57887e+06 830866 0 1.56008e+06 828686 0 1.5416e+06 826335 0 1.52344e+06 823825 0 1.50558e+06 821164 0 1.48801e+06 818360 0 1.47073e+06 815423 0 1.45373e+06 812358 0 1.437e+06 809175 0 1.42054e+06 805879 0 1.40433e+06 802476 0 1.38838e+06 798974 0 1.37268e+06 795377 0 1.35721e+06 791691 0 1.34198e+06 787922 0 1.32698e+06 784074 0 1.31221e+06 780151 0 1.29765e+06 776159 0 1.28331e+06 772101 0 1.26918e+06 767981 0 1.25526e+06 763803 0 1.24153e+06 759571 0 1.22801e+06 755288 0 1.21467e+06 750956 0 1.20153e+06 746581 0 1.18857e+06 742163 0 1.17579e+06 737706 0 1.16319e+06 733212 0 1.15076e+06 728685 0 1.13851e+06 724125 0 1.12642e+06 719537 0 1.1145e+06 714921 0 1.10274e+06 710280 0 1.09114e+06 705616 0 1.07969e+06 700931 0 1.0684e+06 696226 0 1.05726e+06 691503 0 1.04627e+06 686763 0 1.03542e+06 682010 0 1.02472e+06 677242 0 1.01416e+06 672463 0 1.00373e+06 667674 0 993444 662875 0 983291 658068 0 973269 653254 0 963378 648434 0 953614 643610 0 943977 638781 0 934464 633950 0 925073 629117 0 915802 624283 0 906650 619448 0 897615 614615 0 888696 609782 0 879890 604951 0 871197 600123 0 862613 595298 0 854139 590477 0 845773 585661 0 837512 580849 0 829357 576043 0 821304 571243 0 813353 566449 0 805503 561663 0 797753 556883 0 790100 552112 0 782544 547348 0 775084 542593 0 767717 537846 0 3.27286e+06 -1.24634e+06 0 3.33164e+06 -1.02943e+06 0 3.35818e+06 -850761 0 3.3632e+06 -693899 0 3.3534e+06 -553416 0 3.33302e+06 -426773 0 3.30489e+06 -312109 0 3.27107e+06 -208071 0 3.23309e+06 -113506 0 3.19211e+06 -27445.2 0 3.14901e+06 50961.7 0 3.10449e+06 122462 0 3.05909e+06 187719 0 3.01323e+06 247324 0 2.96723e+06 301803 0 2.92137e+06 351628 0 2.87582e+06 397221 0 2.83076e+06 438962 0 2.78629e+06 477190 0 2.7425e+06 512212 0 2.69947e+06 544303 0 2.65723e+06 573711 0 2.61582e+06 600662 0 2.57526e+06 625357 0 2.53556e+06 647980 0 2.49672e+06 668697 0 2.45874e+06 687658 0 2.42161e+06 705002 0 2.38531e+06 720851 0 2.34984e+06 735319 0 2.31518e+06 748510 0 2.2813e+06 760518 0 2.24819e+06 771430 0 2.21584e+06 781323 0 2.18421e+06 790271 0 2.15329e+06 798339 0 2.12306e+06 805589 0 2.09349e+06 812077 0 2.06457e+06 817854 0 2.03628e+06 822968 0 2.0086e+06 827462 0 1.9815e+06 831378 0 1.95498e+06 834753 0 1.92901e+06 837621 0 1.90357e+06 840014 0 1.87865e+06 841963 0 1.85423e+06 843495 0 1.8303e+06 844637 0 1.80684e+06 845410 0 1.78384e+06 845840 0 1.76128e+06 845945 0 1.73914e+06 845745 0 1.71743e+06 845260 0 1.69611e+06 844504 0 1.67519e+06 843495 0 1.65465e+06 842248 0 1.63448e+06 840775 0 1.61467e+06 839091 0 1.59521e+06 837207 0 1.57608e+06 835134 0 1.55729e+06 832885 0 1.53881e+06 830468 0 1.52065e+06 827894 0 1.50278e+06 825171 0 1.48522e+06 822308 0 1.46794e+06 819313 0 1.45094e+06 816193 0 1.43422e+06 812956 0 1.41776e+06 809607 0 1.40156e+06 806155 0 1.38562e+06 802604 0 1.36992e+06 798960 0 1.35446e+06 795229 0 1.33924e+06 791416 0 1.32425e+06 787525 0 1.30948e+06 783561 0 1.29494e+06 779529 0 1.28061e+06 775432 0 1.26649e+06 771274 0 1.25257e+06 767060 0 1.23886e+06 762793 0 1.22534e+06 758475 0 1.21202e+06 754111 0 1.19889e+06 749702 0 1.18594e+06 745253 0 1.17318e+06 740766 0 1.16059e+06 736243 0 1.14818e+06 731687 0 1.13593e+06 727099 0 1.12386e+06 722484 0 1.11195e+06 717842 0 1.10021e+06 713175 0 1.08862e+06 708486 0 1.07719e+06 703776 0 1.06591e+06 699048 0 1.05479e+06 694302 0 1.04381e+06 689540 0 1.03298e+06 684764 0 1.02229e+06 679976 0 1.01174e+06 675176 0 1.00133e+06 670366 0 991059 665548 0 980921 660722 0 970915 655889 0 961038 651051 0 951290 646208 0 941668 641363 0 932170 636515 0 922795 631665 0 913539 626814 0 904403 621964 0 895384 617115 0 886479 612267 0 877689 607421 0 869011 602579 0 860443 597740 0 851984 592905 0 843633 588075 0 835387 583250 0 827247 578431 0 819209 573618 0 811274 568812 0 803438 564013 0 795703 559221 0 788065 554438 0 780523 549663 0 773077 544896 0 765726 540138 0 3.31546e+06 -1.23515e+06 0 3.36364e+06 -1.01823e+06 0 3.38442e+06 -837982 0 3.38536e+06 -679961 0 3.37239e+06 -538798 0 3.34938e+06 -411776 0 3.31903e+06 -296968 0 3.2833e+06 -192947 0 3.24367e+06 -98517.1 0 3.20124e+06 -12676.3 0 3.15687e+06 65451.2 0 3.11124e+06 136631 0 3.06485e+06 201541 0 3.01811e+06 260780 0 2.97133e+06 314886 0 2.92477e+06 364334 0 2.87861e+06 409552 0 2.83299e+06 450922 0 2.78802e+06 488787 0 2.74379e+06 523454 0 2.70036e+06 555201 0 2.65776e+06 584276 0 2.61603e+06 610904 0 2.57518e+06 635289 0 2.53522e+06 657613 0 2.49614e+06 678043 0 2.45794e+06 696729 0 2.42061e+06 713808 0 2.38414e+06 729404 0 2.34851e+06 743630 0 2.3137e+06 756588 0 2.27969e+06 768374 0 2.24646e+06 779072 0 2.214e+06 788761 0 2.18227e+06 797513 0 2.15126e+06 805395 0 2.12095e+06 812466 0 2.09131e+06 818782 0 2.06232e+06 824394 0 2.03397e+06 829350 0 2.00623e+06 833694 0 1.97908e+06 837465 0 1.95251e+06 840701 0 1.9265e+06 843436 0 1.90102e+06 845701 0 1.87607e+06 847528 0 1.85162e+06 848942 0 1.82766e+06 849970 0 1.80418e+06 850636 0 1.78115e+06 850960 0 1.75857e+06 850965 0 1.73642e+06 850669 0 1.71469e+06 850091 0 1.69337e+06 849246 0 1.67243e+06 848151 0 1.65188e+06 846821 0 1.63171e+06 845269 0 1.61189e+06 843508 0 1.59242e+06 841549 0 1.57329e+06 839406 0 1.55449e+06 837088 0 1.53601e+06 834605 0 1.51785e+06 831966 0 1.49999e+06 829182 0 1.48243e+06 826259 0 1.46515e+06 823206 0 1.44816e+06 820031 0 1.43144e+06 816740 0 1.41498e+06 813339 0 1.39879e+06 809837 0 1.38285e+06 806237 0 1.36716e+06 802546 0 1.35171e+06 798770 0 1.3365e+06 794912 0 1.32152e+06 790978 0 1.30676e+06 786973 0 1.29222e+06 782901 0 1.2779e+06 778765 0 1.26379e+06 774570 0 1.24989e+06 770320 0 1.23619e+06 766017 0 1.22268e+06 761665 0 1.20937e+06 757267 0 1.19625e+06 752827 0 1.18331e+06 748346 0 1.17056e+06 743828 0 1.15799e+06 739275 0 1.14559e+06 734690 0 1.13336e+06 730075 0 1.1213e+06 725432 0 1.1094e+06 720764 0 1.09767e+06 716071 0 1.0861e+06 711357 0 1.07468e+06 706623 0 1.06342e+06 701871 0 1.05231e+06 697102 0 1.04134e+06 692318 0 1.03053e+06 687520 0 1.01985e+06 682710 0 1.00932e+06 677889 0 998927 673059 0 988669 668221 0 978546 663375 0 968554 658524 0 958693 653667 0 948960 648807 0 939353 643943 0 929870 639078 0 920510 634211 0 911270 629345 0 902149 624478 0 893144 619613 0 884255 614750 0 875480 609889 0 866817 605032 0 858264 600179 0 849820 595330 0 841484 590486 0 833254 585648 0 825128 580815 0 817105 575990 0 809184 571171 0 801364 566359 0 793643 561556 0 786019 556760 0 778492 551973 0 771061 547195 0 763724 542427 0 3.35643e+06 -1.22276e+06 0 3.39536e+06 -1.00603e+06 0 3.41051e+06 -824527 0 3.40742e+06 -665538 0 3.39127e+06 -523802 0 3.36564e+06 -396480 0 3.33307e+06 -281583 0 3.29544e+06 -177621 0 3.25415e+06 -83361.6 0 3.21028e+06 2232.07 0 3.16465e+06 80057.7 0 3.1179e+06 150898 0 3.07052e+06 215445 0 3.02291e+06 274307 0 2.97536e+06 328028 0 2.92811e+06 377090 0 2.88133e+06 421925 0 2.83516e+06 462918 0 2.78971e+06 500414 0 2.74504e+06 534722 0 2.70121e+06 566120 0 2.65826e+06 594859 0 2.6162e+06 621163 0 2.57506e+06 645234 0 2.53484e+06 667258 0 2.49552e+06 687399 0 2.45711e+06 705809 0 2.41959e+06 722622 0 2.38294e+06 737964 0 2.34715e+06 751946 0 2.3122e+06 764671 0 2.27806e+06 776234 0 2.24472e+06 786718 0 2.21214e+06 796203 0 2.18032e+06 804759 0 2.14922e+06 812453 0 2.11882e+06 819345 0 2.08911e+06 825489 0 2.06006e+06 830937 0 2.03164e+06 835736 0 2.00385e+06 839928 0 1.97665e+06 843554 0 1.95004e+06 846651 0 1.92398e+06 849253 0 1.89847e+06 851391 0 1.87348e+06 853095 0 1.84901e+06 854392 0 1.82502e+06 855307 0 1.80151e+06 855863 0 1.77846e+06 856084 0 1.75586e+06 855989 0 1.7337e+06 855596 0 1.71195e+06 854925 0 1.69062e+06 853991 0 1.66967e+06 852811 0 1.64911e+06 851397 0 1.62893e+06 849766 0 1.6091e+06 847928 0 1.58963e+06 845896 0 1.5705e+06 843681 0 1.5517e+06 841294 0 1.53322e+06 838745 0 1.51505e+06 836042 0 1.4972e+06 833196 0 1.47963e+06 830213 0 1.46236e+06 827103 0 1.44537e+06 823872 0 1.42865e+06 820527 0 1.41221e+06 817075 0 1.39602e+06 813522 0 1.38008e+06 809873 0 1.3644e+06 806135 0 1.34896e+06 802313 0 1.33375e+06 798412 0 1.31878e+06 794435 0 1.30403e+06 790389 0 1.2895e+06 786276 0 1.27519e+06 782102 0 1.26109e+06 777869 0 1.2472e+06 773582 0 1.23351e+06 769243 0 1.22002e+06 764857 0 1.20672e+06 760426 0 1.19361e+06 755953 0 1.18068e+06 751441 0 1.16794e+06 746892 0 1.15538e+06 742310 0 1.14299e+06 737696 0 1.13078e+06 733053 0 1.11873e+06 728382 0 1.10685e+06 723687 0 1.09513e+06 718969 0 1.08357e+06 714230 0 1.07217e+06 709471 0 1.06092e+06 704695 0 1.04983e+06 699902 0 1.03888e+06 695095 0 1.02807e+06 690276 0 1.01741e+06 685444 0 1.0069e+06 680602 0 996516 675752 0 986273 670893 0 976165 666028 0 966188 661158 0 956342 656283 0 946624 651404 0 937032 646523 0 927564 641640 0 918218 636757 0 908993 631873 0 899887 626991 0 890898 622110 0 882024 617231 0 873263 612356 0 864615 607483 0 856077 602616 0 847648 597752 0 839327 592895 0 831111 588043 0 823000 583197 0 814992 578358 0 807086 573527 0 799280 568703 0 791573 563887 0 783964 559079 0 776451 554280 0 769034 549491 0 761711 544710 0 3.39612e+06 -1.20935e+06 0 3.42675e+06 -992913 0 3.43645e+06 -810426 0 3.42936e+06 -650642 0 3.41004e+06 -508436 0 3.38179e+06 -380887 0 3.34701e+06 -265957 0 3.30748e+06 -162098 0 3.26454e+06 -68041.3 0 3.21923e+06 17278 0 3.17234e+06 94779.5 0 3.12448e+06 165263 0 3.07613e+06 229430 0 3.02765e+06 287902 0 2.97933e+06 341228 0 2.93139e+06 389895 0 2.884e+06 434340 0 2.83729e+06 474950 0 2.79134e+06 512071 0 2.74624e+06 546016 0 2.70201e+06 577062 0 2.65871e+06 605460 0 2.61634e+06 631436 0 2.57491e+06 655193 0 2.53443e+06 676914 0 2.49488e+06 696765 0 2.45626e+06 714896 0 2.41855e+06 731443 0 2.38173e+06 746529 0 2.34578e+06 760267 0 2.31069e+06 772759 0 2.27642e+06 784097 0 2.24296e+06 794368 0 2.21028e+06 803648 0 2.17835e+06 812008 0 2.14717e+06 819515 0 2.11669e+06 826227 0 2.08691e+06 832199 0 2.05779e+06 837482 0 2.02931e+06 842123 0 2.00147e+06 846165 0 1.97422e+06 849646 0 1.94756e+06 852604 0 1.92146e+06 855073 0 1.89592e+06 857083 0 1.8709e+06 858665 0 1.84639e+06 859844 0 1.82238e+06 860646 0 1.79884e+06 861094 0 1.77577e+06 861211 0 1.75316e+06 861015 0 1.73097e+06 860526 0 1.70921e+06 859762 0 1.68786e+06 858740 0 1.66691e+06 857473 0 1.64634e+06 855977 0 1.62615e+06 854266 0 1.60632e+06 852351 0 1.58684e+06 850245 0 1.5677e+06 847959 0 1.5489e+06 845503 0 1.53042e+06 842888 0 1.51226e+06 840122 0 1.4944e+06 837213 0 1.47684e+06 834171 0 1.45957e+06 831003 0 1.44258e+06 827716 0 1.42587e+06 824318 0 1.40943e+06 820813 0 1.39324e+06 817210 0 1.37732e+06 813513 0 1.36164e+06 809728 0 1.34621e+06 805860 0 1.33101e+06 801914 0 1.31604e+06 797895 0 1.3013e+06 793807 0 1.28679e+06 789655 0 1.27248e+06 785441 0 1.25839e+06 781171 0 1.24451e+06 776847 0 1.23083e+06 772473 0 1.21735e+06 768052 0 1.20406e+06 763587 0 1.19096e+06 759081 0 1.17805e+06 754538 0 1.16532e+06 749958 0 1.15277e+06 745346 0 1.1404e+06 740703 0 1.1282e+06 736032 0 1.11616e+06 731334 0 1.1043e+06 726612 0 1.09259e+06 721868 0 1.08105e+06 717103 0 1.06966e+06 712320 0 1.05842e+06 707519 0 1.04734e+06 702704 0 1.0364e+06 697874 0 1.02562e+06 693032 0 1.01497e+06 688179 0 1.00447e+06 683316 0 994101 678445 0 983872 673566 0 973778 668681 0 963817 663791 0 953985 658898 0 944281 654001 0 934704 649102 0 925251 644202 0 915920 639301 0 906710 634401 0 897619 629502 0 888644 624605 0 879785 619711 0 871039 614820 0 862406 609933 0 853882 605050 0 845468 600173 0 837161 595301 0 828960 590435 0 820863 585576 0 812870 580724 0 804978 575879 0 797186 571042 0 789494 566214 0 781899 561394 0 774400 556584 0 766997 551782 0 759688 546990 0 3.43474e+06 -1.19502e+06 0 3.45782e+06 -978948 0 3.46222e+06 -795708 0 3.45117e+06 -635285 0 3.4287e+06 -492708 0 3.39784e+06 -365005 0 3.36084e+06 -250093 0 3.31941e+06 -146379 0 3.27483e+06 -52558.6 0 3.22809e+06 32459.5 0 3.17994e+06 109615 0 3.13098e+06 179722 0 3.08165e+06 243496 0 3.03231e+06 301565 0 2.98323e+06 354485 0 2.93461e+06 402749 0 2.88661e+06 446796 0 2.83936e+06 487015 0 2.79293e+06 523757 0 2.74739e+06 557334 0 2.70278e+06 588024 0 2.65912e+06 616079 0 2.61644e+06 641725 0 2.57473e+06 665164 0 2.53399e+06 686581 0 2.49421e+06 706140 0 2.45538e+06 723991 0 2.41748e+06 740271 0 2.38049e+06 755101 0 2.34439e+06 768594 0 2.30915e+06 780851 0 2.27476e+06 791965 0 2.24118e+06 802021 0 2.2084e+06 811096 0 2.17638e+06 819260 0 2.1451e+06 826579 0 2.11455e+06 833111 0 2.08469e+06 838912 0 2.05551e+06 844030 0 2.02698e+06 848514 0 1.99907e+06 852404 0 1.97178e+06 855741 0 1.94508e+06 858560 0 1.91894e+06 860896 0 1.89336e+06 862778 0 1.8683e+06 864237 0 1.84377e+06 865299 0 1.81973e+06 865988 0 1.79617e+06 866328 0 1.77308e+06 866340 0 1.75045e+06 866044 0 1.72825e+06 865460 0 1.70647e+06 864603 0 1.68511e+06 863491 0 1.66415e+06 862139 0 1.64357e+06 860560 0 1.62337e+06 858769 0 1.60353e+06 856778 0 1.58405e+06 854598 0 1.56491e+06 852241 0 1.54611e+06 849717 0 1.52763e+06 847035 0 1.50946e+06 844204 0 1.4916e+06 841234 0 1.47405e+06 838133 0 1.45678e+06 834907 0 1.43979e+06 831564 0 1.42309e+06 828112 0 1.40665e+06 824555 0 1.39047e+06 820902 0 1.37455e+06 817156 0 1.35888e+06 813324 0 1.34345e+06 809410 0 1.32826e+06 805420 0 1.31331e+06 801358 0 1.29858e+06 797229 0 1.28407e+06 793036 0 1.26977e+06 788783 0 1.25569e+06 784475 0 1.24182e+06 780114 0 1.22815e+06 775704 0 1.21468e+06 771249 0 1.20141e+06 766751 0 1.18832e+06 762212 0 1.17542e+06 757637 0 1.1627e+06 753027 0 1.15016e+06 748384 0 1.1378e+06 743712 0 1.12561e+06 739012 0 1.11359e+06 734287 0 1.10174e+06 729538 0 1.09005e+06 724768 0 1.07851e+06 719978 0 1.06714e+06 715169 0 1.05592e+06 710345 0 1.04485e+06 705506 0 1.03393e+06 700653 0 1.02315e+06 695788 0 1.01252e+06 690913 0 1.00203e+06 686029 0 991680 681137 0 981466 676238 0 971387 671334 0 961439 666425 0 951622 661512 0 941933 656597 0 932370 651680 0 922932 646762 0 913615 641844 0 904420 636927 0 895343 632012 0 886383 627098 0 877538 622188 0 868807 617282 0 860188 612380 0 851679 607482 0 843279 602590 0 834987 597704 0 826800 592824 0 818718 587952 0 810738 583086 0 802861 578228 0 795083 573379 0 787405 568538 0 779824 563706 0 772339 558883 0 764950 554069 0 757654 549266 0 3.47248e+06 -1.17985e+06 0 3.48854e+06 -964196 0 3.4878e+06 -780398 0 3.47285e+06 -619479 0 3.44724e+06 -476623 0 3.41377e+06 -348836 0 3.37457e+06 -233996 0 3.33124e+06 -130467 0 3.28502e+06 -36915.9 0 3.23685e+06 47774.5 0 3.18746e+06 124562 0 3.13739e+06 194276 0 3.0871e+06 257641 0 3.0369e+06 315295 0 2.98706e+06 367799 0 2.93776e+06 415650 0 2.88917e+06 459291 0 2.84137e+06 499115 0 2.79447e+06 535472 0 2.7485e+06 568676 0 2.7035e+06 599007 0 2.6595e+06 626715 0 2.6165e+06 652028 0 2.57451e+06 675148 0 2.53352e+06 696258 0 2.49352e+06 715524 0 2.45448e+06 733095 0 2.41639e+06 749105 0 2.37924e+06 763678 0 2.34298e+06 776925 0 2.30761e+06 788947 0 2.27308e+06 799837 0 2.23939e+06 809678 0 2.2065e+06 818547 0 2.17439e+06 826515 0 2.14303e+06 833646 0 2.1124e+06 839998 0 2.08247e+06 845627 0 2.05322e+06 850581 0 2.02463e+06 854907 0 1.99668e+06 858646 0 1.96934e+06 861838 0 1.94259e+06 864518 0 1.91641e+06 866721 0 1.89079e+06 868476 0 1.86571e+06 869813 0 1.84114e+06 870757 0 1.81708e+06 871333 0 1.7935e+06 871565 0 1.77039e+06 871473 0 1.74774e+06 871077 0 1.72552e+06 870396 0 1.70373e+06 869447 0 1.68236e+06 868246 0 1.66138e+06 866808 0 1.6408e+06 865147 0 1.62059e+06 863276 0 1.60075e+06 861208 0 1.58126e+06 858955 0 1.56212e+06 856526 0 1.54331e+06 853933 0 1.52483e+06 851185 0 1.50667e+06 848291 0 1.48881e+06 845259 0 1.47125e+06 842097 0 1.45399e+06 838814 0 1.43701e+06 835416 0 1.4203e+06 831909 0 1.40387e+06 828301 0 1.3877e+06 824597 0 1.37178e+06 820802 0 1.35612e+06 816923 0 1.3407e+06 812963 0 1.32552e+06 808929 0 1.31057e+06 804824 0 1.29585e+06 800653 0 1.28135e+06 796420 0 1.26706e+06 792128 0 1.25299e+06 787782 0 1.23913e+06 783384 0 1.22547e+06 778939 0 1.21201e+06 774448 0 1.19875e+06 769916 0 1.18567e+06 765345 0 1.17278e+06 760738 0 1.16008e+06 756097 0 1.14755e+06 751424 0 1.1352e+06 746723 0 1.12303e+06 741995 0 1.11102e+06 737241 0 1.09918e+06 732466 0 1.0875e+06 727669 0 1.07598e+06 722853 0 1.06462e+06 718020 0 1.05341e+06 713171 0 1.04235e+06 708308 0 1.03145e+06 703432 0 1.02068e+06 698545 0 1.01007e+06 693649 0 999592 688743 0 989255 683830 0 979055 678911 0 968989 673986 0 959056 669057 0 949253 664126 0 939578 659192 0 930030 654256 0 920606 649321 0 911304 644386 0 902123 639452 0 893060 634519 0 884114 629590 0 875284 624664 0 866567 619742 0 857962 614824 0 849468 609912 0 841082 605005 0 832804 600105 0 824631 595211 0 816563 590324 0 808598 585445 0 800734 580574 0 792971 575712 0 785306 570858 0 777739 566013 0 770268 561178 0 762892 556352 0 755610 551537 0 3.50944e+06 -1.16392e+06 0 3.51892e+06 -948709 0 3.51319e+06 -764521 0 3.49438e+06 -603234 0 3.46565e+06 -460191 0 3.42958e+06 -332387 0 3.38818e+06 -217669 0 3.34297e+06 -114365 0 3.29512e+06 -21115.4 0 3.24552e+06 63221.3 0 3.19488e+06 139620 0 3.14373e+06 208922 0 3.09247e+06 271864 0 3.04142e+06 329090 0 2.99082e+06 381167 0 2.94086e+06 428598 0 2.89166e+06 471826 0 2.84334e+06 511248 0 2.79595e+06 547215 0 2.74956e+06 580042 0 2.70418e+06 610009 0 2.65984e+06 637369 0 2.61654e+06 662346 0 2.57427e+06 685144 0 2.53303e+06 705946 0 2.4928e+06 724917 0 2.45356e+06 742205 0 2.41528e+06 757946 0 2.37796e+06 772261 0 2.34155e+06 785262 0 2.30604e+06 797048 0 2.2714e+06 807713 0 2.23759e+06 817339 0 2.2046e+06 826002 0 2.17239e+06 833773 0 2.14095e+06 840716 0 2.11024e+06 846889 0 2.08024e+06 852345 0 2.05093e+06 857134 0 2.02228e+06 861302 0 1.99428e+06 864890 0 1.96689e+06 867938 0 1.9401e+06 870479 0 1.91388e+06 872549 0 1.88823e+06 874177 0 1.86311e+06 875391 0 1.83852e+06 876217 0 1.81443e+06 876681 0 1.79083e+06 876804 0 1.7677e+06 876608 0 1.74502e+06 876113 0 1.72279e+06 875335 0 1.70099e+06 874294 0 1.6796e+06 873004 0 1.65862e+06 871480 0 1.63803e+06 869737 0 1.61781e+06 867787 0 1.59796e+06 865642 0 1.57847e+06 863315 0 1.55932e+06 860815 0 1.54052e+06 858153 0 1.52203e+06 855339 0 1.50387e+06 852380 0 1.48601e+06 849287 0 1.46846e+06 846066 0 1.4512e+06 842725 0 1.43422e+06 839270 0 1.41752e+06 835710 0 1.40109e+06 832050 0 1.38492e+06 828295 0 1.36902e+06 824451 0 1.35336e+06 820525 0 1.33794e+06 816520 0 1.32277e+06 812441 0 1.30783e+06 808293 0 1.29312e+06 804080 0 1.27862e+06 799806 0 1.26435e+06 795475 0 1.25029e+06 791091 0 1.23644e+06 786657 0 1.22279e+06 782175 0 1.20934e+06 777650 0 1.19609e+06 773084 0 1.18302e+06 768480 0 1.17015e+06 763841 0 1.15745e+06 759169 0 1.14494e+06 754466 0 1.1326e+06 749735 0 1.12044e+06 744978 0 1.10844e+06 740197 0 1.09661e+06 735395 0 1.08495e+06 730571 0 1.07344e+06 725730 0 1.06209e+06 720872 0 1.0509e+06 715998 0 1.03985e+06 711112 0 1.02896e+06 706213 0 1.01821e+06 701303 0 1.00761e+06 696384 0 997147 691457 0 986824 686522 0 976638 681582 0 966587 676638 0 956667 671690 0 946879 666739 0 937218 661786 0 927684 656832 0 918273 651879 0 908986 646926 0 899819 641975 0 890770 637026 0 881839 632080 0 873022 627138 0 864320 622200 0 855729 617267 0 847249 612339 0 838877 607418 0 830613 602503 0 822454 597595 0 814400 592694 0 806448 587801 0 798599 582917 0 790849 578041 0 783198 573174 0 775644 568317 0 768187 563469 0 760824 558631 0 753556 553804 0 3.54571e+06 -1.14725e+06 0 3.54897e+06 -932530 0 3.53838e+06 -748099 0 3.51575e+06 -586562 0 3.48392e+06 -443417 0 3.44527e+06 -315661 0 3.40168e+06 -201115 0 3.35458e+06 -98076.6 0 3.3051e+06 -5159.49 0 3.2541e+06 78797.6 0 3.20222e+06 154786 0 3.14997e+06 223660 0 3.09776e+06 286164 0 3.04586e+06 342950 0 2.99452e+06 394591 0 2.94389e+06 441592 0 2.8941e+06 484400 0 2.84525e+06 523414 0 2.7974e+06 558986 0 2.75058e+06 591432 0 2.70482e+06 621032 0 2.66014e+06 648039 0 2.61653e+06 672678 0 2.57399e+06 695153 0 2.5325e+06 715645 0 2.49205e+06 734319 0 2.45261e+06 751324 0 2.41415e+06 766794 0 2.37666e+06 780850 0 2.34011e+06 793603 0 2.30446e+06 805154 0 2.26969e+06 815592 0 2.23578e+06 825003 0 2.20268e+06 833460 0 2.17039e+06 841035 0 2.13886e+06 847789 0 2.10807e+06 853781 0 2.07801e+06 859065 0 2.04863e+06 863690 0 2.01993e+06 867700 0 1.99187e+06 871137 0 1.96443e+06 874040 0 1.9376e+06 876443 0 1.91135e+06 878380 0 1.88566e+06 879880 0 1.86051e+06 880972 0 1.83589e+06 881681 0 1.81177e+06 882032 0 1.78815e+06 882047 0 1.765e+06 881747 0 1.74231e+06 881151 0 1.72006e+06 880278 0 1.69825e+06 879144 0 1.67685e+06 877765 0 1.65586e+06 876156 0 1.63525e+06 874330 0 1.61503e+06 872300 0 1.59518e+06 870079 0 1.57568e+06 867678 0 1.55653e+06 865107 0 1.53772e+06 862377 0 1.51924e+06 859496 0 1.50107e+06 856474 0 1.48322e+06 853318 0 1.46566e+06 850037 0 1.44841e+06 846639 0 1.43143e+06 843129 0 1.41474e+06 839514 0 1.39831e+06 835802 0 1.38215e+06 831996 0 1.36625e+06 828104 0 1.3506e+06 824130 0 1.33519e+06 820079 0 1.32002e+06 815956 0 1.30509e+06 811765 0 1.29038e+06 807510 0 1.2