<?xml version="1.0"?> 
<VTKFile type="StructuredGrid" version="0.1"> 
<StructuredGrid WholeExtent="0 127 0 127 0 0"> 
<Piece Extent="0 127 0 127 0 0"> 
<PointData>
<DataArray type="Float32" Name="|E|" format="ascii" NumberOfComponents="3"> 
-2.0692e+06 0 0 -2.0692e+06 373.319 0 -2.0692e+06 746.638 0 -2.06921e+06 1119.96 0 -2.06921e+06 1493.28 0 -2.06922e+06 1866.6 0 -2.06922e+06 2239.93 0 -2.06923e+06 2613.26 0 -2.06924e+06 2986.59 0 -2.06924e+06 3359.93 0 -2.06925e+06 3733.27 0 -2.06927e+06 4106.62 0 -2.06928e+06 4479.97 0 -2.06929e+06 4853.32 0 -2.0693e+06 5226.69 0 -2.06932e+06 5600.06 0 -2.06934e+06 5973.44 0 -2.06935e+06 6346.82 0 -2.06937e+06 6720.22 0 -2.06939e+06 7093.62 0 -2.06941e+06 7467.03 0 -2.06943e+06 7840.45 0 -2.06946e+06 8213.88 0 -2.06948e+06 8587.33 0 -2.0695e+06 8960.78 0 -2.06953e+06 9334.25 0 -2.06956e+06 9707.73 0 -2.06958e+06 10081.2 0 -2.06961e+06 10454.7 0 -2.06964e+06 10828.2 0 -2.06967e+06 11201.8 0 -2.0697e+06 11575.3 0 -2.06974e+06 11948.9 0 -2.06977e+06 12322.5 0 -2.06981e+06 12696.1 0 -2.06984e+06 13069.7 0 -2.06988e+06 13443.3 0 -2.06992e+06 13816.9 0 -2.06996e+06 14190.6 0 -2.07e+06 14564.3 0 -2.07004e+06 14938 0 -2.07008e+06 15311.7 0 -2.07012e+06 15685.5 0 -2.07017e+06 16059.2 0 -2.07021e+06 16433 0 -2.07026e+06 16806.8 0 -2.07031e+06 17180.6 0 -2.07036e+06 17554.5 0 -2.07041e+06 17928.4 0 -2.07046e+06 18302.3 0 -2.07051e+06 18676.2 0 -2.07056e+06 19050.1 0 -2.07062e+06 19424.1 0 -2.07067e+06 19798.1 0 -2.07073e+06 20172.1 0 -2.07078e+06 20546.2 0 -2.07084e+06 20920.2 0 -2.0709e+06 21294.3 0 -2.07096e+06 21668.5 0 -2.07102e+06 22042.6 0 -2.07108e+06 22416.8 0 -2.07115e+06 22791 0 -2.07121e+06 23165.3 0 -2.07128e+06 23539.6 0 -2.07134e+06 23913.9 0 -2.07141e+06 24288.2 0 -2.07148e+06 24662.6 0 -2.07155e+06 25037 0 -2.07162e+06 25411.5 0 -2.07169e+06 25785.9 0 -2.07176e+06 26160.4 0 -2.07184e+06 26535 0 -2.07191e+06 26909.6 0 -2.07199e+06 27284.2 0 -2.07206e+06 27658.8 0 -2.07214e+06 28033.5 0 -2.07222e+06 28408.2 0 -2.0723e+06 28783 0 -2.07238e+06 29157.8 0 -2.07246e+06 29532.6 0 -2.07255e+06 29907.5 0 -2.07263e+06 30282.4 0 -2.07272e+06 30657.4 0 -2.0728e+06 31032.4 0 -2.07289e+06 31407.4 0 -2.07298e+06 31782.5 0 -2.07307e+06 32157.6 0 -2.07316e+06 32532.8 0 -2.07325e+06 32908 0 -2.07334e+06 33283.2 0 -2.07344e+06 33658.5 0 -2.07353e+06 34033.8 0 -2.07363e+06 34409.2 0 -2.07372e+06 34784.6 0 -2.07382e+06 35160.1 0 -2.07392e+06 35535.6 0 -2.07402e+06 35911.2 0 -2.07412e+06 36286.8 0 -2.07422e+06 36662.5 0 -2.07433e+06 37038.2 0 -2.07443e+06 37414 0 -2.07454e+06 37789.8 0 -2.07464e+06 38165.6 0 -2.07475e+06 38541.5 0 -2.07486e+06 38917.5 0 -2.07497e+06 39293.5 0 -2.07508e+06 39669.6 0 -2.07519e+06 40045.7 0 -2.0753e+06 40421.9 0 -2.07542e+06 40798.1 0 -2.07553e+06 41174.4 0 -2.07565e+06 41550.7 0 -2.07576e+06 41927.1 0 -2.07588e+06 42303.5 0 -2.076e+06 42680 0 -2.07612e+06 43056.6 0 -2.07624e+06 43433.2 0 -2.07636e+06 43809.9 0 -2.07648e+06 44186.6 0 -2.07661e+06 44563.4 0 -2.07673e+06 44940.3 0 -2.07686e+06 45317.2 0 -2.07699e+06 45694.1 0 -2.07712e+06 46071.2 0 -2.07725e+06 46448.2 0 -2.07738e+06 46825.4 0 -2.07751e+06 47202.6 0 -2.07764e+06 47579.9 0 -2.06889e+06 0 0 -2.06889e+06 379.1 0 -2.06889e+06 758.2 0 -2.0689e+06 1137.3 0 -2.0689e+06 1516.4 0 -2.0689e+06 1895.51 0 -2.06891e+06 2274.62 0 -2.06892e+06 2653.73 0 -2.06893e+06 3032.84 0 -2.06893e+06 3411.96 0 -2.06894e+06 3791.08 0 -2.06896e+06 4170.21 0 -2.06897e+06 4549.34 0 -2.06898e+06 4928.48 0 -2.069e+06 5307.63 0 -2.06901e+06 5686.78 0 -2.06903e+06 6065.95 0 -2.06905e+06 6445.12 0 -2.06906e+06 6824.29 0 -2.06908e+06 7203.48 0 -2.06911e+06 7582.68 0 -2.06913e+06 7961.89 0 -2.06915e+06 8341.1 0 -2.06917e+06 8720.33 0 -2.0692e+06 9099.57 0 -2.06923e+06 9478.83 0 -2.06925e+06 9858.09 0 -2.06928e+06 10237.4 0 -2.06931e+06 10616.7 0 -2.06934e+06 10996 0 -2.06937e+06 11375.3 0 -2.06941e+06 11754.6 0 -2.06944e+06 12134 0 -2.06947e+06 12513.4 0 -2.06951e+06 12892.7 0 -2.06955e+06 13272.2 0 -2.06959e+06 13651.6 0 -2.06962e+06 14031 0 -2.06966e+06 14410.5 0 -2.06971e+06 14790 0 -2.06975e+06 15169.5 0 -2.06979e+06 15549 0 -2.06984e+06 15928.5 0 -2.06988e+06 16308.1 0 -2.06993e+06 16687.7 0 -2.06998e+06 17067.3 0 -2.07003e+06 17446.9 0 -2.07008e+06 17826.6 0 -2.07013e+06 18206.2 0 -2.07018e+06 18585.9 0 -2.07023e+06 18965.7 0 -2.07029e+06 19345.4 0 -2.07034e+06 19725.2 0 -2.0704e+06 20105 0 -2.07045e+06 20484.8 0 -2.07051e+06 20864.7 0 -2.07057e+06 21244.6 0 -2.07063e+06 21624.5 0 -2.07069e+06 22004.4 0 -2.07076e+06 22384.4 0 -2.07082e+06 22764.4 0 -2.07089e+06 23144.5 0 -2.07095e+06 23524.5 0 -2.07102e+06 23904.6 0 -2.07109e+06 24284.8 0 -2.07116e+06 24664.9 0 -2.07123e+06 25045.1 0 -2.0713e+06 25425.4 0 -2.07137e+06 25805.6 0 -2.07144e+06 26185.9 0 -2.07152e+06 26566.3 0 -2.07159e+06 26946.7 0 -2.07167e+06 27327.1 0 -2.07175e+06 27707.5 0 -2.07183e+06 28088 0 -2.07191e+06 28468.5 0 -2.07199e+06 28849.1 0 -2.07207e+06 29229.7 0 -2.07215e+06 29610.3 0 -2.07224e+06 29991 0 -2.07232e+06 30371.7 0 -2.07241e+06 30752.5 0 -2.0725e+06 31133.3 0 -2.07259e+06 31514.1 0 -2.07267e+06 31895 0 -2.07277e+06 32276 0 -2.07286e+06 32656.9 0 -2.07295e+06 33038 0 -2.07304e+06 33419 0 -2.07314e+06 33800.1 0 -2.07324e+06 34181.3 0 -2.07333e+06 34562.5 0 -2.07343e+06 34943.8 0 -2.07353e+06 35325.1 0 -2.07363e+06 35706.4 0 -2.07373e+06 36087.8 0 -2.07383e+06 36469.2 0 -2.07394e+06 36850.7 0 -2.07404e+06 37232.3 0 -2.07415e+06 37613.9 0 -2.07426e+06 37995.5 0 -2.07436e+06 38377.2 0 -2.07447e+06 38759 0 -2.07458e+06 39140.8 0 -2.07469e+06 39522.6 0 -2.07481e+06 39904.5 0 -2.07492e+06 40286.5 0 -2.07503e+06 40668.5 0 -2.07515e+06 41050.6 0 -2.07527e+06 41432.7 0 -2.07538e+06 41814.9 0 -2.0755e+06 42197.1 0 -2.07562e+06 42579.4 0 -2.07574e+06 42961.8 0 -2.07586e+06 43344.2 0 -2.07599e+06 43726.7 0 -2.07611e+06 44109.2 0 -2.07624e+06 44491.8 0 -2.07636e+06 44874.5 0 -2.07649e+06 45257.2 0 -2.07662e+06 45639.9 0 -2.07675e+06 46022.8 0 -2.07688e+06 46405.7 0 -2.07701e+06 46788.7 0 -2.07714e+06 47171.7 0 -2.07728e+06 47554.8 0 -2.07741e+06 47937.9 0 -2.07755e+06 48321.2 0 -2.06858e+06 0 0 -2.06858e+06 384.903 0 -2.06858e+06 769.807 0 -2.06858e+06 1154.71 0 -2.06859e+06 1539.62 0 -2.06859e+06 1924.53 0 -2.0686e+06 2309.44 0 -2.06861e+06 2694.35 0 -2.06861e+06 3079.27 0 -2.06862e+06 3464.19 0 -2.06863e+06 3849.12 0 -2.06865e+06 4234.05 0 -2.06866e+06 4618.99 0 -2.06867e+06 5003.94 0 -2.06869e+06 5388.89 0 -2.0687e+06 5773.85 0 -2.06872e+06 6158.82 0 -2.06874e+06 6543.79 0 -2.06876e+06 6928.78 0 -2.06878e+06 7313.77 0 -2.0688e+06 7698.78 0 -2.06882e+06 8083.79 0 -2.06884e+06 8468.82 0 -2.06887e+06 8853.86 0 -2.0689e+06 9238.91 0 -2.06892e+06 9623.97 0 -2.06895e+06 10009 0 -2.06898e+06 10394.1 0 -2.06901e+06 10779.2 0 -2.06904e+06 11164.4 0 -2.06907e+06 11549.5 0 -2.06911e+06 11934.6 0 -2.06914e+06 12319.8 0 -2.06918e+06 12705 0 -2.06921e+06 13090.2 0 -2.06925e+06 13475.4 0 -2.06929e+06 13860.7 0 -2.06933e+06 14245.9 0 -2.06937e+06 14631.2 0 -2.06941e+06 15016.5 0 -2.06946e+06 15401.8 0 -2.0695e+06 15787.2 0 -2.06955e+06 16172.5 0 -2.0696e+06 16557.9 0 -2.06964e+06 16943.3 0 -2.06969e+06 17328.7 0 -2.06974e+06 17714.2 0 -2.06979e+06 18099.7 0 -2.06985e+06 18485.2 0 -2.0699e+06 18870.7 0 -2.06995e+06 19256.3 0 -2.07001e+06 19641.9 0 -2.07007e+06 20027.5 0 -2.07012e+06 20413.1 0 -2.07018e+06 20798.8 0 -2.07024e+06 21184.5 0 -2.0703e+06 21570.2 0 -2.07037e+06 21956 0 -2.07043e+06 22341.7 0 -2.07049e+06 22727.6 0 -2.07056e+06 23113.4 0 -2.07062e+06 23499.3 0 -2.07069e+06 23885.2 0 -2.07076e+06 24271.1 0 -2.07083e+06 24657.1 0 -2.0709e+06 25043.1 0 -2.07097e+06 25429.2 0 -2.07105e+06 25815.3 0 -2.07112e+06 26201.4 0 -2.0712e+06 26587.5 0 -2.07127e+06 26973.7 0 -2.07135e+06 27360 0 -2.07143e+06 27746.2 0 -2.07151e+06 28132.6 0 -2.07159e+06 28518.9 0 -2.07167e+06 28905.3 0 -2.07176e+06 29291.7 0 -2.07184e+06 29678.2 0 -2.07193e+06 30064.7 0 -2.07201e+06 30451.2 0 -2.0721e+06 30837.8 0 -2.07219e+06 31224.5 0 -2.07228e+06 31611.1 0 -2.07237e+06 31997.9 0 -2.07246e+06 32384.6 0 -2.07255e+06 32771.4 0 -2.07265e+06 33158.3 0 -2.07274e+06 33545.2 0 -2.07284e+06 33932.2 0 -2.07294e+06 34319.2 0 -2.07303e+06 34706.2 0 -2.07313e+06 35093.3 0 -2.07324e+06 35480.4 0 -2.07334e+06 35867.6 0 -2.07344e+06 36254.9 0 -2.07354e+06 36642.2 0 -2.07365e+06 37029.5 0 -2.07376e+06 37416.9 0 -2.07386e+06 37804.4 0 -2.07397e+06 38191.9 0 -2.07408e+06 38579.4 0 -2.07419e+06 38967 0 -2.0743e+06 39354.7 0 -2.07442e+06 39742.4 0 -2.07453e+06 40130.2 0 -2.07465e+06 40518 0 -2.07476e+06 40905.9 0 -2.07488e+06 41293.8 0 -2.075e+06 41681.8 0 -2.07512e+06 42069.9 0 -2.07524e+06 42458 0 -2.07536e+06 42846.2 0 -2.07548e+06 43234.4 0 -2.07561e+06 43622.7 0 -2.07573e+06 44011.1 0 -2.07586e+06 44399.5 0 -2.07599e+06 44788 0 -2.07611e+06 45176.5 0 -2.07624e+06 45565.1 0 -2.07637e+06 45953.8 0 -2.07651e+06 46342.5 0 -2.07664e+06 46731.3 0 -2.07677e+06 47120.2 0 -2.07691e+06 47509.1 0 -2.07704e+06 47898.1 0 -2.07718e+06 48287.2 0 -2.07732e+06 48676.3 0 -2.07746e+06 49065.5 0 -2.06827e+06 0 0 -2.06827e+06 390.729 0 -2.06827e+06 781.459 0 -2.06827e+06 1172.19 0 -2.06827e+06 1562.92 0 -2.06828e+06 1953.66 0 -2.06829e+06 2344.4 0 -2.06829e+06 2735.14 0 -2.0683e+06 3125.88 0 -2.06831e+06 3516.63 0 -2.06832e+06 3907.38 0 -2.06833e+06 4298.14 0 -2.06835e+06 4688.91 0 -2.06836e+06 5079.68 0 -2.06838e+06 5470.46 0 -2.06839e+06 5861.25 0 -2.06841e+06 6252.05 0 -2.06843e+06 6642.85 0 -2.06845e+06 7033.67 0 -2.06847e+06 7424.49 0 -2.06849e+06 7815.32 0 -2.06851e+06 8206.17 0 -2.06854e+06 8597.03 0 -2.06856e+06 8987.9 0 -2.06859e+06 9378.78 0 -2.06862e+06 9769.68 0 -2.06865e+06 10160.6 0 -2.06868e+06 10551.5 0 -2.06871e+06 10942.4 0 -2.06874e+06 11333.4 0 -2.06877e+06 11724.4 0 -2.06881e+06 12115.4 0 -2.06884e+06 12506.4 0 -2.06888e+06 12897.4 0 -2.06892e+06 13288.4 0 -2.06896e+06 13679.5 0 -2.069e+06 14070.6 0 -2.06904e+06 14461.7 0 -2.06908e+06 14852.8 0 -2.06912e+06 15243.9 0 -2.06917e+06 15635.1 0 -2.06921e+06 16026.3 0 -2.06926e+06 16417.5 0 -2.06931e+06 16808.7 0 -2.06936e+06 17200 0 -2.06941e+06 17591.2 0 -2.06946e+06 17982.6 0 -2.06951e+06 18373.9 0 -2.06956e+06 18765.2 0 -2.06962e+06 19156.6 0 -2.06968e+06 19548 0 -2.06973e+06 19939.5 0 -2.06979e+06 20330.9 0 -2.06985e+06 20722.4 0 -2.06991e+06 21114 0 -2.06997e+06 21505.5 0 -2.07003e+06 21897.1 0 -2.0701e+06 22288.7 0 -2.07016e+06 22680.4 0 -2.07023e+06 23072 0 -2.0703e+06 23463.8 0 -2.07036e+06 23855.5 0 -2.07043e+06 24247.3 0 -2.0705e+06 24639.1 0 -2.07058e+06 25030.9 0 -2.07065e+06 25422.8 0 -2.07072e+06 25814.7 0 -2.0708e+06 26206.7 0 -2.07087e+06 26598.7 0 -2.07095e+06 26990.7 0 -2.07103e+06 27382.8 0 -2.07111e+06 27774.9 0 -2.07119e+06 28167.1 0 -2.07127e+06 28559.3 0 -2.07135e+06 28951.5 0 -2.07144e+06 29343.8 0 -2.07152e+06 29736.1 0 -2.07161e+06 30128.4 0 -2.0717e+06 30520.8 0 -2.07179e+06 30913.3 0 -2.07188e+06 31305.8 0 -2.07197e+06 31698.3 0 -2.07206e+06 32090.9 0 -2.07215e+06 32483.5 0 -2.07225e+06 32876.2 0 -2.07234e+06 33268.9 0 -2.07244e+06 33661.7 0 -2.07254e+06 34054.5 0 -2.07263e+06 34447.3 0 -2.07273e+06 34840.2 0 -2.07283e+06 35233.2 0 -2.07294e+06 35626.2 0 -2.07304e+06 36019.3 0 -2.07314e+06 36412.4 0 -2.07325e+06 36805.5 0 -2.07336e+06 37198.8 0 -2.07346e+06 37592 0 -2.07357e+06 37985.4 0 -2.07368e+06 38378.7 0 -2.0738e+06 38772.2 0 -2.07391e+06 39165.7 0 -2.07402e+06 39559.2 0 -2.07414e+06 39952.8 0 -2.07425e+06 40346.5 0 -2.07437e+06 40740.2 0 -2.07449e+06 41134 0 -2.07461e+06 41527.8 0 -2.07473e+06 41921.7 0 -2.07485e+06 42315.6 0 -2.07497e+06 42709.6 0 -2.07509e+06 43103.7 0 -2.07522e+06 43497.9 0 -2.07534e+06 43892.1 0 -2.07547e+06 44286.3 0 -2.0756e+06 44680.6 0 -2.07573e+06 45075 0 -2.07586e+06 45469.5 0 -2.07599e+06 45864 0 -2.07612e+06 46258.6 0 -2.07626e+06 46653.2 0 -2.07639e+06 47047.9 0 -2.07653e+06 47442.7 0 -2.07667e+06 47837.6 0 -2.07681e+06 48232.5 0 -2.07695e+06 48627.5 0 -2.07709e+06 49022.6 0 -2.07723e+06 49417.7 0 -2.07737e+06 49812.9 0 -2.06795e+06 0 0 -2.06795e+06 396.578 0 -2.06795e+06 793.156 0 -2.06796e+06 1189.74 0 -2.06796e+06 1586.32 0 -2.06797e+06 1982.9 0 -2.06797e+06 2379.49 0 -2.06798e+06 2776.08 0 -2.06799e+06 3172.67 0 -2.068e+06 3569.27 0 -2.06801e+06 3965.87 0 -2.06802e+06 4362.48 0 -2.06804e+06 4759.1 0 -2.06805e+06 5155.72 0 -2.06807e+06 5552.35 0 -2.06808e+06 5948.99 0 -2.0681e+06 6345.64 0 -2.06812e+06 6742.29 0 -2.06814e+06 7138.96 0 -2.06816e+06 7535.64 0 -2.06818e+06 7932.32 0 -2.06821e+06 8329.02 0 -2.06823e+06 8725.73 0 -2.06826e+06 9122.46 0 -2.06829e+06 9519.2 0 -2.06831e+06 9915.95 0 -2.06834e+06 10312.7 0 -2.06837e+06 10709.5 0 -2.06841e+06 11106.3 0 -2.06844e+06 11503.1 0 -2.06847e+06 11899.9 0 -2.06851e+06 12296.8 0 -2.06854e+06 12693.6 0 -2.06858e+06 13090.5 0 -2.06862e+06 13487.4 0 -2.06866e+06 13884.3 0 -2.0687e+06 14281.3 0 -2.06874e+06 14678.3 0 -2.06879e+06 15075.2 0 -2.06883e+06 15472.2 0 -2.06888e+06 15869.3 0 -2.06892e+06 16266.3 0 -2.06897e+06 16663.4 0 -2.06902e+06 17060.5 0 -2.06907e+06 17457.6 0 -2.06912e+06 17854.8 0 -2.06917e+06 18251.9 0 -2.06923e+06 18649.1 0 -2.06928e+06 19046.4 0 -2.06934e+06 19443.6 0 -2.0694e+06 19840.9 0 -2.06946e+06 20238.2 0 -2.06951e+06 20635.6 0 -2.06958e+06 21033 0 -2.06964e+06 21430.4 0 -2.0697e+06 21827.8 0 -2.06976e+06 22225.3 0 -2.06983e+06 22622.8 0 -2.0699e+06 23020.3 0 -2.06996e+06 23417.9 0 -2.07003e+06 23815.5 0 -2.0701e+06 24213.1 0 -2.07017e+06 24610.8 0 -2.07025e+06 25008.5 0 -2.07032e+06 25406.2 0 -2.07039e+06 25804 0 -2.07047e+06 26201.8 0 -2.07055e+06 26599.7 0 -2.07062e+06 26997.6 0 -2.0707e+06 27395.5 0 -2.07078e+06 27793.5 0 -2.07087e+06 28191.5 0 -2.07095e+06 28589.6 0 -2.07103e+06 28987.7 0 -2.07112e+06 29385.8 0 -2.0712e+06 29784 0 -2.07129e+06 30182.2 0 -2.07138e+06 30580.5 0 -2.07147e+06 30978.8 0 -2.07156e+06 31377.2 0 -2.07165e+06 31775.6 0 -2.07175e+06 32174 0 -2.07184e+06 32572.5 0 -2.07193e+06 32971.1 0 -2.07203e+06 33369.7 0 -2.07213e+06 33768.3 0 -2.07223e+06 34167 0 -2.07233e+06 34565.8 0 -2.07243e+06 34964.5 0 -2.07253e+06 35363.4 0 -2.07264e+06 35762.3 0 -2.07274e+06 36161.2 0 -2.07285e+06 36560.2 0 -2.07295e+06 36959.3 0 -2.07306e+06 37358.4 0 -2.07317e+06 37757.6 0 -2.07328e+06 38156.8 0 -2.07339e+06 38556.1 0 -2.07351e+06 38955.4 0 -2.07362e+06 39354.8 0 -2.07374e+06 39754.3 0 -2.07385e+06 40153.8 0 -2.07397e+06 40553.3 0 -2.07409e+06 40953 0 -2.07421e+06 41352.6 0 -2.07433e+06 41752.4 0 -2.07445e+06 42152.2 0 -2.07457e+06 42552.1 0 -2.0747e+06 42952 0 -2.07482e+06 43352 0 -2.07495e+06 43752 0 -2.07508e+06 44152.2 0 -2.07521e+06 44552.4 0 -2.07534e+06 44952.6 0 -2.07547e+06 45352.9 0 -2.0756e+06 45753.3 0 -2.07574e+06 46153.8 0 -2.07587e+06 46554.3 0 -2.07601e+06 46954.9 0 -2.07614e+06 47355.5 0 -2.07628e+06 47756.3 0 -2.07642e+06 48157.1 0 -2.07656e+06 48557.9 0 -2.07671e+06 48958.9 0 -2.07685e+06 49359.9 0 -2.07699e+06 49761 0 -2.07714e+06 50162.1 0 -2.07729e+06 50563.3 0 -2.06764e+06 0 0 -2.06764e+06 402.449 0 -2.06764e+06 804.898 0 -2.06764e+06 1207.35 0 -2.06765e+06 1609.8 0 -2.06765e+06 2012.26 0 -2.06766e+06 2414.71 0 -2.06767e+06 2817.17 0 -2.06768e+06 3219.64 0 -2.06769e+06 3622.11 0 -2.0677e+06 4024.59 0 -2.06771e+06 4427.07 0 -2.06772e+06 4829.56 0 -2.06774e+06 5232.05 0 -2.06775e+06 5634.55 0 -2.06777e+06 6037.07 0 -2.06779e+06 6439.59 0 -2.06781e+06 6842.12 0 -2.06783e+06 7244.66 0 -2.06785e+06 7647.21 0 -2.06787e+06 8049.77 0 -2.0679e+06 8452.35 0 -2.06792e+06 8854.93 0 -2.06795e+06 9257.54 0 -2.06798e+06 9660.15 0 -2.06801e+06 10062.8 0 -2.06804e+06 10465.4 0 -2.06807e+06 10868.1 0 -2.0681e+06 11270.8 0 -2.06814e+06 11673.5 0 -2.06817e+06 12076.2 0 -2.06821e+06 12478.9 0 -2.06824e+06 12881.6 0 -2.06828e+06 13284.4 0 -2.06832e+06 13687.2 0 -2.06836e+06 14090 0 -2.06841e+06 14492.8 0 -2.06845e+06 14895.7 0 -2.06849e+06 15298.5 0 -2.06854e+06 15701.4 0 -2.06859e+06 16104.4 0 -2.06863e+06 16507.3 0 -2.06868e+06 16910.3 0 -2.06873e+06 17313.2 0 -2.06878e+06 17716.3 0 -2.06884e+06 18119.3 0 -2.06889e+06 18522.4 0 -2.06895e+06 18925.5 0 -2.069e+06 19328.6 0 -2.06906e+06 19731.8 0 -2.06912e+06 20134.9 0 -2.06918e+06 20538.2 0 -2.06924e+06 20941.4 0 -2.0693e+06 21344.7 0 -2.06936e+06 21748 0 -2.06943e+06 22151.3 0 -2.06949e+06 22554.7 0 -2.06956e+06 22958.1 0 -2.06963e+06 23361.6 0 -2.0697e+06 23765 0 -2.06977e+06 24168.5 0 -2.06984e+06 24572.1 0 -2.06991e+06 24975.7 0 -2.06999e+06 25379.3 0 -2.07006e+06 25783 0 -2.07014e+06 26186.7 0 -2.07022e+06 26590.4 0 -2.0703e+06 26994.2 0 -2.07038e+06 27398 0 -2.07046e+06 27801.9 0 -2.07054e+06 28205.8 0 -2.07062e+06 28609.7 0 -2.07071e+06 29013.7 0 -2.07079e+06 29417.7 0 -2.07088e+06 29821.8 0 -2.07097e+06 30225.9 0 -2.07106e+06 30630.1 0 -2.07115e+06 31034.3 0 -2.07124e+06 31438.6 0 -2.07133e+06 31842.9 0 -2.07143e+06 32247.2 0 -2.07152e+06 32651.6 0 -2.07162e+06 33056.1 0 -2.07172e+06 33460.6 0 -2.07182e+06 33865.1 0 -2.07192e+06 34269.7 0 -2.07202e+06 34674.4 0 -2.07212e+06 35079.1 0 -2.07223e+06 35483.8 0 -2.07233e+06 35888.6 0 -2.07244e+06 36293.5 0 -2.07254e+06 36698.4 0 -2.07265e+06 37103.4 0 -2.07276e+06 37508.4 0 -2.07287e+06 37913.5 0 -2.07299e+06 38318.6 0 -2.0731e+06 38723.8 0 -2.07321e+06 39129.1 0 -2.07333e+06 39534.4 0 -2.07345e+06 39939.8 0 -2.07356e+06 40345.2 0 -2.07368e+06 40750.7 0 -2.0738e+06 41156.3 0 -2.07393e+06 41561.9 0 -2.07405e+06 41967.6 0 -2.07417e+06 42373.3 0 -2.0743e+06 42779.1 0 -2.07442e+06 43185 0 -2.07455e+06 43590.9 0 -2.07468e+06 43996.9 0 -2.07481e+06 44403 0 -2.07494e+06 44809.1 0 -2.07507e+06 45215.3 0 -2.07521e+06 45621.6 0 -2.07534e+06 46027.9 0 -2.07548e+06 46434.3 0 -2.07561e+06 46840.8 0 -2.07575e+06 47247.4 0 -2.07589e+06 47654 0 -2.07603e+06 48060.7 0 -2.07618e+06 48467.4 0 -2.07632e+06 48874.3 0 -2.07646e+06 49281.2 0 -2.07661e+06 49688.2 0 -2.07675e+06 50095.2 0 -2.0769e+06 50502.4 0 -2.07705e+06 50909.6 0 -2.0772e+06 51316.9 0 -2.06732e+06 0 0 -2.06732e+06 408.342 0 -2.06733e+06 816.685 0 -2.06733e+06 1225.03 0 -2.06733e+06 1633.37 0 -2.06734e+06 2041.72 0 -2.06734e+06 2450.07 0 -2.06735e+06 2858.43 0 -2.06736e+06 3266.79 0 -2.06737e+06 3675.15 0 -2.06738e+06 4083.52 0 -2.0674e+06 4491.9 0 -2.06741e+06 4900.28 0 -2.06743e+06 5308.67 0 -2.06744e+06 5717.07 0 -2.06746e+06 6125.48 0 -2.06748e+06 6533.9 0 -2.0675e+06 6942.32 0 -2.06752e+06 7350.76 0 -2.06754e+06 7759.21 0 -2.06757e+06 8167.67 0 -2.06759e+06 8576.14 0 -2.06762e+06 8984.63 0 -2.06764e+06 9393.13 0 -2.06767e+06 9801.64 0 -2.0677e+06 10210.2 0 -2.06773e+06 10618.7 0 -2.06776e+06 11027.3 0 -2.0678e+06 11435.9 0 -2.06783e+06 11844.5 0 -2.06787e+06 12253.1 0 -2.06791e+06 12661.7 0 -2.06794e+06 13070.4 0 -2.06798e+06 13479 0 -2.06802e+06 13887.7 0 -2.06807e+06 14296.4 0 -2.06811e+06 14705.2 0 -2.06815e+06 15113.9 0 -2.0682e+06 15522.7 0 -2.06825e+06 15931.5 0 -2.06829e+06 16340.3 0 -2.06834e+06 16749.2 0 -2.06839e+06 17158.1 0 -2.06844e+06 17567 0 -2.0685e+06 17975.9 0 -2.06855e+06 18384.9 0 -2.06861e+06 18793.9 0 -2.06866e+06 19202.9 0 -2.06872e+06 19611.9 0 -2.06878e+06 20021 0 -2.06884e+06 20430.1 0 -2.0689e+06 20839.2 0 -2.06896e+06 21248.4 0 -2.06903e+06 21657.6 0 -2.06909e+06 22066.9 0 -2.06916e+06 22476.1 0 -2.06923e+06 22885.4 0 -2.06929e+06 23294.8 0 -2.06936e+06 23704.1 0 -2.06943e+06 24113.6 0 -2.06951e+06 24523 0 -2.06958e+06 24932.5 0 -2.06965e+06 25342 0 -2.06973e+06 25751.6 0 -2.06981e+06 26161.2 0 -2.06989e+06 26570.8 0 -2.06997e+06 26980.5 0 -2.07005e+06 27390.2 0 -2.07013e+06 27800 0 -2.07021e+06 28209.8 0 -2.0703e+06 28619.7 0 -2.07038e+06 29029.6 0 -2.07047e+06 29439.5 0 -2.07056e+06 29849.5 0 -2.07065e+06 30259.5 0 -2.07074e+06 30669.6 0 -2.07083e+06 31079.7 0 -2.07092e+06 31489.9 0 -2.07101e+06 31900.1 0 -2.07111e+06 32310.4 0 -2.07121e+06 32720.7 0 -2.0713e+06 33131.1 0 -2.0714e+06 33541.5 0 -2.0715e+06 33952 0 -2.0716e+06 34362.5 0 -2.07171e+06 34773.1 0 -2.07181e+06 35183.7 0 -2.07192e+06 35594.4 0 -2.07202e+06 36005.1 0 -2.07213e+06 36415.9 0 -2.07224e+06 36826.8 0 -2.07235e+06 37237.7 0 -2.07246e+06 37648.6 0 -2.07257e+06 38059.7 0 -2.07269e+06 38470.7 0 -2.0728e+06 38881.9 0 -2.07292e+06 39293.1 0 -2.07303e+06 39704.3 0 -2.07315e+06 40115.7 0 -2.07327e+06 40527.1 0 -2.07339e+06 40938.5 0 -2.07352e+06 41350 0 -2.07364e+06 41761.6 0 -2.07376e+06 42173.2 0 -2.07389e+06 42584.9 0 -2.07402e+06 42996.7 0 -2.07414e+06 43408.5 0 -2.07427e+06 43820.4 0 -2.0744e+06 44232.4 0 -2.07454e+06 44644.4 0 -2.07467e+06 45056.5 0 -2.0748e+06 45468.7 0 -2.07494e+06 45880.9 0 -2.07508e+06 46293.3 0 -2.07521e+06 46705.6 0 -2.07535e+06 47118.1 0 -2.07549e+06 47530.6 0 -2.07564e+06 47943.2 0 -2.07578e+06 48355.9 0 -2.07592e+06 48768.7 0 -2.07607e+06 49181.5 0 -2.07621e+06 49594.4 0 -2.07636e+06 50007.4 0 -2.07651e+06 50420.4 0 -2.07666e+06 50833.6 0 -2.07681e+06 51246.8 0 -2.07697e+06 51660.1 0 -2.07712e+06 52073.5 0 -2.06701e+06 0 0 -2.06701e+06 414.258 0 -2.06701e+06 828.516 0 -2.06701e+06 1242.78 0 -2.06702e+06 1657.04 0 -2.06702e+06 2071.3 0 -2.06703e+06 2485.57 0 -2.06704e+06 2899.84 0 -2.06705e+06 3314.12 0 -2.06706e+06 3728.4 0 -2.06707e+06 4142.68 0 -2.06708e+06 4556.98 0 -2.0671e+06 4971.28 0 -2.06711e+06 5385.59 0 -2.06713e+06 5799.9 0 -2.06715e+06 6214.23 0 -2.06717e+06 6628.57 0 -2.06719e+06 7042.91 0 -2.06721e+06 7457.27 0 -2.06723e+06 7871.64 0 -2.06726e+06 8286.02 0 -2.06728e+06 8700.41 0 -2.06731e+06 9114.82 0 -2.06734e+06 9529.24 0 -2.06736e+06 9943.68 0 -2.0674e+06 10358.1 0 -2.06743e+06 10772.6 0 -2.06746e+06 11187.1 0 -2.06749e+06 11601.6 0 -2.06753e+06 12016.1 0 -2.06757e+06 12430.6 0 -2.0676e+06 12845.2 0 -2.06764e+06 13259.8 0 -2.06768e+06 13674.4 0 -2.06772e+06 14089 0 -2.06777e+06 14503.7 0 -2.06781e+06 14918.3 0 -2.06786e+06 15333 0 -2.0679e+06 15747.7 0 -2.06795e+06 16162.5 0 -2.068e+06 16577.2 0 -2.06805e+06 16992 0 -2.0681e+06 17406.8 0 -2.06816e+06 17821.7 0 -2.06821e+06 18236.5 0 -2.06826e+06 18651.4 0 -2.06832e+06 19066.4 0 -2.06838e+06 19481.3 0 -2.06844e+06 19896.3 0 -2.0685e+06 20311.3 0 -2.06856e+06 20726.4 0 -2.06862e+06 21141.5 0 -2.06869e+06 21556.6 0 -2.06875e+06 21971.8 0 -2.06882e+06 22386.9 0 -2.06889e+06 22802.2 0 -2.06896e+06 23217.4 0 -2.06903e+06 23632.7 0 -2.0691e+06 24048 0 -2.06917e+06 24463.4 0 -2.06924e+06 24878.8 0 -2.06932e+06 25294.3 0 -2.0694e+06 25709.8 0 -2.06947e+06 26125.3 0 -2.06955e+06 26540.9 0 -2.06963e+06 26956.5 0 -2.06971e+06 27372.1 0 -2.0698e+06 27787.8 0 -2.06988e+06 28203.5 0 -2.06997e+06 28619.3 0 -2.07005e+06 29035.2 0 -2.07014e+06 29451 0 -2.07023e+06 29866.9 0 -2.07032e+06 30282.9 0 -2.07041e+06 30698.9 0 -2.0705e+06 31115 0 -2.0706e+06 31531.1 0 -2.07069e+06 31947.3 0 -2.07079e+06 32363.5 0 -2.07089e+06 32779.7 0 -2.07098e+06 33196 0 -2.07108e+06 33612.4 0 -2.07119e+06 34028.8 0 -2.07129e+06 34445.3 0 -2.07139e+06 34861.8 0 -2.0715e+06 35278.4 0 -2.0716e+06 35695 0 -2.07171e+06 36111.7 0 -2.07182e+06 36528.5 0 -2.07193e+06 36945.3 0 -2.07204e+06 37362.2 0 -2.07215e+06 37779.1 0 -2.07227e+06 38196.1 0 -2.07238e+06 38613.1 0 -2.0725e+06 39030.2 0 -2.07262e+06 39447.4 0 -2.07274e+06 39864.6 0 -2.07286e+06 40281.9 0 -2.07298e+06 40699.2 0 -2.0731e+06 41116.7 0 -2.07322e+06 41534.1 0 -2.07335e+06 41951.7 0 -2.07348e+06 42369.3 0 -2.0736e+06 42787 0 -2.07373e+06 43204.7 0 -2.07386e+06 43622.6 0 -2.07399e+06 44040.4 0 -2.07413e+06 44458.4 0 -2.07426e+06 44876.4 0 -2.07439e+06 45294.5 0 -2.07453e+06 45712.7 0 -2.07467e+06 46130.9 0 -2.07481e+06 46549.2 0 -2.07495e+06 46967.6 0 -2.07509e+06 47386.1 0 -2.07523e+06 47804.6 0 -2.07538e+06 48223.2 0 -2.07552e+06 48641.9 0 -2.07567e+06 49060.7 0 -2.07581e+06 49479.5 0 -2.07596e+06 49898.4 0 -2.07611e+06 50317.4 0 -2.07626e+06 50736.5 0 -2.07642e+06 51155.7 0 -2.07657e+06 51574.9 0 -2.07673e+06 51994.2 0 -2.07688e+06 52413.6 0 -2.07704e+06 52833.1 0 -2.06669e+06 0 0 -2.06669e+06 420.196 0 -2.06669e+06 840.393 0 -2.0667e+06 1260.59 0 -2.0667e+06 1680.79 0 -2.06671e+06 2100.99 0 -2.06671e+06 2521.2 0 -2.06672e+06 2941.41 0 -2.06673e+06 3361.62 0 -2.06674e+06 3781.84 0 -2.06675e+06 4202.07 0 -2.06677e+06 4622.3 0 -2.06678e+06 5042.54 0 -2.0668e+06 5462.79 0 -2.06682e+06 5883.05 0 -2.06683e+06 6303.32 0 -2.06685e+06 6723.59 0 -2.06687e+06 7143.88 0 -2.0669e+06 7564.18 0 -2.06692e+06 7984.49 0 -2.06694e+06 8404.81 0 -2.06697e+06 8825.15 0 -2.067e+06 9245.5 0 -2.06703e+06 9665.87 0 -2.06706e+06 10086.3 0 -2.06709e+06 10506.7 0 -2.06712e+06 10927.1 0 -2.06715e+06 11347.5 0 -2.06719e+06 11767.9 0 -2.06723e+06 12188.4 0 -2.06726e+06 12608.9 0 -2.0673e+06 13029.4 0 -2.06734e+06 13449.9 0 -2.06738e+06 13870.5 0 -2.06743e+06 14291.1 0 -2.06747e+06 14711.7 0 -2.06751e+06 15132.3 0 -2.06756e+06 15552.9 0 -2.06761e+06 15973.6 0 -2.06766e+06 16394.3 0 -2.06771e+06 16815 0 -2.06776e+06 17235.8 0 -2.06781e+06 17656.5 0 -2.06787e+06 18077.3 0 -2.06792e+06 18498.2 0 -2.06798e+06 18919 0 -2.06804e+06 19339.9 0 -2.0681e+06 19760.9 0 -2.06816e+06 20181.8 0 -2.06822e+06 20602.8 0 -2.06828e+06 21023.8 0 -2.06834e+06 21444.9 0 -2.06841e+06 21866 0 -2.06848e+06 22287.1 0 -2.06854e+06 22708.3 0 -2.06861e+06 23129.5 0 -2.06868e+06 23550.7 0 -2.06876e+06 23972 0 -2.06883e+06 24393.3 0 -2.0689e+06 24814.6 0 -2.06898e+06 25236 0 -2.06906e+06 25657.4 0 -2.06914e+06 26078.9 0 -2.06921e+06 26500.4 0 -2.0693e+06 26922 0 -2.06938e+06 27343.6 0 -2.06946e+06 27765.2 0 -2.06955e+06 28186.9 0 -2.06963e+06 28608.6 0 -2.06972e+06 29030.4 0 -2.06981e+06 29452.3 0 -2.0699e+06 29874.1 0 -2.06999e+06 30296 0 -2.07008e+06 30718 0 -2.07017e+06 31140 0 -2.07027e+06 31562.1 0 -2.07036e+06 31984.2 0 -2.07046e+06 32406.4 0 -2.07056e+06 32828.6 0 -2.07066e+06 33250.9 0 -2.07076e+06 33673.2 0 -2.07086e+06 34095.6 0 -2.07097e+06 34518.1 0 -2.07107e+06 34940.6 0 -2.07118e+06 35363.1 0 -2.07129e+06 35785.7 0 -2.0714e+06 36208.4 0 -2.07151e+06 36631.1 0 -2.07162e+06 37053.9 0 -2.07173e+06 37476.7 0 -2.07184e+06 37899.6 0 -2.07196e+06 38322.6 0 -2.07208e+06 38745.6 0 -2.07219e+06 39168.7 0 -2.07231e+06 39591.9 0 -2.07243e+06 40015.1 0 -2.07256e+06 40438.4 0 -2.07268e+06 40861.7 0 -2.0728e+06 41285.1 0 -2.07293e+06 41708.6 0 -2.07306e+06 42132.1 0 -2.07318e+06 42555.8 0 -2.07331e+06 42979.4 0 -2.07344e+06 43403.2 0 -2.07358e+06 43827 0 -2.07371e+06 44250.9 0 -2.07384e+06 44674.9 0 -2.07398e+06 45098.9 0 -2.07412e+06 45523 0 -2.07425e+06 45947.2 0 -2.07439e+06 46371.5 0 -2.07453e+06 46795.8 0 -2.07468e+06 47220.2 0 -2.07482e+06 47644.7 0 -2.07496e+06 48069.2 0 -2.07511e+06 48493.9 0 -2.07526e+06 48918.6 0 -2.07541e+06 49343.4 0 -2.07556e+06 49768.3 0 -2.07571e+06 50193.2 0 -2.07586e+06 50618.3 0 -2.07601e+06 51043.4 0 -2.07617e+06 51468.6 0 -2.07633e+06 51893.9 0 -2.07648e+06 52319.2 0 -2.07664e+06 52744.7 0 -2.0768e+06 53170.2 0 -2.07696e+06 53595.9 0 -2.06637e+06 0 0 -2.06637e+06 426.157 0 -2.06638e+06 852.314 0 -2.06638e+06 1278.47 0 -2.06638e+06 1704.63 0 -2.06639e+06 2130.8 0 -2.0664e+06 2556.96 0 -2.06641e+06 2983.13 0 -2.06641e+06 3409.31 0 -2.06643e+06 3835.49 0 -2.06644e+06 4261.68 0 -2.06645e+06 4687.88 0 -2.06647e+06 5114.08 0 -2.06648e+06 5540.29 0 -2.0665e+06 5966.51 0 -2.06652e+06 6392.74 0 -2.06654e+06 6818.98 0 -2.06656e+06 7245.23 0 -2.06658e+06 7671.49 0 -2.06661e+06 8097.77 0 -2.06663e+06 8524.06 0 -2.06666e+06 8950.36 0 -2.06669e+06 9376.68 0 -2.06672e+06 9803.02 0 -2.06675e+06 10229.4 0 -2.06678e+06 10655.7 0 -2.06681e+06 11082.1 0 -2.06685e+06 11508.5 0 -2.06688e+06 11934.9 0 -2.06692e+06 12361.4 0 -2.06696e+06 12787.8 0 -2.067e+06 13214.3 0 -2.06704e+06 13640.8 0 -2.06708e+06 14067.3 0 -2.06713e+06 14493.9 0 -2.06717e+06 14920.5 0 -2.06722e+06 15347.1 0 -2.06726e+06 15773.7 0 -2.06731e+06 16200.3 0 -2.06736e+06 16627 0 -2.06741e+06 17053.7 0 -2.06747e+06 17480.4 0 -2.06752e+06 17907.2 0 -2.06758e+06 18334 0 -2.06763e+06 18760.8 0 -2.06769e+06 19187.7 0 -2.06775e+06 19614.5 0 -2.06781e+06 20041.5 0 -2.06787e+06 20468.4 0 -2.06794e+06 20895.4 0 -2.068e+06 21322.4 0 -2.06807e+06 21749.4 0 -2.06813e+06 22176.5 0 -2.0682e+06 22603.6 0 -2.06827e+06 23030.8 0 -2.06834e+06 23458 0 -2.06841e+06 23885.2 0 -2.06849e+06 24312.5 0 -2.06856e+06 24739.8 0 -2.06864e+06 25167.2 0 -2.06872e+06 25594.6 0 -2.0688e+06 26022 0 -2.06888e+06 26449.5 0 -2.06896e+06 26877 0 -2.06904e+06 27304.6 0 -2.06912e+06 27732.2 0 -2.06921e+06 28159.9 0 -2.0693e+06 28587.6 0 -2.06938e+06 29015.3 0 -2.06947e+06 29443.1 0 -2.06956e+06 29871 0 -2.06966e+06 30298.9 0 -2.06975e+06 30726.8 0 -2.06984e+06 31154.8 0 -2.06994e+06 31582.9 0 -2.07004e+06 32011 0 -2.07013e+06 32439.1 0 -2.07023e+06 32867.3 0 -2.07033e+06 33295.6 0 -2.07044e+06 33723.9 0 -2.07054e+06 34152.3 0 -2.07065e+06 34580.7 0 -2.07075e+06 35009.2 0 -2.07086e+06 35437.7 0 -2.07097e+06 35866.3 0 -2.07108e+06 36295 0 -2.07119e+06 36723.7 0 -2.0713e+06 37152.5 0 -2.07142e+06 37581.3 0 -2.07153e+06 38010.2 0 -2.07165e+06 38439.2 0 -2.07177e+06 38868.2 0 -2.07189e+06 39297.3 0 -2.07201e+06 39726.5 0 -2.07213e+06 40155.7 0 -2.07225e+06 40585 0 -2.07238e+06 41014.4 0 -2.0725e+06 41443.8 0 -2.07263e+06 41873.3 0 -2.07276e+06 42302.9 0 -2.07289e+06 42732.5 0 -2.07302e+06 43162.2 0 -2.07315e+06 43592 0 -2.07328e+06 44021.8 0 -2.07342e+06 44451.7 0 -2.07356e+06 44881.7 0 -2.07369e+06 45311.8 0 -2.07383e+06 45741.9 0 -2.07397e+06 46172.2 0 -2.07411e+06 46602.5 0 -2.07426e+06 47032.8 0 -2.0744e+06 47463.3 0 -2.07455e+06 47893.8 0 -2.07469e+06 48324.4 0 -2.07484e+06 48755.1 0 -2.07499e+06 49185.9 0 -2.07514e+06 49616.7 0 -2.07529e+06 50047.7 0 -2.07545e+06 50478.7 0 -2.0756e+06 50909.8 0 -2.07576e+06 51341 0 -2.07592e+06 51772.2 0 -2.07607e+06 52203.6 0 -2.07623e+06 52635 0 -2.0764e+06 53066.6 0 -2.07656e+06 53498.2 0 -2.07672e+06 53929.9 0 -2.07689e+06 54361.7 0 -2.06606e+06 0 0 -2.06606e+06 432.139 0 -2.06606e+06 864.28 0 -2.06606e+06 1296.42 0 -2.06607e+06 1728.57 0 -2.06607e+06 2160.71 0 -2.06608e+06 2592.86 0 -2.06609e+06 3025.02 0 -2.0661e+06 3457.18 0 -2.06611e+06 3889.34 0 -2.06612e+06 4321.51 0 -2.06614e+06 4753.69 0 -2.06615e+06 5185.88 0 -2.06617e+06 5618.08 0 -2.06619e+06 6050.28 0 -2.06621e+06 6482.5 0 -2.06623e+06 6914.72 0 -2.06625e+06 7346.96 0 -2.06627e+06 7779.21 0 -2.0663e+06 8211.48 0 -2.06632e+06 8643.75 0 -2.06635e+06 9076.05 0 -2.06638e+06 9508.35 0 -2.06641e+06 9940.68 0 -2.06644e+06 10373 0 -2.06647e+06 10805.4 0 -2.06651e+06 11237.7 0 -2.06654e+06 11670.1 0 -2.06658e+06 12102.6 0 -2.06662e+06 12535 0 -2.06665e+06 12967.4 0 -2.0667e+06 13399.9 0 -2.06674