<?xml version="1.0"?> 
<VTKFile type="StructuredGrid" version="0.1"> 
<StructuredGrid WholeExtent="0 127 0 127 0 0"> 
<Piece Extent="0 127 0 127 0 0"> 
<PointData>
<DataArray type="Float32" Name="|E|" format="ascii" NumberOfComponents="3"> 
-1.62637e+06 1.55163e+06 0 -1.63186e+06 1.55951e+06 0 -1.63738e+06 1.56736e+06 0 -1.64295e+06 1.57518e+06 0 -1.64857e+06 1.58297e+06 0 -1.65423e+06 1.59073e+06 0 -1.65994e+06 1.59845e+06 0 -1.6657e+06 1.60615e+06 0 -1.67151e+06 1.6138e+06 0 -1.67737e+06 1.62142e+06 0 -1.68328e+06 1.629e+06 0 -1.68926e+06 1.63655e+06 0 -1.69528e+06 1.64405e+06 0 -1.70137e+06 1.65151e+06 0 -1.70752e+06 1.65893e+06 0 -1.71373e+06 1.6663e+06 0 -1.72001e+06 1.67363e+06 0 -1.72636e+06 1.68091e+06 0 -1.73277e+06 1.68814e+06 0 -1.73925e+06 1.69532e+06 0 -1.74581e+06 1.70244e+06 0 -1.75245e+06 1.70952e+06 0 -1.75916e+06 1.71654e+06 0 -1.76595e+06 1.7235e+06 0 -1.77283e+06 1.73041e+06 0 -1.7798e+06 1.73725e+06 0 -1.78685e+06 1.74403e+06 0 -1.794e+06 1.75075e+06 0 -1.80124e+06 1.75741e+06 0 -1.80858e+06 1.764e+06 0 -1.81602e+06 1.77052e+06 0 -1.82357e+06 1.77697e+06 0 -1.83122e+06 1.78334e+06 0 -1.83899e+06 1.78965e+06 0 -1.84687e+06 1.79587e+06 0 -1.85488e+06 1.80202e+06 0 -1.86301e+06 1.80809e+06 0 -1.87126e+06 1.81408e+06 0 -1.87965e+06 1.81998e+06 0 -1.88818e+06 1.8258e+06 0 -1.89684e+06 1.83153e+06 0 -1.90566e+06 1.83717e+06 0 -1.91462e+06 1.84272e+06 0 -1.92374e+06 1.84817e+06 0 -1.93302e+06 1.85352e+06 0 -1.94246e+06 1.85878e+06 0 -1.95208e+06 1.86393e+06 0 -1.96187e+06 1.86898e+06 0 -1.97185e+06 1.87393e+06 0 -1.98202e+06 1.87876e+06 0 -1.99238e+06 1.88348e+06 0 -2.00294e+06 1.88809e+06 0 -2.01371e+06 1.89258e+06 0 -2.02469e+06 1.89694e+06 0 -2.03589e+06 1.90119e+06 0 -2.04732e+06 1.9053e+06 0 -2.05899e+06 1.90929e+06 0 -2.0709e+06 1.91314e+06 0 -2.08306e+06 1.91686e+06 0 -2.09548e+06 1.92043e+06 0 -2.10817e+06 1.92385e+06 0 -2.12113e+06 1.92713e+06 0 -2.13437e+06 1.93025e+06 0 -2.14791e+06 1.93321e+06 0 -2.16175e+06 1.936e+06 0 -2.1759e+06 1.93863e+06 0 -2.19038e+06 1.94108e+06 0 -2.20518e+06 1.94334e+06 0 -2.22032e+06 1.94542e+06 0 -2.23582e+06 1.9473e+06 0 -2.25168e+06 1.94898e+06 0 -2.26792e+06 1.95045e+06 0 -2.28454e+06 1.95169e+06 0 -2.30156e+06 1.95271e+06 0 -2.31899e+06 1.95348e+06 0 -2.33685e+06 1.95401e+06 0 -2.35514e+06 1.95427e+06 0 -2.37389e+06 1.95425e+06 0 -2.39311e+06 1.95395e+06 0 -2.4128e+06 1.95334e+06 0 -2.43299e+06 1.95241e+06 0 -2.4537e+06 1.95114e+06 0 -2.47494e+06 1.94951e+06 0 -2.49672e+06 1.94751e+06 0 -2.51908e+06 1.9451e+06 0 -2.54202e+06 1.94226e+06 0 -2.56557e+06 1.93897e+06 0 -2.58974e+06 1.93519e+06 0 -2.61457e+06 1.9309e+06 0 -2.64007e+06 1.92605e+06 0 -2.66627e+06 1.92061e+06 0 -2.6932e+06 1.91453e+06 0 -2.72089e+06 1.90776e+06 0 -2.74936e+06 1.90026e+06 0 -2.77865e+06 1.89196e+06 0 -2.80879e+06 1.88281e+06 0 -2.83982e+06 1.87273e+06 0 -2.87178e+06 1.86165e+06 0 -2.90471e+06 1.84948e+06 0 -2.93866e+06 1.83614e+06 0 -2.97368e+06 1.82151e+06 0 -3.00983e+06 1.8055e+06 0 -3.04716e+06 1.78797e+06 0 -3.08575e+06 1.76878e+06 0 -3.12565e+06 1.7478e+06 0 -3.16697e+06 1.72486e+06 0 -3.20976e+06 1.69976e+06 0 -3.25415e+06 1.67232e+06 0 -3.30022e+06 1.6423e+06 0 -3.3481e+06 1.60947e+06 0 -3.39791e+06 1.57355e+06 0 -3.4498e+06 1.53425e+06 0 -3.50391e+06 1.49122e+06 0 -3.56041e+06 1.44411e+06 0 -3.6195e+06 1.39249e+06 0 -3.68136e+06 1.33591e+06 0 -3.74624e+06 1.27387e+06 0 -3.81436e+06 1.2058e+06 0 -3.88599e+06 1.13104e+06 0 -3.96143e+06 1.04889e+06 0 -4.04096e+06 958539 0 -4.12495e+06 859058 0 -4.21373e+06 749405 0 -4.30771e+06 628389 0 -4.40729e+06 494641 0 -4.51292e+06 346588 0 -4.62506e+06 182411 0 -4.74421e+06 3.8147e-06 0 -1.6239e+06 1.55612e+06 0 -1.62941e+06 1.56397e+06 0 -1.63496e+06 1.5718e+06 0 -1.64055e+06 1.5796e+06 0 -1.64619e+06 1.58736e+06 0 -1.65188e+06 1.5951e+06 0 -1.65761e+06 1.6028e+06 0 -1.6634e+06 1.61047e+06 0 -1.66923e+06 1.6181e+06 0 -1.67512e+06 1.6257e+06 0 -1.68107e+06 1.63326e+06 0 -1.68707e+06 1.64079e+06 0 -1.69313e+06 1.64827e+06 0 -1.69924e+06 1.65571e+06 0 -1.70542e+06 1.66311e+06 0 -1.71167e+06 1.67047e+06 0 -1.71797e+06 1.67778e+06 0 -1.72435e+06 1.68504e+06 0 -1.7308e+06 1.69225e+06 0 -1.73731e+06 1.69942e+06 0 -1.7439e+06 1.70654e+06 0 -1.75057e+06 1.7136e+06 0 -1.75732e+06 1.72061e+06 0 -1.76415e+06 1.72756e+06 0 -1.77106e+06 1.73445e+06 0 -1.77806e+06 1.74129e+06 0 -1.78515e+06 1.74806e+06 0 -1.79233e+06 1.75478e+06 0 -1.79961e+06 1.76143e+06 0 -1.80699e+06 1.76801e+06 0 -1.81447e+06 1.77453e+06 0 -1.82206e+06 1.78097e+06 0 -1.82975e+06 1.78735e+06 0 -1.83756e+06 1.79365e+06 0 -1.84548e+06 1.79988e+06 0 -1.85353e+06 1.80603e+06 0 -1.8617e+06 1.81211e+06 0 -1.86999e+06 1.8181e+06 0 -1.87843e+06 1.82401e+06 0 -1.88699e+06 1.82984e+06 0 -1.8957e+06 1.83557e+06 0 -1.90456e+06 1.84122e+06 0 -1.91356e+06 1.84678e+06 0 -1.92273e+06 1.85225e+06 0 -1.93205e+06 1.85762e+06 0 -1.94154e+06 1.86289e+06 0 -1.9512e+06 1.86807e+06 0 -1.96104e+06 1.87314e+06 0 -1.97106e+06 1.8781e+06 0 -1.98127e+06 1.88296e+06 0 -1.99168e+06 1.88771e+06 0 -2.00229e+06 1.89234e+06 0 -2.0131e+06 1.89686e+06 0 -2.02413e+06 1.90125e+06 0 -2.03538e+06 1.90553e+06 0 -2.04686e+06 1.90968e+06 0 -2.05858e+06 1.9137e+06 0 -2.07054e+06 1.91759e+06 0 -2.08274e+06 1.92134e+06 0 -2.09521e+06 1.92496e+06 0 -2.10795e+06 1.92843e+06 0 -2.12096e+06 1.93175e+06 0 -2.13426e+06 1.93491e+06 0 -2.14784e+06 1.93792e+06 0 -2.16173e+06 1.94077e+06 0 -2.17594e+06 1.94345e+06 0 -2.19046e+06 1.94595e+06 0 -2.20532e+06 1.94828e+06 0 -2.22052e+06 1.95042e+06 0 -2.23607e+06 1.95236e+06 0 -2.25199e+06 1.9541e+06 0 -2.26828e+06 1.95564e+06 0 -2.28496e+06 1.95695e+06 0 -2.30204e+06 1.95804e+06 0 -2.31953e+06 1.95889e+06 0 -2.33745e+06 1.95949e+06 0 -2.35581e+06 1.95983e+06 0 -2.37462e+06 1.9599e+06 0 -2.39391e+06 1.95968e+06 0 -2.41367e+06 1.95916e+06 0 -2.43394e+06 1.95832e+06 0 -2.45472e+06 1.95715e+06 0 -2.47604e+06 1.95562e+06 0 -2.4979e+06 1.95371e+06 0 -2.52034e+06 1.95141e+06 0 -2.54337e+06 1.94868e+06 0 -2.56702e+06 1.9455e+06 0 -2.59129e+06 1.94184e+06 0 -2.61622e+06 1.93766e+06 0 -2.64184e+06 1.93294e+06 0 -2.66816e+06 1.92762e+06 0 -2.69521e+06 1.92168e+06 0 -2.72303e+06 1.91506e+06 0 -2.75165e+06 1.9077e+06 0 -2.78109e+06 1.89956e+06 0 -2.81139e+06 1.89057e+06 0 -2.8426e+06 1.88066e+06 0 -2.87475e+06 1.86976e+06 0 -2.90789e+06 1.85778e+06 0 -2.94206e+06 1.84463e+06 0 -2.97732e+06 1.83022e+06 0 -3.01372e+06 1.81442e+06 0 -3.05133e+06 1.79713e+06 0 -3.09022e+06 1.7782e+06 0 -3.13045e+06 1.75748e+06 0 -3.17212e+06 1.73483e+06 0 -3.2153e+06 1.71004e+06 0 -3.2601e+06 1.68293e+06 0 -3.30662e+06 1.65328e+06 0 -3.35499e+06 1.62083e+06 0 -3.40534e+06 1.58534e+06 0 -3.4578e+06 1.54649e+06 0 -3.51254e+06 1.50396e+06 0 -3.56973e+06 1.45738e+06 0 -3.62956e+06 1.40635e+06 0 -3.69225e+06 1.35041e+06 0 -3.75801e+06 1.28907e+06 0 -3.8271e+06 1.22175e+06 0 -3.8998e+06 1.14782e+06 0 -3.9764e+06 1.06658e+06 0 -4.05722e+06 977211 0 -4.14262e+06 878812 0 -4.23297e+06 770342 0 -4.32867e+06 650621 0 -4.43018e+06 518292 0 -4.53795e+06 371794 0 -4.65249e+06 209324 0 -4.77434e+06 28790.1 0 -1.62143e+06 1.56062e+06 0 -1.62696e+06 1.56845e+06 0 -1.63253e+06 1.57625e+06 0 -1.63815e+06 1.58403e+06 0 -1.64381e+06 1.59177e+06 0 -1.64952e+06 1.59948e+06 0 -1.65529e+06 1.60716e+06 0 -1.6611e+06 1.61481e+06 0 -1.66696e+06 1.62242e+06 0 -1.67288e+06 1.63e+06 0 -1.67885e+06 1.63754e+06 0 -1.68488e+06 1.64504e+06 0 -1.69097e+06 1.65251e+06 0 -1.69711e+06 1.65993e+06 0 -1.70332e+06 1.66731e+06 0 -1.7096e+06 1.67465e+06 0 -1.71594e+06 1.68195e+06 0 -1.72234e+06 1.6892e+06 0 -1.72882e+06 1.6964e+06 0 -1.73537e+06 1.70355e+06 0 -1.742e+06 1.71065e+06 0 -1.7487e+06 1.7177e+06 0 -1.75548e+06 1.7247e+06 0 -1.76234e+06 1.73164e+06 0 -1.76929e+06 1.73853e+06 0 -1.77632e+06 1.74535e+06 0 -1.78345e+06 1.75212e+06 0 -1.79067e+06 1.75883e+06 0 -1.79799e+06 1.76547e+06 0 -1.8054e+06 1.77205e+06 0 -1.81292e+06 1.77857e+06 0 -1.82054e+06 1.78501e+06 0 -1.82828e+06 1.79139e+06 0 -1.83612e+06 1.79769e+06 0 -1.84409e+06 1.80392e+06 0 -1.85217e+06 1.81008e+06 0 -1.86038e+06 1.81615e+06 0 -1.86872e+06 1.82215e+06 0 -1.87719e+06 1.82807e+06 0 -1.8858e+06 1.8339e+06 0 -1.89455e+06 1.83965e+06 0 -1.90345e+06 1.84531e+06 0 -1.9125e+06 1.85089e+06 0 -1.92171e+06 1.85637e+06 0 -1.93107e+06 1.86175e+06 0 -1.94061e+06 1.86704e+06 0 -1.95031e+06 1.87223e+06 0 -1.9602e+06 1.87733e+06 0 -1.97026e+06 1.88231e+06 0 -1.98052e+06 1.88719e+06 0 -1.99097e+06 1.89197e+06 0 -2.00163e+06 1.89663e+06 0 -2.01249e+06 1.90117e+06 0 -2.02356e+06 1.9056e+06 0 -2.03486e+06 1.90991e+06 0 -2.04639e+06 1.91409e+06 0 -2.05815e+06 1.91815e+06 0 -2.07016e+06 1.92208e+06 0 -2.08242e+06 1.92587e+06 0 -2.09494e+06 1.92953e+06 0 -2.10772e+06 1.93304e+06 0 -2.12078e+06 1.9364e+06 0 -2.13413e+06 1.93962e+06 0 -2.14777e+06 1.94268e+06 0 -2.16171e+06 1.94558e+06 0 -2.17596e+06 1.94831e+06 0 -2.19054e+06 1.95087e+06 0 -2.20545e+06 1.95325e+06 0 -2.2207e+06 1.95545e+06 0 -2.23631e+06 1.95746e+06 0 -2.25228e+06 1.95927e+06 0 -2.26863e+06 1.96087e+06 0 -2.28537e+06 1.96225e+06 0 -2.30251e+06 1.96341e+06 0 -2.32006e+06 1.96434e+06 0 -2.33805e+06 1.96502e+06 0 -2.35647e+06 1.96544e+06 0 -2.37535e+06 1.96559e+06 0 -2.3947e+06 1.96546e+06 0 -2.41453e+06 1.96502e+06 0 -2.43487e+06 1.96428e+06 0 -2.45573e+06 1.9632e+06 0 -2.47712e+06 1.96177e+06 0 -2.49907e+06 1.95996e+06 0 -2.5216e+06 1.95776e+06 0 -2.54472e+06 1.95514e+06 0 -2.56846e+06 1.95208e+06 0 -2.59283e+06 1.94853e+06 0 -2.61787e+06 1.94448e+06 0 -2.6436e+06 1.93988e+06 0 -2.67004e+06 1.9347e+06 0 -2.69722e+06 1.92889e+06 0 -2.72517e+06 1.92241e+06 0 -2.75393e+06 1.9152e+06 0 -2.78352e+06 1.90722e+06 0 -2.81399e+06 1.89839e+06 0 -2.84537e+06 1.88865e+06 0 -2.87771e+06 1.87793e+06 0 -2.91105e+06 1.86614e+06 0 -2.94544e+06 1.8532e+06 0 -2.98094e+06 1.83899e+06 0 -3.0176e+06 1.82343e+06 0 -3.05549e+06 1.80637e+06 0 -3.09467e+06 1.7877e+06 0 -3.13523e+06 1.76726e+06 0 -3.17724e+06 1.74489e+06 0 -3.2208e+06 1.72042e+06 0 -3.26602e+06 1.69365e+06 0 -3.31299e+06 1.66436e+06 0 -3.36184e+06 1.63232e+06 0 -3.41272e+06 1.59724e+06 0 -3.46575e+06 1.55886e+06 0 -3.52112e+06 1.51683e+06 0 -3.57899e+06 1.4708e+06 0 -3.63956e+06 1.42036e+06 0 -3.70305e+06 1.36507e+06 0 -3.76969e+06 1.30443e+06 0 -3.83975e+06 1.23788e+06 0 -3.9135e+06 1.1648e+06 0 -3.99126e+06 1.08447e+06 0 -4.07335e+06 996108 0 -4.16015e+06 898805 0 -4.25204e+06 791537 0 -4.34946e+06 673131 0 -4.45286e+06 542245 0 -4.56276e+06 397329 0 -4.67968e+06 236598 0 -4.80419e+06 57976.6 0 -1.61895e+06 1.56514e+06 0 -1.62451e+06 1.57295e+06 0 -1.6301e+06 1.58072e+06 0 -1.63574e+06 1.58847e+06 0 -1.64143e+06 1.59619e+06 0 -1.64717e+06 1.60388e+06 0 -1.65296e+06 1.61154e+06 0 -1.6588e+06 1.61917e+06 0 -1.66469e+06 1.62676e+06 0 -1.67063e+06 1.63432e+06 0 -1.67663e+06 1.64184e+06 0 -1.68269e+06 1.64932e+06 0 -1.68881e+06 1.65677e+06 0 -1.69498e+06 1.66418e+06 0 -1.70122e+06 1.67154e+06 0 -1.70753e+06 1.67886e+06 0 -1.7139e+06 1.68614e+06 0 -1.72034e+06 1.69338e+06 0 -1.72684e+06 1.70056e+06 0 -1.73343e+06 1.7077e+06 0 -1.74008e+06 1.71479e+06 0 -1.74682e+06 1.72183e+06 0 -1.75363e+06 1.72882e+06 0 -1.76053e+06 1.73575e+06 0 -1.76752e+06 1.74263e+06 0 -1.77459e+06 1.74945e+06 0 -1.78175e+06 1.75621e+06 0 -1.789e+06 1.76291e+06 0 -1.79636e+06 1.76955e+06 0 -1.80381e+06 1.77613e+06 0 -1.81136e+06 1.78264e+06 0 -1.81903e+06 1.78908e+06 0 -1.8268e+06 1.79546e+06 0 -1.83469e+06 1.80176e+06 0 -1.84269e+06 1.80799e+06 0 -1.85082e+06 1.81415e+06 0 -1.85907e+06 1.82023e+06 0 -1.86744e+06 1.82624e+06 0 -1.87596e+06 1.83216e+06 0 -1.88461e+06 1.83801e+06 0 -1.8934e+06 1.84376e+06 0 -1.90234e+06 1.84944e+06 0 -1.91143e+06 1.85502e+06 0 -1.92068e+06 1.86052e+06 0 -1.93009e+06 1.86592e+06 0 -1.93967e+06 1.87123e+06 0 -1.94942e+06 1.87644e+06 0 -1.95935e+06 1.88155e+06 0 -1.96946e+06 1.88656e+06 0 -1.97976e+06 1.89146e+06 0 -1.99026e+06 1.89626e+06 0 -2.00096e+06 1.90095e+06 0 -2.01187e+06 1.90552e+06 0 -2.02299e+06 1.90998e+06 0 -2.03434e+06 1.91432e+06 0 -2.04591e+06 1.91854e+06 0 -2.05772e+06 1.92264e+06 0 -2.06978e+06 1.9266e+06 0 -2.08208e+06 1.93044e+06 0 -2.09465e+06 1.93413e+06 0 -2.10748e+06 1.93769e+06 0 -2.12059e+06 1.9411e+06 0 -2.13399e+06 1.94436e+06 0 -2.14768e+06 1.94747e+06 0 -2.16167e+06 1.95043e+06 0 -2.17598e+06 1.95321e+06 0 -2.19061e+06 1.95583e+06 0 -2.20557e+06 1.95827e+06 0 -2.22088e+06 1.96053e+06 0 -2.23654e+06 1.9626e+06 0 -2.25257e+06 1.96447e+06 0 -2.26898e+06 1.96614e+06 0 -2.28577e+06 1.9676e+06 0 -2.30297e+06 1.96883e+06 0 -2.32059e+06 1.96983e+06 0 -2.33863e+06 1.97059e+06 0 -2.35712e+06 1.97109e+06 0 -2.37606e+06 1.97132e+06 0 -2.39548e+06 1.97128e+06 0 -2.41538e+06 1.97093e+06 0 -2.43579e+06 1.97028e+06 0 -2.45673e+06 1.96929e+06 0 -2.4782e+06 1.96796e+06 0 -2.50023e+06 1.96626e+06 0 -2.52285e+06 1.96417e+06 0 -2.54606e+06 1.96166e+06 0 -2.56989e+06 1.9587e+06 0 -2.59436e+06 1.95528e+06 0 -2.61951e+06 1.95135e+06 0 -2.64534e+06 1.94688e+06 0 -2.6719e+06 1.94183e+06 0 -2.69921e+06 1.93616e+06 0 -2.72729e+06 1.92982e+06 0 -2.75619e+06 1.92277e+06 0 -2.78594e+06 1.91494e+06 0 -2.81657e+06 1.90628e+06 0 -2.84813e+06 1.89671e+06 0 -2.88066e+06 1.88617e+06 0 -2.9142e+06 1.87458e+06 0 -2.94881e+06 1.86184e+06 0 -2.98454e+06 1.84785e+06 0 -3.02146e+06 1.83251e+06 0 -3.05962e+06 1.8157e+06 0 -3.0991e+06 1.79729e+06 0 -3.13998e+06 1.77713e+06 0 -3.18234e+06 1.75506e+06 0 -3.22628e+06 1.73091e+06 0 -3.2719e+06 1.70448e+06 0 -3.31932e+06 1.67556e+06 0 -3.36865e+06 1.64391e+06 0 -3.42005e+06 1.60928e+06 0 -3.47365e+06 1.57136e+06 0 -3.52964e+06 1.52984e+06 0 -3.58818e+06 1.48436e+06 0 -3.64948e+06 1.43453e+06 0 -3.71377e+06 1.37989e+06 0 -3.78129e+06 1.31997e+06 0 -3.8523e+06 1.2542e+06 0 -3.92709e+06 1.18197e+06 0 -4.00599e+06 1.10257e+06 0 -4.08934e+06 1.01523e+06 0 -4.17752e+06 919038 0 -4.27094e+06 812989 0 -4.37006e+06 695919 0 -4.47534e+06 566498 0 -4.58734e+06 423192 0 -4.7066e+06 264230 0 -4.83376e+06 87556.7 0 -1.61648e+06 1.56967e+06 0 -1.62205e+06 1.57745e+06 0 -1.62767e+06 1.58521e+06 0 -1.63334e+06 1.59293e+06 0 -1.63905e+06 1.60063e+06 0 -1.64482e+06 1.6083e+06 0 -1.65063e+06 1.61594e+06 0 -1.6565e+06 1.62354e+06 0 -1.66241e+06 1.63112e+06 0 -1.66839e+06 1.63865e+06 0 -1.67441e+06 1.64616e+06 0 -1.6805e+06 1.65362e+06 0 -1.68664e+06 1.66105e+06 0 -1.69285e+06 1.66844e+06 0 -1.69912e+06 1.67579e+06 0 -1.70545e+06 1.6831e+06 0 -1.71186e+06 1.69036e+06 0 -1.71833e+06 1.69758e+06 0 -1.72487e+06 1.70475e+06 0 -1.73148e+06 1.71188e+06 0 -1.73817e+06 1.71896e+06 0 -1.74494e+06 1.72599e+06 0 -1.75179e+06 1.73296e+06 0 -1.75872e+06 1.73989e+06 0 -1.76574e+06 1.74676e+06 0 -1.77285e+06 1.75357e+06 0 -1.78004e+06 1.76032e+06 0 -1.78734e+06 1.76702e+06 0 -1.79472e+06 1.77365e+06 0 -1.80221e+06 1.78023e+06 0 -1.80981e+06 1.78674e+06 0 -1.81751e+06 1.79318e+06 0 -1.82532e+06 1.79955e+06 0 -1.83324e+06 1.80586e+06 0 -1.84129e+06 1.8121e+06 0 -1.84945e+06 1.81826e+06 0 -1.85774e+06 1.82435e+06 0 -1.86616e+06 1.83036e+06 0 -1.87472e+06 1.83629e+06 0 -1.88341e+06 1.84214e+06 0 -1.89224e+06 1.84791e+06 0 -1.90123e+06 1.8536e+06 0 -1.91036e+06 1.85919e+06 0 -1.91965e+06 1.8647e+06 0 -1.92911e+06 1.87012e+06 0 -1.93873e+06 1.87545e+06 0 -1.94852e+06 1.88068e+06 0 -1.9585e+06 1.88581e+06 0 -1.96865e+06 1.89084e+06 0 -1.979e+06 1.89577e+06 0 -1.98954e+06 1.90059e+06 0 -2.00029e+06 1.90531e+06 0 -2.01124e+06 1.90991e+06 0 -2.02241e+06 1.9144e+06 0 -2.0338e+06 1.91878e+06 0 -2.04542e+06 1.92303e+06 0 -2.05728e+06 1.92716e+06 0 -2.06938e+06 1.93117e+06 0 -2.08174e+06 1.93504e+06 0 -2.09435e+06 1.93878e+06 0 -2.10724e+06 1.94238e+06 0 -2.1204e+06 1.94584e+06 0 -2.13384e+06 1.94915e+06 0 -2.14758e+06 1.95231e+06 0 -2.16163e+06 1.95531e+06 0 -2.17599e+06 1.95815e+06 0 -2.19067e+06 1.96083e+06 0 -2.20569e+06 1.96333e+06 0 -2.22105e+06 1.96565e+06 0 -2.23676e+06 1.96778e+06 0 -2.25285e+06 1.96972e+06 0 -2.26931e+06 1.97146e+06 0 -2.28616e+06 1.97298e+06 0 -2.30342e+06 1.97429e+06 0 -2.3211e+06 1.97536e+06 0 -2.3392e+06 1.9762e+06 0 -2.35775e+06 1.97678e+06 0 -2.37676e+06 1.9771e+06 0 -2.39625e+06 1.97714e+06 0 -2.41622e+06 1.97689e+06 0 -2.43671e+06 1.97632e+06 0 -2.45772e+06 1.97544e+06 0 -2.47927e+06 1.9742e+06 0 -2.50138e+06 1.9726e+06 0 -2.52408e+06 1.97062e+06 0 -2.54738e+06 1.96822e+06 0 -2.57131e+06 1.96538e+06 0 -2.59588e+06 1.96207e+06 0 -2.62113e+06 1.95827e+06 0 -2.64708e+06 1.95393e+06 0 -2.67376e+06 1.94901e+06 0 -2.70119e+06 1.94348e+06 0 -2.72941e+06 1.93729e+06 0 -2.75845e+06 1.93039e+06 0 -2.78835e+06 1.92272e+06 0 -2.81915e+06 1.91423e+06 0 -2.85088e+06 1.90484e+06 0 -2.88359e+06 1.89449e+06 0 -2.91734e+06 1.88309e+06 0 -2.95217e+06 1.87055e+06 0 -2.98813e+06 1.85678e+06 0 -3.0253e+06 1.84168e+06 0 -3.06373e+06 1.82512e+06 0 -3.10351e+06 1.80697e+06 0 -3.14471e+06 1.78709e+06 0 -3.18741e+06 1.76532e+06 0 -3.23173e+06 1.7415e+06 0 -3.27775e+06 1.71542e+06 0 -3.32561e+06 1.68687e+06 0 -3.37542e+06 1.65563e+06 0 -3.42734e+06 1.62143e+06 0 -3.4815e+06 1.58399e+06 0 -3.5381e+06 1.54299e+06 0 -3.59731e+06 1.49807e+06 0 -3.65934e+06 1.44885e+06 0 -3.72442e+06 1.39488e+06 0 -3.79279e+06 1.33568e+06 0 -3.86475e+06 1.2707e+06 0 -3.94057e+06 1.19933e+06 0 -4.0206e+06 1.12088e+06 0 -4.1052e+06 1.03457e+06 0 -4.19475e+06 939508 0 -4.28968e+06 834696 0 -4.39047e+06 718983 0 -4.49762e+06 591050 0 -4.61168e+06 449380 0 -4.73327e+06 292218 0 -4.86303e+06 117527 0 -1.614e+06 1.57422e+06 0 -1.6196e+06 1.58198e+06 0 -1.62524e+06 1.58971e+06 0 -1.63093e+06 1.59741e+06 0 -1.63667e+06 1.60509e+06 0 -1.64246e+06 1.61274e+06 0 -1.6483e+06 1.62035e+06 0 -1.65419e+06 1.62794e+06 0 -1.66014e+06 1.63549e+06 0 -1.66614e+06 1.64301e+06 0 -1.67219e+06 1.6505e+06 0 -1.67831e+06 1.65794e+06 0 -1.68448e+06 1.66535e+06 0 -1.69072e+06 1.67273e+06 0 -1.69702e+06 1.68006e+06 0 -1.70338e+06 1.68735e+06 0 -1.70981e+06 1.6946e+06 0 -1.71631e+06 1.70181e+06 0 -1.72289e+06 1.70897e+06 0 -1.72953e+06 1.71608e+06 0 -1.73626e+06 1.72315e+06 0 -1.74306e+06 1.73017e+06 0 -1.74994e+06 1.73713e+06 0 -1.75691e+06 1.74405e+06 0 -1.76396e+06 1.75091e+06 0 -1.7711e+06 1.75772e+06 0 -1.77834e+06 1.76447e+06 0 -1.78566e+06 1.77116e+06 0 -1.79309e+06 1.77779e+06 0 -1.80062e+06 1.78436e+06 0 -1.80825e+06 1.79087e+06 0 -1.81599e+06 1.79731e+06 0 -1.82384e+06 1.80368e+06 0 -1.8318e+06 1.80999e+06 0 -1.83988e+06 1.81623e+06 0 -1.84809e+06 1.8224e+06 0 -1.85642e+06 1.82849e+06 0 -1.86488e+06 1.83451e+06 0 -1.87347e+06 1.84045e+06 0 -1.88221e+06 1.84631e+06 0 -1.89108e+06 1.85209e+06 0 -1.90011e+06 1.85779e+06 0 -1.90928e+06 1.8634e+06 0 -1.91862e+06 1.86892e+06 0 -1.92812e+06 1.87436e+06 0 -1.93778e+06 1.8797e+06 0 -1.94762e+06 1.88495e+06 0 -1.95764e+06 1.8901e+06 0 -1.96784e+06 1.89516e+06 0 -1.97823e+06 1.90011e+06 0 -1.98882e+06 1.90496e+06 0 -1.99961e+06 1.90971e+06 0 -2.01061e+06 1.91434e+06 0 -2.02182e+06 1.91886e+06 0 -2.03326e+06 1.92327e+06 0 -2.04493e+06 1.92756e+06 0 -2.05683e+06 1.93172e+06 0 -2.06898e+06 1.93577e+06 0 -2.08139e+06 1.93968e+06 0 -2.09405e+06 1.94346e+06 0 -2.10698e+06 1.94711e+06 0 -2.12019e+06 1.95061e+06 0 -2.13369e+06 1.95397e+06 0 -2.14748e+06 1.95718e+06 0 -2.16157e+06 1.96024e+06 0 -2.17598e+06 1.96313e+06 0 -2.19072e+06 1.96586e+06 0 -2.20579e+06 1.96842e+06 0 -2.2212e+06 1.9708e+06 0 -2.23697e+06 1.973e+06 0 -2.25311e+06 1.97501e+06 0 -2.26963e+06 1.97681e+06 0 -2.28655e+06 1.97841e+06 0 -2.30386e+06 1.97979e+06 0 -2.3216e+06 1.98094e+06 0 -2.33977e+06 1.98185e+06 0 -2.35838e+06 1.98252e+06 0 -2.37746e+06 1.98292e+06 0 -2.39701e+06 1.98305e+06 0 -2.41706e+06 1.98288e+06 0 -2.43761e+06 1.98242e+06 0 -2.4587e+06 1.98163e+06 0 -2.48033e+06 1.98049e+06 0 -2.50252e+06 1.979e+06 0 -2.52531e+06 1.97712e+06 0 -2.5487e+06 1.97483e+06 0 -2.57272e+06 1.97211e+06 0 -2.59739e+06 1.96892e+06 0 -2.62275e+06 1.96524e+06 0 -2.64881e+06 1.96103e+06 0 -2.6756e+06 1.95625e+06 0 -2.70316e+06 1.95086e+06 0 -2.73151e+06 1.94482e+06 0 -2.76069e+06 1.93807e+06 0 -2.79075e+06 1.93057e+06 0 -2.8217e+06 1.92224e+06 0 -2.85361e+06 1.91303e+06 0 -2.88651e+06 1.90287e+06 0 -2.92046e+06 1.89167e+06 0 -2.9555e+06 1.87934e+06 0 -2.9917e+06 1.8658e+06 0 -3.02912e+06 1.85093e+06 0 -3.06782e+06 1.83462e+06 0 -3.10789e+06 1.81673e+06 0 -3.14941e+06 1.79714e+06 0 -3.19246e+06 1.77568e+06 0 -3.23714e+06 1.75218e+06 0 -3.28357e+06 1.72646e+06 0 -3.33186e+06 1.6983e+06 0 -3.38215e+06 1.66747e+06 0 -3.43457e+06 1.63372e+06 0 -3.4893e+06 1.59676e+06 0 -3.5465e+06 1.55628e+06 0 -3.60637e+06 1.51193e+06 0 -3.66912e+06 1.46332e+06 0 -3.73498e+06 1.41003e+06 0 -3.80421e+06 1.35156e+06 0 -3.87709e+06 1.28738e+06 0 -3.95394e+06 1.21689e+06 0 -4.03509e+06 1.1394e+06 0 -4.12091e+06 1.05413e+06 0 -4.21182e+06 960214 0 -4.30824e+06 856658 0 -4.41069e+06 742321 0 -4.51967e+06 615900 0 -4.63579e+06 475891 0 -4.75967e+06 320558 0 -4.89201e+06 147886 0 -1.61152e+06 1.57878e+06 0 -1.61714e+06 1.58652e+06 0 -1.62281e+06 1.59422e+06 0 -1.62853e+06 1.60191e+06 0 -1.63429e+06 1.60956e+06 0 -1.6401e+06 1.61719e+06 0 -1.64597e+06 1.62479e+06 0 -1.65189e+06 1.63235e+06 0 -1.65786e+06 1.63989e+06 0 -1.66389e+06 1.64739e+06 0 -1.66997e+06 1.65485e+06 0 -1.67611e+06 1.66228e+06 0 -1.68232e+06 1.66968e+06 0 -1.68858e+06 1.67704e+06 0 -1.69491e+06 1.68435e+06 0 -1.7013e+06 1.69163e+06 0 -1.70777e+06 1.69887e+06 0 -1.7143e+06 1.70606e+06 0 -1.7209e+06 1.71321e+06 0 -1.72758e+06 1.72031e+06 0 -1.73434e+06 1.72737e+06 0 -1.74117e+06 1.73437e+06 0 -1.74809e+06 1.74133e+06 0 -1.75509e+06 1.74824e+06 0 -1.76218e+06 1.75509e+06 0 -1.76936e+06 1.76189e+06 0 -1.77662e+06 1.76863e+06 0 -1.78399e+06 1.77532e+06 0 -1.79145e+06 1.78195e+06 0 -1.79901e+06 1.78852e+06 0 -1.80668e+06 1.79502e+06 0 -1.81446e+06 1.80147e+06 0 -1.82235e+06 1.80784e+06 0 -1.83035e+06 1.81415e+06 0 -1.83847e+06 1.82039e+06 0 -1.84671e+06 1.82657e+06 0 -1.85509e+06 1.83266e+06 0 -1.86359e+06 1.83869e+06 0 -1.87222e+06 1.84464e+06 0 -1.881e+06 1.85051e+06 0 -1.88991e+06 1.8563e+06 0 -1.89898e+06 1.86201e+06 0 -1.9082e+06 1.86764e+06 0 -1.91758e+06 1.87318e+06 0 -1.92712e+06 1.87863e+06 0 -1.93683e+06 1.88399e+06 0 -1.94671e+06 1.88926e+06 0 -1.95677e+06 1.89444e+06 0 -1.96701e+06 1.89951e+06 0 -1.97745e+06 1.90449e+06 0 -1.98808e+06 1.90937e+06 0 -1.99892e+06 1.91414e+06 0 -2.00996e+06 1.9188e+06 0 -2.02123e+06 1.92336e+06 0 -2.03271e+06 1.9278e+06 0 -2.04443e+06 1.93212e+06 0 -2.05638e+06 1.93632e+06 0 -2.06858e+06 1.94041e+06 0 -2.08103e+06 1.94436e+06 0 -2.09374e+06 1.94818e+06 0 -2.10672e+06 1.95187e+06 0 -2.11998e+06 1.95542e+06 0 -2.13352e+06 1.95883e+06 0 -2.14736e+06 1.96209e+06 0 -2.16151e+06 1.9652e+06 0 -2.17597e+06 1.96815e+06 0 -2.19076e+06 1.97094e+06 0 -2.20588e+06 1.97356e+06 0 -2.22135e+06 1.976e+06 0 -2.23717e+06 1.97826e+06 0 -2.25337e+06 1.98033e+06 0 -2.26995e+06 1.98221e+06 0 -2.28692e+06 1.98388e+06 0 -2.30429e+06 1.98533e+06 0 -2.32209e+06 1.98656e+06 0 -2.34032e+06 1.98755e+06 0 -2.359e+06 1.9883e+06 0 -2.37814e+06 1.98878e+06 0 -2.39776e+06 1.989e+06 0 -2.41788e+06 1.98893e+06 0 -2.43851e+06 1.98855e+06 0 -2.45966e+06 1.98786e+06 0 -2.48137e+06 1.98683e+06 0 -2.50365e+06 1.98544e+06 0 -2.52652e+06 1.98367e+06 0 -2.55e+06 1.98149e+06 0 -2.57412e+06 1.97889e+06 0 -2.59889e+06 1.97582e+06 0 -2.62435e+06 1.97227e+06 0 -2.65052e+06 1.96819e+06 0 -2.67743e+06 1.96355e+06 0 -2.70511e+06 1.9583e+06 0 -2.7336e+06 1.95241e+06 0 -2.76293e+06 1.94582e+06 0 -2.79313e+06 1.93848e+06 0 -2.82425e+06 1.93032e+06 0 -2.85633e+06 1.9213e+06 0 -2.88942e+06 1.91132e+06 0 -2.92356e+06 1.90032e+06 0 -2.95882e+06 1.88821e+06 0 -2.99525e+06 1.87489e+06 0 -3.03292e+06 1.86026e+06 0 -3.07189e+06 1.8442e+06 0 -3.11225e+06 1.82659e+06 0 -3.15408e+06 1.80729e+06 0 -3.19747e+06 1.78614e+06 0 -3.24252e+06 1.76298e+06 0 -3.28935e+06 1.73761e+06 0 -3.33807e+06 1.70984e+06 0 -3.38883e+06 1.67942e+06 0 -3.44176e+06 1.64612e+06 0 -3.49704e+06 1.60965e+06 0 -3.55484e+06 1.5697e+06 0 -3.61536e+06 1.52593e+06 0 -3.67882e+06 1.47795e+06 0 -3.74546e+06 1.42534e+06 0 -3.81553e+06 1.36762e+06 0 -3.88934e+06 1.30425e+06 0 -3.96719e+06 1.23464e+06 0 -4.04945e+06 1.15812e+06 0 -4.13649e+06 1.07391e+06 0 -4.22873e+06 981157 0 -4.32663e+06 878872 0 -4.43071e+06 765932 0 -4.54152e+06 641044 0 -4.65966e+06 502723 0 -4.7858e+06 349249 0 -4.92068e+06 178628 0 -1.60903e+06 1.58336e+06 0 -1.61468e+06 1.59107e+06 0 -1.62037e+06 1.59876e+06 0 -1.62612e+06 1.60642e+06 0 -1.63191e+06 1.61405e+06 0 -1.63775e+06 1.62166e+06 0 -1.64364e+06 1.62924e+06 0 -1.64958e+06 1.63678e+06 0 -1.65558e+06 1.6443e+06 0 -1.66163e+06 1.65178e+06 0 -1.66775e+06 1.65923e+06 0 -1.67392e+06 1.66665e+06 0 -1.68015e+06 1.67402e+06 0 -1.68644e+06 1.68136e+06 0 -1.6928e+06 1.68867e+06 0 -1.69923e+06 1.69593e+06 0 -1.70572e+06 1.70315e+06 0 -1.71228e+06 1.71033e+06 0 -1.71892e+06 1.71747e+06 0 -1.72563e+06 1.72456e+06 0 -1.73242e+06 1.73161e+06 0 -1.73929e+06 1.7386e+06 0 -1.74624e+06 1.74555e+06 0 -1.75327e+06 1.75245e+06 0 -1.76039e+06 1.7593e+06 0 -1.76761e+06 1.76609e+06 0 -1.77491e+06 1.77283e+06 0 -1.78231e+06 1.77952e+06 0 -1.78981e+06 1.78614e+06 0 -1.79741e+06 1.79271e+06 0 -1.80511e+06 1.79921e+06 0 -1.81293e+06 1.80565e+06 0 -1.82085e+06 1.81203e+06 0 -1.8289e+06 1.81835e+06 0 -1.83706e+06 1.82459e+06 0 -1.84534e+06 1.83077e+06 0 -1.85375e+06 1.83687e+06 0 -1.86229e+06 1.8429e+06 0 -1.87097e+06 1.84886e+06 0 -1.87978e+06 1.85474e+06 0 -1.88874e+06 1.86055e+06 0 -1.89785e+06 1.86627e+06 0 -1.90711e+06 1.87191e+06 0 -1.91653e+06 1.87747e+06 0 -1.92611e+06 1.88294e+06 0 -1.93586e+06 1.88832e+06 0 -1.94579e+06 1.89361e+06 0 -1.95589e+06 1.8988e+06 0 -1.96618e+06 1.9039e+06 0 -1.97666e+06 1.90891e+06 0 -1.98734e+06 1.91381e+06 0 -1.99822e+06 1.91861e+06 0 -2.00931e+06 1.9233e+06 0 -2.02062e+06 1.92789e+06 0 -2.03215e+06 1.93236e+06 0 -2.04391e+06 1.93672e+06 0 -2.05591e+06 1.94096e+06 0 -2.06816e+06 1.94508e+06 0 -2.08066e+06 1.94908e+06 0 -2.09342e+06 1.95294e+06 0 -2.10644e+06 1.95668e+06 0 -2.11975e+06 1.96028e+06 0 -2.13335e+06 1.96373e+06 0 -2.14724e+06 1.96705e+06 0 -2.16144e+06 1.97021e+06 0 -2.17595e+06 1.97321e+06 0 -2.19079e+06 1.97606e+06 0 -2.20596e+06 1.97874e+06 0 -2.22148e+06 1.98124e+06 0 -2.23737e+06 1.98357e+06 0 -2.25362e+06 1.9857e+06 0 -2.27025e+06 1.98765e+06 0 -2.28728e+06 1.98939e+06 0 -2.30471e+06 1.99091e+06 0 -2.32257e+06 1.99222e+06 0 -2.34086e+06 1.99329e+06 0 -2.3596e+06 1.99412e+06 0 -2.37881e+06 1.99469e+06 0 -2.3985e+06 1.995e+06 0 -2.41868e+06 1.99502e+06 0 -2.43939e+06 1.99474e+06 0 -2.46062e+06 1.99414e+06 0 -2.48241e+06 1.99321e+06 0 -2.50477e+06 1.99193e+06 0 -2.52773e+06 1.99027e+06 0 -2.5513e+06 1.98821e+06 0 -2.5755e+06 1.98572e+06 0 -2.60038e+06 1.98278e+06 0 -2.62594e+06 1.97935e+06 0 -2.65222e+06 1.9754e+06 0 -2.67925e+06 1.9709e+06 0 -2.70706e+06 1.9658e+06 0 -2.73568e+06 1.96006e+06 0 -2.76514e+06 1.95362e+06 0 -2.7955e+06 1.94645e+06 0 -2.82678e+06 1.93847e+06 0 -2.85903e+06 1.92963e+06 0 -2.8923e+06 1.91984e+06 0 -2.92665e+06 1.90905e+06 0 -2.96212e+06 1.89715e+06 0 -2.99878e+06 1.88406e+06 0 -3.0367e+06 1.86967e+06 0 -3.07594e+06 1.85387e+06 0 -3.11659e+06 1.83654e+06 0 -3.15873e+06 1.81753e+06 0 -3.20245e+06 1.7967e+06 0 -3.24787e+06 1.77387e+06 0 -3.29509e+06 1.74887e+06 0 -3.34425e+06 1.72148e+06 0 -3.39546e+06 1.6915e+06 0 -3.4489e+06 1.65865e+06 0 -3.50473e+06 1.62268e+06 0 -3.56312e+06 1.58326e+06 0 -3.62429e+06 1.54007e+06 0 -3.68845e+06 1.49273e+06 0 -3.75585e+06 1.44081e+06 0 -3.82676e+06 1.38384e+06 0 -3.90148e+06 1.3213e+06 0 -3.98033e+06 1.25259e+06 0 -4.06368e+06 1.17704e+06 0 -4.15192e+06 1.09391e+06 0 -4.24548e+06 1.00233e+06 0 -4.34485e+06 901339 0 -4.45054e+06 789814 0 -4.56314e+06 666482 0 -4.68328e+06 529874 0 -4.81166e+06 378288 0 -4.94905e+06 209752 0 -1.60655e+06 1.58795e+06 0 -1.61222e+06 1.59564e+06 0 -1.61794e+06 1.60331e+06 0 -1.6237e+06 1.61095e+06 0 -1.62952e+06 1.61856e+06 0 -1.63538e+06 1.62615e+06 0 -1.6413e+06 1.63371e+06 0 -1.64727e+06 1.64123e+06 0 -1.6533e+06 1.64873e+06 0 -1.65938e+06 1.6562e+06 0 -1.66552e+06 1.66363e+06 0 -1.67172e+06 1.67103e+06 0 -1.67798e+06 1.67839e+06 0 -1.6843e+06 1.68572e+06 0 -1.69069e+06 1.693e+06 0 -1.69715e+06 1.70025e+06 0 -1.70367e+06 1.70746e+06 0 -1.71026e+06 1.71463e+06 0 -1.71693e+06 1.72176e+06 0 -1.72368e+06 1.72884e+06 0 -1.7305e+06 1.73587e+06 0 -1.7374e+06 1.74286e+06 0 -1.74438e+06 1.7498e+06 0 -1.75145e+06 1.75669e+06 0 -1.75861e+06 1.76353e+06 0 -1.76585e+06 1.77032e+06 0 -1.77319e+06 1.77706e+06 0 -1.78063e+06 1.78374e+06 0 -1.78816e+06 1.79036e+06 0 -1.7958e+06 1.79692e+06 0 -1.80354e+06 1.80343e+06 0 -1.81139e+06 1.80987e+06 0 -1.81936e+06 1.81625e+06 0 -1.82744e+06 1.82257e+06 0 -1.83564e+06 1.82882e+06 0 -1.84396e+06 1.835e+06 0 -1.85241e+06 1.84111e+06 0 -1.86099e+06 1.84715e+06 0 -1.86971e+06 1.85312e+06 0 -1.87856e+06 1.85901e+06 0 -1.88756e+06 1.86483e+06 0 -1.89671e+06 1.87056e+06 0 -1.90602e+06 1.87622e+06 0 -1.91548e+06 1.88179e+06 0 -1.9251e+06 1.88728e+06 0 -1.9349e+06 1.89268e+06 0 -1.94486e+06 1.89799e+06 0 -1.95501e+06 1.9032e+06 0 -1.96535e+06 1.90833e+06 0 -1.97587e+06 1.91336e+06 0 -1.98659e+06 1.91829e+06 0 -1.99752e+06 1.92312e+06 0 -2.00865e+06 1.92784e+06 0 -2.02001e+06 1.93246e+06 0 -2.03158e+06 1.93697e+06 0 -2.04339e+06 1.94136e+06 0 -2.05544e+06 1.94564e+06 0 -2.06773e+06 1.9498e+06 0 -2.08028e+06 1.95383e+06 0 -2.09308e+06 1.95774e+06 0 -2.10616e+06 1.96152e+06 0 -2.11952e+06 1.96517e+06 0 -2.13316e+06 1.96867e+06 0 -2.1471e+06 1.97204e+06 0 -2.16135e+06 1.97525e+06 0 -2.17592e+06 1.97831e+06 0 -2.19081e+06 1.98122e+06 0 -2.20603e+06 1.98396e+06 0 -2.22161e+06 1.98652e+06 0 -2.23754e+06 1.98891e+06 0 -2.25385e+06 1.99112e+06 0 -2.27054e+06 1.99313e+06 0 -2.28763e+06 1.99494e+06 0 -2.30512e+06 1.99654e+06 0 -2.32304e+06 1.99792e+06 0 -2.34139e+06 1.99908e+06 0 -2.3602e+06 1.99999e+06 0 -2.37947e+06 2.00065e+06 0 -2.39923e+06 2.00104e+06 0 -2.41948e+06 2.00115e+06 0 -2.44026e+06 2.00097e+06 0 -2.46157e+06 2.00047e+06 0 -2.48343e+06 1.99964e+06 0 -2.50588e+06 1.99847e+06 0 -2.52892e+06 1.99692e+06 0 -2.55258e+06 1.99497e+06 0 -2.57688e+06 1.9926e+06 0 -2.60185e+06 1.98978e+06 0 -2.62752e+06 1.98648e+06 0 -2.65391e+06 1.98267e+06 0 -2.68106e+06 1.97831e+06 0 -2.70899e+06 1.97335e+06 0 -2.73774e+06 1.96777e+06 0 -2.76735e+06 1.96149e+06 0 -2.79785e+06 1.95448e+06 0 -2.82929e+06 1.94668e+06 0 -2.86172e+06 1.93802e+06 0 -2.89517e+06 1.92844