<?xml version="1.0"?> 
<VTKFile type="StructuredGrid" version="0.1"> 
<StructuredGrid WholeExtent="0 127 0 127 0 0"> 
<Piece Extent="0 127 0 127 0 0"> 
<PointData>
<DataArray type="Float32" Name="|E|" format="ascii" NumberOfComponents="3"> 
2.6226e-06 0.000137329 0 -3.18336e-07 502.253 0 2.16802e-07 798.102 0 -9.33505e-08 919.802 0 6.24859e-08 947.585 0 -1.04774e-09 928.648 0 -4.58676e-08 887.197 0 -7.10133e-08 835.295 0 1.30502e-07 779.396 0 -5.82077e-09 722.985 0 2.56114e-08 668.004 0 -4.28408e-08 615.509 0 5.54137e-08 566.049 0 -3.53903e-08 519.865 0 -7.63685e-08 477.01 0 4.98258e-08 437.428 0 1.72295e-08 400.992 0 9.96515e-08 367.538 0 -3.76254e-07 336.88 0 2.98955e-07 308.827 0 -1.6205e-07 283.183 0 5.02914e-08 259.761 0 6.61239e-08 238.38 0 -6.51926e-09 218.867 0 -7.54371e-08 201.063 0 9.31323e-10 184.818 0 -2.04891e-08 169.993 0 8.00937e-08 156.462 0 -6.33299e-08 144.108 0 9.87202e-08 132.823 0 -3.33413e-07 122.51 0 2.32831e-07 113.081 0 1.86265e-09 104.453 0 -8.19564e-08 96.555 0 3.72529e-09 89.319 0 2.10479e-07 82.685 0 -1.04308e-07 76.5984 0 -7.07805e-08 71.0098 0 1.93715e-07 65.8742 0 -4.84288e-08 61.1513 0 -5.96046e-08 56.8044 0 1.63913e-07 52.8003 0 -1.00583e-07 49.1091 0 -1.15484e-07 45.7034 0 -9.31323e-08 42.5587 0 2.34693e-07 39.6528 0 -1.49012e-07 36.9654 0 -1.08033e-07 34.4781 0 1.82539e-07 32.1745 0 -4.84288e-08 30.0392 0 -1.22935e-07 28.0587 0 -2.98023e-08 26.2204 0 2.6077e-07 24.5129 0 -2.01166e-07 22.926 0 8.9407e-08 21.45 0 2.98023e-08 20.0766 0 1.11759e-07 18.7977 0 -2.75671e-07 17.6061 0 3.72529e-07 16.4954 0 -8.9407e-08 15.4594 0 -8.19564e-08 14.4927 0 -1.41561e-07 13.5901 0 5.06639e-07 12.747 0 -6.25849e-07 11.9591 0 4.02331e-07 11.2226 0 -3.35276e-07 10.5337 0 3.72529e-07 9.88906 0 -3.7998e-07 9.28571 0 4.02331e-07 8.72073 0 -4.02331e-07 8.19155 0 4.17233e-07 7.69568 0 -3.8743e-07 7.23089 0 3.27826e-07 6.79512 0 -4.32134e-07 6.38641 0 4.47035e-07 6.00296 0 -3.72529e-07 5.64315 0 3.72529e-07 5.3054 0 -3.72529e-07 4.98828 0 3.42727e-07 4.69046 0 -3.27826e-07 4.41072 0 4.61936e-07 4.14785 0 -3.42727e-07 3.90083 0 3.57628e-07 3.66862 0 -3.42727e-07 3.45027 0 3.27826e-07 3.24493 0 -3.72529e-07 3.05179 0 4.02331e-07 2.87004 0 -3.42727e-07 2.69903 0 2.68221e-07 2.53803 0 -3.57628e-07 2.38646 0 3.57628e-07 2.2437 0 -3.72529e-07 2.10922 0 2.68221e-07 1.9825 0 -3.27826e-07 1.86306 0 3.42727e-07 1.75043 0 -3.42727e-07 1.6442 0 2.38419e-07 1.544 0 -3.72529e-07 1.44938 0 3.8743e-07 1.36005 0 -1.93715e-07 1.27565 0 2.08616e-07 1.19587 0 -2.98023e-07 1.12042 0 2.68221e-07 1.04902 0 -2.98023e-07 0.981405 0 2.98023e-07 0.917324 0 -2.68221e-07 0.856543 0 2.08616e-07 0.798854 0 -1.78814e-07 0.744031 0 1.78814e-07 0.691872 0 -1.78814e-07 0.642206 0 1.78814e-07 0.594827 0 -1.78814e-07 0.549593 0 1.19209e-07 0.506314 0 -1.78814e-07 0.464859 0 1.49012e-07 0.425053 0 -1.49012e-07 0.386773 0 1.49012e-07 0.349872 0 -8.9407e-08 0.31422 0 8.9407e-08 0.279695 0 -1.19209e-07 0.246159 0 8.9407e-08 0.213506 0 -1.19209e-07 0.181609 0 1.19209e-07 0.150367 0 -8.9407e-08 0.119652 0 8.9407e-08 0.0893693 0 -2.98023e-08 0.0594032 0 2.98023e-07 0.0296469 0 -2.14577e-06 2.86102e-06 0 9.29213 -3.00677e-06 0 7.30732 502.29 0 3.70516 798.133 0 1.29106 919.82 0 -0.0215506 947.595 0 -0.743864 928.654 0 -1.14215 887.2 0 -1.36312 835.297 0 -1.47748 779.396 0 -1.52668 722.985 0 -1.53386 668.003 0 -1.5137 615.508 0 -1.47548 566.048 0 -1.42548 519.863 0 -1.36798 477.008 0 -1.30601 437.426 0 -1.24173 400.99 0 -1.17672 367.536 0 -1.11211 336.879 0 -1.04872 308.825 0 -0.987142 283.182 0 -0.927778 259.76 0 -0.870907 238.378 0 -0.816701 218.865 0 -0.765252 201.061 0 -0.716592 184.816 0 -0.670707 169.992 0 -0.627544 156.461 0 -0.587029 144.106 0 -0.549067 132.822 0 -0.513549 122.509 0 -0.480358 113.079 0 -0.449373 104.452 0 -0.42047 96.5539 0 -0.393529 89.318 0 -0.368425 82.6841 0 -0.345043 76.5976 0 -0.323266 71.0089 0 -0.30299 65.8735 0 -0.284108 61.1506 0 -0.266523 56.8037 0 -0.250143 52.7997 0 -0.234883 49.1084 0 -0.22066 45.7028 0 -0.207398 42.5581 0 -0.195029 39.6522 0 -0.183485 36.9649 0 -0.17271 34.4777 0 -0.162641 32.174 0 -0.153234 30.0388 0 -0.144432 28.0583 0 -0.136202 26.22 0 -0.128491 24.5125 0 -0.12127 22.9256 0 -0.1145 21.4497 0 -0.10815 20.0763 0 -0.102191 18.7974 0 -0.0965946 17.6059 0 -0.0913365 16.4951 0 -0.0863932 15.4592 0 -0.0817426 14.4924 0 -0.0773665 13.5898 0 -0.0732447 12.7468 0 -0.0693622 11.9589 0 -0.0657011 11.2224 0 -0.0622498 10.5335 0 -0.0589927 9.88887 0 -0.0559187 9.28553 0 -0.0530155 8.72058 0 -0.0502722 8.19139 0 -0.0476818 7.69553 0 -0.04523 7.23075 0 -0.0429137 6.79498 0 -0.040721 6.38627 0 -0.0386466 6.00284 0 -0.0366827 5.64303 0 -0.0348243 5.30528 0 -0.033063 4.98817 0 -0.0313959 4.69037 0 -0.0298154 4.41061 0 -0.0283189 4.14776 0 -0.0268998 3.90073 0 -0.0255554 3.66852 0 -0.0242813 3.45019 0 -0.0230725 3.24486 0 -0.021928 3.0517 0 -0.0208409 2.86998 0 -0.0198125 2.69895 0 -0.0188359 2.53797 0 -0.0179112 2.38639 0 -0.0170339 2.24364 0 -0.0162035 2.10916 0 -0.0154154 1.98244 0 -0.0146702 1.863 0 -0.0139629 1.75038 0 -0.0132946 1.64416 0 -0.0126601 1.54394 0 -0.0120626 1.44934 0 -0.0114945 1.36001 0 -0.0109606 1.27561 0 -0.0104536 1.19583 0 -0.00997665 1.12038 0 -0.00952649 1.04898 0 -0.00910226 0.98137 0 -0.00870351 0.917291 0 -0.0083279 0.85652 0 -0.0079768 0.798823 0 -0.00764646 0.743999 0 -0.00733849 0.691848 0 -0.00705092 0.642177 0 -0.00678363 0.594809 0 -0.00653583 0.549571 0 -0.0063067 0.506298 0 -0.00609619 0.464838 0 -0.00590379 0.42504 0 -0.00572875 0.38676 0 -0.00557134 0.34986 0 -0.00543056 0.31421 0 -0.00530693 0.279681 0 -0.00520002 0.246149 0 -0.005109 0.213495 0 -0.00503502 0.181603 0 -0.00497686 0.150358 0 -0.00493625 0.119649 0 -0.00491075 0.0893651 0 -0.00490339 0.0594005 0 -0.00491196 0.0296475 0 -0.00493908 6.53075e-07 0 18.5861 -6.30086e-06 0 14.6149 502.401 0 7.40963 798.228 0 2.58159 919.876 0 -0.0434152 947.626 0 -1.48791 928.67 0 -2.28441 887.208 0 -2.72632 835.3 0 -2.955 779.397 0 -3.05338 722.983 0 -3.06773 668 0 -3.0274 615.504 0 -2.95097 566.043 0 -2.85096 519.858 0 -2.73595 477.003 0 -2.61201 437.42 0 -2.48346 400.984 0 -2.35344 367.53 0 -2.22422 336.873 0 -2.09744 308.819 0 -1.97427 283.176 0 -1.85554 259.754 0 -1.7418 238.373 0 -1.63339 218.86 0 -1.53049 201.056 0 -1.43317 184.811 0 -1.3414 169.987 0 -1.25508 156.457 0 -1.17405 144.102 0 -1.09812 132.818 0 -1.02709 122.505 0 -0.960703 113.076 0 -0.898735 104.449 0 -0.840929 96.5508 0 -0.787049 89.3151 0 -0.736839 82.6813 0 -0.690076 76.5949 0 -0.646523 71.0065 0 -0.60597 65.8711 0 -0.568207 61.1484 0 -0.533037 56.8016 0 -0.500278 52.7977 0 -0.469758 49.1065 0 -0.441311 45.701 0 -0.41479 42.5565 0 -0.39005 39.6506 0 -0.366965 36.9634 0 -0.345412 34.4762 0 -0.325278 32.1726 0 -0.306461 30.0375 0 -0.288861 28.0571 0 -0.272396 26.2188 0 -0.256978 24.5114 0 -0.242535 22.9246 0 -0.228995 21.4487 0 -0.216296 20.0753 0 -0.204378 18.7965 0 -0.193186 17.605 0 -0.182669 16.4943 0 -0.172783 15.4584 0 -0.163482 14.4917 0 -0.154729 13.5891 0 -0.146487 12.7461 0 -0.138721 11.9583 0 -0.1314 11.2217 0 -0.124497 10.5329 0 -0.117983 9.88832 0 -0.111834 9.285 0 -0.106029 8.72007 0 -0.100542 8.1909 0 -0.0953609 7.69507 0 -0.0904583 7.23031 0 -0.0858251 6.79456 0 -0.0814402 6.38587 0 -0.0772915 6.00246 0 -0.0733635 5.64266 0 -0.0696469 5.30493 0 -0.0661246 4.98784 0 -0.06279 4.69004 0 -0.0596298 4.41031 0 -0.0566362 4.14747 0 -0.0537985 3.90045 0 -0.05111 3.66825 0 -0.0485603 3.44993 0 -0.0461445 3.24461 0 -0.0438538 3.05147 0 -0.0416815 2.86975 0 -0.0396233 2.69874 0 -0.0376712 2.53776 0 -0.0358211 2.38619 0 -0.0340671 2.24345 0 -0.0324057 2.10898 0 -0.0308304 1.98227 0 -0.0293387 1.86284 0 -0.0279256 1.75023 0 -0.0265876 1.64401 0 -0.0253198 1.5438 0 -0.0241239 1.4492 0 -0.0229891 1.35988 0 -0.0219197 1.27548 0 -0.020907 1.19571 0 -0.0199526 1.12027 0 -0.0190523 1.04888 0 -0.0182039 0.981267 0 -0.0174063 0.917197 0 -0.0166556 0.856425 0 -0.0159524 0.798739 0 -0.0152926 0.743917 0 -0.0146761 0.691771 0 -0.0141014 0.642104 0 -0.0135666 0.594742 0 -0.0130711 0.549506 0 -0.012613 0.506239 0 -0.0121919 0.464782 0 -0.0118071 0.424987 0 -0.0114571 0.38671 0 -0.0111422 0.349816 0 -0.0108609 0.314169 0 -0.0106132 0.279644 0 -0.0103995 0.246117 0 -0.0102179 0.213465 0 -0.0100692 0.181578 0 -0.00995358 0.150336 0 -0.00987144 0.119631 0 -0.0098216 0.0893527 0 -0.00980599 0.0593914 0 -0.00982365 0.0296438 0 -0.00987758 -1.05356e-08 0 27.8837 -6.08061e-06 0 21.9231 502.587 0 11.1127 798.386 0 3.87107 919.969 0 -0.065908 947.677 0 -2.23233 928.698 0 -3.42689 887.222 0 -4.08965 835.306 0 -4.43261 779.397 0 -4.58015 722.98 0 -4.60164 667.995 0 -4.54113 615.497 0 -4.42646 566.035 0 -4.27643 519.849 0 -4.10391 476.994 0 -3.91799 437.411 0 -3.72517 400.975 0 -3.53013 367.521 0 -3.3363 336.864 0 -3.14613 308.81 0 -2.96138 283.167 0 -2.78328 259.746 0 -2.61267 238.364 0 -2.45005 218.852 0 -2.2957 201.048 0 -2.14972 184.804 0 -2.01207 169.98 0 -1.88258 156.45 0 -1.76104 144.096 0 -1.64715 132.812 0 -1.5406 122.499 0 -1.44103 113.07 0 -1.34807 104.444 0 -1.26137 96.5457 0 -1.18055 89.3102 0 -1.10523 82.6767 0 -1.03509 76.5906 0 -0.969762 71.0023 0 -0.908933 65.8672 0 -0.852289 61.1447 0 -0.799535 56.7981 0 -0.750398 52.7944 0 -0.704617 49.1034 0 -0.661949 45.698 0 -0.622167 42.5537 0 -0.585058 39.648 0 -0.550433 36.9608 0 -0.518103 34.4738 0 -0.487904 32.1704 0 -0.459678 30.0353 0 -0.43328 28.055 0 -0.408582 26.2169 0 -0.385455 24.5096 0 -0.363791 22.9228 0 -0.343482 21.4471 0 -0.324434 20.0737 0 -0.306557 18.795 0 -0.289769 17.6036 0 -0.273995 16.493 0 -0.259166 15.4571 0 -0.245216 14.4905 0 -0.232086 13.588 0 -0.219724 12.745 0 -0.208074 11.9572 0 -0.197094 11.2207 0 -0.186739 10.5319 0 -0.176968 9.8874 0 -0.167746 9.28412 0 -0.159037 8.71923 0 -0.150809 8.1901 0 -0.143036 7.6943 0 -0.135683 7.22958 0 -0.128733 6.79386 0 -0.122155 6.3852 0 -0.115933 6.00182 0 -0.110041 5.64205 0 -0.104466 5.30435 0 -0.0991828 4.98728 0 -0.0941811 4.68951 0 -0.0894412 4.40979 0 -0.0849502 4.14698 0 -0.0806947 3.89999 0 -0.0766617 3.6678 0 -0.0728372 3.4495 0 -0.0692137 3.2442 0 -0.0657776 3.05108 0 -0.0625195 2.86938 0 -0.0594319 2.69838 0 -0.0565043 2.53742 0 -0.0537289 2.38587 0 -0.0510983 2.24314 0 -0.0486062 2.10868 0 -0.0462432 1.98199 0 -0.0440058 1.86257 0 -0.0418862 1.74997 0 -0.0398794 1.64376 0 -0.0379779 1.54356 0 -0.0361835 1.44898 0 -0.0344823 1.35966 0 -0.0328773 1.27528 0 -0.0313589 1.19552 0 -0.0299272 1.12008 0 -0.0285768 1.0487 0 -0.0273045 0.981098 0 -0.0261077 0.917034 0 -0.0249821 0.856273 0 -0.0239267 0.798593 0 -0.022938 0.743781 0 -0.0220126 0.691641 0 -0.0211507 0.641983 0 -0.0203486 0.594626 0 -0.0196055 0.549397 0 -0.018918 0.50614 0 -0.018287 0.464688 0 -0.0177093 0.4249 0 -0.0171848 0.38663 0 -0.0167119 0.349741 0 -0.0162903 0.314102 0 -0.0159187 0.279582 0 -0.015598 0.246062 0 -0.0153256 0.213418 0 -0.0151026 0.181537 0 -0.0149293 0.150302 0 -0.0148059 0.119603 0 -0.0147313 0.0893313 0 -0.0147078 0.0593781 0 -0.0147346 0.0296353 0 -0.014813 1.34739e-06 0 37.1867 -4.22448e-06 0 29.2322 502.847 0 14.8137 798.607 0 5.15897 920.099 0 -0.0893427 947.749 0 -2.97729 928.736 0 -4.56971 887.242 0 -5.4532 835.314 0 -5.91035 779.398 0 -6.10699 722.976 0 -6.1356 667.987 0 -6.05488 615.488 0 -5.90197 566.024 0 -5.70191 519.837 0 -5.47187 476.981 0 -5.22396 437.398 0 -4.96685 400.962 0 -4.7068 367.508 0 -4.44835 336.85 0 -4.19478 308.797 0 -3.94845 283.155 0 -3.71099 259.733 0 -3.4835 238.352 0 -3.26667 218.841 0 -3.06088 201.037 0 -2.86624 184.793 0 -2.6827 169.97 0 -2.51005 156.44 0 -2.34799 144.087 0 -2.19614 132.803 0 -2.05407 122.491 0 -1.92131 113.062 0 -1.79738 104.436 0 -1.68177 96.5385 0 -1.57401 89.3034 0 -1.4736 82.6703 0 -1.38007 76.5845 0 -1.29297 70.9966 0 -1.21187 65.8617 0 -1.13634 61.1395 0 -1.06601 56.7932 0 -1.00049 52.7897 0 -0.939455 49.099 0 -0.882565 45.6939 0 -0.829525 42.5497 0 -0.780047 39.6443 0 -0.733881 36.9573 0 -0.690775 34.4705 0 -0.650512 32.1672 0 -0.612877 30.0323 0 -0.577683 28.0522 0 -0.544753 26.2142 0 -0.513918 24.507 0 -0.485034 22.9204 0 -0.457956 21.4447 0 -0.432559 20.0715 0 -0.408724 18.7929 0 -0.386342 17.6016 0 -0.365311 16.4911 0 -0.345538 15.4553 0 -0.326939 14.4887 0 -0.309433 13.5863 0 -0.292951 12.7434 0 -0.277418 11.9557 0 -0.262779 11.2193 0 -0.248973 10.5306 0 -0.235946 9.8861 0 -0.22365 9.28289 0 -0.212039 8.71805 0 -0.201069 8.18898 0 -0.190704 7.69323 0 -0.180901 7.22856 0 -0.171634 6.79288 0 -0.162865 6.38426 0 -0.154569 6.00092 0 -0.146714 5.64119 0 -0.13928 5.30353 0 -0.132236 4.9865 0 -0.125567 4.68876 0 -0.119248 4.40908 0 -0.11326 4.1463 0 -0.107586 3.89933 0 -0.10221 3.66718 0 -0.09711 3.4489 0 -0.0922793 3.24363 0 -0.0876977 3.05053 0 -0.0833542 2.86886 0 -0.0792373 2.69788 0 -0.0753342 2.53694 0 -0.0716339 2.38541 0 -0.0681265 2.2427 0 -0.0648036 2.10826 0 -0.0616535 1.98159 0 -0.0586702 1.86218 0 -0.0558446 1.7496 0 -0.0531682 1.64342 0 -0.0506342 1.54323 0 -0.0482404 1.44866 0 -0.0459734 1.35936 0 -0.0438327 1.27499 0 -0.0418087 1.19524 0 -0.0398998 1.11982 0 -0.0380992 1.04845 0 -0.036403 0.980862 0 -0.0348073 0.916811 0 -0.0333067 0.856061 0 -0.0318996 0.798391 0 -0.0305813 0.743591 0 -0.0293477 0.691461 0 -0.0281984 0.641813 0 -0.0271291 0.594465 0 -0.0261381 0.549249 0 -0.0252217 0.505997 0 -0.0243803 0.464557 0 -0.0236101 0.424779 0 -0.022911 0.386517 0 -0.0222803 0.349637 0 -0.0217182 0.314008 0 -0.021223 0.279498 0 -0.0207948 0.245987 0 -0.0204323 0.213352 0 -0.0201346 0.181479 0 -0.0199038 0.150254 0 -0.0197388 0.119564 0 -0.0196397 0.0893026 0 -0.0196081 0.0593571 0 -0.019644 0.0296258 0 -0.0197484 -5.19212e-07 0 46.4971 -7.71135e-07 0 36.5425 503.182 0 18.5119 798.891 0 6.44477 920.265 0 -0.114033 947.841 0 -3.72299 928.786 0 -5.71297 887.267 0 -6.81702 835.325 0 -7.38827 779.399 0 -7.63395 722.971 0 -7.66963 667.978 0 -7.56867 615.476 0 -7.37749 566.01 0 -7.12738 519.822 0 -6.83981 476.965 0 -6.52991 437.381 0 -6.20851 400.945 0 -5.88343 367.491 0 -5.56036 336.834 0 -5.24339 308.781 0 -4.93547 283.138 0 -4.63864 259.717 0 -4.35428 238.337 0 -4.08324 218.826 0 -3.826 201.023 0 -3.5827 184.78 0 -3.35327 169.957 0 -3.13746 156.427 0 -2.9349 144.075 0 -2.74509 132.791 0 -2.5675 122.48 0 -2.40156 113.052 0 -2.24664 104.426 0 -2.10214 96.5293 0 -1.96744 89.2947 0 -1.84192 82.662 0 -1.72502 76.5766 0 -1.61615 70.9891 0 -1.51477 65.8547 0 -1.42037 61.1329 0 -1.33245 56.7869 0 -1.25056 52.7838 0 -1.17426 49.0934 0 -1.10315 45.6885 0 -1.03685 42.5447 0 -0.97501 39.6395 0 -0.917305 36.9528 0 -0.863424 34.4662 0 -0.813098 32.1631 0 -0.766055 30.0285 0 -0.722065 28.0485 0 -0.680904 26.2107 0 -0.642363 24.5037 0 -0.606259 22.9172 0 -0.572413 21.4418 0 -0.540668 20.0687 0 -0.510876 18.7902 0 -0.482899 17.599 0 -0.456612 16.4886 0 -0.431897 15.453 0 -0.40865 14.4865 0 -0.386768 13.5842 0 -0.366167 12.7414 0 -0.346751 11.9538 0 -0.328453 11.2175 0 -0.311197 10.5288 0 -0.294913 9.88444 0 -0.279545 9.2813 0 -0.265031 8.71654 0 -0.251319 8.18753 0 -0.238364 7.69185 0 -0.226111 7.22724 0 -0.214528 6.79162 0 -0.203567 6.38306 0 -0.193197 5.99977 0 -0.183379 5.6401 0 -0.174088 5.30248 0 -0.165284 4.98549 0 -0.156947 4.6878 0 -0.149049 4.40816 0 -0.141564 4.14542 0 -0.134473 3.89849 0 -0.127751 3.66638 0 -0.121378 3.44813 0 -0.11534 3.24289 0 -0.109613 3.04983 0 -0.104184 2.86818 0 -0.0990382 2.69724 0 -0.09416 2.53633 0 -0.0895346 2.38482 0 -0.0851508 2.24214 0 -0.0809972 2.10773 0 -0.0770601 1.98107 0 -0.0733308 1.86169 0 -0.0697993 1.74913 0 -0.0664538 1.64297 0 -0.0632873 1.5428 0 -0.0602941 1.44825 0 -0.0574619 1.35897 0 -0.0547847 1.27462 0 -0.0522559 1.19489 0 -0.0498695 1.11949 0 -0.0476192 1.04813 0 -0.0454989 0.980558 0 -0.0435045 0.916521 0 -0.041629 0.855787 0 -0.03987 0.79813 0 -0.0382222 0.743345 0 -0.0366804 0.691229 0 -0.035244 0.641595 0 -0.0339075 0.594259 0 -0.0326687 0.549055 0 -0.0315234 0.505816 0 -0.0304715 0.464389 0 -0.029509 0.424622 0 -0.0286353 0.386373 0 -0.0278469 0.349505 0 -0.0271441 0.313886 0 -0.0265252 0.279389 0 -0.02599 0.245889 0 -0.0255369 0.213267 0 -0.0251648 0.181405 0 -0.0248765 0.150192 0 -0.0246699 0.119514 0 -0.0245461 0.0892658 0 -0.0245067 0.0593323 0 -0.0245514 0.0296135 0 -0.0246816 -3.62983e-07 0 55.8166 2.42144e-06 0 43.8543 503.591 0 22.2067 799.238 0 7.72795 920.469 0 -0.140293 947.953 0 -4.46961 928.846 0 -6.85679 887.298 0 -8.1812 835.338 0 -8.86641 779.401 0 -9.16105 722.965 0 -9.20374 667.967 0 -9.08251 615.461 0 -8.85303 565.993 0 -8.55285 519.803 0 -8.20773 476.945 0 -7.83582 437.361 0 -7.45012 400.924 0 -7.06001 367.47 0 -6.67231 336.813 0 -6.29194 308.76 0 -5.92243 283.118 0 -5.56623 259.698 0 -5.22499 238.318 0 -4.89975 218.808 0 -4.59105 201.006 0 -4.2991 184.763 0 -4.02379 169.941 0 -3.76482 156.412 0 -3.52174 144.06 0 -3.29397 132.778 0 -3.08087 122.467 0 -2.88174 113.04 0 -2.69584 104.414 0 -2.52244 96.5181 0 -2.36081 89.284 0 -2.21019 82.6519 0 -2.06992 76.5671 0 -1.93927 70.9801 0 -1.81762 65.8461 0 -1.70435 61.1247 0 -1.59885 56.7793 0 -1.50058 52.7765 0 -1.40903 49.0865 0 -1.3237 45.682 0 -1.24415 42.5385 0 -1.16994 39.6336 0 -1.1007 36.9472 0 -1.03604 34.4609 0 -0.975655 32.1582 0 -0.919207 30.0238 0 -0.866421 28.044 0 -0.81703 26.2065 0 -0.770783 24.4997 0 -0.727461 22.9134 0 -0.686848 21.4381 0 -0.648758 20.0652 0 -0.613008 18.7869 0 -0.579438 17.5959 0 -0.547895 16.4856 0 -0.518239 15.4501 0 -0.490344 14.4838 0 -0.464088 13.5816 0 -0.439367 12.739 0 -0.41607 11.9515 0 -0.394114 11.2153 0 -0.373407 10.5267 0 -0.353868 9.88242 0 -0.335427 9.27936 0 -0.318011 8.71469 0 -0.301559 8.18577 0 -0.286013 7.69016 0 -0.271311 7.22563 0 -0.257412 6.79008 0 -0.24426 6.38159 0 -0.231817 5.99837 0 -0.220035 5.63875 0 -0.208887 5.30119 0 -0.198323 4.98426 0 -0.18832 4.68663 0 -0.178843 4.40704 0 -0.169862 4.14434 0 -0.161352 3.89746 0 -0.153288 3.66539 0 -0.14564 3.44719 0 -0.138394 3.24199 0 -0.131523 3.04897 0 -0.125009 2.86736 0 -0.118834 2.69645 0 -0.11298 2.53557 0 -0.107431 2.3841 0 -0.10217 2.24145 0 -0.0971861 2.10707 0 -0.0924619 1.98044 0 -0.0879872 1.86109 0 -0.0837496 1.74856 0 -0.0797353 1.64242 0 -0.0759367 1.54228 0 -0.0723438 1.44775 0 -0.0689465 1.35849 0 -0.0657336 1.27416 0 -0.0626992 1.19446 0 -0.0598361 1.11907 0 -0.0571358 1.04774 0 -0.0545918 0.980185 0 -0.0521984 0.916168 0 -0.0499483 0.855452 0 -0.0478378 0.797813 0 -0.0458601 0.743045 0 -0.0440106 0.690944 0 -0.0422867 0.641327 0 -0.0406835 0.594006 0 -0.0391965 0.548818 0 -0.0378226 0.505595 0 -0.0365602 0.464182 0 -0.0354055 0.42443 0 -0.034357 0.386196 0 -0.033411 0.349344 0 -0.0325678 0.313738 0 -0.0318251 0.279255 0 -0.0311828 0.24577 0 -0.0306392 0.213162 0 -0.0301929 0.181314 0 -0.0298468 0.150116 0 -0.0295987 0.119452 0 -0.0294502 0.089217 0 -0.0294029 0.059301 0 -0.0294565 0.0295968 0 -0.0296127 -9.40636e-08 0 65.147 5.27501e-06 0 51.1678 504.076 0 25.8972 799.648 0 9.00798 920.71 0 -0.168435 948.086 0 -5.21733 928.918 0 -8.00127 887.335 0 -9.54579 835.353 0 -10.3448 779.403 0 -10.6883 722.958 0 -10.738 667.954 0 -10.5964 615.443 0 -10.3286 565.973 0 -9.97832 519.781 0 -9.57563 476.922 0 -9.1417 437.337 0 -8.69168 400.899 0 -8.23653 367.445 0 -7.7842 336.789 0 -7.34043 308.737 0 -6.90932 283.095 0 -6.49374 259.675 0 -6.09563 238.296 0 -5.71618 218.787 0 -5.35603 200.985 0 -5.01541 184.743 0 -4.69422 169.922 0 -4.39209 156.394 0 -4.1085 144.043 0 -3.84278 132.761 0 -3.59417 122.451 0 -3.36185 113.025 0 -3.14498 104.4 0 -2.94268 96.5047 0 -2.75411 89.2714 0 -2.57841 82.6399 0 -2.41475 76.5557 0 -2.26234 70.9693 0 -2.12042 65.836 0 -1.98827 61.1151 0 -1.8652 56.7702 0 -1.75056 52.7679 0 -1.64376 49.0783 0 -1.54421 45.6743 0 -1.4514 42.5312 0 -1.36483 39.6267 0 -1.28405 36.9407 0 -1.20863 34.4547 0 -1.13818 32.1523 0 -1.07233 30.0182 0 -1.01075 28.0387 0 -0.953127 26.2014 0 -0.899176 24.4949 0 -0.848637 22.9089 0 -0.801258 21.4338 0 -0.756822 20.0611 0 -0.715117 18.783 0 -0.675954 17.5922 0 -0.639157 16.4821 0 -0.604561 15.4468 0 -0.572018 14.4806 0 -0.541389 13.5786 0 -0.512549 12.7361 0 -0.485372 11.9487 0 -0.459758 11.2126 0 -0.435602 10.5242 0 -0.412808 9.88002 0 -0.391296 9.27708 0 -0.370978 8.71251 0 -0.351786 8.18368 0 -0.333649 7.68817 0 -0.316499 7.22373 0 -0.300284 6.78826 0 -0.284941 6.37985 0 -0.270426 5.99671 0 -0.256682 5.63716 0 -0.243676 5.29968 0 -0.231353 4.98281 0 -0.219683 4.68524 0 -0.208628 4.40571 0 -0.19815 4.14307 0 -0.188224 3.89625 0 -0.178815 3.66423 0 -0.169894 3.44608 0 -0.161441 3.24093 0 -0.153425 3.04795 0 -0.145827 2.86639 0 -0.138623 2.69552 0 -0.131794 2.53469 0 -0.12532 2.38325 0 -0.119183 2.24064 0 -0.113369 2.10629 0 -0.107858 1.9797 0 -0.102638 1.86038 0 -0.0976946 1.74788 0 -0.093012 1.64177 0 -0.0885811 1.54166 0 -0.0843889 1.44716 0 -0.0804261 1.35793 0 -0.0766783 1.27363 0 -0.0731385 1.19395 0 -0.0697985 1.11859 0 -0.0666485 1.04728 0 -0.0636807 0.979746 0 -0.0608886 0.91575 0 -0.058264 0.855056 0 -0.0558019 0.797439 0 -0.0534949 0.74269 0 -0.0513376 0.69061 0 -0.0493262 0.641011 0 -0.0474563 0.59371 0 -0.0457213 0.548539 0 -0.0441188 0.505334 0 -0.0426461 0.46394 0 -0.0412991 0.424204 0 -0.0400758 0.385989 0 -0.0389725 0.349152 0 -0.0379888 0.313565 0 -0.0371223 0.279097 0 -0.0363729 0.245629 0 -0.0357388 0.213038 0 -0.0352182 0.181207 0 -0.0348143 0.150026 0 -0.0345249 0.11938 0 -0.0343516 0.0891629 0 -0.0342963 0.0592621 0 -0.0343586 0.0295794 0 -0.0345407 7.6415e-07 0 74.4904 -1.64658e-06 0 58.4833 504.635 0 29.5829 800.122 0 10.2843 920.988 0 -0.198772 948.239 0 -5.96632 929 0 -9.14653 887.377 0 -10.9109 835.37 0 -11.8235 779.404 0 -12.2158 722.949 0 -12.2723 667.938 0 -12.1104 615.423 0 -11.8042 565.949 0 -11.4038 519.755 0 -10.9435 476.895 0 -10.4475 437.309 0 -9.93319 400.871 0 -9.41299 367.417 0 -8.89601 336.761 0 -8.38883 308.709 0 -7.89612 283.068 0 -7.42117 259.649 0 -6.96617 238.271 0 -6.53251 218.762 0 -6.12091 200.962 0 -5.73164 184.721 0 -5.36456 169.9 0 -5.01928 156.373 0 -4.69518 144.023 0 -4.3915 132.742 0 -4.10738 122.434 0 -3.84188 113.008 0 -3.59404 104.384 0 -3.36285 96.4894 0 -3.14735 89.2568 0 -2.94655 82.6261 0 -2.75952 76.5427 0 -2.58535 70.957 0 -2.42316 65.8243 0 -2.27214 61.104 0 -2.13149 56.7597 0 -2.00049 52.758 0 -1.87843 49.0689 0 -1.76467 45.6654 0 -1.65861 42.5228 0 -1.55968 39.6187 0 -1.46736 36.9331 0 -1.38117 34.4476 0 -1.30066 32.1455 0 -1.22541 30.0117 0 -1.15504 28.0326 0 -1.08919 26.1956 0 -1.02754 24.4894 0 -0.969781 22.9036 0 -0.915638 21.4289 0 -0.864858 20.0564 0 -0.817198 18.7785 0 -0.772444 17.5879 0 -0.730394 16.4781 0 -0.690858 15.4429 0 -0.65367 14.4769 0 -0.618668 13.5751 0 -0.58571 12.7327 0 -0.554655 11.9455 0 -0.525383 11.2096 0 -0.497779 10.5213 0 -0.471731 9.87725 0 -0.447147 9.27444 0 -0.423928 8.70999 0 -0.401997 8.18128 0 -0.38127 7.68587 0 -0.361673 7.22153 0 -0.343143 6.78616 0 -0.32561 6.37785 0 -0.309022 5.99479 0 -0.293316 5.63533 0 -0.278453 5.29792 0 -0.264371 4.98114 0 -0.251036 4.68364 0 -0.238402 4.40418 0 -0.226429 4.14161 0 -0.215085 3.89485 0 -0.204333 3.66289 0 -0.194139 3.4448 0 -0.18448 3.2397 0 -0.175319 3.04678 0 -0.166636 2.86527 0 -0.158404 2.69445 0 -0.150601 2.53366 0 -0.143202 2.38227 0 -0.13619 2.2397 0 -0.129546 2.1054 0 -0.123248 1.97885 0 -0.117283 1.85957 0 -0.111634 1.7471 0 -0.106283 1.64103 0 -0.10122 1.54095 0 -0.0964291 1.44648 0 -0.0919003 1.35728 0 -0.0876179 1.27301 0 -0.083573 1.19336 0 -0.0797559 1.11803 0 -0.0761566 1.04674 0 -0.0727653 0.979239 0 -0.0695747 0.915269 0 -0.0665753 0.854598 0 -0.063762 0.797005 0 -0.0611254 0.742281 0 -0.0586605 0.690224 0 -0.0563621 0.640647 0 -0.0542252 0.593368 0 -0.0522428 0.548219 0 -0.0504114 0.505033 0 -0.0487285 0.463658 0 -0.0471894 0.423945 0 -0.045791 0.385747 0 -0.0445307 0.348931 0 -0.0434064 0.313362 0 -0.0424164 0.278916 0 -0.0415595 0.245466 0 -0.0408351 0.212896 0 -0.0402404 0.181084 0 -0.0397784 0.149922 0 -0.0394477 0.119297 0 -0.0392498 0.0890985 0 -0.0391861 0.0592216 0 -0.0392575 0.0295571 0 -0.0394645 -8.78237e-07 0 83.8484 2.5183e-06 0 65.8012 505.27 0 33.263 800.658 0 11.5565 921.303 0 -0.231616 948.412 0 -6.71679 929.094 0 -10.2927 887.425 0 -12.2765 835.39 0 -13.3026 779.407 0 -13.7435 722.94 0 -13.8068 667.921 0 -13.6244 615.4 0 -13.2798 565.923 0 -12.8292 519.726 0 -12.3113 476.864 0 -11.7533 437.277 0 -11.1746 400.839 0 -10.5894 367.385 0 -10.0077 336.729 0 -9.43714 308.678 0 -8.88283 283.037 0 -8.34849 259.619 0 -7.83662 238.242 0 -7.34874 218.734 0 -6.8857 200.935 0 -6.44776 184.695 0 -6.0348 169.876 0 -5.64636 156.35 0 -5.28176 144.001 0 -4.94013 132.721 0 -4.6205 122.413 0 -4.32182 112.988 0 -4.043 104.366 0 -3.78293 96.472 0 -3.5405 89.2403 0 -3.31461 82.6105 0 -3.10421 76.5279 0 -2.90828 70.943 0 -2.72583 65.811 0 -2.55594 61.0915 0 -2.39772 56.7478 0 -2.25035 52.7467 0 -2.11304 49.0583 0 -1.98507 45.6553 0 -1.86576 42.5132 0 -1.75447 39.6097 0 -1.65063 36.9245 0 -1.55366 34.4394 0 -1.4631 32.1378 0 -1.37845 30.0044 0 -1.29928 28.0257 0 -1.22521 26.1891 0 -1.15586 24.4832 0 -1.09089 22.8977 0 -1.02998 21.4232 0 -0.972861 20.0511 0 -0.919249 18.7734 0 -0.868905 17.5831 0 -0.821602 16.4735 0 -0.777129 15.4385 0 -0.735296 14.4728 0 -0.695923 13.5711 0 -0.658848 12.7289 0 -0.623914 11.9419 0 -0.590986 11.2061 0 -0.559935 10.518 0 -0.530633 9.87412 0 -0.502979 9.27144 0 -0.47686 8.70713 0 -0.452191 8.17855 0 -0.428875 7.68327 0 -0.40683 7.21904 0 -0.385985 6.78379 0 -0.366264 6.37558 0 -0.347604 5.99262 0 -0.329937 5.63325 0 -0.313217 5.29594 0 -0.297377 4.97924 0 -0.282376 4.68182 0 -0.268164 4.40244 0 -0.254696 4.13995 0 -0.241936 3.89326 0 -0.229841 3.66137 0 -0.218374 3.44335 0 -0.207508 3.23831 0 -0.197204 3.04545 0 -0.187437 2.864 0 -0.178176 2.69323 0 -0.169399 2.5325 0 -0.161077 2.38116 0 -0.153189 2.23864 0 -0.145714 2.10438 0 -0.138631 1.97788 0 -0.131921 1.85864 0 -0.125566 1.74622 0 -0.119547 1.64018 0 -0.113852 1.54014 0 -0.108463 1.44571 0 -0.103368 1.35655 0 -0.0985518 1.27231 0 -0.0940015 1.19269 0 -0.0897083 1.11739 0 -0.0856592 1.04614 0 -0.0818449 0.978664 0 -0.0782555 0.914723 0 -0.074882 0.854081 0 -0.0717171 0.796515 0 -0.0687515 0.741817 0 -0.0659791 0.689786 0 -0.0633936 0.640233 0 -0.06099 0.592979 0 -0.0587599 0.547854 0 -0.0567002 0.504692 0 -0.0548069 0.463341 0 -0.0530756 0.42365 0 -0.0515028 0.385475 0 -0.0500849 0.348681 0 -0.0488204 0.313136 0 -0.0477066 0.27871 0 -0.0467429 0.245281 0 -0.0459276 0.212733 0 -0.0452591 0.180945 0 -0.0447389 0.149804 0 -0.0443671 0.119201 0 -0.0441441 0.0890265 0 -0.0440723 0.0591733 0 -0.0441523 0.0295317 0 -0.0443869 1.62702e-06 0 93.2231 -3.01003e-06 0 73.1217 505.981 0 36.9368 801.258 0 12.8239 921.655 0 -0.267281 948.606 0 -7.4689 929.198 0 -11.4398 887.478 0 -13.6428 835.412 0 -14.7821 779.409 0 -15.2714 722.929 0 -15.3414 667.901 0 -15.1385 615.375 0 -14.7554 565.893 0 -14.2547 519.693 0 -13.6792 476.83 0 -13.059 437.242 0 -12.416 400.803 0 -11.7657 367.349 0 -11.1194 336.693 0 -10.4853 308.643 0 -9.86942 283.003 0 -9.2757 259.586 0 -8.70694 238.21 0 -8.16486 218.703 0 -7.65036 200.905 0 -7.16376 184.666 0 -6.70493 169.848 0 -6.27333 156.324 0 -5.86822 143.976 0 -5.48864 132.697 0 -5.13351 122.39 0 -4.80166 112.967 0 -4.49187 104.345 0 -4.20291 96.4525 0 -3.93355 89.2219 0 -3.68258 82.593 0 -3.44882 76.5113 0 -3.23112 70.9273 0 -3.02842 65.7962 0 -2.83966 61.0775 0 -2.66387 56.7345 0 -2.50014 52.7341 0 -2.34758 49.0464 0 -2.20541 45.644 0 -2.07285 42.5025 0 -1.9492 39.5996 0 -1.83383 36.915 0 -1.7261 34.4304 0 -1.62549 32.1292 0 -1.53143 29.9963 0 -1.44349 28.018 0 -1.36119 26.1817 0 -1.28414 24.4762 0 -1.21196 22.8911 0 -1.14429 21.4169 0 -1.08083 20.0451 0 -1.02126 18.7677 0 -0.965332 17.5777 0 -0.912778 16.4683 0 -0.863369 15.4336 0 -0.816892 14.4681 0 -0.773149 13.5667 0 -0.731959 12.7247 0 -0.693148 11.9379 0 -0.656565 11.2023 0 -0.622067 10.5143 0 -0.589513 9.87061 0 -0.55879 9.2681 0 -0.529772 8.70394 0 -0.502364 8.1755 0 -0.47646 7.68036 0 -0.45197 7.21626 0 -0.42881 6.78113 0 -0.4069 6.37304 0 -0.386169 5.99019 0 -0.366542 5.63094 0 -0.347965 5.29372 0 -0.330368 4.97712 0 -0.313702 4.67979 0 -0.297913 4.4005 0 -0.28295 4.13809 0 -0.268774 3.89149 0 -0.255337 3.65968 0 -0.242598 3.44172 0 -0.230525 3.23676 0 -0.219078 3.04397 0 -0.208226 2.86258 0 -0.197939 2.69188 0 -0.188187 2.5312 0 -0.178942 2.37992 0 -0.170179 2.23745 0 -0.161874 2.10325 0 -0.154005 1.97679 0 -0.146551 1.8576 0 -0.139491 1.74523 0 -0.132804 1.63924 0 -0.126477 1.53924 0 -0.12049 1.44485 0 -0.11483 1.35573 0 -0.109479 1.27153 0 -0.104424 1.19195 0 -0.0996547 1.11668 0 -0.0951558 1.04546 0 -0.0909188 0.978022 0 -0.0869309 0.914113 0 -0.0831832 0.853503 0 -0.0796672 0.795967 0 -0.0763725 0.741298 0 -0.0732927 0.689296 0 -0.0704203 0.639771 0 -0.06775 0.592545 0 -0.0652725 0.547445 0 -0.0629843 0.504312 0 -0.060881 0.462985 0 -0.0589575 0.42332 0 -0.0572102 0.38517 0 -0.055635 0.348401 0 -0.05423 0.312881 0 -0.052993 0.278479 0 -0.0519218 0.245077 0 -0.0510162 0.212551 0 -0.0502733 0.180788 0 -0.0496955 0.149673 0 -0.0492821 0.119095 0 -0.0490342 0.0889464 0 -0.0489544 0.0591185 0 -0.049043 0.0295041 0 -0.0493028 -1.20699e-06 0 102.616 4.32134e-06 0 80.445 506.767 0 40.6036 801.92 0 14.0861 922.043 0 -0.306076 948.82 0 -8.22284 929.313 0 -12.5881 887.537 0 -15.0097 835.436 0 -16.262 779.412 0 -16.7996 722.917 0 -16.8762 667.88 0 -16.6527 615.346 0 -16.2311 565.86 0 -15.6801 519.657 0 -15.0469 476.792 0 -14.3647 437.203 0 -13.6573 400.764 0 -12.9419 367.309 0 -12.2309 336.654 0 -11.5334 308.604 0 -10.8559 282.965 0 -10.2028 259.549 0 -9.57714 238.174 0 -8.98084 218.668 0 -8.41489 200.872 0 -7.87964 184.634 0 -7.37492 169.818 0 -6.90017 156.294 0 -6.45456 143.948 0 -6.03703 132.671 0 -5.6464 122.365 0 -5.28137 112.943 0 -4.94062 104.323 0 -4.62278 96.431 0 -4.3265 89.2015 0 -4.05045 82.5737 0 -3.79333 76.493 0 -3.55387 70.91 0 -3.33091 65.7798 0 -3.12329 61.0619 0 -2.92994 56.7198 0 -2.74985 52.7202 0 -2.58205 49.0332 0 -2.42567 45.6316 0 -2.27987 42.4907 0 -2.14387 39.5884 0 -2.01697 36.9044 0 -1.89849 34.4204 0 -1.78782 32.1197 0 -1.68437 29.9873 0 -1.58764 28.0094 0 -1.49712 26.1736 0 -1.41237 24.4685 0 -1.33298 22.8838 0 -1.25856 21.41 0 -1.18875 20.0385 0 -1.12324 18.7615 0 -1.06172 17.5717 0 -1.00392 16.4626 0 -0.949575 15.4282 0 -0.898456 14.463 0 -0.850344 13.5618 0 -0.80504 12.72 0 -0.762353 11.9334 0 -0.722117 11.198