<?xml version="1.0"?> 
<VTKFile type="StructuredGrid" version="0.1"> 
<StructuredGrid WholeExtent="0 127 0 127 0 0"> 
<Piece Extent="0 127 0 127 0 0"> 
<PointData>
<DataArray type="Float32" Name="|E|" format="ascii" NumberOfComponents="3"> 
373217 5.48116e+06 0 416898 5.535e+06 0 460682 5.57927e+06 0 504697 5.61766e+06 0 548992 5.65193e+06 0 593580 5.68301e+06 0 638460 5.71147e+06 0 683624 5.73767e+06 0 729059 5.76185e+06 0 774753 5.78423e+06 0 820691 5.80492e+06 0 866859 5.82406e+06 0 913242 5.84173e+06 0 959826 5.85801e+06 0 1.0066e+06 5.87297e+06 0 1.05354e+06 5.88667e+06 0 1.10064e+06 5.89914e+06 0 1.14789e+06 5.91043e+06 0 1.19527e+06 5.92058e+06 0 1.24276e+06 5.92963e+06 0 1.29036e+06 5.93759e+06 0 1.33805e+06 5.9445e+06 0 1.38582e+06 5.95038e+06 0 1.43365e+06 5.95525e+06 0 1.48154e+06 5.95914e+06 0 1.52946e+06 5.96206e+06 0 1.57741e+06 5.96402e+06 0 1.62538e+06 5.96506e+06 0 1.67335e+06 5.96517e+06 0 1.72131e+06 5.96437e+06 0 1.76924e+06 5.96269e+06 0 1.81715e+06 5.96013e+06 0 1.86501e+06 5.9567e+06 0 1.91281e+06 5.95242e+06 0 1.96055e+06 5.9473e+06 0 2.0082e+06 5.94134e+06 0 2.05577e+06 5.93457e+06 0 2.10324e+06 5.92699e+06 0 2.15059e+06 5.91861e+06 0 2.19782e+06 5.90944e+06 0 2.24492e+06 5.89949e+06 0 2.29187e+06 5.88877e+06 0 2.33867e+06 5.8773e+06 0 2.3853e+06 5.86508e+06 0 2.43176e+06 5.85211e+06 0 2.47804e+06 5.83842e+06 0 2.52412e+06 5.82401e+06 0 2.56999e+06 5.80888e+06 0 2.61566e+06 5.79305e+06 0 2.6611e+06 5.77653e+06 0 2.70631e+06 5.75933e+06 0 2.75128e+06 5.74145e+06 0 2.79599e+06 5.7229e+06 0 2.84045e+06 5.7037e+06 0 2.88465e+06 5.68385e+06 0 2.92856e+06 5.66337e+06 0 2.9722e+06 5.64225e+06 0 3.01554e+06 5.62052e+06 0 3.05858e+06 5.59817e+06 0 3.10131e+06 5.57522e+06 0 3.14373e+06 5.55169e+06 0 3.18582e+06 5.52756e+06 0 3.22759e+06 5.50287e+06 0 3.26902e+06 5.47761e+06 0 3.3101e+06 5.4518e+06 0 3.35083e+06 5.42544e+06 0 3.39121e+06 5.39854e+06 0 3.43122e+06 5.37112e+06 0 3.47086e+06 5.34318e+06 0 3.51012e+06 5.31473e+06 0 3.549e+06 5.28578e+06 0 3.58749e+06 5.25634e+06 0 3.62559e+06 5.22643e+06 0 3.66329e+06 5.19604e+06 0 3.70058e+06 5.16519e+06 0 3.73746e+06 5.13389e+06 0 3.77393e+06 5.10215e+06 0 3.80998e+06 5.06997e+06 0 3.8456e+06 5.03737e+06 0 3.8808e+06 5.00436e+06 0 3.91556e+06 4.97094e+06 0 3.94988e+06 4.93713e+06 0 3.98377e+06 4.90293e+06 0 4.01721e+06 4.86836e+06 0 4.0502e+06 4.83342e+06 0 4.08274e+06 4.79812e+06 0 4.11482e+06 4.76247e+06 0 4.14644e+06 4.72649e+06 0 4.17761e+06 4.69017e+06 0 4.20831e+06 4.65354e+06 0 4.23854e+06 4.61659e+06 0 4.2683e+06 4.57935e+06 0 4.29759e+06 4.54181e+06 0 4.32641e+06 4.50399e+06 0 4.35475e+06 4.46589e+06 0 4.38262e+06 4.42753e+06 0 4.41001e+06 4.38892e+06 0 4.43691e+06 4.35006e+06 0 4.46333e+06 4.31096e+06 0 4.48927e+06 4.27163e+06 0 4.51473e+06 4.23208e+06 0 4.5397e+06 4.19232e+06 0 4.56418e+06 4.15236e+06 0 4.58818e+06 4.1122e+06 0 4.61169e+06 4.07186e+06 0 4.63471e+06 4.03135e+06 0 4.65724e+06 3.99066e+06 0 4.67928e+06 3.94982e+06 0 4.70084e+06 3.90882e+06 0 4.72191e+06 3.86769e+06 0 4.74249e+06 3.82641e+06 0 4.76258e+06 3.78502e+06 0 4.78219e+06 3.7435e+06 0 4.80131e+06 3.70188e+06 0 4.81994e+06 3.66015e+06 0 4.83809e+06 3.61833e+06 0 4.85575e+06 3.57642e+06 0 4.87293e+06 3.53443e+06 0 4.88963e+06 3.49238e+06 0 4.90585e+06 3.45026e+06 0 4.9216e+06 3.40808e+06 0 4.93686e+06 3.36586e+06 0 4.95165e+06 3.32359e+06 0 4.96596e+06 3.28129e+06 0 4.9798e+06 3.23896e+06 0 4.99317e+06 3.19662e+06 0 5.00607e+06 3.15426e+06 0 5.01851e+06 3.11189e+06 0 550889 5.40575e+06 0 579337 5.43886e+06 0 610625 5.47056e+06 0 644145 5.50036e+06 0 679398 5.52818e+06 0 716019 5.5541e+06 0 753741 5.57822e+06 0 792367 5.60066e+06 0 831750 5.62151e+06 0 871777 5.64087e+06 0 912360 5.65882e+06 0 953428 5.67542e+06 0 994923 5.69074e+06 0 1.03679e+06 5.70482e+06 0 1.079e+06 5.71771e+06 0 1.1215e+06 5.72946e+06 0 1.16427e+06 5.74011e+06 0 1.20728e+06 5.74967e+06 0 1.25049e+06 5.75819e+06 0 1.2939e+06 5.76569e+06 0 1.33746e+06 5.7722e+06 0 1.38117e+06 5.77773e+06 0 1.425e+06 5.78231e+06 0 1.46894e+06 5.78596e+06 0 1.51296e+06 5.78869e+06 0 1.55706e+06 5.79053e+06 0 1.60121e+06 5.79148e+06 0 1.6454e+06 5.79157e+06 0 1.68962e+06 5.7908e+06 0 1.73384e+06 5.7892e+06 0 1.77806e+06 5.78677e+06 0 1.82227e+06 5.78352e+06 0 1.86645e+06 5.77947e+06 0 1.91058e+06 5.77464e+06 0 1.95466e+06 5.76902e+06 0 1.99868e+06 5.76263e+06 0 2.04261e+06 5.75549e+06 0 2.08646e+06 5.7476e+06 0 2.1302e+06 5.73897e+06 0 2.17383e+06 5.72962e+06 0 2.21734e+06 5.71955e+06 0 2.26072e+06 5.70877e+06 0 2.30396e+06 5.6973e+06 0 2.34704e+06 5.68513e+06 0 2.38995e+06 5.67229e+06 0 2.4327e+06 5.65877e+06 0 2.47526e+06 5.6446e+06 0 2.51763e+06 5.62978e+06 0 2.5598e+06 5.61431e+06 0 2.60177e+06 5.59821e+06 0 2.64351e+06 5.58149e+06 0 2.68503e+06 5.56415e+06 0 2.72631e+06 5.5462e+06 0 2.76735e+06 5.52766e+06 0 2.80814e+06 5.50853e+06 0 2.84867e+06 5.48882e+06 0 2.88894e+06 5.46854e+06 0 2.92893e+06 5.4477e+06 0 2.96864e+06 5.42631e+06 0 3.00807e+06 5.40438e+06 0 3.0472e+06 5.38191e+06 0 3.08603e+06 5.35892e+06 0 3.12455e+06 5.33541e+06 0 3.16276e+06 5.31139e+06 0 3.20065e+06 5.28687e+06 0 3.23821e+06 5.26187e+06 0 3.27545e+06 5.23638e+06 0 3.31234e+06 5.21042e+06 0 3.3489e+06 5.184e+06 0 3.38511e+06 5.15712e+06 0 3.42096e+06 5.1298e+06 0 3.45646e+06 5.10205e+06 0 3.49159e+06 5.07386e+06 0 3.52636e+06 5.04526e+06 0 3.56075e+06 5.01625e+06 0 3.59477e+06 4.98684e+06 0 3.62842e+06 4.95703e+06 0 3.66167e+06 4.92684e+06 0 3.69454e+06 4.89628e+06 0 3.72702e+06 4.86535e+06 0 3.75911e+06 4.83407e+06 0 3.7908e+06 4.80243e+06 0 3.82208e+06 4.77046e+06 0 3.85297e+06 4.73816e+06 0 3.88345e+06 4.70553e+06 0 3.91351e+06 4.67259e+06 0 3.94317e+06 4.63935e+06 0 3.97241e+06 4.60581e+06 0 4.00124e+06 4.57198e+06 0 4.02964e+06 4.53787e+06 0 4.05763e+06 4.50349e+06 0 4.0852e+06 4.46885e+06 0 4.11234e+06 4.43395e+06 0 4.13905e+06 4.39881e+06 0 4.16534e+06 4.36342e+06 0 4.19121e+06 4.32781e+06 0 4.21664e+06 4.29198e+06 0 4.24164e+06 4.25593e+06 0 4.26621e+06 4.21967e+06 0 4.29035e+06 4.18322e+06 0 4.31406e+06 4.14658e+06 0 4.33733e+06 4.10975e+06 0 4.36018e+06 4.07275e+06 0 4.38258e+06 4.03559e+06 0 4.40456e+06 3.99826e+06 0 4.4261e+06 3.96078e+06 0 4.44721e+06 3.92316e+06 0 4.46788e+06 3.8854e+06 0 4.48812e+06 3.84751e+06 0 4.50793e+06 3.8095e+06 0 4.52731e+06 3.77137e+06 0 4.54625e+06 3.73313e+06 0 4.56477e+06 3.69479e+06 0 4.58285e+06 3.65636e+06 0 4.6005e+06 3.61784e+06 0 4.61773e+06 3.57925e+06 0 4.63453e+06 3.54057e+06 0 4.6509e+06 3.50183e+06 0 4.66685e+06 3.46303e+06 0 4.68238e+06 3.42418e+06 0 4.69748e+06 3.38527e+06 0 4.71217e+06 3.34633e+06 0 4.72643e+06 3.30735e+06 0 4.74028e+06 3.26834e+06 0 4.75371e+06 3.22931e+06 0 4.76672e+06 3.19026e+06 0 4.77933e+06 3.1512e+06 0 4.79152e+06 3.11213e+06 0 667627 5.33348e+06 0 694086 5.35785e+06 0 722314 5.38136e+06 0 752084 5.40393e+06 0 783211 5.42547e+06 0 815532 5.44591e+06 0 848904 5.46523e+06 0 883199 5.4834e+06 0 918308 5.50044e+06 0 954134 5.51635e+06 0 990595 5.53117e+06 0 1.02762e+06 5.54489e+06 0 1.06515e+06 5.55756e+06 0 1.10312e+06 5.56919e+06 0 1.14149e+06 5.57981e+06 0 1.18023e+06 5.58944e+06 0 1.21928e+06 5.59809e+06 0 1.25861e+06 5.6058e+06 0 1.2982e+06 5.61258e+06 0 1.33801e+06 5.61844e+06 0 1.37802e+06 5.6234e+06 0 1.41821e+06 5.62749e+06 0 1.45855e+06 5.63071e+06 0 1.49902e+06 5.63309e+06 0 1.5396e+06 5.63463e+06 0 1.58027e+06 5.63535e+06 0 1.62101e+06 5.63526e+06 0 1.66182e+06 5.63438e+06 0 1.70266e+06 5.63271e+06 0 1.74353e+06 5.63027e+06 0 1.78441e+06 5.62708e+06 0 1.82528e+06 5.62313e+06 0 1.86614e+06 5.61844e+06 0 1.90696e+06 5.61303e+06 0 1.94775e+06 5.6069e+06 0 1.98847e+06 5.60006e+06 0 2.02913e+06 5.59253e+06 0 2.06971e+06 5.58431e+06 0 2.1102e+06 5.57541e+06 0 2.15058e+06 5.56584e+06 0 2.19086e+06 5.55561e+06 0 2.23101e+06 5.54473e+06 0 2.27102e+06 5.53321e+06 0 2.3109e+06 5.52106e+06 0 2.35062e+06 5.50829e+06 0 2.39018e+06 5.4949e+06 0 2.42957e+06 5.48091e+06 0 2.46878e+06 5.46633e+06 0 2.5078e+06 5.45115e+06 0 2.54662e+06 5.4354e+06 0 2.58524e+06 5.41908e+06 0 2.62365e+06 5.4022e+06 0 2.66184e+06 5.38477e+06 0 2.69979e+06 5.36679e+06 0 2.73752e+06 5.34828e+06 0 2.775e+06 5.32925e+06 0 2.81223e+06 5.30969e+06 0 2.84921e+06 5.28963e+06 0 2.88593e+06 5.26907e+06 0 2.92237e+06 5.24802e+06 0 2.95855e+06 5.22648e+06 0 2.99444e+06 5.20447e+06 0 3.03004e+06 5.182e+06 0 3.06536e+06 5.15906e+06 0 3.10037e+06 5.13568e+06 0 3.13509e+06 5.11186e+06 0 3.16949e+06 5.08761e+06 0 3.20359e+06 5.06293e+06 0 3.23736e+06 5.03784e+06 0 3.27082e+06 5.01235e+06 0 3.30395e+06 4.98645e+06 0 3.33675e+06 4.96017e+06 0 3.36922e+06 4.93351e+06 0 3.40135e+06 4.90647e+06 0 3.43313e+06 4.87907e+06 0 3.46457e+06 4.85131e+06 0 3.49567e+06 4.8232e+06 0 3.52641e+06 4.79476e+06 0 3.5568e+06 4.76598e+06 0 3.58683e+06 4.73688e+06 0 3.6165e+06 4.70747e+06 0 3.6458e+06 4.67774e+06 0 3.67474e+06 4.64772e+06 0 3.70332e+06 4.61741e+06 0 3.73152e+06 4.58681e+06 0 3.75935e+06 4.55594e+06 0 3.78681e+06 4.5248e+06 0 3.81389e+06 4.4934e+06 0 3.8406e+06 4.46175e+06 0 3.86692e+06 4.42985e+06 0 3.89287e+06 4.39772e+06 0 3.91843e+06 4.36536e+06 0 3.94361e+06 4.33277e+06 0 3.96841e+06 4.29997e+06 0 3.99283e+06 4.26697e+06 0 4.01685e+06 4.23376e+06 0 4.0405e+06 4.20036e+06 0 4.06375e+06 4.16678e+06 0 4.08662e+06 4.13302e+06 0 4.1091e+06 4.09908e+06 0 4.1312e+06 4.06499e+06 0 4.1529e+06 4.03073e+06 0 4.17422e+06 3.99633e+06 0 4.19515e+06 3.96178e+06 0 4.21569e+06 3.9271e+06 0 4.23585e+06 3.89228e+06 0 4.25562e+06 3.85734e+06 0 4.275e+06 3.82229e+06 0 4.294e+06 3.78712e+06 0 4.31261e+06 3.75185e+06 0 4.33084e+06 3.71648e+06 0 4.34868e+06 3.68102e+06 0 4.36615e+06 3.64548e+06 0 4.38323e+06 3.60985e+06 0 4.39992e+06 3.57415e+06 0 4.41624e+06 3.53839e+06 0 4.43218e+06 3.50256e+06 0 4.44774e+06 3.46667e+06 0 4.46293e+06 3.43074e+06 0 4.47774e+06 3.39475e+06 0 4.49218e+06 3.35873e+06 0 4.50625e+06 3.32268e+06 0 4.51994e+06 3.2866e+06 0 4.53327e+06 3.25049e+06 0 4.54623e+06 3.21436e+06 0 4.55882e+06 3.17823e+06 0 4.57106e+06 3.14208e+06 0 4.58293e+06 3.10593e+06 0 757370 5.26182e+06 0 782934 5.2806e+06 0 809602 5.29885e+06 0 837352 5.31645e+06 0 866120 5.33333e+06 0 895833 5.34943e+06 0 926412 5.36472e+06 0 957784 5.37917e+06 0 989878 5.39276e+06 0 1.02263e+06 5.40548e+06 0 1.05598e+06 5.41732e+06 0 1.08987e+06 5.4283e+06 0 1.12425e+06 5.4384e+06 0 1.15907e+06 5.44763e+06 0 1.1943e+06 5.45601e+06 0 1.22989e+06 5.46354e+06 0 1.26581e+06 5.47023e+06 0 1.30202e+06 5.4761e+06 0 1.33849e+06 5.48114e+06 0 1.37521e+06 5.48538e+06 0 1.41213e+06 5.48882e+06 0 1.44924e+06 5.49147e+06 0 1.48651e+06 5.49335e+06 0 1.52392e+06 5.49446e+06 0 1.56145e+06 5.49482e+06 0 1.59908e+06 5.49443e+06 0 1.6368e+06 5.49331e+06 0 1.67458e+06 5.49146e+06 0 1.71241e+06 5.4889e+06 0 1.75028e+06 5.48563e+06 0 1.78816e+06 5.48167e+06 0 1.82605e+06 5.47703e+06 0 1.86392e+06 5.47171e+06 0 1.90177e+06 5.46572e+06 0 1.93959e+06 5.45907e+06 0 1.97736e+06 5.45177e+06 0 2.01507e+06 5.44384e+06 0 2.0527e+06 5.43527e+06 0 2.09025e+06 5.42608e+06 0 2.12771e+06 5.41628e+06 0 2.16506e+06 5.40588e+06 0 2.2023e+06 5.39487e+06 0 2.23942e+06 5.38328e+06 0 2.2764e+06 5.37111e+06 0 2.31323e+06 5.35838e+06 0 2.34992e+06 5.34508e+06 0 2.38644e+06 5.33122e+06 0 2.4228e+06 5.31682e+06 0 2.45898e+06 5.30189e+06 0 2.49497e+06 5.28643e+06 0 2.53077e+06 5.27045e+06 0 2.56637e+06 5.25395e+06 0 2.60177e+06 5.23696e+06 0 2.63695e+06 5.21947e+06 0 2.67191e+06 5.20149e+06 0 2.70664e+06 5.18304e+06 0 2.74114e+06 5.16412e+06 0 2.77539e+06 5.14473e+06 0 2.80941e+06 5.1249e+06 0 2.84317e+06 5.10461e+06 0 2.87667e+06 5.0839e+06 0 2.90991e+06 5.06275e+06 0 2.94289e+06 5.04118e+06 0 2.97559e+06 5.0192e+06 0 3.00801e+06 4.99682e+06 0 3.04016e+06 4.97404e+06 0 3.07202e+06 4.95087e+06 0 3.10358e+06 4.92733e+06 0 3.13486e+06 4.90341e+06 0 3.16583e+06 4.87913e+06 0 3.19651e+06 4.85449e+06 0 3.22687e+06 4.8295e+06 0 3.25693e+06 4.80417e+06 0 3.28668e+06 4.77851e+06 0 3.31611e+06 4.75253e+06 0 3.34523e+06 4.72623e+06 0 3.37402e+06 4.69962e+06 0 3.40249e+06 4.67271e+06 0 3.43063e+06 4.6455e+06 0 3.45845e+06 4.61801e+06 0 3.48593e+06 4.59024e+06 0 3.51308e+06 4.5622e+06 0 3.5399e+06 4.53389e+06 0 3.56638e+06 4.50533e+06 0 3.59253e+06 4.47652e+06 0 3.61833e+06 4.44747e+06 0 3.64379e+06 4.41818e+06 0 3.66891e+06 4.38866e+06 0 3.69369e+06 4.35892e+06 0 3.71812e+06 4.32897e+06 0 3.74221e+06 4.29882e+06 0 3.76595e+06 4.26846e+06 0 3.78935e+06 4.23791e+06 0 3.81239e+06 4.20717e+06 0 3.83509e+06 4.17625e+06 0 3.85744e+06 4.14517e+06 0 3.87944e+06 4.11391e+06 0 3.9011e+06 4.08249e+06 0 3.9224e+06 4.05092e+06 0 3.94336e+06 4.01921e+06 0 3.96396e+06 3.98735e+06 0 3.98422e+06 3.95536e+06 0 4.00413e+06 3.92324e+06 0 4.02369e+06 3.89099e+06 0 4.0429e+06 3.85863e+06 0 4.06176e+06 3.82616e+06 0 4.08028e+06 3.79359e+06 0 4.09845e+06 3.76091e+06 0 4.11628e+06 3.72814e+06 0 4.13376e+06 3.69529e+06 0 4.1509e+06 3.66235e+06 0 4.1677e+06 3.62933e+06 0 4.18415e+06 3.59624e+06 0 4.20027e+06 3.56309e+06 0 4.21604e+06 3.52988e+06 0 4.23148e+06 3.49661e+06 0 4.24658e+06 3.46328e+06 0 4.26134e+06 3.42992e+06 0 4.27577e+06 3.39651e+06 0 4.28986e+06 3.36307e+06 0 4.30363e+06 3.32959e+06 0 4.31706e+06 3.29609e+06 0 4.33017e+06 3.26257e+06 0 4.34294e+06 3.22902e+06 0 4.3554e+06 3.19547e+06 0 4.36753e+06 3.16191e+06 0 4.37933e+06 3.12834e+06 0 4.39082e+06 3.09477e+06 0 829990 5.19161e+06 0 854540 5.20649e+06 0 879997 5.22088e+06 0 906298 5.23473e+06 0 933396 5.24801e+06 0 961245 5.26069e+06 0 989798 5.27272e+06 0 1.01901e+06 5.28407e+06 0 1.04883e+06 5.29474e+06 0 1.07922e+06 5.3047e+06 0 1.11014e+06 5.31394e+06 0 1.14154e+06 5.32246e+06 0 1.17338e+06 5.33024e+06 0 1.20564e+06 5.33729e+06 0 1.23826e+06 5.34361e+06 0 1.27123e+06 5.3492e+06 0 1.3045e+06 5.35406e+06 0 1.33806e+06 5.35819e+06 0 1.37187e+06 5.36161e+06 0 1.40591e+06 5.3643e+06 0 1.44016e+06 5.36629e+06 0 1.47458e+06 5.36758e+06 0 1.50917e+06 5.36818e+06 0 1.54389e+06 5.36808e+06 0 1.57874e+06 5.36731e+06 0 1.61368e+06 5.36586e+06 0 1.64871e+06 5.36375e+06 0 1.68381e+06 5.36098e+06 0 1.71895e+06 5.35756e+06 0 1.75414e+06 5.35349e+06 0 1.78934e+06 5.3488e+06 0 1.82455e+06 5.34348e+06 0 1.85975e+06 5.33754e+06 0 1.89494e+06 5.33099e+06 0 1.93009e+06 5.32383e+06 0 1.9652e+06 5.31609e+06 0 2.00025e+06 5.30775e+06 0 2.03523e+06 5.29884e+06 0 2.07014e+06 5.28936e+06 0 2.10496e+06 5.27932e+06 0 2.13968e+06 5.26873e+06 0 2.17429e+06 5.25759e+06 0 2.20879e+06 5.24591e+06 0 2.24316e+06 5.2337e+06 0 2.27739e+06 5.22097e+06 0 2.31148e+06 5.20772e+06 0 2.34542e+06 5.19397e+06 0 2.3792e+06 5.17972e+06 0 2.41281e+06 5.16498e+06 0 2.44624e+06 5.14976e+06 0 2.4795e+06 5.13407e+06 0 2.51256e+06 5.11791e+06 0 2.54544e+06 5.10129e+06 0 2.5781e+06 5.08422e+06 0 2.61056e+06 5.06671e+06 0 2.64281e+06 5.04876e+06 0 2.67484e+06 5.03039e+06 0 2.70664e+06 5.0116e+06 0 2.73821e+06 4.9924e+06 0 2.76955e+06 4.9728e+06 0 2.80064e+06 4.9528e+06 0 2.83149e+06 4.93241e+06 0 2.86209e+06 4.91164e+06 0 2.89243e+06 4.8905e+06 0 2.92251e+06 4.869e+06 0 2.95234e+06 4.84714e+06 0 2.98189e+06 4.82493e+06 0 3.01118e+06 4.80238e+06 0 3.04019e+06 4.7795e+06 0 3.06892e+06 4.75629e+06 0 3.09737e+06 4.73276e+06 0 3.12554e+06 4.70892e+06 0 3.15342e+06 4.68478e+06 0 3.18102e+06 4.66034e+06 0 3.20832e+06 4.6356e+06 0 3.23533e+06 4.61059e+06 0 3.26204e+06 4.5853e+06 0 3.28845e+06 4.55975e+06 0 3.31457e+06 4.53393e+06 0 3.34038e+06 4.50786e+06 0 3.36588e+06 4.48155e+06 0 3.39108e+06 4.45499e+06 0 3.41597e+06 4.4282e+06 0 3.44056e+06 4.40118e+06 0 3.46483e+06 4.37395e+06 0 3.48879e+06 4.3465e+06 0 3.51244e+06 4.31885e+06 0 3.53578e+06 4.29099e+06 0 3.55881e+06 4.26295e+06 0 3.58152e+06 4.23472e+06 0 3.60391e+06 4.2063e+06 0 3.62599e+06 4.17772e+06 0 3.64775e+06 4.14896e+06 0 3.6692e+06 4.12005e+06 0 3.69033e+06 4.09097e+06 0 3.71115e+06 4.06175e+06 0 3.73164e+06 4.03239e+06 0 3.75183e+06 4.00288e+06 0 3.77169e+06 3.97325e+06 0 3.79124e+06 3.94349e+06 0 3.81047e+06 3.91361e+06 0 3.82939e+06 3.88361e+06 0 3.848e+06 3.85351e+06 0 3.86629e+06 3.8233e+06 0 3.88426e+06 3.79299e+06 0 3.90193e+06 3.76259e+06 0 3.91928e+06 3.7321e+06 0 3.93632e+06 3.70153e+06 0 3.95305e+06 3.67087e+06 0 3.96947e+06 3.64015e+06 0 3.98558e+06 3.60936e+06 0 4.00139e+06 3.5785e+06 0 4.01689e+06 3.54759e+06 0 4.03208e+06 3.51662e+06 0 4.04697e+06 3.4856e+06 0 4.06156e+06 3.45454e+06 0 4.07585e+06 3.42344e+06 0 4.08983e+06 3.3923e+06 0 4.10352e+06 3.36113e+06 0 4.11691e+06 3.32993e+06 0 4.13e+06 3.29871e+06 0 4.1428e+06 3.26747e+06 0 4.15531e+06 3.23621e+06 0 4.16753e+06 3.20494e+06 0 4.17945e+06 3.17367e+06 0 4.19109e+06 3.14239e+06 0 4.20245e+06 3.11111e+06 0 4.21351e+06 3.07984e+06 0 889632 5.1234e+06 0 913382 5.13519e+06 0 937814 5.14658e+06 0 962913 5.15751e+06 0 988653 5.16794e+06 0 1.015e+06 5.17785e+06 0 1.04194e+06 5.18722e+06 0 1.06942e+06 5.19602e+06 0 1.09741e+06 5.20424e+06 0 1.12589e+06 5.21185e+06 0 1.15482e+06 5.21886e+06 0 1.18418e+06 5.22524e+06 0 1.21392e+06 5.23099e+06 0 1.24402e+06 5.23611e+06 0 1.27446e+06 5.24059e+06 0 1.3052e+06 5.24443e+06 0 1.33622e+06 5.24763e+06 0 1.36751e+06 5.2502e+06 0 1.39902e+06 5.25212e+06 0 1.43074e+06 5.25341e+06 0 1.46265e+06 5.25407e+06 0 1.49473e+06 5.25409e+06 0 1.52696e+06 5.2535e+06 0 1.55932e+06 5.25228e+06 0 1.59179e+06 5.25046e+06 0 1.62436e+06 5.24802e+06 0 1.657e+06 5.24498e+06 0 1.68971e+06 5.24134e+06 0 1.72247e+06 5.23711e+06 0 1.75525e+06 5.2323e+06 0 1.78806e+06 5.22691e+06 0 1.82088e+06 5.22095e+06 0 1.85368e+06 5.21442e+06 0 1.88647e+06 5.20734e+06 0 1.91923e+06 5.1997e+06 0 1.95194e+06 5.19153e+06 0 1.9846e+06 5.18281e+06 0 2.0172e+06 5.17357e+06 0 2.04972e+06 5.16381e+06 0 2.08216e+06 5.15353e+06 0 2.11451e+06 5.14274e+06 0 2.14675e+06 5.13146e+06 0 2.17888e+06 5.11968e+06 0 2.21089e+06 5.10741e+06 0 2.24277e+06 5.09467e+06 0 2.27452e+06 5.08146e+06 0 2.30612e+06 5.06779e+06 0 2.33756e+06 5.05366e+06 0 2.36885e+06 5.03908e+06 0 2.39998e+06 5.02407e+06 0 2.43093e+06 5.00862e+06 0 2.4617e+06 4.99275e+06 0 2.49229e+06 4.97645e+06 0 2.52269e+06 4.95975e+06 0 2.55289e+06 4.94265e+06 0 2.58289e+06 4.92515e+06 0 2.61268e+06 4.90726e+06 0 2.64226e+06 4.88899e+06 0 2.67162e+06 4.87035e+06 0 2.70076e+06 4.85135e+06 0 2.72967e+06 4.83198e+06 0 2.75835e+06 4.81227e+06 0 2.7868e+06 4.79221e+06 0 2.81501e+06 4.77182e+06 0 2.84298e+06 4.7511e+06 0 2.8707e+06 4.73005e+06 0 2.89817e+06 4.7087e+06 0 2.92539e+06 4.68703e+06 0 2.95235e+06 4.66506e+06 0 2.97905e+06 4.64281e+06 0 3.00549e+06 4.62026e+06 0 3.03167e+06 4.59744e+06 0 3.05758e+06 4.57434e+06 0 3.08323e+06 4.55098e+06 0 3.1086e+06 4.52737e+06 0 3.1337e+06 4.5035e+06 0 3.15852e+06 4.47938e+06 0 3.18307e+06 4.45503e+06 0 3.20734e+06 4.43045e+06 0 3.23133e+06 4.40564e+06 0 3.25504e+06 4.38061e+06 0 3.27847e+06 4.35537e+06 0 3.30162e+06 4.32993e+06 0 3.32448e+06 4.30428e+06 0 3.34705e+06 4.27845e+06 0 3.36934e+06 4.25242e+06 0 3.39134e+06 4.22622e+06 0 3.41306e+06 4.19984e+06 0 3.43448e+06 4.1733e+06 0 3.45562e+06 4.14659e+06 0 3.47647e+06 4.11972e+06 0 3.49703e+06 4.0927e+06 0 3.51731e+06 4.06554e+06 0 3.53729e+06 4.03823e+06 0 3.55699e+06 4.0108e+06 0 3.5764e+06 3.98323e+06 0 3.59552e+06 3.95554e+06 0 3.61435e+06 3.92774e+06 0 3.63289e+06 3.89982e+06 0 3.65115e+06 3.87179e+06 0 3.66912e+06 3.84366e+06 0 3.6868e+06 3.81543e+06 0 3.7042e+06 3.78711e+06 0 3.72132e+06 3.75871e+06 0 3.73815e+06 3.73022e+06 0 3.7547e+06 3.70165e+06 0 3.77096e+06 3.67301e+06 0 3.78695e+06 3.6443e+06 0 3.80265e+06 3.61552e+06 0 3.81808e+06 3.58669e+06 0 3.83323e+06 3.5578e+06 0 3.8481e+06 3.52886e+06 0 3.8627e+06 3.49987e+06 0 3.87702e+06 3.47084e+06 0 3.89107e+06 3.44177e+06 0 3.90484e+06 3.41267e+06 0 3.91835e+06 3.38353e+06 0 3.93159e+06 3.35437e+06 0 3.94456e+06 3.32518e+06 0 3.95726e+06 3.29598e+06 0 3.9697e+06 3.26676e+06 0 3.98188e+06 3.23753e+06 0 3.99379e+06 3.20828e+06 0 4.00545e+06 3.17904e+06 0 4.01684e+06 3.14979e+06 0 4.02798e+06 3.12054e+06 0 4.03886e+06 3.0913e+06 0 4.04949e+06 3.06206e+06 0 939335 5.05736e+06 0 962247 5.0667e+06 0 985735 5.07566e+06 0 1.00978e+06 5.08419e+06 0 1.03434e+06 5.09229e+06 0 1.05942e+06 5.09993e+06 0 1.08498e+06 5.10709e+06 0 1.111e+06 5.11376e+06 0 1.13745e+06 5.1199e+06 0 1.16431e+06 5.12553e+06 0 1.19156e+06 5.13062e+06 0 1.21918e+06 5.13516e+06 0 1.24713e+06 5.13914e+06 0 1.27539e+06 5.14257e+06 0 1.30395e+06 5.14544e+06 0 1.33278e+06 5.14773e+06 0 1.36185e+06 5.14946e+06 0 1.39115e+06 5.15062e+06 0 1.42066e+06 5.15121e+06 0 1.45036e+06 5.15123e+06 0 1.48023e+06 5.15068e+06 0 1.51024e+06 5.14957e+06 0 1.54039e+06 5.14789e+06 0 1.57066e+06 5.14566e+06 0 1.60103e+06 5.14286e+06 0 1.63148e+06 5.13952e+06 0 1.662e+06 5.13563e+06 0 1.69257e+06 5.13119e+06 0 1.72319e+06 5.12622e+06 0 1.75384e+06 5.12071e+06 0 1.7845e+06 5.11468e+06 0 1.81516e+06 5.10812e+06 0 1.84582e+06 5.10105e+06 0 1.87645e+06 5.09347e+06 0 1.90706e+06 5.08539e+06 0 1.93761e+06 5.07681e+06 0 1.96812e+06 5.06774e+06 0 1.99857e+06 5.05818e+06 0 2.02894e+06 5.04815e+06 0 2.05923e+06 5.03764e+06 0 2.08943e+06 5.02667e+06 0 2.11952e+06 5.01524e+06 0 2.14952e+06 5.00336e+06 0 2.17939e+06 4.99104e+06 0 2.20915e+06 4.97828e+06 0 2.23877e+06 4.96509e+06 0 2.26825e+06 4.95148e+06 0 2.29759e+06 4.93745e+06 0 2.32678e+06 4.92301e+06 0 2.35581e+06 4.90817e+06 0 2.38467e+06 4.89293e+06 0 2.41337e+06 4.87731e+06 0 2.44189e+06 4.8613e+06 0 2.47023e+06 4.84492e+06 0 2.49838e+06 4.82818e+06 0 2.52634e+06 4.81107e+06 0 2.55411e+06 4.79362e+06 0 2.58167e+06 4.77581e+06 0 2.60903e+06 4.75767e+06 0 2.63618e+06 4.7392e+06 0 2.66312e+06 4.7204e+06 0 2.68984e+06 4.70128e+06 0 2.71633e+06 4.68186e+06 0 2.74261e+06 4.66213e+06 0 2.76865e+06 4.6421e+06 0 2.79447e+06 4.62179e+06 0 2.82005e+06 4.60118e+06 0 2.84539e+06 4.58031e+06 0 2.8705e+06 4.55916e+06 0 2.89536e+06 4.53775e+06 0 2.91998e+06 4.51609e+06 0 2.94435e+06 4.49417e+06 0 2.96847e+06 4.47201e+06 0 2.99235e+06 4.44961e+06 0 3.01597e+06 4.42699e+06 0 3.03933e+06 4.40414e+06 0 3.06244e+06 4.38107e+06 0 3.0853e+06 4.35779e+06 0 3.10789e+06 4.3343e+06 0 3.13023e+06 4.31062e+06 0 3.15231e+06 4.28674e+06 0 3.17412e+06 4.26267e+06 0 3.19568e+06 4.23843e+06 0 3.21697e+06 4.21401e+06 0 3.238e+06 4.18941e+06 0 3.25876e+06 4.16466e+06 0 3.27926e+06 4.13975e+06 0 3.2995e+06 4.11468e+06 0 3.31947e+06 4.08947e+06 0 3.33917e+06 4.06411e+06 0 3.35861e+06 4.03862e+06 0 3.37779e+06 4.013e+06 0 3.3967e+06 3.98725e+06 0 3.41535e+06 3.96138e+06 0 3.43373e+06 3.9354e+06 0 3.45185e+06 3.90931e+06 0 3.4697e+06 3.88311e+06 0 3.48729e+06 3.85681e+06 0 3.50462e+06 3.83041e+06 0 3.52169e+06 3.80393e+06 0 3.5385e+06 3.77735e+06 0 3.55504e+06 3.7507e+06 0 3.57133e+06 3.72397e+06 0 3.58736e+06 3.69716e+06 0 3.60313e+06 3.67029e+06 0 3.61864e+06 3.64335e+06 0 3.6339e+06 3.61635e+06 0 3.6489e+06 3.5893e+06 0 3.66365e+06 3.56219e+06 0 3.67815e+06 3.53504e+06 0 3.69239e+06 3.50784e+06 0 3.70639e+06 3.48061e+06 0 3.72014e+06 3.45333e+06 0 3.73363e+06 3.42602e+06 0 3.74689e+06 3.39869e+06 0 3.75989e+06 3.37133e+06 0 3.77266e+06 3.34394e+06 0 3.78518e+06 3.31654e+06 0 3.79746e+06 3.28912e+06 0 3.80951e+06 3.26169e+06 0 3.82131e+06 3.23425e+06 0 3.83288e+06 3.20681e+06 0 3.84421e+06 3.17936e+06 0 3.85531e+06 3.15191e+06 0 3.86618e+06 3.12447e+06 0 3.87682e+06 3.09703e+06 0 3.88723e+06 3.0696e+06 0 3.89741e+06 3.04218e+06 0 980907 4.99363e+06 0 1.00305e+06 5.00092e+06 0 1.02566e+06 5.00786e+06 0 1.04874e+06 5.01441e+06 0 1.07225e+06 5.02056e+06 0 1.09619e+06 5.0263e+06 0 1.12054e+06 5.0316e+06 0 1.14528e+06 5.03645e+06 0 1.17039e+06 5.04084e+06 0 1.19584e+06 5.04476e+06 0 1.22163e+06 5.04821e+06 0 1.24773e+06 5.05116e+06 0 1.27412e+06 5.05362e+06 0 1.30078e+06 5.05557e+06 0 1.32769e+06 5.05702e+06 0 1.35484e+06 5.05796e+06 0 1.3822e+06 5.05839e+06 0 1.40977e+06 5.05831e+06 0 1.43751e+06 5.05771e+06 0 1.46542e+06 5.0566e+06 0 1.49347e+06 5.05497e+06 0 1.52166e+06 5.05283e+06 0 1.54996e+06 5.05019e+06 0 1.57836e+06 5.04703e+06 0 1.60685e+06 5.04337e+06 0 1.63542e+06 5.0392e+06 0 1.66404e+06 5.03454e+06 0 1.69271e+06 5.02938e+06 0 1.72141e+06 5.02372e+06 0 1.75013e+06 5.01759e+06 0 1.77886e+06 5.01097e+06 0 1.80759e+06 5.00387e+06 0 1.83631e+06 4.9963e+06 0 1.865e+06 4.98827e+06 0 1.89366e+06 4.97977e+06 0 1.92228e+06 4.97082e+06 0 1.95084e+06 4.96141e+06 0 1.97933e+06 4.95157e+06 0 2.00776e+06 4.94128e+06 0 2.03611e+06 4.93056e+06 0 2.06436e+06 4.91942e+06 0 2.09252e+06 4.90786e+06 0 2.12058e+06 4.89588e+06 0 2.14852e+06 4.8835e+06 0 2.17634e+06 4.87072e+06 0 2.20404e+06 4.85754e+06 0 2.23161e+06 4.84398e+06 0 2.25903e+06 4.83003e+06 0 2.28631e+06 4.81571e+06 0 2.31344e+06 4.80102e+06 0 2.34042e+06 4.78598e+06 0 2.36723e+06 4.77057e+06 0 2.39387e+06 4.75482e+06 0 2.42034e+06 4.73873e+06 0 2.44663e+06 4.72231e+06 0 2.47275e+06 4.70555e+06 0 2.49867e+06 4.68848e+06 0 2.52441e+06 4.67109e+06 0 2.54995e+06 4.65339e+06 0 2.57529e+06 4.6354e+06 0 2.60043e+06 4.6171e+06 0 2.62536e+06 4.59853e+06 0 2.65009e+06 4.57966e+06 0 2.67461e+06 4.56053e+06 0 2.69891e+06 4.54112e+06 0 2.72299e+06 4.52146e+06 0 2.74685e+06 4.50154e+06 0 2.77049e+06 4.48137e+06 0 2.79391e+06 4.46095e+06 0 2.8171e+06 4.4403e+06 0 2.84006e+06 4.41942e+06 0 2.86279e+06 4.39832e+06 0 2.88529e+06 4.377e+06 0 2.90755e+06 4.35546e+06 0 2.92958e+06 4.33373e+06 0 2.95137e+06 4.31179e+06 0 2.97292e+06 4.28965e+06 0 2.99423e+06 4.26733e+06 0 3.01531e+06 4.24483e+06 0 3.03614e+06 4.22215e+06 0 3.05673e+06 4.1993e+06 0 3.07708e+06 4.17628e+06 0 3.09718e+06 4.15311e+06 0 3.11704e+06 4.12978e+06 0 3.13666e+06 4.1063e+06 0 3.15603e+06 4.08268e+06 0 3.17516e+06 4.05892e+06 0 3.19404e+06 4.03502e+06 0 3.21268e+06 4.011e+06 0 3.23108e+06 3.98686e+06 0 3.24923e+06 3.96259e+06 0 3.26714e+06 3.93822e+06 0 3.2848e+06 3.91373e+06 0 3.30222e+06 3.88915e+06 0 3.3194e+06 3.86446e+06 0 3.33633e+06 3.83968e+06 0 3.35303e+06 3.81481e+06 0 3.36948e+06 3.78986e+06 0 3.38569e+06 3.76482e+06 0 3.40167e+06 3.73971e+06 0 3.4174e+06 3.71453e+06 0 3.4329e+06 3.68928e+06 0 3.44816e+06 3.66396e+06 0 3.46318e+06 3.63859e+06 0 3.47797e+06 3.61315e+06 0 3.49252e+06 3.58767e+06 0 3.50684e+06 3.56214e+06 0 3.52093e+06 3.53656e+06 0 3.53479e+06 3.51094e+06 0 3.54842e+06 3.48529e+06 0 3.56182e+06 3.4596e+06 0 3.575e+06 3.43388e+06 0 3.58795e+06 3.40814e+06 0 3.60067e+06 3.38237e+06 0 3.61317e+06 3.35658e+06 0 3.62545e+06 3.33077e+06 0 3.63752e+06 3.30495e+06 0 3.64936e+06 3.27911e+06 0 3.66098e+06 3.25327e+06 0 3.67239e+06 3.22743e+06 0 3.68358e+06 3.20158e+06 0 3.69457e+06 3.17573e+06 0 3.70534e+06 3.14988e+06 0 3.7159e+06 3.12404e+06 0 3.72625e+06 3.09821e+06 0 3.73639e+06 3.07239e+06 0 3.74634e+06 3.04658e+06 0 3.75607e+06 3.02079e+06 0 1.01581e+06 4.93222e+06 0 1.03719e+06 4.93779e+06 0 1.05897e+06 4.94301e+06 0 1.08115e+06 4.94788e+06 0 1.1037e+06 4.95238e+06 0 1.12661e+06 4.9565e+06 0 1.14987e+06 4.96021e+06 0 1.17346e+06 4.96352e+06 0 1.19737e+06 4.96641e+06 0 1.22157e+06 4.96886e+06 0 1.24606e+06 4.97088e+06 0 1.27081e+06 4.97246e+06 0 1.29582e+06 4.97359e+06 0 1.32105e+06 4.97426e+06 0 1.34651e+06 4.97448e+06 0 1.37216e+06 4.97423e+06 0 1.39801e+06 4.97351e+06 0 1.42402e+06 4.97233e+06 0 1.45019e+06 4.97069e+06 0 1.4765e+06 4.96857e+06 0 1.50294e+06 4.96599e+06 0 1.52949e+06 4.96294e+06 0 1.55614e+06 4.95942e+06 0 1.58287e+06 4.95544e+06 0 1.60968e+06 4.95099e+06 0 1.63655e+06 4.94609e+06 0 1.66346e+06 4.94073e+06 0 1.69042e+06 4.93492e+06 0 1.71739e+06 4.92866e+06 0 1.74438e+06 4.92195e+06 0 1.77137e+06 4.9148e+06 0 1.79836e+06 4.90721e+06 0 1.82532e+06 4.89919e+06 0 1.85226e+06 4.89074e+06 0 1.87916e+06 4.88187e+06 0 1.90601e+06 4.87258e+06 0 1.93281e+06 4.86288e+06 0 1.95955e+06 4.85277e+06 0 1.98621e+06 4.84225e+06 0 2.01279e+06 4.83134e+06 0 2.03928e+06 4.82004e+06 0 2.06568e+06 4.80836e+06 0 2.09198e+06 4.79629e+06 0 2.11817e+06 4.78385e+06 0 2.14424e+06 4.77105e+06 0 2.17019e+06 4.75788e+06 0 2.19601e+06 4.74436e+06 0 2.2217e+06 4.73049e+06 0 2.24725e+06 4.71627e+06 0 2.27265e+06 4.70172e+06 0 2.2979e+06 4.68684e+06 0 2.323e+06 4.67164e+06 0 2.34793e+06 4.65612e+06 0 2.37271e+06 4.64029e+06 0 2.39731e+06 4.62415e+06 0 2.42174e+06 4.60771e+06 0 2.44599e+06 4.59098e+06 0 2.47006e+06 4.57397e+06 0 2.49395e+06 4.55667e+06 0 2.51764e+06 4.5391e+06 0 2.54115e+06 4.52127e+06 0 2.56446e+06 4.50317e+06 0 2.58758e+06 4.48482e+06 0 2.61049e+06 4.46622e+06 0 2.63321e+06 4.44737e+06 0 2.65571e+06 4.42829e+06 0 2.67801e+06 4.40898e+06 0 2.7001e+06 4.38945e+06 0 2.72198e+06 4.36969e+06 0 2.74365e+06 4.34973e+06 0 2.7651e+06 4.32956e+06 0 2.78633e+06 4.30918e+06 0 2.80735e+06 4.28861e+06 0 2.82814e+06 4.26785e+06 0 2.84872e+06 4.24691e+06 0 2.86907e+06 4.22579e+06 0 2.8892e+06 4.2045e+06 0 2.90911e+06 4.18304e+06 0 2.9288e+06 4.16142e+06 0 2.94825e+06 4.13964e+06 0 2.96749e+06 4.11771e+06 0 2.9865e+06 4.09564e+06 0 3.00528e+06 4.07342e+06 0 3.02383e+06 4.05107e+06 0 3.04216e+06 4.02859e+06 0 3.06026e+06 4.00599e+06 0 3.07814e+06 3.98326e+06 0 3.09579e+06 3.96042e+06 0 3.11321e+06 3.93746e+06 0 3.13041e+06 3.91441e+06 0 3.14738e+06 3.89124e+06 0 3.16412e+06 3.86799e+06 0 3.18064e+06 3.84463e+06 0 3.19694e+06 3.8212e+06 0 3.21301e+06 3.79767e+06 0 3.22886e+06 3.77407e+06 0 3.24449e+06 3.75039e+06 0 3.25989e+06 3.72664e+06 0 3.27508e+06 3.70282e+06 0 3.29004e+06 3.67894e+06 0 3.30479e+06 3.655e+06 0 3.31931e+06 3.63101e+06 0 3.33362e+06 3.60696e+06 0 3.34772e+06 3.58286e+06 0 3.3616e+06 3.55872e+06 0 3.37526e+06 3.53454e+06 0 3.38871e+06 3.51032e+06 0 3.40195e+06 3.48606e+06 0 3.41499e+06 3.46178e+06 0 3.42781e+06 3.43746e+06 0 3.44042e+06 3.41312e+06 0 3.45283e+06 3.38876e+06 0 3.46503e+06 3.36439e+06 0 3.47703e+06 3.33999e+06 0 3.48883e+06 3.31559e+06 0 3.50042e+06 3.29117e+06 0 3.51182e+06 3.26674e+06 0 3.52301e+06 3.24232e+06 0 3.53401e+06 3.21789e+06 0 3.54482e+06 3.19346e+06 0 3.55543e+06 3.16903e+06 0 3.56585e+06 3.14461e+06 0 3.57608e+06 3.1202e+06 0 3.58612e+06 3.0958e+06 0 3.59597e+06 3.07141e+06 0 3.60563e+06 3.04704e+06 0 3.61511e+06 3.02269e+06 0 3.62441e+06 2.99835e+06 0 1.04508e+06 4.87311e+06 0 1.06573e+06 4.8772e+06 0 1.08673e+06 4.88096e+06 0 1.10807e+06 4.88439e+06 0 1.12972e+06 4.88747e+06 0 1.15169e+06 4.89019e+06 0 1.17395e+06 4.89254e+06 0 1.1965e+06 4.89451e+06 0 1.21931e+06 4.8961e+06 0 1.24238e+06 4.89729e+06 0 1.2657e+06 4.89808e+06 0 1.28924e+06 4.89846e+06 0 1.313e+06 4.89843e+06 0 1.33695e+06 4.89798e+06 0 1.3611e+06 4.89711e+06 