<?xml version="1.0"?> 
<VTKFile type="StructuredGrid" version="0.1"> 
<StructuredGrid WholeExtent="0 127 0 127 0 0"> 
<Piece Extent="0 127 0 127 0 0"> 
<PointData>
<DataArray type="Float32" Name="|E|" format="ascii" NumberOfComponents="3"> 
5.01845e+06 3.11194e+06 0 4.79259e+06 2.98642e+06 0 4.5865e+06 2.87626e+06 0 4.39784e+06 2.7789e+06 0 4.22453e+06 2.69233e+06 0 4.06482e+06 2.61488e+06 0 3.91716e+06 2.54521e+06 0 3.78024e+06 2.48218e+06 0 3.65293e+06 2.42487e+06 0 3.53421e+06 2.37249e+06 0 3.42322e+06 2.32439e+06 0 3.31921e+06 2.28002e+06 0 3.2215e+06 2.23892e+06 0 3.12951e+06 2.20069e+06 0 3.04271e+06 2.16498e+06 0 2.96065e+06 2.13152e+06 0 2.88291e+06 2.10004e+06 0 2.80914e+06 2.07033e+06 0 2.73901e+06 2.04222e+06 0 2.67222e+06 2.01552e+06 0 2.60852e+06 1.99011e+06 0 2.54768e+06 1.96585e+06 0 2.48947e+06 1.94264e+06 0 2.43372e+06 1.92037e+06 0 2.38025e+06 1.89897e+06 0 2.32889e+06 1.87836e+06 0 2.27952e+06 1.85847e+06 0 2.23199e+06 1.83924e+06 0 2.1862e+06 1.82061e+06 0 2.14203e+06 1.80254e+06 0 2.09938e+06 1.78499e+06 0 2.05816e+06 1.76792e+06 0 2.0183e+06 1.75128e+06 0 1.9797e+06 1.73505e+06 0 1.94231e+06 1.7192e+06 0 1.90606e+06 1.70371e+06 0 1.87088e+06 1.68854e+06 0 1.83672e+06 1.67368e+06 0 1.80353e+06 1.65911e+06 0 1.77126e+06 1.64481e+06 0 1.73987e+06 1.63077e+06 0 1.7093e+06 1.61696e+06 0 1.67954e+06 1.60337e+06 0 1.65053e+06 1.58999e+06 0 1.62224e+06 1.57682e+06 0 1.59465e+06 1.56383e+06 0 1.56772e+06 1.55102e+06 0 1.54143e+06 1.53838e+06 0 1.51574e+06 1.5259e+06 0 1.49064e+06 1.51356e+06 0 1.46611e+06 1.50138e+06 0 1.44211e+06 1.48933e+06 0 1.41863e+06 1.47741e+06 0 1.39565e+06 1.46562e+06 0 1.37316e+06 1.45395e+06 0 1.35113e+06 1.44239e+06 0 1.32955e+06 1.43094e+06 0 1.3084e+06 1.4196e+06 0 1.28767e+06 1.40836e+06 0 1.26735e+06 1.39721e+06 0 1.24742e+06 1.38616e+06 0 1.22786e+06 1.3752e+06 0 1.20868e+06 1.36432e+06 0 1.18985e+06 1.35353e+06 0 1.17138e+06 1.34282e+06 0 1.15323e+06 1.33219e+06 0 1.13541e+06 1.32164e+06 0 1.11792e+06 1.31116e+06 0 1.10072e+06 1.30075e+06 0 1.08383e+06 1.29041e+06 0 1.06724e+06 1.28013e+06 0 1.05092e+06 1.26993e+06 0 1.03488e+06 1.25978e+06 0 1.01912e+06 1.2497e+06 0 1.00362e+06 1.23968e+06 0 988370 1.22972e+06 0 973376 1.21982e+06 0 958627 1.20998e+06 0 944117 1.20019e+06 0 929841 1.19046e+06 0 915793 1.18078e+06 0 901969 1.17115e+06 0 888364 1.16158e+06 0 874973 1.15205e+06 0 861792 1.14258e+06 0 848816 1.13316e+06 0 836041 1.12378e+06 0 823462 1.11445e+06 0 811077 1.10518e+06 0 798881 1.09594e+06 0 786870 1.08676e+06 0 775041 1.07762e+06 0 763391 1.06852e+06 0 751915 1.05947e+06 0 740612 1.05047e+06 0 729478 1.0415e+06 0 718509 1.03258e+06 0 707703 1.02371e+06 0 697056 1.01488e+06 0 686567 1.00608e+06 0 676232 997336 0 666049 988628 0 656015 979962 0 646127 971336 0 636384 962751 0 626782 954207 0 617320 945703 0 607995 937238 0 598805 928813 0 589747 920427 0 580820 912081 0 572022 903773 0 563350 895504 0 554802 887273 0 546377 879081 0 538073 870926 0 529888 862809 0 521819 854730 0 513866 846688 0 506026 838683 0 498298 830715 0 490680 822784 0 483170 814890 0 475767 807031 0 468468 799209 0 461274 791423 0 454181 783673 0 447190 775958 0 4.79148e+06 3.11217e+06 0 4.58844e+06 2.99049e+06 0 4.40208e+06 2.88312e+06 0 4.23056e+06 2.78778e+06 0 4.0722e+06 2.70262e+06 0 3.92558e+06 2.62615e+06 0 3.78944e+06 2.55709e+06 0 3.66269e+06 2.49442e+06 0 3.54439e+06 2.43727e+06 0 3.43369e+06 2.3849e+06 0 3.32986e+06 2.3367e+06 0 3.23226e+06 2.29214e+06 0 3.14031e+06 2.2508e+06 0 3.05351e+06 2.21227e+06 0 2.97141e+06 2.17625e+06 0 2.8936e+06 2.14245e+06 0 2.81974e+06 2.11062e+06 0 2.7495e+06 2.08056e+06 0 2.68259e+06 2.05209e+06 0 2.61877e+06 2.02504e+06 0 2.55778e+06 1.99928e+06 0 2.49944e+06 1.97468e+06 0 2.44354e+06 1.95114e+06 0 2.38992e+06 1.92856e+06 0 2.33843e+06 1.90685e+06 0 2.28891e+06 1.88593e+06 0 2.24124e+06 1.86575e+06 0 2.19531e+06 1.84624e+06 0 2.151e+06 1.82735e+06 0 2.10822e+06 1.80903e+06 0 2.06687e+06 1.79123e+06 0 2.02688e+06 1.77392e+06 0 1.98816e+06 1.75705e+06 0 1.95065e+06 1.74061e+06 0 1.91427e+06 1.72455e+06 0 1.87898e+06 1.70886e+06 0 1.84471e+06 1.6935e+06 0 1.81141e+06 1.67846e+06 0 1.77903e+06 1.66371e+06 0 1.74753e+06 1.64924e+06 0 1.71687e+06 1.63503e+06 0 1.68701e+06 1.62107e+06 0 1.6579e+06 1.60733e+06 0 1.62953e+06 1.59382e+06 0 1.60185e+06 1.5805e+06 0 1.57483e+06 1.56738e+06 0 1.54845e+06 1.55445e+06 0 1.52269e+06 1.54169e+06 0 1.49751e+06 1.52909e+06 0 1.47289e+06 1.51665e+06 0 1.44882e+06 1.50436e+06 0 1.42527e+06 1.49221e+06 0 1.40222e+06 1.48019e+06 0 1.37965e+06 1.46831e+06 0 1.35756e+06 1.45654e+06 0 1.33591e+06 1.4449e+06 0 1.31469e+06 1.43337e+06 0 1.2939e+06 1.42195e+06 0 1.27352e+06 1.41063e+06 0 1.25352e+06 1.39941e+06 0 1.23391e+06 1.38829e+06 0 1.21467e+06 1.37726e+06 0 1.19579e+06 1.36632e+06 0 1.17725e+06 1.35547e+06 0 1.15905e+06 1.3447e+06 0 1.14118e+06 1.33401e+06 0 1.12363e+06 1.3234e+06 0 1.10639e+06 1.31287e+06 0 1.08945e+06 1.3024e+06 0 1.0728e+06 1.29202e+06 0 1.05643e+06 1.2817e+06 0 1.04035e+06 1.27145e+06 0 1.02454e+06 1.26126e+06 0 1.00899e+06 1.25114e+06 0 993693 1.24108e+06 0 978653 1.23108e+06 0 963858 1.22115e+06 0 949304 1.21127e+06 0 934983 1.20145e+06 0 920892 1.19168e+06 0 907026 1.18198e+06 0 893378 1.17232e+06 0 879945 1.16272e+06 0 866722 1.15317e+06 0 853705 1.14367e+06 0 840889 1.13423e+06 0 828270 1.12483e+06 0 815845 1.11548e+06 0 803609 1.10618e+06 0 791559 1.09693e+06 0 779691 1.08773e+06 0 768002 1.07857e+06 0 756489 1.06946e+06 0 745148 1.06039e+06 0 733975 1.05137e+06 0 722969 1.0424e+06 0 712126 1.03347e+06 0 701443 1.02458e+06 0 690917 1.01573e+06 0 680546 1.00693e+06 0 670327 998174 0 660257 989458 0 650334 980784 0 640555 972151 0 630918 963559 0 621421 955009 0 612062 946499 0 602837 938030 0 593745 929600 0 584784 921211 0 575952 912861 0 567246 904550 0 558665 896279 0 550207 888046 0 541870 879853 0 533651 871697 0 525550 863580 0 517564 855501 0 509692 847459 0 501932 839455 0 494282 831489 0 486740 823559 0 479305 815667 0 471976 807811 0 464750 799992 0 457626 792209 0 450603 784462 0 443680 776751 0 4.58289e+06 3.10596e+06 0 4.39982e+06 2.9886e+06 0 4.23086e+06 2.88451e+06 0 4.07454e+06 2.79163e+06 0 3.92953e+06 2.70832e+06 0 3.79465e+06 2.6332e+06 0 3.66891e+06 2.56513e+06 0 3.55138e+06 2.50315e+06 0 3.44129e+06 2.44646e+06 0 3.33792e+06 2.39438e+06 0 3.24067e+06 2.34632e+06 0 3.14898e+06 2.30181e+06 0 3.06237e+06 2.26042e+06 0 2.98039e+06 2.22179e+06 0 2.90267e+06 2.18562e+06 0 2.82884e+06 2.15163e+06 0 2.75861e+06 2.11959e+06 0 2.69168e+06 2.08931e+06 0 2.62782e+06 2.06059e+06 0 2.56678e+06 2.0333e+06 0 2.50837e+06 2.00728e+06 0 2.4524e+06 1.98243e+06 0 2.3987e+06 1.95863e+06 0 2.34712e+06 1.9358e+06 0 2.29751e+06 1.91385e+06 0 2.24974e+06 1.89269e+06 0 2.20371e+06 1.87228e+06 0 2.15931e+06 1.85254e+06 0 2.11643e+06 1.83343e+06 0 2.07498e+06 1.81489e+06 0 2.03489e+06 1.79688e+06 0 1.99607e+06 1.77937e+06 0 1.95847e+06 1.76231e+06 0 1.922e+06 1.74568e+06 0 1.88661e+06 1.72944e+06 0 1.85225e+06 1.71357e+06 0 1.81886e+06 1.69805e+06 0 1.7864e+06 1.68285e+06 0 1.75481e+06 1.66795e+06 0 1.72407e+06 1.65333e+06 0 1.69412e+06 1.63898e+06 0 1.66494e+06 1.62487e+06 0 1.63648e+06 1.61101e+06 0 1.60872e+06 1.59736e+06 0 1.58163e+06 1.58393e+06 0 1.55518e+06 1.57069e+06 0 1.52935e+06 1.55764e+06 0 1.5041e+06 1.54477e+06 0 1.47941e+06 1.53207e+06 0 1.45527e+06 1.51953e+06 0 1.43166e+06 1.50714e+06 0 1.40854e+06 1.4949e+06 0 1.38591e+06 1.48279e+06 0 1.36375e+06 1.47082e+06 0 1.34205e+06 1.45898e+06 0 1.32078e+06 1.44725e+06 0 1.29993e+06 1.43565e+06 0 1.27948e+06 1.42415e+06 0 1.25944e+06 1.41276e+06 0 1.23977e+06 1.40148e+06 0 1.22048e+06 1.39029e+06 0 1.20154e+06 1.3792e+06 0 1.18295e+06 1.3682e+06 0 1.16471e+06 1.35729e+06 0 1.14678e+06 1.34646e+06 0 1.12918e+06 1.33572e+06 0 1.11189e+06 1.32506e+06 0 1.0949e+06 1.31448e+06 0 1.07821e+06 1.30397e+06 0 1.0618e+06 1.29354e+06 0 1.04567e+06 1.28318e+06 0 1.02981e+06 1.27288e+06 0 1.01422e+06 1.26266e+06 0 998882 1.2525e+06 0 983799 1.24241e+06 0 968962 1.23238e+06 0 954365 1.22241e+06 0 940004 1.2125e+06 0 925872 1.20264e+06 0 911965 1.19285e+06 0 898278 1.18311e+06 0 884805 1.17343e+06 0 871543 1.16381e+06 0 858487 1.15423e+06 0 845632 1.14471e+06 0 832976 1.13525e+06 0 820513 1.12583e+06 0 808239 1.11646e+06 0 796152 1.10714e+06 0 784248 1.09787e+06 0 772523 1.08865e+06 0 760973 1.07948e+06 0 749596 1.07036e+06 0 738388 1.06128e+06 0 727346 1.05224e+06 0 716468 1.04326e+06 0 705750 1.03431e+06 0 695189 1.02541e+06 0 684784 1.01656e+06 0 674530 1.00775e+06 0 664426 998983 0 654469 990259 0 644657 981577 0 634986 972938 0 625456 964341 0 616063 955785 0 606805 947270 0 597680 938797 0 588687 930364 0 579822 921971 0 571084 913619 0 562471 905306 0 553981 897033 0 545612 888800 0 537362 880605 0 529229 872450 0 521212 864333 0 513309 856254 0 505517 848214 0 497836 840211 0 490264 832246 0 482799 824319 0 475439 816429 0 468183 808576 0 461029 800760 0 453976 792981 0 447023 785237 0 440167 777531 0 4.39079e+06 3.0948e+06 0 4.22524e+06 2.98203e+06 0 4.07163e+06 2.8815e+06 0 3.92882e+06 2.79139e+06 0 3.79572e+06 2.71022e+06 0 3.67141e+06 2.63675e+06 0 3.55504e+06 2.56993e+06 0 3.44588e+06 2.50889e+06 0 3.34327e+06 2.4529e+06 0 3.24662e+06 2.40131e+06 0 3.15542e+06 2.35361e+06 0 3.06918e+06 2.30932e+06 0 2.98751e+06 2.26806e+06 0 2.91001e+06 2.22948e+06 0 2.83636e+06 2.19329e+06 0 2.76626e+06 2.15925e+06 0 2.69943e+06 2.12711e+06 0 2.63562e+06 2.0967e+06 0 2.57462e+06 2.06785e+06 0 2.51623e+06 2.04039e+06 0 2.46025e+06 2.01421e+06 0 2.40653e+06 1.98918e+06 0 2.35492e+06 1.9652e+06 0 2.30527e+06 1.94218e+06 0 2.25746e+06 1.92003e+06 0 2.21138e+06 1.89869e+06 0 2.16692e+06 1.87809e+06 0 2.12398e+06 1.85817e+06 0 2.08247e+06 1.83888e+06 0 2.04231e+06 1.82016e+06 0 2.00343e+06 1.80198e+06 0 1.96575e+06 1.7843e+06 0 1.92922e+06 1.76708e+06 0 1.89376e+06 1.75029e+06 0 1.85933e+06 1.7339e+06 0 1.82587e+06 1.71788e+06 0 1.79334e+06 1.70221e+06 0 1.76169e+06 1.68687e+06 0 1.73087e+06 1.67183e+06 0 1.70086e+06 1.65709e+06 0 1.67161e+06 1.64261e+06 0 1.64309e+06 1.62838e+06 0 1.61527e+06 1.6144e+06 0 1.58812e+06 1.60064e+06 0 1.5616e+06 1.5871e+06 0 1.5357e+06 1.57375e+06 0 1.5104e+06 1.5606e+06 0 1.48565e+06 1.54764e+06 0 1.46146e+06 1.53484e+06 0 1.43778e+06 1.52221e+06 0 1.41461e+06 1.50973e+06 0 1.39193e+06 1.4974e+06 0 1.36972e+06 1.48522e+06 0 1.34796e+06 1.47317e+06 0 1.32663e+06 1.46125e+06 0 1.30573e+06 1.44945e+06 0 1.28524e+06 1.43778e+06 0 1.26514e+06 1.42621e+06 0 1.24543e+06 1.41476e+06 0 1.22609e+06 1.40341e+06 0 1.20711e+06 1.39217e+06 0 1.18847e+06 1.38102e+06 0 1.17018e+06 1.36997e+06 0 1.15221e+06 1.359e+06 0 1.13457e+06 1.34813e+06 0 1.11723e+06 1.33734e+06 0 1.1002e+06 1.32663e+06 0 1.08346e+06 1.316e+06 0 1.06701e+06 1.30545e+06 0 1.05084e+06 1.29498e+06 0 1.03494e+06 1.28457e+06 0 1.01931e+06 1.27424e+06 0 1.00393e+06 1.26398e+06 0 988809 1.25379e+06 0 973933 1.24366e+06 0 959298 1.2336e+06 0 944898 1.2236e+06 0 930728 1.21366e+06 0 916784 1.20378e+06 0 903059 1.19396e+06 0 889550 1.1842e+06 0 876251 1.17449e+06 0 863159 1.16484e+06 0 850268 1.15525e+06 0 837576 1.1457e+06 0 825078 1.13622e+06 0 812769 1.12678e+06 0 800647 1.11739e+06 0 788708 1.10806e+06 0 776948 1.09878e+06 0 765365 1.08954e+06 0 753954 1.08035e+06 0 742712 1.07121e+06 0 731637 1.06212e+06 0 720725 1.05308e+06 0 709974 1.04408e+06 0 699380 1.03512e+06 0 688942 1.02622e+06 0 678656 1.01735e+06 0 668519 1.00854e+06 0 658530 999761 0 648685 991030 0 638983 982342 0 629421 973698 0 619996 965095 0 610707 956535 0 601551 948017 0 592526 939540 0 583630 931104 0 574861 922709 0 566218 914355 0 557697 906041 0 549297 897767 0 541017 889533 0 532854 881339 0 524807 873184 0 516873 865068 0 509052 856990 0 501341 848951 0 493740 840951 0 486245 832988 0 478856 825064 0 471571 817177 0 464388 809327 0 457306 801515 0 450324 793739 0 443440 786000 0 436652 778298 0 4.21349e+06 3.07986e+06 0 4.06332e+06 2.97179e+06 0 3.9233e+06 2.87499e+06 0 3.79249e+06 2.78784e+06 0 3.67006e+06 2.709e+06 0 3.55524e+06 2.63737e+06 0 3.44736e+06 2.572e+06 0 3.3458e+06 2.51209e+06 0 3.25001e+06 2.45697e+06 0 3.15952e+06 2.40605e+06 0 3.07387e+06 2.35885e+06 0 2.99267e+06 2.31493e+06 0 2.91556e+06 2.27393e+06 0 2.84223e+06 2.23553e+06 0 2.77239e+06 2.19945e+06 0 2.70576e+06 2.16545e+06 0 2.64212e+06 2.13333e+06 0 2.58125e+06 2.10289e+06 0 2.52295e+06 2.07397e+06 0 2.46705e+06 2.04643e+06 0 2.41338e+06 2.02015e+06 0 2.3618e+06 1.995e+06 0 2.31217e+06 1.9709e+06 0 2.26436e+06 1.94775e+06 0 2.21828e+06 1.92547e+06 0 2.1738e+06 1.90399e+06 0 2.13084e+06 1.88325e+06 0 2.0893e+06 1.86318e+06 0 2.04911e+06 1.84375e+06 0 2.0102e+06 1.82489e+06 0 1.97248e+06 1.80657e+06 0 1.9359e+06 1.78875e+06 0 1.9004e+06 1.77139e+06 0 1.86592e+06 1.75447e+06 0 1.83242e+06 1.73795e+06 0 1.79984e+06 1.7218e+06 0 1.76813e+06 1.70601e+06 0 1.73727e+06 1.69055e+06 0 1.70721e+06 1.67539e+06 0 1.67791e+06 1.66053e+06 0 1.64934e+06 1.64594e+06 0 1.62147e+06 1.63161e+06 0 1.59426e+06 1.61752e+06 0 1.5677e+06 1.60366e+06 0 1.54175e+06 1.59002e+06 0 1.51639e+06 1.57659e+06 0 1.4916e+06 1.56335e+06 0 1.46736e+06 1.55029e+06 0 1.44364e+06 1.53741e+06 0 1.42042e+06 1.52469e+06 0 1.39769e+06 1.51214e+06 0 1.37543e+06 1.49974e+06 0 1.35363e+06 1.48748e+06 0 1.33226e+06 1.47536e+06 0 1.31131e+06 1.46337e+06 0 1.29078e+06 1.45151e+06 0 1.27064e+06 1.43977e+06 0 1.25088e+06 1.42814e+06 0 1.2315e+06 1.41663e+06 0 1.21247e+06 1.40523e+06 0 1.1938e+06 1.39393e+06 0 1.17546e+06 1.38272e+06 0 1.15746e+06 1.37162e+06 0 1.13977e+06 1.36061e+06 0 1.1224e+06 1.34969e+06 0 1.10533e+06 1.33885e+06 0 1.08855e+06 1.3281e+06 0 1.07206e+06 1.31743e+06 0 1.05586e+06 1.30684e+06 0 1.03992e+06 1.29633e+06 0 1.02425e+06 1.28589e+06 0 1.00884e+06 1.27552e+06 0 993678 1.26523e+06 0 978766 1.255e+06 0 964096 1.24484e+06 0 949661 1.23475e+06 0 935456 1.22472e+06 0 921477 1.21475e+06 0 907718 1.20485e+06 0 894175 1.195e+06 0 880842 1.18522e+06 0 867716 1.17549e+06 0 854792 1.16582e+06 0 842067 1.1562e+06 0 829535 1.14664e+06 0 817194 1.13714e+06 0 805040 1.12768e+06 0 793068 1.11828e+06 0 781276 1.10893e+06 0 769660 1.09963e+06 0 758217 1.09038e+06 0 746944 1.08118e+06 0 735837 1.07203e+06 0 724894 1.06293e+06 0 714112 1.05387e+06 0 703487 1.04486e+06 0 693018 1.0359e+06 0 682701 1.02699e+06 0 672534 1.01812e+06 0 662514 1.00929e+06 0 652639 1.00051e+06 0 642906 991772 0 633314 983079 0 623859 974430 0 614540 965823 0 605354 957260 0 596299 948738 0 587374 940259 0 578575 931821 0 569902 923425 0 561352 915069 0 552923 906755 0 544614 898481 0 536422 890247 0 528346 882053 0 520384 873899 0 512534 865784 0 504795 857709 0 497165 849672 0 489642 841674 0 482225 833715 0 474911 825793 0 467701 817910 0 460591 810064 0 453582 802256 0 446670 794485 0 439855 786751 0 433135 779053 0 4.04947e+06 3.06208e+06 0 3.91285e+06 2.95872e+06 0 3.78485e+06 2.86571e+06 0 3.66475e+06 2.7816e+06 0 3.55188e+06 2.70521e+06 0 3.44561e+06 2.63555e+06 0 3.3454e+06 2.57176e+06 0 3.25075e+06 2.51312e+06 0 3.1612e+06 2.45901e+06 0 3.07634e+06 2.40889e+06 0 2.9958e+06 2.36231e+06 0 2.91925e+06 2.31888e+06 0 2.84639e+06 2.27826e+06 0 2.77693e+06 2.24013e+06 0 2.71063e+06 2.20426e+06 0 2.64726e+06 2.1704e+06 0 2.58661e+06 2.13836e+06 0 2.52849e+06 2.10796e+06 0 2.47274e+06 2.07906e+06 0 2.41919e+06 2.0515e+06 0 2.36771e+06 2.02518e+06 0 2.31816e+06 1.99998e+06 0 2.27041e+06 1.97581e+06 0 2.22437e+06 1.95257e+06 0 2.17992e+06 1.9302e+06 0 2.13698e+06 1.90862e+06 0 2.09546e+06 1.88778e+06 0 2.05527e+06 1.86761e+06 0 2.01635e+06 1.84806e+06 0 1.97862e+06 1.8291e+06 0 1.94203e+06 1.81067e+06 0 1.90651e+06 1.79273e+06 0 1.87201e+06 1.77527e+06 0 1.83848e+06 1.75823e+06 0 1.80587e+06 1.7416e+06 0 1.77414e+06 1.72535e+06 0 1.74325e+06 1.70945e+06 0 1.71315e+06 1.69389e+06 0 1.68381e+06 1.67864e+06 0 1.65521e+06 1.66368e+06 0 1.6273e+06 1.64899e+06 0 1.60006e+06 1.63457e+06 0 1.57346e+06 1.62039e+06 0 1.54748e+06 1.60644e+06 0 1.52208e+06 1.59271e+06 0 1.49725e+06 1.5792e+06 0 1.47297e+06 1.56587e+06 0 1.44921e+06 1.55274e+06 0 1.42596e+06 1.53978e+06 0 1.40319e+06 1.52699e+06 0 1.38089e+06 1.51437e+06 0 1.35905e+06 1.5019e+06 0 1.33764e+06 1.48957e+06 0 1.31666e+06 1.47739e+06 0 1.29609e+06 1.46534e+06 0 1.27591e+06 1.45342e+06 0 1.25612e+06 1.44162e+06 0 1.2367e+06 1.42994e+06 0 1.21764e+06 1.41837e+06 0 1.19893e+06 1.40692e+06 0 1.18056e+06 1.39557e+06 0 1.16252e+06 1.38432e+06 0 1.1448e+06 1.37317e+06 0 1.12739e+06 1.36211e+06 0 1.11029e+06 1.35114e+06 0 1.09348e+06 1.34027e+06 0 1.07695e+06 1.32948e+06 0 1.06071e+06 1.31877e+06 0 1.04474e+06 1.30814e+06 0 1.02904e+06 1.29759e+06 0 1.01359e+06 1.28712e+06 0 998401 1.27672e+06 0 983457 1.2664e+06 0 968755 1.25614e+06 0 954288 1.24595e+06 0 940052 1.23583e+06 0 926041 1.22578e+06 0 912250 1.21579e+06 0 898676 1.20586e+06 0 885312 1.19599e+06 0 872155 1.18618e+06 0 859201 1.17644e+06 0 846444 1.16675e+06 0 833882 1.15711e+06 0 821511 1.14753e+06 0 809326 1.13801e+06 0 797325 1.12854e+06 0 785503 1.11912e+06 0 773857 1.10976e+06 0 762384 1.10045e+06 0 751081 1.09119e+06 0 739945 1.08197e+06 0 728972 1.07281e+06 0 718161 1.0637e+06 0 707507 1.05463e+06 0 697008 1.04562e+06 0 686662 1.03665e+06 0 676466 1.02772e+06 0 666417 1.01885e+06 0 656514 1.01001e+06 0 646752 1.00123e+06 0 637131 992486 0 627648 983788 0 618301 975135 0 609086 966525 0 600004 957959 0 591050 949435 0 582224 940954 0 573522 932515 0 564945 924117 0 556488 915762 0 548151 907447 0 539931 899174 0 531828 890941 0 523838 882748 0 515961 874596 0 508195 866483 0 500537 858410 0 492987 850376 0 485543 842381 0 478203 834425 0 470966 826507 0 463830 818628 0 456793 810787 0 449855 802983 0 443013 795217 0 436267 787488 0 429615 779796 0 3.8974e+06 3.0422e+06 0 3.77273e+06 2.94348e+06 0 3.6554e+06 2.85424e+06 0 3.54486e+06 2.7732e+06 0 3.44055e+06 2.69933e+06 0 3.342e+06 2.63172e+06 0 3.24874e+06 2.5696e+06 0 3.16038e+06 2.51231e+06 0 3.07652e+06 2.4593e+06 0 2.99684e+06 2.41008e+06 0 2.92101e+06 2.36423e+06 0 2.84876e+06 2.32137e+06 0 2.77983e+06 2.28121e+06 0 2.71397e+06 2.24345e+06 0 2.65098e+06 2.20785e+06 0 2.59065e+06 2.1742e+06 0 2.53281e+06 2.14232e+06 0 2.47728e+06 2.11204e+06 0 2.42393e+06 2.08321e+06 0 2.37261e+06 2.05569e+06 0 2.3232e+06 2.02939e+06 0 2.27557e+06 2.00418e+06 0 2.22962e+06 1.97998e+06 0 2.18526e+06 1.95671e+06 0 2.14238e+06 1.93429e+06 0 2.1009e+06 1.91265e+06 0 2.06076e+06 1.89173e+06 0 2.02187e+06 1.87149e+06 0 1.98416e+06 1.85186e+06 0 1.94758e+06 1.83282e+06 0 1.91207e+06 1.8143e+06 0 1.87758e+06 1.79628e+06 0 1.84404e+06 1.77873e+06 0 1.81143e+06 1.76161e+06 0 1.77969e+06 1.74489e+06 0 1.74878e+06 1.72855e+06 0 1.71867e+06 1.71256e+06 0 1.68932e+06 1.69691e+06 0 1.66069e+06 1.68158e+06 0 1.63276e+06 1.66653e+06 0 1.6055e+06 1.65177e+06 0 1.57888e+06 1.63726e+06 0 1.55287e+06 1.623e+06 0 1.52744e+06 1.60898e+06 0 1.50259e+06 1.59518e+06 0 1.47828e+06 1.58159e+06 0 1.45449e+06 1.56819e+06 0 1.43121e+06 1.55499e+06 0 1.40841e+06 1.54197e+06 0 1.38609e+06 1.52911e+06 0 1.36421e+06 1.51643e+06 0 1.34278e+06 1.50389e+06 0 1.32177e+06 1.49151e+06 0 1.30116e+06 1.47927e+06 0 1.28096e+06 1.46716e+06 0 1.26114e+06 1.45518e+06 0 1.24169e+06 1.44333e+06 0 1.2226e+06 1.4316e+06 0 1.20386e+06 1.41999e+06 0 1.18546e+06 1.40849e+06 0 1.16739e+06 1.39709e+06 0 1.14964e+06 1.3858e+06 0 1.1322e+06 1.3746e+06 0 1.11506e+06 1.36351e+06 0 1.09822e+06 1.3525e+06 0 1.08167e+06 1.34159e+06 0 1.0654e+06 1.33076e+06 0 1.0494e+06 1.32002e+06 0 1.03367e+06 1.30936e+06 0 1.01819e+06 1.29878e+06 0 1.00297e+06 1.28828e+06 0 988001 1.27785e+06 0 973270 1.26749e+06 0 958774 1.25721e+06 0 944510 1.247e+06 0 930470 1.23685e+06 0 916651 1.22677e+06 0 903048 1.21676e+06 0 889657 1.20681e+06 0 876471 1.19692e+06 0 863489 1.18709e+06 0 850705 1.17733e+06 0 838115 1.16762e+06 0 825715 1.15797e+06 0 813503 1.14837e+06 0 801474 1.13883e+06 0 789624 1.12935e+06 0 777951 1.11992e+06 0 766450 1.11054e+06 0 755120 1.10122e+06 0 743956 1.09195e+06 0 732956 1.08273e+06 0 722117 1.07355e+06 0 711436 1.06443e+06 0 700910 1.05536e+06 0 690537 1.04633e+06 0 680314 1.03736e+06 0 670238 1.02843e+06 0 660308 1.01954e+06 0 650519 1.01071e+06 0 640871 1.00192e+06 0 631361 993170 0 621987 984469 0 612746 975813 0 603637 967200 0 594656 958632 0 585803 950107 0 577076 941625 0 568471 933185 0 559988 924788 0 551625 916432 0 543379 908119 0 535250 899846 0 527234 891615 0 519331 883424 0 511538 875274 0 503855 867164 0 496279 859094 0 488809 851063 0 481443 843072 0 474180 835120 0 467019 827206 0 459957 819331 0 452993 811495 0 446126 803696 0 439355 795936 0 432678 788212 0 426093 780526 0 3.75606e+06 3.0208e+06 0 3.64196e+06 2.92659e+06 0 3.53413e+06 2.84106e+06 0 3.43213e+06 2.76309e+06 0 3.33554e+06 2.69174e+06 0 3.24395e+06 2.62621e+06 0 3.157e+06 2.56581e+06 0 3.07436e+06 2.50994e+06 0 2.99572e+06 2.4581e+06 0 2.92079e+06 2.40985e+06 0 2.84931e+06 2.36478e+06 0 2.78103e+06 2.32258e+06 0 2.71574e+06 2.28294e+06 0 2.65324e+06 2.24561e+06 0 2.59333e+06 2.21036e+06 0 2.53585e+06 2.17699e+06 0 2.48065e+06 2.14532e+06 0 2.42756e+06 2.11521e+06 0 2.37648e+06 2.0865e+06 0 2.32726e+06 2.05908e+06 0 2.27981e+06 2.03283e+06 0 2.23401e+06 2.00766e+06 0 2.18977e+06 1.98347e+06 0 2.147e+06 1.9602e+06 0 2.10562e+06 1.93776e+06 0 2.06555e+06 1.9161e+06 0 2.02672e+06 1.89515e+06 0 1.98907e+06 1.87486e+06 0 1.95254e+06 1.85518e+06 0 1.91706e+06 1.83608e+06 0 1.8826e+06 1.8175e+06 0 1.84909e+06 1.79942e+06 0 1.81649e+06 1.7818e+06 0 1.78476e+06 1.76461e+06 0 1.75386e+06 1.74782e+06 0 1.72375e+06 1.73141e+06 0 1.6944e+06 1.71536e+06 0 1.66577e+06 1.69963e+06 0 1.63783e+06 1.68423e+06 0 1.61056e+06 1.66911e+06 0 1.58393e+06 1.65428e+06 0 1.55791e+06 1.6397e+06 0 1.53247e+06 1.62538e+06 0 1.5076e+06 1.61129e+06 0 1.48327e+06 1.59742e+06 0 1.45947e+06 1.58377e+06 0 1.43617e+06 1.57031e+06 0 1.41335e+06 1.55705e+06 0 1.39101e+06 1.54397e+06 0 1.36911e+06 1.53106e+06 0 1.34766e+06 1.51831e+06 0 1.32662e+06 1.50572e+06 0 1.306e+06 1.49329e+06 0 1.28577e+06 1.48099e+06 0 1.26592e+06 1.46884e+06 0 1.24645e+06 1.45681e+06 0 1.22733e+06 1.44492e+06 0 1.20857e+06 1.43314e+06 0 1.19015e+06 1.42148e+06 0 1.17205e+06 1.40994e+06 0 1.15428e+06 1.3985e+06 0 1.13682e+06 1.38717e+06 0 1.11966e+06 1.37594e+06 0 1.10279e+06 1.3648e+06 0 1.08621e+06 1.35376e+06 0 1.06992e+06 1.34282e+06 0 1.05389e+06 1.33196e+06 0 1.03814e+06 1.32118e+06 0 1.02264e+06 1.31049e+06 0 1.00739e+06 1.29988e+06 0 992393 1.28935e+06 0 977637 1.2789e+06 0 963116 1.26852e+06 0 948826 1.25821e+06 0 934761 1.24797e+06 0 920917 1.2378e+06 0 907289 1.2277e+06 0 893872 1.21767e+06 0 880661 1.2077e+06 0 867653 1.19779e+06 0 854844 1.18795e+06 0 842229 1.17816e+06 0 829804 1.16844e+06 0 817566 1.15877e+06 0 805512 1.14916e+06 0 793637 1.13961e+06 0 781938 1.13012e+06 0 770412 1.12067e+06 0 759057 1.11129e+06 0 747868 1.10195e+06 0 736843 1.09267e+06 0 725978 1.08344e+06 0 715272 1.07426e+06 0 704721 1.06513e+06 0 694323 1.05605e+06 0 684074 1.04702e+06 0 673973 1.03803e+06 0 664017 1.0291e+06 0 654204 1.02021e+06 0 644531 1.01137e+06 0 634996 1.00257e+06 0 625596 993825 0 616330 985122 0 607196 976464 0 598190 967850 0 589312 959280 0 580560 950754 0 571930 942272 0 563423 933832 0 555034 925436 0 546764 917081 0 538609 908769 0 530569 900499 0 522641 892269 0 514823 884081 0 507115 875934 0 499515 867827 0 492020 859760 0 484630 851734 0 477343 843747 0 470157 835799 0 463070 827890 0 456082 820020 0 449191 812189 0 442396 804396 0 435695 796641 0 429086 788924 0 422569 781244 0 3.6244e+06 2.99836e+06 0 3.51967e+06 2.9085e+06 0 3.42031e+06 2.82658e+06 0 3.32597e+06 2.75161e+06 0 3.23631e+06 2.68276e+06 0 3.15102e+06 2.61932e+06 0 3.06981e+06 2.56066e+06 0 2.9924e+06 2.50625e+06 0 2.91853e+06 2.45563e+06 0 2.84797e+06 2.40838e+06 0 2.78049e+06 2.36416e+06 0 2.7159e+06 2.32266e+06 0 2.65399e+06 2.28361e+06 0 2.59461e+06 2.24676e+06 0 2.53759e+06 2.2119e+06 0 2.48278e+06 2.17886e+06 0 2.43005e+06 2.14746e+06 0 2.37927e+06 2.11755e+06 0 2.33032e+06 2.08901e+06 0 2.28309e+06 2.06172e+06 0 2.2375e+06 2.03557e+06 0 2.19343e+06 2.01048e+06 0 2.15082e+06 1.98634e+06 0 2.10957e+06 1.9631e+06 0 2.06962e+06 1.94068e+06 0 2.03089e+06 1.91902e+06 0 1.99333e+06 1.89806e+06 0 1.95687e+06 1.87775e+06 0 1.92146e+06 1.85805e+06 0 1.88705e+06 1.83891e+06 0 1.85359e+06 1.82029e+06 0 1.82103e+06 1.80216e+06 0 1.78934e+06 1.7845e+06 0 1.75846e+06 1.76726e+06 0 1.72838e+06 1.75042e+06 0 1.69904e+06 1.73395e+06 0 1.67043e+06 1.71784e+06 0 1.6425e+06 1.70206e+06 0 1.61524e+06 1.6866e+06 0 1.58861e+06 1.67143e+06 0 1.56259e+06 1.65654e+06 0 1.53715e+06 1.64191e+06 0 1.51228e+06 1.62753e+06 0 1.48794e+06 1.61338e+06 0 1.46413e+06 1.59946e+06 0 1.44082e+06 1.58575e+06 0 1.418e+06 1.57224e+06 0 1.39564e+06 1.55892e+06 0 1.37374e+06 1.54579e+06 0 1.35227e+06 1.53283e+06 0 1.33122e+06 1.52004e+06 0 1.31058e+06 1.5074e+06 0 1.29033e+06 1.49492e+06 0 1.27047e+06 1.48258e+06 0 1.25098e+06 1.47038e+06 0 1.23185e+06 1.45831e+06 0 1.21307e+06 1.44637e+06 0 1.19463e+06 1.43456e+06 0 1.17651e+06 1.42286e+06 0 1.15872e+06 1.41128e+06 0 1.14124e+06 1.3998e+06 0 1.12406e+06 1.38844e+06 0 1.10717e+06 1.37717e+06 0 1.09058e+06 1.366e+06 0 1.07426e+06 1.35493e+06 0 1.05821e+06 1.34395e+06 0 1.04243e+06 1.33306e+06 0 1.02691e+06 1.32226e+06 0 1.01165e+06 1.31154e+06 0 996628 1.30091e+06 0 981850 1.29035e+06 0 967308 1.27987e+06 0 952996 1.26947e+06 0 938909 1.25914e+06 0 925043 1.24888e+06 0 911392 1.23869e+06 0 897953 1.22857e+06 0 884720 1.21852e+06 0 871690 1.20853e+06 0 858858 1.1986e+06 0 846220 1.18874e+06 0 833773 1.17894e+06 0 821512 1.16921e+06 0 809435 1.15953e+06 0 797537 1.14991e+06 0 785816 1.14034e+06 0 774267 1.13083e+06 0 762888 1.12138e+06 0 751676 1.11198e+06 0 740628 1.10264e+06 0 729741 1.09335e+06 0 719011 1.08411e+06 0 708437 1.07492e+06 0 698015 1.06579e+06 0 687744 1.0567e+06 0 677619 1.04766e+06 0 667640 1.03868e+06 0 657803 1.02974e+06 0 648107 1.02084e+06 0 638548 1.012e+06 0 629125 1.0032e+06 0 619836 994452 0 610678 985747 0 601649 977088 0 592748 968473 0 583972 959903 0 575319 951377 0 566788 942895 0 558376 934457 0 550082 926061 0 541904 917709 0 533840 909399 0 525889 901131 0 518048 892904 0 510317 884719 0 502693 876575 0 495175 868472 0 487761 860410 0 480451 852387 0 473241 844405 0 466132 836462 0 459121 828559 0 452207 820695 0 445388 812869 0 438664 805082 0 432032 797334 0 425492 789623 0 419043 781950 0 3.50147e+06 2.97523e+06 0 3.40507e+06 2.88954e+06 0 3.31327e+06 2.8111e+06 0 3.2258e+06 2.73906e+06 0 3.14241e+06 2.67267e+06 0 3.06284e+06 2.61129e+06 0 2.98684e+06 2.55438e+06 0 2.91421e+06 2.50144e+06 0 2.84472e+06 2.45205e+06 0 2.77818e+06 2.40585e+06 0 2.7144e+06 2.36251e+06 0 2.65321e+06 2.32175e+06 0 2.59446e+06 2.28332e+06 0 2.53799e+06 2.24699e+06 0 2.48367e+06 2.21258e+06 0 2.43136e+06 2.1799e+06 0 2.38095e+06 2.1488e+06 0 2.33233e+06 2.11914e+06 0 2.2854e+06 2.09081e+06 0 2.24006e+06 2.06369e+06 0 2.19623e+06 2.03767e+06 0 2.15381e+06 2.01268e+06 0 2.11274e+06 1.98863e+06 0 2.07295e+06 1.96545e+06 0 2.03436e+06 1.94307e+06 0 1.99692e+06 1.92144e+06 0 1.96057e+06 1.90049e+06 0 1.92526e+06 1.88019e+06 0 1.89093e+06 1.86048e+06 0 1.85754e+06 1.84133e+06 0 1.82504e+06 1.82269e+06 0 1.7934e+06 1.80454e+06 0 1.76258e+06 1.78684e+06 0 1.73254e+06 1.76957e+06 0 1.70324e+06 1.75269e+06 0 1.67466e+06 1.73619e+06 0 1.64676e+06 1.72004e+06 0 1.61952e+06 1.70422e+06 0 1.59291e+06 1.68871e+06 0 1.5669e+06 1.67349e+06 0 1.54147e+06 1.65855e+06 0 1.51661e+06 1.64388e+06 0 1.49228e+06 1.62945e+06 0 1.46847e+06 1.61526e+06 0 1.44517e+06 1.60129e+06 0 1.42234e+06 1.58753e+06 0 1.39998e+06 1.57398e+06 0 1.37807e+06 1.56062e+06 0 1.3566e+06 1.54744e+06 0 1.33555e+06 1.53444e+06 0 1.3149e+06 1.5216e+06 0 1.29465e+06 1.50892e+06 0 1.27478e+06 1.4964e+06 0 1.25527e+06 1.48402e+06 0 1.23613e+06 1.47178e+06 0 1.21734e+06 1.45968e+06 0 1.19888e+06 1.4477e+06 0 1.18076e+06 1.43585e+06 0 1.16295e+06 1.42412e+06 0 1.14546e+06 1.4125e+06 0 1.12826e+06 1.401e+06 0 1.11136e+06 1.3896e+06 0 1.09475e+06 1.3783e+06 0 1.07842e+06 1.3671e+06 0 1.06236e+06 1.356e+06 0 1.04656e+06 1.345e+06 0 1.03102e+06 1.33408e+06 0 1.01574e+06 1.32325e+06 0 1.0007e+06 1.31251e+06 0 985905 1.30185e+06 0 971345 1.29127e+06 0 957015 1.28077e+06 0 942909 1.27034e+06 0 929024 1.25999e+06 0 915355 1.24972e+06 0 901896 1.23951e+06 0 888644 1.22937e+06 0 875595 1.2193e+06 0 862743 1.2093e+06 0 850085 1.19936e+06 0 837618 1.18949e+06 0 825337 1.17967e+06 0 813240 1.16992e+06 0 801322 1.16023e+06 0 789580 1.1506e+06 0 778011 1.14103e+06 0 766611 1.13151e+06 0 755378 1.12205e+06 0 744309 1.11264e+06 0 733401 1.10329e+06 0 722650 1.09399e+06 0 712055 1.08474e+06 0 701612 1.07555e+06 0 691319 1.06641e+06 0 681173 1.05732e+06 0 671173 1.04828e+06 0 661315 1.03929e+06 0 651596 1.03034e+06 0 642016 1.02145e+06 0 632572 1.0126e+06 0 623261 1.0038e+06 0 614081 995051 0 605030 986345 0 596107 977685 0 587309 969070 0 578634 960501 0 570081 951976 0 561647 943495 0 553331 935058 0 545131 926665 0 537046 918315 0 529072 910007 0 521210 901742 0 513456 893519 0 505810 885338 0 498270 877198 0 490835 869100 0 483502 861042 0 476271 853024 0 469139 845047 0 462106 837110 0 455170 829212 0 448330 821354 0 441584 813535 0 434930 805755 0 428368 798013 0 421897 790309 0 415514 782643 0 3.38643e+06 2.95172e+06 0 3.29746e+06 2.86998e+06 0 3.21243e+06 2.79489e+06 0 3.13115e+06 2.72567e+06 0 3.05341e+06 2.66168e+06 0 2.97902e+06 2.60234e+06 0 2.90779e+06 2.54715e+06 0 2.83953e+06 2.49568e+06 0 2.77406e+06 2.44754e+06 0 2.71122e+06 2.4024e+06 0 2.65087e+06 2.35997e+06 0 2.59284e+06 2.31998e+06 0 2.53702e+06 2.2822e+06 0 2.48326e+06 2.24642e+06 0 2.43146e+06 2.21248e+06 0 2.3815e+06 2.18019e+06 0 2.33328e+06 2.14943e+06 0 2.2867e+06 2.12006e+06 0 2.24168e+06 2.09196e+06 0 2.19812e+06 2.06503e+06 0 2.15595e+06 2.03918e+06 0 2.11511e+06 2.01433e+06 0 2.07551e+06 1.99038e+06 0 2.0371e+06 1.96729e+06 0 1.99982e+06 1.94498e+06 0 1.96361e+06 1.92339e+06 0 1.92842e+06 1.90249e+06 0 1.8942e+06 1.88221e+06 0 1.86091e+06 1.86251e+06 0 1.82851e+06 1.84337e+06 0 1.79695e+06 1.82473e+06 0 1.7662e+06 1.80657e+06 0 1.73622e+06 1.78886e+06 0 1.70697e+06 1.77156e+06 0 1.6