<?xml version="1.0"?> 
<VTKFile type="StructuredGrid" version="0.1"> 
<StructuredGrid WholeExtent="0 127 0 127 0 0"> 
<Piece Extent="0 127 0 127 0 0"> 
<PointData>
<DataArray type="Float32" Name="|E|" format="ascii" NumberOfComponents="3"> 
2.08876e+06 -833158 0 2.11828e+06 -803789 0 2.14691e+06 -772554 0 2.1744e+06 -739486 0 2.2005e+06 -704657 0 2.22495e+06 -668184 0 2.24751e+06 -630230 0 2.26798e+06 -590995 0 2.28619e+06 -550714 0 2.302e+06 -509644 0 2.31533e+06 -468057 0 2.32616e+06 -426225 0 2.33449e+06 -384410 0 2.34038e+06 -342859 0 2.34391e+06 -301796 0 2.34518e+06 -261416 0 2.34434e+06 -221888 0 2.34152e+06 -183351 0 2.33686e+06 -145918 0 2.33053e+06 -109677 0 2.32266e+06 -74691.6 0 2.3134e+06 -41007.8 0 2.30289e+06 -8652.94 0 2.29125e+06 22359.9 0 2.27863e+06 52029.9 0 2.26511e+06 80366.6 0 2.25082e+06 107388 0 2.23585e+06 133117 0 2.22029e+06 157585 0 2.20422e+06 180824 0 2.18771e+06 202871 0 2.17083e+06 223765 0 2.15364e+06 243544 0 2.13619e+06 262251 0 2.11853e+06 279925 0 2.10071e+06 296608 0 2.08277e+06 312340 0 2.06474e+06 327160 0 2.04664e+06 341108 0 2.02852e+06 354222 0 2.0104e+06 366538 0 1.99229e+06 378093 0 1.97421e+06 388920 0 1.95619e+06 399053 0 1.93824e+06 408524 0 1.92037e+06 417363 0 1.90259e+06 425600 0 1.88492e+06 433264 0 1.86736e+06 440380 0 1.84992e+06 446976 0 1.83261e+06 453075 0 1.81543e+06 458701 0 1.79839e+06 463877 0 1.78149e+06 468624 0 1.76474e+06 472962 0 1.74813e+06 476911 0 1.73168e+06 480490 0 1.71537e+06 483716 0 1.69923e+06 486607 0 1.68323e+06 489177 0 1.6674e+06 491443 0 1.65172e+06 493420 0 1.63619e+06 495120 0 1.62083e+06 496558 0 1.60561e+06 497746 0 1.59056e+06 498696 0 1.57566e+06 499420 0 1.56091e+06 499928 0 1.54632e+06 500231 0 1.53188e+06 500339 0 1.51759e+06 500262 0 1.50346e+06 500008 0 1.48947e+06 499585 0 1.47563e+06 499003 0 1.46194e+06 498269 0 1.44839e+06 497391 0 1.43499e+06 496375 0 1.42174e+06 495229 0 1.40862e+06 493958 0 1.39565e+06 492570 0 1.38281e+06 491070 0 1.37011e+06 489464 0 1.35755e+06 487756 0 1.34512e+06 485953 0 1.33283e+06 484059 0 1.32067e+06 482079 0 1.30864e+06 480018 0 1.29674e+06 477878 0 1.28497e+06 475666 0 1.27332e+06 473384 0 1.2618e+06 471037 0 1.25041e+06 468627 0 1.23914e+06 466159 0 1.22799e+06 463635 0 1.21696e+06 461059 0 1.20605e+06 458433 0 1.19526e+06 455761 0 1.18459e+06 453045 0 1.17403e+06 450288 0 1.16359e+06 447492 0 1.15325e+06 444660 0 1.14304e+06 441793 0 1.13293e+06 438894 0 1.12293e+06 435966 0 1.11305e+06 433010 0 1.10327e+06 430027 0 1.0936e+06 427021 0 1.08403e+06 423991 0 1.07457e+06 420941 0 1.06521e+06 417872 0 1.05596e+06 414784 0 1.0468e+06 411681 0 1.03775e+06 408562 0 1.0288e+06 405430 0 1.01995e+06 402285 0 1.0112e+06 399128 0 1.00254e+06 395962 0 993980 392786 0 985515 389603 0 977145 386412 0 968869 383216 0 960686 380014 0 952596 376808 0 944596 373598 0 936688 370385 0 928869 367170 0 921139 363954 0 913497 360738 0 2.09297e+06 -834836 0 2.12266e+06 -805332 0 2.15145e+06 -773937 0 2.17909e+06 -740682 0 2.20532e+06 -705644 0 2.22988e+06 -668940 0 2.25253e+06 -630737 0 2.27305e+06 -591239 0 2.29128e+06 -550688 0 2.30708e+06 -509345 0 2.32038e+06 -467487 0 2.33114e+06 -425392 0 2.33937e+06 -383325 0 2.34514e+06 -341536 0 2.34853e+06 -300251 0 2.34966e+06 -259667 0 2.34865e+06 -219954 0 2.34566e+06 -181250 0 2.34083e+06 -143669 0 2.33431e+06 -107296 0 2.32625e+06 -72196.9 0 2.31681e+06 -38414.1 0 2.30612e+06 -5974.53 0 2.29431e+06 25109.9 0 2.28151e+06 54839.8 0 2.26783e+06 83225.5 0 2.25337e+06 110286 0 2.23824e+06 136046 0 2.22253e+06 160537 0 2.20631e+06 183793 0 2.18965e+06 205850 0 2.17264e+06 226749 0 2.15531e+06 246529 0 2.13774e+06 265232 0 2.11997e+06 282899 0 2.10203e+06 299571 0 2.08398e+06 315290 0 2.06584e+06 330095 0 2.04765e+06 344026 0 2.02944e+06 357122 0 2.01122e+06 369418 0 1.99303e+06 380951 0 1.97487e+06 391756 0 1.95677e+06 401866 0 1.93874e+06 411314 0 1.9208e+06 420130 0 1.90296e+06 428343 0 1.88522e+06 435982 0 1.8676e+06 443074 0 1.85011e+06 449645 0 1.83274e+06 455720 0 1.81551e+06 461321 0 1.79841e+06 466473 0 1.78147e+06 471196 0 1.76467e+06 475510 0 1.74802e+06 479436 0 1.73152e+06 482991 0 1.71518e+06 486195 0 1.699e+06 489062 0 1.68297e+06 491610 0 1.6671e+06 493854 0 1.65139e+06 495809 0 1.63583e+06 497488 0 1.62043e+06 498905 0 1.6052e+06 500072 0 1.59011e+06 501002 0 1.57519e+06 501705 0 1.56042e+06 502194 0 1.5458e+06 502477 0 1.53134e+06 502566 0 1.51703e+06 502469 0 1.50288e+06 502197 0 1.48887e+06 501756 0 1.47502e+06 501156 0 1.46131e+06 500404 0 1.44775e+06 499509 0 1.43433e+06 498476 0 1.42106e+06 497312 0 1.40793e+06 496025 0 1.39494e+06 494621 0 1.38209e+06 493105 0 1.36938e+06 491482 0 1.35681e+06 489759 0 1.34437e+06 487941 0 1.33207e+06 486032 0 1.3199e+06 484036 0 1.30786e+06 481960 0 1.29595e+06 479806 0 1.28417e+06 477579 0 1.27252e+06 475283 0 1.26099e+06 472921 0 1.24959e+06 470497 0 1.23831e+06 468015 0 1.22716e+06 465478 0 1.21613e+06 462888 0 1.20521e+06 460249 0 1.19442e+06 457564 0 1.18374e+06 454834 0 1.17317e+06 452064 0 1.16273e+06 449255 0 1.15239e+06 446410 0 1.14217e+06 443531 0 1.13206e+06 440620 0 1.12206e+06 437679 0 1.11217e+06 434710 0 1.10239e+06 431715 0 1.09272e+06 428696 0 1.08315e+06 425655 0 1.07369e+06 422592 0 1.06433e+06 419511 0 1.05507e+06 416411 0 1.04592e+06 413296 0 1.03687e+06 410165 0 1.02792e+06 407021 0 1.01906e+06 403864 0 1.01031e+06 400696 0 1.00165e+06 397518 0 993093 394331 0 984628 391136 0 976258 387934 0 967983 384726 0 959800 381513 0 951710 378295 0 943711 375074 0 935803 371850 0 927985 368624 0 920256 365397 0 912615 362169 0 2.0972e+06 -836523 0 2.12706e+06 -806882 0 2.15602e+06 -775324 0 2.18381e+06 -741881 0 2.21018e+06 -706629 0 2.23485e+06 -669691 0 2.25758e+06 -631235 0 2.27815e+06 -591472 0 2.2964e+06 -550646 0 2.31219e+06 -509027 0 2.32545e+06 -466896 0 2.33613e+06 -424534 0 2.34427e+06 -382212 0 2.34992e+06 -340184 0 2.35318e+06 -298676 0 2.35415e+06 -257888 0 2.35298e+06 -217989 0 2.34981e+06 -179119 0 2.3448e+06 -141389 0 2.33809e+06 -104887 0 2.32986e+06 -69673.2 0 2.32023e+06 -35792.2 0 2.30936e+06 -3268.73 0 2.29737e+06 27886.5 0 2.28439e+06 57675.1 0 2.27054e+06 86108.9 0 2.25592e+06 113208 0 2.24063e+06 138998 0 2.22476e+06 163511 0 2.20839e+06 186782 0 2.19159e+06 208849 0 2.17444e+06 229751 0 2.15699e+06 249531 0 2.13929e+06 268229 0 2.12139e+06 285888 0 2.10335e+06 302549 0 2.08518e+06 318255 0 2.06694e+06 333044 0 2.04865e+06 346958 0 2.03034e+06 360033 0 2.01204e+06 372309 0 1.99376e+06 383821 0 1.97552e+06 394603 0 1.95734e+06 404690 0 1.93924e+06 414114 0 1.92123e+06 422905 0 1.90332e+06 431094 0 1.88552e+06 438708 0 1.86784e+06 445775 0 1.85028e+06 452322 0 1.83286e+06 458371 0 1.81557e+06 463949 0 1.79843e+06 469076 0 1.78144e+06 473774 0 1.76459e+06 478064 0 1.7479e+06 481966 0 1.73137e+06 485498 0 1.71499e+06 488678 0 1.69876e+06 491522 0 1.6827e+06 494048 0 1.66679e+06 496269 0 1.65105e+06 498202 0 1.63546e+06 499859 0 1.62004e+06 501255 0 1.60477e+06 502401 0 1.58966e+06 503310 0 1.57471e+06 503993 0 1.55992e+06 504461 0 1.54528e+06 504725 0 1.5308e+06 504795 0 1.51647e+06 504679 0 1.50229e+06 504388 0 1.48827e+06 503929 0 1.47439e+06 503311 0 1.46067e+06 502541 0 1.44709e+06 501628 0 1.43366e+06 500578 0 1.42037e+06 499398 0 1.40723e+06 498094 0 1.39423e+06 496673 0 1.38137e+06 495140 0 1.36865e+06 493502 0 1.35606e+06 491763 0 1.34361e+06 489929 0 1.3313e+06 488004 0 1.31912e+06 485994 0 1.30707e+06 483903 0 1.29516e+06 481734 0 1.28337e+06 479492 0 1.27171e+06 477182 0 1.26018e+06 474806 0 1.24877e+06 472368 0 1.23749e+06 469872 0 1.22633e+06 467321 0 1.21529e+06 464717 0 1.20437e+06 462065 0 1.19357e+06 459366 0 1.18288e+06 456624 0 1.17232e+06 453840 0 1.16187e+06 451018 0 1.15153e+06 448160 0 1.1413e+06 445268 0 1.13119e+06 442344 0 1.12119e+06 439391 0 1.1113e+06 436409 0 1.10151e+06 433402 0 1.09184e+06 430371 0 1.08227e+06 427317 0 1.0728e+06 424243 0 1.06344e+06 421149 0 1.05419e+06 418038 0 1.04503e+06 414910 0 1.03598e+06 411768 0 1.02703e+06 408612 0 1.01817e+06 405443 0 1.00942e+06 402264 0 1.00076e+06 399074 0 992202 395875 0 983737 392669 0 975368 389455 0 967092 386236 0 958910 383011 0 950820 379782 0 942822 376550 0 934915 373314 0 927097 370077 0 919369 366839 0 911729 363600 0 2.10145e+06 -838219 0 2.13149e+06 -808439 0 2.16062e+06 -776716 0 2.18856e+06 -743081 0 2.21506e+06 -707614 0 2.23984e+06 -670437 0 2.26265e+06 -631724 0 2.28328e+06 -591691 0 2.30155e+06 -550588 0 2.31733e+06 -508689 0 2.33054e+06 -466281 0 2.34116e+06 -423651 0 2.3492e+06 -381073 0 2.35473e+06 -338804 0 2.35784e+06 -297072 0 2.35865e+06 -256079 0 2.35731e+06 -215994 0 2.35397e+06 -176957 0 2.34877e+06 -139080 0 2.34188e+06 -102447 0 2.33346e+06 -67120.3 0 2.32365e+06 -33141.8 0 2.31259e+06 -535.41 0 2.30042e+06 30689.6 0 2.28727e+06 60536 0 2.27324e+06 89016.8 0 2.25846e+06 116153 0 2.24301e+06 141972 0 2.22698e+06 166506 0 2.21046e+06 189791 0 2.19352e+06 211866 0 2.17623e+06 232772 0 2.15865e+06 252550 0 2.14082e+06 271243 0 2.12281e+06 288893 0 2.10465e+06 305543 0 2.08638e+06 321234 0 2.06803e+06 336007 0 2.04964e+06 349902 0 2.03124e+06 362957 0 2.01284e+06 375212 0 1.99448e+06 386701 0 1.97616e+06 397461 0 1.9579e+06 407524 0 1.93973e+06 416923 0 1.92165e+06 425690 0 1.90367e+06 433853 0 1.88581e+06 441443 0 1.86806e+06 448485 0 1.85045e+06 455006 0 1.83297e+06 461030 0 1.81564e+06 466582 0 1.79844e+06 471684 0 1.7814e+06 476358 0 1.76451e+06 480624 0 1.74778e+06 484501 0 1.7312e+06 488009 0 1.71478e+06 491165 0 1.69852e+06 493987 0 1.68242e+06 496489 0 1.66648e+06 498688 0 1.65071e+06 500599 0 1.63509e+06 502234 0 1.61964e+06 503608 0 1.60434e+06 504733 0 1.58921e+06 505621 0 1.57423e+06 506284 0 1.55941e+06 506732 0 1.54475e+06 506976 0 1.53025e+06 507026 0 1.5159e+06 506891 0 1.5017e+06 506581 0 1.48766e+06 506104 0 1.47377e+06 505467 0 1.46003e+06 504680 0 1.44643e+06 503749 0 1.43298e+06 502681 0 1.41968e+06 501484 0 1.40653e+06 500163 0 1.39351e+06 498726 0 1.38064e+06 497177 0 1.36791e+06 495522 0 1.35531e+06 493768 0 1.34285e+06 491918 0 1.33053e+06 489978 0 1.31834e+06 487952 0 1.30628e+06 485846 0 1.29436e+06 483662 0 1.28256e+06 481406 0 1.2709e+06 479081 0 1.25936e+06 476691 0 1.24794e+06 474239 0 1.23665e+06 471729 0 1.22549e+06 469164 0 1.21444e+06 466547 0 1.20352e+06 463880 0 1.19271e+06 461168 0 1.18202e+06 458413 0 1.17145e+06 455616 0 1.161e+06 452781 0 1.15066e+06 449910 0 1.14043e+06 447005 0 1.13032e+06 444068 0 1.12031e+06 441102 0 1.11042e+06 438108 0 1.10063e+06 435089 0 1.09095e+06 432045 0 1.08138e+06 428979 0 1.07192e+06 425893 0 1.06255e+06 422787 0 1.0533e+06 419663 0 1.04414e+06 416524 0 1.03509e+06 413370 0 1.02613e+06 410202 0 1.01728e+06 407021 0 1.00853e+06 403830 0 999868 400629 0 991307 397419 0 982843 394200 0 974474 390975 0 966199 387744 0 958017 384508 0 949927 381268 0 941930 378024 0 934023 374778 0 926207 371529 0 918479 368279 0 910840 365029 0 2.10572e+06 -839923 0 2.13594e+06 -810003 0 2.16524e+06 -778112 0 2.19334e+06 -744284 0 2.21998e+06 -708596 0 2.24487e+06 -671178 0 2.26776e+06 -632205 0 2.28845e+06 -591898 0 2.30673e+06 -550514 0 2.3225e+06 -508332 0 2.33566e+06 -465644 0 2.3462e+06 -422743 0 2.35414e+06 -379906 0 2.35955e+06 -337394 0 2.36251e+06 -295438 0 2.36317e+06 -254238 0 2.36166e+06 -213967 0 2.35813e+06 -174764 0 2.35275e+06 -136739 0 2.34568e+06 -99976.7 0 2.33707e+06 -64537.9 0 2.32707e+06 -30462.9 0 2.31582e+06 2225.55 0 2.30347e+06 33519.3 0 2.29014e+06 63422.5 0 2.27594e+06 91949.3 0 2.26099e+06 119122 0 2.24538e+06 144968 0 2.2292e+06 169522 0 2.21253e+06 192821 0 2.19545e+06 214904 0 2.17802e+06 235811 0 2.1603e+06 255587 0 2.14235e+06 274274 0 2.12422e+06 291914 0 2.10594e+06 308551 0 2.08756e+06 324227 0 2.06911e+06 338983 0 2.05063e+06 352859 0 2.03213e+06 365894 0 2.01364e+06 378126 0 1.99519e+06 389593 0 1.97679e+06 400329 0 1.95846e+06 410367 0 1.94021e+06 419742 0 1.92206e+06 428483 0 1.90401e+06 436621 0 1.88608e+06 444185 0 1.86828e+06 451201 0 1.85061e+06 457697 0 1.83308e+06 463696 0 1.81569e+06 469222 0 1.79845e+06 474299 0 1.78136e+06 478948 0 1.76442e+06 483189 0 1.74765e+06 487042 0 1.73103e+06 490526 0 1.71457e+06 493658 0 1.69827e+06 496456 0 1.68214e+06 498935 0 1.66617e+06 501111 0 1.65036e+06 502999 0 1.63471e+06 504613 0 1.61923e+06 505965 0 1.6039e+06 507068 0 1.58874e+06 507935 0 1.57374e+06 508577 0 1.5589e+06 509005 0 1.54422e+06 509229 0 1.52969e+06 509260 0 1.51532e+06 509106 0 1.50111e+06 508776 0 1.48704e+06 508280 0 1.47314e+06 507626 0 1.45938e+06 506820 0 1.44577e+06 505871 0 1.4323e+06 504786 0 1.41899e+06 503572 0 1.40582e+06 502234 0 1.39279e+06 500780 0 1.37991e+06 499215 0 1.36716e+06 497544 0 1.35455e+06 495773 0 1.34209e+06 493908 0 1.32975e+06 491952 0 1.31756e+06 489911 0 1.30549e+06 487790 0 1.29356e+06 485591 0 1.28175e+06 483320 0 1.27008e+06 480981 0 1.25853e+06 478576 0 1.24711e+06 476110 0 1.23582e+06 473586 0 1.22464e+06 471007 0 1.21359e+06 468376 0 1.20266e+06 465696 0 1.19185e+06 462970 0 1.18116e+06 460201 0 1.17059e+06 457392 0 1.16013e+06 454543 0 1.14979e+06 451659 0 1.13956e+06 448742 0 1.12944e+06 445792 0 1.11943e+06 442813 0 1.10953e+06 439807 0 1.09975e+06 436775 0 1.09006e+06 433719 0 1.08049e+06 430641 0 1.07102e+06 427542 0 1.06166e+06 424424 0 1.0524e+06 421288 0 1.04325e+06 418137 0 1.03419e+06 414971 0 1.02524e+06 411791 0 1.01638e+06 408599 0 1.00763e+06 405396 0 998970 402183 0 990410 398961 0 981945 395731 0 973576 392494 0 965301 389252 0 957120 386004 0 949031 382753 0 941034 379497 0 933128 376240 0 925312 372980 0 917586 369719 0 909948 366457 0 2.11002e+06 -841637 0 2.14042e+06 -811575 0 2.16989e+06 -779513 0 2.19815e+06 -745488 0 2.22492e+06 -709577 0 2.24993e+06 -671913 0 2.27291e+06 -632676 0 2.29364e+06 -592092 0 2.31195e+06 -550423 0 2.3277e+06 -507954 0 2.34081e+06 -464984 0 2.35127e+06 -421809 0 2.35911e+06 -378712 0 2.36439e+06 -335955 0 2.36721e+06 -293772 0 2.3677e+06 -252367 0 2.36602e+06 -211910 0 2.36231e+06 -172540 0 2.35674e+06 -134368 0 2.34948e+06 -97476.4 0 2.34067e+06 -61926 0 2.33048e+06 -27755.2 0 2.31905e+06 5014.28 0 2.30652e+06 36375.8 0 2.29301e+06 66334.7 0 2.27864e+06 94906.4 0 2.26352e+06 122114 0 2.24774e+06 147987 0 2.23141e+06 172560 0 2.21459e+06 195871 0 2.19736e+06 217960 0 2.1798e+06 238869 0 2.16195e+06 258642 0 2.14387e+06 277321 0 2.12562e+06 294951 0 2.10723e+06 311575 0 2.08874e+06 327235 0 2.07019e+06 341972 0 2.0516e+06 355828 0 2.03301e+06 368842 0 2.01443e+06 381053 0 1.99589e+06 392496 0 1.97741e+06 403207 0 1.959e+06 413221 0 1.94068e+06 422570 0 1.92246e+06 431286 0 1.90435e+06 439398 0 1.88636e+06 446936 0 1.86849e+06 453926 0 1.85076e+06 460395 0 1.83318e+06 466368 0 1.81573e+06 471869 0 1.79844e+06 476920 0 1.78131e+06 481543 0 1.76433e+06 485759 0 1.74751e+06 489588 0 1.73085e+06 493047 0 1.71435e+06 496155 0 1.69802e+06 498929 0 1.68185e+06 501385 0 1.66584e+06 503538 0 1.65e+06 505404 0 1.63432e+06 506995 0 1.61881e+06 508325 0 1.60346e+06 509407 0 1.58827e+06 510253 0 1.57325e+06 510874 0 1.55838e+06 511281 0 1.54368e+06 511485 0 1.52913e+06 511496 0 1.51474e+06 511322 0 1.50051e+06 510974 0 1.48642e+06 510459 0 1.4725e+06 509786 0 1.45872e+06 508962 0 1.4451e+06 507995 0 1.43162e+06 506893 0 1.41829e+06 505661 0 1.40511e+06 504306 0 1.39207e+06 502835 0 1.37917e+06 501253 0 1.36641e+06 499566 0 1.35379e+06 497780 0 1.34132e+06 495898 0 1.32897e+06 493927 0 1.31677e+06 491871 0 1.30469e+06 489734 0 1.29275e+06 487521 0 1.28094e+06 485235 0 1.26926e+06 482881 0 1.2577e+06 480461 0 1.24628e+06 477981 0 1.23498e+06 475443 0 1.2238e+06 472850 0 1.21274e+06 470205 0 1.20181e+06 467512 0 1.19099e+06 464772 0 1.1803e+06 461990 0 1.16972e+06 459167 0 1.15926e+06 456306 0 1.14891e+06 453409 0 1.13867e+06 450478 0 1.12855e+06 447516 0 1.11854e+06 444524 0 1.10864e+06 441505 0 1.09885e+06 438460 0 1.08917e+06 435392 0 1.0796e+06 432301 0 1.07013e+06 429190 0 1.06076e+06 426060 0 1.0515e+06 422913 0 1.04235e+06 419749 0 1.03329e+06 416571 0 1.02434e+06 413379 0 1.01548e+06 410175 0 1.00673e+06 406960 0 998069 403736 0 989508 400502 0 981044 397261 0 972675 394013 0 964400 390759 0 956219 387499 0 948131 384236 0 940135 380970 0 932229 377701 0 924414 374430 0 916689 371157 0 909052 367885 0 2.11434e+06 -843361 0 2.14493e+06 -813154 0 2.17457e+06 -780919 0 2.20299e+06 -746693 0 2.2299e+06 -710556 0 2.25502e+06 -672643 0 2.27808e+06 -633138 0 2.29887e+06 -592273 0 2.31719e+06 -550314 0 2.33292e+06 -507555 0 2.34599e+06 -464299 0 2.35637e+06 -420848 0 2.3641e+06 -377489 0 2.36924e+06 -334486 0 2.37192e+06 -292077 0 2.37225e+06 -250464 0 2.37038e+06 -209820 0 2.36649e+06 -170284 0 2.36074e+06 -131965 0 2.35328e+06 -94945.6 0 2.34428e+06 -59284.2 0 2.3339e+06 -25018.7 0 2.32228e+06 7830.9 0 2.30957e+06 39259.1 0 2.29588e+06 69272.7 0 2.28133e+06 97888.1 0 2.26604e+06 125130 0 2.2501e+06 151029 0 2.23361e+06 175620 0 2.21664e+06 198942 0 2.19927e+06 221036 0 2.18157e+06 241946 0 2.16359e+06 261714 0 2.14539e+06 280385 0 2.12701e+06 298004 0 2.10851e+06 314613 0 2.08991e+06 330256 0 2.07125e+06 344975 0 2.05257e+06 358811 0 2.03388e+06 371803 0 2.01521e+06 383990 0 1.99659e+06 395409 0 1.97802e+06 406096 0 1.95954e+06 416084 0 1.94114e+06 425407 0 1.92285e+06 434097 0 1.90467e+06 442183 0 1.88662e+06 449694 0 1.86869e+06 456658 0 1.85091e+06 463101 0 1.83327e+06 469047 0 1.81577e+06 474522 0 1.79843e+06 479547 0 1.78125e+06 484145 0 1.76422e+06 488336 0 1.74736e+06 492139 0 1.73066e+06 495573 0 1.71413e+06 498657 0 1.69775e+06 501407 0 1.68155e+06 503839 0 1.66551e+06 505969 0 1.64964e+06 507812 0 1.63393e+06 509380 0 1.61839e+06 510688 0 1.60301e+06 511748 0 1.5878e+06 512573 0 1.57275e+06 513173 0 1.55786e+06 513560 0 1.54313e+06 513743 0 1.52856e+06 513734 0 1.51415e+06 513541 0 1.4999e+06 513173 0 1.4858e+06 512639 0 1.47185e+06 511947 0 1.45806e+06 511105 0 1.44442e+06 510121 0 1.43093e+06 509000 0 1.41759e+06 507751 0 1.40439e+06 506379 0 1.39133e+06 504891 0 1.37843e+06 503293 0 1.36566e+06 501589 0 1.35303e+06 499787 0 1.34054e+06 497889 0 1.32819e+06 495903 0 1.31597e+06 493831 0 1.30389e+06 491679 0 1.29194e+06 489450 0 1.28012e+06 487150 0 1.26843e+06 484781 0 1.25687e+06 482347 0 1.24544e+06 479852 0 1.23413e+06 477300 0 1.22295e+06 474693 0 1.21189e+06 472034 0 1.20095e+06 469327 0 1.19013e+06 466574 0 1.17943e+06 463778 0 1.16884e+06 460942 0 1.15838e+06 458068 0 1.14803e+06 455157 0 1.13779e+06 452214 0 1.12767e+06 449239 0 1.11765e+06 446234 0 1.10775e+06 443203 0 1.09796e+06 440145 0 1.08828e+06 437064 0 1.0787e+06 433961 0 1.06923e+06 430838 0 1.05986e+06 427696 0 1.0506e+06 424536 0 1.04144e+06 421360 0 1.03239e+06 418170 0 1.02343e+06 414966 0 1.01458e+06 411751 0 1.00582e+06 408524 0 997164 405288 0 988603 402042 0 980139 398789 0 971770 395530 0 963496 392264 0 955315 388994 0 947228 385719 0 939232 382441 0 931327 379161 0 923513 375878 0 915788 372595 0 908153 369311 0 2.11869e+06 -845094 0 2.14946e+06 -814740 0 2.17928e+06 -782330 0 2.20786e+06 -747900 0 2.23491e+06 -711534 0 2.26014e+06 -673367 0 2.28329e+06 -633590 0 2.30412e+06 -592439 0 2.32246e+06 -550188 0 2.33818e+06 -507136 0 2.35119e+06 -463591 0 2.36149e+06 -419861 0 2.36911e+06 -376237 0 2.37412e+06 -332987 0 2.37664e+06 -290349 0 2.3768e+06 -248529 0 2.37476e+06 -207699 0 2.37068e+06 -167996 0 2.36474e+06 -129531 0 2.35708e+06 -92383.9 0 2.34789e+06 -56612.5 0 2.33732e+06 -22253.1 0 2.32551e+06 10675.5 0 2.31261e+06 42169.4 0 2.29874e+06 72236.5 0 2.28402e+06 100895 0 2.26856e+06 128170 0 2.25246e+06 154093 0 2.23581e+06 178701 0 2.21869e+06 202033 0 2.20117e+06 224132 0 2.18333e+06 245040 0 2.16522e+06 264804 0 2.14689e+06 283466 0 2.12839e+06 301072 0 2.10977e+06 317667 0 2.09107e+06 333292 0 2.07231e+06 347992 0 2.05352e+06 361806 0 2.03474e+06 374776 0 2.01598e+06 386939 0 1.99727e+06 398334 0 1.97863e+06 408995 0 1.96007e+06 418957 0 1.9416e+06 428254 0 1.92323e+06 436917 0 1.90499e+06 444976 0 1.88687e+06 452460 0 1.86889e+06 459397 0 1.85104e+06 465813 0 1.83335e+06 471733 0 1.8158e+06 477181 0 1.79841e+06 482181 0 1.78118e+06 486752 0 1.76411e+06 490917 0 1.74721e+06 494695 0 1.73047e+06 498105 0 1.71389e+06 501164 0 1.69749e+06 503889 0 1.68125e+06 506298 0 1.66517e+06 508404 0 1.64927e+06 510223 0 1.63353e+06 511769 0 1.61796e+06 513055 0 1.60256e+06 514093 0 1.58732e+06 514896 0 1.57224e+06 515475 0 1.55733e+06 515841 0 1.54258e+06 516004 0 1.52799e+06 515974 0 1.51356e+06 515762 0 1.49929e+06 515374 0 1.48517e+06 514821 0 1.47121e+06 514111 0 1.4574e+06 513250 0 1.44374e+06 512248 0 1.43023e+06 511109 0 1.41688e+06 509843 0 1.40367e+06 508454 0 1.3906e+06 506949 0 1.37768e+06 505333 0 1.3649e+06 503614 0 1.35226e+06 501794 0 1.33976e+06 499881 0 1.3274e+06 497879 0 1.31517e+06 495791 0 1.30308e+06 493624 0 1.29112e+06 491380 0 1.2793e+06 489065 0 1.2676e+06 486681 0 1.25603e+06 484233 0 1.24459e+06 481724 0 1.23328e+06 479157 0 1.22209e+06 476536 0 1.21102e+06 473863 0 1.20008e+06 471142 0 1.18926e+06 468376 0 1.17855e+06 465566 0 1.16797e+06 462717 0 1.1575e+06 459829 0 1.14714e+06 456906 0 1.1369e+06 453949 0 1.12678e+06 450961 0 1.11676e+06 447944 0 1.10686e+06 444900 0 1.09706e+06 441830 0 1.08738e+06 438736 0 1.0778e+06 435621 0 1.06833e+06 432485 0 1.05896e+06 429331 0 1.0497e+06 426159 0 1.04054e+06 422971 0 1.03148e+06 419769 0 1.02252e+06 416553 0 1.01367e+06 413325 0 1.00491e+06 410087 0 996255 406839 0 987694 403582 0 979230 400317 0 970862 397046 0 962588 393769 0 954408 390487 0 946320 387201 0 938325 383911 0 930422 380619 0 922608 377326 0 914885 374031 0 907250 370736 0 2.12305e+06 -846836 0 2.15402e+06 -816333 0 2.18402e+06 -783746 0 2.21276e+06 -749109 0 2.23995e+06 -712509 0 2.2653e+06 -674086 0 2.28853e+06 -634033 0 2.30942e+06 -592592 0 2.32777e+06 -550044 0 2.34346e+06 -506695 0 2.35642e+06 -462858 0 2.36664e+06 -418846 0 2.37414e+06 -374956 0 2.37902e+06 -331457 0 2.38138e+06 -288590 0 2.38137e+06 -246562 0 2.37915e+06 -205545 0 2.37488e+06 -165677 0 2.36874e+06 -127065 0 2.36089e+06 -89791.3 0 2.35151e+06 -53910.7 0 2.34074e+06 -19458.4 0 2.32874e+06 13548.3 0 2.31565e+06 45106.7 0 2.3016e+06 75226.2 0 2.2867e+06 103926 0 2.27107e+06 131233 0 2.2548e+06 157179 0 2.23799e+06 181803 0 2.22072e+06 205145 0 2.20306e+06 227247 0 2.18508e+06 248154 0 2.16684e+06 267911 0 2.14838e+06 286564 0 2.12977e+06 304157 0 2.11103e+06 320735 0 2.09222e+06 336343 0 2.07335e+06 351022 0 2.05447e+06 364815 0 2.03559e+06 377761 0 2.01674e+06 389900 0 1.99795e+06 401269 0 1.97922e+06 411904 0 1.96058e+06 421840 0 1.94204e+06 431110 0 1.92361e+06 439746 0 1.9053e+06 447778 0 1.88712e+06 455235 0 1.86907e+06 462144 0 1.85117e+06 468533 0 1.83342e+06 474426 0 1.81582e+06 479847 0 1.79839e+06 484820 0 1.78111e+06 489365 0 1.76399e+06 493504 0 1.74705e+06 497256 0 1.73027e+06 500641 0 1.71365e+06 503675 0 1.69721e+06 506376 0 1.68093e+06 508760 0 1.66483e+06 510843 0 1.64889e+06 512639 0 1.63313e+06 514161 0 1.61753e+06 515425 0 1.6021e+06 516441 0 1.58683e+06 517222 0 1.57173e+06 517779 0 1.55679e+06 518124 0 1.54202e+06 518267 0 1.52741e+06 518217 0 1.51296e+06 517984 0 1.49867e+06 517578 0 1.48453e+06 517006 0 1.47055e+06 516276 0 1.45673e+06 515397 0 1.44306e+06 514376 0 1.42953e+06 513220 0 1.41616e+06 511935 0 1.40294e+06 510529 0 1.38986e+06 509007 0 1.37693e+06 507375 0 1.36413e+06 505638 0 1.35148e+06 503803 0 1.33898e+06 501874 0 1.3266e+06 499855 0 1.31437e+06 497752 0 1.30227e+06 495569 0 1.2903e+06 493311 0 1.27847e+06 490980 0 1.26677e+06 488581 0 1.25519e+06 486119 0 1.24375e+06 483595 0 1.23243e+06 481014 0 1.22123e+06 478379 0 1.21016e+06 475692 0 1.19921e+06 472957 0 1.18838e+06 470177 0 1.17767e+06 467354 0 1.16708e+06 464491 0 1.15661e+06 461590 0 1.14625e+06 458654 0 1.13601e+06 455684 0 1.12588e+06 452683 0 1.11586e+06 449653 0 1.10596e+06 446596 0 1.09616e+06 443514 0 1.08647e+06 440408 0 1.07689e+06 437280 0 1.06742e+06 434132 0 1.05805e+06 430965 0 1.04879e+06 427781 0 1.03963e+06 424581 0 1.03057e+06 421366 0 1.02161e+06 418139 0 1.01276e+06 414899 0 1.004e+06 411649 0 995343 408389 0 986782 405120 0 978318 401844 0 969950 398561 0 961676 395272 0 953496 391979 0 945410 388681 0 937416 385380 0 929513 382077 0 921700 378772 0 913977 375466 0 906343 372160 0 2.12745e+06 -848588 0 2.1586e+06 -817934 0 2.18878e+06 -785166 0 2.21769e+06 -750320 0 2.24503e+06 -713483 0 2.27049e+06 -674798 0 2.2938e+06 -634465 0 2.31474e+06 -592731 0 2.33311e+06 -549882 0 2.34878e+06 -506232 0 2.36168e+06 -462100 0 2.37181e+06 -417804 0 2.3792e+06 -373645 0 2.38393e+06 -329896 0 2.38614e+06 -286799 0 2.38596e+06 -244563 0 2.38355e+06 -203358 0 2.37909e+06 -163324 0 2.37275e+06 -124568 0 2.36471e+06 -87167.5 0 2.35512e+06 -51178.5 0 2.34416e+06 -16634.3 0 2.33197e+06 16449.4 0 2.31869e+06 48071.2 0 2.30445e+06 78242 0 2.28937e+06 106982 0 2.27357e+06 134320 0 2.25714e+06 160289 0 2.24017e+06 184927 0 2.22275e+06 208277 0 2.20495e+06 230381 0 2.18683e+06 251285 0 2.16845e+06 271036 0 2.14987e+06 289677 0 2.13113e+06 307257 0 2.11228e+06 323819 0 2.09336e+06 339407 0 2.07439e+06 354065 0 2.0554e+06 367835 0 2.03643e+06 380758 0 2.0175e+06 392872 0 1.99862e+06 404215 0 1.97981e+06 414824 0 1.96109e+06 424733 0 1.94248e+06 433975 0 1.92398e+06 442583 0 1.9056e+06 450587 0 1.88735e+06 458017 0 1.86925e+06 464898 0 1.85129e+06 471260 0 1.83349e+06 477125 0 1.81584e+06 482519 0 1.79835e+06 487465 0 1.78103e+06 491984 0 1.76387e+06 496096 0 1.74688e+06 499823 0 1.73006e+06 503181 0 1.71341e+06 506190 0 1.69693e+06 508867 0 1.68062e+06 511227 0 1.66448e+06 513285 0 1.64851e+06 515058 0 1.63271e+06 516557 0 1.61709e+06 517798 0 1.60163e+06 518792 0 1.58634e+06 519551 0 1.57121e+06 520087 0 1.55625e+06 520410 0 1.54146e+06 520532 0 1.52683e+06 520462 0 1.51235e+06 520209 0 1.49804e+06 519783 0 1.48389e+06 519191 0 1.46989e+06 518443 0 1.45605e+06 517545 0 1.44236e+06 516506 0 1.42883e+06 515332 0 1.41544e+06 514029 0 1.4022e+06 512606 0 1.38911e+06 511066 0 1.37617e+06 509417 0 1.36337e+06 507664 0 1.35071e+06 505812 0 1.33819e+06 503867 0 1.3258e+06 501832 0 1.31356e+06 499714 0 1.30145e+06 497515 0 1.28948e+06 495241 0 1.27764e+06 492896 0 1.26593e+06 490482 0 1.25435e+06 488005 0 1.24289e+06 485466 0 1.23157e+06 482871 0 1.22037e+06 480222 0 1.20929e+06 477521 0 1.19834e+06 474772 0 1.1875e+06 471979 0 1.17679e+06 469142 0 1.1662e+06 466265 0 1.15572e+06 463351 0 1.14536e+06 460401 0 1.13511e+06 457418 0 1.12498e+06 454405 0 1.11496e+06 451362 0 1.10505e+06 448292 0 1.09526e+06 445197 0 1.08557e+06 442078 0 1.07598e+06 438938 0 1.06651e+06 435777 0 1.05714e+06 432598 0 1.04787e+06 429402 0 1.03871e+06 426190 0 1.02966e+06 422963 0 1.0207e+06 419724 0 1.01184e+06 416472 0 1.00308e+06 413210 0 994427 409938 0 985866 406658 0 977402 403370 0 969034 400075 0 960761 396775 0 952582 393470 0 944496 390161 0 936502 386849 0 928600 383534 0 920788 380217 0 913066 376900 0 905434 373582 0 2.13186e+06 -850350 0 2.16321e+06 -819543 0 2.19358e+06 -786592 0 2.22266e+06 -751532 0 2.25013e+06 -714454 0 2.27571e+06 -675504 0 2.29911e+06 -634886 0 2.3201e+06 -592854 0 2.33848e+06 -549701 0 2.35413e+06 -505746 0 2.36697e+06 -461316 0 2.37701e+06 -416734 0 2.38428e+06 -372304 0 2.38887e+06 -328303 0 2.39091e+06 -284976 0 2.39055e+06 -242530 0 2.38796e+06 -201139 0 2.3833e+06 -160939 0 2.37677e+06 -122038 0 2.36852e+06 -84512.3 0 2.35874e+06 -48415.9 0 2.34757e+06 -13780.7 0 2.33519e+06 19378.8 0 2.32172e+06 51062.9 0 2.3073e+06 81283.8 0 2.29204e+06 110063 0 2.27607e+06 137430 0 2.25947e+06 163420 0 2.24235e+06 188072 0 2.22477e+06 211429 0 2.20682e+06 233535 0 2.18856e+06 254436 0 2.17005e+06 274178 0 2.15135e+06 292808 0 2.13249e+06 310372 0 2.11352e+06 326917 0 2.09449e+06 342485 0 2.07541e+06 357122 0 2.05633e+06 370869 0 2.03727e+06 383767 0 2.01824e+06 395855 0 1.99928e+06 407172 0 1.98039e+06 417753 0 1.96159e+06 427635 0 1.9429e+06 436850 0 1.92433e+06 445430 0 1.90589e+06 453405 0 1.88758e+06 460806 0 1.86942e+06 467660 0 1.8514e+06 473993 0 1.83354e+06 479831 0 1.81585e+06 485198 0 1.79831e+06 490116 0 1.78094e+06 494608 0 1.76374e+06 498694 0 1.7467e+06 502394 0 1.72984e+06 505727 0 1.71315e+06 508710 0 1.69664e+06 511362 0 1.68029e+06 513697 0 1.66412e+06 515732 0 1.64812e+06 517480 0 1.6323e+06 518956 0 1.61664e+06 520174 0 1.60115e+06 521145 0 1.58584e+06 521882 0 1.57069e+06 522397 0 1.55571e+06 522699 0 1.54089e+06 522800 0 1.52624e+06 522709 0 1.51174e+06 522436 0 1.49741e+06 521990 0 1.48324e+06 521379 0 1.46923e+06 520611 0 1.45537e+06 519695 0 1.44167e+06 518637 0 1.42812e+06 517445 0 1.41472e+06 516125 0 1.40147e+06 514683 0 1.38836e+06 513127 0 1.37541e+06 511461 0 1.36259e+06 509691 0 1.34992e+06 507822 0 1.33739e+06 505861 0 1.325e+06 503810 0 1.31275e+06 501676 0 1.30063e+06 499462 0 1.28865e+06 497172 0 1.2768e+06 494811 0 1.26508e+06 492383 0 1.2535e+06 489891 0 1.24204e+06 487338 0 1.23071e+06 484728 0 1.2195e+06 482064 0 1.20842e+06 479350 0 1.19746e+06 476587 0 1.18662e+06 473780 0 1.17591e+06 470929 0 1.16531e+06 468039 0 1.15483e+06 465111 0 1.14446e+06 462148 0 1.13421e+06 459152 0 1.12408e+06 456126 0 1.11406e+06 453070 0 1.10415e+06 449987 0 1.09435e+06 446879 0 1.08465e+06 443748 0 1.07507e+06 440595 0 1.06559e+06 437422 0 1.05622e+06 434231 0 1.04696e+06 431022 0 1.0378e+06 427798 0 1.02874e+06 424559 0 1.01978e+06 421308 0 1.01092e+06 418044 0 1.00217e+06 414770 0 993507 411487 0 984947 408194 0 976483 404895 0 968115 401588 0 959842 398276 0 951664 394960 0 943578 391639 0 935585 388316 0 927684 384989 0 919873 381662 0 912152 378333 0 904520 375004 0 2.13631e+06 -852122 0 2.16785e+06 -821160 0 2.1984e+06 -788022 0 2.22765e+06 -752746 0 2.25528e+06 -715423 0 2.28097e+06 -676204 0 2.30446e+06 -635297 0 2.32549e+06 -592963 0 2.34388e+06 -549502 0 2.3595e+06 -505238 0 2.37229e+06 -460506 0 2.38223e+06 -415635 0 2.38937e+06 -370932 0 2.39382e+06 -326678 0 2.3957e+06 -283119 0 2.39516e+06 -240464 0 2.39238e+06 -198886 0 2.38753e+06 -158521 0 2.38079e+06 -119476 0 2.37234e+06 -81825.5 0 2.36235e+06 -45622.6 0 2.35099e+06 -10897.6 0 2.33841e+06 22336.7 0 2.32475e+06 54081.9 0 2.31014e+06 84351.8 0 2.29471e+06 113169 0 2.27856e+06 140565 0 2.2618e+06 166575 0 2.24451e+06 191239 0 2.22678e+06 2146