<?xml version="1.0"?> 
<VTKFile type="StructuredGrid" version="0.1"> 
<StructuredGrid WholeExtent="0 127 0 127 0 0"> 
<Piece Extent="0 127 0 127 0 0"> 
<PointData>
<DataArray type="Float32" Name="|E|" format="ascii" NumberOfComponents="3"> 
1568.84 1.33514e-05 0 388.436 -436.06 0 264.119 -386.949 0 160.124 -304.811 0 108.182 -289.007 0 66.0574 -248.83 0 38.1391 -229.572 0 15.9788 -204.747 0 -0.293969 -187.144 0 -13.0347 -169.203 0 -22.7081 -154.366 0 -30.177 -140.399 0 -35.8317 -128.16 0 -40.0795 -116.93 0 -43.1834 -106.87 0 -45.3725 -97.7085 0 -46.8184 -89.4274 0 -47.6632 -81.8961 0 -48.0202 -75.0605 0 -47.9825 -68.8406 0 -47.6262 -63.182 0 -47.0139 -58.0276 0 -46.1976 -53.3307 0 -45.2204 -49.047 0 -44.1181 -45.1382 0 -42.9204 -41.569 0 -41.6523 -38.308 0 -40.3344 -35.3267 0 -38.9839 -32.5994 0 -37.6152 -30.103 0 -36.24 -27.8165 0 -34.8683 -25.721 0 -33.508 -23.7993 0 -32.1658 -22.0358 0 -30.8469 -20.4166 0 -29.5555 -18.9288 0 -28.2952 -17.561 0 -27.0684 -16.3025 0 -25.8772 -15.144 0 -24.7229 -14.0766 0 -23.6065 -13.0927 0 -22.5285 -12.1851 0 -21.4892 -11.3473 0 -20.4886 -10.5734 0 -19.5264 -9.85801 0 -18.6021 -9.19631 0 -17.7152 -8.58385 0 -16.8649 -8.01658 0 -16.0504 -7.49081 0 -15.2708 -7.00318 0 -14.5251 -6.55063 0 -13.8124 -6.13036 0 -13.1315 -5.7398 0 -12.4814 -5.37665 0 -11.8611 -5.03874 0 -11.2694 -4.72414 0 -10.7054 -4.43106 0 -10.1678 -4.15786 0 -9.65576 -3.90304 0 -9.16816 -3.66523 0 -8.70399 -3.44317 0 -8.26229 -3.2357 0 -7.84207 -3.04175 0 -7.44242 -2.86035 0 -7.06242 -2.69061 0 -6.70119 -2.53168 0 -6.35791 -2.38282 0 -6.03173 -2.24331 0 -5.72189 -2.1125 0 -5.42761 -1.98981 0 -5.14817 -1.87466 0 -4.88287 -1.76656 0 -4.63105 -1.66504 0 -4.39205 -1.56964 0 -4.16527 -1.47998 0 -3.95011 -1.39565 0 -3.74601 -1.31634 0 -3.55244 -1.2417 0 -3.36887 -1.17144 0 -3.19482 -1.10527 0 -3.02982 -1.04293 0 -2.87342 -0.984203 0 -2.72521 -0.928834 0 -2.58477 -0.876621 0 -2.45172 -0.827368 0 -2.32568 -0.780897 0 -2.20633 -0.737029 0 -2.09332 -0.695607 0 -1.98634 -0.65648 0 -1.88508 -0.619516 0 -1.78928 -0.584568 0 -1.69864 -0.551527 0 -1.61293 -0.520272 0 -1.5319 -0.490698 0 -1.45531 -0.462695 0 -1.38296 -0.436176 0 -1.31463 -0.411042 0 -1.25012 -0.387225 0 -1.18927 -0.364622 0 -1.13188 -0.343184 0 -1.0778 -0.322814 0 -1.02687 -0.303469 0 -0.978953 -0.285064 0 -0.933893 -0.267553 0 -0.891572 -0.250878 0 -0.851866 -0.234984 0 -0.814658 -0.219816 0 -0.779841 -0.205325 0 -0.747312 -0.191479 0 -0.716982 -0.178218 0 -0.68876 -0.165508 0 -0.662564 -0.153301 0 -0.638318 -0.141576 0 -0.615952 -0.130269 0 -0.595396 -0.119379 0 -0.576597 -0.108838 0 -0.559495 -0.0986469 0 -0.544046 -0.0887411 0 -0.530198 -0.0791212 0 -0.51792 -0.0697275 0 -0.507163 -0.0605614 0 -0.497908 -0.0515659 0 -0.490115 -0.0427361 0 -0.483773 -0.0340354 0 -0.478861 -0.0254385 0 -0.475363 -0.0169163 0 -0.473269 -0.00844526 0 -0.472569 9.53674e-06 0 1153.29 -1.96969e-06 0 440.817 -391.753 0 264.128 -349.693 0 170.479 -301.468 0 112.132 -275.042 0 71.5371 -245.548 0 41.8866 -223.427 0 19.7767 -202.132 0 2.84964 -184.039 0 -10.1089 -167.41 0 -20.1327 -152.665 0 -27.8309 -139.269 0 -33.7247 -127.211 0 -38.1677 -116.273 0 -41.4538 -106.368 0 -43.8023 -97.3748 0 -45.3931 -89.2073 0 -46.3676 -81.7803 0 -46.8418 -75.023 0 -46.9097 -68.8698 0 -46.6489 -63.2633 0 -46.1231 -58.1515 0 -45.3851 -53.488 0 -44.4789 -49.2309 0 -43.4409 -45.3425 0 -42.3016 -41.7888 0 -41.0865 -38.539 0 -39.8167 -35.5655 0 -38.51 -32.8432 0 -37.1811 -30.3493 0 -35.8422 -28.0633 0 -34.5034 -25.9667 0 -33.1732 -24.0425 0 -31.8583 -22.2755 0 -30.5643 -20.6518 0 -29.2958 -19.1589 0 -28.0562 -17.7853 0 -26.8484 -16.5207 0 -25.6745 -15.3557 0 -24.536 -14.2817 0 -23.4341 -13.291 0 -22.3694 -12.3764 0 -21.3423 -11.5317 0 -20.3528 -10.7508 0 -19.4007 -10.0286 0 -18.4858 -9.36013 0 -17.6075 -8.74101 0 -16.7651 -8.16721 0 -15.9578 -7.63507 0 -15.1849 -7.14123 0 -14.4453 -6.68265 0 -13.7382 -6.25653 0 -13.0625 -5.86032 0 -12.4173 -5.49169 0 -11.8014 -5.1485 0 -11.2138 -4.82881 0 -10.6535 -4.53084 0 -10.1194 -4.25293 0 -9.61062 -3.9936 0 -9.126 -3.75146 0 -8.66461 -3.52524 0 -8.22547 -3.3138 0 -7.80764 -3.11605 0 -7.4102 -2.93101 0 -7.03226 -2.75778 0 -6.67294 -2.59553 0 -6.33143 -2.4435 0 -6.00691 -2.30096 0 -5.6986 -2.16726 0 -5.40576 -2.04181 0 -5.12766 -1.92405 0 -4.86361 -1.81345 0 -4.61295 -1.70954 0 -4.37504 -1.61187 0 -4.14928 -1.52004 0 -3.93507 -1.43367 0 -3.73185 -1.3524 0 -3.53911 -1.2759 0 -3.35632 -1.20386 0 -3.183 -1.13601 0 -3.01868 -1.07208 0 -2.86292 -1.01182 0 -2.71531 -0.955007 0 -2.57543 -0.901422 0 -2.4429 -0.850862 0 -2.31737 -0.803147 0 -2.19848 -0.758101 0 -2.0859 -0.715558 0 -1.97933 -0.675366 0 -1.87846 -0.637385 0 -1.78301 -0.601478 0 -1.69272 -0.567519 0 -1.60733 -0.535394 0 -1.52659 -0.50499 0 -1.45029 -0.476202 0 -1.3782 -0.448932 0 -1.31011 -0.423091 0 -1.24585 -0.398589 0 -1.18521 -0.375347 0 -1.12803 -0.353289 0 -1.07414 -0.332339 0 -1.02339 -0.312431 0 -0.975642 -0.293497 0 -0.930742 -0.275478 0 -0.88857 -0.258319 0 -0.849002 -0.241958 0 -0.811924 -0.226347 0 -0.777228 -0.211435 0 -0.744812 -0.197176 0 -0.714587 -0.183526 0 -0.686463 -0.17044 0 -0.660357 -0.157877 0 -0.636194 -0.1458 0 -0.613905 -0.134164 0 -0.59342 -0.122944 0 -0.574685 -0.112096 0 -0.557642 -0.101596 0 -0.542245 -0.0913989 0 -0.528445 -0.0814893 0 -0.516208 -0.0718188 0 -0.505489 -0.0623729 0 -0.496264 -0.0531108 0 -0.488499 -0.0440142 0 -0.482178 -0.0350533 0 -0.477283 -0.0261978 0 -0.473796 -0.0174214 0 -0.471709 -0.00869701 0 -0.47101 -1.01601e-06 0 904.071 -1.07102e-08 0 455.695 -341.368 0 268.362 -322.092 0 177.17 -291.615 0 116.719 -264.499 0 76.0718 -240.167 0 45.6818 -218.288 0 23.2603 -198.841 0 5.93465 -181.2 0 -7.31436 -165.381 0 -17.6168 -151.015 0 -25.5524 -138.042 0 -31.6615 -126.254 0 -36.2958 -115.565 0 -39.7541 -105.845 0 -42.2575 -97.0092 0 -43.9879 -88.9653 0 -45.0885 -81.6412 0 -45.6767 -74.9663 0 -45.8478 -68.8806 0 -45.6804 -63.3284 0 -45.2393 -58.2606 0 -44.5782 -53.6321 0 -43.7416 -49.4027 0 -42.767 -45.5358 0 -41.6853 -41.9985 0 -40.5225 -38.761 0 -39.3003 -35.7961 0 -38.0369 -33.0794 0 -36.7473 -30.5887 0 -35.4443 -28.3039 0 -34.1382 -26.2067 0 -32.8378 -24.2806 0 -31.5501 -22.5105 0 -30.2809 -20.8828 0 -29.035 -19.3851 0 -27.8161 -18.0061 0 -26.6272 -16.7357 0 -25.4706 -15.5645 0 -24.3479 -14.484 0 -23.2605 -13.4867 0 -22.209 -12.5655 0 -21.194 -11.7139 0 -20.2157 -10.9264 0 -19.2738 -10.1974 0 -18.3683 -9.52232 0 -17.4986 -8.89667 0 -16.6641 -8.31647 0 -15.8641 -7.77807 0 -15.0978 -7.27812 0 -14.3644 -6.8136 0 -13.663 -6.38171 0 -12.9926 -5.97991 0 -12.3521 -5.60589 0 -11.7407 -5.25749 0 -11.1572 -4.93278 0 -10.6008 -4.62996 0 -10.0702 -4.3474 0 -9.56467 -4.0836 0 -9.08308 -3.83717 0 -8.62449 -3.60684 0 -8.18795 -3.39145 0 -7.77253 -3.18992 0 -7.37733 -3.00128 0 -7.00147 -2.8246 0 -6.6441 -2.65905 0 -6.30439 -2.50386 0 -5.98155 -2.35832 0 -5.6748 -2.22175 0 -5.38342 -2.09357 0 -5.10668 -1.97319 0 -4.8439 -1.86011 0 -4.59443 -1.75383 0 -4.35763 -1.65391 0 -4.1329 -1.55993 0 -3.91965 -1.47151 0 -3.71735 -1.3883 0 -3.52545 -1.30995 0 -3.34345 -1.23615 0 -3.17088 -1.16663 0 -3.00725 -1.10111 0 -2.85215 -1.03933 0 -2.70515 -0.981079 0 -2.56584 -0.926124 0 -2.43386 -0.874265 0 -2.30883 -0.825313 0 -2.19041 -0.77909 0 -2.07829 -0.735432 0 -1.97213 -0.694179 0 -1.87166 -0.65519 0 -1.77658 -0.618323 0 -1.68664 -0.583453 0 -1.60157 -0.550461 0 -1.52114 -0.519232 0 -1.44513 -0.48966 0 -1.37331 -0.461646 0 -1.30548 -0.435094 0 -1.24145 -0.409919 0 -1.18104 -0.386033 0 -1.12407 -0.363363 0 -1.07038 -0.341829 0 -1.01982 -0.321365 0 -0.972237 -0.3019 0 -0.927501 -0.283375 0 -0.885481 -0.265732 0 -0.846056 -0.248909 0 -0.809111 -0.232857 0 -0.77454 -0.217522 0 -0.742241 -0.202858 0 -0.712123 -0.188819 0 -0.684099 -0.175359 0 -0.658086 -0.162438 0 -0.634009 -0.150012 0 -0.611798 -0.138044 0 -0.591386 -0.126501 0 -0.572717 -0.115342 0 -0.555735 -0.104538 0 -0.540392 -0.094048 0 -0.52664 -0.0838497 0 -0.514445 -0.073902 0 -0.503765 -0.0641816 0 -0.494571 -0.054652 0 -0.486834 -0.0452918 0 -0.480535 -0.0360696 0 -0.475657 -0.0269594 0 -0.472182 -0.0179265 0 -0.470103 -0.00895066 0 -0.469408 -9.64443e-07 0 746.252 -3.22238e-07 0 451.574 -293.993 0 272.504 -298.517 0 181.892 -279.233 0 121.138 -255.205 0 80.0551 -233.974 0 49.3226 -213.464 0 26.5276 -195.278 0 8.90961 -178.415 0 -4.62752 -163.245 0 -15.1735 -149.351 0 -23.3364 -136.759 0 -29.6458 -125.27 0 -34.4631 -114.821 0 -38.0857 -105.295 0 -40.7383 -96.6161 0 -42.6034 -88.7002 0 -43.8263 -81.4802 0 -44.5253 -74.8902 0 -44.797 -68.8736 0 -44.721 -63.3776 0 -44.3628 -58.355 0 -43.777 -53.7629 0 -43.009 -49.5624 0 -42.0966 -45.7182 0 -41.0716 -42.1984 0 -39.9604 -38.9739 0 -38.7852 -36.0185 0 -37.5645 -33.3082 0 -36.314 -30.8214 0 -35.0465 -28.5383 0 -33.7729 -26.4411 0 -32.502 -24.5135 0 -31.2413 -22.7407 0 -29.9968 -21.1094 0 -28.7734 -19.6073 0 -27.5751 -18.2233 0 -26.405 -16.9473 0 -25.2656 -15.7702 0 -24.1587 -14.6836 0 -23.0857 -13.6799 0 -22.0474 -12.7522 0 -21.0446 -11.8941 0 -20.0773 -11.0999 0 -19.1458 -10.3645 0 -18.2496 -9.68288 0 -17.3885 -9.05083 0 -16.5619 -8.46435 0 -15.7692 -7.91979 0 -15.0097 -7.41384 0 -14.2825 -6.94347 0 -13.5868 -6.5059 0 -12.9216 -6.0986 0 -12.286 -5.71924 0 -11.6791 -5.36569 0 -11.0998 -5.03601 0 -10.5472 -4.72841 0 -10.0202 -4.44125 0 -9.51793 -4.17302 0 -9.03939 -3.92234 0 -8.58364 -3.68794 0 -8.14973 -3.46864 0 -7.73676 -3.26337 0 -7.34383 -3.07115 0 -6.97008 -2.89105 0 -6.61467 -2.72223 0 -6.27679 -2.56391 0 -5.95565 -2.41538 0 -5.6505 -2.27597 0 -5.3606 -2.14506 0 -5.08524 -2.0221 0 -4.82375 -1.90654 0 -4.57549 -1.79791 0 -4.33981 -1.69575 0 -4.11614 -1.59964 0 -3.90388 -1.50919 0 -3.7025 -1.42404 0 -3.51147 -1.34385 0 -3.33028 -1.2683 0 -3.15846 -1.19711 0 -2.99555 -1.13001 0 -2.84111 -1.06673 0 -2.69474 -1.00704 0 -2.55602 -0.950724 0 -2.42458 -0.89757 0 -2.30007 -0.847389 0 -2.18214 -0.799998 0 -2.07047 -0.755226 0 -1.96475 -0.712917 0 -1.86468 -0.672923 0 -1.76998 -0.635102 0 -1.68039 -0.599325 0 -1.59566 -0.565469 0 -1.51554 -0.53342 0 -1.43982 -0.503068 0 -1.36828 -0.474311 0 -1.30072 -0.447053 0 -1.23693 -0.421205 0 -1.17675 -0.396679 0 -1.12 -0.373399 0 -1.06651 -0.351285 0 -1.01614 -0.330266 0 -0.968738 -0.310273 0 -0.92417 -0.291244 0 -0.882307 -0.273118 0 -0.843028 -0.255836 0 -0.80622 -0.239343 0 -0.771777 -0.223587 0 -0.739597 -0.208519 0 -0.70959 -0.194093 0 -0.681669 -0.18026 0 -0.655751 -0.16698 0 -0.631762 -0.15421 0 -0.609632 -0.141911 0 -0.589295 -0.130044 0 -0.570694 -0.118577 0 -0.553773 -0.10747 0 -0.538485 -0.0966875 0 -0.524784 -0.0862027 0 -0.512633 -0.0759778 0 -0.501991 -0.0659834 0 -0.492831 -0.0561877 0 -0.485122 -0.0465647 0 -0.478847 -0.0370837 0 -0.473985 -0.0277168 0 -0.470523 -0.0184305 0 -0.468451 -0.00920209 0 -0.467759 -5.6054e-07 0 640.245 6.72182e-07 0 438.17 -252.725 0 274.941 -276.849 0 185.338 -266.08 0 125.08 -246.297 0 83.6364 -227.505 0 52.7345 -208.691 0 29.613 -191.605 0 11.7563 -175.608 0 -2.04108 -161.049 0 -12.8075 -147.652 0 -21.1816 -135.435 0 -27.679 -124.253 0 -32.6698 -114.046 0 -36.4492 -104.717 0 -39.2449 -96.1976 0 -41.2401 -88.4123 0 -42.5813 -81.2983 0 -43.388 -74.7953 0 -43.7577 -68.8495 0 -43.7708 -63.4112 0 -43.4937 -58.4353 0 -42.9818 -53.8808 0 -42.2811 -49.7104 0 -41.43 -45.8899 0 -40.4608 -42.3885 0 -39.4004 -39.178 0 -38.2716 -36.2328 0 -37.0932 -33.5296 0 -35.8812 -31.0473 0 -34.649 -28.7666 0 -33.4074 -26.6699 0 -32.1659 -24.7413 0 -30.932 -22.9663 0 -29.7119 -21.3318 0 -28.5109 -19.8256 0 -27.3331 -18.4369 0 -26.1818 -17.1557 0 -25.0595 -15.973 0 -23.9683 -14.8805 0 -22.9097 -13.8706 0 -21.8847 -12.9366 0 -20.894 -12.0722 0 -19.9379 -11.2716 0 -19.0165 -10.5297 0 -18.1297 -9.8418 0 -17.2773 -9.20349 0 -16.4586 -8.61084 0 -15.6733 -8.06024 0 -14.9205 -7.54838 0 -14.1995 -7.07225 0 -13.5095 -6.62909 0 -12.8497 -6.21636 0 -12.219 -5.83174 0 -11.6166 -5.47311 0 -11.0415 -5.13852 0 -10.4927 -4.82619 0 -9.96934 -4.53447 0 -9.4704 -4.26186 0 -8.99496 -4.00698 0 -8.54207 -3.76854 0 -8.11082 -3.54537 0 -7.70032 -3.3364 0 -7.30969 -3.14062 0 -6.93808 -2.95712 0 -6.58467 -2.78505 0 -6.24864 -2.62364 0 -5.92923 -2.47214 0 -5.62569 -2.3299 0 -5.33729 -2.1963 0 -5.06334 -2.07076 0 -4.80317 -1.95275 0 -4.55613 -1.84178 0 -4.3216 -1.73739 0 -4.099 -1.63916 0 -3.88775 -1.54669 0 -3.68731 -1.45961 0 -3.49716 -1.37759 0 -3.31679 -1.30031 0 -3.14575 -1.22746 0 -2.98356 -1.15878 0 -2.82981 -1.094 0 -2.68407 -1.03289 0 -2.54595 -0.975219 0 -2.41508 -0.920778 0 -2.2911 -0.869372 0 -2.17367 -0.820816 0 -2.06246 -0.77494 0 -1.95718 -0.731579 0 -1.85752 -0.690584 0 -1.76321 -0.651812 0 -1.67398 -0.615133 0 -1.58959 -0.580418 0 -1.5098 -0.547552 0 -1.43438 -0.516422 0 -1.36313 -0.486926 0 -1.29583 -0.458965 0 -1.23229 -0.432447 0 -1.17235 -0.407284 0 -1.11582 -0.383396 0 -1.06254 -0.360703 0 -1.01236 -0.339133 0 -0.965146 -0.318614 0 -0.92075 -0.299084 0 -0.879047 -0.280477 0 -0.839918 -0.262736 0 -0.803251 -0.245805 0 -0.768938 -0.229629 0 -0.736881 -0.214159 0 -0.706988 -0.199346 0 -0.679172 -0.185143 0 -0.653352 -0.171506 0 -0.629453 -0.158393 0 -0.607407 -0.145762 0 -0.587146 -0.133577 0 -0.568615 -0.121798 0 -0.551757 -0.11039 0 -0.536527 -0.0993162 0 -0.522877 -0.0885472 0 -0.510771 -0.0780443 0 -0.500169 -0.0677789 0 -0.491042 -0.057718 0 -0.483363 -0.0478328 0 -0.477111 -0.0380943 0 -0.472268 -0.0284707 0 -0.468818 -0.0189339 0 -0.466753 -0.0094519 0 -0.466065 9.10601e-07 0 564.748 -1.26427e-07 0 420.596 -217.965 0 275.293 -256.472 0 187.786 -252.89 0 128.448 -237.493 0 86.8671 -220.965 0 55.8954 -203.893 0 32.5262 -187.882 0 14.4694 -172.759 0 0.446394 -158.812 0 -10.5205 -145.916 0 -19.0883 -134.077 0 -25.7619 -123.204 0 -30.9163 -113.242 0 -34.8451 -104.113 0 -37.7779 -95.7549 0 -39.8983 -88.1021 0 -41.354 -81.0963 0 -42.2651 -74.682 0 -42.7301 -68.8086 0 -42.8301 -63.4294 0 -42.6324 -58.5016 0 -42.1929 -53.986 0 -41.5581 -49.8468 0 -40.7672 -46.051 0 -39.8529 -42.569 0 -38.8427 -39.3733 0 -37.7596 -36.4391 0 -36.623 -33.7437 0 -35.4491 -31.2666 0 -34.2517 -28.9887 0 -33.042 -26.8931 0 -31.8295 -24.964 0 -30.6222 -23.1873 0 -29.4265 -21.5499 0 -28.2477 -20.04 0 -27.0903 -18.647 0 -25.9576 -17.3608 0 -24.8524 -16.1728 0 -23.7769 -15.0746 0 -22.7327 -14.0588 0 -21.7208 -13.1187 0 -20.7422 -12.2481 0 -19.7972 -11.4413 0 -18.8861 -10.6932 0 -18.0087 -9.99908 0 -17.1649 -9.35463 0 -16.3543 -8.75594 0 -15.5763 -8.19941 0 -14.8302 -7.68174 0 -14.1155 -7.19995 0 -13.4313 -6.75127 0 -12.7768 -6.33318 0 -12.151 -5.94338 0 -11.5532 -5.57973 0 -10.9823 -5.24029 0 -10.4374 -4.92329 0 -9.91768 -4.62707 0 -9.4221 -4.35012 0 -8.94978 -4.09107 0 -8.49978 -3.84863 0 -8.07123 -3.62163 0 -7.66323 -3.40898 0 -7.27493 -3.20968 0 -6.90548 -3.02282 0 -6.55409 -2.84753 0 -6.21994 -2.68303 0 -5.90229 -2.5286 0 -5.60038 -2.38355 0 -5.31351 -2.24727 0 -5.04099 -2.11917 0 -4.78215 -1.99872 0 -4.53636 -1.88543 0 -4.303 -1.77883 0 -4.08149 -1.67849 0 -3.87126 -1.58401 0 -3.67177 -1.49502 0 -3.48252 -1.41118 0 -3.303 -1.33216 0 -3.13274 -1.25767 0 -2.9713 -1.18742 0 -2.81824 -1.12115 0 -2.67315 -1.05863 0 -2.53565 -0.999607 0 -2.40535 -0.943885 0 -2.28191 -0.891261 0 -2.16499 -0.841547 0 -2.05426 -0.794569 0 -1.94942 -0.750162 0 -1.85018 -0.708172 0 -1.75627 -0.668455 0 -1.66742 -0.630874 0 -1.58338 -0.595305 0 -1.50392 -0.561625 0 -1.42881 -0.529722 0 -1.35784 -0.499489 0 -1.29082 -0.470829 0 -1.22754 -0.443644 0 -1.16783 -0.417847 0 -1.11153 -0.393352 0 -1.05847 -0.370084 0 -1.00849 -0.347964 0 -0.96146 -0.326923 0 -0.91724 -0.306891 0 -0.875702 -0.287807 0 -0.836727 -0.26961 0 -0.800204 -0.252242 0 -0.766026 -0.235648 0 -0.734094 -0.219777 0 -0.704317 -0.204579 0 -0.676609 -0.190007 0 -0.65089 -0.176014 0 -0.627083 -0.16256 0 -0.605122 -0.149599 0 -0.58494 -0.137094 0 -0.56648 -0.125006 0 -0.549688 -0.1133 0 -0.534516 -0.101935 0 -0.520919 -0.0908833 0 -0.508859 -0.0801034 0 -0.498297 -0.069568 0 -0.489206 -0.0592409 0 -0.481556 -0.0490951 0 -0.475328 -0.0390996 0 -0.470503 -0.029223 0 -0.467067 -0.0194327 0 -0.46501 -0.00970196 0 -0.464324 -1.26893e-07 0 508.049 1.41561e-07 0 401.533 -189.102 0 273.706 -237.3 0 189.357 -239.98 0 131.234 -228.736 0 89.7621 -214.435 0 58.8032 -199.057 0 35.269 -184.131 0 17.0486 -169.869 0 2.83456 -156.541 0 -8.31286 -144.143 0 -17.057 -132.687 0 -23.8949 -122.125 0 -29.203 -112.41 0 -33.2738 -103.483 0 -36.3377 -95.2889 0 -38.5785 -87.7706 0 -40.1446 -80.8747 0 -41.1569 -74.5508 0 -41.7146 -68.7514 0 -41.8993 -63.4328 0 -41.7791 -58.5544 0 -41.4103 -54.0788 0 -40.8403 -49.9718 0 -40.1085 -46.2018 0 -39.2482 -42.74 0 -38.2874 -39.5599 0 -37.2494 -36.6375 0 -36.154 -33.9506 0 -35.0178 -31.4792 0 -33.8548 -29.2049 0 -32.6766 -27.1108 0 -31.493 -25.1817 0 -30.312 -23.4036 0 -29.1404 -21.7638 0 -27.9838 -20.2506 0 -26.8466 -18.8535 0 -25.7325 -17.5627 0 -24.6443 -16.3696 0 -23.5844 -15.266 0 -22.5545 -14.2445 0 -21.5559 -13.2985 0 -20.5893 -12.4219 0 -19.6555 -11.6091 0 -18.7545 -10.8549 0 -17.8866 -10.1547 0 -17.0515 -9.50427 0 -16.2488 -8.89965 0 -15.4782 -8.33729 0 -14.739 -7.81392 0 -14.0305 -7.32656 0 -13.3521 -6.87245 0 -12.7029 -6.44908 0 -12.0821 -6.05415 0 -11.4889 -5.68555 0 -10.9222 -5.34132 0 -10.3813 -5.0197 0 -9.86522 -4.71902 0 -9.37303 -4.43779 0 -8.90385 -4.17462 0 -8.45679 -3.92822 0 -8.03095 -3.69742 0 -7.62548 -3.48113 0 -7.23954 -3.27834 0 -6.87229 -3.08813 0 -6.52293 -2.90965 0 -6.1907 -2.7421 0 -5.87482 -2.58474 0 -5.57458 -2.43691 0 -5.28926 -2.29796 0 -5.01819 -2.16733 0 -4.7607 -2.04446 0 -4.51618 -1.92886 0 -4.284 -1.82006 0 -4.0636 -1.71762 0 -3.85441 -1.62115 0 -3.6559 -1.53026 0 -3.46756 -1.44461 0 -3.2889 -1.36387 0 -3.11945 -1.28774 0 -2.95876 -1.21593 0 -2.80641 -1.14818 0 -2.66198 -1.08425 0 -2.5251 -1.02389 0 -2.39539 -0.96689 0 -2.27251 -0.913054 0 -2.1561 -0.862188 0 -2.04586 -0.814115 0 -1.94148 -0.768666 0 -1.84267 -0.725686 0 -1.74916 -0.685028 0 -1.66069 -0.646552 0 -1.57701 -0.610131 0 -1.49789 -0.575641 0 -1.42309 -0.542968 0 -1.35243 -0.512003 0 -1.28568 -0.482644 0 -1.22267 -0.454795 0 -1.16321 -0.428367 0 -1.10714 -0.40327 0 -1.05429 -0.379428 0 -1.00452 -0.356761 0 -0.957682 -0.335196 0 -0.913642 -0.314667 0 -0.872272 -0.295108 0 -0.833455 -0.276456 0 -0.79708 -0.258654 0 -0.763039 -0.241643 0 -0.731235 -0.225373 0 -0.701578 -0.209792 0 -0.673981 -0.194853 0 -0.648365 -0.180506 0 -0.624653 -0.16671 0 -0.602779 -0.153421 0 -0.582677 -0.140599 0 -0.56429 -0.128203 0 -0.547565 -0.116198 0 -0.532453 -0.104545 0 -0.51891 -0.0932095 0 -0.506897 -0.0821557 0 -0.496378 -0.0713499 0 -0.487322 -0.060761 0 -0.479703 -0.0503546 0 -0.473499 -0.0401028 0 -0.468693 -0.0299724 0 -0.46527 -0.0199312 0 -0.463222 -0.0099513 0 -0.462539 -3.35742e-07 0 463.506 4.79631e-08 0 382.369 -165.227 0 270.508 -219.394 0 190.124 -227.491 0 133.461 -220.05 0 92.3271 -207.948 0 61.4628 -194.197 0 37.8412 -180.362 0 19.4948 -166.945 0 5.1229 -154.241 0 -6.18461 -142.339 0 -15.0882 -131.269 0 -22.0783 -121.018 0 -27.5305 -111.552 0 -31.7358 -102.829 0 -34.9246 -94.8006 0 -37.2808 -87.4184 0 -38.9534 -80.6343 0 -40.0637 -74.4022 0 -40.7113 -68.6783 0 -40.9786 -63.4216 0 -40.9339 -58.5938 0 -40.6344 -54.1595 0 -40.1278 -50.0857 0 -39.4541 -46.3424 0 -38.6469 -42.9017 0 -37.7346 -39.7381 0 -36.741 -36.8281 0 -35.6863 -34.1504 0 -34.5874 -31.6854 0 -33.4584 -29.4151 0 -32.3114 -27.3231 0 -31.1563 -25.3944 0 -30.0015 -23.6154 0 -28.8539 -21.9735 0 -27.7192 -20.4573 0 -26.6021 -19.0565 0 -25.5065 -17.7614 0 -24.4353 -16.5634 0 -23.391 -15.4546 0 -22.3753 -14.4277 0 -21.3898 -13.4761 0 -20.4354 -12.5936 0 -19.5126 -11.7749 0 -18.6219 -11.0148 0 -17.7634 -10.3087 0 -16.9369 -9.65239 0 -16.1423 -9.04196 0 -15.379 -8.47388 0 -14.6467 -7.94491 0 -13.9445 -7.45206 0 -13.2719 -6.9926 0 -12.6281 -6.56404 0 -12.0123 -6.16406 0 -11.4237 -5.79056 0 -10.8613 -5.44161 0 -10.3244 -5.11541 0 -9.81197 -4.81033 0 -9.3232 -4.52486 0 -8.8572 -4.25761 0 -8.41309 -4.00729 0 -7.99 -3.77272 0 -7.58709 -3.55282 0 -7.20353 -3.34658 0 -6.8385 -3.15306 0 -6.49122 -2.97141 0 -6.16091 -2.80082 0 -5.84684 -2.64057 0 -5.54828 -2.48997 0 -5.26454 -2.34839 0 -4.99493 -2.21523 0 -4.73882 -2.08996 0 -4.49559 -1.97207 0 -4.26462 -1.86108 0 -4.04535 -1.75656 0 -3.83722 -1.6581 0 -3.6397 -1.56533 0 -3.45229 -1.47788 0 -3.2745 -1.39543 0 -3.10586 -1.31767 0 -2.94594 -1.24431 0 -2.79431 -1.17509 0 -2.65057 -1.10975 0 -2.51432 -1.04805 0 -2.38521 -0.989791 0 -2.26289 -0.934749 0 -2.14701 -0.882736 0 -2.03726 -0.833573 0 -1.93335 -0.787087 0 -1.83498 -0.743122 0 -1.74189 -0.701527 0 -1.65381 -0.662161 0 -1.57049 -0.624892 0 -1.49171 -0.589597 0 -1.41724 -0.556157 0 -1.34688 -0.524462 0 -1.28042 -0.494409 0 -1.21768 -0.4659 0 -1.15847 -0.438841 0 -1.10264 -0.413146 0 -1.05002 -0.388733 0 -1.00045 -0.365521 0 -0.953811 -0.343437 0 -0.909955 -0.322413 0 -0.868758 -0.30238 0 -0.830102 -0.283275 0 -0.793878 -0.265038 0 -0.759978 -0.247613 0 -0.728306 -0.230946 0 -0.698771 -0.214984 0 -0.671287 -0.199678 0 -0.645776 -0.184979 0 -0.622162 -0.170844 0 -0.600377 -0.157227 0 -0.580358 -0.144089 0 -0.562046 -0.131387 0 -0.545388 -0.119086 0 -0.530339 -0.107143 0 -0.516851 -0.0955271 0 -0.504886 -0.0841987 0 -0.494409 -0.0731253 0 -0.485391 -0.0622723 0 -0.477802 -0.0516085 0 -0.471624 -0.0411006 0 -0.466838 -0.0307182 0 -0.463428 -0.0204273 0 -0.461388 -0.0101983 0 -0.460708 -1.88127e-07 0 427.227 6.61239e-08 0 363.804 -145.442 0 266.06 -202.809 0 190.155 -215.494 0 135.168 -211.483 0 94.5673 -201.523 0 63.8814 -189.33 0 40.243 -176.583 0 21.8095 -163.995 0 7.31117 -151.916 0 -4.13562 -140.506 0 -13.1822 -129.823 0 -20.3125 -119.884 0 -25.8989 -110.67 0 -30.2312 -102.152 0 -33.5388 -94.291 0 -36.0057 -87.0465 0 -37.7808 -80.3756 0 -38.9857 -74.2368 0 -39.7206 -68.5898 0 -40.0681 -63.3962 0 -40.0972 -58.6202 0 -39.8654 -54.2282 0 -39.4208 -50.1887 0 -38.804 -46.473 0 -38.049 -43.0542 0 -37.1845 -39.9078 0 -36.2347 -37.0111 0 -35.2201 -34.3432 0 -34.1579 -31.8851 0 -33.0626 -29.6194 0 -31.9465 -27.5299 0 -30.8196 -25.6022 0 -29.6907 -23.8226 0 -28.5669 -22.1791 0 -27.454 -20.6603 0 -26.357 -19.256 0 -25.2797 -17.9569 0 -24.2254 -16.7544 0 -23.1965 -15.6406 0 -22.1952 -14.6084 0 -21.2227 -13.6513 0 -20.2803 -12.7633 0 -19.3687 -11.9388 0 -18.4882 -11.1729 0 -17.6391 -10.4611 0 -16.8214 -9.79899 0 -16.0347 -9.18287 0 -15.2789 -8.60919 0 -14.5533 -8.0747 0 -13.8575 -7.57646 0 -13.1908 -7.11174 0 -12.5524 -6.67805 0 -11.9416 -6.27309 0 -11.3576 -5.89477 0 -10.7996 -5.54114 0 -10.2666 -5.21043 0 -9.75794 -4.901 0 -9.27262 -4.61133 0 -8.80983 -4.34004 0 -8.3687 -4.08584 0 -7.94839 -3.84755 0 -7.54806 -3.62407 0 -7.16691 -3.4144 0 -6.80413 -3.21759 0 -6.45894 -3.0328 0 -6.13059 -2.85921 0 -5.81835 -2.69608 0 -5.52149 -2.54274 0 -5.23934 -2.39853 0 -4.97123 -2.26287 0 -4.71652 -2.13521 0 -4.47459 -2.01504 0 -4.24485 -1.90188 0 -4.02672 -1.7953 0 -3.81967 -1.69487 0 -3.62316 -1.60022 0 -3.43669 -1.51098 0 -3.25979 -1.42683 0 -3.09199 -1.34745 0 -2.93285 -1.27255 0 -2.78196 -1.20186 0 -2.6389 -1.13513 0 -2.50331 -1.07211 0 -2.37481 -1.01259 0 -2.25305 -0.956342 0 -2.13771 -0.90319 0 -2.02848 -0.852942 0 -1.92504 -0.805426 0 -1.82712 -0.76048 0 -1.73445 -0.717952 0 -1.64676 -0.677699 0 -1.56382 -0.639589 0 -1.48539 -0.603491 0 -1.41126 -0.569288 0 -1.3412 -0.536867 0 -1.27504 -0.506124 0 -1.21257 -0.476957 0 -1.15362 -0.449271 0 -1.09803 -0.42298 0 -1.04564 -0.397997 0 -0.99629 -0.374244 0 -0.949849 -0.351643 0 -0.906181 -0.330124 0 -0.86516 -0.309619 0 -0.826669 -0.290064 0 -0.790599 -0.271397 0 -0.756843 -0.253558 0 -0.725306 -0.236496 0 -0.695896 -0.220154 0 -0.668529 -0.204483 0 -0.643125 -0.189433 0 -0.61961 -0.17496 0 -0.597917 -0.161018 0 -0.577982 -0.147564 0 -0.559747 -0.134557 0 -0.543159 -0.121959 0 -0.528172 -0.109731 0 -0.514741 -0.0978346 0 -0.502826 -0.0862327 0 -0.492393 -0.0748931 0 -0.483412 -0.0637773 0 -0.475855 -0.0528563 0 -0.469703 -0.0420955 0 -0.464937 -0.0314611 0 -0.461541 -0.0209215 0 -0.459509 -0.0104447 0 -0.458832 1.49477e-06 0 396.833 4.3679e-07 0 346.165 -128.964 0 260.692 -187.558 0 189.522 -204.03 0 136.392 -203.079 0 96.4909 -195.176 0 66.0665 -184.475 0 42.476 -172.8 0 23.9944 -161.026 0 9.39956 -149.57 0 -2.16569 -138.648 0 -11.3392 -128.354 0 -18.5974 -118.726 0 -24.3087 -109.765 0 -28.7603 -101.453 0 -32.1808 -93.7611 0 -34.7534 -86.6556 0 -36.627 -80.0994 0 -37.9233 -74.0552 0 -38.7426 -68.4862 0 -39.1681 -63.3571 0 -39.269 -58.634 0 -39.1033 -54.2852 0 -38.7195 -50.281 0 -38.1585 -46.5938 0 -37.4547 -43.1978 0 -36.6372 -40.0693 0 -35.7305 -37.1864 0 -34.7555 -34.529 0 -33.7295 -32.0785 0 -32.6675 -29.8179 0 -31.5819 -27.7315 0 -30.483 -25.805 0 -29.3798 -24.0254 0 -28.2796 -22.3805 0 -27.1884 -20.8594 0 -26.1112 -19.452 0 -25.0521 -18.1492 0 -24.0146 -16.9423 0 -23.0012 -15.8239 0 -22.014 -14.7867 0 -21.0547 -13.8243 0 -20.1243 -12.9308 0 -19.2238 -12.1008 0 -18.3535 -11.3293 0 -17.5138 -10.6118 0 -16.7048 -9.94408 0 -15.9262 -9.32239 0 -15.1777 -8.7432 0 -14.4591 -8.2033 0 -13.7696 -7.69975 0 -13.1087 -7.22985 0 -12.4758 -6.79111 0 -11.87 -6.38124 0 -11.2907 -5.99816 0 -10.737 -5.63992 0 -10.2081 -5.30474 0 -9.70313 -4.99101 0 -9.2213 -4.69719 0 -8.76174 -4.4219 0 -8.32362 -4.16386 0 -7.90611 -3.92188 0 -7.5084 -3.69486 0 -7.12968 -3.48179 0 -6.76917 -3.28173 0 -6.4261 -3.09382 0 -6.09974 -2.91725 0 -5.78934 -2.75127 0 -5.49422 -2.5952 0 -5.21369 -2.44839 0 -4.94709 -2.31025 0 -4.69379 -2.18022 0 -4.45319 -2.05779 0 -4.22469 -1.94247 0 -4.00773 -1.83383 0 -3.80177 -1.73144 0 -3.60629 -1.63493 0 -3.42078 -1.54392 0 -3.24478 -1.45807 0 -3.07783 -1.37709 0 -2.91949 -1.30066 0 -2.76934 -1.22851 0 -2.62699 -1.16039 0 -2.49206 -1.09605 0 -2.36418 -1.03527 0 -2.24301 -0.977836 0 -2.12822 -0.923548 0 -2.0195 -0.872222 0 -1.91655 -0.82368 0 -1.81909 -0.777759 0 -1.72685 -0.734302 0 -1.63957 -0.693168 0 -1.55701 -0.654218 0 -1.47894 -0.617322 0 -1.40514 -0.58236 0 -1.3354 -0.549217 0 -1.26953 -0.517786 0 -1.20735 -0.487963 0 -1.14866 -0.459656 0 -1.09332 -0.43277 0 -1.04116 -0.407222 0 -0.99203 -0.382928 0 -0.945794 -0.359812 0 -0.902319 -0.337803 0 -0.861478 -0.316828 0 -0.823156 -0.296824 0 -0.787244 -0.277727 0 -0.753636 -0.259479 0 -0.722236 -0.242021 0 -0.692953 -0.225302 0 -0.665705 -0.209267 0 -0.640411 -0.193868 0 -0.616998 -0.179059 0 -0.595398 -0.164792 0 -0.575549 -0.151024 0 -0.557393 -0.137714 0 -0.540877 -0.124822 0 -0.525954 -0.112307 0 -0.512581 -0.100132 0 -0.500717 -0.0882587 0 -0.490329 -0.0766525 0 -0.481386 -0.0652771 0 -0.473862 -0.0540983 0 -0.467736 -0.0430857 0 -0.46299 -0.0322004 0 -0.459609 -0.021414 0 -0.457586 -0.01069 0 -0.456911 -3.91155e-08 0 370.81 -2.8871e-08 0 329.581 -115.146 0 254.681 -173.61 0 188.303 -193.12 0 137.173 -194.879 0 98.1089 -188.922 0 68.026 -179.645 0 44.5423 -169.021 0 26.0514 -158.045 0 11.3886 -147.206 0 -0.274456 -136.769 0 -9.55915 -126.862 0 -16.9333 -117.546 0 -22.7599 -108.838 0 -27.3235 -100.733 0 -30.8507 -93.2117 0 -33.5241 -86.2465 0 -35.4922 -79.8062 0 -36.8765 -73.8579 0 -37.7776 -68.3682 0 -38.2788 -63.3045 0 -38.4497 -58.6353 0 -38.3484 -54.3309 0 -38.024 -50.3629 0 -37.5177 -46.705 0 -36.8641 -43.3325 0 -36.0928 -40.2227 0 -35.2286 -37.3544 0 -34.2925 -34.708 0 -33.3024 -32.2656 0 -32.2732 -30.0106 0 -31.2177 -27.9277 0 -30.1466 -26.003 0 -29.0688 -24.2237 0 -27.9919 -22.5779 0 -26.9222 -21.0548 0 -25.8648 -19.6446 0 -24.8239 -18.3383 0 -23.8031 -17.1274 0 -22.805 -16.0045 0 -21.832 -14.9624 0 -20.8857 -13.995 0 -19.9673 -13.0962 0 -19.0778 -12.2608 0 -18.2178 -11.4838 0 -17.3875 -10.7608 0 -16.5872 -10.0876 0 -15.8166 -9.46049 0 -15.0756 -8.87591 0 -14.3638 -8.3307 0 -13.6807 -7.82194 0 -13.0257 -7.34693 0 -12.3983 -6.90322 0 -11.7976 -6.48851 0 -11.223 -6.10072 0 -10.6736 -5.73793 0 -10.1487 -5.39835 0 -9.64756 -5.08036 0 -9.16923 -4.78244 0 -8.71294 -4.5032 0 -8.27785 -4.24135 0 -7.86318 -3.99572 0 -7.46811 -3.76519 0 -7.09185 -3.54875 0 -6.73364 -3.34547 0 -6.39272 -3.15447 0 -6.06835 -2.97494 0 -5.75983 -2.80614 0 -5.46646 -2.64736 0 -5.18757 -2.49797 0 -4.92251 -2.35736 0 -4.67065 -2.22498 0 -4.43139 -2.1003 0 -4.20415 -1.98284 0 -3.98838 -1.87216 0 -3.78353 -1.76783 0 -3.58908 -1.66946 0 -3.40456 -1.57668 0 -3.22948 -1.48916 0 -3.06339 -1.40657 0 -2.90585 -1.32862 0 -2.75647 -1.25502 0 -2.61483 -1.18552 0 -2.48057 -1.11987 0 -2.35333 -1.05785 0 -2.23275 -0.999224 0 -2.11852 -0.943809 0 -2.01033 -0.891409 0 -1.90788 -0.841846 0 -1.81088 -0.794956 0 -1.71908 -0.750577 0 -1.63221 -0.708565 0 -1.55004 -0.66878 0 -1.47234 -0.63109 0 -1.39888 -0.595372 0 -1.32947 -0.561511 0 -1.26391 -0.529395 0 -1.20201 -0.498922 0 -1.14359 -0.469993 0 -1.0885 -0.442517 0 -1.03658 -0.416405 0 -0.987675 -0.391573 0 -0.941648 -0.367946 0 -0.89837 -0.345447 0 -0.857714 -0.324005 0 -0.819564 -0.303555 0 -0.783813 -0.28403 0 -0.750355 -0.265372 0 -0.719095 -0.247523 0 -0.689944 -0.230427 0 -0.662817 -0.214031 0 -0.637635 -0.198284 0 -0.614326 -0.183141 0 -0.592822 -0.16855 0 -0.573061 -0.154471 0 -0.554985 -0.140859 0 -0.538542 -0.127673 0 -0.523685 -0.114873 0 -0.510371 -0.102421 0 -0.498559 -0.0902764 0 -0.488217 -0.0784052 0 -0.479313 -0.0667705 0 -0.471823 -0.0553368 0 -0.465724 -0.0440711 0 -0.460998 -0.0329368 0 -0.457632 -0.0219046 0 -0.455618 -0.0109353 0 -0.454946 -2.72878e-07 0 348.151 -1.45286e-07 0 314.073 -103.472 0 248.248 -160.902 0 186.577 -182.775 0 137.551 -186.912 0 99.4353 -182.775 0 69.7683 -174.856 0 46.4455 -165.253 0 27.9825 -155.058 0 13.2791 -144.828 0 1.53853 -134.872 0 -7.84196 -125.351 0 -15.3201 -116.346 0 -21.2527 -107.891 0 -25.9207 -99.9944 0 -29.5487 -92.644 0 -32.3181 -85.8201 0 -34.3766 -79.4968 0 -35.8457 -73.6454 0 -36.8258 -68.2361 0 -37.4004 -63.2389 0 -37.6393 -58.6247 0 -37.6009 -54.3654 0 -37.3346 -50.4345 0 -36.8817 -46.8067 0 -36.2775 -43.4586 0 -35.5515 -40.3681 0 -34.729 -37.515 0 -33.8313 -34.8803 0 -32.8765 -32.4465 0 -31.8797 -30.1976 0 -30.854 -28.1188 0 -29.8103 -26.1962 0 -28.7578 -24.4176 0 -27.7041 -22.7712 0 -26.6556 -21.2465 0 -25.6178 -19.8338 0 -24.595 -18.5242 0 -23.5907 -17.3096 0 -22.608 -16.1824 0 -21.6491 -15.1357 0 -20.7157 -14.1634 0 -19.8093 -13.2595 0 -18.9309 -12.4189 0 -18.0811 -11.6366 0 -17.2602 -10.9082 0 -16.4686 -10.2297 0 -15.7061 -9.5972 0 -14.9725 -9.00732 0 -14.2676 -8.45689 0 -13.5909 -7.943 0 -12.9418 -7.46298 0 -12.3198 -7.01437 0 -11.7243 -6.