<?xml version="1.0"?> 
<VTKFile type="StructuredGrid" version="0.1"> 
<StructuredGrid WholeExtent="0 127 0 127 0 0"> 
<Piece Extent="0 127 0 127 0 0"> 
<PointData>
<DataArray type="Float32" Name="|E|" format="ascii" NumberOfComponents="3"> 
1.03222e+06 112061 0 1.0241e+06 111076 0 1.01605e+06 110086 0 1.00808e+06 109092 0 1.00018e+06 108094 0 992352 107093 0 984602 106089 0 976927 105082 0 969327 104073 0 961802 103062 0 954352 102050 0 946977 101037 0 939677 100022 0 932452 99007.8 0 925302 97992.9 0 918226 96978 0 911226 95963.4 0 904300 94949.3 0 897449 93936 0 890673 92923.7 0 883970 91912.5 0 877342 90902.6 0 870789 89894.3 0 864309 88887.7 0 857902 87883 0 851570 86880.3 0 845310 85879.8 0 839124 84881.5 0 833011 83885.7 0 826970 82892.4 0 821002 81901.7 0 815106 80913.8 0 809282 79928.8 0 803530 78946.6 0 797850 77967.5 0 792241 76991.4 0 786702 76018.5 0 781235 75048.8 0 775838 74082.4 0 770512 73119.3 0 765255 72159.6 0 760068 71203.2 0 754951 70250.4 0 749903 69301 0 744923 68355.1 0 740013 67412.7 0 735170 66474 0 730396 65538.7 0 725690 64607.1 0 721051 63679.1 0 716479 62754.6 0 711974 61833.8 0 707536 60916.6 0 703165 60003 0 698860 59093 0 694620 58186.5 0 690446 57283.7 0 686338 56384.4 0 682294 55488.7 0 678315 54596.5 0 674401 53707.9 0 670551 52822.7 0 666766 51941 0 663043 51062.7 0 659385 50187.9 0 655789 49316.5 0 652257 48448.4 0 648787 47583.6 0 645380 46722.2 0 642035 45863.9 0 638752 45009 0 635531 44157.2 0 632371 43308.5 0 629273 42463 0 626236 41620.5 0 623259 40781 0 620343 39944.6 0 617488 39111 0 614693 38280.4 0 611957 37452.5 0 609282 36627.5 0 606666 35805.3 0 604109 34985.7 0 601612 34168.8 0 599173 33354.4 0 596794 32542.6 0 594472 31733.3 0 592210 30926.5 0 590005 30122 0 587859 29319.9 0 585770 28520.1 0 583739 27722.5 0 581766 26927 0 579850 26133.7 0 577992 25342.4 0 576190 24553.2 0 574445 23765.8 0 572758 22980.4 0 571126 22196.8 0 569552 21415 0 568034 20634.9 0 566572 19856.4 0 565166 19079.6 0 563816 18304.3 0 562523 17530.4 0 561285 16758 0 560103 15986.9 0 558976 15217.2 0 557905 14448.6 0 556890 13681.3 0 555929 12915 0 555025 12149.8 0 554175 11385.7 0 553380 10622.4 0 552641 9860.01 0 551957 9098.43 0 551327 8337.6 0 550753 7577.45 0 550233 6817.93 0 549768 6058.97 0 549358 5300.5 0 549003 4542.48 0 548702 3784.83 0 548456 3027.49 0 548265 2270.4 0 548128 1513.49 0 548046 756.715 0 548019 0 0 1.03192e+06 112941 0 1.0238e+06 111948 0 1.01576e+06 110950 0 1.00779e+06 109948 0 999890 108942 0 992068 107932 0 984321 106920 0 976649 105905 0 969052 104888 0 961529 103869 0 954082 102849 0 946710 101827 0 939413 100805 0 932190 99782.2 0 925043 98759.2 0 917971 97736.2 0 910973 96713.5 0 904050 95691.4 0 897202 94670 0 890428 93649.6 0 883729 92630.4 0 877104 91612.6 0 870553 90596.3 0 864075 89581.8 0 857672 88569.1 0 851342 87558.5 0 845085 86550.1 0 838902 85544 0 832791 84540.3 0 826753 83539.2 0 820788 82540.8 0 814894 81545.1 0 809073 80552.3 0 803324 79562.5 0 797646 78575.6 0 792039 77591.9 0 786504 76611.4 0 781039 75634.1 0 775645 74660.1 0 770320 73689.5 0 765066 72722.3 0 759882 71758.5 0 754767 70798.2 0 749721 69841.4 0 744744 68888.1 0 739836 67938.4 0 734996 66992.3 0 730224 66049.7 0 725519 65110.8 0 720883 64175.6 0 716313 63243.9 0 711811 62315.9 0 707375 61391.6 0 703005 60470.8 0 698702 59553.7 0 694465 58640.2 0 690293 57730.4 0 686186 56824.1 0 682145 55921.4 0 678168 55022.2 0 674256 54126.7 0 670408 53234.6 0 666624 52346 0 662903 51460.9 0 659246 50579.3 0 655653 49701 0 652122 48826.2 0 648654 47954.7 0 645248 47086.5 0 641905 46221.7 0 638624 45360 0 635404 44501.6 0 632246 43646.3 0 629149 42794.2 0 626113 41945.2 0 623138 41099.2 0 620224 40256.2 0 617370 39416.1 0 614576 38579 0 611842 37744.7 0 609168 36913.3 0 606553 36084.6 0 603998 35258.6 0 601501 34435.3 0 599064 33614.7 0 596686 32796.6 0 594366 31981 0 592104 31167.8 0 589901 30357.1 0 587755 29548.7 0 585668 28742.6 0 583638 27938.8 0 581665 27137.2 0 579750 26337.7 0 577893 25540.2 0 576092 24744.8 0 574348 23951.3 0 572661 23159.8 0 571031 22370.1 0 569457 21582.1 0 567940 20796 0 566479 20011.4 0 565074 19228.5 0 563725 18447.1 0 562431 17667.3 0 561194 16888.8 0 560013 16111.7 0 558887 15335.9 0 557816 14561.4 0 556801 13788.1 0 555841 13015.9 0 554937 12244.7 0 554088 11474.5 0 553294 10705.3 0 552555 9936.99 0 551871 9169.47 0 551241 8402.7 0 550667 7636.62 0 550148 6871.16 0 549683 6106.28 0 549273 5341.89 0 548918 4577.95 0 548618 3814.38 0 548372 3051.12 0 548181 2288.12 0 548044 1525.31 0 547962 762.624 0 547935 0 0 1.03162e+06 113821 0 1.02351e+06 112820 0 1.01546e+06 111814 0 1.0075e+06 110803 0 999603 109789 0 991784 108772 0 984039 107751 0 976370 106728 0 968775 105703 0 961256 104676 0 953811 103647 0 946442 102618 0 939148 101587 0 931928 100556 0 924784 99525.2 0 917714 98494.1 0 910720 97463.3 0 903799 96433.1 0 896954 95403.7 0 890183 94375.3 0 883487 93348 0 876864 92322.2 0 870316 91298 0 863841 90275.5 0 857441 89254.9 0 851113 88236.4 0 844859 87220.1 0 838679 86206.1 0 832571 85194.6 0 826535 84185.7 0 820573 83179.5 0 814682 82176.1 0 808863 81175.5 0 803117 80178 0 797441 79183.5 0 791837 78192.2 0 786304 77204 0 780842 76219.1 0 775450 75237.6 0 770128 74259.4 0 764877 73284.7 0 759695 72313.4 0 754582 71345.7 0 749539 70381.5 0 744564 69420.8 0 739658 68463.8 0 734820 67510.3 0 730050 66560.5 0 725348 65614.3 0 720714 64671.8 0 716147 63733 0 711646 62797.8 0 707213 61866.3 0 702845 60938.4 0 698544 60014.2 0 694308 59093.7 0 690139 58176.8 0 686034 57263.5 0 681994 56353.8 0 678020 55447.7 0 674109 54545.2 0 670263 53646.3 0 666481 52750.8 0 662762 51858.9 0 659107 50970.5 0 655515 50085.4 0 651986 49203.8 0 648520 48325.6 0 645116 47450.7 0 641774 46579.2 0 638495 45710.9 0 635277 44845.8 0 632120 43984 0 629025 43125.2 0 625990 42269.6 0 623017 41417.1 0 620104 40567.6 0 617251 39721.1 0 614459 38877.5 0 611726 38036.8 0 609053 37198.9 0 606440 36363.8 0 603885 35531.5 0 601390 34701.8 0 598954 33874.8 0 596577 33050.4 0 594258 32228.4 0 591998 31409 0 589795 30592 0 587651 29777.4 0 585564 28965.1 0 583535 28155 0 581564 27347.2 0 579650 26541.5 0 577793 25737.9 0 575993 24936.3 0 574251 24136.7 0 572564 23339.1 0 570935 22543.2 0 569362 21749.2 0 567845 20956.9 0 566385 20166.3 0 564980 19377.4 0 563632 18590 0 562340 17804 0 561103 17019.6 0 559922 16236.5 0 558796 15454.7 0 557727 14674.2 0 556712 13894.8 0 555753 13116.6 0 554849 12339.5 0 554000 11563.4 0 553206 10788.2 0 552468 10013.9 0 551784 9240.47 0 551155 8467.76 0 550581 7695.75 0 550062 6924.37 0 549598 6153.56 0 549188 5383.25 0 548833 4613.39 0 548533 3843.91 0 548287 3074.75 0 548096 2305.84 0 547959 1537.12 0 547878 768.529 0 547850 0 0 1.03132e+06 114701 0 1.02321e+06 113691 0 1.01517e+06 112677 0 1.00721e+06 111659 0 999314 110636 0 991498 109611 0 983757 108582 0 976090 107551 0 968498 106517 0 960982 105482 0 953540 104445 0 946173 103408 0 938882 102369 0 931665 101330 0 924524 100291 0 917457 99251.6 0 910465 98212.8 0 903548 97174.5 0 896705 96137 0 889937 95100.6 0 883243 94065.3 0 876624 93031.5 0 870078 91999.3 0 863606 90968.9 0 857208 89940.3 0 850884 88913.9 0 844633 87889.7 0 838455 86867.9 0 832349 85848.6 0 826317 84831.9 0 820357 83817.9 0 814469 82806.7 0 808653 81798.5 0 802909 80793.2 0 797236 79791.1 0 791634 78792.1 0 786104 77796.3 0 780644 76803.9 0 775255 75814.8 0 769936 74829.1 0 764686 73846.8 0 759507 72868.1 0 754396 71892.9 0 749355 70921.3 0 744383 69953.3 0 739479 68988.9 0 734644 68028.1 0 729876 67071 0 725177 66117.6 0 720544 65167.8 0 715979 64221.8 0 711481 63279.4 0 707049 62340.8 0 702684 61405.8 0 698385 60474.5 0 694151 59546.9 0 689984 58623 0 685881 57702.7 0 681843 56786.1 0 677870 55873 0 673962 54963.6 0 670118 54057.8 0 666337 53155.5 0 662621 52256.7 0 658967 51361.4 0 655377 50469.6 0 651850 49581.3 0 648385 48696.3 0 644983 47814.8 0 641643 46936.5 0 638365 46061.6 0 635148 45189.9 0 631993 44321.4 0 628899 43456.1 0 625867 42594 0 622894 41734.9 0 619983 40878.9 0 617132 40025.9 0 614340 39175.8 0 611609 38328.6 0 608938 37484.4 0 606325 36642.9 0 603773 35804.1 0 601279 34968.1 0 598844 34134.8 0 596468 33304 0 594150 32475.8 0 591890 31650.1 0 589689 30826.8 0 587546 30006 0 585460 29187.4 0 583433 28371.2 0 581462 27557.1 0 579549 26745.3 0 577693 25935.5 0 575894 25127.8 0 574152 24322 0 572467 23518.2 0 570838 22716.3 0 569266 21916.2 0 567750 21117.8 0 566290 20321.2 0 564887 19526.2 0 563539 18732.7 0 562247 17940.7 0 561011 17150.2 0 559831 16361.1 0 558706 15573.4 0 557636 14786.8 0 556622 14001.5 0 555664 13217.4 0 554760 12434.3 0 553912 11652.2 0 553118 10871.1 0 552380 10090.8 0 551697 9311.43 0 551068 8532.79 0 550494 7754.85 0 549975 6977.55 0 549511 6200.82 0 549102 5424.6 0 548747 4648.83 0 548447 3873.44 0 548201 3098.37 0 548010 2323.55 0 547874 1548.93 0 547792 774.432 0 547765 0 0 1.03103e+06 115580 0 1.02291e+06 114563 0 1.01488e+06 113540 0 1.00691e+06 112514 0 999025 111483 0 991212 110449 0 983473 109412 0 975809 108373 0 968220 107331 0 960706 106288 0 953268 105243 0 945904 104197 0 938615 103151 0 931401 102103 0 924263 101056 0 917199 100009 0 910210 98961.9 0 903295 97915.5 0 896455 96870 0 889690 95825.5 0 882999 94782.3 0 876382 93740.5 0 869840 92700.3 0 863371 91661.9 0 856975 90625.5 0 850654 89591.1 0 844405 88559.1 0 838230 87529.4 0 832127 86502.2 0 826097 85477.7 0 820140 84456 0 814255 83437 0 808441 82421.1 0 802700 81408.1 0 797030 80398.3 0 791431 79391.7 0 785903 78388.3 0 780445 77388.3 0 775059 76391.6 0 769742 75398.4 0 764495 74408.7 0 759318 73422.5 0 754210 72439.9 0 749171 71460.8 0 744201 70485.4 0 739300 69513.7 0 734467 68545.6 0 729701 67581.2 0 725004 66620.5 0 720374 65663.6 0 715811 64710.3 0 711315 63760.8 0 706885 62815 0 702522 61872.9 0 698225 60934.6 0 693994 59999.9 0 689828 59068.9 0 685727 58141.7 0 681692 57218.1 0 677721 56298.1 0 673814 55381.8 0 669971 54469 0 666193 53559.9 0 662478 52654.3 0 658826 51752.2 0 655238 50853.6 0 651713 49958.5 0 648250 49066.9 0 644849 48178.6 0 641511 47293.7 0 638234 46412.1 0 635019 45533.8 0 631866 44658.7 0 628773 43786.8 0 625742 42918.1 0 622771 42052.5 0 619861 41190 0 617011 40330.5 0 614222 39474 0 611492 38620.4 0 608821 37769.7 0 606210 36921.8 0 603659 36076.7 0 601166 35234.3 0 598733 34394.6 0 596357 33557.5 0 594041 32723 0 591783 31891.1 0 589582 31061.5 0 587440 30234.4 0 585356 29409.7 0 583329 28587.2 0 581359 27767 0 579447 26948.9 0 577592 26133 0 575794 25319.1 0 574053 24507.2 0 572369 23697.3 0 570741 22889.3 0 569169 22083.1 0 567654 21278.7 0 566195 20475.9 0 564792 19674.9 0 563445 18875.4 0 562154 18077.4 0 560918 17280.9 0 559738 16485.8 0 558614 15692 0 557545 14899.5 0 556532 14108.2 0 555574 13318 0 554670 12529 0 553822 11741 0 553030 10953.9 0 552292 10167.7 0 551609 9382.36 0 550980 8597.79 0 550407 7813.92 0 549888 7030.7 0 549424 6248.05 0 549015 5465.92 0 548660 4684.24 0 548360 3902.94 0 548115 3121.97 0 547924 2341.25 0 547788 1560.73 0 547706 780.331 0 547679 0 0 1.03072e+06 116459 0 1.02262e+06 115433 0 1.01458e+06 114403 0 1.00662e+06 113368 0 998736 112329 0 990925 111287 0 983189 110242 0 975528 109195 0 967941 108145 0 960430 107094 0 952994 106041 0 945633 104987 0 938347 103932 0 931137 102876 0 924001 101821 0 916940 100766 0 909953 99710.7 0 903042 98656.3 0 896205 97602.7 0 889442 96550.2 0 882754 95498.9 0 876140 94449.1 0 869600 93401 0 863134 92354.6 0 856742 91310.3 0 850423 90268 0 844177 89228.1 0 838004 88190.6 0 831904 87155.6 0 825877 86123.3 0 819922 85093.7 0 814040 84067.1 0 808229 83043.4 0 802490 82022.7 0 796823 81005.3 0 791226 79991 0 785701 78980 0 780246 77972.4 0 774862 76968.2 0 769547 75967.5 0 764303 74970.3 0 759128 73976.6 0 754023 72986.6 0 748986 72000.1 0 744019 71017.4 0 739120 70038.3 0 734289 69062.9 0 729526 68091.2 0 724831 67123.3 0 720203 66159.1 0 715642 65198.6 0 711148 64241.9 0 706721 63289 0 702360 62339.8 0 698065 61394.4 0 693835 60452.7 0 689671 59514.7 0 685573 58580.4 0 681539 57649.8 0 677570 56722.9 0 673665 55799.7 0 669825 54880.1 0 666048 53964.1 0 662335 53051.7 0 658685 52142.8 0 655098 51237.4 0 651575 50335.6 0 648113 49437.2 0 644714 48542.2 0 641378 47650.6 0 638103 46762.4 0 634889 45877.5 0 631737 44995.8 0 628647 44117.4 0 625617 43242.1 0 622648 42370 0 619739 41500.9 0 616890 40635 0 614102 39772 0 611373 38912 0 608704 38054.8 0 606095 37200.6 0 603544 36349.1 0 601053 35500.4 0 598621 34654.3 0 596247 33810.9 0 593931 32970.2 0 591674 32131.9 0 589475 31296.1 0 587334 30462.8 0 585250 29631.8 0 583224 28803.1 0 581256 27976.7 0 579345 27152.4 0 577491 26330.4 0 575694 25510.4 0 573953 24692.4 0 572270 23876.3 0 570643 23062.2 0 569072 22249.9 0 567557 21439.4 0 566099 20630.6 0 564697 19823.5 0 563350 19018 0 562060 18214 0 560825 17411.4 0 559646 16610.3 0 558522 15810.5 0 557454 15012 0 556441 14214.8 0 555483 13418.7 0 554580 12623.6 0 553733 11829.7 0 552940 11036.6 0 552203 10244.5 0 551520 9453.26 0 550892 8662.76 0 550319 7872.97 0 549800 7083.83 0 549337 6295.27 0 548928 5507.22 0 548573 4719.64 0 548273 3932.44 0 548028 3145.56 0 547837 2358.94 0 547701 1572.52 0 547619 786.228 0 547592 0 0 1.03042e+06 117338 0 1.02232e+06 116304 0 1.01429e+06 115265 0 1.00633e+06 114222 0 998445 113176 0 990637 112125 0 982903 111072 0 975245 110016 0 967662 108958 0 960153 107899 0 952720 106838 0 945362 105776 0 938079 104713 0 930871 103649 0 923738 102586 0 916679 101522 0 909696 100459 0 902787 99396.6 0 895953 98335 0 889194 97274.5 0 882508 96215.2 0 875897 95157.4 0 869360 94101.3 0 862896 93047 0 856507 91994.7 0 850191 90944.6 0 843948 89896.8 0 837778 88851.4 0 831681 87808.6 0 825656 86768.5 0 819704 85731.2 0 813824 84696.8 0 808016 83665.4 0 802280 82637.1 0 796615 81611.9 0 791021 80590 0 785498 79571.5 0 780046 78556.3 0 774664 77544.5 0 769352 76536.3 0 764110 75531.6 0 758938 74530.5 0 753835 73533 0 748801 72539.1 0 743835 71549 0 738939 70562.6 0 734110 69579.9 0 729349 68600.9 0 724656 67625.7 0 720031 66654.3 0 715472 65686.7 0 710980 64722.8 0 706555 63762.8 0 702196 62806.5 0 697903 61853.9 0 693676 60905.2 0 689514 59960.2 0 685417 59018.9 0 681386 58081.4 0 677418 57147.6 0 673516 56217.4 0 669677 55290.9 0 665902 54368.1 0 662191 53448.8 0 658543 52533.2 0 654958 51621.1 0 651436 50712.5 0 647976 49807.3 0 644579 48905.7 0 641244 48007.4 0 637971 47112.5 0 634759 46221 0 631608 45332.7 0 628519 44447.7 0 625491 43565.9 0 622523 42687.3 0 619616 41811.7 0 616769 40939.3 0 613982 40069.9 0 611254 39203.4 0 608587 38339.9 0 605978 37479.2 0 603429 36621.3 0 600939 35766.3 0 598508 34913.9 0 596135 34064.2 0 593821 33217.1 0 591565 32372.6 0 589367 31530.6 0 587227 30691 0 585144 29853.8 0 583119 29018.9 0 581152 28186.3 0 579242 27355.9 0 577389 26527.6 0 575592 25701.5 0 573853 24877.4 0 572170 24055.2 0 570544 23235 0 568974 22416.7 0 567460 21600.1 0 566002 20785.2 0 564601 19972.1 0 563255 19160.5 0 561965 18350.5 0 560731 17541.9 0 559552 16734.8 0 558429 15929 0 557361 15124.6 0 556349 14321.3 0 555392 13519.2 0 554489 12718.3 0 553642 11918.3 0 552850 11119.4 0 552113 10321.3 0 551430 9524.11 0 550803 8727.69 0 550230 7931.98 0 549712 7136.92 0 549248 6342.45 0 548840 5548.51 0 548485 4755.01 0 548186 3961.91 0 547940 3169.14 0 547750 2376.63 0 547614 1584.31 0 547532 792.122 0 547505 0 0 1.03012e+06 118216 0 1.02202e+06 117174 0 1.01399e+06 116127 0 1.00603e+06 115076 0 998153 114021 0 990348 112963 0 982617 111902 0 974962 110838 0 967381 109772 0 959876 108704 0 952445 107634 0 945090 106564 0 937810 105493 0 930604 104422 0 923474 103350 0 916419 102278 0 909438 101207 0 902532 100137 0 895701 99067 0 888944 97998.4 0 882261 96931.1 0 875653 95865.4 0 869119 94801.3 0 862658 93739.1 0 856271 92678.9 0 849958 91620.8 0 843717 90565.2 0 837550 89511.9 0 831456 88461.3 0 825434 87413.4 0 819485 86368.3 0 813607 85326.2 0 807802 84287.1 0 802068 83251.1 0 796406 82218.3 0 790815 81188.7 0 785294 80162.6 0 779844 79139.8 0 774465 78120.5 0 769156 77104.8 0 763916 76092.6 0 758746 75084 0 753646 74079.1 0 748614 73077.9 0 743651 72080.3 0 738757 71086.6 0 733930 70096.6 0 729172 69110.3 0 724481 68127.9 0 719858 67149.3 0 715301 66174.5 0 710812 65203.5 0 706389 64236.3 0 702032 63272.9 0 697741 62313.3 0 693516 61357.5 0 689356 60405.5 0 685261 59457.2 0 681231 58512.7 0 677266 57572 0 673365 56634.9 0 669529 55701.6 0 665756 54771.9 0 662046 53845.8 0 658400 52923.3 0 654817 52004.5 0 651296 51089.1 0 647838 50177.3 0 644443 49268.9 0 641109 48364 0 637838 47462.5 0 634628 46564.3 0 631479 45669.5 0 628391 44777.9 0 625364 43889.6 0 622398 43004.4 0 619492 42122.4 0 616646 41243.5 0 613861 40367.6 0 611135 39494.7 0 608468 38624.7 0 605861 37757.7 0 603314 36893.5 0 600825 36032 0 598395 35173.4 0 596023 34317.4 0 593710 33464 0 591455 32613.2 0 589258 31764.9 0 587119 30919.1 0 585038 30075.6 0 583014 29234.6 0 581047 28395.8 0 579138 27559.2 0 577286 26724.8 0 575490 25892.5 0 573752 25062.3 0 572070 24234.1 0 570444 23407.7 0 568875 22583.3 0 567362 21760.7 0 565905 20939.8 0 564504 20120.5 0 563159 19302.9 0 561870 18486.9 0 560636 17672.3 0 559458 16859.2 0 558336 16047.5 0 557268 15237 0 556256 14427.8 0 555300 13619.8 0 554398 12812.8 0 553551 12007 0 552759 11202.1 0 552022 10398.1 0 551340 9594.94 0 550713 8792.59 0 550141 7990.96 0 549623 7190 0 549159 6389.62 0 548751 5589.77 0 548397 4790.37 0 548097 3991.38 0 547852 3192.71 0 547661 2394.3 0 547525 1596.09 0 547444 798.012 0 547416 0 0 1.02982e+06 119094 0 1.02172e+06 118044 0 1.01369e+06 116989 0 1.00574e+06 115930 0 997860 114867 0 990058 113800 0 982330 112731 0 974677 111659 0 967099 110584 0 959597 109508 0 952169 108431 0 944817 107352 0 937539 106273 0 930337 105194 0 923209 104114 0 916157 103034 0 909179 101955 0 902276 100876 0 895447 99798.6 0 888693 98722 0 882014 97646.7 0 875408 96573 0 868877 95500.9 0 862419 94430.8 0 856035 93362.7 0 849724 92296.7 0 843486 91233.2 0 837322 90172.1 0 831230 89113.7 0 825211 88058 0 819264 87005.1 0 813390 85955.3 0 807587 84908.4 0 801856 83864.7 0 796196 82824.3 0 790607 81787.1 0 785090 80753.4 0 779642 79723 0 774266 78696.2 0 768959 77673 0 763722 76653.3 0 758554 75637.3 0 753456 74624.9 0 748427 73616.3 0 743466 72611.4 0 738574 71610.3 0 733750 70613 0 728994 69619.5 0 724305 68629.9 0 719684 67644 0 715130 66662 0 710643 65683.8 0 706222 64709.5 0 701867 63739 0 697578 62772.4 0 693355 61809.5 0 689197 60850.5 0 685104 59895.3 0 681077 58943.8 0 677113 57996.2 0 673214 57052.2 0 669379 56112 0 665608 55175.4 0 661901 54242.6 0 658256 53313.3 0 654675 52387.7 0 651156 51465.6 0 647700 50547 0 644306 49632 0 640974 48720.4 0 637704 47812.3 0 634495 46907.5 0 631348 46006.1 0 628262 45107.9 0 625237 44213 0 622272 43321.4 0 619367 42432.9 0 616523 41547.5 0 613739 40665.1 0 611014 39785.8 0 608349 38909.5 0 605744 38036 0 603197 37165.4 0 600709 36297.7 0 598280 35432.7 0 595910 34570.4 0 593598 33710.7 0 591344 32853.6 0 589148 31999.1 0 587010 31147.1 0 584930 30297.4 0 582907 29450.1 0 580942 28605.2 0 579033 27762.4 0 577182 26921.9 0 575388 26083.5 0 573650 25247.1 0 571969 24412.8 0 570344 23580.4 0 568776 22749.9 0 567263 21921.1 0 565807 21094.2 0 564407 20268.9 0 563063 19445.3 0 561774 18623.2 0 560541 17802.7 0 559364 16983.6 0 558241 16165.8 0 557175 15349.4 0 556163 14534.2 0 555207 13720.2 0 554306 12907.4 0 553459 12095.5 0 552668 11284.7 0 551931 10474.8 0 551250 9665.72 0 550623 8857.46 0 550050 8049.92 0 549533 7243.04 0 549070 6436.76 0 548661 5631.01 0 548307 4825.72 0 548008 4020.82 0 547763 3216.26 0 547573 2411.96 0 547437 1607.87 0 547355 803.9 0 547328 0 0 1.02951e+06 119972 0 1.02142e+06 118914 0 1.01339e+06 117851 0 1.00544e+06 116783 0 997567 115712 0 989767 114637 0 982042 113559 0 974392 112479 0 966817 111397 0 959317 110313 0 951892 109227 0 944543 108140 0 937268 107053 0 930068 105965 0 922944 104877 0 915894 103790 0 908919 102702 0 902019 101616 0 895193 100530 0 888442 99445.3 0 881765 98362 0 875162 97280.3 0 868634 96200.3 0 862179 95122.2 0 855797 94046.1 0 849489 92972.3 0 843255 91900.9 0 837093 90832 0 831004 89765.7 0 824988 88702.3 0 819043 87641.6 0 813171 86584 0 807371 85529.5 0 801643 84478.1 0 795986 83430 0 790400 82385.3 0 784884 81343.9 0 779440 80306 0 774065 79271.6 0 768761 78240.9 0 763526 77213.7 0 758361 76190.2 0 753266 75170.5 0 748239 74154.5 0 743280 73142.2 0 738391 72133.8 0 733569 71129.2 0 728815 70128.4 0 724129 69131.5 0 719510 68138.5 0 714958 67149.3 0 710473 66164 0 706054 65182.5 0 701701 64204.9 0 697414 63231.2 0 693193 62261.4 0 689037 61295.3 0 684947 60333.1 0 680921 59374.7 0 676960 58420.1 0 673062 57469.3 0 669229 56522.2 0 665460 55578.8 0 661754 54639.1 0 658112 53703.1 0 654532 52770.7 0 651015 51841.9 0 647561 50916.6 0 644168 49994.9 0 640838 49076.7 0 637570 48161.9 0 634363 47250.5 0 631217 46342.5 0 628132 45437.8 0 625108 44536.4 0 622145 43638.2 0 619242 42743.2 0 616399 41851.3 0 613616 40962.5 0 610893 40076.8 0 608229 39194 0 605625 38314.2 0 603080 37437.3 0 600593 36563.2 0 598166 35691.9 0 595796 34823.2 0 593486 33957.3 0 591233 33094 0 589038 32233.2 0 586901 31374.9 0 584822 30519.1 0 582800 29665.6 0 580835 28814.5 0 578928 27965.6 0 577078 27118.9 0 575284 26274.3 0 573547 25431.9 0 571867 24591.4 0 570243 23752.9 0 568675 22916.3 0 567164 22081.6 0 565709 21248.6 0 564309 20417.3 0 562965 19587.6 0 561677 18759.5 0 560445 17933 0 559268 17107.9 0 558147 16284.2 0 557080 15461.8 0 556069 14640.6 0 555113 13820.7 0 554213 13001.8 0 553367 12184.1 0 552576 11367.3 0 551840 10551.4 0 551158 9736.47 0 550532 8922.29 0 549960 8108.84 0 549442 7296.06 0 548980 6483.87 0 548571 5672.22 0 548218 4861.04 0 547918 4050.26 0 547673 3239.8 0 547483 2429.62 0 547347 1619.64 0 547265 809.784 0 547238 0 0 1.02921e+06 120849 0 1.02111e+06 119783 0 1.01309e+06 118712 0 1.00514e+06 117636 0 997273 116557 0 989475 115474 0 981753 114388 0 974106 113299 0 966534 112209 0 959037 111117 0 951615 110023 0 944268 108928 0 936996 107833 0 929799 106737 0 922677 105641 0 915631 104545 0 908658 103449 0 901761 102355 0 894938 101261 0 888190 100168 0 881516 99077 0 874916 97987.2 0 868390 96899.3 0 861938 95813.2 0 855559 94729.3 0 849254 93647.6 0 843022 92568.3 0 836863 91491.6 0 830777 90417.5 0 824763 89346.2 0 818822 88277.8 0 812952 87212.5 0 807155 86150.2 0 801429 85091.2 0 795774 84035.4 0 790191 82983.1 0 784678 81934.1 0 779236 80888.6 0 773864 79846.8 0 768562 78808.5 0 763330 77773.9 0 758168 76742.9 0 753074 75715.8 0 748050 74692.4 0 743094 73672.8 0 738206 72657 0 733387 71645.1 0 728635 70637.1 0 723951 69632.9 0 719335 68632.7 0 714785 67636.3 0 710302 66643.9 0 705885 65655.3 0 701535 64670.6 0 697250 63689.8 0 693031 62712.9 0 688877 61739.9 0 684788 60770.7 0 680764 59805.4 0 676805 58843.9 0 672910 57886.1 0 669079 56932.2 0 665311 55981.9 0 661607 55035.4 0 657966 54092.6 0 654389 53153.5 0 650873 52217.9 0 647421 51286 0 644030 50357.6 0 640701 49432.7 0 637435 48511.3 0 634229 47593.3 0 631085 46678.7 0 628002 45767.4 0 624979 44859.5 0 622018 43954.8 0 619116 43053.3 0 616275 42155 0 613493 41259.8 0 610771 40367.6 0 608109 39478.5 0 605506 38592.3 0 602962 37709 0 600477 36828.5 0 598050 35950.9 0 595682 35076 0 593372 34203.8 0 591121 33334.2 0 588927 32467.2 0 586791 31602.7 0 584713 30740.6 0 582692 29881 0 580729 29023.6 0 578822 28168.6 0 576973 27315.8 0 575180 26465.1 0 573444 25616.5 0 571764 24770 0 570141 23925.4 0 568575 23082.7 0 567064 22241.9 0 565609 21402.8 0 564210 20565.5 0 562867 19729.8 0 561580 18895.8 0 560348 18063.2 0 559172 17232.1 0 558051 16402.4 0 556985 15574 0 555975 14746.9 0 555019 13921 0 554119 13096.2 0 553274 12272.5 0 552483 11449.8 0 551747 10628.1 0 551066 9807.18 0 550440 8987.09 0 549868 8167.73 0 549351 7349.05 0 548889 6530.97 0 548480 5713.42 0 548127 4896.35 0 547828 4079.67 0 547583 3263.34 0 547393 2447.27 0 547257 1631.4 0 547175 815.666 0 547148 0 0 1.0289e+06 121727 0 1.02081e+06 120652 0 1.01279e+06 119573 0 1.00485e+06 118489 0 996977 117401 0 989183 116310 0 981463 115216 0 973819 114119 0 966249 113021 0 958755 111920 0 951336 110818 0 943992 109715 0 936723 108612 0 929529 107508 0 922410 106404 0 915366 105300 0 908397 104196 0 901502 103093 0 894682 101992 0 887937 100891 0 881266 99791.5 0 874668 98693.8 0 868145 97597.9 0 861696 96503.9 0 855320 95412.1 0 849018 94322.5 0 842788 93235.4 0 836632 92150.8 0 830549 91068.9 0 824538 89989.8 0 818599 88913.7 0 812732 87840.6 0 806937 86770.7 0 801214 85704 0 795562 84640.6 0 789981 83580.6 0 784471 82524 0 779031 81471 0 773662 80421.6 0 768363 79375.8 0 763133 78333.7 0 757973 77295.3 0 752882 76260.8 0 747860 75230 0 742906 74203.1 0 738021 73180 0 733204 72160.8 0 728455 71145.5 0 723773 70134.1 0 719159 69126.6 0 714611 68123.1 0 710130 67123.5 0 705716 66127.8 0 701367 65136.1 0 697085 64148.2 0 692868 63164.3 0 688716 62184.3 0 684629 61208.1 0 680607 60235.8 0 676650 59267.4 0 672757 58302.8 0 668927 57341.9 0 665162 56384.9 0 661459 55431.6 0 657820 54482 0 654244 53536.1 0 650731 52593.8 0 647280 51655.2 0 643891 50720.1 0 640564 49788.5 0 637299 48860.5 0 634095 47935.9 0 630952 47014.8 0 627871 46097 0 624850 45182.5 0 621889 44271.3 0 618989 43363.3 0 616149 42458.5 0 613369 41556.9 0 610649 40658.3 0 607988 39762.7 0 605386 38870.2 0 602843 37980.5 0 600359 37093.8 0 597934 36209.8 0 595567 35328.6 0 593258 34450.1 0 591008 33574.3 0 588815 32701 0 586681 31830.3 0 584603 30962 0 582584 30096.2 0 580621 29232.7 0 578716 28371.5 0 576867 27512.5 0 575075 26655.7 0 573340 25801.1 0 571661 24948.4 0 570039 24097.8 0 568473 23249 0 566963 22402.1 0 565509 21557.1 0 564111 20713.7 0 562769 19872 0 561482 19031.9 0 560251 18193.4 0 559075 17356.3 0 557955 16520.6 0 556890 15686.3 0 555880 14853.2 0 554925 14021.3 0 554025 13190.6 0 553180 12361 0 552390 11532.4 0 551654 10704.7 0 550973 9877.86 0 550347 9051.86 0 549776 8226.6 0 549259 7402.01 0 548797 6578.03 0 548389 5754.6 0 548036 4931.63 0 547737 4109.07 0 547492 3286.85 0 547302 2464.9 0 547166 1643.16 0 547085 821.544 0 547057 0 0 1.0286e+06 122603 0 1.02051e+06 121521 0 1.01249e+06 120433 0 1.00455e+06 119341 0 996681 118245 0 988889 117146 0 981173 116044 0 973531 114939 0 965964 113832 0 958473 112723 0 951056 111613 0 943715 110502 0 936449 109390 0 929258 108278 0 922142 107166 0 915101 106054 0 908134 104943 0 901243 103832 0 894426 102722 0 887683 101613 0 881014 100506 0 874420 99400.1 0 867900 98296.2 0 861453 97194.3 0 855080 96094.6 0 848780 94997.1 0 842554 93902.1 0 836400 92809.7 0 830320 91720 0 824311 90633.1 0 818375 89549.3 0 812511 88468.4 0 806719 87390.8 0 800998 86316.4 0 795349 85245.4 0 789771 84177.8 0 784263 83113.6 0 778826 82053.1 0 773459 80996.1 0 768163 79942.8 0 762935 78893.3 0 757778 77847.5 0 752689 76805.5 0 747669 75767.3 0 742718 74733 0 737835 73702.6 0 733021 72676.2 0 728274 71653.6 0 723594 70635 0 718982 69620.3 0 714436 68609.6 0 709958 67602.9 0 705545 66600.1 0 701199 65601.2 0 696919 64606.4 0 692704 63615.4 0 688554 62628.4 0 684469 61645.3 0 680449 60666 0 676494 59690.7 0 672602 58719.2 0 668775 57751.5 0 665011 56787.6 0 661311 55827.5 0 657674 54871.1 0 654099 53918.5 0 650588 52969.5 0 647138 52024.1 0 643751 51082.4 0 640426 50144.2 0 637162 49209.6 0 633960 48278.4 0 630819 47350.6 0 627739 46426.3 0 624719 45505.3 0 621761 44587.6 0 618862 43673.1 0 616023 42761.9 0 613245 41853.8 0 610525 40948.8 0 607866 40046.9 0 605265 39147.9 0 602724 38252 0 600241 37358.8 0 597817 36468.6 0 595451 35581.1 0 593144 34696.3 0 590895 33814.2 0 588703 32934.7 0 586569 32057.8 0 584493 31183.3 0 582474 30311.3 0 580513 29441.7 0 578608 28574.3 0 576761 27709.2 0 574970 26846.3 0 573235 25985.5 0 571558 25126.8 0 569936 24270 0 568371 23415.2 0 566862 22562.3 0 565408 21711.2 0 564011 20861.8 0 562669 20014.1 0 561383 19168 0 560153 18323.4 0 558978 17480.4 0 557858 16638.7 0 556793 15798.4 0 555784 14959.4 0 554829 14121.6 0 553930 13284.9 0 553085 12449.4 0 552295 11614.8 0 551560 10781.2 0 550880 9948.5 0 550254 9116.59 0 549683 8285.43 0 549167 7454.95 0 548705 6625.08 0 548297 5795.75 0 547944 4966.9 0 547645 4138.46 0 547400 3310.36 0 547210 2482.53 0 547075 1654.91 0 546993 827.42 0 546966 0 0 1.02829e+06 123480 0 1.0202e+06 122389 0 1.01219e+06 121293 0 1.00425e+06 120193 0 996384 119089 0 988595 117981 0 980881 116871 0 973242 115758 0 965678 114643 0 958190 113526 0 950776 112408 0 943438 111289 0 936174 110169 0 928986 109049 0 921873 107928 0 914835 106808 0 907871 105689 0 900982 104570 0 894168 103452 0 887428 102335 0 880762 101220 0 874171 100106 0 867653 98994.2 0 861209 97884.4 0 854839 96776.7 0 848542 95671.4 0 842319 94568.5 0 836168 93468.2 0 830090 92370.7 0 824084 91276.1 0 818151 90184.5 0 812290 89096 0 806500 88010.6 0 800782 86928.6 0 795135 85849.9 0 789560 84774.6 0 784055 83702.9 0 778620 82634.8 0 773256 81570.3 0 767961 80509.6 0 762737 79452.5 0 757581 78399.3 0 752495 77349.9 0 747478 76304.4 0 742529 75262.8 0 737649 74225 0 732836 73191.3 0 728092 72161.5 0 723414 71135.6 0 718804 70113.8 0 714261 69095.9 0 709785 68082 0 705374 67072.1 0 701030 66066.2 0 696752 65064.2 0 692539 64066.3 0 688391 63072.3 0 684308 62082.2 0 680290 61096 0 676337 60113.7 0 672447 59135.4 0 668622 58160.8 0 664860 57190.1 0 661162 56223.2 0 657526 55260.1 0 653954 54300.7 0 650444 53345 0 646996 52392.9 0 643611 51444.5 0 640287 50499.7 0 637025 49558.4 0 633824 48620.6 0 630685 47686.3 0 627606 46755.4 0 624588 45827.9 0 621631 44903.7 0 618734 43982.8 0 615897 43065.1 0 613119 42150.6 0 610401 41239.2 0 607743 40330.9 0 605144 39425.6 0 602604 38523.2 0 600122 37623.8 0 597699 36727.2 0 595335 35833.4 0 593029 34942.4 0 590780 34054.1 0 588590 33168.3 0 586457 32285.2 0 584382 31404.5 0 582364 30526.3 0 580404 29650.5 0 578500 28777 0 576653 27905.8 0 574863 27036.8 0 573130 26169.9 0 571453 25305 0 569832 24442.2 0 568268 23581.4 0 566760 22722.4 0 565307 21865.2 0 563910 21009.8 0 562569 20156.1 0 561284 19304 0 560054 18453.5 0 558880 17604.4 0 557760 