<?xml version="1.0"?> 
<VTKFile type="StructuredGrid" version="0.1"> 
<StructuredGrid WholeExtent="0 127 0 127 0 0"> 
<Piece Extent="0 127 0 127 0 0"> 
<PointData>
<DataArray type="Float32" Name="|E|" format="ascii" NumberOfComponents="3"> 
-1.84093e+06 0 0 -1.84096e+06 6202.15 0 -1.84104e+06 12404.7 0 -1.84118e+06 18608.1 0 -1.84137e+06 24812.7 0 -1.84161e+06 31019 0 -1.84191e+06 37227.4 0 -1.84227e+06 43438.3 0 -1.84267e+06 49652 0 -1.84314e+06 55869.1 0 -1.84366e+06 62089.9 0 -1.84423e+06 68314.9 0 -1.84485e+06 74544.5 0 -1.84554e+06 80779 0 -1.84627e+06 87019 0 -1.84706e+06 93264.8 0 -1.84791e+06 99516.9 0 -1.84881e+06 105776 0 -1.84976e+06 112042 0 -1.85077e+06 118315 0 -1.85183e+06 124597 0 -1.85295e+06 130887 0 -1.85412e+06 137185 0 -1.85534e+06 143493 0 -1.85662e+06 149811 0 -1.85796e+06 156139 0 -1.85935e+06 162478 0 -1.86079e+06 168828 0 -1.86229e+06 175189 0 -1.86384e+06 181562 0 -1.86545e+06 187948 0 -1.86711e+06 194347 0 -1.86882e+06 200759 0 -1.87059e+06 207185 0 -1.87241e+06 213625 0 -1.87429e+06 220080 0 -1.87622e+06 226551 0 -1.87821e+06 233037 0 -1.88025e+06 239539 0 -1.88234e+06 246058 0 -1.88449e+06 252595 0 -1.88669e+06 259149 0 -1.88895e+06 265722 0 -1.89126e+06 272313 0 -1.89362e+06 278924 0 -1.89604e+06 285554 0 -1.89851e+06 292205 0 -1.90104e+06 298877 0 -1.90362e+06 305571 0 -1.90625e+06 312286 0 -1.90893e+06 319024 0 -1.91167e+06 325785 0 -1.91447e+06 332570 0 -1.91731e+06 339379 0 -1.92021e+06 346213 0 -1.92317e+06 353073 0 -1.92617e+06 359959 0 -1.92923e+06 366871 0 -1.93234e+06 373811 0 -1.93551e+06 380779 0 -1.93872e+06 387775 0 -1.94199e+06 394801 0 -1.94531e+06 401857 0 -1.94869e+06 408943 0 -1.95211e+06 416061 0 -1.95559e+06 423210 0 -1.95912e+06 430393 0 -1.9627e+06 437608 0 -1.96634e+06 444858 0 -1.97002e+06 452143 0 -1.97376e+06 459463 0 -1.97754e+06 466820 0 -1.98138e+06 474214 0 -1.98527e+06 481645 0 -1.98921e+06 489116 0 -1.99319e+06 496626 0 -1.99723e+06 504177 0 -2.00132e+06 511769 0 -2.00545e+06 519403 0 -2.00964e+06 527081 0 -2.01387e+06 534802 0 -2.01815e+06 542568 0 -2.02248e+06 550380 0 -2.02686e+06 558239 0 -2.03128e+06 566146 0 -2.03575e+06 574101 0 -2.04027e+06 582107 0 -2.04483e+06 590163 0 -2.04944e+06 598271 0 -2.05409e+06 606432 0 -2.05879e+06 614648 0 -2.06352e+06 622919 0 -2.06831e+06 631246 0 -2.07313e+06 639631 0 -2.078e+06 648075 0 -2.08291e+06 656579 0 -2.08785e+06 665144 0 -2.09284e+06 673773 0 -2.09786e+06 682465 0 -2.10293e+06 691223 0 -2.10803e+06 700048 0 -2.11316e+06 708942 0 -2.11833e+06 717905 0 -2.12354e+06 726939 0 -2.12877e+06 736047 0 -2.13404e+06 745229 0 -2.13934e+06 754487 0 -2.14467e+06 763823 0 -2.15002e+06 773238 0 -2.1554e+06 782735 0 -2.16081e+06 792315 0 -2.16624e+06 801980 0 -2.17169e+06 811732 0 -2.17715e+06 821572 0 -2.18264e+06 831503 0 -2.18814e+06 841527 0 -2.19365e+06 851646 0 -2.19918e+06 861861 0 -2.20471e+06 872176 0 -2.21025e+06 882592 0 -2.21579e+06 893112 0 -2.22133e+06 903737 0 -2.22687e+06 914471 0 -2.2324e+06 925315 0 -2.23793e+06 936273 0 -2.24344e+06 947346 0 -2.24893e+06 958537 0 -2.25441e+06 969849 0 -1.83969e+06 0 0 -1.83972e+06 6213.04 0 -1.8398e+06 12426.5 0 -1.83993e+06 18640.8 0 -1.84012e+06 24856.3 0 -1.84037e+06 31073.5 0 -1.84067e+06 37292.8 0 -1.84102e+06 43514.5 0 -1.84143e+06 49739.2 0 -1.84189e+06 55967.1 0 -1.84241e+06 62198.8 0 -1.84298e+06 68434.7 0 -1.84361e+06 74675.2 0 -1.84429e+06 80920.6 0 -1.84502e+06 87171.5 0 -1.84581e+06 93428.2 0 -1.84665e+06 99691.2 0 -1.84755e+06 105961 0 -1.8485e+06 112238 0 -1.84951e+06 118522 0 -1.85057e+06 124814 0 -1.85169e+06 131115 0 -1.85286e+06 137425 0 -1.85408e+06 143744 0 -1.85536e+06 150073 0 -1.85669e+06 156411 0 -1.85808e+06 162761 0 -1.85952e+06 169122 0 -1.86101e+06 175494 0 -1.86256e+06 181878 0 -1.86417e+06 188274 0 -1.86582e+06 194684 0 -1.86754e+06 201107 0 -1.8693e+06 207544 0 -1.87112e+06 213995 0 -1.873e+06 220461 0 -1.87493e+06 226942 0 -1.87691e+06 233439 0 -1.87895e+06 239952 0 -1.88104e+06 246482 0 -1.88318e+06 253029 0 -1.88538e+06 259595 0 -1.88763e+06 266178 0 -1.88994e+06 272780 0 -1.8923e+06 279402 0 -1.89471e+06 286043 0 -1.89718e+06 292705 0 -1.8997e+06 299387 0 -1.90227e+06 306091 0 -1.9049e+06 312817 0 -1.90758e+06 319566 0 -1.91032e+06 326338 0 -1.91311e+06 333134 0 -1.91595e+06 339953 0 -1.91884e+06 346798 0 -1.92179e+06 353668 0 -1.92479e+06 360565 0 -1.92784e+06 367488 0 -1.93095e+06 374438 0 -1.93411e+06 381417 0 -1.93732e+06 388424 0 -1.94058e+06 395460 0 -1.9439e+06 402526 0 -1.94727e+06 409623 0 -1.95069e+06 416751 0 -1.95416e+06 423910 0 -1.95768e+06 431103 0 -1.96126e+06 438329 0 -1.96488e+06 445589 0 -1.96856e+06 452884 0 -1.97229e+06 460214 0 -1.97607e+06 467581 0 -1.9799e+06 474985 0 -1.98378e+06 482427 0 -1.98771e+06 489908 0 -1.99169e+06 497428 0 -1.99572e+06 504989 0 -1.99979e+06 512591 0 -2.00392e+06 520235 0 -2.0081e+06 527922 0 -2.01232e+06 535653 0 -2.01659e+06 543428 0 -2.02091e+06 551250 0 -2.02528e+06 559118 0 -2.0297e+06 567034 0 -2.03416e+06 574999 0 -2.03866e+06 583013 0 -2.04321e+06 591079 0 -2.04781e+06 599196 0 -2.05245e+06 607366 0 -2.05714e+06 615590 0 -2.06186e+06 623870 0 -2.06664e+06 632205 0 -2.07145e+06 640599 0 -2.0763e+06 649051 0 -2.0812e+06 657563 0 -2.08613e+06 666137 0 -2.09111e+06 674773 0 -2.09612e+06 683473 0 -2.10117e+06 692238 0 -2.10625e+06 701071 0 -2.11138e+06 709971 0 -2.11653e+06 718941 0 -2.12172e+06 727982 0 -2.12695e+06 737096 0 -2.1322e+06 746284 0 -2.13748e+06 755548 0 -2.14279e+06 764890 0 -2.14813e+06 774310 0 -2.1535e+06 783812 0 -2.15888e+06 793397 0 -2.16429e+06 803066 0 -2.16973e+06 812822 0 -2.17518e+06 822666 0 -2.18064e+06 832600 0 -2.18613e+06 842627 0 -2.19162e+06 852748 0 -2.19712e+06 862965 0 -2.20264e+06 873281 0 -2.20816e+06 883698 0 -2.21368e+06 894218 0 -2.2192e+06 904843 0 -2.22471e+06 915576 0 -2.23022e+06 926419 0 -2.23573e+06 937374 0 -2.24121e+06 948444 0 -2.24668e+06 959631 0 -2.25213e+06 970938 0 -1.83845e+06 0 0 -1.83847e+06 6223.92 0 -1.83855e+06 12448.3 0 -1.83869e+06 18673.4 0 -1.83888e+06 24899.8 0 -1.83912e+06 31127.9 0 -1.83942e+06 37358 0 -1.83978e+06 43590.6 0 -1.84018e+06 49826.2 0 -1.84065e+06 56065 0 -1.84116e+06 62307.6 0 -1.84173e+06 68554.3 0 -1.84236e+06 74805.7 0 -1.84304e+06 81062 0 -1.84377e+06 87323.7 0 -1.84456e+06 93591.3 0 -1.8454e+06 99865.2 0 -1.8463e+06 106146 0 -1.84725e+06 112433 0 -1.84825e+06 118729 0 -1.84931e+06 125032 0 -1.85042e+06 131344 0 -1.85159e+06 137664 0 -1.85281e+06 143994 0 -1.85409e+06 150333 0 -1.85542e+06 156683 0 -1.85681e+06 163044 0 -1.85824e+06 169415 0 -1.85974e+06 175798 0 -1.86128e+06 182193 0 -1.86288e+06 188600 0 -1.86454e+06 195021 0 -1.86625e+06 201454 0 -1.86801e+06 207902 0 -1.86983e+06 214364 0 -1.8717e+06 220841 0 -1.87363e+06 227333 0 -1.87561e+06 233841 0 -1.87764e+06 240365 0 -1.87973e+06 246905 0 -1.88187e+06 253463 0 -1.88406e+06 260039 0 -1.88631e+06 266633 0 -1.88861e+06 273246 0 -1.89097e+06 279878 0 -1.89338e+06 286531 0 -1.89584e+06 293203 0 -1.89836e+06 299896 0 -1.90093e+06 306611 0 -1.90355e+06 313348 0 -1.90623e+06 320107 0 -1.90896e+06 326890 0 -1.91174e+06 333696 0 -1.91458e+06 340526 0 -1.91747e+06 347382 0 -1.92041e+06 354263 0 -1.92341e+06 361170 0 -1.92645e+06 368103 0 -1.92956e+06 375064 0 -1.93271e+06 382053 0 -1.93591e+06 389070 0 -1.93917e+06 396117 0 -1.94248e+06 403194 0 -1.94584e+06 410301 0 -1.94926e+06 417439 0 -1.95272e+06 424609 0 -1.95624e+06 431812 0 -1.95981e+06 439048 0 -1.96343e+06 446319 0 -1.9671e+06 453624 0 -1.97082e+06 460964 0 -1.97459e+06 468341 0 -1.97841e+06 475756 0 -1.98228e+06 483207 0 -1.98621e+06 490698 0 -1.99018e+06 498228 0 -1.9942e+06 505799 0 -1.99827e+06 513410 0 -2.00239e+06 521064 0 -2.00656e+06 528761 0 -2.01077e+06 536501 0 -2.01503e+06 544287 0 -2.01934e+06 552118 0 -2.0237e+06 559995 0 -2.02811e+06 567921 0 -2.03256e+06 575895 0 -2.03705e+06 583918 0 -2.04159e+06 591993 0 -2.04618e+06 600119 0 -2.05081e+06 608298 0 -2.05548e+06 616530 0 -2.0602e+06 624818 0 -2.06496e+06 633163 0 -2.06976e+06 641564 0 -2.07461e+06 650025 0 -2.07949e+06 658545 0 -2.08441e+06 667126 0 -2.08937e+06 675770 0 -2.09437e+06 684478 0 -2.09941e+06 693251 0 -2.10448e+06 702090 0 -2.10959e+06 710997 0 -2.11473e+06 719974 0 -2.11991e+06 729022 0 -2.12511e+06 738142 0 -2.13035e+06 747336 0 -2.13562e+06 756606 0 -2.14092e+06 765953 0 -2.14624e+06 775379 0 -2.15159e+06 784886 0 -2.15696e+06 794475 0 -2.16235e+06 804149 0 -2.16777e+06 813908 0 -2.1732e+06 823756 0 -2.17865e+06 833693 0 -2.18411e+06 843722 0 -2.18959e+06 853846 0 -2.19507e+06 864065 0 -2.20056e+06 874382 0 -2.20606e+06 884800 0 -2.21156e+06 895320 0 -2.21706e+06 905945 0 -2.22256e+06 916677 0 -2.22804e+06 927518 0 -2.23352e+06 938471 0 -2.23899e+06 949538 0 -2.24443e+06 960721 0 -2.24986e+06 972023 0 -1.8372e+06 0 0 -1.83723e+06 6234.78 0 -1.83731e+06 12470 0 -1.83744e+06 18706 0 -1.83763e+06 24943.3 0 -1.83788e+06 31182.2 0 -1.83818e+06 37423.2 0 -1.83853e+06 43666.7 0 -1.83894e+06 49913 0 -1.8394e+06 56162.7 0 -1.83991e+06 62416.2 0 -1.84048e+06 68673.8 0 -1.84111e+06 74936 0 -1.84178e+06 81203.1 0 -1.84252e+06 87475.7 0 -1.8433e+06 93754.2 0 -1.84414e+06 100039 0 -1.84504e+06 106330 0 -1.84599e+06 112629 0 -1.84699e+06 118935 0 -1.84805e+06 125249 0 -1.84916e+06 131571 0 -1.85033e+06 137903 0 -1.85155e+06 144243 0 -1.85282e+06 150594 0 -1.85415e+06 156954 0 -1.85553e+06 163326 0 -1.85697e+06 169708 0 -1.85846e+06 176102 0 -1.86e+06 182508 0 -1.8616e+06 188926 0 -1.86325e+06 195357 0 -1.86496e+06 201801 0 -1.86672e+06 208260 0 -1.86854e+06 214733 0 -1.8704e+06 221220 0 -1.87233e+06 227723 0 -1.8743e+06 234241 0 -1.87633e+06 240776 0 -1.87842e+06 247328 0 -1.88055e+06 253897 0 -1.88275e+06 260483 0 -1.88499e+06 267088 0 -1.88729e+06 273712 0 -1.88964e+06 280355 0 -1.89205e+06 287017 0 -1.89451e+06 293701 0 -1.89702e+06 300405 0 -1.89958e+06 307130 0 -1.9022e+06 313877 0 -1.90488e+06 320647 0 -1.9076e+06 327441 0 -1.91038e+06 334257 0 -1.91321e+06 341099 0 -1.91609e+06 347965 0 -1.91903e+06 354856 0 -1.92202e+06 361773 0 -1.92506e+06 368718 0 -1.92816e+06 375689 0 -1.93131e+06 382688 0 -1.93451e+06 389716 0 -1.93776e+06 396773 0 -1.94106e+06 403860 0 -1.94442e+06 410978 0 -1.94782e+06 418126 0 -1.95128e+06 425307 0 -1.95479e+06 432520 0 -1.95836e+06 439767 0 -1.96197e+06 447047 0 -1.96563e+06 454362 0 -1.96934e+06 461713 0 -1.97311e+06 469100 0 -1.97692e+06 476524 0 -1.98079e+06 483986 0 -1.9847e+06 491487 0 -1.98867e+06 499027 0 -1.99268e+06 506607 0 -1.99674e+06 514228 0 -2.00085e+06 521892 0 -2.00501e+06 529598 0 -2.00922e+06 537348 0 -2.01347e+06 545143 0 -2.01777e+06 552984 0 -2.02212e+06 560871 0 -2.02652e+06 568805 0 -2.03096e+06 576788 0 -2.03544e+06 584821 0 -2.03997e+06 592904 0 -2.04455e+06 601039 0 -2.04917e+06 609227 0 -2.05383e+06 617468 0 -2.05854e+06 625765 0 -2.06329e+06 634118 0 -2.06808e+06 642528 0 -2.07291e+06 650996 0 -2.07778e+06 659524 0 -2.08269e+06 668113 0 -2.08764e+06 676765 0 -2.09262e+06 685480 0 -2.09765e+06 694260 0 -2.10271e+06 703107 0 -2.1078e+06 712021 0 -2.11293e+06 721005 0 -2.11809e+06 730059 0 -2.12328e+06 739185 0 -2.12851e+06 748385 0 -2.13376e+06 757661 0 -2.13904e+06 767013 0 -2.14435e+06 776445 0 -2.14968e+06 785956 0 -2.15503e+06 795550 0 -2.16041e+06 805228 0 -2.1658e+06 814991 0 -2.17122e+06 824842 0 -2.17665e+06 834783 0 -2.18209e+06 844815 0 -2.18755e+06 854940 0 -2.19302e+06 865161 0 -2.19849e+06 875480 0 -2.20397e+06 885898 0 -2.20945e+06 896418 0 -2.21493e+06 907042 0 -2.2204e+06 917773 0 -2.22587e+06 928612 0 -2.23132e+06 939563 0 -2.23676e+06 950626 0 -2.24219e+06 961806 0 -2.24759e+06 973103 0 -1.83595e+06 0 0 -1.83598e+06 6245.62 0 -1.83606e+06 12491.7 0 -1.8362e+06 18738.5 0 -1.83638e+06 24986.6 0 -1.83663e+06 31236.4 0 -1.83693e+06 37488.2 0 -1.83728e+06 43742.6 0 -1.83768e+06 49999.8 0 -1.83815e+06 56260.3 0 -1.83866e+06 62524.6 0 -1.83923e+06 68793.1 0 -1.83985e+06 75066.1 0 -1.84053e+06 81344.1 0 -1.84126e+06 87627.5 0 -1.84205e+06 93916.8 0 -1.84288e+06 100212 0 -1.84378e+06 106515 0 -1.84473e+06 112824 0 -1.84573e+06 119141 0 -1.84678e+06 125466 0 -1.84789e+06 131799 0 -1.84906e+06 138141 0 -1.85028e+06 144493 0 -1.85155e+06 150854 0 -1.85287e+06 157225 0 -1.85425e+06 163607 0 -1.85569e+06 170000 0 -1.85718e+06 176405 0 -1.85872e+06 182822 0 -1.86032e+06 189251 0 -1.86197e+06 195693 0 -1.86367e+06 202148 0 -1.86543e+06 208617 0 -1.86724e+06 215101 0 -1.8691e+06 221599 0 -1.87102e+06 228112 0 -1.873e+06 234642 0 -1.87502e+06 241187 0 -1.8771e+06 247750 0 -1.87924e+06 254329 0 -1.88142e+06 260926 0 -1.88367e+06 267542 0 -1.88596e+06 274176 0 -1.88831e+06 280830 0 -1.89071e+06 287503 0 -1.89317e+06 294197 0 -1.89567e+06 300912 0 -1.89824e+06 307648 0 -1.90085e+06 314406 0 -1.90352e+06 321187 0 -1.90624e+06 327991 0 -1.90901e+06 334818 0 -1.91184e+06 341670 0 -1.91472e+06 348546 0 -1.91765e+06 355448 0 -1.92063e+06 362376 0 -1.92367e+06 369331 0 -1.92676e+06 376313 0 -1.9299e+06 383322 0 -1.9331e+06 390361 0 -1.93634e+06 397428 0 -1.93964e+06 404526 0 -1.94299e+06 411653 0 -1.94639e+06 418812 0 -1.94984e+06 426003 0 -1.95335e+06 433227 0 -1.9569e+06 440483 0 -1.96051e+06 447774 0 -1.96416e+06 455099 0 -1.96787e+06 462460 0 -1.97163e+06 469857 0 -1.97543e+06 477291 0 -1.97929e+06 484763 0 -1.9832e+06 492274 0 -1.98715e+06 499824 0 -1.99116e+06 507414 0 -1.99521e+06 515045 0 -1.99931e+06 522718 0 -2.00346e+06 530434 0 -2.00766e+06 538194 0 -2.01191e+06 545998 0 -2.0162e+06 553848 0 -2.02054e+06 561744 0 -2.02492e+06 569688 0 -2.02935e+06 577680 0 -2.03383e+06 585722 0 -2.03835e+06 593814 0 -2.04292e+06 601958 0 -2.04753e+06 610154 0 -2.05218e+06 618404 0 -2.05687e+06 626709 0 -2.06161e+06 635070 0 -2.06639e+06 643488 0 -2.07121e+06 651965 0 -2.07606e+06 660501 0 -2.08096e+06 669098 0 -2.0859e+06 677757 0 -2.09087e+06 686480 0 -2.09588e+06 695267 0 -2.10093e+06 704121 0 -2.10601e+06 713042 0 -2.11112e+06 722032 0 -2.11627e+06 731093 0 -2.12145e+06 740225 0 -2.12666e+06 749431 0 -2.13189e+06 758713 0 -2.13716e+06 768071 0 -2.14245e+06 777507 0 -2.14777e+06 787023 0 -2.1531e+06 796622 0 -2.15846e+06 806303 0 -2.16384e+06 816070 0 -2.16924e+06 825925 0 -2.17465e+06 835868 0 -2.18008e+06 845903 0 -2.18552e+06 856030 0 -2.19096e+06 866253 0 -2.19642e+06 876573 0 -2.20187e+06 886992 0 -2.20733e+06 897512 0 -2.21279e+06 908136 0 -2.21824e+06 918865 0 -2.22369e+06 929703 0 -2.22912e+06 940650 0 -2.23454e+06 951711 0 -2.23994e+06 962886 0 -2.24532e+06 974179 0 -1.8347e+06 0 0 -1.83473e+06 6256.45 0 -1.83481e+06 12513.3 0 -1.83494e+06 18771 0 -1.83513e+06 25029.9 0 -1.83538e+06 31290.5 0 -1.83567e+06 37553.2 0 -1.83603e+06 43818.3 0 -1.83643e+06 50086.4 0 -1.83689e+06 56357.8 0 -1.83741e+06 62632.9 0 -1.83797e+06 68912.1 0 -1.8386e+06 75196 0 -1.83927e+06 81484.8 0 -1.84e+06 87779 0 -1.84079e+06 94079.1 0 -1.84162e+06 100385 0 -1.84252e+06 106699 0 -1.84346e+06 113019 0 -1.84446e+06 119346 0 -1.84552e+06 125682 0 -1.84663e+06 132026 0 -1.84779e+06 138379 0 -1.849e+06 144742 0 -1.85027e+06 151114 0 -1.8516e+06 157496 0 -1.85298e+06 163889 0 -1.85441e+06 170292 0 -1.85589e+06 176708 0 -1.85743e+06 183135 0 -1.85903e+06 189575 0 -1.86067e+06 196028 0 -1.86238e+06 202494 0 -1.86413e+06 208974 0 -1.86594e+06 215468 0 -1.8678e+06 221977 0 -1.86972e+06 228501 0 -1.87169e+06 235041 0 -1.87371e+06 241598 0 -1.87579e+06 248171 0 -1.87792e+06 254761 0 -1.8801e+06 261369 0 -1.88234e+06 267995 0 -1.88463e+06 274640 0 -1.88698e+06 281305 0 -1.88937e+06 287989 0 -1.89182e+06 294693 0 -1.89433e+06 301418 0 -1.89688e+06 308165 0 -1.8995e+06 314934 0 -1.90216e+06 321725 0 -1.90487e+06 328540 0 -1.90764e+06 335378 0 -1.91046e+06 342240 0 -1.91334e+06 349127 0 -1.91627e+06 356039 0 -1.91925e+06 362978 0 -1.92228e+06 369943 0 -1.92536e+06 376935 0 -1.9285e+06 383955 0 -1.93169e+06 391004 0 -1.93493e+06 398082 0 -1.93822e+06 405190 0 -1.94156e+06 412328 0 -1.94495e+06 419497 0 -1.9484e+06 426698 0 -1.9519e+06 433932 0 -1.95545e+06 441199 0 -1.95904e+06 448499 0 -1.96269e+06 455835 0 -1.96639e+06 463206 0 -1.97014e+06 470613 0 -1.97394e+06 478057 0 -1.97779e+06 485539 0 -1.98169e+06 493059 0 -1.98564e+06 500619 0 -1.98964e+06 508219 0 -1.99368e+06 515860 0 -1.99777e+06 523542 0 -2.00192e+06 531268 0 -2.0061e+06 539037 0 -2.01034e+06 546851 0 -2.01462e+06 554710 0 -2.01895e+06 562615 0 -2.02333e+06 570568 0 -2.02775e+06 578570 0 -2.03222e+06 586620 0 -2.03673e+06 594722 0 -2.04128e+06 602874 0 -2.04588e+06 611079 0 -2.05052e+06 619338 0 -2.0552e+06 627651 0 -2.05993e+06 636021 0 -2.0647e+06 644447 0 -2.0695e+06 652932 0 -2.07435e+06 661476 0 -2.07924e+06 670080 0 -2.08416e+06 678747 0 -2.08912e+06 687477 0 -2.09412e+06 696272 0 -2.09915e+06 705132 0 -2.10422e+06 714060 0 -2.10932e+06 723057 0 -2.11445e+06 732124 0 -2.11961e+06 741263 0 -2.12481e+06 750475 0 -2.13003e+06 759761 0 -2.13528e+06 769125 0 -2.14055e+06 778566 0 -2.14585e+06 788087 0 -2.15118e+06 797690 0 -2.15652e+06 807376 0 -2.16188e+06 817146 0 -2.16726e+06 827004 0 -2.17265e+06 836950 0 -2.17806e+06 846987 0 -2.18348e+06 857117 0 -2.18891e+06 867341 0 -2.19434e+06 877662 0 -2.19978e+06 888081 0 -2.20522e+06 898602 0 -2.21065e+06 909225 0 -2.21609e+06 919953 0 -2.22151e+06 930788 0 -2.22692e+06 941733 0 -2.23232e+06 952790 0 -2.23769e+06 963961 0 -2.24305e+06 975249 0 -1.83345e+06 0 0 -1.83348e+06 6267.26 0 -1.83356e+06 12534.9 0 -1.83369e+06 18803.4 0 -1.83388e+06 25073.2 0 -1.83412e+06 31344.6 0 -1.83442e+06 37618.1 0 -1.83477e+06 43894 0 -1.83518e+06 50172.9 0 -1.83564e+06 56455 0 -1.83615e+06 62741 0 -1.83672e+06 69031 0 -1.83734e+06 75325.7 0 -1.83801e+06 81625.3 0 -1.83874e+06 87930.4 0 -1.83952e+06 94241.2 0 -1.84036e+06 100558 0 -1.84125e+06 106882 0 -1.8422e+06 113213 0 -1.8432e+06 119552 0 -1.84425e+06 125898 0 -1.84535e+06 132253 0 -1.84651e+06 138617 0 -1.84773e+06 144990 0 -1.849e+06 151373 0 -1.85032e+06 157766 0 -1.8517e+06 164169 0 -1.85312e+06 170584 0 -1.85461e+06 177010 0 -1.85615e+06 183448 0 -1.85774e+06 189899 0 -1.85938e+06 196362 0 -1.86108e+06 202839 0 -1.86283e+06 209330 0 -1.86464e+06 215835 0 -1.8665e+06 222355 0 -1.86841e+06 228890 0 -1.87038e+06 235440 0 -1.8724e+06 242007 0 -1.87447e+06 248591 0 -1.8766e+06 255192 0 -1.87878e+06 261811 0 -1.88101e+06 268448 0 -1.8833e+06 275103 0 -1.88564e+06 281778 0 -1.88803e+06 288473 0 -1.89048e+06 295188 0 -1.89298e+06 301924 0 -1.89553e+06 308682 0 -1.89814e+06 315461 0 -1.9008e+06 322263 0 -1.90351e+06 329088 0 -1.90627e+06 335936 0 -1.90909e+06 342809 0 -1.91196e+06 349706 0 -1.91488e+06 356629 0 -1.91785e+06 363578 0 -1.92088e+06 370554 0 -1.92396e+06 377557 0 -1.92709e+06 384587 0 -1.93027e+06 391646 0 -1.93351e+06 398735 0 -1.93679e+06 405853 0 -1.94013e+06 413001 0 -1.94352e+06 420180 0 -1.94696e+06 427392 0 -1.95045e+06 434636 0 -1.95399e+06 441913 0 -1.95758e+06 449224 0 -1.96122e+06 456569 0 -1.96491e+06 463950 0 -1.96866e+06 471367 0 -1.97245e+06 478821 0 -1.97629e+06 486313 0 -1.98018e+06 493843 0 -1.98412e+06 501412 0 -1.98811e+06 509022 0 -1.99215e+06 516673 0 -1.99623e+06 524365 0 -2.00037e+06 532100 0 -2.00455e+06 539879 0 -2.00877e+06 547702 0 -2.01305e+06 555570 0 -2.01737e+06 563485 0 -2.02173e+06 571447 0 -2.02614e+06 579457 0 -2.0306e+06 587517 0 -2.0351e+06 595627 0 -2.03964e+06 603788 0 -2.04423e+06 612002 0 -2.04886e+06 620269 0 -2.05354e+06 628591 0 -2.05825e+06 636969 0 -2.06301e+06 645403 0 -2.0678e+06 653896 0 -2.07264e+06 662448 0 -2.07751e+06 671060 0 -2.08242e+06 679734 0 -2.08737e+06 688472 0 -2.09235e+06 697273 0 -2.09737e+06 706141 0 -2.10242e+06 715076 0 -2.10751e+06 724079 0 -2.11263e+06 733152 0 -2.11778e+06 742297 0 -2.12296e+06 751515 0 -2.12816e+06 760807 0 -2.1334e+06 770176 0 -2.13866e+06 779622 0 -2.14394e+06 789148 0 -2.14925e+06 798755 0 -2.15457e+06 808444 0 -2.15992e+06 818219 0 -2.16528e+06 828080 0 -2.17066e+06 838029 0 -2.17605e+06 848068 0 -2.18145e+06 858200 0 -2.18685e+06 868425 0 -2.19227e+06 878747 0 -2.19769e+06 889167 0 -2.2031e+06 899687 0 -2.20852e+06 910309 0 -2.21393e+06 921036 0 -2.21933e+06 931870 0 -2.22472e+06 942812 0 -2.23009e+06 953865 0 -2.23545e+06 965032 0 -2.24078e+06 976315 0 -1.83219e+06 0 0 -1.83222e+06 6278.06 0 -1.8323e+06 12556.5 0 -1.83244e+06 18835.8 0 -1.83263e+06 25116.4 0 -1.83287e+06 31398.6 0 -1.83316e+06 37682.8 0 -1.83352e+06 43969.6 0 -1.83392e+06 50259.2 0 -1.83438e+06 56552.2 0 -1.83489e+06 62848.9 0 -1.83546e+06 69149.7 0 -1.83608e+06 75455.2 0 -1.83675e+06 81765.6 0 -1.83748e+06 88081.4 0 -1.83826e+06 94403.1 0 -1.8391e+06 100731 0 -1.83999e+06 107066 0 -1.84093e+06 113407 0 -1.84193e+06 119757 0 -1.84298e+06 126114 0 -1.84408e+06 132480 0 -1.84524e+06 138854 0 -1.84645e+06 145238 0 -1.84772e+06 151632 0 -1.84904e+06 158035 0 -1.85041e+06 164450 0 -1.85184e+06 170875 0 -1.85332e+06 177312 0 -1.85486e+06 183761 0 -1.85644e+06 190222 0 -1.85809e+06 196696 0 -1.85978e+06 203184 0 -1.86153e+06 209685 0 -1.86333e+06 216201 0 -1.86519e+06 222732 0 -1.8671e+06 229277 0 -1.86906e+06 235839 0 -1.87108e+06 242416 0 -1.87315e+06 249011 0 -1.87527e+06 255623 0 -1.87745e+06 262252 0 -1.87968e+06 268899 0 -1.88196e+06 275566 0 -1.8843e+06 282251 0 -1.88669e+06 288957 0 -1.88913e+06 295682 0 -1.89163e+06 302429 0 -1.89418e+06 309197 0 -1.89678e+06 315987 0 -1.89943e+06 322799 0 -1.90214e+06 329635 0 -1.9049e+06 336494 0 -1.90771e+06 343377 0 -1.91058e+06 350285 0 -1.91349e+06 357218 0 -1.91646e+06 364178 0 -1.91948e+06 371164 0 -1.92255e+06 378177 0 -1.92568e+06 385218 0 -1.92886e+06 392287 0 -1.93208e+06 399386 0 -1.93536e+06 406514 0 -1.93869e+06 413673 0 -1.94208e+06 420863 0 -1.94551e+06 428084 0 -1.94899e+06 435338 0 -1.95253e+06 442625 0 -1.95611e+06 449946 0 -1.95975e+06 457302 0 -1.96343e+06 464693 0 -1.96717e+06 472120 0 -1.97095e+06 479584 0 -1.97479e+06 487085 0 -1.97867e+06 494625 0 -1.9826e+06 502205 0 -1.98658e+06 509824 0 -1.99061e+06 517484 0 -1.99469e+06 525186 0 -1.99881e+06 532930 0 -2.00298e+06 540718 0 -2.0072e+06 548551 0 -2.01147e+06 556429 0 -2.01578e+06 564353 0 -2.02013e+06 572324 0 -2.02454e+06 580343 0 -2.02898e+06 588412 0 -2.03347e+06 596531 0 -2.03801e+06 604701 0 -2.04258e+06 612923 0 -2.0472e+06 621199 0 -2.05187e+06 629529 0 -2.05657e+06 637915 0 -2.06131e+06 646357 0 -2.0661e+06 654858 0 -2.07092e+06 663417 0 -2.07578e+06 672037 0 -2.08068e+06 680719 0 -2.08561e+06 689464 0 -2.09058e+06 698272 0 -2.09559e+06 707147 0 -2.10063e+06 716088 0 -2.1057e+06 725098 0 -2.11081e+06 734177 0 -2.11594e+06 743328 0 -2.12111e+06 752552 0 -2.1263e+06 761850 0 -2.13152e+06 771223 0 -2.13676e+06 780675 0 -2.14203e+06 790205 0 -2.14732e+06 799816 0 -2.15263e+06 809510 0 -2.15795e+06 819288 0 -2.1633e+06 829152 0 -2.16866e+06 839104 0 -2.17403e+06 849146 0 -2.17941e+06 859279 0 -2.1848e+06 869506 0 -2.19019e+06 879828 0 -2.19559e+06 890249 0 -2.20099e+06 900768 0 -2.20639e+06 911390 0 -2.21177e+06 922115 0 -2.21715e+06 932947 0 -2.22252e+06 943886 0 -2.22787e+06 954936 0 -2.2332e+06 966098 0 -2.23851e+06 977375 0 -1.83094e+06 0 0 -1.83096e+06 6288.83 0 -1.83105e+06 12578.1 0 -1.83118e+06 18868.2 0 -1.83137e+06 25159.5 0 -1.83161e+06 31452.4 0 -1.83191e+06 37747.5 0 -1.83226e+06 44045 0 -1.83266e+06 50345.4 0 -1.83312e+06 56649.2 0 -1.83363e+06 62956.6 0 -1.83419e+06 69268.3 0 -1.83481e+06 75584.5 0 -1.83549e+06 81905.7 0 -1.83621e+06 88232.3 0 -1.83699e+06 94564.7 0 -1.83783e+06 100903 0 -1.83872e+06 107249 0 -1.83966e+06 113601 0 -1.84065e+06 119961 0 -1.8417e+06 126329 0 -1.84281e+06 132706 0 -1.84396e+06 139091 0 -1.84517e+06 145486 0 -1.84644e+06 151890 0 -1.84776e+06 158304 0 -1.84913e+06 164730 0 -1.85055e+06 171166 0 -1.85203e+06 177613 0 -1.85356e+06 184073 0 -1.85515e+06 190545 0 -1.85679e+06 197030 0 -1.85848e+06 203528 0 -1.86023e+06 210040 0 -1.86203e+06 216567 0 -1.86388e+06 223108 0 -1.86579e+06 229664 0 -1.86775e+06 236236 0 -1.86976e+06 242825 0 -1.87183e+06 249430 0 -1.87395e+06 256052 0 -1.87612e+06 262692 0 -1.87835e+06 269350 0 -1.88063e+06 276027 0 -1.88296e+06 282724 0 -1.88535e+06 289440 0 -1.88779e+06 296176 0 -1.89028e+06 302933 0 -1.89282e+06 309711 0 -1.89542e+06 316512 0 -1.89807e+06 323335 0 -1.90077e+06 330181 0 -1.90352e+06 337050 0 -1.90633e+06 343944 0 -1.90919e+06 350863 0 -1.9121e+06 357806 0 -1.91506e+06 364776 0 -1.91808e+06 371773 0 -1.92115e+06 378796 0 -1.92427e+06 385847 0 -1.92744e+06 392927 0 -1.93066e+06 400036 0 -1.93393e+06 407175 0 -1.93726e+06 414344 0 -1.94063e+06 421544 0 -1.94406e+06 428775 0 -1.94754e+06 436039 0 -1.95107e+06 443337 0 -1.95464e+06 450668 0 -1.95827e+06 458033 0 -1.96195e+06 465434 0 -1.96568e+06 472871 0 -1.96946e+06 480345 0 -1.97328e+06 487856 0 -1.97716e+06 495406 0 -1.98108e+06 502995 0 -1.98505e+06 510624 0 -1.98908e+06 518294 0 -1.99314e+06 526005 0 -1.99726e+06 533759 0 -2.00142e+06 541556 0 -2.00563e+06 549398 0 -2.00989e+06 557285 0 -2.01419e+06 565218 0 -2.01853e+06 573199 0 -2.02293e+06 581227 0 -2.02736e+06 589304 0 -2.03184e+06 597432 0 -2.03637e+06 605611 0 -2.04093e+06 613842 0 -2.04554e+06 622126 0 -2.05019e+06 630464 0 -2.05488e+06 638858 0 -2.05962e+06 647309 0 -2.06439e+06 655817 0 -2.0692e+06 664385 0 -2.07405e+06 673012 0 -2.07893e+06 681701 0 -2.08386e+06 690453 0 -2.08882e+06 699269 0 -2.09381e+06 708150 0 -2.09883e+06 717098 0 -2.10389e+06 726114 0 -2.10898e+06 735200 0 -2.1141e+06 744357 0 -2.11925e+06 753586 0 -2.12443e+06 762889 0 -2.12963e+06 772268 0 -2.13486e+06 781724 0 -2.14011e+06 791259 0 -2.14539e+06 800874 0 -2.15068e+06 810572 0 -2.15599e+06 820353 0 -2.16132e+06 830221 0 -2.16666e+06 840175 0 -2.17201e+06 850219 0 -2.17737e+06 860354 0 -2.18274e+06 870583 0 -2.18812e+06 880906 0 -2.1935e+06 891326 0 -2.19888e+06 901846 0 -2.20425e+06 912466 0 -2.20962e+06 923190 0 -2.21498e+06 934019 0 -2.22032e+06 944956 0 -2.22565e+06 956002 0 -2.23096e+06 967160 0 -2.23624e+06 978432 0 -1.82968e+06 0 0 -1.82971e+06 6299.59 0 -1.82979e+06 12599.6 0 -1.82992e+06 18900.4 0 -1.83011e+06 25202.5 0 -1.83035e+06 31506.2 0 -1.83065e+06 37812 0 -1.831e+06 44120.3 0 -1.8314e+06 50431.5 0 -1.83186e+06 56746 0 -1.83237e+06 63064.2 0 -1.83293e+06 69386.6 0 -1.83355e+06 75713.6 0 -1.83422e+06 82045.5 0 -1.83495e+06 88382.9 0 -1.83573e+06 94726.1 0 -1.83656e+06 101076 0 -1.83745e+06 107432 0 -1.83839e+06 113795 0 -1.83938e+06 120166 0 -1.84043e+06 126544 0 -1.84153e+06 132932 0 -1.84268e+06 139328 0 -1.84389e+06 145733 0 -1.84515e+06 152148 0 -1.84647e+06 158573 0 -1.84784e+06 165009 0 -1.84926e+06 171456 0 -1.85074e+06 177914 0 -1.85227e+06 184385 0 -1.85385e+06 190867 0 -1.85549e+06 197363 0 -1.85718e+06 203872 0 -1.85892e+06 210395 0 -1.86072e+06 216932 0 -1.86257e+06 223484 0 -1.86448e+06 230051 0 -1.86643e+06 236634 0 -1.86844e+06 243233 0 -1.87051e+06 249848 0 -1.87262e+06 256481 0 -1.87479e+06 263132 0 -1.87701e+06 269801 0 -1.87929e+06 276488 0 -1.88162e+06 283195 0 -1.884e+06 289922 0 -1.88643e+06 296668 0 -1.88892e+06 303436 0 -1.89146e+06 310225 0 -1.89405e+06 317036 0 -1.8967e+06 323870 0 -1.8994e+06 330726 0 -1.90215e+06 337606 0 -1.90495e+06 344510 0 -1.9078e+06 351439 0 -1.91071e+06 358393 0 -1.91367e+06 365374 0 -1.91668e+06 372380 0 -1.91974e+06 379414 0 -1.92285e+06 386476 0 -1.92602e+06 393566 0 -1.92923e+06 400685 0 -1.9325e+06 407834 0 -1.93582e+06 415013 0 -1.93919e+06 422223 0 -1.94261e+06 429465 0 -1.94608e+06 436739 0 -1.9496e+06 444047 0 -1.95317e+06 451388 0 -1.9568e+06 458763 0 -1.96047e+06 466174 0 -1.96419e+06 473621 0 -1.96796e+06 481105 0 -1.97178e+06 488626 0 -1.97564e+06 496185 0 -1.97956e+06 503784 0 -1.98352e+06 511422 0 -1.98754e+06 519102 0 -1.9916e+06 526823 0 -1.9957e+06 534586 0 -1.99986e+06 542393 0 -2.00406e+06 550244 0 -2.0083e+06 558140 0 -2.0126e+06 566082 0 -2.01693e+06 574072 0 -2.02131e+06 582109 0 -2.02574e+06 590195 0 -2.03021e+06 598331 0 -2.03472e+06 606519 0 -2.03928e+06 614758 0 -2.04388e+06 623051 0 -2.04852e+06 631397 0 -2.0532e+06 639799 0 -2.05792e+06 648258 0 -2.06268e+06 656774 0 -2.06748e+06 665349 0 -2.07232e+06 673984 0 -2.07719e+06 682681 0 -2.0821e+06 691440 0 -2.08705e+06 700263 0 -2.09202e+06 709151 0 -2.09704e+06 718105 0 -2.10208e+06 727128 0 -2.10716e+06 736220 0 -2.11227e+06 745382 0 -2.1174e+06 754617 0 -2.12256e+06 763926 0 -2.12775e+06 773310 0 -2.13296e+06 782771 0 -2.1382e+06 792310 0 -2.14345e+06 801929 0 -2.14873e+06 811631 0 -2.15402e+06 821416 0 -2.15933e+06 831286 0 -2.16466e+06 841243 0 -2.16999e+06 851289 0 -2.17534e+06 861426 0 -2.18069e+06 871655 0 -2.18605e+06 881979 0 -2.1914e+06 892400 0 -2.19676e+06 902919 0 -2.20212e+06 913539 0 -2.20746e+06 924261 0 -2.2128e+06 935088 0 -2.21812e+06 946021 0 -2.22343e+06 957063 0 -2.22872e+06 968217 0 -2.23398e+06 979483 0 -1.82842e+06 0 0 -1.82844e+06 6310.34 0 -1.82853e+06 12621.1 0 -1.82866e+06 18932.7 0 -1.82885e+06 25245.5 0 -1.82909e+06 31560 0 -1.82938e+06 37876.5 0 -1.82973e+06 44195.5 0 -1.83014e+06 50517.5 0 -1.83059e+06 56842.7 0 -1.8311e+06 63171.7 0 -1.83166e+06 69504.8 0 -1.83228e+06 75842.5 0 -1.83295e+06 82185.2 0 -1.83368e+06 88533.2 0 -1.83446e+06 94887.2 0 -1.83529e+06 101247 0 -1.83617e+06 107614 0 -1.83711e+06 113988 0 -1.8381e+06 120370 0 -1.83915e+06 126759 0 -1.84025e+06 133157 0 -1.8414e+06 139564 0 -1.84261e+06 145980 0 -1.84387e+06 152406 0 -1.84518e+06 158841 0 -1.84655e+06 165288 0 -1.84797e+06 171746 0 -1.84945e+06 178215 0 -1.85097e+06 184696 0 -1.85255e+06 191189 0 -1.85419e+06 197695 0 -1.85588e+06 204215 0 -1.85762e+06 210748 0 -1.85941e+06 217296 0 -1.86126e+06 223859 0 -1.86316e+06 230436 0 -1.86511e+06 237030 0 -1.86712e+06 243640 0 -1.86918e+06 250266 0 -1.87129e+06 256909 0 -1.87346e+06 263571 0 -1.87568e+06 270250 0 -1.87795e+06 276948 0 -1.88027e+06 283666 0 -1.88265e+06 290403 0 -1.88508e+06 297160 0 -1.88757e+06 303938 0 -1.8901e+06 310738 0 -1.89269e+06 317559 0 -1.89533e+06 324403 0 -1.89802e+06 331270 0 -1.90077e+06 338161 0 -1.90356e+06 345075 0 -1.90641e+06 352015 0 -1.90931e+06 358979 0 -1.91227e+06 365970 0 -1.91527e+06 372987 0 -1.91833e+06 380031 0 -1.92144e+06 387103 0 -1.9246e+06 394204 0 -1.92781e+06 401333 0 -1.93107e+06 408492 0 -1.93438e+06 415681 0 -1.93774e+06 422902 0 -1.94116e+06 430153 0 -1.94462e+06 437438 0 -1.94814e+06 444755 0 -1.9517e+06 452106 0 -1.95532e+06 459492 0 -1.95898e+06 466913 0 -1.96269e+06 474369 0 -1.96646e+06 481863 0 -1.97027e+06 489394 0 -1.97413e+06 496963 0 -1.97803e+06 504