<?xml version="1.0"?> 
<VTKFile type="StructuredGrid" version="0.1"> 
<StructuredGrid WholeExtent="0 127 0 127 0 0"> 
<Piece Extent="0 127 0 127 0 0"> 
<PointData>
<DataArray type="Float32" Name="|E|" format="ascii" NumberOfComponents="3"> 
-2.13326e+06 0 0 -2.13335e+06 -8.33697e-07 0 -2.13361e+06 -1.67967e-06 0 -2.13406e+06 -2.54412e-06 0 -2.13468e+06 -3.32674e-06 0 -2.13547e+06 -4.26741e-06 0 -2.13645e+06 -4.95353e-06 0 -2.1376e+06 -6.0425e-06 0 -2.13893e+06 -6.6659e-06 0 -2.14043e+06 -7.65929e-06 0 -2.14212e+06 -8.60023e-06 0 -2.14398e+06 -9.41999e-06 0 -2.14603e+06 -1.01649e-05 0 -2.14825e+06 -1.13479e-05 0 -2.15066e+06 -1.16675e-05 0 -2.15324e+06 -1.2814e-05 0 -2.15601e+06 -1.38669e-05 0 -2.15895e+06 -1.47425e-05 0 -2.16208e+06 -1.6085e-05 0 -2.1654e+06 -1.65387e-05 0 -2.1689e+06 -1.75862e-05 0 -2.17258e+06 -1.84812e-05 0 -2.17645e+06 -1.97227e-05 0 -2.1805e+06 -2.03028e-05 0 -2.18474e+06 -2.19131e-05 0 -2.18917e+06 -2.2043e-05 0 -2.19379e+06 -2.37331e-05 0 -2.19861e+06 -2.45152e-05 0 -2.20361e+06 -2.59657e-05 0 -2.2088e+06 -2.69087e-05 0 -2.21419e+06 -2.76822e-05 0 -2.21978e+06 -2.8593e-05 0 -2.22556e+06 -2.97744e-05 0 -2.23154e+06 -3.09478e-05 0 -2.23772e+06 -3.24938e-05 0 -2.24409e+06 -3.39374e-05 0 -2.25068e+06 -3.40343e-05 0 -2.25746e+06 -3.57032e-05 0 -2.26445e+06 -3.70182e-05 0 -2.27165e+06 -3.67984e-05 0 -2.27906e+06 -3.94583e-05 0 -2.28668e+06 -4.09428e-05 0 -2.29451e+06 -4.12185e-05 0 -2.30256e+06 -4.25708e-05 0 -2.31082e+06 -4.42695e-05 0 -2.3193e+06 -4.4547e-05 0 -2.328e+06 -4.58397e-05 0 -2.33692e+06 -4.70504e-05 0 -2.34607e+06 -4.87678e-05 0 -2.35545e+06 -4.97103e-05 0 -2.36505e+06 -5.05857e-05 0 -2.37489e+06 -5.21466e-05 0 -2.38496e+06 -5.30258e-05 0 -2.39527e+06 -5.45196e-05 0 -2.40581e+06 -5.50151e-05 0 -2.4166e+06 -5.5708e-05 0 -2.42763e+06 -5.68926e-05 0 -2.43891e+06 -5.64232e-05 0 -2.45044e+06 -5.79283e-05 0 -2.46222e+06 -5.72801e-05 0 -2.47426e+06 -5.70789e-05 0 -2.48655e+06 -5.79953e-05 0 -2.4991e+06 -5.77495e-05 0 -2.51191e+06 -5.74291e-05 0 -2.52499e+06 -5.64903e-05 0 -2.53834e+06 -5.59092e-05 0 -2.55196e+06 -5.42402e-05 0 -2.56585e+06 -5.19305e-05 0 -2.58002e+06 -5.03957e-05 0 -2.59446e+06 -4.86374e-05 0 -2.60919e+06 -4.448e-05 0 -2.62419e+06 -4.03523e-05 0 -2.63948e+06 -3.6791e-05 0 -2.65506e+06 -3.15458e-05 0 -2.67092e+06 -2.54214e-05 0 -2.68708e+06 -1.8239e-05 0 -2.70352e+06 -1.07288e-05 0 -2.72025e+06 -1.46031e-06 0 -2.73728e+06 7.03335e-06 0 -2.75459e+06 2.02358e-05 0 -2.7722e+06 3.18587e-05 0 -2.79009e+06 4.61638e-05 0 -2.80827e+06 6.25849e-05 0 -2.82674e+06 7.96318e-05 0 -2.84548e+06 9.97186e-05 0 -2.86451e+06 0.000121862 0 -2.8838e+06 0.000147402 0 -2.90336e+06 0.000173986 0 -2.92318e+06 0.000204057 0 -2.94324e+06 0.0002352 0 -2.96355e+06 0.000272512 0 -2.98408e+06 0.000308931 0 -3.00482e+06 0.000352561 0 -3.02576e+06 0.000398636 0 -3.04689e+06 0.000447512 0 -3.06817e+06 0.000499785 0 -3.08959e+06 0.000555396 0 -3.11112e+06 0.000615001 0 -3.13275e+06 0.000678718 0 -3.15442e+06 0.000746191 0 -3.17612e+06 0.000816584 0 -3.19781e+06 0.000886261 0 -3.21945e+06 0.000962198 0 -3.24099e+06 0.0010339 0 -3.26238e+06 0.00111008 0 -3.28358e+06 0.00118721 0 -3.30454e+06 0.00125921 0 -3.3252e+06 0.00133014 0 -3.34549e+06 0.00139773 0 -3.36535e+06 0.00145292 0 -3.38472e+06 0.00150931 0 -3.40353e+06 0.00154984 0 -3.4217e+06 0.00158012 0 -3.43917e+06 0.00159466 0 -3.45585e+06 0.00159907 0 -3.47168e+06 0.00158322 0 -3.48658e+06 0.00155294 0 -3.50048e+06 0.00149941 0 -3.51331e+06 0.00142765 0 -3.52499e+06 0.00133049 0 -3.53546e+06 0.00122213 0 -3.54467e+06 0.00108743 0 -3.55256e+06 0.000934839 0 -3.55909e+06 0.000772476 0 -3.5642e+06 0.000585318 0 -3.56788e+06 0.000401735 0 -3.5701e+06 0.00019908 0 -3.57084e+06 1.62125e-05 0 -2.13326e+06 0 0 -2.13335e+06 23.5834 0 -2.13361e+06 47.172 0 -2.13405e+06 70.7709 0 -2.13467e+06 94.3854 0 -2.13547e+06 118.021 0 -2.13644e+06 141.682 0 -2.1376e+06 165.375 0 -2.13892e+06 189.104 0 -2.14043e+06 212.875 0 -2.14212e+06 236.693 0 -2.14398e+06 260.563 0 -2.14603e+06 284.492 0 -2.14825e+06 308.484 0 -2.15065e+06 332.544 0 -2.15324e+06 356.679 0 -2.156e+06 380.894 0 -2.15895e+06 405.194 0 -2.16208e+06 429.586 0 -2.1654e+06 454.074 0 -2.16889e+06 478.666 0 -2.17258e+06 503.365 0 -2.17644e+06 528.18 0 -2.1805e+06 553.115 0 -2.18474e+06 578.177 0 -2.18917e+06 603.372 0 -2.19379e+06 628.706 0 -2.1986e+06 654.186 0 -2.20361e+06 679.817 0 -2.2088e+06 705.607 0 -2.21419e+06 731.562 0 -2.21977e+06 757.689 0 -2.22556e+06 783.994 0 -2.23154e+06 810.484 0 -2.23771e+06 837.167 0 -2.24409e+06 864.049 0 -2.25067e+06 891.137 0 -2.25746e+06 918.438 0 -2.26445e+06 945.96 0 -2.27165e+06 973.71 0 -2.27906e+06 1001.69 0 -2.28668e+06 1029.92 0 -2.29451e+06 1058.4 0 -2.30255e+06 1087.13 0 -2.31082e+06 1116.13 0 -2.3193e+06 1145.4 0 -2.328e+06 1174.95 0 -2.33692e+06 1204.79 0 -2.34607e+06 1234.92 0 -2.35545e+06 1265.35 0 -2.36505e+06 1296.09 0 -2.37489e+06 1327.14 0 -2.38496e+06 1358.52 0 -2.39527e+06 1390.22 0 -2.40581e+06 1422.25 0 -2.4166e+06 1454.62 0 -2.42763e+06 1487.34 0 -2.43891e+06 1520.4 0 -2.45044e+06 1553.81 0 -2.46222e+06 1587.58 0 -2.47425e+06 1621.7 0 -2.48655e+06 1656.18 0 -2.4991e+06 1691.01 0 -2.51191e+06 1726.2 0 -2.52499e+06 1761.75 0 -2.53834e+06 1797.64 0 -2.55196e+06 1833.87 0 -2.56585e+06 1870.44 0 -2.58001e+06 1907.33 0 -2.59446e+06 1944.53 0 -2.60918e+06 1982.02 0 -2.62419e+06 2019.79 0 -2.63948e+06 2057.81 0 -2.65506e+06 2096.04 0 -2.67092e+06 2134.48 0 -2.68707e+06 2173.06 0 -2.70352e+06 2211.76 0 -2.72025e+06 2250.52 0 -2.73728e+06 2289.29 0 -2.75459e+06 2328.01 0 -2.7722e+06 2366.6 0 -2.79009e+06 2404.99 0 -2.80827e+06 2443.09 0 -2.82673e+06 2480.79 0 -2.84548e+06 2517.99 0 -2.8645e+06 2554.56 0 -2.8838e+06 2590.37 0 -2.90336e+06 2625.26 0 -2.92317e+06 2659.06 0 -2.94324e+06 2691.6 0 -2.96354e+06 2722.66 0 -2.98407e+06 2752.03 0 -3.00482e+06 2779.47 0 -3.02576e+06 2804.72 0 -3.04688e+06 2827.48 0 -3.06817e+06 2847.46 0 -3.08959e+06 2864.34 0 -3.11112e+06 2877.75 0 -3.13275e+06 2887.34 0 -3.15442e+06 2892.7 0 -3.17612e+06 2893.42 0 -3.19781e+06 2889.08 0 -3.21945e+06 2879.22 0 -3.24099e+06 2863.4 0 -3.26238e+06 2841.13 0 -3.28359e+06 2811.96 0 -3.30454e+06 2775.41 0 -3.3252e+06 2731.04 0 -3.34549e+06 2678.4 0 -3.36535e+06 2617.09 0 -3.38472e+06 2546.74 0 -3.40353e+06 2467.02 0 -3.42171e+06 2377.67 0 -3.43917e+06 2278.51 0 -3.45586e+06 2169.43 0 -3.47169e+06 2050.41 0 -3.48659e+06 1921.54 0 -3.50049e+06 1783.05 0 -3.51332e+06 1635.24 0 -3.525e+06 1478.57 0 -3.53547e+06 1313.63 0 -3.54469e+06 1141.11 0 -3.55258e+06 961.831 0 -3.5591e+06 776.736 0 -3.56421e+06 586.856 0 -3.56789e+06 393.31 0 -3.57011e+06 197.281 0 -3.57085e+06 -3.87695e-06 0 -2.13325e+06 0 0 -2.13334e+06 47.1667 0 -2.13361e+06 94.3437 0 -2.13405e+06 141.542 0 -2.13467e+06 188.77 0 -2.13547e+06 236.041 0 -2.13644e+06 283.364 0 -2.13759e+06 330.749 0 -2.13892e+06 378.207 0 -2.14043e+06 425.749 0 -2.14211e+06 473.385 0 -2.14398e+06 521.126 0 -2.14602e+06 568.982 0 -2.14825e+06 616.966 0 -2.15065e+06 665.087 0 -2.15323e+06 713.357 0 -2.156e+06 761.786 0 -2.15895e+06 810.387 0 -2.16208e+06 859.17 0 -2.16539e+06 908.147 0 -2.16889e+06 957.329 0 -2.17257e+06 1006.73 0 -2.17644e+06 1056.36 0 -2.18049e+06 1106.23 0 -2.18474e+06 1156.35 0 -2.18917e+06 1206.74 0 -2.19379e+06 1257.41 0 -2.1986e+06 1308.37 0 -2.2036e+06 1359.63 0 -2.2088e+06 1411.21 0 -2.21419e+06 1463.12 0 -2.21977e+06 1515.37 0 -2.22555e+06 1567.98 0 -2.23153e+06 1620.97 0 -2.23771e+06 1674.33 0 -2.24409e+06 1728.09 0 -2.25067e+06 1782.27 0 -2.25746e+06 1836.87 0 -2.26445e+06 1891.92 0 -2.27165e+06 1947.41 0 -2.27905e+06 2003.38 0 -2.28667e+06 2059.84 0 -2.2945e+06 2116.79 0 -2.30255e+06 2174.26 0 -2.31081e+06 2232.26 0 -2.31929e+06 2290.8 0 -2.32799e+06 2349.9 0 -2.33691e+06 2409.57 0 -2.34606e+06 2469.83 0 -2.35544e+06 2530.7 0 -2.36504e+06 2592.17 0 -2.37488e+06 2654.28 0 -2.38495e+06 2717.03 0 -2.39526e+06 2780.43 0 -2.40581e+06 2844.49 0 -2.41659e+06 2909.24 0 -2.42763e+06 2974.67 0 -2.4389e+06 3040.79 0 -2.45043e+06 3107.61 0 -2.46221e+06 3175.14 0 -2.47425e+06 3243.39 0 -2.48654e+06 3312.35 0 -2.49909e+06 3382.02 0 -2.5119e+06 3452.4 0 -2.52498e+06 3523.49 0 -2.53833e+06 3595.27 0 -2.55195e+06 3667.74 0 -2.56584e+06 3740.88 0 -2.58001e+06 3814.66 0 -2.59445e+06 3889.06 0 -2.60918e+06 3964.04 0 -2.62418e+06 4039.57 0 -2.63947e+06 4115.61 0 -2.65505e+06 4192.09 0 -2.67091e+06 4268.95 0 -2.68707e+06 4346.12 0 -2.70351e+06 4423.52 0 -2.72024e+06 4501.04 0 -2.73727e+06 4578.58 0 -2.75458e+06 4656.02 0 -2.77219e+06 4733.21 0 -2.79008e+06 4809.99 0 -2.80826e+06 4886.18 0 -2.82673e+06 4961.59 0 -2.84547e+06 5035.99 0 -2.8645e+06 5109.14 0 -2.88379e+06 5180.76 0 -2.90335e+06 5250.54 0 -2.92317e+06 5318.15 0 -2.94323e+06 5383.23 0 -2.96354e+06 5445.36 0 -2.98407e+06 5504.1 0 -3.00481e+06 5558.98 0 -3.02576e+06 5609.48 0 -3.04688e+06 5655.01 0 -3.06816e+06 5694.98 0 -3.08959e+06 5728.74 0 -3.11112e+06 5755.57 0 -3.13274e+06 5774.75 0 -3.15442e+06 5785.48 0 -3.17612e+06 5786.93 0 -3.19781e+06 5778.26 0 -3.21945e+06 5758.55 0 -3.24099e+06 5726.91 0 -3.26239e+06 5682.39 0 -3.28359e+06 5624.05 0 -3.30455e+06 5550.97 0 -3.32521e+06 5462.23 0 -3.3455e+06 5356.96 0 -3.36537e+06 5234.35 0 -3.38474e+06 5093.64 0 -3.40355e+06 4934.21 0 -3.42173e+06 4755.52 0 -3.43919e+06 4557.2 0 -3.45588e+06 4339.03 0 -3.47172e+06 4100.99 0 -3.48662e+06 3843.26 0 -3.50052e+06 3566.26 0 -3.51335e+06 3270.64 0 -3.52503e+06 2957.3 0 -3.53551e+06 2627.39 0 -3.54472e+06 2282.33 0 -3.55261e+06 1923.77 0 -3.55914e+06 1553.56 0 -3.56425e+06 1173.78 0 -3.56793e+06 786.664 0 -3.57015e+06 394.585 0 -3.57089e+06 1.65851e-06 0 -2.13325e+06 0 0 -2.13333e+06 70.7498 0 -2.1336e+06 141.515 0 -2.13404e+06 212.312 0 -2.13466e+06 283.155 0 -2.13546e+06 354.06 0 -2.13643e+06 425.044 0 -2.13758e+06 496.121 0 -2.13891e+06 567.308 0 -2.14042e+06 638.621 0 -2.14211e+06 710.075 0 -2.14397e+06 781.686 0 -2.14601e+06 853.471 0 -2.14824e+06 925.446 0 -2.15064e+06 997.627 0 -2.15323e+06 1070.03 0 -2.15599e+06 1142.68 0 -2.15894e+06 1215.58 0 -2.16207e+06 1288.75 0 -2.16538e+06 1362.22 0 -2.16888e+06 1435.99 0 -2.17256e+06 1510.09 0 -2.17643e+06 1584.53 0 -2.18049e+06 1659.34 0 -2.18473e+06 1734.52 0 -2.18916e+06 1810.11 0 -2.19378e+06 1886.11 0 -2.19859e+06 1962.55 0 -2.20359e+06 2039.44 0 -2.20879e+06 2116.81 0 -2.21418e+06 2194.67 0 -2.21976e+06 2273.05 0 -2.22554e+06 2351.97 0 -2.23152e+06 2431.44 0 -2.2377e+06 2511.49 0 -2.24408e+06 2592.13 0 -2.25066e+06 2673.39 0 -2.25745e+06 2755.3 0 -2.26444e+06 2837.86 0 -2.27164e+06 2921.11 0 -2.27904e+06 3005.07 0 -2.28666e+06 3089.75 0 -2.29449e+06 3175.18 0 -2.30254e+06 3261.38 0 -2.3108e+06 3348.38 0 -2.31928e+06 3436.19 0 -2.32798e+06 3524.84 0 -2.3369e+06 3614.35 0 -2.34605e+06 3704.74 0 -2.35543e+06 3796.03 0 -2.36503e+06 3888.25 0 -2.37487e+06 3981.41 0 -2.38494e+06 4075.53 0 -2.39525e+06 4170.63 0 -2.4058e+06 4266.73 0 -2.41658e+06 4363.84 0 -2.42762e+06 4461.98 0 -2.43889e+06 4561.17 0 -2.45042e+06 4661.4 0 -2.4622e+06 4762.7 0 -2.47424e+06 4865.07 0 -2.48653e+06 4968.5 0 -2.49908e+06 5073.01 0 -2.51189e+06 5178.59 0 -2.52497e+06 5285.22 0 -2.53832e+06 5392.89 0 -2.55194e+06 5501.6 0 -2.56583e+06 5611.3 0 -2.57999e+06 5721.97 0 -2.59444e+06 5833.57 0 -2.60916e+06 5946.05 0 -2.62417e+06 6059.35 0 -2.63946e+06 6173.4 0 -2.65504e+06 6288.12 0 -2.6709e+06 6403.42 0 -2.68705e+06 6519.18 0 -2.7035e+06 6635.27 0 -2.72023e+06 6751.56 0 -2.73725e+06 6867.88 0 -2.75457e+06 6984.03 0 -2.77217e+06 7099.82 0 -2.79007e+06 7214.99 0 -2.80825e+06 7329.29 0 -2.82671e+06 7442.41 0 -2.84546e+06 7554.02 0 -2.86448e+06 7663.74 0 -2.88378e+06 7771.18 0 -2.90334e+06 7875.86 0 -2.92316e+06 7977.28 0 -2.94322e+06 8074.9 0 -2.96353e+06 8168.11 0 -2.98406e+06 8256.24 0 -3.00481e+06 8338.57 0 -3.02575e+06 8414.32 0 -3.04687e+06 8482.64 0 -3.06816e+06 8542.61 0 -3.08958e+06 8593.26 0 -3.11112e+06 8633.53 0 -3.13274e+06 8662.31 0 -3.15442e+06 8678.42 0 -3.17613e+06 8680.63 0 -3.19782e+06 8667.63 0 -3.21945e+06 8638.1 0 -3.241e+06 8590.65 0 -3.2624e+06 8523.89 0 -3.2836e+06 8436.4 0 -3.30457e+06 8326.8 0 -3.32522e+06 8193.71 0 -3.34552e+06 8035.83 0 -3.36539e+06 7851.92 0 -3.38476e+06 7640.88 0 -3.40358e+06 7401.74 0 -3.42176e+06 7133.72 0 -3.43923e+06 6836.24 0 -3.45592e+06 6508.99 0 -3.47176e+06 6151.92 0 -3.48666e+06 5765.32 0 -3.50057e+06 5349.8 0 -3.5134e+06 4906.35 0 -3.52508e+06 4436.31 0 -3.53557e+06 3941.43 0 -3.54478e+06 3423.8 0 -3.55267e+06 2885.91 0 -3.5592e+06 2330.55 0 -3.56432e+06 1760.83 0 -3.568e+06 1180.11 0 -3.57021e+06 591.933 0 -3.57095e+06 6.31437e-07 0 -2.13323e+06 0 0 -2.13332e+06 94.3326 0 -2.13359e+06 188.686 0 -2.13403e+06 283.081 0 -2.13465e+06 377.538 0 -2.13545e+06 472.078 0 -2.13642e+06 566.723 0 -2.13757e+06 661.492 0 -2.1389e+06 756.408 0 -2.14041e+06 851.49 0 -2.14209e+06 946.762 0 -2.14396e+06 1042.24 0 -2.146e+06 1137.96 0 -2.14823e+06 1233.92 0 -2.15063e+06 1330.16 0 -2.15321e+06 1426.7 0 -2.15598e+06 1523.56 0 -2.15893e+06 1620.76 0 -2.16206e+06 1718.33 0 -2.16537e+06 1816.28 0 -2.16887e+06 1914.64 0 -2.17255e+06 2013.44 0 -2.17642e+06 2112.7 0 -2.18047e+06 2212.44 0 -2.18472e+06 2312.69 0 -2.18915e+06 2413.46 0 -2.19377e+06 2514.8 0 -2.19858e+06 2616.72 0 -2.20358e+06 2719.24 0 -2.20878e+06 2822.4 0 -2.21416e+06 2926.22 0 -2.21975e+06 3030.72 0 -2.22553e+06 3135.94 0 -2.23151e+06 3241.9 0 -2.23769e+06 3348.63 0 -2.24407e+06 3456.16 0 -2.25065e+06 3564.51 0 -2.25743e+06 3673.71 0 -2.26442e+06 3783.8 0 -2.27162e+06 3894.8 0 -2.27903e+06 4006.73 0 -2.28665e+06 4119.64 0 -2.29448e+06 4233.55 0 -2.30252e+06 4348.49 0 -2.31079e+06 4464.48 0 -2.31927e+06 4581.56 0 -2.32797e+06 4699.76 0 -2.33689e+06 4819.11 0 -2.34604e+06 4939.63 0 -2.35541e+06 5061.35 0 -2.36502e+06 5184.3 0 -2.37486e+06 5308.51 0 -2.38493e+06 5434.01 0 -2.39523e+06 5560.81 0 -2.40578e+06 5688.94 0 -2.41657e+06 5818.43 0 -2.4276e+06 5949.28 0 -2.43888e+06 6081.53 0 -2.45041e+06 6215.18 0 -2.46219e+06 6350.24 0 -2.47422e+06 6486.73 0 -2.48651e+06 6624.64 0 -2.49906e+06 6763.99 0 -2.51188e+06 6904.75 0 -2.52496e+06 7046.93 0 -2.5383e+06 7190.5 0 -2.55192e+06 7335.43 0 -2.56581e+06 7481.71 0 -2.57998e+06 7629.27 0 -2.59442e+06 7778.07 0 -2.60915e+06 7928.04 0 -2.62415e+06 8079.11 0 -2.63944e+06 8231.18 0 -2.65502e+06 8384.15 0 -2.67088e+06 8537.88 0 -2.68704e+06 8692.22 0 -2.70348e+06 8847.02 0 -2.72021e+06 9002.08 0 -2.73724e+06 9157.17 0 -2.75455e+06 9312.06 0 -2.77216e+06 9466.44 0 -2.79005e+06 9620.02 0 -2.80823e+06 9772.42 0 -2.8267e+06 9923.26 0 -2.84544e+06 10072.1 0 -2.86447e+06 10218.4 0 -2.88376e+06 10361.6 0 -2.90332e+06 10501.2 0 -2.92314e+06 10636.5 0 -2.94321e+06 10766.7 0 -2.96351e+06 10891 0 -2.98405e+06 11008.5 0 -3.00479e+06 11118.3 0 -3.02574e+06 11219.3 0 -3.04686e+06 11310.4 0 -3.06815e+06 11390.4 0 -3.08957e+06 11458 0 -3.11111e+06 11511.7 0 -3.13274e+06 11550.1 0 -3.15442e+06 11571.6 0 -3.17613e+06 11574.6 0 -3.19782e+06 11557.3 0 -3.21946e+06 11518 0 -3.24101e+06 11454.7 0 -3.26241e+06 11365.8 0 -3.28362e+06 11249.1 0 -3.30458e+06 11103 0 -3.32525e+06 10925.6 0 -3.34555e+06 10715.2 0 -3.36542e+06 10470 0 -3.3848e+06 10188.6 0 -3.40362e+06 9869.79 0 -3.4218e+06 9512.44 0 -3.43928e+06 9115.81 0 -3.45597e+06 8679.48 0 -3.47182e+06 8203.38 0 -3.48673e+06 7687.89 0 -3.50063e+06 7133.84 0 -3.51347e+06 6542.53 0 -3.52516e+06 5915.77 0 -3.53564e+06 5255.86 0 -3.54486e+06 4565.63 0 -3.55276e+06 3848.36 0 -3.55929e+06 3107.8 0 -3.56441e+06 2348.08 0 -3.56809e+06 1573.68 0 -3.57031e+06 789.348 0 -3.57105e+06 -9.95351e-07 0 -2.13322e+06 0 0 -2.13331e+06 117.915 0 -2.13357e+06 235.856 0 -2.13402e+06 353.849 0 -2.13464e+06 471.92 0 -2.13543e+06 590.094 0 -2.13641e+06 708.399 0 -2.13756e+06 826.86 0 -2.13889e+06 945.504 0 -2.14039e+06 1064.36 0 -2.14208e+06 1183.45 0 -2.14394e+06 1302.8 0 -2.14599e+06 1422.44 0 -2.14821e+06 1542.39 0 -2.15062e+06 1662.69 0 -2.1532e+06 1783.37 0 -2.15597e+06 1904.44 0 -2.15891e+06 2025.94 0 -2.16204e+06 2147.89 0 -2.16536e+06 2270.33 0 -2.16885e+06 2393.29 0 -2.17254e+06 2516.79 0 -2.1764e+06 2640.86 0 -2.18046e+06 2765.53 0 -2.1847e+06 2890.84 0 -2.18913e+06 3016.81 0 -2.19375e+06 3143.48 0 -2.19856e+06 3270.88 0 -2.20356e+06 3399.03 0 -2.20876e+06 3527.98 0 -2.21415e+06 3657.75 0 -2.21973e+06 3788.38 0 -2.22551e+06 3919.9 0 -2.23149e+06 4052.35 0 -2.23767e+06 4185.76 0 -2.24405e+06 4320.17 0 -2.25063e+06 4455.61 0 -2.25742e+06 4592.11 0 -2.26441e+06 4729.72 0 -2.27161e+06 4868.46 0 -2.27901e+06 5008.39 0 -2.28663e+06 5149.52 0 -2.29446e+06 5291.9 0 -2.30251e+06 5435.57 0 -2.31077e+06 5580.56 0 -2.31925e+06 5726.91 0 -2.32795e+06 5874.66 0 -2.33687e+06 6023.84 0 -2.34602e+06 6174.49 0 -2.3554e+06 6326.65 0 -2.365e+06 6480.34 0 -2.37484e+06 6635.6 0 -2.38491e+06 6792.47 0 -2.39522e+06 6950.97 0 -2.40576e+06 7111.13 0 -2.41655e+06 7272.99 0 -2.42758e+06 7436.56 0 -2.43886e+06 7601.86 0 -2.45039e+06 7768.92 0 -2.46217e+06 7937.75 0 -2.4742e+06 8108.36 0 -2.48649e+06 8280.76 0 -2.49904e+06 8454.94 0 -2.51186e+06 8630.89 0 -2.52493e+06 8808.61 0 -2.53828e+06 8988.08 0 -2.5519e+06 9169.25 0 -2.56579e+06 9352.09 0 -2.57995e+06 9536.54 0 -2.5944e+06 9722.55 0 -2.60912e+06 9910.02 0 -2.62413e+06 10098.9 0 -2.63942e+06 10288.9 0 -2.655e+06 10480.2 0 -2.67086e+06 10672.3 0 -2.68701e+06 10865.3 0 -2.70346e+06 11058.8 0 -2.72019e+06 11252.6 0 -2.73721e+06 11446.5 0 -2.75453e+06 11640.1 0 -2.77213e+06 11833.1 0 -2.79003e+06 12025.1 0 -2.80821e+06 12215.6 0 -2.82667e+06 12404.1 0 -2.84542e+06 12590.2 0 -2.86444e+06 12773.1 0 -2.88374e+06 12952.2 0 -2.9033e+06 13126.7 0 -2.92312e+06 13295.8 0 -2.94319e+06 13458.5 0 -2.96349e+06 13613.9 0 -2.98403e+06 13760.9 0 -3.00478e+06 13898.1 0 -3.02572e+06 14024.5 0 -3.04685e+06 14138.4 0 -3.06814e+06 14238.4 0 -3.08956e+06 14322.9 0 -3.11111e+06 14390.1 0 -3.13273e+06 14438.2 0 -3.15442e+06 14465.1 0 -3.17613e+06 14468.9 0 -3.19782e+06 14447.4 0 -3.21947e+06 14398.2 0 -3.24102e+06 14319.3 0 -3.26242e+06 14208.1 0 -3.28364e+06 14062.4 0 -3.30461e+06 13879.9 0 -3.32528e+06 13658.1 0 -3.34558e+06 13395.1 0 -3.36546e+06 13088.7 0 -3.38484e+06 12737 0 -3.40367e+06 12338.5 0 -3.42186e+06 11891.9 0 -3.43934e+06 11396.1 0 -3.45604e+06 10850.7 0 -3.47189e+06 10255.5 0 -3.48681e+06 9611.15 0 -3.50072e+06 8918.55 0 -3.51356e+06 8179.35 0 -3.52526e+06 7395.82 0 -3.53575e+06 6570.84 0 -3.54497e+06 5707.94 0 -3.55287e+06 4811.23 0 -3.5594e+06 3885.38 0 -3.56452e+06 2935.59 0 -3.5682e+06 1967.43 0 -3.57042e+06 986.852 0 -3.57116e+06 1.11992e-07 0 -2.1332e+06 0 0 -2.13329e+06 141.497 0 -2.13356e+06 283.025 0 -2.134e+06 424.616 0 -2.13462e+06 566.3 0 -2.13541e+06 708.108 0 -2.13639e+06 850.073 0 -2.13754e+06 992.225 0 -2.13887e+06 1134.6 0 -2.14038e+06 1277.22 0 -2.14206e+06 1420.12 0 -2.14393e+06 1563.34 0 -2.14597e+06 1706.91 0 -2.14819e+06 1850.86 0 -2.1506e+06 1995.22 0 -2.15318e+06 2140.02 0 -2.15595e+06 2285.31 0 -2.1589e+06 2431.11 0 -2.16203e+06 2577.45 0 -2.16534e+06 2724.38 0 -2.16884e+06 2871.93 0 -2.17252e+06 3020.12 0 -2.17639e+06 3169.01 0 -2.18044e+06 3318.61 0 -2.18468e+06 3468.98 0 -2.18911e+06 3620.15 0 -2.19373e+06 3772.15 0 -2.19854e+06 3925.02 0 -2.20355e+06 4078.81 0 -2.20874e+06 4233.54 0 -2.21413e+06 4389.27 0 -2.21971e+06 4546.02 0 -2.22549e+06 4703.85 0 -2.23147e+06 4862.79 0 -2.23765e+06 5022.88 0 -2.24403e+06 5184.16 0 -2.25061e+06 5346.69 0 -2.2574e+06 5510.49 0 -2.26439e+06 5675.62 0 -2.27159e+06 5842.11 0 -2.27899e+06 6010.02 0 -2.28661e+06 6179.37 0 -2.29444e+06 6350.23 0 -2.30249e+06 6522.63 0 -2.31075e+06 6696.62 0 -2.31923e+06 6872.24 0 -2.32793e+06 7049.54 0 -2.33685e+06 7228.56 0 -2.346e+06 7409.33 0 -2.35537e+06 7591.92 0 -2.36498e+06 7776.34 0 -2.37481e+06 7962.66 0 -2.38488e+06 8150.9 0 -2.39519e+06 8341.1 0 -2.40574e+06 8533.29 0 -2.41652e+06 8727.52 0 -2.42756e+06 8923.8 0 -2.43883e+06 9122.16 0 -2.45036e+06 9322.64 0 -2.46214e+06 9525.23 0 -2.47417e+06 9729.96 0 -2.48646e+06 9936.84 0 -2.49902e+06 10145.9 0 -2.51183e+06 10357 0 -2.52491e+06 10570.3 0 -2.53825e+06 10785.6 0 -2.55187e+06 11003 0 -2.56576e+06 11222.4 0 -2.57993e+06 11443.8 0 -2.59437e+06 11667 0 -2.6091e+06 11892 0 -2.6241e+06 12118.6 0 -2.63939e+06 12346.7 0 -2.65497e+06 12576.1 0 -2.67083e+06 12806.8 0 -2.68698e+06 13038.3 0 -2.70343e+06 13270.5 0 -2.72016e+06 13503.1 0 -2.73719e+06 13735.8 0 -2.7545e+06 13968.1 0 -2.77211e+06 14199.7 0 -2.79e+06 14430.1 0 -2.80818e+06 14658.8 0 -2.82665e+06 14885.1 0 -2.84539e+06 15108.3 0 -2.86442e+06 15327.9 0 -2.88371e+06 15542.8 0 -2.90328e+06 15752.2 0 -2.9231e+06 15955.2 0 -2.94316e+06 16150.5 0 -2.96347e+06 16337 0 -2.98401e+06 16513.4 0 -3.00476e+06 16678.2 0 -3.02571e+06 16829.8 0 -3.04683e+06 16966.6 0 -3.06812e+06 17086.7 0 -3.08955e+06 17188.2 0 -3.1111e+06 17268.9 0 -3.13273e+06 17326.6 0 -3.15442e+06 17359.1 0 -3.17613e+06 17363.7 0 -3.19783e+06 17337.9 0 -3.21948e+06 17279.1 0 -3.24103e+06 17184.4 0 -3.26244e+06 17051.1 0 -3.28366e+06 16876.3 0 -3.30464e+06 16657.4 0 -3.32531e+06 16391.4 0 -3.34562e+06 16075.8 0 -3.36551e+06 15708.2 0 -3.3849e+06 15286.3 0 -3.40373e+06 14808.1 0 -3.42193e+06 14272.2 0 -3.43942e+06 13677.3 0 -3.45613e+06 13022.7 0 -3.47198e+06 12308.6 0 -3.4869e+06 11535.3 0 -3.50083e+06 10704.1 0 -3.51367e+06 9816.96 0 -3.52537e+06 8876.61 0 -3.53587e+06 7886.5 0 -3.5451e+06 6850.85 0 -3.553e+06 5774.61 0 -3.55954e+06 4663.4 0 -3.56466e+06 3523.42 0 -3.56835e+06 2361.41 0 -3.57057e+06 1184.47 0 -3.57131e+06 1.42958e-07 0 -2.13318e+06 0 0 -2.13327e+06 165.079 0 -2.13354e+06 330.193 0 -2.13398e+06 495.381 0 -2.1346e+06 660.677 0 -2.13539e+06 826.119 0 -2.13637e+06 991.743 0 -2.13752e+06 1157.59 0 -2.13885e+06 1323.68 0 -2.14036e+06 1490.08 0 -2.14204e+06 1656.8 0 -2.14391e+06 1823.89 0 -2.14595e+06 1991.38 0 -2.14817e+06 2159.32 0 -2.15058e+06 2327.73 0 -2.15316e+06 2496.67 0 -2.15593e+06 2666.17 0 -2.15887e+06 2836.27 0 -2.162e+06 3007 0 -2.16532e+06 3178.42 0 -2.16881e+06 3350.55 0 -2.1725e+06 3523.44 0 -2.17637e+06 3697.14 0 -2.18042e+06 3871.68 0 -2.18466e+06 4047.11 0 -2.18909e+06 4223.47 0 -2.19371e+06 4400.8 0 -2.19852e+06 4579.15 0 -2.20352e+06 4758.56 0 -2.20872e+06 4939.09 0 -2.21411e+06 5120.77 0 -2.21969e+06 5303.65 0 -2.22547e+06 5487.77 0 -2.23145e+06 5673.2 0 -2.23763e+06 5859.97 0 -2.24401e+06 6048.14 0 -2.25059e+06 6237.74 0 -2.25737e+06 6428.85 0 -2.26436e+06 6621.49 0 -2.27156e+06 6815.73 0 -2.27897e+06 7011.62 0 -2.28659e+06 7209.2 0 -2.29442e+06 7408.54 0 -2.30246e+06 7609.67 0 -2.31072e+06 7812.65 0 -2.3192e+06 8017.54 0 -2.3279e+06 8224.39 0 -2.33682e+06 8433.24 0 -2.34597e+06 8644.14 0 -2.35535e+06 8857.15 0 -2.36495e+06 9072.32 0 -2.37479e+06 9289.68 0 -2.38486e+06 9509.29 0 -2.39516e+06 9731.19 0 -2.40571e+06 9955.42 0 -2.4165e+06 10182 0 -2.42753e+06 10411 0 -2.43881e+06 10642.4 0 -2.45033e+06 10876.3 0 -2.46211e+06 11112.7 0 -2.47414e+06 11351.5 0 -2.48643e+06 11592.9 0 -2.49899e+06 11836.7 0 -2.5118e+06 12083.1 0 -2.52488e+06 12331.9 0 -2.53822e+06 12583.1 0 -2.55184e+06 12836.8 0 -2.56573e+06 13092.8 0 -2.5799e+06 13351 0 -2.59434e+06 13611.4 0 -2.60906e+06 13873.9 0 -2.62407e+06 14138.3 0 -2.63936e+06 14404.4 0 -2.65493e+06 14672.1 0 -2.6708e+06 14941.2 0 -2.68695e+06 15211.3 0 -2.70339e+06 15482.2 0 -2.72013e+06 15753.6 0 -2.73715e+06 16025.1 0 -2.75447e+06 16296.2 0 -2.77207e+06 16566.4 0 -2.78997e+06 16835.2 0 -2.80815e+06 17102 0 -2.82661e+06 17366 0 -2.84536e+06 17626.6 0 -2.86439e+06 17882.7 0 -2.88368e+06 18133.5 0 -2.90325e+06 18377.9 0 -2.92307e+06 18614.7 0 -2.94314e+06 18842.7 0 -2.96345e+06 19060.3 0 -2.98398e+06 19266.2 0 -3.00473e+06 19458.5 0 -3.02568e+06 19635.5 0 -3.04682e+06 19795.1 0 -3.06811e+06 19935.3 0 -3.08954e+06 20053.8 0 -3.11109e+06 20148.1 0 -3.13272e+06 20215.6 0 -3.15441e+06 20253.5 0 -3.17613e+06 20259 0 -3.19783e+06 20229 0 -3.21949e+06 20160.5 0 -3.24105e+06 20050.2 0 -3.26246e+06 19894.8 0 -3.28369e+06 19691.1 0 -3.30467e+06 19435.7 0 -3.32535e+06 19125.5 0 -3.34567e+06 18757.5 0 -3.36556e+06 18328.7 0 -3.38496e+06 17836.5 0 -3.4038e+06 17278.7 0 -3.42201e+06 16653.5 0 -3.43951e+06 15959.5 0 -3.45623e+06 15195.9 0 -3.47209e+06 14362.7 0 -3.48702e+06 13460.4 0 -3.50095e+06 12490.6 0 -3.5138e+06 11455.5 0 -3.52551e+06 10358.3 0 -3.53602e+06 9202.96 0 -3.54525e+06 7994.48 0 -3.55316e+06 6738.62 0 -3.5597e+06 5441.93 0 -3.56483e+06 4111.65 0 -3.56852e+06 2755.64 0 -3.57074e+06 1382.22 0 -3.57148e+06 4.88944e-08 0 -2.13316e+06 0 0 -2.13325e+06 188.659 0 -2.13351e+06 377.36 0 -2.13396e+06 566.144 0 -2.13457e+06 755.052 0 -2.13537e+06 944.127 0 -2.13634e+06 1133.41 0 -2.1375e+06 1322.94 0 -2.13883e+06 1512.77 0 -2.14033e+06 1702.93 0 -2.14202e+06 1893.46 0 -2.14388e+06 2084.42 0 -2.14593e+06 2275.84 0 -2.14815e+06 2467.77 0 -2.15055e+06 2660.24 0 -2.15314e+06 2853.31 0 -2.1559e+06 3047.02 0 -2.15885e+06 3241.42 0 -2.16198e+06 3436.54 0 -2.16529e+06 3632.44 0 -2.16879e+06 3829.16 0 -2.17247e+06 4026.75 0 -2.17634e+06 4225.26 0 -2.18039e+06 4424.73 0 -2.18464e+06 4625.22 0 -2.18907e+06 4826.77 0 -2.19369e+06 5029.43 0 -2.1985e+06 5233.26 0 -2.2035e+06 5438.3 0 -2.20869e+06 5644.61 0 -2.21408e+06 5852.24 0 -2.21966e+06 6061.25 0 -2.22545e+06 6271.68 0 -2.23142e+06 6483.59 0 -2.2376e+06 6697.04 0 -2.24398e+06 6912.08 0 -2.25056e+06 7128.77 0 -2.25735e+06 7347.17 0 -2.26434e+06 7567.34 0 -2.27153e+06 7789.33 0 -2.27894e+06 8013.19 0 -2.28656e+06 8239 0 -2.29439e+06 8466.81 0 -2.30243e+06 8696.67 0 -2.31069e+06 8928.65 0 -2.31917e+06 9162.81 0 -2.32787e+06 9399.2 0 -2.33679e+06 9637.88 0 -2.34594e+06 9878.91 0 -2.35532e+06 10122.3 0 -2.36492e+06 10368.2 0 -2.37476e+06 10616.7 0 -2.38483e+06 10867.6 0 -2.39513e+06 11121.2 0 -2.40568e+06 11377.5 0 -2.41646e+06 11636.5 0 -2.42749e+06 11898.2 0 -2.43877e+06 12162.7 0 -2.4503e+06 12429.9 0 -2.46208e+06 12700.1 0 -2.47411e+06 12973 0 -2.4864e+06 13248.9 0 -2.49895e+06 13527.6 0 -2.51176e+06 13809.1 0 -2.52484e+06 14093.5 0 -2.53819e+06 14380.6 0 -2.5518e+06 14670.5 0 -2.56569e+06 14963 0 -2.57986e+06 15258.2 0 -2.5943e+06 15555.8 0 -2.60902e+06 15855.8 0 -2.62403e+06 16157.9 0 -2.63932e+06 16462.1 0 -2.6549e+06 16768.1 0 -2.67076e+06 17075.6 0 -2.68691e+06 17384.3 0 -2.70335e+06 17694 0 -2.72009e+06 18004.1 0 -2.73711e+06 18314.4 0 -2.75443e+06 18624.3 0 -2.77203e+06 18933.1 0 -2.78993e+06 19240.4 0 -2.80811e+06 19545.3 0 -2.82658e+06 19847.1 0 -2.84533e+06 20144.9 0 -2.86435e+06 20437.6 0 -2.88365e+06 20724.3 0 -2.90321e+06 21003.7 0 -2.92303e+06 21274.4 0 -2.94311e+06 21535 0 -2.96342e+06 21783.8 0 -2.98396e+06 22019.2 0 -3.00471e+06 22239.1 0 -3.02566e+06 22441.4 0 -3.04679e+06 22624 0 -3.06809e+06 22784.4 0 -3.08952e+06 22919.9 0 -3.11107e+06 23027.7 0 -3.13271e+06 23105 0 -3.15441e+06 23148.5 0 -3.17613e+06 23154.9 0 -3.19784e+06 23120.9 0 -3.2195e+06 23042.7 0 -3.24107e+06 22916.8 0 -3.26249e+06 22739.4 0 -3.28372e+06 22506.7 0 -3.30471e+06 22215 0 -3.3254e+06 21860.7 0 -3.34573e+06 21440.2 0 -3.36563e+06 20950.3 0 -3.38504e+06 20387.9 0 -3.40389e+06 19750.5 0 -3.4221e+06 19036.1 0 -3.43961e+06 18242.9 0 -3.45634e+06 17370.3 0 -3.47221e+06 16418 0 -3.48715e+06 15386.8 0 -3.50109e+06 14278.3 0 -3.51396e+06 13095.2 0 -3.52567e+06 11841 0 -3.53618e+06 10520.4 0 -3.54542e+06 9138.96 0 -3.55334e+06 7703.36 0 -3.55989e+06 6221.05 0 -3.56502e+06 4700.34 0 -3.56871e+06 3150.19 0 -3.57094e+06 1580.12 0 -3.57168e+06 5.47618e-07 0 -2.13313e+06 0 0 -2.13322e+06 212.239 0 -2.13349e+06 424.525 0 -2.13393e+06 636.905 0 -2.13455e+06 849.425 0 -2.13534e+06 1062.13 0 -2.13632e+06 1275.07 0 -2.13747e+06 1488.29 0 -2.1388e+06 1701.84 0 -2.14031e+06 1915.77 0 -2.14199e+06 2130.12 0 -2.14386e+06 2344.95 0 -2.1459e+06 2560.29 0 -2.14812e+06 2776.21 0 -2.15053e+06 2992.74 0 -2.15311e+06 3209.94 0 -2.15587e+06 3427.86 0 -2.15882e+06 3646.55 0 -2.16195e+06 3866.06 0 -2.16527e+06 4086.45 0 -2.16876e+06 4307.76 0 -2.17244e+06 4530.04 0 -2.17631e+06 4753.36 0 -2.18037e+06 4977.77 0 -2.18461e+06 5203.31 0 -2.18904e+06 5430.05 0 -2.19366e+06 5658.05 0 -2.19847e+06 5887.35 0 -2.20347e+06 6118.02 0 -2.20866e+06 6350.11 0 -2.21405e+06 6583.7 0 -2.21963e+06 6818.82 0 -2.22542e+06 7055.55 0 -2.23139e+06 7293.95 0 -2.23757e+06 7534.08 0 -2.24395e+06 7776 0 -2.25053e+06 8019.77 0 -2.25731e+06 8265.47 0 -2.2643e+06 8513.15 0 -2.2715e+06 8762.88 0 -2.27891e+06 9014.73 0 -2.28653e+06 9268.76 0 -2.29436e+06 9525.04 0 -2.3024e+06 9783.63 0 -2.31066e+06 10044.6 0 -2.31914e+06 10308 0 -2.32784e+06 10574 0 -2.33676e+06 10842.5 0 -2.34591e+06 11113.6 0 -2.35528e+06 11387.5 0 -2.36489e+06 11664.1 0 -2.37472e+06 11943.6 0 -2.38479e+06 12226 0 -2.3951e+06 12511.2 0 -2.40564e+06 12799.5 0 -2.41643e+06 13090.9 0 -2.42746e+06 13385.3 0 -2.43873e+06 13682.8 0 -2.45026e+06 13983.5 0 -2.46204e+06 14287.4 0 -2.47407e+06 14594.5 0 -2.48636e+06 14904.8 0 -2.49891e+06 15218.4 0 -2.51172e+06 15535.1 0 -2.5248e+06 15855 0 -2.53815e+06 16178 0 -2.55176e+06 16504.1 0 -2.56565e+06 16833.3 0 -2.57982e+06 17165.3 0 -2.59426e+06 17500.1 0 -2.60898e+06 17837.6 0 -2.62399e+06 18177.6 0 -2.63928e+06 18519.8 0 -2.65485e+06 18864 0 -2.67072e+06 19209.9 0 -2.68687e+06 19557.3 0 -2.70331e+06 19905.7 0 -2.72004e+06 20254.7 0 -2.73707e+06 20603.7 0 -2.75438e+06 20952.3 0 -2.77199e+06 21299.8 0 -2.78988e+06 21645.5 0 -2.80807e+06 21988.6 0 -2.82653e+06 22328.2 0 -2.84528e+06 22663.3 0 -2.86431e+06 22992.7 0 -2.88361e+06 23315.3 0 -2.90317e+06 23629.6 0 -2.923e+06 23934.3 0 -2.94307e+06 24227.5 0 -2.96338e+06 24507.6 0 -2.98392e+06 24772.4 0 -3.00468e+06 25019.9 0 -3.02563e+06 25247.7 0 -3.04677e+06 25453.3 0 -3.06807e+06 25633.8 0 -3.08951e+06 25786.4 0 -3.11106e+06 25907.9 0 -3.1327e+06 25995 0 -3.15441e+06 26044.2 0 -3.17613e+06 26051.6 0 -3.19785e+06 26013.5 0 -3.21952e+06 25925.8 0 -3.24109e+06 25784.3 0 -3.26252e+06 25584.9 0 -3.28376e+06 25323.4 0 -3.30476e+06 24995.4 0 -3.32546e+06 24597 0 -3.34579e+06 24124.1 0 -3.3657e+06 23573.1 0 -3.38512e+06 22940.6 0 -3.40398e+06 22223.7 0 -3.42221e+06 21420 0 -3.43973e+06 20527.8 0 -3.45647e+06 19546.1 0 -3.47235e+06 18474.7 0 -3.48731e+06 17314.5 0 -3.50126e+06 16067.3 0 -3.51413e+06 14736.1 0 -3.52586e+06 13324.9 0 -3.53638e+06 11838.9 0 -3.54562e+06 10284.4 0 -3.55355e+06 8668.92 0 -3.5601e+06 7000.86 0 -3.56524e+06 5289.55 0 -3.56893e+06 3545.1 0 -3.57116e+06 1778.21 0 -3.5719e+06 9.1549e-07 0 -2.1331e+06 0 0 -2.13319e+06 235.819 0 -2.13346e+06 471.689 0 -2.1339e+06 707.663 0 -2.1