<?xml version="1.0"?> 
<VTKFile type="StructuredGrid" version="0.1"> 
<StructuredGrid WholeExtent="0 127 0 127 0 0"> 
<Piece Extent="0 127 0 127 0 0"> 
<PointData>
<DataArray type="Float32" Name="|E|" format="ascii" NumberOfComponents="3"> 
-867266 0 0 -867135 7654.96 0 -867016 15310.4 0 -866907 22966.4 0 -866809 30623.1 0 -866721 38280.5 0 -866644 45938.9 0 -866578 53598.2 0 -866522 61258.6 0 -866477 68920.1 0 -866442 76583 0 -866418 84247.1 0 -866405 91912.8 0 -866402 99580.1 0 -866410 107249 0 -866428 114920 0 -866457 122592 0 -866497 130267 0 -866547 137943 0 -866607 145622 0 -866678 153303 0 -866760 160986 0 -866852 168672 0 -866955 176360 0 -867068 184052 0 -867192 191745 0 -867326 199442 0 -867470 207141 0 -867625 214844 0 -867791 222550 0 -867967 230259 0 -868153 237971 0 -868350 245687 0 -868558 253406 0 -868775 261129 0 -869003 268856 0 -869242 276586 0 -869491 284321 0 -869750 292059 0 -870020 299802 0 -870300 307548 0 -870591 315299 0 -870892 323055 0 -871203 330815 0 -871525 338579 0 -871857 346348 0 -872199 354122 0 -872552 361901 0 -872914 369685 0 -873288 377474 0 -873671 385268 0 -874065 393067 0 -874469 400872 0 -874884 408682 0 -875308 416497 0 -875743 424318 0 -876189 432145 0 -876644 439978 0 -877110 447816 0 -877586 455661 0 -878072 463511 0 -878568 471368 0 -879075 479231 0 -879592 487101 0 -880119 494976 0 -880656 502859 0 -881204 510748 0 -881762 518643 0 -882330 526546 0 -882908 534455 0 -883496 542371 0 -884094 550295 0 -884703 558225 0 -885322 566163 0 -885951 574108 0 -886590 582061 0 -887239 590021 0 -887899 597989 0 -888569 605964 0 -889248 613947 0 -889938 621938 0 -890639 629937 0 -891349 637944 0 -892069 645959 0 -892800 653982 0 -893541 662013 0 -894292 670053 0 -895053 678101 0 -895824 686158 0 -896606 694224 0 -897397 702298 0 -898199 710381 0 -899011 718473 0 -899833 726574 0 -900666 734683 0 -901508 742802 0 -902361 750930 0 -903224 759068 0 -904098 767215 0 -904981 775371 0 -905875 783537 0 -906779 791712 0 -907693 799898 0 -908618 808093 0 -909553 816297 0 -910498 824512 0 -911454 832737 0 -912420 840972 0 -913396 849217 0 -914383 857473 0 -915380 865739 0 -916387 874015 0 -917405 882302 0 -918434 890599 0 -919472 898908 0 -920522 907227 0 -921582 915556 0 -922652 923897 0 -923733 932249 0 -924825 940612 0 -925927 948987 0 -927040 957372 0 -928164 965769 0 -929299 974178 0 -930444 982598 0 -931600 991029 0 -932767 999473 0 -933945 1.00793e+06 0 -860759 0 0 -860629 7694.14 0 -860511 15388.8 0 -860403 23083.9 0 -860306 30779.8 0 -860219 38476.4 0 -860143 46174 0 -860077 53872.5 0 -860022 61572 0 -859978 69272.8 0 -859944 76974.8 0 -859921 84678.2 0 -859909 92383.1 0 -859907 100090 0 -859916 107798 0 -859935 115508 0 -859965 123219 0 -860005 130933 0 -860056 138649 0 -860117 146367 0 -860189 154087 0 -860272 161810 0 -860365 169535 0 -860468 177263 0 -860582 184993 0 -860707 192726 0 -860842 200462 0 -860987 208202 0 -861143 215944 0 -861310 223689 0 -861487 231437 0 -861674 239189 0 -861872 246945 0 -862080 254704 0 -862299 262466 0 -862528 270233 0 -862767 278003 0 -863017 285777 0 -863277 293555 0 -863548 301337 0 -863829 309124 0 -864121 316915 0 -864422 324710 0 -864735 332510 0 -865057 340315 0 -865390 348124 0 -865733 355938 0 -866087 363757 0 -866451 371581 0 -866825 379410 0 -867209 387244 0 -867604 395084 0 -868009 402929 0 -868424 410779 0 -868850 418636 0 -869286 426497 0 -869732 434365 0 -870188 442238 0 -870655 450117 0 -871132 458003 0 -871619 465894 0 -872117 473792 0 -872624 481696 0 -873142 489606 0 -873670 497523 0 -874209 505447 0 -874757 513377 0 -875316 521314 0 -875885 529258 0 -876464 537209 0 -877053 545167 0 -877653 553132 0 -878262 561104 0 -878882 569084 0 -879512 577071 0 -880152 585065 0 -880803 593067 0 -881463 601077 0 -882134 609094 0 -882815 617120 0 -883506 625153 0 -884207 633194 0 -884919 641244 0 -885640 649301 0 -886372 657367 0 -887114 665441 0 -887866 673524 0 -888629 681616 0 -889401 689715 0 -890184 697824 0 -890977 705942 0 -891780 714068 0 -892593 722203 0 -893417 730348 0 -894250 738501 0 -895094 746664 0 -895948 754836 0 -896813 763017 0 -897687 771208 0 -898572 779409 0 -899468 787619 0 -900373 795839 0 -901289 804069 0 -902215 812309 0 -903151 820558 0 -904098 828818 0 -905055 837088 0 -906023 845368 0 -907001 853659 0 -907989 861960 0 -908988 870271 0 -909997 878593 0 -911016 886926 0 -912046 895269 0 -913087 903624 0 -914138 911989 0 -915200 920365 0 -916272 928753 0 -917355 937151 0 -918449 945561 0 -919553 953983 0 -920668 962415 0 -921794 970860 0 -922930 979316 0 -924078 987783 0 -925236 996263 0 -926405 1.00475e+06 0 -927585 1.01326e+06 0 -854244 0 0 -854116 7733.33 0 -853998 15467.1 0 -853891 23201.5 0 -853795 30936.5 0 -853709 38672.3 0 -853634 46409 0 -853569 54146.7 0 -853515 61885.5 0 -853472 69625.4 0 -853439 77366.6 0 -853417 85109.2 0 -853405 92853.3 0 -853404 100599 0 -853414 108346 0 -853434 116095 0 -853464 123847 0 -853506 131600 0 -853557 139355 0 -853620 147112 0 -853693 154872 0 -853776 162634 0 -853870 170398 0 -853974 178165 0 -854089 185935 0 -854215 193708 0 -854350 201483 0 -854497 209262 0 -854654 217043 0 -854821 224828 0 -854999 232616 0 -855187 240407 0 -855386 248202 0 -855595 256001 0 -855814 263803 0 -856044 271609 0 -856284 279419 0 -856535 287233 0 -856796 295051 0 -857068 302873 0 -857350 310700 0 -857642 318531 0 -857945 326366 0 -858258 334206 0 -858581 342050 0 -858915 349900 0 -859259 357754 0 -859613 365613 0 -859978 373477 0 -860353 381347 0 -860738 389221 0 -861134 397101 0 -861540 404987 0 -861956 412878 0 -862383 420774 0 -862820 428677 0 -863267 436585 0 -863724 444499 0 -864191 452419 0 -864669 460345 0 -865157 468277 0 -865656 476216 0 -866164 484161 0 -866683 492113 0 -867212 500071 0 -867751 508035 0 -868301 516007 0 -868860 523985 0 -869430 531971 0 -870010 539963 0 -870601 547962 0 -871201 555969 0 -871812 563983 0 -872432 572005 0 -873063 580033 0 -873705 588070 0 -874356 596114 0 -875018 604166 0 -875689 612226 0 -876371 620293 0 -877064 628369 0 -877766 636453 0 -878478 644545 0 -879201 652645 0 -879934 660754 0 -880677 668871 0 -881430 676996 0 -882194 685131 0 -882967 693274 0 -883751 701426 0 -884545 709586 0 -885349 717756 0 -886164 725935 0 -886989 734123 0 -887823 742320 0 -888669 750527 0 -889524 758743 0 -890390 766969 0 -891266 775204 0 -892152 783449 0 -893048 791703 0 -893955 799968 0 -894872 808242 0 -895800 816527 0 -896738 824821 0 -897686 833126 0 -898644 841441 0 -899613 849767 0 -900593 858102 0 -901582 866449 0 -902583 874806 0 -903593 883174 0 -904615 891553 0 -905646 899942 0 -906689 908343 0 -907741 916754 0 -908805 925177 0 -909879 933611 0 -910964 942057 0 -912059 950514 0 -913165 958982 0 -914282 967462 0 -915409 975954 0 -916548 984457 0 -917697 992973 0 -918857 1.0015e+06 0 -920028 1.01004e+06 0 -921210 1.01859e+06 0 -847722 0 0 -847594 7772.51 0 -847478 15545.5 0 -847371 23319 0 -847276 31093.2 0 -847191 38868.2 0 -847117 46644.1 0 -847053 54421 0 -847000 62198.9 0 -846958 69978 0 -846926 77758.4 0 -846904 85540.2 0 -846894 93323.5 0 -846894 101108 0 -846904 108895 0 -846925 116683 0 -846957 124474 0 -846999 132266 0 -847051 140060 0 -847114 147857 0 -847188 155656 0 -847272 163457 0 -847367 171261 0 -847472 179068 0 -847588 186877 0 -847714 194689 0 -847851 202504 0 -847998 210322 0 -848156 218143 0 -848324 225967 0 -848503 233794 0 -848692 241626 0 -848891 249460 0 -849101 257298 0 -849322 265140 0 -849552 272986 0 -849793 280836 0 -850045 288689 0 -850307 296547 0 -850579 304409 0 -850862 312275 0 -851155 320146 0 -851459 328021 0 -851773 335901 0 -852097 343786 0 -852431 351675 0 -852776 359570 0 -853132 367469 0 -853497 375374 0 -853873 383283 0 -854259 391198 0 -854656 399119 0 -855062 407044 0 -855479 414976 0 -855907 422913 0 -856344 430856 0 -856792 438805 0 -857250 446760 0 -857719 454720 0 -858198 462687 0 -858687 470661 0 -859186 478640 0 -859695 486626 0 -860215 494619 0 -860745 502618 0 -861285 510624 0 -861835 518637 0 -862396 526657 0 -862966 534684 0 -863547 542718 0 -864138 550759 0 -864740 558807 0 -865351 566863 0 -865973 574926 0 -866605 582997 0 -867247 591075 0 -867899 599161 0 -868562 607256 0 -869235 615357 0 -869918 623467 0 -870611 631586 0 -871314 639712 0 -872027 647846 0 -872751 655989 0 -873485 664141 0 -874229 672301 0 -874983 680470 0 -875748 688647 0 -876522 696833 0 -877307 705028 0 -878102 713233 0 -878908 721446 0 -879723 729668 0 -880549 737900 0 -881385 746141 0 -882232 754392 0 -883088 762652 0 -883955 770921 0 -884832 779201 0 -885720 787490 0 -886617 795789 0 -887525 804098 0 -888444 812417 0 -889373 820747 0 -890312 829086 0 -891261 837436 0 -892221 845796 0 -893191 854167 0 -894172 862549 0 -895163 870941 0 -896165 879344 0 -897177 887757 0 -898200 896182 0 -899233 904618 0 -900277 913065 0 -901331 921523 0 -902396 929992 0 -903472 938473 0 -904558 946965 0 -905655 955469 0 -906763 963985 0 -907882 972512 0 -909011 981052 0 -910151 989603 0 -911302 998166 0 -912464 1.00674e+06 0 -913637 1.01533e+06 0 -914821 1.02393e+06 0 -841192 0 0 -841066 7811.69 0 -840950 15623.8 0 -840845 23436.6 0 -840750 31249.9 0 -840666 39064.1 0 -840593 46879.1 0 -840530 54695.2 0 -840478 62512.3 0 -840436 70330.6 0 -840405 78150.2 0 -840385 85971.2 0 -840375 93793.7 0 -840376 101618 0 -840387 109444 0 -840409 117271 0 -840441 125101 0 -840484 132932 0 -840538 140766 0 -840602 148602 0 -840676 156440 0 -840761 164281 0 -840857 172124 0 -840963 179970 0 -841079 187818 0 -841207 195670 0 -841344 203524 0 -841492 211382 0 -841651 219242 0 -841820 227106 0 -841999 234973 0 -842189 242844 0 -842389 250718 0 -842600 258596 0 -842821 266477 0 -843053 274363 0 -843295 282252 0 -843547 290145 0 -843810 298043 0 -844083 305945 0 -844366 313851 0 -844660 321762 0 -844965 329677 0 -845279 337597 0 -845604 345522 0 -845940 353451 0 -846285 361386 0 -846641 369325 0 -847008 377270 0 -847384 385220 0 -847771 393175 0 -848169 401136 0 -848576 409102 0 -848994 417074 0 -849422 425052 0 -849861 433036 0 -850309 441025 0 -850768 449021 0 -851237 457022 0 -851717 465030 0 -852207 473044 0 -852707 481065 0 -853217 489092 0 -853737 497126 0 -854268 505166 0 -854809 513214 0 -855360 521268 0 -855921 529329 0 -856493 537397 0 -857075 545473 0 -857667 553555 0 -858269 561646 0 -858881 569743 0 -859504 577848 0 -860137 585961 0 -860780 594081 0 -861433 602210 0 -862096 610346 0 -862770 618490 0 -863454 626643 0 -864148 634803 0 -864852 642972 0 -865566 651149 0 -866291 659335 0 -867026 667529 0 -867771 675732 0 -868526 683944 0 -869291 692164 0 -870067 700394 0 -870853 708632 0 -871649 716880 0 -872455 725137 0 -873272 733403 0 -874099 741678 0 -874936 749963 0 -875783 758258 0 -876641 766562 0 -877509 774876 0 -878387 783199 0 -879276 791533 0 -880175 799877 0 -881084 808231 0 -882003 816594 0 -882933 824969 0 -883874 833353 0 -884824 841748 0 -885785 850154 0 -886757 858570 0 -887739 866997 0 -888732 875435 0 -889735 883884 0 -890748 892343 0 -891772 900814 0 -892807 909296 0 -893852 917789 0 -894908 926294 0 -895974 934810 0 -897051 943338 0 -898139 951877 0 -899238 960428 0 -900347 968991 0 -901467 977566 0 -902598 986153 0 -903740 994752 0 -904893 1.00336e+06 0 -906057 1.01199e+06 0 -907231 1.02062e+06 0 -908417 1.02927e+06 0 -834655 0 0 -834529 7850.86 0 -834414 15702.2 0 -834310 23554.1 0 -834216 31406.6 0 -834133 39260 0 -834061 47114.2 0 -833999 54969.4 0 -833948 62825.7 0 -833907 70683.1 0 -833877 78541.9 0 -833857 86402.1 0 -833848 94263.8 0 -833850 102127 0 -833862 109992 0 -833885 117859 0 -833918 125728 0 -833962 133599 0 -834016 141472 0 -834081 149347 0 -834157 157224 0 -834242 165104 0 -834339 172987 0 -834446 180872 0 -834563 188760 0 -834691 196651 0 -834829 204545 0 -834978 212441 0 -835137 220341 0 -835307 228245 0 -835487 236151 0 -835678 244062 0 -835879 251975 0 -836091 259893 0 -836313 267814 0 -836545 275739 0 -836788 283668 0 -837041 291602 0 -837304 299539 0 -837578 307481 0 -837863 315427 0 -838157 323377 0 -838462 331333 0 -838778 339293 0 -839104 347257 0 -839440 355227 0 -839786 363202 0 -840143 371181 0 -840510 379166 0 -840887 387157 0 -841275 395152 0 -841673 403154 0 -842081 411160 0 -842500 419173 0 -842929 427191 0 -843368 435215 0 -843817 443246 0 -844277 451282 0 -844747 459324 0 -845227 467373 0 -845718 475428 0 -846219 483490 0 -846730 491558 0 -847251 499633 0 -847782 507715 0 -848324 515803 0 -848876 523899 0 -849438 532001 0 -850010 540111 0 -850593 548228 0 -851185 556353 0 -851788 564484 0 -852402 572624 0 -853025 580771 0 -853659 588925 0 -854302 597088 0 -854956 605258 0 -855621 613437 0 -856295 621623 0 -856980 629818 0 -857674 638021 0 -858379 646233 0 -859095 654453 0 -859820 662681 0 -860556 670918 0 -861302 679164 0 -862058 687419 0 -862824 695683 0 -863601 703955 0 -864387 712237 0 -865184 720528 0 -865992 728829 0 -866809 737139 0 -867637 745458 0 -868475 753787 0 -869323 762125 0 -870182 770473 0 -871051 778832 0 -871930 787200 0 -872820 795578 0 -873720 803966 0 -874630 812365 0 -875551 820773 0 -876482 829193 0 -877423 837622 0 -878375 846063 0 -879337 854513 0 -880310 862975 0 -881293 871448 0 -882287 879931 0 -883291 888426 0 -884306 896932 0 -885331 905449 0 -886367 913977 0 -887414 922517 0 -888471 931068 0 -889539 939631 0 -890617 948206 0 -891707 956792 0 -892807 965390 0 -893917 974001 0 -895039 982623 0 -896172 991258 0 -897315 999905 0 -898469 1.00856e+06 0 -899634 1.01724e+06 0 -900811 1.02592e+06 0 -901998 1.03462e+06 0 -828111 0 0 -827986 7890.03 0 -827872 15780.5 0 -827768 23671.6 0 -827676 31563.3 0 -827593 39455.8 0 -827522 47349.2 0 -827461 55243.5 0 -827410 63139 0 -827371 71035.7 0 -827341 78933.6 0 -827323 86833 0 -827315 94733.9 0 -827317 102636 0 -827330 110541 0 -827354 118447 0 -827388 126355 0 -827432 134265 0 -827487 142177 0 -827553 150092 0 -827629 158008 0 -827716 165928 0 -827813 173850 0 -827921 181774 0 -828039 189701 0 -828168 197632 0 -828307 205565 0 -828457 213501 0 -828617 221441 0 -828787 229384 0 -828968 237330 0 -829160 245280 0 -829361 253233 0 -829574 261190 0 -829796 269151 0 -830029 277116 0 -830273 285085 0 -830527 293058 0 -830791 301035 0 -831066 309016 0 -831351 317002 0 -831646 324993 0 -831952 332988 0 -832268 340988 0 -832595 348993 0 -832931 357003 0 -833279 365018 0 -833636 373038 0 -834004 381063 0 -834382 389093 0 -834770 397129 0 -835169 405171 0 -835578 413218 0 -835997 421271 0 -836427 429330 0 -836867 437395 0 -837317 445466 0 -837777 453543 0 -838248 461626 0 -838729 469716 0 -839220 477812 0 -839722 485915 0 -840233 494024 0 -840755 502140 0 -841287 510263 0 -841830 518393 0 -842382 526530 0 -842945 534674 0 -843518 542825 0 -844101 550984 0 -844695 559150 0 -845298 567324 0 -845912 575505 0 -846536 583694 0 -847171 591890 0 -847815 600095 0 -848470 608308 0 -849135 616528 0 -849810 624757 0 -850495 632995 0 -851191 641240 0 -851897 649494 0 -852613 657757 0 -853339 666028 0 -854075 674308 0 -854822 682597 0 -855579 690895 0 -856346 699202 0 -857123 707518 0 -857911 715843 0 -858709 724178 0 -859517 732522 0 -860335 740875 0 -861164 749239 0 -862003 757611 0 -862852 765994 0 -863712 774386 0 -864582 782789 0 -865462 791201 0 -866352 799624 0 -867253 808057 0 -868165 816500 0 -869086 824954 0 -870018 833418 0 -870961 841893 0 -871914 850379 0 -872877 858875 0 -873851 867382 0 -874835 875901 0 -875830 884430 0 -876835 892971 0 -877851 901523 0 -878878 910086 0 -879915 918661 0 -880962 927247 0 -882021 935845 0 -883090 944455 0 -884170 953076 0 -885260 961710 0 -886362 970356 0 -887474 979013 0 -888597 987684 0 -889731 996366 0 -890875 1.00506e+06 0 -892031 1.01377e+06 0 -893198 1.02249e+06 0 -894376 1.03122e+06 0 -895564 1.03997e+06 0 -821559 0 0 -821435 7929.2 0 -821322 15858.8 0 -821219 23789.1 0 -821127 31719.9 0 -821046 39651.6 0 -820975 47584.1 0 -820915 55517.7 0 -820866 63452.3 0 -820827 71388.1 0 -820798 79325.3 0 -820781 87263.8 0 -820773 95203.9 0 -820777 103146 0 -820791 111089 0 -820815 119034 0 -820850 126982 0 -820895 134931 0 -820951 142882 0 -821018 150836 0 -821095 158792 0 -821182 166751 0 -821280 174712 0 -821389 182676 0 -821508 190643 0 -821637 198612 0 -821777 206585 0 -821927 214561 0 -822088 222540 0 -822260 230522 0 -822441 238508 0 -822633 246497 0 -822836 254490 0 -823049 262487 0 -823272 270488 0 -823506 278492 0 -823750 286501 0 -824005 294514 0 -824270 302531 0 -824545 310552 0 -824831 318578 0 -825127 326609 0 -825434 334644 0 -825750 342684 0 -826078 350729 0 -826415 358778 0 -826763 366833 0 -827121 374894 0 -827490 382959 0 -827868 391030 0 -828257 399107 0 -828657 407189 0 -829066 415276 0 -829486 423370 0 -829917 431469 0 -830357 439575 0 -830808 447687 0 -831269 455804 0 -831740 463929 0 -832222 472059 0 -832714 480196 0 -833216 488340 0 -833728 496491 0 -834250 504648 0 -834783 512812 0 -835326 520983 0 -835879 529161 0 -836443 537347 0 -837017 545540 0 -837600 553740 0 -838195 561948 0 -838799 570163 0 -839413 578386 0 -840038 586617 0 -840673 594856 0 -841318 603103 0 -841974 611357 0 -842639 619621 0 -843315 627892 0 -844001 636172 0 -844697 644460 0 -845404 652756 0 -846121 661062 0 -846848 669376 0 -847585 677699 0 -848332 686031 0 -849090 694372 0 -849857 702722 0 -850636 711082 0 -851424 719450 0 -852223 727828 0 -853031 736216 0 -853851 744613 0 -854680 753020 0 -855520 761437 0 -856370 769864 0 -857230 778301 0 -858101 786748 0 -858982 795205 0 -859873 803672 0 -860775 812149 0 -861687 820638 0 -862610 829136 0 -863543 837646 0 -864486 846166 0 -865440 854697 0 -866404 863239 0 -867379 871792 0 -868364 880356 0 -869360 888931 0 -870366 897518 0 -871383 906116 0 -872411 914725 0 -873449 923347 0 -874498 931980 0 -875557 940624 0 -876627 949281 0 -877708 957950 0 -878800 966631 0 -879903 975324 0 -881016 984029 0 -882140 992747 0 -883275 1.00148e+06 0 -884421 1.01022e+06 0 -885579 1.01898e+06 0 -886747 1.02774e+06 0 -887926 1.03653e+06 0 -889116 1.04532e+06 0 -815000 0 0 -814877 7968.36 0 -814765 15937.2 0 -814663 23906.5 0 -814572 31876.6 0 -814492 39847.4 0 -814422 47819.1 0 -814363 55791.7 0 -814314 63765.5 0 -814276 71740.5 0 -814248 79716.8 0 -814231 87694.6 0 -814225 95673.9 0 -814229 103655 0 -814244 111637 0 -814269 119622 0 -814305 127608 0 -814351 135597 0 -814408 143588 0 -814475 151581 0 -814553 159576 0 -814641 167574 0 -814740 175575 0 -814849 183578 0 -814969 191584 0 -815099 199593 0 -815240 207605 0 -815391 215620 0 -815552 223639 0 -815724 231661 0 -815907 239686 0 -816100 247715 0 -816303 255748 0 -816517 263784 0 -816741 271824 0 -816975 279868 0 -817220 287917 0 -817475 295969 0 -817741 304026 0 -818017 312088 0 -818303 320153 0 -818600 328224 0 -818907 336299 0 -819225 344379 0 -819553 352464 0 -819891 360554 0 -820239 368649 0 -820598 376750 0 -820967 384856 0 -821346 392967 0 -821736 401084 0 -822136 409206 0 -822546 417334 0 -822967 425468 0 -823398 433609 0 -823839 441755 0 -824290 449907 0 -824752 458066 0 -825224 466231 0 -825706 474402 0 -826198 482580 0 -826701 490765 0 -827214 498957 0 -827737 507155 0 -828270 515361 0 -828814 523573 0 -829368 531793 0 -829932 540020 0 -830506 548255 0 -831090 556496 0 -831685 564746 0 -832290 573003 0 -832905 581268 0 -833530 589541 0 -834166 597822 0 -834812 606111 0 -835468 614408 0 -836134 622713 0 -836810 631027 0 -837497 639349 0 -838194 647680 0 -838901 656019 0 -839618 664367 0 -840346 672724 0 -841083 681090 0 -841831 689465 0 -842590 697850 0 -843358 706243 0 -844137 714646 0 -844926 723058 0 -845725 731480 0 -846535 739911 0 -847355 748352 0 -848185 756803 0 -849025 765264 0 -849876 773735 0 -850737 782216 0 -851608 790707 0 -852490 799209 0 -853382 807721 0 -854285 816243 0 -855198 824776 0 -856121 833320 0 -857055 841875 0 -857999 850440 0 -858954 859016 0 -859919 867604 0 -860894 876203 0 -861881 884813 0 -862877 893434 0 -863885 902067 0 -864902 910711 0 -865931 919367 0 -866970 928035 0 -868020 936715 0 -869080 945406 0 -870152 954110 0 -871234 962826 0 -872326 971554 0 -873430 980295 0 -874544 989048 0 -875670 997814 0 -876806 1.00659e+06 0 -877953 1.01538e+06 0 -879111 1.02419e+06 0 -880281 1.033e+06 0 -881461 1.04184e+06 0 -882652 1.05068e+06 0 -808433 0 0 -808311 8007.51 0 -808200 16015.5 0 -808099 24024 0 -808009 32033.2 0 -807930 40043.1 0 -807861 48054 0 -807803 56065.8 0 -807755 64078.7 0 -807718 72092.9 0 -807691 80108.4 0 -807675 88125.3 0 -807669 96143.7 0 -807674 104164 0 -807690 112186 0 -807716 120209 0 -807752 128235 0 -807799 136263 0 -807857 144293 0 -807925 152325 0 -808004 160360 0 -808093 168397 0 -808192 176437 0 -808302 184480 0 -808423 192525 0 -808553 200574 0 -808695 208625 0 -808847 216680 0 -809009 224738 0 -809182 232799 0 -809365 240864 0 -809558 248933 0 -809762 257005 0 -809977 265081 0 -810201 273161 0 -810437 281245 0 -810682 289333 0 -810938 297425 0 -811204 305522 0 -811481 313623 0 -811768 321729 0 -812065 329839 0 -812373 337954 0 -812691 346074 0 -813019 354199 0 -813358 362330 0 -813707 370465 0 -814067 378606 0 -814436 386752 0 -814816 394903 0 -815206 403061 0 -815607 411223 0 -816018 419392 0 -816439 427567 0 -816870 435748 0 -817312 443935 0 -817764 452128 0 -818226 460327 0 -818698 468533 0 -819181 476746 0 -819674 484965 0 -820177 493191 0 -820691 501423 0 -821214 509663 0 -821748 517910 0 -822292 526164 0 -822847 534425 0 -823411 542693 0 -823986 550969 0 -824571 559253 0 -825166 567544 0 -825771 575843 0 -826387 584150 0 -827013 592465 0 -827649 600788 0 -828295 609119 0 -828952 617458 0 -829619 625806 0 -830296 634162 0 -830983 642527 0 -831680 650900 0 -832388 659282 0 -833105 667673 0 -833834 676073 0 -834572 684482 0 -835320 692901 0 -836079 701328 0 -836848 709765 0 -837628 718211 0 -838417 726667 0 -839217 735132 0 -840027 743607 0 -840848 752092 0 -841678 760587 0 -842519 769092 0 -843371 777608 0 -844232 786133 0 -845104 794669 0 -845987 803215 0 -846880 811771 0 -847783 820339 0 -848696 828917 0 -849620 837506 0 -850555 846105 0 -851500 854716 0 -852455 863338 0 -853421 871971 0 -854397 880616 0 -855384 889271 0 -856382 897939 0 -857390 906618 0 -858409 915309 0 -859438 924011 0 -860478 932726 0 -861529 941452 0 -862590 950191 0 -863662 958942 0 -864745 967705 0 -865839 976481 0 -866943 985269 0 -868059 994070 0 -869185 1.00288e+06 0 -870322 1.01171e+06 0 -871470 1.02055e+06 0 -872630 1.0294e+06 0 -873800 1.03827e+06 0 -874981 1.04715e+06 0 -876174 1.05604e+06 0 -801860 0 0 -801739 8046.65 0 -801629 16093.8 0 -801529 24141.4 0 -801440 32189.7 0 -801361 40238.8 0 -801293 48288.8 0 -801235 56339.8 0 -801189 64391.9 0 -801152 72445.2 0 -801126 80499.8 0 -801111 88555.9 0 -801106 96613.5 0 -801112 104673 0 -801128 112734 0 -801155 120797 0 -801193 128862 0 -801240 136929 0 -801299 144998 0 -801368 153070 0 -801447 161144 0 -801537 169220 0 -801637 177299 0 -801748 185381 0 -801869 193466 0 -802001 201554 0 -802143 209645 0 -802295 217739 0 -802458 225837 0 -802631 233937 0 -802815 242042 0 -803009 250150 0 -803214 258262 0 -803429 266377 0 -803654 274497 0 -803890 282621 0 -804136 290748 0 -804393 298881 0 -804660 307017 0 -804937 315158 0 -805225 323304 0 -805523 331454 0 -805831 339609 0 -806149 347769 0 -806478 355935 0 -806818 364105 0 -807167 372280 0 -807527 380461 0 -807897 388648 0 -808278 396840 0 -808669 405037 0 -809070 413241 0 -809481 421450 0 -809903 429665 0 -810334 437887 0 -810777 446114 0 -811229 454348 0 -811692 462588 0 -812165 470835 0 -812648 479089 0 -813141 487349 0 -813645 495616 0 -814159 503890 0 -814683 512171 0 -815217 520459 0 -815762 528754 0 -816316 537057 0 -816881 545367 0 -817457 553684 0 -818042 562010 0 -818638 570343 0 -819244 578683 0 -819860 587032 0 -820486 595389 0 -821123 603754 0 -821769 612127 0 -822426 620509 0 -823093 628899 0 -823771 637298 0 -824458 645705 0 -825156 654121 0 -825864 662546 0 -826583 670980 0 -827311 679423 0 -828050 687875 0 -828799 696336 0 -829558 704807 0 -830328 713287 0 -831107 721777 0 -831898 730276 0 -832698 738785 0 -833509 747304 0 -834329 755833 0 -835161 764372 0 -836002 772922 0 -836854 781481 0 -837716 790051 0 -838589 798631 0 -839472 807222 0 -840365 815823 0 -841269 824435 0 -842183 833058 0 -843108 841692 0 -844043 850337 0 -844988 858994 0 -845944 867661 0 -846911 876340 0 -847888 885030 0 -848875 893732 0 -849874 902446 0 -850882 911171 0 -851902 919908 0 -852932 928657 0 -853972 937419 0 -855024 946192 0 -856086 954978 0 -857159 963776 0 -858243 972586 0 -859337 981410 0 -860442 990246 0 -861559 999094 0 -862686 1.00796e+06 0 -863824 1.01683e+06 0 -864973 1.02572e+06 0 -866133 1.03462e+06 0 -867305 1.04353e+06 0 -868487 1.05246e+06 0 -869681 1.0614e+06 0 -795279 0 0 -795159 8085.79 0 -795050 16172 0 -794951 24258.8 0 -794863 32346.2 0 -794785 40434.5 0 -794718 48523.6 0 -794661 56613.7 0 -794615 64704.9 0 -794580 72797.4 0 -794555 80891.2 0 -794540 88986.4 0 -794536 97083.2 0 -794543 105182 0 -794560 113282 0 -794588 121384 0 -794626 129488 0 -794674 137594 0 -794734 145703 0 -794803 153814 0 -794883 161927 0 -794974 170043 0 -795075 178162 0 -795186 186283 0 -795308 194407 0 -795440 202534 0 -795583 210665 0 -795736 218798 0 -795900 226935 0 -796074 235076 0 -796258 243219 0 -796453 251367 0 -796658 259518 0 -796874 267674 0 -797100 275833 0 -797336 283996 0 -797583 292164 0 -797840 300336 0 -798108 308512 0 -798385 316693 0 -798674 324879 0 -798972 333069 0 -799281 341264 0 -799600 349464 0 -799929 357670 0 -800269 365880 0 -800619 374096 0 -800980 382317 0 -801350 390544 0 -801731 398776 0 -802123 407014 0 -802524 415258 0 -802936 423508 0 -803358 431763 0 -803790 440026 0 -804233 448294 0 -804686 456568 0 -805149 464850 0 -805622 473137 0 -806106 481432 0 -806600 489733 0 -807104 498041 0 -807618 506356 0 -808142 514678 0 -808677 523008 0 -809222 531344 0 -809777 539688 0 -810343 548040 0 -810918 556399 0 -811504 564766 0 -812100 573141 0 -812706 581524 0 -813323 589915 0 -813950 598313 0 -814586 606721 0 -815234 615136 0 -815891 623560 0 -816558 631993 0 -817236 640434 0 -817924 648884 0 -818622 657342 0 -819331 665810 0 -820049 674287 0 -820778 682773 0 -821518 691268 0 -822267 699773 0 -823027 708287 0 -823797 716810 0 -824577 725343 0 -825367 733886 0 -826168 742439 0 -826979 751002 0 -827800 759575 0 -828632 768158 0 -829474 776752 0 -830326 785355 0 -831189 793970 0 -832062 802594 0 -832945 811230 0 -833839 819876 0 -834743 828533 0 -835658 837201 0 -836583 845881 0 -837519 854571 0 -838465 863273 0 -839421 871986 0 -840388 880710 0 -841366 889447 0 -842354 898195 0 -843353 906954 0 -844362 915726 0 -845382 924510 0 -846413 933306 0 -847454 942114 0 -848506 950934 0 -849569 959767 0 -850642 968612 0 -851727 977470 0 -852822 986341 0 -853928 995225 0 -855045 1.00412e+06 0 -856173 1.01303e+06 0 -857312 1.02195e+06 0 -858462 1.03089e+06 0 -859622 1.03984e+06 0 -860795 1.0488e+06 0 -861978 1.05778e+06 0 -863172 1.06677e+06 0 -788692 0 0 -788573 8124.92 0 -788464 16250.3 0 -788366 24376.2 0 -788279 32502.7 0 -788202 40630.1 0 -788136 48758.3 0 -788080 56887.6 0 -788035 65017.9 0 -788000 73149.5 0 -787976 81282.4 0 -787962 89416.8 0 -787959 97552.8 0 -787967 105690 0 -787985 113830 0 -788013 121971 0 -788052 130115 0 -788101 138260 0 -788161 146408 0 -788231 154558 0 -788312 162710 0 -788403 170866 0 -788505 179023 0 -788617 187184 0 -788740 195348 0 -788873 203514 0 -789016 211684 0 -789170 219857 0 -789334 228034 0 -789509 236213 0 -789694 244397 0 -789889 252584 0 -790095 260775 0 -790311 268970 0 -790538 277169 0 -790775 285372 0 -791022 293579 0 -791280 301791 0 -791548 310007 0 -791826 318228 0 -792115 326453 0 -792414 334684 0 -792723 342919 0 -793043 351159 0 -793373 359404 0 -793713 367655 0 -794063 375911 0 -794424 384172 0 -794795 392439 0 -795177 400712 0 -795568 408990 0 -795970 417275 0 -796383 425565 0 -796805 433861 0 -797238 442164 0 -797681 450473 0 -798134 458789 0 -798597 467111 0 -799071 475439 0 -799555 483775 0 -800049 492117 0 -800554 500466 0 -801068 508822 0 -801593 517186 0 -802128 525556 0 -802674 533934 0 -803229 542320 0 -803795 550713 0 -804371 559114 0 -804957 567523 0 -805553 575940 0 -806160 584364 0 -806777 592797 0 -807404 601238 0 -808041 609687 0 -808688 618145 0 -809346 626611 0 -810014 635086 0 -810692 643570 0 -811380 652063 0 -812079 660564 0 -812787 669075 0 -813506 677594 0 -814235 686123 0 -814975 694662 0 -815725 703209 0 -816485 711767 0 -817255 720334 0 -818035 728911 0 -818826 737497 0 -819627 746094 0 -820438 754701 0 -821260 763318 0 -822092 771945 0 -822934 780582 0 -823787 789231 0 -824650 797889 0 -825524 806559 0 -826407 815239 0 -827301 823930 0 -828206 832632 0 -829121 841346 0 -830046 850070 0 -830982 858806 0 -831929 867553 0 -832886 876312 0 -833853 885083 0 -834831 893865 0 -835820 902659 0 -836819 911465 0 -837829 920283 0 -838849 929113 0 -839880 937956 0 -840922 946811 0 -841975 955678 0 -843038 964558 0 -844112 973451 0 -845197 982357 0 -846293 991275 0 -847399 1.00021e+06 0 -848517 1.00915e+06 0 -849645 1.01811e+06 0 -850785 1.02708e+06 0 -851935 1.03607e+06 0 -853097 1.04507e+06 0 -854270 1.05408e+06 0 -855453 1.0631e+06 0 -856649 1.07214e+06 0 -782097 0 0 -781979 8164.03 0 -781872 16328.5 0 -781775 24493.5 0 -781688 32659.2 0 -781612 40825.6 0 -781547 48993 0 -781492 57161.3 0 -781448 65330.8 0 -781414 73501.5 0 -781390 81673.6 0 -781378 89847.1 0 -781375 98022.2 0 -781384 106199 0 -781402 114378 0 -781431 122558 0 -781471 130741 0 -781521 138925 0 -781582 147112 0 -781653 155302 0 -781734 163494 0 -781826 171688 0 -781928 179885 0 -782041 188085 0 -782164 196288 0 -782298 204494 0 -782442 212703 0 -782597 220916 0 -782761 229132 0 -782937 237351 0 -783122 245574 0 -783318 253801 0 -783525 262031 0 -783741 270266 0 -783968 278504 0 -784206 286747 0 -784454 294994 0 -784712 303246 0 -784980 311502 0 -785259 319762 0 -785548 328028 0 -785848 336298 0 -786158 344573 0 -786478 352853 0 -786808 361139 0 -787149 369430 0 -787500 377726 0 -787861 386027 0 -788232 394335 0 -788614 402648 0 -789006 410966 0 -789409 419291 0 -789821 427622 0 -790244 435959 0 -790677 444303 0 -791120 452652 0 -791574 461009 0 -792038 469371 0 -792512 477741 0 -792996 486117 0 -793490 494501 0 -793995 502891 0 -794510 511288 0 -795035 5196