<?xml version="1.0"?> 
<VTKFile type="StructuredGrid" version="0.1"> 
<StructuredGrid WholeExtent="0 15 0 15 0 0"> 
<Piece Extent="0 15 0 15 0 0"> 
<PointData>
<DataArray type="Float32" Name="|E|" format="ascii" NumberOfComponents="3"> 
4.47035e-08 5.64842e+06 0 -2.8871e-08 3.67062e+06 0 1.67638e-08 2.6496e+06 0 -1.86265e-09 2.01187e+06 0 -3.72529e-09 1.52598e+06 0 -2.98023e-08 1.12231e+06 0 1.86265e-08 779013 0 2.23517e-08 499403 0 -1.49012e-08 292763 0 -1.49012e-08 158288 0 -1.49012e-08 80725.1 0 5.21541e-08 39739.5 0 -5.21541e-08 19190.9 0 3.72529e-08 9195.92 0 -5.96046e-08 4381.74 0 1.49012e-07 2603.18 0 -535289 4.40762e+06 0 -278999 3.07241e+06 0 -178701 2.32524e+06 0 -137827 1.79054e+06 0 -114763 1.35696e+06 0 -98325.4 987565 0 -81410.5 673937 0 -61863.1 423884 0 -41734.3 244882 0 -24964.3 131741 0 -13603.5 67509.7 0 -6983.87 33611.1 0 -3461.36 16478.4 0 -1675.21 8022.76 0 -804.114 3941.79 0 -214.633 1951.99 0 -728163 3.46935e+06 0 -426352 2.62257e+06 0 -309854 2.0451e+06 0 -251742 1.58453e+06 0 -215422 1.19427e+06 0 -184638 855826 0 -149977 570735 0 -110477 349851 0 -72203.6 197993 0 -42307.8 105521 0 -22931.4 54165.6 0 -11847.5 27217.6 0 -5947.99 13529.6 0 -2934.7 6697.7 0 -1407.91 3337.93 0 -553.086 1589.28 0 -772627 2.87645e+06 0 -522438 2.26652e+06 0 -413228 1.79525e+06 0 -349516 1.39124e+06 0 -304020 1.03675e+06 0 -258547 726259 0 -204697 469076 0 -145453 277761 0 -91940 153046 0 -52828.5 80547.4 0 -28525.1 41340.4 0 -14841.3 20945.2 0 -7553.62 10549.4 0 -3789.16 5306.03 0 -1851.44 2673.96 0 -838.357 1276.64 0 -789183 2.44339e+06 0 -597030 1.97137e+06 0 -500287 1.57043e+06 0 -435773 1.2083e+06 0 -381190 882878 0 -319028 597896 0 -244261 369098 0 -166532 208734 0 -101721 111283 0 -57456.8 57685.8 0 -30976.7 29559.9 0 -16250.9 15089.2 0 -8390.16 7694.04 0 -4279.46 3926.8 0 -2139.71 1999.58 0 -1037.12 968.676 0 -808363 2.10929e+06 0 -662719 1.71795e+06 0 -577986 1.36306e+06 0 -512572 1.03225e+06 0 -446495 730459 0 -364186 469931 0 -267097 271815 0 -173814 144570 0 -102720 74012.4 0 -57268.8 37637.9 0 -30913.6 19212.6 0 -16380.6 9864.97 0 -8584.98 5082.58 0 -4455.58 2626.82 0 -2280.46 1349.07 0 -1150.11 661.274 0 -837742 1.83277e+06 0 -725388 1.49062e+06 0 -649520 1.16733e+06 0 -580358 859336 0 -498124 577082 0 -391030 342411 0 -271680 179565 0 -168168 87589 0 -96591.9 42372.7 0 -53438.2 20888.4 0 -28971 10540.4 0 -15536.2 5406.61 0 -8272.14 2797.91 0 -4371.74 1455.69 0 -2288.58 747.645 0 -1186.84 364.543 0 -877018 1.59045e+06 0 -787360 1.27987e+06 0 -716093 977570 0 -638026 685138 0 -532274 420580 0 -395472 217253 0 -257303 96272.4 0 -151686 40131.4 0 -85401.5 17103.8 0 -47145.6 7660.13 0 -25759.5 3638.09 0 -14008.7 1774.57 0 -7583.32 890.723 0 -4084.33 445.858 0 -2184.04 214.253 0 -1159.16 89.9526 0 -924623 1.36904e+06 0 -849479 1.07783e+06 0 -777474 787650 0 -682196 504503 0 -542181 260337 0 -373072 99721.2 0 -225477 26930.2 0 -127860 3903.18 0 -71324.1 -1644.56 0 -39486.5 -2053.11 0 -21833.8 -1564.51 0 -12056.6 -1014.43 0 -6644.57 -625.474 0 -3646.64 -383.338 0 -1991.42 -238.254 0 -1077.27 -153.363 0 -979386 1.15877e+06 0 -911713 877166 0 -831957 589931 0 -705098 311835 0 -517338 100469 0 -321721 -982.088 0 -181448 -23635.2 0 -100975 -21036.3 0 -56264.9 -14002.5 0 -31427.6 -8677.16 0 -17644.5 -5164.54 0 -9908.01 -3015.68 0 -5562.39 -1759.02 0 -3112.59 -1024.38 0 -1733.72 -603.925 0 -953.732 -358.642 0 -1.03996e+06 950528 0 -974124 669245 0 -874425 373398 0 -689852 104661 0 -445911 -46466.9 0 -246815 -71754 0 -134132 -55066 0 -74621.7 -34878.9 0 -41742 -21196.5 0 -23730.1 -12589 0 -13531.9 -7373.44 0 -7744.52 -4324.98 0 -4429.95 -2528.06 0 -2528.5 -1486.31 0 -1434.56 -879.672 0 -799.675 -521.865 0 -1.10604e+06 734639 0 -1.03784e+06 441517 0 -887217 123558 0 -606629 -110506 0 -325330 -149426 0 -166619 -109505 0 -91595.9 -67400.4 0 -50784.7 -40610 0 -29072.3 -24214.8 0 -16790.3 -14300.8 0 -9764.18 -8484.98 0 -5695.96 -5023.06 0 -3323.22 -2982.77 0 -1933.51 -1779.59 0 -1116.39 -1069.08 0 -624.772 -642.831 0 -1.1807e+06 497583 0 -1.10075e+06 175914 0 -819404 -187627 0 -419458 -273692 0 -190450 -191829 0 -102020 -113755 0 -55457.7 -67688.5 0 -31734.8 -40491.1 0 -18536.4 -24112.2 0 -10916.4 -14485.7 0 -6484.31 -8702.91 0 -3857.5 -5241.68 0 -2295.98 -3168.33 0 -1361.55 -1924.21 0 -797.954 -1179.15 0 -439.137 -724.024 0 -1.31645e+06 320867 0 -1.11894e+06 -245936 0 -530990 -488511 0 -189961 -310948 0 -97588.9 -173789 0 -51558.1 -101476 0 -29213.5 -60813.8 0 -17284.4 -36508.8 0 -10273.9 -22211.3 0 -6207.5 -13554 0 -3760.03 -8293.04 0 -2284.25 -5093.1 0 -1386.74 -3136.57 0 -837.557 -1944.25 0 -496.594 -1219.39 0 -252.24 -774.767 0 -1.70659e+06 186928 0 -633387 -984788 0 -134404 -465909 0 -66372.1 -239842 0 -34390.1 -137659 0 -18955 -82793.6 0 -11489.8 -50244.1 0 -6862.33 -30972.3 0 -4217.39 -19218.2 0 -2599.97 -11958 0 -1609.95 -7472.97 0 -998.292 -4679.47 0 -618.487 -2942.27 0 -379.407 -1863.49 0 -227.939 -1201.88 0 -79.664 -812.323 0 -2.98023e-07 -4.9159e+06 0 3.72529e-08 -388614 0 1.30385e-08 -277597 0 5.58794e-08 -167464 0 -6.70552e-08 -100606 0 3.72529e-08 -63018.4 0 -1.49012e-08 -39275.9 0 -2.23517e-08 -24888.3 0 1.49012e-08 -15771 0 -7.45058e-09 -10047.8 0 1.49012e-08 -6409.22 0 0 -4100.93 0 -4.47035e-08 -2633.85 0 4.47035e-08 -1707.52 0 -4.47035e-08 -1132.72 0 1.78814e-07 -915.626 0 </DataArray> 
</PointData> 
<Points> 
<DataArray type="Float32" NumberOfComponents="3"> 
0.075 0.021 0 0.0783333 0.021 0 0.0816667 0.021 0 0.085 0.021 0 0.0883333 0.021 0 0.0916667 0.021 0 0.095 0.021 0 0.0983333 0.021 0 0.101667 0.021 0 0.105 0.021 0 0.108333 0.021 0 0.111667 0.021 0 0.115 0.021 0 0.118333 0.021 0 0.121667 0.021 0 0.125 0.021 0 0.0766667 0.0219333 0 0.0799111 0.0219333 0 0.0831556 0.0219333 0 0.0864 0.0219333 0 0.0896444 0.0219333 0 0.0928889 0.0219333 0 0.0961333 0.0219333 0 0.0993778 0.0219333 0 0.102622 0.0219333 0 0.105867 0.0219333 0 0.109111 0.0219333 0 0.112356 0.0219333 0 0.1156 0.0219333 0 0.118844 0.0219333 0 0.122089 0.0219333 0 0.125333 0.0219333 0 0.0783333 0.0228667 0 0.0814889 0.0228667 0 0.0846444 0.0228667 0 0.0878 0.0228667 0 0.0909556 0.0228667 0 0.0941111 0.0228667 0 0.0972667 0.0228667 0 0.100422 0.0228667 0 0.103578 0.0228667 0 0.106733 0.0228667 0 0.109889 0.0228667 0 0.113044 0.0228667 0 0.1162 0.0228667 0 0.119356 0.0228667 0 0.122511 0.0228667 0 0.125667 0.0228667 0 0.08 0.0238 0 0.0830667 0.0238 0 0.0861333 0.0238 0 0.0892 0.0238 0 0.0922667 0.0238 0 0.0953333 0.0238 0 0.0984 0.0238 0 0.101467 0.0238 0 0.104533 0.0238 0 0.1076 0.0238 0 0.110667 0.0238 0 0.113733 0.0238 0 0.1168 0.0238 0 0.119867 0.0238 0 0.122933 0.0238 0 0.126 0.0238 0 0.0816667 0.0247333 0 0.0846444 0.0247333 0 0.0876222 0.0247333 0 0.0906 0.0247333 0 0.0935778 0.0247333 0 0.0965556 0.0247333 0 0.0995333 0.0247333 0 0.102511 0.0247333 0 0.105489 0.0247333 0 0.108467 0.0247333 0 0.111444 0.0247333 0 0.114422 0.0247333 0 0.1174 0.0247333 0 0.120378 0.0247333 0 0.123356 0.0247333 0 0.126333 0.0247333 0 0.0833333 0.0256667 0 0.0862222 0.0256667 0 0.0891111 0.0256667 0 0.092 0.0256667 0 0.0948889 0.0256667 0 0.0977778 0.0256667 0 0.100667 0.0256667 0 0.103556 0.0256667 0 0.106444 0.0256667 0 0.109333 0.0256667 0 0.112222 0.0256667 0 0.115111 0.0256667 0 0.118 0.0256667 0 0.120889 0.0256667 0 0.123778 0.0256667 0 0.126667 0.0256667 0 0.085 0.0266 0 0.0878 0.0266 0 0.0906 0.0266 0 0.0934 0.0266 0 0.0962 0.0266 0 0.099 0.0266 0 0.1018 0.0266 0 0.1046 0.0266 0 0.1074 0.0266 0 0.1102 0.0266 0 0.113 0.0266 0 0.1158 0.0266 0 0.1186 0.0266 0 0.1214 0.0266 0 0.1242 0.0266 0 0.127 0.0266 0 0.0866667 0.0275333 0 0.0893778 0.0275333 0 0.0920889 0.0275333 0 0.0948 0.0275333 0 0.0975111 0.0275333 0 0.100222 0.0275333 0 0.102933 0.0275333 0 0.105644 0.0275333 0 0.108356 0.0275333 0 0.111067 0.0275333 0 0.113778 0.0275333 0 0.116489 0.0275333 0 0.1192 0.0275333 0 0.121911 0.0275333 0 0.124622 0.0275333 0 0.127333 0.0275333 0 0.0883333 0.0284667 0 0.0909556 0.0284667 0 0.0935778 0.0284667 0 0.0962 0.0284667 0 0.0988222 0.0284667 0 0.101444 0.0284667 0 0.104067 0.0284667 0 0.106689 0.0284667 0 0.109311 0.0284667 0 0.111933 0.0284667 0 0.114556 0.0284667 0 0.117178 0.0284667 0 0.1198 0.0284667 0 0.122422 0.0284667 0 0.125044 0.0284667 0 0.127667 0.0284667 0 0.09 0.0294 0 0.0925333 0.0294 0 0.0950667 0.0294 0 0.0976 0.0294 0 0.100133 0.0294 0 0.102667 0.0294 0 0.1052 0.0294 0 0.107733 0.0294 0 0.110267 0.0294 0 0.1128 0.0294 0 0.115333 0.0294 0 0.117867 0.0294 0 0.1204 0.0294 0 0.122933 0.0294 0 0.125467 0.0294 0 0.128 0.0294 0 0.0916667 0.0303333 0 0.0941111 0.0303333 0 0.0965556 0.0303333 0 0.099 0.0303333 0 0.101444 0.0303333 0 0.103889 0.0303333 0 0.106333 0.0303333 0 0.108778 0.0303333 0 0.111222 0.0303333 0 0.113667 0.0303333 0 0.116111 0.0303333 0 0.118556 0.0303333 0 0.121 0.0303333 0 0.123444 0.0303333 0 0.125889 0.0303333 0 0.128333 0.0303333 0 0.0933333 0.0312667 0 0.0956889 0.0312667 0 0.0980444 0.0312667 0 0.1004 0.0312667 0 0.102756 0.0312667 0 0.105111 0.0312667 0 0.107467 0.0312667 0 0.109822 0.0312667 0 0.112178 0.0312667 0 0.114533 0.0312667 0 0.116889 0.0312667 0 0.119244 0.0312667 0 0.1216 0.0312667 0 0.123956 0.0312667 0 0.126311 0.0312667 0 0.128667 0.0312667 0 0.095 0.0322 0 0.0972667 0.0322 0 0.0995333 0.0322 0 0.1018 0.0322 0 0.104067 0.0322 0 0.106333 0.0322 0 0.1086 0.0322 0 0.110867 0.0322 0 0.113133 0.0322 0 0.1154 0.0322 0 0.117667 0.0322 0 0.119933 0.0322 0 0.1222 0.0322 0 0.124467 0.0322 0 0.126733 0.0322 0 0.129 0.0322 0 0.0966667 0.0331333 0 0.0988444 0.0331333 0 0.101022 0.0331333 0 0.1032 0.0331333 0 0.105378 0.0331333 0 0.107556 0.0331333 0 0.109733 0.0331333 0 0.111911 0.0331333 0 0.114089 0.0331333 0 0.116267 0.0331333 0 0.118444 0.0331333 0 0.120622 0.0331333 0 0.1228 0.0331333 0 0.124978 0.0331333 0 0.127156 0.0331333 0 0.129333 0.0331333 0 0.0983333 0.0340667 0 0.100422 0.0340667 0 0.102511 0.0340667 0 0.1046 0.0340667 0 0.106689 0.0340667 0 0.108778 0.0340667 0 0.110867 0.0340667 0 0.112956 0.0340667 0 0.115044 0.0340667 0 0.117133 0.0340667 0 0.119222 0.0340667 0 0.121311 0.0340667 0 0.1234 0.0340667 0 0.125489 0.0340667 0 0.127578 0.0340667 0 0.129667 0.0340667 0 0.1 0.035 0 0.102 0.035 0 0.104 0.035 0 0.106 0.035 0 0.108 0.035 0 0.11 0.035 0 0.112 0.035 0 0.114 0.035 0 0.116 0.035 0 0.118 0.035 0 0.12 0.035 0 0.122 0.035 0 0.124 0.035 0 0.126 0.035 0 0.128 0.035 0 0.13 0.035 0 
</DataArray>
</Points> 
</Piece> 
</StructuredGrid> 
</VTKFile> 
