<?xml version="1.0"?> 
<VTKFile type="StructuredGrid" version="0.1"> 
<StructuredGrid WholeExtent="0 15 0 15 0 0"> 
<Piece Extent="0 15 0 15 0 0"> 
<PointData>
<DataArray type="Float32" Name="|E|" format="ascii" NumberOfComponents="3"> 
-1.28954e+06 0 0 -1.2903e+06 63665.4 0 -1.29249e+06 127424 0 -1.29611e+06 191368 0 -1.30115e+06 255591 0 -1.30759e+06 320181 0 -1.3154e+06 385226 0 -1.32458e+06 450808 0 -1.33509e+06 517003 0 -1.3469e+06 583884 0 -1.35997e+06 651509 0 -1.37427e+06 719927 0 -1.38975e+06 789175 0 -1.40637e+06 859267 0 -1.42411e+06 930199 0 -1.44295e+06 1.00194e+06 0 -1.26293e+06 0 0 -1.2636e+06 63890.1 0 -1.26564e+06 127873 0 -1.26905e+06 192038 0 -1.27383e+06 256475 0 -1.27995e+06 321269 0 -1.28741e+06 386505 0 -1.29617e+06 452261 0 -1.30622e+06 518613 0 -1.31753e+06 585627 0 -1.33006e+06 653363 0 -1.34379e+06 721868 0 -1.35868e+06 791179 0 -1.37469e+06 861313 0 -1.39182e+06 932270 0 -1.41004e+06 1.00403e+06 0 -1.23609e+06 0 0 -1.23665e+06 64092.3 0 -1.23854e+06 128277 0 -1.24175e+06 192641 0 -1.24627e+06 257270 0 -1.25209e+06 322247 0 -1.25919e+06 387653 0 -1.26755e+06 453565 0 -1.27715e+06 520054 0 -1.28797e+06 587186 0 -1.29998e+06 655019 0 -1.31314e+06 723601 0 -1.32745e+06 792966 0 -1.34286e+06 863138 0 -1.35938e+06 934120 0 -1.37698e+06 1.0059e+06 0 -1.20901e+06 0 0 -1.20947e+06 64272.5 0 -1.21121e+06 128637 0 -1.21422e+06 193178 0 -1.21849e+06 257978 0 -1.224e+06 323117 0 -1.23075e+06 388673 0 -1.23872e+06 454722 0 -1.24788e+06 521331 0 -1.25822e+06 588566 0 -1.26971e+06 656483 0 -1.28233e+06 725129 0 -1.29606e+06 794541 0 -1.31089e+06 864744 0 -1.32679e+06 935747 0 -1.34378e+06 1.00755e+06 0 -1.18169e+06 0 0 -1.18206e+06 64431.4 0 -1.18365e+06 128955 0 -1.18646e+06 193651 0 -1.19048e+06 258601 0 -1.1957e+06 323881 0 -1.20211e+06 389569 0 -1.20969e+06 455735 0 -1.21842e+06 522448 0 -1.22829e+06 589769 0 -1.23927e+06 657756 0 -1.25136e+06 726454 0 -1.26452e+06 795903 0 -1.27876e+06 866131 0 -1.29406e+06 937151 0 -1.31043e+06 1.00897e+06 0 -1.15416e+06 0 0 -1.15442e+06 64569.3 0 -1.15587e+06 129230 0 -1.15848e+06 194061 0 -1.16226e+06 259140 0 -1.16719e+06 324543 0 -1.17326e+06 390342 0 -1.18046e+06 456608 0 -1.18877e+06 523407 0 -1.19818e+06 590799 0 -1.20866e+06 658841 0 -1.22022e+06 727580 0 -1.23283e+06 797056 0 -1.24648e+06 867299 0 -1.26118e+06 938330 0 -1.27694e+06 1.01016e+06 0 -1.12641e+06 0 0 -1.12657e+06 64686.7 0 -1.12787e+06 129465 0 -1.13029e+06 194411 0 -1.13382e+06 259599 0 -1.13847e+06 325103 0 -1.14421e+06 390995 0 -1.15103e+06 457343 0 -1.15893e+06 524211 0 -1.16789e+06 591659 0 -1.17789e+06 659742 0 -1.18892e+06 728508 0 -1.20097e+06 798000 0 -1.21405e+06 868250 0 -1.22815e+06 939282 0 -1.24329e+06 1.01111e+06 0 -1.09844e+06 0 0 -1.09851e+06 64784.2 0 -1.09966e+06 129659 0 -1.10188e+06 194700 0 -1.10518e+06 259978 0 -1.10955e+06 325565 0 -1.11496e+06 391531 0 -1.12142e+06 457943 0 -1.12891e+06 524863 0 -1.13742e+06 592350 0 -1.14694e+06 660460 0 -1.15746e+06 729241 0 -1.16897e+06 798736 0 -1.18148e+06 868982 0 -1.19498e+06 940007 0 -1.2095e+06 1.01183e+06 0 -1.07027e+06 0 0 -1.07024e+06 64862 0 -1.07124e+06 129815 0 -1.07328e+06 194930 0 -1.07634e+06 260279 0 -1.08043e+06 325930 0 -1.08553e+06 391952 0 -1.09163e+06 458410 0 -1.09872e+06 525365 0 -1.10679e+06 592877 0 -1.11584e+06 660998 0 -1.12585e+06 729780 0 -1.13682e+06 799266 0 -1.14876e+06 869496 0 -1.16167e+06 940502 0 -1.17557e+06 1.01231e+06 0 -1.0419e+06 0 0 -1.04177e+06 64920.6 0 -1.04263e+06 129931 0 -1.04448e+06 195103 0 -1.04731e+06 260503 0 -1.05113e+06 326200 0 -1.05591e+06 392260 0 -1.06165e+06 458746 0 -1.06835e+06 525721 0 -1.07599e+06 593240 0 -1.08457e+06 661359 0 -1.09408e+06 730127 0 -1.10452e+06 799591 0 -1.1159e+06 869792 0 -1.12821e+06 940766 0 -1.14149e+06 1.01255e+06 0 -1.01334e+06 0 0 -1.01311e+06 64960.4 0 -1.01382e+06 130011 0 -1.01549e+06 195219 0 -1.01809e+06 260652 0 -1.02164e+06 326377 0 -1.02611e+06 392457 0 -1.03151e+06 458955 0 -1.03782e+06 525931 0 -1.04504e+06 593442 0 -1.05315e+06 661543 0 -1.06217e+06 730284 0 -1.07208e+06 799712 0 -1.0829e+06 869871 0 -1.09462e+06 940800 0 -1.10728e+06 1.01254e+06 0 -984595 0 0 -984257 64981.7 0 -984830 130053 0 -986311 195280 0 -988693 260728 0 -991973 326462 0 -996142 392544 0 -1.00119e+06 459037 0 -1.00712e+06 525998 0 -1.01392e+06 593486 0 -1.02159e+06 661553 0 -1.03011e+06 730252 0 -1.0395e+06 799629 0 -1.04976e+06 869732 0 -1.0609e+06 940602 0 -1.07295e+06 1.01228e+06 0 -955666 0 0 -955226 64984.9 0 -955657 130059 0 -956956 195286 0 -959117 260731 0 -962134 326456 0 -966003 392524 0 -970716 458994 0 -976269 525925 0 -982655 593373 0 -989871 661391 0 -997916 730032 0 -1.00679e+06 799345 0 -1.0165e+06 869376 0 -1.02706e+06 940172 0 -1.03848e+06 1.01178e+06 0 -926561 0 0 -926019 64970.3 0 -926309 130029 0 -927428 195239 0 -929369 260663 0 -932129 326363 0 -935701 392398 0 -940080 458829 0 -945262 525713 0 -951241 593104 0 -958015 661059 0 -965583 729627 0 -973947 798859 0 -983112 868804 0 -993089 939510 0 -1.0039e+06 1.01102e+06 0 -897287 0 0 -896643 64938.3 0 -896793 129964 0 -897732 195140 0 -899457 260525 0 -901962 326182 0 -905242 392169 0 -909292 458543 0 -914108 525363 0 -919686 592683 0 -926023 660557 0 -933119 729037 0 -940977 798174 0 -949602 868017 0 -959004 938616 0 -969200 1.01002e+06 0 -867849 0 0 -867103 64889.1 0 -867113 129865 0 -867875 194989 0 -869385 260319 0 -871638 325915 0 -874630 391836 0 -878356 458139 0 -882811 524878 0 -887993 592111 0 -893899 659888 0 -900530 728264 0 -907887 797290 0 -915977 867015 0 -924806 937493 0 -934401 1.00876e+06 0 </DataArray> 
</PointData> 
<Points> 
<DataArray type="Float32" NumberOfComponents="3"> 
0 0.0628571 0 0.00274667 0.0628571 0 0.00549333 0.0628571 0 0.00824 0.0628571 0 0.0109867 0.0628571 0 0.0137333 0.0628571 0 0.01648 0.0628571 0 0.0192267 0.0628571 0 0.0219733 0.0628571 0 0.02472 0.0628571 0 0.0274667 0.0628571 0 0.0302133 0.0628571 0 0.03296 0.0628571 0 0.0357067 0.0628571 0 0.0384533 0.0628571 0 0.0412 0.0628571 0 0 0.064 0 0.00273096 0.064003 0 0.00546193 0.0640059 0 0.00819289 0.0640089 0 0.0109239 0.0640119 0 0.0136548 0.0640148 0 0.0163858 0.0640178 0 0.0191167 0.0640207 0 0.0218477 0.0640237 0 0.0245787 0.0640267 0 0.0273096 0.0640296 0 0.0300406 0.0640326 0 0.0327716 0.0640356 0 0.0355025 0.0640385 0 0.0382335 0.0640415 0 0.0409644 0.0640444 0 0 0.0651429 0 0.00271526 0.0651488 0 0.00543052 0.0651547 0 0.00814578 0.0651606 0 0.010861 0.0651666 0 0.0135763 0.0651725 0 0.0162916 0.0651784 0 0.0190068 0.0651843 0 0.0217221 0.0651903 0 0.0244373 0.0651962 0 0.0271526 0.0652021 0 0.0298679 0.065208 0 0.0325831 0.065214 0 0.0352984 0.0652199 0 0.0380136 0.0652258 0 0.0407289 0.0652317 0 0 0.0662857 0 0.00269956 0.0662946 0 0.00539911 0.0663035 0 0.00809867 0.0663124 0 0.0107982 0.0663213 0 0.0134978 0.0663302 0 0.0161973 0.066339 0 0.0188969 0.0663479 0 0.0215964 0.0663568 0 0.024296 0.0663657 0 0.0269956 0.0663746 0 0.0296951 0.0663835 0 0.0323947 0.0663924 0 0.0350942 0.0664013 0 0.0377938 0.0664102 0 0.0404933 0.066419 0 0 0.0674286 0 0.00268385 0.0674404 0 0.0053677 0.0674523 0 0.00805156 0.0674641 0 0.0107354 0.067476 0 0.0134193 0.0674878 0 0.0161031 0.0674997 0 0.018787 0.0675115 0 0.0214708 0.0675234 0 0.0241547 0.0675352 0 0.0268385 0.0675471 0 0.0295224 0.0675589 0 0.0322062 0.0675708 0 0.0348901 0.0675826 0 0.0375739 0.0675945 0 0.0402578 0.0676063 0 0 0.0685714 0 0.00266815 0.0685862 0 0.0053363 0.0686011 0 0.00800444 0.0686159 0 0.0106726 0.0686307 0 0.0133407 0.0686455 0 0.0160089 0.0686603 0 0.018677 0.0686751 0 0.0213452 0.0686899 0 0.0240133 0.0687048 0 0.0266815 0.0687196 0 0.0293496 0.0687344 0 0.0320178 0.0687492 0 0.0346859 0.068764 0 0.0373541 0.0687788 0 0.0400222 0.0687937 0 0 0.0697143 0 0.00265244 0.0697321 0 0.00530489 0.0697498 0 0.00795733 0.0697676 0 0.0106098 0.0697854 0 0.0132622 0.0698032 0 0.0159147 0.069821 0 0.0185671 0.0698387 0 0.0212196 0.0698565 0 0.023872 0.0698743 0 0.0265244 0.0698921 0 0.0291769 0.0699098 0 0.0318293 0.0699276 0 0.0344818 0.0699454 0 0.0371342 0.0699632 0 0.0397867 0.069981 0 0 0.0708571 0 0.00263674 0.0708779 0 0.00527348 0.0708986 0 0.00791022 0.0709194 0 0.010547 0.0709401 0 0.0131837 0.0709608 0 0.0158204 0.0709816 0 0.0184572 0.0710023 0 0.0210939 0.0710231 0 0.0237307 0.0710438 0 0.0263674 0.0710646 0 0.0290041 0.0710853 0 0.0316409 0.071106 0 0.0342776 0.0711268 0 0.0369144 0.0711475 0 0.0395511 0.0711683 0 0 0.072 0 0.00262104 0.0720237 0 0.00524207 0.0720474 0 0.00786311 0.0720711 0 0.0104841 0.0720948 0 0.0131052 0.0721185 0 0.0157262 0.0721422 0 0.0183473 0.0721659 0 0.0209683 0.0721896 0 0.0235893 0.0722133 0 0.0262104 0.072237 0 0.0288314 0.0722607 0 0.0314524 0.0722844 0 0.0340735 0.0723081 0 0.0366945 0.0723319 0 0.0393156 0.0723556 0 0 0.0731429 0 0.00260533 0.0731695 0 0.00521067 0.0731962 0 0.007816 0.0732229 0 0.0104213 0.0732495 0 0.0130267 0.0732762 0 0.015632 0.0733029 0 0.0182373 0.0733295 0 0.0208427 0.0733562 0 0.023448 0.0733829 0 0.0260533 0.0734095 0 0.0286587 0.0734362 0 0.031264 0.0734629 0 0.0338693 0.0734895 0 0.0364747 0.0735162 0 0.03908 0.0735429 0 0 0.0742857 0 0.00258963 0.0743153 0 0.00517926 0.074345 0 0.00776889 0.0743746 0 0.0103585 0.0744042 0 0.0129481 0.0744339 0 0.0155378 0.0744635 0 0.0181274 0.0744931 0 0.020717 0.0745228 0 0.0233067 0.0745524 0 0.0258963 0.074582 0 0.0284859 0.0746116 0 0.0310756 0.0746413 0 0.0336652 0.0746709 0 0.0362548 0.0747005 0 0.0388444 0.0747302 0 0 0.0754286 0 0.00257393 0.0754612 0 0.00514785 0.0754938 0 0.00772178 0.0755263 0 0.0102957 0.0755589 0 0.0128696 0.0755915 0 0.0154436 0.0756241 0 0.0180175 0.0756567 0 0.0205914 0.0756893 0 0.0231653 0.0757219 0 0.0257393 0.0757545 0 0.0283132 0.0757871 0 0.0308871 0.0758197 0 0.033461 0.0758523 0 0.036035 0.0758849 0 0.0386089 0.0759175 0 0 0.0765714 0 0.00255822 0.076607 0 0.00511644 0.0766425 0 0.00767467 0.0766781 0 0.0102329 0.0767137 0 0.0127911 0.0767492 0 0.0153493 0.0767848 0 0.0179076 0.0768203 0 0.0204658 0.0768559 0 0.023024 0.0768914 0 0.0255822 0.076927 0 0.0281404 0.0769625 0 0.0306987 0.0769981 0 0.0332569 0.0770337 0 0.0358151 0.0770692 0 0.0383733 0.0771048 0 0 0.0777143 0 0.00254252 0.0777528 0 0.00508504 0.0777913 0 0.00762756 0.0778298 0 0.0101701 0.0778684 0 0.0127126 0.0779069 0 0.0152551 0.0779454 0 0.0177976 0.0779839 0 0.0203401 0.0780224 0 0.0228827 0.078061 0 0.0254252 0.0780995 0 0.0279677 0.078138 0 0.0305102 0.0781765 0 0.0330527 0.078215 0 0.0355953 0.0782535 0 0.0381378 0.0782921 0 0 0.0788571 0 0.00252681 0.0788986 0 0.00505363 0.0789401 0 0.00758044 0.0789816 0 0.0101073 0.0790231 0 0.0126341 0.0790646 0 0.0151609 0.079106 0 0.0176877 0.0791475 0 0.0202145 0.079189 0 0.0227413 0.0792305 0 0.0252681 0.079272 0 0.027795 0.0793134 0 0.0303218 0.0793549 0 0.0328486 0.0793964 0 0.0353754 0.0794379 0 0.0379022 0.0794794 0 0 0.08 0 0.00251111 0.0800444 0 0.00502222 0.0800889 0 0.00753333 0.0801333 0 0.0100444 0.0801778 0 0.0125556 0.0802222 0 0.0150667 0.0802667 0 0.0175778 0.0803111 0 0.0200889 0.0803556 0 0.0226 0.0804 0 0.0251111 0.0804444 0 0.0276222 0.0804889 0 0.0301333 0.0805333 0 0.0326444 0.0805778 0 0.0351556 0.0806222 0 0.0376667 0.0806667 0 
</DataArray>
</Points> 
</Piece> 
</StructuredGrid> 
</VTKFile> 
