<?xml version="1.0"?> 
<VTKFile type="StructuredGrid" version="0.1"> 
<StructuredGrid WholeExtent="0 15 0 15 0 0"> 
<Piece Extent="0 15 0 15 0 0"> 
<PointData>
<DataArray type="Float32" Name="|E|" format="ascii" NumberOfComponents="3"> 
588.149 2393.13 0 -329.66 675.964 0 -104.889 341.086 0 -95.8582 152.497 0 -41.77 73.029 0 -27.6797 38.2256 0 -15.2132 20.0223 0 -9.68768 11.1988 0 -5.93948 6.13518 0 -3.78448 3.44071 0 -2.39752 1.88263 0 -1.53408 1.02263 0 -0.994944 0.531303 0 -0.67256 0.25546 0 -0.503409 0.095346 0 -0.454642 -2.38419e-07 0 -123.907 1919.59 0 -368.02 649.007 0 -164.26 290.971 0 -104.447 132.027 0 -49.6569 63.6746 0 -29.8186 33.6126 0 -16.6602 17.8805 0 -10.2908 10.0224 0 -6.28323 5.52657 0 -3.95235 3.09591 0 -2.48612 1.69439 0 -1.57938 0.917168 0 -1.01882 0.47457 0 -0.685949 0.226531 0 -0.511721 0.0836715 0 -0.460371 -2.38419e-07 0 -569.391 1595.1 0 -427.738 566.906 0 -203.352 240.883 0 -111.945 110.21 0 -55.0643 54.1321 0 -31.5278 28.9882 0 -17.7635 15.6937 0 -10.7829 8.83993 0 -6.56257 4.90787 0 -4.09166 2.74768 0 -2.55983 1.50387 0 -1.6173 0.810693 0 -1.03895 0.417367 0 -0.697361 0.197415 0 -0.5189 0.0719575 0 -0.465294 2.38419e-07 0 -863.631 1285.66 0 -480.409 459.836 0 -227.759 189.955 0 -116.926 88.2204 0 -58.4906 44.6312 0 -32.7389 24.4371 0 -18.5617 13.4968 0 -11.1624 7.66419 0 -6.78035 4.28376 0 -4.20266 2.39881 0 -2.61882 1.31184 0 -1.6479 0.703813 0 -1.05532 0.35984 0 -0.706789 0.168224 0 -0.52493 0.0602223 0 -0.469404 2.98023e-08 0 -1050.84 973.577 0 -514.816 341.523 0 -240.114 139.365 0 -118.936 66.8465 0 -60.2624 35.4015 0 -33.442 20.0186 0 -19.0867 11.3257 0 -11.4307 6.50235 0 -6.93961 3.66052 0 -4.28575 2.05077 0 -2.66339 1.11951 0 -1.67122 0.596873 0 -1.06796 0.302223 0 -0.714226 0.139027 0 -0.529801 0.0484971 0 -0.472696 8.9407e-08 0 -1151.64 661.822 0 -527.285 221.402 0 -242.082 90.785 0 -118.02 46.7255 0 -60.6313 26.6364 0 -33.6633 15.7907 0 -19.3652 9.20713 0 -11.5921 5.36346 0 -7.04322 3.04282 0 -4.34158 1.70553 0 -2.69386 0.927818 0 -1.68735 0.490309 0 -1.07689 0.244709 0 -0.719674 0.109908 0 -0.533506 0.036809 0 -0.475164 -1.19209e-07 0 -1179.34 361.866 0 -517.739 106.185 0 -235.133 45.8938 0 -114.482 28.3601 0 -59.8222 18.49 0 -33.4465 11.7994 0 -19.4228 7.16335 0 -11.6523 4.25544 0 -7.09418 2.43489 0 -4.37102 1.36489 0 -2.71059 0.737662 0 -1.69643 0.384543 0 -1.08214 0.187482 0 -0.723138 0.080948 0 -0.536039 0.0251825 0 -0.476805 1.78814e-07 0 -1145.08 84.9227 0 -488.042 1.03248 0 -220.788 6.17184 0 -108.786 12.1189 0 -58.0415 11.0754 0 -32.8474 8.0792 0 -19.2831 5.21297 0 -11.6183 3.18482 0 -7.09557 1.84078 0 -4.37505 1.03046 0 -2.714 0.549936 0 -1.69859 0.279963 0 -1.08375 0.130732 0 -0.724631 0.0522258 0 -0.537397 0.0136438 0 -0.477617 -1.19209e-07 0 -1059.94 -159.549 0 -441.03 -90.1752 0 -200.748 -27.1867 0 -101.463 -1.77622 0 -55.4842 4.46606 0 -31.9274 4.65295 0 -18.9688 3.37076 0 -11.498 2.15686 0 -7.05047 1.26423 0 -4.35482 0.703582 0 -2.70457 0.365536 0 -1.694 0.176913 0 -1.08178 0.07465 0 -0.724168 0.0238124 0 -0.537578 0.00221907 0 -0.477601 5.96046e-08 0 -934.547 -365.494 0 -380.123 -164.491 0 -176.898 -53.3546 0 -93.0497 -13.2517 0 -52.3342 -1.3007 0 -30.75 1.53183 0 -18.5002 1.64877 0 -11.3 1.17508 0 -6.96189 0.709063 0 -4.3116 0.385206 0 -2.68279 0.185477 0 -1.68286 0.0756362 0 -1.0763 0.0194637 0 -0.72177 -0.00424011 0 -0.536586 -0.0090588 0 -0.476757 -5.96046e-08 0 -778.928 -529.275 0 -309.036 -219.8 0 -151.315 -71.9037 0 -84.0068 -22.3811 0 -48.7745 -6.22252 0 -29.3733 -1.27923 0 -17.8969 0.05326 0 -11.0335 0.243284 0 -6.83267 0.178186 0 -4.2468 0.0763195 0 -2.64918 0.0106711 0 -1.66536 -0.0236382 0 -1.06741 -0.0346026 0 -0.717452 -0.0318868 0 -0.534431 -0.0201559 0 -0.475083 -1.78814e-07 0 -601.618 -651.101 0 -231.765 -254.387 0 -126.244 -82.9175 0 -74.6256 -29.3607 0 -45.0136 -10.3268 0 -27.8355 -3.77965 0 -17.1821 -1.41571 0 -10.7061 -0.633673 0 -6.66593 -0.326825 0 -4.16188 -0.221858 0 -2.6043 -0.158127 0 -1.64172 -0.120683 0 -1.05521 -0.0873254 0 -0.711231 -0.0590914 0 -0.53113 -0.0310355 0 -0.472573 5.96046e-08 0 -407.461 -735.336 0 -153.168 -266.363 0 -103.881 -87.2155 0 -64.9751 -34.4156 0 -41.3132 -13.7005 0 -26.1357 -5.94608 0 -16.3899 -2.7825 0 -10.3212 -1.43743 0 -6.46597 -0.813228 0 -4.05807 -0.503631 0 -2.54875 -0.322553 0 -1.61222 -0.214173 0 -1.03978 -0.138995 0 -0.703146 -0.0856065 0 -0.526694 -0.0417389 0 -0.469228 2.98023e-07 0 -192.715 -796.026 0 -81.0025 -252.007 0 -85.4842 -86.8946 0 -55.1016 -37.6902 0 -37.9391 -16.4295 0 -24.2372 -7.79509 0 -15.5702 -4.04987 0 -9.87428 -2.16301 0 -6.23991 -1.28262 0 -3.93574 -0.766104 0 -2.48333 -0.483145 0 -1.57713 -0.303286 0 -1.02119 -0.189709 0 -0.69327 -0.111267 0 -0.521112 -0.0522809 0 -0.465077 -4.76837e-07 0 67.2906 -864.806 0 -31.431 -202.824 0 -68.7833 -86.5724 0 -45.984 -38.7134 0 -34.8152 -18.7791 0 -22.1814 -9.296 0 -14.7527 -5.2476 0 -9.36258 -2.78687 0 -5.9951 -1.75141 0 -3.79506 -0.996722 0 -2.40882 -0.646386 0 -1.53691 -0.383999 0 -0.999356 -0.241195 0 -0.681782 -0.135169 0 -0.514305 -0.0629619 0 -0.460208 3.57628e-07 0 475.955 -1085.61 0 -52.8214 -86.5898 0 -36.06 -98.7897 0 -45.0135 -35.8874 0 -29.1375 -20.124 0 -21.0685 -11.5794 0 -13.5706 -5.51884 0 -8.91916 -3.8503 0 -5.6965 -1.91473 0 -3.64702 -1.35314 0 -2.32459 -0.734016 0 -1.49129 -0.492446 0 -0.975093 -0.277116 0 -0.668246 -0.164055 0 -0.506609 -0.0712944 0 -0.454358 -2.38419e-07 0 </DataArray> 
</PointData> 
<Points> 
<DataArray type="Float32" NumberOfComponents="3"> 
0.125 0.021 0 0.129 0.0216 0 0.133 0.0222 0 0.137 0.0228 0 0.141 0.0234 0 0.145 0.024 0 0.149 0.0246 0 0.153 0.0252 0 0.157 0.0258 0 0.161 0.0264 0 0.165 0.027 0 0.169 0.0276 0 0.173 0.0282 0 0.177 0.0288 0 0.181 0.0294 0 0.185 0.03 0 0.125333 0.0219333 0 0.129311 0.0224933 0 0.133289 0.0230533 0 0.137267 0.0236133 0 0.141244 0.0241733 0 0.145222 0.0247333 0 0.1492 0.0252933 0 0.153178 0.0258533 0 0.157156 0.0264133 0 0.161133 0.0269733 0 0.165111 0.0275333 0 0.169089 0.0280933 0 0.173067 0.0286533 0 0.177044 0.0292133 0 0.181022 0.0297733 0 0.185 0.0303333 0 0.125667 0.0228667 0 0.129622 0.0233867 0 0.133578 0.0239067 0 0.137533 0.0244267 0 0.141489 0.0249467 0 0.145444 0.0254667 0 0.1494 0.0259867 0 0.153356 0.0265067 0 0.157311 0.0270267 0 0.161267 0.0275467 0 0.165222 0.0280667 0 0.169178 0.0285867 0 0.173133 0.0291067 0 0.177089 0.0296267 0 0.181044 0.0301467 0 0.185 0.0306667 0 0.126 0.0238 0 0.129933 0.02428 0 0.133867 0.02476 0 0.1378 0.02524 0 0.141733 0.02572 0 0.145667 0.0262 0 0.1496 0.02668 0 0.153533 0.02716 0 0.157467 0.02764 0 0.1614 0.02812 0 0.165333 0.0286 0 0.169267 0.02908 0 0.1732 0.02956 0 0.177133 0.03004 0 0.181067 0.03052 0 0.185 0.031 0 0.126333 0.0247333 0 0.130244 0.0251733 0 0.134156 0.0256133 0 0.138067 0.0260533 0 0.141978 0.0264933 0 0.145889 0.0269333 0 0.1498 0.0273733 0 0.153711 0.0278133 0 0.157622 0.0282533 0 0.161533 0.0286933 0 0.165444 0.0291333 0 0.169356 0.0295733 0 0.173267 0.0300133 0 0.177178 0.0304533 0 0.181089 0.0308933 0 0.185 0.0313333 0 0.126667 0.0256667 0 0.130556 0.0260667 0 0.134444 0.0264667 0 0.138333 0.0268667 0 0.142222 0.0272667 0 0.146111 0.0276667 0 0.15 0.0280667 0 0.153889 0.0284667 0 0.157778 0.0288667 0 0.161667 0.0292667 0 0.165556 0.0296667 0 0.169444 0.0300667 0 0.173333 0.0304667 0 0.177222 0.0308667 0 0.181111 0.0312667 0 0.185 0.0316667 0 0.127 0.0266 0 0.130867 0.02696 0 0.134733 0.02732 0 0.1386 0.02768 0 0.142467 0.02804 0 0.146333 0.0284 0 0.1502 0.02876 0 0.154067 0.02912 0 0.157933 0.02948 0 0.1618 0.02984 0 0.165667 0.0302 0 0.169533 0.03056 0 0.1734 0.03092 0 0.177267 0.03128 0 0.181133 0.03164 0 0.185 0.032 0 0.127333 0.0275333 0 0.131178 0.0278533 0 0.135022 0.0281733 0 0.138867 0.0284933 0 0.142711 0.0288133 0 0.146556 0.0291333 0 0.1504 0.0294533 0 0.154244 0.0297733 0 0.158089 0.0300933 0 0.161933 0.0304133 0 0.165778 0.0307333 0 0.169622 0.0310533 0 0.173467 0.0313733 0 0.177311 0.0316933 0 0.181156 0.0320133 0 0.185 0.0323333 0 0.127667 0.0284667 0 0.131489 0.0287467 0 0.135311 0.0290267 0 0.139133 0.0293067 0 0.142956 0.0295867 0 0.146778 0.0298667 0 0.1506 0.0301467 0 0.154422 0.0304267 0 0.158244 0.0307067 0 0.162067 0.0309867 0 0.165889 0.0312667 0 0.169711 0.0315467 0 0.173533 0.0318267 0 0.177356 0.0321067 0 0.181178 0.0323867 0 0.185 0.0326667 0 0.128 0.0294 0 0.1318 0.02964 0 0.1356 0.02988 0 0.1394 0.03012 0 0.1432 0.03036 0 0.147 0.0306 0 0.1508 0.03084 0 0.1546 0.03108 0 0.1584 0.03132 0 0.1622 0.03156 0 0.166 0.0318 0 0.1698 0.03204 0 0.1736 0.03228 0 0.1774 0.03252 0 0.1812 0.03276 0 0.185 0.033 0 0.128333 0.0303333 0 0.132111 0.0305333 0 0.135889 0.0307333 0 0.139667 0.0309333 0 0.143444 0.0311333 0 0.147222 0.0313333 0 0.151 0.0315333 0 0.154778 0.0317333 0 0.158556 0.0319333 0 0.162333 0.0321333 0 0.166111 0.0323333 0 0.169889 0.0325333 0 0.173667 0.0327333 0 0.177444 0.0329333 0 0.181222 0.0331333 0 0.185 0.0333333 0 0.128667 0.0312667 0 0.132422 0.0314267 0 0.136178 0.0315867 0 0.139933 0.0317467 0 0.143689 0.0319067 0 0.147444 0.0320667 0 0.1512 0.0322267 0 0.154956 0.0323867 0 0.158711 0.0325467 0 0.162467 0.0327067 0 0.166222 0.0328667 0 0.169978 0.0330267 0 0.173733 0.0331867 0 0.177489 0.0333467 0 0.181244 0.0335067 0 0.185 0.0336667 0 0.129 0.0322 0 0.132733 0.03232 0 0.136467 0.03244 0 0.1402 0.03256 0 0.143933 0.03268 0 0.147667 0.0328 0 0.1514 0.03292 0 0.155133 0.03304 0 0.158867 0.03316 0 0.1626 0.03328 0 0.166333 0.0334 0 0.170067 0.03352 0 0.1738 0.03364 0 0.177533 0.03376 0 0.181267 0.03388 0 0.185 0.034 0 0.129333 0.0331333 0 0.133044 0.0332133 0 0.136756 0.0332933 0 0.140467 0.0333733 0 0.144178 0.0334533 0 0.147889 0.0335333 0 0.1516 0.0336133 0 0.155311 0.0336933 0 0.159022 0.0337733 0 0.162733 0.0338533 0 0.166444 0.0339333 0 0.170156 0.0340133 0 0.173867 0.0340933 0 0.177578 0.0341733 0 0.181289 0.0342533 0 0.185 0.0343333 0 0.129667 0.0340667 0 0.133356 0.0341067 0 0.137044 0.0341467 0 0.140733 0.0341867 0 0.144422 0.0342267 0 0.148111 0.0342667 0 0.1518 0.0343067 0 0.155489 0.0343467 0 0.159178 0.0343867 0 0.162867 0.0344267 0 0.166556 0.0344667 0 0.170244 0.0345067 0 0.173933 0.0345467 0 0.177622 0.0345867 0 0.181311 0.0346267 0 0.185 0.0346667 0 0.13 0.035 0 0.133667 0.035 0 0.137333 0.035 0 0.141 0.035 0 0.144667 0.035 0 0.148333 0.035 0 0.152 0.035 0 0.155667 0.035 0 0.159333 0.035 0 0.163 0.035 0 0.166667 0.035 0 0.170333 0.035 0 0.174 0.035 0 0.177667 0.035 0 0.181333 0.035 0 0.185 0.035 0 
</DataArray>
</Points> 
</Piece> 
</StructuredGrid> 
</VTKFile> 
