<?xml version="1.0"?> 
<VTKFile type="StructuredGrid" version="0.1"> 
<StructuredGrid WholeExtent="0 15 0 15 0 0"> 
<Piece Extent="0 15 0 15 0 0"> 
<PointData>
<DataArray type="Float32" Name="|E|" format="ascii" NumberOfComponents="3"> 
374771 5.50399e+06 0 744657 5.7287e+06 0 1.13411e+06 5.85484e+06 0 1.53305e+06 5.90292e+06 0 1.93329e+06 5.88443e+06 0 2.32775e+06 5.80724e+06 0 2.71015e+06 5.67772e+06 0 3.07503e+06 5.50169e+06 0 3.41774e+06 5.28484e+06 0 3.73446e+06 5.03279e+06 0 4.0222e+06 4.75116e+06 0 4.27873e+06 4.44543e+06 0 4.50257e+06 4.12089e+06 0 4.69278e+06 3.7825e+06 0 4.84888e+06 3.43488e+06 0 4.97055e+06 3.08215e+06 0 1.03662e+06 4.90453e+06 0 1.21998e+06 4.92234e+06 0 1.42593e+06 4.91652e+06 0 1.64293e+06 4.88107e+06 0 1.86281e+06 4.81557e+06 0 2.07934e+06 4.72208e+06 0 2.28799e+06 4.60374e+06 0 2.48555e+06 4.46419e+06 0 2.66986e+06 4.30714e+06 0 2.83963e+06 4.1362e+06 0 2.99431e+06 3.95476e+06 0 3.13387e+06 3.76586e+06 0 3.25874e+06 3.5722e+06 0 3.36967e+06 3.37613e+06 0 3.4677e+06 3.17969e+06 0 3.55413e+06 2.98467e+06 0 1.14949e+06 4.47419e+06 0 1.28747e+06 4.44396e+06 0 1.42997e+06 4.39437e+06 0 1.57363e+06 4.32659e+06 0 1.7152e+06 4.2419e+06 0 1.85195e+06 4.14205e+06 0 1.98176e+06 4.02924e+06 0 2.10317e+06 3.90585e+06 0 2.21533e+06 3.77429e+06 0 2.31787e+06 3.63685e+06 0 2.41086e+06 3.49562e+06 0 2.49464e+06 3.35239e+06 0 2.56975e+06 3.20867e+06 0 2.63683e+06 3.06563e+06 0 2.69653e+06 2.92419e+06 0 2.74947e+06 2.7849e+06 0 1.13968e+06 4.1685e+06 0 1.24281e+06 4.11191e+06 0 1.34654e+06 4.04335e+06 0 1.4486e+06 3.963e+06 0 1.54708e+06 3.8719e+06 0 1.64045e+06 3.77156e+06 0 1.72764e+06 3.66377e+06 0 1.80802e+06 3.55036e+06 0 1.88136e+06 3.43315e+06 0 1.94771e+06 3.3138e+06 0 2.0074e+06 3.1938e+06 0 2.06094e+06 3.07442e+06 0 2.10891e+06 2.95669e+06 0 2.15199e+06 2.84143e+06 0 2.19086e+06 2.72928e+06 0 2.22626e+06 2.62069e+06 0 1.07651e+06 3.93765e+06 0 1.15632e+06 3.87044e+06 0 1.23476e+06 3.79362e+06 0 1.3104e+06 3.70816e+06 0 1.38204e+06 3.61527e+06 0 1.44884e+06 3.51633e+06 0 1.51025e+06 3.41284e+06 0 1.56604e+06 3.30631e+06 0 1.61627e+06 3.19816e+06 0 1.66117e+06 3.08969e+06 0 1.70116e+06 2.98201e+06 0 1.73673e+06 2.87606e+06 0 1.76846e+06 2.77257e+06 0 1.79691e+06 2.67212e+06 0 1.82263e+06 2.5751e+06 0 1.84612e+06 2.48174e+06 0 991547 3.7606e+06 0 1.05428e+06 3.68693e+06 0 1.11484e+06 3.60584e+06 0 1.17225e+06 3.51819e+06 0 1.22574e+06 3.42509e+06 0 1.2748e+06 3.32778e+06 0 1.31918e+06 3.22758e+06 0 1.35887e+06 3.12575e+06 0 1.39403e+06 3.02348e+06 0 1.425e+06 2.92183e+06 0 1.45218e+06 2.82171e+06 0 1.47607e+06 2.72384e+06 0 1.49717e+06 2.62883e+06 0 1.51597e+06 2.5371e+06 0 1.53296e+06 2.44896e+06 0 1.5486e+06 2.36461e+06 0 897062 3.62056e+06 0 946881 3.54323e+06 0 994231 3.45973e+06 0 1.0384e+06 3.37095e+06 0 1.07887e+06 3.27796e+06 0 1.11536e+06 3.18192e+06 0 1.14779e+06 3.08397e+06 0 1.17624e+06 2.98522e+06 0 1.20096e+06 2.88672e+06 0 1.22228e+06 2.78935e+06 0 1.24063e+06 2.69388e+06 0 1.25644e+06 2.60093e+06 0 1.27017e+06 2.51099e+06 0 1.28225e+06 2.42442e+06 0 1.29309e+06 2.34146e+06 0 1.30304e+06 2.26226e+06 0 798693 3.50788e+06 0 838453 3.42792e+06 0 875656 3.34269e+06 0 909789 3.25306e+06 0 940519 3.16003e+06 0 967691 3.06466e+06 0 991321 2.96801e+06 0 1.01156e+06 2.87108e+06 0 1.02869e+06 2.77478e+06 0 1.04304e+06 2.67991e+06 0 1.055e+06 2.58714e+06 0 1.06498e+06 2.49702e+06 0 1.07337e+06 2.40998e+06 0 1.08056e+06 2.32632e+06 0 1.08689e+06 2.24625e+06 0 1.09268e+06 2.1699e+06 0 699096 3.41569e+06 0 730762 3.33358e+06 0 759920 3.2468e+06 0 786197 3.1562e+06 0 809378 3.06274e+06 0 829401 2.96742e+06 0 846343 2.87121e+06 0 860395 2.77503e+06 0 871832 2.67973e+06 0 880985 2.58604e+06 0 888213 2.49456e+06 0 893881 2.40579e+06 0 898340 2.32013e+06 0 901918 2.23783e+06 0 904908 2.15911e+06 0 907568 2.08405e+06 0 599400 3.33937e+06 0 624391 3.25518e+06 0 646999 3.16672e+06 0 666959 3.07483e+06 0 684145 2.98045e+06 0 698556 2.88452e+06 0 710308 2.78796e+06 0 719608 2.69166e+06 0 726726 2.59638e+06 0 731973 2.50281e+06 0 735674 2.41154e+06 0 738152 2.32302e+06 0 739714 2.2376e+06 0 740641 2.15555e+06 0 741178 2.07704e+06 0 741543 2.00218e+06 0 500003 3.2756e+06 0 519351 3.18916e+06 0 536507 3.09872e+06 0 551290 3.00512e+06 0 563636 2.90927e+06 0 573589 2.81208e+06 0 581287 2.71445e+06 0 586937 2.61722e+06 0 590795 2.52113e+06 0 593145 2.42684e+06 0 594276 2.3349e+06 0 594467 2.24575e+06 0 593980 2.15972e+06 0 593050 2.07706e+06 0 591881 1.99794e+06 0 590647 1.92243e+06 0 400883 3.22197e+06 0 415364 3.13296e+06 0 427905 3.04012e+06 0 438393 2.94429e+06 0 446811 2.84638e+06 0 453231 2.74729e+06 0 457797 2.64789e+06 0 460707 2.54902e+06 0 462195 2.4514e+06 0 462507 2.35566e+06 0 461891 2.26234e+06 0 460583 2.17186e+06 0 458796 2.08453e+06 0 456721 2.00061e+06 0 454520 1.92022e+06 0 452327 1.84347e+06 0 301785 3.17669e+06 0 311993 3.08465e+06 0 320588 2.98888e+06 0 327506 2.89024e+06 0 332765 2.78964e+06 0 336448 2.68799e+06 0 338693 2.58617e+06 0 339678 2.485e+06 0 339599 2.38521e+06 0 338661 2.2874e+06 0 337063 2.19211e+06 0 334991 2.09974e+06 0 332611 2.01059e+06 0 330065 1.92489e+06 0 327475 1.84278e+06 0 324938 1.76431e+06 0 202300 3.13839e+06 0 208712 3.04275e+06 0 213924 2.94342e+06 0 217914 2.84131e+06 0 220713 2.73735e+06 0 222403 2.63249e+06 0 223098 2.52761e+06 0 222939 2.42354e+06 0 222074 2.321e+06 0 220655 2.22061e+06 0 218824 2.12287e+06 0 216710 2.02818e+06 0 214429 1.93681e+06 0 212076 1.84898e+06 0 209729 1.76479e+06 0 207451 1.68431e+06 0 101910 3.10602e+06 0 104930 3.00606e+06 0 107277 2.90244e+06 0 108950 2.79613e+06 0 109982 2.68811e+06 0 110425 2.57937e+06 0 110353 2.47082e+06 0 109849 2.3633e+06 0 108996 2.25754e+06 0 107878 2.15413e+06 0 106572 2.05358e+06 0 105147 1.95625e+06 0 103659 1.8624e+06 0 102157 1.77221e+06 0 100680 1.68577e+06 0 99256.9 1.6031e+06 0 0 3.0787e+06 0 0 2.97356e+06 0 0 2.8648e+06 0 0 2.75347e+06 0 0 2.64065e+06 0 0 2.52736e+06 0 0 2.41457e+06 0 0 2.30312e+06 0 0 2.19374e+06 0 0 2.08703e+06 0 0 1.98343e+06 0 0 1.88329e+06 0 0 1.78684e+06 0 0 1.69421e+06 0 0 1.60545e+06 0 0 1.52057e+06 0 </DataArray> 
</PointData> 
<Points> 
<DataArray type="Float32" NumberOfComponents="3"> 
0.188 0.0600551 0 0.188983 0.0599578 0 0.189971 0.0597981 0 0.190957 0.0595746 0 0.191937 0.0592868 0 0.192903 0.0589349 0 0.19385 0.0585197 0 0.194771 0.0580433 0 0.19566 0.057508 0 0.196512 0.0569172 0 0.197322 0.056275 0 0.198085 0.0555859 0 0.198798 0.0548549 0 0.199457 0.0540875 0 0.200061 0.0532894 0 0.200607 0.0524662 0 0.18884 0.0635181 0 0.190002 0.0634723 0 0.191171 0.063363 0 0.19234 0.0631886 0 0.193503 0.0629483 0 0.194653 0.062642 0 0.195783 0.0622703 0 0.196887 0.0618345 0 0.197957 0.0613368 0 0.198988 0.0607801 0 0.199975 0.0601679 0 0.200911 0.0595044 0 0.201792 0.0587942 0 0.202615 0.0580424 0 0.203377 0.0572542 0 0.204075 0.0564351 0 0.189681 0.0669811 0 0.19102 0.0669802 0 0.192367 0.0669155 0 0.193716 0.0667851 0 0.19506 0.066588 0 0.196391 0.0663239 0 0.197702 0.065993 0 0.198987 0.0655966 0 0.200237 0.0651362 0 0.201447 0.0646144 0 0.202609 0.0640343 0 0.203719 0.0633996 0 0.204772 0.0627144 0 0.205762 0.0619835 0 0.206687 0.0612116 0 0.207544 0.0604041 0 0.190521 0.0704441 0 0.192035 0.0704817 0 0.193558 0.0704556 0 0.195085 0.0703641 0 0.196607 0.0702059 0 0.198117 0.0699807 0 0.199607 0.0696884 0 0.20107 0.0693299 0 0.202499 0.0689066 0 0.203887 0.0684205 0 0.205226 0.0678745 0 0.206511 0.0672716 0 0.207737 0.0666157 0 0.208898 0.0659109 0 0.209991 0.0651617 0 0.211013 0.064373 0 0.191362 0.0739071 0 0.193049 0.0739767 0 0.194746 0.0739835 0 0.196447 0.0739259 0 0.198145 0.0738025 0 0.199831 0.0736127 0 0.201498 0.0733567 0 0.203138 0.0730348 0 0.204744 0.0726482 0 0.206309 0.0721987 0 0.207825 0.0716886 0 0.209286 0.0711206 0 0.210687 0.0704981 0 0.212023 0.0698248 0 0.213289 0.0691046 0 0.214481 0.0683419 0 0.192202 0.0773701 0 0.19406 0.0774653 0 0.19593 0.0774993 0 0.197803 0.0774705 0 0.199674 0.0773777 0 0.201534 0.0772203 0 0.203375 0.0769981 0 0.205191 0.0767115 0 0.206972 0.0763614 0 0.208713 0.0759493 0 0.210406 0.0754769 0 0.212045 0.0749469 0 0.213624 0.0743618 0 0.215137 0.0737251 0 0.216581 0.0730401 0 0.21795 0.0723108 0 0.193043 0.0808331 0 0.19507 0.0809474 0 0.197109 0.0810029 0 0.199153 0.0809981 0 0.201194 0.0809318 0 0.203225 0.0808035 0 0.205239 0.080613 0 0.207227 0.0803604 0 0.209183 0.0800466 0 0.2111 0.0796725 0 0.21297 0.0792398 0 0.214788 0.0787505 0 0.216546 0.078207 0 0.218241 0.077612 0 0.219866 0.0769685 0 0.221418 0.0762797 0 0.193883 0.084296 0 0.196078 0.0844231 0 0.198285 0.0844944 0 0.200496 0.0845087 0 0.202705 0.0844651 0 0.204905 0.0843628 0 0.207089 0.0842017 0 0.209249 0.0839819 0 0.211378 0.0837039 0 0.213469 0.0833687 0 0.215517 0.0829775 0 0.217514 0.0825318 0 0.219455 0.0820338 0 0.221334 0.0814855 0 0.223146 0.0808895 0 0.224887 0.0802487 0 0.194724 0.087759 0 0.197084 0.0878924 0 0.199456 0.087974 0 0.201833 0.0880026 0 0.204207 0.0879776 0 0.206574 0.0878982 0 0.208925 0.0877644 0 0.211255 0.0875762 0 0.213556 0.0873339 0 0.215822 0.0870382 0 0.218047 0.0866901 0 0.220224 0.086291 0 0.222349 0.0858422 0 0.224416 0.0853457 0 0.22642 0.0848034 0 0.228356 0.0842176 0 0.195564 0.091222 0 0.198088 0.0913554 0 0.200623 0.0914416 0 0.203163 0.0914799 0 0.205701 0.0914695 0 0.208231 0.0914101 0 0.210749 0.0913015 0 0.213246 0.0911436 0 0.215717 0.0909366 0 0.218157 0.0906812 0 0.22056 0.0903781 0 0.222919 0.0900281 0 0.22523 0.0896325 0 0.227488 0.0891926 0 0.229687 0.08871 0 0.231824 0.0881865 0 0.196405 0.094685 0 0.199091 0.0948119 0 0.201787 0.0948973 0 0.204487 0.0949406 0 0.207186 0.0949412 0 0.209878 0.0948987 0 0.212559 0.0948131 0 0.215222 0.0946844 0 0.217863 0.0945126 0 0.220476 0.0942981 0 0.223056 0.0940415 0 0.225598 0.0937435 0 0.228097 0.0934048 0 0.230549 0.0930264 0 0.232949 0.0926095 0 0.235293 0.0921554 0 0.197245 0.098148 0 0.200091 0.0982622 0 0.202946 0.0983413 0 0.205804 0.0983848 0 0.208662 0.0983926 0 0.211514 0.0983643 0 0.214356 0.0982997 0 0.217184 0.0981989 0 0.219993 0.098062 0 0.222778 0.0978892 0 0.225536 0.0976808 0 0.228261 0.0974372 0 0.230951 0.0971591 0 0.2336 0.0968471 0 0.236204 0.0965019 0 0.238761 0.0961243 0 0.198085 0.101611 0 0.20109 0.101706 0 0.204101 0.101773 0 0.207116 0.101813 0 0.210129 0.101824 0 0.213139 0.101807 0 0.216141 0.101761 0 0.219131 0.101687 0 0.222107 0.101585 0 0.225064 0.101455 0 0.227999 0.101296 0 0.230909 0.10111 0 0.23379 0.100896 0 0.23664 0.100655 0 0.239454 0.100387 0 0.24223 0.100093 0 0.198926 0.105074 0 0.202087 0.105144 0 0.205253 0.105194 0 0.208421 0.105225 0 0.211588 0.105236 0 0.214753 0.105227 0 0.217912 0.105198 0 0.221064 0.10515 0 0.224205 0.105082 0 0.227333 0.104995 0 0.230446 0.104887 0 0.233542 0.104761 0 0.236617 0.104615 0 0.23967 0.104449 0 0.242698 0.104265 0 0.245699 0.104062 0 0.199766 0.108537 0 0.203082 0.108575 0 0.2064 0.108603 0 0.20972 0.10862 0 0.213039 0.108628 0 0.216357 0.108625 0 0.219672 0.108611 0 0.222982 0.108588 0 0.226288 0.108554 0 0.229587 0.10851 0 0.232878 0.108455 0 0.236159 0.108391 0 0.23943 0.108316 0 0.242689 0.108231 0 0.245935 0.108136 0 0.249167 0.108031 0 0.200607 0.112 0 0.204075 0.112 0 0.207544 0.112 0 0.211013 0.112 0 0.214481 0.112 0 0.21795 0.112 0 0.221418 0.112 0 0.224887 0.112 0 0.228356 0.112 0 0.231824 0.112 0 0.235293 0.112 0 0.238761 0.112 0 0.24223 0.112 0 0.245699 0.112 0 0.249167 0.112 0 0.252636 0.112 0 
</DataArray>
</Points> 
</Piece> 
</StructuredGrid> 
</VTKFile> 
