<?xml version="1.0"?> 
<VTKFile type="StructuredGrid" version="0.1"> 
<StructuredGrid WholeExtent="0 15 0 15 0 0"> 
<Piece Extent="0 15 0 15 0 0"> 
<PointData>
<DataArray type="Float32" Name="|E|" format="ascii" NumberOfComponents="3"> 
-934384 1.00864e+06 0 -946083 1.08055e+06 0 -958610 1.15334e+06 0 -972018 1.22707e+06 0 -986350 1.30181e+06 0 -1.00166e+06 1.37764e+06 0 -1.01803e+06 1.45466e+06 0 -1.03551e+06 1.53298e+06 0 -1.05419e+06 1.61275e+06 0 -1.07416e+06 1.69417e+06 0 -1.09549e+06 1.77746e+06 0 -1.11824e+06 1.86293e+06 0 -1.14246e+06 1.95093e+06 0 -1.16815e+06 2.04192e+06 0 -1.19523e+06 2.13646e+06 0 -1.22352e+06 2.23531e+06 0 -880021 1.05392e+06 0 -891777 1.1294e+06 0 -904391 1.20588e+06 0 -917905 1.28345e+06 0 -932365 1.3622e+06 0 -947824 1.44222e+06 0 -964341 1.52366e+06 0 -981973 1.60666e+06 0 -1.00078e+06 1.69142e+06 0 -1.0208e+06 1.77818e+06 0 -1.04206e+06 1.86723e+06 0 -1.06455e+06 1.95892e+06 0 -1.0882e+06 2.05369e+06 0 -1.11286e+06 2.15207e+06 0 -1.13826e+06 2.25467e+06 0 -1.16391e+06 2.36213e+06 0 -824581 1.09946e+06 0 -836308 1.17858e+06 0 -848900 1.25884e+06 0 -862397 1.34035e+06 0 -876841 1.42321e+06 0 -892272 1.50757e+06 0 -908732 1.59357e+06 0 -926253 1.68141e+06 0 -944851 1.77133e+06 0 -964516 1.8636e+06 0 -985193 1.95856e+06 0 -1.00676e+06 2.0566e+06 0 -1.02901e+06 2.15821e+06 0 -1.0516e+06 2.26391e+06 0 -1.07403e+06 2.37431e+06 0 -1.09551e+06 2.49001e+06 0 -768044 1.14519e+06 0 -779635 1.22801e+06 0 -792084 1.31214e+06 0 -805424 1.39767e+06 0 -819683 1.48475e+06 0 -834887 1.57355e+06 0 -851049 1.66423e+06 0 -868162 1.75703e+06 0 -886189 1.8522e+06 0 -905043 1.95006e+06 0 -924571 2.05096e+06 0 -944520 2.1553e+06 0 -964511 2.26355e+06 0 -983992 2.37617e+06 0 -1.00221e+06 2.49367e+06 0 -1.01807e+06 2.61638e+06 0 -710384 1.19105e+06 0 -721724 1.27764e+06 0 -733896 1.36569e+06 0 -746922 1.45532e+06 0 -760813 1.5467e+06 0 -775571 1.64001e+06 0 -791172 1.73544e+06 0 -807559 1.83325e+06 0 -824629 1.9337e+06 0 -842204 2.03711e+06 0 -860015 2.14381e+06 0 -877665 2.25419e+06 0 -894598 2.3686e+06 0 -910052 2.48739e+06 0 -923054 2.61083e+06 0 -932272 2.73892e+06 0 -651583 1.23698e+06 0 -662544 1.32738e+06 0 -674294 1.4194e+06 0 -686839 1.51319e+06 0 -700169 1.60892e+06 0 -714252 1.70678e+06 0 -729022 1.80699e+06 0 -744364 1.90979e+06 0 -760096 2.01545e+06 0 -775944 2.12424e+06 0 -791518 2.23648e+06 0 -806277 2.35241e+06 0 -819502 2.47227e+06 0 -830260 2.59617e+06 0 -837416 2.72405e+06 0 -839538 2.85547e+06 0 -591624 1.2829e+06 0 -602073 1.37715e+06 0 -613251 1.47318e+06 0 -625143 1.57115e+06 0 -637713 1.67125e+06 0 -650894 1.77368e+06 0 -664569 1.87863e+06 0 -678563 1.98635e+06 0 -692613 2.09705e+06 0 -706348 2.21097e+06 0 -719265 2.32829e+06 0 -730696 2.44914e+06 0 -739799 2.57352e+06 0 -745536 2.70125e+06 0 -746711 2.83188e+06 0 -741947 2.96452e+06 0 -530498 1.32874e+06 0 -540299 1.42686e+06 0 -550750 1.52692e+06 0 -561817 1.6291e+06 0 -573435 1.73357e+06 0 -585497 1.84052e+06 0 -597839 1.95015e+06 0 -610222 2.06263e+06 0 -622308 2.17815e+06 0 -633641 2.29681e+06 0 -643625 2.41867e+06 0 -651507 2.54366e+06 0 -656373 2.67151e+06 0 -657169 2.8017e+06 0 -652754 2.93338e+06 0 -641953 3.06523e+06 0 -468201 1.37442e+06 0 -477215 1.47643e+06 0 -486789 1.58053e+06 0 -496865 1.68691e+06 0 -507350 1.79572e+06 0 -518101 1.90714e+06 0 -528909 2.02132e+06 0 -539478 2.13838e+06 0 -549410 2.2584e+06 0 -558184 2.38137e+06 0 -565144 2.50715e+06 0 -569501 2.63543e+06 0 -570344 2.76565e+06 0 -566691 2.89696e+06 0 -557561 3.02813e+06 0 -542090 3.15752e+06 0 -404736 1.41988e+06 0 -412827 1.52577e+06 0 -421376 1.63391e+06 0 -430307 1.74447e+06 0 -439502 1.85758e+06 0 -448785 1.97338e+06 0 -457910 2.09196e+06 0 -466541 2.21337e+06 0 -474239 2.33756e+06 0 -480449 2.46434e+06 0 -484502 2.59339e+06 0 -485624 2.72412e+06 0 -482981 2.85568e+06 0 -475739 2.9869e+06 0 -463154 3.11625e+06 0 -444721 3.2419e+06 0 -340110 1.46504e+06 0 -347144 1.57482e+06 0 -354532 1.68698e+06 0 -362182 1.80168e+06 0 -369956 1.91904e+06 0 -377657 2.03912e+06 0 -385017 2.16195e+06 0 -391678 2.28745e+06 0 -397190 2.41545e+06 0 -401000 2.54557e+06 0 -402471 2.67725e+06 0 -400905 2.80964e+06 0 -395599 2.94162e+06 0 -385922 3.07175e+06 0 -371400 3.19828e+06 0 -351867 3.31932e+06 0 -274334 1.50984e+06 0 -280185 1.62349e+06 0 -286288 1.73967e+06 0 -292540 1.85848e+06 0 -298797 1.98001e+06 0 -304854 2.10427e+06 0 -310439 2.23118e+06 0 -315201 2.36055e+06 0 -318708 2.49202e+06 0 -320453 2.62503e+06 0 -319874 2.75877e+06 0 -316395 2.89214e+06 0 -309484 3.02377e+06 0 -298730 3.15202e+06 0 -283919 3.27504e+06 0 -265151 3.39093e+06 0 -207421 1.55422e+06 0 -211970 1.67174e+06 0 -216677 1.79191e+06 0 -221441 1.91481e+06 0 -226122 2.04046e+06 0 -230528 2.1688e+06 0 -234408 2.29966e+06 0 -237447 2.43268e+06 0 -239268 2.56733e+06 0 -239448 2.70284e+06 0 -237539 2.83815e+06 0 -233117 2.97195e+06 0 -225833 3.10265e+06 0 -215483 3.22845e+06 0 -202053 3.34747e+06 0 -185810 3.45791e+06 0 -139387 1.59812e+06 0 -142522 1.71952e+06 0 -145737 1.84367e+06 0 -148946 1.97063e+06 0 -152033 2.10037e+06 0 -154840 2.23273e+06 0 -157167 2.36742e+06 0 -158767 2.50393e+06 0 -159356 2.64154e+06 0 -158627 2.77925e+06 0 -156275 2.91578e+06 0 -152037 3.04959e+06 0 -145734 3.17891e+06 0 -137316 3.30185e+06 0 -126888 3.41656e+06 0 -114752 3.52136e+06 0 -70243.7 1.64152e+06 0 -71860.3 1.76678e+06 0 -73502.3 1.89492e+06 0 -75115.7 2.02595e+06 0 -76629.3 2.15977e+06 0 -77948.6 2.29613e+06 0 -78954.9 2.4346e+06 0 -79506.8 2.57452e+06 0 -79446.3 2.71495e+06 0 -78610.8 2.85466e+06 0 -76850.5 2.99216e+06 0 -74051.7 3.12567e+06 0 -70160.7 3.25328e+06 0 -65205 3.37306e+06 0 -59297.2 3.48316e+06 0 -52668.7 3.58208e+06 0 0 1.68436e+06 0 0 1.8135e+06 0 0 1.94566e+06 0 0 2.08079e+06 0 0 2.21873e+06 0 0 2.35913e+06 0 0 2.50141e+06 0 0 2.64473e+06 0 0 2.78794e+06 0 0 2.92956e+06 0 0 3.06786e+06 0 0 3.20085e+06 0 0 3.32649e+06 0 0 3.44278e+06 0 0 3.54798e+06 0 0 3.64085e+06 0 </DataArray> 
</PointData> 
<Points> 
<DataArray type="Float32" NumberOfComponents="3"> 
0.0376667 0.0806667 0 0.0401778 0.0806667 0 0.0426889 0.0806667 0 0.0452 0.0806667 0 0.0477111 0.0806667 0 0.0502222 0.0806667 0 0.0527333 0.0806667 0 0.0552444 0.0806667 0 0.0577556 0.0806667 0 0.0602667 0.0806667 0 0.0627778 0.0806667 0 0.0652889 0.0806667 0 0.0678 0.0806667 0 0.0703111 0.0806667 0 0.0728222 0.0806667 0 0.0753333 0.0806667 0 0.0389222 0.0827556 0 0.041517 0.0827556 0 0.0441119 0.0827556 0 0.0467067 0.0827556 0 0.0493015 0.0827556 0 0.0518963 0.0827556 0 0.0544911 0.0827556 0 0.0570859 0.0827556 0 0.0596807 0.0827556 0 0.0622756 0.0827556 0 0.0648704 0.0827556 0 0.0674652 0.0827556 0 0.07006 0.0827556 0 0.0726548 0.0827556 0 0.0752496 0.0827556 0 0.0778444 0.0827556 0 0.0401778 0.0848444 0 0.0428563 0.0848444 0 0.0455348 0.0848444 0 0.0482133 0.0848444 0 0.0508919 0.0848444 0 0.0535704 0.0848444 0 0.0562489 0.0848444 0 0.0589274 0.0848444 0 0.0616059 0.0848444 0 0.0642844 0.0848444 0 0.066963 0.0848444 0 0.0696415 0.0848444 0 0.07232 0.0848444 0 0.0749985 0.0848444 0 0.077677 0.0848444 0 0.0803556 0.0848444 0 0.0414333 0.0869333 0 0.0441956 0.0869333 0 0.0469578 0.0869333 0 0.04972 0.0869333 0 0.0524822 0.0869333 0 0.0552444 0.0869333 0 0.0580067 0.0869333 0 0.0607689 0.0869333 0 0.0635311 0.0869333 0 0.0662933 0.0869333 0 0.0690556 0.0869333 0 0.0718178 0.0869333 0 0.07458 0.0869333 0 0.0773422 0.0869333 0 0.0801044 0.0869333 0 0.0828667 0.0869333 0 0.0426889 0.0890222 0 0.0455348 0.0890222 0 0.0483807 0.0890222 0 0.0512267 0.0890222 0 0.0540726 0.0890222 0 0.0569185 0.0890222 0 0.0597644 0.0890222 0 0.0626104 0.0890222 0 0.0654563 0.0890222 0 0.0683022 0.0890222 0 0.0711481 0.0890222 0 0.0739941 0.0890222 0 0.07684 0.0890222 0 0.0796859 0.0890222 0 0.0825319 0.0890222 0 0.0853778 0.0890222 0 0.0439444 0.0911111 0 0.0468741 0.0911111 0 0.0498037 0.0911111 0 0.0527333 0.0911111 0 0.055663 0.0911111 0 0.0585926 0.0911111 0 0.0615222 0.0911111 0 0.0644519 0.0911111 0 0.0673815 0.0911111 0 0.0703111 0.0911111 0 0.0732407 0.0911111 0 0.0761704 0.0911111 0 0.0791 0.0911111 0 0.0820296 0.0911111 0 0.0849593 0.0911111 0 0.0878889 0.0911111 0 0.0452 0.0932 0 0.0482133 0.0932 0 0.0512267 0.0932 0 0.05424 0.0932 0 0.0572533 0.0932 0 0.0602667 0.0932 0 0.06328 0.0932 0 0.0662933 0.0932 0 0.0693067 0.0932 0 0.07232 0.0932 0 0.0753333 0.0932 0 0.0783467 0.0932 0 0.08136 0.0932 0 0.0843733 0.0932 0 0.0873867 0.0932 0 0.0904 0.0932 0 0.0464556 0.0952889 0 0.0495526 0.0952889 0 0.0526496 0.0952889 0 0.0557467 0.0952889 0 0.0588437 0.0952889 0 0.0619407 0.0952889 0 0.0650378 0.0952889 0 0.0681348 0.0952889 0 0.0712319 0.0952889 0 0.0743289 0.0952889 0 0.0774259 0.0952889 0 0.080523 0.0952889 0 0.08362 0.0952889 0 0.086717 0.0952889 0 0.0898141 0.0952889 0 0.0929111 0.0952889 0 0.0477111 0.0973778 0 0.0508919 0.0973778 0 0.0540726 0.0973778 0 0.0572533 0.0973778 0 0.0604341 0.0973778 0 0.0636148 0.0973778 0 0.0667956 0.0973778 0 0.0699763 0.0973778 0 0.073157 0.0973778 0 0.0763378 0.0973778 0 0.0795185 0.0973778 0 0.0826993 0.0973778 0 0.08588 0.0973778 0 0.0890607 0.0973778 0 0.0922415 0.0973778 0 0.0954222 0.0973778 0 0.0489667 0.0994667 0 0.0522311 0.0994667 0 0.0554956 0.0994667 0 0.05876 0.0994667 0 0.0620244 0.0994667 0 0.0652889 0.0994667 0 0.0685533 0.0994667 0 0.0718178 0.0994667 0 0.0750822 0.0994667 0 0.0783467 0.0994667 0 0.0816111 0.0994667 0 0.0848756 0.0994667 0 0.08814 0.0994667 0 0.0914044 0.0994667 0 0.0946689 0.0994667 0 0.0979333 0.0994667 0 0.0502222 0.101556 0 0.0535704 0.101556 0 0.0569185 0.101556 0 0.0602667 0.101556 0 0.0636148 0.101556 0 0.066963 0.101556 0 0.0703111 0.101556 0 0.0736593 0.101556 0 0.0770074 0.101556 0 0.0803556 0.101556 0 0.0837037 0.101556 0 0.0870519 0.101556 0 0.0904 0.101556 0 0.0937481 0.101556 0 0.0970963 0.101556 0 0.100444 0.101556 0 0.0514778 0.103644 0 0.0549096 0.103644 0 0.0583415 0.103644 0 0.0617733 0.103644 0 0.0652052 0.103644 0 0.068637 0.103644 0 0.0720689 0.103644 0 0.0755007 0.103644 0 0.0789326 0.103644 0 0.0823644 0.103644 0 0.0857963 0.103644 0 0.0892281 0.103644 0 0.09266 0.103644 0 0.0960919 0.103644 0 0.0995237 0.103644 0 0.102956 0.103644 0 0.0527333 0.105733 0 0.0562489 0.105733 0 0.0597644 0.105733 0 0.06328 0.105733 0 0.0667956 0.105733 0 0.0703111 0.105733 0 0.0738267 0.105733 0 0.0773422 0.105733 0 0.0808578 0.105733 0 0.0843733 0.105733 0 0.0878889 0.105733 0 0.0914044 0.105733 0 0.09492 0.105733 0 0.0984356 0.105733 0 0.101951 0.105733 0 0.105467 0.105733 0 0.0539889 0.107822 0 0.0575881 0.107822 0 0.0611874 0.107822 0 0.0647867 0.107822 0 0.0683859 0.107822 0 0.0719852 0.107822 0 0.0755844 0.107822 0 0.0791837 0.107822 0 0.082783 0.107822 0 0.0863822 0.107822 0 0.0899815 0.107822 0 0.0935807 0.107822 0 0.09718 0.107822 0 0.100779 0.107822 0 0.104379 0.107822 0 0.107978 0.107822 0 0.0552444 0.109911 0 0.0589274 0.109911 0 0.0626104 0.109911 0 0.0662933 0.109911 0 0.0699763 0.109911 0 0.0736593 0.109911 0 0.0773422 0.109911 0 0.0810252 0.109911 0 0.0847081 0.109911 0 0.0883911 0.109911 0 0.0920741 0.109911 0 0.095757 0.109911 0 0.09944 0.109911 0 0.103123 0.109911 0 0.106806 0.109911 0 0.110489 0.109911 0 0.0565 0.112 0 0.0602667 0.112 0 0.0640333 0.112 0 0.0678 0.112 0 0.0715667 0.112 0 0.0753333 0.112 0 0.0791 0.112 0 0.0828667 0.112 0 0.0866333 0.112 0 0.0904 0.112 0 0.0941667 0.112 0 0.0979333 0.112 0 0.1017 0.112 0 0.105467 0.112 0 0.109233 0.112 0 0.113 0.112 0 
</DataArray>
</Points> 
</Piece> 
</StructuredGrid> 
</VTKFile> 
