<?xml version="1.0"?> 
<VTKFile type="StructuredGrid" version="0.1"> 
<StructuredGrid WholeExtent="0 15 0 15 0 0"> 
<Piece Extent="0 15 0 15 0 0"> 
<PointData>
<DataArray type="Float32" Name="|E|" format="ascii" NumberOfComponents="3"> 
-1.84219e+06 0 0 -1.84425e+06 52597.7 0 -1.85021e+06 105449 0 -1.86007e+06 158810 0 -1.87381e+06 212950 0 -1.89143e+06 268151 0 -1.9129e+06 324717 0 -1.9382e+06 382983 0 -1.96726e+06 443322 0 -2e+06 506160 0 -2.03628e+06 571988 0 -2.07587e+06 641389 0 -2.11846e+06 715060 0 -2.16352e+06 793858 0 -2.21024e+06 878819 0 -2.25736e+06 971233 0 -1.8316e+06 0 0 -1.83364e+06 53375 0 -1.83952e+06 107003 0 -1.84925e+06 161140 0 -1.86281e+06 216054 0 -1.88018e+06 272025 0 -1.90135e+06 329356 0 -1.92628e+06 388377 0 -1.95489e+06 449456 0 -1.98708e+06 513009 0 -2.02271e+06 579516 0 -2.06153e+06 649540 0 -2.1032e+06 723746 0 -2.14716e+06 802943 0 -2.19257e+06 888090 0 -2.23808e+06 980350 0 -1.82086e+06 0 0 -1.82287e+06 54142.2 0 -1.82868e+06 108537 0 -1.83827e+06 163439 0 -1.85165e+06 219116 0 -1.86879e+06 275845 0 -1.88965e+06 333928 0 -1.9142e+06 393689 0 -1.94236e+06 455491 0 -1.97402e+06 519741 0 -2.00901e+06 586905 0 -2.04708e+06 657524 0 -2.08784e+06 732234 0 -2.13073e+06 811791 0 -2.17488e+06 897079 0 -2.21889e+06 989133 0 -1.80997e+06 0 0 -1.81195e+06 54899.5 0 -1.81768e+06 110050 0 -1.82715e+06 165708 0 -1.84034e+06 222136 0 -1.85724e+06 279612 0 -1.8778e+06 338432 0 -1.90199e+06 398920 0 -1.9297e+06 461429 0 -1.96083e+06 526357 0 -1.99519e+06 594156 0 -2.03251e+06 665346 0 -2.0724e+06 740530 0 -2.11426e+06 820412 0 -2.1572e+06 905800 0 -2.19979e+06 997602 0 -1.79893e+06 0 0 -1.80088e+06 55646.7 0 -1.80654e+06 111544 0 -1.81588e+06 167945 0 -1.82889e+06 225114 0 -1.84555e+06 283325 0 -1.86581e+06 342871 0 -1.88962e+06 404070 0 -1.9169e+06 467270 0 -1.9475e+06 532859 0 -1.98125e+06 601273 0 -2.01784e+06 673010 0 -2.05688e+06 748639 0 -2.09775e+06 828814 0 -2.13953e+06 914265 0 -2.18079e+06 1.00578e+06 0 -1.78773e+06 0 0 -1.78967e+06 56384 0 -1.79524e+06 113017 0 -1.80445e+06 170153 0 -1.81729e+06 228051 0 -1.83371e+06 286985 0 -1.85367e+06 347244 0 -1.87713e+06 409141 0 -1.90396e+06 473017 0 -1.93405e+06 539249 0 -1.96719e+06 608258 0 -2.00308e+06 680519 0 -2.04129e+06 756568 0 -2.0812e+06 837006 0 -2.12188e+06 922489 0 -2.16189e+06 1.01368e+06 0 -1.7764e+06 0 0 -1.7783e+06 57111.4 0 -1.7838e+06 114471 0 -1.79289e+06 172330 0 -1.80554e+06 230947 0 -1.82172e+06 290592 0 -1.8414e+06 351552 0 -1.86449e+06 414133 0 -1.8909e+06 478670 0 -1.92048e+06 545528 0 -1.95302e+06 615113 0 -1.98822e+06 687877 0 -2.02563e+06 764321 0 -2.06461e+06 844997 0 -2.10425e+06 930485 0 -2.1431e+06 1.02134e+06 0 -1.76491e+06 0 0 -1.76679e+06 57828.9 0 -1.77222e+06 115904 0 -1.78118e+06 174476 0 -1.79365e+06 233801 0 -1.8096e+06 294147 0 -1.82898e+06 355795 0 -1.85172e+06 419048 0 -1.87771e+06 484231 0 -1.90679e+06 551699 0 -1.93875e+06 621842 0 -1.97327e+06 695089 0 -2.00991e+06 771907 0 -2.04801e+06 852797 0 -2.08665e+06 938268 0 -2.12442e+06 1.02876e+06 0 -1.75329e+06 0 0 -1.75514e+06 58536.6 0 -1.76049e+06 117318 0 -1.76933e+06 176593 0 -1.78162e+06 236615 0 -1.79734e+06 297650 0 -1.81644e+06 359975 0 -1.83882e+06 423886 0 -1.86439e+06 489701 0 -1.89298e+06 557763 0 -1.92437e+06 628448 0 -1.95824e+06 702158 0 -1.99413e+06 779330 0 -2.03138e+06 860414 0 -2.06909e+06 945849 0 -2.10585e+06 1.03598e+06 0 -1.74152e+06 0 0 -1.74335e+06 59234.6 0 -1.74863e+06 118713 0 -1.75734e+06 178680 0 -1.76946e+06 239389 0 -1.78495e+06 301102 0 -1.80375e+06 364091 0 -1.82579e+06 428647 0 -1.85095e+06 495081 0 -1.87906e+06 563723 0 -1.90989e+06 634932 0 -1.94312e+06 709090 0 -1.97829e+06 786597 0 -2.01474e+06 867858 0 -2.05156e+06 953242 0 -2.0874e+06 1.043e+06 0 -1.72962e+06 0 0 -1.73142e+06 59922.9 0 -1.73662e+06 120087 0 -1.74521e+06 180738 0 -1.75716e+06 242123 0 -1.77242e+06 304502 0 -1.79094e+06 368145 0 -1.81264e+06 433335 0 -1.83739e+06 500373 0 -1.86503e+06 569581 0 -1.89532e+06 641300 0 -1.92793e+06 715888 0 -1.9624e+06 793714 0 -1.99808e+06 875137 0 -2.03407e+06 960460 0 -2.06906e+06 1.04984e+06 0 -1.71758e+06 0 0 -1.71935e+06 60601.6 0 -1.72448e+06 121443 0 -1.73295e+06 182766 0 -1.74472e+06 244818 0 -1.75976e+06 307853 0 -1.778e+06 372137 0 -1.79937e+06 437948 0 -1.82372e+06 505579 0 -1.8509e+06 575339 0 -1.88066e+06 647553 0 -1.91266e+06 722557 0 -1.94646e+06 800688 0 -1.98141e+06 882260 0 -2.01662e+06 967515 0 -2.05083e+06 1.05653e+06 0 -1.7054e+06 0 0 -1.70715e+06 61270.8 0 -1.71221e+06 122779 0 -1.72055e+06 184765 0 -1.73215e+06 247473 0 -1.74697e+06 311154 0 -1.76494e+06 376069 0 -1.78597e+06 442489 0 -1.80993e+06 510700 0 -1.83666e+06 580999 0 -1.8659e+06 653695 0 -1.89733e+06 729101 0 -1.93048e+06 807524 0 -1.96473e+06 889235 0 -1.99921e+06 974419 0 -2.03271e+06 1.06307e+06 0 -1.69309e+06 0 0 -1.69482e+06 61930.5 0 -1.6998e+06 124097 0 -1.70803e+06 186736 0 -1.71946e+06 250089 0 -1.73406e+06 314406 0 -1.75175e+06 379940 0 -1.77246e+06 446959 0 -1.79604e+06 515738 0 -1.82232e+06 586564 0 -1.85105e+06 659729 0 -1.88192e+06 735525 0 -1.91445e+06 814229 0 -1.94804e+06 896071 0 -1.98184e+06 981183 0 -2.0147e+06 1.06949e+06 0 -1.68065e+06 0 0 -1.68235e+06 62580.9 0 -1.68727e+06 125395 0 -1.69537e+06 188678 0 -1.70664e+06 252668 0 -1.72102e+06 317609 0 -1.73845e+06 383753 0 -1.75883e+06 451359 0 -1.78203e+06 520695 0 -1.80788e+06 592035 0 -1.83612e+06 665657 0 -1.86644e+06 741833 0 -1.89838e+06 820809 0 -1.93134e+06 902776 0 -1.96451e+06 987818 0 -1.99678e+06 1.07579e+06 0 -1.66808e+06 0 0 -1.66976e+06 63222 0 -1.6746e+06 126675 0 -1.68259e+06 190592 0 -1.69369e+06 255208 0 -1.70786e+06 320764 0 -1.72502e+06 387507 0 -1.74508e+06 455689 0 -1.76792e+06 525571 0 -1.79334e+06 597415 0 -1.82111e+06 671484 0 -1.8509e+06 748028 0 -1.88227e+06 827268 0 -1.91464e+06 909358 0 -1.94721e+06 994335 0 -1.97895e+06 1.08199e+06 0 </DataArray> 
</PointData> 
<Points> 
<DataArray type="Float32" NumberOfComponents="3"> 
0 0.035 0 0.00333333 0.035 0 0.00666667 0.035 0 0.01 0.035 0 0.0133333 0.035 0 0.0166667 0.035 0 0.02 0.035 0 0.0233333 0.035 0 0.0266667 0.035 0 0.03 0.035 0 0.0333333 0.035 0 0.0366667 0.035 0 0.04 0.035 0 0.0433333 0.035 0 0.0466667 0.035 0 0.05 0.035 0 0 0.0356667 0 0.00333333 0.0356667 0 0.00666667 0.0356667 0 0.01 0.0356667 0 0.0133333 0.0356667 0 0.0166667 0.0356667 0 0.02 0.0356667 0 0.0233333 0.0356667 0 0.0266667 0.0356667 0 0.03 0.0356667 0 0.0333333 0.0356667 0 0.0366667 0.0356667 0 0.04 0.0356667 0 0.0433333 0.0356667 0 0.0466667 0.0356667 0 0.05 0.0356667 0 0 0.0363333 0 0.00333333 0.0363333 0 0.00666667 0.0363333 0 0.01 0.0363333 0 0.0133333 0.0363333 0 0.0166667 0.0363333 0 0.02 0.0363333 0 0.0233333 0.0363333 0 0.0266667 0.0363333 0 0.03 0.0363333 0 0.0333333 0.0363333 0 0.0366667 0.0363333 0 0.04 0.0363333 0 0.0433333 0.0363333 0 0.0466667 0.0363333 0 0.05 0.0363333 0 0 0.037 0 0.00333333 0.037 0 0.00666667 0.037 0 0.01 0.037 0 0.0133333 0.037 0 0.0166667 0.037 0 0.02 0.037 0 0.0233333 0.037 0 0.0266667 0.037 0 0.03 0.037 0 0.0333333 0.037 0 0.0366667 0.037 0 0.04 0.037 0 0.0433333 0.037 0 0.0466667 0.037 0 0.05 0.037 0 0 0.0376667 0 0.00333333 0.0376667 0 0.00666667 0.0376667 0 0.01 0.0376667 0 0.0133333 0.0376667 0 0.0166667 0.0376667 0 0.02 0.0376667 0 0.0233333 0.0376667 0 0.0266667 0.0376667 0 0.03 0.0376667 0 0.0333333 0.0376667 0 0.0366667 0.0376667 0 0.04 0.0376667 0 0.0433333 0.0376667 0 0.0466667 0.0376667 0 0.05 0.0376667 0 0 0.0383333 0 0.00333333 0.0383333 0 0.00666667 0.0383333 0 0.01 0.0383333 0 0.0133333 0.0383333 0 0.0166667 0.0383333 0 0.02 0.0383333 0 0.0233333 0.0383333 0 0.0266667 0.0383333 0 0.03 0.0383333 0 0.0333333 0.0383333 0 0.0366667 0.0383333 0 0.04 0.0383333 0 0.0433333 0.0383333 0 0.0466667 0.0383333 0 0.05 0.0383333 0 0 0.039 0 0.00333333 0.039 0 0.00666667 0.039 0 0.01 0.039 0 0.0133333 0.039 0 0.0166667 0.039 0 0.02 0.039 0 0.0233333 0.039 0 0.0266667 0.039 0 0.03 0.039 0 0.0333333 0.039 0 0.0366667 0.039 0 0.04 0.039 0 0.0433333 0.039 0 0.0466667 0.039 0 0.05 0.039 0 0 0.0396667 0 0.00333333 0.0396667 0 0.00666667 0.0396667 0 0.01 0.0396667 0 0.0133333 0.0396667 0 0.0166667 0.0396667 0 0.02 0.0396667 0 0.0233333 0.0396667 0 0.0266667 0.0396667 0 0.03 0.0396667 0 0.0333333 0.0396667 0 0.0366667 0.0396667 0 0.04 0.0396667 0 0.0433333 0.0396667 0 0.0466667 0.0396667 0 0.05 0.0396667 0 0 0.0403333 0 0.00333333 0.0403333 0 0.00666667 0.0403333 0 0.01 0.0403333 0 0.0133333 0.0403333 0 0.0166667 0.0403333 0 0.02 0.0403333 0 0.0233333 0.0403333 0 0.0266667 0.0403333 0 0.03 0.0403333 0 0.0333333 0.0403333 0 0.0366667 0.0403333 0 0.04 0.0403333 0 0.0433333 0.0403333 0 0.0466667 0.0403333 0 0.05 0.0403333 0 0 0.041 0 0.00333333 0.041 0 0.00666667 0.041 0 0.01 0.041 0 0.0133333 0.041 0 0.0166667 0.041 0 0.02 0.041 0 0.0233333 0.041 0 0.0266667 0.041 0 0.03 0.041 0 0.0333333 0.041 0 0.0366667 0.041 0 0.04 0.041 0 0.0433333 0.041 0 0.0466667 0.041 0 0.05 0.041 0 0 0.0416667 0 0.00333333 0.0416667 0 0.00666667 0.0416667 0 0.01 0.0416667 0 0.0133333 0.0416667 0 0.0166667 0.0416667 0 0.02 0.0416667 0 0.0233333 0.0416667 0 0.0266667 0.0416667 0 0.03 0.0416667 0 0.0333333 0.0416667 0 0.0366667 0.0416667 0 0.04 0.0416667 0 0.0433333 0.0416667 0 0.0466667 0.0416667 0 0.05 0.0416667 0 0 0.0423333 0 0.00333333 0.0423333 0 0.00666667 0.0423333 0 0.01 0.0423333 0 0.0133333 0.0423333 0 0.0166667 0.0423333 0 0.02 0.0423333 0 0.0233333 0.0423333 0 0.0266667 0.0423333 0 0.03 0.0423333 0 0.0333333 0.0423333 0 0.0366667 0.0423333 0 0.04 0.0423333 0 0.0433333 0.0423333 0 0.0466667 0.0423333 0 0.05 0.0423333 0 0 0.043 0 0.00333333 0.043 0 0.00666667 0.043 0 0.01 0.043 0 0.0133333 0.043 0 0.0166667 0.043 0 0.02 0.043 0 0.0233333 0.043 0 0.0266667 0.043 0 0.03 0.043 0 0.0333333 0.043 0 0.0366667 0.043 0 0.04 0.043 0 0.0433333 0.043 0 0.0466667 0.043 0 0.05 0.043 0 0 0.0436667 0 0.00333333 0.0436667 0 0.00666667 0.0436667 0 0.01 0.0436667 0 0.0133333 0.0436667 0 0.0166667 0.0436667 0 0.02 0.0436667 0 0.0233333 0.0436667 0 0.0266667 0.0436667 0 0.03 0.0436667 0 0.0333333 0.0436667 0 0.0366667 0.0436667 0 0.04 0.0436667 0 0.0433333 0.0436667 0 0.0466667 0.0436667 0 0.05 0.0436667 0 0 0.0443333 0 0.00333333 0.0443333 0 0.00666667 0.0443333 0 0.01 0.0443333 0 0.0133333 0.0443333 0 0.0166667 0.0443333 0 0.02 0.0443333 0 0.0233333 0.0443333 0 0.0266667 0.0443333 0 0.03 0.0443333 0 0.0333333 0.0443333 0 0.0366667 0.0443333 0 0.04 0.0443333 0 0.0433333 0.0443333 0 0.0466667 0.0443333 0 0.05 0.0443333 0 0 0.045 0 0.00333333 0.045 0 0.00666667 0.045 0 0.01 0.045 0 0.0133333 0.045 0 0.0166667 0.045 0 0.02 0.045 0 0.0233333 0.045 0 0.0266667 0.045 0 0.03 0.045 0 0.0333333 0.045 0 0.0366667 0.045 0 0.04 0.045 0 0.0433333 0.045 0 0.0466667 0.045 0 0.05 0.045 0 
</DataArray>
</Points> 
</Piece> 
</StructuredGrid> 
</VTKFile> 
