<?xml version="1.0"?> 
<VTKFile type="StructuredGrid" version="0.1"> 
<StructuredGrid WholeExtent="0 15 0 15 0 0"> 
<Piece Extent="0 15 0 15 0 0"> 
<PointData>
<DataArray type="Float32" Name="|E|" format="ascii" NumberOfComponents="3"> 
-2.25744e+06 971233 0 -2.30257e+06 1.07263e+06 0 -2.34225e+06 1.18465e+06 0 -2.37054e+06 1.3085e+06 0 -2.37838e+06 1.44385e+06 0 -2.35238e+06 1.58533e+06 0 -2.27823e+06 1.71632e+06 0 -2.15146e+06 1.80627e+06 0 -1.98841e+06 1.82178e+06 0 -1.82312e+06 1.74453e+06 0 -1.68906e+06 1.58117e+06 0 -1.60211e+06 1.34824e+06 0 -1.56365e+06 1.05304e+06 0 -1.57413e+06 707849 0 -1.5648e+06 154415 0 -2.23531e+06 -7.15256e-07 0 -2.23817e+06 980350 0 -2.28141e+06 1.08105e+06 0 -2.31891e+06 1.19147e+06 0 -2.34497e+06 1.31233e+06 0 -2.35108e+06 1.44255e+06 0 -2.32543e+06 1.57608e+06 0 -2.25623e+06 1.69691e+06 0 -2.14086e+06 1.77776e+06 0 -1.9945e+06 1.78926e+06 0 -1.84692e+06 1.71547e+06 0 -1.72836e+06 1.56018e+06 0 -1.6531e+06 1.33723e+06 0 -1.6298e+06 1.05265e+06 0 -1.64368e+06 707151 0 -1.71326e+06 218464 0 -2.14075e+06 4.84288e-08 0 -2.21897e+06 989133 0 -2.26046e+06 1.08907e+06 0 -2.29601e+06 1.19787e+06 0 -2.32017e+06 1.31578e+06 0 -2.32504e+06 1.44108e+06 0 -2.30024e+06 1.56728e+06 0 -2.23614e+06 1.6791e+06 0 -2.13157e+06 1.75204e+06 0 -2.00059e+06 1.76029e+06 0 -1.86959e+06 1.68958e+06 0 -1.76557e+06 1.54202e+06 0 -1.70291e+06 1.3285e+06 0 -1.69173e+06 1.05428e+06 0 -1.71923e+06 714237 0 -1.82716e+06 269359 0 -2.11314e+06 1.63913e-07 0 -2.19987e+06 997602 0 -2.23974e+06 1.09674e+06 0 -2.27355e+06 1.2039e+06 0 -2.29612e+06 1.31892e+06 0 -2.30019e+06 1.43956e+06 0 -2.27665e+06 1.55902e+06 0 -2.21773e+06 1.66283e+06 0 -2.12339e+06 1.72892e+06 0 -2.00668e+06 1.73454e+06 0 -1.89115e+06 1.66675e+06 0 -1.801e+06 1.52649e+06 0 -1.75092e+06 1.32215e+06 0 -1.75109e+06 1.05818e+06 0 -1.79523e+06 727011 0 -1.92317e+06 311619 0 -2.12711e+06 -2.01166e-07 0 -2.18087e+06 1.00578e+06 0 -2.21924e+06 1.1041e+06 0 -2.25153e+06 1.20962e+06 0 -2.2728e+06 1.32182e+06 0 -2.27643e+06 1.43805e+06 0 -2.25451e+06 1.55135e+06 0 -2.20079e+06 1.64806e+06 0 -2.11615e+06 1.70825e+06 0 -2.01272e+06 1.71176e+06 0 -1.91164e+06 1.64683e+06 0 -1.83478e+06 1.5135e+06 0 -1.79696e+06 1.31818e+06 0 -1.80838e+06 1.06448e+06 0 -1.86938e+06 744249 0 -2.01034e+06 348568 0 -2.16846e+06 1.49012e-07 0 -2.16197e+06 1.01368e+06 0 -2.19899e+06 1.11116e+06 0 -2.22993e+06 1.21506e+06 0 -2.25017e+06 1.32454e+06 0 -2.25369e+06 1.43663e+06 0 -2.23365e+06 1.54432e+06 0 -2.18514e+06 1.63474e+06 0 -2.10969e+06 1.68987e+06 0 -2.01866e+06 1.69175e+06 0 -1.93112e+06 1.62966e+06 0 -1.86698e+06 1.50294e+06 0 -1.84099e+06 1.31652e+06 0 -1.86364e+06 1.07326e+06 0 -1.94074e+06 765237 0 -2.09373e+06 382929 0 -2.22929e+06 -1.04308e-07 0 -2.14318e+06 1.02134e+06 0 -2.17896e+06 1.11796e+06 0 -2.20874e+06 1.22027e+06 0 -2.2282e+06 1.32716e+06 0 -2.23189e+06 1.43537e+06 0 -2.21397e+06 1.53796e+06 0 -2.1706e+06 1.62283e+06 0 -2.10389e+06 1.67363e+06 0 -2.02446e+06 1.67432e+06 0 -1.94963e+06 1.61509e+06 0 -1.89764e+06 1.49475e+06 0 -1.88302e+06 1.31712e+06 0 -1.91678e+06 1.0845e+06 0 -2.00897e+06 789646 0 -2.17617e+06 417001 0 -2.30554e+06 4.47035e-08 0 -2.12449e+06 1.02876e+06 0 -2.15917e+06 1.12454e+06 0 -2.18796e+06 1.2253e+06 0 -2.20685e+06 1.3297e+06 0 -2.21097e+06 1.43431e+06 0 -2.19532e+06 1.53228e+06 0 -2.15703e+06 1.61227e+06 0 -2.09863e+06 1.65942e+06 0 -2.03008e+06 1.65932e+06 0 -1.96719e+06 1.60298e+06 0 -1.92678e+06 1.48883e+06 0 -1.92306e+06 1.31989e+06 0 -1.96766e+06 1.09812e+06 0 -2.07384e+06 817376 0 -2.25913e+06 452897 0 -2.39571e+06 0 0 -2.10593e+06 1.03598e+06 0 -2.1396e+06 1.13091e+06 0 -2.16756e+06 1.23018e+06 0 -2.18608e+06 1.33223e+06 0 -2.19084e+06 1.43351e+06 0 -2.17759e+06 1.52731e+06 0 -2.1443e+06 1.60302e+06 0 -2.09379e+06 1.64711e+06 0 -2.03547e+06 1.64658e+06 0 -1.98384e+06 1.59319e+06 0 -1.95445e+06 1.48508e+06 0 -1.96111e+06 1.32474e+06 0 -2.01617e+06 1.11402e+06 0 -2.13506e+06 848435 0 -2.34324e+06 492747 0 -2.50025e+06 0 0 -2.08747e+06 1.043e+06 0 -2.12026e+06 1.1371e+06 0 -2.14753e+06 1.23493e+06 0 -2.16586e+06 1.33477e+06 0 -2.17143e+06 1.43298e+06 0 -2.16069e+06 1.52305e+06 0 -2.13228e+06 1.59503e+06 0 -2.08929e+06 1.63659e+06 0 -2.0406e+06 1.63598e+06 0 -1.99956e+06 1.58559e+06 0 -1.98067e+06 1.48342e+06 0 -1.99718e+06 1.33158e+06 0 -2.06225e+06 1.13205e+06 0 -2.19216e+06 882825 0 -2.42835e+06 538906 0 -2.62148e+06 8.9407e-08 0 -2.06913e+06 1.04984e+06 0 -2.10113e+06 1.14314e+06 0 -2.12784e+06 1.2396e+06 0 -2.14615e+06 1.33737e+06 0 -2.15268e+06 1.43277e+06 0 -2.14452e+06 1.51949e+06 0 -2.12087e+06 1.58826e+06 0 -2.08504e+06 1.62777e+06 0 -2.04542e+06 1.62739e+06 0 -2.01438e+06 1.58008e+06 0 -2.00547e+06 1.48375e+06 0 -2.03124e+06 1.34029e+06 0 -2.10591e+06 1.15203e+06 0 -2.24452e+06 920404 0 -2.51335e+06 594182 0 -2.76398e+06 -1.49012e-07 0 -2.0509e+06 1.05653e+06 0 -2.08221e+06 1.14906e+06 0 -2.10849e+06 1.24421e+06 0 -2.12691e+06 1.34005e+06 0 -2.13453e+06 1.43288e+06 0 -2.12897e+06 1.51664e+06 0 -2.10997e+06 1.58265e+06 0 -2.08095e+06 1.62056e+06 0 -2.0499e+06 1.62069e+06 0 -2.0283e+06 1.57652e+06 0 -2.0289e+06 1.48598e+06 0 -2.06327e+06 1.35074e+06 0 -2.14718e+06 1.17379e+06 0 -2.29149e+06 960722 0 -2.59563e+06 662119 0 -2.9355e+06 5.96046e-08 0 -2.03277e+06 1.06307e+06 0 -2.06349e+06 1.15486e+06 0 -2.08945e+06 1.24879e+06 0 -2.1081e+06 1.34284e+06 0 -2.1169e+06 1.43335e+06 0 -2.11399e+06 1.5145e+06 0 -2.09949e+06 1.57817e+06 0 -2.07696e+06 1.61487e+06 0 -2.054e+06 1.61578e+06 0 -2.04129e+06 1.57482e+06 0 -2.051e+06 1.49001e+06 0 -2.09326e+06 1.3628e+06 0 -2.18611e+06 1.19718e+06 0 -2.3327e+06 1.00279e+06 0 -2.66989e+06 747343 0 -3.1488e+06 2.98023e-08 0 -2.01475e+06 1.06949e+06 0 -2.04496e+06 1.16057e+06 0 -2.0707e+06 1.25336e+06 0 -2.08969e+06 1.34577e+06 0 -2.09976e+06 1.43419e+06 0 -2.09948e+06 1.51304e+06 0 -2.08935e+06 1.57476e+06 0 -2.07299e+06 1.61061e+06 0 -2.0577e+06 1.61256e+06 0 -2.05338e+06 1.57489e+06 0 -2.07179e+06 1.49575e+06 0 -2.1213e+06 1.37633e+06 0 -2.22251e+06 1.22209e+06 0 -2.36886e+06 1.04475e+06 0 -2.72609e+06 856072 0 -3.42485e+06 -1.78814e-07 0 -1.99682e+06 1.07579e+06 0 -2.0266e+06 1.16622e+06 0 -2.05221e+06 1.25794e+06 0 -2.07163e+06 1.34884e+06 0 -2.08303e+06 1.4354e+06 0 -2.08537e+06 1.51226e+06 0 -2.07947e+06 1.57239e+06 0 -2.06899e+06 1.60773e+06 0 -2.06095e+06 1.6109e+06 0 -2.06457e+06 1.57667e+06 0 -2.09119e+06 1.50306e+06 0 -2.14775e+06 1.39125e+06 0 -2.25544e+06 1.24857e+06 0 -2.40336e+06 1.08355e+06 0 -2.74556e+06 996518 0 -3.79844e+06 5.96046e-08 0 -1.97899e+06 1.08199e+06 0 -2.0084e+06 1.1718e+06 0 -2.03397e+06 1.26254e+06 0 -2.0539e+06 1.35209e+06 0 -2.06668e+06 1.43698e+06 0 -2.07161e+06 1.51217e+06 0 -2.06978e+06 1.57097e+06 0 -2.06493e+06 1.60621e+06 0 -2.06368e+06 1.61063e+06 0 -2.07502e+06 1.58026e+06 0 -2.10883e+06 1.51157e+06 0 -2.17383e+06 1.40768e+06 0 -2.28184e+06 1.27677e+06 0 -2.44594e+06 1.11398e+06 0 -2.69325e+06 1.18048e+06 0 -4.32904e+06 1.19209e-07 0 </DataArray> 
</PointData> 
<Points> 
<DataArray type="Float32" NumberOfComponents="3"> 
0.05 0.035 0 0.0533333 0.035 0 0.0566667 0.035 0 0.06 0.035 0 0.0633333 0.035 0 0.0666667 0.035 0 0.07 0.035 0 0.0733333 0.035 0 0.0766667 0.035 0 0.08 0.035 0 0.0833333 0.035 0 0.0866667 0.035 0 0.09 0.035 0 0.0933333 0.035 0 0.0966667 0.035 0 0.1 0.035 0 0.05 0.0356667 0 0.0533333 0.0356667 0 0.0566667 0.0356667 0 0.06 0.0356667 0 0.0633333 0.0356667 0 0.0666667 0.0356667 0 0.07 0.0356667 0 0.0733333 0.0356667 0 0.0766667 0.0356667 0 0.08 0.0356667 0 0.0833333 0.0356667 0 0.0866667 0.0356667 0 0.09 0.0356667 0 0.0933333 0.0356667 0 0.0966667 0.0356667 0 0.1 0.0356667 0 0.05 0.0363333 0 0.0533333 0.0363333 0 0.0566667 0.0363333 0 0.06 0.0363333 0 0.0633333 0.0363333 0 0.0666667 0.0363333 0 0.07 0.0363333 0 0.0733333 0.0363333 0 0.0766667 0.0363333 0 0.08 0.0363333 0 0.0833333 0.0363333 0 0.0866667 0.0363333 0 0.09 0.0363333 0 0.0933333 0.0363333 0 0.0966667 0.0363333 0 0.1 0.0363333 0 0.05 0.037 0 0.0533333 0.037 0 0.0566667 0.037 0 0.06 0.037 0 0.0633333 0.037 0 0.0666667 0.037 0 0.07 0.037 0 0.0733333 0.037 0 0.0766667 0.037 0 0.08 0.037 0 0.0833333 0.037 0 0.0866667 0.037 0 0.09 0.037 0 0.0933333 0.037 0 0.0966667 0.037 0 0.1 0.037 0 0.05 0.0376667 0 0.0533333 0.0376667 0 0.0566667 0.0376667 0 0.06 0.0376667 0 0.0633333 0.0376667 0 0.0666667 0.0376667 0 0.07 0.0376667 0 0.0733333 0.0376667 0 0.0766667 0.0376667 0 0.08 0.0376667 0 0.0833333 0.0376667 0 0.0866667 0.0376667 0 0.09 0.0376667 0 0.0933333 0.0376667 0 0.0966667 0.0376667 0 0.1 0.0376667 0 0.05 0.0383333 0 0.0533333 0.0383333 0 0.0566667 0.0383333 0 0.06 0.0383333 0 0.0633333 0.0383333 0 0.0666667 0.0383333 0 0.07 0.0383333 0 0.0733333 0.0383333 0 0.0766667 0.0383333 0 0.08 0.0383333 0 0.0833333 0.0383333 0 0.0866667 0.0383333 0 0.09 0.0383333 0 0.0933333 0.0383333 0 0.0966667 0.0383333 0 0.1 0.0383333 0 0.05 0.039 0 0.0533333 0.039 0 0.0566667 0.039 0 0.06 0.039 0 0.0633333 0.039 0 0.0666667 0.039 0 0.07 0.039 0 0.0733333 0.039 0 0.0766667 0.039 0 0.08 0.039 0 0.0833333 0.039 0 0.0866667 0.039 0 0.09 0.039 0 0.0933333 0.039 0 0.0966667 0.039 0 0.1 0.039 0 0.05 0.0396667 0 0.0533333 0.0396667 0 0.0566667 0.0396667 0 0.06 0.0396667 0 0.0633333 0.0396667 0 0.0666667 0.0396667 0 0.07 0.0396667 0 0.0733333 0.0396667 0 0.0766667 0.0396667 0 0.08 0.0396667 0 0.0833333 0.0396667 0 0.0866667 0.0396667 0 0.09 0.0396667 0 0.0933333 0.0396667 0 0.0966667 0.0396667 0 0.1 0.0396667 0 0.05 0.0403333 0 0.0533333 0.0403333 0 0.0566667 0.0403333 0 0.06 0.0403333 0 0.0633333 0.0403333 0 0.0666667 0.0403333 0 0.07 0.0403333 0 0.0733333 0.0403333 0 0.0766667 0.0403333 0 0.08 0.0403333 0 0.0833333 0.0403333 0 0.0866667 0.0403333 0 0.09 0.0403333 0 0.0933333 0.0403333 0 0.0966667 0.0403333 0 0.1 0.0403333 0 0.05 0.041 0 0.0533333 0.041 0 0.0566667 0.041 0 0.06 0.041 0 0.0633333 0.041 0 0.0666667 0.041 0 0.07 0.041 0 0.0733333 0.041 0 0.0766667 0.041 0 0.08 0.041 0 0.0833333 0.041 0 0.0866667 0.041 0 0.09 0.041 0 0.0933333 0.041 0 0.0966667 0.041 0 0.1 0.041 0 0.05 0.0416667 0 0.0533333 0.0416667 0 0.0566667 0.0416667 0 0.06 0.0416667 0 0.0633333 0.0416667 0 0.0666667 0.0416667 0 0.07 0.0416667 0 0.0733333 0.0416667 0 0.0766667 0.0416667 0 0.08 0.0416667 0 0.0833333 0.0416667 0 0.0866667 0.0416667 0 0.09 0.0416667 0 0.0933333 0.0416667 0 0.0966667 0.0416667 0 0.1 0.0416667 0 0.05 0.0423333 0 0.0533333 0.0423333 0 0.0566667 0.0423333 0 0.06 0.0423333 0 0.0633333 0.0423333 0 0.0666667 0.0423333 0 0.07 0.0423333 0 0.0733333 0.0423333 0 0.0766667 0.0423333 0 0.08 0.0423333 0 0.0833333 0.0423333 0 0.0866667 0.0423333 0 0.09 0.0423333 0 0.0933333 0.0423333 0 0.0966667 0.0423333 0 0.1 0.0423333 0 0.05 0.043 0 0.0533333 0.043 0 0.0566667 0.043 0 0.06 0.043 0 0.0633333 0.043 0 0.0666667 0.043 0 0.07 0.043 0 0.0733333 0.043 0 0.0766667 0.043 0 0.08 0.043 0 0.0833333 0.043 0 0.0866667 0.043 0 0.09 0.043 0 0.0933333 0.043 0 0.0966667 0.043 0 0.1 0.043 0 0.05 0.0436667 0 0.0533333 0.0436667 0 0.0566667 0.0436667 0 0.06 0.0436667 0 0.0633333 0.0436667 0 0.0666667 0.0436667 0 0.07 0.0436667 0 0.0733333 0.0436667 0 0.0766667 0.0436667 0 0.08 0.0436667 0 0.0833333 0.0436667 0 0.0866667 0.0436667 0 0.09 0.0436667 0 0.0933333 0.0436667 0 0.0966667 0.0436667 0 0.1 0.0436667 0 0.05 0.0443333 0 0.0533333 0.0443333 0 0.0566667 0.0443333 0 0.06 0.0443333 0 0.0633333 0.0443333 0 0.0666667 0.0443333 0 0.07 0.0443333 0 0.0733333 0.0443333 0 0.0766667 0.0443333 0 0.08 0.0443333 0 0.0833333 0.0443333 0 0.0866667 0.0443333 0 0.09 0.0443333 0 0.0933333 0.0443333 0 0.0966667 0.0443333 0 0.1 0.0443333 0 0.05 0.045 0 0.0533333 0.045 0 0.0566667 0.045 0 0.06 0.045 0 0.0633333 0.045 0 0.0666667 0.045 0 0.07 0.045 0 0.0733333 0.045 0 0.0766667 0.045 0 0.08 0.045 0 0.0833333 0.045 0 0.0866667 0.045 0 0.09 0.045 0 0.0933333 0.045 0 0.0966667 0.045 0 0.1 0.045 0 
</DataArray>
</Points> 
</Piece> 
</StructuredGrid> 
</VTKFile> 
