<?xml version="1.0"?> 
<VTKFile type="StructuredGrid" version="0.1"> 
<StructuredGrid WholeExtent="0 15 0 15 0 0"> 
<Piece Extent="0 15 0 15 0 0"> 
<PointData>
<DataArray type="Float32" Name="|E|" format="ascii" NumberOfComponents="3"> 
1.66965e+06 -665985 0 1.81934e+06 -480808 0 1.92622e+06 -288385 0 1.96018e+06 -110702 0 1.93491e+06 34707.5 0 1.87011e+06 141585 0 1.78337e+06 213492 0 1.68624e+06 257653 0 1.58581e+06 281275 0 1.48622e+06 290328 0 1.38987e+06 289348 0 1.2981e+06 281645 0 1.21164e+06 269574 0 1.13086e+06 254789 0 1.05588e+06 238431 0 986667 221296 0 1.69324e+06 -675395 0 1.8452e+06 -487212 0 1.94917e+06 -288597 0 1.97847e+06 -104654 0 1.94759e+06 44895.5 0 1.87783e+06 153932 0 1.78718e+06 226740 0 1.6872e+06 271100 0 1.58478e+06 294555 0 1.48387e+06 303246 0 1.38667e+06 301799 0 1.29439e+06 293567 0 1.20767e+06 280931 0 1.12679e+06 265557 0 1.05181e+06 248596 0 982685 230843 0 1.71733e+06 -685004 0 1.87155e+06 -493297 0 1.9728e+06 -288064 0 1.99713e+06 -97735.6 0 1.96041e+06 55864.6 0 1.88551e+06 166891 0 1.79089e+06 240434 0 1.68803e+06 284859 0 1.58362e+06 308043 0 1.48139e+06 316297 0 1.38334e+06 314328 0 1.29056e+06 305529 0 1.20357e+06 292300 0 1.12258e+06 276317 0 1.04762e+06 258739 0 978574 240362 0 1.74192e+06 -694812 0 1.89847e+06 -499057 0 1.99711e+06 -286750 0 2.01615e+06 -89908.5 0 1.97332e+06 67635.9 0 1.89314e+06 180469 0 1.79447e+06 254573 0 1.68872e+06 298925 0 1.58232e+06 321736 0 1.47875e+06 329477 0 1.37987e+06 326931 0 1.28659e+06 317527 0 1.19934e+06 303678 0 1.11825e+06 287068 0 1.0433e+06 268860 0 974333 249851 0 1.76703e+06 -704828 0 1.92605e+06 -504481 0 2.02212e+06 -284617 0 2.03551e+06 -81133.3 0 1.98629e+06 80229.6 0 1.90068e+06 194671 0 1.79791e+06 269157 0 1.68924e+06 313296 0 1.58085e+06 335629 0 1.47597e+06 342783 0 1.37625e+06 339608 0 1.28247e+06 329559 0 1.19497e+06 315063 0 1.11378e+06 297807 0 1.03884e+06 278957 0 969962 259309 0 1.7927e+06 -715065 0 1.95439e+06 -509557 0 2.04784e+06 -281619 0 2.0552e+06 -71368.2 0 1.99929e+06 93665 0 1.90811e+06 209503 0 1.80118e+06 284185 0 1.68959e+06 327968 0 1.57921e+06 349720 0 1.47302e+06 356212 0 1.37248e+06 352353 0 1.27822e+06 341623 0 1.19045e+06 326453 0 1.10918e+06 308534 0 1.03425e+06 289029 0 965460 268734 0 1.81896e+06 -725540 0 1.98357e+06 -514266 0 2.07429e+06 -277703 0 2.07517e+06 -60569.6 0 2.01228e+06 107960 0 1.91538e+06 224967 0 1.80425e+06 299652 0 1.68973e+06 342936 0 1.57738e+06 364003 0 1.4699e+06 369759 0 1.36854e+06 365165 0 1.27381e+06 353716 0 1.1858e+06 337847 0 1.10444e+06 319245 0 1.02953e+06 299074 0 960825 278124 0 1.84587e+06 -736276 0 2.01368e+06 -518584 0 2.10149e+06 -272806 0 2.09541e+06 -48692.1 0 2.02521e+06 123133 0 1.92247e+06 241065 0 1.80711e+06 315555 0 1.68966e+06 358194 0 1.57535e+06 378473 0 1.4666e+06 383419 0 1.36444e+06 378039 0 1.26924e+06 365835 0 1.181e+06 349241 0 1.09955e+06 329940 0 1.02467e+06 309090 0 956058 287478 0 1.87351e+06 -747299 0 2.04481e+06 -522481 0 2.12944e+06 -266861 0 2.11587e+06 -35689.1 0 2.03805e+06 139197 0 1.92935e+06 257796 0 1.80972e+06 331888 0 1.68936e+06 373735 0 1.57311e+06 393122 0 1.4631e+06 397188 0 1.36017e+06 390970 0 1.26451e+06 377976 0 1.17605e+06 360633 0 1.09453e+06 340616 0 1.01967e+06 319076 0 951156 296794 0 1.90194e+06 -758639 0 2.07707e+06 -525917 0 2.15817e+06 -259790 0 2.13651e+06 -21513 0 2.05075e+06 156166 0 1.93597e+06 275159 0 1.81207e+06 348643 0 1.68881e+06 389552 0 1.57065e+06 407946 0 1.45941e+06 411060 0 1.35572e+06 403956 0 1.25962e+06 390137 0 1.17094e+06 372021 0 1.08936e+06 351271 0 1.01454e+06 329029 0 946120 306071 0 1.93125e+06 -770332 0 2.11055e+06 -528845 0 2.18766e+06 -251506 0 2.15727e+06 -6116.08 0 2.06325e+06 174052 0 1.9423e+06 293149 0 1.81412e+06 365812 0 1.688e+06 405635 0 1.56795e+06 422936 0 1.45551e+06 425029 0 1.35108e+06 416990 0 1.25457e+06 402313 0 1.16568e+06 383401 0 1.08404e+06 361902 0 1.00926e+06 338948 0 940948 315307 0 1.96155e+06 -782417 0 2.14537e+06 -531208 0 2.21792e+06 -241913 0 2.1781e+06 10548.9 0 2.07551e+06 192861 0 1.94831e+06 311759 0 1.81585e+06 383386 0 1.6869e+06 421976 0 1.56501e+06 438083 0 1.4514e+06 439088 0 1.34625e+06 430068 0 1.24934e+06 414501 0 1.16026e+06 394770 0 1.07857e+06 372507 0 1.00384e+06 348831 0 935640 324500 0 1.99295e+06 -794940 0 2.18165e+06 -532936 0 2.24893e+06 -230904 0 2.19893e+06 28527.6 0 2.08747e+06 212598 0 1.95396e+06 330981 0 1.81725e+06 401352 0 1.6855e+06 438564 0 1.56181e+06 453381 0 1.44706e+06 453232 0 1.34123e+06 443185 0 1.24393e+06 426696 0 1.15468e+06 406124 0 1.07296e+06 383083 0 998284 358675 0 930194 333648 0 2.02558e+06 -807954 0 2.21952e+06 -533943 0 2.28068e+06 -218363 0 2.21969e+06 47863.5 0 2.09908e+06 233265 0 1.95921e+06 350804 0 1.81828e+06 419697 0 1.68379e+06 455387 0 1.55835e+06 468819 0 1.4425e+06 467452 0 1.33601e+06 456335 0 1.23835e+06 438895 0 1.14894e+06 417462 0 1.06719e+06 393628 0 992580 368479 0 924612 342750 0 2.05959e+06 -821521 0 2.2591e+06 -534126 0 2.31311e+06 -204165 0 2.24028e+06 68596.2 0 2.11028e+06 254859 0 1.96403e+06 371214 0 1.81892e+06 438408 0 1.68175e+06 472434 0 1.5546e+06 484388 0 1.4377e+06 481741 0 1.33058e+06 469513 0 1.23258e+06 451092 0 1.14303e+06 428778 0 1.06127e+06 404138 0 986731 378239 0 918891 351802 0 2.09516e+06 -835712 0 2.30055e+06 -533355 0 2.34618e+06 -188170 0 2.26063e+06 90759.5 0 2.12101e+06 277370 0 1.96838e+06 392194 0 1.81916e+06 457468 0 1.67937e+06 489691 0 1.55058e+06 500077 0 1.43266e+06 496091 0 1.32494e+06 482711 0 1.22663e+06 463283 0 1.13695e+06 440069 0 1.05519e+06 414611 0 980738 387954 0 913031 360804 0 </DataArray> 
</PointData> 
<Points> 
<DataArray type="Float32" NumberOfComponents="3"> 
0.1947 0.02 0 0.200643 0.02 0 0.206587 0.02 0 0.21253 0.02 0 0.218473 0.02 0 0.224417 0.02 0 0.23036 0.02 0 0.236303 0.02 0 0.242247 0.02 0 0.24819 0.02 0 0.254133 0.02 0 0.260077 0.02 0 0.26602 0.02 0 0.271963 0.02 0 0.277907 0.02 0 0.28385 0.02 0 0.194937 0.0205933 0 0.200872 0.0206131 0 0.206808 0.0206329 0 0.212743 0.0206527 0 0.218678 0.0206724 0 0.224614 0.0206922 0 0.230549 0.020712 0 0.236485 0.0207318 0 0.24242 0.0207516 0 0.248356 0.0207713 0 0.254291 0.0207911 0 0.260227 0.0208109 0 0.266162 0.0208307 0 0.272097 0.0208504 0 0.278033 0.0208702 0 0.283968 0.02089 0 0.195173 0.0211867 0 0.201101 0.0212262 0 0.207028 0.0212658 0 0.212956 0.0213053 0 0.218884 0.0213449 0 0.224811 0.0213844 0 0.230739 0.021424 0 0.236666 0.0214636 0 0.242594 0.0215031 0 0.248521 0.0215427 0 0.254449 0.0215822 0 0.260376 0.0216218 0 0.266304 0.0216613 0 0.272232 0.0217009 0 0.278159 0.0217404 0 0.284087 0.02178 0 0.19541 0.02178 0 0.20133 0.0218393 0 0.207249 0.0218987 0 0.213169 0.021958 0 0.219089 0.0220173 0 0.225008 0.0220767 0 0.230928 0.022136 0 0.236848 0.0221953 0 0.242767 0.0222547 0 0.248687 0.022314 0 0.254607 0.0223733 0 0.260526 0.0224327 0 0.266446 0.022492 0 0.272366 0.0225513 0 0.278285 0.0226107 0 0.284205 0.02267 0 0.195647 0.0223733 0 0.201558 0.0224524 0 0.20747 0.0225316 0 0.213382 0.0226107 0 0.219294 0.0226898 0 0.225206 0.0227689 0 0.231117 0.022848 0 0.237029 0.0229271 0 0.242941 0.0230062 0 0.248853 0.0230853 0 0.254764 0.0231644 0 0.260676 0.0232436 0 0.266588 0.0233227 0 0.2725 0.0234018 0 0.278412 0.0234809 0 0.284323 0.02356 0 0.195883 0.0229667 0 0.201787 0.0230656 0 0.207691 0.0231644 0 0.213595 0.0232633 0 0.219499 0.0233622 0 0.225403 0.0234611 0 0.231307 0.02356 0 0.237211 0.0236589 0 0.243114 0.0237578 0 0.249018 0.0238567 0 0.254922 0.0239556 0 0.260826 0.0240544 0 0.26673 0.0241533 0 0.272634 0.0242522 0 0.278538 0.0243511 0 0.284442 0.02445 0 0.19612 0.02356 0 0.202016 0.0236787 0 0.207912 0.0237973 0 0.213808 0.023916 0 0.219704 0.0240347 0 0.2256 0.0241533 0 0.231496 0.024272 0 0.237392 0.0243907 0 0.243288 0.0245093 0 0.249184 0.024628 0 0.25508 0.0247467 0 0.260976 0.0248653 0 0.266872 0.024984 0 0.272768 0.0251027 0 0.278664 0.0252213 0 0.28456 0.02534 0 0.196357 0.0241533 0 0.202245 0.0242918 0 0.208133 0.0244302 0 0.214021 0.0245687 0 0.219909 0.0247071 0 0.225797 0.0248456 0 0.231685 0.024984 0 0.237573 0.0251224 0 0.243462 0.0252609 0 0.24935 0.0253993 0 0.255238 0.0255378 0 0.261126 0.0256762 0 0.267014 0.0258147 0 0.272902 0.0259531 0 0.27879 0.0260916 0 0.284678 0.02623 0 0.196593 0.0247467 0 0.202474 0.0249049 0 0.208354 0.0250631 0 0.214234 0.0252213 0 0.220114 0.0253796 0 0.225994 0.0255378 0 0.231875 0.025696 0 0.237755 0.0258542 0 0.243635 0.0260124 0 0.249515 0.0261707 0 0.255396 0.0263289 0 0.261276 0.0264871 0 0.267156 0.0266453 0 0.273036 0.0268036 0 0.278916 0.0269618 0 0.284797 0.02712 0 0.19683 0.02534 0 0.202702 0.025518 0 0.208575 0.025696 0 0.214447 0.025874 0 0.220319 0.026052 0 0.226192 0.02623 0 0.232064 0.026408 0 0.237936 0.026586 0 0.243809 0.026764 0 0.249681 0.026942 0 0.255553 0.02712 0 0.261426 0.027298 0 0.267298 0.027476 0 0.27317 0.027654 0 0.279043 0.027832 0 0.284915 0.02801 0 0.197067 0.0259333 0 0.202931 0.0261311 0 0.208796 0.0263289 0 0.21466 0.0265267 0 0.220524 0.0267244 0 0.226389 0.0269222 0 0.232253 0.02712 0 0.238118 0.0273178 0 0.243982 0.0275156 0 0.249847 0.0277133 0 0.255711 0.0279111 0 0.261576 0.0281089 0 0.26744 0.0283067 0 0.273304 0.0285044 0 0.279169 0.0287022 0 0.285033 0.0289 0 0.197303 0.0265267 0 0.20316 0.0267442 0 0.209016 0.0269618 0 0.214873 0.0271793 0 0.22073 0.0273969 0 0.226586 0.0276144 0 0.232443 0.027832 0 0.238299 0.0280496 0 0.244156 0.0282671 0 0.250012 0.0284847 0 0.255869 0.0287022 0 0.261725 0.0289198 0 0.267582 0.0291373 0 0.273439 0.0293549 0 0.279295 0.0295724 0 0.285152 0.02979 0 0.19754 0.02712 0 0.203389 0.0273573 0 0.209237 0.0275947 0 0.215086 0.027832 0 0.220935 0.0280693 0 0.226783 0.0283067 0 0.232632 0.028544 0 0.238481 0.0287813 0 0.244329 0.0290187 0 0.250178 0.029256 0 0.256027 0.0294933 0 0.261875 0.0297307 0 0.267724 0.029968 0 0.273573 0.0302053 0 0.279421 0.0304427 0 0.28527 0.03068 0 0.197777 0.0277133 0 0.203617 0.0279704 0 0.209458 0.0282276 0 0.215299 0.0284847 0 0.22114 0.0287418 0 0.226981 0.0289989 0 0.232821 0.029256 0 0.238662 0.0295131 0 0.244503 0.0297702 0 0.250344 0.0300273 0 0.256184 0.0302844 0 0.262025 0.0305416 0 0.267866 0.0307987 0 0.273707 0.0310558 0 0.279548 0.0313129 0 0.285388 0.03157 0 0.198013 0.0283067 0 0.203846 0.0285836 0 0.209679 0.0288604 0 0.215512 0.0291373 0 0.221345 0.0294142 0 0.227178 0.0296911 0 0.233011 0.029968 0 0.238844 0.0302449 0 0.244676 0.0305218 0 0.250509 0.0307987 0 0.256342 0.0310756 0 0.262175 0.0313524 0 0.268008 0.0316293 0 0.273841 0.0319062 0 0.279674 0.0321831 0 0.285507 0.03246 0 0.19825 0.0289 0 0.204075 0.0291967 0 0.2099 0.0294933 0 0.215725 0.02979 0 0.22155 0.0300867 0 0.227375 0.0303833 0 0.2332 0.03068 0 0.239025 0.0309767 0 0.24485 0.0312733 0 0.250675 0.03157 0 0.2565 0.0318667 0 0.262325 0.0321633 0 0.26815 0.03246 0 0.273975 0.0327567 0 0.2798 0.0330533 0 0.285625 0.03335 0 
</DataArray>
</Points> 
</Piece> 
</StructuredGrid> 
</VTKFile> 
