<?xml version="1.0"?> 
<VTKFile type="StructuredGrid" version="0.1"> 
<StructuredGrid WholeExtent="0 15 0 15 0 0"> 
<Piece Extent="0 15 0 15 0 0"> 
<PointData>
<DataArray type="Float32" Name="|E|" format="ascii" NumberOfComponents="3"> 
446812 776088 0 409410 704972 0 376152 638298 0 346613 575604 0 320419 516449 0 297244 460433 0 276801 407185 0 258837 356359 0 243132 307626 0 229492 260673 0 217747 215198 0 207747 170909 0 199362 127524 0 192477 84761.4 0 186992 42345.4 0 182816 0 0 417057 782386 0 382253 710401 0 351303 642973 0 323801 579610 0 299408 519864 0 277821 463324 0 258775 409612 0 242034 358372 0 227395 309269 0 214677 261986 0 203721 216217 0 194388 171668 0 186556 128051 0 180119 85085.5 0 174982 42494 0 171062 0 0 387144 787792 0 354951 715074 0 326311 646996 0 300852 583058 0 278264 522802 0 258270 465810 0 240624 411695 0 225111 360096 0 211541 310674 0 199748 263106 0 189585 217083 0 180922 172309 0 173648 128494 0 167662 85356 0 162878 42616.9 0 159219 0 0 357116 792324 0 327534 718993 0 301203 650372 0 277787 585950 0 257006 525264 0 238606 467890 0 222363 413435 0 208080 361533 0 195582 311841 0 184716 264033 0 175347 217797 0 167358 172834 0 160644 128853 0 155114 85573.3 0 150687 42714.3 0 147293 0 0 327009 795986 0 300031 722164 0 276005 653102 0 254631 588287 0 235655 527252 0 218848 469566 0 204008 414833 0 190953 362684 0 179527 312772 0 169590 264767 0 161018 218358 0 153704 173242 0 147553 129130 0 142481 85737.5 0 138415 42786.1 0 135290 0 0 296859 798789 0 272472 724593 0 250744 655192 0 231404 590074 0 214229 528767 0 199012 470840 0 185571 415892 0 173745 363550 0 163390 313467 0 154381 265310 0 146606 218767 0 139968 173535 0 134382 129324 0 129770 85848.9 0 126069 42832.7 0 123217 0 0 266700 800742 0 244888 726285 0 225443 656647 0 208129 591314 0 192747 529815 0 179115 471714 0 167069 416612 0 156468 364133 0 147182 313927 0 139099 265663 0 132121 219025 0 126160 173713 0 121138 129435 0 116990 85907.7 0 113655 42854 0 111080 0 0 236564 801854 0 217305 727248 0 200128 657472 0 184827 592012 0 171229 530397 0 159173 472192 0 148517 416996 0 139134 364434 0 130913 314154 0 123755 265826 0 117571 219134 0 112286 173777 0 107831 129464 0 104146 85914.3 0 101180 42850.3 0 98884.3 0 0 206483 802137 0 189753 727492 0 174825 657673 0 161521 592172 0 149693 530517 0 139202 472276 0 129927 417047 0 121758 364455 0 114597 314150 0 108358 265801 0 102967 219093 0 98356.2 173727 0 94466.6 129412 0 91246.4 85869 0 88650.5 42821.8 0 86637.3 0 0 176488 801602 0 162259 727024 0 149556 657259 0 138231 591801 0 128158 530182 0 119221 471971 0 111316 416768 0 104351 364200 0 98243.2 313917 0 92920.2 265590 0 88317.8 218905 0 84379 173564 0 81053.9 129280 0 78298.3 85772.3 0 76073.8 42768.6 0 74345 0 0 146611 800262 0 134851 725856 0 124347 656237 0 114979 590904 0 106643 529395 0 99244.2 471280 0 92697.6 416162 0 86927 363670 0 81864.7 313456 0 77450.9 265193 0 73632.5 218571 0 70362.7 173290 0 67600.3 129068 0 65308.8 85624.7 0 63456.4 42691 0 62013.9 0 0 116881 798131 0 107554 723998 0 99221 654616 0 91785 589490 0 85166 528162 0 79288.8 470207 0 74086.5 415232 0 69498.9 362868 0 65472.8 312771 0 61960.7 264614 0 58920.9 218091 0 56316.2 172906 0 54114 128776 0 52285.4 85426.5 0 50805.2 42589.2 0 49650.2 0 0 87326.5 795222 0 80395.6 721461 0 74200.6 652404 0 68670.2 587564 0 63745.4 526489 0 59370.8 468759 0 55496.9 413983 0 52079.4 361798 0 49078.9 311863 0 46460.2 263854 0 44192.4 217468 0 42248 172412 0 40602.8 128406 0 39235.4 85178.5 0 38127.1 42463.4 0 37260.5 0 0 57976.6 791550 0 53400.4 718256 0 49308.8 649612 0 45654.5 585136 0 42399 524383 0 39506.1 466940 0 36943.2 412420 0 34681.3 360464 0 32694.5 310735 0 30959.6 262916 0 29456.4 216704 0 28166.8 171810 0 27074.8 127959 0 26166.3 84881 0 25428.9 42314 0 24851.3 0 0 28859 787130 0 26593.6 714398 0 24568 646250 0 22757.9 582214 0 21144.8 521852 0 19710.6 464755 0 18439.6 410546 0 17317.3 358869 0 16331 309391 0 15469.5 261801 0 14722.5 215799 0 14081.3 171102 0 13537.9 127435 0 13085.3 84534.8 0 12717.6 42141.2 0 12429 0 0 0 781979 0 0 709898 0 0 642329 0 0 578807 0 0 518901 0 0 462212 0 0 408366 0 0 357016 0 0 307834 0 0 260512 0 0 214757 0 0 170288 0 0 126836 0 0 84140.5 0 0 41945.4 0 0 0 0 </DataArray> 
</PointData> 
<Points> 
<DataArray type="Float32" NumberOfComponents="3"> 
0.286803 0.0810424 0 0.29255 0.0815187 0 0.298296 0.081995 0 0.304043 0.0824713 0 0.309789 0.0829475 0 0.315536 0.0834238 0 0.321282 0.0839001 0 0.327028 0.0843763 0 0.332775 0.0848526 0 0.338521 0.0853289 0 0.344268 0.0858051 0 0.350014 0.0862814 0 0.355761 0.0867577 0 0.361507 0.087234 0 0.367254 0.0877102 0 0.373 0.0881865 0 0.2872 0.0831063 0 0.29292 0.0835508 0 0.29864 0.0839953 0 0.30436 0.0844398 0 0.31008 0.0848844 0 0.3158 0.0853289 0 0.32152 0.0857734 0 0.32724 0.0862179 0 0.33296 0.0866624 0 0.33868 0.0871069 0 0.3444 0.0875515 0 0.35012 0.087996 0 0.35584 0.0884405 0 0.36156 0.088885 0 0.36728 0.0893295 0 0.373 0.0897741 0 0.287597 0.0851701 0 0.293291 0.0855829 0 0.298984 0.0859956 0 0.304678 0.0864084 0 0.310371 0.0868212 0 0.316065 0.087234 0 0.321758 0.0876467 0 0.327452 0.0880595 0 0.333145 0.0884723 0 0.338839 0.088885 0 0.344532 0.0892978 0 0.350226 0.0897106 0 0.355919 0.0901233 0 0.361613 0.0905361 0 0.367306 0.0909489 0 0.373 0.0913616 0 0.287994 0.087234 0 0.293661 0.087615 0 0.299328 0.087996 0 0.304995 0.088377 0 0.310662 0.088758 0 0.316329 0.089139 0 0.321997 0.08952 0 0.327664 0.0899011 0 0.333331 0.0902821 0 0.338998 0.0906631 0 0.344665 0.0910441 0 0.350332 0.0914251 0 0.355999 0.0918061 0 0.361666 0.0921872 0 0.367333 0.0925682 0 0.373 0.0929492 0 0.288391 0.0892978 0 0.294032 0.0896471 0 0.299672 0.0899963 0 0.305313 0.0903456 0 0.310953 0.0906948 0 0.316594 0.0910441 0 0.322235 0.0913934 0 0.327875 0.0917426 0 0.333516 0.0920919 0 0.339156 0.0924412 0 0.344797 0.0927904 0 0.350438 0.0931397 0 0.356078 0.093489 0 0.361719 0.0938382 0 0.367359 0.0941875 0 0.373 0.0945368 0 0.288788 0.0913616 0 0.294402 0.0916791 0 0.300016 0.0919967 0 0.30563 0.0923142 0 0.311245 0.0926317 0 0.316859 0.0929492 0 0.322473 0.0932667 0 0.328087 0.0935842 0 0.333701 0.0939017 0 0.339315 0.0942192 0 0.344929 0.0945368 0 0.350543 0.0948543 0 0.356158 0.0951718 0 0.361772 0.0954893 0 0.367386 0.0958068 0 0.373 0.0961243 0 0.289185 0.0934255 0 0.294773 0.0937112 0 0.30036 0.093997 0 0.305948 0.0942828 0 0.311536 0.0945685 0 0.317123 0.0948543 0 0.322711 0.09514 0 0.328299 0.0954258 0 0.333886 0.0957116 0 0.339474 0.0959973 0 0.345062 0.0962831 0 0.350649 0.0965688 0 0.356237 0.0968546 0 0.361825 0.0971404 0 0.367412 0.0974261 0 0.373 0.0977119 0 0.289582 0.0954893 0 0.295143 0.0957433 0 0.300704 0.0959973 0 0.306266 0.0962513 0 0.311827 0.0965053 0 0.317388 0.0967594 0 0.322949 0.0970134 0 0.32851 0.0972674 0 0.334072 0.0975214 0 0.339633 0.0977754 0 0.345194 0.0980294 0 0.350755 0.0982834 0 0.356316 0.0985374 0 0.361878 0.0987914 0 0.367439 0.0990455 0 0.373 0.0992995 0 0.289979 0.0975531 0 0.295514 0.0977754 0 0.301048 0.0979977 0 0.306583 0.0982199 0 0.312118 0.0984422 0 0.317653 0.0986644 0 0.323187 0.0988867 0 0.328722 0.099109 0 0.334257 0.0993312 0 0.339792 0.0995535 0 0.345326 0.0997757 0 0.350861 0.099998 0 0.356396 0.10022 0 0.361931 0.100443 0 0.367465 0.100665 0 0.373 0.100887 0 0.290376 0.099617 0 0.295884 0.0998075 0 0.301392 0.099998 0 0.306901 0.100189 0 0.312409 0.100379 0 0.317917 0.10057 0 0.323425 0.10076 0 0.328934 0.100951 0 0.334442 0.101141 0 0.33995 0.101332 0 0.345459 0.101522 0 0.350967 0.101713 0 0.356475 0.101903 0 0.361983 0.102094 0 0.367492 0.102284 0 0.373 0.102475 0 0.290773 0.101681 0 0.296254 0.10184 0 0.301736 0.101998 0 0.307218 0.102157 0 0.3127 0.102316 0 0.318182 0.102475 0 0.323664 0.102633 0 0.329145 0.102792 0 0.334627 0.102951 0 0.340109 0.10311 0 0.345591 0.103268 0 0.351073 0.103427 0 0.356555 0.103586 0 0.362036 0.103745 0 0.367518 0.103903 0 0.373 0.104062 0 0.29117 0.103745 0 0.296625 0.103872 0 0.30208 0.103999 0 0.307536 0.104126 0 0.312991 0.104253 0 0.318446 0.10438 0 0.323902 0.104507 0 0.329357 0.104634 0 0.334812 0.104761 0 0.340268 0.104888 0 0.345723 0.105015 0 0.351179 0.105142 0 0.356634 0.105269 0 0.362089 0.105396 0 0.367545 0.105523 0 0.373 0.10565 0 0.291567 0.105808 0 0.296995 0.105904 0 0.302424 0.105999 0 0.307853 0.106094 0 0.313282 0.10619 0 0.318711 0.106285 0 0.32414 0.10638 0 0.329569 0.106475 0 0.334998 0.106571 0 0.340427 0.106666 0 0.345856 0.106761 0 0.351284 0.106856 0 0.356713 0.106952 0 0.362142 0.107047 0 0.367571 0.107142 0 0.373 0.107237 0 0.291963 0.107872 0 0.297366 0.107936 0 0.302768 0.107999 0 0.308171 0.108063 0 0.313573 0.108126 0 0.318976 0.10819 0 0.324378 0.108253 0 0.32978 0.108317 0 0.335183 0.10838 0 0.340585 0.108444 0 0.345988 0.108507 0 0.35139 0.108571 0 0.356793 0.108634 0 0.362195 0.108698 0 0.367598 0.108761 0 0.373 0.108825 0 0.29236 0.109936 0 0.297736 0.109968 0 0.303112 0.11 0 0.308488 0.110031 0 0.313864 0.110063 0 0.31924 0.110095 0 0.324616 0.110127 0 0.329992 0.110158 0 0.335368 0.11019 0 0.340744 0.110222 0 0.34612 0.110254 0 0.351496 0.110285 0 0.356872 0.110317 0 0.362248 0.110349 0 0.367624 0.110381 0 0.373 0.110412 0 0.292757 0.112 0 0.298107 0.112 0 0.303456 0.112 0 0.308806 0.112 0 0.314155 0.112 0 0.319505 0.112 0 0.324854 0.112 0 0.330204 0.112 0 0.335553 0.112 0 0.340903 0.112 0 0.346252 0.112 0 0.351602 0.112 0 0.356951 0.112 0 0.362301 0.112 0 0.36765 0.112 0 0.373 0.112 0 
</DataArray>
</Points> 
</Piece> 
</StructuredGrid> 
</VTKFile> 
