<?xml version="1.0"?> 
<VTKFile type="StructuredGrid" version="0.1"> 
<StructuredGrid WholeExtent="0 15 0 15 0 0"> 
<Piece Extent="0 15 0 15 0 0"> 
<PointData>
<DataArray type="Float32" Name="|E|" format="ascii" NumberOfComponents="3"> 
4.87659e+06 3.16427e+06 0 3.55086e+06 2.43695e+06 0 2.79956e+06 2.08293e+06 0 2.30714e+06 1.8735e+06 0 1.94726e+06 1.7223e+06 0 1.67106e+06 1.59883e+06 0 1.44818e+06 1.49144e+06 0 1.26317e+06 1.39394e+06 0 1.10622e+06 1.30328e+06 0 971088 1.21772e+06 0 853544 1.13627e+06 0 750577 1.05834e+06 0 659957 983567 0 579959 911715 0 509206 842626 0 446542 776140 0 3.53878e+06 2.99808e+06 0 2.82769e+06 2.44325e+06 0 2.35621e+06 2.12362e+06 0 1.99866e+06 1.91333e+06 0 1.72089e+06 1.754e+06 0 1.49588e+06 1.62341e+06 0 1.30827e+06 1.51025e+06 0 1.14887e+06 1.4084e+06 0 1.01137e+06 1.31456e+06 0 891568 1.22674e+06 0 786426 1.14376e+06 0 693693 1.06487e+06 0 611636 989590 0 538866 917576 0 474259 848587 0 416798 782436 0 2.74246e+06 2.79102e+06 0 2.32558e+06 2.38708e+06 0 2.00244e+06 2.11529e+06 0 1.73699e+06 1.91894e+06 0 1.5189e+06 1.76311e+06 0 1.33451e+06 1.63252e+06 0 1.17655e+06 1.51814e+06 0 1.03954e+06 1.41495e+06 0 919616 1.31998e+06 0 813978 1.23135e+06 0 720490 1.14789e+06 0 637497 1.06883e+06 0 563665 993622 0 497892 921904 0 439262 853381 0 386920 787836 0 2.22158e+06 2.62478e+06 0 1.94785e+06 2.31359e+06 0 1.71374e+06 2.08402e+06 0 1.51155e+06 1.90537e+06 0 1.33744e+06 1.7575e+06 0 1.18561e+06 1.63038e+06 0 1.05255e+06 1.51747e+06 0 935122 1.41494e+06 0 831027 1.32032e+06 0 738427 1.232e+06 0 655849 1.14893e+06 0 582086 1.07035e+06 0 516125 995753 0 457101 924749 0 404271 857029 0 356928 792360 0 1.84312e+06 2.48436e+06 0 1.64813e+06 2.23751e+06 0 1.47184e+06 2.0416e+06 0 1.3139e+06 1.87996e+06 0 1.17326e+06 1.74149e+06 0 1.04778e+06 1.6196e+06 0 935741 1.50982e+06 0 835474 1.40932e+06 0 745619 1.31617e+06 0 664994 1.22906e+06 0 592594 1.14708e+06 0 527547 1.06957e+06 0 469091 996057 0 416550 926151 0 369331 859551 0 326856 796016 0 1.54652e+06 2.36643e+06 0 1.40017e+06 2.16354e+06 0 1.26355e+06 1.99339e+06 0 1.13797e+06 1.84699e+06 0 1.02355e+06 1.71799e+06 0 919661 1.60213e+06 0 825554 1.49644e+06 0 740382 1.39889e+06 0 663351 1.30803e+06 0 593715 1.22284e+06 0 530790 1.14256e+06 0 473951 1.06663e+06 0 422627 994613 0 376297 926156 0 334489 860970 0 296736 798813 0 1.30164e+06 2.26348e+06 0 1.18814e+06 2.09182e+06 0 1.08023e+06 1.94192e+06 0 979339 1.80882e+06 0 885967 1.68883e+06 0 800093 1.57929e+06 0 721445 1.47825e+06 0 649620 1.38428e+06 0 584164 1.29634e+06 0 524608 1.21364e+06 0 470489 1.13556e+06 0 421358 1.06164e+06 0 376793 991495 0 336392 924809 0 299788 861307 0 266604 800760 0 1.09175e+06 2.17071e+06 0 1.00215e+06 2.02208e+06 0 916088 1.88833e+06 0 834762 1.76675e+06 0 758713 1.65519e+06 0 688118 1.552e+06 0 622931 1.45593e+06 0 562973 1.366e+06 0 507987 1.28145e+06 0 457677 1.20169e+06 0 411728 1.12624e+06 0 369821 1.05472e+06 0 331641 986778 0 296885 922152 0 265267 860587 0 236492 801868 0 906982 2.08457e+06 0 835824 1.95353e+06 0 767159 1.83301e+06 0 701861 1.72153e+06 0 640389 1.61784e+06 0 582956 1.52094e+06 0 529599 1.43004e+06 0 480245 1.34446e+06 0 434748 1.26367e+06 0 392918 1.18724e+06 0 354538 1.11477e+06 0 319382 1.04596e+06 0 287219 980533 0 257819 918231 0 230966 858835 0 206431 802147 0 741188 2.00249e+06 0 684999 1.88542e+06 0 630702 1.77606e+06 0 578902 1.67357e+06 0 529937 1.57729e+06 0 483988 1.48659e+06 0 441108 1.40098e+06 0 401268 1.31999e+06 0 364382 1.24326e+06 0 330324 1.17046e+06 0 298945 1.10129e+06 0 270083 1.03549e+06 0 243570 972828 0 219237 913090 0 196923 856076 0 176453 801609 0 590450 1.92261e+06 0 546884 1.81709e+06 0 504814 1.71741e+06 0 464631 1.62314e+06 0 426561 1.5339e+06 0 390731 1.44932e+06 0 357183 1.36908e+06 0 325902 1.29289e+06 0 296832 1.22046e+06 0 269889 1.15155e+06 0 244969 1.08593e+06 0 221958 1.02339e+06 0 200735 963732 0 181179 906772 0 163173 852337 0 146588 800267 0 452233 1.84355e+06 0 419614 1.74797e+06 0 388176 1.65698e+06 0 358150 1.57037e+06 0 329672 1.48793e+06 0 302816 1.40942e+06 0 277607 1.33465e+06 0 254032 1.26339e+06 0 232052 1.19546e+06 0 211609 1.13066e+06 0 192631 1.06882e+06 0 175039 1.00976e+06 0 158751 953310 0 143683 899322 0 129752 847642 0 116868 798134 0 324909 1.76434e+06 0 301954 1.67766e+06 0 279886 1.59472e+06 0 258824 1.51541e+06 0 238839 1.4396e+06 0 219966 1.36715e+06 0 202214 1.29791e+06 0 185570 1.23173e+06 0 170005 1.16846e+06 0 155480 1.10796e+06 0 141948 1.05008e+06 0 129357 994683 0 117654 941627 0 106783 890782 0 96691.8 842020 0 87320.2 795223 0 207459 1.6843e+06 0 193104 1.6059e+06 0 179338 1.53062e+06 0 166212 1.45839e+06 0 153754 1.38913e+06 0 141976 1.32273e+06 0 130877 1.2591e+06 0 120445 1.1981e+06 0 110662 1.13964e+06 0 101502 1.08359e+06 0 92937.8 1.02983e+06 0 84939.6 978254 0 77475.9 928746 0 70514.9 881196 0 64025.9 835498 0 57974.2 791551 0 99277.3 1.60309e+06 0 92558.2 1.53261e+06 0 86131 1.46476e+06 0 80007.5 1.39949e+06 0 74194.5 1.33673e+06 0 68692.6 1.27641e+06 0 63497.9 1.21843e+06 0 58603.3 1.16271e+06 0 53999.4 1.10916e+06 0 49674.7 1.05768e+06 0 45616.8 1.00817e+06 0 41812.5 960556 0 38248.2 914730 0 34910.2 870607 0 31785.3 828102 0 28858.2 787130 0 0 1.52057e+06 0 0 1.4578e+06 0 0 1.39727e+06 0 0 1.3389e+06 0 0 1.28263e+06 0 0 1.2284e+06 0 0 1.17613e+06 0 0 1.12575e+06 0 0 1.07719e+06 0 0 1.03038e+06 0 0 985229 0 0 941675 0 0 899644 0 0 859062 0 0 819863 0 0 781979 0 </DataArray> 
</PointData> 
<Points> 
<DataArray type="Float32" NumberOfComponents="3"> 
0.200607 0.0524662 0 0.206353 0.0543713 0 0.2121 0.0562764 0 0.217846 0.0581815 0 0.223593 0.0600866 0 0.229339 0.0619916 0 0.235085 0.0638967 0 0.240832 0.0658018 0 0.246578 0.0677069 0 0.252325 0.069612 0 0.258071 0.071517 0 0.263818 0.0734221 0 0.269564 0.0753272 0 0.275311 0.0772323 0 0.281057 0.0791374 0 0.286803 0.0810424 0 0.204075 0.0564351 0 0.209617 0.0582132 0 0.215159 0.0599913 0 0.2207 0.0617694 0 0.226242 0.0635474 0 0.231784 0.0653255 0 0.237325 0.0671036 0 0.242867 0.0688817 0 0.248409 0.0706598 0 0.25395 0.0724378 0 0.259492 0.0742159 0 0.265034 0.075994 0 0.270575 0.0777721 0 0.276117 0.0795501 0 0.281659 0.0813282 0 0.2872 0.0831063 0 0.207544 0.0604041 0 0.212881 0.0620551 0 0.218218 0.0637062 0 0.223555 0.0653573 0 0.228892 0.0670083 0 0.234228 0.0686594 0 0.239565 0.0703105 0 0.244902 0.0719616 0 0.250239 0.0736126 0 0.255576 0.0752637 0 0.260913 0.0769148 0 0.26625 0.0785658 0 0.271587 0.0802169 0 0.276923 0.081868 0 0.28226 0.083519 0 0.287597 0.0851701 0 0.211013 0.064373 0 0.216145 0.065897 0 0.221277 0.0674211 0 0.226409 0.0689452 0 0.231541 0.0704692 0 0.236673 0.0719933 0 0.241805 0.0735174 0 0.246937 0.0750414 0 0.252069 0.0765655 0 0.257202 0.0780896 0 0.262334 0.0796136 0 0.267466 0.0811377 0 0.272598 0.0826618 0 0.27773 0.0841858 0 0.282862 0.0857099 0 0.287994 0.087234 0 0.214481 0.0683419 0 0.219409 0.069739 0 0.224336 0.071136 0 0.229263 0.0725331 0 0.234191 0.0739301 0 0.239118 0.0753272 0 0.244045 0.0767243 0 0.248973 0.0781213 0 0.2539 0.0795184 0 0.258827 0.0809154 0 0.263754 0.0823125 0 0.268682 0.0837096 0 0.273609 0.0851066 0 0.278536 0.0865037 0 0.283464 0.0879007 0 0.288391 0.0892978 0 0.21795 0.0723108 0 0.222672 0.0735809 0 0.227395 0.0748509 0 0.232117 0.076121 0 0.23684 0.077391 0 0.241563 0.0786611 0 0.246285 0.0799311 0 0.251008 0.0812012 0 0.25573 0.0824713 0 0.260453 0.0837413 0 0.265175 0.0850114 0 0.269898 0.0862814 0 0.27462 0.0875515 0 0.279343 0.0888215 0 0.284065 0.0900916 0 0.288788 0.0913616 0 0.221418 0.0762797 0 0.225936 0.0774228 0 0.230454 0.0785658 0 0.234972 0.0797089 0 0.23949 0.0808519 0 0.244007 0.081995 0 0.248525 0.083138 0 0.253043 0.0842811 0 0.257561 0.0854241 0 0.262078 0.0865672 0 0.266596 0.0877102 0 0.271114 0.0888533 0 0.275632 0.0899963 0 0.280149 0.0911394 0 0.284667 0.0922824 0 0.289185 0.0934255 0 0.224887 0.0802487 0 0.2292 0.0812647 0 0.233513 0.0822807 0 0.237826 0.0832968 0 0.242139 0.0843128 0 0.246452 0.0853289 0 0.250765 0.0863449 0 0.255078 0.087361 0 0.259391 0.088377 0 0.263704 0.089393 0 0.268017 0.0904091 0 0.27233 0.0914251 0 0.276643 0.0924412 0 0.280956 0.0934572 0 0.285269 0.0944733 0 0.289582 0.0954893 0 0.228356 0.0842176 0 0.232464 0.0851066 0 0.236572 0.0859956 0 0.24068 0.0868847 0 0.244789 0.0877737 0 0.248897 0.0886628 0 0.253005 0.0895518 0 0.257113 0.0904408 0 0.261221 0.0913299 0 0.26533 0.0922189 0 0.269438 0.093108 0 0.273546 0.093997 0 0.277654 0.094886 0 0.281762 0.0957751 0 0.285871 0.0966641 0 0.289979 0.0975531 0 0.231824 0.0881865 0 0.235728 0.0889485 0 0.239631 0.0897106 0 0.243535 0.0904726 0 0.247438 0.0912346 0 0.251341 0.0919967 0 0.255245 0.0927587 0 0.259148 0.0935207 0 0.263052 0.0942828 0 0.266955 0.0950448 0 0.270859 0.0958068 0 0.274762 0.0965688 0 0.278665 0.0973309 0 0.282569 0.0980929 0 0.286472 0.0988549 0 0.290376 0.099617 0 0.235293 0.0921554 0 0.238992 0.0927904 0 0.24269 0.0934255 0 0.246389 0.0940605 0 0.250087 0.0946955 0 0.253786 0.0953305 0 0.257485 0.0959656 0 0.261183 0.0966006 0 0.264882 0.0972356 0 0.268581 0.0978707 0 0.272279 0.0985057 0 0.275978 0.0991407 0 0.279677 0.0997757 0 0.283375 0.100411 0 0.287074 0.101046 0 0.290773 0.101681 0 0.238761 0.0961243 0 0.242255 0.0966323 0 0.245749 0.0971404 0 0.249243 0.0976484 0 0.252737 0.0981564 0 0.256231 0.0986644 0 0.259725 0.0991725 0 0.263219 0.0996805 0 0.266712 0.100189 0 0.270206 0.100697 0 0.2737 0.101205 0 0.277194 0.101713 0 0.280688 0.102221 0 0.284182 0.102729 0 0.287676 0.103237 0 0.29117 0.103745 0 0.24223 0.100093 0 0.245519 0.100474 0 0.248808 0.100855 0 0.252097 0.101236 0 0.255386 0.101617 0 0.258676 0.101998 0 0.261965 0.102379 0 0.265254 0.10276 0 0.268543 0.103141 0 0.271832 0.103522 0 0.275121 0.103903 0 0.27841 0.104284 0 0.281699 0.104665 0 0.284988 0.105046 0 0.288277 0.105427 0 0.291567 0.105808 0 0.245699 0.104062 0 0.248783 0.104316 0 0.251867 0.10457 0 0.254952 0.104824 0 0.258036 0.105078 0 0.26112 0.105332 0 0.264205 0.105586 0 0.267289 0.10584 0 0.270373 0.106094 0 0.273458 0.106348 0 0.276542 0.106602 0 0.279626 0.106856 0 0.28271 0.10711 0 0.285795 0.107364 0 0.288879 0.107618 0 0.291963 0.107872 0 0.249167 0.108031 0 0.252047 0.108158 0 0.254926 0.108285 0 0.257806 0.108412 0 0.260685 0.108539 0 0.263565 0.108666 0 0.266445 0.108793 0 0.269324 0.10892 0 0.272204 0.109047 0 0.275083 0.109174 0 0.277963 0.109301 0 0.280842 0.109428 0 0.283722 0.109555 0 0.286601 0.109682 0 0.289481 0.109809 0 0.29236 0.109936 0 0.252636 0.112 0 0.255311 0.112 0 0.257985 0.112 0 0.26066 0.112 0 0.263335 0.112 0 0.26601 0.112 0 0.268684 0.112 0 0.271359 0.112 0 0.274034 0.112 0 0.276709 0.112 0 0.279383 0.112 0 0.282058 0.112 0 0.284733 0.112 0 0.287408 0.112 0 0.290083 0.112 0 0.292757 0.112 0 
</DataArray>
</Points> 
</Piece> 
</StructuredGrid> 
</VTKFile> 
