<?xml version="1.0"?> 
<VTKFile type="StructuredGrid" version="0.1"> 
<StructuredGrid WholeExtent="0 15 0 15 0 0"> 
<Piece Extent="0 15 0 15 0 0"> 
<PointData>
<DataArray type="Float32" Name="|E|" format="ascii" NumberOfComponents="3"> 
1.22206e+06 -124700 0 1.42459e+06 -113346 0 1.57148e+06 -102798 0 1.67548e+06 -63813.6 0 1.72815e+06 -26554.1 0 1.73865e+06 5317.6 0 1.71419e+06 30217.3 0 1.66433e+06 47798.5 0 1.59717e+06 59257.4 0 1.51954e+06 65732.8 0 1.4366e+06 68543.6 0 1.35211e+06 68716.9 0 1.26871e+06 67092.7 0 1.18815e+06 64278.3 0 1.11158e+06 60718 0 1.0397e+06 56713.7 0 1.22665e+06 -125168 0 1.42351e+06 -123807 0 1.57476e+06 -109338 0 1.67777e+06 -67796.7 0 1.73034e+06 -28042.1 0 1.74016e+06 5935.49 0 1.7152e+06 32390.8 0 1.66487e+06 51089.4 0 1.59736e+06 63241 0 1.51948e+06 70105.4 0 1.43637e+06 73068.2 0 1.35178e+06 73232.4 0 1.26831e+06 71486.8 0 1.18773e+06 68478.8 0 1.11115e+06 64679 0 1.03928e+06 60410.3 0 1.22941e+06 -125450 0 1.42294e+06 -134352 0 1.57807e+06 -115909 0 1.68024e+06 -71754.3 0 1.73262e+06 -29484.8 0 1.74176e+06 6587.95 0 1.71627e+06 34600.9 0 1.66546e+06 54405.2 0 1.59758e+06 67244.6 0 1.51943e+06 74490.8 0 1.43614e+06 77601.4 0 1.35143e+06 77752.8 0 1.2679e+06 75883.5 0 1.18729e+06 72680.1 0 1.11071e+06 68639.9 0 1.03884e+06 64105.8 0 1.23036e+06 -125547 0 1.42286e+06 -145032 0 1.58143e+06 -122501 0 1.68289e+06 -75685.6 0 1.73502e+06 -30882.2 0 1.74347e+06 7277.51 0 1.71742e+06 36848.3 0 1.66609e+06 57747.5 0 1.59783e+06 71269 0 1.51939e+06 78889.7 0 1.43591e+06 82143.5 0 1.35109e+06 82278.3 0 1.26749e+06 80282.9 0 1.18684e+06 76882.4 0 1.11025e+06 72600.7 0 1.03839e+06 67800.5 0 1.22953e+06 -125462 0 1.42325e+06 -155899 0 1.58488e+06 -129104 0 1.68571e+06 -79589.9 0 1.73753e+06 -32233.7 0 1.74527e+06 8006.46 0 1.71863e+06 39133.7 0 1.66677e+06 61117.6 0 1.5981e+06 75314.8 0 1.51937e+06 83302.7 0 1.43569e+06 86695.1 0 1.35074e+06 86809.4 0 1.26706e+06 84685.2 0 1.18638e+06 81085.8 0 1.10978e+06 76561.5 0 1.03793e+06 71494.4 0 1.22687e+06 -125190 0 1.42411e+06 -167003 0 1.58841e+06 -135706 0 1.6887e+06 -83467 0 1.74015e+06 -33538.8 0 1.74717e+06 8777.09 0 1.71991e+06 41458 0 1.66749e+06 64516.9 0 1.5984e+06 79382.8 0 1.51936e+06 87730.6 0 1.43546e+06 91256.4 0 1.35038e+06 91346.1 0 1.26663e+06 89090.6 0 1.18591e+06 85290.5 0 1.1093e+06 80522.4 0 1.03745e+06 75187.5 0 1.22233e+06 -124728 0 1.42549e+06 -178399 0 1.59202e+06 -142296 0 1.69186e+06 -87316.8 0 1.74289e+06 -34796.8 0 1.74917e+06 9591.68 0 1.72126e+06 43822.1 0 1.66826e+06 67946.7 0 1.59872e+06 83473.6 0 1.51935e+06 92174 0 1.43524e+06 95827.9 0 1.35002e+06 95889 0 1.26619e+06 93499.3 0 1.18542e+06 89496.5 0 1.1088e+06 84483.3 0 1.03696e+06 78879.8 0 1.21583e+06 -124065 0 1.4274e+06 -190144 0 1.59572e+06 -148860 0 1.6952e+06 -91139.1 0 1.74574e+06 -36007.1 0 1.75127e+06 10452.6 0 1.72267e+06 46226.6 0 1.66907e+06 71408.6 0 1.59907e+06 87587.9 0 1.51936e+06 96633.5 0 1.43502e+06 100410 0 1.34965e+06 100438 0 1.26573e+06 97911.4 0 1.18493e+06 93703.9 0 1.10829e+06 88444.4 0 1.03645e+06 82571.6 0 1.20726e+06 -123190 0 1.42993e+06 -202297 0 1.5995e+06 -155382 0 1.69871e+06 -94934.1 0 1.74871e+06 -37169.1 0 1.75346e+06 11362.4 0 1.72415e+06 48672.3 0 1.66992e+06 74904 0 1.59944e+06 91726.4 0 1.51938e+06 101110 0 1.4348e+06 105003 0 1.34928e+06 104994 0 1.26527e+06 102327 0 1.18442e+06 97912.9 0 1.10776e+06 92405.6 0 1.03593e+06 86262.7 0 1.19646e+06 -122088 0 1.43315e+06 -214921 0 1.60333e+06 -161845 0 1.70242e+06 -98701.6 0 1.75178e+06 -38282.6 0 1.75575e+06 12324 0 1.72569e+06 51159.6 0 1.67082e+06 78434.4 0 1.59983e+06 95889.5 0 1.51942e+06 105604 0 1.43459e+06 109607 0 1.3489e+06 109557 0 1.2648e+06 106747 0 1.1839e+06 102124 0 1.10722e+06 96367.2 0 1.03539e+06 89953.3 0 1.18325e+06 -120740 0 1.43718e+06 -228083 0 1.60717e+06 -168230 0 1.70634e+06 -102442 0 1.75496e+06 -39347.6 0 1.75814e+06 13340.7 0 1.7273e+06 53688.7 0 1.67175e+06 82001.6 0 1.60025e+06 100078 0 1.51946e+06 110116 0 1.43437e+06 114223 0 1.34852e+06 114127 0 1.26431e+06 111170 0 1.18336e+06 106336 0 1.10666e+06 100329 0 1.03483e+06 93643.5 0 1.16739e+06 -119121 0 1.44216e+06 -241851 0 1.611e+06 -174515 0 1.71048e+06 -106154 0 1.75823e+06 -40364.8 0 1.76063e+06 14416.2 0 1.72897e+06 56259.5 0 1.67273e+06 85607.7 0 1.60069e+06 104292 0 1.51951e+06 114647 0 1.43415e+06 118850 0 1.34813e+06 118704 0 1.26382e+06 115598 0 1.18281e+06 110550 0 1.10609e+06 104291 0 1.03427e+06 97333.2 0 1.14861e+06 -117205 0 1.44826e+06 -256301 0 1.61474e+06 -180678 0 1.71488e+06 -109839 0 1.76159e+06 -41335.7 0 1.76323e+06 15555.3 0 1.7307e+06 58871.2 0 1.67376e+06 89254.9 0 1.60116e+06 108531 0 1.51957e+06 119199 0 1.43393e+06 123490 0 1.34773e+06 123290 0 1.26332e+06 120029 0 1.18225e+06 114767 0 1.10551e+06 108254 0 1.03368e+06 101023 0 1.12657e+06 -114956 0 1.45569e+06 -271512 0 1.61832e+06 -186692 0 1.71956e+06 -113494 0 1.76502e+06 -42262.9 0 1.76594e+06 16763.6 0 1.73248e+06 61522.5 0 1.67482e+06 92946 0 1.60164e+06 112796 0 1.51963e+06 123771 0 1.43372e+06 128142 0 1.34733e+06 127883 0 1.2628e+06 124465 0 1.18168e+06 118985 0 1.10491e+06 112217 0 1.03309e+06 104712 0 1.10088e+06 -112335 0 1.4647e+06 -287568 0 1.62164e+06 -192529 0 1.72457e+06 -117118 0 1.76851e+06 -43150.4 0 1.76877e+06 18048.1 0 1.73432e+06 64211 0 1.67593e+06 96684.2 0 1.60214e+06 117086 0 1.51971e+06 128366 0 1.4335e+06 132806 0 1.34692e+06 132486 0 1.26228e+06 128906 0 1.18109e+06 123206 0 1.1043e+06 116180 0 1.03247e+06 108401 0 1.07109e+06 -109295 0 1.4756e+06 -304559 0 1.62459e+06 -198158 0 1.72997e+06 -120707 0 1.77203e+06 -44004.7 0 1.77172e+06 19418.1 0 1.73621e+06 66933.1 0 1.67707e+06 100474 0 1.60267e+06 121400 0 1.5198e+06 132984 0 1.43328e+06 137483 0 1.3465e+06 137097 0 1.26174e+06 133351 0 1.18049e+06 127429 0 1.10367e+06 120144 0 1.03184e+06 112090 0 </DataArray> 
</PointData> 
<Points> 
<DataArray type="Float32" NumberOfComponents="3"> 
0.19 0.005 0 0.1961 0.005 0 0.2022 0.005 0 0.2083 0.005 0 0.2144 0.005 0 0.2205 0.005 0 0.2266 0.005 0 0.2327 0.005 0 0.2388 0.005 0 0.2449 0.005 0 0.251 0.005 0 0.2571 0.005 0 0.2632 0.005 0 0.2693 0.005 0 0.2754 0.005 0 0.2815 0.005 0 0.190033 0.00532667 0 0.196132 0.00532667 0 0.202231 0.00532667 0 0.20833 0.00532667 0 0.214429 0.00532667 0 0.220528 0.00532667 0 0.226627 0.00532667 0 0.232726 0.00532667 0 0.238824 0.00532667 0 0.244923 0.00532667 0 0.251022 0.00532667 0 0.257121 0.00532667 0 0.26322 0.00532667 0 0.269319 0.00532667 0 0.275418 0.00532667 0 0.281517 0.00532667 0 0.190067 0.00565333 0 0.196164 0.00565333 0 0.202262 0.00565333 0 0.20836 0.00565333 0 0.214458 0.00565333 0 0.220556 0.00565333 0 0.226653 0.00565333 0 0.232751 0.00565333 0 0.238849 0.00565333 0 0.244947 0.00565333 0 0.251044 0.00565333 0 0.257142 0.00565333 0 0.26324 0.00565333 0 0.269338 0.00565333 0 0.275436 0.00565333 0 0.281533 0.00565333 0 0.1901 0.00598 0 0.196197 0.00598 0 0.202293 0.00598 0 0.20839 0.00598 0 0.214487 0.00598 0 0.220583 0.00598 0 0.22668 0.00598 0 0.232777 0.00598 0 0.238873 0.00598 0 0.24497 0.00598 0 0.251067 0.00598 0 0.257163 0.00598 0 0.26326 0.00598 0 0.269357 0.00598 0 0.275453 0.00598 0 0.28155 0.00598 0 0.190133 0.00630667 0 0.196229 0.00630667 0 0.202324 0.00630667 0 0.20842 0.00630667 0 0.214516 0.00630667 0 0.220611 0.00630667 0 0.226707 0.00630667 0 0.232802 0.00630667 0 0.238898 0.00630667 0 0.244993 0.00630667 0 0.251089 0.00630667 0 0.257184 0.00630667 0 0.26328 0.00630667 0 0.269376 0.00630667 0 0.275471 0.00630667 0 0.281567 0.00630667 0 0.190167 0.00663333 0 0.196261 0.00663333 0 0.202356 0.00663333 0 0.20845 0.00663333 0 0.214544 0.00663333 0 0.220639 0.00663333 0 0.226733 0.00663333 0 0.232828 0.00663333 0 0.238922 0.00663333 0 0.245017 0.00663333 0 0.251111 0.00663333 0 0.257206 0.00663333 0 0.2633 0.00663333 0 0.269394 0.00663333 0 0.275489 0.00663333 0 0.281583 0.00663333 0 0.1902 0.00696 0 0.196293 0.00696 0 0.202387 0.00696 0 0.20848 0.00696 0 0.214573 0.00696 0 0.220667 0.00696 0 0.22676 0.00696 0 0.232853 0.00696 0 0.238947 0.00696 0 0.24504 0.00696 0 0.251133 0.00696 0 0.257227 0.00696 0 0.26332 0.00696 0 0.269413 0.00696 0 0.275507 0.00696 0 0.2816 0.00696 0 0.190233 0.00728667 0 0.196326 0.00728667 0 0.202418 0.00728667 0 0.20851 0.00728667 0 0.214602 0.00728667 0 0.220694 0.00728667 0 0.226787 0.00728667 0 0.232879 0.00728667 0 0.238971 0.00728667 0 0.245063 0.00728667 0 0.251156 0.00728667 0 0.257248 0.00728667 0 0.26334 0.00728667 0 0.269432 0.00728667 0 0.275524 0.00728667 0 0.281617 0.00728667 0 0.190267 0.00761333 0 0.196358 0.00761333 0 0.202449 0.00761333 0 0.20854 0.00761333 0 0.214631 0.00761333 0 0.220722 0.00761333 0 0.226813 0.00761333 0 0.232904 0.00761333 0 0.238996 0.00761333 0 0.245087 0.00761333 0 0.251178 0.00761333 0 0.257269 0.00761333 0 0.26336 0.00761333 0 0.269451 0.00761333 0 0.275542 0.00761333 0 0.281633 0.00761333 0 0.1903 0.00794 0 0.19639 0.00794 0 0.20248 0.00794 0 0.20857 0.00794 0 0.21466 0.00794 0 0.22075 0.00794 0 0.22684 0.00794 0 0.23293 0.00794 0 0.23902 0.00794 0 0.24511 0.00794 0 0.2512 0.00794 0 0.25729 0.00794 0 0.26338 0.00794 0 0.26947 0.00794 0 0.27556 0.00794 0 0.28165 0.00794 0 0.190333 0.00826667 0 0.196422 0.00826667 0 0.202511 0.00826667 0 0.2086 0.00826667 0 0.214689 0.00826667 0 0.220778 0.00826667 0 0.226867 0.00826667 0 0.232956 0.00826667 0 0.239044 0.00826667 0 0.245133 0.00826667 0 0.251222 0.00826667 0 0.257311 0.00826667 0 0.2634 0.00826667 0 0.269489 0.00826667 0 0.275578 0.00826667 0 0.281667 0.00826667 0 0.190367 0.00859333 0 0.196454 0.00859333 0 0.202542 0.00859333 0 0.20863 0.00859333 0 0.214718 0.00859333 0 0.220806 0.00859333 0 0.226893 0.00859333 0 0.232981 0.00859333 0 0.239069 0.00859333 0 0.245157 0.00859333 0 0.251244 0.00859333 0 0.257332 0.00859333 0 0.26342 0.00859333 0 0.269508 0.00859333 0 0.275596 0.00859333 0 0.281683 0.00859333 0 0.1904 0.00892 0 0.196487 0.00892 0 0.202573 0.00892 0 0.20866 0.00892 0 0.214747 0.00892 0 0.220833 0.00892 0 0.22692 0.00892 0 0.233007 0.00892 0 0.239093 0.00892 0 0.24518 0.00892 0 0.251267 0.00892 0 0.257353 0.00892 0 0.26344 0.00892 0 0.269527 0.00892 0 0.275613 0.00892 0 0.2817 0.00892 0 0.190433 0.00924667 0 0.196519 0.00924667 0 0.202604 0.00924667 0 0.20869 0.00924667 0 0.214776 0.00924667 0 0.220861 0.00924667 0 0.226947 0.00924667 0 0.233032 0.00924667 0 0.239118 0.00924667 0 0.245203 0.00924667 0 0.251289 0.00924667 0 0.257374 0.00924667 0 0.26346 0.00924667 0 0.269546 0.00924667 0 0.275631 0.00924667 0 0.281717 0.00924667 0 0.190467 0.00957333 0 0.196551 0.00957333 0 0.202636 0.00957333 0 0.20872 0.00957333 0 0.214804 0.00957333 0 0.220889 0.00957333 0 0.226973 0.00957333 0 0.233058 0.00957333 0 0.239142 0.00957333 0 0.245227 0.00957333 0 0.251311 0.00957333 0 0.257396 0.00957333 0 0.26348 0.00957333 0 0.269564 0.00957333 0 0.275649 0.00957333 0 0.281733 0.00957333 0 0.1905 0.0099 0 0.196583 0.0099 0 0.202667 0.0099 0 0.20875 0.0099 0 0.214833 0.0099 0 0.220917 0.0099 0 0.227 0.0099 0 0.233083 0.0099 0 0.239167 0.0099 0 0.24525 0.0099 0 0.251333 0.0099 0 0.257417 0.0099 0 0.2635 0.0099 0 0.269583 0.0099 0 0.275667 0.0099 0 0.28175 0.0099 0 
</DataArray>
</Points> 
</Piece> 
</StructuredGrid> 
</VTKFile> 
