<?xml version="1.0"?> 
<VTKFile type="StructuredGrid" version="0.1"> 
<StructuredGrid WholeExtent="0 15 0 15 0 0"> 
<Piece Extent="0 15 0 15 0 0"> 
<PointData>
<DataArray type="Float32" Name="|E|" format="ascii" NumberOfComponents="3"> 
986678 221294 0 923467 203848 0 865758 186506 0 813347 169480 0 766032 152901 0 723607 136839 0 685872 121316 0 652638 106327 0 623730 91842.6 0 598991 77819.9 0 578281 64205.5 0 561484 50938.8 0 548499 37954.4 0 539249 25183.7 0 533680 12556.1 0 531757 0 0 982692 230842 0 919611 212779 0 862052 194814 0 809803 177165 0 762651 159965 0 720384 143280 0 682796 127137 0 649695 111526 0 620903 96419.3 0 596263 81771.3 0 575633 67526.5 0 558894 53622.1 0 545947 39990 0 536713 26558.5 0 531136 13253.6 0 529182 0 0 978579 240361 0 915627 221675 0 858219 203085 0 806132 184813 0 759144 166990 0 717034 149686 0 679592 132923 0 646624 116694 0 617949 100967 0 593407 85697.3 0 572856 70825.8 0 556174 56287.7 0 543262 42011.9 0 534040 27923.9 0 528452 13946.3 0 526462 0 0 974338 249851 0 911514 230536 0 854259 211318 0 802334 192421 0 755509 173977 0 713556 156053 0 676262 138674 0 643427 121829 0 614868 105486 0 590423 89597.2 0 569948 74102.8 0 553322 58934.8 0 540443 44019.6 0 531231 29279.6 0 525628 14634 0 523598 0 0 969967 259308 0 907273 239359 0 850170 219511 0 798409 199989 0 751747 180924 0 709953 162383 0 672806 144389 0 640103 126930 0 611660 109974 0 587311 93470.4 0 566912 77356.8 0 550340 61563 0 537491 46012.8 0 528286 30625.3 0 522664 15316.5 0 520590 0 0 965465 268733 0 902901 248145 0 845953 227664 0 794355 207516 0 747859 187830 0 706223 168673 0 669223 150066 0 636653 131998 0 608325 114432 0 584072 97316.1 0 563748 80587.1 0 547227 64171.8 0 534407 47990.9 0 525206 31960.7 0 519563 15993.7 0 517440 0 0 960831 278123 0 898400 256891 0 841607 235775 0 790175 215000 0 743844 194694 0 702367 174923 0 665515 155706 0 633077 137030 0 604864 118857 0 580706 101134 0 560455 83793.3 0 543986 66760.6 0 531192 49953.6 0 521992 33285.5 0 516324 16665.5 0 514148 0 0 956064 287477 0 893768 265596 0 837132 243844 0 785867 222441 0 739702 201516 0 698385 181132 0 661681 161307 0 629376 142026 0 601278 123250 0 577214 104922 0 557036 86974.6 0 540615 69328.9 0 527846 51900.5 0 518644 34599.4 0 512947 17331.7 0 510715 0 0 951163 296793 0 889005 274259 0 832529 251868 0 781431 229837 0 735434 208293 0 694278 187298 0 657722 166868 0 625550 146985 0 597566 127609 0 573597 108681 0 553490 90130.4 0 537117 71876.2 0 524370 53831.1 0 515164 35902.2 0 509435 17992.1 0 507141 0 0 946127 306070 0 884110 282879 0 827796 259846 0 776868 237187 0 731041 215026 0 690045 193421 0 653639 172388 0 621600 151907 0 593731 131934 0 569854 112410 0 549818 93260 0 533491 74401.9 0 520764 55745.1 0 511551 37193.5 0 505787 18646.6 0 503428 0 0 940956 315306 0 879083 291454 0 822934 267778 0 772178 244490 0 726521 221712 0 685689 199500 0 649432 177866 0 617527 156789 0 589771 136224 0 565988 116107 0 546021 96362.9 0 529738 76905.6 0 517030 57641.9 0 507807 38473 0 502004 19295 0 499576 0 0 935648 324499 0 873924 299982 0 817942 275661 0 767361 251745 0 721876 228351 0 681207 205533 0 645102 183302 0 613330 161633 0 585689 140478 0 561997 119773 0 542099 99438.5 0 525860 79386.6 0 513167 59521.3 0 503933 39740.5 0 498088 19937.2 0 495586 0 0 930204 333647 0 868632 308462 0 812821 283495 0 762416 258950 0 717105 234941 0 676602 211520 0 640648 188694 0 609011 166436 0 581484 144696 0 557884 123406 0 538053 102486 0 521856 81844.4 0 509178 61382.7 0 499929 40995.6 0 494038 20573 0 491459 0 0 924622 342748 0 863207 316892 0 807570 291277 0 757345 266104 0 712210 241482 0 671873 217460 0 636072 194041 0 604570 171197 0 577157 148875 0 553649 127006 0 533885 105505 0 517728 84278.6 0 505062 63225.7 0 495796 42238.1 0 489857 21202.3 0 487197 0 0 918902 351801 0 857649 325270 0 802190 299007 0 752147 273206 0 707190 247972 0 667022 223351 0 631374 199342 0 600007 175916 0 572709 153017 0 549292 130572 0 529594 108494 0 513476 86688.6 0 500821 65050 0 491535 43467.7 0 485545 21824.9 0 482800 0 0 913045 360802 0 851958 333596 0 796681 306683 0 746823 280254 0 702047 254410 0 662048 229191 0 626555 204597 0 595324 180592 0 568140 157119 0 544815 134103 0 525182 111454 0 509102 89073.7 0 496456 66855.1 0 487147 44684 0 481103 22440.6 0 478269 0 0 </DataArray> 
</PointData> 
<Points> 
<DataArray type="Float32" NumberOfComponents="3"> 
0.28385 0.02 0 0.289793 0.02 0 0.295737 0.02 0 0.30168 0.02 0 0.307623 0.02 0 0.313567 0.02 0 0.31951 0.02 0 0.325453 0.02 0 0.331397 0.02 0 0.33734 0.02 0 0.343283 0.02 0 0.349227 0.02 0 0.35517 0.02 0 0.361113 0.02 0 0.367057 0.02 0 0.373 0.02 0 0.283968 0.02089 0 0.289904 0.0209098 0 0.295839 0.0209296 0 0.301775 0.0209493 0 0.30771 0.0209691 0 0.313646 0.0209889 0 0.319581 0.0210087 0 0.325516 0.0210284 0 0.331452 0.0210482 0 0.337387 0.021068 0 0.343323 0.0210878 0 0.349258 0.0211076 0 0.355194 0.0211273 0 0.361129 0.0211471 0 0.367065 0.0211669 0 0.373 0.0211867 0 0.284087 0.02178 0 0.290014 0.0218196 0 0.295942 0.0218591 0 0.301869 0.0218987 0 0.307797 0.0219382 0 0.313724 0.0219778 0 0.319652 0.0220173 0 0.32558 0.0220569 0 0.331507 0.0220964 0 0.337435 0.022136 0 0.343362 0.0221756 0 0.34929 0.0222151 0 0.355217 0.0222547 0 0.361145 0.0222942 0 0.367072 0.0223338 0 0.373 0.0223733 0 0.284205 0.02267 0 0.290125 0.0227293 0 0.296044 0.0227887 0 0.301964 0.022848 0 0.307884 0.0229073 0 0.313803 0.0229667 0 0.319723 0.023026 0 0.325643 0.0230853 0 0.331562 0.0231447 0 0.337482 0.023204 0 0.343402 0.0232633 0 0.349321 0.0233227 0 0.355241 0.023382 0 0.361161 0.0234413 0 0.36708 0.0235007 0 0.373 0.02356 0 0.284323 0.02356 0 0.290235 0.0236391 0 0.296147 0.0237182 0 0.302059 0.0237973 0 0.30797 0.0238764 0 0.313882 0.0239556 0 0.319794 0.0240347 0 0.325706 0.0241138 0 0.331618 0.0241929 0 0.337529 0.024272 0 0.343441 0.0243511 0 0.349353 0.0244302 0 0.355265 0.0245093 0 0.361176 0.0245884 0 0.367088 0.0246676 0 0.373 0.0247467 0 0.284442 0.02445 0 0.290346 0.0245489 0 0.296249 0.0246478 0 0.302153 0.0247467 0 0.308057 0.0248456 0 0.313961 0.0249444 0 0.319865 0.0250433 0 0.325769 0.0251422 0 0.331673 0.0252411 0 0.337577 0.02534 0 0.343481 0.0254389 0 0.349384 0.0255378 0 0.355288 0.0256367 0 0.361192 0.0257356 0 0.367096 0.0258344 0 0.373 0.0259333 0 0.28456 0.02534 0 0.290456 0.0254587 0 0.296352 0.0255773 0 0.302248 0.025696 0 0.308144 0.0258147 0 0.31404 0.0259333 0 0.319936 0.026052 0 0.325832 0.0261707 0 0.331728 0.0262893 0 0.337624 0.026408 0 0.34352 0.0265267 0 0.349416 0.0266453 0 0.355312 0.026764 0 0.361208 0.0268827 0 0.367104 0.0270013 0 0.373 0.02712 0 0.284678 0.02623 0 0.290566 0.0263684 0 0.296455 0.0265069 0 0.302343 0.0266453 0 0.308231 0.0267838 0 0.314119 0.0269222 0 0.320007 0.0270607 0 0.325895 0.0271991 0 0.331783 0.0273376 0 0.337671 0.027476 0 0.343559 0.0276144 0 0.349448 0.0277529 0 0.355336 0.0278913 0 0.361224 0.0280298 0 0.367112 0.0281682 0 0.373 0.0283067 0 0.284797 0.02712 0 0.290677 0.0272782 0 0.296557 0.0274364 0 0.302437 0.0275947 0 0.308318 0.0277529 0 0.314198 0.0279111 0 0.320078 0.0280693 0 0.325958 0.0282276 0 0.331838 0.0283858 0 0.337719 0.028544 0 0.343599 0.0287022 0 0.349479 0.0288604 0 0.355359 0.0290187 0 0.36124 0.0291769 0 0.36712 0.0293351 0 0.373 0.0294933 0 0.284915 0.02801 0 0.290787 0.028188 0 0.29666 0.028366 0 0.302532 0.028544 0 0.308404 0.028722 0 0.314277 0.0289 0 0.320149 0.029078 0 0.326021 0.029256 0 0.331894 0.029434 0 0.337766 0.029612 0 0.343638 0.02979 0 0.349511 0.029968 0 0.355383 0.030146 0 0.361255 0.030324 0 0.367128 0.030502 0 0.373 0.03068 0 0.285033 0.0289 0 0.290898 0.0290978 0 0.296762 0.0292956 0 0.302627 0.0294933 0 0.308491 0.0296911 0 0.314356 0.0298889 0 0.32022 0.0300867 0 0.326084 0.0302844 0 0.331949 0.0304822 0 0.337813 0.03068 0 0.343678 0.0308778 0 0.349542 0.0310756 0 0.355407 0.0312733 0 0.361271 0.0314711 0 0.367136 0.0316689 0 0.373 0.0318667 0 0.285152 0.02979 0 0.291008 0.0300076 0 0.296865 0.0302251 0 0.302721 0.0304427 0 0.308578 0.0306602 0 0.314434 0.0308778 0 0.320291 0.0310953 0 0.326148 0.0313129 0 0.332004 0.0315304 0 0.337861 0.031748 0 0.343717 0.0319656 0 0.349574 0.0321831 0 0.35543 0.0324007 0 0.361287 0.0326182 0 0.367143 0.0328358 0 0.373 0.0330533 0 0.28527 0.03068 0 0.291119 0.0309173 0 0.296967 0.0311547 0 0.302816 0.031392 0 0.308665 0.0316293 0 0.314513 0.0318667 0 0.320362 0.032104 0 0.326211 0.0323413 0 0.332059 0.0325787 0 0.337908 0.032816 0 0.343757 0.0330533 0 0.349605 0.0332907 0 0.355454 0.033528 0 0.361303 0.0337653 0 0.367151 0.0340027 0 0.373 0.03424 0 0.285388 0.03157 0 0.291229 0.0318271 0 0.29707 0.0320842 0 0.302911 0.0323413 0 0.308751 0.0325984 0 0.314592 0.0328556 0 0.320433 0.0331127 0 0.326274 0.0333698 0 0.332115 0.0336269 0 0.337955 0.033884 0 0.343796 0.0341411 0 0.349637 0.0343982 0 0.355478 0.0346553 0 0.361318 0.0349124 0 0.367159 0.0351696 0 0.373 0.0354267 0 0.285507 0.03246 0 0.29134 0.0327369 0 0.297172 0.0330138 0 0.303005 0.0332907 0 0.308838 0.0335676 0 0.314671 0.0338444 0 0.320504 0.0341213 0 0.326337 0.0343982 0 0.33217 0.0346751 0 0.338003 0.034952 0 0.343836 0.0352289 0 0.349668 0.0355058 0 0.355501 0.0357827 0 0.361334 0.0360596 0 0.367167 0.0363364 0 0.373 0.0366133 0 0.285625 0.03335 0 0.29145 0.0336467 0 0.297275 0.0339433 0 0.3031 0.03424 0 0.308925 0.0345367 0 0.31475 0.0348333 0 0.320575 0.03513 0 0.3264 0.0354267 0 0.332225 0.0357233 0 0.33805 0.03602 0 0.343875 0.0363167 0 0.3497 0.0366133 0 0.355525 0.03691 0 0.36135 0.0372067 0 0.367175 0.0375033 0 0.373 0.0378 0 
</DataArray>
</Points> 
</Piece> 
</StructuredGrid> 
</VTKFile> 
