<?xml version="1.0"?> 
<VTKFile type="StructuredGrid" version="0.1"> 
<StructuredGrid WholeExtent="0 15 0 15 0 0"> 
<Piece Extent="0 15 0 15 0 0"> 
<PointData>
<DataArray type="Float32" Name="|E|" format="ascii" NumberOfComponents="3"> 
-2.13407e+06 0 0 -2.14076e+06 0.00748661 0 -2.16021e+06 0.0154068 0 -2.19272e+06 0.0240726 0 -2.23883e+06 0.0335792 0 -2.29931e+06 0.0438158 0 -2.37518e+06 0.053698 0 -2.46773e+06 0.0590221 0 -2.57844e+06 0.0500025 0 -2.70872e+06 0.00572136 0 -2.85933e+06 -0.128057 0 -3.0287e+06 -0.450314 0 -3.20947e+06 -0.990409 0 -3.38319e+06 -1.5192 0 -3.51719e+06 -1.42957 0 -3.57113e+06 0 0 -2.13395e+06 0 0 -2.14065e+06 1695.52 0 -2.16009e+06 3417.76 0 -2.1926e+06 5194.9 0 -2.23871e+06 7057.7 0 -2.29918e+06 9039.86 0 -2.37503e+06 11177.4 0 -2.46757e+06 13504.2 0 -2.57826e+06 16036.3 0 -2.70854e+06 18736.2 0 -2.85915e+06 21431.9 0 -3.02859e+06 23619.5 0 -3.20953e+06 24142.2 0 -3.38356e+06 21148.7 0 -3.51794e+06 12914.6 0 -3.5721e+06 -1.86265e-07 0 -2.13362e+06 0 0 -2.14031e+06 3390.55 0 -2.15974e+06 6834.52 0 -2.19224e+06 10388.2 0 -2.23832e+06 14113.2 0 -2.29876e+06 18076.9 0 -2.37459e+06 22351.3 0 -2.46708e+06 27004.6 0 -2.57774e+06 32069.4 0 -2.70799e+06 37471.9 0 -2.85864e+06 42872.1 0 -3.02827e+06 47268.2 0 -3.20971e+06 48349.1 0 -3.38463e+06 42396.7 0 -3.52017e+06 25923.1 0 -3.57501e+06 2.16067e-07 0 -2.13305e+06 0 0 -2.13974e+06 5084.63 0 -2.15916e+06 10249.3 0 -2.19163e+06 15578.5 0 -2.23768e+06 21164.4 0 -2.29808e+06 27108.2 0 -2.37385e+06 33518.3 0 -2.46627e+06 40497.3 0 -2.57686e+06 48095.9 0 -2.70708e+06 56206.8 0 -2.85778e+06 64328.4 0 -3.02772e+06 70974.4 0 -3.20999e+06 72683.2 0 -3.38643e+06 63841.2 0 -3.52391e+06 39118.5 0 -3.57988e+06 -2.23517e-07 0 -2.13227e+06 0 0 -2.13894e+06 6777.27 0 -2.15835e+06 13661.1 0 -2.19079e+06 20764.1 0 -2.23679e+06 28209.2 0 -2.29712e+06 36131.3 0 -2.37281e+06 44675.1 0 -2.46514e+06 53978.8 0 -2.57563e+06 64112.8 0 -2.7058e+06 74940 0 -2.85657e+06 85807.9 0 -3.02694e+06 94764.8 0 -3.21037e+06 97205.9 0 -3.38893e+06 85578.1 0 -3.52916e+06 52595.7 0 -3.58678e+06 2.08616e-07 0 -2.13125e+06 0 0 -2.13792e+06 8468.03 0 -2.1573e+06 17069.1 0 -2.1897e+06 25943.7 0 -2.23564e+06 35245.5 0 -2.29589e+06 45143.2 0 -2.37147e+06 55818.2 0 -2.46368e+06 67445.1 0 -2.57405e+06 80116.5 0 -2.70414e+06 93670.7 0 -2.85501e+06 107317 0 -3.02591e+06 118666 0 -3.21082e+06 121979 0 -3.39212e+06 107706 0 -3.53595e+06 66455.6 0 -3.59576e+06 -4.47035e-08 0 -2.13002e+06 0 0 -2.13668e+06 10156.4 0 -2.15603e+06 20472.2 0 -2.18837e+06 31115.7 0 -2.23424e+06 42271.3 0 -2.29439e+06 54141.3 0 -2.36984e+06 66944.3 0 -2.4619e+06 80892.5 0 -2.57212e+06 96103.8 0 -2.70212e+06 112398 0 -2.85308e+06 128862 0 -3.02463e+06 142702 0 -3.21133e+06 147064 0 -3.39598e+06 130327 0 -3.54429e+06 80806.9 0 -3.60692e+06 0 0 -2.12855e+06 0 0 -2.1352e+06 11842.1 0 -2.15452e+06 23869.6 0 -2.1868e+06 36278.7 0 -2.23258e+06 49284.4 0 -2.29261e+06 63122.9 0 -2.36791e+06 78050 0 -2.45979e+06 94317 0 -2.56984e+06 112071 0 -2.69971e+06 131119 0 -2.85078e+06 150448 0 -3.02305e+06 166898 0 -3.21186e+06 172522 0 -3.4005e+06 153542 0 -3.55421e+06 95768.6 0 -3.6204e+06 0 0 -2.12687e+06 0 0 -2.1335e+06 13524.4 0 -2.15278e+06 27260.2 0 -2.18499e+06 41431.1 0 -2.23067e+06 56282.8 0 -2.29056e+06 72085.2 0 -2.36569e+06 89131.8 0 -2.45737e+06 107715 0 -2.5672e+06 128014 0 -2.69693e+06 149832 0 -2.8481e+06 172077 0 -3.02117e+06 191275 0 -3.21238e+06 198415 0 -3.40565e+06 177460 0 -3.56574e+06 111472 0 -3.63635e+06 -8.9407e-08 0 -2.12496e+06 0 0 -2.13158e+06 15203 0 -2.15081e+06 30643.1 0 -2.18294e+06 46571.5 0 -2.2285e+06 63264.4 0 -2.28824e+06 81025.5 0 -2.36317e+06 100186 0 -2.45461e+06 121081 0 -2.5642e+06 143929 0 -2.69376e+06 168535 0 -2.84502e+06 193752 0 -3.01895e+06 215852 0 -3.21285e+06 224803 0 -3.41139e+06 202189 0 -3.57889e+06 128066 0 -3.65497e+06 1.19209e-07 0 -2.12283e+06 0 0 -2.12943e+06 16877.5 0 -2.14861e+06 34017.5 0 -2.18066e+06 51698.4 0 -2.22609e+06 70227.2 0 -2.28565e+06 89941.1 0 -2.36036e+06 111210 0 -2.45154e+06 134413 0 -2.56085e+06 159812 0 -2.69021e+06 187223 0 -2.84153e+06 215474 0 -3.01636e+06 240645 0 -3.21322e+06 251748 0 -3.41769e+06 227840 0 -3.59367e+06 145718 0 -3.67653e+06 -2.98023e-08 0 -2.12048e+06 0 0 -2.12706e+06 18547.3 0 -2.14618e+06 37382.3 0 -2.17813e+06 56810.4 0 -2.22342e+06 77169.1 0 -2.28279e+06 98829.2 0 -2.35725e+06 122199 0 -2.44814e+06 147705 0 -2.55714e+06 175657 0 -2.68626e+06 205894 0 -2.83762e+06 237239 0 -3.01336e+06 265669 0 -3.21341e+06 279309 0 -3.42451e+06 254530 0 -3.61008e+06 164620 0 -3.70137e+06 1.49012e-07 0 -2.1179e+06 0 0 -2.12446e+06 20212.1 0 -2.14352e+06 40736.8 0 -2.17537e+06 61906 0 -2.2205e+06 84088.1 0 -2.27966e+06 107687 0 -2.35386e+06 133151 0 -2.44441e+06 160953 0 -2.55307e+06 191461 0 -2.68191e+06 224541 0 -2.83327e+06 259045 0 -3.00991e+06 290932 0 -3.21338e+06 307545 0 -3.43182e+06 282373 0 -3.62808e+06 184994 0 -3.72992e+06 -3.27826e-07 0 -2.11511e+06 0 0 -2.12165e+06 21871.5 0 -2.14064e+06 44079.9 0 -2.17237e+06 66983.8 0 -2.21733e+06 90982.1 0 -2.27627e+06 116512 0 -2.35017e+06 144061 0 -2.44037e+06 174153 0 -2.54864e+06 207218 0 -2.67717e+06 243161 0 -2.82847e+06 280884 0 -3.00598e+06 316442 0 -3.21302e+06 336515 0 -3.43959e+06 311486 0 -3.64757e+06 207100 0 -3.76276e+06 2.98023e-07 0 -2.11209e+06 0 0 -2.11861e+06 23524.9 0 -2.13753e+06 47410.7 0 -2.16913e+06 72042.4 0 -2.21392e+06 97849.1 0 -2.27261e+06 125302 0 -2.34619e+06 154926 0 -2.436e+06 187299 0 -2.54385e+06 222921 0 -2.67201e+06 261749 0 -2.82319e+06 302747 0 -3.00151e+06 342198 0 -3.21224e+06 366274 0 -3.4478e+06 341984 0 -3.66837e+06 231238 0 -3.80062e+06 -1.19209e-07 0 -2.10886e+06 0 0 -2.11534e+06 25172 0 -2.13419e+06 50728.5 0 -2.16566e+06 77080.2 0 -2.21025e+06 104687 0 -2.26868e+06 134053 0 -2.34192e+06 165742 0 -2.43131e+06 200389 0 -2.5387e+06 238564 0 -2.66646e+06 280300 0 -2.81742e+06 324617 0 -2.99647e+06 368199 0 -3.21088e+06 396876 0 -3.45648e+06 373983 0 -3.69019e+06 257775 0 -3.84454e+06 -2.38419e-07 0 </DataArray> 
</PointData> 
<Points> 
<DataArray type="Float32" NumberOfComponents="3"> 
0 0 0 0.005 0 0 0.01 0 0 0.015 0 0 0.02 0 0 0.025 0 0 0.03 0 0 0.035 0 0 0.04 0 0 0.045 0 0 0.05 0 0 0.055 0 0 0.06 0 0 0.065 0 0 0.07 0 0 0.075 0 0 0 0.000666667 0 0.005 0.000666667 0 0.01 0.000666667 0 0.015 0.000666667 0 0.02 0.000666667 0 0.025 0.000666667 0 0.03 0.000666667 0 0.035 0.000666667 0 0.04 0.000666667 0 0.045 0.000666667 0 0.05 0.000666667 0 0.055 0.000666667 0 0.06 0.000666667 0 0.065 0.000666667 0 0.07 0.000666667 0 0.075 0.000666667 0 0 0.00133333 0 0.005 0.00133333 0 0.01 0.00133333 0 0.015 0.00133333 0 0.02 0.00133333 0 0.025 0.00133333 0 0.03 0.00133333 0 0.035 0.00133333 0 0.04 0.00133333 0 0.045 0.00133333 0 0.05 0.00133333 0 0.055 0.00133333 0 0.06 0.00133333 0 0.065 0.00133333 0 0.07 0.00133333 0 0.075 0.00133333 0 0 0.002 0 0.005 0.002 0 0.01 0.002 0 0.015 0.002 0 0.02 0.002 0 0.025 0.002 0 0.03 0.002 0 0.035 0.002 0 0.04 0.002 0 0.045 0.002 0 0.05 0.002 0 0.055 0.002 0 0.06 0.002 0 0.065 0.002 0 0.07 0.002 0 0.075 0.002 0 0 0.00266667 0 0.005 0.00266667 0 0.01 0.00266667 0 0.015 0.00266667 0 0.02 0.00266667 0 0.025 0.00266667 0 0.03 0.00266667 0 0.035 0.00266667 0 0.04 0.00266667 0 0.045 0.00266667 0 0.05 0.00266667 0 0.055 0.00266667 0 0.06 0.00266667 0 0.065 0.00266667 0 0.07 0.00266667 0 0.075 0.00266667 0 0 0.00333333 0 0.005 0.00333333 0 0.01 0.00333333 0 0.015 0.00333333 0 0.02 0.00333333 0 0.025 0.00333333 0 0.03 0.00333333 0 0.035 0.00333333 0 0.04 0.00333333 0 0.045 0.00333333 0 0.05 0.00333333 0 0.055 0.00333333 0 0.06 0.00333333 0 0.065 0.00333333 0 0.07 0.00333333 0 0.075 0.00333333 0 0 0.004 0 0.005 0.004 0 0.01 0.004 0 0.015 0.004 0 0.02 0.004 0 0.025 0.004 0 0.03 0.004 0 0.035 0.004 0 0.04 0.004 0 0.045 0.004 0 0.05 0.004 0 0.055 0.004 0 0.06 0.004 0 0.065 0.004 0 0.07 0.004 0 0.075 0.004 0 0 0.00466667 0 0.005 0.00466667 0 0.01 0.00466667 0 0.015 0.00466667 0 0.02 0.00466667 0 0.025 0.00466667 0 0.03 0.00466667 0 0.035 0.00466667 0 0.04 0.00466667 0 0.045 0.00466667 0 0.05 0.00466667 0 0.055 0.00466667 0 0.06 0.00466667 0 0.065 0.00466667 0 0.07 0.00466667 0 0.075 0.00466667 0 0 0.00533333 0 0.005 0.00533333 0 0.01 0.00533333 0 0.015 0.00533333 0 0.02 0.00533333 0 0.025 0.00533333 0 0.03 0.00533333 0 0.035 0.00533333 0 0.04 0.00533333 0 0.045 0.00533333 0 0.05 0.00533333 0 0.055 0.00533333 0 0.06 0.00533333 0 0.065 0.00533333 0 0.07 0.00533333 0 0.075 0.00533333 0 0 0.006 0 0.005 0.006 0 0.01 0.006 0 0.015 0.006 0 0.02 0.006 0 0.025 0.006 0 0.03 0.006 0 0.035 0.006 0 0.04 0.006 0 0.045 0.006 0 0.05 0.006 0 0.055 0.006 0 0.06 0.006 0 0.065 0.006 0 0.07 0.006 0 0.075 0.006 0 0 0.00666667 0 0.005 0.00666667 0 0.01 0.00666667 0 0.015 0.00666667 0 0.02 0.00666667 0 0.025 0.00666667 0 0.03 0.00666667 0 0.035 0.00666667 0 0.04 0.00666667 0 0.045 0.00666667 0 0.05 0.00666667 0 0.055 0.00666667 0 0.06 0.00666667 0 0.065 0.00666667 0 0.07 0.00666667 0 0.075 0.00666667 0 0 0.00733333 0 0.005 0.00733333 0 0.01 0.00733333 0 0.015 0.00733333 0 0.02 0.00733333 0 0.025 0.00733333 0 0.03 0.00733333 0 0.035 0.00733333 0 0.04 0.00733333 0 0.045 0.00733333 0 0.05 0.00733333 0 0.055 0.00733333 0 0.06 0.00733333 0 0.065 0.00733333 0 0.07 0.00733333 0 0.075 0.00733333 0 0 0.008 0 0.005 0.008 0 0.01 0.008 0 0.015 0.008 0 0.02 0.008 0 0.025 0.008 0 0.03 0.008 0 0.035 0.008 0 0.04 0.008 0 0.045 0.008 0 0.05 0.008 0 0.055 0.008 0 0.06 0.008 0 0.065 0.008 0 0.07 0.008 0 0.075 0.008 0 0 0.00866667 0 0.005 0.00866667 0 0.01 0.00866667 0 0.015 0.00866667 0 0.02 0.00866667 0 0.025 0.00866667 0 0.03 0.00866667 0 0.035 0.00866667 0 0.04 0.00866667 0 0.045 0.00866667 0 0.05 0.00866667 0 0.055 0.00866667 0 0.06 0.00866667 0 0.065 0.00866667 0 0.07 0.00866667 0 0.075 0.00866667 0 0 0.00933333 0 0.005 0.00933333 0 0.01 0.00933333 0 0.015 0.00933333 0 0.02 0.00933333 0 0.025 0.00933333 0 0.03 0.00933333 0 0.035 0.00933333 0 0.04 0.00933333 0 0.045 0.00933333 0 0.05 0.00933333 0 0.055 0.00933333 0 0.06 0.00933333 0 0.065 0.00933333 0 0.07 0.00933333 0 0.075 0.00933333 0 0 0.01 0 0.005 0.01 0 0.01 0.01 0 0.015 0.01 0 0.02 0.01 0 0.025 0.01 0 0.03 0.01 0 0.035 0.01 0 0.04 0.01 0 0.045 0.01 0 0.05 0.01 0 0.055 0.01 0 0.06 0.01 0 0.065 0.01 0 0.07 0.01 0 0.075 0.01 0 
</DataArray>
</Points> 
</Piece> 
</StructuredGrid> 
</VTKFile> 
