<?xml version="1.0"?> 
<VTKFile type="StructuredGrid" version="0.1"> 
<StructuredGrid WholeExtent="0 15 0 15 0 0"> 
<Piece Extent="0 15 0 15 0 0"> 
<PointData>
<DataArray type="Float32" Name="|E|" format="ascii" NumberOfComponents="3"> 
-867849 0 0 -867102 64884.8 0 -867113 129858 0 -867875 194980 0 -869385 260309 0 -871638 325905 0 -874630 391824 0 -878355 458124 0 -882811 524860 0 -887992 592086 0 -893898 659856 0 -900529 728220 0 -907886 797231 0 -915975 866937 0 -924804 937387 0 -934398 1.00864e+06 0 -812474 0 0 -811792 67694.6 0 -811864 135481 0 -812686 203425 0 -814253 271591 0 -816561 340044 0 -819607 408848 0 -823387 478066 0 -827896 547758 0 -833135 617987 0 -839101 688811 0 -845797 760289 0 -853228 832481 0 -861400 905443 0 -870327 979237 0 -880025 1.05392e+06 0 -756586 0 0 -755968 70499.9 0 -756097 141095 0 -756966 211858 0 -758575 282860 0 -760918 354171 0 -763991 425863 0 -767794 498004 0 -772322 570663 0 -777576 643908 0 -783556 717806 0 -790266 792425 0 -797712 867830 0 -805904 944090 0 -814855 1.02128e+06 0 -824586 1.09946e+06 0 -700221 0 0 -699667 73296.3 0 -699845 146692 0 -700751 220267 0 -702383 294098 0 -704737 368264 0 -707811 442843 0 -711602 517910 0 -716109 593542 0 -721333 669815 0 -727276 746804 0 -733943 824585 0 -741340 903234 0 -749480 982830 0 -758376 1.06345e+06 0 -768048 1.14519e+06 0 -643416 0 0 -642924 76079.8 0 -643144 152264 0 -644074 228639 0 -645710 305291 0 -648051 382304 0 -651093 459765 0 -654836 537757 0 -659280 616366 0 -664425 695674 0 -670274 775766 0 -676835 856728 0 -684113 938646 0 -692122 1.02161e+06 0 -700875 1.10571e+06 0 -710388 1.19106e+06 0 -586208 0 0 -585776 78846.3 0 -586031 157802 0 -586969 236963 0 -588590 316421 0 -590890 396270 0 -593868 476605 0 -597523 557517 0 -601855 639100 0 -606868 721447 0 -612564 804652 0 -618950 888810 0 -626034 974018 0 -633826 1.06038e+06 0 -642339 1.148e+06 0 -651586 1.23698e+06 0 -528633 0 0 -528259 81591.5 0 -528539 163299 0 -529472 245225 0 -531054 327472 0 -533284 410142 0 -536162 493338 0 -539686 577161 0 -543859 661713 0 -548682 747098 0 -554159 833420 0 -560298 920783 0 -567104 1.0093e+06 0 -574589 1.09908e+06 0 -582760 1.19024e+06 0 -591627 1.2829e+06 0 -470728 0 0 -470410 84311.1 0 -470706 168745 0 -471615 253413 0 -473136 338427 0 -475266 423898 0 -478005 509938 0 -481353 596659 0 -485312 684172 0 -489885 772590 0 -495075 862028 0 -500888 952603 0 -507332 1.04443e+06 0 -514412 1.13765e+06 0 -522134 1.23237e+06 0 -530500 1.32874e+06 0 -412529 0 0 -412264 87001 0 -412566 174132 0 -413435 261514 0 -414868 349269 0 -416865 437518 0 -419425 526381 0 -422549 615982 0 -426238 706441 0 -430496 797883 0 -435327 890434 0 -440734 984220 0 -446723 1.07937e+06 0 -453298 1.17603e+06 0 -460460 1.27433e+06 0 -468203 1.37443e+06 0 -354074 0 0 -353858 89656.8 0 -354155 179452 0 -354965 269516 0 -356284 359982 0 -358113 450979 0 -360451 542641 0 -363300 635100 0 -366662 728488 0 -370537 822941 0 -374931 918595 0 -379847 1.01559e+06 0 -385287 1.11407e+06 0 -391253 1.21417e+06 0 -397741 1.31606e+06 0 -404737 1.41988e+06 0 -295398 0 0 -295228 92274.1 0 -295509 184695 0 -296239 277405 0 -297416 370547 0 -299041 464261 0 -301114 558692 0 -303634 653983 0 -306605 750278 0 -310028 847723 0 -313907 946467 0 -318242 1.04666e+06 0 -323036 1.14846e+06 0 -328286 1.25201e+06 0 -333984 1.35749e+06 0 -340110 1.46504e+06 0 -236538 0 0 -236411 94848.7 0 -236663 189854 0 -237293 285169 0 -238299 380948 0 -239682 477343 0 -241441 574509 0 -243578 672602 0 -246094 771777 0 -248991 872193 0 -252271 974009 0 -255935 1.07739e+06 0 -259981 1.18249e+06 0 -264406 1.28949e+06 0 -269199 1.39855e+06 0 -274333 1.50984e+06 0 -177532 0 0 -177444 97376.2 0 -177654 194919 0 -178161 292795 0 -178965 391167 0 -180066 490202 0 -181463 590066 0 -183159 690926 0 -185153 792951 0 -187447 896311 0 -190043 1.00118e+06 0 -192940 1.10773e+06 0 -196137 1.21613e+06 0 -199626 1.32657e+06 0 -203396 1.43921e+06 0 -207420 1.55422e+06 0 -118415 0 0 -118361 99852.2 0 -118516 199883 0 -118878 300269 0 -119448 401188 0 -120225 502817 0 -121210 605336 0 -122404 708925 0 -123806 813765 0 -125419 920039 0 -127242 1.02793e+06 0 -129275 1.13763e+06 0 -131516 1.24932e+06 0 -133958 1.36318e+06 0 -136589 1.47939e+06 0 -139386 1.59812e+06 0 -59225.7 0 0 -59201.3 102273 0 -59286.1 204736 0 -59479.6 307579 0 -59781.9 410993 0 -60192.8 515168 0 -60712.5 620296 0 -61341.5 726571 0 -62080.1 834186 0 -62928.9 943339 0 -63887.8 1.05423e+06 0 -64956.5 1.16705e+06 0 -66132.9 1.282e+06 0 -67412.6 1.39928e+06 0 -68787.6 1.51906e+06 0 -70242.5 1.64152e+06 0 0 0 0 0 104633 0 0 209469 0 0 314712 0 0 420564 0 0 527231 0 0 634918 0 0 743831 0 0 854180 0 0 966173 0 0 1.08002e+06 0 0 1.19594e+06 0 0 1.31414e+06 0 0 1.43482e+06 0 0 1.55817e+06 0 0 1.68436e+06 0 </DataArray> 
</PointData> 
<Points> 
<DataArray type="Float32" NumberOfComponents="3"> 
0 0.08 0 0.00251111 0.0800444 0 0.00502222 0.0800889 0 0.00753333 0.0801333 0 0.0100444 0.0801778 0 0.0125556 0.0802222 0 0.0150667 0.0802667 0 0.0175778 0.0803111 0 0.0200889 0.0803556 0 0.0226 0.0804 0 0.0251111 0.0804444 0 0.0276222 0.0804889 0 0.0301333 0.0805333 0 0.0326444 0.0805778 0 0.0351556 0.0806222 0 0.0376667 0.0806667 0 0 0.0821333 0 0.00259481 0.0821748 0 0.00518963 0.0822163 0 0.00778444 0.0822578 0 0.0103793 0.0822993 0 0.0129741 0.0823407 0 0.0155689 0.0823822 0 0.0181637 0.0824237 0 0.0207585 0.0824652 0 0.0233533 0.0825067 0 0.0259481 0.0825481 0 0.028543 0.0825896 0 0.0311378 0.0826311 0 0.0337326 0.0826726 0 0.0363274 0.0827141 0 0.0389222 0.0827556 0 0 0.0842667 0 0.00267852 0.0843052 0 0.00535704 0.0843437 0 0.00803556 0.0843822 0 0.0107141 0.0844207 0 0.0133926 0.0844593 0 0.0160711 0.0844978 0 0.0187496 0.0845363 0 0.0214281 0.0845748 0 0.0241067 0.0846133 0 0.0267852 0.0846519 0 0.0294637 0.0846904 0 0.0321422 0.0847289 0 0.0348207 0.0847674 0 0.0374993 0.0848059 0 0.0401778 0.0848444 0 0 0.0864 0 0.00276222 0.0864356 0 0.00552444 0.0864711 0 0.00828667 0.0865067 0 0.0110489 0.0865422 0 0.0138111 0.0865778 0 0.0165733 0.0866133 0 0.0193356 0.0866489 0 0.0220978 0.0866844 0 0.02486 0.08672 0 0.0276222 0.0867556 0 0.0303844 0.0867911 0 0.0331467 0.0868267 0 0.0359089 0.0868622 0 0.0386711 0.0868978 0 0.0414333 0.0869333 0 0 0.0885333 0 0.00284593 0.0885659 0 0.00569185 0.0885985 0 0.00853778 0.0886311 0 0.0113837 0.0886637 0 0.0142296 0.0886963 0 0.0170756 0.0887289 0 0.0199215 0.0887615 0 0.0227674 0.0887941 0 0.0256133 0.0888267 0 0.0284593 0.0888593 0 0.0313052 0.0888919 0 0.0341511 0.0889244 0 0.036997 0.088957 0 0.039843 0.0889896 0 0.0426889 0.0890222 0 0 0.0906667 0 0.00292963 0.0906963 0 0.00585926 0.0907259 0 0.00878889 0.0907556 0 0.0117185 0.0907852 0 0.0146481 0.0908148 0 0.0175778 0.0908444 0 0.0205074 0.0908741 0 0.023437 0.0909037 0 0.0263667 0.0909333 0 0.0292963 0.090963 0 0.0322259 0.0909926 0 0.0351556 0.0910222 0 0.0380852 0.0910519 0 0.0410148 0.0910815 0 0.0439444 0.0911111 0 0 0.0928 0 0.00301333 0.0928267 0 0.00602667 0.0928533 0 0.00904 0.09288 0 0.0120533 0.0929067 0 0.0150667 0.0929333 0 0.01808 0.09296 0 0.0210933 0.0929867 0 0.0241067 0.0930133 0 0.02712 0.09304 0 0.0301333 0.0930667 0 0.0331467 0.0930933 0 0.03616 0.09312 0 0.0391733 0.0931467 0 0.0421867 0.0931733 0 0.0452 0.0932 0 0 0.0949333 0 0.00309704 0.094957 0 0.00619407 0.0949807 0 0.00929111 0.0950044 0 0.0123881 0.0950281 0 0.0154852 0.0950519 0 0.0185822 0.0950756 0 0.0216793 0.0950993 0 0.0247763 0.095123 0 0.0278733 0.0951467 0 0.0309704 0.0951704 0 0.0340674 0.0951941 0 0.0371644 0.0952178 0 0.0402615 0.0952415 0 0.0433585 0.0952652 0 0.0464556 0.0952889 0 0 0.0970667 0 0.00318074 0.0970874 0 0.00636148 0.0971081 0 0.00954222 0.0971289 0 0.012723 0.0971496 0 0.0159037 0.0971704 0 0.0190844 0.0971911 0 0.0222652 0.0972119 0 0.0254459 0.0972326 0 0.0286267 0.0972533 0 0.0318074 0.0972741 0 0.0349881 0.0972948 0 0.0381689 0.0973156 0 0.0413496 0.0973363 0 0.0445304 0.097357 0 0.0477111 0.0973778 0 0 0.0992 0 0.00326444 0.0992178 0 0.00652889 0.0992356 0 0.00979333 0.0992533 0 0.0130578 0.0992711 0 0.0163222 0.0992889 0 0.0195867 0.0993067 0 0.0228511 0.0993244 0 0.0261156 0.0993422 0 0.02938 0.09936 0 0.0326444 0.0993778 0 0.0359089 0.0993956 0 0.0391733 0.0994133 0 0.0424378 0.0994311 0 0.0457022 0.0994489 0 0.0489667 0.0994667 0 0 0.101333 0 0.00334815 0.101348 0 0.0066963 0.101363 0 0.0100444 0.101378 0 0.0133926 0.101393 0 0.0167407 0.101407 0 0.0200889 0.101422 0 0.023437 0.101437 0 0.0267852 0.101452 0 0.0301333 0.101467 0 0.0334815 0.101481 0 0.0368296 0.101496 0 0.0401778 0.101511 0 0.0435259 0.101526 0 0.0468741 0.101541 0 0.0502222 0.101556 0 0 0.103467 0 0.00343185 0.103479 0 0.0068637 0.10349 0 0.0102956 0.103502 0 0.0137274 0.103514 0 0.0171593 0.103526 0 0.0205911 0.103538 0 0.024023 0.10355 0 0.0274548 0.103561 0 0.0308867 0.103573 0 0.0343185 0.103585 0 0.0377504 0.103597 0 0.0411822 0.103609 0 0.0446141 0.103621 0 0.0480459 0.103633 0 0.0514778 0.103644 0 0 0.1056 0 0.00351556 0.105609 0 0.00703111 0.105618 0 0.0105467 0.105627 0 0.0140622 0.105636 0 0.0175778 0.105644 0 0.0210933 0.105653 0 0.0246089 0.105662 0 0.0281244 0.105671 0 0.03164 0.10568 0 0.0351556 0.105689 0 0.0386711 0.105698 0 0.0421867 0.105707 0 0.0457022 0.105716 0 0.0492178 0.105724 0 0.0527333 0.105733 0 0 0.107733 0 0.00359926 0.107739 0 0.00719852 0.107745 0 0.0107978 0.107751 0 0.014397 0.107757 0 0.0179963 0.107763 0 0.0215956 0.107769 0 0.0251948 0.107775 0 0.0287941 0.107781 0 0.0323933 0.107787 0 0.0359926 0.107793 0 0.0395919 0.107799 0 0.0431911 0.107804 0 0.0467904 0.10781 0 0.0503896 0.107816 0 0.0539889 0.107822 0 0 0.109867 0 0.00368296 0.10987 0 0.00736593 0.109873 0 0.0110489 0.109876 0 0.0147319 0.109879 0 0.0184148 0.109881 0 0.0220978 0.109884 0 0.0257807 0.109887 0 0.0294637 0.10989 0 0.0331467 0.109893 0 0.0368296 0.109896 0 0.0405126 0.109899 0 0.0441956 0.109902 0 0.0478785 0.109905 0 0.0515615 0.109908 0 0.0552444 0.109911 0 0 0.112 0 0.00376667 0.112 0 0.00753333 0.112 0 0.0113 0.112 0 0.0150667 0.112 0 0.0188333 0.112 0 0.0226 0.112 0 0.0263667 0.112 0 0.0301333 0.112 0 0.0339 0.112 0 0.0376667 0.112 0 0.0414333 0.112 0 0.0452 0.112 0 0.0489667 0.112 0 0.0527333 0.112 0 0.0565 0.112 0 
</DataArray>
</Points> 
</Piece> 
</StructuredGrid> 
</VTKFile> 
