<?xml version="1.0"?> 
<VTKFile type="StructuredGrid" version="0.1"> 
<StructuredGrid WholeExtent="0 15 0 15 0 0"> 
<Piece Extent="0 15 0 15 0 0"> 
<PointData>
<DataArray type="Float32" Name="|E|" format="ascii" NumberOfComponents="3"> 
1.07109e+06 -445403 0 1.4756e+06 -277237 0 1.62459e+06 -203869 0 1.72997e+06 -120261 0 1.77203e+06 -43693.3 0 1.77172e+06 19259.7 0 1.73621e+06 67257.1 0 1.67707e+06 100477 0 1.60267e+06 121509 0 1.5198e+06 132987 0 1.43328e+06 137498 0 1.3465e+06 137093 0 1.26174e+06 133359 0 1.18049e+06 127449 0 1.10367e+06 120190 0 1.03184e+06 112132 0 1.13354e+06 -471373 0 1.4885e+06 -300761 0 1.6414e+06 -214439 0 1.74161e+06 -124418 0 1.78096e+06 -42895.5 0 1.7772e+06 23855.8 0 1.73897e+06 74334.1 0 1.67768e+06 109112 0 1.60176e+06 130955 0 1.51789e+06 142749 0 1.43079e+06 147229 0 1.34372e+06 146565 0 1.25887e+06 142425 0 1.17765e+06 136018 0 1.10096e+06 128207 0 1.0293e+06 119579 0 1.18842e+06 -494196 0 1.50461e+06 -322074 0 1.65842e+06 -224417 0 1.75392e+06 -127986 0 1.79021e+06 -41528.2 0 1.78291e+06 28913.2 0 1.74186e+06 81773.8 0 1.67834e+06 118000 0 1.60086e+06 140571 0 1.51597e+06 152615 0 1.42826e+06 157015 0 1.34089e+06 156061 0 1.25593e+06 151493 0 1.17476e+06 144576 0 1.09818e+06 136207 0 1.02669e+06 127002 0 1.23749e+06 -514599 0 1.5231e+06 -341487 0 1.67579e+06 -233748 0 1.76684e+06 -130945 0 1.79977e+06 -39579.3 0 1.78885e+06 34444.3 0 1.74485e+06 89581.3 0 1.67904e+06 127145 0 1.59996e+06 150358 0 1.51403e+06 162584 0 1.4257e+06 166859 0 1.338e+06 165581 0 1.25294e+06 160565 0 1.17179e+06 153123 0 1.09534e+06 144189 0 1.02401e+06 134401 0 1.28206e+06 -533133 0 1.54338e+06 -359225 0 1.69359e+06 -242397 0 1.78032e+06 -133272 0 1.80964e+06 -37036.1 0 1.79499e+06 40460.7 0 1.74794e+06 97761.9 0 1.67978e+06 136552 0 1.59906e+06 160317 0 1.51205e+06 172659 0 1.42308e+06 176760 0 1.33506e+06 175126 0 1.24989e+06 169640 0 1.16877e+06 161661 0 1.09243e+06 152152 0 1.02127e+06 141777 0 1.32317e+06 -550228 0 1.56504e+06 -375483 0 1.71188e+06 -250339 0 1.79435e+06 -134947 0 1.81982e+06 -33884.3 0 1.80131e+06 46973.7 0 1.75111e+06 106320 0 1.68054e+06 146221 0 1.59814e+06 170449 0 1.51004e+06 182838 0 1.42042e+06 186719 0 1.33206e+06 184696 0 1.24677e+06 178718 0 1.16568e+06 170188 0 1.08945e+06 160097 0 1.01846e+06 149129 0 1.36161e+06 -566216 0 1.5878e+06 -390418 0 1.73069e+06 -257555 0 1.80889e+06 -135949 0 1.83028e+06 -30109 0 1.8078e+06 53994.1 0 1.75434e+06 115262 0 1.68131e+06 156156 0 1.59719e+06 180756 0 1.50798e+06 193124 0 1.4177e+06 196734 0 1.329e+06 194290 0 1.24359e+06 187798 0 1.16252e+06 178704 0 1.08641e+06 168023 0 1.01559e+06 156458 0 1.39804e+06 -581364 0 1.61143e+06 -404157 0 1.75003e+06 -264033 0 1.82393e+06 -136257 0 1.84102e+06 -25694.5 0 1.81443e+06 61532.4 0 1.75761e+06 124590 0 1.68207e+06 166359 0 1.59621e+06 191237 0 1.50586e+06 203514 0 1.41491e+06 206807 0 1.32587e+06 203908 0 1.24034e+06 196882 0 1.15929e+06 187209 0 1.0833e+06 175930 0 1.01265e+06 163764 0 1.43297e+06 -595891 0 1.6358e+06 -416800 0 1.76992e+06 -269767 0 1.83945e+06 -135848 0 1.85203e+06 -20624.4 0 1.82119e+06 69598.8 0 1.76092e+06 134308 0 1.6828e+06 176831 0 1.59517e+06 201892 0 1.50369e+06 214010 0 1.41206e+06 216937 0 1.32267e+06 213550 0 1.23702e+06 205968 0 1.156e+06 195703 0 1.08012e+06 183818 0 1.00965e+06 171045 0 1.46685e+06 -609979 0 1.6608e+06 -428421 0 1.79036e+06 -274751 0 1.85545e+06 -134701 0 1.86329e+06 -14881.9 0 1.82805e+06 78203 0 1.76424e+06 144421 0 1.68351e+06 187572 0 1.59409e+06 212721 0 1.50145e+06 224610 0 1.40914e+06 227122 0 1.31941e+06 223215 0 1.23363e+06 215055 0 1.15263e+06 204185 0 1.07688e+06 191686 0 1.00657e+06 178303 0 1.50007e+06 -623792 0 1.68636e+06 -439074 0 1.81137e+06 -278983 0 1.87189e+06 -132788 0 1.87477e+06 -8449.91 0 1.83499e+06 87354.3 0 1.76755e+06 154931 0 1.68416e+06 198583 0 1.59293e+06 223724 0 1.49914e+06 235313 0 1.40615e+06 237362 0 1.31606e+06 232903 0 1.23016e+06 224144 0 1.14919e+06 212655 0 1.07356e+06 199534 0 1.00343e+06 185536 0 1.533e+06 -637483 0 1.7124e+06 -448788 0 1.83296e+06 -282465 0 1.88878e+06 -130083 0 1.88645e+06 -1310.76 0 1.842e+06 97061.4 0 1.77084e+06 165840 0 1.68476e+06 209865 0 1.5917e+06 234898 0 1.49674e+06 246119 0 1.40307e+06 247657 0 1.31264e+06 242612 0 1.22662e+06 233233 0 1.14568e+06 221112 0 1.07017e+06 207361 0 1.00022e+06 192744 0 1.56599e+06 -651204 0 1.73885e+06 -457568 0 1.85517e+06 -285201 0 1.9061e+06 -126554 0 1.89833e+06 6553.61 0 1.84904e+06 107332 0 1.77408e+06 177150 0 1.68528e+06 221415 0 1.59038e+06 246242 0 1.49426e+06 257025 0 1.39991e+06 258003 0 1.30913e+06 252342 0 1.223e+06 242322 0 1.14209e+06 229555 0 1.0667e+06 215167 0 996935 199927 0 1.59945e+06 -665117 0 1.7656e+06 -465398 0 1.87804e+06 -287200 0 1.9238e+06 -122169 0 1.91037e+06 15162.5 0 1.8561e+06 118171 0 1.77726e+06 188864 0 1.68571e+06 233232 0 1.58896e+06 257754 0 1.49168e+06 268029 0 1.39666e+06 268401 0 1.30554e+06 262092 0 1.21929e+06 251409 0 1.13842e+06 237985 0 1.06317e+06 222952 0 993583 207084 0 1.63382e+06 -679411 0 1.7925e+06 -472232 0 1.90168e+06 -288476 0 1.94186e+06 -116889 0 1.92256e+06 24536.8 0 1.86313e+06 129583 0 1.78036e+06 200985 0 1.68603e+06 245313 0 1.58744e+06 269434 0 1.48901e+06 279130 0 1.39331e+06 278849 0 1.30187e+06 271859 0 1.21551e+06 260495 0 1.13468e+06 246400 0 1.05956e+06 230714 0 990161 214214 0 1.66965e+06 -694311 0 1.81934e+06 -477997 0 1.92622e+06 -289045 0 1.96018e+06 -110679 0 1.93491e+06 34704.1 0 1.87011e+06 141561 0 1.78337e+06 213519 0 1.68624e+06 257648 0 1.58581e+06 281281 0 1.48622e+06 290323 0 1.38987e+06 289345 0 1.2981e+06 281643 0 1.21164e+06 269578 0 1.13086e+06 254799 0 1.05588e+06 238454 0 986667 221318 0 </DataArray> 
</PointData> 
<Points> 
<DataArray type="Float32" NumberOfComponents="3"> 
0.1905 0.0099 0 0.196583 0.0099 0 0.202667 0.0099 0 0.20875 0.0099 0 0.214833 0.0099 0 0.220917 0.0099 0 0.227 0.0099 0 0.233083 0.0099 0 0.239167 0.0099 0 0.24525 0.0099 0 0.251333 0.0099 0 0.257417 0.0099 0 0.2635 0.0099 0 0.269583 0.0099 0 0.275667 0.0099 0 0.28175 0.0099 0 0.19078 0.0105733 0 0.196854 0.0105733 0 0.202928 0.0105733 0 0.209002 0.0105733 0 0.215076 0.0105733 0 0.22115 0.0105733 0 0.227224 0.0105733 0 0.233298 0.0105733 0 0.239372 0.0105733 0 0.245446 0.0105733 0 0.25152 0.0105733 0 0.257594 0.0105733 0 0.263668 0.0105733 0 0.269742 0.0105733 0 0.275816 0.0105733 0 0.28189 0.0105733 0 0.19106 0.0112467 0 0.197125 0.0112467 0 0.203189 0.0112467 0 0.209254 0.0112467 0 0.215319 0.0112467 0 0.221383 0.0112467 0 0.227448 0.0112467 0 0.233513 0.0112467 0 0.239577 0.0112467 0 0.245642 0.0112467 0 0.251707 0.0112467 0 0.257771 0.0112467 0 0.263836 0.0112467 0 0.269901 0.0112467 0 0.275965 0.0112467 0 0.28203 0.0112467 0 0.19134 0.01192 0 0.197395 0.01192 0 0.203451 0.01192 0 0.209506 0.01192 0 0.215561 0.01192 0 0.221617 0.01192 0 0.227672 0.01192 0 0.233727 0.01192 0 0.239783 0.01192 0 0.245838 0.01192 0 0.251893 0.01192 0 0.257949 0.01192 0 0.264004 0.01192 0 0.270059 0.01192 0 0.276115 0.01192 0 0.28217 0.01192 0 0.19162 0.0125933 0 0.197666 0.0125933 0 0.203712 0.0125933 0 0.209758 0.0125933 0 0.215804 0.0125933 0 0.22185 0.0125933 0 0.227896 0.0125933 0 0.233942 0.0125933 0 0.239988 0.0125933 0 0.246034 0.0125933 0 0.25208 0.0125933 0 0.258126 0.0125933 0 0.264172 0.0125933 0 0.270218 0.0125933 0 0.276264 0.0125933 0 0.28231 0.0125933 0 0.1919 0.0132667 0 0.197937 0.0132667 0 0.203973 0.0132667 0 0.21001 0.0132667 0 0.216047 0.0132667 0 0.222083 0.0132667 0 0.22812 0.0132667 0 0.234157 0.0132667 0 0.240193 0.0132667 0 0.24623 0.0132667 0 0.252267 0.0132667 0 0.258303 0.0132667 0 0.26434 0.0132667 0 0.270377 0.0132667 0 0.276413 0.0132667 0 0.28245 0.0132667 0 0.19218 0.01394 0 0.198207 0.01394 0 0.204235 0.01394 0 0.210262 0.01394 0 0.216289 0.01394 0 0.222317 0.01394 0 0.228344 0.01394 0 0.234371 0.01394 0 0.240399 0.01394 0 0.246426 0.01394 0 0.252453 0.01394 0 0.258481 0.01394 0 0.264508 0.01394 0 0.270535 0.01394 0 0.276563 0.01394 0 0.28259 0.01394 0 0.19246 0.0146133 0 0.198478 0.0146133 0 0.204496 0.0146133 0 0.210514 0.0146133 0 0.216532 0.0146133 0 0.22255 0.0146133 0 0.228568 0.0146133 0 0.234586 0.0146133 0 0.240604 0.0146133 0 0.246622 0.0146133 0 0.25264 0.0146133 0 0.258658 0.0146133 0 0.264676 0.0146133 0 0.270694 0.0146133 0 0.276712 0.0146133 0 0.28273 0.0146133 0 0.19274 0.0152867 0 0.198749 0.0152867 0 0.204757 0.0152867 0 0.210766 0.0152867 0 0.216775 0.0152867 0 0.222783 0.0152867 0 0.228792 0.0152867 0 0.234801 0.0152867 0 0.240809 0.0152867 0 0.246818 0.0152867 0 0.252827 0.0152867 0 0.258835 0.0152867 0 0.264844 0.0152867 0 0.270853 0.0152867 0 0.276861 0.0152867 0 0.28287 0.0152867 0 0.19302 0.01596 0 0.199019 0.01596 0 0.205019 0.01596 0 0.211018 0.01596 0 0.217017 0.01596 0 0.223017 0.01596 0 0.229016 0.01596 0 0.235015 0.01596 0 0.241015 0.01596 0 0.247014 0.01596 0 0.253013 0.01596 0 0.259013 0.01596 0 0.265012 0.01596 0 0.271011 0.01596 0 0.277011 0.01596 0 0.28301 0.01596 0 0.1933 0.0166333 0 0.19929 0.0166333 0 0.20528 0.0166333 0 0.21127 0.0166333 0 0.21726 0.0166333 0 0.22325 0.0166333 0 0.22924 0.0166333 0 0.23523 0.0166333 0 0.24122 0.0166333 0 0.24721 0.0166333 0 0.2532 0.0166333 0 0.25919 0.0166333 0 0.26518 0.0166333 0 0.27117 0.0166333 0 0.27716 0.0166333 0 0.28315 0.0166333 0 0.19358 0.0173067 0 0.199561 0.0173067 0 0.205541 0.0173067 0 0.211522 0.0173067 0 0.217503 0.0173067 0 0.223483 0.0173067 0 0.229464 0.0173067 0 0.235445 0.0173067 0 0.241425 0.0173067 0 0.247406 0.0173067 0 0.253387 0.0173067 0 0.259367 0.0173067 0 0.265348 0.0173067 0 0.271329 0.0173067 0 0.277309 0.0173067 0 0.28329 0.0173067 0 0.19386 0.01798 0 0.199831 0.01798 0 0.205803 0.01798 0 0.211774 0.01798 0 0.217745 0.01798 0 0.223717 0.01798 0 0.229688 0.01798 0 0.235659 0.01798 0 0.241631 0.01798 0 0.247602 0.01798 0 0.253573 0.01798 0 0.259545 0.01798 0 0.265516 0.01798 0 0.271487 0.01798 0 0.277459 0.01798 0 0.28343 0.01798 0 0.19414 0.0186533 0 0.200102 0.0186533 0 0.206064 0.0186533 0 0.212026 0.0186533 0 0.217988 0.0186533 0 0.22395 0.0186533 0 0.229912 0.0186533 0 0.235874 0.0186533 0 0.241836 0.0186533 0 0.247798 0.0186533 0 0.25376 0.0186533 0 0.259722 0.0186533 0 0.265684 0.0186533 0 0.271646 0.0186533 0 0.277608 0.0186533 0 0.28357 0.0186533 0 0.19442 0.0193267 0 0.200373 0.0193267 0 0.206325 0.0193267 0 0.212278 0.0193267 0 0.218231 0.0193267 0 0.224183 0.0193267 0 0.230136 0.0193267 0 0.236089 0.0193267 0 0.242041 0.0193267 0 0.247994 0.0193267 0 0.253947 0.0193267 0 0.259899 0.0193267 0 0.265852 0.0193267 0 0.271805 0.0193267 0 0.277757 0.0193267 0 0.28371 0.0193267 0 0.1947 0.02 0 0.200643 0.02 0 0.206587 0.02 0 0.21253 0.02 0 0.218473 0.02 0 0.224417 0.02 0 0.23036 0.02 0 0.236303 0.02 0 0.242247 0.02 0 0.24819 0.02 0 0.254133 0.02 0 0.260077 0.02 0 0.26602 0.02 0 0.271963 0.02 0 0.277907 0.02 0 0.28385 0.02 0 
</DataArray>
</Points> 
</Piece> 
</StructuredGrid> 
</VTKFile> 
