<?xml version="1.0"?> 
<VTKFile type="StructuredGrid" version="0.1"> 
<StructuredGrid WholeExtent="0 16 0 16 0 0"> 
<Piece Extent="0 16 0 16 0 0"> 
<CellData>
<DataArray type="Float32" Name="err_h1" format="ascii" NumberOfComponents="1"> 
235.108 179.5 181.392 154.776 125.272 109.326 90.7114 83.2219 77.1845 74.2071 79.4626 81.8642 95.9135 113.573 122.99 182.911 41.1914 76.2783 96.7975 54.0371 72.4635 40.1305 55.1778 34.6679 46.31 31.2342 41.6152 32.9665 36.8682 52.1823 12.0831 92.1112 38.5085 52.7751 48.52 55.2108 59.9537 64.8392 59.9559 64.6424 56.1846 63.1572 53.7119 65.4736 52.2556 73.327 37.5428 77.0452 10.0959 27.0777 15.4293 23.6582 29.8632 21.8145 35.4878 18.8364 34.3383 18.7001 30.7161 24.3924 24.3105 38.4908 7.30765 56.1175 5.93712 18.3792 17.655 24.7839 28.8556 32.8551 34.1751 40.197 34.8419 44.2633 32.9304 47.0667 28.3936 50.1566 16.8378 51.1 2.5451 14.9192 8.13203 15.7942 11.9774 13.5344 17.1121 9.75529 20.4401 8.60034 20.6365 15.7636 17.6607 28.0649 10.3619 40.9837 1.94872 9.3447 7.14686 10.7476 13.1758 15.807 18.6224 22.1301 20.9155 27.897 20.2209 32.4274 17.135 36.1609 10.7667 38.8219 0.857518 7.7721 2.77069 9.62889 5.83107 9.59643 8.6059 7.10338 11.4579 3.52271 13.3151 9.13206 13.2668 20.0572 10.8643 32.0152 0.76861 4.55128 3.27192 5.32305 6.62312 7.58799 9.84724 11.5152 12.1769 16.3716 12.48 21.4867 10.8603 26.386 8.27781 30.67 0.450031 4.08434 1.00713 5.53743 2.32509 6.25052 4.22057 5.36624 6.51924 2.47816 8.83512 4.68156 9.85936 14.066 9.72575 25.3673 0.419204 2.37118 1.64586 2.71986 3.40705 3.71213 5.38077 5.8217 6.96426 9.21616 7.51687 13.5953 6.74813 19.1427 6.24684 24.3316 0.253038 2.23069 0.338444 3.21139 0.862787 3.95285 1.78045 3.81599 3.26863 1.92442 5.97131 2.01803 8.18677 9.54195 7.9232 19.9342 0.275574 1.35397 0.893815 1.54651 1.86931 1.9275 3.05234 2.89017 4.08111 4.86155 4.60853 8.5621 4.65257 13.4786 4.00071 19.1941 0.196597 1.30657 0.13544 1.94586 0.281622 2.57436 0.680881 2.78278 1.4558 1.8056 2.94646 2.13222 7.77058 5.70323 7.22395 15.5956 0.284332 0.852141 0.549005 0.998069 1.09313 1.15655 1.84159 1.50931 2.54433 2.453 2.77273 4.54495 4.66255 9.98458 4.80538 15.7908 0.326666 0.792101 0.173868 1.22881 0.0827864 1.73656 0.235244 2.10386 0.620257 1.79034 1.51158 0.556128 3.64217 8.99466 17.8259 15.2819 
</DataArray> 
</CellData> 
<Points> 
<DataArray type="Float32" NumberOfComponents="3"> 
0.0075 0.0125 0 0.0075 0.0132812 0 0.0075 0.0140625 0 0.0075 0.0148438 0 0.0075 0.015625 0 0.0075 0.0164063 0 0.0075 0.0171875 0 0.0075 0.0179688 0 0.0075 0.01875 0 0.0075 0.0195312 0 0.0075 0.0203125 0 0.0075 0.0210938 0 0.0075 0.021875 0 0.0075 0.0226563 0 0.0075 0.0234375 0 0.0075 0.0242188 0 0.0075 0.025 0 0.00937 0.0125 0 0.00929219 0.0132812 0 0.00921438 0.0140625 0 0.00913656 0.0148438 0 0.00905875 0.015625 0 0.00898094 0.0164063 0 0.00890313 0.0171875 0 0.00882531 0.0179688 0 0.0087475 0.01875 0 0.00866969 0.0195312 0 0.00859188 0.0203125 0 0.00851406 0.0210938 0 0.00843625 0.021875 0 0.00835844 0.0226563 0 0.00828062 0.0234375 0 0.00820281 0.0242188 0 0.008125 0.025 0 0.01124 0.0125 0 0.0110844 0.0132812 0 0.0109288 0.0140625 0 0.0107731 0.0148438 0 0.0106175 0.015625 0 0.0104619 0.0164063 0 0.0103062 0.0171875 0 0.0101506 0.0179688 0 0.009995 0.01875 0 0.00983938 0.0195312 0 0.00968375 0.0203125 0 0.00952813 0.0210938 0 0.0093725 0.021875 0 0.00921688 0.0226563 0 0.00906125 0.0234375 0 0.00890563 0.0242188 0 0.00875 0.025 0 0.01311 0.0125 0 0.0128766 0.0132812 0 0.0126431 0.0140625 0 0.0124097 0.0148438 0 0.0121763 0.015625 0 0.0119428 0.0164063 0 0.0117094 0.0171875 0 0.0114759 0.0179688 0 0.0112425 0.01875 0 0.0110091 0.0195312 0 0.0107756 0.0203125 0 0.0105422 0.0210938 0 0.0103088 0.021875 0 0.0100753 0.0226563 0 0.00984188 0.0234375 0 0.00960844 0.0242188 0 0.009375 0.025 0 0.01498 0.0125 0 0.0146688 0.0132812 0 0.0143575 0.0140625 0 0.0140462 0.0148438 0 0.013735 0.015625 0 0.0134238 0.0164063 0 0.0131125 0.0171875 0 0.0128013 0.0179688 0 0.01249 0.01875 0 0.0121788 0.0195312 0 0.0118675 0.0203125 0 0.0115563 0.0210938 0 0.011245 0.021875 0 0.0109338 0.0226563 0 0.0106225 0.0234375 0 0.0103112 0.0242188 0 0.01 0.025 0 0.01685 0.0125 0 0.0164609 0.0132812 0 0.0160719 0.0140625 0 0.0156828 0.0148438 0 0.0152937 0.015625 0 0.0149047 0.0164063 0 0.0145156 0.0171875 0 0.0141266 0.0179688 0 0.0137375 0.01875 0 0.0133484 0.0195312 0 0.0129594 0.0203125 0 0.0125703 0.0210938 0 0.0121813 0.021875 0 0.0117922 0.0226563 0 0.0114031 0.0234375 0 0.0110141 0.0242188 0 0.010625 0.025 0 0.01872 0.0125 0 0.0182531 0.0132812 0 0.0177862 0.0140625 0 0.0173194 0.0148438 0 0.0168525 0.015625 0 0.0163856 0.0164063 0 0.0159188 0.0171875 0 0.0154519 0.0179688 0 0.014985 0.01875 0 0.0145181 0.0195312 0 0.0140512 0.0203125 0 0.0135844 0.0210938 0 0.0131175 0.021875 0 0.0126506 0.0226563 0 0.0121838 0.0234375 0 0.0117169 0.0242188 0 0.01125 0.025 0 0.02059 0.0125 0 0.0200453 0.0132812 0 0.0195006 0.0140625 0 0.0189559 0.0148438 0 0.0184113 0.015625 0 0.0178666 0.0164063 0 0.0173219 0.0171875 0 0.0167772 0.0179688 0 0.0162325 0.01875 0 0.0156878 0.0195312 0 0.0151431 0.0203125 0 0.0145984 0.0210938 0 0.0140538 0.021875 0 0.0135091 0.0226563 0 0.0129644 0.0234375 0 0.0124197 0.0242188 0 0.011875 0.025 0 0.02246 0.0125 0 0.0218375 0.0132812 0 0.021215 0.0140625 0 0.0205925 0.0148438 0 0.01997 0.015625 0 0.0193475 0.0164063 0 0.018725 0.0171875 0 0.0181025 0.0179688 0 0.01748 0.01875 0 0.0168575 0.0195312 0 0.016235 0.0203125 0 0.0156125 0.0210938 0 0.01499 0.021875 0 0.0143675 0.0226563 0 0.013745 0.0234375 0 0.0131225 0.0242188 0 0.0125 0.025 0 0.02433 0.0125 0 0.0236297 0.0132812 0 0.0229294 0.0140625 0 0.0222291 0.0148438 0 0.0215287 0.015625 0 0.0208284 0.0164063 0 0.0201281 0.0171875 0 0.0194278 0.0179688 0 0.0187275 0.01875 0 0.0180272 0.0195312 0 0.0173269 0.0203125 0 0.0166266 0.0210938 0 0.0159263 0.021875 0 0.0152259 0.0226563 0 0.0145256 0.0234375 0 0.0138253 0.0242188 0 0.013125 0.025 0 0.0262 0.0125 0 0.0254219 0.0132812 0 0.0246438 0.0140625 0 0.0238656 0.0148438 0 0.0230875 0.015625 0 0.0223094 0.0164063 0 0.0215313 0.0171875 0 0.0207531 0.0179688 0 0.019975 0.01875 0 0.0191969 0.0195312 0 0.0184188 0.0203125 0 0.0176406 0.0210938 0 0.0168625 0.021875 0 0.0160844 0.0226563 0 0.0153063 0.0234375 0 0.0145281 0.0242188 0 0.01375 0.025 0 0.02807 0.0125 0 0.0272141 0.0132812 0 0.0263581 0.0140625 0 0.0255022 0.0148438 0 0.0246463 0.015625 0 0.0237903 0.0164063 0 0.0229344 0.0171875 0 0.0220784 0.0179688 0 0.0212225 0.01875 0 0.0203666 0.0195312 0 0.0195106 0.0203125 0 0.0186547 0.0210938 0 0.0177988 0.021875 0 0.0169428 0.0226563 0 0.0160869 0.0234375 0 0.0152309 0.0242188 0 0.014375 0.025 0 0.02994 0.0125 0 0.0290063 0.0132812 0 0.0280725 0.0140625 0 0.0271387 0.0148438 0 0.026205 0.015625 0 0.0252713 0.0164063 0 0.0243375 0.0171875 0 0.0234038 0.0179688 0 0.02247 0.01875 0 0.0215362 0.0195312 0 0.0206025 0.0203125 0 0.0196687 0.0210938 0 0.018735 0.021875 0 0.0178013 0.0226563 0 0.0168675 0.0234375 0 0.0159337 0.0242188 0 0.015 0.025 0 0.03181 0.0125 0 0.0307984 0.0132812 0 0.0297869 0.0140625 0 0.0287753 0.0148438 0 0.0277637 0.015625 0 0.0267522 0.0164063 0 0.0257406 0.0171875 0 0.0247291 0.0179688 0 0.0237175 0.01875 0 0.0227059 0.0195312 0 0.0216944 0.0203125 0 0.0206828 0.0210938 0 0.0196713 0.021875 0 0.0186597 0.0226563 0 0.0176481 0.0234375 0 0.0166366 0.0242188 0 0.015625 0.025 0 0.03368 0.0125 0 0.0325906 0.0132812 0 0.0315013 0.0140625 0 0.0304119 0.0148438 0 0.0293225 0.015625 0 0.0282331 0.0164063 0 0.0271438 0.0171875 0 0.0260544 0.0179688 0 0.024965 0.01875 0 0.0238756 0.0195312 0 0.0227863 0.0203125 0 0.0216969 0.0210938 0 0.0206075 0.021875 0 0.0195181 0.0226563 0 0.0184288 0.0234375 0 0.0173394 0.0242188 0 0.01625 0.025 0 0.03555 0.0125 0 0.0343828 0.0132812 0 0.0332156 0.0140625 0 0.0320484 0.0148438 0 0.0308812 0.015625 0 0.0297141 0.0164063 0 0.0285469 0.0171875 0 0.0273797 0.0179688 0 0.0262125 0.01875 0 0.0250453 0.0195312 0 0.0238781 0.0203125 0 0.0227109 0.0210938 0 0.0215438 0.021875 0 0.0203766 0.0226563 0 0.0192094 0.0234375 0 0.0180422 0.0242188 0 0.016875 0.025 0 0.03742 0.0125 0 0.036175 0.0132812 0 0.03493 0.0140625 0 0.033685 0.0148438 0 0.03244 0.015625 0 0.031195 0.0164063 0 0.02995 0.0171875 0 0.028705 0.0179688 0 0.02746 0.01875 0 0.026215 0.0195312 0 0.02497 0.0203125 0 0.023725 0.0210938 0 0.02248 0.021875 0 0.021235 0.0226563 0 0.01999 0.0234375 0 0.018745 0.0242188 0 0.0175 0.025 0 
</DataArray>
</Points> 
</Piece> 
</StructuredGrid> 
</VTKFile> 
