<?xml version="1.0"?> 
<VTKFile type="StructuredGrid" version="0.1"> 
<StructuredGrid WholeExtent="0 16 0 16 0 0"> 
<Piece Extent="0 16 0 16 0 0"> 
<CellData>
<DataArray type="Float32" Name="err_h1" format="ascii" NumberOfComponents="1"> 
8.51539 8.52333 8.53811 8.56181 8.59108 8.63022 8.67343 8.72749 8.7839 8.85225 8.92096 9.0029 9.08269 9.177 9.26493 9.36769 7.72108 7.725 7.72791 7.73956 7.74481 7.76389 7.77042 7.79644 7.80277 7.83509 7.83933 7.87707 7.87657 7.91772 7.90708 7.94448 8.52121 8.5401 8.56587 8.62262 8.67341 8.76824 8.84249 8.97553 9.07086 9.24182 9.35526 9.56359 9.69339 9.94078 10.0938 10.3952 6.56409 6.57308 6.56608 6.59336 6.5771 6.62358 6.59346 6.66035 6.60956 6.69807 6.61828 6.72995 6.61499 6.75545 6.6145 6.81096 7.16609 7.19912 7.23813 7.33782 7.41355 7.58185 7.69047 7.93103 8.06817 8.38626 8.54674 8.94706 9.11922 9.59577 9.73923 10.242 5.22253 5.24249 5.25578 5.3165 5.33643 5.44071 5.45541 5.60888 5.60238 5.81403 5.76236 6.04237 5.89181 6.23897 5.84275 6.19604 4.00573 4.04493 4.1475 4.264 4.45201 4.64359 4.88986 5.1556 5.43215 5.7754 6.06452 6.50109 6.81795 7.40274 7.86122 8.76804 3.53654 3.55259 3.75174 3.79637 4.14848 4.214 4.65171 4.73094 5.19318 5.28331 5.75359 5.86379 6.47307 6.64853 7.97654 8.34586 0.799438 0.681978 1.50818 1.30031 2.33415 2.06835 3.18988 2.85874 4.03511 3.64022 4.82298 4.38334 5.49024 5.02022 6.07573 5.67183 0.953548 0.811881 1.88549 1.63263 3.06457 2.72898 4.44357 4.01057 5.96857 5.42742 7.38445 6.72484 7.93968 7.11261 5.96247 4.73214 3.30712 3.38502 3.78775 3.99811 4.80373 5.10232 6.33669 6.66726 8.35452 8.58366 10.6679 10.4398 12.7048 11.2128 13.7055 10.275 4.17656 4.17742 4.09978 4.08621 3.98604 3.90102 3.97233 3.67057 4.56881 3.70935 7.20539 5.51331 14.5594 12.344 31.1322 28.0814 1.5006 1.96524 1.31211 2.52204 1.48627 2.97294 1.80658 2.99879 2.45569 2.96429 5.97915 8.05471 16.5204 22.9872 39.292 51.0876 12.9974 13.1552 12.9657 13.4278 12.9307 13.6378 12.6201 13.3573 11.8073 11.8666 12.2951 10.178 23.9376 24.3487 63.5274 82.9191 8.82741 9.05977 8.43251 9.35093 7.92397 10.3969 8.28039 14.0808 13.0787 24.1528 27.9446 47.8974 63.6845 103.423 150.6 241.868 20.6827 21.0679 21.7011 22.9654 24.3926 26.9159 29.5508 34.1893 38.965 47.5721 56.6495 73.3972 92.1026 127.022 169.435 248.565 
</DataArray> 
</CellData> 
<Points> 
<DataArray type="Float32" NumberOfComponents="3"> 
-0.05 0 0 -0.05 0.00078125 0 -0.05 0.0015625 0 -0.05 0.00234375 0 -0.05 0.003125 0 -0.05 0.00390625 0 -0.05 0.0046875 0 -0.05 0.00546875 0 -0.05 0.00625 0 -0.05 0.00703125 0 -0.05 0.0078125 0 -0.05 0.00859375 0 -0.05 0.009375 0 -0.05 0.0101563 0 -0.05 0.0109375 0 -0.05 0.0117188 0 -0.05 0.0125 0 -0.0464063 0 0 -0.0464063 0.00078125 0 -0.0464063 0.0015625 0 -0.0464062 0.00234375 0 -0.0464063 0.003125 0 -0.0464063 0.00390625 0 -0.0464063 0.0046875 0 -0.0464063 0.00546875 0 -0.0464063 0.00625 0 -0.0464063 0.00703125 0 -0.0464063 0.0078125 0 -0.0464063 0.00859375 0 -0.0464063 0.009375 0 -0.0464062 0.0101563 0 -0.0464063 0.0109375 0 -0.0464063 0.0117188 0 -0.0464063 0.0125 0 -0.0428125 0 0 -0.0428125 0.00078125 0 -0.0428125 0.0015625 0 -0.0428125 0.00234375 0 -0.0428125 0.003125 0 -0.0428125 0.00390625 0 -0.0428125 0.0046875 0 -0.0428125 0.00546875 0 -0.0428125 0.00625 0 -0.0428125 0.00703125 0 -0.0428125 0.0078125 0 -0.0428125 0.00859375 0 -0.0428125 0.009375 0 -0.0428125 0.0101563 0 -0.0428125 0.0109375 0 -0.0428125 0.0117188 0 -0.0428125 0.0125 0 -0.0392188 0 0 -0.0392188 0.00078125 0 -0.0392188 0.0015625 0 -0.0392188 0.00234375 0 -0.0392188 0.003125 0 -0.0392188 0.00390625 0 -0.0392188 0.0046875 0 -0.0392188 0.00546875 0 -0.0392188 0.00625 0 -0.0392188 0.00703125 0 -0.0392188 0.0078125 0 -0.0392188 0.00859375 0 -0.0392188 0.009375 0 -0.0392188 0.0101563 0 -0.0392188 0.0109375 0 -0.0392188 0.0117188 0 -0.0392188 0.0125 0 -0.035625 0 0 -0.035625 0.00078125 0 -0.035625 0.0015625 0 -0.035625 0.00234375 0 -0.035625 0.003125 0 -0.035625 0.00390625 0 -0.035625 0.0046875 0 -0.035625 0.00546875 0 -0.035625 0.00625 0 -0.035625 0.00703125 0 -0.035625 0.0078125 0 -0.035625 0.00859375 0 -0.035625 0.009375 0 -0.035625 0.0101563 0 -0.035625 0.0109375 0 -0.035625 0.0117188 0 -0.035625 0.0125 0 -0.0320313 0 0 -0.0320313 0.00078125 0 -0.0320313 0.0015625 0 -0.0320313 0.00234375 0 -0.0320313 0.003125 0 -0.0320313 0.00390625 0 -0.0320313 0.0046875 0 -0.0320313 0.00546875 0 -0.0320313 0.00625 0 -0.0320313 0.00703125 0 -0.0320313 0.0078125 0 -0.0320313 0.00859375 0 -0.0320313 0.009375 0 -0.0320313 0.0101563 0 -0.0320313 0.0109375 0 -0.0320313 0.0117188 0 -0.0320313 0.0125 0 -0.0284375 0 0 -0.0284375 0.00078125 0 -0.0284375 0.0015625 0 -0.0284375 0.00234375 0 -0.0284375 0.003125 0 -0.0284375 0.00390625 0 -0.0284375 0.0046875 0 -0.0284375 0.00546875 0 -0.0284375 0.00625 0 -0.0284375 0.00703125 0 -0.0284375 0.0078125 0 -0.0284375 0.00859375 0 -0.0284375 0.009375 0 -0.0284375 0.0101563 0 -0.0284375 0.0109375 0 -0.0284375 0.0117188 0 -0.0284375 0.0125 0 -0.0248438 0 0 -0.0248438 0.00078125 0 -0.0248438 0.0015625 0 -0.0248438 0.00234375 0 -0.0248438 0.003125 0 -0.0248438 0.00390625 0 -0.0248438 0.0046875 0 -0.0248438 0.00546875 0 -0.0248438 0.00625 0 -0.0248438 0.00703125 0 -0.0248438 0.0078125 0 -0.0248438 0.00859375 0 -0.0248438 0.009375 0 -0.0248438 0.0101563 0 -0.0248438 0.0109375 0 -0.0248438 0.0117188 0 -0.0248438 0.0125 0 -0.02125 0 0 -0.02125 0.00078125 0 -0.02125 0.0015625 0 -0.02125 0.00234375 0 -0.02125 0.003125 0 -0.02125 0.00390625 0 -0.02125 0.0046875 0 -0.02125 0.00546875 0 -0.02125 0.00625 0 -0.02125 0.00703125 0 -0.02125 0.0078125 0 -0.02125 0.00859375 0 -0.02125 0.009375 0 -0.02125 0.0101563 0 -0.02125 0.0109375 0 -0.02125 0.0117188 0 -0.02125 0.0125 0 -0.0176563 0 0 -0.0176563 0.00078125 0 -0.0176563 0.0015625 0 -0.0176563 0.00234375 0 -0.0176563 0.003125 0 -0.0176563 0.00390625 0 -0.0176563 0.0046875 0 -0.0176563 0.00546875 0 -0.0176563 0.00625 0 -0.0176563 0.00703125 0 -0.0176563 0.0078125 0 -0.0176563 0.00859375 0 -0.0176563 0.009375 0 -0.0176563 0.0101563 0 -0.0176563 0.0109375 0 -0.0176563 0.0117188 0 -0.0176563 0.0125 0 -0.0140625 0 0 -0.0140625 0.00078125 0 -0.0140625 0.0015625 0 -0.0140625 0.00234375 0 -0.0140625 0.003125 0 -0.0140625 0.00390625 0 -0.0140625 0.0046875 0 -0.0140625 0.00546875 0 -0.0140625 0.00625 0 -0.0140625 0.00703125 0 -0.0140625 0.0078125 0 -0.0140625 0.00859375 0 -0.0140625 0.009375 0 -0.0140625 0.0101563 0 -0.0140625 0.0109375 0 -0.0140625 0.0117188 0 -0.0140625 0.0125 0 -0.0104688 0 0 -0.0104688 0.00078125 0 -0.0104688 0.0015625 0 -0.0104688 0.00234375 0 -0.0104688 0.003125 0 -0.0104688 0.00390625 0 -0.0104688 0.0046875 0 -0.0104688 0.00546875 0 -0.0104688 0.00625 0 -0.0104688 0.00703125 0 -0.0104688 0.0078125 0 -0.0104688 0.00859375 0 -0.0104688 0.009375 0 -0.0104688 0.0101563 0 -0.0104688 0.0109375 0 -0.0104688 0.0117188 0 -0.0104688 0.0125 0 -0.006875 0 0 -0.006875 0.00078125 0 -0.006875 0.0015625 0 -0.006875 0.00234375 0 -0.006875 0.003125 0 -0.006875 0.00390625 0 -0.006875 0.0046875 0 -0.006875 0.00546875 0 -0.006875 0.00625 0 -0.006875 0.00703125 0 -0.006875 0.0078125 0 -0.006875 0.00859375 0 -0.006875 0.009375 0 -0.006875 0.0101563 0 -0.006875 0.0109375 0 -0.006875 0.0117188 0 -0.006875 0.0125 0 -0.00328125 0 0 -0.00328125 0.00078125 0 -0.00328125 0.0015625 0 -0.00328125 0.00234375 0 -0.00328125 0.003125 0 -0.00328125 0.00390625 0 -0.00328125 0.0046875 0 -0.00328125 0.00546875 0 -0.00328125 0.00625 0 -0.00328125 0.00703125 0 -0.00328125 0.0078125 0 -0.00328125 0.00859375 0 -0.00328125 0.009375 0 -0.00328125 0.0101563 0 -0.00328125 0.0109375 0 -0.00328125 0.0117188 0 -0.00328125 0.0125 0 0.0003125 0 0 0.0003125 0.00078125 0 0.0003125 0.0015625 0 0.0003125 0.00234375 0 0.0003125 0.003125 0 0.0003125 0.00390625 0 0.0003125 0.0046875 0 0.0003125 0.00546875 0 0.0003125 0.00625 0 0.0003125 0.00703125 0 0.0003125 0.0078125 0 0.0003125 0.00859375 0 0.0003125 0.009375 0 0.0003125 0.0101563 0 0.0003125 0.0109375 0 0.0003125 0.0117188 0 0.0003125 0.0125 0 0.00390625 0 0 0.00390625 0.00078125 0 0.00390625 0.0015625 0 0.00390625 0.00234375 0 0.00390625 0.003125 0 0.00390625 0.00390625 0 0.00390625 0.0046875 0 0.00390625 0.00546875 0 0.00390625 0.00625 0 0.00390625 0.00703125 0 0.00390625 0.0078125 0 0.00390625 0.00859375 0 0.00390625 0.009375 0 0.00390625 0.0101563 0 0.00390625 0.0109375 0 0.00390625 0.0117188 0 0.00390625 0.0125 0 0.0075 0 0 0.0075 0.00078125 0 0.0075 0.0015625 0 0.0075 0.00234375 0 0.0075 0.003125 0 0.0075 0.00390625 0 0.0075 0.0046875 0 0.0075 0.00546875 0 0.0075 0.00625 0 0.0075 0.00703125 0 0.0075 0.0078125 0 0.0075 0.00859375 0 0.0075 0.009375 0 0.0075 0.0101563 0 0.0075 0.0109375 0 0.0075 0.0117188 0 0.0075 0.0125 0 
</DataArray>
</Points> 
</Piece> 
</StructuredGrid> 
</VTKFile> 
