<?xml version="1.0"?> 
<VTKFile type="StructuredGrid" version="0.1"> 
<StructuredGrid WholeExtent="0 16 0 16 0 0"> 
<Piece Extent="0 16 0 16 0 0"> 
<CellData>
<DataArray type="Float32" Name="err_h1" format="ascii" NumberOfComponents="1"> 
257.425 226.573 114.582 150.209 80.4355 105.206 64.4882 82.3431 51.4676 67.5013 38.0225 54.529 22.7562 40.7051 9.14686 26.7139 278.651 261.778 124.228 167.408 84.2716 118.998 64.8424 92.1887 50.1316 75.2953 36.9297 61.3931 23.8903 47.9492 10.8284 34.5635 296.335 285.725 133.257 172.404 95.879 120.706 77.7794 92.5773 62.8574 75.5298 48.5936 62.4218 33.7064 51.0676 18.5007 41.8558 317.024 320.516 138.581 191.754 96.1218 134.124 75.4769 104.342 59.9538 86.6826 47.3284 73.3931 36.6544 61.9979 27.7576 51.8695 334.106 341.06 149.409 196.123 111.935 133.694 91.043 103.015 75.2649 85.729 62.1652 74.0722 50.5796 65.8274 41.0565 60.8111 353.062 375.699 152.272 213.25 111.981 145.131 89.1915 114.753 73.2319 98.2075 62.3019 86.8151 55.1958 78.1866 51.5392 71.7377 369.469 396.587 166.141 216.905 127.284 144.582 103.306 113.93 87.9355 98.0418 77.5616 88.5197 70.2501 83.2502 66.0364 81.4792 386.356 429.456 170.333 227.856 131.163 151.848 104.628 123.71 88.6873 109.734 80.1872 100.983 76.6815 95.4809 77.165 92.5398 401.673 452.828 184.683 231.585 140.504 153.599 113.529 125.637 100.349 111.808 93.9403 104.462 91.2231 101.778 91.5966 102.521 416.218 481.545 195.494 233.304 150.669 155.035 119.257 131.948 104.794 121.151 99.3531 115.518 99.2218 113.394 103.028 113.507 429.798 508.076 205.719 238.014 149.484 161.562 121.168 137.867 112.421 125.864 110.785 120.665 112.886 120.429 117.392 123.521 441.662 530.639 227.741 228.643 165.601 156.624 131.389 139.854 120.727 132.087 118.452 130.34 121.67 131.954 128.81 134.75 452.818 559.691 229.54 235.503 151.729 169.595 126.931 149.581 124.121 139.047 127.588 136.398 135.21 138.874 143.895 144.919 461.646 575.257 265.068 214.322 170.881 159.149 141.848 146.613 135.803 142.241 136.267 145.703 143.756 151.411 154.985 157.114 469.82 605.227 256.255 225.602 145.328 178.603 133.682 159.064 133.929 150.878 144.395 151.407 158.365 157.325 171.952 167.786 475.337 614.503 305.097 192.551 163.023 165.183 154.943 149.734 147.103 152.537 153.027 161.382 165.53 172.315 182.411 181.844 
</DataArray> 
</CellData> 
<Points> 
<DataArray type="Float32" NumberOfComponents="3"> 
0.08554 0.05 0 0.08554 0.05625 0 0.08554 0.0625 0 0.08554 0.06875 0 0.08554 0.075 0 0.08554 0.08125 0 0.08554 0.0875 0 0.08554 0.09375 0 0.08554 0.1 0 0.08554 0.10625 0 0.08554 0.1125 0 0.08554 0.11875 0 0.08554 0.125 0 0.08554 0.13125 0 0.08554 0.1375 0 0.08554 0.14375 0 0.08554 0.15 0 0.0862346 0.0499833 0 0.0866417 0.0562871 0 0.0870484 0.0625837 0 0.0874545 0.0688733 0 0.0878603 0.0751559 0 0.0882655 0.0814314 0 0.0886704 0.0876998 0 0.0890747 0.0939613 0 0.0894786 0.100216 0 0.0898821 0.106463 0 0.0902851 0.112704 0 0.0906877 0.118937 0 0.0910898 0.125163 0 0.0914915 0.131383 0 0.0918927 0.137596 0 0.0922934 0.143801 0 0.0926938 0.15 0 0.0869334 0.0499327 0 0.0877534 0.0562861 0 0.0885716 0.0626261 0 0.089388 0.0689526 0 0.0902028 0.0752659 0 0.0910158 0.0815659 0 0.0918271 0.0878526 0 0.0926368 0.0941261 0 0.0934447 0.100386 0 0.0942509 0.106634 0 0.0950554 0.112868 0 0.0958583 0.119089 0 0.0966595 0.125297 0 0.097459 0.131492 0 0.0982568 0.137674 0 0.099053 0.143844 0 0.0998475 0.15 0 0.0876341 0.0498476 0 0.0888714 0.0562462 0 0.0901051 0.0626259 0 0.0913351 0.0689868 0 0.0925616 0.0753289 0 0.0937844 0.0816523 0 0.0950036 0.0879572 0 0.0962192 0.0942434 0 0.0974313 0.100511 0 0.0986398 0.106761 0 0.0998448 0.112992 0 0.101046 0.119205 0 0.102244 0.1254 0 0.103439 0.131577 0 0.10463 0.137736 0 0.105817 0.143877 0 0.107001 0.15 0 0.0883339 0.0497275 0 0.0899921 0.0561669 0 0.0916442 0.0625827 0 0.0932903 0.068975 0 0.0949304 0.0753441 0 0.0965645 0.0816899 0 0.0981927 0.0880127 0 0.099815 0.0943126 0 0.101431 0.10059 0 0.103042 0.106844 0 0.104647 0.113076 0 0.106246 0.119285 0 0.107839 0.125472 0 0.109426 0.131637 0 0.111008 0.13778 0 0.112584 0.143901 0 0.114155 0.15 0 0.0890304 0.0495724 0 0.0911116 0.0560477 0 0.0931841 0.0624957 0 0.0952478 0.0689167 0 0.0973029 0.0753107 0 0.0993494 0.081678 0 0.101387 0.0880187 0 0.103417 0.094333 0 0.105438 0.100621 0 0.107451 0.106883 0 0.109455 0.113119 0 0.111451 0.119329 0 0.113439 0.125514 0 0.115418 0.131673 0 0.11739 0.137807 0 0.119353 0.143916 0 0.121309 0.15 0 0.0897209 0.0493824 0 0.0922261 0.0558886 0 0.0947197 0.0623649 0 0.0972018 0.0688115 0 0.0996726 0.0752285 0 0.102132 0.0816161 0 0.10458 0.0879746 0 0.107018 0.0943042 0 0.109444 0.100605 0 0.111859 0.106877 0 0.114263 0.113121 0 0.116656 0.119337 0 0.119039 0.125525 0 0.12141 0.131685 0 0.123772 0.137817 0 0.126122 0.143922 0 0.128463 0.15 0 0.0904028 0.0491578 0 0.0933315 0.0556899 0 0.0962461 0.0621903 0 0.0991465 0.0686594 0 0.102033 0.0750972 0 0.104906 0.0815041 0 0.107764 0.0878803 0 0.11061 0.094226 0 0.113441 0.100541 0 0.116259 0.106827 0 0.119064 0.113082 0 0.121855 0.119308 0 0.124634 0.125505 0 0.127399 0.131672 0 0.130151 0.13781 0 0.13289 0.143919 0 0.135616 0.15 0 0.0910736 0.0488993 0 0.0944242 0.0554519 0 0.0977583 0.0619723 0 0.101076 0.0684606 0 0.104377 0.0749172 0 0.107663 0.0813422 0 0.110932 0.0877359 0 0.114186 0.0940985 0 0.117423 0.10043 0 0.120645 0.106731 0 0.123852 0.113002 0 0.127043 0.119243 0 0.130218 0.125453 0 0.133379 0.131634 0 0.136524 0.137785 0 0.139655 0.143907 0 0.14277 0.15 0 0.0917307 0.0486078 0 0.0955002 0.0551755 0 0.0992514 0.0617114 0 0.102984 0.0682157 0 0.1067 0.0746887 0 0.110397 0.0811306 0 0.114076 0.0875415 0 0.117738 0.0939218 0 0.121383 0.100272 0 0.12501 0.106591 0 0.12862 0.112881 0 0.132212 0.119141 0 0.135788 0.125371 0 0.139347 0.131572 0 0.142889 0.137743 0 0.146415 0.143886 0 0.149924 0.15 0 0.0923717 0.0482844 0 0.0965558 0.0548616 0 0.100721 0.0614086 0 0.104866 0.0679255 0 0.108993 0.0744125 0 0.113101 0.0808699 0 0.11719 0.0872978 0 0.12126 0.0936964 0 0.125312 0.100066 0 0.129346 0.106407 0 0.133361 0.112719 0 0.137359 0.119002 0 0.141338 0.125258 0 0.145299 0.131485 0 0.149243 0.137684 0 0.153169 0.143856 0 0.157078 0.15 0 0.0929943 0.0479305 0 0.0975875 0.0545116 0 0.102161 0.0610651 0 0.106716 0.067591 0 0.111251 0.0740896 0 0.115768 0.080561 0 0.120266 0.0870054 0 0.124745 0.0934229 0 0.129205 0.0998137 0 0.133647 0.106178 0 0.13807 0.112516 0 0.142475 0.118828 0 0.146863 0.125114 0 0.151231 0.131374 0 0.155583 0.137608 0 0.159916 0.143817 0 0.164231 0.15 0 0.0935965 0.0475477 0 0.098592 0.054127 0 0.103569 0.0606823 0 0.108528 0.0672136 0 0.113469 0.0737211 0 0.118392 0.0802049 0 0.123297 0.0866652 0 0.128184 0.093102 0 0.133054 0.0995156 0 0.137906 0.105906 0 0.14274 0.112273 0 0.147557 0.118618 0 0.152357 0.124939 0 0.15714 0.131238 0 0.161905 0.137514 0 0.166654 0.143768 0 0.171385 0.15 0 0.0941763 0.0471377 0 0.0995661 0.0537095 0 0.10494 0.0602618 0 0.110298 0.0667948 0 0.11564 0.0733085 0 0.120967 0.079803 0 0.126278 0.0862784 0 0.131573 0.0927348 0 0.136852 0.0991723 0 0.142117 0.105591 0 0.147365 0.111991 0 0.152599 0.118372 0 0.157817 0.124734 0 0.16302 0.131078 0 0.168208 0.137404 0 0.173381 0.143711 0 0.178539 0.15 0 0.0947319 0.0467025 0 0.100507 0.053261 0 0.10627 0.0598056 0 0.112021 0.0663364 0 0.11776 0.0728535 0 0.123486 0.0793568 0 0.129201 0.0858464 0 0.134903 0.0923224 0 0.140594 0.0987849 0 0.146273 0.105234 0 0.151939 0.111669 0 0.157594 0.118091 0 0.163238 0.124499 0 0.168869 0.130895 0 0.174488 0.137276 0 0.180096 0.143645 0 0.185693 0.15 0 0.0952618 0.0462441 0 0.101412 0.0527836 0 0.107556 0.0593156 0 0.113692 0.0658404 0 0.119822 0.0723578 0 0.125945 0.0788679 0 0.132061 0.0853707 0 0.13817 0.0918662 0 0.144273 0.0983545 0 0.150368 0.104835 0 0.156457 0.111309 0 0.162539 0.117776 0 0.168614 0.124235 0 0.174682 0.130687 0 0.180744 0.137132 0 0.186798 0.14357 0 0.192846 0.15 0 0.0957648 0.0457648 0 0.102279 0.0522795 0 0.108794 0.0587942 0 0.115309 0.0653089 0 0.121824 0.0718236 0 0.128338 0.0783383 0 0.134853 0.084853 0 0.141368 0.0913677 0 0.147882 0.0978824 0 0.154397 0.104397 0 0.160912 0.110912 0 0.167426 0.117426 0 0.173941 0.123941 0 0.180456 0.130456 0 0.186971 0.136971 0 0.193485 0.143485 0 0.2 0.15 0 
</DataArray>
</Points> 
</Piece> 
</StructuredGrid> 
</VTKFile> 
