<?xml version="1.0"?> 
<VTKFile type="StructuredGrid" version="0.1"> 
<StructuredGrid WholeExtent="0 16 0 16 0 0"> 
<Piece Extent="0 16 0 16 0 0"> 
<CellData>
<DataArray type="Float32" Name="err_h1" format="ascii" NumberOfComponents="1"> 
29.1367 29.887 30.5761 32.8355 34.2818 38.108 40.4668 46.034 49.5801 57.2457 62.4201 72.7931 80.277 94.3142 105.149 124.311 48.7248 49.4347 50.258 52.4329 54.1853 57.9709 60.8816 66.5538 71.0157 79.033 85.6729 96.7614 106.555 121.845 136.304 157.551 8.1628 7.29683 9.65741 7.1767 11.8783 8.13273 15.0863 10.5607 19.6913 14.8528 26.2918 21.5762 35.7807 31.7169 49.5491 46.9713 36.0496 35.9317 35.9626 35.5933 35.6378 34.97 34.9964 33.9514 33.9201 32.3892 32.2685 30.1192 29.9191 27.0096 26.8471 23.0533 8.57937 8.64723 8.72398 8.93046 9.04239 9.39619 9.48255 9.99721 10.0195 10.7093 10.7156 11.5838 11.8017 12.8113 13.7287 14.7547 9.24321 9.3726 9.4197 9.79877 9.88182 10.4859 10.5831 11.3773 11.4558 12.398 12.4113 13.4506 13.334 14.4036 14.0683 15.0726 14.5725 14.6056 14.6243 14.7243 14.7568 14.9268 14.9622 15.2082 15.2275 15.5605 15.5342 15.9729 15.8595 16.4345 16.1833 16.9446 23.7778 23.8061 23.8299 23.9155 23.9643 24.1092 24.1857 24.394 24.5035 24.7826 24.9348 25.2967 25.509 25.9724 26.2738 26.8667 13.4909 13.4952 13.5165 13.5291 13.5729 13.5924 13.6622 13.6855 13.788 13.8101 13.9577 13.9702 14.185 14.1745 14.4948 14.4408 23.733 23.7387 23.7525 23.7692 23.7964 23.8233 23.8631 23.8985 23.9492 23.9901 24.0487 24.0902 24.1518 24.186 24.2418 24.2566 9.35647 9.35272 9.37288 9.36171 9.40155 9.38333 9.44165 9.41717 9.49164 9.46242 9.54872 9.51754 9.60818 9.57985 9.66234 9.64497 18.9946 18.9941 18.9971 18.9957 19.0017 18.9995 19.0084 19.0056 19.0176 19.0148 19.0301 19.0283 19.048 19.049 19.075 19.0824 4.03384 4.03132 4.03924 4.03171 4.04743 4.03498 4.05839 4.04107 4.07223 4.04987 4.08936 4.06128 4.11087 4.07537 4.13897 4.09262 13.2744 13.2741 13.2744 13.2733 13.2738 13.2721 13.2727 13.2702 13.2709 13.2676 13.2682 13.2637 13.2637 13.2576 13.2562 13.2475 1.78975 1.78905 1.79013 1.78807 1.79017 1.78686 1.78988 1.78554 1.78927 1.78429 1.78834 1.78343 1.78711 1.78351 1.78556 1.78544 7.48587 7.48577 7.48565 7.48533 7.48509 7.48458 7.48423 7.48354 7.48309 7.48226 7.48175 7.48087 7.48038 7.4796 7.47925 7.47885 
</DataArray> 
</CellData> 
<Points> 
<DataArray type="Float32" NumberOfComponents="3"> 
0.09021 0 0 0.09021 0.0006125 0 0.09021 0.001225 0 0.09021 0.0018375 0 0.09021 0.00245 0 0.09021 0.0030625 0 0.09021 0.003675 0 0.09021 0.0042875 0 0.09021 0.0049 0 0.09021 0.0055125 0 0.09021 0.006125 0 0.09021 0.0067375 0 0.09021 0.00735 0 0.09021 0.0079625 0 0.09021 0.008575 0 0.09021 0.0091875 0 0.09021 0.0098 0 0.0970719 0 0 0.0970719 0.0006125 0 0.0970719 0.001225 0 0.0970719 0.0018375 0 0.0970719 0.00245 0 0.0970719 0.0030625 0 0.0970719 0.003675 0 0.0970719 0.0042875 0 0.0970719 0.0049 0 0.0970719 0.0055125 0 0.0970719 0.006125 0 0.0970719 0.0067375 0 0.0970719 0.00735 0 0.0970719 0.0079625 0 0.0970719 0.008575 0 0.0970719 0.0091875 0 0.0970719 0.0098 0 0.103934 0 0 0.103934 0.0006125 0 0.103934 0.001225 0 0.103934 0.0018375 0 0.103934 0.00245 0 0.103934 0.0030625 0 0.103934 0.003675 0 0.103934 0.0042875 0 0.103934 0.0049 0 0.103934 0.0055125 0 0.103934 0.006125 0 0.103934 0.0067375 0 0.103934 0.00735 0 0.103934 0.0079625 0 0.103934 0.008575 0 0.103934 0.0091875 0 0.103934 0.0098 0 0.110796 0 0 0.110796 0.0006125 0 0.110796 0.001225 0 0.110796 0.0018375 0 0.110796 0.00245 0 0.110796 0.0030625 0 0.110796 0.003675 0 0.110796 0.0042875 0 0.110796 0.0049 0 0.110796 0.0055125 0 0.110796 0.006125 0 0.110796 0.0067375 0 0.110796 0.00735 0 0.110796 0.0079625 0 0.110796 0.008575 0 0.110796 0.0091875 0 0.110796 0.0098 0 0.117657 0 0 0.117657 0.0006125 0 0.117657 0.001225 0 0.117657 0.0018375 0 0.117657 0.00245 0 0.117657 0.0030625 0 0.117657 0.003675 0 0.117657 0.0042875 0 0.117657 0.0049 0 0.117657 0.0055125 0 0.117657 0.006125 0 0.117657 0.0067375 0 0.117657 0.00735 0 0.117657 0.0079625 0 0.117657 0.008575 0 0.117657 0.0091875 0 0.117657 0.0098 0 0.124519 0 0 0.124519 0.0006125 0 0.124519 0.001225 0 0.124519 0.0018375 0 0.124519 0.00245 0 0.124519 0.0030625 0 0.124519 0.003675 0 0.124519 0.0042875 0 0.124519 0.0049 0 0.124519 0.0055125 0 0.124519 0.006125 0 0.124519 0.0067375 0 0.124519 0.00735 0 0.124519 0.0079625 0 0.124519 0.008575 0 0.124519 0.0091875 0 0.124519 0.0098 0 0.131381 0 0 0.131381 0.0006125 0 0.131381 0.001225 0 0.131381 0.0018375 0 0.131381 0.00245 0 0.131381 0.0030625 0 0.131381 0.003675 0 0.131381 0.0042875 0 0.131381 0.0049 0 0.131381 0.0055125 0 0.131381 0.006125 0 0.131381 0.0067375 0 0.131381 0.00735 0 0.131381 0.0079625 0 0.131381 0.008575 0 0.131381 0.0091875 0 0.131381 0.0098 0 0.138243 0 0 0.138243 0.0006125 0 0.138243 0.001225 0 0.138243 0.0018375 0 0.138243 0.00245 0 0.138243 0.0030625 0 0.138243 0.003675 0 0.138243 0.0042875 0 0.138243 0.0049 0 0.138243 0.0055125 0 0.138243 0.006125 0 0.138243 0.0067375 0 0.138243 0.00735 0 0.138243 0.0079625 0 0.138243 0.008575 0 0.138243 0.0091875 0 0.138243 0.0098 0 0.145105 0 0 0.145105 0.0006125 0 0.145105 0.001225 0 0.145105 0.0018375 0 0.145105 0.00245 0 0.145105 0.0030625 0 0.145105 0.003675 0 0.145105 0.0042875 0 0.145105 0.0049 0 0.145105 0.0055125 0 0.145105 0.006125 0 0.145105 0.0067375 0 0.145105 0.00735 0 0.145105 0.0079625 0 0.145105 0.008575 0 0.145105 0.0091875 0 0.145105 0.0098 0 0.151967 0 0 0.151967 0.0006125 0 0.151967 0.001225 0 0.151967 0.0018375 0 0.151967 0.00245 0 0.151967 0.0030625 0 0.151967 0.003675 0 0.151967 0.0042875 0 0.151967 0.0049 0 0.151967 0.0055125 0 0.151967 0.006125 0 0.151967 0.0067375 0 0.151967 0.00735 0 0.151967 0.0079625 0 0.151967 0.008575 0 0.151967 0.0091875 0 0.151967 0.0098 0 0.158829 0 0 0.158829 0.0006125 0 0.158829 0.001225 0 0.158829 0.0018375 0 0.158829 0.00245 0 0.158829 0.0030625 0 0.158829 0.003675 0 0.158829 0.0042875 0 0.158829 0.0049 0 0.158829 0.0055125 0 0.158829 0.006125 0 0.158829 0.0067375 0 0.158829 0.00735 0 0.158829 0.0079625 0 0.158829 0.008575 0 0.158829 0.0091875 0 0.158829 0.0098 0 0.165691 0 0 0.165691 0.0006125 0 0.165691 0.001225 0 0.165691 0.0018375 0 0.165691 0.00245 0 0.165691 0.0030625 0 0.165691 0.003675 0 0.165691 0.0042875 0 0.165691 0.0049 0 0.165691 0.0055125 0 0.165691 0.006125 0 0.165691 0.0067375 0 0.165691 0.00735 0 0.165691 0.0079625 0 0.165691 0.008575 0 0.165691 0.0091875 0 0.165691 0.0098 0 0.172553 0 0 0.172553 0.0006125 0 0.172553 0.001225 0 0.172553 0.0018375 0 0.172553 0.00245 0 0.172553 0.0030625 0 0.172553 0.003675 0 0.172553 0.0042875 0 0.172553 0.0049 0 0.172553 0.0055125 0 0.172553 0.006125 0 0.172553 0.0067375 0 0.172553 0.00735 0 0.172553 0.0079625 0 0.172553 0.008575 0 0.172553 0.0091875 0 0.172553 0.0098 0 0.179414 0 0 0.179414 0.0006125 0 0.179414 0.001225 0 0.179414 0.0018375 0 0.179414 0.00245 0 0.179414 0.0030625 0 0.179414 0.003675 0 0.179414 0.0042875 0 0.179414 0.0049 0 0.179414 0.0055125 0 0.179414 0.006125 0 0.179414 0.0067375 0 0.179414 0.00735 0 0.179414 0.0079625 0 0.179414 0.008575 0 0.179414 0.0091875 0 0.179414 0.0098 0 0.186276 0 0 0.186276 0.0006125 0 0.186276 0.001225 0 0.186276 0.0018375 0 0.186276 0.00245 0 0.186276 0.0030625 0 0.186276 0.003675 0 0.186276 0.0042875 0 0.186276 0.0049 0 0.186276 0.0055125 0 0.186276 0.006125 0 0.186276 0.0067375 0 0.186276 0.00735 0 0.186276 0.0079625 0 0.186276 0.008575 0 0.186276 0.0091875 0 0.186276 0.0098 0 0.193138 0 0 0.193138 0.0006125 0 0.193138 0.001225 0 0.193138 0.0018375 0 0.193138 0.00245 0 0.193138 0.0030625 0 0.193138 0.003675 0 0.193138 0.0042875 0 0.193138 0.0049 0 0.193138 0.0055125 0 0.193138 0.006125 0 0.193138 0.0067375 0 0.193138 0.00735 0 0.193138 0.0079625 0 0.193138 0.008575 0 0.193138 0.0091875 0 0.193138 0.0098 0 0.2 0 0 0.2 0.0006125 0 0.2 0.001225 0 0.2 0.0018375 0 0.2 0.00245 0 0.2 0.0030625 0 0.2 0.003675 0 0.2 0.0042875 0 0.2 0.0049 0 0.2 0.0055125 0 0.2 0.006125 0 0.2 0.0067375 0 0.2 0.00735 0 0.2 0.0079625 0 0.2 0.008575 0 0.2 0.0091875 0 0.2 0.0098 0 
</DataArray>
</Points> 
</Piece> 
</StructuredGrid> 
</VTKFile> 
