<?xml version="1.0"?> 
<VTKFile type="StructuredGrid" version="0.1"> 
<StructuredGrid WholeExtent="0 16 0 16 0 0"> 
<Piece Extent="0 16 0 16 0 0"> 
<CellData>
<DataArray type="Float32" Name="err_h1" format="ascii" NumberOfComponents="1"> 
14.4854 6.35365 3.77858 1.72419 1.18364 0.534524 0.430708 0.150642 0.201112 0.0255291 0.17809 0.132294 0.23633 0.240604 0.335103 0.378084 17.9522 4.69769 4.80123 2.54168 2.68012 2.14179 1.78715 1.58492 1.24745 1.14205 0.892086 0.817305 0.643425 0.57629 0.463448 0.398001 3.85359 3.20856 3.41296 2.38866 3.05645 2.05685 2.13042 1.43075 1.39263 0.92929 0.911871 0.595547 0.624688 0.394427 0.471074 0.302586 2.8703 4.31146 4.8661 3.60182 3.77724 2.03784 2.38537 1.05741 1.50915 0.698078 1.03709 0.605019 0.78584 0.55559 0.644075 0.504658 0.483667 1.09889 1.05177 0.672795 0.577642 0.659321 0.980007 0.811887 1.11898 0.843966 1.03795 0.765176 0.886001 0.651545 0.741029 0.550184 0.827003 1.4292 1.09168 1.77879 1.67909 1.86524 1.8383 1.6052 1.62645 1.20012 1.28803 0.832563 0.975866 0.578602 0.746928 0.449672 0.83725 1.04085 0.535157 0.790533 0.218868 0.27703 0.145596 0.156059 0.206482 0.254374 0.372545 0.350287 0.47541 0.405609 0.51216 0.424837 0.430017 0.540411 0.4285 0.701173 0.520415 0.858903 0.709918 0.970272 0.856351 0.979807 0.894223 0.890482 0.833599 0.742233 0.711378 0.573028 0.829215 0.926508 0.665817 0.763275 0.506628 0.616201 0.323048 0.417423 0.186392 0.257677 0.0900209 0.166787 0.0673219 0.144044 0.125172 0.162083 0.355127 0.128062 0.30015 0.241321 0.273173 0.349709 0.299374 0.450985 0.369252 0.537367 0.44805 0.590418 0.501622 0.598129 0.519627 0.571951 0.646566 0.681909 0.593591 0.632547 0.514559 0.554298 0.42626 0.468444 0.327209 0.372602 0.235593 0.284312 0.164197 0.215048 0.111607 0.157926 0.273206 0.134539 0.238784 0.109176 0.213754 0.138928 0.201539 0.193718 0.2093 0.255845 0.238646 0.323884 0.287154 0.390368 0.327578 0.414563 0.461756 0.481647 0.465793 0.484368 0.451824 0.46621 0.417027 0.423821 0.363605 0.359198 0.289878 0.276188 0.203407 0.198749 0.134255 0.17454 0.181522 0.137171 0.158604 0.10622 0.142711 0.0995187 0.143968 0.125421 0.164521 0.166388 0.194327 0.201861 0.213186 0.21657 0.225711 0.297381 0.302871 0.327259 0.342905 0.364498 0.371115 0.389799 0.389186 0.403916 0.397303 0.405778 0.395053 0.390596 0.370485 0.337865 0.293211 0.329205 0.143157 0.12345 0.108464 0.0861657 0.074476 0.0510307 0.0475026 0.0372705 0.0548009 0.0725438 0.101498 0.136384 0.181533 0.244761 0.335363 0.485518 
</DataArray> 
</CellData> 
<Points> 
<DataArray type="Float32" NumberOfComponents="3"> 
0.0175 0.025 0 0.0175 0.025625 0 0.0175 0.02625 0 0.0175 0.026875 0 0.0175 0.0275 0 0.0175 0.028125 0 0.0175 0.02875 0 0.0175 0.029375 0 0.0175 0.03 0 0.0175 0.030625 0 0.0175 0.03125 0 0.0175 0.031875 0 0.0175 0.0325 0 0.0175 0.033125 0 0.0175 0.03375 0 0.0175 0.034375 0 0.0175 0.035 0 0.018745 0.0242188 0 0.018745 0.024834 0 0.018745 0.0254492 0 0.018745 0.0260645 0 0.018745 0.0266797 0 0.018745 0.0272949 0 0.018745 0.0279102 0 0.018745 0.0285254 0 0.018745 0.0291406 0 0.018745 0.0297559 0 0.018745 0.0303711 0 0.018745 0.0309863 0 0.018745 0.0316016 0 0.018745 0.0322168 0 0.018745 0.032832 0 0.018745 0.0334473 0 0.018745 0.0340625 0 0.01999 0.0234375 0 0.01999 0.024043 0 0.01999 0.0246484 0 0.01999 0.0252539 0 0.01999 0.0258594 0 0.01999 0.0264648 0 0.01999 0.0270703 0 0.01999 0.0276758 0 0.01999 0.0282813 0 0.01999 0.0288867 0 0.01999 0.0294922 0 0.01999 0.0300977 0 0.01999 0.0307031 0 0.01999 0.0313086 0 0.01999 0.0319141 0 0.01999 0.0325195 0 0.01999 0.033125 0 0.021235 0.0226563 0 0.021235 0.023252 0 0.021235 0.0238477 0 0.021235 0.0244434 0 0.021235 0.0250391 0 0.021235 0.0256348 0 0.021235 0.0262305 0 0.021235 0.0268262 0 0.021235 0.0274219 0 0.021235 0.0280176 0 0.021235 0.0286133 0 0.021235 0.029209 0 0.021235 0.0298047 0 0.021235 0.0304004 0 0.021235 0.0309961 0 0.021235 0.0315918 0 0.021235 0.0321875 0 0.02248 0.021875 0 0.02248 0.0224609 0 0.02248 0.0230469 0 0.02248 0.0236328 0 0.02248 0.0242188 0 0.02248 0.0248047 0 0.02248 0.0253906 0 0.02248 0.0259766 0 0.02248 0.0265625 0 0.02248 0.0271484 0 0.02248 0.0277344 0 0.02248 0.0283203 0 0.02248 0.0289063 0 0.02248 0.0294922 0 0.02248 0.0300781 0 0.02248 0.0306641 0 0.02248 0.03125 0 0.023725 0.0210938 0 0.023725 0.0216699 0 0.023725 0.0222461 0 0.023725 0.0228223 0 0.023725 0.0233984 0 0.023725 0.0239746 0 0.023725 0.0245508 0 0.023725 0.025127 0 0.023725 0.0257031 0 0.023725 0.0262793 0 0.023725 0.0268555 0 0.023725 0.0274316 0 0.023725 0.0280078 0 0.023725 0.028584 0 0.023725 0.0291602 0 0.023725 0.0297363 0 0.023725 0.0303125 0 0.02497 0.0203125 0 0.02497 0.0208789 0 0.02497 0.0214453 0 0.02497 0.0220117 0 0.02497 0.0225781 0 0.02497 0.0231445 0 0.02497 0.0237109 0 0.02497 0.0242773 0 0.02497 0.0248438 0 0.02497 0.0254102 0 0.02497 0.0259766 0 0.02497 0.026543 0 0.02497 0.0271094 0 0.02497 0.0276758 0 0.02497 0.0282422 0 0.02497 0.0288086 0 0.02497 0.029375 0 0.026215 0.0195312 0 0.026215 0.0200879 0 0.026215 0.0206445 0 0.026215 0.0212012 0 0.026215 0.0217578 0 0.026215 0.0223145 0 0.026215 0.0228711 0 0.026215 0.0234277 0 0.026215 0.0239844 0 0.026215 0.024541 0 0.026215 0.0250977 0 0.026215 0.0256543 0 0.026215 0.0262109 0 0.026215 0.0267676 0 0.026215 0.0273242 0 0.026215 0.0278809 0 0.026215 0.0284375 0 0.02746 0.01875 0 0.02746 0.0192969 0 0.02746 0.0198438 0 0.02746 0.0203906 0 0.02746 0.0209375 0 0.02746 0.0214844 0 0.02746 0.0220313 0 0.02746 0.0225781 0 0.02746 0.023125 0 0.02746 0.0236719 0 0.02746 0.0242188 0 0.02746 0.0247656 0 0.02746 0.0253125 0 0.02746 0.0258594 0 0.02746 0.0264063 0 0.02746 0.0269531 0 0.02746 0.0275 0 0.028705 0.0179688 0 0.028705 0.0185059 0 0.028705 0.019043 0 0.028705 0.0195801 0 0.028705 0.0201172 0 0.028705 0.0206543 0 0.028705 0.0211914 0 0.028705 0.0217285 0 0.028705 0.0222656 0 0.028705 0.0228027 0 0.028705 0.0233398 0 0.028705 0.023877 0 0.028705 0.0244141 0 0.028705 0.0249512 0 0.028705 0.0254883 0 0.028705 0.0260254 0 0.028705 0.0265625 0 0.02995 0.0171875 0 0.02995 0.0177148 0 0.02995 0.0182422 0 0.02995 0.0187695 0 0.02995 0.0192969 0 0.02995 0.0198242 0 0.02995 0.0203516 0 0.02995 0.0208789 0 0.02995 0.0214063 0 0.02995 0.0219336 0 0.02995 0.0224609 0 0.02995 0.0229883 0 0.02995 0.0235156 0 0.02995 0.024043 0 0.02995 0.0245703 0 0.02995 0.0250977 0 0.02995 0.025625 0 0.031195 0.0164063 0 0.031195 0.0169238 0 0.031195 0.0174414 0 0.031195 0.017959 0 0.031195 0.0184766 0 0.031195 0.0189941 0 0.031195 0.0195117 0 0.031195 0.0200293 0 0.031195 0.0205469 0 0.031195 0.0210645 0 0.031195 0.021582 0 0.031195 0.0220996 0 0.031195 0.0226172 0 0.031195 0.0231348 0 0.031195 0.0236523 0 0.031195 0.0241699 0 0.031195 0.0246875 0 0.03244 0.015625 0 0.03244 0.0161328 0 0.03244 0.0166406 0 0.03244 0.0171484 0 0.03244 0.0176562 0 0.03244 0.0181641 0 0.03244 0.0186719 0 0.03244 0.0191797 0 0.03244 0.0196875 0 0.03244 0.0201953 0 0.03244 0.0207031 0 0.03244 0.0212109 0 0.03244 0.0217188 0 0.03244 0.0222266 0 0.03244 0.0227344 0 0.03244 0.0232422 0 0.03244 0.02375 0 0.033685 0.0148438 0 0.033685 0.0153418 0 0.033685 0.0158398 0 0.033685 0.0163379 0 0.033685 0.0168359 0 0.033685 0.017334 0 0.033685 0.017832 0 0.033685 0.0183301 0 0.033685 0.0188281 0 0.033685 0.0193262 0 0.033685 0.0198242 0 0.033685 0.0203223 0 0.033685 0.0208203 0 0.033685 0.0213184 0 0.033685 0.0218164 0 0.033685 0.0223145 0 0.033685 0.0228125 0 0.03493 0.0140625 0 0.03493 0.0145508 0 0.03493 0.0150391 0 0.03493 0.0155273 0 0.03493 0.0160156 0 0.03493 0.0165039 0 0.03493 0.0169922 0 0.03493 0.0174805 0 0.03493 0.0179688 0 0.03493 0.018457 0 0.03493 0.0189453 0 0.03493 0.0194336 0 0.03493 0.0199219 0 0.03493 0.0204102 0 0.03493 0.0208984 0 0.03493 0.0213867 0 0.03493 0.021875 0 0.036175 0.0132812 0 0.036175 0.0137598 0 0.036175 0.0142383 0 0.036175 0.0147168 0 0.036175 0.0151953 0 0.036175 0.0156738 0 0.036175 0.0161523 0 0.036175 0.0166309 0 0.036175 0.0171094 0 0.036175 0.0175879 0 0.036175 0.0180664 0 0.036175 0.0185449 0 0.036175 0.0190234 0 0.036175 0.019502 0 0.036175 0.0199805 0 0.036175 0.020459 0 0.036175 0.0209375 0 0.03742 0.0125 0 0.03742 0.0129687 0 0.03742 0.0134375 0 0.03742 0.0139063 0 0.03742 0.014375 0 0.03742 0.0148438 0 0.03742 0.0153125 0 0.03742 0.0157813 0 0.03742 0.01625 0 0.03742 0.0167188 0 0.03742 0.0171875 0 0.03742 0.0176562 0 0.03742 0.018125 0 0.03742 0.0185937 0 0.03742 0.0190625 0 0.03742 0.0195312 0 0.03742 0.02 0 
</DataArray>
</Points> 
</Piece> 
</StructuredGrid> 
</VTKFile> 
