<?xml version="1.0"?> 
<VTKFile type="StructuredGrid" version="0.1"> 
<StructuredGrid WholeExtent="0 16 0 16 0 0"> 
<Piece Extent="0 16 0 16 0 0"> 
<CellData>
<DataArray type="Float32" Name="err_h1" format="ascii" NumberOfComponents="1"> 
915.149 1416.68 460.753 700.29 297.929 410.194 223.865 313.102 195.061 252.91 183.788 213.173 182.986 186.807 187.129 174.197 91.779 500.895 765.344 433.794 464.566 291.042 325.488 226.215 258.248 192.667 216.673 172.782 190.597 162.979 177.304 161.282 140.702 299.995 417.053 630.397 261.767 420.092 210.094 309.801 174.799 245.984 155.756 201.308 148.592 169.826 151.189 149.687 85.8403 247.261 288.204 238.101 400.085 263.513 315.634 209.282 247.657 172.609 200.006 148.398 165.806 134.465 143.725 130.861 44.5956 125.139 201.77 294.247 223.195 356.113 182.697 285.316 154.985 228.004 132.158 182.966 117.207 146.988 111.594 119.582 44.9236 119.233 159.22 128.723 241.722 191.189 256.811 186.335 218.471 155.904 175.71 128.118 137.423 107.474 106.235 98.0359 11.3292 58.3601 111.371 156.649 162.547 236.811 155.932 236.234 134.472 198.878 111.827 159.034 90.5295 121.675 74.1507 88.8052 39.3257 62.6944 117.148 91.0939 168.099 135.658 186.476 151.74 175.191 136.964 144.502 111.07 107.581 85.1847 70.2898 67.9591 33.485 32.3602 84.83 106.201 122.663 165.855 130.449 181.872 117.433 164.6 95.9415 132.871 70.8947 97.1227 44.5485 61.8456 57.5701 46.2728 112.245 86.3833 139.925 115.94 146.702 126.38 137.206 117.437 113.997 95.5566 80.8743 68.1375 41.8081 44.4022 60.3427 32.8875 88.5753 99.5076 110.166 139.816 116.146 148.92 105.537 135.734 85.1508 109.435 59.0159 76.3812 28.4571 41.3201 89.7063 60.6775 134.41 111.532 139.989 123.663 131.387 118.682 115.276 104.959 92.0503 83.4579 61.8475 56.227 26.1143 28.9287 99.3172 53.9927 114.293 132.996 125.246 146.068 117.265 136.616 100.583 117.799 78.3562 92.0543 52.068 61.2667 24.2297 28.117 160.6 121.574 192.141 182.21 159.911 149.567 131.253 123.644 105.508 100.736 79.498 76.6176 51.0038 49.6345 21.8326 21.7104 189.162 162.438 208.425 207.726 159.675 164.457 125.819 133.256 98.9824 106.625 73.1527 79.9173 46.3247 51.3233 21.3478 22.2903 458.712 433.514 289.113 272.196 186.189 178.588 133.164 131.364 99.0695 99.9516 71.2983 73.5035 44.8372 47.547 20.2712 22.1697 
</DataArray> 
</CellData> 
<Points> 
<DataArray type="Float32" NumberOfComponents="3"> 
0.0075 0.05 0 0.00390625 0.05625 0 0.0003125 0.0625 0 -0.00328125 0.06875 0 -0.006875 0.075 0 -0.0104688 0.08125 0 -0.0140625 0.0875 0 -0.0176563 0.09375 0 -0.02125 0.1 0 -0.0248438 0.10625 0 -0.0284375 0.1125 0 -0.0320313 0.11875 0 -0.035625 0.125 0 -0.0392188 0.13125 0 -0.0428125 0.1375 0 -0.0464063 0.14375 0 -0.05 0.15 0 0.0123775 0.05 0 0.00900836 0.05625 0 0.00563922 0.0625 0 0.00227008 0.06875 0 -0.00109906 0.075 0 -0.0044682 0.08125 0 -0.00783734 0.0875 0 -0.0112065 0.09375 0 -0.0145756 0.1 0 -0.0179448 0.10625 0 -0.0213139 0.1125 0 -0.024683 0.11875 0 -0.0280522 0.125 0 -0.0314213 0.13125 0 -0.0347905 0.1375 0 -0.0381596 0.14375 0 -0.0415288 0.15 0 0.017255 0.05 0 0.0141105 0.05625 0 0.0109659 0.0625 0 0.00782141 0.06875 0 0.00467687 0.075 0 0.00153234 0.08125 0 -0.00161219 0.0875 0 -0.00475672 0.09375 0 -0.00790125 0.1 0 -0.0110458 0.10625 0 -0.0141903 0.1125 0 -0.0173348 0.11875 0 -0.0204794 0.125 0 -0.0236239 0.13125 0 -0.0267684 0.1375 0 -0.029913 0.14375 0 -0.0330575 0.15 0 0.0221325 0.05 0 0.0192126 0.05625 0 0.0162927 0.0625 0 0.0133727 0.06875 0 0.0104528 0.075 0 0.00753289 0.08125 0 0.00461297 0.0875 0 0.00169305 0.09375 0 -0.00122688 0.1 0 -0.0041468 0.10625 0 -0.00706672 0.1125 0 -0.00998664 0.11875 0 -0.0129066 0.125 0 -0.0158265 0.13125 0 -0.0187464 0.1375 0 -0.0216663 0.14375 0 -0.0245863 0.15 0 0.02701 0.05 0 0.0243147 0.05625 0 0.0216194 0.0625 0 0.0189241 0.06875 0 0.0162287 0.075 0 0.0135334 0.08125 0 0.0108381 0.0875 0 0.00814281 0.09375 0 0.0054475 0.1 0 0.00275219 0.10625 0 5.6875e-05 0.1125 0 -0.00263844 0.11875 0 -0.00533375 0.125 0 -0.00802906 0.13125 0 -0.0107244 0.1375 0 -0.0134197 0.14375 0 -0.016115 0.15 0 0.0318875 0.05 0 0.0294168 0.05625 0 0.0269461 0.0625 0 0.0244754 0.06875 0 0.0220047 0.075 0 0.019534 0.08125 0 0.0170633 0.0875 0 0.0145926 0.09375 0 0.0121219 0.1 0 0.00965117 0.10625 0 0.00718047 0.1125 0 0.00470977 0.11875 0 0.00223906 0.125 0 -0.000231641 0.13125 0 -0.00270234 0.1375 0 -0.00517305 0.14375 0 -0.00764375 0.15 0 0.036765 0.05 0 0.0345189 0.05625 0 0.0322728 0.0625 0 0.0300267 0.06875 0 0.0277806 0.075 0 0.0255345 0.08125 0 0.0232884 0.0875 0 0.0210423 0.09375 0 0.0187963 0.1 0 0.0165502 0.10625 0 0.0143041 0.1125 0 0.012058 0.11875 0 0.00981188 0.125 0 0.00756578 0.13125 0 0.00531969 0.1375 0 0.00307359 0.14375 0 0.0008275 0.15 0 0.0416425 0.05 0 0.039621 0.05625 0 0.0375995 0.0625 0 0.035578 0.06875 0 0.0335566 0.075 0 0.0315351 0.08125 0 0.0295136 0.0875 0 0.0274921 0.09375 0 0.0254706 0.1 0 0.0234491 0.10625 0 0.0214277 0.1125 0 0.0194062 0.11875 0 0.0173847 0.125 0 0.0153632 0.13125 0 0.0133417 0.1375 0 0.0113202 0.14375 0 0.00929875 0.15 0 0.04652 0.05 0 0.0447231 0.05625 0 0.0429263 0.0625 0 0.0411294 0.06875 0 0.0393325 0.075 0 0.0375356 0.08125 0 0.0357388 0.0875 0 0.0339419 0.09375 0 0.032145 0.1 0 0.0303481 0.10625 0 0.0285513 0.1125 0 0.0267544 0.11875 0 0.0249575 0.125 0 0.0231606 0.13125 0 0.0213638 0.1375 0 0.0195669 0.14375 0 0.01777 0.15 0 0.0513975 0.05 0 0.0498252 0.05625 0 0.048253 0.0625 0 0.0466807 0.06875 0 0.0451084 0.075 0 0.0435362 0.08125 0 0.0419639 0.0875 0 0.0403916 0.09375 0 0.0388194 0.1 0 0.0372471 0.10625 0 0.0356748 0.1125 0 0.0341026 0.11875 0 0.0325303 0.125 0 0.030958 0.13125 0 0.0293858 0.1375 0 0.0278135 0.14375 0 0.0262412 0.15 0 0.056275 0.05 0 0.0549273 0.05625 0 0.0535797 0.0625 0 0.052232 0.06875 0 0.0508844 0.075 0 0.0495367 0.08125 0 0.0481891 0.0875 0 0.0468414 0.09375 0 0.0454937 0.1 0 0.0441461 0.10625 0 0.0427984 0.1125 0 0.0414508 0.11875 0 0.0401031 0.125 0 0.0387555 0.13125 0 0.0374078 0.1375 0 0.0360602 0.14375 0 0.0347125 0.15 0 0.0611525 0.05 0 0.0600295 0.05625 0 0.0589064 0.0625 0 0.0577834 0.06875 0 0.0566603 0.075 0 0.0555373 0.08125 0 0.0544142 0.0875 0 0.0532912 0.09375 0 0.0521681 0.1 0 0.0510451 0.10625 0 0.049922 0.1125 0 0.048799 0.11875 0 0.0476759 0.125 0 0.0465529 0.13125 0 0.0454298 0.1375 0 0.0443068 0.14375 0 0.0431838 0.15 0 0.06603 0.05 0 0.0651316 0.05625 0 0.0642331 0.0625 0 0.0633347 0.06875 0 0.0624363 0.075 0 0.0615378 0.08125 0 0.0606394 0.0875 0 0.0597409 0.09375 0 0.0588425 0.1 0 0.0579441 0.10625 0 0.0570456 0.1125 0 0.0561472 0.11875 0 0.0552488 0.125 0 0.0543503 0.13125 0 0.0534519 0.1375 0 0.0525534 0.14375 0 0.051655 0.15 0 0.0709075 0.05 0 0.0702337 0.05625 0 0.0695598 0.0625 0 0.068886 0.06875 0 0.0682122 0.075 0 0.0675384 0.08125 0 0.0668645 0.0875 0 0.0661907 0.09375 0 0.0655169 0.1 0 0.064843 0.10625 0 0.0641692 0.1125 0 0.0634954 0.11875 0 0.0628216 0.125 0 0.0621477 0.13125 0 0.0614739 0.1375 0 0.0608001 0.14375 0 0.0601262 0.15 0 0.075785 0.05 0 0.0753358 0.05625 0 0.0748866 0.0625 0 0.0744373 0.06875 0 0.0739881 0.075 0 0.0735389 0.08125 0 0.0730897 0.0875 0 0.0726405 0.09375 0 0.0721913 0.1 0 0.071742 0.10625 0 0.0712928 0.1125 0 0.0708436 0.11875 0 0.0703944 0.125 0 0.0699452 0.13125 0 0.0694959 0.1375 0 0.0690467 0.14375 0 0.0685975 0.15 0 0.0806625 0.05 0 0.0804379 0.05625 0 0.0802133 0.0625 0 0.0799887 0.06875 0 0.0797641 0.075 0 0.0795395 0.08125 0 0.0793148 0.0875 0 0.0790902 0.09375 0 0.0788656 0.1 0 0.078641 0.10625 0 0.0784164 0.1125 0 0.0781918 0.11875 0 0.0779672 0.125 0 0.0777426 0.13125 0 0.077518 0.1375 0 0.0772934 0.14375 0 0.0770688 0.15 0 0.08554 0.05 0 0.08554 0.05625 0 0.08554 0.0625 0 0.08554 0.06875 0 0.08554 0.075 0 0.08554 0.08125 0 0.08554 0.0875 0 0.08554 0.09375 0 0.08554 0.1 0 0.08554 0.10625 0 0.08554 0.1125 0 0.08554 0.11875 0 0.08554 0.125 0 0.08554 0.13125 0 0.08554 0.1375 0 0.08554 0.14375 0 0.08554 0.15 0 
</DataArray>
</Points> 
</Piece> 
</StructuredGrid> 
</VTKFile> 
