<?xml version="1.0"?> 
<VTKFile type="StructuredGrid" version="0.1"> 
<StructuredGrid WholeExtent="0 16 0 16 0 0"> 
<Piece Extent="0 16 0 16 0 0"> 
<CellData>
<DataArray type="Float32" Name="err_h1" format="ascii" NumberOfComponents="1"> 
183.493 148.687 126.402 107.935 93.1121 83.2576 70.8595 66.6195 53.5808 56.1293 41.4593 60.2219 54.1436 101.956 121.904 214.175 207.462 181.821 160.594 146.324 135.928 126.434 121.699 114.375 111.409 106.285 99.6518 102.212 82.6759 119.452 99.5066 228.852 26.6853 20.9227 16.8685 23.9392 21.1279 37.5388 31.3708 52.7893 43.3101 67.6156 55.1697 78.8155 68.4617 81.1196 104.272 90.9574 24.6485 27.4454 22.0827 30.0183 19.5757 38.7934 26.4744 55.3314 44.2352 77.7428 67.816 102.178 91.6521 121.343 107.025 124.268 22.3533 28.1878 24.6419 29.6167 29.1774 32.3168 35.2698 35.7558 42.7658 40.18 51.1054 45.9253 57.6819 51.3794 56.3623 52.0088 25.159 35.6638 33.4315 43.868 41.3112 51.4953 48.577 58.0999 54.7062 63.0768 59.0948 66.0377 61.5997 67.5883 63.7959 71.1261 27.6432 24.9285 29.5282 26.6596 31.5562 28.4023 33.4674 30.0448 34.9143 31.3379 35.5988 31.9995 35.6477 31.9904 36.6689 32.3884 38.9685 41.7834 40.0969 43.0109 41.3031 44.1586 42.3699 45.1064 43.2442 45.884 44.0062 46.6043 44.746 47.2188 45.122 46.7705 23.6457 20.9123 23.8247 21.0558 23.9557 21.1895 24.0011 21.2488 23.9653 21.2147 23.8892 21.115 23.7535 20.9645 23.0818 20.4509 34.7162 35.7451 34.5878 35.5616 34.4137 35.3474 34.2126 35.1002 33.9694 34.783 33.6341 34.3271 33.1381 33.6843 32.5147 33.0741 15.6307 13.6306 15.3485 13.3987 15.0711 13.1621 14.7834 12.9149 14.4638 12.6442 14.0812 12.3269 13.6157 11.9385 13.1815 11.5242 27.2345 27.4448 26.7706 26.9701 26.3137 26.492 25.8425 25.9937 25.345 25.4681 24.8198 24.9207 24.2774 24.3615 23.7106 23.7323 6.89726 5.73863 6.62665 5.48252 6.34679 5.23441 6.05334 4.98693 5.7451 4.73656 5.42751 4.48454 5.10957 4.23945 4.76397 4.01674 18.9103 18.8545 18.5909 18.5284 18.2615 18.1953 17.9233 17.855 17.5745 17.5046 17.2099 17.1369 16.8193 16.7393 16.3911 16.3109 2.75755 2.70051 2.83583 2.81102 2.92318 2.93367 3.02239 3.07382 3.13884 3.23883 3.28104 3.44041 3.46401 3.69753 3.71541 4.03509 10.6763 10.6235 10.5831 10.5333 10.4948 10.4486 10.4126 10.3711 10.3385 10.3031 10.2754 10.2481 10.2271 10.2098 10.196 10.186 
</DataArray> 
</CellData> 
<Points> 
<DataArray type="Float32" NumberOfComponents="3"> 
0.09021 0.0098 0 0.0907531 0.0110629 0 0.0912962 0.0123258 0 0.0918392 0.0135887 0 0.0923823 0.0148516 0 0.0929254 0.0161145 0 0.0934685 0.0173774 0 0.0940116 0.0186403 0 0.0945546 0.0199032 0 0.0950977 0.0211661 0 0.0956408 0.022429 0 0.0961839 0.0236919 0 0.096727 0.0249548 0 0.0972701 0.0262177 0 0.0978131 0.0274806 0 0.0983562 0.0287435 0 0.0988993 0.0300064 0 0.0970719 0.0098 0 0.097581 0.0110629 0 0.0980902 0.0123258 0 0.0985993 0.0135887 0 0.0991084 0.0148516 0 0.0996176 0.0161145 0 0.100127 0.0173774 0 0.100636 0.0186403 0 0.101145 0.0199032 0 0.101654 0.0211661 0 0.102163 0.022429 0 0.102672 0.0236919 0 0.103182 0.0249548 0 0.103691 0.0262177 0 0.1042 0.0274806 0 0.104709 0.0287435 0 0.105218 0.0300064 0 0.103934 0.0098 0 0.104409 0.0110629 0 0.104884 0.0123258 0 0.105359 0.0135887 0 0.105835 0.0148516 0 0.10631 0.0161145 0 0.106785 0.0173774 0 0.10726 0.0186403 0 0.107735 0.0199032 0 0.108211 0.0211661 0 0.108686 0.022429 0 0.109161 0.0236919 0 0.109636 0.0249548 0 0.110111 0.0262177 0 0.110586 0.0274806 0 0.111062 0.0287435 0 0.111537 0.0300064 0 0.110796 0.0098 0 0.111237 0.0110629 0 0.111678 0.0123258 0 0.112119 0.0135887 0 0.112561 0.0148516 0 0.113002 0.0161145 0 0.113443 0.0173774 0 0.113884 0.0186403 0 0.114326 0.0199032 0 0.114767 0.0211661 0 0.115208 0.022429 0 0.115649 0.0236919 0 0.116091 0.0249548 0 0.116532 0.0262177 0 0.116973 0.0274806 0 0.117414 0.0287435 0 0.117856 0.0300064 0 0.117657 0.0098 0 0.118065 0.0110629 0 0.118472 0.0123258 0 0.118879 0.0135887 0 0.119287 0.0148516 0 0.119694 0.0161145 0 0.120101 0.0173774 0 0.120509 0.0186403 0 0.120916 0.0199032 0 0.121323 0.0211661 0 0.121731 0.022429 0 0.122138 0.0236919 0 0.122545 0.0249548 0 0.122953 0.0262177 0 0.12336 0.0274806 0 0.123767 0.0287435 0 0.124174 0.0300064 0 0.124519 0.0098 0 0.124893 0.0110629 0 0.125266 0.0123258 0 0.125639 0.0135887 0 0.126013 0.0148516 0 0.126386 0.0161145 0 0.12676 0.0173774 0 0.127133 0.0186403 0 0.127506 0.0199032 0 0.12788 0.0211661 0 0.128253 0.022429 0 0.128626 0.0236919 0 0.129 0.0249548 0 0.129373 0.0262177 0 0.129747 0.0274806 0 0.13012 0.0287435 0 0.130493 0.0300064 0 0.131381 0.0098 0 0.131721 0.0110629 0 0.13206 0.0123258 0 0.1324 0.0135887 0 0.132739 0.0148516 0 0.133078 0.0161145 0 0.133418 0.0173774 0 0.133757 0.0186403 0 0.134097 0.0199032 0 0.134436 0.0211661 0 0.134776 0.022429 0 0.135115 0.0236919 0 0.135454 0.0249548 0 0.135794 0.0262177 0 0.136133 0.0274806 0 0.136473 0.0287435 0 0.136812 0.0300064 0 0.138243 0.0098 0 0.138549 0.0110629 0 0.138854 0.0123258 0 0.13916 0.0135887 0 0.139465 0.0148516 0 0.139771 0.0161145 0 0.140076 0.0173774 0 0.140382 0.0186403 0 0.140687 0.0199032 0 0.140992 0.0211661 0 0.141298 0.022429 0 0.141603 0.0236919 0 0.141909 0.0249548 0 0.142214 0.0262177 0 0.14252 0.0274806 0 0.142825 0.0287435 0 0.143131 0.0300064 0 0.145105 0.0098 0 0.145377 0.0110629 0 0.145648 0.0123258 0 0.14592 0.0135887 0 0.146191 0.0148516 0 0.146463 0.0161145 0 0.146734 0.0173774 0 0.147006 0.0186403 0 0.147277 0.0199032 0 0.147549 0.0211661 0 0.14782 0.022429 0 0.148092 0.0236919 0 0.148363 0.0249548 0 0.148635 0.0262177 0 0.148907 0.0274806 0 0.149178 0.0287435 0 0.14945 0.0300064 0 0.151967 0.0098 0 0.152204 0.0110629 0 0.152442 0.0123258 0 0.15268 0.0135887 0 0.152917 0.0148516 0 0.153155 0.0161145 0 0.153392 0.0173774 0 0.15363 0.0186403 0 0.153868 0.0199032 0 0.154105 0.0211661 0 0.154343 0.022429 0 0.15458 0.0236919 0 0.154818 0.0249548 0 0.155056 0.0262177 0 0.155293 0.0274806 0 0.155531 0.0287435 0 0.155768 0.0300064 0 0.158829 0.0098 0 0.159032 0.0110629 0 0.159236 0.0123258 0 0.15944 0.0135887 0 0.159643 0.0148516 0 0.159847 0.0161145 0 0.160051 0.0173774 0 0.160254 0.0186403 0 0.160458 0.0199032 0 0.160662 0.0211661 0 0.160865 0.022429 0 0.161069 0.0236919 0 0.161273 0.0249548 0 0.161476 0.0262177 0 0.16168 0.0274806 0 0.161884 0.0287435 0 0.162087 0.0300064 0 0.165691 0.0098 0 0.16586 0.0110629 0 0.16603 0.0123258 0 0.1662 0.0135887 0 0.166369 0.0148516 0 0.166539 0.0161145 0 0.166709 0.0173774 0 0.166879 0.0186403 0 0.167048 0.0199032 0 0.167218 0.0211661 0 0.167388 0.022429 0 0.167557 0.0236919 0 0.167727 0.0249548 0 0.167897 0.0262177 0 0.168067 0.0274806 0 0.168236 0.0287435 0 0.168406 0.0300064 0 0.172553 0.0098 0 0.172688 0.0110629 0 0.172824 0.0123258 0 0.17296 0.0135887 0 0.173096 0.0148516 0 0.173231 0.0161145 0 0.173367 0.0173774 0 0.173503 0.0186403 0 0.173639 0.0199032 0 0.173774 0.0211661 0 0.17391 0.022429 0 0.174046 0.0236919 0 0.174182 0.0249548 0 0.174318 0.0262177 0 0.174453 0.0274806 0 0.174589 0.0287435 0 0.174725 0.0300064 0 0.179414 0.0098 0 0.179516 0.0110629 0 0.179618 0.0123258 0 0.17972 0.0135887 0 0.179822 0.0148516 0 0.179924 0.0161145 0 0.180025 0.0173774 0 0.180127 0.0186403 0 0.180229 0.0199032 0 0.180331 0.0211661 0 0.180433 0.022429 0 0.180534 0.0236919 0 0.180636 0.0249548 0 0.180738 0.0262177 0 0.18084 0.0274806 0 0.180942 0.0287435 0 0.181044 0.0300064 0 0.186276 0.0098 0 0.186344 0.0110629 0 0.186412 0.0123258 0 0.18648 0.0135887 0 0.186548 0.0148516 0 0.186616 0.0161145 0 0.186684 0.0173774 0 0.186751 0.0186403 0 0.186819 0.0199032 0 0.186887 0.0211661 0 0.186955 0.022429 0 0.187023 0.0236919 0 0.187091 0.0249548 0 0.187159 0.0262177 0 0.187227 0.0274806 0 0.187295 0.0287435 0 0.187362 0.0300064 0 0.193138 0.0098 0 0.193172 0.0110629 0 0.193206 0.0123258 0 0.19324 0.0135887 0 0.193274 0.0148516 0 0.193308 0.0161145 0 0.193342 0.0173774 0 0.193376 0.0186403 0 0.19341 0.0199032 0 0.193444 0.0211661 0 0.193478 0.022429 0 0.193511 0.0236919 0 0.193545 0.0249548 0 0.193579 0.0262177 0 0.193613 0.0274806 0 0.193647 0.0287435 0 0.193681 0.0300064 0 0.2 0.0098 0 0.2 0.0110629 0 0.2 0.0123258 0 0.2 0.0135887 0 0.2 0.0148516 0 0.2 0.0161145 0 0.2 0.0173774 0 0.2 0.0186403 0 0.2 0.0199032 0 0.2 0.0211661 0 0.2 0.022429 0 0.2 0.0236919 0 0.2 0.0249548 0 0.2 0.0262177 0 0.2 0.0274806 0 0.2 0.0287435 0 0.2 0.0300064 0 
</DataArray>
</Points> 
</Piece> 
</StructuredGrid> 
</VTKFile> 
