<?xml version="1.0"?> 
<VTKFile type="StructuredGrid" version="0.1"> 
<StructuredGrid WholeExtent="0 127 0 127 0 0"> 
<Piece Extent="0 127 0 127 0 0"> 
<PointData>
<DataArray type="Float32" Name="u" format="ascii" NumberOfComponents="3"> 
981950 -406737 0 996460 -402557 0 1.01055e+06 -397960 0 1.02424e+06 -392967 0 1.03755e+06 -387600 0 1.05052e+06 -381885 0 1.06318e+06 -375843 0 1.07556e+06 -369490 0 1.08768e+06 -362843 0 1.09955e+06 -355915 0 1.1112e+06 -348718 0 1.12262e+06 -341261 0 1.13383e+06 -333553 0 1.14483e+06 -325601 0 1.15564e+06 -317413 0 1.16626e+06 -308996 0 1.17668e+06 -300354 0 1.18691e+06 -291494 0 1.19696e+06 -282420 0 1.20683e+06 -273138 0 1.21651e+06 -263652 0 1.22601e+06 -253966 0 1.23533e+06 -244086 0 1.24446e+06 -234014 0 1.25341e+06 -223755 0 1.26217e+06 -213314 0 1.27076e+06 -202693 0 1.27915e+06 -191898 0 1.28737e+06 -180931 0 1.29539e+06 -169796 0 1.30322e+06 -158499 0 1.31087e+06 -147041 0 1.31833e+06 -135427 0 1.32559e+06 -123661 0 1.33266e+06 -111746 0 1.33954e+06 -99686.8 0 1.34622e+06 -87486.4 0 1.3527e+06 -75149 0 1.35898e+06 -62678.2 0 1.36507e+06 -50077.9 0 1.37095e+06 -37352 0 1.37663e+06 -24504.4 0 1.3821e+06 -11538.8 0 1.38737e+06 1540.62 0 1.39244e+06 14730.1 0 1.3973e+06 28025.7 0 1.40194e+06 41423.3 0 1.40638e+06 54919.1 0 1.41061e+06 68509 0 1.41463e+06 82189 0 1.41843e+06 95955 0 1.42202e+06 109803 0 1.42539e+06 123729 0 1.42856e+06 137729 0 1.4315e+06 151798 0 1.43423e+06 165934 0 1.43674e+06 180130 0 1.43904e+06 194385 0 1.44111e+06 208692 0 1.44297e+06 223049 0 1.44461e+06 237450 0 1.44603e+06 251893 0 1.44724e+06 266372 0 1.44822e+06 280884 0 1.44899e+06 295425 0 1.44954e+06 309990 0 1.44987e+06 324575 0 1.44998e+06 339177 0 1.44988e+06 353790 0 1.44955e+06 368412 0 1.44901e+06 383037 0 1.44826e+06 397663 0 1.44729e+06 412285 0 1.4461e+06 426898 0 1.44471e+06 441500 0 1.44309e+06 456085 0 1.44127e+06 470651 0 1.43923e+06 485193 0 1.43699e+06 499707 0 1.43454e+06 514189 0 1.43188e+06 528637 0 1.42901e+06 543045 0 1.42594e+06 557411 0 1.42266e+06 571730 0 1.41918e+06 585999 0 1.4155e+06 600214 0 1.41163e+06 614372 0 1.40755e+06 628470 0 1.40328e+06 642503 0 1.39882e+06 656468 0 1.39417e+06 670362 0 1.38932e+06 684182 0 1.38429e+06 697925 0 1.37908e+06 711586 0 1.37368e+06 725163 0 1.36809e+06 738653 0 1.36233e+06 752053 0 1.3564e+06 765359 0 1.35028e+06 778570 0 1.344e+06 791681 0 1.33755e+06 804690 0 1.33092e+06 817595 0 1.32414e+06 830392 0 1.31719e+06 843079 0 1.31008e+06 855653 0 1.30281e+06 868112 0 1.29539e+06 880453 0 1.28782e+06 892674 0 1.28009e+06 904773 0 1.27222e+06 916746 0 1.26421e+06 928593 0 1.25606e+06 940311 0 1.24776e+06 951897 0 1.23933e+06 963350 0 1.23077e+06 974668 0 1.22208e+06 985849 0 1.21326e+06 996890 0 1.20432e+06 1.00779e+06 0 1.19526e+06 1.01855e+06 0 1.18607e+06 1.02916e+06 0 1.17678e+06 1.03963e+06 0 1.16737e+06 1.04995e+06 0 1.15785e+06 1.06013e+06 0 1.14822e+06 1.07015e+06 0 1.13849e+06 1.08002e+06 0 1.12866e+06 1.08974e+06 0 1.11873e+06 1.0993e+06 0 1.10871e+06 1.10871e+06 0 992521 -326043 0 1.00335e+06 -322469 0 1.01407e+06 -318404 0 1.02468e+06 -313903 0 1.03517e+06 -309005 0 1.04551e+06 -303744 0 1.05572e+06 -298144 0 1.06579e+06 -292227 0 1.07571e+06 -286012 0 1.08549e+06 -279513 0 1.09511e+06 -272745 0 1.10459e+06 -265718 0 1.11391e+06 -258444 0 1.12308e+06 -250931 0 1.13209e+06 -243189 0 1.14095e+06 -235226 0 1.14966e+06 -227048 0 1.1582e+06 -218662 0 1.16659e+06 -210074 0 1.17482e+06 -201290 0 1.18288e+06 -192317 0 1.19078e+06 -183159 0 1.19852e+06 -173821 0 1.20609e+06 -164308 0 1.21349e+06 -154626 0 1.22073e+06 -144778 0 1.22779e+06 -134770 0 1.23469e+06 -124606 0 1.2414e+06 -114290 0 1.24795e+06 -103827 0 1.25432e+06 -93220.6 0 1.26051e+06 -82475.5 0 1.26652e+06 -71595.7 0 1.27235e+06 -60585.6 0 1.278e+06 -49449.2 0 1.28346e+06 -38190.7 0 1.28874e+06 -26814.2 0 1.29384e+06 -15323.8 0 1.29875e+06 -3723.7 0 1.30347e+06 7982.08 0 1.308e+06 19789.4 0 1.31235e+06 31694.3 0 1.3165e+06 43692.5 0 1.32046e+06 55780.1 0 1.32422e+06 67952.9 0 1.3278e+06 80206.9 0 1.33118e+06 92538 0 1.33437e+06 104942 0 1.33736e+06 117415 0 1.34015e+06 129953 0 1.34275e+06 142552 0 1.34516e+06 155208 0 1.34736e+06 167917 0 1.34937e+06 180675 0 1.35119e+06 193477 0 1.35281e+06 206320 0 1.35423e+06 219201 0 1.35545e+06 232114 0 1.35648e+06 245056 0 1.35732e+06 258023 0 1.35795e+06 271012 0 1.3584e+06 284018 0 1.35865e+06 297037 0 1.3587e+06 310066 0 1.35856e+06 323101 0 1.35823e+06 336138 0 1.35771e+06 349174 0 1.357e+06 362205 0 1.3561e+06 375227 0 1.355e+06 388236 0 1.35373e+06 401229 0 1.35226e+06 414203 0 1.35061e+06 427154 0 1.34878e+06 440078 0 1.34676e+06 452972 0 1.34456e+06 465834 0 1.34219e+06 478658 0 1.33963e+06 491444 0 1.3369e+06 504186 0 1.33399e+06 516882 0 1.33091e+06 529529 0 1.32766e+06 542123 0 1.32424e+06 554663 0 1.32066e+06 567144 0 1.3169e+06 579565 0 1.31299e+06 591921 0 1.30891e+06 604211 0 1.30467e+06 616432 0 1.30027e+06 628580 0 1.29572e+06 640654 0 1.29102e+06 652652 0 1.28616e+06 664569 0 1.28116e+06 676405 0 1.276e+06 688156 0 1.27071e+06 699821 0 1.26527e+06 711397 0 1.25969e+06 722882 0 1.25397e+06 734274 0 1.24812e+06 745571 0 1.24214e+06 756771 0 1.23603e+06 767872 0 1.22979e+06 778872 0 1.22342e+06 789769 0 1.21693e+06 800562 0 1.21032e+06 811249 0 1.20359e+06 821828 0 1.19675e+06 832298 0 1.18979e+06 842658 0 1.18272e+06 852905 0 1.17555e+06 863038 0 1.16826e+06 873057 0 1.16088e+06 882959 0 1.1534e+06 892744 0 1.14581e+06 902411 0 1.13814e+06 911957 0 1.13037e+06 921383 0 1.1225e+06 930688 0 1.11456e+06 939869 0 1.10652e+06 948928 0 1.0984e+06 957861 0 1.09021e+06 966670 0 1.08193e+06 975353 0 1.07358e+06 983909 0 1.06515e+06 992338 0 1.05666e+06 1.00064e+06 0 1.0481e+06 1.00881e+06 0 1.03947e+06 1.01686e+06 0 1.03078e+06 1.02477e+06 0 993259 -265772 0 1.00193e+06 -261515 0 1.01057e+06 -256968 0 1.01916e+06 -252135 0 1.0277e+06 -247022 0 1.03617e+06 -241639 0 1.04456e+06 -235994 0 1.05286e+06 -230094 0 1.06107e+06 -223950 0 1.06917e+06 -217569 0 1.07717e+06 -210958 0 1.08505e+06 -204125 0 1.09282e+06 -197078 0 1.10046e+06 -189822 0 1.10798e+06 -182364 0 1.11537e+06 -174710 0 1.12263e+06 -166867 0 1.12975e+06 -158839 0 1.13673e+06 -150633 0 1.14357e+06 -142253 0 1.15027e+06 -133704 0 1.15682e+06 -124992 0 1.16323e+06 -116121 0 1.16948e+06 -107097 0 1.17558e+06 -97922.8 0 1.18153e+06 -88604.3 0 1.18731e+06 -79145.7 0 1.19294e+06 -69551.3 0 1.19841e+06 -59825.6 0 1.20372e+06 -49972.9 0 1.20886e+06 -39997.5 0 1.21384e+06 -29903.8 0 1.21865e+06 -19695.9 0 1.22329e+06 -9378.02 0 1.22776e+06 1045.59 0 1.23207e+06 11570.8 0 1.2362e+06 22193.4 0 1.24015e+06 32909.3 0 1.24394e+06 43714.4 0 1.24754e+06 54604.5 0 1.25098e+06 65575.6 0 1.25423e+06 76623.7 0 1.25731e+06 87744.6 0 1.26021e+06 98934.4 0 1.26294e+06 110189 0 1.26548e+06 121504 0 1.26785e+06 132876 0 1.27003e+06 144301 0 1.27204e+06 155775 0 1.27387e+06 167294 0 1.27552e+06 178854 0 1.27699e+06 190452 0 1.27828e+06 202082 0 1.2794e+06 213742 0 1.28033e+06 225428 0 1.28109e+06 237136 0 1.28167e+06 248862 0 1.28207e+06 260603 0 1.2823e+06 272355 0 1.28235e+06 284114 0 1.28223e+06 295877 0 1.28194e+06 307640 0 1.28147e+06 319400 0 1.28083e+06 331153 0 1.28002e+06 342896 0 1.27904e+06 354625 0 1.27789e+06 366338 0 1.27658e+06 378031 0 1.2751e+06 389701 0 1.27346e+06 401344 0 1.27165e+06 412957 0 1.26969e+06 424539 0 1.26756e+06 436084 0 1.26528e+06 447592 0 1.26284e+06 459058 0 1.26025e+06 470480 0 1.2575e+06 481855 0 1.2546e+06 493181 0 1.25156e+06 504454 0 1.24837e+06 515673 0 1.24503e+06 526834 0 1.24155e+06 537936 0 1.23793e+06 548976 0 1.23417e+06 559952 0 1.23028e+06 570861 0 1.22625e+06 581701 0 1.22209e+06 592470 0 1.2178e+06 603167 0 1.21338e+06 613788 0 1.20883e+06 624333 0 1.20417e+06 634799 0 1.19938e+06 645184 0 1.19447e+06 655487 0 1.18944e+06 665706 0 1.1843e+06 675839 0 1.17905e+06 685886 0 1.17369e+06 695843 0 1.16822e+06 705711 0 1.16265e+06 715487 0 1.15698e+06 725170 0 1.1512e+06 734760 0 1.14533e+06 744254 0 1.13936e+06 753651 0 1.13329e+06 762952 0 1.12714e+06 772154 0 1.1209e+06 781256 0 1.11457e+06 790258 0 1.10815e+06 799159 0 1.10166e+06 807958 0 1.09508e+06 816654 0 1.08843e+06 825246 0 1.0817e+06 833735 0 1.0749e+06 842118 0 1.06803e+06 850396 0 1.0611e+06 858568 0 1.05409e+06 866634 0 1.04702e+06 874593 0 1.03989e+06 882445 0 1.0327e+06 890189 0 1.02545e+06 897825 0 1.01815e+06 905353 0 1.01079e+06 912773 0 1.00338e+06 920084 0 995926 927287 0 988422 934381 0 980871 941365 0 973278 948241 0 965643 955008 0 987198 -215791 0 994478 -211168 0 1.00173e+06 -206318 0 1.00894e+06 -201245 0 1.01611e+06 -195952 0 1.02321e+06 -190446 0 1.03025e+06 -184729 0 1.03722e+06 -178806 0 1.04411e+06 -172682 0 1.05092e+06 -166362 0 1.05763e+06 -159850 0 1.06425e+06 -153151 0 1.07076e+06 -146269 0 1.07717e+06 -139211 0 1.08347e+06 -131979 0 1.08966e+06 -124579 0 1.09573e+06 -117015 0 1.10167e+06 -109292 0 1.10749e+06 -101414 0 1.11319e+06 -93385.5 0 1.11875e+06 -85211.3 0 1.12418e+06 -76895.6 0 1.12947e+06 -68442.5 0 1.13462e+06 -59856.4 0 1.13964e+06 -51141.5 0 1.14451e+06 -42302.2 0 1.14923e+06 -33342.4 0 1.15381e+06 -24266.6 0 1.15823e+06 -15078.7 0 1.16251e+06 -5782.89 0 1.16664e+06 3616.65 0 1.17061e+06 13115.9 0 1.17442e+06 22710.6 0 1.17808e+06 32397 0 1.18158e+06 42170.8 0 1.18492e+06 52028 0 1.1881e+06 61964.7 0 1.19113e+06 71976.8 0 1.19399e+06 82060.3 0 1.19668e+06 92211.4 0 1.19922e+06 102426 0 1.20159e+06 112700 0 1.2038e+06 123030 0 1.20584e+06 133412 0 1.20772e+06 143842 0 1.20944e+06 154316 0 1.21099e+06 164830 0 1.21238e+06 175381 0 1.2136e+06 185965 0 1.21466e+06 196577 0 1.21556e+06 207216 0 1.21629e+06 217876 0 1.21686e+06 228554 0 1.21727e+06 239247 0 1.21752e+06 249951 0 1.2176e+06 260663 0 1.21753e+06 271379 0 1.2173e+06 282096 0 1.21691e+06 292810 0 1.21637e+06 303518 0 1.21566e+06 314218 0 1.21481e+06 324905 0 1.2138e+06 335577 0 1.21264e+06 346230 0 1.21133e+06 356862 0 1.20987e+06 367469 0 1.20826e+06 378049 0 1.20651e+06 388599 0 1.20461e+06 399116 0 1.20257e+06 409597 0 1.20039e+06 420040 0 1.19807e+06 430441 0 1.19561e+06 440800 0 1.19302e+06 451112 0 1.1903e+06 461376 0 1.18744e+06 471589 0 1.18445e+06 481749 0 1.18134e+06 491854 0 1.1781e+06 501902 0 1.17473e+06 511890 0 1.17125e+06 521816 0 1.16764e+06 531680 0 1.16392e+06 541478 0 1.16008e+06 551209 0 1.15613e+06 560871 0 1.15207e+06 570463 0 1.1479e+06 579982 0 1.14362e+06 589428 0 1.13924e+06 598799 0 1.13476e+06 608093 0 1.13018e+06 617310 0 1.1255e+06 626447 0 1.12073e+06 635503 0 1.11586e+06 644479 0 1.1109e+06 653371 0 1.10586e+06 662180 0 1.10072e+06 670903 0 1.09551e+06 679542 0 1.09021e+06 688093 0 1.08483e+06 696557 0 1.07937e+06 704933 0 1.07384e+06 713220 0 1.06824e+06 721418 0 1.06256e+06 729525 0 1.05682e+06 737541 0 1.05101e+06 745467 0 1.04514e+06 753300 0 1.0392e+06 761041 0 1.0332e+06 768690 0 1.02714e+06 776246 0 1.02103e+06 783709 0 1.01487e+06 791078 0 1.00865e+06 798354 0 1.00238e+06 805536 0 996058 812623 0 989694 819617 0 983284 826517 0 976832 833323 0 970339 840034 0 963807 846651 0 957237 853175 0 950632 859604 0 943993 865940 0 937321 872182 0 930619 878330 0 923888 884386 0 917130 890348 0 910347 896217 0 977187 -173403 0 983430 -168556 0 989635 -163528 0 995796 -158318 0 1.00191e+06 -152930 0 1.00796e+06 -147366 0 1.01395e+06 -141627 0 1.01987e+06 -135717 0 1.02572e+06 -129639 0 1.03149e+06 -123395 0 1.03717e+06 -116989 0 1.04277e+06 -110425 0 1.04827e+06 -103706 0 1.05367e+06 -96834.7 0 1.05897e+06 -89815.7 0 1.06417e+06 -82652.5 0 1.06925e+06 -75348.7 0 1.07423e+06 -67908 0 1.07909e+06 -60334.2 0 1.08383e+06 -52631.1 0 1.08844e+06 -44802.5 0 1.09294e+06 -36852.2 0 1.0973e+06 -28784.1 0 1.10154e+06 -20601.9 0 1.10565e+06 -12309.6 0 1.10962e+06 -3911.07 0 1.11346e+06 4589.93 0 1.11716e+06 13189.5 0 1.12072e+06 21883.8 0 1.12414e+06 30668.9 0 1.12742e+06 39541 0 1.13055e+06 48496.2 0 1.13354e+06 57530.7 0 1.13638e+06 66640.7 0 1.13908e+06 75822.2 0 1.14163e+06 85071.6 0 1.14403e+06 94384.9 0 1.14628e+06 103758 0 1.14838e+06 113188 0 1.15033e+06 122671 0 1.15213e+06 132202 0 1.15378e+06 141779 0 1.15528e+06 151397 0 1.15663e+06 161053 0 1.15782e+06 170744 0 1.15887e+06 180465 0 1.15976e+06 190213 0 1.16051e+06 199984 0 1.1611e+06 209776 0 1.16155e+06 219584 0 1.16184e+06 229405 0 1.16199e+06 239236 0 1.16199e+06 249073 0 1.16184e+06 258914 0 1.16155e+06 268754 0 1.16111e+06 278591 0 1.16053e+06 288422 0 1.15981e+06 298243 0 1.15894e+06 308052 0 1.15794e+06 317845 0 1.15679e+06 327619 0 1.15551e+06 337373 0 1.15409e+06 347102 0 1.15254e+06 356805 0 1.15085e+06 366478 0 1.14904e+06 376119 0 1.14709e+06 385725 0 1.14502e+06 395294 0 1.14282e+06 404824 0 1.14049e+06 414312 0 1.13804e+06 423756 0 1.13548e+06 433153 0 1.13279e+06 442502 0 1.12999e+06 451801 0 1.12707e+06 461046 0 1.12404e+06 470238 0 1.1209e+06 479373 0 1.11765e+06 488449 0 1.11429e+06 497466 0 1.11083e+06 506421 0 1.10727e+06 515313 0 1.1036e+06 524140 0 1.09984e+06 532902 0 1.09599e+06 541595 0 1.09203e+06 550220 0 1.08799e+06 558774 0 1.08386e+06 567257 0 1.07964e+06 575667 0 1.07534e+06 584004 0 1.07095e+06 592266 0 1.06648e+06 600452 0 1.06193e+06 608562 0 1.05731e+06 616595 0 1.05261e+06 624549 0 1.04784e+06 632424 0 1.043e+06 640220 0 1.0381e+06 647936 0 1.03312e+06 655571 0 1.02808e+06 663125 0 1.02298e+06 670597 0 1.01783e+06 677987 0 1.01261e+06 685294 0 1.00734e+06 692518 0 1.00201e+06 699659 0 996633 706717 0 991205 713692 0 985729 720582 0 980207 727389 0 974641 734112 0 969033 740751 0 963384 747306 0 957696 753777 0 951971 760164 0 946210 766468 0 940416 772688 0 934590 778824 0 928734 784878 0 922849 790848 0 916936 796735 0 910998 802540 0 905036 808262 0 899051 813903 0 893045 819462 0 887019 824939 0 880975 830336 0 874913 835652 0 868836 840889 0 862745 846045 0 964871 -136954 0 970272 -132003 0 975631 -126897 0 980943 -121639 0 986201 -116228 0 991401 -110667 0 996539 -104958 0 1.00161e+06 -99103.2 0 1.0066e+06 -93104.5 0 1.01152e+06 -86964.5 0 1.01636e+06 -80685.8 0 1.02111e+06 -74271.1 0 1.02578e+06 -67723.1 0 1.03035e+06 -61044.8 0 1.03482e+06 -54239.2 0 1.0392e+06 -47309.4 0 1.04347e+06 -40258.6 0 1.04763e+06 -33090 0 1.05169e+06 -25806.8 0 1.05563e+06 -18412.5 0 1.05946e+06 -10910.4 0 1.06317e+06 -3303.86 0 1.06677e+06 4403.58 0 1.07024e+06 12208.4 0 1.07359e+06 20107.2 0 1.07681e+06 28096.4 0 1.07991e+06 36172.4 0 1.08287e+06 44331.6 0 1.08571e+06 52570.5 0 1.08841e+06 60885.5 0 1.09099e+06 69272.9 0 1.09342e+06 77729.1 0 1.09573e+06 86250.7 0 1.09789e+06 94833.9 0 1.09992e+06 103475 0 1.10181e+06 112171 0 1.10357e+06 120917 0 1.10518e+06 129711 0 1.10666e+06 138549 0 1.108e+06 147427 0 1.10919e+06 156342 0 1.11025e+06 165290 0 1.11117e+06 174268 0 1.11195e+06 183272 0 1.11259e+06 192299 0 1.11309e+06 201346 0 1.11345e+06 210409 0 1.11367e+06 219485 0 1.11376e+06 228571 0 1.11371e+06 237664 0 1.11353e+06 246760 0 1.11321e+06 255856 0 1.11275e+06 264950 0 1.11216e+06 274038 0 1.11144e+06 283117 0 1.11059e+06 292184 0 1.10961e+06 301237 0 1.1085e+06 310273 0 1.10727e+06 319289 0 1.10591e+06 328283 0 1.10442e+06 337251 0 1.10281e+06 346191 0 1.10109e+06 355101 0 1.09924e+06 363979 0 1.09727e+06 372821 0 1.09519e+06 381627 0 1.09299e+06 390392 0 1.09068e+06 399116 0 1.08827e+06 407797 0 1.08574e+06 416431 0 1.0831e+06 425018 0 1.08036e+06 433556 0 1.07752e+06 442042 0 1.07458e+06 450475 0 1.07153e+06 458853 0 1.0684e+06 467175 0 1.06516e+06 475439 0 1.06183e+06 483643 0 1.05842e+06 491787 0 1.05491e+06 499869 0 1.05132e+06 507887 0 1.04764e+06 515841 0 1.04388e+06 523730 0 1.04004e+06 531551 0 1.03613e+06 539305 0 1.03213e+06 546990 0 1.02807e+06 554605 0 1.02393e+06 562150 0 1.01972e+06 569623 0 1.01544e+06 577025 0 1.0111e+06 584354 0 1.00669e+06 591611 0 1.00223e+06 598793 0 997699 605901 0 993115 612935 0 988475 619893 0 983782 626776 0 979037 633584 0 974242 640315 0 969400 646971 0 964512 653550 0 959579 660053 0 954605 666479 0 949590 672829 0 944536 679102 0 939446 685299 0 934320 691419 0 929160 697464 0 923969 703432 0 918748 709324 0 913497 715140 0 908220 720881 0 902917 726546 0 897591 732136 0 892241 737652 0 886871 743093 0 881481 748460 0 876072 753754 0 870647 758974 0 865206 764122 0 859750 769197 0 854282 774200 0 848801 779131 0 843311 783992 0 837810 788782 0 832301 793501 0 826785 798152 0 821263 802733 0 951188 -105400 0 955894 -100415 0 960553 -95296.3 0 965160 -90045.4 0 969712 -84663.3 0 974204 -79151.4 0 978631 -73511.4 0 982990 -67744.9 0 987278 -61854.1 0 991489 -55840.8 0 995621 -49707.4 0 999670 -43456 0 1.00363e+06 -37089.3 0 1.00751e+06 -30609.7 0 1.01129e+06 -24019.9 0 1.01497e+06 -17322.6 0 1.01856e+06 -10520.6 0 1.02204e+06 -3616.84 0 1.02542e+06 3385.77 0 1.0287e+06 10484.2 0 1.03186e+06 17675.4 0 1.03492e+06 24956.1 0 1.03786e+06 32323.4 0 1.04069e+06 39773.9 0 1.0434e+06 47304.4 0 1.04599e+06 54911.6 0 1.04847e+06 62592.3 0 1.05082e+06 70343 0 1.05305e+06 78160.6 0 1.05515e+06 86041.6 0 1.05713e+06 93982.7 0 1.05899e+06 101980 0 1.06072e+06 110032 0 1.06232e+06 118133 0 1.06379e+06 126280 0 1.06514e+06 134471 0 1.06636e+06 142702 0 1.06744e+06 150969 0 1.0684e+06 159270 0 1.06923e+06 167600 0 1.06993e+06 175958 0 1.0705e+06 184338 0 1.07094e+06 192739 0 1.07125e+06 201157 0 1.07144e+06 209589 0 1.07149e+06 218032 0 1.07142e+06 226482 0 1.07122e+06 234937 0 1.0709e+06 243393 0 1.07045e+06 251849 0 1.06988e+06 260300 0 1.06918e+06 268744 0 1.06837e+06 277178 0 1.06743e+06 285600 0 1.06637e+06 294007 0 1.06519e+06 302395 0 1.0639e+06 310764 0 1.06249e+06 319109 0 1.06097e+06 327429 0 1.05933e+06 335721 0 1.05758e+06 343983 0 1.05572e+06 352213 0 1.05376e+06 360408 0 1.05169e+06 368566 0 1.04951e+06 376686 0 1.04723e+06 384765 0 1.04485e+06 392802 0 1.04237e+06 400794 0 1.0398e+06 408739 0 1.03713e+06 416637 0 1.03436e+06 424485 0 1.0315e+06 432282 0 1.02856e+06 440026 0 1.02552e+06 447715 0 1.0224e+06 455350 0 1.0192e+06 462927 0 1.01592e+06 470446 0 1.01255e+06 477906 0 1.00911e+06 485306 0 1.0056e+06 492644 0 1.00201e+06 499919 0 998346 507131 0 994616 514279 0 990819 521362 0 986956 528378 0 983030 535329 0 979042 542212 0 974996 549027 0 970892 555775 0 966733 562453 0 962521 569063 0 958257 575602 0 953944 582073 0 949583 588473 0 945176 594802 0 940726 601061 0 936233 607250 0 931700 613368 0 927129 619415 0 922521 625392 0 917878 631298 0 913201 637133 0 908493 642897 0 903754 648591 0 898988 654215 0 894194 659769 0 889375 665253 0 884532 670668 0 879667 676013 0 874781 681290 0 869875 686497 0 864951 691637 0 860011 696708 0 855055 701712 0 850085 706650 0 845102 711520 0 840108 716324 0 835103 721063 0 830089 725736 0 825066 730345 0 820037 734890 0 815002 739371 0 809962 743789 0 804918 748144 0 799871 752437 0 794823 756669 0 789773 760840 0 784723 764951 0 936780 -77929.2 0 940894 -72960.9 0 944959 -67875.2 0 948970 -62673.3 0 952923 -57356.2 0 956815 -51925.3 0 960642 -46382.1 0 964401 -40728.1 0 968088 -34965.2 0 971700 -29095.2 0 975234 -23120.1 0 978687 -17042.1 0 982056 -10863.2 0 985338 -4585.9 0 988531 1787.45 0 991631 8254.35 0 994637 14812.2 0 997546 21458.4 0 1.00035e+06 28190.2 0 1.00306e+06 35004.8 0 1.00567e+06 41899.4 0 1.00817e+06 48871.1 0 1.01056e+06 55917 0 1.01284e+06 63034 0 1.01501e+06 70219.3 0 1.01707e+06 77469.6 0 1.01902e+06 84782 0 1.02085e+06 92153.3 0 1.02257e+06 99580.5 0 1.02417e+06 107060 0 1.02566e+06 114590 0 1.02702e+06 122166 0 1.02827e+06 129785 0 1.0294e+06 137444 0 1.03041e+06 145140 0 1.03129e+06 152870 0 1.03206e+06 160631 0 1.03271e+06 168419 0 1.03324e+06 176232 0 1.03364e+06 184066 0 1.03393e+06 191919 0 1.0341e+06 199787 0 1.03414e+06 207667 0 1.03407e+06 215557 0 1.03388e+06 223453 0 1.03357e+06 231353 0 1.03315e+06 239253 0 1.03261e+06 247152 0 1.03195e+06 255046 0 1.03118e+06 262932 0 1.03029e+06 270808 0 1.0293e+06 278672 0 1.02819e+06 286520 0 1.02697e+06 294351 0 1.02564e+06 302161 0 1.0242e+06 309949 0 1.02266e+06 317712 0 1.02102e+06 325447 0 1.01927e+06 333154 0 1.01742e+06 340829 0 1.01547e+06 348470 0 1.01342e+06 356076 0 1.01127e+06 363645 0 1.00903e+06 371174 0 1.0067e+06 378662 0 1.00427e+06 386107 0 1.00176e+06 393507 0 999158 400862 0 996470 408169 0 993699 415426 0 990845 422634 0 987912 429789 0 984900 436891 0 981812 443939 0 978650 450931 0 975416 457867 0 972111 464745 0 968739 471565 0 965299 478325 0 961796 485026 0 958230 491665 0 954604 498242 0 950919 504757 0 947177 511210 0 943381 517598 0 939533 523923 0 935633 530184 0 931685 536379 0 927689 542510 0 923649 548575 0 919565 554575 0 915439 560509 0 911274 566377 0 907070 572179 0 902831 577915 0 898556 583585 0 894249 589189 0 889911 594727 0 885543 600199 0 881147 605606 0 876724 610947 0 872277 616222 0 867806 621433 0 863314 626578 0 858800 631659 0 854268 636676 0 849719 641628 0 845153 646518 0 840572 651344 0 835977 656107 0 831370 660808 0 826752 665447 0 822123 670025 0 817486 674541 0 812842 678997 0 808191 683394 0 803534 687731 0 798873 692009 0 794209 696229 0 789542 700391 0 784873 704495 0 780204 708544 0 775536 712536 0 770868 716472 0 766203 720354 0 761541 724182 0 756882 727956 0 752228 731677 0 922053 -53917.9 0 925660 -48999.9 0 929215 -43977.7 0 932714 -38852.3 0 936154 -33624.9 0 939532 -28296.6 0 942845 -22869 0 946090 -17343.4 0 949263 -11721.7 0 952363 -6005.43 0 955385 -196.592 0 958329 5702.88 0 961190 11690.9 0 963967 17765.4 0 966658 23924 0 969259 30164.4 0 971769 36484.3 0 974185 42881.1 0 976507 49352.4 0 978731 55895.5 0 980856 62507.7 0 982881 69186.5 0 984803 75928.9 0 986622 82732.3 0 988337 89593.8 0 989945 96510.5 0 991446 103480 0 992838 110498 0 994122 117563 0 995296 124672 0 996359 131822 0 997311 139009 0 998152 146231 0 998880 153484 0 999497 160767 0 1e+06 168076 0 1.00039e+06 175407 0 1.00067e+06 182759 0 1.00084e+06 190128 0 1.00089e+06 197511 0 1.00084e+06 204906 0 1.00067e+06 212310 0 1.00039e+06 219720 0 999998 227132 0 999499 234546 0 998891 241957 0 998174 249363 0 997351 256763 0 996421 264152 0 995386 271529 0 994247 278891 0 993004 286236 0 991660 293562 0 990216 300866 0 988673 308146 0 987031 315400 0 985294 322626 0 983461 329822 0 981536 336985 0 979519 344115 0 977412 351209 0 975216 358265 0 972934 365281 0 970567 372257 0 968116 379190 0 965585 386079 0 962974 392923 0 960284 399720 0 957520 406468 0 954681 413167 0 951769 419816 0 948788 426412 0 945738 432956 0 942622 439446 0 939441 445882 0 936197 452261 0 932893 458584 0 929530 464850 0 926109 471059 0 922634 477208 0 919105 483299 0 915525 489330 0 911896 495301 0 908219 501211 0 904496 507060 0 900729 512849 0 896920 518576 0 893071 524241 0 889183 529844 0 885258 535385 0 881297 540865 0 877303 546282 0 873278 551637 0 869222 556930 0 865137 562161 0 861026 567330 0 856888 572438 0 852727 577484 0 848544 582468 0 844339 587391 0 840115 592254 0 835873 597056 0 831614 601798 0 827340 606480 0 823051 611102 0 818750 615666 0 814437 620171 0 810114 624617 0 805781 629006 0 801441 633337 0 797094 637612 0 792741 641830 0 788383 645993 0 784021 650100 0 779657 654152 0 775291 658150 0 770925 662095 0 766559 665987 0 762193 669826 0 757830 673613 0 753469 677349 0 749112 681035 0 744759 684670 0 740411 688256 0 736069 691793 0 731733 695281 0 727405 698723 0 723084 702117 0 907290 -32858.8 0 910456 -28014.4 0 913568 -23076.7 0 916624 -18046.6 0 919619 -12925.2 0 922552 -7713.72 0 925420 -2413.65 0 928220 2973.6 0 930950 8446.45 0 933607 14003.2 0 936188 19642.1 0 938692 25361.2 0 941116 31158.6 0 943457 37032.3 0 945715 42980.1 0 947887 48999.8 0 949970 55089.2 0 951964 61245.8 0 953866 67467.4 0 955674 73751.5 0 957389 80095.6 0 959006 86497.1 0 960527 92953.4 0 961949 99462 0 963271 106020 0 964492 112625 0 965611 119274 0 966628 125965 0 967542 132694 0 968352 139459 0 969058 146258 0 969658 153086 0 970154 159943 0 970544 166824 0 970829 173727 0 971009 180650 0 971083 187589 0 971052 194543 0 970916 201507 0 970675 208480 0 970330 215459 0 969882 222442 0 969330 229425 0 968676 236406 0 967920 243383 0 967064 250353 0 966107 257314 0 965051 264264 0 963898 271200 0 962647 278119 0 961301 285021 0 959860 291902 0 958326 298760 0 956700 305593 0 954984 312400 0 953178 319179 0 951285 325926 0 949306 332642 0 947242 339323 0 945095 345969 0 942867 352577 0 940559 359147 0 938173 365676 0 935711 372163 0 933174 378606 0 930565 385006 0 927884 391359 0 925135 397665 0 922318 403923 0 919435 410132 0 916489 416291 0 913481 422398 0 910412 428454 0 907286 434457 0 904103 440406 0 900865 446300 0 897575 452140 0 894234 457924 0 890844 463652 0 887406 469324 0 883923 474938 0 880397 480495 0 876828 485995 0 873219 491436 0 869572 496820 0 865888 502144 0 862169 507411 0 858416 512618 0 854632 517767 0 850818 522858 0 846975 527889 0 843105 532863 0 839210 537777 0 835291 542633 0 831349 547431 0 827387 552172 0 823405 556854 0 819405 561479 0 815389 566046 0 811357 570557 0 807311 575012 0 803252 579410 0 799182 583752 0 795102 588039 0 791012 592271 0 786915 596449 0 782811 600572 0 778701 604642 0 774587 608659 0 770469 612624 0 766348 616536 0 762227 620397 0 758104 624207 0 753982 627967 0 749861 631677 0 745742 635338 0 741626 638950 0 737513 642514 0 733405 646031 0 729303 649501 0 725206 652925 0 721116 656303 0 717033 659636 0 712958 662924 0 708892 666169 0 704834 669371 0 700787 672530 0 696750 675647 0 892676 -14338.3 0 895456 -9583.07 0 898181 -4743.51 0 900849 179.358 0 903456 5184.38 0 906001 10270.3 0 908481 15435.8 0 910893 20679.4 0 913237 25999.6 0 915508 31394.8 0 917706 36863.2 0 919828 42403 0 921872 48012.4 0 923836 53689.4 0 925718 59432 0 927517 65238.1 0 929232 71105.4 0 930859 77031.9 0 932398 83015.2 0 933848 89052.9 0 935207 95142.9 0 936474 101282 0 937648 107469 0 938728 113701 0 939712 119975 0 940601 126289 0 941393 132640 0 942087 139025 0 942684 145443 0 943183 151890 0 943582 158363 0 943883 164861 0 944085 171381 0 944187 177919 0 944190 184474 0 944094 191043 0 943900 197623 0 943606 204212 0 943214 210807 0 942725 217406 0 942138 224007 0 941454 230606 0 940674 237202 0 939799 243792 0 938830 250373 0 937766 256945 0 936610 263503 0 935363 270047 0 934025 276574 0 932597 283082 0 931081 289568 0 929479 296032 0 927790 302471 0 926018 308882 0 924162 315266 0 922225 321618 0 920208 327939 0 918112 334226 0 915940 340477 0 913692 346692 0 911371 352868 0 908977 359005 0 906513 365101 0 903980 371155 0 901381 377165 0 898716 383130 0 895987 389050 0 893197 394923 0 890347 400748 0 887439 406525 0 884474 412252 0 881454 417929 0 878381 423555 0 875258 429130 0 872085 434652 0 868864 440122 0 865597 445538 0 862286 450900 0 858933 456208 0 855540 461462 0 852107 466661 0 848637 471805 0 845131 476894 0 841592 481927 0 838020 486904 0 834417 491826 0 830785 496693 0 827126 501503 0 823441 506258 0 819732 510958 0 815999 515602 0 812245 520190 0 808471 524724 0 804678 529203 0 800868 533627 0 797042 537997 0 793202 542312 0 789348 546574 0 785482 550783 0 781606 554938 0 777720 559041 0 773826 563092 0 769924 567091 0 766017 571038 0 762104 574935 0 758187 578781 0 754268 582578 0 750346 586325 0 746424 590023 0 742502 593673 0 738580 597276 0 734660 600831 0 730743 604339 0 726830 607801 0 722920 611218 0 719016 614591 0 715117 617918 0 711225 621202 0 707340 624443 0 703462 627642 0 699593 630798 0 695733 633914 0 691883 636988 0 688043 640023 0 684213 643018 0 680395 645974 0 676588 648892 0 672793 651772 0 878338 1987.32 0 880777 6643.42 0 883161 11376.1 0 885486 16184.3 0 887752 21066.9 0 889956 26022.6 0 892095 31050.1 0 894168 36148.1 0 896173 41314.9 0 898107 46549 0 899969 51848.7 0 901757 57212.4 0 903469 62638.1 0 905103 68124 0 906658 73668.1 0 908133 79268.5 0 909525 84923 0 910834 90629.6 0 912058 96386.1 0 913196 102190 0 914246 108040 0 915209 113933 0 916082 119866 0 916866 125838 0 917558 131846 0 918160 137887 0 918669 143960 0 919085 150062 0 919409 156190 0 919639 162342 0 919776 168515 0 919820 174707 0 919769 180916 0 919625 187139 0 919388 193373 0 919057 199617 0 918633 205868 0 918117 212123 0 917508 218381 0 916807 224638 0 916016 230892 0 915134 237142 0 914162 243386 0 913101 249619 0 911952 255842 0 910717 262051 0 909395 268245 0 907988 274422 0 906497 280579 0 904923 286715 0 903268 292827 0 901533 298915 0 899719 304976 0 897827 311008 0 895859 317011 0 893817 322981 0 891701 328919 0 889514 334822 0 887256 340689 0 884930 346518 0 882537 352309 0 880078 358059 0 877556 363769 0 874971 369436 0 872327 375060 0 869623 380640 0 866863 386175 0 864047 391663 0 861177 397105 0 858256 402499 0 855284 407844 0 852264 413140 0 849198 418387 0 846086 423583 0 842931 428729 0 839734 433824 0 836497 438867 0 833222 443858 0 829910 448797 0 826563 453684 0 823182 458518 0 819770 463299 0 816328 468028 0 812857 472703 0 809359 477326 0 805835 481895 0 802287 486412 0 798717 490876 0 795125 495287 0 791514 499645 0 787884 503951 0 784237 508205 0 780575 512407 0 776898 516557 0 773209 520656 0 769507 524704 0 765796 528701 0 762074 532648 0 758345 536545 0 754609 540392 0 750866 544191 0 747119 547940 0 743369 551642 0 739615 555295 0 735860 558902 0 732104 562462 0 728348 565975 0 724593 569443 0 720840 572866 0 717090 576245 0 713344 579579 0 709602 582870 0 705865 586118 0 702134 589324 0 698409 592488 0 694692 595611 0 690983 598693 0 687282 601736 0 683591 604739 0 679909 607703 0 676238 610629 0 672578 613518 0 668928 616370 0 665291 619185 0 661666 621965 0 658054 624709 0 654455 627418 0 650869 630094 0 864355 16405.6 0 866492 20956.4 0 868573 25577.2 0 870597 30266.7 0 872561 35024 0 874463 39847.7 0 876301 44736.5 0 878075 49689 0 879781 54703.8 0 881418 59779.2 0 882984 64913.8 0 884478 70105.7 0 885898 75353.2 0 887243 80654.6 0 888511 86007.8 0 889701 91411.1 0 890811 96862.4 0 891841 102360 0 892789 107901 0 893654 113484 0 894436 119106 0 895133 124766 0 895745 130462 0 896270 136190 0 896709 141949 0 897061 147736 0 897324 153550 0 897500 159387 0 897587 165246 0 897586 171124 0 897496 177019 0 897318 182928 0 897050 188850 0 896694 194782 0 896250 200721 0 895718 206666 0 895098 212614 0 894391 218563 0 893597 224511 0 892717 230455 0 891752 236394 0 890701 242325 0 889567 248246 0 888350 254156 0 887051 260051 0 885670 26593