<?xml version="1.0"?> 
<VTKFile type="StructuredGrid" version="0.1"> 
<StructuredGrid WholeExtent="0 127 0 127 0 0"> 
<Piece Extent="0 127 0 127 0 0"> 
<PointData>
<DataArray type="Float32" Name="u" format="ascii" NumberOfComponents="3"> 
-948141 0 0 -943025 0 0 -937721 0 0 -932228 0 0 -926549 0 0 -920683 0 0 -914635 0 0 -908406 0 0 -901999 0 0 -895418 0 0 -888667 0 0 -881750 0 0 -874671 0 0 -867436 0 0 -860051 0 0 -852520 0 0 -844849 0 0 -837045 0 0 -829115 0 0 -821063 0 0 -812898 0 0 -804626 0 0 -796253 0 0 -787787 0 0 -779234 0 0 -770601 0 0 -761895 0 0 -753122 0 0 -744289 0 0 -735403 0 0 -726470 0 0 -717497 0 0 -708489 0 0 -699452 0 0 -690392 0 0 -681314 0 0 -672224 0 0 -663128 0 0 -654029 0 0 -644932 0 0 -635842 0 0 -626764 0 0 -617700 0 0 -608655 0 0 -599633 0 0 -590637 0 0 -581669 0 0 -572733 0 0 -563831 0 0 -554967 0 0 -546142 0 0 -537358 0 0 -528617 0 0 -519921 0 0 -511273 0 0 -502672 0 0 -494120 0 0 -485619 0 0 -477169 0 0 -468772 0 0 -460427 0 0 -452136 0 0 -443899 0 0 -435716 0 0 -427588 0 0 -419515 0 0 -411497 0 0 -403534 0 0 -395625 0 0 -387771 0 0 -379971 0 0 -372225 0 0 -364533 0 0 -356894 0 0 -349307 0 0 -341773 0 0 -334290 0 0 -326859 0 0 -319477 0 0 -312145 0 0 -304862 0 0 -297627 0 0 -290439 0 0 -283297 0 0 -276201 0 0 -269150 0 0 -262142 0 0 -255177 0 0 -248254 0 0 -241372 0 0 -234529 0 0 -227726 0 0 -220961 0 0 -214233 0 0 -207540 0 0 -200883 0 0 -194259 0 0 -187669 0 0 -181110 0 0 -174582 0 0 -168084 0 0 -161614 0 0 -155172 0 0 -148757 0 0 -142367 0 0 -136002 0 0 -129660 0 0 -123340 0 0 -117042 0 0 -110764 0 0 -104505 0 0 -98263.8 0 0 -92039.9 0 0 -85832 0 0 -79639 0 0 -73459.8 0 0 -67293.4 0 0 -61138.6 0 0 -54994.5 0 0 -48859.9 0 0 -42733.8 0 0 -36615.2 0 0 -30502.9 0 0 -24396 0 0 -18293.3 0 0 -12193.7 0 0 -6096.34 0 0 -2.09192e-07 0 0 -948161 2335.34 0 -943083 2411.7 0 -937817 2487.31 0 -932365 2561.96 0 -926729 2635.48 0 -920909 2707.67 0 -914908 2778.37 0 -908728 2847.41 0 -902372 2914.62 0 -895843 2979.86 0 -889146 3042.99 0 -882285 3103.87 0 -875264 3162.41 0 -868087 3218.49 0 -860761 3272.02 0 -853290 3322.93 0 -845681 3371.16 0 -837939 3416.66 0 -830071 3459.39 0 -822082 3499.33 0 -813980 3536.47 0 -805771 3570.81 0 -797461 3602.36 0 -789058 3631.16 0 -780568 3657.22 0 -771998 3680.61 0 -763354 3701.36 0 -754642 3719.54 0 -745871 3735.22 0 -737045 3748.47 0 -728172 3759.37 0 -719257 3768.01 0 -710307 3774.47 0 -701327 3778.85 0 -692323 3781.24 0 -683301 3781.73 0 -674265 3780.42 0 -665221 3777.42 0 -656174 3772.82 0 -647128 3766.71 0 -638087 3759.2 0 -629057 3750.39 0 -620041 3740.36 0 -611042 3729.2 0 -602065 3717.02 0 -593113 3703.9 0 -584188 3689.92 0 -575294 3675.17 0 -566433 3659.72 0 -557609 3643.66 0 -548822 3627.06 0 -540076 3609.99 0 -531373 3592.52 0 -522713 3574.71 0 -514100 3556.62 0 -505533 3538.32 0 -497016 3519.86 0 -488548 3501.3 0 -480130 3482.68 0 -471765 3464.04 0 -463451 3445.45 0 -455191 3426.93 0 -446984 3408.52 0 -438831 3390.28 0 -430733 3372.22 0 -422688 3354.38 0 -414698 3336.79 0 -406763 3319.48 0 -398882 3302.48 0 -391056 3285.81 0 -383284 3269.49 0 -375565 3253.55 0 -367900 3238 0 -360288 3222.86 0 -352729 3208.16 0 -345222 3193.9 0 -337766 3180.1 0 -330362 3166.78 0 -323008 3153.94 0 -315703 3141.6 0 -308447 3129.77 0 -301240 3118.46 0 -294080 3107.67 0 -286967 3097.43 0 -279899 3087.72 0 -272877 3078.57 0 -265898 3069.98 0 -258963 3061.96 0 -252070 3054.5 0 -245219 3047.63 0 -238408 3041.33 0 -231636 3035.63 0 -224903 3030.51 0 -218207 3026 0 -211548 3022.08 0 -204925 3018.78 0 -198336 3016.08 0 -191781 3014 0 -185258 3012.54 0 -178767 3011.7 0 -172307 3011.48 0 -165876 3011.9 0 -159473 3012.96 0 -153098 3014.66 0 -146750 3017 0 -140427 3019.98 0 -134128 3023.63 0 -127853 3027.93 0 -121600 3032.89 0 -115368 3038.52 0 -109157 3044.83 0 -102965 3051.81 0 -96790.9 3059.48 0 -90634.2 3067.83 0 -84493.6 3076.89 0 -78368.2 3086.64 0 -72256.9 3097.1 0 -66158.7 3108.28 0 -60072.5 3120.17 0 -53997.3 3132.8 0 -47932.2 3146.16 0 -41876.1 3160.27 0 -35827.9 3175.12 0 -29786.7 3190.74 0 -23751.3 3207.12 0 -17721 3224.28 0 -11694.5 3242.22 0 -5670.85 3260.96 0 -948223 4670.68 0 -943180 4822.39 0 -937953 4972.61 0 -932542 5120.99 0 -926947 5267.15 0 -921172 5410.72 0 -915217 5551.37 0 -909085 5688.76 0 -902780 5822.57 0 -896303 5952.52 0 -889659 6078.33 0 -882852 6199.74 0 -875887 6316.53 0 -868767 6428.5 0 -861499 6535.47 0 -854087 6637.28 0 -846538 6733.82 0 -838856 6824.98 0 -831049 6910.69 0 -823122 6990.9 0 -815082 7065.58 0 -806935 7134.74 0 -798687 7198.39 0 -790346 7256.59 0 -781917 7309.39 0 -773408 7356.89 0 -764825 7399.17 0 -756175 7436.35 0 -747464 7468.57 0 -738698 7495.96 0 -729883 7518.69 0 -721026 7536.91 0 -712133 7550.8 0 -703210 7560.54 0 -694261 7566.3 0 -685293 7568.28 0 -676310 7566.67 0 -667319 7561.66 0 -658323 7553.45 0 -649327 7542.22 0 -640336 7528.17 0 -631354 7511.49 0 -622385 7492.37 0 -613433 7470.98 0 -604500 7447.52 0 -595592 7422.14 0 -586710 7395.03 0 -577858 7366.35 0 -569038 7336.26 0 -560253 7304.9 0 -551506 7272.44 0 -542798 7239.01 0 -534132 7204.74 0 -525509 7169.77 0 -516931 7134.22 0 -508399 7098.21 0 -499915 7061.85 0 -491481 7025.24 0 -483096 6988.49 0 -474763 6951.7 0 -466481 6914.94 0 -458251 6878.31 0 -450075 6841.88 0 -441952 6805.74 0 -433883 6769.94 0 -425868 6734.56 0 -417907 6699.65 0 -410000 6665.28 0 -402147 6631.49 0 -394349 6598.35 0 -386604 6565.88 0 -378913 6534.14 0 -371276 6503.17 0 -363691 6473 0 -356160 6443.66 0 -348680 6415.2 0 -341252 6387.64 0 -333875 6361 0 -326548 6335.32 0 -319271 6310.62 0 -312043 6286.91 0 -304864 6264.22 0 -297732 6242.57 0 -290648 6221.97 0 -283609 6202.44 0 -276616 6184 0 -269667 6166.66 0 -262761 6150.43 0 -255899 6135.32 0 -249078 6121.36 0 -242298 6108.53 0 -235558 6096.87 0 -228857 6086.38 0 -222195 6077.06 0 -215569 6068.92 0 -208980 6061.98 0 -202426 6056.25 0 -195906 6051.72 0 -189420 6048.41 0 -182965 6046.33 0 -176543 6045.49 0 -170150 6045.88 0 -163787 6047.53 0 -157452 6050.44 0 -151145 6054.61 0 -144864 6060.06 0 -138608 6066.8 0 -132377 6074.82 0 -126169 6084.15 0 -119984 6094.79 0 -113820 6106.75 0 -107676 6120.04 0 -101552 6134.68 0 -95445.9 6150.66 0 -89357.4 6168.01 0 -83285.3 6186.73 0 -77228.6 6206.83 0 -71186.4 6228.33 0 -65157.6 6251.25 0 -59141.3 6275.58 0 -53136.4 6301.36 0 -47142.1 6328.58 0 -41157.3 6357.27 0 -35181 6387.44 0 -29212.2 6419.1 0 -23250.1 6452.27 0 -17293.6 6486.98 0 -11341.7 6523.22 0 -948325 7006.02 0 -943318 7232.09 0 -938129 7456.01 0 -932757 7677.22 0 -927205 7895.18 0 -921473 8109.35 0 -915564 8319.22 0 -909480 8524.31 0 -903223 8724.15 0 -896796 8918.3 0 -890205 9106.36 0 -883451 9287.96 0 -876540 9462.75 0 -869477 9630.43 0 -862265 9790.74 0 -854911 9943.45 0 -847420 10088.4 0 -839798 10225.4 0 -832051 10354.3 0 -824184 10475.1 0 -816204 10587.7 0 -808118 10692.1 0 -799931 10788.4 0 -791650 10876.6 0 -783282 10956.8 0 -774834 11029.1 0 -766311 11093.7 0 -757720 11150.7 0 -749068 11200.3 0 -740360 11242.7 0 -731604 11278.1 0 -722804 11306.9 0 -713968 11329.1 0 -705099 11345.2 0 -696206 11355.3 0 -687291 11359.7 0 -678362 11358.8 0 -669422 11352.8 0 -660477 11341.9 0 -651531 11326.6 0 -642589 11306.9 0 -633655 11283.3 0 -624733 11256.1 0 -615826 11225.4 0 -606939 11191.5 0 -598074 11154.7 0 -589235 11115.4 0 -580425 11073.6 0 -571646 11029.6 0 -562901 10983.7 0 -554193 10936.2 0 -545523 10887.1 0 -536894 10836.7 0 -528308 10785.2 0 -519765 10732.8 0 -511269 10679.7 0 -502819 10626 0 -494418 10571.9 0 -486067 10517.5 0 -477765 10463 0 -469515 10408.6 0 -461317 10354.3 0 -453171 10300.2 0 -445079 10246.5 0 -437039 10193.3 0 -429053 10140.7 0 -421122 10088.8 0 -413244 10037.6 0 -405419 9987.24 0 -397649 9937.82 0 -389933 9889.39 0 -382270 9842.01 0 -374660 9795.75 0 -367103 9750.65 0 -359599 9706.78 0 -352147 9664.19 0 -344747 9622.91 0 -337397 9582.99 0 -330098 9544.47 0 -322849 9507.38 0 -315650 9471.76 0 -308499 9437.64 0 -301396 9405.05 0 -294339 9374.01 0 -287330 9344.54 0 -280366 9316.68 0 -273446 9290.44 0 -266571 9265.84 0 -259739 9242.9 0 -252949 9221.64 0 -246201 9202.07 0 -239492 9184.22 0 -232824 9168.08 0 -226194 9153.68 0 -219602 9141.04 0 -213047 9130.15 0 -206528 9121.05 0 -200043 9113.73 0 -193593 9108.21 0 -187176 9104.5 0 -180791 9102.61 0 -174437 9102.56 0 -168113 9104.36 0 -161818 9108.01 0 -155552 9113.53 0 -149313 9120.93 0 -143100 9130.22 0 -136913 9141.42 0 -130750 9154.53 0 -124610 9169.58 0 -118493 9186.57 0 -112398 9205.51 0 -106322 9226.43 0 -100267 9249.34 0 -94230.1 9274.24 0 -88210.9 9301.17 0 -82208.4 9330.13 0 -76221.7 9361.13 0 -70249.7 9394.21 0 -64291.6 9429.37 0 -58346.4 9466.63 0 -52413.2 9506.02 0 -46491 9547.55 0 -40578.9 9591.25 0 -34675.9 9637.13 0 -28781.2 9685.22 0 -22893.7 9735.54 0 -17012.6 9788.11 0 -948469 9341.33 0 -943497 9640.86 0 -938345 9937.58 0 -933013 10230.8 0 -927502 10519.7 0 -921813 10803.8 0 -915948 11082.2 0 -909910 11354.3 0 -903701 11619.6 0 -897324 11877.5 0 -890784 12127.4 0 -884082 12368.9 0 -877225 12601.4 0 -870216 12824.6 0 -863060 13038.2 0 -855763 13241.8 0 -848329 13435.2 0 -840765 13618.2 0 -833076 13790.5 0 -825268 13952.2 0 -817347 14103.2 0 -809320 14243.3 0 -801193 14372.8 0 -792972 14491.5 0 -784664 14599.7 0 -776274 14697.6 0 -767810 14785.1 0 -759278 14862.7 0 -750684 14930.5 0 -742034 14988.8 0 -733335 15037.9 0 -724592 15078 0 -715811 15109.6 0 -706997 15132.9 0 -698158 15148.3 0 -689297 15156.2 0 -680419 15156.9 0 -671531 15150.9 0 -662637 15138.3 0 -653741 15119.8 0 -644847 15095.5 0 -635961 15066 0 -627085 15031.4 0 -618224 14992.3 0 -609381 14949 0 -600560 14901.7 0 -591764 14850.9 0 -582995 14796.8 0 -574257 14739.8 0 -565553 14680.2 0 -556883 14618.2 0 -548252 14554.2 0 -539660 14488.4 0 -531110 14421.1 0 -522604 14352.5 0 -514143 14282.9 0 -505728 14212.4 0 -497360 14141.3 0 -489042 14069.9 0 -480773 13998.2 0 -472555 13926.5 0 -464388 13854.9 0 -456273 13783.6 0 -448211 13712.7 0 -440202 13642.5 0 -432246 13573 0 -424343 13504.3 0 -416494 13436.6 0 -408699 13369.9 0 -400957 13304.4 0 -393269 13240.2 0 -385634 13177.4 0 -378053 13116 0 -370524 13056.1 0 -363048 12997.8 0 -355623 12941.1 0 -348251 12886.2 0 -340929 12833 0 -333659 12781.7 0 -326438 12732.2 0 -319266 12684.7 0 -312144 12639.1 0 -305069 12595.5 0 -298042 12553.9 0 -291062 12514.4 0 -284127 12477 0 -277238 12441.8 0 -270393 12408.6 0 -263591 12377.7 0 -256832 12348.9 0 -250115 12322.4 0 -243439 12298.1 0 -236803 12276.1 0 -230206 12256.4 0 -223647 12239 0 -217126 12223.8 0 -210642 12211 0 -204193 12200.6 0 -197779 12192.5 0 -191398 12186.8 0 -185051 12183.5 0 -178735 12182.6 0 -172451 12184.1 0 -166196 12188 0 -159971 12194.4 0 -153773 12203.3 0 -147603 12214.6 0 -141460 12228.4 0 -135341 12244.8 0 -129247 12263.7 0 -123177 12285.1 0 -117129 12309 0 -111103 12335.6 0 -105097 12364.7 0 -99111.8 12396.5 0 -93145.1 12430.9 0 -87196.2 12467.9 0 -81264.5 12507.6 0 -75348.8 12550.1 0 -69448.3 12595.2 0 -63562.2 12643 0 -57689.4 12693.7 0 -51829.1 12747.1 0 -45980.4 12803.3 0 -40142.4 12862.4 0 -34314.1 12924.4 0 -28494.8 12989.2 0 -22683.5 13056.9 0 -948653 11676.6 0 -943716 12048.7 0 -938601 12417.4 0 -933308 12781.8 0 -927837 13141 0 -922191 13494.1 0 -916370 13840.4 0 -910377 14179.1 0 -904215 14509.3 0 -897887 14830.5 0 -891396 15141.8 0 -884746 15442.8 0 -877941 15732.9 0 -870985 16011.5 0 -863884 16278.3 0 -856642 16532.8 0 -849264 16774.7 0 -841757 17003.8 0 -834125 17219.8 0 -826375 17422.7 0 -818512 17612.3 0 -810543 17788.7 0 -802475 17951.8 0 -794312 18101.7 0 -786062 18238.5 0 -777731 18362.5 0 -769325 18473.8 0 -760850 18572.7 0 -752313 18659.5 0 -743720 18734.5 0 -735077 18798.1 0 -726389 18850.5 0 -717663 18892.3 0 -708904 18923.9 0 -700118 18945.5 0 -691309 18957.8 0 -682484 18961.1 0 -673647 18956 0 -664802 18942.7 0 -655955 18921.9 0 -647110 18894 0 -638271 18859.4 0 -629441 18818.6 0 -620626 18771.9 0 -611828 18720 0 -603050 18663.1 0 -594296 18601.7 0 -585570 18536.1 0 -576873 18466.9 0 -568208 18394.3 0 -559578 18318.7 0 -550985 18240.5 0 -542430 18159.9 0 -533917 18077.4 0 -525447 17993.3 0 -517021 17907.7 0 -508640 17821.1 0 -500307 17733.6 0 -492022 17645.6 0 -483786 17557.2 0 -475600 17468.7 0 -467465 17380.3 0 -459381 17292.2 0 -451349 17204.5 0 -443371 17117.6 0 -435444 17031.5 0 -427572 16946.4 0 -419752 16862.4 0 -411986 16779.7 0 -404273 16698.4 0 -396613 16618.6 0 -389007 16540.5 0 -381454 16464.1 0 -373953 16389.6 0 -366505 16316.9 0 -359109 16246.3 0 -351765 16177.8 0 -344471 16111.4 0 -337229 16047.3 0 -330036 15985.5 0 -322893 15926 0 -315799 15868.9 0 -308754 15814.2 0 -301756 15762.1 0 -294805 15712.5 0 -287900 15665.4 0 -281040 15621 0 -274225 15579.2 0 -267455 15540.1 0 -260727 15503.7 0 -254041 15470.1 0 -247397 15439.2 0 -240794 15411 0 -234230 15385.7 0 -227705 15363.2 0 -221218 15343.6 0 -214768 15326.8 0 -208355 15312.9 0 -201977 15301.9 0 -195633 15293.8 0 -189323 15288.7 0 -183046 15286.6 0 -176800 15287.4 0 -170586 15291.2 0 -164401 15298 0 -158245 15307.8 0 -152118 15320.7 0 -146017 15336.7 0 -139943 15355.7 0 -133895 15377.8 0 -127871 15403.1 0 -121871 15431.4 0 -115893 15463 0 -109937 15497.7 0 -104002 15535.6 0 -98087.6 15576.8 0 -92192 15621.2 0 -86314.7 15668.8 0 -80454.7 15719.8 0 -74611.3 15774 0 -68783.6 15831.7 0 -62970.6 15892.6 0 -57171.5 15957 0 -51385.4 16024.9 0 -45611.5 16096.1 0 -39848.9 16170.9 0 -34096.9 16249.2 0 -28354.4 16331 0 -948879 14011.9 0 -943977 14455.7 0 -938898 14895.6 0 -933643 15330.3 0 -928212 15759 0 -922607 16180.7 0 -916829 16594.2 0 -910881 16998.8 0 -904765 17393.5 0 -898485 17777.5 0 -892043 18149.9 0 -885443 18510.2 0 -878689 18857.5 0 -871785 19191.4 0 -864737 19511.3 0 -857549 19816.7 0 -850226 20107.2 0 -842774 20382.6 0 -835199 20642.5 0 -827505 20886.9 0 -819699 21115.6 0 -811787 21328.5 0 -803776 21525.7 0 -795671 21707.3 0 -787478 21873.4 0 -779204 22024.3 0 -770855 22160 0 -762437 22281 0 -753956 22387.6 0 -745419 22480.1 0 -736831 22559 0 -728198 22624.6 0 -719526 22677.6 0 -710820 22718.2 0 -702087 22747 0 -693330 22764.6 0 -684556 22771.5 0 -675769 22768.2 0 -666974 22755.2 0 -658176 22733.1 0 -649379 22702.4 0 -640586 22663.7 0 -631803 22617.5 0 -623033 22564.3 0 -614279 22504.5 0 -605545 22438.9 0 -596833 22367.7 0 -588148 22291.5 0 -579492 22210.8 0 -570867 22126 0 -562276 22037.6 0 -553721 21945.9 0 -545205 21851.3 0 -536729 21754.3 0 -528294 21655.2 0 -519903 21554.4 0 -511558 21452.1 0 -503258 21348.8 0 -495007 21244.7 0 -486804 21140.1 0 -478650 21035.3 0 -470547 20930.5 0 -462495 20826 0 -454494 20722.1 0 -446546 20618.8 0 -438650 20516.4 0 -430807 20415.2 0 -423017 20315.3 0 -415280 20216.8 0 -407596 20119.9 0 -399965 20024.8 0 -392388 19931.6 0 -384863 19840.4 0 -377391 19751.3 0 -369971 19664.5 0 -362604 19580 0 -355287 19498 0 -348023 19418.5 0 -340809 19341.7 0 -333645 19267.5 0 -326531 19196.1 0 -319465 19127.4 0 -312449 19061.7 0 -305480 18998.9 0 -298559 18939.1 0 -291683 18882.4 0 -284854 18828.7 0 -278070 18778.1 0 -271330 18730.7 0 -264633 18686.5 0 -257979 18645.5 0 -251367 18607.7 0 -244796 18573.3 0 -238266 18542.1 0 -231774 18514.3 0 -225322 18489.9 0 -218907 18468.9 0 -212529 18451.2 0 -206187 18437 0 -199880 18426.2 0 -193608 18418.9 0 -187368 18415.1 0 -181162 18414.9 0 -174987 18418.1 0 -168843 18424.9 0 -162728 18435.3 0 -156643 18449.2 0 -150586 18466.8 0 -144556 18488 0 -138553 18512.8 0 -132575 18541.3 0 -126622 18573.5 0 -120693 18609.5 0 -114786 18649.1 0 -108902 18692.6 0 -103039 18739.8 0 -97195.6 18790.8 0 -91372.2 18845.6 0 -85567.5 18904.4 0 -79780.6 18967 0 -74010.6 19033.5 0 -68256.7 19104 0 -62518.1 19178.5 0 -56793.9 19257 0 -51083.4 19339.5 0 -45385.6 19426.1 0 -39699.9 19516.8 0 -34025.3 19611.6 0 -949146 16347.1 0 -944278 16861.9 0 -939235 17372.1 0 -934018 17876.6 0 -928626 18374.1 0 -923062 18863.6 0 -917326 19343.8 0 -911422 19813.8 0 -905352 20272.4 0 -899118 20718.8 0 -892723 21152 0 -886172 21571.2 0 -879469 21975.7 0 -872616 22364.7 0 -865620 22737.6 0 -858485 23093.9 0 -851216 23433.1 0 -843818 23754.9 0 -836297 24059 0 -828659 24345.2 0 -820909 24613.2 0 -813053 24863.2 0 -805098 25095 0 -797048 25308.9 0 -788912 25504.8 0 -780694 25683.1 0 -772401 25844 0 -764038 25987.8 0 -755613 26114.9 0 -747131 26225.8 0 -738597 26320.8 0 -730018 26400.5 0 -721399 26465.4 0 -712747 26516 0 -704065 26553 0 -695360 26576.8 0 -686636 26588.2 0 -677899 26587.7 0 -669154 26575.9 0 -660404 26553.4 0 -651654 26520.9 0 -642908 26479 0 -634170 26428.2 0 -625445 26369.3 0 -616735 26302.7 0 -608044 26229.1 0 -599375 26149.1 0 -590732 26063.1 0 -582116 25971.7 0 -573531 25875.5 0 -564979 25774.9 0 -556463 25670.4 0 -547984 25562.6 0 -539544 25451.7 0 -531146 25338.4 0 -522791 25222.9 0 -514480 25105.6 0 -506215 24987.1 0 -497997 24867.4 0 -489827 24747.2 0 -481706 24626.5 0 -473635 24505.8 0 -465614 24385.4 0 -457645 24265.4 0 -449727 24146.2 0 -441862 24028 0 -434049 23911 0 -426289 23795.4 0 -418581 23681.4 0 -410927 23569.2 0 -403325 23458.9 0 -395777 23350.9 0 -388281 23245 0 -380837 23141.6 0 -373446 23040.8 0 -366107 22942.6 0 -358820 22847.2 0 -351584 22754.6 0 -344398 22665.1 0 -337263 22578.6 0 -330178 22495.2 0 -323142 22415.1 0 -316154 22338.3 0 -309215 22264.8 0 -302323 22194.7 0 -295478 22128.2 0 -288679 22065.1 0 -281925 22005.7 0 -275216 21949.8 0 -268551 21897.6 0 -261929 21849.1 0 -255349 21804.4 0 -248811 21763.4 0 -242313 21726.2 0 -235856 21692.9 0 -229437 21663.4 0 -223057 21637.8 0 -216715 21616.1 0 -210409 21598.4 0 -204139 21584.6 0 -197904 21574.8 0 -191703 21569 0 -185535 21567.2 0 -179400 21569.5 0 -173296 21575.9 0 -167223 21586.3 0 -161180 21600.9 0 -155166 21619.6 0 -149180 21642.4 0 -143222 21669.5 0 -137290 21700.7 0 -131383 21736.2 0 -125502 21775.9 0 -119644 21819.9 0 -113810 21868.2 0 -107998 21920.8 0 -102207 21977.8 0 -96437.1 22039.1 0 -90687 22104.9 0 -84955.9 22175 0 -79243.1 22249.7 0 -73547.7 22328.9 0 -67868.9 22412.6 0 -62205.9 22500.8 0 -56557.9 22593.7 0 -50924.2 22691.1 0 -45303.9 22793.3 0 -39696.3 22900.2 0 -949454 18682.3 0 -944620 19267.3 0 -939613 19847.1 0 -934433 20420.6 0 -929080 20986.3 0 -923556 21543 0 -917862 22089.3 0 -912001 22624.2 0 -905975 23146.4 0 -899786 23654.8 0 -893439 24148.4 0 -886936 24626.4 0 -880281 25087.7 0 -873479 25531.7 0 -866534 25957.6 0 -859450 26364.8 0 -852234 26752.8 0 -844889 27121.2 0 -837422 27469.6 0 -829838 27797.8 0 -822142 28105.7 0 -814341 28393.1 0 -806440 28660 0 -798446 28906.6 0 -790365 29132.9 0 -782202 29339.3 0 -773963 29526 0 -765656 29693.3 0 -757285 29841.8 0 -748856 29971.7 0 -740376 30083.7 0 -731850 30178.3 0 -723284 30256.1 0 -714683 30317.6 0 -706053 30363.6 0 -697399 30394.6 0 -688725 30411.3 0 -680038 30414.5 0 -671341 30404.8 0 -662638 30382.8 0 -653935 30349.4 0 -645236 30305.2 0 -636544 30250.9 0 -627863 30187.1 0 -619197 30114.6 0 -610549 30033.9 0 -601922 29945.8 0 -593320 29850.8 0 -584745 29749.6 0 -576200 29642.7 0 -567687 29530.8 0 -559209 29414.3 0 -550768 29293.8 0 -542365 29169.8 0 -534003 29042.8 0 -525684 28913.3 0 -517408 28781.7 0 -509177 28648.4 0 -500993 28513.8 0 -492856 28378.4 0 -484768 28242.4 0 -476729 28106.3 0 -468740 27970.3 0 -460802 27834.8 0 -452916 27700 0 -445081 27566.3 0 -437298 27433.8 0 -429568 27302.9 0 -421890 27173.7 0 -414265 27046.4 0 -406693 26921.3 0 -399174 26798.6 0 -391707 26678.3 0 -384292 26560.8 0 -376930 26446 0 -369620 26334.2 0 -362361 26225.5 0 -355154 26120 0 -347997 26017.8 0 -340891 25919.1 0 -333835 25823.9 0 -326828 25732.2 0 -319871 25644.3 0 -312961 25560.1 0 -306099 25479.8 0 -299284 25403.3 0 -292515 25330.8 0 -285792 25262.4 0 -279114 25198 0 -272480 25137.7 0 -265890 25081.5 0 -259343 25029.6 0 -252837 24981.9 0 -246373 24938.5 0 -239949 24899.4 0 -233565 24864.6 0 -227220 24834.2 0 -220913 24808.2 0 -214643 24786.6 0 -208409 24769.5 0 -202212 24756.9 0 -196049 24748.7 0 -189920 24745.1 0 -183824 24746.1 0 -177761 24751.6 0 -171729 24761.7 0 -165728 24776.4 0 -159756 24795.8 0 -153814 24819.8 0 -147900 24848.6 0 -142014 24882 0 -136154 24920.2 0 -130320 24963.1 0 -124511 25010.8 0 -118726 25063.4 0 -112965 25120.8 0 -107226 25183 0 -101509 25250.2 0 -95813.2 25322.2 0 -90137.4 25399.3 0 -84481.1 25481.3 0 -78843.5 25568.3 0 -73223.8 25660.4 0 -67621.3 25757.6 0 -62035.1 25859.9 0 -56464.5 25967.3 0 -50908.9 26080 0 -45367.3 26197.8 0 -949804 21017.5 0 -945004 21671.9 0 -940032 22320.7 0 -934888 22962.5 0 -929573 23595.8 0 -924089 24219.1 0 -918436 24831 0 -912617 25430.3 0 -906634 26015.6 0 -900491 26585.7 0 -894189 27139.4 0 -887733 27675.8 0 -881126 28193.9 0 -874373 28692.7 0 -867478 29171.6 0 -860445 29629.7 0 -853280 30066.6 0 -845987 30481.8 0 -838573 30874.8 0 -831041 31245.3 0 -823399 31593.3 0 -815651 31918.5 0 -807805 32220.9 0 -799865 32500.8 0 -791837 32758.1 0 -783728 32993.2 0 -775543 33206.3 0 -767289 33397.9 0 -758972 33568.4 0 -750596 33718.2 0 -742169 33848 0 -733695 33958.3 0 -725181 34049.8 0 -716631 34123.1 0 -708052 34178.9 0 -699448 34217.9 0 -690824 34241 0 -682185 34248.8 0 -673536 34242.1 0 -664881 34221.6 0 -656224 34188.2 0 -647571 34142.6 0 -638924 34085.6 0 -630287 34017.8 0 -621665 33940.2 0 -613060 33853.3 0 -604475 33758 0 -595914 33654.8 0 -587379 33544.5 0 -578874 33427.8 0 -570400 33305.2 0 -561961 33177.4 0 -553557 33045.1 0 -545191 32908.6 0 -536866 32768.7 0 -528582 32625.7 0 -520341 32480.3 0 -512145 32332.9 0 -503994 32183.9 0 -495891 32033.9 0 -487835 31883.1 0 -479829 31732 0 -471872 31581 0 -463966 31430.3 0 -456110 31280.4 0 -448306 31131.5 0 -440554 30984 0 -432854 30838 0 -425207 30693.9 0 -417611 30551.9 0 -410069 30412.2 0 -402579 30275 0 -395141 30140.5 0 -387756 30009 0 -380423 29880.5 0 -373142 29755.3 0 -365912 29633.4 0 -358734 29515 0 -351606 29400.3 0 -344529 29289.4 0 -337503 29182.3 0 -330525 29079.2 0 -323597 28980.1 0 -316717 28885.2 0 -309885 28794.6 0 -303100 28708.2 0 -296362 28626.2 0 -289670 28548.7 0 -283023 28475.6 0 -276421 28407.1 0 -269863 28343.2 0 -263348 28283.9 0 -256875 28229.3 0 -250444 28179.5 0 -244054 28134.4 0 -237704 28094.1 0 -231394 28058.7 0 -225122 28028.1 0 -218888 28002.4 0 -212692 27981.7 0 -206531 27965.9 0 -200406 27955.1 0 -194316 27949.3 0 -188260 27948.5 0 -182236 27952.8 0 -176246 27962.1 0 -170286 27976.6 0 -164358 27996.2 0 -158459 28021 0 -152589 28050.9 0 -146748 28086 0 -140935 28126.4 0 -135148 28172 0 -129387 28222.9 0 -123651 28279.1 0 -117940 28340.6 0 -112253 28407.5 0 -106588 28479.8 0 -100946 28557.5 0 -95324.9 28640.7 0 -89724.6 28729.3 0 -84144.2 28823.4 0 -78582.9 28923.1 0 -73040 29028.4 0 -67514.9 29139.3 0 -62006.7 29255.8 0 -56514.8 29378.1 0 -51038.4 29506 0 -950196 23352.5 0 -945429 24075.7 0 -940492 24792.9 0 -935384 25502.4 0 -930107 26202.7 0 -924661 26892.1 0 -919048 27569.1 0 -913271 28232.3 0 -907331 28880.3 0 -901231 29511.8 0 -894975 30125.4 0 -888565 30720 0 -882005 31294.6 0 -875300 31848.2 0 -868453 32380 0 -861470 32889.1 0 -854355 33375 0 -847113 33837 0 -839750 34274.8 0 -832271 34687.9 0 -824680 35076.3 0 -816986 35439.8 0 -809191 35778.2 0 -801304 36091.8 0 -793329 36380.7 0 -785273 36645.1 0 -777141 36885.3 0 -768940 37101.8 0 -760675 37295 0 -752352 37465.5 0 -743976 37613.9 0 -735554 37740.7 0 -727091 37846.7 0 -718592 37932.6 0 -710062 37999.1 0 -701507 38047.1 0 -692932 38077.4 0 -684341 38090.7 0 -675740 38087.9 0 -667132 38069.8 0 -658521 38037.3 0 -649913 37991.2 0 -641311 37932.3 0 -632718 37861.5 0 -624139 37779.6 0 -615576 37687.4 0 -607034 37585.6 0 -598514 37475.1 0 -590020 37356.6 0 -581554 37230.8 0 -573119 37098.3 0 -564718 36960 0 -556352 36816.4 0 -548023 36668.2 0 -539734 36515.9 0 -531485 36360.2 0 -523280 36201.7 0 -515118 36040.7 0 -507001 35877.9 0 -498932 35713.8 0 -490909 35548.7 0 -482935 35383.1 0 -475011 35217.5 0 -467136 35052.2 0 -459312 34887.5 0 -451539 34723.9 0 -443818 34561.6 0 -436148 34400.9 0 -428531 34242.2 0 -420965 34085.7 0 -413453 33931.7 0 -405992 33780.3 0 -398584 33631.9 0 -391228 33486.5 0 -383924 33344.5 0 -376672 33206 0 -369472 33071.1 0 -362323 32940 0 -355225 32812.9 0 -348177 32689.8 0 -341180 32570.9 0 -334232 32456.4 0 -327334 32346.2 0 -320484 32240.6 0 -313682 32139.6 0 -306928 32043.3 0 -300220 31951.7 0 -293559 31865 0 -286944 31783.2 0 -280373 31706.4 0 -273847 31634.5 0 -267364 31567.8 0 -260925 31506.2 0 -254527 31449.7 0 -248171 31398.4 0 -241855 31352.4 0 -235580 31311.7 0 -229343 31276.3 0 -223146 31246.3 0 -216985 31221.6 0 -210862 31202.4 0 -204775 31188.6 0 -198724 31180.3 0 -192707 31177.4 0 -186723 31180.1 0 -180773 31188.4 0 -174856 31202.2 0 -168969 31221.6 0 -163114 31246.6 0 -157289 31277.3 0 -151492 31313.6 0 -145725 31355.7 0 -139985 31403.4 0 -134272 31457 0 -128585 31516.2 0 -122924 31581.3 0 -117287 31652.3 0 -111675 31729.1 0 -106085 31811.7 0 -100518 31900.3 0 -94973.4 31994.9 0 -89449.5 32095.4 0 -83946 32201.9 0 -78462.2 32314.5 0 -72997.3 32433.2 0 -67550.7 32557.9 0 -62121.7 32688.9 0 -56709.6 32826 0 -950630 25687.6 0 -945896 26478.9 0 -940993 27263.8 0 -935921 28040.4 0 -930681 28807.1 0 -925273 29562.1 0 -919700 30303.8 0 -913963 31030.5 0 -908065 31740.9 0 -902009 32433.3 0 -895796 33106.5 0 -889431 33759.2 0 -882918 34390.2 0 -876259 34998.5 0 -869461 35583.1 0 -862526 36143.3 0 -855460 36678.2 0 -848268 37187.3 0 -840955 37670 0 -833526 38126.1 0 -825987 38555.2 0 -818344 38957.3 0 -810601 39332.2 0 -802766 39680.1 0 -794843 40001 0 -786838 40295.3 0 -778758 40563.3 0 -770609 40805.3 0 -762395 41022 0 -754123 41213.9 0 -745798 41381.5 0 -737427 41525.7 0 -729014 41647 0 -720564 41746.4 0 -712084 41824.5 0 -703578 41882.3 0 -695051 41920.6 0 -686508 41940.3 0 -677953 41942.3 0 -669391 41927.5 0 -660827 41896.8 0 -652264 41851.1 0 -643706 41791.3 0 -635157 41718.3 0 -626621 41633 0 -618100 41536.2 0 -609599 41428.9 0 -601120 41311.8 0 -592666 41185.8 0 -584240 41051.7 0 -575844 40910.2 0 -567481 40762 0 -559152 40607.9 0 -550860 40448.6 0 -542607 40284.8 0 -534395 40117 0 -526224 39945.8 0 -518097 39772 0 -510015 39595.9 0 -501979 39418.2 0 -493989 39239.4 0 -486048 39059.8 0 -478156 38880 0 -470313 38700.5 0 -462521 38521.5 0 -454779 38343.5 0 -447088 38166.9 0 -439449 37991.9 0 -431862 37818.9 0 -424327 37648.2 0 -416844 37480.1 0 -409414 37314.9 0 -402035 37152.7 0 -394709 36993.8 0 -387435 36838.4 0 -380212 36686.7 0 -373041 36538.9 0 -365922 36395.2 0 -358853 36255.8 0 -351835 36120.7 0 -344868 35990.1 0 -337950 35864.1 0 -331081 35742.9 0 -324261 35626.6 0 -317490 35515.3 0 -310766 35409 0 -304090 35307.8 0 -297460 35211.9 0 -290875 35121.2 0 -284337 35036 0 -277842 34956.1 0 -271392 34881.8 0 -264985 34812.9 0 -258621 34749.7 0 -252299 34692.1 0 -246018 34640.2 0 -239777 34594 0 -233576 34553.5 0 -227414 34518.9 0 -221291 34490.1 0 -215205 34467.1 0 -209156 34450 0 -203142 34438.8 0 -197165 34433.6 0 -191221 34434.4 0 -185312 34441.1 0 -179436 34453.9 0 -173592 34472.7 0 -167779 34497.5 0 -161998 34528.5 0 -156246 34565.6 0 -150524 34608.9 0 -144831 34658.3 0 -139165 34713.9 0 -133527 34775.7 0 -127915 34843.8 0 -122329 34918.2 0 -116768 34998.9 0 -111231 35085.9 0 -105718 35179.2 0 -100228 35279 0 -94759.6 35385.2 0 -89313.2 35497.9 0 -83887.6 35617 0 -78482.3 35742.7 0 -73096.4 35874.9 0 -67729.5 36013.7 0 -62380.8 36159.2 0 -951107 28022.5 0 -946405 28881.4 0 -941536 29733.4 0 -936499 30576.6 0 -931295 31409.2 0 -925925 32229.3 0 -920391 33035.2 0 -914694 33825.1 0 -908838 34597.4 0 -902823 35350.6 0 -896654 36083.1 0 -890333 36793.7 0 -883865 37481 0 -877252 38143.9 0 -870500 38781.4 0 -863613 39392.5 0 -856595 39976.6 0 -849452 40532.9 0 -842188 41060.9 0 -834809 41560.1 0 -827320 42030.4 0 -819726 42471.4 0 -812034 42883.2 0 -804250 43265.8 0 -796377 43619.3 0 -788424 43944.1 0 -780395 44240.4 0 -772296 44508.7 0 -764132 44749.6 0 -755911 44963.6 0 -747636 45151.3 0 -739314 45313.5 0 -730951 45451.1 0 -722550 45564.7 0 -714119 45655.3 0 -705661 45723.7 0 -697181 45771 0 -688685 45797.9 0 -680177 45805.6 0 -671661 45794.9 0 -663142 45766.8 0 -654623 45722.4 0 -646109 45662.5 0 -637603 45588.2 0 -629110 45500.3 0 -620631 45399.9 0 -612172 45287.9 0 -603733 45165.1 0 -595319 45032.4 0 -586932 44890.7 0 -578575 44740.9 0 -570250 44583.6 0 -561959 44419.8 0 -553704 44250.1 0 -545487 44075.3 0 -537310 43896 0 -529175 43712.9 0 -521083 43526.7 0 -513035 43338 0 -505032 43147.3 0 -497076 42955.2 0 -489168 42762.2 0 -481308 42568.8 0 -473497 42375.4 0 -465736 42182.6 0 -458026 41990.6 0 -450367 41800 0 -442758 41611.1 0 -435202 41424.2 0 -427697 41239.6 0 -420244 41057.7 0 -412844 40878.8 0 -405495 40703.1 0 -398199 40530.9 0 -390954 40362.3 0 -383761 40197.7 0 -376620 40037.2 0 -369530 39881.1 0 -362491 39729.4 0 -355503 39582.4 0 -348565 39440.1 0 -341677 39302.9 0 -334839 39170.7 0 -328049 39043.7 0 -321308 38922 0 -314615 38805.7 0 -307969 38694.9 0 -301371 38589.7 0 -294818 38490.2 0 -288311 38396.4 0 -281849 38308.4 0 -275432 38226.4 0 -269058 38150.2 0 -262727 38080.1 0 -256439 38016 0 -250192 37957.9 0 -243986 37906.1 0 -237821 37860.3 0 -231695 37820.9 0 -225608 37787.6 0 -219559 37760.6 0 -213547 37740 0 -207573 37725.7 0 -201634 37717.7 0 -195730 37716.2 0 -189861 37721.1 0 -184026 37732.4 0 -178224 37750.2 0 -172455 37774.6 0 -166717 37805.4 0 -161010 37842.8 0 -155333 37886.8 0 -149686 37937.4 0 -144067 37994.6 0 -138477 38058.5 0 -132914 38129 0 -127378 38206.3 0 -121868 38290.3 0 -116383 38381 0 -110923 38478.5 0 -105487 38582.9 0 -100074 38694.1 0 -94684.3 38812.1 0 -89316.3 38937.1 0 -83969.8 39069 0 -78643.9 39207.9 0 -73338.2 39353.8 0 -68052 39506.7 0 -951626 30357.3 0 -946957 31283.2 0 -942121 32201.8 0 -937118 33111.1 0 -931950 34009.1 0 -926618 34893.9 0 -921122 35763.6 0 -915464 36616.3 0 -909648 37450.3 0 -903675 38263.9 0 -897548 39055.5 0 -891271 39823.8 0 -884846 40567.2 0 -878279 41284.7 0 -871573 41975 0 -864732 42637.3 0 -857761 43270.6 0 -850665 43874.3 0 -843449 44447.7 0 -836119 44990.4 0 -828679 45502.1 0 -821135 45982.5 0 -813492 46431.6 0 -805757 46849.4 0 -797934 47236.1 0 -790031 47591.9 0 -782051 47917.2 0 -774002 48212.4 0 -765888 48478.1 0 -757716 48714.8 0 -749491 48923.4 0 -741218 49104.5 0 -732903 49259 0 -724551 49387.7 0 -716167 49491.6 0 -707756 49571.5 0 -699323 49628.5 0 -690874 49663.6 0 -682411 49677.8 0 -673941 49672.1 0 -