<?xml version="1.0"?> 
<VTKFile type="StructuredGrid" version="0.1"> 
<StructuredGrid WholeExtent="0 127 0 127 0 0"> 
<Piece Extent="0 127 0 127 0 0"> 
<PointData>
<DataArray type="Float32" Name="u" format="ascii" NumberOfComponents="1"> 
-60000 -60000 -60000 -60000 -60000 -60000 -60000 -60000 -60000 -60000 -60000 -60000 -60000 -60000 -60000 -60000 -60000 -60000 -60000 -60000 -60000 -60000 -60000 -60000 -60000 -60000 -60000 -60000 -60000 -60000 -60000 -60000 -60000 -60000 -60000 -60000 -60000 -60000 -60000 -60000 -60000 -60000 -60000 -60000 -60000 -60000 -60000 -60000 -60000 -60000 -60000 -60000 -60000 -60000 -60000 -60000 -60000 -60000 -60000 -60000 -60000 -60000 -60000 -60000 -60000 -60000 -60000 -60000 -60000 -60000 -60000 -60000 -60000 -60000 -60000 -60000 -60000 -60000 -60000 -60000 -60000 -60000 -60000 -60000 -60000 -60000 -60000 -60000 -60000 -60000 -60000 -60000 -60000 -60000 -60000 -60000 -60000 -60000 -60000 -60000 -60000 -60000 -60000 -60000 -60000 -60000 -60000 -60000 -60000 -60000 -60000 -60000 -60000 -60000 -60000 -60000 -60000 -60000 -60000 -60000 -60000 -60000 -60000 -60000 -60000 -60000 -60000 -60000 -59561.4 -59561.4 -59561.4 -59561.5 -59561.5 -59561.5 -59561.6 -59561.6 -59561.7 -59561.7 -59561.8 -59561.9 -59562 -59562.1 -59562.2 -59562.3 -59562.4 -59562.5 -59562.6 -59562.8 -59562.9 -59563.1 -59563.2 -59563.4 -59563.6 -59563.8 -59564 -59564.2 -59564.4 -59564.6 -59564.9 -59565.1 -59565.3 -59565.6 -59565.9 -59566.1 -59566.4 -59566.7 -59567 -59567.3 -59567.7 -59568 -59568.3 -59568.7 -59569 -59569.4 -59569.8 -59570.2 -59570.6 -59571 -59571.4 -59571.9 -59572.3 -59572.8 -59573.3 -59573.8 -59574.3 -59574.8 -59575.3 -59575.8 -59576.4 -59577 -59577.6 -59578.2 -59578.8 -59579.4 -59580.1 -59580.7 -59581.4 -59582.1 -59582.8 -59583.5 -59584.3 -59585.1 -59585.9 -59586.7 -59587.5 -59588.4 -59589.3 -59590.2 -59591.1 -59592 -59593 -59594 -59595.1 -59596.1 -59597.2 -59598.4 -59599.5 -59600.7 -59601.9 -59603.2 -59604.5 -59605.9 -59607.3 -59608.7 -59610.2 -59611.7 -59613.3 -59614.9 -59616.6 -59618.4 -59620.2 -59622.1 -59624.1 -59626.1 -59628.3 -59630.5 -59632.8 -59635.2 -59637.8 -59640.4 -59643.2 -59646.1 -59649.2 -59652.5 -59655.9 -59659.5 -59663.3 -59667.4 -59671.7 -59676.3 -59681.2 -59686.4 -59691.9 -59697.8 -59703.9 -59710.3 -59121.9 -59121.9 -59122 -59122 -59122.1 -59122.1 -59122.2 -59122.3 -59122.4 -59122.5 -59122.7 -59122.8 -59123 -59123.2 -59123.4 -59123.6 -59123.8 -59124 -59124.3 -59124.6 -59124.9 -59125.2 -59125.5 -59125.8 -59126.2 -59126.5 -59126.9 -59127.3 -59127.7 -59128.2 -59128.6 -59129.1 -59129.6 -59130.1 -59130.6 -59131.1 -59131.7 -59132.2 -59132.8 -59133.4 -59134.1 -59134.7 -59135.4 -59136.1 -59136.8 -59137.5 -59138.2 -59139 -59139.8 -59140.6 -59141.4 -59142.3 -59143.2 -59144.1 -59145 -59145.9 -59146.9 -59147.9 -59148.9 -59150 -59151 -59152.1 -59153.3 -59154.4 -59155.6 -59156.8 -59158.1 -59159.3 -59160.6 -59162 -59163.3 -59164.7 -59166.2 -59167.7 -59169.2 -59170.7 -59172.3 -59173.9 -59175.6 -59177.3 -59179.1 -59180.9 -59182.7 -59184.6 -59186.6 -59188.5 -59190.6 -59192.7 -59194.8 -59197.1 -59199.3 -59201.7 -59204.1 -59206.5 -59209.1 -59211.7 -59214.4 -59217.1 -59220 -59222.9 -59225.9 -59229 -59232.2 -59235.5 -59238.9 -59242.4 -59246 -59249.7 -59253.6 -59257.6 -59261.7 -59265.9 -59270.3 -59274.9 -59279.6 -59284.4 -59289.5 -59294.7 -59300 -59305.6 -59311.4 -59317.3 -59323.5 -59329.8 -59336.4 -59343.3 -59350.3 -59357.7 -58680.6 -58680.6 -58680.7 -58680.7 -58680.8 -58680.9 -58681 -58681.2 -58681.3 -58681.5 -58681.7 -58681.9 -58682.1 -58682.4 -58682.7 -58683 -58683.3 -58683.7 -58684.1 -58684.4 -58684.9 -58685.3 -58685.8 -58686.2 -58686.8 -58687.3 -58687.8 -58688.4 -58689 -58689.6 -58690.3 -58691 -58691.6 -58692.4 -58693.1 -58693.9 -58694.7 -58695.5 -58696.3 -58697.2 -58698.1 -58699 -58700 -58701 -58702 -58703 -58704.1 -58705.2 -58706.3 -58707.5 -58708.7 -58709.9 -58711.1 -58712.4 -58713.7 -58715.1 -58716.4 -58717.9 -58719.3 -58720.8 -58722.3 -58723.9 -58725.5 -58727.1 -58728.8 -58730.5 -58732.2 -58734 -58735.8 -58737.7 -58739.6 -58741.6 -58743.6 -58745.7 -58747.8 -58750 -58752.2 -58754.4 -58756.7 -58759.1 -58761.5 -58764 -58766.5 -58769.1 -58771.8 -58774.5 -58777.3 -58780.1 -58783 -58786 -58789.1 -58792.2 -58795.4 -58798.7 -58802.1 -58805.5 -58809 -58812.6 -58816.3 -58820.1 -58824 -58828 -58832.1 -58836.3 -58840.5 -58844.9 -58849.4 -58854.1 -58858.8 -58863.6 -58868.6 -58873.7 -58878.9 -58884.3 -58889.8 -58895.4 -58901.2 -58907.1 -58913.2 -58919.4 -58925.7 -58932.3 -58938.9 -58945.8 -58952.7 -58959.9 -58967.2 -58974.6 -58236.7 -58236.7 -58236.8 -58236.8 -58236.9 -58237.1 -58237.2 -58237.4 -58237.6 -58237.8 -58238 -58238.3 -58238.6 -58239 -58239.3 -58239.7 -58240.1 -58240.6 -58241.1 -58241.6 -58242.1 -58242.6 -58243.2 -58243.8 -58244.5 -58245.1 -58245.8 -58246.6 -58247.3 -58248.1 -58248.9 -58249.8 -58250.7 -58251.6 -58252.5 -58253.5 -58254.5 -58255.5 -58256.6 -58257.7 -58258.8 -58260 -58261.2 -58262.4 -58263.7 -58265 -58266.3 -58267.7 -58269.1 -58270.5 -58272 -58273.5 -58275.1 -58276.7 -58278.3 -58280 -58281.7 -58283.5 -58285.3 -58287.1 -58289 -58290.9 -58292.9 -58294.9 -58297 -58299.1 -58301.2 -58303.5 -58305.7 -58308 -58310.4 -58312.8 -58315.2 -58317.7 -58320.3 -58322.9 -58325.6 -58328.4 -58331.1 -58334 -58336.9 -58339.9 -58342.9 -58346.1 -58349.2 -58352.5 -58355.8 -58359.2 -58362.6 -58366.1 -58369.7 -58373.4 -58377.2 -58381 -58384.9 -58388.9 -58393 -58397.1 -58401.4 -58405.7 -58410.2 -58414.7 -58419.3 -58424 -58428.8 -58433.7 -58438.8 -58443.9 -58449.1 -58454.4 -58459.9 -58465.4 -58471.1 -58476.8 -58482.7 -58488.7 -58494.9 -58501.1 -58507.5 -58514 -58520.6 -58527.3 -58534.2 -58541.2 -58548.4 -58555.6 -58563 -58570.6 -57789.5 -57789.5 -57789.5 -57789.6 -57789.7 -57789.9 -57790 -57790.2 -57790.5 -57790.7 -57791 -57791.4 -57791.7 -57792.1 -57792.6 -57793 -57793.5 -57794 -57794.6 -57795.2 -57795.8 -57796.4 -57797.1 -57797.8 -57798.6 -57799.4 -57800.2 -57801 -57801.9 -57802.8 -57803.8 -57804.8 -57805.8 -57806.9 -57808 -57809.1 -57810.3 -57811.5 -57812.7 -57814 -57815.3 -57816.7 -57818.1 -57819.5 -57821 -57822.5 -57824 -57825.6 -57827.3 -57828.9 -57830.7 -57832.4 -57834.2 -57836.1 -57838 -57839.9 -57841.9 -57843.9 -57846 -57848.1 -57850.2 -57852.5 -57854.7 -57857 -57859.4 -57861.8 -57864.3 -57866.8 -57869.3 -57872 -57874.6 -57877.4 -57880.1 -57883 -57885.9 -57888.8 -57891.9 -57894.9 -57898.1 -57901.3 -57904.6 -57907.9 -57911.3 -57914.7 -57918.3 -57921.9 -57925.5 -57929.3 -57933.1 -57936.9 -57940.9 -57944.9 -57949 -57953.2 -57957.5 -57961.8 -57966.2 -57970.7 -57975.3 -57980 -57984.7 -57989.5 -57994.5 -57999.5 -58004.6 -58009.8 -58015.1 -58020.5 -58025.9 -58031.5 -58037.2 -58043 -58048.8 -58054.8 -58060.9 -58067 -58073.3 -58079.7 -58086.2 -58092.8 -58099.5 -58106.3 -58113.2 -58120.3 -58127.4 -58134.7 -58142 -58149.5 -57338.3 -57338.3 -57338.4 -57338.5 -57338.6 -57338.8 -57339 -57339.2 -57339.4 -57339.7 -57340.1 -57340.4 -57340.8 -57341.3 -57341.8 -57342.3 -57342.8 -57343.4 -57344 -57344.7 -57345.4 -57346.1 -57346.9 -57347.7 -57348.5 -57349.4 -57350.3 -57351.2 -57352.2 -57353.2 -57354.3 -57355.4 -57356.5 -57357.7 -57358.9 -57360.2 -57361.5 -57362.8 -57364.2 -57365.6 -57367.1 -57368.6 -57370.1 -57371.7 -57373.3 -57375 -57376.7 -57378.5 -57380.3 -57382.1 -57384 -57386 -57387.9 -57390 -57392 -57394.2 -57396.3 -57398.5 -57400.8 -57403.1 -57405.5 -57407.9 -57410.4 -57412.9 -57415.5 -57418.1 -57420.8 -57423.5 -57426.3 -57429.1 -57432 -57435 -57438 -57441 -57444.2 -57447.3 -57450.6 -57453.9 -57457.2 -57460.7 -57464.2 -57467.7 -57471.3 -57475 -57478.8 -57482.6 -57486.5 -57490.4 -57494.4 -57498.5 -57502.7 -57506.9 -57511.2 -57515.6 -57520.1 -57524.6 -57529.2 -57533.9 -57538.6 -57543.5 -57548.4 -57553.4 -57558.5 -57563.6 -57568.9 -57574.2 -57579.6 -57585.1 -57590.7 -57596.4 -57602.1 -57608 -57613.9 -57619.9 -57626.1 -57632.3 -57638.6 -57645 -57651.5 -57658 -57664.7 -57671.5 -57678.4 -57685.3 -57692.4 -57699.5 -57706.8 -57714.2 -56882.8 -56882.8 -56882.9 -56883 -56883.1 -56883.3 -56883.5 -56883.7 -56884 -56884.3 -56884.7 -56885.1 -56885.5 -56886 -56886.5 -56887.1 -56887.6 -56888.3 -56888.9 -56889.6 -56890.4 -56891.2 -56892 -56892.8 -56893.7 -56894.7 -56895.7 -56896.7 -56897.7 -56898.8 -56900 -56901.2 -56902.4 -56903.6 -56905 -56906.3 -56907.7 -56909.1 -56910.6 -56912.1 -56913.7 -56915.3 -56916.9 -56918.6 -56920.3 -56922.1 -56924 -56925.8 -56927.7 -56929.7 -56931.7 -56933.8 -56935.9 -56938 -56940.2 -56942.5 -56944.8 -56947.1 -56949.5 -56952 -56954.5 -56957 -56959.6 -56962.3 -56965 -56967.7 -56970.5 -56973.4 -56976.3 -56979.3 -56982.3 -56985.4 -56988.5 -56991.7 -56995 -56998.3 -57001.7 -57005.1 -57008.6 -57012.2 -57015.8 -57019.5 -57023.2 -57027 -57030.9 -57034.8 -57038.8 -57042.9 -57047 -57051.2 -57055.5 -57059.8 -57064.2 -57068.7 -57073.2 -57077.8 -57082.5 -57087.3 -57092.1 -57097 -57102 -57107 -57112.2 -57117.4 -57122.6 -57128 -57133.4 -57138.9 -57144.5 -57150.2 -57155.9 -57161.8 -57167.7 -57173.7 -57179.7 -57185.9 -57192.1 -57198.5 -57204.9 -57211.4 -57217.9 -57224.6 -57231.3 -57238.2 -57245.1 -57252.1 -57259.2 -57266.4 -56422.6 -56422.6 -56422.7 -56422.8 -56422.9 -56423.1 -56423.3 -56423.6 -56423.9 -56424.2 -56424.6 -56425 -56425.4 -56425.9 -56426.5 -56427 -56427.7 -56428.3 -56429 -56429.7 -56430.5 -56431.3 -56432.2 -56433.1 -56434 -56435 -56436 -56437.1 -56438.2 -56439.4 -56440.5 -56441.8 -56443 -56444.4 -56445.7 -56447.1 -56448.6 -56450.1 -56451.6 -56453.2 -56454.8 -56456.5 -56458.2 -56459.9 -56461.7 -56463.6 -56465.5 -56467.4 -56469.4 -56471.4 -56473.5 -56475.7 -56477.8 -56480.1 -56482.3 -56484.7 -56487 -56489.4 -56491.9 -56494.4 -56497 -56499.6 -56502.3 -56505 -56507.8 -56510.6 -56513.5 -56516.4 -56519.4 -56522.5 -56525.6 -56528.7 -56531.9 -56535.2 -56538.5 -56541.9 -56545.3 -56548.8 -56552.4 -56556 -56559.7 -56563.4 -56567.2 -56571 -56574.9 -56578.9 -56583 -56587.1 -56591.2 -56595.4 -56599.7 -56604.1 -56608.5 -56613 -56617.5 -56622.1 -56626.8 -56631.6 -56636.4 -56641.3 -56646.2 -56651.2 -56656.3 -56661.5 -56666.7 -56672 -56677.4 -56682.9 -56688.4 -56694 -56699.6 -56705.4 -56711.2 -56717.1 -56723 -56729.1 -56735.2 -56741.4 -56747.6 -56754 -56760.4 -56766.9 -56773.5 -56780.1 -56786.9 -56793.7 -56800.6 -56807.5 -55957.4 -55957.4 -55957.5 -55957.6 -55957.7 -55957.9 -55958.1 -55958.4 -55958.7 -55959.1 -55959.4 -55959.9 -55960.3 -55960.8 -55961.4 -55962 -55962.6 -55963.3 -55964 -55964.8 -55965.5 -55966.4 -55967.3 -55968.2 -55969.1 -55970.1 -55971.2 -55972.3 -55973.4 -55974.6 -55975.8 -55977.1 -55978.4 -55979.7 -55981.1 -55982.5 -55984 -55985.5 -55987.1 -55988.7 -55990.4 -55992.1 -55993.8 -55995.6 -55997.4 -55999.3 -56001.2 -56003.2 -56005.2 -56007.3 -56009.4 -56011.6 -56013.8 -56016 -56018.3 -56020.7 -56023.1 -56025.5 -56028 -56030.6 -56033.2 -56035.8 -56038.5 -56041.3 -56044.1 -56046.9 -56049.8 -56052.8 -56055.8 -56058.8 -56061.9 -56065.1 -56068.3 -56071.6 -56074.9 -56078.3 -56081.7 -56085.2 -56088.8 -56092.4 -56096.1 -56099.8 -56103.6 -56107.4 -56111.3 -56115.2 -56119.2 -56123.3 -56127.4 -56131.6 -56135.9 -56140.2 -56144.6 -56149 -56153.5 -56158 -56162.7 -56167.3 -56172.1 -56176.9 -56181.8 -56186.7 -56191.7 -56196.8 -56201.9 -56207.1 -56212.4 -56217.7 -56223.1 -56228.6 -56234.1 -56239.7 -56245.4 -56251.1 -56256.9 -56262.8 -56268.7 -56274.7 -56280.8 -56286.9 -56293.2 -56299.5 -56305.8 -56312.3 -56318.8 -56325.3 -56332 -56338.7 -55487.2 -55487.2 -55487.3 -55487.4 -55487.5 -55487.7 -55487.9 -55488.2 -55488.5 -55488.8 -55489.2 -55489.7 -55490.1 -55490.6 -55491.2 -55491.8 -55492.4 -55493.1 -55493.8 -55494.6 -55495.4 -55496.2 -55497.1 -55498 -55499 -55500 -55501.1 -55502.2 -55503.3 -55504.5 -55505.7 -55507 -55508.3 -55509.6 -55511 -55512.4 -55513.9 -55515.5 -55517 -55518.6 -55520.3 -55522 -55523.7 -55525.5 -55527.4 -55529.3 -55531.2 -55533.2 -55535.2 -55537.2 -55539.3 -55541.5 -55543.7 -55546 -55548.3 -55550.6 -55553 -55555.4 -55557.9 -55560.5 -55563 -55565.7 -55568.3 -55571.1 -55573.9 -55576.7 -55579.6 -55582.5 -55585.5 -55588.5 -55591.6 -55594.7 -55597.9 -55601.2 -55604.4 -55607.8 -55611.2 -55614.6 -55618.1 -55621.7 -55625.3 -55629 -55632.7 -55636.5 -55640.3 -55644.2 -55648.1 -55652.1 -55656.1 -55660.3 -55664.4 -55668.6 -55672.9 -55677.3 -55681.6 -55686.1 -55690.6 -55695.2 -55699.8 -55704.5 -55709.2 -55714 -55718.9 -55723.8 -55728.8 -55733.9 -55739 -55744.2 -55749.4 -55754.7 -55760 -55765.5 -55770.9 -55776.5 -55782.1 -55787.8 -55793.5 -55799.3 -55805.2 -55811.1 -55817.1 -55823.1 -55829.2 -55835.4 -55841.7 -55848 -55854.4 -55860.8 -55011.8 -55011.9 -55011.9 -55012 -55012.2 -55012.3 -55012.6 -55012.8 -55013.1 -55013.5 -55013.9 -55014.3 -55014.8 -55015.3 -55015.8 -55016.4 -55017 -55017.7 -55018.4 -55019.2 -55020 -55020.8 -55021.7 -55022.6 -55023.6 -55024.6 -55025.6 -55026.7 -55027.8 -55029 -55030.2 -55031.5 -55032.8 -55034.1 -55035.5 -55036.9 -55038.4 -55039.9 -55041.4 -55043 -55044.7 -55046.3 -55048.1 -55049.8 -55051.7 -55053.5 -55055.4 -55057.4 -55059.4 -55061.4 -55063.5 -55065.6 -55067.8 -55070 -55072.3 -55074.6 -55076.9 -55079.3 -55081.8 -55084.3 -55086.8 -55089.4 -55092 -55094.7 -55097.4 -55100.2 -55103 -55105.9 -55108.8 -55111.8 -55114.8 -55117.9 -55121 -55124.2 -55127.4 -55130.7 -55134 -55137.3 -55140.8 -55144.2 -55147.7 -55151.3 -55154.9 -55158.6 -55162.3 -55166.1 -55169.9 -55173.8 -55177.8 -55181.8 -55185.8 -55189.9 -55194 -55198.2 -55202.5 -55206.8 -55211.2 -55215.6 -55220.1 -55224.6 -55229.2 -55233.8 -55238.5 -55243.3 -55248.1 -55253 -55257.9 -55262.9 -55267.9 -55273 -55278.1 -55283.4 -55288.6 -55293.9 -55299.3 -55304.8 -55310.3 -55315.8 -55321.4 -55327.1 -55332.9 -55338.7 -55344.5 -55350.4 -55356.4 -55362.4 -55368.5 -55374.7 -54531.4 -54531.4 -54531.5 -54531.6 -54531.7 -54531.9 -54532.1 -54532.4 -54532.7 -54533 -54533.4 -54533.8 -54534.3 -54534.8 -54535.3 -54535.9 -54536.5 -54537.2 -54537.9 -54538.6 -54539.4 -54540.2 -54541.1 -54542 -54542.9 -54543.9 -54544.9 -54546 -54547.1 -54548.2 -54549.4 -54550.7 -54551.9 -54553.2 -54554.6 -54556 -54557.4 -54558.9 -54560.4 -54562 -54563.6 -54565.2 -54566.9 -54568.6 -54570.4 -54572.2 -54574.1 -54576 -54577.9 -54579.9 -54581.9 -54584 -54586.1 -54588.3 -54590.5 -54592.8 -54595.1 -54597.4 -54599.8 -54602.2 -54604.7 -54607.2 -54609.7 -54612.4 -54615 -54617.7 -54620.4 -54623.2 -54626.1 -54629 -54631.9 -54634.9 -54637.9 -54641 -54644.1 -54647.2 -54650.4 -54653.7 -54657 -54660.4 -54663.8 -54667.2 -54670.7 -54674.3 -54677.9 -54681.5 -54685.2 -54688.9 -54692.7 -54696.6 -54700.5 -54704.4 -54708.4 -54712.4 -54716.5 -54720.7 -54724.9 -54729.1 -54733.4 -54737.8 -54742.2 -54746.6 -54751.1 -54755.7 -54760.3 -54764.9 -54769.6 -54774.4 -54779.2 -54784.1 -54789 -54794 -54799 -54804.1 -54809.3 -54814.4 -54819.7 -54825 -54830.3 -54835.7 -54841.2 -54846.7 -54852.3 -54857.9 -54863.6 -54869.3 -54875.1 -54881 -54046 -54046 -54046.1 -54046.2 -54046.3 -54046.5 -54046.7 -54046.9 -54047.2 -54047.6 -54047.9 -54048.3 -54048.8 -54049.3 -54049.8 -54050.4 -54051 -54051.6 -54052.3 -54053 -54053.7 -54054.5 -54055.4 -54056.3 -54057.2 -54058.1 -54059.1 -54060.1 -54061.2 -54062.3 -54063.5 -54064.7 -54065.9 -54067.2 -54068.5 -54069.8 -54071.2 -54072.7 -54074.1 -54075.6 -54077.2 -54078.8 -54080.4 -54082.1 -54083.8 -54085.6 -54087.4 -54089.2 -54091.1 -54093 -54095 -54097 -54099 -54101.1 -54103.2 -54105.4 -54107.6 -54109.9 -54112.2 -54114.5 -54116.9 -54119.3 -54121.8 -54124.3 -54126.9 -54129.5 -54132.1 -54134.8 -54137.5 -54140.3 -54143.1 -54146 -54148.9 -54151.8 -54154.8 -54157.9 -54160.9 -54164.1 -54167.2 -54170.5 -54173.7 -54177 -54180.4 -54183.8 -54187.2 -54190.7 -54194.2 -54197.8 -54201.5 -54205.1 -54208.9 -54212.6 -54216.4 -54220.3 -54224.2 -54228.2 -54232.2 -54236.2 -54240.3 -54244.5 -54248.6 -54252.9 -54257.2 -54261.5 -54265.9 -54270.3 -54274.8 -54279.3 -54283.9 -54288.6 -54293.2 -54298 -54302.7 -54307.6 -54312.4 -54317.4 -54322.3 -54327.3 -54332.4 -54337.5 -54342.7 -54347.9 -54353.2 -54358.5 -54363.9 -54369.3 -54374.8 -54380.3 -53555.7 -53555.7 -53555.8 -53555.9 -53556 -53556.2 -53556.4 -53556.6 -53556.9 -53557.2 -53557.6 -53558 -53558.4 -53558.9 -53559.4 -53559.9 -53560.5 -53561.1 -53561.8 -53562.5 -53563.2 -53564 -53564.8 -53565.6 -53566.5 -53567.4 -53568.4 -53569.3 -53570.4 -53571.4 -53572.6 -53573.7 -53574.9 -53576.1 -53577.4 -53578.7 -53580 -53581.4 -53582.8 -53584.2 -53585.7 -53587.3 -53588.8 -53590.4 -53592.1 -53593.8 -53595.5 -53597.2 -53599.1 -53600.9 -53602.8 -53604.7 -53606.7 -53608.7 -53610.7 -53612.8 -53614.9 -53617.1 -53619.3 -53621.5 -53623.8 -53626.1 -53628.5 -53630.9 -53633.3 -53635.8 -53638.3 -53640.9 -53643.5 -53646.1 -53648.8 -53651.5 -53654.3 -53657.1 -53660 -53662.9 -53665.8 -53668.8 -53671.8 -53674.9 -53678 -53681.1 -53684.3 -53687.6 -53690.8 -53694.2 -53697.5 -53700.9 -53704.4 -53707.9 -53711.4 -53715 -53718.6 -53722.3 -53726 -53729.7 -53733.5 -53737.3 -53741.2 -53745.2 -53749.1 -53753.1 -53757.2 -53761.3 -53765.5 -53769.6 -53773.9 -53778.2 -53782.5 -53786.9 -53791.3 -53795.7 -53800.3 -53804.8 -53809.4 -53814 -53818.7 -53823.5 -53828.3 -53833.1 -53837.9 -53842.9 -53847.8 -53852.8 -53857.9 -53863 -53868.1 -53873.3 -53060.8 -53060.8 -53060.9 -53061 -53061.1 -53061.2 -53061.4 -53061.7 -53061.9 -53062.2 -53062.6 -53062.9 -53063.4 -53063.8 -53064.3 -53064.8 -53065.3 -53065.9 -53066.6 -53067.2 -53067.9 -53068.6 -53069.4 -53070.2 -53071.1 -53071.9 -53072.8 -53073.8 -53074.8 -53075.8 -53076.8 -53077.9 -53079.1 -53080.2 -53081.4 -53082.7 -53083.9 -53085.2 -53086.6 -53088 -53089.4 -53090.9 -53092.3 -53093.9 -53095.4 -53097 -53098.7 -53100.4 -53102.1 -53103.8 -53105.6 -53107.4 -53109.3 -53111.2 -53113.2 -53115.1 -53117.1 -53119.2 -53121.3 -53123.4 -53125.6 -53127.8 -53130 -53132.3 -53134.6 -53137 -53139.4 -53141.8 -53144.3 -53146.8 -53149.3 -53151.9 -53154.5 -53157.2 -53159.9 -53162.6 -53165.4 -53168.2 -53171.1 -53174 -53176.9 -53179.9 -53182.9 -53186 -53189.1 -53192.2 -53195.4 -53198.6 -53201.9 -53205.2 -53208.5 -53211.9 -53215.3 -53218.7 -53222.2 -53225.8 -53229.3 -53233 -53236.6 -53240.3 -53244 -53247.8 -53251.6 -53255.5 -53259.4 -53263.4 -53267.3 -53271.4 -53275.4 -53279.5 -53283.7 -53287.9 -53292.1 -53296.4 -53300.7 -53305 -53309.4 -53313.9 -53318.4 -53322.9 -53327.4 -53332 -53336.7 -53341.4 -53346.1 -53350.9 -53355.7 -53360.6 -52561.4 -52561.4 -52561.5 -52561.5 -52561.7 -52561.8 -52562 -52562.2 -52562.5 -52562.8 -52563.1 -52563.4 -52563.8 -52564.2 -52564.7 -52565.2 -52565.7 -52566.3 -52566.9 -52567.5 -52568.1 -52568.8 -52569.6 -52570.3 -52571.1 -52571.9 -52572.8 -52573.7 -52574.6 -52575.6 -52576.6 -52577.6 -52578.7 -52579.8 -52580.9 -52582.1 -52583.3 -52584.5 -52585.8 -52587.1 -52588.5 -52589.8 -52591.3 -52592.7 -52594.2 -52595.7 -52597.2 -52598.8 -52600.4 -52602.1 -52603.8 -52605.5 -52607.3 -52609.1 -52610.9 -52612.8 -52614.7 -52616.6 -52618.6 -52620.6 -52622.6 -52624.7 -52626.8 -52629 -52631.1 -52633.4 -52635.6 -52637.9 -52640.2 -52642.6 -52645 -52647.4 -52649.9 -52652.4 -52654.9 -52657.5 -52660.1 -52662.8 -52665.5 -52668.2 -52671 -52673.7 -52676.6 -52679.4 -52682.4 -52685.3 -52688.3 -52691.3 -52694.3 -52697.4 -52700.6 -52703.7 -52706.9 -52710.2 -52713.4 -52716.7 -52720.1 -52723.5 -52726.9 -52730.4 -52733.9 -52737.4 -52741 -52744.6 -52748.2 -52751.9 -52755.6 -52759.4 -52763.2 -52767 -52770.9 -52774.8 -52778.8 -52782.7 -52786.8 -52790.8 -52794.9 -52799.1 -52803.2 -52807.4 -52811.7 -52816 -52820.3 -52824.7 -52829.1 -52833.5 -52838 -52842.5 -52057.8 -52057.8 -52057.8 -52057.9 -52058 -52058.2 -52058.3 -52058.5 -52058.8 -52059 -52059.3 -52059.7 -52060 -52060.4 -52060.9 -52061.3 -52061.8 -52062.3 -52062.9 -52063.5 -52064.1 -52064.8 -52065.4 -52066.2 -52066.9 -52067.7 -52068.5 -52069.3 -52070.2 -52071.1 -52072 -52073 -52074 -52075.1 -52076.1 -52077.2 -52078.4 -52079.5 -52080.7 -52081.9 -52083.2 -52084.5 -52085.8 -52087.2 -52088.6 -52090 -52091.4 -52092.9 -52094.4 -52096 -52097.6 -52099.2 -52100.8 -52102.5 -52104.2 -52106 -52107.8 -52109.6 -52111.4 -52113.3 -52115.2 -52117.2 -52119.1 -52121.1 -52123.2 -52125.3 -52127.4 -52129.5 -52131.7 -52133.9 -52136.1 -52138.4 -52140.7 -52143.1 -52145.4 -52147.8 -52150.3 -52152.8 -52155.3 -52157.8 -52160.4 -52163 -52165.6 -52168.3 -52171 -52173.8 -52176.5 -52179.4 -52182.2 -52185.1 -52188 -52190.9 -52193.9 -52196.9 -52200 -52203.1 -52206.2 -52209.3 -52212.5 -52215.7 -52219 -52222.3 -52225.6 -52228.9 -52232.3 -52235.8 -52239.2 -52242.7 -52246.2 -52249.8 -52253.4 -52257 -52260.7 -52264.4 -52268.1 -52271.9 -52275.7 -52279.5 -52283.4 -52287.3 -52291.2 -52295.2 -52299.2 -52303.2 -52307.3 -52311.4 -52315.5 -52319.7 -51550.2 -51550.2 -51550.2 -51550.3 -51550.4 -51550.5 -51550.7 -51550.9 -51551.1 -51551.4 -51551.6 -51551.9 -51552.3 -51552.7 -51553.1 -51553.5 -51553.9 -51554.4 -51554.9 -51555.5 -51556.1 -51556.7 -51557.3 -51558 -51558.7 -51559.4 -51560.2 -51561 -51561.8 -51562.6 -51563.5 -51564.4 -51565.3 -51566.3 -51567.3 -51568.3 -51569.4 -51570.4 -51571.6 -51572.7 -51573.9 -51575.1 -51576.3 -51577.6 -51578.9 -51580.2 -51581.6 -51582.9 -51584.4 -51585.8 -51587.3 -51588.8 -51590.3 -51591.9 -51593.5 -51595.1 -51596.8 -51598.4 -51600.2 -51601.9 -51603.7 -51605.5 -51607.3 -51609.2 -51611.1 -51613 -51615 -51617 -51619 -51621 -51623.1 -51625.2 -51627.4 -51629.5 -51631.7 -51634 -51636.2 -51638.5 -51640.9 -51643.2 -51645.6 -51648 -51650.5 -51653 -51655.5 -51658 -51660.6 -51663.2 -51665.8 -51668.5 -51671.2 -51673.9 -51676.7 -51679.4 -51682.3 -51685.1 -51688 -51690.9 -51693.9 -51696.8 -51699.8 -51702.9 -51705.9 -51709 -51712.2 -51715.3 -51718.5 -51721.7 -51725 -51728.3 -51731.6 -51734.9 -51738.3 -51741.7 -51745.1 -51748.6 -51752.1 -51755.6 -51759.2 -51762.8 -51766.4 -51770 -51773.7 -51777.4 -51781.2 -51785 -51788.8 -51792.6 -51038.8 -51038.8 -51038.9 -51039 -51039.1 -51039.2 -51039.3 -51039.5 -51039.7 -51039.9 -51040.2 -51040.5 -51040.8 -51041.2 -51041.5 -51041.9 -51042.3 -51042.8 -51043.3 -51043.8 -51044.3 -51044.9 -51045.5 -51046.1 -51046.7 -51047.4 -51048.1 -51048.8 -51049.6 -51050.4 -51051.2 -51052 -51052.9 -51053.8 -51054.7 -51055.6 -51056.6 -51057.6 -51058.7 -51059.7 -51060.8 -51061.9 -51063.1 -51064.2 -51065.4 -51066.6 -51067.9 -51069.2 -51070.5 -51071.8 -51073.2 -51074.6 -51076 -51077.4 -51078.9 -51080.4 -51081.9 -51083.5 -51085.1 -51086.7 -51088.3 -51090 -51091.7 -51093.4 -51095.2 -51096.9 -51098.8 -51100.6 -51102.5 -51104.3 -51106.3 -51108.2 -51110.2 -51112.2 -51114.2 -51116.3 -51118.4 -51120.5 -51122.6 -51124.8 -51127 -51129.2 -51131.5 -51133.7 -51136.1 -51138.4 -51140.8 -51143.1 -51145.6 -51148 -51150.5 -51153 -51155.5 -51158.1 -51160.7 -51163.3 -51165.9 -51168.6 -51171.3 -51174 -51176.8 -51179.6 -51182.4 -51185.2 -51188.1 -51191 -51193.9 -51196.9 -51199.8 -51202.8 -51205.9 -51208.9 -51212 -51215.1 -51218.3 -51221.5 -51224.7 -51227.9 -51231.1 -51234.4 -51237.7 -51241.1 -51244.4 -51247.8 -51251.2 -51254.7 -51258.2 -51261.7 -50524.1 -50524.1 -50524.1 -50524.2 -50524.3 -50524.4 -50524.5 -50524.7 -50524.9 -50525.1 -50525.3 -50525.6 -50525.9 -50526.2 -50526.5 -50526.9 -50527.3 -50527.7 -50528.2 -50528.6 -50529.1 -50529.6 -50530.2 -50530.7 -50531.3 -50532 -50532.6 -50533.3 -50534 -50534.7 -50535.4 -50536.2 -50537 -50537.8 -50538.7 -50539.5 -50540.4 -50541.3 -50542.3 -50543.3 -50544.3 -50545.3 -50546.3 -50547.4 -50548.5 -50549.6 -50550.8 -50551.9 -50553.1 -50554.4 -50555.6 -50556.9 -50558.2 -50559.5 -50560.9 -50562.2 -50563.6 -50565.1 -50566.5 -50568 -50569.5 -50571 -50572.6 -50574.2 -50575.8 -50577.4 -50579 -50580.7 -50582.4 -50584.2 -50585.9 -50587.7 -50589.5 -50591.3 -50593.2 -50595.1 -50597 -50598.9 -50600.9 -50602.8 -50604.8 -50606.9 -50608.9 -50611 -50613.1 -50615.3 -50617.4 -50619.6 -50621.8 -50624 -50626.3 -50628.6 -50630.9 -50633.2 -50635.6 -50638 -50640.4 -50642.8 -50645.3 -50647.8 -50650.3 -50652.8 -50655.4 -50657.9 -50660.5 -50663.2 -50665.8 -50668.5 -50671.2 -50674 -50676.7 -50679.5 -50682.3 -50685.1 -50688 -50690.9 -50693.8 -50696.7 -50699.6 -50702.6 -50705.6 -50708.6 -50711.7 -50714.8 -50717.9 -50721 -50724.1 -50727.3 -50006.2 -50006.2 -50006.2 -50006.3 -50006.3 -50006.4 -50006.6 -50006.7 -50006.9 -50007.1 -50007.3 -50007.5 -50007.8 -50008.1 -50008.4 -50008.7 -50009.1 -50009.5 -50009.9 -50010.3 -50010.7 -50011.2 -50011.7 -50012.2 -50012.8 -50013.3 -50013.9 -50014.5 -50015.2 -50015.8 -50016.5 -50017.2 -50017.9 -50018.7 -50019.4 -50020.2 -50021 -50021.9 -50022.7 -50023.6 -50024.5 -50025.5 -50026.4 -50027.4 -50028.4 -50029.4 -50030.5 -50031.5 -50032.6 -50033.7 -50034.9 -50036 -50037.2 -50038.4 -50039.6 -50040.9 -50042.2 -50043.5 -50044.8 -50046.1 -50047.5 -50048.9 -50050.3 -50051.7 -50053.2 -50054.6 -50056.2 -50057.7 -50059.2 -50060.8 -50062.4 -50064 -50065.6 -50067.3 -50069 -50070.7 -50072.4 -50074.2 -50075.9 -50077.7 -50079.6 -50081.4 -50083.3 -50085.1 -50087.1 -50089 -50090.9 -50092.9 -50094.9 -50096.9 -50099 -50101 -50103.1 -50105.2 -50107.4 -50109.5 -50111.7 -50113.9 -50116.1 -50118.4 -50120.6 -50122.9 -50125.2 -50127.5 -50129.9 -50132.3 -50134.7 -50137.1 -50139.5 -50142 -50144.5 -50147 -50149.5 -50152 -50154.6 -50157.2 -50159.8 -50162.4 -50165.1 -50167.8 -50170.5 -50173.2 -50175.9 -50178.7 -50181.5 -50184.3 -50187.1 -50189.9 -49485.3 -49485.4 -49485.4 -49485.4 -49485.5 -49485.6 -49485.7 -49485.9 -49486 -49486.2 -49486.4 -49486.6 -49486.8 -49487.1 -49487.4 -49487.7 -49488 -49488.3 -49488.7 -49489.1 -49489.5 -49489.9 -49490.4 -49490.8 -49491.3 -49491.8 -49492.4 -49492.9 -49493.5 -49494.1 -49494.7 -49495.3 -49496 -49496.6 -49497.3 -49498.1 -49498.8 -49499.5 -49500.3 -49501.1 -49501.9 -49502.8 -49503.6 -49504.5 -49505.4 -49506.3 -49507.3 -49508.2 -49509.2 -49510.2 -49511.2 -49512.3 -49513.4 -49514.4 -49515.5 -49516.7 -49517.8 -49519 -49520.2 -49521.4 -49522.6 -49523.9 -49525.1 -49526.4 -49527.7 -49529.1 -49530.4 -49531.8 -49533.2 -49534.6 -49536 -49537.5 -49538.9 -49540.4 -49541.9 -49543.5 -49545 -49546.6 -49548.2 -49549.8 -49551.4 -49553.1 -49554.8 -49556.4 -49558.2 -49559.9 -49561.6 -49563.4 -49565.2 -49567 -49568.8 -49570.7 -49572.6 -49574.4 -49576.4 -49578.3 -49580.2 -49582.2 -49584.2 -49586.2 -49588.2 -49590.3 -49592.3 -49594.4 -49596.5 -49598.6 -49600.8 -49602.9 -49605.1 -49607.3 -49609.5 -49611.7 -49614 -49616.3 -49618.5 -49620.9 -49623.2 -49625.5 -49627.9 -49630.3 -49632.7 -49635.1 -49637.5 -49640 -49642.5 -49644.9 -49647.4 -49650 -48961.9 -48961.9 -48962 -48962 -48962.1 -48962.2 -48962.3 -48962.4 -48962.5 -48962.7 -48962.9 -48963.1 -48963.3 -48963.5 -48963.7 -48964 -48964.3 -48964.6 -48964.9 -48965.3 -48965.6 -48966 -48966.4 -48966.8 -48967.3 -48967.7 -48968.2 -48968.7 -48969.2 -48969.7 -48970.3 -48970.8 -48971.4 -48972 -48972.6 -48973.3 -48973.9 -48974.6 -48975.3 -48976 -48976.8 -48977.5 -48978.3 -48979.1 -48979.9 -48980.7 -48981.5 -48982.4 -48983.3 -48984.1 -48985.1 -48986 -48986.9 -48987.9 -48988.9 -48989.9 -48990.9 -48992 -48993 -48994.1 -48995.2 -48996.3 -48997.4 -48998.6 -48999.7 -49000.9 -49002.1 -49003.3 -49004.6 -49005.8 -49007.1 -49008.4 -49009.7 -49011 -49012.4 -49013.7 -49015.1 -49016.5 -49017.9 -49019.4 -49020.8 -49022.3 -49023.8 -49025.3 -49026.8 -49028.3 -49029.9 -49031.4 -49033 -49034.6 -49036.2 -49037.9 -49039.5 -49041.2 -49042.9 -49044.6 -49046.3 -49048.1 -49049.8 -49051.6 -49053.4 -49055.2 -49057 -49058.9 -49060.7 -49062.6 -49064.5 -49066.4 -49068.3 -49070.2 -49072.2 -49074.2 -49076.1 -49078.1 -49080.2 -49082.2 -49084.2 -49086.3 -49088.4 -49090.5 -49092.6 -49094.7 -49096.9 -49099 -49101.2 -49103.4 -49105.6 -49107.8 -48436.2 -48436.2 -48436.2 -48436.3 -48436.3 -48436.4 -48436.5 -48436.6 -48436.7 -48436.9 -48437 -48437.2 -48437.4 -48437.6 -48437.8 -48438 -48438.3 -48438.6 -48438.8 -48439.1 -48439.5 -48439.8 -48440.2 -48440.5 -48440.9 -48441.3 -48441.7 -48442.2 -48442.6 -48443.1 -48443.6 -48444.1 -48444.6 -48445.1 -48445.6 -48446.2 -48446.8 -48447.4 -48448 -48448.6 -48449.3 -48449.9 -48450.6 -48451.3 -48452 -48452.7 -48453.5 -48454.2 -48455 -48455.8 -48456.6 -48457.4 -48458.2 -48459.1 -48460 -48460.8 -48461.7 -48462.7 -48463.6 -48464.5 -48465.5 -48466.5 -48467.5 -48468.5 -48469.5 -48470.5 -48471.6 -48472.7 -48473.8 -48474.9 -48476 -48477.1 -48478.3 -48479.4 -48480.6 -48481.8 -48483 -48484.2 -48485.5 -48486.7 -48488 -48489.3 -48490.6 -48491.9 -48493.2 -48494.6 -48495.9 -48497.3 -48498.7 -48500.1 -48501.5 -48502.9 -48504.4 -48505.8 -48507.3 -48508.8 -48510.3 -48511.8 -48513.4 -48514.9 -48516.5 -48518 -48519.6 -48521.2 -48522.9 -48524.5 -48526.1 -48527.8 -48529.5 -48531.2 -48532.9 -48534.6 -48536.3 -48538 -48539.8 -48541.5 -48543.3 -48545.1 -48546.9 -48548.7 -48550.6 -48552.4 -48554.3 -48556.1 -48558 -48559.9 -48561.8 -48563.7 -47908.4 -47908.4 -47908.4 -47908.4 -47908.5 -47908.6 -47908.6 -47908.7 -47908.8 -47909 -47909.1 -47909.2 -47909.4 -47909.6 -47909.8 -47910 -47910.2 -47910.4 -47910.7 -47911 -47911.2 -47911.5 -47911.8 -47912.2 -47912.5 -47912.8 -47913.2 -47913.6 -47914 -47914.4 -47914.8 -47915.2 -47915.7 -47916.1 -47916.6 -47917.1 -47917.6 -47918.1 -47918.7 -47919.2 -47919.8 -47920.3 -47920.9 -47921.5 -47922.1 -47922.8 -47923.4 -47924.1 -47924.7 -47925.4 -47926.1 -47926.8 -47927.6 -47928.3 -47929 -47929.8 -47930.6 -47931.4 -47932.2 -47933 -47933.8 -47934.7 -47935.6 -47936.4 -47937.3 -47938.2 -47939.1 -47940.1 -47941 -47941.9 -47942.9 -47943.9 -47944.9 -47945.9 -47946.9 -47947.9 -47949 -47950 -47951.1 -47952.2 -47953.3 -47954.4 -47955.5 -47956.7 -47957.8 -47959 -47960.1 -47961.3 -47962.5 -47963.7 -47964.9 -47966.2 -47967.4 -47968.7 -47969.9 -47971.2 -47972.5 -47973.8 -47975.1 -47976.5 -47977.8 -47979.2 -47980.5 -47981.9 -47983.3 -47984.7 -47986.1 -47987.5 -47988.9 -47990.4 -47991.8 -47993.3 -47994.8 -47996.3 -47997.7 -47999.3 -48000.8 -48002.3 -48003.8 -48005.4 -48007 -48008.5 -48010.1 -48011.7 -48013.3 -48014.9 -48016.5 -48018.2 -47378.8 -47378.8 -47378.8 -47378.8 -47378.9 -47378.9 -47379 -47379.1 -47379.2 -47379.3 -47379.4 -47379.5 -47379.7 -47379.8 -47380 -47380.2 -47380.4 -47380.6 -47380.8 -47381 -47381.2 -47381.5 -47381.7 -47382 -47382.3 -47382.6 -47382.9 -47383.2 -47383.6 -47383.9 -47384.3 -47384.6 -47385 -47385.4 -47385.8 -47386.2 -47386.7 -47387.1 -47387.6 -47388 -47388.5 -47389 -47389.5 -47390 -47390.5 -47391.1 -47391.6 -47392.2 -47392.8 -47393.3 -47393.9 -47394.5 -47395.2 -47395.8 -47396.4 -47397.1 -47397.7 -47398.4 -47399.1 -47399.8 -47400.5 -47401.2 -47402 -47402.7 -47403.5 -47404.2 -47405 -47405.8 -47406.6 -47407.4 -47408.2 -47409 -47409.9 -47410.7 -47411.6 -47412.5 -47413.4 -47414.3 -47415.2 -47416.1 -47417 -47417.9 -4741