<?xml version="1.0"?> 
<VTKFile type="StructuredGrid" version="0.1"> 
<StructuredGrid WholeExtent="0 127 0 127 0 0"> 
<Piece Extent="0 127 0 127 0 0"> 
<PointData>
<DataArray type="Float32" Name="u" format="ascii" NumberOfComponents="1"> 
-60000 -59084 -58194.5 -57330.4 -56490.1 -55671.8 -54874.1 -54095.5 -53334.6 -52590.5 -51861.8 -51147.7 -50447.3 -49759.7 -49084.3 -48420.3 -47767.2 -47124.3 -46491.2 -45867.4 -45252.5 -44645.9 -44047.5 -43456.7 -42873.3 -42297.1 -41727.6 -41164.7 -40608.1 -40057.5 -39512.8 -38973.8 -38440.2 -37911.9 -37388.7 -36870.4 -36357 -35848.2 -35343.9 -34844 -34348.4 -33856.9 -33369.5 -32886 -32406.3 -31930.3 -31457.9 -30989.1 -30523.7 -30061.7 -29603 -29147.5 -28695.1 -28245.8 -27799.5 -27356 -26915.5 -26477.7 -26042.7 -25610.3 -25180.5 -24753.3 -24328.5 -23906.3 -23486.3 -23068.8 -22653.5 -22240.4 -21829.5 -21420.8 -21014.1 -20609.5 -20206.9 -19806.2 -19407.5 -19010.6 -18615.5 -18222.2 -17830.6 -17440.7 -17052.5 -16665.9 -16280.9 -15897.4 -15515.4 -15134.9 -14755.8 -14378 -14001.6 -13626.6 -13252.7 -12880.2 -12508.8 -12138.6 -11769.5 -11401.5 -11034.6 -10668.7 -10303.8 -9939.81 -9576.76 -9214.6 -8853.29 -8492.8 -8133.09 -7774.13 -7415.89 -7058.33 -6701.42 -6345.12 -5989.41 -5634.25 -5279.61 -4925.45 -4571.75 -4218.46 -3865.57 -3513.02 -3160.8 -2808.87 -2457.2 -2105.75 -1754.5 -1403.41 -1052.44 -701.575 -350.771 0 -60000 -59076.2 -58181.1 -57312.2 -56467.6 -55645.4 -54844.1 -54062.2 -53298.3 -52551.3 -51819.9 -51103.3 -50400.5 -49710.7 -49033.2 -48367.2 -47712.2 -47067.5 -46432.8 -45807.4 -45190.9 -44582.9 -43983.1 -43391.1 -42806.5 -42229.1 -41658.6 -41094.7 -40537.2 -39985.7 -39440.2 -38900.5 -38366.2 -37837.2 -37313.5 -36794.7 -36280.7 -35771.5 -35266.8 -34766.6 -34270.7 -33778.9 -33291.3 -32807.6 -32327.7 -31851.6 -31379.2 -30910.4 -30445 -29983 -29524.4 -29069 -28616.8 -28167.6 -27721.5 -27278.3 -26838 -26400.6 -25965.8 -25533.8 -25104.4 -24677.6 -24253.3 -23831.5 -23412.1 -22995 -22580.3 -22167.8 -21757.5 -21349.4 -20943.4 -20539.4 -20137.5 -19737.5 -19339.5 -18943.3 -18549 -18156.5 -17765.7 -17376.7 -16989.3 -16603.6 -16219.5 -15836.9 -15455.9 -15076.3 -14698.1 -14321.4 -13946 -13572 -13199.2 -12827.7 -12457.5 -12088.4 -11720.4 -11353.6 -10987.8 -10623.1 -10259.4 -9896.67 -9534.87 -9173.98 -8813.96 -8454.78 -8096.4 -7738.79 -7381.92 -7025.75 -6670.25 -6315.39 -5961.13 -5607.45 -5254.31 -4901.67 -4549.51 -4197.79 -3846.48 -3495.55 -3144.96 -2794.69 -2444.7 -2094.97 -1745.45 -1396.11 -1046.93 -697.873 -348.907 0 -60000 -59068.6 -58167.8 -57294.1 -56445.1 -55619.1 -54814.2 -54029 -53262 -52512.1 -51778 -51058.9 -50353.7 -49661.6 -48981.9 -48314 -47657 -47010.6 -46374.1 -45747.1 -45129.1 -44519.7 -43918.6 -43325.3 -42739.5 -42161 -41589.4 -41024.5 -40466 -39913.7 -39367.4 -38826.9 -38291.9 -37762.3 -37237.9 -36718.6 -36204.2 -35694.5 -35189.4 -34688.8 -34192.6 -33700.5 -33212.6 -32728.8 -32248.8 -31772.6 -31300.1 -30831.2 -30365.8 -29903.9 -29445.4 -28990.1 -28538 -28089 -27643.1 -27200.1 -26760.1 -26322.9 -25888.5 -25456.9 -25027.8 -24601.4 -24177.6 -23756.2 -23337.3 -22920.7 -22506.5 -22094.6 -21684.9 -21277.4 -20872 -20468.7 -20067.5 -19668.2 -19270.9 -18875.5 -18481.9 -18090.2 -17700.3 -17312.1 -16925.6 -16540.7 -16157.5 -15775.8 -15395.7 -15017.1 -14639.9 -14264.2 -13889.8 -13516.8 -13145.1 -12774.7 -12405.6 -12037.6 -11670.8 -11305.1 -10940.5 -10577 -10214.5 -9853.01 -9492.47 -9132.86 -8774.14 -8416.28 -8059.24 -7702.99 -7347.51 -6992.74 -6638.67 -6285.26 -5932.47 -5580.28 -5228.65 -4877.56 -4526.96 -4176.82 -3827.12 -3477.82 -3128.89 -2780.3 -2432.02 -2084.02 -1736.25 -1388.7 -1041.33 -694.114 -347.013 0 -60000 -59061.2 -58154.7 -57276.1 -56422.8 -55592.8 -54784.3 -53995.7 -53225.7 -52472.8 -51736 -51014.3 -50306.7 -49612.4 -48930.6 -48260.6 -47601.7 -46953.5 -46315.3 -45686.7 -45067.2 -44456.3 -43853.8 -43259.2 -42672.3 -42092.6 -41519.9 -40954 -40394.6 -39841.4 -39294.3 -38753 -38217.3 -37687 -37162.1 -36642.2 -36127.2 -35617.1 -35111.6 -34610.7 -34114.1 -33621.8 -33133.7 -32649.6 -32169.4 -31693.1 -31220.6 -30751.6 -30286.3 -29824.4 -29365.9 -28910.7 -28458.7 -28009.9 -27564.2 -27121.5 -26681.7 -26244.8 -25810.7 -25379.4 -24950.8 -24524.8 -24101.3 -23680.4 -23262 -22845.9 -22432.3 -22020.9 -21611.8 -21204.9 -20800.1 -20397.5 -19996.9 -19598.3 -19201.7 -18807.1 -18414.3 -18023.4 -17634.3 -17246.9 -16861.2 -16477.3 -16094.9 -15714.2 -15335 -14957.3 -14581.2 -14206.4 -13833.1 -13461.1 -13090.5 -12721.2 -12353.1 -11986.2 -11620.6 -11256.1 -10892.7 -10530.4 -10169.1 -9808.84 -9449.57 -9091.25 -8733.84 -8377.31 -8021.62 -7666.75 -7312.66 -6959.31 -6606.68 -6254.73 -5903.43 -5552.75 -5202.66 -4853.11 -4504.09 -4155.56 -3807.49 -3459.84 -3112.59 -2765.71 -2419.16 -2072.91 -1726.92 -1381.18 -1035.65 -690.298 -345.091 0 -60000 -59053.9 -58141.7 -57258.2 -56400.5 -55566.6 -54754.4 -53962.5 -53189.3 -52433.5 -51694 -50969.7 -50259.7 -49563.1 -48879.1 -48207.1 -47546.3 -46896.2 -46256.3 -45626.1 -45005 -44392.8 -43788.9 -43193 -42604.8 -42024 -41450.2 -40883.3 -40322.9 -39768.9 -39220.9 -38678.8 -38142.4 -37611.5 -37085.9 -36565.5 -36050 -35539.4 -35033.5 -34532.2 -34035.3 -33542.7 -33054.3 -32570 -32089.7 -31613.3 -31140.6 -30671.7 -30206.3 -29744.4 -29286 -28830.9 -28379 -27930.4 -27484.8 -27042.3 -26602.8 -26166.2 -25732.4 -25301.5 -24873.2 -24447.6 -24024.6 -23604.1 -23186.1 -22770.6 -22357.5 -21946.6 -21538.1 -21131.8 -20727.7 -20325.7 -19925.8 -19527.9 -19132 -18738.1 -18346.1 -17956 -17567.7 -17181.1 -16796.3 -16413.2 -16031.8 -15652 -15273.7 -14897 -14521.8 -14148.1 -13775.8 -13404.9 -13035.3 -12667 -12300.1 -11934.3 -11569.8 -11206.5 -10844.3 -10483.2 -10123.2 -9764.17 -9406.17 -9049.15 -8693.06 -8337.87 -7983.55 -7630.06 -7277.38 -6925.47 -6574.29 -6223.82 -5874.02 -5524.87 -5176.32 -4828.35 -4480.93 -4134.02 -3787.59 -3441.62 -3096.07 -2750.91 -2406.11 -2061.64 -1717.46 -1373.56 -1029.89 -686.426 -343.14 0 -60000 -59046.8 -58128.9 -57240.4 -56378.3 -55540.4 -54724.6 -53929.2 -53152.9 -52394.2 -51651.9 -50925 -50212.5 -49513.6 -48827.5 -48153.4 -47490.7 -46838.8 -46197.2 -45565.3 -44942.7 -44329 -43723.7 -43126.5 -42537.1 -41955.1 -41380.3 -40812.3 -40251 -39696.1 -39147.2 -38604.4 -38067.2 -37535.7 -37009.4 -36488.4 -35972.5 -35461.4 -34955.1 -34453.3 -33956.1 -33463.2 -32974.6 -32490.1 -32009.6 -31533.1 -31060.3 -30591.3 -30125.9 -29664 -29205.6 -28750.6 -28298.9 -27850.4 -27405 -26962.7 -26523.5 -26087.1 -25653.7 -25223 -24795.1 -24369.9 -23947.3 -23527.3 -23109.8 -22694.7 -22282.1 -21871.8 -21463.9 -21058.2 -20654.7 -20253.3 -19854.1 -19456.9 -19061.8 -18668.6 -18277.3 -17888 -17500.5 -17114.8 -16730.8 -16348.6 -15968.1 -15589.2 -15211.9 -14836.1 -14461.9 -14089.2 -13717.9 -13348 -12979.5 -12612.4 -12246.5 -11881.9 -11518.6 -11156.4 -10795.4 -10435.5 -10076.7 -9718.99 -9362.29 -9006.57 -8651.81 -8297.97 -7945.03 -7592.94 -7241.68 -6891.21 -6541.5 -6192.52 -5844.24 -5496.63 -5149.64 -4803.27 -4457.46 -4112.19 -3767.43 -3423.15 -3079.32 -2735.91 -2392.88 -2050.22 -1707.87 -1365.83 -1024.04 -682.5 -341.162 0 -60000 -59039.8 -58116.1 -57222.7 -56356.2 -55514.2 -54694.7 -53896 -53116.4 -52354.8 -51609.7 -50880.2 -50165.3 -49464.1 -48775.8 -48099.6 -47435 -46781.3 -46137.9 -45504.4 -44880.2 -44265 -43658.3 -43059.8 -42469.2 -41886 -41310.1 -40741.1 -40178.8 -39623 -39073.3 -38529.6 -37991.8 -37459.5 -36932.7 -36411.1 -35894.6 -35383 -34876.3 -34374.2 -33876.6 -33383.4 -32894.5 -32409.8 -31929.1 -31452.4 -30979.6 -30510.5 -30045.1 -29583.2 -29124.9 -28669.9 -28218.3 -27769.9 -27324.8 -26882.7 -26443.7 -26007.6 -25574.4 -25144.1 -24716.5 -24291.7 -23869.5 -23449.9 -23032.9 -22618.4 -22206.3 -21796.5 -21389.1 -20984 -20581.1 -20180.4 -19781.9 -19385.4 -18990.9 -18598.5 -18208 -17819.5 -17432.8 -17047.9 -16664.8 -16283.4 -15903.8 -15525.8 -15149.4 -14774.7 -14401.4 -14029.7 -13659.5 -13290.6 -12923.2 -12557.2 -12192.4 -11829 -11466.8 -11105.8 -10746 -10387.3 -10029.8 -9673.33 -9317.92 -8963.52 -8610.1 -8257.62 -7906.07 -7555.39 -7205.56 -6856.55 -6508.32 -6160.85 -5814.1 -5468.04 -5122.64 -4777.87 -4433.69 -4090.09 -3747.02 -3404.45 -3062.36 -2720.72 -2379.49 -2038.64 -1698.15 -1357.99 -1018.12 -678.52 -339.156 0 -60000 -59033 -58103.5 -57205 -56334.1 -55488.1 -54664.9 -53862.7 -53080 -52315.3 -51567.5 -50835.4 -50118 -49414.5 -48723.9 -48045.7 -47379.1 -46723.6 -46078.4 -45443.2 -44817.5 -44200.8 -43592.7 -42992.9 -42401 -41816.7 -41239.7 -40669.7 -40106.4 -39549.6 -38999.1 -38454.6 -37916 -37383.1 -36855.6 -36333.4 -35816.4 -35304.3 -34797.1 -34294.6 -33796.7 -33303.2 -32814.1 -32329.1 -31848.3 -31371.4 -30898.5 -30429.3 -29963.8 -29502 -29043.7 -28588.8 -28137.3 -27689.1 -27244.1 -26802.2 -26363.4 -25927.6 -25494.7 -25064.7 -24637.5 -24213 -23791.3 -23372.1 -22955.5 -22541.5 -22129.9 -21720.7 -21313.8 -20909.3 -20507.1 -20107 -19709.1 -19313.3 -18919.6 -18527.9 -18138.2 -17750.4 -17364.5 -16980.4 -16598.2 -16217.7 -15839 -15461.9 -15086.5 -14712.7 -14340.4 -13969.7 -13600.5 -13232.7 -12866.4 -12501.4 -12137.8 -11775.5 -11414.4 -11054.6 -10696.1 -10338.6 -9982.36 -9627.18 -9273.07 -8920 -8567.93 -8216.83 -7866.67 -7517.41 -7169.03 -6821.49 -6474.76 -6128.81 -5783.6 -5439.12 -5095.31 -4752.16 -4409.64 -4067.71 -3726.34 -3385.51 -3045.18 -2705.33 -2365.91 -2026.92 -1688.3 -1350.05 -1012.12 -674.487 -337.123 0 -60000 -59026.2 -58090.9 -57187.5 -56312 -55462 -54635 -53829.4 -53043.5 -52275.8 -51525.2 -50790.4 -50070.6 -49364.7 -48672 -47991.7 -47323.1 -46665.7 -46018.8 -45381.9 -44754.6 -44136.4 -43527 -42925.8 -42332.7 -41747.2 -41169 -40597.9 -40033.7 -39476 -38924.6 -38379.3 -37840 -37306.3 -36778.2 -36255.4 -35737.9 -35225.3 -34717.7 -34214.8 -33716.5 -33222.7 -32733.3 -32248.1 -31767 -31290 -30816.9 -30347.7 -29882.2 -29420.4 -28962.1 -28507.3 -28055.8 -27607.7 -27162.9 -26721.2 -26282.6 -25847.1 -25414.5 -24984.8 -24557.9 -24133.9 -23712.5 -23293.8 -22877.6 -22464.1 -22053 -21644.3 -21238 -20834.1 -20432.4 -20033 -19635.8 -19240.7 -18847.7 -18456.7 -18067.7 -17680.7 -17295.6 -16912.4 -16531 -16151.4 -15773.6 -15397.4 -15023 -14650.1 -14278.8 -13909.1 -13541 -13174.3 -12809 -12445.1 -12082.6 -11721.5 -11361.6 -11003 -10645.6 -10289.5 -9934.44 -9580.55 -9227.75 -8876.01 -8525.3 -8175.59 -7826.84 -7479.02 -7132.09 -6786.04 -6440.81 -6096.4 -5752.75 -5409.85 -5067.66 -4726.16 -4385.3 -4045.07 -3705.42 -3366.34 -3027.79 -2689.75 -2352.17 -2015.05 -1678.33 -1342.01 -1006.04 -670.402 -335.064 0 -60000 -59019.5 -58078.5 -57170 -56290 -55435.9 -54605.2 -53796.1 -53006.9 -52236.3 -51482.8 -50745.4 -50023.1 -49314.8 -48619.9 -47937.5 -47266.9 -46607.6 -45959 -45320.4 -44691.5 -44071.9 -43461 -42858.5 -42264.1 -41677.4 -41098.1 -40526 -39960.7 -39402.1 -38849.8 -38303.8 -37763.6 -37229.3 -36700.5 -36177.2 -35659 -35146 -34637.9 -34134.6 -33635.9 -33141.8 -32652.1 -32166.6 -31685.4 -31208.2 -30735 -30265.7 -29800.2 -29338.3 -28880 -28425.3 -27974 -27526 -27081.3 -26639.8 -26201.4 -25766.1 -25333.8 -24904.4 -24477.9 -24054.2 -23633.2 -23214.9 -22799.3 -22386.2 -21975.6 -21567.4 -21161.7 -20758.4 -20357.3 -19958.5 -19561.9 -19167.5 -18775.2 -18385 -17996.8 -17610.5 -17226.3 -16843.9 -16463.3 -16084.6 -15707.6 -15332.4 -14958.9 -14587 -14216.7 -13848.1 -13480.9 -13115.3 -12751.1 -12388.3 -12027 -11666.9 -11308.3 -10950.9 -10594.7 -10239.8 -9886.04 -9533.45 -9181.97 -8831.58 -8482.24 -8133.92 -7786.59 -7440.21 -7094.76 -6750.2 -6406.5 -6063.63 -5721.56 -5380.26 -5039.7 -4699.85 -4360.68 -4022.16 -3684.26 -3346.95 -3010.2 -2673.98 -2338.27 -2003.03 -1668.24 -1333.87 -999.886 -666.266 -332.98 0 -60000 -59012.8 -58066.1 -57152.5 -56268.1 -55409.8 -54575.3 -53762.7 -52970.3 -52196.6 -51440.3 -50700.3 -49975.4 -49264.8 -48567.7 -47883.2 -47210.6 -46549.4 -45899 -45258.8 -44628.3 -44007.1 -43394.8 -42790.9 -42195.3 -41607.4 -41027 -40453.8 -39887.5 -39327.9 -38774.8 -38227.9 -37687 -37152 -36622.5 -36098.6 -35579.9 -35066.3 -34557.7 -34054 -33555 -33060.5 -32570.5 -32084.9 -31603.4 -31126.1 -30652.7 -30183.3 -29717.7 -29255.8 -28797.6 -28342.9 -27891.6 -27443.8 -26999.2 -26557.9 -26119.8 -25684.7 -25252.7 -24823.6 -24397.4 -23974.1 -23553.5 -23135.6 -22720.4 -22307.7 -21897.7 -21490.1 -21084.9 -20682.1 -20281.7 -19883.5 -19487.6 -19093.8 -18702.2 -18312.7 -17925.3 -17539.8 -17156.3 -16774.8 -16395.1 -16017.2 -15641.2 -15266.9 -14894.3 -14523.4 -14154.1 -13786.4 -13420.3 -13055.7 -12692.6 -12331 -11970.8 -11611.9 -11254.4 -10898.2 -10543.3 -10189.6 -9837.17 -9485.88 -9135.73 -8786.7 -8438.74 -8091.82 -7745.92 -7401 -7057.03 -6713.97 -6371.81 -6030.5 -5690.03 -5350.34 -5011.43 -4673.25 -4335.78 -3998.99 -3662.85 -3327.33 -2992.4 -2658.03 -2324.2 -1990.87 -1658.03 -1325.63 -993.658 -662.08 -330.87 0 -60000 -59006.3 -58053.7 -57135.1 -56246.1 -55383.7 -54545.5 -53729.4 -52933.7 -52157 -51397.8 -50655.1 -49927.7 -49214.7 -48515.3 -47828.7 -47154.1 -46491.1 -45838.8 -45196.9 -44564.8 -43942.1 -43328.4 -42723.2 -42126.2 -41537.1 -40955.6 -40381.3 -39814 -39253.5 -38699.5 -38151.8 -37610.1 -37074.3 -36544.2 -36019.6 -35500.4 -34986.3 -34477.3 -33973.1 -33473.7 -32978.9 -32488.6 -32002.7 -31521 -31043.5 -30570.1 -30100.5 -29634.9 -29173 -28714.7 -28260.1 -27808.9 -27361.2 -26916.7 -26475.6 -26037.7 -25602.8 -25171.1 -24742.3 -24316.4 -23893.4 -23473.2 -23055.8 -22641 -22228.8 -21819.2 -21412.2 -21007.5 -20605.3 -20205.5 -19808 -19412.7 -19019.6 -18628.7 -18239.9 -17853.2 -17468.6 -17085.9 -16705.1 -16326.3 -15949.3 -15574.2 -15200.8 -14829.2 -14459.2 -14090.9 -13724.3 -13359.2 -12995.7 -12633.7 -12273.2 -11914.1 -11556.4 -11200.1 -10845.1 -10491.4 -10139 -9787.83 -9437.86 -9089.05 -8741.37 -8394.8 -8049.3 -7704.84 -7361.39 -7018.91 -6677.38 -6336.76 -5997.03 -5658.16 -5320.11 -4982.85 -4646.36 -4310.61 -3975.57 -3641.2 -3307.49 -2974.4 -2641.9 -2309.97 -1978.58 -1647.7 -1317.3 -987.357 -657.845 -328.735 0 -60000 -58999.7 -58041.5 -57117.8 -56224.2 -55357.6 -54515.6 -53696 -52897 -52117.2 -51355.2 -50609.8 -49879.8 -49164.5 -48462.8 -47774.1 -47097.5 -46432.5 -45778.5 -45134.9 -44501.2 -43876.9 -43261.7 -42655.2 -42056.9 -41466.6 -40883.9 -40308.6 -39740.3 -39178.8 -38623.9 -38075.4 -37532.9 -36996.4 -36465.6 -35940.4 -35420.6 -34906 -34396.5 -33891.9 -33392.1 -32897 -32406.4 -31920.2 -31438.3 -30960.6 -30487 -30017.4 -29551.6 -29089.7 -28631.4 -28176.8 -27725.7 -27278.1 -26833.8 -26392.9 -25955.1 -25520.5 -25089 -24660.5 -24235 -23812.3 -23392.5 -22975.5 -22561.1 -22149.4 -21740.3 -21333.8 -20929.7 -20528.1 -20128.8 -19731.9 -19337.3 -18944.9 -18554.7 -18166.6 -17780.7 -17396.8 -17014.9 -16635 -16257 -15880.9 -15506.6 -15134.2 -14763.5 -14394.5 -14027.3 -13661.6 -13297.6 -12935.2 -12574.2 -12214.8 -11856.9 -11500.4 -11145.3 -10791.5 -10439.1 -10087.9 -9738.04 -9389.38 -9041.92 -8695.61 -8350.44 -8006.37 -7663.36 -7321.38 -6980.41 -6640.41 -6301.36 -5963.22 -5625.96 -5289.55 -4953.98 -4619.19 -4285.17 -3951.89 -3619.32 -3287.44 -2956.2 -2625.59 -2295.58 -1966.15 -1637.25 -1308.87 -980.986 -653.562 -326.575 0 -60000 -58993.3 -58029.3 -57100.5 -56202.3 -55331.6 -54485.7 -53662.5 -52860.3 -52077.4 -51312.5 -50564.3 -49831.9 -49114.1 -48410.2 -47719.3 -47040.7 -46373.8 -45718 -45072.7 -44437.3 -43811.6 -43194.9 -42587 -41987.4 -41395.9 -40812.1 -40235.6 -39666.3 -39103.9 -38548.1 -37998.7 -37455.5 -36918.2 -36386.8 -35860.9 -35340.5 -34825.4 -34315.4 -33810.3 -33310.2 -32814.7 -32323.8 -31837.3 -31355.2 -30877.3 -30403.5 -29933.8 -29468 -29006 -28547.8 -28093.2 -27642.1 -27194.6 -26750.5 -26309.7 -25872.1 -25437.7 -25006.5 -24578.3 -24153.1 -23730.8 -23311.3 -22894.7 -22480.8 -22069.5 -21660.9 -21254.9 -20851.3 -20450.3 -20051.6 -19655.3 -19261.4 -18869.6 -18480.1 -18092.8 -17707.6 -17324.5 -16943.4 -16564.3 -16187.2 -15812 -15438.6 -15067.1 -14697.3 -14329.3 -13963.1 -13598.5 -13235.5 -12874.1 -12514.3 -12156 -11799.2 -11443.9 -11089.9 -10737.4 -10386.2 -10036.4 -9687.79 -9340.46 -8994.35 -8649.43 -8305.66 -7963.02 -7621.48 -7280.99 -6941.54 -6603.08 -6265.6 -5929.07 -5593.44 -5258.69 -4924.81 -4591.74 -4259.47 -3927.98 -3597.22 -3267.17 -2937.81 -2609.11 -2281.04 -1953.58 -1626.69 -1300.36 -974.544 -649.232 -324.392 0 -60000 -58986.9 -58017.1 -57083.2 -56180.5 -55305.5 -54455.8 -53629 -52823.5 -52037.5 -51269.7 -50518.8 -49783.8 -49063.7 -48357.4 -47664.4 -46983.8 -46315 -45657.3 -45010.2 -44373.3 -43746 -43127.9 -42518.6 -41917.7 -41325 -40740 -40162.4 -39592.1 -39028.7 -38472 -37921.7 -37377.7 -36839.7 -36307.6 -35781.1 -35260.1 -34744.4 -34233.9 -33728.5 -33227.9 -32732 -32240.8 -31754.1 -31271.7 -30793.6 -30319.7 -29849.9 -29384 -28921.9 -28463.7 -28009.1 -27558.1 -27110.7 -26666.7 -26226 -25788.7 -25354.5 -24923.5 -24495.6 -24070.7 -23648.7 -23229.7 -22813.4 -22399.9 -21989.1 -21581 -21175.5 -20772.5 -20372 -19973.9 -19578.3 -19184.9 -18793.9 -18405.1 -18018.5 -17634 -17251.7 -16871.4 -16493.1 -16116.9 -15742.5 -15370 -14999.4 -14630.6 -14263.6 -13898.4 -13534.8 -13172.9 -12812.6 -12453.8 -12096.7 -11741 -11386.9 -11034.2 -10682.9 -10332.9 -9984.36 -9637.09 -9291.1 -8946.35 -8602.82 -8260.47 -7919.28 -7579.2 -7240.22 -6902.29 -6565.4 -6229.51 -5894.58 -5560.6 -5227.53 -4895.35 -4564.02 -4233.52 -3903.82 -3574.89 -3246.7 -2919.24 -2592.46 -2266.35 -1940.88 -1616.02 -1291.75 -968.035 -644.856 -322.186 0 -60000 -58980.5 -58005 -57066 -56158.6 -55279.5 -54425.8 -53595.5 -52786.6 -51997.5 -51226.8 -50473.2 -49735.6 -49013.1 -48304.6 -47609.4 -46926.7 -46255.9 -45596.4 -44947.7 -44309.1 -43680.2 -43060.7 -42450 -41847.8 -41253.8 -40667.6 -40089 -39517.6 -38953.2 -38395.6 -37844.5 -37299.7 -36760.9 -36228.1 -35701 -35179.4 -34663.2 -34152.2 -33646.2 -33145.2 -32649 -32157.5 -31670.5 -31187.9 -30709.6 -30235.5 -29765.5 -29299.5 -28837.5 -28379.2 -27924.6 -27473.7 -27026.4 -26582.5 -26142 -25704.8 -25270.9 -24840.1 -24412.5 -23987.9 -23566.2 -23147.5 -22731.7 -22318.6 -21908.3 -21500.6 -21095.6 -20693.2 -20293.2 -19895.8 -19500.7 -19108 -18717.6 -18329.5 -17943.6 -17559.9 -17178.4 -16798.9 -16421.4 -16046 -15672.5 -15301 -14931.3 -14563.5 -14197.4 -13833.2 -13470.6 -13109.7 -12750.5 -12392.9 -12036.9 -11682.4 -11329.4 -10977.9 -10627.9 -10279.2 -9931.91 -9585.95 -9241.31 -8897.93 -8555.8 -8214.88 -7875.14 -7536.55 -7199.08 -6862.69 -6527.37 -6193.07 -5859.77 -5527.45 -5196.07 -4865.6 -4536.02 -4207.31 -3879.42 -3552.33 -3226.03 -2900.48 -2575.65 -2251.51 -1928.06 -1605.24 -1283.05 -961.458 -640.434 -319.956 0 -60000 -58974.1 -57992.9 -57048.7 -56136.7 -55253.4 -54395.9 -53562 -52749.7 -51957.5 -51183.9 -50427.5 -49687.4 -48962.3 -48251.5 -47554.2 -46869.5 -46196.8 -45535.4 -44884.9 -44244.7 -43614.3 -42993.2 -42381.1 -41777.6 -41182.4 -40595 -40015.3 -39442.9 -38877.5 -38319 -37767 -37221.3 -36681.9 -36148.3 -35620.5 -35098.4 -34581.6 -34070.1 -33563.7 -33062.3 -32565.7 -32073.8 -31586.5 -31103.7 -30625.2 -30150.9 -29680.8 -29214.7 -28752.6 -28294.3 -27839.8 -27388.9 -26941.6 -26497.8 -26057.5 -25620.5 -25186.8 -24756.3 -24328.9 -23904.6 -23483.3 -23065 -22649.5 -22236.8 -21827 -21419.8 -21015.3 -20613.4 -20214 -19817.1 -19422.6 -19030.6 -18640.9 -18253.5 -17868.3 -17485.4 -17104.6 -16725.9 -16349.3 -15974.7 -15602.1 -15231.4 -14862.7 -14495.8 -14130.7 -13767.5 -13405.9 -13046.1 -12688 -12331.5 -11976.6 -11623.3 -11271.5 -10921.2 -10572.4 -10225 -9879.01 -9534.39 -9191.09 -8849.1 -8508.37 -8168.89 -7830.61 -7493.51 -7157.56 -6822.73 -6488.99 -6156.3 -5824.65 -5493.99 -5164.32 -4835.58 -4507.77 -4180.85 -3854.79 -3529.57 -3205.16 -2881.53 -2558.66 -2236.53 -1915.1 -1594.36 -1274.27 -954.816 -635.968 -317.705 0 -60000 -58967.8 -57980.8 -57031.5 -56114.9 -55227.3 -54365.9 -53528.3 -52712.7 -51917.4 -51140.8 -50381.7 -49638.9 -48911.5 -48198.4 -47498.8 -46812.1 -46137.4 -45474.2 -44822 -44180.1 -43548.1 -42925.6 -42312.1 -41707.2 -41110.7 -40522.2 -39941.4 -39367.9 -38801.5 -38242 -37689.2 -37142.7 -36602.5 -36068.3 -35539.8 -35017 -34499.7 -33987.7 -33480.8 -32979 -32482 -31989.8 -31502.2 -31019.1 -30540.4 -30066 -29595.7 -29129.6 -28667.4 -28209 -27754.5 -27303.7 -26856.5 -26412.8 -25972.6 -25535.8 -25102.3 -24672 -24244.9 -23820.9 -23399.9 -22981.9 -22566.8 -22154.6 -21745.2 -21338.5 -20934.5 -20533.1 -20134.2 -19737.9 -19344.1 -18952.7 -18563.7 -18176.9 -17792.5 -17410.3 -17030.2 -16652.4 -16276.6 -15902.8 -15531.1 -15161.4 -14793.5 -14427.6 -14063.5 -13701.3 -13340.8 -12982.1 -12625 -12269.6 -11915.9 -11563.7 -11213.1 -10864.1 -10516.5 -10170.4 -9825.69 -9482.39 -9140.46 -8799.85 -8460.55 -8122.51 -7785.7 -7450.11 -7115.69 -6782.42 -6450.27 -6119.21 -5789.2 -5460.24 -5132.27 -4805.29 -4479.25 -4154.14 -3829.93 -3506.59 -3184.09 -2862.41 -2541.52 -2221.4 -1902.03 -1583.37 -1265.4 -948.11 -631.459 -315.431 0 -60000 -58961.5 -57968.8 -57014.3 -56093 -55201.2 -54335.8 -53494.7 -52675.7 -51877.2 -51097.7 -50335.8 -49590.4 -48860.5 -48145.1 -47443.3 -46754.5 -46077.9 -45412.9 -44758.8 -44115.3 -43481.7 -42857.7 -42242.8 -41636.6 -41038.9 -40449.2 -39867.2 -39292.6 -38725.3 -38164.9 -37611.1 -37063.9 -36522.9 -35987.9 -35458.8 -34935.4 -34417.5 -33905 -33397.6 -32895.4 -32398 -31905.5 -31417.6 -30934.2 -30455.3 -29980.7 -29510.3 -29044 -28581.7 -28123.4 -27668.8 -27218.1 -26770.9 -26327.3 -25887.3 -25450.6 -25017.3 -24587.3 -24160.4 -23736.7 -23316.1 -22898.4 -22483.7 -22071.9 -21662.9 -21256.7 -20853.2 -20452.3 -20054 -19658.3 -19265.1 -18874.3 -18485.9 -18099.9 -17716.2 -17334.7 -16955.5 -16578.4 -16203.4 -15830.5 -15459.7 -15090.8 -14723.9 -14359 -13995.9 -13634.6 -13275.2 -12917.5 -12561.5 -12207.3 -11854.7 -11503.7 -11154.3 -10806.5 -10460.2 -10115.3 -9771.94 -9429.98 -9089.42 -8750.21 -8412.33 -8075.74 -7740.42 -7406.34 -7073.46 -6741.77 -6411.22 -6081.79 -5753.45 -5426.18 -5099.95 -4774.73 -4450.49 -4127.2 -3804.85 -3483.4 -3162.83 -2843.11 -2524.22 -2206.14 -1888.83 -1572.28 -1256.46 -941.34 -626.908 -313.136 0 -60000 -58955.2 -57956.8 -56997.2 -56071.2 -55175 -54305.8 -53461 -52638.6 -51836.9 -51054.4 -50289.8 -49541.8 -48809.4 -48091.6 -47387.7 -46696.8 -46018.2 -45351.3 -44695.5 -44050.3 -43415.2 -42789.6 -42173.3 -41565.8 -40966.8 -40375.9 -39792.8 -39217.2 -38648.8 -38087.5 -37532.8 -36984.7 -36442.9 -35907.3 -35377.5 -34853.5 -34335 -33821.9 -33314.1 -32811.4 -32313.7 -31820.8 -31332.6 -30849 -30369.8 -29895 -29424.5 -28958.1 -28495.7 -28037.3 -27582.8 -27132 -26685 -26241.5 -25801.5 -25365.1 -24931.9 -24502.1 -24075.5 -23652.1 -23231.8 -22814.5 -22400.2 -21988.8 -21580.2 -21174.4 -20771.4 -20371.1 -19973.4 -19578.2 -19185.6 -18795.5 -18407.7 -18022.4 -17639.4 -17258.7 -16880.2 -16503.9 -16129.7 -15757.7 -15387.8 -15019.8 -14653.9 -14289.8 -13927.7 -13567.5 -13209.1 -12852.5 -12497.6 -12144.5 -11793 -11443.2 -11095 -10748.4 -10403.4 -10059.8 -9717.77 -9377.16 -9037.97 -8700.17 -8363.72 -8028.6 -7694.77 -7362.21 -7030.89 -6700.77 -6371.84 -6044.06 -5717.4 -5391.84 -5067.35 -4743.9 -4421.47 -4100.03 -3779.55 -3460.01 -3141.38 -2823.64 -2506.77 -2190.74 -1875.52 -1561.09 -1247.43 -934.51 -622.315 -310.819 0 -60000 -58948.9 -57944.8 -56980 -56049.3 -55148.9 -54275.6 -53427.2 -52601.4 -51796.6 -51011.1 -50243.7 -49493 -48758.2 -48038.1 -47331.9 -46638.9 -45958.4 -45289.6 -44632 -43985.1 -43348.4 -42721.4 -42103.6 -41494.8 -40894.5 -40302.4 -39718.1 -39141.4 -38572.1 -38009.8 -37454.3 -36905.3 -36362.8 -35826.3 -35295.9 -34771.2 -34252.2 -33738.6 -33230.3 -32727.2 -32229 -31735.8 -31247.3 -30763.4 -30284 -29809 -29338.3 -28871.8 -28409.4 -27950.9 -27496.4 -27045.6 -26598.6 -26155.2 -25715.4 -25279.1 -24846.1 -24416.5 -23990.2 -23567.1 -23147.1 -22730.1 -22316.2 -21905.2 -21497.1 -21091.8 -20689.2 -20289.4 -19892.2 -19497.7 -19105.6 -18716.1 -18329.1 -17944.4 -17562.1 -17182.2 -16804.4 -16428.9 -16055.6 -15684.4 -15315.4 -14948.3 -14583.3 -14220.3 -13859.1 -13499.9 -13142.6 -12787 -12433.3 -12081.2 -11730.9 -11382.3 -11035.3 -10690 -10346.2 -10003.9 -9663.2 -9323.94 -8986.13 -8649.74 -8314.73 -7981.08 -7648.76 -7317.73 -6987.97 -6659.45 -6332.15 -6006.02 -5681.05 -5357.22 -5034.48 -4712.82 -4392.21 -4072.62 -3754.03 -3436.42 -3119.75 -2804.01 -2489.17 -2175.2 -1862.08 -1549.8 -1238.32 -927.619 -617.682 -308.483 0 -60000 -58942.6 -57932.8 -56962.8 -56027.4 -55122.7 -54245.5 -53393.3 -52564.2 -51756.1 -50967.7 -50197.4 -49444.2 -48706.8 -47984.4 -47276 -46580.9 -45898.3 -45227.7 -44568.4 -43919.8 -43281.5 -42652.9 -42033.7 -41423.5 -40822 -40228.6 -39643.2 -39065.5 -38495.1 -37931.8 -37375.4 -36825.7 -36282.3 -35745.2 -35214 -34688.7 -34169.1 -33655 -33146.2 -32642.6 -32144.1 -31650.4 -31161.6 -30677.4 -30197.8 -29722.6 -29251.8 -28785.1 -28322.6 -27864.1 -27409.5 -26958.8 -26511.9 -26068.6 -25628.9 -25192.7 -24759.9 -24330.6 -23904.5 -23481.6 -23061.9 -22645.3 -22231.8 -21821.1 -21413.5 -21008.6 -20606.6 -20207.3 -19810.6 -19416.6 -19025.2 -18636.4 -18250 -17866 -17484.4 -17105.2 -16728.2 -16353.5 -15981 -15610.7 -15242.5 -14876.4 -14512.3 -14150.2 -13790.1 -13431.9 -13075.6 -12721.1 -12368.4 -12017.5 -11668.4 -11321 -10975.2 -10631.1 -10288.6 -9947.62 -9608.22 -9270.32 -8933.9 -8598.93 -8265.37 -7933.2 -7602.39 -7272.9 -6944.72 -6617.81 -6292.14 -5967.68 -5644.42 -5322.31 -5001.34 -4681.49 -4362.71 -4044.99 -3728.31 -3412.63 -3097.94 -2784.21 -2471.42 -2159.53 -1848.54 -1538.41 -1229.13 -920.67 -613.009 -306.126 0 -60000 -58936.3 -57920.8 -56945.6 -56005.5 -55096.5 -54215.3 -53359.5 -52526.8 -51715.6 -50924.1 -50151.1 -49395.2 -48655.3 -47930.5 -47219.9 -46522.7 -45838.2 -45165.6 -44504.5 -43854.2 -43214.3 -42584.3 -41963.6 -41352.1 -40749.2 -40154.7 -39568.1 -38989.3 -38417.9 -37853.7 -37296.3 -36745.7 -36201.6 -35663.7 -35131.9 -34605.9 -34085.7 -33571 -33061.8 -32557.7 -32058.8 -31564.8 -31075.6 -30591.2 -30111.3 -29635.9 -29164.9 -28698.1 -28235.5 -27776.9 -27322.4 -26871.7 -26424.7 -25981.5 -25541.9 -25105.9 -24673.3 -24244.2 -23818.3 -23395.8 -22976.4 -22560.1 -22146.9 -21736.7 -21329.4 -20925 -20523.5 -20124.7 -19728.6 -19335.2 -18944.4 -18556.1 -18170.4 -17787.1 -17406.2 -17027.7 -16651.6 -16277.7 -15906 -15536.5 -15169.2 -14804 -14440.8 -14079.7 -13720.6 -13363.4 -13008.1 -12654.7 -12303.2 -11953.4 -11605.4 -11259.2 -10914.7 -10571.8 -10230.5 -9890.91 -9552.84 -9216.31 -8881.29 -8547.74 -8215.64 -7884.96 -7555.67 -7227.74 -6901.14 -6575.84 -6251.82 -5929.05 -5607.49 -5287.14 -4967.95 -4649.9 -4332.98 -4017.14 -3702.38 -3388.66 -3075.96 -2764.25 -2453.52 -2143.74 -1834.89 -1526.94 -1219.87 -913.664 -608.298 -303.75 0 -60000 -58930.1 -57908.8 -56928.5 -55983.6 -55070.2 -54185 -53325.5 -52489.4 -51675 -50880.5 -50104.6 -49346 -48603.7 -47876.5 -47163.7 -46464.4 -45777.8 -45103.4 -44440.5 -43788.5 -43147 -42515.4 -41893.3 -41280.4 -40676.2 -40080.5 -39492.8 -38912.8 -38340.4 -37775.2 -37217 -36665.5 -36120.6 -35581.9 -35049.4 -34522.9 -34002 -33486.8 -32977 -32472.5 -31973.2 -31478.8 -30989.3 -30504.6 -30024.5 -29548.8 -29077.6 -28610.7 -28148 -27689.4 -27234.8 -26784.1 -26337.2 -25894.1 -25454.6 -25018.7 -24586.3 -24157.4 -23731.8 -23309.5 -22890.4 -22474.5 -22061.6 -21651.8 -21245 -20841 -20439.9 -20041.7 -19646.1 -19253.3 -18863.1 -18475.4 -18090.4 -17707.8 -17327.6 -16949.8 -16574.4 -16201.3 -15830.5 -15461.9 -15095.4 -14731.1 -14368.9 -14008.8 -13650.6 -13294.5 -12940.2 -12587.9 -12237.5 -11888.9 -11542.1 -11197 -10853.7 -10512.1 -10172.1 -9833.8 -9497.07 -9161.92 -8828.3 -8496.19 -8165.56 -7836.38 -7508.62 -7182.24 -6857.24 -6533.56 -6211.2 -5890.12 -5570.29 -5251.69 -4934.3 -4618.08 -4303.02 -3989.08 -3676.25 -3364.5 -3053.8 -2744.14 -2435.49 -2127.82 -1821.12 -1515.37 -1210.53 -906.601 -603.548 -301.355 0 -60000 -58923.8 -57896.8 -56911.3 -55961.7 -55043.9 -54154.7 -53291.5 -52452 -51634.3 -50836.8 -50058.1 -49296.8 -48551.9 -47822.4 -47107.3 -46405.9 -45717.4 -45041 -44376.3 -43722.6 -43079.5 -42446.4 -41822.8 -41208.5 -40603.1 -40006.1 -39417.2 -38836.2 -38262.7 -37696.5 -37137.4 -36585.1 -36039.3 -35499.9 -34966.7 -34439.5 -33918.1 -33402.3 -32892 -32387 -31887.2 -31392.5 -30902.7 -30417.6 -29937.3 -29461.4 -28990.1 -28523 -28060.2 -27601.5 -27146.9 -26696.2 -26249.4 -25806.3 -25366.9 -24931.2 -24499 -24070.2 -23644.8 -23222.8 -22804 -22388.4 -21975.9 -21566.5 -21160.1 -20756.6 -20356 -19958.2 -19563.2 -19170.9 -18781.3 -18394.3 -18009.9 -17628 -17248.5 -16871.5 -16496.9 -16124.6 -15754.6 -15386.8 -15021.2 -14657.8 -14296.6 -13937.4 -13580.2 -13225.1 -12871.9 -12520.7 -12171.4 -11823.9 -11478.3 -11134.4 -10792.3 -10452 -10113.3 -9776.3 -9440.92 -9107.15 -8774.95 -8444.28 -8115.12 -7787.45 -7461.22 -7136.42 -6813.02 -6490.98 -6170.29 -5850.91 -5532.82 -5215.99 -4900.4 -4586.02 -4272.83 -3960.8 -3649.92 -3340.15 -3031.47 -2723.87 -2417.31 -2111.78 -1807.25 -1503.71 -1201.13 -899.484 -598.763 -298.941 0 -60000 -58917.6 -57884.8 -56894.1 -55939.7 -55017.6 -54124.4 -53257.4 -52414.4 -51593.5 -50793 -50011.4 -49247.5 -48500.1 -47768.2 -47050.8 -46347.3 -45656.7 -44978.5 -44311.9 -43656.5 -43011.8 -42377.1 -41752.1 -41136.5 -40529.7 -39931.4 -39341.4 -38759.3 -38184.8 -37617.6 -37057.6 -36504.4 -35957.8 -35417.7 -34883.7 -34355.9 -33833.8 -33317.5 -32806.7 -32301.2 -31801 -31305.9 -30815.7 -30330.4 -29849.8 -29373.7 -28902.2 -28435 -27972 -27513.3 -27058.6 -26607.9 -26161.1 -25718.1 -25278.8 -24843.2 -24411.2 -23982.6 -23557.5 -23135.7 -22717.2 -22301.9 -21889.8 -21480.8 -21074.8 -20671.7 -20271.6 -19874.3 -19479.9 -19088.2 -18699.1 -18312.8 -17929 -17547.8 -17169 -16792.8 -16418.9 -16047.4 -15678.2 -15311.3 -14946.6 -14584.1 -14223.8 -13865.6 -13509.4 -13155.3 -12803.2 -12453.1 -12104.8 -11758.5 -11414.1 -11071.4 -10730.6 -10391.5 -10054.1 -9718.42 -9384.4 -9052.02 -8721.23 -8392.02 -8064.34 -7738.18 -7413.5 -7090.28 -6768.49 -6448.1 -6129.08 -5811.42 -5495.07 -5180.03 -4866.25 -4553.73 -4242.43 -3932.32 -3623.4 -3315.63 -3008.98 -2703.45 -2399 -2095.62 -1793.28 -1491.96 -1191.65 -892.314 -593.941 -296.509 0 -60000 -58911.3 -57872.8 -56876.8 -55917.7 -54991.2 -54094 -53223.2 -52376.8 -51552.6 -50749 -49964.6 -49198 -48448.1 -47713.8 -46994.2 -46288.5 -45595.9 -44915.7 -44247.4 -43590.3 -42943.9 -42307.7 -41681.3 -41064.2 -40456.1 -39856.6 -39265.4 -38682.2 -38106.6 -37538.5 -36977.5 -36423.4 -35876 -35335.1 -34800.5 -34272 -33749.3 -33232.4 -32721.1 -32215.2 -31714.5 -31219 -30728.5 -30242.8 -29761.9 -29285.7 -28813.9 -28346.6 -27883.5 -27424.7 -26970 -26519.3 -26072.5 -25629.6 -25190.4 -24754.9 -24323 -23894.7 -23469.8 -23048.2 -22630 -22215.1 -21803.3 -21394.6 -20989.1 -20586.5 -20186.8 -19790.1 -19396.1 -19