<?xml version="1.0"?> 
<VTKFile type="StructuredGrid" version="0.1"> 
<StructuredGrid WholeExtent="0 127 0 127 0 0"> 
<Piece Extent="0 127 0 127 0 0"> 
<PointData>
<DataArray type="Float32" Name="u" format="ascii" NumberOfComponents="1"> 
0 0 0 0 0 0 0 0 0 0 0 0 0 0 0 0 0 0 0 0 0 0 0 0 0 0 0 0 0 0 0 0 0 0 0 0 0 0 0 0 0 0 0 0 0 0 0 0 0 0 0 0 0 0 0 0 0 0 0 0 0 0 0 0 0 0 0 0 0 0 0 0 0 0 0 0 0 0 0 0 0 0 0 0 0 0 0 0 0 0 0 0 0 0 0 0 0 0 0 0 0 0 0 0 0 0 0 0 0 0 0 0 0 0 0 0 0 0 0 0 0 0 0 0 0 0 0 0 -466.343 -466.329 -466.314 -466.3 -466.286 -466.272 -466.257 -466.243 -466.228 -466.214 -466.199 -466.184 -466.169 -466.154 -466.139 -466.124 -466.109 -466.093 -466.078 -466.062 -466.047 -466.031 -466.015 -466 -465.984 -465.968 -465.952 -465.936 -465.919 -465.903 -465.887 -465.87 -465.853 -465.837 -465.82 -465.803 -465.786 -465.769 -465.752 -465.735 -465.718 -465.7 -465.683 -465.665 -465.648 -465.63 -465.612 -465.594 -465.576 -465.558 -465.54 -465.521 -465.503 -465.484 -465.466 -465.447 -465.428 -465.41 -465.391 -465.372 -465.352 -465.333 -465.314 -465.294 -465.275 -465.255 -465.236 -465.216 -465.196 -465.176 -465.156 -465.135 -465.115 -465.095 -465.074 -465.053 -465.033 -465.012 -464.991 -464.97 -464.949 -464.928 -464.906 -464.885 -464.863 -464.842 -464.82 -464.798 -464.776 -464.754 -464.732 -464.709 -464.687 -464.665 -464.642 -464.619 -464.596 -464.573 -464.55 -464.527 -464.504 -464.481 -464.457 -464.433 -464.41 -464.386 -464.362 -464.338 -464.314 -464.289 -464.265 -464.241 -464.216 -464.191 -464.166 -464.141 -464.116 -464.091 -464.066 -464.04 -464.015 -463.989 -463.963 -463.937 -463.911 -463.885 -463.859 -463.833 -932.692 -932.663 -932.635 -932.606 -932.578 -932.549 -932.52 -932.491 -932.461 -932.432 -932.402 -932.372 -932.342 -932.312 -932.281 -932.251 -932.22 -932.189 -932.158 -932.127 -932.096 -932.064 -932.032 -932.001 -931.969 -931.936 -931.904 -931.871 -931.839 -931.806 -931.773 -931.739 -931.706 -931.672 -931.638 -931.604 -931.57 -931.536 -931.501 -931.467 -931.432 -931.397 -931.361 -931.326 -931.29 -931.255 -931.219 -931.182 -931.146 -931.11 -931.073 -931.036 -930.999 -930.961 -930.924 -930.886 -930.848 -930.81 -930.772 -930.734 -930.695 -930.656 -930.617 -930.578 -930.538 -930.499 -930.459 -930.419 -930.379 -930.338 -930.297 -930.257 -930.216 -930.174 -930.133 -930.091 -930.049 -930.007 -929.965 -929.922 -929.88 -929.837 -929.794 -929.75 -929.707 -929.663 -929.619 -929.575 -929.53 -929.486 -929.441 -929.396 -929.351 -929.305 -929.259 -929.214 -929.167 -929.121 -929.074 -929.028 -928.981 -928.933 -928.886 -928.838 -928.79 -928.742 -928.694 -928.645 -928.596 -928.547 -928.498 -928.448 -928.398 -928.348 -928.298 -928.247 -928.197 -928.146 -928.094 -928.043 -927.991 -927.939 -927.887 -927.835 -927.782 -927.729 -927.676 -927.623 -1399.05 -1399.01 -1398.97 -1398.93 -1398.88 -1398.84 -1398.79 -1398.75 -1398.71 -1398.66 -1398.62 -1398.57 -1398.53 -1398.48 -1398.43 -1398.39 -1398.34 -1398.3 -1398.25 -1398.2 -1398.15 -1398.11 -1398.06 -1398.01 -1397.96 -1397.91 -1397.86 -1397.81 -1397.77 -1397.72 -1397.67 -1397.62 -1397.56 -1397.51 -1397.46 -1397.41 -1397.36 -1397.31 -1397.26 -1397.2 -1397.15 -1397.1 -1397.04 -1396.99 -1396.94 -1396.88 -1396.83 -1396.77 -1396.72 -1396.66 -1396.61 -1396.55 -1396.5 -1396.44 -1396.38 -1396.32 -1396.27 -1396.21 -1396.15 -1396.09 -1396.04 -1395.98 -1395.92 -1395.86 -1395.8 -1395.74 -1395.68 -1395.62 -1395.56 -1395.5 -1395.43 -1395.37 -1395.31 -1395.25 -1395.18 -1395.12 -1395.06 -1394.99 -1394.93 -1394.87 -1394.8 -1394.74 -1394.67 -1394.61 -1394.54 -1394.47 -1394.41 -1394.34 -1394.27 -1394.2 -1394.14 -1394.07 -1394 -1393.93 -1393.86 -1393.79 -1393.72 -1393.65 -1393.58 -1393.51 -1393.44 -1393.37 -1393.3 -1393.22 -1393.15 -1393.08 -1393 -1392.93 -1392.86 -1392.78 -1392.71 -1392.63 -1392.56 -1392.48 -1392.4 -1392.33 -1392.25 -1392.17 -1392.1 -1392.02 -1391.94 -1391.86 -1391.78 -1391.7 -1391.62 -1391.54 -1391.46 -1391.38 -1865.44 -1865.38 -1865.32 -1865.26 -1865.2 -1865.15 -1865.09 -1865.03 -1864.97 -1864.91 -1864.85 -1864.79 -1864.73 -1864.67 -1864.6 -1864.54 -1864.48 -1864.42 -1864.35 -1864.29 -1864.23 -1864.16 -1864.1 -1864.03 -1863.97 -1863.9 -1863.84 -1863.77 -1863.71 -1863.64 -1863.57 -1863.5 -1863.44 -1863.37 -1863.3 -1863.23 -1863.16 -1863.09 -1863.02 -1862.95 -1862.88 -1862.81 -1862.74 -1862.67 -1862.59 -1862.52 -1862.45 -1862.37 -1862.3 -1862.23 -1862.15 -1862.08 -1862 -1861.92 -1861.85 -1861.77 -1861.69 -1861.62 -1861.54 -1861.46 -1861.38 -1861.3 -1861.22 -1861.14 -1861.06 -1860.98 -1860.9 -1860.82 -1860.74 -1860.66 -1860.57 -1860.49 -1860.41 -1860.32 -1860.24 -1860.15 -1860.07 -1859.98 -1859.9 -1859.81 -1859.72 -1859.63 -1859.55 -1859.46 -1859.37 -1859.28 -1859.19 -1859.1 -1859.01 -1858.92 -1858.83 -1858.74 -1858.64 -1858.55 -1858.46 -1858.36 -1858.27 -1858.18 -1858.08 -1857.98 -1857.89 -1857.79 -1857.7 -1857.6 -1857.5 -1857.4 -1857.3 -1857.2 -1857.1 -1857 -1856.9 -1856.8 -1856.7 -1856.6 -1856.49 -1856.39 -1856.29 -1856.18 -1856.08 -1855.97 -1855.87 -1855.76 -1855.66 -1855.55 -1855.44 -1855.33 -1855.22 -1855.11 -2331.84 -2331.77 -2331.7 -2331.63 -2331.55 -2331.48 -2331.41 -2331.33 -2331.26 -2331.18 -2331.11 -2331.03 -2330.95 -2330.88 -2330.8 -2330.72 -2330.64 -2330.56 -2330.48 -2330.4 -2330.32 -2330.24 -2330.16 -2330.08 -2330 -2329.92 -2329.84 -2329.75 -2329.67 -2329.58 -2329.5 -2329.41 -2329.33 -2329.24 -2329.16 -2329.07 -2328.98 -2328.9 -2328.81 -2328.72 -2328.63 -2328.54 -2328.45 -2328.36 -2328.27 -2328.18 -2328.08 -2327.99 -2327.9 -2327.8 -2327.71 -2327.62 -2327.52 -2327.43 -2327.33 -2327.23 -2327.14 -2327.04 -2326.94 -2326.84 -2326.74 -2326.64 -2326.54 -2326.44 -2326.34 -2326.24 -2326.14 -2326.03 -2325.93 -2325.83 -2325.72 -2325.62 -2325.51 -2325.41 -2325.3 -2325.19 -2325.09 -2324.98 -2324.87 -2324.76 -2324.65 -2324.54 -2324.43 -2324.32 -2324.21 -2324.09 -2323.98 -2323.87 -2323.75 -2323.64 -2323.52 -2323.41 -2323.29 -2323.17 -2323.06 -2322.94 -2322.82 -2322.7 -2322.58 -2322.46 -2322.34 -2322.22 -2322.09 -2321.97 -2321.85 -2321.72 -2321.6 -2321.47 -2321.35 -2321.22 -2321.09 -2320.97 -2320.84 -2320.71 -2320.58 -2320.45 -2320.32 -2320.19 -2320.05 -2319.92 -2319.79 -2319.65 -2319.52 -2319.38 -2319.25 -2319.11 -2318.98 -2318.84 -2798.28 -2798.2 -2798.11 -2798.02 -2797.93 -2797.84 -2797.76 -2797.67 -2797.58 -2797.48 -2797.39 -2797.3 -2797.21 -2797.12 -2797.02 -2796.93 -2796.83 -2796.74 -2796.64 -2796.55 -2796.45 -2796.35 -2796.26 -2796.16 -2796.06 -2795.96 -2795.86 -2795.76 -2795.66 -2795.56 -2795.46 -2795.35 -2795.25 -2795.15 -2795.04 -2794.94 -2794.83 -2794.73 -2794.62 -2794.51 -2794.4 -2794.3 -2794.19 -2794.08 -2793.97 -2793.86 -2793.75 -2793.63 -2793.52 -2793.41 -2793.3 -2793.18 -2793.07 -2792.95 -2792.83 -2792.72 -2792.6 -2792.48 -2792.36 -2792.25 -2792.13 -2792.01 -2791.88 -2791.76 -2791.64 -2791.52 -2791.39 -2791.27 -2791.14 -2791.02 -2790.89 -2790.77 -2790.64 -2790.51 -2790.38 -2790.25 -2790.12 -2789.99 -2789.86 -2789.73 -2789.6 -2789.46 -2789.33 -2789.19 -2789.06 -2788.92 -2788.79 -2788.65 -2788.51 -2788.37 -2788.23 -2788.09 -2787.95 -2787.81 -2787.67 -2787.52 -2787.38 -2787.24 -2787.09 -2786.94 -2786.8 -2786.65 -2786.5 -2786.35 -2786.2 -2786.05 -2785.9 -2785.75 -2785.6 -2785.45 -2785.29 -2785.14 -2784.98 -2784.83 -2784.67 -2784.51 -2784.35 -2784.19 -2784.03 -2783.87 -2783.71 -2783.55 -2783.39 -2783.22 -2783.06 -2782.89 -2782.72 -2782.56 -3264.76 -3264.66 -3264.56 -3264.45 -3264.35 -3264.25 -3264.14 -3264.04 -3263.93 -3263.83 -3263.72 -3263.61 -3263.5 -3263.39 -3263.29 -3263.18 -3263.06 -3262.95 -3262.84 -3262.73 -3262.62 -3262.5 -3262.39 -3262.27 -3262.16 -3262.04 -3261.92 -3261.81 -3261.69 -3261.57 -3261.45 -3261.33 -3261.21 -3261.09 -3260.96 -3260.84 -3260.72 -3260.59 -3260.47 -3260.34 -3260.21 -3260.09 -3259.96 -3259.83 -3259.7 -3259.57 -3259.44 -3259.31 -3259.18 -3259.05 -3258.91 -3258.78 -3258.64 -3258.51 -3258.37 -3258.23 -3258.1 -3257.96 -3257.82 -3257.68 -3257.54 -3257.4 -3257.26 -3257.11 -3256.97 -3256.82 -3256.68 -3256.53 -3256.39 -3256.24 -3256.09 -3255.94 -3255.79 -3255.64 -3255.49 -3255.34 -3255.19 -3255.03 -3254.88 -3254.72 -3254.57 -3254.41 -3254.25 -3254.09 -3253.94 -3253.78 -3253.61 -3253.45 -3253.29 -3253.13 -3252.96 -3252.8 -3252.63 -3252.47 -3252.3 -3252.13 -3251.96 -3251.79 -3251.62 -3251.45 -3251.28 -3251.1 -3250.93 -3250.75 -3250.58 -3250.4 -3250.22 -3250.05 -3249.87 -3249.69 -3249.5 -3249.32 -3249.14 -3248.96 -3248.77 -3248.59 -3248.4 -3248.21 -3248.02 -3247.83 -3247.64 -3247.45 -3247.26 -3247.07 -3246.87 -3246.68 -3246.48 -3246.29 -3731.28 -3731.17 -3731.05 -3730.93 -3730.81 -3730.7 -3730.58 -3730.46 -3730.33 -3730.21 -3730.09 -3729.97 -3729.84 -3729.72 -3729.59 -3729.47 -3729.34 -3729.21 -3729.08 -3728.95 -3728.82 -3728.69 -3728.56 -3728.43 -3728.3 -3728.16 -3728.03 -3727.89 -3727.76 -3727.62 -3727.48 -3727.34 -3727.21 -3727.07 -3726.93 -3726.78 -3726.64 -3726.5 -3726.36 -3726.21 -3726.07 -3725.92 -3725.77 -3725.63 -3725.48 -3725.33 -3725.18 -3725.03 -3724.88 -3724.72 -3724.57 -3724.42 -3724.26 -3724.1 -3723.95 -3723.79 -3723.63 -3723.47 -3723.31 -3723.15 -3722.99 -3722.83 -3722.66 -3722.5 -3722.34 -3722.17 -3722 -3721.83 -3721.67 -3721.5 -3721.33 -3721.15 -3720.98 -3720.81 -3720.64 -3720.46 -3720.28 -3720.11 -3719.93 -3719.75 -3719.57 -3719.39 -3719.21 -3719.03 -3718.85 -3718.66 -3718.48 -3718.29 -3718.1 -3717.91 -3717.73 -3717.54 -3717.35 -3717.15 -3716.96 -3716.77 -3716.57 -3716.38 -3716.18 -3715.98 -3715.78 -3715.58 -3715.38 -3715.18 -3714.98 -3714.78 -3714.57 -3714.37 -3714.16 -3713.95 -3713.74 -3713.53 -3713.32 -3713.11 -3712.9 -3712.68 -3712.47 -3712.25 -3712.03 -3711.82 -3711.6 -3711.38 -3711.16 -3710.93 -3710.71 -3710.49 -3710.26 -3710.03 -4197.86 -4197.73 -4197.6 -4197.46 -4197.33 -4197.19 -4197.06 -4196.92 -4196.79 -4196.65 -4196.51 -4196.37 -4196.23 -4196.09 -4195.95 -4195.81 -4195.66 -4195.52 -4195.37 -4195.23 -4195.08 -4194.93 -4194.79 -4194.64 -4194.49 -4194.34 -4194.18 -4194.03 -4193.88 -4193.72 -4193.57 -4193.41 -4193.25 -4193.1 -4192.94 -4192.78 -4192.62 -4192.46 -4192.29 -4192.13 -4191.97 -4191.8 -4191.64 -4191.47 -4191.3 -4191.13 -4190.96 -4190.79 -4190.62 -4190.45 -4190.28 -4190.1 -4189.93 -4189.75 -4189.57 -4189.39 -4189.22 -4189.04 -4188.85 -4188.67 -4188.49 -4188.31 -4188.12 -4187.93 -4187.75 -4187.56 -4187.37 -4187.18 -4186.99 -4186.8 -4186.61 -4186.41 -4186.22 -4186.02 -4185.82 -4185.63 -4185.43 -4185.23 -4185.03 -4184.82 -4184.62 -4184.42 -4184.21 -4184 -4183.8 -4183.59 -4183.38 -4183.17 -4182.96 -4182.74 -4182.53 -4182.31 -4182.1 -4181.88 -4181.66 -4181.44 -4181.22 -4181 -4180.78 -4180.55 -4180.33 -4180.1 -4179.88 -4179.65 -4179.42 -4179.19 -4178.95 -4178.72 -4178.49 -4178.25 -4178.02 -4177.78 -4177.54 -4177.3 -4177.06 -4176.81 -4176.57 -4176.33 -4176.08 -4175.83 -4175.58 -4175.33 -4175.08 -4174.83 -4174.58 -4174.32 -4174.07 -4173.81 -4664.49 -4664.35 -4664.2 -4664.05 -4663.9 -4663.75 -4663.6 -4663.45 -4663.3 -4663.14 -4662.99 -4662.83 -4662.68 -4662.52 -4662.36 -4662.2 -4662.05 -4661.88 -4661.72 -4661.56 -4661.4 -4661.23 -4661.07 -4660.9 -4660.73 -4660.57 -4660.4 -4660.23 -4660.05 -4659.88 -4659.71 -4659.54 -4659.36 -4659.18 -4659.01 -4658.83 -4658.65 -4658.47 -4658.29 -4658.11 -4657.92 -4657.74 -4657.55 -4657.37 -4657.18 -4656.99 -4656.8 -4656.61 -4656.42 -4656.23 -4656.04 -4655.84 -4655.65 -4655.45 -4655.25 -4655.05 -4654.85 -4654.65 -4654.45 -4654.25 -4654.04 -4653.84 -4653.63 -4653.42 -4653.21 -4653 -4652.79 -4652.58 -4652.37 -4652.15 -4651.94 -4651.72 -4651.5 -4651.29 -4651.07 -4650.84 -4650.62 -4650.4 -4650.17 -4649.95 -4649.72 -4649.49 -4649.26 -4649.03 -4648.8 -4648.57 -4648.33 -4648.1 -4647.86 -4647.62 -4647.38 -4647.14 -4646.9 -4646.66 -4646.41 -4646.17 -4645.92 -4645.67 -4645.42 -4645.17 -4644.92 -4644.67 -4644.42 -4644.16 -4643.9 -4643.64 -4643.38 -4643.12 -4642.86 -4642.6 -4642.33 -4642.07 -4641.8 -4641.53 -4641.26 -4640.99 -4640.72 -4640.44 -4640.17 -4639.89 -4639.61 -4639.33 -4639.05 -4638.77 -4638.48 -4638.2 -4637.91 -4637.62 -5131.19 -5131.03 -5130.86 -5130.7 -5130.54 -5130.37 -5130.21 -5130.04 -5129.87 -5129.7 -5129.53 -5129.36 -5129.19 -5129.02 -5128.84 -5128.67 -5128.49 -5128.31 -5128.14 -5127.96 -5127.78 -5127.6 -5127.41 -5127.23 -5127.05 -5126.86 -5126.67 -5126.49 -5126.3 -5126.11 -5125.92 -5125.72 -5125.53 -5125.34 -5125.14 -5124.94 -5124.75 -5124.55 -5124.35 -5124.15 -5123.95 -5123.74 -5123.54 -5123.33 -5123.13 -5122.92 -5122.71 -5122.5 -5122.29 -5122.07 -5121.86 -5121.65 -5121.43 -5121.21 -5120.99 -5120.77 -5120.55 -5120.33 -5120.11 -5119.88 -5119.66 -5119.43 -5119.2 -5118.97 -5118.74 -5118.51 -5118.28 -5118.04 -5117.81 -5117.57 -5117.33 -5117.09 -5116.85 -5116.61 -5116.37 -5116.12 -5115.88 -5115.63 -5115.38 -5115.13 -5114.88 -5114.63 -5114.37 -5114.12 -5113.86 -5113.61 -5113.35 -5113.09 -5112.82 -5112.56 -5112.3 -5112.03 -5111.76 -5111.49 -5111.22 -5110.95 -5110.68 -5110.4 -5110.13 -5109.85 -5109.57 -5109.29 -5109.01 -5108.73 -5108.44 -5108.16 -5107.87 -5107.58 -5107.29 -5107 -5106.71 -5106.41 -5106.12 -5105.82 -5105.52 -5105.22 -5104.92 -5104.61 -5104.31 -5104 -5103.69 -5103.38 -5103.07 -5102.76 -5102.44 -5102.13 -5101.81 -5101.49 -5597.95 -5597.78 -5597.6 -5597.42 -5597.24 -5597.06 -5596.88 -5596.7 -5596.52 -5596.33 -5596.15 -5595.96 -5595.77 -5595.58 -5595.39 -5595.2 -5595.01 -5594.81 -5594.62 -5594.42 -5594.23 -5594.03 -5593.83 -5593.63 -5593.43 -5593.22 -5593.02 -5592.82 -5592.61 -5592.4 -5592.19 -5591.98 -5591.77 -5591.56 -5591.35 -5591.13 -5590.91 -5590.7 -5590.48 -5590.26 -5590.04 -5589.82 -5589.59 -5589.37 -5589.14 -5588.91 -5588.68 -5588.45 -5588.22 -5587.99 -5587.76 -5587.52 -5587.29 -5587.05 -5586.81 -5586.57 -5586.33 -5586.08 -5585.84 -5585.59 -5585.35 -5585.1 -5584.85 -5584.6 -5584.34 -5584.09 -5583.83 -5583.58 -5583.32 -5583.06 -5582.8 -5582.54 -5582.27 -5582.01 -5581.74 -5581.47 -5581.2 -5580.93 -5580.66 -5580.39 -5580.11 -5579.83 -5579.56 -5579.28 -5579 -5578.71 -5578.43 -5578.14 -5577.86 -5577.57 -5577.28 -5576.99 -5576.69 -5576.4 -5576.1 -5575.8 -5575.5 -5575.2 -5574.9 -5574.6 -5574.29 -5573.98 -5573.67 -5573.36 -5573.05 -5572.74 -5572.42 -5572.11 -5571.79 -5571.47 -5571.15 -5570.82 -5570.5 -5570.17 -5569.84 -5569.51 -5569.18 -5568.85 -5568.51 -5568.17 -5567.84 -5567.5 -5567.15 -5566.81 -5566.47 -5566.12 -5565.77 -5565.42 -6064.79 -6064.6 -6064.41 -6064.22 -6064.03 -6063.83 -6063.63 -6063.44 -6063.24 -6063.04 -6062.84 -6062.63 -6062.43 -6062.22 -6062.02 -6061.81 -6061.6 -6061.39 -6061.18 -6060.97 -6060.76 -6060.54 -6060.32 -6060.11 -6059.89 -6059.67 -6059.45 -6059.22 -6059 -6058.77 -6058.55 -6058.32 -6058.09 -6057.86 -6057.63 -6057.4 -6057.16 -6056.92 -6056.69 -6056.45 -6056.21 -6055.97 -6055.72 -6055.48 -6055.23 -6054.99 -6054.74 -6054.49 -6054.24 -6053.99 -6053.73 -6053.48 -6053.22 -6052.96 -6052.7 -6052.44 -6052.18 -6051.91 -6051.65 -6051.38 -6051.11 -6050.84 -6050.57 -6050.3 -6050.02 -6049.75 -6049.47 -6049.19 -6048.91 -6048.63 -6048.34 -6048.06 -6047.77 -6047.48 -6047.19 -6046.9 -6046.61 -6046.31 -6046.02 -6045.72 -6045.42 -6045.12 -6044.82 -6044.51 -6044.21 -6043.9 -6043.59 -6043.28 -6042.97 -6042.65 -6042.34 -6042.02 -6041.7 -6041.38 -6041.06 -6040.73 -6040.41 -6040.08 -6039.75 -6039.42 -6039.09 -6038.75 -6038.41 -6038.08 -6037.74 -6037.39 -6037.05 -6036.71 -6036.36 -6036.01 -6035.66 -6035.31 -6034.95 -6034.6 -6034.24 -6033.88 -6033.52 -6033.15 -6032.79 -6032.42 -6032.05 -6031.68 -6031.31 -6030.94 -6030.56 -6030.18 -6029.8 -6029.42 -6531.72 -6531.51 -6531.31 -6531.1 -6530.89 -6530.68 -6530.47 -6530.26 -6530.04 -6529.83 -6529.61 -6529.39 -6529.17 -6528.95 -6528.73 -6528.51 -6528.28 -6528.05 -6527.83 -6527.6 -6527.37 -6527.14 -6526.9 -6526.67 -6526.43 -6526.2 -6525.96 -6525.72 -6525.48 -6525.23 -6524.99 -6524.74 -6524.5 -6524.25 -6524 -6523.75 -6523.49 -6523.24 -6522.98 -6522.72 -6522.47 -6522.21 -6521.94 -6521.68 -6521.41 -6521.15 -6520.88 -6520.61 -6520.34 -6520.07 -6519.79 -6519.52 -6519.24 -6518.96 -6518.68 -6518.4 -6518.12 -6517.83 -6517.54 -6517.26 -6516.97 -6516.67 -6516.38 -6516.09 -6515.79 -6515.49 -6515.19 -6514.89 -6514.59 -6514.28 -6513.98 -6513.67 -6513.36 -6513.05 -6512.73 -6512.42 -6512.1 -6511.78 -6511.46 -6511.14 -6510.82 -6510.49 -6510.16 -6509.84 -6509.5 -6509.17 -6508.84 -6508.5 -6508.16 -6507.82 -6507.48 -6507.14 -6506.79 -6506.45 -6506.1 -6505.75 -6505.39 -6505.04 -6504.68 -6504.33 -6503.97 -6503.6 -6503.24 -6502.87 -6502.51 -6502.14 -6501.77 -6501.39 -6501.02 -6500.64 -6500.26 -6499.88 -6499.49 -6499.11 -6498.72 -6498.33 -6497.94 -6497.55 -6497.15 -6496.75 -6496.36 -6495.95 -6495.55 -6495.14 -6494.74 -6494.33 -6493.91 -6493.5 -6998.73 -6998.51 -6998.29 -6998.07 -6997.84 -6997.62 -6997.39 -6997.16 -6996.93 -6996.7 -6996.47 -6996.24 -6996 -6995.77 -6995.53 -6995.29 -6995.05 -6994.81 -6994.56 -6994.32 -6994.07 -6993.82 -6993.57 -6993.32 -6993.07 -6992.81 -6992.56 -6992.3 -6992.04 -6991.78 -6991.52 -6991.26 -6990.99 -6990.73 -6990.46 -6990.19 -6989.92 -6989.64 -6989.37 -6989.09 -6988.82 -6988.54 -6988.26 -6987.97 -6987.69 -6987.4 -6987.12 -6986.83 -6986.54 -6986.24 -6985.95 -6985.65 -6985.36 -6985.06 -6984.76 -6984.45 -6984.15 -6983.84 -6983.53 -6983.22 -6982.91 -6982.6 -6982.29 -6981.97 -6981.65 -6981.33 -6981.01 -6980.68 -6980.36 -6980.03 -6979.7 -6979.37 -6979.04 -6978.7 -6978.37 -6978.03 -6977.69 -6977.35 -6977 -6976.66 -6976.31 -6975.96 -6975.61 -6975.25 -6974.9 -6974.54 -6974.18 -6973.82 -6973.46 -6973.09 -6972.72 -6972.36 -6971.98 -6971.61 -6971.24 -6970.86 -6970.48 -6970.1 -6969.72 -6969.33 -6968.94 -6968.55 -6968.16 -6967.77 -6967.37 -6966.97 -6966.57 -6966.17 -6965.77 -6965.36 -6964.95 -6964.54 -6964.13 -6963.72 -6963.3 -6962.88 -6962.46 -6962.04 -6961.61 -6961.18 -6960.75 -6960.32 -6959.88 -6959.45 -6959.01 -6958.57 -6958.12 -6957.68 -7465.83 -7465.6 -7465.36 -7465.13 -7464.89 -7464.65 -7464.41 -7464.16 -7463.92 -7463.67 -7463.43 -7463.18 -7462.93 -7462.68 -7462.42 -7462.17 -7461.91 -7461.65 -7461.39 -7461.13 -7460.87 -7460.6 -7460.34 -7460.07 -7459.8 -7459.53 -7459.26 -7458.98 -7458.71 -7458.43 -7458.15 -7457.87 -7457.59 -7457.3 -7457.02 -7456.73 -7456.44 -7456.15 -7455.86 -7455.56 -7455.27 -7454.97 -7454.67 -7454.37 -7454.06 -7453.76 -7453.45 -7453.14 -7452.83 -7452.52 -7452.21 -7451.89 -7451.57 -7451.25 -7450.93 -7450.61 -7450.28 -7449.96 -7449.63 -7449.3 -7448.96 -7448.63 -7448.29 -7447.96 -7447.62 -7447.27 -7446.93 -7446.58 -7446.24 -7445.89 -7445.53 -7445.18 -7444.82 -7444.47 -7444.11 -7443.75 -7443.38 -7443.02 -7442.65 -7442.28 -7441.91 -7441.53 -7441.16 -7440.78 -7440.4 -7440.02 -7439.63 -7439.24 -7438.86 -7438.47 -7438.07 -7437.68 -7437.28 -7436.88 -7436.48 -7436.08 -7435.67 -7435.26 -7434.85 -7434.44 -7434.03 -7433.61 -7433.19 -7432.77 -7432.34 -7431.92 -7431.49 -7431.06 -7430.63 -7430.19 -7429.76 -7429.32 -7428.87 -7428.43 -7427.98 -7427.53 -7427.08 -7426.63 -7426.17 -7425.71 -7425.25 -7424.79 -7424.32 -7423.86 -7423.39 -7422.91 -7422.44 -7421.96 -7933.03 -7932.79 -7932.54 -7932.29 -7932.03 -7931.78 -7931.52 -7931.27 -7931.01 -7930.75 -7930.49 -7930.22 -7929.96 -7929.69 -7929.42 -7929.15 -7928.88 -7928.6 -7928.33 -7928.05 -7927.77 -7927.49 -7927.21 -7926.92 -7926.64 -7926.35 -7926.06 -7925.77 -7925.48 -7925.18 -7924.89 -7924.59 -7924.29 -7923.99 -7923.68 -7923.38 -7923.07 -7922.76 -7922.45 -7922.14 -7921.82 -7921.51 -7921.19 -7920.87 -7920.55 -7920.22 -7919.9 -7919.57 -7919.24 -7918.91 -7918.57 -7918.24 -7917.9 -7917.56 -7917.22 -7916.87 -7916.53 -7916.18 -7915.83 -7915.48 -7915.13 -7914.77 -7914.41 -7914.05 -7913.69 -7913.33 -7912.96 -7912.59 -7912.22 -7911.85 -7911.48 -7911.1 -7910.72 -7910.34 -7909.96 -7909.57 -7909.19 -7908.8 -7908.41 -7908.01 -7907.62 -7907.22 -7906.82 -7906.42 -7906.01 -7905.6 -7905.2 -7904.78 -7904.37 -7903.95 -7903.54 -7903.11 -7902.69 -7902.27 -7901.84 -7901.41 -7900.98 -7900.54 -7900.11 -7899.67 -7899.22 -7898.78 -7898.33 -7897.88 -7897.43 -7896.98 -7896.52 -7896.06 -7895.6 -7895.14 -7894.67 -7894.2 -7893.73 -7893.26 -7892.78 -7892.3 -7891.82 -7891.34 -7890.85 -7890.36 -7889.87 -7889.38 -7888.88 -7888.38 -7887.88 -7887.38 -7886.87 -7886.36 -8400.34 -8400.08 -8399.82 -8399.55 -8399.28 -8399.02 -8398.75 -8398.47 -8398.2 -8397.93 -8397.65 -8397.37 -8397.09 -8396.81 -8396.52 -8396.24 -8395.95 -8395.66 -8395.37 -8395.08 -8394.78 -8394.49 -8394.19 -8393.89 -8393.59 -8393.28 -8392.98 -8392.67 -8392.36 -8392.05 -8391.73 -8391.42 -8391.1 -8390.78 -8390.46 -8390.14 -8389.81 -8389.49 -8389.16 -8388.83 -8388.49 -8388.16 -8387.82 -8387.48 -8387.14 -8386.8 -8386.46 -8386.11 -8385.76 -8385.41 -8385.05 -8384.7 -8384.34 -8383.98 -8383.62 -8383.26 -8382.89 -8382.52 -8382.15 -8381.78 -8381.41 -8381.03 -8380.65 -8380.27 -8379.89 -8379.5 -8379.11 -8378.73 -8378.33 -8377.94 -8377.54 -8377.14 -8376.74 -8376.34 -8375.93 -8375.53 -8375.11 -8374.7 -8374.29 -8373.87 -8373.45 -8373.03 -8372.6 -8372.18 -8371.75 -8371.32 -8370.88 -8370.45 -8370.01 -8369.57 -8369.12 -8368.68 -8368.23 -8367.78 -8367.32 -8366.87 -8366.41 -8365.95 -8365.48 -8365.02 -8364.55 -8364.08 -8363.6 -8363.13 -8362.65 -8362.17 -8361.68 -8361.19 -8360.7 -8360.21 -8359.72 -8359.22 -8358.72 -8358.22 -8357.71 -8357.2 -8356.69 -8356.18 -8355.66 -8355.14 -8354.62 -8354.09 -8353.56 -8353.03 -8352.5 -8351.96 -8351.43 -8350.88 -8867.75 -8867.48 -8867.2 -8866.92 -8866.64 -8866.36 -8866.08 -8865.79 -8865.51 -8865.22 -8864.93 -8864.63 -8864.34 -8864.04 -8863.74 -8863.44 -8863.14 -8862.83 -8862.53 -8862.22 -8861.91 -8861.6 -8861.28 -8860.97 -8860.65 -8860.33 -8860.01 -8859.68 -8859.36 -8859.03 -8858.7 -8858.37 -8858.03 -8857.7 -8857.36 -8857.02 -8856.68 -8856.33 -8855.99 -8855.64 -8855.29 -8854.93 -8854.58 -8854.22 -8853.86 -8853.5 -8853.14 -8852.77 -8852.4 -8852.03 -8851.66 -8851.29 -8850.91 -8850.53 -8850.15 -8849.77 -8849.38 -8848.99 -8848.6 -8848.21 -8847.81 -8847.42 -8847.02 -8846.62 -8846.21 -8845.8 -8845.4 -8844.98 -8844.57 -8844.15 -8843.74 -8843.31 -8842.89 -8842.47 -8842.04 -8841.61 -8841.17 -8840.74 -8840.3 -8839.86 -8839.42 -8838.97 -8838.52 -8838.07 -8837.62 -8837.16 -8836.7 -8836.24 -8835.78 -8835.31 -8834.84 -8834.37 -8833.9 -8833.42 -8832.94 -8832.46 -8831.97 -8831.49 -8831 -8830.5 -8830.01 -8829.51 -8829.01 -8828.5 -8828 -8827.49 -8826.97 -8826.46 -8825.94 -8825.42 -8824.9 -8824.37 -8823.84 -8823.31 -8822.77 -8822.24 -8821.69 -8821.15 -8820.6 -8820.05 -8819.5 -8818.95 -8818.39 -8817.82 -8817.26 -8816.69 -8816.12 -8815.55 -9335.28 -9335 -9334.71 -9334.41 -9334.12 -9333.83 -9333.53 -9333.23 -9332.93 -9332.62 -9332.32 -9332.01 -9331.7 -9331.39 -9331.08 -9330.76 -9330.45 -9330.13 -9329.81 -9329.48 -9329.16 -9328.83 -9328.5 -9328.17 -9327.84 -9327.5 -9327.16 -9326.82 -9326.48 -9326.14 -9325.79 -9325.44 -9325.09 -9324.74 -9324.38 -9324.03 -9323.67 -9323.31 -9322.94 -9322.58 -9322.21 -9321.84 -9321.46 -9321.09 -9320.71 -9320.33 -9319.95 -9319.57 -9319.18 -9318.79 -9318.4 -9318.01 -9317.61 -9317.21 -9316.81 -9316.41 -9316 -9315.59 -9315.18 -9314.77 -9314.36 -9313.94 -9313.52 -9313.09 -9312.67 -9312.24 -9311.81 -9311.38 -9310.94 -9310.51 -9310.07 -9309.62 -9309.18 -9308.73 -9308.28 -9307.83 -9307.37 -9306.91 -9306.45 -9305.99 -9305.52 -9305.05 -9304.58 -9304.1 -9303.63 -9303.15 -9302.66 -9302.18 -9301.69 -9301.2 -9300.71 -9300.21 -9299.71 -9299.21 -9298.7 -9298.19 -9297.68 -9297.17 -9296.65 -9296.13 -9295.61 -9295.09 -9294.56 -9294.03 -9293.49 -9292.95 -9292.41 -9291.87 -9291.33 -9290.78 -9290.22 -9289.67 -9289.11 -9288.55 -9287.99 -9287.42 -9286.85 -9286.27 -9285.7 -9285.12 -9284.53 -9283.95 -9283.36 -9282.76 -9282.17 -9281.57 -9280.97 -9280.36 -9802.93 -9802.63 -9802.33 -9802.03 -9801.72 -9801.41 -9801.1 -9800.79 -9800.47 -9800.16 -9799.84 -9799.52 -9799.19 -9798.87 -9798.54 -9798.21 -9797.88 -9797.55 -9797.21 -9796.87 -9796.53 -9796.19 -9795.85 -9795.5 -9795.15 -9794.8 -9794.45 -9794.09 -9793.73 -9793.37 -9793.01 -9792.65 -9792.28 -9791.91 -9791.54 -9791.17 -9790.79 -9790.41 -9790.03 -9789.65 -9789.26 -9788.87 -9788.48 -9788.09 -9787.7 -9787.3 -9786.9 -9786.5 -9786.09 -9785.68 -9785.27 -9784.86 -9784.45 -9784.03 -9783.61 -9783.19 -9782.76 -9782.34 -9781.91 -9781.47 -9781.04 -9780.6 -9780.16 -9779.72 -9779.27 -9778.82 -9778.37 -9777.92 -9777.46 -9777 -9776.54 -9776.08 -9775.61 -9775.14 -9774.67 -9774.19 -9773.71 -9773.23 -9772.75 -9772.26 -9771.77 -9771.28 -9770.78 -9770.29 -9769.79 -9769.28 -9768.78 -9768.27 -9767.75 -9767.24 -9766.72 -9766.2 -9765.67 -9765.15 -9764.62 -9764.08 -9763.55 -9763.01 -9762.46 -9761.92 -9761.37 -9760.82 -9760.26 -9759.7 -9759.14 -9758.58 -9758.01 -9757.44 -9756.87 -9756.29 -9755.71 -9755.13 -9754.54 -9753.95 -9753.36 -9752.76 -9752.16 -9751.56 -9750.95 -9750.34 -9749.73 -9749.11 -9748.49 -9747.87 -9747.24 -9746.61 -9745.97 -9745.34 -10270.7 -10270.4 -10270.1 -10269.8 -10269.4 -10269.1 -10268.8 -10268.5 -10268.1 -10267.8 -10267.5 -10267.1 -10266.8 -10266.5 -10266.1 -10265.8 -10265.4 -10265.1 -10264.7 -10264.4 -10264 -10263.7 -10263.3 -10263 -10262.6 -10262.2 -10261.9 -10261.5 -10261.1 -10260.7 -10260.4 -10260 -10259.6 -10259.2 -10258.8 -10258.4 -10258.1 -10257.7 -10257.3 -10256.9 -10256.5 -10256.1 -10255.6 -10255.2 -10254.8 -10254.4 -10254 -10253.6 -10253.1 -10252.7 -10252.3 -10251.9 -10251.4 -10251 -10250.6 -10250.1 -10249.7 -10249.2 -10248.8 -10248.3 -10247.9 -10247.4 -10247 -10246.5 -10246 -10245.6 -10245.1 -10244.6 -10244.1 -10243.7 -10243.2 -10242.7 -10242.2 -10241.7 -10241.2 -10240.7 -10240.2 -10239.7 -10239.2 -10238.7 -10238.2 -10237.7 -10237.1 -10236.6 -10236.1 -10235.6 -10235 -10234.5 -10234 -10233.4 -10232.9 -10232.3 -10231.8 -10231.2 -10230.7 -10230.1 -10229.6 -10229 -10228.4 -10227.9 -10227.3 -10226.7 -10226.1 -10225.5 -10225 -10224.4 -10223.8 -10223.2 -10222.6 -10222 -10221.4 -10220.7 -10220.1 -10219.5 -10218.9 -10218.3 -10217.6 -10217 -10216.4 -10215.7 -10215.1 -10214.4 -10213.8 -10213.1 -10212.5 -10211.8 -10211.2 -10210.5 -10738.6 -10738.3 -10738 -10737.6 -10737.3 -10737 -10736.6 -10736.3 -10735.9 -10735.6 -10735.3 -10734.9 -10734.6 -10734.2 -10733.9 -10733.5 -10733.1 -10732.8 -10732.4 -10732.1 -10731.7 -10731.3 -10730.9 -10730.6 -10730.2 -10729.8 -10729.4 -10729 -10728.7 -10728.3 -10727.9 -10727.5 -10727.1 -10726.7 -10726.3 -10725.9 -10725.5 -10725 -10724.6 -10724.2 -10723.8 -10723.4 -10723 -10722.5 -10722.1 -10721.7 -10721.2 -10720.8 -10720.4 -10719.9 -10719.5 -10719 -10718.6 -10718.1 -10717.7 -10717.2 -10716.7 -10716.3 -10715.8 -10715.3 -10714.9 -10714.4 -10713.9 -10713.4 -10712.9 -10712.4 -10712 -10711.5 -10711 -10710.5 -10710 -10709.5 -10708.9 -10708.4 -10707.9 -10707.4 -10706.9 -10706.3 -10705.8 -10705.3 -10704.8 -10704.2 -10703.7 -10703.1 -10702.6 -10702 -10701.5 -10700.9 -10700.4 -10699.8 -10699.2 -10698.7 -10698.1 -10697.5 -10696.9 -10696.4 -10695.8 -10695.2 -10694.6 -10694 -10693.4 -10692.8 -10692.2 -10691.6 -10691 -10690.3 -10689.7 -10689.1 -10688.5 -10687.8 -10687.2 -10686.6 -10685.9 -10685.3 -10684.6 -10684 -10683.3 -10682.6 -10682 -10681.3 -10680.6 -10680 -10679.3 -10678.6 -10677.9 -10677.2 -10676.5 -10675.8 -11206.6 -11206.3 -11206 -11205.6 -11205.3 -11204.9 -11204.6 -11204.2 -11203.9 -11203.5 -11203.2 -11202.8 -11202.5 -11202.1 -11201.7 -11201.4 -11201 -11200.6 -11200.2 -11199.9 -11199.5 -11199.1 -11198.7 -11198.3 -11197.9 -11197.5 -11197.1 -11196.7 -11196.3 -11195.9 -11195.5 -11195.1 -11194.7 -11194.3 -11193.9 -11193.4 -11193 -11192.6 -11192.2 -11191.7 -11191.3 -11190.9 -11190.4 -11190 -11189.5 -11189.1 -11188.6 -11188.2 -11187.7 -11187.3 -11186.8 -11186.3 -11185.9 -11185.4 -11184.9 -11184.4 -11184 -11183.5 -11183 -11182.5 -11182 -11181.5 -11181 -11180.5 -11180 -11179.5 -11179 -11178.5 -11178 -11177.4 -11176.9 -11176.4 -11175.9 -11175.3 -11174.8 -11174.3 -11173.7 -11173.2 -11172.6 -11172.1 -11171.5 -11170.9 -11170.4 -11169.8 -11169.2 -11168.7 -11168.1 -11167.5 -11166.9 -11166.4 -11165.8 -11165.2 -11164.6 -11164 -11163.4 -11162.8 -11162.1 -11161.5 -11160.9 -11160.3 -11159.7 -11159 -11158.4 -11157.8 -11157.1 -11156.5 -11155.8 -11155.2 -11154.5 -11153.9 -11153.2 -11152.5 -11151.9 -11151.2 -11150.5 -11149.8 -11149.2 -11148.5 -11147.8 -11147.1 -11146.4 -11145.7 -11145 -11144.2 -11143.5 -11142.8 -11142.1 -11141.3 -11674.8 -11674.5 -11674.1 -11673.8 -11673.4 -11673.1 -11672.7 -11672.3 -11672 -11671.6 -11671.2 -11670.9 -11670.5 -11670.1 -11669.7 -11669.4 -11669 -11668.6 -11668.2 -11667.8 -11667.4 -11667 -11666.6 -11666.2 -11665.8 -11665.4 -11665 -11664.6 -11664.2 -11663.7 -11663.3 -11662.9 -11662.5 -11662 -11661.6 -11661.2 -11660.7 -11660.3 -11659.8 -11659.4 -11658.9 -11658.5 -11658 -11657.6 -11657.1 -11656.7 -11656.2 -11655.7 -11655.2 -11654.8 -11654.3 -11653.8 -11653.3 -11652.8 -11652.3 -11651.8 -11651.4 -11650.9 -11650.3 -11649.8 -11649.3 -11648.8 -11648.3 -11647.8 -11647.3 -11646.7 -11646.2 -11645.7 -11645.1 -11644.6 -11644 -11643.5 -11643 -11642.4 -11641.8 -11641.3 -11640.7 -11640.2 -11639.6 -11639 -11638.4 -11637.9 -11637.3 -11636.7 -11636.1 -11635.5 -11634.9 -11634.3 -11633.7 -11633.1 -11632.5 -11631.9 -11631.2 -11630.6 -11630 -11629.4 -11628.7 -11628.1 -11627.4 -11626.8 -11626.1 -11625.5 -11624.8 -11624.2 -11623.5 -11622.8 -11622.2 -11621.5 -11620.8 -11620.1 -11619.4 -11618.7 -11618 -11617.3 -11616.6 -11615.9 -11615.2 -11614.5 -11613.8 -11613 -11612.3 -11611.6 -11610.8 -11610.1 -11609.3 -11608.6 -11607.8 -11607.1 -12143.1 -12142.8 -12142.4 -12142 -12141.7 -12141.3 -12140.9 -12140.6 -12140.2 -12139.8 -12139.4 -12139.1 -12138.7 -12138.3 -12137.9 -12137.5 -12137.1 -12136.7 -12136.3 -12135.9 -12135.5 -12135.1 -12134.7 -12134.3 -12133.8 -12133.4 -12133 -12132.6 -12132.1 -12131.7 -12131.3 -12130.8 -12130.4 -12130 -12129.5 -12129.1 -12128.6 -12128.2 -12127.7 -12127.2 -12126.8 -12126.3 -12125.8 -12125.4 -12124.9 -12124.4 -12123.9 -12123.4 -12122.9 -12122.5 -12122 -12121.5 -12121 -12120.5 -12119.9 -12119.4 -12118.9 -12118.4 -12117.9 -12117.4 -12116.8 -12116.3 -12115.8 -12115.2 -12114.7 -12114.1 -12113.6 -12113 -12112.5 -12111.9 -12111.4 -12110.8 -12110.2 -12109.7 -12109.1 -12108.5 -12107.9 -12107.3 -12106.7 -12106.2 -12105.6 -12105 -12104.3 -12103.7 -12103.1 -12102.5 -12101.9 -12101.3 -12100.6 -12100 -12099.4 -12098.7 -12098.1 -12097.4 -12096.8 -12096.1 -12095.5 -12094.8 -12094.2 -12093.5 -12092.8 -12092.1 -12091.5 -12090.8 -12090.1 -12089.4 -12088.7 -12088 -12087.3 -12086.6 -12085.8 -12085.1 -12084.4 -12083.7 -12082.9 -12082.2 -12081.5 -12080.7 -12080 -12079.2 -12078.5 -12077.7 -12076.9 -12076.2 -12075.4 -12074.6 -12073.8 -1207