<?xml version="1.0"?> 
<VTKFile type="StructuredGrid" version="0.1"> 
<StructuredGrid WholeExtent="0 63 0 63 0 0"> 
<Piece Extent="0 63 0 63 0 0"> 
<PointData>
<DataArray type="Float32" Name="|E|" format="ascii" NumberOfComponents="3"> 
1.20512e+06 -122971 0 1.33433e+06 -95189.7 0 1.40978e+06 -121841 0 1.49175e+06 -116316 0 1.55934e+06 -104932 0 1.61753e+06 -87789 0 1.66353e+06 -69659.4 0 1.69845e+06 -51198.4 0 1.72237e+06 -33472.1 0 1.73612e+06 -16857.1 0 1.74049e+06 -1686.2 0 1.73645e+06 11885.3 0 1.725e+06 23782.5 0 1.70716e+06 34012.6 0 1.68391e+06 42638.4 0 1.65616e+06 49762.8 0 1.62476e+06 55513.3 0 1.59047e+06 60029.8 0 1.55397e+06 63455.4 0 1.51584e+06 65928.8 0 1.47659e+06 67581 0 1.43666e+06 68531.9 0 1.39641e+06 68889.4 0 1.35615e+06 68749.2 0 1.31614e+06 68195.1 0 1.27659e+06 67299.5 0 1.23769e+06 66125.1 0 1.19955e+06 64725.1 0 1.16231e+06 63144.9 0 1.12605e+06 61422.8 0 1.09084e+06 59591 0 1.05674e+06 57676.4 0 1.02377e+06 55701.7 0 991973 53685.4 0 961364 51643 0 931952 49587.2 0 903740 47528.2 0 876728 45474.3 0 850908 43432.3 0 826273 41407.4 0 802810 39403.6 0 780505 37424 0 759344 35470.7 0 739310 33545.3 0 720387 31648.6 0 702557 29781.1 0 685803 27942.7 0 670109 26132.9 0 655457 24351.2 0 641832 22596.5 0 629218 20867.6 0 617600 19163.4 0 606965 17482.2 0 597299 15822.5 0 588590 14182.5 0 580828 12560.5 0 574001 10954.7 0 568103 9363.07 0 563124 7783.7 0 559058 6214.59 0 555899 4653.72 0 553644 3099.05 0 552290 1548.49 0 551834 0 0 1.20882e+06 -123349 0 1.33284e+06 -98253.2 0 1.41021e+06 -123858 0 1.49207e+06 -118359 0 1.55997e+06 -106562 0 1.61813e+06 -89149.5 0 1.66414e+06 -70693.8 0 1.69901e+06 -51941.9 0 1.72288e+06 -33932.3 0 1.73657e+06 -17059.1 0 1.74087e+06 -1653.51 0 1.73677e+06 12125.6 0 1.72527e+06 24203.5 0 1.70737e+06 34587.6 0 1.68406e+06 43342.2 0 1.65627e+06 50572 0 1.62483e+06 56406.7 0 1.59051e+06 60988.8 0 1.55398e+06 64463.2 0 1.51582e+06 66971.2 0 1.47655e+06 68645.7 0 1.4366e+06 69608.5 0 1.39634e+06 69969 0 1.35607e+06 69824.6 0 1.31605e+06 69260 0 1.2765e+06 68349.1 0 1.23759e+06 67155.2 0 1.19946e+06 65732.5 0 1.16221e+06 64126.9 0 1.12595e+06 62377.4 0 1.09074e+06 60516.6 0 1.05664e+06 58571.9 0 1.02367e+06 56566.1 0 991878 54518.3 0 961271 52444 0 931861 50356.1 0 903652 48265 0 876643 46179.2 0 850826 44105.5 0 826194 42049.1 0 802733 40014.2 0 780432 38003.8 0 759273 36020.3 0 739242 34065 0 720321 32138.9 0 702493 30242.5 0 685742 28375.5 0 670050 26537.7 0 655400 24728.4 0 641777 22946.5 0 629165 21190.9 0 617549 19460.2 0 606915 17753 0 597250 16067.5 0 588543 14402.2 0 580782 12755.1 0 573956 11124.4 0 568058 9508.1 0 563080 7904.27 0 559015 6310.86 0 555857 4725.81 0 553602 3147.05 0 552248 1572.48 0 551792 0 0 1.21224e+06 -123698 0 1.33145e+06 -101270 0 1.41061e+06 -125908 0 1.49241e+06 -120400 0 1.5606e+06 -108195 0 1.61873e+06 -90508.1 0 1.66476e+06 -71727.3 0 1.69958e+06 -52683.2 0 1.7234e+06 -34390.5 0 1.73703e+06 -17258.8 0 1.74127e+06 -1618.63 0 1.7371e+06 12368.1 0 1.72554e+06 24626.4 0 1.70758e+06 35164.4 0 1.68423e+06 44047.6 0 1.65638e+06 51382.6 0 1.6249e+06 57301.4 0 1.59055e+06 61948.7 0 1.55398e+06 65471.9 0 1.5158e+06 68014.4 0 1.47651e+06 69711 0 1.43654e+06 70685.5 0 1.39627e+06 71049 0 1.35599e+06 70900.2 0 1.31597e+06 70325.2 0 1.27641e+06 69398.8 0 1.23749e+06 68185.4 0 1.19936e+06 66739.9 0 1.16211e+06 65108.9 0 1.12585e+06 63331.9 0 1.09064e+06 61442.1 0 1.05654e+06 59467.3 0 1.02357e+06 57430.5 0 991782 55351.1 0 961177 53244.9 0 931770 51124.9 0 903564 49001.8 0 876557 46884 0 850743 44778.5 0 826113 42690.7 0 802656 40624.7 0 780357 38583.6 0 759201 36569.7 0 739173 34584.6 0 720254 32629.2 0 702429 30703.7 0 685680 28808.3 0 669990 26942.5 0 655343 25105.5 0 641722 23296.4 0 629111 21514.1 0 617497 19757 0 606864 18023.7 0 597201 16312.6 0 588495 14621.8 0 580735 12949.6 0 573911 11294 0 568014 9653.11 0 563036 8024.82 0 558971 6407.1 0 555814 4797.88 0 553560 3195.04 0 552206 1596.46 0 551750 0 0 1.21541e+06 -124021 0 1.33015e+06 -104243 0 1.41099e+06 -127990 0 1.49277e+06 -122439 0 1.56124e+06 -109833 0 1.61935e+06 -91865 0 1.66538e+06 -72759.8 0 1.70016e+06 -53422.4 0 1.72393e+06 -34846.5 0 1.73749e+06 -17456.3 0 1.74167e+06 -1581.53 0 1.73744e+06 12612.7 0 1.72581e+06 25051.4 0 1.7078e+06 35743 0 1.68439e+06 44754.6 0 1.6565e+06 52194.6 0 1.62498e+06 58197.4 0 1.59058e+06 62909.7 0 1.55399e+06 66481.5 0 1.51578e+06 69058.2 0 1.47647e+06 70776.9 0 1.43649e+06 71763 0 1.3962e+06 72129.4 0 1.35591e+06 71976.1 0 1.31588e+06 71390.5 0 1.27631e+06 70448.6 0 1.23739e+06 69215.7 0 1.19925e+06 67747.3 0 1.16201e+06 66090.9 0 1.12575e+06 64286.5 0 1.09054e+06 62367.6 0 1.05644e+06 60362.6 0 1.02347e+06 58294.8 0 991684 56183.8 0 961082 54045.7 0 931678 51893.7 0 903474 49738.4 0 876470 47588.7 0 850659 45451.5 0 826032 43332.2 0 802578 41235.1 0 780281 39163.3 0 759128 37119.1 0 739103 35104.2 0 720187 33119.3 0 702364 31165 0 685618 29241.1 0 669930 27347.2 0 655284 25482.6 0 641665 23646.4 0 629057 21837.2 0 617444 20053.7 0 606813 18294.4 0 597151 16557.6 0 588446 14841.5 0 580687 13144.1 0 573864 11463.7 0 567968 9798.1 0 562991 8145.35 0 558927 6503.34 0 555770 4869.94 0 553516 3243.03 0 552163 1620.44 0 551707 0 0 1.21832e+06 -124318 0 1.32893e+06 -107178 0 1.41135e+06 -130102 0 1.49315e+06 -124477 0 1.56188e+06 -111475 0 1.61997e+06 -93220.3 0 1.66601e+06 -73791.2 0 1.70074e+06 -54159.5 0 1.72446e+06 -35300.5 0 1.73796e+06 -17651.6 0 1.74207e+06 -1542.21 0 1.73778e+06 12859.4 0 1.72609e+06 25478.3 0 1.70802e+06 36323.5 0 1.68456e+06 45463.2 0 1.65662e+06 53008.1 0 1.62505e+06 59094.5 0 1.59062e+06 63871.8 0 1.554e+06 67491.9 0 1.51577e+06 70102.8 0 1.47644e+06 71843.4 0 1.43643e+06 72841 0 1.39613e+06 73210.1 0 1.35583e+06 73052.2 0 1.31579e+06 72456.1 0 1.27622e+06 71498.6 0 1.2373e+06 70246 0 1.19915e+06 68754.8 0 1.16191e+06 67073 0 1.12565e+06 65241 0 1.09044e+06 63293.2 0 1.05633e+06 61257.9 0 1.02337e+06 59159.1 0 991586 57016.5 0 960987 54846.5 0 931585 52662.3 0 903384 50475 0 876382 48293.4 0 850574 46124.4 0 825950 43973.6 0 802499 41845.4 0 780205 39742.9 0 759055 37668.5 0 739032 35623.6 0 720119 33609.4 0 702298 31626.1 0 685554 29673.7 0 669869 27751.8 0 655225 25859.7 0 641608 23996.2 0 629001 22160.3 0 617390 20350.5 0 606761 18565.1 0 597101 16802.6 0 588397 15061 0 580639 13338.6 0 573817 11633.3 0 567922 9943.06 0 562946 8265.86 0 558882 6599.55 0 555726 4942 0 553472 3291.01 0 552119 1644.41 0 551663 0 0 1.22099e+06 -124591 0 1.32778e+06 -110077 0 1.41169e+06 -132242 0 1.49355e+06 -126514 0 1.56252e+06 -113121 0 1.62061e+06 -94574 0 1.66665e+06 -74821.5 0 1.70133e+06 -54894.5 0 1.725e+06 -35752.3 0 1.73844e+06 -17844.5 0 1.74249e+06 -1500.63 0 1.73813e+06 13108.3 0 1.72637e+06 25907.3 0 1.70824e+06 36905.7 0 1.68472e+06 46173.5 0 1.65674e+06 53823 0 1.62513e+06 59992.9 0 1.59067e+06 64834.8 0 1.55401e+06 68503.2 0 1.51575e+06 71148.1 0 1.4764e+06 72910.4 0 1.43638e+06 73919.4 0 1.39606e+06 74291.2 0 1.35575e+06 74128.7 0 1.3157e+06 73521.9 0 1.27613e+06 72548.8 0 1.2372e+06 71276.5 0 1.19905e+06 69762.4 0 1.1618e+06 68055 0 1.12554e+06 66195.6 0 1.09033e+06 64218.6 0 1.05623e+06 62153.2 0 1.02327e+06 60023.3 0 991488 57849.1 0 960890 55647.1 0 931491 53430.9 0 903292 51211.5 0 876294 48997.9 0 850489 46797.2 0 825868 44615 0 802419 42455.6 0 780128 40322.4 0 758981 38217.7 0 738960 36143 0 720049 34099.4 0 702232 32087.2 0 685490 30106.3 0 669807 28156.4 0 655165 26236.6 0 641550 24346 0 628945 22483.3 0 617336 20647.1 0 606709 18835.7 0 597050 17047.5 0 588347 15280.6 0 580591 13533 0 573770 11802.9 0 567875 10088 0 562900 8386.35 0 558837 6695.76 0 555681 5014.04 0 553428 3338.99 0 552074 1668.38 0 551619 0 0 1.22343e+06 -124840 0 1.3267e+06 -112944 0 1.41202e+06 -134411 0 1.49397e+06 -128551 0 1.56317e+06 -114770 0 1.62126e+06 -95926.2 0 1.6673e+06 -75850.7 0 1.70193e+06 -55627.4 0 1.72555e+06 -36201.9 0 1.73892e+06 -18035.1 0 1.7429e+06 -1456.78 0 1.73848e+06 13359.4 0 1.72666e+06 26338.3 0 1.70847e+06 37489.9 0 1.6849e+06 46885.4 0 1.65686e+06 54639.3 0 1.62521e+06 60892.6 0 1.59071e+06 65799 0 1.55402e+06 69515.5 0 1.51574e+06 72194.1 0 1.47636e+06 73978.1 0 1.43632e+06 74998.3 0 1.39599e+06 75372.7 0 1.35567e+06 75205.4 0 1.31561e+06 74587.9 0 1.27603e+06 73599.1 0 1.2371e+06 72307.1 0 1.19895e+06 70770 0 1.1617e+06 69037.1 0 1.12544e+06 67150.1 0 1.09023e+06 65144.1 0 1.05613e+06 63048.4 0 1.02317e+06 60887.5 0 991388 58681.7 0 960793 56447.8 0 931396 54199.4 0 903200 51948 0 876205 49702.4 0 850402 47469.9 0 825784 45256.3 0 802338 43065.8 0 780050 40901.9 0 758906 38766.9 0 738888 36662.4 0 719980 34589.3 0 702164 32548.2 0 685425 30538.9 0 669744 28560.9 0 655105 26613.6 0 641492 24695.8 0 628889 22806.3 0 617281 20943.7 0 606655 19106.3 0 596998 17292.4 0 588297 15500.1 0 580541 13727.4 0 573721 11972.4 0 567828 10232.9 0 562853 8506.83 0 558791 6791.94 0 555635 5086.06 0 553383 3386.95 0 552029 1692.35 0 551574 0 0 1.22565e+06 -125066 0 1.32567e+06 -115783 0 1.41234e+06 -136606 0 1.49441e+06 -130588 0 1.56383e+06 -116423 0 1.62191e+06 -97277 0 1.66795e+06 -76878.6 0 1.70254e+06 -56358.2 0 1.7261e+06 -36649.4 0 1.73941e+06 -18223.4 0 1.74333e+06 -1410.64 0 1.73883e+06 13612.7 0 1.72695e+06 26771.3 0 1.7087e+06 38075.9 0 1.68507e+06 47599 0 1.65699e+06 55457.2 0 1.62529e+06 61793.5 0 1.59075e+06 66764.3 0 1.55403e+06 70528.6 0 1.51572e+06 73240.9 0 1.47632e+06 75046.4 0 1.43627e+06 76077.7 0 1.39592e+06 76454.5 0 1.35559e+06 76282.5 0 1.31552e+06 75654.1 0 1.27593e+06 74649.6 0 1.237e+06 73337.8 0 1.19885e+06 71777.7 0 1.1616e+06 70019.3 0 1.12533e+06 68104.7 0 1.09012e+06 66069.6 0 1.05602e+06 63943.6 0 1.02307e+06 61751.6 0 991287 59514.2 0 960694 57248.3 0 931300 54967.9 0 903107 52684.3 0 876114 50406.8 0 850315 48142.6 0 825700 45897.4 0 802256 43675.9 0 779972 41481.3 0 758830 39316 0 738814 37181.6 0 719909 35079.2 0 702096 33009.1 0 685359 30971.3 0 669680 28965.4 0 655044 26990.4 0 641432 25045.5 0 628831 23129.3 0 617225 21240.3 0 606601 19376.9 0 596945 17537.3 0 588245 15719.6 0 580491 13921.8 0 573672 12141.9 0 567780 10377.8 0 562806 8627.28 0 558744 6888.12 0 555589 5158.08 0 553337 3434.91 0 551984 1716.31 0 551528 0 0 1.22765e+06 -125271 0 1.32469e+06 -118597 0 1.41264e+06 -138827 0 1.49486e+06 -132626 0 1.56449e+06 -118078 0 1.62258e+06 -98626.5 0 1.66861e+06 -77905.3 0 1.70315e+06 -57086.8 0 1.72666e+06 -37094.7 0 1.7399e+06 -18409.3 0 1.74376e+06 -1362.18 0 1.73919e+06 13868.2 0 1.72725e+06 27206.5 0 1.70894e+06 38663.8 0 1.68525e+06 48314.3 0 1.65712e+06 56276.5 0 1.62538e+06 62695.7 0 1.5908e+06 67730.6 0 1.55405e+06 71542.6 0 1.51571e+06 74288.5 0 1.47629e+06 76115.2 0 1.43621e+06 77157.7 0 1.39585e+06 77536.8 0 1.35551e+06 77359.8 0 1.31543e+06 76720.6 0 1.27584e+06 75700.2 0 1.2369e+06 74368.6 0 1.19874e+06 72785.5 0 1.16149e+06 71001.4 0 1.12523e+06 69059.3 0 1.09002e+06 66995 0 1.05592e+06 64838.8 0 1.02297e+06 62615.7 0 991186 60346.6 0 960595 58048.8 0 931203 55736.3 0 903013 53420.6 0 876023 51111.1 0 850227 48815.1 0 825614 46538.6 0 802174 44285.9 0 779892 42060.6 0 758753 39865 0 738740 37700.8 0 719838 35569 0 702027 33470 0 685293 31403.7 0 669616 29369.7 0 654982 27367.2 0 641372 25395.2 0 628773 23452.2 0 617169 21536.8 0 606546 19647.4 0 596892 17782.1 0 588193 15939 0 580440 14116.2 0 573622 12311.5 0 567731 10522.7 0 562758 8747.72 0 558697 6984.28 0 555542 5230.09 0 553290 3482.86 0 551937 1740.27 0 551482 0 0 1.22945e+06 -125455 0 1.32376e+06 -121388 0 1.41295e+06 -141072 0 1.49533e+06 -134665 0 1.56516e+06 -119737 0 1.62326e+06 -99974.6 0 1.66928e+06 -78930.7 0 1.70377e+06 -57813.4 0 1.72723e+06 -37537.7 0 1.74041e+06 -18592.9 0 1.74419e+06 -1311.4 0 1.73956e+06 14126 0 1.72755e+06 27643.7 0 1.70917e+06 39253.6 0 1.68543e+06 49031.4 0 1.65725e+06 57097.3 0 1.62546e+06 63599.2 0 1.59085e+06 68698 0 1.55406e+06 72557.6 0 1.51569e+06 75336.8 0 1.47625e+06 77184.8 0 1.43616e+06 78238.1 0 1.39578e+06 78619.4 0 1.35543e+06 78437.5 0 1.31534e+06 77787.2 0 1.27574e+06 76751 0 1.23679e+06 75399.5 0 1.19864e+06 73793.3 0 1.16138e+06 71983.6 0 1.12512e+06 70013.8 0 1.08991e+06 67920.4 0 1.05581e+06 65733.9 0 1.02286e+06 63479.7 0 991084 61179 0 960495 58849.2 0 931106 56504.6 0 902919 54156.8 0 875931 51815.3 0 850138 49487.6 0 825528 47179.6 0 802091 44895.8 0 779812 42639.8 0 758675 40413.9 0 738666 38219.9 0 719765 36058.7 0 701958 33930.8 0 685225 31836.1 0 669551 29774.1 0 654919 27744 0 641312 25744.8 0 628714 23775 0 617112 21833.3 0 606491 19917.9 0 596838 18026.9 0 588141 16158.4 0 580389 14310.5 0 573572 12480.9 0 567681 10667.6 0 562709 8868.14 0 558649 7080.42 0 555495 5302.09 0 553243 3530.8 0 551890 1764.23 0 551435 0 0 1.23106e+06 -125618 0 1.32287e+06 -124162 0 1.41324e+06 -143341 0 1.49582e+06 -136705 0 1.56583e+06 -121399 0 1.62394e+06 -101322 0 1.66996e+06 -79954.8 0 1.7044e+06 -58537.8 0 1.7278e+06 -37978.5 0 1.74092e+06 -18774 0 1.74463e+06 -1258.25 0 1.73993e+06 14386 0 1.72785e+06 28083.1 0 1.70942e+06 39845.4 0 1.68562e+06 49750.1 0 1.65738e+06 57919.7 0 1.62555e+06 64504 0 1.59089e+06 69666.6 0 1.55408e+06 73573.5 0 1.51568e+06 76385.9 0 1.47621e+06 78254.9 0 1.4361e+06 79319 0 1.39571e+06 79702.5 0 1.35534e+06 79515.4 0 1.31525e+06 78854.1 0 1.27564e+06 77801.9 0 1.23669e+06 76430.6 0 1.19853e+06 74801.2 0 1.16128e+06 72965.8 0 1.12501e+06 70968.4 0 1.0898e+06 68845.8 0 1.05571e+06 66628.9 0 1.02276e+06 64343.7 0 990981 62011.3 0 960394 59649.5 0 931008 57272.8 0 902823 54892.9 0 875839 52519.4 0 850048 50160 0 825441 47820.5 0 802007 45505.7 0 779730 43218.9 0 758597 40962.8 0 738590 38738.9 0 719692 36548.4 0 701887 34391.5 0 685157 32268.4 0 669486 30178.3 0 654855 28120.7 0 641250 26094.3 0 628655 24097.8 0 617054 22129.7 0 606435 20188.3 0 596783 18271.6 0 588088 16377.8 0 580337 14504.8 0 573521 12650.4 0 567631 10812.4 0 562660 8988.54 0 558600 7176.55 0 555446 5374.07 0 553195 3578.74 0 551843 1788.18 0 551387 0 0 1.23247e+06 -125762 0 1.32201e+06 -126920 0 1.41354e+06 -145634 0 1.49632e+06 -138747 0 1.56652e+06 -123063 0 1.62464e+06 -102667 0 1.67064e+06 -80977.5 0 1.70504e+06 -59260 0 1.72838e+06 -38417.1 0 1.74143e+06 -18952.8 0 1.74508e+06 -1202.74 0 1.74031e+06 14648.3 0 1.72816e+06 28524.6 0 1.70966e+06 40439.1 0 1.6858e+06 50470.6 0 1.65751e+06 58743.5 0 1.62564e+06 65410.1 0 1.59094e+06 70636.3 0 1.55409e+06 74590.4 0 1.51567e+06 77435.8 0 1.47618e+06 79325.7 0 1.43605e+06 80400.4 0 1.39564e+06 80785.9 0 1.35526e+06 80593.7 0 1.31516e+06 79921.3 0 1.27555e+06 78853.1 0 1.23659e+06 77461.7 0 1.19843e+06 75809.2 0 1.16117e+06 73948.1 0 1.1249e+06 71923 0 1.0897e+06 69771.2 0 1.0556e+06 67524 0 1.02265e+06 65207.6 0 990877 62843.5 0 960293 60449.8 0 930909 58040.9 0 902727 55628.9 0 875745 53223.5 0 849957 50832.3 0 825354 48461.4 0 801922 46115.4 0 779649 43798 0 758518 41511.6 0 738514 39257.9 0 719619 37038 0 701816 34852.2 0 685089 32700.6 0 669419 30582.6 0 654791 28497.3 0 641188 26443.8 0 628594 24420.6 0 616996 22426.1 0 606378 20458.7 0 596728 18516.3 0 588034 16597.2 0 580284 14699 0 573469 12819.8 0 567580 10957.2 0 562610 9108.92 0 558551 7272.66 0 555398 5446.04 0 553147 3626.67 0 551794 1812.13 0 551339 0 0 1.23369e+06 -125886 0 1.32119e+06 -129666 0 1.41384e+06 -147948 0 1.49683e+06 -140790 0 1.56721e+06 -124729 0 1.62534e+06 -104012 0 1.67133e+06 -81998.9 0 1.70569e+06 -59980.2 0 1.72897e+06 -38853.3 0 1.74195e+06 -19129.2 0 1.74553e+06 -1144.83 0 1.74069e+06 14912.9 0 1.72847e+06 28968.2 0 1.70991e+06 41034.7 0 1.68599e+06 51192.8 0 1.65765e+06 59568.9 0 1.62573e+06 66317.6 0 1.591e+06 71607.1 0 1.55411e+06 75608.2 0 1.51566e+06 78486.4 0 1.47614e+06 80397.1 0 1.436e+06 81482.4 0 1.39557e+06 81869.8 0 1.35518e+06 81672.3 0 1.31507e+06 80988.7 0 1.27545e+06 79904.4 0 1.23649e+06 78493 0 1.19832e+06 76817.2 0 1.16106e+06 74930.4 0 1.12479e+06 72877.5 0 1.08959e+06 70696.5 0 1.05549e+06 68419 0 1.02254e+06 66071.4 0 990772 63675.7 0 960190 61249.9 0 930809 58809 0 902629 56364.9 0 875651 53927.5 0 849866 51504.5 0 825265 49102.2 0 801836 46725.1 0 779566 44377 0 758438 42060.3 0 738436 39776.8 0 719544 37527.5 0 701744 35312.8 0 685019 33132.7 0 669352 30986.7 0 654726 28873.9 0 641125 26793.2 0 628533 24743.3 0 616936 22722.4 0 606320 20729 0 596672 18761 0 587979 16816.5 0 580231 14893.3 0 573417 12989.2 0 567529 11102 0 562559 9229.28 0 558501 7368.76 0 555348 5518 0 553097 3674.59 0 551745 1836.07 0 551290 0 0 1.23473e+06 -125992 0 1.32039e+06 -132403 0 1.41413e+06 -150285 0 1.49736e+06 -142836 0 1.5679e+06 -126398 0 1.62606e+06 -105355 0 1.67203e+06 -83018.8 0 1.70634e+06 -60698.2 0 1.72957e+06 -39287.2 0 1.74248e+06 -19303.1 0 1.74599e+06 -1084.51 0 1.74108e+06 15179.9 0 1.72879e+06 29414 0 1.71016e+06 41632.4 0 1.68619e+06 51916.9 0 1.65779e+06 60395.9 0 1.62583e+06 67226.4 0 1.59105e+06 72579.1 0 1.55413e+06 76627 0 1.51565e+06 79537.9 0 1.47611e+06 81469.2 0 1.43594e+06 82564.8 0 1.3955e+06 82954.1 0 1.3551e+06 82751.2 0 1.31498e+06 82056.3 0 1.27535e+06 80955.8 0 1.23638e+06 79524.3 0 1.19821e+06 77825.3 0 1.16095e+06 75912.7 0 1.12468e+06 73832.1 0 1.08948e+06 71621.8 0 1.05538e+06 69314 0 1.02244e+06 66935.2 0 990666 64507.8 0 960087 62050.1 0 930708 59577 0 902531 57100.8 0 875555 54631.4 0 849773 52176.7 0 825175 49742.8 0 801750 47334.7 0 779482 44955.9 0 758357 42608.9 0 738358 40295.6 0 719469 38016.9 0 701671 35773.3 0 684949 33564.8 0 669284 31390.8 0 654660 29250.4 0 641061 27142.6 0 628472 25065.9 0 616877 23018.7 0 606262 20999.3 0 596615 19005.6 0 587924 17035.8 0 580176 15087.5 0 573364 13158.6 0 567477 11246.7 0 562508 9349.62 0 558450 7464.84 0 555298 5589.95 0 553048 3722.5 0 551696 1860.01 0 551241 0 0 1.23559e+06 -126080 0 1.31962e+06 -135134 0 1.41443e+06 -152642 0 1.4979e+06 -144884 0 1.56861e+06 -128070 0 1.62678e+06 -106697 0 1.67274e+06 -84037.3 0 1.70701e+06 -61414 0 1.73017e+06 -39718.8 0 1.74302e+06 -19474.6 0 1.74645e+06 -1021.76 0 1.74147e+06 15449.2 0 1.72911e+06 29862 0 1.71042e+06 42232.1 0 1.68638e+06 52642.7 0 1.65794e+06 61224.5 0 1.62592e+06 68136.6 0 1.5911e+06 73552.2 0 1.55415e+06 77646.7 0 1.51564e+06 80590.1 0 1.47608e+06 82541.9 0 1.43589e+06 83647.8 0 1.39543e+06 84038.8 0 1.35502e+06 83830.4 0 1.31489e+06 83124.1 0 1.27525e+06 82007.5 0 1.23628e+06 80555.9 0 1.19811e+06 78833.5 0 1.16084e+06 76895.1 0 1.12457e+06 74786.7 0 1.08937e+06 72547.2 0 1.05527e+06 70208.9 0 1.02233e+06 67799 0 990560 65339.9 0 959983 62850.1 0 930606 60344.9 0 902432 57836.6 0 875459 55335.2 0 849680 52848.7 0 825085 50383.5 0 801662 47944.2 0 779398 45534.7 0 758275 43157.5 0 738280 40814.3 0 719393 38506.3 0 701598 36233.8 0 684878 33996.8 0 669215 31794.8 0 654594 29626.9 0 640997 27491.9 0 628409 25388.5 0 616816 23315 0 606203 21269.5 0 596558 19250.2 0 587868 17255 0 580122 15281.6 0 573310 13327.9 0 567424 11391.5 0 562456 9469.95 0 558399 7560.91 0 555247 5661.89 0 552997 3770.41 0 551646 1883.95 0 551191 0 0 1.23627e+06 -126150 0 1.31887e+06 -137863 0 1.41474e+06 -155020 0 1.49845e+06 -146935 0 1.56932e+06 -129743 0 1.62751e+06 -108038 0 1.67346e+06 -85054.2 0 1.70768e+06 -62127.6 0 1.73078e+06 -40148.1 0 1.74356e+06 -19643.6 0 1.74692e+06 -956.548 0 1.74186e+06 15720.8 0 1.72944e+06 30312.3 0 1.71068e+06 42833.7 0 1.68658e+06 53370.3 0 1.65808e+06 62054.6 0 1.62602e+06 69048.2 0 1.59116e+06 74526.5 0 1.55417e+06 78667.4 0 1.51563e+06 81643.2 0 1.47604e+06 83615.3 0 1.43583e+06 84731.4 0 1.39536e+06 85123.9 0 1.35493e+06 84910 0 1.31479e+06 84192.2 0 1.27515e+06 83059.3 0 1.23617e+06 81587.5 0 1.198e+06 79841.8 0 1.16073e+06 77877.5 0 1.12446e+06 75741.3 0 1.08926e+06 73472.5 0 1.05516e+06 71103.8 0 1.02222e+06 68662.7 0 990452 66171.9 0 959877 63650.1 0 930503 61112.7 0 902332 58572.3 0 875362 56038.9 0 849586 53520.7 0 824994 51024 0 801574 48553.7 0 779312 46113.4 0 758193 43705.9 0 738200 41333 0 719316 38995.6 0 701524 36694.2 0 684806 34428.8 0 669146 32198.8 0 654527 30003.3 0 640932 27841.2 0 628346 25711.1 0 616755 23611.2 0 606144 21539.7 0 596500 19494.8 0 587811 17474.2 0 580066 15475.8 0 573256 13497.2 0 567371 11536.2 0 562403 9590.25 0 558347 7656.96 0 555196 5733.82 0 552946 3818.31 0 551595 1907.88 0 551140 0 0 1.23678e+06 -126202 0 1.31814e+06 -140591 0 1.41505e+06 -157418 0 1.49902e+06 -148988 0 1.57005e+06 -131418 0 1.62826e+06 -109378 0 1.67418e+06 -86069.7 0 1.70836e+06 -62839.1 0 1.7314e+06 -40575 0 1.74411e+06 -19810.1 0 1.74739e+06 -888.865 0 1.74227e+06 15994.9 0 1.72977e+06 30764.7 0 1.71094e+06 43437.5 0 1.68679e+06 54099.8 0 1.65823e+06 62886.4 0 1.62612e+06 69961.1 0 1.59121e+06 75502 0 1.55419e+06 79689.1 0 1.51562e+06 82697.1 0 1.47601e+06 84689.4 0 1.43578e+06 85815.5 0 1.39529e+06 86209.4 0 1.35485e+06 85989.9 0 1.3147e+06 85260.6 0 1.27505e+06 84111.3 0 1.23607e+06 82619.2 0 1.19789e+06 80850.1 0 1.16062e+06 78860 0 1.12435e+06 76695.9 0 1.08914e+06 74397.8 0 1.05505e+06 71998.7 0 1.02211e+06 69526.3 0 990344 67003.8 0 959772 64450 0 930400 61880.5 0 902232 59307.9 0 875264 56742.6 0 849491 54192.6 0 824902 51664.4 0 801485 49163 0 779226 46692.1 0 758110 44254.3 0 738120 41851.5 0 719238 39484.8 0 701449 37154.5 0 684734 34860.6 0 669076 32602.6 0 654459 30379.6 0 640866 28190.4 0 628282 26033.5 0 616693 23907.3 0 606083 21809.9 0 596441 19739.3 0 587753 17693.4 0 580010 15669.9 0 573201 13666.5 0 567317 11680.9 0 562350 9710.53 0 558294 7752.99 0 555144 5805.73 0 552894 3866.2 0 551543 1931.81 0 551089 0 0 1.23713e+06 -126238 0 1.31742e+06 -143322 0 1.41537e+06 -159835 0 1.4996e+06 -151044 0 1.57078e+06 -133096 0 1.62901e+06 -110717 0 1.67492e+06 -87083.6 0 1.70904e+06 -63548.3 0 1.73202e+06 -40999.5 0 1.74466e+06 -19974.1 0 1.74787e+06 -818.688 0 1.74267e+06 16271.3 0 1.7301e+06 31219.4 0 1.71121e+06 44043.2 0 1.68699e+06 54831.1 0 1.65838e+06 63719.7 0 1.62622e+06 70875.5 0 1.59127e+06 76478.6 0 1.55421e+06 80711.9 0 1.51561e+06 83751.9 0 1.47597e+06 85764.2 0 1.43573e+06 86900.1 0 1.39522e+06 87295.4 0 1.35477e+06 87070.1 0 1.31461e+06 86329.2 0 1.27495e+06 85163.5 0 1.23596e+06 83651.1 0 1.19778e+06 81858.6 0 1.16051e+06 79842.5 0 1.12424e+06 77650.6 0 1.08903e+06 75323 0 1.05494e+06 72893.5 0 1.022e+06 70390 0 990235 67835.7 0 959665 65249.8 0 930296 62648.2 0 902130 60043.5 0 875165 57446.1 0 849395 54864.4 0 824809 52304.8 0 801395 49772.3 0 779139 47270.6 0 758026 44802.6 0 738038 42370 0 719160 39973.9 0 701373 37614.8 0 684660 35292.4 0 669005 33006.5 0 654390 30755.9 0 640800 28539.6 0 628218 26356 0 616630 24203.4 0 606022 22080 0 596381 19983.8 0 587695 17912.5 0 579953 15863.9 0 573145 13835.8 0 567262 11825.5 0 562296 9830.8 0 558241 7849.01 0 555091 5877.63 0 552842 3914.08 0 551491 1955.74 0 551037 0 0 1.23731e+06 -126256 0 1.31672e+06 -146060 0 1.4157e+06 -162271 0 1.50019e+06 -153102 0 1.57152e+06 -134775 0 1.62977e+06 -112055 0 1.67566e+06 -88096 0 1.70974e+06 -64255.4 0 1.73266e+06 -41421.6 0 1.74522e+06 -20135.5 0 1.74836e+06 -745.996 0 1.74308e+06 16550.2 0 1.73044e+06 31676.4 0 1.71148e+06 44651.1 0 1.6872e+06 55564.2 0 1.65853e+06 64554.7 0 1.62632e+06 71791.2 0 1.59133e+06 77456.5 0 1.55423e+06 81735.6 0 1.5156e+06 84807.4 0 1.47594e+06 86839.6 0 1.43567e+06 87985.3 0 1.39515e+06 88381.8 0 1.35468e+06 88150.7 0 1.31451e+06 87398.1 0 1.27485e+06 86215.9 0 1.23585e+06 84683.1 0 1.19767e+06 82867.1 0 1.16039e+06 80825 0 1.12412e+06 78605.2 0 1.08892e+06 76248.3 0 1.05483e+06 73788.3 0 1.02189e+06 71253.5 0 990125 68667.5 0 959557 66049.6 0 930190 63415.8 0 902028 60779 0 875066 58149.6 0 849298 55536.1 0 824716 52945 0 801305 50381.4 0 779052 47849.1 0 757941 45350.8 0 737956 42888.4 0 719081 40463 0 701296 38074.9 0 684586 35724.2 0 668933 33410.2 0 654321 31132.1 0 640732 28888.7 0 628153 26678.4 0 616567 24499.5 0 605960 22350.1 0 596321 20228.2 0 587637 18131.6 0 579896 16058 0 573089 14005 0 567207 11970.2 0 562242 9951.04 0 558187 7945.02 0 555038 5949.53 0 552789 3961.95 0 551438 1979.66 0 550984 0 0 1.23732e+06 -126257 0 1.31603e+06 -148806 0 1.41604e+06 -164725 0 1.50079e+06 -155164 0 1.57227e+06 -136455 0 1.63054e+06 -113392 0 1.67641e+06 -89106.8 0 1.71044e+06 -64960.2 0 1.7333e+06 -41841.3 0 1.74579e+06 -20294.5 0 1.74885e+06 -670.769 0 1.7435e+06 16831.5 0 1.73079e+06 32135.6 0 1.71175e+06 45261 0 1.68741e+06 56299.2 0 1.65868e+06 65391.4 0 1.62642e+06 72708.4 0 1.59139e+06 78435.6 0 1.55426e+06 82760.4 0 1.5156e+06 85863.9 0 1.47591e+06 87915.7 0 1.43562e+06 89071 0 1.39508e+06 89468.6 0 1.3546e+06 89231.6 0 1.31442e+06 88467.2 0 1.27475e+06 87268.5 0 1.23575e+06 85715.3 0 1.19756e+06 83875.7 0 1.16028e+06 81807.6 0 1.12401e+06 79559.9 0 1.0888e+06 77173.6 0 1.05471e+06 74683.1 0 1.02177e+06 72117 0 990014 69499.2 0 959448 66849.3 0 930084 64183.3 0 901924 61514.3 0 874965 58853 0 849201 56207.8 0 824621 53585.2 0 801213 50990.5 0 778963 48427.5 0 757856 45899 0 737874 43406.8 0 719001 40952 0 701219 38535 0 684511 36155.9 0 668861 33813.9 0 654251 31508.3 0 640664 29237.7 0 628087 27000.7 0 616502 24795.5 0 605898 22620.1 0 596260 20472.6 0 587577 18350.7 0 579838 16252 0 573032 14174.2 0 567151 12114.8 0 562186 10071.3 0 558132 8041 0 554984 6021.4 0 552735 4009.82 0 551385 2003.58 0 550931 0 0 1.23717e+06 -126242 0 1.31535e+06 -151565 0 1.41639e+06 -167197 0 1.50141e+06 -157230 0 1.57303e+06 -138138 0 1.63132e+06 -114727 0 1.67717e+06 -90116 0 1.71115e+06 -65662.8 0 1.73394e+06 -42258.5 0 1.74636e+06 -20450.8 0 1.74935e+06 -592.987 0 1.74392e+06 17115.3 0 1.73113e+06 32597.2 0 1.71203e+06 45873.1 0 1.68762e+06 57036.2 0 1.65884e+06 66229.7 0 1.62653e+06 73627 0 1.59146e+06 79415.9 0 1.55428e+06 83786.1 0 1.51559e+06 86921.1 0 1.47588e+06 88992.6 0 1.43557e+06 90157.3 0 1.39501e+06 90555.9 0 1.35452e+06 90312.9 0 1.31433e+06 89536.6 0 1.27464e+06 88321.3 0 1.23564e+06 86747.5 0 1.19744e+06 84884.4 0 1.16017e+06 82790.2 0 1.12389e+06 80514.5 0 1.08869e+06 78098.8 0 1.0546e+06 75577.8 0 1.02166e+06 72980.5 0 989903 70330.9 0 959339 67648.9 0 929977 64950.8 0 901820 62249.7 0 874864 59556.3 0 849103 56879.3 0 824526 54225.3 0 801121 51599.5 0 778874 49005.9 0 757769 46447.1 0 737790 43925 0 718920 41440.9 0 701141 38995.1 0 684436 36587.5 0 668788 34217.6 0 654180 31884.4 0 640596 29586.7 0 628020 27323 0 616438 25091.4 0 605835 22890.1 0 596199 20717 0 587517 18569.7 0 579779 16446 0 572974 14343.4 0 567094 12259.4 0 562130 10191.5 0 558077 8136.98 0 554929 6093.27 0 552681 4057.67 0 551331 2027.49 0 550877 0 0 1.23685e+06 -126210 0 1.31467e+06 -154339 0 1.41675e+06 -169687 0 1.50204e+06 -159298 0 1.5738e+06 -139822 0 1.6321e+06 -116062 0 1.67793e+06 -91123.5 0 1.71186e+06 -66363.1 0 1.73459e+06 -42673.3 0 1.74695e+06 -20604.6 0 1.74985e+06 -512.629 0 1.74435e+06 17401.6 0 1.73148e+06 33061.1 0 1.71231e+06 46487.3 0 1.68784e+06 57775 0 1.659e+06 67069.6 0 1.62664e+06 74547.1 0 1.59152e+06 80397.5 0 1.55431e+06 84813 0 1.51559e+06 87979.3 0 1.47585e+06 90070.1 0 1.43551e+06 91244.2 0 1.39494e+06 91643.7 0 1.35443e+06 91394.5 0 1.31423e+06 90606.3 0 1.27454e+06 89374.2 0 1.23553e+06 87780 0 1.19733e+06 85893.1 0 1.16005e+06 83772.9 0 1.12378e+06 81469.2 0 1.08857e+06 79024 0 1.05448e+06 76472.5 0 1.02155e+06 73843.9 0 989790 71162.6 0 959229 68448.5 0 929870 65718.1 0 901715 62984.9 0 874762 60259.6 0 849003 57550.8 0 824430 54865.3 0 801028 52208.5 0 778784 49584.1 0 757682 46995 0 737706 44443.2 0 718838 41929.7 0 701062 39455 0 684359 37019 0 668714 34621.1 0 654108 32260.4 0 640526 29935.6 0 627952 27645.2 0 616372 25387.3 0 605771 23160.1 0 596137 20961.3 0 587456 18788.7 0 579719 16639.9 0 572916 14512.5 0 567036 12404 0 562074 10311.7 0 558021 8232.93 0 554874 6165.13 0 552626 4105.52 0 551276 2051.4 0 550822 0 0 1.23638e+06 -126161 0 1.31401e+06 -157130 0 1.41712e+06 -172193 0 1.50267e+06 -161370 0 1.57458e+06 -141507 0 1.6329e+06 -117395 0 1.67871e+06 -92129.4 0 1.71259e+06 -67061.1 0 1.73526e+06 -43085.6 0 1.74753e+06 -20755.7 0 1.75036e+06 -429.674 0 1.74478e+06 17690.3 0 1.73184e+06 33527.3 0 1.7126e+06 47103.6 0 1.68806e+06 58515.7 0 1.65916e+06 67911.3 0 1.62675e+06 75468.6 0 1.59158e+06 81380.3 0 1.55434e+06 85840.8 0 1.51558e+06 89038.3 0 1.47581e+06 91148.4 0 1.43546e+06 92331.6 0 1.39487e+06 92731.9 0 1.35435e+06 92476.4 0 1.31414e+06 91676.2 0 1.27444e+06 90427.4 0 1.23542e+06 88812.5 0 1.19722e+06 86902 0 1.15994e+06 84755.6 0 1.12366e+06 82423.9 0 1.08845e+06 79949.2 0 1.05436e+06 77367.2 0 1.02143e+06 74707.3 0 989677 71994.1 0 959117 69248 0 929761 66485.4 0 901609 63720 0 874659 60962.7 0 848903 58222.2 0 824332 55505.3 0 800934 52817.3 0 778693 50162.2 0 757594 47542.9 0 737621 44961.3 0 718756 42418.5 0 700982 39914.9 0 684282 37450.5 0 668639 35024.6 0 654036 32636.4 0 640456 30284.5 0 627884 27967.4 0 616306 25683.2 0 605707 23430 0 596074 21205.5 0 587395 19007.6 0 579659 16833.8 0 572857 14681.6 0 566978 12548.5 0 562017 10431.8 0 557965 8328.87 0 554818 6236.97 0 552571 4153.37 0 551221 2075.3 0 550767 0 0 1.23574e+06 -126095 0 1.31335e+06 -159944 0 1.41751e+06 -174717 0 1.50332e+06 -163445 0 1.57537e+06 -143194 0 1.63371e+06 -118727 0 1.67949e+06 -93133.6 0 1.71332e+06 -67756.9 0 1.73592e+06 -43495.4 0 1.74813e+06 -20904.2 0 1.75088e+06 -344.103 0 1.74522e+06 17981.6 0 1.7322e+06 33995.9 0 1.71289e+06 47722.1 0 1.68828e+06 59258.4 0 1.65932e+06 68754.7 0 1.62686e+06 76391.6 0 1.59165e+06 82364.3 0 1.55436e+06 86869.8 0 1.51558e+06 90098.2 0 1.47578e+06 92227.3 0 1.43541e+06 93419.6 0 1.3948e+06 93820.6 0 1.35426e+06 93558.8 0 1.31404e+06 92746.4 0 1.27433e+06 91480.8 0 1.23531e+06 89845.2 0 1.1971e+06 87911 0 1.15982e+06 85738.4 0 1.12354e+06 83378.6 0 1.08833e+06 80874.5 0 1.05425e+06 78261.8 0 1.02131e+06 75570.6 0 989563 72825.6 0 959005 70047.4 0 929651 67252.7 0 901502 64455.1 0 874555 61665.8 0 848802 58893.5 0 824235 56145.1 0 800839 53426.1 0 778601 50740.3 0 757505 48090.8 0 737535 45479.3 0 718673 42907.2 0 700902 40374.7 0 684205 37881.9 0 668564 35428.1 0 653963 33012.3 0 640385 30633.3 0 627816 28289.5 0 616239 25979 0 605642 23699.8 0 596010 21449.8 0 587333 19226.5 0 579598 17027.7 0 572797 14850.7 0 566920 12693 0 561959 10552 0 557908 8424.79 0 554761 6308.8 0 552514 4201.2 0 551165 2099.2 0 550711 0 0 1.23493e+06 -126013 0 1.3127e+06 -162781 0 1.41791e+06 -177256 0