<?xml version="1.0"?> 
<VTKFile type="StructuredGrid" version="0.1"> 
<StructuredGrid WholeExtent="0 63 0 63 0 0"> 
<Piece Extent="0 63 0 63 0 0"> 
<PointData>
<DataArray type="Float32" Name="|E|" format="ascii" NumberOfComponents="3"> 
-2.10832e+06 0 0 -2.10867e+06 5985.04 0 -2.10972e+06 11973.5 0 -2.11147e+06 17970.6 0 -2.11392e+06 23981.8 0 -2.11707e+06 30012.4 0 -2.12092e+06 36067.8 0 -2.12548e+06 42153.5 0 -2.13075e+06 48275.2 0 -2.13673e+06 54438.6 0 -2.14343e+06 60649.4 0 -2.15087e+06 66913.7 0 -2.15903e+06 73237.6 0 -2.16793e+06 79627.4 0 -2.17758e+06 86089.5 0 -2.18799e+06 92630.6 0 -2.19916e+06 99257.7 0 -2.21111e+06 105978 0 -2.22384e+06 112798 0 -2.23737e+06 119727 0 -2.25172e+06 126771 0 -2.26689e+06 133939 0 -2.2829e+06 141239 0 -2.29976e+06 148679 0 -2.3175e+06 156269 0 -2.33614e+06 164016 0 -2.35568e+06 171930 0 -2.37616e+06 180019 0 -2.3976e+06 188292 0 -2.42002e+06 196757 0 -2.44344e+06 205421 0 -2.4679e+06 214292 0 -2.49343e+06 223376 0 -2.52005e+06 232676 0 -2.54781e+06 242195 0 -2.57674e+06 251932 0 -2.60689e+06 261885 0 -2.63829e+06 272043 0 -2.67099e+06 282393 0 -2.70505e+06 292913 0 -2.74052e+06 303573 0 -2.77746e+06 314329 0 -2.81593e+06 325123 0 -2.856e+06 335880 0 -2.89774e+06 346500 0 -2.94122e+06 356854 0 -2.98653e+06 366778 0 -3.03373e+06 376064 0 -3.0829e+06 384448 0 -3.13408e+06 391601 0 -3.18731e+06 397113 0 -3.24258e+06 400478 0 -3.29981e+06 401081 0 -3.35881e+06 398182 0 -3.41925e+06 390908 0 -3.48059e+06 378265 0 -3.54197e+06 359169 0 -3.60218e+06 332527 0 -3.65954e+06 297368 0 -3.71192e+06 253042 0 -3.7568e+06 199480 0 -3.79138e+06 137603 0 -3.81324e+06 70504.6 0 -3.82215e+06 -1988.75 0 -2.10784e+06 0 0 -2.10818e+06 5952.37 0 -2.1092e+06 11908 0 -2.1109e+06 17872 0 -2.11327e+06 23849.6 0 -2.11633e+06 29845.9 0 -2.12007e+06 35866.1 0 -2.12449e+06 41915.6 0 -2.1296e+06 47999.8 0 -2.13541e+06 54124.2 0 -2.14191e+06 60294.4 0 -2.14912e+06 66516 0 -2.15703e+06 72795.2 0 -2.16567e+06 79137.7 0 -2.17503e+06 85550 0 -2.18511e+06 92038.4 0 -2.19594e+06 98609.5 0 -2.20752e+06 105270 0 -2.21986e+06 112027 0 -2.23298e+06 118889 0 -2.24687e+06 125861 0 -2.26157e+06 132952 0 -2.27707e+06 140171 0 -2.2934e+06 147524 0 -2.31057e+06 155021 0 -2.3286e+06 162670 0 -2.34751e+06 170479 0 -2.36732e+06 178456 0 -2.38805e+06 186611 0 -2.40972e+06 194951 0 -2.43235e+06 203484 0 -2.45598e+06 212217 0 -2.48063e+06 221156 0 -2.50633e+06 230307 0 -2.53312e+06 239672 0 -2.56102e+06 249254 0 -2.59008e+06 259049 0 -2.62034e+06 269053 0 -2.65184e+06 279256 0 -2.68464e+06 289641 0 -2.71877e+06 300184 0 -2.75429e+06 310851 0 -2.79127e+06 321597 0 -2.82977e+06 332360 0 -2.86986e+06 343059 0 -2.9116e+06 353591 0 -2.95508e+06 363822 0 -3.00036e+06 373581 0 -3.04753e+06 382653 0 -3.09665e+06 390769 0 -3.14776e+06 397590 0 -3.20091e+06 402699 0 -3.25607e+06 405582 0 -3.31315e+06 405615 0 -3.37196e+06 402052 0 -3.43216e+06 394015 0 -3.49317e+06 380505 0 -3.55413e+06 360436 0 -3.61379e+06 332716 0 -3.67045e+06 296387 0 -3.72199e+06 250835 0 -3.76587e+06 195806 0 -3.79928e+06 132862 0 -3.82017e+06 63135.3 0 -2.10736e+06 0 0 -2.10769e+06 5918.04 0 -2.10868e+06 11839.2 0 -2.11033e+06 17768.5 0 -2.11263e+06 23710.8 0 -2.11559e+06 29671.2 0 -2.11922e+06 35654.6 0 -2.1235e+06 41666.3 0 -2.12846e+06 47711.4 0 -2.13409e+06 53795.2 0 -2.1404e+06 59923.2 0 -2.14739e+06 66100.8 0 -2.15506e+06 72333.6 0 -2.16343e+06 78627.7 0 -2.1725e+06 84988.7 0 -2.18228e+06 91423.1 0 -2.19277e+06 97937 0 -2.20399e+06 104537 0 -2.21594e+06 111230 0 -2.22864e+06 118023 0 -2.2421e+06 124923 0 -2.25633e+06 131937 0 -2.27133e+06 139073 0 -2.28714e+06 146339 0 -2.30375e+06 153743 0 -2.32119e+06 161292 0 -2.33948e+06 168996 0 -2.35863e+06 176862 0 -2.37867e+06 184898 0 -2.3996e+06 193113 0 -2.42147e+06 201514 0 -2.44428e+06 210109 0 -2.46808e+06 218903 0 -2.49288e+06 227903 0 -2.51871e+06 237113 0 -2.54562e+06 246536 0 -2.57363e+06 256170 0 -2.60278e+06 266014 0 -2.63311e+06 276061 0 -2.66467e+06 286298 0 -2.69751e+06 296707 0 -2.73166e+06 307262 0 -2.7672e+06 317927 0 -2.80418e+06 328654 0 -2.84266e+06 339376 0 -2.88271e+06 350010 0 -2.9244e+06 360449 0 -2.96782e+06 370553 0 -3.01302e+06 380146 0 -3.0601e+06 389008 0 -3.1091e+06 396862 0 -3.16009e+06 403363 0 -3.21309e+06 408085 0 -3.26808e+06 410507 0 -3.32496e+06 409995 0 -3.38354e+06 405795 0 -3.44346e+06 397023 0 -3.50412e+06 382678 0 -3.56467e+06 361682 0 -3.62382e+06 332953 0 -3.67988e+06 295611 0 -3.73075e+06 248988 0 -3.77387e+06 193225 0 -3.80649e+06 130098 0 -2.10687e+06 0 0 -2.10719e+06 5882.06 0 -2.10815e+06 11767.1 0 -2.10975e+06 17660 0 -2.11198e+06 23565.4 0 -2.11485e+06 29488.2 0 -2.11837e+06 35433.3 0 -2.12252e+06 41405.6 0 -2.12733e+06 47410 0 -2.13279e+06 53451.7 0 -2.1389e+06 59535.9 0 -2.14567e+06 65667.9 0 -2.15311e+06 71853.1 0 -2.16122e+06 78097.1 0 -2.17e+06 84405.7 0 -2.17947e+06 90784.6 0 -2.18964e+06 97240.2 0 -2.2005e+06 103778 0 -2.21208e+06 110406 0 -2.22437e+06 117129 0 -2.2374e+06 123956 0 -2.25116e+06 130892 0 -2.26569e+06 137945 0 -2.28097e+06 145123 0 -2.29704e+06 152433 0 -2.31391e+06 159883 0 -2.33159e+06 167481 0 -2.35009e+06 175235 0 -2.36945e+06 183153 0 -2.38967e+06 191242 0 -2.41078e+06 199511 0 -2.43281e+06 207966 0 -2.45577e+06 216615 0 -2.47969e+06 225464 0 -2.5046e+06 234516 0 -2.53054e+06 243777 0 -2.55752e+06 253247 0 -2.58559e+06 262925 0 -2.61479e+06 272807 0 -2.64516e+06 282886 0 -2.67673e+06 293146 0 -2.70956e+06 303570 0 -2.7437e+06 314127 0 -2.7792e+06 324781 0 -2.81612e+06 335479 0 -2.85453e+06 346154 0 -2.8945e+06 356719 0 -2.93609e+06 367062 0 -2.97939e+06 377042 0 -3.02446e+06 386478 0 -3.07138e+06 395146 0 -3.12022e+06 402765 0 -3.17102e+06 408985 0 -3.22382e+06 413377 0 -3.27857e+06 415413 0 -3.3352e+06 414459 0 -3.3935e+06 409753 0 -3.45309e+06 400412 0 -3.5134e+06 385434 0 -3.57354e+06 363734 0 -3.63224e+06 334253 0 -3.68783e+06 296100 0 -3.73821e+06 248407 0 -3.78073e+06 193098 0 -2.10638e+06 0 0 -2.10669e+06 5844.43 0 -2.10762e+06 11691.7 0 -2.10917e+06 17546.6 0 -2.11133e+06 23413.5 0 -2.11411e+06 29297.1 0 -2.11752e+06 35202.2 0 -2.12155e+06 41133.4 0 -2.1262e+06 47095.6 0 -2.13149e+06 53093.6 0 -2.13741e+06 59132.6 0 -2.14397e+06 65217.5 0 -2.15117e+06 71353.5 0 -2.15903e+06 77546.2 0 -2.16753e+06 83800.8 0 -2.17671e+06 90123.1 0 -2.18654e+06 96519 0 -2.19706e+06 102994 0 -2.20826e+06 109555 0 -2.22016e+06 116208 0 -2.23276e+06 122960 0 -2.24608e+06 129817 0 -2.26013e+06 136787 0 -2.27491e+06 143876 0 -2.29044e+06 151092 0 -2.30674e+06 158442 0 -2.32383e+06 165934 0 -2.34171e+06 173575 0 -2.3604e+06 181374 0 -2.37992e+06 189338 0 -2.4003e+06 197475 0 -2.42155e+06 205791 0 -2.4437e+06 214294 0 -2.46677e+06 222990 0 -2.49078e+06 231885 0 -2.51576e+06 240981 0 -2.54175e+06 250284 0 -2.56878e+06 259792 0 -2.59687e+06 269504 0 -2.62608e+06 279415 0 -2.65643e+06 289515 0 -2.68797e+06 299790 0 -2.72076e+06 310217 0 -2.75483e+06 320768 0 -2.79025e+06 331401 0 -2.82707e+06 342064 0 -2.86536e+06 352686 0 -2.90519e+06 363178 0 -2.94663e+06 373426 0 -2.98975e+06 383286 0 -3.03463e+06 392575 0 -3.08134e+06 401066 0 -3.12995e+06 408475 0 -3.1805e+06 414450 0 -3.23303e+06 418560 0 -3.2875e+06 420276 0 -3.34382e+06 418962 0 -3.40178e+06 413859 0 -3.46102e+06 404084 0 -3.52096e+06 388640 0 -3.58071e+06 366441 0 -3.63902e+06 336531 0 -3.69428e+06 297504 0 -3.74422e+06 250728 0 -2.10588e+06 0 0 -2.10619e+06 5805.14 0 -2.10709e+06 11613.1 0 -2.10858e+06 17428.2 0 -2.11068e+06 23254.9 0 -2.11337e+06 29097.8 0 -2.11667e+06 34961.2 0 -2.12057e+06 40849.8 0 -2.12508e+06 46768.2 0 -2.1302e+06 52721 0 -2.13593e+06 58713.2 0 -2.14228e+06 64749.5 0 -2.14926e+06 70835 0 -2.15686e+06 76974.8 0 -2.1651e+06 83174.2 0 -2.17397e+06 89438.6 0 -2.18349e+06 95773.6 0 -2.19367e+06 102185 0 -2.20451e+06 108678 0 -2.21601e+06 115260 0 -2.2282e+06 121936 0 -2.24108e+06 128714 0 -2.25465e+06 135599 0 -2.26894e+06 142598 0 -2.28395e+06 149719 0 -2.2997e+06 156969 0 -2.3162e+06 164355 0 -2.33347e+06 171884 0 -2.35151e+06 179564 0 -2.37036e+06 187403 0 -2.39002e+06 195407 0 -2.41051e+06 203584 0 -2.43187e+06 211941 0 -2.4541e+06 220484 0 -2.47724e+06 229219 0 -2.5013e+06 238151 0 -2.52632e+06 247283 0 -2.55233e+06 256618 0 -2.57935e+06 266155 0 -2.60743e+06 275892 0 -2.6366e+06 285821 0 -2.6669e+06 295934 0 -2.69837e+06 306212 0 -2.73106e+06 316635 0 -2.76502e+06 327170 0 -2.8003e+06 337776 0 -2.83698e+06 348397 0 -2.8751e+06 358962 0 -2.91474e+06 369381 0 -2.95596e+06 379538 0 -2.99885e+06 389286 0 -3.04348e+06 398442 0 -3.08993e+06 406779 0 -3.13824e+06 414010 0 -3.18849e+06 419786 0 -3.24069e+06 423676 0 -3.29481e+06 425152 0 -3.35076e+06 423582 0 -3.40834e+06 418209 0 -3.4672e+06 408161 0 -3.52675e+06 392414 0 -3.58613e+06 370035 0 -3.64416e+06 339491 0 -3.69906e+06 301528 0 -2.10538e+06 0 0 -2.10567e+06 5764.21 0 -2.10655e+06 11531.1 0 -2.108e+06 17304.9 0 -2.11002e+06 23089.8 0 -2.11263e+06 28890.2 0 -2.11583e+06 34710.4 0 -2.1196e+06 40554.8 0 -2.12397e+06 46427.8 0 -2.12892e+06 52333.9 0 -2.13447e+06 58277.8 0 -2.14062e+06 64264.1 0 -2.14736e+06 70297.6 0 -2.15472e+06 76383.2 0 -2.16269e+06 82526 0 -2.17127e+06 88731.2 0 -2.18048e+06 95004 0 -2.19032e+06 101350 0 -2.2008e+06 107775 0 -2.21193e+06 114284 0 -2.22371e+06 120884 0 -2.23615e+06 127581 0 -2.24927e+06 134381 0 -2.26307e+06 141290 0 -2.27757e+06 148316 0 -2.29278e+06 155465 0 -2.30871e+06 162745 0 -2.32537e+06 170161 0 -2.34279e+06 177723 0 -2.36096e+06 185436 0 -2.37992e+06 193307 0 -2.39969e+06 201345 0 -2.42027e+06 209556 0 -2.44169e+06 217946 0 -2.46397e+06 226521 0 -2.48714e+06 235288 0 -2.51122e+06 244249 0 -2.53624e+06 253407 0 -2.56222e+06 262766 0 -2.58921e+06 272322 0 -2.61723e+06 282073 0 -2.64632e+06 292012 0 -2.67652e+06 302127 0 -2.70787e+06 312401 0 -2.74042e+06 322810 0 -2.77423e+06 333321 0 -2.80933e+06 343893 0 -2.84581e+06 354468 0 -2.88371e+06 364975 0 -2.9231e+06 375321 0 -2.96407e+06 385391 0 -3.00667e+06 395038 0 -3.05099e+06 404079 0 -3.0971e+06 412286 0 -3.14507e+06 419376 0 -3.19494e+06 425002 0 -3.24674e+06 428735 0 -3.30046e+06 430055 0 -3.35598e+06 428333 0 -3.41314e+06 422830 0 -3.47157e+06 412644 0 -3.53072e+06 396908 0 -3.58978e+06 374168 0 -3.64745e+06 344692 0 -2.10488e+06 0 0 -2.10516e+06 5721.63 0 -2.106e+06 11445.8 0 -2.10741e+06 17176.6 0 -2.10937e+06 22918.1 0 -2.11189e+06 28674.5 0 -2.11498e+06 34449.9 0 -2.11864e+06 40248.5 0 -2.12286e+06 46074.5 0 -2.12765e+06 51932.3 0 -2.13302e+06 57826.4 0 -2.13896e+06 63761.2 0 -2.14549e+06 69741.2 0 -2.1526e+06 75771.3 0 -2.1603e+06 81856.1 0 -2.1686e+06 88000.8 0 -2.17751e+06 94210.3 0 -2.18702e+06 100490 0 -2.19715e+06 106845 0 -2.2079e+06 113281 0 -2.21928e+06 119804 0 -2.2313e+06 126419 0 -2.24397e+06 133133 0 -2.2573e+06 139952 0 -2.2713e+06 146882 0 -2.28598e+06 153931 0 -2.30135e+06 161103 0 -2.31742e+06 168407 0 -2.33422e+06 175850 0 -2.35175e+06 183437 0 -2.37003e+06 191177 0 -2.38907e+06 199076 0 -2.4089e+06 207140 0 -2.42953e+06 215378 0 -2.45098e+06 223793 0 -2.47327e+06 232393 0 -2.49644e+06 241182 0 -2.5205e+06 250163 0 -2.54547e+06 259339 0 -2.5714e+06 268711 0 -2.59831e+06 278278 0 -2.62623e+06 288034 0 -2.6552e+06 297972 0 -2.68526e+06 308081 0 -2.71645e+06 318341 0 -2.74882e+06 328728 0 -2.78242e+06 339209 0 -2.8173e+06 349741 0 -2.85353e+06 360267 0 -2.89116e+06 370714 0 -2.93026e+06 380991 0 -2.9709e+06 390982 0 -3.01316e+06 400540 0 -3.05711e+06 409485 0 -3.10283e+06 417592 0 -3.15039e+06 424581 0 -3.19982e+06 430108 0 -3.25116e+06 433754 0 -3.3044e+06 435003 0 -3.35945e+06 433248 0 -3.41612e+06 427724 0 -3.47408e+06 417667 0 -3.53284e+06 401803 0 -3.59149e+06 380065 0 -2.10437e+06 0 0 -2.10464e+06 5677.4 0 -2.10546e+06 11357.2 0 -2.10681e+06 17043.4 0 -2.10871e+06 22739.9 0 -2.11115e+06 28450.6 0 -2.11414e+06 34179.5 0 -2.11767e+06 39930.7 0 -2.12175e+06 45708.3 0 -2.12639e+06 51516.3 0 -2.13158e+06 57359 0 -2.13732e+06 63240.8 0 -2.14363e+06 69166 0 -2.15051e+06 75139.1 0 -2.15795e+06 81164.7 0 -2.16597e+06 87247.6 0 -2.17457e+06 93392.5 0 -2.18376e+06 99604.6 0 -2.19355e+06 105889 0 -2.20393e+06 112251 0 -2.21492e+06 118695 0 -2.22653e+06 125229 0 -2.23876e+06 131856 0 -2.25162e+06 138584 0 -2.26513e+06 145418 0 -2.27929e+06 152365 0 -2.29412e+06 159431 0 -2.30962e+06 166622 0 -2.32581e+06 173945 0 -2.34271e+06 181408 0 -2.36032e+06 189016 0 -2.37866e+06 196776 0 -2.39775e+06 204695 0 -2.41761e+06 212779 0 -2.43826e+06 221035 0 -2.4597e+06 229469 0 -2.48198e+06 238084 0 -2.5051e+06 246887 0 -2.5291e+06 255880 0 -2.554e+06 265064 0 -2.57983e+06 274441 0 -2.60662e+06 284008 0 -2.6344e+06 293760 0 -2.66321e+06 303689 0 -2.69309e+06 313781 0 -2.72408e+06 324019 0 -2.75622e+06 334377 0 -2.78957e+06 344822 0 -2.82418e+06 355310 0 -2.86011e+06 365784 0 -2.89741e+06 376172 0 -2.93616e+06 386383 0 -2.97643e+06 396303 0 -3.01829e+06 405788 0 -3.06182e+06 414659 0 -3.10708e+06 422695 0 -3.15416e+06 429623 0 -3.20309e+06 435108 0 -3.25391e+06 438735 0 -3.3066e+06 440011 0 -3.36111e+06 438311 0 -3.41724e+06 432984 0 -3.47471e+06 422973 0 -3.53297e+06 407997 0 -2.10385e+06 0 0 -2.10412e+06 5631.52 0 -2.10491e+06 11265.4 0 -2.10622e+06 16905.3 0 -2.10805e+06 22555.1 0 -2.11041e+06 28218.5 0 -2.1133e+06 33899.4 0 -2.11671e+06 39601.6 0 -2.12066e+06 45329.1 0 -2.12513e+06 51085.8 0 -2.13015e+06 56875.7 0 -2.1357e+06 62703 0 -2.14179e+06 68571.9 0 -2.14844e+06 74486.7 0 -2.15563e+06 80451.7 0 -2.16337e+06 86471.6 0 -2.17168e+06 92550.8 0 -2.18055e+06 98694.1 0 -2.19e+06 104907 0 -2.20002e+06 111193 0 -2.21063e+06 117559 0 -2.22183e+06 124009 0 -2.23363e+06 130550 0 -2.24604e+06 137186 0 -2.25907e+06 143923 0 -2.27272e+06 150769 0 -2.28702e+06 157727 0 -2.30196e+06 164806 0 -2.31756e+06 172011 0 -2.33384e+06 179348 0 -2.3508e+06 186824 0 -2.36846e+06 194446 0 -2.38683e+06 202220 0 -2.40594e+06 210152 0 -2.4258e+06 218249 0 -2.44642e+06 226516 0 -2.46784e+06 234959 0 -2.49005e+06 243582 0 -2.5131e+06 252390 0 -2.53701e+06 261384 0 -2.56179e+06 270568 0 -2.58748e+06 279940 0 -2.61411e+06 289498 0 -2.64172e+06 299237 0 -2.67033e+06 309147 0 -2.69998e+06 319215 0 -2.73072e+06 329423 0 -2.7626e+06 339745 0 -2.79565e+06 350148 0 -2.82994e+06 360587 0 -2.86552e+06 371008 0 -2.90245e+06 381339 0 -2.9408e+06 391490 0 -2.98064e+06 401348 0 -3.02204e+06 410775 0 -3.06508e+06 419594 0 -3.10983e+06 427592 0 -3.15635e+06 434502 0 -3.20472e+06 439997 0 -3.25494e+06 443683 0 -3.30704e+06 445057 0 -3.36092e+06 443581 0 -3.41647e+06 438414 0 -3.47336e+06 429158 0 -2.10333e+06 0 0 -2.10359e+06 5584.01 0 -2.10435e+06 11170.2 0 -2.10562e+06 16762.3 0 -2.10739e+06 22363.7 0 -2.10967e+06 27978.3 0 -2.11246e+06 33609.5 0 -2.11575e+06 39261.2 0 -2.11956e+06 44937 0 -2.12389e+06 50640.8 0 -2.12873e+06 56376.5 0 -2.13409e+06 62147.9 0 -2.13998e+06 67959.1 0 -2.14639e+06 73814.1 0 -2.15333e+06 79717.3 0 -2.16081e+06 85672.8 0 -2.16883e+06 91685 0 -2.17739e+06 97758.6 0 -2.1865e+06 103898 0 -2.19617e+06 110108 0 -2.20641e+06 116394 0 -2.21721e+06 122761 0 -2.22859e+06 129214 0 -2.24055e+06 135758 0 -2.25311e+06 142398 0 -2.26627e+06 149142 0 -2.28004e+06 155993 0 -2.29444e+06 162959 0 -2.30946e+06 170045 0 -2.32513e+06 177258 0 -2.34146e+06 184603 0 -2.35846e+06 192087 0 -2.37614e+06 199716 0 -2.39451e+06 207497 0 -2.41361e+06 215435 0 -2.43343e+06 223536 0 -2.454e+06 231806 0 -2.47534e+06 240250 0 -2.49746e+06 248872 0 -2.5204e+06 257676 0 -2.54417e+06 266664 0 -2.56881e+06 275837 0 -2.59433e+06 285195 0 -2.62076e+06 294735 0 -2.64815e+06 304451 0 -2.67652e+06 314333 0 -2.70591e+06 324369 0 -2.73636e+06 334539 0 -2.76792e+06 344819 0 -2.80063e+06 355174 0 -2.83455e+06 365563 0 -2.86974e+06 375929 0 -2.90624e+06 386204 0 -2.94414e+06 396301 0 -2.98349e+06 406109 0 -3.02438e+06 415493 0 -3.06687e+06 424284 0 -3.11104e+06 432275 0 -3.15696e+06 439208 0 -3.20468e+06 444772 0 -3.25425e+06 448572 0 -3.30566e+06 450170 0 -3.35888e+06 448916 0 -3.41374e+06 444370 0 -2.10281e+06 0 0 -2.10306e+06 5534.84 0 -2.10379e+06 11071.8 0 -2.10501e+06 16614.3 0 -2.10673e+06 22165.9 0 -2.10893e+06 27729.9 0 -2.11162e+06 33309.9 0 -2.1148e+06 38909.4 0 -2.11848e+06 44532.1 0 -2.12265e+06 50181.5 0 -2.12733e+06 55861.3 0 -2.1325e+06 61575.4 0 -2.13818e+06 67327.4 0 -2.14437e+06 73121.4 0 -2.15106e+06 78961.4 0 -2.15828e+06 84851.3 0 -2.16601e+06 90795.4 0 -2.17427e+06 96798.1 0 -2.18306e+06 102864 0 -2.19238e+06 108997 0 -2.20225e+06 115202 0 -2.21266e+06 121484 0 -2.22363e+06 127849 0 -2.23516e+06 134300 0 -2.24726e+06 140843 0 -2.25993e+06 147484 0 -2.2732e+06 154229 0 -2.28706e+06 161082 0 -2.30152e+06 168049 0 -2.3166e+06 175137 0 -2.33231e+06 182352 0 -2.34866e+06 189698 0 -2.36566e+06 197184 0 -2.38332e+06 204813 0 -2.40167e+06 212593 0 -2.42071e+06 220529 0 -2.44047e+06 228627 0 -2.46095e+06 236892 0 -2.48218e+06 245328 0 -2.50419e+06 253941 0 -2.52698e+06 262732 0 -2.55058e+06 271704 0 -2.57503e+06 280858 0 -2.60034e+06 290192 0 -2.62654e+06 299705 0 -2.65367e+06 309389 0 -2.68176e+06 319235 0 -2.71084e+06 329230 0 -2.74097e+06 339355 0 -2.77217e+06 349586 0 -2.80449e+06 359889 0 -2.838e+06 370224 0 -2.87274e+06 380536 0 -2.90877e+06 390758 0 -2.94616e+06 400805 0 -2.98498e+06 410573 0 -3.02529e+06 419931 0 -3.06717e+06 428717 0 -3.1107e+06 436731 0 -3.15594e+06 443729 0 -3.20296e+06 449406 0 -3.2518e+06 453411 0 -3.30247e+06 455251 0 -3.35492e+06 454495 0 -2.10228e+06 0 0 -2.10252e+06 5484.04 0 -2.10323e+06 10970.1 0 -2.10441e+06 16461.4 0 -2.10606e+06 21961.4 0 -2.10818e+06 27473.3 0 -2.11078e+06 33000.5 0 -2.11385e+06 38546.3 0 -2.1174e+06 44114.3 0 -2.12143e+06 49707.8 0 -2.12593e+06 55330.3 0 -2.13092e+06 60985.5 0 -2.1364e+06 66677.1 0 -2.14237e+06 72408.6 0 -2.14883e+06 78184 0 -2.15578e+06 84007.1 0 -2.16324e+06 89882 0 -2.1712e+06 95812.6 0 -2.17967e+06 101803 0 -2.18865e+06 107858 0 -2.19816e+06 113982 0 -2.20819e+06 120179 0 -2.21875e+06 126454 0 -2.22986e+06 132812 0 -2.24151e+06 139258 0 -2.25371e+06 145797 0 -2.26648e+06 152434 0 -2.27981e+06 159174 0 -2.29373e+06 166023 0 -2.30824e+06 172987 0 -2.32334e+06 180071 0 -2.33906e+06 187281 0 -2.35539e+06 194623 0 -2.37237e+06 202103 0 -2.38999e+06 209726 0 -2.40827e+06 217497 0 -2.42724e+06 225424 0 -2.44689e+06 233510 0 -2.46726e+06 241761 0 -2.48835e+06 250182 0 -2.51019e+06 258775 0 -2.5328e+06 267544 0 -2.55621e+06 276491 0 -2.58043e+06 285616 0 -2.60549e+06 294918 0 -2.63143e+06 304394 0 -2.65826e+06 314037 0 -2.68603e+06 323839 0 -2.71477e+06 333785 0 -2.74452e+06 343859 0 -2.77532e+06 354035 0 -2.80722e+06 364282 0 -2.84027e+06 374559 0 -2.87452e+06 384816 0 -2.91002e+06 394987 0 -2.94686e+06 404992 0 -2.98508e+06 414729 0 -3.02476e+06 424076 0 -3.06598e+06 432877 0 -3.1088e+06 440944 0 -3.15331e+06 448041 0 -3.19955e+06 453892 0 -3.24759e+06 458131 0 -3.29743e+06 460360 0 -2.10175e+06 0 0 -2.10198e+06 5431.6 0 -2.10266e+06 10865.1 0 -2.1038e+06 16303.7 0 -2.10539e+06 21750.4 0 -2.10744e+06 27208.6 0 -2.10994e+06 32681.4 0 -2.1129e+06 38172 0 -2.11633e+06 43683.6 0 -2.12021e+06 49219.6 0 -2.12455e+06 54783.4 0 -2.12936e+06 60378.4 0 -2.13464e+06 66007.9 0 -2.14039e+06 71675.7 0 -2.14661e+06 77385.3 0 -2.15332e+06 83140.3 0 -2.1605e+06 88944.7 0 -2.16817e+06 94802.2 0 -2.17633e+06 100717 0 -2.18498e+06 106693 0 -2.19413e+06 112734 0 -2.20379e+06 118845 0 -2.21396e+06 125031 0 -2.22465e+06 131295 0 -2.23586e+06 137643 0 -2.2476e+06 144079 0 -2.25988e+06 150608 0 -2.27271e+06 157236 0 -2.28609e+06 163967 0 -2.30003e+06 170807 0 -2.31455e+06 177762 0 -2.32965e+06 184836 0 -2.34534e+06 192035 0 -2.36164e+06 199365 0 -2.37856e+06 206832 0 -2.39611e+06 214441 0 -2.4143e+06 222197 0 -2.43315e+06 230106 0 -2.45267e+06 238172 0 -2.47289e+06 246401 0 -2.49381e+06 254796 0 -2.51546e+06 263362 0 -2.53786e+06 272100 0 -2.56103e+06 281012 0 -2.58499e+06 290099 0 -2.60977e+06 299360 0 -2.6354e+06 308790 0 -2.6619e+06 318384 0 -2.68932e+06 328132 0 -2.71767e+06 338023 0 -2.74701e+06 348037 0 -2.77737e+06 358152 0 -2.8088e+06 368338 0 -2.84134e+06 378556 0 -2.87505e+06 388757 0 -2.90999e+06 398879 0 -2.94621e+06 408846 0 -2.98379e+06 418563 0 -3.02279e+06 427911 0 -3.06328e+06 436747 0 -3.10534e+06 444890 0 -3.14904e+06 452125 0 -3.19444e+06 458184 0 -3.2416e+06 462715 0 -2.10121e+06 0 0 -2.10144e+06 5377.51 0 -2.10209e+06 10756.8 0 -2.10319e+06 16141 0 -2.10472e+06 21533 0 -2.1067e+06 26935.8 0 -2.10911e+06 32352.5 0 -2.11196e+06 37786.3 0 -2.11526e+06 43240.1 0 -2.119e+06 48717.2 0 -2.12318e+06 54220.7 0 -2.12782e+06 59753.9 0 -2.1329e+06 65320.1 0 -2.13844e+06 70922.8 0 -2.14443e+06 76565.2 0 -2.15088e+06 82250.9 0 -2.1578e+06 87983.6 0 -2.16518e+06 93766.9 0 -2.17304e+06 99604.6 0 -2.18137e+06 105501 0 -2.19018e+06 111459 0 -2.19947e+06 117483 0 -2.20925e+06 123578 0 -2.21953e+06 129748 0 -2.23032e+06 135998 0 -2.24161e+06 142331 0 -2.25341e+06 148753 0 -2.26574e+06 155268 0 -2.2786e+06 161881 0 -2.29199e+06 168598 0 -2.30594e+06 175423 0 -2.32044e+06 182362 0 -2.3355e+06 189419 0 -2.35115e+06 196601 0 -2.36738e+06 203913 0 -2.38421e+06 211360 0 -2.40165e+06 218947 0 -2.41972e+06 226679 0 -2.43843e+06 234562 0 -2.45779e+06 242601 0 -2.47782e+06 250799 0 -2.49854e+06 259160 0 -2.51997e+06 267689 0 -2.54212e+06 276387 0 -2.56502e+06 285255 0 -2.58869e+06 294295 0 -2.61316e+06 303504 0 -2.63844e+06 312880 0 -2.66458e+06 322415 0 -2.6916e+06 332103 0 -2.71954e+06 341929 0 -2.74842e+06 351878 0 -2.7783e+06 361927 0 -2.80921e+06 372047 0 -2.84121e+06 382202 0 -2.87434e+06 392346 0 -2.90866e+06 402420 0 -2.94422e+06 412353 0 -2.9811e+06 422056 0 -3.01936e+06 431418 0 -3.05907e+06 440304 0 -3.10031e+06 448546 0 -3.14314e+06 455952 0 -3.18764e+06 462219 0 -2.10067e+06 0 0 -2.10089e+06 5321.79 0 -2.10152e+06 10645.3 0 -2.10258e+06 15973.4 0 -2.10405e+06 21308.9 0 -2.10595e+06 26654.8 0 -2.10827e+06 32014 0 -2.11102e+06 37389.3 0 -2.11419e+06 42783.7 0 -2.11779e+06 48200.3 0 -2.12182e+06 53642.1 0 -2.12628e+06 59112.2 0 -2.13118e+06 64613.7 0 -2.13651e+06 70149.8 0 -2.14228e+06 75723.8 0 -2.14849e+06 81339 0 -2.15514e+06 86998.8 0 -2.16224e+06 92706.8 0 -2.1698e+06 98466.5 0 -2.17781e+06 104282 0 -2.18628e+06 110156 0 -2.19522e+06 116093 0 -2.20463e+06 122097 0 -2.21451e+06 128172 0 -2.22487e+06 134323 0 -2.23572e+06 140553 0 -2.24706e+06 146867 0 -2.2589e+06 153269 0 -2.27125e+06 159765 0 -2.28412e+06 166359 0 -2.2975e+06 173055 0 -2.31142e+06 179859 0 -2.32587e+06 186776 0 -2.34088e+06 193811 0 -2.35644e+06 200969 0 -2.37258e+06 208255 0 -2.38929e+06 215674 0 -2.4066e+06 223231 0 -2.42451e+06 230932 0 -2.44305e+06 238781 0 -2.46222e+06 246783 0 -2.48204e+06 254942 0 -2.50253e+06 263261 0 -2.5237e+06 271743 0 -2.54557e+06 280392 0 -2.56817e+06 289207 0 -2.59152e+06 298191 0 -2.61564e+06 307340 0 -2.64055e+06 316652 0 -2.66629e+06 326120 0 -2.69288e+06 335738 0 -2.72035e+06 345493 0 -2.74875e+06 355369 0 -2.77811e+06 365345 0 -2.80847e+06 375395 0 -2.83987e+06 385484 0 -2.87238e+06 395569 0 -2.90603e+06 405595 0 -2.94089e+06 415497 0 -2.97703e+06 425191 0 -3.01449e+06 434576 0 -3.05337e+06 443522 0 -3.09372e+06 451893 0 -3.13563e+06 459435 0 -2.10013e+06 0 0 -2.10033e+06 5264.43 0 -2.10094e+06 10530.5 0 -2.10196e+06 15800.9 0 -2.10338e+06 21078.4 0 -2.10521e+06 26365.8 0 -2.10744e+06 31665.7 0 -2.11009e+06 36981 0 -2.11314e+06 42314.6 0 -2.1166e+06 47669.2 0 -2.12048e+06 53047.7 0 -2.12477e+06 58453.2 0 -2.12948e+06 63888.6 0 -2.1346e+06 69356.8 0 -2.14015e+06 74861.1 0 -2.14612e+06 80404.5 0 -2.15252e+06 85990.3 0 -2.15935e+06 91621.9 0 -2.16661e+06 97302.5 0 -2.17431e+06 103036 0 -2.18245e+06 108825 0 -2.19104e+06 114674 0 -2.20008e+06 120587 0 -2.20957e+06 126567 0 -2.21953e+06 132618 0 -2.22995e+06 138745 0 -2.24084e+06 144951 0 -2.2522e+06 151241 0 -2.26405e+06 157619 0 -2.2764e+06 164090 0 -2.28924e+06 170658 0 -2.30258e+06 177329 0 -2.31645e+06 184106 0 -2.33083e+06 190994 0 -2.34574e+06 197999 0 -2.3612e+06 205126 0 -2.37721e+06 212379 0 -2.39378e+06 219763 0 -2.41093e+06 227283 0 -2.42867e+06 234945 0 -2.447e+06 242751 0 -2.46595e+06 250708 0 -2.48553e+06 258818 0 -2.50575e+06 267086 0 -2.52664e+06 275513 0 -2.54821e+06 284103 0 -2.57048e+06 292857 0 -2.59347e+06 301774 0 -2.6172e+06 310854 0 -2.64171e+06 320094 0 -2.66701e+06 329487 0 -2.69313e+06 339027 0 -2.72011e+06 348702 0 -2.74799e+06 358498 0 -2.77679e+06 368396 0 -2.80655e+06 378369 0 -2.83733e+06 388388 0 -2.86917e+06 398411 0 -2.90212e+06 408388 0 -2.93623e+06 418259 0 -2.97157e+06 427948 0 -3.0082e+06 437357 0 -3.04618e+06 446389 0 -3.0856e+06 454835 0 -2.09958e+06 0 0 -2.09977e+06 5205.44 0 -2.10036e+06 10412.4 0 -2.10134e+06 15623.5 0 -2.1027e+06 20841.4 0 -2.10446e+06 26068.6 0 -2.10661e+06 31307.7 0 -2.10915e+06 36561.5 0 -2.11209e+06 41832.6 0 -2.11542e+06 47123.7 0 -2.11914e+06 52437.6 0 -2.12327e+06 57777 0 -2.12779e+06 63144.8 0 -2.13272e+06 68543.9 0 -2.13805e+06 73977.1 0 -2.14379e+06 79447.5 0 -2.14994e+06 84958.2 0 -2.1565e+06 90512.2 0 -2.16348e+06 96112.8 0 -2.17087e+06 101763 0 -2.17869e+06 107467 0 -2.18694e+06 113227 0 -2.19562e+06 119047 0 -2.20473e+06 124932 0 -2.21428e+06 130883 0 -2.22428e+06 136906 0 -2.23473e+06 143005 0 -2.24563e+06 149182 0 -2.257e+06 155444 0 -2.26884e+06 161792 0 -2.28115e+06 168233 0 -2.29394e+06 174770 0 -2.30722e+06 181408 0 -2.321e+06 188152 0 -2.33529e+06 195005 0 -2.35009e+06 201974 0 -2.36541e+06 209062 0 -2.38127e+06 216275 0 -2.39767e+06 223616 0 -2.41463e+06 231091 0 -2.43216e+06 238705 0 -2.45026e+06 246461 0 -2.46896e+06 254364 0 -2.48827e+06 262417 0 -2.5082e+06 270624 0 -2.52878e+06 278988 0 -2.55001e+06 287510 0 -2.57191e+06 296193 0 -2.59452e+06 305035 0 -2.61784e+06 314037 0 -2.6419e+06 323195 0 -2.66674e+06 332504 0 -2.69237e+06 341958 0 -2.71882e+06 351546 0 -2.74613e+06 361254 0 -2.77434e+06 371066 0 -2.80348e+06 380957 0 -2.83359e+06 390900 0 -2.86472e+06 400857 0 -2.89692e+06 410783 0 -2.93024e+06 420623 0 -2.96474e+06 430303 0 -3.00048e+06 439756 0 -3.03753e+06 448810 0 -2.09902e+06 0 0 -2.09921e+06 5144.82 0 -2.09978e+06 10291.1 0 -2.10071e+06 15441.3 0 -2.10203e+06 20597.8 0 -2.10372e+06 25763.3 0 -2.10578e+06 30940.1 0 -2.10822e+06 36130.8 0 -2.11104e+06 41337.9 0 -2.11424e+06 46563.9 0 -2.11782e+06 51811.7 0 -2.12178e+06 57083.6 0 -2.12613e+06 62382.5 0 -2.13086e+06 67711 0 -2.13598e+06 73071.9 0 -2.14149e+06 78468.1 0 -2.14739e+06 83902.4 0 -2.15369e+06 89377.8 0 -2.16039e+06 94897.4 0 -2.16749e+06 100464 0 -2.17499e+06 106081 0 -2.18291e+06 111752 0 -2.19123e+06 117479 0 -2.19997e+06 123267 0 -2.20914e+06 129119 0 -2.21872e+06 135038 0 -2.22874e+06 141029 0 -2.2392e+06 147094 0 -2.25009e+06 153238 0 -2.26143e+06 159465 0 -2.27323e+06 165779 0 -2.28548e+06 172183 0 -2.2982e+06 178683 0 -2.31139e+06 185283 0 -2.32506e+06 191987 0 -2.33922e+06 198799 0 -2.35388e+06 205724 0 -2.36905e+06 212766 0 -2.38473e+06 219931 0 -2.40093e+06 227222 0 -2.41768e+06 234645 0 -2.43497e+06 242202 0 -2.45282e+06 249899 0 -2.47124e+06 257740 0 -2.49026e+06 265727 0 -2.50987e+06 273865 0 -2.5301e+06 282156 0 -2.55096e+06 290601 0 -2.57248e+06 299203 0 -2.59467e+06 307962 0 -2.61755e+06 316876 0 -2.64115e+06 325944 0 -2.66548e+06 335160 0 -2.69058e+06 344519 0 -2.71648e+06 354011 0 -2.7432e+06 363625 0 -2.77078e+06 373343 0 -2.79925e+06 383146 0 -2.82866e+06 393007 0 -2.85905e+06 402892 0 -2.89046e+06 412763 0 -2.92295e+06 422564 0 -2.95657e+06 432249 0 -2.99138e+06 441680 0 -2.09846e+06 0 0 -2.09865e+06 5082.56 0 -2.09919e+06 10166.5 0 -2.10009e+06 15254.1 0 -2.10135e+06 20347.8 0 -2.10297e+06 25449.9 0 -2.10495e+06 30562.7 0 -2.1073e+06 35688.8 0 -2.11e+06 40830.3 0 -2.11307e+06 45989.9 0 -2.11651e+06 51170 0 -2.12031e+06 56373 0 -2.12448e+06 61601.5 0 -2.12902e+06 66858.2 0 -2.13393e+06 72145.5 0 -2.13922e+06 77466.2 0 -2.14489e+06 82823.1 0 -2.15093e+06 88218.8 0 -2.15735e+06 93656.2 0 -2.16416e+06 99138.3 0 -2.17136e+06 104668 0 -2.17894e+06 110248 0 -2.18693e+06 115883 0 -2.19531e+06 121574 0 -2.20409e+06 127325 0 -2.21328e+06 133140 0 -2.22287e+06 139023 0 -2.23289e+06 144976 0 -2.24332e+06 151003 0 -2.25418e+06 157108 0 -2.26547e+06 163296 0 -2.2772e+06 169569 0 -2.28937e+06 175932 0 -2.30199e+06 182388 0 -2.31507e+06 188943 0 -2.32861e+06 195600 0 -2.34262e+06 202364 0 -2.35712e+06 209239 0 -2.3721e+06 216228 0 -2.38757e+06 223338 0 -2.40356e+06 230571 0 -2.42006e+06 237932 0 -2.43709e+06 245425 0 -2.45466e+06 253055 0 -2.47279e+06 260825 0 -2.49147e+06 268738 0 -2.51074e+06 276797 0 -2.5306e+06 285006 0 -2.55107e+06 293366 0 -2.57217e+06 301879 0 -2.59392e+06 310545 0 -2.61633e+06 319363 0 -2.63943e+06 328331 0 -2.66324e+06 337446 0 -2.68778e+06 346701 0 -2.71309e+06 356089 0 -2.73918e+06 365599 0 -2.76611e+06 375217 0 -2.79388e+06 384923 0 -2.82256e+06 394695 0 -2.85217e+06 404503 0 -2.88276e+06 414308 0 -2.91438e+06 424079 0 -2.94709e+06 433705 0 -2.0979e+06 0 0 -2.09808e+06 5018.67 0 -2.0986e+06 10038.6 0 -2.09946e+06 15062.1 0 -2.10067e+06 20091.3 0 -2.10222e+06 25128.4 0 -2.10412e+06 30175.7 0 -2.10637e+06 35235.5 0 -2.10897e+06 40310 0 -2.11191e+06 45401.6 0 -2.11521e+06 50512.5 0 -2.11885e+06 55645.2 0 -2.12285e+06 60802.1 0 -2.12721e+06 65985.5 0 -2.13192e+06 71197.9 0 -2.13699e+06 76442 0 -2.14242e+06 81720.1 0 -2.14821e+06 87035 0 -2.15437e+06 92389.4 0 -2.16089e+06 97785.9 0 -2.16779e+06 103227 0 -2.17506e+06 108717 0 -2.1827e+06 114257 0 -2.19073e+06 119851 0 -2.19914e+06 125502 0 -2.20794e+06 131212 0 -2.21713e+06 136987 0 -2.22671e+06 142827 0 -2.2367e+06 148738 0 -2.24709e+06 154722 0 -2.25789e+06 160784 0 -2.26911e+06 166926 0 -2.28074e+06 173153 0 -2.29281e+06 179468 0 -2.30531e+06 185875 0 -2.31825e+06 192379 0 -2.33163e+06 198983 0 -2.34547e+06 205691 0 -2.35977e+06 212508 0 -2.37455e+06 219438 0 -2.3898e+06 226484 0 -2.40554e+06 233651 0 -2.42177e+06 240944 0 -2.43852e+06 248365 0 -2.45578e+06 255919 0 -2.47358e+06 263609 0 -2.49192e+06 271439 0 -2.51082e+06 279412 0 -2.53028e+06 287530 0 -2.55034e+06 295796 0 -2.57099e+06 304210 0 -2.59227e+06 312774 0 -2.61419e+06 321487 0 -2.63676e+06 330346 0 -2.66001e+06 339350 0 -2.68397e+06 348493 0 -2.70866e+06 357769 0 -2.73411e+06 367167 0 -2.76034e+06 376675 0 -2.78739e+06 386276 0 -2.8153e+06 395951 0 -2.8441e+06 405671 0 -2.87384e+06 415416 0 -2.90456e+06 425097 0 -2.09733e+06 0 0 -2.0975e+06 4953.16 0 -2.098e+06 9907.51 0 -2.09883e+06 14865.2 0 -2.09999e+06 19828.2 0 -2.10148e+06 24798.8 0 -2.1033e+06 29779.1 0 -2.10545e+06 34771.1 0 