<?xml version="1.0"?> 
<VTKFile type="StructuredGrid" version="0.1"> 
<StructuredGrid WholeExtent="0 63 0 63 0 0"> 
<Piece Extent="0 63 0 63 0 0"> 
<PointData>
<DataArray type="Float32" Name="|E|" format="ascii" NumberOfComponents="3"> 
-2.02428e+06 0 0 -2.02429e+06 2584.82 0 -2.02433e+06 5169.78 0 -2.02441e+06 7754.99 0 -2.02451e+06 10340.5 0 -2.02463e+06 12926.5 0 -2.02479e+06 15513 0 -2.02498e+06 18100.2 0 -2.02519e+06 20688.1 0 -2.02543e+06 23276.8 0 -2.02571e+06 25866.5 0 -2.02601e+06 28457.2 0 -2.02633e+06 31049.1 0 -2.02669e+06 33642.1 0 -2.02708e+06 36236.6 0 -2.02749e+06 38832.4 0 -2.02793e+06 41429.9 0 -2.0284e+06 44028.9 0 -2.0289e+06 46629.7 0 -2.02943e+06 49232.4 0 -2.02999e+06 51837 0 -2.03057e+06 54443.7 0 -2.03119e+06 57052.5 0 -2.03183e+06 59663.6 0 -2.0325e+06 62277 0 -2.0332e+06 64892.9 0 -2.03393e+06 67511.4 0 -2.03469e+06 70132.6 0 -2.03548e+06 72756.5 0 -2.03629e+06 75383.4 0 -2.03714e+06 78013.2 0 -2.03801e+06 80646.1 0 -2.03891e+06 83282.2 0 -2.03985e+06 85921.7 0 -2.04081e+06 88564.6 0 -2.04179e+06 91211 0 -2.04281e+06 93861 0 -2.04386e+06 96514.8 0 -2.04493e+06 99172.5 0 -2.04604e+06 101834 0 -2.04717e+06 104500 0 -2.04834e+06 107170 0 -2.04953e+06 109844 0 -2.05075e+06 112523 0 -2.052e+06 115206 0 -2.05328e+06 117894 0 -2.05459e+06 120586 0 -2.05593e+06 123284 0 -2.0573e+06 125986 0 -2.05869e+06 128694 0 -2.06012e+06 131406 0 -2.06157e+06 134124 0 -2.06306e+06 136848 0 -2.06457e+06 139577 0 -2.06612e+06 142312 0 -2.06769e+06 145053 0 -2.0693e+06 147801 0 -2.07093e+06 150554 0 -2.07259e+06 153314 0 -2.07429e+06 156080 0 -2.07601e+06 158853 0 -2.07776e+06 161632 0 -2.07954e+06 164417 0 -2.08136e+06 167209 0 -2.022e+06 0 0 -2.02202e+06 2827.31 0 -2.02207e+06 5654.79 0 -2.02215e+06 8482.57 0 -2.02227e+06 11310.8 0 -2.02242e+06 14139.5 0 -2.02261e+06 16968.9 0 -2.02282e+06 19799.1 0 -2.02307e+06 22630.2 0 -2.02336e+06 25462.4 0 -2.02367e+06 28295.7 0 -2.02403e+06 31130.3 0 -2.02441e+06 33966.4 0 -2.02483e+06 36803.9 0 -2.02528e+06 39643.2 0 -2.02576e+06 42484.2 0 -2.02628e+06 45327.2 0 -2.02683e+06 48172.2 0 -2.02742e+06 51019.4 0 -2.02804e+06 53868.9 0 -2.02869e+06 56720.8 0 -2.02937e+06 59575.3 0 -2.03009e+06 62432.4 0 -2.03085e+06 65292.4 0 -2.03163e+06 68155.3 0 -2.03245e+06 71021.3 0 -2.03331e+06 73890.5 0 -2.03419e+06 76763.1 0 -2.03512e+06 79639.1 0 -2.03607e+06 82518.8 0 -2.03706e+06 85402.1 0 -2.03808e+06 88289.4 0 -2.03914e+06 91180.6 0 -2.04023e+06 94076 0 -2.04135e+06 96975.7 0 -2.04251e+06 99879.7 0 -2.0437e+06 102788 0 -2.04493e+06 105702 0 -2.04619e+06 108620 0 -2.04748e+06 111543 0 -2.04881e+06 114471 0 -2.05017e+06 117405 0 -2.05157e+06 120344 0 -2.053e+06 123288 0 -2.05447e+06 126238 0 -2.05597e+06 129194 0 -2.0575e+06 132156 0 -2.05907e+06 135124 0 -2.06067e+06 138098 0 -2.06231e+06 141079 0 -2.06398e+06 144066 0 -2.06569e+06 147061 0 -2.06743e+06 150062 0 -2.06921e+06 153070 0 -2.07102e+06 156085 0 -2.07286e+06 159108 0 -2.07474e+06 162138 0 -2.07666e+06 165175 0 -2.07861e+06 168220 0 -2.0806e+06 171273 0 -2.08262e+06 174334 0 -2.08467e+06 177403 0 -2.08677e+06 180481 0 -2.08889e+06 183567 0 -2.01971e+06 0 0 -2.01973e+06 3073.85 0 -2.01979e+06 6147.9 0 -2.01988e+06 9222.31 0 -2.02002e+06 12297.2 0 -2.02019e+06 15372.8 0 -2.0204e+06 18449.3 0 -2.02066e+06 21526.7 0 -2.02095e+06 24605.2 0 -2.02127e+06 27685 0 -2.02164e+06 30766.3 0 -2.02205e+06 33849.1 0 -2.02249e+06 36933.8 0 -2.02297e+06 40020.3 0 -2.0235e+06 43108.8 0 -2.02406e+06 46199.6 0 -2.02466e+06 49292.8 0 -2.02529e+06 52388.5 0 -2.02597e+06 55486.9 0 -2.02669e+06 58588.2 0 -2.02744e+06 61692.4 0 -2.02823e+06 64799.9 0 -2.02906e+06 67910.6 0 -2.02994e+06 71024.9 0 -2.03085e+06 74142.8 0 -2.03179e+06 77264.5 0 -2.03278e+06 80390.2 0 -2.03381e+06 83520.1 0 -2.03487e+06 86654.2 0 -2.03598e+06 89792.9 0 -2.03712e+06 92936.1 0 -2.03831e+06 96084.2 0 -2.03953e+06 99237.3 0 -2.04079e+06 102395 0 -2.04209e+06 105559 0 -2.04343e+06 108728 0 -2.04481e+06 111903 0 -2.04623e+06 115083 0 -2.04769e+06 118270 0 -2.04919e+06 121462 0 -2.05073e+06 124661 0 -2.0523e+06 127867 0 -2.05392e+06 131079 0 -2.05558e+06 134299 0 -2.05728e+06 137525 0 -2.05901e+06 140759 0 -2.06079e+06 144000 0 -2.06261e+06 147249 0 -2.06446e+06 150505 0 -2.06636e+06 153770 0 -2.0683e+06 157043 0 -2.07027e+06 160324 0 -2.07229e+06 163614 0 -2.07435e+06 166912 0 -2.07645e+06 170220 0 -2.07859e+06 173537 0 -2.08077e+06 176863 0 -2.08299e+06 180198 0 -2.08525e+06 183544 0 -2.08755e+06 186900 0 -2.0899e+06 190267 0 -2.09228e+06 193644 0 -2.09471e+06 197032 0 -2.09717e+06 200433 0 -2.01739e+06 0 0 -2.01741e+06 3324.43 0 -2.01748e+06 6649.12 0 -2.01759e+06 9974.24 0 -2.01775e+06 13300 0 -2.01794e+06 16626.6 0 -2.01819e+06 19954.1 0 -2.01848e+06 23282.9 0 -2.01881e+06 26613 0 -2.01918e+06 29944.7 0 -2.0196e+06 33278.2 0 -2.02007e+06 36613.6 0 -2.02058e+06 39951.2 0 -2.02113e+06 43291.1 0 -2.02173e+06 46633.5 0 -2.02237e+06 49978.7 0 -2.02305e+06 53326.7 0 -2.02378e+06 56677.8 0 -2.02456e+06 60032.3 0 -2.02538e+06 63390.2 0 -2.02624e+06 66751.8 0 -2.02715e+06 70117.4 0 -2.0281e+06 73486.9 0 -2.0291e+06 76860.8 0 -2.03014e+06 80239.2 0 -2.03123e+06 83622.2 0 -2.03236e+06 87010.1 0 -2.03354e+06 90403.1 0 -2.03476e+06 93801.4 0 -2.03602e+06 97205.1 0 -2.03733e+06 100615 0 -2.03869e+06 104030 0 -2.04009e+06 107451 0 -2.04153e+06 110879 0 -2.04302e+06 114314 0 -2.04456e+06 117755 0 -2.04614e+06 121203 0 -2.04777e+06 124658 0 -2.04944e+06 128121 0 -2.05115e+06 131591 0 -2.05292e+06 135069 0 -2.05472e+06 138555 0 -2.05658e+06 142050 0 -2.05848e+06 145553 0 -2.06042e+06 149065 0 -2.06241e+06 152586 0 -2.06445e+06 156116 0 -2.06653e+06 159655 0 -2.06866e+06 163204 0 -2.07084e+06 166763 0 -2.07306e+06 170332 0 -2.07533e+06 173912 0 -2.07764e+06 177502 0 -2.08e+06 181103 0 -2.08241e+06 184716 0 -2.08486e+06 188340 0 -2.08736e+06 191976 0 -2.08991e+06 195624 0 -2.09251e+06 199284 0 -2.09515e+06 202957 0 -2.09784e+06 206643 0 -2.10057e+06 210341 0 -2.10336e+06 214052 0 -2.10619e+06 217777 0 -2.01505e+06 0 0 -2.01508e+06 3579.05 0 -2.01515e+06 7158.4 0 -2.01528e+06 10738.3 0 -2.01545e+06 14318.9 0 -2.01568e+06 17900.5 0 -2.01596e+06 21483.3 0 -2.01628e+06 25067.6 0 -2.01666e+06 28653.5 0 -2.01709e+06 32241.4 0 -2.01756e+06 35831.3 0 -2.01809e+06 39423.7 0 -2.01867e+06 43018.6 0 -2.01929e+06 46616.3 0 -2.01997e+06 50217.1 0 -2.0207e+06 53821.2 0 -2.02148e+06 57428.8 0 -2.02231e+06 61040.2 0 -2.02318e+06 64655.6 0 -2.02411e+06 68275.2 0 -2.02509e+06 71899.2 0 -2.02612e+06 75528 0 -2.02721e+06 79161.8 0 -2.02834e+06 82800.7 0 -2.02952e+06 86445.1 0 -2.03075e+06 90095.1 0 -2.03204e+06 93751.1 0 -2.03337e+06 97413.3 0 -2.03476e+06 101082 0 -2.03619e+06 104757 0 -2.03768e+06 108439 0 -2.03922e+06 112129 0 -2.04081e+06 115826 0 -2.04245e+06 119530 0 -2.04414e+06 123243 0 -2.04589e+06 126963 0 -2.04768e+06 130693 0 -2.04953e+06 134431 0 -2.05143e+06 138178 0 -2.05338e+06 141934 0 -2.05538e+06 145700 0 -2.05743e+06 149476 0 -2.05954e+06 153262 0 -2.0617e+06 157058 0 -2.0639e+06 160865 0 -2.06617e+06 164683 0 -2.06848e+06 168512 0 -2.07085e+06 172353 0 -2.07327e+06 176206 0 -2.07574e+06 180071 0 -2.07826e+06 183948 0 -2.08084e+06 187838 0 -2.08347e+06 191742 0 -2.08616e+06 195659 0 -2.0889e+06 199590 0 -2.09169e+06 203535 0 -2.09453e+06 207494 0 -2.09743e+06 211469 0 -2.10038e+06 215458 0 -2.10338e+06 219462 0 -2.10644e+06 223482 0 -2.10956e+06 227519 0 -2.11273e+06 231571 0 -2.11595e+06 235642 0 -2.01269e+06 0 0 -2.01272e+06 3837.67 0 -2.01281e+06 7675.7 0 -2.01295e+06 11514.4 0 -2.01314e+06 15353.9 0 -2.0134e+06 19194.6 0 -2.01371e+06 23036.8 0 -2.01408e+06 26880.7 0 -2.0145e+06 30726.6 0 -2.01498e+06 34574.8 0 -2.01552e+06 38425.6 0 -2.01611e+06 42279.1 0 -2.01676e+06 46135.8 0 -2.01747e+06 49995.9 0 -2.01823e+06 53859.6 0 -2.01905e+06 57727.3 0 -2.01992e+06 61599.2 0 -2.02086e+06 65475.6 0 -2.02185e+06 69356.8 0 -2.02289e+06 73243.1 0 -2.024e+06 77134.8 0 -2.02516e+06 81032.2 0 -2.02637e+06 84935.5 0 -2.02765e+06 88845 0 -2.02898e+06 92761.1 0 -2.03037e+06 96684.1 0 -2.03181e+06 100614 0 -2.03332e+06 104552 0 -2.03488e+06 108497 0 -2.0365e+06 112450 0 -2.03817e+06 116412 0 -2.0399e+06 120382 0 -2.0417e+06 124361 0 -2.04354e+06 128350 0 -2.04545e+06 132348 0 -2.04742e+06 136356 0 -2.04944e+06 140375 0 -2.05152e+06 144404 0 -2.05366e+06 148444 0 -2.05585e+06 152495 0 -2.05811e+06 156558 0 -2.06043e+06 160632 0 -2.0628e+06 164719 0 -2.06523e+06 168819 0 -2.06772e+06 172931 0 -2.07027e+06 177057 0 -2.07288e+06 181197 0 -2.07555e+06 185351 0 -2.07828e+06 189519 0 -2.08107e+06 193702 0 -2.08391e+06 197900 0 -2.08682e+06 202114 0 -2.08979e+06 206344 0 -2.09282e+06 210591 0 -2.09591e+06 214854 0 -2.09905e+06 219134 0 -2.10226e+06 223432 0 -2.10553e+06 227748 0 -2.10887e+06 232082 0 -2.11226e+06 236435 0 -2.11571e+06 240808 0 -2.11923e+06 245200 0 -2.12281e+06 249613 0 -2.12645e+06 254046 0 -2.01031e+06 0 0 -2.01034e+06 4100.29 0 -2.01044e+06 8201 0 -2.01059e+06 12302.4 0 -2.01082e+06 16405 0 -2.0111e+06 20508.9 0 -2.01145e+06 24614.5 0 -2.01186e+06 28722.2 0 -2.01233e+06 32832.2 0 -2.01287e+06 36945 0 -2.01347e+06 41060.7 0 -2.01413e+06 45179.9 0 -2.01486e+06 49302.7 0 -2.01565e+06 53429.6 0 -2.0165e+06 57560.8 0 -2.01741e+06 61696.8 0 -2.01839e+06 65837.7 0 -2.01944e+06 69984.1 0 -2.02054e+06 74136.1 0 -2.02171e+06 78294.3 0 -2.02295e+06 82458.8 0 -2.02424e+06 86630.1 0 -2.02561e+06 90808.4 0 -2.02703e+06 94994.2 0 -2.02852e+06 99187.9 0 -2.03007e+06 103390 0 -2.03169e+06 107600 0 -2.03337e+06 111819 0 -2.03512e+06 116048 0 -2.03693e+06 120286 0 -2.0388e+06 124534 0 -2.04074e+06 128792 0 -2.04274e+06 133061 0 -2.04481e+06 137341 0 -2.04694e+06 141633 0 -2.04914e+06 145937 0 -2.0514e+06 150253 0 -2.05373e+06 154581 0 -2.05613e+06 158923 0 -2.05859e+06 163278 0 -2.06111e+06 167647 0 -2.0637e+06 172031 0 -2.06636e+06 176429 0 -2.06908e+06 180842 0 -2.07187e+06 185271 0 -2.07472e+06 189717 0 -2.07765e+06 194178 0 -2.08063e+06 198657 0 -2.08369e+06 203153 0 -2.08681e+06 207667 0 -2.09e+06 212199 0 -2.09326e+06 216751 0 -2.09658e+06 221321 0 -2.09998e+06 225911 0 -2.10344e+06 230522 0 -2.10697e+06 235153 0 -2.11056e+06 239806 0 -2.11423e+06 244481 0 -2.11796e+06 249178 0 -2.12177e+06 253898 0 -2.12564e+06 258641 0 -2.12958e+06 263409 0 -2.13359e+06 268201 0 -2.13768e+06 273019 0 -2.00791e+06 0 0 -2.00794e+06 4366.88 0 -2.00805e+06 8734.24 0 -2.00822e+06 13102.5 0 -2.00847e+06 17472 0 -2.00878e+06 21843.1 0 -2.00917e+06 26216.2 0 -2.00963e+06 30591.8 0 -2.01015e+06 34970.1 0 -2.01075e+06 39351.7 0 -2.01141e+06 43736.8 0 -2.01215e+06 48125.9 0 -2.01296e+06 52519.3 0 -2.01383e+06 56917.5 0 -2.01478e+06 61320.8 0 -2.0158e+06 65729.7 0 -2.01689e+06 70144.5 0 -2.01805e+06 74565.7 0 -2.01928e+06 78993.6 0 -2.02058e+06 83428.7 0 -2.02195e+06 87871.3 0 -2.02339e+06 92322 0 -2.0249e+06 96781 0 -2.02648e+06 101249 0 -2.02814e+06 105726 0 -2.02987e+06 110213 0 -2.03166e+06 114709 0 -2.03353e+06 119217 0 -2.03547e+06 123735 0 -2.03748e+06 128265 0 -2.03957e+06 132806 0 -2.04172e+06 137360 0 -2.04395e+06 141926 0 -2.04625e+06 146506 0 -2.04862e+06 151100 0 -2.05106e+06 155707 0 -2.05358e+06 160329 0 -2.05617e+06 164966 0 -2.05883e+06 169619 0 -2.06157e+06 174288 0 -2.06438e+06 178974 0 -2.06726e+06 183676 0 -2.07021e+06 188396 0 -2.07324e+06 193135 0 -2.07635e+06 197892 0 -2.07952e+06 202668 0 -2.08277e+06 207464 0 -2.0861e+06 212280 0 -2.0895e+06 217117 0 -2.09298e+06 221976 0 -2.09653e+06 226856 0 -2.10015e+06 231759 0 -2.10385e+06 236685 0 -2.10763e+06 241635 0 -2.11149e+06 246609 0 -2.11542e+06 251609 0 -2.11942e+06 256634 0 -2.12351e+06 261685 0 -2.12767e+06 266764 0 -2.13191e+06 271870 0 -2.13622e+06 277005 0 -2.14062e+06 282168 0 -2.14509e+06 287362 0 -2.14964e+06 292586 0 -2.00548e+06 0 0 -2.00552e+06 4637.42 0 -2.00564e+06 9275.4 0 -2.00583e+06 13914.4 0 -2.0061e+06 18554.8 0 -2.00645e+06 23197.2 0 -2.00688e+06 27841.9 0 -2.00738e+06 32489.5 0 -2.00796e+06 37140.3 0 -2.00862e+06 41794.8 0 -2.00936e+06 46453.6 0 -2.01017e+06 51116.9 0 -2.01106e+06 55785.4 0 -2.01203e+06 60459.4 0 -2.01308e+06 65139.5 0 -2.0142e+06 69826 0 -2.0154e+06 74519.5 0 -2.01668e+06 79220.5 0 -2.01804e+06 83929.3 0 -2.01948e+06 88646.6 0 -2.02099e+06 93372.7 0 -2.02259e+06 98108.2 0 -2.02426e+06 102854 0 -2.02601e+06 107609 0 -2.02784e+06 112376 0 -2.02975e+06 117154 0 -2.03173e+06 121943 0 -2.0338e+06 126745 0 -2.03594e+06 131560 0 -2.03816e+06 136389 0 -2.04047e+06 141231 0 -2.04285e+06 146088 0 -2.04531e+06 150960 0 -2.04786e+06 155847 0 -2.05048e+06 160750 0 -2.05318e+06 165670 0 -2.05596e+06 170608 0 -2.05883e+06 175563 0 -2.06177e+06 180537 0 -2.0648e+06 185529 0 -2.0679e+06 190541 0 -2.07109e+06 195574 0 -2.07436e+06 200627 0 -2.07771e+06 205702 0 -2.08115e+06 210799 0 -2.08466e+06 215919 0 -2.08826e+06 221062 0 -2.09194e+06 226229 0 -2.09571e+06 231421 0 -2.09955e+06 236638 0 -2.10348e+06 241882 0 -2.1075e+06 247152 0 -2.1116e+06 252450 0 -2.11578e+06 257777 0 -2.12005e+06 263133 0 -2.1244e+06 268518 0 -2.12884e+06 273934 0 -2.13337e+06 279382 0 -2.13798e+06 284862 0 -2.14268e+06 290376 0 -2.14746e+06 295923 0 -2.15233e+06 301506 0 -2.15729e+06 307124 0 -2.16234e+06 312779 0 -2.00304e+06 0 0 -2.00308e+06 4911.9 0 -2.00321e+06 9824.44 0 -2.00342e+06 14738.2 0 -2.00372e+06 19653.6 0 -2.0041e+06 24571.2 0 -2.00457e+06 29491.5 0 -2.00512e+06 34415.2 0 -2.00576e+06 39342.6 0 -2.00649e+06 44274.3 0 -2.00729e+06 49210.9 0 -2.00819e+06 54152.9 0 -2.00917e+06 59100.9 0 -2.01023e+06 64055.3 0 -2.01138e+06 69016.7 0 -2.01262e+06 73985.6 0 -2.01394e+06 78962.7 0 -2.01535e+06 83948.4 0 -2.01684e+06 88943.4 0 -2.01842e+06 93948.1 0 -2.02009e+06 98963.1 0 -2.02184e+06 103989 0 -2.02368e+06 109026 0 -2.0256e+06 114076 0 -2.02761e+06 119138 0 -2.02971e+06 124213 0 -2.0319e+06 129303 0 -2.03417e+06 134406 0 -2.03653e+06 139525 0 -2.03897e+06 144659 0 -2.0415e+06 149810 0 -2.04413e+06 154978 0 -2.04683e+06 160163 0 -2.04963e+06 165366 0 -2.05252e+06 170588 0 -2.05549e+06 175830 0 -2.05855e+06 181092 0 -2.0617e+06 186375 0 -2.06494e+06 191679 0 -2.06827e+06 197006 0 -2.07169e+06 202356 0 -2.0752e+06 207730 0 -2.0788e+06 213128 0 -2.08249e+06 218551 0 -2.08627e+06 224001 0 -2.09014e+06 229477 0 -2.09411e+06 234981 0 -2.09816e+06 240514 0 -2.10231e+06 246075 0 -2.10654e+06 251667 0 -2.11087e+06 257290 0 -2.1153e+06 262944 0 -2.11981e+06 268632 0 -2.12442e+06 274353 0 -2.12913e+06 280108 0 -2.13393e+06 285899 0 -2.13882e+06 291727 0 -2.14381e+06 297592 0 -2.14889e+06 303496 0 -2.15407e+06 309439 0 -2.15935e+06 315423 0 -2.16472e+06 321449 0 -2.17019e+06 327517 0 -2.17576e+06 333630 0 -2.00057e+06 0 0 -2.00061e+06 5190.29 0 -2.00076e+06 10381.3 0 -2.00099e+06 15573.7 0 -2.00131e+06 20768 0 -2.00173e+06 25964.9 0 -2.00225e+06 31164.9 0 -2.00285e+06 36368.7 0 -2.00355e+06 41576.9 0 -2.00434e+06 46790 0 -2.00523e+06 52008.8 0 -2.00621e+06 57233.8 0 -2.00728e+06 62465.7 0 -2.00844e+06 67705 0 -2.0097e+06 72952.4 0 -2.01106e+06 78208.6 0 -2.0125e+06 83474.1 0 -2.01404e+06 88749.6 0 -2.01568e+06 94035.8 0 -2.01741e+06 99333.3 0 -2.01923e+06 104643 0 -2.02115e+06 109965 0 -2.02316e+06 115300 0 -2.02526e+06 120650 0 -2.02747e+06 126014 0 -2.02976e+06 131393 0 -2.03215e+06 136788 0 -2.03464e+06 142200 0 -2.03722e+06 147630 0 -2.0399e+06 153078 0 -2.04267e+06 158545 0 -2.04554e+06 164031 0 -2.04851e+06 169538 0 -2.05157e+06 175066 0 -2.05473e+06 180616 0 -2.05799e+06 186189 0 -2.06134e+06 191785 0 -2.0648e+06 197406 0 -2.06835e+06 203052 0 -2.07199e+06 208724 0 -2.07574e+06 214423 0 -2.07959e+06 220150 0 -2.08353e+06 225905 0 -2.08757e+06 231690 0 -2.09172e+06 237505 0 -2.09596e+06 243352 0 -2.1003e+06 249232 0 -2.10475e+06 255144 0 -2.10929e+06 261091 0 -2.11394e+06 267074 0 -2.11869e+06 273093 0 -2.12354e+06 279149 0 -2.1285e+06 285244 0 -2.13355e+06 291379 0 -2.13871e+06 297554 0 -2.14398e+06 303772 0 -2.14935e+06 310033 0 -2.15482e+06 316338 0 -2.1604e+06 322689 0 -2.16609e+06 329086 0 -2.17188e+06 335532 0 -2.17778e+06 342028 0 -2.18379e+06 348575 0 -2.1899e+06 355175 0 -1.99808e+06 0 0 -1.99813e+06 5472.57 0 -1.99828e+06 10946 0 -1.99854e+06 16420.9 0 -1.99889e+06 21898.1 0 -1.99935e+06 27378.2 0 -1.99991e+06 32861.9 0 -2.00057e+06 38350 0 -2.00133e+06 43843 0 -2.00219e+06 49341.8 0 -2.00316e+06 54847 0 -2.00422e+06 60359.4 0 -2.00539e+06 65879.6 0 -2.00666e+06 71408.5 0 -2.00803e+06 76946.6 0 -2.00951e+06 82494.7 0 -2.01108e+06 88053.6 0 -2.01276e+06 93624.1 0 -2.01454e+06 99206.8 0 -2.01643e+06 104802 0 -2.01841e+06 110412 0 -2.0205e+06 116036 0 -2.0227e+06 121675 0 -2.02499e+06 127331 0 -2.02739e+06 133003 0 -2.0299e+06 138693 0 -2.0325e+06 144401 0 -2.03521e+06 150129 0 -2.03803e+06 155877 0 -2.04095e+06 161646 0 -2.04397e+06 167437 0 -2.0471e+06 173250 0 -2.05034e+06 179088 0 -2.05368e+06 184949 0 -2.05713e+06 190836 0 -2.06068e+06 196750 0 -2.06434e+06 202691 0 -2.0681e+06 208660 0 -2.07198e+06 214658 0 -2.07596e+06 220687 0 -2.08004e+06 226747 0 -2.08424e+06 232839 0 -2.08854e+06 238965 0 -2.09296e+06 245125 0 -2.09748e+06 251320 0 -2.10211e+06 257552 0 -2.10685e+06 263822 0 -2.11171e+06 270131 0 -2.11667e+06 276480 0 -2.12174e+06 282871 0 -2.12693e+06 289304 0 -2.13223e+06 295781 0 -2.13764e+06 302304 0 -2.14316e+06 308873 0 -2.1488e+06 315490 0 -2.15456e+06 322156 0 -2.16042e+06 328873 0 -2.16641e+06 335643 0 -2.17251e+06 342467 0 -2.17872e+06 349346 0 -2.18506e+06 356282 0 -2.19151e+06 363277 0 -2.19808e+06 370332 0 -2.20477e+06 377451 0 -1.99557e+06 0 0 -1.99562e+06 5758.74 0 -1.99579e+06 11518.4 0 -1.99607e+06 17279.8 0 -1.99645e+06 23043.8 0 -1.99695e+06 28811.1 0 -1.99755e+06 34582.5 0 -1.99827e+06 40358.9 0 -1.9991e+06 46141 0 -2.00003e+06 51929.6 0 -2.00108e+06 57725.5 0 -2.00224e+06 63529.6 0 -2.00351e+06 69342.7 0 -2.00489e+06 75165.6 0 -2.00637e+06 80999.1 0 -2.00798e+06 86844.1 0 -2.00969e+06 92701.4 0 -2.01151e+06 98571.9 0 -2.01344e+06 104456 0 -2.01549e+06 110356 0 -2.01765e+06 116271 0 -2.01991e+06 122203 0 -2.0223e+06 128152 0 -2.02479e+06 134119 0 -2.02739e+06 140107 0 -2.03011e+06 146114 0 -2.03294e+06 152142 0 -2.03589e+06 158193 0 -2.03895e+06 164267 0 -2.04212e+06 170365 0 -2.0454e+06 176488 0 -2.0488e+06 182638 0 -2.05232e+06 188814 0 -2.05595e+06 195019 0 -2.05969e+06 201253 0 -2.06355e+06 207517 0 -2.06753e+06 213813 0 -2.07162e+06 220142 0 -2.07583e+06 226504 0 -2.08016e+06 232901 0 -2.0846e+06 239334 0 -2.08916e+06 245805 0 -2.09384e+06 252314 0 -2.09864e+06 258864 0 -2.10356e+06 265454 0 -2.10859e+06 272087 0 -2.11375e+06 278764 0 -2.11903e+06 285486 0 -2.12443e+06 292255 0 -2.12995e+06 299072 0 -2.13559e+06 305939 0 -2.14135e+06 312857 0 -2.14724e+06 319828 0 -2.15326e+06 326853 0 -2.15939e+06 333935 0 -2.16566e+06 341074 0 -2.17204e+06 348273 0 -2.17856e+06 355534 0 -2.1852e+06 362858 0 -2.19197e+06 370247 0 -2.19887e+06 377704 0 -2.2059e+06 385230 0 -2.21306e+06 392827 0 -2.22035e+06 400500 0 -1.99304e+06 0 0 -1.9931e+06 6048.75 0 -1.99328e+06 12098.6 0 -1.99358e+06 18150.4 0 -1.99399e+06 24205 0 -1.99453e+06 30263.5 0 -1.99519e+06 36326.6 0 -1.99596e+06 42395.3 0 -1.99685e+06 48470.5 0 -1.99787e+06 54553.1 0 -1.999e+06 60644.1 0 -2.00025e+06 66744.4 0 -2.00162e+06 72854.8 0 -2.00312e+06 78976.4 0 -2.00473e+06 85110 0 -2.00646e+06 91256.7 0 -2.00831e+06 97417.4 0 -2.01028e+06 103593 0 -2.01237e+06 109785 0 -2.01459e+06 115993 0 -2.01692e+06 122220 0 -2.01938e+06 128465 0 -2.02195e+06 134730 0 -2.02465e+06 141017 0 -2.02747e+06 147325 0 -2.03041e+06 153657 0 -2.03348e+06 160013 0 -2.03666e+06 166394 0 -2.03997e+06 172802 0 -2.04341e+06 179237 0 -2.04696e+06 185701 0 -2.05064e+06 192195 0 -2.05445e+06 198720 0 -2.05838e+06 205277 0 -2.06243e+06 211868 0 -2.06661e+06 218494 0 -2.07092e+06 225155 0 -2.07535e+06 231855 0 -2.07991e+06 238593 0 -2.08459e+06 245371 0 -2.08941e+06 252191 0 -2.09435e+06 259054 0 -2.09942e+06 265961 0 -2.10462e+06 272915 0 -2.10994e+06 279916 0 -2.1154e+06 286966 0 -2.12099e+06 294067 0 -2.12671e+06 301220 0 -2.13256e+06 308427 0 -2.13855e+06 315691 0 -2.14466e+06 323012 0 -2.15092e+06 330392 0 -2.1573e+06 337834 0 -2.16382e+06 345340 0 -2.17048e+06 352911 0 -2.17727e+06 360549 0 -2.1842e+06 368258 0 -2.19127e+06 376038 0 -2.19848e+06 383893 0 -2.20583e+06 391824 0 -2.21332e+06 399834 0 -2.22095e+06 407926 0 -2.22873e+06 416102 0 -2.23665e+06 424366 0 -1.99049e+06 0 0 -1.99055e+06 6342.61 0 -1.99074e+06 12686.4 0 -1.99107e+06 19032.4 0 -1.99152e+06 25381.7 0 -1.99209e+06 31735.2 0 -1.9928e+06 38094 0 -1.99364e+06 44459.1 0 -1.9946e+06 50831.6 0 -1.99569e+06 57212.4 0 -1.99691e+06 63602.7 0 -1.99826e+06 70003.4 0 -1.99974e+06 76415.7 0 -2.00135e+06 82840.6 0 -2.00309e+06 89279.1 0 -2.00496e+06 95732.4 0 -2.00695e+06 102202 0 -2.00908e+06 108688 0 -2.01134e+06 115192 0 -2.01372e+06 121715 0 -2.01624e+06 128259 0 -2.01889e+06 134824 0 -2.02167e+06 141412 0 -2.02458e+06 148023 0 -2.02762e+06 154660 0 -2.03079e+06 161323 0 -2.0341e+06 168013 0 -2.03754e+06 174733 0 -2.04111e+06 181482 0 -2.04481e+06 188263 0 -2.04865e+06 195076 0 -2.05262e+06 201924 0 -2.05673e+06 208807 0 -2.06097e+06 215727 0 -2.06534e+06 222685 0 -2.06985e+06 229683 0 -2.0745e+06 236722 0 -2.07928e+06 243804 0 -2.0842e+06 250931 0 -2.08926e+06 258103 0 -2.09446e+06 265323 0 -2.09979e+06 272593 0 -2.10527e+06 279913 0 -2.11088e+06 287286 0 -2.11664e+06 294714 0 -2.12253e+06 302199 0 -2.12857e+06 309742 0 -2.13475e+06 317345 0 -2.14107e+06 325011 0 -2.14754e+06 332742 0 -2.15415e+06 340539 0 -2.16091e+06 348405 0 -2.16781e+06 356343 0 -2.17486e+06 364354 0 -2.18206e+06 372441 0 -2.1894e+06 380607 0 -2.1969e+06 388854 0 -2.20454e+06 397185 0 -2.21234e+06 405603 0 -2.22029e+06 414110 0 -2.2284e+06 422711 0 -2.23666e+06 431407 0 -2.24508e+06 440201 0 -2.25365e+06 449100 0 -1.98791e+06 0 0 -1.98798e+06 6640.27 0 -1.98819e+06 13281.9 0 -1.98854e+06 19926 0 -1.98902e+06 26573.7 0 -1.98964e+06 33226.3 0 -1.9904e+06 39884.7 0 -1.9913e+06 46550.3 0 -1.99234e+06 53224.1 0 -1.99351e+06 59907.3 0 -1.99482e+06 66601.2 0 -1.99627e+06 73306.8 0 -1.99786e+06 80025.4 0 -1.99959e+06 86758.2 0 -2.00146e+06 93506.4 0 -2.00347e+06 100271 0 -2.00562e+06 107054 0 -2.0079e+06 113856 0 -2.01033e+06 120678 0 -2.01289e+06 127522 0 -2.0156e+06 134388 0 -2.01845e+06 141279 0 -2.02144e+06 148196 0 -2.02457e+06 155139 0 -2.02784e+06 162111 0 -2.03125e+06 169113 0 -2.03481e+06 176145 0 -2.0385e+06 183211 0 -2.04234e+06 190310 0 -2.04633e+06 197445 0 -2.05046e+06 204617 0 -2.05473e+06 211827 0 -2.05915e+06 219078 0 -2.06371e+06 226371 0 -2.06842e+06 233707 0 -2.07327e+06 241089 0 -2.07827e+06 248517 0 -2.08342e+06 255994 0 -2.08872e+06 263522 0 -2.09416e+06 271103 0 -2.09976e+06 278737 0 -2.1055e+06 286428 0 -2.11139e+06 294178 0 -2.11744e+06 301987 0 -2.12364e+06 309860 0 -2.12998e+06 317797 0 -2.13649e+06 325802 0 -2.14314e+06 333876 0 -2.14995e+06 342021 0 -2.15692e+06 350241 0 -2.16404e+06 358538 0 -2.17132e+06 366915 0 -2.17876e+06 375374 0 -2.18636e+06 383918 0 -2.19412e+06 392550 0 -2.20204e+06 401274 0 -2.21012e+06 410092 0 -2.21837e+06 419007 0 -2.22678e+06 428024 0 -2.23535e+06 437146 0 -2.2441e+06 446375 0 -2.25301e+06 455718 0 -2.26209e+06 465176 0 -2.27135e+06 474756 0 -1.98532e+06 0 0 -1.98539e+06 6941.74 0 -1.98562e+06 13885 0 -1.98599e+06 20831 0 -1.98651e+06 27781.1 0 -1.98717e+06 34736.5 0 -1.98799e+06 41698.6 0 -1.98895e+06 48668.6 0 -1.99006e+06 55647.8 0 -1.99132e+06 62637.7 0 -1.99273e+06 69639.4 0 -1.99428e+06 76654.3 0 -1.99599e+06 83683.8 0 -1.99784e+06 90729.1 0 -1.99984e+06 97791.8 0 -2.002e+06 104873 0 -2.0043e+06 111974 0 -2.00675e+06 119097 0 -2.00935e+06 126243 0 -2.0121e+06 133413 0 -2.015e+06 140608 0 -2.01806e+06 147832 0 -2.02126e+06 155083 0 -2.02462e+06 162365 0 -2.02813e+06 169679 0 -2.03179e+06 177027 0 -2.0356e+06 184409 0 -2.03957e+06 191829 0 -2.04369e+06 199286 0 -2.04796e+06 206784 0 -2.05239e+06 214324 0 -2.05697e+06 221907 0 -2.06171e+06 229536 0 -2.06661e+06 237213 0 -2.07166e+06 244938 0 -2.07687e+06 252715 0 -2.08224e+06 260545 0 -2.08776e+06 268430 0 -2.09345e+06 276373 0 -2.09929e+06 284375 0 -2.1053e+06 292440 0 -2.11146e+06 300568 0 -2.11779e+06 308763 0 -2.12428e+06 317027 0 -2.13093e+06 325362 0 -2.13775e+06 333772 0 -2.14473e+06 342258 0 -2.15188e+06 350824 0 -2.1592e+06 359472 0 -2.16668e+06 368205 0 -2.17434e+06 377027 0 -2.18216e+06 385941 0 -2.19015e+06 394949 0 -2.19832e+06 404056 0 -2.20666e+06 413265 0 -2.21517e+06 422579 0 -2.22386e+06 432003 0 -2.23273e+06 441540 0 -2.24178e+06 451194 0 -2.251e+06 460971 0 -2.26041e+06 470874 0 -2.27e+06 480909 0 -2.27978e+06 491080 0 -2.28974e+06 501393 0 -1.9827e+06 0 0 -1.98279e+06 7246.98 0 -1.98302e+06 14495.6 0 -1.98342e+06 21747.3 0 -1.98397e+06 29003.6 0 -1.98469e+06 36265.8 0 -1.98556e+06 43535.5 0 -1.98659e+06 50813.9 0 -1.98777e+06 58102.8 0 -1.98912e+06 65403.4 0 -1.99062e+06 72717.2 0 -1.99229e+06 80045.8 0 -1.99411e+06 87390.7 0 -1.99609e+06 94753.3 0 -1.99823e+06 102135 0 -2.00054e+06 109538 0 -2.003e+06 116963 0 -2.00562e+06 124412 0 -2.0084e+06 131887 0 -2.01134e+06 139389 0 -2.01445e+06 146920 0 -2.01771e+06 154481 0 -2.02114e+06 162075 0 -2.02473e+06 169702 0 -2.02848e+06 177366 0 -2.0324e+06 185067 0 -2.03648e+06 192807 0 -2.04072e+06 200588 0 -2.04513e+06 208413 0 -2.0497e+06 216283 0 -2.05444e+06 224200 0 -2.05935e+06 232166 0 -2.06442e+06 240184 0 -2.06966e+06 248254 0 -2.07507e+06 256381 0 -2.08064e+06 264565 0 -2.08639e+06 272810 0 -2.0923e+06 281117 0 -2.09838e+06 289488 0 -2.10464e+06 297928 0 -2.11107e+06 306438 0 -2.11767e+06 315020 0 -2.12445e+06 323678 0 -2.1314e+06 332414 0 -2.13852e+06 341232 0 -2.14583e+06 350134 0 -2.15331e+06 359124 0 -2.16097e+06 368204 0 -2.1688e+06 377379 0 -2.17682e+06 386651 0 -2.18502e+06 396025 0 -2.19341e+06 405504 0 -2.20198e+06 415092 0 -2.21073e+06 424794 0 -2.21967e+06 434612 0 -2.2288e+06 444553 0 -2.23812e+06 454620 0 -2.24763e+06 464819 0 -2.25733e+06 475155 0 -2.26723e+06 485632 0 -2.27733e+06 496257 0 -2.28762e+06 507036 0 -2.29811e+06 517974 0 -2.30881e+06 529080 0 -1.98007e+06 0 0 -1.98015e+06 7555.98 0 -1.98041e+06 15113.8 0 -1.98083e+06 22675 0 -1.98142e+06 30241.3 0 -1.98218e+06 37814.2 0 -1.98311e+06 45395.3 0 -1.98421e+06 52986.3 0 -1.98548e+06 60588.7 0 -1.98691e+06 68204.2 0 -1.98852e+06 75834.5 0 -1.99029e+06 83481.2 0 -1.99224e+06 91146 0 -1.99435e+06 98830.6 0 -1.99664e+06 106537 0 -1.99909e+06 114266 0 -2.00172e+06 122020 0 -2.00451e+06 129801 0 -2.00748e+06 137610 0 -2.01062e+06 145450 0 -2.01393e+06 153322 0 -2.01742e+06 161228 0 -2.02107e+06 169170 0 -2.02491e+06 177151 0 -2.02891e+06 185171 0 -2.03309e+06 193233 0 -2.03744e+06 201339 0 -2.04197e+06 209491 0 -2.04668e+06 217692 0 -2.05156e+06 225943 0 -2.05662e+06 234247 0 -2.06185e+06 242606 0 -2.06727e+06 251023 0 -2.07286e+06 259500 0 -2.07863e+06 268039 0 -2.08458e+06 276644 0 -2.09072e+06 285316 0 -2.09703e+06 294058 0 -2.10353e+06 302874 0 -2.11021e+06 311767 0 -2.11708e+06 320738 0 -2.12413e+06 329792 0 -2.13137e+06 338931 0 -2.13879e+06 348160 0 -2.14641e+06 357480 0 -2.15421e+06 366897 0 -2.1622e+06 376413 0 -2.17039e+06 386033 0 -2.17876e+06 395760 0 -2.18733e+06 405598 0 -2.1961e+06 415553 0 -2.20506e+06 425628 0 -2.21422e+06 435828 0 -2.22358e+06 446159 0 -2.23315e+06 456624 0 -2.24291e+06 467230 0 -2.25288e+06 477983 0 -2.26305e+06 488888 0 -2.27344e+06 499951 0 -2.28403e+06 511180 0 -2.29483e+06 522580 0 -2.30585e+06 534160 0 -2.31709e+06 545926 0 -2.32854e+06 557889 0 -1.97741e+06 0 0 -1.9775e+06 7868.71 0 -1.97777e+06 15739.4 0 -1.97822e+06 23614 0 -1.97885e+06 31494 0 -1.97966e+06 39381.4 0 -1.98065e+06 47278 0 -1.98182e+06 55185.4 0 -1.98317e+06 63105.5 0 -1.9847e+06 71040.2 0 -1.9864e+06 78991.2 0 -1.98829e+06 86960.4 0 -1.99036e+06 94949.7 0 -1.99261e+06 102961 0 -1.99504e+06 110996 0 -1.99766e+06 119057 0 -2.00045e+06 127145 0 -2.00343e+06 135263 0 -2.00659e+06 143413 0 -2.00993e+06 151597 0 -2.01346e+06 159816 0 -2.01717e+06 168074 0 -2.02106e+06 176371 0 -2.02514e+06 184711 0 -2.0294e+06 193095 0 -2.03385e+06 201526 0 -2.03849e+06 210006 0 -2.04331e+06 218538 0 -2.04832e+06 227124 0 -2.05352e+06 235766 0 -2.05891e+06 244467 0 -2.06448e+06 253230 0 -2.07025e+06 262058 0 -2.0762e+06 270952 0 -2.08235e+06 279917 0 -2.08869e+06 288955 0 -2.09523e+06 298068 0 -2.10196e+06 307261 0 -2.10888e+06 316537 0 -2.116e+06 325898 0 -2.12332e+06 335349 0 -2.13083e+06 344893 0 -2.13855e+06 354533 0 -2.14646e+06 364274 0 -2.15457e+06 374119 0 -2.16289e+06 384073 0 -2.17141e+06 394140 0 -2.18014e+06 404325 0 -2.18907e+06 414631 0 -2.19821e+06 425066 0 -2.20756e+06 435632 0 -2.21712e+06 446336 0 -2.22689e+06 457184 0 -2.23687e+06 468181 0 -2.24708e+06 479333 0 -2.25749e+06 490648 0 -2.26813e+06 502131 0 -2.27899e+06 513790 0 -2.29007e+06 525633 0 -2.30138e+06 537668 0 -2.31292e+06 549904 0 -2.32469e+06 562348 0 -2.33669e+06 575012 0 -2.34893e+06 587907 0 -1.97474e+06 0 0 -1.97483e+06 8185.15 0 -1.97512e+06 16372.5 0 -1.9756e+06 24564.1 0 -1.97627e+06 32761.8 0 -1.97713e+06 40967.5 0 -1.97818e+06 49183.4 0 -1.97942e+06 57411.2 0 -1.98085e+06 65653.1 0 -1.98247e+06 73911.1 0 -1.98428e+06 82187.1 0 -1.98629e+06 90483.2 0 -1.98849e+06 98801.5 0 -1.99088e+06 107144 0 -1.99346e+06 115513 0 -1.99624e+06 123910 0 -1.99921e+06 132338 0 -2.00237e+06 140799 0 -2.00572e+06 149295 0 -2.00928e+06 157829 0 -2.01302e+06 166402 0 -2.01696e+06 175017 0 -2.0211e+06 183677 0 -2.02543e+06 192384 0 -2.02996e+06 201140 0 -2.03469e+06 209948 0 -2.03961e+06 218810 0 -2.04474e+06 227730 0 -2.05006e+06 236711 0 -2.05559e+06 245754 0 -2.06131e+06 254862 0 -2.06724e+06 264040 0 -2.07336e+06 273290 0 -2.0797e+06 282614 0 -2.08623e+06 292017 0 -2.09297e+06 301502 0 -2.09992e+06 311072 0 -2.10707e+06 320731 0 -2.11443e+06 330482 0 -2.122e+06 340330 0 -2.12978e+06 350278 0 -2.13777e+06 360330 0 -2.14598e+06 370492 0 -2.15439e+06 380767 0 -2.16302e+06 391160 0 -2.17187e+06 401676 0 -2.18093e+06 412320 0 -2.19021e+06 423097 0 -2.19972e+06 434013 0 -2.20944e+06 445074 0 -2.21939e+06 456286 0 -2.22956e+06 467655 0 -2.23996e+06 479188 0 -2.25059e+06 490892 0 -2.26145e+06 502775 0 -2.27254e+06 514844 0 -2.28387e+06 527108 0 -2.29543e+06 539576 0 -2.30723e+06 552256 0 -2.31928e+06 565159 0 -2.33157e+06 578296 0 -2.34411e+06 591678 0 -2.3569e+06 605316 0 -2.36994e+06 619226 0 -1.97204e+06 0 0 -1.97214e+06 8505.3 0 -1.97245e+06 17013 0 -1.97295e+06 25525.3 0 -1.97366e+