<?xml version="1.0"?> 
<VTKFile type="StructuredGrid" version="0.1"> 
<StructuredGrid WholeExtent="0 63 0 63 0 0"> 
<Piece Extent="0 63 0 63 0 0"> 
<PointData>
<DataArray type="Float32" Name="|E|" format="ascii" NumberOfComponents="3"> 
1.67355e+06 -667541 0 1.73961e+06 -581731 0 1.81271e+06 -489131 0 1.8727e+06 -397419 0 1.91808e+06 -306193 0 1.94677e+06 -217762 0 1.95948e+06 -134401 0 1.95774e+06 -58097.2 0 1.94381e+06 9900.02 0 1.92002e+06 69065.9 0 1.88857e+06 119467 0 1.85135e+06 161569 0 1.80995e+06 196074 0 1.76563e+06 223788 0 1.7194e+06 245541 0 1.67204e+06 262130 0 1.62415e+06 274293 0 1.5762e+06 282695 0 1.52854e+06 287923 0 1.48146e+06 290490 0 1.43515e+06 290840 0 1.38979e+06 289353 0 1.34548e+06 286354 0 1.30232e+06 282120 0 1.26038e+06 276883 0 1.21969e+06 270842 0 1.18029e+06 264162 0 1.14221e+06 256983 0 1.10544e+06 249422 0 1.07e+06 241577 0 1.03587e+06 233529 0 1.00306e+06 225346 0 971540 217082 0 941304 208785 0 912332 200490 0 884603 192230 0 858099 184027 0 832796 175902 0 808672 167869 0 785705 159939 0 763872 152121 0 743151 144420 0 723520 136840 0 704957 129383 0 687442 122047 0 670952 114833 0 655470 107737 0 640976 100757 0 627452 93887.3 0 614882 87124.2 0 603248 80461.9 0 592538 73894.7 0 582735 67416.3 0 573828 61020.2 0 565805 54699.6 0 558654 48447.3 0 552367 42256.3 0 546935 36119.1 0 542349 30028.1 0 538605 23975.9 0 535697 17954.8 0 533621 11956.9 0 532374 5974.58 0 531954 0 0 1.68352e+06 -671515 0 1.75209e+06 -585274 0 1.82443e+06 -492247 0 1.88399e+06 -399180 0 1.92853e+06 -306468 0 1.9562e+06 -216584 0 1.9677e+06 -131964 0 1.9647e+06 -54653.1 0 1.94951e+06 14094.1 0 1.92453e+06 73782.5 0 1.89201e+06 124520 0 1.85385e+06 166816 0 1.81164e+06 201407 0 1.76664e+06 229132 0 1.71984e+06 250840 0 1.672e+06 267347 0 1.62373e+06 279404 0 1.57547e+06 287682 0 1.52757e+06 292775 0 1.48029e+06 295202 0 1.43384e+06 295407 0 1.38836e+06 293775 0 1.34397e+06 290630 0 1.30076e+06 286250 0 1.25878e+06 280869 0 1.21808e+06 274686 0 1.17869e+06 267866 0 1.14061e+06 260550 0 1.10387e+06 252855 0 1.06845e+06 244877 0 1.03436e+06 236699 0 1.00158e+06 228388 0 970102 219999 0 939908 211580 0 910979 203166 0 883296 194788 0 856836 186471 0 831577 178233 0 807497 170090 0 784574 162053 0 762783 154129 0 742103 146325 0 722511 138644 0 703986 131087 0 686506 123655 0 670051 116345 0 654602 109156 0 640138 102083 0 626643 95123.1 0 614100 88270.9 0 602492 81521 0 591804 74867.4 0 582023 68303.8 0 573136 61823.5 0 565130 55419.7 0 557995 49085.2 0 551722 42812.7 0 546301 36594.7 0 541726 30423.6 0 537990 24291.7 0 535089 18191.3 0 533017 12114.4 0 531773 6053.28 0 531354 0 0 1.69386e+06 -675640 0 1.7645e+06 -588877 0 1.83628e+06 -495271 0 1.8954e+06 -400822 0 1.93911e+06 -306594 0 1.96572e+06 -215240 0 1.97599e+06 -129358 0 1.97169e+06 -51047.3 0 1.95522e+06 18436.1 0 1.92905e+06 78629.7 0 1.89544e+06 129686 0 1.85634e+06 172157 0 1.81331e+06 206820 0 1.76763e+06 234540 0 1.72025e+06 256192 0 1.67195e+06 272608 0 1.62329e+06 284548 0 1.57472e+06 292695 0 1.52657e+06 297649 0 1.4791e+06 299929 0 1.4325e+06 299986 0 1.38691e+06 298204 0 1.34245e+06 294911 0 1.29918e+06 290383 0 1.25718e+06 284857 0 1.21646e+06 278530 0 1.17706e+06 271570 0 1.139e+06 264115 0 1.10228e+06 256283 0 1.06689e+06 248173 0 1.03283e+06 239864 0 1.00009e+06 231425 0 968651 222912 0 938500 214370 0 909615 205836 0 881976 197341 0 855561 188910 0 830347 180560 0 806312 172307 0 783432 164162 0 761683 156133 0 741044 148226 0 721492 140444 0 703005 132788 0 685561 125259 0 669141 117854 0 653724 110571 0 639291 103406 0 625826 96356 0 613309 89415 0 601726 82577.6 0 591062 75837.8 0 581303 69189.1 0 572435 62625 0 564446 56138.2 0 557327 49721.7 0 551068 43367.9 0 545659 37069.3 0 541095 30818.2 0 537367 24606.8 0 534472 18427.2 0 532405 12271.5 0 531164 6131.8 0 530746 0 0 1.70452e+06 -679891 0 1.77688e+06 -592526 0 1.84826e+06 -498206 0 1.90694e+06 -402346 0 1.94981e+06 -306568 0 1.97535e+06 -213729 0 1.98436e+06 -126581 0 1.97873e+06 -47277.5 0 1.96096e+06 22927.6 0 1.93357e+06 83608.5 0 1.89887e+06 134965 0 1.85881e+06 177595 0 1.81497e+06 212312 0 1.76859e+06 240014 0 1.72064e+06 261598 0 1.67186e+06 277911 0 1.62282e+06 289727 0 1.57394e+06 297736 0 1.52555e+06 302542 0 1.47789e+06 304672 0 1.43114e+06 304577 0 1.38545e+06 302642 0 1.34091e+06 299197 0 1.29759e+06 294519 0 1.25555e+06 288846 0 1.21482e+06 282374 0 1.17543e+06 275271 0 1.13738e+06 267677 0 1.10067e+06 259709 0 1.06531e+06 251464 0 1.03129e+06 243025 0 998584 234458 0 967188 225820 0 937079 217155 0 908239 208502 0 880645 199890 0 854275 191343 0 829107 182881 0 805116 174519 0 782279 166267 0 760573 158133 0 739975 150123 0 720462 142240 0 702013 134485 0 684606 126859 0 668221 119359 0 652836 111982 0 638435 104726 0 624998 97586 0 612509 90556.3 0 600952 83631.7 0 590311 76805.9 0 580573 70072.5 0 571725 63424.5 0 563754 56855 0 556651 50356.6 0 550406 43921.7 0 545009 37542.7 0 540455 31211.8 0 536736 24921.1 0 533847 18662.6 0 531785 12428.3 0 530546 6210.14 0 530129 0 0 1.71544e+06 -684249 0 1.78927e+06 -596212 0 1.86038e+06 -501059 0 1.91861e+06 -403748 0 1.96065e+06 -306386 0 1.98509e+06 -212046 0 1.9928e+06 -123628 0 1.98581e+06 -43341.2 0 1.96671e+06 27570.2 0 1.93809e+06 88720 0 1.90229e+06 140357 0 1.86126e+06 183127 0 1.8166e+06 217883 0 1.76953e+06 245553 0 1.72101e+06 267056 0 1.67176e+06 283256 0 1.62233e+06 294939 0 1.57314e+06 302802 0 1.52451e+06 307457 0 1.47666e+06 309431 0 1.42977e+06 309178 0 1.38397e+06 307088 0 1.33935e+06 303488 0 1.29598e+06 298659 0 1.25391e+06 292835 0 1.21317e+06 286217 0 1.17378e+06 278971 0 1.13574e+06 271236 0 1.09905e+06 263131 0 1.06372e+06 254752 0 1.02973e+06 246182 0 997067 237487 0 965712 228723 0 935647 219936 0 906851 211162 0 879303 202433 0 852978 193772 0 827855 185198 0 803908 176726 0 781115 168367 0 759452 160128 0 738896 152015 0 719423 144032 0 701012 136178 0 683642 128455 0 667291 120860 0 651940 113391 0 637570 106043 0 624162 98813.1 0 611701 91695 0 600169 84683.3 0 589551 77771.7 0 579835 70953.7 0 571006 64222.2 0 563054 57570.2 0 555967 50990 0 549735 44474.3 0 544351 38015.1 0 539806 31604.5 0 536096 25234.7 0 533214 18897.4 0 531156 12584.7 0 529920 6288.28 0 529504 0 0 1.7266e+06 -688699 0 1.80169e+06 -599925 0 1.87263e+06 -503832 0 1.93043e+06 -405027 0 1.97161e+06 -306047 0 1.99492e+06 -210187 0 2.00131e+06 -120498 0 1.99293e+06 -39235.9 0 1.97248e+06 32365.7 0 1.9426e+06 93964.9 0 1.90569e+06 145863 0 1.8637e+06 188755 0 1.81821e+06 223533 0 1.77044e+06 251156 0 1.72134e+06 272566 0 1.67162e+06 288643 0 1.62182e+06 300185 0 1.57232e+06 307895 0 1.52344e+06 312391 0 1.47541e+06 314204 0 1.42837e+06 313791 0 1.38246e+06 311541 0 1.33777e+06 307784 0 1.29435e+06 302800 0 1.25225e+06 296826 0 1.2115e+06 290060 0 1.17211e+06 282669 0 1.13408e+06 274793 0 1.09742e+06 266550 0 1.06212e+06 258036 0 1.02816e+06 249334 0 995537 240511 0 964223 231621 0 934202 222711 0 905451 213818 0 877948 204972 0 851670 196196 0 826592 187510 0 802690 178929 0 779941 170462 0 758321 162119 0 737806 153903 0 718373 145819 0 700001 137868 0 682667 130048 0 666351 122358 0 651033 114796 0 636695 107357 0 623317 100037 0 610883 92831 0 599376 85732.4 0 588783 78735.2 0 579088 71832.8 0 570279 65018 0 562345 58283.6 0 555273 51622 0 549056 45025.5 0 543684 38486.3 0 539150 31996.3 0 535448 25547.5 0 532572 19131.7 0 530519 12740.7 0 529286 6366.25 0 528871 0 0 1.73796e+06 -693231 0 1.81417e+06 -603660 0 1.88503e+06 -506527 0 1.94238e+06 -406181 0 1.98271e+06 -305546 0 2.00485e+06 -208148 0 2.00988e+06 -117186 0 2.00009e+06 -34959.2 0 1.97826e+06 37315.5 0 1.94712e+06 99344.3 0 1.90907e+06 151484 0 1.86611e+06 194478 0 1.81979e+06 229262 0 1.77133e+06 256823 0 1.72165e+06 278128 0 1.67146e+06 294072 0 1.62127e+06 305463 0 1.57148e+06 313014 0 1.52236e+06 317345 0 1.47413e+06 318993 0 1.42696e+06 318415 0 1.38094e+06 316002 0 1.33617e+06 312085 0 1.29271e+06 306945 0 1.25058e+06 300817 0 1.20982e+06 293902 0 1.17043e+06 286365 0 1.13241e+06 278347 0 1.09578e+06 269965 0 1.0605e+06 261316 0 1.02658e+06 252482 0 993994 243530 0 962722 234514 0 932745 225482 0 904039 216469 0 876582 207505 0 850350 198615 0 825318 189817 0 801461 181126 0 778756 172553 0 757179 164105 0 736706 155787 0 717314 147603 0 698980 139553 0 681683 131637 0 665402 123853 0 650118 116198 0 635810 108668 0 622462 101259 0 610056 93964.3 0 598575 86779 0 588005 79696.5 0 578333 72709.8 0 569544 65811.8 0 561627 58995.3 0 554572 52252.4 0 548369 45575.4 0 543009 38956.3 0 538485 32387.1 0 534791 25859.6 0 531922 19365.4 0 529874 12896.4 0 528644 6444.02 0 528230 0 0 1.74951e+06 -697838 0 1.82674e+06 -607411 0 1.89757e+06 -509145 0 1.95449e+06 -407207 0 1.99394e+06 -304880 0 2.01489e+06 -205927 0 2.01852e+06 -113689 0 2.00728e+06 -30508.6 0 1.98405e+06 42421.2 0 1.95162e+06 104859 0 1.91244e+06 157219 0 1.86849e+06 200298 0 1.82134e+06 235069 0 1.77218e+06 262555 0 1.72194e+06 283742 0 1.67128e+06 299542 0 1.62071e+06 310774 0 1.57061e+06 318158 0 1.52125e+06 322319 0 1.47284e+06 323796 0 1.42552e+06 323049 0 1.3794e+06 320470 0 1.33456e+06 316390 0 1.29105e+06 311091 0 1.24889e+06 304809 0 1.20812e+06 297743 0 1.16873e+06 290059 0 1.13073e+06 281898 0 1.09412e+06 273377 0 1.05887e+06 264592 0 1.02499e+06 255626 0 992439 246544 0 961209 237403 0 931276 228247 0 902616 219114 0 875205 210033 0 849019 201029 0 824032 192120 0 800221 183319 0 777561 174639 0 756027 166086 0 735596 157667 0 716244 149382 0 697949 141234 0 680689 133222 0 664444 125344 0 649193 117596 0 634917 109976 0 621598 102477 0 609220 95094.8 0 597765 87823.1 0 587219 80655.3 0 577568 73584.7 0 568799 66603.8 0 560901 59705.2 0 553862 52881.2 0 547673 46123.9 0 542325 39425.3 0 537812 32777 0 534127 26170.9 0 531264 19598.6 0 529221 13051.6 0 527993 6521.61 0 527580 0 0 1.76123e+06 -702514 0 1.8394e+06 -611175 0 1.91026e+06 -511687 0 1.96675e+06 -408103 0 2.00531e+06 -304045 0 2.02502e+06 -203518 0 2.02723e+06 -110004 0 2.0145e+06 -25881.5 0 1.98984e+06 47684.5 0 1.95612e+06 110510 0 1.91579e+06 163069 0 1.87085e+06 206212 0 1.82286e+06 240955 0 1.77301e+06 268351 0 1.72219e+06 289408 0 1.67106e+06 305054 0 1.62011e+06 316118 0 1.56971e+06 323327 0 1.52011e+06 327312 0 1.47152e+06 328613 0 1.42406e+06 327693 0 1.37784e+06 324945 0 1.33293e+06 320700 0 1.28936e+06 315240 0 1.24718e+06 308802 0 1.2064e+06 301583 0 1.16702e+06 293752 0 1.12903e+06 285447 0 1.09244e+06 276785 0 1.05723e+06 267864 0 1.02338e+06 258764 0 990870 249553 0 959683 240286 0 929794 231007 0 901180 221754 0 873815 212557 0 847676 203438 0 822736 194417 0 798971 185507 0 776355 176721 0 754864 168064 0 734475 159542 0 715164 151157 0 696908 142911 0 679686 134803 0 663476 126831 0 648258 118991 0 634014 111280 0 620725 103692 0 608375 96222.6 0 596946 88864.6 0 586424 81611.9 0 576795 74457.4 0 568046 67393.8 0 560166 60413.4 0 553143 53508.6 0 546968 46671.2 0 541633 39893.1 0 537130 33165.9 0 533454 26481.5 0 530598 19831.2 0 528559 13206.5 0 527334 6599.01 0 526922 0 0 1.77312e+06 -707255 0 1.85218e+06 -614948 0 1.92311e+06 -514153 0 1.97917e+06 -408866 0 2.01682e+06 -303037 0 2.03526e+06 -200917 0 2.03599e+06 -106127 0 2.02175e+06 -21075.6 0 1.99565e+06 53106.8 0 1.9606e+06 116298 0 1.91911e+06 169035 0 1.87318e+06 212223 0 1.82435e+06 246920 0 1.77381e+06 274210 0 1.72241e+06 295124 0 1.67081e+06 310606 0 1.61949e+06 321493 0 1.56879e+06 328521 0 1.51895e+06 332324 0 1.47018e+06 333445 0 1.42258e+06 332348 0 1.37626e+06 329427 0 1.33127e+06 325015 0 1.28767e+06 319392 0 1.24546e+06 312795 0 1.20467e+06 305422 0 1.16529e+06 297442 0 1.12732e+06 288992 0 1.09075e+06 280189 0 1.05557e+06 271131 0 1.02176e+06 261899 0 989288 252558 0 958144 243164 0 928300 233763 0 899732 224389 0 872415 215075 0 846322 205842 0 821428 196709 0 797709 187691 0 775138 178797 0 753691 170036 0 733344 161412 0 714074 152928 0 695857 144585 0 678672 136381 0 662498 128315 0 647314 120383 0 633102 112581 0 619843 104905 0 607521 97347.6 0 596118 89903.6 0 585620 82566.1 0 576013 75328 0 567285 68181.8 0 559423 61119.9 0 552416 54134.4 0 546256 47217 0 540933 40359.7 0 536441 33553.9 0 532773 26791.3 0 529923 20063.2 0 527889 13361.1 0 526668 6676.22 0 526256 0 0 1.78516e+06 -712060 0 1.86509e+06 -618728 0 1.93612e+06 -516542 0 1.99176e+06 -409492 0 2.02847e+06 -301851 0 2.0456e+06 -198119 0 2.04482e+06 -102054 0 2.02903e+06 -16088.3 0 2.00145e+06 58689.6 0 1.96507e+06 122223 0 1.92241e+06 175116 0 1.87548e+06 218328 0 1.82581e+06 252962 0 1.77457e+06 280132 0 1.7226e+06 300891 0 1.67054e+06 316198 0 1.61884e+06 326900 0 1.56784e+06 333740 0 1.51777e+06 337354 0 1.46881e+06 338290 0 1.42108e+06 337013 0 1.37466e+06 333916 0 1.3296e+06 329333 0 1.28595e+06 323545 0 1.24372e+06 316788 0 1.20292e+06 309261 0 1.16354e+06 301130 0 1.12559e+06 292534 0 1.08905e+06 283590 0 1.0539e+06 274395 0 1.02012e+06 265028 0 987694 255558 0 956593 246037 0 926794 236513 0 898273 227019 0 871002 217588 0 844956 208240 0 820110 198996 0 796436 189869 0 773911 180869 0 752508 172004 0 732203 163279 0 712974 154695 0 694796 146254 0 677649 137955 0 661511 129795 0 646361 121771 0 632181 113879 0 618952 106114 0 606658 98469.8 0 595281 90940 0 584808 83517.9 0 575223 76196.4 0 566515 68967.9 0 558671 61824.7 0 551681 54758.6 0 545535 47761.6 0 540225 40825.2 0 535743 33940.9 0 532083 27100.3 0 529241 20294.6 0 527211 13515.2 0 525993 6753.23 0 525582 0 0 1.79737e+06 -716927 0 1.87813e+06 -622512 0 1.94931e+06 -518853 0 2.00451e+06 -409979 0 2.04026e+06 -300482 0 2.05603e+06 -195120 0 2.05371e+06 -97782.1 0 2.03633e+06 -10917 0 2.00725e+06 64434.5 0 1.96952e+06 128286 0 1.92569e+06 181312 0 1.87775e+06 224529 0 1.82724e+06 259082 0 1.7753e+06 286116 0 1.72275e+06 306708 0 1.67023e+06 321829 0 1.61816e+06 332339 0 1.56686e+06 338983 0 1.51656e+06 342403 0 1.46742e+06 343150 0 1.41955e+06 341687 0 1.37303e+06 338411 0 1.32791e+06 333655 0 1.28421e+06 327700 0 1.24196e+06 320781 0 1.20115e+06 313098 0 1.16178e+06 304815 0 1.12385e+06 296073 0 1.08733e+06 286987 0 1.05221e+06 277654 0 1.01847e+06 268153 0 986086 258553 0 955029 248906 0 925276 239257 0 896801 229644 0 869578 220095 0 843579 210634 0 818780 201278 0 795153 192042 0 772672 182936 0 751314 173967 0 731052 165140 0 711864 156457 0 693726 147919 0 676616 139525 0 660514 131272 0 645398 123156 0 631250 115174 0 618052 107321 0 605786 99589.2 0 594435 91973.8 0 583986 84467.4 0 574424 77062.7 0 565736 69752.1 0 557911 62527.7 0 550937 55381.3 0 544805 48304.7 0 539508 41289.5 0 535036 34327 0 531386 27408.6 0 528550 20525.5 0 526525 13668.9 0 525309 6830.06 0 524900 0 0 1.80972e+06 -721855 0 1.89133e+06 -626300 0 1.96268e+06 -521085 0 2.01744e+06 -410320 0 2.05219e+06 -298925 0 2.06657e+06 -191915 0 2.06264e+06 -93306.9 0 2.04365e+06 -5559.24 0 2.01305e+06 70342.7 0 1.97395e+06 134489 0 1.92893e+06 187625 0 1.87998e+06 230825 0 1.82863e+06 265279 0 1.77599e+06 292163 0 1.72288e+06 312575 0 1.66989e+06 327501 0 1.61744e+06 337808 0 1.56585e+06 344249 0 1.51532e+06 347471 0 1.46601e+06 348022 0 1.41801e+06 346371 0 1.37139e+06 342913 0 1.3262e+06 337981 0 1.28246e+06 331857 0 1.24018e+06 324775 0 1.19937e+06 316933 0 1.16001e+06 308498 0 1.12209e+06 299609 0 1.0856e+06 290380 0 1.05051e+06 280908 0 1.01681e+06 271274 0 984465 261542 0 953452 251769 0 923745 241997 0 895317 232264 0 868142 222598 0 842191 213022 0 817439 203555 0 793858 194211 0 771424 184999 0 750109 175926 0 729891 166998 0 710744 158216 0 692646 149580 0 675574 141091 0 659508 132744 0 644426 124538 0 630311 116466 0 617143 108524 0 604905 100706 0 593581 93005.1 0 583156 85414.5 0 573616 77926.8 0 564949 70534.3 0 557142 63228.9 0 550185 56002.4 0 544068 48846.5 0 538783 41752.6 0 534322 34712.1 0 530680 27716.1 0 527851 20755.8 0 525831 13822.3 0 524618 6906.69 0 524210 0 0 1.82223e+06 -726846 0 1.90469e+06 -630089 0 1.97624e+06 -523236 0 2.03055e+06 -410514 0 2.06426e+06 -297175 0 2.0772e+06 -188498 0 2.07164e+06 -88624.7 0 2.05099e+06 -12.5536 0 2.01884e+06 76415.7 0 1.97836e+06 140831 0 1.93214e+06 194053 0 1.88218e+06 237215 0 1.82998e+06 271553 0 1.77664e+06 298272 0 1.72296e+06 318491 0 1.66951e+06 333211 0 1.6167e+06 343308 0 1.56482e+06 349540 0 1.51406e+06 352555 0 1.46457e+06 352908 0 1.41644e+06 351064 0 1.36972e+06 347421 0 1.32447e+06 342311 0 1.28069e+06 336015 0 1.23839e+06 328768 0 1.19757e+06 320767 0 1.15822e+06 312179 0 1.12032e+06 303141 0 1.08385e+06 293769 0 1.0488e+06 284158 0 1.01513e+06 274389 0 982831 264527 0 951863 254626 0 922202 244731 0 893822 234878 0 866694 225095 0 840792 215405 0 816087 205827 0 792553 196374 0 770164 187056 0 748894 177880 0 728719 168851 0 709614 159970 0 691555 151238 0 674522 142653 0 658492 134214 0 643445 125916 0 629362 117754 0 616224 109724 0 604015 101820 0 592717 94033.7 0 582317 86359.2 0 572800 78788.7 0 564153 71314.5 0 556365 63928.3 0 549424 56622 0 543322 49387 0 538049 42214.6 0 533599 35096.2 0 529966 28022.8 0 527143 20985.5 0 525129 13975.3 0 523919 6983.13 0 523511 0 0 1.83491e+06 -731901 0 1.91823e+06 -633879 0 1.98999e+06 -525304 0 2.04384e+06 -410553 0 2.07648e+06 -295224 0 2.08793e+06 -184865 0 2.08068e+06 -83731.6 0 2.05834e+06 5725.55 0 2.02462e+06 82654.8 0 1.98274e+06 147313 0 1.93532e+06 200596 0 1.88434e+06 243701 0 1.83129e+06 277903 0 1.77726e+06 304442 0 1.72301e+06 324456 0 1.6691e+06 338959 0 1.61593e+06 348837 0 1.56375e+06 354853 0 1.51277e+06 357658 0 1.46311e+06 357806 0 1.41484e+06 355767 0 1.36804e+06 351935 0 1.32272e+06 346644 0 1.2789e+06 340174 0 1.23658e+06 332761 0 1.19575e+06 324600 0 1.15641e+06 315857 0 1.11853e+06 306670 0 1.08209e+06 297154 0 1.04707e+06 287404 0 1.01345e+06 277500 0 981184 267507 0 950260 257479 0 920647 247460 0 892314 237486 0 865235 227587 0 839380 217783 0 814724 208094 0 791237 198533 0 768894 189109 0 747669 179830 0 727537 170699 0 708473 161719 0 690455 152891 0 673460 144211 0 657466 135679 0 642454 127290 0 628404 119039 0 615296 110922 0 603116 102931 0 591845 95059.7 0 581469 87301.5 0 571975 79648.4 0 563349 72092.7 0 555579 64626 0 548655 57240 0 542567 49926 0 537307 42675.4 0 532868 35479.3 0 529243 28328.7 0 526428 21214.6 0 524418 14127.8 0 523211 7059.37 0 522805 0 0 1.84774e+06 -737021 0 1.93195e+06 -637669 0 2.00395e+06 -527285 0 2.05733e+06 -410433 0 2.08885e+06 -293068 0 2.09875e+06 -181009 0 2.08977e+06 -78623.5 0 2.06571e+06 11657.5 0 2.03038e+06 89061.2 0 1.98709e+06 153935 0 1.93845e+06 207256 0 1.88646e+06 250280 0 1.83256e+06 284329 0 1.77783e+06 310672 0 1.72302e+06 330469 0 1.66866e+06 344746 0 1.61512e+06 354396 0 1.56266e+06 360189 0 1.51145e+06 362777 0 1.46162e+06 362717 0 1.41323e+06 360478 0 1.36633e+06 356455 0 1.32095e+06 350981 0 1.27709e+06 344335 0 1.23475e+06 336753 0 1.19392e+06 328431 0 1.15459e+06 319532 0 1.11673e+06 310195 0 1.08032e+06 300535 0 1.04533e+06 290645 0 1.01174e+06 280605 0 979524 270481 0 948646 260326 0 919079 250184 0 890795 240090 0 863764 230073 0 837958 220156 0 813349 210356 0 789910 200686 0 767613 191157 0 746433 181774 0 726345 172543 0 707323 163465 0 689345 154539 0 672389 145766 0 656432 137141 0 641454 128661 0 627436 120321 0 614360 112116 0 602208 104039 0 590964 96083.1 0 580613 88241.3 0 571141 80505.9 0 562536 72868.9 0 554785 65321.8 0 547877 57856.3 0 541804 50463.7 0 536557 43135 0 532129 35861.4 0 528513 28633.8 0 525705 21443.1 0 523699 14280 0 522495 7135.42 0 522090 0 0 1.86074e+06 -742207 0 1.94586e+06 -641459 0 2.01812e+06 -529178 0 2.07101e+06 -410148 0 2.10137e+06 -290700 0 2.10967e+06 -176926 0 2.0989e+06 -73296.4 0 2.07307e+06 17785.8 0 2.03613e+06 95636.2 0 1.99141e+06 160698 0 1.94155e+06 214031 0 1.88853e+06 256953 0 1.83379e+06 290830 0 1.77837e+06 316963 0 1.72299e+06 336529 0 1.66818e+06 350570 0 1.61428e+06 359985 0 1.56153e+06 365547 0 1.51011e+06 367913 0 1.4601e+06 367640 0 1.41159e+06 365197 0 1.3646e+06 360980 0 1.31915e+06 355320 0 1.27526e+06 348497 0 1.2329e+06 340745 0 1.19207e+06 332260 0 1.15275e+06 323205 0 1.11491e+06 313717 0 1.07852e+06 303911 0 1.04357e+06 293881 0 1.01003e+06 283706 0 977850 273450 0 947018 263168 0 917499 252902 0 889263 242688 0 862281 232554 0 836524 222523 0 811964 212612 0 788572 202834 0 766322 193200 0 745187 183714 0 725142 174382 0 706163 165206 0 688226 156184 0 671308 147316 0 655387 138599 0 640445 130029 0 626460 121600 0 613414 113307 0 601291 105144 0 590074 97103.8 0 579748 89178.8 0 570299 81361.2 0 561714 73643 0 553982 66015.9 0 547091 58471.1 0 541033 51000 0 535799 43593.5 0 531382 36242.6 0 527774 28938.2 0 524973 21671 0 522973 14431.8 0 521771 7211.27 0 521367 0 0 1.87392e+06 -747463 0 1.95998e+06 -645247 0 2.03252e+06 -530977 0 2.08489e+06 -409693 0 2.11404e+06 -288112 0 2.12067e+06 -172608 0 2.10807e+06 -67746.3 0 2.08044e+06 24112.7 0 2.04185e+06 102381 0 1.99569e+06 167603 0 1.94461e+06 220921 0 1.89056e+06 263719 0 1.83497e+06 297407 0 1.77886e+06 323313 0 1.72293e+06 342637 0 1.66766e+06 356430 0 1.6134e+06 365601 0 1.56038e+06 370927 0 1.50873e+06 373065 0 1.45856e+06 372575 0 1.40992e+06 369925 0 1.36285e+06 365510 0 1.31734e+06 359662 0 1.27341e+06 352660 0 1.23103e+06 344736 0 1.1902e+06 336087 0 1.15089e+06 326874 0 1.11307e+06 317235 0 1.07672e+06 307283 0 1.0418e+06 297113 0 1.0083e+06 286801 0 976164 276414 0 945378 266004 0 915906 255614 0 887719 245280 0 860787 235030 0 835079 224885 0 810567 214863 0 787223 204978 0 765020 195238 0 743931 185650 0 723930 176217 0 704993 166942 0 687096 157825 0 670217 148863 0 654334 140053 0 639426 131393 0 625474 122875 0 612459 114495 0 600365 106247 0 589175 98121.9 0 578874 90113.7 0 569448 82214.3 0 560884 74415.2 0 553171 66708.1 0 546297 59084.3 0 540254 51534.8 0 535033 44050.7 0 530626 36622.7 0 527028 29241.7 0 524233 21898.4 0 522238 14583.2 0 521039 7286.92 0 520636 0 0 1.88728e+06 -752791 0 1.97432e+06 -649033 0 2.04715e+06 -532680 0 2.09898e+06 -409058 0 2.12686e+06 -285297 0 2.13177e+06 -168051 0 2.11728e+06 -61969.2 0 2.08781e+06 30640.6 0 2.04755e+06 109296 0 1.99994e+06 174648 0 1.94762e+06 227927 0 1.89254e+06 270578 0 1.83611e+06 304057 0 1.77931e+06 329722 0 1.72282e+06 348791 0 1.66711e+06 362328 0 1.6125e+06 371246 0 1.55919e+06 376328 0 1.50733e+06 378234 0 1.45699e+06 377521 0 1.40823e+06 374660 0 1.36107e+06 370045 0 1.31551e+06 364007 0 1.27154e+06 356823 0 1.22915e+06 348727 0 1.18832e+06 339912 0 1.14902e+06 330541 0 1.11122e+06 320750 0 1.0749e+06 310651 0 1.04002e+06 300339 0 1.00655e+06 289892 0 974464 279373 0 943724 268835 0 914301 258321 0 886164 247867 0 859281 237500 0 833622 227241 0 809159 217109 0 785864 207116 0 763707 197271 0 742664 187580 0 722707 178047 0 703813 168675 0 685957 159461 0 669117 150405 0 653270 141504 0 638398 132753 0 624479 124147 0 611496 115680 0 599431 107346 0 588268 99137.3 0 577992 91046.3 0 568589 83065.1 0 560046 75185.4 0 552351 67398.6 0 545495 59695.9 0 539466 52068.3 0 534258 44506.7 0 529862 37001.9 0 526273 29544.5 0 523485 22125.1 0 521495 14734.2 0 520299 7362.38 0 519897 0 0 1.90082e+06 -758194 0 1.98889e+06 -652816 0 2.06202e+06 -534283 0 2.11328e+06 -408239 0 2.13983e+06 -282247 0 2.14295e+06 -163247 0 2.12652e+06 -55960.8 0 2.09518e+06 37371.8 0 2.05322e+06 116383 0 2.00414e+06 181835 0 1.95058e+06 235047 0 1.89447e+06 277530 0 1.8372e+06 310781 0 1.77971e+06 336190 0 1.72266e+06 354991 0 1.66651e+06 368260 0 1.61155e+06 376919 0 1.55797e+06 381750 0 1.5059e+06 383417 0 1.4554e+06 382479 0 1.40652e+06 379403 0 1.35927e+06 374585 0 1.31365e+06 368354 0 1.26965e+06 360987 0 1.22725e+06 352716 0 1.18641e+06 343735 0 1.14713e+06 334204 0 1.10935e+06 324260 0 1.07306e+06 314015 0 1.03822e+06 303561 0 1.00479e+06 292977 0 972751 282326 0 942058 271660 0 912684 261023 0 884596 250448 0 857763 239964 0 832154 229593 0 807741 219350 0 784493 209249 0 762384 199299 0 741387 189506 0 721474 179873 0 702623 170402 0 684808 161093 0 668007 151944 0 652198 142951 0 637360 134110 0 623475 125416 0 610523 116862 0 598487 108443 0 587351 100150 0 577101 91976.3 0 567721 83913.6 0 559199 75953.5 0 551523 68087.1 0 544684 60305.8 0 538670 52600.3 0 533475 44961.5 0 529090 37380.1 0 525510 29846.5 0 522729 22351.2 0 520744 14884.8 0 519551 7437.63 0 519150 0 0 1.91456e+06 -763675 0 2.0037e+06 -656596 0 2.07715e+06 -535779 0 2.1278e+06 -407226 0 2.15296e+06 -278954 0 2.15422e+06 -158191 0 2.13578e+06 -49717.1 0 2.10253e+06 44308.4 0 2.05886e+06 123642 0 2.00829e+06 189164 0 1.95349e+06 242282 0 1.89635e+06 284572 0 1.83823e+06 317578 0 1.78006e+06 342715 0 1.72247e+06 361237 0 1.66588e+06 374228 0 1.61057e+06 382618 0 1.55672e+06 387193 0 1.50443e+06 388616 0 1.45378e+06 387447 0 1.40478e+06 384154 0 1.35745e+06 379129 0 1.31177e+06 372704 0 1.26774e+06 365152 0 1.22532e+06 356705 0 1.18449e+06 347555 0 1.14522e+06 337865 0 1.10747e+06 327767 0 1.07121e+06 317374 0 1.03641e+06 306778 0 1.00302e+06 296057 0 971024 285274 0 940380 274480 0 911054 263719 0 883016 253024 0 856233 242423 0 830675 231938 0 806311 221585 0 783112 211377 0 761050 201322 0 740099 191426 0 720231 181694 0 701423 172126 0 683649 162721 0 666887 153478 0 651116 144394 0 636314 135463 0 622462 126681 0 609541 118041 0 597535 109536 0 586426 101160 0 576201 92903.9 0 566844 84759.9 0 558343 76719.5 0 550687 68773.9 0 543865 60914.1 0 537866 53131 0 532684 45415.1 0 528310 37757.2 0 524738 30147.6 0 521965 22576.8 0 519984 15035 0 518795 7512.69 0 518395 0 0 1.92851e+06 -769237 0 2.01876e+06 -660372 0 2.09254e+06 -537164 0 2.14254e+06 -406011 0 2.16623e+06 -275410 0 2.16556e+06 -152876 0 2.14508e+06 -43234 0 2.10987e+06 51452.5 0 2.06446e+06 131075 0 2.0124e+06 196634 0 1.95634e+06 249631 0 1.89818e+06 291706 0 1.83922e+06 324447 0 1.78037e+06 349297 0 1.72223e+06 367527 0 1.66521e+06 380231 0 1.60955e+06 388344 0 1.55543e+06 392656 0 1.50294e+06 393830 0 1.45213e+06 392426 0 1.40302e+06 388911 0 1.3556e+06 383678 0 1.30988e+06 377055 0 1.26581e+06 369316 0 1.22338e+06 360692 0 1.18256e+06 351373 0 1.1433e+06 341521 0 1.10557e+06 331269 0 1.06935e+06 320728 0 1.03458e+06 309990 0 1.00124e+06 299132 0 969285 288216 0 938688 277294 0 909412 266409 0 881424 255594 0 854692 244877 0 829184 234278 0 804870 223815 0 781720 213499 0 759706 203340 0 738801 193342 0 718978 183510 0 700213 173845 0 682480 164345 0 665758 155009 0 650024 145833 0 635258 136813 0 621439 127943 0 608550 119217 0 596573 110627 0 585493 102167 0 575292 93829 0 565959 85604 0 557480 77483.5 0 549842 69458.8 0 543037 61520.8 0 537054 53660.2 0 531884 45867.5 0 527521 38133.3 0 523959 30448 0 521192 22801.7 0 519217 15184.8 0 518031 7587.54 0 517631 0 0 1.94267e+06 -774886 0 2.03408e+06 -664143 0 2.1082e+06 -538433 0 2.15751e+06 -404584 0 2.17966e+06 -271605 0 2.17698e+06 -147295 0 2.15439e+06 -36507.5 0 2.11719e+06 58806.2 0 2.07002e+06 138682 0 2.01646e+06 204246 0 1.95915e+06 257093 0 1.89995e+06 298931 0 1.84016e+06 331388 0 1.78063e+06 355935 0 1.72195e+06 373860 0 1.66449e+06 386268 0 1.6085e+06 394096 0 1.55411e+06 398138 0 1.50142e+06 399058 0 1.45045e+06 397415 0 1.40123e+06 393676 0 1.35373e+06 388231 0 1.30796e+06 381408 0 1.26386e+06 373481 0 1.22142e+06 364677 0 1.1806e+06 355189 0 1.14136e+06 345175 0 1.10366e+06 334767 0 1.06746e+06 324077 0 1.03274e+06 313197 0 999437 302201 0 967532 291152 0 936983 280103 0 907758 269094 0 879820 258159 0 853139 247325 0 827682 236613 0 803418 226040 0 780317 215617 0 758351 205353 0 737492 195253 0 717715 185322 0 698993 175559 0 681302 165964 0 664619 156535 0 648923 147269 0 634192 138159 0 620408 129201 0 607551 120389 0 595603 111715 0 584550 103172 0 574375 94751.6 0 565065 86445.7 0 556607 78245.4 0 548989 70141.9 0 542201 62125.8 0 536233 54187.9 0 531077 46318.7 0 526725 38508.4 0 523172 30747.5 0 520412 23026 0 518442 15334.2 0 517258 7662.19 0 516860 0 0 1.95706e+06 -780623 0 2.04969e+06 -667908 0 2.12415e+06 -539577 0 2.17271e+06 -402936 0 2.19324e+06 -267530 0 2.18848e+06 -141441 0 2.16371e+06 -29533.4 0 2.12449e+06 66371.5 0 2.07553e+06 146463 0 2.02046e+06 211998 0 1.96189e+06 264668 0 1.90166e+06 306244 0 1.84103e+06 338399 0 1.78083e+06 362629 0 1.72162e+06 380237 0 1.66373e+06 392338 0 1.6074e+06 399874 0 1.55276e+06 403640 0 1.49986e+06 404300 0 1.44874e+06 402414 0 1.39941e+06 398446 0 1.35184e+06 392787 0 1.30601e+06 385763 0 1.26189e+06 377645 0 1.21944e+06 368661 0 1.17863e+06 359002 0 1.1394e+06 348824 0 1.10173e+06 338261 0 1.06557e+06 327422 0 1.03088e+06 316398 0 997624 305265 0 965765 294084 0 935266 282906 0 906090 271773 0 878204 260718 0 851574 249767 0 826168 238942 0 801954 228259 0 778903 217729 0 756986 207360 0 736174 197159 0 716441 187129 0 697763 177269 0 680114 167580 0 663471 158058 0 647813 148700 0 633118 139502 0 619367 130456 0 606542 121558 0 594624 112800 0 583599 104174 0 573449 95671.7 0 564163 87285.1 0 555726 79005.3 0 548128 70823.1 0 541357 62729.2 0 535404 54714.3 0 530261 46768.6 0 525920 38882.5 0 522376 31046.2 0 519623 23249.7 0 517658 15483.2 0 516478 7736.63 0 516081 0 0 1.97168e+06 -786455 0 2.06558e+06 -671667 0 2.14039e+06 -540590 0 2.18815e+06 -401056 0 2.20697e+06 -263174 0 2.20004e+06 -135308 0 2.17305e+06 -22307.9 0 2.13176e+06 74150 0 2.08099e+06 154420 0 2.0244e+06 219892 0 1.96457e+06 272355 0 1.90332e+06 313647 0 1.84186e+06 345479 0 1.78099e+06 369377 0 1.72124e+06 386656 0 1.66293e+06 398440 0 1.60627e+06 405676 0 1.55137e+06 409160 0 1.49827e+06 409556 0 1.44701e+06 407422 0 1.39757e+06 403223 0 1.34992e+06 397347 0 1.30405e+06 390119 0 1.2599e+06 381809 0 1.21745e+06 372643 0 1.17664e+06 362811 0 1.13743e+06 352470 0 1.09978e+06 341751 0 1.06366e+06 330762 0 1.02901e+06 319594 0 995797 308323 0 963985 297009 0 933536 285703 0 904411 274446 0 876576 263271 0 849998 252204 0 824643 241266 0 800480 230472 0 777479 219835 0 755609 209363 0 734845 199061 0 715158 188931 0 696523 178974 0 678916 169190 0 662313 159576 0 646693 150128 0 632034 140840 0 618318 131708 0 605524 122724 0 593636 113882 0 582639 105173 0 572515 96589.3 0 563252 88122.3 0 554837 79763 0 547258 71502.4 0 540504 63331 0 534567 55239.2 0 529437 47217.3 0 525107 39255.6 0 521572 31344.1 0 518827 23472.8 0 516867 15631.8 