<?xml version="1.0"?> 
<VTKFile type="StructuredGrid" version="0.1"> 
<StructuredGrid WholeExtent="0 63 0 63 0 0"> 
<Piece Extent="0 63 0 63 0 0"> 
<PointData>
<DataArray type="Float32" Name="|E|" format="ascii" NumberOfComponents="3"> 
-1.19209e-07 7.92592e+06 0 -7.91624e-08 6.37084e+06 0 -6.33299e-08 5.16264e+06 0 1.76951e-07 4.40922e+06 0 -1.78814e-07 3.90265e+06 0 2.90573e-07 3.52442e+06 0 -2.45869e-07 3.22389e+06 0 1.63913e-07 2.97394e+06 0 -2.16067e-07 2.75921e+06 0 5.96046e-08 2.57029e+06 0 1.3411e-07 2.40091e+06 0 -2.01166e-07 2.24673e+06 0 8.9407e-08 2.10464e+06 0 -2.98023e-08 1.97237e+06 0 -4.47035e-08 1.84819e+06 0 1.11759e-07 1.73081e+06 0 -9.68575e-08 1.61922e+06 0 1.3411e-07 1.51266e+06 0 -1.19209e-07 1.41054e+06 0 1.49012e-07 1.31244e+06 0 -1.49012e-08 1.21804e+06 0 -4.47035e-08 1.12715e+06 0 0 1.03963e+06 0 1.49012e-08 955461 0 2.98023e-08 874664 0 -4.47035e-08 797319 0 1.49012e-08 723545 0 7.45058e-08 653491 0 -1.49012e-08 587315 0 -5.96046e-08 525170 0 -4.47035e-08 467191 0 -1.49012e-08 413477 0 -2.98023e-08 364080 0 4.47035e-08 318997 0 2.98023e-08 278165 0 -8.9407e-08 241463 0 5.96046e-08 208716 0 2.98023e-08 179701 0 -8.9407e-08 154165 0 8.9407e-08 131827 0 0 112398 0 -8.9407e-08 95584 0 8.9407e-08 81099.9 0 -8.9407e-08 68673.3 0 1.19209e-07 58049.9 0 -5.96046e-08 48996.4 0 5.96046e-08 41301.7 0 -2.98023e-08 34777.2 0 5.96046e-08 29256.1 0 -5.96046e-08 24592.2 0 2.98023e-08 20658.2 0 -5.96046e-08 17344.3 0 -2.98023e-08 14555.8 0 8.9407e-08 12211.7 0 -1.19209e-07 10243.1 0 5.96046e-08 8591.52 0 -5.96046e-08 7206.72 0 2.98023e-08 6048.95 0 2.98023e-08 5078.13 0 5.96046e-08 4281.42 0 -5.96046e-08 3595.75 0 1.78814e-07 3128.29 0 -3.27826e-07 2575.45 0 2.38419e-07 4239.26 0 -440307 6.88842e+06 0 -311337 5.45848e+06 0 -192672 4.58686e+06 0 -133471 4.03946e+06 0 -101463 3.63606e+06 0 -81515.3 3.31823e+06 0 -68338.6 3.05649e+06 0 -59027.4 2.83316e+06 0 -52142.2 2.63781e+06 0 -46894.8 2.46352e+06 0 -42789 2.30553e+06 0 -39506.6 2.16043e+06 0 -36833.8 2.02576e+06 0 -34620.5 1.89965e+06 0 -32758 1.78068e+06 0 -31165.2 1.66778e+06 0 -29779.6 1.56011e+06 0 -28551.7 1.45704e+06 0 -27441.4 1.35807e+06 0 -26415.2 1.26287e+06 0 -25444.8 1.17118e+06 0 -24506 1.08285e+06 0 -23577.9 997809 0 -22642.6 916054 0 -21685.9 837638 0 -20696.4 762658 0 -19666.9 691245 0 -18594 623552 0 -17478.6 559731 0 -16325.9 499927 0 -15145.1 444257 0 -13948.7 392801 0 -12751.6 345589 0 -11569.9 302593 0 -10419.7 263731 0 -9315.88 228864 0 -8271.1 197802 0 -7295.31 170318 0 -6395.33 146154 0 -5574.89 125032 0 -4834.92 106669 0 -4173.95 90780.7 0 -3588.62 77093.3 0 -3074.26 65346.9 0 -2625.3 55300 0 -2235.74 46732 0 -1899.43 39443.9 0 -1610.38 33258.1 0 -1362.89 28017.9 0 -1151.67 23585.9 0 -971.896 19842.9 0 -819.24 16685.5 0 -689.854 14025.1 0 -580.368 11785.4 0 -487.798 9901.81 0 -409.633 8318.91 0 -343.525 6990.6 0 -287.614 5876.1 0 -240.309 4947.08 0 -197.973 4165.79 0 -166.537 3542.45 0 -110.885 2996.81 0 -110.024 2764.72 0 528.552 2339.53 0 -699434 5.66532e+06 0 -439626 4.75403e+06 0 -291666 4.1662e+06 0 -218716 3.74351e+06 0 -173642 3.40873e+06 0 -144168 3.13576e+06 0 -123676 2.90431e+06 0 -108638 2.70283e+06 0 -97250 2.52387e+06 0 -88392.2 2.36224e+06 0 -81344.5 2.21429e+06 0 -75631 2.07733e+06 0 -70920.2 1.94937e+06 0 -66973.9 1.82891e+06 0 -63616.1 1.71477e+06 0 -60712 1.60607e+06 0 -58156.3 1.5021e+06 0 -55863.8 1.40234e+06 0 -53764.4 1.3064e+06 0 -51799 1.214e+06 0 -49916.9 1.12494e+06 0 -48074.5 1.03913e+06 0 -46234.4 956528 0 -44365.3 877161 0 -42442.1 801105 0 -40446.7 728476 0 -38368.2 659412 0 -36204 594066 0 -33959.6 532586 0 -31648.8 475104 0 -29292.3 421722 0 -26916.9 372497 0 -24552.9 327437 0 -22231.8 286495 0 -19984.4 249566 0 -17838.2 216495 0 -15816 187083 0 -13934.9 161095 0 -12206 138270 0 -10634.6 118336 0 -9220.77 101014 0 -7960.27 86030.2 0 -6845.64 73122.1 0 -5867.11 62041.8 0 -5013.5 52560.5 0 -4272.99 44469.8 0 -3633.68 37582.2 0 -3084.03 31730.8 0 -2613.14 26768.6 0 -2210.94 22567 0 -1868.31 19014.1 0 -1577.05 16013.2 0 -1329.9 13481 0 -1120.47 11346.4 0 -943.172 9548.47 0 -793.203 8035.57 0 -666.099 6763.52 0 -558.819 5696.36 0 -465.959 4801.55 0 -389.016 4057.72 0 -311.844 3442.79 0 -247.311 2949.13 0 -110.925 2627.42 0 349.729 2031.54 0 -729899 4.88985e+06 0 -479880 4.27765e+06 0 -351027 3.83567e+06 0 -276943 3.49135e+06 0 -227663 3.20899e+06 0 -194051 2.97101e+06 0 -169569 2.76425e+06 0 -151121 2.58118e+06 0 -136850 2.41631e+06 0 -125545 2.26576e+06 0 -116414 2.12673e+06 0 -108915 1.9971e+06 0 -102658 1.87527e+06 0 -97356.3 1.76001e+06 0 -92794.6 1.65036e+06 0 -88804 1.54559e+06 0 -85249.9 1.44513e+06 0 -82021.7 1.34854e+06 0 -79027.2 1.25551e+06 0 -76187.3 1.16581e+06 0 -73434.2 1.07933e+06 0 -70709.1 995983 0 -67962.2 915781 0 -65152.4 838776 0 -62247.8 765064 0 -59227 694771 0 -56079.8 628044 0 -52807.9 565033 0 -49425 505879 0 -45955.9 450702 0 -42435.3 399585 0 -38904.9 352566 0 -35410.4 309629 0 -31997.8 270707 0 -28710.6 235676 0 -25586.6 204366 0 -22656.1 176568 0 -19940.8 152041 0 -17453.6 130525 0 -15199.5 111749 0 -13176 95443.2 0 -11375.3 81342.9 0 -9785.16 69196.1 0 -8390.46 58767.4 0 -7174.48 49840 0 -6119.82 42217.4 0 -5209.2 35723.3 0 -4426 30201.4 0 -3754.64 25513.7 0 -3180.78 21540.1 0 -2691.45 18175.8 0 -2275.03 15330.5 0 -1921.26 12926.5 0 -1621.07 10897 0 -1366.62 9185.22 0 -1150.93 7742.59 0 -968.158 6528.12 0 -812.705 5507.32 0 -679.815 4650.83 0 -565.207 3937.35 0 -457.255 3344.35 0 -357.488 2872.97 0 -164.667 2486.93 0 136.37 1883.39 0 -696153 4.36111e+06 0 -499296 3.90918e+06 0 -389971 3.56303e+06 0 -318876 3.27572e+06 0 -269953 3.03229e+06 0 -234867 2.82146e+06 0 -208464 2.63493e+06 0 -188132 2.46731e+06 0 -172086 2.31454e+06 0 -159169 2.17371e+06 0 -148593 2.04261e+06 0 -139798 1.91958e+06 0 -132374 1.80333e+06 0 -126013 1.69286e+06 0 -120477 1.58739e+06 0 -115577 1.48632e+06 0 -111159 1.38917e+06 0 -107094 1.2956e+06 0 -103274 1.20536e+06 0 -99605.4 1.1183e+06 0 -96006.2 1.03432e+06 0 -92407 953397 0 -88748.8 875564 0 -84984.4 800897 0 -81079.2 729511 0 -77012.1 661541 0 -72777.3 597139 0 -68384.3 536452 0 -63857.8 479612 0 -59236.5 426724 0 -54569.9 377852 0 -49915.3 333014 0 -45332.9 292172 0 -40882.1 255238 0 -36616.6 222072 0 -32582.2 192488 0 -28813.9 166269 0 -25335.5 143170 0 -22160 122930 0 -19289.8 105285 0 -16719.1 89969.3 0 -14435.4 76730 0 -12421.2 65325.8 0 -10656.2 55533 0 -9118.09 47146.9 0 -7784.25 39982.4 0 -6632.43 33874.1 0 -5641.4 28675.6 0 -4791.37 24258.1 0 -4064.23 20509.3 0 -3443.6 17331.6 0 -2914.88 14640.7 0 -2465.14 12364 0 -2083.04 10439.4 0 -1758.66 8813.73 0 -1483.32 7441.7 0 -1249.52 6284.99 0 -1050.3 5311.16 0 -879.896 4493.17 0 -730.976 3809.66 0 -594.95 3240.06 0 -458.878 2779.75 0 -252.293 2354.17 0 -51.6644 1823.95 0 -664226 3.97021e+06 0 -511036 3.61984e+06 0 -416886 3.3337e+06 0 -351200 3.08691e+06 0 -304239 2.87334e+06 0 -269144 2.68445e+06 0 -242131 2.51472e+06 0 -220894 2.36022e+06 0 -203839 2.21793e+06 0 -189911 2.08564e+06 0 -178360 1.96163e+06 0 -168640 1.84456e+06 0 -160341 1.73341e+06 0 -153149 1.62737e+06 0 -146818 1.52578e+06 0 -141145 1.42818e+06 0 -135964 1.33417e+06 0 -131136 1.24349e+06 0 -126539 1.15596e+06 0 -122069 1.07144e+06 0 -117635 989909 0 -113159 911365 0 -108577 835869 0 -103839 763518 0 -98910.4 694442 0 -93775.7 628785 0 -88436.2 566698 0 -82912.5 508325 0 -77243.1 453788 0 -71481.9 403174 0 -65694.3 356530 0 -59952.9 313850 0 -54331.5 275076 0 -48900.5 240100 0 -43722.1 208765 0 -38846.8 180874 0 -34312.4 156199 0 -30142.3 134494 0 -26347.2 115499 0 -22926 98953.7 0 -19868.5 84602.9 0 -17156.7 72201.7 0 -14767.9 61520.6 0 -12676.2 52347.4 0 -10854.2 44489 0 -9274.36 37771.7 0 -7909.88 32040.6 0 -6735.4 27158.9 0 -5727.39 23006.5 0 -4864.41 19478.8 0 -4127.13 16485 0 -3498.35 13946.6 0 -2962.85 11796.1 0 -2507.28 9975.63 0 -2119.96 8435.75 0 -1790.72 7134.25 0 -1510.6 6035.38 0 -1271.57 5108.74 0 -1066.5 4329.29 0 -886.736 3675.49 0 -724.089 3129.58 0 -558.431 2674.06 0 -356.993 2239.6 0 -205.788 1756.67 0 -642010 3.66673e+06 0 -519497 3.37864e+06 0 -437277 3.13416e+06 0 -377286 2.91907e+06 0 -332849 2.72908e+06 0 -298666 2.55807e+06 0 -271825 2.40239e+06 0 -250322 2.2591e+06 0 -232791 2.12593e+06 0 -218282 2.00119e+06 0 -206102 1.88351e+06 0 -195733 1.77185e+06 0 -186781 1.66537e+06 0 -178934 1.56341e+06 0 -171941 1.46546e+06 0 -165598 1.37112e+06 0 -159730 1.28011e+06 0 -154188 1.19219e+06 0 -148844 1.10725e+06 0 -143585 1.02522e+06 0 -138315 946080 0 -132950 869875 0 -127424 796687 0 -121689 726634 0 -115714 659854 0 -109491 596501 0 -103032 536723 0 -96373.2 480657 0 -89567.4 428413 0 -82685.6 380061 0 -75809.2 335627 0 -69025.2 295084 0 -62419.5 258353 0 -56071.2 225306 0 -50048.3 195769 0 -44404 169535 0 -39175.6 146370 0 -34384.6 126024 0 -30037.6 108242 0 -26128.9 92767.7 0 -22642.7 79354.5 0 -19555.5 67767.8 0 -16839.1 57789.3 0 -14462.2 49218.4 0 -12392.6 41873.5 0 -10598.2 35591.7 0 -9048.08 30228.4 0 -7713.2 25656.1 0 -6566.79 21763.2 0 -5584.5 18452.3 0 -4744.48 15639.1 0 -4027.28 13250.9 0 -3415.72 11225 0 -2894.76 9507.63 0 -2451.21 8052.91 0 -2073.58 6821.6 0 -1751.73 5780.39 0 -1476.66 4901.01 0 -1239.97 4159.77 0 -1032.62 3536.03 0 -845.144 3012.09 0 -658.664 2563.6 0 -465.56 2134.38 0 -337.189 1700.7 0 -627905 3.41524e+06 0 -526207 3.17113e+06 0 -453657 2.9584e+06 0 -399108 2.76805e+06 0 -357449 2.59687e+06 0 -324674 2.44067e+06 0 -298460 2.29687e+06 0 -277113 2.16322e+06 0 -259471 2.03804e+06 0 -244687 1.92e+06 0 -232129 1.80802e+06 0 -221319 1.70127e+06 0 -211877 1.59907e+06 0 -203504 1.50091e+06 0 -195950 1.40635e+06 0 -189009 1.3151e+06 0 -182503 1.22692e+06 0 -176278 1.14166e+06 0 -170201 1.05924e+06 0 -164152 979613 0 -158033 902817 0 -151759 828915 0 -145265 758011 0 -138506 690239 0 -131460 625747 0 -124130 564691 0 -116542 507218 0 -108748 453455 0 -100820 403497 0 -92843.7 357396 0 -84917.9 315158 0 -77142.2 276731 0 -69612.5 242018 0 -62414.3 210869 0 -55618.4 183097 0 -49278.1 158486 0 -43428.4 136795 0 -38086.5 117774 0 -33254 101171 0 -28919.2 86737.2 0 -25060.3 74233.9 0 -21648.1 63437.3 0 -18648.8 54140.2 0 -16026.1 46153.6 0 -13743.2 39307 0 -11763.9 33448.4 0 -10053.6 28442.9 0 -8580.03 24172 0 -7313.7 20532.1 0 -6227.74 17433.1 0 -5298.14 14797 0 -4503.56 12556.2 0 -3825.2 10652.9 0 -3246.54 9037.27 0 -2753.17 7666.76 0 -2332.46 6505.04 0 -1973.29 5521.13 0 -1665.81 4688.74 0 -1400.68 3985.5 0 -1168.58 3391.68 0 -959.272 2889.09 0 -758.471 2450.9 0 -572.031 2036.83 0 -450.488 1640.54 0 -618467 3.20048e+06 0 -531888 2.98927e+06 0 -467597 2.80121e+06 0 -418022 2.63052e+06 0 -379175 2.47471e+06 0 -348040 2.33094e+06 0 -322718 2.19725e+06 0 -301801 2.07198e+06 0 -284294 1.95384e+06 0 -269447 1.84176e+06 0 -256694 1.73492e+06 0 -245589 1.63265e+06 0 -235778 1.5344e+06 0 -226971 1.43975e+06 0 -218925 1.34838e+06 0 -211434 1.26005e+06 0 -204320 1.17458e+06 0 -197424 1.09187e+06 0 -190611 1.01187e+06 0 -183760 934601 0 -176771 860103 0 -169561 788473 0 -162069 719834 0 -154258 654331 0 -146118 592121 0 -137665 533360 0 -128943 478190 0 -120022 426729 0 -110991 379053 0 -101955 335195 0 -93027 295137 0 -84317 258808 0 -75928.9 226085 0 -67951.8 196805 0 -60456.9 170765 0 -53495 147740 0 -47096.5 127487 0 -41273 109756 0 -36019.5 94297.9 0 -31317.8 80872.4 0 -27139.9 69250.3 0 -23450.7 59218.4 0 -20210.9 50580.7 0 -17379.6 43159.6 0 -14915.7 36795.7 0 -12779.4 31347.1 0 -10932.8 26688.7 0 -9341.15 22710.7 0 -7972.29 19317.1 0 -6797.4 16424.7 0 -5790.65 13961.4 0 -4929.15 11864.9 0 -4192.73 10081.9 0 -3563.71 8566.27 0 -3026.62 7278.78 0 -2567.92 6185.8 0 -2175.7 5258.63 0 -1839.33 4472.82 0 -1548.9 3807.27 0 -1294.86 3243.17 0 -1067.05 2761.88 0 -856.243 2337.88 0 -673.123 1943.33 0 -550.595 1580.36 0 -612001 3.0133e+06 0 -537255 2.82733e+06 0 -480047 2.65891e+06 0 -434924 2.50409e+06 0 -398815 2.36106e+06 0 -369399 2.22778e+06 0 -345117 2.1028e+06 0 -324797 1.98485e+06 0 -307584 1.87292e+06 0 -292821 1.7662e+06 0 -279996 1.66401e+06 0 -268701 1.56583e+06 0 -258602 1.47122e+06 0 -249423 1.37985e+06 0 -240928 1.29148e+06 0 -232913 1.2059e+06 0 -225200 1.12302e+06 0 -217631 1.04277e+06 0 -210068 965135 0 -202392 890160 0 -194504 817923 0 -186325 748539 0 -177803 682149 0 -168912 618908 0 -159656 558978 0 -150069 502515 0 -140214 449653 0 -130180 400494 0 -120076 355098 0 -110023 313476 0 -100146 275585 0 -90565.5 241332 0 -81389.6 210574 0 -72708.3 183131 0 -64590.3 158788 0 -57081.7 137312 0 -50206.5 118459 0 -43969 101980 0 -38357.2 87632.1 0 -33345.8 75182.5 0 -28900.1 64412.2 0 -24979.3 55118.8 0 -21539.2 47117.8 0 -18534.4 40242.8 0 -15919.9 34345 0 -13652.7 29292.9 0 -11692.5 24970.4 0 -10001.8 21276 0 -8546.76 18121.4 0 -7296.79 15429.8 0 -6224.59 13134.9 0 -5306.03 11179.3 0 -4519.86 9513.85 0 -3847.42 8096.29 0 -3272.43 6890.35 0 -2780.6 5865.05 0 -2359.39 4993.87 0 -1997.6 4254.07 0 -1684.94 3625.84 0 -1411.73 3091.23 0 -1168.64 2631.81 0 -950.332 2225.09 0 -767.565 1852.41 0 -639.96 1517.85 0 -607916 2.84742e+06 0 -542739 2.68127e+06 0 -491587 2.5287e+06 0 -450438 2.38692e+06 0 -416925 2.25462e+06 0 -389222 2.13031e+06 0 -366045 2.01288e+06 0 -346417 1.90136e+06 0 -329599 1.79496e+06 0 -315012 1.69305e+06 0 -302197 1.59509e+06 0 -290777 1.50066e+06 0 -280442 1.40942e+06 0 -270927 1.32112e+06 0 -262004 1.23556e+06 0 -253471 1.15262e+06 0 -245154 1.07222e+06 0 -236894 994332 0 -228556 918994 0 -220023 846269 0 -211200 776261 0 -202016 709104 0 -192431 644952 0 -182433 583972 0 -172043 526328 0 -161316 472169 0 -150335 421621 0 -139211 374769 0 -128071 331653 0 -117052 292259 0 -106288 256522 0 -95907 224324 0 -86018.5 195504 0 -76710.6 169864 0 -68046.9 147181 0 -60066.5 127216 0 -52785.7 109723 0 -46200.4 94457.7 0 -40290.7 81183.4 0 -35024.1 69676 0 -30359.4 59727.1 0 -26250.2 51145.3 0 -22647.4 43757.6 0 -19501.9 37408.5 0 -16765.2 31959.9 0 -14391.8 27290 0 -12338.9 23291.7 0 -10567.2 19871.5 0 -9041.3 16948.2 0 -7729.22 14451.3 0 -6602.57 12319.8 0 -5636.24 10501.3 0 -4808.12 8950.59 0 -4098.85 7628.83 0 -3491.47 6502.78 0 -2971.17 5543.92 0 -2524.89 4727.8 0 -2141.02 4033.33 0 -1809.06 3441.98 0 -1519.44 2936.68 0 -1263.91 2499.94 0 -1039.51 2112.81 0 -854.856 1762.74 0 -720.425 1453.72 0 -605883 2.69831e+06 0 -548558 2.54803e+06 0 -502601 2.40844e+06 0 -464999 2.27754e+06 0 -433905 2.15436e+06 0 -407860 2.03777e+06 0 -385802 1.92694e+06 0 -366907 1.8211e+06 0 -350538 1.71966e+06 0 -336181 1.62209e+06 0 -323422 1.52798e+06 0 -311916 1.43701e+06 0 -301370 1.3489e+06 0 -291531 1.26347e+06 0 -282180 1.18058e+06 0 -273121 1.10013e+06 0 -264179 1.02211e+06 0 -255200 946522 0 -246051 873423 0 -236621 802908 0 -226822 735103 0 -216595 670160 0 -205913 608245 0 -194782 549531 0 -183246 494181 0 -171380 442339 0 -159290 394116 0 -147108 349578 0 -134979 308742 0 -123052 271571 0 -111470 237972 0 -100364 207806 0 -89842.2 180893 0 -79987.6 157022 0 -70856.4 135960 0 -62479 117464 0 -54862.2 101291 0 -47993.3 87198.9 0 -41843.9 74960.4 0 -36374 64360.6 0 -31536.3 55201.7 0 -27279.1 47304 0 -23549.2 40505.4 0 -20293.6 34661.6 0 -17461.4 29644.8 0 -15004.5 25342.5 0 -12878.5 21656.3 0 -11042.6 18500.4 0 -9460.07 15800.3 0 -8098.03 13491.6 0 -6927.22 11518.5 0 -5921.82 9832.96 0 -5059.12 8393.74 0 -4319.21 7165.34 0 -3684.69 6117.3 0 -3140.32 5223.45 0 -2672.7 4461.32 0 -2269.98 3811.41 0 -1921.59 3256.43 0 -1618.19 2780.35 0 -1352.58 2367.07 0 -1122.9 2001.06 0 -934.945 1673.67 0 -793.111 1387.75 0 -605623 2.56261e+06 0 -554818 2.42528e+06 0 -513345 2.2965e+06 0 -478909 2.17479e+06 0 -450047 2.05942e+06 0 -425576 1.94955e+06 0 -404614 1.84451e+06 0 -386460 1.74373e+06 0 -370557 1.64673e+06 0 -356453 1.5531e+06 0 -343769 1.46253e+06 0 -332188 1.37474e+06 0 -321434 1.28955e+06 0 -311267 1.20682e+06 0 -301473 1.12645e+06 0 -291861 1.04839e+06 0 -282262 972664 0 -272524 899302 0 -262521 828394 0 -252148 760057 0 -241328 694438 0 -230018 631704 0 -218207 572031 0 -205924 515595 0 -193234 462556 0 -180238 413047 0 -167065 367163 0 -153867 324948 0 -140804 286394 0 -128036 251437 0 -115713 219960 0 -103963 191801 0 -92890.3 166763 0 -82570.6 144622 0 -73050.4 125139 0 -64349.6 108070 0 -56465.1 93172 0 -49374.2 80212.5 0 -43040.4 68970.8 0 -37416.4 59242.9 0 -32449.1 50842.1 0 -28082 43600 0 -24257.8 37366.1 0 -20920.8 32006.5 0 -18017.7 27403.5 0 -15498.6 23453.8 0 -13317.7 20067.3 0 -11433.1 17165.4 0 -9807.25 14680.2 0 -8406.55 12552.9 0 -7201.18 10732.7 0 -6164.86 9175.91 0 -5274.47 7844.84 0 -4509.76 6707.15 0 -3853.03 5735.05 0 -3288.78 4904.65 0 -2803.41 4195.32 0 -2384.93 3589.09 0 -2022.81 3069.95 0 -1708.1 2623 0 -1434.38 2233.83 0 -1199.96 1889.83 0 -1007.95 1584.76 0 -858.822 1320.19 0 -606891 2.43785e+06 0 -561568 2.31125e+06 0 -523992 2.19158e+06 0 -492383 2.07772e+06 0 -465565 1.96911e+06 0 -442570 1.86511e+06 0 -422655 1.7652e+06 0 -405220 1.66894e+06 0 -389778 1.57594e+06 0 -375922 1.4859e+06 0 -363310 1.39857e+06 0 -351646 1.31374e+06 0 -340669 1.23128e+06 0 -330151 1.15108e+06 0 -319883 1.07311e+06 0 -309681 997343 0 -299380 923830 0 -288835 852639 0 -277926 783883 0 -266559 717702 0 -254672 654261 0 -242239 593739 0 -229270 536321 0 -215819 482182 0 -201977 431475 0 -187870 384322 0 -173651 340794 0 -159489 300912 0 -145558 264641 0 -132025 231888 0 -119042 202513 0 -106733 176332 0 -95195.3 153133 0 -84493.1 132681 0 -74661.9 114732 0 -65710.1 99043.5 0 -57623.5 85376.8 0 -50369.9 73506.3 0 -43904.2 63221.3 0 -38172.6 54328.5 0 -33116.2 46653.1 0 -28674.3 40037.9 0 -24786.6 34343.5 0 -21394.7 29446.7 0 -18443.5 25239.3 0 -15881.8 21627 0 -13662.8 18527.3 0 -11743.9 15869 0 -10087 13590.1 0 -8658.08 11637.3 0 -7427.08 9964.41 0 -6367.43 8531.79 0 -5455.8 7305.27 0 -4671.78 6255.47 0 -3997.49 5357.12 0 -3417.32 4588.45 0 -2917.58 3930.61 0 -2486.28 3367.13 0 -2113.04 2883.24 0 -1789.26 2465.32 0 -1509.06 2100.69 0 -1270.4 1779.13 0 -1074.08 1495.82 0 -918.121 1251.2 0 -609487 2.32213e+06 0 -568827 2.20455e+06 0 -534658 2.09264e+06 0 -505574 1.98554e+06 0 -480618 1.88282e+06 0 -458988 1.78399e+06 0 -440055 1.68864e+06 0 -423299 1.59644e+06 0 -408289 1.50707e+06 0 -394660 1.42031e+06 0 -382096 1.33596e+06 0 -370322 1.25388e+06 0 -359091 1.17398e+06 0 -348183 1.09618e+06 0 -337398 1.02049e+06 0 -326556 946932 0 -315498 875568 0 -304089 806502 0 -292217 739869 0 -279803 675831 0 -266802 614569 0 -253208 556272 0 -239058 501130 0 -224432 449315 0 -209449 400970 0 -194261 356197 0 -179042 315044 0 -163978 277506 0 -149255 243516 0 -135042 212955 0 -121487 185659 0 -108709 161424 0 -96792.6 140022 0 -85790.8 121214 0 -75725.6 104752 0 -66592.9 90395.9 0 -58367.4 77913.1 0 -51007.1 67086.9 0 -44459.1 57717.2 0 -38663.1 49622.3 0 -33555.4 42638.8 0 -29071.6 36621.1 0 -25148.6 31440.9 0 -21726.1 26985.2 0 -18747.8 23155 0 -16161.6 19864.5 0 -13919.9 17038.9 0 -11979.9 14613.4 0 -10303.3 12532 0 -8855.92 10746.5 0 -7607.56 9215.11 0 -6531.63 7902.02 0 -5604.78 6776.32 0 -4806.55 5811.44 0 -4119.08 4984.5 0 -3526.72 4275.73 0 -3015.82 3668 0 -2574.49 3146.24 0 -2192.54 2696.98 0 -1861.74 2307.91 0 -1576.46 1968.02 0 -1334.07 1668.96 0 -1133.56 1406.76 0 -971.432 1180.99 0 -613255 2.21399e+06 0 -576599 2.10407e+06 0 -545419 1.99883e+06 0 -518589 1.8976e+06 0 -495320 1.80005e+06 0 -474940 1.7058e+06 0 -456911 1.61454e+06 0 -440777 1.52599e+06 0 -426154 1.43993e+06 0 -412712 1.35617e+06 0 -400158 1.27459e+06 0 -388232 1.19507e+06 0 -376701 1.11756e+06 0 -365353 1.04204e+06 0 -353994 968541 0 -342451 897108 0 -330575 827839 0 -318237 760862 0 -305341 696335 0 -291824 634438 0 -277661 575366 0 -262874 519318 0 -247526 466484 0 -231728 417028 0 -215626 371078 0 -199398 328713 0 -183239 289956 0 -167349 254769 0 -151918 223057 0 -137115 194672 0 -123083 169426 0 -109927 147098 0 -97720.4 127450 0 -86501.1 110237 0 -76277.1 95210.6 0 -67031.2 82135.5 0 -58726.9 70787.5 0 -51313 60959.6 0 -44728.9 52463 0 -38908.8 45127.7 0 -33784.6 38802.3 0 -29288.9 33352.7 0 -25356.5 28661.1 0 -21925.8 24624.4 0 -18939.6 21152.9 0 -16345.3 18168.6 0 -14095.1 15603.9 0 -12146.2 13400.4 0 -10460.3 11507.6 0 -9003.34 9882.09 0 -7745.24 8486.27 0 -6659.55 7287.9 0 -5723.05 6259.15 0 -4915.39 5376.11 0 -4218.8 4618.12 0 -3617.76 3967.34 0 -3098.73 3408.23 0 -2649.99 2927.12 0 -2261.61 2511.82 0 -1925.63 2151.31 0 -1636.5 1836.15 0 -1390.96 1559.4 0 -1186.61 1317.64 0 -1019.08 1109.76 0 -618066 2.11225e+06 0 -584872 2.00891e+06 0 -556322 1.90945e+06 0 -531502 1.81335e+06 0 -509752 1.72037e+06 0 -490504 1.6302e+06 0 -473290 1.5426e+06 0 -457710 1.45736e+06 0 -443417 1.37432e+06 0 -430108 1.29333e+06 0 -417509 1.21431e+06 0 -405377 1.13719e+06 0 -393486 1.06194e+06 0 -381634 988597 0 -369634 917195 0 -357321 847825 0 -344554 780608 0 -331219 715696 0 -317235 653269 0 -302558 593523 0 -287192 536666 0 -271184 482902 0 -254631 432415 0 -237674 385360 0 -220489 341844 0 -203277 301919 0 -186252 265576 0 -169620 232746 0 -153575 203303 0 -138280 177071 0 -123867 153841 0 -110428 133377 0 -98019.5 115434 0 -86663.4 99761 0 -76353.2 86116.5 0 -67058.8 74269.4 0 -58732.4 64005.3 0 -51314.2 55128.4 0 -44737 47461.7 0 -38929.7 40847.4 0 -33821 35145.9 0 -29340.9 30234.5 0 -25422.8 26005.7 0 -22004.3 22366.2 0 -19027.6 19234.7 0 -16440.1 16540.8 0 -14194.4 14224 0 -12247.6 12231.6 0 -10561.9 10518.4 0 -9103.54 9045.45 0 -7842.71 7779.15 0 -6753.27 6690.57 0 -5812.27 5754.81 0 -4999.6 4950.41 0 -4297.71 4258.83 0 -3691.26 3664.03 0 -3166.94 3152 0 -2713.25 2710.42 0 -2320.51 2328.32 0 -1981.03 1996 0 -1689.18 1705.34 0 -1441.11 1450.55 0 -1233.46 1228.53 0 -1061.34 1037.76 0 -623811 2.01598e+06 0 -593626 1.91832e+06 0 -567393 1.82391e+06 0 -544359 1.73234e+06 0 -523968 1.6434e+06 0 -505731 1.55688e+06 0 -489239 1.47259e+06 0 -474134 1.39036e+06 0 -460100 1.31008e+06 0 -446856 1.23165e+06 0 -434148 1.15501e+06 0 -421740 1.08014e+06 0 -409419 1.00704e+06 0 -396988 935770 0 -384270 866397 0 -371109 799040 0 -357374 733845 0 -342968 670987 0 -327829 610667 0 -311940 553097 0 -295332 498492 0 -278086 447056 0 -260332 398967 0 -242244 354361 0 -224026 313320 0 -205901 275865 0 -188094 241954 0 -170817 211482 0 -154260 184292 0 -138578 160185 0 -123884 138930 0 -110257 120281 0 -97732.8 103987 0 -86318.4 89798.2 0 -75991.6 77477.5 0 -66709.5 66802.6 0 -58414 57570.1 0 -51037.4 49595.7 0 -44506.4 42715.1 0 -38746 36782.8 0 -33681.7 31671 0 -29242.2 27267.9 0 -25359.7 23476.3 0 -21971.6 20211.8 0 -19020.2 17401.6 0 -16453.2 14982.6 0 -14223.5 12900.4 0 -12289 11108.2 0 -10612.1 9565.54 0 -9159.69 8237.73 0 -7902.53 7094.82 0 -6814.85 6111.06 0 -5874.09 5264.23 0 -5060.51 4535.2 0 -4356.84 3907.42 0 -3748.04 3366.52 0 -3221.07 2899.96 0 -2764.7 2496.72 0 -2369.55 2147.02 0 -2028.06 1842.38 0 -1734.55 1575.86 0 -1484.65 1342.53 0 -1274.31 1139.57 0 -1098.44 965.2 0 -630393 1.92438e+06 0 -602833 1.83168e+06 0 -578641 1.74171e+06 0 -557188 1.65414e+06 0 -538001 1.56882e+06 0 -520653 1.48558e+06 0 -504782 1.40428e+06 0 -490063 1.3248e+06 0 -476208 1.24706e+06 0 -462952 1.171e+06 0 -450055 1.09659e+06 0 -437293 1.02383e+06 0 -424459 952780 0 -411365 883498 0 -397842 816096 0 -383746 750714 0 -368961 687525 0 -353408 626726 0 -337049 568536 0 -319898 513179 0 -302019 460876 0 -283529 411826 0 -264594 366193 0 -245419 324090 0 -226234 285568 0 -207280 250612 0 -188790 219144 0 -170976 191024 0 -154017 166065 0 -138053 144045 0 -123182 124717 0 -109459 107828 0 -96905.5 93122.7 0 -85508 80356.4 0 -75230.4 69299 0 -66017.6 59738.6 0 -57802 51483.6 0 -50508.9 44362.6 0 -44060 38223.9 0 -38376.9 32934.4 0 -33383.2 28377.9 0 -29006.5 24453.3 0 -25178.9 21073.2 0 -21837.6 18162.1 0 -18925.7 15654.7 0 -16391.3 13494.8 0 -14188.1 11634.2 0 -12274.8 10031.2 0 -10614.6 8650.05 0 -9174.91 7459.89 0 -7927.22 6434.23 0 -6846.33 5550.24 0 -5910.16 4788.24 0 -5099.42 4131.26 0 -4397.23 3564.59 0 -3788.91 3075.47 0 -3261.74 2652.74 0 -2804.81 2286.59 0 -2409 1968.41 0 -2066.9 1690.84 0 -1772.73 1447.94 0 -1521.71 1235.5 0 -1309.39 1050.92 0 -1130.57 892.302 0 -637727 1.83682e+06 0 -612458 1.74847e+06 0 -590059 1.66242e+06 0 -569999 1.57841e+06 0 -551864 1.49634e+06 0 -535282 1.41606e+06 0 -519924 1.33747e+06 0 -505497 1.26051e+06 0 -491729 1.18511e+06 0 -478373 1.11124e+06 0 -465198 1.03892e+06 0 -451990 968176 0 -438550 899075 0 -424698 831719 0 -410276 766243 0 -395153 702816 0 -379231 641633 0 -362454 582914 0 -344815 526892 0 -326360 473803 0 -307192 423865 0 -287466 377270 0 -267385 334159 0 -247185 294615 0 -227118 258653 0 -207436 226221 0 -188374 197200 0 -170138 171418 0 -152893 148659 0 -136758 128680 0 -121811 111224 0 -108087 96031.9 0 -95584.2 82850.5 0 -84274.9 71441.3 0 -74107.9 61583.9 0 -65016.9 53078.5 0 -56926 45746.1 0 -49754.3 39428.7 0 -43419.7 33987.5 0 -37841.3 29301.6 0 -32941.6 25266.2 0 -28647.7 21790.6 0 -24891.8 18796.6 0 -21612 16217.1 0 -18752 13994.1 0 -16261 12078 0 -14093.8 10426 0 -12209.7 9001.43 0 -10573.1 7772.71 0 -9152.24 6712.73 0 -7919.28 5798.15 0 -6849.73 5008.87 0 -5922.11 4327.56 0 -5117.65 3739.26 0 -4419.93 3230.99 0 -3814.69 2791.48 0 -3289.58 2410.87 0 -2834.03 2080.52 0 -2439.18 1792.92 0 -2097.75 1541.7 0 -1803.85 1321.81 0 -1552.47 1129.63 0 -1338.88 962.753 0 -1157.9 819.286 0 -645732 1.75275e+06 0 -622463 1.66824e+06 0 -601633 1.58567e+06 0 -582785 1.50484e+06 0 -565556 1.42568e+06 0 -549613 1.34808e+06 0 -534658 1.27198e+06 0 -520417 1.19732e+06 0 -506637 1.12409e+06 0 -493082 1.05227e+06 0 -479529 981919 0 -465773 913082 0 -451624 845858 0 -436910 780377 0 -421487 716801 0 -405239 655323 0 -388091 596163 0 -370016 539563 0 -351041 485767 0 -331252 435015 0 -310791 387521 0 -289857 343458 0 -268686 302939 0 -247542 266011 0 -226694 232649 0 -206400 202757 0 -186891 176179 0 -168357 152709 0 -150944 132108 0 -134750 114116 0 -119828 98468.2 0 -106190 84904.3 0 -93816.8 73176.7 0 -82662.2 63055.9 0 -72662.4 54333 0 -63741.1 46821.5 0 -55815.1 40356.1 0 -48798.8 34792.2 0 -42607.1 30004.1 0 -37157.6 25882.9 0 -32372.3 22334.7 0 -28178.6 19278.8 0 -24509.4 16646 0 -21303.9 14376.7 0 -18506.9 12420.1 0 -16068.9 10732.4 0 -13945.7 9276.19 0 -12098.1 8019.28 0 -10491.3 6934.08 0 -9094.65 5996.86 0 -7881.13 5187.22 0 -6827.02 4487.59 0 -5911.54 3882.82 0 -5116.48 3359.81 0 -4425.97 2907.19 0 -3826.2 2515.09 0 -3305.23 2174.87 0 -2852.83 1878.99 0 -2460.41 1620.94 0 -2120.81 1395.28 0 -1828.11 1197.7 0 -1577.11 1025.09 0 -1362.98 875.254 0 -1180.62 746.361 0 -654331 1.67171e+06 0 -632803 1.59059e+06 0 -613335 1.51112e+06 0 -595528 1.43315e+06 0 -579060 1.35662e+06 0 -563628 1.28146e+06 0 -548958 1.20762e+06 0 -534792 1.13509e+06 0 -520890 1.06386e+06 0 -507025 993973 0 -492985 925479 0 -478569 858468 0 -463597 793064 0 -447909 729424 0 -431375 667736 0 -413901 608222 0 -395440 551125 0 -375997 496701 0 -355641 445207 0 -334501 396880 0 -312765 351921 0 -290670 310475 0 -268487 272621 0 -246502 238364 0 -224993 207632 0 -204217 180287 0 -184393 156136 0 -165691 134941 0 -148232 116444 0 -132089 100374 0 -117289 86462.8 0 -103823 74452.6 0 -91651.6 64104.4 0 -80713.1 55200.1 0 -70931.7 47544.4 0 -62222.9 40964.8 0 -54497.6 35310.3 0 -47666.6 30450.1 0 -41642.8 26271 0 -36343.2 22675.9 0 -31690.2 19581.5 0 -27611.8 16916.6 0 -24042.3 14620.2 0 -20922.1 12640.2 0 -18197.7 10932.1 0 -15820.9 9457.9 0 -13749 8184.84 0 -11944.2 7085.03 0 -10372.7 6134.52 0 -9005.03 5312.71 0 -7815.15 4601.93 0 -6780.16 3986.92 0 -5880.03 3454.54 0 -5097.2 2993.43 0 -4416.38 2593.7 0 -3824.25 2246.79 0 -3309.3 1945.19 0 -2861.67 1682.4 0 -2473.03 1452.82 0 -2136.35 1251.84 0 -1845.71 1075.82 0 -1595.85 922.067 0 -1381.89 788.61 0 -1198.87 673.733 0 -663450 1.59328e+06 0 -643428 1.51518e+06 0 -625128 1.4385e+06 0 -608198 1.36309e+06 0 -592346 1.28894e+06 0 -577294 1.21599e+06 0 -562783 1.14423e+06 0 -548572 1.07366e+06 0 -534429 1.00431e+06 0 -520135 936232 0 -505485 869509 0 -490286 804259 0 -474368 740634 0 -457586 678818 0 -439827 619030 0 -421025 561517 0 -401166 506542 0 -380296 454377 0 -358529 405281 0 -336042 359481 0 -313069 317157 0 -289887 278418 0 -266794 243301 0 -244091 211761 0 -222059 183680 0 -200944 158876 0 -180945 137120 0 -162208 118152 0 -144825 101694 0 -128840 87471.9 0 -114256 75217.1 0 -101041 64680.2 0 -89137.4 55633 0 -78470.1 47871.1 0 -68953 41213.8 0 -60494.4 35503.6 0 -53001 30604.1 0 -46381.1 26397.7 0 -40546.7 22784 0 -35415.1 19677.1 0 -30909.5 17003.7 0 -26959.3 14701.6 0 -23500.5 12717.6 0 -20475.2 11006.4 0 -17831.5 9529.55 0 -15523.1 8254.05 0 -13508.8 7151.8 0 -11752 6198.73 0 -10220.7 5374.22 0 -8886.19 4660.6 0 -7723.64 4042.64 0 -6711.03 3507.26 0 -5829.13 3043.16 0 -5061.08 2640.56 0 -4392.18 2290.97 0 -3809.65 1987.01 0 -3302.43 1722.24 0 -2861.04 1491.11 0 -2477.39 1288.88 0 -2144.64 1111.66 0 -1856.89 956.381 0 -1608.89 820.742 0 -1395.79 703.004 0 -1212.81 601.598 0 -673015 1.51711e+06 0 -654282 1.44172e+06 0 -636967 1.36752e+06 0 -620753 1.29443e+06 0 -605370 1.22244e+06 0 -590561 1.15151e+06 0 -576079 1.08166e+06 0 -561693 1.01291e+06 0 -547179 945313 0 -532326 878947 0 -516932 813923 0 -500818 750386 0 -483822 688518 0 -465818 628533 0 -446718 570678 0 -426487 515226 0 -405153 462459 0 -382809 412657 0 -359621 366074 0 -335816 322920 0 -311674 283339 0 -287505 247398 0 -263629 215083 0 -240353 186296 0 -217951 160872 0 -196650 138587 0 -176623 119180 0 -157983 102373 0 -140795 87878.1 0 -125071 75419.1 0 -110790 64734.8 0 -97898.2 55585.9 0 -86322.3 47758.3 0 -75975.2 41062.8 0 -66762.3 35334.6 0 -58586.6 30431.3 0 -51351.6 26230.9 0 -44964.7 22629.5 0 -39337.8 19538.4 0 -34389.3 16882.5 0 -30043.7 14598.1 0 -26232.5 12631.3 0 -22893.6 10936.2 0 -19971.1 9473.86 0 -17415.1 8211.24 0 -15181 7120.18 0 -13229.6 6176.67 0 -11525.7 5360.19 0 -10038.5 4653.2 0 -8740.85 4040.65 0 -7608.86 3509.6 0 -6621.5 3048.93 0 -5760.36 2649.03 0 -5009.34 2301.59 0 -4354.36 1999.37 0 -3783.19 1736.12 0 -3285.24 1506.38 0 -2851.4 1305.47 0 -2473.87 1129.41 0 -2145.97 974.956 0 -1861.89 839.571 0 -1616.44 721.296 0 -1404.88 618.621 0 -1222.58 530.144 0 -682950 1.44289e+06 0 -665303 1.36991e+06 0 -648796 1.29796e+06 0 -633137 1.22696e+06 0 -618076 1.15692e+06 0 -603366 1.08785e+06 0 -588774 1.01976e+06 0 -574074 952699 0 -559049 886751 0 -543492 822018 0 -527212 758639 0 -510037 696788 0 -491823 636678 0 