<?xml version="1.0"?> 
<VTKFile type="StructuredGrid" version="0.1"> 
<StructuredGrid WholeExtent="0 15 0 15 0 0"> 
<Piece Extent="0 15 0 15 0 0"> 
<PointData>
<DataArray type="Float32" Name="E" format="ascii" NumberOfComponents="3"> 
3.90511e+06 -1.54658e+06 0 3.94875e+06 -1.56386e+06 0 3.99431e+06 -1.58191e+06 0 4.04201e+06 -1.6008e+06 0 4.09209e+06 -1.62063e+06 0 4.14484e+06 -1.64152e+06 0 4.20058e+06 -1.6636e+06 0 4.25967e+06 -1.687e+06 0 4.32251e+06 -1.71189e+06 0 4.38956e+06 -1.73844e+06 0 4.46131e+06 -1.76686e+06 0 4.53836e+06 -1.79737e+06 0 4.62135e+06 -1.83024e+06 0 4.71102e+06 -1.86575e+06 0 4.80818e+06 -1.90423e+06 0 4.91377e+06 -1.94605e+06 0 4.63054e+06 -636100 0 4.65633e+06 -626457 0 4.682e+06 -616205 0 4.70751e+06 -605358 0 4.7328e+06 -593933 0 4.75783e+06 -581956 0 4.78254e+06 -569462 0 4.80685e+06 -556497 0 4.83069e+06 -543116 0 4.85399e+06 -529394 0 4.87665e+06 -515418 0 4.89858e+06 -501296 0 4.91966e+06 -487160 0 4.93977e+06 -473167 0 4.95879e+06 -459504 0 4.97657e+06 -446391 0 4.64783e+06 -98696.1 0 4.65786e+06 -90291.2 0 4.66773e+06 -81712.2 0 4.67743e+06 -72948.9 0 4.68696e+06 -63987.1 0 4.69632e+06 -54807.5 0 4.70551e+06 -45384.8 0 4.71452e+06 -35686.2 0 4.72337e+06 -25670.5 0 4.73204e+06 -15285.9 0 4.74055e+06 -4468.32 0 4.74889e+06 6860.86 0 4.75708e+06 18797.3 0 4.7651e+06 31456.7 0 4.77297e+06 44978.5 0 4.78069e+06 59527.2 0 4.47669e+06 184294 0 4.48037e+06 191901 0 4.48395e+06 199601 0 4.48744e+06 207386 0 4.49083e+06 215243 0 4.49412e+06 223156 0 4.49732e+06 231107 0 4.50041e+06 239070 0 4.50341e+06 247018 0 4.5063e+06 254913 0 4.5091e+06 262711 0 4.51181e+06 270357 0 4.51443e+06 277787 0 4.51697e+06 284922 0 4.51944e+06 291667 0 4.52185e+06 297911 0 4.23215e+06 322324 0 4.23241e+06 328384 0 4.23261e+06 334481 0 4.23275e+06 340617 0 4.23284e+06 346798 0 4.23287e+06 353028 0 4.23284e+06 359316 0 4.23275e+06 365674 0 4.2326e+06 372116 0 4.23239e+06 378659 0 4.23211e+06 385328 0 4.23176e+06 392150 0 4.23133e+06 399162 0 4.23081e+06 406408 0 4.23018e+06 413942 0 4.22945e+06 421828 0 3.96594e+06 378581 0 3.9643e+06 383939 0 3.96262e+06 389324 0 3.96089e+06 394737 0 3.95912e+06 400175 0 3.9573e+06 405633 0 3.95543e+06 411109 0 3.95351e+06 416596 0 3.95154e+06 422085 0 3.94953e+06 427568 0 3.94746e+06 433030 0 3.94536e+06 438456 0 3.94321e+06 443826 0 3.94103e+06 449114 0 3.93883e+06 454290 0 3.93661e+06 459318 0 3.70507e+06 381456 0 3.70248e+06 385831 0 3.69984e+06 390225 0 3.69716e+06 394636 0 3.69445e+06 399064 0 3.6917e+06 403509 0 3.68891e+06 407971 0 3.68608e+06 412452 0 3.68322e+06 416956 0 3.68032e+06 421486 0 3.67738e+06 426048 0 3.6744e+06 430650 0 3.67138e+06 435300 0 3.66832e+06 440013 0 3.6652e+06 444803 0 3.66202e+06 449689 0 3.46834e+06 348648 0 3.46513e+06 352425 0 3.4619e+06 356189 0 3.45865e+06 359944 0 3.45537e+06 363693 0 3.45206e+06 367438 0 3.44873e+06 371181 0 3.44536e+06 374921 0 3.44195e+06 378658 0 3.43852e+06 382391 0 3.43505e+06 386117 0 3.43154e+06 389833 0 3.428e+06 393535 0 3.42444e+06 397215 0 3.42084e+06 400865 0 3.41722e+06 404476 0 3.265e+06 291896 0 3.26157e+06 294561 0 3.25809e+06 297278 0 3.25455e+06 300039 0 3.25097e+06 302836 0 3.24735e+06 305663 0 3.24368e+06 308518 0 3.23998e+06 311396 0 3.23624e+06 314296 0 3.23247e+06 317218 0 3.22867e+06 320160 0 3.22483e+06 323125 0 3.22096e+06 326115 0 3.21705e+06 329132 0 3.21311e+06 332182 0 3.20914e+06 335270 0 3.1056e+06 210523 0 3.10166e+06 213013 0 3.09772e+06 215414 0 3.09377e+06 217745 0 3.08981e+06 220017 0 3.08583e+06 222244 0 3.08182e+06 224433 0 3.07779e+06 226590 0 3.07373e+06 228721 0 3.06963e+06 230829 0 3.0655e+06 232915 0 3.06133e+06 234979 0 3.05713e+06 237020 0 3.05288e+06 239035 0 3.0486e+06 241020 0 3.04427e+06 242968 0 2.99535e+06 115087 0 2.99131e+06 115278 0 2.98717e+06 115660 0 2.98294e+06 116204 0 2.97864e+06 116884 0 2.97426e+06 117680 0 2.96981e+06 118578 0 2.96531e+06 119565 0 2.96076e+06 120634 0 2.95615e+06 121779 0 2.95149e+06 122997 0 2.9468e+06 124290 0 2.94206e+06 125660 0 2.93728e+06 127113 0 2.93246e+06 128658 0 2.92761e+06 130305 0 2.95121e+06 -19070.4 0 2.94606e+06 -17746.1 0 2.94093e+06 -16734 0 2.93578e+06 -15979.5 0 2.93061e+06 -15437.3 0 2.92542e+06 -15071.2 0 2.92018e+06 -14853 0 2.91491e+06 -14761 0 2.90959e+06 -14780 0 2.90421e+06 -14900.4 0 2.89879e+06 -15117.8 0 2.8933e+06 -15433 0 2.88775e+06 -15851.8 0 2.88214e+06 -16385.3 0 2.87647e+06 -17049.9 0 2.87073e+06 -17867.3 0 2.98778e+06 -159059 0 2.98205e+06 -164328 0 2.97615e+06 -168972 0 2.97011e+06 -173082 0 2.96392e+06 -176732 0 2.95761e+06 -179981 0 2.95117e+06 -182874 0 2.94462e+06 -185445 0 2.93795e+06 -187715 0 2.93116e+06 -189698 0 2.92426e+06 -191396 0 2.91725e+06 -192802 0 2.91013e+06 -193900 0 2.9029e+06 -194664 0 2.89556e+06 -195057 0 2.88809e+06 -195033 0 3.14381e+06 -394007 0 3.13648e+06 -394591 0 3.12893e+06 -396092 0 3.12119e+06 -398363 0 3.11326e+06 -401283 0 3.10517e+06 -404758 0 3.09691e+06 -408713 0 3.08851e+06 -413094 0 3.07998e+06 -417866 0 3.07132e+06 -423009 0 3.06257e+06 -428520 0 3.05372e+06 -434409 0 3.0448e+06 -440706 0 3.03584e+06 -447455 0 3.02686e+06 -454718 0 3.01789e+06 -462577 0 3.45406e+06 -586896 0 3.44339e+06 -597986 0 3.43405e+06 -608337 0 3.42581e+06 -618199 0 3.41844e+06 -627781 0 3.41172e+06 -637251 0 3.40543e+06 -646743 0 3.39938e+06 -656358 0 3.39335e+06 -666167 0 3.38715e+06 -676213 0 3.38057e+06 -686512 0 3.37338e+06 -697051 0 3.36536e+06 -707791 0 3.35625e+06 -718663 0 3.34579e+06 -729565 0 3.33369e+06 -740363 0 3.08572e+06 -7.45058e-09 0 3.19248e+06 3.8799e-09 0 3.29281e+06 -1.22236e-09 0 3.38809e+06 -7.71252e-10 0 3.4796e+06 -3.87081e-09 0 3.56852e+06 4.19095e-09 0 3.65597e+06 -4.01633e-09 0 3.74303e+06 3.0268e-09 0 3.83073e+06 -1.28057e-09 0 3.92013e+06 1.16415e-09 0 4.01228e+06 -1.39698e-09 0 4.10827e+06 2.09548e-09 0 4.20926e+06 -1.86265e-09 0 4.31646e+06 1.16415e-09 0 4.4312e+06 4.65661e-10 0 4.55493e+06 -1.11759e-08 0 </DataArray> 
</PointData> 
<Points> 
<DataArray type="Float32" NumberOfComponents="3"> 
0.31051 0.0175 0 0.310576 0.0176667 0 0.310642 0.0178333 0 0.310708 0.018 0 0.310774 0.0181667 0 0.31084 0.0183333 0 0.310906 0.0185 0 0.310972 0.0186667 0 0.311038 0.0188333 0 0.311104 0.019 0 0.31117 0.0191667 0 0.311236 0.0193333 0 0.311302 0.0195 0 0.311368 0.0196667 0 0.311434 0.0198333 0 0.3115 0.02 0 0.316009 0.0178 0 0.316071 0.0179689 0 0.316132 0.0181378 0 0.316194 0.0183067 0 0.316256 0.0184756 0 0.316317 0.0186444 0 0.316379 0.0188133 0 0.31644 0.0189822 0 0.316502 0.0191511 0 0.316564 0.01932 0 0.316625 0.0194889 0 0.316687 0.0196578 0 0.316749 0.0198267 0 0.31681 0.0199956 0 0.316872 0.0201644 0 0.316933 0.0203333 0 0.321509 0.0181 0 0.321566 0.0182711 0 0.321623 0.0184422 0 0.32168 0.0186133 0 0.321737 0.0187844 0 0.321795 0.0189556 0 0.321852 0.0191267 0 0.321909 0.0192978 0 0.321966 0.0194689 0 0.322023 0.01964 0 0.322081 0.0198111 0 0.322138 0.0199822 0 0.322195 0.0201533 0 0.322252 0.0203244 0 0.322309 0.0204956 0 0.322367 0.0206667 0 0.327008 0.0184 0 0.327061 0.0185733 0 0.327114 0.0187467 0 0.327166 0.01892 0 0.327219 0.0190933 0 0.327272 0.0192667 0 0.327325 0.01944 0 0.327378 0.0196133 0 0.32743 0.0197867 0 0.327483 0.01996 0 0.327536 0.0201333 0 0.327589 0.0203067 0 0.327642 0.02048 0 0.327694 0.0206533 0 0.327747 0.0208267 0 0.3278 0.021 0 0.332507 0.0187 0 0.332556 0.0188756 0 0.332604 0.0190511 0 0.332652 0.0192267 0 0.332701 0.0194022 0 0.332749 0.0195778 0 0.332798 0.0197533 0 0.332846 0.0199289 0 0.332894 0.0201044 0 0.332943 0.02028 0 0.332991 0.0204556 0 0.33304 0.0206311 0 0.333088 0.0208067 0 0.333137 0.0209822 0 0.333185 0.0211578 0 0.333233 0.0213333 0 0.338007 0.019 0 0.338051 0.0191778 0 0.338095 0.0193556 0 0.338139 0.0195333 0 0.338183 0.0197111 0 0.338227 0.0198889 0 0.338271 0.0200667 0 0.338315 0.0202444 0 0.338359 0.0204222 0 0.338403 0.0206 0 0.338447 0.0207778 0 0.338491 0.0209556 0 0.338535 0.0211333 0 0.338579 0.0213111 0 0.338623 0.0214889 0 0.338667 0.0216667 0 0.343506 0.0193 0 0.343546 0.01948 0 0.343585 0.01966 0 0.343625 0.01984 0 0.343664 0.02002 0 0.343704 0.0202 0 0.343744 0.02038 0 0.343783 0.02056 0 0.343823 0.02074 0 0.343862 0.02092 0 0.343902 0.0211 0 0.343942 0.02128 0 0.343981 0.02146 0 0.344021 0.02164 0 0.34406 0.02182 0 0.3441 0.022 0 0.349005 0.0196 0 0.34904 0.0197822 0 0.349076 0.0199644 0 0.349111 0.0201467 0 0.349146 0.0203289 0 0.349181 0.0205111 0 0.349217 0.0206933 0 0.349252 0.0208756 0 0.349287 0.0210578 0 0.349322 0.02124 0 0.349357 0.0214222 0 0.349393 0.0216044 0 0.349428 0.0217867 0 0.349463 0.0219689 0 0.349498 0.0221511 0 0.349533 0.0223333 0 0.354505 0.0199 0 0.354535 0.0200844 0 0.354566 0.0202689 0 0.354597 0.0204533 0 0.354628 0.0206378 0 0.354659 0.0208222 0 0.354689 0.0210067 0 0.35472 0.0211911 0 0.354751 0.0213756 0 0.354782 0.02156 0 0.354813 0.0217444 0 0.354843 0.0219289 0 0.354874 0.0221133 0 0.354905 0.0222978 0 0.354936 0.0224822 0 0.354967 0.0226667 0 0.360004 0.0202 0 0.36003 0.0203867 0 0.360057 0.0205733 0 0.360083 0.02076 0 0.36011 0.0209467 0 0.360136 0.0211333 0 0.360162 0.02132 0 0.360189 0.0215067 0 0.360215 0.0216933 0 0.360242 0.02188 0 0.360268 0.0220667 0 0.360294 0.0222533 0 0.360321 0.02244 0 0.360347 0.0226267 0 0.360374 0.0228133 0 0.3604 0.023 0 0.365503 0.0205 0 0.365525 0.0206889 0 0.365547 0.0208778 0 0.365569 0.0210667 0 0.365591 0.0212556 0 0.365613 0.0214444 0 0.365635 0.0216333 0 0.365657 0.0218222 0 0.365679 0.0220111 0 0.365701 0.0222 0 0.365723 0.0223889 0 0.365745 0.0225778 0 0.365767 0.0227667 0 0.365789 0.0229556 0 0.365811 0.0231444 0 0.365833 0.0233333 0 0.371003 0.0208 0 0.37102 0.0209911 0 0.371038 0.0211822 0 0.371055 0.0213733 0 0.371073 0.0215644 0 0.371091 0.0217556 0 0.371108 0.0219467 0 0.371126 0.0221378 0 0.371143 0.0223289 0 0.371161 0.02252 0 0.371179 0.0227111 0 0.371196 0.0229022 0 0.371214 0.0230933 0 0.371231 0.0232844 0 0.371249 0.0234756 0 0.371267 0.0236667 0 0.376502 0.0211 0 0.376515 0.0212933 0 0.376528 0.0214867 0 0.376542 0.02168 0 0.376555 0.0218733 0 0.376568 0.0220667 0 0.376581 0.02226 0 0.376594 0.0224533 0 0.376608 0.0226467 0 0.376621 0.02284 0 0.376634 0.0230333 0 0.376647 0.0232267 0 0.37666 0.02342 0 0.376674 0.0236133 0 0.376687 0.0238067 0 0.3767 0.024 0 0.382001 0.0214 0 0.38201 0.0215956 0 0.382019 0.0217911 0 0.382028 0.0219867 0 0.382037 0.0221822 0 0.382045 0.0223778 0 0.382054 0.0225733 0 0.382063 0.0227689 0 0.382072 0.0229644 0 0.382081 0.02316 0 0.382089 0.0233556 0 0.382098 0.0235511 0 0.382107 0.0237467 0 0.382116 0.0239422 0 0.382125 0.0241378 0 0.382133 0.0243333 0 0.387501 0.0217 0 0.387505 0.0218978 0 0.387509 0.0220956 0 0.387514 0.0222933 0 0.387518 0.0224911 0 0.387523 0.0226889 0 0.387527 0.0228867 0 0.387531 0.0230844 0 0.387536 0.0232822 0 0.38754 0.02348 0 0.387545 0.0236778 0 0.387549 0.0238756 0 0.387553 0.0240733 0 0.387558 0.0242711 0 0.387562 0.0244689 0 0.387567 0.0246667 0 0.393 0.022 0 0.393 0.0222 0 0.393 0.0224 0 0.393 0.0226 0 0.393 0.0228 0 0.393 0.023 0 0.393 0.0232 0 0.393 0.0234 0 0.393 0.0236 0 0.393 0.0238 0 0.393 0.024 0 0.393 0.0242 0 0.393 0.0244 0 0.393 0.0246 0 0.393 0.0248 0 0.393 0.025 0 
</DataArray>
</Points> 
</Piece> 
</StructuredGrid> 
</VTKFile> 
