<?xml version="1.0"?> 
<VTKFile type="StructuredGrid" version="0.1"> 
<StructuredGrid WholeExtent="0 15 0 15 0 0"> 
<Piece Extent="0 15 0 15 0 0"> 
<PointData>
<DataArray type="Float32" Name="E" format="ascii" NumberOfComponents="3"> 
-481317 0 0 -480842 0 0 -480306 0 0 -479714 0 0 -479071 0 0 -478381 0 0 -477653 0 0 -476894 0 0 -476111 0 0 -475312 0 0 -474506 0 0 -473699 0 0 -472898 0 0 -472108 0 0 -471332 0 0 -470574 0 0 -481371 556.262 0 -480894 633.183 0 -480356 706.812 0 -479761 775.131 0 -479113 836.567 0 -478418 889.808 0 -477684 933.871 0 -476919 968.146 0 -476130 992.393 0 -475326 1006.76 0 -474514 1011.75 0 -473702 1008.25 0 -472896 997.432 0 -472103 980.756 0 -471325 959.866 0 -470565 936.824 0 -481532 1112.98 0 -481052 1270.54 0 -480508 1420.72 0 -479902 1560.04 0 -479241 1685.15 0 -478531 1793.35 0 -477779 1882.65 0 -476995 1951.76 0 -476188 2000.22 0 -475365 2028.31 0 -474536 2037.1 0 -473709 2028.36 0 -472890 2004.53 0 -472086 1968.62 0 -471301 1924.1 0 -470538 1874.41 0 -481808 1672.21 0 -481323 1916.31 0 -480767 2149.31 0 -480143 2365.12 0 -479459 2558.52 0 -478721 2725.25 0 -477940 2862.15 0 -477124 2967.26 0 -476283 3039.85 0 -475429 3080.37 0 -474570 3090.48 0 -473716 3072.94 0 -472874 3031.58 0 -472052 2971.15 0 -471256 2897.1 0 -470487 2815.53 0 -482210 2234.01 0 -481716 2575.43 0 -481142 2901.06 0 -480492 3202.12 0 -479773 3471.08 0 -478996 3701.89 0 -478169 3890.1 0 -477305 4033.02 0 -476417 4129.61 0 -475515 4180.54 0 -474611 4188.11 0 -473717 4156.2 0 -472842 4090.2 0 -471994 3996.85 0 -471179 3884.03 0 -470400 3760.5 0 -482751 2798.43 0 -482248 3253.66 0 -481650 3686.07 0 -480962 4084.96 0 -480196 4439.83 0 -479361 4742.52 0 -478472 4987.2 0 -477543 5170.39 0 -476587 5290.81 0 -475619 5349.37 0 -474654 5349.05 0 -473704 5294.92 0 -472781 5194.13 0 -471896 5055.78 0 -471056 4890.85 0 -470269 4709.8 0 -483461 3372.29 0 -482942 3957.3 0 -482309 4517.02 0 -481571 5030.93 0 -480739 5485.6 0 -479829 5870.47 0 -478856 6178.26 0 -477838 6404.87 0 -476793 6548.91 0 -475738 6611.53 0 -474689 6596.38 0 -473664 6509.68 0 -472677 6360.45 0 -471741 6160.56 0 -470867 5924.11 0 -470059 5672.2 0 -484360 3936.45 0 -483828 4697.68 0 -483150 5410.15 0 -482342 6062.33 0 -481423 6634.83 0 -480411 7114.62 0 -479328 7493.52 0 -478196 7767.21 0 -477034 7934.56 0 -475865 7997.06 0 -474707 7958.72 0 -473581 7826.58 0 -472508 7611.2 0 -471504 7327.37 0 -470584 6995.44 0 -469764 6625.15 0 -485518 4544.77 0 -484950 5481.52 0 -484209 6389.05 0 -483307 7209.43 0 -482270 7921.86 0 -481124 8511.33 0 -479899 8969.74 0 -478619 9294.19 0 -477310 9484.53 0 -475994 9542.57 0 -474694 9472.12 0 -473437 9279.58 0 -472247 8976.23 0 -471150 8579.56 0 -470166 8111.75 0 -469303 7634.73 0 -486954 5067.83 0 -486370 6342.61 0 -485539 7486.43 0 -484504 8515.07 0 -483306 9393.03 0 -481985 10106.2 0 -480577 10651.1 0 -479113 11028.6 0 -477620 11241.5 0 -476120 11292.1 0 -474640 11181.9 0 -473209 10914.5 0 -471861 10497.7 0 -470631 9949.44 0 -469558 9307.25 0 -468682 8546.76 0 -488842 5801.47 0 -488177 7281.06 0 -487207 8761.06 0 -485978 10044.5 0 -484556 11111.6 0 -483004 11956.7 0 -481368 12587.8 0 -479681 13016.9 0 -477967 13252 0 -476244 13295.6 0 -474538 13145 0 -472878 12793.6 0 -471308 12239.8 0 -469888 11494.7 0 -468677 10581.8 0 -467705 9715.38 0 -491234 6103.11 0 -490513 8430.25 0 -489311 10306.8 0 -487773 11901.3 0 -486033 13166.8 0 -484180 14130.4 0 -482268 14832.3 0 -480323 15302.7 0 -478357 15559.7 0 -476378 15605.9 0 -474397 15428.7 0 -472439 15005 0 -470557 14303.4 0 -468834 13306.8 0 -467393 12068.8 0 -466374 10386.6 0 -494542 7290.01 0 -493621 9791.39 0 -491961 12339.3 0 -489906 14262.2 0 -487704 15676.2 0 -485474 16699.6 0 -483251 17425.1 0 -481033 17913.8 0 -478806 18192.7 0 -476554 18263.8 0 -474261 18105.4 0 -471931 17664 0 -469597 16859.6 0 -467373 15592.5 0 -465487 13767.7 0 -464243 12116 0 -499520 6719.59 0 -497954 12075.4 0 -495224 15290.8 0 -492263 17400.7 0 -489437 18769.7 0 -486791 19705.8 0 -484263 20372.5 0 -481797 20840.7 0 -479338 21141.8 0 -476835 21277.2 0 -474238 21217.7 0 -471493 20899 0 -468548 20170.6 0 -465456 18757.6 0 -462562 16356.8 0 -460666 11891.3 0 -507620 8597.81 0 -504268 16562.2 0 -498655 20125.9 0 -494342 21599.4 0 -490938 22467.2 0 -487963 23103.2 0 -485231 23607 0 -482596 24018.2 0 -479981 24343.3 0 -477307 24581.4 0 -474499 24725.2 0 -471420 24733.9 0 -467903 24512.3 0 -463506 23707.5 0 -457928 20947.8 0 -454829 14502.4 0 -552621 38992.3 0 -508682 29458.6 0 -499697 27133.2 0 -495333 26491.4 0 -491804 26461.7 0 -488874 26675 0 -486089 26982 0 -483424 27324.2 0 -480753 27675.8 0 -478044 28034.1 0 -475171 28419.9 0 -472120 28882.2 0 -468444 29552.6 0 -463964 30758.7 0 -455025 33465 0 -411974 42844.7 0 </DataArray> 
</PointData> 
<Points> 
<DataArray type="Float32" NumberOfComponents="3"> 
0 0.052 0 0 0.0526667 0 0 0.0533333 0 0 0.054 0 0 0.0546667 0 0 0.0553333 0 0 0.056 0 0 0.0566667 0 0 0.0573333 0 0 0.058 0 0 0.0586667 0 0 0.0593333 0 0 0.06 0 0 0.0606667 0 0 0.0613333 0 0 0.062 0 0.000833333 0.052 0 0.000833333 0.0526667 0 0.000833333 0.0533333 0 0.000833333 0.054 0 0.000833333 0.0546667 0 0.000833333 0.0553333 0 0.000833333 0.056 0 0.000833333 0.0566667 0 0.000833333 0.0573333 0 0.000833333 0.058 0 0.000833333 0.0586667 0 0.000833333 0.0593333 0 0.000833333 0.06 0 0.000833333 0.0606667 0 0.000833333 0.0613333 0 0.000833333 0.062 0 0.00166667 0.052 0 0.00166667 0.0526667 0 0.00166667 0.0533333 0 0.00166667 0.054 0 0.00166667 0.0546667 0 0.00166667 0.0553333 0 0.00166667 0.056 0 0.00166667 0.0566667 0 0.00166667 0.0573333 0 0.00166667 0.058 0 0.00166667 0.0586667 0 0.00166667 0.0593333 0 0.00166667 0.06 0 0.00166667 0.0606667 0 0.00166667 0.0613333 0 0.00166667 0.062 0 0.0025 0.052 0 0.0025 0.0526667 0 0.0025 0.0533333 0 0.0025 0.054 0 0.0025 0.0546667 0 0.0025 0.0553333 0 0.0025 0.056 0 0.0025 0.0566667 0 0.0025 0.0573333 0 0.0025 0.058 0 0.0025 0.0586667 0 0.0025 0.0593333 0 0.0025 0.06 0 0.0025 0.0606667 0 0.0025 0.0613333 0 0.0025 0.062 0 0.00333333 0.052 0 0.00333333 0.0526667 0 0.00333333 0.0533333 0 0.00333333 0.054 0 0.00333333 0.0546667 0 0.00333333 0.0553333 0 0.00333333 0.056 0 0.00333333 0.0566667 0 0.00333333 0.0573333 0 0.00333333 0.058 0 0.00333333 0.0586667 0 0.00333333 0.0593333 0 0.00333333 0.06 0 0.00333333 0.0606667 0 0.00333333 0.0613333 0 0.00333333 0.062 0 0.00416667 0.052 0 0.00416667 0.0526667 0 0.00416667 0.0533333 0 0.00416667 0.054 0 0.00416667 0.0546667 0 0.00416667 0.0553333 0 0.00416667 0.056 0 0.00416667 0.0566667 0 0.00416667 0.0573333 0 0.00416667 0.058 0 0.00416667 0.0586667 0 0.00416667 0.0593333 0 0.00416667 0.06 0 0.00416667 0.0606667 0 0.00416667 0.0613333 0 0.00416667 0.062 0 0.005 0.052 0 0.005 0.0526667 0 0.005 0.0533333 0 0.005 0.054 0 0.005 0.0546667 0 0.005 0.0553333 0 0.005 0.056 0 0.005 0.0566667 0 0.005 0.0573333 0 0.005 0.058 0 0.005 0.0586667 0 0.005 0.0593333 0 0.005 0.06 0 0.005 0.0606667 0 0.005 0.0613333 0 0.005 0.062 0 0.00583333 0.052 0 0.00583333 0.0526667 0 0.00583333 0.0533333 0 0.00583333 0.054 0 0.00583333 0.0546667 0 0.00583333 0.0553333 0 0.00583333 0.056 0 0.00583333 0.0566667 0 0.00583333 0.0573333 0 0.00583333 0.058 0 0.00583333 0.0586667 0 0.00583333 0.0593333 0 0.00583333 0.06 0 0.00583333 0.0606667 0 0.00583333 0.0613333 0 0.00583333 0.062 0 0.00666667 0.052 0 0.00666667 0.0526667 0 0.00666667 0.0533333 0 0.00666667 0.054 0 0.00666667 0.0546667 0 0.00666667 0.0553333 0 0.00666667 0.056 0 0.00666667 0.0566667 0 0.00666667 0.0573333 0 0.00666667 0.058 0 0.00666667 0.0586667 0 0.00666667 0.0593333 0 0.00666667 0.06 0 0.00666667 0.0606667 0 0.00666667 0.0613333 0 0.00666667 0.062 0 0.0075 0.052 0 0.0075 0.0526667 0 0.0075 0.0533333 0 0.0075 0.054 0 0.0075 0.0546667 0 0.0075 0.0553333 0 0.0075 0.056 0 0.0075 0.0566667 0 0.0075 0.0573333 0 0.0075 0.058 0 0.0075 0.0586667 0 0.0075 0.0593333 0 0.0075 0.06 0 0.0075 0.0606667 0 0.0075 0.0613333 0 0.0075 0.062 0 0.00833333 0.052 0 0.00833333 0.0526667 0 0.00833333 0.0533333 0 0.00833333 0.054 0 0.00833333 0.0546667 0 0.00833333 0.0553333 0 0.00833333 0.056 0 0.00833333 0.0566667 0 0.00833333 0.0573333 0 0.00833333 0.058 0 0.00833333 0.0586667 0 0.00833333 0.0593333 0 0.00833333 0.06 0 0.00833333 0.0606667 0 0.00833333 0.0613333 0 0.00833333 0.062 0 0.00916667 0.052 0 0.00916667 0.0526667 0 0.00916667 0.0533333 0 0.00916667 0.054 0 0.00916667 0.0546667 0 0.00916667 0.0553333 0 0.00916667 0.056 0 0.00916667 0.0566667 0 0.00916667 0.0573333 0 0.00916667 0.058 0 0.00916667 0.0586667 0 0.00916667 0.0593333 0 0.00916667 0.06 0 0.00916667 0.0606667 0 0.00916667 0.0613333 0 0.00916667 0.062 0 0.01 0.052 0 0.01 0.0526667 0 0.01 0.0533333 0 0.01 0.054 0 0.01 0.0546667 0 0.01 0.0553333 0 0.01 0.056 0 0.01 0.0566667 0 0.01 0.0573333 0 0.01 0.058 0 0.01 0.0586667 0 0.01 0.0593333 0 0.01 0.06 0 0.01 0.0606667 0 0.01 0.0613333 0 0.01 0.062 0 0.0108333 0.052 0 0.0108333 0.0526667 0 0.0108333 0.0533333 0 0.0108333 0.054 0 0.0108333 0.0546667 0 0.0108333 0.0553333 0 0.0108333 0.056 0 0.0108333 0.0566667 0 0.0108333 0.0573333 0 0.0108333 0.058 0 0.0108333 0.0586667 0 0.0108333 0.0593333 0 0.0108333 0.06 0 0.0108333 0.0606667 0 0.0108333 0.0613333 0 0.0108333 0.062 0 0.0116667 0.052 0 0.0116667 0.0526667 0 0.0116667 0.0533333 0 0.0116667 0.054 0 0.0116667 0.0546667 0 0.0116667 0.0553333 0 0.0116667 0.056 0 0.0116667 0.0566667 0 0.0116667 0.0573333 0 0.0116667 0.058 0 0.0116667 0.0586667 0 0.0116667 0.0593333 0 0.0116667 0.06 0 0.0116667 0.0606667 0 0.0116667 0.0613333 0 0.0116667 0.062 0 0.0125 0.052 0 0.0125 0.0526667 0 0.0125 0.0533333 0 0.0125 0.054 0 0.0125 0.0546667 0 0.0125 0.0553333 0 0.0125 0.056 0 0.0125 0.0566667 0 0.0125 0.0573333 0 0.0125 0.058 0 0.0125 0.0586667 0 0.0125 0.0593333 0 0.0125 0.06 0 0.0125 0.0606667 0 0.0125 0.0613333 0 0.0125 0.062 0 
</DataArray>
</Points> 
</Piece> 
</StructuredGrid> 
</VTKFile> 
