<?xml version="1.0"?> 
<VTKFile type="StructuredGrid" version="0.1"> 
<StructuredGrid WholeExtent="0 15 0 15 0 0"> 
<Piece Extent="0 15 0 15 0 0"> 
<PointData>
<DataArray type="Float32" Name="E" format="ascii" NumberOfComponents="3"> 
-272095 93386.8 0 -250924 91032.2 0 -230257 88814.4 0 -210074 86712.5 0 -190354 84709.5 0 -171079 82791.4 0 -152233 80946.5 0 -133800 79164.9 0 -115768 77438.3 0 -98127.1 75759.4 0 -80866 74122.1 0 -63976.6 72521 0 -47451.5 70951.5 0 -31284 69409.6 0 -15468.5 67891.8 0 0 66395.1 0 -286776 181916 0 -264526 178774 0 -242800 175808 0 -221573 172992 0 -200823 170303 0 -180531 167721 0 -160681 165228 0 -141258 162808 0 -122249 160445 0 -103642 158127 0 -85428.2 155844 0 -67599.1 153584 0 -50147.4 151340 0 -33067 149104 0 -16352.7 146868 0 0 144627 0 -305536 274216 0 -282002 270142 0 -259008 266319 0 -236525 262704 0 -214525 259260 0 -192987 255956 0 -171892 252763 0 -151224 249655 0 -130969 246610 0 -111116 243608 0 -91655.8 240631 0 -72579.1 237663 0 -53880 234690 0 -35553 231701 0 -17594.1 228682 0 0 225626 0 -328975 371396 0 -303982 366301 0 -279520 361554 0 -255557 357093 0 -232064 352864 0 -209019 348818 0 -186400 344914 0 -164190 341113 0 -142375 337383 0 -120943 333693 0 -99885.5 330018 0 -79193.8 326333 0 -58862.8 322617 0 -38888.3 318852 0 -19267.8 315020 0 0 311106 0 -358035 474686 0 -331351 468535 0 -305175 462851 0 -279469 457551 0 -254201 452557 0 -229344 447803 0 -204874 443229 0 -180774 438783 0 -157027 434417 0 -133621 430090 0 -110548 425763 0 -87799.3 421401 0 -65371.7 416975 0 -43262.6 412456 0 -21471.6 407819 0 0 403042 0 -393761 585601 0 -365133 578373 0 -336968 571771 0 -309221 565679 0 -281855 559993 0 -254837 554622 0 -228141 549483 0 -201743 544505 0 -175627 539621 0 -149779 534773 0 -124189 529908 0 -98851.6 524975 0 -73762.7 519933 0 -48922.4 514739 0 -24333.2 509359 0 0 503758 0 -437357 705805 0 -406513 697511 0 -376067 690056 0 -345962 683281 0 -316147 677046 0 -286582 671228 0 -257233 665715 0 -228071 660408 0 -199075 655216 0 -170230 650059 0 -141523 644861 0 -112949 639554 0 -84505.2 634076 0 -56194.6 628368 0 -28023 622378 0 0 616058 0 -490211 837071 0 -456916 827783 0 -423915 819617 0 -391131 812362 0 -358499 805830 0 -325967 799853 0 -293489 794283 0 -261027 788983 0 -228554 783830 0 -196049 778710 0 -163497 773521 0 -130891 768165 0 -98231.3 762554 0 -65521.5 756606 0 -32772.5 750245 0 0 743400 0 -554130 981296 0 -518178 971178 0 -482369 962567 0 -446598 955180 0 -410776 948765 0 -374827 943098 0 -338688 937975 0 -302309 933213 0 -265649 928641 0 -228681 924103 0 -191386 919453 0 -153756 914557 0 -115790 909290 0 -77496.3 903536 0 -38892.2 897185 0 0 890138 0 -631375 1.14049e+06 0 -592670 1.12986e+06 0 -553880 1.12127e+06 0 -514858 1.11432e+06 0 -475476 1.10869e+06 0 -435628 1.10407e+06 0 -395223 1.10018e+06 0 -354192 1.09678e+06 0 -312478 1.09361e+06 0 -270046 1.09047e+06 0 -226871 1.08715e+06 0 -182946 1.08346e+06 0 -138276 1.07923e+06 0 -92877.5 1.07431e+06 0 -46774.4 1.06854e+06 0 0 1.06178e+06 0 -725010 1.31676e+06 0 -683610 1.30622e+06 0 -641779 1.29842e+06 0 -599305 1.29286e+06 0 -556004 1.28908e+06 0 -511716 1.28666e+06 0 -466315 1.28521e+06 0 -419702 1.28438e+06 0 -371807 1.28383e+06 0 -322589 1.28325e+06 0 -272033 1.28235e+06 0 -220148 1.28089e+06 0 -166959 1.27863e+06 0 -112505 1.27536e+06 0 -56835.7 1.27089e+06 0 0 1.26507e+06 0 -839214 1.51241e+06 0 -795432 1.503e+06 0 -750689 1.49731e+06 0 -704655 1.49467e+06 0 -657044 1.49444e+06 0 -607623 1.49602e+06 0 -556211 1.49883e+06 0 -502686 1.50235e+06 0 -446984 1.50609e+06 0 -389094 1.50961e+06 0 -329057 1.51249e+06 0 -266949 1.51441e+06 0 -202876 1.51507e+06 0 -136954 1.51425e+06 0 -69296.8 1.51178e+06 0 0 1.50753e+06 0 -979857 1.72989e+06 0 -934492 1.72342e+06 0 -887255 1.72213e+06 0 -837613 1.72502e+06 0 -785116 1.73113e+06 0 -729412 1.73952e+06 0 -670270 1.74932e+06 0 -607587 1.75968e+06 0 -541391 1.76983e+06 0 -471828 1.7791e+06 0 -399143 1.78695e+06 0 -323645 1.79295e+06 0 -245674 1.79685e+06 0 -165564 1.79851e+06 0 -83601.5 1.79794e+06 0 0 1.79527e+06 0 -1.15594e+06 1.97176e+06 0 -1.11047e+06 1.97179e+06 0 -1.06147e+06 1.97906e+06 0 -1.00799e+06 1.99207e+06 0 -949276 2.00925e+06 0 -884804 2.02899e+06 0 -814371 2.04972e+06 0 -738095 2.06997e+06 0 -656404 2.08848e+06 0 -569977 2.10426e+06 0 -479667 2.11665e+06 0 -386397 2.12534e+06 0 -291074 2.13034e+06 0 -194503 2.13198e+06 0 -97330.2 2.13081e+06 0 0 2.12761e+06 0 -1.38171e+06 2.24167e+06 0 -1.33896e+06 2.25485e+06 0 -1.28923e+06 2.2787e+06 0 -1.23065e+06 2.31045e+06 0 -1.16187e+06 2.34702e+06 0 -1.0823e+06 2.38516e+06 0 -992230 2.42178e+06 0 -892797 2.45421e+06 0 -785821 2.48048e+06 0 -673515 2.49947e+06 0 -558194 2.51089e+06 0 -442024 2.51521e+06 0 -326862 2.51346e+06 0 -214165 2.50713e+06 0 -104986 2.49795e+06 0 0 2.48784e+06 0 -1.68246e+06 2.54381e+06 0 -1.64738e+06 2.58487e+06 0 -1.5971e+06 2.64244e+06 0 -1.52756e+06 2.71025e+06 0 -1.43671e+06 2.78096e+06 0 -1.32507e+06 2.84713e+06 0 -1.19573e+06 2.90246e+06 0 -1.05359e+06 2.94281e+06 0 -904350 2.96649e+06 0 -753448 2.97399e+06 0 -605500 2.96738e+06 0 -464019 2.94963e+06 0 -331459 2.92412e+06 0 -209388 2.89427e+06 0 -98727.5 2.86338e+06 0 0 2.8345e+06 0 </DataArray> 
</PointData> 
<Points> 
<DataArray type="Float32" NumberOfComponents="3"> 
0.0125 0.085 0 0.0125 0.0878667 0 0.0125 0.0907333 0 0.0125 0.0936 0 0.0125 0.0964667 0 0.0125 0.0993333 0 0.0125 0.1022 0 0.0125 0.105067 0 0.0125 0.107933 0 0.0125 0.1108 0 0.0125 0.113667 0 0.0125 0.116533 0 0.0125 0.1194 0 0.0125 0.122267 0 0.0125 0.125133 0 0.0125 0.128 0 0.024 0.0836667 0 0.0242 0.0866222 0 0.0244 0.0895778 0 0.0246 0.0925333 0 0.0248 0.0954889 0 0.025 0.0984444 0 0.0252 0.1014 0 0.0254 0.104356 0 0.0256 0.107311 0 0.0258 0.110267 0 0.026 0.113222 0 0.0262 0.116178 0 0.0264 0.119133 0 0.0266 0.122089 0 0.0268 0.125044 0 0.027 0.128 0 0.0355 0.0823333 0 0.0359 0.0853778 0 0.0363 0.0884222 0 0.0367 0.0914667 0 0.0371 0.0945111 0 0.0375 0.0975556 0 0.0379 0.1006 0 0.0383 0.103644 0 0.0387 0.106689 0 0.0391 0.109733 0 0.0395 0.112778 0 0.0399 0.115822 0 0.0403 0.118867 0 0.0407 0.121911 0 0.0411 0.124956 0 0.0415 0.128 0 0.047 0.081 0 0.0476 0.0841333 0 0.0482 0.0872667 0 0.0488 0.0904 0 0.0494 0.0935333 0 0.05 0.0966667 0 0.0506 0.0998 0 0.0512 0.102933 0 0.0518 0.106067 0 0.0524 0.1092 0 0.053 0.112333 0 0.0536 0.115467 0 0.0542 0.1186 0 0.0548 0.121733 0 0.0554 0.124867 0 0.056 0.128 0 0.0585 0.0796667 0 0.0593 0.0828889 0 0.0601 0.0861111 0 0.0609 0.0893333 0 0.0617 0.0925556 0 0.0625 0.0957778 0 0.0633 0.099 0 0.0641 0.102222 0 0.0649 0.105444 0 0.0657 0.108667 0 0.0665 0.111889 0 0.0673 0.115111 0 0.0681 0.118333 0 0.0689 0.121556 0 0.0697 0.124778 0 0.0705 0.128 0 0.07 0.0783333 0 0.071 0.0816444 0 0.072 0.0849556 0 0.073 0.0882667 0 0.074 0.0915778 0 0.075 0.0948889 0 0.076 0.0982 0 0.077 0.101511 0 0.078 0.104822 0 0.079 0.108133 0 0.08 0.111444 0 0.081 0.114756 0 0.082 0.118067 0 0.083 0.121378 0 0.084 0.124689 0 0.085 0.128 0 0.0815 0.077 0 0.0827 0.0804 0 0.0839 0.0838 0 0.0851 0.0872 0 0.0863 0.0906 0 0.0875 0.094 0 0.0887 0.0974 0 0.0899 0.1008 0 0.0911 0.1042 0 0.0923 0.1076 0 0.0935 0.111 0 0.0947 0.1144 0 0.0959 0.1178 0 0.0971 0.1212 0 0.0983 0.1246 0 0.0995 0.128 0 0.093 0.0756667 0 0.0944 0.0791556 0 0.0958 0.0826444 0 0.0972 0.0861333 0 0.0986 0.0896222 0 0.1 0.0931111 0 0.1014 0.0966 0 0.1028 0.100089 0 0.1042 0.103578 0 0.1056 0.107067 0 0.107 0.110556 0 0.1084 0.114044 0 0.1098 0.117533 0 0.1112 0.121022 0 0.1126 0.124511 0 0.114 0.128 0 0.1045 0.0743333 0 0.1061 0.0779111 0 0.1077 0.0814889 0 0.1093 0.0850667 0 0.1109 0.0886444 0 0.1125 0.0922222 0 0.1141 0.0958 0 0.1157 0.0993778 0 0.1173 0.102956 0 0.1189 0.106533 0 0.1205 0.110111 0 0.1221 0.113689 0 0.1237 0.117267 0 0.1253 0.120844 0 0.1269 0.124422 0 0.1285 0.128 0 0.116 0.073 0 0.1178 0.0766667 0 0.1196 0.0803333 0 0.1214 0.084 0 0.1232 0.0876667 0 0.125 0.0913333 0 0.1268 0.095 0 0.1286 0.0986667 0 0.1304 0.102333 0 0.1322 0.106 0 0.134 0.109667 0 0.1358 0.113333 0 0.1376 0.117 0 0.1394 0.120667 0 0.1412 0.124333 0 0.143 0.128 0 0.1275 0.0716667 0 0.1295 0.0754222 0 0.1315 0.0791778 0 0.1335 0.0829333 0 0.1355 0.0866889 0 0.1375 0.0904444 0 0.1395 0.0942 0 0.1415 0.0979556 0 0.1435 0.101711 0 0.1455 0.105467 0 0.1475 0.109222 0 0.1495 0.112978 0 0.1515 0.116733 0 0.1535 0.120489 0 0.1555 0.124244 0 0.1575 0.128 0 0.139 0.0703333 0 0.1412 0.0741778 0 0.1434 0.0780222 0 0.1456 0.0818667 0 0.1478 0.0857111 0 0.15 0.0895556 0 0.1522 0.0934 0 0.1544 0.0972444 0 0.1566 0.101089 0 0.1588 0.104933 0 0.161 0.108778 0 0.1632 0.112622 0 0.1654 0.116467 0 0.1676 0.120311 0 0.1698 0.124156 0 0.172 0.128 0 0.1505 0.069 0 0.1529 0.0729333 0 0.1553 0.0768667 0 0.1577 0.0808 0 0.1601 0.0847333 0 0.1625 0.0886667 0 0.1649 0.0926 0 0.1673 0.0965333 0 0.1697 0.100467 0 0.1721 0.1044 0 0.1745 0.108333 0 0.1769 0.112267 0 0.1793 0.1162 0 0.1817 0.120133 0 0.1841 0.124067 0 0.1865 0.128 0 0.162 0.0676667 0 0.1646 0.0716889 0 0.1672 0.0757111 0 0.1698 0.0797333 0 0.1724 0.0837556 0 0.175 0.0877778 0 0.1776 0.0918 0 0.1802 0.0958222 0 0.1828 0.0998444 0 0.1854 0.103867 0 0.188 0.107889 0 0.1906 0.111911 0 0.1932 0.115933 0 0.1958 0.119956 0 0.1984 0.123978 0 0.201 0.128 0 0.1735 0.0663333 0 0.1763 0.0704444 0 0.1791 0.0745556 0 0.1819 0.0786667 0 0.1847 0.0827778 0 0.1875 0.0868889 0 0.1903 0.091 0 0.1931 0.0951111 0 0.1959 0.0992222 0 0.1987 0.103333 0 0.2015 0.107444 0 0.2043 0.111556 0 0.2071 0.115667 0 0.2099 0.119778 0 0.2127 0.123889 0 0.2155 0.128 0 0.185 0.065 0 0.188 0.0692 0 0.191 0.0734 0 0.194 0.0776 0 0.197 0.0818 0 0.2 0.086 0 0.203 0.0902 0 0.206 0.0944 0 0.209 0.0986 0 0.212 0.1028 0 0.215 0.107 0 0.218 0.1112 0 0.221 0.1154 0 0.224 0.1196 0 0.227 0.1238 0 0.23 0.128 0 
</DataArray>
</Points> 
</Piece> 
</StructuredGrid> 
</VTKFile> 
