<?xml version="1.0"?> 
<VTKFile type="StructuredGrid" version="0.1"> 
<StructuredGrid WholeExtent="0 15 0 15 0 0"> 
<Piece Extent="0 15 0 15 0 0"> 
<PointData>
<DataArray type="Float32" Name="E" format="ascii" NumberOfComponents="3"> 
738940 0.676259 0 735903 55736.5 0 726689 111537 0 710986 167431 0 688252 223373 0 657691 279188 0 618216 334478 0 568412 388490 0 506517 439895 0 430449 486432 0 338102 524396 0 227731 547844 0 100141 547757 0 -39766.1 511485 0 -175223 424677 0 -271879 271879 0 651816 -0.518664 0 648443 53514.1 0 638221 106920 0 620830 160058 0 595730 212652 0 562148 264228 0 519076 313992 0 465300 360657 0 399508 402172 0 320533 435401 0 228016 455628 0 123553 456363 0 13018.6 429487 0 -89899.8 367821 0 -161217 273117 0 -176944 176944 0 572775 -2.14709 0 569144 50825.5 0 558151 101355 0 539501 151224 0 512707 199915 0 477108 246655 0 431912 290279 0 376323 329038 0 309768 360389 0 232417 380733 0 146023 385425 0 55386.9 369160 0 -29981.1 328100 0 -95648.7 264221 0 -128653 192604 0 -132640 132640 0 501608 -3.34732 0 497799 47811.9 0 486288 95137.4 0 466831 141409 0 439044 185877 0 402455 227505 0 356607 264827 0 301260 295807 0 236764 317699 0 164653 327093 0 88543.6 320300 0 15031.4 294703 0 -46421 251245 0 -86616.6 197648 0 -103934 146222 0 -105606 105606 0 437950 -5.05852 0 434043 44603.4 0 422262 88539.6 0 402437 131053 0 374326 171194 0 337704 207719 0 292517 238977 0 239145 262832 0 178823 276698 0 114213 277817 0 49960.3 264099 0 -7333.8 235605 0 -50667.9 196354 0 -76486.5 154143 0 -86874.3 116611 0 -87240.2 87240.2 0 381324 -6.1766 0 377393 41313.9 0 365570 81799 0 345772 120539 0 317930 156427 0 282092 188086 0 238621 213800 0 188480 231532 0 133621 239106 0 77373.5 234714 0 24510.9 217843 0 -19498.3 190436 0 -50589.6 157308 0 -68134.1 124512 0 -74969.8 96490 0 -74859 74859 0 331187 -7.437 0 327297 38036.7 0 315627 75109.6 0 296194 110175 0 269104 142018 0 234685 169204 0 193683 190063 0 147536 202803 0 98661.8 205809 0 50580.4 198232 0 7589.19 180779 0 -26382 156261 0 -49307.4 129091 0 -61913.6 103586 0 -66642.4 82378.6 0 -66252.4 66252.4 0 286961 -8.31768 0 283165 34844.4 0 271807 68620.1 0 253004 100192 0 227037 128287 0 194482 151480 0 156408 168234 0 114585 177087 0 71634.4 177012 0 30924.4 167966 0 -4029.57 151403 0 -30608.4 130297 0 -48072.7 108299 0 -57511.9 88434.1 0 -60981.2 72351.2 0 -60442.9 60442.9 0 248063 -9.05634 0 244401 31789.8 0 233477 62436.7 0 215502 90749.6 0 190910 115443 0 160492 135152 0 125553 148531 0 88050 154475 0 50605.1 152486 0 16218.3 143107 0 -12382.8 128144 0 -33581.3 110376 0 -47293.3 92707.5 0 -54681.1 77299.8 0 -57347.3 65236.8 0 -56737.2 56737.2 0 213926 -9.54049 0 210428 28908 0 200024 56628.4 0 183006 81946.4 0 159942 103599 0 131786 120323 0 99995 130986 0 66590 134825 0 34046.8 131775 0 4925.02 122748 0 -18744.5 109641 0 -36012.3 94909 0 -47139.8 80848.6 0 -53177.4 69055.2 0 -55380.8 60306 0 -54751.9 54751.9 0 184014 -9.83756 0 180699 26219.6 0 170869 51233 0 154884 73829.5 0 133415 92795.8 0 107531 106993 0 78766 115504 0 49107.7 117869 0 20807.5 114342 0 -4018.21 106039 0 -23889.1 94802.4 0 -38299.9 82747.3 0 -47654.4 71716.6 0 -52864.9 62951.5 0 -54871.6 57082.2 0 -54286.6 54286.6 0 157831 -9.94565 0 154711 23733.2 0 145482 46264.2 0 130558 66408 0 110686 83020.7 0 87001.2 95095.9 0 61055 101921 0 34735.2 103282 0 10034.1 99657.8 0 -11331.2 92248.8 0 -28304.5 82774.6 0 -40662.7 73050.6 0 -48863.5 64599.6 0 -53672.3 58460.6 0 -55761.3 55257.2 0 -55318.3 55318.3 0 134928 -9.92394 0 132005 21449 0 123382 41717.9 0 109513 59663.7 0 91190.3 74223.8 0 69579.8 84523.9 0 46198.8 90032 0 22797.5 90729.6 0 1105.29 87238.3 0 -17505.5 80767.6 0 -32297 72895.8 0 -43235.8 65188.9 0 -50787.8 58966.4 0 -55613.4 55182.9 0 -58147.5 54631.6 0 -58043 58043 0 114900 -9.7938 0 112172 19360.6 0 104145 37577.3 0 91296.9 53560.3 0 74444.5 66333.9 0 54749.8 75148.2 0 33663.2 79627.1 0 12776.9 79895.9 0 -6429.92 76662.8 0 -22875.3 71097.3 0 -36063.9 64646.6 0 -46104.6 58670.9 0 -53458.9 54390.9 0 -58792.6 52774.5 0 -62336.1 55052.2 0 -63111.4 63111.4 0 97386.6 -9.64107 0 94848.2 17457.7 0 87395.2 33817.6 0 75517.2 48050.6 0 60035.6 59268.1 0 42083.5 66833.8 0 23022.1 70500.8 0 4279.16 70495.8 0 -12897.6 67572.6 0 -27667.7 62832 0 -39730.9 57611.1 0 -49323.1 53096.3 0 -56911.8 50490.9 0 -63429.3 50866.9 0 -68953.1 56196.7 0 -72707.8 72707.8 0 82076.8 -9.82769 0 79718.5 15727.5 0 72809.1 30409.7 0 61839.9 43082 0 47619.4 52940.1 0 31234.2 59448.5 0 13942.1 62463 0 -2990.13 62280.1 0 -18529.6 59664.5 0 -32026.9 55642.5 0 -43379.5 51443.6 0 -52890.9 48128.1 0 -61206.6 46858.7 0 -69754.2 49006.7 0 -79328.5 56458.4 0 -95811.5 95811.5 0 </DataArray> 
</PointData> 
<Points> 
<DataArray type="Float32" NumberOfComponents="3"> 
0.397 0 0 0.397 0.000733333 0 0.397 0.00146667 0 0.397 0.0022 0 0.397 0.00293333 0 0.397 0.00366667 0 0.397 0.0044 0 0.397 0.00513333 0 0.397 0.00586667 0 0.397 0.0066 0 0.397 0.00733333 0 0.397 0.00806667 0 0.397 0.0088 0 0.397 0.00953333 0 0.397 0.0102667 0 0.397 0.011 0 0.3976 0 0 0.3976 0.000773333 0 0.3976 0.00154667 0 0.3976 0.00232 0 0.3976 0.00309333 0 0.3976 0.00386667 0 0.3976 0.00464 0 0.3976 0.00541333 0 0.3976 0.00618667 0 0.3976 0.00696 0 0.3976 0.00773333 0 0.3976 0.00850667 0 0.3976 0.00928 0 0.3976 0.0100533 0 0.3976 0.0108267 0 0.3976 0.0116 0 0.3982 0 0 0.3982 0.000813333 0 0.3982 0.00162667 0 0.3982 0.00244 0 0.3982 0.00325333 0 0.3982 0.00406667 0 0.3982 0.00488 0 0.3982 0.00569333 0 0.3982 0.00650667 0 0.3982 0.00732 0 0.3982 0.00813333 0 0.3982 0.00894667 0 0.3982 0.00976 0 0.3982 0.0105733 0 0.3982 0.0113867 0 0.3982 0.0122 0 0.3988 0 0 0.3988 0.000853333 0 0.3988 0.00170667 0 0.3988 0.00256 0 0.3988 0.00341333 0 0.3988 0.00426667 0 0.3988 0.00512 0 0.3988 0.00597333 0 0.3988 0.00682667 0 0.3988 0.00768 0 0.3988 0.00853333 0 0.3988 0.00938667 0 0.3988 0.01024 0 0.3988 0.0110933 0 0.3988 0.0119467 0 0.3988 0.0128 0 0.3994 0 0 0.3994 0.000893333 0 0.3994 0.00178667 0 0.3994 0.00268 0 0.3994 0.00357333 0 0.3994 0.00446667 0 0.3994 0.00536 0 0.3994 0.00625333 0 0.3994 0.00714667 0 0.3994 0.00804 0 0.3994 0.00893333 0 0.3994 0.00982667 0 0.3994 0.01072 0 0.3994 0.0116133 0 0.3994 0.0125067 0 0.3994 0.0134 0 0.4 0 0 0.4 0.000933333 0 0.4 0.00186667 0 0.4 0.0028 0 0.4 0.00373333 0 0.4 0.00466667 0 0.4 0.0056 0 0.4 0.00653333 0 0.4 0.00746667 0 0.4 0.0084 0 0.4 0.00933333 0 0.4 0.0102667 0 0.4 0.0112 0 0.4 0.0121333 0 0.4 0.0130667 0 0.4 0.014 0 0.4006 0 0 0.4006 0.000973333 0 0.4006 0.00194667 0 0.4006 0.00292 0 0.4006 0.00389333 0 0.4006 0.00486667 0 0.4006 0.00584 0 0.4006 0.00681333 0 0.4006 0.00778667 0 0.4006 0.00876 0 0.4006 0.00973333 0 0.4006 0.0107067 0 0.4006 0.01168 0 0.4006 0.0126533 0 0.4006 0.0136267 0 0.4006 0.0146 0 0.4012 0 0 0.4012 0.00101333 0 0.4012 0.00202667 0 0.4012 0.00304 0 0.4012 0.00405333 0 0.4012 0.00506667 0 0.4012 0.00608 0 0.4012 0.00709333 0 0.4012 0.00810667 0 0.4012 0.00912 0 0.4012 0.0101333 0 0.4012 0.0111467 0 0.4012 0.01216 0 0.4012 0.0131733 0 0.4012 0.0141867 0 0.4012 0.0152 0 0.4018 0 0 0.4018 0.00105333 0 0.4018 0.00210667 0 0.4018 0.00316 0 0.4018 0.00421333 0 0.4018 0.00526667 0 0.4018 0.00632 0 0.4018 0.00737333 0 0.4018 0.00842667 0 0.4018 0.00948 0 0.4018 0.0105333 0 0.4018 0.0115867 0 0.4018 0.01264 0 0.4018 0.0136933 0 0.4018 0.0147467 0 0.4018 0.0158 0 0.4024 0 0 0.4024 0.00109333 0 0.4024 0.00218667 0 0.4024 0.00328 0 0.4024 0.00437333 0 0.4024 0.00546667 0 0.4024 0.00656 0 0.4024 0.00765333 0 0.4024 0.00874667 0 0.4024 0.00984 0 0.4024 0.0109333 0 0.4024 0.0120267 0 0.4024 0.01312 0 0.4024 0.0142133 0 0.4024 0.0153067 0 0.4024 0.0164 0 0.403 0 0 0.403 0.00113333 0 0.403 0.00226667 0 0.403 0.0034 0 0.403 0.00453333 0 0.403 0.00566667 0 0.403 0.0068 0 0.403 0.00793333 0 0.403 0.00906667 0 0.403 0.0102 0 0.403 0.0113333 0 0.403 0.0124667 0 0.403 0.0136 0 0.403 0.0147333 0 0.403 0.0158667 0 0.403 0.017 0 0.4036 0 0 0.4036 0.00117333 0 0.4036 0.00234667 0 0.4036 0.00352 0 0.4036 0.00469333 0 0.4036 0.00586667 0 0.4036 0.00704 0 0.4036 0.00821333 0 0.4036 0.00938667 0 0.4036 0.01056 0 0.4036 0.0117333 0 0.4036 0.0129067 0 0.4036 0.01408 0 0.4036 0.0152533 0 0.4036 0.0164267 0 0.4036 0.0176 0 0.4042 0 0 0.4042 0.00121333 0 0.4042 0.00242667 0 0.4042 0.00364 0 0.4042 0.00485333 0 0.4042 0.00606667 0 0.4042 0.00728 0 0.4042 0.00849333 0 0.4042 0.00970667 0 0.4042 0.01092 0 0.4042 0.0121333 0 0.4042 0.0133467 0 0.4042 0.01456 0 0.4042 0.0157733 0 0.4042 0.0169867 0 0.4042 0.0182 0 0.4048 0 0 0.4048 0.00125333 0 0.4048 0.00250667 0 0.4048 0.00376 0 0.4048 0.00501333 0 0.4048 0.00626667 0 0.4048 0.00752 0 0.4048 0.00877333 0 0.4048 0.0100267 0 0.4048 0.01128 0 0.4048 0.0125333 0 0.4048 0.0137867 0 0.4048 0.01504 0 0.4048 0.0162933 0 0.4048 0.0175467 0 0.4048 0.0188 0 0.4054 0 0 0.4054 0.00129333 0 0.4054 0.00258667 0 0.4054 0.00388 0 0.4054 0.00517333 0 0.4054 0.00646667 0 0.4054 0.00776 0 0.4054 0.00905333 0 0.4054 0.0103467 0 0.4054 0.01164 0 0.4054 0.0129333 0 0.4054 0.0142267 0 0.4054 0.01552 0 0.4054 0.0168133 0 0.4054 0.0181067 0 0.4054 0.0194 0 0.406 0 0 0.406 0.00133333 0 0.406 0.00266667 0 0.406 0.004 0 0.406 0.00533333 0 0.406 0.00666667 0 0.406 0.008 0 0.406 0.00933333 0 0.406 0.0106667 0 0.406 0.012 0 0.406 0.0133333 0 0.406 0.0146667 0 0.406 0.016 0 0.406 0.0173333 0 0.406 0.0186667 0 0.406 0.02 0 
</DataArray>
</Points> 
</Piece> 
</StructuredGrid> 
</VTKFile> 
