<?xml version="1.0"?> 
<VTKFile type="StructuredGrid" version="0.1"> 
<StructuredGrid WholeExtent="0 15 0 15 0 0"> 
<Piece Extent="0 15 0 15 0 0"> 
<PointData>
<DataArray type="Float32" Name="E" format="ascii" NumberOfComponents="3"> 
7.08e+06 6.13874e+06 0 7.21308e+06 5.93988e+06 0 7.33676e+06 5.73425e+06 0 7.45034e+06 5.52262e+06 0 7.55318e+06 5.30586e+06 0 7.64476e+06 5.08493e+06 0 7.72468e+06 4.86086e+06 0 7.79265e+06 4.63472e+06 0 7.84854e+06 4.40763e+06 0 7.89235e+06 4.1807e+06 0 7.92422e+06 3.95504e+06 0 7.94443e+06 3.73172e+06 0 7.95338e+06 3.51178e+06 0 7.95159e+06 3.29615e+06 0 7.93966e+06 3.08572e+06 0 7.91829e+06 2.88125e+06 0 5.52281e+06 6.02922e+06 0 5.61428e+06 5.82519e+06 0 5.69276e+06 5.61827e+06 0 5.75821e+06 5.41004e+06 0 5.81081e+06 5.20205e+06 0 5.85101e+06 4.99575e+06 0 5.87943e+06 4.79246e+06 0 5.89685e+06 4.59334e+06 0 5.90415e+06 4.39933e+06 0 5.90231e+06 4.21123e+06 0 5.8923e+06 4.02962e+06 0 5.87512e+06 3.85492e+06 0 5.85172e+06 3.68738e+06 0 5.82299e+06 3.52712e+06 0 5.78977e+06 3.37416e+06 0 5.7528e+06 3.22842e+06 0 4.39686e+06 5.69418e+06 0 4.46932e+06 5.48481e+06 0 4.52731e+06 5.27378e+06 0 4.57108e+06 5.06301e+06 0 4.60125e+06 4.85432e+06 0 4.61867e+06 4.64931e+06 0 4.62439e+06 4.44932e+06 0 4.61959e+06 4.25546e+06 0 4.6055e+06 4.06853e+06 0 4.58338e+06 3.88913e+06 0 4.55442e+06 3.71759e+06 0 4.51977e+06 3.55406e+06 0 4.48046e+06 3.39856e+06 0 4.43742e+06 3.25094e+06 0 4.3915e+06 3.11098e+06 0 4.3434e+06 2.9784e+06 0 3.55229e+06 5.30813e+06 0 3.6151e+06 5.09751e+06 0 3.66284e+06 4.88567e+06 0 3.69599e+06 4.67473e+06 0 3.71537e+06 4.46662e+06 0 3.72205e+06 4.26298e+06 0 3.71731e+06 4.06517e+06 0 3.70252e+06 3.87421e+06 0 3.67906e+06 3.69084e+06 0 3.64829e+06 3.51551e+06 0 3.61148e+06 3.34843e+06 0 3.56981e+06 3.18962e+06 0 3.52432e+06 3.03894e+06 0 3.47591e+06 2.89614e+06 0 3.42539e+06 2.7609e+06 0 3.3734e+06 2.63282e+06 0 2.89665e+06 4.92893e+06 0 2.95391e+06 4.72033e+06 0 2.99594e+06 4.51058e+06 0 3.02333e+06 4.30191e+06 0 3.03706e+06 4.09633e+06 0 3.03833e+06 3.89552e+06 0 3.02852e+06 3.7008e+06 0 3.00911e+06 3.51319e+06 0 2.98155e+06 3.33334e+06 0 2.94723e+06 3.16164e+06 0 2.90744e+06 2.99823e+06 0 2.86335e+06 2.84307e+06 0 2.81597e+06 2.69595e+06 0 2.7662e+06 2.55658e+06 0 2.71477e+06 2.42461e+06 0 2.66232e+06 2.29964e+06 0 2.37365e+06 4.57588e+06 0 2.42707e+06 4.37143e+06 0 2.46536e+06 4.1657e+06 0 2.4892e+06 3.96098e+06 0 2.49964e+06 3.75933e+06 0 2.49796e+06 3.56246e+06 0 2.48563e+06 3.3717e+06 0 2.46414e+06 3.18803e+06 0 2.43497e+06 3.01209e+06 0 2.39953e+06 2.84423e+06 0 2.3591e+06 2.68455e+06 0 2.31481e+06 2.53296e+06 0 2.26766e+06 2.38926e+06 0 2.2185e+06 2.2531e+06 0 2.16803e+06 2.12409e+06 0 2.11682e+06 2.00181e+06 0 1.94724e+06 4.25458e+06 0 1.99738e+06 4.05554e+06 0 2.03268e+06 3.85489e+06 0 2.05389e+06 3.65502e+06 0 2.0621e+06 3.45804e+06 0 2.05864e+06 3.26568e+06 0 2.045e+06 3.07929e+06 0 2.02268e+06 2.89986e+06 0 1.99317e+06 2.72801e+06 0 1.95786e+06 2.56409e+06 0 1.91799e+06 2.40818e+06 0 1.87467e+06 2.26021e+06 0 1.82883e+06 2.11993e+06 0 1.78128e+06 1.98704e+06 0 1.73266e+06 1.86117e+06 0 1.6835e+06 1.74191e+06 0 1.59328e+06 3.96551e+06 0 1.64005e+06 3.7724e+06 0 1.67248e+06 3.57724e+06 0 1.69134e+06 3.3825e+06 0 1.69774e+06 3.19036e+06 0 1.69304e+06 3.0026e+06 0 1.67872e+06 2.8206e+06 0 1.65627e+06 2.64536e+06 0 1.62715e+06 2.47753e+06 0 1.59271e+06 2.31745e+06 0 1.55416e+06 2.16525e+06 0 1.51255e+06 2.02084e+06 0 1.46876e+06 1.88402e+06 0 1.42354e+06 1.7545e+06 0 1.37748e+06 1.63192e+06 0 1.33105e+06 1.5159e+06 0 1.29475e+06 3.70713e+06 0 1.33775e+06 3.51991e+06 0 1.3671e+06 3.33012e+06 0 1.38359e+06 3.14033e+06 0 1.38833e+06 2.95279e+06 0 1.38266e+06 2.76934e+06 0 1.36803e+06 2.59142e+06 0 1.34592e+06 2.42007e+06 0 1.31774e+06 2.25596e+06 0 1.28477e+06 2.09949e+06 0 1.24817e+06 1.9508e+06 0 1.20893e+06 1.80985e+06 0 1.16786e+06 1.67647e+06 0 1.12564e+06 1.5504e+06 0 1.08281e+06 1.43135e+06 0 1.03978e+06 1.31899e+06 0 1.03922e+06 3.47718e+06 0 1.07787e+06 3.29538e+06 0 1.1038e+06 3.11043e+06 0 1.11778e+06 2.92504e+06 0 1.1209e+06 2.74152e+06 0 1.11446e+06 2.56181e+06 0 1.09987e+06 2.38743e+06 0 1.07855e+06 2.21946e+06 0 1.05183e+06 2.05865e+06 0 1.02094e+06 1.90544e+06 0 986950 1.76001e+06 0 950764 1.62237e+06 0 913137 1.49241e+06 0 874675 1.3699e+06 0 835855 1.25459e+06 0 797041 1.14619e+06 0 817294 3.27324e+06 0 850962 3.09602e+06 0 873085 2.91507e+06 0 884402 2.7332e+06 0 885960 2.55288e+06 0 879002 2.37614e+06 0 864856 2.20458e+06 0 844846 2.03939e+06 0 820219 1.88137e+06 0 792098 1.73102e+06 0 761457 1.58858e+06 0 729115 1.45412e+06 0 695738 1.32755e+06 0 661860 1.2087e+06 0 627897 1.09734e+06 0 594169 993216 0 621668 3.09294e+06 0 649704 2.91917e+06 0 667667 2.74108e+06 0 676245 2.56164e+06 0 676405 2.38347e+06 0 669290 2.20876e+06 0 656115 2.03922e+06 0 638078 1.87613e+06 0 616295 1.72037e+06 0 591761 1.57251e+06 0 565325 1.43284e+06 0 537694 1.30146e+06 0 509435 1.17831e+06 0 480999 1.06325e+06 0 452739 956032 0 424929 856408 0 446519 2.93406e+06 0 468305 2.76234e+06 0 481837 2.58572e+06 0 487716 2.4074e+06 0 486792 2.23021e+06 0 480058 2.0565e+06 0 468564 1.88811e+06 0 453330 1.72645e+06 0 435296 1.57247e+06 0 415287 1.42678e+06 0 393995 1.28973e+06 0 371988 1.16142e+06 0 349717 1.0418e+06 0 327539 930688 0 305732 827834 0 284518 732923 0 287089 2.79458e+06 0 302065 2.62325e+06 0 311011 2.44648e+06 0 314404 2.2678e+06 0 312913 2.09028e+06 0 307317 1.91647e+06 0 298422 1.74839e+06 0 287007 1.58753e+06 0 273774 1.43493e+06 0 259327 1.29124e+06 0 244166 1.15679e+06 0 228692 1.03167e+06 0 213220 915773 0 197995 808875 0 183215 710640 0 169037 620659 0 139393 2.67269e+06 0 147074 2.49979e+06 0 151440 2.32104e+06 0 152780 2.14034e+06 0 151496 1.96108e+06 0 148046 1.78608e+06 0 142902 1.61751e+06 0 136508 1.45697e+06 0 129255 1.30552e+06 0 121473 1.1638e+06 0 113429 1.0321e+06 0 105331 910430 0 97341.7 798597 0 89586.4 696264 0 82166.5 602975 0 75165.2 518191 0 0 2.56675e+06 0 0 2.39006e+06 0 0 2.20723e+06 0 0 2.0227e+06 0 0 1.84027e+06 0 0 1.66302e+06 0 0 1.4933e+06 0 0 1.33275e+06 0 0 1.18243e+06 0 0 1.04287e+06 0 0 914262 0 0 796475 0 0 689176 0 0 591870 0 0 503944 0 0 424682 0 </DataArray> 
</PointData> 
<Points> 
<DataArray type="Float32" NumberOfComponents="3"> 
0.305002 0.0543226 0 0.305475 0.0537629 0 0.305928 0.0531981 0 0.306362 0.0526283 0 0.306777 0.0520539 0 0.307172 0.0514749 0 0.30755 0.0508917 0 0.307909 0.0503045 0 0.308251 0.0497136 0 0.308575 0.049119 0 0.308882 0.0485211 0 0.309173 0.0479201 0 0.309449 0.0473162 0 0.309708 0.0467096 0 0.309953 0.0461005 0 0.310183 0.0454891 0 0.305002 0.0592344 0 0.305857 0.0587121 0 0.306693 0.0581849 0 0.307511 0.0576531 0 0.308311 0.0571169 0 0.309094 0.0565766 0 0.30986 0.0560323 0 0.310608 0.0554842 0 0.311341 0.0549327 0 0.312057 0.0543778 0 0.312757 0.0538197 0 0.313442 0.0532588 0 0.314112 0.0526951 0 0.314768 0.052129 0 0.315409 0.0515604 0 0.316037 0.0509898 0 0.305002 0.0641462 0 0.306238 0.0636612 0 0.307458 0.0631717 0 0.30866 0.0626779 0 0.309846 0.06218 0 0.311016 0.0616783 0 0.31217 0.0611728 0 0.313308 0.0606639 0 0.31443 0.0601518 0 0.315538 0.0596365 0 0.316631 0.0591183 0 0.31771 0.0585975 0 0.318775 0.0580741 0 0.319827 0.0575483 0 0.320866 0.0570204 0 0.321892 0.0564905 0 0.305002 0.0690581 0 0.30662 0.0686104 0 0.308223 0.0681585 0 0.30981 0.0677027 0 0.311381 0.0672431 0 0.312938 0.0667799 0 0.31448 0.0663134 0 0.316007 0.0658436 0 0.31752 0.0653708 0 0.31902 0.0648952 0 0.320506 0.0644169 0 0.321979 0.0639361 0 0.323439 0.063453 0 0.324887 0.0629677 0 0.326322 0.0624804 0 0.327746 0.0619913 0 0.305001 0.0739699 0 0.307002 0.0735595 0 0.308987 0.0731453 0 0.310959 0.0727275 0 0.312916 0.0723062 0 0.31486 0.0718816 0 0.31679 0.0714539 0 0.318707 0.0710233 0 0.32061 0.0705899 0 0.322502 0.070154 0 0.32438 0.0697155 0 0.326247 0.0692748 0 0.328102 0.0688319 0 0.329946 0.068387 0 0.331779 0.0679403 0 0.333601 0.067492 0 0.305001 0.0788817 0 0.307383 0.0785086 0 0.309752 0.0781321 0 0.312108 0.0777522 0 0.314451 0.0773692 0 0.316782 0.0769833 0 0.3191 0.0765945 0 0.321406 0.076203 0 0.3237 0.075809 0 0.325983 0.0754127 0 0.328255 0.0750141 0 0.330516 0.0746134 0 0.332766 0.0742108 0 0.335005 0.0738064 0 0.337235 0.0734003 0 0.339455 0.0729927 0 0.305001 0.0837935 0 0.307765 0.0834578 0 0.310517 0.0831189 0 0.313257 0.082777 0 0.315986 0.0824323 0 0.318703 0.0820849 0 0.32141 0.081735 0 0.324105 0.0813827 0 0.32679 0.0810281 0 0.329465 0.0806714 0 0.332129 0.0803127 0 0.334784 0.0799521 0 0.337429 0.0795897 0 0.340065 0.0792258 0 0.342692 0.0788603 0 0.34531 0.0784934 0 0.305001 0.0887054 0 0.308147 0.0884069 0 0.311282 0.0881057 0 0.314406 0.0878018 0 0.317521 0.0874954 0 0.320625 0.0871866 0 0.32372 0.0868756 0 0.326805 0.0865624 0 0.32988 0.0862472 0 0.332947 0.0859301 0 0.336004 0.0856113 0 0.339053 0.0852907 0 0.342093 0.0849686 0 0.345124 0.0846451 0 0.348148 0.0843203 0 0.351164 0.0839942 0 0.305001 0.0936172 0 0.308528 0.093356 0 0.312046 0.0930925 0 0.315556 0.0928266 0 0.319056 0.0925585 0 0.322547 0.0922883 0 0.32603 0.0920161 0 0.329504 0.0917421 0 0.33297 0.0914663 0 0.336428 0.0911889 0 0.339878 0.0909099 0 0.343321 0.0906294 0 0.346756 0.0903476 0 0.350184 0.0900645 0 0.353605 0.0897802 0 0.357019 0.0894949 0 0.305001 0.098529 0 0.30891 0.0983052 0 0.312811 0.0980792 0 0.316705 0.0978513 0 0.320591 0.0976215 0 0.324469 0.09739 0 0.32834 0.0971567 0 0.332204 0.0969218 0 0.33606 0.0966854 0 0.33991 0.0964476 0 0.343753 0.0962085 0 0.347589 0.0959681 0 0.351419 0.0957265 0 0.355243 0.0954838 0 0.359061 0.0952402 0 0.362873 0.0949956 0 0.305001 0.103441 0 0.309292 0.103254 0 0.313576 0.103066 0 0.317854 0.102876 0 0.322126 0.102685 0 0.326391 0.102492 0 0.33065 0.102297 0 0.334903 0.102102 0 0.33915 0.101905 0 0.343392 0.101706 0 0.347627 0.101507 0 0.351858 0.101307 0 0.356083 0.101105 0 0.360303 0.100903 0 0.364518 0.1007 0 0.368728 0.100496 0 0.305001 0.108353 0 0.309673 0.108203 0 0.314341 0.108053 0 0.319003 0.107901 0 0.32366 0.107748 0 0.328313 0.107593 0 0.33296 0.107438 0 0.337602 0.107281 0 0.34224 0.107124 0 0.346873 0.106965 0 0.351502 0.106806 0 0.356126 0.106645 0 0.360746 0.106484 0 0.365362 0.106323 0 0.369974 0.10616 0 0.374582 0.105997 0 0.305 0.113265 0 0.310055 0.113153 0 0.315106 0.11304 0 0.320152 0.112926 0 0.325195 0.112811 0 0.330234 0.112695 0 0.33527 0.112578 0 0.340302 0.112461 0 0.34533 0.112343 0 0.350355 0.112224 0 0.355376 0.112104 0 0.360395 0.111984 0 0.36541 0.111863 0 0.370422 0.111742 0 0.375431 0.11162 0 0.380437 0.111498 0 0.305 0.118176 0 0.310437 0.118102 0 0.31587 0.118026 0 0.321302 0.11795 0 0.32673 0.117874 0 0.332156 0.117797 0 0.33758 0.117719 0 0.343001 0.117641 0 0.34842 0.117562 0 0.353837 0.117483 0 0.359251 0.117403 0 0.364663 0.117323 0 0.370073 0.117242 0 0.375481 0.117161 0 0.380887 0.11708 0 0.386291 0.116999 0 0.305 0.123088 0 0.310818 0.123051 0 0.316635 0.123013 0 0.322451 0.122975 0 0.328265 0.122937 0 0.334078 0.122898 0 0.33989 0.122859 0 0.345701 0.12282 0 0.35151 0.122781 0 0.357318 0.122741 0 0.363125 0.122701 0 0.368932 0.122661 0 0.374737 0.122621 0 0.380541 0.122581 0 0.386344 0.12254 0 0.392146 0.122499 0 0.305 0.128 0 0.3112 0.128 0 0.3174 0.128 0 0.3236 0.128 0 0.3298 0.128 0 0.336 0.128 0 0.3422 0.128 0 0.3484 0.128 0 0.3546 0.128 0 0.3608 0.128 0 0.367 0.128 0 0.3732 0.128 0 0.3794 0.128 0 0.3856 0.128 0 0.3918 0.128 0 0.398 0.128 0 
</DataArray>
</Points> 
</Piece> 
</StructuredGrid> 
</VTKFile> 
