<?xml version="1.0"?> 
<VTKFile type="StructuredGrid" version="0.1"> 
<StructuredGrid WholeExtent="0 127 0 127 0 0"> 
<Piece Extent="0 127 0 127 0 0"> 
<PointData>
<DataArray type="Float32" Name="u" format="ascii" NumberOfComponents="3"> 
-1.03001e+06 0 0 -1.02998e+06 0 0 -1.02994e+06 0 0 -1.02991e+06 0 0 -1.02988e+06 0 0 -1.02985e+06 0 0 -1.02982e+06 0 0 -1.02979e+06 0 0 -1.02976e+06 0 0 -1.02972e+06 0 0 -1.02969e+06 0 0 -1.02966e+06 0 0 -1.02963e+06 0 0 -1.02959e+06 0 0 -1.02956e+06 0 0 -1.02953e+06 0 0 -1.02949e+06 0 0 -1.02946e+06 0 0 -1.02943e+06 0 0 -1.02939e+06 0 0 -1.02936e+06 0 0 -1.02932e+06 0 0 -1.02929e+06 0 0 -1.02926e+06 0 0 -1.02922e+06 0 0 -1.02919e+06 0 0 -1.02915e+06 0 0 -1.02911e+06 0 0 -1.02908e+06 0 0 -1.02904e+06 0 0 -1.02901e+06 0 0 -1.02897e+06 0 0 -1.02893e+06 0 0 -1.0289e+06 0 0 -1.02886e+06 0 0 -1.02882e+06 0 0 -1.02879e+06 0 0 -1.02875e+06 0 0 -1.02871e+06 0 0 -1.02868e+06 0 0 -1.02864e+06 0 0 -1.0286e+06 0 0 -1.02856e+06 0 0 -1.02852e+06 0 0 -1.02848e+06 0 0 -1.02845e+06 0 0 -1.02841e+06 0 0 -1.02837e+06 0 0 -1.02833e+06 0 0 -1.02829e+06 0 0 -1.02825e+06 0 0 -1.02821e+06 0 0 -1.02817e+06 0 0 -1.02813e+06 0 0 -1.02809e+06 0 0 -1.02805e+06 0 0 -1.02801e+06 0 0 -1.02796e+06 0 0 -1.02792e+06 0 0 -1.02788e+06 0 0 -1.02784e+06 0 0 -1.0278e+06 0 0 -1.02775e+06 0 0 -1.02771e+06 0 0 -1.02767e+06 0 0 -1.02763e+06 0 0 -1.02758e+06 0 0 -1.02754e+06 0 0 -1.0275e+06 0 0 -1.02745e+06 0 0 -1.02741e+06 0 0 -1.02736e+06 0 0 -1.02732e+06 0 0 -1.02728e+06 0 0 -1.02723e+06 0 0 -1.02719e+06 0 0 -1.02714e+06 0 0 -1.02709e+06 0 0 -1.02705e+06 0 0 -1.027e+06 0 0 -1.02696e+06 0 0 -1.02691e+06 0 0 -1.02686e+06 0 0 -1.02682e+06 0 0 -1.02677e+06 0 0 -1.02672e+06 0 0 -1.02667e+06 0 0 -1.02663e+06 0 0 -1.02658e+06 0 0 -1.02653e+06 0 0 -1.02648e+06 0 0 -1.02643e+06 0 0 -1.02638e+06 0 0 -1.02634e+06 0 0 -1.02629e+06 0 0 -1.02624e+06 0 0 -1.02619e+06 0 0 -1.02614e+06 0 0 -1.02609e+06 0 0 -1.02604e+06 0 0 -1.02598e+06 0 0 -1.02593e+06 0 0 -1.02588e+06 0 0 -1.02583e+06 0 0 -1.02578e+06 0 0 -1.02573e+06 0 0 -1.02567e+06 0 0 -1.02562e+06 0 0 -1.02557e+06 0 0 -1.02552e+06 0 0 -1.02546e+06 0 0 -1.02541e+06 0 0 -1.02536e+06 0 0 -1.0253e+06 0 0 -1.02525e+06 0 0 -1.02519e+06 0 0 -1.02514e+06 0 0 -1.02508e+06 0 0 -1.02503e+06 0 0 -1.02497e+06 0 0 -1.02492e+06 0 0 -1.02486e+06 0 0 -1.0248e+06 0 0 -1.02475e+06 0 0 -1.02469e+06 0 0 -1.02463e+06 0 0 -1.02458e+06 0 0 -1.02452e+06 0 0 -1.03001e+06 282.077 0 -1.02998e+06 283.652 0 -1.02995e+06 285.232 0 -1.02992e+06 286.817 0 -1.02989e+06 288.409 0 -1.02986e+06 290.005 0 -1.02983e+06 291.607 0 -1.02979e+06 293.215 0 -1.02976e+06 294.829 0 -1.02973e+06 296.448 0 -1.0297e+06 298.072 0 -1.02966e+06 299.703 0 -1.02963e+06 301.339 0 -1.0296e+06 302.981 0 -1.02956e+06 304.629 0 -1.02953e+06 306.282 0 -1.0295e+06 307.941 0 -1.02946e+06 309.606 0 -1.02943e+06 311.277 0 -1.0294e+06 312.954 0 -1.02936e+06 314.636 0 -1.02933e+06 316.325 0 -1.02929e+06 318.02 0 -1.02926e+06 319.72 0 -1.02922e+06 321.426 0 -1.02919e+06 323.139 0 -1.02915e+06 324.857 0 -1.02912e+06 326.582 0 -1.02908e+06 328.312 0 -1.02904e+06 330.049 0 -1.02901e+06 331.792 0 -1.02897e+06 333.541 0 -1.02893e+06 335.296 0 -1.0289e+06 337.057 0 -1.02886e+06 338.824 0 -1.02882e+06 340.598 0 -1.02879e+06 342.378 0 -1.02875e+06 344.164 0 -1.02871e+06 345.957 0 -1.02867e+06 347.756 0 -1.02863e+06 349.561 0 -1.0286e+06 351.372 0 -1.02856e+06 353.19 0 -1.02852e+06 355.014 0 -1.02848e+06 356.845 0 -1.02844e+06 358.682 0 -1.0284e+06 360.526 0 -1.02836e+06 362.376 0 -1.02832e+06 364.233 0 -1.02828e+06 366.096 0 -1.02824e+06 367.965 0 -1.0282e+06 369.842 0 -1.02816e+06 371.725 0 -1.02812e+06 373.614 0 -1.02808e+06 375.51 0 -1.02804e+06 377.413 0 -1.028e+06 379.323 0 -1.02795e+06 381.239 0 -1.02791e+06 383.162 0 -1.02787e+06 385.092 0 -1.02783e+06 387.028 0 -1.02779e+06 388.971 0 -1.02774e+06 390.921 0 -1.0277e+06 392.878 0 -1.02766e+06 394.842 0 -1.02761e+06 396.813 0 -1.02757e+06 398.79 0 -1.02753e+06 400.775 0 -1.02748e+06 402.766 0 -1.02744e+06 404.765 0 -1.02739e+06 406.77 0 -1.02735e+06 408.782 0 -1.0273e+06 410.802 0 -1.02726e+06 412.828 0 -1.02721e+06 414.862 0 -1.02717e+06 416.903 0 -1.02712e+06 418.95 0 -1.02708e+06 421.005 0 -1.02703e+06 423.067 0 -1.02698e+06 425.136 0 -1.02694e+06 427.213 0 -1.02689e+06 429.297 0 -1.02684e+06 431.387 0 -1.0268e+06 433.486 0 -1.02675e+06 435.591 0 -1.0267e+06 437.704 0 -1.02665e+06 439.824 0 -1.0266e+06 441.951 0 -1.02656e+06 444.086 0 -1.02651e+06 446.228 0 -1.02646e+06 448.378 0 -1.02641e+06 450.535 0 -1.02636e+06 452.699 0 -1.02631e+06 454.871 0 -1.02626e+06 457.05 0 -1.02621e+06 459.237 0 -1.02616e+06 461.432 0 -1.02611e+06 463.634 0 -1.02606e+06 465.843 0 -1.02601e+06 468.06 0 -1.02595e+06 470.285 0 -1.0259e+06 472.518 0 -1.02585e+06 474.758 0 -1.0258e+06 477.005 0 -1.02575e+06 479.261 0 -1.02569e+06 481.524 0 -1.02564e+06 483.795 0 -1.02559e+06 486.073 0 -1.02553e+06 488.359 0 -1.02548e+06 490.654 0 -1.02543e+06 492.955 0 -1.02537e+06 495.265 0 -1.02532e+06 497.583 0 -1.02526e+06 499.908 0 -1.02521e+06 502.242 0 -1.02515e+06 504.583 0 -1.0251e+06 506.932 0 -1.02504e+06 509.289 0 -1.02499e+06 511.654 0 -1.02493e+06 514.027 0 -1.02487e+06 516.408 0 -1.02482e+06 518.797 0 -1.02476e+06 521.194 0 -1.0247e+06 523.599 0 -1.02465e+06 526.013 0 -1.02459e+06 528.434 0 -1.02453e+06 530.863 0 -1.02447e+06 533.301 0 -1.03004e+06 563.699 0 -1.03e+06 566.871 0 -1.02997e+06 570.054 0 -1.02994e+06 573.248 0 -1.02991e+06 576.454 0 -1.02988e+06 579.671 0 -1.02985e+06 582.899 0 -1.02981e+06 586.138 0 -1.02978e+06 589.389 0 -1.02975e+06 592.651 0 -1.02972e+06 595.925 0 -1.02968e+06 599.211 0 -1.02965e+06 602.508 0 -1.02962e+06 605.816 0 -1.02958e+06 609.137 0 -1.02955e+06 612.469 0 -1.02952e+06 615.812 0 -1.02948e+06 619.168 0 -1.02945e+06 622.536 0 -1.02941e+06 625.915 0 -1.02938e+06 629.307 0 -1.02934e+06 632.71 0 -1.02931e+06 636.126 0 -1.02927e+06 639.554 0 -1.02924e+06 642.994 0 -1.0292e+06 646.446 0 -1.02917e+06 649.91 0 -1.02913e+06 653.386 0 -1.0291e+06 656.875 0 -1.02906e+06 660.377 0 -1.02902e+06 663.891 0 -1.02899e+06 667.417 0 -1.02895e+06 670.956 0 -1.02891e+06 674.507 0 -1.02887e+06 678.071 0 -1.02884e+06 681.647 0 -1.0288e+06 685.237 0 -1.02876e+06 688.839 0 -1.02872e+06 692.454 0 -1.02869e+06 696.081 0 -1.02865e+06 699.722 0 -1.02861e+06 703.375 0 -1.02857e+06 707.042 0 -1.02853e+06 710.721 0 -1.02849e+06 714.414 0 -1.02845e+06 718.12 0 -1.02841e+06 721.839 0 -1.02837e+06 725.571 0 -1.02833e+06 729.316 0 -1.02829e+06 733.075 0 -1.02825e+06 736.846 0 -1.02821e+06 740.632 0 -1.02817e+06 744.43 0 -1.02813e+06 748.243 0 -1.02809e+06 752.068 0 -1.02805e+06 755.908 0 -1.028e+06 759.761 0 -1.02796e+06 763.627 0 -1.02792e+06 767.507 0 -1.02788e+06 771.401 0 -1.02783e+06 775.309 0 -1.02779e+06 779.231 0 -1.02775e+06 783.166 0 -1.02771e+06 787.115 0 -1.02766e+06 791.079 0 -1.02762e+06 795.056 0 -1.02757e+06 799.047 0 -1.02753e+06 803.053 0 -1.02749e+06 807.073 0 -1.02744e+06 811.106 0 -1.0274e+06 815.154 0 -1.02735e+06 819.217 0 -1.02731e+06 823.293 0 -1.02726e+06 827.384 0 -1.02722e+06 831.489 0 -1.02717e+06 835.609 0 -1.02712e+06 839.743 0 -1.02708e+06 843.892 0 -1.02703e+06 848.055 0 -1.02698e+06 852.233 0 -1.02694e+06 856.426 0 -1.02689e+06 860.633 0 -1.02684e+06 864.855 0 -1.02679e+06 869.092 0 -1.02675e+06 873.344 0 -1.0267e+06 877.61 0 -1.02665e+06 881.892 0 -1.0266e+06 886.188 0 -1.02655e+06 890.499 0 -1.0265e+06 894.826 0 -1.02645e+06 899.167 0 -1.0264e+06 903.524 0 -1.02635e+06 907.896 0 -1.0263e+06 912.282 0 -1.02625e+06 916.685 0 -1.0262e+06 921.102 0 -1.02615e+06 925.535 0 -1.0261e+06 929.983 0 -1.02605e+06 934.447 0 -1.026e+06 938.926 0 -1.02594e+06 943.42 0 -1.02589e+06 947.93 0 -1.02584e+06 952.456 0 -1.02579e+06 956.997 0 -1.02573e+06 961.554 0 -1.02568e+06 966.127 0 -1.02563e+06 970.715 0 -1.02557e+06 975.319 0 -1.02552e+06 979.939 0 -1.02547e+06 984.575 0 -1.02541e+06 989.226 0 -1.02536e+06 993.894 0 -1.0253e+06 998.577 0 -1.02525e+06 1003.28 0 -1.02519e+06 1007.99 0 -1.02514e+06 1012.72 0 -1.02508e+06 1017.47 0 -1.02502e+06 1022.24 0 -1.02497e+06 1027.02 0 -1.02491e+06 1031.81 0 -1.02485e+06 1036.63 0 -1.0248e+06 1041.45 0 -1.02474e+06 1046.3 0 -1.02468e+06 1051.16 0 -1.02462e+06 1056.04 0 -1.02457e+06 1060.94 0 -1.02451e+06 1065.85 0 -1.02445e+06 1070.77 0 -1.03007e+06 844.411 0 -1.03004e+06 849.201 0 -1.03001e+06 854.008 0 -1.02998e+06 858.832 0 -1.02994e+06 863.673 0 -1.02991e+06 868.531 0 -1.02988e+06 873.407 0 -1.02985e+06 878.3 0 -1.02982e+06 883.21 0 -1.02978e+06 888.138 0 -1.02975e+06 893.083 0 -1.02972e+06 898.046 0 -1.02968e+06 903.027 0 -1.02965e+06 908.025 0 -1.02962e+06 913.042 0 -1.02958e+06 918.076 0 -1.02955e+06 923.128 0 -1.02952e+06 928.198 0 -1.02948e+06 933.286 0 -1.02945e+06 938.393 0 -1.02941e+06 943.517 0 -1.02938e+06 948.66 0 -1.02934e+06 953.822 0 -1.02931e+06 959.002 0 -1.02927e+06 964.2 0 -1.02923e+06 969.417 0 -1.0292e+06 974.653 0 -1.02916e+06 979.907 0 -1.02913e+06 985.18 0 -1.02909e+06 990.473 0 -1.02905e+06 995.784 0 -1.02902e+06 1001.11 0 -1.02898e+06 1006.46 0 -1.02894e+06 1011.83 0 -1.02891e+06 1017.22 0 -1.02887e+06 1022.63 0 -1.02883e+06 1028.05 0 -1.02879e+06 1033.5 0 -1.02875e+06 1038.96 0 -1.02871e+06 1044.45 0 -1.02868e+06 1049.95 0 -1.02864e+06 1055.48 0 -1.0286e+06 1061.02 0 -1.02856e+06 1066.58 0 -1.02852e+06 1072.17 0 -1.02848e+06 1077.77 0 -1.02844e+06 1083.4 0 -1.0284e+06 1089.04 0 -1.02836e+06 1094.7 0 -1.02832e+06 1100.39 0 -1.02828e+06 1106.09 0 -1.02824e+06 1111.82 0 -1.0282e+06 1117.57 0 -1.02815e+06 1123.33 0 -1.02811e+06 1129.12 0 -1.02807e+06 1134.93 0 -1.02803e+06 1140.75 0 -1.02799e+06 1146.6 0 -1.02794e+06 1152.47 0 -1.0279e+06 1158.36 0 -1.02786e+06 1164.28 0 -1.02782e+06 1170.21 0 -1.02777e+06 1176.16 0 -1.02773e+06 1182.14 0 -1.02769e+06 1188.14 0 -1.02764e+06 1194.16 0 -1.0276e+06 1200.2 0 -1.02755e+06 1206.26 0 -1.02751e+06 1212.34 0 -1.02746e+06 1218.44 0 -1.02742e+06 1224.57 0 -1.02737e+06 1230.72 0 -1.02733e+06 1236.89 0 -1.02728e+06 1243.08 0 -1.02724e+06 1249.29 0 -1.02719e+06 1255.53 0 -1.02714e+06 1261.79 0 -1.0271e+06 1268.07 0 -1.02705e+06 1274.37 0 -1.027e+06 1280.69 0 -1.02695e+06 1287.04 0 -1.02691e+06 1293.41 0 -1.02686e+06 1299.8 0 -1.02681e+06 1306.22 0 -1.02676e+06 1312.65 0 -1.02671e+06 1319.11 0 -1.02666e+06 1325.6 0 -1.02662e+06 1332.1 0 -1.02657e+06 1338.63 0 -1.02652e+06 1345.18 0 -1.02647e+06 1351.75 0 -1.02642e+06 1358.35 0 -1.02637e+06 1364.97 0 -1.02632e+06 1371.62 0 -1.02627e+06 1378.28 0 -1.02621e+06 1384.97 0 -1.02616e+06 1391.69 0 -1.02611e+06 1398.42 0 -1.02606e+06 1405.18 0 -1.02601e+06 1411.97 0 -1.02596e+06 1418.78 0 -1.0259e+06 1425.61 0 -1.02585e+06 1432.46 0 -1.0258e+06 1439.34 0 -1.02574e+06 1446.25 0 -1.02569e+06 1453.17 0 -1.02564e+06 1460.12 0 -1.02558e+06 1467.1 0 -1.02553e+06 1474.1 0 -1.02547e+06 1481.12 0 -1.02542e+06 1488.17 0 -1.02536e+06 1495.24 0 -1.02531e+06 1502.34 0 -1.02525e+06 1509.46 0 -1.0252e+06 1516.61 0 -1.02514e+06 1523.78 0 -1.02508e+06 1530.97 0 -1.02503e+06 1538.19 0 -1.02497e+06 1545.44 0 -1.02491e+06 1552.7 0 -1.02486e+06 1560 0 -1.0248e+06 1567.32 0 -1.02474e+06 1574.66 0 -1.02468e+06 1582.03 0 -1.02462e+06 1589.42 0 -1.02456e+06 1596.84 0 -1.02451e+06 1604.29 0 -1.02445e+06 1611.76 0 -1.03012e+06 1123.76 0 -1.03009e+06 1130.18 0 -1.03006e+06 1136.63 0 -1.03003e+06 1143.11 0 -1.02999e+06 1149.6 0 -1.02996e+06 1156.12 0 -1.02993e+06 1162.66 0 -1.0299e+06 1169.23 0 -1.02987e+06 1175.82 0 -1.02983e+06 1182.43 0 -1.0298e+06 1189.07 0 -1.02977e+06 1195.73 0 -1.02973e+06 1202.42 0 -1.0297e+06 1209.13 0 -1.02967e+06 1215.86 0 -1.02963e+06 1222.62 0 -1.0296e+06 1229.4 0 -1.02956e+06 1236.21 0 -1.02953e+06 1243.04 0 -1.02949e+06 1249.89 0 -1.02946e+06 1256.77 0 -1.02942e+06 1263.68 0 -1.02939e+06 1270.61 0 -1.02935e+06 1277.56 0 -1.02932e+06 1284.54 0 -1.02928e+06 1291.55 0 -1.02925e+06 1298.58 0 -1.02921e+06 1305.63 0 -1.02917e+06 1312.72 0 -1.02914e+06 1319.82 0 -1.0291e+06 1326.96 0 -1.02906e+06 1334.12 0 -1.02903e+06 1341.3 0 -1.02899e+06 1348.51 0 -1.02895e+06 1355.75 0 -1.02891e+06 1363.01 0 -1.02888e+06 1370.3 0 -1.02884e+06 1377.61 0 -1.0288e+06 1384.96 0 -1.02876e+06 1392.32 0 -1.02872e+06 1399.72 0 -1.02868e+06 1407.14 0 -1.02864e+06 1414.59 0 -1.0286e+06 1422.07 0 -1.02856e+06 1429.57 0 -1.02852e+06 1437.1 0 -1.02848e+06 1444.65 0 -1.02844e+06 1452.24 0 -1.0284e+06 1459.85 0 -1.02836e+06 1467.49 0 -1.02832e+06 1475.16 0 -1.02828e+06 1482.85 0 -1.02824e+06 1490.57 0 -1.0282e+06 1498.32 0 -1.02816e+06 1506.1 0 -1.02811e+06 1513.91 0 -1.02807e+06 1521.74 0 -1.02803e+06 1529.6 0 -1.02799e+06 1537.49 0 -1.02794e+06 1545.41 0 -1.0279e+06 1553.36 0 -1.02786e+06 1561.34 0 -1.02781e+06 1569.34 0 -1.02777e+06 1577.38 0 -1.02773e+06 1585.44 0 -1.02768e+06 1593.53 0 -1.02764e+06 1601.65 0 -1.02759e+06 1609.8 0 -1.02755e+06 1617.98 0 -1.0275e+06 1626.19 0 -1.02746e+06 1634.43 0 -1.02741e+06 1642.7 0 -1.02737e+06 1651 0 -1.02732e+06 1659.32 0 -1.02727e+06 1667.68 0 -1.02723e+06 1676.07 0 -1.02718e+06 1684.48 0 -1.02713e+06 1692.93 0 -1.02709e+06 1701.41 0 -1.02704e+06 1709.91 0 -1.02699e+06 1718.45 0 -1.02694e+06 1727.02 0 -1.0269e+06 1735.62 0 -1.02685e+06 1744.25 0 -1.0268e+06 1752.91 0 -1.02675e+06 1761.6 0 -1.0267e+06 1770.32 0 -1.02665e+06 1779.07 0 -1.0266e+06 1787.86 0 -1.02655e+06 1796.67 0 -1.0265e+06 1805.52 0 -1.02645e+06 1814.4 0 -1.0264e+06 1823.31 0 -1.02635e+06 1832.25 0 -1.0263e+06 1841.22 0 -1.02625e+06 1850.22 0 -1.0262e+06 1859.26 0 -1.02614e+06 1868.33 0 -1.02609e+06 1877.42 0 -1.02604e+06 1886.56 0 -1.02599e+06 1895.72 0 -1.02593e+06 1904.92 0 -1.02588e+06 1914.14 0 -1.02583e+06 1923.4 0 -1.02577e+06 1932.7 0 -1.02572e+06 1942.02 0 -1.02567e+06 1951.38 0 -1.02561e+06 1960.77 0 -1.02556e+06 1970.19 0 -1.0255e+06 1979.65 0 -1.02545e+06 1989.14 0 -1.02539e+06 1998.66 0 -1.02534e+06 2008.22 0 -1.02528e+06 2017.81 0 -1.02522e+06 2027.43 0 -1.02517e+06 2037.08 0 -1.02511e+06 2046.77 0 -1.02505e+06 2056.5 0 -1.02499e+06 2066.25 0 -1.02494e+06 2076.04 0 -1.02488e+06 2085.87 0 -1.02482e+06 2095.72 0 -1.02476e+06 2105.61 0 -1.0247e+06 2115.54 0 -1.02464e+06 2125.5 0 -1.02459e+06 2135.49 0 -1.02453e+06 2145.52 0 -1.02447e+06 2155.58 0 -1.03019e+06 1401.28 0 -1.03015e+06 1409.36 0 -1.03012e+06 1417.47 0 -1.03009e+06 1425.61 0 -1.03006e+06 1433.78 0 -1.03003e+06 1441.98 0 -1.02999e+06 1450.2 0 -1.02996e+06 1458.46 0 -1.02993e+06 1466.75 0 -1.0299e+06 1475.07 0 -1.02986e+06 1483.41 0 -1.02983e+06 1491.79 0 -1.0298e+06 1500.2 0 -1.02976e+06 1508.64 0 -1.02973e+06 1517.11 0 -1.0297e+06 1525.61 0 -1.02966e+06 1534.14 0 -1.02963e+06 1542.7 0 -1.02959e+06 1551.3 0 -1.02956e+06 1559.92 0 -1.02952e+06 1568.58 0 -1.02949e+06 1577.26 0 -1.02945e+06 1585.98 0 -1.02942e+06 1594.73 0 -1.02938e+06 1603.52 0 -1.02935e+06 1612.33 0 -1.02931e+06 1621.18 0 -1.02927e+06 1630.06 0 -1.02924e+06 1638.97 0 -1.0292e+06 1647.92 0 -1.02916e+06 1656.89 0 -1.02913e+06 1665.9 0 -1.02909e+06 1674.95 0 -1.02905e+06 1684.02 0 -1.02901e+06 1693.13 0 -1.02898e+06 1702.27 0 -1.02894e+06 1711.45 0 -1.0289e+06 1720.66 0 -1.02886e+06 1729.9 0 -1.02882e+06 1739.18 0 -1.02878e+06 1748.49 0 -1.02875e+06 1757.83 0 -1.02871e+06 1767.21 0 -1.02867e+06 1776.62 0 -1.02863e+06 1786.07 0 -1.02859e+06 1795.55 0 -1.02855e+06 1805.07 0 -1.02851e+06 1814.62 0 -1.02847e+06 1824.2 0 -1.02842e+06 1833.82 0 -1.02838e+06 1843.48 0 -1.02834e+06 1853.17 0 -1.0283e+06 1862.89 0 -1.02826e+06 1872.66 0 -1.02822e+06 1882.45 0 -1.02818e+06 1892.29 0 -1.02813e+06 1902.16 0 -1.02809e+06 1912.06 0 -1.02805e+06 1922 0 -1.028e+06 1931.98 0 -1.02796e+06 1941.99 0 -1.02792e+06 1952.04 0 -1.02787e+06 1962.13 0 -1.02783e+06 1972.25 0 -1.02779e+06 1982.41 0 -1.02774e+06 1992.6 0 -1.0277e+06 2002.84 0 -1.02765e+06 2013.11 0 -1.02761e+06 2023.42 0 -1.02756e+06 2033.76 0 -1.02752e+06 2044.14 0 -1.02747e+06 2054.56 0 -1.02742e+06 2065.02 0 -1.02738e+06 2075.52 0 -1.02733e+06 2086.05 0 -1.02729e+06 2096.62 0 -1.02724e+06 2107.23 0 -1.02719e+06 2117.88 0 -1.02714e+06 2128.56 0 -1.0271e+06 2139.29 0 -1.02705e+06 2150.05 0 -1.027e+06 2160.86 0 -1.02695e+06 2171.7 0 -1.0269e+06 2182.58 0 -1.02685e+06 2193.5 0 -1.02681e+06 2204.45 0 -1.02676e+06 2215.45 0 -1.02671e+06 2226.49 0 -1.02666e+06 2237.57 0 -1.02661e+06 2248.68 0 -1.02656e+06 2259.84 0 -1.02651e+06 2271.03 0 -1.02645e+06 2282.27 0 -1.0264e+06 2293.55 0 -1.02635e+06 2304.86 0 -1.0263e+06 2316.22 0 -1.02625e+06 2327.62 0 -1.0262e+06 2339.05 0 -1.02614e+06 2350.53 0 -1.02609e+06 2362.05 0 -1.02604e+06 2373.61 0 -1.02599e+06 2385.21 0 -1.02593e+06 2396.85 0 -1.02588e+06 2408.54 0 -1.02582e+06 2420.26 0 -1.02577e+06 2432.03 0 -1.02572e+06 2443.83 0 -1.02566e+06 2455.68 0 -1.02561e+06 2467.57 0 -1.02555e+06 2479.51 0 -1.0255e+06 2491.48 0 -1.02544e+06 2503.5 0 -1.02538e+06 2515.56 0 -1.02533e+06 2527.66 0 -1.02527e+06 2539.8 0 -1.02521e+06 2551.99 0 -1.02516e+06 2564.21 0 -1.0251e+06 2576.49 0 -1.02504e+06 2588.8 0 -1.02498e+06 2601.16 0 -1.02492e+06 2613.56 0 -1.02487e+06 2626 0 -1.02481e+06 2638.49 0 -1.02475e+06 2651.02 0 -1.02469e+06 2663.59 0 -1.02463e+06 2676.21 0 -1.02457e+06 2688.87 0 -1.02451e+06 2701.57 0 -1.03026e+06 1676.53 0 -1.03023e+06 1686.28 0 -1.0302e+06 1696.06 0 -1.03017e+06 1705.88 0 -1.03014e+06 1715.74 0 -1.03011e+06 1725.63 0 -1.03007e+06 1735.56 0 -1.03004e+06 1745.52 0 -1.03001e+06 1755.52 0 -1.02998e+06 1765.56 0 -1.02994e+06 1775.63 0 -1.02991e+06 1785.74 0 -1.02988e+06 1795.89 0 -1.02984e+06 1806.08 0 -1.02981e+06 1816.3 0 -1.02978e+06 1826.56 0 -1.02974e+06 1836.86 0 -1.02971e+06 1847.19 0 -1.02967e+06 1857.57 0 -1.02964e+06 1867.98 0 -1.0296e+06 1878.43 0 -1.02957e+06 1888.92 0 -1.02953e+06 1899.45 0 -1.0295e+06 1910.01 0 -1.02946e+06 1920.62 0 -1.02943e+06 1931.26 0 -1.02939e+06 1941.94 0 -1.02935e+06 1952.67 0 -1.02932e+06 1963.43 0 -1.02928e+06 1974.23 0 -1.02924e+06 1985.07 0 -1.02921e+06 1995.95 0 -1.02917e+06 2006.88 0 -1.02913e+06 2017.84 0 -1.02909e+06 2028.84 0 -1.02906e+06 2039.88 0 -1.02902e+06 2050.97 0 -1.02898e+06 2062.09 0 -1.02894e+06 2073.26 0 -1.0289e+06 2084.46 0 -1.02886e+06 2095.71 0 -1.02882e+06 2107 0 -1.02878e+06 2118.33 0 -1.02875e+06 2129.71 0 -1.02871e+06 2141.12 0 -1.02867e+06 2152.58 0 -1.02863e+06 2164.08 0 -1.02859e+06 2175.62 0 -1.02854e+06 2187.2 0 -1.0285e+06 2198.83 0 -1.02846e+06 2210.5 0 -1.02842e+06 2222.21 0 -1.02838e+06 2233.97 0 -1.02834e+06 2245.77 0 -1.0283e+06 2257.61 0 -1.02825e+06 2269.5 0 -1.02821e+06 2281.42 0 -1.02817e+06 2293.4 0 -1.02813e+06 2305.42 0 -1.02808e+06 2317.48 0 -1.02804e+06 2329.58 0 -1.028e+06 2341.73 0 -1.02795e+06 2353.93 0 -1.02791e+06 2366.17 0 -1.02786e+06 2378.45 0 -1.02782e+06 2390.78 0 -1.02777e+06 2403.16 0 -1.02773e+06 2415.58 0 -1.02768e+06 2428.04 0 -1.02764e+06 2440.55 0 -1.02759e+06 2453.11 0 -1.02755e+06 2465.71 0 -1.0275e+06 2478.36 0 -1.02746e+06 2491.06 0 -1.02741e+06 2503.8 0 -1.02736e+06 2516.59 0 -1.02732e+06 2529.42 0 -1.02727e+06 2542.3 0 -1.02722e+06 2555.23 0 -1.02717e+06 2568.21 0 -1.02712e+06 2581.23 0 -1.02708e+06 2594.3 0 -1.02703e+06 2607.42 0 -1.02698e+06 2620.58 0 -1.02693e+06 2633.79 0 -1.02688e+06 2647.05 0 -1.02683e+06 2660.36 0 -1.02678e+06 2673.72 0 -1.02673e+06 2687.12 0 -1.02668e+06 2700.58 0 -1.02663e+06 2714.08 0 -1.02658e+06 2727.63 0 -1.02653e+06 2741.23 0 -1.02648e+06 2754.88 0 -1.02643e+06 2768.57 0 -1.02637e+06 2782.32 0 -1.02632e+06 2796.12 0 -1.02627e+06 2809.96 0 -1.02622e+06 2823.86 0 -1.02616e+06 2837.8 0 -1.02611e+06 2851.8 0 -1.02606e+06 2865.84 0 -1.026e+06 2879.94 0 -1.02595e+06 2894.09 0 -1.0259e+06 2908.28 0 -1.02584e+06 2922.53 0 -1.02579e+06 2936.83 0 -1.02573e+06 2951.18 0 -1.02568e+06 2965.57 0 -1.02562e+06 2980.03 0 -1.02557e+06 2994.53 0 -1.02551e+06 3009.08 0 -1.02545e+06 3023.69 0 -1.0254e+06 3038.34 0 -1.02534e+06 3053.05 0 -1.02528e+06 3067.81 0 -1.02523e+06 3082.63 0 -1.02517e+06 3097.49 0 -1.02511e+06 3112.41 0 -1.02505e+06 3127.38 0 -1.02499e+06 3142.4 0 -1.02493e+06 3157.47 0 -1.02488e+06 3172.6 0 -1.02482e+06 3187.78 0 -1.02476e+06 3203.02 0 -1.0247e+06 3218.3 0 -1.02464e+06 3233.64 0 -1.02458e+06 3249.04 0 -1.03036e+06 1949.05 0 -1.03033e+06 1960.47 0 -1.03029e+06 1971.95 0 -1.03026e+06 1983.46 0 -1.03023e+06 1995.01 0 -1.0302e+06 2006.61 0 -1.03017e+06 2018.25 0 -1.03013e+06 2029.94 0 -1.0301e+06 2041.67 0 -1.03007e+06 2053.44 0 -1.03004e+06 2065.25 0 -1.03e+06 2077.11 0 -1.02997e+06 2089.01 0 -1.02994e+06 2100.96 0 -1.0299e+06 2112.95 0 -1.02987e+06 2124.99 0 -1.02984e+06 2137.06 0 -1.0298e+06 2149.19 0 -1.02977e+06 2161.36 0 -1.02973e+06 2173.57 0 -1.0297e+06 2185.83 0 -1.02966e+06 2198.14 0 -1.02963e+06 2210.49 0 -1.02959e+06 2222.89 0 -1.02956e+06 2235.33 0 -1.02952e+06 2247.82 0 -1.02948e+06 2260.36 0 -1.02945e+06 2272.94 0 -1.02941e+06 2285.57 0 -1.02938e+06 2298.25 0 -1.02934e+06 2310.98 0 -1.0293e+06 2323.75 0 -1.02926e+06 2336.57 0 -1.02923e+06 2349.43 0 -1.02919e+06 2362.35 0 -1.02915e+06 2375.31 0 -1.02911e+06 2388.32 0 -1.02907e+06 2401.38 0 -1.02904e+06 2414.49 0 -1.029e+06 2427.65 0 -1.02896e+06 2440.86 0 -1.02892e+06 2454.11 0 -1.02888e+06 2467.42 0 -1.02884e+06 2480.77 0 -1.0288e+06 2494.18 0 -1.02876e+06 2507.63 0 -1.02872e+06 2521.14 0 -1.02868e+06 2534.69 0 -1.02864e+06 2548.3 0 -1.0286e+06 2561.95 0 -1.02856e+06 2575.66 0 -1.02852e+06 2589.42 0 -1.02848e+06 2603.23 0 -1.02843e+06 2617.09 0 -1.02839e+06 2631 0 -1.02835e+06 2644.96 0 -1.02831e+06 2658.98 0 -1.02826e+06 2673.04 0 -1.02822e+06 2687.16 0 -1.02818e+06 2701.33 0 -1.02814e+06 2715.56 0 -1.02809e+06 2729.84 0 -1.02805e+06 2744.17 0 -1.028e+06 2758.55 0 -1.02796e+06 2772.99 0 -1.02792e+06 2787.48 0 -1.02787e+06 2802.02 0 -1.02783e+06 2816.62 0 -1.02778e+06 2831.27 0 -1.02774e+06 2845.97 0 -1.02769e+06 2860.73 0 -1.02764e+06 2875.55 0 -1.0276e+06 2890.42 0 -1.02755e+06 2905.34 0 -1.0275e+06 2920.32 0 -1.02746e+06 2935.35 0 -1.02741e+06 2950.44 0 -1.02736e+06 2965.59 0 -1.02732e+06 2980.79 0 -1.02727e+06 2996.04 0 -1.02722e+06 3011.36 0 -1.02717e+06 3026.73 0 -1.02712e+06 3042.15 0 -1.02707e+06 3057.63 0 -1.02703e+06 3073.17 0 -1.02698e+06 3088.77 0 -1.02693e+06 3104.42 0 -1.02688e+06 3120.13 0 -1.02683e+06 3135.89 0 -1.02678e+06 3151.72 0 -1.02673e+06 3167.6 0 -1.02667e+06 3183.54 0 -1.02662e+06 3199.54 0 -1.02657e+06 3215.6 0 -1.02652e+06 3231.71 0 -1.02647e+06 3247.88 0 -1.02642e+06 3264.11 0 -1.02636e+06 3280.41 0 -1.02631e+06 3296.75 0 -1.02626e+06 3313.16 0 -1.02621e+06 3329.63 0 -1.02615e+06 3346.16 0 -1.0261e+06 3362.75 0 -1.02604e+06 3379.39 0 -1.02599e+06 3396.1 0 -1.02594e+06 3412.87 0 -1.02588e+06 3429.7 0 -1.02583e+06 3446.59 0 -1.02577e+06 3463.53 0 -1.02571e+06 3480.54 0 -1.02566e+06 3497.61 0 -1.0256e+06 3514.75 0 -1.02555e+06 3531.94 0 -1.02549e+06 3549.19 0 -1.02543e+06 3566.51 0 -1.02537e+06 3583.89 0 -1.02532e+06 3601.33 0 -1.02526e+06 3618.83 0 -1.0252e+06 3636.39 0 -1.02514e+06 3654.02 0 -1.02508e+06 3671.71 0 -1.02502e+06 3689.46 0 -1.02497e+06 3707.27 0 -1.02491e+06 3725.15 0 -1.02485e+06 3743.09 0 -1.02479e+06 3761.09 0 -1.02472e+06 3779.16 0 -1.02466e+06 3797.29 0 -1.03046e+06 2218.37 0 -1.03043e+06 2231.49 0 -1.0304e+06 2244.66 0 -1.03037e+06 2257.88 0 -1.03034e+06 2271.14 0 -1.03031e+06 2284.46 0 -1.03027e+06 2297.83 0 -1.03024e+06 2311.24 0 -1.03021e+06 2324.71 0 -1.03018e+06 2338.22 0 -1.03014e+06 2351.79 0 -1.03011e+06 2365.41 0 -1.03008e+06 2379.08 0 -1.03005e+06 2392.8 0 -1.03001e+06 2406.57 0 -1.02998e+06 2420.39 0 -1.02994e+06 2434.27 0 -1.02991e+06 2448.19 0 -1.02988e+06 2462.17 0 -1.02984e+06 2476.2 0 -1.02981e+06 2490.29 0 -1.02977e+06 2504.43 0 -1.02974e+06 2518.62 0 -1.0297e+06 2532.86 0 -1.02967e+06 2547.16 0 -1.02963e+06 2561.51 0 -1.02959e+06 2575.91 0 -1.02956e+06 2590.37 0 -1.02952e+06 2604.89 0 -1.02949e+06 2619.46 0 -1.02945e+06 2634.08 0 -1.02941e+06 2648.76 0 -1.02938e+06 2663.49 0 -1.02934e+06 2678.28 0 -1.0293e+06 2693.13 0 -1.02926e+06 2708.03 0 -1.02922e+06 2722.98 0 -1.02919e+06 2738 0 -1.02915e+06 2753.07 0 -1.02911e+06 2768.19 0 -1.02907e+06 2783.38 0 -1.02903e+06 2798.62 0 -1.02899e+06 2813.91 0 -1.02895e+06 2829.27 0 -1.02891e+06 2844.68 0 -1.02887e+06 2860.15 0 -1.02883e+06 2875.68 0 -1.02879e+06 2891.27 0 -1.02875e+06 2906.92 0 -1.02871e+06 2922.62 0 -1.02867e+06 2938.39 0 -1.02863e+06 2954.21 0 -1.02859e+06 2970.1 0 -1.02855e+06 2986.04 0 -1.02851e+06 3002.04 0 -1.02846e+06 3018.11 0 -1.02842e+06 3034.23 0 -1.02838e+06 3050.41 0 -1.02834e+06 3066.66 0 -1.02829e+06 3082.96 0 -1.02825e+06 3099.33 0 -1.02821e+06 3115.76 0 -1.02816e+06 3132.25 0 -1.02812e+06 3148.8 0 -1.02807e+06 3165.41 0 -1.02803e+06 3182.09 0 -1.02798e+06 3198.82 0 -1.02794e+06 3215.62 0 -1.02789e+06 3232.49 0 -1.02785e+06 3249.41 0 -1.0278e+06 3266.4 0 -1.02776e+06 3283.46 0 -1.02771e+06 3300.57 0 -1.02767e+06 3317.75 0 -1.02762e+06 3335 0 -1.02757e+06 3352.3 0 -1.02753e+06 3369.68 0 -1.02748e+06 3387.11 0 -1.02743e+06 3404.62 0 -1.02738e+06 3422.18 0 -1.02733e+06 3439.81 0 -1.02729e+06 3457.51 0 -1.02724e+06 3475.27 0 -1.02719e+06 3493.1 0 -1.02714e+06 3511 0 -1.02709e+06 3528.96 0 -1.02704e+06 3546.99 0 -1.02699e+06 3565.08 0 -1.02694e+06 3583.24 0 -1.02689e+06 3601.47 0 -1.02684e+06 3619.76 0 -1.02679e+06 3638.13 0 -1.02674e+06 3656.56 0 -1.02669e+06 3675.05 0 -1.02664e+06 3693.62 0 -1.02658e+06 3712.25 0 -1.02653e+06 3730.95 0 -1.02648e+06 3749.72 0 -1.02643e+06 3768.56 0 -1.02637e+06 3787.47 0 -1.02632e+06 3806.45 0 -1.02627e+06 3825.5 0 -1.02621e+06 3844.61 0 -1.02616e+06 3863.8 0 -1.0261e+06 3883.05 0 -1.02605e+06 3902.38 0 -1.02599e+06 3921.77 0 -1.02594e+06 3941.24 0 -1.02588e+06 3960.78 0 -1.02583e+06 3980.38 0 -1.02577e+06 4000.06 0 -1.02572e+06 4019.81 0 -1.02566e+06 4039.63 0 -1.0256e+06 4059.52 0 -1.02555e+06 4079.49 0 -1.02549e+06 4099.52 0 -1.02543e+06 4119.63 0 -1.02537e+06 4139.81 0 -1.02531e+06 4160.06 0 -1.02526e+06 4180.39 0 -1.0252e+06 4200.79 0 -1.02514e+06 4221.26 0 -1.02508e+06 4241.8 0 -1.02502e+06 4262.42 0 -1.02496e+06 4283.11 0 -1.0249e+06 4303.87 0 -1.02484e+06 4324.71 0 -1.02478e+06 4345.62 0 -1.03058e+06 2484.06 0 -1.03055e+06 2498.87 0 -1.03052e+06 2513.75 0 -1.03049e+06 2528.68 0 -1.03046e+06 2543.66 0 -1.03043e+06 2558.7 0 -1.0304e+06 2573.8 0 -1.03036e+06 2588.96 0 -1.03033e+06 2604.17 0 -1.0303e+06 2619.44 0 -1.03027e+06 2634.77 0 -1.03023e+06 2650.16 0 -1.0302e+06 2665.6 0 -1.03017e+06 2681.11 0 -1.03013e+06 2696.67 0 -1.0301e+06 2712.29 0 -1.03007e+06 2727.97 0 -1.03003e+06 2743.71 0 -1.03e+06 2759.51 0 -1.02997e+06 2775.37 0 -1.02993e+06 2791.29 0 -1.0299e+06 2807.27 0 -1.02986e+06 2823.31 0 -1.02983e+06 2839.41 0 -1.02979e+06 2855.58 0 -1.02976e+06 2871.8 0 -1.02972e+06 2888.09 0 -1.02968e+06 2904.44 0 -1.02965e+06 2920.85 0 -1.02961e+06 2937.32 0 -1.02958e+06 2953.86 0 -1.02954e+06 2970.45 0 -1.0295e+06 2987.12 0 -1.02946e+06 3003.84 0 -1.02943e+06 3020.63 0 -1.02939e+06 3037.48 0 -1.02935e+06 3054.4 0 -1.02931e+06 3071.38 0 -1.02928e+06 3088.43 0 -1.02924e+06 3105.54 0 -1.0292e+06 3122.72 0 -1.02916e+06 3139.96 0 -1.02912e+06 3157.27 0 -1.02908e+06 3174.64 0 -1.02904e+06 3192.08 0 -1.029e+06 3209.59 0 -1.02896e+06 3227.16 0 -1.02892e+06 3244.8 0 -1.02888e+06 3262.5 0 -1.02884e+06 3280.28 0 -1.0288e+06 3298.12 0 -1.02876e+06 3316.03 0 -1.02872e+06 3334.01 0 -1.02868e+06 3352.05 0 -1.02864e+06 3370.17 0 -1.02859e+06 3388.35 0 -1.02855e+06 3406.6 0 -1.02851e+06 3424.92 0 -1.02847e+06 3443.31 0 -1.02842e+06 3461.77 0 -1.02838e+06 3480.3 0 -1.02834e+06 3498.9 0 -1.02829e+06 3517.57 0 -1.02825e+06 3536.32 0 -1.02821e+06 3555.13 0 -1.02816e+06 3574.01 0 -1.02812e+06 3592.97 0 -1.02807e+06 3611.99 0 -1.02803e+06 3631.09 0 -1.02798e+06 3650.26 0 -1.02794e+06 3669.51 0 -1.02789e+06 3688.82 0 -1.02785e+06 3708.21 0 -1.0278e+06 3727.67 0 -1.02775e+06 3747.21 0 -1.02771e+06 3766.81 0 -1.02766e+06 3786.5 0 -1.02761e+06 3806.25 0 -1.02756e+06 3826.08 0 -1.02752e+06 3845.99 0 -1.02747e+06 3865.97 0 -1.02742e+06 3886.02 0 -1.02737e+06 3906.15 0 -1.02732e+06 3926.35 0 -1.02727e+06 3946.63 0 -1.02722e+06 3966.99 0 -1.02718e+06 3987.42 0 -1.02713e+06 4007.93 0 -1.02708e+06 4028.51 0 -1.02703e+06 4049.18 0 -1.02697e+06 4069.91 0 -1.02692e+06 4090.73 0 -1.02687e+06 4111.62 0 -1.02682e+06 4132.59 0 -1.02677e+06 4153.64 0 -1.02672e+06 4174.77 0 -1.02667e+06 4195.97 0 -1.02661e+06 4217.26 0 -1.02656e+06 4238.62 0 -1.02651e+06 4260.06 0 -1.02646e+06 4281.58 0 -1.0264e+06 4303.18 0 -1.02635e+06 4324.86 0 -1.02629e+06 4346.62 0 -1.02624e+06 4368.46 0 -1.02619e+06 4390.37 0 -1.02613e+06 4412.37 0 -1.02608e+06 4434.45 0 -1.02602e+06 4456.62 0 -1.02596e+06 4478.86 0 -1.02591e+06 4501.18 0 -1.02585e+06 4523.59 0 -1.0258e+06 4546.07 0 -1.02574e+06 4568.64 0 -1.02568e+06 4591.29 0 -1.02562e+06 4614.03 0 -1.02557e+06 4636.84 0 -1.02551e+06 4659.74 0 -1.02545e+06 4682.72 0 -1.02539e+06 4705.79 0 -1.02533e+06 4728.94 0 -1.02527e+06 4752.17 0 -1.02521e+06 4775.49 0 -1.02515e+06 4798.89 0 -1.02509e+06 4822.37 0 -1.02503e+06 4845.94 0 -1.02497e+06 4869.59 0 -1.02491e+06 4893.33 0 -1.03072e+06 2745.64 0 -1.03069e+06 2762.16 0 -1.03066e+06 2778.74 0 -1.03062e+06 2795.39 0 -1.03059e+06 2812.1 0 -1.03056e+06 2828.87 0 -1.03053e+06 2845.71 0 -1.0305e+06 2862.62 0 -1.03047e+06 2879.58 0 -1.03044e+06 2896.61 0 -1.0304e+06 2913.71 0 -1.03037e+06 2930.87 0 -1.03034e+06 2948.1 0 -1.03031e+06 2965.4 0 -1.03027e+06 2982.76 0 -1.03024e+06 3000.18 0 -1.03021e+06 3017.68 0 -1.03017e+06 3035.24 0 -1.03014e+06 3052.87 0 -1.0301e+06 3070.57 0 -1.03007e+06 3088.33 0 -1.03004e+06 3106.16 0 -1.03e+06 3124.06 0 -1.02997e+06 3142.03 0 -1.02993e+06 3160.07 0 -1.0299e+06 3178.18 0 -1.02986e+06 3196.36 0 -1.02983e+06 3214.61 0 -1.02979e+06 3232.93 0 -1.02975e+06 3251.32 0 -1.02972e+06 3269.78 0 -1.02968e+06 3288.31 0 -1.02964e+06 3306.91 0 -1.02961e+06 3325.58 0 -1.02957e+06 3344.33 0 -1.02953e+06 3363.15 0 -1.0295e+06 3382.04 0 -1.02946e+06 3401 0 -1.02942e+06 3420.04 0 -1.02938e+06 3439.15 0 -1.02934e+06 3458.33 0 -1.02931e+06 3477.59 0 -1.02927e+06 3496.92 0 -1.02923e+06 3516.33 0 -1.02919e+06 3535.81 0 -1.02915e+06 3555.36 0 -1.02911e+06 3574.99 0 -1.02907e+06 3594.7 0 -1.02903e+06 3614.48 0 -1.02899e+06 3634.34 0 -1.02895e+06 3654.27 0 -1.02891e+06 3674.29 0 -1.02887e+06 3694.37 0 -1.02883e+06 3714.54 0 -1.02878e+06 3734.78 0 -1.02874e+06 3755.1 0 -1.0287e+06 3775.5 0 -1.02866e+06 3795.98 0 -1.02862e+06 3816.53 0 -1.02857e+06 3837.17 0 -1.02853e+06 