<?xml version="1.0"?> 
<VTKFile type="StructuredGrid" version="0.1"> 
<StructuredGrid WholeExtent="0 127 0 127 0 0"> 
<Piece Extent="0 127 0 127 0 0"> 
<PointData>
<DataArray type="Float32" Name="u" format="ascii" NumberOfComponents="3"> 
236910 -3.8147e-06 0 89502.6 2.73264e-07 0 64172 -8.68626e-07 0 54501.3 1.07495e-06 0 47708.6 -1.19715e-06 0 42389 1.18177e-06 0 38209 -7.8821e-07 0 34845.1 6.42089e-07 0 32074.5 -6.36508e-07 0 29733.2 6.21854e-07 0 27719.5 -4.10582e-07 0 25960.6 4.09505e-07 0 24407.1 -4.04762e-07 0 23021.6 3.36353e-07 0 21776.4 -5.55679e-07 0 20649.5 2.57191e-07 0 19623.8 4.68572e-09 0 18685.3 -5.07571e-08 0 17822.8 3.26196e-07 0 17026.7 -5.46162e-07 0 16289.5 7.40285e-07 0 15604.3 -8.56002e-07 0 14965.8 9.22591e-07 0 14369.1 -1.02329e-06 0 13810 9.96282e-07 0 13285 -7.60891e-07 0 12790.9 7.56234e-07 0 12325.1 -7.6741e-07 0 11885.1 7.4273e-07 0 11468.7 -6.30738e-07 0 11074.2 6.91274e-07 0 10699.7 -6.43311e-07 0 10343.7 6.0536e-07 0 10004.9 -7.04546e-07 0 9682.1 5.86268e-07 0 9374.11 -6.21658e-07 0 9079.93 5.23403e-07 0 8798.66 -6.25383e-07 0 8529.44 5.02449e-07 0 8271.51 -5.24335e-07 0 8024.17 5.56465e-07 0 7786.76 -4.83356e-07 0 7558.7 5.02914e-07 0 7339.44 -3.82774e-07 0 7128.46 5.25266e-07 0 6925.31 -3.6601e-07 0 6729.55 4.20026e-07 0 6540.78 -3.74392e-07 0 6358.61 2.81259e-07 0 6182.71 -3.39001e-07 0 6012.75 2.6077e-07 0 5848.42 -3.21306e-07 0 5689.45 2.66358e-07 0 5535.56 -2.47732e-07 0 5386.51 1.56462e-07 0 5242.06 -2.57045e-07 0 5101.99 1.58325e-07 0 4966.11 -1.2666e-07 0 4834.21 1.24797e-07 0 4706.11 -8.9407e-08 0 4581.64 4.65661e-08 0 4460.64 -3.72529e-09 0 4342.96 -2.98023e-08 0 4228.44 -1.35973e-07 0 4116.95 1.76951e-07 0 4008.36 -2.01166e-07 0 3902.54 -1.00583e-07 0 3799.39 7.45058e-08 0 3698.78 -9.68575e-08 0 3600.61 1.60187e-07 0 3504.78 -8.19564e-08 0 3411.2 1.49012e-07 0 3319.77 -6.33299e-08 0 3230.4 1.8999e-07 0 3143.01 -9.68575e-08 0 3057.53 1.78814e-07 0 2973.87 -1.15484e-07 0 2891.97 2.04891e-07 0 2811.75 -2.30968e-07 0 2733.14 2.98023e-07 0 2656.09 -2.79397e-07 0 2580.54 2.23517e-07 0 2506.41 -1.86265e-07 0 2433.66 3.57628e-07 0 2362.24 -3.57628e-07 0 2292.08 2.90573e-07 0 2223.15 -3.20375e-07 0 2155.38 4.32134e-07 0 2088.75 -3.57628e-07 0 2023.19 3.12924e-07 0 1958.67 -3.42727e-07 0 1895.14 4.91738e-07 0 1832.57 -3.50177e-07 0 1770.91 2.23517e-08 0 1710.13 -7.45058e-09 0 1650.19 1.93715e-07 0 1591.06 -5.21541e-07 0 1532.7 2.01166e-07 0 1475.08 9.68575e-08 0 1418.16 -1.49012e-08 0 1361.91 -4.24683e-07 0 1306.31 9.0152e-07 0 1251.31 -1.08778e-06 0 1196.91 1.41561e-06 0 1143.05 -1.98185e-06 0 1089.73 2.5332e-06 0 1036.9 -2.45869e-06 0 984.55 1.38581e-06 0 932.645 -8.49366e-07 0 881.163 6.4075e-07 0 830.077 -8.9407e-07 0 779.364 1.04308e-06 0 729 -1.07288e-06 0 678.961 9.53674e-07 0 629.223 -5.51343e-07 0 579.764 1.04308e-07 0 530.561 3.57628e-07 0 481.592 -3.12924e-07 0 432.835 1.78814e-07 0 384.267 -3.42727e-07 0 335.868 4.47035e-07 0 287.615 -1.38581e-06 0 239.488 1.80304e-06 0 191.466 -1.66893e-06 0 143.526 1.05798e-06 0 95.6496 -3.57628e-07 0 47.8144 -1.19209e-07 0 -2.26498e-05 2.86102e-06 0 49219.2 -49981.2 0 55318.4 -51353 0 59182.4 -35063.3 0 55886.7 -23341.8 0 50578.4 -16241.8 0 45491.9 -11941.6 0 41154.7 -9199.81 0 37531.1 -7359.98 0 34488.5 -6058.23 0 31898.5 -5100.51 0 29665.6 -4370.28 0 27717.1 -3798.77 0 25999.8 -3340.85 0 24472.6 -2967.2 0 23104.1 -2657.33 0 21869.5 -2396.9 0 20749.1 -2175.43 0 19726.9 -1985.17 0 18790 -1820.25 0 17927.7 -1676.17 0 17131 -1549.4 0 16392.3 -1437.16 0 15705.4 -1337.22 0 15064.8 -1247.77 0 14465.7 -1167.33 0 13904.2 -1094.7 0 13376.8 -1028.85 0 12880.3 -968.944 0 12412 -914.257 0 11969.6 -864.184 0 11550.8 -818.204 0 11154 -775.872 0 10777.2 -736.801 0 10419.1 -700.659 0 10078.2 -667.152 0 9753.36 -636.027 0 9443.41 -607.058 0 9147.36 -580.049 0 8864.27 -554.824 0 8593.3 -531.227 0 8333.7 -509.121 0 8084.74 -488.381 0 7845.79 -468.897 0 7616.24 -450.57 0 7395.55 -433.31 0 7183.2 -417.035 0 6978.73 -401.673 0 6781.69 -387.157 0 6591.7 -373.427 0 6408.36 -360.429 0 6231.33 -348.111 0 6060.28 -336.428 0 5894.9 -325.339 0 5734.92 -314.804 0 5580.06 -304.79 0 5430.08 -295.262 0 5284.73 -286.191 0 5143.81 -277.55 0 5007.09 -269.313 0 4874.39 -261.456 0 4745.52 -253.958 0 4620.31 -246.799 0 4498.59 -239.959 0 4380.21 -233.421 0 4265.02 -227.169 0 4152.89 -221.187 0 4043.68 -215.462 0 3937.27 -209.981 0 3833.54 -204.731 0 3732.38 -199.7 0 3633.68 -194.877 0 3537.34 -190.254 0 3443.26 -185.82 0 3351.35 -181.566 0 3261.52 -177.484 0 3173.7 -173.566 0 3087.79 -169.805 0 3003.72 -166.194 0 2921.42 -162.726 0 2840.82 -159.396 0 2761.85 -156.197 0 2684.45 -153.124 0 2608.56 -150.172 0 2534.11 -147.336 0 2461.05 -144.611 0 2389.33 -141.994 0 2318.89 -139.48 0 2249.68 -137.064 0 2181.65 -134.745 0 2114.77 -132.517 0 2048.97 -130.378 0 1984.22 -128.325 0 1920.48 -126.354 0 1857.7 -124.464 0 1795.85 -122.651 0 1734.89 -120.913 0 1674.78 -119.247 0 1615.48 -117.652 0 1556.96 -116.124 0 1499.2 -114.663 0 1442.14 -113.267 0 1385.77 -111.933 0 1330.05 -110.66 0 1274.95 -109.446 0 1220.45 -108.289 0 1166.51 -107.19 0 1113.11 -106.145 0 1060.21 -105.154 0 1007.8 -104.215 0 955.844 -103.328 0 904.32 -102.491 0 853.201 -101.704 0 802.465 -100.965 0 752.086 -100.274 0 702.041 -99.6298 0 652.306 -99.0317 0 602.86 -98.4791 0 553.679 -97.9713 0 504.74 -97.5077 0 456.023 -97.088 0 407.505 -96.7114 0 359.164 -96.3778 0 310.98 -96.0866 0 262.931 -95.8376 0 214.996 -95.6305 0 167.154 -95.4651 0 119.384 -95.3411 0 71.6662 -95.2585 0 27409.8 -53506.8 0 34644.7 -45126.8 0 37772.9 -41454.2 0 40466.8 -35682.1 0 41260.1 -29447.7 0 40406 -23943.7 0 38624.9 -19511.1 0 36473.1 -16063.6 0 34262.3 -13408.3 0 32142.8 -11350.7 0 30173.2 -9738 0 28369.1 -8454.84 0 26725.4 -7418.79 0 25229.9 -6570.09 0 23867.6 -5865.74 0 22623.8 -5274.18 0 21485.2 -4772.01 0 20439.7 -4341.63 0 19476.7 -3969.59 0 18587 -3645.48 0 17762.7 -3361.16 0 16997 -3110.16 0 16283.7 -2887.31 0 15617.8 -2688.41 0 14994.6 -2510.04 0 14410.1 -2349.39 0 13860.8 -2204.11 0 13343.6 -2072.24 0 12855.9 -1952.14 0 12395 -1842.41 0 11958.9 -1741.86 0 11545.5 -1649.47 0 11153.3 -1564.36 0 10780.5 -1485.76 0 10425.7 -1413.02 0 10087.8 -1345.56 0 9765.44 -1282.88 0 9457.65 -1224.51 0 9163.44 -1170.08 0 8881.95 -1119.24 0 8612.35 -1071.66 0 8353.92 -1027.08 0 8105.96 -985.254 0 7867.86 -945.951 0 7639.03 -908.976 0 7418.94 -874.149 0 7207.1 -841.307 0 7003.05 -810.303 0 6806.37 -781.005 0 6616.65 -753.291 0 6433.54 -727.051 0 6256.68 -702.183 0 6085.76 -678.597 0 5920.47 -656.206 0 5760.54 -634.935 0 5605.71 -614.712 0 5455.72 -595.471 0 5310.35 -577.153 0 5169.38 -559.701 0 5032.6 -543.064 0 4899.82 -527.196 0 4770.87 -512.051 0 4645.56 -497.588 0 4523.73 -483.771 0 4405.24 -470.564 0 4289.93 -457.933 0 4177.67 -445.849 0 4068.34 -434.282 0 3961.79 -423.206 0 3857.93 -412.597 0 3756.63 -402.431 0 3657.79 -392.686 0 3561.32 -383.342 0 3467.1 -374.38 0 3375.06 -365.782 0 3285.1 -357.531 0 3197.14 -349.611 0 3111.1 -342.007 0 3026.91 -334.706 0 2944.49 -327.694 0 2863.77 -320.96 0 2784.68 -314.49 0 2707.17 -308.275 0 2631.17 -302.303 0 2556.62 -296.565 0 2483.46 -291.052 0 2411.64 -285.755 0 2341.11 -280.666 0 2271.82 -275.777 0 2203.71 -271.08 0 2136.75 -266.569 0 2070.88 -262.236 0 2006.07 -258.076 0 1942.27 -254.083 0 1879.44 -250.252 0 1817.54 -246.576 0 1756.53 -243.05 0 1696.38 -239.671 0 1637.06 -236.433 0 1578.51 -233.333 0 1520.73 -230.365 0 1463.66 -227.528 0 1407.28 -224.815 0 1351.56 -222.226 0 1296.47 -219.755 0 1241.98 -217.4 0 1188.06 -215.159 0 1134.68 -213.028 0 1081.81 -211.005 0 1029.44 -209.088 0 977.53 -207.273 0 926.058 -205.56 0 875 -203.946 0 824.331 -202.429 0 774.026 -201.008 0 724.063 -199.681 0 674.418 -198.445 0 625.069 -197.301 0 575.994 -196.247 0 527.169 -195.281 0 478.573 -194.403 0 430.185 -193.61 0 381.983 -192.904 0 333.946 -192.282 0 286.053 -191.745 0 238.284 -191.291 0 190.617 -190.92 0 143.031 -190.632 0 21843.8 -42621.6 0 23604.6 -43199.9 0 26807.2 -40194.8 0 29004.1 -37110.6 0 30693.6 -33685.3 0 31744 -29990.3 0 32063.1 -26316.6 0 31745.5 -22915.6 0 30970.6 -19911.7 0 29912.6 -17334.4 0 28706.7 -15156.1 0 27444.8 -13326.7 0 26184.9 -11790.7 0 24961 -10497.1 0 23791.1 -9402.06 0 22683.8 -8469.27 0 21641.7 -7669.45 0 20664 -6979.1 0 19748.2 -6379.37 0 18890.8 -5855.14 0 18087.7 -5394.24 0 17335.1 -4986.79 0 16629.1 -4624.77 0 15966 -4301.58 0 15342.3 -4011.79 0 14755.1 -3750.86 0 14201.3 -3515.04 0 13678.4 -3301.14 0 13184 -3106.48 0 12715.9 -2928.78 0 12272.2 -2766.1 0 11851.1 -2616.77 0 11450.9 -2479.33 0 11070.2 -2352.54 0 10707.5 -2235.32 0 10361.8 -2126.71 0 10031.9 -2025.87 0 9716.63 -1932.09 0 9415.18 -1844.7 0 9126.64 -1763.14 0 8850.21 -1686.9 0 8585.16 -1615.52 0 8330.81 -1548.6 0 8086.52 -1485.77 0 7851.73 -1426.71 0 7625.9 -1371.12 0 7408.52 -1318.74 0 7199.12 -1269.33 0 6997.29 -1222.67 0 6802.62 -1178.56 0 6614.74 -1136.83 0 6433.28 -1097.3 0 6257.94 -1059.83 0 6088.4 -1024.28 0 5924.37 -990.526 0 5765.59 -958.453 0 5611.8 -927.954 0 5462.78 -898.931 0 5318.28 -871.295 0 5178.12 -844.962 0 5042.07 -819.854 0 4909.97 -795.902 0 4781.63 -773.039 0 4656.89 -751.203 0 4535.59 -730.338 0 4417.58 -710.391 0 4302.71 -691.313 0 4190.87 -673.057 0 4081.9 -655.582 0 3975.71 -638.846 0 3872.16 -622.813 0 3771.16 -607.448 0 3672.6 -592.718 0 3576.38 -578.592 0 3482.4 -565.042 0 3390.57 -552.04 0 3300.82 -539.561 0 3213.05 -527.583 0 3127.19 -516.081 0 3043.17 -505.035 0 2960.91 -494.425 0 2880.34 -484.233 0 2801.4 -474.441 0 2724.02 -465.032 0 2648.14 -455.991 0 2573.71 -447.303 0 2500.67 -438.954 0 2428.97 -430.93 0 2358.55 -423.22 0 2289.37 -415.811 0 2221.37 -408.692 0 2154.51 -401.853 0 2088.74 -395.284 0 2024.03 -388.975 0 1960.33 -382.917 0 1897.6 -377.102 0 1835.8 -371.522 0 1774.9 -366.169 0 1714.85 -361.036 0 1655.63 -356.117 0 1597.2 -351.404 0 1539.52 -346.892 0 1482.56 -342.574 0 1426.29 -338.446 0 1370.69 -334.502 0 1315.72 -330.737 0 1261.35 -327.147 0 1207.55 -323.727 0 1154.3 -320.474 0 1101.58 -317.382 0 1049.34 -314.449 0 997.576 -311.671 0 946.252 -309.045 0 895.348 -306.568 0 844.837 -304.237 0 794.698 -302.049 0 744.905 -300.002 0 695.437 -298.094 0 646.271 -296.321 0 597.385 -294.684 0 548.757 -293.178 0 500.365 -291.804 0 452.188 -290.559 0 404.205 -289.442 0 356.394 -288.452 0 308.736 -287.587 0 261.21 -286.848 0 213.794 -286.232 0 14570.1 -42243.6 0 17260.8 -39688.4 0 19148.9 -38426.8 0 21225.3 -36543 0 22971.9 -34311.3 0 24334.8 -31874.2 0 25317.7 -29306.8 0 25908.3 -26698.4 0 26121.1 -24151.4 0 26004 -21748.5 0 25624.8 -19542.9 0 25053.9 -17558 0 24354 -15795.1 0 23575.3 -14242 0 22755.8 -12879.5 0 21922.8 -11685.7 0 21094.9 -10639.3 0 20284.6 -9720.19 0 19499.5 -8910.79 0 18744.3 -8195.66 0 18021.4 -7561.58 0 17331.6 -6997.3 0 16674.7 -6493.3 0 16050 -6041.52 0 15456.3 -5635.1 0 14892.3 -5268.27 0 14356.5 -4936.08 0 13847.2 -4634.34 0 13363 -4359.44 0 12902.4 -4108.31 0 12463.9 -3878.26 0 12046.2 -3667.02 0 11648.1 -3472.57 0 11268.2 -3293.18 0 10905.6 -3127.33 0 10559.1 -2973.69 0 10227.7 -2831.08 0 9910.6 -2698.47 0 9606.92 -2574.95 0 9315.85 -2459.71 0 9036.67 -2352.02 0 8768.71 -2251.24 0 8511.32 -2156.79 0 8263.92 -2068.16 0 8025.96 -1984.88 0 7796.92 -1906.53 0 7576.33 -1832.73 0 7363.73 -1763.15 0 7158.73 -1697.46 0 6960.91 -1635.4 0 6769.92 -1576.7 0 6585.42 -1521.12 0 6407.08 -1468.46 0 6234.6 -1418.53 0 6067.7 -1371.13 0 5906.11 -1326.11 0 5749.59 -1283.31 0 5597.89 -1242.6 0 5450.79 -1203.85 0 5308.09 -1166.94 0 5169.59 -1131.76 0 5035.09 -1098.2 0 4904.43 -1066.18 0 4777.43 -1035.61 0 4653.94 -1006.41 0 4533.8 -978.497 0 4416.88 -951.806 0 4303.03 -926.272 0 4192.13 -901.834 0 4084.06 -878.436 0 3978.7 -856.023 0 3875.94 -834.548 0 3775.68 -813.963 0 3677.81 -794.225 0 3582.24 -775.293 0 3488.88 -757.129 0 3397.64 -739.698 0 3308.43 -722.965 0 3221.19 -706.899 0 3135.82 -691.47 0 3052.27 -676.65 0 2970.45 -662.413 0 2890.31 -648.733 0 2811.77 -635.588 0 2734.78 -622.956 0 2659.27 -610.814 0 2585.2 -599.144 0 2512.5 -587.927 0 2441.13 -577.146 0 2371.02 -566.783 0 2302.14 -556.823 0 2234.44 -547.251 0 2167.87 -538.052 0 2102.38 -529.215 0 2037.94 -520.725 0 1974.51 -512.571 0 1912.04 -504.742 0 1850.49 -497.226 0 1789.84 -490.015 0 1730.04 -483.097 0 1671.06 -476.464 0 1612.87 -470.107 0 1555.42 -464.018 0 1498.7 -458.19 0 1442.68 -452.614 0 1387.31 -447.284 0 1332.57 -442.194 0 1278.43 -437.336 0 1224.88 -432.706 0 1171.86 -428.298 0 1119.37 -424.106 0 1067.38 -420.125 0 1015.86 -416.352 0 964.779 -412.78 0 914.123 -409.408 0 863.865 -406.229 0 813.981 -403.242 0 764.448 -400.441 0 715.244 -397.826 0 666.347 -395.391 0 617.735 -393.136 0 569.387 -391.056 0 521.281 -389.151 0 473.395 -387.418 0 425.71 -385.854 0 378.205 -384.459 0 330.86 -383.23 0 283.654 -382.167 0 10966.8 -38041.1 0 12413.9 -37810.5 0 14166.7 -36508.7 0 15684.7 -35209.5 0 17163 -33739.7 0 18515.7 -32071.8 0 19661.6 -30250.2 0 20570 -28328.5 0 21230 -26358.3 0 21645.3 -24391.7 0 21831.7 -22475.4 0 21816.2 -20647.9 0 21631.9 -18935.3 0 21313.3 -17352.9 0 20893.2 -15905.8 0 20400.3 -14592.4 0 19858.3 -13406.2 0 19286.2 -12338.1 0 18698.8 -11377.6 0 18107 -10514.3 0 17519 -9737.7 0 16940.5 -9038.36 0 16375.6 -8407.53 0 15826.9 -7837.4 0 15296.1 -7321.03 0 14784.1 -6852.29 0 14291.3 -6425.82 0 13817.8 -6036.91 0 13363.2 -5681.44 0 12927.2 -5355.8 0 12509 -5056.85 0 12108.2 -4781.8 0 11723.9 -4528.23 0 11355.5 -4294 0 11002.2 -4077.22 0 10663.3 -3876.23 0 10338 -3689.54 0 10025.9 -3515.85 0 9726.02 -3353.99 0 9437.93 -3202.93 0 9160.98 -3061.74 0 8894.61 -2929.58 0 8638.28 -2805.71 0 8391.49 -2689.47 0 8153.76 -2580.24 0 7924.62 -2477.48 0 7703.66 -2380.71 0 7490.48 -2289.46 0 7284.69 -2203.34 0 7085.93 -2121.98 0 6893.88 -2045.03 0 6708.19 -1972.2 0 6528.59 -1903.2 0 6354.78 -1837.78 0 6186.5 -1775.7 0 6023.48 -1716.74 0 5865.5 -1660.7 0 5712.32 -1607.41 0 5563.74 -1556.69 0 5419.54 -1508.38 0 5279.55 -1462.35 0 5143.56 -1418.46 0 5011.42 -1376.58 0 4882.95 -1336.6 0 4758.01 -1298.42 0 4636.45 -1261.93 0 4518.12 -1227.04 0 4402.89 -1193.67 0 4290.64 -1161.73 0 4181.24 -1131.16 0 4074.58 -1101.88 0 3970.55 -1073.82 0 3869.04 -1046.93 0 3769.96 -1021.15 0 3673.21 -996.425 0 3578.69 -972.702 0 3486.33 -949.937 0 3396.04 -928.083 0 3307.74 -907.101 0 3221.35 -886.95 0 3136.8 -867.594 0 3054.01 -848.997 0 2972.93 -831.128 0 2893.49 -813.955 0 2815.63 -797.449 0 2739.28 -781.583 0 2664.39 -766.33 0 2590.91 -751.666 0 2518.78 -737.568 0 2447.95 -724.013 0 2378.37 -710.982 0 2309.99 -698.454 0 2242.78 -686.412 0 2176.68 -674.836 0 2111.65 -663.711 0 2047.66 -653.021 0 1984.65 -642.751 0 1922.6 -632.886 0 1861.47 -623.414 0 1801.22 -614.321 0 1741.81 -605.596 0 1683.21 -597.227 0 1625.4 -589.203 0 1568.32 -581.514 0 1511.97 -574.15 0 1456.3 -567.102 0 1401.29 -560.361 0 1346.9 -553.92 0 1293.12 -547.769 0 1239.9 -541.903 0 1187.24 -536.313 0 1135.09 -530.993 0 1083.44 -525.938 0 1032.26 -521.14 0 981.523 -516.596 0 931.211 -512.298 0 881.297 -508.243 0 831.76 -504.426 0 782.577 -500.843 0 733.725 -497.489 0 685.183 -494.362 0 636.93 -491.457 0 588.944 -488.771 0 541.205 -486.302 0 493.692 -484.046 0 446.385 -482.002 0 399.263 -480.167 0 352.308 -478.539 0 6990.74 -36666.8 0 8583.51 -35563.8 0 9996.71 -34834.6 0 11434.5 -33856.4 0 12753.3 -32746.1 0 13966.4 -31527.1 0 15074 -30198 0 16050.6 -28770.4 0 16875.3 -27268.3 0 17535.7 -25720.1 0 18029 -24156 0 18359.6 -22604.5 0 18538.6 -21091.1 0 18581.6 -19636.2 0 18507 -18255.2 0 18334.2 -16957.8 0 18082 -15749 0 17767.8 -14630 0 17406.8 -13599 0 17012.1 -12652.4 0 16594.4 -11785.1 0 16162.5 -10991.6 0 15723.2 -10265.9 0 15282.2 -9602.34 0 14843.5 -8995.22 0 14410.2 -8439.31 0 13984.8 -7929.74 0 13568.9 -7462.06 0 13163.7 -7032.23 0 12770 -6636.6 0 12388.1 -6271.88 0 12018.4 -5935.15 0 11660.9 -5623.76 0 11315.5 -5335.36 0 10981.9 -5067.84 0 10660 -4819.3 0 10349.4 -4588.07 0 10049.8 -4372.61 0 9760.73 -4171.59 0 9481.9 -3983.76 0 9212.89 -3808.04 0 8953.31 -3643.43 0 8702.77 -3489.04 0 8460.9 -3344.07 0 8227.34 -3207.77 0 8001.73 -3079.5 0 7783.72 -2958.65 0 7572.98 -2844.67 0 7369.21 -2737.06 0 7172.09 -2635.38 0 6981.34 -2539.2 0 6796.68 -2448.16 0 6617.84 -2361.9 0 6444.58 -2280.1 0 6276.65 -2202.47 0 6113.83 -2128.74 0 5955.89 -2058.68 0 5802.64 -1992.03 0 5653.87 -1928.61 0 5509.39 -1868.21 0 5369.03 -1810.65 0 5232.62 -1755.77 0 5099.99 -1703.4 0 4970.99 -1653.42 0 4845.47 -1605.68 0 4723.3 -1560.06 0 4604.33 -1516.44 0 4488.44 -1474.73 0 4375.51 -1434.81 0 4265.42 -1396.59 0 4158.06 -1359.98 0 4053.32 -1324.92 0 3951.11 -1291.3 0 3851.32 -1259.08 0 3753.87 -1228.17 0 3658.65 -1198.51 0 3565.6 -1170.06 0 3474.62 -1142.74 0 3385.65 -1116.5 0 3298.59 -1091.31 0 3213.39 -1067.11 0 3129.97 -1043.85 0 3048.27 -1021.5 0 2968.22 -1000.02 0 2889.76 -979.376 0 2812.84 -959.524 0 2737.39 -940.435 0 2663.36 -922.08 0 2590.7 -904.429 0 2519.37 -887.455 0 2449.3 -871.13 0 2380.46 -855.431 0 2312.79 -840.335 0 2246.26 -825.818 0 2180.82 -811.861 0 2116.43 -798.443 0 2053.05 -785.545 0 1990.65 -773.15 0 1929.18 -761.24 0 1868.61 -749.801 0 1808.91 -738.815 0 1750.04 -728.269 0 1691.97 -718.15 0 1634.67 -708.444 0 1578.1 -699.139 0 1522.24 -690.223 0 1467.05 -681.686 0 1412.52 -673.516 0 1358.6 -665.705 0 1305.28 -658.241 0 1252.52 -651.118 0 1200.31 -644.326 0 1148.61 -637.857 0 1097.41 -631.704 0 1046.67 -625.859 0 996.373 -620.317 0 946.5 -615.07 0 897.025 -610.114 0 847.926 -605.441 0 799.181 -601.048 0 750.768 -596.93 0 702.667 -593.081 0 654.857 -589.497 0 607.316 -586.176 0 560.026 -583.113 0 512.965 -580.304 0 466.114 -577.748 0 419.453 -575.44 0 4411.65 -34165.8 0 5589.86 -33834.2 0 6816.65 -33135.7 0 7993.75 -32416.5 0 9163.9 -31599.4 0 10284.9 -30678.8 0 11328.9 -29668.4 0 12286.2 -28578.6 0 13145.8 -27420 0 13897.6 -26206.1 0 14534 -24953.1 0 15051.1 -23678.8 0 15449.4 -22401.3 0 15733 -21137.4 0 15909.3 -19902.1 0 15988.1 -18707.7 0 15980.5 -17563.7 0 15898.4 -16476.7 0 15753.3 -15450.9 0 15556.4 -14488.1 0 15317.8 -13588.3 0 15046.5 -12750.1 0 14750.4 -11971.4 0 14436.2 -11249.1 0 14109.3 -10580 0 13774.6 -9960.54 0 13435.7 -9387.14 0 13095.7 -8856.34 0 12757 -8364.8 0 12421.6 -7909.36 0 12090.9 -7487.04 0 11766 -7095.11 0 11447.8 -6731.02 0 11136.9 -6392.45 0 10833.6 -6077.28 0 10538.3 -5783.56 0 10251.2 -5509.53 0 9972.15 -5253.57 0 9701.27 -5014.23 0 9438.43 -4790.18 0 9183.51 -4580.21 0 8936.36 -4383.22 0 8696.79 -4198.21 0 8464.59 -4024.28 0 8239.56 -3860.58 0 8021.47 -3706.38 0 7810.1 -3560.97 0 7605.21 -3423.73 0 7406.59 -3294.08 0 7214 -3171.5 0 7027.23 -3055.49 0 6846.06 -2945.62 0 6670.29 -2841.48 0 6499.7 -2742.7 0 6334.11 -2648.92 0 6173.31 -2559.83 0 6017.13 -2475.13 0 5865.39 -2394.56 0 5717.92 -2317.87 0 5574.55 -2244.81 0 5435.12 -2175.18 0 5299.49 -2108.78 0 5167.51 -2045.43 0 5039.04 -1984.94 0 4913.94 -1927.16 0 4792.09 -1871.94 0 4673.35 -1819.15 0 4557.63 -1768.65 0 4444.8 -1720.31 0 4334.75 -1674.04 0 4227.37 -1629.72 0 4122.58 -1587.25 0 4020.27 -1546.54 0 3920.36 -1507.51 0 3822.74 -1470.07 0 3727.35 -1434.15 0 3634.09 -1399.67 0 3542.89 -1366.57 0 3453.68 -1334.79 0 3366.37 -1304.25 0 3280.91 -1274.92 0 3197.23 -1246.73 0 3115.26 -1219.63 0 3034.94 -1193.59 0 2956.21 -1168.54 0 2879.01 -1144.46 0 2803.29 -1121.3 0 2729 -1099.02 0 2656.08 -1077.6 0 2584.49 -1056.99 0 2514.17 -1037.16 0 2445.08 -1018.08 0 2377.18 -999.733 0 2310.43 -982.083 0 2244.77 -965.105 0 2180.18 -948.775 0 2116.61 -933.071 0 2054.03 -917.972 0 1992.39 -903.455 0 1931.67 -889.502 0 1871.82 -876.095 0 1812.82 -863.215 0 1754.64 -850.845 0 1697.23 -838.971 0 1640.58 -827.577 0 1584.65 -816.649 0 1529.41 -806.173 0 1474.83 -796.136 0 1420.89 -786.526 0 1367.56 -777.333 0 1314.82 -768.544 0 1262.63 -760.149 0 1210.98 -752.139 0 1159.84 -744.504 0 1109.18 -737.236 0 1058.98 -730.327 0 1009.23 -723.768 0 959.888 -717.552 0 910.944 -711.673 0 862.374 -706.124 0 814.156 -700.898 0 766.27 -695.991 0 718.695 -691.396 0 671.411 -687.109 0 624.398 -683.125 0 577.636 -679.441 0 531.106 -676.051 0 484.789 -672.953 0 1809.43 -32626 0 2966.82 -32072.6 0 4085.65 -31604.4 0 5183.39 -31024.4 0 6231.81 -30378.5 0 7241.07 -29668 0 8208.65 -28888.1 0 9120.76 -28041.4 0 9967.47 -27134.1 0 10740.1 -26174 0 11432 -25170.5 0 12038.1 -24134 0 12555.3 -23075.8 0 12982.9 -22007.8 0 13322.3 -20941.4 0 13576.8 -19887.3 0 13751.6 -18854.9 0 13853.2 -17852.2 0 13888.8 -16885.4 0 13865.9 -15959.4 0 13792.3 -15077.3 0 13675.4 -14240.8 0 13522.1 -13450.8 0 13338.9 -12706.9 0 13131.4 -12008.3 0 12904.8 -11353.4 0 12663.5 -10740.3 0 12411.2 -10167.1 0 12151.1 -9631.33 0 11886.1 -9130.88 0 11618.2 -8663.41 0 11349.5 -8226.72 0 11081.5 -7818.65 0 10815.3 -7437.17 0 10552 -7080.37 0 10292.3 -6746.44 0 10037 -6433.7 0 9786.39 -6140.59 0 9540.91 -5865.67 0 9300.79 -5607.58 0 9066.19 -5365.12 0 8837.24 -5137.13 0 8613.96 -4922.58 0 8396.37 -4720.5 0 8184.44 -4530 0 7978.1 -4350.28 0 7777.28 -4180.59 0 7581.87 -4020.23 0 7391.76 -3868.57 0 7206.82 -3725.03 0 7026.93 -3589.08 0 6851.95 -3460.21 0 6681.73 -3337.97 0 6516.15 -3221.93 0 6355.05 -3111.7 0 6198.31 -3006.93 0 6045.77 -2907.28 0 5897.3 -2812.43 0 5752.76 -2722.11 0 5612.03 -2636.04 0 5474.98 -2553.98 0 5341.47 -2475.7 0 5211.4 -2400.98 0 5084.63 -2329.62 0 4961.06 -2261.44 0 4840.57 -2196.27 0 4723.06 -2133.94 0 4608.42 -2074.31 0 4496.55 -2017.23 0 4387.36 -1962.56 0 4280.74 -1910.2 0 4176.62 -1860.01 0 4074.9 -1811.9 0 3975.5 -1765.76 0 3878.34 -1721.49 0 3783.34 -1679.01 0 3690.43 -1638.24 0 3599.53 -1599.08 0 3510.57 -1561.47 0 3423.48 -1525.34 0 3338.21 -1490.62 0 3254.68 -1457.24 0 3172.84 -1425.16 0 3092.62 -1394.31 0 3013.98 -1364.65 0 2936.85 -1336.11 0 2861.19 -1308.67 0 2786.94 -1282.26 0 2714.05 -1256.85 0 2642.49 -1232.4 0 2572.19 -1208.88 0 2503.11 -1186.24 0 2435.23 -1164.45 0 2368.48 -1143.48 0 2302.83 -1123.31 0 2238.25 -1103.9 0 2174.69 -1085.22 0 2112.11 -1067.25 0 2050.49 -1049.97 0 1989.79 -1033.35 0 1929.97 -1017.36 0 1871.01 -1002 0 1812.86 -987.233 0 1755.5 -973.047 0 1698.91 -959.423 0 1643.04 -946.344 0 1587.88 -933.794 0 1533.39 -921.757 0 1479.55 -910.219 0 1426.32 -899.166 0 1373.7 -888.585 0 1321.65 -878.463 0 1270.14 -868.789 0 1219.16 -859.553 0 1168.67 -850.742 0 1118.66 -842.348 0 1069.11 -834.36 0 1019.99 -826.77 0 971.28 -819.57 0 922.96 -812.752 0 875.008 -806.308 0 827.406 -800.231 0 780.132 -794.515 0 733.167 -789.154 0 686.491 -784.141 0 640.086 -779.472 0 593.932 -775.142 0 548.01 -771.146 0 -135.429 -30756.4 0 842.724 -30490 0 1818.01 -30085.1 0 2786.73 -29647.6 0 3746.32 -29148.4 0 4679.23 -28588.8 0 5575.99 -27974 0 6433.6 -27305.9 0 7245.72 -26586.9 0 8006.4 -25821 0 8709.64 -25013.3 0 9350.68 -24170.3 0 9925.73 -23299.1 0 10432.3 -22407.4 0 10869.3 -21503.3 0 11237 -20594.8 0 11536.8 -19689.5 0 11771.6 -18794.6 0 11944.9 -17916.4 0 12061.2 -17060.3 0 12125.5 -16230.8 0 12142.9 -15431.3 0 12118.6 -14664.3 0 12057.9 -13931.4 0 11965.6 -13233.5 0 11846.5 -12570.8 0 11704.8 -11943.1 0 11544.3 -11349.7 0 11368.5 -10789.6 0 11180.4 -10261.5 0 10982.8 -9764.1 0 10778 -9295.85 0 10567.9 -8855.25 0 10354.3 -8440.75 0 10138.6 -8050.82 0 9922.09 -7683.97 0 9705.76 -7338.76 0 9490.47 -7013.82 0 9276.93 -6707.83 0 9065.71 -6419.57 0 8857.28 -6147.87 0 8652 -5891.63 0 8450.18 -5649.84 0 8252.02 -5421.54 0 8057.71 -5205.85 0 7867.35 -5001.94 0 7681.02 -4809.05 0 7498.78 -4626.46 0 7320.62 -4453.5 0 7146.55 -4289.57 0 6976.55 -4134.1 0 6810.56 -3986.55 0 6648.53 -3846.43 0 6490.4 -3713.29 0 6336.1 -3586.7 0 6185.54 -3466.27 0 6038.65 -3351.63 0 5895.33 -3242.44 0 5755.5 -3138.39 0 5619.07 -3039.18 0 5485.93 -2944.53 0 5356.01 -2854.19 0 5229.2 -2767.92 0 5105.43 -2685.49 0 4984.59 -2606.7 0 4866.6 -2531.36 0 4751.38 -2459.27 0 4638.83 -2390.27 0 4528.88 -2324.21 0 4421.43 -2260.92 0 4316.43 -2200.27 0 4213.77 -2142.13 0 4113.4 -2086.38 0 4015.23 -2032.9 0 3919.2 -1981.57 0 3825.23 -1932.31 0 3733.27 -1885 0 3643.23 -1839.56 0 3555.07 -1795.91 0 3468.72 -1753.97 0 3384.12 -1713.65 0 3301.21 -1674.88 0 3219.94 -1637.61 0 3140.25 -1601.76 0 3062.09 -1567.27 0 2985.41 -1534.1 0 2910.16 -1502.17 0 2836.3 -1471.45 0 2763.78 -1441.88 0 2692.54 -1413.41 0 2622.56 -1386.02 0 2553.78 -1359.64 0 2486.17 -1334.25 0 2419.69 -1309.81 0 2354.3 -1286.28 0 2289.96 -1263.62 0 2226.63 -1241.82 0 2164.29 -1220.83 0 2102.89 -1200.63 0 2042.4 -1181.2 0 1982.8 -1162.5 0 1924.04 -1144.51 0 1866.11 -1127.21 0 1808.97 -1110.58 0 1752.58 -1094.59 0 1696.93 -1079.23 0 1641.99 -1064.48 0 1587.72 -1050.32 0 1534.11 -1036.73 0 1481.12 -1023.7 0 1428.74 -1011.2 0 1376.94 -999.238 0 1325.69 -987.785 0 1274.97 -976.831 0 1224.76 -966.364 0 1175.04 -956.373 0 1125.78 -946.846 0 1076.97 -937.773 0 1028.58 -929.144 0 980.588 -920.949 0 932.982 -913.18 0 885.739 -905.828 0 838.838 -898.886 0 792.261 -892.345 0 745.989 -886.2 0 700.003 -880.444 0 654.285 -875.071 0 608.817 -870.074 0 -1976.69 -29255.2 0 -1052.42 -28958.1 0 -136.283 -28662.3 0 758.433 -28308.8 0 1632.29 -27913.3 0 2487.64 -27473.5 0 3321.4 -26987.3 0 4126.49 -26455.9 0 4898.49 -25881.1 0 5632.72 -25265.5 0 6325.09 -24612.1 0 6971.56 -23924.9 0 7568.72 -23208.2 0 8113.75 -22467.2 0 8604.65 -21707.2 0 9040.27 -20934 0 9420.34 -20153.4 0 9745.46 -19371 0 10017 -18592.1 0 10237.2 -17821.8 0 10408.5 -17064.6 0 10534.4 -16324.2 0 10618.1 -15603.8 0 10663.4 -14906.1 0 10674 -14233.1 0 10653.7 -13586 0 10606 -12965.9 0 10534.4 -12373.2 0 10442.1 -11807.9 0 10332.1 -11269.8 0 10207.1 -10758.4 0 10069.5 -10273 0 9921.52 -9812.69 0 9765.18 -9376.6 0 9602.17 -8963.68 0 9434.02 -8572.86 0 9262.05 -8203.06 0 9087.41 -7853.19 0 8911.08 -7522.2 0 8733.91 -7209.04 0 8556.62 -6912.7 0 8379.83 -6632.22 0 8204.06 -6366.66 0 8029.74 -6115.17 0 7857.23 -5876.88 0 7686.82 -5651.04 0 7518.75 -5436.88 0 7353.23 -5233.71 0 7190.39 -5040.87 0 7030.35 -4857.76 0 6873.21 -4683.78 0 6719.02 -4518.42 0 6567.83 -4361.15 0 6419.64 -4211.5 0 6274.47 -4069.05 0 6132.31 -3933.36 0 5993.14 -3804.06 0 5856.92 -3680.78 0 5723.62 -3563.19 0 5593.2 -3450.97 0 5465.61 -3343.82 0 5340.8 -3241.48 0 5218.71 -3143.67 0 5099.29 -3050.16 0 4982.47 -2960.72 0 4868.19 -2875.14 0 4756.39 -2793.22 0 4647.01 -2714.76 0 4539.99 -2639.6 0 4435.26 -2567.57 0 4332.76 -2498.51 0 4232.44 -2432.28 0 4134.22 -2368.74 0 4038.06 -2307.77 0 3943.88 -2249.23 0 3851.64 -2193.02 0 3761.28 -2139.03 0 3672.73 -2087.15 0 3585.96 -2037.3 0 3500.9 -1989.38 0 3417.5 -1943.3 0 3335.72 -1898.98 0 3255.5 -1856.35 0 3176.79 -1815.34 0 3099.55 -1775.88 0 3023.73 -1737.9 0 2949.3 -1701.34 0 2876.2 -1666.14 0 2804.39 -1632.26 0 2733.83 -1599.63 0 2664.49 -1568.21 0 2596.32 -1537.96 0 2529.28 -1508.82 0 2463.35 -1480.75 0 2398.48 -1453.73 0 2334.64 -1427.7 0 2271.79 -1402.63 0 2209.91 -1378.49 0 2148.96 -1355.25 0 2088.9 -1332.87 0 2029.72 -1311.32 0 1971.37 -1290.58 0 1913.84 -1270.63 0 1857.09 -1251.43 0 1801.09 -1232.96 0 1745.82 -1215.2 0 1691.25 -1198.13 0 1637.36 -1181.73 0 1584.12 -1165.97 0 1531.51 -1150.85 0 1479.5 -1136.33 0 1428.07 -1122.41 0 1377.2 -1109.07 0 1326.87 -1096.29 0 1277.05 -1084.06 0 1227.72 -1072.37 0 1178.86 -1061.2 0 1130.45 -1050.54 0 1082.48 -1040.38 0 1034.91 -1030.71 0 987.735 -1021.51 0 940.933 -1012.79 0 894.484 -1004.52 0 848.37 -996.7 0 802.574 -989.324 0 757.076 -982.383 0 711.859 -975.868 0 666.906 -969.774 0 -3471 -27681.9 0 -2643.31 -27508.1 0 -1824.03 -27272.5 0 -1004.76 -27005 0 -194.813 -26696.4 0 599.629 -26348.1 0 1374.91 -25961.9 0 2129.44 -25537.9 0 2859.44 -25076.9 0 3561.6 -24580.4 0 4232.36 -24050.1 0 4868.63 -23488.7 0 5467.45 -22898.9 0 6026.29 -22284.2 0 6543.03 -21648.1 0 7016.04 -20994.6 0 7444.28 -20328.1 0 7827.27 -19652.6 0 8165.12 -18972.5 0 8458.53 -18291.8 0 8708.67 -17614.6 0 8917.21 -16944.2 0 9086.18 -16284.1 0 9217.91 -15637 0 9314.93 -15005.4 0 9379.95 -14391.3 0 9415.69 -13796.1 0 9424.91 -13221.2 0 9410.29 -12667.3 0 9374.43 -12135 0 9319.8 -11624.5 0 9248.71 -11135.8 0 9163.31 -10668.7 0 9065.59 -10222.8 0 8957.35 -9797.6 0 8840.23 -9392.54 0 8715.7 -9006.94 0 8585.08 -8640.07 0 8449.55 -8291.16 0 8310.14 -7959.43 0 8167.77 -7644.1 0 8023.25 -7344.4 0 7877.27 -7059.54 0 7730.45 -6788.79 0 7583.32 -6531.41 0 7436.32 -6286.7 0 7289.86 -6054 0 7144.27 -5832.64 0 6999.83 -5622.03 0 6856.78 -5421.57 0 6715.31 -5230.72 0 6575.6 -5048.94 0 6437.77 -4875.75 0 6301.95 -4710.68 0 6168.2 -4553.28 0 6036.6 -4403.14 0 5907.2 -4259.86 0 5780.04 -4123.08 0 5655.12 -3992.46 0 5532.47 -3867.66 0 5412.07 -3748.37 0 5293.94 -3634.32 0 5178.04 -3525.22 0 5064.37 -3420.83 0 4952.89 -3320.89 0 4843.57 -3225.2 0 4736.39 -3133.52 0 4631.3 -3045.67 0 4528.28 -2961.45 0 4427.27 -2880.68 0 4328.24 -2803.21 0 4231.15 -2728.86 0 4135.95 -2657.5 0 4042.6 -2588.98 0 3951.05 -2523.17 0 3861.27 -2459.95 0 3773.21 -2399.19 0 3686.82 -2340.79 0 3602.06 -2284.63 0 3518.89 -2230.63 0 3437.27 -2178.69 0 3357.15 -2128.72 0 3278.49 -2080.63 0 3201.26 -2034.34 0 3125.41 -1989.79 0 3050.9 -1946.89 0 2977.69 -1905.58 0 2905.76 -1865.8 0 2835.05 -1827.48 0 2765.54 -1790.57 0 2697.18 -1755.01 0 2629.96 -1720.76 0 2563.82 -1687.75 0 2498.74 -1655.95 0 2434.68 -1625.31 0 2371.62 -1595.79 0 2309.52 -1567.34 0 2248.35 -1539.94 0 2188.09 -1513.53 0 2128.7 -1488.1 0 2070.16 -1463.6 0 2012.44 -1440 0 1955.51 -1417.28 0 1899.34 -1395.41 0 1843.92 -1374.35 0 1789.21 -1354.09 0 1735.19 -1334.59 0 1681.84 -1315.84 0 1629.13 -1297.82 0 1577.04 -1280.5 0 1525.55 -1263.86 0 1474.64 -1247.89 0 1424.28 -1232.56 0 1374.46 -1217.86 0 1325.14 -1203.77 0 1276.32 -1190.28 0 1227.97 -1177.37 0 1180.08 -1165.03 0 1132.62 -1153.24 0 1085.57 -1141.99 0 1038.92 -1131.28 0 992.652 -1121.09 0 946.741 -1111.4 0 901.172 -1102.21 0 855.929 -1093.51 0 810.993 -1085.29 0 766.349 -1077.55 0 721.979 -1070.27 0 -4829.5 -26271.1 0 -4056.51 -26116.9 0 -3285.72 -25943.9 0 -2528.5 -25735.6 0 -1780.74 -25496.3 0 -1043.47 -25224.5 0 -319.012 -24919.5 0 388.988 -24581.9 0 1078.31 -24212.2 0 1746.27 -23811.6 0 2390.39 -23381.1 0 3008.09 -22922.3 0 3597 -22437.2 0 4154.9 -21927.9 0 4679.83 -21396.9 0 5170.14 -20847.1 0 5624.51 -20281.5 0 6042.02 -19703.1 0 6422.13 -19115.3 0 6764.71 -18521.2 0 7070.05 -17924.1 0 7338.79 -17327 0 7571.93 -16732.9 0 7770.78 -16144.3 0 7936.88 -15563.9 0 8072.01 -14993.6 0 8178.06 -14435.4 0 8257.06 -13890.8 0 8311.05 -13361.2 0 8342.13 -12847.4