<?xml version="1.0"?> 
<VTKFile type="StructuredGrid" version="0.1"> 
<StructuredGrid WholeExtent="0 127 0 127 0 0"> 
<Piece Extent="0 127 0 127 0 0"> 
<PointData>
<DataArray type="Float32" Name="u" format="ascii" NumberOfComponents="3"> 
1.3113e-06 16862.5 0 -3425.1 2052.86 0 -2546.03 1968.23 0 -2346.69 1588.15 0 -2260.84 1352.64 0 -2166.79 1209.95 0 -2105.59 1112.08 0 -2069.09 1015.04 0 -2043.99 937.756 0 -2030.85 864.38 0 -2023.06 800.557 0 -2021.91 740.233 0 -2024.72 684.008 0 -2031.52 630.127 0 -2041.24 578.115 0 -2053.56 527.384 0 -2067.99 477.429 0 -2084.21 427.937 0 -2101.93 378.554 0 -2120.89 329.053 0 -2140.88 279.199 0 -2161.7 228.816 0 -2183.17 177.737 0 -2205.13 125.828 0 -2227.42 72.9654 0 -2249.89 19.046 0 -2272.41 -36.0221 0 -2294.84 -92.3183 0 -2317.05 -149.911 0 -2338.9 -208.86 0 -2360.29 -269.213 0 -2381.07 -331.013 0 -2401.13 -394.292 0 -2420.34 -459.075 0 -2438.58 -525.378 0 -2455.72 -593.212 0 -2471.65 -662.578 0 -2486.23 -733.47 0 -2499.35 -805.874 0 -2510.87 -879.769 0 -2520.68 -955.125 0 -2528.65 -1031.9 0 -2534.66 -1110.06 0 -2538.57 -1189.54 0 -2540.28 -1270.28 0 -2539.65 -1352.21 0 -2536.58 -1435.24 0 -2530.92 -1519.29 0 -2522.59 -1604.25 0 -2511.45 -1690.02 0 -2497.4 -1776.46 0 -2480.33 -1863.47 0 -2460.15 -1950.88 0 -2436.76 -2038.56 0 -2410.06 -2126.33 0 -2379.99 -2214.04 0 -2346.45 -2301.49 0 -2309.4 -2388.5 0 -2268.76 -2474.85 0 -2224.51 -2560.35 0 -2176.6 -2644.76 0 -2125.02 -2727.87 0 -2069.76 -2809.42 0 -2010.83 -2889.17 0 -1948.25 -2966.88 0 -1882.07 -3042.27 0 -1812.34 -3115.1 0 -1739.15 -3185.08 0 -1662.59 -3251.94 0 -1582.79 -3315.43 0 -1499.88 -3375.26 0 -1414.03 -3431.16 0 -1325.42 -3482.88 0 -1234.27 -3530.16 0 -1140.8 -3572.74 0 -1045.27 -3610.38 0 -947.954 -3642.87 0 -849.151 -3669.99 0 -749.182 -3691.55 0 -648.386 -3707.37 0 -547.119 -3717.31 0 -445.757 -3721.24 0 -344.686 -3719.07 0 -244.307 -3710.72 0 -145.027 -3696.15 0 -47.2615 -3675.36 0 48.5733 -3648.38 0 142.062 -3615.25 0 232.793 -3576.09 0 320.364 -3531 0 404.386 -3480.16 0 484.485 -3423.75 0 560.305 -3362 0 631.518 -3295.14 0 697.817 -3223.47 0 758.929 -3147.27 0 814.611 -3066.86 0 864.654 -2982.57 0 908.884 -2894.74 0 947.165 -2803.72 0 979.399 -2709.87 0 1005.52 -2613.54 0 1025.51 -2515.08 0 1039.38 -2414.82 0 1047.17 -2313.1 0 1048.96 -2210.22 0 1044.87 -2106.48 0 1035.03 -2002.16 0 1019.62 -1897.51 0 998.806 -1792.76 0 972.817 -1688.1 0 941.879 -1583.72 0 906.237 -1479.76 0 866.15 -1376.35 0 821.891 -1273.59 0 773.738 -1171.54 0 721.978 -1070.27 0 666.906 -969.775 0 608.817 -870.075 0 548.01 -771.147 0 484.788 -672.953 0 419.453 -575.441 0 352.307 -478.539 0 283.654 -382.167 0 213.794 -286.232 0 143.031 -190.632 0 71.6662 -95.2585 0 -2.14577e-06 3.00407e-05 0 2.62439e-07 3485.18 0 -821.726 3456.81 0 -1821.3 2950.74 0 -2117.32 2249.74 0 -2127.88 1789.35 0 -2072.29 1527.9 0 -2029.76 1339.55 0 -1997.57 1197.66 0 -1976.73 1083.75 0 -1962.74 987.742 0 -1955.14 905.648 0 -1952.5 832.051 0 -1954.08 765.565 0 -1959.16 703.706 0 -1967.14 645.621 0 -1977.6 590.142 0 -1990.12 536.639 0 -2004.41 484.495 0 -2020.19 433.265 0 -2037.23 382.573 0 -2055.32 332.107 0 -2074.28 281.614 0 -2093.93 230.875 0 -2114.12 179.707 0 -2134.7 127.951 0 -2155.54 75.471 0 -2176.51 22.1503 0 -2197.48 -32.1126 0 -2218.33 -87.4051 0 -2238.94 -143.803 0 -2259.2 -201.369 0 -2278.98 -260.159 0 -2298.18 -320.216 0 -2316.69 -381.578 0 -2334.38 -444.272 0 -2351.14 -508.318 0 -2366.87 -573.728 0 -2381.45 -640.507 0 -2394.77 -708.651 0 -2406.71 -778.15 0 -2417.16 -848.986 0 -2426.01 -921.132 0 -2433.15 -994.556 0 -2438.46 -1069.22 0 -2441.83 -1145.06 0 -2443.15 -1222.04 0 -2442.32 -1300.08 0 -2439.22 -1379.11 0 -2433.74 -1459.04 0 -2425.79 -1539.8 0 -2415.26 -1621.26 0 -2402.06 -1703.34 0 -2386.09 -1785.9 0 -2367.26 -1868.82 0 -2345.49 -1951.97 0 -2320.7 -2035.2 0 -2292.83 -2118.35 0 -2261.79 -2201.26 0 -2227.55 -2283.76 0 -2190.05 -2365.67 0 -2149.26 -2446.79 0 -2105.14 -2526.94 0 -2057.69 -2605.89 0 -2006.9 -2683.45 0 -1952.77 -2759.39 0 -1895.34 -2833.48 0 -1834.64 -2905.5 0 -1770.73 -2975.22 0 -1703.68 -3042.38 0 -1633.58 -3106.76 0 -1560.52 -3168.12 0 -1484.65 -3226.2 0 -1406.1 -3280.79 0 -1325.04 -3331.64 0 -1241.65 -3378.52 0 -1156.13 -3421.21 0 -1068.72 -3459.5 0 -979.635 -3493.18 0 -889.155 -3522.08 0 -797.554 -3546.01 0 -705.128 -3564.81 0 -612.19 -3578.35 0 -519.066 -3586.51 0 -426.096 -3589.19 0 -333.628 -3586.32 0 -242.022 -3577.86 0 -151.643 -3563.77 0 -62.8566 -3544.08 0 23.9678 -3518.82 0 108.465 -3488.04 0 190.274 -3451.84 0 269.044 -3410.34 0 344.436 -3363.69 0 416.124 -3312.05 0 483.801 -3255.64 0 547.181 -3194.66 0 606 -3129.35 0 660.021 -3059.98 0 709.033 -2986.82 0 752.854 -2910.14 0 791.332 -2830.25 0 824.347 -2747.44 0 851.81 -2662.02 0 873.664 -2574.27 0 889.883 -2484.5 0 900.47 -2392.99 0 905.46 -2300.02 0 904.914 -2205.85 0 898.921 -2110.73 0 887.594 -2014.88 0 871.071 -1918.53 0 849.507 -1821.87 0 823.081 -1725.05 0 791.984 -1628.22 0 756.426 -1531.51 0 716.627 -1435.02 0 672.82 -1338.83 0 625.247 -1242.99 0 574.158 -1147.52 0 519.81 -1052.45 0 462.465 -957.771 0 402.39 -863.447 0 339.857 -769.437 0 275.138 -675.683 0 208.513 -582.111 0 140.259 -488.635 0 70.6601 -395.158 0 -1.99937e-07 -301.577 0 -3.331e-07 1788.19 0 -259.264 2229.18 0 -615.481 2551.01 0 -1166.98 2493.77 0 -1549.16 2208.97 0 -1745.43 1885.56 0 -1820.81 1626.88 0 -1848.46 1425.1 0 -1856.52 1267.4 0 -1859.82 1140.31 0 -1862.09 1033.82 0 -1865.52 942.689 0 -1870.61 862.145 0 -1877.6 789.78 0 -1886.47 723.3 0 -1897.09 661.368 0 -1909.3 602.798 0 -1922.93 546.772 0 -1937.8 492.611 0 -1953.76 439.788 0 -1970.65 387.874 0 -1988.33 336.518 0 -2006.65 285.429 0 -2025.49 234.362 0 -2044.73 183.113 0 -2064.24 131.505 0 -2083.92 79.3895 0 -2103.65 26.6374 0 -2123.31 -26.8619 0 -2142.82 -81.2035 0 -2162.05 -136.469 0 -2180.91 -192.727 0 -2199.29 -250.038 0 -2217.1 -308.449 0 -2234.23 -368 0 -2250.57 -428.723 0 -2266.03 -490.64 0 -2280.5 -553.765 0 -2293.88 -618.108 0 -2306.07 -683.666 0 -2316.97 -750.434 0 -2326.47 -818.396 0 -2334.47 -887.531 0 -2340.88 -957.808 0 -2345.58 -1029.19 0 -2348.48 -1101.64 0 -2349.48 -1175.09 0 -2348.48 -1249.5 0 -2345.39 -1324.8 0 -2340.1 -1400.9 0 -2332.54 -1477.73 0 -2322.6 -1555.2 0 -2310.2 -1633.2 0 -2295.26 -1711.64 0 -2277.69 -1790.39 0 -2257.44 -1869.33 0 -2234.42 -1948.34 0 -2208.58 -2027.27 0 -2179.86 -2105.98 0 -2148.21 -2184.31 0 -2113.59 -2262.1 0 -2075.97 -2339.18 0 -2035.33 -2415.37 0 -1991.65 -2490.49 0 -1944.94 -2564.34 0 -1895.2 -2636.74 0 -1842.46 -2707.49 0 -1786.76 -2776.38 0 -1728.13 -2843.19 0 -1666.66 -2907.73 0 -1602.42 -2969.77 0 -1535.5 -3029.11 0 -1466.02 -3085.53 0 -1394.09 -3138.83 0 -1319.88 -3188.78 0 -1243.54 -3235.2 0 -1165.24 -3277.88 0 -1085.19 -3316.63 0 -1003.59 -3351.28 0 -920.683 -3381.64 0 -836.703 -3407.58 0 -751.912 -3428.93 0 -666.584 -3445.57 0 -581.004 -3457.4 0 -495.471 -3464.32 0 -410.291 -3466.25 0 -325.78 -3463.14 0 -242.259 -3454.97 0 -160.053 -3441.73 0 -79.4885 -3423.43 0 -0.891876 -3400.12 0 75.4147 -3371.86 0 149.114 -3338.73 0 219.899 -3300.86 0 287.472 -3258.37 0 351.548 -3211.41 0 411.861 -3160.17 0 468.159 -3104.84 0 520.213 -3045.62 0 567.816 -2982.74 0 610.78 -2916.43 0 648.948 -2846.94 0 682.184 -2774.52 0 710.38 -2699.42 0 733.453 -2621.9 0 751.349 -2542.2 0 764.039 -2460.59 0 771.52 -2377.29 0 773.813 -2292.55 0 770.965 -2206.58 0 763.045 -2119.59 0 750.142 -2031.77 0 732.367 -1943.3 0 709.848 -1854.33 0 682.732 -1765 0 651.178 -1675.44 0 615.362 -1585.73 0 575.471 -1495.96 0 531.702 -1406.19 0 484.263 -1316.44 0 433.371 -1226.75 0 379.249 -1137.1 0 322.128 -1047.48 0 262.244 -957.843 0 199.839 -868.149 0 135.161 -778.325 0 68.4626 -688.29 0 1.62563e-07 -597.95 0 2.8721e-07 1818.6 0 -118.572 1885.19 0 -340.2 1935.73 0 -568.164 2072.78 0 -888.327 2097.28 0 -1188.15 1998.03 0 -1413.58 1818.81 0 -1555.15 1629 0 -1640.38 1454.71 0 -1690.79 1304.42 0 -1722.98 1176.61 0 -1745.37 1066.8 0 -1762.94 971.338 0 -1778.19 886.67 0 -1792.55 810.444 0 -1806.78 740.626 0 -1821.28 675.8 0 -1836.28 614.799 0 -1851.86 556.746 0 -1868.03 500.931 0 -1884.78 446.788 0 -1902.05 393.859 0 -1919.77 341.765 0 -1937.87 290.192 0 -1956.27 238.879 0 -1974.89 187.603 0 -1993.64 136.176 0 -2012.43 84.4372 0 -2031.17 32.2496 0 -2049.77 -20.5052 0 -2068.16 -73.9289 0 -2086.23 -128.108 0 -2103.9 -183.117 0 -2121.07 -239.019 0 -2137.67 -295.866 0 -2153.59 -353.7 0 -2168.76 -412.556 0 -2183.06 -472.459 0 -2196.43 -533.428 0 -2208.75 -595.472 0 -2219.95 -658.595 0 -2229.93 -722.793 0 -2238.59 -788.053 0 -2245.85 -854.359 0 -2251.62 -921.684 0 -2255.8 -989.997 0 -2258.3 -1059.26 0 -2259.03 -1129.42 0 -2257.92 -1200.44 0 -2254.86 -1272.24 0 -2249.78 -1344.76 0 -2242.59 -1417.94 0 -2233.22 -1491.68 0 -2221.58 -1565.89 0 -2207.61 -1640.49 0 -2191.23 -1715.37 0 -2172.38 -1790.41 0 -2151 -1865.5 0 -2127.04 -1940.52 0 -2100.45 -2015.32 0 -2071.18 -2089.79 0 -2039.2 -2163.76 0 -2004.49 -2237.08 0 -1967.03 -2309.61 0 -1926.81 -2381.17 0 -1883.82 -2451.6 0 -1838.08 -2520.71 0 -1789.62 -2588.35 0 -1738.46 -2654.31 0 -1684.65 -2718.43 0 -1628.26 -2780.5 0 -1569.34 -2840.35 0 -1507.99 -2897.78 0 -1444.3 -2952.6 0 -1378.4 -3004.63 0 -1310.4 -3053.68 0 -1240.45 -3099.58 0 -1168.7 -3142.14 0 -1095.34 -3181.2 0 -1020.55 -3216.6 0 -944.521 -3248.17 0 -867.477 -3275.79 0 -789.645 -3299.32 0 -711.263 -3318.63 0 -632.584 -3333.64 0 -553.869 -3344.24 0 -475.389 -3350.37 0 -397.421 -3351.98 0 -320.25 -3349.02 0 -244.163 -3341.48 0 -169.452 -3329.37 0 -96.4057 -3312.7 0 -25.3146 -3291.53 0 43.5365 -3265.91 0 109.868 -3235.92 0 173.408 -3201.68 0 233.896 -3163.3 0 291.081 -3120.92 0 344.729 -3074.69 0 394.618 -3024.79 0 440.548 -2971.39 0 482.332 -2914.69 0 519.809 -2854.89 0 552.833 -2792.2 0 581.284 -2726.84 0 605.062 -2659.01 0 624.09 -2588.94 0 638.314 -2516.85 0 647.701 -2442.92 0 652.241 -2367.39 0 651.945 -2290.43 0 646.843 -2212.23 0 636.987 -2132.96 0 622.445 -2052.78 0 603.305 -1971.84 0 579.669 -1890.27 0 551.655 -1808.17 0 519.394 -1725.63 0 483.032 -1642.74 0 442.723 -1559.55 0 398.635 -1476.1 0 350.943 -1392.41 0 299.832 -1308.47 0 245.494 -1224.29 0 188.132 -1139.82 0 127.951 -1055.02 0 65.1669 -969.817 0 -1.23299e-07 -884.14 0 -2.35908e-07 1354.31 0 -94.1674 1488.4 0 -193.562 1646.8 0 -363.543 1710.13 0 -541.066 1779.66 0 -754.823 1805.75 0 -974.727 1774.02 0 -1172.34 1682.64 0 -1326.65 1560.52 0 -1439.73 1429.13 0 -1519.51 1302.42 0 -1576.49 1186.14 0 -1618.38 1081.31 0 -1650.82 987.233 0 -1677.33 902.258 0 -1700.19 824.866 0 -1720.84 753.584 0 -1740.19 687.227 0 -1758.81 624.784 0 -1777.07 565.442 0 -1795.18 508.527 0 -1813.26 453.486 0 -1831.4 399.863 0 -1849.61 347.277 0 -1867.88 295.409 0 -1886.19 243.99 0 -1904.51 192.792 0 -1922.79 141.619 0 -1940.96 90.3059 0 -1958.97 38.7088 0 -1976.76 -13.2952 0 -1994.24 -65.8117 0 -2011.36 -118.931 0 -2028.04 -172.732 0 -2044.19 -227.279 0 -2059.76 -282.628 0 -2074.65 -338.825 0 -2088.79 -395.905 0 -2102.1 -453.898 0 -2114.5 -512.824 0 -2125.9 -572.695 0 -2136.23 -633.519 0 -2145.41 -695.293 0 -2153.34 -758.01 0 -2159.96 -821.654 0 -2165.18 -886.206 0 -2168.91 -951.637 0 -2171.08 -1017.91 0 -2171.6 -1084.99 0 -2170.4 -1152.83 0 -2167.41 -1221.37 0 -2162.54 -1290.56 0 -2155.73 -1360.32 0 -2146.9 -1430.58 0 -2135.98 -1501.27 0 -2122.92 -1572.29 0 -2107.64 -1643.56 0 -2090.1 -1714.97 0 -2070.25 -1786.42 0 -2048.02 -1857.8 0 -2023.39 -1928.99 0 -1996.31 -1999.86 0 -1966.76 -2070.28 0 -1934.72 -2140.13 0 -1900.16 -2209.25 0 -1863.09 -2277.51 0 -1823.51 -2344.74 0 -1781.42 -2410.81 0 -1736.85 -2475.54 0 -1689.83 -2538.78 0 -1640.4 -2600.37 0 -1588.61 -2660.13 0 -1534.53 -2717.9 0 -1478.24 -2773.52 0 -1419.81 -2826.8 0 -1359.36 -2877.6 0 -1297 -2925.74 0 -1232.85 -2971.07 0 -1167.06 -3013.43 0 -1099.77 -3052.66 0 -1031.15 -3088.62 0 -961.381 -3121.18 0 -890.648 -3150.2 0 -819.153 -3175.57 0 -747.106 -3197.18 0 -674.731 -3214.94 0 -602.257 -3228.75 0 -529.924 -3238.55 0 -457.977 -3244.29 0 -386.668 -3245.92 0 -316.252 -3243.42 0 -246.988 -3236.8 0 -179.136 -3226.04 0 -112.955 -3211.19 0 -48.7021 -3192.29 0 13.3687 -3169.4 0 73.0099 -3142.6 0 129.981 -3111.97 0 184.05 -3077.64 0 234.997 -3039.72 0 282.613 -2998.35 0 326.702 -2953.67 0 367.085 -2905.85 0 403.596 -2855.06 0 436.088 -2801.46 0 464.431 -2745.23 0 488.514 -2686.56 0 508.243 -2625.64 0 523.545 -2562.64 0 534.364 -2497.74 0 540.664 -2431.12 0 542.427 -2362.95 0 539.653 -2293.4 0 532.36 -2222.61 0 520.581 -2150.73 0 504.366 -2077.89 0 483.782 -2004.2 0 458.906 -1929.77 0 429.831 -1854.68 0 396.663 -1779 0 359.518 -1702.8 0 318.522 -1626.1 0 273.814 -1548.93 0 225.539 -1471.3 0 173.853 -1393.19 0 118.919 -1314.56 0 60.9078 -1235.39 0 1.04689e-07 -1155.6 0 2.79419e-07 1259.7 0 -63.5612 1321.74 0 -151.89 1363.7 0 -241.124 1460.46 0 -370.881 1520.96 0 -514.501 1568.96 0 -675.46 1589.63 0 -842.801 1579.96 0 -1005.07 1533.08 0 -1147.82 1457.96 0 -1265.9 1365.72 0 -1359.27 1267.06 0 -1432.07 1169.08 0 -1488.95 1075.51 0 -1534.27 987.949 0 -1571.39 906.553 0 -1602.77 830.925 0 -1630.18 760.353 0 -1654.83 694.101 0 -1677.59 631.448 0 -1699.03 571.756 0 -1719.55 514.461 0 -1739.43 459.079 0 -1758.84 405.196 0 -1777.91 352.457 0 -1796.7 300.557 0 -1815.25 249.236 0 -1833.57 198.272 0 -1851.65 147.472 0 -1869.47 96.6684 0 -1886.99 45.7194 0 -1904.18 -5.49952 0 -1920.98 -57.0953 0 -1937.34 -109.16 0 -1953.22 -161.774 0 -1968.54 -215.003 0 -1983.24 -268.905 0 -1997.26 -323.528 0 -2010.54 -378.91 0 -2023 -435.081 0 -2034.57 -492.064 0 -2045.18 -549.874 0 -2054.76 -608.52 0 -2063.25 -668.004 0 -2070.56 -728.321 0 -2076.62 -789.459 0 -2081.37 -851.401 0 -2084.73 -914.124 0 -2086.62 -977.598 0 -2086.98 -1041.79 0 -2085.74 -1106.65 0 -2082.84 -1172.14 0 -2078.19 -1238.2 0 -2071.75 -1304.77 0 -2063.44 -1371.79 0 -2053.21 -1439.18 0 -2041 -1506.87 0 -2026.75 -1574.78 0 -2010.43 -1642.81 0 -1991.97 -1710.87 0 -1971.35 -1778.86 0 -1948.52 -1846.68 0 -1923.46 -1914.21 0 -1896.13 -1981.34 0 -1866.53 -2047.95 0 -1834.64 -2113.91 0 -1800.45 -2179.09 0 -1763.96 -2243.36 0 -1725.2 -2306.58 0 -1684.18 -2368.6 0 -1640.92 -2429.3 0 -1595.47 -2488.51 0 -1547.87 -2546.1 0 -1498.18 -2601.91 0 -1446.47 -2655.79 0 -1392.83 -2707.6 0 -1337.33 -2757.19 0 -1280.08 -2804.42 0 -1221.19 -2849.14 0 -1160.79 -2891.21 0 -1099.02 -2930.49 0 -1036.01 -2966.86 0 -971.917 -3000.2 0 -906.92 -3030.39 0 -841.191 -3057.31 0 -774.916 -3080.88 0 -708.292 -3101 0 -641.522 -3117.6 0 -574.818 -3130.6 0 -508.398 -3139.96 0 -442.484 -3145.64 0 -377.305 -3147.59 0 -313.091 -3145.83 0 -250.074 -3140.33 0 -188.488 -3131.13 0 -128.565 -3118.24 0 -70.5339 -3101.71 0 -14.6213 -3081.61 0 38.9522 -3058 0 89.9724 -3030.96 0 138.233 -3000.6 0 183.537 -2967.03 0 225.698 -2930.36 0 264.541 -2890.73 0 299.903 -2848.27 0 331.637 -2803.13 0 359.607 -2755.45 0 383.695 -2705.39 0 403.795 -2653.1 0 419.819 -2598.74 0 431.696 -2542.47 0 439.367 -2484.44 0 442.792 -2424.79 0 441.945 -2363.67 0 436.817 -2301.2 0 427.411 -2237.53 0 413.747 -2172.76 0 395.856 -2107 0 373.783 -2040.34 0 347.587 -1972.86 0 317.335 -1904.64 0 283.109 -1835.71 0 244.999 -1766.11 0 203.104 -1695.88 0 157.534 -1625.01 0 108.408 -1553.48 0 55.8513 -1481.29 0 -1.14686e-07 -1408.37 0 -3.47291e-07 1059.56 0 -51.4028 1125.05 0 -110.66 1206.77 0 -189.831 1251.29 0 -271.728 1314.01 0 -374.924 1362.9 0 -491.411 1400.96 0 -619.776 1419.3 0 -753.333 1417.9 0 -886.7 1392.75 0 -1011.7 1346.21 0 -1123.23 1282.96 0 -1218.63 1209.29 0 -1298.34 1130.73 0 -1364.2 1051.3 0 -1418.73 973.554 0 -1464.35 898.773 0 -1503.17 827.492 0 -1536.86 759.727 0 -1566.71 695.255 0 -1593.69 633.718 0 -1618.51 574.723 0 -1641.71 517.877 0 -1663.67 462.811 0 -1684.66 409.19 0 -1704.89 356.711 0 -1724.48 305.11 0 -1743.54 254.15 0 -1762.11 203.626 0 -1780.24 153.357 0 -1797.94 103.187 0 -1815.19 52.9757 0 -1831.99 2.60428 0 -1848.31 -48.0323 0 -1864.11 -99.025 0 -1879.36 -150.452 0 -1894.01 -202.382 0 -1908.02 -254.871 0 -1921.33 -307.968 0 -1933.88 -361.712 0 -1945.62 -416.135 0 -1956.5 -471.262 0 -1966.44 -527.108 0 -1975.39 -583.686 0 -1983.29 -640.999 0 -1990.07 -699.045 0 -1995.67 -757.815 0 -2000.02 -817.297 0 -2003.07 -877.469 0 -2004.75 -938.307 0 -2005 -999.779 0 -2003.75 -1061.85 0 -2000.95 -1124.48 0 -1996.54 -1187.61 0 -1990.46 -1251.2 0 -1982.65 -1315.18 0 -1973.07 -1379.5 0 -1961.66 -1444.08 0 -1948.38 -1508.85 0 -1933.18 -1573.73 0 -1916.02 -1638.63 0 -1896.88 -1703.47 0 -1875.71 -1768.15 0 -1852.5 -1832.57 0 -1827.21 -1896.63 0 -1799.84 -1960.22 0 -1770.38 -2023.23 0 -1738.82 -2085.54 0 -1705.16 -2147.04 0 -1669.43 -2207.6 0 -1631.63 -2267.09 0 -1591.8 -2325.4 0 -1549.96 -2382.38 0 -1506.17 -2437.92 0 -1460.47 -2491.87 0 -1412.92 -2544.1 0 -1363.61 -2594.49 0 -1312.6 -2642.9 0 -1259.98 -2689.21 0 -1205.87 -2733.28 0 -1150.36 -2774.99 0 -1093.58 -2814.23 0 -1035.66 -2850.87 0 -976.727 -2884.81 0 -916.94 -2915.94 0 -856.452 -2944.17 0 -795.429 -2969.4 0 -734.044 -2991.55 0 -672.479 -3010.56 0 -610.92 -3026.35 0 -549.56 -3038.87 0 -488.6 -3048.1 0 -428.241 -3053.98 0 -368.69 -3056.52 0 -310.155 -3055.69 0 -252.845 -3051.51 0 -196.971 -3044 0 -142.74 -3033.18 0 -90.3582 -3019.1 0 -40.0285 -3001.82 0 8.05145 -2981.4 0 53.6897 -2957.91 0 96.7013 -2931.46 0 136.909 -2902.12 0 174.145 -2870.01 0 208.251 -2835.25 0 239.08 -2797.94 0 266.495 -2758.22 0 290.372 -2716.22 0 310.6 -2672.06 0 327.081 -2625.88 0 339.727 -2577.81 0 348.468 -2527.98 0 353.243 -2476.52 0 354.008 -2423.55 0 350.728 -2369.2 0 343.383 -2313.57 0 331.966 -2256.77 0 316.48 -2198.89 0 296.942 -2140.01 0 273.377 -2080.21 0 245.822 -2019.55 0 214.325 -1958.08 0 178.943 -1895.83 0 139.741 -1832.83 0 96.7927 -1769.07 0 50.1822 -1704.54 0 1.16303e-07 -1639.24 0 2.96828e-07 961.503 0 -41.9578 1008.24 0 -90.7904 1045.94 0 -145.237 1105.53 0 -214.673 1148.11 0 -289.449 1193.67 0 -376.046 1231.45 0 -472.398 1261.76 0 -577.707 1278.42 0 -687.72 1280.89 0 -799.122 1267.03 0 -907.173 1237.38 0 -1008.14 1193.79 0 -1099.25 1139.52 0 -1179.45 1078.15 0 -1248.88 1012.86 0 -1308.58 946.15 0 -1359.92 879.708 0 -1404.34 814.578 0 -1443.19 751.296 0 -1477.58 690.072 0 -1508.46 630.894 0 -1536.55 573.632 0 -1562.44 518.089 0 -1586.58 464.039 0 -1609.3 411.251 0 -1630.86 359.499 0 -1651.46 308.575 0 -1671.23 258.282 0 -1690.27 208.445 0 -1708.65 158.906 0 -1726.41 109.523 0 -1743.59 60.1704 0 -1760.19 10.7358 0 -1776.2 -38.8788 0 -1791.61 -88.7597 0 -1806.4 -138.982 0 -1820.55 -189.612 0 -1834.01 -240.704 0 -1846.74 -292.307 0 -1858.71 -344.459 0 -1869.87 -397.194 0 -1880.17 -450.535 0 -1889.55 -504.501 0 -1897.98 -559.104 0 -1905.39 -614.351 0 -1911.73 -670.241 0 -1916.95 -726.769 0 -1920.99 -783.923 0 -1923.79 -841.688 0 -1925.31 -900.042 0 -1925.48 -958.958 0 -1924.26 -1018.4 0 -1921.58 -1078.34 0 -1917.41 -1138.73 0 -1911.68 -1199.52 0 -1904.36 -1260.66 0 -1895.39 -1322.1 0 -1884.74 -1383.77 0 -1872.35 -1445.61 0 -1858.2 -1507.54 0 -1842.25 -1569.5 0 -1824.47 -1631.39 0 -1804.83 -1693.14 0 -1783.31 -1754.66 0 -1759.89 -1815.86 0 -1734.57 -1876.63 0 -1707.33 -1936.89 0 -1678.17 -1996.52 0 -1647.09 -2055.43 0 -1614.11 -2113.49 0 -1579.25 -2170.61 0 -1542.53 -2226.67 0 -1503.98 -2281.56 0 -1463.64 -2335.15 0 -1421.55 -2387.33 0 -1377.79 -2437.99 0 -1332.4 -2487 0 -1285.45 -2534.26 0 -1237.04 -2579.64 0 -1187.25 -2623.04 0 -1136.18 -2664.34 0 -1083.93 -2703.43 0 -1030.61 -2740.22 0 -976.361 -2774.61 0 -921.3 -2806.49 0 -865.572 -2835.79 0 -809.322 -2862.42 0 -752.704 -2886.3 0 -695.878 -2907.38 0 -639.012 -2925.59 0 -582.278 -2940.88 0 -525.852 -2953.21 0 -469.917 -2962.55 0 -414.655 -2968.89 0 -360.255 -2972.2 0 -306.905 -2972.49 0 -254.794 -2969.77 0 -204.112 -2964.06 0 -155.046 -2955.4 0 -107.781 -2943.82 0 -62.5004 -2929.37 0 -19.382 -2912.12 0 21.4011 -2892.13 0 59.6817 -2869.5 0 95.2994 -2844.29 0 128.102 -2816.6 0 157.944 -2786.54 0 184.69 -2754.21 0 208.215 -2719.71 0 228.403 -2683.16 0 245.148 -2644.67 0 258.355 -2604.35 0 267.94 -2562.32 0 273.83 -2518.69 0 275.963 -2473.55 0 274.287 -2427.03 0 268.762 -2379.22 0 259.357 -2330.2 0 246.054 -2280.07 0 228.842 -2228.9 0 207.721 -2176.76 0 182.7 -2123.69 0 153.796 -2069.76 0 121.036 -2014.99 0 84.4537 -1959.39 0 44.0919 -1902.98 0 -1.00239e-07 -1845.76 0 -2.4813e-07 848.251 0 -34.2605 889.53 0 -74.7183 937.224 0 -121.247 972.273 0 -171.693 1016.83 0 -232.338 1054.17 0 -299.257 1090.16 0 -374.128 1120.08 0 -455.92 1144.19 0 -544.329 1158.83 0 -636.904 1163.04 0 -731.441 1155.44 0 -824.99 1135.99 0 -914.961 1105.38 0 -999.107 1065.24 0 -1076.04 1017.68 0 -1145.17 964.895 0 -1206.59 908.886 0 -1260.88 851.249 0 -1308.83 793.167 0 -1351.33 735.434 0 -1389.25 678.536 0 -1423.35 622.728 0 -1454.31 568.105 0 -1482.67 514.653 0 -1508.9 462.294 0 -1533.34 410.911 0 -1556.29 360.368 0 -1577.98 310.521 0 -1598.58 261.229 0 -1618.23 212.355 0 -1637.01 163.77 0 -1655 115.356 0 -1672.26 67.006 0 -1688.81 18.6207 0 -1704.67 -29.8875 0 -1719.84 -78.597 0 -1734.32 -127.577 0 -1748.1 -176.888 0 -1761.15 -226.583 0 -1773.44 -276.708 0 -1784.95 -327.299 0 -1795.64 -378.389 0 -1805.48 -430.002 0 -1814.42 -482.156 0 -1822.41 -534.865 0 -1829.43 -588.137 0 -1835.42 -641.972 0 -1840.33 -696.368 0 -1844.12 -751.315 0 -1846.74 -806.801 0 -1848.14 -862.808 0 -1848.28 -919.311 0 -1847.1 -976.283 0 -1844.57 -1033.69 0 -1840.65 -1091.5 0 -1835.27 -1149.66 0 -1828.41 -1208.14 0 -1820.03 -1266.88 0 -1810.08 -1325.82 0 -1798.53 -1384.92 0 -1785.36 -1444.09 0 -1770.52 -1503.29 0 -1754 -1562.43 0 -1735.76 -1621.44 0 -1715.8 -1680.24 0 -1694.1 -1738.76 0 -1670.64 -1796.9 0 -1645.43 -1854.58 0 -1618.45 -1911.7 0 -1589.73 -1968.18 0 -1559.26 -2023.91 0 -1527.07 -2078.79 0 -1493.17 -2132.74 0 -1457.6 -2185.63 0 -1420.4 -2237.38 0 -1381.6 -2287.88 0 -1341.25 -2337.03 0 -1299.42 -2384.71 0 -1256.17 -2430.83 0 -1211.56 -2475.29 0 -1165.69 -2517.98 0 -1118.63 -2558.81 0 -1070.48 -2597.69 0 -1021.34 -2634.52 0 -971.325 -2669.2 0 -920.551 -2701.67 0 -869.139 -2731.84 0 -817.22 -2759.63 0 -764.932 -2784.98 0 -712.417 -2807.83 0 -659.823 -2828.12 0 -607.305 -2845.81 0 -555.02 -2860.86 0 -503.13 -2873.23 0 -451.801 -2882.92 0 -401.201 -2889.89 0 -351.5 -2894.15 0 -302.868 -2895.7 0 -255.478 -2894.55 0 -209.5 -2890.73 0 -165.105 -2884.28 0 -122.46 -2875.22 0 -81.7309 -2863.61 0 -43.0783 -2849.5 0 -6.65988 -2832.96 0 27.3724 -2814.05 0 58.8721 -2792.86 0 87.6992 -2769.47 0 113.721 -2743.97 0 136.811 -2716.44 0 156.851 -2686.98 0 173.734 -2655.68 0 187.356 -2622.65 0 197.626 -2587.98 0 204.46 -2551.77 0 207.784 -2514.11 0 207.532 -2475.1 0 203.648 -2434.82 0 196.083 -2393.35 0 184.798 -2350.77 0 169.761 -2307.15 0 150.951 -2262.54 0 128.35 -2217.02 0 101.952 -2170.6 0 71.7555 -2123.33 0 37.7672 -2075.23 0 1.2598e-07 -2026.31 0 1.886e-07 767.268 0 -29.7941 801.555 0 -62.5485 833.122 0 -100.362 871.771 0 -143.987 903.637 0 -191.164 938.519 0 -245.054 969.821 0 -304.536 999.09 0 -370.082 1023.51 0 -440.864 1043.01 0 -516.589 1055.58 0 -595.84 1060.32 0 -677.162 1056.25 0 -758.643 1043.11 0 -838.478 1021.1 0 -914.973 990.997 0 -986.854 954.008 0 -1053.3 911.538 0 -1113.97 865.023 0 -1168.9 815.763 0 -1218.43 764.845 0 -1263.05 713.108 0 -1303.3 661.159 0 -1339.77 609.41 0 -1372.97 558.112 0 -1403.38 507.399 0 -1431.42 457.32 0 -1457.43 407.866 0 -1481.71 358.988 0 -1504.49 310.613 0 -1525.96 262.658 0 -1546.27 215.031 0 -1565.54 167.639 0 -1583.87 120.393 0 -1601.32 73.2071 0 -1617.94 26.0009 0 -1633.78 -21.2991 0 -1648.83 -68.7605 0 -1663.12 -116.444 0 -1676.65 -164.403 0 -1689.41 -212.685 0 -1701.38 -261.332 0 -1712.54 -310.378 0 -1722.87 -359.853 0 -1732.35 -409.781 0 -1740.93 -460.18 0 -1748.6 -511.062 0 -1755.3 -562.435 0 -1761.01 -614.303 0 -1765.68 -666.663 0 -1769.28 -719.509 0 -1771.77 -772.831 0 -1773.1 -826.611 0 -1773.24 -880.831 0 -1772.15 -935.466 0 -1769.78 -990.488 0 -1766.11 -1045.86 0 -1761.08 -1101.56 0 -1754.67 -1157.53 0 -1746.84 -1213.73 0 -1737.56 -1270.11 0 -1726.79 -1326.63 0 -1714.52 -1383.22 0 -1700.72 -1439.83 0 -1685.35 -1496.39 0 -1668.41 -1552.83 0 -1649.88 -1609.09 0 -1629.75 -1665.09 0 -1608 -1720.76 0 -1584.64 -1776.02 0 -1559.66 -1830.79 0 -1533.08 -1884.98 0 -1504.89 -1938.51 0 -1475.13 -1991.29 0 -1443.8 -2043.24 0 -1410.94 -2094.25 0 -1376.57 -2144.25 0 -1340.75 -2193.14 0 -1303.51 -2240.83 0 -1264.9 -2287.22 0 -1224.98 -2332.22 0 -1183.82 -2375.76 0 -1141.49 -2417.72 0 -1098.06 -2458.04 0 -1053.62 -2496.62 0 -1008.27 -2533.38 0 -962.091 -2568.25 0 -915.197 -2601.15 0 -867.696 -2632 0 -819.704 -2660.75 0 -771.343 -2687.32 0 -722.74 -2711.68 0 -674.028 -2733.76 0 -625.344 -2753.52 0 -576.83 -2770.92 0 -528.63 -2785.95 0 -480.894 -2798.56 0 -433.772 -2808.76 0 -387.417 -2816.53 0 -341.985 -2821.87 0 -297.63 -2824.79 0 -254.51 -2825.3 0 -212.778 -2823.43 0 -172.591 -2819.22 0 -134.1 -2812.69 0 -97.455 -2803.9 0 -62.8042 -2792.9 0 -30.2906 -2779.73 0 -0.0538172 -2764.48 0 27.7716 -2747.21 0 53.0563 -2727.99 0 75.6765 -2706.89 0 95.5144 -2684.01 0 112.459 -2659.41 0 126.405 -2633.2 0 137.256 -2605.44 0 144.92 -2576.23 0 149.313 -2545.65 0 150.361 -2513.78 0 147.992 -2480.69 0 142.145 -2446.47 0 132.764 -2411.18 0 119.801 -2374.89 0 103.214 -2337.64 0 82.9673 -2299.5 0 59.0309 -2260.5 0 31.3812 -2220.67 0 -1.02954e-07 -2180.04 0 -9.67611e-08 690.656 0 -25.1562 720.169 0 -54.172 751.723 0 -85.8216 779.783 0 -121.085 811.436 0 -161.301 839.677 0 -205.109 868.183 0 -253.722 894.22 0 -306.843 918.225 0 -364.714 938.429 0 -426.754 954.473 0 -492.63 965.17 0 -561.449 969.825 0 -632.233 967.722 0 -703.713 958.545 0 -774.617 942.28 0 -843.697 919.28 0 -909.898 890.2 0 -972.418 855.91 0 -1030.75 817.381 0 -1084.68 775.585 0 -1134.21 731.411 0 -1179.54 685.617 0 -1220.97 638.817 0 -1258.86 591.478 0 -1293.58 543.938 0 -1325.5 496.425 0 -1354.96 449.083 0 -1382.27 401.99 0 -1407.69 355.174 0 -1431.45 308.63 0 -1453.74 262.328 0 -1474.71 216.223 0 -1494.5 170.261 0 -1513.22 124.384 0 -1530.93 78.5322 0 -1547.71 32.6452 0 -1563.6 -13.3336 0 -1578.64 -59.458 0 -1592.84 -105.777 0 -1606.22 -152.337 0 -1618.79 -199.178 0 -1630.53 -246.335 0 -1641.44 -293.84 0 -1651.51 -341.718 0 -1660.71 -389.991 0 -1669.03 -438.675 0 -1676.44 -487.784 0 -1682.91 -537.324 0 -1688.41 -587.299 0 -1692.91 -637.707 0 -1696.38 -688.545 0 -1698.79 -739.801 0 -1700.09 -791.465 0 -1700.27 -843.517 0 -1699.28 -895.937 0 -1697.09 -948.7 0 -1693.66 -1001.78 0 -1688.98 -1055.14 0 -1683 -1108.74 0 -1675.7 -1162.56 0 -1667.04 -1216.53 0 -1657.01 -1270.62 0 -1645.58 -1324.78 0 -1632.73 -1378.96 0 -1618.44 -1433.09 0 -1602.69 -1487.12 0 -1585.47 -1540.99 0 -1566.77 -1594.64 0 -1546.59 -1647.98 0 -1524.92 -1700.97 0 -1501.76 -1753.52 0 -1477.13 -1805.56 0 -1451.02 -1857.01 0 -1423.46 -1907.8 0 -1394.47 -1957.85 0 -1364.06 -2007.08 0 -1332.28 -2055.41 0 -1299.15 -2102.75 0 -1264.71 -2149.03 0 -1229.02 -2194.17 0 -1192.13 -2238.07 0 -1154.08 -2280.68 0 -1114.96 -2321.9 0 -1074.82 -2361.65 0 -1033.74 -2399.87 0 -991.801 -2436.49 0 -949.094 -2471.42 0 -905.71 -2504.61 0 -861.747 -2535.98 0 -817.309 -2565.49 0 -772.504 -2593.08 0 -727.447 -2618.69 0 -682.255 -2642.29 0 -637.051 -2663.83 0 -591.962 -2683.27 0 -547.118 -2700.59 0 -502.653 -2715.78 0 -458.702 -2728.8 0 -415.403 -2739.66 0 -372.898 -2748.35 0 -331.327 -2754.87 0 -290.832 -2759.24 0 -251.554 -2761.48 0 -213.637 -2761.6 0 -177.221 -2759.65 0 -142.445 -2755.65 0 -109.446 -2749.65 0 -78.3596 -2741.7 0 -49.3176 -2731.85 0 -22.4486 -2720.16 0 2.12286 -2706.69 0 24.2762 -2691.52 0 43.8955 -2674.7 0 60.8696 -2656.31 0 75.0925 -2636.43 0 86.4636 -2615.12 0 94.8876 -2592.47 0 100.275 -2568.54 0 102.54 -2543.42 0 101.607 -2517.16 0 97.4 -2489.84 0 89.8528 -2461.53 0 78.9027 -2432.27 0 64.4923 -2402.13 0 46.5695 -2371.16 0 25.0864 -2339.38 0 8.46394e-08 -2306.84 0 1.72702e-07 626.927 0 -22.2467 652.577 0 -46.4829 677.727 0 -74.0929 704.794 0 -104.462 729.641 0 -137.622 755.921 0 -174.64 780.398 0 -215.011 804.24 0 -259.161 826.048 0 -306.936 845.888 0 -358.457 862.687 0 -413.36 876.007 0 -471.34 885.07 0 -531.79 889.34 0 -594.026 888.296 0 -657.181 881.638 0 -720.35 869.26 0 -782.613 851.294 0 -843.138 828.086 0 -901.223 800.155 0 -956.349 768.138 0 -1008.18 732.719 0 -1056.56 694.579 0 -1101.49 654.346 0 -1143.08 612.567 0 -1181.5 569.697 0 -1217.01 526.1 0 -1249.84 482.05 0 -1280.26 437.748 0 -1308.51 393.332 0 -1334.81 348.891 0 -1359.37 304.473 0 -1382.36 260.098 0 -1403.92 215.763 0 -1424.2 171.452 0 -1443.29 127.138 0 -1461.29 82.7855 0 -1478.27 38.3587 0 -1494.27 -6.18146 0 -1509.35 -50.8734 0 -1523.54 -95.7541 0 -1536.85 -140.859 0 -1549.3 -186.219 0 -1560.9 -231.864 0 -1571.64 -277.819 0 -1581.53 -324.106 0 -1590.54 -370.743 0 -1598.66 -417.745 0 -1605.89 -465.122 0 -1612.19 -512.881 0 -1617.54 -561.024 0 -1621.92 -609.553 0 -1625.31 -658.461 0 -1627.68 -707.741 0 -1629 -757.383 0 -1629.23 -807.369 0 -1628.37 -857.683 0 -1626.37 -908.302 0 -1623.21 -959.201 0 -1618.86 -1010.35 0 -1613.3 -1061.72 0 -1606.5 -1113.28 0 -1598.44 -1164.98 0 -1589.09 -1216.79 0 -1578.44 -1268.65 0 -1566.48 -1320.54 0 -1553.17 -1372.39 0 -1538.52 -1424.15 0 -1522.51 -1475.76 0 -1505.12 -1527.18 0 -1486.37 -1578.34 0 -1466.25 -1629.18 0 -1444.75 -1679.64 0 -1421.89 -1729.64 0 -1397.67 -1779.13 0 -1372.12 -1828.03 0 -1345.24 -1876.28 0 -1317.06 -1923.81 0 -1287.62 -1970.53 0 -1256.93 -2016.39 0 -1225.04 -2061.31 0 -1191.99 -2105.22 0 -1157.83 -2148.05 0 -1122.6 -2189.72 0 -1086.37 -2230.17 0 -1049.2 -2269.33 0 -1011.16 -2307.13 0 -972.309 -2343.51 0 -932.738 -2378.4 0 -892.526 -2411.76 0 -851.761 -2443.51 0 -810.535 -2473.61 0 -768.946 -2502.01 0 -727.096 -2528.66 0 -685.089 -2553.53 0 -643.037 -2576.58 0 -601.051 -2597.76 0 -559.251 -2617.07 0 -517.754 -2634.48 0 -476.685 -2649.97 0 -436.166 -2663.54 0 -396.326 -2675.18 0 -357.293 -2684.88 0 -319.195 -2692.67 0 -282.163 -2698.56 0 -246.326 -2702.55 0 -211.814 -2704.69 0 -178.756 -2704.99 0 -147.28 -2703.5 0 -117.513 -2700.25 0 -89.5771 -2695.3 0 -63.5959 -2688.69 0 -39.6882 -2680.47 0 -17.9701 -2670.71 0 1.44533 -2659.45 0 18.4488 -2646.78 0 32.9348 -2632.75 0 44.8016 -2617.42 0 53.9516 -2600.87 0 60.2914 -2583.16 0 63.7319 -2564.36 0 64.1879 -2544.52 0 61.5786 -2523.73 0 55.8273 -2502.02 0 46.861 -2479.47 0 34.6107 -2456.12 0 19.011 -2432.02 0 -6.38756e-08 -2407.21 0 -3.04779e-07 569.749 0 -19.3627 592.078 0 -41.0633 615.015 0 -64.5053 637.24 0 -90.