<?xml version="1.0"?> 
<VTKFile type="StructuredGrid" version="0.1"> 
<StructuredGrid WholeExtent="0 127 0 127 0 0"> 
<Piece Extent="0 127 0 127 0 0"> 
<PointData>
<DataArray type="Float32" Name="u" format="ascii" NumberOfComponents="3"> 
232746 -100087 0 284459 -122325 0 315451 -135653 0 336389 -144656 0 352031 -151383 0 364613 -156794 0 375253 -161369 0 384556 -165370 0 392880 -168949 0 400452 -172205 0 407425 -175204 0 413912 -177993 0 419993 -180608 0 425732 -183076 0 431178 -185418 0 436372 -187652 0 441346 -189791 0 446126 -191846 0 450735 -193828 0 455191 -195745 0 459511 -197602 0 463709 -199407 0 467796 -201165 0 471783 -202879 0 475679 -204555 0 479492 -206195 0 483230 -207802 0 486899 -209380 0 490506 -210931 0 494054 -212457 0 497550 -213960 0 500997 -215442 0 504399 -216905 0 507761 -218351 0 511085 -219780 0 514374 -221195 0 517633 -222596 0 520863 -223985 0 524066 -225363 0 527246 -226730 0 530404 -228088 0 533543 -229438 0 536665 -230781 0 539771 -232116 0 542864 -233446 0 545944 -234771 0 549015 -236091 0 552076 -237408 0 555131 -238721 0 558180 -240033 0 561225 -241342 0 564267 -242650 0 567308 -243958 0 570348 -245265 0 573390 -246573 0 576434 -247882 0 579482 -249193 0 582536 -250506 0 585595 -251822 0 588662 -253141 0 591738 -254463 0 594823 -255790 0 597920 -257122 0 601029 -258459 0 604152 -259802 0 607290 -261151 0 610444 -262507 0 613615 -263871 0 616805 -265243 0 620014 -266623 0 623245 -268012 0 626499 -269411 0 629776 -270821 0 633079 -272241 0 636409 -273673 0 639767 -275117 0 643155 -276574 0 646574 -278045 0 650027 -279529 0 653514 -281029 0 657038 -282544 0 660599 -284076 0 664201 -285625 0 667846 -287192 0 671534 -288778 0 675269 -290384 0 679052 -292011 0 682886 -293659 0 686773 -295331 0 690717 -297027 0 694719 -298748 0 698782 -300495 0 702911 -302271 0 707107 -304075 0 711375 -305910 0 715717 -307778 0 720139 -309679 0 724643 -311616 0 729236 -313591 0 733921 -315606 0 738703 -317662 0 743589 -319763 0 748584 -321911 0 753695 -324109 0 758930 -326360 0 764296 -328668 0 769801 -331035 0 775456 -333467 0 781272 -335968 0 787259 -338543 0 793432 -341197 0 799806 -343938 0 806397 -346773 0 813226 -349709 0 820314 -352757 0 827689 -355929 0 835382 -359237 0 843429 -362697 0 851874 -366329 0 860770 -370154 0 870182 -374202 0 880192 -378506 0 890917 -383118 0 902550 -388121 0 915480 -393681 0 930649 -400204 0 950537 -408756 0 981950 -422265 0 385019 -91595.2 0 388066 -100775 0 392562 -109914 0 397716 -118245 0 403127 -125632 0 408591 -132149 0 413999 -137922 0 419297 -143078 0 424458 -147723 0 429473 -151944 0 434339 -155811 0 439063 -159380 0 443650 -162696 0 448108 -165794 0 452446 -168706 0 456672 -171454 0 460794 -174060 0 464821 -176540 0 468759 -178909 0 472616 -181179 0 476396 -183360 0 480107 -185461 0 483753 -187491 0 487340 -189455 0 490871 -191361 0 494351 -193213 0 497785 -195015 0 501174 -196773 0 504524 -198490 0 507837 -200169 0 511115 -201813 0 514363 -203426 0 517581 -205008 0 520773 -206564 0 523941 -208094 0 527087 -209601 0 530213 -211087 0 533321 -212553 0 536413 -214000 0 539491 -215430 0 542556 -216844 0 545610 -218244 0 548654 -219631 0 551690 -221005 0 554720 -222367 0 557745 -223719 0 560765 -225062 0 563784 -226396 0 566801 -227722 0 569818 -229041 0 572837 -230353 0 575858 -231660 0 578883 -232961 0 581913 -234258 0 584950 -235551 0 587994 -236841 0 591046 -238129 0 594108 -239414 0 597181 -240697 0 600266 -241980 0 603364 -243262 0 606477 -244544 0 609606 -245826 0 612751 -247110 0 615915 -248395 0 619098 -249681 0 622302 -250970 0 625527 -252262 0 628776 -253558 0 632050 -254857 0 635349 -256160 0 638676 -257468 0 642032 -258781 0 645419 -260099 0 648837 -261424 0 652289 -262755 0 655776 -264093 0 659301 -265439 0 662864 -266792 0 666467 -268154 0 670114 -269524 0 673804 -270904 0 677542 -272294 0 681328 -273694 0 685166 -275104 0 689057 -276526 0 693005 -277960 0 697012 -279406 0 701080 -280866 0 705214 -282338 0 709415 -283824 0 713688 -285325 0 718035 -286841 0 722462 -288373 0 726971 -289920 0 731568 -291484 0 736257 -293066 0 741043 -294665 0 745931 -296282 0 750927 -297918 0 756038 -299573 0 761271 -301247 0 766633 -302941 0 772132 -304655 0 777777 -306389 0 783578 -308143 0 789545 -309916 0 795692 -311708 0 802031 -313519 0 808577 -315345 0 815348 -317186 0 822361 -319038 0 829639 -320897 0 837206 -322757 0 845090 -324609 0 853324 -326442 0 861944 -328240 0 870994 -329981 0 880521 -331632 0 890580 -333147 0 901229 -334459 0 912525 -335474 0 924513 -336052 0 937209 -336004 0 950569 -335091 0 964440 -333094 0 978536 -330080 0 992521 -327271 0 428564 -94497.3 0 430362 -101500 0 432720 -107716 0 435465 -113422 0 438480 -118726 0 441686 -123678 0 445023 -128310 0 448446 -132649 0 451924 -136719 0 455431 -140544 0 458950 -144146 0 462468 -147545 0 465974 -150762 0 469462 -153814 0 472927 -156715 0 476365 -159481 0 479775 -162123 0 483155 -164654 0 486505 -167082 0 489826 -169416 0 493117 -171666 0 496380 -173837 0 499615 -175937 0 502824 -177971 0 506008 -179943 0 509168 -181860 0 512305 -183725 0 515422 -185541 0 518519 -187313 0 521598 -189044 0 524660 -190735 0 527706 -192392 0 530739 -194014 0 533758 -195605 0 536766 -197168 0 539764 -198703 0 542753 -200212 0 545734 -201698 0 548709 -203161 0 551678 -204604 0 554643 -206027 0 557605 -207431 0 560566 -208818 0 563525 -210189 0 566485 -211545 0 569446 -212887 0 572410 -214216 0 575377 -215532 0 578349 -216836 0 581326 -218130 0 584311 -219413 0 587303 -220687 0 590304 -221952 0 593315 -223208 0 596336 -224457 0 599370 -225699 0 602417 -226935 0 605479 -228164 0 608555 -229387 0 611649 -230606 0 614759 -231820 0 617889 -233029 0 621038 -234235 0 624208 -235437 0 627401 -236636 0 630617 -237832 0 633858 -239026 0 637125 -240217 0 640420 -241407 0 643743 -242595 0 647097 -243783 0 650482 -244969 0 653900 -246154 0 657354 -247339 0 660843 -248524 0 664371 -249709 0 667939 -250893 0 671548 -252079 0 675201 -253264 0 678899 -254450 0 682645 -255637 0 686440 -256824 0 690288 -258013 0 694189 -259202 0 698147 -260391 0 702165 -261582 0 706245 -262773 0 710389 -263965 0 714602 -265157 0 718886 -266349 0 723244 -267540 0 727680 -268731 0 732198 -269921 0 736803 -271108 0 741497 -272293 0 746286 -273475 0 751175 -274652 0 756169 -275823 0 761274 -276987 0 766495 -278142 0 771839 -279287 0 777312 -280417 0 782923 -281532 0 788679 -282627 0 794589 -283699 0 800662 -284743 0 806907 -285753 0 813336 -286724 0 819960 -287646 0 826792 -288512 0 833843 -289309 0 841128 -290024 0 848662 -290643 0 856458 -291144 0 864530 -291506 0 872893 -291700 0 881559 -291695 0 890534 -291450 0 899823 -290923 0 909421 -290061 0 919314 -288811 0 929474 -287119 0 939860 -284936 0 950422 -282231 0 961105 -278996 0 971864 -275231 0 982648 -270834 0 993259 -265186 0 455902 -98444.8 0 457859 -102649 0 459898 -106896 0 462062 -111062 0 464357 -115098 0 466772 -118985 0 469291 -122717 0 471898 -126297 0 474579 -129728 0 477318 -133017 0 480104 -136171 0 482927 -139196 0 485779 -142101 0 488652 -144893 0 491541 -147578 0 494440 -150164 0 497347 -152656 0 500257 -155062 0 503169 -157386 0 506080 -159634 0 508989 -161810 0 511895 -163921 0 514797 -165968 0 517695 -167958 0 520589 -169893 0 523477 -171776 0 526361 -173611 0 529240 -175402 0 532115 -177149 0 534986 -178857 0 537854 -180527 0 540718 -182161 0 543580 -183762 0 546441 -185331 0 549300 -186871 0 552159 -188382 0 555018 -189866 0 557878 -191325 0 560739 -192761 0 563604 -194173 0 566471 -195564 0 569342 -196934 0 572218 -198285 0 575100 -199618 0 577988 -200933 0 580883 -202231 0 583786 -203513 0 586699 -204780 0 589621 -206033 0 592553 -207271 0 595498 -208497 0 598454 -209709 0 601424 -210910 0 604409 -212099 0 607408 -213277 0 610424 -214444 0 613457 -215602 0 616508 -216749 0 619579 -217887 0 622669 -219016 0 625781 -220136 0 628915 -221247 0 632073 -222350 0 635255 -223445 0 638463 -224533 0 641698 -225612 0 644962 -226685 0 648254 -227750 0 651578 -228807 0 654934 -229858 0 658323 -230902 0 661747 -231938 0 665208 -232968 0 668707 -233990 0 672246 -235005 0 675826 -236013 0 679449 -237013 0 683116 -238006 0 686831 -238991 0 690594 -239968 0 694408 -240936 0 698274 -241896 0 702196 -242846 0 706175 -243786 0 710214 -244716 0 714315 -245634 0 718481 -246540 0 722715 -247434 0 727019 -248313 0 731397 -249178 0 735852 -250026 0 740387 -250856 0 745005 -251667 0 749712 -252457 0 754509 -253223 0 759402 -253963 0 764395 -254675 0 769492 -255356 0 774698 -256002 0 780018 -256610 0 785456 -257175 0 791019 -257693 0 796713 -258158 0 802541 -258563 0 808512 -258903 0 814629 -259170 0 820901 -259353 0 827331 -259444 0 833927 -259431 0 840693 -259302 0 847634 -259042 0 854753 -258635 0 862054 -258064 0 869538 -257310 0 877203 -256351 0 885046 -255165 0 893061 -253730 0 901236 -252020 0 909559 -250014 0 918012 -247689 0 926574 -245025 0 935222 -242006 0 943929 -238615 0 952666 -234838 0 961394 -230654 0 970069 -226053 0 978646 -221081 0 987198 -216074 0 478101 -98250.4 0 479582 -101904 0 481259 -105400 0 483083 -108782 0 485023 -112065 0 487063 -115255 0 489188 -118354 0 491389 -121361 0 493655 -124279 0 495979 -127109 0 498354 -129852 0 500772 -132512 0 503228 -135090 0 505718 -137591 0 508236 -140016 0 510779 -142370 0 513344 -144654 0 515928 -146873 0 518528 -149029 0 521142 -151126 0 523769 -153165 0 526406 -155151 0 529053 -157084 0 531709 -158969 0 534372 -160807 0 537043 -162601 0 539720 -164352 0 542404 -166063 0 545094 -167735 0 547790 -169371 0 550492 -170972 0 553200 -172540 0 555915 -174076 0 558635 -175582 0 561363 -177059 0 564097 -178508 0 566838 -179930 0 569588 -181327 0 572345 -182700 0 575111 -184049 0 577886 -185376 0 580671 -186682 0 583466 -187966 0 586272 -189231 0 589089 -190476 0 591918 -191703 0 594760 -192912 0 597615 -194104 0 600485 -195279 0 603369 -196437 0 606268 -197580 0 609184 -198707 0 612117 -199820 0 615068 -200918 0 618038 -202001 0 621027 -203071 0 624037 -204127 0 627068 -205170 0 630121 -206200 0 633198 -207216 0 636298 -208220 0 639424 -209211 0 642577 -210190 0 645756 -211155 0 648964 -212109 0 652201 -213050 0 655469 -213978 0 658769 -214893 0 662102 -215796 0 665470 -216686 0 668873 -217562 0 672313 -218426 0 675792 -219275 0 679310 -220111 0 682870 -220932 0 686473 -221738 0 690121 -222529 0 693815 -223304 0 697557 -224063 0 701348 -224804 0 705192 -225527 0 709089 -226231 0 713041 -226916 0 717051 -227579 0 721121 -228220 0 725253 -228838 0 729449 -229430 0 733712 -229997 0 738045 -230534 0 742449 -231042 0 746927 -231518 0 751482 -231958 0 756117 -232362 0 760835 -232725 0 765639 -233045 0 770531 -233319 0 775515 -233543 0 780594 -233712 0 785771 -233822 0 791049 -233868 0 796430 -233845 0 801919 -233746 0 807517 -233566 0 813228 -233297 0 819053 -232931 0 824995 -232460 0 831055 -231874 0 837235 -231165 0 843533 -230320 0 849951 -229330 0 856485 -228182 0 863135 -226863 0 869894 -225362 0 876759 -223665 0 883722 -221758 0 890774 -219629 0 897906 -217265 0 905104 -214655 0 912356 -211787 0 919645 -208651 0 926956 -205240 0 934269 -201545 0 941564 -197564 0 948823 -193297 0 956031 -188750 0 963178 -183934 0 970257 -178829 0 977187 -173251 0 495598 -97752 0 497202 -100596 0 498856 -103430 0 500573 -106227 0 502359 -108975 0 504212 -111669 0 506128 -114306 0 508103 -116884 0 510133 -119403 0 512214 -121863 0 514341 -124263 0 516510 -126606 0 518717 -128892 0 520960 -131121 0 523234 -133296 0 525539 -135418 0 527870 -137488 0 530225 -139507 0 532604 -141478 0 535003 -143402 0 537422 -145280 0 539859 -147114 0 542313 -148906 0 544783 -150657 0 547268 -152369 0 549767 -154042 0 552280 -155679 0 554806 -157280 0 557345 -158847 0 559897 -160382 0 562460 -161885 0 565036 -163357 0 567624 -164800 0 570224 -166214 0 572837 -167601 0 575461 -168960 0 578098 -170295 0 580748 -171604 0 583411 -172889 0 586086 -174151 0 588776 -175389 0 591479 -176606 0 594197 -177801 0 596929 -178975 0 599677 -180129 0 602440 -181263 0 605220 -182377 0 608017 -183472 0 610830 -184548 0 613662 -185606 0 616512 -186646 0 619382 -187668 0 622272 -188673 0 625182 -189660 0 628113 -190631 0 631067 -191584 0 634043 -192520 0 637043 -193440 0 640068 -194342 0 643117 -195228 0 646193 -196098 0 649296 -196950 0 652427 -197786 0 655587 -198604 0 658777 -199405 0 661998 -200189 0 665251 -200955 0 668537 -201704 0 671858 -202434 0 675213 -203145 0 678605 -203837 0 682035 -204509 0 685504 -205161 0 689013 -205792 0 692563 -206402 0 696156 -206989 0 699794 -207554 0 703478 -208094 0 707208 -208609 0 710988 -209098 0 714817 -209560 0 718699 -209993 0 722634 -210396 0 726624 -210768 0 730671 -211107 0 734776 -211411 0 738942 -211678 0 743170 -211906 0 747461 -212093 0 751819 -212236 0 756243 -212333 0 760738 -212381 0 765303 -212376 0 769941 -212317 0 774653 -212197 0 779442 -212015 0 784309 -211766 0 789255 -211445 0 794281 -211048 0 799389 -210569 0 804579 -210003 0 809853 -209344 0 815210 -208587 0 820650 -207723 0 826173 -206747 0 831778 -205652 0 837464 -204430 0 843228 -203072 0 849067 -201572 0 854978 -199921 0 860957 -198111 0 866999 -196133 0 873096 -193980 0 879243 -191645 0 885432 -189119 0 891653 -186395 0 897898 -183468 0 904155 -180332 0 910414 -176983 0 916664 -173416 0 922892 -169630 0 929087 -165623 0 935238 -161395 0 941333 -156946 0 947357 -152271 0 953294 -147368 0 959123 -142252 0 964871 -137040 0 511159 -95924.6 0 512609 -98427.9 0 514145 -100879 0 515754 -103286 0 517427 -105652 0 519157 -107977 0 520942 -110261 0 522777 -112503 0 524659 -114703 0 526584 -116861 0 528551 -118975 0 530557 -121048 0 532598 -123078 0 534674 -125066 0 536782 -127012 0 538919 -128918 0 541085 -130783 0 543277 -132608 0 545495 -134395 0 547736 -136144 0 550000 -137856 0 552285 -139531 0 554591 -141171 0 556917 -142777 0 559262 -144349 0 561625 -145888 0 564005 -147394 0 566403 -148870 0 568818 -150316 0 571250 -151731 0 573697 -153118 0 576161 -154477 0 578641 -155808 0 581137 -157113 0 583648 -158391 0 586176 -159644 0 588719 -160872 0 591279 -162076 0 593855 -163255 0 596447 -164411 0 599056 -165544 0 601682 -166655 0 604325 -167744 0 606986 -168810 0 609665 -169855 0 612362 -170879 0 615078 -171883 0 617813 -172865 0 620568 -173827 0 623343 -174769 0 626138 -175691 0 628955 -176592 0 631794 -177474 0 634655 -178336 0 637539 -179177 0 640447 -179999 0 643379 -180801 0 646336 -181584 0 649319 -182345 0 652328 -183087 0 655364 -183808 0 658428 -184509 0 661521 -185188 0 664644 -185846 0 667797 -186483 0 670981 -187097 0 674198 -187689 0 677447 -188258 0 680731 -188803 0 684049 -189324 0 687404 -189820 0 690795 -190291 0 694224 -190735 0 697692 -191152 0 701201 -191541 0 704750 -191901 0 708342 -192231 0 711977 -192529 0 715656 -192794 0 719381 -193026 0 723153 -193222 0 726972 -193381 0 730841 -193501 0 734759 -193581 0 738729 -193619 0 742752 -193612 0 746828 -193559 0 750958 -193457 0 755144 -193303 0 759387 -193095 0 763687 -192831 0 768046 -192506 0 772464 -192119 0 776942 -191665 0 781480 -191141 0 786078 -190544 0 790738 -189869 0 795459 -189112 0 800240 -188269 0 805082 -187335 0 809984 -186306 0 814944 -185176 0 819962 -183941 0 825035 -182596 0 830162 -181134 0 835340 -179552 0 840566 -177843 0 845837 -176001 0 851148 -174022 0 856495 -171901 0 861873 -169632 0 867277 -167209 0 872701 -164630 0 878137 -161889 0 883580 -158983 0 889022 -155908 0 894454 -152661 0 899869 -149241 0 905259 -145645 0 910616 -141872 0 915929 -137921 0 921190 -133793 0 926390 -129487 0 931520 -125007 0 936571 -120357 0 941539 -115542 0 946422 -110562 0 951188 -105350 0 524564 -93666.5 0 526049 -95795.1 0 527574 -97907 0 529143 -99995.4 0 530757 -102057 0 532416 -104089 0 534117 -106091 0 535860 -108061 0 537642 -109999 0 539463 -111905 0 541320 -113778 0 543211 -115618 0 545136 -117425 0 547093 -119198 0 549080 -120939 0 551096 -122647 0 553140 -124322 0 555211 -125965 0 557307 -127576 0 559427 -129155 0 561572 -130703 0 563739 -132220 0 565928 -133707 0 568139 -135164 0 570371 -136592 0 572623 -137991 0 574896 -139361 0 577187 -140704 0 579498 -142019 0 581828 -143306 0 584176 -144568 0 586543 -145803 0 588928 -147012 0 591332 -148196 0 593753 -149355 0 596193 -150489 0 598651 -151599 0 601127 -152685 0 603622 -153747 0 606135 -154786 0 608667 -155801 0 611218 -156794 0 613788 -157764 0 616378 -158711 0 618987 -159636 0 621616 -160539 0 624265 -161419 0 626936 -162278 0 629627 -163114 0 632339 -163928 0 635074 -164721 0 637831 -165491 0 640610 -166239 0 643413 -166965 0 646240 -167668 0 649091 -168349 0 651967 -169007 0 654868 -169642 0 657795 -170254 0 660749 -170842 0 663730 -171406 0 666739 -171946 0 669776 -172461 0 672843 -172951 0 675939 -173416 0 679066 -173854 0 682224 -174265 0 685414 -174649 0 688636 -175004 0 691892 -175330 0 695182 -175627 0 698507 -175892 0 701867 -176126 0 705264 -176328 0 708698 -176495 0 712170 -176627 0 715680 -176724 0 719230 -176782 0 722820 -176802 0 726450 -176782 0 730122 -176719 0 733837 -176613 0 737594 -176461 0 741394 -176262 0 745239 -176013 0 749128 -175713 0 753063 -175360 0 757042 -174951 0 761068 -174483 0 765139 -173954 0 769256 -173362 0 773420 -172703 0 777630 -171975 0 781885 -171175 0 786186 -170299 0 790532 -169344 0 794922 -168307 0 799355 -167185 0 803830 -165973 0 808346 -164668 0 812901 -163267 0 817493 -161765 0 822120 -160160 0 826779 -158446 0 831468 -156621 0 836183 -154680 0 840922 -152620 0 845680 -150438 0 850453 -148130 0 855237 -145693 0 860027 -143124 0 864818 -140420 0 869605 -137579 0 874382 -134598 0 879144 -131476 0 883884 -128212 0 888596 -124803 0 893275 -121250 0 897913 -117553 0 902503 -113710 0 907041 -109724 0 911518 -105596 0 915930 -101327 0 920271 -96917.8 0 924533 -92370.3 0 928709 -87684.1 0 932788 -82864.8 0 936780 -77958.3 0 536765 -90784.5 0 538191 -92674.3 0 539666 -94538.8 0 541185 -96379.4 0 542745 -98196.2 0 544344 -99988.8 0 545982 -101757 0 547656 -103499 0 549365 -105216 0 551107 -106906 0 552882 -108570 0 554689 -110206 0 556526 -111816 0 558393 -113398 0 560288 -114952 0 562210 -116480 0 564159 -117979 0 566134 -119451 0 568134 -120896 0 570159 -122314 0 572207 -123704 0 574278 -125068 0 576372 -126405 0 578488 -127715 0 580626 -128999 0 582785 -130257 0 584965 -131489 0 587165 -132696 0 589386 -133877 0 591626 -135032 0 593887 -136163 0 596167 -137269 0 598467 -138351 0 600787 -139408 0 603125 -140441 0 605484 -141449 0 607861 -142434 0 610259 -143395 0 612675 -144333 0 615112 -145247 0 617568 -146138 0 620044 -147005 0 622541 -147849 0 625057 -148669 0 627595 -149467 0 630153 -150241 0 632732 -150991 0 635332 -151718 0 637954 -152422 0 640597 -153102 0 643263 -153758 0 645952 -154390 0 648664 -154998 0 651399 -155582 0 654157 -156141 0 656940 -156675 0 659748 -157183 0 662580 -157667 0 665438 -158124 0 668321 -158554 0 671231 -158958 0 674168 -159334 0 677132 -159682 0 680124 -160002 0 683145 -160292 0 686194 -160553 0 689272 -160783 0 692380 -160982 0 695518 -161148 0 698687 -161281 0 701887 -161381 0 705119 -161445 0 708384 -161473 0 711680 -161465 0 715010 -161417 0 718374 -161331 0 721771 -161203 0 725203 -161034 0 728670 -160821 0 732171 -160562 0 735708 -160257 0 739280 -159904 0 742888 -159500 0 746532 -159045 0 750211 -158536 0 753927 -157971 0 757678 -157348 0 761466 -156665 0 765288 -155921 0 769146 -155111 0 773038 -154235 0 776965 -153290 0 780924 -152273 0 784916 -151182 0 788940 -150014 0 792994 -148766 0 797077 -147437 0 801188 -146022 0 805324 -144520 0 809484 -142927 0 813667 -141242 0 817869 -139460 0 822087 -137581 0 826321 -135600 0 830565 -133516 0 834819 -131325 0 839077 -129027 0 843336 -126619 0 847593 -124098 0 851844 -121463 0 856084 -118712 0 860310 -115844 0 864516 -112858 0 868699 -109752 0 872853 -106527 0 876973 -103182 0 881056 -99716.4 0 885095 -96130.8 0 889087 -92425.6 0 893026 -88601.5 0 896906 -84659.7 0 900725 -80601.2 0 904475 -76427.6 0 908152 -72141 0 911753 -67744.3 0 915272 -63241.8 0 918710 -58635 0 922053 -53900.9 0 547696 -87551.9 0 549122 -89213.8 0 550580 -90859.8 0 552070 -92487.8 0 553594 -94096.7 0 555151 -95685.3 0 556740 -97253.1 0 558360 -98799.5 0 560011 -100324 0 561692 -101826 0 563403 -103305 0 565141 -104761 0 566908 -106193 0 568702 -107602 0 570522 -108987 0 572368 -110349 0 574240 -111686 0 576136 -112998 0 578056 -114287 0 580000 -115551 0 581967 -116791 0 583956 -118007 0 585968 -119199 0 588002 -120366 0 590058 -121509 0 592135 -122628 0 594233 -123723 0 596352 -124794 0 598491 -125841 0 600651 -126864 0 602831 -127863 0 605031 -128838 0 607251 -129789 0 609492 -130717 0 611752 -131621 0 614032 -132502 0 616332 -133358 0 618652 -134192 0 620992 -135001 0 623352 -135786 0 625732 -136548 0 628132 -137286 0 630552 -138000 0 632994 -138690 0 635455 -139356 0 637938 -139998 0 640442 -140615 0 642966 -141207 0 645513 -141775 0 648080 -142317 0 650670 -142834 0 653282 -143326 0 655917 -143791 0 658574 -144231 0 661254 -144644 0 663957 -145029 0 666684 -145388 0 669434 -145718 0 672209 -146020 0 675008 -146294 0 677832 -146537 0 680681 -146751 0 683556 -146934 0 686456 -147086 0 689382 -147206 0 692334 -147293 0 695313 -147347 0 698319 -147366 0 701352 -147350 0 704413 -147298 0 707501 -147209 0 710617 -147081 0 713761 -146915 0 716933 -146708 0 720134 -146460 0 723363 -146169 0 726621 -145834 0 729908 -145454 0 733224 -145027 0 736568 -144552 0 739941 -144028 0 743342 -143452 0 746772 -142824 0 750229 -142142 0 753715 -141403 0 757228 -140607 0 760767 -139752 0 764333 -138835 0 767925 -137855 0 771541 -136809 0 775182 -135697 0 778845 -134516 0 782531 -133263 0 786237 -131938 0 789963 -130537 0 793706 -129060 0 797466 -127503 0 801241 -125865 0 805028 -124144 0 808826 -122338 0 812632 -120445 0 816445 -118463 0 820261 -116391 0 824078 -114227 0 827893 -111969 0 831704 -109616 0 835507 -107166 0 839299 -104618 0 843077 -101972 0 846837 -99225.8 0 850577 -96379.3 0 854291 -93431.8 0 857977 -90383.1 0 861631 -87232.8 0 865249 -83981 0 868827 -80627.9 0 872362 -77174 0 875849 -73619.9 0 879285 -69966.5 0 882665 -66214.8 0 885987 -62366.2 0 889246 -58422.2 0 892439 -54384.6 0 895563 -50255.2 0 898614 -46035.6 0 901587 -41726.8 0 904479 -37331.8 0 907290 -32868.6 0 557724 -83966.8 0 559116 -85448.5 0 560541 -86912.9 0 561997 -88360.1 0 563483 -89789.5 0 564999 -91200.7 0 566544 -92593.4 0 568117 -93966.8 0 569717 -95320.8 0 571345 -96654.7 0 573000 -97968.3 0 574680 -99261.3 0 576386 -100533 0 578117 -101784 0 579873 -103013 0 581653 -104221 0 583457 -105407 0 585284 -106571 0 587133 -107712 0 589006 -108832 0 590901 -109928 0 592818 -111003 0 594756 -112055 0 596716 -113084 0 598697 -114090 0 600699 -115073 0 602721 -116034 0 604764 -116972 0 606828 -117886 0 608911 -118778 0 611015 -119646 0 613139 -120492 0 615282 -121314 0 617446 -122112 0 619629 -122887 0 621832 -123639 0 624055 -124367 0 626297 -125071 0 628559 -125752 0 630841 -126408 0 633143 -127041 0 635465 -127649 0 637807 -128232 0 640169 -128791 0 642551 -129324 0 644953 -129833 0 647376 -130316 0 649819 -130774 0 652283 -131206 0 654767 -131611 0 657273 -131990 0 659800 -132341 0 662348 -132666 0 664917 -132962 0 667509 -133231 0 670121 -133471 0 672756 -133681 0 675413 -133863 0 678092 -134013 0 680794 -134134 0 683518 -134222 0 686265 -134279 0 689035 -134304 0 691828 -134294 0 694645 -134251 0 697484 -134173 0 700347 -134060 0 703234 -133909 0 706144 -133722 0 709077 -133496 0 712034 -133232 0 715015 -132927 0 718020 -132580 0 721048 -132192 0 724100 -131760 0 727175 -131284 0 730273 -130762 0 733394 -130194 0 736538 -129577 0 739704 -128911 0 742892 -128194 0 746102 -127425 0 749334 -126603 0 752586 -125726 0 755858 -124793 0 759149 -123802 0 762459 -122751 0 765787 -121641 0 769132 -120467 0 772492 -119231 0 775868 -117928 0 779257 -116559 0 782658 -115122 0 786070 -113615 0 789492 -112036 0 792922 -110385 0 796358 -108660 0 799798 -106858 0 803241 -104980 0 806684 -103023 0 810126 -100987 0 813564 -98870.1 0 816995 -96671.3 0 820418 -94389.7 0 823830 -92024.3 0 827229 -89574.4 0 830611 -87039.2 0 833974 -84418.3 0 837315 -81711 0 840631 -78917.2 0 843920 -76036.7 0 847178 -73069.3 0 850402 -70015.3 0 853589 -66874.8 0 856737 -63648.3 0 859841 -60336.3 0 862900 -56939.7 0 865910 -53459.1 0 868868 -49895.8 0 871770 -46250.8 0 874616 -42525.4 0 877400 -38721.1 0 880120 -34839.4 0 882774 -30882 0 885359 -26851.1 0 887873 -22749.4 0 890313 -18579 0 892676 -14332.6 0 566853 -80134.8 0 568228 -81451.3 0 569629 -82753 0 571056 -84039.2 0 572509 -85309.1 0 573988 -86562.4 0 575492 -87798.5 0 577022 -89016.9 0 578577 -90217.3 0 580156 -91399.3 0 581760 -92562.5 0 583387 -93706.6 0 585038 -94831.3 0 586712 -95936.3 0 588409 -97021.4 0 590128 -98086.4 0 591870 -99130.9 0 593633 -100155 0 595419 -101158 0 597225 -102140 0 599053 -103101 0 600902 -104040 0 602771 -104958 0 604661 -105855 0 606572 -106729 0 608502 -107582 0 610453 -108412 0 612423 -109220 0 614413 -110006 0 616422 -110770 0 618452 -111510 0 620500 -112228 0 622568 -112923 0 624655 -113594 0 626761 -114243 0 628886 -114868 0 631031 -115469 0 633194 -116046 0 635377 -116599 0 637579 -117128 0 639799 -117633 0 642039 -118112 0 644299 -118567 0 646577 -118997 0 648874 -119400 0 651191 -119778 0 653527 -120130 0 655883 -120456 0 658258 -120754 0 660652 -121026 0 663066 -121269 0 665500 -121485 0 667953 -121673 0 670426 -121831 0 672919 -121960 0 675432 -122059 0 677965 -122128 0 680517 -122166 0 683090 -122173 0 685683 -122147 0 688296 -122089 0 690929 -121998 0 693582 -121872 0 696255 -121712 0 698948 -121517 0 701662 -121285 0 704395 -121017 0 707148 -120711 0 709921 -120366 0 712714 -119982 0 715526 -119558 0 718357 -119093 0 721207 -118585 0 724077 -118034 0 726965 -117440 0 729871 -116800 0 732795 -116114 0 735736 -115382 0 738695 -114600 0 741670 -113770 0 744661 -112889 0 747667 -111957 0 750688 -110971 0 753723 -109932 0 756772 -108838 0 759832 -107687 0 762904 -106480 0 765987 -105213 0 769079 -103887 0 772180 -102499 0 775287 -101050 0 778400 -99537.5 0 781518 -97960.5 0 784639 -96318.1 0 787762 -94609.1 0 790885 -92832.6 0 794006 -90987.5 0 797123 -89073 0 800236 -87088.1 0 803341 -85032.1 0 806438 -82904.1 0 809523 -80703.6 0 812595 -78429.8 0 815653 -76082.2 0 818692 -73660.5 0 821713 -71164.2 0 824711 -68593 0 827684 -65946.9 0 830632 -63225.8 0 833550 -60429.7 0 836436 -57558.8 0 839288 -54613.4 0 842104 -51593.8 0 844881 -48500.5 0 847617 -45334.2 0 850309 -42095.6 0 852954 -38785.6 0 855551 -35405 0 858097 -31955.1 0 860589 -28436.9 0 863025 -24851.7 0 865403 -21201.1 0 867721 -17486.6 0 869977 -13709.7 0 872169 -9872.11 0 874295 -5975.13 0 876351 -2020.55 0 878338 1984.01 0 575237 -76092.7 0 576581 -77264.7 0 577950 -78421.9 0 579344 -79563.9 0 580761 -80690.3 0 582202 -81800.8 0 583666 -82894.9 0 585153 -83972.2 0 586662 -85032.4 0 588194 -86075.2 0 589749 -87100.2 0 591325 -88107 0 592923 -89095.5 0 594542 -90065.3 0 596183 -91016.1 0 597845 -91947.7 0 599527 -92859.8 0 601230 -93752.2 0 602953 -94624.7 0 604697 -95477 0 606460 -96308.9 0 608243 -97120.2 0 610046 -97910.7 0 611868 -98680.2 0 613709 -99428.5 0 615570 -100155 0 617450 -100861 0 619348 -101544 0 621265 -102206 0 623201 -102845 0 625156 -103462 0 627129 -104056 0 629120 -104627 0 631130 -105176 0 633158 -105701 0 635204 -106203 0 637268 -106680 0 639351 -107134 0 641451 -107564 0 643570 -107969 0 645706 -108350 0 647861 -108705 0 650033 -109035 0 652223 -109339 0 654432 -109617 0 656658 -109869 0 658902 -110095 0 661164 -110293 0 663444 -110463 0 665742 -110606 0 668058 -110721 0 670391 -110807 0 672742 -110864 0 675111 -110891 0 677498 -110888 0 679903 -110854 0 682325 -110790 0 684764 -110694 0 687222 -110565 0 689696 -110404 0 692188 -110209 0 694698 -109981 0 697224 -109717 0 699768 -109419 0 702328 -109084 0 704905 -108713 0 707498 -108304 0 710108 -107857 0 712733 -107372 0 715375 -106847 0 718032 -106281 0 720703 -105674 0 723390 -105025 0 726091 -104333 0 728806 -103597 0 731534 -102816 0 734276 -101990 0 737029 -101118 0 739795 -100198 0 742572 -99229.8 0 745359 -98212.6 0 748156 -97145.2 0 750962 -96026.9 0 753776 -94856.5 0 756598 -93633.4 0 759426 -92356.4 0 762260 -91024.8 0 765097 -89637.5 0 767939 -88193.9 0 770782 -86692.9 0 773626 -85133.8 0 776470 -83515.7 0 779313 -81837.8 0 782152 -80099.5 0 784987 -78300 0 787816 -76438.6 0 790637 -74514.7 0 793450 -72527.7 0 796251 -70477.1 0 799041 -68362.5 0 801816 -66183.3 0 804575 -63939.4 0 807316 -61630.4 0 810038 -59256 0 812738 -56816.3 0 815414 -54311 0 818065 -51740.3 0 820689 -49104.3 0 823283 -46403.1 0 825845 -43637.1 0 828375 -40806.5 0 830868 -37911.9 0 833324 -34953.7 0 835741 -31932.7 0 838116 -28849.5 0 840448 -25705 0 842734 -22500 0 844972 -19235.6 0 847162 -15912.7 0 849300 -12532.6 0 851385 -9096.53 0 853416 -5605.7 0 855389 -2061.5 0 857305 1534.62 0 859161 5181.06 0 860955 8875.97 0 862688 12617.6 0 864355 16407.5 0 582899 -71896.8 0 584215 -72936.2 0 585553 -73961.2 0 586913 -74971.6 0 588293 -75966.8 0 589695 -76946.6 0 591119 -77910.4 0 592563 -78858.1 0 594027 -79789.2 0 595512 -80703.4 0 597018 -81600.4 0 598544 -82479.9 0 600089 -83341.6 0 601655 -84185.3 0 603240 -85010.6 0 604845 -85817.3 0 606469 -86605.1 0 608112 -87373.8 0 609774 -88123.1 0 611455 -88852.8 0 613154 -89562.6 0 614872 -90252.3 0 616609 -90921.6 0 618363 -91570.4 0 620136 -92198.4 0 621927 -92805.4 0 623736 -93391 0 625562 -93955.2 0 627406 -94497.6 0 629268 -95018.1 0 631147 -95516.4 0 633043 -95992.1 0 634957 -96445.2 0 636887 -96875.3 0 638835 -97282.2 0 640800 -97665.6 0 642782 -98025.2 0 644781 -98360.8 0 646796 -98672 0 648828 -98958.6 0 650877 -99220.3 0 652943 -99456.7 0 655025 -99667.6 0 657123 -99852.5 0 659238 -100011 0 661369 -100143 0 663517 -100248 0 665680 -100326 0 667860 -100376 0 670055 -100397 0 672267 -100391 0 674494 -100355 0 676738 -100289 0 678996 -100194 0 681271 -100068 0 683560 -99911.5 0 685865 -99723.4 0 688185 -99503.4 0 690520 -99250.9 0 692870 -98965.4 0 695234 -98646.3 0 697612 -98293.1 0 700005 -97905.1 0 702412 -97481.8 0 704832 -97022.5 0 707266 -96526.6 0 709712 -95993.5 0 712172 -95422.5 0 714644 -94812.9 0 717128 -94164.1 0 719623 -93475.3 0 722130 -92746 0 724647 -91975.