<?xml version="1.0"?> 
<VTKFile type="StructuredGrid" version="0.1"> 
<StructuredGrid WholeExtent="0 127 0 127 0 0"> 
<Piece Extent="0 127 0 127 0 0"> 
<PointData>
<DataArray type="Float32" Name="u" format="ascii" NumberOfComponents="3"> 
9.53674e-07 1.18029e+06 0 72549.5 1.14632e+06 0 114366 1.11317e+06 0 143694 1.08197e+06 0 165764 1.05289e+06 0 182540 1.02584e+06 0 195553 1.00069e+06 0 205626 977268 0 213444 955435 0 219446 935037 0 223996 915944 0 227355 898035 0 229738 881201 0 231310 865346 0 232204 850384 0 232530 836238 0 232377 822839 0 231817 810125 0 230913 798042 0 229715 786538 0 228266 775571 0 226604 765099 0 224758 755087 0 222756 745500 0 220620 736310 0 218370 727489 0 216022 719013 0 213592 710859 0 211092 703007 0 208534 695437 0 205926 688133 0 203278 681079 0 200597 674261 0 197889 667664 0 195161 661278 0 192418 655090 0 189663 649090 0 186902 643269 0 184137 637617 0 181373 632126 0 178610 626789 0 175853 621598 0 173103 616548 0 170362 611631 0 167632 606842 0 164914 602175 0 162210 597627 0 159521 593191 0 156849 588864 0 154193 584642 0 151554 580521 0 148934 576497 0 146334 572568 0 143752 568729 0 141191 564978 0 138650 561313 0 136129 557730 0 133630 554228 0 131151 550804 0 128694 547456 0 126258 544182 0 123844 540980 0 121451 537848 0 119079 534785 0 116728 531790 0 114399 528860 0 112091 525994 0 109804 523191 0 107538 520450 0 105293 517770 0 103068 515148 0 100864 512586 0 98679.4 510080 0 96514.9 507632 0 94370.1 505238 0 92244.7 502900 0 90138.4 500615 0 88051 498384 0 85982.1 496205 0 83931.4 494078 0 81898.6 492003 0 79883.5 489978 0 77885.7 488002 0 75904.8 486077 0 73940.6 484200 0 71992.7 482372 0 70060.7 480592 0 68144.3 478859 0 66243.1 477174 0 64356.9 475535 0 62485.2 473942 0 60627.6 472396 0 58783.9 470895 0 56953.5 469440 0 55136.3 468030 0 53331.7 466664 0 51539.5 465343 0 49759.1 464066 0 47990.4 462834 0 46232.8 461645 0 44486 460499 0 42749.6 459397 0 41023.3 458338 0 39306.6 457321 0 37599.2 456348 0 35900.7 455417 0 34210.6 454529 0 32528.7 453682 0 30854.6 452878 0 29187.7 452116 0 27527.8 451396 0 25874.5 450717 0 24227.4 450080 0 22586.1 449485 0 20950.2 448931 0 19319.3 448419 0 17693.1 447947 0 16071.1 447517 0 14452.9 447129 0 12838.3 446781 0 11226.7 446474 0 9617.9 446208 0 8011.38 445983 0 6406.78 445800 0 4803.73 445657 0 3201.84 445554 0 1600.73 445493 0 0 445473 0 7192.52 1.19275e+06 0 76966.2 1.15227e+06 0 118543 1.11744e+06 0 147950 1.08528e+06 0 169899 1.05548e+06 0 186622 1.02791e+06 0 199529 1.00232e+06 0 209518 978560 0 217237 956431 0 223150 935785 0 227609 916475 0 230883 898378 0 233183 881378 0 234675 865376 0 235494 850283 0 235747 836020 0 235525 822515 0 234901 809706 0 233934 797535 0 232677 785952 0 231173 774912 0 229457 764374 0 227561 754299 0 225511 744656 0 223329 735413 0 221036 726544 0 218647 718022 0 216178 709826 0 213640 701934 0 211046 694328 0 208404 686989 0 205723 679903 0 203011 673055 0 200274 666430 0 197517 660017 0 194746 653804 0 191965 647781 0 189179 641937 0 186389 636265 0 183601 630755 0 180816 625400 0 178037 620192 0 175265 615125 0 172504 610193 0 169754 605390 0 167016 600710 0 164294 596149 0 161586 591701 0 158895 587364 0 156221 583131 0 153565 579000 0 150928 574967 0 148310 571029 0 145712 567183 0 143134 563425 0 140576 559752 0 138039 556164 0 135523 552655 0 133029 549226 0 130555 545873 0 128103 542594 0 125672 539388 0 123262 536252 0 120874 533186 0 118507 530187 0 116161 527254 0 113836 524385 0 111532 521580 0 109249 518837 0 106987 516154 0 104744 513531 0 102522 510967 0 100320 508460 0 98136.8 506010 0 95973.4 503615 0 93829.1 501276 0 91703.7 498990 0 89596.7 496758 0 87508 494578 0 85437.2 492450 0 83384 490374 0 81348.1 488348 0 79329.1 486372 0 77326.6 484446 0 75340.5 482568 0 73370.2 480739 0 71415.5 478958 0 69475.9 477224 0 67551.2 475538 0 65641 473898 0 63744.9 472305 0 61862.4 470757 0 59993.4 469255 0 58137.3 467798 0 56293.8 466386 0 54462.5 465019 0 52643.1 463696 0 50835.2 462417 0 49038.3 461182 0 47252.1 459990 0 45476.2 458842 0 43710.2 457736 0 41953.7 456674 0 40206.4 455654 0 38467.9 454677 0 36737.7 453742 0 35015.5 452849 0 33300.9 451998 0 31593.5 451189 0 29892.8 450421 0 28198.6 449696 0 26510.5 449011 0 24827.9 448368 0 23150.6 447766 0 21478.2 447205 0 19810.2 446685 0 18146.3 446206 0 16486 445767 0 14829.1 445370 0 13175 445013 0 11523.5 444696 0 9874.07 444420 0 8226.36 444185 0 6579.99 443990 0 4934.56 443836 0 3289.68 443721 0 1644.96 443648 0 0 443614 0 14523.2 1.20346e+06 0 81567.1 1.1582e+06 0 122937 1.1217e+06 0 152302 1.08855e+06 0 174140 1.05805e+06 0 190775 1.02994e+06 0 203576 1.00393e+06 0 213465 979817 0 221083 957394 0 226899 936497 0 231263 916972 0 234447 898686 0 236660 881521 0 238070 865373 0 238810 850149 0 238989 835769 0 238697 822159 0 238005 809254 0 236975 796996 0 235657 785334 0 234095 774222 0 232325 763617 0 230377 753481 0 228278 743782 0 226050 734487 0 223712 725569 0 221281 717002 0 218771 708764 0 216195 700833 0 213564 693191 0 210888 685818 0 208174 678700 0 205429 671822 0 202662 665169 0 199876 658730 0 197077 652493 0 194269 646446 0 191457 640581 0 188643 634888 0 185830 629359 0 183022 623985 0 180220 618761 0 177427 613678 0 174644 608731 0 171874 603914 0 169117 599221 0 166374 594647 0 163648 590188 0 160938 585839 0 158246 581597 0 155572 577456 0 152917 573414 0 150282 569468 0 147667 565613 0 145072 561848 0 142497 558169 0 139943 554574 0 137411 551060 0 134899 547624 0 132409 544266 0 129940 540983 0 127493 537772 0 125067 534633 0 122662 531563 0 120278 528560 0 117915 525624 0 115573 522752 0 113252 519944 0 110951 517199 0 108671 514514 0 106411 511889 0 104171 509322 0 101950 506814 0 99749.1 504362 0 97567 501966 0 95403.7 499625 0 93259 497338 0 91132.5 495104 0 89023.9 492924 0 86932.9 490795 0 84859.1 488717 0 82802.3 486690 0 80762 484713 0 78738 482785 0 76729.8 480907 0 74737.2 479077 0 72759.7 477294 0 70797 475559 0 68848.8 473871 0 66914.5 472230 0 64994 470635 0 63086.8 469086 0 61192.4 467582 0 59310.6 466123 0 57441 464709 0 55583.1 463339 0 53736.6 462014 0 51901.2 460732 0 50076.3 459494 0 48261.6 458299 0 46456.7 457148 0 44661.3 456039 0 42874.9 454973 0 41097.2 453949 0 39327.7 452967 0 37566.1 452028 0 35811.9 451130 0 34064.8 450274 0 32324.4 449459 0 30590.3 448686 0 28862 447953 0 27139.3 447262 0 25421.7 446612 0 23708.7 446003 0 22000.1 445434 0 20295.4 444906 0 18594.1 444418 0 16896.1 443971 0 15200.7 443564 0 13507.7 443197 0 11816.6 442871 0 10127.1 442584 0 8438.66 442337 0 6751.01 442131 0 5063.72 441964 0 3376.38 441837 0 1688.61 441750 0 0 441702 0 21971.2 1.21297e+06 0 86410 1.16408e+06 0 127518 1.12593e+06 0 156764 1.09178e+06 0 178480 1.06059e+06 0 195003 1.03194e+06 0 207690 1.0055e+06 0 217470 981038 0 224979 958321 0 230692 937174 0 234958 917433 0 238047 898959 0 240170 881629 0 241494 865334 0 242153 849981 0 242256 835484 0 241890 821768 0 241129 808768 0 240033 796425 0 238654 784684 0 237033 773500 0 235207 762829 0 233206 752633 0 231057 742877 0 228780 733530 0 226397 724564 0 223923 715953 0 221372 707674 0 218757 699704 0 216089 692025 0 213377 684620 0 210629 677470 0 207852 670562 0 205053 663882 0 202237 657417 0 199410 651155 0 196575 645086 0 193736 639199 0 190896 633486 0 188059 627938 0 185227 622547 0 182403 617305 0 179588 612207 0 176783 607245 0 173992 602414 0 171214 597708 0 168452 593122 0 165706 588651 0 162978 584291 0 160267 580039 0 157575 575889 0 154902 571838 0 152249 567883 0 149616 564020 0 147004 560248 0 144412 556562 0 141841 552960 0 139292 549440 0 136764 546000 0 134257 542636 0 131771 539348 0 129307 536133 0 126863 532989 0 124441 529915 0 122041 526909 0 119661 523970 0 117302 521095 0 114963 518284 0 112645 515536 0 110347 512848 0 108069 510221 0 105810 507653 0 103571 505142 0 101352 502688 0 99150.7 500291 0 96968.3 497948 0 94804.2 495659 0 92658 493424 0 90529.4 491242 0 88418.1 489112 0 86323.7 487032 0 84245.9 485004 0 82184.3 483025 0 80138.7 481096 0 78108.5 479216 0 76093.4 477384 0 74093.2 475601 0 72107.4 473864 0 70135.5 472174 0 68177.4 470531 0 66232.5 468934 0 64300.4 467383 0 62380.9 465876 0 60473.5 464415 0 58577.8 462999 0 56693.4 461626 0 54819.9 460298 0 52957 459013 0 51104.2 457771 0 49261.2 456573 0 47427.6 455418 0 45602.9 454305 0 43786.7 453234 0 41978.7 452206 0 40178.5 451219 0 38385.7 450274 0 36599.8 449371 0 34820.5 448509 0 33047.4 447689 0 31280 446909 0 29518 446170 0 27761 445472 0 26008.6 444814 0 24260.3 444197 0 22515.9 443620 0 20774.8 443083 0 19036.7 442586 0 17301.1 442129 0 15567.8 441712 0 13836.2 441335 0 12106.1 440997 0 10376.9 440699 0 8648.26 440441 0 6919.84 440221 0 5191.2 440042 0 3461.95 439901 0 1731.68 439800 0 0 439738 0 29523.7 1.22163e+06 0 91511.6 1.16988e+06 0 132271 1.13013e+06 0 161340 1.09498e+06 0 182916 1.06309e+06 0 199308 1.0339e+06 0 211870 1.00704e+06 0 221530 982222 0 228926 959212 0 234530 937814 0 238691 917857 0 241682 899195 0 243711 881700 0 244947 865260 0 245522 849777 0 245545 835163 0 245104 821343 0 244272 808249 0 243109 795820 0 241666 784001 0 239985 772745 0 238102 762009 0 236047 751752 0 233846 741941 0 231521 732543 0 229091 723530 0 226573 714874 0 223980 706554 0 221325 698546 0 218619 690832 0 215870 683393 0 213088 676212 0 210278 669275 0 207447 662568 0 204601 656077 0 201745 649791 0 198881 643700 0 196016 637792 0 193150 632059 0 190288 626492 0 187432 621083 0 184584 615825 0 181746 610711 0 178920 605734 0 176107 600889 0 173309 596171 0 170527 591572 0 167761 587090 0 165013 582720 0 162283 578457 0 159573 574298 0 156882 570238 0 154211 566275 0 151560 562404 0 148930 558624 0 146321 554932 0 143733 551324 0 141166 547798 0 138621 544351 0 136096 540983 0 133594 537690 0 131112 534470 0 128652 531322 0 126213 528244 0 123795 525234 0 121398 522291 0 119021 519413 0 116665 516600 0 114329 513848 0 112013 511158 0 109717 508528 0 107440 505958 0 105183 503445 0 102944 500989 0 100724 498589 0 98522.6 496245 0 96339 493954 0 94173 491717 0 92024.3 489533 0 89892.6 487401 0 87777.6 485320 0 85678.8 483290 0 83595.8 481310 0 81528.5 479379 0 79476.2 477497 0 77438.8 475663 0 75415.8 473877 0 73406.8 472138 0 71411.4 470447 0 69429.3 468801 0 67460.1 467202 0 65503.3 465648 0 63558.6 464139 0 61625.6 462675 0 59703.9 461255 0 57793.1 459879 0 55892.8 458548 0 54002.6 457259 0 52122.1 456014 0 50250.9 454812 0 48388.6 453652 0 46534.8 452534 0 44689 451459 0 42851 450425 0 41020.3 449433 0 39196.4 448483 0 37379.1 447574 0 35567.8 446706 0 33762.2 445878 0 31961.9 445091 0 30166.5 444345 0 28375.5 443639 0 26588.6 442973 0 24805.4 442347 0 23025.5 441762 0 21248.4 441215 0 19473.8 440709 0 17701.2 440242 0 15930.3 439814 0 14160.6 439426 0 12391.8 439077 0 10623.5 438766 0 8855.13 438495 0 7086.45 438263 0 5317 438070 0 3546.38 437915 0 1774.18 437800 0 0 437723 0 37172.6 1.22966e+06 0 96868.3 1.17557e+06 0 137188 1.13427e+06 0 166032 1.09814e+06 0 187445 1.06555e+06 0 203689 1.03583e+06 0 216115 1.00854e+06 0 225647 983368 0 232922 960064 0 238410 938416 0 242463 918244 0 245351 899394 0 247284 881735 0 248428 865149 0 248916 849537 0 248858 834808 0 248339 820884 0 247434 807695 0 246202 795181 0 244694 783285 0 242951 771958 0 241009 761156 0 238899 750840 0 236645 740974 0 234270 731525 0 231793 722465 0 229230 713766 0 226594 705405 0 223899 697360 0 221154 689610 0 218368 682138 0 215550 674927 0 212706 667961 0 209844 661227 0 206967 654711 0 204080 648401 0 201189 642287 0 198295 636359 0 195404 630606 0 192516 625021 0 189635 619595 0 186764 614320 0 183903 609191 0 181054 604200 0 178220 599341 0 175401 594610 0 172598 589999 0 169812 585506 0 167044 581125 0 164295 576852 0 161566 572683 0 158856 568615 0 156166 564643 0 153498 560765 0 150850 556978 0 148223 553278 0 145617 549664 0 143033 546132 0 140470 542680 0 137929 539306 0 135409 536008 0 132910 532783 0 130432 529631 0 127976 526549 0 125540 523535 0 123125 520589 0 120731 517708 0 118357 514891 0 116003 512136 0 113669 509443 0 111355 506811 0 109060 504238 0 106784 501722 0 104526 499264 0 102287 496862 0 100066 494515 0 97863.2 492223 0 95677.3 489984 0 93508.5 487797 0 91356.3 485663 0 89220.5 483580 0 87100.6 481548 0 84996.3 479566 0 82907.2 477633 0 80832.9 475748 0 78773.1 473912 0 76727.2 472124 0 74695.1 470383 0 72676.2 468689 0 70670.2 467040 0 68676.7 465438 0 66695.2 463881 0 64725.5 462369 0 62767 460902 0 60819.4 459479 0 58882.3 458099 0 56955.2 456764 0 55037.8 455471 0 53129.7 454222 0 51230.5 453015 0 49339.7 451850 0 47456.9 450728 0 45581.8 449647 0 43714 448608 0 41852.9 447610 0 39998.3 446654 0 38149.7 445738 0 36306.7 444863 0 34469 444028 0 32636 443234 0 30807.4 442479 0 28982.8 441765 0 27161.8 441091 0 25344 440456 0 23528.9 439860 0 21716.2 439304 0 19905.4 438788 0 18096.2 438310 0 16288.2 437871 0 14480.9 437471 0 12673.9 437109 0 10866.8 436787 0 9059.27 436502 0 7250.83 436257 0 5441.09 436049 0 3629.65 435880 0 1816.09 435749 0 0 435656 0 44911.8 1.23719e+06 0 102466 1.18114e+06 0 142262 1.13836e+06 0 170840 1.10125e+06 0 192066 1.06797e+06 0 208145 1.03771e+06 0 220425 1.00999e+06 0 229819 984473 0 236966 960876 0 242334 938978 0 246274 918591 0 249055 899555 0 250887 881731 0 251936 865001 0 252335 849260 0 252192 834415 0 251594 820388 0 250614 807107 0 249311 794507 0 247736 782534 0 245930 771137 0 243928 760272 0 241761 749897 0 239454 739976 0 237028 730477 0 234503 721370 0 231894 712628 0 229214 704227 0 226477 696144 0 223693 688360 0 220869 680856 0 218015 673614 0 215137 666620 0 212241 659859 0 209333 653318 0 206416 646985 0 203496 640849 0 200574 634900 0 197656 629128 0 194742 623525 0 191837 618081 0 188941 612791 0 186057 607646 0 183185 602641 0 180329 597769 0 177488 593025 0 174664 588403 0 171858 583898 0 169070 579507 0 166302 575224 0 163553 571045 0 160824 566968 0 158116 562988 0 155429 559103 0 152763 555308 0 150118 551601 0 147494 547980 0 144892 544442 0 142312 540985 0 139753 537606 0 137215 534302 0 134699 531073 0 132204 527917 0 129730 524830 0 127276 521813 0 124844 518862 0 122432 515978 0 120040 513157 0 117668 510400 0 115316 507704 0 112983 505069 0 110669 502492 0 108374 499974 0 106098 497514 0 103840 495109 0 101599 492760 0 99376.5 490465 0 97170.7 488224 0 94981.6 486035 0 92809 483898 0 90652.3 481813 0 88511.3 479778 0 86385.6 477794 0 84274.7 475858 0 82178.3 473971 0 80096 472133 0 78027.5 470342 0 75972.2 468598 0 73929.8 466901 0 71899.9 465249 0 69882.2 463644 0 67876.1 462083 0 65881.3 460568 0 63897.4 459097 0 61924 457670 0 59960.7 456287 0 58007 454947 0 56062.6 453650 0 54127 452395 0 52199.9 451183 0 50280.8 450014 0 48369.2 448886 0 46464.9 447799 0 44567.4 446754 0 42676.3 445750 0 40791.2 444786 0 38911.6 443864 0 37037.2 442981 0 35167.5 442139 0 33302.1 441336 0 31440.7 440574 0 29582.8 439851 0 27728 439167 0 25875.9 438522 0 24026 437917 0 22178.1 437350 0 20331.6 436823 0 18486.2 436333 0 16641.4 435883 0 14796.9 435470 0 12952.2 435096 0 11106.9 434760 0 9260.64 434462 0 7412.97 434202 0 5563.48 433980 0 3711.76 433795 0 1857.41 433648 0 0 433538 0 52736.6 1.24431e+06 0 108289 1.18658e+06 0 147488 1.14238e+06 0 175762 1.10432e+06 0 196777 1.07034e+06 0 212677 1.03955e+06 0 224798 1.01141e+06 0 234046 985537 0 241058 961647 0 246299 939499 0 250121 918898 0 252791 899675 0 254519 881689 0 255470 864814 0 255777 848945 0 255547 833987 0 254868 819857 0 253811 806482 0 252436 793799 0 250792 781750 0 248921 770283 0 246858 759354 0 244633 748920 0 242271 738946 0 239794 729397 0 237219 720244 0 234563 711459 0 231839 703019 0 229060 694899 0 226235 687081 0 223373 679545 0 220482 672273 0 217569 665251 0 214640 658464 0 211699 651899 0 208752 645543 0 205802 639385 0 202852 633416 0 199906 627625 0 196967 622003 0 194036 616543 0 191115 611237 0 188207 606077 0 185313 601058 0 182434 596172 0 179571 591416 0 176726 586782 0 173899 582266 0 171091 577864 0 168302 573572 0 165534 569384 0 162786 565298 0 160059 561310 0 157353 557417 0 154669 553615 0 152006 549901 0 149364 546274 0 146744 542730 0 144146 539267 0 141569 535882 0 139013 532574 0 136479 529340 0 133966 526179 0 131474 523088 0 129003 520066 0 126553 517112 0 124123 514224 0 121713 511400 0 119323 508639 0 116952 505940 0 114601 503301 0 112268 500722 0 109954 498202 0 107659 495738 0 105381 493331 0 103121 490979 0 100879 488681 0 98652.9 486437 0 96443.5 484246 0 94250.3 482107 0 92072.8 480019 0 89910.6 477981 0 87763.4 475994 0 85630.8 474056 0 83512.3 472166 0 81407.6 470324 0 79316.2 468530 0 77237.9 466783 0 75172 465083 0 73118.3 463428 0 71076.4 461819 0 69045.7 460255 0 67026 458735 0 65016.8 457260 0 63017.7 455829 0 61028.3 454441 0 59048.1 453096 0 57076.7 451794 0 55113.9 450535 0 53159 449318 0 51211.7 448142 0 49271.6 447008 0 47338.3 445915 0 45411.4 444863 0 43490.4 443852 0 41575 442882 0 39664.6 441951 0 37759 441061 0 35857.7 440211 0 33960.3 439400 0 32066.3 438628 0 30175.4 437895 0 28287.1 437202 0 26401.1 436547 0 24516.9 435931 0 22634.1 435354 0 20752.3 434814 0 18871.1 434313 0 16990 433850 0 15108.7 433425 0 13226.8 433037 0 11343.8 432687 0 9459.25 432375 0 7572.85 432100 0 5684.14 431862 0 3792.71 431661 0 1898.13 431498 0 0 431371 0 60643.2 1.25108e+06 0 114318 1.19187e+06 0 152862 1.14632e+06 0 180797 1.10733e+06 0 201577 1.07267e+06 0 217283 1.04134e+06 0 229234 1.01278e+06 0 238327 986557 0 245196 962374 0 250306 939979 0 254004 919164 0 256559 899756 0 258179 881606 0 259029 864589 0 259242 848592 0 258923 833520 0 258160 819288 0 257024 805822 0 255575 793056 0 253861 780931 0 251924 769395 0 249799 758403 0 247515 747911 0 245097 737883 0 242566 728285 0 239941 719087 0 237238 710261 0 234469 701781 0 231646 693625 0 228780 685773 0 225879 678205 0 222951 670904 0 220003 663855 0 217039 657042 0 214066 650452 0 211087 644074 0 208107 637895 0 205129 631905 0 202155 626095 0 199188 620456 0 196231 614980 0 193286 609658 0 190354 604483 0 187436 599450 0 184534 594552 0 181649 589783 0 178782 585137 0 175934 580611 0 173106 576199 0 170297 571896 0 167509 567700 0 164741 563605 0 161995 559609 0 159270 555708 0 156567 551898 0 153885 548178 0 151225 544544 0 148587 540994 0 145971 537525 0 143376 534135 0 140802 530822 0 138250 527583 0 135719 524417 0 133209 521322 0 130720 518296 0 128252 515338 0 125803 512446 0 123375 509618 0 120967 506854 0 118577 504152 0 116207 501510 0 113856 498928 0 111523 496404 0 109209 493937 0 106912 491527 0 104632 489172 0 102370 486871 0 100124 484625 0 97894 482430 0 95680.1 480288 0 93481.7 478197 0 91298.4 476157 0 89129.7 474166 0 86975.2 472225 0 84834.7 470332 0 82707.5 468487 0 80593.4 466690 0 78492 464939 0 76402.7 463235 0 74325.2 461576 0 72259.1 459963 0 70204 458395 0 68159.5 456871 0 66125 455392 0 64100.3 453956 0 62084.9 452563 0 60078.3 451213 0 58080.2 449906 0 56090.1 448641 0 54107.7 447417 0 52132.5 446236 0 50164 445095 0 48201.9 443996 0 46245.8 442937 0 44295.1 441919 0 42349.6 440940 0 40408.8 440002 0 38472.3 439103 0 36539.6 438244 0 34610.4 437424 0 32684.2 436643 0 30760.6 435900 0 28839.2 435197 0 26919.7 434531 0 25001.4 433904 0 23084.2 433315 0 21167.4 432764 0 19250.8 432250 0 17333.9 431774 0 15416.3 431335 0 13497.6 430934 0 11577.3 430569 0 9655.06 430242 0 7730.46 429951 0 5803.08 429697 0 3872.48 429480 0 1938.26 429299 0 0 429155 0 68628.1 1.25754e+06 0 120536 1.19701e+06 0 158377 1.15019e+06 0 185941 1.11028e+06 0 206465 1.07494e+06 0 221961 1.04309e+06 0 233731 1.0141e+06 0 242661 987531 0 249381 963058 0 254352 940414 0 257923 919387 0 260359 899794 0 261868 881484 0 262614 864323 0 262729 848200 0 262318 833016 0 261469 818683 0 260253 805125 0 258727 792276 0 256942 780077 0 254938 768473 0 252749 757418 0 250404 746869 0 247929 736789 0 245345 727142 0 242669 717899 0 239917 709031 0 237102 700513 0 234235 692321 0 231327 684436 0 228387 676837 0 225421 669507 0 222436 662430 0 219438 655592 0 216431 648979 0 213421 642578 0 210410 636378 0 207402 630369 0 204401 624541 0 201407 618884 0 198424 613391 0 195453 608054 0 192496 602865 0 189554 597818 0 186629 592907 0 183722 588126 0 180833 583469 0 177964 578932 0 175114 574509 0 172285 570197 0 169476 565992 0 166689 561888 0 163923 557884 0 161179 553975 0 158457 550159 0 155757 546432 0 153078 542792 0 150421 539235 0 147787 535761 0 145173 532365 0 142582 529047 0 140011 525803 0 137462 522632 0 134934 519533 0 132427 516503 0 129940 513540 0 127474 510644 0 125027 507813 0 122600 505045 0 120192 502339 0 117803 499694 0 115433 497108 0 113081 494581 0 110747 492111 0 108431 489698 0 106132 487340 0 103849 485036 0 101583 482786 0 99332.8 480589 0 97098.2 478443 0 94878.9 476349 0 92674.3 474306 0 90484.1 472312 0 88307.9 470367 0 86145.2 468470 0 83995.7 466622 0 81858.8 464821 0 79734.3 463066 0 77621.7 461358 0 75520.5 459695 0 73430.3 458078 0 71350.8 456505 0 69281.5 454977 0 67221.9 453492 0 65171.7 452051 0 63130.4 450653 0 61097.6 449298 0 59072.8 447984 0 57055.8 446713 0 55045.9 445484 0 53042.9 444295 0 51046.2 443148 0 49055.6 442041 0 47070.4 440975 0 45090.4 439949 0 43115.1 438962 0 41144 438015 0 39176.9 437108 0 37213.1 436239 0 35252.4 435410 0 33294.3 434618 0 31338.4 433866 0 29384.2 433151 0 27431.4 432474 0 25479.6 431836 0 23528.2 431234 0 21577 430670 0 19625.4 430144 0 17673.1 429654 0 15719.6 429201 0 13764.5 428785 0 11807.5 428406 0 9848.07 428063 0 7885.79 427756 0 5920.27 427486 0 3951.08 427251 0 1977.8 427053 0 0 426890 0 76688.2 1.26373e+06 0 126927 1.202e+06 0 164030 1.15397e+06 0 191193 1.11317e+06 0 211439 1.07716e+06 0 226711 1.04478e+06 0 238288 1.01537e+06 0 247046 988458 0 253610 963695 0 258438 940806 0 261876 919567 0 264188 899791 0 265583 881319 0 266222 864018 0 266237 847769 0 265733 832472 0 264796 818039 0 263496 804391 0 261893 791461 0 260035 779187 0 257961 767516 0 255707 756399 0 253302 745794 0 250769 735661 0 248129 725967 0 245401 716680 0 242599 707771 0 239737 699215 0 236826 690988 0 233876 683069 0 230895 675440 0 227891 668082 0 224869 660978 0 221836 654115 0 218796 647478 0 215753 641056 0 212711 634835 0 209674 628807 0 206643 622960 0 203622 617287 0 200612 611778 0 197615 606425 0 194633 601222 0 191667 596162 0 188719 591238 0 185789 586445 0 182878 581777 0 179986 577229 0 177115 572797 0 174265 568475 0 171437 564260 0 168629 560149 0 165844 556136 0 163080 552220 0 160339 548397 0 157619 544663 0 154922 541016 0 152247 537454 0 149593 533973 0 146962 530572 0 144352 527248 0 141763 524000 0 139196 520824 0 136649 517720 0 134123 514686 0 131618 511719 0 129133 508819 0 126668 505984 0 124222 503212 0 121796 500502 0 119388 497853 0 116999 495264 0 114628 492734 0 112274 490260 0 109938 487844 0 107619 485482 0 105317 483175 0 103030 480922 0 100760 478721 0 98504.4 476572 0 96264.1 474474 0 94038.3 472427 0 91826.6 470430 0 89628.5 468481 0 87443.8 466581 0 85271.8 464728 0 83112.3 462923 0 80964.8 461164 0 78828.8 459452 0 76704 457785 0 74589.8 456162 0 72486 454585 0 70391.9 453051 0 68307.3 451562 0 66231.7 450115 0 64164.7 448711 0 62105.8 447350 0 60054.6 446030 0 58010.6 444753 0 55973.6 443516 0 53942.9 442321 0 51918.3 441166 0 49899.2 440052 0 47885.3 438978 0 45876.1 437943 0 43871.2 436948 0 41870.2 435992 0 39872.7 435075 0 37878.2 434197 0 35886.3 433357 0 33896.6 432556 0 31908.6 431792 0 29922.1 431066 0 27936.4 430378 0 25951.3 429727 0 23966.2 429113 0 21980.9 428536 0 19994.8 427995 0 18007.5 427492 0 16018.6 427025 0 14027.7 426593 0 12034.4 426198 0 10038.3 425839 0 8038.83 425516 0 6035.72 425228 0 4028.49 424976 0 2016.72 424759 0 0 424577 0 84820.8 1.26966e+06 0 133478 1.20685e+06 0 169814 1.15766e+06 0 196550 1.11599e+06 0 216497 1.07931e+06 0 231530 1.04642e+06 0 242904 1.01659e+06 0 251482 989337 0 257883 964286 0 262562 941152 0 265862 919702 0 268048 899743 0 269324 881113 0 269853 863671 0 269765 847298 0 269165 831890 0 268137 817357 0 266754 803620 0 265071 790609 0 263138 778261 0 260994 766523 0 258674 755346 0 256206 744685 0 253613 734501 0 250918 724760 0 248137 715429 0 245285 706479 0 242375 697886 0 239419 689625 0 236426 681674 0 233404 674014 0 230360 666628 0 227301 659498 0 224232 652611 0 221158 645951 0 218082 639507 0 215009 633266 0 211941 627219 0 208881 621355 0 205832 615664 0 202795 610139 0 199772 604772 0 196765 599555 0 193775 594482 0 190802 589545 0 187849 584740 0 184915 580061 0 182002 575503 0 179110 571060 0 176238 566730 0 173389 562506 0 170561 558386 0 167756 554366 0 164973 550442 0 162212 546611 0 159473 542871 0 156757 539218 0 154062 535649 0 151390 532163 0 148740 528756 0 146111 525427 0 143504 522173 0 140918 518993 0 138353 515884 0 135809 512845 0 133285 509875 0 130782 506970 0 128298 504131 0 125833 501355 0 123388 498642 0 120961 495989 0 118553 493396 0 116162 490862 0 113790 488385 0 111434 485964 0 109095 483599 0 106772 481289 0 104466 479032 0 102174 476827 0 99898.5 474675 0 97637.1 472573 0 95390.1 470522 0 93156.9 468521 0 90937 466568 0 88730.2 464664 0 86535.9 462807 0 84353.7 460997 0 82183.2 459234 0 80023.9 457517 0 77875.5 455845 0 75737.4 454217 0 73609.3 452635 0 71490.7 451096 0 69381.2 449600 0 67280.3 448148 0 65187.7 446738 0 63102.8 445370 0 61025.3 444044 0 58954.7 442759 0 56890.5 441516 0 54832.5 440313 0 52780 439151 0 50732.8 438028 0 48690.3 436946 0 46652.2 435902 0 44618 434898 0 42587.3 433933 0 40559.7 433006 0 38534.7 432118 0 36511.9 431267 0 34490.9 430455 0 32471.3 429680 0 30452.7 428942 0 28434.6 428241 0 26416.5 427577 0 24398.2 426950 0 22379.1 426360 0 20358.9 425805 0 18337.1 425287 0 16313.3 424805 0 14287 424358 0 12258 423947 0 10225.6 423571 0 8189.56 423231 0 6149.4 422925 0 4104.71 422654 0 2055.05 422418 0 0 422217 0 93023.2 1.27536e+06 0 140174 1.21153e+06 0 175725 1.16125e+06 0 202007 1.11873e+06 0 221637 1.08141e+06 0 236418 1.04801e+06 0 247578 1.01776e+06 0 255968 990166 0 262199 964828 0 266723 941450 0 269881 919792 0 271935 899652 0 273090 880863 0 273506 863282 0 273312 846785 0 272613 831268 0 271494 816636 0 270024 802811 0 268260 789720 0 266251 777300 0 264036 765496 0 261648 754258 0 259116 743542 0 256463 733308 0 253711 723520 0 250876 714146 0 247973 705157 0 245015 696527 0 242013 688231 0 238976 680249 0 235912 672560 0 232828 665146 0 229731 657991 0 226626 651079 0 223517 644397 0 220408 637931 0 217303 631671 0 214205 625605 0 211115 619723 0 208038 614016 0 204973 608476 0 201924 603094 0 198891 597863 0 195876 592777 0 192879 587828 0 189903 583012 0 186946 578322 0 184010 573753 0 181096 569301 0 178204 564961 0 175333 560729 0 172485 556600 0 169659 552572 0 166856 548641 0 164075 544803 0 161317 541056 0 158582 537396 0 155868 533822 0 153177 530330 0 150508 526917 0 147861 523583 0 145235 520324 0 142630 517139 0 140047 514025 0 137484 510982 0 134941 508007 0 132419 505098 0 129916 502255 0 127433 499475 0 124968 496757 0 122523 494101 0 120095 491504 0 117685 488966 0 115293 486485 0 112917 484061 0 110558 481692 0 108216 479377 0 105889 477116 0 103577 474908 0 101280 472752 0 98997.8 470646 0 96729.5 468591 0 94474.8 466585 0 92233.2 464628 0 90004.3 462719 0 87787.6 460858 0 85582.8 459044 0 83389.4 457275 0 81206.9 455553 0 79035 453876 0 76873.1 452243 0 74720.8 450655 0 72577.7 449110 0 70443.4 447609 0 68317.4 446150 0 66199.2 444733 0 64088.5 443359 0 61984.8 442026 0 59887.7 440734 0 57796.7 439483 0 55711.4 438272 0 53631.4 437101 0 51556.2 435971 0 49485.4 434879 0 47418.6 433826 0 45355.4 432813 0 43295.3 431838 0 41237.8 430901 0 39182.6 430001 0 37129.3 429140 0 35077.4 428316 0 33026.4 427529 0 30976.1 426779 0 28925.8 426066 0 26875.3 425389 0 24824.1 424748 0 22771.7 424143 0 20717.8 423574 0 18661.9 423041 0 16603.6 422543 0 14542.5 422080 0 12478.1 421652 0 10410.1 421259 0 8337.97 420901 0 6261.32 420577 0 4179.73 420287 0 2092.77 420032 0 0 419810 0 101293 1.28084e+06 0 147005 1.21607e+06 0 181755 1.16475e+06 0 207562 1.12141e+06 0 226857 1.08344e+06 0 241373 1.04953e+06 0 252309 1.01888e+06 0 260501 990943 0 266556 965320 0 270920 941701 0 273931 919836 0 275850 899516 0 276880 880570 0 277179 862850 0 276878 846231 0 276078 830605 0 274865 815876 0 273306 801963 0 271460 788793 0 269373 776302 0 267085 764433 0 264628 753136 0 262031 742365 0 259317 732081 0 256507 722248 0 253617 712832 0 250663 703804 0 247655 695137 0 244606 686808 0 241525 678795 0 238419 671077 0 235295 663636 0 232159 656455 0 229017 649520 0 225873 642815 0 222731 636329 0 219593 630050 0 216464 623965 0 213344 618066 0 210238 612343 0 207146 606788 0 204069 601392 0 201011 596147 0 197970 591048 0 194949 586088 0 191949 581260 0 188969 576559 0 186011 571980 0 183074 567518 0 180160 563169 0 177268 558928 0 174400 554792 0 171553 550756 0 168730 546817 0 165930 542972 0 163152 539219 0 160397 535553 0 157664 531972 0 154954 528474 0 152265 525056 0 149599 521716 0 146954 518452 0 144331 515262 0 141729 512144 0 139147 509096 0 136586 506116 0 134044 503203 0 131523 500355 0 129020 497571 0 126537 494849 0 124072 492189 0 121625 489588 0 119196 487045 0 116783 484561 0 114388 482132 0 112009 479760 0 109647 477441 0 107299 475176 0 104967 472963 0 102649 470803 0 100346 468693 0 98056.4 466633 0 95780.2 464623 0 93516.8 462661 0 91265.9 460748 0 89026.9 458882 0 86799.5 457062 0 84583.3 455289 0 82377.6 453561 0 80182.2 451878 0 77996.6 450240 0 75820.2 448646 0 73652.8 447095 0 71493.8 445587 0 69342.7 444121 0 67199.3 442698 0 65062.9 441316 0 62933.2 439976 0 60809.7 438676 0 58692.1 437417 0 56579.7 436198 0 54472.3 435019 0 52369.4 433879 0 50270.6 432778 0 48175.3 431716 0 46083.3 430693 0 43994 429707 0 41907 428759 0 39821.9 427849 0 37738.4 426976 0 35655.8 426140 0 33573.9 425341 0 31492.1 424578 0 29410.2 423851 0 27327.5 423161 0 25243.8 422506 0 23158.6 421887 0 21071.4 421302 0 18981.9 420753 0 16889.6 420239 0 14794.1 419760 0 12694.9 419315 0 10591.7 418904 0 8484.06 418527 0 6371.47 418185 0 4253.55 417876 0 2129.87 417600 0 0 417358 0 109628 1.28611e+06 0 153961 1.22045e+06 0 187901 1.16815e+06 0 213212 1.1