<?xml version="1.0"?> 
<VTKFile type="StructuredGrid" version="0.1"> 
<StructuredGrid WholeExtent="0 127 0 127 0 0"> 
<Piece Extent="0 127 0 127 0 0"> 
<PointData>
<DataArray type="Float32" Name="u" format="ascii" NumberOfComponents="3"> 
2.38419e-07 1.79745e+06 0 -260817 1.75541e+06 0 -411518 1.6673e+06 0 -511624 1.57142e+06 0 -578978 1.47919e+06 0 -624543 1.39365e+06 0 -654897 1.31597e+06 0 -674705 1.24574e+06 0 -686914 1.18246e+06 0 -693721 1.12531e+06 0 -696566 1.0736e+06 0 -696545 1.02664e+06 0 -694401 983822 0 -690708 944629 0 -685868 908613 0 -680189 875384 0 -673899 844612 0 -667167 816010 0 -660124 789333 0 -652867 764372 0 -645470 740942 0 -637990 718887 0 -630469 698068 0 -622939 678365 0 -615425 659673 0 -607944 641899 0 -600511 624963 0 -593134 608792 0 -585821 593322 0 -578575 578497 0 -571399 564265 0 -564296 550581 0 -557264 537406 0 -550304 524701 0 -543414 512434 0 -536592 500576 0 -529838 489100 0 -523147 477980 0 -516519 467195 0 -509951 456725 0 -503439 446550 0 -496982 436655 0 -490577 427023 0 -484221 417640 0 -477912 408494 0 -471647 399571 0 -465424 390862 0 -459241 382356 0 -453095 374042 0 -446983 365913 0 -440905 357961 0 -434858 350177 0 -428840 342554 0 -422849 335087 0 -416883 327768 0 -410942 320593 0 -405022 313555 0 -399123 306650 0 -393243 299872 0 -387382 293218 0 -381536 286684 0 -375707 280264 0 -369891 273957 0 -364089 267757 0 -358298 261662 0 -352519 255668 0 -346751 249773 0 -340991 243973 0 -335241 238266 0 -329498 232649 0 -323763 227120 0 -318034 221676 0 -312311 216315 0 -306594 211035 0 -300882 205834 0 -295174 200708 0 -289470 195658 0 -283770 190680 0 -278074 185772 0 -272380 180933 0 -266689 176162 0 -261000 171455 0 -255313 166813 0 -249629 162232 0 -243945 157711 0 -238264 153250 0 -232583 148845 0 -226904 144496 0 -221226 140201 0 -215549 135959 0 -209872 131767 0 -204196 127626 0 -198521 123532 0 -192846 119486 0 -187171 115484 0 -181497 111527 0 -175823 107612 0 -170150 103738 0 -164477 99904.3 0 -158804 96108.8 0 -153131 92350.4 0 -147458 88627.6 0 -141786 84939.2 0 -136113 81283.7 0 -130441 77660 0 -124769 74066.5 0 -119097 70502 0 -113425 66965.2 0 -107753 63454.6 0 -102081 59969.1 0 -96409.4 56507.2 0 -90737.8 53067.7 0 -85066.2 49649.2 0 -79394.7 46250.4 0 -73723.3 42870.1 0 -68052 39506.7 0 -62380.8 36159.2 0 -56709.6 32826 0 -51038.4 29506 0 -45367.3 26197.8 0 -39696.3 22900.2 0 -34025.3 19611.6 0 -28354.4 16331 0 -22683.5 13056.9 0 -17012.6 9788.11 0 -11341.7 6523.22 0 -5670.85 3260.96 0 0 1.20285e-07 0 3.28143e-08 1.62551e+06 0 -171924 1.66248e+06 0 -322134 1.61909e+06 0 -430604 1.5489e+06 0 -508092 1.47163e+06 0 -562870 1.39561e+06 0 -601449 1.3237e+06 0 -628152 1.25713e+06 0 -646244 1.19602e+06 0 -657951 1.14015e+06 0 -664945 1.0891e+06 0 -668408 1.04241e+06 0 -669228 999607 0 -668052 960263 0 -665371 923988 0 -661550 890437 0 -656867 859307 0 -651533 830329 0 -645713 803273 0 -639530 777935 0 -633081 754139 0 -626441 731730 0 -619668 710572 0 -612807 690546 0 -605894 671548 0 -598955 653485 0 -592012 636275 0 -585080 619846 0 -578171 604134 0 -571296 589080 0 -564460 574633 0 -557668 560748 0 -550925 547383 0 -544231 534500 0 -537588 522066 0 -530997 510051 0 -524456 498426 0 -517967 487168 0 -511527 476253 0 -505135 465660 0 -498791 455370 0 -492491 445366 0 -486235 435632 0 -480020 426154 0 -473846 416918 0 -467709 407911 0 -461608 399122 0 -455541 390541 0 -449507 382157 0 -443503 373962 0 -437529 365947 0 -431581 358105 0 -425659 350428 0 -419761 342909 0 -413885 335542 0 -408030 328321 0 -402195 321240 0 -396378 314295 0 -390578 307481 0 -384794 300792 0 -379025 294224 0 -373269 287774 0 -367525 281438 0 -361794 275211 0 -356072 269091 0 -350361 263074 0 -344658 257156 0 -338963 251336 0 -333276 245611 0 -327596 239977 0 -321921 234431 0 -316253 228973 0 -310589 223598 0 -304929 218305 0 -299274 213092 0 -293622 207957 0 -287973 202897 0 -282327 197910 0 -276683 192995 0 -271041 188149 0 -265401 183372 0 -259762 178661 0 -254124 174014 0 -248488 169429 0 -242852 164906 0 -237217 160442 0 -231582 156036 0 -225947 151687 0 -220313 147392 0 -214678 143150 0 -209043 138960 0 -203408 134820 0 -197773 130729 0 -192137 126686 0 -186501 122688 0 -180864 118736 0 -175227 114826 0 -169589 110958 0 -163950 107130 0 -158310 103341 0 -152670 99590.3 0 -147028 95875.6 0 -141386 92195.8 0 -135743 88549.7 0 -130099 84935.8 0 -124454 81352.8 0 -118809 77799.4 0 -113162 74274.3 0 -107514 70776.2 0 -101865 67303.7 0 -96215.7 63855.5 0 -90564.9 60430.3 0 -84913.1 57026.7 0 -79260.2 53643.6 0 -73606.2 50279.5 0 -67951.2 46933.1 0 -62295.1 43603.2 0 -56637.8 40288.5 0 -50979.4 36987.5 0 -45319.9 33699.1 0 -39659.2 30421.9 0 -33997.3 27154.6 0 -28334.2 23895.9 0 -22669.9 20644.5 0 -17004.3 17399.1 0 -11337.5 14158.4 0 -5669.4 10921.1 0 0 7685.91 0 -8.02118e-08 1.53095e+06 0 -122219 1.57098e+06 0 -251813 1.56039e+06 0 -359513 1.51495e+06 0 -441941 1.45471e+06 0 -503427 1.3897e+06 0 -548609 1.3252e+06 0 -581441 1.26345e+06 0 -604903 1.20552e+06 0 -621296 1.15169e+06 0 -632310 1.10192e+06 0 -639233 1.05598e+06 0 -643020 1.01358e+06 0 -644402 974384 0 -643927 938097 0 -642019 904423 0 -639000 873096 0 -635121 843876 0 -630577 816549 0 -625519 790926 0 -620065 766839 0 -614309 744140 0 -608325 722696 0 -602171 702393 0 -595892 683127 0 -589526 664807 0 -583100 647352 0 -576639 630689 0 -570160 614755 0 -563676 599491 0 -557200 584845 0 -550739 570772 0 -544301 557229 0 -537889 544179 0 -531508 531587 0 -525160 519422 0 -518847 507657 0 -512569 496266 0 -506328 485226 0 -500123 474516 0 -493954 464115 0 -487821 454007 0 -481721 444175 0 -475656 434604 0 -469622 425280 0 -463620 416191 0 -457647 407325 0 -451703 398671 0 -445786 390219 0 -439895 381960 0 -434028 373885 0 -428184 365985 0 -422362 358255 0 -416561 350685 0 -410779 343271 0 -405015 336006 0 -399267 328883 0 -393535 321899 0 -387818 315048 0 -382114 308324 0 -376423 301724 0 -370744 295244 0 -365075 288879 0 -359415 282626 0 -353765 276481 0 -348123 270441 0 -342488 264503 0 -336860 258663 0 -331238 252919 0 -325622 247268 0 -320010 241707 0 -314403 236234 0 -308799 230846 0 -303199 225541 0 -297602 220317 0 -292007 215171 0 -286414 210102 0 -280823 205107 0 -275233 200185 0 -269644 195333 0 -264056 190550 0 -258468 185834 0 -252881 181183 0 -247294 176596 0 -241706 172071 0 -236119 167605 0 -230530 163198 0 -224941 158848 0 -219352 154554 0 -213761 150313 0 -208169 146125 0 -202576 141988 0 -196982 137900 0 -191386 133861 0 -185789 129867 0 -180191 125919 0 -174590 122015 0 -168989 118153 0 -163385 114332 0 -157780 110551 0 -152173 106808 0 -146564 103102 0 -140954 99431.7 0 -135341 95795.4 0 -129727 92192.1 0 -124110 88620.2 0 -118492 85078.6 0 -112872 81565.9 0 -107249 78080.8 0 -101625 74622 0 -95998.2 71188.2 0 -90369.5 67778 0 -84738.6 64390.1 0 -79105.6 61023.3 0 -73470.4 57676.3 0 -67833 54347.6 0 -62193.3 51036.2 0 -56551.4 47740.5 0 -50907.1 44459.4 0 -45260.5 41191.5 0 -39611.6 37935.6 0 -33960.2 34690.3 0 -28306.4 31454.4 0 -22650.2 28226.5 0 -16991.5 25005.4 0 -11330.2 21789.8 0 -5666.4 18578.3 0 0 15369.7 0 2.5445e-08 1.45847e+06 0 -94334.1 1.49434e+06 0 -200925 1.49946e+06 0 -300260 1.47421e+06 0 -382715 1.43008e+06 0 -447721 1.37695e+06 0 -497675 1.32075e+06 0 -535447 1.26483e+06 0 -563609 1.21091e+06 0 -584258 1.15984e+06 0 -599063 1.11193e+06 0 -609313 1.06722e+06 0 -616012 1.02559e+06 0 -619932 986867 0 -621675 950824 0 -621704 917237 0 -620384 885886 0 -617998 856566 0 -614769 829087 0 -610875 803277 0 -606456 778982 0 -601621 756061 0 -596461 734392 0 -591045 713861 0 -585432 694370 0 -579667 675830 0 -573786 658161 0 -567820 641292 0 -561792 625159 0 -555721 609705 0 -549624 594879 0 -543511 580633 0 -537394 566926 0 -531280 553720 0 -525174 540980 0 -519083 528676 0 -513008 516779 0 -506954 505263 0 -500922 494105 0 -494914 483282 0 -488930 472776 0 -482970 462568 0 -477036 452642 0 -471126 442982 0 -465241 433575 0 -459379 424407 0 -453541 415466 0 -447725 406742 0 -441930 398224 0 -436157 389902 0 -430403 381768 0 -424667 373813 0 -418950 366030 0 -413249 358412 0 -407564 350951 0 -401893 343643 0 -396237 336480 0 -390593 329457 0 -384962 322570 0 -379341 315813 0 -373731 309182 0 -368130 302672 0 -362538 296279 0 -356954 290001 0 -351376 283832 0 -345806 277769 0 -340241 271810 0 -334681 265951 0 -329127 260189 0 -323576 254521 0 -318028 248945 0 -312484 243457 0 -306942 238057 0 -301403 232740 0 -295865 227505 0 -290328 222350 0 -284793 217272 0 -279258 212270 0 -273723 207340 0 -268189 202483 0 -262654 197695 0 -257119 192975 0 -251583 188320 0 -246046 183730 0 -240508 179203 0 -234969 174736 0 -229428 170329 0 -223886 165980 0 -218342 161686 0 -212796 157447 0 -207249 153261 0 -201699 149127 0 -196147 145043 0 -190592 141007 0 -185035 137019 0 -179476 133077 0 -173914 129179 0 -168350 125324 0 -162783 121510 0 -157214 117737 0 -151641 114003 0 -146066 110306 0 -140488 106645 0 -134907 103019 0 -129323 99427.1 0 -123737 95867 0 -118147 92337.8 0 -112554 88838.2 0 -106958 85366.8 0 -101359 81922.4 0 -95756.9 78503.6 0 -90151.6 75109.1 0 -84543 71737.6 0 -78931.1 68387.8 0 -73316 65058.5 0 -67697.5 61748.4 0 -62075.6 58456 0 -56450.3 55180.3 0 -50821.6 51919.7 0 -45189.3 48673.2 0 -39553.5 45439.3 0 -33914.1 42216.9 0 -28271.1 39004.5 0 -22624.4 35801 0 -16974 32605 0 -11319.8 29415.2 0 -5661.84 26230.4 0 0 23049.2 0 6.98356e-08 1.39945e+06 0 -76807.9 1.43089e+06 0 -164833 1.4425e+06 0 -252864 1.43073e+06 0 -331448 1.40038e+06 0 -397009 1.3586e+06 0 -449680 1.31109e+06 0 -491056 1.26158e+06 0 -523031 1.21233e+06 0 -547381 1.1646e+06 0 -565615 1.11907e+06 0 -578975 1.07603e+06 0 -588453 1.03556e+06 0 -594842 997614 0 -598769 962073 0 -600729 928787 0 -601115 897592 0 -600241 868320 0 -598353 840814 0 -595651 814923 0 -592294 790509 0 -588410 767443 0 -584102 745611 0 -579454 724907 0 -574532 705238 0 -569393 686518 0 -564080 668670 0 -558631 651625 0 -553075 635320 0 -547437 619699 0 -541736 604711 0 -535989 590310 0 -530208 576455 0 -524406 563107 0 -518589 550232 0 -512767 537798 0 -506943 525778 0 -501123 514145 0 -495311 502876 0 -489508 491949 0 -483717 481343 0 -477941 471041 0 -472178 461025 0 -466432 451281 0 -460701 441793 0 -454987 432550 0 -449289 423538 0 -443606 414746 0 -437940 406164 0 -432288 397782 0 -426652 389591 0 -421029 381583 0 -415420 373750 0 -409823 366084 0 -404239 358579 0 -398666 351228 0 -393104 344026 0 -387551 336966 0 -382008 330044 0 -376474 323254 0 -370947 316592 0 -365427 310054 0 -359915 303634 0 -354407 297331 0 -348906 291138 0 -343409 285054 0 -337916 279075 0 -332427 273197 0 -326940 267417 0 -321457 261733 0 -315975 256142 0 -310496 250642 0 -305017 245228 0 -299540 239900 0 -294063 234655 0 -288586 229491 0 -283109 224405 0 -277632 219395 0 -272154 214460 0 -266675 209597 0 -261195 204804 0 -255713 200080 0 -250230 195423 0 -244745 190831 0 -239258 186302 0 -233768 181835 0 -228276 177427 0 -222782 173079 0 -217285 168787 0 -211785 164550 0 -206282 160367 0 -200776 156236 0 -195267 152156 0 -189755 148125 0 -184240 144142 0 -178721 140206 0 -173199 136315 0 -167673 132467 0 -162144 128661 0 -156611 124897 0 -151074 121171 0 -145534 117484 0 -139989 113834 0 -134441 110220 0 -128889 106639 0 -123333 103091 0 -117773 99575.3 0 -112209 96089.4 0 -106641 92632.4 0 -101068 89203 0 -95491.9 85799.8 0 -89911.2 82421.7 0 -84326.1 79067.3 0 -78736.7 75735.3 0 -73142.9 72424.4 0 -67544.6 69133.4 0 -61941.9 65861 0 -56334.6 62605.8 0 -50722.7 59366.6 0 -45106.2 56142.1 0 -39484.9 52931.1 0 -33859 49732.2 0 -28228.2 46544.2 0 -22592.5 43365.7 0 -16951.9 40195.6 0 -11306.3 37032.5 0 -5655.72 33875.2 0 0 30722.4 0 -1.15235e-07 1.34986e+06 0 -64670.6 1.37744e+06 0 -138719 1.3913e+06 0 -215626 1.38779e+06 0 -288199 1.368e+06 0 -351940 1.33627e+06 0 -405418 1.29714e+06 0 -448993 1.25424e+06 0 -483802 1.21004e+06 0 -511175 1.1661e+06 0 -532386 1.12338e+06 0 -548552 1.08241e+06 0 -560613 1.04343e+06 0 -569346 1.00656e+06 0 -575382 971775 0 -579231 939003 0 -581307 908143 0 -581941 879074 0 -581402 851670 0 -579906 825807 0 -577630 801366 0 -574717 778235 0 -571283 756308 0 -567424 735491 0 -563216 715694 0 -558723 696837 0 -553999 678848 0 -549087 661659 0 -544021 645211 0 -538832 629448 0 -533545 614321 0 -528178 599784 0 -522749 585797 0 -517271 572322 0 -511757 559324 0 -506215 546774 0 -500653 534641 0 -495078 522901 0 -489494 511529 0 -483906 500504 0 -478318 489805 0 -472732 479414 0 -467149 469315 0 -461573 459491 0 -456004 449928 0 -450443 440612 0 -444891 431533 0 -439348 422676 0 -433814 414034 0 -428290 405594 0 -422775 397349 0 -417269 389290 0 -411772 381408 0 -406284 373697 0 -400804 366149 0 -395332 358758 0 -389867 351517 0 -384409 344422 0 -378958 337466 0 -373512 330644 0 -368071 323953 0 -362636 317387 0 -357204 310942 0 -351777 304614 0 -346353 298399 0 -340931 292293 0 -335512 286294 0 -330095 280398 0 -324679 274602 0 -319265 268903 0 -313851 263298 0 -308438 257784 0 -303024 252359 0 -297611 247020 0 -292196 241765 0 -286781 236592 0 -281364 231499 0 -275945 226482 0 -270525 221541 0 -265103 216673 0 -259679 211876 0 -254252 207149 0 -248822 202489 0 -243390 197895 0 -237954 193366 0 -232516 188898 0 -227074 184491 0 -221628 180144 0 -216179 175854 0 -210726 171620 0 -205269 167440 0 -199809 163313 0 -194344 159238 0 -188875 155212 0 -183402 151235 0 -177925 147305 0 -172443 143421 0 -166957 139581 0 -161467 135784 0 -155971 132029 0 -150471 128313 0 -144967 124637 0 -139457 120998 0 -133943 117395 0 -128424 113827 0 -122900 110292 0 -117371 106789 0 -111837 103318 0 -106297 99875.7 0 -100753 96461.9 0 -95203.2 93075.2 0 -89648.3 89714.1 0 -84088 86377.4 0 -78522.3 83063.8 0 -72951.1 79772.1 0 -67374.4 76500.9 0 -61792.1 73249 0 -56204.2 70015.1 0 -50610.6 66798 0 -45011.2 63596.3 0 -39405.9 60408.9 0 -33794.8 57234.3 0 -28177.7 54071.4 0 -22554.5 50918.8 0 -16925.2 47775.4 0 -11289.8 44639.8 0 -5648.04 41510.7 0 0 38387 0 8.06294e-08 1.30706e+06 0 -55740 1.33144e+06 0 -119165 1.3458e+06 0 -186363 1.34709e+06 0 -252233 1.33493e+06 0 -312626 1.31146e+06 0 -365332 1.27996e+06 0 -409801 1.24348e+06 0 -446443 1.20446e+06 0 -476109 1.16458e+06 0 -499771 1.12498e+06 0 -518375 1.08639e+06 0 -532764 1.04922e+06 0 -543667 1.01368e+06 0 -551696 979887 0 -557361 947835 0 -561080 917487 0 -563198 888772 0 -563997 861601 0 -563708 835878 0 -562520 811507 0 -560589 788393 0 -558042 766443 0 -554987 745573 0 -551509 725701 0 -547681 706755 0 -543562 688664 0 -539202 671367 0 -534643 654806 0 -529919 638928 0 -525059 623686 0 -520086 609034 0 -515022 594934 0 -509882 581348 0 -504682 568243 0 -499431 555587 0 -494142 543354 0 -488821 531517 0 -483475 520051 0 -478111 508937 0 -472733 498152 0 -467345 487680 0 -461950 477502 0 -456551 467604 0 -451150 457970 0 -445748 448588 0 -440347 439444 0 -434949 430527 0 -429553 421827 0 -424161 413333 0 -418772 405037 0 -413388 396929 0 -408007 389001 0 -402631 381246 0 -397259 373657 0 -391891 366227 0 -386527 358950 0 -381167 351820 0 -375810 344832 0 -370455 337981 0 -365104 331261 0 -359754 324668 0 -354407 318198 0 -349061 311847 0 -343717 305610 0 -338373 299485 0 -333030 293467 0 -327687 287553 0 -322344 281741 0 -317000 276027 0 -311656 270408 0 -306310 264882 0 -300963 259446 0 -295614 254097 0 -290264 248833 0 -284911 243652 0 -279556 238551 0 -274198 233528 0 -268837 228582 0 -263472 223709 0 -258105 218909 0 -252734 214179 0 -247359 209517 0 -241981 204922 0 -236598 200392 0 -231211 195925 0 -225820 191519 0 -220425 187173 0 -215025 182886 0 -209620 178655 0 -204211 174479 0 -198796 170356 0 -193377 166286 0 -187953 162267 0 -182523 158296 0 -177088 154373 0 -171648 150497 0 -166203 146665 0 -160752 142877 0 -155295 139131 0 -149833 135426 0 -144366 131761 0 -138892 128133 0 -133413 124543 0 -127928 120987 0 -122437 117466 0 -116940 113978 0 -111437 110521 0 -105928 107095 0 -100412 103698 0 -94890.8 100328 0 -89362.9 96984.3 0 -83828.6 93666 0 -78287.9 90371.5 0 -72740.7 87099.6 0 -67186.9 83848.9 0 -61626.4 80618.3 0 -56059.2 77406.4 0 -50485.2 74212.1 0 -44904.3 71033.9 0 -39316.5 67870.7 0 -33721.6 64721.2 0 -28119.6 61584.1 0 -22510.4 58458.2 0 -16893.9 55342.2 0 -11270.1 52234.8 0 -5638.8 49134.8 0 0 46041 0 -9.96215e-09 1.26952e+06 0 -48858.7 1.29123e+06 0 -104055 1.3053e+06 0 -163102 1.30936e+06 0 -222466 1.30246e+06 0 -278731 1.28551e+06 0 -329546 1.26057e+06 0 -373805 1.23005e+06 0 -411348 1.19608e+06 0 -442569 1.16034e+06 0 -468126 1.12407e+06 0 -488753 1.08809e+06 0 -505169 1.05295e+06 0 -518027 1.01899e+06 0 -527898 986398 0 -535273 955256 0 -540565 925589 0 -544121 897375 0 -546229 870565 0 -547131 845094 0 -547024 820890 0 -546076 797877 0 -544423 775978 0 -542181 755118 0 -539443 735228 0 -536291 716239 0 -532790 698090 0 -528996 680722 0 -524957 664081 0 -520711 648117 0 -516291 632784 0 -511725 618040 0 -507037 603847 0 -502246 590168 0 -497370 576971 0 -492421 564225 0 -487413 551903 0 -482356 539980 0 -477258 528431 0 -472125 517236 0 -466965 506374 0 -461783 495827 0 -456582 485579 0 -451366 475612 0 -446139 465913 0 -440903 456468 0 -435659 447265 0 -430410 438292 0 -425157 429538 0 -419902 420993 0 -414644 412648 0 -409385 404494 0 -404125 396523 0 -398865 388727 0 -393605 381099 0 -388344 373632 0 -383084 366320 0 -377824 359158 0 -372564 352139 0 -367304 345259 0 -362044 338512 0 -356783 331894 0 -351522 325400 0 -346260 319026 0 -340998 312769 0 -335734 306625 0 -330469 300589 0 -325202 294659 0 -319933 288832 0 -314662 283104 0 -309388 277472 0 -304112 271934 0 -298833 266488 0 -293551 261129 0 -288266 255857 0 -282977 250668 0 -277685 245560 0 -272388 240532 0 -267088 235581 0 -261783 230704 0 -256474 225901 0 -251160 221169 0 -245841 216506 0 -240518 211910 0 -235189 207380 0 -229856 202913 0 -224517 198509 0 -219172 194166 0 -213822 189881 0 -208467 185654 0 -203106 181482 0 -197739 177365 0 -192366 173300 0 -186987 169287 0 -181602 165323 0 -176211 161408 0 -170813 157540 0 -165410 153717 0 -160000 149939 0 -154583 146203 0 -149160 142509 0 -143730 138855 0 -138294 135240 0 -132851 131662 0 -127401 128120 0 -121944 124613 0 -116481 121140 0 -111010 117699 0 -105532 114289 0 -100047 110908 0 -94554.7 107556 0 -89055.1 104231 0 -83548.1 100931 0 -78033.7 97656.6 0 -72511.7 94405.1 0 -66982.1 91175.6 0 -61444.7 87966.9 0 -55899.6 84777.7 0 -50346.6 81606.8 0 -44785.6 78452.8 0 -39216.5 75314.6 0 -33639.3 72190.8 0 -28053.9 69080.3 0 -22460.2 65981.7 0 -16858 62893.9 0 -11247.3 59815.6 0 -5628.01 56745.4 0 0 53682.2 0 3.6207e-09 1.23613e+06 0 -43386.1 1.25561e+06 0 -92046.6 1.26907e+06 0 -144330 1.27466e+06 0 -197763 1.27137e+06 0 -249681 1.25937e+06 0 -297913 1.23989e+06 0 -341122 1.21466e+06 0 -378761 1.18544e+06 0 -410850 1.15378e+06 0 -437744 1.12089e+06 0 -459963 1.08767e+06 0 -478076 1.05474e+06 0 -492641 1.02254e+06 0 -504171 991326 0 -513123 961263 0 -519892 932431 0 -524819 904857 0 -528192 878532 0 -530255 853423 0 -531212 829482 0 -531237 806654 0 -530474 784879 0 -529046 764096 0 -527054 744243 0 -524584 725263 0 -521710 707099 0 -518491 689699 0 -514981 673012 0 -511223 656992 0 -507254 641596 0 -503105 626784 0 -498803 612518 0 -494371 598765 0 -489829 585492 0 -485192 572671 0 -480474 560275 0 -475689 548278 0 -470845 536657 0 -465952 525391 0 -461018 514460 0 -456048 503847 0 -451047 493534 0 -446022 483506 0 -440974 473747 0 -435909 464246 0 -430828 454988 0 -425733 445963 0 -420628 437159 0 -415514 428567 0 -410391 420177 0 -405261 411980 0 -400126 403968 0 -394985 396134 0 -389840 388469 0 -384690 380968 0 -379537 373624 0 -374381 366431 0 -369221 359383 0 -364058 352475 0 -358892 345703 0 -353722 339061 0 -348550 332545 0 -343375 326150 0 -338196 319873 0 -333014 313711 0 -327828 307658 0 -322639 301713 0 -317447 295871 0 -312250 290130 0 -307049 284487 0 -301844 278938 0 -296635 273481 0 -291421 268114 0 -286203 262834 0 -280979 257638 0 -275751 252525 0 -270518 247491 0 -265279 242536 0 -260035 237656 0 -254785 232850 0 -249529 228116 0 -244268 223452 0 -239001 218856 0 -233728 214327 0 -228448 209862 0 -223162 205460 0 -217870 201119 0 -212572 196838 0 -207267 192614 0 -201955 188448 0 -196636 184336 0 -191311 180277 0 -185978 176271 0 -180639 172315 0 -175293 168408 0 -169939 164549 0 -164578 160736 0 -159210 156967 0 -153835 153242 0 -148452 149560 0 -143061 145918 0 -137663 142315 0 -132257 138751 0 -126844 135223 0 -121422 131731 0 -115993 128273 0 -110556 124848 0 -105110 121455 0 -99656.7 118092 0 -94194.9 114758 0 -88724.9 111451 0 -83246.5 108172 0 -77759.6 104917 0 -72264.1 101687 0 -66760 98479.1 0 -61247.1 95293 0 -55725.4 92127.1 0 -50194.7 88980.3 0 -44655 85851.2 0 -39106.2 82738.6 0 -33548.1 79641.3 0 -27980.7 76558 0 -22403.9 73487.5 0 -16817.5 70428.6 0 -11221.4 67379.9 0 -5615.66 64340.3 0 0 61308.6 0 -1.06477e-07 1.20615e+06 0 -38922.3 1.22374e+06 0 -82284.4 1.23645e+06 0 -128940 1.24286e+06 0 -177128 1.242e+06 0 -224808 1.23371e+06 0 -270117 1.21865e+06 0 -311699 1.19798e+06 0 -348794 1.17308e+06 0 -381145 1.1453e+06 0 -408854 1.11574e+06 0 -432233 1.08533e+06 0 -451701 1.05472e+06 0 -467706 1.02441e+06 0 -480691 994720 0 -491065 965880 0 -499196 938019 0 -505409 911212 0 -509984 885487 0 -513164 860842 0 -515155 837258 0 -516133 814698 0 -516248 793121 0 -515627 772478 0 -514379 752721 0 -512593 733801 0 -510349 715667 0 -507712 698275 0 -504738 681577 0 -501475 665533 0 -497964 650102 0 -494240 635246 0 -490333 620931 0 -486268 607123 0 -482068 593793 0 -477750 580913 0 -473331 568456 0 -468825 556398 0 -464244 544716 0 -459597 533390 0 -454895 522401 0 -450143 511729 0 -445350 501360 0 -440519 491277 0 -435658 481466 0 -430768 471913 0 -425855 462606 0 -420920 453533 0 -415967 444685 0 -410998 436049 0 -406014 427618 0 -401018 419381 0 -396011 411332 0 -390993 403462 0 -385966 395764 0 -380931 388230 0 -375888 380856 0 -370838 373634 0 -365781 366560 0 -360717 359627 0 -355648 352830 0 -350572 346166 0 -345491 339628 0 -340404 333214 0 -335311 326920 0 -330213 320740 0 -325110 314672 0 -320000 308712 0 -314885 302857 0 -309765 297104 0 -304638 291449 0 -299506 285890 0 -294368 280424 0 -289224 275049 0 -284074 269762 0 -278917 264560 0 -273755 259441 0 -268585 254404 0 -263410 249445 0 -258227 244562 0 -253038 239755 0 -247843 235019 0 -242640 230355 0 -237430 225760 0 -232213 221231 0 -226989 216768 0 -221758 212369 0 -216519 208031 0 -211273 203754 0 -206019 199536 0 -200758 195374 0 -195489 191268 0 -190212 187217 0 -184927 183218 0 -179634 179270 0 -174334 175371 0 -169025 171521 0 -163708 167718 0 -158383 163961 0 -153050 160247 0 -147708 156576 0 -142357 152947 0 -136999 149358 0 -131631 145808 0 -126255 142295 0 -120870 138818 0 -115477 135376 0 -110074 131967 0 -104662 128591 0 -99241.5 125246 0 -93811.5 121931 0 -88372.3 118644 0 -82923.7 115385 0 -77465.6 112151 0 -71997.9 108943 0 -66520.6 105757 0 -61033.5 102595 0 -55536.5 99452.7 0 -50029.6 96330.5 0 -44512.6 93227 0 -38985.4 90140.7 0 -33447.9 87070.5 0 -27899.9 84015.2 0 -22341.5 80973.4 0 -16772.4 77944.1 0 -11192.5 74925.9 0 -5601.75 71917.5 0 0 68917.9 0 1.28667e-07 1.179e+06 0 -35209.2 1.19497e+06 0 -74195.2 1.20691e+06 0 -116134 1.21369e+06 0 -159742 1.21447e+06 0 -203462 1.20894e+06 0 -245755 1.19738e+06 0 -285361 1.18055e+06 0 -321436 1.15949e+06 0 -353551 1.13528e+06 0 -381610 1.10893e+06 0 -405745 1.08129e+06 0 -426228 1.05305e+06 0 -443399 1.02471e+06 0 -457620 996652 0 -469244 969149 0 -478605 942376 0 -486002 916446 0 -491703 891426 0 -495943 867343 0 -498925 844202 0 -500827 821990 0 -501800 800682 0 -501973 780244 0 -501460 760640 0 -500354 741830 0 -498739 723773 0 -496684 706428 0 -494249 689757 0 -491486 673721 0 -488440 658283 0 -485147 643410 0 -481641 629068 0 -477950 615227 0 -474098 601859 0 -470106 588936 0 -465992 576433 0 -461772 564328 0 -457459 552598 0 -453065 541223 0 -448601 530184 0 -444074 519465 0 -439493 509047 0 -434863 498917 0 -430192 489059 0 -425484 479462 0 -420742 470112 0 -415972 460997 0 -411175 452108 0 -406356 443433 0 -401515 434965 0 -396656 426693 0 -391780 418609 0 -386889 410707 0 -381984 402978 0 -377066 395415 0 -372136 388013 0 -367195 380765 0 -362244 373665 0 -357282 366709 0 -352312 359890 0 -347333 353205 0 -342345 346648 0 -337348 340216 0 -332344 333904 0 -327332 327709 0 -322312 321627 0 -317284 315653 0 -312249 309786 0 -307206 304022 0 -302156 298357 0 -297098 292789 0 -292033 287315 0 -286960 281933 0 -281880 276639 0 -276791 271432 0 -271696 266309 0 -266592 261267 0 -261481 256305 0 -256362 251421 0 -251235 246612 0 -246100 241877 0 -240957 237212 0 -235805 232618 0 -230646 228091 0 -225478 223631 0 -220303 219235 0 -215118 214901 0 -209926 210628 0 -204724 206415 0 -199514 202260 0 -194296 198161 0 -189069 194116 0 -183833 190125 0 -178588 186186 0 -173334 182297 0 -168071 178457 0 -162800 174664 0 -157518 170918 0 -152228 167216 0 -146929 163558 0 -141620 159942 0 -136302 156366 0 -130974 152830 0 -125636 149332 0 -120289 145872 0 -114932 142446 0 -109565 139055 0 -104188 135697 0 -98801.6 132371 0 -93404.6 129075 0 -87997.4 125808 0 -82579.8 122569 0 -77151.8 119357 0 -71713.2 116171 0 -66264 113009 0 -60804 109870 0 -55333.2 106752 0 -49851.3 103656 0 -44358.4 100578 0 -38854.2 97519 0 -33338.6 94476.5 0 -27811.6 91449.8 0 -22273 88437.5 0 -16722.7 85438.4 0 -11160.5 82451.3 0 -5586.3 79474.9 0 0 76508.1 0 -1.40977e-07 1.15425e+06 0 -32070.8 1.16881e+06 0 -67385.4 1.17999e+06 0 -105332 1.18688e+06 0 -144957 1.18876e+06 0 -185064 1.18526e+06 0 -224402 1.17647e+06 0 -261857 1.16283e+06 0 -296593 1.14509e+06 0 -328084 1.12412e+06 0 -356098 1.10077e+06 0 -380623 1.07581e+06 0 -401801 1.04991e+06 0 -419867 1.02358e+06 0 -435099 997219 0 -447794 971136 0 -458240 945541 0 -466708 920584 0 -473446 896359 0 -478677 872925 0 -482599 850309 0 -485385 828520 0 -487186 807549 0 -488133 787378 0 -488340 767983 0 -487905 749334 0 -486913 731398 0 -485438 714143 0 -483542 697534 0 -481280 681538 0 -478700 666124 0 -475842 651260 0 -472741 636915 0 -469428 623062 0 -465930 609675 0 -462269 596727 0 -458466 584195 0 -454537 572056 0 -450499 560291 0 -446363 548879 0 -442141 537802 0 -437844 527043 0 -433481 516586 0 -429057 506417 0 -424581 496521 0 -420058 486885 0 -415494 477498 0 -410891 468347 0 -406255 459422 0 -401589 450714 0 -396896 442212 0 -392177 433909 0 -387437 425795 0 -382675 417863 0 -377895 410106 0 -373097 402517 0 -368283 395089 0 -363454 387817 0 -358611 380695 0 -353754 373717 0 -348886 366879 0 -344005 360175 0 -339112 353601 0 -334209 347152 0 -329295 340825 0 -324371 334615 0 -319436 328520 0 -314492 322534 0 -309538 316656 0 -304575 310882 0 -299602 305208 0 -294621 299632 0 -289630 294151 0 -284629 288762 0 -279620 283463 0 -274602 278251 0 -269574 273124 0 -264538 268080 0 -259492 263116 0 -254437 258230 0 -249373 253421 0 -244300 248686 0 -239218 244022 0 -234127 239430 0 -229026 234905 0 -223916 230448 0 -218797 226056 0 -213668 221726 0 -208530 217459 0 -203383 213251 0 -198225 209103 0 -193059 205011 0 -187882 200974 0 -182696 196991 0 -177500 193061 0 -172294 189182 0 -167078 185352 0 -161853 181571 0 -156617 177836 0 -151371 174147 0 -146115 170502 0 -140848 166899 0 -135571 163338 0 -130284 159817 0 -124987 156335 0 -119678 152891 0 -114359 149482 0 -109029 146109 0 -103689 142770 0 -98336.9 139462 0 -92974.1 136186 0 -87600.2 132940 0 -82214.9 129723 0 -76818.2 126533 0 -71410.1 123370 0 -65990.3 120231 0 -60558.7 117117 0 -55115.3 114025 0 -49659.9 110954 0 -44192.4 107903 0 -38712.6 104871 0 -33220.4 101857 0 -27715.8 98859.8 0 -22198.5 95877.6 0 -16668.4 92909.4 0 -11125.4 89954.1 0 -5569.29 87010.4 0 0 84077.1 0 1.68173e-07 1.13156e+06 0 -29382.2 1.14489e+06 0 -61575.3 1.15534e+06 0 -96112.8 1.16217e+06 0 -132270 1.16478e+06 0 -169119 1.16279e+06 0 -205651 1.15615e+06 0 -240909 1.14513e+06 0 -274108 1.13024e+06 0 -304694 1.11214e+06 0 -332345 1.09154e+06 0 -356944 1.06913e+06 0 -378525 1.0455e+06 0 -397227 1.02116e+06 0 -413252 996531 0 -426833 971921 0 -438212 947573 0 -447628 923662 0 -455305 900311 0 -461451 877601 0 -466251 855583 0 -469874 834284 0 -472466 813715 0 -474159 793870 0 -475065 774737 0 -475286 756298 0 -474907 738528 0 -474004 721402 0 -472642 704892 0 -470880 688971 0 -468766 673610 0 -466343 658781 0 -463650 644458 0 -460719 630616 0 -457578 617229 0 -454252 604274 0 -450763 591728 0 -447131 579572 0 -443371 567785 0 -439497 556348 0 -435524 545244 0 -431461 534456 0 -427319 523969 0 -423106 513769 0 -418829 503842 0 -414496 494176 0 -410112 484757 0 -405682 475576 0 -401210 466622 0 -396701 457884 0 -392158 449354 0 -387584 441023 0 -382981 432883 0 -378352 424925 0 -373700 417144 0 -369025 409532 0 -364330 402082 0 -359616 394789 0 -354883 387646 0 -350134 380650 0 -345369 373793 0 -340589 367072 0 -335794 360482 0 -330986 354019 0 -326164 347678 0 -321329 341456 0 -316483 335348 0 -311624 329352 0 -306753 323464 0 -301871 317681 0 -296978 311999 0 -292073 306416 0 -287158 300929 0 -282232 295535 0 -277295 290231 0 -272348 285016 0 -267390 279886 0 -262422 274840 0 -257443 269874 0 -252454 264988 0 -247455 260179 0 -242445 255444 0 -237425 250783 0 -232395 246193 0 -227354 241671 0 -222303 237218 0 -217241 232830 0 -212169 228506 0 -207087 224244 0 -201994 220043 0 -196890 215901 0 -191776 211817 0 -186652 207788 0 -181516 203815 0 -176370 199894 0 -171214 196025 0 -166046 192207 0 -160867 188437 0 -155678 184714 0 -150477 181038 0 -145266 177407 0 -140043 173818 0 -134809 170272 0 -129563 166767 0 -124306 163301 0 -119038 159874 0 -113758 156483 0 -108466 153128 0 -103163 149808 0 -97847.6 146520 0 -92520.2 143265 0 -87180.7 140040 0 -81829 136845 0 -76464.9 133678 0 -71088.4 130537 0 -65699.3 127423 0 -60297.5 124333 0 -54882.9 121267 0 -49455.3 118223 0 -44014.6 115200 0 -38560.6 112196 0 -33093.3 109211 0 -27612.4 106243 0 -22117.9 103292 0 -16609.5 100355 0 -11087.2 97432.2 0 -5550.74 94521.8 0 0 91622.7 0 -1.32779e-07 1.11065e+06 0 -27053.3 1.1229e+06 0 -56560.9 1.13267e+06 0 -88159.6 1.13934e+06 0 -121288 1.14242e+06 0 -155218 1.14154e+06 0 -189135 1.13659e+06 0 -222230 1.1277e+06 0 -253795 1.11522e+06 0 -283283 1.09963e+06 0 -310328 1.08152e+06 0 -334