<?xml version="1.0"?> 
<VTKFile type="StructuredGrid" version="0.1"> 
<StructuredGrid WholeExtent="0 15 0 15 0 0"> 
<Piece Extent="0 15 0 15 0 0"> 
<PointData>
<DataArray type="Float32" Name="|E|" format="ascii" NumberOfComponents="3"> 
-1.66514e+06 0 0 -1.69182e+06 -59702.5 0 -1.77385e+06 -105298 0 -1.89044e+06 -108785 0 -1.99698e+06 -70589.9 0 -2.07605e+06 -18118.5 0 -2.1309e+06 36031.1 0 -2.16533e+06 89744.4 0 -2.17977e+06 144151 0 -2.17149e+06 199576 0 -2.1344e+06 252010 0 -2.06502e+06 280698 0 -1.99016e+06 256392 0 -1.94689e+06 186914 0 -1.95624e+06 76557.1 0 -2.0051e+06 4.05312e-06 0 -1.67102e+06 0 0 -1.69723e+06 -54379.7 0 -1.77645e+06 -94905.9 0 -1.88833e+06 -97137.3 0 -1.99225e+06 -61377.2 0 -2.07075e+06 -11508.8 0 -2.12562e+06 40456.9 0 -2.16005e+06 92205.4 0 -2.17438e+06 144526 0 -2.1661e+06 197457 0 -2.13e+06 246684 0 -2.06448e+06 272895 0 -1.99499e+06 250591 0 -1.95593e+06 184650 0 -1.96699e+06 80902.8 0 -2.00895e+06 -3.65078e-07 0 -1.67637e+06 0 0 -1.70209e+06 -49170.8 0 -1.77869e+06 -84926.5 0 -1.88634e+06 -85895.8 0 -1.98779e+06 -52286.1 0 -2.06569e+06 -4914.21 0 -2.12054e+06 44888 0 -2.15496e+06 94659.7 0 -2.16921e+06 144891 0 -2.16099e+06 195365 0 -2.12591e+06 241569 0 -2.06401e+06 265629 0 -1.99947e+06 245194 0 -1.96447e+06 182837 0 -1.97728e+06 85006.6 0 -2.01456e+06 -5.40167e-08 0 -1.6812e+06 0 0 -1.70643e+06 -44077.3 0 -1.78061e+06 -75320.3 0 -1.88443e+06 -75023.7 0 -1.98358e+06 -43316.9 0 -2.06086e+06 1662.02 0 -2.11567e+06 49322.2 0 -2.15007e+06 97108.6 0 -2.16426e+06 145250 0 -2.15615e+06 193304 0 -2.12211e+06 236661 0 -2.06359e+06 258852 0 -2.00364e+06 240191 0 -1.97253e+06 181442 0 -1.98719e+06 88954.3 0 -2.02164e+06 4.19095e-08 0 -1.68551e+06 0 0 -1.71026e+06 -39097.7 0 -1.78221e+06 -66051.1 0 -1.88259e+06 -64486.1 0 -1.9796e+06 -34467.9 0 -2.05625e+06 8217.28 0 -2.11099e+06 53757.7 0 -2.14538e+06 99553.3 0 -2.15954e+06 145607 0 -2.15158e+06 191280 0 -2.11858e+06 231953 0 -2.06319e+06 252518 0 -2.00749e+06 235570 0 -1.98011e+06 180437 0 -1.99681e+06 92833 0 -2.03e+06 -7.63685e-08 0 -1.68934e+06 0 0 -1.7136e+06 -34228.5 0 -1.78351e+06 -57085.5 0 -1.88081e+06 -54250.6 0 -1.97583e+06 -25735.5 0 -2.05187e+06 14749.6 0 -2.10652e+06 58192.9 0 -2.14089e+06 101995 0 -2.15503e+06 145965 0 -2.14725e+06 189298 0 -2.11529e+06 227438 0 -2.0628e+06 246588 0 -2.01104e+06 231317 0 -1.98723e+06 179802 0 -2.00618e+06 96727 0 -2.03957e+06 5.58794e-08 0 -1.69267e+06 0 0 -1.71648e+06 -29464.7 0 -1.78453e+06 -48392.7 0 -1.87906e+06 -44287.2 0 -1.97227e+06 -17114.9 0 -2.0477e+06 21257.4 0 -2.10225e+06 62626.6 0 -2.13661e+06 104434 0 -2.15075e+06 146326 0 -2.14318e+06 187359 0 -2.11223e+06 223106 0 -2.06242e+06 241026 0 -2.01429e+06 227414 0 -1.9939e+06 179521 0 -2.01531e+06 100715 0 -2.05037e+06 -7.45058e-08 0 -1.69552e+06 0 0 -1.7189e+06 -24800 0 -1.78526e+06 -39943.7 0 -1.87734e+06 -34567.5 0 -1.9689e+06 -8599.9 0 -2.04375e+06 27740.1 0 -2.09817e+06 67057.7 0 -2.13252e+06 106872 0 -2.14668e+06 146693 0 -2.13934e+06 185466 0 -2.10936e+06 218946 0 -2.06203e+06 235801 0 -2.01725e+06 223840 0 -2.00013e+06 179585 0 -2.02421e+06 104868 0 -2.06251e+06 1.63913e-07 0 -1.6979e+06 0 0 -1.72088e+06 -20227.1 0 -1.78573e+06 -31711.5 0 -1.87564e+06 -25065 0 -1.9657e+06 -183.711 0 -2.04e+06 34197.3 0 -2.0943e+06 71485.4 0 -2.12863e+06 109310 0 -2.14282e+06 147068 0 -2.13573e+06 183621 0 -2.10669e+06 214945 0 -2.06162e+06 230886 0 -2.01993e+06 220571 0 -2.00593e+06 179997 0 -2.03286e+06 109245 0 -2.0762e+06 -1.04308e-07 0 -1.69982e+06 0 0 -1.72243e+06 -15738.2 0 -1.78594e+06 -23670.5 0 -1.87395e+06 -15754.5 0 -1.96267e+06 8141.32 0 -2.03645e+06 40629.2 0 -2.09063e+06 75909.1 0 -2.12495e+06 111748 0 -2.13917e+06 147451 0 -2.13234e+06 181825 0 -2.1042e+06 211089 0 -2.06118e+06 226258 0 -2.02231e+06 217574 0 -2.01131e+06 180769 0 -2.04122e+06 113885 0 -2.09181e+06 8.19564e-08 0 -1.70128e+06 0 0 -1.72355e+06 -11324.8 0 -1.7859e+06 -15796.3 0 -1.87226e+06 -6611.82 0 -1.95981e+06 16383.3 0 -2.0331e+06 47036.6 0 -2.08716e+06 80328 0 -2.12146e+06 114188 0 -2.13574e+06 147843 0 -2.12917e+06 180081 0 -2.10186e+06 207359 0 -2.06071e+06 221902 0 -2.02441e+06 214808 0 -2.01627e+06 181932 0 -2.04918e+06 118798 0 -2.10987e+06 -1.04308e-07 0 -1.70229e+06 0 0 -1.72427e+06 -6978.35 0 -1.78561e+06 -8065.44 0 -1.87057e+06 2385.98 0 -1.95709e+06 24551 0 -2.02995e+06 53420.5 0 -2.08388e+06 84741.6 0 -2.11818e+06 116632 0 -2.13252e+06 148242 0 -2.12621e+06 178393 0 -2.09969e+06 203734 0 -2.06019e+06 217811 0 -2.02621e+06 212215 0 -2.02083e+06 183548 0 -2.05662e+06 123947 0 -2.13119e+06 1.19209e-07 0 -1.70285e+06 0 0 -1.72458e+06 -2689.73 0 -1.78508e+06 -455.561 0 -1.86887e+06 11261.1 0 -1.95452e+06 32653.1 0 -2.02699e+06 59782.6 0 -2.0808e+06 89149.1 0 -2.11509e+06 119082 0 -2.12951e+06 148647 0 -2.12345e+06 176767 0 -2.09766e+06 200183 0 -2.0596e+06 213996 0 -2.02772e+06 209710 0 -2.025e+06 185720 0 -2.06333e+06 129221 0 -2.15692e+06 -2.98023e-08 0 -1.70298e+06 0 0 -1.72449e+06 1550.14 0 -1.78431e+06 7055.19 0 -1.86716e+06 20034.9 0 -1.9521e+06 40698.9 0 -2.02422e+06 66124.6 0 -2.07792e+06 93549.4 0 -2.11219e+06 121541 0 -2.12671e+06 149050 0 -2.12089e+06 175215 0 -2.09578e+06 196665 0 -2.05894e+06 210487 0 -2.02895e+06 207169 0 -2.02881e+06 188623 0 -2.069e+06 134393 0 -2.18879e+06 -1.3411e-07 0 -1.70267e+06 0 0 -1.72402e+06 5750.42 0 -1.78331e+06 14488.2 0 -1.86543e+06 28728.4 0 -1.94981e+06 48697.6 0 -2.02163e+06 72449 0 -2.07524e+06 97940.7 0 -2.10949e+06 124015 0 -2.12413e+06 149443 0 -2.1185e+06 173759 0 -2.09407e+06 193118 0 -2.05818e+06 207352 0 -2.02988e+06 204401 0 -2.03231e+06 192547 0 -2.07319e+06 139054 0 -2.22928e+06 8.9407e-08 0 -1.70193e+06 0 0 -1.72315e+06 9920.04 0 -1.78207e+06 21864.4 0 -1.86369e+06 37361.7 0 -1.94765e+06 56658.6 0 -2.01923e+06 78758.4 0 -2.07276e+06 102320 0 -2.10696e+06 126512 0 -2.12178e+06 149807 0 -2.11626e+06 172435 0 -2.09253e+06 189454 0 -2.05728e+06 204715 0 -2.03054e+06 201118 0 -2.03557e+06 197944 0 -2.07526e+06 142527 0 -2.28205e+06 -4.76837e-07 0 </DataArray> 
</PointData> 
<Points> 
<DataArray type="Float32" NumberOfComponents="3"> 
0 0.035 0 0.00666667 0.035 0 0.0133333 0.035 0 0.02 0.035 0 0.0266667 0.035 0 0.0333333 0.035 0 0.04 0.035 0 0.0466667 0.035 0 0.0533333 0.035 0 0.06 0.035 0 0.0666667 0.035 0 0.0733333 0.035 0 0.08 0.035 0 0.0866667 0.035 0 0.0933333 0.035 0 0.1 0.035 0 0 0.0356667 0 0.00666667 0.0356667 0 0.0133333 0.0356667 0 0.02 0.0356667 0 0.0266667 0.0356667 0 0.0333333 0.0356667 0 0.04 0.0356667 0 0.0466667 0.0356667 0 0.0533333 0.0356667 0 0.06 0.0356667 0 0.0666667 0.0356667 0 0.0733333 0.0356667 0 0.08 0.0356667 0 0.0866667 0.0356667 0 0.0933333 0.0356667 0 0.1 0.0356667 0 0 0.0363333 0 0.00666667 0.0363333 0 0.0133333 0.0363333 0 0.02 0.0363333 0 0.0266667 0.0363333 0 0.0333333 0.0363333 0 0.04 0.0363333 0 0.0466667 0.0363333 0 0.0533333 0.0363333 0 0.06 0.0363333 0 0.0666667 0.0363333 0 0.0733333 0.0363333 0 0.08 0.0363333 0 0.0866667 0.0363333 0 0.0933333 0.0363333 0 0.1 0.0363333 0 0 0.037 0 0.00666667 0.037 0 0.0133333 0.037 0 0.02 0.037 0 0.0266667 0.037 0 0.0333333 0.037 0 0.04 0.037 0 0.0466667 0.037 0 0.0533333 0.037 0 0.06 0.037 0 0.0666667 0.037 0 0.0733333 0.037 0 0.08 0.037 0 0.0866667 0.037 0 0.0933333 0.037 0 0.1 0.037 0 0 0.0376667 0 0.00666667 0.0376667 0 0.0133333 0.0376667 0 0.02 0.0376667 0 0.0266667 0.0376667 0 0.0333333 0.0376667 0 0.04 0.0376667 0 0.0466667 0.0376667 0 0.0533333 0.0376667 0 0.06 0.0376667 0 0.0666667 0.0376667 0 0.0733333 0.0376667 0 0.08 0.0376667 0 0.0866667 0.0376667 0 0.0933333 0.0376667 0 0.1 0.0376667 0 0 0.0383333 0 0.00666667 0.0383333 0 0.0133333 0.0383333 0 0.02 0.0383333 0 0.0266667 0.0383333 0 0.0333333 0.0383333 0 0.04 0.0383333 0 0.0466667 0.0383333 0 0.0533333 0.0383333 0 0.06 0.0383333 0 0.0666667 0.0383333 0 0.0733333 0.0383333 0 0.08 0.0383333 0 0.0866667 0.0383333 0 0.0933333 0.0383333 0 0.1 0.0383333 0 0 0.039 0 0.00666667 0.039 0 0.0133333 0.039 0 0.02 0.039 0 0.0266667 0.039 0 0.0333333 0.039 0 0.04 0.039 0 0.0466667 0.039 0 0.0533333 0.039 0 0.06 0.039 0 0.0666667 0.039 0 0.0733333 0.039 0 0.08 0.039 0 0.0866667 0.039 0 0.0933333 0.039 0 0.1 0.039 0 0 0.0396667 0 0.00666667 0.0396667 0 0.0133333 0.0396667 0 0.02 0.0396667 0 0.0266667 0.0396667 0 0.0333333 0.0396667 0 0.04 0.0396667 0 0.0466667 0.0396667 0 0.0533333 0.0396667 0 0.06 0.0396667 0 0.0666667 0.0396667 0 0.0733333 0.0396667 0 0.08 0.0396667 0 0.0866667 0.0396667 0 0.0933333 0.0396667 0 0.1 0.0396667 0 0 0.0403333 0 0.00666667 0.0403333 0 0.0133333 0.0403333 0 0.02 0.0403333 0 0.0266667 0.0403333 0 0.0333333 0.0403333 0 0.04 0.0403333 0 0.0466667 0.0403333 0 0.0533333 0.0403333 0 0.06 0.0403333 0 0.0666667 0.0403333 0 0.0733333 0.0403333 0 0.08 0.0403333 0 0.0866667 0.0403333 0 0.0933333 0.0403333 0 0.1 0.0403333 0 0 0.041 0 0.00666667 0.041 0 0.0133333 0.041 0 0.02 0.041 0 0.0266667 0.041 0 0.0333333 0.041 0 0.04 0.041 0 0.0466667 0.041 0 0.0533333 0.041 0 0.06 0.041 0 0.0666667 0.041 0 0.0733333 0.041 0 0.08 0.041 0 0.0866667 0.041 0 0.0933333 0.041 0 0.1 0.041 0 0 0.0416667 0 0.00666667 0.0416667 0 0.0133333 0.0416667 0 0.02 0.0416667 0 0.0266667 0.0416667 0 0.0333333 0.0416667 0 0.04 0.0416667 0 0.0466667 0.0416667 0 0.0533333 0.0416667 0 0.06 0.0416667 0 0.0666667 0.0416667 0 0.0733333 0.0416667 0 0.08 0.0416667 0 0.0866667 0.0416667 0 0.0933333 0.0416667 0 0.1 0.0416667 0 0 0.0423333 0 0.00666667 0.0423333 0 0.0133333 0.0423333 0 0.02 0.0423333 0 0.0266667 0.0423333 0 0.0333333 0.0423333 0 0.04 0.0423333 0 0.0466667 0.0423333 0 0.0533333 0.0423333 0 0.06 0.0423333 0 0.0666667 0.0423333 0 0.0733333 0.0423333 0 0.08 0.0423333 0 0.0866667 0.0423333 0 0.0933333 0.0423333 0 0.1 0.0423333 0 0 0.043 0 0.00666667 0.043 0 0.0133333 0.043 0 0.02 0.043 0 0.0266667 0.043 0 0.0333333 0.043 0 0.04 0.043 0 0.0466667 0.043 0 0.0533333 0.043 0 0.06 0.043 0 0.0666667 0.043 0 0.0733333 0.043 0 0.08 0.043 0 0.0866667 0.043 0 0.0933333 0.043 0 0.1 0.043 0 0 0.0436667 0 0.00666667 0.0436667 0 0.0133333 0.0436667 0 0.02 0.0436667 0 0.0266667 0.0436667 0 0.0333333 0.0436667 0 0.04 0.0436667 0 0.0466667 0.0436667 0 0.0533333 0.0436667 0 0.06 0.0436667 0 0.0666667 0.0436667 0 0.0733333 0.0436667 0 0.08 0.0436667 0 0.0866667 0.0436667 0 0.0933333 0.0436667 0 0.1 0.0436667 0 0 0.0443333 0 0.00666667 0.0443333 0 0.0133333 0.0443333 0 0.02 0.0443333 0 0.0266667 0.0443333 0 0.0333333 0.0443333 0 0.04 0.0443333 0 0.0466667 0.0443333 0 0.0533333 0.0443333 0 0.06 0.0443333 0 0.0666667 0.0443333 0 0.0733333 0.0443333 0 0.08 0.0443333 0 0.0866667 0.0443333 0 0.0933333 0.0443333 0 0.1 0.0443333 0 0 0.045 0 0.00666667 0.045 0 0.0133333 0.045 0 0.02 0.045 0 0.0266667 0.045 0 0.0333333 0.045 0 0.04 0.045 0 0.0466667 0.045 0 0.0533333 0.045 0 0.06 0.045 0 0.0666667 0.045 0 0.0733333 0.045 0 0.08 0.045 0 0.0866667 0.045 0 0.0933333 0.045 0 0.1 0.045 0 
</DataArray>
</Points> 
</Piece> 
</StructuredGrid> 
</VTKFile> 
