<?xml version="1.0"?> 
<VTKFile type="StructuredGrid" version="0.1"> 
<StructuredGrid WholeExtent="0 15 0 15 0 0"> 
<Piece Extent="0 15 0 15 0 0"> 
<PointData>
<DataArray type="Float32" Name="|E|" format="ascii" NumberOfComponents="3"> 
0 0 0 0 -26743.4 0 0 -53345.9 0 0 -79660.7 0 0 -105529 0 0 -130772 0 0 -155180 0 0 -178500 0 0 -200408 0 0 -220491 0 0 -238130 0 0 -251951 0 0 -260568 0 0 -267669 0 0 -268206 0 0 0 0 -22318.7 0 0 -22247.1 -29762.4 0 -22028.4 -59333.7 0 -21651.5 -88513.4 0 -21096 -117081 0 -20329.3 -144781 0 -19301.7 -171307 0 -17933.9 -196273 0 -16100.8 -219166 0 -13579.4 -239271 0 -9974.17 -255530 0 -4413.74 -265877 0 6304.18 -266683 0 33149.2 -258315 0 90826.8 -262093 0 142867 -285734 0 -44717.7 0 0 -44546.5 -32908.6 0 -44022.5 -65572.9 0 -43113.9 -97735 0 -41761.2 -129107 0 -39868.6 -159353 0 -37281.7 -188059 0 -33751.5 -214695 0 -28849.9 -238547 0 -21781.8 -258640 0 -10858 -273542 0 7870.86 -282305 0 41192.8 -288696 0 90929.5 -305821 0 139484 -335229 0 187126 -374252 0 -67274.7 0 0 -66975.9 -36208.9 0 -66058.4 -72122 0 -64457.4 -107426 0 -62052.2 -141771 0 -58641.8 -174746 0 -53899.4 -205850 0 -47278.7 -234457 0 -37818.9 -259815 0 -23737.4 -281134 0 -1797.3 -298559 0 31987.1 -315529 0 77301.8 -339880 0 125185 -373565 0 173731 -410466 0 223933 -447866 0 -90063.6 0 0 -89610.3 -39685.6 0 -88214.6 -79031.5 0 -85765.9 -117679 0 -82056.3 -155229 0 -76737.9 -191226 0 -69239.4 -225141 0 -58610.6 -256407 0 -43256.7 -284578 0 -20663.2 -310032 0 11915.6 -335307 0 54534 -365475 0 102463 -402944 0 153462 -444110 0 208281 -489101 0 267610 -535220 0 -113152 0 0 -112520 -43355.5 0 -110571 -86340.4 0 -107134 -128567 0 -101893 -169618 0 -94315.9 -209039 0 -83545.5 -246383 0 -68223.4 -281346 0 -46346.4 -314238 0 -15702.2 -346806 0 24444.5 -382569 0 71732.9 -424273 0 124002 -470651 0 181247 -521527 0 244154 -574320 0 314817 -629634 0 -136600 0 0 -135770 -47228.8 0 -133204 -94075.3 0 -128664 -140147 0 -121706 -185044 0 -111600 -228386 0 -97213.6 -269921 0 -76906 -309825 0 -48758.5 -349249 0 -11532.5 -390703 0 33961.5 -436976 0 86035.6 -488513 0 144256 -545234 0 209403 -605510 0 283498 -669508 0 368035 -736070 0 -160460 0 0 -159418 -51310.3 0 -156189 -102249 0 -150462 -152451 0 -141660 -201577 0 -128863 -249392 0 -110723 -295953 0 -85550.4 -341983 0 -51843.6 -389247 0 -9344.49 -440282 0 40969.5 -496663 0 98487.2 -558950 0 163894 -626494 0 239226 -699230 0 326671 -776193 0 428259 -856518 0 -184775 0 0 -183511 -55598.3 0 -179592 -110864 0 -172630 -165488 0 -161923 -219244 0 -146387 -272106 0 -124565 -324502 0 -94889.2 -377635 0 -56410.5 -433586 0 -9339.07 -494459 0 45761.5 -561667 0 109325 -635641 0 183434 -716660 0 271059 -804027 0 374973 -896192 0 495661 -991321 0 -209577 0 0 -208089 -60086.6 0 -203472 -119907 0 -195267 -179246 0 -182659 -238032 0 -164449 -296501 0 -139155 -355457 0 -105448 -416470 0 -62828.4 -481631 0 -11628.4 -552954 0 48207.1 -631991 0 118505 -720014 0 203051 -817202 0 306148 -921722 0 429542 -1.02964e+06 0 568832 -1.13766e+06 0 -234892 0 0 -233183 -64764.3 0 -227880 -129358 0 -218460 -193694 0 -204018 -257895 0 -183286 -322494 0 -154823 -388647 0 -117551 -458122 0 -71332 -533010 0 -16526.9 -615561 0 47846.6 -708383 0 125752 -813532 0 223669 -930200 0 346550 -1.05287e+06 0 491594 -1.17285e+06 0 642618 -1.28524e+06 0 -260735 0 0 -258814 -69616.8 0 -252856 -139188 0 -242283 -208785 0 -226131 -278761 0 -203103 -349968 0 -171807 -423869 0 -131398 -502287 0 -82197.8 -587360 0 -24652 -682382 0 43856.2 -791906 0 131204 -918475 0 247530 -1.05738e+06 0 395912 -1.19515e+06 0 561631 -1.31557e+06 0 706525 -1.41305e+06 0 -287115 0 0 -284996 -74626.9 0 -278430 -149361 0 -266798 -224461 0 -249108 -300536 0 -224067 -378793 0 -190268 -460940 0 -147117 -548639 0 -95853 -644322 0 -37097.3 -753693 0 35271 -884494 0 136128 -1.0378e+06 0 279368 -1.19914e+06 0 459641 -1.34092e+06 0 638212 -1.4377e+06 0 743604 -1.48721e+06 0 -314030 0 0 -311733 -79775.1 0 -304622 -159835 0 -292052 -240653 0 -273043 -323115 0 -246324 -408840 0 -210287 -499701 0 -164778 -596780 0 -113051 -703392 0 -55585.4 -830260 0 21407.9 -989364 0 144243 -1.17494e+06 0 327460 -1.35263e+06 0 544293 -1.47407e+06 0 716065 -1.50777e+06 0 731698 -1.4634e+06 0 -341475 0 0 -339024 -85040.9 0 -331445 -170567 0 -318075 -257288 0 -298013 -346376 0 -270014 -440005 0 -231835 -540026 0 -184396 -646081 0 -135153 -763903 0 -82614.8 -913881 0 2818.18 -1.11162e+06 0 163413 -1.33275e+06 0 404124 -1.5087e+06 0 655565 -1.56765e+06 0 784008 -1.48505e+06 0 648133 -1.29627e+06 0 -369434 0 0 -366858 -90404.1 0 -358904 -181509 0 -344882 -274293 0 -324093 -370183 0 -295300 -472237 0 -254675 -581824 0 -205981 -695474 0 -164635 -825076 0 -121379 -1.00819e+06 0 -16973.3 -1.25855e+06 0 207492 -1.51187e+06 0 524743 -1.64931e+06 0 794383 -1.58417e+06 0 823548 -1.3271e+06 0 478181 -956361 0 </DataArray> 
</PointData> 
<Points> 
<DataArray type="Float32" NumberOfComponents="3"> 
0 0.016 0 0.0004 0.016 0 0.0008 0.016 0 0.0012 0.016 0 0.0016 0.016 0 0.002 0.016 0 0.0024 0.016 0 0.0028 0.016 0 0.0032 0.016 0 0.0036 0.016 0 0.004 0.016 0 0.0044 0.016 0 0.0048 0.016 0 0.0052 0.016 0 0.0056 0.016 0 0.006 0.016 0 0 0.0163333 0 0.000444444 0.0163333 0 0.000888889 0.0163333 0 0.00133333 0.0163333 0 0.00177778 0.0163333 0 0.00222222 0.0163333 0 0.00266667 0.0163333 0 0.00311111 0.0163333 0 0.00355556 0.0163333 0 0.004 0.0163333 0 0.00444444 0.0163333 0 0.00488889 0.0163333 0 0.00533333 0.0163333 0 0.00577778 0.0163333 0 0.00622222 0.0163333 0 0.00666667 0.0163333 0 0 0.0166667 0 0.000488889 0.0166667 0 0.000977778 0.0166667 0 0.00146667 0.0166667 0 0.00195556 0.0166667 0 0.00244444 0.0166667 0 0.00293333 0.0166667 0 0.00342222 0.0166667 0 0.00391111 0.0166667 0 0.0044 0.0166667 0 0.00488889 0.0166667 0 0.00537778 0.0166667 0 0.00586667 0.0166667 0 0.00635556 0.0166667 0 0.00684444 0.0166667 0 0.00733333 0.0166667 0 0 0.017 0 0.000533333 0.017 0 0.00106667 0.017 0 0.0016 0.017 0 0.00213333 0.017 0 0.00266667 0.017 0 0.0032 0.017 0 0.00373333 0.017 0 0.00426667 0.017 0 0.0048 0.017 0 0.00533333 0.017 0 0.00586667 0.017 0 0.0064 0.017 0 0.00693333 0.017 0 0.00746667 0.017 0 0.008 0.017 0 0 0.0173333 0 0.000577778 0.0173333 0 0.00115556 0.0173333 0 0.00173333 0.0173333 0 0.00231111 0.0173333 0 0.00288889 0.0173333 0 0.00346667 0.0173333 0 0.00404444 0.0173333 0 0.00462222 0.0173333 0 0.0052 0.0173333 0 0.00577778 0.0173333 0 0.00635556 0.0173333 0 0.00693333 0.0173333 0 0.00751111 0.0173333 0 0.00808889 0.0173333 0 0.00866667 0.0173333 0 0 0.0176667 0 0.000622222 0.0176667 0 0.00124444 0.0176667 0 0.00186667 0.0176667 0 0.00248889 0.0176667 0 0.00311111 0.0176667 0 0.00373333 0.0176667 0 0.00435556 0.0176667 0 0.00497778 0.0176667 0 0.0056 0.0176667 0 0.00622222 0.0176667 0 0.00684444 0.0176667 0 0.00746667 0.0176667 0 0.00808889 0.0176667 0 0.00871111 0.0176667 0 0.00933333 0.0176667 0 0 0.018 0 0.000666667 0.018 0 0.00133333 0.018 0 0.002 0.018 0 0.00266667 0.018 0 0.00333333 0.018 0 0.004 0.018 0 0.00466667 0.018 0 0.00533333 0.018 0 0.006 0.018 0 0.00666667 0.018 0 0.00733333 0.018 0 0.008 0.018 0 0.00866667 0.018 0 0.00933333 0.018 0 0.01 0.018 0 0 0.0183333 0 0.000711111 0.0183333 0 0.00142222 0.0183333 0 0.00213333 0.0183333 0 0.00284444 0.0183333 0 0.00355556 0.0183333 0 0.00426667 0.0183333 0 0.00497778 0.0183333 0 0.00568889 0.0183333 0 0.0064 0.0183333 0 0.00711111 0.0183333 0 0.00782222 0.0183333 0 0.00853333 0.0183333 0 0.00924444 0.0183333 0 0.00995556 0.0183333 0 0.0106667 0.0183333 0 0 0.0186667 0 0.000755556 0.0186667 0 0.00151111 0.0186667 0 0.00226667 0.0186667 0 0.00302222 0.0186667 0 0.00377778 0.0186667 0 0.00453333 0.0186667 0 0.00528889 0.0186667 0 0.00604444 0.0186667 0 0.0068 0.0186667 0 0.00755556 0.0186667 0 0.00831111 0.0186667 0 0.00906667 0.0186667 0 0.00982222 0.0186667 0 0.0105778 0.0186667 0 0.0113333 0.0186667 0 0 0.019 0 0.0008 0.019 0 0.0016 0.019 0 0.0024 0.019 0 0.0032 0.019 0 0.004 0.019 0 0.0048 0.019 0 0.0056 0.019 0 0.0064 0.019 0 0.0072 0.019 0 0.008 0.019 0 0.0088 0.019 0 0.0096 0.019 0 0.0104 0.019 0 0.0112 0.019 0 0.012 0.019 0 0 0.0193333 0 0.000844444 0.0193333 0 0.00168889 0.0193333 0 0.00253333 0.0193333 0 0.00337778 0.0193333 0 0.00422222 0.0193333 0 0.00506667 0.0193333 0 0.00591111 0.0193333 0 0.00675556 0.0193333 0 0.0076 0.0193333 0 0.00844444 0.0193333 0 0.00928889 0.0193333 0 0.0101333 0.0193333 0 0.0109778 0.0193333 0 0.0118222 0.0193333 0 0.0126667 0.0193333 0 0 0.0196667 0 0.000888889 0.0196667 0 0.00177778 0.0196667 0 0.00266667 0.0196667 0 0.00355556 0.0196667 0 0.00444444 0.0196667 0 0.00533333 0.0196667 0 0.00622222 0.0196667 0 0.00711111 0.0196667 0 0.008 0.0196667 0 0.00888889 0.0196667 0 0.00977778 0.0196667 0 0.0106667 0.0196667 0 0.0115556 0.0196667 0 0.0124444 0.0196667 0 0.0133333 0.0196667 0 0 0.02 0 0.000933333 0.02 0 0.00186667 0.02 0 0.0028 0.02 0 0.00373333 0.02 0 0.00466667 0.02 0 0.0056 0.02 0 0.00653333 0.02 0 0.00746667 0.02 0 0.0084 0.02 0 0.00933333 0.02 0 0.0102667 0.02 0 0.0112 0.02 0 0.0121333 0.02 0 0.0130667 0.02 0 0.014 0.02 0 0 0.0203333 0 0.000977778 0.0203333 0 0.00195556 0.0203333 0 0.00293333 0.0203333 0 0.00391111 0.0203333 0 0.00488889 0.0203333 0 0.00586667 0.0203333 0 0.00684444 0.0203333 0 0.00782222 0.0203333 0 0.0088 0.0203333 0 0.00977778 0.0203333 0 0.0107556 0.0203333 0 0.0117333 0.0203333 0 0.0127111 0.0203333 0 0.0136889 0.0203333 0 0.0146667 0.0203333 0 0 0.0206667 0 0.00102222 0.0206667 0 0.00204444 0.0206667 0 0.00306667 0.0206667 0 0.00408889 0.0206667 0 0.00511111 0.0206667 0 0.00613333 0.0206667 0 0.00715556 0.0206667 0 0.00817778 0.0206667 0 0.0092 0.0206667 0 0.0102222 0.0206667 0 0.0112444 0.0206667 0 0.0122667 0.0206667 0 0.0132889 0.0206667 0 0.0143111 0.0206667 0 0.0153333 0.0206667 0 0 0.021 0 0.00106667 0.021 0 0.00213333 0.021 0 0.0032 0.021 0 0.00426667 0.021 0 0.00533333 0.021 0 0.0064 0.021 0 0.00746667 0.021 0 0.00853333 0.021 0 0.0096 0.021 0 0.0106667 0.021 0 0.0117333 0.021 0 0.0128 0.021 0 0.0138667 0.021 0 0.0149333 0.021 0 0.016 0.021 0 
</DataArray>
</Points> 
</Piece> 
</StructuredGrid> 
</VTKFile> 
