<?xml version="1.0"?> 
<VTKFile type="StructuredGrid" version="0.1"> 
<StructuredGrid WholeExtent="0 15 0 15 0 0"> 
<Piece Extent="0 15 0 15 0 0"> 
<PointData>
<DataArray type="Float32" Name="|E|" format="ascii" NumberOfComponents="3"> 
-1.70193e+06 0 0 -1.72315e+06 93256.4 0 -1.78207e+06 205449 0 -1.86369e+06 351138 0 -1.94765e+06 532558 0 -2.01923e+06 740242 0 -2.07276e+06 962085 0 -2.10696e+06 1.18846e+06 0 -2.12178e+06 1.41002e+06 0 -2.11626e+06 1.61667e+06 0 -2.09253e+06 1.78989e+06 0 -2.05728e+06 1.90507e+06 0 -2.03054e+06 1.92834e+06 0 -2.03557e+06 1.79036e+06 0 -2.07526e+06 1.41575e+06 0 -2.28205e+06 1.66392e+06 0 -1.69207e+06 0 0 -1.71064e+06 95665.4 0 -1.76335e+06 208633 0 -1.83704e+06 351509 0 -1.91413e+06 526623 0 -1.98125e+06 726359 0 -2.03268e+06 940149 0 -2.06686e+06 1.15893e+06 0 -2.08403e+06 1.37439e+06 0 -2.08394e+06 1.57678e+06 0 -2.06949e+06 1.75259e+06 0 -2.0471e+06 1.87879e+06 0 -2.0365e+06 1.93212e+06 0 -2.06205e+06 1.8583e+06 0 -2.16908e+06 1.5763e+06 0 -2.17985e+06 967985 0 -1.68175e+06 0 0 -1.69776e+06 97668.7 0 -1.74466e+06 211158 0 -1.81092e+06 351374 0 -1.88134e+06 520640 0 -1.9439e+06 712858 0 -1.99292e+06 918867 0 -2.0267e+06 1.13033e+06 0 -2.04548e+06 1.33965e+06 0 -2.0497e+06 1.53821e+06 0 -2.04232e+06 1.71467e+06 0 -2.03011e+06 1.85158e+06 0 -2.03006e+06 1.92733e+06 0 -2.06908e+06 1.90977e+06 0 -2.1976e+06 1.72625e+06 0 -2.42029e+06 1.18931e+06 0 -1.67099e+06 0 0 -1.68452e+06 99291.8 0 -1.72599e+06 213062 0 -1.78528e+06 350736 0 -1.84926e+06 514560 0 -1.90718e+06 699670 0 -1.95353e+06 898186 0 -1.98651e+06 1.10255e+06 0 -2.00628e+06 1.30582e+06 0 -2.01375e+06 1.50047e+06 0 -2.01179e+06 1.67691e+06 0 -2.00714e+06 1.82179e+06 0 -2.01419e+06 1.91734e+06 0 -2.05936e+06 1.9419e+06 0 -2.18904e+06 1.84761e+06 0 -2.48427e+06 1.53006e+06 0 -1.65981e+06 0 0 -1.67093e+06 100559 0 -1.70731e+06 214380 0 -1.76007e+06 349599 0 -1.81783e+06 508339 0 -1.87107e+06 686730 0 -1.91454e+06 878049 0 -1.94635e+06 1.07552e+06 0 -1.96657e+06 1.27284e+06 0 -1.97634e+06 1.46342e+06 0 -1.97843e+06 1.63925e+06 0 -1.97919e+06 1.78989e+06 0 -1.99084e+06 1.90166e+06 0 -2.03697e+06 1.95923e+06 0 -2.15803e+06 1.9346e+06 0 -2.44053e+06 1.77433e+06 0 -1.64822e+06 0 0 -1.65701e+06 101492 0 -1.68862e+06 215145 0 -1.73523e+06 347971 0 -1.78702e+06 501938 0 -1.83558e+06 673978 0 -1.87597e+06 858389 0 -1.90627e+06 1.04916e+06 0 -1.92645e+06 1.24061e+06 0 -1.93772e+06 1.427e+06 0 -1.94269e+06 1.60159e+06 0 -1.94714e+06 1.75625e+06 0 -1.96146e+06 1.88065e+06 0 -2.00558e+06 1.96398e+06 0 -2.11304e+06 1.99113e+06 0 -2.35499e+06 1.94095e+06 0 -1.63625e+06 0 0 -1.64277e+06 102113 0 -1.66988e+06 215389 0 -1.71073e+06 345861 0 -1.75679e+06 495325 0 -1.80069e+06 661357 0 -1.83783e+06 839145 0 -1.86632e+06 1.02341e+06 0 -1.88602e+06 1.20907e+06 0 -1.89808e+06 1.39111e+06 0 -1.90496e+06 1.56394e+06 0 -1.91175e+06 1.72109e+06 0 -1.92728e+06 1.855e+06 0 -1.96777e+06 1.95805e+06 0 -2.06035e+06 2.0228e+06 0 -2.25676e+06 2.04358e+06 0 -1.62391e+06 0 0 -1.62823e+06 102441 0 -1.6511e+06 215140 0 -1.68652e+06 343279 0 -1.7271e+06 488474 0 -1.76638e+06 648811 0 -1.80016e+06 820253 0 -1.82656e+06 998194 0 -1.84537e+06 1.17815e+06 0 -1.85763e+06 1.35573e+06 0 -1.86559e+06 1.52627e+06 0 -1.87365e+06 1.68467e+06 0 -1.88926e+06 1.82535e+06 0 -1.9254e+06 1.94321e+06 0 -2.00336e+06 2.03489e+06 0 -2.16039e+06 2.10231e+06 0 -1.61123e+06 0 0 -1.61338e+06 102494 0 -1.63227e+06 214427 0 -1.66256e+06 340237 0 -1.6979e+06 481362 0 -1.73263e+06 636291 0 -1.76294e+06 801652 0 -1.78703e+06 973462 0 -1.8046e+06 1.14778e+06 0 -1.81654e+06 1.32079e+06 0 -1.82487e+06 1.4886e+06 0 -1.83336e+06 1.64715e+06 0 -1.84822e+06 1.79239e+06 0 -1.87974e+06 1.92093e+06 0 -1.9443e+06 2.03173e+06 0 -2.06822e+06 2.12963e+06 0 -1.5982e+06 0 0 -1.59826e+06 102290 0 -1.61336e+06 213276 0 -1.63883e+06 336748 0 -1.66916e+06 473971 0 -1.69942e+06 623752 0 -1.7262e+06 783283 0 -1.74778e+06 949145 0 -1.76378e+06 1.1179e+06 0 -1.77496e+06 1.28624e+06 0 -1.78308e+06 1.45093e+06 0 -1.79133e+06 1.60873e+06 0 -1.80484e+06 1.75666e+06 0 -1.8317e+06 1.89258e+06 0 -1.88438e+06 2.01663e+06 0 -1.98146e+06 2.13424e+06 0 -1.58486e+06 0 0 -1.58286e+06 101844 0 -1.59437e+06 211711 0 -1.61529e+06 332824 0 -1.64083e+06 466286 0 -1.66673e+06 611151 0 -1.68994e+06 765089 0 -1.70883e+06 925184 0 -1.72299e+06 1.08846e+06 0 -1.73302e+06 1.25206e+06 0 -1.74044e+06 1.41328e+06 0 -1.74791e+06 1.56955e+06 0 -1.75963e+06 1.71866e+06 0 -1.78196e+06 1.85931e+06 0 -1.82424e+06 1.9922e+06 0 -1.89969e+06 2.12248e+06 0 -1.57122e+06 0 0 -1.5672e+06 101172 0 -1.57531e+06 209754 0 -1.59191e+06 328479 0 -1.61289e+06 458296 0 -1.63454e+06 598452 0 -1.65415e+06 747018 0 -1.67021e+06 901520 0 -1.6823e+06 1.0594e+06 0 -1.69085e+06 1.21821e+06 0 -1.69716e+06 1.37568e+06 0 -1.70342e+06 1.52975e+06 0 -1.71304e+06 1.67881e+06 0 -1.73099e+06 1.82207e+06 0 -1.76427e+06 1.96048e+06 0 -1.82221e+06 2.09844e+06 0 -1.55729e+06 0 0 -1.55129e+06 100287 0 -1.55615e+06 207428 0 -1.56867e+06 323728 0 -1.58529e+06 449994 0 -1.6028e+06 585623 0 -1.61882e+06 729019 0 -1.63196e+06 878095 0 -1.64177e+06 1.03066e+06 0 -1.64857e+06 1.18464e+06 0 -1.65342e+06 1.33812e+06 0 -1.65812e+06 1.48946e+06 0 -1.66543e+06 1.63745e+06 0 -1.67918e+06 1.78165e+06 0 -1.70462e+06 1.92304e+06 0 -1.74837e+06 2.06526e+06 0 -1.54308e+06 0 0 -1.53514e+06 99202.9 0 -1.5369e+06 204753 0 -1.54555e+06 318584 0 -1.55801e+06 441374 0 -1.57151e+06 572635 0 -1.58395e+06 711046 0 -1.59409e+06 854855 0 -1.60145e+06 1.00221e+06 0 -1.60626e+06 1.15133e+06 0 -1.60936e+06 1.30063e+06 0 -1.61224e+06 1.44878e+06 0 -1.61706e+06 1.59488e+06 0 -1.62682e+06 1.7387e+06 0 -1.64541e+06 1.88114e+06 0 -1.67753e+06 2.02513e+06 0 -1.5286e+06 0 0 -1.51875e+06 97931.6 0 -1.51754e+06 201748 0 -1.52252e+06 313062 0 -1.53101e+06 432433 0 -1.54062e+06 559462 0 -1.54953e+06 693056 0 -1.55661e+06 831749 0 -1.56139e+06 973973 0 -1.56401e+06 1.11823e+06 0 -1.56514e+06 1.2632e+06 0 -1.56596e+06 1.4078e+06 0 -1.56819e+06 1.55135e+06 0 -1.57413e+06 1.69373e+06 0 -1.58668e+06 1.83575e+06 0 -1.60917e+06 1.97969e+06 0 -1.51387e+06 0 0 -1.50214e+06 96484.4 0 -1.49809e+06 198431 0 -1.49957e+06 307174 0 -1.50426e+06 423170 0 -1.51012e+06 546085 0 -1.51555e+06 675012 0 -1.51953e+06 808729 0 -1.52163e+06 945918 0 -1.5219e+06 1.08532e+06 0 -1.52087e+06 1.22583e+06 0 -1.51945e+06 1.36658e+06 0 -1.51901e+06 1.50704e+06 0 -1.5213e+06 1.64716e+06 0 -1.52846e+06 1.78762e+06 0 -1.54288e+06 1.9302e+06 0 </DataArray> 
</PointData> 
<Points> 
<DataArray type="Float32" NumberOfComponents="3"> 
0 0.045 0 0.00666667 0.045 0 0.0133333 0.045 0 0.02 0.045 0 0.0266667 0.045 0 0.0333333 0.045 0 0.04 0.045 0 0.0466667 0.045 0 0.0533333 0.045 0 0.06 0.045 0 0.0666667 0.045 0 0.0733333 0.045 0 0.08 0.045 0 0.0866667 0.045 0 0.0933333 0.045 0 0.1 0.045 0 0 0.0457111 0 0.00652356 0.045763 0 0.0130471 0.0458148 0 0.0195707 0.0458667 0 0.0260942 0.0459185 0 0.0326178 0.0459704 0 0.0391413 0.0460222 0 0.0456649 0.0460741 0 0.0521884 0.0461259 0 0.058712 0.0461778 0 0.0652356 0.0462296 0 0.0717591 0.0462815 0 0.0782827 0.0463333 0 0.0848062 0.0463852 0 0.0913298 0.046437 0 0.0978533 0.0464889 0 0 0.0464222 0 0.00638044 0.0465259 0 0.0127609 0.0466296 0 0.0191413 0.0467333 0 0.0255218 0.046837 0 0.0319022 0.0469407 0 0.0382827 0.0470444 0 0.0446631 0.0471481 0 0.0510436 0.0472519 0 0.057424 0.0473556 0 0.0638044 0.0474593 0 0.0701849 0.047563 0 0.0765653 0.0476667 0 0.0829458 0.0477704 0 0.0893262 0.0478741 0 0.0957067 0.0479778 0 0 0.0471333 0 0.00623733 0.0472889 0 0.0124747 0.0474444 0 0.018712 0.0476 0 0.0249493 0.0477556 0 0.0311867 0.0479111 0 0.037424 0.0480667 0 0.0436613 0.0482222 0 0.0498987 0.0483778 0 0.056136 0.0485333 0 0.0623733 0.0486889 0 0.0686107 0.0488444 0 0.074848 0.049 0 0.0810853 0.0491556 0 0.0873227 0.0493111 0 0.09356 0.0494667 0 0 0.0478444 0 0.00609422 0.0480519 0 0.0121884 0.0482593 0 0.0182827 0.0484667 0 0.0243769 0.0486741 0 0.0304711 0.0488815 0 0.0365653 0.0490889 0 0.0426596 0.0492963 0 0.0487538 0.0495037 0 0.054848 0.0497111 0 0.0609422 0.0499185 0 0.0670364 0.0501259 0 0.0731307 0.0503333 0 0.0792249 0.0505407 0 0.0853191 0.0507481 0 0.0914133 0.0509556 0 0 0.0485556 0 0.00595111 0.0488148 0 0.0119022 0.0490741 0 0.0178533 0.0493333 0 0.0238044 0.0495926 0 0.0297556 0.0498519 0 0.0357067 0.0501111 0 0.0416578 0.0503704 0 0.0476089 0.0506296 0 0.05356 0.0508889 0 0.0595111 0.0511481 0 0.0654622 0.0514074 0 0.0714133 0.0516667 0 0.0773644 0.0519259 0 0.0833156 0.0521852 0 0.0892667 0.0524444 0 0 0.0492667 0 0.005808 0.0495778 0 0.011616 0.0498889 0 0.017424 0.0502 0 0.023232 0.0505111 0 0.02904 0.0508222 0 0.034848 0.0511333 0 0.040656 0.0514444 0 0.046464 0.0517556 0 0.052272 0.0520667 0 0.05808 0.0523778 0 0.063888 0.0526889 0 0.069696 0.053 0 0.075504 0.0533111 0 0.081312 0.0536222 0 0.08712 0.0539333 0 0 0.0499778 0 0.00566489 0.0503407 0 0.0113298 0.0507037 0 0.0169947 0.0510667 0 0.0226596 0.0514296 0 0.0283244 0.0517926 0 0.0339893 0.0521556 0 0.0396542 0.0525185 0 0.0453191 0.0528815 0 0.050984 0.0532444 0 0.0566489 0.0536074 0 0.0623138 0.0539704 0 0.0679787 0.0543333 0 0.0736436 0.0546963 0 0.0793084 0.0550593 0 0.0849733 0.0554222 0 0 0.0506889 0 0.00552178 0.0511037 0 0.0110436 0.0515185 0 0.0165653 0.0519333 0 0.0220871 0.0523481 0 0.0276089 0.052763 0 0.0331307 0.0531778 0 0.0386524 0.0535926 0 0.0441742 0.0540074 0 0.049696 0.0544222 0 0.0552178 0.054837 0 0.0607396 0.0552519 0 0.0662613 0.0556667 0 0.0717831 0.0560815 0 0.0773049 0.0564963 0 0.0828267 0.0569111 0 0 0.0514 0 0.00537867 0.0518667 0 0.0107573 0.0523333 0 0.016136 0.0528 0 0.0215147 0.0532667 0 0.0268933 0.0537333 0 0.032272 0.0542 0 0.0376507 0.0546667 0 0.0430293 0.0551333 0 0.048408 0.0556 0 0.0537867 0.0560667 0 0.0591653 0.0565333 0 0.064544 0.057 0 0.0699227 0.0574667 0 0.0753013 0.0579333 0 0.08068 0.0584 0 0 0.0521111 0 0.00523556 0.0526296 0 0.0104711 0.0531481 0 0.0157067 0.0536667 0 0.0209422 0.0541852 0 0.0261778 0.0547037 0 0.0314133 0.0552222 0 0.0366489 0.0557407 0 0.0418844 0.0562593 0 0.04712 0.0567778 0 0.0523556 0.0572963 0 0.0575911 0.0578148 0 0.0628267 0.0583333 0 0.0680622 0.0588519 0 0.0732978 0.0593704 0 0.0785333 0.0598889 0 0 0.0528222 0 0.00509244 0.0533926 0 0.0101849 0.053963 0 0.0152773 0.0545333 0 0.0203698 0.0551037 0 0.0254622 0.0556741 0 0.0305547 0.0562444 0 0.0356471 0.0568148 0 0.0407396 0.0573852 0 0.045832 0.0579556 0 0.0509244 0.0585259 0 0.0560169 0.0590963 0 0.0611093 0.0596667 0 0.0662018 0.060237 0 0.0712942 0.0608074 0 0.0763867 0.0613778 0 0 0.0535333 0 0.00494933 0.0541556 0 0.00989867 0.0547778 0 0.014848 0.0554 0 0.0197973 0.0560222 0 0.0247467 0.0566444 0 0.029696 0.0572667 0 0.0346453 0.0578889 0 0.0395947 0.0585111 0 0.044544 0.0591333 0 0.0494933 0.0597556 0 0.0544427 0.0603778 0 0.059392 0.061 0 0.0643413 0.0616222 0 0.0692907 0.0622444 0 0.07424 0.0628667 0 0 0.0542444 0 0.00480622 0.0549185 0 0.00961244 0.0555926 0 0.0144187 0.0562667 0 0.0192249 0.0569407 0 0.0240311 0.0576148 0 0.0288373 0.0582889 0 0.0336436 0.058963 0 0.0384498 0.059637 0 0.043256 0.0603111 0 0.0480622 0.0609852 0 0.0528684 0.0616593 0 0.0576747 0.0623333 0 0.0624809 0.0630074 0 0.0672871 0.0636815 0 0.0720933 0.0643556 0 0 0.0549556 0 0.00466311 0.0556815 0 0.00932622 0.0564074 0 0.0139893 0.0571333 0 0.0186524 0.0578593 0 0.0233156 0.0585852 0 0.0279787 0.0593111 0 0.0326418 0.060037 0 0.0373049 0.060763 0 0.041968 0.0614889 0 0.0466311 0.0622148 0 0.0512942 0.0629407 0 0.0559573 0.0636667 0 0.0606204 0.0643926 0 0.0652836 0.0651185 0 0.0699467 0.0658444 0 0 0.0556667 0 0.00452 0.0564444 0 0.00904 0.0572222 0 0.01356 0.058 0 0.01808 0.0587778 0 0.0226 0.0595556 0 0.02712 0.0603333 0 0.03164 0.0611111 0 0.03616 0.0618889 0 0.04068 0.0626667 0 0.0452 0.0634444 0 0.04972 0.0642222 0 0.05424 0.065 0 0.05876 0.0657778 0 0.06328 0.0665556 0 0.0678 0.0673333 0 
</DataArray>
</Points> 
</Piece> 
</StructuredGrid> 
</VTKFile> 
