<?xml version="1.0"?> 
<VTKFile type="StructuredGrid" version="0.1"> 
<StructuredGrid WholeExtent="0 15 0 15 0 0"> 
<Piece Extent="0 15 0 15 0 0"> 
<PointData>
<DataArray type="Float32" Name="|E|" format="ascii" NumberOfComponents="3"> 
2.98023e-07 1.71661e-05 0 -4.07308e-08 819.812 0 2.69501e-08 408.155 0 2.56114e-09 196.285 0 -3.21306e-08 98.7362 0 3.35276e-08 52.8726 0 -3.63216e-08 29.0322 0 3.53903e-08 16.7242 0 -3.07336e-08 9.70589 0 2.04891e-08 5.75475 0 -1.86265e-08 3.41407 0 2.23517e-08 2.02699 0 -3.35276e-08 1.18116 0 2.98023e-08 0.649018 0 7.45058e-09 0.286997 0 -2.68221e-07 4.76837e-07 0 88.2341 -1.82539e-07 0 -15.8365 819.613 0 -10.6062 408.142 0 -6.64034 196.107 0 -3.61737 98.6833 0 -2.18407 52.8156 0 -1.25487 29.004 0 -0.804993 16.7036 0 -0.492082 9.69259 0 -0.323166 5.74567 0 -0.205537 3.40781 0 -0.135724 2.02273 0 -0.0898116 1.17831 0 -0.0628165 0.647228 0 -0.0486571 0.286098 0 -0.0457784 -9.48785e-08 0 176.902 -1.40443e-06 0 -31.7496 819.007 0 -21.2073 408.109 0 -13.2677 195.57 0 -7.23039 98.5262 0 -4.362 52.6442 0 -2.50676 28.9198 0 -1.60778 16.6416 0 -0.982482 9.65279 0 -0.645348 5.71842 0 -0.4102 3.38907 0 -0.270902 2.00998 0 -0.179161 1.16976 0 -0.125291 0.641864 0 -0.0970056 0.283407 0 -0.0912318 1.81142e-07 0 266.439 1.33365e-06 0 -47.8154 817.972 0 -31.7984 408.066 0 -19.8686 194.668 0 -10.8351 98.2691 0 -6.52745 52.3566 0 -3.75286 28.781 0 -2.40608 16.538 0 -1.46956 9.58681 0 -0.965557 5.67305 0 -0.613121 3.35796 0 -0.404989 1.98877 0 -0.267586 1.15557 0 -0.187086 0.632956 0 -0.144739 0.278944 0 -0.136038 -1.53668e-07 0 357.29 -8.9407e-07 0 -64.1087 816.466 0 -42.3759 408.032 0 -26.4286 193.39 0 -14.4283 97.9195 0 -8.67354 51.9502 0 -4.9907 28.5897 0 -3.19746 16.3924 0 -1.95178 9.49521 0 -1.28278 5.60964 0 -0.81345 3.31464 0 -0.537447 1.9592 0 -0.35463 1.13581 0 -0.247866 0.620551 0 -0.191553 0.27274 0 -0.179876 2.55182e-07 0 449.903 1.3113e-06 0 -80.7028 814.433 0 -52.9375 408.033 0 -32.9318 191.722 0 -18.0082 97.4878 0 -10.7926 51.4209 0 -6.21837 28.349 0 -3.97924 16.2043 0 -2.42774 9.37878 0 -1.59596 5.52826 0 -1.01037 3.25937 0 -0.667745 1.92137 0 -0.43984 1.11061 0 -0.307307 0.604715 0 -0.23715 0.264839 0 -0.222431 -1.86265e-07 0 544.743 -2.98023e-07 0 -97.6685 811.8 0 -63.483 408.103 0 -39.3601 189.644 0 -21.5744 96.9879 0 -12.876 50.7629 0 -7.43478 28.0635 0 -4.74833 15.9725 0 -2.89634 9.23863 0 -1.90396 5.42896 0 -1.20311 3.19246 0 -0.795349 1.87544 0 -0.522777 1.08009 0 -0.365093 0.585528 0 -0.281239 0.255301 0 -0.263393 7.07805e-08 0 642.287 -5.96046e-07 0 -115.074 808.475 0 -74.0149 408.287 0 -45.6926 187.129 0 -25.1293 96.4377 0 -14.9132 49.9691 0 -8.64 27.7385 0 -5.50104 15.6959 0 -3.35683 9.07621 0 -2.2055 5.31178 0 -1.391 3.11434 0 -0.919714 1.82155 0 -0.603018 1.04445 0 -0.420915 0.56309 0 -0.32354 0.244193 0 -0.302454 -7.45058e-09 0 743.031 -1.19209e-07 0 -132.982 804.352 0 -84.5394 408.637 0 -51.905 184.149 0 -28.6781 95.859 0 -16.8918 49.0299 0 -9.83566 27.3813 0 -6.23279 15.3724 0 -3.80906 8.89335 0 -2.49904 5.17667 0 -1.57354 3.0255 0 -1.04026 1.75991 0 -0.680176 1.00388 0 -0.474473 0.537519 0 -0.363787 0.231596 0 -0.33931 0 0 847.493 2.6226e-06 0 -151.454 799.301 0 -95.0668 409.216 0 -57.9684 180.664 0 -32.23 95.2785 0 -18.7965 47.9335 0 -11.0256 27.0007 0 -6.93775 14.9995 0 -4.2537 8.69238 0 -2.78263 5.02352 0 -1.75045 2.92655 0 -1.15631 1.69074 0 -0.753926 0.958608 0 -0.525463 0.50896 0 -0.401733 0.217592 0 -0.373662 -6.70552e-08 0 956.213 -3.21865e-06 0 -170.543 793.177 0 -105.613 410.097 0 -63.8483 176.631 0 -35.7991 94.7279 0 -20.6083 46.665 0 -12.2164 26.6076 0 -7.60828 14.5735 0 -4.69269 8.47617 0 -3.05369 4.85206 0 -1.92188 2.81814 0 -1.26704 1.61431 0 -0.824044 0.908832 0 -0.57356 0.477604 0 -0.437159 0.20225 0 -0.405227 1.3411e-07 0 1069.76 1.66893e-06 0 -190.296 785.811 0 -116.2 411.367 0 -69.5037 171.998 0 -39.4056 94.2452 0 -22.3035 45.2062 0 -13.4186 26.2154 0 -8.2342 14.0899 0 -5.12972 8.24826 0 -3.30862 4.66193 0 -2.08859 2.701 0 -1.37132 1.53099 0 -0.890485 0.854709 0 -0.618388 0.443729 0 -0.469882 0.185586 0 -0.43377 -8.9407e-08 0 1188.74 -7.15256e-07 0 -210.754 777.015 0 -126.857 413.125 0 -74.8851 166.703 0 -43.0777 93.8746 0 -23.8522 43.5348 0 -14.6478 25.8402 0 -8.80186 13.5427 0 -5.57099 8.01287 0 -3.54228 4.45261 0 -2.25235 2.57581 0 -1.4675 1.44133 0 -0.953502 0.796238 0 -0.659465 0.407786 0 -0.499766 0.167491 0 -0.459203 4.47035e-08 0 1313.78 4.76837e-07 0 -231.947 766.577 0 -137.625 415.484 0 -79.9331 160.677 0 -46.8528 93.6683 0 -25.2166 41.6236 0 -15.926 25.5014 0 -9.29277 12.9244 0 -6.02628 7.77501 0 -3.74726 4.22356 0 -2.41642 2.44309 0 -1.55313 1.34627 0 -1.01383 0.733093 0 -0.696116 0.370561 0 -0.526719 0.147571 0 -0.481829 -2.38419e-07 0 1445.56 -7.15256e-07 0 -253.895 754.262 0 -148.554 418.573 0 -84.5764 153.837 0 -50.7802 93.6866 0 -26.3487 39.4402 0 -17.2843 25.2221 0 -9.68188 12.2254 0 -6.51033 7.54048 0 -3.9128 3.97432 0 -2.58631 2.3029 0 -1.6244 1.24737 0 -1.07301 0.664298 0 -0.727332 0.333494 0 -0.55066 0.124841 0 -0.502899 2.98023e-08 0 1584.79 1.90735e-06 0 -276.608 739.811 0 -159.707 422.535 0 -88.7296 146.091 0 -54.9231 93.9987 0 -27.1882 36.9461 0 -18.7644 25.0294 0 -9.93531 11.4346 0 -7.04482 7.31566 0 -4.02324 3.70484 0 -2.77095 2.15445 0 -1.67541 1.14735 0 -1.13383 0.587714 0 -0.75157 0.299205 0 -0.571402 0.0971816 0 -0.525849 9.53674e-07 0 </DataArray> 
</PointData> 
<Points> 
<DataArray type="Float32" NumberOfComponents="3"> 
0.125 0.02 0 0.129 0.02 0 0.133 0.02 0 0.137 0.02 0 0.141 0.02 0 0.145 0.02 0 0.149 0.02 0 0.153 0.02 0 0.157 0.02 0 0.161 0.02 0 0.165 0.02 0 0.169 0.02 0 0.173 0.02 0 0.177 0.02 0 0.181 0.02 0 0.185 0.02 0 0.125 0.0200667 0 0.129 0.0201067 0 0.133 0.0201467 0 0.137 0.0201867 0 0.141 0.0202267 0 0.145 0.0202667 0 0.149 0.0203067 0 0.153 0.0203467 0 0.157 0.0203867 0 0.161 0.0204267 0 0.165 0.0204667 0 0.169 0.0205067 0 0.173 0.0205467 0 0.177 0.0205867 0 0.181 0.0206267 0 0.185 0.0206667 0 0.125 0.0201333 0 0.129 0.0202133 0 0.133 0.0202933 0 0.137 0.0203733 0 0.141 0.0204533 0 0.145 0.0205333 0 0.149 0.0206133 0 0.153 0.0206933 0 0.157 0.0207733 0 0.161 0.0208533 0 0.165 0.0209333 0 0.169 0.0210133 0 0.173 0.0210933 0 0.177 0.0211733 0 0.181 0.0212533 0 0.185 0.0213333 0 0.125 0.0202 0 0.129 0.02032 0 0.133 0.02044 0 0.137 0.02056 0 0.141 0.02068 0 0.145 0.0208 0 0.149 0.02092 0 0.153 0.02104 0 0.157 0.02116 0 0.161 0.02128 0 0.165 0.0214 0 0.169 0.02152 0 0.173 0.02164 0 0.177 0.02176 0 0.181 0.02188 0 0.185 0.022 0 0.125 0.0202667 0 0.129 0.0204267 0 0.133 0.0205867 0 0.137 0.0207467 0 0.141 0.0209067 0 0.145 0.0210667 0 0.149 0.0212267 0 0.153 0.0213867 0 0.157 0.0215467 0 0.161 0.0217067 0 0.165 0.0218667 0 0.169 0.0220267 0 0.173 0.0221867 0 0.177 0.0223467 0 0.181 0.0225067 0 0.185 0.0226667 0 0.125 0.0203333 0 0.129 0.0205333 0 0.133 0.0207333 0 0.137 0.0209333 0 0.141 0.0211333 0 0.145 0.0213333 0 0.149 0.0215333 0 0.153 0.0217333 0 0.157 0.0219333 0 0.161 0.0221333 0 0.165 0.0223333 0 0.169 0.0225333 0 0.173 0.0227333 0 0.177 0.0229333 0 0.181 0.0231333 0 0.185 0.0233333 0 0.125 0.0204 0 0.129 0.02064 0 0.133 0.02088 0 0.137 0.02112 0 0.141 0.02136 0 0.145 0.0216 0 0.149 0.02184 0 0.153 0.02208 0 0.157 0.02232 0 0.161 0.02256 0 0.165 0.0228 0 0.169 0.02304 0 0.173 0.02328 0 0.177 0.02352 0 0.181 0.02376 0 0.185 0.024 0 0.125 0.0204667 0 0.129 0.0207467 0 0.133 0.0210267 0 0.137 0.0213067 0 0.141 0.0215867 0 0.145 0.0218667 0 0.149 0.0221467 0 0.153 0.0224267 0 0.157 0.0227067 0 0.161 0.0229867 0 0.165 0.0232667 0 0.169 0.0235467 0 0.173 0.0238267 0 0.177 0.0241067 0 0.181 0.0243867 0 0.185 0.0246667 0 0.125 0.0205333 0 0.129 0.0208533 0 0.133 0.0211733 0 0.137 0.0214933 0 0.141 0.0218133 0 0.145 0.0221333 0 0.149 0.0224533 0 0.153 0.0227733 0 0.157 0.0230933 0 0.161 0.0234133 0 0.165 0.0237333 0 0.169 0.0240533 0 0.173 0.0243733 0 0.177 0.0246933 0 0.181 0.0250133 0 0.185 0.0253333 0 0.125 0.0206 0 0.129 0.02096 0 0.133 0.02132 0 0.137 0.02168 0 0.141 0.02204 0 0.145 0.0224 0 0.149 0.02276 0 0.153 0.02312 0 0.157 0.02348 0 0.161 0.02384 0 0.165 0.0242 0 0.169 0.02456 0 0.173 0.02492 0 0.177 0.02528 0 0.181 0.02564 0 0.185 0.026 0 0.125 0.0206667 0 0.129 0.0210667 0 0.133 0.0214667 0 0.137 0.0218667 0 0.141 0.0222667 0 0.145 0.0226667 0 0.149 0.0230667 0 0.153 0.0234667 0 0.157 0.0238667 0 0.161 0.0242667 0 0.165 0.0246667 0 0.169 0.0250667 0 0.173 0.0254667 0 0.177 0.0258667 0 0.181 0.0262667 0 0.185 0.0266667 0 0.125 0.0207333 0 0.129 0.0211733 0 0.133 0.0216133 0 0.137 0.0220533 0 0.141 0.0224933 0 0.145 0.0229333 0 0.149 0.0233733 0 0.153 0.0238133 0 0.157 0.0242533 0 0.161 0.0246933 0 0.165 0.0251333 0 0.169 0.0255733 0 0.173 0.0260133 0 0.177 0.0264533 0 0.181 0.0268933 0 0.185 0.0273333 0 0.125 0.0208 0 0.129 0.02128 0 0.133 0.02176 0 0.137 0.02224 0 0.141 0.02272 0 0.145 0.0232 0 0.149 0.02368 0 0.153 0.02416 0 0.157 0.02464 0 0.161 0.02512 0 0.165 0.0256 0 0.169 0.02608 0 0.173 0.02656 0 0.177 0.02704 0 0.181 0.02752 0 0.185 0.028 0 0.125 0.0208667 0 0.129 0.0213867 0 0.133 0.0219067 0 0.137 0.0224267 0 0.141 0.0229467 0 0.145 0.0234667 0 0.149 0.0239867 0 0.153 0.0245067 0 0.157 0.0250267 0 0.161 0.0255467 0 0.165 0.0260667 0 0.169 0.0265867 0 0.173 0.0271067 0 0.177 0.0276267 0 0.181 0.0281467 0 0.185 0.0286667 0 0.125 0.0209333 0 0.129 0.0214933 0 0.133 0.0220533 0 0.137 0.0226133 0 0.141 0.0231733 0 0.145 0.0237333 0 0.149 0.0242933 0 0.153 0.0248533 0 0.157 0.0254133 0 0.161 0.0259733 0 0.165 0.0265333 0 0.169 0.0270933 0 0.173 0.0276533 0 0.177 0.0282133 0 0.181 0.0287733 0 0.185 0.0293333 0 0.125 0.021 0 0.129 0.0216 0 0.133 0.0222 0 0.137 0.0228 0 0.141 0.0234 0 0.145 0.024 0 0.149 0.0246 0 0.153 0.0252 0 0.157 0.0258 0 0.161 0.0264 0 0.165 0.027 0 0.169 0.0276 0 0.173 0.0282 0 0.177 0.0288 0 0.181 0.0294 0 0.185 0.03 0 
</DataArray>
</Points> 
</Piece> 
</StructuredGrid> 
</VTKFile> 
