<?xml version="1.0"?> 
<VTKFile type="StructuredGrid" version="0.1"> 
<StructuredGrid WholeExtent="0 15 0 15 0 0"> 
<Piece Extent="0 15 0 15 0 0"> 
<PointData>
<DataArray type="Float32" Name="|E|" format="ascii" NumberOfComponents="3"> 
1.51865e+06 3.10709e+06 0 1.3784e+06 3.0168e+06 0 1.2542e+06 2.95888e+06 0 1.1384e+06 2.9219e+06 0 1.02656e+06 2.89955e+06 0 915907 2.88846e+06 0 804584 2.88713e+06 0 691158 2.89532e+06 0 574330 2.91383e+06 0 452702 2.94452e+06 0 324529 2.99054e+06 0 187398 3.05672e+06 0 37722.4 3.15023e+06 0 -130029 3.28154e+06 0 -324569 3.46577e+06 0 -559726 3.72463e+06 0 1.30667e+06 3.5813e+06 0 1.27557e+06 3.56194e+06 0 1.2424e+06 3.54553e+06 0 1.2065e+06 3.53411e+06 0 1.1683e+06 3.52885e+06 0 1.12875e+06 3.53037e+06 0 1.08897e+06 3.53897e+06 0 1.05016e+06 3.55474e+06 0 1.01353e+06 3.57759e+06 0 980302 3.60727e+06 0 951651 3.64328e+06 0 928640 3.68481e+06 0 912074 3.7306e+06 0 902237 3.77875e+06 0 898447 3.8265e+06 0 898432 3.86992e+06 0 1.25317e+06 3.73549e+06 0 1.24797e+06 3.72631e+06 0 1.2399e+06 3.71933e+06 0 1.23065e+06 3.71453e+06 0 1.22106e+06 3.71194e+06 0 1.21162e+06 3.71158e+06 0 1.20267e+06 3.71341e+06 0 1.19453e+06 3.71736e+06 0 1.18749e+06 3.72323e+06 0 1.18184e+06 3.73078e+06 0 1.17786e+06 3.73969e+06 0 1.17586e+06 3.74961e+06 0 1.17626e+06 3.76015e+06 0 1.17974e+06 3.77094e+06 0 1.18758e+06 3.78169e+06 0 1.2021e+06 3.7922e+06 0 1.1919e+06 3.77504e+06 0 1.19286e+06 3.76637e+06 0 1.19462e+06 3.75862e+06 0 1.19643e+06 3.75178e+06 0 1.19812e+06 3.74585e+06 0 1.19974e+06 3.74079e+06 0 1.20145e+06 3.73656e+06 0 1.20341e+06 3.73307e+06 0 1.20575e+06 3.73024e+06 0 1.20861e+06 3.72793e+06 0 1.21206e+06 3.72602e+06 0 1.21612e+06 3.72435e+06 0 1.22069e+06 3.72277e+06 0 1.22543e+06 3.72113e+06 0 1.22962e+06 3.71928e+06 0 1.23178e+06 3.71715e+06 0 1.10744e+06 3.76727e+06 0 1.11413e+06 3.75752e+06 0 1.11987e+06 3.74817e+06 0 1.12524e+06 3.73924e+06 0 1.13042e+06 3.73071e+06 0 1.1355e+06 3.72254e+06 0 1.1405e+06 3.71469e+06 0 1.14544e+06 3.70711e+06 0 1.15034e+06 3.69976e+06 0 1.1552e+06 3.69258e+06 0 1.16004e+06 3.68552e+06 0 1.16488e+06 3.67851e+06 0 1.16978e+06 3.67151e+06 0 1.17489e+06 3.66443e+06 0 1.18058e+06 3.65719e+06 0 1.18758e+06 3.64964e+06 0 1.0106e+06 3.74023e+06 0 1.01779e+06 3.72962e+06 0 1.02497e+06 3.71921e+06 0 1.03192e+06 3.70894e+06 0 1.03858e+06 3.69881e+06 0 1.04495e+06 3.68882e+06 0 1.05108e+06 3.67894e+06 0 1.05698e+06 3.66916e+06 0 1.06268e+06 3.65946e+06 0 1.06819e+06 3.6498e+06 0 1.07353e+06 3.64016e+06 0 1.07869e+06 3.6305e+06 0 1.08363e+06 3.6208e+06 0 1.08827e+06 3.61104e+06 0 1.09242e+06 3.60122e+06 0 1.09568e+06 3.59139e+06 0 906503 3.70626e+06 0 914275 3.69507e+06 0 921584 3.68392e+06 0 928568 3.67285e+06 0 935270 3.66184e+06 0 941698 3.65087e+06 0 947851 3.63995e+06 0 953727 3.62906e+06 0 959323 3.61818e+06 0 964637 3.60732e+06 0 969665 3.59645e+06 0 974408 3.58558e+06 0 978871 3.57469e+06 0 983086 3.56377e+06 0 987130 3.55279e+06 0 991187 3.5417e+06 0 800183 3.67089e+06 0 807354 3.65944e+06 0 814299 3.64799e+06 0 820960 3.63655e+06 0 827325 3.62511e+06 0 833396 3.61366e+06 0 839176 3.60222e+06 0 844670 3.59078e+06 0 849879 3.57933e+06 0 854804 3.56788e+06 0 859444 3.55641e+06 0 863796 3.54492e+06 0 867852 3.5334e+06 0 871592 3.52186e+06 0 874973 3.5103e+06 0 877902 3.49876e+06 0 693934 3.6371e+06 0 700477 3.62553e+06 0 706727 3.61394e+06 0 712711 3.60234e+06 0 718434 3.59073e+06 0 723895 3.5791e+06 0 729091 3.56746e+06 0 734021 3.5558e+06 0 738681 3.54413e+06 0 743069 3.53245e+06 0 747183 3.52075e+06 0 751020 3.50904e+06 0 754580 3.49732e+06 0 757864 3.48558e+06 0 760886 3.47383e+06 0 763679 3.46204e+06 0 589215 3.60635e+06 0 594877 3.59479e+06 0 600322 3.58321e+06 0 605540 3.5716e+06 0 610526 3.55997e+06 0 615280 3.5483e+06 0 619800 3.53662e+06 0 624086 3.52491e+06 0 628135 3.51318e+06 0 631946 3.50144e+06 0 635517 3.48968e+06 0 638846 3.4779e+06 0 641930 3.4661e+06 0 644765 3.4543e+06 0 647341 3.44248e+06 0 649642 3.43066e+06 0 486571 3.57953e+06 0 491327 3.56804e+06 0 495892 3.55651e+06 0 500268 3.54495e+06 0 504453 3.53336e+06 0 508446 3.52174e+06 0 512244 3.51009e+06 0 515845 3.49842e+06 0 519249 3.48672e+06 0 522452 3.475e+06 0 525453 3.46327e+06 0 528250 3.45151e+06 0 530841 3.43974e+06 0 533225 3.42796e+06 0 535402 3.41617e+06 0 537374 3.40436e+06 0 386121 3.55715e+06 0 389930 3.54574e+06 0 393591 3.5343e+06 0 397104 3.52281e+06 0 400465 3.51129e+06 0 403674 3.49974e+06 0 406728 3.48815e+06 0 409627 3.47653e+06 0 412368 3.46489e+06 0 414949 3.45322e+06 0 417370 3.44153e+06 0 419629 3.42982e+06 0 421723 3.41808e+06 0 423652 3.40633e+06 0 425414 3.39456e+06 0 427006 3.38278e+06 0 287667 3.53952e+06 0 290522 3.52819e+06 0 293270 3.51682e+06 0 295908 3.5054e+06 0 298434 3.49395e+06 0 300848 3.48245e+06 0 303148 3.47092e+06 0 305332 3.45936e+06 0 307400 3.44776e+06 0 309349 3.43613e+06 0 311179 3.42447e+06 0 312889 3.41279e+06 0 314477 3.40108e+06 0 315942 3.38934e+06 0 317283 3.37758e+06 0 318496 3.36579e+06 0 190831 3.52681e+06 0 192734 3.51555e+06 0 194565 3.50423e+06 0 196325 3.49287e+06 0 198012 3.48146e+06 0 199626 3.47e+06 0 201164 3.4585e+06 0 202627 3.44696e+06 0 204014 3.43538e+06 0 205322 3.42376e+06 0 206552 3.4121e+06 0 207703 3.4004e+06 0 208773 3.38867e+06 0 209763 3.3769e+06 0 210670 3.36511e+06 0 211497 3.35328e+06 0 95126.1 3.51915e+06 0 96076.2 3.50792e+06 0 96992.3 3.49664e+06 0 97873.4 3.4853e+06 0 98718.6 3.4739e+06 0 99527.6 3.46245e+06 0 100300 3.45094e+06 0 101035 3.43938e+06 0 101732 3.42777e+06 0 102391 3.41611e+06 0 103012 3.4044e+06 0 103593 3.39264e+06 0 104135 3.38084e+06 0 104636 3.36899e+06 0 105096 3.3571e+06 0 105514 3.34516e+06 0 0 3.5166e+06 0 0 3.50538e+06 0 0 3.49409e+06 0 0 3.48273e+06 0 0 3.4713e+06 0 0 3.45981e+06 0 0 3.44825e+06 0 0 3.43663e+06 0 0 3.42494e+06 0 0 3.41318e+06 0 0 3.40137e+06 0 0 3.38949e+06 0 0 3.37755e+06 0 0 3.36556e+06 0 0 3.3535e+06 0 0 3.34138e+06 0 </DataArray> 
</PointData> 
<Points> 
<DataArray type="Float32" NumberOfComponents="3"> 
0.181504 0.0567684 0 0.181933 0.0565655 0 0.182354 0.0563798 0 0.182768 0.0562115 0 0.183174 0.0560604 0 0.183572 0.0559267 0 0.183963 0.0558102 0 0.184346 0.055711 0 0.184721 0.0556291 0 0.185089 0.0555645 0 0.185449 0.0555172 0 0.185802 0.0554872 0 0.186147 0.0554745 0 0.186484 0.055479 0 0.186813 0.0555009 0 0.187135 0.05554 0 0.181503 0.0604505 0 0.181933 0.0602611 0 0.182355 0.0600879 0 0.18277 0.0599307 0 0.183178 0.0597897 0 0.183578 0.0596649 0 0.183972 0.0595562 0 0.184358 0.0594636 0 0.184738 0.0593872 0 0.18511 0.0593269 0 0.185475 0.0592828 0 0.185833 0.0592547 0 0.186183 0.0592429 0 0.186527 0.0592471 0 0.186863 0.0592675 0 0.187193 0.059304 0 0.181503 0.0641326 0 0.181933 0.0639567 0 0.182356 0.0637959 0 0.182772 0.06365 0 0.183182 0.0635191 0 0.183585 0.0634031 0 0.183981 0.0633022 0 0.184371 0.0632162 0 0.184754 0.0631453 0 0.185131 0.0630893 0 0.1855 0.0630483 0 0.185864 0.0630223 0 0.18622 0.0630112 0 0.18657 0.0630152 0 0.186914 0.0630341 0 0.18725 0.063068 0 0.181503 0.0678147 0 0.181933 0.0676524 0 0.182356 0.0675039 0 0.182774 0.0673692 0 0.183186 0.0672484 0 0.183591 0.0671413 0 0.18399 0.0670482 0 0.184383 0.0669688 0 0.18477 0.0669033 0 0.185151 0.0668516 0 0.185526 0.0668138 0 0.185895 0.0667898 0 0.186257 0.0667796 0 0.186614 0.0667832 0 0.186964 0.0668007 0 0.187308 0.066832 0 0.181503 0.0714968 0 0.181933 0.071348 0 0.182357 0.0712119 0 0.182776 0.0710884 0 0.18319 0.0709777 0 0.183597 0.0708796 0 0.183999 0.0707942 0 0.184396 0.0707214 0 0.184787 0.0706614 0 0.185172 0.070614 0 0.185552 0.0705793 0 0.185926 0.0705573 0 0.186294 0.070548 0 0.186657 0.0705513 0 0.187014 0.0705673 0 0.187366 0.070596 0 0.181502 0.0751789 0 0.181933 0.0750436 0 0.182358 0.0749199 0 0.182778 0.0748077 0 0.183194 0.074707 0 0.183604 0.0746178 0 0.184009 0.0745401 0 0.184408 0.074474 0 0.184803 0.0744194 0 0.185193 0.0743764 0 0.185577 0.0743448 0 0.185957 0.0743248 0 0.186331 0.0743163 0 0.1867 0.0743194 0 0.187064 0.0743339 0 0.187423 0.07436 0 0.181502 0.078861 0 0.181933 0.0787393 0 0.182359 0.0786279 0 0.182781 0.0785269 0 0.183198 0.0784363 0 0.18361 0.078356 0 0.184018 0.0782861 0 0.184421 0.0782266 0 0.18482 0.0781775 0 0.185214 0.0781387 0 0.185603 0.0781103 0 0.185988 0.0780923 0 0.186368 0.0780847 0 0.186744 0.0780874 0 0.187115 0.0781005 0 0.187481 0.078124 0 0.181502 0.0825431 0 0.181933 0.0824349 0 0.18236 0.0823359 0 0.182783 0.0822461 0 0.183202 0.0821656 0 0.183616 0.0820942 0 0.184027 0.0820321 0 0.184433 0.0819792 0 0.184836 0.0819355 0 0.185234 0.0819011 0 0.185629 0.0818759 0 0.186019 0.0818598 0 0.186405 0.0818531 0 0.186787 0.0818555 0 0.187165 0.0818671 0 0.187539 0.081888 0 0.181502 0.0862253 0 0.181933 0.0861306 0 0.182361 0.0860439 0 0.182785 0.0859654 0 0.183206 0.0858949 0 0.183623 0.0858325 0 0.184036 0.0857781 0 0.184446 0.0857318 0 0.184852 0.0856936 0 0.185255 0.0856635 0 0.185654 0.0856414 0 0.18605 0.0856274 0 0.186442 0.0856214 0 0.18683 0.0856236 0 0.187215 0.0856338 0 0.187596 0.085652 0 0.181501 0.0899074 0 0.181933 0.0898262 0 0.182362 0.0897519 0 0.182787 0.0896846 0 0.183209 0.0896242 0 0.183629 0.0895707 0 0.184045 0.0895241 0 0.184458 0.0894844 0 0.184869 0.0894517 0 0.185276 0.0894258 0 0.18568 0.0894069 0 0.186081 0.0893949 0 0.186479 0.0893898 0 0.186873 0.0893916 0 0.187265 0.0894004 0 0.187654 0.089416 0 0.181501 0.0935895 0 0.181933 0.0935218 0 0.182362 0.0934599 0 0.182789 0.0934038 0 0.183213 0.0933535 0 0.183635 0.0933089 0 0.184054 0.0932701 0 0.184471 0.093237 0 0.184885 0.0932097 0 0.185296 0.0931882 0 0.185705 0.0931724 0 0.186112 0.0931624 0 0.186516 0.0931582 0 0.186917 0.0931597 0 0.187316 0.093167 0 0.187712 0.09318 0 0.181501 0.0972716 0 0.181933 0.0972175 0 0.182363 0.097168 0 0.182791 0.0971231 0 0.183217 0.0970828 0 0.183641 0.0970471 0 0.184063 0.0970161 0 0.184483 0.0969896 0 0.184901 0.0969678 0 0.185317 0.0969505 0 0.185731 0.0969379 0 0.186143 0.0969299 0 0.186552 0.0969265 0 0.18696 0.0969277 0 0.187366 0.0969336 0 0.187769 0.096944 0 0.181501 0.100954 0 0.181933 0.100913 0 0.182364 0.100876 0 0.182794 0.100842 0 0.183221 0.100812 0 0.183648 0.100785 0 0.184073 0.100762 0 0.184496 0.100742 0 0.184918 0.100726 0 0.185338 0.100713 0 0.185757 0.100703 0 0.186174 0.100697 0 0.186589 0.100695 0 0.187003 0.100696 0 0.187416 0.1007 0 0.187827 0.100708 0 0.1815 0.104636 0 0.181933 0.104609 0 0.182365 0.104584 0 0.182796 0.104562 0 0.183225 0.104541 0 0.183654 0.104524 0 0.184082 0.104508 0 0.184508 0.104495 0 0.184934 0.104484 0 0.185359 0.104475 0 0.185782 0.104469 0 0.186205 0.104465 0 0.186626 0.104463 0 0.187047 0.104464 0 0.187466 0.104467 0 0.187885 0.104472 0 0.1815 0.108318 0 0.181933 0.108304 0 0.182366 0.108292 0 0.182798 0.108281 0 0.183229 0.108271 0 0.18366 0.108262 0 0.184091 0.108254 0 0.184521 0.108247 0 0.18495 0.108242 0 0.185379 0.108238 0 0.185808 0.108234 0 0.186236 0.108232 0 0.186663 0.108232 0 0.18709 0.108232 0 0.187516 0.108233 0 0.187942 0.108236 0 0.1815 0.112 0 0.181933 0.112 0 0.182367 0.112 0 0.1828 0.112 0 0.183233 0.112 0 0.183667 0.112 0 0.1841 0.112 0 0.184533 0.112 0 0.184967 0.112 0 0.1854 0.112 0 0.185833 0.112 0 0.186267 0.112 0 0.1867 0.112 0 0.187133 0.112 0 0.187567 0.112 0 0.188 0.112 0 
</DataArray>
</Points> 
</Piece> 
</StructuredGrid> 
</VTKFile> 
