<?xml version="1.0"?> 
<VTKFile type="StructuredGrid" version="0.1"> 
<StructuredGrid WholeExtent="0 15 0 15 0 0"> 
<Piece Extent="0 15 0 15 0 0"> 
<PointData>
<DataArray type="Float32" Name="|E|" format="ascii" NumberOfComponents="3"> 
-1.78814e-07 5.56726e+06 0 2.06637e-09 3.86227e+06 0 5.12227e-08 2.91e+06 0 -4.56348e-08 2.27109e+06 0 3.49246e-08 1.74932e+06 0 -7.45058e-09 1.29336e+06 0 3.25963e-08 895890 0 -5.58794e-08 570782 0 5.40167e-08 332519 0 -5.40167e-08 179003 0 9.68575e-08 91023.3 0 -1.22935e-07 44699.7 0 1.08033e-07 21571 0 -8.56817e-08 10285.8 0 3.72529e-08 4968.07 0 0 3286.57 0 -415143 4.24245e+06 0 -240786 3.17048e+06 0 -171422 2.48921e+06 0 -143773 1.95624e+06 0 -127045 1.49402e+06 0 -111578 1.08424e+06 0 -92199.7 733015 0 -68701.2 456209 0 -45301.6 261820 0 -26709.3 140728 0 -14498.4 72370.8 0 -7476.04 36278.6 0 -3749.17 17940.6 0 -1848.66 8833.94 0 -892.442 4361.89 0 -138.444 2131.72 0 -535588 3.33984e+06 0 -367506 2.65607e+06 0 -301516 2.1243e+06 0 -265952 1.66364e+06 0 -237423 1.25046e+06 0 -204667 884496 0 -162758 579810 0 -116026 350664 0 -73859.9 197665 0 -42823.4 105931 0 -23288.5 55059.6 0 -12196.2 28150.6 0 -6256.02 14278.5 0 -3168.63 7221.86 0 -1556.55 3670.78 0 -625.983 1745.96 0 -574576 2.75113e+06 0 -468512 2.24555e+06 0 -412847 1.79596e+06 0 -372015 1.38762e+06 0 -329874 1.01663e+06 0 -275410 693920 0 -209175 437150 0 -142470 255548 0 -87879.1 141286 0 -50356.3 75550 0 -27547 39725.3 0 -14680.2 20725.1 0 -7709.93 10778.3 0 -4008.69 5603.4 0 -2033.83 2917.05 0 -992.36 1430.27 0 -636342 2.3142e+06 0 -562842 1.88623e+06 0 -510963 1.49038e+06 0 -461897 1.12271e+06 0 -399824 790840 0 -319244 513618 0 -230147 307658 0 -149952 173042 0 -90140.9 93884.9 0 -51378.8 50211.1 0 -28399.3 26753.7 0 -15435 14253 0 -8308.47 7600.85 0 -4436.67 4060.53 0 -2330.83 2160.55 0 -1222.23 1097.35 0 -710423 1.9322e+06 0 -650035 1.55525e+06 0 -596300 1.19773e+06 0 -530223 864259 0 -440172 573344 0 -332225 347595 0 -226646 195512 0 -141950 105387 0 -83865.6 56201.9 0 -47907.2 30130.1 0 -26878 16286.3 0 -14932.6 8861.9 0 -8246.47 4845.31 0 -4526.45 2656.45 0 -2460.18 1443.05 0 -1344.76 755.75 0 -785253 1.58035e+06 0 -729636 1.23853e+06 0 -662287 909200 0 -566451 610330 0 -443063 369347 0 -313429 203179 0 -202805 105299 0 -123290 53945.3 0 -72376.8 28178.9 0 -41756 15097.3 0 -23879.9 8253.74 0 -13589.7 4575.77 0 -7706.91 2559.6 0 -4351.78 1435.31 0 -2443.44 792.035 0 -1379.39 422.851 0 -859113 1.24276e+06 0 -793176 921933 0 -693640 619070 0 -556814 367012 0 -404243 190739 0 -267583 89233.3 0 -165900 40021.9 0 -99358.9 18384.3 0 -58649.2 8910.63 0 -34412.2 4554.3 0 -20132.1 2430.37 0 -11756.5 1338.92 0 -6852.95 751.882 0 -3982.96 421.311 0 -2307.27 225.565 0 -1341.05 113.712 0 -921163 898656 0 -818399 594150 0 -667517 334408 0 -491658 152963 0 -329114 53492.7 0 -205931 11994.7 0 -124772 -887.016 0 -74925.9 -3450.05 0 -44943.9 -3127.3 0 -26965.1 -2267.17 0 -16182.3 -1505.11 0 -9711.02 -958.51 0 -5822.73 -600.342 0 -3484.53 -378.579 0 -2080.24 -245.78 0 -1242.75 -160.43 0 -937941 529718 0 -768193 264566 0 -566231 84817 0 -377933 -4364.23 0 -235718 -30753.4 0 -143182 -29564.6 0 -87005.1 -21888.2 0 -53196.6 -14855.1 0 -32667.2 -9698.86 0 -20115.5 -6198.8 0 -12408.7 -3914.5 0 -7660.48 -2457.27 0 -4727.61 -1541.06 0 -2913.28 -971.246 0 -1790.45 -617.733 0 -1097.39 -391.744 0 -849166 151353 0 -614590 -17736.3 0 -401771 -83958.4 0 -246058 -85635 0 -148558 -64871.2 0 -91060.1 -44395.4 0 -56699.4 -29434.9 0 -35607.5 -19241.7 0 -22478.4 -12461.7 0 -14241.4 -8026.82 0 -9042.95 -5156.04 0 -5747.52 -3309.6 0 -3652.22 -2127.63 0 -2317.05 -1373.65 0 -1463.92 -891.646 0 -917.61 -575.941 0 -617653 -152532 0 -385427 -178887 0 -227792 -144592 0 -135995 -100301 0 -84341.2 -66710.4 0 -53645 -44283 0 -34484 -29361.9 0 -22317.6 -19394.5 0 -14520 -12788.5 0 -9479.78 -8427.54 0 -6201.31 -5554.61 0 -4059.73 -3664.76 0 -2656.54 -2423.63 0 -1734.14 -1609.5 0 -1123.61 -1073.8 0 -714.723 -712.122 0 -314291 -271393 0 -176345 -191827 0 -105042 -125596 0 -67068.3 -82941.6 0 -43908 -55967.5 0 -28943.5 -37896.5 0 -19212.3 -25611 0 -12846.4 -17313.7 0 -8625.8 -11720.2 0 -5807.73 -7940.1 0 -3915.44 -5385.7 0 -2640.77 -3659.08 0 -1779.11 -2493.12 0 -1193.5 -1706.45 0 -788.946 -1174.69 0 -499.057 -803.382 0 -100191 -206455 0 -63997.9 -129985 0 -43713 -88269.1 0 -29551.9 -61625.9 0 -19913 -42796.9 0 -13573.5 -29635.7 0 -9344.81 -20573.9 0 -6460.79 -14323.3 0 -4478.39 -9983.35 0 -3109.87 -6967.33 0 -2160.99 -4869.52 0 -1501.44 -3410.31 0 -1040.73 -2396.39 0 -715.68 -1693.75 0 -476.737 -1208.55 0 -275.006 -861.291 0 -29349.4 -112461 0 -20827.3 -83451.4 0 -13737.4 -60476 0 -9357.04 -42859.4 0 -6624.35 -30436.3 0 -4717.15 -21763.4 0 -3361.82 -15605 0 -2399.03 -11200.6 0 -1716.97 -8048.04 0 -1229.17 -5790.99 0 -880.442 -4173.34 0 -629.793 -3015.02 0 -448.578 -2187.1 0 -314.534 -1600.22 0 -204.68 -1193.19 0 -53.0152 -916.985 0 1.01328e-06 -62171.5 0 -9.27248e-08 -48503 0 1.72295e-08 -38461.2 0 -6.98492e-09 -28428.6 0 -2.04891e-08 -20730.7 0 -1.30385e-08 -15269.8 0 8.19564e-08 -11294.6 0 -8.9407e-08 -8362.65 0 3.35276e-08 -6195.38 0 -7.07805e-08 -4597.08 0 7.45058e-08 -3417.39 0 -4.47035e-08 -2547.77 0 1.49012e-08 -1910.64 0 -8.19564e-08 -1448.2 0 4.47035e-08 -1142.43 0 -2.38419e-07 -1152.17 0 </DataArray> 
</PointData> 
<Points> 
<DataArray type="Float32" NumberOfComponents="3"> 
0.075 0.021 0 0.0783333 0.021 0 0.0816667 0.021 0 0.085 0.021 0 0.0883333 0.021 0 0.0916667 0.021 0 0.095 0.021 0 0.0983333 0.021 0 0.101667 0.021 0 0.105 0.021 0 0.108333 0.021 0 0.111667 0.021 0 0.115 0.021 0 0.118333 0.021 0 0.121667 0.021 0 0.125 0.021 0 0.0773333 0.0219333 0 0.0805333 0.0219333 0 0.0837333 0.0219333 0 0.0869333 0.0219333 0 0.0901333 0.0219333 0 0.0933333 0.0219333 0 0.0965333 0.0219333 0 0.0997333 0.0219333 0 0.102933 0.0219333 0 0.106133 0.0219333 0 0.109333 0.0219333 0 0.112533 0.0219333 0 0.115733 0.0219333 0 0.118933 0.0219333 0 0.122133 0.0219333 0 0.125333 0.0219333 0 0.0796667 0.0228667 0 0.0827333 0.0228667 0 0.0858 0.0228667 0 0.0888667 0.0228667 0 0.0919333 0.0228667 0 0.095 0.0228667 0 0.0980667 0.0228667 0 0.101133 0.0228667 0 0.1042 0.0228667 0 0.107267 0.0228667 0 0.110333 0.0228667 0 0.1134 0.0228667 0 0.116467 0.0228667 0 0.119533 0.0228667 0 0.1226 0.0228667 0 0.125667 0.0228667 0 0.082 0.0238 0 0.0849333 0.0238 0 0.0878667 0.0238 0 0.0908 0.0238 0 0.0937333 0.0238 0 0.0966667 0.0238 0 0.0996 0.0238 0 0.102533 0.0238 0 0.105467 0.0238 0 0.1084 0.0238 0 0.111333 0.0238 0 0.114267 0.0238 0 0.1172 0.0238 0 0.120133 0.0238 0 0.123067 0.0238 0 0.126 0.0238 0 0.0843333 0.0247333 0 0.0871333 0.0247333 0 0.0899333 0.0247333 0 0.0927333 0.0247333 0 0.0955333 0.0247333 0 0.0983333 0.0247333 0 0.101133 0.0247333 0 0.103933 0.0247333 0 0.106733 0.0247333 0 0.109533 0.0247333 0 0.112333 0.0247333 0 0.115133 0.0247333 0 0.117933 0.0247333 0 0.120733 0.0247333 0 0.123533 0.0247333 0 0.126333 0.0247333 0 0.0866667 0.0256667 0 0.0893333 0.0256667 0 0.092 0.0256667 0 0.0946667 0.0256667 0 0.0973333 0.0256667 0 0.1 0.0256667 0 0.102667 0.0256667 0 0.105333 0.0256667 0 0.108 0.0256667 0 0.110667 0.0256667 0 0.113333 0.0256667 0 0.116 0.0256667 0 0.118667 0.0256667 0 0.121333 0.0256667 0 0.124 0.0256667 0 0.126667 0.0256667 0 0.089 0.0266 0 0.0915333 0.0266 0 0.0940667 0.0266 0 0.0966 0.0266 0 0.0991333 0.0266 0 0.101667 0.0266 0 0.1042 0.0266 0 0.106733 0.0266 0 0.109267 0.0266 0 0.1118 0.0266 0 0.114333 0.0266 0 0.116867 0.0266 0 0.1194 0.0266 0 0.121933 0.0266 0 0.124467 0.0266 0 0.127 0.0266 0 0.0913333 0.0275333 0 0.0937333 0.0275333 0 0.0961333 0.0275333 0 0.0985333 0.0275333 0 0.100933 0.0275333 0 0.103333 0.0275333 0 0.105733 0.0275333 0 0.108133 0.0275333 0 0.110533 0.0275333 0 0.112933 0.0275333 0 0.115333 0.0275333 0 0.117733 0.0275333 0 0.120133 0.0275333 0 0.122533 0.0275333 0 0.124933 0.0275333 0 0.127333 0.0275333 0 0.0936667 0.0284667 0 0.0959333 0.0284667 0 0.0982 0.0284667 0 0.100467 0.0284667 0 0.102733 0.0284667 0 0.105 0.0284667 0 0.107267 0.0284667 0 0.109533 0.0284667 0 0.1118 0.0284667 0 0.114067 0.0284667 0 0.116333 0.0284667 0 0.1186 0.0284667 0 0.120867 0.0284667 0 0.123133 0.0284667 0 0.1254 0.0284667 0 0.127667 0.0284667 0 0.096 0.0294 0 0.0981333 0.0294 0 0.100267 0.0294 0 0.1024 0.0294 0 0.104533 0.0294 0 0.106667 0.0294 0 0.1088 0.0294 0 0.110933 0.0294 0 0.113067 0.0294 0 0.1152 0.0294 0 0.117333 0.0294 0 0.119467 0.0294 0 0.1216 0.0294 0 0.123733 0.0294 0 0.125867 0.0294 0 0.128 0.0294 0 0.0983333 0.0303333 0 0.100333 0.0303333 0 0.102333 0.0303333 0 0.104333 0.0303333 0 0.106333 0.0303333 0 0.108333 0.0303333 0 0.110333 0.0303333 0 0.112333 0.0303333 0 0.114333 0.0303333 0 0.116333 0.0303333 0 0.118333 0.0303333 0 0.120333 0.0303333 0 0.122333 0.0303333 0 0.124333 0.0303333 0 0.126333 0.0303333 0 0.128333 0.0303333 0 0.100667 0.0312667 0 0.102533 0.0312667 0 0.1044 0.0312667 0 0.106267 0.0312667 0 0.108133 0.0312667 0 0.11 0.0312667 0 0.111867 0.0312667 0 0.113733 0.0312667 0 0.1156 0.0312667 0 0.117467 0.0312667 0 0.119333 0.0312667 0 0.1212 0.0312667 0 0.123067 0.0312667 0 0.124933 0.0312667 0 0.1268 0.0312667 0 0.128667 0.0312667 0 0.103 0.0322 0 0.104733 0.0322 0 0.106467 0.0322 0 0.1082 0.0322 0 0.109933 0.0322 0 0.111667 0.0322 0 0.1134 0.0322 0 0.115133 0.0322 0 0.116867 0.0322 0 0.1186 0.0322 0 0.120333 0.0322 0 0.122067 0.0322 0 0.1238 0.0322 0 0.125533 0.0322 0 0.127267 0.0322 0 0.129 0.0322 0 0.105333 0.0331333 0 0.106933 0.0331333 0 0.108533 0.0331333 0 0.110133 0.0331333 0 0.111733 0.0331333 0 0.113333 0.0331333 0 0.114933 0.0331333 0 0.116533 0.0331333 0 0.118133 0.0331333 0 0.119733 0.0331333 0 0.121333 0.0331333 0 0.122933 0.0331333 0 0.124533 0.0331333 0 0.126133 0.0331333 0 0.127733 0.0331333 0 0.129333 0.0331333 0 0.107667 0.0340667 0 0.109133 0.0340667 0 0.1106 0.0340667 0 0.112067 0.0340667 0 0.113533 0.0340667 0 0.115 0.0340667 0 0.116467 0.0340667 0 0.117933 0.0340667 0 0.1194 0.0340667 0 0.120867 0.0340667 0 0.122333 0.0340667 0 0.1238 0.0340667 0 0.125267 0.0340667 0 0.126733 0.0340667 0 0.1282 0.0340667 0 0.129667 0.0340667 0 0.11 0.035 0 0.111333 0.035 0 0.112667 0.035 0 0.114 0.035 0 0.115333 0.035 0 0.116667 0.035 0 0.118 0.035 0 0.119333 0.035 0 0.120667 0.035 0 0.122 0.035 0 0.123333 0.035 0 0.124667 0.035 0 0.126 0.035 0 0.127333 0.035 0 0.128667 0.035 0 0.13 0.035 0 
</DataArray>
</Points> 
</Piece> 
</StructuredGrid> 
</VTKFile> 
