<?xml version="1.0"?> 
<VTKFile type="StructuredGrid" version="0.1"> 
<StructuredGrid WholeExtent="0 15 0 15 0 0"> 
<Piece Extent="0 15 0 15 0 0"> 
<PointData>
<DataArray type="Float32" Name="|E|" format="ascii" NumberOfComponents="3"> 
-1.54288e+06 1.93021e+06 0 -1.59633e+06 1.98565e+06 0 -1.65264e+06 2.03849e+06 0 -1.71257e+06 2.0881e+06 0 -1.77718e+06 2.13366e+06 0 -1.84783e+06 2.17414e+06 0 -1.92635e+06 2.20819e+06 0 -2.01535e+06 2.23402e+06 0 -2.11834e+06 2.24913e+06 0 -2.24045e+06 2.24976e+06 0 -2.38947e+06 2.23023e+06 0 -2.57728e+06 2.18063e+06 0 -2.82577e+06 2.08158e+06 0 -3.17687e+06 1.89324e+06 0 -3.74677e+06 1.4952e+06 0 -5.05301e+06 441597 0 -1.47953e+06 2.05435e+06 0 -1.5385e+06 2.1039e+06 0 -1.60087e+06 2.1517e+06 0 -1.66741e+06 2.19723e+06 0 -1.73915e+06 2.23986e+06 0 -1.81748e+06 2.27876e+06 0 -1.90427e+06 2.31281e+06 0 -2.00207e+06 2.34053e+06 0 -2.11452e+06 2.35983e+06 0 -2.24688e+06 2.36759e+06 0 -2.4072e+06 2.35904e+06 0 -2.60832e+06 2.32604e+06 0 -2.87318e+06 2.25378e+06 0 -3.24861e+06 2.11179e+06 0 -3.85497e+06 1.8242e+06 0 -5.18895e+06 1.18937e+06 0 -1.41104e+06 2.18766e+06 0 -1.47479e+06 2.23286e+06 0 -1.54236e+06 2.27704e+06 0 -1.61453e+06 2.31983e+06 0 -1.69235e+06 2.36074e+06 0 -1.77722e+06 2.39916e+06 0 -1.87102e+06 2.43423e+06 0 -1.97635e+06 2.46481e+06 0 -2.09688e+06 2.48928e+06 0 -2.23799e+06 2.50523e+06 0 -2.40789e+06 2.509e+06 0 -2.61986e+06 2.49453e+06 0 -2.8973e+06 2.45142e+06 0 -3.28783e+06 2.3598e+06 0 -3.90652e+06 2.18088e+06 0 -5.16151e+06 1.87906e+06 0 -1.33382e+06 2.3284e+06 0 -1.40157e+06 2.37047e+06 0 -1.47345e+06 2.41219e+06 0 -1.55025e+06 2.4533e+06 0 -1.63303e+06 2.4935e+06 0 -1.7232e+06 2.53236e+06 0 -1.82265e+06 2.5693e+06 0 -1.93398e+06 2.60356e+06 0 -2.06089e+06 2.63399e+06 0 -2.20876e+06 2.65897e+06 0 -2.38581e+06 2.67605e+06 0 -2.60531e+06 2.68128e+06 0 -2.89022e+06 2.66845e+06 0 -3.28581e+06 2.62745e+06 0 -3.89444e+06 2.54719e+06 0 -5.01861e+06 2.48069e+06 0 -1.24524e+06 2.47331e+06 0 -1.31625e+06 2.51317e+06 0 -1.39156e+06 2.55326e+06 0 -1.472e+06 2.59348e+06 0 -1.55861e+06 2.63366e+06 0 -1.6528e+06 2.6736e+06 0 -1.75644e+06 2.71299e+06 0 -1.87212e+06 2.75141e+06 0 -2.00348e+06 2.78826e+06 0 -2.15582e+06 2.82267e+06 0 -2.33717e+06 2.85337e+06 0 -2.56037e+06 2.87846e+06 0 -2.84723e+06 2.89539e+06 0 -3.23876e+06 2.90174e+06 0 -3.8211e+06 2.9044e+06 0 -4.80511e+06 2.98956e+06 0 -1.1444e+06 2.61826e+06 0 -1.21797e+06 2.65647e+06 0 -1.29593e+06 2.69546e+06 0 -1.37908e+06 2.73523e+06 0 -1.46847e+06 2.77578e+06 0 -1.56546e+06 2.8171e+06 0 -1.67189e+06 2.85913e+06 0 -1.79027e+06 2.90182e+06 0 -1.92412e+06 2.94506e+06 0 -2.07857e+06 2.98871e+06 0 -2.2613e+06 3.03262e+06 0 -2.48444e+06 3.07666e+06 0 -2.76818e+06 3.12129e+06 0 -3.14871e+06 3.16957e+06 0 -3.69627e+06 3.23799e+06 0 -4.55464e+06 3.4151e+06 0 -1.03225e+06 2.75911e+06 0 -1.10785e+06 2.79594e+06 0 -1.18781e+06 2.83403e+06 0 -1.27292e+06 2.87351e+06 0 -1.36417e+06 2.91449e+06 0 -1.46291e+06 2.95715e+06 0 -1.57088e+06 3.00168e+06 0 -1.69049e+06 3.04833e+06 0 -1.82509e+06 3.09746e+06 0 -1.9795e+06 3.14959e+06 0 -2.16095e+06 3.20556e+06 0 -2.3807e+06 3.2668e+06 0 -2.65717e+06 3.33615e+06 0 -3.02211e+06 3.42031e+06 0 -3.53274e+06 3.53968e+06 0 -4.28874e+06 3.7718e+06 0 -911293 2.89263e+06 0 -988571 2.92808e+06 0 -1.07009e+06 2.96524e+06 0 -1.15659e+06 3.0043e+06 0 -1.24906e+06 3.04552e+06 0 -1.34874e+06 3.08922e+06 0 -1.4573e+06 3.13579e+06 0 -1.57699e+06 3.18576e+06 0 -1.71091e+06 3.2399e+06 0 -1.86355e+06 3.29929e+06 0 -2.04155e+06 3.36565e+06 0 -2.25521e+06 3.44174e+06 0 -2.52122e+06 3.53239e+06 0 -2.86769e+06 3.64685e+06 0 -3.34261e+06 3.80651e+06 0 -4.01941e+06 4.07404e+06 0 -784933 3.01694e+06 0 -863719 3.0508e+06 0 -946542 3.08677e+06 0 -1.03412e+06 3.12512e+06 0 -1.12738e+06 3.16621e+06 0 -1.2275e+06 3.21046e+06 0 -1.33602e+06 3.25843e+06 0 -1.45501e+06 3.3109e+06 0 -1.58732e+06 3.36892e+06 0 -1.73699e+06 3.43407e+06 0 -1.91e+06 3.50879e+06 0 -2.11558e+06 3.59699e+06 0 -2.36867e+06 3.70529e+06 0 -2.6945e+06 3.84521e+06 0 -3.13553e+06 4.03853e+06 0 -3.75207e+06 4.33375e+06 0 -656744 3.13147e+06 0 -737029 3.16338e+06 0 -821088 3.19777e+06 0 -909610 3.235e+06 0 -1.00347e+06 3.27547e+06 0 -1.10376e+06 3.31972e+06 0 -1.21193e+06 3.36841e+06 0 -1.32984e+06 3.42248e+06 0 -1.46005e+06 3.48322e+06 0 -1.60615e+06 3.55255e+06 0 -1.77334e+06 3.63345e+06 0 -1.96963e+06 3.73079e+06 0 -2.20807e+06 3.85279e+06 0 -2.51118e+06 4.01358e+06 0 -2.91862e+06 4.23665e+06 0 -3.48802e+06 4.55968e+06 0 -530014 3.23677e+06 0 -611895 3.26618e+06 0 -697229 3.2985e+06 0 -786687 3.3341e+06 0 -881104 3.37345e+06 0 -981518 3.41714e+06 0 -1.08925e+06 3.46591e+06 0 -1.206e+06 3.52078e+06 0 -1.33404e+06 3.58317e+06 0 -1.47647e+06 3.65522e+06 0 -1.63771e+06 3.74025e+06 0 -1.82441e+06 3.84375e+06 0 -2.04736e+06 3.97526e+06 0 -2.32584e+06 4.15173e+06 0 -2.69744e+06 4.40137e+06 0 -3.22604e+06 4.75731e+06 0 -407528 3.33405e+06 0 -491140 3.36027e+06 0 -577832 3.38989e+06 0 -668273 3.42331e+06 0 -763278 3.46102e+06 0 -863842 3.50363e+06 0 -971196 3.55191e+06 0 -1.0869e+06 3.60693e+06 0 -1.21295e+06 3.67014e+06 0 -1.35202e+06 3.74375e+06 0 -1.50775e+06 3.83119e+06 0 -1.6854e+06 3.93819e+06 0 -1.89325e+06 4.07505e+06 0 -2.14617e+06 4.26102e+06 0 -2.47735e+06 4.53224e+06 0 -2.96347e+06 4.92887e+06 0 -291561 3.42487e+06 0 -377003 3.447e+06 0 -465102 3.47318e+06 0 -556548 3.50379e+06 0 -652161 3.53933e+06 0 -752915 3.58039e+06 0 -859982 3.62775e+06 0 -974805 3.68244e+06 0 -1.09918e+06 3.7459e+06 0 -1.23539e+06 3.82026e+06 0 -1.3864e+06 3.90888e+06 0 -1.55623e+06 4.01736e+06 0 -1.75049e+06 4.15601e+06 0 -1.97897e+06 4.3448e+06 0 -2.26499e+06 4.62842e+06 0 -2.69668e+06 5.07293e+06 0 -183970 3.51094e+06 0 -271231 3.52785e+06 0 -360683 3.54966e+06 0 -453065 3.57675e+06 0 -549226 3.60956e+06 0 -650145 3.64865e+06 0 -756972 3.69474e+06 0 -871068 3.74879e+06 0 -994067 3.81215e+06 0 -1.12798e+06 3.88681e+06 0 -1.27515e+06 3.97589e+06 0 -1.43867e+06 4.08462e+06 0 -1.62176e+06 4.22247e+06 0 -1.829e+06 4.40854e+06 0 -2.06929e+06 4.69037e+06 0 -2.4208e+06 5.18222e+06 0 -86319.1 3.59394e+06 0 -175195 3.60417e+06 0 -265774 3.62054e+06 0 -358873 3.64329e+06 0 -455394 3.67278e+06 0 -556349 3.70949e+06 0 -662881 3.75403e+06 0 -776323 3.80728e+06 0 -898187 3.87038e+06 0 -1.03024e+06 3.94521e+06 0 -1.17454e+06 4.03441e+06 0 -1.33292e+06 4.14282e+06 0 -1.50803e+06 4.27846e+06 0 -1.69791e+06 4.45862e+06 0 -1.90028e+06 4.7231e+06 0 -2.12796e+06 5.23583e+06 0 0.781213 3.67539e+06 0 -89994.9 3.67721e+06 0 -181239 3.68682e+06 0 -274646 3.70431e+06 0 -371187 3.72987e+06 0 -471917 3.76382e+06 0 -578012 3.80662e+06 0 -690756 3.85894e+06 0 -811644 3.92185e+06 0 -942231 3.99678e+06 0 -1.08421e+06 4.08626e+06 0 -1.23928e+06 4.19403e+06 0 -1.40724e+06 4.32736e+06 0 -1.58791e+06 4.49996e+06 0 -1.76115e+06 4.74119e+06 0 -1.80251e+06 5.17529e+06 0 </DataArray> 
</PointData> 
<Points> 
<DataArray type="Float32" NumberOfComponents="3"> 
0.0678 0.0673333 0 0.0699858 0.0662897 0 0.0721717 0.0652461 0 0.0743575 0.0642025 0 0.0765434 0.0631589 0 0.0787292 0.0621153 0 0.0809151 0.0610717 0 0.0831009 0.0600281 0 0.0852868 0.0589845 0 0.0874726 0.0579409 0 0.0896584 0.0568973 0 0.0918443 0.0558537 0 0.0940301 0.0548101 0 0.096216 0.0537665 0 0.0984018 0.0527229 0 0.100588 0.0516793 0 0.0708133 0.0703111 0 0.0727374 0.0691537 0 0.0746708 0.0679906 0 0.0766137 0.0668218 0 0.0785661 0.0656473 0 0.0805282 0.064467 0 0.0824999 0.0632808 0 0.0844813 0.0620889 0 0.0864726 0.060891 0 0.0884738 0.0596871 0 0.0904849 0.0584773 0 0.0925061 0.0572614 0 0.0945374 0.0560394 0 0.0965789 0.0548113 0 0.0986307 0.053577 0 0.100693 0.0523365 0 0.0738267 0.0732889 0 0.0755173 0.0720251 0 0.0772233 0.0707497 0 0.0789449 0.0694627 0 0.0806824 0.0681639 0 0.0824359 0.0668531 0 0.0842056 0.0655301 0 0.0859919 0.0641948 0 0.0877949 0.0628469 0 0.0896148 0.0614864 0 0.0914519 0.0601131 0 0.0933065 0.0587267 0 0.0951788 0.0573271 0 0.0970691 0.055914 0 0.0989775 0.0544873 0 0.100904 0.0530469 0 0.07684 0.0762667 0 0.0783229 0.074901 0 0.0798245 0.073518 0 0.0813452 0.0721173 0 0.0828855 0.0706988 0 0.0844456 0.0692619 0 0.0860259 0.0678064 0 0.087627 0.0663319 0 0.089249 0.0648379 0 0.0908926 0.0633242 0 0.0925581 0.0617903 0 0.0942459 0.0602358 0 0.0959565 0.0586604 0 0.0976904 0.0570635 0 0.099448 0.0554447 0 0.10123 0.0538036 0 0.0798533 0.0792444 0 0.0811513 0.0777783 0 0.0824694 0.0762895 0 0.083808 0.0747774 0 0.0851678 0.0732414 0 0.0865492 0.0716811 0 0.0879527 0.0700958 0 0.0893788 0.0684849 0 0.0908281 0.0668478 0 0.0923012 0.0651839 0 0.0937987 0.0634924 0 0.0953211 0.0617727 0 0.0968691 0.0600241 0 0.0984434 0.0582459 0 0.100045 0.0564373 0 0.101673 0.0545974 0 0.0828667 0.0822222 0 0.0839997 0.0806542 0 0.0851527 0.0790585 0 0.0863263 0.0774344 0 0.0875209 0.075781 0 0.0887373 0.0740977 0 0.0899759 0.0723835 0 0.0912374 0.0706376 0 0.0925224 0.0688592 0 0.0938317 0.0670473 0 0.0951658 0.065201 0 0.0965255 0.0633193 0 0.0979115 0.0614011 0 0.0993247 0.0594453 0 0.100766 0.0574509 0 0.102236 0.0554168 0 0.08588 0.0852 0 0.0868651 0.0835255 0 0.087869 0.0818191 0 0.0888923 0.0800797 0 0.0899355 0.0783065 0 0.0909993 0.0764984 0 0.0920841 0.0746543 0 0.0931908 0.0727733 0 0.0943198 0.0708542 0 0.095472 0.0688957 0 0.096648 0.0668968 0 0.0978486 0.0648561 0 0.0990745 0.0627723 0 0.100327 0.060644 0 0.101606 0.0584698 0 0.102913 0.0562481 0 0.0888933 0.0881778 0 0.0897446 0.0863893 0 0.0906128 0.0845653 0 0.0914983 0.0827049 0 0.0924017 0.0808068 0 0.0933236 0.0788699 0 0.0942646 0.076893 0 0.0952251 0.0748749 0 0.0962059 0.0728143 0 0.0972076 0.0707098 0 0.0982309 0.0685599 0 0.0992764 0.0663633 0 0.100345 0.0641183 0 0.101437 0.0618233 0 0.102554 0.0594768 0 0.103697 0.0570768 0 0.0919067 0.0911556 0 0.0926352 0.0892424 0 0.0933781 0.0872914 0 0.0941359 0.0853013 0 0.094909 0.083271 0 0.095698 0.0811991 0 0.0965032 0.0790845 0 0.0973252 0.0769258 0 0.0981645 0.0747216 0 0.0990217 0.0724704 0 0.0998974 0.0701707 0 0.100792 0.067821 0 0.101707 0.0654196 0 0.102641 0.0629648 0 0.103597 0.0604547 0 0.104575 0.0578875 0 0.09492 0.0941333 0 0.0955337 0.092082 0 0.0961592 0.0899915 0 0.0967967 0.0878607 0 0.0974466 0.0856883 0 0.0981093 0.0834733 0 0.0987851 0.0812142 0 0.0994745 0.0789099 0 0.100178 0.0765588 0 0.100896 0.0741596 0 0.101628 0.0717108 0 0.102376 0.0692108 0 0.10314 0.066658 0 0.10392 0.0640507 0 0.104717 0.0613872 0 0.105531 0.0586655 0 0.0979333 0.0971111 0 0.0984372 0.094905 0 0.09895 0.09266 0 0.099472 0.0903749 0 0.100003 0.0880487 0 0.100544 0.0856804 0 0.101095 0.0832686 0 0.101656 0.0808123 0 0.102228 0.0783102 0 0.10281 0.075761 0 0.103403 0.0731633 0 0.104008 0.0705158 0 0.104624 0.067817 0 0.105253 0.0650654 0 0.105894 0.0622594 0 0.106548 0.0593975 0 0.100947 0.100089 0 0.101343 0.0977085 0 0.101745 0.0952912 0 0.102153 0.0928362 0 0.102568 0.0903424 0 0.102989 0.0878091 0 0.103418 0.0852352 0 0.103853 0.0826197 0 0.104295 0.0799618 0 0.104744 0.0772602 0 0.105201 0.0745139 0 0.105666 0.0717219 0 0.106138 0.0688829 0 0.106618 0.0659958 0 0.107107 0.0630593 0 0.107604 0.0600721 0 0.10396 0.103067 0 0.104247 0.10049 0 0.104537 0.0978801 0 0.104832 0.0952372 0 0.10513 0.0925605 0 0.105432 0.0898493 0 0.105737 0.0871029 0 0.106047 0.0843205 0 0.106361 0.0815016 0 0.106679 0.0786453 0 0.107001 0.075751 0 0.107328 0.0728178 0 0.107659 0.069845 0 0.107994 0.0668318 0 0.108334 0.0637773 0 0.108679 0.0606807 0 0.106973 0.106044 0 0.107147 0.103246 0 0.107322 0.100421 0 0.107499 0.0975712 0 0.107678 0.0946949 0 0.107858 0.091792 0 0.10804 0.0888622 0 0.108223 0.0859051 0 0.108408 0.0829203 0 0.108595 0.0799074 0 0.108784 0.076866 0 0.108974 0.0737957 0 0.109167 0.0706962 0 0.109361 0.0675669 0 0.109557 0.0644075 0 0.109755 0.0612175 0 0.109987 0.109022 0 0.11004 0.105974 0 0.110093 0.10291 0 0.110147 0.0998318 0 0.110201 0.0967383 0 0.110255 0.0936295 0 0.11031 0.0905055 0 0.110365 0.0873659 0 0.11042 0.0842109 0 0.110475 0.0810401 0 0.110531 0.0778535 0 0.110587 0.0746511 0 0.110643 0.0714326 0 0.110699 0.0681979 0 0.110756 0.064947 0 0.110813 0.0616797 0 0.113 0.112 0 0.112923 0.108671 0 0.112845 0.105342 0 0.112768 0.102013 0 0.112691 0.0986845 0 0.112613 0.0953556 0 0.112536 0.0920268 0 0.112458 0.0886979 0 0.112381 0.085369 0 0.112304 0.0820402 0 0.112226 0.0787113 0 0.112149 0.0753824 0 0.112072 0.0720535 0 0.111994 0.0687247 0 0.111917 0.0653958 0 0.11184 0.0620669 0 
</DataArray>
</Points> 
</Piece> 
</StructuredGrid> 
</VTKFile> 
