<?xml version="1.0"?> 
<VTKFile type="StructuredGrid" version="0.1"> 
<StructuredGrid WholeExtent="0 15 0 15 0 0"> 
<Piece Extent="0 15 0 15 0 0"> 
<PointData>
<DataArray type="Float32" Name="|E|" format="ascii" NumberOfComponents="3"> 
-516340 -1.93624 0 -557218 -1.95339 0 -603463 -1.86891 0 -655324 -1.65561 0 -713038 -1.28254 0 -776799 -0.720461 0 -846744 0.0504795 0 -922922 1.05185 0 -1.00527e+06 2.24304 0 -1.09356e+06 3.65486 0 -1.18744e+06 5.0584 0 -1.28631e+06 6.66465 0 -1.38942e+06 7.70916 0 -1.49582e+06 9.22876 0 -1.6044e+06 9.05141 0 -1.71394e+06 8.71991 0 -513787 38243.5 0 -554536 43478.1 0 -600652 48972 0 -652396 54715 0 -710009 60680.4 0 -773700 66820.2 0 -843618 73061.9 0 -919827 79304.7 0 -1.00227e+06 85417.9 0 -1.09076e+06 91242.3 0 -1.18492e+06 96594.9 0 -1.28418e+06 101279 0 -1.38777e+06 105097 0 -1.49472e+06 107873 0 -1.60391e+06 109467 0 -1.7141e+06 109794 0 -506133 76228.4 0 -546487 86694 0 -592214 97691.2 0 -643591 109204 0 -700892 121182 0 -764359 133534 0 -834182 146118 0 -910468 158734 0 -993212 171122 0 -1.08226e+06 182955 0 -1.17726e+06 193861 0 -1.27768e+06 203428 0 -1.38272e+06 211248 0 -1.49137e+06 216942 0 -1.60244e+06 220216 0 -1.71459e+06 220889 0 -493392 113688 0 -533071 129374 0 -578122 145890 0 -628859 163220 0 -685601 181300 0 -748649 200005 0 -818262 219131 0 -894625 238383 0 -977816 257369 0 -1.06775e+06 275592 0 -1.16416e+06 292463 0 -1.26652e+06 307334 0 -1.37402e+06 319535 0 -1.48559e+06 328452 0 -1.59989e+06 333588 0 -1.71542e+06 334643 0 -475594 150336 0 -514290 171218 0 -558344 193265 0 -608119 216474 0 -663998 240781 0 -726363 266040 0 -795573 291999 0 -871930 318282 0 -955637 344365 0 -1.04674e+06 369568 0 -1.14507e+06 393066 0 -1.25016e+06 413915 0 -1.36121e+06 431131 0 -1.47704e+06 443774 0 -1.59612e+06 451089 0 -1.71666e+06 452600 0 -452789 185858 0 -490159 211891 0 -532847 239467 0 -581275 268616 0 -635905 299293 0 -697224 331353 0 -765720 364520 0 -841858 398354 0 -926022 432213 0 -1.01845e+06 465231 0 -1.11916e+06 496306 0 -1.22779e+06 524143 0 -1.34357e+06 547326 0 -1.4652e+06 564485 0 -1.59086e+06 574453 0 -1.71841e+06 576509 0 -425062 219911 0 -460720 251010 0 -501615 284085 0 -548234 319214 0 -601126 356399 0 -660902 395529 0 -728214 436339 0 -803735 478361 0 -888101 520864 0 -981838 562798 0 -1.08523e+06 602767 0 -1.19818e+06 639024 0 -1.31999e+06 669595 0 -1.44924e+06 692442 0 -1.58376e+06 705843 0 -1.72065e+06 708652 0 -392539 252113 0 -426058 288143 0 -464672 326634 0 -508928 367738 0 -559472 411535 0 -617047 457990 0 -682496 506901 0 -756747 557833 0 -840771 610020 0 -935497 662275 0 -1.04166e+06 712887 0 -1.15958e+06 759593 0 -1.28883e+06 799612 0 -1.42793e+06 829990 0 -1.57416e+06 847956 0 -1.72397e+06 851711 0 -355406 282051 0 -386320 322809 0 -422102 366558 0 -463354 413551 0 -510805 463985 0 -565334 517953 0 -627985 575389 0 -699982 635974 0 -782707 699019 0 -877647 763291 0 -986218 826836 0 -1.10947e+06 886780 0 -1.24759e+06 939355 0 -1.39926e+06 980043 0 -1.56123e+06 1.00457e+06 0 -1.72764e+06 1.00984e+06 0 -313924 309286 0 -341736 354480 0 -374085 403226 0 -411604 455907 0 -455089 512873 0 -505529 574408 0 -564160 640663 0 -632505 711568 0 -712427 786664 0 -806105 864885 0 -915954 944197 0 -1.04425e+06 1.02125e+06 0 -1.19246e+06 1.09092e+06 0 -1.36005e+06 1.14658e+06 0 -1.54294e+06 1.18082e+06 0 -1.73478e+06 1.18808e+06 0 -268439 333361 0 -292640 382597 0 -320923 435955 0 -353923 493966 0 -392459 557173 0 -437587 626104 0 -490676 701228 0 -553516 782866 0 -628424 871033 0 -718395 965142 0 -827103 1.06355e+06 0 -958794 1.16274e+06 0 -1.11738e+06 1.25645e+06 0 -1.30459e+06 1.33466e+06 0 -1.51717e+06 1.3849e+06 0 -1.74056e+06 1.39599e+06 0 -219396 353828 0 -239489 406595 0 -263074 464033 0 -290746 526830 0 -323291 595740 0 -361751 671585 0 -407538 755230 0 -462564 847545 0 -529504 949278 0 -612027 1.06082e+06 0 -715295 1.18161e+06 0 -846085 1.30915e+06 0 -1.01277e+06 1.43676e+06 0 -1.22285e+06 1.55108e+06 0 -1.47556e+06 1.62954e+06 0 -1.76067e+06 1.64739e+06 0 -167343 370261 0 -182872 425935 0 -201168 486763 0 -222739 553590 0 -248266 627384 0 -278682 709267 0 -315274 800549 0 -359896 902747 0 -415207 1.01759e+06 0 -485276 1.14691e+06 0 -576177 1.29234e+06 0 -697559 1.45421e+06 0 -863750 1.62892e+06 0 -1.09423e+06 1.80214e+06 0 -1.40678e+06 1.93762e+06 0 -1.77165e+06 1.97447e+06 0 -112926 382293 0 -123510 440135 0 -136017 503517 0 -150816 573411 0 -168418 650969 0 -189519 737588 0 -215138 834991 0 -246721 945333 0 -286566 1.0714e+06 0 -338150 1.21673e+06 0 -407567 1.38608e+06 0 -505094 1.58484e+06 0 -650497 1.81904e+06 0 -880962 2.08541e+06 0 -1.25651e+06 2.34649e+06 0 -1.83696e+06 2.45507e+06 0 -56879.8 389635 0 -62243.5 448819 0 -68593 513789 0 -76126.8 585605 0 -85109 665546 0 -95935.1 755202 0 -109126 856578 0 -125567 972359 0 -146442 1.10604e+06 0 -174085 1.26294e+06 0 -211960 1.45001e+06 0 -267847 1.68027e+06 0 -357150 1.97034e+06 0 -520567 2.35909e+06 0 -890722 2.88081e+06 0 -1.81416e+06 3.33205e+06 0 0 392104 0 0 451743 0 0 517251 0 0 589724 0 0 670484 0 0 761174 0 0 863981 0 0 981545 0 0 1.11829e+06 0 0 1.27862e+06 0 0 1.47428e+06 0 0 1.71316e+06 0 0 2.03707e+06 0 0 2.4774e+06 0 0 3.28167e+06 0 0 6.03968e+06 0 </DataArray> 
</PointData> 
<Points> 
<DataArray type="Float32" NumberOfComponents="3"> 
0.006 0 0 0.00666667 0 0 0.00733333 0 0 0.008 0 0 0.00866667 0 0 0.00933333 0 0 0.01 0 0 0.0106667 0 0 0.0113333 0 0 0.012 0 0 0.0126667 0 0 0.0133333 0 0 0.014 0 0 0.0146667 0 0 0.0153333 0 0 0.016 0 0 0.006 0.000666667 0 0.00666667 0.000666667 0 0.00733333 0.000666667 0 0.008 0.000666667 0 0.00866667 0.000666667 0 0.00933333 0.000666667 0 0.01 0.000666667 0 0.0106667 0.000666667 0 0.0113333 0.000666667 0 0.012 0.000666667 0 0.0126667 0.000666667 0 0.0133333 0.000666667 0 0.014 0.000666667 0 0.0146667 0.000666667 0 0.0153333 0.000666667 0 0.016 0.000666667 0 0.006 0.00133333 0 0.00666667 0.00133333 0 0.00733333 0.00133333 0 0.008 0.00133333 0 0.00866667 0.00133333 0 0.00933333 0.00133333 0 0.01 0.00133333 0 0.0106667 0.00133333 0 0.0113333 0.00133333 0 0.012 0.00133333 0 0.0126667 0.00133333 0 0.0133333 0.00133333 0 0.014 0.00133333 0 0.0146667 0.00133333 0 0.0153333 0.00133333 0 0.016 0.00133333 0 0.006 0.002 0 0.00666667 0.002 0 0.00733333 0.002 0 0.008 0.002 0 0.00866667 0.002 0 0.00933333 0.002 0 0.01 0.002 0 0.0106667 0.002 0 0.0113333 0.002 0 0.012 0.002 0 0.0126667 0.002 0 0.0133333 0.002 0 0.014 0.002 0 0.0146667 0.002 0 0.0153333 0.002 0 0.016 0.002 0 0.006 0.00266667 0 0.00666667 0.00266667 0 0.00733333 0.00266667 0 0.008 0.00266667 0 0.00866667 0.00266667 0 0.00933333 0.00266667 0 0.01 0.00266667 0 0.0106667 0.00266667 0 0.0113333 0.00266667 0 0.012 0.00266667 0 0.0126667 0.00266667 0 0.0133333 0.00266667 0 0.014 0.00266667 0 0.0146667 0.00266667 0 0.0153333 0.00266667 0 0.016 0.00266667 0 0.006 0.00333333 0 0.00666667 0.00333333 0 0.00733333 0.00333333 0 0.008 0.00333333 0 0.00866667 0.00333333 0 0.00933333 0.00333333 0 0.01 0.00333333 0 0.0106667 0.00333333 0 0.0113333 0.00333333 0 0.012 0.00333333 0 0.0126667 0.00333333 0 0.0133333 0.00333333 0 0.014 0.00333333 0 0.0146667 0.00333333 0 0.0153333 0.00333333 0 0.016 0.00333333 0 0.006 0.004 0 0.00666667 0.004 0 0.00733333 0.004 0 0.008 0.004 0 0.00866667 0.004 0 0.00933333 0.004 0 0.01 0.004 0 0.0106667 0.004 0 0.0113333 0.004 0 0.012 0.004 0 0.0126667 0.004 0 0.0133333 0.004 0 0.014 0.004 0 0.0146667 0.004 0 0.0153333 0.004 0 0.016 0.004 0 0.006 0.00466667 0 0.00666667 0.00466667 0 0.00733333 0.00466667 0 0.008 0.00466667 0 0.00866667 0.00466667 0 0.00933333 0.00466667 0 0.01 0.00466667 0 0.0106667 0.00466667 0 0.0113333 0.00466667 0 0.012 0.00466667 0 0.0126667 0.00466667 0 0.0133333 0.00466667 0 0.014 0.00466667 0 0.0146667 0.00466667 0 0.0153333 0.00466667 0 0.016 0.00466667 0 0.006 0.00533333 0 0.00666667 0.00533333 0 0.00733333 0.00533333 0 0.008 0.00533333 0 0.00866667 0.00533333 0 0.00933333 0.00533333 0 0.01 0.00533333 0 0.0106667 0.00533333 0 0.0113333 0.00533333 0 0.012 0.00533333 0 0.0126667 0.00533333 0 0.0133333 0.00533333 0 0.014 0.00533333 0 0.0146667 0.00533333 0 0.0153333 0.00533333 0 0.016 0.00533333 0 0.006 0.006 0 0.00666667 0.006 0 0.00733333 0.006 0 0.008 0.006 0 0.00866667 0.006 0 0.00933333 0.006 0 0.01 0.006 0 0.0106667 0.006 0 0.0113333 0.006 0 0.012 0.006 0 0.0126667 0.006 0 0.0133333 0.006 0 0.014 0.006 0 0.0146667 0.006 0 0.0153333 0.006 0 0.016 0.006 0 0.006 0.00666667 0 0.00666667 0.00666667 0 0.00733333 0.00666667 0 0.008 0.00666667 0 0.00866667 0.00666667 0 0.00933333 0.00666667 0 0.01 0.00666667 0 0.0106667 0.00666667 0 0.0113333 0.00666667 0 0.012 0.00666667 0 0.0126667 0.00666667 0 0.0133333 0.00666667 0 0.014 0.00666667 0 0.0146667 0.00666667 0 0.0153333 0.00666667 0 0.016 0.00666667 0 0.006 0.00733333 0 0.00666667 0.00733333 0 0.00733333 0.00733333 0 0.008 0.00733333 0 0.00866667 0.00733333 0 0.00933333 0.00733333 0 0.01 0.00733333 0 0.0106667 0.00733333 0 0.0113333 0.00733333 0 0.012 0.00733333 0 0.0126667 0.00733333 0 0.0133333 0.00733333 0 0.014 0.00733333 0 0.0146667 0.00733333 0 0.0153333 0.00733333 0 0.016 0.00733333 0 0.006 0.008 0 0.00666667 0.008 0 0.00733333 0.008 0 0.008 0.008 0 0.00866667 0.008 0 0.00933333 0.008 0 0.01 0.008 0 0.0106667 0.008 0 0.0113333 0.008 0 0.012 0.008 0 0.0126667 0.008 0 0.0133333 0.008 0 0.014 0.008 0 0.0146667 0.008 0 0.0153333 0.008 0 0.016 0.008 0 0.006 0.00866667 0 0.00666667 0.00866667 0 0.00733333 0.00866667 0 0.008 0.00866667 0 0.00866667 0.00866667 0 0.00933333 0.00866667 0 0.01 0.00866667 0 0.0106667 0.00866667 0 0.0113333 0.00866667 0 0.012 0.00866667 0 0.0126667 0.00866667 0 0.0133333 0.00866667 0 0.014 0.00866667 0 0.0146667 0.00866667 0 0.0153333 0.00866667 0 0.016 0.00866667 0 0.006 0.00933333 0 0.00666667 0.00933333 0 0.00733333 0.00933333 0 0.008 0.00933333 0 0.00866667 0.00933333 0 0.00933333 0.00933333 0 0.01 0.00933333 0 0.0106667 0.00933333 0 0.0113333 0.00933333 0 0.012 0.00933333 0 0.0126667 0.00933333 0 0.0133333 0.00933333 0 0.014 0.00933333 0 0.0146667 0.00933333 0 0.0153333 0.00933333 0 0.016 0.00933333 0 0.006 0.01 0 0.00666667 0.01 0 0.00733333 0.01 0 0.008 0.01 0 0.00866667 0.01 0 0.00933333 0.01 0 0.01 0.01 0 0.0106667 0.01 0 0.0113333 0.01 0 0.012 0.01 0 0.0126667 0.01 0 0.0133333 0.01 0 0.014 0.01 0 0.0146667 0.01 0 0.0153333 0.01 0 0.016 0.01 0 
</DataArray>
</Points> 
</Piece> 
</StructuredGrid> 
</VTKFile> 
