<?xml version="1.0"?> 
<VTKFile type="StructuredGrid" version="0.1"> 
<StructuredGrid WholeExtent="0 256 0 256 0 0"> 
<Piece Extent="0 256 0 256 0 0"> 
<CellData>
<DataArray type="Float32" Name="err_h1" format="ascii" NumberOfComponents="1"> 
0.0563159 0.02392 0.0106605 0.00545223 0.00331229 0.00223926 0.0015945 0.00118283 0.000916761 0.000740976 0.000618801 0.000528208 0.000456907 0.00039829 0.000348701 0.000305993 0.000268785 0.000236123 0.000207294 0.000181746 0.000159033 0.000138787 0.000120703 0.000104523 9.00304e-05 7.70417e-05 6.54064e-05 5.50035e-05 4.57443e-05 3.75778e-05 3.05053e-05 2.46059e-05 2.00696e-05 1.71899e-05 1.61823e-05 1.68684e-05 1.86975e-05 2.11154e-05 2.37567e-05 2.64195e-05 2.89993e-05 3.14437e-05 3.37285e-05 3.58439e-05 3.77887e-05 3.95658e-05 4.11804e-05 4.26392e-05 4.39492e-05 4.51173e-05 4.61507e-05 4.70558e-05 4.78391e-05 4.85065e-05 4.90634e-05 4.95152e-05 4.98665e-05 5.01219e-05 5.02853e-05 5.03606e-05 5.03512e-05 5.02604e-05 5.00912e-05 4.98462e-05 4.9528e-05 4.91389e-05 4.86811e-05 4.81565e-05 4.75669e-05 4.69141e-05 4.61995e-05 4.54247e-05 4.4591e-05 4.36995e-05 4.27516e-05 4.17482e-05 4.06905e-05 3.95794e-05 3.84159e-05 3.7201e-05 3.59356e-05 3.46206e-05 3.32571e-05 3.1846e-05 3.03888e-05 2.88866e-05 2.73412e-05 2.57544e-05 2.41288e-05 2.24676e-05 2.0775e-05 1.90571e-05 1.73225e-05 1.55836e-05 1.38601e-05 1.21828e-05 1.06023e-05 9.20263e-06 8.11733e-06 7.52725e-06 7.59342e-06 8.34029e-06 9.6461e-06 1.13499e-05 1.33264e-05 1.54949e-05 1.78062e-05 2.02299e-05 2.2747e-05 2.53451e-05 2.80159e-05 3.07534e-05 3.35537e-05 3.64136e-05 3.93309e-05 4.23038e-05 4.5331e-05 4.84113e-05 5.15438e-05 5.47279e-05 5.79628e-05 6.12479e-05 6.45829e-05 6.79671e-05 7.14003e-05 7.4882e-05 7.84118e-05 8.19894e-05 8.56143e-05 8.92863e-05 9.30049e-05 9.67698e-05 0.000100581 0.000104437 0.000108338 0.000112285 0.000116275 0.000120309 0.000124387 0.000128508 0.000132671 0.000136876 0.000141122 0.000145409 0.000149737 0.000154104 0.000158511 0.000162956 0.000167439 0.000171959 0.000176515 0.000181108 0.000185736 0.000190398 0.000195093 0.000199822 0.000204582 0.000209374 0.000214195 0.000219047 0.000223927 0.000228834 0.000233768 0.000238728 0.000243713 0.000248721 0.000253753 0.000258805 0.000263879 0.000268971 0.000274083 0.000279211 0.000284356 0.000289515 0.000294688 0.000299874 0.000305071 0.000310278 0.000315494 0.000320717 0.000325947 0.000331181 0.000336419 0.00034166 0.0003469 0.000352141 0.000357379 0.000362615 0.000367845 0.000373069 0.000378285 0.000383493 0.000388689 0.000393874 0.000399045 0.000404201 0.00040934 0.000414461 0.000419562 0.000424643 0.0004297 0.000434733 0.000439741 0.00044472 0.000449671 0.000454592 0.00045948 0.000464334 0.000469154 0.000473936 0.00047868 0.000483384 0.000488046 0.000492665 0.00049724 0.000501768 0.000506249 0.00051068 0.00051506 0.000519388 0.000523662 0.00052788 0.000532041 0.000536144 0.000540186 0.000544168 0.000548086 0.00055194 0.000555728 0.000559449 0.000563101 0.000566683 0.000570193 0.000573631 0.000576994 0.000580283 0.000583494 0.000586627 0.000589681 0.000592655 0.000595546 0.000598355 0.000601079 0.000603719 0.000606271 0.000608736 0.000611112 0.000613397 0.000615591 0.000617691 0.000619695 0.000621601 0.000623404 0.000625098 0.000626677 0.000628128 0.0155325 0.00800678 0.00442926 0.00264041 0.00168449 0.00114027 0.000814107 0.000609949 0.000476332 0.000384647 0.000318649 0.000269004 0.000230215 0.000198942 0.000173084 0.000151275 0.000132603 0.00011645 0.00010239 9.01321e-05 7.94801e-05 7.03069e-05 6.25364e-05 5.61271e-05 5.10535e-05 4.72827e-05 4.47515e-05 4.33478e-05 4.29117e-05 4.32527e-05 4.4176e-05 4.55055e-05 4.70949e-05 4.883e-05 5.06258e-05 5.24206e-05 5.4171e-05 5.5847e-05 5.74281e-05 5.89012e-05 6.02583e-05 6.14949e-05 6.26089e-05 6.36003e-05 6.44701e-05 6.52203e-05 6.58534e-05 6.63724e-05 6.67802e-05 6.708e-05 6.7275e-05 6.73684e-05 6.73631e-05 6.72622e-05 6.70684e-05 6.67844e-05 6.64129e-05 6.59561e-05 6.54164e-05 6.47959e-05 6.40965e-05 6.33203e-05 6.24689e-05 6.15439e-05 6.05469e-05 5.94794e-05 5.83426e-05 5.71379e-05 5.58665e-05 5.45295e-05 5.3128e-05 5.16629e-05 5.01354e-05 4.85464e-05 4.68968e-05 4.51878e-05 4.34204e-05 4.15956e-05 3.97146e-05 3.7779e-05 3.57903e-05 3.37506e-05 3.16622e-05 2.95284e-05 2.73534e-05 2.51429e-05 2.29053e-05 2.06525e-05 1.84029e-05 1.61857e-05 1.4049e-05 1.20743e-05 1.04009e-05 9.24771e-06 8.87704e-06 9.43606e-06 1.08288e-05 1.28268e-05 1.52283e-05 1.79019e-05 2.07694e-05 2.37844e-05 2.69189e-05 3.0155e-05 3.34809e-05 3.68887e-05 4.03728e-05 4.39294e-05 4.75553e-05 5.12483e-05 5.50068e-05 5.88292e-05 6.27146e-05 6.66619e-05 7.06704e-05 7.47394e-05 7.88683e-05 8.30565e-05 8.73036e-05 9.16092e-05 9.59727e-05 0.000100394 0.000104872 0.000109407 0.000113998 0.000118644 0.000123347 0.000128104 0.000132916 0.000137782 0.000142701 0.000147674 0.000152699 0.000157776 0.000162904 0.000168084 0.000173314 0.000178593 0.000183922 0.000189299 0.000194724 0.000200195 0.000205713 0.000211277 0.000216886 0.000222538 0.000228234 0.000233972 0.000239752 0.000245572 0.000251431 0.00025733 0.000263266 0.000269239 0.000275248 0.000281291 0.000287368 0.000293478 0.000299619 0.00030579 0.00031199 0.000318219 0.000324473 0.000330754 0.000337058 0.000343386 0.000349735 0.000356104 0.000362493 0.000368899 0.000375321 0.000381757 0.000388207 0.000394669 0.000401141 0.000407622 0.000414111 0.000420605 0.000427103 0.000433604 0.000440106 0.000446608 0.000453107 0.000459603 0.000466093 0.000472576 0.00047905 0.000485514 0.000491965 0.000498403 0.000504825 0.000511229 0.000517615 0.000523979 0.000530321 0.000536638 0.000542929 0.000549192 0.000555425 0.000561627 0.000567795 0.000573928 0.000580023 0.00058608 0.000592096 0.00059807 0.000604 0.000609883 0.000615718 0.000621504 0.000627238 0.000632919 0.000638544 0.000644113 0.000649623 0.000655072 0.000660459 0.000665783 0.00067104 0.00067623 0.000681351 0.000686401 0.000691378 0.000696281 0.000701108 0.000705858 0.000710528 0.000715117 0.000719624 0.000724047 0.000728384 0.000732634 0.000736795 0.000740867 0.000744846 0.000748732 0.000752524 0.000756219 0.000759817 0.000763317 0.000766716 0.000770014 0.000773208 0.000776299 0.000779284 0.000782163 0.000784935 0.000787597 0.00079015 0.000792593 0.000794925 0.000797147 0.00079926 0.000801266 0.00080317 0.000804978 0.00603402 0.00297289 0.00151735 0.000840652 0.000540885 0.000410715 0.000345436 0.000302552 0.000268329 0.000238945 0.000213356 0.000191159 0.000172036 0.000155653 0.000141668 0.000129751 0.000119604 0.000110965 0.000103608 9.73444e-05 9.20128e-05 8.74775e-05 8.36236e-05 8.03529e-05 7.75807e-05 7.52342e-05 7.32498e-05 7.15722e-05 7.01531e-05 6.89503e-05 6.7927e-05 6.70515e-05 6.62958e-05 6.56361e-05 6.50517e-05 6.4525e-05 6.40406e-05 6.35857e-05 6.31492e-05 6.27217e-05 6.22952e-05 6.18629e-05 6.14193e-05 6.09595e-05 6.04795e-05 5.99759e-05 5.9446e-05 5.88873e-05 5.82979e-05 5.76763e-05 5.7021e-05 5.63311e-05 5.56055e-05 5.48436e-05 5.40448e-05 5.32087e-05 5.23348e-05 5.1423e-05 5.04731e-05 4.94848e-05 4.84582e-05 4.73931e-05 4.62896e-05 4.51478e-05 4.39677e-05 4.27494e-05 4.14932e-05 4.01991e-05 3.88674e-05 3.74985e-05 3.60926e-05 3.46502e-05 3.3172e-05 3.16585e-05 3.01105e-05 2.85293e-05 2.69161e-05 2.52728e-05 2.36019e-05 2.19066e-05 2.01916e-05 1.84632e-05 1.6731e-05 1.5009e-05 1.33189e-05 1.16955e-05 1.01951e-05 8.90859e-06 7.97335e-06 7.55654e-06 7.77714e-06 8.61814e-06 9.9513e-06 1.16329e-05 1.35552e-05 1.56487e-05 1.787e-05 2.01925e-05 2.25986e-05 2.5077e-05 2.762e-05 3.02221e-05 3.28794e-05 3.5589e-05 3.83488e-05 4.11571e-05 4.40126e-05 4.69143e-05 4.98613e-05 5.28529e-05 5.58885e-05 5.89677e-05 6.20898e-05 6.52546e-05 6.84616e-05 7.17105e-05 7.5001e-05 7.83327e-05 8.17053e-05 8.51185e-05 8.85721e-05 9.20656e-05 9.55988e-05 9.91714e-05 0.000102783 0.000106433 0.000110122 0.000113848 0.000117612 0.000121414 0.000125252 0.000129127 0.000133037 0.000136983 0.000140965 0.00014498 0.00014903 0.000153114 0.000157231 0.00016138 0.000165561 0.000169774 0.000174018 0.000178292 0.000182595 0.000186928 0.000191289 0.000195677 0.000200093 0.000204535 0.000209002 0.000213495 0.000218011 0.000222551 0.000227113 0.000231697 0.000236302 0.000240926 0.00024557 0.000250233 0.000254912 0.000259609 0.00026432 0.000269047 0.000273787 0.00027854 0.000283304 0.00028808 0.000292865 0.000297658 0.00030246 0.000307268 0.000312081 0.000316899 0.000321721 0.000326545 0.000331369 0.000336194 0.000341018 0.000345839 0.000350658 0.000355471 0.000360279 0.00036508 0.000369872 0.000374656 0.000379428 0.000384189 0.000388938 0.000393671 0.00039839 0.000403091 0.000407775 0.00041244 0.000417084 0.000421706 0.000426306 0.000430881 0.000435431 0.000439954 0.000444449 0.000448914 0.000453349 0.000457753 0.000462123 0.000466459 0.000470759 0.000475023 0.000479248 0.000483434 0.000487579 0.000491683 0.000495744 0.00049976 0.000503731 0.000507655 0.000511531 0.000515357 0.000519134 0.000522859 0.000526532 0.00053015 0.000533714 0.000537221 0.000540672 0.000544063 0.000547396 0.000550668 0.000553878 0.000557026 0.00056011 0.000563129 0.000566082 0.000568969 0.000571788 0.000574538 0.000577218 0.000579828 0.000582367 0.000584833 0.000587226 0.000589545 0.000591789 0.000593958 0.00059605 0.000598065 0.000600003 0.000601862 0.000603642 0.000605343 0.000606963 0.000608503 0.000609961 0.000611337 0.00061263 0.000613839 0.003443 0.0019106 0.00113439 0.000730241 0.000512115 0.000389243 0.000316362 0.000270264 0.000238826 0.000215687 0.000197503 0.000182493 0.00016969 0.000158542 0.000148719 0.000140001 0.000132234 0.000125298 0.000119095 0.000113541 0.000108562 0.000104093 0.000100075 9.64572e-05 9.31916e-05 9.02366e-05 8.75548e-05 8.51128e-05 8.28808e-05 8.08325e-05 7.89442e-05 7.71949e-05 7.55661e-05 7.40412e-05 7.26056e-05 7.12462e-05 6.99515e-05 6.87111e-05 6.75161e-05 6.63583e-05 6.52305e-05 6.41263e-05 6.30402e-05 6.19669e-05 6.09021e-05 5.98416e-05 5.87821e-05 5.77203e-05 5.66532e-05 5.55786e-05 5.44939e-05 5.33973e-05 5.22869e-05 5.1161e-05 5.00183e-05 4.88574e-05 4.76772e-05 4.64764e-05 4.52544e-05 4.40101e-05 4.27428e-05 4.14519e-05 4.01368e-05 3.87968e-05 3.74317e-05 3.6041e-05 3.46244e-05 3.31817e-05 3.17128e-05 3.02176e-05 2.86964e-05 2.71492e-05 2.55766e-05 2.39794e-05 2.23584e-05 2.07155e-05 1.90528e-05 1.73737e-05 1.56834e-05 1.39898e-05 1.23056e-05 1.06518e-05 9.06538e-06 7.61317e-06 6.41741e-06 5.6782e-06 5.61597e-06 6.28381e-06 7.5169e-06 9.11162e-06 1.09306e-05 1.28966e-05 1.49669e-05 1.71173e-05 1.93334e-05 2.1606e-05 2.39293e-05 2.62993e-05 2.87133e-05 3.11693e-05 3.36657e-05 3.62016e-05 3.87762e-05 4.13886e-05 4.40384e-05 4.67251e-05 4.94485e-05 5.2208e-05 5.50036e-05 5.78348e-05 6.07015e-05 6.36035e-05 6.65405e-05 6.95123e-05 7.25188e-05 7.55595e-05 7.86345e-05 8.17434e-05 8.48859e-05 8.8062e-05 9.12713e-05 9.45136e-05 9.77885e-05 0.000101096 0.000104435 0.000107807 0.00011121 0.000114644 0.000118108 0.000121604 0.000125129 0.000128684 0.000132269 0.000135882 0.000139524 0.000143194 0.000146892 0.000150617 0.000154368 0.000158146 0.000161949 0.000165778 0.000169631 0.000173508 0.000177408 0.000181331 0.000185277 0.000189244 0.000193232 0.000197241 0.000201269 0.000205317 0.000209382 0.000213466 0.000217566 0.000221682 0.000225814 0.00022996 0.000234121 0.000238294 0.00024248 0.000246678 0.000250886 0.000255104 0.000259331 0.000263566 0.000267808 0.000272057 0.000276312 0.00028057 0.000284833 0.000289098 0.000293365 0.000297633 0.000301901 0.000306168 0.000310433 0.000314695 0.000318953 0.000323206 0.000327453 0.000331693 0.000335924 0.000340147 0.00034436 0.000348562 0.000352751 0.000356928 0.00036109 0.000365237 0.000369367 0.00037348 0.000377575 0.00038165 0.000385704 0.000389737 0.000393747 0.000397733 0.000401695 0.00040563 0.000409539 0.000413419 0.000417271 0.000421092 0.000424882 0.000428639 0.000432363 0.000436053 0.000439708 0.000443326 0.000446906 0.000450448 0.00045395 0.000457412 0.000460832 0.000464209 0.000467543 0.000470832 0.000474075 0.000477273 0.000480422 0.000483523 0.000486575 0.000489576 0.000492526 0.000495424 0.000498269 0.00050106 0.000503796 0.000506476 0.0005091 0.000511666 0.000514175 0.000516624 0.000519013 0.000521342 0.00052361 0.000525815 0.000527958 0.000530037 0.000532052 0.000534002 0.000535886 0.000537704 0.000539456 0.00054114 0.000542757 0.000544305 0.000545785 0.000547195 0.000548536 0.000549808 0.000551011 0.000552145 0.000553212 0.000554213 0.00138809 0.000670435 0.000364894 0.000274665 0.00026032 0.000256433 0.000249262 0.000238713 0.000226435 0.00021369 0.000201219 0.000189404 0.000178408 0.000168276 0.000158989 0.000150498 0.000142741 0.000135653 0.00012917 0.000123233 0.000117788 0.000112786 0.000108182 0.000103936 0.000100011 9.6377e-05 9.30031e-05 8.98634e-05 8.69342e-05 8.41942e-05 8.1624e-05 7.92062e-05 7.6925e-05 7.4766e-05 7.27164e-05 7.07645e-05 6.88995e-05 6.71119e-05 6.53929e-05 6.37345e-05 6.21297e-05 6.05717e-05 5.90547e-05 5.75733e-05 5.61225e-05 5.46978e-05 5.32951e-05 5.19107e-05 5.05412e-05 4.91835e-05 4.78348e-05 4.64924e-05 4.5154e-05 4.38174e-05 4.24807e-05 4.1142e-05 3.97997e-05 3.84523e-05 3.70984e-05 3.57367e-05 3.43663e-05 3.2986e-05 3.1595e-05 3.01925e-05 2.8778e-05 2.73509e-05 2.59108e-05 2.44577e-05 2.29915e-05 2.15126e-05 2.00216e-05 1.85198e-05 1.7009e-05 1.54921e-05 1.39737e-05 1.2461e-05 1.09653e-05 9.50582e-06 8.11557e-06 6.85341e-06 5.82376e-06 5.19085e-06 5.12892e-06 5.67952e-06 6.71287e-06 8.06195e-06 9.60904e-06 1.12856e-05 1.30529e-05 1.48888e-05 1.67799e-05 1.87177e-05 2.06968e-05 2.27135e-05 2.47653e-05 2.68503e-05 2.89672e-05 3.1115e-05 3.32931e-05 3.55007e-05 3.77375e-05 4.00031e-05 4.22971e-05 4.46194e-05 4.69696e-05 4.93477e-05 5.17534e-05 5.41866e-05 5.6647e-05 5.91346e-05 6.16492e-05 6.41906e-05 6.67586e-05 6.93531e-05 7.1974e-05 7.46211e-05 7.72941e-05 7.99929e-05 8.27173e-05 8.5467e-05 8.82419e-05 9.10417e-05 9.38662e-05 9.67151e-05 9.95882e-05 0.000102485 0.000105406 0.00010835 0.000111317 0.000114306 0.000117318 0.000120352 0.000123408 0.000126485 0.000129583 0.000132701 0.00013584 0.000138998 0.000142175 0.000145372 0.000148587 0.00015182 0.00015507 0.000158337 0.000161621 0.000164921 0.000168236 0.000171566 0.000174911 0.00017827 0.000181642 0.000185026 0.000188423 0.000191831 0.00019525 0.00019868 0.000202119 0.000205568 0.000209024 0.000212489 0.000215961 0.000219439 0.000222922 0.000226411 0.000229905 0.000233402 0.000236901 0.000240404 0.000243907 0.000247411 0.000250916 0.000254419 0.000257922 0.000261421 0.000264918 0.000268411 0.000271899 0.000275382 0.000278859 0.000282329 0.000285791 0.000289245 0.000292689 0.000296123 0.000299545 0.000302956 0.000306355 0.00030974 0.00031311 0.000316466 0.000319805 0.000323128 0.000326433 0.00032972 0.000332987 0.000336234 0.000339461 0.000342665 0.000345847 0.000349006 0.00035214 0.000355249 0.000358332 0.000361389 0.000364418 0.000367419 0.000370391 0.000373333 0.000376244 0.000379123 0.00038197 0.000384785 0.000387565 0.000390311 0.000393021 0.000395695 0.000398333 0.000400932 0.000403494 0.000406016 0.000408498 0.00041094 0.000413341 0.0004157 0.000418016 0.000420288 0.000422517 0.000424702 0.000426841 0.000428934 0.00043098 0.00043298 0.000434931 0.000436834 0.000438689 0.000440493 0.000442248 0.000443952 0.000445605 0.000447206 0.000448755 0.000450251 0.000451693 0.000453082 0.000454416 0.000455695 0.000456919 0.000458087 0.000459197 0.000460251 0.000461246 0.000462182 0.000463058 0.000463873 0.000464624 0.00046531 0.000937937 0.000571596 0.000392485 0.000302613 0.000254281 0.000225586 0.000206669 0.00019292 0.000182051 0.000172875 0.000164757 0.000157359 0.000150497 0.000144072 0.000138026 0.000132328 0.000126953 0.000121884 0.000117104 0.000112599 0.000108352 0.000104349 0.000100573 9.70103e-05 9.36457e-05 9.04649e-05 8.74544e-05 8.46012e-05 8.1893e-05 7.93182e-05 7.68661e-05 7.45265e-05 7.22898e-05 7.01474e-05 6.80908e-05 6.61125e-05 6.42055e-05 6.23631e-05 6.05792e-05 5.88483e-05 5.71651e-05 5.55248e-05 5.39228e-05 5.2355e-05 5.08177e-05 4.93072e-05 4.78203e-05 4.63539e-05 4.49052e-05 4.34716e-05 4.20506e-05 4.06401e-05 3.92379e-05 3.78422e-05 3.64511e-05 3.5063e-05 3.36766e-05 3.22902e-05 3.09028e-05 2.95131e-05 2.81201e-05 2.6723e-05 2.5321e-05 2.39133e-05 2.24996e-05 2.10796e-05 1.96532e-05 1.82206e-05 1.67826e-05 1.53403e-05 1.38959e-05 1.2453e-05 1.10173e-05 9.59845e-06 8.21324e-06 6.89223e-06 5.69332e-06 4.72708e-06 4.17846e-06 4.23386e-06 4.89069e-06 5.96838e-06 7.29536e-06 8.77007e-06 1.03392e-05 1.19741e-05 1.3659e-05 1.53845e-05 1.71447e-05 1.8936e-05 2.07557e-05 2.26023e-05 2.44746e-05 2.63717e-05 2.8293e-05 3.0238e-05 3.22063e-05 3.41977e-05 3.62121e-05 3.82491e-05 4.03087e-05 4.23908e-05 4.44952e-05 4.66218e-05 4.87706e-05 5.09414e-05 5.31342e-05 5.53488e-05 5.75852e-05 5.98433e-05 6.21229e-05 6.4424e-05 6.67463e-05 6.90898e-05 7.14543e-05 7.38397e-05 7.62458e-05 7.86725e-05 8.11195e-05 8.35867e-05 8.60739e-05 8.85809e-05 9.11075e-05 9.36534e-05 9.62183e-05 9.88022e-05 0.000101405 0.000104025 0.000106664 0.000109321 0.000111995 0.000114686 0.000117394 0.000120118 0.000122859 0.000125615 0.000128387 0.000131174 0.000133976 0.000136792 0.000139622 0.000142465 0.000145322 0.000148191 0.000151072 0.000153965 0.00015687 0.000159785 0.00016271 0.000165646 0.000168591 0.000171544 0.000174506 0.000177476 0.000180454 0.000183438 0.000186428 0.000189424 0.000192425 0.00019543 0.00019844 0.000201453 0.000204469 0.000207487 0.000210507 0.000213528 0.000216549 0.00021957 0.00022259 0.000225609 0.000228626 0.00023164 0.00023465 0.000237657 0.000240659 0.000243655 0.000246646 0.00024963 0.000252606 0.000255575 0.000258535 0.000261485 0.000264426 0.000267356 0.000270275 0.000273181 0.000276075 0.000278955 0.000281822 0.000284673 0.000287509 0.000290329 0.000293132 0.000295918 0.000298685 0.000301433 0.000304162 0.000306871 0.000309559 0.000312225 0.000314869 0.000317489 0.000320087 0.00032266 0.000325208 0.00032773 0.000330226 0.000332696 0.000335138 0.000337551 0.000339936 0.000342291 0.000344617 0.000346911 0.000349175 0.000351406 0.000353605 0.000355771 0.000357903 0.000360001 0.000362064 0.000364091 0.000366083 0.000368038 0.000369956 0.000371836 0.000373678 0.000375482 0.000377246 0.000378971 0.000380655 0.000382299 0.000383902 0.000385463 0.000386981 0.000388458 0.000389891 0.000391281 0.000392627 0.000393929 0.000395187 0.000396399 0.000397566 0.000398688 0.000399763 0.000400792 0.000401775 0.000402711 0.000403601 0.000404443 0.000405239 0.000405989 0.000406692 0.000407351 0.000407965 0.000408538 0.00033487 0.000193801 0.000164993 0.000167549 0.000170704 0.000170161 0.000166847 0.000161974 0.00015636 0.000150488 0.000144624 0.00013891 0.000133415 0.00012817 0.000123181 0.000118445 0.000113953 0.000109692 0.00010565 0.000101813 9.81674e-05 9.47019e-05 9.14044e-05 8.8264e-05 8.52702e-05 8.2413e-05 7.96833e-05 7.70722e-05 7.45714e-05 7.21732e-05 6.98702e-05 6.76554e-05 6.55224e-05 6.3465e-05 6.14775e-05 5.95544e-05 5.76907e-05 5.58816e-05 5.41226e-05 5.24095e-05 5.07384e-05 4.91057e-05 4.75079e-05 4.59417e-05 4.44042e-05 4.28925e-05 4.14039e-05 3.99362e-05 3.84868e-05 3.70537e-05 3.56349e-05 3.42285e-05 3.28328e-05 3.14461e-05 3.00669e-05 2.8694e-05 2.73259e-05 2.59617e-05 2.46002e-05 2.32405e-05 2.1882e-05 2.05239e-05 1.9166e-05 1.7808e-05 1.64501e-05 1.50927e-05 1.37372e-05 1.23855e-05 1.10412e-05 9.71006e-06 8.40217e-06 7.13531e-06 5.94245e-06 4.8869e-06 4.08807e-06 3.72866e-06 3.94444e-06 4.66798e-06 5.71959e-06 6.96069e-06 8.31442e-06 9.74064e-06 1.12178e-05 1.27337e-05 1.42811e-05 1.58555e-05 1.7454e-05 1.90745e-05 2.07159e-05 2.23772e-05 2.40577e-05 2.5757e-05 2.74747e-05 2.92106e-05 3.09644e-05 3.27362e-05 3.45256e-05 3.63328e-05 3.81576e-05 3.99998e-05 4.18596e-05 4.37367e-05 4.56312e-05 4.75432e-05 4.94723e-05 5.14186e-05 5.33821e-05 5.53626e-05 5.736e-05 5.93744e-05 6.14056e-05 6.34534e-05 6.55178e-05 6.75986e-05 6.96959e-05 7.18093e-05 7.39387e-05 7.60841e-05 7.82452e-05 8.04218e-05 8.26138e-05 8.48211e-05 8.70433e-05 8.92803e-05 9.15318e-05 9.37977e-05 9.60777e-05 9.83716e-05 0.000100679 0.000103 0.000105334 0.000107681 0.00011004 0.000112411 0.000114795 0.00011719 0.000119596 0.000122013 0.000124441 0.00012688 0.000129328 0.000131785 0.000134252 0.000136728 0.000139212 0.000141705 0.000144204 0.000146712 0.000149226 0.000151746 0.000154272 0.000156804 0.000159341 0.000161883 0.000164429 0.000166979 0.000169532 0.000172088 0.000174646 0.000177206 0.000179767 0.00018233 0.000184893 0.000187455 0.000190017 0.000192578 0.000195138 0.000197695 0.000200249 0.000202801 0.000205348 0.000207892 0.00021043 0.000212964 0.000215491 0.000218012 0.000220526 0.000223033 0.000225532 0.000228022 0.000230503 0.000232974 0.000235435 0.000237885 0.000240324 0.000242751 0.000245165 0.000247566 0.000249954 0.000252328 0.000254687 0.000257031 0.000259359 0.000261671 0.000263965 0.000266243 0.000268502 0.000270743 0.000272965 0.000275167 0.000277349 0.000279511 0.000281651 0.00028377 0.000285866 0.00028794 0.00028999 0.000292016 0.000294019 0.000295996 0.000297948 0.000299875 0.000301775 0.000303648 0.000305494 0.000307312 0.000309102 0.000310864 0.000312596 0.000314299 0.000315972 0.000317615 0.000319226 0.000320807 0.000322355 0.000323872 0.000325356 0.000326807 0.000328224 0.000329608 0.000330958 0.000332273 0.000333554 0.000334799 0.000336009 0.000337183 0.000338321 0.000339422 0.000340487 0.000341514 0.000342504 0.000343456 0.00034437 0.000345245 0.000346082 0.00034688 0.000347638 0.000348357 0.000349035 0.000349674 0.000350271 0.000350826 0.000351339 0.000351808 0.000352232 0.000352609 0.000309274 0.000226095 0.00018588 0.000164598 0.000151785 0.000143041 0.00013642 0.00013098 0.000126228 0.000121898 0.000117841 0.000113979 0.000110266 0.000106683 0.000103217 9.98639e-05 9.662e-05 9.34838e-05 9.04535e-05 8.75271e-05 8.47023e-05 8.1976e-05 7.93449e-05 7.68057e-05 7.43544e-05 7.19871e-05 6.96999e-05 6.74886e-05 6.53493e-05 6.3278e-05 6.12708e-05 5.93239e-05 5.74336e-05 5.55964e-05 5.38087e-05 5.20675e-05 5.03694e-05 4.87115e-05 4.70909e-05 4.55048e-05 4.39506e-05 4.24259e-05 4.09283e-05 3.94555e-05 3.80055e-05 3.65762e-05 3.51658e-05 3.37725e-05 3.23945e-05 3.10304e-05 2.96786e-05 2.83377e-05 2.70064e-05 2.56836e-05 2.43682e-05 2.3059e-05 2.17553e-05 2.04563e-05 1.91614e-05 1.78699e-05 1.65818e-05 1.52969e-05 1.40155e-05 1.27386e-05 1.14676e-05 1.02054e-05 8.95679e-06 7.73008e-06 6.5402e-06 5.41521e-06 4.41049e-06 3.63465e-06 3.2646e-06 3.4435e-06 4.10854e-06 5.07923e-06 6.22031e-06 7.45947e-06 8.76018e-06 1.01032e-05 1.14778e-05 1.28778e-05 1.42992e-05 1.57396e-05 1.71975e-05 1.86716e-05 2.01613e-05 2.1666e-05 2.31854e-05 2.47193e-05 2.62674e-05 2.78297e-05 2.94061e-05 3.09964e-05 3.26008e-05 3.42191e-05 3.58513e-05 3.74974e-05 3.91574e-05 4.08313e-05 4.2519e-05 4.42206e-05 4.59359e-05 4.76649e-05 4.94076e-05 5.1164e-05 5.2934e-05 5.47175e-05 5.65145e-05 5.83249e-05 6.01485e-05 6.19854e-05 6.38354e-05 6.56984e-05 6.75742e-05 6.94628e-05 7.1364e-05 7.32777e-05 7.52037e-05 7.71418e-05 7.9092e-05 8.1054e-05 8.30276e-05 8.50127e-05 8.7009e-05 8.90164e-05 9.10347e-05 9.30635e-05 9.51028e-05 9.71521e-05 9.92114e-05 0.00010128 0.000103359 0.000105446 0.000107543 0.000109648 0.000111761 0.000113882 0.000116011 0.000118148 0.000120291 0.000122441 0.000124598 0.000126761 0.00012893 0.000131104 0.000133283 0.000135467 0.000137655 0.000139848 0.000142044 0.000144243 0.000146445 0.00014865 0.000150857 0.000153065 0.000155275 0.000157486 0.000159697 0.000161908 0.000164119 0.00016633 0.000168539 0.000170746 0.000172952 0.000175155 0.000177355 0.000179552 0.000181745 0.000183934 0.000186118 0.000188297 0.000190471 0.000192638 0.000194799 0.000196953 0.0001991 0.000201239 0.000203369 0.000205491 0.000207604 0.000209707 0.0002118 0.000213882 0.000215953 0.000218013 0.000220061 0.000222096 0.000224118 0.000226128 0.000228123 0.000230104 0.00023207 0.000234022 0.000235957 0.000237877 0.00023978 0.000241666 0.000243535 0.000245385 0.000247218 0.000249032 0.000250827 0.000252602 0.000254358 0.000256093 0.000257807 0.0002595 0.000261171 0.000262821 0.000264448 0.000266052 0.000267633 0.00026919 0.000270723 0.000272232 0.000273716 0.000275176 0.000276609 0.000278017 0.000279399 0.000280754 0.000282082 0.000283384 0.000284657 0.000285903 0.000287121 0.00028831 0.00028947 0.000290601 0.000291703 0.000292775 0.000293817 0.000294829 0.000295811 0.000296761 0.000297681 0.000298569 0.000299426 0.000300251 0.000301044 0.000301805 0.000302533 0.000303229 0.000303892 0.000304522 0.000305119 0.000305683 0.000306213 0.00030671 0.000307174 0.000307604 0.000308002 0.000308367 0.000308701 0.000309005 0.000124846 0.000113538 0.000114618 0.00011598 0.000115746 0.000114208 0.000111858 0.00010906 0.000106045 0.000102949 9.9852e-05 9.67982e-05 9.38116e-05 9.0904e-05 8.80805e-05 8.53423e-05 8.26885e-05 8.01171e-05 7.76253e-05 7.52105e-05 7.28695e-05 7.05995e-05 6.83973e-05 6.62602e-05 6.41852e-05 6.21695e-05 6.02103e-05 5.83049e-05 5.64506e-05 5.46448e-05 5.2885e-05 5.11687e-05 4.94935e-05 4.7857e-05 4.62569e-05 4.46911e-05 4.31575e-05 4.16539e-05 4.01785e-05 3.87293e-05 3.73046e-05 3.59026e-05 3.45216e-05 3.31602e-05 3.18166e-05 3.04896e-05 2.91777e-05 2.78797e-05 2.65944e-05 2.53205e-05 2.40571e-05 2.28032e-05 2.15578e-05 2.03201e-05 1.90895e-05 1.78652e-05 1.66469e-05 1.54342e-05 1.42271e-05 1.30258e-05 1.1831e-05 1.06441e-05 9.46749e-06 8.3053e-06 7.1649e-06 6.05922e-06 5.01293e-06 4.07458e-06 3.3404e-06 2.97139e-06 3.10647e-06 3.69613e-06 4.57247e-06 5.60685e-06 6.73062e-06 7.9093e-06 9.12487e-06 1.03674e-05 1.1631e-05 1.29122e-05 1.42087e-05 1.5519e-05 1.68422e-05 1.81777e-05 1.95249e-05 2.08837e-05 2.22537e-05 2.36348e-05 2.50271e-05 2.64303e-05 2.78445e-05 2.92697e-05 3.07058e-05 3.21529e-05 3.36109e-05 3.50799e-05 3.65598e-05 3.80507e-05 3.95526e-05 4.10653e-05 4.2589e-05 4.41236e-05 4.56692e-05 4.72256e-05 4.8793e-05 5.0371e-05 5.19596e-05 5.3559e-05 5.51689e-05 5.67893e-05 5.84202e-05 6.00613e-05 6.17127e-05 6.33743e-05 6.50459e-05 6.67273e-05 6.84186e-05 7.01195e-05 7.18299e-05 7.35497e-05 7.52786e-05 7.70167e-05 7.87636e-05 8.05192e-05 8.22834e-05 8.40559e-05 8.58365e-05 8.76251e-05 8.94214e-05 9.12253e-05 9.30365e-05 9.48548e-05 9.66799e-05 9.85117e-05 0.00010035 0.000102194 0.000104044 0.0001059 0.000107761 0.000109627 0.000111498 0.000113374 0.000115254 0.000117138 0.000119025 0.000120916 0.00012281 0.000124706 0.000126605 0.000128507 0.00013041 0.000132314 0.00013422 0.000136126 0.000138033 0.00013994 0.000141847 0.000143753 0.000145658 0.000147562 0.000149465 0.000151365 0.000153263 0.000155159 0.000157051 0.00015894 0.000160825 0.000162706 0.000164583 0.000166454 0.000168321 0.000170181 0.000172036 0.000173884 0.000175725 0.00017756 0.000179386 0.000181205 0.000183015 0.000184817 0.000186609 0.000188392 0.000190166 0.000191929 0.000193681 0.000195423 0.000197153 0.000198871 0.000200577 0.000202271 0.000203952 0.00020562 0.000207274 0.000208914 0.000210539 0.000212151 0.000213747 0.000215327 0.000216892 0.000218441 0.000219973 0.000221488 0.000222986 0.000224467 0.00022593 0.000227375 0.000228801 0.000230208 0.000231596 0.000232965 0.000234314 0.000235642 0.000236951 0.000238238 0.000239504 0.00024075 0.000241973 0.000243175 0.000244354 0.000245511 0.000246645 0.000247756 0.000248843 0.000249907 0.000250948 0.000251964 0.000252956 0.000253923 0.000254865 0.000255783 0.000256675 0.000257542 0.000258382 0.000259197 0.000259986 0.000260749 0.000261485 0.000262194 0.000262876 0.000263532 0.00026416 0.00026476 0.000265333 0.000265878 0.000266396 0.000266885 0.000267345 0.000267778 0.000268182 0.000268556 0.000268902 0.000269218 0.000269505 0.00026976 0.000269985 0.000270177 0.000136443 0.000118728 0.000109005 0.000102845 9.84166e-05 9.49044e-05 9.19107e-05 8.92228e-05 8.6722e-05 8.434e-05 8.20384e-05 7.97958e-05 7.76011e-05 7.54487e-05 7.33365e-05 7.12637e-05 6.92306e-05 6.72374e-05 6.52845e-05 6.3372e-05 6.14999e-05 5.96677e-05 5.78749e-05 5.61207e-05 5.44044e-05 5.27249e-05 5.10809e-05 4.94714e-05 4.78951e-05 4.63506e-05 4.48366e-05 4.33519e-05 4.18949e-05 4.04644e-05 3.9059e-05 3.76774e-05 3.63183e-05 3.49805e-05 3.36626e-05 3.23636e-05 3.10821e-05 2.98171e-05 2.85675e-05 2.73321e-05 2.61101e-05 2.49005e-05 2.37023e-05 2.25146e-05 2.13368e-05 2.01679e-05 1.90074e-05 1.78545e-05 1.67089e-05 1.55701e-05 1.44379e-05 1.33121e-05 1.2193e-05 1.10812e-05 9.97762e-06 8.88443e-06 7.80496e-06 6.74518e-06 5.71574e-06 4.73661e-06 3.84707e-06 3.12633e-06 2.71508e-06 2.75887e-06 3.24271e-06 4.01352e-06 4.94166e-06 5.95671e-06 7.02357e-06 8.12417e-06 9.2487e-06 1.03914e-05 1.1549e-05 1.27191e-05 1.39006e-05 1.50923e-05 1.62938e-05 1.75046e-05 1.87245e-05 1.99532e-05 2.11907e-05 2.24369e-05 2.36918e-05 2.49552e-05 2.62274e-05 2.75081e-05 2.87975e-05 3.00956e-05 3.14024e-05 3.27179e-05 3.40421e-05 3.53751e-05 3.67168e-05 3.80672e-05 3.94264e-05 4.07943e-05 4.2171e-05 4.35562e-05 4.495e-05 4.63525e-05 4.77635e-05 4.91832e-05 5.06114e-05 5.2048e-05 5.34929e-05 5.49461e-05 5.64074e-05 5.7877e-05 5.93545e-05 6.08399e-05 6.23332e-05 6.38342e-05 6.53427e-05 6.68587e-05 6.83821e-05 6.99127e-05 7.14503e-05 7.29948e-05 7.45462e-05 7.6104e-05 7.76684e-05 7.9239e-05 8.08157e-05 8.23983e-05 8.39867e-05 8.55805e-05 8.71797e-05 8.87841e-05 9.03934e-05 9.20073e-05 9.36258e-05 9.52486e-05 9.68754e-05 9.85061e-05 0.00010014 0.000101778 0.000103419 0.000105062 0.000106708 0.000108357 0.000110008 0.00011166 0.000113314 0.000114969 0.000116626 0.000118283 0.000119941 0.000121598 0.000123256 0.000124913 0.00012657 0.000128226 0.00012988 0.000131533 0.000133184 0.000134833 0.000136479 0.000138123 0.000139763 0.0001414 0.000143034 0.000144663 0.000146288 0.000147908 0.000149524 0.000151134 0.000152738 0.000154337 0.000155929 0.000157515 0.000159094 0.000160666 0.00016223 0.000163787 0.000165335 0.000166875 0.000168406 0.000169928 0.00017144 0.000172943 0.000174436 0.000175918 0.00017739 0.000178851 0.0001803 0.000181738 0.000183164 0.000184578 0.000185979 0.000187367 0.000188742 0.000190104 0.000191452 0.000192786 0.000194106 0.000195411 0.000196701 0.000197976 0.000