<?xml version="1.0"?> 
<VTKFile type="StructuredGrid" version="0.1"> 
<StructuredGrid WholeExtent="0 256 0 256 0 0"> 
<Piece Extent="0 256 0 256 0 0"> 
<CellData>
<DataArray type="Float32" Name="err_h1" format="ascii" NumberOfComponents="1"> 
0.689723 0.212447 0.0847107 0.0481953 0.0305367 0.0205947 0.0150712 0.0116806 0.00926609 0.00740807 0.00595639 0.00482419 0.00394311 0.00325481 0.00271316 0.00228279 0.0019374 0.00165745 0.00142844 0.00123947 0.00108229 0.000950546 0.000839359 0.000744902 0.000664164 0.000594757 0.00053477 0.000482662 0.000437184 0.000397317 0.000362221 0.000331204 0.00030369 0.000279197 0.000257322 0.000237724 0.000220113 0.000204243 0.000189904 0.000176915 0.000165121 0.000154387 0.000144596 0.000135648 0.000127452 0.000119932 0.00011302 0.000106654 0.000100783 9.53589e-05 9.03403e-05 8.56899e-05 8.1375e-05 7.73657e-05 7.36356e-05 7.01611e-05 6.69207e-05 6.38953e-05 6.10675e-05 5.84215e-05 5.59433e-05 5.36199e-05 5.14395e-05 4.93917e-05 4.74666e-05 4.56555e-05 4.39503e-05 4.23435e-05 4.08284e-05 3.93988e-05 3.8049e-05 3.67736e-05 3.55681e-05 3.44277e-05 3.33485e-05 3.23267e-05 3.13588e-05 3.04415e-05 2.95719e-05 2.87471e-05 2.79647e-05 2.72221e-05 2.65172e-05 2.58479e-05 2.52123e-05 2.46086e-05 2.40351e-05 2.34903e-05 2.29728e-05 2.24811e-05 2.20141e-05 2.15705e-05 2.11492e-05 2.07493e-05 2.03697e-05 2.00095e-05 1.9668e-05 1.93442e-05 1.90376e-05 1.87472e-05 1.84726e-05 1.82135e-05 1.79685e-05 1.77376e-05 1.75203e-05 1.7316e-05 1.71244e-05 1.6945e-05 1.67775e-05 1.66215e-05 1.64766e-05 1.63427e-05 1.62193e-05 1.61063e-05 1.60033e-05 1.59103e-05 1.58268e-05 1.57529e-05 1.56882e-05 1.56327e-05 1.55862e-05 1.55486e-05 1.55197e-05 1.54995e-05 1.54879e-05 1.54848e-05 1.54902e-05 1.5504e-05 1.55262e-05 1.55568e-05 1.55957e-05 1.5643e-05 1.56988e-05 1.57629e-05 1.58355e-05 1.59166e-05 1.60064e-05 1.61048e-05 1.62119e-05 1.6328e-05 1.6453e-05 1.65872e-05 1.67306e-05 1.68835e-05 1.70461e-05 1.72184e-05 1.74007e-05 1.75933e-05 1.77964e-05 1.80103e-05 1.82351e-05 1.84714e-05 1.87192e-05 1.8979e-05 1.92512e-05 1.95361e-05 1.98342e-05 2.01459e-05 2.04716e-05 2.08118e-05 2.11671e-05 2.15381e-05 2.19253e-05 2.23294e-05 2.27509e-05 2.31908e-05 2.36495e-05 2.41282e-05 2.46275e-05 2.51483e-05 2.56917e-05 2.62586e-05 2.68503e-05 2.74677e-05 2.81123e-05 2.87853e-05 2.94882e-05 3.02225e-05 3.09897e-05 3.17917e-05 3.26302e-05 3.35074e-05 3.44252e-05 3.53862e-05 3.63926e-05 3.74472e-05 3.85527e-05 3.97123e-05 4.09292e-05 4.2207e-05 4.35497e-05 4.49613e-05 4.64464e-05 4.80099e-05 4.96571e-05 5.13938e-05 5.32263e-05 5.51615e-05 5.72068e-05 5.93706e-05 6.16617e-05 6.409e-05 6.66664e-05 6.94028e-05 7.23124e-05 7.54098e-05 7.8711e-05 8.22341e-05 8.59989e-05 9.00276e-05 9.43451e-05 9.89794e-05 0.000103962 0.000109327 0.000115116 0.000121373 0.000128151 0.000135507 0.00014351 0.000152237 0.000161778 0.000172238 0.000183738 0.000196421 0.000210458 0.000226047 0.000243431 0.000262898 0.000284804 0.000309585 0.000337782 0.000370083 0.000407367 0.000450783 0.000501854 0.000562638 0.000635977 0.000725864 0.00083802 0.000980794 0.0011665 0.00141342 0.00174834 0.00220931 0.00284622 0.00371619 0.00486219 0.00626493 0.00773871 0.00879548 0.00878049 0.00987613 0.0219136 0.0458777 0.0652354 0.121888 0.242158 0.102461 0.0467491 0.0246468 0.0157188 0.0113296 0.00842641 0.00623184 0.00456179 0.00333357 0.00246956 0.00188935 0.0015158 0.00128007 0.0011276 0.0010212 0.000938952 0.000869445 0.000807238 0.000749939 0.000696572 0.000646758 0.000600337 0.000557205 0.000517248 0.000480331 0.000446293 0.00041496 0.000386145 0.000359665 0.000335335 0.000312982 0.000292439 0.000273552 0.000256176 0.00024018 0.000225443 0.000211852 0.000199308 0.00018772 0.000177002 0.000167081 0.000157888 0.00014936 0.000141442 0.000134083 0.000127236 0.00012086 0.000114916 0.00010937 0.000104191 9.93503e-05 9.48212e-05 9.05804e-05 8.66062e-05 8.28789e-05 7.93803e-05 7.60939e-05 7.30046e-05 7.00984e-05 6.73627e-05 6.47857e-05 6.23567e-05 6.00658e-05 5.79038e-05 5.58623e-05 5.39336e-05 5.21105e-05 5.03864e-05 4.87552e-05 4.72111e-05 4.5749e-05 4.43639e-05 4.30514e-05 4.18072e-05 4.06274e-05 3.95085e-05 3.84469e-05 3.74396e-05 3.64837e-05 3.55765e-05 3.47153e-05 3.38978e-05 3.31218e-05 3.23851e-05 3.1686e-05 3.10225e-05 3.0393e-05 2.97958e-05 2.92296e-05 2.86928e-05 2.81842e-05 2.77026e-05 2.72468e-05 2.68158e-05 2.64086e-05 2.60241e-05 2.56617e-05 2.53202e-05 2.49992e-05 2.4698e-05 2.44153e-05 2.41512e-05 2.39047e-05 2.36755e-05 2.34628e-05 2.32664e-05 2.30856e-05 2.29201e-05 2.27696e-05 2.26336e-05 2.25118e-05 2.2404e-05 2.23098e-05 2.2229e-05 2.21613e-05 2.21066e-05 2.20647e-05 2.20354e-05 2.20185e-05 2.2014e-05 2.20216e-05 2.20414e-05 2.20733e-05 2.21171e-05 2.2173e-05 2.22408e-05 2.23205e-05 2.24123e-05 2.2516e-05 2.26318e-05 2.27598e-05 2.28999e-05 2.30524e-05 2.32174e-05 2.33949e-05 2.35852e-05 2.37885e-05 2.40049e-05 2.42346e-05 2.4478e-05 2.47352e-05 2.50066e-05 2.52923e-05 2.55929e-05 2.59085e-05 2.62398e-05 2.65869e-05 2.69503e-05 2.73305e-05 2.77281e-05 2.81434e-05 2.85771e-05 2.90297e-05 2.95019e-05 2.99944e-05 3.05078e-05 3.10428e-05 3.16004e-05 3.21813e-05 3.27863e-05 3.34165e-05 3.40729e-05 3.47565e-05 3.54685e-05 3.621e-05 3.69823e-05 3.77868e-05 3.86249e-05 3.94982e-05 4.04081e-05 4.13566e-05 4.23454e-05 4.33765e-05 4.44519e-05 4.5574e-05 4.67449e-05 4.79674e-05 4.9244e-05 5.05777e-05 5.19717e-05 5.34291e-05 5.49535e-05 5.65487e-05 5.82188e-05 5.99683e-05 6.18018e-05 6.37243e-05 6.57415e-05 6.78591e-05 7.00835e-05 7.24216e-05 7.48809e-05 7.74694e-05 8.01958e-05 8.30697e-05 8.61014e-05 8.93021e-05 9.2684e-05 9.62606e-05 0.000100047 0.000104058 0.000108312 0.000112828 0.000117627 0.000122734 0.000128172 0.000133972 0.000140165 0.000146786 0.000153874 0.000161472 0.00016963 0.000178403 0.000187851 0.000198043 0.000209058 0.000220984 0.000233921 0.000247984 0.000263302 0.000280024 0.000298322 0.000318393 0.000340466 0.000364805 0.000391717 0.000421561 0.000454752 0.000491775 0.00053319 0.000579636 0.000631835 0.000690571 0.000756653 0.000830826 0.000913611 0.00100503 0.00110416 0.00120857 0.0013137 0.0014129 0.00150028 0.00158252 0.00171288 0.0020493 0.00284546 0.00430751 0.00648971 0.00923391 0.0119775 0.0137407 0.0144888 0.0193383 0.0269429 0.0589025 0.13581 0.0634622 0.0301228 0.0143006 0.00676454 0.00332502 0.00192183 0.00139664 0.00113277 0.000929536 0.000752873 0.000603015 0.00048188 0.000388801 0.000321237 0.000275442 0.000246768 0.000230174 0.000221062 0.00021593 0.000212492 0.000209437 0.000206101 0.000202213 0.000197713 0.000192654 0.000187134 0.000181267 0.000175165 0.000168926 0.000162637 0.000156368 0.000150176 0.000144105 0.000138189 0.000132453 0.000126913 0.000121581 0.000116464 0.000111564 0.000106881 0.000102412 9.81524e-05 9.4097e-05 9.02389e-05 8.65711e-05 8.3086e-05 7.97756e-05 7.66322e-05 7.36479e-05 7.08152e-05 6.81262e-05 6.55739e-05 6.31512e-05 6.08514e-05 5.86679e-05 5.65947e-05 5.46258e-05 5.27558e-05 5.09793e-05 4.92913e-05 4.76872e-05 4.61624e-05 4.47128e-05 4.33344e-05 4.20235e-05 4.07765e-05 3.95901e-05 3.84611e-05 3.73868e-05 3.63642e-05 3.53907e-05 3.4464e-05 3.35817e-05 3.27416e-05 3.19417e-05 3.118e-05 3.04549e-05 2.97644e-05 2.91071e-05 2.84814e-05 2.78858e-05 2.73191e-05 2.678e-05 2.62673e-05 2.57799e-05 2.53166e-05 2.48766e-05 2.44588e-05 2.40625e-05 2.36867e-05 2.33307e-05 2.29938e-05 2.26752e-05 2.23743e-05 2.20905e-05 2.18232e-05 2.15718e-05 2.1336e-05 2.11151e-05 2.09086e-05 2.07165e-05 2.05379e-05 2.03728e-05 2.02206e-05 2.00812e-05 1.99541e-05 1.98391e-05 1.9736e-05 1.96446e-05 1.95645e-05 1.94957e-05 1.94379e-05 1.93909e-05 1.93548e-05 1.93292e-05 1.9314e-05 1.93093e-05 1.93148e-05 1.93306e-05 1.93566e-05 1.93926e-05 1.94388e-05 1.94951e-05 1.95615e-05 1.96379e-05 1.97245e-05 1.98213e-05 1.99282e-05 2.00455e-05 2.01732e-05 2.03113e-05 2.04601e-05 2.06195e-05 2.07898e-05 2.09711e-05 2.11636e-05 2.13674e-05 2.15828e-05 2.181e-05 2.20492e-05 2.23007e-05 2.25647e-05 2.28416e-05 2.31317e-05 2.34352e-05 2.37525e-05 2.40841e-05 2.44303e-05 2.47915e-05 2.51682e-05 2.55609e-05 2.59701e-05 2.63963e-05 2.684e-05 2.73019e-05 2.77827e-05 2.82829e-05 2.88033e-05 2.93446e-05 2.99077e-05 3.04934e-05 3.11026e-05 3.17362e-05 3.23951e-05 3.30806e-05 3.37936e-05 3.45353e-05 3.53071e-05 3.61102e-05 3.69461e-05 3.78161e-05 3.8722e-05 3.96654e-05 4.06481e-05 4.16719e-05 4.27389e-05 4.38512e-05 4.50111e-05 4.6221e-05 4.74835e-05 4.88013e-05 5.01774e-05 5.16149e-05 5.31171e-05 5.46876e-05 5.63301e-05 5.80488e-05 5.98479e-05 6.17321e-05 6.37065e-05 6.57762e-05 6.79471e-05 7.02253e-05 7.26173e-05 7.51302e-05 7.77716e-05 8.05496e-05 8.3473e-05 8.65512e-05 8.97943e-05 9.32133e-05 9.68197e-05 0.000100626 0.000104647 0.000108895 0.000113388 0.000118141 0.000123172 0.000128502 0.00013415 0.000140139 0.000146491 0.000153231 0.000160384 0.000167978 0.000176039 0.000184595 0.000193672 0.000203298 0.000213493 0.000224278 0.000235664 0.000247652 0.000260228 0.000273359 0.000286982 0.000301 0.000315267 0.000329585 0.000343696 0.000357297 0.000370086 0.000381892 0.000392962 0.000404542 0.000419939 0.00044606 0.000494681 0.000581495 0.000722044 0.000927334 0.00120189 0.00154206 0.00193324 0.00234654 0.00274179 0.00308552 0.00339417 0.00376451 0.00422506 0.00452251 0.0052048 0.00988392 0.0150502 0.0367324 0.0727896 0.0347373 0.0166996 0.00800497 0.003897 0.00214244 0.00151533 0.00126388 0.0010831 0.000912726 0.000753645 0.000612198 0.000491098 0.000389956 0.000306878 0.000239548 0.000185801 0.000143898 0.000112598 9.10516e-05 7.8362e-05 7.29442e-05 7.24535e-05 7.45645e-05 7.7629e-05 8.07152e-05 8.33749e-05 8.54322e-05 8.68513e-05 8.76645e-05 8.79338e-05 8.77317e-05 8.71306e-05 8.61986e-05 8.49968e-05 8.35793e-05 8.19929e-05 8.02776e-05 7.84675e-05 7.65913e-05 7.4673e-05 7.27325e-05 7.07862e-05 6.88477e-05 6.69279e-05 6.50355e-05 6.31777e-05 6.13598e-05 5.95861e-05 5.78597e-05 5.61828e-05 5.4557e-05 5.29831e-05 5.14615e-05 4.99922e-05 4.85748e-05 4.72088e-05 4.58932e-05 4.46272e-05 4.34096e-05 4.22391e-05 4.11145e-05 4.00344e-05 3.89975e-05 3.80024e-05 3.70477e-05 3.6132e-05 3.52541e-05 3.44125e-05 3.3606e-05 3.28333e-05 3.20932e-05 3.13844e-05 3.07059e-05 3.00565e-05 2.94351e-05 2.88407e-05 2.82723e-05 2.7729e-05 2.72099e-05 2.6714e-05 2.62406e-05 2.57887e-05 2.53579e-05 2.49471e-05 2.45559e-05 2.41834e-05 2.38291e-05 2.34924e-05 2.31728e-05 2.28696e-05 2.25824e-05 2.23107e-05 2.20541e-05 2.1812e-05 2.15841e-05 2.137e-05 2.11694e-05 2.09818e-05 2.0807e-05 2.06447e-05 2.04944e-05 2.03562e-05 2.02295e-05 2.01143e-05 2.00102e-05 1.99172e-05 1.98349e-05 1.97633e-05 1.97022e-05 1.96513e-05 1.96107e-05 1.95802e-05 1.95597e-05 1.9549e-05 1.95481e-05 1.9557e-05 1.95757e-05 1.96039e-05 1.96418e-05 1.96892e-05 1.97463e-05 1.9813e-05 1.98893e-05 1.99753e-05 2.0071e-05 2.01764e-05 2.02916e-05 2.04168e-05 2.05519e-05 2.0697e-05 2.08524e-05 2.10181e-05 2.11943e-05 2.13811e-05 2.15786e-05 2.17871e-05 2.20068e-05 2.22378e-05 2.24804e-05 2.27349e-05 2.30014e-05 2.32803e-05 2.35718e-05 2.38763e-05 2.4194e-05 2.45254e-05 2.48708e-05 2.52305e-05 2.5605e-05 2.59947e-05 2.64001e-05 2.68216e-05 2.72598e-05 2.77152e-05 2.81882e-05 2.86796e-05 2.919e-05 2.972e-05 3.02702e-05 3.08415e-05 3.14345e-05 3.20501e-05 3.26891e-05 3.33524e-05 3.4041e-05 3.47558e-05 3.54978e-05 3.62682e-05 3.70681e-05 3.78987e-05 3.87612e-05 3.96571e-05 4.05876e-05 4.15543e-05 4.25587e-05 4.36024e-05 4.46872e-05 4.58149e-05 4.69873e-05 4.82065e-05 4.94745e-05 5.07935e-05 5.21659e-05 5.3594e-05 5.50804e-05 5.66278e-05 5.82389e-05 5.99166e-05 6.16639e-05 6.34839e-05 6.538e-05 6.73556e-05 6.94141e-05 7.15591e-05 7.37943e-05 7.61235e-05 7.85504e-05 8.1079e-05 8.37129e-05 8.64559e-05 8.93115e-05 9.22831e-05 9.53737e-05 9.85856e-05 0.000101921 0.000105381 0.000108965 0.000112671 0.000116498 0.000120438 0.000124484 0.000128624 0.000132842 0.000137116 0.000141418 0.000145712 0.000149951 0.000154077 0.000158019 0.000161687 0.000164975 0.000167755 0.000169877 0.000171175 0.000171469 0.000170593 0.000168427 0.000164987 0.000160575 0.000156057 0.000153284 0.000155519 0.000167261 0.000192815 0.000234561 0.000292707 0.000366134 0.000452859 0.000549891 0.000652816 0.000755436 0.000849559 0.000925027 0.000969951 0.000971633 0.000923843 0.000864176 0.000979026 0.00150561 0.00233356 0.00306207 0.00350371 0.00579064 0.00903804 0.0213793 0.0405553 0.0206104 0.0107821 0.00576163 0.00314831 0.0017957 0.00111929 0.00079736 0.000641291 0.000551636 0.000486425 0.000430991 0.0003808 0.000334607 0.000292153 0.000253412 0.000218372 0.00018697 0.000159089 0.000134568 0.00011323 9.48899e-05 7.938e-05 6.65552e-05 5.62953e-05 4.84859e-05 4.29742e-05 3.95121e-05 3.77299e-05 3.71803e-05 3.74274e-05 3.81166e-05 3.89951e-05 3.99002e-05 4.07353e-05 4.14484e-05 4.20154e-05 4.24299e-05 4.26954e-05 4.28215e-05 4.28206e-05 4.27061e-05 4.24917e-05 4.21907e-05 4.18156e-05 4.13776e-05 4.08872e-05 4.03537e-05 3.97853e-05 3.91894e-05 3.85724e-05 3.794e-05 3.72971e-05 3.66479e-05 3.59963e-05 3.53453e-05 3.46976e-05 3.40556e-05 3.34213e-05 3.27962e-05 3.21818e-05 3.15793e-05 3.09894e-05 3.04131e-05 2.98509e-05 2.93032e-05 2.87704e-05 2.82526e-05 2.77502e-05 2.72631e-05 2.67913e-05 2.63349e-05 2.58937e-05 2.54676e-05 2.50565e-05 2.46601e-05 2.42783e-05 2.39109e-05 2.35575e-05 2.32181e-05 2.28923e-05 2.25799e-05 2.22806e-05 2.19941e-05 2.17204e-05 2.14589e-05 2.12096e-05 2.09722e-05 2.07464e-05 2.0532e-05 2.03289e-05 2.01367e-05 1.99552e-05 1.97843e-05 1.96238e-05 1.94735e-05 1.93331e-05 1.92026e-05 1.90818e-05 1.89705e-05 1.88685e-05 1.87759e-05 1.86923e-05 1.86178e-05 1.85521e-05 1.84951e-05 1.84469e-05 1.84072e-05 1.83761e-05 1.83535e-05 1.83392e-05 1.83333e-05 1.83357e-05 1.83464e-05 1.83653e-05 1.83924e-05 1.84277e-05 1.84712e-05 1.8523e-05 1.8583e-05 1.86512e-05 1.87277e-05 1.88124e-05 1.89056e-05 1.90071e-05 1.91171e-05 1.92357e-05 1.93629e-05 1.94987e-05 1.96435e-05 1.97971e-05 1.99597e-05 2.01316e-05 2.03127e-05 2.05032e-05 2.07034e-05 2.09133e-05 2.11332e-05 2.13631e-05 2.16035e-05 2.18543e-05 2.2116e-05 2.23886e-05 2.26724e-05 2.29678e-05 2.3275e-05 2.35942e-05 2.39258e-05 2.42701e-05 2.46275e-05 2.49981e-05 2.53826e-05 2.57811e-05 2.61942e-05 2.66222e-05 2.70656e-05 2.75248e-05 2.80003e-05 2.84925e-05 2.90021e-05 2.95295e-05 3.00753e-05 3.06401e-05 3.12245e-05 3.1829e-05 3.24544e-05 3.31013e-05 3.37704e-05 3.44624e-05 3.5178e-05 3.59181e-05 3.66833e-05 3.74746e-05 3.82927e-05 3.91386e-05 4.00129e-05 4.09167e-05 4.18508e-05 4.28162e-05 4.38137e-05 4.48443e-05 4.59087e-05 4.70081e-05 4.81431e-05 4.93146e-05 5.05235e-05 5.17703e-05 5.30559e-05 5.43806e-05 5.5745e-05 5.71492e-05 5.85935e-05 6.00774e-05 6.16008e-05 6.31628e-05 6.47622e-05 6.63974e-05 6.80663e-05 6.9766e-05 7.14929e-05 7.32423e-05 7.50088e-05 7.67854e-05 7.85639e-05 8.03341e-05 8.20842e-05 8.37996e-05 8.54635e-05 8.7056e-05 8.85535e-05 8.99289e-05 9.11506e-05 9.21825e-05 9.29833e-05 9.35073e-05 9.37038e-05 9.35192e-05 9.2899e-05 9.17924e-05 9.01614e-05 8.79952e-05 8.53361e-05 8.23234e-05 7.92632e-05 7.67301e-05 7.56745e-05 7.74348e-05 8.34881e-05 9.49686e-05 0.000112359 0.00013561 0.000164435 0.000198468 0.000237285 0.000280349 0.00032695 0.000376159 0.000426826 0.000477631 0.000527248 0.000574636 0.000619524 0.000663077 0.000708409 0.000760076 0.000820854 0.000885796 0.000938625 0.00096693 0.00101532 0.00119265 0.00140683 0.00132202 0.00268554 0.00547475 0.0123159 0.0212064 0.010845 0.00563797 0.00292875 0.00150499 0.000787151 0.000481696 0.000393572 0.00037217 0.000355471 0.00033271 0.000305643 0.00027711 0.000249027 0.000222411 0.000197712 0.000175064 0.000154446 0.000135764 0.0001189 0.000103731 9.01391e-05 7.80165e-05 6.72659e-05 5.78032e-05 4.95586e-05 4.24776e-05 3.65207e-05 3.16605e-05 2.78719e-05 2.5114e-05 2.33082e-05 2.23243e-05 2.19895e-05 2.21185e-05 2.25439e-05 2.31332e-05 2.37911e-05 2.4454e-05 2.50818e-05 2.56508e-05 2.61488e-05 2.65703e-05 2.69151e-05 2.71856e-05 2.73859e-05 2.75212e-05 2.75971e-05 2.76192e-05 2.75933e-05 2.75247e-05 2.74185e-05 2.72794e-05 2.71117e-05 2.69194e-05 2.67064e-05 2.64756e-05 2.62303e-05 2.59731e-05 2.57064e-05 2.54323e-05 2.51528e-05 2.48696e-05 2.45842e-05 2.4298e-05 2.40122e-05 2.37277e-05 2.34456e-05 2.31667e-05 2.28916e-05 2.26209e-05 2.23553e-05 2.20952e-05 2.18409e-05 2.15928e-05 2.13513e-05 2.11165e-05 2.08886e-05 2.06678e-05 2.04543e-05 2.02481e-05 2.00494e-05 1.98582e-05 1.96745e-05 1.94983e-05 1.93298e-05 1.91688e-05 1.90154e-05 1.88697e-05 1.87314e-05 1.86007e-05 1.84774e-05 1.83616e-05 1.82532e-05 1.81521e-05 1.80584e-05 1.7972e-05 1.78928e-05 1.78208e-05 1.7756e-05 1.76984e-05 1.76478e-05 1.76043e-05 1.75676e-05 1.75381e-05 1.75155e-05 1.74999e-05 1.74912e-05 1.74894e-05 1.74945e-05 1.75066e-05 1.75255e-05 1.75513e-05 1.7584e-05 1.76237e-05 1.76703e-05 1.77238e-05 1.77843e-05 1.78518e-05 1.79264e-05 1.8008e-05 1.80967e-05 1.81927e-05 1.82959e-05 1.84064e-05 1.85243e-05 1.86496e-05 1.87824e-05 1.89228e-05 1.90709e-05 1.92268e-05 1.93906e-05 1.95624e-05 1.97423e-05 1.99305e-05 2.0127e-05 2.0332e-05 2.05457e-05 2.07681e-05 2.09995e-05 2.124e-05 2.14898e-05 2.17491e-05 2.2018e-05 2.22967e-05 2.25854e-05 2.28844e-05 2.31938e-05 2.35139e-05 2.38449e-05 2.41871e-05 2.45405e-05 2.49056e-05 2.52826e-05 2.56716e-05 2.60731e-05 2.64872e-05 2.69143e-05 2.73545e-05 2.78083e-05 2.82758e-05 2.87574e-05 2.92533e-05 2.97638e-05 3.02893e-05 3.08299e-05 3.13859e-05 3.19577e-05 3.25455e-05 3.31494e-05 3.37697e-05 3.44065e-05 3.50601e-05 3.57305e-05 3.64177e-05 3.7122e-05 3.78432e-05 3.85811e-05 3.93357e-05 4.01067e-05 4.08937e-05 4.16961e-05 4.25135e-05 4.33449e-05 4.41895e-05 4.5046e-05 4.5913e-05 4.67888e-05 4.76715e-05 4.85586e-05 4.94474e-05 5.03347e-05 5.12168e-05 5.20893e-05 5.29473e-05 5.3785e-05 5.45959e-05 5.53725e-05 5.61062e-05 5.67873e-05 5.74048e-05 5.79462e-05 5.83976e-05 5.87432e-05 5.89656e-05 5.90456e-05 5.89621e-05 5.86923e-05 5.82122e-05 5.74973e-05 5.65232e-05 5.52685e-05 5.37176e-05 5.18668e-05 4.97339e-05 4.73737e-05 4.4905e-05 4.255e-05 4.06869e-05 3.98882e-05 4.08748e-05 4.43181e-05 5.05971e-05 5.9748e-05 7.16179e-05 8.60208e-05 0.000102802 0.000121839 0.000143018 0.000166212 0.000191261 0.000217952 0.000246013 0.000275108 0.000304834 0.000334732 0.000364296 0.000392978 0.000420183 0.00044522 0.000467206 0.00048491 0.000496579 0.000499919 0.000492416 0.00047197 0.000437332 0.000387817 0.000336307 0.00038152 0.000656229 0.00104442 0.00124659 0.00165209 0.00315121 0.00682309 0.0120198 0.00657819 0.00375057 0.00221256 0.0013523 0.000867047 0.000594892 0.00044354 0.000358025 0.000306456 0.000271739 0.000245414 0.000223487 0.000204098 0.000186385 0.00016995 0.000154611 0.000140284 0.000126927 0.00011451 0.000103008 9.23912e-05 8.26267e-05 7.36788e-05 6.55094e-05 5.80801e-05 5.13529e-05 4.5292e-05 3.98643e-05 3.5041e-05 3.07974e-05 2.7114e-05 2.39752e-05 2.13679e-05 1.92777e-05 1.76833e-05 1.65506e-05 1.58288e-05 1.54524e-05 1.5348e-05 1.54435e-05 1.56747e-05 1.599e-05 1.63496e-05 1.6725e-05 1.70963e-05 1.74501e-05 1.77781e-05 1.80753e-05 1.83393e-05 1.85693e-05 1.87659e-05 1.89301e-05 1.90635e-05 1.91682e-05 1.92463e-05 1.92999e-05 1.93312e-05 1.93423e-05 1.93352e-05 1.93119e-05 1.92742e-05 1.92238e-05 1.91623e-05 1.90911e-05 1.90116e-05 1.8925e-05 1.88325e-05 1.87352e-05 1.86341e-05 1.85298e-05 1.84234e-05 1.83155e-05 1.82068e-05 1.80979e-05 1.79893e-05 1.78815e-05 1.7775e-05 1.76701e-05 1.75673e-05 1.74669e-05 1.73691e-05 1.72743e-05 1.71826e-05 1.70944e-05 1.70097e-05 1.69288e-05 1.68518e-05 1.67788e-05 1.67101e-05 1.66456e-05 1.65856e-05 1.653e-05 1.6479e-05 1.64327e-05 1.6391e-05 1.63541e-05 1.63221e-05 1.6295e-05 1.62727e-05 1.62554e-05 1.62433e-05 1.62361e-05 1.62343e-05 1.62374e-05 1.62456e-05 1.6259e-05 1.62776e-05 1.63015e-05 1.63307e-05 1.63652e-05 1.64051e-05 1.64504e-05 1.65011e-05 1.65572e-05 1.66189e-05 1.66861e-05 1.67589e-05 1.68374e-05 1.69215e-05 1.70114e-05 1.71071e-05 1.72085e-05 1.73159e-05 1.74291e-05 1.75484e-05 1.76738e-05 1.78053e-05 1.79429e-05 1.80869e-05 1.82372e-05 1.83939e-05 1.8557e-05 1.87268e-05 1.89031e-05 1.90863e-05 1.92762e-05 1.94731e-05 1.96769e-05 1.98878e-05 2.01059e-05 2.03313e-05 2.05639e-05 2.08041e-05 2.10518e-05 2.13072e-05 2.15703e-05 2.18412e-05 2.212e-05 2.24068e-05 2.27017e-05 2.30048e-05 2.33161e-05 2.36357e-05 2.39637e-05 2.43001e-05 2.46449e-05 2.49982e-05 2.536e-05 2.57303e-05 2.6109e-05 2.64962e-05 2.68917e-05 2.72956e-05 2.77075e-05 2.81274e-05 2.8555e-05 2.89902e-05 2.94326e-05 2.98819e-05 3.03377e-05 3.07994e-05 3.12666e-05 3.17385e-05 3.22145e-05 3.26935e-05 3.31748e-05 3.36571e-05 3.41391e-05 3.46195e-05 3.50965e-05 3.55684e-05 3.60331e-05 3.64882e-05 3.69312e-05 3.7359e-05 3.77685e-05 3.8156e-05 3.85173e-05 3.8848e-05 3.9143e-05 3.93968e-05 3.96032e-05 3.97553e-05 3.98459e-05 3.98667e-05 3.98088e-05 3.96628e-05 3.94184e-05 3.90647e-05 3.85906e-05 3.79847e-05 3.72359e-05 3.63342e-05 3.52718e-05 3.40452e-05 3.26578e-05 3.11252e-05 2.94831e-05 2.77991e-05 2.6192e-05 2.48551e-05 2.40745e-05 2.42117e-05 2.56177e-05 2.85117e-05 3.29313e-05 3.87958e-05 4.59937e-05 5.4432e-05 6.40454e-05 7.47901e-05 8.66333e-05 9.95441e-05 0.000113485 0.000128405 0.000144236 0.000160887 0.000178238 0.000196143 0.000214422 0.000232865 0.000251226 0.000269229 0.000286568 0.000302904 0.000317878 0.000331114 0.000342245 0.000350958 0.000357081 0.000360716 0.000362461 0.000363725 0.000367088 0.000376276 0.000394499 0.000419619 0.000439335 0.00043831 0.000436616 0.000494668 0.000483053 0.000634721 0.00184875 0.00395121 0.00632218 0.00342876 0.00188981 0.00103814 0.000560665 0.000303558 0.000189298 0.000162015 0.000164202 0.000167602 0.000166614 0.000161832 0.000154646 0.000146159 0.000137095 0.000127896 0.000118821 0.000110018 0.00010157 9.35211e-05 8.58941e-05 7.86976e-05 7.19321e-05 6.55927e-05 5.96711e-05 5.41568e-05 4.90375e-05 4.43002e-05 3.99316e-05 3.59185e-05 3.22483e-05 2.89093e-05 2.58911e-05 2.31849e-05 2.07837e-05 1.86819e-05 1.6875e-05 1.53583e-05 1.41254e-05 1.31657e-05 1.24623e-05 1.19908e-05 1.17201e-05 1.16152e-05 1.16403e-05 1.17618e-05 1.19506e-05 1.21829e-05 1.24403e-05 1.27085e-05 1.29771e-05 1.3239e-05 1.34891e-05 1.37241e-05 1.39421e-05 1.4142e-05 1.43235e-05 1.44866e-05 1.46319e-05 1.47602e-05 1.48722e-05 1.4969e-05 1.50516e-05 1.51211e-05 1.51785e-05 1.52248e-05 1.52611e-05 1.52883e-05 1.53073e-05 1.5319e-05 1.53242e-05 1.53237e-05 1.53182e-05 1.53083e-05 1.52949e-05 1.52783e-05 1.52592e-05 1.52381e-05 1.52153e-05 1.51915e-05 1.5167e-05 1.51422e-05 1.51173e-05 1.50929e-05 1.5069e-05 1.5046e-05 1.50243e-05 1.50039e-05 1.49851e-05 1.49681e-05 1.49532e-05 1.49404e-05 1.493e-05 1.4922e-05 1.49167e-05 1.49141e-05 1.49144e-05 1.49176e-05 1.4924e-05 1.49335e-05 1.49464e-05 1.49625e-05 1.49821e-05 1.50049e-05 1.50315e-05 1.50618e-05 1.50958e-05 1.51335e-05 1.5175e-05 1.52204e-05 1.52697e-05 1.5323e-05 1.53803e-05 1.54417e-05 1.55071e-05 1.55768e-05 1.56507e-05 1.57288e-05 1.58112e-05 1.5898e-05 1.59891e-05 1.60846e-05 1.61846e-05 1.62891e-05 1.63982e-05 1.65118e-05 1.663e-05 1.67529e-05 1.68804e-05 1.70127e-05 1.71498e-05 1.72916e-05 1.74382e-05 1.75897e-05 1.7746e-05 1.79073e-05 1.80734e-05 1.82445e-05 1.84205e-05 1.86015e-05 1.87874e-05 1.89783e-05 1.91742e-05 1.9375e-05 1.95807e-05 1.97913e-05 2.00068e-05 2.02271e-05 2.04521e-05 2.06818e-05 2.09161e-05 2.11548e-05 2.1398e-05 2.16454e-05 2.18969e-05 2.21522e-05 2.24113e-05 2.26738e-05 2.29395e-05 2.3208e-05 2.34791e-05 2.37524e-05 2.40274e-05 2.43036e-05 2.45806e-05 2.48577e-05 2.51343e-05 2.54096e-05 2.56829e-05 2.59531e-05 2.62194e-05 2.64806e-05 2.67355e-05 2.69828e-05 2.7221e-05 2.74485e-05 2.76634e-05 2.78639e-05 2.80477e-05 2.82126e-05 2.83559e-05 2.84748e-05 2.85662e-05 2.86269e-05 2.86532e-05 2.86411e-05 2.85864e-05 2.84845e-05 2.83306e-05 2.81194e-05 2.78453e-05 2.75027e-05 2.70857e-05 2.65883e-05 2.60045e-05 2.53291e-05 2.45576e-05 2.36872e-05 2.27177e-05 2.16537e-05 2.0507e-05 1.93012e-05 1.80788e-05 1.69115e-05 1.59134e-05 1.52521e-05 1.51396e-05 1.57847e-05 1.73193e-05 1.97634e-05 2.30589e-05 2.71264e-05 3.18985e-05 3.73287e-05 4.3388e-05 5.00594e-05 5.73327e-05 6.51997e-05 7.36515e-05 8.26758e-05 9.22545e-05 0.000102362 0.000112962 0.00012401 0.000135448 0.000147204 0.000159194 0.000171319 0.000183468 0.000195517 0.00020733 0.000218763 0.000229671 0.000239907 0.000249335 0.000257837 0.000265322 0.000271741 0.000277087 0.00028139 0.000284685 0.000286926 0.000287843 0.000286751 0.000282408 0.000273143 0.000257503 0.000235066 0.000207217 0.000184705 0.000223431 0.00036955 0.000507523 0.000556678 0.0010581 0.00219662 0.00374245 0.00220081 0.00135215 0.000863254 0.000573934 0.000400847 0.000296967 0.000234302 0.000195714 0.000170857 0.00015371 0.000140892 0.000130543 0.000121648 0.000113655 0.000106265 9.93183e-05 9.27313e-05 8.64617e-05 8.04884e-05 7.48012e-05 6.93947e-05 6.42652e-05 5.94087e-05 5.48211e-05 5.04971e-05 4.64307e-05 4.26152e-05 3.90434e-05 3.57079e-05 3.2601e-05 2.97154e-05 2.70437e-05 2.45792e-05 2.23158e-05 2.02482e-05 1.83715e-05 1.66825e-05 1.5178e-05 1.3856e-05 1.27143e-05 1.17505e-05 1.09607e-05 1.03384e-05 9.87373e-06 9.55319e-06 9.35986e-06 9.2746e-06 9.27763e-06 9.34983e-06 9.47383e-06 9.63492e-06 9.82082e-06 1.00217e-05 1.02301e-05 1.04401e-05 1.06475e-05 1.08493e-05 1.10431e-05 1.12277e-05 1.14022e-05 1.1566e-05 1.17189e-05 1.18611e-05 1.19928e-05 1.21144e-05 1.22262e-05 1.23289e-05 1.24229e-05 1.25089e-05 1.25873e-05 1.26587e-05 1.27237e-05 1.2783e-05 1.28368e-05 1.28859e-05 1.29306e-05 1.29715e-05 1.3009e-05 1.30434e-05 1.30752e-05 1.31049e-05 1.31326e-05 1.31588e-05 1.31837e-05 1.32078e-05 1.32311e-05 1.32541e-05 1.32769e-05 1.32997e-05 1.33229e-05 1.33465e-05 1.33708e-05 1.3396e-05 1.34221e-05 1.34494e-05 1.34781e-05 1.35081e-05 1.35397e-05 1.3573e-05 1.36081e-05 1.36451e-05 1.36842e-05 1.37257e-05 1.3769e-05 1.38146e-05 1.38625e-05 1.39128e-05 1.39656e-05 1.40209e-05 1.40788e-05 1.41394e-05 1.42027e-05 1.42686e-05 1.43374e-05 1.4409e-05 1.44835e-05 1.45609e-05 1.46412e-05 1.47244e-05 1.48106e-05 1.48999e-05 1.49921e-05 1.50874e-05 1.51856e-05 1.5287e-05 1.53914e-05 1.54989e-05 1.56094e-05 1.57229e-05 1.58394e-05 1.59589e-05 1.60814e-05 1.62069e-05 1.63352e-05 1.64665e-05 1.66005e-05 1.67372e-05 1.68767e-05 1.70187e-05 1.71632e-05 1.73102e-05 1.74594e-05 1.76108e-05 1.77642e-05 1.79195e-05 1.80765e-05 1.8235e-05 1.83948e-05 1.85557e-05 1.87173e-05 1.88795e-05 1.9042e-05 1.92042e-05 1.93661e-05 1.9527e-05 1.96865e-05 1.98443e-05 1.99997e-05 2.01522e-05 2.03011e-05 2.04458e-05 2.05855e-05 2.07194e-05 2.08466e-05 2.09662e-05 2.10771e-05 2.11782e-05 2.12683e-05 2.13461e-05 2.14101e-05 2.14588e-05 2.14905e-05 2.15034e-05 2.14957e-05 2.14652e-05 2.14096e-05 2.13267e-05 2.12138e-05 2.10683e-05 2.08873e-05 2.06678e-05 2.04067e-05 2.01007e-05 1.97465e-05 1.93408e-05 1.88804e-05 1.83623e-05 1.7784e-05 1.71438e-05 1.64413e-05 1.56782e-05 1.48592e-05 1.39945e-05 1.31023e-05 1.22134e-05 1.13778e-05 1.06728e-05 1.02082e-05 1.01178e-05 1.05269e-05 1.15069e-05 1.30586e-05 1.51364e-05 1.7684e-05 2.0655e-05 2.40168e-05 2.77496e-05 3.1842e-05 3.62884e-05 4.10862e-05 4.62342e-05 5.17313e-05 5.75751e-05 6.37612e-05 7.02825e-05 7.71281e-05 8.4283e-05 9.17275e-05 9.94364e-05 0.000107379 0.000115517 0.000123808 0.000132201 0.000140641 0.000149065 0.000157405 0.000165589 0.000173543 0.000181189 0.000188449 0.000195247 0.000201511 0.000207172 0.000212164 0.000216424 0.000219889 0.000222489 0.000224145 0.000224767 0.000224269 0.000222606 0.000219857 0.000216359 0.000212894 0.000210901 0.000212472 0.000219279 0.000229535 0.00023464 0.000225377 0.000215188 0.00020546 0.000158253 0.000618149 0.00131671 0.00195401 0.00111561 0.000641417 0.000364391 0.000203163 0.000117496 8.60523e-05 8.45071e-05 8.9855e-05 9.37341e-05 9.50015e-05 9.41855e-05 9.19631e-05 8.88624e-05 8.52456e-05 8.13494e-05 7.73258e-05 7.32718e-05 6.92495e-05 6.52994e-05 6.14481e-05 5.77133e-05 5.4107e-05 5.06372e-05 4.73092e-05 4.41259e-05 4.1089e-05 3.81988e-05 3.54545e-05 3.28549e-05 3.03979e-05 2.80812e-05 2.59021e-05 2.38579e-05 2.19457e-05 2.0163e-05 1.8507e-05 1.69756e-05 1.5567e-05 1.42795e-05 1.31123e-05 1.20644e-05 1.11355e-05 1.03251e-05 9.63229e-06 9.05518e-06 8.59062e-06 8.23334e-06 7.97603e-06 7.80925e-06 7.72192e-06 7.70212e-06 7.73776e-06 7.81766e-06 7.93137e-06 8.07019e-06 8.22651e-06 8.39423e-06 8.56848e-06 8.7455e-06 8.92228e-06 9.09664e-06 9.267e-06 9.43207e-06 9.59113e-06 9.74366e-06 9.88931e-06 1.0028e-05 1.01597e-05 1.02846e-05 1.04029e-05 1.05147e-05 1.06204e-05 1.07203e-05 1.08146e-05 1.09039e-05 1.09883e-05 1.10682e-05 1.1144e-05 1.1216e-05 1.12845e-05 1.13498e-05 1.14122e-05 1.14721e-05 1.15297e-05 1.15853e-05 1.1639e-05 1.16913e-05 1.17422e-05 1.1792e-05 1.1841e-05 1.18892e-05 1.19369e-05 1.19843e-05 1.20315e-05 1.20787e-05 1.2126e-05 1.21736e-05 1.22215e-05 1.22701e-05 1.23191e-05 1.2369e-05 1.24196e-05 1.24709e-05 1.25235e-05 1.25772e-05 1.26319e-05 1.26879e-05 1.27451e-05 1.28037e-05 1.28636e-05 1.29249e-05 1.29877e-05 1.3052e-05 1.31178e-05 1.31852e-05 1.32541e-05 1.33245e-05 1.33966e-05 1.34703e-05 1.35455e-05 1.36223e-05 1.37007e-05 1.37806e-05 1.38621e-05 1.3945e-05 1.40294e-05 1.41151e-05 1.42023e-05 1.42907e-05 1.43804e-05 1.44712e-05 1.4563e-05 1.46559e-05 1.47496e-05 1.4844e-05 1.4939e-05 1.50346e-05 1.51304e-05 1.52264e-05 1.53224e-05 1.54182e-05 1.55135e-05 1.56081e-05 1.57018e-05 1.57943e-05 1.58852e-05 1.59744e-05 1.60613e-05 1.61458e-05 1.62272e-05 1.63052e-05 1.63794e-05 1.64492e-05 1.6514e-05 1.65733e-05 1.66264e-05 1.66727e-05 1.67114e-05 1.67418e-05 1.67629e-05 1.6774e-05 1.67739e-05 1.67617e-05 1.67363e-05 1.66966e-05 1.66411e-05 1.65687e-05 1.64778e-05 1.6367e-05 1.62347e-05 1.60792e-05 1.58988e-05 1.56916e-05 1.54557e-05 1.51892e-05 1.48901e-05 1.45565e-05 1.41865e-05 1.37783e-05 1.33304e-05 1.28417e-05 1.23119e-05 1.17416e-05 1.11329e-05 1.04907e-05 9.8237e-06 9.1465e-06 8.48316e-06 7.87174e-06 7.36935e-06 7.05427e-06 7.01714e-06 7.33511e-06 8.04326e-06 9.12945e-06 1.05554e-05 1.22799e-05 1.42701e-05 1.65037e-05 1.89668e-05 2.16516e-05 2.45544e-05 2.76737e-05 3.10097e-05 3.45632e-05 3.83349e-05 4.23253e-05 4.65339e-05 5.09591e-05 5.55977e-05 6.04448e-05 6.54933e-05 7.07339e-05 7.61544e-05 8.17