<?xml version="1.0"?> 
<VTKFile type="StructuredGrid" version="0.1"> 
<StructuredGrid WholeExtent="0 256 0 256 0 0"> 
<Piece Extent="0 256 0 256 0 0"> 
<CellData>
<DataArray type="Float32" Name="err_h1" format="ascii" NumberOfComponents="1"> 
0.41807 0.154168 0.0407636 0.0204148 0.0137384 0.00783986 0.00490525 0.00349311 0.00267914 0.00213079 0.00174995 0.00147264 0.00126526 0.00110369 0.000975205 0.000870342 0.000783582 0.000710605 0.000648583 0.000595266 0.000549049 0.000508645 0.000473079 0.000441564 0.000413478 0.000388313 0.000365657 0.000345169 0.000326564 0.000309607 0.000294097 0.000279864 0.000266763 0.000254671 0.00024348 0.000233097 0.000223441 0.000214441 0.000206036 0.000198171 0.000190798 0.000183873 0.000177358 0.00017122 0.000165428 0.000159955 0.000154776 0.000149868 0.000145213 0.000140791 0.000136586 0.000132583 0.000128768 0.000125129 0.000121655 0.000118334 0.000115158 0.000112117 0.000109203 0.000106409 0.000103728 0.000101152 9.86771e-05 9.62966e-05 9.40056e-05 9.17993e-05 8.96731e-05 8.76232e-05 8.56454e-05 8.37362e-05 8.1892e-05 8.01099e-05 7.83868e-05 7.67199e-05 7.51065e-05 7.35443e-05 7.20308e-05 7.05639e-05 6.91415e-05 6.77617e-05 6.64226e-05 6.51227e-05 6.38599e-05 6.26331e-05 6.14406e-05 6.02811e-05 5.91532e-05 5.80558e-05 5.69875e-05 5.59473e-05 5.49341e-05 5.3947e-05 5.29848e-05 5.20468e-05 5.11319e-05 5.02395e-05 4.93686e-05 4.85186e-05 4.76886e-05 4.68782e-05 4.60864e-05 4.53127e-05 4.45562e-05 4.38169e-05 4.30938e-05 4.23866e-05 4.16946e-05 4.10176e-05 4.03548e-05 3.9706e-05 3.90705e-05 3.84481e-05 3.78385e-05 3.7241e-05 3.66554e-05 3.60814e-05 3.55185e-05 3.49665e-05 3.4425e-05 3.38938e-05 3.33725e-05 3.28609e-05 3.23586e-05 3.18655e-05 3.13812e-05 3.09056e-05 3.04383e-05 2.99793e-05 2.95281e-05 2.90847e-05 2.86487e-05 2.82202e-05 2.77987e-05 2.73841e-05 2.69764e-05 2.65752e-05 2.61804e-05 2.57918e-05 2.54094e-05 2.50329e-05 2.46621e-05 2.4297e-05 2.39374e-05 2.35832e-05 2.32341e-05 2.28903e-05 2.25513e-05 2.22173e-05 2.1888e-05 2.15633e-05 2.12431e-05 2.09273e-05 2.06158e-05 2.03086e-05 2.00054e-05 1.97062e-05 1.9411e-05 1.91196e-05 1.88319e-05 1.85479e-05 1.82673e-05 1.79904e-05 1.77168e-05 1.74465e-05 1.71794e-05 1.69156e-05 1.66548e-05 1.63971e-05 1.61423e-05 1.58904e-05 1.56414e-05 1.53951e-05 1.51515e-05 1.49106e-05 1.46722e-05 1.44364e-05 1.4203e-05 1.39721e-05 1.37435e-05 1.35172e-05 1.32932e-05 1.30713e-05 1.28517e-05 1.26341e-05 1.24185e-05 1.2205e-05 1.19935e-05 1.17838e-05 1.15761e-05 1.13702e-05 1.11661e-05 1.09637e-05 1.07631e-05 1.05641e-05 1.03667e-05 1.01709e-05 9.97671e-06 9.78401e-06 9.59283e-06 9.40306e-06 9.21472e-06 9.02775e-06 8.8421e-06 8.65784e-06 8.47477e-06 8.29298e-06 8.11239e-06 7.93307e-06 7.75481e-06 7.57771e-06 7.40168e-06 7.22675e-06 7.05284e-06 6.87993e-06 6.70801e-06 6.53706e-06 6.36703e-06 6.19792e-06 6.02965e-06 5.86226e-06 5.69566e-06 5.52986e-06 5.36485e-06 5.20058e-06 5.03702e-06 4.87422e-06 4.71203e-06 4.55055e-06 4.38963e-06 4.22944e-06 4.06971e-06 3.91068e-06 3.75205e-06 3.59409e-06 3.43652e-06 3.27948e-06 3.12294e-06 2.9668e-06 2.81111e-06 2.65583e-06 2.50097e-06 2.34649e-06 2.19242e-06 2.03871e-06 1.88536e-06 1.73238e-06 1.57985e-06 1.42773e-06 1.27607e-06 1.12507e-06 9.74778e-07 8.25614e-07 6.78177e-07 5.33776e-07 3.95614e-07 2.72984e-07 0.19722 0.0803956 0.033379 0.0283018 0.0151227 0.0070108 0.00417146 0.0032592 0.00269955 0.00225839 0.00190332 0.00162327 0.0013997 0.00122096 0.00107583 0.000956991 0.000858275 0.000775472 0.000705197 0.000645022 0.000593017 0.000547727 0.000507995 0.000472913 0.000441751 0.000413921 0.000388942 0.000366418 0.000346023 0.000327483 0.000310567 0.000295081 0.00028086 0.000267762 0.000255665 0.000244464 0.000234066 0.000224393 0.000215374 0.000206948 0.000199061 0.000191666 0.000184718 0.000178181 0.00017202 0.000166206 0.000160711 0.00015551 0.000150582 0.000145906 0.000141465 0.00013724 0.000133219 0.000129387 0.000125731 0.00012224 0.000118903 0.000115711 0.000112655 0.000109727 0.000106919 0.000104224 0.000101636 9.9148e-05 9.67556e-05 9.4453e-05 9.22355e-05 9.00987e-05 8.80382e-05 8.60504e-05 8.41315e-05 8.2278e-05 8.04869e-05 7.87551e-05 7.70797e-05 7.54582e-05 7.38881e-05 7.23671e-05 7.08928e-05 6.94633e-05 6.80767e-05 6.6731e-05 6.54246e-05 6.41557e-05 6.29228e-05 6.17245e-05 6.05593e-05 5.9426e-05 5.83232e-05 5.72498e-05 5.62046e-05 5.51866e-05 5.41947e-05 5.3228e-05 5.22855e-05 5.13664e-05 5.04698e-05 4.95949e-05 4.87409e-05 4.79071e-05 4.70928e-05 4.62973e-05 4.552e-05 4.47604e-05 4.40178e-05 4.32916e-05 4.25813e-05 4.18864e-05 4.12063e-05 4.05407e-05 3.9889e-05 3.92509e-05 3.86258e-05 3.80135e-05 3.74135e-05 3.68254e-05 3.6249e-05 3.56838e-05 3.51295e-05 3.45858e-05 3.40524e-05 3.3529e-05 3.30153e-05 3.25111e-05 3.2016e-05 3.15299e-05 3.10523e-05 3.05833e-05 3.01224e-05 2.96696e-05 2.92245e-05 2.87869e-05 2.83567e-05 2.79337e-05 2.75176e-05 2.71083e-05 2.67057e-05 2.63095e-05 2.59196e-05 2.55357e-05 2.51579e-05 2.47859e-05 2.44195e-05 2.40586e-05 2.37033e-05 2.33531e-05 2.30081e-05 2.26681e-05 2.23329e-05 2.20025e-05 2.16768e-05 2.13556e-05 2.10388e-05 2.07264e-05 2.04182e-05 2.01142e-05 1.98141e-05 1.9518e-05 1.92257e-05 1.89372e-05 1.86524e-05 1.83711e-05 1.80934e-05 1.7819e-05 1.7548e-05 1.72803e-05 1.70158e-05 1.67543e-05 1.6496e-05 1.62406e-05 1.59881e-05 1.57384e-05 1.54916e-05 1.52474e-05 1.5006e-05 1.47671e-05 1.45308e-05 1.4297e-05 1.40655e-05 1.38365e-05 1.36098e-05 1.33853e-05 1.3163e-05 1.2943e-05 1.27251e-05 1.25092e-05 1.22953e-05 1.20835e-05 1.18735e-05 1.16655e-05 1.14593e-05 1.12549e-05 1.10523e-05 1.08514e-05 1.06522e-05 1.04546e-05 1.02586e-05 1.00643e-05 9.87143e-06 9.68005e-06 9.49019e-06 9.30177e-06 9.11469e-06 8.92896e-06 8.7446e-06 8.56151e-06 8.37971e-06 8.19921e-06 8.0198e-06 7.84159e-06 7.66458e-06 7.48864e-06 7.31378e-06 7.14001e-06 6.96728e-06 6.79554e-06 6.62476e-06 6.45493e-06 6.28605e-06 6.11806e-06 5.95095e-06 5.7847e-06 5.61931e-06 5.45471e-06 5.29085e-06 5.12781e-06 4.96549e-06 4.80391e-06 4.64303e-06 4.48286e-06 4.32332e-06 4.16445e-06 4.00622e-06 3.84858e-06 3.69156e-06 3.5352e-06 3.37938e-06 3.22415e-06 3.0695e-06 2.91545e-06 2.76203e-06 2.60922e-06 2.45702e-06 2.30552e-06 2.1547e-06 2.00475e-06 1.85569e-06 1.70767e-06 1.56095e-06 1.41577e-06 1.27264e-06 1.13216e-06 9.95426e-07 8.64131e-07 7.40982e-07 6.30674e-07 0.109773 0.0430107 0.0222448 0.0107328 0.00573323 0.00637152 0.00529192 0.00384278 0.00279243 0.00218157 0.00182255 0.00158061 0.00139324 0.00123829 0.00110682 0.000994416 0.000897968 0.000814924 0.000743148 0.000680816 0.000626421 0.000578701 0.000536624 0.000499335 0.00046613 0.000436424 0.000409735 0.000385655 0.000363848 0.000344025 0.000325945 0.000309401 0.000294218 0.000280243 0.000267346 0.000255413 0.000244346 0.000234059 0.000224476 0.000215532 0.000207167 0.000199329 0.000191974 0.000185059 0.000178547 0.000172407 0.000166609 0.000161126 0.000155935 0.000151013 0.000146341 0.000141902 0.000137678 0.000133656 0.000129822 0.000126163 0.000122669 0.000119328 0.000116132 0.000113071 0.000110137 0.000107324 0.000104623 0.000102029 9.95352e-05 9.71366e-05 9.48279e-05 9.26042e-05 9.04612e-05 8.83948e-05 8.64009e-05 8.44759e-05 8.26166e-05 8.08196e-05 7.9082e-05 7.7401e-05 7.57739e-05 7.41983e-05 7.26719e-05 7.11924e-05 6.97577e-05 6.8366e-05 6.70154e-05 6.57041e-05 6.44305e-05 6.3193e-05 6.19901e-05 6.08205e-05 5.96828e-05 5.85759e-05 5.74984e-05 5.64492e-05 5.54273e-05 5.44315e-05 5.34611e-05 5.25149e-05 5.15922e-05 5.06921e-05 4.98138e-05 4.89565e-05 4.81195e-05 4.7302e-05 4.65035e-05 4.57232e-05 4.49606e-05 4.42151e-05 4.34861e-05 4.27731e-05 4.20755e-05 4.13928e-05 4.07246e-05 4.00705e-05 3.943e-05 3.88026e-05 3.8188e-05 3.75857e-05 3.69955e-05 3.64169e-05 3.58495e-05 3.52932e-05 3.47476e-05 3.42122e-05 3.36869e-05 3.31714e-05 3.26653e-05 3.21685e-05 3.16806e-05 3.12014e-05 3.07307e-05 3.02682e-05 2.98138e-05 2.93671e-05 2.89281e-05 2.84965e-05 2.8072e-05 2.76546e-05 2.72439e-05 2.684e-05 2.64425e-05 2.60513e-05 2.56663e-05 2.52872e-05 2.49141e-05 2.45466e-05 2.41846e-05 2.38281e-05 2.34768e-05 2.31308e-05 2.27897e-05 2.24536e-05 2.21222e-05 2.17956e-05 2.14735e-05 2.11559e-05 2.08426e-05 2.05335e-05 2.02286e-05 1.99278e-05 1.9631e-05 1.9338e-05 1.90487e-05 1.87632e-05 1.84812e-05 1.82028e-05 1.79277e-05 1.76561e-05 1.73878e-05 1.71227e-05 1.68607e-05 1.66018e-05 1.63458e-05 1.60928e-05 1.58427e-05 1.55954e-05 1.53508e-05 1.51089e-05 1.48696e-05 1.46329e-05 1.43987e-05 1.41669e-05 1.39375e-05 1.37105e-05 1.34857e-05 1.32632e-05 1.30428e-05 1.28246e-05 1.26085e-05 1.23944e-05 1.21823e-05 1.19722e-05 1.1764e-05 1.15577e-05 1.13532e-05 1.11504e-05 1.09494e-05 1.07502e-05 1.05526e-05 1.03566e-05 1.01622e-05 9.96941e-06 9.77807e-06 9.58823e-06 9.39981e-06 9.21286e-06 9.02729e-06 8.84309e-06 8.66019e-06 8.47855e-06 8.2982e-06 8.11911e-06 7.94112e-06 7.76442e-06 7.5888e-06 7.41436e-06 7.24096e-06 7.06865e-06 6.89738e-06 6.72711e-06 6.55783e-06 6.38955e-06 6.22217e-06 6.05577e-06 5.89024e-06 5.72558e-06 5.56182e-06 5.39889e-06 5.23679e-06 5.07549e-06 4.91504e-06 4.75533e-06 4.59642e-06 4.43827e-06 4.28089e-06 4.12426e-06 3.96837e-06 3.81322e-06 3.65884e-06 3.50526e-06 3.35245e-06 3.20047e-06 3.04929e-06 2.89902e-06 2.74969e-06 2.60135e-06 2.45417e-06 2.30824e-06 2.16369e-06 2.02078e-06 1.8798e-06 1.74114e-06 1.6053e-06 1.47297e-06 1.34513e-06 1.22309e-06 1.1087e-06 1.00455e-06 0.0632002 0.0211972 0.0144782 0.00815817 0.00374343 0.00220298 0.00204553 0.00234043 0.00232212 0.00209048 0.00181342 0.00157116 0.00137879 0.00122657 0.00110277 0.000998628 0.000909097 0.000831019 0.000762426 0.000701865 0.000648215 0.000600537 0.000558039 0.00052004 0.000485957 0.000455289 0.000427604 0.000402534 0.000379762 0.000359015 0.000340057 0.000322687 0.000306728 0.000292029 0.000278456 0.000265895 0.000254243 0.000243412 0.000233323 0.000223908 0.000215105 0.000206859 0.000199124 0.000191854 0.000185012 0.000178563 0.000172476 0.000166723 0.000161278 0.000156118 0.000151223 0.000146574 0.000142154 0.000137946 0.000133937 0.000130114 0.000126464 0.000122976 0.000119641 0.000116448 0.00011339 0.000110458 0.000107646 0.000104945 0.000102351 9.98561e-05 9.74561e-05 9.51456e-05 9.29198e-05 9.07744e-05 8.87053e-05 8.67085e-05 8.47805e-05 8.29179e-05 8.11176e-05 7.93765e-05 7.76921e-05 7.60614e-05 7.44823e-05 7.29522e-05 7.14691e-05 7.00308e-05 6.86355e-05 6.72813e-05 6.59664e-05 6.46893e-05 6.34483e-05 6.2242e-05 6.10689e-05 5.99279e-05 5.88175e-05 5.77367e-05 5.66843e-05 5.56592e-05 5.46603e-05 5.36868e-05 5.27376e-05 5.18119e-05 5.09089e-05 5.00277e-05 4.91676e-05 4.83278e-05 4.75077e-05 4.67065e-05 4.59236e-05 4.51584e-05 4.44104e-05 4.3679e-05 4.29635e-05 4.22635e-05 4.15786e-05 4.09082e-05 4.02518e-05 3.96091e-05 3.89796e-05 3.8363e-05 3.77587e-05 3.71665e-05 3.6586e-05 3.60168e-05 3.54586e-05 3.49111e-05 3.4374e-05 3.3847e-05 3.33297e-05 3.2822e-05 3.23236e-05 3.18341e-05 3.13534e-05 3.08812e-05 3.04173e-05 2.99614e-05 2.95134e-05 2.90729e-05 2.86399e-05 2.82141e-05 2.77954e-05 2.73836e-05 2.69784e-05 2.65797e-05 2.61873e-05 2.58012e-05 2.5421e-05 2.50467e-05 2.46783e-05 2.43153e-05 2.39578e-05 2.36056e-05 2.32586e-05 2.29166e-05 2.25796e-05 2.22474e-05 2.19199e-05 2.1597e-05 2.12786e-05 2.09645e-05 2.06547e-05 2.03491e-05 2.00475e-05 1.97499e-05 1.94562e-05 1.91663e-05 1.88802e-05 1.85976e-05 1.83186e-05 1.80431e-05 1.77709e-05 1.7502e-05 1.72364e-05 1.69739e-05 1.67145e-05 1.64582e-05 1.62048e-05 1.59542e-05 1.57065e-05 1.54616e-05 1.52193e-05 1.49797e-05 1.47426e-05 1.45081e-05 1.42761e-05 1.40465e-05 1.38192e-05 1.35942e-05 1.33715e-05 1.3151e-05 1.29326e-05 1.27164e-05 1.25022e-05 1.22901e-05 1.20799e-05 1.18716e-05 1.16653e-05 1.14608e-05 1.1258e-05 1.1057e-05 1.08578e-05 1.06603e-05 1.04645e-05 1.02702e-05 1.00775e-05 9.88641e-06 9.69679e-06 9.50864e-06 9.32196e-06 9.13668e-06 8.95277e-06 8.77021e-06 8.58902e-06 8.40905e-06 8.23045e-06 8.05298e-06 7.87678e-06 7.70175e-06 7.52786e-06 7.35511e-06 7.18349e-06 7.01292e-06 6.84348e-06 6.67501e-06 6.50762e-06 6.3412e-06 6.17578e-06 6.01132e-06 5.8478e-06 5.68524e-06 5.52362e-06 5.36291e-06 5.20309e-06 5.04419e-06 4.88614e-06 4.729e-06 4.57274e-06 4.4174e-06 4.26295e-06 4.1094e-06 3.9568e-06 3.80513e-06 3.65443e-06 3.5048e-06 3.35623e-06 3.20879e-06 3.06257e-06 2.91768e-06 2.77423e-06 2.63235e-06 2.49226e-06 2.35421e-06 2.21844e-06 2.08538e-06 1.95545e-06 1.82931e-06 1.70769e-06 1.59155e-06 1.4821e-06 1.38082e-06 0.0349241 0.0119443 0.00787806 0.00266074 0.00269351 0.00236362 0.00191149 0.00160777 0.0015414 0.00152194 0.00147527 0.00138598 0.00127656 0.00116531 0.00106251 0.000971199 0.000890951 0.000820319 0.000757734 0.000701945 0.00065195 0.000606982 0.000566413 0.000529727 0.000496479 0.000466284 0.000438805 0.000413745 0.000390843 0.000369868 0.000350616 0.000332908 0.000316587 0.000301511 0.000287559 0.00027462 0.000262598 0.000251407 0.000240971 0.000231222 0.0002221 0.00021355 0.000205524 0.000197979 0.000190875 0.000184178 0.000177856 0.000171879 0.000166223 0.000160863 0.000155779 0.00015095 0.000146359 0.00014199 0.000137827 0.000133858 0.00013007 0.000126452 0.000122991 0.000119681 0.00011651 0.000113471 0.000110556 0.000107758 0.000105071 0.000102487 0.000100003 9.76117e-05 9.53088e-05 9.30898e-05 9.09501e-05 8.8886e-05 8.68935e-05 8.49691e-05 8.31096e-05 8.13118e-05 7.95729e-05 7.78901e-05 7.62608e-05 7.46826e-05 7.31532e-05 7.16705e-05 7.02324e-05 6.8837e-05 6.74825e-05 6.61673e-05 6.48895e-05 6.36479e-05 6.24407e-05 6.12668e-05 6.01248e-05 5.90134e-05 5.79314e-05 5.68777e-05 5.58513e-05 5.48512e-05 5.38763e-05 5.29258e-05 5.19988e-05 5.10943e-05 5.02116e-05 4.93501e-05 4.85089e-05 4.76872e-05 4.68846e-05 4.61002e-05 4.53336e-05 4.45841e-05 4.38511e-05 4.31342e-05 4.24328e-05 4.17464e-05 4.10746e-05 4.04169e-05 3.97728e-05 3.91419e-05 3.85238e-05 3.79182e-05 3.73247e-05 3.67429e-05 3.61724e-05 3.5613e-05 3.50642e-05 3.45259e-05 3.39977e-05 3.34792e-05 3.29703e-05 3.24707e-05 3.19802e-05 3.14983e-05 3.1025e-05 3.056e-05 3.01031e-05 2.9654e-05 2.92126e-05 2.87786e-05 2.83519e-05 2.79322e-05 2.75193e-05 2.71133e-05 2.67137e-05 2.63205e-05 2.59334e-05 2.55525e-05 2.51774e-05 2.48081e-05 2.44444e-05 2.40861e-05 2.37332e-05 2.33855e-05 2.30428e-05 2.27051e-05 2.23722e-05 2.20441e-05 2.17206e-05 2.14015e-05 2.10869e-05 2.07766e-05 2.04704e-05 2.01683e-05 1.98702e-05 1.95761e-05 1.92857e-05 1.89991e-05 1.8716e-05 1.84366e-05 1.81607e-05 1.78882e-05 1.76189e-05 1.7353e-05 1.70902e-05 1.68305e-05 1.65738e-05 1.63201e-05 1.60693e-05 1.58214e-05 1.55762e-05 1.53338e-05 1.5094e-05 1.48568e-05 1.46221e-05 1.439e-05 1.41602e-05 1.39329e-05 1.37078e-05 1.34851e-05 1.32646e-05 1.30462e-05 1.283e-05 1.26159e-05 1.24038e-05 1.21937e-05 1.19855e-05 1.17793e-05 1.15749e-05 1.13724e-05 1.11717e-05 1.09727e-05 1.07754e-05 1.05798e-05 1.03859e-05 1.01935e-05 1.00027e-05 9.81351e-06 9.62577e-06 9.43954e-06 9.25475e-06 9.07139e-06 8.8894e-06 8.70879e-06 8.52943e-06 8.35143e-06 8.17473e-06 7.99925e-06 7.825e-06 7.65196e-06 7.4801e-06 7.3094e-06 7.13985e-06 6.97143e-06 6.80407e-06 6.63784e-06 6.47266e-06 6.30856e-06 6.14548e-06 5.98345e-06 5.82241e-06 5.66241e-06 5.50341e-06 5.34543e-06 5.18844e-06 5.03246e-06 4.87751e-06 4.72358e-06 4.57069e-06 4.41885e-06 4.26813e-06 4.1185e-06 3.97005e-06 3.82282e-06 3.67681e-06 3.53219e-06 3.38899e-06 3.24735e-06 3.10737e-06 2.96922e-06 2.83307e-06 2.69921e-06 2.56786e-06 2.43935e-06 2.31411e-06 2.19259e-06 2.07538e-06 1.96321e-06 1.85694e-06 1.75764e-06 0.0193544 0.00754023 0.00472456 0.00184899 0.00119922 0.00104444 0.00117543 0.00126807 0.00122812 0.00118826 0.00115 0.0011164 0.0010736 0.00102149 0.000962491 0.000901373 0.000841506 0.000784926 0.000732474 0.000684288 0.000640181 0.000599828 0.000562892 0.000529047 0.000498 0.000469488 0.000443274 0.000419144 0.000396906 0.000376386 0.000357425 0.000339882 0.000323626 0.000308543 0.000294525 0.000281479 0.00026932 0.000257969 0.000247359 0.000237426 0.000228114 0.000219373 0.000211155 0.00020342 0.00019613 0.00018925 0.00018275 0.000176602 0.000170779 0.000165259 0.000160021 0.000155043 0.00015031 0.000145804 0.000141511 0.000137416 0.000133508 0.000129774 0.000126204 0.000122787 0.000119515 0.00011638 0.000113372 0.000110486 0.000107713 0.000105049 0.000102486 0.00010002 9.76455e-05 9.53576e-05 9.3152e-05 9.10245e-05 8.89712e-05 8.69885e-05 8.50729e-05 8.32212e-05 8.14305e-05 7.96978e-05 7.80206e-05 7.63963e-05 7.48225e-05 7.3297e-05 7.18178e-05 7.03827e-05 6.899e-05 6.76379e-05 6.63246e-05 6.50486e-05 6.38083e-05 6.26025e-05 6.14295e-05 6.02883e-05 5.91775e-05 5.8096e-05 5.70427e-05 5.60165e-05 5.50164e-05 5.40415e-05 5.30908e-05 5.21635e-05 5.12588e-05 5.03758e-05 4.95138e-05 4.8672e-05 4.78499e-05 4.70466e-05 4.62616e-05 4.54943e-05 4.47441e-05 4.40104e-05 4.32927e-05 4.25906e-05 4.19034e-05 4.12308e-05 4.05722e-05 3.99272e-05 3.92955e-05 3.86766e-05 3.80701e-05 3.74757e-05 3.6893e-05 3.63217e-05 3.57614e-05 3.52118e-05 3.46726e-05 3.41436e-05 3.36243e-05 3.31146e-05 3.26142e-05 3.21228e-05 3.16401e-05 3.11661e-05 3.07003e-05 3.02426e-05 2.97927e-05 2.93505e-05 2.89158e-05 2.84884e-05 2.8068e-05 2.76545e-05 2.72477e-05 2.68474e-05 2.64536e-05 2.60659e-05 2.56844e-05 2.53086e-05 2.49387e-05 2.45744e-05 2.42156e-05 2.38621e-05 2.35138e-05 2.31706e-05 2.28324e-05 2.24991e-05 2.21705e-05 2.18465e-05 2.1527e-05 2.12119e-05 2.09011e-05 2.05946e-05 2.02921e-05 1.99936e-05 1.96992e-05 1.94085e-05 1.91215e-05 1.88382e-05 1.85585e-05 1.82823e-05 1.80095e-05 1.774e-05 1.74739e-05 1.72109e-05 1.6951e-05 1.66942e-05 1.64403e-05 1.61894e-05 1.59414e-05 1.56961e-05 1.54535e-05 1.52137e-05 1.49765e-05 1.47418e-05 1.45096e-05 1.42799e-05 1.40526e-05 1.38276e-05 1.3605e-05 1.33845e-05 1.31663e-05 1.29502e-05 1.27362e-05 1.25244e-05 1.23145e-05 1.21066e-05 1.19006e-05 1.16965e-05 1.14943e-05 1.12939e-05 1.10953e-05 1.08984e-05 1.07032e-05 1.05097e-05 1.03179e-05 1.01276e-05 9.93895e-06 9.7518e-06 9.56615e-06 9.38199e-06 9.19926e-06 9.01797e-06 8.8381e-06 8.65961e-06 8.48242e-06 8.30658e-06 8.13201e-06 7.95877e-06 7.78677e-06 7.61601e-06 7.44645e-06 7.27807e-06 7.11092e-06 6.94491e-06 6.78003e-06 6.61633e-06 6.45375e-06 6.2923e-06 6.13198e-06 5.97276e-06 5.81468e-06 5.65765e-06 5.50179e-06 5.34705e-06 5.19344e-06 5.04094e-06 4.88963e-06 4.73951e-06 4.59062e-06 4.443e-06 4.29669e-06 4.15171e-06 4.00821e-06 3.86619e-06 3.72578e-06 3.58705e-06 3.45017e-06 3.31527e-06 3.18254e-06 3.05216e-06 2.92439e-06 2.79952e-06 2.67785e-06 2.55984e-06 2.4459e-06 2.33652e-06 2.23235e-06 2.13405e-06 0.0106677 0.00481643 0.00231979 0.00119923 0.00124176 0.000873984 0.000849078 0.000845365 0.000892252 0.000906836 0.00091015 0.000898014 0.000881002 0.000857668 0.000829432 0.000796447 0.00076035 0.00072265 0.000684804 0.000647831 0.000612384 0.000578806 0.000547232 0.000517674 0.000490075 0.000464342 0.000440364 0.000418029 0.000397224 0.00037784 0.000359772 0.000342922 0.000327198 0.000312513 0.000298787 0.000285947 0.000273923 0.000262652 0.000252077 0.000242144 0.000232804 0.000224012 0.000215728 0.000207913 0.000200533 0.000193558 0.000186957 0.000180704 0.000174775 0.000169149 0.000163803 0.00015872 0.000153883 0.000149275 0.000144881 0.000140689 0.000136685 0.000132859 0.000129199 0.000125695 0.000122339 0.000119121 0.000116035 0.000113072 0.000110226 0.000107491 0.00010486 0.000102328 9.98893e-05 9.754e-05 9.52751e-05 9.30904e-05 9.09819e-05 8.8946e-05 8.69791e-05 8.50779e-05 8.32394e-05 8.14607e-05 7.9739e-05 7.80718e-05 7.64566e-05 7.48912e-05 7.33733e-05 7.19009e-05 7.04722e-05 6.90852e-05 6.77382e-05 6.64297e-05 6.5158e-05 6.39216e-05 6.27193e-05 6.15495e-05 6.04112e-05 5.9303e-05 5.82238e-05 5.71725e-05 5.61482e-05 5.51498e-05 5.41764e-05 5.3227e-05 5.23008e-05 5.13971e-05 5.0515e-05 4.96537e-05 4.88126e-05 4.79909e-05 4.71881e-05 4.64034e-05 4.56364e-05 4.48864e-05 4.41528e-05 4.34352e-05 4.27331e-05 4.20458e-05 4.1373e-05 4.07143e-05 4.00692e-05 3.94373e-05 3.88181e-05 3.82114e-05 3.76167e-05 3.70337e-05 3.6462e-05 3.59013e-05 3.53514e-05 3.48118e-05 3.42823e-05 3.37627e-05 3.32525e-05 3.27517e-05 3.22598e-05 3.17767e-05 3.13022e-05 3.0836e-05 3.03779e-05 2.99276e-05 2.9485e-05 2.90498e-05 2.86219e-05 2.82011e-05 2.77872e-05 2.738e-05 2.69793e-05 2.6585e-05 2.61969e-05 2.5815e-05 2.54389e-05 2.50686e-05 2.47039e-05 2.43447e-05 2.39909e-05 2.36423e-05 2.32988e-05 2.29602e-05 2.26266e-05 2.22977e-05 2.19734e-05 2.16536e-05 2.13383e-05 2.10273e-05 2.07205e-05 2.04178e-05 2.01192e-05 1.98244e-05 1.95335e-05 1.92464e-05 1.8963e-05 1.86831e-05 1.84068e-05 1.81339e-05 1.78643e-05 1.7598e-05 1.7335e-05 1.70751e-05 1.68182e-05 1.65644e-05 1.63135e-05 1.60654e-05 1.58202e-05 1.55777e-05 1.53379e-05 1.51008e-05 1.48662e-05 1.46342e-05 1.44046e-05 1.41774e-05 1.39527e-05 1.37302e-05 1.351e-05 1.3292e-05 1.30762e-05 1.28626e-05 1.2651e-05 1.24415e-05 1.22339e-05 1.20283e-05 1.18247e-05 1.16229e-05 1.14229e-05 1.12248e-05 1.10285e-05 1.08338e-05 1.06409e-05 1.04497e-05 1.02601e-05 1.0072e-05 9.88564e-06 9.70079e-06 9.51743e-06 9.33557e-06 9.15514e-06 8.97616e-06 8.79862e-06 8.62246e-06 8.44768e-06 8.27423e-06 8.10211e-06 7.9313e-06 7.76178e-06 7.59355e-06 7.42654e-06 7.26079e-06 7.09634e-06 6.93307e-06 6.77101e-06 6.6102e-06 6.45056e-06 6.29214e-06 6.13492e-06 5.97892e-06 5.82413e-06 5.67056e-06 5.51822e-06 5.36718e-06 5.2174e-06 5.06892e-06 4.92178e-06 4.77601e-06 4.6317e-06 4.48886e-06 4.34756e-06 4.20787e-06 4.06993e-06 3.93383e-06 3.79965e-06 3.66752e-06 3.53765e-06 3.41019e-06 3.28533e-06 3.16333e-06 3.0445e-06 2.92909e-06 2.81753e-06 2.71024e-06 2.60762e-06 2.51024e-06 0.00601584 0.00310479 0.00121696 0.000830799 0.00061798 0.000675899 0.000681818 0.000702064 0.000692405 0.00070526 0.000711764 0.000718231 0.00071695 0.000711091 0.000699914 0.000684782 0.000665981 0.000644391 0.000620744 0.000595878 0.000570499 0.000545189 0.000520374 0.000496341 0.000473271 0.000451262 0.000430356 0.00041056 0.000391853 0.000374203 0.000357564 0.000341891 0.00032713 0.000313232 0.000300144 0.000287818 0.000276205 0.000265259 0.000254936 0.000245196 0.000235999 0.00022731 0.000219094 0.00021132 0.000203959 0.000196982 0.000190366 0.000184085 0.000178118 0.000172446 0.000167049 0.00016191 0.000157012 0.000152341 0.000147883 0.000143625 0.000139555 0.000135663 0.000131936 0.000128367 0.000124946 0.000121665 0.000118516 0.000115492 0.000112586 0.000109791 0.000107103 0.000104515 0.000102022 9.96202e-05 9.73039e-05 9.50693e-05 9.29124e-05 9.08294e-05 8.88169e-05 8.68714e-05 8.499e-05 8.31697e-05 8.14076e-05 7.97013e-05 7.80482e-05 7.6446e-05 7.48925e-05 7.33856e-05 7.19234e-05 7.0504e-05 6.91257e-05 6.77866e-05 6.64854e-05 6.52204e-05 6.39903e-05 6.27936e-05 6.16291e-05 6.04956e-05 5.93918e-05 5.83167e-05 5.72693e-05 5.62484e-05 5.52532e-05 5.42826e-05 5.33359e-05 5.24122e-05 5.15106e-05 5.06305e-05 4.97711e-05 4.89317e-05 4.81116e-05 4.73102e-05 4.65268e-05 4.57609e-05 4.50119e-05 4.42793e-05 4.35625e-05 4.28611e-05 4.21745e-05 4.15023e-05 4.08441e-05 4.01994e-05 3.95679e-05 3.89491e-05 3.83426e-05 3.77482e-05 3.71654e-05 3.65938e-05 3.60333e-05 3.54834e-05 3.49438e-05 3.44144e-05 3.38947e-05 3.33845e-05 3.28836e-05 3.23917e-05 3.19086e-05 3.1434e-05 3.09676e-05 3.05094e-05 3.00589e-05 2.96162e-05 2.91809e-05 2.87528e-05 2.83318e-05 2.79177e-05 2.75104e-05 2.71095e-05 2.67151e-05 2.63268e-05 2.59447e-05 2.55684e-05 2.5198e-05 2.48331e-05 2.44738e-05 2.41198e-05 2.3771e-05 2.34273e-05 2.30887e-05 2.27549e-05 2.24259e-05 2.21015e-05 2.17816e-05 2.14661e-05 2.11551e-05 2.08482e-05 2.05454e-05 2.02467e-05 1.9952e-05 1.9661e-05 1.93739e-05 1.90904e-05 1.88106e-05 1.85343e-05 1.82614e-05 1.79918e-05 1.77256e-05 1.74626e-05 1.72028e-05 1.6946e-05 1.66923e-05 1.64415e-05 1.61936e-05 1.59485e-05 1.57062e-05 1.54666e-05 1.52297e-05 1.49954e-05 1.47635e-05 1.45343e-05 1.43074e-05 1.40829e-05 1.38608e-05 1.36409e-05 1.34233e-05 1.32079e-05 1.29946e-05 1.27835e-05 1.25743e-05 1.23673e-05 1.21622e-05 1.19591e-05 1.17579e-05 1.15585e-05 1.1361e-05 1.11653e-05 1.09714e-05 1.07792e-05 1.05887e-05 1.03999e-05 1.02127e-05 1.00271e-05 9.8431e-06 9.66065e-06 9.47977e-06 9.30036e-06 9.12246e-06 8.94601e-06 8.77098e-06 8.5974e-06 8.42518e-06 8.25439e-06 8.08492e-06 7.91679e-06 7.75002e-06 7.5846e-06 7.42045e-06 7.25758e-06 7.09607e-06 6.93583e-06 6.77688e-06 6.61922e-06 6.46288e-06 6.30783e-06 6.15409e-06 6.00164e-06 5.85054e-06 5.70079e-06 5.55239e-06 5.40542e-06 5.2599e-06 5.11588e-06 4.97335e-06 4.83241e-06 4.69311e-06 4.55554e-06 4.41972e-06 4.28581e-06 4.15393e-06 4.02418e-06 3.89667e-06 3.77159e-06 3.64913e-06 3.52947e-06 3.41284e-06 3.29951e-06 3.18975e-06 3.08386e-06 2.98229e-06 2.88534e-06 0.00346787 0.00189919 0.000751316 0.000611651 0.000566627 0.00046716 0.000517053 0.000531148 0.00056055 0.000568449 0.000578923 0.000583752 0.000588418 0.000589408 0.000587787 0.000582728 0.000574786 0.000564071 0.000551065 0.000536164 0.000519856 0.000502582 0.000484755 0.000466723 0.000448763 0.000431087 0.000413849 0.000397156 0.000381074 0.000365644 0.000350884 0.000336799 0.00032338 0.000310614 0.00029848 0.000286954 0.000276012 0.000265626 0.00025577 0.000246416 0.000237537 0.000229107 0.000221101 0.000213495 0.000206266 0.000199392 0.000192852 0.000186627 0.000180698 0.000175048 0.00016966 0.00016452 0.000159612 0.000154924 0.000150443 0.000146156 0.000142054 0.000138125 0.000134361 0.000130752 0.000127289 0.000123965 0.000120772 0.000117704 0.000114754 0.000111916 0.000109184 0.000106552 0.000104016 0.000101572 9.92135e-05 9.69377e-05 9.47404e-05 9.26178e-05 9.05665e-05 8.85832e-05 8.66647e-05 8.48082e-05 8.30108e-05 8.127e-05 7.95833e-05 7.79484e-05 7.6363e-05 7.48251e-05 7.33326e-05 7.18838e-05 7.04768e-05 6.91099e-05 6.77816e-05 6.64902e-05 6.52344e-05 6.40128e-05 6.2824e-05 6.16668e-05 6.05401e-05 5.94427e-05 5.83735e-05 5.73315e-05 5.63157e-05 5.53251e-05 5.43589e-05 5.34163e-05 5.24963e-05 5.15983e-05 5.07214e-05 4.9865e-05 4.90284e-05 4.82108e-05 4.74118e-05 4.66307e-05 4.58668e-05 4.51197e-05 4.43889e-05 4.36737e-05 4.29738e-05 4.22886e-05 4.16177e-05 4.09607e-05 4.03171e-05 3.96866e-05 3.90687e-05 3.8463e-05 3.78693e-05 3.72872e-05 3.67164e-05 3.61564e-05 3.56071e-05 3.50681e-05 3.4539e-05 3.40198e-05 3.351e-05 3.30095e-05 3.25179e-05 3.2035e-05 3.15606e-05 3.10945e-05 3.06364e-05 3.01862e-05 2.97436e-05 2.93085e-05 2.88806e-05 2.84597e-05 2.80457e-05 2.76384e-05 2.72376e-05 2.68433e-05 2.64551e-05 2.6073e-05 2.56968e-05 2.53264e-05 2.49616e-05 2.46023e-05 2.42483e-05 2.38996e-05 2.3556e-05 2.32174e-05 2.28836e-05 2.25546e-05 2.22303e-05 2.19105e-05 2.15951e-05 2.12841e-05 2.09773e-05 2.06746e-05 2.03759e-05 2.00813e-05 1.97905e-05 1.95034e-05 1.92201e-05 1.89404e-05 1.86642e-05 1.83915e-05 1.81222e-05 1.78561e-05 1.75933e-05 1.73337e-05 1.70772e-05 1.68236e-05 1.65731e-05 1.63254e-05 1.60806e-05 1.58386e-05 1.55994e-05 1.53628e-05 1.51288e-05 1.48973e-05 1.46684e-05 1.44419e-05 1.42179e-05 1.39961e-05 1.37768e-05 1.35596e-05 1.33447e-05 1.3132e-05 1.29214e-05 1.27128e-05 1.25064e-05 1.23019e-05 1.20994e-05 1.18989e-05 1.17002e-05 1.15035e-05 1.13085e-05 1.11154e-05 1.0924e-05 1.07344e-05 1.05464e-05 1.03602e-05 1.01756e-05 9.99254e-06 9.81115e-06 9.63132e-06 9.45308e-06 9.27629e-06 9.10106e-06 8.92728e-06 8.75501e-06 8.58418e-06 8.41476e-06 8.24679e-06 8.0802e-06 7.91502e-06 7.75124e-06 7.58886e-06 7.4278e-06 7.26812e-06 7.10979e-06 6.95285e-06 6.79728e-06 6.64309e-06 6.4903e-06 6.33891e-06 6.18894e-06 6.04036e-06 5.89329e-06 5.74767e-06 5.60359e-06 5.46107e-06 5.32013e-06 5.18087e-06 5.04331e-06 4.90754e-06 4.77364e-06 4.64167e-06 4.5117e-06 4.38389e-06 4.25837e-06 4.13527e-06 4.01471e-06 3.89692e-06 3.78203e-06 3.67026e-06 3.56186e-06 3.45714e-06 3.35626e-06 3.25963e-06 0.00195358 0.00121518 0.000445446 0.000459784 0.000377625 0.000434724 0.000418476 0.000439052 0.000445281 0.000463077 0.00047296 0.000483138 0.000489117 0.000493825 0.000495967 0.000496243 0.000494234 0.000490183 0.000484105 0.000476243 0.000466807 0.000456076 0.000444321 0.000431815 0.000418806 0.000405514 0.000392124 0.000378787 0.000365622 0.00035272 0.000340147 0.000327951 0.000316164 0.000304804 0.000293882 0.000283399 0.000273353 0.000263736 0.000254538 0.000245747 0.000237348 0.000229326 0.000221667 0.000214354 0.000207371 0.000200703 0.000194334 0.00018825 0.000182437 0.00017688 0.000171566 0.000166484 0.000161619 0.000156962 0.000152502 0.000148227 0.000144129 0.000140199 0.000136427 0.000132805 0.000129327 0.000125983 0.000122769 0.000119676 0.0001167 0.000113834 0.000111073 0.000108413 0.000105847 0.000103371 0.000100982 9.86754e-05 9.64471e-05 9.42935e-05 9.22113e-05 9.01974e-05 8.82486e-05 8.63622e-05 8.45354e-05 8.27656e-05 8.10503e-05 7.93873e-05 7.77744e-05 7.62094e-05 7.46905e-05 7.32158e-05 7.17834e-05 7.03917e-05 6.9039e-05 6.77239e-05 6.6445e-05 6.52007e-05 6.39898e-05 6.2811e-05 6.16632e-05 6.05452e-05 5.94559e-05 5.83944e-05 5.73594e-05 5.63502e-05 5.53659e-05 5.44055e-05 5.34682e-05 5.25533e-05 5.166e-05 5.07876e-05 4.99353e-05 4.91025e-05 4.82886e-05 4.7493e-05 4.6715e-05 4.59541e-05 4.52098e-05 4.44815e-05 4.37687e-05 4.30711e-05 4.2388e-05 4.17191e-05 4.10639e-05 4.04221e-05 3.97931e-05 3.91768e-05 3.85726e-05 3.79802e-05 3.73993e-05 3.68296e-05 3.62707e-05 3.57224e-05 3.51843e-05 3.46562e-05 3.41378e-05 3.36288e-05 3.31289e-05 3.2638e-05 3.21558e-05 3.1682e-05 3.12164e-05 3.07589e-05 3.03092e-05 2.98671e-05 2.94323e-05 2.90048e-05 2.85843e-05 2.81707e-05 2.77638e-05 2.73633e-05 2.69693e-05 2.65814e-05 2.61996e-05 2.58237e-05 2.54535e-05 2.5089e-05 2.47299e-05 2.43763e-05 2.40278e-05 2.36844e-05 2.3346e-05 2.30125e-05 2.26838e-05 2.23596e-05 2.204e-05 2.17249e-05 2.14141e-05 2.11075e-05 2.08051e-05 2.05067e-05 2.02123e-05 1.99217e-05 1.9635e-05 1.93519e-05 1.90724e-05 1.87965e-05 1.85241e-05 1.8255e-05 1.79893e-05 1.77268e-05 1.74675e-05 1.72113e-05 1.69581e-05 1.6708e-05 1.64607e-05 1.62163e-05 1.59747e-05 1.57359e-05 1.54997e-05 1.52661e-05 1.50352e-05 1.48067e-05 1.45808e-05 1.43572e-05 1.4136e-05 1.39172e-05 1.37006e-05 1.34864e-05 1.32742e-05 1.30643e-05 1.28564e-05 1.26507e-05 1.24469e-05 1.22452e-05 1.20455e-05 1.18476e-05 1.16517e-05 1.14576e-05 1.12653e-05 1.10749e-05 1.08862e-05 1.06992e-05 1.051