<?xml version="1.0"?> 
<VTKFile type="StructuredGrid" version="0.1"> 
<StructuredGrid WholeExtent="0 256 0 256 0 0"> 
<Piece Extent="0 256 0 256 0 0"> 
<CellData>
<DataArray type="Float32" Name="err_h1" format="ascii" NumberOfComponents="1"> 
0.000107524 0.000107524 0.000107524 0.000107523 0.000107522 0.000107522 0.000107521 0.00010752 0.000107518 0.000107517 0.000107515 0.000107513 0.000107511 0.000107509 0.000107507 0.000107505 0.000107502 0.000107499 0.000107496 0.000107493 0.00010749 0.000107486 0.000107483 0.000107479 0.000107475 0.000107471 0.000107467 0.000107462 0.000107458 0.000107453 0.000107448 0.000107443 0.000107438 0.000107433 0.000107427 0.000107421 0.000107415 0.000107409 0.000107403 0.000107397 0.00010739 0.000107384 0.000107377 0.00010737 0.000107363 0.000107355 0.000107348 0.00010734 0.000107332 0.000107324 0.000107316 0.000107308 0.000107299 0.000107291 0.000107282 0.000107273 0.000107264 0.000107254 0.000107245 0.000107235 0.000107225 0.000107215 0.000107205 0.000107195 0.000107184 0.000107174 0.000107163 0.000107152 0.000107141 0.00010713 0.000107118 0.000107107 0.000107095 0.000107083 0.000107071 0.000107058 0.000107046 0.000107033 0.000107021 0.000107008 0.000106994 0.000106981 0.000106968 0.000106954 0.00010694 0.000106926 0.000106912 0.000106898 0.000106884 0.000106869 0.000106854 0.000106839 0.000106824 0.000106809 0.000106793 0.000106778 0.000106762 0.000106746 0.00010673 0.000106714 0.000106697 0.000106681 0.000106664 0.000106647 0.00010663 0.000106613 0.000106595 0.000106578 0.00010656 0.000106542 0.000106524 0.000106506 0.000106487 0.000106468 0.00010645 0.000106431 0.000106412 0.000106392 0.000106373 0.000106353 0.000106333 0.000106313 0.000106293 0.000106273 0.000106253 0.000106232 0.000106211 0.00010619 0.000106169 0.000106148 0.000106126 0.000106105 0.000106083 0.000106061 0.000106039 0.000106016 0.000105994 0.000105971 0.000105948 0.000105925 0.000105902 0.000105879 0.000105855 0.000105832 0.000105808 0.000105784 0.000105759 0.000105735 0.000105711 0.000105686 0.000105661 0.000105636 0.000105611 0.000105585 0.00010556 0.000105534 0.000105508 0.000105482 0.000105456 0.000105429 0.000105403 0.000105376 0.000105349 0.000105322 0.000105295 0.000105267 0.00010524 0.000105212 0.000105184 0.000105156 0.000105127 0.000105099 0.00010507 0.000105041 0.000105012 0.000104983 0.000104954 0.000104924 0.000104895 0.000104865 0.000104835 0.000104804 0.000104774 0.000104743 0.000104713 0.000104682 0.000104651 0.000104619 0.000104588 0.000104556 0.000104525 0.000104493 0.00010446 0.000104428 0.000104396 0.000104363 0.00010433 0.000104297 0.000104264 0.000104231 0.000104197 0.000104163 0.000104129 0.000104095 0.000104061 0.000104027 0.000103992 0.000103957 0.000103923 0.000103887 0.000103852 0.000103817 0.000103781 0.000103745 0.000103709 0.000103673 0.000103637 0.0001036 0.000103564 0.000103527 0.00010349 0.000103452 0.000103415 0.000103377 0.00010334 0.000103302 0.000103264 0.000103225 0.000103187 0.000103148 0.000103109 0.00010307 0.000103031 0.000102992 0.000102952 0.000102913 0.000102873 0.000102833 0.000102793 0.000102752 0.000102712 0.000102671 0.00010263 0.000102589 0.000102548 0.000102506 0.000102465 0.000102423 0.000102381 0.000102339 0.000102296 0.000102254 0.000102211 0.000102168 0.000102125 0.000102082 0.000107527 0.000107527 0.000107527 0.000107526 0.000107526 0.000107525 0.000107524 0.000107523 0.000107522 0.00010752 0.000107519 0.000107517 0.000107515 0.000107513 0.00010751 0.000107508 0.000107505 0.000107503 0.0001075 0.000107496 0.000107493 0.00010749 0.000107486 0.000107482 0.000107479 0.000107474 0.00010747 0.000107466 0.000107461 0.000107457 0.000107452 0.000107447 0.000107441 0.000107436 0.00010743 0.000107425 0.000107419 0.000107413 0.000107407 0.0001074 0.000107394 0.000107387 0.00010738 0.000107373 0.000107366 0.000107359 0.000107351 0.000107343 0.000107336 0.000107328 0.000107319 0.000107311 0.000107303 0.000107294 0.000107285 0.000107276 0.000107267 0.000107258 0.000107248 0.000107239 0.000107229 0.000107219 0.000107209 0.000107198 0.000107188 0.000107177 0.000107166 0.000107155 0.000107144 0.000107133 0.000107122 0.00010711 0.000107098 0.000107086 0.000107074 0.000107062 0.000107049 0.000107037 0.000107024 0.000107011 0.000106998 0.000106985 0.000106971 0.000106958 0.000106944 0.00010693 0.000106916 0.000106902 0.000106887 0.000106872 0.000106858 0.000106843 0.000106828 0.000106812 0.000106797 0.000106781 0.000106766 0.00010675 0.000106734 0.000106717 0.000106701 0.000106684 0.000106668 0.000106651 0.000106633 0.000106616 0.000106599 0.000106581 0.000106563 0.000106545 0.000106527 0.000106509 0.000106491 0.000106472 0.000106453 0.000106434 0.000106415 0.000106396 0.000106376 0.000106357 0.000106337 0.000106317 0.000106297 0.000106277 0.000106256 0.000106236 0.000106215 0.000106194 0.000106173 0.000106151 0.00010613 0.000106108 0.000106086 0.000106064 0.000106042 0.00010602 0.000105997 0.000105975 0.000105952 0.000105929 0.000105906 0.000105882 0.000105859 0.000105835 0.000105811 0.000105787 0.000105763 0.000105739 0.000105714 0.00010569 0.000105665 0.00010564 0.000105614 0.000105589 0.000105563 0.000105538 0.000105512 0.000105486 0.000105459 0.000105433 0.000105406 0.00010538 0.000105353 0.000105326 0.000105298 0.000105271 0.000105243 0.000105215 0.000105188 0.000105159 0.000105131 0.000105103 0.000105074 0.000105045 0.000105016 0.000104987 0.000104958 0.000104928 0.000104898 0.000104868 0.000104838 0.000104808 0.000104778 0.000104747 0.000104716 0.000104686 0.000104654 0.000104623 0.000104592 0.00010456 0.000104528 0.000104496 0.000104464 0.000104432 0.0001044 0.000104367 0.000104334 0.000104301 0.000104268 0.000104234 0.000104201 0.000104167 0.000104133 0.000104099 0.000104065 0.000104031 0.000103996 0.000103961 0.000103926 0.000103891 0.000103856 0.000103821 0.000103785 0.000103749 0.000103713 0.000103677 0.000103641 0.000103604 0.000103567 0.000103531 0.000103494 0.000103456 0.000103419 0.000103381 0.000103344 0.000103306 0.000103268 0.000103229 0.000103191 0.000103152 0.000103113 0.000103074 0.000103035 0.000102996 0.000102956 0.000102917 0.000102877 0.000102837 0.000102797 0.000102756 0.000102716 0.000102675 0.000102634 0.000102593 0.000102552 0.00010251 0.000102469 0.000102427 0.000102385 0.000102343 0.0001023 0.000102258 0.000102215 0.000102172 0.000102129 0.000102086 0.000107534 0.000107534 0.000107534 0.000107533 0.000107533 0.000107532 0.000107531 0.00010753 0.000107529 0.000107527 0.000107525 0.000107524 0.000107522 0.00010752 0.000107517 0.000107515 0.000107512 0.00010751 0.000107507 0.000107503 0.0001075 0.000107497 0.000107493 0.000107489 0.000107486 0.000107481 0.000107477 0.000107473 0.000107468 0.000107464 0.000107459 0.000107454 0.000107448 0.000107443 0.000107437 0.000107432 0.000107426 0.00010742 0.000107414 0.000107407 0.000107401 0.000107394 0.000107387 0.00010738 0.000107373 0.000107366 0.000107358 0.00010735 0.000107343 0.000107335 0.000107326 0.000107318 0.00010731 0.000107301 0.000107292 0.000107283 0.000107274 0.000107265 0.000107255 0.000107246 0.000107236 0.000107226 0.000107216 0.000107205 0.000107195 0.000107184 0.000107174 0.000107163 0.000107151 0.00010714 0.000107129 0.000107117 0.000107105 0.000107093 0.000107081 0.000107069 0.000107057 0.000107044 0.000107031 0.000107018 0.000107005 0.000106992 0.000106978 0.000106965 0.000106951 0.000106937 0.000106923 0.000106909 0.000106894 0.00010688 0.000106865 0.00010685 0.000106835 0.00010682 0.000106804 0.000106789 0.000106773 0.000106757 0.000106741 0.000106725 0.000106708 0.000106692 0.000106675 0.000106658 0.000106641 0.000106623 0.000106606 0.000106588 0.000106571 0.000106553 0.000106535 0.000106516 0.000106498 0.000106479 0.000106461 0.000106442 0.000106423 0.000106403 0.000106384 0.000106364 0.000106344 0.000106324 0.000106304 0.000106284 0.000106264 0.000106243 0.000106222 0.000106201 0.00010618 0.000106159 0.000106137 0.000106116 0.000106094 0.000106072 0.00010605 0.000106027 0.000106005 0.000105982 0.000105959 0.000105936 0.000105913 0.00010589 0.000105866 0.000105843 0.000105819 0.000105795 0.000105771 0.000105746 0.000105722 0.000105697 0.000105672 0.000105647 0.000105622 0.000105597 0.000105571 0.000105545 0.000105519 0.000105493 0.000105467 0.000105441 0.000105414 0.000105387 0.00010536 0.000105333 0.000105306 0.000105279 0.000105251 0.000105223 0.000105195 0.000105167 0.000105139 0.00010511 0.000105082 0.000105053 0.000105024 0.000104995 0.000104965 0.000104936 0.000104906 0.000104876 0.000104846 0.000104816 0.000104786 0.000104755 0.000104724 0.000104693 0.000104662 0.000104631 0.0001046 0.000104568 0.000104536 0.000104504 0.000104472 0.00010444 0.000104407 0.000104375 0.000104342 0.000104309 0.000104276 0.000104242 0.000104209 0.000104175 0.000104141 0.000104107 0.000104073 0.000104039 0.000104004 0.000103969 0.000103934 0.000103899 0.000103864 0.000103829 0.000103793 0.000103757 0.000103721 0.000103685 0.000103649 0.000103612 0.000103576 0.000103539 0.000103502 0.000103464 0.000103427 0.000103389 0.000103352 0.000103314 0.000103276 0.000103237 0.000103199 0.00010316 0.000103122 0.000103083 0.000103044 0.000103004 0.000102965 0.000102925 0.000102885 0.000102845 0.000102805 0.000102765 0.000102724 0.000102683 0.000102642 0.000102601 0.00010256 0.000102518 0.000102477 0.000102435 0.000102393 0.000102351 0.000102309 0.000102266 0.000102223 0.00010218 0.000102137 0.000102094 0.000107545 0.000107545 0.000107544 0.000107544 0.000107543 0.000107542 0.000107541 0.00010754 0.000107539 0.000107537 0.000107536 0.000107534 0.000107532 0.00010753 0.000107528 0.000107525 0.000107523 0.00010752 0.000107517 0.000107514 0.000107511 0.000107507 0.000107504 0.0001075 0.000107496 0.000107492 0.000107488 0.000107483 0.000107479 0.000107474 0.000107469 0.000107464 0.000107459 0.000107453 0.000107448 0.000107442 0.000107436 0.00010743 0.000107424 0.000107418 0.000107411 0.000107404 0.000107398 0.000107391 0.000107383 0.000107376 0.000107369 0.000107361 0.000107353 0.000107345 0.000107337 0.000107329 0.00010732 0.000107311 0.000107303 0.000107294 0.000107285 0.000107275 0.000107266 0.000107256 0.000107246 0.000107236 0.000107226 0.000107216 0.000107205 0.000107195 0.000107184 0.000107173 0.000107162 0.000107151 0.000107139 0.000107128 0.000107116 0.000107104 0.000107092 0.00010708 0.000107067 0.000107054 0.000107042 0.000107029 0.000107016 0.000107002 0.000106989 0.000106975 0.000106962 0.000106948 0.000106934 0.000106919 0.000106905 0.00010689 0.000106876 0.000106861 0.000106846 0.00010683 0.000106815 0.000106799 0.000106784 0.000106768 0.000106752 0.000106735 0.000106719 0.000106702 0.000106686 0.000106669 0.000106652 0.000106634 0.000106617 0.000106599 0.000106581 0.000106564 0.000106545 0.000106527 0.000106509 0.00010649 0.000106471 0.000106452 0.000106433 0.000106414 0.000106395 0.000106375 0.000106355 0.000106335 0.000106315 0.000106295 0.000106275 0.000106254 0.000106233 0.000106212 0.000106191 0.00010617 0.000106148 0.000106127 0.000106105 0.000106083 0.000106061 0.000106038 0.000106016 0.000105993 0.000105971 0.000105948 0.000105924 0.000105901 0.000105878 0.000105854 0.00010583 0.000105806 0.000105782 0.000105758 0.000105733 0.000105708 0.000105683 0.000105658 0.000105633 0.000105608 0.000105582 0.000105557 0.000105531 0.000105505 0.000105478 0.000105452 0.000105425 0.000105399 0.000105372 0.000105345 0.000105317 0.00010529 0.000105262 0.000105235 0.000105207 0.000105178 0.00010515 0.000105122 0.000105093 0.000105064 0.000105035 0.000105006 0.000104977 0.000104947 0.000104918 0.000104888 0.000104858 0.000104828 0.000104797 0.000104767 0.000104736 0.000104705 0.000104674 0.000104643 0.000104611 0.00010458 0.000104548 0.000104516 0.000104484 0.000104452 0.000104419 0.000104386 0.000104354 0.000104321 0.000104288 0.000104254 0.000104221 0.000104187 0.000104153 0.000104119 0.000104085 0.00010405 0.000104016 0.000103981 0.000103946 0.000103911 0.000103876 0.000103841 0.000103805 0.000103769 0.000103733 0.000103697 0.000103661 0.000103624 0.000103588 0.000103551 0.000103514 0.000103476 0.000103439 0.000103402 0.000103364 0.000103326 0.000103288 0.00010325 0.000103211 0.000103173 0.000103134 0.000103095 0.000103056 0.000103016 0.000102977 0.000102937 0.000102897 0.000102857 0.000102817 0.000102777 0.000102736 0.000102695 0.000102655 0.000102613 0.000102572 0.000102531 0.000102489 0.000102447 0.000102405 0.000102363 0.000102321 0.000102278 0.000102236 0.000102193 0.00010215 0.000102107 0.000107559 0.000107558 0.000107558 0.000107558 0.000107557 0.000107556 0.000107555 0.000107554 0.000107553 0.000107551 0.00010755 0.000107548 0.000107546 0.000107544 0.000107542 0.000107539 0.000107536 0.000107534 0.000107531 0.000107528 0.000107524 0.000107521 0.000107517 0.000107514 0.00010751 0.000107506 0.000107501 0.000107497 0.000107493 0.000107488 0.000107483 0.000107478 0.000107473 0.000107467 0.000107462 0.000107456 0.00010745 0.000107444 0.000107438 0.000107432 0.000107425 0.000107418 0.000107412 0.000107405 0.000107397 0.00010739 0.000107383 0.000107375 0.000107367 0.000107359 0.000107351 0.000107343 0.000107334 0.000107325 0.000107317 0.000107308 0.000107299 0.000107289 0.00010728 0.00010727 0.00010726 0.00010725 0.00010724 0.00010723 0.00010722 0.000107209 0.000107198 0.000107187 0.000107176 0.000107165 0.000107153 0.000107142 0.00010713 0.000107118 0.000107106 0.000107094 0.000107081 0.000107069 0.000107056 0.000107043 0.00010703 0.000107017 0.000107003 0.00010699 0.000106976 0.000106962 0.000106948 0.000106934 0.000106919 0.000106905 0.00010689 0.000106875 0.00010686 0.000106845 0.000106829 0.000106814 0.000106798 0.000106782 0.000106766 0.00010675 0.000106733 0.000106717 0.0001067 0.000106683 0.000106666 0.000106649 0.000106631 0.000106614 0.000106596 0.000106578 0.00010656 0.000106542 0.000106523 0.000106505 0.000106486 0.000106467 0.000106448 0.000106429 0.000106409 0.00010639 0.00010637 0.00010635 0.00010633 0.00010631 0.000106289 0.000106269 0.000106248 0.000106227 0.000106206 0.000106184 0.000106163 0.000106141 0.00010612 0.000106098 0.000106076 0.000106053 0.000106031 0.000106008 0.000105985 0.000105962 0.000105939 0.000105916 0.000105892 0.000105869 0.000105845 0.000105821 0.000105797 0.000105772 0.000105748 0.000105723 0.000105698 0.000105673 0.000105648 0.000105623 0.000105597 0.000105572 0.000105546 0.00010552 0.000105494 0.000105467 0.000105441 0.000105414 0.000105387 0.00010536 0.000105333 0.000105305 0.000105278 0.00010525 0.000105222 0.000105194 0.000105165 0.000105137 0.000105108 0.00010508 0.000105051 0.000105021 0.000104992 0.000104963 0.000104933 0.000104903 0.000104873 0.000104843 0.000104813 0.000104782 0.000104751 0.000104721 0.000104689 0.000104658 0.000104627 0.000104595 0.000104564 0.000104532 0.000104499 0.000104467 0.000104435 0.000104402 0.000104369 0.000104336 0.000104303 0.00010427 0.000104236 0.000104203 0.000104169 0.000104135 0.000104101 0.000104066 0.000104032 0.000103997 0.000103962 0.000103927 0.000103892 0.000103856 0.000103821 0.000103785 0.000103749 0.000103713 0.000103677 0.00010364 0.000103604 0.000103567 0.00010353 0.000103493 0.000103455 0.000103418 0.00010338 0.000103342 0.000103304 0.000103266 0.000103227 0.000103189 0.00010315 0.000103111 0.000103072 0.000103033 0.000102993 0.000102954 0.000102914 0.000102874 0.000102833 0.000102793 0.000102753 0.000102712 0.000102671 0.00010263 0.000102589 0.000102547 0.000102506 0.000102464 0.000102422 0.00010238 0.000102337 0.000102295 0.000102252 0.000102209 0.000102166 0.000102123 0.000107576 0.000107576 0.000107575 0.000107575 0.000107574 0.000107573 0.000107572 0.000107571 0.00010757 0.000107569 0.000107567 0.000107565 0.000107563 0.000107561 0.000107559 0.000107556 0.000107554 0.000107551 0.000107548 0.000107545 0.000107542 0.000107538 0.000107535 0.000107531 0.000107527 0.000107523 0.000107519 0.000107514 0.00010751 0.000107505 0.0001075 0.000107495 0.00010749 0.000107485 0.000107479 0.000107473 0.000107468 0.000107461 0.000107455 0.000107449 0.000107442 0.000107436 0.000107429 0.000107422 0.000107415 0.000107407 0.0001074 0.000107392 0.000107384 0.000107376 0.000107368 0.00010736 0.000107352 0.000107343 0.000107334 0.000107325 0.000107316 0.000107307 0.000107297 0.000107288 0.000107278 0.000107268 0.000107258 0.000107248 0.000107237 0.000107226 0.000107216 0.000107205 0.000107194 0.000107182 0.000107171 0.000107159 0.000107148 0.000107136 0.000107124 0.000107111 0.000107099 0.000107086 0.000107074 0.000107061 0.000107048 0.000107034 0.000107021 0.000107007 0.000106994 0.00010698 0.000106966 0.000106951 0.000106937 0.000106922 0.000106908 0.000106893 0.000106878 0.000106863 0.000106847 0.000106832 0.000106816 0.0001068 0.000106784 0.000106768 0.000106751 0.000106735 0.000106718 0.000106701 0.000106684 0.000106667 0.000106649 0.000106632 0.000106614 0.000106596 0.000106578 0.00010656 0.000106541 0.000106523 0.000106504 0.000106485 0.000106466 0.000106447 0.000106427 0.000106408 0.000106388 0.000106368 0.000106348 0.000106328 0.000106308 0.000106287 0.000106266 0.000106245 0.000106224 0.000106203 0.000106181 0.00010616 0.000106138 0.000106116 0.000106094 0.000106072 0.000106049 0.000106027 0.000106004 0.000105981 0.000105958 0.000105935 0.000105911 0.000105887 0.000105864 0.00010584 0.000105815 0.000105791 0.000105767 0.000105742 0.000105717 0.000105692 0.000105667 0.000105642 0.000105616 0.00010559 0.000105565 0.000105539 0.000105512 0.000105486 0.000105459 0.000105433 0.000105406 0.000105379 0.000105352 0.000105324 0.000105297 0.000105269 0.000105241 0.000105213 0.000105185 0.000105156 0.000105128 0.000105099 0.00010507 0.000105041 0.000105011 0.000104982 0.000104952 0.000104922 0.000104892 0.000104862 0.000104832 0.000104801 0.000104771 0.00010474 0.000104709 0.000104678 0.000104646 0.000104615 0.000104583 0.000104551 0.000104519 0.000104487 0.000104454 0.000104422 0.000104389 0.000104356 0.000104323 0.00010429 0.000104256 0.000104222 0.000104189 0.000104155 0.00010412 0.000104086 0.000104052 0.000104017 0.000103982 0.000103947 0.000103912 0.000103876 0.000103841 0.000103805 0.000103769 0.000103733 0.000103697 0.00010366 0.000103624 0.000103587 0.00010355 0.000103513 0.000103475 0.000103438 0.0001034 0.000103362 0.000103324 0.000103286 0.000103248 0.000103209 0.00010317 0.000103131 0.000103092 0.000103053 0.000103014 0.000102974 0.000102934 0.000102894 0.000102854 0.000102814 0.000102773 0.000102732 0.000102691 0.00010265 0.000102609 0.000102568 0.000102526 0.000102484 0.000102443 0.0001024 0.000102358 0.000102316 0.000102273 0.00010223 0.000102187 0.000102144 0.000107597 0.000107596 0.000107596 0.000107596 0.000107595 0.000107594 0.000107593 0.000107592 0.000107591 0.000107589 0.000107588 0.000107586 0.000107584 0.000107582 0.00010758 0.000107577 0.000107574 0.000107572 0.000107569 0.000107566 0.000107562 0.000107559 0.000107555 0.000107552 0.000107548 0.000107544 0.00010754 0.000107535 0.000107531 0.000107526 0.000107521 0.000107516 0.000107511 0.000107505 0.0001075 0.000107494 0.000107488 0.000107482 0.000107476 0.00010747 0.000107463 0.000107457 0.00010745 0.000107443 0.000107436 0.000107428 0.000107421 0.000107413 0.000107405 0.000107397 0.000107389 0.000107381 0.000107372 0.000107364 0.000107355 0.000107346 0.000107337 0.000107328 0.000107318 0.000107309 0.000107299 0.000107289 0.000107279 0.000107269 0.000107258 0.000107248 0.000107237 0.000107226 0.000107215 0.000107204 0.000107192 0.000107181 0.000107169 0.000107157 0.000107145 0.000107133 0.00010712 0.000107108 0.000107095 0.000107082 0.000107069 0.000107056 0.000107042 0.000107029 0.000107015 0.000107001 0.000106987 0.000106973 0.000106958 0.000106944 0.000106929 0.000106914 0.000106899 0.000106884 0.000106869 0.000106853 0.000106837 0.000106821 0.000106805 0.000106789 0.000106773 0.000106756 0.00010674 0.000106723 0.000106706 0.000106688 0.000106671 0.000106653 0.000106636 0.000106618 0.0001066 0.000106582 0.000106563 0.000106545 0.000106526 0.000106507 0.000106488 0.000106469 0.000106449 0.00010643 0.00010641 0.00010639 0.00010637 0.00010635 0.000106329 0.000106309 0.000106288 0.000106267 0.000106246 0.000106225 0.000106204 0.000106182 0.00010616 0.000106138 0.000106116 0.000106094 0.000106072 0.000106049 0.000106026 0.000106003 0.00010598 0.000105957 0.000105933 0.00010591 0.000105886 0.000105862 0.000105838 0.000105814 0.000105789 0.000105764 0.00010574 0.000105715 0.00010569 0.000105664 0.000105639 0.000105613 0.000105587 0.000105561 0.000105535 0.000105509 0.000105482 0.000105455 0.000105429 0.000105402 0.000105374 0.000105347 0.000105319 0.000105292 0.000105264 0.000105236 0.000105208 0.000105179 0.000105151 0.000105122 0.000105093 0.000105064 0.000105034 0.000105005 0.000104975 0.000104946 0.000104916 0.000104885 0.000104855 0.000104825 0.000104794 0.000104763 0.000104732 0.000104701 0.00010467 0.000104638 0.000104606 0.000104574 0.000104542 0.00010451 0.000104478 0.000104445 0.000104412 0.00010438 0.000104346 0.000104313 0.00010428 0.000104246 0.000104212 0.000104178 0.000104144 0.00010411 0.000104075 0.000104041 0.000104006 0.000103971 0.000103936 0.0001039 0.000103865 0.000103829 0.000103793 0.000103757 0.000103721 0.000103684 0.000103648 0.000103611 0.000103574 0.000103537 0.000103499 0.000103462 0.000103424 0.000103386 0.000103348 0.00010331 0.000103272 0.000103233 0.000103195 0.000103156 0.000103117 0.000103077 0.000103038 0.000102998 0.000102959 0.000102919 0.000102878 0.000102838 0.000102798 0.000102757 0.000102716 0.000102675 0.000102634 0.000102592 0.000102551 0.000102509 0.000102467 0.000102425 0.000102383 0.00010234 0.000102298 0.000102255 0.000102212 0.000102169 0.000107621 0.000107621 0.00010762 0.00010762 0.000107619 0.000107618 0.000107617 0.000107616 0.000107615 0.000107613 0.000107612 0.00010761 0.000107608 0.000107606 0.000107604 0.000107601 0.000107599 0.000107596 0.000107593 0.00010759 0.000107587 0.000107583 0.00010758 0.000107576 0.000107572 0.000107568 0.000107564 0.000107559 0.000107555 0.00010755 0.000107545 0.00010754 0.000107535 0.00010753 0.000107524 0.000107518 0.000107513 0.000107507 0.0001075 0.000107494 0.000107488 0.000107481 0.000107474 0.000107467 0.00010746 0.000107453 0.000107445 0.000107438 0.00010743 0.000107422 0.000107414 0.000107405 0.000107397 0.000107388 0.00010738 0.000107371 0.000107361 0.000107352 0.000107343 0.000107333 0.000107323 0.000107313 0.000107303 0.000107293 0.000107283 0.000107272 0.000107261 0.00010725 0.000107239 0.000107228 0.000107217 0.000107205 0.000107193 0.000107182 0.000107169 0.000107157 0.000107145 0.000107132 0.00010712 0.000107107 0.000107094 0.00010708 0.000107067 0.000107054 0.00010704 0.000107026 0.000107012 0.000106998 0.000106983 0.000106969 0.000106954 0.000106939 0.000106924 0.000106909 0.000106894 0.000106878 0.000106862 0.000106847 0.00010683 0.000106814 0.000106798 0.000106781 0.000106765 0.000106748 0.000106731 0.000106714 0.000106696 0.000106679 0.000106661 0.000106643 0.000106625 0.000106607 0.000106589 0.00010657 0.000106551 0.000106532 0.000106513 0.000106494 0.000106475 0.000106455 0.000106436 0.000106416 0.000106396 0.000106375 0.000106355 0.000106335 0.000106314 0.000106293 0.000106272 0.000106251 0.000106229 0.000106208 0.000106186 0.000106164 0.000106142 0.00010612 0.000106097 0.000106075 0.000106052 0.000106029 0.000106006 0.000105983 0.000105959 0.000105936 0.000105912 0.000105888 0.000105864 0.00010584 0.000105815 0.000105791 0.000105766 0.000105741 0.000105716 0.000105691 0.000105665 0.000105639 0.000105614 0.000105588 0.000105561 0.000105535 0.000105509 0.000105482 0.000105455 0.000105428 0.000105401 0.000105374 0.000105346 0.000105318 0.000105291 0.000105262 0.000105234 0.000105206 0.000105177 0.000105149 0.00010512 0.000105091 0.000105061 0.000105032 0.000105002 0.000104973 0.000104943 0.000104913 0.000104882 0.000104852 0.000104821 0.00010479 0.000104759 0.000104728 0.000104697 0.000104665 0.000104634 0.000104602 0.00010457 0.000104538 0.000104505 0.000104473 0.00010444 0.000104407 0.000104374 0.000104341 0.000104307 0.000104274 0.00010424 0.000104206 0.000104172 0.000104138 0.000104103 0.000104068 0.000104034 0.000103999 0.000103963 0.000103928 0.000103893 0.000103857 0.000103821 0.000103785 0.000103749 0.000103712 0.000103676 0.000103639 0.000103602 0.000103565 0.000103528 0.00010349 0.000103453 0.000103415 0.000103377 0.000103339 0.0001033 0.000103262 0.000103223 0.000103184 0.000103145 0.000103106 0.000103066 0.000103027 0.000102987 0.000102947 0.000102907 0.000102867 0.000102826 0.000102786 0.000102745 0.000102704 0.000102663 0.000102621 0.00010258 0.000102538 0.000102496 0.000102454 0.000102412 0.000102369 0.000102327 0.000102284 0.000102241 0.000102198 0.000107648 0.000107648 0.000107648 0.000107647 0.000107647 0.000107646 0.000107645 0.000107644 0.000107642 0.000107641 0.000107639 0.000107638 0.000107636 0.000107634 0.000107631 0.000107629 0.000107626 0.000107624 0.000107621 0.000107618 0.000107614 0.000107611 0.000107607 0.000107604 0.0001076 0.000107596 0.000107591 0.000107587 0.000107583 0.000107578 0.000107573 0.000107568 0.000107563 0.000107557 0.000107552 0.000107546 0.00010754 0.000107534 0.000107528 0.000107522 0.000107515 0.000107509 0.000107502 0.000107495 0.000107488 0.000107481 0.000107473 0.000107465 0.000107458 0.00010745 0.000107442 0.000107433 0.000107425 0.000107416 0.000107407 0.000107399 0.000107389 0.00010738 0.000107371 0.000107361 0.000107351 0.000107342 0.000107331 0.000107321 0.000107311 0.0001073 0.000107289 0.000107279 0.000107268 0.000107256 0.000107245 0.000107233 0.000107222 0.00010721 0.000107198 0.000107186 0.000107173 0.000107161 0.000107148 0.000107135 0.000107122 0.000107109 0.000107095 0.000107082 0.000107068 0.000107054 0.00010704 0.000107026 0.000107012 0.000106997 0.000106983 0.000106968 0.000106953 0.000106938 0.000106922 0.000106907 0.000106891 0.000106875 0.000106859 0.000106843 0.000106827 0.00010681 0.000106793 0.000106777 0.00010676 0.000106742 0.000106725 0.000106708 0.00010669 0.000106672 0.000106654 0.000106636 0.000106618 0.000106599 0.00010658 0.000106562 0.000106543 0.000106523 0.000106504 0.000106484 0.000106465 0.000106445 0.000106425 0.000106405 0.000106384 0.000106364 0.000106343 0.000106322 0.000106301 0.00010628 0.000106259 0.000106237 0.000106216 0.000106194 0.000106172 0.000106149 0.000106127 0.000106104 0.000106082 0.000106059 0.000106036 0.000106013 0.000105989 0.000105966 0.000105942 0.000105918 0.000105894 0.00010587 0.000105845 0.000105821 0.000105796 0.000105771 0.000105746 0.000105721 0.000105695 0.00010567 0.000105644 0.000105618 0.000105592 0.000105565 0.000105539 0.000105512 0.000105485 0.000105459 0.000105431 0.000105404 0.000105377 0.000105349 0.000105321 0.000105293 0.000105265 0.000105236 0.000105208 0.000105179 0.00010515 0.000105121 0.000105092 0.000105063 0.000105033 0.000105003 0.000104974 0.000104943 0.000104913 0.000104883 0.000104852 0.000104821 0.00010479 0.000104759 0.000104728 0.000104696 0.000104665 0.000104633 0.000104601 0.000104569 0.000104537 0.000104504 0.000104471 0.000104438 0.000104405 0.000104372 0.000104339 0.000104305 0.000104271 0.000104238 0.000104203 0.000104169 0.000104135 0.0001041 0.000104065 0.00010403 0.000103995 0.00010396 0.000103924 0.000103889 0.000103853 0.000103817 0.000103781 0.000103744 0.000103708 0.000103671 0.000103634 0.000103597 0.00010356 0.000103522 0.000103485 0.000103447 0.000103409 0.000103371 0.000103333 0.000103294 0.000103255 0.000103217 0.000103178 0.000103138 0.000103099 0.000103059 0.00010302 0.00010298 0.00010294 0.000102899 0.000102859 0.000102818 0.000102778 0.000102737 0.000102696 0.000102654 0.000102613 0.000102571 0.000102529 0.000102487 0.000102445 0.000102403 0.00010236 0.000102317 0.000102274 0.000102231 0.000107679 0.000107679 0.000107679 0.000107678 0.000107678 0.000107677 0.000107676 0.000107675 0.000107674 0.000107672 0.00010767 0.000107669 0.000107667 0.000107665 0.000107662 0.00010766 0.000107657 0.000107655 0.000107652 0.000107649 0.000107645 0.000107642 0.000107638 0.000107635 0.000107631 0.000107627 0.000107623 0.000107618 0.000107614 0.000107609 0.000107604 0.000107599 0.000107594 0.000107589 0.000107583 0.000107577 0.000107572 0.000107566 0.000107559 0.000107553 0.000107547 0.00010754 0.000107533 0.000107526 0.000107519 0.000107512 0.000107504 0.000107497 0.000107489 0.000107481 0.000107473 0.000107465 0.000107456 0.000107448 0.000107439 0.00010743 0.000107421 0.000107412 0.000107402 0.000107393 0.000107383 0.000107373 0.000107363 0.000107353 0.000107342 0.000107332 0.000107321 0.00010731 0.000107299 0.000107288 0.000107277 0.000107265 0.000107253 0.000107241 0.000107229 0.000107217 0.000107205 0.000107192 0.00010718 0.000107167 0.000107154 0.000107141 0.000107127 0.000107114 0.0001071 0.000107086 0.000107072 0.000107058 0.000107044 0.000107029 0.000107015 0.000107 0.000106985 0.00010697 0.000106954 0.000106939 0.000106923 0.000106907 0.000106891 0.000106875 0.000106859 0.000106842 0.000106826 0.000106809 0.000106792 0.000106775 0.000106758 0.00010674 0.000106722 0.000106705 0.000106687 0.000106668 0.00010665 0.000106632 0.000106613 0.000106594 0.000106575 0.000106556 0.000106537 0.000106517 0.000106498 0.000106478 0.000106458 0.000106438 0.000106417 0.000106397 0.000106376 0.000106355 0.000106334 0.000106313 0.000106292 0.00010627 0.000106249 0.000106227 0.000106205 0.000106183 0.00010616 0.000106138 0.000106115 0.000106092 0.000106069 0.000106046 0.000106023 0.000105999 0.000105975 0.000105952 0.000105928 0.000105903 0.000105879 0.000105854 0.00010583 0.000105805 0.00010578 0.000105754 0.000105729 0.000105703 0.000105678 0.000105652 0.000105626 0.000105599 0.000105573 0.000105546 0.00010552 0.000105493 0.000105466 0.000105438 0.000105411 0.000105383 0.000105355 0.000105327 0.000105299 0.000105271 0.000105242 0.000105214 0.000105185 0.000105156 0.000105127 0.000105097 0.000105068 0.000105038 0.000105008 0.000104978 0.000104948 0.000104918 0.000104887 0.000104856 0.000104825 0.000104794 0.000104763 0.000104732 0.0001047 0.000104668 0.000104636 0.000104604 0.000104572 0.000104539 0.000104507 0.00010