<?xml version="1.0"?> 
<VTKFile type="StructuredGrid" version="0.1"> 
<StructuredGrid WholeExtent="0 15 0 15 0 0"> 
<Piece Extent="0 15 0 15 0 0"> 
<PointData>
<DataArray type="Float32" Name="|E|" format="ascii" NumberOfComponents="3"> 
-2.10936e+06 0 0 -2.11551e+06 25166.9 0 -2.13405e+06 50724.8 0 -2.16527e+06 77083.7 0 -2.20964e+06 104695 0 -2.26787e+06 134062 0 -2.34095e+06 165754 0 -2.43024e+06 200423 0 -2.53754e+06 238505 0 -2.66522e+06 280329 0 -2.81677e+06 325058 0 -2.99634e+06 367568 0 -3.20892e+06 396840 0 -3.4546e+06 384348 0 -3.69523e+06 270414 0 -3.81427e+06 -15730.9 0 -2.10731e+06 0 0 -2.11271e+06 24539.5 0 -2.129e+06 49414.2 0 -2.15638e+06 74972 0 -2.19522e+06 101595 0 -2.24606e+06 129706 0 -2.30965e+06 159776 0 -2.38697e+06 192357 0 -2.47939e+06 227956 0 -2.58863e+06 266908 0 -2.71712e+06 309309 0 -2.86828e+06 353457 0 -3.04606e+06 393912 0 -3.256e+06 417318 0 -3.49669e+06 389850 0 -3.72995e+06 238508 0 -2.10518e+06 0 0 -2.10989e+06 23790.1 0 -2.12407e+06 47863.4 0 -2.14789e+06 72511.4 0 -2.1816e+06 98051.8 0 -2.22563e+06 124834 0 -2.28052e+06 153247 0 -2.34699e+06 183730 0 -2.42602e+06 216763 0 -2.51888e+06 252745 0 -2.62717e+06 291902 0 -2.75333e+06 334104 0 -2.9005e+06 377270 0 -3.07247e+06 416250 0 -3.27521e+06 437270 0 -3.50807e+06 404919 0 -2.10298e+06 0 0 -2.10704e+06 22919.4 0 -2.11927e+06 46073.7 0 -2.13977e+06 69704.4 0 -2.16877e+06 94070.9 0 -2.20653e+06 119457 0 -2.25348e+06 146176 0 -2.31013e+06 174583 0 -2.37715e+06 205059 0 -2.45545e+06 238026 0 -2.54617e+06 273762 0 -2.65075e+06 312471 0 -2.7715e+06 353785 0 -2.91111e+06 396040 0 -3.07332e+06 434283 0 -3.2637e+06 457916 0 -2.1007e+06 0 0 -2.10416e+06 21927.6 0 -2.11458e+06 44046.5 0 -2.13205e+06 66553.2 0 -2.1567e+06 89655.7 0 -2.18874e+06 113581 0 -2.22847e+06 138575 0 -2.27625e+06 164919 0 -2.33255e+06 192911 0 -2.39796e+06 222890 0 -2.47328e+06 255190 0 -2.55946e+06 290061 0 -2.65779e+06 327617 0 -2.77023e+06 367535 0 -2.89909e+06 408606 0 -3.04756e+06 448183 0 -2.09834e+06 0 0 -2.10125e+06 20815 0 -2.11002e+06 41782.8 0 -2.12469e+06 63059.5 0 -2.14538e+06 84809 0 -2.17223e+06 107208 0 -2.20542e+06 130448 0 -2.24523e+06 154741 0 -2.29196e+06 180322 0 -2.34601e+06 207442 0 -2.40789e+06 236383 0 -2.47824e+06 267409 0 -2.55782e+06 300786 0 -2.6477e+06 336559 0 -2.74941e+06 374497 0 -2.86482e+06 414233 0 -2.0959e+06 0 0 -2.09831e+06 19582.3 0 -2.10557e+06 39283.5 0 -2.11771e+06 59224.9 0 -2.13481e+06 79532.6 0 -2.15695e+06 100341 0 -2.18428e+06 121795 0 -2.21696e+06 144050 0 -2.25519e+06 167284 0 -2.29925e+06 191683 0 -2.34943e+06 217457 0 -2.40615e+06 244814 0 -2.46989e+06 273987 0 -2.54124e+06 305215 0 -2.62098e+06 338556 0 -2.71022e+06 374062 0 -2.09338e+06 0 0 -2.09535e+06 18229.9 0 -2.10124e+06 36549.7 0 -2.1111e+06 55050.8 0 -2.12496e+06 73827.5 0 -2.14289e+06 92979.3 0 -2.16498e+06 112612 0 -2.19133e+06 132839 0 -2.22207e+06 153786 0 -2.25737e+06 175586 0 -2.29742e+06 198390 0 -2.34245e+06 222359 0 -2.39276e+06 247651 0 -2.4487e+06 274452 0 -2.51068e+06 302958 0 -2.57923e+06 333364 0 -2.09079e+06 0 0 -2.09235e+06 16758.3 0 -2.09703e+06 33582.2 0 -2.10485e+06 50538.1 0 -2.11583e+06 67694.2 0 -2.13002e+06 85121.5 0 -2.14747e+06 102895 0 -2.16825e+06 121094 0 -2.19243e+06 139805 0 -2.22011e+06 159119 0 -2.25141e+06 179136 0 -2.28646e+06 199966 0 -2.32542e+06 221727 0 -2.3685e+06 244537 0 -2.41593e+06 268526 0 -2.46796e+06 293892 0 -2.08812e+06 0 0 -2.08932e+06 15168 0 -2.09293e+06 30381.7 0 -2.09895e+06 45687.4 0 -2.10741e+06 61132.1 0 -2.11832e+06 76764.6 0 -2.13172e+06 92635.7 0 -2.14764e+06 108798 0 -2.16613e+06 125309 0 -2.18725e+06 142228 0 -2.21106e+06 159621 0 -2.23763e+06 177555 0 -2.26706e+06 196107 0 -2.29944e+06 215358 0 -2.3349e+06 235383 0 -2.37358e+06 256288 0 -2.08538e+06 0 0 -2.08627e+06 13459.5 0 -2.08895e+06 26949.1 0 -2.09341e+06 40499.1 0 -2.09968e+06 54140.3 0 -2.10776e+06 67904.3 0 -2.11767e+06 81823.7 0 -2.12943e+06 95932.1 0 -2.14306e+06 110265 0 -2.1586e+06 124858 0 -2.17607e+06 139752 0 -2.19552e+06 154988 0 -2.21699e+06 170610 0 -2.24054e+06 186666 0 -2.26621e+06 203207 0 -2.29408e+06 220293 0 -2.08256e+06 0 0 -2.08318e+06 11633.3 0 -2.08507e+06 23284.9 0 -2.08822e+06 34973.3 0 -2.09264e+06 46717 0 -2.09833e+06 58535 0 -2.1053e+06 70446.8 0 -2.11355e+06 82472.3 0 -2.12312e+06 94631.7 0 -2.13399e+06 106946 0 -2.1462e+06 119438 0 -2.15976e+06 132129 0 -2.1747e+06 145045 0 -2.19103e+06 158210 0 -2.20878e+06 171651 0 -2.22798e+06 185399 0 -2.07966e+06 0 0 -2.08007e+06 9689.87 0 -2.08131e+06 19389.8 0 -2.08337e+06 29109.8 0 -2.08627e+06 38859.8 0 -2.09e+06 48650.2 0 -2.09456e+06 58491.2 0 -2.09996e+06 68393.5 0 -2.1062e+06 78367.8 0 -2.11329e+06 88424.9 0 -2.12124e+06 98575.9 0 -2.13006e+06 108832 0 -2.13975e+06 119205 0 -2.15032e+06 129708 0 -2.16178e+06 140353 0 -2.17415e+06 151154 0 -2.07668e+06 0 0 -2.07693e+06 7629.83 0 -2.07765e+06 15264.3 0 -2.07887e+06 22908 0 -2.08056e+06 30565.7 0 -2.08275e+06 38241.8 0 -2.08542e+06 45940.9 0 -2.08858e+06 53668 0 -2.09224e+06 61427.7 0 -2.09638e+06 69225 0 -2.10102e+06 77064.7 0 -2.10616e+06 84951.4 0 -2.1118e+06 92889.9 0 -2.11794e+06 100885 0 -2.12459e+06 108941 0 -2.13175e+06 117064 0 -2.07363e+06 0 0 -2.07375e+06 5453.69 0 -2.0741e+06 10909 0 -2.07469e+06 16367.4 0 -2.07551e+06 21830.6 0 -2.07657e+06 27300.3 0 -2.07786e+06 32777.8 0 -2.07939e+06 38264.7 0 -2.08116e+06 43762.5 0 -2.08316e+06 49272.8 0 -2.0854e+06 54797.3 0 -2.08788e+06 60337.5 0 -2.09059e+06 65895.2 0 -2.09355e+06 71471.8 0 -2.09674e+06 77068.8 0 -2.10017e+06 82688 0 -2.07051e+06 0 0 -2.07055e+06 3161.96 0 -2.07066e+06 6324.24 0 -2.07085e+06 9487.18 0 -2.07111e+06 12651.1 0 -2.07145e+06 15816.3 0 -2.07186e+06 18982.7 0 -2.07235e+06 22150.8 0 -2.07291e+06 25321.2 0 -2.07355e+06 28494.7 0 -2.07426e+06 31671.9 0 -2.07505e+06 34853.4 0 -2.07591e+06 38039.4 0 -2.07685e+06 41230.3 0 -2.07786e+06 44426.5 0 -2.07895e+06 47628.6 0 </DataArray> 
</PointData> 
<Points> 
<DataArray type="Float32" NumberOfComponents="3"> 
0 0.01 0 0.005 0.01 0 0.01 0.01 0 0.015 0.01 0 0.02 0.01 0 0.025 0.01 0 0.03 0.01 0 0.035 0.01 0 0.04 0.01 0 0.045 0.01 0 0.05 0.01 0 0.055 0.01 0 0.06 0.01 0 0.065 0.01 0 0.07 0.01 0 0.075 0.01 0 0 0.0104 0 0.00469333 0.0104 0 0.00938667 0.0104 0 0.01408 0.0104 0 0.0187733 0.0104 0 0.0234667 0.0104 0 0.02816 0.0104 0 0.0328533 0.0104 0 0.0375467 0.0104 0 0.04224 0.0104 0 0.0469333 0.0104 0 0.0516267 0.0104 0 0.05632 0.0104 0 0.0610133 0.0104 0 0.0657067 0.0104 0 0.0704 0.0104 0 0 0.0108 0 0.00438667 0.0108 0 0.00877333 0.0108 0 0.01316 0.0108 0 0.0175467 0.0108 0 0.0219333 0.0108 0 0.02632 0.0108 0 0.0307067 0.0108 0 0.0350933 0.0108 0 0.03948 0.0108 0 0.0438667 0.0108 0 0.0482533 0.0108 0 0.05264 0.0108 0 0.0570267 0.0108 0 0.0614133 0.0108 0 0.0658 0.0108 0 0 0.0112 0 0.00408 0.0112 0 0.00816 0.0112 0 0.01224 0.0112 0 0.01632 0.0112 0 0.0204 0.0112 0 0.02448 0.0112 0 0.02856 0.0112 0 0.03264 0.0112 0 0.03672 0.0112 0 0.0408 0.0112 0 0.04488 0.0112 0 0.04896 0.0112 0 0.05304 0.0112 0 0.05712 0.0112 0 0.0612 0.0112 0 0 0.0116 0 0.00377333 0.0116 0 0.00754667 0.0116 0 0.01132 0.0116 0 0.0150933 0.0116 0 0.0188667 0.0116 0 0.02264 0.0116 0 0.0264133 0.0116 0 0.0301867 0.0116 0 0.03396 0.0116 0 0.0377333 0.0116 0 0.0415067 0.0116 0 0.04528 0.0116 0 0.0490533 0.0116 0 0.0528267 0.0116 0 0.0566 0.0116 0 0 0.012 0 0.00346667 0.012 0 0.00693333 0.012 0 0.0104 0.012 0 0.0138667 0.012 0 0.0173333 0.012 0 0.0208 0.012 0 0.0242667 0.012 0 0.0277333 0.012 0 0.0312 0.012 0 0.0346667 0.012 0 0.0381333 0.012 0 0.0416 0.012 0 0.0450667 0.012 0 0.0485333 0.012 0 0.052 0.012 0 0 0.0124 0 0.00316 0.0124 0 0.00632 0.0124 0 0.00948 0.0124 0 0.01264 0.0124 0 0.0158 0.0124 0 0.01896 0.0124 0 0.02212 0.0124 0 0.02528 0.0124 0 0.02844 0.0124 0 0.0316 0.0124 0 0.03476 0.0124 0 0.03792 0.0124 0 0.04108 0.0124 0 0.04424 0.0124 0 0.0474 0.0124 0 0 0.0128 0 0.00285333 0.0128 0 0.00570667 0.0128 0 0.00856 0.0128 0 0.0114133 0.0128 0 0.0142667 0.0128 0 0.01712 0.0128 0 0.0199733 0.0128 0 0.0228267 0.0128 0 0.02568 0.0128 0 0.0285333 0.0128 0 0.0313867 0.0128 0 0.03424 0.0128 0 0.0370933 0.0128 0 0.0399467 0.0128 0 0.0428 0.0128 0 0 0.0132 0 0.00254667 0.0132 0 0.00509333 0.0132 0 0.00764 0.0132 0 0.0101867 0.0132 0 0.0127333 0.0132 0 0.01528 0.0132 0 0.0178267 0.0132 0 0.0203733 0.0132 0 0.02292 0.0132 0 0.0254667 0.0132 0 0.0280133 0.0132 0 0.03056 0.0132 0 0.0331067 0.0132 0 0.0356533 0.0132 0 0.0382 0.0132 0 0 0.0136 0 0.00224 0.0136 0 0.00448 0.0136 0 0.00672 0.0136 0 0.00896 0.0136 0 0.0112 0.0136 0 0.01344 0.0136 0 0.01568 0.0136 0 0.01792 0.0136 0 0.02016 0.0136 0 0.0224 0.0136 0 0.02464 0.0136 0 0.02688 0.0136 0 0.02912 0.0136 0 0.03136 0.0136 0 0.0336 0.0136 0 0 0.014 0 0.00193333 0.014 0 0.00386667 0.014 0 0.0058 0.014 0 0.00773333 0.014 0 0.00966667 0.014 0 0.0116 0.014 0 0.0135333 0.014 0 0.0154667 0.014 0 0.0174 0.014 0 0.0193333 0.014 0 0.0212667 0.014 0 0.0232 0.014 0 0.0251333 0.014 0 0.0270667 0.014 0 0.029 0.014 0 0 0.0144 0 0.00162667 0.0144 0 0.00325333 0.0144 0 0.00488 0.0144 0 0.00650667 0.0144 0 0.00813333 0.0144 0 0.00976 0.0144 0 0.0113867 0.0144 0 0.0130133 0.0144 0 0.01464 0.0144 0 0.0162667 0.0144 0 0.0178933 0.0144 0 0.01952 0.0144 0 0.0211467 0.0144 0 0.0227733 0.0144 0 0.0244 0.0144 0 0 0.0148 0 0.00132 0.0148 0 0.00264 0.0148 0 0.00396 0.0148 0 0.00528 0.0148 0 0.0066 0.0148 0 0.00792 0.0148 0 0.00924 0.0148 0 0.01056 0.0148 0 0.01188 0.0148 0 0.0132 0.0148 0 0.01452 0.0148 0 0.01584 0.0148 0 0.01716 0.0148 0 0.01848 0.0148 0 0.0198 0.0148 0 0 0.0152 0 0.00101333 0.0152 0 0.00202667 0.0152 0 0.00304 0.0152 0 0.00405333 0.0152 0 0.00506667 0.0152 0 0.00608 0.0152 0 0.00709333 0.0152 0 0.00810667 0.0152 0 0.00912 0.0152 0 0.0101333 0.0152 0 0.0111467 0.0152 0 0.01216 0.0152 0 0.0131733 0.0152 0 0.0141867 0.0152 0 0.0152 0.0152 0 0 0.0156 0 0.000706667 0.0156 0 0.00141333 0.0156 0 0.00212 0.0156 0 0.00282667 0.0156 0 0.00353333 0.0156 0 0.00424 0.0156 0 0.00494667 0.0156 0 0.00565333 0.0156 0 0.00636 0.0156 0 0.00706667 0.0156 0 0.00777333 0.0156 0 0.00848 0.0156 0 0.00918667 0.0156 0 0.00989333 0.0156 0 0.0106 0.0156 0 0 0.016 0 0.0004 0.016 0 0.0008 0.016 0 0.0012 0.016 0 0.0016 0.016 0 0.002 0.016 0 0.0024 0.016 0 0.0028 0.016 0 0.0032 0.016 0 0.0036 0.016 0 0.004 0.016 0 0.0044 0.016 0 0.0048 0.016 0 0.0052 0.016 0 0.0056 0.016 0 0.006 0.016 0 
</DataArray>
</Points> 
</Piece> 
</StructuredGrid> 
</VTKFile> 
