<?xml version="1.0"?> 
<VTKFile type="StructuredGrid" version="0.1"> 
<StructuredGrid WholeExtent="0 15 0 15 0 0"> 
<Piece Extent="0 15 0 15 0 0"> 
<PointData>
<DataArray type="Float32" Name="|E|" format="ascii" NumberOfComponents="3"> 
-1.84212e+06 0 0 -1.84994e+06 105424 0 -1.87339e+06 212900 0 -1.91242e+06 324639 0 -1.9667e+06 443196 0 -2.03584e+06 571848 0 -2.1178e+06 714792 0 -2.20993e+06 878464 0 -2.30121e+06 1.07242e+06 0 -2.36945e+06 1.30619e+06 0 -2.35347e+06 1.58601e+06 0 -2.15369e+06 1.80168e+06 0 -1.83287e+06 1.74468e+06 0 -1.59548e+06 1.35438e+06 0 -1.61337e+06 675218 0 -1.82204e+06 4.05312e-06 0 -1.83153e+06 0 0 -1.83926e+06 106979 0 -1.8624e+06 216004 0 -1.90087e+06 329277 0 -1.95434e+06 449331 0 -2.02226e+06 579373 0 -2.10259e+06 723480 0 -2.19219e+06 887755 0 -2.28011e+06 1.08073e+06 0 -2.34402e+06 1.31035e+06 0 -2.32638e+06 1.57633e+06 0 -2.14324e+06 1.77369e+06 0 -1.85511e+06 1.71576e+06 0 -1.64959e+06 1.34163e+06 0 -1.68686e+06 693369 0 -1.8782e+06 -3.65078e-07 0 -1.82079e+06 0 0 -1.82841e+06 108513 0 -1.85125e+06 219065 0 -1.88917e+06 333849 0 -1.94183e+06 455367 0 -2.00855e+06 586757 0 -2.08727e+06 731971 0 -2.17446e+06 896753 0 -2.25923e+06 1.08868e+06 0 -2.31934e+06 1.31405e+06 0 -2.3011e+06 1.56722e+06 0 -2.13401e+06 1.7484e+06 0 -1.87645e+06 1.69008e+06 0 -1.70118e+06 1.33174e+06 0 -1.75809e+06 712151 0 -1.94265e+06 -5.40167e-08 0 -1.8099e+06 0 0 -1.81742e+06 110026 0 -1.83994e+06 222085 0 -1.87732e+06 338353 0 -1.92918e+06 461305 0 -1.99472e+06 594004 0 -2.07186e+06 740270 0 -2.15674e+06 905474 0 -2.23857e+06 1.0963e+06 0 -2.2954e+06 1.31737e+06 0 -2.27743e+06 1.55874e+06 0 -2.12582e+06 1.72564e+06 0 -1.89691e+06 1.66746e+06 0 -1.75033e+06 1.32456e+06 0 -1.82742e+06 731934 0 -2.0146e+06 4.19095e-08 0 -1.79885e+06 0 0 -1.80628e+06 111520 0 -1.82849e+06 225063 0 -1.86534e+06 342791 0 -1.91639e+06 467147 0 -1.98078e+06 601116 0 -2.05637e+06 748383 0 -2.13905e+06 913935 0 -2.21814e+06 1.10363e+06 0 -2.27217e+06 1.3204e+06 0 -2.25522e+06 1.55094e+06 0 -2.11853e+06 1.70526e+06 0 -1.91649e+06 1.64774e+06 0 -1.79712e+06 1.31998e+06 0 -1.89506e+06 753113 0 -2.09389e+06 -7.63685e-08 0 -1.78766e+06 0 0 -1.79498e+06 112993 0 -1.81689e+06 227999 0 -1.8532e+06 347162 0 -1.90347e+06 472894 0 -1.96673e+06 608096 0 -2.0408e+06 756315 0 -2.12139e+06 922150 0 -2.19794e+06 1.11068e+06 0 -2.24962e+06 1.32322e+06 0 -2.2343e+06 1.54383e+06 0 -2.11201e+06 1.6871e+06 0 -1.93522e+06 1.63077e+06 0 -1.84161e+06 1.31785e+06 0 -1.96108e+06 776082 0 -2.181e+06 5.58794e-08 0 -1.77632e+06 0 0 -1.78354e+06 114446 0 -1.80515e+06 230894 0 -1.84093e+06 351469 0 -1.89041e+06 478546 0 -1.95257e+06 614946 0 -2.02515e+06 764073 0 -2.10376e+06 930133 0 -2.17796e+06 1.11748e+06 0 -2.22774e+06 1.32589e+06 0 -2.21453e+06 1.53745e+06 0 -2.10614e+06 1.67104e+06 0 -1.95308e+06 1.6164e+06 0 -1.88386e+06 1.31808e+06 0 -2.0254e+06 801208 0 -2.27702e+06 -7.45058e-08 0 -1.76484e+06 0 0 -1.77196e+06 115880 0 -1.79327e+06 233748 0 -1.82853e+06 355710 0 -1.87722e+06 484105 0 -1.9383e+06 621669 0 -2.00944e+06 771662 0 -2.08617e+06 937900 0 -2.1582e+06 1.12407e+06 0 -2.20648e+06 1.32848e+06 0 -2.1958e+06 1.53179e+06 0 -2.10081e+06 1.65696e+06 0 -1.97008e+06 1.60446e+06 0 -1.92395e+06 1.32062e+06 0 -2.08777e+06 828796 0 -2.38386e+06 1.63913e-07 0 -1.75321e+06 0 0 -1.76024e+06 117293 0 -1.78124e+06 236560 0 -1.81598e+06 359888 0 -1.86391e+06 489574 0 -1.92394e+06 628269 0 -1.99366e+06 779088 0 -2.06863e+06 945464 0 -2.13866e+06 1.13045e+06 0 -2.18581e+06 1.33102e+06 0 -2.17798e+06 1.52686e+06 0 -2.09593e+06 1.64478e+06 0 -1.9862e+06 1.59476e+06 0 -1.96193e+06 1.32545e+06 0 -2.14771e+06 859034 0 -2.5044e+06 -1.04308e-07 0 -1.74145e+06 0 0 -1.74837e+06 118687 0 -1.76908e+06 239333 0 -1.80331e+06 364003 0 -1.85048e+06 494952 0 -1.90947e+06 634748 0 -1.97782e+06 786358 0 -2.05113e+06 952842 0 -2.11933e+06 1.13666e+06 0 -2.1657e+06 1.33359e+06 0 -2.16095e+06 1.52261e+06 0 -2.0914e+06 1.63446e+06 0 -2.00144e+06 1.58704e+06 0 -1.99789e+06 1.33268e+06 0 -2.20447e+06 891921 0 -2.64291e+06 8.19564e-08 0 -1.72954e+06 0 0 -1.73637e+06 120062 0 -1.75678e+06 242065 0 -1.79051e+06 368055 0 -1.83692e+06 500242 0 -1.89492e+06 641111 0 -1.96193e+06 793476 0 -2.03368e+06 960049 0 -2.10021e+06 1.14271e+06 0 -2.1461e+06 1.33625e+06 0 -2.14465e+06 1.51901e+06 0 -2.08714e+06 1.62602e+06 0 -2.01578e+06 1.58097e+06 0 -2.03197e+06 1.34259e+06 0 -2.2569e+06 927130 0 -2.80561e+06 -1.04308e-07 0 -1.7175e+06 0 0 -1.72424e+06 121417 0 -1.74435e+06 244758 0 -1.77758e+06 372046 0 -1.82325e+06 505445 0 -1.88027e+06 647360 0 -1.94598e+06 800445 0 -2.01627e+06 967107 0 -2.08129e+06 1.1486e+06 0 -2.12697e+06 1.33906e+06 0 -2.12897e+06 1.51593e+06 0 -2.08305e+06 1.61958e+06 0 -2.02922e+06 1.57604e+06 0 -2.06437e+06 1.35575e+06 0 -2.30331e+06 963814 0 -3.00151e+06 1.19209e-07 0 -1.70533e+06 0 0 -1.71196e+06 122753 0 -1.73178e+06 247412 0 -1.76452e+06 375976 0 -1.80947e+06 510562 0 -1.86553e+06 653502 0 -1.92999e+06 807265 0 -1.9989e+06 974043 0 -2.06257e+06 1.15431e+06 0 -2.10824e+06 1.34214e+06 0 -2.11389e+06 1.51321e+06 0 -2.07902e+06 1.6154e+06 0 -2.04175e+06 1.57147e+06 0 -2.09538e+06 1.37322e+06 0 -2.34124e+06 1.00029e+06 0 -3.24364e+06 -2.98023e-08 0 -1.69302e+06 0 0 -1.69956e+06 124069 0 -1.71909e+06 250028 0 -1.75134e+06 379844 0 -1.79557e+06 515595 0 -1.85069e+06 659542 0 -1.91397e+06 813934 0 -1.98155e+06 980894 0 -2.04408e+06 1.15979e+06 0 -2.08983e+06 1.34566e+06 0 -2.0994e+06 1.51053e+06 0 -2.0749e+06 1.61398e+06 0 -2.0534e+06 1.56605e+06 0 -2.12547e+06 1.3968e+06 0 -2.36712e+06 1.03357e+06 0 -3.55103e+06 -1.3411e-07 0 -1.68058e+06 0 0 -1.68703e+06 125363 0 -1.70627e+06 252608 0 -1.73804e+06 383652 0 -1.78158e+06 520544 0 -1.83576e+06 665488 0 -1.89794e+06 820439 0 -1.96418e+06 987719 0 -2.02586e+06 1.16496e+06 0 -2.07161e+06 1.34986e+06 0 -2.08556e+06 1.50739e+06 0 -2.07047e+06 1.61622e+06 0 -2.06422e+06 1.55789e+06 0 -2.15534e+06 1.42953e+06 0 -2.37582e+06 1.05859e+06 0 -3.95139e+06 8.9407e-08 0 -1.668e+06 0 0 -1.67436e+06 126633 0 -1.69334e+06 255155 0 -1.72461e+06 387397 0 -1.76749e+06 525412 0 -1.82071e+06 671352 0 -1.88193e+06 826756 0 -1.94673e+06 994605 0 -2.00802e+06 1.16966e+06 0 -2.05338e+06 1.35517e+06 0 -2.07256e+06 1.50297e+06 0 -2.06539e+06 1.62362e+06 0 -2.07433e+06 1.54402e+06 0 -2.18605e+06 1.47632e+06 0 -2.35992e+06 1.06726e+06 0 -4.48538e+06 -4.76837e-07 0 </DataArray> 
</PointData> 
<Points> 
<DataArray type="Float32" NumberOfComponents="3"> 
0 0.035 0 0.00666667 0.035 0 0.0133333 0.035 0 0.02 0.035 0 0.0266667 0.035 0 0.0333333 0.035 0 0.04 0.035 0 0.0466667 0.035 0 0.0533333 0.035 0 0.06 0.035 0 0.0666667 0.035 0 0.0733333 0.035 0 0.08 0.035 0 0.0866667 0.035 0 0.0933333 0.035 0 0.1 0.035 0 0 0.0356667 0 0.00666667 0.0356667 0 0.0133333 0.0356667 0 0.02 0.0356667 0 0.0266667 0.0356667 0 0.0333333 0.0356667 0 0.04 0.0356667 0 0.0466667 0.0356667 0 0.0533333 0.0356667 0 0.06 0.0356667 0 0.0666667 0.0356667 0 0.0733333 0.0356667 0 0.08 0.0356667 0 0.0866667 0.0356667 0 0.0933333 0.0356667 0 0.1 0.0356667 0 0 0.0363333 0 0.00666667 0.0363333 0 0.0133333 0.0363333 0 0.02 0.0363333 0 0.0266667 0.0363333 0 0.0333333 0.0363333 0 0.04 0.0363333 0 0.0466667 0.0363333 0 0.0533333 0.0363333 0 0.06 0.0363333 0 0.0666667 0.0363333 0 0.0733333 0.0363333 0 0.08 0.0363333 0 0.0866667 0.0363333 0 0.0933333 0.0363333 0 0.1 0.0363333 0 0 0.037 0 0.00666667 0.037 0 0.0133333 0.037 0 0.02 0.037 0 0.0266667 0.037 0 0.0333333 0.037 0 0.04 0.037 0 0.0466667 0.037 0 0.0533333 0.037 0 0.06 0.037 0 0.0666667 0.037 0 0.0733333 0.037 0 0.08 0.037 0 0.0866667 0.037 0 0.0933333 0.037 0 0.1 0.037 0 0 0.0376667 0 0.00666667 0.0376667 0 0.0133333 0.0376667 0 0.02 0.0376667 0 0.0266667 0.0376667 0 0.0333333 0.0376667 0 0.04 0.0376667 0 0.0466667 0.0376667 0 0.0533333 0.0376667 0 0.06 0.0376667 0 0.0666667 0.0376667 0 0.0733333 0.0376667 0 0.08 0.0376667 0 0.0866667 0.0376667 0 0.0933333 0.0376667 0 0.1 0.0376667 0 0 0.0383333 0 0.00666667 0.0383333 0 0.0133333 0.0383333 0 0.02 0.0383333 0 0.0266667 0.0383333 0 0.0333333 0.0383333 0 0.04 0.0383333 0 0.0466667 0.0383333 0 0.0533333 0.0383333 0 0.06 0.0383333 0 0.0666667 0.0383333 0 0.0733333 0.0383333 0 0.08 0.0383333 0 0.0866667 0.0383333 0 0.0933333 0.0383333 0 0.1 0.0383333 0 0 0.039 0 0.00666667 0.039 0 0.0133333 0.039 0 0.02 0.039 0 0.0266667 0.039 0 0.0333333 0.039 0 0.04 0.039 0 0.0466667 0.039 0 0.0533333 0.039 0 0.06 0.039 0 0.0666667 0.039 0 0.0733333 0.039 0 0.08 0.039 0 0.0866667 0.039 0 0.0933333 0.039 0 0.1 0.039 0 0 0.0396667 0 0.00666667 0.0396667 0 0.0133333 0.0396667 0 0.02 0.0396667 0 0.0266667 0.0396667 0 0.0333333 0.0396667 0 0.04 0.0396667 0 0.0466667 0.0396667 0 0.0533333 0.0396667 0 0.06 0.0396667 0 0.0666667 0.0396667 0 0.0733333 0.0396667 0 0.08 0.0396667 0 0.0866667 0.0396667 0 0.0933333 0.0396667 0 0.1 0.0396667 0 0 0.0403333 0 0.00666667 0.0403333 0 0.0133333 0.0403333 0 0.02 0.0403333 0 0.0266667 0.0403333 0 0.0333333 0.0403333 0 0.04 0.0403333 0 0.0466667 0.0403333 0 0.0533333 0.0403333 0 0.06 0.0403333 0 0.0666667 0.0403333 0 0.0733333 0.0403333 0 0.08 0.0403333 0 0.0866667 0.0403333 0 0.0933333 0.0403333 0 0.1 0.0403333 0 0 0.041 0 0.00666667 0.041 0 0.0133333 0.041 0 0.02 0.041 0 0.0266667 0.041 0 0.0333333 0.041 0 0.04 0.041 0 0.0466667 0.041 0 0.0533333 0.041 0 0.06 0.041 0 0.0666667 0.041 0 0.0733333 0.041 0 0.08 0.041 0 0.0866667 0.041 0 0.0933333 0.041 0 0.1 0.041 0 0 0.0416667 0 0.00666667 0.0416667 0 0.0133333 0.0416667 0 0.02 0.0416667 0 0.0266667 0.0416667 0 0.0333333 0.0416667 0 0.04 0.0416667 0 0.0466667 0.0416667 0 0.0533333 0.0416667 0 0.06 0.0416667 0 0.0666667 0.0416667 0 0.0733333 0.0416667 0 0.08 0.0416667 0 0.0866667 0.0416667 0 0.0933333 0.0416667 0 0.1 0.0416667 0 0 0.0423333 0 0.00666667 0.0423333 0 0.0133333 0.0423333 0 0.02 0.0423333 0 0.0266667 0.0423333 0 0.0333333 0.0423333 0 0.04 0.0423333 0 0.0466667 0.0423333 0 0.0533333 0.0423333 0 0.06 0.0423333 0 0.0666667 0.0423333 0 0.0733333 0.0423333 0 0.08 0.0423333 0 0.0866667 0.0423333 0 0.0933333 0.0423333 0 0.1 0.0423333 0 0 0.043 0 0.00666667 0.043 0 0.0133333 0.043 0 0.02 0.043 0 0.0266667 0.043 0 0.0333333 0.043 0 0.04 0.043 0 0.0466667 0.043 0 0.0533333 0.043 0 0.06 0.043 0 0.0666667 0.043 0 0.0733333 0.043 0 0.08 0.043 0 0.0866667 0.043 0 0.0933333 0.043 0 0.1 0.043 0 0 0.0436667 0 0.00666667 0.0436667 0 0.0133333 0.0436667 0 0.02 0.0436667 0 0.0266667 0.0436667 0 0.0333333 0.0436667 0 0.04 0.0436667 0 0.0466667 0.0436667 0 0.0533333 0.0436667 0 0.06 0.0436667 0 0.0666667 0.0436667 0 0.0733333 0.0436667 0 0.08 0.0436667 0 0.0866667 0.0436667 0 0.0933333 0.0436667 0 0.1 0.0436667 0 0 0.0443333 0 0.00666667 0.0443333 0 0.0133333 0.0443333 0 0.02 0.0443333 0 0.0266667 0.0443333 0 0.0333333 0.0443333 0 0.04 0.0443333 0 0.0466667 0.0443333 0 0.0533333 0.0443333 0 0.06 0.0443333 0 0.0666667 0.0443333 0 0.0733333 0.0443333 0 0.08 0.0443333 0 0.0866667 0.0443333 0 0.0933333 0.0443333 0 0.1 0.0443333 0 0 0.045 0 0.00666667 0.045 0 0.0133333 0.045 0 0.02 0.045 0 0.0266667 0.045 0 0.0333333 0.045 0 0.04 0.045 0 0.0466667 0.045 0 0.0533333 0.045 0 0.06 0.045 0 0.0666667 0.045 0 0.0733333 0.045 0 0.08 0.045 0 0.0866667 0.045 0 0.0933333 0.045 0 0.1 0.045 0 
</DataArray>
</Points> 
</Piece> 
</StructuredGrid> 
</VTKFile> 
