<?xml version="1.0"?> 
<VTKFile type="StructuredGrid" version="0.1"> 
<StructuredGrid WholeExtent="0 15 0 15 0 0"> 
<Piece Extent="0 15 0 15 0 0"> 
<PointData>
<DataArray type="Float32" Name="|E|" format="ascii" NumberOfComponents="3"> 
1.07798e+06 -448270 0 1.63443e+06 -207854 0 1.77151e+06 -39900.8 0 1.73644e+06 65445.8 0 1.60284e+06 122322 0 1.43304e+06 137162 0 1.26182e+06 133514 0 1.10384e+06 120075 0 965838 103628 0 849037 86473.5 0 753265 69936.9 0 677255 54360.5 0 619765 39777.6 0 579595 26029.3 0 555867 12863.3 0 548022 0 0 1.13423e+06 -471658 0 1.64758e+06 -217582 0 1.78052e+06 -39870.9 0 1.73916e+06 72915.3 0 1.60189e+06 131599 0 1.43057e+06 146965 0 1.25892e+06 142549 0 1.10114e+06 128106 0 963483 110482 0 847095 92180.1 0 751687 74544.9 0 675987 57942.4 0 618732 42400 0 578731 27745.7 0 555101 13712.2 0 547289 0 0 1.18532e+06 -492907 0 1.662e+06 -226851 0 1.78983e+06 -39117 0 1.742e+06 80672.3 0 1.60096e+06 141075 0 1.42806e+06 156812 0 1.25598e+06 151592 0 1.09837e+06 136116 0 961066 117312 0 845090 97863 0 750050 79132.9 0 674663 61508.4 0 617648 45010.7 0 577816 29454.7 0 554287 14557.4 0 546507 0 0 1.2322e+06 -512401 0 1.67754e+06 -235590 0 1.79942e+06 -37656.6 0 1.74496e+06 88737 0 1.60003e+06 150749 0 1.42551e+06 166706 0 1.25298e+06 160642 0 1.09554e+06 144107 0 958585 124119 0 843023 103522 0 748354 83700.6 0 673284 65058.5 0 616511 47609.7 0 576852 31156.1 0 553424 15398.8 0 545678 0 0 1.27562e+06 -530458 0 1.69406e+06 -243746 0 1.8093e+06 -35500 0 1.74802e+06 97126.7 0 1.5991e+06 160614 0 1.42291e+06 176650 0 1.24992e+06 169698 0 1.09264e+06 152078 0 956040 130901 0 840893 109157 0 746601 88247.8 0 671849 68592.3 0 615323 50196.8 0 575838 32849.8 0 552513 16236.4 0 544802 0 0 1.31624e+06 -547346 0 1.71146e+06 -251277 0 1.81947e+06 -32651.6 0 1.75116e+06 105856 0 1.59816e+06 170671 0 1.42025e+06 186644 0 1.24679e+06 178760 0 1.08967e+06 160029 0 953431 137658 0 838701 114767 0 744789 92774.3 0 670360 72109.8 0 614083 52771.9 0 574774 34535.7 0 551554 17070.1 0 543877 0 0 1.35458e+06 -563293 0 1.72966e+06 -258153 0 1.82992e+06 -29110 0 1.75436e+06 114935 0 1.59719e+06 180915 0 1.41753e+06 196690 0 1.24361e+06 187827 0 1.08663e+06 167961 0 950757 144391 0 836447 120353 0 742920 97279.8 0 668816 75610.6 0 612791 55334.8 0 573661 36213.7 0 550547 17900 0 542905 0 0 1.39114e+06 -578493 0 1.7486e+06 -264348 0 1.84064e+06 -24869.6 0 1.75762e+06 124375 0 1.59618e+06 191346 0 1.41475e+06 206790 0 1.24036e+06 196899 0 1.08353e+06 175872 0 948019 151098 0 834130 125915 0 740992 101764 0 667218 79094.6 0 611447 57885.3 0 572499 37883.6 0 549492 18725.8 0 541885 0 0 1.4263e+06 -593116 0 1.76823e+06 -269844 0 1.85162e+06 -19919.7 0 1.7609e+06 134180 0 1.59514e+06 201963 0 1.4119e+06 216941 0 1.23703e+06 205974 0 1.08035e+06 183764 0 945215 157780 0 831751 131451 0 739006 106227 0 665564 82561.5 0 610052 60423.3 0 571287 39545.4 0 548388 19547.6 0 540818 0 0 1.46044e+06 -607313 0 1.7885e+06 -274627 0 1.86284e+06 -14245.4 0 1.76419e+06 144355 0 1.59403e+06 212766 0 1.40898e+06 227143 0 1.23364e+06 215053 0 1.07711e+06 191635 0 942345 164436 0 829309 136962 0 736963 110668 0 663856 86011.2 0 608606 62948.6 0 570025 41198.8 0 547237 20365.4 0 539703 0 0 1.49389e+06 -621223 0 1.80938e+06 -278687 0 1.87431e+06 -7826.99 0 1.76748e+06 154899 0 1.59287e+06 223756 0 1.40598e+06 237395 0 1.23018e+06 224136 0 1.07379e+06 199484 0 939409 171067 0 826805 142447 0 734861 115087 0 662094 89443.4 0 607108 65461 0 568715 42843.9 0 546038 21179 0 538541 0 0 1.52696e+06 -634975 0 1.83085e+06 -282019 0 1.88598e+06 -639.151 0 1.77074e+06 165810 0 1.59162e+06 234936 0 1.4029e+06 247692 0 1.22664e+06 233222 0 1.07041e+06 207312 0 936407 177671 0 824239 147906 0 732702 119484 0 660278 92857.9 0 605559 67960.4 0 567355 44480.5 0 544791 21988.3 0 537332 0 0 1.55996e+06 -648698 0 1.85288e+06 -284621 0 1.89786e+06 7349.73 0 1.77396e+06 177079 0 1.59029e+06 246310 0 1.39973e+06 258031 0 1.22302e+06 242314 0 1.06694e+06 215115 0 933338 184249 0 821611 153339 0 730485 123859 0 658407 96254.5 0 603959 70446.7 0 565947 46108.5 0 543497 22793.5 0 536075 0 0 1.5932e+06 -662520 0 1.87545e+06 -286500 0 1.90991e+06 16179.1 0 1.77711e+06 188692 0 1.58887e+06 257885 0 1.39648e+06 268404 0 1.21932e+06 251413 0 1.06341e+06 222893 0 930202 190801 0 818921 158744 0 728210 128211 0 656482 99633 0 602307 72919.5 0 564490 47727.9 0 542155 23594.2 0 534771 0 0 1.62701e+06 -676579 0 1.89854e+06 -287669 0 1.92212e+06 25898.5 0 1.78019e+06 200629 0 1.58733e+06 269672 0 1.39313e+06 278802 0 1.21554e+06 260522 0 1.05981e+06 230643 0 926998 197328 0 816169 164122 0 725878 132540 0 654504 102993 0 600605 75378.8 0 562983 49338.4 0 540766 24390.6 0 533421 0 0 1.66175e+06 -691023 0 1.92212e+06 -288151 0 1.93446e+06 36569 0 1.78317e+06 212857 0 1.58567e+06 281686 0 1.38969e+06 289213 0 1.21167e+06 269645 0 1.05613e+06 238361 0 923725 203830 0 813357 169471 0 723487 136847 0 652472 106335 0 598852 77824.3 0 561429 50940.2 0 539329 25182.3 0 532023 0 0 </DataArray> 
</PointData> 
<Points> 
<DataArray type="Float32" NumberOfComponents="3"> 
0.1905 0.0099 0 0.202667 0.0099 0 0.214833 0.0099 0 0.227 0.0099 0 0.239167 0.0099 0 0.251333 0.0099 0 0.2635 0.0099 0 0.275667 0.0099 0 0.287833 0.0099 0 0.3 0.0099 0 0.312167 0.0099 0 0.324333 0.0099 0 0.3365 0.0099 0 0.348667 0.0099 0 0.360833 0.0099 0 0.373 0.0099 0 0.19078 0.0105733 0 0.202928 0.0105733 0 0.215076 0.0105733 0 0.227224 0.0105733 0 0.239372 0.0105733 0 0.25152 0.0105733 0 0.263668 0.0105733 0 0.275816 0.0105733 0 0.287964 0.0105733 0 0.300112 0.0105733 0 0.31226 0.0105733 0 0.324408 0.0105733 0 0.336556 0.0105733 0 0.348704 0.0105733 0 0.360852 0.0105733 0 0.373 0.0105733 0 0.19106 0.0112467 0 0.203189 0.0112467 0 0.215319 0.0112467 0 0.227448 0.0112467 0 0.239577 0.0112467 0 0.251707 0.0112467 0 0.263836 0.0112467 0 0.275965 0.0112467 0 0.288095 0.0112467 0 0.300224 0.0112467 0 0.312353 0.0112467 0 0.324483 0.0112467 0 0.336612 0.0112467 0 0.348741 0.0112467 0 0.360871 0.0112467 0 0.373 0.0112467 0 0.19134 0.01192 0 0.203451 0.01192 0 0.215561 0.01192 0 0.227672 0.01192 0 0.239783 0.01192 0 0.251893 0.01192 0 0.264004 0.01192 0 0.276115 0.01192 0 0.288225 0.01192 0 0.300336 0.01192 0 0.312447 0.01192 0 0.324557 0.01192 0 0.336668 0.01192 0 0.348779 0.01192 0 0.360889 0.01192 0 0.373 0.01192 0 0.19162 0.0125933 0 0.203712 0.0125933 0 0.215804 0.0125933 0 0.227896 0.0125933 0 0.239988 0.0125933 0 0.25208 0.0125933 0 0.264172 0.0125933 0 0.276264 0.0125933 0 0.288356 0.0125933 0 0.300448 0.0125933 0 0.31254 0.0125933 0 0.324632 0.0125933 0 0.336724 0.0125933 0 0.348816 0.0125933 0 0.360908 0.0125933 0 0.373 0.0125933 0 0.1919 0.0132667 0 0.203973 0.0132667 0 0.216047 0.0132667 0 0.22812 0.0132667 0 0.240193 0.0132667 0 0.252267 0.0132667 0 0.26434 0.0132667 0 0.276413 0.0132667 0 0.288487 0.0132667 0 0.30056 0.0132667 0 0.312633 0.0132667 0 0.324707 0.0132667 0 0.33678 0.0132667 0 0.348853 0.0132667 0 0.360927 0.0132667 0 0.373 0.0132667 0 0.19218 0.01394 0 0.204235 0.01394 0 0.216289 0.01394 0 0.228344 0.01394 0 0.240399 0.01394 0 0.252453 0.01394 0 0.264508 0.01394 0 0.276563 0.01394 0 0.288617 0.01394 0 0.300672 0.01394 0 0.312727 0.01394 0 0.324781 0.01394 0 0.336836 0.01394 0 0.348891 0.01394 0 0.360945 0.01394 0 0.373 0.01394 0 0.19246 0.0146133 0 0.204496 0.0146133 0 0.216532 0.0146133 0 0.228568 0.0146133 0 0.240604 0.0146133 0 0.25264 0.0146133 0 0.264676 0.0146133 0 0.276712 0.0146133 0 0.288748 0.0146133 0 0.300784 0.0146133 0 0.31282 0.0146133 0 0.324856 0.0146133 0 0.336892 0.0146133 0 0.348928 0.0146133 0 0.360964 0.0146133 0 0.373 0.0146133 0 0.19274 0.0152867 0 0.204757 0.0152867 0 0.216775 0.0152867 0 0.228792 0.0152867 0 0.240809 0.0152867 0 0.252827 0.0152867 0 0.264844 0.0152867 0 0.276861 0.0152867 0 0.288879 0.0152867 0 0.300896 0.0152867 0 0.312913 0.0152867 0 0.324931 0.0152867 0 0.336948 0.0152867 0 0.348965 0.0152867 0 0.360983 0.0152867 0 0.373 0.0152867 0 0.19302 0.01596 0 0.205019 0.01596 0 0.217017 0.01596 0 0.229016 0.01596 0 0.241015 0.01596 0 0.253013 0.01596 0 0.265012 0.01596 0 0.277011 0.01596 0 0.289009 0.01596 0 0.301008 0.01596 0 0.313007 0.01596 0 0.325005 0.01596 0 0.337004 0.01596 0 0.349003 0.01596 0 0.361001 0.01596 0 0.373 0.01596 0 0.1933 0.0166333 0 0.20528 0.0166333 0 0.21726 0.0166333 0 0.22924 0.0166333 0 0.24122 0.0166333 0 0.2532 0.0166333 0 0.26518 0.0166333 0 0.27716 0.0166333 0 0.28914 0.0166333 0 0.30112 0.0166333 0 0.3131 0.0166333 0 0.32508 0.0166333 0 0.33706 0.0166333 0 0.34904 0.0166333 0 0.36102 0.0166333 0 0.373 0.0166333 0 0.19358 0.0173067 0 0.205541 0.0173067 0 0.217503 0.0173067 0 0.229464 0.0173067 0 0.241425 0.0173067 0 0.253387 0.0173067 0 0.265348 0.0173067 0 0.277309 0.0173067 0 0.289271 0.0173067 0 0.301232 0.0173067 0 0.313193 0.0173067 0 0.325155 0.0173067 0 0.337116 0.0173067 0 0.349077 0.0173067 0 0.361039 0.0173067 0 0.373 0.0173067 0 0.19386 0.01798 0 0.205803 0.01798 0 0.217745 0.01798 0 0.229688 0.01798 0 0.241631 0.01798 0 0.253573 0.01798 0 0.265516 0.01798 0 0.277459 0.01798 0 0.289401 0.01798 0 0.301344 0.01798 0 0.313287 0.01798 0 0.325229 0.01798 0 0.337172 0.01798 0 0.349115 0.01798 0 0.361057 0.01798 0 0.373 0.01798 0 0.19414 0.0186533 0 0.206064 0.0186533 0 0.217988 0.0186533 0 0.229912 0.0186533 0 0.241836 0.0186533 0 0.25376 0.0186533 0 0.265684 0.0186533 0 0.277608 0.0186533 0 0.289532 0.0186533 0 0.301456 0.0186533 0 0.31338 0.0186533 0 0.325304 0.0186533 0 0.337228 0.0186533 0 0.349152 0.0186533 0 0.361076 0.0186533 0 0.373 0.0186533 0 0.19442 0.0193267 0 0.206325 0.0193267 0 0.218231 0.0193267 0 0.230136 0.0193267 0 0.242041 0.0193267 0 0.253947 0.0193267 0 0.265852 0.0193267 0 0.277757 0.0193267 0 0.289663 0.0193267 0 0.301568 0.0193267 0 0.313473 0.0193267 0 0.325379 0.0193267 0 0.337284 0.0193267 0 0.349189 0.0193267 0 0.361095 0.0193267 0 0.373 0.0193267 0 0.1947 0.02 0 0.206587 0.02 0 0.218473 0.02 0 0.23036 0.02 0 0.242247 0.02 0 0.254133 0.02 0 0.26602 0.02 0 0.277907 0.02 0 0.289793 0.02 0 0.30168 0.02 0 0.313567 0.02 0 0.325453 0.02 0 0.33734 0.02 0 0.349227 0.02 0 0.361113 0.02 0 0.373 0.02 0 
</DataArray>
</Points> 
</Piece> 
</StructuredGrid> 
</VTKFile> 
