<?xml version="1.0"?> 
<VTKFile type="StructuredGrid" version="0.1"> 
<StructuredGrid WholeExtent="0 15 0 15 0 0"> 
<Piece Extent="0 15 0 15 0 0"> 
<PointData>
<DataArray type="Float32" Name="|E|" format="ascii" NumberOfComponents="3"> 
-1.78814e-07 5.8492e+06 0 2.06637e-09 3.76729e+06 0 5.12227e-08 2.66899e+06 0 -4.56348e-08 2.01438e+06 0 3.49246e-08 1.52528e+06 0 -7.45058e-09 1.11962e+06 0 3.25963e-08 774417 0 -5.58794e-08 493989 0 5.40167e-08 288335 0 -5.40167e-08 155456 0 9.68575e-08 79127 0 -1.22935e-07 38877.2 0 1.08033e-07 18766.5 0 -8.56817e-08 8949.05 0 3.72529e-08 4323.28 0 0 2872.6 0 -507048 4.22721e+06 0 -271935 2.9543e+06 0 -172538 2.22787e+06 0 -133629 1.71423e+06 0 -112657 1.29591e+06 0 -96813.4 937309 0 -79499.7 633856 0 -59292.6 395191 0 -39206 227199 0 -23169.3 122274 0 -12596.3 62927.1 0 -6500.08 31556.7 0 -3261.27 15608.6 0 -1608.32 7686.49 0 -776.476 3795.33 0 -119.882 1851.42 0 -621351 3.13309e+06 0 -380726 2.3886e+06 0 -286086 1.86719e+06 0 -239069 1.445e+06 0 -207213 1.08102e+06 0 -176680 764323 0 -140310 501847 0 -100265 304104 0 -63994.3 171675 0 -37176.7 92088.4 0 -20240.2 47887.6 0 -10606.3 24489.9 0 -5442.2 12423.3 0 -2756.83 6283.85 0 -1354.33 3194.13 0 -545.73 1519.02 0 -604889 2.46639e+06 0 -451392 1.97328e+06 0 -375435 1.55939e+06 0 -326668 1.19869e+06 0 -285237 877689 0 -237279 600131 0 -180514 378938 0 -123299 221911 0 -76228.9 122822 0 -43745.7 65711.3 0 -23949.4 34560.2 0 -12768.8 18032.6 0 -6707.37 9378.48 0 -3487.89 4875.81 0 -1769.73 2538.29 0 -864.064 1245.13 0 -617521 2.02422e+06 0 -515633 1.63327e+06 0 -450784 1.28471e+06 0 -399931 967711 0 -344298 683277 0 -275165 445075 0 -198963 267213 0 -129976 150487 0 -78273.3 81689.4 0 -44658.5 43693.6 0 -24697.9 23281.6 0 -13427.1 12403.1 0 -7228.63 6614.21 0 -3860.39 3533.45 0 -2028.22 1880.08 0 -1063.55 955.253 0 -652165 1.66418e+06 0 -574430 1.33557e+06 0 -516422 1.02981e+06 0 -456181 745735 0 -378946 496717 0 -286919 302085 0 -196338 170205 0 -123222 91789.8 0 -72886.5 48943.5 0 -41659.7 26232 0 -23380.4 14176.5 0 -12991.5 7712.84 0 -7175.18 4216.73 0 -3938.61 2311.73 0 -2140.78 1255.8 0 -1170.06 657.822 0 -692389 1.34982e+06 0 -630859 1.06142e+06 0 -568886 783343 0 -487011 528779 0 -382304 321403 0 -271405 177248 0 -176033 91916.4 0 -107153 47062.7 0 -62941.7 24563.9 0 -36323.1 13151.9 0 -20776.1 7187.13 0 -11824.3 3983.32 0 -6706.05 2227.84 0 -3786.72 1249.15 0 -2126.21 689.32 0 -1200.2 368.027 0 -739917 1.06123e+06 0 -679647 793387 0 -595496 536764 0 -480138 320177 0 -350008 167068 0 -232315 78278.1 0 -144229 35085.7 0 -86426.3 16090.5 0 -51025.6 7786.13 0 -29941.8 3974.24 0 -17517.6 2118.74 0 -10229.9 1166.41 0 -5963.21 654.736 0 -3465.87 366.785 0 -2007.72 196.379 0 -1166.89 98.9839 0 -786866 773273 0 -701702 516439 0 -575474 293213 0 -425871 135151 0 -285932 47642.6 0 -179150 10871.7 0 -108583 -619.952 0 -65205.1 -2948.86 0 -39112 -2702.04 0 -23465.7 -1965.87 0 -14082 -1307.2 0 -8450.52 -833.17 0 -5066.9 -522.069 0 -3032.2 -329.296 0 -1810.17 -213.8 0 -1081.38 -139.588 0 -803753 463131 0 -662712 234572 0 -491056 77042.7 0 -328776 -2217.4 0 -205287 -26183.7 0 -124693 -25538.7 0 -75749.2 -18980.9 0 -46305.7 -12901.8 0 -28432.4 -8430.31 0 -17506.5 -5390.54 0 -10798.7 -3404.97 0 -6666.36 -2137.75 0 -4114.02 -1340.79 0 -2535.13 -845.068 0 -1558.01 -537.491 0 -954.906 -340.873 0 -734127 138738 0 -534240 -11076.8 0 -350252 -71207.6 0 -214622 -73952.4 0 -129491 -56295.8 0 -79318.1 -38578.5 0 -49369.9 -25591.4 0 -30998 -16734.9 0 -19565.7 -10840.5 0 -12394.8 -6983.45 0 -7869.9 -4486.14 0 -5001.74 -2879.73 0 -3178.24 -1851.32 0 -2016.3 -1195.27 0 -1273.88 -775.866 0 -798.487 -501.161 0 -538949 -127906 0 -336996 -154123 0 -199052 -125554 0 -118638 -87259.7 0 -73493.7 -58036.8 0 -46723.5 -38524 0 -30026.8 -25546.4 0 -19428.8 -16875.5 0 -12638.6 -11127.8 0 -8250.66 -7333.3 0 -5396.93 -4833.43 0 -3532.98 -3188.96 0 -2311.79 -2108.97 0 -1509.05 -1400.54 0 -977.74 -934.388 0 -621.934 -619.649 0 -275788 -235780 0 -154312 -167245 0 -91642.5 -109445 0 -58444.1 -72198.7 0 -38251.3 -48705.8 0 -25208.2 -32981.3 0 -16727.9 -22289.2 0 -11183 -15067.3 0 -7507.95 -10199.3 0 -5054.67 -6909.6 0 -3407.55 -4686.65 0 -2298.13 -3184.11 0 -1548.22 -2169.49 0 -1038.58 -1484.93 0 -686.508 -1022.18 0 -434.292 -699.008 0 -87517.3 -180534 0 -55733.1 -113286 0 -38084.8 -76818.2 0 -25754.9 -53638.5 0 -17346.9 -37255.6 0 -11819.3 -25796 0 -8135.29 -17906.2 0 -5623.87 -12465.4 0 -3897.86 -8688.08 0 -2706.58 -6063.2 0 -1880.65 -4237.54 0 -1306.62 -2967.67 0 -905.658 -2085.34 0 -622.771 -1473.9 0 -414.79 -1051.66 0 -239.139 -749.296 0 -25530.5 -97741.9 0 -18189.1 -72590.5 0 -11985.8 -52659.7 0 -8149.99 -37319.8 0 -5767.42 -26494.5 0 -4106.65 -18942.1 0 -2926.48 -13581.4 0 -2088.1 -9747.7 0 -1494.35 -7003.83 0 -1069.74 -5039.51 0 -766.212 -3631.72 0 -548.067 -2623.7 0 -390.352 -1903.22 0 -273.685 -1392.54 0 -177.999 -1038.37 0 -45.3382 -797.511 0 1.01328e-06 -54066.5 0 -9.27248e-08 -42081 0 1.72295e-08 -33465.5 0 -6.98492e-09 -24756.2 0 -2.04891e-08 -18046 0 -1.30385e-08 -13289.5 0 8.19564e-08 -9829.43 0 -8.9407e-08 -7277.71 0 3.35276e-08 -5391.46 0 -7.07805e-08 -4000.49 0 7.45058e-08 -2973.86 0 -4.47035e-08 -2217.08 0 1.49012e-08 -1662.68 0 -8.19564e-08 -1260.25 0 4.47035e-08 -994.47 0 -2.38419e-07 -1007.1 0 </DataArray> 
</PointData> 
<Points> 
<DataArray type="Float32" NumberOfComponents="3"> 
0.075 0.021 0 0.0783333 0.021 0 0.0816667 0.021 0 0.085 0.021 0 0.0883333 0.021 0 0.0916667 0.021 0 0.095 0.021 0 0.0983333 0.021 0 0.101667 0.021 0 0.105 0.021 0 0.108333 0.021 0 0.111667 0.021 0 0.115 0.021 0 0.118333 0.021 0 0.121667 0.021 0 0.125 0.021 0 0.0773333 0.0219333 0 0.0805333 0.0219333 0 0.0837333 0.0219333 0 0.0869333 0.0219333 0 0.0901333 0.0219333 0 0.0933333 0.0219333 0 0.0965333 0.0219333 0 0.0997333 0.0219333 0 0.102933 0.0219333 0 0.106133 0.0219333 0 0.109333 0.0219333 0 0.112533 0.0219333 0 0.115733 0.0219333 0 0.118933 0.0219333 0 0.122133 0.0219333 0 0.125333 0.0219333 0 0.0796667 0.0228667 0 0.0827333 0.0228667 0 0.0858 0.0228667 0 0.0888667 0.0228667 0 0.0919333 0.0228667 0 0.095 0.0228667 0 0.0980667 0.0228667 0 0.101133 0.0228667 0 0.1042 0.0228667 0 0.107267 0.0228667 0 0.110333 0.0228667 0 0.1134 0.0228667 0 0.116467 0.0228667 0 0.119533 0.0228667 0 0.1226 0.0228667 0 0.125667 0.0228667 0 0.082 0.0238 0 0.0849333 0.0238 0 0.0878667 0.0238 0 0.0908 0.0238 0 0.0937333 0.0238 0 0.0966667 0.0238 0 0.0996 0.0238 0 0.102533 0.0238 0 0.105467 0.0238 0 0.1084 0.0238 0 0.111333 0.0238 0 0.114267 0.0238 0 0.1172 0.0238 0 0.120133 0.0238 0 0.123067 0.0238 0 0.126 0.0238 0 0.0843333 0.0247333 0 0.0871333 0.0247333 0 0.0899333 0.0247333 0 0.0927333 0.0247333 0 0.0955333 0.0247333 0 0.0983333 0.0247333 0 0.101133 0.0247333 0 0.103933 0.0247333 0 0.106733 0.0247333 0 0.109533 0.0247333 0 0.112333 0.0247333 0 0.115133 0.0247333 0 0.117933 0.0247333 0 0.120733 0.0247333 0 0.123533 0.0247333 0 0.126333 0.0247333 0 0.0866667 0.0256667 0 0.0893333 0.0256667 0 0.092 0.0256667 0 0.0946667 0.0256667 0 0.0973333 0.0256667 0 0.1 0.0256667 0 0.102667 0.0256667 0 0.105333 0.0256667 0 0.108 0.0256667 0 0.110667 0.0256667 0 0.113333 0.0256667 0 0.116 0.0256667 0 0.118667 0.0256667 0 0.121333 0.0256667 0 0.124 0.0256667 0 0.126667 0.0256667 0 0.089 0.0266 0 0.0915333 0.0266 0 0.0940667 0.0266 0 0.0966 0.0266 0 0.0991333 0.0266 0 0.101667 0.0266 0 0.1042 0.0266 0 0.106733 0.0266 0 0.109267 0.0266 0 0.1118 0.0266 0 0.114333 0.0266 0 0.116867 0.0266 0 0.1194 0.0266 0 0.121933 0.0266 0 0.124467 0.0266 0 0.127 0.0266 0 0.0913333 0.0275333 0 0.0937333 0.0275333 0 0.0961333 0.0275333 0 0.0985333 0.0275333 0 0.100933 0.0275333 0 0.103333 0.0275333 0 0.105733 0.0275333 0 0.108133 0.0275333 0 0.110533 0.0275333 0 0.112933 0.0275333 0 0.115333 0.0275333 0 0.117733 0.0275333 0 0.120133 0.0275333 0 0.122533 0.0275333 0 0.124933 0.0275333 0 0.127333 0.0275333 0 0.0936667 0.0284667 0 0.0959333 0.0284667 0 0.0982 0.0284667 0 0.100467 0.0284667 0 0.102733 0.0284667 0 0.105 0.0284667 0 0.107267 0.0284667 0 0.109533 0.0284667 0 0.1118 0.0284667 0 0.114067 0.0284667 0 0.116333 0.0284667 0 0.1186 0.0284667 0 0.120867 0.0284667 0 0.123133 0.0284667 0 0.1254 0.0284667 0 0.127667 0.0284667 0 0.096 0.0294 0 0.0981333 0.0294 0 0.100267 0.0294 0 0.1024 0.0294 0 0.104533 0.0294 0 0.106667 0.0294 0 0.1088 0.0294 0 0.110933 0.0294 0 0.113067 0.0294 0 0.1152 0.0294 0 0.117333 0.0294 0 0.119467 0.0294 0 0.1216 0.0294 0 0.123733 0.0294 0 0.125867 0.0294 0 0.128 0.0294 0 0.0983333 0.0303333 0 0.100333 0.0303333 0 0.102333 0.0303333 0 0.104333 0.0303333 0 0.106333 0.0303333 0 0.108333 0.0303333 0 0.110333 0.0303333 0 0.112333 0.0303333 0 0.114333 0.0303333 0 0.116333 0.0303333 0 0.118333 0.0303333 0 0.120333 0.0303333 0 0.122333 0.0303333 0 0.124333 0.0303333 0 0.126333 0.0303333 0 0.128333 0.0303333 0 0.100667 0.0312667 0 0.102533 0.0312667 0 0.1044 0.0312667 0 0.106267 0.0312667 0 0.108133 0.0312667 0 0.11 0.0312667 0 0.111867 0.0312667 0 0.113733 0.0312667 0 0.1156 0.0312667 0 0.117467 0.0312667 0 0.119333 0.0312667 0 0.1212 0.0312667 0 0.123067 0.0312667 0 0.124933 0.0312667 0 0.1268 0.0312667 0 0.128667 0.0312667 0 0.103 0.0322 0 0.104733 0.0322 0 0.106467 0.0322 0 0.1082 0.0322 0 0.109933 0.0322 0 0.111667 0.0322 0 0.1134 0.0322 0 0.115133 0.0322 0 0.116867 0.0322 0 0.1186 0.0322 0 0.120333 0.0322 0 0.122067 0.0322 0 0.1238 0.0322 0 0.125533 0.0322 0 0.127267 0.0322 0 0.129 0.0322 0 0.105333 0.0331333 0 0.106933 0.0331333 0 0.108533 0.0331333 0 0.110133 0.0331333 0 0.111733 0.0331333 0 0.113333 0.0331333 0 0.114933 0.0331333 0 0.116533 0.0331333 0 0.118133 0.0331333 0 0.119733 0.0331333 0 0.121333 0.0331333 0 0.122933 0.0331333 0 0.124533 0.0331333 0 0.126133 0.0331333 0 0.127733 0.0331333 0 0.129333 0.0331333 0 0.107667 0.0340667 0 0.109133 0.0340667 0 0.1106 0.0340667 0 0.112067 0.0340667 0 0.113533 0.0340667 0 0.115 0.0340667 0 0.116467 0.0340667 0 0.117933 0.0340667 0 0.1194 0.0340667 0 0.120867 0.0340667 0 0.122333 0.0340667 0 0.1238 0.0340667 0 0.125267 0.0340667 0 0.126733 0.0340667 0 0.1282 0.0340667 0 0.129667 0.0340667 0 0.11 0.035 0 0.111333 0.035 0 0.112667 0.035 0 0.114 0.035 0 0.115333 0.035 0 0.116667 0.035 0 0.118 0.035 0 0.119333 0.035 0 0.120667 0.035 0 0.122 0.035 0 0.123333 0.035 0 0.124667 0.035 0 0.126 0.035 0 0.127333 0.035 0 0.128667 0.035 0 0.13 0.035 0 
</DataArray>
</Points> 
</Piece> 
</StructuredGrid> 
</VTKFile> 
