<?xml version="1.0"?> 
<VTKFile type="StructuredGrid" version="0.1"> 
<StructuredGrid WholeExtent="0 15 0 15 0 0"> 
<Piece Extent="0 15 0 15 0 0"> 
<PointData>
<DataArray type="Float32" Name="|E|" format="ascii" NumberOfComponents="3"> 
-2.02524e+06 0 0 -2.02549e+06 10863.7 0 -2.02624e+06 21734.4 0 -2.0275e+06 32619 0 -2.02926e+06 43524.5 0 -2.03153e+06 54457.8 0 -2.03431e+06 65425.8 0 -2.03759e+06 76437.5 0 -2.04138e+06 87502.4 0 -2.04568e+06 98624.1 0 -2.0505e+06 109799 0 -2.05583e+06 121030 0 -2.06168e+06 132331 0 -2.06805e+06 143728 0 -2.07494e+06 155280 0 -2.08235e+06 167016 0 -2.01554e+06 0 0 -2.01599e+06 15258.5 0 -2.01735e+06 30534.4 0 -2.01962e+06 45845.1 0 -2.0228e+06 61208.4 0 -2.02688e+06 76642 0 -2.03189e+06 92163.8 0 -2.03781e+06 107793 0 -2.04466e+06 123550 0 -2.05244e+06 139457 0 -2.06114e+06 155529 0 -2.07079e+06 171782 0 -2.08139e+06 188234 0 -2.09296e+06 204909 0 -2.10551e+06 221863 0 -2.11904e+06 239170 0 -2.00546e+06 0 0 -2.00617e+06 19951.7 0 -2.0083e+06 39939.1 0 -2.01185e+06 59998 0 -2.01683e+06 80164.8 0 -2.02324e+06 100477 0 -2.03109e+06 120973 0 -2.04039e+06 141694 0 -2.05115e+06 162680 0 -2.06337e+06 183968 0 -2.07709e+06 205604 0 -2.09233e+06 227645 0 -2.10909e+06 250159 0 -2.12739e+06 273221 0 -2.14723e+06 296885 0 -2.16865e+06 321146 0 -1.99501e+06 0 0 -1.99603e+06 24937.9 0 -1.99908e+06 49939.7 0 -2.00418e+06 75070.2 0 -2.01133e+06 100395 0 -2.02054e+06 125984 0 -2.03183e+06 151907 0 -2.04521e+06 178238 0 -2.06071e+06 205053 0 -2.07836e+06 232444 0 -2.09818e+06 260515 0 -2.1202e+06 289374 0 -2.14444e+06 319123 0 -2.17096e+06 349852 0 -2.19986e+06 381645 0 -2.23125e+06 414653 0 -1.98418e+06 0 0 -1.98556e+06 30211.2 0 -1.98969e+06 60527.3 0 -1.99659e+06 91054.6 0 -2.00627e+06 121903 0 -2.01874e+06 153187 0 -2.03403e+06 185026 0 -2.05218e+06 217549 0 -2.07322e+06 250904 0 -2.0972e+06 285254 0 -2.12414e+06 320764 0 -2.15411e+06 357601 0 -2.18723e+06 395966 0 -2.22364e+06 436110 0 -2.26333e+06 478408 0 -2.30625e+06 523434 0 -1.97299e+06 0 0 -1.97478e+06 35765.9 0 -1.98013e+06 71692.6 0 -1.98906e+06 107944 0 -2.0016e+06 144690 0 -2.01776e+06 182111 0 -2.0376e+06 220399 0 -2.06116e+06 259771 0 -2.08849e+06 300468 0 -2.11964e+06 342747 0 -2.15472e+06 386892 0 -2.19386e+06 433280 0 -2.23718e+06 482393 0 -2.28461e+06 534856 0 -2.33627e+06 591526 0 -2.39284e+06 653016 0 -1.96144e+06 0 0 -1.96367e+06 41596 0 -1.97038e+06 83426 0 -1.98157e+06 125730 0 -1.99728e+06 168760 0 -2.01755e+06 212784 0 -2.04244e+06 258101 0 -2.072e+06 305046 0 -2.1063e+06 353992 0 -2.14547e+06 405367 0 -2.18963e+06 459732 0 -2.23888e+06 517799 0 -2.29314e+06 580423 0 -2.3528e+06 648733 0 -2.41874e+06 723742 0 -2.49076e+06 807065 0 -1.94954e+06 0 0 -1.95226e+06 47695.3 0 -1.96044e+06 95718 0 -1.9741e+06 144406 0 -1.99328e+06 194115 0 -2.01803e+06 245237 0 -2.04842e+06 298208 0 -2.08452e+06 353525 0 -2.12645e+06 411781 0 -2.17433e+06 473695 0 -2.22824e+06 540244 0 -2.28809e+06 612590 0 -2.35438e+06 692310 0 -2.42777e+06 781373 0 -2.50672e+06 883223 0 -2.58945e+06 1.00524e+06 0 -1.93728e+06 0 0 -1.94053e+06 54057.7 0 -1.95031e+06 108558 0 -1.96663e+06 163962 0 -1.98955e+06 220759 0 -2.01912e+06 279496 0 -2.05543e+06 340792 0 -2.09856e+06 405391 0 -2.14862e+06 474191 0 -2.20568e+06 548364 0 -2.26963e+06 629497 0 -2.34074e+06 719530 0 -2.41939e+06 821561 0 -2.50272e+06 940736 0 -2.58892e+06 1.08774e+06 0 -2.67805e+06 1.27957e+06 0 -1.92468e+06 0 0 -1.9285e+06 60677 0 -1.93997e+06 121937 0 -1.95913e+06 184389 0 -1.98604e+06 248692 0 -2.02074e+06 315588 0 -2.06332e+06 385942 0 -2.11386e+06 460836 0 -2.1724e+06 541585 0 -2.23876e+06 630099 0 -2.31292e+06 728739 0 -2.39488e+06 841253 0 -2.48093e+06 974364 0 -2.56767e+06 1.13985e+06 0 -2.64971e+06 1.3554e+06 0 -2.68146e+06 1.64959e+06 0 -1.91173e+06 0 0 -1.91615e+06 67546.6 0 -1.92943e+06 135843 0 -1.95159e+06 205678 0 -1.9827e+06 277915 0 -2.0228e+06 353538 0 -2.07193e+06 433747 0 -2.13016e+06 520033 0 -2.1972e+06 614405 0 -2.27272e+06 719646 0 -2.35646e+06 839628 0 -2.44432e+06 982106 0 -2.53027e+06 1.15809e+06 0 -2.60401e+06 1.38623e+06 0 -2.60046e+06 1.68058e+06 0 -2.39593e+06 1.99841e+06 0 -1.89846e+06 0 0 -1.90351e+06 74660.3 0 -1.91867e+06 150266 0 -1.94398e+06 227819 0 -1.97949e+06 308424 0 -2.02518e+06 393374 0 -2.08109e+06 484272 0 -2.14704e+06 583213 0 -2.22228e+06 693045 0 -2.30646e+06 817744 0 -2.3957e+06 964876 0 -2.48168e+06 1.14507e+06 0 -2.55108e+06 1.37391e+06 0 -2.53618e+06 1.66736e+06 0 -2.31355e+06 1.96395e+06 0 -1.87353e+06 2.03344e+06 0 -1.88485e+06 0 0 -1.89056e+06 82013.4 0 -1.9077e+06 165192 0 -1.93629e+06 250801 0 -1.97635e+06 340216 0 -2.02778e+06 435110 0 -2.0906e+06 537605 0 -2.16396e+06 650574 0 -2.247e+06 777664 0 -2.33722e+06 926027 0 -2.42475e+06 1.10551e+06 0 -2.4959e+06 1.32814e+06 0 -2.49169e+06 1.61249e+06 0 -2.29214e+06 1.90163e+06 0 -1.89593e+06 1.98792e+06 0 -1.5146e+06 1.72203e+06 0 -1.87093e+06 0 0 -1.87732e+06 89596.7 0 -1.89649e+06 180612 0 -1.92848e+06 274613 0 -1.9732e+06 373281 0 -2.03053e+06 478754 0 -2.10012e+06 593863 0 -2.18044e+06 722020 0 -2.27013e+06 869070 0 -2.36069e+06 1.04504e+06 0 -2.43735e+06 1.25806e+06 0 -2.45748e+06 1.52689e+06 0 -2.30865e+06 1.81863e+06 0 -1.96141e+06 1.93347e+06 0 -1.59694e+06 1.70346e+06 0 -1.38705e+06 1.21898e+06 0 -1.85668e+06 0 0 -1.86378e+06 97397.9 0 -1.88506e+06 196523 0 -1.92054e+06 299232 0 -1.96999e+06 407604 0 -2.03329e+06 524356 0 -2.10926e+06 652966 0 -2.1961e+06 797688 0 -2.2891e+06 968045 0 -2.3731e+06 1.17155e+06 0 -2.41971e+06 1.42031e+06 0 -2.33718e+06 1.71203e+06 0 -2.05354e+06 1.8821e+06 0 -1.70492e+06 1.71364e+06 0 -1.48591e+06 1.24139e+06 0 -1.51144e+06 413084 0 -1.84212e+06 0 0 -1.84994e+06 105417 0 -1.87339e+06 212907 0 -1.91242e+06 324643 0 -1.9667e+06 443177 0 -2.03584e+06 571917 0 -2.1178e+06 714715 0 -2.20993e+06 878165 0 -2.30121e+06 1.07286e+06 0 -2.36945e+06 1.30198e+06 0 -2.35347e+06 1.58341e+06 0 -2.15369e+06 1.81822e+06 0 -1.83287e+06 1.74717e+06 0 -1.59548e+06 1.35926e+06 0 -1.61337e+06 700943 0 -1.82204e+06 169615 0 </DataArray> 
</PointData> 
<Points> 
<DataArray type="Float32" NumberOfComponents="3"> 
0 0.021 0 0.00106667 0.021 0 0.00213333 0.021 0 0.0032 0.021 0 0.00426667 0.021 0 0.00533333 0.021 0 0.0064 0.021 0 0.00746667 0.021 0 0.00853333 0.021 0 0.0096 0.021 0 0.0106667 0.021 0 0.0117333 0.021 0 0.0128 0.021 0 0.0138667 0.021 0 0.0149333 0.021 0 0.016 0.021 0 0 0.0219333 0 0.00144 0.0219333 0 0.00288 0.0219333 0 0.00432 0.0219333 0 0.00576 0.0219333 0 0.0072 0.0219333 0 0.00864 0.0219333 0 0.01008 0.0219333 0 0.01152 0.0219333 0 0.01296 0.0219333 0 0.0144 0.0219333 0 0.01584 0.0219333 0 0.01728 0.0219333 0 0.01872 0.0219333 0 0.02016 0.0219333 0 0.0216 0.0219333 0 0 0.0228667 0 0.00181333 0.0228667 0 0.00362667 0.0228667 0 0.00544 0.0228667 0 0.00725333 0.0228667 0 0.00906667 0.0228667 0 0.01088 0.0228667 0 0.0126933 0.0228667 0 0.0145067 0.0228667 0 0.01632 0.0228667 0 0.0181333 0.0228667 0 0.0199467 0.0228667 0 0.02176 0.0228667 0 0.0235733 0.0228667 0 0.0253867 0.0228667 0 0.0272 0.0228667 0 0 0.0238 0 0.00218667 0.0238 0 0.00437333 0.0238 0 0.00656 0.0238 0 0.00874667 0.0238 0 0.0109333 0.0238 0 0.01312 0.0238 0 0.0153067 0.0238 0 0.0174933 0.0238 0 0.01968 0.0238 0 0.0218667 0.0238 0 0.0240533 0.0238 0 0.02624 0.0238 0 0.0284267 0.0238 0 0.0306133 0.0238 0 0.0328 0.0238 0 0 0.0247333 0 0.00256 0.0247333 0 0.00512 0.0247333 0 0.00768 0.0247333 0 0.01024 0.0247333 0 0.0128 0.0247333 0 0.01536 0.0247333 0 0.01792 0.0247333 0 0.02048 0.0247333 0 0.02304 0.0247333 0 0.0256 0.0247333 0 0.02816 0.0247333 0 0.03072 0.0247333 0 0.03328 0.0247333 0 0.03584 0.0247333 0 0.0384 0.0247333 0 0 0.0256667 0 0.00293333 0.0256667 0 0.00586667 0.0256667 0 0.0088 0.0256667 0 0.0117333 0.0256667 0 0.0146667 0.0256667 0 0.0176 0.0256667 0 0.0205333 0.0256667 0 0.0234667 0.0256667 0 0.0264 0.0256667 0 0.0293333 0.0256667 0 0.0322667 0.0256667 0 0.0352 0.0256667 0 0.0381333 0.0256667 0 0.0410667 0.0256667 0 0.044 0.0256667 0 0 0.0266 0 0.00330667 0.0266 0 0.00661333 0.0266 0 0.00992 0.0266 0 0.0132267 0.0266 0 0.0165333 0.0266 0 0.01984 0.0266 0 0.0231467 0.0266 0 0.0264533 0.0266 0 0.02976 0.0266 0 0.0330667 0.0266 0 0.0363733 0.0266 0 0.03968 0.0266 0 0.0429867 0.0266 0 0.0462933 0.0266 0 0.0496 0.0266 0 0 0.0275333 0 0.00368 0.0275333 0 0.00736 0.0275333 0 0.01104 0.0275333 0 0.01472 0.0275333 0 0.0184 0.0275333 0 0.02208 0.0275333 0 0.02576 0.0275333 0 0.02944 0.0275333 0 0.03312 0.0275333 0 0.0368 0.0275333 0 0.04048 0.0275333 0 0.04416 0.0275333 0 0.04784 0.0275333 0 0.05152 0.0275333 0 0.0552 0.0275333 0 0 0.0284667 0 0.00405333 0.0284667 0 0.00810667 0.0284667 0 0.01216 0.0284667 0 0.0162133 0.0284667 0 0.0202667 0.0284667 0 0.02432 0.0284667 0 0.0283733 0.0284667 0 0.0324267 0.0284667 0 0.03648 0.0284667 0 0.0405333 0.0284667 0 0.0445867 0.0284667 0 0.04864 0.0284667 0 0.0526933 0.0284667 0 0.0567467 0.0284667 0 0.0608 0.0284667 0 0 0.0294 0 0.00442667 0.0294 0 0.00885333 0.0294 0 0.01328 0.0294 0 0.0177067 0.0294 0 0.0221333 0.0294 0 0.02656 0.0294 0 0.0309867 0.0294 0 0.0354133 0.0294 0 0.03984 0.0294 0 0.0442667 0.0294 0 0.0486933 0.0294 0 0.05312 0.0294 0 0.0575467 0.0294 0 0.0619733 0.0294 0 0.0664 0.0294 0 0 0.0303333 0 0.0048 0.0303333 0 0.0096 0.0303333 0 0.0144 0.0303333 0 0.0192 0.0303333 0 0.024 0.0303333 0 0.0288 0.0303333 0 0.0336 0.0303333 0 0.0384 0.0303333 0 0.0432 0.0303333 0 0.048 0.0303333 0 0.0528 0.0303333 0 0.0576 0.0303333 0 0.0624 0.0303333 0 0.0672 0.0303333 0 0.072 0.0303333 0 0 0.0312667 0 0.00517333 0.0312667 0 0.0103467 0.0312667 0 0.01552 0.0312667 0 0.0206933 0.0312667 0 0.0258667 0.0312667 0 0.03104 0.0312667 0 0.0362133 0.0312667 0 0.0413867 0.0312667 0 0.04656 0.0312667 0 0.0517333 0.0312667 0 0.0569067 0.0312667 0 0.06208 0.0312667 0 0.0672533 0.0312667 0 0.0724267 0.0312667 0 0.0776 0.0312667 0 0 0.0322 0 0.00554667 0.0322 0 0.0110933 0.0322 0 0.01664 0.0322 0 0.0221867 0.0322 0 0.0277333 0.0322 0 0.03328 0.0322 0 0.0388267 0.0322 0 0.0443733 0.0322 0 0.04992 0.0322 0 0.0554667 0.0322 0 0.0610133 0.0322 0 0.06656 0.0322 0 0.0721067 0.0322 0 0.0776533 0.0322 0 0.0832 0.0322 0 0 0.0331333 0 0.00592 0.0331333 0 0.01184 0.0331333 0 0.01776 0.0331333 0 0.02368 0.0331333 0 0.0296 0.0331333 0 0.03552 0.0331333 0 0.04144 0.0331333 0 0.04736 0.0331333 0 0.05328 0.0331333 0 0.0592 0.0331333 0 0.06512 0.0331333 0 0.07104 0.0331333 0 0.07696 0.0331333 0 0.08288 0.0331333 0 0.0888 0.0331333 0 0 0.0340667 0 0.00629333 0.0340667 0 0.0125867 0.0340667 0 0.01888 0.0340667 0 0.0251733 0.0340667 0 0.0314667 0.0340667 0 0.03776 0.0340667 0 0.0440533 0.0340667 0 0.0503467 0.0340667 0 0.05664 0.0340667 0 0.0629333 0.0340667 0 0.0692267 0.0340667 0 0.07552 0.0340667 0 0.0818133 0.0340667 0 0.0881067 0.0340667 0 0.0944 0.0340667 0 0 0.035 0 0.00666667 0.035 0 0.0133333 0.035 0 0.02 0.035 0 0.0266667 0.035 0 0.0333333 0.035 0 0.04 0.035 0 0.0466667 0.035 0 0.0533333 0.035 0 0.06 0.035 0 0.0666667 0.035 0 0.0733333 0.035 0 0.08 0.035 0 0.0866667 0.035 0 0.0933333 0.035 0 0.1 0.035 0 
</DataArray>
</Points> 
</Piece> 
</StructuredGrid> 
</VTKFile> 
