<?xml version="1.0"?> 
<VTKFile type="StructuredGrid" version="0.1"> 
<StructuredGrid WholeExtent="0 15 0 15 0 0"> 
<Piece Extent="0 15 0 15 0 0"> 
<PointData>
<DataArray type="Float32" Name="|E|" format="ascii" NumberOfComponents="3"> 
-2.07896e+06 47600.5 0 -2.10017e+06 82712.6 0 -2.13175e+06 117107 0 -2.17414e+06 151206 0 -2.22797e+06 185456 0 -2.29408e+06 220339 0 -2.37357e+06 256311 0 -2.46797e+06 293859 0 -2.57925e+06 333142 0 -2.71024e+06 373805 0 -2.86487e+06 413721 0 -3.04764e+06 447218 0 -3.26377e+06 457054 0 -3.50739e+06 412700 0 -3.72829e+06 257597 0 -3.81291e+06 -3.57628e-07 0 -2.07824e+06 53976.3 0 -2.10048e+06 89603.4 0 -2.13289e+06 124716 0 -2.17592e+06 159748 0 -2.23018e+06 195159 0 -2.29651e+06 231456 0 -2.37601e+06 269139 0 -2.47016e+06 308729 0 -2.58101e+06 350486 0 -2.71146e+06 394132 0 -2.86572e+06 437774 0 -3.04914e+06 475713 0 -3.26888e+06 491064 0 -3.52276e+06 449902 0 -3.76287e+06 287016 0 -3.85851e+06 1.77999e-07 0 -2.07767e+06 60572.1 0 -2.10089e+06 96724.6 0 -2.13409e+06 132564 0 -2.17771e+06 168534 0 -2.23236e+06 205110 0 -2.29886e+06 242824 0 -2.3783e+06 282215 0 -2.47215e+06 323851 0 -2.58251e+06 368084 0 -2.71233e+06 414757 0 -2.86614e+06 462190 0 -3.05011e+06 504905 0 -3.27348e+06 526352 0 -3.53849e+06 489896 0 -3.80088e+06 320070 0 -3.91074e+06 -1.47149e-07 0 -2.07725e+06 67389.2 0 -2.1014e+06 104078 0 -2.13534e+06 140652 0 -2.17951e+06 177565 0 -2.2345e+06 215308 0 -2.30112e+06 254442 0 -2.38045e+06 295540 0 -2.47395e+06 339224 0 -2.58374e+06 385938 0 -2.71283e+06 435676 0 -2.86609e+06 486982 0 -3.05048e+06 534797 0 -3.27744e+06 563016 0 -3.55434e+06 532983 0 -3.8426e+06 357580 0 -3.9707e+06 2.15136e-07 0 -2.07696e+06 74429 0 -2.102e+06 111664 0 -2.13664e+06 148981 0 -2.18132e+06 186842 0 -2.2366e+06 225756 0 -2.30329e+06 266311 0 -2.38246e+06 309112 0 -2.47553e+06 354847 0 -2.58467e+06 404047 0 -2.71295e+06 456884 0 -2.86554e+06 512157 0 -3.05017e+06 565391 0 -3.28058e+06 601145 0 -3.56998e+06 579478 0 -3.88828e+06 400584 0 -4.03985e+06 -3.50177e-07 0 -2.07681e+06 81692.6 0 -2.1027e+06 119484 0 -2.138e+06 157551 0 -2.18313e+06 196365 0 -2.23866e+06 236453 0 -2.30537e+06 278430 0 -2.38431e+06 322933 0 -2.4769e+06 370718 0 -2.58531e+06 422411 0 -2.71268e+06 478379 0 -2.86445e+06 537718 0 -3.04909e+06 596680 0 -3.28273e+06 640812 0 -3.58499e+06 629694 0 -3.93816e+06 450405 0 -4.12014e+06 3.46452e-07 0 -2.07679e+06 89181.4 0 -2.10349e+06 127539 0 -2.1394e+06 166364 0 -2.18495e+06 206137 0 -2.24067e+06 247400 0 -2.30736e+06 290800 0 -2.386e+06 337000 0 -2.47804e+06 386836 0 -2.58565e+06 441028 0 -2.71198e+06 500154 0 -2.8628e+06 563664 0 -3.04716e+06 628646 0 -3.28365e+06 682079 0 -3.59881e+06 683911 0 -3.9924e+06 508732 0 -4.21429e+06 -1.3411e-07 0 -2.07691e+06 96896.7 0 -2.10437e+06 135831 0 -2.14085e+06 175421 0 -2.18676e+06 216157 0 -2.24263e+06 258598 0 -2.30924e+06 303420 0 -2.38753e+06 351314 0 -2.47895e+06 403200 0 -2.58566e+06 459896 0 -2.71085e+06 522206 0 -2.86052e+06 589989 0 -3.04427e+06 661260 0 -3.28313e+06 724991 0 -3.6107e+06 742340 0 -4.05099e+06 577735 0 -4.32612e+06 -1.19209e-07 0 -2.07716e+06 104840 0 -2.10533e+06 144361 0 -2.14234e+06 184723 0 -2.18857e+06 226426 0 -2.24454e+06 270047 0 -2.31102e+06 316290 0 -2.38888e+06 365872 0 -2.47963e+06 419808 0 -2.58533e+06 479010 0 -2.70926e+06 544524 0 -2.85759e+06 616685 0 -3.04032e+06 694473 0 -3.28091e+06 769578 0 -3.61975e+06 805064 0 -4.11365e+06 660197 0 -4.4612e+06 1.3411e-07 0 -2.07753e+06 113013 0 -2.10638e+06 153130 0 -2.14387e+06 194271 0 -2.19038e+06 236945 0 -2.24638e+06 281748 0 -2.31268e+06 329411 0 -2.39006e+06 380675 0 -2.48006e+06 436658 0 -2.58466e+06 498364 0 -2.7072e+06 567104 0 -2.85395e+06 643734 0 -3.03519e+06 728222 0 -3.27675e+06 815844 0 -3.62478e+06 871977 0 -4.17956e+06 759653 0 -4.62801e+06 -2.16067e-07 0 -2.07804e+06 121416 0 -2.10751e+06 162140 0 -2.14544e+06 204065 0 -2.19217e+06 247714 0 -2.24817e+06 293701 0 -2.31423e+06 342780 0 -2.39105e+06 395719 0 -2.48024e+06 453750 0 -2.58361e+06 517951 0 -2.70465e+06 589939 0 -2.84956e+06 671103 0 -3.02876e+06 762443 0 -3.27043e+06 863741 0 -3.62434e+06 942724 0 -4.24689e+06 880490 0 -4.83999e+06 3.05474e-07 0 -2.07866e+06 130050 0 -2.10873e+06 171393 0 -2.14704e+06 214107 0 -2.19394e+06 258736 0 -2.24989e+06 305908 0 -2.31566e+06 356398 0 -2.39184e+06 411002 0 -2.48017e+06 471084 0 -2.58219e+06 537753 0 -2.70157e+06 613041 0 -2.84439e+06 698716 0 -3.02089e+06 797114 0 -3.26178e+06 913085 0 -3.61673e+06 1.01671e+06 0 -4.31198e+06 1.02786e+06 0 -5.1195e+06 -2.23517e-07 0 -2.07941e+06 138917 0 -2.11001e+06 180889 0 -2.14867e+06 224397 0 -2.1957e+06 270010 0 -2.25154e+06 318368 0 -2.31697e+06 370264 0 -2.39243e+06 426521 0 -2.47983e+06 488665 0 -2.58036e+06 557736 0 -2.69795e+06 636460 0 -2.83842e+06 726398 0 -3.01139e+06 832377 0 -3.25073e+06 963327 0 -3.6001e+06 1.09334e+06 0 -4.36774e+06 1.20712e+06 0 -5.50533e+06 1.49012e-07 0 -2.08028e+06 148015 0 -2.11138e+06 190631 0 -2.15033e+06 234936 0 -2.19743e+06 281537 0 -2.25312e+06 331082 0 -2.31814e+06 384377 0 -2.39281e+06 442268 0 -2.47922e+06 506510 0 -2.57814e+06 577829 0 -2.69372e+06 660340 0 -2.8317e+06 753734 0 -2.99999e+06 868835 0 -3.23733e+06 1.01298e+06 0 -3.57282e+06 1.17289e+06 0 -4.40046e+06 1.42195e+06 0 -6.068e+06 -1.93715e-07 0 -2.08125e+06 157342 0 -2.11281e+06 200618 0 -2.15202e+06 245727 0 -2.19913e+06 293319 0 -2.25462e+06 344050 0 -2.31917e+06 398735 0 -2.39298e+06 458230 0 -2.47829e+06 524659 0 -2.57556e+06 597874 0 -2.68875e+06 685055 0 -2.82438e+06 779742 0 -2.98626e+06 908275 0 -3.2218e+06 1.05817e+06 0 -3.53445e+06 1.25899e+06 0 -4.38362e+06 1.66953e+06 0 -6.94053e+06 1.49012e-07 0 -2.08234e+06 166900 0 -2.11432e+06 210850 0 -2.15372e+06 256770 0 -2.2008e+06 305356 0 -2.25605e+06 357273 0 -2.32003e+06 413342 0 -2.39297e+06 474380 0 -2.477e+06 543204 0 -2.5727e+06 617542 0 -2.68277e+06 711466 0 -2.8169e+06 802204 0 -2.96944e+06 955202 0 -3.20442e+06 1.0895e+06 0 -3.48799e+06 1.36457e+06 0 -4.26499e+06 1.92912e+06 0 -8.38298e+06 -3.57628e-07 0 </DataArray> 
</PointData> 
<Points> 
<DataArray type="Float32" NumberOfComponents="3"> 
0.006 0.016 0 0.0106 0.0156 0 0.0152 0.0152 0 0.0198 0.0148 0 0.0244 0.0144 0 0.029 0.014 0 0.0336 0.0136 0 0.0382 0.0132 0 0.0428 0.0128 0 0.0474 0.0124 0 0.052 0.012 0 0.0566 0.0116 0 0.0612 0.0112 0 0.0658 0.0108 0 0.0704 0.0104 0 0.075 0.01 0 0.00666667 0.0163333 0 0.0112222 0.01596 0 0.0157778 0.0155867 0 0.0203333 0.0152133 0 0.0248889 0.01484 0 0.0294444 0.0144667 0 0.034 0.0140933 0 0.0385556 0.01372 0 0.0431111 0.0133467 0 0.0476667 0.0129733 0 0.0522222 0.0126 0 0.0567778 0.0122267 0 0.0613333 0.0118533 0 0.0658889 0.01148 0 0.0704444 0.0111067 0 0.075 0.0107333 0 0.00733333 0.0166667 0 0.0118444 0.01632 0 0.0163556 0.0159733 0 0.0208667 0.0156267 0 0.0253778 0.01528 0 0.0298889 0.0149333 0 0.0344 0.0145867 0 0.0389111 0.01424 0 0.0434222 0.0138933 0 0.0479333 0.0135467 0 0.0524444 0.0132 0 0.0569556 0.0128533 0 0.0614667 0.0125067 0 0.0659778 0.01216 0 0.0704889 0.0118133 0 0.075 0.0114667 0 0.008 0.017 0 0.0124667 0.01668 0 0.0169333 0.01636 0 0.0214 0.01604 0 0.0258667 0.01572 0 0.0303333 0.0154 0 0.0348 0.01508 0 0.0392667 0.01476 0 0.0437333 0.01444 0 0.0482 0.01412 0 0.0526667 0.0138 0 0.0571333 0.01348 0 0.0616 0.01316 0 0.0660667 0.01284 0 0.0705333 0.01252 0 0.075 0.0122 0 0.00866667 0.0173333 0 0.0130889 0.01704 0 0.0175111 0.0167467 0 0.0219333 0.0164533 0 0.0263556 0.01616 0 0.0307778 0.0158667 0 0.0352 0.0155733 0 0.0396222 0.01528 0 0.0440444 0.0149867 0 0.0484667 0.0146933 0 0.0528889 0.0144 0 0.0573111 0.0141067 0 0.0617333 0.0138133 0 0.0661556 0.01352 0 0.0705778 0.0132267 0 0.075 0.0129333 0 0.00933333 0.0176667 0 0.0137111 0.0174 0 0.0180889 0.0171333 0 0.0224667 0.0168667 0 0.0268444 0.0166 0 0.0312222 0.0163333 0 0.0356 0.0160667 0 0.0399778 0.0158 0 0.0443556 0.0155333 0 0.0487333 0.0152667 0 0.0531111 0.015 0 0.0574889 0.0147333 0 0.0618667 0.0144667 0 0.0662444 0.0142 0 0.0706222 0.0139333 0 0.075 0.0136667 0 0.01 0.018 0 0.0143333 0.01776 0 0.0186667 0.01752 0 0.023 0.01728 0 0.0273333 0.01704 0 0.0316667 0.0168 0 0.036 0.01656 0 0.0403333 0.01632 0 0.0446667 0.01608 0 0.049 0.01584 0 0.0533333 0.0156 0 0.0576667 0.01536 0 0.062 0.01512 0 0.0663333 0.01488 0 0.0706667 0.01464 0 0.075 0.0144 0 0.0106667 0.0183333 0 0.0149556 0.01812 0 0.0192444 0.0179067 0 0.0235333 0.0176933 0 0.0278222 0.01748 0 0.0321111 0.0172667 0 0.0364 0.0170533 0 0.0406889 0.01684 0 0.0449778 0.0166267 0 0.0492667 0.0164133 0 0.0535556 0.0162 0 0.0578444 0.0159867 0 0.0621333 0.0157733 0 0.0664222 0.01556 0 0.0707111 0.0153467 0 0.075 0.0151333 0 0.0113333 0.0186667 0 0.0155778 0.01848 0 0.0198222 0.0182933 0 0.0240667 0.0181067 0 0.0283111 0.01792 0 0.0325556 0.0177333 0 0.0368 0.0175467 0 0.0410444 0.01736 0 0.0452889 0.0171733 0 0.0495333 0.0169867 0 0.0537778 0.0168 0 0.0580222 0.0166133 0 0.0622667 0.0164267 0 0.0665111 0.01624 0 0.0707556 0.0160533 0 0.075 0.0158667 0 0.012 0.019 0 0.0162 0.01884 0 0.0204 0.01868 0 0.0246 0.01852 0 0.0288 0.01836 0 0.033 0.0182 0 0.0372 0.01804 0 0.0414 0.01788 0 0.0456 0.01772 0 0.0498 0.01756 0 0.054 0.0174 0 0.0582 0.01724 0 0.0624 0.01708 0 0.0666 0.01692 0 0.0708 0.01676 0 0.075 0.0166 0 0.0126667 0.0193333 0 0.0168222 0.0192 0 0.0209778 0.0190667 0 0.0251333 0.0189333 0 0.0292889 0.0188 0 0.0334444 0.0186667 0 0.0376 0.0185333 0 0.0417556 0.0184 0 0.0459111 0.0182667 0 0.0500667 0.0181333 0 0.0542222 0.018 0 0.0583778 0.0178667 0 0.0625333 0.0177333 0 0.0666889 0.0176 0 0.0708444 0.0174667 0 0.075 0.0173333 0 0.0133333 0.0196667 0 0.0174444 0.01956 0 0.0215556 0.0194533 0 0.0256667 0.0193467 0 0.0297778 0.01924 0 0.0338889 0.0191333 0 0.038 0.0190267 0 0.0421111 0.01892 0 0.0462222 0.0188133 0 0.0503333 0.0187067 0 0.0544444 0.0186 0 0.0585556 0.0184933 0 0.0626667 0.0183867 0 0.0667778 0.01828 0 0.0708889 0.0181733 0 0.075 0.0180667 0 0.014 0.02 0 0.0180667 0.01992 0 0.0221333 0.01984 0 0.0262 0.01976 0 0.0302667 0.01968 0 0.0343333 0.0196 0 0.0384 0.01952 0 0.0424667 0.01944 0 0.0465333 0.01936 0 0.0506 0.01928 0 0.0546667 0.0192 0 0.0587333 0.01912 0 0.0628 0.01904 0 0.0668667 0.01896 0 0.0709333 0.01888 0 0.075 0.0188 0 0.0146667 0.0203333 0 0.0186889 0.02028 0 0.0227111 0.0202267 0 0.0267333 0.0201733 0 0.0307556 0.02012 0 0.0347778 0.0200667 0 0.0388 0.0200133 0 0.0428222 0.01996 0 0.0468444 0.0199067 0 0.0508667 0.0198533 0 0.0548889 0.0198 0 0.0589111 0.0197467 0 0.0629333 0.0196933 0 0.0669556 0.01964 0 0.0709778 0.0195867 0 0.075 0.0195333 0 0.0153333 0.0206667 0 0.0193111 0.02064 0 0.0232889 0.0206133 0 0.0272667 0.0205867 0 0.0312444 0.02056 0 0.0352222 0.0205333 0 0.0392 0.0205067 0 0.0431778 0.02048 0 0.0471556 0.0204533 0 0.0511333 0.0204267 0 0.0551111 0.0204 0 0.0590889 0.0203733 0 0.0630667 0.0203467 0 0.0670444 0.02032 0 0.0710222 0.0202933 0 0.075 0.0202667 0 0.016 0.021 0 0.0199333 0.021 0 0.0238667 0.021 0 0.0278 0.021 0 0.0317333 0.021 0 0.0356667 0.021 0 0.0396 0.021 0 0.0435333 0.021 0 0.0474667 0.021 0 0.0514 0.021 0 0.0553333 0.021 0 0.0592667 0.021 0 0.0632 0.021 0 0.0671333 0.021 0 0.0710667 0.021 0 0.075 0.021 0 
</DataArray>
</Points> 
</Piece> 
</StructuredGrid> 
</VTKFile> 
