<?xml version="1.0"?> 
<VTKFile type="StructuredGrid" version="0.1"> 
<StructuredGrid WholeExtent="0 15 0 15 0 0"> 
<Piece Extent="0 15 0 15 0 0"> 
<PointData>
<DataArray type="Float32" Name="|E|" format="ascii" NumberOfComponents="3"> 
1.32234e+06 2.38419e-06 0 1.55644e+06 -0.0115703 0 1.71422e+06 -0.0153882 0 1.70583e+06 0.0241092 0 1.59359e+06 0.000643761 0 1.43597e+06 0.00739283 0 1.26959e+06 0.000224481 0 1.11336e+06 0.00138606 0 975165 -0.000168724 0 857689 6.97374e-06 0 760977 -0.000219017 0 684126 -0.000186693 0 625919 -0.000155268 0 585235 -0.000120482 0 561192 -5.06802e-05 0 553241 0 0 1.32195e+06 -3.10363e-07 0 1.5565e+06 -6554.35 0 1.71428e+06 -1840.32 0 1.70587e+06 1967.55 0 1.59361e+06 3907.25 0 1.43598e+06 4550.83 0 1.26959e+06 4463.31 0 1.11335e+06 4043.84 0 975157 3497.07 0 857682 2923.29 0 760970 2365.71 0 684119 1839.54 0 625913 1346.32 0 585229 881.029 0 561186 435.439 0 553235 0 0 1.32077e+06 7.35745e-08 0 1.55667e+06 -13110.2 0 1.71447e+06 -3682.69 0 1.70598e+06 3938.28 0 1.59365e+06 7814.57 0 1.43598e+06 9102.64 0 1.26957e+06 8926.64 0 1.11333e+06 8087.87 0 975134 6994.11 0 857658 5846.59 0 760947 4731.39 0 684098 3679.06 0 625893 2692.62 0 585210 1762.04 0 561168 870.871 0 553217 0 0 1.31879e+06 1.52737e-07 0 1.55696e+06 -19668.8 0 1.71478e+06 -5529.22 0 1.70618e+06 5915.4 0 1.59374e+06 11722 0 1.436e+06 13656.4 0 1.26955e+06 13390 0 1.1133e+06 12132.3 0 975095 10491.1 0 857619 8769.89 0 760910 7097.01 0 684063 5518.53 0 625860 4038.88 0 585179 2643.03 0 561138 1306.29 0 553188 0 0 1.31601e+06 -1.9744e-07 0 1.55737e+06 -26231.3 0 1.71522e+06 -7382.14 0 1.70645e+06 7902.21 0 1.59385e+06 15629.6 0 1.43602e+06 18213.1 0 1.26952e+06 17853.5 0 1.11325e+06 16177.2 0 975040 13988 0 857565 11693.2 0 760858 9462.55 0 684014 7357.92 0 625815 5385.08 0 585136 3523.96 0 561096 1741.69 0 553146 0 0 1.31239e+06 2.01166e-07 0 1.5579e+06 -32798.5 0 1.71579e+06 -9243.92 0 1.70679e+06 9902.13 0 1.59399e+06 19537.3 0 1.43604e+06 22773.9 0 1.26949e+06 22317 0 1.11319e+06 20222.9 0 974970 17484.9 0 857495 14616.5 0 760791 11828 0 683952 9197.22 0 625756 6731.19 0 585080 4404.83 0 561042 2177.06 0 553093 0 0 1.30792e+06 3.57628e-07 0 1.55857e+06 -39370.7 0 1.71648e+06 -11117.3 0 1.70722e+06 11918.7 0 1.59417e+06 23444.9 0 1.43607e+06 27339.7 0 1.26944e+06 26780.5 0 1.11311e+06 24269.6 0 974884 20981.5 0 857409 17539.8 0 760710 14193.2 0 683875 11036.4 0 625684 8077.21 0 585012 5285.62 0 560976 2612.4 0 553028 0 0 1.30255e+06 -6.4075e-07 0 1.55937e+06 -45947.3 0 1.7173e+06 -13005.3 0 1.70772e+06 13955.9 0 1.59438e+06 27352.1 0 1.4361e+06 31911.8 0 1.26939e+06 31244 0 1.11302e+06 28317.5 0 974783 24478 0 857308 20463.2 0 760613 16558.3 0 683785 12875.4 0 625599 9423.11 0 584931 6166.32 0 560898 3047.71 0 552951 0 0 1.29625e+06 4.32134e-07 0 1.56031e+06 -52527.4 0 1.71824e+06 -14911.5 0 1.7083e+06 16017.6 0 1.59463e+06 31258.7 0 1.43614e+06 36491.3 0 1.26933e+06 35707.3 0 1.11291e+06 32366.7 0 974666 27974.3 0 857191 23386.5 0 760502 18923.2 0 683680 14714.3 0 625501 10768.9 0 584838 7046.9 0 560808 3482.97 0 552862 0 0 1.28898e+06 -3.42727e-07 0 1.56141e+06 -59108.7 0 1.7193e+06 -16839.9 0 1.70895e+06 18108.2 0 1.5949e+06 35163.9 0 1.43618e+06 41079.5 0 1.26926e+06 40170.3 0 1.1128e+06 36417.7 0 974534 31470.3 0 857058 26310 0 760376 21287.9 0 683562 16552.9 0 625390 12114.5 0 584733 7927.35 0 560706 3918.18 0 552761 0 0 1.28067e+06 1.19209e-07 0 1.56267e+06 -65688.2 0 1.72049e+06 -18795.3 0 1.70969e+06 20232.6 0 1.59521e+06 39067 0 1.43623e+06 45678 0 1.26918e+06 44632.9 0 1.11266e+06 40470.6 0 974387 34966 0 856910 29233.5 0 760236 23652.3 0 683430 18391.4 0 625266 13459.9 0 584615 8807.65 0 560592 4353.33 0 552649 0 0 1.27127e+06 -2.38419e-07 0 1.56411e+06 -72261.4 0 1.7218e+06 -20783.1 0 1.71049e+06 22396 0 1.59556e+06 42967 0 1.43628e+06 50288.1 0 1.2691e+06 49094.7 0 1.11251e+06 44525.9 0 974224 38461.2 0 856746 32157 0 760080 26016.3 0 683284 20229.6 0 625129 14805.1 0 584485 9687.78 0 560466 4788.43 0 552524 0 0 1.2607e+06 2.68221e-07 0 1.56573e+06 -78822.2 0 1.72323e+06 -22809.5 0 1.71138e+06 24604.1 0 1.59593e+06 46862.6 0 1.43633e+06 54911.7 0 1.26901e+06 53555.5 0 1.11235e+06 48583.7 0 974045 41955.9 0 856566 35080.7 0 759910 28380 0 683123 22067.5 0 624979 16150.1 0 584342 10567.7 0 560329 5223.47 0 552388 0 0 1.24887e+06 -8.9407e-08 0 1.56757e+06 -85363.1 0 1.72478e+06 -24881.9 0 1.71234e+06 26863.3 0 1.59634e+06 50752 0 1.43638e+06 59550.5 0 1.26891e+06 58014.8 0 1.11218e+06 52644.5 0 973852 45450 0 856370 38004.5 0 759725 30743.4 0 682949 23905.1 0 624816 17494.9 0 584187 11447.5 0 560179 5658.45 0 552240 0 0 1.2357e+06 -3.57628e-07 0 1.56963e+06 -91874.2 0 1.72645e+06 -27008.7 0 1.71337e+06 29180.5 0 1.59679e+06 54633.5 0 1.43644e+06 64206.6 0 1.2688e+06 62472 0 1.11198e+06 56708.8 0 973643 48943.3 0 856158 40928.5 0 759525 33106.3 0 682761 25742.4 0 624640 18839.4 0 584020 12327 0 560017 6093.36 0 552080 0 0 1.22109e+06 1.43051e-06 0 1.57194e+06 -98343.9 0 1.72823e+06 -29199.6 0 1.71448e+06 31563.6 0 1.59726e+06 58504.4 0 1.4365e+06 68882.2 0 1.26869e+06 66926.7 0 1.11178e+06 60777 0 973420 52435.6 0 855930 43852.8 0 759311 35468.7 0 682559 27579.4 0 624451 20183.7 0 583840 13206.3 0 559843 6528.2 0 551909 0 0 </DataArray> 
</PointData> 
<Points> 
<DataArray type="Float32" NumberOfComponents="3"> 
0.19 0 0 0.2022 0 0 0.2144 0 0 0.2266 0 0 0.2388 0 0 0.251 0 0 0.2632 0 0 0.2754 0 0 0.2876 0 0 0.2998 0 0 0.312 0 0 0.3242 0 0 0.3364 0 0 0.3486 0 0 0.3608 0 0 0.373 0 0 0.19 0.000333333 0 0.2022 0.000333333 0 0.2144 0.000333333 0 0.2266 0.000333333 0 0.2388 0.000333333 0 0.251 0.000333333 0 0.2632 0.000333333 0 0.2754 0.000333333 0 0.2876 0.000333333 0 0.2998 0.000333333 0 0.312 0.000333333 0 0.3242 0.000333333 0 0.3364 0.000333333 0 0.3486 0.000333333 0 0.3608 0.000333333 0 0.373 0.000333333 0 0.19 0.000666667 0 0.2022 0.000666667 0 0.2144 0.000666667 0 0.2266 0.000666667 0 0.2388 0.000666667 0 0.251 0.000666667 0 0.2632 0.000666667 0 0.2754 0.000666667 0 0.2876 0.000666667 0 0.2998 0.000666667 0 0.312 0.000666667 0 0.3242 0.000666667 0 0.3364 0.000666667 0 0.3486 0.000666667 0 0.3608 0.000666667 0 0.373 0.000666667 0 0.19 0.001 0 0.2022 0.001 0 0.2144 0.001 0 0.2266 0.001 0 0.2388 0.001 0 0.251 0.001 0 0.2632 0.001 0 0.2754 0.001 0 0.2876 0.001 0 0.2998 0.001 0 0.312 0.001 0 0.3242 0.001 0 0.3364 0.001 0 0.3486 0.001 0 0.3608 0.001 0 0.373 0.001 0 0.19 0.00133333 0 0.2022 0.00133333 0 0.2144 0.00133333 0 0.2266 0.00133333 0 0.2388 0.00133333 0 0.251 0.00133333 0 0.2632 0.00133333 0 0.2754 0.00133333 0 0.2876 0.00133333 0 0.2998 0.00133333 0 0.312 0.00133333 0 0.3242 0.00133333 0 0.3364 0.00133333 0 0.3486 0.00133333 0 0.3608 0.00133333 0 0.373 0.00133333 0 0.19 0.00166667 0 0.2022 0.00166667 0 0.2144 0.00166667 0 0.2266 0.00166667 0 0.2388 0.00166667 0 0.251 0.00166667 0 0.2632 0.00166667 0 0.2754 0.00166667 0 0.2876 0.00166667 0 0.2998 0.00166667 0 0.312 0.00166667 0 0.3242 0.00166667 0 0.3364 0.00166667 0 0.3486 0.00166667 0 0.3608 0.00166667 0 0.373 0.00166667 0 0.19 0.002 0 0.2022 0.002 0 0.2144 0.002 0 0.2266 0.002 0 0.2388 0.002 0 0.251 0.002 0 0.2632 0.002 0 0.2754 0.002 0 0.2876 0.002 0 0.2998 0.002 0 0.312 0.002 0 0.3242 0.002 0 0.3364 0.002 0 0.3486 0.002 0 0.3608 0.002 0 0.373 0.002 0 0.19 0.00233333 0 0.2022 0.00233333 0 0.2144 0.00233333 0 0.2266 0.00233333 0 0.2388 0.00233333 0 0.251 0.00233333 0 0.2632 0.00233333 0 0.2754 0.00233333 0 0.2876 0.00233333 0 0.2998 0.00233333 0 0.312 0.00233333 0 0.3242 0.00233333 0 0.3364 0.00233333 0 0.3486 0.00233333 0 0.3608 0.00233333 0 0.373 0.00233333 0 0.19 0.00266667 0 0.2022 0.00266667 0 0.2144 0.00266667 0 0.2266 0.00266667 0 0.2388 0.00266667 0 0.251 0.00266667 0 0.2632 0.00266667 0 0.2754 0.00266667 0 0.2876 0.00266667 0 0.2998 0.00266667 0 0.312 0.00266667 0 0.3242 0.00266667 0 0.3364 0.00266667 0 0.3486 0.00266667 0 0.3608 0.00266667 0 0.373 0.00266667 0 0.19 0.003 0 0.2022 0.003 0 0.2144 0.003 0 0.2266 0.003 0 0.2388 0.003 0 0.251 0.003 0 0.2632 0.003 0 0.2754 0.003 0 0.2876 0.003 0 0.2998 0.003 0 0.312 0.003 0 0.3242 0.003 0 0.3364 0.003 0 0.3486 0.003 0 0.3608 0.003 0 0.373 0.003 0 0.19 0.00333333 0 0.2022 0.00333333 0 0.2144 0.00333333 0 0.2266 0.00333333 0 0.2388 0.00333333 0 0.251 0.00333333 0 0.2632 0.00333333 0 0.2754 0.00333333 0 0.2876 0.00333333 0 0.2998 0.00333333 0 0.312 0.00333333 0 0.3242 0.00333333 0 0.3364 0.00333333 0 0.3486 0.00333333 0 0.3608 0.00333333 0 0.373 0.00333333 0 0.19 0.00366667 0 0.2022 0.00366667 0 0.2144 0.00366667 0 0.2266 0.00366667 0 0.2388 0.00366667 0 0.251 0.00366667 0 0.2632 0.00366667 0 0.2754 0.00366667 0 0.2876 0.00366667 0 0.2998 0.00366667 0 0.312 0.00366667 0 0.3242 0.00366667 0 0.3364 0.00366667 0 0.3486 0.00366667 0 0.3608 0.00366667 0 0.373 0.00366667 0 0.19 0.004 0 0.2022 0.004 0 0.2144 0.004 0 0.2266 0.004 0 0.2388 0.004 0 0.251 0.004 0 0.2632 0.004 0 0.2754 0.004 0 0.2876 0.004 0 0.2998 0.004 0 0.312 0.004 0 0.3242 0.004 0 0.3364 0.004 0 0.3486 0.004 0 0.3608 0.004 0 0.373 0.004 0 0.19 0.00433333 0 0.2022 0.00433333 0 0.2144 0.00433333 0 0.2266 0.00433333 0 0.2388 0.00433333 0 0.251 0.00433333 0 0.2632 0.00433333 0 0.2754 0.00433333 0 0.2876 0.00433333 0 0.2998 0.00433333 0 0.312 0.00433333 0 0.3242 0.00433333 0 0.3364 0.00433333 0 0.3486 0.00433333 0 0.3608 0.00433333 0 0.373 0.00433333 0 0.19 0.00466667 0 0.2022 0.00466667 0 0.2144 0.00466667 0 0.2266 0.00466667 0 0.2388 0.00466667 0 0.251 0.00466667 0 0.2632 0.00466667 0 0.2754 0.00466667 0 0.2876 0.00466667 0 0.2998 0.00466667 0 0.312 0.00466667 0 0.3242 0.00466667 0 0.3364 0.00466667 0 0.3486 0.00466667 0 0.3608 0.00466667 0 0.373 0.00466667 0 0.19 0.005 0 0.2022 0.005 0 0.2144 0.005 0 0.2266 0.005 0 0.2388 0.005 0 0.251 0.005 0 0.2632 0.005 0 0.2754 0.005 0 0.2876 0.005 0 0.2998 0.005 0 0.312 0.005 0 0.3242 0.005 0 0.3364 0.005 0 0.3486 0.005 0 0.3608 0.005 0 0.373 0.005 0 
</DataArray>
</Points> 
</Piece> 
</StructuredGrid> 
</VTKFile> 
