<?xml version="1.0"?> 
<VTKFile type="StructuredGrid" version="0.1"> 
<StructuredGrid WholeExtent="0 15 0 15 0 0"> 
<Piece Extent="0 15 0 15 0 0"> 
<PointData>
<DataArray type="Float32" Name="E" format="ascii" NumberOfComponents="3"> 
1.56098e+06 0 0 1.00511e+06 -2.77767e-07 0 696036 2.04891e-08 0 511693 1.56462e-07 0 393188 -3.72529e-08 0 311276 1.08033e-07 0 250941 -8.9407e-08 0 204086 -3.72529e-08 0 166112 2.98023e-08 0 134237 2.98023e-08 0 106674 -8.9407e-08 0 82200.3 1.3411e-07 0 59925.9 -1.19209e-07 0 39164.3 5.96046e-08 0 19352.8 0 0 -5.96046e-08 1.19209e-06 0 119288 -458988 0 182679 -411196 0 200046 -351429 0 195912 -295462 0 182088 -248058 0 164296 -209584 0 145290 -178957 0 126368 -154797 0 108095 -135840 0 90669.2 -121052 0 74100.6 -109632 0 58305.4 -100976 0 43153.5 -94645.1 0 28493.4 -90326 0 14163.8 -87812.9 0 9.51695e-09 -86988.2 0 -34906.2 -371193 0 -18726.9 -322265 0 -2737.12 -290305 0 10253.3 -265267 0 19620.3 -243539 0 25611 -224042 0 28759.2 -206557 0 29634.9 -191086 0 28750.5 -177646 0 26532.1 -166216 0 23321.2 -156737 0 19386.1 -149132 0 14936 -143319 0 10136.1 -139225 0 5119.75 -136792 0 -5.68107e-08 -135985 0 -104155 -199254 0 -86509.9 -207810 0 -71286.8 -205839 0 -58175.2 -199849 0 -46964.2 -192549 0 -37476.2 -185040 0 -29539.3 -177793 0 -22979 -171033 0 -17619.7 -164887 0 -13288 -159439 0 -9815.86 -154749 0 -7042.61 -150863 0 -4815.83 -147811 0 -2990.98 -145618 0 -1430.11 -144297 0 8.82428e-08 -143855 0 -108406 -150376 0 -95948 -143483 0 -84794.4 -141056 0 -74597.5 -139934 0 -65230.4 -138964 0 -56633.7 -137819 0 -48761.3 -136471 0 -41562.2 -134992 0 -34977.7 -133471 0 -28941.1 -131995 0 -23380.7 -130636 0 -18220.5 -129450 0 -13382.3 -128484 0 -8786.6 -127771 0 -4352.78 -127333 0 -1.00583e-07 -127186 0 -89427.9 -81319.7 0 -82434 -88489.6 0 -75155.5 -92454.7 0 -67988.5 -94964.4 0 -61066.8 -96736.8 0 -54426.8 -98062.4 0 -48068.9 -99070.2 0 -41980 -99829.8 0 -36141.3 -100390 0 -30529.9 -100790 0 -25119.7 -101067 0 -19882 -101249 0 -14785.4 -101364 0 -9796.34 -101431 0 -4879.89 -101465 0 1.18278e-07 -101476 0 -68430.7 -56855 0 -63207.3 -58391.8 0 -58353.8 -60808.4 0 -53612.6 -63317.3 0 -48911.5 -65633.4 0 -44241.2 -67675.9 0 -39609.3 -69438.7 0 -35024.5 -70940 0 -30492.1 -72203.3 0 -26013.8 -73251.7 0 -21587.4 -74105 0 -17208.1 -74780.3 0 -12868.9 -75291.4 0 -8561.19 -75648.8 0 -4275.1 -75860.2 0 -1.02445e-07 -75930.1 0 -47828.7 -33410.7 0 -45282 -37042 0 -42376.2 -39852.6 0 -39314.6 -42224.5 0 -36172.9 -44308.5 0 -32980.8 -46161.5 0 -29751.8 -47806.1 0 -26494.4 -49253.3 0 -23215.1 -50510.7 0 -19919.5 -51584.8 0 -16612.1 -52481.8 0 -13296.8 -53207.2 0 -9976.09 -53766 0 -6652.2 -54162.1 0 -3326.5 -54398.6 0 1.22935e-07 -54477.3 0 -33431.6 -23107.1 0 -31445 -24758.8 0 -29514 -26516.3 0 -27537.4 -28217.5 0 -25489.5 -29800.9 0 -23370.9 -31246.3 0 -21189.4 -32548.4 0 -18954.3 -33707.2 0 -16674.1 -34724.3 0 -14356.4 -35601.6 0 -12008 -36340.7 0 -9634.77 -36943.3 0 -7242.38 -37410.6 0 -4835.93 -37743.5 0 -2420.25 -37943 0 -1.19209e-07 -38009.5 0 -22361.6 -14858.4 0 -21343.9 -16381.9 0 -20157 -17724 0 -18872.4 -18944 0 -17517.4 -20063 0 -16103.6 -21086.9 0 -14637.9 -22016.4 0 -13126 -22850.7 0 -11573.1 -23588.7 0 -9984.73 -24229.6 0 -8366.07 -24772.7 0 -6722.45 -25217.5 0 -5059.01 -25563.7 0 -3380.82 -25811.2 0 -1692.85 -25959.6 0 8.19564e-08 -26009.2 0 -15246.6 -10186.7 0 -14443.3 -11056.9 0 -13632.8 -11904.7 0 -12783.8 -12708.2 0 -11888.8 -13458 0 -10949.1 -14149.5 0 -9968.53 -14780 0 -8951.4 -15348 0 -7902.05 -15852 0 -6824.73 -16291 0 -5723.54 -16664 0 -4602.53 -16970.2 0 -3465.71 -17209 0 -2317.04 -17380 0 -1160.49 -17482.6 0 -4.84288e-08 -17516.9 0 -10262.7 -6785.16 0 -9798.76 -7375.61 0 -9270.42 -7930.76 0 -8698.92 -8450.87 0 -8092.7 -8935.12 0 -7455.85 -9382.26 0 -6791.18 -9790.98 0 -6101.26 -10160 0 -5388.69 -10488.3 0 -4656.18 -10774.7 0 -3906.5 -11018.5 0 -3142.47 -11218.9 0 -2366.93 -11375.4 0 -1582.76 -11487.5 0 -792.821 -11554.9 0 0 -11577.3 0 -7177.24 -4435.08 0 -6813.04 -4801.4 0 -6436.02 -5143.54 0 -6038.13 -5463.82 0 -5618.02 -5762.29 0 -5176.61 -6038.26 0 -4715.57 -6290.85 0 -4236.78 -6519.17 0 -3742.15 -6722.45 0 -3233.61 -6900.01 0 -2713.09 -7051.23 0 -2182.55 -7175.64 0 -1643.98 -7272.82 0 -1099.35 -7342.46 0 -550.687 -7384.33 0 1.49012e-08 -7398.3 0 -5215.67 -2710.25 0 -4966.74 -2902.98 0 -4693.36 -3092.4 0 -4401.13 -3272.78 0 -4092.55 -3441.71 0 -3769.14 -3598.06 0 -3432.13 -3741.17 0 -3082.73 -3870.54 0 -2722.19 -3985.73 0 -2351.81 -4086.36 0 -1972.95 -4172.08 0 -1586.96 -4242.62 0 -1195.25 -4297.74 0 -799.232 -4337.24 0 -400.337 -4360.99 0 1.49012e-08 -4368.92 0 -4172.05 -1270.99 0 -3960.8 -1371.62 0 -3737.76 -1459.8 0 -3502.31 -1540.48 0 -3254.82 -1615.19 0 -2996.03 -1684.21 0 -2726.83 -1747.42 0 -2448.17 -1804.6 0 -2161.02 -1855.53 0 -1866.38 -1900.04 0 -1565.29 -1937.97 0 -1258.77 -1969.17 0 -947.909 -1993.55 0 -633.766 -2011.02 0 -317.432 -2021.53 0 0 -2025.03 0 -3802.32 -1.90735e-06 0 -3601 1.91154e-07 0 -3394.47 -6.79865e-08 0 -3178.34 5.99772e-07 0 -2951.91 -5.7742e-07 0 -2715.63 3.50177e-07 0 -2470.29 -4.47035e-08 0 -2216.76 -3.57628e-07 0 -1955.91 4.76837e-07 0 -1688.61 -2.5332e-07 0 -1415.75 2.68221e-07 0 -1138.23 -4.17233e-07 0 -856.968 2.38419e-07 0 -572.884 -1.19209e-07 0 -286.914 -1.19209e-07 0 0 4.05312e-06 0 </DataArray> 
</PointData> 
<Points> 
<DataArray type="Float32" NumberOfComponents="3"> 
0.2525 0.035 0 0.2525 0.0356667 0 0.2525 0.0363333 0 0.2525 0.037 0 0.2525 0.0376667 0 0.2525 0.0383333 0 0.2525 0.039 0 0.2525 0.0396667 0 0.2525 0.0403333 0 0.2525 0.041 0 0.2525 0.0416667 0 0.2525 0.0423333 0 0.2525 0.043 0 0.2525 0.0436667 0 0.2525 0.0443333 0 0.2525 0.045 0 0.2558 0.0351867 0 0.2558 0.0358409 0 0.2558 0.0364951 0 0.2558 0.0371493 0 0.2558 0.0378036 0 0.2558 0.0384578 0 0.2558 0.039112 0 0.2558 0.0397662 0 0.2558 0.0404204 0 0.2558 0.0410747 0 0.2558 0.0417289 0 0.2558 0.0423831 0 0.2558 0.0430373 0 0.2558 0.0436916 0 0.2558 0.0443458 0 0.2558 0.045 0 0.2591 0.0353733 0 0.2591 0.0360151 0 0.2591 0.0366569 0 0.2591 0.0372987 0 0.2591 0.0379404 0 0.2591 0.0385822 0 0.2591 0.039224 0 0.2591 0.0398658 0 0.2591 0.0405076 0 0.2591 0.0411493 0 0.2591 0.0417911 0 0.2591 0.0424329 0 0.2591 0.0430747 0 0.2591 0.0437164 0 0.2591 0.0443582 0 0.2591 0.045 0 0.2624 0.03556 0 0.2624 0.0361893 0 0.2624 0.0368187 0 0.2624 0.037448 0 0.2624 0.0380773 0 0.2624 0.0387067 0 0.2624 0.039336 0 0.2624 0.0399653 0 0.2624 0.0405947 0 0.2624 0.041224 0 0.2624 0.0418533 0 0.2624 0.0424827 0 0.2624 0.043112 0 0.2624 0.0437413 0 0.2624 0.0443707 0 0.2624 0.045 0 0.2657 0.0357467 0 0.2657 0.0363636 0 0.2657 0.0369804 0 0.2657 0.0375973 0 0.2657 0.0382142 0 0.2657 0.0388311 0 0.2657 0.039448 0 0.2657 0.0400649 0 0.2657 0.0406818 0 0.2657 0.0412987 0 0.2657 0.0419156 0 0.2657 0.0425324 0 0.2657 0.0431493 0 0.2657 0.0437662 0 0.2657 0.0443831 0 0.2657 0.045 0 0.269 0.0359333 0 0.269 0.0365378 0 0.269 0.0371422 0 0.269 0.0377467 0 0.269 0.0383511 0 0.269 0.0389556 0 0.269 0.03956 0 0.269 0.0401644 0 0.269 0.0407689 0 0.269 0.0413733 0 0.269 0.0419778 0 0.269 0.0425822 0 0.269 0.0431867 0 0.269 0.0437911 0 0.269 0.0443956 0 0.269 0.045 0 0.2723 0.03612 0 0.2723 0.036712 0 0.2723 0.037304 0 0.2723 0.037896 0 0.2723 0.038488 0 0.2723 0.03908 0 0.2723 0.039672 0 0.2723 0.040264 0 0.2723 0.040856 0 0.2723 0.041448 0 0.2723 0.04204 0 0.2723 0.042632 0 0.2723 0.043224 0 0.2723 0.043816 0 0.2723 0.044408 0 0.2723 0.045 0 0.2756 0.0363067 0 0.2756 0.0368862 0 0.2756 0.0374658 0 0.2756 0.0380453 0 0.2756 0.0386249 0 0.2756 0.0392044 0 0.2756 0.039784 0 0.2756 0.0403636 0 0.2756 0.0409431 0 0.2756 0.0415227 0 0.2756 0.0421022 0 0.2756 0.0426818 0 0.2756 0.0432613 0 0.2756 0.0438409 0 0.2756 0.0444204 0 0.2756 0.045 0 0.2789 0.0364933 0 0.2789 0.0370604 0 0.2789 0.0376276 0 0.2789 0.0381947 0 0.2789 0.0387618 0 0.2789 0.0393289 0 0.2789 0.039896 0 0.2789 0.0404631 0 0.2789 0.0410302 0 0.2789 0.0415973 0 0.2789 0.0421644 0 0.2789 0.0427316 0 0.2789 0.0432987 0 0.2789 0.0438658 0 0.2789 0.0444329 0 0.2789 0.045 0 0.2822 0.03668 0 0.2822 0.0372347 0 0.2822 0.0377893 0 0.2822 0.038344 0 0.2822 0.0388987 0 0.2822 0.0394533 0 0.2822 0.040008 0 0.2822 0.0405627 0 0.2822 0.0411173 0 0.2822 0.041672 0 0.2822 0.0422267 0 0.2822 0.0427813 0 0.2822 0.043336 0 0.2822 0.0438907 0 0.2822 0.0444453 0 0.2822 0.045 0 0.2855 0.0368667 0 0.2855 0.0374089 0 0.2855 0.0379511 0 0.2855 0.0384933 0 0.2855 0.0390356 0 0.2855 0.0395778 0 0.2855 0.04012 0 0.2855 0.0406622 0 0.2855 0.0412044 0 0.2855 0.0417467 0 0.2855 0.0422889 0 0.2855 0.0428311 0 0.2855 0.0433733 0 0.2855 0.0439156 0 0.2855 0.0444578 0 0.2855 0.045 0 0.2888 0.0370533 0 0.2888 0.0375831 0 0.2888 0.0381129 0 0.2888 0.0386427 0 0.2888 0.0391724 0 0.2888 0.0397022 0 0.2888 0.040232 0 0.2888 0.0407618 0 0.2888 0.0412916 0 0.2888 0.0418213 0 0.2888 0.0423511 0 0.2888 0.0428809 0 0.2888 0.0434107 0 0.2888 0.0439404 0 0.2888 0.0444702 0 0.2888 0.045 0 0.2921 0.03724 0 0.2921 0.0377573 0 0.2921 0.0382747 0 0.2921 0.038792 0 0.2921 0.0393093 0 0.2921 0.0398267 0 0.2921 0.040344 0 0.2921 0.0408613 0 0.2921 0.0413787 0 0.2921 0.041896 0 0.2921 0.0424133 0 0.2921 0.0429307 0 0.2921 0.043448 0 0.2921 0.0439653 0 0.2921 0.0444827 0 0.2921 0.045 0 0.2954 0.0374267 0 0.2954 0.0379316 0 0.2954 0.0384364 0 0.2954 0.0389413 0 0.2954 0.0394462 0 0.2954 0.0399511 0 0.2954 0.040456 0 0.2954 0.0409609 0 0.2954 0.0414658 0 0.2954 0.0419707 0 0.2954 0.0424756 0 0.2954 0.0429804 0 0.2954 0.0434853 0 0.2954 0.0439902 0 0.2954 0.0444951 0 0.2954 0.045 0 0.2987 0.0376133 0 0.2987 0.0381058 0 0.2987 0.0385982 0 0.2987 0.0390907 0 0.2987 0.0395831 0 0.2987 0.0400756 0 0.2987 0.040568 0 0.2987 0.0410604 0 0.2987 0.0415529 0 0.2987 0.0420453 0 0.2987 0.0425378 0 0.2987 0.0430302 0 0.2987 0.0435227 0 0.2987 0.0440151 0 0.2987 0.0445076 0 0.2987 0.045 0 0.302 0.0378 0 0.302 0.03828 0 0.302 0.03876 0 0.302 0.03924 0 0.302 0.03972 0 0.302 0.0402 0 0.302 0.04068 0 0.302 0.04116 0 0.302 0.04164 0 0.302 0.04212 0 0.302 0.0426 0 0.302 0.04308 0 0.302 0.04356 0 0.302 0.04404 0 0.302 0.04452 0 0.302 0.045 0 
</DataArray>
</Points> 
</Piece> 
</StructuredGrid> 
</VTKFile> 
