<?xml version="1.0"?> 
<VTKFile type="StructuredGrid" version="0.1"> 
<StructuredGrid WholeExtent="0 15 0 15 0 0"> 
<Piece Extent="0 15 0 15 0 0"> 
<PointData>
<DataArray type="Float32" Name="E" format="ascii" NumberOfComponents="3"> 
301981 -21.8009 0 295856 56521.7 0 277778 110231 0 248670 158392 0 210163 198444 0 164643 228244 0 115191 246403 0 65324.2 252630 0 18423.8 247944 0 -22684.2 234526 0 -56614.7 215307 0 -82524.5 193295 0 -101986 171186 0 -114313 151159 0 -124356 134667 0 -150697 131583 0 274977 -19.4223 0 269518 50757.8 0 253422 98996.3 0 227553 142296 0 193394 178437 0 153054 205618 0 109183 222705 0 64721.2 229489 0 22512.2 226800 0 -15172.9 216409 0 -46901.4 200674 0 -72310.4 182119 0 -91659.8 163034 0 -106188 145318 0 -117092 130404 0 -126423 116488 0 250713 -17.3637 0 245850 45623.7 0 231523 89001.9 0 208522 127999 0 178182 160688 0 142356 185540 0 103318 201613 0 63551 208741 0 25428.1 207602 0 -9125.32 199626 0 -38887.5 186745 0 -63413.7 171055 0 -82956.9 154527 0 -98283.9 138810 0 -110569 125000 0 -120360 112803 0 228893 -15.4859 0 224562 41051.3 0 211806 80108.2 0 191340 115288 0 164353 144915 0 132466 167677 0 97633 182781 0 61956.9 190082 0 27435.2 190126 0 -4301.76 184075 0 -32189.8 173514 0 -55797.8 160194 0 -75277.6 145804 0 -91213.6 131791 0 -104448 119161 0 -115470 108688 0 209252 -13.7504 0 205393 36978.2 0 194028 72189.3 0 175799 103974 0 151757 130871 0 123316 151746 0 92156.3 165920 0 60064.4 173254 0 28731.3 174185 0 -457.306 169656 0 -26576.8 160970 0 -49226.2 149593 0 -68489 136976 0 -84817.3 124402 0 -98842.9 112875 0 -111141 103157 0 191551 -12.1942 0 188110 33347.8 0 177977 65132.1 0 161721 93890.7 0 140269 118344 0 114850 137506 0 86910.1 150783 0 57974.1 158040 0 29478.9 159618 0 2606.17 156281 0 -21844.5 149098 0 -43510.1 139298 0 -62440.5 128130 0 -78991.4 116746 0 -93673.1 106118 0 -107046 97041.7 0 175582 -10.7963 0 172510 30109.4 0 163466 58836.1 0 148951 84890.9 0 129778 107150 0 107016 124750 0 81910.6 137165 0 55766.9 144258 0 29810.7 146289 0 5052.27 143871 0 -17819 137880 0 -38486.7 129342 0 -56989.4 119332 0 -73634.5 108896 0 -88838.5 98979.8 0 -103026 90298.8 0 161157 -9.55676 0 158413 27217.5 0 150330 53212.4 0 137352 76846.4 0 120189 97129.6 0 99769.2 113301 0 77168.6 124889 0 53507 131752 0 29834.3 134080 0 7016.72 132359 0 -14354.2 127300 0 -34011.1 119752 0 -52006.8 110638 0 -68634.7 100911 0 -84262.2 91514.4 0 -99141.7 83204.9 0 148111 -8.45902 0 145657 24632.3 0 138425 48182.8 0 126805 69645.3 0 111417 88144.9 0 93069.1 103006 0 72690.1 113803 0 51245 120387 0 29636.9 122889 0 8610.71 121685 0 -11326.5 117344 0 -29957.8 110555 0 -47367.7 102097 0 -63881.8 92838.8 0 -79869.5 83764 0 -95393 75762.9 0 136301 -7.49389 0 134103 22318.4 0 127624 43678.7 0 117206 63189.9 0 103389 80076.3 0 86877.7 93735.5 0 68476.4 103778 0 49019.6 110049 0 29287.6 112629 0 9924.69 111799 0 -8633.52 108001 0 -26216.7 101778 0 -42954.4 93760.2 0 -59252.1 84721.5 0 -75577.8 75723.9 0 -91855.2 67990.8 0 125595 -6.64167 0 123624 20244.7 0 117813 39639.9 0 108460 57395 0 96037.9 72820.1 0 81159.7 85375.2 0 64525.2 94701.8 0 46859.3 100640 0 28840.4 103225 0 11030.5 102659 0 -6192.47 99266.1 0 -22694.6 93451.9 0 -38655 85685.4 0 -54601 76601.9 0 -71266 67349.5 0 -88589.8 59729.4 0 115881 -5.90141 0 114111 18384.1 0 108892 36013.7 0 100485 52186.3 0 89302.9 66286.3 0 75881.3 77827.3 0 60830.8 86478.1 0 44784.1 92074.3 0 28336.1 94613 0 11983 94226.3 0 -3939.46 91138.1 0 -19318.4 85617.4 0 -34365.8 77951.4 0 -49757.8 68550.7 0 -66718.8 58540.4 0 -85645.4 50753.2 0 107056 -5.234 0 105465 16712.6 0 100773 32754.2 0 93206.7 47498.9 0 83130 60396.2 0 71010.9 71006.6 0 57384.3 79022.3 0 42806.6 84276.6 0 27804 86734.5 0 12821.7 86470.6 0 -1829.97 83617.9 0 -16038.7 78321.6 0 -30004.8 70663.5 0 -44523.4 60705.4 0 -61539.5 49187.3 0 -83098.5 40343.1 0 99030 -4.67556 0 97599.2 15209.4 0 93375.2 29820.9 0 86559.1 43276.1 0 77469.6 55081.4 0 66517.8 64838.3 0 54175.1 72260.7 0 40933 77180.4 0 27264 79539.2 0 13571.3 79360.8 0 164.297 76709.3 0 -12840.1 71611.6 0 -25523.7 63958.1 0 -38727.5 53349.1 0 -54963.6 39237.9 0 -81021.9 27253.7 0 91723.5 -4.1746 0 90434.8 13855.9 0 86628.6 27178.5 0 80482.4 39468.1 0 72276.3 50281.7 0 62372.9 59256.5 0 51190.4 66128.4 0 39163.7 70726 0 26728.6 72980.8 0 14242.6 72866.1 0 2056.04 70412.3 0 -9740.89 65528.4 0 -20946.8 57983.9 0 -32323.4 46938.4 0 -45699.8 29425.1 0 -79452.8 5858.14 0 85064.9 -3.422 0 83902.8 12636.3 0 80471 24795.5 0 74922.9 36031.8 0 67508.8 45942.7 0 58551.3 54206.3 0 48408.1 60561 0 37517.9 64870.1 0 26150.5 66995.9 0 14955.4 66986.7 0 3594.19 64671.6 0 -6287.76 60148.6 0 -17336.7 52848.9 0 -23910.7 41700.1 0 -34585.7 24743 0 -83915.3 -52487.9 0 </DataArray> 
</PointData> 
<Points> 
<DataArray type="Float32" NumberOfComponents="3"> 
0.406 0 0 0.406 0.00133333 0 0.406 0.00266667 0 0.406 0.004 0 0.406 0.00533333 0 0.406 0.00666667 0 0.406 0.008 0 0.406 0.00933333 0 0.406 0.0106667 0 0.406 0.012 0 0.406 0.0133333 0 0.406 0.0146667 0 0.406 0.016 0 0.406 0.0173333 0 0.406 0.0186667 0 0.406 0.02 0 0.406667 0 0 0.406667 0.00133333 0 0.406667 0.00266667 0 0.406667 0.004 0 0.406667 0.00533333 0 0.406667 0.00666667 0 0.406667 0.008 0 0.406667 0.00933333 0 0.406667 0.0106667 0 0.406667 0.012 0 0.406667 0.0133333 0 0.406667 0.0146667 0 0.406667 0.016 0 0.406667 0.0173333 0 0.406667 0.0186667 0 0.406667 0.02 0 0.407333 0 0 0.407333 0.00133333 0 0.407333 0.00266667 0 0.407333 0.004 0 0.407333 0.00533333 0 0.407333 0.00666667 0 0.407333 0.008 0 0.407333 0.00933333 0 0.407333 0.0106667 0 0.407333 0.012 0 0.407333 0.0133333 0 0.407333 0.0146667 0 0.407333 0.016 0 0.407333 0.0173333 0 0.407333 0.0186667 0 0.407333 0.02 0 0.408 0 0 0.408 0.00133333 0 0.408 0.00266667 0 0.408 0.004 0 0.408 0.00533333 0 0.408 0.00666667 0 0.408 0.008 0 0.408 0.00933333 0 0.408 0.0106667 0 0.408 0.012 0 0.408 0.0133333 0 0.408 0.0146667 0 0.408 0.016 0 0.408 0.0173333 0 0.408 0.0186667 0 0.408 0.02 0 0.408667 0 0 0.408667 0.00133333 0 0.408667 0.00266667 0 0.408667 0.004 0 0.408667 0.00533333 0 0.408667 0.00666667 0 0.408667 0.008 0 0.408667 0.00933333 0 0.408667 0.0106667 0 0.408667 0.012 0 0.408667 0.0133333 0 0.408667 0.0146667 0 0.408667 0.016 0 0.408667 0.0173333 0 0.408667 0.0186667 0 0.408667 0.02 0 0.409333 0 0 0.409333 0.00133333 0 0.409333 0.00266667 0 0.409333 0.004 0 0.409333 0.00533333 0 0.409333 0.00666667 0 0.409333 0.008 0 0.409333 0.00933333 0 0.409333 0.0106667 0 0.409333 0.012 0 0.409333 0.0133333 0 0.409333 0.0146667 0 0.409333 0.016 0 0.409333 0.0173333 0 0.409333 0.0186667 0 0.409333 0.02 0 0.41 0 0 0.41 0.00133333 0 0.41 0.00266667 0 0.41 0.004 0 0.41 0.00533333 0 0.41 0.00666667 0 0.41 0.008 0 0.41 0.00933333 0 0.41 0.0106667 0 0.41 0.012 0 0.41 0.0133333 0 0.41 0.0146667 0 0.41 0.016 0 0.41 0.0173333 0 0.41 0.0186667 0 0.41 0.02 0 0.410667 0 0 0.410667 0.00133333 0 0.410667 0.00266667 0 0.410667 0.004 0 0.410667 0.00533333 0 0.410667 0.00666667 0 0.410667 0.008 0 0.410667 0.00933333 0 0.410667 0.0106667 0 0.410667 0.012 0 0.410667 0.0133333 0 0.410667 0.0146667 0 0.410667 0.016 0 0.410667 0.0173333 0 0.410667 0.0186667 0 0.410667 0.02 0 0.411333 0 0 0.411333 0.00133333 0 0.411333 0.00266667 0 0.411333 0.004 0 0.411333 0.00533333 0 0.411333 0.00666667 0 0.411333 0.008 0 0.411333 0.00933333 0 0.411333 0.0106667 0 0.411333 0.012 0 0.411333 0.0133333 0 0.411333 0.0146667 0 0.411333 0.016 0 0.411333 0.0173333 0 0.411333 0.0186667 0 0.411333 0.02 0 0.412 0 0 0.412 0.00133333 0 0.412 0.00266667 0 0.412 0.004 0 0.412 0.00533333 0 0.412 0.00666667 0 0.412 0.008 0 0.412 0.00933333 0 0.412 0.0106667 0 0.412 0.012 0 0.412 0.0133333 0 0.412 0.0146667 0 0.412 0.016 0 0.412 0.0173333 0 0.412 0.0186667 0 0.412 0.02 0 0.412667 0 0 0.412667 0.00133333 0 0.412667 0.00266667 0 0.412667 0.004 0 0.412667 0.00533333 0 0.412667 0.00666667 0 0.412667 0.008 0 0.412667 0.00933333 0 0.412667 0.0106667 0 0.412667 0.012 0 0.412667 0.0133333 0 0.412667 0.0146667 0 0.412667 0.016 0 0.412667 0.0173333 0 0.412667 0.0186667 0 0.412667 0.02 0 0.413333 0 0 0.413333 0.00133333 0 0.413333 0.00266667 0 0.413333 0.004 0 0.413333 0.00533333 0 0.413333 0.00666667 0 0.413333 0.008 0 0.413333 0.00933333 0 0.413333 0.0106667 0 0.413333 0.012 0 0.413333 0.0133333 0 0.413333 0.0146667 0 0.413333 0.016 0 0.413333 0.0173333 0 0.413333 0.0186667 0 0.413333 0.02 0 0.414 0 0 0.414 0.00133333 0 0.414 0.00266667 0 0.414 0.004 0 0.414 0.00533333 0 0.414 0.00666667 0 0.414 0.008 0 0.414 0.00933333 0 0.414 0.0106667 0 0.414 0.012 0 0.414 0.0133333 0 0.414 0.0146667 0 0.414 0.016 0 0.414 0.0173333 0 0.414 0.0186667 0 0.414 0.02 0 0.414667 0 0 0.414667 0.00133333 0 0.414667 0.00266667 0 0.414667 0.004 0 0.414667 0.00533333 0 0.414667 0.00666667 0 0.414667 0.008 0 0.414667 0.00933333 0 0.414667 0.0106667 0 0.414667 0.012 0 0.414667 0.0133333 0 0.414667 0.0146667 0 0.414667 0.016 0 0.414667 0.0173333 0 0.414667 0.0186667 0 0.414667 0.02 0 0.415333 0 0 0.415333 0.00133333 0 0.415333 0.00266667 0 0.415333 0.004 0 0.415333 0.00533333 0 0.415333 0.00666667 0 0.415333 0.008 0 0.415333 0.00933333 0 0.415333 0.0106667 0 0.415333 0.012 0 0.415333 0.0133333 0 0.415333 0.0146667 0 0.415333 0.016 0 0.415333 0.0173333 0 0.415333 0.0186667 0 0.415333 0.02 0 0.416 0 0 0.416 0.00133333 0 0.416 0.00266667 0 0.416 0.004 0 0.416 0.00533333 0 0.416 0.00666667 0 0.416 0.008 0 0.416 0.00933333 0 0.416 0.0106667 0 0.416 0.012 0 0.416 0.0133333 0 0.416 0.0146667 0 0.416 0.016 0 0.416 0.0173333 0 0.416 0.0186667 0 0.416 0.02 0 
</DataArray>
</Points> 
</Piece> 
</StructuredGrid> 
</VTKFile> 
