<?xml version="1.0"?> 
<VTKFile type="StructuredGrid" version="0.1"> 
<StructuredGrid WholeExtent="0 15 0 15 0 0"> 
<Piece Extent="0 15 0 15 0 0"> 
<PointData>
<DataArray type="Float32" Name="E" format="ascii" NumberOfComponents="3"> 
-1.01869e+06 0 0 -1.01865e+06 0 0 -1.01852e+06 0 0 -1.01832e+06 0 0 -1.01803e+06 0 0 -1.01766e+06 0 0 -1.01721e+06 0 0 -1.01668e+06 0 0 -1.01607e+06 0 0 -1.01538e+06 0 0 -1.0146e+06 0 0 -1.01375e+06 0 0 -1.01281e+06 0 0 -1.0118e+06 0 0 -1.0107e+06 0 0 -1.00953e+06 0 0 -1.01881e+06 -0.000384976 0 -1.01877e+06 139.689 0 -1.01864e+06 279.327 0 -1.01844e+06 418.863 0 -1.01815e+06 558.247 0 -1.01778e+06 697.427 0 -1.01733e+06 836.351 0 -1.0168e+06 974.966 0 -1.01619e+06 1113.22 0 -1.01549e+06 1251.07 0 -1.01472e+06 1388.48 0 -1.01386e+06 1525.4 0 -1.01293e+06 1661.83 0 -1.01191e+06 1797.79 0 -1.01082e+06 1933.35 0 -1.00964e+06 2068.64 0 -1.01916e+06 -0.000763604 0 -1.01912e+06 279.524 0 -1.019e+06 558.947 0 -1.01879e+06 838.168 0 -1.01851e+06 1117.09 0 -1.01814e+06 1395.6 0 -1.01769e+06 1673.6 0 -1.01715e+06 1950.98 0 -1.01654e+06 2227.63 0 -1.01584e+06 2503.46 0 -1.01507e+06 2778.36 0 -1.01421e+06 3052.25 0 -1.01327e+06 3325.08 0 -1.01226e+06 3596.83 0 -1.01116e+06 3867.56 0 -1.00999e+06 4137.44 0 -1.01976e+06 -0.00112647 0 -1.01972e+06 419.649 0 -1.01959e+06 839.149 0 -1.01939e+06 1258.35 0 -1.0191e+06 1677.11 0 -1.01873e+06 2095.25 0 -1.01828e+06 2512.64 0 -1.01774e+06 2929.09 0 -1.01713e+06 3344.45 0 -1.01643e+06 3758.54 0 -1.01565e+06 4171.19 0 -1.01479e+06 4582.23 0 -1.01385e+06 4991.52 0 -1.01283e+06 5398.93 0 -1.01174e+06 5804.39 0 -1.01056e+06 6207.93 0 -1.02059e+06 -0.00145945 0 -1.02055e+06 560.203 0 -1.02043e+06 1120.21 0 -1.02022e+06 1679.84 0 -1.01993e+06 2238.88 0 -1.01956e+06 2797.13 0 -1.01911e+06 3354.37 0 -1.01857e+06 3910.39 0 -1.01795e+06 4464.95 0 -1.01725e+06 5017.81 0 -1.01647e+06 5568.69 0 -1.01561e+06 6117.33 0 -1.01467e+06 6663.45 0 -1.01364e+06 7206.75 0 -1.01254e+06 7746.94 0 -1.01136e+06 8283.75 0 -1.02167e+06 -0.00174441 0 -1.02163e+06 701.312 0 -1.0215e+06 1402.39 0 -1.02129e+06 2103.01 0 -1.021e+06 2802.93 0 -1.02063e+06 3501.9 0 -1.02018e+06 4199.65 0 -1.01964e+06 4895.92 0 -1.01902e+06 5590.4 0 -1.01831e+06 6282.78 0 -1.01753e+06 6972.69 0 -1.01666e+06 7659.76 0 -1.01571e+06 8343.56 0 -1.01468e+06 9023.61 0 -1.01357e+06 9699.36 0 -1.01238e+06 10370.2 0 -1.02298e+06 -0.00196194 0 -1.02294e+06 843.085 0 -1.02282e+06 1685.91 0 -1.02261e+06 2528.22 0 -1.02232e+06 3369.73 0 -1.02194e+06 4210.17 0 -1.02148e+06 5049.24 0 -1.02094e+06 5886.61 0 -1.02032e+06 6721.94 0 -1.01961e+06 7554.85 0 -1.01882e+06 8384.91 0 -1.01795e+06 9211.64 0 -1.01699e+06 10034.5 0 -1.01595e+06 10852.9 0 -1.01484e+06 11666 0 -1.01364e+06 12472.9 0 -1.02454e+06 -0.00209518 0 -1.0245e+06 985.605 0 -1.02437e+06 1970.93 0 -1.02416e+06 2955.7 0 -1.02387e+06 3939.63 0 -1.02349e+06 4922.4 0 -1.02303e+06 5903.71 0 -1.02249e+06 6883.19 0 -1.02186e+06 7860.47 0 -1.02115e+06 8835.14 0 -1.02035e+06 9806.72 0 -1.01947e+06 10774.7 0 -1.01851e+06 11738.4 0 -1.01746e+06 12697.2 0 -1.01633e+06 13650.2 0 -1.01512e+06 14596.5 0 -1.02634e+06 -0.00213307 0 -1.0263e+06 1128.92 0 -1.02617e+06 2257.56 0 -1.02596e+06 3385.64 0 -1.02567e+06 4512.85 0 -1.02529e+06 5638.89 0 -1.02482e+06 6763.43 0 -1.02428e+06 7886.11 0 -1.02364e+06 9006.56 0 -1.02293e+06 10124.3 0 -1.02212e+06 11239 0 -1.02124e+06 12349.9 0 -1.02027e+06 13456.6 0 -1.01921e+06 14558.2 0 -1.01807e+06 15654 0 -1.01685e+06 16743 0 -1.02839e+06 -0.0020723 0 -1.02835e+06 1273.05 0 -1.02822e+06 2545.83 0 -1.02801e+06 3818.06 0 -1.02771e+06 5089.45 0 -1.02733e+06 6359.7 0 -1.02686e+06 7628.5 0 -1.02631e+06 8895.5 0 -1.02567e+06 10160.3 0 -1.02495e+06 11422.6 0 -1.02414e+06 12681.8 0 -1.02325e+06 13937.5 0 -1.02227e+06 15189.1 0 -1.02121e+06 16436 0 -1.02006e+06 17677.4 0 -1.01882e+06 18912.5 0 -1.03068e+06 -0.00191714 0 -1.03064e+06 1417.97 0 -1.03051e+06 2835.69 0 -1.0303e+06 4252.9 0 -1.03e+06 5669.33 0 -1.02961e+06 7084.71 0 -1.02915e+06 8498.76 0 -1.02859e+06 9911.15 0 -1.02795e+06 11321.5 0 -1.02722e+06 12729.6 0 -1.02641e+06 14134.9 0 -1.02551e+06 15537 0 -1.02453e+06 16935.4 0 -1.02345e+06 18329.6 0 -1.02229e+06 19718.9 0 -1.02105e+06 21102.9 0 -1.03322e+06 -0.00167775 0 -1.03318e+06 1563.62 0 -1.03305e+06 3127.02 0 -1.03284e+06 4689.97 0 -1.03254e+06 6252.24 0 -1.03215e+06 7813.6 0 -1.03168e+06 9373.79 0 -1.03112e+06 10932.5 0 -1.03048e+06 12489.6 0 -1.02974e+06 14044.6 0 -1.02893e+06 15597.2 0 -1.02802e+06 17147 0 -1.02703e+06 18693.8 0 -1.02595e+06 20237 0 -1.02479e+06 21776.2 0 -1.02353e+06 23311 0 -1.03601e+06 -0.00136761 0 -1.03597e+06 1709.91 0 -1.03584e+06 3419.63 0 -1.03562e+06 5128.99 0 -1.03532e+06 6837.8 0 -1.03493e+06 8545.87 0 -1.03446e+06 10253 0 -1.0339e+06 11958.9 0 -1.03325e+06 13663.5 0 -1.03252e+06 15366.4 0 -1.0317e+06 17067.4 0 -1.03079e+06 18766.2 0 -1.02979e+06 20462.5 0 -1.02871e+06 22156 0 -1.02753e+06 23846.4 0 -1.02627e+06 25533.4 0 -1.03905e+06 -0.00100091 0 -1.039e+06 1856.71 0 -1.03888e+06 3713.29 0 -1.03866e+06 5569.61 0 -1.03836e+06 7425.52 0 -1.03797e+06 9280.88 0 -1.03749e+06 11135.5 0 -1.03693e+06 12989.4 0 -1.03628e+06 14842.1 0 -1.03554e+06 16693.7 0 -1.03472e+06 18543.9 0 -1.03381e+06 20392.5 0 -1.03281e+06 22239.3 0 -1.03172e+06 24084 0 -1.03054e+06 25926.6 0 -1.02927e+06 27766.7 0 -1.04234e+06 -0.000590468 0 -1.04229e+06 2003.9 0 -1.04216e+06 4007.72 0 -1.04195e+06 6011.39 0 -1.04164e+06 8014.81 0 -1.04125e+06 10017.9 0 -1.04078e+06 12020.6 0 -1.04021e+06 14022.8 0 -1.03956e+06 16024.3 0 -1.03883e+06 18025.1 0 -1.038e+06 20025.1 0 -1.03708e+06 22024.1 0 -1.03608e+06 24021.9 0 -1.03499e+06 26018.6 0 -1.03381e+06 28013.8 0 -1.03254e+06 30007.6 0 -1.04588e+06 -0.000146404 0 -1.04583e+06 2151.31 0 -1.0457e+06 4302.61 0 -1.04549e+06 6453.86 0 -1.04518e+06 8605.05 0 -1.04479e+06 10756.2 0 -1.04432e+06 12907.1 0 -1.04375e+06 15058 0 -1.0431e+06 17208.6 0 -1.04236e+06 19359 0 -1.04153e+06 21509.1 0 -1.04062e+06 23658.8 0 -1.03961e+06 25808.2 0 -1.03852e+06 27957.1 0 -1.03734e+06 30105.5 0 -1.03606e+06 32253.2 0 </DataArray> 
</PointData> 
<Points> 
<DataArray type="Float32" NumberOfComponents="3"> 
0 0 0 0 0.0018 0 0 0.0036 0 0 0.0054 0 0 0.0072 0 0 0.009 0 0 0.0108 0 0 0.0126 0 0 0.0144 0 0 0.0162 0 0 0.018 0 0 0.0198 0 0 0.0216 0 0 0.0234 0 0 0.0252 0 0 0.027 0 0.00306667 0 0 0.00306667 0.0018 0 0.00306667 0.0036 0 0.00306667 0.0054 0 0.00306667 0.0072 0 0.00306667 0.009 0 0.00306667 0.0108 0 0.00306667 0.0126 0 0.00306667 0.0144 0 0.00306667 0.0162 0 0.00306667 0.018 0 0.00306667 0.0198 0 0.00306667 0.0216 0 0.00306667 0.0234 0 0.00306667 0.0252 0 0.00306667 0.027 0 0.00613333 0 0 0.00613333 0.0018 0 0.00613333 0.0036 0 0.00613333 0.0054 0 0.00613333 0.0072 0 0.00613333 0.009 0 0.00613333 0.0108 0 0.00613333 0.0126 0 0.00613333 0.0144 0 0.00613333 0.0162 0 0.00613333 0.018 0 0.00613333 0.0198 0 0.00613333 0.0216 0 0.00613333 0.0234 0 0.00613333 0.0252 0 0.00613333 0.027 0 0.0092 0 0 0.0092 0.0018 0 0.0092 0.0036 0 0.0092 0.0054 0 0.0092 0.0072 0 0.0092 0.009 0 0.0092 0.0108 0 0.0092 0.0126 0 0.0092 0.0144 0 0.0092 0.0162 0 0.0092 0.018 0 0.0092 0.0198 0 0.0092 0.0216 0 0.0092 0.0234 0 0.0092 0.0252 0 0.0092 0.027 0 0.0122667 0 0 0.0122667 0.0018 0 0.0122667 0.0036 0 0.0122667 0.0054 0 0.0122667 0.0072 0 0.0122667 0.009 0 0.0122667 0.0108 0 0.0122667 0.0126 0 0.0122667 0.0144 0 0.0122667 0.0162 0 0.0122667 0.018 0 0.0122667 0.0198 0 0.0122667 0.0216 0 0.0122667 0.0234 0 0.0122667 0.0252 0 0.0122667 0.027 0 0.0153333 0 0 0.0153333 0.0018 0 0.0153333 0.0036 0 0.0153333 0.0054 0 0.0153333 0.0072 0 0.0153333 0.009 0 0.0153333 0.0108 0 0.0153333 0.0126 0 0.0153333 0.0144 0 0.0153333 0.0162 0 0.0153333 0.018 0 0.0153333 0.0198 0 0.0153333 0.0216 0 0.0153333 0.0234 0 0.0153333 0.0252 0 0.0153333 0.027 0 0.0184 0 0 0.0184 0.0018 0 0.0184 0.0036 0 0.0184 0.0054 0 0.0184 0.0072 0 0.0184 0.009 0 0.0184 0.0108 0 0.0184 0.0126 0 0.0184 0.0144 0 0.0184 0.0162 0 0.0184 0.018 0 0.0184 0.0198 0 0.0184 0.0216 0 0.0184 0.0234 0 0.0184 0.0252 0 0.0184 0.027 0 0.0214667 0 0 0.0214667 0.0018 0 0.0214667 0.0036 0 0.0214667 0.0054 0 0.0214667 0.0072 0 0.0214667 0.009 0 0.0214667 0.0108 0 0.0214667 0.0126 0 0.0214667 0.0144 0 0.0214667 0.0162 0 0.0214667 0.018 0 0.0214667 0.0198 0 0.0214667 0.0216 0 0.0214667 0.0234 0 0.0214667 0.0252 0 0.0214667 0.027 0 0.0245333 0 0 0.0245333 0.0018 0 0.0245333 0.0036 0 0.0245333 0.0054 0 0.0245333 0.0072 0 0.0245333 0.009 0 0.0245333 0.0108 0 0.0245333 0.0126 0 0.0245333 0.0144 0 0.0245333 0.0162 0 0.0245333 0.018 0 0.0245333 0.0198 0 0.0245333 0.0216 0 0.0245333 0.0234 0 0.0245333 0.0252 0 0.0245333 0.027 0 0.0276 0 0 0.0276 0.0018 0 0.0276 0.0036 0 0.0276 0.0054 0 0.0276 0.0072 0 0.0276 0.009 0 0.0276 0.0108 0 0.0276 0.0126 0 0.0276 0.0144 0 0.0276 0.0162 0 0.0276 0.018 0 0.0276 0.0198 0 0.0276 0.0216 0 0.0276 0.0234 0 0.0276 0.0252 0 0.0276 0.027 0 0.0306667 0 0 0.0306667 0.0018 0 0.0306667 0.0036 0 0.0306667 0.0054 0 0.0306667 0.0072 0 0.0306667 0.009 0 0.0306667 0.0108 0 0.0306667 0.0126 0 0.0306667 0.0144 0 0.0306667 0.0162 0 0.0306667 0.018 0 0.0306667 0.0198 0 0.0306667 0.0216 0 0.0306667 0.0234 0 0.0306667 0.0252 0 0.0306667 0.027 0 0.0337333 0 0 0.0337333 0.0018 0 0.0337333 0.0036 0 0.0337333 0.0054 0 0.0337333 0.0072 0 0.0337333 0.009 0 0.0337333 0.0108 0 0.0337333 0.0126 0 0.0337333 0.0144 0 0.0337333 0.0162 0 0.0337333 0.018 0 0.0337333 0.0198 0 0.0337333 0.0216 0 0.0337333 0.0234 0 0.0337333 0.0252 0 0.0337333 0.027 0 0.0368 0 0 0.0368 0.0018 0 0.0368 0.0036 0 0.0368 0.0054 0 0.0368 0.0072 0 0.0368 0.009 0 0.0368 0.0108 0 0.0368 0.0126 0 0.0368 0.0144 0 0.0368 0.0162 0 0.0368 0.018 0 0.0368 0.0198 0 0.0368 0.0216 0 0.0368 0.0234 0 0.0368 0.0252 0 0.0368 0.027 0 0.0398667 0 0 0.0398667 0.0018 0 0.0398667 0.0036 0 0.0398667 0.0054 0 0.0398667 0.0072 0 0.0398667 0.009 0 0.0398667 0.0108 0 0.0398667 0.0126 0 0.0398667 0.0144 0 0.0398667 0.0162 0 0.0398667 0.018 0 0.0398667 0.0198 0 0.0398667 0.0216 0 0.0398667 0.0234 0 0.0398667 0.0252 0 0.0398667 0.027 0 0.0429333 0 0 0.0429333 0.0018 0 0.0429333 0.0036 0 0.0429333 0.0054 0 0.0429333 0.0072 0 0.0429333 0.009 0 0.0429333 0.0108 0 0.0429333 0.0126 0 0.0429333 0.0144 0 0.0429333 0.0162 0 0.0429333 0.018 0 0.0429333 0.0198 0 0.0429333 0.0216 0 0.0429333 0.0234 0 0.0429333 0.0252 0 0.0429333 0.027 0 0.046 0 0 0.046 0.0018 0 0.046 0.0036 0 0.046 0.0054 0 0.046 0.0072 0 0.046 0.009 0 0.046 0.0108 0 0.046 0.0126 0 0.046 0.0144 0 0.046 0.0162 0 0.046 0.018 0 0.046 0.0198 0 0.046 0.0216 0 0.046 0.0234 0 0.046 0.0252 0 0.046 0.027 0 
</DataArray>
</Points> 
</Piece> 
</StructuredGrid> 
</VTKFile> 
