<?xml version="1.0"?> 
<VTKFile type="StructuredGrid" version="0.1"> 
<StructuredGrid WholeExtent="0 15 0 15 0 0"> 
<Piece Extent="0 15 0 15 0 0"> 
<PointData>
<DataArray type="Float32" Name="E" format="ascii" NumberOfComponents="3"> 
2.00252e+06 -793078 0 2.12822e+06 -842860 0 2.23339e+06 -884509 0 2.32316e+06 -920062 0 2.40128e+06 -951001 0 2.4705e+06 -978417 0 2.53286e+06 -1.00311e+06 0 2.58987e+06 -1.02569e+06 0 2.64263e+06 -1.04659e+06 0 2.692e+06 -1.06614e+06 0 2.73862e+06 -1.0846e+06 0 2.78294e+06 -1.10215e+06 0 2.82531e+06 -1.11893e+06 0 2.86596e+06 -1.13503e+06 0 2.90504e+06 -1.15051e+06 0 2.94257e+06 -1.16538e+06 0 2.80707e+06 -574989 0 2.82712e+06 -605658 0 2.85066e+06 -635211 0 2.87669e+06 -663489 0 2.90447e+06 -690437 0 2.93351e+06 -716068 0 2.96344e+06 -740430 0 2.99401e+06 -763596 0 3.02505e+06 -785652 0 3.05645e+06 -806685 0 3.08814e+06 -826784 0 3.1201e+06 -846034 0 3.15231e+06 -864512 0 3.18479e+06 -882286 0 3.21758e+06 -899411 0 3.25073e+06 -915921 0 3.12159e+06 -460519 0 3.14324e+06 -481088 0 3.16525e+06 -500578 0 3.1877e+06 -519098 0 3.21063e+06 -536719 0 3.23406e+06 -553493 0 3.25801e+06 -569452 0 3.28247e+06 -584622 0 3.30744e+06 -599017 0 3.33292e+06 -612647 0 3.35891e+06 -625518 0 3.3854e+06 -637628 0 3.41239e+06 -648976 0 3.43989e+06 -659556 0 3.46789e+06 -669366 0 3.4964e+06 -678405 0 3.34763e+06 -353095 0 3.36475e+06 -364164 0 3.38237e+06 -374821 0 3.40046e+06 -385002 0 3.41902e+06 -394657 0 3.438e+06 -403750 0 3.45741e+06 -412249 0 3.47722e+06 -420127 0 3.49742e+06 -427363 0 3.518e+06 -433934 0 3.53895e+06 -439822 0 3.56025e+06 -445009 0 3.58191e+06 -449477 0 3.6039e+06 -453206 0 3.62622e+06 -456174 0 3.64885e+06 -458355 0 3.49359e+06 -242299 0 3.50712e+06 -248535 0 3.52093e+06 -254195 0 3.53498e+06 -259277 0 3.54928e+06 -263777 0 3.56382e+06 -267687 0 3.57857e+06 -270999 0 3.59354e+06 -273704 0 3.60872e+06 -275790 0 3.62409e+06 -277246 0 3.63963e+06 -278058 0 3.65534e+06 -278212 0 3.67119e+06 -277694 0 3.68717e+06 -276488 0 3.70326e+06 -274582 0 3.71944e+06 -271963 0 3.57977e+06 -151074 0 3.5893e+06 -153264 0 3.59894e+06 -154968 0 3.60872e+06 -156200 0 3.61861e+06 -156960 0 3.62862e+06 -157243 0 3.63871e+06 -157040 0 3.64887e+06 -156341 0 3.65909e+06 -155136 0 3.66934e+06 -153416 0 3.67961e+06 -151172 0 3.68988e+06 -148395 0 3.70014e+06 -145079 0 3.71037e+06 -141216 0 3.72055e+06 -136799 0 3.73066e+06 -131821 0 3.62017e+06 -81727.9 0 3.62613e+06 -81444.5 0 3.63216e+06 -80928.3 0 3.63821e+06 -80096.1 0 3.64423e+06 -78905 0 3.65022e+06 -77335.1 0 3.65617e+06 -75377.3 0 3.66206e+06 -73027.9 0 3.66789e+06 -70285.1 0 3.67365e+06 -67147.4 0 3.67931e+06 -63613 0 3.68488e+06 -59679.7 0 3.69032e+06 -55344.8 0 3.69563e+06 -50605.8 0 3.70079e+06 -45460.1 0 3.70577e+06 -39906.1 0 3.63182e+06 -36414.8 0 3.63485e+06 -35689.6 0 3.63771e+06 -34396.7 0 3.6405e+06 -32722.4 0 3.64323e+06 -30758.5 0 3.64589e+06 -28543.6 0 3.64847e+06 -26088.7 0 3.65094e+06 -23392.1 0 3.65328e+06 -20447.3 0 3.65548e+06 -17246.7 0 3.65752e+06 -13783.7 0 3.65938e+06 -10053 0 3.66105e+06 -6050.84 0 3.66252e+06 -1774.52 0 3.66379e+06 2777.92 0 3.66483e+06 7608.3 0 3.62829e+06 -15354.3 0 3.62896e+06 -13377.7 0 3.62972e+06 -11962.4 0 3.63037e+06 -10703.1 0 3.63085e+06 -9388.86 0 3.63113e+06 -7922.77 0 3.6312e+06 -6268.1 0 3.63107e+06 -4418.13 0 3.63073e+06 -2379.28 0 3.63019e+06 -162.15 0 3.62943e+06 2222.69 0 3.62846e+06 4766.32 0 3.62725e+06 7461.79 0 3.62579e+06 10303.6 0 3.62406e+06 13287.1 0 3.62206e+06 16407.5 0 3.62336e+06 -10476.2 0 3.62291e+06 -12465.7 0 3.62196e+06 -12949.8 0 3.62078e+06 -12729.4 0 3.61946e+06 -12235.6 0 3.61802e+06 -11677.4 0 3.61643e+06 -11141.5 0 3.61466e+06 -10650.9 0 3.61269e+06 -10197.5 0 3.61048e+06 -9761.4 0 3.60802e+06 -9319.59 0 3.60528e+06 -8850.08 0 3.60225e+06 -8332.97 0 3.59892e+06 -7749.98 0 3.59528e+06 -7082.92 0 3.59133e+06 -6312.16 0 3.62694e+06 -26120.1 0 3.62567e+06 -23536.2 0 3.62472e+06 -23940.1 0 3.62368e+06 -25841.6 0 3.62235e+06 -28408 0 3.62066e+06 -31212.9 0 3.6186e+06 -34061 0 3.61617e+06 -36882.7 0 3.61337e+06 -39672.4 0 3.61021e+06 -42452.6 0 3.60668e+06 -45256.1 0 3.60278e+06 -48115.9 0 3.59848e+06 -51063.2 0 3.59377e+06 -54127.4 0 3.58863e+06 -57339.1 0 3.58303e+06 -60733.5 0 3.65565e+06 -29051.8 0 3.65648e+06 -42255.6 0 3.65634e+06 -50435.5 0 3.65572e+06 -56229.8 0 3.6548e+06 -61164.1 0 3.65364e+06 -66054.1 0 3.6522e+06 -71296.6 0 3.65042e+06 -77048.6 0 3.64825e+06 -83335.4 0 3.64561e+06 -90114.4 0 3.64246e+06 -97310.8 0 3.63875e+06 -104836 0 3.63444e+06 -112593 0 3.6295e+06 -120479 0 3.62392e+06 -128377 0 3.61767e+06 -136149 0 3.72891e+06 -52841 0 3.73349e+06 -46355.6 0 3.73817e+06 -50240 0 3.74238e+06 -60057.1 0 3.74586e+06 -73134.5 0 3.74847e+06 -87954.6 0 3.75016e+06 -103697 0 3.75089e+06 -119955 0 3.75065e+06 -136554 0 3.74941e+06 -153452 0 3.74717e+06 -170669 0 3.7439e+06 -188266 0 3.73958e+06 -206325 0 3.73422e+06 -224956 0 3.72781e+06 -244307 0 3.72037e+06 -264584 0 3.90759e+06 46602.1 0 3.92116e+06 -4725.54 0 3.9343e+06 -42645.5 0 3.94638e+06 -73758.3 0 3.95686e+06 -102005 0 3.96537e+06 -129550 0 3.97167e+06 -157459 0 3.97561e+06 -186145 0 3.97717e+06 -215639 0 3.97639e+06 -245773 0 3.97334e+06 -276274 0 3.96812e+06 -306825 0 3.9608e+06 -337081 0 3.95143e+06 -366665 0 3.93997e+06 -395139 0 3.92629e+06 -421958 0 4.40236e+06 94495.8 0 4.45266e+06 42253.1 0 4.47761e+06 -26312.4 0 4.48412e+06 -101528 0 4.47744e+06 -177311 0 4.46153e+06 -250110 0 4.4394e+06 -318016 0 4.41338e+06 -380177 0 4.3853e+06 -436422 0 4.35664e+06 -487003 0 4.32867e+06 -532451 0 4.30257e+06 -573487 0 4.27956e+06 -611004 0 4.26102e+06 -646080 0 4.24864e+06 -680051 0 4.24466e+06 -714609 0 6.44623e+06 -1.6836e+06 0 5.90556e+06 -1.54239e+06 0 5.50487e+06 -1.43774e+06 0 5.20349e+06 -1.35903e+06 0 4.97266e+06 -1.29874e+06 0 4.79199e+06 -1.25155e+06 0 4.64686e+06 -1.21365e+06 0 4.52662e+06 -1.18225e+06 0 4.4233e+06 -1.15526e+06 0 4.33062e+06 -1.13106e+06 0 4.24326e+06 -1.10824e+06 0 4.15618e+06 -1.0855e+06 0 4.06411e+06 -1.06145e+06 0 3.96083e+06 -1.03447e+06 0 3.83849e+06 -1.00252e+06 0 3.68663e+06 -962861 0 </DataArray> 
</PointData> 
<Points> 
<DataArray type="Float32" NumberOfComponents="3"> 
0.3075 0.0099 0 0.307701 0.0104067 0 0.307901 0.0109133 0 0.308102 0.01142 0 0.308303 0.0119267 0 0.308503 0.0124333 0 0.308704 0.01294 0 0.308905 0.0134467 0 0.309105 0.0139533 0 0.309306 0.01446 0 0.309507 0.0149667 0 0.309707 0.0154733 0 0.309908 0.01598 0 0.310109 0.0164867 0 0.310309 0.0169933 0 0.31051 0.0175 0 0.313067 0.0101962 0 0.313263 0.0107031 0 0.313459 0.01121 0 0.313655 0.0117169 0 0.313851 0.0122238 0 0.314048 0.0127308 0 0.314244 0.0132377 0 0.31444 0.0137446 0 0.314636 0.0142515 0 0.314832 0.0147585 0 0.315028 0.0152654 0 0.315225 0.0157723 0 0.315421 0.0162792 0 0.315617 0.0167862 0 0.315813 0.0172931 0 0.316009 0.0178 0 0.318633 0.0104923 0 0.318825 0.0109995 0 0.319017 0.0115067 0 0.319208 0.0120138 0 0.3194 0.012521 0 0.319592 0.0130282 0 0.319783 0.0135354 0 0.319975 0.0140426 0 0.320167 0.0145497 0 0.320358 0.0150569 0 0.32055 0.0155641 0 0.320742 0.0160713 0 0.320934 0.0165785 0 0.321125 0.0170856 0 0.321317 0.0175928 0 0.321509 0.0181 0 0.3242 0.0107885 0 0.324387 0.0112959 0 0.324574 0.0118033 0 0.324762 0.0123108 0 0.324949 0.0128182 0 0.325136 0.0133256 0 0.325323 0.0138331 0 0.32551 0.0143405 0 0.325698 0.014848 0 0.325885 0.0153554 0 0.326072 0.0158628 0 0.326259 0.0163703 0 0.326446 0.0168777 0 0.326634 0.0173851 0 0.326821 0.0178926 0 0.327008 0.0184 0 0.329767 0.0110846 0 0.329949 0.0115923 0 0.330132 0.0121 0 0.330315 0.0126077 0 0.330497 0.0131154 0 0.33068 0.0136231 0 0.330863 0.0141308 0 0.331046 0.0146385 0 0.331228 0.0151462 0 0.331411 0.0156538 0 0.331594 0.0161615 0 0.331776 0.0166692 0 0.331959 0.0171769 0 0.332142 0.0176846 0 0.332325 0.0181923 0 0.332507 0.0187 0 0.335333 0.0113808 0 0.335512 0.0118887 0 0.33569 0.0123967 0 0.335868 0.0129046 0 0.336046 0.0134126 0 0.336224 0.0139205 0 0.336403 0.0144285 0 0.336581 0.0149364 0 0.336759 0.0154444 0 0.336937 0.0159523 0 0.337116 0.0164603 0 0.337294 0.0169682 0 0.337472 0.0174762 0 0.33765 0.0179841 0 0.337828 0.0184921 0 0.338007 0.019 0 0.3409 0.0116769 0 0.341074 0.0121851 0 0.341247 0.0126933 0 0.341421 0.0132015 0 0.341595 0.0137098 0 0.341769 0.014218 0 0.341942 0.0147262 0 0.342116 0.0152344 0 0.34229 0.0157426 0 0.342464 0.0162508 0 0.342637 0.016759 0 0.342811 0.0172672 0 0.342985 0.0177754 0 0.343158 0.0182836 0 0.343332 0.0187918 0 0.343506 0.0193 0 0.346467 0.0119731 0 0.346636 0.0124816 0 0.346805 0.01299 0 0.346974 0.0134985 0 0.347144 0.0140069 0 0.347313 0.0145154 0 0.347482 0.0150239 0 0.347651 0.0155323 0 0.347821 0.0160408 0 0.34799 0.0165492 0 0.348159 0.0170577 0 0.348328 0.0175662 0 0.348498 0.0180746 0 0.348667 0.0185831 0 0.348836 0.0190915 0 0.349005 0.0196 0 0.352033 0.0122692 0 0.352198 0.012778 0 0.352363 0.0132867 0 0.352528 0.0137954 0 0.352692 0.0143041 0 0.352857 0.0148128 0 0.353022 0.0153215 0 0.353187 0.0158303 0 0.353351 0.016339 0 0.353516 0.0168477 0 0.353681 0.0173564 0 0.353846 0.0178651 0 0.35401 0.0183738 0 0.354175 0.0188826 0 0.35434 0.0193913 0 0.354505 0.0199 0 0.3576 0.0125654 0 0.35776 0.0130744 0 0.357921 0.0135833 0 0.358081 0.0140923 0 0.358241 0.0146013 0 0.358401 0.0151103 0 0.358562 0.0156192 0 0.358722 0.0161282 0 0.358882 0.0166372 0 0.359042 0.0171462 0 0.359203 0.0176551 0 0.359363 0.0181641 0 0.359523 0.0186731 0 0.359683 0.0191821 0 0.359844 0.019691 0 0.360004 0.0202 0 0.363167 0.0128616 0 0.363322 0.0133708 0 0.363478 0.01388 0 0.363634 0.0143892 0 0.36379 0.0148985 0 0.363946 0.0154077 0 0.364101 0.0159169 0 0.364257 0.0164262 0 0.364413 0.0169354 0 0.364569 0.0174446 0 0.364724 0.0179539 0 0.36488 0.0184631 0 0.365036 0.0189723 0 0.365192 0.0194815 0 0.365348 0.0199908 0 0.365503 0.0205 0 0.368733 0.0131577 0 0.368885 0.0136672 0 0.369036 0.0141767 0 0.369187 0.0146862 0 0.369338 0.0151957 0 0.36949 0.0157051 0 0.369641 0.0162146 0 0.369792 0.0167241 0 0.369944 0.0172336 0 0.370095 0.0177431 0 0.370246 0.0182526 0 0.370397 0.0187621 0 0.370549 0.0192715 0 0.3707 0.019781 0 0.370851 0.0202905 0 0.371003 0.0208 0 0.3743 0.0134539 0 0.374447 0.0139636 0 0.374594 0.0144734 0 0.37474 0.0149831 0 0.374887 0.0154928 0 0.375034 0.0160026 0 0.375181 0.0165123 0 0.375328 0.0170221 0 0.375474 0.0175318 0 0.375621 0.0180415 0 0.375768 0.0185513 0 0.375915 0.019061 0 0.376062 0.0195708 0 0.376208 0.0200805 0 0.376355 0.0205903 0 0.376502 0.0211 0 0.379867 0.01375 0 0.380009 0.01426 0 0.380151 0.01477 0 0.380294 0.01528 0 0.380436 0.01579 0 0.380578 0.0163 0 0.380721 0.01681 0 0.380863 0.01732 0 0.381005 0.01783 0 0.381147 0.01834 0 0.38129 0.01885 0 0.381432 0.01936 0 0.381574 0.01987 0 0.381717 0.02038 0 0.381859 0.02089 0 0.382001 0.0214 0 0.385433 0.0140462 0 0.385571 0.0145564 0 0.385709 0.0150667 0 0.385847 0.0155769 0 0.385985 0.0160872 0 0.386122 0.0165975 0 0.38626 0.0171077 0 0.386398 0.017618 0 0.386536 0.0181282 0 0.386674 0.0186385 0 0.386812 0.0191487 0 0.386949 0.019659 0 0.387087 0.0201692 0 0.387225 0.0206795 0 0.387363 0.0211897 0 0.387501 0.0217 0 0.391 0.0143423 0 0.391133 0.0148528 0 0.391267 0.0153634 0 0.3914 0.0158739 0 0.391533 0.0163844 0 0.391667 0.0168949 0 0.3918 0.0174054 0 0.391933 0.0179159 0 0.392067 0.0184264 0 0.3922 0.0189369 0 0.392333 0.0194474 0 0.392467 0.019958 0 0.3926 0.0204685 0 0.392733 0.020979 0 0.392867 0.0214895 0 0.393 0.022 0 
</DataArray>
</Points> 
</Piece> 
</StructuredGrid> 
</VTKFile> 
