<?xml version="1.0"?> 
<VTKFile type="StructuredGrid" version="0.1"> 
<StructuredGrid WholeExtent="0 15 0 15 0 0"> 
<Piece Extent="0 15 0 15 0 0"> 
<PointData>
<DataArray type="Float32" Name="E" format="ascii" NumberOfComponents="3"> 
0 -798893 0 266806 -747320 0 496228 -625481 0 643856 -462559 0 726720 -299590 0 758128 -151693 0 753749 -22677.6 0 721684 87202.5 0 668798 179516 0 599431 255787 0 517203 317646 0 424926 366402 0 325032 403184 0 219646 428841 0 110698 443991 0 0 448999 0 0 -711066 0 243009 -671254 0 450958 -567434 0 594843 -426926 0 679301 -281758 0 716198 -147002 0 717314 -27964.8 0 690869 74373.4 0 643035 160736 0 578315 232358 0 500278 290544 0 411833 336476 0 315472 371153 0 213396 395358 0 107611 409655 0 0 414382 0 0 -634374 0 221834 -601568 0 413019 -513061 0 551489 -391623 0 636801 -262757 0 677723 -140736 0 683665 -31542.8 0 662158 63131.4 0 618963 143441 0 558523 210267 0 484393 264669 0 399530 307674 0 306483 340169 0 207517 362864 0 104705 376274 0 0 380708 0 0 -565203 0 203535 -537549 0 380752 -461996 0 513442 -356949 0 598784 -242991 0 642707 -133157 0 652755 -33647.7 0 635600 53330.2 0 596611 127498 0 540094 189417 0 469578 239933 0 388044 279921 0 298085 310164 0 202022 331298 0 101989 343790 0 0 347921 0 0 -501898 0 187869 -478428 0 353150 -413895 0 480186 -323085 0 564930 -222747 0 611065 -124509 0 624558 -34481.5 0 611217 44818 0 576005 112783 0 523061 169709 0 455863 216250 0 377398 253142 0 290295 281068 0 196923 300594 0 99468.2 312140 0 0 315959 0 0 -443440 0 174507 -423506 0 329509 -368439 0 451229 -290119 0 534957 -202242 0 582685 -115007 0 599037 -34224.9 0 589014 37448 0 557168 99174.9 0 507450 151041 0 443271 193532 0 367614 227259 0 283131 252811 0 192232 270688 0 97148.1 281262 0 0 284760 0 0 -389062 0 163147 -372172 0 309294 -325324 0 426135 -258070 0 508609 -181631 0 557447 -104831 0 576150 -33040.4 0 568989 31081.6 0 540115 86557.4 0 493282 133312 0 431825 171691 0 358710 202193 0 276608 225322 0 187958 241511 0 95034.1 251090 0 0 254260 0 0 -338128 0 153531 -323894 0 292086 -284264 0 404534 -226914 0 485650 -161022 0 535230 -94127.4 0 555849 -31073.2 0 551133 25588.6 0 524855 74816.3 0 480574 116421 0 421543 150638 0 350704 177864 0 270738 198525 0 184111 212995 0 93130.8 221559 0 0 224393 0 0 -290094 0 145450 -278203 0 277549 -244990 0 386117 -196596 0 465871 -140488 0 515919 -83018 0 538085 -28452.4 0 535433 20847.4 0 511392 63841.7 0 469339 100272 0 412440 130284 0 343610 154192 0 265534 172348 0 180699 185069 0 91442.1 192599 0 0 195092 0 0 -244478 0 138737 -234684 0 265415 -207246 0 370625 -167037 0 449090 -120068 0 499408 -71600 0 522806 -25292.4 0 521872 16744.3 0 499731 53527.5 0 459588 84766.8 0 404528 110541 0 337439 131094 0 261004 146713 0 177728 157661 0 89971.7 164143 0 0 166289 0 0 -200854 0 133257 -192960 0 255470 -170789 0 357847 -138148 0 435148 -99783.7 0 485604 -59950.9 0 509966 -21694.4 0 510434 13173.3 0 489869 43771.5 0 451327 69809.6 0 397818 91321.5 0 332201 108491 0 257158 121545 0 175204 130699 0 88722.4 136121 0 0 137915 0 0 -158834 0 128903 -152687 0 247544 -135389 0 347612 -109825 0 423916 -79634 0 474424 -48132.2 0 499523 -17748.5 0 501101 10035 0 481805 34474.8 0 444563 55306.6 0 392318 72536.5 0 327905 86298.3 0 254001 96767.1 0 173133 104110 0 87697 108460 0 0 109900 0 0 -118062 0 125596 -113547 0 241507 -100822 0 339785 -81962.3 0 415288 -59606.6 0 465800 -36192.5 0 491440 -13535.5 0 493860 7235.84 0 475537 25541.5 0 439298 41165.3 0 388034 54099 0 324557 64435.4 0 251541 72301.5 0 171518 77820.3 0 86897.3 81089.9 0 0 82172.5 0 0 -78207.5 0 123274 -75241.7 0 237262 -66873.7 0 334264 -54447.1 0 409183 -39678.9 0 459678 -24170.5 0 485689 -9128.52 0 488697 4686.8 0 471062 16878.6 0 435536 27294 0 384971 35921.6 0 322162 42819.6 0 249781 48070.5 0 170362 51755.1 0 86324.9 53938.4 0 0 54661.3 0 0 -38954.6 0 121898 -37484.8 0 234741 -33335 0 330980 -27165.1 0 405542 -19821.4 0 456021 -12097.4 0 482246 -4595.35 0 485603 2302.51 0 468378 8394.69 0 433278 13602.2 0 383132 17917.5 0 320724 21368.6 0 248723 23996.1 0 169668 25840 0 85981.1 26932.7 0 0 27294.5 0 0 0 0 121441 0 0 233905 0 0 329890 0 0 404333 0 0 454804 0 0 481100 0 0 484573 0 0 467483 0 0 432526 0 0 382519 0 0 320244 0 0 248370 0 0 169437 0 0 85866.4 0 0 0 0 0 </DataArray> 
</PointData> 
<Points> 
<DataArray type="Float32" NumberOfComponents="3"> 
0.416 0.03 0 0.416 0.0365333 0 0.416 0.0430667 0 0.416 0.0496 0 0.416 0.0561333 0 0.416 0.0626667 0 0.416 0.0692 0 0.416 0.0757333 0 0.416 0.0822667 0 0.416 0.0888 0 0.416 0.0953333 0 0.416 0.101867 0 0.416 0.1084 0 0.416 0.114933 0 0.416 0.121467 0 0.416 0.128 0 0.418067 0.03 0 0.418067 0.0365333 0 0.418067 0.0430667 0 0.418067 0.0496 0 0.418067 0.0561333 0 0.418067 0.0626667 0 0.418067 0.0692 0 0.418067 0.0757333 0 0.418067 0.0822667 0 0.418067 0.0888 0 0.418067 0.0953333 0 0.418067 0.101867 0 0.418067 0.1084 0 0.418067 0.114933 0 0.418067 0.121467 0 0.418067 0.128 0 0.420133 0.03 0 0.420133 0.0365333 0 0.420133 0.0430667 0 0.420133 0.0496 0 0.420133 0.0561333 0 0.420133 0.0626667 0 0.420133 0.0692 0 0.420133 0.0757333 0 0.420133 0.0822667 0 0.420133 0.0888 0 0.420133 0.0953333 0 0.420133 0.101867 0 0.420133 0.1084 0 0.420133 0.114933 0 0.420133 0.121467 0 0.420133 0.128 0 0.4222 0.03 0 0.4222 0.0365333 0 0.4222 0.0430667 0 0.4222 0.0496 0 0.4222 0.0561333 0 0.4222 0.0626667 0 0.4222 0.0692 0 0.4222 0.0757333 0 0.4222 0.0822667 0 0.4222 0.0888 0 0.4222 0.0953333 0 0.4222 0.101867 0 0.4222 0.1084 0 0.4222 0.114933 0 0.4222 0.121467 0 0.4222 0.128 0 0.424267 0.03 0 0.424267 0.0365333 0 0.424267 0.0430667 0 0.424267 0.0496 0 0.424267 0.0561333 0 0.424267 0.0626667 0 0.424267 0.0692 0 0.424267 0.0757333 0 0.424267 0.0822667 0 0.424267 0.0888 0 0.424267 0.0953333 0 0.424267 0.101867 0 0.424267 0.1084 0 0.424267 0.114933 0 0.424267 0.121467 0 0.424267 0.128 0 0.426333 0.03 0 0.426333 0.0365333 0 0.426333 0.0430667 0 0.426333 0.0496 0 0.426333 0.0561333 0 0.426333 0.0626667 0 0.426333 0.0692 0 0.426333 0.0757333 0 0.426333 0.0822667 0 0.426333 0.0888 0 0.426333 0.0953333 0 0.426333 0.101867 0 0.426333 0.1084 0 0.426333 0.114933 0 0.426333 0.121467 0 0.426333 0.128 0 0.4284 0.03 0 0.4284 0.0365333 0 0.4284 0.0430667 0 0.4284 0.0496 0 0.4284 0.0561333 0 0.4284 0.0626667 0 0.4284 0.0692 0 0.4284 0.0757333 0 0.4284 0.0822667 0 0.4284 0.0888 0 0.4284 0.0953333 0 0.4284 0.101867 0 0.4284 0.1084 0 0.4284 0.114933 0 0.4284 0.121467 0 0.4284 0.128 0 0.430467 0.03 0 0.430467 0.0365333 0 0.430467 0.0430667 0 0.430467 0.0496 0 0.430467 0.0561333 0 0.430467 0.0626667 0 0.430467 0.0692 0 0.430467 0.0757333 0 0.430467 0.0822667 0 0.430467 0.0888 0 0.430467 0.0953333 0 0.430467 0.101867 0 0.430467 0.1084 0 0.430467 0.114933 0 0.430467 0.121467 0 0.430467 0.128 0 0.432533 0.03 0 0.432533 0.0365333 0 0.432533 0.0430667 0 0.432533 0.0496 0 0.432533 0.0561333 0 0.432533 0.0626667 0 0.432533 0.0692 0 0.432533 0.0757333 0 0.432533 0.0822667 0 0.432533 0.0888 0 0.432533 0.0953333 0 0.432533 0.101867 0 0.432533 0.1084 0 0.432533 0.114933 0 0.432533 0.121467 0 0.432533 0.128 0 0.4346 0.03 0 0.4346 0.0365333 0 0.4346 0.0430667 0 0.4346 0.0496 0 0.4346 0.0561333 0 0.4346 0.0626667 0 0.4346 0.0692 0 0.4346 0.0757333 0 0.4346 0.0822667 0 0.4346 0.0888 0 0.4346 0.0953333 0 0.4346 0.101867 0 0.4346 0.1084 0 0.4346 0.114933 0 0.4346 0.121467 0 0.4346 0.128 0 0.436667 0.03 0 0.436667 0.0365333 0 0.436667 0.0430667 0 0.436667 0.0496 0 0.436667 0.0561333 0 0.436667 0.0626667 0 0.436667 0.0692 0 0.436667 0.0757333 0 0.436667 0.0822667 0 0.436667 0.0888 0 0.436667 0.0953333 0 0.436667 0.101867 0 0.436667 0.1084 0 0.436667 0.114933 0 0.436667 0.121467 0 0.436667 0.128 0 0.438733 0.03 0 0.438733 0.0365333 0 0.438733 0.0430667 0 0.438733 0.0496 0 0.438733 0.0561333 0 0.438733 0.0626667 0 0.438733 0.0692 0 0.438733 0.0757333 0 0.438733 0.0822667 0 0.438733 0.0888 0 0.438733 0.0953333 0 0.438733 0.101867 0 0.438733 0.1084 0 0.438733 0.114933 0 0.438733 0.121467 0 0.438733 0.128 0 0.4408 0.03 0 0.4408 0.0365333 0 0.4408 0.0430667 0 0.4408 0.0496 0 0.4408 0.0561333 0 0.4408 0.0626667 0 0.4408 0.0692 0 0.4408 0.0757333 0 0.4408 0.0822667 0 0.4408 0.0888 0 0.4408 0.0953333 0 0.4408 0.101867 0 0.4408 0.1084 0 0.4408 0.114933 0 0.4408 0.121467 0 0.4408 0.128 0 0.442867 0.03 0 0.442867 0.0365333 0 0.442867 0.0430667 0 0.442867 0.0496 0 0.442867 0.0561333 0 0.442867 0.0626667 0 0.442867 0.0692 0 0.442867 0.0757333 0 0.442867 0.0822667 0 0.442867 0.0888 0 0.442867 0.0953333 0 0.442867 0.101867 0 0.442867 0.1084 0 0.442867 0.114933 0 0.442867 0.121467 0 0.442867 0.128 0 0.444933 0.03 0 0.444933 0.0365333 0 0.444933 0.0430667 0 0.444933 0.0496 0 0.444933 0.0561333 0 0.444933 0.0626667 0 0.444933 0.0692 0 0.444933 0.0757333 0 0.444933 0.0822667 0 0.444933 0.0888 0 0.444933 0.0953333 0 0.444933 0.101867 0 0.444933 0.1084 0 0.444933 0.114933 0 0.444933 0.121467 0 0.444933 0.128 0 0.447 0.03 0 0.447 0.0365333 0 0.447 0.0430667 0 0.447 0.0496 0 0.447 0.0561333 0 0.447 0.0626667 0 0.447 0.0692 0 0.447 0.0757333 0 0.447 0.0822667 0 0.447 0.0888 0 0.447 0.0953333 0 0.447 0.101867 0 0.447 0.1084 0 0.447 0.114933 0 0.447 0.121467 0 0.447 0.128 0 
</DataArray>
</Points> 
</Piece> 
</StructuredGrid> 
</VTKFile> 
