<?xml version="1.0"?> 
<VTKFile type="StructuredGrid" version="0.1"> 
<StructuredGrid WholeExtent="0 15 0 15 0 0"> 
<Piece Extent="0 15 0 15 0 0"> 
<PointData>
<DataArray type="Float32" Name="E" format="ascii" NumberOfComponents="3"> 
-1.07573e+06 -1.70899e+06 0 -737391 -1.33537e+06 0 -609861 -1.23389e+06 0 -531065 -1.19381e+06 0 -464517 -1.17519e+06 0 -400633 -1.16657e+06 0 -335975 -1.16381e+06 0 -269129 -1.16541e+06 0 -198791 -1.17091e+06 0 -123168 -1.18074e+06 0 -39011.2 -1.19642e+06 0 60120.1 -1.2215e+06 0 188759 -1.26518e+06 0 383718 -1.35549e+06 0 756549 -1.59424e+06 0 1.69616e+06 -2.38973e+06 0 -845153 -648771 0 -776921 -664859 0 -699018 -691027 0 -621089 -711344 0 -545376 -724914 0 -472019 -732792 0 -400580 -735884 0 -330434 -734619 0 -260969 -728914 0 -191670 -718234 0 -122246 -701610 0 -52862.4 -677727 0 15290.7 -645308 0 78549.2 -604663 0 126226 -563734 0 125107 -561858 0 -732430 -252487 0 -676535 -299140 0 -620904 -327331 0 -566100 -350666 0 -512132 -370598 0 -459120 -386919 0 -407255 -399329 0 -356772 -407659 0 -307937 -411878 0 -261065 -412049 0 -216529 -408317 0 -174768 -400863 0 -136235 -389667 0 -101263 -373443 0 -69730.2 -345227 0 -40389 -274265 0 -568496 22907.7 0 -529052 -16830 0 -491995 -58541 0 -455803 -95158.5 0 -420279 -126327 0 -385435 -152524 0 -351336 -174222 0 -318094 -191801 0 -285851 -205554 0 -254782 -215730 0 -225079 -222559 0 -196950 -226293 0 -170606 -227355 0 -146215 -226938 0 -123643 -229427 0 -101151 -252375 0 -318709 174602 0 -317738 121845 0 -311075 79317.7 0 -300888 42312.9 0 -288133 9835.18 0 -273476 -18539 0 -257457 -43134.1 0 -240526 -64250.1 0 -223061 -82179.5 0 -205384 -97206.4 0 -187762 -109612 0 -170416 -119668 0 -153522 -127572 0 -137259 -133154 0 -122070 -134638 0 -109928 -123455 0 -141267 143613 0 -155170 121470 0 -164626 97112.7 0 -169830 73339.8 0 -171485 50864 0 -170254 29970.7 0 -166698 10801.8 0 -161295 -6578.68 0 -154454 -22157.5 0 -146527 -35959.8 0 -137822 -48036.8 0 -128609 -58462.4 0 -119129 -67356.2 0 -109560 -75019.4 0 -99833.3 -82541.4 0 -88689.1 -94381.3 0 -68284.3 93602.4 0 -78668.5 82944.7 0 -87127.7 71908.7 0 -93768.8 60039.6 0 -98539.2 47701.2 0 -101485 35283.6 0 -102739 23101.1 0 -102477 11388.8 0 -100893 313.391 0 -98181.9 -10014.1 0 -94528.8 -19529 0 -90101.3 -28203.2 0 -85046.2 -36025.6 0 -79505.2 -42932.3 0 -73742.9 -48514.4 0 -68774.7 -50774.3 0 -34449.8 60018.3 0 -41779.1 55294.4 0 -48216.6 49389 0 -53587.6 42844.4 0 -57888.9 35843.9 0 -61134.1 28542.3 0 -63347.9 21094.2 0 -64574.4 13646.2 0 -64876.6 6329.68 0 -64332.5 -744.118 0 -63030.8 -7484.6 0 -61067.6 -13821.3 0 -58543 -19707.2 0 -55548.5 -25143.8 0 -52087.1 -30306.4 0 -47676.5 -36102.8 0 -19225.4 38071.3 0 -23832.6 35577 0 -28043.8 32578.5 0 -31811.6 29022.1 0 -35043.5 25010.6 0 -37681.9 20657 0 -39701 16068.3 0 -41096.4 11343.4 0 -41880.2 6572.44 0 -42076.6 1835.96 0 -41718.6 -2796.22 0 -40844.3 -7265.52 0 -39493.8 -11522.8 0 -37711.1 -15516.7 0 -35587 -19140 0 -33494.5 -21995.8 0 -11138.8 24708.3 0 -14203.7 23335.7 0 -17069.8 21543.3 0 -19658.3 19410.9 0 -21933.1 16978.1 0 -23861.7 14290.8 0 -25416.6 11402 0 -26580 8368.27 0 -27344.2 5246.29 0 -27711 2090.87 0 -27690.7 -1046.67 0 -27301.4 -4119.45 0 -26567.8 -7086.32 0 -25518.4 -9916.19 0 -24159.6 -12607.3 0 -22338.3 -15270.3 0 -6614.39 15962.6 0 -8711.96 15194.4 0 -10673.4 14161.7 0 -12478.2 12877.5 0 -14090.2 11370.8 0 -15480.5 9673.86 0 -16627.8 7820.93 0 -17516.3 5847.7 0 -18136.1 3790.53 0 -18482.7 1685.61 0 -18556.8 -432.003 0 -18363.1 -2529.07 0 -17909.8 -4574.59 0 -17207.9 -6538.81 0 -16283.5 -8388.11 0 -15253.4 -10066.1 0 -4218.61 10321.2 0 -5623.46 9861.02 0 -6970.48 9231.85 0 -8221.62 8438.97 0 -9352.45 7495.07 0 -10341.5 6417.07 0 -11170 5225.08 0 -11823.6 3941.47 0 -12291.9 2589.98 0 -12568.5 1194.96 0 -12651.1 -219.232 0 -12541.2 -1628.87 0 -12244.2 -3011.38 0 -11769.1 -4346.09 0 -11121.2 -5614.79 0 -10262 -6797.2 0 -2736.61 6451.69 0 -3767.95 6217.16 0 -4742.22 5854.33 0 -5647.85 5377.84 0 -6468.28 4797.43 0 -7188.16 4124.31 0 -7794.27 3371.4 0 -8275.54 2553.04 0 -8623.38 1684.69 0 -8831.87 782.479 0 -8897.78 -137.159 0 -8820.43 -1057.83 0 -8601.45 -1963.48 0 -8244.51 -2838.61 0 -7758.16 -3669.69 0 -7175.97 -4457.47 0 -1984.99 3767.69 0 -2741.14 3638.87 0 -3468.47 3444.69 0 -4149.23 3179.9 0 -4769.16 2848.9 0 -5315.44 2458.13 0 -5776.77 2015.37 0 -6143.66 1529.49 0 -6408.62 1010.14 0 -6566.26 467.518 0 -6613.34 -87.8607 0 -6548.86 -645.477 0 -6374.07 -1195.06 0 -6092.45 -1726.77 0 -5708.31 -2230.01 0 -5217.35 -2680.63 0 -1560.21 1694.72 0 -2182.58 1670.42 0 -2781.86 1596.3 0 -3344.93 1483.59 0 -3859.47 1336.13 0 -4314.1 1157.63 0 -4698.67 952.223 0 -5004.49 724.427 0 -5224.54 479.149 0 -5353.63 221.565 0 -5388.48 -42.973 0 -5327.73 -309.03 0 -5171.92 -571.158 0 -4923.43 -824.005 0 -4586.82 -1063.67 0 -4170.41 -1300.1 0 -1320.44 5.96046e-07 0 -1910.48 -3.03844e-08 0 -2479.02 -2.93367e-08 0 -3018.4 7.07805e-08 0 -3515.08 -1.76951e-07 0 -3956.28 1.65775e-07 0 -4330.95 -1.00583e-07 0 -4629.66 -1.11759e-07 0 -4844.81 1.63913e-07 0 -4970.77 -3.72529e-08 0 -5003.93 -7.45058e-09 0 -4942.71 -2.98023e-08 0 -4787.53 2.98023e-08 0 -4540.32 0 0 -4205.37 -8.9407e-08 0 -3802.32 -3.57628e-07 0 </DataArray> 
</PointData> 
<Points> 
<DataArray type="Float32" NumberOfComponents="3"> 
0.253 0.027 0 0.252967 0.0275333 0 0.252933 0.0280667 0 0.2529 0.0286 0 0.252867 0.0291333 0 0.252833 0.0296667 0 0.2528 0.0302 0 0.252767 0.0307333 0 0.252733 0.0312667 0 0.2527 0.0318 0 0.252667 0.0323333 0 0.252633 0.0328667 0 0.2526 0.0334 0 0.252567 0.0339333 0 0.252533 0.0344667 0 0.2525 0.035 0 0.256267 0.02656 0 0.256236 0.0271351 0 0.256204 0.0277102 0 0.256173 0.0282853 0 0.256142 0.0288604 0 0.256111 0.0294356 0 0.25608 0.0300107 0 0.256049 0.0305858 0 0.256018 0.0311609 0 0.255987 0.031736 0 0.255956 0.0323111 0 0.255924 0.0328862 0 0.255893 0.0334613 0 0.255862 0.0340364 0 0.255831 0.0346116 0 0.2558 0.0351867 0 0.259533 0.02612 0 0.259504 0.0267369 0 0.259476 0.0273538 0 0.259447 0.0279707 0 0.259418 0.0285876 0 0.259389 0.0292044 0 0.25936 0.0298213 0 0.259331 0.0304382 0 0.259302 0.0310551 0 0.259273 0.031672 0 0.259244 0.0322889 0 0.259216 0.0329058 0 0.259187 0.0335227 0 0.259158 0.0341396 0 0.259129 0.0347564 0 0.2591 0.0353733 0 0.2628 0.02568 0 0.262773 0.0263387 0 0.262747 0.0269973 0 0.26272 0.027656 0 0.262693 0.0283147 0 0.262667 0.0289733 0 0.26264 0.029632 0 0.262613 0.0302907 0 0.262587 0.0309493 0 0.26256 0.031608 0 0.262533 0.0322667 0 0.262507 0.0329253 0 0.26248 0.033584 0 0.262453 0.0342427 0 0.262427 0.0349013 0 0.2624 0.03556 0 0.266067 0.02524 0 0.266042 0.0259404 0 0.266018 0.0266409 0 0.265993 0.0273413 0 0.265969 0.0280418 0 0.265944 0.0287422 0 0.26592 0.0294427 0 0.265896 0.0301431 0 0.265871 0.0308436 0 0.265847 0.031544 0 0.265822 0.0322444 0 0.265798 0.0329449 0 0.265773 0.0336453 0 0.265749 0.0343458 0 0.265724 0.0350462 0 0.2657 0.0357467 0 0.269333 0.0248 0 0.269311 0.0255422 0 0.269289 0.0262844 0 0.269267 0.0270267 0 0.269244 0.0277689 0 0.269222 0.0285111 0 0.2692 0.0292533 0 0.269178 0.0299956 0 0.269156 0.0307378 0 0.269133 0.03148 0 0.269111 0.0322222 0 0.269089 0.0329644 0 0.269067 0.0337067 0 0.269044 0.0344489 0 0.269022 0.0351911 0 0.269 0.0359333 0 0.2726 0.02436 0 0.27258 0.025144 0 0.27256 0.025928 0 0.27254 0.026712 0 0.27252 0.027496 0 0.2725 0.02828 0 0.27248 0.029064 0 0.27246 0.029848 0 0.27244 0.030632 0 0.27242 0.031416 0 0.2724 0.0322 0 0.27238 0.032984 0 0.27236 0.033768 0 0.27234 0.034552 0 0.27232 0.035336 0 0.2723 0.03612 0 0.275867 0.02392 0 0.275849 0.0247458 0 0.275831 0.0255716 0 0.275813 0.0263973 0 0.275796 0.0272231 0 0.275778 0.0280489 0 0.27576 0.0288747 0 0.275742 0.0297004 0 0.275724 0.0305262 0 0.275707 0.031352 0 0.275689 0.0321778 0 0.275671 0.0330036 0 0.275653 0.0338293 0 0.275636 0.0346551 0 0.275618 0.0354809 0 0.2756 0.0363067 0 0.279133 0.02348 0 0.279118 0.0243476 0 0.279102 0.0252151 0 0.279087 0.0260827 0 0.279071 0.0269502 0 0.279056 0.0278178 0 0.27904 0.0286853 0 0.279024 0.0295529 0 0.279009 0.0304204 0 0.278993 0.031288 0 0.278978 0.0321556 0 0.278962 0.0330231 0 0.278947 0.0338907 0 0.278931 0.0347582 0 0.278916 0.0356258 0 0.2789 0.0364933 0 0.2824 0.02304 0 0.282387 0.0239493 0 0.282373 0.0248587 0 0.28236 0.025768 0 0.282347 0.0266773 0 0.282333 0.0275867 0 0.28232 0.028496 0 0.282307 0.0294053 0 0.282293 0.0303147 0 0.28228 0.031224 0 0.282267 0.0321333 0 0.282253 0.0330427 0 0.28224 0.033952 0 0.282227 0.0348613 0 0.282213 0.0357707 0 0.2822 0.03668 0 0.285667 0.0226 0 0.285656 0.0235511 0 0.285644 0.0245022 0 0.285633 0.0254533 0 0.285622 0.0264044 0 0.285611 0.0273556 0 0.2856 0.0283067 0 0.285589 0.0292578 0 0.285578 0.0302089 0 0.285567 0.03116 0 0.285556 0.0321111 0 0.285544 0.0330622 0 0.285533 0.0340133 0 0.285522 0.0349644 0 0.285511 0.0359156 0 0.2855 0.0368667 0 0.288933 0.02216 0 0.288924 0.0231529 0 0.288916 0.0241458 0 0.288907 0.0251387 0 0.288898 0.0261316 0 0.288889 0.0271244 0 0.28888 0.0281173 0 0.288871 0.0291102 0 0.288862 0.0301031 0 0.288853 0.031096 0 0.288844 0.0320889 0 0.288836 0.0330818 0 0.288827 0.0340747 0 0.288818 0.0350676 0 0.288809 0.0360604 0 0.2888 0.0370533 0 0.2922 0.02172 0 0.292193 0.0227547 0 0.292187 0.0237893 0 0.29218 0.024824 0 0.292173 0.0258587 0 0.292167 0.0268933 0 0.29216 0.027928 0 0.292153 0.0289627 0 0.292147 0.0299973 0 0.29214 0.031032 0 0.292133 0.0320667 0 0.292127 0.0331013 0 0.29212 0.034136 0 0.292113 0.0351707 0 0.292107 0.0362053 0 0.2921 0.03724 0 0.295467 0.02128 0 0.295462 0.0223564 0 0.295458 0.0234329 0 0.295453 0.0245093 0 0.295449 0.0255858 0 0.295444 0.0266622 0 0.29544 0.0277387 0 0.295436 0.0288151 0 0.295431 0.0298916 0 0.295427 0.030968 0 0.295422 0.0320444 0 0.295418 0.0331209 0 0.295413 0.0341973 0 0.295409 0.0352738 0 0.295404 0.0363502 0 0.2954 0.0374267 0 0.298733 0.02084 0 0.298731 0.0219582 0 0.298729 0.0230764 0 0.298727 0.0241947 0 0.298724 0.0253129 0 0.298722 0.0264311 0 0.29872 0.0275493 0 0.298718 0.0286676 0 0.298716 0.0297858 0 0.298713 0.030904 0 0.298711 0.0320222 0 0.298709 0.0331404 0 0.298707 0.0342587 0 0.298704 0.0353769 0 0.298702 0.0364951 0 0.2987 0.0376133 0 0.302 0.0204 0 0.302 0.02156 0 0.302 0.02272 0 0.302 0.02388 0 0.302 0.02504 0 0.302 0.0262 0 0.302 0.02736 0 0.302 0.02852 0 0.302 0.02968 0 0.302 0.03084 0 0.302 0.032 0 0.302 0.03316 0 0.302 0.03432 0 0.302 0.03548 0 0.302 0.03664 0 0.302 0.0378 0 
</DataArray>
</Points> 
</Piece> 
</StructuredGrid> 
</VTKFile> 
