<?xml version="1.0"?> 
<VTKFile type="StructuredGrid" version="0.1"> 
<StructuredGrid WholeExtent="0 15 0 15 0 0"> 
<Piece Extent="0 15 0 15 0 0"> 
<PointData>
<DataArray type="Float32" Name="E" format="ascii" NumberOfComponents="3"> 
328768 7.19233e+06 0 -789509 6.48485e+06 0 -1.03421e+06 5.7611e+06 0 -1.02248e+06 5.28944e+06 0 -937870 4.96795e+06 0 -839765 4.73724e+06 0 -738935 4.56509e+06 0 -642138 4.43245e+06 0 -549702 4.32876e+06 0 -462049 4.24693e+06 0 -378537 4.18268e+06 0 -298584 4.13302e+06 0 -221464 4.09604e+06 0 -146467 4.07043e+06 0 -72881.8 4.05538e+06 0 0 4.05042e+06 0 289785 5.96835e+06 0 -161742 5.85923e+06 0 -455077 5.58308e+06 0 -582183 5.28907e+06 0 -613073 5.03635e+06 0 -594008 4.83114e+06 0 -550412 4.66641e+06 0 -494862 4.53405e+06 0 -433992 4.42745e+06 0 -371115 4.34176e+06 0 -307925 4.2735e+06 0 -245181 4.22019e+06 0 -183136 4.18011e+06 0 -121748 4.15207e+06 0 -60805.8 4.13528e+06 0 0 4.12932e+06 0 283489 5.52559e+06 0 37525.4 5.49207e+06 0 -164567 5.36454e+06 0 -296024 5.19376e+06 0 -364002 5.01776e+06 0 -386789 4.85573e+06 0 -380505 4.71414e+06 0 -356416 4.59358e+06 0 -321736 4.49251e+06 0 -280929 4.40891e+06 0 -236692 4.34094e+06 0 -190610 4.28707e+06 0 -143572 4.24611e+06 0 -96029.8 4.21722e+06 0 -48165 4.1998e+06 0 0 4.1935e+06 0 285409 5.29339e+06 0 130447 5.27135e+06 0 -8740.77 5.1997e+06 0 -115218 5.09226e+06 0 -185118 4.9689e+06 0 -223147 4.84445e+06 0 -236856 4.72759e+06 0 -233346 4.6225e+06 0 -218190 4.53072e+06 0 -195391 4.45248e+06 0 -167686 4.38742e+06 0 -136882 4.33501e+06 0 -104133 4.29472e+06 0 -70150 4.26608e+06 0 -35356.9 4.24878e+06 0 0 4.2426e+06 0 289901 5.14508e+06 0 185497 5.13112e+06 0 87562.1 5.08238e+06 0 5909.04 5.00736e+06 0 -54939.5 4.91616e+06 0 -95183.6 4.81853e+06 0 -117761 4.72189e+06 0 -126490 4.63107e+06 0 -124983 4.54893e+06 0 -116203 4.47695e+06 0 -102398 4.41585e+06 0 -85187.3 4.36587e+06 0 -65696 4.32703e+06 0 -44686.2 4.29927e+06 0 -22669.4 4.2825e+06 0 0 4.27665e+06 0 295662 5.05048e+06 0 223935 5.03707e+06 0 154849 4.99965e+06 0 93900 4.94157e+06 0 44477.4 4.86909e+06 0 7519.88 4.78882e+06 0 -17841.9 4.70655e+06 0 -33417 4.62678e+06 0 -41267 4.55267e+06 0 -43301.7 4.48631e+06 0 -41106.4 4.42901e+06 0 -35910.9 4.38153e+06 0 -28627.9 4.34431e+06 0 -19917.3 4.31758e+06 0 -10255.3 4.30145e+06 0 0 4.29597e+06 0 301576 4.98735e+06 0 254223 4.97489e+06 0 207270 4.94236e+06 0 163696 4.89278e+06 0 125606 4.83043e+06 0 93998.2 4.76024e+06 0 68872.3 4.68689e+06 0 49568 4.6144e+06 0 35115.9 4.54587e+06 0 24494.6 4.48358e+06 0 16777.6 4.42915e+06 0 11194.5 4.38363e+06 0 7138.42 4.34771e+06 0 4145.05 4.32182e+06 0 1859.62 4.3062e+06 0 0 4.30099e+06 0 307375 4.94967e+06 0 280632 4.93647e+06 0 252596 4.90539e+06 0 224390 4.85887e+06 0 197096 4.80062e+06 0 171475 4.73482e+06 0 147904 4.66562e+06 0 126432 4.59666e+06 0 106884 4.53094e+06 0 88974.8 4.47077e+06 0 72383.9 4.41784e+06 0 56809.1 4.37335e+06 0 41986.2 4.3381e+06 0 27694.4 4.31262e+06 0 13750.9 4.29723e+06 0 0 4.29211e+06 0 312913 4.9334e+06 0 306003 4.91887e+06 0 295934 4.88632e+06 0 282377 4.83858e+06 0 265532 4.77949e+06 0 245936 4.71322e+06 0 224244 4.64382e+06 0 201076 4.5748e+06 0 176940 4.50907e+06 0 152207 4.44889e+06 0 127130 4.39592e+06 0 101864 4.35135e+06 0 76492.4 4.31599e+06 0 51055.2 4.29039e+06 0 25560.6 4.27487e+06 0 0 4.26961e+06 0 318365 4.93904e+06 0 332894 4.92207e+06 0 341795 4.88495e+06 0 343253 4.83165e+06 0 336769 4.76686e+06 0 322854 4.69536e+06 0 302602 4.62151e+06 0 277308 4.54891e+06 0 248207 4.4804e+06 0 216344 4.41809e+06 0 182536 4.36353e+06 0 147385 4.31776e+06 0 111313 4.28151e+06 0 74607.1 4.25523e+06 0 37459.2 4.23922e+06 0 0 4.23362e+06 0 324189 4.97079e+06 0 364485 4.94897e+06 0 395328 4.90314e+06 0 413176 4.83876e+06 0 417043 4.7625e+06 0 407897 4.68049e+06 0 387754 4.59774e+06 0 358925 4.51802e+06 0 323569 4.44404e+06 0 283487 4.37764e+06 0 240075 4.32008e+06 0 194362 4.27214e+06 0 147075 4.23433e+06 0 98711.2 4.20695e+06 0 49607.7 4.19017e+06 0 0 4.18407e+06 0 331092 5.03593e+06 0 405702 5.00681e+06 0 464108 4.94504e+06 0 500481 4.86128e+06 0 514112 4.76575e+06 0 507586 4.66679e+06 0 484816 4.57025e+06 0 449751 4.47991e+06 0 405775 4.39804e+06 0 355545 4.32595e+06 0 301027 4.26434e+06 0 243619 4.21358e+06 0 184278 4.17381e+06 0 123641 4.14508e+06 0 62123 4.12741e+06 0 0 4.12077e+06 0 340644 5.15437e+06 0 465785 5.1083e+06 0 561164 5.01767e+06 0 618034 4.90052e+06 0 638594 4.77431e+06 0 629822 4.65036e+06 0 599315 4.53486e+06 0 553491 4.43077e+06 0 497228 4.33923e+06 0 434024 4.2605e+06 0 366299 4.19441e+06 0 295671 4.14067e+06 0 223193 4.09896e+06 0 149520 4.06898e+06 0 75045.7 4.05052e+06 0 0 4.04345e+06 0 355155 5.35703e+06 0 565721 5.28059e+06 0 712193 5.13052e+06 0 787193 4.95448e+06 0 805264 4.78119e+06 0 783853 4.6232e+06 0 736694 4.48434e+06 0 673194 4.3647e+06 0 599539 4.26306e+06 0 519700 4.1779e+06 0 436194 4.10785e+06 0 350574 4.05172e+06 0 263762 4.00864e+06 0 176263 3.97791e+06 0 88316.9 3.95908e+06 0 0 3.95188e+06 0 381919 5.74987e+06 0 764345 5.57287e+06 0 973662 5.28764e+06 0 1.04312e+06 5.00811e+06 0 1.03256e+06 4.76847e+06 0 978425 4.57012e+06 0 900654 4.40716e+06 0 810082 4.27337e+06 0 712777 4.16363e+06 0 612159 4.07407e+06 0 510150 4.00185e+06 0 407778 3.94489e+06 0 305527 3.90168e+06 0 203544 3.87121e+06 0 101765 3.85277e+06 0 0 3.84598e+06 0 450832 6.77844e+06 0 1.28956e+06 6.05677e+06 0 1.45633e+06 5.43313e+06 0 1.42766e+06 5.00594e+06 0 1.33304e+06 4.69745e+06 0 1.21574e+06 4.46607e+06 0 1.08968e+06 4.28735e+06 0 961750 4.14646e+06 0 834544 4.03427e+06 0 709351 3.94468e+06 0 586525 3.87367e+06 0 466037 3.81845e+06 0 347601 3.77714e+06 0 230793 3.74844e+06 0 115110 3.73153e+06 0 0 3.72596e+06 0 </DataArray> 
</PointData> 
<Points> 
<DataArray type="Float32" NumberOfComponents="3"> 
0.229974 0.064559 0 0.229976 0.0687884 0 0.229977 0.0730178 0 0.229979 0.0772472 0 0.229981 0.0814766 0 0.229983 0.085706 0 0.229984 0.0899354 0 0.229986 0.0941648 0 0.229988 0.0983942 0 0.22999 0.102624 0 0.229991 0.106853 0 0.229993 0.111082 0 0.229995 0.115312 0 0.229997 0.119541 0 0.229998 0.123771 0 0.23 0.128 0 0.235651 0.0642914 0 0.235608 0.0685387 0 0.235564 0.0727859 0 0.235521 0.0770331 0 0.235478 0.0812804 0 0.235434 0.0855276 0 0.235391 0.0897749 0 0.235347 0.0940221 0 0.235304 0.0982693 0 0.23526 0.102517 0 0.235217 0.106764 0 0.235174 0.111011 0 0.23513 0.115258 0 0.235087 0.119506 0 0.235043 0.123753 0 0.235 0.128 0 0.241036 0.0640226 0 0.240967 0.0682877 0 0.240898 0.0725529 0 0.240829 0.0768181 0 0.24076 0.0810832 0 0.240691 0.0853484 0 0.240622 0.0896135 0 0.240553 0.0938787 0 0.240484 0.0981439 0 0.240414 0.102409 0 0.240345 0.106674 0 0.240276 0.110939 0 0.240207 0.115205 0 0.240138 0.11947 0 0.240069 0.123735 0 0.24 0.128 0 0.246174 0.0637523 0 0.246096 0.0680354 0 0.246017 0.0723186 0 0.245939 0.0766018 0 0.245861 0.080885 0 0.245783 0.0851682 0 0.245704 0.0894514 0 0.245626 0.0937345 0 0.245548 0.0980177 0 0.24547 0.102301 0 0.245391 0.106584 0 0.245313 0.110867 0 0.245235 0.11515 0 0.245157 0.119434 0 0.245078 0.123717 0 0.245 0.128 0 0.25111 0.0634801 0 0.251036 0.0677814 0 0.250962 0.0720827 0 0.250888 0.0763841 0 0.250814 0.0806854 0 0.25074 0.0849867 0 0.250666 0.089288 0 0.250592 0.0935894 0 0.250518 0.0978907 0 0.250444 0.102192 0 0.25037 0.106493 0 0.250296 0.110795 0 0.250222 0.115096 0 0.250148 0.119397 0 0.250074 0.123699 0 0.25 0.128 0 0.255889 0.0632055 0 0.25583 0.0675251 0 0.255771 0.0718447 0 0.255711 0.0761644 0 0.255652 0.080484 0 0.255593 0.0848036 0 0.255534 0.0891233 0 0.255474 0.0934429 0 0.255415 0.0977625 0 0.255356 0.102082 0 0.255296 0.106402 0 0.255237 0.110721 0 0.255178 0.115041 0 0.255119 0.119361 0 0.255059 0.12368 0 0.255 0.128 0 0.260557 0.0629276 0 0.26052 0.0672657 0 0.260483 0.0716039 0 0.260446 0.0759421 0 0.260409 0.0802802 0 0.260372 0.0846184 0 0.260334 0.0889565 0 0.260297 0.0932947 0 0.26026 0.0976329 0 0.260223 0.101971 0 0.260186 0.106309 0 0.260149 0.110647 0 0.260111 0.114986 0 0.260074 0.119324 0 0.260037 0.123662 0 0.26 0.128 0 0.265159 0.0626454 0 0.265149 0.0670024 0 0.265138 0.0713594 0 0.265128 0.0757163 0 0.265117 0.0800733 0 0.265106 0.0844303 0 0.265096 0.0887873 0 0.265085 0.0931442 0 0.265074 0.0975012 0 0.265064 0.101858 0 0.265053 0.106215 0 0.265043 0.110572 0 0.265032 0.114929 0 0.265021 0.119286 0 0.265011 0.123643 0 0.265 0.128 0 0.269741 0.0623578 0 0.269758 0.0667339 0 0.269775 0.0711101 0 0.269793 0.0754862 0 0.26981 0.0798624 0 0.269827 0.0842385 0 0.269844 0.0886147 0 0.269862 0.0929908 0 0.269879 0.097367 0 0.269896 0.101743 0 0.269914 0.106119 0 0.269931 0.110495 0 0.269948 0.114872 0 0.269965 0.119248 0 0.269983 0.123624 0 0.27 0.128 0 0.274346 0.0620632 0 0.27439 0.066459 0 0.274433 0.0708548 0 0.274477 0.0752505 0 0.27452 0.0796463 0 0.274564 0.0840421 0 0.274608 0.0884379 0 0.274651 0.0928337 0 0.274695 0.0972295 0 0.274738 0.101625 0 0.274782 0.106021 0 0.274826 0.110417 0 0.274869 0.114813 0 0.274913 0.119208 0 0.274956 0.123604 0 0.275 0.128 0 0.279021 0.06176 0 0.279086 0.066176 0 0.279151 0.070592 0 0.279217 0.075008 0 0.279282 0.079424 0 0.279347 0.08384 0 0.279412 0.088256 0 0.279478 0.092672 0 0.279543 0.097088 0 0.279608 0.101504 0 0.279674 0.10592 0 0.279739 0.110336 0 0.279804 0.114752 0 0.279869 0.119168 0 0.279935 0.123584 0 0.28 0.128 0 0.28381 0.0614463 0 0.283889 0.0658832 0 0.283968 0.0703201 0 0.284048 0.074757 0 0.284127 0.079194 0 0.284206 0.0836309 0 0.284286 0.0880678 0 0.284365 0.0925047 0 0.284445 0.0969416 0 0.284524 0.101379 0 0.284603 0.105815 0 0.284683 0.110252 0 0.284762 0.114689 0 0.284841 0.119126 0 0.284921 0.123563 0 0.285 0.128 0 0.288758 0.0611201 0 0.288841 0.0655787 0 0.288924 0.0700374 0 0.289006 0.074496 0 0.289089 0.0789547 0 0.289172 0.0834134 0 0.289255 0.087872 0 0.289338 0.0923307 0 0.28942 0.0967894 0 0.289503 0.101248 0 0.289586 0.105707 0 0.289669 0.110165 0 0.289752 0.114624 0 0.289834 0.119083 0 0.289917 0.123541 0 0.29 0.128 0 0.29391 0.060779 0 0.293983 0.0652604 0 0.294056 0.0697418 0 0.294128 0.0742232 0 0.294201 0.0787046 0 0.294274 0.083186 0 0.294346 0.0876674 0 0.294419 0.0921488 0 0.294491 0.0966302 0 0.294564 0.101112 0 0.294637 0.105593 0 0.294709 0.110074 0 0.294782 0.114556 0 0.294855 0.119037 0 0.294927 0.123519 0 0.295 0.128 0 0.299312 0.0604205 0 0.299358 0.0649258 0 0.299404 0.0694311 0 0.299449 0.0739364 0 0.299495 0.0784417 0 0.299541 0.082947 0 0.299587 0.0874523 0 0.299633 0.0919576 0 0.299679 0.0964629 0 0.299725 0.100968 0 0.299771 0.105473 0 0.299816 0.109979 0 0.299862 0.114484 0 0.299908 0.118989 0 0.299954 0.123495 0 0.3 0.128 0 0.305007 0.0600419 0 0.305007 0.0645725 0 0.305006 0.069103 0 0.305006 0.0736335 0 0.305005 0.0781641 0 0.305005 0.0826946 0 0.305004 0.0872252 0 0.305004 0.0917557 0 0.305003 0.0962862 0 0.305003 0.100817 0 0.305002 0.105347 0 0.305002 0.109878 0 0.305001 0.114408 0 0.305001 0.118939 0 0.305 0.123469 0 0.305 0.128 0 
</DataArray>
</Points> 
</Piece> 
</StructuredGrid> 
</VTKFile> 
