<?xml version="1.0"?> 
<VTKFile type="StructuredGrid" version="0.1"> 
<StructuredGrid WholeExtent="0 15 0 15 0 0"> 
<Piece Extent="0 15 0 15 0 0"> 
<PointData>
<DataArray type="Float32" Name="E" format="ascii" NumberOfComponents="3"> 
85051.3 -3.422 0 83889.8 12636.3 0 80457.9 24795.5 0 74912.6 36031.8 0 67500.7 45942.7 0 58542.4 54206.3 0 48413.6 60561 0 37491.2 64870.1 0 26209.2 66995.9 0 14817.8 66986.7 0 3878.13 64671.6 0 -6906.93 60148.6 0 -16216.6 52848.9 0 -26213.1 41700.1 0 -32811.4 24743 0 0 -52487.9 0 67889.8 -2.61956 0 67042.3 9560.25 0 64536.3 18781.2 0 60479.8 27342.8 0 55045 34955.1 0 48457.9 41373.9 0 40984.7 46404.8 0 32920 49909.9 0 24568.4 51794.6 0 16258.1 52010.2 0 8304.45 50508.6 0 1150.08 47257.1 0 -4749.3 42167.3 0 -8187.35 35232.8 0 -7308.12 27420.3 0 0 21911.7 0 54833.4 -1.90758 0 54210.4 7308.08 0 52367.4 14372.8 0 49381 20963.6 0 45374.1 26870.6 0 40510.3 31913.2 0 34986.4 35948.2 0 29025.1 38869.1 0 22870.7 40614.5 0 16786.2 41155.4 0 11065.9 40521.8 0 6037.59 38785.2 0 2112.89 36159.8 0 -286.206 33081 0 -838.434 30195 0 0 29930.1 0 44805.3 -1.34738 0 44343.6 5646.22 0 42977.1 11117.5 0 40760.9 16248 0 37784.1 20886.1 0 34166.1 24902.1 0 30052.2 28192.6 0 25608.3 30686.9 0 21017.5 32346.6 0 16476.1 33178.5 0 12190.1 33229.8 0 8367.03 32623 0 5198.66 31549.2 0 2807.36 30310.3 0 1167.89 29415.3 0 0 28558.3 0 37020.2 -0.98006 0 36674.3 4408.54 0 35650.3 8691.5 0 33987.7 12729.8 0 31751.3 16414.9 0 29027.4 19654.3 0 25921.3 22376.5 0 22553 24533.4 0 19052.6 26106.9 0 15555.5 27108.4 0 12193.2 27590.5 0 9086.3 27640.8 0 6319.39 27398.1 0 3930.53 27033.1 0 1864.51 26666.2 0 0 26775.9 0 30915 -0.696635 0 30652.3 3475.43 0 29874 6860.8 0 28608.4 10070.8 0 26902.1 13027.9 0 24816.7 15666.7 0 22427.3 17936.7 0 19818.3 19806.1 0 17079.5 21263.2 0 14300.7 22320.4 0 11566.5 23011.9 0 8945.36 23398.8 0 6485.91 23557.3 0 4196.62 23576.3 0 2058.92 23569.8 0 0 23440 0 26085.4 -0.503153 0 25882.4 2760.79 0 25280.2 5456.96 0 24299.2 8027.34 0 22972.3 10416.4 0 21343.3 12577.3 0 19464.9 14474.3 0 17395.9 16084.3 0 15197.6 17399.1 0 12930.6 18424.8 0 10649.3 19183.5 0 8398.83 19708.9 0 6206.5 20046 0 4086.04 20242.6 0 2023.29 20329.1 0 0 20408.7 0 22241 -0.360604 0 22080.8 2202.94 0 21605.2 4359.36 0 20828.6 6425.22 0 19774.3 8360.46 0 18473.3 10131.2 0 16962.6 11711.2 0 15283.1 13083 0 13477.4 14239 0 11586.9 15181.3 0 9649.33 15920.7 0 7694.99 16476.2 0 5746.9 16870.9 0 3814.63 17129.3 0 1902.88 17279 0 0 17303.3 0 19173.2 -0.261224 0 19043.9 1757.92 0 18659.6 3482.21 0 18030.6 5140.96 0 17173.4 6705.03 0 16110.1 8149.54 0 14866.8 9454.81 0 13472.7 10607.1 0 11957.9 11599.2 0 10352 12429.9 0 8681.96 13103.8 0 6971.38 13629.9 0 5237.67 14020.4 0 3494.41 14287.8 0 1746.62 14441.2 0 0 14501 0 16731.5 -0.189054 0 16624.6 1394.46 0 16306.5 2764.51 0 15784.5 4086.95 0 15070.7 5340.45 0 14181 6506.55 0 13134.4 7570.3 0 11951.9 8520.74 0 10655.8 9351.04 0 9267.87 10058.4 0 7809.04 10643.7 0 6297.66 11110.7 0 4749.93 11464.6 0 3177.91 11711.6 0 1592.62 11858.1 0 0 11902.8 0 14807.1 -0.13682 0 14716.4 1090.12 0 14446.3 2162.56 0 14002.2 3200.48 0 13393 4188.25 0 12630.5 5112.2 0 11729 5960.97 0 10704.2 6725.81 0 9573.12 7400.71 0 8352.81 7982.28 0 7059.85 8469.47 0 5709.94 8863.07 0 4317.02 9165.16 0 2894.03 9378.37 0 1451.4 9504.89 0 0 9547.96 0 13321 -0.0975734 0 13242 828.555 0 13006.5 1644.49 0 12618.6 2435.72 0 12085.2 3190.99 0 11415.4 3900.29 0 10620.2 4555.16 0 9712.09 5148.81 0 8704.53 5676.25 0 7611.42 6134.19 0 6446.7 6520.86 0 5223.88 6835.74 0 3956.02 7079.2 0 2655.12 7252.08 0 1332.98 7355.37 0 0 7389.52 0 12216.5 -0.0670243 0 12145.7 597.52 0 11934.5 1186.36 0 11586.3 1758.19 0 11106.5 2305.19 0 10502.6 2820.36 0 9783.37 3297.65 0 8959.26 3732.09 0 8041.47 4119.85 0 7041.84 4458.19 0 5972.53 4745.33 0 4845.75 4980.33 0 3673.47 5162.85 0 2467.54 5292.96 0 1239.23 5370.9 0 0 5396.75 0 11453.6 -0.042021 0 11388.3 387.464 0 11193.2 769.483 0 10871.4 1140.82 0 10427.4 1496.54 0 9867.41 1832.18 0 9199.3 2143.84 0 8431.93 2428.28 0 7575.2 2682.9 0 6639.67 2905.75 0 5636.38 3095.49 0 4576.6 3251.24 0 3471.75 3372.55 0 2333.16 3459.22 0 1172.2 3511.18 0 0 3528.66 0 11005.9 -0.0202455 0 10943.7 190.561 0 10757.9 378.496 0 10451.2 561.274 0 10027.6 736.507 0 9492.98 902.023 0 8854.31 1055.91 0 8119.79 1196.57 0 7298.55 1322.68 0 6400.47 1433.25 0 5435.95 1527.54 0 4415.79 1605.08 0 3350.96 1665.56 0 2252.61 1708.82 0 1131.89 1734.82 0 0 1743.33 0 10858.4 0 0 10797.2 0 0 10614.4 0 0 10312.6 0 0 9895.68 0 0 9369.3 0 0 8740.24 0 0 8016.47 0 0 7206.88 0 0 6321.11 0 0 5369.39 0 0 4362.32 0 0 3310.76 0 0 2225.8 0 0 1118.45 0 0 0 0 0 </DataArray> 
</PointData> 
<Points> 
<DataArray type="Float32" NumberOfComponents="3"> 
0.416 0 0 0.416 0.00133333 0 0.416 0.00266667 0 0.416 0.004 0 0.416 0.00533333 0 0.416 0.00666667 0 0.416 0.008 0 0.416 0.00933333 0 0.416 0.0106667 0 0.416 0.012 0 0.416 0.0133333 0 0.416 0.0146667 0 0.416 0.016 0 0.416 0.0173333 0 0.416 0.0186667 0 0.416 0.02 0 0.418067 0 0 0.418067 0.00133333 0 0.418067 0.00266667 0 0.418067 0.004 0 0.418067 0.00533333 0 0.418067 0.00666667 0 0.418067 0.008 0 0.418067 0.00933333 0 0.418067 0.0106667 0 0.418067 0.012 0 0.418067 0.0133333 0 0.418067 0.0146667 0 0.418067 0.016 0 0.418067 0.0173333 0 0.418067 0.0186667 0 0.418067 0.02 0 0.420133 0 0 0.420133 0.00133333 0 0.420133 0.00266667 0 0.420133 0.004 0 0.420133 0.00533333 0 0.420133 0.00666667 0 0.420133 0.008 0 0.420133 0.00933333 0 0.420133 0.0106667 0 0.420133 0.012 0 0.420133 0.0133333 0 0.420133 0.0146667 0 0.420133 0.016 0 0.420133 0.0173333 0 0.420133 0.0186667 0 0.420133 0.02 0 0.4222 0 0 0.4222 0.00133333 0 0.4222 0.00266667 0 0.4222 0.004 0 0.4222 0.00533333 0 0.4222 0.00666667 0 0.4222 0.008 0 0.4222 0.00933333 0 0.4222 0.0106667 0 0.4222 0.012 0 0.4222 0.0133333 0 0.4222 0.0146667 0 0.4222 0.016 0 0.4222 0.0173333 0 0.4222 0.0186667 0 0.4222 0.02 0 0.424267 0 0 0.424267 0.00133333 0 0.424267 0.00266667 0 0.424267 0.004 0 0.424267 0.00533333 0 0.424267 0.00666667 0 0.424267 0.008 0 0.424267 0.00933333 0 0.424267 0.0106667 0 0.424267 0.012 0 0.424267 0.0133333 0 0.424267 0.0146667 0 0.424267 0.016 0 0.424267 0.0173333 0 0.424267 0.0186667 0 0.424267 0.02 0 0.426333 0 0 0.426333 0.00133333 0 0.426333 0.00266667 0 0.426333 0.004 0 0.426333 0.00533333 0 0.426333 0.00666667 0 0.426333 0.008 0 0.426333 0.00933333 0 0.426333 0.0106667 0 0.426333 0.012 0 0.426333 0.0133333 0 0.426333 0.0146667 0 0.426333 0.016 0 0.426333 0.0173333 0 0.426333 0.0186667 0 0.426333 0.02 0 0.4284 0 0 0.4284 0.00133333 0 0.4284 0.00266667 0 0.4284 0.004 0 0.4284 0.00533333 0 0.4284 0.00666667 0 0.4284 0.008 0 0.4284 0.00933333 0 0.4284 0.0106667 0 0.4284 0.012 0 0.4284 0.0133333 0 0.4284 0.0146667 0 0.4284 0.016 0 0.4284 0.0173333 0 0.4284 0.0186667 0 0.4284 0.02 0 0.430467 0 0 0.430467 0.00133333 0 0.430467 0.00266667 0 0.430467 0.004 0 0.430467 0.00533333 0 0.430467 0.00666667 0 0.430467 0.008 0 0.430467 0.00933333 0 0.430467 0.0106667 0 0.430467 0.012 0 0.430467 0.0133333 0 0.430467 0.0146667 0 0.430467 0.016 0 0.430467 0.0173333 0 0.430467 0.0186667 0 0.430467 0.02 0 0.432533 0 0 0.432533 0.00133333 0 0.432533 0.00266667 0 0.432533 0.004 0 0.432533 0.00533333 0 0.432533 0.00666667 0 0.432533 0.008 0 0.432533 0.00933333 0 0.432533 0.0106667 0 0.432533 0.012 0 0.432533 0.0133333 0 0.432533 0.0146667 0 0.432533 0.016 0 0.432533 0.0173333 0 0.432533 0.0186667 0 0.432533 0.02 0 0.4346 0 0 0.4346 0.00133333 0 0.4346 0.00266667 0 0.4346 0.004 0 0.4346 0.00533333 0 0.4346 0.00666667 0 0.4346 0.008 0 0.4346 0.00933333 0 0.4346 0.0106667 0 0.4346 0.012 0 0.4346 0.0133333 0 0.4346 0.0146667 0 0.4346 0.016 0 0.4346 0.0173333 0 0.4346 0.0186667 0 0.4346 0.02 0 0.436667 0 0 0.436667 0.00133333 0 0.436667 0.00266667 0 0.436667 0.004 0 0.436667 0.00533333 0 0.436667 0.00666667 0 0.436667 0.008 0 0.436667 0.00933333 0 0.436667 0.0106667 0 0.436667 0.012 0 0.436667 0.0133333 0 0.436667 0.0146667 0 0.436667 0.016 0 0.436667 0.0173333 0 0.436667 0.0186667 0 0.436667 0.02 0 0.438733 0 0 0.438733 0.00133333 0 0.438733 0.00266667 0 0.438733 0.004 0 0.438733 0.00533333 0 0.438733 0.00666667 0 0.438733 0.008 0 0.438733 0.00933333 0 0.438733 0.0106667 0 0.438733 0.012 0 0.438733 0.0133333 0 0.438733 0.0146667 0 0.438733 0.016 0 0.438733 0.0173333 0 0.438733 0.0186667 0 0.438733 0.02 0 0.4408 0 0 0.4408 0.00133333 0 0.4408 0.00266667 0 0.4408 0.004 0 0.4408 0.00533333 0 0.4408 0.00666667 0 0.4408 0.008 0 0.4408 0.00933333 0 0.4408 0.0106667 0 0.4408 0.012 0 0.4408 0.0133333 0 0.4408 0.0146667 0 0.4408 0.016 0 0.4408 0.0173333 0 0.4408 0.0186667 0 0.4408 0.02 0 0.442867 0 0 0.442867 0.00133333 0 0.442867 0.00266667 0 0.442867 0.004 0 0.442867 0.00533333 0 0.442867 0.00666667 0 0.442867 0.008 0 0.442867 0.00933333 0 0.442867 0.0106667 0 0.442867 0.012 0 0.442867 0.0133333 0 0.442867 0.0146667 0 0.442867 0.016 0 0.442867 0.0173333 0 0.442867 0.0186667 0 0.442867 0.02 0 0.444933 0 0 0.444933 0.00133333 0 0.444933 0.00266667 0 0.444933 0.004 0 0.444933 0.00533333 0 0.444933 0.00666667 0 0.444933 0.008 0 0.444933 0.00933333 0 0.444933 0.0106667 0 0.444933 0.012 0 0.444933 0.0133333 0 0.444933 0.0146667 0 0.444933 0.016 0 0.444933 0.0173333 0 0.444933 0.0186667 0 0.444933 0.02 0 0.447 0 0 0.447 0.00133333 0 0.447 0.00266667 0 0.447 0.004 0 0.447 0.00533333 0 0.447 0.00666667 0 0.447 0.008 0 0.447 0.00933333 0 0.447 0.0106667 0 0.447 0.012 0 0.447 0.0133333 0 0.447 0.0146667 0 0.447 0.016 0 0.447 0.0173333 0 0.447 0.0186667 0 0.447 0.02 0 
</DataArray>
</Points> 
</Piece> 
</StructuredGrid> 
</VTKFile> 
