<?xml version="1.0"?> 
<VTKFile type="StructuredGrid" version="0.1"> 
<StructuredGrid WholeExtent="0 15 0 15 0 0"> 
<Piece Extent="0 15 0 15 0 0"> 
<PointData>
<DataArray type="Float32" Name="E" format="ascii" NumberOfComponents="3"> 
5.58202e+06 -1.6397e+06 0 6.12825e+06 -1.50052e+06 0 6.71937e+06 -1.27124e+06 0 7.33709e+06 -921505 0 7.935e+06 -420934 0 8.44012e+06 245083 0 8.77181e+06 1.05601e+06 0 8.87427e+06 1.94636e+06 0 8.74407e+06 2.81831e+06 0 8.43335e+06 3.57421e+06 0 8.02716e+06 4.15013e+06 0 7.61127e+06 4.53091e+06 0 7.24869e+06 4.74276e+06 0 6.9714e+06 4.83436e+06 0 6.78253e+06 4.85911e+06 0 6.66077e+06 4.86509e+06 0 5.27274e+06 -570926 0 5.55739e+06 -266398 0 5.79025e+06 101346 0 5.95132e+06 510881 0 6.03173e+06 933220 0 6.03707e+06 1.34083e+06 0 5.98423e+06 1.71553e+06 0 5.89393e+06 2.05055e+06 0 5.78397e+06 2.34715e+06 0 5.66633e+06 2.60983e+06 0 5.54759e+06 2.84335e+06 0 5.43072e+06 3.05179e+06 0 5.31693e+06 3.23845e+06 0 5.20696e+06 3.406e+06 0 5.10183e+06 3.55672e+06 0 5.00277e+06 3.6931e+06 0 4.79833e+06 -22366 0 4.91573e+06 252729 0 4.98419e+06 549491 0 5.00369e+06 852066 0 4.98028e+06 1.14696e+06 0 4.92325e+06 1.42494e+06 0 4.84212e+06 1.68094e+06 0 4.74492e+06 1.91318e+06 0 4.6377e+06 2.12234e+06 0 4.5247e+06 2.31065e+06 0 4.40891e+06 2.48086e+06 0 4.29257e+06 2.63545e+06 0 4.17767e+06 2.77641e+06 0 4.06612e+06 2.90531e+06 0 3.95995e+06 3.02343e+06 0 3.86131e+06 3.13193e+06 0 4.3909e+06 231466 0 4.42642e+06 454983 0 4.42646e+06 688185 0 4.39374e+06 921553 0 4.3333e+06 1.14751e+06 0 4.25115e+06 1.36112e+06 0 4.15317e+06 1.56006e+06 0 4.04435e+06 1.74378e+06 0 3.92866e+06 1.91269e+06 0 3.8092e+06 2.06743e+06 0 3.68847e+06 2.20878e+06 0 3.56862e+06 2.33759e+06 0 3.4516e+06 2.45485e+06 0 3.33928e+06 2.56167e+06 0 3.23351e+06 2.65928e+06 0 3.13599e+06 2.74917e+06 0 4.07286e+06 333287 0 4.06197e+06 513510 0 4.02422e+06 700980 0 3.96235e+06 889620 0 3.88023e+06 1.07452e+06 0 3.7821e+06 1.2521e+06 0 3.67205e+06 1.41998e+06 0 3.55373e+06 1.57678e+06 0 3.43031e+06 1.72192e+06 0 3.30445e+06 1.85545e+06 0 3.17846e+06 1.97784e+06 0 3.05435e+06 2.08981e+06 0 2.93399e+06 2.19225e+06 0 2.81912e+06 2.28616e+06 0 2.71145e+06 2.37267e+06 0 2.61257e+06 2.45296e+06 0 3.8276e+06 349966 0 3.78536e+06 496642 0 3.72125e+06 651354 0 3.6378e+06 809713 0 3.53824e+06 967669 0 3.42604e+06 1.12187e+06 0 3.30454e+06 1.26982e+06 0 3.17678e+06 1.4098e+06 0 3.04542e+06 1.54082e+06 0 2.91279e+06 1.6624e+06 0 2.78094e+06 1.77453e+06 0 2.65178e+06 1.87754e+06 0 2.52702e+06 1.97208e+06 0 2.40827e+06 2.05898e+06 0 2.29705e+06 2.13923e+06 0 2.19473e+06 2.21396e+06 0 3.63826e+06 313371 0 3.57065e+06 432883 0 3.48381e+06 563109 0 3.38066e+06 700273 0 3.2644e+06 840588 0 3.13821e+06 980495 0 3.00503e+06 1.11696e+06 0 2.8675e+06 1.24765e+06 0 2.72795e+06 1.37097e+06 0 2.58844e+06 1.48602e+06 0 2.45077e+06 1.59247e+06 0 2.31659e+06 1.69048e+06 0 2.18738e+06 1.78054e+06 0 2.06454e+06 1.86342e+06 0 1.94941e+06 1.94005e+06 0 1.84321e+06 2.01151e+06 0 3.49364e+06 237123 0 3.40102e+06 334875 0 3.29093e+06 446700 0 3.167e+06 569748 0 3.03297e+06 699821 0 2.89215e+06 832536 0 2.74721e+06 963987 0 2.60035e+06 1.09107e+06 0 2.45336e+06 1.21163e+06 0 2.3078e+06 1.32432e+06 0 2.16506e+06 1.42858e+06 0 2.02641e+06 1.5244e+06 0 1.89303e+06 1.6122e+06 0 1.76604e+06 1.69274e+06 0 1.64652e+06 1.76695e+06 0 1.53547e+06 1.83592e+06 0 3.38465e+06 130383 0 3.26506e+06 207047 0 3.12808e+06 305597 0 2.98035e+06 421409 0 2.82693e+06 548668 0 2.67114e+06 681264 0 2.51508e+06 813844 0 2.36008e+06 942350 0 2.2071e+06 1.06402e+06 0 2.05697e+06 1.17727e+06 0 1.91051e+06 1.2814e+06 0 1.76851e+06 1.37644e+06 0 1.63178e+06 1.46286e+06 0 1.50116e+06 1.54148e+06 0 1.37749e+06 1.61334e+06 0 1.26164e+06 1.67961e+06 0 3.31204e+06 -12960 0 3.15446e+06 47617.2 0 2.98298e+06 139432 0 2.80711e+06 256791 0 2.63292e+06 390138 0 2.46309e+06 530217 0 2.29807e+06 669804 0 2.13758e+06 803901 0 1.98121e+06 929507 0 1.82884e+06 1.04505e+06 0 1.68054e+06 1.15004e+06 0 1.53663e+06 1.24467e+06 0 1.39758e+06 1.32965e+06 0 1.26394e+06 1.40597e+06 0 1.13634e+06 1.4748e+06 0 1.01543e+06 1.53743e+06 0 3.26666e+06 -193539 0 3.05987e+06 -149835 0 2.84283e+06 -54377.8 0 2.63409e+06 77564.4 0 2.43999e+06 228352 0 2.25961e+06 384121 0 2.08995e+06 535865 0 1.92797e+06 678527 0 1.77162e+06 809496 0 1.61965e+06 927830 0 1.47155e+06 1.03353e+06 0 1.32722e+06 1.12724e+06 0 1.18687e+06 1.20997e+06 0 1.05086e+06 1.28294e+06 0 919659 1.34749e+06 0 793829 1.40504e+06 0 3.26639e+06 -432070 0 2.97055e+06 -399717 0 2.69013e+06 -279394 0 2.44723e+06 -111923 0 2.23905e+06 70180.4 0 2.05565e+06 249041 0 1.88785e+06 416359 0 1.72952e+06 568594 0 1.57689e+06 704812 0 1.42802e+06 825169 0 1.28197e+06 930558 0 1.1385e+06 1.02215e+06 0 997695 1.10133e+06 0 859860 1.16955e+06 0 725385 1.2283e+06 0 594735 1.27903e+06 0 3.29323e+06 -791010 0 2.85659e+06 -727931 0 2.49846e+06 -533675 0 2.23218e+06 -300750 0 2.02476e+06 -74266.8 0 1.85002e+06 131921 0 1.69215e+06 314925 0 1.54267e+06 475565 0 1.39716e+06 615290 0 1.25351e+06 735986 0 1.11092e+06 839388 0 969210 927310 0 828576 1.00142e+06 0 689354 1.06337e+06 0 551957 1.11467e+06 0 416826 1.15675e+06 0 3.40357e+06 -1.33265e+06 0 2.6515e+06 -1.15851e+06 0 2.23244e+06 -797895 0 1.97928e+06 -468397 0 1.79808e+06 -192444 0 1.64565e+06 38521.3 0 1.50548e+06 233800 0 1.36908e+06 399332 0 1.23309e+06 539873 0 1.09609e+06 658527 0 957757 758076 0 818329 840646 0 678227 908202 0 537975 962392 0 398075 1.0047e+06 0 259017 1.03639e+06 0 3.34209e+06 -2.75213e+06 0 2.18154e+06 -1.66126e+06 0 1.86154e+06 -1.01023e+06 0 1.69696e+06 -586860 0 1.56628e+06 -274332 0 1.44914e+06 -27782.1 0 1.3313e+06 172573 0 1.21065e+06 338689 0 1.08532e+06 476514 0 955488 590836 0 821695 684565 0 684693 760300 0 545326 819938 0 404357 865122 0 262497 897123 0 120372 916936 0 -8982.22 -3.63233e+06 0 1.3492e+06 -1.83382e+06 0 1.44458e+06 -1.08904e+06 0 1.40027e+06 -637050 0 1.3478e+06 -315685 0 1.26513e+06 -68674.2 0 1.17384e+06 129565 0 1.06841e+06 290865 0 954066 423122 0 831158 530676 0 701731 617067 0 567069 684634 0 428498 735334 0 287139 770545 0 144005 791279 0 -0.514428 798123 0 </DataArray> 
</PointData> 
<Points> 
<DataArray type="Float32" NumberOfComponents="3"> 
0.318601 0.0384564 0 0.319115 0.0403586 0 0.319488 0.0420699 0 0.319729 0.0435898 0 0.319851 0.0449254 0 0.319867 0.0460894 0 0.319793 0.0470987 0 0.319646 0.0479724 0 0.319442 0.0487306 0 0.319195 0.0493929 0 0.318921 0.0499773 0 0.31863 0.0504994 0 0.318334 0.050972 0 0.318042 0.0514043 0 0.317761 0.0518018 0 0.317497 0.0521667 0 0.323894 0.0378927 0 0.324508 0.0400971 0 0.324968 0.0421394 0 0.325284 0.0440163 0 0.325468 0.045731 0 0.325536 0.0472922 0 0.325502 0.0487121 0 0.325383 0.0500051 0 0.325194 0.0511861 0 0.324948 0.0522694 0 0.324657 0.0532676 0 0.324334 0.054191 0 0.323986 0.0550464 0 0.323622 0.0558373 0 0.323246 0.0565637 0 0.322864 0.0572222 0 0.329187 0.0373289 0 0.329881 0.0398366 0 0.33041 0.0422085 0 0.330787 0.0444389 0 0.331023 0.0465277 0 0.331134 0.0484799 0 0.331135 0.0503038 0 0.33104 0.0520094 0 0.330865 0.0536072 0 0.330622 0.0551071 0 0.330322 0.0565168 0 0.329975 0.0578417 0 0.329587 0.0590836 0 0.329164 0.0602409 0 0.328711 0.0613085 0 0.328231 0.0622778 0 0.334481 0.0367651 0 0.335234 0.039577 0 0.335817 0.0422772 0 0.33624 0.0448576 0 0.336517 0.0473155 0 0.336662 0.0496528 0 0.336691 0.0518741 0 0.336619 0.0539859 0 0.336459 0.0559949 0 0.336221 0.0579069 0 0.335917 0.0597256 0 0.335553 0.0614521 0 0.335136 0.0630841 0 0.33467 0.0646153 0 0.334156 0.0660361 0 0.333598 0.0673333 0 0.339774 0.0362014 0 0.340569 0.0393183 0 0.341188 0.0423454 0 0.341644 0.0452725 0 0.34195 0.0480948 0 0.342122 0.0508112 0 0.342174 0.0534236 0 0.342121 0.0559353 0 0.341975 0.0583497 0 0.341746 0.0606694 0 0.341442 0.0628947 0 0.341071 0.065023 0 0.340636 0.0670484 0 0.340139 0.0689608 0 0.339582 0.0707467 0 0.338965 0.0723889 0 0.345067 0.0356376 0 0.345884 0.0390605 0 0.346523 0.0424131 0 0.346998 0.0456837 0 0.347324 0.0488655 0 0.347514 0.0519553 0 0.347585 0.0549525 0 0.347548 0.057858 0 0.347416 0.0606724 0 0.347197 0.0633955 0 0.3469 0.0660249 0 0.346528 0.068555 0 0.346085 0.0709769 0 0.345572 0.0732777 0 0.344988 0.0754404 0 0.344332 0.0774445 0 0.35036 0.0350739 0 0.35118 0.0388037 0 0.351823 0.0424804 0 0.352305 0.0460912 0 0.352639 0.0496278 0 0.352841 0.0530854 0 0.352924 0.0564614 0 0.352901 0.0597547 0 0.352783 0.0629636 0 0.352577 0.0660859 0 0.352291 0.0691168 0 0.351927 0.0720487 0 0.351486 0.0748703 0 0.35097 0.0775663 0 0.350375 0.0801173 0 0.349698 0.0825 0 0.355654 0.0345101 0 0.356457 0.0385478 0 0.357089 0.0425473 0 0.357564 0.046495 0 0.357897 0.0503819 0 0.358102 0.0542017 0 0.358194 0.0579507 0 0.358182 0.0616258 0 0.358078 0.065224 0 0.357887 0.0687412 0 0.357616 0.0721712 0 0.357267 0.0755047 0 0.356839 0.0787289 0 0.356332 0.0818268 0 0.355742 0.0847774 0 0.355065 0.0875556 0 0.360947 0.0339463 0 0.361715 0.0382929 0 0.36232 0.0426137 0 0.362776 0.0468952 0 0.363099 0.0511279 0 0.363301 0.0553046 0 0.363395 0.0594206 0 0.363393 0.0634718 0 0.363302 0.0674541 0 0.363129 0.0713621 0 0.362877 0.0751887 0 0.362549 0.0789236 0 0.362144 0.0825531 0 0.361659 0.0860596 0 0.36109 0.0894209 0 0.360432 0.0926111 0 0.36624 0.0333826 0 0.366954 0.0380388 0 0.367517 0.0426796 0 0.367942 0.0472919 0 0.368244 0.0518659 0 0.368436 0.0563942 0 0.36853 0.0608716 0 0.368534 0.0652933 0 0.368456 0.0696545 0 0.368302 0.0739494 0 0.368075 0.0781701 0 0.367776 0.0823061 0 0.367403 0.0863436 0 0.366952 0.0902648 0 0.36642 0.0940479 0 0.365799 0.0976667 0 0.371534 0.0328188 0 0.372175 0.0377857 0 0.37268 0.0427452 0 0.373062 0.0476851 0 0.373336 0.052596 0 0.373511 0.0574709 0 0.373598 0.0623041 0 0.373607 0.0670908 0 0.373543 0.0718259 0 0.37341 0.0765035 0 0.373211 0.0811159 0 0.372947 0.0856527 0 0.372614 0.0901006 0 0.372211 0.0944428 0 0.37173 0.0986583 0 0.371166 0.102722 0 0.376827 0.032255 0 0.377377 0.0375334 0 0.377809 0.0428103 0 0.378138 0.0480748 0 0.378373 0.0533184 0 0.378525 0.0585347 0 0.378603 0.0637183 0 0.378613 0.0688646 0 0.378562 0.0739689 0 0.378453 0.0790253 0 0.378287 0.0840268 0 0.378063 0.0889639 0 0.377781 0.0938247 0 0.377435 0.0985938 0 0.377021 0.103252 0 0.376533 0.107778 0 0.38212 0.0316913 0 0.38256 0.037282 0 0.382906 0.042875 0 0.383169 0.0484611 0 0.383357 0.0540333 0 0.38348 0.059586 0 0.383544 0.0651147 0 0.383555 0.0706154 0 0.383517 0.0760839 0 0.383432 0.0815152 0 0.383302 0.0869034 0 0.383126 0.0922404 0 0.382902 0.0975163 0 0.382626 0.102718 0 0.382294 0.10783 0 0.381899 0.112833 0 0.387413 0.0311275 0 0.387725 0.0370316 0 0.38797 0.0429393 0 0.388155 0.0488441 0 0.388289 0.0547406 0 0.388377 0.0606249 0 0.388423 0.0664936 0 0.388432 0.0723435 0 0.388407 0.0781715 0 0.388349 0.0839739 0 0.388259 0.0897463 0 0.388136 0.0954827 0 0.387978 0.101176 0 0.387783 0.106816 0 0.387548 0.112392 0 0.387266 0.117889 0 0.392707 0.0305638 0 0.392872 0.036782 0 0.393001 0.0430032 0 0.393099 0.0492237 0 0.39317 0.0554406 0 0.393216 0.0616517 0 0.393241 0.0678552 0 0.393247 0.0740493 0 0.393234 0.0802322 0 0.393205 0.086402 0 0.393158 0.0925561 0 0.393094 0.0986913 0 0.393011 0.104803 0 0.392908 0.110888 0 0.392783 0.116937 0 0.392633 0.122944 0 0.398 0.03 0 0.398 0.0365333 0 0.398 0.0430667 0 0.398 0.0496 0 0.398 0.0561333 0 0.398 0.0626667 0 0.398 0.0692 0 0.398 0.0757333 0 0.398 0.0822667 0 0.398 0.0888 0 0.398 0.0953333 0 0.398 0.101867 0 0.398 0.1084 0 0.398 0.114933 0 0.398 0.121467 0 0.398 0.128 0 
</DataArray>
</Points> 
</Piece> 
</StructuredGrid> 
</VTKFile> 
