<?xml version="1.0"?> 
<VTKFile type="StructuredGrid" version="0.1"> 
<StructuredGrid WholeExtent="0 15 0 15 0 0"> 
<Piece Extent="0 15 0 15 0 0"> 
<PointData>
<DataArray type="Float32" Name="E" format="ascii" NumberOfComponents="3"> 
-1.03606e+06 303181 0 -1.02196e+06 289685 0 -1.00795e+06 275976 0 -994057 262046 0 -980297 247890 0 -966685 233499 0 -953239 218858 0 -939985 203951 0 -926966 188739 0 -914258 173190 0 -901989 157236 0 -890382 140860 0 -879885 124029 0 -871324 107103 0 -866700 90369.7 0 -869165 74169.3 0 -1.05342e+06 390252 0 -1.03922e+06 377947 0 -1.02504e+06 365425 0 -1.01087e+06 352679 0 -996743 339703 0 -982670 326494 0 -968668 313050 0 -954755 299372 0 -940942 285458 0 -927235 271301 0 -913634 256888 0 -900123 242198 0 -886678 227212 0 -873258 211924 0 -859784 196257 0 -846186 179844 0 -1.07524e+06 475825 0 -1.06122e+06 464929 0 -1.04715e+06 453818 0 -1.03302e+06 442483 0 -1.01887e+06 430920 0 -1.00471e+06 419122 0 -990535 407081 0 -976364 394791 0 -962204 382248 0 -948075 369450 0 -933996 356404 0 -919994 343108 0 -906087 329553 0 -892274 315704 0 -878542 301583 0 -864884 287395 0 -1.10146e+06 557815 0 -1.08796e+06 548616 0 -1.07429e+06 539187 0 -1.06048e+06 529520 0 -1.04655e+06 519609 0 -1.03253e+06 509452 0 -1.01845e+06 499046 0 -1.00434e+06 488390 0 -990194 477481 0 -976035 466318 0 -961850 454896 0 -947635 443213 0 -933399 431277 0 -919183 419107 0 -905042 406680 0 -890949 393857 0 -1.13188e+06 633260 0 -1.11928e+06 626114 0 -1.10643e+06 618720 0 -1.09335e+06 611072 0 -1.08005e+06 603169 0 -1.06654e+06 595005 0 -1.05284e+06 586573 0 -1.03896e+06 577864 0 -1.02493e+06 568869 0 -1.01082e+06 559580 0 -996661 549996 0 -982503 540124 0 -968343 529981 0 -954129 519575 0 -939809 508913 0 -925513 497953 0 -1.1663e+06 697985 0 -1.15511e+06 693492 0 -1.14348e+06 688702 0 -1.13145e+06 683591 0 -1.11909e+06 678147 0 -1.10647e+06 672367 0 -1.09361e+06 666264 0 -1.08055e+06 659859 0 -1.06726e+06 653174 0 -1.05372e+06 646224 0 -1.03993e+06 638997 0 -1.02588e+06 631447 0 -1.01168e+06 623503 0 -997453 615125 0 -983315 606418 0 -968993 597902 0 -1.20423e+06 744281 0 -1.19537e+06 743278 0 -1.18586e+06 741983 0 -1.17572e+06 740388 0 -1.16495e+06 738465 0 -1.15361e+06 736171 0 -1.14174e+06 733447 0 -1.12944e+06 730231 0 -1.11682e+06 726483 0 -1.10401e+06 722211 0 -1.09106e+06 717495 0 -1.07798e+06 712491 0 -1.06466e+06 707378 0 -1.05091e+06 702195 0 -1.03672e+06 696498 0 -1.02272e+06 688730 0 -1.24487e+06 762910 0 -1.23905e+06 766497 0 -1.23235e+06 769551 0 -1.22488e+06 772084 0 -1.21673e+06 774147 0 -1.20795e+06 775823 0 -1.19853e+06 777205 0 -1.18844e+06 778358 0 -1.1776e+06 779278 0 -1.166e+06 779849 0 -1.15369e+06 779820 0 -1.14084e+06 778852 0 -1.12779e+06 776673 0 -1.11483e+06 773457 0 -1.10194e+06 770514 0 -1.08797e+06 771445 0 -1.28745e+06 733125 0 -1.28687e+06 744321 0 -1.28471e+06 755001 0 -1.28103e+06 765016 0 -1.27598e+06 774184 0 -1.26974e+06 782328 0 -1.26254e+06 789327 0 -1.25462e+06 795174 0 -1.24618e+06 800037 0 -1.23734e+06 804294 0 -1.22804e+06 808502 0 -1.21806e+06 813234 0 -1.20703e+06 818712 0 -1.19471e+06 824099 0 -1.18156e+06 826311 0 -1.16965e+06 818238 0 -1.32933e+06 627886 0 -1.33574e+06 647216 0 -1.34047e+06 665976 0 -1.3436e+06 684369 0 -1.34513e+06 702592 0 -1.34498e+06 720759 0 -1.34306e+06 738823 0 -1.33928e+06 756495 0 -1.33368e+06 773204 0 -1.32645e+06 788125 0 -1.31799e+06 800338 0 -1.3089e+06 809208 0 -1.2998e+06 815077 0 -1.29094e+06 820420 0 -1.28145e+06 831624 0 -1.26809e+06 861407 0 -1.36876e+06 404066 0 -1.38584e+06 440974 0 -1.39952e+06 475714 0 -1.41022e+06 507989 0 -1.41841e+06 537666 0 -1.42456e+06 564868 0 -1.42911e+06 590060 0 -1.43235e+06 614090 0 -1.43439e+06 638145 0 -1.43506e+06 663568 0 -1.43394e+06 691462 0 -1.43045e+06 721991 0 -1.42417e+06 753266 0 -1.41537e+06 779679 0 -1.406e+06 789532 0 -1.40106e+06 762092 0 -1.39885e+06 -51224.9 0 -1.43369e+06 7793.43 0 -1.46469e+06 67204.8 0 -1.49171e+06 126861 0 -1.51459e+06 186284 0 -1.53322e+06 244589 0 -1.54761e+06 300452 0 -1.55799e+06 352188 0 -1.56485e+06 397969 0 -1.56898e+06 436258 0 -1.57136e+06 466518 0 -1.573e+06 490304 0 -1.57444e+06 512805 0 -1.5751e+06 544962 0 -1.57218e+06 606304 0 -1.55913e+06 728114 0 -1.40847e+06 -798144 0 -1.46556e+06 -712978 0 -1.5161e+06 -632512 0 -1.5611e+06 -555954 0 -1.60148e+06 -481995 0 -1.63798e+06 -408845 0 -1.67109e+06 -334348 0 -1.70096e+06 -256266 0 -1.72736e+06 -172756 0 -1.74975e+06 -83112.3 0 -1.76742e+06 11185.8 0 -1.77983e+06 105032 0 -1.7871e+06 187824 0 -1.79082e+06 241087 0 -1.79518e+06 235455 0 -1.80837e+06 127706 0 -1.36245e+06 -2.2094e+06 0 -1.46513e+06 -2.05269e+06 0 -1.56151e+06 -1.89731e+06 0 -1.64981e+06 -1.74533e+06 0 -1.72876e+06 -1.5994e+06 0 -1.79762e+06 -1.46243e+06 0 -1.85626e+06 -1.3373e+06 0 -1.90521e+06 -1.22626e+06 0 -1.94555e+06 -1.1302e+06 0 -1.97888e+06 -1.04764e+06 0 -2.00698e+06 -973439 0 -2.03153e+06 -897239 0 -2.05347e+06 -801510 0 -2.07227e+06 -659281 0 -2.0849e+06 -431379 0 -2.08462e+06 -64193 0 -1.12837e+06 -3.6875e+06 0 -1.18555e+06 -3.65876e+06 0 -1.26406e+06 -3.61384e+06 0 -1.36193e+06 -3.55051e+06 0 -1.47665e+06 -3.46648e+06 0 -1.60516e+06 -3.35974e+06 0 -1.74375e+06 -3.22901e+06 0 -1.88804e+06 -3.07435e+06 0 -2.03301e+06 -2.8979e+06 0 -2.17302e+06 -2.70471e+06 0 -2.30202e+06 -2.50381e+06 0 -2.41369e+06 -2.30941e+06 0 -2.5018e+06 -2.14222e+06 0 -2.56063e+06 -2.03102e+06 0 -2.58557e+06 -2.01441e+06 0 -2.57367e+06 -2.14168e+06 0 -848101 -2.72127e+06 0 -785245 -2.77804e+06 0 -703933 -2.82294e+06 0 -609796 -2.85624e+06 0 -508409 -2.8824e+06 0 -406358 -2.9102e+06 0 -312236 -2.95354e+06 0 -237701 -3.0327e+06 0 -198649 -3.17602e+06 0 -216542 -3.42189e+06 0 -319900 -3.82103e+06 0 -545967 -4.43913e+06 0 -942553 -5.35976e+06 0 -1.57002e+06 -6.68743e+06 0 -2.50339e+06 -8.55091e+06 0 -3.83449e+06 -1.11063e+07 0 </DataArray> 
</PointData> 
<Points> 
<DataArray type="Float32" NumberOfComponents="3"> 
0.046 0.027 0 0.0437667 0.0286667 0 0.0415333 0.0303333 0 0.0393 0.032 0 0.0370667 0.0336667 0 0.0348333 0.0353333 0 0.0326 0.037 0 0.0303667 0.0386667 0 0.0281333 0.0403333 0 0.0259 0.042 0 0.0236667 0.0436667 0 0.0214333 0.0453333 0 0.0192 0.047 0 0.0169667 0.0486667 0 0.0147333 0.0503333 0 0.0125 0.052 0 0.0586667 0.027 0 0.0565222 0.0285911 0 0.0543778 0.0301822 0 0.0522333 0.0317733 0 0.0500889 0.0333644 0 0.0479444 0.0349556 0 0.0458 0.0365467 0 0.0436556 0.0381378 0 0.0415111 0.0397289 0 0.0393667 0.04132 0 0.0372222 0.0429111 0 0.0350778 0.0445022 0 0.0329333 0.0460933 0 0.0307889 0.0476844 0 0.0286444 0.0492756 0 0.0265 0.0508667 0 0.0713333 0.027 0 0.0692778 0.0285156 0 0.0672222 0.0300311 0 0.0651667 0.0315467 0 0.0631111 0.0330622 0 0.0610556 0.0345778 0 0.059 0.0360933 0 0.0569444 0.0376089 0 0.0548889 0.0391244 0 0.0528333 0.04064 0 0.0507778 0.0421556 0 0.0487222 0.0436711 0 0.0466667 0.0451867 0 0.0446111 0.0467022 0 0.0425556 0.0482178 0 0.0405 0.0497333 0 0.084 0.027 0 0.0820333 0.02844 0 0.0800667 0.02988 0 0.0781 0.03132 0 0.0761333 0.03276 0 0.0741667 0.0342 0 0.0722 0.03564 0 0.0702333 0.03708 0 0.0682667 0.03852 0 0.0663 0.03996 0 0.0643333 0.0414 0 0.0623667 0.04284 0 0.0604 0.04428 0 0.0584333 0.04572 0 0.0564667 0.04716 0 0.0545 0.0486 0 0.0966667 0.027 0 0.0947889 0.0283644 0 0.0929111 0.0297289 0 0.0910333 0.0310933 0 0.0891556 0.0324578 0 0.0872778 0.0338222 0 0.0854 0.0351867 0 0.0835222 0.0365511 0 0.0816444 0.0379156 0 0.0797667 0.03928 0 0.0778889 0.0406444 0 0.0760111 0.0420089 0 0.0741333 0.0433733 0 0.0722556 0.0447378 0 0.0703778 0.0461022 0 0.0685 0.0474667 0 0.109333 0.027 0 0.107544 0.0282889 0 0.105756 0.0295778 0 0.103967 0.0308667 0 0.102178 0.0321556 0 0.100389 0.0334444 0 0.0986 0.0347333 0 0.0968111 0.0360222 0 0.0950222 0.0373111 0 0.0932333 0.0386 0 0.0914444 0.0398889 0 0.0896556 0.0411778 0 0.0878667 0.0424667 0 0.0860778 0.0437556 0 0.0842889 0.0450444 0 0.0825 0.0463333 0 0.122 0.027 0 0.1203 0.0282133 0 0.1186 0.0294267 0 0.1169 0.03064 0 0.1152 0.0318533 0 0.1135 0.0330667 0 0.1118 0.03428 0 0.1101 0.0354933 0 0.1084 0.0367067 0 0.1067 0.03792 0 0.105 0.0391333 0 0.1033 0.0403467 0 0.1016 0.04156 0 0.0999 0.0427733 0 0.0982 0.0439867 0 0.0965 0.0452 0 0.134667 0.027 0 0.133056 0.0281378 0 0.131444 0.0292756 0 0.129833 0.0304133 0 0.128222 0.0315511 0 0.126611 0.0326889 0 0.125 0.0338267 0 0.123389 0.0349644 0 0.121778 0.0361022 0 0.120167 0.03724 0 0.118556 0.0383778 0 0.116944 0.0395156 0 0.115333 0.0406533 0 0.113722 0.0417911 0 0.112111 0.0429289 0 0.1105 0.0440667 0 0.147333 0.027 0 0.145811 0.0280622 0 0.144289 0.0291244 0 0.142767 0.0301867 0 0.141244 0.0312489 0 0.139722 0.0323111 0 0.1382 0.0333733 0 0.136678 0.0344356 0 0.135156 0.0354978 0 0.133633 0.03656 0 0.132111 0.0376222 0 0.130589 0.0386844 0 0.129067 0.0397467 0 0.127544 0.0408089 0 0.126022 0.0418711 0 0.1245 0.0429333 0 0.16 0.027 0 0.158567 0.0279867 0 0.157133 0.0289733 0 0.1557 0.02996 0 0.154267 0.0309467 0 0.152833 0.0319333 0 0.1514 0.03292 0 0.149967 0.0339067 0 0.148533 0.0348933 0 0.1471 0.03588 0 0.145667 0.0368667 0 0.144233 0.0378533 0 0.1428 0.03884 0 0.141367 0.0398267 0 0.139933 0.0408133 0 0.1385 0.0418 0 0.172667 0.027 0 0.171322 0.0279111 0 0.169978 0.0288222 0 0.168633 0.0297333 0 0.167289 0.0306444 0 0.165944 0.0315556 0 0.1646 0.0324667 0 0.163256 0.0333778 0 0.161911 0.0342889 0 0.160567 0.0352 0 0.159222 0.0361111 0 0.157878 0.0370222 0 0.156533 0.0379333 0 0.155189 0.0388444 0 0.153844 0.0397556 0 0.1525 0.0406667 0 0.185333 0.027 0 0.184078 0.0278356 0 0.182822 0.0286711 0 0.181567 0.0295067 0 0.180311 0.0303422 0 0.179056 0.0311778 0 0.1778 0.0320133 0 0.176544 0.0328489 0 0.175289 0.0336844 0 0.174033 0.03452 0 0.172778 0.0353556 0 0.171522 0.0361911 0 0.170267 0.0370267 0 0.169011 0.0378622 0 0.167756 0.0386978 0 0.1665 0.0395333 0 0.198 0.027 0 0.196833 0.02776 0 0.195667 0.02852 0 0.1945 0.02928 0 0.193333 0.03004 0 0.192167 0.0308 0 0.191 0.03156 0 0.189833 0.03232 0 0.188667 0.03308 0 0.1875 0.03384 0 0.186333 0.0346 0 0.185167 0.03536 0 0.184 0.03612 0 0.182833 0.03688 0 0.181667 0.03764 0 0.1805 0.0384 0 0.210667 0.027 0 0.209589 0.0276844 0 0.208511 0.0283689 0 0.207433 0.0290533 0 0.206356 0.0297378 0 0.205278 0.0304222 0 0.2042 0.0311067 0 0.203122 0.0317911 0 0.202044 0.0324756 0 0.200967 0.03316 0 0.199889 0.0338444 0 0.198811 0.0345289 0 0.197733 0.0352133 0 0.196656 0.0358978 0 0.195578 0.0365822 0 0.1945 0.0372667 0 0.223333 0.027 0 0.222344 0.0276089 0 0.221356 0.0282178 0 0.220367 0.0288267 0 0.219378 0.0294356 0 0.218389 0.0300444 0 0.2174 0.0306533 0 0.216411 0.0312622 0 0.215422 0.0318711 0 0.214433 0.03248 0 0.213444 0.0330889 0 0.212456 0.0336978 0 0.211467 0.0343067 0 0.210478 0.0349156 0 0.209489 0.0355244 0 0.2085 0.0361333 0 0.236 0.027 0 0.2351 0.0275333 0 0.2342 0.0280667 0 0.2333 0.0286 0 0.2324 0.0291333 0 0.2315 0.0296667 0 0.2306 0.0302 0 0.2297 0.0307333 0 0.2288 0.0312667 0 0.2279 0.0318 0 0.227 0.0323333 0 0.2261 0.0328667 0 0.2252 0.0334 0 0.2243 0.0339333 0 0.2234 0.0344667 0 0.2225 0.035 0 
</DataArray>
</Points> 
</Piece> 
</StructuredGrid> 
</VTKFile> 
