<?xml version="1.0"?> 
<VTKFile type="StructuredGrid" version="0.1"> 
<StructuredGrid WholeExtent="0 15 0 15 0 0"> 
<Piece Extent="0 15 0 15 0 0"> 
<PointData>
<DataArray type="Float32" Name="E" format="ascii" NumberOfComponents="3"> 
-529211 0 0 -494167 0 0 -459103 0 0 -424005 0 0 -388868 0 0 -353687 0 0 -318464 0 0 -283198 0 0 -247892 0 0 -212550 0 0 -177176 0 0 -141775 0 0 -106351 0 0 -70910.5 0 0 -35458.1 0 0 0 0 0 -529211 10186 0 -494168 10189.3 0 -459104 10197.4 0 -424007 10208.3 0 -388870 10220.5 0 -353689 10233.2 0 -318465 10245.7 0 -283199 10257.6 0 -247894 10268.7 0 -212552 10278.7 0 -177178 10287.4 0 -141776 10294.6 0 -106352 10300.4 0 -70910.9 10304.5 0 -35458.4 10307.1 0 0 10307.9 0 -529211 20371.4 0 -494170 20378.1 0 -459108 20394.6 0 -424012 20416.5 0 -388875 20441 0 -353695 20466.4 0 -318471 20491.5 0 -283204 20515.4 0 -247898 20537.5 0 -212556 20557.5 0 -177181 20574.8 0 -141779 20589.4 0 -106354 20600.9 0 -70912.4 20609.2 0 -35459.1 20614.3 0 0 20615.9 0 -529211 30555.3 0 -494175 30566.2 0 -459115 30591.4 0 -424021 30624.5 0 -388884 30661.4 0 -353704 30699.6 0 -318480 30737.3 0 -283213 30773.2 0 -247906 30806.5 0 -212563 30836.5 0 -177187 30862.6 0 -141784 30884.4 0 -106358 30901.7 0 -70914.8 30914.2 0 -35460.3 30921.7 0 0 30924.3 0 -529211 40737.1 0 -494182 40753 0 -459126 40787.5 0 -424033 40832.1 0 -388897 40881.7 0 -353717 40932.9 0 -318492 40983.3 0 -283225 41031.3 0 -247917 41075.8 0 -212572 41115.8 0 -177195 41150.6 0 -141790 41179.8 0 -106363 41202.9 0 -70918.2 41219.5 0 -35462 41229.6 0 0 41233 0 -529212 50916.2 0 -494191 50938.4 0 -459139 50982.8 0 -424048 51039.4 0 -388914 51101.9 0 -353734 51166.2 0 -318509 51229.5 0 -283240 51289.7 0 -247931 51345.5 0 -212584 51395.6 0 -177206 51439.2 0 -141799 51475.7 0 -106369 51504.6 0 -70922.6 51525.5 0 -35464.2 51538.1 0 0 51542.3 0 -529215 61092.1 0 -494202 61121.9 0 -459156 61177 0 -424068 61246.2 0 -388934 61322 0 -353754 61399.7 0 -318528 61476 0 -283259 61548.5 0 -247948 61615.6 0 -212599 61675.9 0 -177218 61728.4 0 -141809 61772.3 0 -106377 61807 0 -70928 61832.1 0 -35466.9 61847.3 0 0 61852.4 0 -529219 71264.3 0 -494217 71303.2 0 -459176 71370.1 0 -424091 71452.4 0 -388959 71541.9 0 -353779 71633.2 0 -318552 71722.8 0 -283281 71807.8 0 -247968 71886.3 0 -212617 71956.9 0 -177234 72018.3 0 -141822 72069.6 0 -106387 72110.2 0 -70934.4 72139.6 0 -35470.1 72157.3 0 0 72163.3 0 -529226 81432.4 0 -494235 81482.3 0 -459200 81562 0 -424118 81658 0 -388987 81761.7 0 -353807 81867 0 -318579 81969.9 0 -283306 82067.6 0 -247991 82157.7 0 -212638 82238.6 0 -177251 82309 0 -141836 82367.9 0 -106398 82414.4 0 -70941.7 82448 0 -35473.8 82468.4 0 0 82475.2 0 -529235 91596.2 0 -494256 91658.8 0 -459228 91752.5 0 -424150 91863.1 0 -389020 91981.3 0 -353840 92100.9 0 -318611 92217.6 0 -283335 92328 0 -248018 92429.9 0 -212661 92521.3 0 -177271 92600.7 0 -141852 92667.1 0 -106410 92719.7 0 -70950.1 92757.6 0 -35478.1 92780.6 0 0 92788.2 0 -529249 101755 0 -494282 101833 0 -459261 101942 0 -424186 102067 0 -389057 102201 0 -353876 102335 0 -318646 102466 0 -283368 102589 0 -248047 102703 0 -212688 102805 0 -177294 102894 0 -141871 102968 0 -106424 103026 0 -70959.5 103068 0 -35482.8 103094 0 0 103103 0 -529267 111910 0 -494312 112004 0 -459298 112129 0 -424226 112271 0 -389099 112420 0 -353917 112570 0 -318685 112714 0 -283405 112851 0 -248081 112977 0 -212717 113090 0 -177319 113188 0 -141891 113269 0 -106440 113334 0 -70969.9 113381 0 -35488 113409 0 0 113418 0 -529291 122060 0 -494347 122173 0 -459340 122316 0 -424271 122474 0 -389144 122640 0 -353962 122805 0 -318728 122964 0 -283445 123114 0 -248117 123252 0 -212749 123376 0 -177346 123483 0 -141913 123573 0 -106457 123643 0 -70981.3 123695 0 -35493.7 123725 0 0 123736 0 -529320 132206 0 -494388 132339 0 -459387 132501 0 -424321 132677 0 -389195 132859 0 -354012 133040 0 -318775 133214 0 -283489 133378 0 -248157 133529 0 -212784 133663 0 -177376 133780 0 -141938 133877 0 -106475 133954 0 -70993.8 134010 0 -35500 134044 0 0 134055 0 -529356 142348 0 -494435 142503 0 -459439 142684 0 -424376 142879 0 -389251 143079 0 -354066 143276 0 -318827 143465 0 -283536 143643 0 -248200 143806 0 -212822 143952 0 -177409 144079 0 -141964 144184 0 -106495 144267 0 -71007.3 144327 0 -35506.8 144364 0 0 144376 0 -529398 152485 0 -494487 152665 0 -459497 152867 0 -424437 153081 0 -389311 153299 0 -354125 153512 0 -318882 153717 0 -283588 153910 0 -248247 154085 0 -212864 154243 0 -177444 154379 0 -141993 154492 0 -106517 154582 0 -71021.9 154647 0 -35514.1 154686 0 0 154699 0 </DataArray> 
</PointData> 
<Points> 
<DataArray type="Float32" NumberOfComponents="3"> 
0 0.085 0 0 0.0878667 0 0 0.0907333 0 0 0.0936 0 0 0.0964667 0 0 0.0993333 0 0 0.1022 0 0 0.105067 0 0 0.107933 0 0 0.1108 0 0 0.113667 0 0 0.116533 0 0 0.1194 0 0 0.122267 0 0 0.125133 0 0 0.128 0 0.000833333 0.085 0 0.000833333 0.0878667 0 0.000833333 0.0907333 0 0.000833333 0.0936 0 0.000833333 0.0964667 0 0.000833333 0.0993333 0 0.000833333 0.1022 0 0.000833333 0.105067 0 0.000833333 0.107933 0 0.000833333 0.1108 0 0.000833333 0.113667 0 0.000833333 0.116533 0 0.000833333 0.1194 0 0.000833333 0.122267 0 0.000833333 0.125133 0 0.000833333 0.128 0 0.00166667 0.085 0 0.00166667 0.0878667 0 0.00166667 0.0907333 0 0.00166667 0.0936 0 0.00166667 0.0964667 0 0.00166667 0.0993333 0 0.00166667 0.1022 0 0.00166667 0.105067 0 0.00166667 0.107933 0 0.00166667 0.1108 0 0.00166667 0.113667 0 0.00166667 0.116533 0 0.00166667 0.1194 0 0.00166667 0.122267 0 0.00166667 0.125133 0 0.00166667 0.128 0 0.0025 0.085 0 0.0025 0.0878667 0 0.0025 0.0907333 0 0.0025 0.0936 0 0.0025 0.0964667 0 0.0025 0.0993333 0 0.0025 0.1022 0 0.0025 0.105067 0 0.0025 0.107933 0 0.0025 0.1108 0 0.0025 0.113667 0 0.0025 0.116533 0 0.0025 0.1194 0 0.0025 0.122267 0 0.0025 0.125133 0 0.0025 0.128 0 0.00333333 0.085 0 0.00333333 0.0878667 0 0.00333333 0.0907333 0 0.00333333 0.0936 0 0.00333333 0.0964667 0 0.00333333 0.0993333 0 0.00333333 0.1022 0 0.00333333 0.105067 0 0.00333333 0.107933 0 0.00333333 0.1108 0 0.00333333 0.113667 0 0.00333333 0.116533 0 0.00333333 0.1194 0 0.00333333 0.122267 0 0.00333333 0.125133 0 0.00333333 0.128 0 0.00416667 0.085 0 0.00416667 0.0878667 0 0.00416667 0.0907333 0 0.00416667 0.0936 0 0.00416667 0.0964667 0 0.00416667 0.0993333 0 0.00416667 0.1022 0 0.00416667 0.105067 0 0.00416667 0.107933 0 0.00416667 0.1108 0 0.00416667 0.113667 0 0.00416667 0.116533 0 0.00416667 0.1194 0 0.00416667 0.122267 0 0.00416667 0.125133 0 0.00416667 0.128 0 0.005 0.085 0 0.005 0.0878667 0 0.005 0.0907333 0 0.005 0.0936 0 0.005 0.0964667 0 0.005 0.0993333 0 0.005 0.1022 0 0.005 0.105067 0 0.005 0.107933 0 0.005 0.1108 0 0.005 0.113667 0 0.005 0.116533 0 0.005 0.1194 0 0.005 0.122267 0 0.005 0.125133 0 0.005 0.128 0 0.00583333 0.085 0 0.00583333 0.0878667 0 0.00583333 0.0907333 0 0.00583333 0.0936 0 0.00583333 0.0964667 0 0.00583333 0.0993333 0 0.00583333 0.1022 0 0.00583333 0.105067 0 0.00583333 0.107933 0 0.00583333 0.1108 0 0.00583333 0.113667 0 0.00583333 0.116533 0 0.00583333 0.1194 0 0.00583333 0.122267 0 0.00583333 0.125133 0 0.00583333 0.128 0 0.00666667 0.085 0 0.00666667 0.0878667 0 0.00666667 0.0907333 0 0.00666667 0.0936 0 0.00666667 0.0964667 0 0.00666667 0.0993333 0 0.00666667 0.1022 0 0.00666667 0.105067 0 0.00666667 0.107933 0 0.00666667 0.1108 0 0.00666667 0.113667 0 0.00666667 0.116533 0 0.00666667 0.1194 0 0.00666667 0.122267 0 0.00666667 0.125133 0 0.00666667 0.128 0 0.0075 0.085 0 0.0075 0.0878667 0 0.0075 0.0907333 0 0.0075 0.0936 0 0.0075 0.0964667 0 0.0075 0.0993333 0 0.0075 0.1022 0 0.0075 0.105067 0 0.0075 0.107933 0 0.0075 0.1108 0 0.0075 0.113667 0 0.0075 0.116533 0 0.0075 0.1194 0 0.0075 0.122267 0 0.0075 0.125133 0 0.0075 0.128 0 0.00833333 0.085 0 0.00833333 0.0878667 0 0.00833333 0.0907333 0 0.00833333 0.0936 0 0.00833333 0.0964667 0 0.00833333 0.0993333 0 0.00833333 0.1022 0 0.00833333 0.105067 0 0.00833333 0.107933 0 0.00833333 0.1108 0 0.00833333 0.113667 0 0.00833333 0.116533 0 0.00833333 0.1194 0 0.00833333 0.122267 0 0.00833333 0.125133 0 0.00833333 0.128 0 0.00916667 0.085 0 0.00916667 0.0878667 0 0.00916667 0.0907333 0 0.00916667 0.0936 0 0.00916667 0.0964667 0 0.00916667 0.0993333 0 0.00916667 0.1022 0 0.00916667 0.105067 0 0.00916667 0.107933 0 0.00916667 0.1108 0 0.00916667 0.113667 0 0.00916667 0.116533 0 0.00916667 0.1194 0 0.00916667 0.122267 0 0.00916667 0.125133 0 0.00916667 0.128 0 0.01 0.085 0 0.01 0.0878667 0 0.01 0.0907333 0 0.01 0.0936 0 0.01 0.0964667 0 0.01 0.0993333 0 0.01 0.1022 0 0.01 0.105067 0 0.01 0.107933 0 0.01 0.1108 0 0.01 0.113667 0 0.01 0.116533 0 0.01 0.1194 0 0.01 0.122267 0 0.01 0.125133 0 0.01 0.128 0 0.0108333 0.085 0 0.0108333 0.0878667 0 0.0108333 0.0907333 0 0.0108333 0.0936 0 0.0108333 0.0964667 0 0.0108333 0.0993333 0 0.0108333 0.1022 0 0.0108333 0.105067 0 0.0108333 0.107933 0 0.0108333 0.1108 0 0.0108333 0.113667 0 0.0108333 0.116533 0 0.0108333 0.1194 0 0.0108333 0.122267 0 0.0108333 0.125133 0 0.0108333 0.128 0 0.0116667 0.085 0 0.0116667 0.0878667 0 0.0116667 0.0907333 0 0.0116667 0.0936 0 0.0116667 0.0964667 0 0.0116667 0.0993333 0 0.0116667 0.1022 0 0.0116667 0.105067 0 0.0116667 0.107933 0 0.0116667 0.1108 0 0.0116667 0.113667 0 0.0116667 0.116533 0 0.0116667 0.1194 0 0.0116667 0.122267 0 0.0116667 0.125133 0 0.0116667 0.128 0 0.0125 0.085 0 0.0125 0.0878667 0 0.0125 0.0907333 0 0.0125 0.0936 0 0.0125 0.0964667 0 0.0125 0.0993333 0 0.0125 0.1022 0 0.0125 0.105067 0 0.0125 0.107933 0 0.0125 0.1108 0 0.0125 0.113667 0 0.0125 0.116533 0 0.0125 0.1194 0 0.0125 0.122267 0 0.0125 0.125133 0 0.0125 0.128 0 
</DataArray>
</Points> 
</Piece> 
</StructuredGrid> 
</VTKFile> 
