<?xml version="1.0"?> 
<VTKFile type="StructuredGrid" version="0.1"> 
<StructuredGrid WholeExtent="0 15 0 15 0 0"> 
<Piece Extent="0 15 0 15 0 0"> 
<PointData>
<DataArray type="Float32" Name="E" format="ascii" NumberOfComponents="3"> 
-547515 -1.71582e+06 0 527219 -1.30593e+06 0 880714 -941573 0 982207 -615430 0 1.03164e+06 -352365 0 1.00986e+06 -140078 0 967703 34264.2 0 898571 177233 0 815476 295149 0 718710 391249 0 612446 468665 0 498383 529326 0 378558 574946 0 254599 606678 0 127945 625390 0 0 631571 0 -281329 -1.50982e+06 0 504905 -1.26531e+06 0 832109 -919946 0 960241 -607771 0 1.00402e+06 -351707 0 992366 -142968 0 950837 28401.7 0 885827 169654 0 804509 285960 0 710013 380983 0 605455 457456 0 493016 517450 0 374654 562549 0 252045 593937 0 126693 612442 0 0 618555 0 -213616 -1.38425e+06 0 475666 -1.22014e+06 0 795708 -898543 0 933347 -599576 0 979947 -350384 0 973682 -145623 0 934922 22955.7 0 872931 162267 0 793814 277031 0 701369 370887 0 598560 446431 0 487709 505723 0 370792 550298 0 249524 581328 0 125450 599624 0 0 605667 0 -172872 -1.29059e+06 0 448052 -1.17456e+06 0 762909 -877019 0 906364 -590857 0 956931 -348550 0 955070 -147944 0 919369 17841.6 0 860156 155117 0 783280 268330 0 692825 360976 0 591752 435578 0 482465 494147 0 366973 538188 0 247033 568852 0 124221 586933 0 0 592906 0 -144830 -1.21398e+06 0 422879 -1.12991e+06 0 732576 -855349 0 879899 -581659 0 934656 -346268 0 936699 -149915 0 904107 13030.3 0 847542 148212 0 772896 259845 0 684386 351251 0 585029 424893 0 477284 482721 0 363201 526217 0 244571 556506 0 123006 574367 0 0 580268 0 -123452 -1.14868e+06 0 400270 -1.08671e+06 0 704195 -833594 0 854200 -572037 0 913000 -343574 0 918641 -151540 0 889111 8507.88 0 835105 141550 0 762659 251570 0 676059 341709 0 578394 414371 0 472170 471445 0 359476 514384 0 242140 544289 0 121806 561926 0 0 567754 0 -105580 -1.09082e+06 0 380094 -1.04524e+06 0 677489 -811826 0 829370 -562042 0 891908 -340500 0 900929 -152830 0 874371 4263.96 0 822857 135129 0 752569 243500 0 667847 332350 0 571848 404011 0 467122 460315 0 355800 502686 0 239741 532199 0 120621 549608 0 0 555360 0 -90216 -1.0385e+06 0 362087 -1.00561e+06 0 652328 -790120 0 805424 -551725 0 871370 -337070 0 883577 -153798 0 859889 290.336 0 810802 128942 0 742629 235633 0 659751 323170 0 565393 393811 0 462143 449330 0 352172 491122 0 237373 520235 0 119452 537411 0 0 543086 0 -76070.7 -990386 0 345997 -967843 0 628592 -768546 0 782368 -541134 0 851377 -333311 0 866593 -154458 0 845668 -3421.06 0 798944 122985 0 732841 227963 0 651774 314166 0 559029 383767 0 457234 438488 0 348595 479689 0 235037 508396 0 118299 525333 0 0 530930 0 -62689.7 -945770 0 331549 -931920 0 606207 -747163 0 760180 -530312 0 831932 -329247 0 849980 -154825 0 831712 -6878.17 0 787286 117251 0 723207 220488 0 643918 305334 0 552760 373878 0 452396 427786 0 345068 468386 0 232735 496678 0 117162 513373 0 0 518890 0 -49132.1 -904326 0 318509 -897792 0 585081 -726020 0 738845 -519298 0 813030 -324900 0 833741 -154911 0 818025 -10089.1 0 775832 111736 0 713731 213203 0 636186 296673 0 546586 364140 0 447630 417223 0 341594 457211 0 230466 485082 0 116042 501529 0 0 506965 0 -34806.1 -866040 0 306651 -865390 0 565137 -705159 0 718341 -508130 0 794672 -320294 0 817878 -154731 0 804609 -13062.2 0 764584 106434 0 704415 206105 0 628578 288177 0 540509 354552 0 442938 406796 0 338172 446161 0 228231 473604 0 114938 489800 0 0 495153 0 -18088.7 -831734 0 295825 -834582 0 546242 -684613 0 698675 -496841 0 776836 -315449 0 802400 -154298 0 791465 -15805.3 0 753546 101338 0 695260 199189 0 621097 279846 0 534531 345110 0 438320 396503 0 334804 435236 0 226031 462242 0 113852 478183 0 0 483452 0 3923.05 -802909 0 285987 -805179 0 528180 -664419 0 679904 -485460 0 759477 -310385 0 787327 -153627 0 778584 -18325.2 0 742724 96443.8 0 686267 192452 0 613746 271674 0 528652 335813 0 433778 386342 0 331491 424432 0 223866 450996 0 112783 466677 0 0 471860 0 37987.8 -785013 0 277384 -776665 0 510487 -644639 0 662230 -474018 0 742471 -305109 0 772719 -152740 0 765941 -20623.4 0 732134 91740.1 0 677432 185892 0 606529 263658 0 522874 326658 0 429313 376309 0 328233 413748 0 221737 439863 0 111732 455280 0 0 460377 0 165595 -798893 0 273858 -747320 0 489216 -625481 0 647819 -462559 0 724673 -299590 0 759142 -151693 0 753269 -22677.6 0 721899 87202.5 0 668707 179516 0 599465 255787 0 517192 317646 0 424927 366402 0 325033 403184 0 219643 428841 0 110700 443991 0 0 448999 0 </DataArray> 
</PointData> 
<Points> 
<DataArray type="Float32" NumberOfComponents="3"> 
0.406 0.03 0 0.406 0.0365333 0 0.406 0.0430667 0 0.406 0.0496 0 0.406 0.0561333 0 0.406 0.0626667 0 0.406 0.0692 0 0.406 0.0757333 0 0.406 0.0822667 0 0.406 0.0888 0 0.406 0.0953333 0 0.406 0.101867 0 0.406 0.1084 0 0.406 0.114933 0 0.406 0.121467 0 0.406 0.128 0 0.406667 0.03 0 0.406667 0.0365333 0 0.406667 0.0430667 0 0.406667 0.0496 0 0.406667 0.0561333 0 0.406667 0.0626667 0 0.406667 0.0692 0 0.406667 0.0757333 0 0.406667 0.0822667 0 0.406667 0.0888 0 0.406667 0.0953333 0 0.406667 0.101867 0 0.406667 0.1084 0 0.406667 0.114933 0 0.406667 0.121467 0 0.406667 0.128 0 0.407333 0.03 0 0.407333 0.0365333 0 0.407333 0.0430667 0 0.407333 0.0496 0 0.407333 0.0561333 0 0.407333 0.0626667 0 0.407333 0.0692 0 0.407333 0.0757333 0 0.407333 0.0822667 0 0.407333 0.0888 0 0.407333 0.0953333 0 0.407333 0.101867 0 0.407333 0.1084 0 0.407333 0.114933 0 0.407333 0.121467 0 0.407333 0.128 0 0.408 0.03 0 0.408 0.0365333 0 0.408 0.0430667 0 0.408 0.0496 0 0.408 0.0561333 0 0.408 0.0626667 0 0.408 0.0692 0 0.408 0.0757333 0 0.408 0.0822667 0 0.408 0.0888 0 0.408 0.0953333 0 0.408 0.101867 0 0.408 0.1084 0 0.408 0.114933 0 0.408 0.121467 0 0.408 0.128 0 0.408667 0.03 0 0.408667 0.0365333 0 0.408667 0.0430667 0 0.408667 0.0496 0 0.408667 0.0561333 0 0.408667 0.0626667 0 0.408667 0.0692 0 0.408667 0.0757333 0 0.408667 0.0822667 0 0.408667 0.0888 0 0.408667 0.0953333 0 0.408667 0.101867 0 0.408667 0.1084 0 0.408667 0.114933 0 0.408667 0.121467 0 0.408667 0.128 0 0.409333 0.03 0 0.409333 0.0365333 0 0.409333 0.0430667 0 0.409333 0.0496 0 0.409333 0.0561333 0 0.409333 0.0626667 0 0.409333 0.0692 0 0.409333 0.0757333 0 0.409333 0.0822667 0 0.409333 0.0888 0 0.409333 0.0953333 0 0.409333 0.101867 0 0.409333 0.1084 0 0.409333 0.114933 0 0.409333 0.121467 0 0.409333 0.128 0 0.41 0.03 0 0.41 0.0365333 0 0.41 0.0430667 0 0.41 0.0496 0 0.41 0.0561333 0 0.41 0.0626667 0 0.41 0.0692 0 0.41 0.0757333 0 0.41 0.0822667 0 0.41 0.0888 0 0.41 0.0953333 0 0.41 0.101867 0 0.41 0.1084 0 0.41 0.114933 0 0.41 0.121467 0 0.41 0.128 0 0.410667 0.03 0 0.410667 0.0365333 0 0.410667 0.0430667 0 0.410667 0.0496 0 0.410667 0.0561333 0 0.410667 0.0626667 0 0.410667 0.0692 0 0.410667 0.0757333 0 0.410667 0.0822667 0 0.410667 0.0888 0 0.410667 0.0953333 0 0.410667 0.101867 0 0.410667 0.1084 0 0.410667 0.114933 0 0.410667 0.121467 0 0.410667 0.128 0 0.411333 0.03 0 0.411333 0.0365333 0 0.411333 0.0430667 0 0.411333 0.0496 0 0.411333 0.0561333 0 0.411333 0.0626667 0 0.411333 0.0692 0 0.411333 0.0757333 0 0.411333 0.0822667 0 0.411333 0.0888 0 0.411333 0.0953333 0 0.411333 0.101867 0 0.411333 0.1084 0 0.411333 0.114933 0 0.411333 0.121467 0 0.411333 0.128 0 0.412 0.03 0 0.412 0.0365333 0 0.412 0.0430667 0 0.412 0.0496 0 0.412 0.0561333 0 0.412 0.0626667 0 0.412 0.0692 0 0.412 0.0757333 0 0.412 0.0822667 0 0.412 0.0888 0 0.412 0.0953333 0 0.412 0.101867 0 0.412 0.1084 0 0.412 0.114933 0 0.412 0.121467 0 0.412 0.128 0 0.412667 0.03 0 0.412667 0.0365333 0 0.412667 0.0430667 0 0.412667 0.0496 0 0.412667 0.0561333 0 0.412667 0.0626667 0 0.412667 0.0692 0 0.412667 0.0757333 0 0.412667 0.0822667 0 0.412667 0.0888 0 0.412667 0.0953333 0 0.412667 0.101867 0 0.412667 0.1084 0 0.412667 0.114933 0 0.412667 0.121467 0 0.412667 0.128 0 0.413333 0.03 0 0.413333 0.0365333 0 0.413333 0.0430667 0 0.413333 0.0496 0 0.413333 0.0561333 0 0.413333 0.0626667 0 0.413333 0.0692 0 0.413333 0.0757333 0 0.413333 0.0822667 0 0.413333 0.0888 0 0.413333 0.0953333 0 0.413333 0.101867 0 0.413333 0.1084 0 0.413333 0.114933 0 0.413333 0.121467 0 0.413333 0.128 0 0.414 0.03 0 0.414 0.0365333 0 0.414 0.0430667 0 0.414 0.0496 0 0.414 0.0561333 0 0.414 0.0626667 0 0.414 0.0692 0 0.414 0.0757333 0 0.414 0.0822667 0 0.414 0.0888 0 0.414 0.0953333 0 0.414 0.101867 0 0.414 0.1084 0 0.414 0.114933 0 0.414 0.121467 0 0.414 0.128 0 0.414667 0.03 0 0.414667 0.0365333 0 0.414667 0.0430667 0 0.414667 0.0496 0 0.414667 0.0561333 0 0.414667 0.0626667 0 0.414667 0.0692 0 0.414667 0.0757333 0 0.414667 0.0822667 0 0.414667 0.0888 0 0.414667 0.0953333 0 0.414667 0.101867 0 0.414667 0.1084 0 0.414667 0.114933 0 0.414667 0.121467 0 0.414667 0.128 0 0.415333 0.03 0 0.415333 0.0365333 0 0.415333 0.0430667 0 0.415333 0.0496 0 0.415333 0.0561333 0 0.415333 0.0626667 0 0.415333 0.0692 0 0.415333 0.0757333 0 0.415333 0.0822667 0 0.415333 0.0888 0 0.415333 0.0953333 0 0.415333 0.101867 0 0.415333 0.1084 0 0.415333 0.114933 0 0.415333 0.121467 0 0.415333 0.128 0 0.416 0.03 0 0.416 0.0365333 0 0.416 0.0430667 0 0.416 0.0496 0 0.416 0.0561333 0 0.416 0.0626667 0 0.416 0.0692 0 0.416 0.0757333 0 0.416 0.0822667 0 0.416 0.0888 0 0.416 0.0953333 0 0.416 0.101867 0 0.416 0.1084 0 0.416 0.114933 0 0.416 0.121467 0 0.416 0.128 0 
</DataArray>
</Points> 
</Piece> 
</StructuredGrid> 
</VTKFile> 
