<?xml version="1.0"?> 
<VTKFile type="StructuredGrid" version="0.1"> 
<StructuredGrid WholeExtent="0 15 0 15 0 0"> 
<Piece Extent="0 15 0 15 0 0"> 
<PointData>
<DataArray type="Float32" Name="E" format="ascii" NumberOfComponents="3"> 
-983685 -1.08073 0 -983154 -14474.4 0 -981556 -29091.8 0 -978874 -43997.1 0 -975084 -59340.9 0 -970153 -75280 0 -964046 -91976.6 0 -956721 -109595 0 -948143 -128294 0 -938267 -148216 0 -927068 -169461 0 -914457 -192071 0 -900430 -215973 0 -884724 -240924 0 -867487 -266339 0 -851106 -290149 0 -974802 -1.02152 0 -974227 -13777.5 0 -972497 -27690.5 0 -969593 -41877.3 0 -965485 -56482.9 0 -960136 -71660.5 0 -953507 -87570.8 0 -945559 -104379 0 -936258 -122248 0 -925585 -141322 0 -913529 -161705 0 -900097 -183433 0 -885284 -206427 0 -869135 -230446 0 -851734 -255041 0 -833537 -280036 0 -966374 -0.949707 0 -965758 -13027.1 0 -963904 -26181 0 -960789 -39591.9 0 -956377 -53398.7 0 -950628 -67750.7 0 -943493 -82808.8 0 -934933 -98742.6 0 -924920 -115723 0 -913449 -133906 0 -900544 -153411 0 -886266 -174286 0 -870707 -196465 0 -853995 -219733 0 -836318 -243735 0 -817824 -268195 0 -958433 -0.867335 0 -957780 -12226.9 0 -955810 -24570 0 -952498 -37150.2 0 -947801 -50098.8 0 -941668 -63561.4 0 -934045 -77699.8 0 -924885 -92690.5 0 -914161 -108718 0 -901882 -125962 0 -888105 -144568 0 -872946 -164614 0 -856584 -186065 0 -839249 -208729 0 -821189 -232266 0 -802553 -256221 0 -951010 -0.766602 0 -950322 -11381 0 -948248 -22865.6 0 -944755 -34563.1 0 -939793 -46596 0 -933299 -59105.1 0 -925207 -72253.3 0 -915458 -86227 0 -904021 -101231 0 -890912 -117475 0 -876216 -135149 0 -860106 -154379 0 -842849 -175175 0 -824787 -197376 0 -806272 -220619 0 -787551 -244353 0 -944131 -0.647068 0 -943413 -10494.5 0 -941247 -21077.3 0 -937594 -31843.9 0 -932393 -42905.6 0 -925565 -54396.6 0 -917026 -66480.6 0 -906702 -79355.3 0 -894547 -93250.8 0 -880576 -108419 0 -864893 -125107 0 -847724 -143514 0 -829434 -163719 0 -810499 -185602 0 -791426 -208775 0 -772611 -232574 0 -937819 -0.50403 0 -937077 -9573.48 0 -934835 -19216.9 0 -931047 -29008.9 0 -925637 -39046.5 0 -918509 -49454.6 0 -909555 -60396.1 0 -898675 -72080.2 0 -885798 -84766.1 0 -870924 -98757.3 0 -854164 -114379 0 -835793 -131927 0 -816276 -151585 0 -796261 -173303 0 -776466 -196675 0 -757479 -220903 0 -932095 -0.334809 0 -931335 -8625.17 0 -929035 -17298.5 0 -925141 -26077.9 0 -919561 -35042.3 0 -912177 -44303.3 0 -902850 -54019.7 0 -891442 -64410.2 0 -877846 -75765.2 0 -862027 -88448.5 0 -844085 -102882 0 -824324 -119493 0 -803321 -138618 0 -781927 -160329 0 -761168 -184223 0 -741936 -209350 0 -926971 -0.137561 0 -926200 -7658.28 0 -923866 -15339 0 -919902 -23075.2 0 -914200 -30922.6 0 -906615 -38974.6 0 -896970 -47379.5 0 -885081 -56361.5 0 -870781 -66240.6 0 -853981 -77446.9 0 -834739 -90516.5 0 -813364 -106051 0 -790527 -124605 0 -767341 -146459 0 -745241 -171278 0 -725543 -197832 0 -922457 0.0907379 0 -921684 -6682.99 0 -919340 -13358.5 0 -915350 -20030 0 -909584 -26724.5 0 -901868 -33509.5 0 -891982 -40515.2 0 -879677 -47962.5 0 -864715 -56195.3 0 -846916 -65709.9 0 -826257 -77173.1 0 -803002 -91400.3 0 -777893 -109255 0 -752314 -131373 0 -728321 -157598 0 -708012 -186511 0 -918553 0.345561 0 -917788 -5711.12 0 -915465 -11380.7 0 -911498 -16977.6 0 -905740 -22493.5 0 -897981 -27961.4 0 -887951 -33481.7 0 -875331 -39259.7 0 -859780 -45649.8 0 -840997 -53208.4 0 -818823 -62736.7 0 -793411 -75303.3 0 -765474 -92182.6 0 -736677 -114584 0 -709886 -142852 0 -688431 -174998 0 -915252 0.631027 0 -914507 -4756.1 0 -912240 -9432.72 0 -908354 -13959.2 0 -902686 -18284.7 0 -894992 -22397.2 0 -884947 -26353.5 0 -872148 -30323.6 0 -856132 -34653.6 0 -836436 -39938.1 0 -812702 -47108 0 -784859 -57495.2 0 -753464 -72887.3 0 -720274 -95375.1 0 -689232 -126356 0 -666192 -164199 0 -912540 0.92968 0 -911826 -3832.83 0 -909652 -7545.09 0 -905914 -11022.2 0 -900431 -14163.5 0 -892930 -16900.3 0 -883032 -19227.7 0 -870239 -21257.3 0 -853947 -23293.8 0 -833489 -25941.7 0 -808232 -30222.5 0 -777776 -37724 0 -742256 -50765.4 0 -703169 -72621.5 0 -665286 -107101 0 -639140 -152669 0 -910391 1.25166 0 -909722 -2957.41 0 -907680 -5751.3 0 -904161 -8219.71 0 -898971 -10205.5 0 -891814 -11570.9 0 -882259 -12229.4 0 -869715 -12201.9 0 -853415 -11712.8 0 -832455 -11322.4 0 -805843 -12096.5 0 -772759 -15799 0 -732587 -25192.7 0 -685929 -44760.7 0 -636665 -82350.1 0 -603824 -144617 0 -908769 1.49262 0 -908158 -2146.63 0 -906291 -4086.6 0 -903065 -5609.47 0 -898285 -6495.13 0 -891641 -6527.58 0 -882663 -5510.91 0 -870670 -3347.89 0 -854734 -112.064 0 -833646 3719.41 0 -806078 7156.16 0 -770491 8299.05 0 -725803 4274.17 0 -669980 -9912.8 0 -603038 -46495.5 0 -553192 -138035 0 -907630 2.31001 0 -907090 -1417.04 0 -905438 -2587.52 0 -902580 -3250.1 0 -898331 -3127.25 0 -892383 -1897.37 0 -884255 731.992 0 -873166 5086.44 0 -858102 11185.8 0 -837368 18943.1 0 -809551 27177.3 0 -771724 34474.3 0 -723525 37529.9 0 -658499 32266.5 0 -571802 13754.3 0 -392453 -103006 0 </DataArray> 
</PointData> 
<Points> 
<DataArray type="Float32" NumberOfComponents="3"> 
0.236 0 0 0.236 0.0018 0 0.236 0.0036 0 0.236 0.0054 0 0.236 0.0072 0 0.236 0.009 0 0.236 0.0108 0 0.236 0.0126 0 0.236 0.0144 0 0.236 0.0162 0 0.236 0.018 0 0.236 0.0198 0 0.236 0.0216 0 0.236 0.0234 0 0.236 0.0252 0 0.236 0.027 0 0.237133 0 0 0.237133 0.0018 0 0.237133 0.0036 0 0.237133 0.0054 0 0.237133 0.0072 0 0.237133 0.009 0 0.237133 0.0108 0 0.237133 0.0126 0 0.237133 0.0144 0 0.237133 0.0162 0 0.237133 0.018 0 0.237133 0.0198 0 0.237133 0.0216 0 0.237133 0.0234 0 0.237133 0.0252 0 0.237133 0.027 0 0.238267 0 0 0.238267 0.0018 0 0.238267 0.0036 0 0.238267 0.0054 0 0.238267 0.0072 0 0.238267 0.009 0 0.238267 0.0108 0 0.238267 0.0126 0 0.238267 0.0144 0 0.238267 0.0162 0 0.238267 0.018 0 0.238267 0.0198 0 0.238267 0.0216 0 0.238267 0.0234 0 0.238267 0.0252 0 0.238267 0.027 0 0.2394 0 0 0.2394 0.0018 0 0.2394 0.0036 0 0.2394 0.0054 0 0.2394 0.0072 0 0.2394 0.009 0 0.2394 0.0108 0 0.2394 0.0126 0 0.2394 0.0144 0 0.2394 0.0162 0 0.2394 0.018 0 0.2394 0.0198 0 0.2394 0.0216 0 0.2394 0.0234 0 0.2394 0.0252 0 0.2394 0.027 0 0.240533 0 0 0.240533 0.0018 0 0.240533 0.0036 0 0.240533 0.0054 0 0.240533 0.0072 0 0.240533 0.009 0 0.240533 0.0108 0 0.240533 0.0126 0 0.240533 0.0144 0 0.240533 0.0162 0 0.240533 0.018 0 0.240533 0.0198 0 0.240533 0.0216 0 0.240533 0.0234 0 0.240533 0.0252 0 0.240533 0.027 0 0.241667 0 0 0.241667 0.0018 0 0.241667 0.0036 0 0.241667 0.0054 0 0.241667 0.0072 0 0.241667 0.009 0 0.241667 0.0108 0 0.241667 0.0126 0 0.241667 0.0144 0 0.241667 0.0162 0 0.241667 0.018 0 0.241667 0.0198 0 0.241667 0.0216 0 0.241667 0.0234 0 0.241667 0.0252 0 0.241667 0.027 0 0.2428 0 0 0.2428 0.0018 0 0.2428 0.0036 0 0.2428 0.0054 0 0.2428 0.0072 0 0.2428 0.009 0 0.2428 0.0108 0 0.2428 0.0126 0 0.2428 0.0144 0 0.2428 0.0162 0 0.2428 0.018 0 0.2428 0.0198 0 0.2428 0.0216 0 0.2428 0.0234 0 0.2428 0.0252 0 0.2428 0.027 0 0.243933 0 0 0.243933 0.0018 0 0.243933 0.0036 0 0.243933 0.0054 0 0.243933 0.0072 0 0.243933 0.009 0 0.243933 0.0108 0 0.243933 0.0126 0 0.243933 0.0144 0 0.243933 0.0162 0 0.243933 0.018 0 0.243933 0.0198 0 0.243933 0.0216 0 0.243933 0.0234 0 0.243933 0.0252 0 0.243933 0.027 0 0.245067 0 0 0.245067 0.0018 0 0.245067 0.0036 0 0.245067 0.0054 0 0.245067 0.0072 0 0.245067 0.009 0 0.245067 0.0108 0 0.245067 0.0126 0 0.245067 0.0144 0 0.245067 0.0162 0 0.245067 0.018 0 0.245067 0.0198 0 0.245067 0.0216 0 0.245067 0.0234 0 0.245067 0.0252 0 0.245067 0.027 0 0.2462 0 0 0.2462 0.0018 0 0.2462 0.0036 0 0.2462 0.0054 0 0.2462 0.0072 0 0.2462 0.009 0 0.2462 0.0108 0 0.2462 0.0126 0 0.2462 0.0144 0 0.2462 0.0162 0 0.2462 0.018 0 0.2462 0.0198 0 0.2462 0.0216 0 0.2462 0.0234 0 0.2462 0.0252 0 0.2462 0.027 0 0.247333 0 0 0.247333 0.0018 0 0.247333 0.0036 0 0.247333 0.0054 0 0.247333 0.0072 0 0.247333 0.009 0 0.247333 0.0108 0 0.247333 0.0126 0 0.247333 0.0144 0 0.247333 0.0162 0 0.247333 0.018 0 0.247333 0.0198 0 0.247333 0.0216 0 0.247333 0.0234 0 0.247333 0.0252 0 0.247333 0.027 0 0.248467 0 0 0.248467 0.0018 0 0.248467 0.0036 0 0.248467 0.0054 0 0.248467 0.0072 0 0.248467 0.009 0 0.248467 0.0108 0 0.248467 0.0126 0 0.248467 0.0144 0 0.248467 0.0162 0 0.248467 0.018 0 0.248467 0.0198 0 0.248467 0.0216 0 0.248467 0.0234 0 0.248467 0.0252 0 0.248467 0.027 0 0.2496 0 0 0.2496 0.0018 0 0.2496 0.0036 0 0.2496 0.0054 0 0.2496 0.0072 0 0.2496 0.009 0 0.2496 0.0108 0 0.2496 0.0126 0 0.2496 0.0144 0 0.2496 0.0162 0 0.2496 0.018 0 0.2496 0.0198 0 0.2496 0.0216 0 0.2496 0.0234 0 0.2496 0.0252 0 0.2496 0.027 0 0.250733 0 0 0.250733 0.0018 0 0.250733 0.0036 0 0.250733 0.0054 0 0.250733 0.0072 0 0.250733 0.009 0 0.250733 0.0108 0 0.250733 0.0126 0 0.250733 0.0144 0 0.250733 0.0162 0 0.250733 0.018 0 0.250733 0.0198 0 0.250733 0.0216 0 0.250733 0.0234 0 0.250733 0.0252 0 0.250733 0.027 0 0.251867 0 0 0.251867 0.0018 0 0.251867 0.0036 0 0.251867 0.0054 0 0.251867 0.0072 0 0.251867 0.009 0 0.251867 0.0108 0 0.251867 0.0126 0 0.251867 0.0144 0 0.251867 0.0162 0 0.251867 0.018 0 0.251867 0.0198 0 0.251867 0.0216 0 0.251867 0.0234 0 0.251867 0.0252 0 0.251867 0.027 0 0.253 0 0 0.253 0.0018 0 0.253 0.0036 0 0.253 0.0054 0 0.253 0.0072 0 0.253 0.009 0 0.253 0.0108 0 0.253 0.0126 0 0.253 0.0144 0 0.253 0.0162 0 0.253 0.018 0 0.253 0.0198 0 0.253 0.0216 0 0.253 0.0234 0 0.253 0.0252 0 0.253 0.027 0 
</DataArray>
</Points> 
</Piece> 
</StructuredGrid> 
</VTKFile> 
