<?xml version="1.0"?> 
<VTKFile type="StructuredGrid" version="0.1"> 
<StructuredGrid WholeExtent="0 15 0 15 0 0"> 
<Piece Extent="0 15 0 15 0 0"> 
<PointData>
<DataArray type="Float32" Name="E" format="ascii" NumberOfComponents="3"> 
-150697 7.45058e-09 0 -128065 -3.03316e-10 0 -123421 -3.69255e-10 0 -122214 7.27596e-10 0 -122471 -1.27329e-09 0 -124168 3.63798e-10 0 -127123 -8.87667e-10 0 -131507 6.40284e-10 0 -137611 -5.82077e-11 0 -145752 -4.65661e-10 0 -156979 6.98492e-10 0 -171791 6.40284e-10 0 -194101 -9.31323e-10 0 -225943 5.82077e-10 0 -290522 6.98492e-10 0 -547515 -5.58794e-09 0 -126423 12150.6 0 -124704 5425.47 0 -122288 2148.22 0 -121375 332.674 0 -121848 -1036.66 0 -123518 -2297.53 0 -126423 -3611.5 0 -130683 -5122.27 0 -136540 -6958.25 0 -144418 -9347.46 0 -154876 -12587.2 0 -169043 -17364.1 0 -188270 -24986.4 0 -215963 -38966.1 0 -254556 -70986.3 0 -281329 -147612 0 -120360 12349.8 0 -120081 6996.95 0 -119418 3194.29 0 -119287 292.26 0 -120001 -2167.43 0 -121673 -4528.12 0 -124385 -7039.33 0 -128271 -9913.39 0 -133532 -13407.6 0 -140449 -17851.1 0 -149418 -23792.9 0 -160892 -32112.8 0 -175388 -44506.4 0 -192577 -64119.5 0 -209230 -95788.1 0 -213616 -145501 0 -115470 11391.2 0 -115788 7217.63 0 -115930 3293.88 0 -116307 -159.425 0 -117206 -3376.6 0 -118793 -6610.39 0 -121184 -10102.5 0 -124500 -14109.1 0 -128876 -18922.1 0 -134467 -24938.4 0 -141413 -32703.2 0 -149756 -43059.2 0 -159197 -57220.5 0 -168535 -76819.8 0 -174749 -103377 0 -172872 -133584 0 -111141 11067.4 0 -111694 6846.51 0 -112175 2916.53 0 -112786 -849.729 0 -113718 -4569.16 0 -115108 -8432.36 0 -117064 -12662.4 0 -119671 -17508.2 0 -123006 -23268.9 0 -127114 -30309.6 0 -131968 -39109.6 0 -137382 -50264.5 0 -142816 -64492.7 0 -147172 -82420.8 0 -148562 -103941 0 -144830 -128664 0 -107046 10280.5 0 -107681 6303.3 0 -108280 2340.81 0 -108938 -1596.12 0 -109764 -5621 0 -110857 -9893.9 0 -112288 -14612 0 -114112 -20007.7 0 -116353 -26349 0 -118988 -33951.6 0 -121916 -43172.7 0 -124878 -54402.8 0 -127396 -67980 0 -128661 -84037.6 0 -127654 -102283 0 -123452 -121219 0 -103026 9626.61 0 -103719 5667.61 0 -104330 1735.13 0 -104916 -2263.31 0 -105542 -6431.74 0 -106261 -10915 0 -107117 -15891.4 0 -108130 -21567.9 0 -109291 -28178.6 0 -110549 -35977.5 0 -111783 -45227.1 0 -112774 -56157.6 0 -113159 -68907 0 -112457 -83408.5 0 -110090 -99247 0 -105580 -115877 0 -99141.7 8840.93 0 -99839.6 5032.2 0 -100404 1185.14 0 -100856 -2767.08 0 -101222 -6932.97 0 -101527 -11448.2 0 -101785 -16475 0 -101992 -22198.4 0 -102122 -28820.5 0 -102115 -36550.6 0 -101874 -45582.9 0 -101241 -56062.8 0 -100010 -68028.2 0 -97910.9 -81343.7 0 -94701.2 -95650.1 0 -90216 -110281 0 -95393 8065.6 0 -96098.2 4415.24 0 -96593 737.23 0 -96879.5 -3062.2 0 -96960.9 -7089.58 0 -96837.1 -11473.9 0 -96499.2 -16365.2 0 -95925.8 -21931.3 0 -95080 -28353 0 -93909 -35812.7 0 -92343.4 -44474.8 0 -90306.2 -54452.2 0 -87713.7 -65759.5 0 -84506.8 -78258.3 0 -80632.9 -91614.8 0 -76070.7 -105307 0 -91855.2 7224.57 0 -92567.4 3832.46 0 -92990.4 406.148 0 -93107.9 -3133.15 0 -92903.9 -6892.82 0 -92359 -10996.1 0 -91446.3 -15582.8 0 -90129.1 -20809.3 0 -88361.6 -26844.8 0 -86094.1 -33864.3 0 -83286.4 -42034.9 0 -79923.1 -51485.6 0 -76047.3 -62266.1 0 -71760.6 -74282.3 0 -67245 -87223.5 0 -62689.7 -100661 0 -88589.8 6368.3 0 -89325.3 3268.27 0 -89693.2 186.358 0 -89657.3 -2986.72 0 -89186.3 -6355.5 0 -88246.9 -10037.5 0 -86796.3 -14163.3 0 -84782 -18879.7 0 -82143.7 -24350.8 0 -78825 -30759.9 0 -74791.3 -38300.7 0 -70070.6 -47166.5 0 -64793.2 -57502.6 0 -59260.5 -69328 0 -53897.7 -82428.6 0 -49132.1 -95995.3 0 -85645.4 5371.18 0 -86454.3 2703.44 0 -86801.3 53.6006 0 -86640.6 -2646.42 0 -85935.8 -5507.24 0 -84643.8 -8637.82 0 -82708.7 -12156.5 0 -80058.6 -16197.9 0 -76610.4 -20922.5 0 -72279 -26522.2 0 -67004.5 -33237.5 0 -60796.2 -41355 0 -53835 -51206.6 0 -46578.8 -63065.9 0 -39891.7 -76843 0 -34806.1 -92302.5 0 -83098.5 4355.18 0 -84047.3 2072.93 0 -84418.1 -24.7539 0 -84167.3 -2145.85 0 -83269.5 -4390.99 0 -81681.2 -6853.1 0 -79333.5 -9630.57 0 -76133 -12839.8 0 -71962.8 -16624.9 0 -66688.4 -21181.4 0 -60174 -26775.4 0 -52330.2 -33810 0 -43230.3 -42860.2 0 -33391.3 -54697.3 0 -24219.4 -70040.3 0 -18088.7 -87313.2 0 -81021.9 2824.49 0 -82236.1 1341.72 0 -82657.1 -79.8524 0 -82337.2 -1519.24 0 -81289.5 -3058.82 0 -79473.8 -4755.95 0 -76807 -6678.66 0 -73173.8 -8911.78 0 -68418.3 -11572 0 -62343.9 -14818 0 -54694.7 -18913.4 0 -45187.6 -24279.2 0 -33509 -31725.2 0 -19755.4 -42756.7 0 -5418.63 -59700.2 0 3923.05 -85463.1 0 -79452.8 891.736 0 -81269.6 466.632 0 -81627.4 -88.0503 0 -81220.7 -792.936 0 -80074.1 -1571.48 0 -78110.7 -2436.3 0 -75241.8 -3419.47 0 -71327.5 -4568.16 0 -66188.4 -5940.91 0 -59555.4 -7643.9 0 -51094.3 -9820.38 0 -40199.5 -12798.3 0 -26158.4 -17204.1 0 -7275.87 -24720 0 17685.9 -40942.9 0 37987.8 -78625.6 0 -83915.3 0 0 -81263.6 0 0 -81284.6 0 0 -80864.6 0 0 -79657.2 0 0 -77653.7 0 0 -74707.8 0 0 -70704.9 0 0 -65412.3 0 0 -58620.3 0 0 -49758.6 0 0 -38521.3 0 0 -22972.9 0 0 -2067.19 0 0 35356.7 0 0 165595 0 0 </DataArray> 
</PointData> 
<Points> 
<DataArray type="Float32" NumberOfComponents="3"> 
0.406 0.02 0 0.406 0.0206667 0 0.406 0.0213333 0 0.406 0.022 0 0.406 0.0226667 0 0.406 0.0233333 0 0.406 0.024 0 0.406 0.0246667 0 0.406 0.0253333 0 0.406 0.026 0 0.406 0.0266667 0 0.406 0.0273333 0 0.406 0.028 0 0.406 0.0286667 0 0.406 0.0293333 0 0.406 0.03 0 0.406667 0.02 0 0.406667 0.0206667 0 0.406667 0.0213333 0 0.406667 0.022 0 0.406667 0.0226667 0 0.406667 0.0233333 0 0.406667 0.024 0 0.406667 0.0246667 0 0.406667 0.0253333 0 0.406667 0.026 0 0.406667 0.0266667 0 0.406667 0.0273333 0 0.406667 0.028 0 0.406667 0.0286667 0 0.406667 0.0293333 0 0.406667 0.03 0 0.407333 0.02 0 0.407333 0.0206667 0 0.407333 0.0213333 0 0.407333 0.022 0 0.407333 0.0226667 0 0.407333 0.0233333 0 0.407333 0.024 0 0.407333 0.0246667 0 0.407333 0.0253333 0 0.407333 0.026 0 0.407333 0.0266667 0 0.407333 0.0273333 0 0.407333 0.028 0 0.407333 0.0286667 0 0.407333 0.0293333 0 0.407333 0.03 0 0.408 0.02 0 0.408 0.0206667 0 0.408 0.0213333 0 0.408 0.022 0 0.408 0.0226667 0 0.408 0.0233333 0 0.408 0.024 0 0.408 0.0246667 0 0.408 0.0253333 0 0.408 0.026 0 0.408 0.0266667 0 0.408 0.0273333 0 0.408 0.028 0 0.408 0.0286667 0 0.408 0.0293333 0 0.408 0.03 0 0.408667 0.02 0 0.408667 0.0206667 0 0.408667 0.0213333 0 0.408667 0.022 0 0.408667 0.0226667 0 0.408667 0.0233333 0 0.408667 0.024 0 0.408667 0.0246667 0 0.408667 0.0253333 0 0.408667 0.026 0 0.408667 0.0266667 0 0.408667 0.0273333 0 0.408667 0.028 0 0.408667 0.0286667 0 0.408667 0.0293333 0 0.408667 0.03 0 0.409333 0.02 0 0.409333 0.0206667 0 0.409333 0.0213333 0 0.409333 0.022 0 0.409333 0.0226667 0 0.409333 0.0233333 0 0.409333 0.024 0 0.409333 0.0246667 0 0.409333 0.0253333 0 0.409333 0.026 0 0.409333 0.0266667 0 0.409333 0.0273333 0 0.409333 0.028 0 0.409333 0.0286667 0 0.409333 0.0293333 0 0.409333 0.03 0 0.41 0.02 0 0.41 0.0206667 0 0.41 0.0213333 0 0.41 0.022 0 0.41 0.0226667 0 0.41 0.0233333 0 0.41 0.024 0 0.41 0.0246667 0 0.41 0.0253333 0 0.41 0.026 0 0.41 0.0266667 0 0.41 0.0273333 0 0.41 0.028 0 0.41 0.0286667 0 0.41 0.0293333 0 0.41 0.03 0 0.410667 0.02 0 0.410667 0.0206667 0 0.410667 0.0213333 0 0.410667 0.022 0 0.410667 0.0226667 0 0.410667 0.0233333 0 0.410667 0.024 0 0.410667 0.0246667 0 0.410667 0.0253333 0 0.410667 0.026 0 0.410667 0.0266667 0 0.410667 0.0273333 0 0.410667 0.028 0 0.410667 0.0286667 0 0.410667 0.0293333 0 0.410667 0.03 0 0.411333 0.02 0 0.411333 0.0206667 0 0.411333 0.0213333 0 0.411333 0.022 0 0.411333 0.0226667 0 0.411333 0.0233333 0 0.411333 0.024 0 0.411333 0.0246667 0 0.411333 0.0253333 0 0.411333 0.026 0 0.411333 0.0266667 0 0.411333 0.0273333 0 0.411333 0.028 0 0.411333 0.0286667 0 0.411333 0.0293333 0 0.411333 0.03 0 0.412 0.02 0 0.412 0.0206667 0 0.412 0.0213333 0 0.412 0.022 0 0.412 0.0226667 0 0.412 0.0233333 0 0.412 0.024 0 0.412 0.0246667 0 0.412 0.0253333 0 0.412 0.026 0 0.412 0.0266667 0 0.412 0.0273333 0 0.412 0.028 0 0.412 0.0286667 0 0.412 0.0293333 0 0.412 0.03 0 0.412667 0.02 0 0.412667 0.0206667 0 0.412667 0.0213333 0 0.412667 0.022 0 0.412667 0.0226667 0 0.412667 0.0233333 0 0.412667 0.024 0 0.412667 0.0246667 0 0.412667 0.0253333 0 0.412667 0.026 0 0.412667 0.0266667 0 0.412667 0.0273333 0 0.412667 0.028 0 0.412667 0.0286667 0 0.412667 0.0293333 0 0.412667 0.03 0 0.413333 0.02 0 0.413333 0.0206667 0 0.413333 0.0213333 0 0.413333 0.022 0 0.413333 0.0226667 0 0.413333 0.0233333 0 0.413333 0.024 0 0.413333 0.0246667 0 0.413333 0.0253333 0 0.413333 0.026 0 0.413333 0.0266667 0 0.413333 0.0273333 0 0.413333 0.028 0 0.413333 0.0286667 0 0.413333 0.0293333 0 0.413333 0.03 0 0.414 0.02 0 0.414 0.0206667 0 0.414 0.0213333 0 0.414 0.022 0 0.414 0.0226667 0 0.414 0.0233333 0 0.414 0.024 0 0.414 0.0246667 0 0.414 0.0253333 0 0.414 0.026 0 0.414 0.0266667 0 0.414 0.0273333 0 0.414 0.028 0 0.414 0.0286667 0 0.414 0.0293333 0 0.414 0.03 0 0.414667 0.02 0 0.414667 0.0206667 0 0.414667 0.0213333 0 0.414667 0.022 0 0.414667 0.0226667 0 0.414667 0.0233333 0 0.414667 0.024 0 0.414667 0.0246667 0 0.414667 0.0253333 0 0.414667 0.026 0 0.414667 0.0266667 0 0.414667 0.0273333 0 0.414667 0.028 0 0.414667 0.0286667 0 0.414667 0.0293333 0 0.414667 0.03 0 0.415333 0.02 0 0.415333 0.0206667 0 0.415333 0.0213333 0 0.415333 0.022 0 0.415333 0.0226667 0 0.415333 0.0233333 0 0.415333 0.024 0 0.415333 0.0246667 0 0.415333 0.0253333 0 0.415333 0.026 0 0.415333 0.0266667 0 0.415333 0.0273333 0 0.415333 0.028 0 0.415333 0.0286667 0 0.415333 0.0293333 0 0.415333 0.03 0 0.416 0.02 0 0.416 0.0206667 0 0.416 0.0213333 0 0.416 0.022 0 0.416 0.0226667 0 0.416 0.0233333 0 0.416 0.024 0 0.416 0.0246667 0 0.416 0.0253333 0 0.416 0.026 0 0.416 0.0266667 0 0.416 0.0273333 0 0.416 0.028 0 0.416 0.0286667 0 0.416 0.0293333 0 0.416 0.03 0 
</DataArray>
</Points> 
</Piece> 
</StructuredGrid> 
</VTKFile> 
