<?xml version="1.0"?> 
<VTKFile type="StructuredGrid" version="0.1"> 
<StructuredGrid WholeExtent="0 15 0 15 0 0"> 
<Piece Extent="0 15 0 15 0 0"> 
<PointData>
<DataArray type="Float32" Name="E" format="ascii" NumberOfComponents="3"> 
3.09919e+06 -1.27102e+06 0 3.28801e+06 -1.34808e+06 0 3.45515e+06 -1.41396e+06 0 3.61309e+06 -1.47281e+06 0 3.76729e+06 -1.5258e+06 0 3.92078e+06 -1.57298e+06 0 4.0754e+06 -1.61393e+06 0 4.2322e+06 -1.64798e+06 0 4.39166e+06 -1.67448e+06 0 4.55389e+06 -1.69298e+06 0 4.71885e+06 -1.70333e+06 0 4.88651e+06 -1.70572e+06 0 5.05695e+06 -1.70056e+06 0 5.23018e+06 -1.68816e+06 0 5.40574e+06 -1.66831e+06 0 5.58202e+06 -1.6397e+06 0 3.42301e+06 -992650 0 3.57318e+06 -1.04997e+06 0 3.72044e+06 -1.09199e+06 0 3.86489e+06 -1.1206e+06 0 4.00695e+06 -1.13676e+06 0 4.14673e+06 -1.14084e+06 0 4.284e+06 -1.1329e+06 0 4.41822e+06 -1.11295e+06 0 4.54869e+06 -1.08103e+06 0 4.67456e+06 -1.03731e+06 0 4.79486e+06 -982137 0 4.90851e+06 -916124 0 5.01432e+06 -840272 0 5.11105e+06 -756047 0 5.1975e+06 -665451 0 5.27274e+06 -570859 0 3.64509e+06 -717674 0 3.76575e+06 -745352 0 3.88442e+06 -758258 0 4.00012e+06 -757615 0 4.11186e+06 -744255 0 4.21858e+06 -718803 0 4.31918e+06 -681858 0 4.41252e+06 -634099 0 4.49748e+06 -576389 0 4.57301e+06 -509843 0 4.6382e+06 -435881 0 4.69237e+06 -356229 0 4.73519e+06 -272880 0 4.7667e+06 -188013 0 4.78741e+06 -103905 0 4.79829e+06 -22775.1 0 3.76748e+06 -463541 0 3.85615e+06 -467374 0 3.9426e+06 -459727 0 4.02533e+06 -441277 0 4.10297e+06 -412789 0 4.17423e+06 -375071 0 4.23792e+06 -329046 0 4.293e+06 -275797 0 4.33863e+06 -216600 0 4.37426e+06 -152920 0 4.39963e+06 -86370.6 0 4.4149e+06 -18658.7 0 4.42059e+06 48501 0 4.41761e+06 113475 0 4.40721e+06 174802 0 4.39089e+06 231326 0 3.80453e+06 -253986 0 3.86454e+06 -244123 0 3.9221e+06 -226085 0 3.97581e+06 -200502 0 4.02443e+06 -168093 0 4.06681e+06 -129676 0 4.10201e+06 -86205.7 0 4.12929e+06 -38780.8 0 4.14817e+06 11376 0 4.15846e+06 62954.2 0 4.16036e+06 114611 0 4.15441e+06 165036 0 4.14147e+06 213021 0 4.12269e+06 257530 0 4.09935e+06 297749 0 4.07283e+06 333074 0 3.78416e+06 -102194 0 3.82127e+06 -85912 0 3.8561e+06 -64418.3 0 3.88755e+06 -38165.3 0 3.91459e+06 -7766.93 0 3.93629e+06 26044.7 0 3.9519e+06 62425 0 3.96092e+06 100435 0 3.96313e+06 139067 0 3.95862e+06 177272 0 3.94779e+06 214020 0 3.93128e+06 248372 0 3.90992e+06 279562 0 3.88474e+06 307038 0 3.85689e+06 330478 0 3.82757e+06 349725 0 3.73273e+06 -7323.37 0 3.75276e+06 10639.5 0 3.77091e+06 31730.4 0 3.78629e+06 55533 0 3.79807e+06 81525.6 0 3.80556e+06 109098 0 3.80828e+06 137532 0 3.80589e+06 166013 0 3.7983e+06 193681 0 3.7856e+06 219727 0 3.76815e+06 243466 0 3.74661e+06 264366 0 3.72186e+06 282028 0 3.69489e+06 296164 0 3.66671e+06 306627 0 3.63825e+06 313346 0 3.67017e+06 36872.8 0 3.67754e+06 53987.1 0 3.6835e+06 72849.1 0 3.6874e+06 93059.1 0 3.68865e+06 114069 0 3.68667e+06 135249 0 3.68098e+06 155949 0 3.67133e+06 175571 0 3.65774e+06 193575 0 3.64051e+06 209440 0 3.62015e+06 222612 0 3.59728e+06 232561 0 3.5725e+06 238904 0 3.54648e+06 241543 0 3.51993e+06 240707 0 3.4936e+06 236728 0 3.61059e+06 38536.3 0 3.60858e+06 53238 0 3.60558e+06 68677.1 0 3.60105e+06 84430.1 0 3.5945e+06 100065 0 3.58561e+06 115152 0 3.5742e+06 129174 0 3.56023e+06 141460 0 3.54372e+06 151243 0 3.52473e+06 157845 0 3.50345e+06 160904 0 3.48032e+06 160461 0 3.45602e+06 156846 0 3.43142e+06 150441 0 3.40739e+06 141529 0 3.38462e+06 130127 0 3.56505e+06 2300.47 0 3.55492e+06 13493.1 0 3.54438e+06 25188.5 0 3.53317e+06 36822.8 0 3.52098e+06 47623.3 0 3.50743e+06 56750.3 0 3.49215e+06 63485.9 0 3.47493e+06 67431.4 0 3.45585e+06 68550.3 0 3.43532e+06 66986 0 3.414e+06 62756.3 0 3.39254e+06 55555 0 3.37143e+06 44825.6 0 3.35091e+06 30083.8 0 3.33113e+06 11290 0 3.31222e+06 -11253.8 0 3.54404e+06 -66512.4 0 3.52714e+06 -60444.5 0 3.51023e+06 -54675.9 0 3.49299e+06 -49703.9 0 3.47519e+06 -45833.1 0 3.45678e+06 -43220.8 0 3.43792e+06 -42136.7 0 3.41881e+06 -43217.8 0 3.39957e+06 -47529.9 0 3.38017e+06 -56315.8 0 3.36043e+06 -70503.4 0 3.34031e+06 -90234.1 0 3.32004e+06 -114702 0 3.30027e+06 -142404 0 3.28191e+06 -171634 0 3.26585e+06 -201145 0 3.56216e+06 -179152 0 3.53649e+06 -178126 0 3.51182e+06 -176512 0 3.48817e+06 -175317 0 3.46541e+06 -175941 0 3.44324e+06 -179907 0 3.42123e+06 -188491 0 3.39909e+06 -202291 0 3.37678e+06 -220997 0 3.35475e+06 -243497 0 3.33381e+06 -268372 0 3.31492e+06 -294530 0 3.29883e+06 -321706 0 3.28585e+06 -350553 0 3.27572e+06 -382295 0 3.26781e+06 -418681 0 3.63834e+06 -332482 0 3.6037e+06 -343205 0 3.5707e+06 -354971 0 3.53913e+06 -368229 0 3.50892e+06 -382973 0 3.48024e+06 -398862 0 3.45344e+06 -415608 0 3.42892e+06 -433426 0 3.40688e+06 -453352 0 3.38721e+06 -477271 0 3.36939e+06 -507580 0 3.35272e+06 -546541 0 3.33658e+06 -595589 0 3.32079e+06 -654819 0 3.3058e+06 -722786 0 3.29263e+06 -796604 0 3.8064e+06 -594818 0 3.76115e+06 -607202 0 3.71751e+06 -620514 0 3.67575e+06 -635799 0 3.636e+06 -654855 0 3.59819e+06 -679894 0 3.56221e+06 -713164 0 3.52798e+06 -756499 0 3.49568e+06 -810907 0 3.4659e+06 -876310 0 3.43964e+06 -951532 0 3.41816e+06 -1.03457e+06 0 3.40265e+06 -1.12312e+06 0 3.39385e+06 -1.21529e+06 0 3.39171e+06 -1.31062e+06 0 3.39497e+06 -1.41343e+06 0 4.10825e+06 -883486 0 4.06094e+06 -942750 0 4.01728e+06 -1.00551e+06 0 3.97762e+06 -1.07335e+06 0 3.94224e+06 -1.14774e+06 0 3.91113e+06 -1.23005e+06 0 3.88367e+06 -1.32149e+06 0 3.85848e+06 -1.42308e+06 0 3.83328e+06 -1.53564e+06 0 3.80491e+06 -1.65971e+06 0 3.76948e+06 -1.7956e+06 0 3.72269e+06 -1.94337e+06 0 3.66044e+06 -2.10262e+06 0 3.57946e+06 -2.27174e+06 0 3.47817e+06 -2.44513e+06 0 3.35816e+06 -2.60129e+06 0 5.35086e+06 -9.96515e-07 0 5.67304e+06 -546775 0 5.85271e+06 -1.15961e+06 0 5.89178e+06 -1.81101e+06 0 5.79429e+06 -2.47379e+06 0 5.56743e+06 -3.12144e+06 0 5.22209e+06 -3.72881e+06 0 4.77305e+06 -4.27306e+06 0 4.23864e+06 -4.73459e+06 0 3.63999e+06 -5.09771e+06 0 2.99976e+06 -5.35041e+06 0 2.3406e+06 -5.48232e+06 0 1.68393e+06 -5.47835e+06 0 1.05032e+06 -5.30113e+06 0 465698 -4.83183e+06 0 4.37722e-07 -3.548e+06 0 </DataArray> 
</PointData> 
<Points> 
<DataArray type="Float32" NumberOfComponents="3"> 
0.3115 0.02 0 0.312416 0.0222347 0 0.313229 0.0242188 0 0.313952 0.025988 0 0.314597 0.0275738 0 0.315173 0.0290034 0 0.31569 0.0303004 0 0.316156 0.0314853 0 0.316576 0.0325757 0 0.316957 0.0335863 0 0.317302 0.034529 0 0.317616 0.0354131 0 0.317902 0.0362452 0 0.31816 0.0370292 0 0.318393 0.0377666 0 0.318601 0.0384564 0 0.316933 0.0203333 0 0.31761 0.0224438 0 0.318228 0.0243285 0 0.318796 0.0260174 0 0.319324 0.0275372 0 0.31982 0.0289111 0 0.320289 0.0301596 0 0.320737 0.0313006 0 0.32117 0.0323492 0 0.32159 0.0333184 0 0.322 0.0342188 0 0.322401 0.0350584 0 0.322792 0.035843 0 0.323173 0.0365764 0 0.323542 0.0372598 0 0.323894 0.0378927 0 0.322367 0.0206667 0 0.322829 0.0226539 0 0.323271 0.0244392 0 0.323699 0.0260472 0 0.32412 0.0275001 0 0.324541 0.0288174 0 0.324966 0.0300165 0 0.325398 0.0311126 0 0.325842 0.0321188 0 0.326298 0.0330463 0 0.326765 0.0339041 0 0.327244 0.0346993 0 0.32773 0.035437 0 0.32822 0.0361205 0 0.328708 0.0367512 0 0.329187 0.0373289 0 0.3278 0.021 0 0.328073 0.022865 0 0.328358 0.0245508 0 0.32866 0.0260773 0 0.328985 0.0274624 0 0.329339 0.0287221 0 0.329723 0.0298709 0 0.330141 0.0309213 0 0.330594 0.0318845 0 0.33108 0.0327698 0 0.331599 0.0335849 0 0.332146 0.0343358 0 0.332715 0.035027 0 0.3333 0.0356615 0 0.333892 0.0362408 0 0.334481 0.0367651 0 0.333233 0.0213333 0 0.333342 0.0230771 0 0.33349 0.0246635 0 0.333681 0.0261078 0 0.333922 0.0274241 0 0.334215 0.0286253 0 0.334563 0.0297227 0 0.334967 0.0307267 0 0.335427 0.0316462 0 0.33594 0.0324889 0 0.336503 0.033261 0 0.337109 0.0339678 0 0.337749 0.0346131 0 0.338415 0.0351995 0 0.339094 0.0357287 0 0.339774 0.0362014 0 0.338667 0.0216667 0 0.338637 0.0232903 0 0.338667 0.0247771 0 0.338764 0.0261386 0 0.338931 0.0273853 0 0.339172 0.0285268 0 0.339488 0.029572 0 0.339879 0.0305286 0 0.340344 0.0314037 0 0.34088 0.0322033 0 0.341479 0.0329324 0 0.342133 0.0335953 0 0.342832 0.0341951 0 0.343564 0.0347344 0 0.344314 0.0352148 0 0.345067 0.0356376 0 0.3441 0.022 0 0.343957 0.0235044 0 0.343891 0.0248918 0 0.343909 0.0261698 0 0.344015 0.0273459 0 0.344211 0.0284268 0 0.344499 0.0294186 0 0.344879 0.030327 0 0.345348 0.031157 0 0.3459 0.0319131 0 0.346528 0.032599 0 0.34722 0.0332181 0 0.347965 0.033773 0 0.348748 0.0342661 0 0.349552 0.0346992 0 0.35036 0.0350739 0 0.349533 0.0223333 0 0.349303 0.0237196 0 0.349162 0.0250075 0 0.349118 0.0262014 0 0.349174 0.0273059 0 0.349334 0.028325 0 0.3496 0.0292624 0 0.34997 0.0301217 0 0.35044 0.0309059 0 0.351004 0.031618 0 0.351652 0.0322606 0 0.352371 0.0328361 0 0.353149 0.0333468 0 0.353967 0.0337946 0 0.354808 0.0341817 0 0.355654 0.0345101 0 0.354967 0.0226667 0 0.354675 0.0239359 0 0.354481 0.0251242 0 0.354391 0.0262334 0 0.354411 0.0272653 0 0.354545 0.0282215 0 0.354793 0.0291035 0 0.355154 0.0299127 0 0.355623 0.0306504 0 0.356193 0.0313181 0 0.356852 0.0319172 0 0.357588 0.0324493 0 0.358383 0.0329163 0 0.359221 0.03332 0 0.360082 0.0336625 0 0.360947 0.0339463 0 0.3604 0.023 0 0.360073 0.0241532 0 0.359847 0.025242 0 0.35973 0.0262658 0 0.359728 0.0272242 0 0.359844 0.0281163 0 0.36008 0.0289417 0 0.360433 0.0296997 0 0.360899 0.0303902 0 0.361469 0.031013 0 0.362131 0.0315686 0 0.362871 0.0320576 0 0.36367 0.0324815 0 0.364512 0.0328421 0 0.365375 0.0331415 0 0.36624 0.0333826 0 0.365833 0.0233333 0 0.365498 0.0243716 0 0.365262 0.0253609 0 0.365136 0.0262986 0 0.365125 0.0271823 0 0.365234 0.0280093 0 0.365463 0.0287769 0 0.365811 0.0294829 0 0.366271 0.0301253 0 0.366835 0.0307028 0 0.36749 0.0312147 0 0.368221 0.0316609 0 0.36901 0.0320424 0 0.369838 0.0323609 0 0.370686 0.0326187 0 0.371534 0.0328188 0 0.371267 0.0236667 0 0.370949 0.024591 0 0.370727 0.0254808 0 0.370611 0.0263319 0 0.370606 0.0271399 0 0.370718 0.0279004 0 0.370946 0.0286091 0 0.37129 0.0292619 0 0.371742 0.0298556 0 0.372293 0.0303873 0 0.372931 0.0308553 0 0.373641 0.0312591 0 0.374404 0.0315989 0 0.375201 0.0318764 0 0.376015 0.032094 0 0.376827 0.032255 0 0.3767 0.024 0 0.376427 0.0248116 0 0.376242 0.0256019 0 0.376155 0.0263655 0 0.376173 0.0270967 0 0.376298 0.0277896 0 0.376532 0.0284381 0 0.376872 0.0290368 0 0.377314 0.0295808 0 0.377846 0.0300663 0 0.378456 0.0304905 0 0.379131 0.030852 0 0.379852 0.0311509 0 0.380602 0.0313886 0 0.381363 0.0315675 0 0.38212 0.0316913 0 0.382133 0.0243333 0 0.381932 0.0250332 0 0.381808 0.025724 0 0.381771 0.0263996 0 0.381826 0.0270529 0 0.381976 0.0276768 0 0.382222 0.0282639 0 0.382562 0.0288074 0 0.382989 0.029301 0 0.383495 0.0297397 0 0.384067 0.0301199 0 0.384692 0.0304396 0 0.385355 0.0306984 0 0.386039 0.0308973 0 0.38673 0.0310392 0 0.387413 0.0311275 0 0.387567 0.0246667 0 0.387464 0.0252559 0 0.387426 0.0258473 0 0.387459 0.0264341 0 0.387568 0.0270084 0 0.387755 0.027562 0 0.388021 0.0280864 0 0.388362 0.0285735 0 0.388772 0.0290158 0 0.389244 0.0294074 0 0.389766 0.0297436 0 0.390327 0.0300218 0 0.390914 0.0302412 0 0.391515 0.0304027 0 0.392116 0.030509 0 0.392707 0.0305638 0 0.393 0.025 0 0.393023 0.0254797 0 0.393095 0.0259718 0 0.393221 0.0264691 0 0.393402 0.0269632 0 0.393639 0.0274452 0 0.393931 0.0279055 0 0.394275 0.028335 0 0.394665 0.0287253 0 0.395094 0.0290691 0 0.395555 0.0293613 0 0.396037 0.0295984 0 0.396531 0.0297793 0 0.397028 0.0299047 0 0.39752 0.0299769 0 0.398 0.03 0 
</DataArray>
</Points> 
</Piece> 
</StructuredGrid> 
</VTKFile> 
