<?xml version="1.0"?> 
<VTKFile type="StructuredGrid" version="0.1"> 
<StructuredGrid WholeExtent="0 15 0 15 0 0"> 
<Piece Extent="0 15 0 15 0 0"> 
<PointData>
<DataArray type="Float32" Name="E" format="ascii" NumberOfComponents="3"> 
1.14404e+06 4.81907 0 1.13963e+06 118880 0 1.1262e+06 238378 0 1.10316e+06 359075 0 1.06944e+06 481477 0 1.02344e+06 605944 0 962908 732560 0 884704 860909 0 784646 989692 0 657182 1.116e+06 0 495502 1.23411e+06 0 291166 1.33328e+06 0 38062.7 1.39435e+06 0 -267141 1.38425e+06 0 -603198 1.25112e+06 0 -904024 904024 0 1.04984e+06 2.9886 0 1.04472e+06 117552 0 1.02915e+06 235464 0 1.00244e+06 354020 0 963410 473346 0 910317 593271 0 840735 713106 0 751461 831308 0 638498 944851 0 497137 1.04837e+06 0 322802 1.13252e+06 0 112887 1.18229e+06 0 -128088 1.17448e+06 0 -376798 1.07916e+06 0 -573894 876493 0 -633853 633853 0 961779 0.62164 0 956027 115172 0 938538 230385 0 908601 345561 0 864997 460372 0 805968 574031 0 729182 685009 0 631805 790555 0 510714 886077 0 363271 964103 0 188898 1.01342e+06 0 -7330.59 1.01825e+06 0 -208577 961217 0 -380225 833631 0 -479665 663341 0 -503119 503119 0 879942 -1.87932 0 873651 111918 0 854547 223515 0 821934 334313 0 774649 443487 0 711083 549625 0 629268 650363 0 527120 741936 0 403044 818539 0 257125 871827 0 93415.1 890772 0 -76626.1 863750 0 -231489 784521 0 -343826 664238 0 -401148 532474 0 -416228 416228 0 804297 -4.76115 0 797572 107973 0 777187 215243 0 742508 320915 0 692521 423676 0 625918 521517 0 541313 611390 0 437687 688789 0 315248 747426 0 176901 779242 0 30341.2 775670 0 -110353 731109 0 -226299 649150 0 -303448 545961 0 -341530 442422 0 -351441 351441 0 734695 -7.50177 0 727647 103516 0 706323 205946 0 670201 305992 0 618495 401884 0 550315 491120 0 465006 570150 0 362740 634143 0 245502 676980 0 118448 691975 0 -8925.59 673907 0 -123150 622638 0 -211292 546343 0 -267373 459571 0 -295175 375890 0 -302643 302643 0 670899 -10.2557 0 663635 98709.4 0 641707 195970 0 604740 290109 0 552232 378968 0 483789 459669 0 399542 528400 0 300821 580371 0 191080 610195 0 76815.3 613060 0 -32255.5 586955 0 -125193 535217 0 -193907 466997 0 -236939 393813 0 -258257 324643 0 -264084 264084 0 612611 -12.7449 0 605231 93698.9 0 583009 185619 0 545738 273758 0 493237 355651 0 425632 428181 0 343820 487488 0 250122 529134 0 149005 548771 0 47483.3 543502 0 -45626 513769 0 -122032 464570 0 -177182 404441 0 -211390 342184 0 -228524 284088 0 -233251 233251 0 559489 -14.9831 0 552083 88605.7 0 529839 175144 0 492734 257343 0 440915 332512 0 375014 397427 0 296605 448359 0 208769 481422 0 116543 493395 0 26802.6 483038 0 -52919.7 452381 0 -116679 406942 0 -161994 354124 0 -190083 300731 0 -204225 251333 0 -208187 208187 0 511171 -16.8826 0 503815 83528.9 0 481782 164750 0 445230 241180 0 394627 309987 0 331061 367948 0 256664 411598 0 175033 437693 0 91391.8 444081 0 12119.5 430791 0 -56612.4 400754 0 -110591 359388 0 -148650 312976 0 -172253 266853 0 -184255 224507 0 -187654 187654 0 467284 -18.4426 0 460042 78545.7 0 438409 154593 0 402718 225505 0 353729 288381 0 292923 340091 0 222854 377506 0 147411 398040 0 71742.9 400458 0 1552.34 385690 0 -58187.8 357090 0 -104544 319705 0 -137091 278841 0 -157361 238788 0 -167775 202304 0 -170772 170772 0 427461 -19.652 0 420384 73713.8 0 399300 144787 0 364702 210482 0 317604 267893 0 259808 314041 0 194158 346174 0 124662 362317 0 56216.5 361978 0 -6181.61 346682 0 -58567.5 319905 0 -98901.8 286235 0 -127207 250183 0 -144953 215280 0 -154209 183801 0 -156934 156934 0 391346 -20.5392 0 384473 69074 0 364049 135410 0 330707 196218 0 285678 248634 0 231003 289870 0 169710 317554 0 105786 330252 0 43786.8 328044 0 -11963.9 312818 0 -58308.4 288002 0 -93844.8 257725 0 -118848 225866 0 -134700 195405 0 -143157 168320 0 -145748 145748 0 358602 -21.1209 0 351962 64653.2 0 332276 126510 0 300297 182771 0 257429 230647 0 205886 267564 0 148781 291511 0 89992.2 301513 0 33694.3 298074 0 -16394.7 283280 0 -57757.5 260424 0 -89447.1 233211 0 -111881 205028 0 -126364 178458 0 -134380 155348 0 -137070 137070 0 328912 -21.4568 0 322523 60466.9 0 303626 118115 0 273071 170163 0 232392 213929 0 183917 247056 0 130771 267862 0 76662.2 275751 0 25379.3 271533 0 -19887.8 257376 0 -57129.5 236401 0 -85732.6 211935 0 -106189 186989 0 -119806 163868 0 -127795 144420 0 -131354 131354 0 301986 -21.8009 0 295860 56521.7 0 277779 110231 0 248671 158392 0 210164 198444 0 164644 228244 0 115194 246403 0 65319 252630 0 18434.1 247944 0 -22722.2 234526 0 -56555.8 215307 0 -82684.8 193295 0 -101684 171186 0 -114930 151159 0 -123562 134667 0 -131583 131583 0 </DataArray> 
</PointData> 
<Points> 
<DataArray type="Float32" NumberOfComponents="3"> 
0.397 0 0 0.397 0.000733333 0 0.397 0.00146667 0 0.397 0.0022 0 0.397 0.00293333 0 0.397 0.00366667 0 0.397 0.0044 0 0.397 0.00513333 0 0.397 0.00586667 0 0.397 0.0066 0 0.397 0.00733333 0 0.397 0.00806667 0 0.397 0.0088 0 0.397 0.00953333 0 0.397 0.0102667 0 0.397 0.011 0 0.3976 0 0 0.3976 0.000773333 0 0.3976 0.00154667 0 0.3976 0.00232 0 0.3976 0.00309333 0 0.3976 0.00386667 0 0.3976 0.00464 0 0.3976 0.00541333 0 0.3976 0.00618667 0 0.3976 0.00696 0 0.3976 0.00773333 0 0.3976 0.00850667 0 0.3976 0.00928 0 0.3976 0.0100533 0 0.3976 0.0108267 0 0.3976 0.0116 0 0.3982 0 0 0.3982 0.000813333 0 0.3982 0.00162667 0 0.3982 0.00244 0 0.3982 0.00325333 0 0.3982 0.00406667 0 0.3982 0.00488 0 0.3982 0.00569333 0 0.3982 0.00650667 0 0.3982 0.00732 0 0.3982 0.00813333 0 0.3982 0.00894667 0 0.3982 0.00976 0 0.3982 0.0105733 0 0.3982 0.0113867 0 0.3982 0.0122 0 0.3988 0 0 0.3988 0.000853333 0 0.3988 0.00170667 0 0.3988 0.00256 0 0.3988 0.00341333 0 0.3988 0.00426667 0 0.3988 0.00512 0 0.3988 0.00597333 0 0.3988 0.00682667 0 0.3988 0.00768 0 0.3988 0.00853333 0 0.3988 0.00938667 0 0.3988 0.01024 0 0.3988 0.0110933 0 0.3988 0.0119467 0 0.3988 0.0128 0 0.3994 0 0 0.3994 0.000893333 0 0.3994 0.00178667 0 0.3994 0.00268 0 0.3994 0.00357333 0 0.3994 0.00446667 0 0.3994 0.00536 0 0.3994 0.00625333 0 0.3994 0.00714667 0 0.3994 0.00804 0 0.3994 0.00893333 0 0.3994 0.00982667 0 0.3994 0.01072 0 0.3994 0.0116133 0 0.3994 0.0125067 0 0.3994 0.0134 0 0.4 0 0 0.4 0.000933333 0 0.4 0.00186667 0 0.4 0.0028 0 0.4 0.00373333 0 0.4 0.00466667 0 0.4 0.0056 0 0.4 0.00653333 0 0.4 0.00746667 0 0.4 0.0084 0 0.4 0.00933333 0 0.4 0.0102667 0 0.4 0.0112 0 0.4 0.0121333 0 0.4 0.0130667 0 0.4 0.014 0 0.4006 0 0 0.4006 0.000973333 0 0.4006 0.00194667 0 0.4006 0.00292 0 0.4006 0.00389333 0 0.4006 0.00486667 0 0.4006 0.00584 0 0.4006 0.00681333 0 0.4006 0.00778667 0 0.4006 0.00876 0 0.4006 0.00973333 0 0.4006 0.0107067 0 0.4006 0.01168 0 0.4006 0.0126533 0 0.4006 0.0136267 0 0.4006 0.0146 0 0.4012 0 0 0.4012 0.00101333 0 0.4012 0.00202667 0 0.4012 0.00304 0 0.4012 0.00405333 0 0.4012 0.00506667 0 0.4012 0.00608 0 0.4012 0.00709333 0 0.4012 0.00810667 0 0.4012 0.00912 0 0.4012 0.0101333 0 0.4012 0.0111467 0 0.4012 0.01216 0 0.4012 0.0131733 0 0.4012 0.0141867 0 0.4012 0.0152 0 0.4018 0 0 0.4018 0.00105333 0 0.4018 0.00210667 0 0.4018 0.00316 0 0.4018 0.00421333 0 0.4018 0.00526667 0 0.4018 0.00632 0 0.4018 0.00737333 0 0.4018 0.00842667 0 0.4018 0.00948 0 0.4018 0.0105333 0 0.4018 0.0115867 0 0.4018 0.01264 0 0.4018 0.0136933 0 0.4018 0.0147467 0 0.4018 0.0158 0 0.4024 0 0 0.4024 0.00109333 0 0.4024 0.00218667 0 0.4024 0.00328 0 0.4024 0.00437333 0 0.4024 0.00546667 0 0.4024 0.00656 0 0.4024 0.00765333 0 0.4024 0.00874667 0 0.4024 0.00984 0 0.4024 0.0109333 0 0.4024 0.0120267 0 0.4024 0.01312 0 0.4024 0.0142133 0 0.4024 0.0153067 0 0.4024 0.0164 0 0.403 0 0 0.403 0.00113333 0 0.403 0.00226667 0 0.403 0.0034 0 0.403 0.00453333 0 0.403 0.00566667 0 0.403 0.0068 0 0.403 0.00793333 0 0.403 0.00906667 0 0.403 0.0102 0 0.403 0.0113333 0 0.403 0.0124667 0 0.403 0.0136 0 0.403 0.0147333 0 0.403 0.0158667 0 0.403 0.017 0 0.4036 0 0 0.4036 0.00117333 0 0.4036 0.00234667 0 0.4036 0.00352 0 0.4036 0.00469333 0 0.4036 0.00586667 0 0.4036 0.00704 0 0.4036 0.00821333 0 0.4036 0.00938667 0 0.4036 0.01056 0 0.4036 0.0117333 0 0.4036 0.0129067 0 0.4036 0.01408 0 0.4036 0.0152533 0 0.4036 0.0164267 0 0.4036 0.0176 0 0.4042 0 0 0.4042 0.00121333 0 0.4042 0.00242667 0 0.4042 0.00364 0 0.4042 0.00485333 0 0.4042 0.00606667 0 0.4042 0.00728 0 0.4042 0.00849333 0 0.4042 0.00970667 0 0.4042 0.01092 0 0.4042 0.0121333 0 0.4042 0.0133467 0 0.4042 0.01456 0 0.4042 0.0157733 0 0.4042 0.0169867 0 0.4042 0.0182 0 0.4048 0 0 0.4048 0.00125333 0 0.4048 0.00250667 0 0.4048 0.00376 0 0.4048 0.00501333 0 0.4048 0.00626667 0 0.4048 0.00752 0 0.4048 0.00877333 0 0.4048 0.0100267 0 0.4048 0.01128 0 0.4048 0.0125333 0 0.4048 0.0137867 0 0.4048 0.01504 0 0.4048 0.0162933 0 0.4048 0.0175467 0 0.4048 0.0188 0 0.4054 0 0 0.4054 0.00129333 0 0.4054 0.00258667 0 0.4054 0.00388 0 0.4054 0.00517333 0 0.4054 0.00646667 0 0.4054 0.00776 0 0.4054 0.00905333 0 0.4054 0.0103467 0 0.4054 0.01164 0 0.4054 0.0129333 0 0.4054 0.0142267 0 0.4054 0.01552 0 0.4054 0.0168133 0 0.4054 0.0181067 0 0.4054 0.0194 0 0.406 0 0 0.406 0.00133333 0 0.406 0.00266667 0 0.406 0.004 0 0.406 0.00533333 0 0.406 0.00666667 0 0.406 0.008 0 0.406 0.00933333 0 0.406 0.0106667 0 0.406 0.012 0 0.406 0.0133333 0 0.406 0.0146667 0 0.406 0.016 0 0.406 0.0173333 0 0.406 0.0186667 0 0.406 0.02 0 
</DataArray>
</Points> 
</Piece> 
</StructuredGrid> 
</VTKFile> 
