<?xml version="1.0"?> 
<VTKFile type="StructuredGrid" version="0.1"> 
<StructuredGrid WholeExtent="0 15 0 15 0 0"> 
<Piece Extent="0 15 0 15 0 0"> 
<PointData>
<DataArray type="Float32" Name="E" format="ascii" NumberOfComponents="3"> 
-851106 -2.72635e+06 0 -827623 -2.84955e+06 0 -787138 -2.96335e+06 0 -741138 -3.07788e+06 0 -691716 -3.19173e+06 0 -640503 -3.30532e+06 0 -588407 -3.41957e+06 0 -535772 -3.53569e+06 0 -482400 -3.65485e+06 0 -427653 -3.77814e+06 0 -370520 -3.90645e+06 0 -309702 -4.04044e+06 0 -243697 -4.18044e+06 0 -170961 -4.32652e+06 0 -90048 -4.47839e+06 0 -1.72853e-06 -4.63561e+06 0 -833537 -2.63324e+06 0 -796628 -2.72419e+06 0 -760111 -2.8232e+06 0 -718260 -2.92719e+06 0 -671769 -3.03238e+06 0 -622020 -3.13774e+06 0 -570107 -3.24334e+06 0 -516668 -3.34969e+06 0 -461939 -3.45747e+06 0 -405802 -3.5674e+06 0 -347826 -3.68016e+06 0 -287319 -3.7963e+06 0 -223378 -3.91621e+06 0 -154943 -4.04008e+06 0 -80867.2 -4.16794e+06 0 4.18513e-08 -4.29967e+06 0 -817824 -2.52075e+06 0 -775805 -2.60616e+06 0 -735123 -2.69332e+06 0 -693880 -2.78423e+06 0 -649702 -2.87842e+06 0 -602251 -2.97422e+06 0 -551973 -3.07077e+06 0 -499429 -3.16788e+06 0 -445009 -3.26572e+06 0 -388878 -3.36462e+06 0 -330977 -3.46497e+06 0 -271040 -3.56716e+06 0 -208625 -3.67147e+06 0 -143138 -3.77809e+06 0 -73869.6 -3.88709e+06 0 7.45058e-08 -3.9984e+06 0 -802553 -2.40855e+06 0 -759350 -2.48761e+06 0 -715931 -2.56748e+06 0 -672393 -2.64858e+06 0 -628045 -2.73178e+06 0 -581800 -2.81703e+06 0 -533217 -2.90372e+06 0 -482299 -2.99132e+06 0 -429239 -3.0796e+06 0 -374220 -3.16854e+06 0 -317333 -3.25824e+06 0 -258552 -3.34889e+06 0 -197731 -3.44064e+06 0 -134616 -3.53363e+06 0 -68844.8 -3.6279e+06 0 -3.44589e-08 -3.72342e+06 0 -787551 -2.29679e+06 0 -743763 -2.36962e+06 0 -699474 -2.44262e+06 0 -654665 -2.51628e+06 0 -609187 -2.59076e+06 0 -562754 -2.6664e+06 0 -514879 -2.74327e+06 0 -465240 -2.82118e+06 0 -413705 -2.89988e+06 0 -360276 -2.97921e+06 0 -304995 -3.05908e+06 0 -247886 -3.13948e+06 0 -188931 -3.22047e+06 0 -128059 -3.30207e+06 0 -65150.5 -3.38432e+06 0 7.91624e-08 -3.4672e+06 0 -772611 -2.18615e+06 0 -728567 -2.25259e+06 0 -683939 -2.31917e+06 0 -638688 -2.38586e+06 0 -592756 -2.45294e+06 0 -545985 -2.5205e+06 0 -498215 -2.58867e+06 0 -449215 -2.65752e+06 0 -398789 -2.727e+06 0 -346808 -2.79702e+06 0 -293205 -2.86748e+06 0 -237957 -2.93833e+06 0 -181046 -3.0095e+06 0 -122441 -3.08099e+06 0 -62098.6 -3.15278e+06 0 -5.21541e-08 -3.22483e+06 0 -757479 -2.07643e+06 0 -713328 -2.13687e+06 0 -668652 -2.19715e+06 0 -623377 -2.2574e+06 0 -577426 -2.31763e+06 0 -530735 -2.37798e+06 0 -483183 -2.4385e+06 0 -434659 -2.49929e+06 0 -385040 -2.56036e+06 0 -334208 -2.62172e+06 0 -282069 -2.68334e+06 0 -228550 -2.74518e+06 0 -173614 -2.80722e+06 0 -117241 -2.8694e+06 0 -59393.3 -2.93165e+06 0 2.98023e-08 -2.99412e+06 0 -741936 -1.96765e+06 0 -697712 -2.02235e+06 0 -653109 -2.07673e+06 0 -608019 -2.13083e+06 0 -562356 -2.18472e+06 0 -516031 -2.23842e+06 0 -468974 -2.29201e+06 0 -421096 -2.34553e+06 0 -372314 -2.39903e+06 0 -322549 -2.45254e+06 0 -271730 -2.50606e+06 0 -219799 -2.55961e+06 0 -166690 -2.61314e+06 0 -112348 -2.66665e+06 0 -56783.5 -2.72023e+06 0 1.11759e-07 -2.77334e+06 0 -725543 -1.8598e+06 0 -681372 -1.90898e+06 0 -636898 -1.95779e+06 0 -592082 -2.00616e+06 0 -546840 -2.05412e+06 0 -501090 -2.1017e+06 0 -454744 -2.14892e+06 0 -407727 -2.19583e+06 0 -359963 -2.24245e+06 0 -311380 -2.28881e+06 0 -261916 -2.33496e+06 0 -211517 -2.38092e+06 0 -160170 -2.42673e+06 0 -107855 -2.47233e+06 0 -54464.5 -2.51753e+06 0 -1.22935e-07 -2.56351e+06 0 -708012 -1.75213e+06 0 -663743 -1.79663e+06 0 -619462 -1.84025e+06 0 -574986 -1.88329e+06 0 -530243 -1.92579e+06 0 -485163 -1.96774e+06 0 -439673 -2.00916e+06 0 -393691 -2.05005e+06 0 -347136 -2.09043e+06 0 -299936 -2.13033e+06 0 -252022 -2.16977e+06 0 -203331 -2.20877e+06 0 -153777 -2.24733e+06 0 -103328 -2.28563e+06 0 -52112.1 -2.324e+06 0 1.49012e-07 -2.35988e+06 0 -688431 -1.64641e+06 0 -644470 -1.68521e+06 0 -600350 -1.724e+06 0 -556169 -1.76212e+06 0 -511885 -1.79959e+06 0 -467464 -1.83644e+06 0 -422860 -1.87264e+06 0 -378009 -1.90817e+06 0 -332826 -1.94299e+06 0 -287212 -1.9771e+06 0 -241070 -2.01053e+06 0 -194324 -2.04334e+06 0 -146948 -2.07557e+06 0 -98860.8 -2.10696e+06 0 -49799.2 -2.13718e+06 0 -1.86265e-07 -2.17145e+06 0 -666192 -1.53873e+06 0 -622583 -1.57557e+06 0 -579017 -1.6095e+06 0 -535232 -1.64271e+06 0 -491294 -1.67536e+06 0 -447301 -1.70748e+06 0 -403342 -1.73906e+06 0 -359454 -1.76999e+06 0 -315619 -1.80017e+06 0 -271762 -1.82948e+06 0 -227749 -1.85778e+06 0 -183402 -1.88501e+06 0 -138506 -1.91126e+06 0 -92957.4 -1.93712e+06 0 -46925.8 -1.96304e+06 0 1.49012e-07 -1.97938e+06 0 -639140 -1.44114e+06 0 -597832 -1.46843e+06 0 -555720 -1.49773e+06 0 -512678 -1.52568e+06 0 -468898 -1.55302e+06 0 -424733 -1.5802e+06 0 -380560 -1.60733e+06 0 -336721 -1.63434e+06 0 -293463 -1.66102e+06 0 -250899 -1.68705e+06 0 -208999 -1.71213e+06 0 -167594 -1.73596e+06 0 -126432 -1.75809e+06 0 -85133.8 -1.77757e+06 0 -43105.4 -1.79434e+06 0 -1.19209e-07 -1.82611e+06 0 -603824 -1.33926e+06 0 -570081 -1.37307e+06 0 -532705 -1.39408e+06 0 -491963 -1.41338e+06 0 -448321 -1.43262e+06 0 -402705 -1.45271e+06 0 -356136 -1.47412e+06 0 -309552 -1.49697e+06 0 -263844 -1.52114e+06 0 -219845 -1.54618e+06 0 -178259 -1.5713e+06 0 -139472 -1.5955e+06 0 -103246 -1.61802e+06 0 -68458.6 -1.63898e+06 0 -33553 -1.65721e+06 0 0 -1.64373e+06 0 -553192 -1.29468e+06 0 -543805 -1.30612e+06 0 -523840 -1.30918e+06 0 -487586 -1.30969e+06 0 -442006 -1.31294e+06 0 -391475 -1.32005e+06 0 -338074 -1.33113e+06 0 -283108 -1.34628e+06 0 -227582 -1.36579e+06 0 -172680 -1.39021e+06 0 -120148 -1.42007e+06 0 -72861 -1.4554e+06 0 -35401.4 -1.49446e+06 0 -14185 -1.53184e+06 0 -12297.4 -1.55931e+06 0 2.98023e-08 -1.59358e+06 0 -392453 -1.66629e+06 0 -633837 -1.3289e+06 0 -597094 -1.23309e+06 0 -533692 -1.19398e+06 0 -469702 -1.17551e+06 0 -405042 -1.16684e+06 0 -339561 -1.16403e+06 0 -272105 -1.1656e+06 0 -201661 -1.17109e+06 0 -126528 -1.18095e+06 0 -44043.2 -1.19673e+06 0 50528.1 -1.2221e+06 0 163547 -1.26675e+06 0 295916 -1.36098e+06 0 383137 -1.61757e+06 0 -1.78814e-07 -2.49574e+06 0 </DataArray> 
</PointData> 
<Points> 
<DataArray type="Float32" NumberOfComponents="3"> 
0.236 0.027 0 0.2351 0.0275333 0 0.2342 0.0280667 0 0.2333 0.0286 0 0.2324 0.0291333 0 0.2315 0.0296667 0 0.2306 0.0302 0 0.2297 0.0307333 0 0.2288 0.0312667 0 0.2279 0.0318 0 0.227 0.0323333 0 0.2261 0.0328667 0 0.2252 0.0334 0 0.2243 0.0339333 0 0.2234 0.0344667 0 0.2225 0.035 0 0.237133 0.027 0 0.236291 0.0275333 0 0.235449 0.0280667 0 0.234607 0.0286 0 0.233764 0.0291333 0 0.232922 0.0296667 0 0.23208 0.0302 0 0.231238 0.0307333 0 0.230396 0.0312667 0 0.229553 0.0318 0 0.228711 0.0323333 0 0.227869 0.0328667 0 0.227027 0.0334 0 0.226184 0.0339333 0 0.225342 0.0344667 0 0.2245 0.035 0 0.238267 0.027 0 0.237482 0.0275333 0 0.236698 0.0280667 0 0.235913 0.0286 0 0.235129 0.0291333 0 0.234344 0.0296667 0 0.23356 0.0302 0 0.232776 0.0307333 0 0.231991 0.0312667 0 0.231207 0.0318 0 0.230422 0.0323333 0 0.229638 0.0328667 0 0.228853 0.0334 0 0.228069 0.0339333 0 0.227284 0.0344667 0 0.2265 0.035 0 0.2394 0.027 0 0.238673 0.0275333 0 0.237947 0.0280667 0 0.23722 0.0286 0 0.236493 0.0291333 0 0.235767 0.0296667 0 0.23504 0.0302 0 0.234313 0.0307333 0 0.233587 0.0312667 0 0.23286 0.0318 0 0.232133 0.0323333 0 0.231407 0.0328667 0 0.23068 0.0334 0 0.229953 0.0339333 0 0.229227 0.0344667 0 0.2285 0.035 0 0.240533 0.027 0 0.239864 0.0275333 0 0.239196 0.0280667 0 0.238527 0.0286 0 0.237858 0.0291333 0 0.237189 0.0296667 0 0.23652 0.0302 0 0.235851 0.0307333 0 0.235182 0.0312667 0 0.234513 0.0318 0 0.233844 0.0323333 0 0.233176 0.0328667 0 0.232507 0.0334 0 0.231838 0.0339333 0 0.231169 0.0344667 0 0.2305 0.035 0 0.241667 0.027 0 0.241056 0.0275333 0 0.240444 0.0280667 0 0.239833 0.0286 0 0.239222 0.0291333 0 0.238611 0.0296667 0 0.238 0.0302 0 0.237389 0.0307333 0 0.236778 0.0312667 0 0.236167 0.0318 0 0.235556 0.0323333 0 0.234944 0.0328667 0 0.234333 0.0334 0 0.233722 0.0339333 0 0.233111 0.0344667 0 0.2325 0.035 0 0.2428 0.027 0 0.242247 0.0275333 0 0.241693 0.0280667 0 0.24114 0.0286 0 0.240587 0.0291333 0 0.240033 0.0296667 0 0.23948 0.0302 0 0.238927 0.0307333 0 0.238373 0.0312667 0 0.23782 0.0318 0 0.237267 0.0323333 0 0.236713 0.0328667 0 0.23616 0.0334 0 0.235607 0.0339333 0 0.235053 0.0344667 0 0.2345 0.035 0 0.243933 0.027 0 0.243438 0.0275333 0 0.242942 0.0280667 0 0.242447 0.0286 0 0.241951 0.0291333 0 0.241456 0.0296667 0 0.24096 0.0302 0 0.240464 0.0307333 0 0.239969 0.0312667 0 0.239473 0.0318 0 0.238978 0.0323333 0 0.238482 0.0328667 0 0.237987 0.0334 0 0.237491 0.0339333 0 0.236996 0.0344667 0 0.2365 0.035 0 0.245067 0.027 0 0.244629 0.0275333 0 0.244191 0.0280667 0 0.243753 0.0286 0 0.243316 0.0291333 0 0.242878 0.0296667 0 0.24244 0.0302 0 0.242002 0.0307333 0 0.241564 0.0312667 0 0.241127 0.0318 0 0.240689 0.0323333 0 0.240251 0.0328667 0 0.239813 0.0334 0 0.239376 0.0339333 0 0.238938 0.0344667 0 0.2385 0.035 0 0.2462 0.027 0 0.24582 0.0275333 0 0.24544 0.0280667 0 0.24506 0.0286 0 0.24468 0.0291333 0 0.2443 0.0296667 0 0.24392 0.0302 0 0.24354 0.0307333 0 0.24316 0.0312667 0 0.24278 0.0318 0 0.2424 0.0323333 0 0.24202 0.0328667 0 0.24164 0.0334 0 0.24126 0.0339333 0 0.24088 0.0344667 0 0.2405 0.035 0 0.247333 0.027 0 0.247011 0.0275333 0 0.246689 0.0280667 0 0.246367 0.0286 0 0.246044 0.0291333 0 0.245722 0.0296667 0 0.2454 0.0302 0 0.245078 0.0307333 0 0.244756 0.0312667 0 0.244433 0.0318 0 0.244111 0.0323333 0 0.243789 0.0328667 0 0.243467 0.0334 0 0.243144 0.0339333 0 0.242822 0.0344667 0 0.2425 0.035 0 0.248467 0.027 0 0.248202 0.0275333 0 0.247938 0.0280667 0 0.247673 0.0286 0 0.247409 0.0291333 0 0.247144 0.0296667 0 0.24688 0.0302 0 0.246616 0.0307333 0 0.246351 0.0312667 0 0.246087 0.0318 0 0.245822 0.0323333 0 0.245558 0.0328667 0 0.245293 0.0334 0 0.245029 0.0339333 0 0.244764 0.0344667 0 0.2445 0.035 0 0.2496 0.027 0 0.249393 0.0275333 0 0.249187 0.0280667 0 0.24898 0.0286 0 0.248773 0.0291333 0 0.248567 0.0296667 0 0.24836 0.0302 0 0.248153 0.0307333 0 0.247947 0.0312667 0 0.24774 0.0318 0 0.247533 0.0323333 0 0.247327 0.0328667 0 0.24712 0.0334 0 0.246913 0.0339333 0 0.246707 0.0344667 0 0.2465 0.035 0 0.250733 0.027 0 0.250584 0.0275333 0 0.250436 0.0280667 0 0.250287 0.0286 0 0.250138 0.0291333 0 0.249989 0.0296667 0 0.24984 0.0302 0 0.249691 0.0307333 0 0.249542 0.0312667 0 0.249393 0.0318 0 0.249244 0.0323333 0 0.249096 0.0328667 0 0.248947 0.0334 0 0.248798 0.0339333 0 0.248649 0.0344667 0 0.2485 0.035 0 0.251867 0.027 0 0.251776 0.0275333 0 0.251684 0.0280667 0 0.251593 0.0286 0 0.251502 0.0291333 0 0.251411 0.0296667 0 0.25132 0.0302 0 0.251229 0.0307333 0 0.251138 0.0312667 0 0.251047 0.0318 0 0.250956 0.0323333 0 0.250864 0.0328667 0 0.250773 0.0334 0 0.250682 0.0339333 0 0.250591 0.0344667 0 0.2505 0.035 0 0.253 0.027 0 0.252967 0.0275333 0 0.252933 0.0280667 0 0.2529 0.0286 0 0.252867 0.0291333 0 0.252833 0.0296667 0 0.2528 0.0302 0 0.252767 0.0307333 0 0.252733 0.0312667 0 0.2527 0.0318 0 0.252667 0.0323333 0 0.252633 0.0328667 0 0.2526 0.0334 0 0.252567 0.0339333 0 0.252533 0.0344667 0 0.2525 0.035 0 
</DataArray>
</Points> 
</Piece> 
</StructuredGrid> 
</VTKFile> 
