<?xml version="1.0"?> 
<VTKFile type="StructuredGrid" version="0.1"> 
<StructuredGrid WholeExtent="0 15 0 15 0 0"> 
<Piece Extent="0 15 0 15 0 0"> 
<PointData>
<DataArray type="Float32" Name="E" format="ascii" NumberOfComponents="3"> 
1.9445e+06 13.7814 0 1.94473e+06 139747 0 1.94543e+06 281338 0 1.94666e+06 426710 0 1.9485e+06 578024 0 1.95113e+06 737804 0 1.95484e+06 909133 0 1.96014e+06 1.09594e+06 0 1.96791e+06 1.30347e+06 0 1.97971e+06 1.53899e+06 0 1.99836e+06 1.81304e+06 0 2.029e+06 2.1417e+06 0 2.08119e+06 2.55048e+06 0 2.17331e+06 3.08138e+06 0 2.34383e+06 3.80449e+06 0 2.68729e+06 4.82409e+06 0 1.88736e+06 12.3592 0 1.88755e+06 134759 0 1.88748e+06 271639 0 1.88714e+06 412417 0 1.88653e+06 559108 0 1.88565e+06 714084 0 1.88452e+06 880270 0 1.88324e+06 1.06142e+06 0 1.88201e+06 1.26256e+06 0 1.88135e+06 1.49069e+06 0 1.88228e+06 1.75603e+06 0 1.88685e+06 2.07423e+06 0 1.89921e+06 2.47034e+06 0 1.92785e+06 2.98642e+06 0 1.99284e+06 3.69604e+06 0 2.1507e+06 4.72889e+06 0 1.83027e+06 11.3543 0 1.83025e+06 130267 0 1.8293e+06 262865 0 1.82738e+06 399436 0 1.82436e+06 541854 0 1.82009e+06 692348 0 1.81433e+06 853677 0 1.80679e+06 1.0294e+06 0 1.79708e+06 1.22427e+06 0 1.78474e+06 1.44495e+06 0 1.76917e+06 1.70113e+06 0 1.74965e+06 2.00768e+06 0 1.72535e+06 2.38843e+06 0 1.69542e+06 2.88376e+06 0 1.66114e+06 3.56636e+06 0 1.63599e+06 4.57443e+06 0 1.77336e+06 10.5637 0 1.77297e+06 126297 0 1.77106e+06 255076 0 1.76752e+06 387855 0 1.76213e+06 526382 0 1.75455e+06 672745 0 1.74433e+06 829536 0 1.73082e+06 1.00009e+06 0 1.71307e+06 1.18888e+06 0 1.68973e+06 1.40213e+06 0 1.65877e+06 1.64885e+06 0 1.61697e+06 1.94281e+06 0 1.55905e+06 2.30595e+06 0 1.47569e+06 2.7754e+06 0 1.35041e+06 3.41852e+06 0 1.15405e+06 4.3673e+06 0 1.71674e+06 9.94965 0 1.71586e+06 122871 0 1.71293e+06 248315 0 1.70775e+06 377742 0 1.69999e+06 512784 0 1.68918e+06 655391 0 1.67464e+06 807985 0 1.65538e+06 973674 0 1.62995e+06 1.1566e+06 0 1.59621e+06 1.36248e+06 0 1.55082e+06 1.59955e+06 0 1.48839e+06 1.88018e+06 0 1.39975e+06 2.22385e+06 0 1.26823e+06 2.66303e+06 0 1.06181e+06 3.25584e+06 0 713790 4.11523e+06 0 1.66054e+06 9.42698 0 1.6591e+06 120000 0 1.65509e+06 242610 0 1.64823e+06 369142 0 1.63812e+06 501120 0 1.62413e+06 640362 0 1.60536e+06 789116 0 1.58053e+06 950249 0 1.54772e+06 1.12755e+06 0 1.50406e+06 1.32618e+06 0 1.4451e+06 1.55345e+06 0 1.36356e+06 1.82015e+06 0 1.24696e+06 2.14279e+06 0 1.07262e+06 2.54803e+06 0 796115 3.08161e+06 0 322071 3.82732e+06 0 1.60487e+06 8.9646 0 1.60282e+06 117688 0 1.5977e+06 237970 0 1.58916e+06 362073 0 1.5767e+06 491418 0 1.55955e+06 627694 0 1.53663e+06 772970 0 1.50636e+06 929863 0 1.4664e+06 1.10178e+06 0 1.41326e+06 1.29327e+06 0 1.34147e+06 1.51065e+06 0 1.24218e+06 1.7629e+06 0 1.10028e+06 2.0632e+06 0 888473 2.43148e+06 0 553757 2.89888e+06 0 -16534.2 3.5137e+06 0 1.54984e+06 8.52387 0 1.54718e+06 115928 0 1.54093e+06 234389 0 1.53071e+06 356529 0 1.5159e+06 483671 0 1.49562e+06 617376 0 1.46859e+06 759533 0 1.43297e+06 912494 0 1.38605e+06 1.07926e+06 0 1.32376e+06 1.26373e+06 0 1.2398e+06 1.47112e+06 0 1.12403e+06 1.70845e+06 0 959382 1.98525e+06 0 715488 2.31415e+06 0 334892 2.71046e+06 0 -299918 3.18483e+06 0 1.49556e+06 8.08565 0 1.49231e+06 114710 0 1.48496e+06 231843 0 1.47305e+06 352476 0 1.4559e+06 477837 0 1.43249e+06 609356 0 1.40138e+06 748738 0 1.36047e+06 898058 0 1.30672e+06 1.05988e+06 0 1.23556e+06 1.23742e+06 0 1.14002e+06 1.4347e+06 0 1.00896e+06 1.65665e+06 0 824051 1.90894e+06 0 553461 2.19658e+06 0 139465 2.51885e+06 0 -528356 2.85075e+06 0 1.44214e+06 7.63872 0 1.43835e+06 114011 0 1.42993e+06 230295 0 1.41635e+06 349861 0 1.39686e+06 473844 0 1.37032e+06 603543 0 1.33512e+06 740469 0 1.28896e+06 886406 0 1.22847e+06 1.04346e+06 0 1.14869e+06 1.2141e+06 0 1.04209e+06 1.4011e+06 0 896895 1.60721e+06 0 694185 1.83406e+06 0 402308 2.07908e+06 0 -32741.4 2.32628e+06 0 -704208 2.52047e+06 0 1.38966e+06 7.18023 0 1.38542e+06 113804 0 1.37597e+06 229692 0 1.36076e+06 348607 0 1.33892e+06 471590 0 1.30923e+06 599805 0 1.26994e+06 734563 0 1.21852e+06 877336 0 1.15136e+06 1.02975e+06 0 1.06316e+06 1.19347e+06 0 946003 1.36997e+06 0 787811 1.55971e+06 0 569786 1.76032e+06 0 262065 1.96183e+06 0 -182075 2.13474e+06 0 -831435 2.2015e+06 0 1.3382e+06 6.71578 0 1.33363e+06 114057 0 1.32323e+06 229972 0 1.30639e+06 348620 0 1.28221e+06 470950 0 1.24936e+06 597983 0 1.20593e+06 730819 0 1.14925e+06 870599 0 1.07546e+06 1.01843e+06 0 979015 1.17516e+06 0 851793 1.34086e+06 0 681761 1.51368e+06 0 450968 1.68729e+06 0 132883 1.84494e+06 0 -308988 1.94601e+06 0 -915005 1.89956e+06 0 1.28785e+06 6.24112 0 1.28308e+06 114733 0 1.2718e+06 231061 0 1.25337e+06 349793 0 1.22684e+06 471780 0 1.19078e+06 597893 0 1.14318e+06 729005 0 1.08119e+06 865908 0 1.0008e+06 1.00916e+06 0 896289 1.15872e+06 0 759516 1.31325e+06 0 578861 1.46858e+06 0 337947 1.61456e+06 0 15008.1 1.72852e+06 0 -414015 1.76172e+06 0 -960224 1.61838e+06 0 1.23867e+06 5.77156 0 1.23385e+06 115791 0 1.22177e+06 232881 0 1.20178e+06 352010 0 1.17288e+06 473922 0 1.13357e+06 599332 0 1.08174e+06 728869 0 1.0144e+06 862950 0 927415 1.00155e+06 0 815027 1.1437e+06 0 669259 1.28662e+06 0 479284 1.42383e+06 0 231035 1.5417e+06 0 -91244.7 1.61272e+06 0 -497729 1.5834e+06 0 -971937 1.35966e+06 0 1.19071e+06 5.28542 0 1.18601e+06 117188 0 1.17322e+06 235348 0 1.15169e+06 355145 0 1.1204e+06 477211 0 1.07778e+06 602088 0 1.02163e+06 730145 0 948888 861396 0 855339 995194 0 735284 1.12962e+06 0 581144 1.26042e+06 0 383262 1.3789e+06 0 130638 1.46838e+06 0 -185534 1.49782e+06 0 -560626 1.4126e+06 0 -953367 1.12275e+06 0 1.14403e+06 4.81907 0 1.13962e+06 118880 0 1.1262e+06 238378 0 1.10315e+06 359075 0 1.06943e+06 481477 0 1.02343e+06 605944 0 962883 732560 0 884669 860909 0 784586 989692 0 657114 1.116e+06 0 495312 1.23411e+06 0 291065 1.33328e+06 0 37220.2 1.39435e+06 0 -267622 1.38425e+06 0 -602878 1.25112e+06 0 -904024 904024 0 </DataArray> 
</PointData> 
<Points> 
<DataArray type="Float32" NumberOfComponents="3"> 
0.392738 0 0 0.392738 0.000693704 0 0.392738 0.00138741 0 0.392738 0.00208111 0 0.392738 0.00277482 0 0.392738 0.00346852 0 0.392738 0.00416223 0 0.392738 0.00485593 0 0.392738 0.00554964 0 0.392738 0.00624334 0 0.392738 0.00693704 0 0.392738 0.00763075 0 0.392738 0.00832445 0 0.392738 0.00901816 0 0.392738 0.00971186 0 0.392738 0.0104056 0 0.393022 0 0 0.39302 0.000668877 0 0.393019 0.00134 0 0.393017 0.00201339 0 0.393016 0.00268905 0 0.393014 0.00336699 0 0.393012 0.00404723 0 0.393011 0.00472977 0 0.393009 0.00541464 0 0.393007 0.00610183 0 0.393006 0.00679137 0 0.393004 0.00748326 0 0.393002 0.00817752 0 0.393001 0.00887415 0 0.392999 0.00957318 0 0.392997 0.0102746 0 0.393306 0 0 0.393304 0.000647908 0 0.393302 0.00129987 0 0.3933 0.00195594 0 0.393298 0.00261613 0 0.393296 0.00328051 0 0.393293 0.00394909 0 0.393291 0.00462193 0 0.393289 0.00529907 0 0.393287 0.00598054 0 0.393284 0.00666639 0 0.393282 0.00735666 0 0.39328 0.00805139 0 0.393278 0.00875063 0 0.393275 0.00945442 0 0.393273 0.0101628 0 0.39359 0 0 0.393589 0.00063083 0 0.393587 0.00126714 0 0.393585 0.00190901 0 0.393583 0.00255651 0 0.393582 0.00320971 0 0.39358 0.00386869 0 0.393578 0.00453353 0 0.393576 0.0052043 0 0.393575 0.00588109 0 0.393573 0.00656397 0 0.393571 0.00725303 0 0.393569 0.00794835 0 0.393567 0.00865002 0 0.393565 0.00935813 0 0.393563 0.0100728 0 0.393874 0 0 0.393874 0.000617669 0 0.393873 0.00124191 0 0.393873 0.00187284 0 0.393872 0.00251055 0 0.393872 0.00315517 0 0.393871 0.00380679 0 0.39387 0.00446555 0 0.39387 0.00513154 0 0.393869 0.0058049 0 0.393868 0.00648575 0 0.393868 0.00717421 0 0.393867 0.00787042 0 0.393867 0.00857449 0 0.393866 0.00928658 0 0.393865 0.0100068 0 0.394159 0 0 0.39416 0.000608446 0 0.394161 0.00122426 0 0.394162 0.00184759 0 0.394163 0.00247856 0 0.394164 0.00311731 0 0.394165 0.00376399 0 0.394166 0.00441876 0 0.394167 0.00508175 0 0.394169 0.00575314 0 0.39417 0.00643307 0 0.394171 0.00712171 0 0.394172 0.00781924 0 0.394174 0.00852582 0 0.394175 0.00924163 0 0.394176 0.00996685 0 0.394443 0 0 0.394446 0.000603176 0 0.394449 0.00121425 0 0.394452 0.00183339 0 0.394455 0.00246073 0 0.394458 0.00309646 0 0.394461 0.00374074 0 0.394465 0.00439375 0 0.394468 0.00505565 0 0.394471 0.00572665 0 0.394475 0.00640691 0 0.394478 0.00709665 0 0.394481 0.00779604 0 0.394485 0.00850532 0 0.394489 0.00922467 0 0.394492 0.00995432 0 0.394727 0 0 0.394732 0.00060187 0 0.394737 0.00121192 0 0.394742 0.00183031 0 0.394747 0.00245723 0 0.394753 0.00309284 0 0.394758 0.00373733 0 0.394764 0.00439088 0 0.394769 0.00505369 0 0.394775 0.00572596 0 0.39478 0.00640789 0 0.394786 0.00709969 0 0.394792 0.00780158 0 0.394798 0.00851377 0 0.394804 0.0092365 0 0.39481 0.00997001 0 0.395011 0 0 0.395018 0.000604529 0 0.395025 0.00121727 0 0.395032 0.0018384 0 0.395039 0.00246809 0 0.395047 0.0031065 0 0.395054 0.00375384 0 0.395062 0.00441028 0 0.395069 0.00507603 0 0.395077 0.00575127 0 0.395085 0.00643621 0 0.395093 0.00713107 0 0.395101 0.00783605 0 0.395109 0.00855139 0 0.395118 0.00927732 0 0.395126 0.0100141 0 0.395295 0 0 0.395304 0.000611154 0 0.395312 0.00123031 0 0.395321 0.00185763 0 0.39533 0.00249328 0 0.395339 0.00313742 0 0.395348 0.00379022 0 0.395357 0.00445186 0 0.395367 0.00512252 0 0.395376 0.00580238 0 0.395386 0.00649165 0 0.395396 0.0071905 0 0.395406 0.00789915 0 0.395416 0.0086178 0 0.395426 0.00934667 0 0.395436 0.010086 0 0.395579 0 0 0.395589 0.000621735 0 0.395599 0.001251 0 0.395609 0.00188794 0 0.395618 0.00253269 0 0.395629 0.00318539 0 0.395639 0.0038462 0 0.395649 0.00451527 0 0.39566 0.00519274 0 0.39567 0.00587879 0 0.395681 0.00657357 0 0.395692 0.00727726 0 0.395703 0.00799002 0 0.395714 0.00871203 0 0.395725 0.00944348 0 0.395737 0.0101845 0 0.395863 0 0 0.395873 0.00063626 0 0.395883 0.00127929 0 0.395894 0.00192921 0 0.395904 0.00258612 0 0.395914 0.00325014 0 0.395925 0.00392138 0 0.395935 0.00459996 0 0.395946 0.005286 0 0.395957 0.00597963 0 0.395968 0.00668097 0 0.395979 0.00739015 0 0.39599 0.00810731 0 0.396002 0.00883258 0 0.396013 0.0095661 0 0.396025 0.010308 0 0.396148 0 0 0.396157 0.00065471 0 0.396166 0.00131511 0 0.396176 0.00198128 0 0.396186 0.00265329 0 0.396195 0.00333122 0 0.396205 0.00401515 0 0.396215 0.00470515 0 0.396225 0.00540131 0 0.396235 0.00610372 0 0.396245 0.00681245 0 0.396255 0.0075276 0 0.396266 0.00824924 0 0.396276 0.00897747 0 0.396287 0.00971239 0 0.396297 0.0104541 0 0.396432 0 0 0.396439 0.00067706 0 0.396447 0.00135836 0 0.396455 0.00204394 0 0.396463 0.00273384 0 0.39647 0.00342811 0 0.396478 0.00412678 0 0.396486 0.00482989 0 0.396494 0.00553749 0 0.396502 0.00624963 0 0.39651 0.00696633 0 0.396519 0.00768766 0 0.396527 0.00841365 0 0.396535 0.00914436 0 0.396543 0.00987981 0 0.396552 0.0106201 0 0.396716 0 0 0.39672 0.000703279 0 0.396725 0.00140892 0 0.39673 0.00211695 0 0.396734 0.00282736 0 0.396739 0.00354017 0 0.396744 0.00425539 0 0.396748 0.00497304 0 0.396753 0.00569313 0 0.396758 0.00641567 0 0.396762 0.00714067 0 0.396767 0.00786815 0 0.396772 0.00859812 0 0.396777 0.00933058 0 0.396782 0.0100656 0 0.396786 0.0108031 0 0.397 0 0 0.397 0.000733333 0 0.397 0.00146667 0 0.397 0.0022 0 0.397 0.00293333 0 0.397 0.00366667 0 0.397 0.0044 0 0.397 0.00513333 0 0.397 0.00586667 0 0.397 0.0066 0 0.397 0.00733333 0 0.397 0.00806667 0 0.397 0.0088 0 0.397 0.00953333 0 0.397 0.0102667 0 0.397 0.011 0 
</DataArray>
</Points> 
</Piece> 
</StructuredGrid> 
</VTKFile> 
