<?xml version="1.0"?> 
<VTKFile type="StructuredGrid" version="0.1"> 
<StructuredGrid WholeExtent="0 15 0 15 0 0"> 
<Piece Extent="0 15 0 15 0 0"> 
<PointData>
<DataArray type="Float32" Name="E" format="ascii" NumberOfComponents="3"> 
-869976 64151.7 0 -867496 47472.6 0 -862334 43165.9 0 -856718 41784.5 0 -851154 41484.6 0 -845756 41626.2 0 -840522 41947 0 -835397 42342.5 0 -830310 42764.6 0 -825184 43206.8 0 -819938 43701.8 0 -814501 44332.8 0 -808820 45324.1 0 -802888 47240.3 0 -796869 51747.9 0 -791344 67800.3 0 -854212 80692.6 0 -853730 81129.3 0 -853227 82051.8 0 -852644 83037.2 0 -851974 84015.9 0 -851226 84974 0 -850413 85912.9 0 -849550 86838.3 0 -848654 87755.2 0 -847739 88667.3 0 -846822 89576.8 0 -845918 90484.8 0 -845042 91395.3 0 -844200 92323.6 0 -843382 93328.3 0 -842478 94772.5 0 -880487 94642.7 0 -879659 96420.2 0 -878846 97701.7 0 -878024 98910.1 0 -877190 100122 0 -876342 101357 0 -875477 102621 0 -874595 103913 0 -873694 105231 0 -872772 106574 0 -871829 107940 0 -870863 109329 0 -869874 110733 0 -868861 112134 0 -867832 113469 0 -866828 114366 0 -914081 108102 0 -913284 109594 0 -912446 111360 0 -911588 113161 0 -910713 114953 0 -909822 116725 0 -908915 118475 0 -907992 120202 0 -907052 121910 0 -906096 123597 0 -905122 125265 0 -904132 126916 0 -903124 128552 0 -902097 130183 0 -901049 131846 0 -899964 133748 0 -955911 122452 0 -955044 124693 0 -954171 126787 0 -953279 128859 0 -952367 130930 0 -951434 133006 0 -950480 135088 0 -949506 137176 0 -948513 139269 0 -947501 141365 0 -946469 143465 0 -945420 145569 0 -944353 147673 0 -943268 149773 0 -942168 151850 0 -941059 153798 0 -1.00633e+06 136658 0 -1.00544e+06 139145 0 -1.00452e+06 141699 0 -1.00357e+06 144259 0 -1.00261e+06 146812 0 -1.00162e+06 149357 0 -1.00062e+06 151893 0 -999597 154421 0 -998552 156939 0 -997485 159450 0 -996397 161953 0 -995287 164448 0 -994155 166936 0 -993000 169419 0 -991820 171908 0 -990615 174454 0 -1.06625e+06 150926 0 -1.06532e+06 153970 0 -1.06437e+06 156981 0 -1.0634e+06 159985 0 -1.0624e+06 162988 0 -1.06138e+06 165990 0 -1.06033e+06 168992 0 -1.05926e+06 171992 0 -1.05817e+06 174990 0 -1.05705e+06 177985 0 -1.05591e+06 180977 0 -1.05474e+06 183965 0 -1.05355e+06 186949 0 -1.05234e+06 189925 0 -1.05111e+06 192891 0 -1.04986e+06 195819 0 -1.13712e+06 164373 0 -1.1362e+06 167979 0 -1.13525e+06 171593 0 -1.13427e+06 175203 0 -1.13326e+06 178807 0 -1.13221e+06 182406 0 -1.13114e+06 185999 0 -1.13003e+06 189586 0 -1.12889e+06 193169 0 -1.12772e+06 196747 0 -1.12652e+06 200321 0 -1.12529e+06 203891 0 -1.12402e+06 207457 0 -1.12272e+06 211022 0 -1.12139e+06 214587 0 -1.12002e+06 218165 0 -1.22157e+06 176786 0 -1.22066e+06 181062 0 -1.21971e+06 185341 0 -1.21872e+06 189626 0 -1.2177e+06 193915 0 -1.21665e+06 198206 0 -1.21556e+06 202497 0 -1.21443e+06 206787 0 -1.21326e+06 211073 0 -1.21206e+06 215354 0 -1.21082e+06 219628 0 -1.20955e+06 223893 0 -1.20824e+06 228146 0 -1.2069e+06 232385 0 -1.20553e+06 236605 0 -1.20414e+06 240798 0 -1.32279e+06 185684 0 -1.32202e+06 191029 0 -1.32119e+06 196358 0 -1.3203e+06 201671 0 -1.31936e+06 206973 0 -1.31836e+06 212267 0 -1.3173e+06 217553 0 -1.31619e+06 222835 0 -1.31502e+06 228115 0 -1.31379e+06 233393 0 -1.31251e+06 238673 0 -1.31117e+06 243956 0 -1.30977e+06 249246 0 -1.3083e+06 254546 0 -1.30678e+06 259862 0 -1.30518e+06 265202 0 -1.44731e+06 190841 0 -1.44668e+06 197200 0 -1.446e+06 203609 0 -1.44525e+06 210059 0 -1.44443e+06 216538 0 -1.44354e+06 223038 0 -1.44258e+06 229552 0 -1.44155e+06 236072 0 -1.44045e+06 242591 0 -1.43928e+06 249104 0 -1.43805e+06 255602 0 -1.43675e+06 262078 0 -1.43538e+06 268524 0 -1.43396e+06 274929 0 -1.43248e+06 281280 0 -1.43095e+06 287562 0 -1.60318e+06 183948 0 -1.60306e+06 192707 0 -1.60282e+06 201397 0 -1.60246e+06 210038 0 -1.60199e+06 218644 0 -1.60141e+06 227229 0 -1.60071e+06 235803 0 -1.5999e+06 244375 0 -1.59897e+06 252952 0 -1.59792e+06 261544 0 -1.59676e+06 270158 0 -1.59547e+06 278805 0 -1.59405e+06 287496 0 -1.59251e+06 296247 0 -1.59083e+06 305074 0 -1.589e+06 314001 0 -1.80541e+06 164323 0 -1.80615e+06 174716 0 -1.80674e+06 185319 0 -1.80715e+06 196090 0 -1.80741e+06 206993 0 -1.8075e+06 217998 0 -1.80743e+06 229078 0 -1.8072e+06 240210 0 -1.8068e+06 251370 0 -1.80625e+06 262538 0 -1.80554e+06 273690 0 -1.80467e+06 284801 0 -1.80365e+06 295843 0 -1.80248e+06 306783 0 -1.80116e+06 317580 0 -1.79971e+06 328188 0 -2.07095e+06 104640 0 -2.07313e+06 120432 0 -2.07523e+06 136042 0 -2.07721e+06 151537 0 -2.07905e+06 166977 0 -2.08072e+06 182407 0 -2.08221e+06 197867 0 -2.08351e+06 213392 0 -2.08459e+06 229011 0 -2.08546e+06 244754 0 -2.08609e+06 260653 0 -2.08648e+06 276740 0 -2.08662e+06 293052 0 -2.0865e+06 309636 0 -2.08612e+06 326545 0 -2.08547e+06 343846 0 -2.40129e+06 -12317.7 0 -2.4102e+06 5292.99 0 -2.41824e+06 23345.7 0 -2.42556e+06 41753.4 0 -2.43231e+06 60451.5 0 -2.43858e+06 79394.3 0 -2.44445e+06 98549.8 0 -2.44999e+06 117896 0 -2.45523e+06 137416 0 -2.4602e+06 157098 0 -2.46491e+06 176928 0 -2.46935e+06 196888 0 -2.47349e+06 216954 0 -2.47729e+06 237090 0 -2.48071e+06 257245 0 -2.48365e+06 277350 0 -2.93541e+06 -1.90735e-06 0 -2.90236e+06 -9.87202e-08 0 -2.87582e+06 1.35973e-07 0 -2.85503e+06 -1.8999e-07 0 -2.8394e+06 4.24683e-07 0 -2.82843e+06 -3.57628e-07 0 -2.82178e+06 2.01166e-07 0 -2.81916e+06 -8.9407e-08 0 -2.82041e+06 1.04308e-07 0 -2.82545e+06 4.47035e-08 0 -2.83427e+06 -1.3411e-07 0 -2.84696e+06 1.63913e-07 0 -2.86368e+06 0 0 -2.88471e+06 -1.49012e-07 0 -2.91039e+06 2.38419e-07 0 -2.94122e+06 -4.76837e-07 0 </DataArray> 
</PointData> 
<Points> 
<DataArray type="Float32" NumberOfComponents="3"> 
0.0125 0.052 0 0.0125 0.0526667 0 0.0125 0.0533333 0 0.0125 0.054 0 0.0125 0.0546667 0 0.0125 0.0553333 0 0.0125 0.056 0 0.0125 0.0566667 0 0.0125 0.0573333 0 0.0125 0.058 0 0.0125 0.0586667 0 0.0125 0.0593333 0 0.0125 0.06 0 0.0125 0.0606667 0 0.0125 0.0613333 0 0.0125 0.062 0 0.0265 0.0508667 0 0.0265 0.0515333 0 0.0265 0.0522 0 0.0265 0.0528667 0 0.0265 0.0535333 0 0.0265 0.0542 0 0.0265 0.0548667 0 0.0265 0.0555333 0 0.0265 0.0562 0 0.0265 0.0568667 0 0.0265 0.0575333 0 0.0265 0.0582 0 0.0265 0.0588667 0 0.0265 0.0595333 0 0.0265 0.0602 0 0.0265 0.0608667 0 0.0405 0.0497333 0 0.0405 0.0504 0 0.0405 0.0510667 0 0.0405 0.0517333 0 0.0405 0.0524 0 0.0405 0.0530667 0 0.0405 0.0537333 0 0.0405 0.0544 0 0.0405 0.0550667 0 0.0405 0.0557333 0 0.0405 0.0564 0 0.0405 0.0570667 0 0.0405 0.0577333 0 0.0405 0.0584 0 0.0405 0.0590667 0 0.0405 0.0597333 0 0.0545 0.0486 0 0.0545 0.0492667 0 0.0545 0.0499333 0 0.0545 0.0506 0 0.0545 0.0512667 0 0.0545 0.0519333 0 0.0545 0.0526 0 0.0545 0.0532667 0 0.0545 0.0539333 0 0.0545 0.0546 0 0.0545 0.0552667 0 0.0545 0.0559333 0 0.0545 0.0566 0 0.0545 0.0572667 0 0.0545 0.0579333 0 0.0545 0.0586 0 0.0685 0.0474667 0 0.0685 0.0481333 0 0.0685 0.0488 0 0.0685 0.0494667 0 0.0685 0.0501333 0 0.0685 0.0508 0 0.0685 0.0514667 0 0.0685 0.0521333 0 0.0685 0.0528 0 0.0685 0.0534667 0 0.0685 0.0541333 0 0.0685 0.0548 0 0.0685 0.0554667 0 0.0685 0.0561333 0 0.0685 0.0568 0 0.0685 0.0574667 0 0.0825 0.0463333 0 0.0825 0.047 0 0.0825 0.0476667 0 0.0825 0.0483333 0 0.0825 0.049 0 0.0825 0.0496667 0 0.0825 0.0503333 0 0.0825 0.051 0 0.0825 0.0516667 0 0.0825 0.0523333 0 0.0825 0.053 0 0.0825 0.0536667 0 0.0825 0.0543333 0 0.0825 0.055 0 0.0825 0.0556667 0 0.0825 0.0563333 0 0.0965 0.0452 0 0.0965 0.0458667 0 0.0965 0.0465333 0 0.0965 0.0472 0 0.0965 0.0478667 0 0.0965 0.0485333 0 0.0965 0.0492 0 0.0965 0.0498667 0 0.0965 0.0505333 0 0.0965 0.0512 0 0.0965 0.0518667 0 0.0965 0.0525333 0 0.0965 0.0532 0 0.0965 0.0538667 0 0.0965 0.0545333 0 0.0965 0.0552 0 0.1105 0.0440667 0 0.1105 0.0447333 0 0.1105 0.0454 0 0.1105 0.0460667 0 0.1105 0.0467333 0 0.1105 0.0474 0 0.1105 0.0480667 0 0.1105 0.0487333 0 0.1105 0.0494 0 0.1105 0.0500667 0 0.1105 0.0507333 0 0.1105 0.0514 0 0.1105 0.0520667 0 0.1105 0.0527333 0 0.1105 0.0534 0 0.1105 0.0540667 0 0.1245 0.0429333 0 0.1245 0.0436 0 0.1245 0.0442667 0 0.1245 0.0449333 0 0.1245 0.0456 0 0.1245 0.0462667 0 0.1245 0.0469333 0 0.1245 0.0476 0 0.1245 0.0482667 0 0.1245 0.0489333 0 0.1245 0.0496 0 0.1245 0.0502667 0 0.1245 0.0509333 0 0.1245 0.0516 0 0.1245 0.0522667 0 0.1245 0.0529333 0 0.1385 0.0418 0 0.1385 0.0424667 0 0.1385 0.0431333 0 0.1385 0.0438 0 0.1385 0.0444667 0 0.1385 0.0451333 0 0.1385 0.0458 0 0.1385 0.0464667 0 0.1385 0.0471333 0 0.1385 0.0478 0 0.1385 0.0484667 0 0.1385 0.0491333 0 0.1385 0.0498 0 0.1385 0.0504667 0 0.1385 0.0511333 0 0.1385 0.0518 0 0.1525 0.0406667 0 0.1525 0.0413333 0 0.1525 0.042 0 0.1525 0.0426667 0 0.1525 0.0433333 0 0.1525 0.044 0 0.1525 0.0446667 0 0.1525 0.0453333 0 0.1525 0.046 0 0.1525 0.0466667 0 0.1525 0.0473333 0 0.1525 0.048 0 0.1525 0.0486667 0 0.1525 0.0493333 0 0.1525 0.05 0 0.1525 0.0506667 0 0.1665 0.0395333 0 0.1665 0.0402 0 0.1665 0.0408667 0 0.1665 0.0415333 0 0.1665 0.0422 0 0.1665 0.0428667 0 0.1665 0.0435333 0 0.1665 0.0442 0 0.1665 0.0448667 0 0.1665 0.0455333 0 0.1665 0.0462 0 0.1665 0.0468667 0 0.1665 0.0475333 0 0.1665 0.0482 0 0.1665 0.0488667 0 0.1665 0.0495333 0 0.1805 0.0384 0 0.1805 0.0390667 0 0.1805 0.0397333 0 0.1805 0.0404 0 0.1805 0.0410667 0 0.1805 0.0417333 0 0.1805 0.0424 0 0.1805 0.0430667 0 0.1805 0.0437333 0 0.1805 0.0444 0 0.1805 0.0450667 0 0.1805 0.0457333 0 0.1805 0.0464 0 0.1805 0.0470667 0 0.1805 0.0477333 0 0.1805 0.0484 0 0.1945 0.0372667 0 0.1945 0.0379333 0 0.1945 0.0386 0 0.1945 0.0392667 0 0.1945 0.0399333 0 0.1945 0.0406 0 0.1945 0.0412667 0 0.1945 0.0419333 0 0.1945 0.0426 0 0.1945 0.0432667 0 0.1945 0.0439333 0 0.1945 0.0446 0 0.1945 0.0452667 0 0.1945 0.0459333 0 0.1945 0.0466 0 0.1945 0.0472667 0 0.2085 0.0361333 0 0.2085 0.0368 0 0.2085 0.0374667 0 0.2085 0.0381333 0 0.2085 0.0388 0 0.2085 0.0394667 0 0.2085 0.0401333 0 0.2085 0.0408 0 0.2085 0.0414667 0 0.2085 0.0421333 0 0.2085 0.0428 0 0.2085 0.0434667 0 0.2085 0.0441333 0 0.2085 0.0448 0 0.2085 0.0454667 0 0.2085 0.0461333 0 0.2225 0.035 0 0.2225 0.0356667 0 0.2225 0.0363333 0 0.2225 0.037 0 0.2225 0.0376667 0 0.2225 0.0383333 0 0.2225 0.039 0 0.2225 0.0396667 0 0.2225 0.0403333 0 0.2225 0.041 0 0.2225 0.0416667 0 0.2225 0.0423333 0 0.2225 0.043 0 0.2225 0.0436667 0 0.2225 0.0443333 0 0.2225 0.045 0 
</DataArray>
</Points> 
</Piece> 
</StructuredGrid> 
</VTKFile> 
