<?xml version="1.0"?> 
<VTKFile type="StructuredGrid" version="0.1"> 
<StructuredGrid WholeExtent="0 15 0 15 0 0"> 
<Piece Extent="0 15 0 15 0 0"> 
<PointData>
<DataArray type="Float32" Name="E" format="ascii" NumberOfComponents="3"> 
-1.39698e-08 -3.63233e+06 0 1.35149e+06 -1.83382e+06 0 1.45298e+06 -1.08904e+06 0 1.39624e+06 -637050 0 1.35013e+06 -315685 0 1.26392e+06 -68674.2 0 1.17443e+06 129565 0 1.06809e+06 290865 0 954185 423122 0 831084 530676 0 701733 617067 0 567053 684634 0 428480 735334 0 287134 770545 0 143991 791279 0 0 798123 0 1.84627e-10 -3.29893e+06 0 1.277e+06 -1.82451e+06 0 1.39904e+06 -1.08737e+06 0 1.371e+06 -640558 0 1.32486e+06 -321459 0 1.24732e+06 -75360.2 0 1.15932e+06 121444 0 1.0565e+06 282076 0 944363 413437 0 823272 520458 0 695483 606315 0 562262 673530 0 425002 723942 0 284864 758970 0 142877 779593 0 0 786401 0 2.2992e-09 -3.02751e+06 0 1.20269e+06 -1.80523e+06 0 1.34939e+06 -1.08459e+06 0 1.3439e+06 -643301 0 1.30083e+06 -326612 0 1.23026e+06 -81853.3 0 1.14455e+06 113651 0 1.04485e+06 273423 0 934650 403948 0 815485 510362 0 689275 595697 0 557497 662532 0 421541 712654 0 282607 747489 0 141767 767999 0 0 774770 0 -2.45927e-09 -2.80354e+06 0 1.13043e+06 -1.77879e+06 0 1.30283e+06 -1.08052e+06 0 1.31573e+06 -645264 0 1.27764e+06 -331219 0 1.21297e+06 -88096.1 0 1.13004e+06 106144 0 1.03319e+06 264933 0 925027 394636 0 807734 500397 0 683107 585208 0 552761 651642 0 418100 701469 0 280364 736104 0 140662 756497 0 0 763229 0 1.86265e-09 -2.6163e+06 0 1.06132e+06 -1.74725e+06 0 1.25858e+06 -1.07507e+06 0 1.28706e+06 -646453 0 1.25506e+06 -335326 0 1.19559e+06 -94055.7 0 1.11571e+06 98896.6 0 1.02157e+06 256619 0 915484 385493 0 800025 490565 0 676980 574843 0 548052 640862 0 414678 690386 0 278135 724812 0 139564 745086 0 0 751779 0 -8.14907e-10 -2.45783e+06 0 995973 -1.71218e+06 0 1.21615e+06 -1.06823e+06 0 1.25825e+06 -646880 0 1.23291e+06 -338964 0 1.17821e+06 -99714.8 0 1.10154e+06 91892.2 0 1.01e+06 248490 0 906013 376511 0 792362 480870 0 670892 564601 0 543373 630190 0 411277 679403 0 275920 713615 0 138471 733765 0 0 740417 0 3.7835e-10 -2.32224e+06 0 934637 -1.67471e+06 0 1.17524e+06 -1.06004e+06 0 1.22955e+06 -646568 0 1.21109e+06 -342152 0 1.16091e+06 -105066 0 1.08751e+06 85121.6 0 998505 240548 0 896613 367686 0 784749 471311 0 664846 554479 0 538724 619628 0 407898 668520 0 273718 702512 0 137385 722533 0 0 729144 0 -6.69388e-10 -2.20519e+06 0 877356 -1.63567e+06 0 1.13569e+06 -1.05056e+06 0 1.20114e+06 -645541 0 1.18956e+06 -344906 0 1.14371e+06 -110108 0 1.07359e+06 78578.9 0 987082 232794 0 887282 359017 0 777188 461888 0 658841 544476 0 534106 609173 0 404542 657736 0 271531 691501 0 136306 711391 0 0 717959 0 4.65661e-10 -2.10349e+06 0 824040 -1.59567e+06 0 1.09738e+06 -1.0399e+06 0 1.17313e+06 -643829 0 1.16829e+06 -347238 0 1.12667e+06 -114843 0 1.05978e+06 72260.7 0 975746 225228 0 878020 350501 0 769681 452601 0 652879 534593 0 529520 598826 0 401208 647050 0 269358 680582 0 135235 700338 0 0 706861 0 -8.14907e-10 -2.01488e+06 0 774531 -1.55512e+06 0 1.06026e+06 -1.02814e+06 0 1.14562e+06 -641462 0 1.14724e+06 -349156 0 1.10978e+06 -119276 0 1.04609e+06 66164.8 0 964501 217846 0 868828 342138 0 762231 443449 0 646960 524826 0 524967 588586 0 397898 636462 0 267200 669755 0 134170 689372 0 0 695850 0 3.49246e-10 -1.93784e+06 0 728652 -1.51427e+06 0 1.02426e+06 -1.01542e+06 0 1.11866e+06 -638472 0 1.12642e+06 -350670 0 1.09309e+06 -123414 0 1.03251e+06 60289.9 0 953352 210648 0 859707 333927 0 754839 434429 0 641086 515177 0 520448 578452 0 394611 625971 0 265058 659019 0 133114 678494 0 0 684924 0 4.65661e-10 -1.87146e+06 0 686243 -1.47326e+06 0 989317 -1.00184e+06 0 1.09234e+06 -634894 0 1.10581e+06 -351787 0 1.07659e+06 -127266 0 1.01904e+06 54635.4 0 942305 203628 0 850658 325867 0 747507 425540 0 635257 505644 0 515964 568422 0 391350 615576 0 262932 648374 0 132065 667702 0 0 674085 0 -8.14907e-10 -1.81543e+06 0 647193 -1.43209e+06 0 955337 -987528 0 1.06674e+06 -630762 0 1.08539e+06 -352514 0 1.06033e+06 -130843 0 1.00567e+06 49201.9 0 931367 196783 0 841681 317958 0 740237 416780 0 629475 496226 0 511514 558496 0 388114 605276 0 260822 637818 0 131024 656996 0 0 663330 0 4.65661e-10 -1.77005e+06 0 611479 -1.39066e+06 0 922182 -972622 0 1.04194e+06 -626114 0 1.06513e+06 -352854 0 1.04432e+06 -134157 0 992404 43991.7 0 920543 190108 0 832776 310201 0 733031 408148 0 623739 486924 0 507101 548672 0 384904 595072 0 258728 627350 0 129992 646376 0 0 652660 0 -4.65661e-10 -1.73627e+06 0 579205 -1.34873e+06 0 889639 -957254 0 1.01808e+06 -620989 0 1.04498e+06 -352806 0 1.0286e+06 -137228 0 979223 39009.4 0 909846 183594 0 823942 302596 0 725892 399639 0 618052 477736 0 502725 538950 0 381720 584962 0 256651 616971 0 128968 635841 0 0 642074 0 -1.02445e-08 -1.71582e+06 0 550644 -1.30593e+06 0 857399 -941573 0 995344 -615430 0 1.02484e+06 -352365 0 1.01323e+06 -140078 0 966109 34264.2 0 899288 177233 0 815175 295149 0 718823 391249 0 612413 468665 0 498387 529326 0 378564 574946 0 254591 606678 0 127954 625390 0 0 631571 0 </DataArray> 
</PointData> 
<Points> 
<DataArray type="Float32" NumberOfComponents="3"> 
0.398 0.03 0 0.398 0.0365333 0 0.398 0.0430667 0 0.398 0.0496 0 0.398 0.0561333 0 0.398 0.0626667 0 0.398 0.0692 0 0.398 0.0757333 0 0.398 0.0822667 0 0.398 0.0888 0 0.398 0.0953333 0 0.398 0.101867 0 0.398 0.1084 0 0.398 0.114933 0 0.398 0.121467 0 0.398 0.128 0 0.398533 0.03 0 0.398533 0.0365333 0 0.398533 0.0430667 0 0.398533 0.0496 0 0.398533 0.0561333 0 0.398533 0.0626667 0 0.398533 0.0692 0 0.398533 0.0757333 0 0.398533 0.0822667 0 0.398533 0.0888 0 0.398533 0.0953333 0 0.398533 0.101867 0 0.398533 0.1084 0 0.398533 0.114933 0 0.398533 0.121467 0 0.398533 0.128 0 0.399067 0.03 0 0.399067 0.0365333 0 0.399067 0.0430667 0 0.399067 0.0496 0 0.399067 0.0561333 0 0.399067 0.0626667 0 0.399067 0.0692 0 0.399067 0.0757333 0 0.399067 0.0822667 0 0.399067 0.0888 0 0.399067 0.0953333 0 0.399067 0.101867 0 0.399067 0.1084 0 0.399067 0.114933 0 0.399067 0.121467 0 0.399067 0.128 0 0.3996 0.03 0 0.3996 0.0365333 0 0.3996 0.0430667 0 0.3996 0.0496 0 0.3996 0.0561333 0 0.3996 0.0626667 0 0.3996 0.0692 0 0.3996 0.0757333 0 0.3996 0.0822667 0 0.3996 0.0888 0 0.3996 0.0953333 0 0.3996 0.101867 0 0.3996 0.1084 0 0.3996 0.114933 0 0.3996 0.121467 0 0.3996 0.128 0 0.400133 0.03 0 0.400133 0.0365333 0 0.400133 0.0430667 0 0.400133 0.0496 0 0.400133 0.0561333 0 0.400133 0.0626667 0 0.400133 0.0692 0 0.400133 0.0757333 0 0.400133 0.0822667 0 0.400133 0.0888 0 0.400133 0.0953333 0 0.400133 0.101867 0 0.400133 0.1084 0 0.400133 0.114933 0 0.400133 0.121467 0 0.400133 0.128 0 0.400667 0.03 0 0.400667 0.0365333 0 0.400667 0.0430667 0 0.400667 0.0496 0 0.400667 0.0561333 0 0.400667 0.0626667 0 0.400667 0.0692 0 0.400667 0.0757333 0 0.400667 0.0822667 0 0.400667 0.0888 0 0.400667 0.0953333 0 0.400667 0.101867 0 0.400667 0.1084 0 0.400667 0.114933 0 0.400667 0.121467 0 0.400667 0.128 0 0.4012 0.03 0 0.4012 0.0365333 0 0.4012 0.0430667 0 0.4012 0.0496 0 0.4012 0.0561333 0 0.4012 0.0626667 0 0.4012 0.0692 0 0.4012 0.0757333 0 0.4012 0.0822667 0 0.4012 0.0888 0 0.4012 0.0953333 0 0.4012 0.101867 0 0.4012 0.1084 0 0.4012 0.114933 0 0.4012 0.121467 0 0.4012 0.128 0 0.401733 0.03 0 0.401733 0.0365333 0 0.401733 0.0430667 0 0.401733 0.0496 0 0.401733 0.0561333 0 0.401733 0.0626667 0 0.401733 0.0692 0 0.401733 0.0757333 0 0.401733 0.0822667 0 0.401733 0.0888 0 0.401733 0.0953333 0 0.401733 0.101867 0 0.401733 0.1084 0 0.401733 0.114933 0 0.401733 0.121467 0 0.401733 0.128 0 0.402267 0.03 0 0.402267 0.0365333 0 0.402267 0.0430667 0 0.402267 0.0496 0 0.402267 0.0561333 0 0.402267 0.0626667 0 0.402267 0.0692 0 0.402267 0.0757333 0 0.402267 0.0822667 0 0.402267 0.0888 0 0.402267 0.0953333 0 0.402267 0.101867 0 0.402267 0.1084 0 0.402267 0.114933 0 0.402267 0.121467 0 0.402267 0.128 0 0.4028 0.03 0 0.4028 0.0365333 0 0.4028 0.0430667 0 0.4028 0.0496 0 0.4028 0.0561333 0 0.4028 0.0626667 0 0.4028 0.0692 0 0.4028 0.0757333 0 0.4028 0.0822667 0 0.4028 0.0888 0 0.4028 0.0953333 0 0.4028 0.101867 0 0.4028 0.1084 0 0.4028 0.114933 0 0.4028 0.121467 0 0.4028 0.128 0 0.403333 0.03 0 0.403333 0.0365333 0 0.403333 0.0430667 0 0.403333 0.0496 0 0.403333 0.0561333 0 0.403333 0.0626667 0 0.403333 0.0692 0 0.403333 0.0757333 0 0.403333 0.0822667 0 0.403333 0.0888 0 0.403333 0.0953333 0 0.403333 0.101867 0 0.403333 0.1084 0 0.403333 0.114933 0 0.403333 0.121467 0 0.403333 0.128 0 0.403867 0.03 0 0.403867 0.0365333 0 0.403867 0.0430667 0 0.403867 0.0496 0 0.403867 0.0561333 0 0.403867 0.0626667 0 0.403867 0.0692 0 0.403867 0.0757333 0 0.403867 0.0822667 0 0.403867 0.0888 0 0.403867 0.0953333 0 0.403867 0.101867 0 0.403867 0.1084 0 0.403867 0.114933 0 0.403867 0.121467 0 0.403867 0.128 0 0.4044 0.03 0 0.4044 0.0365333 0 0.4044 0.0430667 0 0.4044 0.0496 0 0.4044 0.0561333 0 0.4044 0.0626667 0 0.4044 0.0692 0 0.4044 0.0757333 0 0.4044 0.0822667 0 0.4044 0.0888 0 0.4044 0.0953333 0 0.4044 0.101867 0 0.4044 0.1084 0 0.4044 0.114933 0 0.4044 0.121467 0 0.4044 0.128 0 0.404933 0.03 0 0.404933 0.0365333 0 0.404933 0.0430667 0 0.404933 0.0496 0 0.404933 0.0561333 0 0.404933 0.0626667 0 0.404933 0.0692 0 0.404933 0.0757333 0 0.404933 0.0822667 0 0.404933 0.0888 0 0.404933 0.0953333 0 0.404933 0.101867 0 0.404933 0.1084 0 0.404933 0.114933 0 0.404933 0.121467 0 0.404933 0.128 0 0.405467 0.03 0 0.405467 0.0365333 0 0.405467 0.0430667 0 0.405467 0.0496 0 0.405467 0.0561333 0 0.405467 0.0626667 0 0.405467 0.0692 0 0.405467 0.0757333 0 0.405467 0.0822667 0 0.405467 0.0888 0 0.405467 0.0953333 0 0.405467 0.101867 0 0.405467 0.1084 0 0.405467 0.114933 0 0.405467 0.121467 0 0.405467 0.128 0 0.406 0.03 0 0.406 0.0365333 0 0.406 0.0430667 0 0.406 0.0496 0 0.406 0.0561333 0 0.406 0.0626667 0 0.406 0.0692 0 0.406 0.0757333 0 0.406 0.0822667 0 0.406 0.0888 0 0.406 0.0953333 0 0.406 0.101867 0 0.406 0.1084 0 0.406 0.114933 0 0.406 0.121467 0 0.406 0.128 0 
</DataArray>
</Points> 
</Piece> 
</StructuredGrid> 
</VTKFile> 
