<?xml version="1.0"?> 
<VTKFile type="StructuredGrid" version="0.1"> 
<StructuredGrid WholeExtent="0 15 0 15 0 0"> 
<Piece Extent="0 15 0 15 0 0"> 
<PointData>
<DataArray type="Float32" Name="E" format="ascii" NumberOfComponents="3"> 
-1.66915e+06 2.30937e+06 0 -1.67557e+06 2.48447e+06 0 -1.65307e+06 2.68213e+06 0 -1.5928e+06 2.89148e+06 0 -1.49184e+06 3.09758e+06 0 -1.35514e+06 3.28555e+06 0 -1.19397e+06 3.44528e+06 0 -1.02182e+06 3.57364e+06 0 -850288 3.67345e+06 0 -687211 3.75072e+06 0 -536799 3.81212e+06 0 -400736 3.86361e+06 0 -279315 3.90998e+06 0 -172256 3.95486e+06 0 -79205.4 4.00101e+06 0 -18.287 4.05042e+06 0 -1.74804e+06 2.32681e+06 0 -1.7551e+06 2.50714e+06 0 -1.73172e+06 2.71048e+06 0 -1.6692e+06 2.92518e+06 0 -1.56506e+06 3.13562e+06 0 -1.42486e+06 3.32655e+06 0 -1.26049e+06 3.48776e+06 0 -1.08587e+06 3.61628e+06 0 -912826 3.71513e+06 0 -749239 3.79051e+06 0 -599253 3.84918e+06 0 -464429 3.89703e+06 0 -344903 3.9387e+06 0 -240197 3.97755e+06 0 -149697 4.01592e+06 0 -72851.3 4.05538e+06 0 -1.83535e+06 2.34146e+06 0 -1.8432e+06 2.52886e+06 0 -1.81876e+06 2.73948e+06 0 -1.75354e+06 2.96086e+06 0 -1.64561e+06 3.1767e+06 0 -1.50121e+06 3.37134e+06 0 -1.33292e+06 3.53453e+06 0 -1.15516e+06 3.66351e+06 0 -979989 3.7616e+06 0 -815328 3.83526e+06 0 -665232 3.89137e+06 0 -531112 3.93588e+06 0 -412923 3.97333e+06 0 -309981 4.00696e+06 0 -221435 4.03889e+06 0 -146418 4.07043e+06 0 -1.93277e+06 2.35268e+06 0 -1.94157e+06 2.54934e+06 0 -1.91583e+06 2.76918e+06 0 -1.8474e+06 2.99887e+06 0 -1.73491e+06 3.22139e+06 0 -1.58544e+06 3.42068e+06 0 -1.41235e+06 3.58647e+06 0 -1.23061e+06 3.71629e+06 0 -1.05257e+06 3.81386e+06 0 -886171 3.88596e+06 0 -735354 3.93972e+06 0 -601356 3.98118e+06 0 -483932 4.01489e+06 0 -382189 4.04404e+06 0 -295051 4.07068e+06 0 -221409 4.09604e+06 0 -2.04246e+06 2.35962e+06 0 -2.05237e+06 2.5682e+06 0 -2.02508e+06 2.79963e+06 0 -1.95278e+06 3.03966e+06 0 -1.83481e+06 3.27047e+06 0 -1.67917e+06 3.47557e+06 0 -1.50018e+06 3.64475e+06 0 -1.31344e+06 3.77589e+06 0 -1.13162e+06 3.87324e+06 0 -962667 3.94401e+06 0 -810409 3.99561e+06 0 -675876 4.03429e+06 0 -558603 4.06469e+06 0 -457480 4.09004e+06 0 -371221 4.1124e+06 0 -298528 4.13302e+06 0 -2.16714e+06 2.3612e+06 0 -2.17845e+06 2.58492e+06 0 -2.14932e+06 2.8309e+06 0 -2.07236e+06 3.08381e+06 0 -1.94773e+06 3.32495e+06 0 -1.78456e+06 3.53737e+06 0 -1.59826e+06 3.71093e+06 0 -1.40522e+06 3.84403e+06 0 -1.21845e+06 3.94152e+06 0 -1.04595e+06 4.01119e+06 0 -891380 4.06086e+06 0 -755542 4.09703e+06 0 -637728 4.12452e+06 0 -536602 4.14665e+06 0 -450676 4.16559e+06 0 -378496 4.18268e+06 0 -2.31036e+06 2.35587e+06 0 -2.32352e+06 2.59873e+06 0 -2.29231e+06 2.86298e+06 0 -2.20974e+06 3.13206e+06 0 -2.07697e+06 3.38621e+06 0 -1.9045e+06 3.60791e+06 0 -1.70907e+06 3.78718e+06 0 -1.50804e+06 3.92304e+06 0 -1.31484e+06 4.02116e+06 0 -1.13751e+06 4.09002e+06 0 -979528 4.13798e+06 0 -841427 4.17189e+06 0 -722239 4.1968e+06 0 -620384 4.21621e+06 0 -534167 4.23243e+06 0 -461985 4.24693e+06 0 -2.47671e+06 2.34147e+06 0 -2.4926e+06 2.60844e+06 0 -2.45916e+06 2.89578e+06 0 -2.36988e+06 3.18538e+06 0 -2.22711e+06 3.45611e+06 0 -2.04303e+06 3.68977e+06 0 -1.83606e+06 3.87654e+06 0 -1.62477e+06 4.01625e+06 0 -1.42314e+06 4.11561e+06 0 -1.23928e+06 4.18401e+06 0 -1.07645e+06 4.2305e+06 0 -934872 4.26236e+06 0 -813263 4.28497e+06 0 -709777 4.30205e+06 0 -622502 4.31609e+06 0 -549696 4.32876e+06 0 -2.67228e+06 2.31471e+06 0 -2.6925e+06 2.61215e+06 0 -2.65706e+06 2.92895e+06 0 -2.55988e+06 3.24499e+06 0 -2.40471e+06 3.53728e+06 0 -2.20591e+06 3.78665e+06 0 -1.98413e+06 3.98345e+06 0 -1.7595e+06 4.12858e+06 0 -1.54672e+06 4.23007e+06 0 -1.35397e+06 4.29846e+06 0 -1.18427e+06 4.34367e+06 0 -1.03751e+06 4.37361e+06 0 -912047 4.39405e+06 0 -805709 4.40901e+06 0 -716328 4.4212e+06 0 -641978 4.43245e+06 0 -2.90517e+06 2.27057e+06 0 -2.93269e+06 2.60663e+06 0 -2.89632e+06 2.96152e+06 0 -2.79017e+06 3.31236e+06 0 -2.61965e+06 3.63348e+06 0 -2.40192e+06 3.90414e+06 0 -2.16061e+06 4.11475e+06 0 -1.91808e+06 4.26754e+06 0 -1.69013e+06 4.37233e+06 0 -1.48513e+06 4.44127e+06 0 -1.30576e+06 4.48546e+06 0 -1.15145e+06 4.51355e+06 0 -1.02009e+06 4.53183e+06 0 -909152 4.54467e+06 0 -816165 4.55507e+06 0 -738975 4.56509e+06 0 -3.18611e+06 2.20092e+06 0 -3.22655e+06 2.5861e+06 0 -3.19229e+06 2.99102e+06 0 -3.07688e+06 3.389e+06 0 -2.88736e+06 3.75012e+06 0 -2.64473e+06 4.05079e+06 0 -2.37708e+06 4.28121e+06 0 -2.10998e+06 4.44538e+06 0 -1.86076e+06 4.55553e+06 0 -1.6381e+06 4.62592e+06 0 -1.44448e+06 4.66918e+06 0 -1.27878e+06 4.6951e+06 0 -1.13835e+06 4.71073e+06 0 -1.02014e+06 4.72091e+06 0 -921247 4.72898e+06 0 -839188 4.73724e+06 0 -3.529e+06 2.09261e+06 0 -3.59296e+06 2.53966e+06 0 -3.56852e+06 3.01124e+06 0 -3.44632e+06 3.47539e+06 0 -3.23416e+06 3.89499e+06 0 -2.9581e+06 4.24091e+06 0 -2.65301e+06 4.50185e+06 0 -2.35002e+06 4.68376e+06 0 -2.06941e+06 4.80233e+06 0 -1.82054e+06 4.87522e+06 0 -1.60534e+06 4.91756e+06 0 -1.42195e+06 4.94066e+06 0 -1.26705e+06 4.95252e+06 0 -1.13697e+06 4.95868e+06 0 -1.02824e+06 4.96294e+06 0 -937916 4.96795e+06 0 -3.9501e+06 1.92346e+06 0 -4.05776e+06 2.44551e+06 0 -4.06202e+06 3.00612e+06 0 -3.94409e+06 3.56733e+06 0 -3.70828e+06 4.07889e+06 0 -3.38684e+06 4.49889e+06 0 -3.02613e+06 4.81078e+06 0 -2.66707e+06 5.02323e+06 0 -2.33537e+06 5.15747e+06 0 -2.04266e+06 5.2358e+06 0 -1.79122e+06 5.27679e+06 0 -1.57834e+06 5.29445e+06 0 -1.3994e+06 5.29871e+06 0 -1.24964e+06 5.29641e+06 0 -1.12471e+06 5.29223e+06 0 -1.02077e+06 5.28944e+06 0 -4.46254e+06 1.65866e+06 0 -4.65098e+06 2.25859e+06 0 -4.73009e+06 2.9316e+06 0 -4.65506e+06 3.63887e+06 0 -4.41017e+06 4.30855e+06 0 -4.02898e+06 4.86937e+06 0 -3.57786e+06 5.2855e+06 0 -3.12047e+06 5.56164e+06 0 -2.69653e+06 5.72595e+06 0 -2.32251e+06 5.81155e+06 0 -2.00144e+06 5.84595e+06 0 -1.73056e+06 5.84886e+06 0 -1.50471e+06 5.83383e+06 0 -1.31777e+06 5.8102e+06 0 -1.16355e+06 5.78447e+06 0 -1.03648e+06 5.7611e+06 0 -5.05535e+06 1.2511e+06 0 -5.38228e+06 1.88633e+06 0 -5.64387e+06 2.6636e+06 0 -5.74268e+06 3.57791e+06 0 -5.58965e+06 4.54587e+06 0 -5.16693e+06 5.42686e+06 0 -4.5541e+06 6.10464e+06 0 -3.87375e+06 6.55089e+06 0 -3.22016e+06 6.80348e+06 0 -2.63972e+06 6.91412e+06 0 -2.147e+06 6.92579e+06 0 -1.74175e+06 6.87294e+06 0 -1.41679e+06 6.78388e+06 0 -1.16118e+06 6.68049e+06 0 -962347 6.57781e+06 0 -807555 6.48486e+06 0 -5.61961e+06 675738 0 -6.1485e+06 1.17091e+06 0 -6.77435e+06 1.88193e+06 0 -7.40329e+06 2.89418e+06 0 -7.8693e+06 4.27877e+06 0 -7.89851e+06 6.0017e+06 0 -7.21545e+06 7.8077e+06 0 -5.8083e+06 9.25882e+06 0 -4.04129e+06 1.00146e+07 0 -2.39532e+06 1.00614e+07 0 -1.15692e+06 9.63824e+06 0 -365683 9.02239e+06 0 70252.9 8.40507e+06 0 268708 7.88078e+06 0 329259 7.47906e+06 0 328768 7.19233e+06 0 </DataArray> 
</PointData> 
<Points> 
<DataArray type="Float32" NumberOfComponents="3"> 
0.185 0.065 0 0.188 0.0692 0 0.191 0.0734 0 0.194 0.0776 0 0.197 0.0818 0 0.2 0.086 0 0.203 0.0902 0 0.206 0.0944 0 0.209 0.0986 0 0.212 0.1028 0 0.215 0.107 0 0.218 0.1112 0 0.221 0.1154 0 0.224 0.1196 0 0.227 0.1238 0 0.23 0.128 0 0.187366 0.0643415 0 0.190048 0.0684347 0 0.192784 0.0725266 0 0.195564 0.0766112 0 0.19838 0.0806838 0 0.201222 0.0847409 0 0.204084 0.0887795 0 0.206961 0.0927971 0 0.209848 0.0967915 0 0.21274 0.10076 0 0.215633 0.1047 0 0.218525 0.108606 0 0.221412 0.112474 0 0.224289 0.116296 0 0.227153 0.120066 0 0.229998 0.123771 0 0.189733 0.063683 0 0.192114 0.0676624 0 0.194597 0.071639 0 0.197163 0.0756008 0 0.199795 0.0795386 0 0.202479 0.0834454 0 0.205202 0.0873155 0 0.207952 0.0911443 0 0.210722 0.0949275 0 0.213501 0.0986602 0 0.216284 0.102337 0 0.219063 0.10595 0 0.221832 0.10949 0 0.224582 0.112946 0 0.227307 0.116302 0 0.229997 0.119541 0 0.192099 0.0630244 0 0.194198 0.0668832 0 0.196439 0.0707368 0 0.198797 0.074568 0 0.201248 0.0783631 0 0.203773 0.0821119 0 0.206354 0.0858061 0 0.208975 0.0894392 0 0.211623 0.0930052 0 0.214286 0.0964977 0 0.216953 0.0999091 0 0.219614 0.10323 0 0.22226 0.106448 0 0.22488 0.109547 0 0.227462 0.112509 0 0.229995 0.115312 0 0.194465 0.0623659 0 0.196302 0.0660968 0 0.198312 0.0698197 0 0.200467 0.073512 0 0.20274 0.0771562 0 0.205106 0.0807387 0 0.207543 0.084249 0 0.210031 0.0876792 0 0.212553 0.0910219 0 0.215093 0.0942697 0 0.21764 0.0974139 0 0.220178 0.100444 0 0.222696 0.103345 0 0.225181 0.1061 0 0.227619 0.108687 0 0.229993 0.111082 0 0.196831 0.0617074 0 0.198425 0.0653032 0 0.200216 0.0688873 0 0.202176 0.0724322 0 0.204272 0.0759166 0 0.206479 0.079324 0 0.208769 0.0826421 0 0.211121 0.0858616 0 0.213512 0.0889746 0 0.215926 0.0919732 0 0.218346 0.0948483 0 0.220756 0.0975885 0 0.223142 0.100179 0 0.225487 0.102602 0 0.227776 0.104835 0 0.229991 0.106853 0 0.199198 0.0610489 0 0.200568 0.0645024 0 0.202153 0.0679392 0 0.203923 0.0713277 0 0.205847 0.0746429 0 0.207894 0.0778659 0 0.210036 0.0809829 0 0.212247 0.0839837 0 0.214503 0.0868603 0 0.216785 0.089605 0 0.219073 0.0922093 0 0.221349 0.094662 0 0.223596 0.0969491 0 0.225798 0.0990529 0 0.227935 0.100952 0 0.22999 0.102624 0 0.201564 0.0603904 0 0.20273 0.0636941 0 0.204122 0.066975 0 0.205711 0.0701976 0 0.207465 0.0733337 0 0.209353 0.0763624 0 0.211345 0.0792687 0 0.213411 0.0820422 0 0.215528 0.0846755 0 0.217671 0.0871617 0 0.219821 0.0894936 0 0.221957 0.0916614 0 0.22406 0.0936527 0 0.226113 0.0954516 0 0.228095 0.0970391 0 0.229988 0.0983942 0 0.20393 0.0597319 0 0.204912 0.0628784 0 0.206125 0.0659944 0 0.20754 0.069041 0 0.209129 0.0719875 0 0.210858 0.0748113 0 0.212697 0.0774967 0 0.214616 0.080034 0 0.216587 0.0824166 0 0.218586 0.0846397 0 0.22059 0.0866978 0 0.22258 0.0885839 0 0.224534 0.0902878 0 0.226433 0.0917967 0 0.228257 0.0930948 0 0.229986 0.0941648 0 0.206296 0.0590733 0 0.207115 0.062055 0 0.208162 0.0649968 0 0.209414 0.067857 0 0.210841 0.0706027 0 0.212412 0.0732103 0 0.214096 0.0756642 0 0.215862 0.0779556 0 0.217682 0.08008 0 0.21953 0.0820351 0 0.221383 0.0838185 0 0.223219 0.0854264 0 0.225017 0.0868523 0 0.226757 0.0880871 0 0.22842 0.0891192 0 0.229984 0.0899354 0 0.208663 0.0584148 0 0.209338 0.061224 0 0.210235 0.0639819 0 0.211332 0.0666446 0 0.212602 0.0691777 0 0.214017 0.071557 0 0.215544 0.0737677 0 0.217153 0.0758031 0 0.218816 0.0776613 0 0.220506 0.0793437 0 0.2222 0.0808517 0 0.223875 0.0821858 0 0.225511 0.083344 0 0.227087 0.0843216 0 0.228584 0.0851117 0 0.229983 0.085706 0 0.211029 0.0577563 0 0.211583 0.0603851 0 0.212344 0.0629491 0 0.213296 0.0654027 0 0.214416 0.0677106 0 0.215675 0.0698487 0 0.217043 0.0718041 0 0.218491 0.0735726 0 0.21999 0.0751564 0 0.221515 0.0765611 0 0.223042 0.0777934 0 0.224549 0.0788588 0 0.226015 0.0797604 0 0.227421 0.0804988 0 0.228749 0.081072 0 0.229981 0.0814766 0 0.213395 0.0570978 0 0.213848 0.0595383 0 0.214491 0.0618981 0 0.215309 0.0641304 0 0.216284 0.0661995 0 0.217388 0.0680827 0 0.218596 0.0697695 0 0.219878 0.0712597 0 0.221207 0.0725604 0 0.222559 0.0736828 0 0.223911 0.0746394 0 0.225241 0.0754418 0 0.22653 0.0760992 0 0.227761 0.0766175 0 0.228916 0.0769998 0 0.229979 0.0772472 0 0.215761 0.0564393 0 0.216135 0.0586834 0 0.216675 0.0608283 0 0.217372 0.0628263 0 0.218208 0.0646425 0 0.219161 0.0662561 0 0.220206 0.0676602 0 0.221317 0.0688599 0 0.222469 0.0698683 0 0.22364 0.0707035 0 0.224807 0.071385 0 0.225952 0.0719313 0 0.227057 0.0723577 0 0.228106 0.0726762 0 0.229084 0.0728947 0 0.229977 0.0730178 0 0.218128 0.0557807 0 0.218444 0.0578204 0 0.2189 0.0597392 0 0.219487 0.0614894 0 0.220192 0.0630374 0 0.220996 0.0643655 0 0.221876 0.0654719 0 0.222811 0.066368 0 0.223779 0.0670746 0 0.224759 0.0676179 0 0.225732 0.0680254 0 0.226683 0.0683232 0 0.227595 0.0685334 0 0.228456 0.0686736 0 0.229253 0.0687561 0 0.229976 0.0687884 0 0.220494 0.0551222 0 0.220775 0.056949 0 0.221164 0.0586303 0 0.221656 0.0601184 0 0.222238 0.061382 0 0.222896 0.0624077 0 0.223611 0.0632001 0 0.224364 0.0637787 0 0.225139 0.0641736 0 0.225918 0.0644203 0 0.226688 0.0645555 0 0.227434 0.0646134 0 0.228145 0.0646234 0 0.228812 0.0646083 0 0.229424 0.0645838 0 0.229974 0.064559 0 
</DataArray>
</Points> 
</Piece> 
</StructuredGrid> 
</VTKFile> 
