<?xml version="1.0"?> 
<VTKFile type="StructuredGrid" version="0.1"> 
<StructuredGrid WholeExtent="0 15 0 15 0 0"> 
<Piece Extent="0 15 0 15 0 0"> 
<PointData>
<DataArray type="Float32" Name="E" format="ascii" NumberOfComponents="3"> 
-834675 0 0 -834019 0 0 -833275 0 0 -832448 0 0 -831544 0 0 -830573 0 0 -829546 0 0 -828474 0 0 -827372 0 0 -826252 0 0 -825127 0 0 -824010 0 0 -822911 0 0 -821840 0 0 -820805 0 0 -819811 0 0 -834746 764.398 0 -834088 876.844 0 -833341 985.371 0 -832508 1086.44 0 -831597 1177.19 0 -830617 1255.17 0 -829580 1318.44 0 -828499 1365.69 0 -827386 1396.22 0 -826255 1410 0 -825121 1407.66 0 -823995 1390.46 0 -822889 1360.26 0 -821813 1319.44 0 -820773 1270.75 0 -819777 1217.74 0 -834962 1529.31 0 -834299 1760.44 0 -833540 1982.43 0 -832690 2189.13 0 -831757 2374.51 0 -830751 2533.5 0 -829685 2662.15 0 -828572 2757.73 0 -827427 2818.83 0 -826265 2845.4 0 -825101 2838.73 0 -823948 2801.42 0 -822820 2737.27 0 -821726 2651.19 0 -820674 2549.03 0 -819672 2436.66 0 -835332 2298 0 -834662 2657.64 0 -833883 3003.68 0 -833004 3325.43 0 -832032 3613.42 0 -830980 3859.68 0 -829863 4057.98 0 -828695 4204.09 0 -827495 4295.85 0 -826278 4333.19 0 -825062 4318.11 0 -823863 4254.66 0 -822695 4148.84 0 -821571 4008.37 0 -820499 3842.43 0 -819487 3661.46 0 -835877 3070.29 0 -835193 3576.47 0 -834386 4063.19 0 -833462 4514.96 0 -832433 4918.17 0 -831313 5261.44 0 -830119 5536.04 0 -828871 5736.1 0 -827587 5858.63 0 -826290 5903.56 0 -824997 5873.7 0 -823729 5774.71 0 -822503 5615.03 0 -821332 5405.66 0 -820229 5159.82 0 -819201 4892.52 0 -836618 3846.01 0 -835920 4526.42 0 -835072 5177.78 0 -834086 5781.13 0 -832976 6317.45 0 -831761 6771.44 0 -830461 7131.57 0 -829100 7390.24 0 -827703 7543.65 0 -826292 7591.77 0 -824894 7538.23 0 -823530 7390.44 0 -822221 7159.56 0 -820986 6860.44 0 -819841 6511.46 0 -818796 6130.53 0 -837606 4636.62 0 -836880 5517.85 0 -835976 6368.7 0 -834905 7153.13 0 -833685 7846.67 0 -832341 8429.42 0 -830899 8886.93 0 -829388 9210.09 0 -827837 9394.46 0 -826277 9440.07 0 -824736 9351.33 0 -823242 9137.22 0 -821822 8811.81 0 -820501 8394.4 0 -819296 7908.53 0 -818217 7390.39 0 -838870 5408.84 0 -838124 6569.78 0 -837145 7663.47 0 -835958 8668.93 0 -834590 9550.93 0 -833073 10284.8 0 -831444 10853.9 0 -829737 11248.3 0 -827988 11463.5 0 -826231 11499.9 0 -824503 11361.9 0 -822837 11059.7 0 -821269 10609.5 0 -819829 10035.3 0 -818546 9370.96 0 -817447 8632.89 0 -840532 6255.35 0 -839727 7693.4 0 -838642 9102.26 0 -837296 10380.4 0 -835727 11489.3 0 -833983 12400 0 -832110 13095.6 0 -830152 13567.8 0 -828149 13813.7 0 -826142 13833.6 0 -824172 13631.5 0 -822280 13215.9 0 -820511 12603.7 0 -818912 11823 0 -817520 10910.3 0 -816347 9971.84 0 -842623 6952.67 0 -841791 8946.6 0 -840555 10741.3 0 -838980 12361.3 0 -837138 13741.7 0 -835094 14854 0 -832909 15688 0 -830636 16242.1 0 -828318 16517.8 0 -825998 16516.2 0 -823718 16237 0 -821529 15683.4 0 -819491 14866.1 0 -817665 13812.4 0 -816119 12585.1 0 -814925 11140.2 0 -845437 8011.03 0 -844468 10329.3 0 -842995 12682.1 0 -841089 14725.1 0 -838861 16418.2 0 -836420 17746.4 0 -833844 18718.2 0 -831187 19351 0 -828492 19655.2 0 -825792 19632.3 0 -823126 19274.7 0 -820548 18567.9 0 -818132 17505.2 0 -815980 16101.8 0 -814198 14394.1 0 -812841 12749.2 0 -849059 8322.01 0 -847997 12072 0 -846126 15088 0 -843687 17652.3 0 -840910 19674.9 0 -837949 21195.2 0 -834898 22277.2 0 -831799 22969.2 0 -828674 23299.6 0 -825536 23270.6 0 -822404 22857.6 0 -819320 22017.6 0 -816373 20692.4 0 -813705 18846.3 0 -811532 16565.6 0 -810098 13494.4 0 -854199 10158.1 0 -852794 14177.6 0 -850132 18333.8 0 -846797 21452 0 -843220 23717.9 0 -839606 25327.4 0 -836016 26435.2 0 -832450 27143.9 0 -828880 27497.8 0 -825279 27498.6 0 -821620 27106.6 0 -817905 26226.7 0 -814191 24716.8 0 -810671 22398 0 -807740 19096.1 0 -805923 16062.1 0 -862149 8962.84 0 -859631 17876.8 0 -855114 23173.3 0 -850205 26602.4 0 -845543 28775 0 -841207 30215.3 0 -837093 31202.8 0 -833103 31857.5 0 -829139 32232.3 0 -825116 32327.5 0 -820943 32091.3 0 -816528 31410.6 0 -811779 30023.6 0 -806780 27448.9 0 -802127 23149.8 0 -799197 15240.6 0 -875408 11991.4 0 -869792 25390.6 0 -860273 31285.3 0 -853013 33597 0 -847349 34879 0 -842449 35776.8 0 -837988 36460 0 -833714 36995.3 0 -829491 37391.2 0 -825181 37644.6 0 -820655 37740.9 0 -815679 37608.3 0 -809960 37080.6 0 -802738 35547.9 0 -793484 30632.7 0 -788511 19297.5 0 -952107 64151.7 0 -876465 47472.6 0 -861108 43165.9 0 -853782 41784.5 0 -847921 41484.6 0 -843118 41626.2 0 -838580 41947 0 -834267 42342.5 0 -829957 42764.6 0 -825596 43206.8 0 -820965 43701.8 0 -816040 44332.8 0 -810054 45324.1 0 -802691 47240.3 0 -787660 51747.9 0 -713675 67800.3 0 </DataArray> 
</PointData> 
<Points> 
<DataArray type="Float32" NumberOfComponents="3"> 
0 0.052 0 0 0.0526667 0 0 0.0533333 0 0 0.054 0 0 0.0546667 0 0 0.0553333 0 0 0.056 0 0 0.0566667 0 0 0.0573333 0 0 0.058 0 0 0.0586667 0 0 0.0593333 0 0 0.06 0 0 0.0606667 0 0 0.0613333 0 0 0.062 0 0.000833333 0.052 0 0.000833333 0.0526667 0 0.000833333 0.0533333 0 0.000833333 0.054 0 0.000833333 0.0546667 0 0.000833333 0.0553333 0 0.000833333 0.056 0 0.000833333 0.0566667 0 0.000833333 0.0573333 0 0.000833333 0.058 0 0.000833333 0.0586667 0 0.000833333 0.0593333 0 0.000833333 0.06 0 0.000833333 0.0606667 0 0.000833333 0.0613333 0 0.000833333 0.062 0 0.00166667 0.052 0 0.00166667 0.0526667 0 0.00166667 0.0533333 0 0.00166667 0.054 0 0.00166667 0.0546667 0 0.00166667 0.0553333 0 0.00166667 0.056 0 0.00166667 0.0566667 0 0.00166667 0.0573333 0 0.00166667 0.058 0 0.00166667 0.0586667 0 0.00166667 0.0593333 0 0.00166667 0.06 0 0.00166667 0.0606667 0 0.00166667 0.0613333 0 0.00166667 0.062 0 0.0025 0.052 0 0.0025 0.0526667 0 0.0025 0.0533333 0 0.0025 0.054 0 0.0025 0.0546667 0 0.0025 0.0553333 0 0.0025 0.056 0 0.0025 0.0566667 0 0.0025 0.0573333 0 0.0025 0.058 0 0.0025 0.0586667 0 0.0025 0.0593333 0 0.0025 0.06 0 0.0025 0.0606667 0 0.0025 0.0613333 0 0.0025 0.062 0 0.00333333 0.052 0 0.00333333 0.0526667 0 0.00333333 0.0533333 0 0.00333333 0.054 0 0.00333333 0.0546667 0 0.00333333 0.0553333 0 0.00333333 0.056 0 0.00333333 0.0566667 0 0.00333333 0.0573333 0 0.00333333 0.058 0 0.00333333 0.0586667 0 0.00333333 0.0593333 0 0.00333333 0.06 0 0.00333333 0.0606667 0 0.00333333 0.0613333 0 0.00333333 0.062 0 0.00416667 0.052 0 0.00416667 0.0526667 0 0.00416667 0.0533333 0 0.00416667 0.054 0 0.00416667 0.0546667 0 0.00416667 0.0553333 0 0.00416667 0.056 0 0.00416667 0.0566667 0 0.00416667 0.0573333 0 0.00416667 0.058 0 0.00416667 0.0586667 0 0.00416667 0.0593333 0 0.00416667 0.06 0 0.00416667 0.0606667 0 0.00416667 0.0613333 0 0.00416667 0.062 0 0.005 0.052 0 0.005 0.0526667 0 0.005 0.0533333 0 0.005 0.054 0 0.005 0.0546667 0 0.005 0.0553333 0 0.005 0.056 0 0.005 0.0566667 0 0.005 0.0573333 0 0.005 0.058 0 0.005 0.0586667 0 0.005 0.0593333 0 0.005 0.06 0 0.005 0.0606667 0 0.005 0.0613333 0 0.005 0.062 0 0.00583333 0.052 0 0.00583333 0.0526667 0 0.00583333 0.0533333 0 0.00583333 0.054 0 0.00583333 0.0546667 0 0.00583333 0.0553333 0 0.00583333 0.056 0 0.00583333 0.0566667 0 0.00583333 0.0573333 0 0.00583333 0.058 0 0.00583333 0.0586667 0 0.00583333 0.0593333 0 0.00583333 0.06 0 0.00583333 0.0606667 0 0.00583333 0.0613333 0 0.00583333 0.062 0 0.00666667 0.052 0 0.00666667 0.0526667 0 0.00666667 0.0533333 0 0.00666667 0.054 0 0.00666667 0.0546667 0 0.00666667 0.0553333 0 0.00666667 0.056 0 0.00666667 0.0566667 0 0.00666667 0.0573333 0 0.00666667 0.058 0 0.00666667 0.0586667 0 0.00666667 0.0593333 0 0.00666667 0.06 0 0.00666667 0.0606667 0 0.00666667 0.0613333 0 0.00666667 0.062 0 0.0075 0.052 0 0.0075 0.0526667 0 0.0075 0.0533333 0 0.0075 0.054 0 0.0075 0.0546667 0 0.0075 0.0553333 0 0.0075 0.056 0 0.0075 0.0566667 0 0.0075 0.0573333 0 0.0075 0.058 0 0.0075 0.0586667 0 0.0075 0.0593333 0 0.0075 0.06 0 0.0075 0.0606667 0 0.0075 0.0613333 0 0.0075 0.062 0 0.00833333 0.052 0 0.00833333 0.0526667 0 0.00833333 0.0533333 0 0.00833333 0.054 0 0.00833333 0.0546667 0 0.00833333 0.0553333 0 0.00833333 0.056 0 0.00833333 0.0566667 0 0.00833333 0.0573333 0 0.00833333 0.058 0 0.00833333 0.0586667 0 0.00833333 0.0593333 0 0.00833333 0.06 0 0.00833333 0.0606667 0 0.00833333 0.0613333 0 0.00833333 0.062 0 0.00916667 0.052 0 0.00916667 0.0526667 0 0.00916667 0.0533333 0 0.00916667 0.054 0 0.00916667 0.0546667 0 0.00916667 0.0553333 0 0.00916667 0.056 0 0.00916667 0.0566667 0 0.00916667 0.0573333 0 0.00916667 0.058 0 0.00916667 0.0586667 0 0.00916667 0.0593333 0 0.00916667 0.06 0 0.00916667 0.0606667 0 0.00916667 0.0613333 0 0.00916667 0.062 0 0.01 0.052 0 0.01 0.0526667 0 0.01 0.0533333 0 0.01 0.054 0 0.01 0.0546667 0 0.01 0.0553333 0 0.01 0.056 0 0.01 0.0566667 0 0.01 0.0573333 0 0.01 0.058 0 0.01 0.0586667 0 0.01 0.0593333 0 0.01 0.06 0 0.01 0.0606667 0 0.01 0.0613333 0 0.01 0.062 0 0.0108333 0.052 0 0.0108333 0.0526667 0 0.0108333 0.0533333 0 0.0108333 0.054 0 0.0108333 0.0546667 0 0.0108333 0.0553333 0 0.0108333 0.056 0 0.0108333 0.0566667 0 0.0108333 0.0573333 0 0.0108333 0.058 0 0.0108333 0.0586667 0 0.0108333 0.0593333 0 0.0108333 0.06 0 0.0108333 0.0606667 0 0.0108333 0.0613333 0 0.0108333 0.062 0 0.0116667 0.052 0 0.0116667 0.0526667 0 0.0116667 0.0533333 0 0.0116667 0.054 0 0.0116667 0.0546667 0 0.0116667 0.0553333 0 0.0116667 0.056 0 0.0116667 0.0566667 0 0.0116667 0.0573333 0 0.0116667 0.058 0 0.0116667 0.0586667 0 0.0116667 0.0593333 0 0.0116667 0.06 0 0.0116667 0.0606667 0 0.0116667 0.0613333 0 0.0116667 0.062 0 0.0125 0.052 0 0.0125 0.0526667 0 0.0125 0.0533333 0 0.0125 0.054 0 0.0125 0.0546667 0 0.0125 0.0553333 0 0.0125 0.056 0 0.0125 0.0566667 0 0.0125 0.0573333 0 0.0125 0.058 0 0.0125 0.0586667 0 0.0125 0.0593333 0 0.0125 0.06 0 0.0125 0.0606667 0 0.0125 0.0613333 0 0.0125 0.062 0 
</DataArray>
</Points> 
</Piece> 
</StructuredGrid> 
</VTKFile> 
