<?xml version="1.0"?> 
<VTKFile type="StructuredGrid" version="0.1"> 
<StructuredGrid WholeExtent="0 15 0 15 0 0"> 
<Piece Extent="0 15 0 15 0 0"> 
<PointData>
<DataArray type="Float32" Name="E" format="ascii" NumberOfComponents="3"> 
587542 6.37903e+06 0 -1.33828e+06 414212 0 -1.29827e+06 3392.17 0 -1.10777e+06 91965.5 0 -997259 121565 0 -958282 58248.7 0 -956736 -50855.7 0 -968226 -171631 0 -980875 -286908 0 -991417 -394941 0 -1.00023e+06 -499292 0 -1.0091e+06 -606561 0 -1.01966e+06 -724058 0 -1.03273e+06 -862017 0 -1.04538e+06 -1.04192e+06 0 -1.03852e+06 -1.43269e+06 0 57169.2 620695 0 -26203.3 476574 0 -258874 692822 0 -484577 714264 0 -654376 602679 0 -764892 440017 0 -828411 276945 0 -860081 133775 0 -872648 13040.8 0 -874959 -89814.6 0 -872447 -181253 0 -868006 -267175 0 -862850 -352297 0 -857231 -440363 0 -850802 -534743 0 -844013 -640309 0 3544.61 38484.3 0 14799.3 352060 0 -4857.05 264612 0 -53840.7 312183 0 -139704 404710 0 -249692 465806 0 -364881 470919 0 -470494 426202 0 -558201 349155 0 -625519 256208 0 -673656 159085 0 -705643 64368.3 0 -724962 -25268.5 0 -734747 -109639 0 -737405 -189747 0 -734243 -265951 0 22035.3 239240 0 2599.75 119262 0 -6805.11 216687 0 -21201 217171 0 -36093 202885 0 -57359 214264 0 -91921.8 247783 0 -141289 285909 0 -202421 312294 0 -269719 318543 0 -337357 303026 0 -400579 268561 0 -456225 219826 0 -502682 161665 0 -539558 98071.3 0 -567352 31401.9 0 3561.83 38671.3 0 4150.35 108530 0 -563.428 82702.6 0 -5373.1 115855 0 -15562.2 146769 0 -28828.1 157555 0 -42249.3 157741 0 -56296.5 158724 0 -73110.9 166489 0 -94974.4 180254 0 -123023 195934 0 -157016 208654 0 -195590 214551 0 -236755 211377 0 -278360 198498 0 -318431 176664 0 7641.34 82963.1 0 3757.22 62425.6 0 -295.883 81247.3 0 -4791.71 71802.7 0 -7363.71 70924.2 0 -10521.9 82824.8 0 -16553.8 97872.3 0 -25209.4 109509 0 -35442.8 115888 0 -46360.4 118902 0 -57820.2 121096 0 -70267.2 124301 0 -84401.2 129011 0 -100823 134621 0 -119828 139842 0 -141325 143176 0 2777.19 30152.4 0 1670.42 43469.9 0 1063.44 42591.5 0 -729.386 53970.5 0 -4366.81 58695 0 -8086.39 57718.9 0 -10853.9 57443.5 0 -13377.9 60413.6 0 -16594.5 66260.4 0 -21122.2 73016.4 0 -27021.3 79073.6 0 -34033.7 83630.9 0 -41827 86709.1 0 -50180.6 88762.8 0 -59044.8 90346.2 0 -68518.2 91866 0 3040.03 33006 0 2031.42 30794.5 0 82.4361 33413.9 0 -1073.28 31722.1 0 -1717.37 34151.5 0 -2994.09 38836.6 0 -5315.48 42363.9 0 -8083.22 44129.1 0 -10791.7 44869.8 0 -13258 45755.1 0 -15651.2 47402.9 0 -18265.8 49881.7 0 -21361.7 52864.3 0 -25075.9 55915.6 0 -29422.3 58666.3 0 -34330.9 60900.4 0 1670.88 18141 0 977.748 20698.1 0 769.049 21909.4 0 -246.749 24451.9 0 -1571.47 25062.8 0 -2618.91 25068.4 0 -3336.1 25974.7 0 -4175.15 27709.5 0 -5400.64 29730.5 0 -7044.88 31480.7 0 -8959.76 32784.2 0 -10979.4 33728.2 0 -13002.9 34529.7 0 -15020.1 35383.4 0 -17087.5 36398.4 0 -19290.9 37585.2 0 1363.01 14798.4 0 964.331 14969.7 0 191.901 15475.8 0 -159 15721.3 0 -538.345 16758.9 0 -1211.49 17921 0 -2127.26 18647.2 0 -3020.7 19092.2 0 -3796.54 19520.5 0 -4496.5 20132.5 0 -5237.05 20938.5 0 -6112.91 21850.8 0 -7163.77 22755.2 0 -8376.49 23572 0 -9709.6 24270.5 0 -11118.2 24861.4 0 890.439 9667.63 0 546.289 10220.9 0 356.822 10731.1 0 -123.94 11255.4 0 -587.123 11544.6 0 -940.765 11832.7 0 -1253.87 12282.9 0 -1668.33 12809.7 0 -2209.63 13316.1 0 -2834.78 13745.1 0 -3478.66 14107 0 -4102.78 14439.4 0 -4703.81 14779.3 0 -5303.87 15145.6 0 -5933.26 15537.9 0 -6617.11 15942.4 0 631.206 6853.09 0 426.425 7076.01 0 121.518 7297.47 0 -55.3319 7537.15 0 -291.263 7804.44 0 -607.247 8072.62 0 -953.649 8312.1 0 -1265.48 8535.5 0 -1545.29 8760.33 0 -1825.02 8994.3 0 -2138.14 9235.38 0 -2498.62 9474.89 0 -2901.59 9705.19 0 -3332.09 9921.57 0 -3774.75 10123.3 0 -4219.83 10312.2 0 413.558 4490.06 0 235.375 4632.05 0 92.1257 4772.34 0 -125.189 4909.34 0 -315.168 5079.18 0 -482.11 5230.62 0 -656.008 5356.55 0 -863.36 5481.39 0 -1096.53 5613.21 0 -1337.32 5753.31 0 -1571.53 5892.43 0 -1796.24 6024.67 0 -2017.18 6146.7 0 -2243.11 6259.47 0 -2481.16 6365.28 0 -2734.62 6466.52 0 242.034 2627.8 0 118.363 2731.38 0 -25.0124 2840.44 0 -141.901 2934.77 0 -281.672 2980.69 0 -434.764 3049.1 0 -585.738 3152.13 0 -726.589 3250.82 0 -863.572 3330.8 0 -1005.6 3390.37 0 -1157.48 3443.11 0 -1318.73 3498.43 0 -1485.54 3560.9 0 -1653.79 3628.45 0 -1820.81 3696.56 0 -1985.96 3760.51 0 110.949 1204.59 0 3.73449 1232.32 0 -101.01 1248.19 0 -212.888 1283.19 0 -317.095 1362.41 0 -421.576 1413.42 0 -531.514 1425.1 0 -645.61 1439.64 0 -760.898 1471.21 0 -874.788 1520.02 0 -987.161 1571 0 -1098.96 1614.13 0 -1211.58 1645.02 0 -1325.86 1666.19 0 -1442 1682.61 0 -1559.62 1699.08 0 -3.57628e-07 -2.86102e-06 0 -76.0252 -1.7602e-07 0 -138.739 6.83591e-07 0 -238.3 -1.78441e-06 0 -320.045 2.06381e-06 0 -393.002 -1.3411e-06 0 -472.491 1.2219e-06 0 -568.335 -1.01328e-06 0 -671.721 1.19209e-06 0 -772.781 -1.07288e-06 0 -866.302 1.01328e-06 0 -953.716 -3.57628e-07 0 -1039.58 -1.19209e-07 0 -1128.24 2.38419e-07 0 -1221.92 -1.66893e-06 0 -1320.44 7.62939e-06 0 </DataArray> 
</PointData> 
<Points> 
<DataArray type="Float32" NumberOfComponents="3"> 
0.264 0.021 0 0.263267 0.0214 0 0.262533 0.0218 0 0.2618 0.0222 0 0.261067 0.0226 0 0.260333 0.023 0 0.2596 0.0234 0 0.258867 0.0238 0 0.258133 0.0242 0 0.2574 0.0246 0 0.256667 0.025 0 0.255933 0.0254 0 0.2552 0.0258 0 0.254467 0.0262 0 0.253733 0.0266 0 0.253 0.027 0 0.266533 0.0207667 0 0.265849 0.0211529 0 0.265164 0.0215391 0 0.26448 0.0219253 0 0.263796 0.0223116 0 0.263111 0.0226978 0 0.262427 0.023084 0 0.261742 0.0234702 0 0.261058 0.0238564 0 0.260373 0.0242427 0 0.259689 0.0246289 0 0.259004 0.0250151 0 0.25832 0.0254013 0 0.257636 0.0257876 0 0.256951 0.0261738 0 0.256267 0.02656 0 0.269067 0.0205333 0 0.268431 0.0209058 0 0.267796 0.0212782 0 0.26716 0.0216507 0 0.266524 0.0220231 0 0.265889 0.0223956 0 0.265253 0.022768 0 0.264618 0.0231404 0 0.263982 0.0235129 0 0.263347 0.0238853 0 0.262711 0.0242578 0 0.262076 0.0246302 0 0.26144 0.0250027 0 0.260804 0.0253751 0 0.260169 0.0257476 0 0.259533 0.02612 0 0.2716 0.0203 0 0.271013 0.0206587 0 0.270427 0.0210173 0 0.26984 0.021376 0 0.269253 0.0217347 0 0.268667 0.0220933 0 0.26808 0.022452 0 0.267493 0.0228107 0 0.266907 0.0231693 0 0.26632 0.023528 0 0.265733 0.0238867 0 0.265147 0.0242453 0 0.26456 0.024604 0 0.263973 0.0249627 0 0.263387 0.0253213 0 0.2628 0.02568 0 0.274133 0.0200667 0 0.273596 0.0204116 0 0.273058 0.0207564 0 0.27252 0.0211013 0 0.271982 0.0214462 0 0.271444 0.0217911 0 0.270907 0.022136 0 0.270369 0.0224809 0 0.269831 0.0228258 0 0.269293 0.0231707 0 0.268756 0.0235156 0 0.268218 0.0238604 0 0.26768 0.0242053 0 0.267142 0.0245502 0 0.266604 0.0248951 0 0.266067 0.02524 0 0.276667 0.0198333 0 0.276178 0.0201644 0 0.275689 0.0204956 0 0.2752 0.0208267 0 0.274711 0.0211578 0 0.274222 0.0214889 0 0.273733 0.02182 0 0.273244 0.0221511 0 0.272756 0.0224822 0 0.272267 0.0228133 0 0.271778 0.0231444 0 0.271289 0.0234756 0 0.2708 0.0238067 0 0.270311 0.0241378 0 0.269822 0.0244689 0 0.269333 0.0248 0 0.2792 0.0196 0 0.27876 0.0199173 0 0.27832 0.0202347 0 0.27788 0.020552 0 0.27744 0.0208693 0 0.277 0.0211867 0 0.27656 0.021504 0 0.27612 0.0218213 0 0.27568 0.0221387 0 0.27524 0.022456 0 0.2748 0.0227733 0 0.27436 0.0230907 0 0.27392 0.023408 0 0.27348 0.0237253 0 0.27304 0.0240427 0 0.2726 0.02436 0 0.281733 0.0193667 0 0.281342 0.0196702 0 0.280951 0.0199738 0 0.28056 0.0202773 0 0.280169 0.0205809 0 0.279778 0.0208844 0 0.279387 0.021188 0 0.278996 0.0214916 0 0.278604 0.0217951 0 0.278213 0.0220987 0 0.277822 0.0224022 0 0.277431 0.0227058 0 0.27704 0.0230093 0 0.276649 0.0233129 0 0.276258 0.0236164 0 0.275867 0.02392 0 0.284267 0.0191333 0 0.283924 0.0194231 0 0.283582 0.0197129 0 0.28324 0.0200027 0 0.282898 0.0202924 0 0.282556 0.0205822 0 0.282213 0.020872 0 0.281871 0.0211618 0 0.281529 0.0214516 0 0.281187 0.0217413 0 0.280844 0.0220311 0 0.280502 0.0223209 0 0.28016 0.0226107 0 0.279818 0.0229004 0 0.279476 0.0231902 0 0.279133 0.02348 0 0.2868 0.0189 0 0.286507 0.019176 0 0.286213 0.019452 0 0.28592 0.019728 0 0.285627 0.020004 0 0.285333 0.02028 0 0.28504 0.020556 0 0.284747 0.020832 0 0.284453 0.021108 0 0.28416 0.021384 0 0.283867 0.02166 0 0.283573 0.021936 0 0.28328 0.022212 0 0.282987 0.022488 0 0.282693 0.022764 0 0.2824 0.02304 0 0.289333 0.0186667 0 0.289089 0.0189289 0 0.288844 0.0191911 0 0.2886 0.0194533 0 0.288356 0.0197156 0 0.288111 0.0199778 0 0.287867 0.02024 0 0.287622 0.0205022 0 0.287378 0.0207644 0 0.287133 0.0210267 0 0.286889 0.0212889 0 0.286644 0.0215511 0 0.2864 0.0218133 0 0.286156 0.0220756 0 0.285911 0.0223378 0 0.285667 0.0226 0 0.291867 0.0184333 0 0.291671 0.0186818 0 0.291476 0.0189302 0 0.29128 0.0191787 0 0.291084 0.0194271 0 0.290889 0.0196756 0 0.290693 0.019924 0 0.290498 0.0201724 0 0.290302 0.0204209 0 0.290107 0.0206693 0 0.289911 0.0209178 0 0.289716 0.0211662 0 0.28952 0.0214147 0 0.289324 0.0216631 0 0.289129 0.0219116 0 0.288933 0.02216 0 0.2944 0.0182 0 0.294253 0.0184347 0 0.294107 0.0186693 0 0.29396 0.018904 0 0.293813 0.0191387 0 0.293667 0.0193733 0 0.29352 0.019608 0 0.293373 0.0198427 0 0.293227 0.0200773 0 0.29308 0.020312 0 0.292933 0.0205467 0 0.292787 0.0207813 0 0.29264 0.021016 0 0.292493 0.0212507 0 0.292347 0.0214853 0 0.2922 0.02172 0 0.296933 0.0179667 0 0.296836 0.0181876 0 0.296738 0.0184084 0 0.29664 0.0186293 0 0.296542 0.0188502 0 0.296444 0.0190711 0 0.296347 0.019292 0 0.296249 0.0195129 0 0.296151 0.0197338 0 0.296053 0.0199547 0 0.295956 0.0201756 0 0.295858 0.0203964 0 0.29576 0.0206173 0 0.295662 0.0208382 0 0.295564 0.0210591 0 0.295467 0.02128 0 0.299467 0.0177333 0 0.299418 0.0179404 0 0.299369 0.0181476 0 0.29932 0.0183547 0 0.299271 0.0185618 0 0.299222 0.0187689 0 0.299173 0.018976 0 0.299124 0.0191831 0 0.299076 0.0193902 0 0.299027 0.0195973 0 0.298978 0.0198044 0 0.298929 0.0200116 0 0.29888 0.0202187 0 0.298831 0.0204258 0 0.298782 0.0206329 0 0.298733 0.02084 0 0.302 0.0175 0 0.302 0.0176933 0 0.302 0.0178867 0 0.302 0.01808 0 0.302 0.0182733 0 0.302 0.0184667 0 0.302 0.01866 0 0.302 0.0188533 0 0.302 0.0190467 0 0.302 0.01924 0 0.302 0.0194333 0 0.302 0.0196267 0 0.302 0.01982 0 0.302 0.0200133 0 0.302 0.0202067 0 0.302 0.0204 0 
</DataArray>
</Points> 
</Piece> 
</StructuredGrid> 
</VTKFile> 
