<?xml version="1.0"?> 
<VTKFile type="StructuredGrid" version="0.1"> 
<StructuredGrid WholeExtent="0 15 0 15 0 0"> 
<Piece Extent="0 15 0 15 0 0"> 
<PointData>
<DataArray type="Float32" Name="E" format="ascii" NumberOfComponents="3"> 
-819811 0 0 -798894 0 0 -778296 0 0 -758048 0 0 -738136 0 0 -718517 0 0 -699136 0 0 -679943 0 0 -660891 0 0 -641944 0 0 -623071 0 0 -604251 0 0 -585466 0 0 -566704 0 0 -547954 0 0 -529211 0 0 -819777 11443.8 0 -798846 11288.3 0 -778243 11099.6 0 -757998 10908.8 0 -738093 10736.3 0 -718481 10591.5 0 -699109 10476.2 0 -679922 10387.8 0 -660876 10321.9 0 -641933 10274.1 0 -623064 10240.3 0 -604246 10217.1 0 -585463 10201.8 0 -566702 10192.5 0 -547954 10187.6 0 -529211 10186.1 0 -819672 22909.3 0 -798698 22586.3 0 -778083 22199.5 0 -757847 21811.9 0 -737963 21464.1 0 -718376 21174.1 0 -699026 20944.3 0 -679860 20768.9 0 -660831 20638.6 0 -641901 20544.2 0 -623041 20477.5 0 -604231 20431.8 0 -585453 20401.8 0 -566697 20383.7 0 -547951 20374.3 0 -529211 20371.4 0 -819487 34417.2 0 -798443 33903 0 -777810 33298.7 0 -757592 32702.5 0 -737744 32174.4 0 -718200 31738.7 0 -698890 31396.4 0 -679758 31136.6 0 -660756 30944.6 0 -641847 30806.1 0 -623004 30708.5 0 -604206 30641.9 0 -585438 30598.4 0 -566688 30572.3 0 -547947 30559 0 -529211 30555.4 0 -819201 45989.7 0 -798064 45245.8 0 -777412 44394.3 0 -757227 43571.9 0 -737436 42856.6 0 -717954 42275.3 0 -698703 41823.9 0 -679618 41484.3 0 -660654 41235 0 -641775 41056 0 -622954 40930.5 0 -604173 40845.2 0 -585417 40790 0 -566676 40757.1 0 -547943 40741 0 -529211 40737.2 0 -818796 57649.6 0 -797538 56619.5 0 -776874 55479.3 0 -756745 54407.9 0 -737038 53498.3 0 -717642 52773.2 0 -698466 52218.3 0 -679443 51805.4 0 -660528 51504.8 0 -641685 51290.2 0 -622892 51140.7 0 -604132 51039.7 0 -585391 50974.9 0 -566662 50937.1 0 -547937 50919.3 0 -529212 50916.4 0 -818217 69413.7 0 -796832 68024.8 0 -776178 66540.8 0 -756138 65194.1 0 -736548 64084.3 0 -717265 63220.4 0 -698184 62570.8 0 -679237 62093.5 0 -660380 61749.2 0 -641581 61505.4 0 -622821 61336.6 0 -604085 61223.6 0 -585363 61152.1 0 -566647 61111.2 0 -547932 61093.2 0 -529215 61092.3 0 -817447 81321.3 0 -795905 79453.7 0 -775297 77557.4 0 -755400 75907.5 0 -735970 74596.6 0 -716829 73604.1 0 -697863 72872.5 0 -679006 72342.6 0 -660215 71964.3 0 -641466 71698.6 0 -622743 71516.3 0 -604034 71395.5 0 -585332 71320.2 0 -566632 71278.7 0 -547928 71262.2 0 -529219 71264.5 0 -816347 93349.4 0 -794696 90891.3 0 -774208 88494 0 -754525 86517.5 0 -735308 85013.9 0 -716342 83910.7 0 -697512 83115.1 0 -678754 82547.2 0 -660038 82146.4 0 -641344 81867.5 0 -622661 81677.9 0 -603982 81554 0 -585302 81478.4 0 -566617 81438.8 0 -547926 81425.7 0 -529226 81432.6 0 -814925 105634 0 -793135 102290 0 -772880 99297.8 0 -753519 96984.4 0 -734575 95312.3 0 -715818 94127.2 0 -697139 93290.8 0 -678492 92703.2 0 -659855 92292.8 0 -641218 92010.3 0 -622577 91820.4 0 -603929 91698.3 0 -585272 91626.2 0 -566605 91591.1 0 -547926 91583.4 0 -529235 91596.4 0 -812841 117946 0 -791107 113593 0 -771304 109885 0 -752393 107260 0 -733793 105468 0 -715272 104241 0 -696758 103394 0 -678226 102807 0 -659671 102402 0 -641094 102126 0 -622496 101943 0 -603880 101828 0 -585246 101763 0 -566596 101735 0 -547930 101735 0 -529249 101756 0 -810098 130878 0 -788500 124608 0 -769476 120142 0 -751192 117290 0 -732989 115460 0 -714726 114246 0 -696382 113422 0 -677967 112859 0 -659494 112473 0 -640976 112215 0 -622420 112046 0 -603835 111943 0 -585224 111889 0 -566592 111871 0 -547939 111881 0 -529267 111910 0 -805923 143346 0 -785150 135128 0 -767485 129898 0 -749973 127028 0 -732210 125277 0 -714203 124137 0 -696028 123376 0 -677725 122857 0 -659331 122509 0 -640868 122277 0 -622354 122130 0 -603798 122044 0 -585209 122005 0 -566593 122000 0 -547953 122020 0 -529291 122061 0 -799197 157749 0 -781036 144317 0 -765513 139018 0 -748838 136454 0 -731502 134917 0 -713729 133922 0 -695711 133256 0 -677510 132809 0 -659188 132509 0 -640776 132314 0 -622299 132195 0 -603770 132132 0 -585202 132110 0 -566602 132120 0 -547973 132154 0 -529320 132207 0 -788511 169760 0 -777069 151120 0 -763652 147461 0 -748047 145598 0 -730837 144408 0 -713366 143610 0 -695429 143076 0 -677338 142716 0 -659068 142479 0 -640704 142330 0 -622258 142245 0 -603755 142207 0 -585205 142207 0 -566618 142234 0 -548001 142283 0 -529356 142348 0 -713675 141511 0 -774116 155827 0 -764218 155474 0 -746606 154563 0 -730795 153788 0 -712869 153220 0 -695314 152847 0 -677163 152586 0 -658998 152425 0 -640648 152326 0 -622237 152280 0 -603752 152272 0 -585218 152295 0 -566645 152341 0 -548036 152406 0 -529398 152487 0 </DataArray> 
</PointData> 
<Points> 
<DataArray type="Float32" NumberOfComponents="3"> 
0 0.062 0 0 0.0635333 0 0 0.0650667 0 0 0.0666 0 0 0.0681333 0 0 0.0696667 0 0 0.0712 0 0 0.0727333 0 0 0.0742667 0 0 0.0758 0 0 0.0773333 0 0 0.0788667 0 0 0.0804 0 0 0.0819333 0 0 0.0834667 0 0 0.085 0 0.000833333 0.062 0 0.000833333 0.0635333 0 0.000833333 0.0650667 0 0.000833333 0.0666 0 0.000833333 0.0681333 0 0.000833333 0.0696667 0 0.000833333 0.0712 0 0.000833333 0.0727333 0 0.000833333 0.0742667 0 0.000833333 0.0758 0 0.000833333 0.0773333 0 0.000833333 0.0788667 0 0.000833333 0.0804 0 0.000833333 0.0819333 0 0.000833333 0.0834667 0 0.000833333 0.085 0 0.00166667 0.062 0 0.00166667 0.0635333 0 0.00166667 0.0650667 0 0.00166667 0.0666 0 0.00166667 0.0681333 0 0.00166667 0.0696667 0 0.00166667 0.0712 0 0.00166667 0.0727333 0 0.00166667 0.0742667 0 0.00166667 0.0758 0 0.00166667 0.0773333 0 0.00166667 0.0788667 0 0.00166667 0.0804 0 0.00166667 0.0819333 0 0.00166667 0.0834667 0 0.00166667 0.085 0 0.0025 0.062 0 0.0025 0.0635333 0 0.0025 0.0650667 0 0.0025 0.0666 0 0.0025 0.0681333 0 0.0025 0.0696667 0 0.0025 0.0712 0 0.0025 0.0727333 0 0.0025 0.0742667 0 0.0025 0.0758 0 0.0025 0.0773333 0 0.0025 0.0788667 0 0.0025 0.0804 0 0.0025 0.0819333 0 0.0025 0.0834667 0 0.0025 0.085 0 0.00333333 0.062 0 0.00333333 0.0635333 0 0.00333333 0.0650667 0 0.00333333 0.0666 0 0.00333333 0.0681333 0 0.00333333 0.0696667 0 0.00333333 0.0712 0 0.00333333 0.0727333 0 0.00333333 0.0742667 0 0.00333333 0.0758 0 0.00333333 0.0773333 0 0.00333333 0.0788667 0 0.00333333 0.0804 0 0.00333333 0.0819333 0 0.00333333 0.0834667 0 0.00333333 0.085 0 0.00416667 0.062 0 0.00416667 0.0635333 0 0.00416667 0.0650667 0 0.00416667 0.0666 0 0.00416667 0.0681333 0 0.00416667 0.0696667 0 0.00416667 0.0712 0 0.00416667 0.0727333 0 0.00416667 0.0742667 0 0.00416667 0.0758 0 0.00416667 0.0773333 0 0.00416667 0.0788667 0 0.00416667 0.0804 0 0.00416667 0.0819333 0 0.00416667 0.0834667 0 0.00416667 0.085 0 0.005 0.062 0 0.005 0.0635333 0 0.005 0.0650667 0 0.005 0.0666 0 0.005 0.0681333 0 0.005 0.0696667 0 0.005 0.0712 0 0.005 0.0727333 0 0.005 0.0742667 0 0.005 0.0758 0 0.005 0.0773333 0 0.005 0.0788667 0 0.005 0.0804 0 0.005 0.0819333 0 0.005 0.0834667 0 0.005 0.085 0 0.00583333 0.062 0 0.00583333 0.0635333 0 0.00583333 0.0650667 0 0.00583333 0.0666 0 0.00583333 0.0681333 0 0.00583333 0.0696667 0 0.00583333 0.0712 0 0.00583333 0.0727333 0 0.00583333 0.0742667 0 0.00583333 0.0758 0 0.00583333 0.0773333 0 0.00583333 0.0788667 0 0.00583333 0.0804 0 0.00583333 0.0819333 0 0.00583333 0.0834667 0 0.00583333 0.085 0 0.00666667 0.062 0 0.00666667 0.0635333 0 0.00666667 0.0650667 0 0.00666667 0.0666 0 0.00666667 0.0681333 0 0.00666667 0.0696667 0 0.00666667 0.0712 0 0.00666667 0.0727333 0 0.00666667 0.0742667 0 0.00666667 0.0758 0 0.00666667 0.0773333 0 0.00666667 0.0788667 0 0.00666667 0.0804 0 0.00666667 0.0819333 0 0.00666667 0.0834667 0 0.00666667 0.085 0 0.0075 0.062 0 0.0075 0.0635333 0 0.0075 0.0650667 0 0.0075 0.0666 0 0.0075 0.0681333 0 0.0075 0.0696667 0 0.0075 0.0712 0 0.0075 0.0727333 0 0.0075 0.0742667 0 0.0075 0.0758 0 0.0075 0.0773333 0 0.0075 0.0788667 0 0.0075 0.0804 0 0.0075 0.0819333 0 0.0075 0.0834667 0 0.0075 0.085 0 0.00833333 0.062 0 0.00833333 0.0635333 0 0.00833333 0.0650667 0 0.00833333 0.0666 0 0.00833333 0.0681333 0 0.00833333 0.0696667 0 0.00833333 0.0712 0 0.00833333 0.0727333 0 0.00833333 0.0742667 0 0.00833333 0.0758 0 0.00833333 0.0773333 0 0.00833333 0.0788667 0 0.00833333 0.0804 0 0.00833333 0.0819333 0 0.00833333 0.0834667 0 0.00833333 0.085 0 0.00916667 0.062 0 0.00916667 0.0635333 0 0.00916667 0.0650667 0 0.00916667 0.0666 0 0.00916667 0.0681333 0 0.00916667 0.0696667 0 0.00916667 0.0712 0 0.00916667 0.0727333 0 0.00916667 0.0742667 0 0.00916667 0.0758 0 0.00916667 0.0773333 0 0.00916667 0.0788667 0 0.00916667 0.0804 0 0.00916667 0.0819333 0 0.00916667 0.0834667 0 0.00916667 0.085 0 0.01 0.062 0 0.01 0.0635333 0 0.01 0.0650667 0 0.01 0.0666 0 0.01 0.0681333 0 0.01 0.0696667 0 0.01 0.0712 0 0.01 0.0727333 0 0.01 0.0742667 0 0.01 0.0758 0 0.01 0.0773333 0 0.01 0.0788667 0 0.01 0.0804 0 0.01 0.0819333 0 0.01 0.0834667 0 0.01 0.085 0 0.0108333 0.062 0 0.0108333 0.0635333 0 0.0108333 0.0650667 0 0.0108333 0.0666 0 0.0108333 0.0681333 0 0.0108333 0.0696667 0 0.0108333 0.0712 0 0.0108333 0.0727333 0 0.0108333 0.0742667 0 0.0108333 0.0758 0 0.0108333 0.0773333 0 0.0108333 0.0788667 0 0.0108333 0.0804 0 0.0108333 0.0819333 0 0.0108333 0.0834667 0 0.0108333 0.085 0 0.0116667 0.062 0 0.0116667 0.0635333 0 0.0116667 0.0650667 0 0.0116667 0.0666 0 0.0116667 0.0681333 0 0.0116667 0.0696667 0 0.0116667 0.0712 0 0.0116667 0.0727333 0 0.0116667 0.0742667 0 0.0116667 0.0758 0 0.0116667 0.0773333 0 0.0116667 0.0788667 0 0.0116667 0.0804 0 0.0116667 0.0819333 0 0.0116667 0.0834667 0 0.0116667 0.085 0 0.0125 0.062 0 0.0125 0.0635333 0 0.0125 0.0650667 0 0.0125 0.0666 0 0.0125 0.0681333 0 0.0125 0.0696667 0 0.0125 0.0712 0 0.0125 0.0727333 0 0.0125 0.0742667 0 0.0125 0.0758 0 0.0125 0.0773333 0 0.0125 0.0788667 0 0.0125 0.0804 0 0.0125 0.0819333 0 0.0125 0.0834667 0 0.0125 0.085 0 
</DataArray>
</Points> 
</Piece> 
</StructuredGrid> 
</VTKFile> 
