<?xml version="1.0"?> 
<VTKFile type="StructuredGrid" version="0.1"> 
<StructuredGrid WholeExtent="0 15 0 15 0 0"> 
<Piece Extent="0 15 0 15 0 0"> 
<PointData>
<DataArray type="Float32" Name="E" format="ascii" NumberOfComponents="3"> 
-1.00953e+06 0 0 -998924 0 0 -988252 0 0 -977511 0 0 -966695 0 0 -955800 0 0 -944812 0 0 -933714 0 0 -922478 0 0 -911062 0 0 -899410 0 0 -887444 0 0 -875072 0 0 -862198 0 0 -848742 0 0 -834675 0 0 -1.00964e+06 19445.3 0 -999029 18620.4 0 -988349 17784.5 0 -977601 16939.6 0 -966783 16088.7 0 -955887 15236 0 -944904 14386.7 0 -933814 13547.2 0 -922590 12724.5 0 -911188 11925.3 0 -899549 11153.8 0 -887593 10408.1 0 -875221 9674.81 0 -862333 8924.2 0 -848849 8110.62 0 -834746 7182.92 0 -1.00999e+06 38892 0 -999339 37239.2 0 -988631 35561.7 0 -977863 33864.1 0 -967033 32152.9 0 -956137 30436.8 0 -945165 28726.8 0 -934100 27036.4 0 -922911 25381.1 0 -911553 23776.5 0 -899960 22234 0 -888036 20752.2 0 -875670 19304.4 0 -862745 17827.3 0 -849178 16221.9 0 -834962 14379 0 -1.01056e+06 58354.6 0 -999846 55866.4 0 -989083 53335.7 0 -978273 50770.4 0 -967418 48180.7 0 -956516 45580.2 0 -945558 42986.1 0 -934529 40420.3 0 -923400 37909.3 0 -912122 35482.5 0 -900615 33164.4 0 -888765 30961 0 -876426 28835.2 0 -863449 26682.3 0 -849742 24332.3 0 -835332 21600.3 0 -1.01136e+06 77867.3 0 -1.00054e+06 74530.1 0 -989683 71129.1 0 -978803 67675.3 0 -967899 64182.2 0 -956974 60667.4 0 -946023 57154.4 0 -935037 53674.3 0 -923988 50267.3 0 -912828 46981.9 0 -901465 43867.3 0 -889754 40951.5 0 -877492 38196.7 0 -864470 35449.4 0 -850573 32434.7 0 -835877 28858.6 0 -1.01238e+06 97479.8 0 -1.0014e+06 93274.1 0 -990417 88982.3 0 -979428 84616.5 0 -968442 80191.9 0 -957465 75728.7 0 -946500 71254.9 0 -935545 66809.3 0 -924584 62446.7 0 -913573 58239.2 0 -902419 54274.7 0 -890944 50628.3 0 -878861 47293.3 0 -865843 44065.2 0 -851709 40513.6 0 -836618 36168.6 0 -1.01364e+06 117246 0 -1.00245e+06 112148 0 -991285 106944 0 -980141 101644 0 -969029 96262.5 0 -957959 90819 0 -946941 85342.5 0 -935986 79876.8 0 -925092 74486 0 -914237 69267 0 -903345 64352 0 -892223 59900.8 0 -880489 55996.5 0 -867599 52430.7 0 -853215 48535 0 -837606 43528.4 0 -1.01512e+06 137207 0 -1.00369e+06 131196 0 -992298 125061 0 -980953 118809 0 -969667 112451 0 -958453 106003 0 -947331 99492.3 0 -936320 92958.9 0 -925443 86472.6 0 -914709 80139.3 0 -904081 74136.3 0 -893413 68716.2 0 -882255 64161.7 0 -869758 60382.9 0 -855168 56439.7 0 -838870 50972.1 0 -1.01685e+06 157384 0 -1.00513e+06 150441 0 -993479 143362 0 -981892 136147 0 -970385 128802 0 -958976 121339 0 -947689 113775 0 -936556 106149 0 -925620 98515.3 0 -914924 90988.2 0 -904496 83747.9 0 -894282 77134 0 -883932 71663.6 0 -872256 67694.8 0 -857694 64100.6 0 -840532 58416.9 0 -1.01882e+06 177778 0 -1.0068e+06 169891 0 -994854 161858 0 -982989 153675 0 -971222 145342 0 -959570 136861 0 -948063 128247 0 -936740 119516 0 -925658 110725 0 -914895 101947 0 -904536 93381.6 0 -894650 85339.4 0 -885146 78542.5 0 -874896 74057.5 0 -860907 71286.3 0 -842623 65993.6 0 -1.02105e+06 198367 0 -1.0087e+06 189532 0 -996444 180543 0 -984276 171392 0 -972216 162072 0 -960284 152584 0 -948510 142922 0 -936939 133109 0 -925636 123157 0 -914689 113148 0 -904259 103186 0 -894476 93637.7 0 -885564 85061.3 0 -877131 79306.4 0 -864952 77514.9 0 -845437 73323.7 0 -1.02353e+06 219124 0 -1.01085e+06 209341 0 -998265 199396 0 -985776 189279 0 -973400 178982 0 -961160 168489 0 -949086 157810 0 -937220 146916 0 -925635 135854 0 -914425 124621 0 -903750 113328 0 -893925 102178 0 -885089 91776.5 0 -878199 83621.7 0 -869571 82050.9 0 -849059 81344.7 0 -1.02627e+06 240014 0 -1.01325e+06 229289 0 -1.00033e+06 218392 0 -987500 207315 0 -974794 196042 0 -962227 184569 0 -949829 172863 0 -937641 160956 0 -925723 148766 0 -914207 136400 0 -903175 123820 0 -893077 111142 0 -884176 98901.4 0 -877398 88014.3 0 -873781 84199.1 0 -854199 89867.1 0 -1.02927e+06 261007 0 -1.0159e+06 249346 0 -1.00263e+06 237504 0 -989456 225470 0 -976407 213233 0 -963502 200775 0 -950763 188093 0 -938237 175124 0 -925971 161954 0 -914063 148373 0 -902743 134661 0 -892003 120624 0 -883153 106438 0 -875392 93354.3 0 -875018 84308.7 0 -862149 102928 0 -1.03254e+06 282071 0 -1.01881e+06 269486 0 -1.00517e+06 256706 0 -991642 243721 0 -978242 230524 0 -964987 217097 0 -951905 203420 0 -939018 189487 0 -926405 175209 0 -914112 160701 0 -902314 145668 0 -891375 130424 0 -881212 115066 0 -874624 98576.9 0 -870297 85955.9 0 -875408 111826 0 -1.03606e+06 303181 0 -1.02196e+06 289683 0 -1.00795e+06 275974 0 -994057 262047 0 -980295 247893 0 -966684 233501 0 -953246 218848 0 -940004 203926 0 -927038 188642 0 -914291 173145 0 -902312 156802 0 -890149 141172 0 -881308 122122 0 -869572 109450 0 -870278 85574.6 0 -952107 -36972.4 0 </DataArray> 
</PointData> 
<Points> 
<DataArray type="Float32" NumberOfComponents="3"> 
0 0.027 0 0 0.0286667 0 0 0.0303333 0 0 0.032 0 0 0.0336667 0 0 0.0353333 0 0 0.037 0 0 0.0386667 0 0 0.0403333 0 0 0.042 0 0 0.0436667 0 0 0.0453333 0 0 0.047 0 0 0.0486667 0 0 0.0503333 0 0 0.052 0 0.00306667 0.027 0 0.00291778 0.0286667 0 0.00276889 0.0303333 0 0.00262 0.032 0 0.00247111 0.0336667 0 0.00232222 0.0353333 0 0.00217333 0.037 0 0.00202444 0.0386667 0 0.00187556 0.0403333 0 0.00172667 0.042 0 0.00157778 0.0436667 0 0.00142889 0.0453333 0 0.00128 0.047 0 0.00113111 0.0486667 0 0.000982222 0.0503333 0 0.000833333 0.052 0 0.00613333 0.027 0 0.00583556 0.0286667 0 0.00553778 0.0303333 0 0.00524 0.032 0 0.00494222 0.0336667 0 0.00464444 0.0353333 0 0.00434667 0.037 0 0.00404889 0.0386667 0 0.00375111 0.0403333 0 0.00345333 0.042 0 0.00315556 0.0436667 0 0.00285778 0.0453333 0 0.00256 0.047 0 0.00226222 0.0486667 0 0.00196444 0.0503333 0 0.00166667 0.052 0 0.0092 0.027 0 0.00875333 0.0286667 0 0.00830667 0.0303333 0 0.00786 0.032 0 0.00741333 0.0336667 0 0.00696667 0.0353333 0 0.00652 0.037 0 0.00607333 0.0386667 0 0.00562667 0.0403333 0 0.00518 0.042 0 0.00473333 0.0436667 0 0.00428667 0.0453333 0 0.00384 0.047 0 0.00339333 0.0486667 0 0.00294667 0.0503333 0 0.0025 0.052 0 0.0122667 0.027 0 0.0116711 0.0286667 0 0.0110756 0.0303333 0 0.01048 0.032 0 0.00988444 0.0336667 0 0.00928889 0.0353333 0 0.00869333 0.037 0 0.00809778 0.0386667 0 0.00750222 0.0403333 0 0.00690667 0.042 0 0.00631111 0.0436667 0 0.00571556 0.0453333 0 0.00512 0.047 0 0.00452444 0.0486667 0 0.00392889 0.0503333 0 0.00333333 0.052 0 0.0153333 0.027 0 0.0145889 0.0286667 0 0.0138444 0.0303333 0 0.0131 0.032 0 0.0123556 0.0336667 0 0.0116111 0.0353333 0 0.0108667 0.037 0 0.0101222 0.0386667 0 0.00937778 0.0403333 0 0.00863333 0.042 0 0.00788889 0.0436667 0 0.00714444 0.0453333 0 0.0064 0.047 0 0.00565556 0.0486667 0 0.00491111 0.0503333 0 0.00416667 0.052 0 0.0184 0.027 0 0.0175067 0.0286667 0 0.0166133 0.0303333 0 0.01572 0.032 0 0.0148267 0.0336667 0 0.0139333 0.0353333 0 0.01304 0.037 0 0.0121467 0.0386667 0 0.0112533 0.0403333 0 0.01036 0.042 0 0.00946667 0.0436667 0 0.00857333 0.0453333 0 0.00768 0.047 0 0.00678667 0.0486667 0 0.00589333 0.0503333 0 0.005 0.052 0 0.0214667 0.027 0 0.0204244 0.0286667 0 0.0193822 0.0303333 0 0.01834 0.032 0 0.0172978 0.0336667 0 0.0162556 0.0353333 0 0.0152133 0.037 0 0.0141711 0.0386667 0 0.0131289 0.0403333 0 0.0120867 0.042 0 0.0110444 0.0436667 0 0.0100022 0.0453333 0 0.00896 0.047 0 0.00791778 0.0486667 0 0.00687556 0.0503333 0 0.00583333 0.052 0 0.0245333 0.027 0 0.0233422 0.0286667 0 0.0221511 0.0303333 0 0.02096 0.032 0 0.0197689 0.0336667 0 0.0185778 0.0353333 0 0.0173867 0.037 0 0.0161956 0.0386667 0 0.0150044 0.0403333 0 0.0138133 0.042 0 0.0126222 0.0436667 0 0.0114311 0.0453333 0 0.01024 0.047 0 0.00904889 0.0486667 0 0.00785778 0.0503333 0 0.00666667 0.052 0 0.0276 0.027 0 0.02626 0.0286667 0 0.02492 0.0303333 0 0.02358 0.032 0 0.02224 0.0336667 0 0.0209 0.0353333 0 0.01956 0.037 0 0.01822 0.0386667 0 0.01688 0.0403333 0 0.01554 0.042 0 0.0142 0.0436667 0 0.01286 0.0453333 0 0.01152 0.047 0 0.01018 0.0486667 0 0.00884 0.0503333 0 0.0075 0.052 0 0.0306667 0.027 0 0.0291778 0.0286667 0 0.0276889 0.0303333 0 0.0262 0.032 0 0.0247111 0.0336667 0 0.0232222 0.0353333 0 0.0217333 0.037 0 0.0202444 0.0386667 0 0.0187556 0.0403333 0 0.0172667 0.042 0 0.0157778 0.0436667 0 0.0142889 0.0453333 0 0.0128 0.047 0 0.0113111 0.0486667 0 0.00982222 0.0503333 0 0.00833333 0.052 0 0.0337333 0.027 0 0.0320956 0.0286667 0 0.0304578 0.0303333 0 0.02882 0.032 0 0.0271822 0.0336667 0 0.0255444 0.0353333 0 0.0239067 0.037 0 0.0222689 0.0386667 0 0.0206311 0.0403333 0 0.0189933 0.042 0 0.0173556 0.0436667 0 0.0157178 0.0453333 0 0.01408 0.047 0 0.0124422 0.0486667 0 0.0108044 0.0503333 0 0.00916667 0.052 0 0.0368 0.027 0 0.0350133 0.0286667 0 0.0332267 0.0303333 0 0.03144 0.032 0 0.0296533 0.0336667 0 0.0278667 0.0353333 0 0.02608 0.037 0 0.0242933 0.0386667 0 0.0225067 0.0403333 0 0.02072 0.042 0 0.0189333 0.0436667 0 0.0171467 0.0453333 0 0.01536 0.047 0 0.0135733 0.0486667 0 0.0117867 0.0503333 0 0.01 0.052 0 0.0398667 0.027 0 0.0379311 0.0286667 0 0.0359956 0.0303333 0 0.03406 0.032 0 0.0321244 0.0336667 0 0.0301889 0.0353333 0 0.0282533 0.037 0 0.0263178 0.0386667 0 0.0243822 0.0403333 0 0.0224467 0.042 0 0.0205111 0.0436667 0 0.0185756 0.0453333 0 0.01664 0.047 0 0.0147044 0.0486667 0 0.0127689 0.0503333 0 0.0108333 0.052 0 0.0429333 0.027 0 0.0408489 0.0286667 0 0.0387644 0.0303333 0 0.03668 0.032 0 0.0345956 0.0336667 0 0.0325111 0.0353333 0 0.0304267 0.037 0 0.0283422 0.0386667 0 0.0262578 0.0403333 0 0.0241733 0.042 0 0.0220889 0.0436667 0 0.0200044 0.0453333 0 0.01792 0.047 0 0.0158356 0.0486667 0 0.0137511 0.0503333 0 0.0116667 0.052 0 0.046 0.027 0 0.0437667 0.0286667 0 0.0415333 0.0303333 0 0.0393 0.032 0 0.0370667 0.0336667 0 0.0348333 0.0353333 0 0.0326 0.037 0 0.0303667 0.0386667 0 0.0281333 0.0403333 0 0.0259 0.042 0 0.0236667 0.0436667 0 0.0214333 0.0453333 0 0.0192 0.047 0 0.0169667 0.0486667 0 0.0147333 0.0503333 0 0.0125 0.052 0 
</DataArray>
</Points> 
</Piece> 
</StructuredGrid> 
</VTKFile> 
