<?xml version="1.0"?> 
<VTKFile type="StructuredGrid" version="0.1"> 
<StructuredGrid WholeExtent="0 15 0 15 0 0"> 
<Piece Extent="0 15 0 15 0 0"> 
<PointData>
<DataArray type="Float32" Name="E" format="ascii" NumberOfComponents="3"> 
-907629 2.31001 0 -907089 -1417.04 0 -905438 -2587.52 0 -902579 -3250.1 0 -898331 -3127.25 0 -892385 -1897.37 0 -884246 731.992 0 -873191 5086.44 0 -858038 11185.8 0 -837525 18943.1 0 -809214 27177.3 0 -772491 34474.3 0 -721962 37529.9 0 -661607 32266.5 0 -568046 13754.3 0 -313237 -103006 0 -907123 1.89534 0 -906649 -982.432 0 -905202 -1706.13 0 -902701 -1896.09 0 -898987 -1244.02 0 -893789 603.695 0 -886654 4035.61 0 -876872 9452.13 0 -863335 17137.4 0 -844499 27101.3 0 -818253 38685.4 0 -782407 50380.8 0 -734329 59604.5 0 -671463 63558.9 0 -585446 59367.2 0 -442915 62607.4 0 -906777 1.94465 0 -906370 -603.532 0 -905131 -941.236 0 -902994 -727.668 0 -899830 365.61 0 -895410 2727.26 0 -889337 6814.81 0 -880953 13138.9 0 -869197 22181.5 0 -852465 34207.9 0 -828537 48913.1 0 -794780 65033.3 0 -748613 80249.9 0 -687459 92103.2 0 -607209 100299 0 -497633 118985 0 -906574 1.96158 0 -906235 -281.516 0 -905202 -295.13 0 -903431 249.693 0 -900823 1694.03 0 -897198 4453.99 0 -892228 9043.48 0 -885336 16078.7 0 -875537 26230.3 0 -861243 40057.4 0 -840107 57643.5 0 -809162 78063.5 0 -765484 99111.3 0 -706894 118158 0 -631789 134936 0 -538685 157728 0 -906494 1.93059 0 -906220 -16.6629 0 -905392 231.484 0 -903981 1034.14 0 -901925 2737.24 0 -899099 5774.12 0 -895252 10701 0 -889913 18224.9 0 -882219 29193.8 0 -870660 44477.2 0 -852828 64609.8 0 -825400 89123.6 0 -784912 115914 0 -729173 141794 0 -658197 165303 0 -574152 190841 0 -906516 1.8582 0 -906306 191.681 0 -905675 639.887 0 -904613 1627.32 0 -903095 3496.6 0 -901053 6686.46 0 -898324 11778.9 0 -894566 19549.5 0 -889073 31001.8 0 -880504 47312.7 0 -866475 69534.7 0 -843354 97823.9 0 -806858 130337 0 -754232 163109 0 -686286 192820 0 -607408 220883 0 -906620 1.78436 0 -906470 345.176 0 -906025 933.484 0 -905295 2034.69 0 -904290 3979.39 0 -902999 7199.77 0 -901358 12283.4 0 -899160 20047.9 0 -895910 31613.4 0 -890505 48442.2 0 -880757 72140.5 0 -862789 103712 0 -831367 141923 0 -782292 182074 0 -716452 218387 0 -639944 249426 0 -906783 1.57203 0 -906689 446.478 0 -906417 1118.05 0 -905994 2265.37 0 -905465 4199.73 0 -904878 7332.22 0 -904260 12238.7 0 -903560 19739.8 0 -902508 31031.8 0 -900357 47789.4 0 -895235 72186.2 0 -883381 106258 0 -858399 150004 0 -813912 198396 0 -749400 242577 0 -673012 277508 0 -906987 1.5891 0 -906943 499.348 0 -906826 1201.27 0 -906681 2333.08 0 -906582 4176.91 0 -906631 7115.01 0 -906947 11682.9 0 -907622 18682 0 -908660 29300.8 0 -909668 45367.9 0 -909428 69487.3 0 -904471 104916 0 -887904 153578 0 -849720 211356 0 -786459 265697 0 -707660 306073 0 -907209 1.01665 0 -907209 508.34 0 -907228 1193.76 0 -907325 2253.62 0 -907601 3939.52 0 -908205 6583.86 0 -909331 10681.2 0 -911231 16946.1 0 -914115 26544.7 0 -918111 41256.5 0 -922593 64047.1 0 -925300 99154.2 0 -919122 151348 0 -890839 219449 0 -829275 287688 0 -745492 336426 0 -907433 1.52957 0 -907470 479.337 0 -907603 1106.42 0 -907902 2049.78 0 -908490 3514.78 0 -909551 5796.48 0 -911358 9292.87 0 -914249 14670 0 -918734 22889.5 0 -925217 35731.8 0 -934180 55975.3 0 -944374 88832.1 0 -951008 141651 0 -937494 220025 0 -881346 307785 0 -788561 369404 0 -907640 0.0392428 0 -907706 418.155 0 -907931 955.053 0 -908389 1740.18 0 -909221 2948.09 0 -910640 4792.82 0 -912954 7634.4 0 -916637 11941.8 0 -922271 18628.2 0 -930852 29013.4 0 -943207 45885.8 0 -960655 74041 0 -980344 123395 0 -989636 208404 0 -947025 323055 0 -840091 409707 0 -907817 2.12261 0 -907906 332.76 0 -908196 750.761 0 -908770 1358.36 0 -909775 2263.08 0 -911438 3664.19 0 -914111 5749.86 0 -918288 9001.06 0 -924746 13878.2 0 -934606 21723.8 0 -949514 34231.6 0 -972106 56115.8 0 -1.00425e+06 96359.4 0 -1.04148e+06 178391 0 -1.03415e+06 326173 0 -908534 457234 0 -907952 -1.97016 0 -908054 228.551 0 -908387 516.659 0 -909033 914.879 0 -910138 1532.88 0 -911945 2415.39 0 -914791 3843.72 0 -919240 5830.48 0 -926058 9185.23 0 -936504 13920.5 0 -952849 22464.5 0 -977561 36063.6 0 -1.01959e+06 64011.4 0 -1.08023e+06 125111 0 -1.14845e+06 293399 0 -1.00213e+06 546328 0 -908037 2.87341 0 -908146 116.464 0 -908497 256.315 0 -909169 464.224 0 -910312 742.719 0 -912146 1218.54 0 -915035 1812.82 0 -919469 2936.25 0 -926279 4222.22 0 -936766 6969.26 0 -952627 10183.4 0 -979167 17569.9 0 -1.01892e+06 29533.2 0 -1.10269e+06 58392.3 0 -1.24411e+06 176617 0 -1.18761e+06 690457 0 -908068 -2.26498e-06 0 -908177 4.59841e-08 0 -908517 2.3446e-07 0 -909184 -1.84402e-07 0 -910299 1.72295e-07 0 -912049 -1.37836e-07 0 -914913 4.09782e-08 0 -918868 7.45058e-09 0 -926043 5.58794e-08 0 -934091 -1.11759e-07 0 -953196 1.56462e-07 0 -968063 -1.78814e-07 0 -1.02572e+06 1.49012e-07 0 -1.06029e+06 -4.47035e-08 0 -1.26139e+06 -8.9407e-08 0 -2.89193e+06 1.78814e-06 0 </DataArray> 
</PointData> 
<Points> 
<DataArray type="Float32" NumberOfComponents="3"> 
0.253 0 0 0.253 0.0018 0 0.253 0.0036 0 0.253 0.0054 0 0.253 0.0072 0 0.253 0.009 0 0.253 0.0108 0 0.253 0.0126 0 0.253 0.0144 0 0.253 0.0162 0 0.253 0.018 0 0.253 0.0198 0 0.253 0.0216 0 0.253 0.0234 0 0.253 0.0252 0 0.253 0.027 0 0.253733 0 0 0.253733 0.00177333 0 0.253733 0.00354667 0 0.253733 0.00532 0 0.253733 0.00709333 0 0.253733 0.00886667 0 0.253733 0.01064 0 0.253733 0.0124133 0 0.253733 0.0141867 0 0.253733 0.01596 0 0.253733 0.0177333 0 0.253733 0.0195067 0 0.253733 0.02128 0 0.253733 0.0230533 0 0.253733 0.0248267 0 0.253733 0.0266 0 0.254467 0 0 0.254467 0.00174667 0 0.254467 0.00349333 0 0.254467 0.00524 0 0.254467 0.00698667 0 0.254467 0.00873333 0 0.254467 0.01048 0 0.254467 0.0122267 0 0.254467 0.0139733 0 0.254467 0.01572 0 0.254467 0.0174667 0 0.254467 0.0192133 0 0.254467 0.02096 0 0.254467 0.0227067 0 0.254467 0.0244533 0 0.254467 0.0262 0 0.2552 0 0 0.2552 0.00172 0 0.2552 0.00344 0 0.2552 0.00516 0 0.2552 0.00688 0 0.2552 0.0086 0 0.2552 0.01032 0 0.2552 0.01204 0 0.2552 0.01376 0 0.2552 0.01548 0 0.2552 0.0172 0 0.2552 0.01892 0 0.2552 0.02064 0 0.2552 0.02236 0 0.2552 0.02408 0 0.2552 0.0258 0 0.255933 0 0 0.255933 0.00169333 0 0.255933 0.00338667 0 0.255933 0.00508 0 0.255933 0.00677333 0 0.255933 0.00846667 0 0.255933 0.01016 0 0.255933 0.0118533 0 0.255933 0.0135467 0 0.255933 0.01524 0 0.255933 0.0169333 0 0.255933 0.0186267 0 0.255933 0.02032 0 0.255933 0.0220133 0 0.255933 0.0237067 0 0.255933 0.0254 0 0.256667 0 0 0.256667 0.00166667 0 0.256667 0.00333333 0 0.256667 0.005 0 0.256667 0.00666667 0 0.256667 0.00833333 0 0.256667 0.01 0 0.256667 0.0116667 0 0.256667 0.0133333 0 0.256667 0.015 0 0.256667 0.0166667 0 0.256667 0.0183333 0 0.256667 0.02 0 0.256667 0.0216667 0 0.256667 0.0233333 0 0.256667 0.025 0 0.2574 0 0 0.2574 0.00164 0 0.2574 0.00328 0 0.2574 0.00492 0 0.2574 0.00656 0 0.2574 0.0082 0 0.2574 0.00984 0 0.2574 0.01148 0 0.2574 0.01312 0 0.2574 0.01476 0 0.2574 0.0164 0 0.2574 0.01804 0 0.2574 0.01968 0 0.2574 0.02132 0 0.2574 0.02296 0 0.2574 0.0246 0 0.258133 0 0 0.258133 0.00161333 0 0.258133 0.00322667 0 0.258133 0.00484 0 0.258133 0.00645333 0 0.258133 0.00806667 0 0.258133 0.00968 0 0.258133 0.0112933 0 0.258133 0.0129067 0 0.258133 0.01452 0 0.258133 0.0161333 0 0.258133 0.0177467 0 0.258133 0.01936 0 0.258133 0.0209733 0 0.258133 0.0225867 0 0.258133 0.0242 0 0.258867 0 0 0.258867 0.00158667 0 0.258867 0.00317333 0 0.258867 0.00476 0 0.258867 0.00634667 0 0.258867 0.00793333 0 0.258867 0.00952 0 0.258867 0.0111067 0 0.258867 0.0126933 0 0.258867 0.01428 0 0.258867 0.0158667 0 0.258867 0.0174533 0 0.258867 0.01904 0 0.258867 0.0206267 0 0.258867 0.0222133 0 0.258867 0.0238 0 0.2596 0 0 0.2596 0.00156 0 0.2596 0.00312 0 0.2596 0.00468 0 0.2596 0.00624 0 0.2596 0.0078 0 0.2596 0.00936 0 0.2596 0.01092 0 0.2596 0.01248 0 0.2596 0.01404 0 0.2596 0.0156 0 0.2596 0.01716 0 0.2596 0.01872 0 0.2596 0.02028 0 0.2596 0.02184 0 0.2596 0.0234 0 0.260333 0 0 0.260333 0.00153333 0 0.260333 0.00306667 0 0.260333 0.0046 0 0.260333 0.00613333 0 0.260333 0.00766667 0 0.260333 0.0092 0 0.260333 0.0107333 0 0.260333 0.0122667 0 0.260333 0.0138 0 0.260333 0.0153333 0 0.260333 0.0168667 0 0.260333 0.0184 0 0.260333 0.0199333 0 0.260333 0.0214667 0 0.260333 0.023 0 0.261067 0 0 0.261067 0.00150667 0 0.261067 0.00301333 0 0.261067 0.00452 0 0.261067 0.00602667 0 0.261067 0.00753333 0 0.261067 0.00904 0 0.261067 0.0105467 0 0.261067 0.0120533 0 0.261067 0.01356 0 0.261067 0.0150667 0 0.261067 0.0165733 0 0.261067 0.01808 0 0.261067 0.0195867 0 0.261067 0.0210933 0 0.261067 0.0226 0 0.2618 0 0 0.2618 0.00148 0 0.2618 0.00296 0 0.2618 0.00444 0 0.2618 0.00592 0 0.2618 0.0074 0 0.2618 0.00888 0 0.2618 0.01036 0 0.2618 0.01184 0 0.2618 0.01332 0 0.2618 0.0148 0 0.2618 0.01628 0 0.2618 0.01776 0 0.2618 0.01924 0 0.2618 0.02072 0 0.2618 0.0222 0 0.262533 0 0 0.262533 0.00145333 0 0.262533 0.00290667 0 0.262533 0.00436 0 0.262533 0.00581333 0 0.262533 0.00726667 0 0.262533 0.00872 0 0.262533 0.0101733 0 0.262533 0.0116267 0 0.262533 0.01308 0 0.262533 0.0145333 0 0.262533 0.0159867 0 0.262533 0.01744 0 0.262533 0.0188933 0 0.262533 0.0203467 0 0.262533 0.0218 0 0.263267 0 0 0.263267 0.00142667 0 0.263267 0.00285333 0 0.263267 0.00428 0 0.263267 0.00570667 0 0.263267 0.00713333 0 0.263267 0.00856 0 0.263267 0.00998667 0 0.263267 0.0114133 0 0.263267 0.01284 0 0.263267 0.0142667 0 0.263267 0.0156933 0 0.263267 0.01712 0 0.263267 0.0185467 0 0.263267 0.0199733 0 0.263267 0.0214 0 0.264 0 0 0.264 0.0014 0 0.264 0.0028 0 0.264 0.0042 0 0.264 0.0056 0 0.264 0.007 0 0.264 0.0084 0 0.264 0.0098 0 0.264 0.0112 0 0.264 0.0126 0 0.264 0.014 0 0.264 0.0154 0 0.264 0.0168 0 0.264 0.0182 0 0.264 0.0196 0 0.264 0.021 0 
</DataArray>
</Points> 
</Piece> 
</StructuredGrid> 
</VTKFile> 
