<?xml version="1.0"?> 
<VTKFile type="StructuredGrid" version="0.1"> 
<StructuredGrid WholeExtent="0 15 0 15 0 0"> 
<Piece Extent="0 15 0 15 0 0"> 
<PointData>
<DataArray type="Float32" Name="E" format="ascii" NumberOfComponents="3"> 
2.94257e+06 -1.16538e+06 0 2.95458e+06 -1.17013e+06 0 2.9664e+06 -1.17481e+06 0 2.97803e+06 -1.17942e+06 0 2.98947e+06 -1.18395e+06 0 3.0007e+06 -1.18839e+06 0 3.0117e+06 -1.19275e+06 0 3.02245e+06 -1.19701e+06 0 3.03295e+06 -1.20117e+06 0 3.04315e+06 -1.20521e+06 0 3.05304e+06 -1.20913e+06 0 3.06258e+06 -1.2129e+06 0 3.07174e+06 -1.21653e+06 0 3.08047e+06 -1.21999e+06 0 3.08872e+06 -1.22326e+06 0 3.09645e+06 -1.22632e+06 0 3.25073e+06 -915910 0 3.26168e+06 -921459 0 3.27269e+06 -926941 0 3.28376e+06 -932356 0 3.29488e+06 -937704 0 3.30608e+06 -942981 0 3.31734e+06 -948186 0 3.32868e+06 -953314 0 3.3401e+06 -958359 0 3.35161e+06 -963317 0 3.36321e+06 -968179 0 3.37491e+06 -972936 0 3.38672e+06 -977577 0 3.39865e+06 -982088 0 3.4107e+06 -986454 0 3.42289e+06 -990658 0 3.4964e+06 -678427 0 3.50588e+06 -681632 0 3.51543e+06 -684760 0 3.52504e+06 -687811 0 3.5347e+06 -690786 0 3.54444e+06 -693687 0 3.55423e+06 -696516 0 3.56409e+06 -699276 0 3.574e+06 -701971 0 3.58399e+06 -704604 0 3.59403e+06 -707182 0 3.60414e+06 -709710 0 3.61431e+06 -712198 0 3.62454e+06 -714654 0 3.63484e+06 -717090 0 3.6452e+06 -719519 0 3.64885e+06 -458350 0 3.65646e+06 -459343 0 3.66411e+06 -460245 0 3.67181e+06 -461055 0 3.67955e+06 -461771 0 3.68734e+06 -462391 0 3.69517e+06 -462911 0 3.70304e+06 -463330 0 3.71095e+06 -463642 0 3.71891e+06 -463844 0 3.7269e+06 -463930 0 3.73493e+06 -463895 0 3.743e+06 -463731 0 3.7511e+06 -463431 0 3.75924e+06 -462985 0 3.76741e+06 -462383 0 3.71945e+06 -271977 0 3.725e+06 -271356 0 3.73057e+06 -270655 0 3.73616e+06 -269874 0 3.74177e+06 -269012 0 3.74739e+06 -268070 0 3.75303e+06 -267047 0 3.75869e+06 -265946 0 3.76436e+06 -264766 0 3.77006e+06 -263509 0 3.77576e+06 -262176 0 3.78149e+06 -260770 0 3.78723e+06 -259294 0 3.79299e+06 -257751 0 3.79877e+06 -256145 0 3.80456e+06 -254483 0 3.73066e+06 -131881 0 3.73423e+06 -130374 0 3.7378e+06 -128804 0 3.74138e+06 -127167 0 3.74496e+06 -125464 0 3.74854e+06 -123693 0 3.75212e+06 -121852 0 3.7557e+06 -119940 0 3.75928e+06 -117956 0 3.76286e+06 -115898 0 3.76643e+06 -113764 0 3.76999e+06 -111552 0 3.77355e+06 -109259 0 3.77709e+06 -106883 0 3.78063e+06 -104420 0 3.78414e+06 -101866 0 3.70576e+06 -39749.2 0 3.70768e+06 -37992.8 0 3.70957e+06 -36174.1 0 3.71145e+06 -34294.7 0 3.71331e+06 -32356.1 0 3.71516e+06 -30359.6 0 3.71698e+06 -28306.2 0 3.7188e+06 -26196.7 0 3.72059e+06 -24031.9 0 3.72237e+06 -21812.7 0 3.72414e+06 -19539.8 0 3.72588e+06 -17214 0 3.72762e+06 -14836.2 0 3.72934e+06 -12407.5 0 3.73104e+06 -9929.06 0 3.73273e+06 -7402.38 0 3.66485e+06 7158.1 0 3.66532e+06 8948.02 0 3.66578e+06 10752.6 0 3.66624e+06 12576.6 0 3.66668e+06 14423.9 0 3.66711e+06 16297.9 0 3.66753e+06 18201.2 0 3.66792e+06 20136 0 3.66829e+06 22104.2 0 3.66864e+06 24107.1 0 3.66897e+06 26146 0 3.66927e+06 28221.8 0 3.66954e+06 30335.2 0 3.66978e+06 32486.9 0 3.66999e+06 34677.3 0 3.67017e+06 36906.8 0 3.622e+06 17487.4 0 3.62152e+06 18488.6 0 3.62099e+06 19571.2 0 3.62041e+06 20726.1 0 3.61978e+06 21945.7 0 3.61911e+06 23224 0 3.6184e+06 24556.2 0 3.61766e+06 25938.7 0 3.61688e+06 27368.6 0 3.61607e+06 28844.2 0 3.61523e+06 30364.1 0 3.61436e+06 31928 0 3.61345e+06 33535.8 0 3.61252e+06 35188.4 0 3.61157e+06 36886.9 0 3.61058e+06 38633.2 0 3.59146e+06 -8730.4 0 3.58986e+06 -7744.86 0 3.58827e+06 -6844.47 0 3.58666e+06 -6010.67 0 3.58505e+06 -5228.04 0 3.58341e+06 -4484.07 0 3.58175e+06 -3768.77 0 3.58006e+06 -3074.32 0 3.57834e+06 -2394.85 0 3.57657e+06 -1726.2 0 3.57477e+06 -1065.8 0 3.57293e+06 -412.576 0 3.57104e+06 233.15 0 3.5691e+06 869.626 0 3.56711e+06 1493.65 0 3.56506e+06 2100.59 0 3.58275e+06 -55502.4 0 3.58076e+06 -57182.3 0 3.57864e+06 -58643.5 0 3.57642e+06 -59918.7 0 3.57411e+06 -61034.8 0 3.57171e+06 -62013.4 0 3.56923e+06 -62871.2 0 3.56667e+06 -63620.8 0 3.56404e+06 -64271.2 0 3.56135e+06 -64828 0 3.5586e+06 -65293.6 0 3.55579e+06 -65667.3 0 3.55292e+06 -65945.7 0 3.55e+06 -66122.1 0 3.54703e+06 -66187 0 3.54402e+06 -66127.5 0 3.61825e+06 -146824 0 3.6149e+06 -147607 0 3.61154e+06 -148745 0 3.60816e+06 -150178 0 3.60473e+06 -151855 0 3.60124e+06 -153735 0 3.5977e+06 -155786 0 3.59409e+06 -157981 0 3.59041e+06 -160305 0 3.58664e+06 -162744 0 3.5828e+06 -165294 0 3.57886e+06 -167954 0 3.57484e+06 -170730 0 3.57073e+06 -173635 0 3.56652e+06 -176687 0 3.56221e+06 -179910 0 3.71922e+06 -243352 0 3.71508e+06 -252523 0 3.71073e+06 -260988 0 3.70618e+06 -268846 0 3.70143e+06 -276178 0 3.69651e+06 -283048 0 3.69141e+06 -289508 0 3.68615e+06 -295594 0 3.68072e+06 -301329 0 3.67513e+06 -306729 0 3.66939e+06 -311794 0 3.66348e+06 -316516 0 3.65742e+06 -320876 0 3.6512e+06 -324844 0 3.64482e+06 -328375 0 3.63828e+06 -331415 0 3.92838e+06 -460391 0 3.92155e+06 -465072 0 3.91445e+06 -470757 0 3.90711e+06 -477286 0 3.89954e+06 -484526 0 3.89177e+06 -492373 0 3.8838e+06 -500744 0 3.87566e+06 -509581 0 3.86736e+06 -518845 0 3.85892e+06 -528514 0 3.85035e+06 -538587 0 3.84168e+06 -549079 0 3.83293e+06 -560024 0 3.82413e+06 -571478 0 3.8153e+06 -583514 0 3.80648e+06 -596230 0 4.24235e+06 -672244 0 4.22915e+06 -687490 0 4.21767e+06 -701817 0 4.20764e+06 -715514 0 4.19879e+06 -728828 0 4.19086e+06 -741963 0 4.1836e+06 -755080 0 4.1768e+06 -768309 0 4.17019e+06 -781742 0 4.16355e+06 -795442 0 4.15663e+06 -809438 0 4.14918e+06 -823729 0 4.14091e+06 -838280 0 4.13154e+06 -853022 0 4.12075e+06 -867847 0 4.1082e+06 -882610 0 3.63411e+06 3.72529e-09 0 3.76103e+06 1.5516e-09 0 3.88019e+06 1.67347e-10 0 3.99317e+06 -1.23691e-09 0 4.10144e+06 -3.95812e-09 0 4.20636e+06 2.61934e-09 0 4.30923e+06 -5.82077e-11 0 4.4113e+06 -1.28057e-09 0 4.51378e+06 1.5134e-09 0 4.6179e+06 -9.31323e-10 0 4.7249e+06 -1.16415e-09 0 4.83607e+06 1.62981e-09 0 4.95274e+06 -6.98492e-10 0 5.07636e+06 2.32831e-10 0 5.2085e+06 -1.39698e-09 0 5.35086e+06 2.23517e-08 0 </DataArray> 
</PointData> 
<Points> 
<DataArray type="Float32" NumberOfComponents="3"> 
0.31051 0.0175 0 0.310576 0.0176667 0 0.310642 0.0178333 0 0.310708 0.018 0 0.310774 0.0181667 0 0.31084 0.0183333 0 0.310906 0.0185 0 0.310972 0.0186667 0 0.311038 0.0188333 0 0.311104 0.019 0 0.31117 0.0191667 0 0.311236 0.0193333 0 0.311302 0.0195 0 0.311368 0.0196667 0 0.311434 0.0198333 0 0.3115 0.02 0 0.316009 0.0178 0 0.316071 0.0179689 0 0.316132 0.0181378 0 0.316194 0.0183067 0 0.316256 0.0184756 0 0.316317 0.0186444 0 0.316379 0.0188133 0 0.31644 0.0189822 0 0.316502 0.0191511 0 0.316564 0.01932 0 0.316625 0.0194889 0 0.316687 0.0196578 0 0.316749 0.0198267 0 0.31681 0.0199956 0 0.316872 0.0201644 0 0.316933 0.0203333 0 0.321509 0.0181 0 0.321566 0.0182711 0 0.321623 0.0184422 0 0.32168 0.0186133 0 0.321737 0.0187844 0 0.321795 0.0189556 0 0.321852 0.0191267 0 0.321909 0.0192978 0 0.321966 0.0194689 0 0.322023 0.01964 0 0.322081 0.0198111 0 0.322138 0.0199822 0 0.322195 0.0201533 0 0.322252 0.0203244 0 0.322309 0.0204956 0 0.322367 0.0206667 0 0.327008 0.0184 0 0.327061 0.0185733 0 0.327114 0.0187467 0 0.327166 0.01892 0 0.327219 0.0190933 0 0.327272 0.0192667 0 0.327325 0.01944 0 0.327378 0.0196133 0 0.32743 0.0197867 0 0.327483 0.01996 0 0.327536 0.0201333 0 0.327589 0.0203067 0 0.327642 0.02048 0 0.327694 0.0206533 0 0.327747 0.0208267 0 0.3278 0.021 0 0.332507 0.0187 0 0.332556 0.0188756 0 0.332604 0.0190511 0 0.332652 0.0192267 0 0.332701 0.0194022 0 0.332749 0.0195778 0 0.332798 0.0197533 0 0.332846 0.0199289 0 0.332894 0.0201044 0 0.332943 0.02028 0 0.332991 0.0204556 0 0.33304 0.0206311 0 0.333088 0.0208067 0 0.333137 0.0209822 0 0.333185 0.0211578 0 0.333233 0.0213333 0 0.338007 0.019 0 0.338051 0.0191778 0 0.338095 0.0193556 0 0.338139 0.0195333 0 0.338183 0.0197111 0 0.338227 0.0198889 0 0.338271 0.0200667 0 0.338315 0.0202444 0 0.338359 0.0204222 0 0.338403 0.0206 0 0.338447 0.0207778 0 0.338491 0.0209556 0 0.338535 0.0211333 0 0.338579 0.0213111 0 0.338623 0.0214889 0 0.338667 0.0216667 0 0.343506 0.0193 0 0.343546 0.01948 0 0.343585 0.01966 0 0.343625 0.01984 0 0.343664 0.02002 0 0.343704 0.0202 0 0.343744 0.02038 0 0.343783 0.02056 0 0.343823 0.02074 0 0.343862 0.02092 0 0.343902 0.0211 0 0.343942 0.02128 0 0.343981 0.02146 0 0.344021 0.02164 0 0.34406 0.02182 0 0.3441 0.022 0 0.349005 0.0196 0 0.34904 0.0197822 0 0.349076 0.0199644 0 0.349111 0.0201467 0 0.349146 0.0203289 0 0.349181 0.0205111 0 0.349217 0.0206933 0 0.349252 0.0208756 0 0.349287 0.0210578 0 0.349322 0.02124 0 0.349357 0.0214222 0 0.349393 0.0216044 0 0.349428 0.0217867 0 0.349463 0.0219689 0 0.349498 0.0221511 0 0.349533 0.0223333 0 0.354505 0.0199 0 0.354535 0.0200844 0 0.354566 0.0202689 0 0.354597 0.0204533 0 0.354628 0.0206378 0 0.354659 0.0208222 0 0.354689 0.0210067 0 0.35472 0.0211911 0 0.354751 0.0213756 0 0.354782 0.02156 0 0.354813 0.0217444 0 0.354843 0.0219289 0 0.354874 0.0221133 0 0.354905 0.0222978 0 0.354936 0.0224822 0 0.354967 0.0226667 0 0.360004 0.0202 0 0.36003 0.0203867 0 0.360057 0.0205733 0 0.360083 0.02076 0 0.36011 0.0209467 0 0.360136 0.0211333 0 0.360162 0.02132 0 0.360189 0.0215067 0 0.360215 0.0216933 0 0.360242 0.02188 0 0.360268 0.0220667 0 0.360294 0.0222533 0 0.360321 0.02244 0 0.360347 0.0226267 0 0.360374 0.0228133 0 0.3604 0.023 0 0.365503 0.0205 0 0.365525 0.0206889 0 0.365547 0.0208778 0 0.365569 0.0210667 0 0.365591 0.0212556 0 0.365613 0.0214444 0 0.365635 0.0216333 0 0.365657 0.0218222 0 0.365679 0.0220111 0 0.365701 0.0222 0 0.365723 0.0223889 0 0.365745 0.0225778 0 0.365767 0.0227667 0 0.365789 0.0229556 0 0.365811 0.0231444 0 0.365833 0.0233333 0 0.371003 0.0208 0 0.37102 0.0209911 0 0.371038 0.0211822 0 0.371055 0.0213733 0 0.371073 0.0215644 0 0.371091 0.0217556 0 0.371108 0.0219467 0 0.371126 0.0221378 0 0.371143 0.0223289 0 0.371161 0.02252 0 0.371179 0.0227111 0 0.371196 0.0229022 0 0.371214 0.0230933 0 0.371231 0.0232844 0 0.371249 0.0234756 0 0.371267 0.0236667 0 0.376502 0.0211 0 0.376515 0.0212933 0 0.376528 0.0214867 0 0.376542 0.02168 0 0.376555 0.0218733 0 0.376568 0.0220667 0 0.376581 0.02226 0 0.376594 0.0224533 0 0.376608 0.0226467 0 0.376621 0.02284 0 0.376634 0.0230333 0 0.376647 0.0232267 0 0.37666 0.02342 0 0.376674 0.0236133 0 0.376687 0.0238067 0 0.3767 0.024 0 0.382001 0.0214 0 0.38201 0.0215956 0 0.382019 0.0217911 0 0.382028 0.0219867 0 0.382037 0.0221822 0 0.382045 0.0223778 0 0.382054 0.0225733 0 0.382063 0.0227689 0 0.382072 0.0229644 0 0.382081 0.02316 0 0.382089 0.0233556 0 0.382098 0.0235511 0 0.382107 0.0237467 0 0.382116 0.0239422 0 0.382125 0.0241378 0 0.382133 0.0243333 0 0.387501 0.0217 0 0.387505 0.0218978 0 0.387509 0.0220956 0 0.387514 0.0222933 0 0.387518 0.0224911 0 0.387523 0.0226889 0 0.387527 0.0228867 0 0.387531 0.0230844 0 0.387536 0.0232822 0 0.38754 0.02348 0 0.387545 0.0236778 0 0.387549 0.0238756 0 0.387553 0.0240733 0 0.387558 0.0242711 0 0.387562 0.0244689 0 0.387567 0.0246667 0 0.393 0.022 0 0.393 0.0222 0 0.393 0.0224 0 0.393 0.0226 0 0.393 0.0228 0 0.393 0.023 0 0.393 0.0232 0 0.393 0.0234 0 0.393 0.0236 0 0.393 0.0238 0 0.393 0.024 0 0.393 0.0242 0 0.393 0.0244 0 0.393 0.0246 0 0.393 0.0248 0 0.393 0.025 0 
</DataArray>
</Points> 
</Piece> 
</StructuredGrid> 
</VTKFile> 
