<?xml version="1.0"?> 
<VTKFile type="StructuredGrid" version="0.1"> 
<StructuredGrid WholeExtent="0 15 0 15 0 0"> 
<Piece Extent="0 15 0 15 0 0"> 
<PointData>
<DataArray type="Float32" Name="E" format="ascii" NumberOfComponents="3"> 
2.61418e+06 1.90735e-06 0 2.61342e+06 -3.15718e-07 0 2.61111e+06 1.63913e-07 0 2.60721e+06 -2.6077e-07 0 2.60166e+06 4.17233e-07 0 2.59432e+06 -8.9407e-08 0 2.58507e+06 1.49012e-08 0 2.57369e+06 2.23517e-07 0 2.55993e+06 -1.78814e-07 0 2.54347e+06 2.98023e-08 0 2.5239e+06 -3.57628e-07 0 2.50069e+06 4.17233e-07 0 2.47321e+06 -2.38419e-07 0 2.44063e+06 0 0 2.40192e+06 -3.57628e-07 0 2.35581e+06 2.86102e-06 0 2.76909e+06 -0.409179 0 2.76894e+06 -14979.6 0 2.76849e+06 -30012.7 0 2.76776e+06 -45151.4 0 2.76676e+06 -60446.5 0 2.76551e+06 -75945.8 0 2.76404e+06 -91692.8 0 2.7624e+06 -107725 0 2.76065e+06 -124071 0 2.75884e+06 -140747 0 2.75705e+06 -157754 0 2.7554e+06 -175070 0 2.75399e+06 -192642 0 2.75298e+06 -210377 0 2.75254e+06 -228127 0 2.7529e+06 -245674 0 3.01776e+06 -0.10609 0 3.01785e+06 -15980.7 0 3.01812e+06 -31975.5 0 3.01857e+06 -47998.6 0 3.01921e+06 -64065 0 3.02003e+06 -80190.7 0 3.02105e+06 -96393.4 0 3.02228e+06 -112694 0 3.02371e+06 -129116 0 3.02536e+06 -145690 0 3.02723e+06 -162455 0 3.02933e+06 -179460 0 3.03168e+06 -196771 0 3.03427e+06 -214479 0 3.03712e+06 -232703 0 3.04024e+06 -251606 0 3.23316e+06 -0.0045204 0 3.2333e+06 -13343.7 0 3.23374e+06 -26687.8 0 3.23448e+06 -40032.6 0 3.23552e+06 -53377.6 0 3.23685e+06 -66721.6 0 3.23848e+06 -80061.7 0 3.24042e+06 -93393 0 3.24267e+06 -106708 0 3.24522e+06 -119994 0 3.24809e+06 -133235 0 3.25128e+06 -146405 0 3.25478e+06 -159469 0 3.2586e+06 -172376 0 3.26272e+06 -185057 0 3.26714e+06 -197417 0 3.39199e+06 0.031382 0 3.39214e+06 -9816.76 0 3.39259e+06 -19629.4 0 3.39334e+06 -29434.1 0 3.39439e+06 -39226.9 0 3.39575e+06 -49004.5 0 3.39741e+06 -58764 0 3.39937e+06 -68503.5 0 3.40163e+06 -78222.2 0 3.40421e+06 -87921.3 0 3.40709e+06 -97604.6 0 3.41028e+06 -107280 0 3.4138e+06 -116959 0 3.41764e+06 -126663 0 3.42182e+06 -136421 0 3.42637e+06 -146275 0 3.49788e+06 0.0470382 0 3.49801e+06 -6575.97 0 3.49841e+06 -13145.7 0 3.49907e+06 -19703.1 0 3.5e+06 -26241.6 0 3.5012e+06 -32754.6 0 3.50267e+06 -39235.3 0 3.5044e+06 -45676.1 0 3.50639e+06 -52068.8 0 3.50866e+06 -58404.1 0 3.51119e+06 -64671.2 0 3.514e+06 -70857.6 0 3.51706e+06 -76948.4 0 3.52039e+06 -82926.4 0 3.52396e+06 -88772.3 0 3.52777e+06 -94466.2 0 3.5618e+06 0.0595792 0 3.5619e+06 -3937.9 0 3.56221e+06 -7867.98 0 3.56271e+06 -11782.5 0 3.56342e+06 -15673.8 0 3.56433e+06 -19534.2 0 3.56545e+06 -23356.3 0 3.56676e+06 -27133 0 3.56828e+06 -30857.5 0 3.56999e+06 -34523.6 0 3.57191e+06 -38125.5 0 3.57402e+06 -41657.9 0 3.57634e+06 -45114.3 0 3.57886e+06 -48485.3 0 3.5816e+06 -51752.2 0 3.58458e+06 -54879.7 0 3.59663e+06 0.0537237 0 3.5967e+06 -2145.9 0 3.59689e+06 -4284.71 0 3.59721e+06 -6409.35 0 3.59766e+06 -8512.58 0 3.59824e+06 -10587 0 3.59895e+06 -12624.9 0 3.59978e+06 -14618 0 3.60073e+06 -16557.7 0 3.60181e+06 -18434.7 0 3.60302e+06 -20239.5 0 3.60434e+06 -21963.8 0 3.60579e+06 -23604 0 3.60735e+06 -25168.6 0 3.60901e+06 -26694.7 0 3.61071e+06 -28269.9 0 3.61431e+06 0.0521894 0 3.61434e+06 -1137.53 0 3.61444e+06 -2268.25 0 3.6146e+06 -3385.47 0 3.61483e+06 -4482.65 0 3.61512e+06 -5553.57 0 3.61547e+06 -6592.54 0 3.61589e+06 -7594.63 0 3.61636e+06 -8555.8 0 3.61689e+06 -9472.78 0 3.61748e+06 -10342 0 3.61811e+06 -11156.2 0 3.61879e+06 -11896.3 0 3.61951e+06 -12512.5 0 3.62031e+06 -12887.2 0 3.62124e+06 -12782.4 0 3.62419e+06 -0.00306562 0 3.6242e+06 -807.939 0 3.62422e+06 -1616.14 0 3.62427e+06 -2424.57 0 3.62432e+06 -3232.58 0 3.62439e+06 -4038.51 0 3.62446e+06 -4839.07 0 3.62454e+06 -5628.86 0 3.62461e+06 -6399.81 0 3.62467e+06 -7141.52 0 3.62472e+06 -7843.45 0 3.62475e+06 -8502.16 0 3.62476e+06 -9139.25 0 3.62472e+06 -9841.35 0 3.62461e+06 -10842.2 0 3.62431e+06 -12634.9 0 3.63082e+06 -0.0723366 0 3.63086e+06 -395.386 0 3.63098e+06 -800.482 0 3.63117e+06 -1225.32 0 3.63144e+06 -1680.83 0 3.63177e+06 -2179.51 0 3.63216e+06 -2736.31 0 3.63261e+06 -3369.76 0 3.6331e+06 -4102.78 0 3.63361e+06 -4962 0 3.63413e+06 -5973.17 0 3.63465e+06 -7146.23 0 3.63514e+06 -8438.42 0 3.63559e+06 -9672.03 0 3.63603e+06 -10365.6 0 3.63656e+06 -9502.62 0 3.62862e+06 -0.412132 0 3.6288e+06 1198.34 0 3.62931e+06 2343.45 0 3.63016e+06 3384.35 0 3.63133e+06 4273.87 0 3.63278e+06 4971.45 0 3.6345e+06 5446.04 0 3.63644e+06 5679.3 0 3.63857e+06 5668.4 0 3.64084e+06 5425.76 0 3.6432e+06 4971.03 0 3.64559e+06 4302.61 0 3.64797e+06 3326.03 0 3.65026e+06 1692.53 0 3.65237e+06 -1532.92 0 3.65416e+06 -8327.43 0 3.58963e+06 -1.25636 0 3.5903e+06 8646.17 0 3.59233e+06 17126.6 0 3.59567e+06 25275.3 0 3.60029e+06 32922.9 0 3.60613e+06 39894.8 0 3.61312e+06 46008.5 0 3.62117e+06 51069.3 0 3.63018e+06 54868.3 0 3.64005e+06 57185 0 3.65066e+06 57805.2 0 3.66188e+06 56576.5 0 3.6736e+06 53545.4 0 3.68565e+06 49263.1 0 3.69784e+06 45411.3 0 3.70986e+06 45662.6 0 3.42677e+06 -3.10287 0 3.42883e+06 31371.2 0 3.43499e+06 62335.2 0 3.44522e+06 92487.7 0 3.45944e+06 121425 0 3.47756e+06 148749 0 3.49942e+06 174075 0 3.52478e+06 197041 0 3.55334e+06 217319 0 3.58466e+06 234622 0 3.6182e+06 248690 0 3.65324e+06 259216 0 3.68897e+06 265637 0 3.72456e+06 266646 0 3.75944e+06 259144 0 3.79381e+06 236796 0 2.93468e+06 -0.688575 0 2.93856e+06 87148.7 0 2.9503e+06 174190 0 2.97018e+06 260977 0 2.99866e+06 347278 0 3.03641e+06 432727 0 3.08434e+06 516761 0 3.14356e+06 598543 0 3.21548e+06 676870 0 3.30171e+06 750064 0 3.40405e+06 815873 0 3.52426e+06 871400 0 3.66363e+06 913170 0 3.82203e+06 937492 0 3.99597e+06 941444 0 4.17505e+06 924631 0 1.93521e+06 13.7814 0 1.93529e+06 139747 0 1.93553e+06 281338 0 1.93599e+06 426710 0 1.93679e+06 578024 0 1.93815e+06 737804 0 1.94051e+06 909133 0 1.94472e+06 1.09594e+06 0 1.95234e+06 1.30347e+06 0 1.96639e+06 1.53899e+06 0 1.99256e+06 1.81304e+06 0 2.04167e+06 2.1417e+06 0 2.13442e+06 2.55048e+06 0 2.31045e+06 3.08138e+06 0 2.64512e+06 3.80449e+06 0 3.27921e+06 4.82409e+06 0 </DataArray> 
</PointData> 
<Points> 
<DataArray type="Float32" NumberOfComponents="3"> 
0.307 0 0 0.307 0.000333333 0 0.307 0.000666667 0 0.307 0.001 0 0.307 0.00133333 0 0.307 0.00166667 0 0.307 0.002 0 0.307 0.00233333 0 0.307 0.00266667 0 0.307 0.003 0 0.307 0.00333333 0 0.307 0.00366667 0 0.307 0.004 0 0.307 0.00433333 0 0.307 0.00466667 0 0.307 0.005 0 0.312716 0 0 0.312716 0.000357358 0 0.312716 0.000714716 0 0.312716 0.00107207 0 0.312716 0.00142943 0 0.312716 0.00178679 0 0.312716 0.00214415 0 0.312716 0.00250151 0 0.312716 0.00285886 0 0.312716 0.00321622 0 0.312716 0.00357358 0 0.312716 0.00393094 0 0.312716 0.0042883 0 0.312716 0.00464565 0 0.312716 0.00500301 0 0.312716 0.00536037 0 0.318432 0 0 0.318432 0.000381383 0 0.318432 0.000762766 0 0.318432 0.00114415 0 0.318432 0.00152553 0 0.318432 0.00190691 0 0.318432 0.0022883 0 0.318432 0.00266968 0 0.318432 0.00305106 0 0.318432 0.00343245 0 0.318432 0.00381383 0 0.318432 0.00419521 0 0.318432 0.00457659 0 0.318432 0.00495798 0 0.318432 0.00533936 0 0.318432 0.00572074 0 0.324148 0 0 0.324148 0.000405408 0 0.324148 0.000810815 0 0.324148 0.00121622 0 0.324148 0.00162163 0 0.324148 0.00202704 0 0.324148 0.00243245 0 0.324148 0.00283785 0 0.324148 0.00324326 0 0.324148 0.00364867 0 0.324148 0.00405408 0 0.324148 0.00445948 0 0.324148 0.00486489 0 0.324148 0.0052703 0 0.324148 0.00567571 0 0.324148 0.00608111 0 0.329863 0 0 0.329863 0.000429432 0 0.329863 0.000858865 0 0.329863 0.0012883 0 0.329863 0.00171773 0 0.329863 0.00214716 0 0.329863 0.00257659 0 0.329863 0.00300603 0 0.329863 0.00343546 0 0.329863 0.00386489 0 0.329863 0.00429432 0 0.329863 0.00472376 0 0.329863 0.00515319 0 0.329863 0.00558262 0 0.329863 0.00601205 0 0.329863 0.00644148 0 0.335579 0 0 0.335579 0.000453457 0 0.335579 0.000906914 0 0.335579 0.00136037 0 0.335579 0.00181383 0 0.335579 0.00226729 0 0.335579 0.00272074 0 0.335579 0.0031742 0 0.335579 0.00362766 0 0.335579 0.00408111 0 0.335579 0.00453457 0 0.335579 0.00498803 0 0.335579 0.00544148 0 0.335579 0.00589494 0 0.335579 0.0063484 0 0.335579 0.00680186 0 0.341295 0 0 0.341295 0.000477482 0 0.341295 0.000954964 0 0.341295 0.00143245 0 0.341295 0.00190993 0 0.341295 0.00238741 0 0.341295 0.00286489 0 0.341295 0.00334237 0 0.341295 0.00381985 0 0.341295 0.00429734 0 0.341295 0.00477482 0 0.341295 0.0052523 0 0.341295 0.00572978 0 0.341295 0.00620726 0 0.341295 0.00668474 0 0.341295 0.00716223 0 0.347011 0 0 0.347011 0.000501506 0 0.347011 0.00100301 0 0.347011 0.00150452 0 0.347011 0.00200603 0 0.347011 0.00250753 0 0.347011 0.00300904 0 0.347011 0.00351055 0 0.347011 0.00401205 0 0.347011 0.00451356 0 0.347011 0.00501506 0 0.347011 0.00551657 0 0.347011 0.00601808 0 0.347011 0.00651958 0 0.347011 0.00702109 0 0.347011 0.0075226 0 0.352727 0 0 0.352727 0.000525531 0 0.352727 0.00105106 0 0.352727 0.00157659 0 0.352727 0.00210212 0 0.352727 0.00262766 0 0.352727 0.00315319 0 0.352727 0.00367872 0 0.352727 0.00420425 0 0.352727 0.00472978 0 0.352727 0.00525531 0 0.352727 0.00578084 0 0.352727 0.00630637 0 0.352727 0.00683191 0 0.352727 0.00735744 0 0.352727 0.00788297 0 0.358443 0 0 0.358443 0.000549556 0 0.358443 0.00109911 0 0.358443 0.00164867 0 0.358443 0.00219822 0 0.358443 0.00274778 0 0.358443 0.00329734 0 0.358443 0.00384689 0 0.358443 0.00439645 0 0.358443 0.004946 0 0.358443 0.00549556 0 0.358443 0.00604512 0 0.358443 0.00659467 0 0.358443 0.00714423 0 0.358443 0.00769378 0 0.358443 0.00824334 0 0.364159 0 0 0.364159 0.000573581 0 0.364159 0.00114716 0 0.364159 0.00172074 0 0.364159 0.00229432 0 0.364159 0.0028679 0 0.364159 0.00344148 0 0.364159 0.00401506 0 0.364159 0.00458865 0 0.364159 0.00516223 0 0.364159 0.00573581 0 0.364159 0.00630939 0 0.364159 0.00688297 0 0.364159 0.00745655 0 0.364159 0.00803013 0 0.364159 0.00860371 0 0.369874 0 0 0.369874 0.000597605 0 0.369874 0.00119521 0 0.369874 0.00179282 0 0.369874 0.00239042 0 0.369874 0.00298803 0 0.369874 0.00358563 0 0.369874 0.00418324 0 0.369874 0.00478084 0 0.369874 0.00537845 0 0.369874 0.00597605 0 0.369874 0.00657366 0 0.369874 0.00717127 0 0.369874 0.00776887 0 0.369874 0.00836648 0 0.369874 0.00896408 0 0.37559 0 0 0.37559 0.00062163 0 0.37559 0.00124326 0 0.37559 0.00186489 0 0.37559 0.00248652 0 0.37559 0.00310815 0 0.37559 0.00372978 0 0.37559 0.00435141 0 0.37559 0.00497304 0 0.37559 0.00559467 0 0.37559 0.0062163 0 0.37559 0.00683793 0 0.37559 0.00745956 0 0.37559 0.00808119 0 0.37559 0.00870282 0 0.37559 0.00932445 0 0.381306 0 0 0.381306 0.000645655 0 0.381306 0.00129131 0 0.381306 0.00193696 0 0.381306 0.00258262 0 0.381306 0.00322827 0 0.381306 0.00387393 0 0.381306 0.00451958 0 0.381306 0.00516524 0 0.381306 0.00581089 0 0.381306 0.00645655 0 0.381306 0.0071022 0 0.381306 0.00774786 0 0.381306 0.00839351 0 0.381306 0.00903917 0 0.381306 0.00968482 0 0.387022 0 0 0.387022 0.00066968 0 0.387022 0.00133936 0 0.387022 0.00200904 0 0.387022 0.00267872 0 0.387022 0.0033484 0 0.387022 0.00401808 0 0.387022 0.00468776 0 0.387022 0.00535744 0 0.387022 0.00602712 0 0.387022 0.0066968 0 0.387022 0.00736648 0 0.387022 0.00803616 0 0.387022 0.00870584 0 0.387022 0.00937552 0 0.387022 0.0100452 0 0.392738 0 0 0.392738 0.000693704 0 0.392738 0.00138741 0 0.392738 0.00208111 0 0.392738 0.00277482 0 0.392738 0.00346852 0 0.392738 0.00416223 0 0.392738 0.00485593 0 0.392738 0.00554964 0 0.392738 0.00624334 0 0.392738 0.00693704 0 0.392738 0.00763075 0 0.392738 0.00832445 0 0.392738 0.00901816 0 0.392738 0.00971186 0 0.392738 0.0104056 0 
</DataArray>
</Points> 
</Piece> 
</StructuredGrid> 
</VTKFile> 
