<?xml version="1.0"?> 
<VTKFile type="StructuredGrid" version="0.1"> 
<StructuredGrid WholeExtent="0 15 0 15 0 0"> 
<Piece Extent="0 15 0 15 0 0"> 
<PointData>
<DataArray type="Float32" Name="E" format="ascii" NumberOfComponents="3"> 
450832 6.77844e+06 0 1.30055e+06 6.05677e+06 0 1.45853e+06 5.43313e+06 0 1.42717e+06 5.00594e+06 0 1.33301e+06 4.69745e+06 0 1.21547e+06 4.46607e+06 0 1.08958e+06 4.28735e+06 0 961633 4.14646e+06 0 834473 4.03427e+06 0 709289 3.94468e+06 0 586479 3.87367e+06 0 466001 3.81845e+06 0 347574 3.77714e+06 0 230775 3.74844e+06 0 115100 3.73153e+06 0 0 3.72596e+06 0 473336 7.01105e+06 0 1.47116e+06 6.1155e+06 0 1.61308e+06 5.41513e+06 0 1.56068e+06 4.95249e+06 0 1.44827e+06 4.62295e+06 0 1.31594e+06 4.37747e+06 0 1.17754e+06 4.18821e+06 0 1.03875e+06 4.03886e+06 0 901812 3.91938e+06 0 767484 3.82313e+06 0 635806 3.74567e+06 0 506449 3.6839e+06 0 378879 3.63562e+06 0 252445 3.59929e+06 0 126416 3.57379e+06 0 0 3.55841e+06 0 543424 7.30999e+06 0 1.6715e+06 6.15743e+06 0 1.78018e+06 5.3772e+06 0 1.69955e+06 4.88057e+06 0 1.56544e+06 4.5316e+06 0 1.41622e+06 4.27321e+06 0 1.26396e+06 4.07428e+06 0 1.11339e+06 3.917e+06 0 966025 3.7905e+06 0 822139 3.6876e+06 0 681411 3.60347e+06 0 543239 3.53469e+06 0 406874 3.47878e+06 0 271483 3.4339e+06 0 136175 3.39868e+06 0 0 3.37205e+06 0 707883 7.66416e+06 0 1.89887e+06 6.17209e+06 0 1.9553e+06 5.31606e+06 0 1.83969e+06 4.78899e+06 0 1.68094e+06 4.42319e+06 0 1.51317e+06 4.15358e+06 0 1.34606e+06 3.94617e+06 0 1.18308e+06 3.78171e+06 0 1.02492e+06 3.64865e+06 0 871347 3.53928e+06 0 721664 3.44844e+06 0 575025 3.3724e+06 0 430504 3.30842e+06 0 287147 3.25439e+06 0 143978 3.20865e+06 0 0 3.16984e+06 0 1.01396e+06 8.03579e+06 0 2.14635e+06 6.15087e+06 0 2.1333e+06 5.23055e+06 0 1.97687e+06 4.67813e+06 0 1.79146e+06 4.29875e+06 0 1.60398e+06 4.01994e+06 0 1.42142e+06 3.8054e+06 0 1.24573e+06 3.63468e+06 0 1.07672e+06 3.4956e+06 0 913581 3.38006e+06 0 755294 3.28261e+06 0 600785 3.19924e+06 0 448998 3.12699e+06 0 298916 3.06352e+06 0 149564 3.00691e+06 0 0 2.95553e+06 0 1.49726e+06 8.36006e+06 0 2.40515e+06 6.08946e+06 0 2.30941e+06 5.12167e+06 0 2.10778e+06 4.54986e+06 0 1.89456e+06 4.16031e+06 0 1.68664e+06 3.87441e+06 0 1.48841e+06 3.65416e+06 0 1.29998e+06 3.47811e+06 0 1.12028e+06 3.33364e+06 0 947937 3.21232e+06 0 781595 3.10847e+06 0 619998 3.01788e+06 0 462005 2.9374e+06 0 306598 2.8645e+06 0 152864 2.79708e+06 0 0 2.73334e+06 0 2.16128e+06 8.55671e+06 0 2.66769e+06 5.9887e+06 0 2.47994e+06 4.99198e+06 0 2.23055e+06 4.4069e+06 0 1.98889e+06 4.01042e+06 0 1.76013e+06 3.71956e+06 0 1.54627e+06 3.49495e+06 0 1.3453e+06 3.31451e+06 0 1.15525e+06 3.16529e+06 0 974196 3.03863e+06 0 800473 2.9287e+06 0 632674 2.83114e+06 0 469619 2.74269e+06 0 310326 2.66069e+06 0 153995 2.58294e+06 0 0 2.50755e+06 0 2.96022e+06 8.55608e+06 0 2.92962e+06 5.85321e+06 0 2.6429e+06 4.84471e+06 0 2.345e+06 4.25213e+06 0 2.07415e+06 3.85175e+06 0 1.82449e+06 3.55801e+06 0 1.59518e+06 3.33027e+06 0 1.38195e+06 3.14637e+06 0 1.18199e+06 2.99303e+06 0 992775 2.86154e+06 0 812392 2.74594e+06 0 639301 2.64184e+06 0 472312 2.54589e+06 0 310510 2.45539e+06 0 153222 2.36812e+06 0 0 2.28222e+06 0 3.80275e+06 8.32806e+06 0 3.18983e+06 5.68877e+06 0 2.79836e+06 4.68274e+06 0 2.45213e+06 4.08801e+06 0 2.15099e+06 3.68678e+06 0 1.88062e+06 3.39208e+06 0 1.63601e+06 3.16243e+06 0 1.41086e+06 2.97597e+06 0 1.20142e+06 2.81915e+06 0 1.00461e+06 2.68338e+06 0 818254 2.56265e+06 0 640725 2.45257e+06 0 470835 2.34978e+06 0 307743 2.25163e+06 0 150898 2.15593e+06 0 0 2.06092e+06 0 4.58212e+06 7.89486e+06 0 3.4491e+06 5.49946e+06 0 2.94844e+06 4.50782e+06 0 2.55354e+06 3.91637e+06 0 2.22092e+06 3.51753e+06 0 1.93006e+06 3.22365e+06 0 1.67022e+06 2.99335e+06 0 1.43348e+06 2.80521e+06 0 1.21492e+06 2.64561e+06 0 1.01098e+06 2.5062e+06 0 819247 2.38097e+06 0 638008 2.26562e+06 0 466088 2.15684e+06 0 302710 2.05204e+06 0 147414 1.94917e+06 0 0 1.84662e+06 0 5.21588e+06 7.32001e+06 0 3.70868e+06 5.28595e+06 0 3.09644e+06 4.32021e+06 0 2.65094e+06 3.73841e+06 0 2.28602e+06 3.34541e+06 0 1.97468e+06 3.05414e+06 0 1.69963e+06 2.82456e+06 0 1.45151e+06 2.63562e+06 0 1.22408e+06 2.47402e+06 0 1.01336e+06 2.33169e+06 0 816695 2.20272e+06 0 632303 2.08294e+06 0 459017 1.96913e+06 0 296101 1.85883e+06 0 143148 1.75014e+06 0 0 1.64164e+06 0 5.67133e+06 6.68391e+06 0 3.96933e+06 5.04534e+06 0 3.24543e+06 4.11902e+06 0 2.74615e+06 3.55465e+06 0 2.34864e+06 3.17114e+06 0 2.01649e+06 2.88455e+06 0 1.72625e+06 2.65714e+06 0 1.4668e+06 2.46836e+06 0 1.2306e+06 2.30565e+06 0 1.01328e+06 2.16121e+06 0 811934 2.02938e+06 0 624743 1.90613e+06 0 450526 1.78836e+06 0 288560 1.67377e+06 0 138443 1.56062e+06 0 0 1.4477e+06 0 5.96735e+06 6.06179e+06 0 4.23102e+06 4.77261e+06 0 3.39714e+06 3.9025e+06 0 2.8411e+06 3.36483e+06 0 2.41095e+06 2.99496e+06 0 2.05753e+06 2.71554e+06 0 1.7521e+06 2.49182e+06 0 1.48118e+06 2.30427e+06 0 1.23615e+06 2.14143e+06 0 1.01219e+06 1.99584e+06 0 806225 1.86214e+06 0 616371 1.73646e+06 0 441426 1.61587e+06 0 280648 1.49819e+06 0 133589 1.38188e+06 0 0 1.26596e+06 0 6.16173e+06 5.5139e+06 0 4.49311e+06 4.46206e+06 0 3.55154e+06 3.66822e+06 0 2.93749e+06 3.16796e+06 0 2.47472e+06 2.81684e+06 0 2.09981e+06 2.54739e+06 0 1.77907e+06 2.32902e+06 0 1.4964e+06 2.14396e+06 0 1.24227e+06 1.98208e+06 0 1.01144e+06 1.83639e+06 0 800692 1.70191e+06 0 608096 1.57494e+06 0 432413 1.45267e+06 0 272840 1.33307e+06 0 128831 1.21478e+06 0 0 1.09705e+06 0 6.34367e+06 5.0913e+06 0 4.75375e+06 4.10665e+06 0 3.70707e+06 3.41278e+06 0 3.03608e+06 2.96288e+06 0 2.54143e+06 2.63653e+06 0 2.14512e+06 2.38012e+06 0 1.8089e+06 2.16898e+06 0 1.51406e+06 1.98774e+06 0 1.25036e+06 1.82806e+06 0 1.0122e+06 1.68344e+06 0 796300 1.54938e+06 0 600684 1.42229e+06 0 424061 1.29947e+06 0 265524 1.17903e+06 0 124369 1.05977e+06 0 0 941168 0 6.66077e+06 4.86509e+06 0 5.00191e+06 3.69402e+06 0 3.86226e+06 3.13091e+06 0 3.13527e+06 2.74994e+06 0 2.61264e+06 2.45288e+06 0 2.1946e+06 2.21411e+06 0 1.84317e+06 2.01154e+06 0 1.53547e+06 1.83593e+06 0 1.26163e+06 1.67962e+06 0 1.01545e+06 1.53742e+06 0 793837 1.40503e+06 0 594744 1.27902e+06 0 416829 1.15675e+06 0 259016 1.03639e+06 0 120371 916938 0 0 798123 0 </DataArray> 
</PointData> 
<Points> 
<DataArray type="Float32" NumberOfComponents="3"> 
0.305007 0.0600419 0 0.305007 0.0645725 0 0.305006 0.069103 0 0.305006 0.0736335 0 0.305005 0.0781641 0 0.305005 0.0826946 0 0.305004 0.0872252 0 0.305004 0.0917557 0 0.305003 0.0962862 0 0.305003 0.100817 0 0.305002 0.105347 0 0.305002 0.109878 0 0.305001 0.114408 0 0.305001 0.118939 0 0.305 0.123469 0 0.305 0.128 0 0.305569 0.0600044 0 0.305952 0.0646307 0 0.306334 0.0692434 0 0.306715 0.0738425 0 0.307094 0.0784282 0 0.307473 0.0830006 0 0.307851 0.0875595 0 0.308227 0.0921053 0 0.308603 0.0966378 0 0.308977 0.101157 0 0.30935 0.105663 0 0.309722 0.110157 0 0.310093 0.114637 0 0.310463 0.119104 0 0.310832 0.123558 0 0.3112 0.128 0 0.306155 0.0599633 0 0.306933 0.0646723 0 0.307707 0.0693556 0 0.308477 0.0740136 0 0.309243 0.0786463 0 0.310004 0.0832541 0 0.310762 0.087837 0 0.311515 0.0923954 0 0.312265 0.0969294 0 0.31301 0.101439 0 0.313751 0.105925 0 0.314489 0.110387 0 0.315222 0.114825 0 0.315952 0.11924 0 0.316678 0.123631 0 0.3174 0.128 0 0.306764 0.0599131 0 0.307946 0.0646927 0 0.309119 0.0694363 0 0.310283 0.0741442 0 0.311439 0.0788169 0 0.312585 0.0834548 0 0.313724 0.0880582 0 0.314854 0.0926275 0 0.315975 0.0971632 0 0.317088 0.101666 0 0.318194 0.106135 0 0.319291 0.110572 0 0.32038 0.114976 0 0.321461 0.119349 0 0.322534 0.12369 0 0.3236 0.128 0 0.307398 0.0598448 0 0.308988 0.0646839 0 0.310564 0.0694783 0 0.312126 0.0742286 0 0.313673 0.0789354 0 0.315206 0.0835992 0 0.316725 0.0882207 0 0.31823 0.0928004 0 0.319722 0.0973389 0 0.3212 0.101837 0 0.322666 0.106295 0 0.324118 0.110713 0 0.325557 0.115092 0 0.326984 0.119432 0 0.328398 0.123735 0 0.3298 0.128 0 0.308058 0.0597451 0 0.310059 0.064634 0 0.312039 0.0694712 0 0.313999 0.0742575 0 0.315938 0.0789938 0 0.317856 0.0836807 0 0.319755 0.0883192 0 0.321635 0.0929098 0 0.323495 0.0974534 0 0.325336 0.101951 0 0.327158 0.106402 0 0.328962 0.110809 0 0.330748 0.115172 0 0.332516 0.11949 0 0.334267 0.123766 0 0.336 0.128 0 0.308748 0.0595969 0 0.31116 0.0645271 0 0.313543 0.0694005 0 0.315899 0.0742181 0 0.318228 0.0789807 0 0.320531 0.0836894 0 0.322807 0.0883451 0 0.325059 0.0929486 0 0.327285 0.0975008 0 0.329486 0.102003 0 0.331664 0.106455 0 0.333817 0.110858 0 0.335947 0.115214 0 0.338054 0.119522 0 0.340138 0.123784 0 0.3422 0.128 0 0.309477 0.0593798 0 0.312293 0.0643441 0 0.315075 0.0692485 0 0.317823 0.0740938 0 0.320538 0.0788812 0 0.323222 0.0836118 0 0.325873 0.0882865 0 0.328494 0.0929063 0 0.331084 0.0974723 0 0.333644 0.101985 0 0.336174 0.106446 0 0.338675 0.110856 0 0.341148 0.115215 0 0.343593 0.119525 0 0.34601 0.123786 0 0.3484 0.128 0 0.31025 0.05907 0 0.313462 0.0640626 0 0.316635 0.0689939 0 0.319769 0.0738651 0 0.322865 0.0786772 0 0.325924 0.0834313 0 0.328946 0.0881284 0 0.331932 0.0927696 0 0.334883 0.0973559 0 0.337799 0.101888 0 0.340681 0.106367 0 0.34353 0.110795 0 0.346345 0.115171 0 0.349129 0.119496 0 0.35188 0.123772 0 0.3546 0.128 0 0.311076 0.0586417 0 0.314672 0.0636577 0 0.318225 0.0686132 0 0.321735 0.0735094 0 0.325203 0.0783474 0 0.328631 0.0831281 0 0.332018 0.0878527 0 0.335365 0.092522 0 0.338674 0.0971371 0 0.341944 0.101699 0 0.345177 0.106208 0 0.348373 0.110666 0 0.351533 0.115073 0 0.354657 0.119431 0 0.357746 0.12374 0 0.3608 0.128 0 0.311964 0.0580677 0 0.315926 0.0631027 0 0.319844 0.0680805 0 0.323717 0.0730021 0 0.327547 0.0778684 0 0.331334 0.0826803 0 0.335079 0.0874388 0 0.338782 0.0921447 0 0.342445 0.096799 0 0.346068 0.101402 0 0.349651 0.105956 0 0.353196 0.11046 0 0.356703 0.114916 0 0.360172 0.119324 0 0.363604 0.123685 0 0.367 0.128 0 0.31292 0.0573207 0 0.317227 0.0623709 0 0.32149 0.0673695 0 0.32571 0.0723174 0 0.329887 0.0772153 0 0.334023 0.0820641 0 0.338117 0.0868643 0 0.34217 0.0916168 0 0.346183 0.0963223 0 0.350157 0.100981 0 0.354091 0.105595 0 0.357988 0.110163 0 0.361846 0.114687 0 0.365667 0.119168 0 0.369452 0.123605 0 0.3732 0.128 0 0.31395 0.0563755 0 0.318575 0.0614366 0 0.32316 0.0664545 0 0.327707 0.0714299 0 0.332215 0.0763632 0 0.336685 0.0812549 0 0.341117 0.0861057 0 0.345513 0.090916 0 0.349872 0.0956863 0 0.354195 0.100417 0 0.358482 0.105109 0 0.362735 0.109762 0 0.366952 0.114378 0 0.371135 0.118955 0 0.375284 0.123496 0 0.3794 0.128 0 0.315058 0.0552106 0 0.319968 0.0602774 0 0.324847 0.0653123 0 0.329696 0.0703157 0 0.334515 0.0752879 0 0.339304 0.0802291 0 0.344063 0.0851396 0 0.348792 0.0900197 0 0.353492 0.0948698 0 0.358164 0.09969 0 0.362807 0.104481 0 0.367421 0.109242 0 0.372007 0.113974 0 0.376566 0.118678 0 0.381097 0.123353 0 0.3856 0.128 0 0.316241 0.0538101 0 0.321401 0.0588759 0 0.326542 0.0639241 0 0.331666 0.068955 0 0.336772 0.0739685 0 0.34186 0.0789648 0 0.346931 0.083944 0 0.351985 0.0889062 0 0.357021 0.0938513 0 0.362041 0.0987796 0 0.367043 0.103691 0 0.372028 0.108586 0 0.376996 0.113464 0 0.381947 0.118326 0 0.386882 0.123171 0 0.3918 0.128 0 0.317497 0.0521667 0 0.322864 0.0572222 0 0.328231 0.0622778 0 0.333598 0.0673333 0 0.338965 0.0723889 0 0.344332 0.0774445 0 0.349698 0.0825 0 0.355065 0.0875556 0 0.360432 0.0926111 0 0.365799 0.0976667 0 0.371166 0.102722 0 0.376533 0.107778 0 0.381899 0.112833 0 0.387266 0.117889 0 0.392633 0.122944 0 0.398 0.128 0 
</DataArray>
</Points> 
</Piece> 
</StructuredGrid> 
</VTKFile> 
