<?xml version="1.0"?> 
<VTKFile type="StructuredGrid" version="0.1"> 
<StructuredGrid WholeExtent="0 15 0 15 0 0"> 
<Piece Extent="0 15 0 15 0 0"> 
<PointData>
<DataArray type="Float32" Name="E" format="ascii" NumberOfComponents="3"> 
-1.04588e+06 -0.000146404 0 -1.04583e+06 2151.31 0 -1.0457e+06 4302.61 0 -1.04549e+06 6453.86 0 -1.04518e+06 8605.05 0 -1.04479e+06 10756.2 0 -1.04432e+06 12907.1 0 -1.04375e+06 15058 0 -1.0431e+06 17208.6 0 -1.04236e+06 19359 0 -1.04153e+06 21509.1 0 -1.04062e+06 23658.8 0 -1.03961e+06 25808.2 0 -1.03852e+06 27957.1 0 -1.03734e+06 30105.5 0 -1.03606e+06 32253.2 0 -1.06316e+06 0.00195049 0 -1.06311e+06 2758.76 0 -1.06298e+06 5517.77 0 -1.06277e+06 8277.29 0 -1.06247e+06 11037.6 0 -1.06208e+06 13798.8 0 -1.06161e+06 16561.4 0 -1.06105e+06 19325.4 0 -1.0604e+06 22091.1 0 -1.05967e+06 24858.8 0 -1.05885e+06 27628.6 0 -1.05794e+06 30400.7 0 -1.05695e+06 33175.3 0 -1.05586e+06 35952.7 0 -1.05468e+06 38732.9 0 -1.05342e+06 41516 0 -1.08467e+06 0.00461245 0 -1.08463e+06 3353.29 0 -1.08451e+06 6707.18 0 -1.0843e+06 10062.3 0 -1.08401e+06 13419.2 0 -1.08364e+06 16778.4 0 -1.08318e+06 20140.7 0 -1.08264e+06 23506.4 0 -1.08201e+06 26876.2 0 -1.08131e+06 30250.6 0 -1.08051e+06 33630.1 0 -1.07963e+06 37015.2 0 -1.07866e+06 40406.3 0 -1.07761e+06 43803.8 0 -1.07647e+06 47208.2 0 -1.07524e+06 50619.8 0 -1.11028e+06 0.00834055 0 -1.11024e+06 3917.39 0 -1.11013e+06 7835.88 0 -1.10993e+06 11756.5 0 -1.10966e+06 15680.5 0 -1.10932e+06 19608.7 0 -1.10889e+06 23542.2 0 -1.10839e+06 27482.2 0 -1.1078e+06 31429.5 0 -1.10714e+06 35385.1 0 -1.1064e+06 39350 0 -1.10558e+06 43324.9 0 -1.10467e+06 47310.9 0 -1.10368e+06 51308.6 0 -1.10261e+06 55318.8 0 -1.10146e+06 59342.3 0 -1.13968e+06 0.0140225 0 -1.13965e+06 4426.48 0 -1.13955e+06 8854.8 0 -1.13938e+06 13286.8 0 -1.13914e+06 17724.2 0 -1.13884e+06 22168.9 0 -1.13847e+06 26622.6 0 -1.13803e+06 31086.9 0 -1.13752e+06 35563.6 0 -1.13694e+06 40054.3 0 -1.13628e+06 44560.3 0 -1.13555e+06 49083.3 0 -1.13475e+06 53624.4 0 -1.13387e+06 58184.9 0 -1.13292e+06 62765.8 0 -1.13188e+06 67368.2 0 -1.17236e+06 0.0229631 0 -1.17234e+06 4843.05 0 -1.17226e+06 9689.1 0 -1.17213e+06 14541.2 0 -1.17196e+06 19402.2 0 -1.17173e+06 24275 0 -1.17145e+06 29162.6 0 -1.17111e+06 34067.8 0 -1.17072e+06 38993.3 0 -1.17028e+06 43941.8 0 -1.16977e+06 48915.8 0 -1.16921e+06 53917.8 0 -1.16858e+06 58950.3 0 -1.16789e+06 64015.7 0 -1.16713e+06 69116.4 0 -1.1663e+06 74254.6 0 -1.20748e+06 0.0371494 0 -1.20747e+06 5108.22 0 -1.20743e+06 10221.3 0 -1.20738e+06 15344.1 0 -1.20729e+06 20481.3 0 -1.20718e+06 25637.7 0 -1.20705e+06 30817.9 0 -1.20688e+06 36026.3 0 -1.20669e+06 41267.3 0 -1.20646e+06 46545 0 -1.20619e+06 51863.3 0 -1.20589e+06 57225.9 0 -1.20554e+06 62636.1 0 -1.20515e+06 68096.8 0 -1.20472e+06 73610.4 0 -1.20423e+06 79178.7 0 -1.24367e+06 0.0606054 0 -1.24368e+06 5127.93 0 -1.24371e+06 10263.8 0 -1.24376e+06 15415.5 0 -1.24383e+06 20590.8 0 -1.24392e+06 25797.5 0 -1.24402e+06 31043.1 0 -1.24413e+06 36335 0 -1.24425e+06 41680.5 0 -1.24437e+06 47086.6 0 -1.24449e+06 52560 0 -1.24461e+06 58107.4 0 -1.24471e+06 63735.2 0 -1.2448e+06 69449.6 0 -1.24485e+06 75257 0 -1.24487e+06 81163.4 0 -1.27869e+06 0.0974922 0 -1.27873e+06 4748.13 0 -1.27887e+06 9509.04 0 -1.2791e+06 14295.4 0 -1.27942e+06 19119.7 0 -1.27982e+06 23994.4 0 -1.28031e+06 28931.6 0 -1.28087e+06 33943.1 0 -1.28151e+06 39040.5 0 -1.28221e+06 44234.8 0 -1.28298e+06 49536.6 0 -1.28379e+06 54956 0 -1.28466e+06 60502.3 0 -1.28556e+06 66183.9 0 -1.28649e+06 72008.1 0 -1.28745e+06 77981.7 0 -1.30893e+06 0.157539 0 -1.30904e+06 3724.94 0 -1.30935e+06 7470.55 0 -1.30986e+06 11257.3 0 -1.31058e+06 15105.5 0 -1.31149e+06 19035.2 0 -1.3126e+06 23066.2 0 -1.31388e+06 27217.8 0 -1.31535e+06 31508.7 0 -1.31697e+06 35956.7 0 -1.31874e+06 40578.9 0 -1.32065e+06 45391.3 0 -1.32268e+06 50408.9 0 -1.32482e+06 55645.6 0 -1.32704e+06 61114.6 0 -1.32933e+06 66825.6 0 -1.32859e+06 0.241779 0 -1.32879e+06 1666.48 0 -1.32937e+06 3364.74 0 -1.33034e+06 5126.38 0 -1.3317e+06 6983.19 0 -1.33343e+06 8967.03 0 -1.33553e+06 11109.9 0 -1.33799e+06 13443.8 0 -1.3408e+06 16001.3 0 -1.34395e+06 18814.8 0 -1.34741e+06 21917.2 0 -1.35117e+06 25341.5 0 -1.35521e+06 29120.7 0 -1.3595e+06 33287.3 0 -1.36403e+06 37872.3 0 -1.36876e+06 42909.6 0 -1.32858e+06 0.313453 0 -1.32891e+06 -1952.77 0 -1.32988e+06 -3864.24 0 -1.33151e+06 -5693.09 0 -1.33377e+06 -7397.28 0 -1.33669e+06 -8934.11 0 -1.34024e+06 -10260 0 -1.34442e+06 -11330.7 0 -1.34923e+06 -12101.3 0 -1.35464e+06 -12526.3 0 -1.36065e+06 -12560.9 0 -1.36724e+06 -12160.5 0 -1.37439e+06 -11281.5 0 -1.38206e+06 -9881.09 0 -1.39022e+06 -7915.78 0 -1.39885e+06 -5352.38 0 -1.29628e+06 0.224487 0 -1.29674e+06 -7539.93 0 -1.29813e+06 -15049.6 0 -1.30045e+06 -22497.2 0 -1.30372e+06 -29847.3 0 -1.30795e+06 -37058.8 0 -1.31319e+06 -44083.7 0 -1.31944e+06 -50864.2 0 -1.32673e+06 -57331.2 0 -1.33511e+06 -63402.1 0 -1.34459e+06 -68979.3 0 -1.35519e+06 -73949.4 0 -1.36691e+06 -78183.9 0 -1.37973e+06 -81543.4 0 -1.39362e+06 -83883.8 0 -1.40847e+06 -85048 0 -1.2195e+06 -0.440909 0 -1.21993e+06 -14264.1 0 -1.22125e+06 -28585.9 0 -1.22347e+06 -43021.9 0 -1.22663e+06 -57627.5 0 -1.23081e+06 -72455.2 0 -1.23608e+06 -87553.7 0 -1.24255e+06 -102965 0 -1.25036e+06 -118721 0 -1.25967e+06 -134840 0 -1.27069e+06 -151316 0 -1.28368e+06 -168108 0 -1.29893e+06 -185125 0 -1.31682e+06 -202195 0 -1.33781e+06 -219031 0 -1.36245e+06 -235224 0 -1.10288e+06 -1.21481 0 -1.10292e+06 -18045.1 0 -1.10304e+06 -36251.2 0 -1.10325e+06 -54781.2 0 -1.10357e+06 -73805.6 0 -1.10403e+06 -93504.8 0 -1.10467e+06 -114075 0 -1.10553e+06 -135732 0 -1.10665e+06 -158725 0 -1.10811e+06 -183339 0 -1.10996e+06 -209919 0 -1.11229e+06 -238889 0 -1.11519e+06 -270785 0 -1.11875e+06 -306302 0 -1.12308e+06 -346359 0 -1.12837e+06 -392128 0 -983246 -1.08073 0 -982712 -14474.4 0 -981106 -29091.8 0 -978414 -43997.1 0 -974614 -59340.9 0 -969676 -75280 0 -963571 -91976.6 0 -956266 -109595 0 -947731 -128294 0 -937935 -148216 0 -926846 -169461 0 -914422 -192071 0 -900588 -215973 0 -885212 -240924 0 -867999 -266339 0 -848101 -290149 0 </DataArray> 
</PointData> 
<Points> 
<DataArray type="Float32" NumberOfComponents="3"> 
0.046 0 0 0.046 0.0018 0 0.046 0.0036 0 0.046 0.0054 0 0.046 0.0072 0 0.046 0.009 0 0.046 0.0108 0 0.046 0.0126 0 0.046 0.0144 0 0.046 0.0162 0 0.046 0.018 0 0.046 0.0198 0 0.046 0.0216 0 0.046 0.0234 0 0.046 0.0252 0 0.046 0.027 0 0.0586667 0 0 0.0586667 0.0018 0 0.0586667 0.0036 0 0.0586667 0.0054 0 0.0586667 0.0072 0 0.0586667 0.009 0 0.0586667 0.0108 0 0.0586667 0.0126 0 0.0586667 0.0144 0 0.0586667 0.0162 0 0.0586667 0.018 0 0.0586667 0.0198 0 0.0586667 0.0216 0 0.0586667 0.0234 0 0.0586667 0.0252 0 0.0586667 0.027 0 0.0713333 0 0 0.0713333 0.0018 0 0.0713333 0.0036 0 0.0713333 0.0054 0 0.0713333 0.0072 0 0.0713333 0.009 0 0.0713333 0.0108 0 0.0713333 0.0126 0 0.0713333 0.0144 0 0.0713333 0.0162 0 0.0713333 0.018 0 0.0713333 0.0198 0 0.0713333 0.0216 0 0.0713333 0.0234 0 0.0713333 0.0252 0 0.0713333 0.027 0 0.084 0 0 0.084 0.0018 0 0.084 0.0036 0 0.084 0.0054 0 0.084 0.0072 0 0.084 0.009 0 0.084 0.0108 0 0.084 0.0126 0 0.084 0.0144 0 0.084 0.0162 0 0.084 0.018 0 0.084 0.0198 0 0.084 0.0216 0 0.084 0.0234 0 0.084 0.0252 0 0.084 0.027 0 0.0966667 0 0 0.0966667 0.0018 0 0.0966667 0.0036 0 0.0966667 0.0054 0 0.0966667 0.0072 0 0.0966667 0.009 0 0.0966667 0.0108 0 0.0966667 0.0126 0 0.0966667 0.0144 0 0.0966667 0.0162 0 0.0966667 0.018 0 0.0966667 0.0198 0 0.0966667 0.0216 0 0.0966667 0.0234 0 0.0966667 0.0252 0 0.0966667 0.027 0 0.109333 0 0 0.109333 0.0018 0 0.109333 0.0036 0 0.109333 0.0054 0 0.109333 0.0072 0 0.109333 0.009 0 0.109333 0.0108 0 0.109333 0.0126 0 0.109333 0.0144 0 0.109333 0.0162 0 0.109333 0.018 0 0.109333 0.0198 0 0.109333 0.0216 0 0.109333 0.0234 0 0.109333 0.0252 0 0.109333 0.027 0 0.122 0 0 0.122 0.0018 0 0.122 0.0036 0 0.122 0.0054 0 0.122 0.0072 0 0.122 0.009 0 0.122 0.0108 0 0.122 0.0126 0 0.122 0.0144 0 0.122 0.0162 0 0.122 0.018 0 0.122 0.0198 0 0.122 0.0216 0 0.122 0.0234 0 0.122 0.0252 0 0.122 0.027 0 0.134667 0 0 0.134667 0.0018 0 0.134667 0.0036 0 0.134667 0.0054 0 0.134667 0.0072 0 0.134667 0.009 0 0.134667 0.0108 0 0.134667 0.0126 0 0.134667 0.0144 0 0.134667 0.0162 0 0.134667 0.018 0 0.134667 0.0198 0 0.134667 0.0216 0 0.134667 0.0234 0 0.134667 0.0252 0 0.134667 0.027 0 0.147333 0 0 0.147333 0.0018 0 0.147333 0.0036 0 0.147333 0.0054 0 0.147333 0.0072 0 0.147333 0.009 0 0.147333 0.0108 0 0.147333 0.0126 0 0.147333 0.0144 0 0.147333 0.0162 0 0.147333 0.018 0 0.147333 0.0198 0 0.147333 0.0216 0 0.147333 0.0234 0 0.147333 0.0252 0 0.147333 0.027 0 0.16 0 0 0.16 0.0018 0 0.16 0.0036 0 0.16 0.0054 0 0.16 0.0072 0 0.16 0.009 0 0.16 0.0108 0 0.16 0.0126 0 0.16 0.0144 0 0.16 0.0162 0 0.16 0.018 0 0.16 0.0198 0 0.16 0.0216 0 0.16 0.0234 0 0.16 0.0252 0 0.16 0.027 0 0.172667 0 0 0.172667 0.0018 0 0.172667 0.0036 0 0.172667 0.0054 0 0.172667 0.0072 0 0.172667 0.009 0 0.172667 0.0108 0 0.172667 0.0126 0 0.172667 0.0144 0 0.172667 0.0162 0 0.172667 0.018 0 0.172667 0.0198 0 0.172667 0.0216 0 0.172667 0.0234 0 0.172667 0.0252 0 0.172667 0.027 0 0.185333 0 0 0.185333 0.0018 0 0.185333 0.0036 0 0.185333 0.0054 0 0.185333 0.0072 0 0.185333 0.009 0 0.185333 0.0108 0 0.185333 0.0126 0 0.185333 0.0144 0 0.185333 0.0162 0 0.185333 0.018 0 0.185333 0.0198 0 0.185333 0.0216 0 0.185333 0.0234 0 0.185333 0.0252 0 0.185333 0.027 0 0.198 0 0 0.198 0.0018 0 0.198 0.0036 0 0.198 0.0054 0 0.198 0.0072 0 0.198 0.009 0 0.198 0.0108 0 0.198 0.0126 0 0.198 0.0144 0 0.198 0.0162 0 0.198 0.018 0 0.198 0.0198 0 0.198 0.0216 0 0.198 0.0234 0 0.198 0.0252 0 0.198 0.027 0 0.210667 0 0 0.210667 0.0018 0 0.210667 0.0036 0 0.210667 0.0054 0 0.210667 0.0072 0 0.210667 0.009 0 0.210667 0.0108 0 0.210667 0.0126 0 0.210667 0.0144 0 0.210667 0.0162 0 0.210667 0.018 0 0.210667 0.0198 0 0.210667 0.0216 0 0.210667 0.0234 0 0.210667 0.0252 0 0.210667 0.027 0 0.223333 0 0 0.223333 0.0018 0 0.223333 0.0036 0 0.223333 0.0054 0 0.223333 0.0072 0 0.223333 0.009 0 0.223333 0.0108 0 0.223333 0.0126 0 0.223333 0.0144 0 0.223333 0.0162 0 0.223333 0.018 0 0.223333 0.0198 0 0.223333 0.0216 0 0.223333 0.0234 0 0.223333 0.0252 0 0.223333 0.027 0 0.236 0 0 0.236 0.0018 0 0.236 0.0036 0 0.236 0.0054 0 0.236 0.0072 0 0.236 0.009 0 0.236 0.0108 0 0.236 0.0126 0 0.236 0.0144 0 0.236 0.0162 0 0.236 0.018 0 0.236 0.0198 0 0.236 0.0216 0 0.236 0.0234 0 0.236 0.0252 0 0.236 0.027 0 
</DataArray>
</Points> 
</Piece> 
</StructuredGrid> 
</VTKFile> 
