<?xml version="1.0"?> 
<VTKFile type="StructuredGrid" version="0.1"> 
<StructuredGrid WholeExtent="0 127 0 127 0 0"> 
<Piece Extent="0 127 0 127 0 0"> 
<PointData>
<DataArray type="Float32" Name="E" format="ascii" NumberOfComponents="3"> 
-517116 -0.00380829 0 -521679 -0.00382168 0 -526315 -0.00383297 0 -531023 -0.003842 0 -535803 -0.00384874 0 -540657 -0.00385317 0 -545584 -0.0038551 0 -550584 -0.0038545 0 -555659 -0.00385129 0 -560809 -0.00384539 0 -566034 -0.00383667 0 -571334 -0.00382512 0 -576711 -0.00381058 0 -582164 -0.00379299 0 -587693 -0.00377228 0 -593300 -0.00374835 0 -598985 -0.00372106 0 -604748 -0.00369038 0 -610589 -0.00365612 0 -616509 -0.00361829 0 -622508 -0.00357676 0 -628587 -0.00353135 0 -634746 -0.00348205 0 -640986 -0.00342877 0 -647307 -0.0033714 0 -653708 -0.00330968 0 -660192 -0.0032438 0 -666757 -0.0031734 0 -673404 -0.0030985 0 -680135 -0.00301905 0 -686948 -0.00293481 0 -693845 -0.00284578 0 -700825 -0.00275192 0 -707889 -0.00265289 0 -715037 -0.00254889 0 -722270 -0.00243967 0 -729588 -0.00232514 0 -736991 -0.00220534 0 -744479 -0.0020799 0 -752053 -0.00194905 0 -759713 -0.00181249 0 -767458 -0.00167031 0 -775290 -0.00152234 0 -783208 -0.00136853 0 -791213 -0.00120883 0 -799304 -0.00104317 0 -807482 -0.000871414 0 -815747 -0.000693673 0 -824099 -0.000509904 0 -832539 -0.000319864 0 -841065 -0.000123734 0 -849678 7.8646e-05 0 -858379 0.000287235 0 -867166 0.000501925 0 -876041 0.000722963 0 -885002 0.000950087 0 -894051 0.00118345 0 -903186 0.00142296 0 -912408 0.00166848 0 -921717 0.00192012 0 -931111 0.00217779 0 -940592 0.00244128 0 -950159 0.00271066 0 -959811 0.00298583 0 -969548 0.00326643 0 -979370 0.0035527 0 -989277 0.00384425 0 -999267 0.00414104 0 -1.00934e+06 0.00444302 0 -1.0195e+06 0.0047498 0 -1.02974e+06 0.00506128 0 -1.04006e+06 0.0053772 0 -1.05046e+06 0.00569746 0 -1.06095e+06 0.0060218 0 -1.07151e+06 0.00634982 0 -1.08216e+06 0.00668143 0 -1.09288e+06 0.00701631 0 -1.10368e+06 0.00735413 0 -1.11456e+06 0.00769472 0 -1.12552e+06 0.00803753 0 -1.13655e+06 0.00838235 0 -1.14765e+06 0.00872898 0 -1.15883e+06 0.00907676 0 -1.17009e+06 0.00942555 0 -1.18141e+06 0.00977479 0 -1.1928e+06 0.0101242 0 -1.20427e+06 0.0104735 0 -1.2158e+06 0.010822 0 -1.2274e+06 0.0111693 0 -1.23907e+06 0.0115154 0 -1.2508e+06 0.011859 0 -1.26259e+06 0.0122006 0 -1.27445e+06 0.0125391 0 -1.28637e+06 0.0128743 0 -1.29834e+06 0.0132055 0 -1.31038e+06 0.0135323 0 -1.32247e+06 0.0138543 0 -1.33461e+06 0.014171 0 -1.34681e+06 0.0144819 0 -1.35907e+06 0.0147865 0 -1.37137e+06 0.0150845 0 -1.38372e+06 0.015375 0 -1.39612e+06 0.0156579 0 -1.40856e+06 0.0159326 0 -1.42104e+06 0.0161985 0 -1.43357e+06 0.0164554 0 -1.44614e+06 0.0167027 0 -1.45874e+06 0.01694 0 -1.47139e+06 0.0171668 0 -1.48406e+06 0.0173828 0 -1.49677e+06 0.0175877 0 -1.50951e+06 0.0177807 0 -1.52228e+06 0.0179619 0 -1.53507e+06 0.0181307 0 -1.54789e+06 0.0182869 0 -1.56073e+06 0.0184302 0 -1.57359e+06 0.01856 0 -1.58647e+06 0.0186766 0 -1.59937e+06 0.0187792 0 -1.61228e+06 0.0188681 0 -1.6252e+06 0.0189425 0 -1.63814e+06 0.0190031 0 -1.65108e+06 0.019049 0 -1.66403e+06 0.0190804 0 -1.67698e+06 0.0190972 0 -1.68993e+06 0.0190991 0 -1.70288e+06 0.0190864 0 -1.71583e+06 0.0190594 0 -517080 4528.1 0 -521644 4599.63 0 -526279 4671.59 0 -530987 4743.97 0 -535767 4816.77 0 -540620 4890 0 -545547 4963.66 0 -550547 5037.74 0 -555622 5112.24 0 -560771 5187.17 0 -565996 5262.53 0 -571296 5338.31 0 -576673 5414.51 0 -582125 5491.14 0 -587655 5568.18 0 -593262 5645.64 0 -598946 5723.51 0 -604708 5801.8 0 -610549 5880.49 0 -616469 5959.59 0 -622468 6039.08 0 -628547 6118.98 0 -634706 6199.26 0 -640946 6279.92 0 -647266 6360.97 0 -653667 6442.39 0 -660151 6524.17 0 -666716 6606.31 0 -673363 6688.8 0 -680093 6771.64 0 -686906 6854.81 0 -693803 6938.3 0 -700783 7022.11 0 -707847 7106.22 0 -714995 7190.62 0 -722228 7275.31 0 -729546 7360.26 0 -736948 7445.48 0 -744437 7530.93 0 -752010 7616.62 0 -759670 7702.52 0 -767415 7788.62 0 -775247 7874.91 0 -783165 7961.37 0 -791170 8047.97 0 -799261 8134.71 0 -807439 8221.57 0 -815704 8308.52 0 -824056 8395.55 0 -832495 8482.64 0 -841021 8569.76 0 -849635 8656.89 0 -858335 8744.02 0 -867123 8831.11 0 -875997 8918.15 0 -884959 9005.11 0 -894008 9091.97 0 -903143 9178.69 0 -912365 9265.26 0 -921673 9351.65 0 -931068 9437.82 0 -940549 9523.75 0 -950116 9609.41 0 -959768 9694.77 0 -969506 9779.81 0 -979328 9864.48 0 -989235 9948.76 0 -999226 10032.6 0 -1.0093e+06 10116 0 -1.01946e+06 10198.9 0 -1.0297e+06 10281.3 0 -1.04002e+06 10363.1 0 -1.05042e+06 10444.4 0 -1.06091e+06 10525 0 -1.07147e+06 10604.9 0 -1.08212e+06 10684.1 0 -1.09284e+06 10762.6 0 -1.10365e+06 10840.4 0 -1.11452e+06 10917.3 0 -1.12548e+06 10993.3 0 -1.13651e+06 11068.5 0 -1.14762e+06 11142.7 0 -1.1588e+06 11216 0 -1.17005e+06 11288.3 0 -1.18137e+06 11359.6 0 -1.19277e+06 11429.7 0 -1.20423e+06 11498.8 0 -1.21577e+06 11566.6 0 -1.22737e+06 11633.3 0 -1.23903e+06 11698.8 0 -1.25077e+06 11763 0 -1.26256e+06 11825.8 0 -1.27442e+06 11887.4 0 -1.28634e+06 11947.5 0 -1.29831e+06 12006.2 0 -1.31035e+06 12063.5 0 -1.32244e+06 12119.3 0 -1.33459e+06 12173.5 0 -1.34679e+06 12226.2 0 -1.35904e+06 12277.2 0 -1.37134e+06 12326.7 0 -1.38369e+06 12374.4 0 -1.39609e+06 12420.5 0 -1.40854e+06 12464.9 0 -1.42102e+06 12507.4 0 -1.43355e+06 12548.2 0 -1.44612e+06 12587.2 0 -1.45873e+06 12624.3 0 -1.47137e+06 12659.6 0 -1.48405e+06 12693 0 -1.49676e+06 12724.4 0 -1.5095e+06 12753.9 0 -1.52226e+06 12781.4 0 -1.53506e+06 12807 0 -1.54788e+06 12830.5 0 -1.56072e+06 12852.1 0 -1.57358e+06 12871.5 0 -1.58646e+06 12889 0 -1.59936e+06 12904.4 0 -1.61227e+06 12917.7 0 -1.6252e+06 12928.9 0 -1.63813e+06 12938 0 -1.65108e+06 12945 0 -1.66402e+06 12950 0 -1.67698e+06 12952.8 0 -1.68993e+06 12953.5 0 -1.70288e+06 12952.1 0 -1.71583e+06 12948.6 0 -516973 9055.78 0 -521536 9198.85 0 -526171 9342.76 0 -530878 9487.51 0 -535657 9633.12 0 -540510 9779.58 0 -545436 9926.89 0 -550436 10075 0 -555510 10224.1 0 -560659 10373.9 0 -565883 10524.6 0 -571182 10676.2 0 -576558 10828.6 0 -582010 10981.9 0 -587539 11135.9 0 -593145 11290.9 0 -598829 11446.6 0 -604591 11603.2 0 -610431 11760.6 0 -616350 11918.8 0 -622349 12077.8 0 -628427 12237.6 0 -634586 12398.1 0 -640824 12559.5 0 -647144 12721.6 0 -653545 12884.4 0 -660028 13048 0 -666592 13212.3 0 -673239 13377.3 0 -679969 13542.9 0 -686781 13709.3 0 -693677 13876.3 0 -700657 14043.9 0 -707720 14212.1 0 -714868 14381 0 -722101 14550.3 0 -729418 14720.3 0 -736820 14890.7 0 -744308 15061.6 0 -751881 15233 0 -759541 15404.8 0 -767286 15577.1 0 -775117 15749.7 0 -783035 15922.6 0 -791040 16095.8 0 -799131 16269.3 0 -807309 16443 0 -815573 16617 0 -823925 16791 0 -832364 16965.2 0 -840891 17139.5 0 -849504 17313.8 0 -858204 17488.1 0 -866992 17662.3 0 -875867 17836.4 0 -884829 18010.3 0 -893877 18184.1 0 -903013 18357.5 0 -912235 18530.7 0 -921544 18703.5 0 -930939 18875.9 0 -940420 19047.8 0 -949988 19219.1 0 -959640 19389.9 0 -969378 19560 0 -979201 19729.4 0 -989109 19897.9 0 -999100 20065.7 0 -1.00918e+06 20232.5 0 -1.01933e+06 20398.4 0 -1.02957e+06 20563.2 0 -1.0399e+06 20726.9 0 -1.0503e+06 20889.4 0 -1.06079e+06 21050.6 0 -1.07136e+06 21210.5 0 -1.082e+06 21369 0 -1.09273e+06 21526 0 -1.10353e+06 21681.5 0 -1.11441e+06 21835.4 0 -1.12537e+06 21987.5 0 -1.1364e+06 22137.9 0 -1.14751e+06 22286.5 0 -1.15869e+06 22433.1 0 -1.16994e+06 22577.7 0 -1.18127e+06 22720.2 0 -1.19266e+06 22860.5 0 -1.20413e+06 22998.7 0 -1.21567e+06 23134.5 0 -1.22727e+06 23267.9 0 -1.23894e+06 23398.8 0 -1.25067e+06 23527.3 0 -1.26247e+06 23653 0 -1.27433e+06 23776.1 0 -1.28625e+06 23896.5 0 -1.29823e+06 24013.9 0 -1.31026e+06 24128.5 0 -1.32236e+06 24240.1 0 -1.33451e+06 24348.6 0 -1.34671e+06 24453.9 0 -1.35897e+06 24556.1 0 -1.37127e+06 24655 0 -1.38362e+06 24750.6 0 -1.39602e+06 24842.8 0 -1.40847e+06 24931.5 0 -1.42096e+06 25016.7 0 -1.43349e+06 25098.3 0 -1.44606e+06 25176.3 0 -1.45867e+06 25250.5 0 -1.47132e+06 25321.1 0 -1.484e+06 25387.8 0 -1.49671e+06 25450.7 0 -1.50945e+06 25509.8 0 -1.52222e+06 25564.9 0 -1.53502e+06 25616 0 -1.54785e+06 25663.1 0 -1.56069e+06 25706.2 0 -1.57356e+06 25745.1 0 -1.58644e+06 25780 0 -1.59934e+06 25810.8 0 -1.61226e+06 25837.4 0 -1.62518e+06 25859.9 0 -1.63812e+06 25878.1 0 -1.65107e+06 25892.2 0 -1.66402e+06 25902 0 -1.67697e+06 25907.7 0 -1.68993e+06 25909.1 0 -1.70289e+06 25906.3 0 -1.71584e+06 25899.2 0 -516795 13582.6 0 -521357 13797.2 0 -525990 14013.1 0 -530696 14230.2 0 -535475 14448.6 0 -540326 14668.3 0 -545251 14889.3 0 -550250 15111.5 0 -555323 15335 0 -560471 15559.8 0 -565694 15785.9 0 -570992 16013.2 0 -576367 16241.9 0 -581818 16471.7 0 -587346 16702.9 0 -592951 16935.3 0 -598634 17168.9 0 -604394 17403.8 0 -610234 17639.9 0 -616152 17877.2 0 -622150 18115.7 0 -628227 18355.4 0 -634384 18596.2 0 -640622 18838.3 0 -646941 19081.4 0 -653341 19325.7 0 -659823 19571.1 0 -666386 19817.5 0 -673032 20065 0 -679761 20313.6 0 -686573 20563.1 0 -693468 20813.6 0 -700447 21065.1 0 -707510 21317.5 0 -714657 21570.7 0 -721889 21824.8 0 -729205 22079.8 0 -736607 22335.5 0 -744094 22591.9 0 -751667 22849 0 -759326 23106.8 0 -767070 23365.1 0 -774901 23624.1 0 -782819 23883.5 0 -790823 24143.4 0 -798914 24403.7 0 -807091 24664.3 0 -815356 24925.3 0 -823708 25186.4 0 -832147 25447.8 0 -840673 25709.2 0 -849286 25970.7 0 -857986 26232.2 0 -866774 26493.6 0 -875649 26754.8 0 -884611 27015.8 0 -893660 27276.4 0 -902796 27536.7 0 -912019 27796.5 0 -921328 28055.8 0 -930724 28314.4 0 -940206 28572.3 0 -949774 28829.4 0 -959427 29085.6 0 -969166 29340.9 0 -978990 29595 0 -988898 29848 0 -998891 30099.7 0 -1.00897e+06 30350 0 -1.01913e+06 30598.9 0 -1.02937e+06 30846.2 0 -1.03969e+06 31091.8 0 -1.0501e+06 31335.6 0 -1.06059e+06 31577.6 0 -1.07116e+06 31817.5 0 -1.0818e+06 32055.4 0 -1.09253e+06 32291 0 -1.10334e+06 32524.3 0 -1.11422e+06 32755.2 0 -1.12518e+06 32983.5 0 -1.13621e+06 33209.2 0 -1.14732e+06 33432.1 0 -1.15851e+06 33652.1 0 -1.16976e+06 33869.1 0 -1.18109e+06 34083 0 -1.19249e+06 34293.6 0 -1.20396e+06 34500.9 0 -1.2155e+06 34704.7 0 -1.2271e+06 34904.9 0 -1.23877e+06 35101.5 0 -1.25051e+06 35294.2 0 -1.26231e+06 35482.9 0 -1.27417e+06 35667.7 0 -1.2861e+06 35848.2 0 -1.29808e+06 36024.5 0 -1.31012e+06 36196.5 0 -1.32222e+06 36363.9 0 -1.33437e+06 36526.7 0 -1.34658e+06 36684.9 0 -1.35884e+06 36838.2 0 -1.37115e+06 36986.7 0 -1.38351e+06 37130.1 0 -1.39591e+06 37268.5 0 -1.40836e+06 37401.6 0 -1.42086e+06 37529.5 0 -1.43339e+06 37652 0 -1.44597e+06 37769 0 -1.45858e+06 37880.5 0 -1.47123e+06 37986.4 0 -1.48392e+06 38086.6 0 -1.49663e+06 38181 0 -1.50938e+06 38269.6 0 -1.52216e+06 38352.2 0 -1.53496e+06 38429 0 -1.54779e+06 38499.7 0 -1.56064e+06 38564.3 0 -1.57351e+06 38622.8 0 -1.5864e+06 38675.2 0 -1.5993e+06 38721.4 0 -1.61223e+06 38761.3 0 -1.62516e+06 38795 0 -1.6381e+06 38822.4 0 -1.65105e+06 38843.5 0 -1.66401e+06 38858.3 0 -1.67697e+06 38866.8 0 -1.68993e+06 38868.9 0 -1.70289e+06 38864.7 0 -1.71585e+06 38854.1 0 -516545 18108.2 0 -521105 18394.3 0 -525738 18682.1 0 -530442 18971.6 0 -535219 19262.8 0 -540069 19555.7 0 -544993 19850.4 0 -549990 20146.7 0 -555062 20444.7 0 -560208 20744.4 0 -565429 21045.9 0 -570726 21349 0 -576100 21653.8 0 -581549 21960.4 0 -587075 22268.5 0 -592679 22578.4 0 -598360 22889.9 0 -604120 23203.1 0 -609958 23517.9 0 -615874 23834.3 0 -621871 24152.4 0 -627947 24472 0 -634103 24793.2 0 -640339 25115.9 0 -646657 25440.1 0 -653055 25765.9 0 -659536 26093.1 0 -666098 26421.7 0 -672743 26751.8 0 -679471 27083.2 0 -686281 27416 0 -693175 27750 0 -700153 28085.4 0 -707215 28421.9 0 -714361 28759.7 0 -721592 29098.5 0 -728907 29438.5 0 -736308 29779.5 0 -743795 30121.4 0 -751367 30464.3 0 -759024 30808.1 0 -766769 31152.6 0 -774599 31498 0 -782516 31843.9 0 -790519 32190.6 0 -798610 32537.7 0 -806787 32885.3 0 -815051 33233.3 0 -823403 33581.6 0 -831842 33930.2 0 -840368 34278.9 0 -848981 34627.6 0 -857681 34976.4 0 -866469 35325 0 -875344 35673.4 0 -884307 36021.5 0 -893356 36369.2 0 -902493 36716.3 0 -911716 37062.9 0 -921026 37408.7 0 -930423 37753.7 0 -939905 38097.7 0 -949474 38440.6 0 -959129 38782.4 0 -968869 39122.8 0 -978694 39461.8 0 -988604 39799.3 0 -998598 40135 0 -1.00868e+06 40469 0 -1.01884e+06 40800.9 0 -1.02908e+06 41130.8 0 -1.03941e+06 41458.5 0 -1.04982e+06 41783.7 0 -1.06031e+06 42106.5 0 -1.07088e+06 42426.6 0 -1.08153e+06 42743.9 0 -1.09226e+06 43058.3 0 -1.10306e+06 43369.6 0 -1.11395e+06 43677.6 0 -1.12491e+06 43982.2 0 -1.13595e+06 44283.3 0 -1.14706e+06 44580.6 0 -1.15825e+06 44874.2 0 -1.16951e+06 45163.7 0 -1.18084e+06 45449 0 -1.19225e+06 45730 0 -1.20372e+06 46006.6 0 -1.21526e+06 46278.5 0 -1.22687e+06 46545.7 0 -1.23855e+06 46807.9 0 -1.25029e+06 47065 0 -1.26209e+06 47316.9 0 -1.27396e+06 47563.3 0 -1.28589e+06 47804.3 0 -1.29788e+06 48039.5 0 -1.30992e+06 48268.9 0 -1.32203e+06 48492.3 0 -1.33419e+06 48709.6 0 -1.3464e+06 48920.7 0 -1.35866e+06 49125.3 0 -1.37098e+06 49323.4 0 -1.38334e+06 49514.8 0 -1.39575e+06 49699.4 0 -1.40821e+06 49877 0 -1.42071e+06 50047.7 0 -1.43325e+06 50211.1 0 -1.44583e+06 50367.3 0 -1.45845e+06 50516.1 0 -1.47111e+06 50657.4 0 -1.4838e+06 50791 0 -1.49653e+06 50917 0 -1.50928e+06 51035.2 0 -1.52206e+06 51145.6 0 -1.53487e+06 51248 0 -1.54771e+06 51342.3 0 -1.56057e+06 51428.6 0 -1.57345e+06 51506.7 0 -1.58634e+06 51576.6 0 -1.59925e+06 51638.2 0 -1.61218e+06 51691.5 0 -1.62512e+06 51736.5 0 -1.63807e+06 51773.1 0 -1.65103e+06 51801.2 0 -1.66399e+06 51820.9 0 -1.67696e+06 51832.2 0 -1.68993e+06 51835 0 -1.7029e+06 51829.4 0 -1.71587e+06 51815.3 0 -516224 22632.1 0 -520783 22989.7 0 -525413 23349.5 0 -530116 23711.4 0 -534891 24075.4 0 -539739 24441.5 0 -544660 24809.8 0 -549656 25180.2 0 -554725 25552.7 0 -559870 25927.4 0 -565089 26304.2 0 -570384 26683.1 0 -575756 27064.1 0 -581203 27447.3 0 -586728 27832.6 0 -592329 28219.9 0 -598009 28609.3 0 -603766 29000.8 0 -609603 29394.4 0 -615518 29789.9 0 -621512 30187.5 0 -627586 30587.1 0 -633740 30988.6 0 -639975 31392 0 -646291 31797.4 0 -652688 32204.6 0 -659167 32613.7 0 -665728 33024.5 0 -672371 33437.2 0 -679097 33851.5 0 -685906 34267.5 0 -692799 34685.2 0 -699775 35104.4 0 -706835 35525.2 0 -713980 35947.5 0 -721210 36371.1 0 -728524 36796.2 0 -735924 37222.5 0 -743409 37650.1 0 -750980 38078.8 0 -758637 38508.6 0 -766380 38939.4 0 -774210 39371.2 0 -782126 39803.8 0 -790129 40237.2 0 -798219 40671.2 0 -806396 41105.9 0 -814660 41541.1 0 -823011 41976.6 0 -831449 42412.5 0 -839975 42848.5 0 -848588 43284.6 0 -857289 43720.7 0 -866077 44156.7 0 -874953 44592.3 0 -883915 45027.6 0 -892965 45462.4 0 -902102 45896.6 0 -911327 46330 0 -920637 46762.4 0 -930035 47193.9 0 -939519 47624.1 0 -949089 48053 0 -958745 48480.4 0 -968487 48906.2 0 -978313 49330.2 0 -988225 49752.3 0 -998221 50172.2 0 -1.0083e+06 50589.9 0 -1.01847e+06 51005.1 0 -1.02871e+06 51417.7 0 -1.03904e+06 51827.5 0 -1.04945e+06 52234.4 0 -1.05995e+06 52638.1 0 -1.07052e+06 53038.5 0 -1.08117e+06 53435.4 0 -1.0919e+06 53828.7 0 -1.10272e+06 54218 0 -1.11361e+06 54603.3 0 -1.12457e+06 54984.4 0 -1.13561e+06 55361 0 -1.14673e+06 55733 0 -1.15792e+06 56100.2 0 -1.16919e+06 56462.4 0 -1.18052e+06 56819.4 0 -1.19193e+06 57170.9 0 -1.20341e+06 57516.9 0 -1.21496e+06 57857.1 0 -1.22657e+06 58191.3 0 -1.23826e+06 58519.4 0 -1.25e+06 58841.1 0 -1.26181e+06 59156.2 0 -1.27369e+06 59464.6 0 -1.28562e+06 59766 0 -1.29762e+06 60060.4 0 -1.30967e+06 60347.4 0 -1.32178e+06 60626.9 0 -1.33395e+06 60898.8 0 -1.34616e+06 61162.8 0 -1.35844e+06 61418.9 0 -1.37076e+06 61666.7 0 -1.38313e+06 61906.2 0 -1.39555e+06 62137.2 0 -1.40801e+06 62359.5 0 -1.42052e+06 62573 0 -1.43307e+06 62777.5 0 -1.44566e+06 62973 0 -1.45829e+06 63159.1 0 -1.47096e+06 63335.9 0 -1.48366e+06 63503.2 0 -1.49639e+06 63660.9 0 -1.50915e+06 63808.8 0 -1.52195e+06 63946.9 0 -1.53476e+06 64075 0 -1.54761e+06 64193.1 0 -1.56047e+06 64301 0 -1.57336e+06 64398.8 0 -1.58627e+06 64486.2 0 -1.59919e+06 64563.4 0 -1.61213e+06 64630.1 0 -1.62508e+06 64686.3 0 -1.63804e+06 64732.1 0 -1.651e+06 64767.3 0 -1.66398e+06 64792 0 -1.67695e+06 64806.1 0 -1.68993e+06 64809.6 0 -1.70291e+06 64802.6 0 -1.71589e+06 64784.9 0 -515832 27153.9 0 -520388 27583 0 -525016 28014.7 0 -529716 28448.9 0 -534489 28885.7 0 -539335 29325.1 0 -544254 29767 0 -549247 30211.5 0 -554314 30658.5 0 -559456 31108.2 0 -564674 31560.3 0 -569966 32015.1 0 -575335 32472.3 0 -580781 32932.1 0 -586303 33394.5 0 -591902 33859.3 0 -597579 34326.7 0 -603335 34796.5 0 -609169 35268.8 0 -615081 35743.5 0 -621074 36220.6 0 -627145 36700.2 0 -633298 37182 0 -639530 37666.2 0 -645844 38152.7 0 -652239 38641.5 0 -658716 39132.4 0 -665275 39625.6 0 -671916 40120.8 0 -678640 40618.1 0 -685447 41117.5 0 -692338 41618.8 0 -699313 42122 0 -706372 42627 0 -713515 43133.8 0 -720743 43642.4 0 -728056 44152.6 0 -735454 44664.3 0 -742938 45177.5 0 -750508 45692.1 0 -758164 46208.1 0 -765906 46725.2 0 -773734 47243.5 0 -781650 47762.9 0 -789652 48283.1 0 -797741 48804.2 0 -805917 49326 0 -814181 49848.4 0 -822531 50371.3 0 -830970 50894.5 0 -839495 51418 0 -848109 51941.6 0 -856809 52465.2 0 -865598 52988.6 0 -874473 53511.7 0 -883437 54034.3 0 -892487 54556.3 0 -901625 55077.6 0 -910850 55598 0 -920162 56117.2 0 -929561 56635.3 0 -939046 57151.9 0 -948618 57666.9 0 -958276 58180.1 0 -968019 58691.4 0 -977848 59200.6 0 -987762 59707.4 0 -997760 60211.7 0 -1.00784e+06 60713.2 0 -1.01801e+06 61211.9 0 -1.02826e+06 61707.4 0 -1.03859e+06 62199.5 0 -1.04901e+06 62688.2 0 -1.0595e+06 63173 0 -1.07008e+06 63653.9 0 -1.08074e+06 64130.6 0 -1.09147e+06 64602.9 0 -1.10229e+06 65070.6 0 -1.11318e+06 65533.3 0 -1.12415e+06 65991 0 -1.1352e+06 66443.4 0 -1.14632e+06 66890.2 0 -1.15752e+06 67331.3 0 -1.16879e+06 67766.3 0 -1.18013e+06 68195.1 0 -1.19155e+06 68617.4 0 -1.20303e+06 69033 0 -1.21459e+06 69441.7 0 -1.22621e+06 69843.2 0 -1.2379e+06 70237.3 0 -1.24965e+06 70623.7 0 -1.26147e+06 71002.3 0 -1.27335e+06 71372.7 0 -1.28529e+06 71734.9 0 -1.2973e+06 72088.5 0 -1.30936e+06 72433.3 0 -1.32148e+06 72769.2 0 -1.33365e+06 73095.8 0 -1.34588e+06 73413 0 -1.35816e+06 73720.6 0 -1.37049e+06 74018.4 0 -1.38287e+06 74306.2 0 -1.3953e+06 74583.7 0 -1.40777e+06 74850.8 0 -1.42029e+06 75107.3 0 -1.43285e+06 75353.1 0 -1.44545e+06 75587.9 0 -1.45809e+06 75811.6 0 -1.47077e+06 76024 0 -1.48348e+06 76225 0 -1.49622e+06 76414.5 0 -1.509e+06 76592.2 0 -1.5218e+06 76758.1 0 -1.53463e+06 76912.1 0 -1.54748e+06 77054 0 -1.56036e+06 77183.7 0 -1.57326e+06 77301.1 0 -1.58618e+06 77406.2 0 -1.59911e+06 77498.9 0 -1.61206e+06 77579.1 0 -1.62502e+06 77646.7 0 -1.63799e+06 77701.6 0 -1.65097e+06 77744 0 -1.66396e+06 77773.6 0 -1.67694e+06 77790.6 0 -1.68994e+06 77794.8 0 -1.70293e+06 77786.3 0 -1.71591e+06 77765.1 0 -515368 31673.1 0 -519922 32173.8 0 -524547 32677.4 0 -529244 33184 0 -534014 33693.6 0 -538857 34206.1 0 -543774 34721.7 0 -548764 35240.3 0 -553829 35761.8 0 -558968 36286.4 0 -564182 36813.9 0 -569472 37344.5 0 -574839 37878 0 -580281 38414.4 0 -585801 38953.9 0 -591397 39496.2 0 -597072 40041.5 0 -602824 40589.7 0 -608656 41140.8 0 -614566 41694.7 0 -620555 42251.4 0 -626625 42810.9 0 -632774 43373.2 0 -639005 43938.2 0 -645316 44505.9 0 -651708 45076.2 0 -658183 45649 0 -664739 46224.5 0 -671378 46802.4 0 -678100 47382.7 0 -684905 47965.4 0 -691794 48550.4 0 -698767 49137.6 0 -705824 49727 0 -712965 50318.5 0 -720191 50912 0 -727502 51507.4 0 -734899 52104.6 0 -742381 52703.6 0 -749950 53304.2 0 -757604 53906.3 0 -765345 54509.9 0 -773172 55114.9 0 -781086 55721 0 -789088 56328.2 0 -797176 56936.4 0 -805351 57545.5 0 -813614 58155.3 0 -821965 58765.6 0 -830402 59376.4 0 -838928 59987.4 0 -847541 60598.6 0 -856242 61209.8 0 -865031 61820.8 0 -873907 62431.4 0 -882871 63041.6 0 -891922 63651 0 -901061 64259.6 0 -910287 64867.1 0 -919600 65473.3 0 -929000 66078.1 0 -938487 66681.2 0 -948061 67282.5 0 -957720 67881.8 0 -967466 68478.8 0 -977297 69073.2 0 -987214 69665 0 -997215 70253.8 0 -1.0073e+06 70839.5 0 -1.01747e+06 71421.8 0 -1.02772e+06 72000.4 0 -1.03806e+06 72575.1 0 -1.04848e+06 73145.7 0 -1.05898e+06 73711.9 0 -1.06956e+06 74273.5 0 -1.08022e+06 74830.2 0 -1.09096e+06 75381.8 0 -1.10179e+06 75928 0 -1.11268e+06 76468.4 0 -1.12366e+06 77003 0 -1.13471e+06 77531.3 0 -1.14584e+06 78053.2 0 -1.15705e+06 78568.4 0 -1.16832e+06 79076.5 0 -1.17967e+06 79577.3 0 -1.19109e+06 80070.6 0 -1.20259e+06 80556.1 0 -1.21415e+06 81033.4 0 -1.22578e+06 81502.4 0 -1.23747e+06 81962.8 0 -1.24924e+06 82414.2 0 -1.26106e+06 82856.4 0 -1.27295e+06 83289.2 0 -1.28491e+06 83712.3 0 -1.29692e+06 84125.4 0 -1.30899e+06 84528.2 0 -1.32112e+06 84920.6 0 -1.3333e+06 85302.2 0 -1.34554e+06 85672.8 0 -1.35783e+06 86032.2 0 -1.37017e+06 86380.1 0 -1.38257e+06 86716.3 0 -1.395e+06 87040.6 0 -1.40749e+06 87352.7 0 -1.42002e+06 87652.4 0 -1.43259e+06 87939.6 0 -1.4452e+06 88213.9 0 -1.45786e+06 88475.3 0 -1.47054e+06 88723.5 0 -1.48327e+06 88958.4 0 -1.49602e+06 89179.8 0 -1.50881e+06 89387.5 0 -1.52163e+06 89581.3 0 -1.53447e+06 89761.2 0 -1.54734e+06 89927 0 -1.56023e+06 90078.6 0 -1.57314e+06 90215.9 0 -1.58607e+06 90338.7 0 -1.59902e+06 90446.9 0 -1.61198e+06 90540.6 0 -1.62495e+06 90619.6 0 -1.63794e+06 90683.9 0 -1.65093e+06 90733.3 0 -1.66393e+06 90768 0 -1.67693e+06 90787.8 0 -1.68994e+06 90792.7 0 -1.70294e+06 90782.8 0 -1.71594e+06 90758 0 -514833 36189.4 0 -519384 36761.5 0 -524006 37337.1 0 -528700 37916 0 -533467 38498.4 0 -538307 39084.2 0 -543220 39673.4 0 -548207 40266 0 -553268 40862.1 0 -558404 41461.6 0 -563616 42064.6 0 -568902 42670.9 0 -574265 43280.7 0 -579705 43893.8 0 -585221 44510.3 0 -590815 45130.2 0 -596486 45753.5 0 -602235 46380 0 -608064 47009.9 0 -613971 47643 0 -619957 48279.4 0 -626024 48918.9 0 -632170 49561.6 0 -638398 50207.4 0 -644706 50856.3 0 -651096 51508.2 0 -657568 52163.1 0 -664121 52820.9 0 -670758 53481.5 0 -677477 54144.9 0 -684280 54811.1 0 -691166 55479.8 0 -698136 56151.2 0 -705191 56825 0 -712330 57501.2 0 -719554 58179.7 0 -726863 58860.4 0 -734258 59543.2 0 -741739 60228 0 -749305 60914.7 0 -756958 61603.2 0 -764697 62293.3 0 -772523 62985 0 -780436 63678 0 -788436 64372.4 0 -796524 65067.8 0 -804698 65764.3 0 -812960 66461.5 0 -821310 67159.5 0 -829748 67857.9 0 -838273 68556.7 0 -846886 69255.7 0 -855587 69954.6 0 -864376 70653.4 0 -873253 71351.7 0 -882217 72049.5 0 -891269 72746.5 0 -900409 73442.6 0 -909636 74137.4 0 -918951 74830.8 0 -928353 75522.6 0 -937842 76212.5 0 -947417 76900.3 0 -957079 77585.7 0 -966827 78268.6 0 -976661 78948.6 0 -986581 79625.6 0 -996586 80299.2 0 -1.00667e+06 80969.2 0 -1.01685e+06 81635.3 0 -1.02711e+06 82297.3 0 -1.03745e+06 82954.8 0 -1.04787e+06 83607.6 0 -1.05837e+06 84255.5 0 -1.06896e+06 84898 0 -1.07963e+06 85535 0 -1.09038e+06 86166.1 0 -1.1012e+06 86791 0 -1.11211e+06 87409.5 0 -1.12309e+06 88021.1 0 -1.13415e+06 88625.7 0 -1.14529e+06 89222.9 0 -1.1565e+06 89812.5 0 -1.16778e+06 90394 0 -1.17914e+06 90967.1 0 -1.19057e+06 91531.7 0 -1.20207e+06 92087.2 0 -1.21364e+06 92633.6 0 -1.22528e+06 93170.3 0 -1.23699e+06 93697.2 0 -1.24876e+06 94213.9 0 -1.26059e+06 94720.1 0 -1.27249e+06 95215.4 0 -1.28446e+06 95699.7 0 -1.29648e+06 96172.5 0 -1.30856e+06 96633.7 0 -1.3207e+06 97082.8 0 -1.3329e+06 97519.6 0 -1.34515e+06 97943.9 0 -1.35745e+06 98355.3 0 -1.36981e+06 98753.6 0 -1.38221e+06 99138.4 0 -1.39466e+06 99509.7 0 -1.40716e+06 99867 0 -1.4197e+06 100210 0 -1.43229e+06 100539 0 -1.44492e+06 100853 0 -1.45758e+06 101152 0 -1.47028e+06 101436 0 -1.48302e+06 101705 0 -1.49579e+06 101959 0 -1.50859e+06 102197 0 -1.52142e+06 102419 0 -1.53428e+06 102624 0 -1.54717e+06 102814 0 -1.56007e+06 102988 0 -1.573e+06 103145 0 -1.58595e+06 103286 0 -1.59891e+06 103410 0 -1.61189e+06 103517 0 -1.62488e+06 103607 0 -1.63788e+06 103681 0 -1.65089e+06 103738 0 -1.6639e+06 103777 0 -1.67692e+06 103800 0 -1.68994e+06 103805 0 -1.70296e+06 103794 0 -1.71598e+06 103766 0 -514227 40702.3 0 -518774 41345.9 0 -523393 41993.4 0 -528083 42644.7 0 -532846 43299.8 0 -537682 43958.8 0 -542592 44621.7 0 -547575 45288.4 0 -552633 45959 0 -557766 46633.4 0 -562973 47311.8 0 -568256 47993.9 0 -573616 48679.9 0 -579051 49369.8 0 -584564 50063.4 0 -590154 50760.9 0 -595822 51462.1 0 -601568 52167.1 0 -607393 52875.7 0 -613296 53588.1 0 -619279 54304.1 0 -625342 55023.7 0 -631486 55746.9 0 -637710 56473.6 0 -644015 57203.8 0 -650402 57937.4 0 -656870 58674.3 0 -663421 59414.5 0 -670054 60157.9 0 -676771 60904.5 0 -683570 61654.1 0 -690454 62406.7 0 -697421 63162.2 0 -704473 63920.5 0 -711610 64681.5 0 -718832 65445.1 0 -726139 66211.3 0 -733531 66979.8 0 -741010 67750.5 0 -748574 68523.4 0 -756225 69298.3 0 -763963 70075.1 0 -771787 70853.7 0 -779699 71633.8 0 -787698 72415.4 0 -795784 73198.3 0 -803958 73982.2 0 -812219 74767.2 0 -820568 75552.8 0 -829005 76339.1 0 -837530 77125.8 0 -846143 77912.7 0 -854844 78699.6 0 -863633 79486.3 0 -872510 80272.6 0 -881476 81058.3 0 -890529 81843.1 0 -899670 82626.8 0 -908898 83409.1 0 -918215 84189.9 0 -927618 84968.9 0 -937109 85745.8 0 -946687 86520.3 0 -956352 87292.2 0 -966103 88061.2 0 -975940 88827.1 0 -985863 89589.5 0 -995871 90348.1 0 -1.00596e+06 91102.7 0 -1.01614e+06 91853 0 -1.0264e+06 92598.6 0 -1.03675e+06 93339.2 0 -1.04718e+06 94074.6 0 -1.05769e+06 94804.3 0 -1.06828e+06 95528.1 0 -1.07895e+06 96245.6 0 -1.08971e+06 96956.5 0 -1.10054e+06 97660.5 0 -1.11145e+06 98357.3 0 -1.12244e+06 99046.4 0 -1.13351e+06 99727.5 0 -1.14466e+06 100400 0 -1.15588e+06 101065 0 -1.16717e+06 101720 0 -1.17854e+06 102366 0 -1.18997e+06 103002 0 -1.20148e+06 103628 0 -1.21306e+06 104243 0 -1.22471e+06 104848 0 -1.23643e+06 105442 0 -1.24821e+06 106024 0 -1.26006e+06 106594 0 -1.27197e+06 107153 0 -1.28395e+06 107698 0 -1.29598e+06 108231 0 -1.30808e+06 108751 0 -1.32023e+06 109257 0 -1.33244e+06 109750 0 -1.3447e+06 110228 0 -1.35702e+06 110691 0 -1.36939e+06 111140 0 -1.38181e+06 111574 0 -1.39428e+06 111993 0 -1.40679e+06 112395 0 -1.41935e+06 112782 0 -1.43195e+06 113153 0 -1.44459e+06 113507 0 -1.45727e+06 113844 0 -1.46999e+06 114165 0 -1.48274e+06 114468 0 -1.49553e+06 114753 0 -1.50835e+06 115021 0 -1.5212e+06 115272 0 -1.53407e+06 115504 0 -1.54697e+06 115718 0 -1.5599e+06 115914 0 -1.57284e+06 116091 0 -1.58581e+06 116249 0 -1.59879e+06 116389 0 -1.61178e+06 116510 0 -1.62479e+06 116612 0 -1.63781e+06 116695 0 -1.65083e+06 116759 0 -1.66387e+06 116803 0 -1.67691e+06 116829 0 -1.68994e+06 116835 0 -1.70298e+06 116822 0 -1.71602e+06 116790 0 -513550 45211.4 0 -518093 45926.5 0 -522707 46645.8 0 -527394 47369.5 0 -532153 48097.4 0 -536985 48829.6 0 -541890 49566.1 0 -546870 50306.9 0 -551923 51052 0 -557052 51801.4 0 -562255 52555.1 0 -567534 53313.1 0 -572889 54075.4 0 -578321 54841.9 0 -583830 55612.7 0 -589416 56387.8 0 -595080 57167 0 -600822 57950.4 0 -606642 58737.9 0 -612542 59529.6 0 -618522 60325.3 0 -624581 61125 0 -630720 61928.7 0 -636941 62736.3 0 -643242 63547.8 0 -649625 64363.1 0 -656090 65182.1 0 -662638 66004.8 0 -669268 66831.1 0 -675981 67660.9 0 -682777 68494.1 0 -689658 69330.7 0 -696622 70170.4 0 -703671 71013.3 0 -710805 71859.3 0 -718024 72708.1 0 -725329 73559.8 0 -732719 74414.1 0 -740195 75270.9 0 -747757 76130.1 0 -755406 76991.6 0 -763142 77855.2 0 -770965 78720.8 0 -778874 79588.2 0 -786872 80457.1 0 -794957 81327.5 0 -803129 82199.2 0 -811390 83072 0 -819738 83945.6 0 -828175 84819.9 0 -836699 85694.7 0 -845312 86569.8 0 -854013 87444.8 0 -862803 88319.7 0 -871680 89194.1 0 -880646 90067.9 0 -889701 90940.7 0 -898843 91812.3 0 -908073 92682.4 0 -917391 93550.9 0 -926797 94417.3 0 -936290 95281.4 0 -945870 96143 0 -955538 97001.6 0 -965292 97857.1 0 -975133 98709 0 -985060 99557.2 0 -995072 100401 0 -1.00517e+06 101241 0 -1.01535e+06 102075 0 -1.02562e+06 102905 0 -1.03597e+06 103729 0 -1.0464e+06 104547 0 -1.05692e+06 105359 0 -1.06752e+06 106164 0 -1.0782e+06 106963 0 -1.08896e+06 107754 0 -1.0998e+06 108537 0 -1.11072e+06 109313 0 -1.12172e+06 110080 0 -1.1328e+06 110838 0 -1.14395e+06 111586 0 -1.15518e+06 112326 0 -1.16648e+06 113055 0 -1.17786e+06 113774 0 -1.18931e+06 114482 0 -1.20083e+06 115179 0 -1.21242e+06 115864 0 -1.22408e+06 116537 0 -1.23581e+06 117198 0 -1.2476e+06 117846 0 -1.25947e+06 118481 0 -1.27139e+06 119103 0 -1.28338e+06 119710 0 -1.29543e+06 120303 0 -1.30754e+06 120882 0 -1.3197e+06 121446 0 -1.33193e+06 121994 0 -1.34421e+06 122526 0 -1.35654e+06 123042 0 -1.36892e+06 123542 0 -1.38136e+06 124025 0 -1.39384e+06 124491 0 -1.40637e+06 124940 0 -1.41895e+06 125370 0 -1.43157e+06 125783 0 -1.44423e+06 126177 0 -1.45692e+06 126553 0 -1.46966e+06 126910 0 -1.48243e+06 127247 0 -1.49524e+06 127566 0 -1.50808e+06 127864 0 -1.52094e+06 128143 0 -1.53384e+06 128401 0 -1.54676e+06 128640 0 -1.5597e+06 128858 0 -1.57266e+06 129055 0 -1.58565e+06 129232 0 -1.59865e+06 129387 0 -1.61166e+06 129522 0 -1.62469e+06 129635 0 -1.63773e+06 129728 0 -1.65078e+06 129799 0 -1.66383e+06 129849 0 -1.67689e+06 129877 0 -1.68995e+06 129884 0 -1.70301e+06 129870 0 -1.71606e+06 129834 0 -512801 49716.3 0 -517340 50502.8 0 -521950 51294 0 -526632 52090 0 -531386 52890.6 0 -536214 53696 0 -541115 54506.2 0 -546089 55321 0 -551139 56140.7 0 -556262 56965 0 -561461 57794.2 0 -566736 58628 0 -572087 59466.6 0 -577514 60309.9 0 -583018 61157.8 0 -588600 62010.4 0 -594259 62867.7 0 -599997 63729.6 0 -605813 64596 0 -611709 65467 0 -617684 66342.4 0 -623739 67222.3 0 -629874 68106.6 0 -636091 68995.2 0 -642388 69888.1 0 -648767 70785.2 0 -655228 71686.4 0 -661772 72591.6 0 -668398 73500.8 0 -675108 74413.9 0 -681901 75330.8 0 -688778 76251.4 0 -695739 77175.5 0 -702785 78103.1 0 -709915 79034.1 0 -717131 79968.3 0 -724433 80905.6 0 -731820 81845.8 0 -739294 82788.9 0 -746854 83734.6 0 -754500 84682.8 0 -762234 85633.4 0 -770054 86586.1 0 -777963 87540.9 0 -785958 88497.4 0 -794042 89455.6 0 -802213 90415.2 0 -810472 91375.9 0 -818820 92337.7 0 -827256 93300.3 0 -835780 94263.4 0 -844393 95226.8 0 -853094 96190.2 0 -861884 97153.5 0 -870762 98116.3 0 -879729 99078.4 0 -888784 100039 0 -897928 100999 0 -907160 101957 0 -916480 102914 0 -925888 103868 0 -935383 104820 0 -944967 105769 0 -954637 106714 0 -964395 107656 0 -974240 108595 0 -984171 109529 