<?xml version="1.0"?> 
<VTKFile type="StructuredGrid" version="0.1"> 
<StructuredGrid WholeExtent="0 127 0 127 0 0"> 
<Piece Extent="0 127 0 127 0 0"> 
<PointData>
<DataArray type="Float32" Name="E" format="ascii" NumberOfComponents="3"> 
-2.6226e-06 8.60666e+06 0 2.67708e-07 6.75254e+06 0 -3.59709e-07 5.79549e+06 0 6.21018e-07 5.23962e+06 0 -4.25527e-07 4.85271e+06 0 1.65659e-07 4.55609e+06 0 2.20258e-07 4.31443e+06 0 2.70666e-07 4.11001e+06 0 -6.27246e-07 3.93246e+06 0 5.51809e-07 3.77499e+06 0 -5.09899e-08 3.63313e+06 0 -2.43075e-07 3.50369e+06 0 4.51691e-08 3.38432e+06 0 8.75443e-08 3.27329e+06 0 -1.60187e-07 3.16922e+06 0 1.19209e-07 3.07106e+06 0 -1.25729e-08 2.97796e+06 0 1.49012e-07 2.88922e+06 0 -1.1269e-07 2.80429e+06 0 -2.59839e-07 2.72269e+06 0 5.56931e-07 2.64404e+06 0 -6.02566e-07 2.56799e+06 0 6.83591e-07 2.49428e+06 0 -7.22706e-07 2.42266e+06 0 7.50646e-07 2.35292e+06 0 -7.84174e-07 2.2849e+06 0 7.61822e-07 2.21844e+06 0 -5.64381e-07 2.1534e+06 0 3.50177e-07 2.08969e+06 0 -3.37139e-07 2.02718e+06 0 2.8871e-07 1.96582e+06 0 -2.40281e-07 1.90552e+06 0 2.8871e-07 1.84622e+06 0 -9.31323e-08 1.78787e+06 0 1.15484e-07 1.73043e+06 0 -1.15484e-07 1.67386e+06 0 1.52737e-07 1.61814e+06 0 -9.68575e-08 1.56324e+06 0 7.45058e-09 1.50915e+06 0 4.84288e-08 1.45586e+06 0 -4.84288e-08 1.40336e+06 0 2.79397e-07 1.35166e+06 0 -4.84288e-07 1.30076e+06 0 4.32134e-07 1.25067e+06 0 -2.30968e-07 1.2014e+06 0 2.57045e-07 1.15296e+06 0 -1.63913e-07 1.10538e+06 0 3.72529e-08 1.05867e+06 0 -1.41561e-07 1.01286e+06 0 2.08616e-07 967982 0 -1.19209e-07 924053 0 1.04308e-07 881106 0 -1.11759e-07 839170 0 1.41561e-07 798273 0 -4.47035e-08 758445 0 9.68575e-08 719714 0 -1.56462e-07 682107 0 1.04308e-07 645650 0 -4.47035e-08 610366 0 1.78814e-07 576276 0 -1.04308e-07 543396 0 4.47035e-08 511741 0 -1.78814e-07 481321 0 3.72529e-07 452142 0 -7.7486e-07 424206 0 7.59959e-07 397511 0 -5.81145e-07 372050 0 5.36442e-07 347811 0 -6.4075e-07 324779 0 5.51343e-07 302935 0 -5.96046e-07 282256 0 5.96046e-07 262713 0 -6.25849e-07 244278 0 5.66244e-07 226917 0 -5.51343e-07 210594 0 5.51343e-07 195272 0 -5.36442e-07 180912 0 5.81145e-07 167473 0 -6.55651e-07 154915 0 6.10948e-07 143194 0 -5.66244e-07 132271 0 5.06639e-07 122102 0 -5.51343e-07 112647 0 5.06639e-07 103865 0 -4.17233e-07 95716.8 0 4.47035e-08 88164.1 0 2.08616e-07 81169.6 0 -1.93715e-07 74697.8 0 2.08616e-07 68714.2 0 -2.38419e-07 63186.3 0 1.3411e-07 58082.9 0 -1.93715e-07 53374.5 0 2.98023e-08 49033.2 0 -2.38419e-07 45032.5 0 4.17233e-07 41347.7 0 -4.17233e-07 37955.5 0 2.98023e-08 34834.1 0 2.98023e-08 31963.1 0 -1.19209e-07 29323.3 0 3.8743e-07 26897.1 0 -3.57628e-07 24667.9 0 2.38419e-07 22620.3 0 0 20740.2 0 2.98023e-08 19014.2 0 1.49012e-07 17430.1 0 -2.38419e-07 15976.7 0 2.98023e-08 14643.4 0 -1.19209e-07 13420.7 0 2.38419e-07 12299.5 0 -2.08616e-07 11271.6 0 1.49012e-07 10329.6 0 -3.57628e-07 9466.38 0 2.08616e-07 8675.66 0 8.9407e-08 7951.48 0 -2.08616e-07 7288.64 0 1.78814e-07 6681.9 0 -2.68221e-07 6127.52 0 2.08616e-07 5620.06 0 2.98023e-08 5158.75 0 -1.19209e-07 4735.06 0 5.96046e-08 4356.9 0 -8.9407e-08 4002.44 0 5.96046e-08 3709.04 0 -1.78814e-07 3406.17 0 1.78814e-07 3234.52 0 -2.38419e-07 2972.75 0 6.55651e-07 3062.3 0 -3.57628e-06 6075.91 0 -446879 7.15524e+06 0 -231606 6.01209e+06 0 -141093 5.37905e+06 0 -101665 4.95852e+06 0 -79345.7 4.6413e+06 0 -65319.7 4.38638e+06 0 -55641.7 4.1727e+06 0 -48579.8 3.98828e+06 0 -43248.3 3.82562e+06 0 -39077.2 3.67969e+06 0 -35743.6 3.54699e+06 0 -33024.6 3.42497e+06 0 -30771 3.31175e+06 0 -28878.5 3.20586e+06 0 -27270.5 3.10617e+06 0 -25891 3.01177e+06 0 -24697.1 2.92192e+06 0 -23656 2.83604e+06 0 -22741.8 2.75363e+06 0 -21934 2.67426e+06 0 -21216 2.59761e+06 0 -20574.3 2.52336e+06 0 -19997.8 2.45128e+06 0 -19477.2 2.38114e+06 0 -19004.7 2.31276e+06 0 -18573.8 2.24599e+06 0 -18178.6 2.18068e+06 0 -17814.3 2.11673e+06 0 -17476.7 2.05401e+06 0 -17162.1 1.99246e+06 0 -16867.1 1.93199e+06 0 -16588.7 1.87253e+06 0 -16324.5 1.81404e+06 0 -16072 1.75647e+06 0 -15829.1 1.69977e+06 0 -15593.9 1.64393e+06 0 -15364.4 1.58891e+06 0 -15139.1 1.5347e+06 0 -14916.5 1.48128e+06 0 -14695.1 1.42865e+06 0 -14473.7 1.37681e+06 0 -14251 1.32576e+06 0 -14025.9 1.2755e+06 0 -13797.4 1.22605e+06 0 -13564.6 1.17742e+06 0 -13326.5 1.12962e+06 0 -13082.5 1.08269e+06 0 -12831.9 1.03663e+06 0 -12574.2 991470 0 -12308.9 947243 0 -12035.7 903972 0 -11754.5 861688 0 -11465.1 820417 0 -11167.6 780189 0 -10862.2 741033 0 -10549.3 702976 0 -10229.3 666044 0 -9902.78 630262 0 -9570.55 595650 0 -9233.41 562229 0 -8892.32 530013 0 -8548.29 499015 0 -8202.46 469244 0 -7855.98 440704 0 -7510.05 413394 0 -7165.88 387312 0 -6824.7 362448 0 -6487.67 338790 0 -6155.94 316321 0 -5830.58 295021 0 -5512.59 274864 0 -5202.86 255823 0 -4902.2 237867 0 -4611.3 220963 0 -4330.76 205074 0 -4061.03 190164 0 -3802.47 176193 0 -3555.33 163121 0 -3319.75 150906 0 -3095.79 139509 0 -2883.4 128886 0 -2682.46 118999 0 -2492.79 109805 0 -2314.12 101266 0 -2146.17 93343.1 0 -1988.58 85998.5 0 -1840.98 79196.1 0 -1702.96 72901.2 0 -1574.1 67080.4 0 -1453.97 61702 0 -1342.12 56735.7 0 -1238.13 52152.9 0 -1141.54 47926.3 0 -1051.94 44030.5 0 -968.889 40441.4 0 -891.992 37136.5 0 -820.851 34094.4 0 -755.089 31295.5 0 -694.343 28721.4 0 -638.268 26354.7 0 -586.538 24179.5 0 -538.843 22180.9 0 -494.891 20345.1 0 -454.408 18659.2 0 -417.136 17111.4 0 -382.832 15690.8 0 -351.272 14387.1 0 -322.244 13191 0 -295.551 12093.9 0 -271.009 11087.7 0 -248.448 10165.2 0 -227.708 9319.67 0 -208.639 8544.77 0 -191.104 7834.9 0 -174.965 7184.79 0 -160.11 6589.79 0 -146.394 6045.37 0 -133.738 5548.08 0 -121.948 5093.58 0 -110.982 4680.65 0 -100.554 4303.39 0 -90.4394 3966.77 0 -80.5521 3657.7 0 -68.4428 3401.09 0 -56.6935 3161.66 0 -23.3204 3033.55 0 32.5265 3016.83 0 1189.37 3101.29 0 -540071 6.18911e+06 0 -316063 5.50822e+06 0 -220437 5.05847e+06 0 -169622 4.72369e+06 0 -137871 4.45611e+06 0 -116577 4.23372e+06 0 -101147 4.04275e+06 0 -89612.9 3.87508e+06 0 -80660.6 3.72522e+06 0 -73540.1 3.58936e+06 0 -67763.1 3.46478e+06 0 -62992.3 3.34943e+06 0 -58999.3 3.24177e+06 0 -55616.5 3.14058e+06 0 -52721.2 3.04492e+06 0 -50221.1 2.95399e+06 0 -48045 2.86718e+06 0 -46137.6 2.78397e+06 0 -44454.9 2.70392e+06 0 -42961.6 2.62666e+06 0 -41629 2.5519e+06 0 -40433.6 2.47936e+06 0 -39355.7 2.40883e+06 0 -38378.8 2.34011e+06 0 -37489.2 2.27304e+06 0 -36674.8 2.20747e+06 0 -35925.5 2.14328e+06 0 -35232.3 2.08037e+06 0 -34587.6 2.01863e+06 0 -33984.5 1.958e+06 0 -33416.9 1.8984e+06 0 -32879.4 1.83977e+06 0 -32367.2 1.78208e+06 0 -31875.7 1.72527e+06 0 -31401.1 1.66931e+06 0 -30939.6 1.61418e+06 0 -30487.8 1.55985e+06 0 -30042.7 1.50632e+06 0 -29601.3 1.45357e+06 0 -29161 1.4016e+06 0 -28719.3 1.35041e+06 0 -28274 1.3e+06 0 -27822.8 1.25038e+06 0 -27363.9 1.20157e+06 0 -26895.5 1.15358e+06 0 -26416.1 1.10643e+06 0 -25924.2 1.06013e+06 0 -25418.7 1.01472e+06 0 -24898.7 970212 0 -24363.2 926638 0 -23812 884026 0 -23244.6 842402 0 -22661.1 801797 0 -22061.8 762238 0 -21447 723753 0 -20817.7 686368 0 -20174.9 650109 0 -19519.8 614999 0 -18854 581057 0 -18179.2 548301 0 -17497.5 516746 0 -16810.8 486402 0 -16121.5 457275 0 -15431.9 429369 0 -14744.3 402682 0 -14061.3 377207 0 -13385 352936 0 -12717.9 329853 0 -12062.1 307942 0 -11419.7 287179 0 -10792.6 267539 0 -10182.5 248994 0 -9590.94 231512 0 -9019.15 215060 0 -8468.22 199601 0 -7939 185098 0 -7432.11 171511 0 -6947.98 158800 0 -6486.82 146926 0 -6048.66 135847 0 -5633.37 125523 0 -5240.67 115913 0 -4870.14 106978 0 -4521.24 98679.6 0 -4193.37 90979.1 0 -3885.8 83840.4 0 -3597.79 77228.2 0 -3328.52 71108.6 0 -3077.15 65449.1 0 -2842.83 60218.9 0 -2624.68 55388.6 0 -2421.83 50930.4 0 -2233.43 46817.9 0 -2058.63 43026.3 0 -1896.61 39532.3 0 -1746.57 36314.1 0 -1607.74 33351.1 0 -1479.38 30624.2 0 -1360.79 28115.4 0 -1251.3 25808.2 0 -1150.26 23686.9 0 -1057.08 21737.2 0 -971.195 19945.7 0 -892.06 18300 0 -819.18 16788.6 0 -752.084 15400.8 0 -690.334 14126.8 0 -633.518 12957.5 0 -581.254 11884.6 0 -533.185 10900.3 0 -488.978 9997.55 0 -448.322 9169.72 0 -410.927 8410.84 0 -376.522 7715.35 0 -344.846 7078.25 0 -315.662 6494.83 0 -288.716 5961.09 0 -263.809 5472.94 0 -240.599 5027.57 0 -219.01 4621.22 0 -198.238 4252.96 0 -178.68 3919.04 0 -157.59 3622.06 0 -136.617 3359.99 0 -104.212 3142.57 0 -56.8529 2990.04 0 131.741 2946.11 0 934.891 2496.32 0 -525295 5.61123e+06 0 -358091 5.15008e+06 0 -271253 4.8006e+06 0 -218191 4.52276e+06 0 -182988 4.29229e+06 0 -157895 4.09541e+06 0 -139200 3.92303e+06 0 -124833 3.76947e+06 0 -113449 3.63062e+06 0 -104260 3.50358e+06 0 -96698.8 3.3862e+06 0 -90389.7 3.27684e+06 0 -85059.7 3.17422e+06 0 -80508.4 3.07733e+06 0 -76586.5 2.98537e+06 0 -73179.2 2.89766e+06 0 -70197.6 2.81368e+06 0 -67571.4 2.73296e+06 0 -65244.2 2.65513e+06 0 -63170.4 2.57986e+06 0 -61312.5 2.50689e+06 0 -59639.7 2.43598e+06 0 -58125.8 2.36693e+06 0 -56749.1 2.29957e+06 0 -55490.8 2.23375e+06 0 -54335 2.16934e+06 0 -53267.8 2.10623e+06 0 -52277.1 2.04433e+06 0 -51352.1 1.98354e+06 0 -50483.7 1.9238e+06 0 -49663.2 1.86505e+06 0 -48883.3 1.80724e+06 0 -48137 1.75032e+06 0 -47418.3 1.69426e+06 0 -46721.4 1.63902e+06 0 -46041.3 1.5846e+06 0 -45373 1.53096e+06 0 -44712.3 1.4781e+06 0 -44055 1.42601e+06 0 -43397.3 1.37469e+06 0 -42735.7 1.32415e+06 0 -42067 1.27438e+06 0 -41388.1 1.2254e+06 0 -40696.4 1.17723e+06 0 -39989.4 1.12988e+06 0 -39264.8 1.08337e+06 0 -38520.9 1.03771e+06 0 -37756 992945 0 -36968.8 949088 0 -36158.4 906167 0 -35324.2 864212 0 -34465.9 823250 0 -33583.8 783309 0 -32678.4 744418 0 -31750.6 706603 0 -30801.8 669889 0 -29833.6 634301 0 -28848.2 599860 0 -27848 566586 0 -26835.6 534493 0 -25814.2 503595 0 -24786.8 473901 0 -23756.9 445415 0 -22728 418139 0 -21703.7 392068 0 -20687.3 367197 0 -19682.5 343513 0 -18692.6 321001 0 -17720.8 299641 0 -16770 279410 0 -15842.9 260282 0 -14942 242228 0 -14069.3 225215 0 -13226.7 209210 0 -12415.5 194175 0 -11637.1 180074 0 -10892.1 166867 0 -10181 154514 0 -9504.15 142976 0 -8861.44 132212 0 -8252.61 122182 0 -7677.17 112847 0 -7134.44 104168 0 -6623.6 96106.6 0 -6143.67 88626.4 0 -5693.59 81691.4 0 -5272.2 75267.4 0 -4878.3 69321.3 0 -4510.63 63821.6 0 -4167.91 58738.3 0 -3848.86 54042.8 0 -3552.18 49708.2 0 -3276.62 45708.9 0 -3020.94 42020.8 0 -2783.93 38621.4 0 -2564.41 35489.4 0 -2361.26 32605.1 0 -2173.4 29949.7 0 -1999.8 27506.2 0 -1839.47 25258.1 0 -1691.5 23190.7 0 -1555 21289.9 0 -1429.15 19542.7 0 -1313.16 17937.1 0 -1206.3 16462 0 -1107.9 15107.1 0 -1017.3 13862.9 0 -933.916 12720.6 0 -857.184 11672 0 -786.585 10709.7 0 -721.633 9826.71 0 -661.874 9016.77 0 -606.886 8274 0 -556.268 7593.05 0 -509.648 6969.02 0 -466.66 6397.45 0 -426.964 5874.25 0 -390.196 5395.79 0 -355.993 4958.84 0 -323.943 4560.5 0 -293.41 4198.88 0 -263.896 3871.55 0 -233.158 3579.96 0 -200.371 3321.82 0 -153.291 3109.24 0 -78.986 2944.26 0 158.199 2828.64 0 626.379 2322.92 0 -514152 5.22591e+06 0 -384271 4.86935e+06 0 -306369 4.58446e+06 0 -255050 4.34765e+06 0 -218877 4.14555e+06 0 -192097 3.96906e+06 0 -171631 3.81211e+06 0 -155513 3.67052e+06 0 -142541 3.5412e+06 0 -131913 3.42192e+06 0 -123067 3.31096e+06 0 -115614 3.20698e+06 0 -109264 3.10893e+06 0 -103803 3.01597e+06 0 -99066.6 2.92742e+06 0 -94928.6 2.8427e+06 0 -91289.2 2.76134e+06 0 -88068.5 2.68296e+06 0 -85202.4 2.60722e+06 0 -82638.1 2.53383e+06 0 -80332 2.46256e+06 0 -78248 2.3932e+06 0 -76355.3 2.32556e+06 0 -74628 2.2595e+06 0 -73043.8 2.19488e+06 0 -71583.4 2.13159e+06 0 -70230.1 2.06952e+06 0 -68969.3 2.00859e+06 0 -67787.8 1.94873e+06 0 -66674.2 1.88986e+06 0 -65618.1 1.83194e+06 0 -64610.2 1.77493e+06 0 -63642.1 1.71877e+06 0 -62706 1.66344e+06 0 -61795 1.60892e+06 0 -60902.4 1.55519e+06 0 -60022.3 1.50223e+06 0 -59149.1 1.45003e+06 0 -58277.7 1.3986e+06 0 -57403.2 1.34793e+06 0 -56521.3 1.29803e+06 0 -55627.8 1.2489e+06 0 -54719.1 1.20056e+06 0 -53791.6 1.15303e+06 0 -52842.3 1.10631e+06 0 -51868.6 1.06044e+06 0 -50868.2 1.01543e+06 0 -49839.1 971306 0 -48779.9 928098 0 -47689.6 885830 0 -46567.5 844532 0 -45413.8 804231 0 -44228.7 764954 0 -43013.4 726729 0 -41769.1 689582 0 -40498 653538 0 -39202.5 618620 0 -37885.6 584847 0 -36550.5 552237 0 -35201.1 520805 0 -33841.4 490561 0 -32475.8 461513 0 -31108.7 433664 0 -29744.8 407013 0 -28388.9 381556 0 -27045.4 357283 0 -25719 334181 0 -24414 312234 0 -23134.4 291420 0 -21884 271717 0 -20666.2 253095 0 -19484.2 235527 0 -18340.4 218978 0 -17237 203414 0 -16175.9 188799 0 -15158.4 175095 0 -14185.4 162262 0 -13257.5 150263 0 -12374.7 139057 0 -11537 128604 0 -10743.8 118865 0 -9994.52 109802 0 -9288.1 101375 0 -8623.42 93548.9 0 -7999.15 86286.4 0 -7413.85 79552.9 0 -6865.97 73315.1 0 -6353.91 67540.7 0 -5875.99 62199.2 0 -5430.54 57261.4 0 -5015.85 52699.5 0 -4630.25 48487.4 0 -4272.08 44600.3 0 -3939.72 41014.9 0 -3631.58 37709.4 0 -3346.16 34663.2 0 -3081.98 31857 0 -2837.64 29272.9 0 -2611.8 26894.2 0 -2403.18 24705.2 0 -2210.6 22691.4 0 -2032.89 20839.3 0 -1869 19136.3 0 -1717.91 17570.9 0 -1578.68 16132.2 0 -1450.42 14810.2 0 -1332.29 13595.8 0 -1223.54 12480.5 0 -1123.42 11456.3 0 -1031.27 10516 0 -946.462 9652.97 0 -868.401 8861.01 0 -796.54 8134.47 0 -730.361 7468.16 0 -669.377 6857.33 0 -613.114 6297.65 0 -561.125 5785.16 0 -512.927 5316.36 0 -468.069 4888.05 0 -425.91 4497.61 0 -385.841 4142.75 0 -346.607 3821.93 0 -306.491 3534.89 0 -261.668 3281.48 0 -201.867 3067.78 0 -101.908 2890.44 0 129.736 2707.4 0 405.754 2237.38 0 -507663 4.92645e+06 0 -402113 4.63968e+06 0 -332764 4.39876e+06 0 -284076 4.19257e+06 0 -248304 4.01268e+06 0 -221071 3.85283e+06 0 -199734 3.7088e+06 0 -182619 3.57744e+06 0 -168640 3.45642e+06 0 -157038 3.34398e+06 0 -147285 3.23875e+06 0 -138993 3.13963e+06 0 -131874 3.04574e+06 0 -125710 2.95639e+06 0 -120333 2.87097e+06 0 -115611 2.78902e+06 0 -111437 2.71012e+06 0 -107727 2.63393e+06 0 -104412 2.56015e+06 0 -101434 2.48854e+06 0 -98746.1 2.41888e+06 0 -96308.3 2.35098e+06 0 -94086.5 2.2847e+06 0 -92051.6 2.21989e+06 0 -90178.7 2.15642e+06 0 -88446.1 2.09421e+06 0 -86834.7 2.03314e+06 0 -85327.7 1.97316e+06 0 -83910.3 1.91419e+06 0 -82569.2 1.85618e+06 0 -81292.4 1.79907e+06 0 -80069.1 1.74283e+06 0 -78889.5 1.68742e+06 0 -77744.4 1.63282e+06 0 -76625.7 1.579e+06 0 -75525.6 1.52595e+06 0 -74437.1 1.47366e+06 0 -73353.5 1.42213e+06 0 -72268.9 1.37135e+06 0 -71177.5 1.32132e+06 0 -70074.1 1.27206e+06 0 -68953.9 1.22357e+06 0 -67812.4 1.17586e+06 0 -66645.7 1.12896e+06 0 -65450.3 1.08288e+06 0 -64223.1 1.03765e+06 0 -62961.5 993278 0 -61663.4 949801 0 -60327.2 907241 0 -58952 865627 0 -57537.4 824985 0 -56083.7 785344 0 -54591.6 746731 0 -53062.6 709172 0 -51498.9 672692 0 -49903.1 637317 0 -48278.7 603066 0 -46629.4 569958 0 -44959.6 538011 0 -43274.1 507236 0 -41578.2 477644 0 -39877.2 449238 0 -38176.9 422022 0 -36482.9 395993 0 -34801.1 371144 0 -33137.1 347464 0 -31496.3 324940 0 -29884.1 303553 0 -28305.4 283281 0 -26764.5 264099 0 -25265.6 245980 0 -23812.2 228891 0 -22407.3 212801 0 -21053.5 197674 0 -19752.6 183473 0 -18506.3 170161 0 -17315.4 157700 0 -16180.4 146050 0 -15101.4 135172 0 -14078.1 125026 0 -13109.7 115575 0 -12195.2 106779 0 -11333.5 98602.6 0 -10522.9 91008.1 0 -9761.88 83960.7 0 -9048.5 77426.4 0 -8380.86 71372.7 0 -7756.95 65768.2 0 -7174.7 60583.2 0 -6632.04 55789.4 0 -6126.86 51359.8 0 -5657.11 47269.1 0 -5220.76 43493.2 0 -4815.81 40009.7 0 -4440.35 36797.4 0 -4092.51 33836.2 0 -3770.51 31107.7 0 -3472.63 28594.5 0 -3197.25 26280.3 0 -2942.82 24150 0 -2707.88 22189.6 0 -2491.04 20386.1 0 -2291 18727.2 0 -2106.54 17201.8 0 -1936.49 15799.4 0 -1779.8 14510.4 0 -1635.44 13325.8 0 -1502.48 12237.5 0 -1380.05 11237.8 0 -1267.31 10319.6 0 -1163.52 9476.55 0 -1067.94 8702.65 0 -979.921 7992.42 0 -898.822 7340.84 0 -824.05 6743.3 0 -755.031 6195.6 0 -691.207 5693.91 0 -632.002 5234.83 0 -576.829 4815.24 0 -524.935 4432.63 0 -475.511 4084.62 0 -426.999 3769.98 0 -377.45 3487.4 0 -321.58 3237.66 0 -249.615 3020.73 0 -132.977 2828.91 0 72.4562 2597.93 0 244.344 2175.38 0 -504647 4.6866e+06 0 -415813 4.44435e+06 0 -353376 4.23573e+06 0 -307730 4.05337e+06 0 -273119 3.89126e+06 0 -246084 3.74519e+06 0 -224476 3.61208e+06 0 -206869 3.48954e+06 0 -192295 3.37579e+06 0 -180067 3.26942e+06 0 -169690 3.16932e+06 0 -160797 3.07459e+06 0 -153108 2.9845e+06 0 -146410 2.89845e+06 0 -140534 2.81595e+06 0 -135348 2.73656e+06 0 -130743 2.65995e+06 0 -126632 2.58581e+06 0 -122944 2.51388e+06 0 -119620 2.44395e+06 0 -116607 2.37582e+06 0 -113865 2.30933e+06 0 -111357 2.24433e+06 0 -109052 2.18071e+06 0 -106923 2.11836e+06 0 -104947 2.05718e+06 0 -103101 1.99709e+06 0 -101369 1.93803e+06 0 -99733.9 1.87993e+06 0 -98180.6 1.82274e+06 0 -96695.9 1.76642e+06 0 -95267.7 1.71094e+06 0 -93885.1 1.65627e+06 0 -92537.9 1.60238e+06 0 -91216.7 1.54925e+06 0 -89912.8 1.49688e+06 0 -88618.2 1.44526e+06 0 -87325.5 1.39438e+06 0 -86027.7 1.34424e+06 0 -84718.4 1.29485e+06 0 -83391.7 1.24623e+06 0 -82042.1 1.19837e+06 0 -80664.7 1.1513e+06 0 -79255 1.10503e+06 0 -77809.1 1.05959e+06 0 -76323.7 1.01499e+06 0 -74796.1 971262 0 -73223.9 928429 0 -71605.8 886518 0 -69940.9 845556 0 -68229.1 805571 0 -66471 766589 0 -64668 728639 0 -62822.1 691745 0 -60936.2 655932 0 -59013.9 621223 0 -57059.3 587638 0 -55077.4 555195 0 -53073.5 523908 0 -51053.6 493788 0 -49023.9 464843 0 -46991 437078 0 -44961.8 410491 0 -42943 385079 0 -40941.5 360834 0 -38963.8 337744 0 -37016.5 315792 0 -35105.4 294960 0 -33236.4 275225 0 -31414.3 256560 0 -29644 238936 0 -27929.2 222323 0 -26273.4 206686 0 -24679.3 191991 0 -23148.9 178200 0 -21683.9 165276 0 -20285.1 153181 0 -18952.9 141876 0 -17687.3 131321 0 -16487.6 121479 0 -15352.9 112312 0 -14281.9 103781 0 -13273 95851 0 -12324.4 88485.6 0 -11433.9 81650.8 0 -10599.4 75313.3 0 -9818.61 69441.5 0 -9089.02 64005 0 -8408.22 58974.8 0 -7773.73 54323.4 0 -7183.08 50024.7 0 -6633.85 46054.2 0 -6123.63 42388.6 0 -5650.1 39006.1 0 -5210.99 35886 0 -4804.14 33009.3 0 -4427.44 30357.9 0 -4078.9 27915 0 -3756.62 25665 0 -3458.8 23593.1 0 -3183.71 21685.9 0 -2929.76 19930.7 0 -2695.41 18315.8 0 -2479.25 16830.3 0 -2279.93 15464.2 0 -2096.19 14208 0 -1926.87 13053.3 0 -1770.87 11992 0 -1627.16 11016.7 0 -1494.78 10120.7 0 -1372.86 9297.67 0 -1260.54 8541.9 0 -1157.06 7848.05 0 -1061.68 7211.26 0 -973.684 6627.08 0 -892.42 6091.43 0 -817.222 5600.61 0 -747.421 5151.28 0 -682.299 4740.49 0 -621.008 4365.65 0 -562.503 4024.57 0 -505.082 3715.7 0 -446.302 3437.64 0 -380.444 3190.05 0 -297.653 2969.64 0 -173.433 2762.21 0 1.83723 2504.39 0 117.449 2124.63 0 -503514 4.48315e+06 0 -426488 4.2743e+06 0 -370217 4.09064e+06 0 -327665 3.927e+06 0 -294503 3.77942e+06 0 -268064 3.6449e+06 0 -246570 3.5211e+06 0 -228813 3.40624e+06 0 -213942 3.29889e+06 0 -201343 3.19793e+06 0 -190561 3.10244e+06 0 -181252 3.0117e+06 0 -173152 2.92507e+06 0 -166055 2.84207e+06 0 -159797 2.76225e+06 0 -154246 2.68525e+06 0 -149297 2.61078e+06 0 -144861 2.53856e+06 0 -140865 2.46838e+06 0 -137250 2.40003e+06 0 -133962 2.33335e+06 0 -130959 2.2682e+06 0 -128202 2.20444e+06 0 -125660 2.14196e+06 0 -123303 2.08067e+06 0 -121106 2.02049e+06 0 -119048 1.96135e+06 0 -117109 1.90318e+06 0 -115271 1.84592e+06 0 -113519 1.78954e+06 0 -111837 1.734e+06 0 -110213 1.67927e+06 0 -108634 1.62531e+06 0 -107090 1.57212e+06 0 -105570 1.51968e+06 0 -104065 1.46798e+06 0 -102566 1.41701e+06 0 -101064 1.36678e+06 0 -99552.6 1.31728e+06 0 -98023.8 1.26853e+06 0 -96471.3 1.22054e+06 0 -94889.1 1.17331e+06 0 -93272 1.12687e+06 0 -91615.1 1.08124e+06 0 -89914.2 1.03643e+06 0 -88165.8 992469 0 -86367 949381 0 -84515.8 907192 0 -82610.8 865929 0 -80651.4 825619 0 -78637.9 786289 0 -76571.3 747967 0 -74453.8 710679 0 -72288 674449 0 -70077.6 639302 0 -67827.2 605259 0 -65541.8 572339 0 -63227.4 540557 0 -60890.6 509928 0 -58538.3 480461 0 -56177.9 452161 0 -53817.2 425032 0 -51463.9 399071 0 -49126.1 374273 0 -46811.5 350627 0 -44527.5 328122 0 -42281.6 306739 0 -40080.3 286457 0 -37930.1 267253 0 -35836.5 249100 0 -33804.5 231967 0 -31838.4 215824 0 -29941.9 200636 0 -28117.7 186367 0 -26368.1 172981 0 -24694.5 160441 0 -23097.8 148707 0 -21578.1 137742 0 -20135.3 127508 0 -18768.4 117965 0 -17476.2 109078 0 -16257.1 100809 0 -15109.1 93122.1 0 -14030 85983 0 -13017.4 79358 0 -12068.6 73215 0 -11181 67522.9 0 -10351.7 62252.3 0 -9578 57375.1 0 -8856.94 52864.6 0 -8185.71 48695.5 0 -7561.53 44843.9 0 -6981.65 41287.4 0 -6443.43 38004.8 0 -5944.28 34976.3 0 -5481.72 32183.3 0 -5053.38 29608.4 0 -4656.98 27235.3 0 -4290.38 25048.9 0 -3951.51 23035.1 0 -3638.44 21180.7 0 -3349.34 19473.7 0 -3082.5 17902.5 0 -2836.28 16456.8 0 -2609.18 15126.8 0 -2399.77 13903.5 0 -2206.72 12778.5 0 -2028.8 11744.1 0 -1864.84 10793.3 0 -1713.76 9919.5 0 -1574.54 9116.56 0 -1446.26 8378.94 0 -1328 7701.52 0 -1218.95 7079.59 0 -1118.3 6508.82 0 -1025.3 5985.27 0 -939.185 5505.36 0 -859.195 5065.84 0 -784.499 4663.83 0 -714.143 4296.78 0 -646.886 3962.53 0 -580.904 3659.29 0 -513.327 3385.43 0 -438.519 3139.25 0 -347.002 2914.99 0 -221.903 2694.17 0 -73.6761 2424.54 0 10.4884 2080.55 0 -502845 4.30731e+06 0 -435514 4.12397e+06 0 -384536 3.95965e+06 0 -344879 3.81117e+06 0 -313309 3.67567e+06 0 -287688 3.55093e+06 0 -266553 3.43518e+06 0 -248881 3.32702e+06 0 -233928 3.22534e+06 0 -221148 3.12921e+06 0 -210127 3.0379e+06 0 -200547 2.95077e+06 0 -192162 2.86732e+06 0 -184776 2.78712e+06 0 -178230 2.70979e+06 0 -172399 2.63502e+06 0 -167178 2.56255e+06 0 -162479 2.49214e+06 0 -158231 2.4236e+06 0 -154373 2.35676e+06 0 -150853 2.29146e+06 0 -147625 2.22758e+06 0 -144652 2.165e+06 0 -141900 2.10362e+06 0 -139339 2.04336e+06 0 -136944 1.98415e+06 0 -134691 1.92591e+06 0 -132561 1.86861e+06 0 -130533 1.81218e+06 0 -128592 1.75659e+06 0 -126723 1.7018e+06 0 -124910 1.6478e+06 0 -123141 1.59455e+06 0 -121404 1.54205e+06 0 -119689 1.49028e+06 0 -117984 1.43924e+06 0 -116280 1.38893e+06 0 -114569 1.33933e+06 0 -112842 1.29048e+06 0 -111091 1.24236e+06 0 -109310 1.19499e+06 0 -107491 1.1484e+06 0 -105630 1.10259e+06 0 -103722 1.05758e+06 0 -101761 1.01341e+06 0 -99744.3 970080 0 -97669.4 927632 0 -95534 886087 0 -93337.2 845472 0 -91078.5 805814 0 -88759 767140 0 -86380.2 729477 0 -83944.8 692851 0 -81456.5 657285 0 -78919.8 622803 0 -76340.1 589424 0 -73723.7 557167 0 -71077.6 526046 0 -68409.5 496073 0 -65727.4 467255 0 -63039.9 439598 0 -60355.7 413102 0 -57683.9 387763 0 -55033.3 363575 0 -52412.6 340525 0 -49830.2 318600 0 -47294 297780 0 -44811.4 278044 0 -42389.4 259367 0 -40033.9 241721 0 -37750.3 225074 0 -35543.1 209396 0 -33416.1 194651 0 -31372.1 180804 0 -29413.4 167819 0 -27541.4 155656 0 -25756.6 144280 0 -24059.1 133651 0 -22448.4 123732 0 -20923.3 114486 0 -19482.2 105875 0 -18123.2 97863.9 0 -16844 90417.4 0 -15641.9 83501.6 0 -14514.2 77083.8 0 -13457.9 71132.7 0 -12469.7 65618.1 0 -11546.7 60511.4 0 -10685.5 55785.4 0 -9883 51414 0 -9135.95 47372.9 0 -8441.24 43639 0 -7795.81 40190.4 0 -7196.68 37006.8 0 -6640.98 34068.9 0 -6125.94 31358.8 0 -5648.93 28859.7 0 -5207.41 26555.8 0 -4798.98 24432.6 0 -4421.37 22476.5 0 -4072.42 20674.6 0 -3750.11 19015.4 0 -3452.52 17487.8 0 -3177.86 16081.7 0 -2924.44 14787.6 0 -2690.69 13597 0 -2475.14 12501.7 0 -2276.4 11494.3 0 -2093.19 10568 0 -1924.32 9716.28 0 -1768.64 8933.41 0 -1625.13 8213.98 0 -1492.78 7553.02 0 -1370.68 6945.97 0 -1257.93 6388.65 0 -1153.69 5877.25 0 -1057.11 5408.28 0 -967.341 4978.59 0 -883.449 4585.38 0 -804.371 4226.1 0 -728.719 3898.59 0 -654.549 3600.83 0 -578.761 3330.85 0 -496.057 3085.66 0 -398.197 2857.75 0 -276.192 2627.06 0 -149.863 2355.47 0 -83.3872 2040.87 0 -503158 4.15269e+06 0 -443499 3.98888e+06 0 -397045 3.84017e+06 0 -360100 3.70419e+06 0 -330141 3.57884e+06 0 -305456 3.46247e+06 0 -284836 3.35371e+06 0 -267410 3.25146e+06 0 -252530 3.15482e+06 0 -239710 3.06303e+06 0 -228578 2.97549e+06 0 -218841 2.89167e+06 0 -210272 2.81114e+06 0 -202685 2.73352e+06 0 -195931 2.6585e+06 0 -189888 2.58581e+06 0 -184454 2.51521e+06 0 -179547 2.44651e+06 0 -175093 2.37952e+06 0 -171034 2.3141e+06 0 -167316 2.25012e+06 0 -163895 2.18745e+06 0 -160733 2.126e+06 0 -157796 2.06568e+06 0 -155052 2.00641e+06 0 -152477 1.94813e+06 0 -150045 1.89078e+06 0 -147736 1.83431e+06 0 -145530 1.77868e+06 0 -143410 1.72386e+06 0 -141359 1.66982e+06 0 -139363 1.61653e+06 0 -137409 1.56398e+06 0 -135482 1.51216e+06 0 -133572 1.46106e+06 0 -131668 1.41067e+06 0 -129760 1.36099e+06 0 -127838 1.31204e+06 0 -125893 1.26381e+06 0 -123917 1.21632e+06 0 -121903 1.16959e+06 0 -119845 1.12362e+06 0 -117735 1.07843e+06 0 -115570 1.03406e+06 0 -113344 990515 0 -111054 947826 0 -108698 906017 0 -106273 865115 0 -103780 825148 0 -101217 786141 0 -98587.7 748123 0 -95893.1 711119 0 -93136.9 675155 0 -90323.8 640252 0 -87459.3 606434 0 -84549.8 573719 0 -81602.8 542124 0 -78626.2 511662 0 -75628.9 482342 0 -72620.2 454172 0 -69609.6 427155 0 -66607.2 401289 0 -63622.7 376569 0 -60666 352987 0 -57746.6 330529 0 -54873.8 309180 0 -52056 288920 0 -49301.4 269725 0 -46617.2 251569 0 -44009.7 234424 0 -41484.6 218259 0 -39046.6 203041 0 -36699.4 188734 0 -34446 175304 0 -32288.4 162714 0 -30227.8 150925 0 -28264.7 139902 0 -26398.9 129605 0 -24629.5 119997 0 -22955.1 111043 0 -21373.7 102705 0 -19883 94947.9 0 -18480.2 87738.4 0 -17162.5 81042.9 0 -15926.6 74829.5 0 -14769.1 69067.7 0 -13686.6 63728.3 0 -12675.5 58783.4 0 -11732.2 54206.6 0 -10853.2 49972.7 0 -10035 46058.1 0 -9274.06 42440.4 0 -8567.05 39098.6 0 -7910.71 36012.9 0 -7301.87 33164.6 0 -6737.5 30536.6 0 -6214.71 28112.6 0 -5730.72 25877.3 0 -5282.92 23816.8 0 -4868.8 21917.8 0 -4486.03 20168.1 0 -4132.38 18556.4 0 -3805.77 17072 0 -3504.23 15705.3 0 -3225.93 14447.1 0 -2969.14 13289 0 -2732.27 12223.3 0 -2513.8 11242.8 0 -2312.33 10340.8 0 -2126.55 9511.26 0 -1955.23 8748.46 0 -1797.22 8047.2 0 -1651.45 7402.71 0 -1516.9 6810.56 0 -1392.6 6266.72 0 -1277.62 5767.48 0 -1171.02 5309.48 0 -1071.88 4889.64 0 -979.172 4505.21 0 -891.729 4153.68 0 -808.058 3832.81 0 -726.119 3540.41 0 -642.781 3274.06 0 -553.281 3029.74 0 -451.262 2798.8 0 -334.219 2562.17 0 -224.599 2294.35 0 -167.99 2004 0 -504183 4.0142e+06 0 -450802 3.86615e+06 0 -408287 3.7302e+06 0 -373824 3.60466e+06 0 -345440 3.48796e+06 0 -321750 3.37882e+06 0 -301741 3.27619e+06 0 -284669 3.17917e+06 0 -269972 3.08703e+06 0 -257218 2.99916e+06 0 -246072 2.91505e+06 0 -236268 2.83425e+06 0 -227594 2.7564e+06 0 -219879 2.68117e+06 0 -212980 2.6083e+06 0 -206782 2.53755e+06 0 -201187 2.46872e+06 0 -196115 2.40162e+06 0 -191496 2.3361e+06 0 -187269 2.27203e+06 0 -183385 2.2093e+06 0 -179799 2.14779e+06 0 -176471 2.08742e+06 0 -173369 2.02811e+06 0 -170460 1.9698e+06 0 -167720 1.91242e+06 0 -165122 1.85593e+06 0 -162645 1.80027e+06 0 -160270 1.74543e+06 0 -157978 1.69136e+06 0 -155752 1.63804e+06 0 -153578 1.58546e+06 0 -151440 1.5336e+06 0 -149325 1.48244e+06 0 -147222 1.432e+06 0 -145118 1.38225e+06 0 -143004 1.33322e+06 0 -140868 1.2849e+06 0 -138703 1.2373e+06 0 -136499 1.19043e+06 0 -134248 1.14432e+06 0 -131945 1.09898e+06 0 -129582 1.05442e+06 0 -127155 1.01067e+06 0 -124659 967758 0 -122091 925704 0 -119448 884534 0 -116729 844276 0 -113934 804956 0 -111063 766602 0 -108119 729240 0 -105106 692895 0 -102026 657591 0 -98886.5 623352 0 -95693.1 590197 0 -92453.8 558145 0 -89176.8 527210 0 -85871.6 497405 0 -82547.9 468738 0 -79216.2 441214 0 -75887.3 414834 0 -72571.9 389595 0 -69281.1 365490 0 -66025.5 342511 0 -62815.4 320641 0 -59660.6 299864 0 -56570.4 280158 0 -53553.2 261499 0 -50616.6 243860 0 -47767.3 227212 0 -45010.9 211523 0 -42352.4 196760 0 -39795.4 182887 0 -37342.8 169869 0 -34996.4 157669 0 -32757.2 146249 0 -30625.6 135573 0 -28600.8 125604 0 -26681.8 116304 0 -24866.8 107637 0 -23153.3 99567.9 0 -21538.8 92062.3 0 -20020.1 85086.4 0 -18593.9 78608.1 0 -17256.5 72596.3 0 -16004.3 67021.3 0 -14833.3 61854.7 0 -13739.7 57069.5 0 -12719.5 52639.9 0 -11768.9 48541.7 0 -10884 44752 0 -10061.1 41249.1 0 -9296.37 38012.8 0 -8586.4 35023.8 0 -7927.73 32264.2 0 -7317.09 29717.4 0 -6751.33 27367.7 0 -6227.46 25200.4 0 -5742.66 23201.9 0 -5294.22 21359.6 0 -4879.63 19661.6 0 -4496.47 18097 0 -4142.51 16655.6 0 -3815.62 15328 0 -3513.83 14105.4 0 -3235.29 12979.8 0 -2978.26 11943.5 0 -2741.12 10989.8 0 -2522.35 10112.1 0 -2320.54 9304.65 0 -2134.37 8561.88 0 -1962.6 7878.8 0 -1804.06 7250.76 0 -1657.66 6673.52 0 -1522.34 6143.16 0 -1397.1 5656.1 0 -1280.94 5209.07 0 -1172.84 4799.08 0 -1071.7 4423.42 0 -976.26 4079.6 0 -884.963 3765.29 0 -795.719 3478.14 0 -705.529 3215.26 0 -610.326 2971.92 0 -505.888 2738.99 0 -394.273 2499.9 0 -296.898 2239.01 0 -245.426 1968.87 0 -505843 3.88877e+06 0 -457691 3.75353e+06 0 -418599 3.6282e+06 0 -386409 3.51151e+06 0 -359543 3.40225e+06 0 -336862 3.29942e+06 0 -317518 3.20218e+06 0 -300874 3.10982e+06 0 -286438 3.02173e+06 0 -273829 2.9374e+06 0 -262744 2.85641e+06 0 -252942 2.77839e+06 0 -244228 2.70301e+06 0 -236441 2.63001e+06 0 -229450 2.55914e+06 0 -223144 2.4902e+06 0 -217430 2.42302e+06 0 -212231 2.35743e+06 0 -207478 2.2933e+06 0 -203115 2.23052e+06 0 -199090 2.16898e+06 0 -195361 2.10858e+06 0 -191888 2.04925e+06 0 -188637 1.99092e+06 0 -185579 1.93352e+06 0 -182686 1.87702e+06 0 -179933 1.82136e+06 0 -177298 1.7665e+06 0 -174761 1.71242e+06 0 -172302 1.65908e+06 0 -169906 1.60647e+06 0 -167555 1.55458e+06 0 -165236 1.50339e+06 0 -162934 1.4529e+06 0 -160637 1.4031e+06 0 -158333 1.354e+06 0 -156010 1.30559e+06 0 -153658 1.2579e+06 0 -151269 1.21092e+06 0 -148832 1.16468e+06 0 -146341 1.11919e+06 0 -143787 1.07447e+06 0 -141166 1.03054e+06 0 -138472 987417 0 -135700 945134 0 -132848 903715 0 -129913 863184 0 -126895 823570 0 -123794 784898 0 -120611 747196 0 -117349 710489 0 -114014 674803 0 -110609 640161 0 -107141 606585 0 -103618 574093 0 -100049 542703 0 -96443.9 512428 0 -92812.3 483278 0 -89165.5 455262 0 -85515.1 428381 0 -81873 402635 0 -78250.8 378021 0 -74660.5 354529 0 -71113.6 332148 0 -67621 310862 0 -64193.1 290653 0 -60839.8 271497 0 -57569.7 253370 0 -54390.7 236243 0 -51309.8 220087 0 -48332.6 204869 0 -45464 190555 0 -42707.5 177111 0 -40065.9 164499 0 -37540.8 152685 0 -35133 141630 0 -32842.3 131297 0 -30667.9 121650 0 -28608.2 112653 0 -26661.1