<?xml version="1.0"?> 
<VTKFile type="StructuredGrid" version="0.1"> 
<StructuredGrid WholeExtent="0 127 0 127 0 0"> 
<Piece Extent="0 127 0 127 0 0"> 
<PointData>
<DataArray type="Float32" Name="E" format="ascii" NumberOfComponents="3"> 
9.53674e-06 7.35107e+06 0 -1.62509e-06 2.72247e+06 0 5.62286e-08 1.58977e+06 0 -2.01166e-07 1.41875e+06 0 5.82542e-07 1.3812e+06 0 1.43191e-07 1.29334e+06 0 1.4808e-07 1.16463e+06 0 -2.37022e-07 1.03104e+06 0 -1.00397e-06 913066 0 1.40257e-06 815128 0 -8.56817e-07 733807 0 -1.85333e-07 664139 0 -5.92321e-07 602333 0 9.574e-07 546231 0 -9.38773e-07 494821 0 3.18512e-07 447655 0 3.1665e-08 404464 0 1.19954e-06 364986 0 -1.51992e-06 328935 0 7.33882e-07 296017 0 -5.43892e-07 265957 0 1.50874e-06 238509 0 -1.88127e-06 213461 0 1.52364e-06 190628 0 -1.17719e-06 169844 0 1.3262e-06 150957 0 -1.54972e-06 133827 0 2.30968e-06 118323 0 -1.56462e-06 104321 0 2.04891e-06 91707.5 0 -2.68966e-06 80373.1 0 2.35438e-06 70216 0 -1.08778e-06 61140.2 0 6.70552e-07 53055.3 0 -8.49366e-07 45876 0 5.06639e-07 39522.3 0 -1.78814e-07 33918.8 0 2.38419e-07 28994.8 0 1.49012e-07 24684.4 0 -2.23517e-07 20926 0 -1.78814e-07 17662.2 0 4.02331e-07 14840 0 -2.38419e-07 12410.5 0 -4.47035e-08 10328.7 0 -2.68221e-07 8553.16 0 3.12924e-07 7046.47 0 5.96046e-08 5774.47 0 1.49012e-07 4706.36 0 -3.57628e-07 3814.42 0 2.38419e-07 3073.89 0 -2.08616e-07 2462.71 0 2.98023e-08 1961.38 0 0 1552.71 0 1.19209e-07 1221.71 0 5.96046e-07 955.336 0 3.27826e-07 742.366 0 -2.38419e-07 573.209 0 8.04663e-07 439.737 0 -7.45058e-07 335.125 0 1.07288e-06 253.685 0 -6.85453e-07 190.717 0 8.34465e-07 142.367 0 -9.23872e-07 105.5 0 3.57628e-07 77.5895 0 -6.25849e-07 56.6137 0 -3.57628e-07 40.9705 0 2.98023e-08 29.3978 0 1.78814e-07 20.9083 0 1.78814e-07 14.7343 0 -1.19209e-07 10.2837 0 1.19209e-07 7.10427 0 -1.19209e-07 4.85464 0 2.98023e-07 3.27949 0 -5.96046e-08 2.18914 0 -1.78814e-07 1.44347 0 5.96046e-07 0.939726 0 -6.55651e-07 0.603574 0 6.55651e-07 0.382095 0 -9.53674e-07 0.238082 0 6.55651e-07 0.145755 0 -5.96046e-07 0.0874728 0 2.98023e-07 0.0514511 0 0 0.0297709 0 -7.15256e-07 0.0170766 0 4.17233e-07 0.00971127 0 -5.96046e-08 0.0053556 0 1.78814e-07 0.00272 0 -1.19209e-06 0.00125039 0 2.38419e-06 0.000561595 0 -3.63588e-06 0.00032115 0 4.17233e-06 0.000270963 0 -4.11272e-06 0.000165462 0 3.93391e-06 6.47306e-05 0 -3.51667e-06 -1.43051e-05 0 2.6226e-06 -3.19481e-05 0 -1.90735e-06 -3.8147e-06 0 1.07288e-06 6.91414e-06 0 -8.34465e-07 -2.12193e-05 0 9.53674e-07 -4.76837e-07 0 -4.76837e-07 -1.62125e-05 0 1.78814e-06 -2.90871e-05 0 -1.90735e-06 -1.66893e-05 0 2.02656e-06 -7.15256e-07 0 -2.02656e-06 5.4121e-05 0 1.66893e-06 6.4373e-05 0 -2.02656e-06 7.34329e-05 0 1.43051e-06 6.62804e-05 0 -1.43051e-06 7.39098e-05 0 1.43051e-06 6.10352e-05 0 -1.19209e-06 5.72205e-06 0 7.15256e-07 -8.72612e-05 0 -4.76837e-07 -0.000191212 0 -3.57628e-07 -0.000212193 0 7.15256e-07 -4.48227e-05 0 -4.76837e-07 4.86374e-05 0 4.76837e-07 6.29425e-05 0 -4.76837e-07 -2.95639e-05 0 9.53674e-07 2.19345e-05 0 -2.38419e-07 -2.19345e-05 0 -1.19209e-07 -0.000352859 0 -2.38419e-07 -0.00021553 0 5.96046e-07 0.000488281 0 -1.19209e-07 0.000125885 0 0 -0.000396729 0 1.19209e-07 6.48499e-05 0 -4.76837e-07 0.000831604 0 0 -0.00228882 0 -1.90735e-06 0.00976562 0 -1.89117e+06 1.7425e+06 0 -1.84038e+06 1.96949e+06 0 -1.35179e+06 2.13936e+06 0 -885231 2.10703e+06 0 -561575 1.93333e+06 0 -367456 1.71063e+06 0 -259707 1.49544e+06 0 -200212 1.31103e+06 0 -164834 1.15964e+06 0 -140770 1.03529e+06 0 -122277 930699 0 -107090 840163 0 -94350.4 759995 0 -83624.8 688014 0 -74563.6 622931 0 -66838.4 563888 0 -60161.8 510225 0 -54306.3 461373 0 -49105.5 416837 0 -44442.2 376183 0 -40233.9 339040 0 -36419.2 305092 0 -32950.6 274068 0 -29789 245734 0 -26902 219878 0 -24262.1 196313 0 -21846.3 174866 0 -19634.9 155380 0 -17611.2 137709 0 -15760.6 121716 0 -14070.1 107275 0 -12528.1 94266.5 0 -11124.1 82579.6 0 -9848.41 72108.7 0 -8691.92 62755 0 -7646.22 54424.8 0 -6703.33 47030.3 0 -5855.72 40488.5 0 -5096.23 34721.7 0 -4418.01 29656.7 0 -3814.58 25225.3 0 -3279.72 21363.7 0 -2807.54 18012.7 0 -2392.44 15117.3 0 -2029.09 12626.9 0 -1712.5 10494.8 0 -1437.94 8678.29 0 -1201.02 7138.54 0 -997.616 5840.23 0 -823.927 4751.47 0 -676.446 3843.61 0 -551.955 3091.07 0 -447.525 2471.05 0 -360.494 1963.42 0 -288.459 1550.47 0 -229.261 1216.74 0 -180.968 948.82 0 -141.867 735.158 0 -110.444 565.911 0 -85.3808 432.751 0 -65.5396 328.696 0 -49.9495 247.944 0 -37.7919 185.712 0 -28.3833 138.092 0 -21.1579 101.914 0 -15.6515 74.631 0 -11.4867 54.2094 0 -8.36034 39.0433 0 -6.03186 27.8725 0 -4.31225 19.7157 0 -3.05397 13.8132 0 -2.1422 9.58173 0 -1.48789 6.57687 0 -1.02267 4.46395 0 -0.694907 2.99375 0 -0.466272 1.98249 0 -0.308674 1.29569 0 -0.201557 0.835558 0 -0.129855 0.531495 0 -0.0825728 0.33319 0 -0.0518068 0.205463 0 -0.0320033 0.124283 0 -0.0193683 0.0735671 0 -0.0114081 0.0426113 0 -0.00651655 0.0242599 0 -0.00364454 0.0136729 0 -0.00205199 0.00763644 0 -0.00118654 0.00415141 0 -0.000677772 0.00211677 0 -0.000345716 0.000961565 0 -0.000131014 0.00040457 0 -2.84128e-05 0.000209892 0 -1.28341e-05 0.000157914 0 -2.53355e-05 0.000128368 0 -3.03031e-05 7.28679e-05 0 -1.76245e-05 3.63685e-06 0 1.20828e-06 -1.88989e-05 0 4.06008e-06 -2.85261e-05 0 4.38957e-06 -5.74016e-06 0 2.19056e-07 8.30588e-06 0 -4.12891e-06 -3.69541e-06 0 -2.58792e-06 -1.56334e-05 0 4.52666e-07 -2.39123e-05 0 7.27679e-06 -6.90616e-06 0 8.77833e-06 2.29239e-05 0 5.55158e-06 5.09427e-05 0 4.51784e-06 8.30028e-05 0 1.00303e-06 8.86868e-05 0 -2.19755e-06 9.13718e-05 0 -4.03388e-06 7.81832e-05 0 -1.00954e-05 3.62006e-05 0 -1.65682e-05 -4.67441e-05 0 -1.66633e-05 -0.000147027 0 3.4008e-07 -0.000193808 0 1.89135e-05 -0.000116329 0 1.69256e-05 -3.54826e-06 0 3.21607e-07 6.52688e-05 0 -5.77957e-06 5.82545e-05 0 -1.09457e-06 3.91424e-05 0 -1.14101e-05 -7.67234e-05 0 -1.31872e-05 -0.000227308 0 2.03367e-05 -9.18012e-05 0 1.97725e-05 0.000199267 0 -1.54402e-05 0.000120495 0 -5.56464e-06 4.52371e-05 0 6.22907e-06 -0.000149674 0 -6.52992e-06 -6.48913e-05 0 -3.49496e-06 -0.00080541 0 -1.94809e+06 1.08595e+06 0 -1.7832e+06 1.39509e+06 0 -1.78107e+06 1.47815e+06 0 -1.65062e+06 1.59123e+06 0 -1.40474e+06 1.69236e+06 0 -1.12418e+06 1.72319e+06 0 -869310 1.67427e+06 0 -666590 1.56731e+06 0 -517676 1.43219e+06 0 -412657 1.2924e+06 0 -339006 1.16138e+06 0 -286094 1.04429e+06 0 -246418 941360 0 -215271 850732 0 -189882 770186 0 -168644 697862 0 -150573 632412 0 -135006 572900 0 -121454 518648 0 -109538 469123 0 -98965.9 423879 0 -89509 382523 0 -80994.1 344708 0 -73287.7 310130 0 -66286.1 278521 0 -59906.9 249645 0 -54083 223292 0 -48759.1 199271 0 -43888.5 177411 0 -39431.6 157551 0 -35354.2 139544 0 -31626.7 123252 0 -28222.6 108546 0 -25118.5 95305 0 -22292.8 83414.7 0 -19726.1 72767.8 0 -17399.9 63262.9 0 -15297.2 54804.4 0 -13402 47302 0 -11699.1 40670.6 0 -10173.8 34830.5 0 -8812.48 29706.7 0 -7601.95 25228.9 0 -6529.68 21331.8 0 -5583.73 17954.5 0 -4752.76 15040.6 0 -4026.04 12538.2 0 -3393.41 10399.3 0 -2845.36 8580.4 0 -2372.95 7041.52 0 -1967.87 5746.59 0 -1622.42 4663.06 0 -1329.51 3761.7 0 -1082.66 3016.42 0 -875.924 2404.05 0 -703.952 1904.13 0 -561.899 1498.69 0 -445.415 1172.1 0 -350.618 910.781 0 -274.058 703.12 0 -212.702 539.22 0 -163.906 410.746 0 -125.394 310.734 0 -95.2296 233.424 0 -71.7852 174.085 0 -53.7057 128.869 0 -39.8727 94.6653 0 -29.3714 68.9852 0 -21.4604 49.8521 0 -15.5465 35.7112 0 -11.161 25.3484 0 -7.93725 17.8226 0 -5.59011 12.4081 0 -3.89842 8.55001 0 -2.69124 5.82753 0 -1.83787 3.92566 0 -1.24018 2.6114 0 -0.825868 1.71421 0 -0.542276 1.11002 0 -0.351051 0.709012 0 -0.224181 0.4466 0 -0.141297 0.277063 0 -0.0878361 0.168832 0 -0.0536815 0.100703 0 -0.032054 0.0586585 0 -0.0185657 0.0334446 0 -0.0104268 0.0188036 0 -0.00577434 0.0105053 0 -0.00325377 0.00579863 0 -0.00187799 0.00307836 0 -0.00104569 0.00148085 0 -0.000486534 0.000630029 0 -0.000154144 0.000257236 0 -2.6325e-05 0.000155991 0 -2.62004e-05 0.000142703 0 -5.37311e-05 0.000114155 0 -5.21757e-05 3.92612e-05 0 -1.85048e-05 -3.26228e-06 0 5.4014e-06 -3.23961e-05 0 1.23427e-05 -1.55973e-05 0 4.68433e-06 -5.28162e-07 0 -5.57773e-06 1.37364e-06 0 -8.05545e-06 -8.1491e-06 0 -3.56403e-06 -2.71001e-05 0 8.76264e-06 -1.47093e-05 0 1.50626e-05 1.19568e-05 0 1.26642e-05 2.97355e-05 0 1.18202e-05 7.31249e-05 0 4.91166e-06 9.09342e-05 0 -1.71365e-06 9.07637e-05 0 -6.24387e-06 8.70789e-05 0 -1.30206e-05 6.19172e-05 0 -2.81759e-05 -1.50039e-05 0 -3.51566e-05 -0.00012654 0 -1.19008e-05 -0.000199156 0 2.63699e-05 -0.000142495 0 3.56681e-05 -3.22232e-05 0 9.93266e-06 4.63622e-05 0 -8.81418e-06 6.47215e-05 0 -2.45184e-06 6.99416e-05 0 -1.8063e-05 -6.35942e-05 0 -2.65066e-05 -0.000250847 0 2.57717e-05 -9.03648e-05 0 3.36452e-05 8.35143e-05 0 -1.49942e-05 7.20937e-05 0 -7.85719e-06 0.000289788 0 -3.93975e-05 -0.00214019 0 8.75664e-06 0.000868138 0 -1.85444e+06 1.0884e+06 0 -1.87512e+06 1.02202e+06 0 -1.78161e+06 1.13748e+06 0 -1.73078e+06 1.2187e+06 0 -1.67653e+06 1.28973e+06 0 -1.57339e+06 1.36622e+06 0 -1.41666e+06 1.43184e+06 0 -1.22815e+06 1.46446e+06 0 -1.03552e+06 1.4532e+06 0 -859594 1.40118e+06 0 -710879 1.31991e+06 0 -591300 1.22284e+06 0 -497677 1.12113e+06 0 -424836 1.02207e+06 0 -367612 929411 0 -321768 844429 0 -284187 767038 0 -252712 696591 0 -225883 632330 0 -202695 573576 0 -182431 519773 0 -164557 470464 0 -148664 425264 0 -134436 383838 0 -121620 345882 0 -110023 311126 0 -99486.2 279322 0 -89886.9 250249 0 -81123.5 223704 0 -73112.5 199504 0 -65784.1 177480 0 -59078.8 157473 0 -52945.5 139338 0 -47339.5 122937 0 -42221.1 108141 0 -37554.9 94827.8 0 -33308.8 82882.8 0 -29453 72196.8 0 -25960 62667.2 0 -22804.2 54196.6 0 -19961.2 46693.1 0 -17408.1 40070.4 0 -15122.9 34246.8 0 -13084.8 29145.9 0 -11274 24696.2 0 -9671.4 20831 0 -8258.99 17488.3 0 -7019.59 14610.6 0 -5936.94 12145 0 -4995.67 10042.9 0 -4181.35 8260.03 0 -3480.46 6755.93 0 -2880.42 5494.09 0 -2369.6 4441.64 0 -1937.27 3569.16 0 -1573.63 2850.4 0 -1269.76 2262.14 0 -1017.58 1783.89 0 -809.796 1397.74 0 -639.89 1088.1 0 -502.029 841.53 0 -391.048 646.54 0 -302.406 493.401 0 -232.159 373.961 0 -176.918 281.454 0 -133.814 210.312 0 -100.444 155.997 0 -74.8162 114.831 0 -55.2923 83.8632 0 -40.5364 60.7425 0 -29.4708 43.6152 0 -21.237 31.0324 0 -15.1608 21.8704 0 -10.7177 15.2622 0 -7.50134 10.5428 0 -5.19751 7.20542 0 -3.56391 4.86855 0 -2.41635 3.24887 0 -1.61774 2.13902 0 -1.068 1.3886 0 -0.694748 0.888847 0 -0.445441 0.561204 0 -0.281748 0.3494 0 -0.175905 0.214023 0 -0.108248 0.128419 0 -0.0653342 0.0751284 0 -0.0383625 0.0428179 0 -0.0217677 0.023949 0 -0.0120055 0.013322 0 -0.0066129 0.00741787 0 -0.00375946 0.00405169 0 -0.00216748 0.00204217 0 -0.00113977 0.000882115 0 -0.000457387 0.00031837 0 -0.000100421 0.000143075 0 -1.45521e-05 0.000130192 0 -5.51457e-05 0.000136435 0 -8.62386e-05 7.95931e-05 0 -5.53975e-05 2.09683e-05 0 -9.00357e-06 -2.93391e-05 0 1.67117e-05 -3.38386e-05 0 1.60331e-05 -4.23141e-06 0 -1.1655e-06 6.42164e-06 0 -1.31881e-05 -1.66681e-06 0 -1.02088e-05 -2.08058e-05 0 5.72576e-06 -2.08896e-05 0 1.82899e-05 -3.16242e-07 0 1.98255e-05 1.73717e-05 0 1.93852e-05 5.91974e-05 0 1.05416e-05 7.91953e-05 0 4.47402e-07 9.02431e-05 0 -5.77841e-06 8.88438e-05 0 -1.20563e-05 8.1617e-05 0 -3.078e-05 3.25255e-05 0 -5.19315e-05 -8.712e-05 0 -3.2668e-05 -0.000192409 0 2.32194e-05 -0.000162135 0 5.20575e-05 -5.82036e-05 0 2.32193e-05 7.96816e-06 0 -8.85151e-06 5.23613e-05 0 -1.00019e-06 0.000108373 0 -1.99808e-05 -3.32186e-05 0 -4.27047e-05 -0.00030081 0 2.39902e-05 -8.33063e-05 0 4.98812e-05 0.000210218 0 -7.11565e-05 -0.00210924 0 -2.57851e-05 1.51023e-05 0 -3.62161e-05 -0.00230516 0 -1.93642e+06 843084 0 -1.8815e+06 932538 0 -1.86987e+06 934736 0 -1.81429e+06 982977 0 -1.75073e+06 1.04126e+06 0 -1.6923e+06 1.09506e+06 0 -1.62681e+06 1.14786e+06 0 -1.53849e+06 1.2007e+06 0 -1.42177e+06 1.24627e+06 0 -1.28247e+06 1.27383e+06 0 -1.13278e+06 1.27569e+06 0 -985420 1.25008e+06 0 -849892 1.20069e+06 0 -731325 1.13421e+06 0 -631009 1.05793e+06 0 -547691 977978 0 -478890 898715 0 -421851 822740 0 -374080 751322 0 -333557 684876 0 -298733 623364 0 -268457 566549 0 -241870 514134 0 -218326 465822 0 -197325 421334 0 -178477 380410 0 -161474 342807 0 -146068 308298 0 -132061 276672 0 -119294 247729 0 -107633 221284 0 -96970 197167 0 -87214.1 175216 0 -78287 155278 0 -70121.6 137213 0 -62658.9 120884 0 -55846.7 106165 0 -49638.1 92933.6 0 -43990.2 81075.3 0 -38863.8 70480.9 0 -34222.2 61046.8 0 -30031 52674.7 0 -26257.9 45271.9 0 -22872 38750.7 0 -19844.1 33028.5 0 -17146.2 28027.9 0 -14751.6 23676.4 0 -12634.7 19906.4 0 -10771.4 16655.1 0 -9138.62 13864.5 0 -7714.4 11481.1 0 -6478.14 9456.05 0 -5410.44 7744.57 0 -4493.15 6306.22 0 -3709.4 5104.44 0 -3043.58 4106.42 0 -2481.35 3282.86 0 -2009.59 2607.74 0 -1616.4 2058.09 0 -1291.02 1613.72 0 -1023.77 1257.03 0 -805.963 972.758 0 -629.877 747.807 0 -488.669 571.045 0 -376.337 433.107 0 -287.681 326.209 0 -218.259 243.947 0 -164.325 181.096 0 -122.759 133.427 0 -90.9866 97.5426 0 -66.9005 70.731 0 -48.7879 50.8503 0 -35.2734 36.2257 0 -25.2688 25.56 0 -17.9256 17.8551 0 -12.5878 12.3458 0 -8.74937 8.4472 0 -6.01915 5.71596 0 -4.09675 3.82106 0 -2.75544 2.51989 0 -1.82839 1.63741 0 -1.1952 1.04807 0 -0.769356 0.66138 0 -0.488078 0.411909 0 -0.305592 0.252971 0 -0.188894 0.152508 0 -0.114932 0.0895663 0 -0.0683131 0.0509483 0 -0.0392666 0.0281851 0 -0.0217481 0.0154421 0 -0.0117992 0.00858504 0 -0.00653381 0.00481546 0 -0.00377811 0.00255974 0 -0.0021383 0.00115303 0 -0.0010117 0.00037839 0 -0.000305741 9.58743e-05 0 -2.15423e-05 8.37394e-05 0 -2.63058e-05 0.00013545 0 -0.000100451 0.000118402 0 -0.000101487 6.08307e-05 0 -4.3783e-05 -2.00478e-05 0 1.1172e-05 -4.87692e-05 0 2.82147e-05 -1.83303e-05 0 9.85782e-06 4.35405e-06 0 -1.34536e-05 7.03678e-06 0 -1.7219e-05 -1.05649e-05 0 -1.19064e-06 -2.317e-05 0 1.71651e-05 -7.76141e-06 0 2.42826e-05 5.1572e-08 0 2.69823e-05 4.53772e-05 0 1.90882e-05 7.55352e-05 0 3.88134e-06 8.79812e-05 0 -6.015e-06 7.69588e-05 0 -7.66905e-06 9.51774e-05 0 -2.75659e-05 6.91279e-05 0 -6.10363e-05 -4.1394e-05 0 -5.56088e-05 -0.000175421 0 8.1741e-06 -0.000188796 0 6.36695e-05 -6.73684e-05 0 3.95281e-05 -1.97347e-05 0 -8.98706e-06 2.67988e-06 0 3.37989e-06 0.000167523 0 -1.92419e-05 3.21772e-06 0 -5.18629e-05 -0.000257839 0 -6.71833e-07 -0.00039345 0 1.75415e-06 -0.0011847 0 6.00553e-05 0.00159488 0 9.00496e-06 0.000407808 0 -1.94317e+06 803142 0 -1.92804e+06 799230 0 -1.89036e+06 840931 0 -1.86969e+06 857762 0 -1.83674e+06 882348 0 -1.78811e+06 917936 0 -1.73188e+06 957318 0 -1.67214e+06 996408 0 -1.60546e+06 1.03511e+06 0 -1.5257e+06 1.07258e+06 0 -1.42931e+06 1.10496e+06 0 -1.31754e+06 1.1265e+06 0 -1.19578e+06 1.13207e+06 0 -1.0712e+06 1.11908e+06 0 -950623 1.08803e+06 0 -839067 1.0419e+06 0 -739307 984927 0 -652142 921508 0 -576988 855390 0 -512510 789365 0 -457113 725268 0 -409258 664157 0 -367605 606550 0 -331057 552630 0 -298739 502394 0 -269964 455745 0 -244188 412538 0 -220977 372612 0 -199982 335796 0 -180923 301918 0 -163569 270807 0 -147732 242296 0 -133256 216223 0 -120012 192432 0 -107889 170775 0 -96793.3 151110 0 -86643.4 133300 0 -77367.4 117215 0 -68901.3 102730 0 -61187.6 89726.2 0 -54173.3 78088.8 0 -47809.8 67709.4 0 -42051.7 58484.4 0 -36856.1 50315.5 0 -32182.6 43109.1 0 -27992.8 36777 0 -24249.8 31236.1 0 -20918.5 26408.3 0 -17965.6 22220.5 0 -15358.9 18604.6 0 -13067.9 15497.5 0 -11063.5 12841 0 -9318.33 10581.5 0 -7806.37 8670.01 0 -6503.22 7062.06 0 -5386.11 5717.37 0 -4433.86 4599.76 0 -3626.9 3676.84 0 -2947.31 2919.82 0 -2378.72 2303.24 0 -1906.28 1804.7 0 -1516.64 1404.6 0 -1197.77 1085.91 0 -938.93 833.958 0 -730.561 636.213 0 -564.213 482.102 0 -432.494 362.821 0 -329.028 271.129 0 -248.395 201.138 0 -186.057 148.1 0 -138.257 108.209 0 -101.915 78.4335 0 -74.5165 56.3736 0 -54.0268 40.1532 0 -38.8225 28.3226 0 -27.6294 19.7728 0 -19.4628 13.6585 0 -13.5664 9.33524 0 -9.35808 6.3118 0 -6.38821 4.21814 0 -4.31279 2.78143 0 -2.87494 1.80582 0 -1.88847 1.15285 0 -1.2207 0.724243 0 -0.776625 0.448928 0 -0.487157 0.275113 0 -0.301849 0.166191 0 -0.18464 0.097955 0 -0.110855 0.0555861 0 -0.0645933 0.030218 0 -0.0361387 0.0160158 0 -0.0194897 0.00867996 0 -0.0105003 0.00495956 0 -0.00594495 0.0028306 0 -0.00348901 0.00137738 0 -0.00186081 0.000435978 0 -0.000716297 9.20705e-06 0 -0.000103925 -1.95953e-05 0 2.31682e-05 9.34017e-05 0 -7.7403e-05 0.000142673 0 -0.000139914 0.000104506 0 -9.69235e-05 1.3562e-05 0 -1.32925e-05 -4.97474e-05 0 3.53491e-05 -3.52225e-05 0 2.79636e-05 4.00585e-07 0 -6.32872e-06 1.22334e-05 0 -2.33054e-05 2.18267e-06 0 -1.10138e-05 -1.67825e-05 0 1.12063e-05 -1.95376e-05 0 2.47716e-05 -1.35393e-05 0 3.33542e-05 3.07285e-05 0 2.92162e-05 7.70229e-05 0 9.16222e-06 7.47289e-05 0 -5.50367e-06 7.22546e-05 0 -5.33156e-06 9.58468e-05 0 -1.92038e-05 0.000104182 0 -6.08019e-05 1.34935e-05 0 -7.54895e-05 -0.000137909 0 -1.61237e-05 -0.000213469 0 6.80654e-05 -5.83101e-05 0 5.52029e-05 -5.70463e-05 0 -5.29428e-06 -2.24356e-05 0 4.14357e-06 0.000159074 0 6.02123e-06 0.000269923 0 -0.000178631 -0.00214434 0 -5.30935e-05 -0.000962287 0 6.79819e-06 -0.000856988 0 5.94552e-05 0.00223991 0 -1.99329e+06 721130 0 -1.96842e+06 740949 0 -1.94732e+06 745933 0 -1.91357e+06 769277 0 -1.88437e+06 788056 0 -1.85523e+06 805707 0 -1.81898e+06 827603 0 -1.77364e+06 854277 0 -1.72124e+06 883193 0 -1.6632e+06 912474 0 -1.59855e+06 941281 0 -1.52487e+06 968540 0 -1.44026e+06 991959 0 -1.3449e+06 1.00819e+06 0 -1.24125e+06 1.01387e+06 0 -1.13336e+06 1.00669e+06 0 -1.02579e+06 986030 0 -922543 952982 0 -826521 909844 0 -739337 859491 0 -661480 804786 0 -592631 748191 0 -531999 691605 0 -478596 636353 0 -431422 583279 0 -389562 532875 0 -352230 485386 0 -318769 440906 0 -288636 399433 0 -261388 360911 0 -236661 325246 0 -214155 292326 0 -193622 262025 0 -174855 234212 0 -157681 208752 0 -141955 185509 0 -127552 164350 0 -114364 145143 0 -102298 127760 0 -91271.1 112077 0 -81208.6 97972.2 0 -72043.2 85330.1 0 -63712.7 74038.2 0 -56159.6 63988.9 0 -49330 55078.9 0 -43172.9 47210.1 0 -37640 40289 0 -32685.2 34227.1 0 -28264.3 28941.1 0 -24335.3 24352.5 0 -20857.7 20388.3 0 -17792.9 16980.1 0 -15104.1 14065 0 -12756.3 11584.8 0 -10716.3 9486.3 0 -8952.87 7720.87 0 -7436.64 6244.57 0 -6140.16 5017.77 0 -5038.01 4005.02 0 -4106.72 3174.75 0 -3324.84 2499.03 0 -2672.81 1953.28 0 -2133 1515.99 0 -1689.51 1168.44 0 -1328.12 894.438 0 -1036.11 680.111 0 -802.194 513.707 0 -616.41 385.411 0 -470.072 287.157 0 -355.728 212.413 0 -267.087 155.951 0 -198.929 113.619 0 -146.963 82.1251 0 -107.687 58.8735 0 -78.2571 41.8321 0 -56.3804 29.4335 0 -40.242 20.4876 0 -28.432 14.0991 0 -19.8723 9.5931 0 -13.7396 6.4561 0 -9.39996 4.29711 0 -6.36365 2.82403 0 -4.25829 1.82654 0 -2.81021 1.15869 0 -1.8247 0.72026 0 -1.1646 0.440364 0 -0.731588 0.266582 0 -0.453656 0.160178 0 -0.278224 0.0945281 0 -0.168268 0.0534785 0 -0.0993114 0.0282964 0 -0.0563389 0.0140118 0 -0.0304777 0.00697396 0 -0.0160677 0.00394177 0 -0.0087794 0.00250341 0 -0.00516708 0.00141465 0 -0.00299437 0.000475339 0 -0.00138486 -8.9313e-05 0 -0.000333095 -0.00018625 0 5.53668e-05 -2.1351e-05 0 -7.90783e-06 0.000128595 0 -0.000147336 0.000151004 0 -0.000156674 5.70049e-05 0 -6.02382e-05 -3.82307e-05 0 2.71422e-05 -5.95027e-05 0 4.68874e-05 -1.49359e-05 0 8.16617e-06 6.27502e-06 0 -2.39896e-05 6.95884e-06 0 -2.05269e-05 -1.49244e-07 0 2.61301e-06 -2.00106e-05 0 2.17787e-05 -2.94358e-05 0 3.68476e-05 8.4932e-06 0 3.77272e-05 6.23362e-05 0 1.81827e-05 8.73455e-05 0 -4.15748e-06 8.07205e-05 0 -5.22338e-06 8.28723e-05 0 -9.69088e-06 0.000122651 0 -5.39198e-05 5.27678e-05 0 -9.02206e-05 -0.000113935 0 -4.41661e-05 -0.000246276 0 6.62064e-05 -3.13818e-05 0 6.95563e-05 -0.000107616 0 -7.89901e-06 -0.000179663 0 1.40034e-05 0.000419997 0 -4.42304e-05 -0.00072448 0 -3.08868e-05 -7.59028e-05 0 -5.7999e-05 -0.000956893 0 -4.58658e-05 -0.00141647 0 -2.02797e+06 693630 0 -2.01004e+06 694421 0 -1.98908e+06 702748 0 -1.96969e+06 705445 0 -1.94235e+06 716326 0 -1.91202e+06 729902 0 -1.8813e+06 743520 0 -1.84861e+06 758146 0 -1.811e+06 775475 0 -1.76711e+06 795498 0 -1.71711e+06 817116 0 -1.66135e+06 839164 0 -1.59951e+06 860744 0 -1.53058e+06 880847 0 -1.45368e+06 897923 0 -1.36879e+06 909859 0 -1.2772e+06 914391 0 -1.18128e+06 909703 0 -1.08404e+06 894895 0 -988479 870162 0 -897141 836660 0 -811806 796182 0 -733461 750778 0 -662403 702431 0 -598434 652853 0 -541045 603390 0 -489588 555025 0 -443383 508426 0 -401787 464017 0 -364224 422044 0 -330198 382631 0 -299282 345819 0 -271121 311591 0 -245411 279895 0 -221899 250651 0 -200370 223765 0 -180641 199128 0 -162555 176628 0 -145979 156147 0 -130796 137566 0 -116900 120765 0 -104201 105628 0 -92615.1 92037.3 0 -82065.7 79881.1 0 -72482.5 69049.2 0 -63799.6 59435.4 0 -55955.2 50937.5 0 -48890.3 43457.8 0 -42549.1 36903.1 0 -36877.8 31185.2 0 -31825 26220.7 0 -27341.6 21931.4 0 -23380.3 18244.3 0 -19895.9 15091.6 0 -16845.3 12410.6 0 -14187.5 10143.7 0 -11883.7 8238.29 0 -9897.37 6646.68 0 -8194.11 5325.8 0 -6741.96 4237.08 0 -5511.28 3346.17 0 -4474.81 2622.69 0 -3607.66 2039.91 0 -2887.24 1574.5 0 -2293.24 1206.12 0 -1807.39 917.187 0 -1413.41 692.588 0 -1096.75 519.466 0 -844.512 387.035 0 -645.333 286.421 0 -489.359 210.462 0 -368.186 153.488 0 -274.793 111.059 0 -203.406 79.7147 0 -149.319 56.7493 0 -108.709 40.0515 0 -78.4817 27.9926 0 -56.1554 19.3431 0 -39.7859 13.1948 0 -27.8835 8.88094 0 -19.3212 5.90314 0 -13.2413 3.88036 0 -8.98039 2.52151 0 -6.02602 1.61307 0 -3.99314 1.00849 0 -2.60505 0.612367 0 -1.66907 0.361628 0 -1.05031 0.210398 0 -0.651164 0.122675 0 -0.399392 0.0715528 0 -0.242532 0.0400843 0 -0.144687 0.0200441 0 -0.0833718 0.00818991 0 -0.0455956 0.00266964 0 -0.023767 0.00113499 0 -0.0124697 0.00112867 0 -0.00714461 0.00101171 0 -0.00434794 0.000428431 0 -0.00231658 -0.000186533 0 -0.000776807 -0.000399992 0 1.28639e-05 -0.000216916 0 9.48188e-05 5.3612e-05 0 -0.000104069 0.000179894 0 -0.000202611 0.000115937 0 -0.000125959 -8.71602e-06 0 -1.3423e-06 -7.85589e-05 0 5.93123e-05 -4.00587e-05 0 3.10544e-05 -1.78604e-06 0 -1.62274e-05 2.43057e-05 0 -3.00159e-05 8.74745e-06 0 -8.651e-06 -1.6483e-05 0 1.67653e-05 -3.31011e-05 0 3.67589e-05 -1.11698e-05 0 4.68077e-05 5.7356e-05 0 2.75002e-05 8.77874e-05 0 -1.36188e-06 7.88141e-05 0 -6.27252e-06 8.43378e-05 0 -1.65083e-06 0.000128166 0 -4.18839e-05 7.41649e-05 0 -9.54352e-05 -8.33515e-05 0 -7.62367e-05 -0.000293728 0 6.02426e-05 7.11307e-05 0 0.000101296 0.000175402 0 -0.00104259 -0.0161211 0 -2.17739e-05 -6.17728e-05 0 1.13887e-05 0.00018131 0 -1.48881e-05 -3.1095e-05 0 -4.2161e-05 -0.00115854 0 -2.07224e+06 669222 0 -2.05502e+06 668809 0 -2.03606e+06 668419 0 -2.01468e+06 672261 0 -1.99464e+06 673533 0 -1.97142e+06 677374 0 -1.94419e+06 684357 0 -1.91425e+06 693174 0 -1.88244e+06 702936 0 -1.84805e+06 714049 0 -1.80973e+06 727034 0 -1.76652e+06 741830 0 -1.71809e+06 757828 0 -1.66437e+06 774232 0 -1.60517e+06 790250 0 -1.54002e+06 805001 0 -1.46855e+06 817339 0 -1.3908e+06 825811 0 -1.30751e+06 828834 0 -1.2202e+06 825015 0 -1.13088e+06 813470 0 -1.0418e+06 794010 0 -955032 767151 0 -872243 733975 0 -794589 695899 0 -722696 654444 0 -656748 611051 0 -596603 566959 0 -541915 523159 0 -492236 480394 0 -447085 439192 0 -405998 399906 0 -368545 362756 0 -334344 327866 0 -303062 295287 0 -274411 265020 0 -248140 237031 0 -224035 211259 0 -201912 187625 0 -181608 166035 0 -162984 146389 0 -145916 128581 0 -130292 112501 0 -116014 98039 0 -102990 85083.2 0 -91137 73524.7 0 -80376.3 63256.2 0 -70634.7 54173.2 0 -61842.4 46175 0 -53933.3 39164.4 0 -46843.8 33048.9 0 -40512.9 27740.7 0 -34881.9 23156.9 0 -29894.7 19219.7 0 -25497.1 15856.7 0 -21637.3 13000.7 0 -18266.1 10589.7 0 -15336.5 8567.21 0 -12803.9 6881.69 0 -10626.7 5486.61 0 -8765.51 4340.25 0 -7183.93 3405.45 0 -5848.22 2649.38 0 -4727.44 2043.2 0 -3793.44 1561.77 0 -3020.77 1183.28 0 -2386.61 888.866 0 -1870.55 662.336 0 -1454.38 489.858 0 -1121.89 359.773 0 -858.721 262.44 0 -652.25 190.086 0 -491.591 136.614 0 -367.552 97.3508 0 -272.542 68.7525 0 -200.388 48.121 0 -146.099 33.3784 0 -105.634 22.9231 0 -75.7272 15.5478 0 -53.783 10.3766 0 -37.7945 6.79392 0 -26.2503 4.36329 0 -18.018 2.75812 0 -12.233 1.72223 0 -8.22162 1.05891 0 -5.465 0.631051 0 -3.5816 0.354943 0 -2.30533 0.183595 0 -1.45455 0.0870143 0 -0.901503 0.0398684 0 -0.551902 0.0194191 0 -0.33532 0.00937562 0 -0.201538 0.0022075 0 -0.117927 -0.00299051 0 -0.0655761 -0.00504957 0 -0.0342068 -0.00408059 0 -0.0173239 -0.00183536 0 -0.00943652 -0.000190872 0 -0.00581726 0.000137799 0 -0.00346011 -0.000288706 0 -0.00147206 -0.000621497 0 -0.000174358 -0.000487761 0 0.000194828 -0.000105576 0 -1.68395e-06 0.000158596 0 -0.000212169 0.000184813 0 -0.000198822 5.09047e-05 0 -5.26446e-05 -7.24872e-05 0 5.66323e-05 -6.90129e-05 0 5.69139e-05 -1.81235e-05 0 -1.36148e-07 2.78195e-05 0 -3.55439e-05 6.93882e-06 0 -2.04808e-05 -1.7155e-06 0 8.41031e-06 -3.13614e-05 0 3.27606e-05 -3.26615e-05 0 5.32e-05 4.02192e-05 0 3.93471e-05 8.81078e-05 0 2.81981e-06 7.34944e-05 0 -7.76758e-06 8.54116e-05 0 3.61702e-07 0.000110205 0 -2.91199e-05 9.91598e-05 0 -9.45907e-05 -5.0094e-05 0 -0.000100618 -0.000345193 0 -1.30236e-05 -0.000623986 0 0.000131214 0.000309497 0 5.37359e-05 0.000301287 0 1.6035e-06 0.000319142 0 4.21237e-06 6.00629e-05 0 1.39885e-05 0.000337765 0 -2.11342e+06 664059 0 -2.09837e+06 658420 0 -2.08249e+06 653775 0 -2.06499e+06 649643 0 -2.04453e+06 648904 0 -2.02369e+06 648120 0 -2.00169e+06 648062 0 -1.97719e+06 649812 0 -1.9497e+06 653597 0 -1.91961e+06 658867 0 -1.88713e+06 665326 0 -1.85188e+06 673065 0 -1.81317e+06 682244 0 -1.77033e+06 692765 0 -1.72297e+06 704235 0 -1.67087e+06 716076 0 -1.61385e+06 727634 0 -1.55169e+06 738165 0 -1.48421e+06 746774 0 -1.41151e+06 752390 0 -1.33413e+06 753852 0 -1.25307e+06 750085 0 -1.16978e+06 740309 0 -1.08593e+06 724190 0 -1.00317e+06 701901 0 -923002 674074 0 -846561 641670 0 -774622 605829 0 -707594 567716 0 -645589 528414 0 -588498 488849 0 -536075 449769 0 -487996 411748 0 -443912 375200 0 -403475 340412 0 -366361 307571 0 -332273 276783 0 -300946 248096 0 -272144 221514 0 -245662 197007 0 -221316 174520 0 -198947 153982 0 -178412 135306 0 -159582 118400 0 -142344 103162 0 -126591 89488.4 0 -112226 77273.7 0 -99160.1 66412.2 0 -87307.4 56799 0 -76587.6 48331.8 0 -66923.9 40910.8 0 -58242.6 34440 0 -50472.9 28827.6 0 -43546.7 23986.5 0 -37398 19834.5 0 -31963.6 16294.5 0 -27182.7 13295.1 0 -22996.9 10770 0 -19350.6 8658.57 0 -16191 6905.54 0 -13468 5460.88 0 -11134.6 4279.7 0 -9146.93 3322 0 -7464.01 2552.44 0 -6048.23 1940.08 0 -4865.15 1458.02 0 -3883.54 1083 0 -3075.34 795.06 0 -2415.44 577.089 0 -1881.5 414.479 0 -1453.63 294.864 0 -1114.12 207.943 0 -847.285 145.372 0 -639.418 100.633 0 -478.771 68.8388 0 -355.551 46.4317 0 -261.79 30.842 0 -191.09 20.1716 0 -138.306 12.9793 0 -99.2735 8.17446 0 -70.6377 4.97365 0 -49.7624 2.8585 0 -34.6506 1.50383 0 -23.8263 0.692458 0 -16.1882 0.252852 0 -10.8851 0.0390285 0 -7.2479 -0.0596781 0 -4.76828 -0.107432 0 -3.08475 -0.127978 0 -1.95405 -0.125321 0 -1.21179 -0.103361 0 -0.739737 -0.0728503 0 -0.448171 -0.0461183 0 -0.270217 -0.0295263 0 -0.160205 -0.0215727 0 -0.0908735 -0.0170603 0 -0.0479781 -0.0122659 0 -0.0237664 -0.00691286 0 -0.0121512 -0.00264187 0 -0.00729847 -0.000647741 0 -0.00469878 -0.000463681 0 -0.00240449 -0.000807197 0 -0.000565944 -0.000785352 0 0.000236272 -0.000366163 0 0.000149712 6.74296e-05 0 -0.00016628 0.000234535 0 -0.000260513 0.000126019 0 -0.000124532 -3.3455e-05 0 3.51858e-05 -8.78694e-05 0 7.88281e-05 -3.93875e-05 0 2.1847e-05 1.36597e-05 0 -3.18532e-05 2.42703e-05 0 -3.14498e-05 6.87968e-06 0 -2.72377e-06 -2.53981e-05 0 2.69845e-05 -5.2819e-05 0 5.2611e-05 8.46572e-06 0 5.04099e-05 8.55234e-05 0 1.32357e-05 8.16174e-05 0 -1.06771e-05 8.76635e-05 0 3.62797e-06 0.000140198 0 -2.23732e-05 3.91528e-05 0 -8.37892e-05 2.32756e-05 0 0.00194752 0.0229216 0 -0.000100673 -0.00130707 0 3.62038e-05 -0.000810243 0 4.98625e-05 0.000227641 0 8.2911e-06 0.000335708 0 -1.68756e-06 -1.62572e-05 0 -2.15535e+06 667455 0 -2.14197e+06 658781 0 -2.12715e+06 651186 0 -2.11156e+06 644280 0 -2.09511e+06 637394 0 -2.07631e+06 632597 0 -2.05592e+06 628919 0 -2.03434e+06 625956 0 -2.01121e+06 623978 0 -1.98586e+06 623463 0 -1.95798e+06 624462 0 -1.92758e+06 626784 0 -1.89464e+06 630280 0 -1.85891e+06 634945 0 -1.81998e+06 640794 0 -1.77738e+06 647716 0 -1.73076e+06 655422 0 -1.67988e+06 663475 0 -1.62457e+06 671344 0 -1.56469e+06 678411 0 -1.50019e+06 683954 0 -1.43118e+06 687144 0 -1.35808e+06 687093 0 -1.28163e+06 682954 0 -1.2029e+06 674062 0 -1.12315e+06 660048 0 -1.04376e+06 640904 0 -965973 616984 0 -890880 588936 0 -819288 557603 0 -751730 523912 0 -688479 488777 0 -629602 453032 0 -575013 417386 0 -524528 382416 0 -477908 348564 0 -434889 316157 0 -395208 285424 0 -358614 256512 0 -324871 229505 0 -293766 204440 0 -265106 181313 0 -238716 160092 0 -214441 140721 0 -192139 123130 0 -171681 107234 0 -152950 92942.4 0 -135836 80156.8 0 -120237 68776.2 0 -106058 58698.4 0 -93208.1 49821.1 0 -81599.3 42043.3 0 -71148.4 35266.8 0 -61774.6 29396.7 0 -53400 24342 0 -45949.1 20016.4 0 -39349.1 16338.8 0 -33529.5 13233.2 0 -28422.9 10629.2 0 -23964.4 8462.14 0 -20092.1 6672.9 0 -16747.3 5207.95 0 -13874.5 4019.19 0 -11421.8 3063.74 0 -9340.4 2303.77 0 -7585.36 1706.15 0 -6115.25 1242.21 0 -4892.35 887.318 0 -3882.64 620.479 0 -3055.67 423.846 0 -2384.38 282.268 0 -1844.73 182.914 0 -1415.38 115.02 0 -1077.3 69.7774 0 -813.67 40.2729 0 -609.851 21.3925 0 -453.446 9.58783 0 -334.293 2.51179 0 -244.268 -1.39343 0 -176.92 -3.23066 0 -127.07 -3.82844 0 -90.5179 -3.78618 0 -63.8958 -3.47161 0 -44.6082 -3.05241 0 -30.7416 -2.5792 0 -20.9056 -2.07587 0 -14.0537 -1.58584 0 -9.35952 -1.16326 0 -6.17253 -0.840853 0 -4.01285 -0.613469 0 -2.55533 -0.450646 0 -1.58835 -0.322615 0 -0.96713 -0.216757 0 -0.58278 -0.1349 0 -0.350782 -0.0806084 0 -0.209861 -0.0503063 0 -0.121495 -0.0344078 0 -0.065499 -0.023839 0 -0.0322809 -0.0145064 0 -0.0155275 -0.00680142 0 -0.00873911 -0.00226495 0 -0.0