<?xml version="1.0"?> 
<VTKFile type="StructuredGrid" version="0.1"> 
<StructuredGrid WholeExtent="0 127 0 127 0 0"> 
<Piece Extent="0 127 0 127 0 0"> 
<PointData>
<DataArray type="Float32" Name="E" format="ascii" NumberOfComponents="3"> 
-353601 0 0 -353610 -3.6962e-05 0 -353639 -7.39228e-05 0 -353687 -0.000110881 0 -353754 -0.000147835 0 -353840 -0.000184784 0 -353945 -0.000221726 0 -354069 -0.000258661 0 -354213 -0.000295589 0 -354375 -0.000332499 0 -354557 -0.000369406 0 -354758 -0.000406291 0 -354978 -0.000443169 0 -355217 -0.000480025 0 -355476 -0.000516865 0 -355754 -0.000553689 0 -356051 -0.000590488 0 -356367 -0.000627271 0 -356702 -0.000664021 0 -357057 -0.000700758 0 -357431 -0.000737459 0 -357824 -0.000774137 0 -358237 -0.000810781 0 -358668 -0.000847395 0 -359120 -0.000883978 0 -359590 -0.000920524 0 -360080 -0.000957034 0 -360590 -0.000993505 0 -361119 -0.00102994 0 -361667 -0.00106633 0 -362235 -0.00110268 0 -362822 -0.00113897 0 -363429 -0.00117522 0 -364055 -0.00121142 0 -364702 -0.00124758 0 -365367 -0.00128367 0 -366053 -0.00131971 0 -366758 -0.00135569 0 -367482 -0.00139161 0 -368227 -0.00142747 0 -368991 -0.00146325 0 -369775 -0.00149896 0 -370579 -0.00153462 0 -371403 -0.0015702 0 -372247 -0.00160569 0 -373111 -0.00164112 0 -373995 -0.00167646 0 -374898 -0.00171171 0 -375822 -0.00174688 0 -376766 -0.00178196 0 -377731 -0.00181693 0 -378715 -0.00185182 0 -379720 -0.00188661 0 -380745 -0.00192129 0 -381790 -0.00195587 0 -382856 -0.00199033 0 -383942 -0.00202468 0 -385049 -0.00205893 0 -386176 -0.00209302 0 -387324 -0.00212701 0 -388492 -0.00216087 0 -389681 -0.0021946 0 -390891 -0.00222819 0 -392122 -0.00226162 0 -393373 -0.00229492 0 -394646 -0.00232807 0 -395939 -0.00236105 0 -397253 -0.00239387 0 -398589 -0.00242655 0 -399945 -0.00245903 0 -401323 -0.00249137 0 -402722 -0.00252349 0 -404143 -0.00255544 0 -405584 -0.0025872 0 -407047 -0.00261876 0 -408532 -0.00265014 0 -410038 -0.00268128 0 -411566 -0.00271223 0 -413115 -0.00274294 0 -414686 -0.00277344 0 -416279 -0.00280368 0 -417894 -0.00283371 0 -419531 -0.00286347 0 -421190 -0.002893 0 -422871 -0.00292228 0 -424574 -0.00295127 0 -426299 -0.00297999 0 -428047 -0.00300841 0 -429816 -0.00303657 0 -431609 -0.00306444 0 -433424 -0.00309196 0 -435261 -0.00311921 0 -437121 -0.0031461 0 -439004 -0.00317273 0 -440910 -0.00319894 0 -442838 -0.00322486 0 -444790 -0.00325038 0 -446764 -0.00327559 0 -448762 -0.00330036 0 -450783 -0.00332481 0 -452827 -0.0033488 0 -454894 -0.00337243 0 -456985 -0.00339564 0 -459099 -0.00341843 0 -461237 -0.0034408 0 -463399 -0.0034627 0 -465584 -0.00348416 0 -467793 -0.00350513 0 -470027 -0.00352564 0 -472284 -0.00354569 0 -474565 -0.0035652 0 -476870 -0.00358424 0 -479200 -0.0036027 0 -481554 -0.00362067 0 -483932 -0.00363805 0 -486335 -0.00365488 0 -488763 -0.00367115 0 -491215 -0.00368685 0 -493692 -0.00370193 0 -496194 -0.00371639 0 -498721 -0.0037302 0 -501273 -0.00374339 0 -503850 -0.00375594 0 -506452 -0.00376785 0 -509080 -0.00377898 0 -511733 -0.00378951 0 -514411 -0.00379924 0 -517116 -0.00380829 0 -353574 0 0 -353584 31.8675 0 -353612 63.7365 0 -353660 95.6085 0 -353727 127.485 0 -353813 159.367 0 -353918 191.257 0 -354043 223.155 0 -354186 255.064 0 -354349 286.984 0 -354531 318.918 0 -354731 350.866 0 -354952 382.831 0 -355191 414.813 0 -355449 446.814 0 -355727 478.836 0 -356024 510.879 0 -356340 542.947 0 -356675 575.039 0 -357030 607.158 0 -357404 639.304 0 -357797 671.48 0 -358210 703.686 0 -358642 735.925 0 -359093 768.198 0 -359563 800.505 0 -360053 832.85 0 -360563 865.232 0 -361092 897.654 0 -361640 930.117 0 -362208 962.622 0 -362795 995.171 0 -363402 1027.77 0 -364028 1060.41 0 -364674 1093.1 0 -365340 1125.83 0 -366025 1158.62 0 -366730 1191.47 0 -367455 1224.36 0 -368199 1257.31 0 -368964 1290.32 0 -369748 1323.39 0 -370552 1356.52 0 -371376 1389.7 0 -372219 1422.95 0 -373083 1456.27 0 -373967 1489.64 0 -374871 1523.09 0 -375794 1556.6 0 -376738 1590.19 0 -377703 1623.84 0 -378687 1657.57 0 -379692 1691.37 0 -380716 1725.24 0 -381762 1759.19 0 -382827 1793.22 0 -383914 1827.33 0 -385020 1861.52 0 -386147 1895.79 0 -387295 1930.14 0 -388463 1964.58 0 -389652 1999.1 0 -390862 2033.71 0 -392093 2068.41 0 -393344 2103.2 0 -394617 2138.08 0 -395910 2173.06 0 -397224 2208.13 0 -398560 2243.29 0 -399916 2278.55 0 -401294 2313.91 0 -402693 2349.36 0 -404113 2384.92 0 -405554 2420.58 0 -407017 2456.34 0 -408502 2492.2 0 -410008 2528.17 0 -411536 2564.25 0 -413085 2600.43 0 -414656 2636.73 0 -416249 2673.13 0 -417864 2709.65 0 -419500 2746.28 0 -421159 2783.02 0 -422840 2819.88 0 -424543 2856.85 0 -426268 2893.94 0 -428016 2931.15 0 -429785 2968.48 0 -431578 3005.93 0 -433392 3043.5 0 -435230 3081.2 0 -437090 3119.02 0 -438972 3156.96 0 -440878 3195.03 0 -442806 3233.23 0 -444758 3271.55 0 -446732 3310.01 0 -448730 3348.59 0 -450750 3387.31 0 -452794 3426.16 0 -454861 3465.14 0 -456952 3504.25 0 -459066 3543.5 0 -461204 3582.89 0 -463366 3622.41 0 -465551 3662.08 0 -467760 3701.88 0 -469993 3741.81 0 -472250 3781.89 0 -474531 3822.11 0 -476837 3862.48 0 -479166 3902.98 0 -481520 3943.63 0 -483898 3984.42 0 -486301 4025.36 0 -488729 4066.44 0 -491181 4107.67 0 -493658 4149.04 0 -496160 4190.56 0 -498686 4232.23 0 -501238 4274.05 0 -503815 4316.02 0 -506417 4358.13 0 -509045 4400.4 0 -511698 4442.82 0 -514376 4485.38 0 -517080 4528.1 0 -353494 0 0 -353504 63.731 0 -353533 127.465 0 -353581 191.205 0 -353647 254.953 0 -353733 318.714 0 -353839 382.489 0 -353963 446.281 0 -354106 510.095 0 -354269 573.931 0 -354451 637.795 0 -354652 701.687 0 -354872 765.612 0 -355111 829.572 0 -355369 893.571 0 -355647 957.61 0 -355944 1021.69 0 -356260 1085.82 0 -356595 1150 0 -356950 1214.24 0 -357324 1278.53 0 -357717 1342.87 0 -358129 1407.28 0 -358561 1471.76 0 -359012 1536.3 0 -359483 1600.91 0 -359972 1665.59 0 -360482 1730.35 0 -361010 1795.19 0 -361559 1860.11 0 -362126 1925.12 0 -362714 1990.22 0 -363320 2055.4 0 -363947 2120.68 0 -364593 2186.05 0 -365258 2251.53 0 -365943 2317.1 0 -366648 2382.78 0 -367373 2448.57 0 -368117 2514.47 0 -368881 2580.48 0 -369665 2646.61 0 -370469 2712.86 0 -371292 2779.23 0 -372136 2845.73 0 -373000 2912.35 0 -373883 2979.1 0 -374787 3045.99 0 -375711 3113.01 0 -376654 3180.17 0 -377618 3247.48 0 -378603 3314.93 0 -379607 3382.52 0 -380632 3450.27 0 -381677 3518.17 0 -382742 3586.22 0 -383828 3654.43 0 -384935 3722.8 0 -386062 3791.34 0 -387209 3860.04 0 -388377 3928.92 0 -389566 3997.96 0 -390776 4067.18 0 -392006 4136.58 0 -393257 4206.15 0 -394529 4275.91 0 -395822 4345.86 0 -397136 4415.99 0 -398472 4486.31 0 -399828 4556.82 0 -401205 4627.53 0 -402604 4698.44 0 -404024 4769.55 0 -405465 4840.87 0 -406928 4912.38 0 -408412 4984.11 0 -409918 5056.05 0 -411445 5128.2 0 -412994 5200.57 0 -414565 5273.15 0 -416158 5345.96 0 -417772 5418.98 0 -419409 5492.24 0 -421067 5565.72 0 -422748 5639.43 0 -424450 5713.37 0 -426175 5787.55 0 -427922 5861.97 0 -429692 5936.62 0 -431484 6011.52 0 -433298 6086.66 0 -435135 6162.05 0 -436995 6237.68 0 -438877 6313.57 0 -440783 6389.7 0 -442711 6466.1 0 -444662 6542.74 0 -446636 6619.65 0 -448633 6696.82 0 -450653 6774.25 0 -452697 6851.94 0 -454764 6929.9 0 -456854 7008.13 0 -458968 7086.63 0 -461106 7165.4 0 -463267 7244.44 0 -465452 7323.76 0 -467661 7403.36 0 -469893 7483.24 0 -472150 7563.39 0 -474431 7643.83 0 -476736 7724.55 0 -479065 7805.56 0 -481418 7886.86 0 -483796 7968.44 0 -486199 8050.31 0 -488626 8132.47 0 -491078 8214.93 0 -493554 8297.67 0 -496056 8380.71 0 -498582 8464.05 0 -501133 8547.69 0 -503710 8631.62 0 -506312 8715.85 0 -508939 8800.38 0 -511591 8885.21 0 -514269 8970.35 0 -516973 9055.78 0 -353362 0 0 -353371 95.5862 0 -353400 191.177 0 -353448 286.776 0 -353515 382.389 0 -353601 478.019 0 -353706 573.672 0 -353830 669.351 0 -353973 765.06 0 -354136 860.805 0 -354318 956.59 0 -354518 1052.42 0 -354738 1148.3 0 -354978 1244.23 0 -355236 1340.21 0 -355513 1436.26 0 -355810 1532.38 0 -356126 1628.56 0 -356461 1724.82 0 -356816 1821.16 0 -357190 1917.59 0 -357583 2014.1 0 -357995 2110.7 0 -358427 2207.4 0 -358878 2304.2 0 -359348 2401.11 0 -359838 2498.13 0 -360347 2595.26 0 -360875 2692.51 0 -361423 2789.88 0 -361991 2887.38 0 -362578 2985.01 0 -363184 3082.78 0 -363811 3180.68 0 -364456 3278.73 0 -365122 3376.93 0 -365806 3475.29 0 -366511 3573.8 0 -367235 3672.47 0 -367980 3771.31 0 -368743 3870.32 0 -369527 3969.5 0 -370331 4068.87 0 -371154 4168.41 0 -371997 4268.15 0 -372861 4368.07 0 -373744 4468.19 0 -374647 4568.51 0 -375571 4669.04 0 -376514 4769.77 0 -377478 4870.71 0 -378462 4971.88 0 -379466 5073.26 0 -380490 5174.87 0 -381535 5276.71 0 -382600 5378.78 0 -383686 5481.09 0 -384792 5583.64 0 -385919 5686.43 0 -387066 5789.48 0 -388234 5892.78 0 -389422 5996.34 0 -390631 6100.16 0 -391861 6204.24 0 -393112 6308.6 0 -394384 6413.22 0 -395676 6518.13 0 -396990 6623.32 0 -398325 6728.79 0 -399681 6834.56 0 -401058 6940.61 0 -402456 7046.97 0 -403875 7153.62 0 -405316 7260.58 0 -406779 7367.85 0 -408263 7475.43 0 -409768 7583.33 0 -411295 7691.55 0 -412843 7800.09 0 -414414 7908.96 0 -416006 8018.16 0 -417620 8127.69 0 -419256 8237.57 0 -420914 8347.78 0 -422594 8458.34 0 -424296 8569.25 0 -426020 8680.51 0 -427767 8792.12 0 -429536 8904.1 0 -431328 9016.43 0 -433141 9129.14 0 -434978 9242.21 0 -436837 9355.65 0 -438719 9469.47 0 -440624 9583.67 0 -442551 9698.25 0 -444502 9813.22 0 -446475 9928.57 0 -448472 10044.3 0 -450492 10160.5 0 -452535 10277 0 -454601 10393.9 0 -456691 10511.3 0 -458804 10629 0 -460941 10747.1 0 -463102 10865.7 0 -465286 10984.7 0 -467494 11104.1 0 -469726 11223.9 0 -471983 11344.1 0 -474263 11464.8 0 -476567 11585.8 0 -478896 11707.3 0 -481249 11829.3 0 -483626 11951.7 0 -486028 12074.5 0 -488454 12197.7 0 -490906 12321.4 0 -493381 12445.5 0 -495882 12570 0 -498408 12695 0 -500959 12820.5 0 -503535 12946.4 0 -506136 13072.7 0 -508762 13199.5 0 -511414 13326.8 0 -514092 13454.5 0 -516795 13582.6 0 -353176 0 0 -353185 127.429 0 -353214 254.864 0 -353262 382.311 0 -353329 509.776 0 -353415 637.264 0 -353520 764.781 0 -353644 892.334 0 -353787 1019.93 0 -353950 1147.57 0 -354131 1275.26 0 -354332 1403.02 0 -354552 1530.83 0 -354791 1658.72 0 -355049 1786.68 0 -355327 1914.73 0 -355623 2042.87 0 -355939 2171.09 0 -356274 2299.42 0 -356628 2427.86 0 -357002 2556.4 0 -357395 2685.06 0 -357807 2813.85 0 -358238 2942.76 0 -358689 3071.81 0 -359159 3201 0 -359649 3330.34 0 -360158 3459.83 0 -360686 3589.48 0 -361234 3719.29 0 -361801 3849.27 0 -362388 3979.42 0 -362994 4109.76 0 -363620 4240.29 0 -364265 4371 0 -364930 4501.92 0 -365615 4633.04 0 -366319 4764.37 0 -367043 4895.91 0 -367787 5027.68 0 -368551 5159.67 0 -369334 5291.9 0 -370137 5424.36 0 -370960 5557.07 0 -371803 5690.03 0 -372666 5823.25 0 -373549 5956.72 0 -374452 6090.47 0 -375375 6224.48 0 -376318 6358.77 0 -377281 6493.35 0 -378265 6628.22 0 -379269 6763.38 0 -380293 6898.84 0 -381337 7034.6 0 -382402 7170.68 0 -383487 7307.07 0 -384592 7443.79 0 -385718 7580.83 0 -386865 7718.21 0 -388032 7855.92 0 -389220 7993.98 0 -390429 8132.39 0 -391659 8271.15 0 -392909 8410.28 0 -394180 8549.77 0 -395472 8689.62 0 -396785 8829.86 0 -398119 8970.47 0 -399475 9111.47 0 -400851 9252.87 0 -402249 9394.66 0 -403668 9536.85 0 -405108 9679.44 0 -406570 9822.45 0 -408053 9965.88 0 -409558 10109.7 0 -411084 10254 0 -412632 10398.7 0 -414202 10543.8 0 -415793 10689.4 0 -417407 10835.5 0 -419042 10981.9 0 -420699 11128.9 0 -422379 11276.3 0 -424080 11424.1 0 -425804 11572.5 0 -427550 11721.3 0 -429318 11870.6 0 -431109 12020.3 0 -432922 12170.6 0 -434758 12321.3 0 -436616 12472.6 0 -438497 12624.3 0 -440401 12776.6 0 -442328 12929.3 0 -444278 13082.6 0 -446251 13236.4 0 -448246 13390.7 0 -450265 13545.6 0 -452308 13700.9 0 -454373 13856.8 0 -456462 14013.3 0 -458575 14170.2 0 -460711 14327.8 0 -462871 14485.8 0 -465054 14644.4 0 -467262 14803.6 0 -469493 14963.4 0 -471748 15123.7 0 -474028 15284.5 0 -476331 15445.9 0 -478659 15607.9 0 -481011 15770.5 0 -483388 15933.7 0 -485789 16097.4 0 -488214 16261.7 0 -490665 16426.6 0 -493140 16592.1 0 -495640 16758.1 0 -498165 16924.8 0 -500714 17092.1 0 -503290 17259.9 0 -505890 17428.4 0 -508515 17597.4 0 -511166 17767.1 0 -513843 17937.3 0 -516545 18108.2 0 -352937 0 0 -352947 159.256 0 -352975 318.519 0 -353023 477.797 0 -353090 637.097 0 -353176 796.427 0 -353281 955.793 0 -353405 1115.2 0 -353548 1274.67 0 -353710 1434.19 0 -353892 1593.77 0 -354092 1753.43 0 -354312 1913.17 0 -354551 2073 0 -354809 2232.93 0 -355086 2392.95 0 -355383 2553.09 0 -355699 2713.35 0 -356033 2873.73 0 -356388 3034.24 0 -356761 3194.89 0 -357154 3355.69 0 -357565 3516.64 0 -357997 3677.75 0 -358447 3839.03 0 -358917 4000.49 0 -359406 4162.13 0 -359915 4323.96 0 -360443 4485.99 0 -360990 4648.23 0 -361557 4810.67 0 -362144 4973.34 0 -362750 5136.23 0 -363375 5299.35 0 -364020 5462.72 0 -364685 5626.33 0 -365369 5790.2 0 -366073 5954.34 0 -366797 6118.74 0 -367540 6283.42 0 -368303 6448.38 0 -369086 6613.63 0 -369889 6779.18 0 -370711 6945.04 0 -371554 7111.21 0 -372416 7277.7 0 -373299 7444.52 0 -374201 7611.66 0 -375124 7779.15 0 -376066 7946.99 0 -377029 8115.18 0 -378012 8283.73 0 -379015 8452.66 0 -380038 8621.95 0 -381082 8791.63 0 -382146 8961.7 0 -383231 9132.16 0 -384336 9303.03 0 -385461 9474.31 0 -386607 9646 0 -387774 9818.11 0 -388961 9990.66 0 -390169 10163.6 0 -391398 10337.1 0 -392648 10510.9 0 -393918 10685.3 0 -395210 10860.1 0 -396522 11035.3 0 -397855 11211.1 0 -399210 11387.3 0 -400586 11564 0 -401983 11741.2 0 -403401 11918.9 0 -404840 12097.2 0 -406301 12275.9 0 -407784 12455.2 0 -409288 12634.9 0 -410813 12815.3 0 -412360 12996.1 0 -413929 13177.5 0 -415520 13359.5 0 -417132 13542 0 -418767 13725.1 0 -420423 13908.7 0 -422102 14092.9 0 -423802 14277.7 0 -425525 14463.1 0 -427270 14649.1 0 -429038 14835.7 0 -430828 15022.9 0 -432640 15210.7 0 -434475 15399.1 0 -436332 15588.1 0 -438212 15777.8 0 -440115 15968.1 0 -442041 16159 0 -443990 16350.6 0 -445962 16542.8 0 -447957 16735.7 0 -449975 16929.2 0 -452016 17123.4 0 -454081 17318.2 0 -456169 17513.8 0 -458280 17710 0 -460415 17906.8 0 -462574 18104.4 0 -464757 18302.7 0 -466963 18501.6 0 -469193 18701.3 0 -471447 18901.6 0 -473726 19102.7 0 -476028 19304.5 0 -478355 19506.9 0 -480706 19710.1 0 -483081 19914.1 0 -485481 20118.7 0 -487906 20324.1 0 -490355 20530.2 0 -492829 20737 0 -495328 20944.6 0 -497852 21152.9 0 -500400 21362 0 -502974 21571.8 0 -505573 21782.3 0 -508198 21993.6 0 -510848 22205.7 0 -513523 22418.5 0 -516224 22632.1 0 -352645 0 0 -352655 191.062 0 -352683 382.133 0 -352731 573.222 0 -352798 764.337 0 -352884 955.488 0 -352988 1146.68 0 -353113 1337.93 0 -353256 1529.24 0 -353418 1720.62 0 -353599 1912.08 0 -353800 2103.63 0 -354019 2295.27 0 -354258 2487.02 0 -354516 2678.88 0 -354793 2870.87 0 -355089 3062.99 0 -355405 3255.25 0 -355739 3447.67 0 -356093 3640.24 0 -356466 3832.97 0 -356859 4025.88 0 -357270 4218.98 0 -357701 4412.27 0 -358151 4605.77 0 -358621 4799.47 0 -359110 4993.4 0 -359618 5187.55 0 -360146 5381.94 0 -360693 5576.57 0 -361259 5771.47 0 -361845 5966.62 0 -362451 6162.04 0 -363076 6357.75 0 -363720 6553.75 0 -364385 6750.04 0 -365068 6946.64 0 -365772 7143.55 0 -366495 7340.79 0 -367238 7538.36 0 -368000 7736.28 0 -368783 7934.54 0 -369585 8133.16 0 -370407 8332.14 0 -371249 8531.5 0 -372111 8731.24 0 -372993 8931.38 0 -373894 9131.92 0 -374816 9332.86 0 -375758 9534.22 0 -376720 9736.01 0 -377703 9938.23 0 -378705 10140.9 0 -379728 10344 0 -380771 10547.6 0 -381834 10751.6 0 -382918 10956.1 0 -384022 11161.1 0 -385147 11366.6 0 -386292 11572.6 0 -387458 11779.1 0 -388645 11986.1 0 -389852 12193.7 0 -391080 12401.7 0 -392329 12610.3 0 -393598 12819.5 0 -394889 13029.2 0 -396200 13239.5 0 -397533 13450.3 0 -398887 13661.8 0 -400261 13873.8 0 -401657 14086.4 0 -403075 14299.6 0 -404513 14513.4 0 -405973 14727.9 0 -407455 14943 0 -408958 15158.7 0 -410482 15375 0 -412028 15592 0 -413596 15809.6 0 -415186 16028 0 -416797 16246.9 0 -418431 16466.6 0 -420086 16686.9 0 -421764 16908 0 -423463 17129.7 0 -425185 17352.1 0 -426929 17575.3 0 -428695 17799.1 0 -430484 18023.7 0 -432295 18249 0 -434129 18475.1 0 -435985 18701.9 0 -437864 18929.5 0 -439766 19157.8 0 -441691 19386.9 0 -443638 19616.7 0 -445609 19847.4 0 -447602 20078.8 0 -449619 20311 0 -451659 20544 0 -453723 20777.8 0 -455810 21012.4 0 -457920 21247.8 0 -460054 21484 0 -462211 21721.1 0 -464392 21959 0 -466598 22197.7 0 -468826 22437.2 0 -471079 22677.6 0 -473356 22918.9 0 -475658 23161 0 -477983 23403.9 0 -480333 23647.8 0 -482707 23892.4 0 -485105 24138 0 -487529 24384.4 0 -489976 24631.7 0 -492449 24879.9 0 -494946 25129 0 -497469 25379 0 -500016 25629.8 0 -502589 25881.6 0 -505187 26134.2 0 -507810 26387.8 0 -510458 26642.2 0 -513132 26897.6 0 -515832 27153.9 0 -352300 0 0 -352310 222.844 0 -352338 445.698 0 -352386 668.573 0 -352453 891.479 0 -352538 1114.43 0 -352643 1337.42 0 -352767 1560.48 0 -352910 1783.62 0 -353072 2006.83 0 -353254 2230.14 0 -353454 2453.55 0 -353673 2677.07 0 -353912 2900.72 0 -354169 3124.5 0 -354446 3348.42 0 -354742 3572.5 0 -355057 3796.75 0 -355392 4021.16 0 -355745 4245.77 0 -356118 4470.56 0 -356510 4695.57 0 -356921 4920.79 0 -357352 5146.23 0 -357802 5371.91 0 -358271 5597.84 0 -358759 5824.02 0 -359267 6050.48 0 -359795 6277.2 0 -360341 6504.22 0 -360907 6731.53 0 -361493 6959.15 0 -362098 7187.08 0 -362722 7415.35 0 -363366 7643.95 0 -364030 7872.9 0 -364713 8102.2 0 -365416 8331.87 0 -366139 8561.93 0 -366881 8792.37 0 -367643 9023.2 0 -368425 9254.45 0 -369226 9486.11 0 -370047 9718.2 0 -370889 9950.73 0 -371750 10183.7 0 -372631 10417.1 0 -373532 10651 0 -374453 10885.4 0 -375394 11120.3 0 -376356 11355.6 0 -377337 11591.5 0 -378339 11827.9 0 -379361 12064.8 0 -380403 12302.2 0 -381465 12540.2 0 -382548 12778.8 0 -383652 13017.9 0 -384775 13257.6 0 -385920 13497.8 0 -387085 13738.7 0 -388270 13980.1 0 -389477 14222.2 0 -390704 14464.9 0 -391951 14708.2 0 -393220 14952.2 0 -394510 15196.8 0 -395820 15442.1 0 -397152 15688 0 -398504 15934.6 0 -399878 16181.9 0 -401273 16429.9 0 -402689 16678.6 0 -404127 16928 0 -405585 17178.1 0 -407066 17429 0 -408568 17680.6 0 -410091 17933 0 -411636 18186.1 0 -413203 18439.9 0 -414791 18694.6 0 -416401 18950 0 -418034 19206.2 0 -419688 19463.2 0 -421364 19721 0 -423062 19979.7 0 -424783 20239.1 0 -426525 20499.4 0 -428290 20760.6 0 -430078 21022.5 0 -431888 21285.4 0 -433720 21549.1 0 -435575 21813.6 0 -437453 22079.1 0 -439353 22345.4 0 -441276 22612.6 0 -443223 22880.7 0 -445192 23149.8 0 -447184 23419.7 0 -449199 23690.6 0 -451238 23962.4 0 -453300 24235.1 0 -455385 24508.7 0 -457494 24783.4 0 -459627 25058.9 0 -461783 25335.5 0 -463962 25613 0 -466166 25891.4 0 -468393 26170.9 0 -470645 26451.3 0 -472920 26732.7 0 -475220 27015.1 0 -477543 27298.6 0 -479892 27583 0 -482264 27868.4 0 -484661 28154.9 0 -487083 28442.3 0 -489529 28730.8 0 -492000 29020.4 0 -494496 29310.9 0 -497017 29602.5 0 -499563 29895.2 0 -502134 30188.9 0 -504730 30483.6 0 -507351 30779.4 0 -509998 31076.2 0 -512670 31374.1 0 -515368 31673.1 0 -351902 0 0 -351912 254.597 0 -351940 509.206 0 -351988 763.839 0 -352055 1018.51 0 -352140 1273.22 0 -352245 1527.99 0 -352369 1782.84 0 -352512 2037.77 0 -352674 2292.79 0 -352855 2547.91 0 -353055 2803.16 0 -353274 3058.53 0 -353512 3314.05 0 -353770 3569.71 0 -354046 3825.55 0 -354342 4081.55 0 -354657 4337.75 0 -354991 4594.15 0 -355344 4850.76 0 -355717 5107.59 0 -356108 5364.65 0 -356519 5621.96 0 -356949 5879.54 0 -357399 6137.38 0 -357867 6395.5 0 -358355 6653.91 0 -358863 6912.63 0 -359389 7171.67 0 -359936 7431.03 0 -360501 7690.74 0 -361086 7950.79 0 -361691 8211.21 0 -362314 8472 0 -362958 8733.18 0 -363621 8994.76 0 -364304 9256.74 0 -365006 9519.15 0 -365728 9781.98 0 -366469 10045.3 0 -367230 10309 0 -368011 10573.2 0 -368812 10837.9 0 -369633 11103 0 -370473 11368.7 0 -371333 11634.9 0 -372214 11901.6 0 -373114 12168.8 0 -374034 12436.6 0 -374974 12704.9 0 -375935 12973.8 0 -376915 13243.3 0 -377916 13513.4 0 -378937 13784.1 0 -379978 14055.4 0 -381040 14327.3 0 -382122 14599.8 0 -383224 14873 0 -384347 15146.9 0 -385490 15421.4 0 -386654 15696.6 0 -387839 15972.4 0 -389044 16249 0 -390270 16526.3 0 -391516 16804.3 0 -392784 17083.1 0 -394072 17362.5 0 -395382 17642.8 0 -396712 17923.8 0 -398063 18205.6 0 -399436 18488.1 0 -400830 18771.5 0 -402244 19055.6 0 -403681 19340.6 0 -405138 19626.4 0 -406617 19913 0 -408118 20200.5 0 -409640 20488.8 0 -411183 20778 0 -412749 21068.1 0 -414336 21359 0 -415945 21650.9 0 -417575 21943.6 0 -419228 22237.3 0 -420903 22531.9 0 -422600 22827.4 0 -424319 23123.9 0 -426060 23421.3 0 -427823 23719.6 0 -429609 24019 0 -431417 24319.3 0 -433248 24620.6 0 -435102 24922.9 0 -436978 25226.2 0 -438877 25530.5 0 -440798 25835.9 0 -442743 26142.2 0 -444711 26449.6 0 -446701 26758.1 0 -448715 27067.6 0 -450752 27378.1 0 -452812 27689.8 0 -454896 28002.5 0 -457003 28316.3 0 -459134 28631.2 0 -461288 28947.1 0 -463466 29264.2 0 -465668 29582.4 0 -467893 29901.8 0 -470143 30222.2 0 -472417 30543.8 0 -474714 30866.5 0 -477036 31190.4 0 -479383 31515.4 0 -481754 31841.6 0 -484149 32168.9 0 -486569 32497.4 0 -489013 32827.1 0 -491482 33157.9 0 -493976 33490 0 -496495 33823.2 0 -499039 34157.6 0 -501608 34493.2 0 -504203 34830 0 -506822 35168.1 0 -509467 35507.3 0 -512137 35847.7 0 -514833 36189.4 0 -351451 0 0 -351461 286.318 0 -351490 572.648 0 -351537 859.006 0 -351604 1145.4 0 -351689 1431.85 0 -351794 1718.37 0 -351918 2004.97 0 -352060 2291.65 0 -352222 2578.45 0 -352403 2865.36 0 -352603 3152.41 0 -352822 3439.6 0 -353060 3726.95 0 -353317 4014.47 0 -353593 4302.18 0 -353889 4590.08 0 -354203 4878.2 0 -354537 5166.54 0 -354890 5455.12 0 -355262 5743.96 0 -355653 6033.05 0 -356063 6322.43 0 -356493 6612.09 0 -356942 6902.06 0 -357410 7192.34 0 -357898 7482.95 0 -358404 7773.91 0 -358931 8065.22 0 -359476 8356.91 0 -360041 8648.97 0 -360625 8941.43 0 -361229 9234.3 0 -361852 9527.59 0 -362495 9821.31 0 -363157 10115.5 0 -363839 10410.1 0 -364541 10705.2 0 -365262 11000.8 0 -366003 11296.9 0 -366763 11593.5 0 -367543 11890.6 0 -368343 12188.3 0 -369163 12486.5 0 -370002 12785.3 0 -370862 13084.6 0 -371741 13384.6 0 -372640 13685.1 0 -373560 13986.3 0 -374499 14288 0 -375458 14590.5 0 -376438 14893.5 0 -377437 15197.3 0 -378457 15501.7 0 -379497 15806.8 0 -380558 16112.6 0 -381639 16419.1 0 -382740 16726.3 0 -383862 17034.3 0 -385004 17343 0 -386166 17652.5 0 -387350 17962.8 0 -388554 18273.9 0 -389778 18585.7 0 -391024 18898.4 0 -392290 19211.9 0 -393577 19526.2 0 -394885 19841.4 0 -396214 20157.4 0 -397564 20474.3 0 -398935 20792.1 0 -400327 21110.8 0 -401741 21430.4 0 -403175 21750.9 0 -404631 22072.3 0 -406109 22394.7 0 -407608 22718 0 -409128 23042.3 0 -410671 23367.5 0 -412234 23693.8 0 -413820 24021 0 -415427 24349.2 0 -417056 24678.5 0 -418707 25008.8 0 -420380 25340.1 0 -422076 25672.5 0 -423793 26005.9 0 -425532 26340.4 0 -427294 26676 0 -429078 27012.7 0 -430885 27350.5 0 -432714 27689.4 0 -434566 28029.4 0 -436440 28370.5 0 -438337 28712.8 0 -440257 29056.2 0 -442200 29400.8 0 -444165 29746.6 0 -446154 30093.5 0 -448166 30441.6 0 -450201 30790.9 0 -452259 31141.5 0 -454341 31493.2 0 -456446 31846.2 0 -458575 32200.3 0 -460727 32555.8 0 -462903 32912.4 0 -465103 33270.3 0 -467327 33629.5 0 -469575 33990 0 -471846 34351.7 0 -474142 34714.7 0 -476462 35079 0 -478806 35444.6 0 -481175 35811.5 0 -483568 36179.7 0 -485986 36549.2 0 -488428 36920 0 -490895 37292.2 0 -493387 37665.7 0 -495904 38040.5 0 -498446 38416.7 0 -501013 38794.3 0 -503605 39173.2 0 -506222 39553.4 0 -508865 39935 0 -511534 40318 0 -514227 40702.3 0 -350948 0 0 -350957 318.001 0 -350986 636.017 0 -351033 954.063 0 -351100 1272.15 0 -351185 1590.3 0 -351290 1908.52 0 -351413 2226.83 0 -351556 2545.25 0 -351718 2863.78 0 -351898 3182.44 0 -352098 3501.25 0 -352317 3820.22 0 -352554 4139.37 0 -352811 4458.71 0 -353087 4778.26 0 -353382 5098.03 0 -353696 5418.03 0 -354029 5738.28 0 -354382 6058.8 0 -354753 6379.59 0 -355144 6700.68 0 -355554 7022.08 0 -355983 7343.8 0 -356432 7665.86 0 -356899 7988.27 0 -357386 8311.04 0 -357892 8634.2 0 -358418 8957.75 0 -358963 9281.72 0 -359527 9606.11 0 -360111 9930.94 0 -360714 10256.2 0 -361336 10582 0 -361978 10908.2 0 -362640 11234.9 0 -363321 11562.2 0 -364021 11889.9 0 -364741 12218.2 0 -365481 12547.1 0 -366241 12876.5 0 -367020 13206.6 0 -367819 13537.2 0 -368638 13868.4 0 -369476 14200.2 0 -370335 14532.7 0 -371213 14865.9 0 -372111 15199.7 0 -373029 15534.2 0 -373968 15869.4 0 -374926 16205.3 0 -375904 16541.9 0 -376903 16879.2 0 -377921 17217.4 0 -378960 17556.2 0 -380019 17895.9 0 -381099 18236.3 0 -382199 18577.6 0 -383319 18919.7 0 -384460 19262.6 0 -385621 19606.4 0 -386803 19951 0 -388006 20296.5 0 -389229 20642.9 0 -390473 20990.2 0 -391738 21338.4 0 -393023 21687.5 0 -394330 22037.6 0 -395657 22388.6 0 -397006 22740.6 0 -398375 23093.6 0 -399766 23447.6 0 -401178 23802.6 0 -402611 24158.6 0 -404065 24515.6 0 -405541 24873.7 0 -407038 25232.8 0 -408557 25593 0 -410098 25954.3 0 -411660 26316.7 0 -413243 26680.2 0 -414849 27044.8 0 -416476 27410.5 0 -418125 27777.4 0 -419797 28145.4 0 -421490 28514.6 0 -423205 28885 0 -424943 29256.6 0 -426703 29629.4 0 -428485 30003.4 0 -430290 30378.6 0 -432117 30755 0 -433966 31132.7 0 -435839 31511.7 0 -437734 31891.9 0 -439652 32273.4 0 -441592 32656.2 0 -443556 33040.3 0 -445543 33425.7 0 -447553 33812.4 0 -449586 34200.4 0 -451642 34589.8 0 -453721 34980.5 0 -455824 35372.6 0 -457951 35766.1 0 -460101 36160.9 0 -462275 36557.1 0 -464473 36954.7 0 -466694 37353.8 0 -468939 37754.2 0 -471209 38156 0 -473502 38559.3 0 -475820 38964 0 -478162 39370.2 0 -480528 39777.8 0 -482919 40186.8 0 -485335 40597.3 0 -487775 41009.3 0 -490239 41422.8 0 -492729 41837.7 0 -495243 42254.2 0 -497783 42672.1 0 -500348 43091.5 0 -502937 43512.5 0 -505552 43934.9 0 -508193 44358.9 0 -510859 44784.4 0 -513550 45211.4 0 -350392 0 0 -350401 349.644 0 -350429 699.304 0 -350477 1049 0 -350543 1398.74 0 -350629 1748.54 0 -350733 2098.43 0 -350856 2448.42 0 -350999 2798.51 0 -351160 3148.74 0 -351341 3499.11 0 -351540 3849.65 0 -351758 4200.36 0 -351996 4551.27 0 -352252 4902.39 0 -352528 5253.73 0 -352822 5605.32 0 -353136 5957.16 0 -353469 6309.28 0 -353821 6661.69 0 -354192 7014.41 0 -354582 7367.45 0 -354991 7720.83 0 -355420 8074.57 0 -355868 8428.68 0 -356335 8783.17 0 -356821 9138.07 0 -357327 9493.39 0 -357851 9849.15 0 -358396 10205.4 0 -358959 10562 0 -359542 10919.2 0 -360144 11276.8 0 -360766 11635 0 -361407 11993.7 0 -362068 12353 0 -362748 12712.8 0 -363447 13073.2 0 -364167 13434.1 0 -364905 13795.7 0 -365664 14158 0 -366442 14520.8 0 -367240 14884.3 0 -368058 15248.5 0 -368895 15613.4 0 -369752 15979 0 -370629 16345.3 0 -371526 16712.4 0 -372443 17080.1 0 -373380 17448.7 0 -374337 17818 0 -375315 18188.2 0 -376312 18559.1 0 -377329 18930.9 0 -378367 19303.5 0 -379424 19677 0 -380503 20051.4 0 -381601 20426.6 0 -382720 20802.7 0 -383859 21179.8 0 -385019 21557.8 0 -386199 21936.7 0 -387400 22316.6 0 -388622 22697.5 0 -389864 23079.4 0 -391128 23462.3 0 -392411 23846.2 0 -393716 24231.1 0 -395042 24617.1 0 -396389 25004.2 0 -397757 25392.3 0 -399146 25781.6 0 -400556 26171.9 0 -401987 26563.4 0 -403440 26956 0 -404914 27349.7 0 -406409 27744.6 0 -407926 28140.7 0 -409464 28538 0 -411025 28936.5 0 -412606 29336.2 0 -414210 29737.2 0 -415835 30139.4 0 -417482 30542.8 0 -419152 30947.5 0 -420843 31353.5 0 -422556 31760.8 0 -424292 32169.4 0 -426050 32579.4 0 -427830 32990.6 0 -429632 33403.3 0 -431457 33817.2 0 -433305 34232.6 0 -435175 34649.3 0 -437067 35067.4 0 -438983 35487 0 -440921 35907.9 0 -442883 36330.3 0 -444867 36754.1 0 -446875 37179.4 0 -448905 37606.2 0 -450959 38034.4 0 -453036 38464.1 0 -455137 38895.3 0 -457261 39328 0 -459409 39762.2 0 -461580 40198 0 -463776 40635.2 0 -465995 41074.1 0 -468237 41514.5 0 -470504 41956.4 0 -472795 42399.9 0 -475111 42845 0 -477450 43291.7 0 -479814 43740 0 -482202 44189.9 0 -484615 44641.4 0 -487052 45094.5 0 -489515 45549.2 0 -492002 46005.6 0 -494513 46463.6 0 -497050 46923.3 0 -499612 47384.6 0 -502199 47847.6 0 -504812 48312.3 0 -507450 48778.6 0 -510113 49246.6 0 -512801 49716.3 0 -349782 0 0 -349792 381.242 0 -349820 762.501 0 -349868 1143.8 0 -349934 1525.14 0 -350019 1906.56 0 -350123 2288.07 0 -350247 2669.68 0 -350389 3051.42 0 -350550 3433.3 0 -350730 3815.34 0 -350929 4197.55 0 -351147 4579.96 0 -351384 4962.58 0 -351640 5345.43 0 -351916 5728.52 0 -352210 6111.89 0 -352523 6495.53 0 -352855 6879.47 0 -353207 7263.74 0 -353577 7648.33 0 -353967 8033.28 0 -354376 8418.6 0 -354804 8804.31 0 -355251 9190.42 0 -355717 9576.96 0 -356202 9963.94 0 -356707 10351.4 0 -357231 10739.3 0 -357775 11127.7 0 -358337 11516.6 0 -358919 11906 0 -359521 12296 0 -360141 12686.6 0 -360782 13077.7 0 -361441 13469.4 0 -362120 13861.8 0 -362819 14254.7 0 -363537 14648.3 0 -364275 15042.6 0 -365032 15437.6 0 -365809 15833.3 0 -366606 16229.7 0 -367423 16626.8 0 -368259 17024.6 0 -369115 17423.3 0 -369991 17822.7 0 -370886 18222.9 0 -371802 18624 0 -372738 19025.9 0 -373693 19428.6 0 -374669 19832.2 0 -375665 20236.7 0 -376681 20642.1 0 -377717 21048.4 0 -378773 21455.7 0 -379850 21863.9 0 -380947 22273.1 0 -382064 22683.2 0 -383202 23094.4 0 -384360 23506.6 0 -385538 23919.8 0 -386738 24334.1 0 -387958 24749.4 0 -389198 25165.8 0 -390460 25583.4 0 -391742 26002 0 -393045 26421.8 0 -394369 26842.7 0 -395714 27264.8 0 -397080 27688 0 -398467 28112.5 0 -399875 28538.2 0 -401304 28965.1 0 -402755 29393.2 0 -404227 29822.6 0 -405720 30253.2 0 -407235 30685.2 0 -408771 31118.4 0 -410329 31553 0 -411909 31988.9 0 -413510 32426.1 0 -415133 32864.7 0 -416778 33304.7 0 -418445 33746 0 -420134 34188.8 0 -421846 34633 0 -423579 35078.6 0 -425334 35525.6 0 -427112 35974.2 0 -428912 36424.1 0 -430735 36875.6 0 -432580 37328.6 0 -434447 37783.1 0 -436338 38239.1 0 -438251 38696.6 0 -440187 39155.7 0 -442146 39616.4 0 -444128 40078.6 0 -446133 40542.4 0 -448161 41007.8 0 -450212 41474.8 0 -452287 41943.5 0 -454385 42413.8 0 -456506 42885.7 0 -458651 43359.3 0 -460820 43834.