<?xml version="1.0"?> 
<VTKFile type="StructuredGrid" version="0.1"> 
<StructuredGrid WholeExtent="0 127 0 127 0 0"> 
<Piece Extent="0 127 0 127 0 0"> 
<PointData>
<DataArray type="Float32" Name="E" format="ascii" NumberOfComponents="3"> 
1.73488e+06 -692003 0 1.75699e+06 -645886 0 1.79602e+06 -596214 0 1.83383e+06 -546393 0 1.86963e+06 -496847 0 1.90199e+06 -446894 0 1.93045e+06 -396941 0 1.9545e+06 -347124 0 1.97396e+06 -297842 0 1.98874e+06 -249459 0 1.99891e+06 -202373 0 2.00466e+06 -156941 0 2.00624e+06 -113477 0 2.00397e+06 -72231.3 0 1.99822e+06 -33385.6 0 1.98935e+06 2942.47 0 1.97771e+06 36695.2 0 1.96368e+06 67866.2 0 1.94756e+06 96491 0 1.92966e+06 122638 0 1.91026e+06 146401 0 1.8896e+06 167890 0 1.86789e+06 187227 0 1.84532e+06 204539 0 1.82206e+06 219958 0 1.79826e+06 233613 0 1.77404e+06 245631 0 1.7495e+06 256136 0 1.72475e+06 265244 0 1.69985e+06 273067 0 1.67489e+06 279710 0 1.64992e+06 285271 0 1.625e+06 289844 0 1.60016e+06 293512 0 1.57545e+06 296355 0 1.5509e+06 298448 0 1.52654e+06 299857 0 1.50239e+06 300645 0 1.47848e+06 300869 0 1.45482e+06 300583 0 1.43142e+06 299835 0 1.40831e+06 298670 0 1.3855e+06 297128 0 1.36298e+06 295248 0 1.34078e+06 293062 0 1.31889e+06 290604 0 1.29733e+06 287900 0 1.2761e+06 284979 0 1.25519e+06 281863 0 1.23462e+06 278574 0 1.21439e+06 275134 0 1.1945e+06 271559 0 1.17494e+06 267867 0 1.15573e+06 264073 0 1.13685e+06 260190 0 1.11832e+06 256231 0 1.10012e+06 252209 0 1.08226e+06 248132 0 1.06473e+06 244011 0 1.04754e+06 239854 0 1.03068e+06 235670 0 1.01416e+06 231465 0 997960 227245 0 982088 223016 0 966540 218784 0 951313 214554 0 936405 210329 0 921812 206113 0 907533 201910 0 893564 197723 0 879902 193554 0 866545 189406 0 853489 185281 0 840731 181181 0 828269 177107 0 816099 173061 0 804219 169043 0 792625 165056 0 781314 161100 0 770284 157175 0 759531 153282 0 749053 149421 0 738847 145593 0 728909 141798 0 719237 138036 0 709829 134306 0 700680 130610 0 691790 126946 0 683155 123315 0 674772 119715 0 666639 116147 0 658754 112611 0 651114 109105 0 643717 105630 0 636560 102184 0 629641 98767.2 0 622958 95378.9 0 616509 92018.3 0 610291 88684.8 0 604304 85377.6 0 598544 82095.9 0 593010 78839.1 0 587700 75606.2 0 582612 72396.5 0 577745 69209.2 0 573097 66043.3 0 568666 62898.1 0 564452 59772.7 0 560452 56666.1 0 556665 53577.6 0 553091 50506.1 0 549727 47450.8 0 546572 44410.7 0 543627 41385 0 540888 38372.7 0 538357 35372.8 0 536031 32384.4 0 533910 29406.7 0 531993 26438.5 0 530279 23479 0 528769 20527.3 0 527461 17582.2 0 526355 14643 0 525451 11708.6 0 524748 8778.07 0 524246 5850.44 0 523945 2924.73 0 523844 0 0 1.73738e+06 -692999 0 1.76376e+06 -647605 0 1.80242e+06 -598063 0 1.84025e+06 -548189 0 1.87592e+06 -498315 0 1.90817e+06 -448019 0 1.93645e+06 -397652 0 1.96029e+06 -347413 0 1.97949e+06 -297705 0 1.99398e+06 -248911 0 2.00384e+06 -201441 0 2.00924e+06 -155659 0 2.01046e+06 -111886 0 2.00784e+06 -70369.9 0 2.00172e+06 -31295.1 0 1.99249e+06 5223.74 0 1.98051e+06 39131.7 0 1.96614e+06 70426 0 1.94971e+06 99146.1 0 1.93152e+06 125364 0 1.91184e+06 149177 0 1.89092e+06 170699 0 1.86898e+06 190054 0 1.8462e+06 207373 0 1.82275e+06 222788 0 1.79877e+06 236431 0 1.77438e+06 248431 0 1.7497e+06 258911 0 1.72481e+06 267991 0 1.6998e+06 275783 0 1.67474e+06 282393 0 1.64967e+06 287919 0 1.62466e+06 292454 0 1.59975e+06 296085 0 1.57497e+06 298889 0 1.55036e+06 300942 0 1.52595e+06 302312 0 1.50176e+06 303060 0 1.47781e+06 303245 0 1.45411e+06 302919 0 1.43069e+06 302132 0 1.40756e+06 300927 0 1.38472e+06 299346 0 1.36219e+06 297427 0 1.33997e+06 295203 0 1.31807e+06 292706 0 1.2965e+06 289965 0 1.27526e+06 287006 0 1.25436e+06 283853 0 1.23379e+06 280529 0 1.21356e+06 277052 0 1.19366e+06 273441 0 1.17411e+06 269714 0 1.1549e+06 265884 0 1.13603e+06 261967 0 1.1175e+06 257974 0 1.09931e+06 253918 0 1.08146e+06 249808 0 1.06394e+06 245654 0 1.04676e+06 241464 0 1.02991e+06 237248 0 1.0134e+06 233010 0 997210 228759 0 981349 224499 0 965812 220236 0 950596 215975 0 935700 211720 0 921119 207474 0 906851 203242 0 892894 199025 0 879244 194828 0 865898 190651 0 852854 186498 0 840108 182370 0 827658 178268 0 815499 174195 0 803630 170150 0 792048 166136 0 780748 162154 0 769729 158202 0 758987 154284 0 748519 150397 0 738323 146544 0 728395 142724 0 718733 138937 0 709334 135183 0 700196 131462 0 691315 127775 0 682689 124119 0 674315 120496 0 666191 116905 0 658314 113346 0 650682 109817 0 643293 106319 0 636143 102851 0 629232 99411.6 0 622556 96001.2 0 616114 92618.7 0 609903 89263.4 0 603922 85934.7 0 598168 82631.6 0 592640 79353.6 0 587336 76099.6 0 582254 72869 0 577392 69660.9 0 572750 66474.4 0 568324 63308.7 0 564114 60162.9 0 560119 57036.1 0 556336 53927.4 0 552765 50835.9 0 549405 47760.6 0 546254 44700.8 0 543312 41655.3 0 540576 38623.3 0 538048 35603.9 0 535724 32596 0 533605 29598.8 0 531691 26611.2 0 529979 23632.4 0 528471 20661.4 0 527164 17697.1 0 526059 14738.7 0 525156 11785.1 0 524454 8835.43 0 523952 5888.66 0 523652 2943.85 0 523551 0 0 1.74076e+06 -694348 0 1.77036e+06 -649354 0 1.80886e+06 -599927 0 1.84669e+06 -549960 0 1.88225e+06 -499763 0 1.91438e+06 -449113 0 1.94249e+06 -398329 0 1.96612e+06 -347663 0 1.98507e+06 -297524 0 1.99926e+06 -248318 0 2.00879e+06 -200462 0 2.01385e+06 -154330 0 2.01471e+06 -110246 0 2.01171e+06 -68462.3 0 2.00522e+06 -29160.1 0 1.99563e+06 7547.11 0 1.9833e+06 41607.7 0 1.9686e+06 73022.7 0 1.95185e+06 101835 0 1.93337e+06 128122 0 1.91342e+06 151982 0 1.89225e+06 173534 0 1.87007e+06 192905 0 1.84708e+06 210227 0 1.82343e+06 225636 0 1.79927e+06 239266 0 1.77472e+06 251245 0 1.74989e+06 261701 0 1.72488e+06 270752 0 1.69975e+06 278511 0 1.67457e+06 285086 0 1.64941e+06 290576 0 1.62432e+06 295073 0 1.59933e+06 298664 0 1.57449e+06 301429 0 1.54982e+06 303442 0 1.52536e+06 304771 0 1.50112e+06 305479 0 1.47713e+06 305624 0 1.4534e+06 305258 0 1.42995e+06 304430 0 1.40679e+06 303186 0 1.38394e+06 301566 0 1.36139e+06 299607 0 1.33916e+06 297345 0 1.31725e+06 294809 0 1.29567e+06 292031 0 1.27443e+06 289034 0 1.25352e+06 285844 0 1.23295e+06 282483 0 1.21272e+06 278969 0 1.19283e+06 275323 0 1.17328e+06 271560 0 1.15407e+06 267696 0 1.13521e+06 263744 0 1.11668e+06 259717 0 1.0985e+06 255626 0 1.08066e+06 251482 0 1.06315e+06 247295 0 1.04598e+06 243073 0 1.02914e+06 238824 0 1.01263e+06 234555 0 996456 230272 0 980606 225981 0 965081 221687 0 949877 217395 0 934992 213110 0 920423 208834 0 906167 204572 0 892221 200326 0 878583 196100 0 865249 191895 0 852217 187713 0 839483 183557 0 827044 179428 0 814897 175327 0 803039 171256 0 791468 167216 0 780179 163206 0 769171 159229 0 758439 155284 0 747982 151373 0 737796 147494 0 727879 143649 0 718227 139837 0 708838 136059 0 699709 132314 0 690837 128602 0 682220 124923 0 673855 121277 0 665740 117662 0 657871 114080 0 650248 110528 0 642866 107007 0 635724 103517 0 628820 100055 0 622152 96622.8 0 615717 93218.4 0 609513 89841.4 0 603538 86491.1 0 597791 83166.8 0 592269 79867.5 0 586971 76592.5 0 581894 73341 0 577038 70112.1 0 572400 66905 0 567979 63718.9 0 563774 60552.7 0 559783 57405.7 0 556005 54276.8 0 552438 51165.3 0 549081 48070.2 0 545934 44990.5 0 542995 41925.3 0 540263 38873.7 0 537736 35834.6 0 535416 32807.3 0 533299 29790.7 0 531387 26783.8 0 529677 23785.6 0 528170 20795.3 0 526865 17811.9 0 525762 14834.3 0 524859 11861.5 0 524158 8892.72 0 523657 5926.85 0 523357 2962.94 0 523256 0 0 1.74479e+06 -695956 0 1.77685e+06 -651141 0 1.81531e+06 -601801 0 1.85315e+06 -551708 0 1.88862e+06 -501191 0 1.92063e+06 -450176 0 1.94856e+06 -398971 0 1.97198e+06 -347873 0 1.99067e+06 -297300 0 2.00457e+06 -247678 0 2.01377e+06 -199435 0 2.01847e+06 -152953 0 2.01897e+06 -108559 0 2.0156e+06 -66508.1 0 2.00874e+06 -26980.4 0 1.99878e+06 9912.84 0 1.9861e+06 44123.5 0 1.97106e+06 75656.3 0 1.954e+06 104559 0 1.93522e+06 130911 0 1.91499e+06 154816 0 1.89356e+06 176396 0 1.87115e+06 195780 0 1.84794e+06 213104 0 1.8241e+06 228505 0 1.79976e+06 242118 0 1.77505e+06 254076 0 1.75008e+06 264504 0 1.72493e+06 273524 0 1.69968e+06 281250 0 1.6744e+06 287789 0 1.64915e+06 293241 0 1.62397e+06 297699 0 1.59891e+06 301250 0 1.574e+06 303975 0 1.54928e+06 305947 0 1.52476e+06 307235 0 1.50048e+06 307902 0 1.47645e+06 308005 0 1.45269e+06 307599 0 1.42921e+06 306731 0 1.40603e+06 305447 0 1.38315e+06 303787 0 1.36059e+06 301789 0 1.33834e+06 299487 0 1.31642e+06 296913 0 1.29484e+06 294096 0 1.27359e+06 291062 0 1.25267e+06 287835 0 1.2321e+06 284436 0 1.21187e+06 280887 0 1.19198e+06 277204 0 1.17244e+06 273406 0 1.15324e+06 269506 0 1.13438e+06 265519 0 1.11586e+06 261458 0 1.09769e+06 257333 0 1.07985e+06 253156 0 1.06235e+06 248936 0 1.04519e+06 244681 0 1.02836e+06 240399 0 1.01187e+06 236098 0 995700 231783 0 979861 227461 0 964347 223136 0 949154 218814 0 934281 214498 0 919723 210193 0 905479 205901 0 891546 201626 0 877919 197371 0 864597 193137 0 851577 188928 0 838854 184744 0 826427 180587 0 814291 176459 0 802445 172361 0 790885 168294 0 779607 164258 0 768610 160255 0 757889 156284 0 747443 152347 0 737267 148443 0 727360 144573 0 717718 140737 0 708339 136934 0 699219 133165 0 690357 129429 0 681749 125726 0 673393 122056 0 665286 118418 0 657426 114813 0 649811 111238 0 642437 107695 0 635303 104182 0 628407 100698 0 621746 97243.6 0 615318 93817.4 0 609120 90418.7 0 603152 87046.9 0 597411 83701.2 0 591895 80380.8 0 586603 77084.8 0 581532 73812.4 0 576681 70562.8 0 572048 67335.1 0 567633 64128.5 0 563432 60942 0 559445 57774.8 0 555671 54625.8 0 552108 51494.3 0 548756 48379.3 0 545612 45279.8 0 542676 42194.9 0 539947 39123.7 0 537423 36065.2 0 535105 33018.4 0 532991 29982.3 0 531081 26956.1 0 529373 23938.7 0 527868 20929.1 0 526564 17926.5 0 525462 14929.7 0 524561 11937.9 0 523860 8949.95 0 523360 5964.99 0 523059 2982 0 522959 0 0 1.74931e+06 -697757 0 1.78328e+06 -652972 0 1.82179e+06 -603684 0 1.85963e+06 -553437 0 1.89501e+06 -502599 0 1.92691e+06 -451208 0 1.95467e+06 -399579 0 1.97788e+06 -348042 0 1.99631e+06 -297032 0 2.00991e+06 -246992 0 2.01878e+06 -198360 0 2.02312e+06 -151527 0 2.02324e+06 -106824 0 2.0195e+06 -64506.9 0 2.01226e+06 -24755.7 0 2.00194e+06 12321.2 0 1.9889e+06 46679.2 0 1.97353e+06 78327 0 1.95614e+06 107316 0 1.93706e+06 133731 0 1.91656e+06 157678 0 1.89488e+06 179283 0 1.87223e+06 198678 0 1.8488e+06 216001 0 1.82476e+06 231392 0 1.80025e+06 244988 0 1.77538e+06 256921 0 1.75026e+06 267321 0 1.72498e+06 276309 0 1.69961e+06 284000 0 1.67423e+06 290501 0 1.64888e+06 295914 0 1.62362e+06 300332 0 1.59848e+06 303843 0 1.57351e+06 306526 0 1.54872e+06 308457 0 1.52416e+06 309703 0 1.49983e+06 310329 0 1.47576e+06 310391 0 1.45197e+06 309943 0 1.42846e+06 309034 0 1.40526e+06 307709 0 1.38236e+06 306009 0 1.35978e+06 303971 0 1.33752e+06 301630 0 1.31559e+06 299018 0 1.294e+06 296162 0 1.27274e+06 293090 0 1.25183e+06 289825 0 1.23125e+06 286390 0 1.21102e+06 282803 0 1.19114e+06 279085 0 1.1716e+06 275250 0 1.1524e+06 271315 0 1.13355e+06 267294 0 1.11504e+06 263198 0 1.09687e+06 259039 0 1.07904e+06 254829 0 1.06155e+06 250575 0 1.0444e+06 246287 0 1.02758e+06 241973 0 1.0111e+06 237640 0 994940 233293 0 979112 228940 0 963609 224584 0 948428 220231 0 933567 215885 0 919021 211550 0 904789 207229 0 890867 202925 0 877253 198641 0 863943 194379 0 850934 190141 0 838223 185929 0 825807 181745 0 813683 177590 0 801849 173464 0 790299 169371 0 779033 165309 0 768047 161279 0 757337 157283 0 746901 153320 0 736736 149391 0 726839 145496 0 717207 141635 0 707837 137808 0 698728 134014 0 689875 130254 0 681276 126528 0 672929 122834 0 664831 119174 0 656979 115545 0 649372 111948 0 642006 108382 0 634880 104846 0 627991 101340 0 621337 97863.7 0 614916 94415.7 0 608726 90995.4 0 602764 87602.1 0 597029 84235.1 0 591520 80893.5 0 586233 77576.5 0 581168 74283.3 0 576322 71013 0 571695 67764.7 0 567284 64537.7 0 563088 61330.9 0 559106 58143.4 0 555336 54974.5 0 551777 51823 0 548428 48688.1 0 545287 45568.9 0 542355 42464.3 0 539629 39373.5 0 537108 36295.4 0 534793 33229.2 0 532681 30173.8 0 530773 27128.2 0 529067 24091.6 0 527563 21062.8 0 526261 18041 0 525160 15025 0 524260 12014.1 0 523560 9007.11 0 523060 6003.09 0 522760 3001.05 0 522660 0 0 1.75419e+06 -699704 0 1.78966e+06 -654845 0 1.82829e+06 -605574 0 1.86613e+06 -555149 0 1.90145e+06 -503985 0 1.93323e+06 -452211 0 1.96083e+06 -400151 0 1.98382e+06 -348170 0 2.00198e+06 -296720 0 2.01528e+06 -246258 0 2.02381e+06 -197236 0 2.02779e+06 -150051 0 2.02754e+06 -105040 0 2.02341e+06 -62458.4 0 2.01579e+06 -22485.7 0 2.0051e+06 14772.4 0 1.9917e+06 49275 0 1.97599e+06 81035 0 1.95828e+06 110108 0 1.9389e+06 136582 0 1.91812e+06 160569 0 1.89618e+06 182196 0 1.8733e+06 201599 0 1.84966e+06 218920 0 1.82542e+06 234298 0 1.80073e+06 247874 0 1.7757e+06 259782 0 1.75043e+06 270152 0 1.72502e+06 279106 0 1.69954e+06 286761 0 1.67405e+06 293224 0 1.64861e+06 298596 0 1.62326e+06 302974 0 1.59805e+06 306442 0 1.57301e+06 309084 0 1.54817e+06 310972 0 1.52355e+06 312176 0 1.49918e+06 312759 0 1.47507e+06 312779 0 1.45124e+06 312289 0 1.42771e+06 311339 0 1.40448e+06 309973 0 1.38156e+06 308233 0 1.35896e+06 306155 0 1.33669e+06 303774 0 1.31476e+06 301123 0 1.29316e+06 298228 0 1.27189e+06 295118 0 1.25097e+06 291816 0 1.2304e+06 288343 0 1.21017e+06 284720 0 1.19029e+06 280965 0 1.17075e+06 277095 0 1.15156e+06 273124 0 1.13271e+06 269068 0 1.11421e+06 264937 0 1.09605e+06 260745 0 1.07823e+06 256500 0 1.06075e+06 252213 0 1.0436e+06 247893 0 1.0268e+06 243546 0 1.01032e+06 239180 0 994177 234802 0 978361 230417 0 962869 226031 0 947700 221647 0 932850 217271 0 918316 212906 0 904096 208556 0 890186 204222 0 876583 199909 0 863285 195619 0 850288 191353 0 837589 187113 0 825185 182901 0 813073 178719 0 801249 174567 0 789711 170446 0 778456 166358 0 767481 162302 0 756782 158280 0 746357 154292 0 736202 150338 0 726315 146418 0 716693 142532 0 707334 138680 0 698233 134863 0 689390 131079 0 680800 127329 0 672462 123612 0 664372 119928 0 656529 116276 0 648930 112656 0 641573 109067 0 634454 105510 0 627573 101982 0 620926 98483.1 0 614512 95013.2 0 608329 91571.3 0 602374 88156.6 0 596645 84768.3 0 591142 81405.5 0 585861 78067.6 0 580801 74753.6 0 575961 71462.6 0 571339 68193.8 0 566933 64946.4 0 562742 61719.3 0 558764 58511.7 0 554998 55322.7 0 551443 52151.2 0 548098 48996.5 0 544961 45857.5 0 542032 42733.3 0 539309 39622.9 0 536791 36525.4 0 534478 33439.7 0 532369 30365 0 530463 27300.1 0 528759 24244.2 0 527257 21196.3 0 525956 18155.3 0 524856 15120.3 0 523957 12090.2 0 523258 9064.2 0 522759 6041.14 0 522459 3020.07 0 522360 0 0 1.75935e+06 -701762 0 1.79603e+06 -656761 0 1.83481e+06 -607468 0 1.87266e+06 -556846 0 1.90792e+06 -505350 0 1.93959e+06 -453183 0 1.96702e+06 -400688 0 1.98979e+06 -348258 0 2.00769e+06 -296362 0 2.02068e+06 -245477 0 2.02886e+06 -196062 0 2.03248e+06 -148526 0 2.03185e+06 -103207 0 2.02733e+06 -60362.1 0 2.01933e+06 -20170.1 0 2.00826e+06 17266.8 0 1.99451e+06 51911.2 0 1.97845e+06 83780.3 0 1.96042e+06 112934 0 1.94074e+06 139465 0 1.91968e+06 163489 0 1.89748e+06 185136 0 1.87436e+06 204545 0 1.8505e+06 221859 0 1.82607e+06 237224 0 1.8012e+06 250778 0 1.77601e+06 262659 0 1.7506e+06 272997 0 1.72505e+06 281916 0 1.69945e+06 289532 0 1.67386e+06 295955 0 1.64832e+06 301287 0 1.62289e+06 305622 0 1.59761e+06 309048 0 1.5725e+06 311646 0 1.5476e+06 313492 0 1.52293e+06 314653 0 1.49852e+06 315193 0 1.47437e+06 315170 0 1.45051e+06 314639 0 1.42695e+06 313647 0 1.4037e+06 312239 0 1.38076e+06 310458 0 1.35815e+06 308340 0 1.33586e+06 305919 0 1.31392e+06 303228 0 1.29231e+06 300295 0 1.27104e+06 297146 0 1.25012e+06 293806 0 1.22954e+06 290296 0 1.20931e+06 286636 0 1.18943e+06 282844 0 1.1699e+06 278938 0 1.15071e+06 274932 0 1.13187e+06 270841 0 1.11337e+06 266676 0 1.09522e+06 262449 0 1.07741e+06 258171 0 1.05994e+06 253850 0 1.04281e+06 249497 0 1.02601e+06 245118 0 1.00954e+06 240720 0 993411 236310 0 977606 231894 0 962126 227476 0 946968 223062 0 932130 218656 0 917608 214261 0 903399 209881 0 889501 205518 0 875911 201176 0 862625 196857 0 849639 192563 0 836952 188296 0 824560 184056 0 812459 179847 0 800647 175668 0 789121 171521 0 777877 167406 0 766912 163324 0 756224 159277 0 745810 155263 0 735665 151284 0 725789 147339 0 716177 143428 0 706827 139552 0 697737 135710 0 688902 131903 0 680322 128129 0 671993 124389 0 663912 120681 0 656077 117007 0 648487 113364 0 641137 109753 0 634026 106172 0 627153 102622 0 620513 99101.7 0 614106 95610.1 0 607930 92146.6 0 601981 88710.4 0 596259 85300.8 0 590762 81917 0 585487 78558.1 0 580433 75223.3 0 575598 71911.7 0 570981 68622.4 0 566580 65354.5 0 562393 62107.2 0 558420 58879.5 0 554658 55670.4 0 551108 52479.1 0 547766 49304.6 0 544633 46145.9 0 541707 43002 0 538987 39872.1 0 536472 36755.1 0 534161 33650 0 532054 30556 0 530150 27471.8 0 528449 24396.7 0 526948 21329.6 0 525649 18269.5 0 524551 15215.4 0 523652 12166.3 0 522954 9121.22 0 522455 6079.14 0 522156 3039.07 0 522057 0 0 1.76472e+06 -703906 0 1.80239e+06 -658716 0 1.84134e+06 -609367 0 1.87922e+06 -558528 0 1.91442e+06 -506693 0 1.94598e+06 -454126 0 1.97325e+06 -401188 0 1.9958e+06 -348304 0 2.01343e+06 -295959 0 2.02611e+06 -244647 0 2.03395e+06 -194839 0 2.03719e+06 -146950 0 2.03617e+06 -101324 0 2.03126e+06 -58217.8 0 2.02288e+06 -17808.5 0 2.01143e+06 19804.5 0 1.99731e+06 54587.8 0 1.98091e+06 86563.2 0 1.96255e+06 115795 0 1.94257e+06 142380 0 1.92123e+06 166437 0 1.89877e+06 188101 0 1.87541e+06 207513 0 1.85134e+06 224820 0 1.82671e+06 240168 0 1.80166e+06 253699 0 1.77631e+06 265550 0 1.75075e+06 275855 0 1.72508e+06 284737 0 1.69936e+06 292314 0 1.67366e+06 298696 0 1.64803e+06 303986 0 1.62252e+06 308278 0 1.59716e+06 311661 0 1.57199e+06 314215 0 1.54703e+06 316016 0 1.52231e+06 317134 0 1.49785e+06 317630 0 1.47367e+06 317565 0 1.44978e+06 316990 0 1.42619e+06 315956 0 1.40291e+06 314507 0 1.37995e+06 312684 0 1.35732e+06 310526 0 1.33503e+06 308065 0 1.31307e+06 305334 0 1.29146e+06 302362 0 1.27018e+06 299175 0 1.24926e+06 295796 0 1.22868e+06 292248 0 1.20845e+06 288551 0 1.18858e+06 284723 0 1.16904e+06 280781 0 1.14986e+06 276739 0 1.13103e+06 272613 0 1.11254e+06 268413 0 1.09439e+06 264152 0 1.07659e+06 259840 0 1.05913e+06 255486 0 1.04201e+06 251100 0 1.02522e+06 246688 0 1.00876e+06 242258 0 992642 237816 0 976848 233369 0 961379 228920 0 946233 224476 0 931407 220039 0 916897 215614 0 902700 211205 0 888814 206813 0 875236 202442 0 861961 198095 0 848988 193772 0 836313 189477 0 823932 185210 0 811843 180973 0 800042 176767 0 788527 172594 0 777295 168453 0 766341 164345 0 755664 160272 0 745260 156233 0 735126 152228 0 725260 148258 0 715658 144323 0 706318 140423 0 697237 136557 0 688413 132726 0 679841 128928 0 671521 125164 0 663449 121434 0 655623 117736 0 648041 114071 0 640699 110437 0 633596 106834 0 626730 103262 0 620098 99719.6 0 613698 96206.2 0 607528 92721.1 0 601586 89263.6 0 595871 85832.8 0 590379 82427.9 0 585110 79048.1 0 580062 75692.5 0 575233 72360.2 0 570621 69050.5 0 566225 65762.3 0 562043 62494.7 0 558074 59246.9 0 554317 56017.8 0 550770 52806.6 0 547432 49612.3 0 544302 46433.9 0 541379 43270.4 0 538662 40121 0 536150 36984.5 0 533843 33860.1 0 531738 30746.7 0 529836 27643.4 0 528136 24549 0 526638 21462.8 0 525340 18383.6 0 524243 15310.4 0 523346 12242.3 0 522648 9178.17 0 522150 6117.1 0 521851 3058.05 0 521752 0 0 1.77027e+06 -706120 0 1.80876e+06 -660709 0 1.8479e+06 -611270 0 1.88581e+06 -560196 0 1.92096e+06 -508014 0 1.95242e+06 -455038 0 1.97952e+06 -401652 0 2.00185e+06 -348308 0 2.01921e+06 -295510 0 2.03157e+06 -243768 0 2.03906e+06 -193565 0 2.04192e+06 -145324 0 2.04051e+06 -99390.8 0 2.03521e+06 -56024.9 0 2.02643e+06 -15400.6 0 2.0146e+06 22385.8 0 2.00012e+06 57305.2 0 1.98336e+06 89383.7 0 1.96468e+06 118690 0 1.94439e+06 145326 0 1.92277e+06 169414 0 1.90006e+06 191092 0 1.87646e+06 210506 0 1.85217e+06 227803 0 1.82735e+06 243131 0 1.80212e+06 256637 0 1.7766e+06 268457 0 1.7509e+06 278727 0 1.7251e+06 287571 0 1.69926e+06 295107 0 1.67346e+06 301447 0 1.64773e+06 306693 0 1.62214e+06 310941 0 1.59671e+06 314279 0 1.57147e+06 316789 0 1.54646e+06 318546 0 1.52169e+06 319619 0 1.49718e+06 320072 0 1.47296e+06 319962 0 1.44904e+06 319345 0 1.42542e+06 318268 0 1.40212e+06 316777 0 1.37914e+06 314912 0 1.3565e+06 312712 0 1.33419e+06 310211 0 1.31222e+06 307441 0 1.2906e+06 304429 0 1.26932e+06 301203 0 1.2484e+06 297786 0 1.22782e+06 294201 0 1.20759e+06 290466 0 1.18771e+06 286602 0 1.16819e+06 282623 0 1.14901e+06 278546 0 1.13018e+06 274384 0 1.1117e+06 270149 0 1.09356e+06 265854 0 1.07577e+06 261508 0 1.05831e+06 257121 0 1.0412e+06 252701 0 1.02442e+06 248257 0 1.00798e+06 243795 0 991870 239322 0 976087 234843 0 960630 230363 0 945495 225888 0 930680 221421 0 916182 216966 0 901998 212527 0 888124 208106 0 874558 203707 0 861295 199331 0 848334 194980 0 835670 190657 0 823301 186363 0 811224 182099 0 799435 177866 0 787931 173666 0 776710 169499 0 765767 165365 0 755101 161266 0 744708 157201 0 734585 153172 0 724729 149177 0 715137 145217 0 705807 141293 0 696736 137403 0 687920 133547 0 679358 129726 0 671047 125939 0 662984 122185 0 655166 118465 0 647592 114777 0 640259 111120 0 633164 107495 0 626305 103901 0 619680 100337 0 613288 96801.7 0 607125 93295 0 601189 89816.1 0 595480 86364.1 0 589995 82938.1 0 584732 79537.4 0 579689 76161.1 0 574865 72808.2 0 570258 69478 0 565867 66169.5 0 561690 62881.7 0 557726 59613.8 0 553973 56364.8 0 550430 53133.7 0 547096 49919.6 0 543970 46721.5 0 541050 43538.5 0 538336 40369.6 0 535827 37213.7 0 533522 34069.9 0 531420 30937.2 0 529520 27814.7 0 527822 24701.2 0 526325 21595.8 0 525029 18497.5 0 523933 15405.3 0 523037 12318.2 0 522340 9235.06 0 521843 6155.02 0 521544 3077 0 521445 0 0 1.77596e+06 -708390 0 1.81514e+06 -662735 0 1.85448e+06 -613177 0 1.89243e+06 -561852 0 1.92754e+06 -509314 0 1.95889e+06 -455920 0 1.98583e+06 -402080 0 2.00794e+06 -348270 0 2.02502e+06 -295014 0 2.03706e+06 -242839 0 2.04419e+06 -192240 0 2.04668e+06 -143646 0 2.04487e+06 -97407.2 0 2.03916e+06 -53783.1 0 2.02999e+06 -12946 0 2.01777e+06 25011 0 2.00292e+06 60063.4 0 1.98582e+06 92242 0 1.96681e+06 121620 0 1.94622e+06 148304 0 1.92431e+06 172420 0 1.90133e+06 194110 0 1.8775e+06 213521 0 1.85299e+06 230806 0 1.82797e+06 246114 0 1.80256e+06 259591 0 1.77689e+06 271379 0 1.75104e+06 281612 0 1.72511e+06 290416 0 1.69915e+06 297911 0 1.67325e+06 304207 0 1.64743e+06 309409 0 1.62175e+06 313612 0 1.59624e+06 316905 0 1.57094e+06 319369 0 1.54587e+06 321081 0 1.52106e+06 322109 0 1.49651e+06 322517 0 1.47225e+06 322363 0 1.44829e+06 321702 0 1.42465e+06 320582 0 1.40132e+06 319048 0 1.37833e+06 317142 0 1.35567e+06 314900 0 1.33334e+06 312358 0 1.31137e+06 309548 0 1.28974e+06 306496 0 1.26846e+06 303231 0 1.24753e+06 299776 0 1.22695e+06 296153 0 1.20672e+06 292381 0 1.18685e+06 288479 0 1.16733e+06 284465 0 1.14815e+06 280351 0 1.12933e+06 276154 0 1.11085e+06 271885 0 1.09273e+06 267555 0 1.07494e+06 263175 0 1.0575e+06 258755 0 1.04039e+06 254302 0 1.02363e+06 249825 0 1.00719e+06 245331 0 991094 240826 0 975323 236315 0 959877 231805 0 944754 227299 0 929951 222802 0 915465 218317 0 901293 213848 0 887431 209398 0 873877 204970 0 860626 200565 0 847677 196187 0 835025 191836 0 822668 187514 0 810602 183223 0 798825 178963 0 787333 174737 0 776123 170543 0 765191 166384 0 754536 162259 0 744153 158169 0 734041 154114 0 724195 150095 0 714614 146110 0 705293 142161 0 696232 138247 0 687426 134368 0 678873 130524 0 670571 126713 0 662516 122936 0 654707 119193 0 647141 115482 0 639816 111803 0 632729 108156 0 625878 104539 0 619261 100953 0 612875 97396.4 0 606719 93868.2 0 600790 90367.9 0 595087 86894.7 0 589608 83447.8 0 584351 80026.2 0 579314 76629.1 0 574496 73255.7 0 569894 69905 0 565508 66576.2 0 561335 63268.3 0 557376 59980.3 0 553627 56711.3 0 550088 53460.4 0 546758 50226.5 0 543635 47008.8 0 540719 43806.3 0 538008 40617.8 0 535502 37442.6 0 533199 34279.5 0 531100 31127.5 0 529202 27985.8 0 527506 24853.1 0 526011 21728.7 0 524716 18611.3 0 523621 15500.1 0 522726 12393.9 0 522030 9291.88 0 521533 6192.89 0 521235 3095.93 0 521136 0 0 1.78177e+06 -710706 0 1.82155e+06 -664794 0 1.86109e+06 -615087 0 1.89908e+06 -563495 0 1.93416e+06 -510592 0 1.96541e+06 -456772 0 1.99218e+06 -402470 0 2.01407e+06 -348189 0 2.03087e+06 -294471 0 2.04258e+06 -241861 0 2.04935e+06 -190863 0 2.05145e+06 -141916 0 2.04924e+06 -95372.6 0 2.04313e+06 -51491.9 0 2.03356e+06 -10444.6 0 2.02095e+06 27680.3 0 2.00573e+06 62862.7 0 1.98827e+06 95138.1 0 1.96893e+06 124585 0 1.94803e+06 151314 0 1.92584e+06 175455 0 1.9026e+06 197153 0 1.87853e+06 216561 0 1.85381e+06 233830 0 1.82859e+06 249115 0 1.803e+06 262563 0 1.77717e+06 274316 0 1.75117e+06 284511 0 1.72511e+06 293274 0 1.69904e+06 300725 0 1.67303e+06 306977 0 1.64712e+06 312133 0 1.62136e+06 316290 0 1.59578e+06 319536 0 1.57041e+06 321954 0 1.54528e+06 323620 0 1.52042e+06 324602 0 1.49583e+06 324965 0 1.47153e+06 324767 0 1.44754e+06 324061 0 1.42387e+06 322898 0 1.40052e+06 321321 0 1.37751e+06 319372 0 1.35483e+06 317089 0 1.3325e+06 314506 0 1.31051e+06 311655 0 1.28887e+06 308564 0 1.26759e+06 305260 0 1.24665e+06 301766 0 1.22608e+06 298104 0 1.20585e+06 294295 0 1.18598e+06 290357 0 1.16646e+06 286305 0 1.14729e+06 282156 0 1.12848e+06 277923 0 1.11001e+06 273619 0 1.09189e+06 269255 0 1.07411e+06 264841 0 1.05668e+06 260387 0 1.03958e+06 255901 0 1.02283e+06 251392 0 1.00641e+06 246865 0 990316 242328 0 974555 237786 0 959121 233245 0 944010 228708 0 929219 224181 0 914745 219666 0 900585 215168 0 886735 210689 0 873193 206232 0 859954 201799 0 847017 197392 0 834377 193013 0 822032 188664 0 809978 184346 0 798212 180059 0 786732 175806 0 775533 171586 0 764612 167401 0 753968 163251 0 743596 159135 0 733494 155056 0 723659 151011 0 714087 147002 0 704777 143029 0 695725 139091 0 686929 135188 0 678385 131320 0 670092 127486 0 662046 123686 0 654246 119920 0 646688 116186 0 639371 112485 0 632292 108815 0 625448 105177 0 618839 101569 0 612460 97990.4 0 606311 94440.7 0 600389 90919.1 0 594692 87424.7 0 589220 83956.8 0 583968 80514.4 0 578937 77096.6 0 574124 73702.7 0 569528 70331.6 0 565146 66982.4 0 560979 63654.3 0 557023 60346.3 0 553279 57057.4 0 549744 53786.7 0 546418 50533.1 0 543298 47295.8 0 540386 44073.7 0 537678 40865.8 0 535175 37671.2 0 532875 34488.8 0 530777 31317.6 0 528882 28156.7 0 527188 25004.9 0 525694 21861.4 0 524401 18725 0 523308 15594.7 0 522413 12469.6 0 521718 9348.63 0 521222 6230.71 0 520924 3114.84 0 520825 0 0 1.78767e+06 -713061 0 1.82798e+06 -666881 0 1.86773e+06 -617000 0 1.90577e+06 -565126 0 1.94082e+06 -511848 0 1.97197e+06 -457593 0 1.99858e+06 -402823 0 2.02024e+06 -348064 0 2.03675e+06 -293880 0 2.04813e+06 -240831 0 2.05453e+06 -189434 0 2.05624e+06 -140134 0 2.05362e+06 -93286.4 0 2.04711e+06 -49151.1 0 2.03713e+06 -7895.92 0 2.02413e+06 30394 0 2.00853e+06 65703.2 0 1.99072e+06 98072.3 0 1.97105e+06 127585 0 1.94984e+06 154355 0 1.92736e+06 178518 0 1.90386e+06 200223 0 1.87956e+06 219623 0 1.85461e+06 236876 0 1.8292e+06 252135 0 1.80343e+06 265552 0 1.77743e+06 277268 0 1.7513e+06 287423 0 1.7251e+06 296143 0 1.69892e+06 303550 0 1.6728e+06 309756 0 1.6468e+06 314865 0 1.62095e+06 318975 0 1.5953e+06 322174 0 1.56987e+06 324545 0 1.54469e+06 326164 0 1.51977e+06 327100 0 1.49514e+06 327417 0 1.47081e+06 327173 0 1.44678e+06 326423 0 1.42308e+06 325216 0 1.39971e+06 323596 0 1.37668e+06 321604 0 1.35399e+06 319279 0 1.33164e+06 316655 0 1.30965e+06 313763 0 1.288e+06 310632 0 1.26671e+06 307288 0 1.24578e+06 303755 0 1.2252e+06 300055 0 1.20497e+06 296209 0 1.18511e+06 292233 0 1.16559e+06 288145 0 1.14643e+06 283960 0 1.12762e+06 279692 0 1.10916e+06 275352 0 1.09104e+06 270954 0 1.07328e+06 266506 0 1.05585e+06 262018 0 1.03877e+06 257499 0 1.02202e+06 252957 0 1.00561e+06 248398 0 989534 243829 0 973785 239256 0 958363 234684 0 943263 230116 0 928484 225559 0 914022 221014 0 899874 216487 0 886036 211978 0 872506 207493 0 859280 203031 0 846355 198596 0 833727 194190 0 821393 189813 0 809351 185467 0 797597 181154 0 786128 176874 0 774940 172629 0 764031 168417 0 753397 164241 0 743036 160101 0 732945 155996 0 723120 151927 0 713559 147893 0 704258 143896 0 695216 139934 0 686429 136007 0 677895 132115 0 669611 128258 0 661574 124435 0 653782 120646 0 646233 116890 0 638924 113166 0 631853 109474 0 625017 105814 0 618414 102184 0 612043 98583.6 0 605901 95012.5 0 599985 91469.6 0 594295 87954.1 0 588829 84465.2 0 583583 81001.9 0 578558 77563.5 0 573750 74149 0 569159 70757.6 0 564783 67388.2 0 560620 64039.9 0 556669 60711.9 0 552929 57403.1 0 549398 54112.6 0 546075 50839.3 0 542960 47582.4 0 540050 44340.8 0 537346 41113.5 0 534845 37899.5 0 532548 34697.8 0 530453 31507.4 0 528560 28327.3 0 526868 25156.5 0 525376 21993.9 0 524084 18838.5 0 522992 15689.3 0 522099 12545.2 0 521404 9405.32 0 520908 6268.49 0 520611 3133.73 0 520512 0 0 1.79367e+06 -715451 0 1.83444e+06 -668994 0 1.87439e+06 -618916 0 1.9125e+06 -566745 0 1.94752e+06 -513082 0 1.97857e+06 -458384 0 2.00502e+06 -403138 0 2.02644e+06 -347896 0 2.04267e+06 -293241 0 2.05372e+06 -239750 0 2.05974e+06 -187952 0 2.06105e+06 -138299 0 2.05802e+06 -91148.2 0 2.05109e+06 -46760.1 0 2.0407e+06 -5299.66 0 2.02731e+06 33152.2 0 2.01133e+06 68585.1 0 1.99316e+06 101045 0 1.97316e+06 130619 0 1.95164e+06 157428 0 1.92888e+06 181610 0 1.90512e+06 203318 0 1.88057e+06 222709 0 1.85541e+06 239942 0 1.8298e+06 255174 0 1.80385e+06 268557 0 1.77769e+06 280236 0 1.75141e+06 290348 0 1.72509e+06 299024 0 1.69879e+06 306385 0 1.67257e+06 312544 0 1.64647e+06 317606 0 1.62055e+06 321667 0 1.59482e+06 324818 0 1.56933e+06 327142 0 1.54409e+06 328713 0 1.51912e+06 329602 0 1.49445e+06 329872 0 1.47008e+06 329583 0 1.44602e+06 328788 0 1.42229e+06 327536 0 1.3989e+06 325872 0 1.37585e+06 323837 0 1.35314e+06 321470 0 1.33078e+06 318804 0 1.30878e+06 315871 0 1.28713e+06 312700 0 1.26583e+06 309316 0 1.2449e+06 305744 0 1.22432e+06 302006