<?xml version="1.0"?> 
<VTKFile type="StructuredGrid" version="0.1"> 
<StructuredGrid WholeExtent="0 127 0 127 0 0"> 
<Piece Extent="0 127 0 127 0 0"> 
<PointData>
<DataArray type="Float32" Name="E" format="ascii" NumberOfComponents="3"> 
1722.36 1.23978e-05 0 426.381 -478.691 0 289.945 -424.784 0 175.778 -334.606 0 118.761 -317.264 0 72.5175 -273.157 0 41.87 -252.018 0 17.5428 -224.765 0 -0.321056 -205.442 0 -14.3077 -185.747 0 -24.927 -169.459 0 -33.1264 -154.128 0 -39.3341 -140.691 0 -43.9975 -128.364 0 -47.405 -117.32 0 -49.8083 -107.263 0 -51.3956 -98.1721 0 -52.3232 -89.9044 0 -52.7152 -82.4005 0 -52.6739 -75.5724 0 -52.2828 -69.3605 0 -51.6107 -63.7021 0 -50.7147 -58.5459 0 -49.642 -53.8433 0 -48.4319 -49.5523 0 -47.1172 -45.6341 0 -45.7251 -42.0542 0 -44.2783 -38.7813 0 -42.7958 -35.7873 0 -41.2933 -33.0468 0 -39.7837 -30.5367 0 -38.2778 -28.2363 0 -36.7846 -26.1266 0 -35.3111 -24.1908 0 -33.8632 -22.4132 0 -32.4456 -20.7799 0 -31.062 -19.2783 0 -29.7153 -17.8968 0 -28.4076 -16.6249 0 -27.1404 -15.4532 0 -25.9149 -14.3731 0 -24.7315 -13.3767 0 -23.5906 -12.457 0 -22.4921 -11.6074 0 -21.4358 -10.822 0 -20.4212 -10.0956 0 -19.4475 -9.42329 0 -18.5141 -8.80054 0 -17.6199 -8.22336 0 -16.7641 -7.68804 0 -15.9455 -7.19123 0 -15.163 -6.72986 0 -14.4156 -6.30111 0 -13.7019 -5.90243 0 -13.021 -5.53149 0 -12.3714 -5.18612 0 -11.7522 -4.86437 0 -11.1621 -4.56445 0 -10.6 -4.28472 0 -10.0647 -4.02365 0 -9.55513 -3.77987 0 -9.07023 -3.55212 0 -8.60893 -3.3392 0 -8.17019 -3.14007 0 -7.75303 -2.95372 0 -7.35649 -2.77925 0 -6.97963 -2.61583 0 -6.62156 -2.46268 0 -6.28141 -2.31908 0 -5.95836 -2.18439 0 -5.65159 -2.05799 0 -5.36036 -1.93932 0 -5.08391 -1.82786 0 -4.82154 -1.72314 0 -4.57259 -1.6247 0 -4.33639 -1.53214 0 -4.11233 -1.44506 0 -3.89982 -1.36312 0 -3.69831 -1.28599 0 -3.50723 -1.21335 0 -3.3261 -1.14492 0 -3.15441 -1.08044 0 -2.9917 -1.01966 0 -2.83753 -0.962342 0 -2.69146 -0.908275 0 -2.55311 -0.857256 0 -2.42208 -0.809101 0 -2.29802 -0.763625 0 -2.18058 -0.720674 0 -2.06942 -0.680093 0 -1.96425 -0.641731 0 -1.86475 -0.605458 0 -1.77066 -0.571141 0 -1.6817 -0.538677 0 -1.59762 -0.507936 0 -1.51819 -0.478824 0 -1.44318 -0.451237 0 -1.37237 -0.425082 0 -1.30557 -0.400278 0 -1.24257 -0.376734 0 -1.1832 -0.354379 0 -1.12729 -0.333136 0 -1.07468 -0.312938 0 -1.02522 -0.293717 0 -0.978759 -0.275404 0 -0.935168 -0.25796 0 -0.894324 -0.241305 0 -0.856099 -0.225405 0 -0.820394 -0.210197 0 -0.787098 -0.19564 0 -0.756115 -0.181681 0 -0.727356 -0.168291 0 -0.700739 -0.155406 0 -0.676184 -0.14301 0 -0.65362 -0.131045 0 -0.632985 -0.119488 0 -0.614213 -0.108281 0 -0.59725 -0.0974247 0 -0.58205 -0.0868453 0 -0.568564 -0.0765511 0 -0.556762 -0.0664754 0 -0.546597 -0.0566089 0 -0.538049 -0.0469122 0 -0.531087 -0.0373628 0 -0.525693 -0.0279183 0 -0.521851 -0.0185735 0 -0.519552 -0.00926948 0 -0.518786 9.53674e-06 0 1266.12 -1.96969e-06 0 483.899 -430.058 0 289.951 -383.882 0 187.147 -330.939 0 123.097 -301.933 0 78.533 -269.555 0 45.9837 -245.272 0 21.712 -221.895 0 3.12984 -202.033 0 -11.0959 -183.778 0 -22.0999 -167.592 0 -30.551 -152.886 0 -37.0212 -139.65 0 -41.8987 -127.642 0 -45.5063 -116.769 0 -48.0846 -106.897 0 -49.831 -97.9305 0 -50.9008 -89.7774 0 -51.4215 -82.3593 0 -51.4962 -75.6044 0 -51.21 -69.4497 0 -50.6328 -63.8381 0 -49.8227 -58.7186 0 -48.8279 -54.0452 0 -47.6885 -49.7766 0 -46.4378 -45.8754 0 -45.1039 -42.3078 0 -43.71 -39.0435 0 -42.2756 -36.055 0 -40.8167 -33.3172 0 -39.3469 -30.8077 0 -37.8773 -28.506 0 -36.417 -26.3937 0 -34.9735 -24.4539 0 -33.553 -22.6714 0 -32.1604 -21.0325 0 -30.7997 -19.5246 0 -29.4738 -18.1363 0 -28.1851 -16.8574 0 -26.9353 -15.6784 0 -25.7256 -14.5907 0 -24.5568 -13.5868 0 -23.4292 -12.6594 0 -22.343 -11.8022 0 -21.2979 -11.0093 0 -20.2935 -10.2755 0 -19.3293 -9.59582 0 -18.4045 -8.9659 0 -17.5183 -8.38172 0 -16.6698 -7.83959 0 -15.8579 -7.33616 0 -15.0816 -6.86836 0 -14.3399 -6.43341 0 -13.6315 -6.02873 0 -12.9554 -5.65198 0 -12.3103 -5.30103 0 -11.6953 -4.97392 0 -11.109 -4.66883 0 -10.5504 -4.38414 0 -10.0184 -4.11832 0 -9.5119 -3.86998 0 -9.02982 -3.63786 0 -8.57113 -3.42077 0 -8.13482 -3.21763 0 -7.71992 -3.02747 0 -7.32547 -2.84935 0 -6.95056 -2.68244 0 -6.59431 -2.52596 0 -6.25585 -2.3792 0 -5.93437 -2.24148 0 -5.62908 -2.11219 0 -5.33921 -1.99078 0 -5.06404 -1.87671 0 -4.80287 -1.76949 0 -4.55502 -1.66869 0 -4.31987 -1.57386 0 -4.09679 -1.48464 0 -3.88519 -1.40066 0 -3.68453 -1.32158 0 -3.49425 -1.2471 0 -3.31387 -1.17692 0 -3.14288 -1.11076 0 -2.98083 -1.04839 0 -2.82727 -0.989567 0 -2.68179 -0.934065 0 -2.54398 -0.881682 0 -2.41346 -0.832231 0 -2.28988 -0.785525 0 -2.17288 -0.741404 0 -2.06215 -0.699709 0 -1.95737 -0.66029 0 -1.85825 -0.623011 0 -1.7645 -0.587744 0 -1.67588 -0.554366 0 -1.59211 -0.522764 0 -1.51297 -0.492828 0 -1.43823 -0.464459 0 -1.36768 -0.437563 0 -1.30111 -0.412048 0 -1.23834 -0.387831 0 -1.17918 -0.364834 0 -1.12347 -0.342978 0 -1.07105 -0.322194 0 -1.02176 -0.302413 0 -0.975463 -0.283572 0 -0.932025 -0.265615 0 -0.891322 -0.248475 0 -0.853232 -0.232107 0 -0.81765 -0.216454 0 -0.784469 -0.201469 0 -0.753593 -0.187102 0 -0.724934 -0.173309 0 -0.698407 -0.160051 0 -0.673937 -0.14728 0 -0.651451 -0.134961 0 -0.630886 -0.123057 0 -0.612178 -0.111522 0 -0.595273 -0.100335 0 -0.580125 -0.0894468 0 -0.566686 -0.0788409 0 -0.554922 -0.0684666 0 -0.544793 -0.0583051 0 -0.536273 -0.0483175 0 -0.529335 -0.0384785 0 -0.523959 -0.0287572 0 -0.520131 -0.0191224 0 -0.51784 -0.00954894 0 -0.517075 -1.01601e-06 0 992.504 -1.07102e-08 0 500.239 -374.749 0 294.598 -353.582 0 194.493 -320.124 0 128.132 -290.358 0 83.5111 -263.648 0 50.1498 -239.631 0 25.5362 -218.282 0 6.51641 -198.917 0 -8.02813 -181.552 0 -19.338 -165.781 0 -28.0497 -151.54 0 -34.7563 -138.599 0 -39.8438 -126.866 0 -43.6405 -116.195 0 -46.3887 -106.495 0 -48.2884 -97.6648 0 -49.4967 -89.6245 0 -50.1425 -82.297 0 -50.3305 -75.6163 0 -50.1468 -69.5212 0 -49.6626 -63.9578 0 -48.9369 -58.8767 0 -48.0186 -54.2337 0 -46.9487 -49.9888 0 -45.7612 -46.1056 0 -44.4847 -42.5515 0 -43.1431 -39.2967 0 -41.7562 -36.3143 0 -40.3406 -33.5801 0 -38.9101 -31.0718 0 -37.4764 -28.7695 0 -36.0488 -26.655 0 -34.6352 -24.7118 0 -33.2419 -22.9249 0 -31.8742 -21.2808 0 -30.5361 -19.767 0 -29.231 -18.3723 0 -27.9613 -17.0865 0 -26.7288 -15.9005 0 -25.535 -14.8056 0 -24.3808 -13.7943 0 -23.2665 -12.8595 0 -22.1925 -11.9949 0 -21.1586 -11.1946 0 -20.1645 -10.4535 0 -19.2097 -9.7667 0 -18.2936 -9.12976 0 -17.4154 -8.5387 0 -16.5742 -7.98987 0 -15.7691 -7.47991 0 -14.9991 -7.00579 0 -14.2631 -6.5647 0 -13.56 -6.15409 0 -12.8888 -5.77163 0 -12.2483 -5.41516 0 -11.6374 -5.08273 0 -11.055 -4.77254 0 -10.5 -4.48294 0 -9.97129 -4.21241 0 -9.46785 -3.95955 0 -8.98863 -3.7231 0 -8.53259 -3.50187 0 -8.09874 -3.29477 0 -7.68613 -3.10082 0 -7.29381 -2.91908 0 -6.92088 -2.74871 0 -6.56647 -2.58893 0 -6.22973 -2.43902 0 -5.90985 -2.29829 0 -5.60605 -2.16615 0 -5.31757 -2.042 0 -5.04371 -1.92533 0 -4.78375 -1.81564 0 -4.53704 -1.71248 0 -4.30295 -1.61541 0 -4.08086 -1.52405 0 -3.8702 -1.43804 0 -3.6704 -1.35703 0 -3.48095 -1.28071 0 -3.30133 -1.20878 0 -3.13106 -1.14097 0 -2.96968 -1.07701 0 -2.81675 -1.01669 0 -2.67186 -0.959756 0 -2.53461 -0.906017 0 -2.40461 -0.855274 0 -2.28152 -0.807344 0 -2.16498 -0.762057 0 -2.05468 -0.719254 0 -1.95031 -0.678784 0 -1.85157 -0.640504 0 -1.75818 -0.604285 0 -1.66989 -0.570002 0 -1.58644 -0.537539 0 -1.5076 -0.506786 0 -1.43314 -0.477638 0 -1.36285 -0.45 0 -1.29653 -0.42378 0 -1.23399 -0.39889 0 -1.17505 -0.375253 0 -1.11954 -0.352786 0 -1.06731 -0.33142 0 -1.0182 -0.311083 0 -0.972072 -0.291712 0 -0.928791 -0.273247 0 -0.888234 -0.255623 0 -0.850281 -0.238791 0 -0.814826 -0.222692 0 -0.781764 -0.207279 0 -0.750998 -0.192502 0 -0.722441 -0.178316 0 -0.696008 -0.164676 0 -0.671625 -0.151541 0 -0.649218 -0.138869 0 -0.628726 -0.126619 0 -0.610083 -0.114754 0 -0.593239 -0.103243 0 -0.578143 -0.0920423 0 -0.564752 -0.0811264 0 -0.553029 -0.0704542 0 -0.542936 -0.0599964 0 -0.534445 -0.0497208 0 -0.527532 -0.039596 0 -0.522175 -0.0295923 0 -0.51836 -0.0196798 0 -0.516076 -0.00982536 0 -0.515316 -9.64443e-07 0 819.238 -3.22238e-07 0 495.72 -322.741 0 299.146 -327.702 0 199.676 -306.533 0 132.983 -280.156 0 87.8837 -256.85 0 54.1465 -234.334 0 29.1228 -214.371 0 9.78219 -195.86 0 -5.07863 -179.206 0 -16.6558 -163.954 0 -25.617 -150.131 0 -32.5435 -137.519 0 -37.832 -126.049 0 -41.8089 -115.591 0 -44.7209 -106.064 0 -46.7686 -97.3738 0 -48.1111 -89.4478 0 -48.8786 -82.2135 0 -49.1769 -75.6086 0 -49.0935 -69.5752 0 -48.7004 -64.0615 0 -48.0573 -59.0203 0 -47.2143 -54.4091 0 -46.2128 -50.189 0 -45.0875 -46.325 0 -43.8677 -42.7852 0 -42.5776 -39.5408 0 -41.2377 -36.5655 0 -39.8649 -33.8355 0 -38.4735 -31.3291 0 -37.0753 -29.0268 0 -35.6802 -26.9107 0 -34.2962 -24.9646 0 -32.93 -23.1737 0 -31.587 -21.5247 0 -30.2715 -20.0054 0 -28.987 -18.6046 0 -27.7362 -17.3124 0 -26.5211 -16.1196 0 -25.3431 -15.0177 0 -24.2034 -13.9992 0 -23.1024 -13.0573 0 -22.0406 -12.1854 0 -21.0179 -11.378 0 -20.0341 -10.6298 0 -19.0888 -9.93593 0 -18.1814 -9.29209 0 -17.3112 -8.69428 0 -16.4774 -8.13885 0 -15.6791 -7.62248 0 -14.9154 -7.14212 0 -14.1852 -6.69499 0 -13.4874 -6.27853 0 -12.8212 -5.89041 0 -12.1852 -5.52849 0 -11.5785 -5.19081 0 -11 -4.87557 0 -10.4487 -4.5811 0 -9.92333 -4.30591 0 -9.42301 -4.04858 0 -8.94667 -3.80784 0 -8.49331 -3.5825 0 -8.06196 -3.37148 0 -7.65166 -3.17376 0 -7.2615 -2.98843 0 -6.89058 -2.81463 0 -6.53804 -2.65158 0 -6.20305 -2.49853 0 -5.8848 -2.35483 0 -5.58251 -2.21984 0 -5.29546 -2.09298 0 -5.02291 -1.97373 0 -4.76419 -1.86157 0 -4.51864 -1.75607 0 -4.28563 -1.65677 0 -4.06456 -1.56329 0 -3.85484 -1.47526 0 -3.65594 -1.39232 0 -3.46732 -1.31417 0 -3.28848 -1.2405 0 -3.11894 -1.17104 0 -2.95825 -1.10551 0 -2.80597 -1.04369 0 -2.66168 -0.98534 0 -2.52499 -0.930252 0 -2.39553 -0.878225 0 -2.27294 -0.829075 0 -2.15688 -0.782629 0 -2.04702 -0.738723 0 -1.94306 -0.697203 0 -1.84471 -0.657928 0 -1.75169 -0.620762 0 -1.66375 -0.585578 0 -1.58062 -0.552258 0 -1.50208 -0.52069 0 -1.42791 -0.490766 0 -1.35789 -0.46239 0 -1.29182 -0.435467 0 -1.22952 -0.409908 0 -1.1708 -0.385632 0 -1.11551 -0.362558 0 -1.06347 -0.340611 0 -1.01454 -0.319722 0 -0.968587 -0.299822 0 -0.925467 -0.280851 0 -0.88506 -0.262745 0 -0.847248 -0.245448 0 -0.811923 -0.228907 0 -0.778983 -0.213068 0 -0.74833 -0.197883 0 -0.719877 -0.183304 0 -0.693542 -0.169286 0 -0.669247 -0.155785 0 -0.646922 -0.14276 0 -0.626504 -0.130169 0 -0.60793 -0.117974 0 -0.591146 -0.10614 0 -0.576105 -0.0946263 0 -0.562763 -0.0834047 0 -0.551082 -0.0724334 0 -0.541026 -0.0616824 0 -0.532566 -0.0511188 0 -0.525677 -0.0407097 0 -0.52034 -0.030425 0 -0.516539 -0.0202334 0 -0.514263 -0.0101019 0 -0.513506 -5.6054e-07 0 702.857 6.72182e-07 0 481.008 -277.439 0 301.821 -303.916 0 203.459 -292.094 0 137.31 -270.377 0 91.8151 -249.748 0 57.8919 -229.095 0 32.5098 -210.339 0 12.9071 -192.778 0 -2.23934 -176.795 0 -14.0586 -162.089 0 -23.2516 -148.678 0 -30.3844 -136.403 0 -35.8633 -125.198 0 -40.0124 -114.957 0 -43.0816 -105.604 0 -45.2719 -97.0577 0 -46.7444 -89.2481 0 -47.6301 -82.1093 0 -48.036 -75.5821 0 -48.0504 -69.612 0 -47.7463 -64.1496 0 -47.1844 -59.1498 0 -46.4152 -54.5715 0 -45.4809 -50.3774 0 -44.417 -46.5337 0 -43.253 -43.0092 0 -42.0138 -39.776 0 -40.7202 -36.8085 0 -39.3898 -34.0835 0 -38.037 -31.5797 0 -36.6741 -29.278 0 -35.3112 -27.1608 0 -33.9566 -25.2122 0 -32.6173 -23.4178 0 -31.2989 -21.7644 0 -30.0059 -20.2399 0 -28.742 -18.8334 0 -27.51 -17.535 0 -26.3121 -16.3356 0 -25.15 -15.227 0 -24.0247 -14.2017 0 -22.9371 -13.2527 0 -21.8875 -12.3739 0 -20.876 -11.5594 0 -19.9026 -10.8042 0 -18.9667 -10.1035 0 -18.0681 -9.45291 0 -17.2059 -8.84846 0 -16.3795 -8.28655 0 -15.5881 -7.76386 0 -14.8306 -7.27736 0 -14.1062 -6.82426 0 -13.4139 -6.40203 0 -12.7525 -6.00833 0 -12.1212 -5.64102 0 -11.5188 -5.29815 0 -10.9442 -4.9779 0 -10.3965 -4.67864 0 -9.87455 -4.39882 0 -9.37737 -4.13706 0 -8.90396 -3.89207 0 -8.45331 -3.66266 0 -8.02448 -3.44774 0 -7.61654 -3.2463 0 -7.22856 -3.0574 0 -6.85968 -2.8802 0 -6.50904 -2.71389 0 -6.17581 -2.55774 0 -5.85921 -2.41107 0 -5.55847 -2.27325 0 -5.27286 -2.14371 0 -5.00166 -2.02188 0 -4.7442 -1.90729 0 -4.49983 -1.79945 0 -4.26792 -1.69794 0 -4.04788 -1.60235 0 -3.83913 -1.5123 0 -3.64113 -1.42746 0 -3.45336 -1.34749 0 -3.27532 -1.27209 0 -3.10653 -1.20098 0 -2.94654 -1.13389 0 -2.79492 -1.07058 0 -2.65125 -1.01082 0 -2.51514 -0.954385 0 -2.38623 -0.901081 0 -2.26415 -0.850716 0 -2.14857 -0.803115 0 -2.03916 -0.758112 0 -1.93563 -0.715549 0 -1.83768 -0.675282 0 -1.74504 -0.637172 0 -1.65744 -0.601092 0 -1.57465 -0.566918 0 -1.49642 -0.534538 0 -1.42254 -0.503843 0 -1.3528 -0.474732 0 -1.28699 -0.447108 0 -1.22493 -0.420883 0 -1.16644 -0.395972 0 -1.11136 -0.372291 0 -1.05953 -0.349767 0 -1.01079 -0.328327 0 -0.965008 -0.3079 0 -0.922054 -0.288426 0 -0.881801 -0.269838 0 -0.844132 -0.252082 0 -0.808942 -0.235098 0 -0.776127 -0.218836 0 -0.745589 -0.203243 0 -0.717244 -0.188274 0 -0.691008 -0.173878 0 -0.666804 -0.160014 0 -0.644563 -0.146636 0 -0.624221 -0.133705 0 -0.605717 -0.121181 0 -0.588996 -0.109025 0 -0.574012 -0.0972009 0 -0.560719 -0.0856738 0 -0.549081 -0.0744046 0 -0.539063 -0.0633609 0 -0.530634 -0.0525112 0 -0.523771 -0.0418176 0 -0.518454 -0.0312542 0 -0.514667 -0.0207836 0 -0.512399 -0.0103768 0 -0.511645 9.10601e-07 0 619.973 -1.26427e-07 0 461.718 -239.279 0 302.208 -281.547 0 206.146 -277.614 0 141.007 -260.712 0 95.3615 -242.569 0 61.3618 -223.827 0 35.7078 -206.252 0 15.8855 -189.651 0 0.491302 -174.339 0 -11.548 -160.183 0 -20.9536 -147.187 0 -28.2798 -135.251 0 -33.9384 -124.314 0 -38.2515 -114.294 0 -41.4712 -105.118 0 -43.799 -96.7172 0 -45.3971 -89.0263 0 -46.3974 -81.9849 0 -46.9079 -75.5372 0 -47.0178 -69.632 0 -46.8008 -64.2224 0 -46.3183 -59.2653 0 -45.6215 -54.7212 0 -44.7534 -50.5543 0 -43.7497 -46.7318 0 -42.6407 -43.2236 0 -41.4517 -40.0025 0 -40.204 -37.0436 0 -38.9154 -34.3242 0 -37.6009 -31.8236 0 -36.2729 -29.523 0 -34.9419 -27.4053 0 -33.6165 -25.4548 0 -32.3039 -23.6573 0 -31.0099 -21.9998 0 -29.7393 -20.4705 0 -28.4958 -19.0586 0 -27.2826 -17.7543 0 -26.1019 -16.5487 0 -24.9556 -15.4336 0 -23.8448 -14.4016 0 -22.7705 -13.4459 0 -21.7331 -12.5602 0 -20.7329 -11.7389 0 -19.7697 -10.9769 0 -18.8434 -10.2694 0 -17.9535 -9.6122 0 -17.0994 -9.00124 0 -16.2804 -8.43295 0 -15.4958 -7.90405 0 -14.7447 -7.41149 0 -14.0262 -6.95251 0 -13.3392 -6.52459 0 -12.6829 -6.12537 0 -12.0562 -5.75274 0 -11.4581 -5.40474 0 -10.8875 -5.07955 0 -10.3435 -4.77552 0 -9.82495 -4.49114 0 -9.33095 -4.22499 0 -8.86049 -3.97579 0 -8.41259 -3.74235 0 -7.98632 -3.52356 0 -7.58075 -3.31842 0 -7.19499 -3.12599 0 -6.82817 -2.9454 0 -6.47946 -2.77587 0 -6.14803 -2.61663 0 -5.83311 -2.46702 0 -5.53394 -2.3264 0 -5.24979 -2.19418 0 -4.97996 -2.0698 0 -4.72378 -1.95278 0 -4.48061 -1.84262 0 -4.24982 -1.73891 0 -4.03083 -1.64122 0 -3.82307 -1.54918 0 -3.62599 -1.46243 0 -3.43909 -1.38065 0 -3.26186 -1.30353 0 -3.09383 -1.23079 0 -2.93455 -1.16214 0 -2.7836 -1.09735 0 -2.64057 -1.03618 0 -2.50505 -0.978413 0 -2.3767 -0.923838 0 -2.25514 -0.872264 0 -2.14005 -0.823515 0 -2.03111 -0.77742 0 -1.92801 -0.733819 0 -1.83047 -0.692563 0 -1.73821 -0.653516 0 -1.65098 -0.616541 0 -1.56853 -0.58152 0 -1.49062 -0.54833 0 -1.41704 -0.516867 0 -1.34758 -0.487024 0 -1.28204 -0.458704 0 -1.22023 -0.431815 0 -1.16197 -0.406271 0 -1.10711 -0.381987 0 -1.05548 -0.358889 0 -1.00694 -0.336898 0 -0.961336 -0.315948 0 -0.918551 -0.295972 0 -0.878456 -0.276905 0 -0.840935 -0.258689 0 -0.805882 -0.241265 0 -0.773195 -0.224581 0 -0.742776 -0.208584 0 -0.714541 -0.193223 0 -0.688406 -0.178452 0 -0.664297 -0.164225 0 -0.642142 -0.150498 0 -0.621878 -0.137228 0 -0.603445 -0.124375 0 -0.586788 -0.1119 0 -0.571862 -0.0997664 0 -0.558621 -0.0879338 0 -0.547027 -0.076369 0 -0.537047 -0.065034 0 -0.528651 -0.0538969 0 -0.521814 -0.0429232 0 -0.516518 -0.0320783 0 -0.512745 -0.0213327 0 -0.510486 -0.0106499 0 -0.509734 -1.26893e-07 0 557.727 1.41561e-07 0 440.791 -207.593 0 300.465 -260.501 0 207.871 -263.442 0 144.065 -251.099 0 98.5396 -235.4 0 64.5539 -218.519 0 38.7187 -202.134 0 18.7168 -186.478 0 3.11293 -171.847 0 -9.12454 -158.237 0 -18.7238 -145.661 0 -26.2303 -134.067 0 -32.0576 -123.401 0 -36.5266 -113.602 0 -39.8901 -104.607 0 -42.3501 -96.3532 0 -44.0694 -88.7831 0 -45.1808 -81.8408 0 -45.7931 -75.4744 0 -45.996 -69.6357 0 -45.864 -64.2803 0 -45.4593 -59.3671 0 -44.8335 -54.8585 0 -44.0303 -50.7199 0 -43.0859 -46.9195 0 -42.0311 -43.4285 0 -40.8916 -40.2203 0 -39.6892 -37.2707 0 -38.4419 -34.5576 0 -37.1652 -32.0609 0 -35.8718 -29.762 0 -34.5724 -27.6443 0 -33.276 -25.6923 0 -31.9899 -23.8921 0 -30.7202 -22.2309 0 -29.4718 -20.6972 0 -28.2487 -19.2802 0 -27.0542 -17.9704 0 -25.8906 -16.7588 0 -24.76 -15.6375 0 -23.6637 -14.599 0 -22.6027 -13.6367 0 -21.5775 -12.7443 0 -20.5885 -11.9164 0 -19.6357 -11.1478 0 -18.7189 -10.4337 0 -17.8377 -9.76996 0 -16.9917 -9.15261 0 -16.1802 -8.57806 0 -15.4025 -8.04303 0 -14.6578 -7.54451 0 -13.9451 -7.07974 0 -13.2636 -6.64619 0 -12.6123 -6.24154 0 -11.9903 -5.86366 0 -11.3965 -5.51057 0 -10.8299 -5.1805 0 -10.2896 -4.87176 0 -9.77454 -4.58285 0 -9.28375 -4.31236 0 -8.81627 -4.05899 0 -8.37116 -3.82155 0 -7.94747 -3.59893 0 -7.54431 -3.39012 0 -7.16079 -3.19418 0 -6.79607 -3.01024 0 -6.44931 -2.8375 0 -6.1197 -2.67521 0 -5.80648 -2.52268 0 -5.5089 -2.37927 0 -5.22624 -2.24439 0 -4.9578 -2.11748 0 -4.70292 -1.99804 0 -4.46097 -1.88559 0 -4.23133 -1.77968 0 -4.01341 -1.6799 0 -3.80665 -1.58588 0 -3.61051 -1.49724 0 -3.42449 -1.41367 0 -3.24809 -1.33484 0 -3.08084 -1.26046 0 -2.92229 -1.19027 0 -2.77203 -1.12401 0 -2.62964 -1.06144 0 -2.49473 -1.00234 0 -2.36694 -0.946498 0 -2.24592 -0.893721 0 -2.13133 -0.843829 0 -2.02286 -0.796646 0 -1.92021 -0.752012 0 -1.82309 -0.709775 0 -1.73122 -0.669791 0 -1.64436 -0.631929 0 -1.56225 -0.59606 0 -1.48468 -0.562068 0 -1.4114 -0.529838 0 -1.34223 -0.499266 0 -1.27696 -0.470252 0 -1.2154 -0.442702 0 -1.15739 -0.416528 0 -1.10275 -0.391644 0 -1.05133 -0.367973 0 -1.00299 -0.345435 0 -0.957571 -0.323964 0 -0.914959 -0.303487 0 -0.875026 -0.283944 0 -0.837656 -0.26527 0 -0.802744 -0.247409 0 -0.770188 -0.230304 0 -0.739891 -0.213903 0 -0.711768 -0.198154 0 -0.685738 -0.183009 0 -0.661724 -0.168421 0 -0.639658 -0.154345 0 -0.619474 -0.140738 0 -0.601114 -0.127557 0 -0.584524 -0.114765 0 -0.569656 -0.102321 0 -0.556468 -0.0901861 0 -0.54492 -0.0783253 0 -0.534979 -0.0667009 0 -0.526616 -0.0552785 0 -0.519806 -0.0440229 0 -0.514531 -0.0329019 0 -0.510773 -0.0218797 0 -0.508523 -0.010924 0 -0.507774 -3.35742e-07 0 508.828 4.79631e-08 0 419.754 -181.384 0 296.955 -240.844 0 208.713 -249.732 0 146.511 -241.564 0 101.355 -228.279 0 67.4735 -213.184 0 41.5423 -197.996 0 21.4021 -183.268 0 5.62496 -169.322 0 -6.78822 -156.256 0 -16.5625 -144.104 0 -24.2362 -132.851 0 -30.2215 -122.46 0 -34.8381 -112.884 0 -38.3388 -104.071 0 -40.9256 -95.9666 0 -42.7618 -88.5192 0 -43.9807 -81.6777 0 -44.6917 -75.3941 0 -44.9852 -69.6234 0 -44.9362 -64.3236 0 -44.6075 -59.4556 0 -44.0514 -54.9836 0 -43.3118 -50.8742 0 -42.4257 -47.097 0 -41.4243 -43.624 0 -40.3336 -40.4295 0 -39.1758 -37.49 0 -37.9694 -34.7839 0 -36.73 -32.2916 0 -35.4709 -29.995 0 -34.2029 -27.8778 0 -32.9351 -25.9248 0 -31.6753 -24.1223 0 -30.4297 -22.4579 0 -29.2034 -20.92 0 -28.0006 -19.4983 0 -26.8247 -18.1832 0 -25.6782 -16.966 0 -24.5633 -15.8386 0 -23.4814 -14.7939 0 -22.4336 -13.8252 0 -21.4207 -12.9264 0 -20.4429 -12.092 0 -19.5004 -11.3168 0 -18.5931 -10.5963 0 -17.7208 -9.92619 0 -16.8829 -9.30256 0 -16.0789 -8.72185 0 -15.3081 -8.1808 0 -14.5697 -7.67642 0 -13.863 -7.20594 0 -13.187 -6.76685 0 -12.5408 -6.35683 0 -11.9234 -5.97375 0 -11.334 -5.61565 0 -10.7715 -5.28074 0 -10.2349 -4.96735 0 -9.72332 -4.67396 0 -9.23578 -4.39916 0 -8.77132 -4.14166 0 -8.32901 -3.90025 0 -7.90794 -3.67384 0 -7.50722 -3.4614 0 -7.12597 -3.26198 0 -6.76337 -3.07471 0 -6.41859 -2.89879 0 -6.09083 -2.73346 0 -5.77934 -2.57803 0 -5.48337 -2.43186 0 -5.20222 -2.29433 0 -4.9352 -2.16491 0 -4.68164 -2.04307 0 -4.44093 -1.92833 0 -4.21245 -1.82025 0 -3.99562 -1.7184 0 -3.78988 -1.6224 0 -3.5947 -1.53188 0 -3.40958 -1.44652 0 -3.23402 -1.36599 0 -3.06756 -1.29 0 -2.90976 -1.21827 0 -2.76019 -1.15054 0 -2.61846 -1.08658 0 -2.48417 -1.02615 0 -2.35696 -0.969056 0 -2.23648 -0.915084 0 -2.12241 -0.864052 0 -2.01442 -0.815787 0 -1.91222 -0.770125 0 -1.81553 -0.72691 0 -1.72407 -0.685996 0 -1.63758 -0.647249 0 -1.55583 -0.610539 0 -1.47859 -0.575746 0 -1.40563 -0.542754 0 -1.33675 -0.511457 0 -1.27176 -0.481752 0 -1.21046 -0.453544 0 -1.1527 -0.426742 0 -1.09829 -0.401261 0 -1.04708 -0.377018 0 -0.998939 -0.353937 0 -0.953714 -0.331944 0 -0.911278 -0.310972 0 -0.871511 -0.290953 0 -0.834296 -0.271824 0 -0.799528 -0.253527 0 -0.767106 -0.236003 0 -0.736934 -0.2192 0 -0.708927 -0.203063 0 -0.683003 -0.187547 0 -0.659088 -0.172599 0 -0.637111 -0.158176 0 -0.61701 -0.144234 0 -0.598725 -0.130727 0 -0.582202 -0.117618 0 -0.567395 -0.104865 0 -0.55426 -0.092429 0 -0.54276 -0.0802733 0 -0.532859 -0.068361 0 -0.52453 -0.0566542 0 -0.517748 -0.0451196 0 -0.512494 -0.0337215 0 -0.508751 -0.0224237 0 -0.50651 -0.0111954 0 -0.505765 -1.88127e-07 0 469.001 6.61239e-08 0 399.374 -159.664 0 292.073 -222.638 0 208.747 -236.563 0 148.384 -232.159 0 103.814 -221.226 0 70.1284 -207.842 0 44.179 -193.848 0 23.9431 -180.03 0 8.02716 -166.77 0 -4.53893 -154.244 0 -14.4702 -142.517 0 -22.2977 -131.606 0 -28.4305 -121.491 0 -33.1864 -112.14 0 -36.8176 -103.511 0 -39.5258 -95.5583 0 -41.4745 -88.2352 0 -42.7974 -81.4961 0 -43.6041 -75.2969 0 -43.9857 -69.5956 0 -44.0177 -64.3526 0 -43.7632 -59.531 0 -43.2753 -55.0966 0 -42.5982 -51.0176 0 -41.7694 -47.2645 0 -40.8204 -43.8104 0 -39.7777 -40.6304 0 -38.664 -37.7016 0 -37.4979 -35.0032 0 -36.2956 -32.5159 0 -35.0703 -30.2221 0 -33.8333 -28.1058 0 -32.594 -26.1523 0 -31.3603 -24.348 0 -30.1386 -22.6807 0 -28.9343 -21.1391 0 -27.7517 -19.7129 0 -26.5942 -18.3928 0 -25.4648 -17.1701 0 -24.3655 -16.037 0 -23.298 -14.9863 0 -22.2635 -14.0114 0 -21.2627 -13.1063 0 -20.2961 -12.2656 0 -19.364 -11.4841 0 -18.4663 -10.7572 0 -17.6027 -10.0809 0 -16.773 -9.45109 0 -15.9765 -8.86434 0 -15.2126 -8.31737 0 -14.4807 -7.8072 0 -13.7799 -7.3311 0 -13.1094 -6.88654 0 -12.4682 -6.47122 0 -11.8556 -6.08301 0 -11.2706 -5.71996 0 -10.7121 -5.38027 0 -10.1794 -5.06227 0 -9.67131 -4.76445 0 -9.18705 -4.48539 0 -8.72563 -4.2238 0 -8.28616 -3.97847 0 -7.86774 -3.74829 0 -7.46948 -3.53224 0 -7.09054 -3.32938 0 -6.73008 -3.13881 0 -6.38731 -2.95973 0 -6.06142 -2.79139 0 -5.75168 -2.63308 0 -5.45736 -2.48416 0 -5.17774 -2.34401 0 -4.91215 -2.21209 0 -4.65994 -2.08787 0 -4.42048 -1.97086 0 -4.19318 -1.86061 0 -3.97746 -1.7567 0 -3.77276 -1.65874 0 -3.57856 -1.56636 0 -3.39435 -1.47921 0 -3.21965 -1.39699 0 -3.054 -1.31939 0 -2.89695 -1.24613 0 -2.7481 -1.17695 0 -2.60703 -1.1116 0 -2.47337 -1.04986 0 -2.34676 -0.99151 0 -2.22684 -0.936348 0 -2.11329 -0.884184 0 -2.00579 -0.834843 0 -1.90406 -0.788157 0 -1.8078 -0.743968 0 -1.71675 -0.702129 0 -1.63065 -0.662501 0 -1.54926 -0.624954 0 -1.47236 -0.589364 0 -1.39972 -0.555614 0 -1.33115 -0.523595 0 -1.26643 -0.493203 0 -1.20541 -0.46434 0 -1.14789 -0.436914 0 -1.09372 -0.410838 0 -1.04273 -0.386026 0 -0.994796 -0.362403 0 -0.949764 -0.339893 0 -0.90751 -0.318425 0 -0.867912 -0.297933 0 -0.830855 -0.278351 0 -0.796234 -0.259619 0 -0.76395 -0.241679 0 -0.733905 -0.224475 0 -0.706016 -0.207953 0 -0.680202 -0.192066 0 -0.656387 -0.176761 0 -0.634503 -0.161992 0 -0.614486 -0.147714 0 -0.596277 -0.133884 0 -0.579824 -0.120458 0 -0.565079 -0.107398 0 -0.551999 -0.094663 0 -0.540546 -0.0822141 0 -0.530687 -0.0700141 0 -0.522393 -0.0580244 0 -0.515639 -0.0462112 0 -0.510406 -0.0345369 0 -0.50668 -0.0229662 0 -0.504448 -0.0114664 0 -0.503706 1.49477e-06 0 435.634 4.3679e-07 0 380.011 -141.574 0 286.18 -205.895 0 208.053 -223.978 0 149.728 -222.934 0 105.926 -214.258 0 72.5271 -202.511 0 46.6302 -189.695 0 26.3416 -176.77 0 10.3197 -164.194 0 -2.37641 -152.204 0 -12.447 -140.904 0 -20.4149 -130.335 0 -26.6848 -120.498 0 -31.5718 -111.373 0 -35.3268 -102.929 0 -38.151 -95.1291 0 -40.2079 -87.9319 0 -41.631 -81.2968 0 -42.5305 -75.1833 0 -42.9977 -69.5526 0 -43.1086 -64.3676 0 -42.9267 -59.5936 0 -42.5054 -55.1979 0 -41.8895 -51.1501 0 -41.1169 -47.4221 0 -40.2195 -43.9877 0 -39.2243 -40.8229 0 -38.1539 -37.9056 0 -37.0277 -35.2155 0 -35.8618 -32.7338 0 -34.67 -30.4434 0 -33.4638 -28.3285 0 -32.2527 -26.3748 0 -31.0449 -24.5691 0 -29.8469 -22.8993 0 -28.6644 -21.3543 0 -27.5019 -19.924 0 -26.3629 -18.5992 0 -25.2504 -17.3713 0 -24.1667 -16.2327 0 -23.1135 -15.1762 0 -22.0922 -14.1953 0 -21.1036 -13.2841 0 -20.1482 -12.4372 0 -19.2265 -11.6495 0 -18.3383 -10.9165 0 -17.4835 -10.234 0 -16.6619 -9.5982 0 -15.873 -9.00551 0 -15.1161 -8.45272 0 -14.3906 -7.93686 0 -13.6958 -7.45522 0 -13.0308 -7.00527 0 -12.3948 -6.58472 0 -11.7869 -6.19145 0 -11.2063 -5.8235 0 -10.652 -5.47908 0 -10.123 -5.15653 0 -9.61852 -4.85432 0 -9.13756 -4.57105 0 -8.67922 -4.3054 0 -8.24262 -4.05618 0 -7.82687 -3.82227 0 -7.43111 -3.60265 0 -7.05449 -3.39636 0 -6.69621 -3.20253 0 -6.35546 -3.02032 0 -6.03148 -2.84898 0 -5.72352 -2.68782 0 -5.43085 -2.53617 0 -5.15279 -2.39342 0 -4.88866 -2.25902 0 -4.63781 -2.13242 0 -4.39964 -2.01316 0 -4.17353 -1.90076 0 -3.95894 -1.7948 0 -3.75529 -1.69489 0 -3.56208 -1.60066 0 -3.3788 -1.51175 0 -3.20498 -1.42784 0 -3.04015 -1.34864 0 -2.88388 -1.27386 0 -2.73575 -1.20323 0 -2.59536 -1.13651 0 -2.46235 -1.07345 0 -2.33633 -1.01386 0 -2.21698 -0.957512 0 -2.10397 -0.904223 0 -1.99697 -0.853812 0 -1.89571 -0.806106 0 -1.7999 -0.76095 0 -1.70926 -0.718189 0 -1.62356 -0.677686 0 -1.54254 -0.639305 0 -1.46599 -0.602921 0 -1.39368 -0.568417 0 -1.32541 -0.53568 0 -1.26099 -0.504602 0 -1.20024 -0.475088 0 -1.14297 -0.44704 0 -1.08904 -0.420371 0 -1.03828 -0.394995 0 -0.990556 -0.370833 0 -0.945722 -0.347807 0 -0.903653 -0.325847 0 -0.864229 -0.304883 0 -0.827333 -0.284851 0 -0.792864 -0.265686 0 -0.760719 -0.247331 0 -0.730805 -0.229728 0 -0.703037 -0.212823 0 -0.677335 -0.196566 0 -0.653623 -0.180905 0 -0.631833 -0.165791 0 -0.611902 -0.15118 0 -0.593772 -0.137025 0 -0.57739 -0.123287 0 -0.562708 -0.109921 0 -0.549684 -0.0968874 0 -0.53828 -0.0841469 0 -0.528463 -0.0716596 0 -0.520204 -0.0593889 0 -0.51348 -0.047298 0 -0.50827 -0.0353489 0 -0.504559 -0.0235065 0 -0.502336 -0.011736 0 -0.501597 -3.91155e-08 0 407.066 -2.8871e-08 0 361.805 -126.405 0 279.582 -190.584 0 206.714 -212.001 0 150.585 -213.932 0 107.702 -207.393 0 74.6782 -197.21 0 48.8985 -185.547 0 28.5996 -173.498 0 12.5032 -161.599 0 -0.3003 -150.142 0 -10.4929 -139.266 0 -18.5881 -129.04 0 -24.9846 -119.48 0 -29.9944 -110.583 0 -33.8666 -102.326 0 -36.8015 -94.68 0 -38.9621 -87.6101 0 -40.4819 -81.0801 0 -41.4712 -75.0537 0 -42.0214 -69.4948 0 -42.2091 -64.3691 0 -42.098 -59.6438 0 -41.7419 -55.2878 0 -41.1861 -51.2722 0 -40.4686 -47.57 0 -39.6219 -44.1561 0 -38.6732 -41.0073 0 -37.6457 -38.1021 0 -36.5587 -35.4209 0 -35.4289 -32.9453 0 -34.2702 -30.6588 0 -33.0944 -28.5459 0 -31.9113 -26.5925 0 -30.7291 -24.7858 0 -29.5548 -23.1138 0 -28.3939 -21.5657 0 -27.2513 -20.1316 0 -26.1306 -18.8023 0 -25.035 -17.5695 0 -23.9668 -16.4256 0 -22.928 -15.3635 0 -21.9198 -14.3769 0 -20.9434 -13.4598 0 -19.9992 -12.6069 0 -19.0878 -11.8131 0 -18.2092 -11.0741 0 -17.3633 -10.3856 0 -16.5498 -9.74389 0 -15.7684 -9.14536 0 -15.0185 -8.58685 0 -14.2995 -8.06539 0 -13.6106 -7.57829 0 -12.9512 -7.12302 0 -12.3204 -6.69732 0 -11.7173 -6.29904 0 -11.1412 -5.92626 0 -10.591 -5.57717 0 -10.0659 -5.25011 0 -9.56495 -4.94357 0 -9.08732 -4.65612 0 -8.6321 -4.38646 0 -8.19839 -4.13339 0 -7.78534 -3.89579 0 -7.3921 -3.67262 0 -7.01784 -3.46294 0 -6.66176 -3.26586 0 -6.32307 -3.08055 0 -6.00101 -2.90624 0 -5.69485 -2.74224 0 -5.40387 -2.58788 0 -5.12738 -2.44255 0 -4.86473 -2.30568 0 -4.61527 -2.17674 0 -4.37839 -2.05523 0 -4.15351 -1.9407 0 -3.94005 -1.83271 0 -3.73748 -1.73086 0 -3.54528 -1.63478 0 -3.36295 -1.54411 0 -3.19001 -1.45854 0 -3.02602 -1.37775 0 -2.87053 -1.30145 0 -2.72314 -1.22938 0 -2.58345 -1.16129 0 -2.45109 -1.09693 0 -2.32569 -1.0361 0 -2.20692 -0.978575 0 -2.09445 -0.924167 0 -1.98797 -0.87269 0 -1.88718 -0.823972 0 -1.79182 -0.777851 0 -1.70162 -0.734176 0 -1.61631 -0.6928 0 -1.53568 -0.65359 0 -1.45948 -0.616417 0 -1.3875 -0.581161 0 -1.31955 -0.547709 0 -1.25542 -0.51595 0 -1.19495 -0.485787 0 -1.13795 -0.457122 0 -1.08426 -0.429862 0 -1.03373 -0.403924 0 -0.98622 -0.379224 0 -0.941589 -0.355686 0 -0.899709 -0.333236 0 -0.860462 -0.311802 0 -0.823732 -0.29132 0 -0.789416 -0.271726 0 -0.757415 -0.252957 0 -0.727635 -0.234958 0 -0.69999 -0.217671 0 -0.674402 -0.201046 0 -0.650795 -0.18503 0 -0.629101 -0.169574 0 -0.609259 -0.154631 0 -0.591208 -0.140156 0 -0.574899 -0.126103 0 -0.560282 -0.112433 0 -0.547315 -0.0991026 0 -0.535962 -0.0860717 0 -0.526188 -0.0732982 0 -0.517966 -0.0607483 0 -0.51127 -0.0483799 0 -0.506083 -0.0361588 0 -0.502389 -0.0240449 0 -0.500176 -0.0120056 0 -0.49944 -2.72878e-07 0 382.192 -1.45286e-07 0 344.781 -113.59 0 272.52 -176.634 0 204.819 -200.645 0 151.001 -205.186 0 109.158 -200.644 0 76.5908 -191.952 0 50.9877 -181.411 0 30.7195 -170.219 0 14.5785 -158.989 0 1.68992 -148.06 0 -8.60783 -137.607 0 -16.8173 -127.722 0 -23.33 -118.441 0 -28.4545 -109.772 0 -32.4374 -101.703 0 -35.4776 -94.2119 0 -37.7375 -87.2704 0 -39.3503 -80.8469 0 -40.4263 -74.9086 0 -41.0572 -69.4228 0 -41.3194 -64.3574 0 -41.2774 -59.6817 0 -40.985 -55.3664 0 -40.4879 -51.3839 0 -39.8246 -47.7083 0 -39.0277 -44.3157 0 -38.1248 -41.1836 0 -37.1394 -38.2912 0 -36.0912 -35.6195 0 -34.997 -33.1507 0 -33.871 -30.8685 0 -32.7253 -28.758 0 -31.5698 -26.8054 0 -30.4131 -24.998 0 -29.2621 -23.3242 0 -28.1228 -21.7734 0 -27 -20.3357 0 -25.8975 -19.0023 0 -24.8187 -17.7648 0 -23.766 -16.6159 0 -22.7414 -15.5484 0 -21.7464 -14.5562 0 -20.7821 -13.6333 0 -19.8491 -12.7746 0 -18.948 -11.975 0 -18.079 -11.2301 0 -17.2419 -10.5357 0 -16.4366 -9.88815 0 -15.6628 -9.28389 0 -14.9199 -8.71975 0 -14.2074 -8.19279 0 -13.5246 -7.7003 0 -12.8707 -7.23981 0 -12.2451 -6.80901 0 -11.6469 -6.4058 0 -11.0