<?xml version="1.0"?> 
<VTKFile type="StructuredGrid" version="0.1"> 
<StructuredGrid WholeExtent="0 127 0 127 0 0"> 
<Piece Extent="0 127 0 127 0 0"> 
<PointData>
<DataArray type="Float32" Name="E" format="ascii" NumberOfComponents="3"> 
-1.70638e+06 0 0 -1.70667e+06 10641.7 0 -1.70757e+06 21315 0 -1.70906e+06 32051.7 0 -1.71114e+06 42883.2 0 -1.7138e+06 53841.3 0 -1.71704e+06 64957.4 0 -1.72085e+06 76263 0 -1.72521e+06 87789.3 0 -1.73012e+06 99567 0 -1.73555e+06 111626 0 -1.74149e+06 123997 0 -1.74793e+06 136708 0 -1.75482e+06 149787 0 -1.76216e+06 163259 0 -1.76992e+06 177149 0 -1.77806e+06 191480 0 -1.78656e+06 206272 0 -1.79538e+06 221541 0 -1.80449e+06 237304 0 -1.81386e+06 253571 0 -1.82344e+06 270352 0 -1.83321e+06 287652 0 -1.84312e+06 305474 0 -1.85314e+06 323816 0 -1.86324e+06 342674 0 -1.87338e+06 362043 0 -1.88352e+06 381911 0 -1.89365e+06 402269 0 -1.90372e+06 423100 0 -1.9137e+06 444389 0 -1.92359e+06 466119 0 -1.93335e+06 488271 0 -1.94295e+06 510823 0 -1.95239e+06 533757 0 -1.96165e+06 557050 0 -1.97071e+06 580682 0 -1.97956e+06 604630 0 -1.98818e+06 628874 0 -1.99657e+06 653393 0 -2.00473e+06 678165 0 -2.01264e+06 703171 0 -2.0203e+06 728391 0 -2.0277e+06 753806 0 -2.03484e+06 779397 0 -2.04173e+06 805147 0 -2.04834e+06 831037 0 -2.0547e+06 857052 0 -2.06079e+06 883174 0 -2.06661e+06 909389 0 -2.07216e+06 935679 0 -2.07744e+06 962031 0 -2.08246e+06 988429 0 -2.08721e+06 1.01486e+06 0 -2.09168e+06 1.0413e+06 0 -2.09589e+06 1.06775e+06 0 -2.09983e+06 1.09419e+06 0 -2.10349e+06 1.12059e+06 0 -2.10689e+06 1.14696e+06 0 -2.11001e+06 1.17327e+06 0 -2.11286e+06 1.19951e+06 0 -2.11544e+06 1.22565e+06 0 -2.11774e+06 1.2517e+06 0 -2.11977e+06 1.27762e+06 0 -2.12151e+06 1.3034e+06 0 -2.12298e+06 1.32902e+06 0 -2.12418e+06 1.35446e+06 0 -2.12509e+06 1.37971e+06 0 -2.12571e+06 1.40474e+06 0 -2.12606e+06 1.42952e+06 0 -2.12612e+06 1.45404e+06 0 -2.1259e+06 1.47826e+06 0 -2.12539e+06 1.50217e+06 0 -2.1246e+06 1.52573e+06 0 -2.12353e+06 1.54891e+06 0 -2.12218e+06 1.57168e+06 0 -2.12055e+06 1.594e+06 0 -2.11865e+06 1.61584e+06 0 -2.11648e+06 1.63717e+06 0 -2.11405e+06 1.65794e+06 0 -2.11136e+06 1.6781e+06 0 -2.10843e+06 1.69762e+06 0 -2.10527e+06 1.71644e+06 0 -2.10189e+06 1.73452e+06 0 -2.09831e+06 1.7518e+06 0 -2.09454e+06 1.76824e+06 0 -2.09061e+06 1.78377e+06 0 -2.08653e+06 1.79833e+06 0 -2.08235e+06 1.81187e+06 0 -2.07807e+06 1.82433e+06 0 -2.07374e+06 1.83562e+06 0 -2.06939e+06 1.84569e+06 0 -2.06505e+06 1.85447e+06 0 -2.06075e+06 1.86188e+06 0 -2.05655e+06 1.86785e+06 0 -2.05247e+06 1.87228e+06 0 -2.04855e+06 1.8751e+06 0 -2.04485e+06 1.87621e+06 0 -2.04139e+06 1.87552e+06 0 -2.03822e+06 1.87291e+06 0 -2.03538e+06 1.86827e+06 0 -2.03291e+06 1.86147e+06 0 -2.03084e+06 1.85238e+06 0 -2.02922e+06 1.84083e+06 0 -2.02806e+06 1.82666e+06 0 -2.02741e+06 1.80966e+06 0 -2.02728e+06 1.78963e+06 0 -2.0277e+06 1.76632e+06 0 -2.0287e+06 1.73946e+06 0 -2.03027e+06 1.70875e+06 0 -2.03243e+06 1.67385e+06 0 -2.03518e+06 1.63442e+06 0 -2.0385e+06 1.59004e+06 0 -2.04237e+06 1.54031e+06 0 -2.04676e+06 1.48483e+06 0 -2.0516e+06 1.42318e+06 0 -2.05681e+06 1.35509e+06 0 -2.06229e+06 1.28036e+06 0 -2.06786e+06 1.19929e+06 0 -2.07343e+06 1.11244e+06 0 -2.07856e+06 1.02189e+06 0 -2.08356e+06 930559 0 -2.08714e+06 845711 0 -2.09203e+06 777078 0 -2.09376e+06 750534 0 -2.10853e+06 795764 0 -2.11695e+06 1.07559e+06 0 -2.49018e+06 2.76915e+06 0 -1.70524e+06 0 0 -1.70553e+06 10678.4 0 -1.70641e+06 21388.6 0 -1.70787e+06 32161.9 0 -1.70993e+06 43029.6 0 -1.71255e+06 54022.7 0 -1.71575e+06 65172.3 0 -1.71951e+06 76509.5 0 -1.72382e+06 88064.9 0 -1.72867e+06 99868.9 0 -1.73404e+06 111951 0 -1.73991e+06 124341 0 -1.74626e+06 137067 0 -1.75308e+06 150155 0 -1.76033e+06 163632 0 -1.768e+06 177521 0 -1.77605e+06 191845 0 -1.78445e+06 206623 0 -1.79317e+06 221873 0 -1.80218e+06 237609 0 -1.81144e+06 253843 0 -1.82092e+06 270583 0 -1.83058e+06 287836 0 -1.84039e+06 305603 0 -1.85031e+06 323884 0 -1.86031e+06 342675 0 -1.87035e+06 361971 0 -1.8804e+06 381761 0 -1.89043e+06 402034 0 -1.90041e+06 422777 0 -1.91031e+06 443973 0 -1.92012e+06 465606 0 -1.9298e+06 487656 0 -1.93933e+06 510106 0 -1.9487e+06 532933 0 -1.9579e+06 556118 0 -1.9669e+06 579640 0 -1.97569e+06 603477 0 -1.98427e+06 627609 0 -1.99261e+06 652014 0 -2.00073e+06 676673 0 -2.0086e+06 701565 0 -2.01622e+06 726671 0 -2.0236e+06 751972 0 -2.03072e+06 777450 0 -2.03758e+06 803087 0 -2.04418e+06 828866 0 -2.05052e+06 854770 0 -2.0566e+06 880782 0 -2.06241e+06 906888 0 -2.06796e+06 933070 0 -2.07324e+06 959315 0 -2.07826e+06 985608 0 -2.08301e+06 1.01193e+06 0 -2.0875e+06 1.03828e+06 0 -2.09172e+06 1.06462e+06 0 -2.09567e+06 1.09096e+06 0 -2.09936e+06 1.11727e+06 0 -2.10278e+06 1.14354e+06 0 -2.10593e+06 1.16976e+06 0 -2.10881e+06 1.1959e+06 0 -2.11142e+06 1.22196e+06 0 -2.11376e+06 1.24792e+06 0 -2.11583e+06 1.27376e+06 0 -2.11762e+06 1.29946e+06 0 -2.11914e+06 1.32501e+06 0 -2.12039e+06 1.35038e+06 0 -2.12136e+06 1.37556e+06 0 -2.12205e+06 1.40052e+06 0 -2.12247e+06 1.42524e+06 0 -2.12261e+06 1.44971e+06 0 -2.12247e+06 1.47388e+06 0 -2.12205e+06 1.49775e+06 0 -2.12135e+06 1.52127e+06 0 -2.12038e+06 1.54442e+06 0 -2.11913e+06 1.56717e+06 0 -2.11762e+06 1.58949e+06 0 -2.11583e+06 1.61133e+06 0 -2.11379e+06 1.63267e+06 0 -2.11149e+06 1.65346e+06 0 -2.10894e+06 1.67365e+06 0 -2.10615e+06 1.69322e+06 0 -2.10314e+06 1.71211e+06 0 -2.09992e+06 1.73027e+06 0 -2.0965e+06 1.74765e+06 0 -2.0929e+06 1.7642e+06 0 -2.08914e+06 1.77987e+06 0 -2.08525e+06 1.79459e+06 0 -2.08125e+06 1.80831e+06 0 -2.07717e+06 1.82096e+06 0 -2.07303e+06 1.83249e+06 0 -2.06888e+06 1.84282e+06 0 -2.06474e+06 1.85188e+06 0 -2.06066e+06 1.85961e+06 0 -2.05666e+06 1.86592e+06 0 -2.0528e+06 1.87074e+06 0 -2.04911e+06 1.87398e+06 0 -2.04563e+06 1.87554e+06 0 -2.0424e+06 1.87535e+06 0 -2.03948e+06 1.87328e+06 0 -2.03689e+06 1.86923e+06 0 -2.03468e+06 1.86307e+06 0 -2.03289e+06 1.85467e+06 0 -2.03156e+06 1.84388e+06 0 -2.03072e+06 1.83053e+06 0 -2.03041e+06 1.81442e+06 0 -2.03065e+06 1.79537e+06 0 -2.03148e+06 1.77312e+06 0 -2.03292e+06 1.74742e+06 0 -2.03499e+06 1.71797e+06 0 -2.0377e+06 1.68447e+06 0 -2.04107e+06 1.64654e+06 0 -2.04508e+06 1.60381e+06 0 -2.04972e+06 1.55588e+06 0 -2.05496e+06 1.50232e+06 0 -2.06075e+06 1.44273e+06 0 -2.06698e+06 1.37678e+06 0 -2.07355e+06 1.30424e+06 0 -2.0802e+06 1.22524e+06 0 -2.08678e+06 1.14013e+06 0 -2.09264e+06 1.05071e+06 0 -2.09777e+06 958826 0 -2.10045e+06 871821 0 -2.10147e+06 794770 0 -2.09697e+06 754209 0 -2.08849e+06 766442 0 -2.06759e+06 941237 0 -1.94612e+06 1.64138e+06 0 -1.70409e+06 0 0 -1.70437e+06 10714.3 0 -1.70524e+06 21460.8 0 -1.70668e+06 32270.1 0 -1.70871e+06 43173.1 0 -1.7113e+06 54200.6 0 -1.71446e+06 65383.1 0 -1.71817e+06 76751.3 0 -1.72243e+06 88335.2 0 -1.72722e+06 100165 0 -1.73252e+06 112269 0 -1.73832e+06 124678 0 -1.7446e+06 137418 0 -1.75133e+06 150515 0 -1.7585e+06 163997 0 -1.76608e+06 177885 0 -1.77403e+06 192201 0 -1.78234e+06 206966 0 -1.79096e+06 222196 0 -1.79987e+06 237905 0 -1.80903e+06 254106 0 -1.8184e+06 270806 0 -1.82796e+06 288011 0 -1.83767e+06 305725 0 -1.84748e+06 323946 0 -1.85738e+06 342671 0 -1.86732e+06 361894 0 -1.87728e+06 381606 0 -1.88721e+06 401796 0 -1.89711e+06 422450 0 -1.90693e+06 443554 0 -1.91665e+06 465091 0 -1.92625e+06 487042 0 -1.93572e+06 509388 0 -1.94502e+06 532110 0 -1.95415e+06 555188 0 -1.96309e+06 578600 0 -1.97183e+06 602327 0 -1.98036e+06 626347 0 -1.98866e+06 650639 0 -1.99673e+06 675185 0 -2.00457e+06 699964 0 -2.01216e+06 724957 0 -2.0195e+06 750145 0 -2.0266e+06 775511 0 -2.03344e+06 801036 0 -2.04002e+06 826703 0 -2.04634e+06 852496 0 -2.05241e+06 878399 0 -2.05821e+06 904395 0 -2.06376e+06 930470 0 -2.06904e+06 956609 0 -2.07406e+06 982797 0 -2.07882e+06 1.00902e+06 0 -2.08331e+06 1.03526e+06 0 -2.08755e+06 1.06151e+06 0 -2.09152e+06 1.08774e+06 0 -2.09522e+06 1.11396e+06 0 -2.09866e+06 1.14013e+06 0 -2.10184e+06 1.16626e+06 0 -2.10475e+06 1.19231e+06 0 -2.10739e+06 1.21828e+06 0 -2.10977e+06 1.24416e+06 0 -2.11188e+06 1.26991e+06 0 -2.11372e+06 1.29553e+06 0 -2.11529e+06 1.321e+06 0 -2.11659e+06 1.3463e+06 0 -2.11762e+06 1.37141e+06 0 -2.11838e+06 1.39631e+06 0 -2.11887e+06 1.42098e+06 0 -2.11908e+06 1.44539e+06 0 -2.11902e+06 1.46951e+06 0 -2.11868e+06 1.49334e+06 0 -2.11808e+06 1.51682e+06 0 -2.1172e+06 1.53995e+06 0 -2.11606e+06 1.56268e+06 0 -2.11465e+06 1.58498e+06 0 -2.11298e+06 1.60682e+06 0 -2.11106e+06 1.62817e+06 0 -2.10889e+06 1.64898e+06 0 -2.10647e+06 1.66921e+06 0 -2.10383e+06 1.68882e+06 0 -2.10096e+06 1.70777e+06 0 -2.09789e+06 1.72601e+06 0 -2.09463e+06 1.74349e+06 0 -2.0912e+06 1.76015e+06 0 -2.08761e+06 1.77595e+06 0 -2.0839e+06 1.79083e+06 0 -2.08008e+06 1.80472e+06 0 -2.07618e+06 1.81758e+06 0 -2.07224e+06 1.82933e+06 0 -2.06828e+06 1.83991e+06 0 -2.06434e+06 1.84925e+06 0 -2.06046e+06 1.85729e+06 0 -2.05667e+06 1.86394e+06 0 -2.05301e+06 1.86913e+06 0 -2.04954e+06 1.87278e+06 0 -2.04628e+06 1.87479e+06 0 -2.04328e+06 1.87508e+06 0 -2.04059e+06 1.87355e+06 0 -2.03824e+06 1.87008e+06 0 -2.03629e+06 1.86455e+06 0 -2.03476e+06 1.85683e+06 0 -2.03371e+06 1.84678e+06 0 -2.03317e+06 1.83423e+06 0 -2.03317e+06 1.81901e+06 0 -2.03377e+06 1.80091e+06 0 -2.03498e+06 1.7797e+06 0 -2.03684e+06 1.75514e+06 0 -2.03937e+06 1.72694e+06 0 -2.0426e+06 1.6948e+06 0 -2.04654e+06 1.65836e+06 0 -2.0512e+06 1.61725e+06 0 -2.05657e+06 1.57108e+06 0 -2.06261e+06 1.51943e+06 0 -2.0693e+06 1.46187e+06 0 -2.07651e+06 1.39807e+06 0 -2.08414e+06 1.32771e+06 0 -2.09192e+06 1.25084e+06 0 -2.09959e+06 1.16759e+06 0 -2.10648e+06 1.07944e+06 0 -2.11214e+06 987702 0 -2.11497e+06 898422 0 -2.11388e+06 816170 0 -2.10593e+06 760324 0 -2.08541e+06 750001 0 -2.04457e+06 849190 0 -1.88681e+06 1.19871e+06 0 -1.70294e+06 0 0 -1.70321e+06 10749.6 0 -1.70406e+06 21531.6 0 -1.70549e+06 32376.3 0 -1.70748e+06 43314 0 -1.71004e+06 54375.1 0 -1.71316e+06 65589.9 0 -1.71682e+06 76988.2 0 -1.72103e+06 88600.1 0 -1.72576e+06 100455 0 -1.73099e+06 112581 0 -1.73672e+06 125007 0 -1.74293e+06 137761 0 -1.74958e+06 150868 0 -1.75667e+06 164353 0 -1.76415e+06 178240 0 -1.77202e+06 192549 0 -1.78022e+06 207300 0 -1.78875e+06 222510 0 -1.79756e+06 238193 0 -1.80661e+06 254360 0 -1.81589e+06 271020 0 -1.82534e+06 288179 0 -1.83495e+06 305840 0 -1.84466e+06 324001 0 -1.85446e+06 342660 0 -1.8643e+06 361812 0 -1.87416e+06 381446 0 -1.88401e+06 401554 0 -1.89382e+06 422121 0 -1.90355e+06 443133 0 -1.91319e+06 464574 0 -1.92272e+06 486426 0 -1.93211e+06 508671 0 -1.94135e+06 531288 0 -1.95042e+06 554259 0 -1.9593e+06 577563 0 -1.96798e+06 601179 0 -1.97646e+06 625088 0 -1.98472e+06 649269 0 -1.99275e+06 673702 0 -2.00054e+06 698369 0 -2.0081e+06 723249 0 -2.01542e+06 748325 0 -2.02248e+06 773578 0 -2.0293e+06 798991 0 -2.03586e+06 824547 0 -2.04217e+06 850230 0 -2.04823e+06 876023 0 -2.05402e+06 901911 0 -2.05956e+06 927879 0 -2.06484e+06 953912 0 -2.06986e+06 979995 0 -2.07463e+06 1.00611e+06 0 -2.07913e+06 1.03225e+06 0 -2.08337e+06 1.0584e+06 0 -2.08736e+06 1.08454e+06 0 -2.09108e+06 1.11066e+06 0 -2.09454e+06 1.13674e+06 0 -2.09774e+06 1.16277e+06 0 -2.10068e+06 1.18873e+06 0 -2.10336e+06 1.21462e+06 0 -2.10577e+06 1.2404e+06 0 -2.10792e+06 1.26608e+06 0 -2.10981e+06 1.29162e+06 0 -2.11143e+06 1.31701e+06 0 -2.11278e+06 1.34224e+06 0 -2.11387e+06 1.36728e+06 0 -2.11469e+06 1.39212e+06 0 -2.11524e+06 1.41672e+06 0 -2.11553e+06 1.44108e+06 0 -2.11555e+06 1.46516e+06 0 -2.1153e+06 1.48893e+06 0 -2.11478e+06 1.51239e+06 0 -2.114e+06 1.53548e+06 0 -2.11296e+06 1.55819e+06 0 -2.11165e+06 1.58048e+06 0 -2.1101e+06 1.60233e+06 0 -2.10829e+06 1.62368e+06 0 -2.10625e+06 1.64451e+06 0 -2.10396e+06 1.66477e+06 0 -2.10146e+06 1.68443e+06 0 -2.09874e+06 1.70344e+06 0 -2.09582e+06 1.72175e+06 0 -2.09271e+06 1.73932e+06 0 -2.08944e+06 1.75609e+06 0 -2.08602e+06 1.77202e+06 0 -2.08248e+06 1.78705e+06 0 -2.07883e+06 1.80111e+06 0 -2.07512e+06 1.81416e+06 0 -2.07136e+06 1.82613e+06 0 -2.06759e+06 1.83696e+06 0 -2.06384e+06 1.84658e+06 0 -2.06015e+06 1.85491e+06 0 -2.05657e+06 1.8619e+06 0 -2.05312e+06 1.86746e+06 0 -2.04985e+06 1.87151e+06 0 -2.0468e+06 1.87396e+06 0 -2.04402e+06 1.87473e+06 0 -2.04155e+06 1.87372e+06 0 -2.03944e+06 1.87081e+06 0 -2.03772e+06 1.8659e+06 0 -2.03645e+06 1.85885e+06 0 -2.03566e+06 1.84953e+06 0 -2.0354e+06 1.83777e+06 0 -2.03571e+06 1.82341e+06 0 -2.03664e+06 1.80625e+06 0 -2.0382e+06 1.78607e+06 0 -2.04046e+06 1.76263e+06 0 -2.04342e+06 1.73565e+06 0 -2.04713e+06 1.70484e+06 0 -2.05161e+06 1.66987e+06 0 -2.05687e+06 1.63035e+06 0 -2.06291e+06 1.58592e+06 0 -2.06972e+06 1.53614e+06 0 -2.07725e+06 1.4806e+06 0 -2.08541e+06 1.41893e+06 0 -2.09408e+06 1.35077e+06 0 -2.10298e+06 1.27607e+06 0 -2.11182e+06 1.19481e+06 0 -2.1199e+06 1.10808e+06 0 -2.12649e+06 1.01697e+06 0 -2.13006e+06 925985 0 -2.12853e+06 839715 0 -2.11881e+06 771700 0 -2.09338e+06 740844 0 -2.04106e+06 786958 0 -1.89626e+06 1.01146e+06 0 -1.70178e+06 0 0 -1.70205e+06 10784.3 0 -1.70288e+06 21601.1 0 -1.70428e+06 32480.4 0 -1.70625e+06 43452.1 0 -1.70877e+06 54546.3 0 -1.71185e+06 65792.5 0 -1.71547e+06 77220.5 0 -1.71962e+06 88859.6 0 -1.72429e+06 100739 0 -1.72947e+06 112886 0 -1.73513e+06 125330 0 -1.74126e+06 138097 0 -1.74783e+06 151213 0 -1.75483e+06 164702 0 -1.76223e+06 178586 0 -1.77e+06 192888 0 -1.77811e+06 207626 0 -1.78654e+06 222816 0 -1.79525e+06 238472 0 -1.8042e+06 254607 0 -1.81338e+06 271227 0 -1.82273e+06 288340 0 -1.83223e+06 305948 0 -1.84185e+06 324050 0 -1.85155e+06 342644 0 -1.8613e+06 361724 0 -1.87106e+06 381282 0 -1.88082e+06 401308 0 -1.89053e+06 421789 0 -1.90019e+06 442710 0 -1.90975e+06 464056 0 -1.9192e+06 485810 0 -1.92852e+06 507953 0 -1.93769e+06 530467 0 -1.94669e+06 553332 0 -1.95552e+06 576528 0 -1.96414e+06 600035 0 -1.97257e+06 623833 0 -1.98078e+06 647903 0 -1.98877e+06 672224 0 -1.99653e+06 696778 0 -2.00405e+06 721546 0 -2.01133e+06 746510 0 -2.01837e+06 771651 0 -2.02517e+06 796953 0 -2.03171e+06 822399 0 -2.03801e+06 847972 0 -2.04405e+06 873656 0 -2.04984e+06 899436 0 -2.05537e+06 925297 0 -2.06065e+06 951224 0 -2.06567e+06 977202 0 -2.07044e+06 1.00322e+06 0 -2.07495e+06 1.02926e+06 0 -2.0792e+06 1.0553e+06 0 -2.0832e+06 1.08134e+06 0 -2.08694e+06 1.10736e+06 0 -2.09042e+06 1.13335e+06 0 -2.09365e+06 1.15929e+06 0 -2.09661e+06 1.18516e+06 0 -2.09932e+06 1.21096e+06 0 -2.10177e+06 1.23666e+06 0 -2.10396e+06 1.26225e+06 0 -2.10589e+06 1.28772e+06 0 -2.10756e+06 1.31303e+06 0 -2.10897e+06 1.33819e+06 0 -2.11011e+06 1.36316e+06 0 -2.11099e+06 1.38793e+06 0 -2.11161e+06 1.41248e+06 0 -2.11196e+06 1.43678e+06 0 -2.11206e+06 1.46081e+06 0 -2.11189e+06 1.48454e+06 0 -2.11146e+06 1.50796e+06 0 -2.11077e+06 1.53103e+06 0 -2.10983e+06 1.55372e+06 0 -2.10863e+06 1.57599e+06 0 -2.10718e+06 1.59783e+06 0 -2.10549e+06 1.61919e+06 0 -2.10357e+06 1.64004e+06 0 -2.10141e+06 1.66033e+06 0 -2.09904e+06 1.68004e+06 0 -2.09646e+06 1.6991e+06 0 -2.09369e+06 1.71749e+06 0 -2.09073e+06 1.73514e+06 0 -2.08762e+06 1.75202e+06 0 -2.08436e+06 1.76808e+06 0 -2.08098e+06 1.78325e+06 0 -2.07751e+06 1.79748e+06 0 -2.07397e+06 1.81072e+06 0 -2.07039e+06 1.8229e+06 0 -2.06681e+06 1.83397e+06 0 -2.06325e+06 1.84386e+06 0 -2.05976e+06 1.85249e+06 0 -2.05636e+06 1.8598e+06 0 -2.05311e+06 1.86572e+06 0 -2.05004e+06 1.87017e+06 0 -2.0472e+06 1.87305e+06 0 -2.04463e+06 1.87429e+06 0 -2.04238e+06 1.87379e+06 0 -2.04049e+06 1.87144e+06 0 -2.039e+06 1.86713e+06 0 -2.03797e+06 1.86074e+06 0 -2.03743e+06 1.85213e+06 0 -2.03744e+06 1.84115e+06 0 -2.03803e+06 1.82764e+06 0 -2.03926e+06 1.8114e+06 0 -2.04117e+06 1.79222e+06 0 -2.04378e+06 1.76988e+06 0 -2.04715e+06 1.7441e+06 0 -2.05131e+06 1.71461e+06 0 -2.05629e+06 1.68106e+06 0 -2.06211e+06 1.64312e+06 0 -2.06878e+06 1.60039e+06 0 -2.0763e+06 1.55246e+06 0 -2.08463e+06 1.49892e+06 0 -2.09368e+06 1.43936e+06 0 -2.10335e+06 1.37341e+06 0 -2.11337e+06 1.3009e+06 0 -2.1234e+06 1.22173e+06 0 -2.13277e+06 1.13664e+06 0 -2.1406e+06 1.04646e+06 0 -2.14535e+06 954545 0 -2.14449e+06 865018 0 -2.13466e+06 787766 0 -2.10793e+06 739023 0 -2.05206e+06 746686 0 -1.91969e+06 873871 0 -1.70062e+06 0 0 -1.70087e+06 10818.2 0 -1.70169e+06 21669.2 0 -1.70307e+06 32582.4 0 -1.70501e+06 43587.6 0 -1.7075e+06 54714 0 -1.71054e+06 65991.2 0 -1.71411e+06 77448.2 0 -1.71821e+06 89113.9 0 -1.72283e+06 101017 0 -1.72794e+06 113185 0 -1.73353e+06 125646 0 -1.73958e+06 138426 0 -1.74608e+06 151550 0 -1.75299e+06 165042 0 -1.76031e+06 178925 0 -1.76798e+06 193219 0 -1.776e+06 207943 0 -1.78433e+06 223113 0 -1.79294e+06 238743 0 -1.8018e+06 254845 0 -1.81087e+06 271426 0 -1.82012e+06 288493 0 -1.82953e+06 306048 0 -1.83904e+06 324092 0 -1.84864e+06 342621 0 -1.85829e+06 361631 0 -1.86797e+06 381113 0 -1.87763e+06 401058 0 -1.88726e+06 421453 0 -1.89683e+06 442284 0 -1.90631e+06 463537 0 -1.91569e+06 485193 0 -1.92493e+06 507236 0 -1.93404e+06 529647 0 -1.94298e+06 552406 0 -1.95174e+06 575495 0 -1.96031e+06 598893 0 -1.96869e+06 622582 0 -1.97685e+06 646541 0 -1.9848e+06 670751 0 -1.99252e+06 695193 0 -2.00001e+06 719850 0 -2.00726e+06 744702 0 -2.01427e+06 769732 0 -2.02104e+06 794923 0 -2.02757e+06 820258 0 -2.03384e+06 845721 0 -2.03987e+06 871297 0 -2.04565e+06 896969 0 -2.05118e+06 922723 0 -2.05645e+06 948545 0 -2.06148e+06 974419 0 -2.06625e+06 1.00033e+06 0 -2.07076e+06 1.02627e+06 0 -2.07503e+06 1.05221e+06 0 -2.07904e+06 1.07816e+06 0 -2.08279e+06 1.10408e+06 0 -2.0863e+06 1.12998e+06 0 -2.08955e+06 1.15582e+06 0 -2.09254e+06 1.18161e+06 0 -2.09528e+06 1.20731e+06 0 -2.09776e+06 1.23293e+06 0 -2.09999e+06 1.25844e+06 0 -2.10196e+06 1.28382e+06 0 -2.10368e+06 1.30907e+06 0 -2.10514e+06 1.33415e+06 0 -2.10633e+06 1.35905e+06 0 -2.10727e+06 1.38376e+06 0 -2.10796e+06 1.40824e+06 0 -2.10838e+06 1.43249e+06 0 -2.10855e+06 1.45647e+06 0 -2.10846e+06 1.48016e+06 0 -2.10811e+06 1.50354e+06 0 -2.10752e+06 1.52658e+06 0 -2.10667e+06 1.54925e+06 0 -2.10557e+06 1.57151e+06 0 -2.10423e+06 1.59335e+06 0 -2.10266e+06 1.61471e+06 0 -2.10085e+06 1.63558e+06 0 -2.09882e+06 1.6559e+06 0 -2.09658e+06 1.67564e+06 0 -2.09414e+06 1.69476e+06 0 -2.0915e+06 1.71322e+06 0 -2.0887e+06 1.73096e+06 0 -2.08574e+06 1.74794e+06 0 -2.08264e+06 1.76412e+06 0 -2.07943e+06 1.77943e+06 0 -2.07612e+06 1.79383e+06 0 -2.07275e+06 1.80725e+06 0 -2.06935e+06 1.81965e+06 0 -2.06594e+06 1.83095e+06 0 -2.06257e+06 1.84109e+06 0 -2.05926e+06 1.85002e+06 0 -2.05606e+06 1.85765e+06 0 -2.053e+06 1.86392e+06 0 -2.05012e+06 1.86875e+06 0 -2.04748e+06 1.87206e+06 0 -2.04511e+06 1.87376e+06 0 -2.04307e+06 1.87376e+06 0 -2.04138e+06 1.87195e+06 0 -2.04012e+06 1.86824e+06 0 -2.03931e+06 1.86249e+06 0 -2.03902e+06 1.85459e+06 0 -2.03928e+06 1.84437e+06 0 -2.04014e+06 1.83169e+06 0 -2.04166e+06 1.81635e+06 0 -2.04387e+06 1.79816e+06 0 -2.04683e+06 1.7769e+06 0 -2.05058e+06 1.7523e+06 0 -2.05515e+06 1.72409e+06 0 -2.06059e+06 1.69195e+06 0 -2.06693e+06 1.65554e+06 0 -2.07419e+06 1.61449e+06 0 -2.08236e+06 1.56839e+06 0 -2.09144e+06 1.51682e+06 0 -2.10134e+06 1.45936e+06 0 -2.11197e+06 1.39561e+06 0 -2.12307e+06 1.32533e+06 0 -2.1343e+06 1.24833e+06 0 -2.14503e+06 1.16504e+06 0 -2.15427e+06 1.07611e+06 0 -2.16054e+06 983896 0 -2.16114e+06 892026 0 -2.15242e+06 807627 0 -2.12683e+06 744262 0 -2.07159e+06 722534 0 -1.9534e+06 784309 0 -1.69945e+06 0 0 -1.69969e+06 10851.5 0 -1.70049e+06 21736 0 -1.70185e+06 32682.5 0 -1.70377e+06 43720.3 0 -1.70622e+06 54878.4 0 -1.70922e+06 66185.8 0 -1.71275e+06 77671.2 0 -1.7168e+06 89363 0 -1.72135e+06 101289 0 -1.7264e+06 113478 0 -1.73192e+06 125955 0 -1.7379e+06 138747 0 -1.74432e+06 151879 0 -1.75116e+06 165374 0 -1.75838e+06 179255 0 -1.76597e+06 193541 0 -1.7739e+06 208251 0 -1.78213e+06 223402 0 -1.79064e+06 239006 0 -1.7994e+06 255075 0 -1.80837e+06 271617 0 -1.81752e+06 288639 0 -1.82682e+06 306142 0 -1.83624e+06 324128 0 -1.84574e+06 342593 0 -1.8553e+06 361533 0 -1.86488e+06 380940 0 -1.87445e+06 400804 0 -1.884e+06 421114 0 -1.89348e+06 441856 0 -1.90288e+06 463015 0 -1.91218e+06 484575 0 -1.92136e+06 506518 0 -1.93039e+06 528827 0 -1.93927e+06 551482 0 -1.94797e+06 574464 0 -1.95649e+06 597754 0 -1.96481e+06 621334 0 -1.97293e+06 645182 0 -1.98083e+06 669282 0 -1.98851e+06 693613 0 -1.99597e+06 718158 0 -2.00319e+06 742899 0 -2.01018e+06 767818 0 -2.01692e+06 792899 0 -2.02343e+06 818124 0 -2.02969e+06 843478 0 -2.0357e+06 868945 0 -2.04147e+06 894510 0 -2.04699e+06 920158 0 -2.05226e+06 945874 0 -2.05728e+06 971644 0 -2.06206e+06 997454 0 -2.06658e+06 1.02329e+06 0 -2.07085e+06 1.04914e+06 0 -2.07488e+06 1.07498e+06 0 -2.07865e+06 1.10081e+06 0 -2.08217e+06 1.12661e+06 0 -2.08544e+06 1.15236e+06 0 -2.08846e+06 1.17806e+06 0 -2.09123e+06 1.20368e+06 0 -2.09375e+06 1.22921e+06 0 -2.09602e+06 1.25464e+06 0 -2.09803e+06 1.27994e+06 0 -2.09979e+06 1.30511e+06 0 -2.10129e+06 1.33012e+06 0 -2.10255e+06 1.35495e+06 0 -2.10355e+06 1.3796e+06 0 -2.10429e+06 1.40402e+06 0 -2.10478e+06 1.42821e+06 0 -2.10502e+06 1.45214e+06 0 -2.10501e+06 1.47579e+06 0 -2.10475e+06 1.49914e+06 0 -2.10424e+06 1.52214e+06 0 -2.10348e+06 1.54479e+06 0 -2.10249e+06 1.56704e+06 0 -2.10125e+06 1.58887e+06 0 -2.09979e+06 1.61024e+06 0 -2.0981e+06 1.63112e+06 0 -2.09619e+06 1.65147e+06 0 -2.09408e+06 1.67125e+06 0 -2.09177e+06 1.69042e+06 0 -2.08927e+06 1.70895e+06 0 -2.08661e+06 1.72677e+06 0 -2.0838e+06 1.74386e+06 0 -2.08085e+06 1.76015e+06 0 -2.0778e+06 1.7756e+06 0 -2.07466e+06 1.79016e+06 0 -2.07146e+06 1.80376e+06 0 -2.06823e+06 1.81636e+06 0 -2.065e+06 1.82789e+06 0 -2.0618e+06 1.83829e+06 0 -2.05867e+06 1.8475e+06 0 -2.05565e+06 1.85544e+06 0 -2.05277e+06 1.86206e+06 0 -2.05009e+06 1.86727e+06 0 -2.04764e+06 1.87099e+06 0 -2.04547e+06 1.87314e+06 0 -2.04362e+06 1.87363e+06 0 -2.04214e+06 1.87236e+06 0 -2.04108e+06 1.86923e+06 0 -2.0405e+06 1.86412e+06 0 -2.04043e+06 1.8569e+06 0 -2.04092e+06 1.84743e+06 0 -2.04204e+06 1.83556e+06 0 -2.04383e+06 1.82111e+06 0 -2.04633e+06 1.80389e+06 0 -2.04961e+06 1.78368e+06 0 -2.0537e+06 1.76023e+06 0 -2.05866e+06 1.73328e+06 0 -2.06453e+06 1.70253e+06 0 -2.07135e+06 1.66763e+06 0 -2.07914e+06 1.62823e+06 0 -2.08793e+06 1.58392e+06 0 -2.0977e+06 1.53429e+06 0 -2.1084e+06 1.47891e+06 0 -2.11993e+06 1.41737e+06 0 -2.13208e+06 1.34934e+06 0 -2.14449e+06 1.27457e+06 0 -2.15658e+06 1.19324e+06 0 -2.16737e+06 1.10583e+06 0 -2.17538e+06 1.0139e+06 0 -2.17797e+06 920472 0 -2.1713e+06 830813 0 -2.14835e+06 755603 0 -2.09674e+06 710843 0 -1.99011e+06 726991 0 -1.69827e+06 0 0 -1.6985e+06 10884.2 0 -1.69929e+06 21801.4 0 -1.70063e+06 32780.6 0 -1.70251e+06 43850.4 0 -1.70494e+06 55039.5 0 -1.7079e+06 66376.5 0 -1.71138e+06 77889.6 0 -1.71538e+06 89606.8 0 -1.71988e+06 101556 0 -1.72486e+06 113764 0 -1.73032e+06 126257 0 -1.73622e+06 139061 0 -1.74256e+06 152201 0 -1.74932e+06 165699 0 -1.75645e+06 179577 0 -1.76395e+06 193855 0 -1.77179e+06 208552 0 -1.77993e+06 223682 0 -1.78834e+06 239260 0 -1.797e+06 255297 0 -1.80587e+06 271800 0 -1.81492e+06 288777 0 -1.82413e+06 306229 0 -1.83345e+06 324157 0 -1.84285e+06 342559 0 -1.85231e+06 361429 0 -1.8618e+06 380762 0 -1.87128e+06 400546 0 -1.88074e+06 420772 0 -1.89014e+06 441426 0 -1.89946e+06 462492 0 -1.90869e+06 483956 0 -1.91779e+06 505801 0 -1.92676e+06 528007 0 -1.93557e+06 550558 0 -1.94421e+06 573435 0 -1.95268e+06 596618 0 -1.96095e+06 620089 0 -1.96902e+06 643828 0 -1.97688e+06 667817 0 -1.98452e+06 692038 0 -1.99194e+06 716473 0 -1.99913e+06 741103 0 -2.00609e+06 765911 0 -2.01281e+06 790882 0 -2.01929e+06 815998 0 -2.02553e+06 841243 0 -2.03153e+06 866602 0 -2.03729e+06 892060 0 -2.0428e+06 917602 0 -2.04807e+06 943213 0 -2.05309e+06 968879 0 -2.05787e+06 994587 0 -2.0624e+06 1.02032e+06 0 -2.06668e+06 1.04607e+06 0 -2.07071e+06 1.07182e+06 0 -2.0745e+06 1.09755e+06 0 -2.07804e+06 1.12325e+06 0 -2.08134e+06 1.14892e+06 0 -2.08438e+06 1.17452e+06 0 -2.08718e+06 1.20006e+06 0 -2.08973e+06 1.2255e+06 0 -2.09203e+06 1.25085e+06 0 -2.09408e+06 1.27607e+06 0 -2.09589e+06 1.30116e+06 0 -2.09744e+06 1.3261e+06 0 -2.09875e+06 1.35087e+06 0 -2.0998e+06 1.37544e+06 0 -2.10061e+06 1.39981e+06 0 -2.10117e+06 1.42395e+06 0 -2.10148e+06 1.44783e+06 0 -2.10154e+06 1.47143e+06 0 -2.10136e+06 1.49474e+06 0 -2.10094e+06 1.51771e+06 0 -2.10027e+06 1.54033e+06 0 -2.09937e+06 1.56257e+06 0 -2.09824e+06 1.58439e+06 0 -2.09688e+06 1.60577e+06 0 -2.09531e+06 1.62666e+06 0 -2.09352e+06 1.64704e+06 0 -2.09153e+06 1.66686e+06 0 -2.08935e+06 1.68608e+06 0 -2.08699e+06 1.70467e+06 0 -2.08447e+06 1.72258e+06 0 -2.0818e+06 1.73976e+06 0 -2.07901e+06 1.75617e+06 0 -2.07611e+06 1.77175e+06 0 -2.07313e+06 1.78646e+06 0 -2.07009e+06 1.80024e+06 0 -2.06703e+06 1.81304e+06 0 -2.06396e+06 1.82479e+06 0 -2.06094e+06 1.83544e+06 0 -2.05799e+06 1.84493e+06 0 -2.05514e+06 1.85318e+06 0 -2.05245e+06 1.86013e+06 0 -2.04995e+06 1.86571e+06 0 -2.04768e+06 1.86984e+06 0 -2.0457e+06 1.87243e+06 0 -2.04404e+06 1.8734e+06 0 -2.04276e+06 1.87266e+06 0 -2.0419e+06 1.8701e+06 0 -2.04152e+06 1.8656e+06 0 -2.04166e+06 1.85906e+06 0 -2.04238e+06 1.85033e+06 0 -2.04374e+06 1.83925e+06 0 -2.04578e+06 1.82567e+06 0 -2.04855e+06 1.8094e+06 0 -2.05212e+06 1.79022e+06 0 -2.05654e+06 1.76791e+06 0 -2.06185e+06 1.7422e+06 0 -2.06812e+06 1.7128e+06 0 -2.07538e+06 1.67938e+06 0 -2.08367e+06 1.64159e+06 0 -2.09302e+06 1.59905e+06 0 -2.10344e+06 1.55133e+06 0 -2.11488e+06 1.49802e+06 0 -2.12725e+06 1.43866e+06 0 -2.14039e+06 1.3729e+06 0 -2.15395e+06 1.30042e+06 0 -2.1674e+06 1.2212e+06 0 -2.17978e+06 1.13551e+06 0 -2.18968e+06 1.04439e+06 0 -2.19457e+06 950149 0 -2.19063e+06 856752 0 -2.17131e+06 772313 0 -2.1251e+06 709482 0 -2.03027e+06 689389 0 -1.69708e+06 0 0 -1.69731e+06 10916.1 0 -1.69808e+06 21865.6 0 -1.6994e+06 32876.7 0 -1.70126e+06 43977.9 0 -1.70365e+06 55197.3 0 -1.70657e+06 66563.2 0 -1.71001e+06 78103.4 0 -1.71395e+06 89845.5 0 -1.71839e+06 101817 0 -1.72332e+06 114044 0 -1.7287e+06 126553 0 -1.73454e+06 139368 0 -1.7408e+06 152515 0 -1.74747e+06 166015 0 -1.75453e+06 179891 0 -1.76194e+06 194161 0 -1.76968e+06 208843 0 -1.77772e+06 223954 0 -1.78604e+06 239506 0 -1.7946e+06 255511 0 -1.80338e+06 271976 0 -1.81233e+06 288907 0 -1.82144e+06 306308 0 -1.83066e+06 324179 0 -1.83997e+06 342518 0 -1.84933e+06 361320 0 -1.85873e+06 380579 0 -1.86812e+06 400285 0 -1.87749e+06 420427 0 -1.88681e+06 440993 0 -1.89605e+06 461968 0 -1.9052e+06 483336 0 -1.91423e+06 505082 0 -1.92313e+06 527188 0 -1.93188e+06 549636 0 -1.94046e+06 572408 0 -1.94887e+06 595484 0 -1.95709e+06 618847 0 -1.96511e+06 642477 0 -1.97293e+06 666357 0 -1.98053e+06 690468 0 -1.98791e+06 714792 0 -1.99507e+06 739312 0 -2.002e+06 764011 0 -2.0087e+06 788872 0 -2.01516e+06 813878 0 -2.02139e+06 839015 0 -2.02737e+06 864267 0 -2.03312e+06 889618 0 -2.03862e+06 915054 0 -2.04388e+06 940560 0 -2.0489e+06 966123 0 -2.05368e+06 991729 0 -2.05821e+06 1.01736e+06 0 -2.0625e+06 1.04301e+06 0 -2.06655e+06 1.06866e+06 0 -2.07035e+06 1.0943e+06 0 -2.07391e+06 1.11991e+06 0 -2.07723e+06 1.14548e+06 0 -2.0803e+06 1.171e+06 0 -2.08312e+06 1.19644e+06 0 -2.0857e+06 1.2218e+06 0 -2.08804e+06 1.24707e+06 0 -2.09013e+06 1.27221e+06 0 -2.09198e+06 1.29723e+06 0 -2.09358e+06 1.32209e+06 0 -2.09494e+06 1.34679e+06 0 -2.09605e+06 1.3713e+06 0 -2.09691e+06 1.39561e+06 0 -2.09754e+06 1.41969e+06 0 -2.09792e+06 1.44352e+06 0 -2.09805e+06 1.46708e+06 0 -2.09795e+06 1.49035e+06 0 -2.09761e+06 1.51329e+06 0 -2.09704e+06 1.53589e+06 0 -2.09623e+06 1.55811e+06 0 -2.0952e+06 1.57993e+06 0 -2.09395e+06 1.6013e+06 0 -2.09248e+06 1.62221e+06 0 -2.09081e+06 1.64261e+06 0 -2.08894e+06 1.66246e+06 0 -2.08689e+06 1.68174e+06 0 -2.08466e+06 1.70039e+06 0 -2.08228e+06 1.71837e+06 0 -2.07975e+06 1.73565e+06 0 -2.07711e+06 1.75217e+06 0 -2.07436e+06 1.76789e+06 0 -2.07153e+06 1.78275e+06 0 -2.06865e+06 1.7967e+06 0 -2.06575e+06 1.80969e+06 0 -2.06285e+06 1.82166e+06 0 -2.05999e+06 1.83256e+06 0 -2.05721e+06 1.84231e+06 0 -2.05454e+06 1.85087e+06 0 -2.05202e+06 1.85815e+06 0 -2.0497e+06 1.86409e+06 0 -2.04761e+06 1.86861e+06 0 -2.0458e+06 1.87163e+06 0 -2.04433e+06 1.87308e+06 0 -2.04323e+06 1.87285e+06 0 -2.04257e+06 1.87084e+06 0 -2.04238e+06 1.86696e+06 0 -2.04273e+06 1.86108e+06 0 -2.04366e+06 1.85306e+06 0 -2.04524e+06 1.84277e+06 0 -2.04752e+06 1.83004e+06 0 -2.05054e+06 1.8147e+06 0 -2.05439e+06 1.79654e+06 0 -2.0591e+06 1.77533e+06 0 -2.06474e+06 1.75083e+06 0 -2.07136e+06 1.72276e+06 0 -2.07903e+06 1.69079e+06 0 -2.08778e+06 1.65459e+06 0 -2.09765e+06 1.61378e+06 0 -2.10865e+06 1.56795e+06 0 -2.12078e+06 1.51667e+06 0 -2.13395e+06 1.45948e+06 0 -2.14802e+06 1.396e+06 0 -2.16268e+06 1.32584e+06 0 -2.17745e+06 1.24884e+06 0 -2.19143e+06 1.1651e+06 0 -2.20328e+06 1.07521e+06 0 -2.21066e+06 980846 0 -2.20987e+06 884967 0 -2.19484e+06 793596 0 -2.15502e+06 716581 0 -2.07196e+06 669733 0 -1.69589e+06 0 0 -1.69611e+06 10947.5 0 -1.69687e+06 21928.4 0 -1.69816e+06 32970.8 0 -1.69999e+06 44102.7 0 -1.70235e+06 55351.9 0 -1.70523e+06 66746.1 0 -1.70863e+06 78312.8 0 -1.71252e+06 90079.1 0 -1.71691e+06 102072 0 -1.72177e+06 114317 0 -1.72709e+06 126841 0 -1.73285e+06 139668 0 -1.73904e+06 152821 0 -1.74563e+06 166324 0 -1.7526e+06 180196 0 -1.75992e+06 194458 0 -1.76757e+06 209127 0 -1.77552e+06 224218 0 -1.78375e+06 239744 0 -1.79221e+06 255716 0 -1.80089e+06 272143 0 -1.80974e+06 289030 0 -1.81875e+06 306381 0 -1.82788e+06 324195 0 -1.83709e+06 342472 0 -1.84636e+06 361206 0 -1.85566e+06 380391 0 -1.86497e+06 400019 0 -1.87425e+06 420078 0 -1.88349e+06 440557 0 -1.89265e+06 461441 0 -1.90172e+06 482715 0 -1.91068e+06 504364 0 -1.91951e+06 526370 0 -1.9282e+06 548715 0 -1.93672e+06 571382 0 -1.94507e+06 594353 0 -1.95324e+06 617608 0 -1.96121e+06 641130 0 -1.96899e+06 664901 0 -1.97655e+06 688903 0 -1.9839e+06 713117 0 -1.99102e+06 737527 0 -1.99792e+06 762116 0 -2.00459e+06 786868 0 -2.01104e+06 811766 0 -2.01724e+06 836795 0 -2.02321e+06 861939 0 -2.02895e+06 887183 0 -2.03444e+06 912514 0 -2.0397e+06 937916 0 -2.04472e+06 963376 0 -2.0495e+06 988880 0 -2.05403e+06 1.01441e+06 0 -2.05833e+06 1.03996e+06 0 -2.06239e+06 1.06552e+06 0 -2.0662e+06 1.09106e+06 0 -2.06978e+06 1.11657e+06 0 -2.07311e+06 1.14205e+06 0 -2.07621e+06 1.16748e+06 0 -2.07906e+06 1.19284e+06 0 -2.08167e+06 1.21812e+06 0 -2.08404e+06 1.2433e+06 0 -2.08617e+06 1.26