<?xml version="1.0"?> 
<VTKFile type="StructuredGrid" version="0.1"> 
<StructuredGrid WholeExtent="0 127 0 127 0 0"> 
<Piece Extent="0 127 0 127 0 0"> 
<PointData>
<DataArray type="Float32" Name="E" format="ascii" NumberOfComponents="3"> 
1.56798e+06 4.7523e+06 0 1.59096e+06 4.7624e+06 0 1.61203e+06 4.76681e+06 0 1.63213e+06 4.76848e+06 0 1.65158e+06 4.76847e+06 0 1.67054e+06 4.76724e+06 0 1.68908e+06 4.76504e+06 0 1.70725e+06 4.76204e+06 0 1.72508e+06 4.75835e+06 0 1.74259e+06 4.75405e+06 0 1.75982e+06 4.74922e+06 0 1.77676e+06 4.74391e+06 0 1.79345e+06 4.73816e+06 0 1.80988e+06 4.73202e+06 0 1.82608e+06 4.72553e+06 0 1.84204e+06 4.7187e+06 0 1.85778e+06 4.71158e+06 0 1.87331e+06 4.70417e+06 0 1.88863e+06 4.69651e+06 0 1.90375e+06 4.68861e+06 0 1.91868e+06 4.68049e+06 0 1.93342e+06 4.67216e+06 0 1.94798e+06 4.66364e+06 0 1.96235e+06 4.65495e+06 0 1.97656e+06 4.64609e+06 0 1.9906e+06 4.63708e+06 0 2.00447e+06 4.62793e+06 0 2.01819e+06 4.61865e+06 0 2.03176e+06 4.60925e+06 0 2.04517e+06 4.59973e+06 0 2.05845e+06 4.59011e+06 0 2.07158e+06 4.5804e+06 0 2.08457e+06 4.5706e+06 0 2.09743e+06 4.56071e+06 0 2.11017e+06 4.55076e+06 0 2.12277e+06 4.54074e+06 0 2.13526e+06 4.53065e+06 0 2.14763e+06 4.52052e+06 0 2.15989e+06 4.51033e+06 0 2.17204e+06 4.5001e+06 0 2.18408e+06 4.48984e+06 0 2.19602e+06 4.47954e+06 0 2.20786e+06 4.46921e+06 0 2.2196e+06 4.45886e+06 0 2.23126e+06 4.44849e+06 0 2.24282e+06 4.43811e+06 0 2.2543e+06 4.42772e+06 0 2.2657e+06 4.41732e+06 0 2.27702e+06 4.40692e+06 0 2.28826e+06 4.39652e+06 0 2.29943e+06 4.38612e+06 0 2.31054e+06 4.37574e+06 0 2.32158e+06 4.36536e+06 0 2.33256e+06 4.355e+06 0 2.34347e+06 4.34466e+06 0 2.35434e+06 4.33434e+06 0 2.36515e+06 4.32405e+06 0 2.37591e+06 4.31378e+06 0 2.38663e+06 4.30355e+06 0 2.3973e+06 4.29334e+06 0 2.40794e+06 4.28318e+06 0 2.41854e+06 4.27305e+06 0 2.42911e+06 4.26296e+06 0 2.43964e+06 4.25291e+06 0 2.45015e+06 4.24291e+06 0 2.46064e+06 4.23296e+06 0 2.47111e+06 4.22306e+06 0 2.48156e+06 4.21321e+06 0 2.492e+06 4.20342e+06 0 2.50243e+06 4.19369e+06 0 2.51285e+06 4.18401e+06 0 2.52327e+06 4.1744e+06 0 2.53368e+06 4.16485e+06 0 2.5441e+06 4.15537e+06 0 2.55453e+06 4.14595e+06 0 2.56496e+06 4.13661e+06 0 2.57541e+06 4.12734e+06 0 2.58588e+06 4.11814e+06 0 2.59637e+06 4.10902e+06 0 2.60687e+06 4.09997e+06 0 2.61741e+06 4.09101e+06 0 2.62798e+06 4.08213e+06 0 2.63858e+06 4.07334e+06 0 2.64922e+06 4.06464e+06 0 2.6599e+06 4.05602e+06 0 2.67063e+06 4.04749e+06 0 2.68141e+06 4.03906e+06 0 2.69224e+06 4.03073e+06 0 2.70313e+06 4.02249e+06 0 2.71408e+06 4.01436e+06 0 2.7251e+06 4.00633e+06 0 2.73619e+06 3.9984e+06 0 2.74736e+06 3.99059e+06 0 2.75861e+06 3.98289e+06 0 2.76994e+06 3.9753e+06 0 2.78137e+06 3.96784e+06 0 2.79289e+06 3.96049e+06 0 2.80451e+06 3.95327e+06 0 2.81624e+06 3.94619e+06 0 2.82809e+06 3.93923e+06 0 2.84006e+06 3.93241e+06 0 2.85215e+06 3.92574e+06 0 2.86438e+06 3.91922e+06 0 2.87675e+06 3.91284e+06 0 2.88926e+06 3.90663e+06 0 2.90194e+06 3.90058e+06 0 2.91478e+06 3.89471e+06 0 2.9278e+06 3.88901e+06 0 2.94101e+06 3.8835e+06 0 2.95441e+06 3.87818e+06 0 2.96802e+06 3.87307e+06 0 2.98185e+06 3.86816e+06 0 2.99591e+06 3.86349e+06 0 3.01023e+06 3.85905e+06 0 3.02481e+06 3.85487e+06 0 3.03967e+06 3.85096e+06 0 3.05486e+06 3.84735e+06 0 3.0704e+06 3.84408e+06 0 3.08633e+06 3.84119e+06 0 3.10273e+06 3.83876e+06 0 3.11967e+06 3.83689e+06 0 3.1373e+06 3.83571e+06 0 3.15579e+06 3.83544e+06 0 3.17539e+06 3.83635e+06 0 3.19646e+06 3.83886e+06 0 3.21953e+06 3.84356e+06 0 3.24532e+06 3.85126e+06 0 3.27483e+06 3.8631e+06 0 1.58619e+06 4.71046e+06 0 1.60033e+06 4.71405e+06 0 1.61576e+06 4.71674e+06 0 1.63203e+06 4.71809e+06 0 1.64874e+06 4.71818e+06 0 1.66563e+06 4.71714e+06 0 1.68255e+06 4.71513e+06 0 1.69942e+06 4.71228e+06 0 1.71619e+06 4.70867e+06 0 1.73282e+06 4.70442e+06 0 1.74929e+06 4.69957e+06 0 1.76559e+06 4.69421e+06 0 1.78172e+06 4.68836e+06 0 1.79766e+06 4.68208e+06 0 1.81342e+06 4.67541e+06 0 1.82899e+06 4.66838e+06 0 1.84438e+06 4.66102e+06 0 1.85959e+06 4.65335e+06 0 1.87462e+06 4.64541e+06 0 1.88947e+06 4.6372e+06 0 1.90414e+06 4.62875e+06 0 1.91865e+06 4.62008e+06 0 1.93299e+06 4.61121e+06 0 1.94716e+06 4.60214e+06 0 1.96117e+06 4.5929e+06 0 1.97503e+06 4.58349e+06 0 1.98873e+06 4.57393e+06 0 2.00228e+06 4.56423e+06 0 2.01569e+06 4.55441e+06 0 2.02895e+06 4.54446e+06 0 2.04208e+06 4.5344e+06 0 2.05507e+06 4.52424e+06 0 2.06794e+06 4.51398e+06 0 2.08067e+06 4.50364e+06 0 2.09329e+06 4.49322e+06 0 2.10578e+06 4.48273e+06 0 2.11816e+06 4.47217e+06 0 2.13043e+06 4.46156e+06 0 2.14259e+06 4.45089e+06 0 2.15465e+06 4.44018e+06 0 2.16661e+06 4.42942e+06 0 2.17847e+06 4.41863e+06 0 2.19024e+06 4.40781e+06 0 2.20193e+06 4.39696e+06 0 2.21352e+06 4.38609e+06 0 2.22504e+06 4.3752e+06 0 2.23648e+06 4.3643e+06 0 2.24784e+06 4.35338e+06 0 2.25914e+06 4.34247e+06 0 2.27037e+06 4.33155e+06 0 2.28153e+06 4.32063e+06 0 2.29264e+06 4.30972e+06 0 2.30369e+06 4.29881e+06 0 2.31469e+06 4.28792e+06 0 2.32564e+06 4.27704e+06 0 2.33655e+06 4.26617e+06 0 2.34741e+06 4.25533e+06 0 2.35824e+06 4.24451e+06 0 2.36903e+06 4.23371e+06 0 2.3798e+06 4.22294e+06 0 2.39054e+06 4.2122e+06 0 2.40125e+06 4.20149e+06 0 2.41195e+06 4.19082e+06 0 2.42263e+06 4.18018e+06 0 2.4333e+06 4.16958e+06 0 2.44396e+06 4.15902e+06 0 2.45461e+06 4.14851e+06 0 2.46527e+06 4.13803e+06 0 2.47593e+06 4.12761e+06 0 2.48659e+06 4.11722e+06 0 2.49727e+06 4.10689e+06 0 2.50796e+06 4.09661e+06 0 2.51867e+06 4.08638e+06 0 2.52941e+06 4.07621e+06 0 2.54017e+06 4.06609e+06 0 2.55096e+06 4.05602e+06 0 2.56178e+06 4.04601e+06 0 2.57265e+06 4.03607e+06 0 2.58356e+06 4.02618e+06 0 2.59452e+06 4.01635e+06 0 2.60553e+06 4.00659e+06 0 2.6166e+06 3.99689e+06 0 2.62773e+06 3.98725e+06 0 2.63893e+06 3.97768e+06 0 2.6502e+06 3.96818e+06 0 2.66154e+06 3.95874e+06 0 2.67298e+06 3.94938e+06 0 2.6845e+06 3.94008e+06 0 2.69611e+06 3.93085e+06 0 2.70783e+06 3.9217e+06 0 2.71965e+06 3.91262e+06 0 2.73159e+06 3.90361e+06 0 2.74364e+06 3.89467e+06 0 2.75583e+06 3.88581e+06 0 2.76815e+06 3.87702e+06 0 2.78061e+06 3.86831e+06 0 2.79322e+06 3.85968e+06 0 2.806e+06 3.85112e+06 0 2.81895e+06 3.84264e+06 0 2.83208e+06 3.83423e+06 0 2.8454e+06 3.8259e+06 0 2.85893e+06 3.81765e+06 0 2.87267e+06 3.80947e+06 0 2.88664e+06 3.80136e+06 0 2.90087e+06 3.79333e+06 0 2.91535e+06 3.78536e+06 0 2.93011e+06 3.77746e+06 0 2.94518e+06 3.76962e+06 0 2.96056e+06 3.76183e+06 0 2.97629e+06 3.75408e+06 0 2.99239e+06 3.74638e+06 0 3.00888e+06 3.73869e+06 0 3.02581e+06 3.731e+06 0 3.04318e+06 3.7233e+06 0 3.06105e+06 3.71555e+06 0 3.07945e+06 3.70772e+06 0 3.09841e+06 3.69977e+06 0 3.11797e+06 3.69165e+06 0 3.13816e+06 3.6833e+06 0 3.15902e+06 3.67465e+06 0 3.18056e+06 3.66563e+06 0 3.20279e+06 3.65613e+06 0 3.22571e+06 3.64608e+06 0 3.24927e+06 3.63537e+06 0 3.27339e+06 3.6239e+06 0 3.29791e+06 3.61161e+06 0 3.32262e+06 3.59845e+06 0 3.34715e+06 3.58444e+06 0 1.58958e+06 4.6766e+06 0 1.60255e+06 4.67752e+06 0 1.61642e+06 4.67783e+06 0 1.63096e+06 4.67746e+06 0 1.64599e+06 4.67635e+06 0 1.66138e+06 4.67445e+06 0 1.67699e+06 4.67181e+06 0 1.69272e+06 4.66845e+06 0 1.7085e+06 4.66443e+06 0 1.72428e+06 4.6598e+06 0 1.74e+06 4.65461e+06 0 1.75565e+06 4.6489e+06 0 1.77119e+06 4.64272e+06 0 1.78662e+06 4.63611e+06 0 1.80192e+06 4.6291e+06 0 1.81708e+06 4.62171e+06 0 1.83209e+06 4.61399e+06 0 1.84696e+06 4.60595e+06 0 1.86167e+06 4.59762e+06 0 1.87623e+06 4.58902e+06 0 1.89064e+06 4.58017e+06 0 1.90489e+06 4.57108e+06 0 1.919e+06 4.56178e+06 0 1.93295e+06 4.55229e+06 0 1.94676e+06 4.54261e+06 0 1.96042e+06 4.53275e+06 0 1.97394e+06 4.52274e+06 0 1.98732e+06 4.51258e+06 0 2.00056e+06 4.50228e+06 0 2.01367e+06 4.49186e+06 0 2.02665e+06 4.48132e+06 0 2.0395e+06 4.47068e+06 0 2.05222e+06 4.45993e+06 0 2.06483e+06 4.44909e+06 0 2.07733e+06 4.43818e+06 0 2.08971e+06 4.42718e+06 0 2.10198e+06 4.41612e+06 0 2.11415e+06 4.40499e+06 0 2.12621e+06 4.39381e+06 0 2.13818e+06 4.38257e+06 0 2.15006e+06 4.37129e+06 0 2.16185e+06 4.35997e+06 0 2.17355e+06 4.34862e+06 0 2.18517e+06 4.33723e+06 0 2.19671e+06 4.32582e+06 0 2.20818e+06 4.31438e+06 0 2.21958e+06 4.30293e+06 0 2.23092e+06 4.29146e+06 0 2.24219e+06 4.27998e+06 0 2.2534e+06 4.26849e+06 0 2.26456e+06 4.257e+06 0 2.27567e+06 4.24551e+06 0 2.28673e+06 4.23402e+06 0 2.29775e+06 4.22254e+06 0 2.30874e+06 4.21106e+06 0 2.31968e+06 4.19959e+06 0 2.3306e+06 4.18813e+06 0 2.34149e+06 4.17669e+06 0 2.35236e+06 4.16526e+06 0 2.3632e+06 4.15385e+06 0 2.37404e+06 4.14246e+06 0 2.38486e+06 4.1311e+06 0 2.39568e+06 4.11975e+06 0 2.40649e+06 4.10844e+06 0 2.4173e+06 4.09714e+06 0 2.42812e+06 4.08588e+06 0 2.43895e+06 4.07464e+06 0 2.44979e+06 4.06343e+06 0 2.46065e+06 4.05226e+06 0 2.47154e+06 4.04111e+06 0 2.48245e+06 4.03e+06 0 2.49339e+06 4.01892e+06 0 2.50436e+06 4.00787e+06 0 2.51538e+06 3.99686e+06 0 2.52644e+06 3.98588e+06 0 2.53755e+06 3.97494e+06 0 2.54871e+06 3.96403e+06 0 2.55993e+06 3.95315e+06 0 2.57121e+06 3.94231e+06 0 2.58257e+06 3.9315e+06 0 2.594e+06 3.92073e+06 0 2.6055e+06 3.90999e+06 0 2.61709e+06 3.89928e+06 0 2.62878e+06 3.8886e+06 0 2.64055e+06 3.87795e+06 0 2.65243e+06 3.86733e+06 0 2.66442e+06 3.85674e+06 0 2.67652e+06 3.84617e+06 0 2.68875e+06 3.83562e+06 0 2.7011e+06 3.82509e+06 0 2.71359e+06 3.81459e+06 0 2.72622e+06 3.80409e+06 0 2.739e+06 3.79361e+06 0 2.75194e+06 3.78314e+06 0 2.76504e+06 3.77266e+06 0 2.77832e+06 3.76219e+06 0 2.79178e+06 3.7517e+06 0 2.80544e+06 3.74121e+06 0 2.81929e+06 3.73068e+06 0 2.83336e+06 3.72013e+06 0 2.84765e+06 3.70954e+06 0 2.86217e+06 3.6989e+06 0 2.87694e+06 3.68819e+06 0 2.89195e+06 3.6774e+06 0 2.90723e+06 3.66653e+06 0 2.92278e+06 3.65554e+06 0 2.93861e+06 3.64443e+06 0 2.95473e+06 3.63316e+06 0 2.97114e+06 3.62173e+06 0 2.98785e+06 3.6101e+06 0 3.00487e+06 3.59824e+06 0 3.0222e+06 3.58613e+06 0 3.03983e+06 3.57373e+06 0 3.05776e+06 3.56101e+06 0 3.07597e+06 3.54795e+06 0 3.09445e+06 3.53451e+06 0 3.11319e+06 3.52065e+06 0 3.13215e+06 3.50635e+06 0 3.15129e+06 3.49158e+06 0 3.17059e+06 3.47633e+06 0 3.18999e+06 3.46057e+06 0 3.20945e+06 3.44429e+06 0 3.22891e+06 3.42749e+06 0 3.24834e+06 3.41016e+06 0 3.2677e+06 3.39228e+06 0 3.28699e+06 3.37383e+06 0 3.30623e+06 3.35473e+06 0 3.32551e+06 3.33485e+06 0 1.58775e+06 4.64639e+06 0 1.60045e+06 4.64546e+06 0 1.61368e+06 4.64414e+06 0 1.62741e+06 4.64232e+06 0 1.64156e+06 4.63995e+06 0 1.65606e+06 4.63698e+06 0 1.6708e+06 4.63343e+06 0 1.68572e+06 4.62929e+06 0 1.70076e+06 4.62459e+06 0 1.71585e+06 4.61935e+06 0 1.73095e+06 4.6136e+06 0 1.74604e+06 4.60737e+06 0 1.76107e+06 4.60069e+06 0 1.77603e+06 4.59359e+06 0 1.79091e+06 4.5861e+06 0 1.80568e+06 4.57825e+06 0 1.82033e+06 4.57006e+06 0 1.83487e+06 4.56156e+06 0 1.84928e+06 4.55277e+06 0 1.86356e+06 4.5437e+06 0 1.87771e+06 4.53438e+06 0 1.89172e+06 4.52482e+06 0 1.90559e+06 4.51505e+06 0 1.91933e+06 4.50507e+06 0 1.93293e+06 4.4949e+06 0 1.9464e+06 4.48455e+06 0 1.95974e+06 4.47405e+06 0 1.97294e+06 4.46339e+06 0 1.98602e+06 4.45259e+06 0 1.99897e+06 4.44165e+06 0 2.0118e+06 4.4306e+06 0 2.02451e+06 4.41944e+06 0 2.03711e+06 4.40817e+06 0 2.04959e+06 4.39681e+06 0 2.06196e+06 4.38536e+06 0 2.07423e+06 4.37383e+06 0 2.08639e+06 4.36223e+06 0 2.09846e+06 4.35056e+06 0 2.11043e+06 4.33883e+06 0 2.12231e+06 4.32704e+06 0 2.1341e+06 4.3152e+06 0 2.14582e+06 4.30332e+06 0 2.15745e+06 4.29139e+06 0 2.16901e+06 4.27943e+06 0 2.18049e+06 4.26744e+06 0 2.19192e+06 4.25542e+06 0 2.20327e+06 4.24337e+06 0 2.21457e+06 4.23131e+06 0 2.22582e+06 4.21922e+06 0 2.23701e+06 4.20713e+06 0 2.24816e+06 4.19502e+06 0 2.25926e+06 4.1829e+06 0 2.27033e+06 4.17077e+06 0 2.28136e+06 4.15864e+06 0 2.29236e+06 4.14651e+06 0 2.30334e+06 4.13437e+06 0 2.31429e+06 4.12224e+06 0 2.32523e+06 4.11011e+06 0 2.33615e+06 4.09799e+06 0 2.34706e+06 4.08587e+06 0 2.35797e+06 4.07376e+06 0 2.36888e+06 4.06166e+06 0 2.37979e+06 4.04956e+06 0 2.3907e+06 4.03748e+06 0 2.40163e+06 4.0254e+06 0 2.41258e+06 4.01334e+06 0 2.42354e+06 4.00128e+06 0 2.43453e+06 3.98924e+06 0 2.44555e+06 3.97721e+06 0 2.4566e+06 3.96519e+06 0 2.46769e+06 3.95317e+06 0 2.47882e+06 3.94117e+06 0 2.49e+06 3.92917e+06 0 2.50122e+06 3.91719e+06 0 2.51251e+06 3.90521e+06 0 2.52386e+06 3.89323e+06 0 2.53527e+06 3.88126e+06 0 2.54675e+06 3.86928e+06 0 2.5583e+06 3.85731e+06 0 2.56994e+06 3.84534e+06 0 2.58166e+06 3.83335e+06 0 2.59347e+06 3.82136e+06 0 2.60537e+06 3.80936e+06 0 2.61738e+06 3.79735e+06 0 2.62949e+06 3.78531e+06 0 2.64171e+06 3.77325e+06 0 2.65405e+06 3.76116e+06 0 2.66651e+06 3.74904e+06 0 2.67909e+06 3.73688e+06 0 2.69181e+06 3.72467e+06 0 2.70466e+06 3.71242e+06 0 2.71765e+06 3.7001e+06 0 2.7308e+06 3.68771e+06 0 2.74409e+06 3.67525e+06 0 2.75754e+06 3.6627e+06 0 2.77114e+06 3.65006e+06 0 2.78492e+06 3.63731e+06 0 2.79886e+06 3.62444e+06 0 2.81296e+06 3.61143e+06 0 2.82724e+06 3.59829e+06 0 2.8417e+06 3.58498e+06 0 2.85632e+06 3.5715e+06 0 2.87112e+06 3.55782e+06 0 2.88609e+06 3.54394e+06 0 2.90122e+06 3.52984e+06 0 2.9165e+06 3.51549e+06 0 2.93195e+06 3.50088e+06 0 2.94753e+06 3.486e+06 0 2.96324e+06 3.47082e+06 0 2.97907e+06 3.45532e+06 0 2.99499e+06 3.43951e+06 0 3.011e+06 3.42335e+06 0 3.02708e+06 3.40683e+06 0 3.04319e+06 3.38995e+06 0 3.05932e+06 3.37269e+06 0 3.07544e+06 3.35505e+06 0 3.09153e+06 3.33703e+06 0 3.10757e+06 3.31861e+06 0 3.12353e+06 3.29979e+06 0 3.13939e+06 3.28058e+06 0 3.15514e+06 3.26098e+06 0 3.17075e+06 3.24097e+06 0 3.18622e+06 3.22058e+06 0 3.20152e+06 3.19979e+06 0 3.21664e+06 3.17863e+06 0 3.23154e+06 3.15714e+06 0 3.24617e+06 3.13537e+06 0 3.26044e+06 3.11345e+06 0 1.5832e+06 4.61852e+06 0 1.59561e+06 4.61625e+06 0 1.6085e+06 4.6136e+06 0 1.6218e+06 4.61055e+06 0 1.63545e+06 4.60704e+06 0 1.6494e+06 4.60305e+06 0 1.66359e+06 4.59857e+06 0 1.67795e+06 4.59359e+06 0 1.69245e+06 4.58812e+06 0 1.70702e+06 4.58216e+06 0 1.72164e+06 4.57575e+06 0 1.73627e+06 4.5689e+06 0 1.75089e+06 4.56162e+06 0 1.76545e+06 4.55396e+06 0 1.77996e+06 4.54591e+06 0 1.79439e+06 4.53752e+06 0 1.80873e+06 4.5288e+06 0 1.82297e+06 4.51977e+06 0 1.83711e+06 4.51046e+06 0 1.85113e+06 4.50087e+06 0 1.86503e+06 4.49103e+06 0 1.87881e+06 4.48095e+06 0 1.89246e+06 4.47066e+06 0 1.906e+06 4.46016e+06 0 1.91941e+06 4.44947e+06 0 1.93269e+06 4.4386e+06 0 1.94585e+06 4.42756e+06 0 1.95889e+06 4.41637e+06 0 1.97181e+06 4.40503e+06 0 1.98461e+06 4.39356e+06 0 1.99729e+06 4.38197e+06 0 2.00987e+06 4.37026e+06 0 2.02233e+06 4.35845e+06 0 2.03469e+06 4.34653e+06 0 2.04694e+06 4.33452e+06 0 2.05909e+06 4.32243e+06 0 2.07115e+06 4.31026e+06 0 2.08311e+06 4.29802e+06 0 2.09499e+06 4.28571e+06 0 2.10678e+06 4.27334e+06 0 2.11849e+06 4.26091e+06 0 2.13012e+06 4.24844e+06 0 2.14168e+06 4.23591e+06 0 2.15317e+06 4.22334e+06 0 2.1646e+06 4.21074e+06 0 2.17596e+06 4.1981e+06 0 2.18727e+06 4.18542e+06 0 2.19853e+06 4.17272e+06 0 2.20973e+06 4.15999e+06 0 2.22089e+06 4.14724e+06 0 2.23202e+06 4.13447e+06 0 2.2431e+06 4.12168e+06 0 2.25415e+06 4.10887e+06 0 2.26518e+06 4.09604e+06 0 2.27618e+06 4.0832e+06 0 2.28716e+06 4.07035e+06 0 2.29813e+06 4.05749e+06 0 2.30908e+06 4.04462e+06 0 2.32003e+06 4.03173e+06 0 2.33098e+06 4.01884e+06 0 2.34192e+06 4.00594e+06 0 2.35287e+06 3.99303e+06 0 2.36383e+06 3.98011e+06 0 2.37481e+06 3.96718e+06 0 2.3858e+06 3.95424e+06 0 2.39681e+06 3.94129e+06 0 2.40785e+06 3.92833e+06 0 2.41892e+06 3.91535e+06 0 2.43003e+06 3.90237e+06 0 2.44117e+06 3.88937e+06 0 2.45235e+06 3.87635e+06 0 2.46358e+06 3.86331e+06 0 2.47486e+06 3.85025e+06 0 2.4862e+06 3.83717e+06 0 2.49759e+06 3.82406e+06 0 2.50905e+06 3.81092e+06 0 2.52057e+06 3.79774e+06 0 2.53216e+06 3.78454e+06 0 2.54383e+06 3.77129e+06 0 2.55558e+06 3.75799e+06 0 2.5674e+06 3.74464e+06 0 2.57931e+06 3.73124e+06 0 2.59131e+06 3.71778e+06 0 2.6034e+06 3.70426e+06 0 2.61558e+06 3.69066e+06 0 2.62786e+06 3.67698e+06 0 2.64023e+06 3.66321e+06 0 2.65271e+06 3.64935e+06 0 2.66529e+06 3.63539e+06 0 2.67798e+06 3.62132e+06 0 2.69077e+06 3.60713e+06 0 2.70366e+06 3.59281e+06 0 2.71666e+06 3.57834e+06 0 2.72976e+06 3.56373e+06 0 2.74296e+06 3.54896e+06 0 2.75627e+06 3.53402e+06 0 2.76966e+06 3.5189e+06 0 2.78315e+06 3.50358e+06 0 2.79672e+06 3.48806e+06 0 2.81037e+06 3.47232e+06 0 2.82409e+06 3.45635e+06 0 2.83787e+06 3.44014e+06 0 2.8517e+06 3.42368e+06 0 2.86557e+06 3.40697e+06 0 2.87947e+06 3.38998e+06 0 2.89338e+06 3.37272e+06 0 2.90729e+06 3.35517e+06 0 2.92118e+06 3.33732e+06 0 2.93503e+06 3.31918e+06 0 2.94884e+06 3.30074e+06 0 2.96258e+06 3.282e+06 0 2.97623e+06 3.26295e+06 0 2.98979e+06 3.24359e+06 0 3.00322e+06 3.22393e+06 0 3.01652e+06 3.20396e+06 0 3.02966e+06 3.1837e+06 0 3.04264e+06 3.16314e+06 0 3.05543e+06 3.14229e+06 0 3.06802e+06 3.12116e+06 0 3.08039e+06 3.09976e+06 0 3.09253e+06 3.0781e+06 0 3.10441e+06 3.0562e+06 0 3.11603e+06 3.03406e+06 0 3.12737e+06 3.01171e+06 0 3.1384e+06 2.98915e+06 0 3.14914e+06 2.96638e+06 0 3.15959e+06 2.94339e+06 0 3.16977e+06 2.92012e+06 0 1.57657e+06 4.59245e+06 0 1.5889e+06 4.58902e+06 0 1.60159e+06 4.58527e+06 0 1.61462e+06 4.58115e+06 0 1.62796e+06 4.57664e+06 0 1.64155e+06 4.57169e+06 0 1.65536e+06 4.56632e+06 0 1.66933e+06 4.5605e+06 0 1.68344e+06 4.55424e+06 0 1.69763e+06 4.54755e+06 0 1.71188e+06 4.54044e+06 0 1.72615e+06 4.53292e+06 0 1.74042e+06 4.52501e+06 0 1.75466e+06 4.51672e+06 0 1.76886e+06 4.50808e+06 0 1.783e+06 4.4991e+06 0 1.79707e+06 4.48981e+06 0 1.81105e+06 4.48021e+06 0 1.82493e+06 4.47033e+06 0 1.83872e+06 4.46019e+06 0 1.8524e+06 4.4498e+06 0 1.86597e+06 4.43917e+06 0 1.87943e+06 4.42832e+06 0 1.89277e+06 4.41727e+06 0 1.90599e+06 4.40603e+06 0 1.9191e+06 4.39461e+06 0 1.9321e+06 4.38302e+06 0 1.94498e+06 4.37127e+06 0 1.95774e+06 4.35938e+06 0 1.9704e+06 4.34735e+06 0 1.98294e+06 4.33519e+06 0 1.99538e+06 4.32291e+06 0 2.00771e+06 4.31052e+06 0 2.01995e+06 4.29803e+06 0 2.03208e+06 4.28544e+06 0 2.04412e+06 4.27276e+06 0 2.05607e+06 4.26e+06 0 2.06793e+06 4.24716e+06 0 2.07971e+06 4.23425e+06 0 2.0914e+06 4.22127e+06 0 2.10302e+06 4.20823e+06 0 2.11457e+06 4.19513e+06 0 2.12605e+06 4.18198e+06 0 2.13746e+06 4.16878e+06 0 2.14881e+06 4.15553e+06 0 2.16011e+06 4.14224e+06 0 2.17135e+06 4.1289e+06 0 2.18255e+06 4.11553e+06 0 2.1937e+06 4.10212e+06 0 2.20481e+06 4.08868e+06 0 2.21589e+06 4.0752e+06 0 2.22693e+06 4.0617e+06 0 2.23795e+06 4.04816e+06 0 2.24894e+06 4.0346e+06 0 2.25991e+06 4.02101e+06 0 2.27086e+06 4.00739e+06 0 2.2818e+06 3.99375e+06 0 2.29274e+06 3.98008e+06 0 2.30367e+06 3.96638e+06 0 2.3146e+06 3.95265e+06 0 2.32553e+06 3.9389e+06 0 2.33647e+06 3.92512e+06 0 2.34743e+06 3.91131e+06 0 2.35839e+06 3.89747e+06 0 2.36938e+06 3.8836e+06 0 2.38039e+06 3.8697e+06 0 2.39142e+06 3.85576e+06 0 2.40248e+06 3.84178e+06 0 2.41357e+06 3.82776e+06 0 2.4247e+06 3.8137e+06 0 2.43587e+06 3.79959e+06 0 2.44708e+06 3.78543e+06 0 2.45834e+06 3.77122e+06 0 2.46964e+06 3.75695e+06 0 2.48099e+06 3.74262e+06 0 2.4924e+06 3.72823e+06 0 2.50386e+06 3.71376e+06 0 2.51537e+06 3.69922e+06 0 2.52694e+06 3.6846e+06 0 2.53858e+06 3.66989e+06 0 2.55027e+06 3.65509e+06 0 2.56203e+06 3.64019e+06 0 2.57385e+06 3.62519e+06 0 2.58572e+06 3.61007e+06 0 2.59766e+06 3.59483e+06 0 2.60966e+06 3.57947e+06 0 2.62172e+06 3.56397e+06 0 2.63384e+06 3.54832e+06 0 2.64601e+06 3.53253e+06 0 2.65823e+06 3.51658e+06 0 2.67049e+06 3.50046e+06 0 2.6828e+06 3.48416e+06 0 2.69514e+06 3.46768e+06 0 2.70751e+06 3.45101e+06 0 2.71991e+06 3.43414e+06 0 2.73231e+06 3.41706e+06 0 2.74473e+06 3.39977e+06 0 2.75713e+06 3.38225e+06 0 2.76952e+06 3.36451e+06 0 2.78189e+06 3.34653e+06 0 2.79421e+06 3.32832e+06 0 2.80649e+06 3.30986e+06 0 2.8187e+06 3.29116e+06 0 2.83084e+06 3.27221e+06 0 2.84288e+06 3.25302e+06 0 2.85482e+06 3.23357e+06 0 2.86664e+06 3.21388e+06 0 2.87832e+06 3.19394e+06 0 2.88986e+06 3.17375e+06 0 2.90124e+06 3.15332e+06 0 2.91245e+06 3.13266e+06 0 2.92347e+06 3.11177e+06 0 2.93428e+06 3.09066e+06 0 2.94489e+06 3.06933e+06 0 2.95526e+06 3.04779e+06 0 2.9654e+06 3.02605e+06 0 2.97529e+06 3.00413e+06 0 2.98492e+06 2.98203e+06 0 2.99428e+06 2.95976e+06 0 3.00336e+06 2.93733e+06 0 3.01216e+06 2.91476e+06 0 3.02067e+06 2.89206e+06 0 3.02889e+06 2.86922e+06 0 3.0368e+06 2.84627e+06 0 3.04442e+06 2.82321e+06 0 3.05173e+06 2.80007e+06 0 3.05872e+06 2.77686e+06 0 3.06537e+06 2.75366e+06 0 1.56856e+06 4.5678e+06 0 1.58079e+06 4.56338e+06 0 1.59336e+06 4.55864e+06 0 1.60622e+06 4.55357e+06 0 1.61934e+06 4.54813e+06 0 1.63269e+06 4.5423e+06 0 1.64623e+06 4.53608e+06 0 1.65993e+06 4.52946e+06 0 1.67374e+06 4.52243e+06 0 1.68764e+06 4.515e+06 0 1.7016e+06 4.50718e+06 0 1.71559e+06 4.49898e+06 0 1.72958e+06 4.49041e+06 0 1.74356e+06 4.48149e+06 0 1.7575e+06 4.47222e+06 0 1.77139e+06 4.46263e+06 0 1.78522e+06 4.45274e+06 0 1.79897e+06 4.44255e+06 0 1.81264e+06 4.43209e+06 0 1.82622e+06 4.42137e+06 0 1.8397e+06 4.4104e+06 0 1.85308e+06 4.3992e+06 0 1.86635e+06 4.38778e+06 0 1.87951e+06 4.37616e+06 0 1.89257e+06 4.36435e+06 0 1.90552e+06 4.35235e+06 0 1.91835e+06 4.34019e+06 0 1.93108e+06 4.32787e+06 0 1.9437e+06 4.31539e+06 0 1.95621e+06 4.30278e+06 0 1.96862e+06 4.29004e+06 0 1.98092e+06 4.27718e+06 0 1.99313e+06 4.2642e+06 0 2.00524e+06 4.25111e+06 0 2.01725e+06 4.23792e+06 0 2.02917e+06 4.22464e+06 0 2.04101e+06 4.21126e+06 0 2.05276e+06 4.19781e+06 0 2.06443e+06 4.18427e+06 0 2.07603e+06 4.17067e+06 0 2.08755e+06 4.15699e+06 0 2.099e+06 4.14325e+06 0 2.11038e+06 4.12944e+06 0 2.12171e+06 4.11558e+06 0 2.13297e+06 4.10166e+06 0 2.14418e+06 4.08769e+06 0 2.15535e+06 4.07366e+06 0 2.16646e+06 4.05959e+06 0 2.17754e+06 4.04547e+06 0 2.18857e+06 4.03131e+06 0 2.19957e+06 4.0171e+06 0 2.21054e+06 4.00284e+06 0 2.22149e+06 3.98855e+06 0 2.23241e+06 3.97421e+06 0 2.24331e+06 3.95983e+06 0 2.25419e+06 3.9454e+06 0 2.26506e+06 3.93094e+06 0 2.27593e+06 3.91643e+06 0 2.28679e+06 3.90187e+06 0 2.29765e+06 3.88727e+06 0 2.3085e+06 3.87262e+06 0 2.31937e+06 3.85793e+06 0 2.33024e+06 3.84318e+06 0 2.34112e+06 3.82838e+06 0 2.35201e+06 3.81353e+06 0 2.36292e+06 3.79862e+06 0 2.37385e+06 3.78364e+06 0 2.38479e+06 3.76861e+06 0 2.39576e+06 3.7535e+06 0 2.40676e+06 3.73833e+06 0 2.41778e+06 3.72308e+06 0 2.42883e+06 3.70775e+06 0 2.43991e+06 3.69234e+06 0 2.45101e+06 3.67684e+06 0 2.46215e+06 3.66124e+06 0 2.47332e+06 3.64555e+06 0 2.48452e+06 3.62975e+06 0 2.49575e+06 3.61385e+06 0 2.507e+06 3.59783e+06 0 2.51829e+06 3.58169e+06 0 2.5296e+06 3.56542e+06 0 2.54093e+06 3.54902e+06 0 2.55229e+06 3.53248e+06 0 2.56366e+06 3.51579e+06 0 2.57504e+06 3.49895e+06 0 2.58644e+06 3.48195e+06 0 2.59783e+06 3.46479e+06 0 2.60923e+06 3.44746e+06 0 2.62061e+06 3.42995e+06 0 2.63198e+06 3.41226e+06 0 2.64333e+06 3.39438e+06 0 2.65464e+06 3.37631e+06 0 2.66591e+06 3.35804e+06 0 2.67714e+06 3.33958e+06 0 2.6883e+06 3.3209e+06 0 2.69939e+06 3.30203e+06 0 2.7104e+06 3.28294e+06 0 2.72132e+06 3.26364e+06 0 2.73213e+06 3.24414e+06 0 2.74283e+06 3.22442e+06 0 2.7534e+06 3.2045e+06 0 2.76383e+06 3.18436e+06 0 2.77412e+06 3.16403e+06 0 2.78423e+06 3.14349e+06 0 2.79418e+06 3.12276e+06 0 2.80394e+06 3.10183e+06 0 2.8135e+06 3.08072e+06 0 2.82285e+06 3.05944e+06 0 2.83199e+06 3.03798e+06 0 2.8409e+06 3.01635e+06 0 2.84957e+06 2.99458e+06 0 2.85799e+06 2.97266e+06 0 2.86617e+06 2.9506e+06 0 2.87408e+06 2.92842e+06 0 2.88172e+06 2.90612e+06 0 2.88909e+06 2.88372e+06 0 2.89618e+06 2.86122e+06 0 2.90298e+06 2.83864e+06 0 2.9095e+06 2.81599e+06 0 2.91572e+06 2.79328e+06 0 2.92165e+06 2.77052e+06 0 2.92729e+06 2.74772e+06 0 2.93262e+06 2.7249e+06 0 2.93765e+06 2.70207e+06 0 2.94237e+06 2.67925e+06 0 2.94678e+06 2.65644e+06 0 2.9509e+06 2.63365e+06 0 2.95473e+06 2.61086e+06 0 1.55942e+06 4.54433e+06 0 1.57162e+06 4.53901e+06 0 1.58411e+06 4.53338e+06 0 1.59685e+06 4.52743e+06 0 1.60982e+06 4.52114e+06 0 1.623e+06 4.51449e+06 0 1.63634e+06 4.50747e+06 0 1.64983e+06 4.50007e+06 0 1.66342e+06 4.49229e+06 0 1.6771e+06 4.48414e+06 0 1.69083e+06 4.47562e+06 0 1.70459e+06 4.46674e+06 0 1.71835e+06 4.45751e+06 0 1.73211e+06 4.44794e+06 0 1.74583e+06 4.43804e+06 0 1.75951e+06 4.42783e+06 0 1.77313e+06 4.41733e+06 0 1.78668e+06 4.40654e+06 0 1.80016e+06 4.39548e+06 0 1.81355e+06 4.38416e+06 0 1.82685e+06 4.3726e+06 0 1.84005e+06 4.36082e+06 0 1.85315e+06 4.34881e+06 0 1.86615e+06 4.33661e+06 0 1.87905e+06 4.32421e+06 0 1.89184e+06 4.31163e+06 0 1.90453e+06 4.29888e+06 0 1.91711e+06 4.28597e+06 0 1.92958e+06 4.2729e+06 0 1.94196e+06 4.2597e+06 0 1.95423e+06 4.24636e+06 0 1.9664e+06 4.23289e+06 0 1.97848e+06 4.2193e+06 0 1.99046e+06 4.20561e+06 0 2.00235e+06 4.1918e+06 0 2.01415e+06 4.1779e+06 0 2.02586e+06 4.1639e+06 0 2.0375e+06 4.14981e+06 0 2.04905e+06 4.13564e+06 0 2.06053e+06 4.12138e+06 0 2.07194e+06 4.10705e+06 0 2.08328e+06 4.09264e+06 0 2.09456e+06 4.07816e+06 0 2.10578e+06 4.06362e+06 0 2.11694e+06 4.04901e+06 0 2.12804e+06 4.03434e+06 0 2.1391e+06 4.0196e+06 0 2.15011e+06 4.0048e+06 0 2.16108e+06 3.98995e+06 0 2.17201e+06 3.97504e+06 0 2.1829e+06 3.96007e+06 0 2.19376e+06 3.94504e+06 0 2.20459e+06 3.92995e+06 0 2.2154e+06 3.91481e+06 0 2.22619e+06 3.89961e+06 0 2.23695e+06 3.88435e+06 0 2.2477e+06 3.86903e+06 0 2.25844e+06 3.85365e+06 0 2.26916e+06 3.83821e+06 0 2.27988e+06 3.8227e+06 0 2.29059e+06 3.80713e+06 0 2.30129e+06 3.79148e+06 0 2.312e+06 3.77577e+06 0 2.3227e+06 3.75998e+06 0 2.33341e+06 3.74411e+06 0 2.34412e+06 3.72816e+06 0 2.35483e+06 3.71213e+06 0 2.36555e+06 3.69601e+06 0 2.37627e+06 3.6798e+06 0 2.38699e+06 3.66349e+06 0 2.39773e+06 3.64708e+06 0 2.40846e+06 3.63057e+06 0 2.4192e+06 3.61395e+06 0 2.42995e+06 3.59721e+06 0 2.44069e+06 3.58036e+06 0 2.45144e+06 3.56338e+06 0 2.46217e+06 3.54628e+06 0 2.47291e+06 3.52903e+06 0 2.48363e+06 3.51166e+06 0 2.49434e+06 3.49413e+06 0 2.50503e+06 3.47646e+06 0 2.51569e+06 3.45864e+06 0 2.52633e+06 3.44066e+06 0 2.53693e+06 3.42251e+06 0 2.54749e+06 3.4042e+06 0 2.558e+06 3.38572e+06 0 2.56845e+06 3.36707e+06 0 2.57884e+06 3.34824e+06 0 2.58916e+06 3.32923e+06 0 2.59939e+06 3.31004e+06 0 2.60953e+06 3.29067e+06 0 2.61957e+06 3.27112e+06 0 2.62951e+06 3.25138e+06 0 2.63932e+06 3.23146e+06 0 2.649e+06 3.21136e+06 0 2.65853e+06 3.19108e+06 0 2.66792e+06 3.17062e+06 0 2.67715e+06 3.14999e+06 0 2.6862e+06 3.12919e+06 0 2.69508e+06 3.10823e+06 0 2.70376e+06 3.08711e+06 0 2.71224e+06 3.06583e+06 0 2.72051e+06 3.0444e+06 0 2.72857e+06 3.02284e+06 0 2.73639e+06 3.00114e+06 0 2.74398e+06 2.97932e+06 0 2.75133e+06 2.95739e+06 0 2.75843e+06 2.93535e+06 0 2.76528e+06 2.91321e+06 0 2.77186e+06 2.89099e+06 0 2.77818e+06 2.86869e+06 0 2.78423e+06 2.84632e+06 0 2.79001e+06 2.8239e+06 0 2.7955e+06 2.80144e+06 0 2.80072e+06 2.77894e+06 0 2.80565e+06 2.75642e+06 0 2.8103e+06 2.73388e+06 0 2.81466e+06 2.71135e+06 0 2.81874e+06 2.68882e+06 0 2.82253e+06 2.66632e+06 0 2.82604e+06 2.64385e+06 0 2.82926e+06 2.62142e+06 0 2.8322e+06 2.59904e+06 0 2.83486e+06 2.57672e+06 0 2.83724e+06 2.55447e+06 0 2.83935e+06 2.5323e+06 0 2.8412e+06 2.51022e+06 0 2.84277e+06 2.48825e+06 0 1.54942e+06 4.52187e+06 0 1.5616e+06 4.51572e+06 0 1.57403e+06 4.50927e+06 0 1.58669e+06 4.50251e+06 0 1.59956e+06 4.49542e+06 0 1.6126e+06 4.48798e+06 0 1.6258e+06 4.4802e+06 0 1.63913e+06 4.47206e+06 0 1.65255e+06 4.46356e+06 0 1.66604e+06 4.4547e+06 0 1.67959e+06 4.4455e+06 0 1.69316e+06 4.43594e+06 0 1.70674e+06 4.42605e+06 0 1.7203e+06 4.41584e+06 0 1.73384e+06 4.40531e+06 0 1.74734e+06 4.39448e+06 0 1.76078e+06 4.38335e+06 0 1.77415e+06 4.37195e+06 0 1.78745e+06 4.36029e+06 0 1.80067e+06 4.34837e+06 0 1.81381e+06 4.33622e+06 0 1.82685e+06 4.32383e+06 0 1.83979e+06 4.31124e+06 0 1.85264e+06 4.29844e+06 0 1.86538e+06 4.28544e+06 0 1.87802e+06 4.27227e+06 0 1.89056e+06 4.25892e+06 0 1.903e+06 4.24541e+06 0 1.91533e+06 4.23175e+06 0 1.92757e+06 4.21794e+06 0 1.9397e+06 4.20399e+06 0 1.95174e+06 4.18991e+06 0 1.96368e+06 4.17571e+06 0 1.97553e+06 4.16139e+06 0 1.98729e+06 4.14696e+06 0 1.99896e+06 4.13242e+06 0 2.01055e+06 4.11778e+06 0 2.02206e+06 4.10304e+06 0 2.03349e+06 4.08822e+06 0 2.04484e+06 4.0733e+06 0 2.05612e+06 4.0583e+06 0 2.06734e+06 4.04321e+06 0 2.07849e+06 4.02805e+06 0 2.08958e+06 4.01281e+06 0 2.10061e+06 3.99749e+06 0 2.11158e+06 3.9821e+06 0 2.1225e+06 3.96663e+06 0 2.13338e+06 3.95109e+06 0 2.14421e+06 3.93549e+06 0 2.15499e+06 3.91981e+06 0 2.16574e+06 3.90406e+06 0 2.17645e+06 3.88823e+06 0 2.18713e+06 3.87234e+06 0 2.19777e+06 3.85638e+06 0 2.20839e+06 3.84034e+06 0 2.21898e+06 3.82422e+06 0 2.22955e+06 3.80803e+06 0 2.24009e+06 3.79177e+06 0 2.25061e+06 3.77542e+06 0 2.26111e+06 3.75898e+06 0 2.2716e+06 3.74247e+06 0 2.28206e+06 3.72586e+06 0 2.29251e+06 3.70917e+06 0 2.30295e+06 3.69238e+06 0 2.31336e+06 3.67549e+06 0 2.32376e+06 3.65851e+06 0 2.33415e+06 3.64141e+06 0 2.34451e+06 3.62422e+06 0 2.35486e+06 3.6069e+06 0 2.36519e+06 3.58948e+06 0 2.37549e+06 3.57193e+06 0 2.38577e+06 3.55426e+06 0 2.39602e+06 3.53647e+06 0 2.40624e+06 3.51854e+06 0 2.41642e+06 3.50047e+06 0 2.42657e+06 3.48227e+06 0 2.43667e+06 3.46392e+06 0 2.44672e+06 3.44543e+06 0 2.45672e+06 3.42679e+06 0 2.46666e+06 3.40799e+06 0 2.47653e+06 3.38904e+06 0 2.48632e+06 3.36993e+06 0 2.49604e+06 3.35066e+06 0 2.50567e+06 3.33123e+06 0 2.5152e+06 3.31164e+06 0 2.52462e+06 3.29188e+06 0 2.53394e+06 3.27196e+06 0 2.54313e+06 3.25188e+06 0 2.55219e+06 3.23164e+06 0 2.56111e+06 3.21123e+06 0 2.56988e+06 3.19067e+06 0 2.57849e+06 3.16995e+06 0 2.58694e+06 3.14908e+06 0 2.59521e+06 3.12806e+06 0 2.60329e+06 3.1069e+06 0 2.61119e+06 3.0856e+06 0 2.61888e+06 3.06418e+06 0 2.62636e+06 3.04262e+06 0 2.63362e+06 3.02095e+06 0 2.64066e+06 2.99916e+06 0 2.64747e+06 2.97728e+06 0 2.65404e+06 2.9553e+06 0 2.66036e+06 2.93323e+06 0 2.66643e+06 2.91109e+06 0 2.67225e+06 2.88888e+06 0 2.67782e+06 2.86662e+06 0 2.68311e+06 2.8443e+06 0 2.68815e+06 2.82195e+06 0 2.69291e+06 2.79957e+06 0 2.6974e+06 2.77718e+06 0 2.70162e+06 2.75478e+06 0 2.70556e+06 2.73238e+06 0 2.70923e+06 2.71e+06 0 2.71263e+06 2.68764e+06 0 2.71575e+06 2.66531e+06 0 2.7186e+06 2.64303e+06 0 2.72118e+06 2.62081e+06 0 2.72348e+06 2.59865e+06 0 2.72552e+06 2.57656e+06 0 2.7273e+06 2.55455e+06 0 2.72882e+06 2.53264e+06 0 2.73008e+06 2.51083e+06 0 2.73108e+06 2.48912e+06 0 2.73184e+06 2.46753e+06 0 2.73235e+06 2.44607e+06 0 2.73262e+06 2.42475e+06 0 2.73266e+06 2.40356e+06 0 2.73246e+06 2.38251e+06 0 1.53871e+06 4.50029e+06 0 1.55088e+06 4.49336e+06 0 1.56328e+06 4.48614e