<?xml version="1.0"?> 
<VTKFile type="StructuredGrid" version="0.1"> 
<StructuredGrid WholeExtent="0 127 0 127 0 0"> 
<Piece Extent="0 127 0 127 0 0"> 
<PointData>
<DataArray type="Float32" Name="E" format="ascii" NumberOfComponents="3"> 
899897 -374215 0 1.24007e+06 -322069 0 1.33904e+06 -314640 0 1.41834e+06 -307297 0 1.4789e+06 -289411 0 1.53195e+06 -272563 0 1.57738e+06 -252769 0 1.61767e+06 -232815 0 1.65301e+06 -211948 0 1.68414e+06 -190939 0 1.71123e+06 -169762 0 1.73458e+06 -148713 0 1.75434e+06 -127903 0 1.77067e+06 -107500 0 1.78373e+06 -87621.7 0 1.79365e+06 -68385.8 0 1.80061e+06 -49885.8 0 1.80474e+06 -32202.5 0 1.80624e+06 -15398.7 0 1.80525e+06 478.297 0 1.80196e+06 15396.8 0 1.79654e+06 29339.1 0 1.78916e+06 42300.5 0 1.77998e+06 54287.6 0 1.76917e+06 65316.7 0 1.75688e+06 75412 0 1.74326e+06 84604.4 0 1.72844e+06 92929.7 0 1.71257e+06 100428 0 1.69575e+06 107140 0 1.67811e+06 113111 0 1.65975e+06 118385 0 1.64078e+06 123006 0 1.62127e+06 127018 0 1.60131e+06 130463 0 1.58099e+06 133384 0 1.56036e+06 135819 0 1.5395e+06 137806 0 1.51846e+06 139382 0 1.49729e+06 140579 0 1.47605e+06 141431 0 1.45477e+06 141967 0 1.4335e+06 142214 0 1.41227e+06 142199 0 1.39111e+06 141945 0 1.37005e+06 141475 0 1.34912e+06 140809 0 1.32835e+06 139967 0 1.30775e+06 138966 0 1.28734e+06 137822 0 1.26714e+06 136550 0 1.24716e+06 135163 0 1.22742e+06 133674 0 1.20793e+06 132094 0 1.18869e+06 130435 0 1.16973e+06 128704 0 1.15104e+06 126912 0 1.13263e+06 125066 0 1.11451e+06 123173 0 1.09668e+06 121239 0 1.07915e+06 119272 0 1.06191e+06 117276 0 1.04499e+06 115256 0 1.02836e+06 113218 0 1.01204e+06 111163 0 996033 109098 0 980330 107024 0 964935 104946 0 949848 102864 0 935069 100783 0 920597 98704.2 0 906431 96629.3 0 892569 94560.3 0 879010 92498.7 0 865753 90445.9 0 852796 88403.1 0 840138 86371.3 0 827775 84351.4 0 815706 82344.4 0 803929 80350.7 0 792442 78371.1 0 781242 76406 0 770328 74455.8 0 759696 72520.8 0 749344 70601.2 0 739270 68697.3 0 729471 66809.1 0 719946 64936.7 0 710691 63080.1 0 701704 61239.2 0 692984 59414.1 0 684526 57604.5 0 676330 55810.3 0 668393 54031.3 0 660712 52267.2 0 653286 50517.9 0 646112 48783.1 0 639188 47062.4 0 632512 45355.5 0 626082 43662.2 0 619896 41982 0 613952 40314.5 0 608249 38659.5 0 602784 37016.4 0 597555 35384.9 0 592562 33764.6 0 587802 32155 0 583274 30555.7 0 578976 28966.2 0 574907 27386.1 0 571066 25814.9 0 567451 24252.1 0 564062 22697.4 0 560896 21150.1 0 557954 19609.9 0 555233 18076.2 0 552734 16548.5 0 550454 15026.4 0 548394 13509.3 0 546553 11996.8 0 544930 10488.3 0 543524 8983.38 0 542336 7481.49 0 541364 5982.14 0 540608 4484.83 0 540069 2989.04 0 539745 1494.26 0 539637 0 0 934083 -388430 0 1.24079e+06 -329638 0 1.34205e+06 -319821 0 1.42048e+06 -310448 0 1.48119e+06 -292279 0 1.53404e+06 -274789 0 1.57944e+06 -254721 0 1.61963e+06 -234439 0 1.6549e+06 -213332 0 1.68593e+06 -192088 0 1.71294e+06 -170704 0 1.7362e+06 -149459 0 1.75586e+06 -128466 0 1.7721e+06 -107891 0 1.78505e+06 -87851 0 1.79487e+06 -68463.8 0 1.80172e+06 -49822.8 0 1.80576e+06 -32008.7 0 1.80715e+06 -15084.3 0 1.80606e+06 903.347 0 1.80268e+06 15922.8 0 1.79716e+06 29956.7 0 1.78969e+06 43000.7 0 1.78043e+06 55062 0 1.76954e+06 66157.2 0 1.75718e+06 76311.1 0 1.74348e+06 85555.1 0 1.7286e+06 93925.6 0 1.71267e+06 101463 0 1.6958e+06 108209 0 1.67811e+06 114209 0 1.6597e+06 119507 0 1.64068e+06 124147 0 1.62114e+06 128175 0 1.60115e+06 131633 0 1.5808e+06 134563 0 1.56014e+06 137004 0 1.53926e+06 138996 0 1.5182e+06 140573 0 1.49701e+06 141770 0 1.47575e+06 142620 0 1.45446e+06 143151 0 1.43318e+06 143393 0 1.41193e+06 143370 0 1.39077e+06 143108 0 1.36971e+06 142628 0 1.34878e+06 141952 0 1.328e+06 141099 0 1.30739e+06 140086 0 1.28698e+06 138929 0 1.26678e+06 137643 0 1.24681e+06 136242 0 1.22707e+06 134739 0 1.20758e+06 133144 0 1.18835e+06 131469 0 1.16938e+06 129723 0 1.1507e+06 127915 0 1.13229e+06 126053 0 1.11418e+06 124143 0 1.09635e+06 122194 0 1.07883e+06 120210 0 1.0616e+06 118197 0 1.04468e+06 116161 0 1.02806e+06 114105 0 1.01174e+06 112034 0 995740 109952 0 980043 107862 0 964654 105766 0 949573 103668 0 934800 101571 0 920334 99475 0 906173 97383.7 0 892317 95298.3 0 878765 93220.4 0 865514 91151.4 0 852563 89092.5 0 839909 87044.7 0 827552 85009.1 0 815489 82986.3 0 803718 80977 0 792236 78981.9 0 781041 77001.4 0 770132 75036 0 759505 73085.9 0 749158 71151.3 0 739089 69232.6 0 729295 67329.7 0 719774 65442.7 0 710524 63571.6 0 701542 61716.5 0 692825 59877.1 0 684372 58053.4 0 676180 56245.2 0 668246 54452.4 0 660569 52674.6 0 653147 50911.7 0 645976 49163.4 0 639056 47429.3 0 632383 45709.1 0 625957 44002.6 0 619774 42309.3 0 613833 40628.9 0 608132 38960.9 0 602670 37305.1 0 597444 35660.9 0 592453 34027.9 0 587695 32405.8 0 583169 30794 0 578874 29192.2 0 574807 27599.7 0 570968 26016.3 0 567355 24441.4 0 563967 22874.5 0 560803 21315.2 0 557862 19762.9 0 555142 18217.3 0 552644 16677.7 0 550366 15143.7 0 548307 13614.8 0 546467 12090.4 0 544844 10570.2 0 543439 9053.5 0 542251 7539.89 0 541280 6028.84 0 540525 4519.84 0 539986 3012.37 0 539662 1505.93 0 539554 0 0 964189 -400950 0 1.24237e+06 -337053 0 1.34502e+06 -324850 0 1.4227e+06 -313620 0 1.4835e+06 -295109 0 1.53616e+06 -277011 0 1.58151e+06 -256658 0 1.6216e+06 -236054 0 1.65679e+06 -214707 0 1.68774e+06 -193229 0 1.71466e+06 -171637 0 1.73782e+06 -150196 0 1.75739e+06 -129020 0 1.77353e+06 -108273 0 1.78638e+06 -88071.5 0 1.7961e+06 -68533.1 0 1.80284e+06 -49751.3 0 1.80677e+06 -31806.8 0 1.80806e+06 -14762 0 1.80688e+06 1335.98 0 1.8034e+06 16456 0 1.79779e+06 30581.1 0 1.79023e+06 43707.4 0 1.78088e+06 55842.4 0 1.76991e+06 67003.3 0 1.75747e+06 77215.4 0 1.74371e+06 86510.6 0 1.72876e+06 94925.9 0 1.71277e+06 102502 0 1.69584e+06 109281 0 1.6781e+06 115309 0 1.65965e+06 120631 0 1.64059e+06 125291 0 1.62101e+06 129335 0 1.60099e+06 132805 0 1.5806e+06 135744 0 1.55992e+06 138192 0 1.53901e+06 140187 0 1.51793e+06 141766 0 1.49673e+06 142962 0 1.47545e+06 143809 0 1.45415e+06 144336 0 1.43285e+06 144572 0 1.4116e+06 144542 0 1.39043e+06 144271 0 1.36936e+06 143782 0 1.34843e+06 143096 0 1.32764e+06 142231 0 1.30704e+06 141205 0 1.28663e+06 140035 0 1.26643e+06 138736 0 1.24645e+06 137321 0 1.22671e+06 135803 0 1.20723e+06 134194 0 1.188e+06 132504 0 1.16904e+06 130742 0 1.15036e+06 128918 0 1.13195e+06 127039 0 1.11384e+06 125114 0 1.09602e+06 123148 0 1.0785e+06 121147 0 1.06128e+06 119118 0 1.04436e+06 117065 0 1.02775e+06 114992 0 1.01144e+06 112905 0 995445 110806 0 979754 108699 0 964372 106586 0 949297 104472 0 934530 102358 0 920069 100245 0 905915 98137.7 0 892065 96035.9 0 878518 93941.7 0 865273 91856.6 0 852328 89781.6 0 839680 87717.9 0 827329 85666.3 0 815271 83627.8 0 803505 81603 0 792029 79592.4 0 780840 77596.6 0 769935 75615.9 0 759313 73650.7 0 748971 71701.2 0 738907 69767.6 0 729118 67850 0 719602 65948.4 0 710356 64062.9 0 701378 62193.4 0 692666 60339.9 0 684217 58502.1 0 676029 56680 0 668099 54873.3 0 660426 53081.8 0 653007 51305.3 0 645840 49543.4 0 638923 47796 0 632254 46062.6 0 625830 44342.9 0 619650 42636.5 0 613712 40943.1 0 608014 39262.3 0 602555 37593.6 0 597331 35936.7 0 592343 34291.2 0 587588 32656.5 0 583064 31032.3 0 578770 29418 0 574706 27813.3 0 570868 26217.6 0 567257 24630.5 0 563871 23051.5 0 560709 21480.2 0 557769 19915.9 0 555051 18358.3 0 552554 16806.8 0 550277 15260.9 0 548219 13720.1 0 546379 12184 0 544758 10652 0 543354 9123.59 0 542166 7598.27 0 541195 6075.52 0 540441 4554.83 0 539902 3035.7 0 539578 1517.59 0 539471 0 0 990871 -412045 0 1.24465e+06 -344286 0 1.34799e+06 -329740 0 1.425e+06 -316804 0 1.48582e+06 -297904 0 1.5383e+06 -279227 0 1.58359e+06 -258581 0 1.62358e+06 -237660 0 1.6587e+06 -216072 0 1.68955e+06 -194360 0 1.71639e+06 -172562 0 1.73946e+06 -150923 0 1.75893e+06 -129565 0 1.77496e+06 -108645 0 1.78771e+06 -88283.1 0 1.79733e+06 -68593.7 0 1.80397e+06 -49671.4 0 1.8078e+06 -31596.6 0 1.80898e+06 -14431.8 0 1.8077e+06 1776.23 0 1.80412e+06 16996.5 0 1.79842e+06 31212.4 0 1.79077e+06 44420.6 0 1.78134e+06 56628.8 0 1.77029e+06 67855 0 1.75777e+06 78124.9 0 1.74394e+06 87470.9 0 1.72893e+06 95930.6 0 1.71287e+06 103545 0 1.69589e+06 110357 0 1.6781e+06 116413 0 1.6596e+06 121758 0 1.6405e+06 126438 0 1.62088e+06 130497 0 1.60082e+06 133979 0 1.58041e+06 136927 0 1.5597e+06 139381 0 1.53877e+06 141380 0 1.51767e+06 142960 0 1.49645e+06 144155 0 1.47516e+06 144999 0 1.45384e+06 145522 0 1.43253e+06 145752 0 1.41127e+06 145715 0 1.39009e+06 145435 0 1.36902e+06 144937 0 1.34808e+06 144240 0 1.32729e+06 143363 0 1.30668e+06 142325 0 1.28627e+06 141142 0 1.26607e+06 139829 0 1.2461e+06 138400 0 1.22636e+06 136868 0 1.20687e+06 135243 0 1.18765e+06 133538 0 1.16869e+06 131760 0 1.15001e+06 129920 0 1.13162e+06 128026 0 1.11351e+06 126084 0 1.0957e+06 124101 0 1.07818e+06 122084 0 1.06096e+06 120038 0 1.04405e+06 117969 0 1.02744e+06 115879 0 1.01114e+06 113775 0 995150 111659 0 979465 109535 0 964089 107406 0 949020 105275 0 934259 103144 0 919804 101016 0 905656 98891.3 0 891812 96773.2 0 878271 94662.7 0 865032 92561.4 0 852092 90470.3 0 839450 88390.7 0 827105 86323.3 0 815053 84269.1 0 803292 82228.6 0 791821 80202.6 0 780637 78191.4 0 769738 76195.5 0 759121 74215.2 0 748784 72250.8 0 738724 70302.3 0 728940 68370 0 719428 66453.9 0 710187 64553.9 0 701214 62670.1 0 692506 60802.4 0 684061 58950.5 0 675877 57114.5 0 667951 55294 0 660282 53488.8 0 652866 51698.7 0 645703 49923.3 0 638789 48162.5 0 632123 46415.8 0 625703 44682.9 0 619526 42963.5 0 613591 41257.1 0 607896 39563.5 0 602439 37882 0 597218 36212.4 0 592232 34554.3 0 587479 32907.1 0 582958 31270.4 0 578667 29643.8 0 574604 28026.7 0 570769 26418.8 0 567159 24819.6 0 563775 23228.5 0 560614 21645 0 557675 20068.8 0 554959 18499.2 0 552463 16935.8 0 550187 15378.1 0 548130 13825.5 0 546292 12277.6 0 544671 10733.8 0 543267 9193.65 0 542081 7656.61 0 541110 6122.17 0 540356 4589.81 0 539817 3059.01 0 539494 1529.24 0 539386 0 0 1.01467e+06 -421943 0 1.24748e+06 -351320 0 1.35096e+06 -334504 0 1.42737e+06 -319993 0 1.48816e+06 -300666 0 1.54047e+06 -281435 0 1.58569e+06 -260489 0 1.62558e+06 -239257 0 1.66062e+06 -217426 0 1.69138e+06 -195482 0 1.71813e+06 -173476 0 1.7411e+06 -151642 0 1.76047e+06 -130101 0 1.77641e+06 -109009 0 1.78905e+06 -88485.8 0 1.79857e+06 -68645.6 0 1.8051e+06 -49582.9 0 1.80883e+06 -31378.1 0 1.80991e+06 -14093.6 0 1.80852e+06 2224.1 0 1.80485e+06 17544.2 0 1.79905e+06 31850.6 0 1.79131e+06 45140.2 0 1.78179e+06 57421.3 0 1.77066e+06 68712.3 0 1.75807e+06 79039.6 0 1.74417e+06 88436.1 0 1.72909e+06 96939.7 0 1.71297e+06 104592 0 1.69594e+06 111437 0 1.67809e+06 117521 0 1.65955e+06 122889 0 1.64041e+06 127587 0 1.62075e+06 131662 0 1.60066e+06 135156 0 1.58021e+06 138112 0 1.55948e+06 140572 0 1.53852e+06 142574 0 1.5174e+06 144155 0 1.49616e+06 145349 0 1.47486e+06 146191 0 1.45352e+06 146709 0 1.43221e+06 146932 0 1.41094e+06 146888 0 1.38975e+06 146600 0 1.36867e+06 146091 0 1.34773e+06 145384 0 1.32694e+06 144495 0 1.30633e+06 143445 0 1.28591e+06 142249 0 1.26571e+06 140923 0 1.24574e+06 139480 0 1.226e+06 137932 0 1.20652e+06 136293 0 1.1873e+06 134572 0 1.16835e+06 132779 0 1.14967e+06 130923 0 1.13128e+06 129012 0 1.11318e+06 127054 0 1.09537e+06 125055 0 1.07786e+06 123021 0 1.06065e+06 120959 0 1.04374e+06 118872 0 1.02714e+06 116766 0 1.01084e+06 114645 0 994855 112512 0 979175 110372 0 963805 108226 0 948742 106078 0 933987 103930 0 919538 101785 0 905396 99644.6 0 891558 97510.1 0 878023 95383.4 0 864789 93265.8 0 851856 91158.7 0 839220 89063.1 0 826879 86979.9 0 814833 84910 0 803078 82853.9 0 791612 80812.4 0 780434 78785.9 0 769540 76774.8 0 758928 74779.5 0 748596 72800.1 0 738541 70836.8 0 728761 68889.8 0 719254 66959.1 0 710017 65044.7 0 701048 63146.6 0 692345 61264.7 0 683904 59398.8 0 675724 57548.8 0 667802 55714.4 0 660137 53895.5 0 652725 52091.8 0 645565 50303 0 638655 48528.8 0 631992 46768.9 0 625575 45022.8 0 619401 43290.3 0 613469 41571 0 607777 39864.5 0 602323 38170.3 0 597105 36488 0 592121 34817.2 0 587370 33157.5 0 582851 31508.4 0 578562 29869.4 0 574501 28240.1 0 570668 26620 0 567060 25008.5 0 563677 23405.3 0 560518 21809.8 0 557581 20221.6 0 554866 18640.1 0 552372 17064.8 0 550097 15495.2 0 548041 13930.8 0 546203 12371.1 0 544583 10815.5 0 543181 9263.67 0 541994 7714.92 0 541024 6168.8 0 540270 4624.77 0 539732 3082.31 0 539409 1540.89 0 539301 0 0 1.03604e+06 -430829 0 1.25076e+06 -358144 0 1.35396e+06 -339152 0 1.42979e+06 -323179 0 1.49052e+06 -303397 0 1.54265e+06 -283635 0 1.5878e+06 -262384 0 1.62759e+06 -240844 0 1.66254e+06 -218770 0 1.69322e+06 -196595 0 1.71987e+06 -174382 0 1.74275e+06 -152351 0 1.76203e+06 -130628 0 1.77786e+06 -109364 0 1.7904e+06 -88679.6 0 1.79981e+06 -68688.7 0 1.80624e+06 -49485.9 0 1.80986e+06 -31151.3 0 1.81084e+06 -13747.4 0 1.80935e+06 2679.63 0 1.80558e+06 18099.3 0 1.79969e+06 32495.7 0 1.79186e+06 45866.2 0 1.78225e+06 58219.8 0 1.77104e+06 69575.3 0 1.75837e+06 79959.5 0 1.7444e+06 89406 0 1.72925e+06 97953.2 0 1.71308e+06 105643 0 1.69598e+06 112521 0 1.67809e+06 118632 0 1.6595e+06 124022 0 1.64032e+06 128739 0 1.62062e+06 132829 0 1.6005e+06 136334 0 1.58002e+06 139299 0 1.55926e+06 141764 0 1.53828e+06 143769 0 1.51714e+06 145351 0 1.49588e+06 146545 0 1.47456e+06 147383 0 1.45321e+06 147896 0 1.43188e+06 148113 0 1.41061e+06 148061 0 1.38941e+06 147765 0 1.36832e+06 147246 0 1.34737e+06 146528 0 1.32658e+06 145628 0 1.30597e+06 144565 0 1.28556e+06 143356 0 1.26536e+06 142016 0 1.24538e+06 140559 0 1.22565e+06 138997 0 1.20617e+06 137342 0 1.18695e+06 135606 0 1.168e+06 133797 0 1.14933e+06 131925 0 1.13094e+06 129998 0 1.11284e+06 128023 0 1.09504e+06 126008 0 1.07753e+06 123958 0 1.06033e+06 121878 0 1.04342e+06 119775 0 1.02683e+06 117652 0 1.01054e+06 115514 0 994558 113365 0 978884 111208 0 963520 109045 0 948463 106881 0 933714 104716 0 919271 102555 0 905135 100397 0 891303 98246.6 0 877774 96103.6 0 864546 93969.9 0 851618 91846.8 0 838988 89735.2 0 826654 87636.2 0 814613 85550.5 0 802863 83478.9 0 791403 81422 0 780229 79380.1 0 769340 77353.8 0 758734 75343.4 0 748407 73349 0 738357 71371 0 728582 69409.3 0 719080 67464 0 709847 65535.2 0 700882 63622.8 0 692183 61726.7 0 683746 59846.8 0 675570 57982.8 0 667653 56134.7 0 659991 54302.1 0 652583 52484.8 0 645427 50682.5 0 638520 48894.9 0 631860 47121.7 0 625446 45362.5 0 619276 43617 0 613347 41884.7 0 607657 40165.3 0 602206 38458.4 0 596990 36763.4 0 592009 35080.1 0 587261 33407.8 0 582744 31746.3 0 578457 30094.9 0 574398 28453.3 0 570567 26821 0 566961 25197.4 0 563580 23582.1 0 560422 21974.6 0 557487 20374.3 0 554773 18780.9 0 552279 17193.7 0 550006 15612.2 0 547951 14036 0 546114 12464.5 0 544495 10897.2 0 543093 9333.65 0 541907 7773.21 0 540938 6215.4 0 540184 4659.71 0 539646 3105.59 0 539323 1552.53 0 539216 0 0 1.05535e+06 -438860 0 1.25441e+06 -364754 0 1.35699e+06 -343691 0 1.43227e+06 -326358 0 1.49289e+06 -306099 0 1.54487e+06 -285825 0 1.58993e+06 -264265 0 1.62962e+06 -242422 0 1.66449e+06 -220104 0 1.69507e+06 -197699 0 1.72163e+06 -175278 0 1.74441e+06 -153052 0 1.76359e+06 -131146 0 1.77932e+06 -109710 0 1.79176e+06 -88864.4 0 1.80106e+06 -68723 0 1.80738e+06 -49380.3 0 1.8109e+06 -30916.2 0 1.81177e+06 -13393.1 0 1.81018e+06 3142.84 0 1.80631e+06 18661.6 0 1.80032e+06 33147.6 0 1.7924e+06 46598.8 0 1.78271e+06 59024.4 0 1.77142e+06 70443.9 0 1.75867e+06 80884.7 0 1.74463e+06 90380.8 0 1.72942e+06 98971.1 0 1.71318e+06 106698 0 1.69603e+06 113608 0 1.67809e+06 119746 0 1.65945e+06 125159 0 1.64022e+06 129894 0 1.62049e+06 133998 0 1.60033e+06 137515 0 1.57983e+06 140488 0 1.55904e+06 142959 0 1.53803e+06 144967 0 1.51687e+06 146549 0 1.49559e+06 147741 0 1.47426e+06 148576 0 1.4529e+06 149084 0 1.43156e+06 149295 0 1.41027e+06 149236 0 1.38907e+06 148930 0 1.36798e+06 148402 0 1.34702e+06 147672 0 1.32623e+06 146761 0 1.30561e+06 145685 0 1.2852e+06 144463 0 1.265e+06 143109 0 1.24502e+06 141638 0 1.22529e+06 140061 0 1.20581e+06 138391 0 1.1866e+06 136639 0 1.16765e+06 134815 0 1.14898e+06 132927 0 1.1306e+06 130984 0 1.11251e+06 128993 0 1.09471e+06 126961 0 1.07721e+06 124894 0 1.06001e+06 122798 0 1.04311e+06 120678 0 1.02652e+06 118538 0 1.01024e+06 116383 0 994260 114217 0 978593 112043 0 963234 109864 0 948183 107683 0 933440 105502 0 919004 103324 0 904873 101150 0 891047 98982.8 0 877524 96823.6 0 864302 94673.7 0 851380 92534.5 0 838755 90407 0 826427 88292.1 0 814391 86190.8 0 802647 84103.6 0 791192 82031.2 0 780024 79974 0 769140 77932.5 0 758539 75907 0 748217 73897.8 0 738172 71904.9 0 728402 69928.5 0 718904 67968.7 0 709676 66025.5 0 700716 64098.8 0 692020 62188.5 0 683588 60294.5 0 675416 58416.6 0 667502 56554.7 0 659844 54708.4 0 652440 52877.5 0 645287 51061.8 0 638384 49260.9 0 631728 47474.4 0 625317 45702.1 0 619149 43943.5 0 613223 42198.3 0 607537 40466 0 602088 38746.3 0 596875 37038.7 0 591896 35342.7 0 587151 33658 0 582636 31984 0 578351 30320.3 0 574294 28666.4 0 570465 27021.9 0 566861 25386.1 0 563481 23758.7 0 560325 22139.2 0 557391 20527 0 554679 18921.6 0 552187 17322.5 0 549914 15729.2 0 547860 14141.2 0 546024 12557.9 0 544406 10978.9 0 543005 9403.6 0 541820 7831.46 0 540851 6261.98 0 540097 4694.63 0 539560 3128.87 0 539237 1564.17 0 539129 0 0 1.07291e+06 -446163 0 1.25835e+06 -371146 0 1.36004e+06 -348129 0 1.4348e+06 -329525 0 1.49528e+06 -308774 0 1.5471e+06 -288005 0 1.59207e+06 -266133 0 1.63166e+06 -243990 0 1.66644e+06 -221428 0 1.69693e+06 -198793 0 1.7234e+06 -176165 0 1.74608e+06 -153743 0 1.76516e+06 -131654 0 1.78079e+06 -110047 0 1.79312e+06 -89040.3 0 1.80232e+06 -68748.5 0 1.80853e+06 -49266 0 1.81194e+06 -30672.8 0 1.81271e+06 -13030.9 0 1.81102e+06 3613.74 0 1.80705e+06 19231.2 0 1.80097e+06 33806.5 0 1.79295e+06 47337.9 0 1.78318e+06 59835.1 0 1.7718e+06 71318.2 0 1.75898e+06 81815.1 0 1.74486e+06 91360.4 0 1.72959e+06 99993.5 0 1.71329e+06 107758 0 1.69608e+06 114699 0 1.67809e+06 120863 0 1.6594e+06 126298 0 1.64013e+06 131052 0 1.62036e+06 135170 0 1.60017e+06 138698 0 1.57963e+06 141679 0 1.55882e+06 144155 0 1.53779e+06 146165 0 1.5166e+06 147748 0 1.49531e+06 148939 0 1.47396e+06 149770 0 1.45259e+06 150273 0 1.43123e+06 150478 0 1.40994e+06 150410 0 1.38873e+06 150096 0 1.36763e+06 149558 0 1.34667e+06 148817 0 1.32587e+06 147894 0 1.30526e+06 146806 0 1.28484e+06 145570 0 1.26464e+06 144202 0 1.24467e+06 142716 0 1.22494e+06 141125 0 1.20546e+06 139440 0 1.18624e+06 137673 0 1.1673e+06 135832 0 1.14864e+06 133928 0 1.13026e+06 131969 0 1.11217e+06 129962 0 1.09437e+06 127913 0 1.07688e+06 125830 0 1.05968e+06 123717 0 1.04279e+06 121580 0 1.02621e+06 119424 0 1.00993e+06 117252 0 993961 115069 0 978300 112878 0 962947 110682 0 947902 108485 0 933165 106287 0 918735 104092 0 904610 101902 0 890790 99718.6 0 877273 97543.1 0 864057 95377.1 0 851141 93221.8 0 838522 91078.4 0 826199 88947.8 0 814169 86830.7 0 802431 84727.9 0 790981 82640.1 0 779818 80567.6 0 768940 78510.9 0 758343 76470.4 0 748026 74446.2 0 737986 72438.5 0 728221 70447.5 0 718727 68473.1 0 709504 66515.5 0 700548 64574.5 0 691857 62650 0 683429 60742 0 675261 58850.2 0 667351 56974.5 0 659697 55114.5 0 652296 53270.1 0 645147 51440.9 0 638247 49626.6 0 631594 47826.9 0 625187 46041.5 0 619022 44269.8 0 613099 42511.7 0 607415 40766.6 0 601969 39034.1 0 596759 37313.8 0 591783 35605.3 0 587039 33908.1 0 582527 32221.7 0 578244 30545.6 0 574190 28879.4 0 570362 27222.7 0 566760 25574.8 0 563382 23935.3 0 560227 22303.7 0 557295 20679.5 0 554584 19062.2 0 552093 17451.2 0 549822 15846.1 0 547769 14246.3 0 545934 12651.3 0 544316 11060.5 0 542916 9473.51 0 541731 7889.69 0 540763 6308.54 0 540010 4729.53 0 539472 3152.13 0 539150 1575.8 0 539042 0 0 1.08899e+06 -452845 0 1.26252e+06 -377324 0 1.36314e+06 -352470 0 1.43737e+06 -332676 0 1.4977e+06 -311422 0 1.54935e+06 -290173 0 1.59423e+06 -267987 0 1.63371e+06 -245548 0 1.6684e+06 -222742 0 1.6988e+06 -199878 0 1.72517e+06 -177042 0 1.74776e+06 -154425 0 1.76674e+06 -132153 0 1.78226e+06 -110374 0 1.79449e+06 -89207.1 0 1.80358e+06 -68765.2 0 1.80969e+06 -49143.2 0 1.81299e+06 -30420.9 0 1.81365e+06 -12660.5 0 1.81186e+06 4092.36 0 1.80779e+06 19808.2 0 1.80161e+06 34472.3 0 1.7935e+06 48083.4 0 1.78364e+06 60651.9 0 1.77218e+06 72198.2 0 1.75928e+06 82750.8 0 1.74509e+06 92344.8 0 1.72975e+06 101020 0 1.71339e+06 108821 0 1.69613e+06 115793 0 1.67808e+06 121984 0 1.65935e+06 127441 0 1.64004e+06 132212 0 1.62023e+06 136344 0 1.6e+06 139883 0 1.57944e+06 142871 0 1.5586e+06 145352 0 1.53754e+06 147365 0 1.51634e+06 148948 0 1.49502e+06 150137 0 1.47366e+06 150965 0 1.45227e+06 151463 0 1.43091e+06 151661 0 1.4096e+06 151586 0 1.38838e+06 151262 0 1.36728e+06 150714 0 1.34632e+06 149962 0 1.32552e+06 149027 0 1.3049e+06 147926 0 1.28448e+06 146677 0 1.26428e+06 145296 0 1.24431e+06 143795 0 1.22458e+06 142189 0 1.2051e+06 140489 0 1.18589e+06 138706 0 1.16695e+06 136850 0 1.14829e+06 134930 0 1.12992e+06 132954 0 1.11183e+06 130930 0 1.09404e+06 128865 0 1.07655e+06 126765 0 1.05936e+06 124636 0 1.04248e+06 122482 0 1.0259e+06 120309 0 1.00963e+06 118121 0 993662 115921 0 978006 113713 0 962659 111501 0 947621 109286 0 932890 107072 0 918465 104861 0 904347 102654 0 890533 100454 0 877021 98262.3 0 863811 96080.2 0 850901 93908.9 0 838288 91749.5 0 825970 89603 0 813946 87470.3 0 802213 85352 0 790769 83248.7 0 779611 81160.9 0 768738 79089 0 758147 77033.4 0 747834 74994.3 0 737799 72971.8 0 728039 70966.1 0 718550 68977.3 0 709331 67005.2 0 700380 65049.9 0 691693 63111.3 0 683269 61189.3 0 675105 59283.6 0 667199 57394 0 659549 55520.4 0 652152 53662.4 0 645006 51819.8 0 638110 49992.1 0 631460 48179.2 0 625056 46380.6 0 618895 44596 0 612974 42824.9 0 607293 41067 0 601850 39321.7 0 596642 37588.8 0 591669 35867.7 0 586928 34158 0 582418 32459.2 0 578137 30770.8 0 574084 29092.3 0 570259 27423.4 0 566658 25763.4 0 563282 24111.8 0 560129 22468.2 0 557198 20832 0 554488 19202.8 0 551999 17579.9 0 549728 15963 0 547677 14351.4 0 545843 12744.6 0 544226 11142.1 0 542826 9543.38 0 541642 7947.88 0 540674 6355.07 0 539922 4764.42 0 539384 3175.38 0 539062 1587.42 0 538955 0 0 1.10378e+06 -458997 0 1.26688e+06 -383291 0 1.36627e+06 -356720 0 1.43999e+06 -335807 0 1.50014e+06 -314045 0 1.55162e+06 -292330 0 1.5964e+06 -269828 0 1.63578e+06 -247096 0 1.67038e+06 -224045 0 1.70068e+06 -200953 0 1.72696e+06 -177909 0 1.74945e+06 -155097 0 1.76832e+06 -132643 0 1.78374e+06 -110693 0 1.79586e+06 -89364.8 0 1.80485e+06 -68772.9 0 1.81085e+06 -49011.6 0 1.81404e+06 -30160.7 0 1.8146e+06 -12282.1 0 1.8127e+06 4578.73 0 1.80853e+06 20392.6 0 1.80226e+06 35145.1 0 1.79406e+06 48835.6 0 1.78411e+06 61474.9 0 1.77257e+06 73083.9 0 1.75959e+06 83691.7 0 1.74533e+06 93334.1 0 1.72992e+06 102052 0 1.7135e+06 109889 0 1.69618e+06 116891 0 1.67808e+06 123108 0 1.65931e+06 128586 0 1.63995e+06 133375 0 1.6201e+06 137521 0 1.59984e+06 141070 0 1.57924e+06 144066 0 1.55837e+06 146551 0 1.5373e+06 148567 0 1.51607e+06 150150 0 1.49474e+06 151337 0 1.47335e+06 152161 0 1.45196e+06 152654 0 1.43058e+06 152845 0 1.40927e+06 152762 0 1.38804e+06 152429 0 1.36693e+06 151870 0 1.34596e+06 151107 0 1.32516e+06 150160 0 1.30454e+06 149047 0 1.28412e+06 147785 0 1.26392e+06 146389 0 1.24395e+06 144874 0 1.22422e+06 143253 0 1.20475e+06 141538 0 1.18554e+06 139739 0 1.1666e+06 137867 0 1.14794e+06 135931 0 1.12957e+06 133939 0 1.11149e+06 131899 0 1.09371e+06 129817 0 1.07622e+06 127700 0 1.05904e+06 125554 0 1.04216e+06 123384 0 1.02559e+06 121194 0 1.00932e+06 118989 0 993361 116772 0 977712 114548 0 962371 112318 0 947338 110087 0 932613 107856 0 918195 105629 0 904082 103406 0 890274 101189 0 876769 98981.2 0 863565 96782.9 0 850660 94595.5 0 838053 92420.2 0 825741 90258 0 813722 88109.5 0 801995 85975.7 0 790556 83856.9 0 779404 81753.9 0 768536 79666.8 0 757949 77596.2 0 747642 75542.1 0 737612 73504.9 0 727856 71484.5 0 718372 69481.1 0 709158 67494.7 0 700211 65525.1 0 691528 63572.4 0 683108 61636.3 0 674949 59716.7 0 667047 57813.4 0 659400 55926.1 0 652007 54054.5 0 644865 52198.4 0 637972 50357.5 0 631326 48531.4 0 624924 46719.6 0 618766 44922 0 612849 43138 0 607171 41367.2 0 601730 39609.2 0 596525 37863.6 0 591554 36130 0 586815 34407.8 0 582307 32696.5 0 578029 30995.8 0 573978 29305.1 0 570155 27624 0 566556 25951.8 0 563182 24288.2 0 560030 22632.6 0 557101 20984.4 0 554392 19343.3 0 551904 17708.6 0 549635 16079.8 0 547584 14456.4 0 545751 12837.9 0 544135 11223.6 0 542736 9613.22 0 541553 8006.05 0 540585 6401.58 0 539833 4799.29 0 539296 3198.62 0 538974 1599.04 0 538866 0 0 1.11748e+06 -464693 0 1.27138e+06 -389054 0 1.36945e+06 -360883 0 1.44265e+06 -338917 0 1.50259e+06 -316643 0 1.55392e+06 -294473 0 1.59858e+06 -271655 0 1.63786e+06 -248634 0 1.67236e+06 -225339 0 1.70257e+06 -202019 0 1.72875e+06 -178768 0 1.75114e+06 -155760 0 1.76991e+06 -133124 0 1.78523e+06 -111002 0 1.79725e+06 -89513.4 0 1.80612e+06 -68771.7 0 1.81201e+06 -48871.4 0 1.8151e+06 -29892 0 1.81555e+06 -11895.5 0 1.81355e+06 5072.87 0 1.80928e+06 20984.3 0 1.80291e+06 35824.9 0 1.79462e+06 49594.3 0 1.78458e+06 62303.9 0 1.77295e+06 73975.2 0 1.7599e+06 84638 0 1.74557e+06 94328.3 0 1.73009e+06 103087 0 1.71361e+06 110960 0 1.69623e+06 117993 0 1.67808e+06 124235 0 1.65926e+06 129735 0 1.63986e+06 134541 0 1.61997e+06 138700 0 1.59968e+06 142259 0 1.57905e+06 145262 0 1.55815e+06 147752 0 1.53705e+06 149770 0 1.5158e+06 151353 0 1.49445e+06 152538 0 1.47305e+06 153358 0 1.45164e+06 153845 0 1.43025e+06 154030 0 1.40893e+06 153938 0 1.3877e+06 153596 0 1.36658e+06 153027 0 1.34561e+06 152253 0 1.3248e+06 151293 0 1.30418e+06 150167 0 1.28376e+06 148892 0 1.26355e+06 147482 0 1.24358e+06 145953 0 1.22386e+06 144317 0 1.20439e+06 142586 0 1.18518e+06 140772 0 1.16625e+06 138884 0 1.1476e+06 136932 0 1.12923e+06 134923 0 1.11115e+06 132867 0 1.09337e+06 130769 0 1.07589e+06 128635 0 1.05871e+06 126472 0 1.04184e+06 124285 0 1.02527e+06 122078 0 1.00901e+06 119856 0 993060 117623 0 977416 115382 0 962081 113136 0 947055 110888 0 932336 108640 0 917923 106396 0 903817 104157 0 890015 101924 0 876515 99699.7 0 863317 97485.2 0 850418 95281.8 0 837817 93090.6 0 825511 90912.6 0 813498 88748.5 0 801776 86599 0 790342 84464.9 0 779195 82346.5 0 768332 80244.3 0 757751 78158.6 0 747449 76089.7 0 737424 74037.7 0 727672 72002.7 0 718193 69984.8 0 708983 67983.9 0 700041 66000.1 0 691363 64033.2 0 682947 62083.1 0 674791 60149.6 0 666893 58232.5 0 659250 56331.5 0 651861 54446.4 0 644722 52576.9 0 637833 50722.7 0 631190 48883.3 0 624792 47058.5 0 618637 45247.8 0 612723 43450.9 0 607047 41667.3 0 601609 39896.6 0 596407 38138.3 0 591438 36392.1 0 586702 34657.4 0 582197 32933.8 0 577920 31220.8 0 573872 29517.8 0 570050 27824.4 0 566453 26140.2 0 563080 24464.5 0 559931 22796.9 0 557003 21136.8 0 554296 19483.7 0 551808 17837.1 0 549540 16196.5 0 547491 14561.4 0 545659 12931.1 0 544044 11305.1 0 542645 9683.03 0 541462 8064.18 0 540495 6448.07 0 539744 4834.14 0 539207 3221.85 0 538885 1610.65 0 538777 0 0 1.13023e+06 -469995 0 1.27599e+06 -394617 0 1.37266e+06 -364962 0 1.44534e+06 -342003 0 1.50507e+06 -319216 0 1.55623e+06 -296604 0 1.60078e+06 -273470 0 1.63995e+06 -250161 0 1.67436e+06 -226621 0 1.70447e+06 -203075 0 1.73055e+06 -179616 0 1.75285e+06 -156414 0 1.77152e+06 -133595 0 1.78673e+06 -111302 0 1.79863e+06 -89652.9 0 1.8074e+06 -68761.6 0 1.81318e+06 -48722.4 0 1.81616e+06 -29614.9 0 1.81651e+06 -11500.8 0 1.8144e+06 5574.8 0 1.81003e+06 21583.4 0 1.80356e+06 36511.6 0 1.79518e+06 50359.5 0 1.78505e+06 63139.1 0 1.77334e+06 74872.3 0 1.76021e+06 85589.4 0 1.7458e+06 95327.3 0 1.73026e+06 104128 0 1.71371e+06 112036 0 1.69628e+06 119099 0 1.67808e+06 125366 0 1.65921e+06 130887 0 1.63977e+06 135709 0 1.61984e+06 139882 0 1.59951e+06 143451 0 1.57885e+06 146461 0 1.55793e+06 148955 0 1.5368e+06 150974 0 1.51553e+06 152557 0 1.49417e+06 153740 0 1.47275e+06 154556 0 1.45132e+06 155038 0 1.42993e+06 155215 0 1.40859e+06 155115 0 1.38735e+06 154763 0 1.36623e+06 154184 0 1.34525e+06 153398 0 1.32444e+06 152427 0 1.30381e+06 151288 0 1.28339e+06 149999 0 1.26319e+06 148575 0 1.24322e+06 147031 0 1.2235e+06 145380 0 1.20403e+06 143634 0 1.18483e+06 141805 0 1.1659e+06 139901 0 1.14725e+06 137932 0 1.12888e+06 135908 0 1.11081e+06 133835 0 1.09304e+06 131720 0 1.07556e+06 129570 0 1.05839e+06 127390 0 1.04152e+06 125186 0 1.02496e+06 122962 0 1.0087e+06 120724 0 992757 118473 0 977120 116215 0 961791 113953 0 946770 111688 0 932057 109424 0 917651 107163 0 903551 104907 0 889754 102658 0 876261 100418 0 863069 98187.2 0 850176 95967.8 0 837580 93760.7 0 825279 91566.8 0 813272 89387.1 0 801556 87222.1 0 790128 85072.5 0 778986 82938.9 0 768128 80821.5 0 757552 78720.8 0 747255 76636.9 0 737234 74570.1 0 727488 72520.5 0 718014 70488.1 0 708808 68472.9 0 699870 66474.8 0 691196 64493.8 0 682785 62529.7 0 674633 60582.3 0 666739 58651.4 0 659100 56736.8 0 651714 54838.1 0 644579 52955.2 0 637693 51087.6 0 631054 49235 0 624659 47397.1 0 618507 45573.4 0 612596 43763.6 0 606923 41967.2 0 601488 40183.8 0 596288 38412.9 0 591322 36654.1 0 586588 34907 0 582085 33170.9 0 577811 31445.6 0 573764 29730.4 0 569944 28024.8 0 566349 26328.4 0 562978 24640.7 0 559830 22961.1 0 556904 21289 0 554198 19624.1 0 551712 17965.6 0 549445 16313.2 0 547397 14666.3 0 545566 13024.2 0 543951 11386.6 0 542553 9752.79 0 541371 8122.29 0 540405 6494.53 0 539653 4868.97 0 539117 3245.06 0 538795 1622.26 0 538688 0 0 1.14215e+06 -474955 0 1.28068e+06 -399990 0 1.37591e+06 -368961 0 1.44807e+06 -345063 0 1.50757e+06 -321766 0 1.55856e+06 -298722 0 1.603e+06 -275271 0 1.64206e+06 -251677 0 1.67637e+06 -227894 0 1.70638e+06 -204121 0 1.73237e+06 -180455 0 1.75456e+06 -157058 0 1.77312e+06 -134057 0 1.78823e+06 -111592 0 1.80003e+06 -89783.3 0 1.80869e+06 -68742.4 0 1.81436e+06 -48564.6 0 1.81723e+06 -29329.2 0 1.81747e+06 -11097.9 0 1.81526e+06 6084.53 0 1.81078e+06 22190 0 1.80422e+06 37205.4 0 1.79574e+06 51131.4 0 1.78552e+06 63980.4 0 1.77373e+06 75775.1 0 1.7