<?xml version="1.0"?> 
<VTKFile type="StructuredGrid" version="0.1"> 
<StructuredGrid WholeExtent="0 127 0 127 0 0"> 
<Piece Extent="0 127 0 127 0 0"> 
<PointData>
<DataArray type="Float32" Name="E" format="ascii" NumberOfComponents="3"> 
-1.66986e+06 0 0 -1.67023e+06 -7183.07 0 -1.67133e+06 -14355.3 0 -1.67317e+06 -21504.9 0 -1.67574e+06 -28618.7 0 -1.67907e+06 -35680.9 0 -1.68315e+06 -42672.7 0 -1.68799e+06 -49571.1 0 -1.69361e+06 -56348.7 0 -1.7e+06 -62972.9 0 -1.70717e+06 -69405.5 0 -1.71512e+06 -75602.7 0 -1.72384e+06 -81515.1 0 -1.73332e+06 -87088.7 0 -1.74355e+06 -92265.5 0 -1.75447e+06 -96985.5 0 -1.76606e+06 -101189 0 -1.77826e+06 -104818 0 -1.79099e+06 -107820 0 -1.80419e+06 -110153 0 -1.81776e+06 -111782 0 -1.83161e+06 -112686 0 -1.84565e+06 -112860 0 -1.85978e+06 -112311 0 -1.87391e+06 -111059 0 -1.88796e+06 -109137 0 -1.90186e+06 -106587 0 -1.91552e+06 -103460 0 -1.92891e+06 -99809.5 0 -1.94198e+06 -95692 0 -1.95469e+06 -91164 0 -1.96702e+06 -86280.1 0 -1.97896e+06 -81091.7 0 -1.9905e+06 -75646.5 0 -2.00163e+06 -69987.4 0 -2.01235e+06 -64152.8 0 -2.02267e+06 -58176 0 -2.0326e+06 -52086.3 0 -2.04215e+06 -45908.4 0 -2.05131e+06 -39663.2 0 -2.06011e+06 -33368.2 0 -2.06856e+06 -27037.8 0 -2.07666e+06 -20683.8 0 -2.08442e+06 -14315.3 0 -2.09185e+06 -7939.83 0 -2.09896e+06 -1562.9 0 -2.10576e+06 4811.35 0 -2.11225e+06 11180 0 -2.11844e+06 17541.3 0 -2.12434e+06 23894.3 0 -2.12995e+06 30238.7 0 -2.13528e+06 36574.9 0 -2.14032e+06 42903.8 0 -2.14508e+06 49226.7 0 -2.14957e+06 55545.2 0 -2.15379e+06 61861 0 -2.15773e+06 68176.4 0 -2.16139e+06 74493.4 0 -2.16479e+06 80814.3 0 -2.1679e+06 87141.5 0 -2.17075e+06 93477.2 0 -2.17331e+06 99823.6 0 -2.17559e+06 106183 0 -2.17759e+06 112557 0 -2.17931e+06 118948 0 -2.18073e+06 125357 0 -2.18185e+06 131785 0 -2.18267e+06 138233 0 -2.18318e+06 144702 0 -2.18337e+06 151190 0 -2.18324e+06 157697 0 -2.18277e+06 164220 0 -2.18196e+06 170757 0 -2.18079e+06 177303 0 -2.17925e+06 183851 0 -2.17734e+06 190395 0 -2.17504e+06 196924 0 -2.17233e+06 203425 0 -2.1692e+06 209884 0 -2.16563e+06 216282 0 -2.16162e+06 222597 0 -2.15715e+06 228802 0 -2.1522e+06 234866 0 -2.14677e+06 240754 0 -2.14085e+06 246424 0 -2.13443e+06 251830 0 -2.12752e+06 256920 0 -2.12012e+06 261637 0 -2.11226e+06 265920 0 -2.10394e+06 269705 0 -2.09523e+06 272929 0 -2.08614e+06 275526 0 -2.07676e+06 277437 0 -2.06714e+06 278607 0 -2.05736e+06 278989 0 -2.04751e+06 278548 0 -2.03769e+06 277263 0 -2.02797e+06 275125 0 -2.01846e+06 272138 0 -2.00923e+06 268321 0 -2.00037e+06 263703 0 -1.99195e+06 258322 0 -1.98401e+06 252225 0 -1.97661e+06 245462 0 -1.96978e+06 238082 0 -1.96354e+06 230137 0 -1.95789e+06 221675 0 -1.95284e+06 212740 0 -1.94837e+06 203369 0 -1.94447e+06 193594 0 -1.94112e+06 183441 0 -1.93829e+06 172926 0 -1.93594e+06 162060 0 -1.93405e+06 150835 0 -1.93258e+06 139249 0 -1.9315e+06 127261 0 -1.93079e+06 114862 0 -1.93043e+06 101920 0 -1.93042e+06 88485 0 -1.93077e+06 74180.3 0 -1.9316e+06 59213.9 0 -1.93308e+06 42640.3 0 -1.93522e+06 25316.4 0 -1.93977e+06 3421.38 0 -1.94649e+06 -17501.1 0 -1.96024e+06 -54758.8 0 -2.00873e+06 -101495 0 -2.25024e+06 1.43051e-05 0 -1.67058e+06 0 0 -1.67095e+06 -7109.88 0 -1.67204e+06 -14208.7 0 -1.67388e+06 -21284.5 0 -1.67645e+06 -28324 0 -1.67977e+06 -35311.2 0 -1.68384e+06 -42227.1 0 -1.68867e+06 -49049 0 -1.69427e+06 -55749.4 0 -1.70065e+06 -62295.8 0 -1.70779e+06 -68650.6 0 -1.71572e+06 -74770.3 0 -1.72441e+06 -80606.1 0 -1.73386e+06 -86104.9 0 -1.74404e+06 -91209.7 0 -1.75492e+06 -95861.4 0 -1.76645e+06 -100001 0 -1.77859e+06 -103573 0 -1.79126e+06 -106526 0 -1.80438e+06 -108817 0 -1.81788e+06 -110413 0 -1.83166e+06 -111294 0 -1.84563e+06 -111454 0 -1.85969e+06 -110900 0 -1.87375e+06 -109652 0 -1.88774e+06 -107742 0 -1.90157e+06 -105211 0 -1.91518e+06 -102109 0 -1.92852e+06 -98488.4 0 -1.94155e+06 -94404.6 0 -1.95422e+06 -89913.2 0 -1.96652e+06 -85067.8 0 -1.97843e+06 -79919.2 0 -1.98994e+06 -74514.3 0 -2.00105e+06 -68895.7 0 -2.01176e+06 -63101.2 0 -2.02207e+06 -57164.1 0 -2.03199e+06 -51113.3 0 -2.04153e+06 -44973.4 0 -2.05069e+06 -38765.2 0 -2.05948e+06 -32506.3 0 -2.06793e+06 -26211.1 0 -2.07602e+06 -19891.1 0 -2.08378e+06 -13555.9 0 -2.09121e+06 -7212.86 0 -2.09832e+06 -867.548 0 -2.10512e+06 5475.81 0 -2.11161e+06 11814.3 0 -2.11781e+06 18145.9 0 -2.12371e+06 24469.7 0 -2.12932e+06 30785.4 0 -2.13464e+06 37093.3 0 -2.13969e+06 43394.2 0 -2.14445e+06 49689.4 0 -2.14894e+06 55980.3 0 -2.15316e+06 62268.7 0 -2.1571e+06 68556.7 0 -2.16076e+06 74846.4 0 -2.16415e+06 81139.9 0 -2.16727e+06 87439.5 0 -2.17011e+06 93747.5 0 -2.17268e+06 100066 0 -2.17496e+06 106397 0 -2.17696e+06 112743 0 -2.17867e+06 119105 0 -2.18009e+06 125484 0 -2.18121e+06 131882 0 -2.18202e+06 138300 0 -2.18253e+06 144737 0 -2.18272e+06 151193 0 -2.18259e+06 157667 0 -2.18212e+06 164157 0 -2.1813e+06 170658 0 -2.18014e+06 177168 0 -2.1786e+06 183679 0 -2.17669e+06 190185 0 -2.17439e+06 196673 0 -2.17168e+06 203134 0 -2.16856e+06 209550 0 -2.165e+06 215904 0 -2.161e+06 222173 0 -2.15654e+06 228332 0 -2.15161e+06 234349 0 -2.14619e+06 240188 0 -2.1403e+06 245809 0 -2.13391e+06 251165 0 -2.12703e+06 256206 0 -2.11967e+06 260875 0 -2.11185e+06 265113 0 -2.1036e+06 268856 0 -2.09494e+06 272041 0 -2.08592e+06 274605 0 -2.07661e+06 276489 0 -2.06706e+06 277639 0 -2.05737e+06 278010 0 -2.0476e+06 277567 0 -2.03786e+06 276289 0 -2.02823e+06 274166 0 -2.0188e+06 271204 0 -2.00965e+06 267419 0 -2.00087e+06 262841 0 -1.99252e+06 257507 0 -1.98465e+06 251462 0 -1.97732e+06 244753 0 -1.97055e+06 237431 0 -1.96436e+06 229545 0 -1.95876e+06 221143 0 -1.95375e+06 212266 0 -1.94933e+06 202953 0 -1.94547e+06 193234 0 -1.94215e+06 183134 0 -1.93935e+06 172670 0 -1.93704e+06 161849 0 -1.93518e+06 150670 0 -1.93375e+06 139123 0 -1.93272e+06 127178 0 -1.93205e+06 114804 0 -1.93174e+06 101917 0 -1.9318e+06 88483.3 0 -1.93223e+06 74280.7 0 -1.93318e+06 59259.6 0 -1.93474e+06 42963.3 0 -1.9372e+06 25362.3 0 -1.9418e+06 4505.97 0 -1.94936e+06 -17465.3 0 -1.96371e+06 -51020.1 0 -2.01594e+06 -92567.8 0 -2.20149e+06 -2.20803e-06 0 -1.67129e+06 0 0 -1.67165e+06 -7036.8 0 -1.67275e+06 -14062.3 0 -1.67458e+06 -21064.5 0 -1.67715e+06 -28029.8 0 -1.68046e+06 -34942.1 0 -1.68452e+06 -41782.5 0 -1.68934e+06 -48528.1 0 -1.69493e+06 -55151.5 0 -1.70129e+06 -61620.7 0 -1.70842e+06 -67898 0 -1.71631e+06 -73940.6 0 -1.72498e+06 -79700.5 0 -1.73439e+06 -85125.1 0 -1.74452e+06 -90158.4 0 -1.75535e+06 -94742.5 0 -1.76684e+06 -98819.7 0 -1.77891e+06 -102335 0 -1.79152e+06 -105238 0 -1.80458e+06 -107487 0 -1.818e+06 -109051 0 -1.83171e+06 -109909 0 -1.84561e+06 -110054 0 -1.8596e+06 -109495 0 -1.8736e+06 -108251 0 -1.88752e+06 -106353 0 -1.90129e+06 -103841 0 -1.91485e+06 -100763 0 -1.92814e+06 -97171.9 0 -1.94112e+06 -93121.3 0 -1.95376e+06 -88665.9 0 -1.96602e+06 -83858.5 0 -1.97791e+06 -78749.2 0 -1.98939e+06 -73384.3 0 -2.00048e+06 -67805.7 0 -2.01118e+06 -62051.1 0 -2.02147e+06 -56153.3 0 -2.03138e+06 -50141.1 0 -2.04091e+06 -44039 0 -2.05007e+06 -37867.8 0 -2.05886e+06 -31644.8 0 -2.0673e+06 -25384.5 0 -2.07539e+06 -19098.7 0 -2.08315e+06 -12796.7 0 -2.09058e+06 -6485.92 0 -2.09769e+06 -172.176 0 -2.10449e+06 6140.32 0 -2.11098e+06 12448.6 0 -2.11718e+06 18750.6 0 -2.12308e+06 25045.2 0 -2.12869e+06 31332.3 0 -2.13402e+06 37611.8 0 -2.13906e+06 43884.7 0 -2.14383e+06 50152.1 0 -2.14832e+06 56415.4 0 -2.15253e+06 62676.4 0 -2.15647e+06 68937 0 -2.16013e+06 75199.3 0 -2.16353e+06 81465.3 0 -2.16664e+06 87737.4 0 -2.16948e+06 94017.7 0 -2.17205e+06 100308 0 -2.17433e+06 106611 0 -2.17632e+06 112928 0 -2.17803e+06 119261 0 -2.17945e+06 125611 0 -2.18057e+06 131979 0 -2.18138e+06 138366 0 -2.18189e+06 144772 0 -2.18208e+06 151196 0 -2.18194e+06 157637 0 -2.18147e+06 164093 0 -2.18065e+06 170559 0 -2.17949e+06 177033 0 -2.17795e+06 183507 0 -2.17604e+06 189974 0 -2.17374e+06 196423 0 -2.17104e+06 202843 0 -2.16792e+06 209217 0 -2.16437e+06 215527 0 -2.16038e+06 221751 0 -2.15593e+06 227863 0 -2.15101e+06 233832 0 -2.14562e+06 239623 0 -2.13975e+06 245196 0 -2.13339e+06 250503 0 -2.12655e+06 255496 0 -2.11923e+06 260118 0 -2.11146e+06 264311 0 -2.10325e+06 268012 0 -2.09465e+06 271160 0 -2.0857e+06 273691 0 -2.07645e+06 275549 0 -2.06699e+06 276680 0 -2.05737e+06 277040 0 -2.04769e+06 276594 0 -2.03803e+06 275323 0 -2.02848e+06 273216 0 -2.01913e+06 270278 0 -2.01007e+06 266526 0 -2.00136e+06 261987 0 -1.99309e+06 256699 0 -1.98529e+06 250704 0 -1.97802e+06 244050 0 -1.97131e+06 236785 0 -1.96517e+06 228958 0 -1.95962e+06 220615 0 -1.95466e+06 211797 0 -1.95028e+06 202541 0 -1.94646e+06 192878 0 -1.94318e+06 182831 0 -1.94041e+06 172417 0 -1.93814e+06 161643 0 -1.93632e+06 150509 0 -1.93492e+06 139001 0 -1.93393e+06 127097 0 -1.93331e+06 114755 0 -1.93306e+06 101913 0 -1.93318e+06 88500 0 -1.93368e+06 74369.7 0 -1.93474e+06 59353.3 0 -1.93641e+06 43234.3 0 -1.93912e+06 25558.9 0 -1.94386e+06 5388.07 0 -1.95203e+06 -16954.7 0 -1.96724e+06 -47742.9 0 -2.02046e+06 -83698.8 0 -2.16476e+06 2.27708e-07 0 -1.67199e+06 0 0 -1.67235e+06 -6963.83 0 -1.67345e+06 -13916.2 0 -1.67527e+06 -20844.9 0 -1.67784e+06 -27736.1 0 -1.68114e+06 -34573.8 0 -1.6852e+06 -41338.8 0 -1.69001e+06 -48008.4 0 -1.69558e+06 -54555.2 0 -1.70192e+06 -60947.4 0 -1.70903e+06 -67147.8 0 -1.7169e+06 -73113.9 0 -1.72553e+06 -78798.3 0 -1.73491e+06 -84149.2 0 -1.745e+06 -89111.6 0 -1.75579e+06 -93628.6 0 -1.76721e+06 -97643.7 0 -1.77923e+06 -101103 0 -1.79177e+06 -103957 0 -1.80477e+06 -106165 0 -1.81812e+06 -107696 0 -1.83176e+06 -108530 0 -1.84559e+06 -108662 0 -1.85951e+06 -108098 0 -1.87344e+06 -106857 0 -1.8873e+06 -104970 0 -1.90101e+06 -102476 0 -1.91452e+06 -99422.5 0 -1.92776e+06 -95860 0 -1.9407e+06 -91842.1 0 -1.95329e+06 -87422.2 0 -1.96553e+06 -82652.3 0 -1.97738e+06 -77581.8 0 -1.98885e+06 -72256.4 0 -1.99992e+06 -66717.5 0 -2.0106e+06 -61002.4 0 -2.02088e+06 -55143.7 0 -2.03078e+06 -49169.9 0 -2.0403e+06 -43105.3 0 -2.04945e+06 -36970.8 0 -2.05824e+06 -30783.6 0 -2.06667e+06 -24558.2 0 -2.07476e+06 -18306.4 0 -2.08252e+06 -12037.4 0 -2.08995e+06 -5759 0 -2.09706e+06 523.21 0 -2.10386e+06 6804.87 0 -2.11035e+06 13082.9 0 -2.11655e+06 19355.3 0 -2.12245e+06 25620.8 0 -2.12806e+06 31879.1 0 -2.13339e+06 38130.4 0 -2.13843e+06 44375.3 0 -2.1432e+06 50614.8 0 -2.14769e+06 56850.5 0 -2.1519e+06 63084.1 0 -2.15584e+06 69317.2 0 -2.15951e+06 75552.1 0 -2.1629e+06 81790.7 0 -2.16602e+06 88035.3 0 -2.16886e+06 94287.8 0 -2.17142e+06 100550 0 -2.1737e+06 106825 0 -2.17569e+06 113113 0 -2.1774e+06 119417 0 -2.17881e+06 125738 0 -2.17993e+06 132076 0 -2.18074e+06 138432 0 -2.18125e+06 144807 0 -2.18144e+06 151199 0 -2.1813e+06 157607 0 -2.18082e+06 164028 0 -2.18001e+06 170460 0 -2.17884e+06 176898 0 -2.17731e+06 183335 0 -2.1754e+06 189764 0 -2.1731e+06 196174 0 -2.1704e+06 202552 0 -2.16729e+06 208884 0 -2.16375e+06 215150 0 -2.15976e+06 221330 0 -2.15533e+06 227396 0 -2.15043e+06 233318 0 -2.14506e+06 239061 0 -2.13921e+06 244585 0 -2.13288e+06 249845 0 -2.12607e+06 254790 0 -2.11879e+06 259365 0 -2.11106e+06 263514 0 -2.10291e+06 267174 0 -2.09437e+06 270284 0 -2.08548e+06 272784 0 -2.07631e+06 274616 0 -2.06691e+06 275728 0 -2.05737e+06 276077 0 -2.04777e+06 275630 0 -2.03819e+06 274365 0 -2.02873e+06 272274 0 -2.01946e+06 269360 0 -2.01048e+06 265640 0 -2.00185e+06 261141 0 -1.99365e+06 255898 0 -1.98592e+06 249954 0 -1.97871e+06 243353 0 -1.97206e+06 236145 0 -1.96598e+06 228377 0 -1.96048e+06 220092 0 -1.95556e+06 211332 0 -1.95122e+06 202133 0 -1.94744e+06 192525 0 -1.9442e+06 182531 0 -1.94147e+06 172167 0 -1.93923e+06 161441 0 -1.93745e+06 150350 0 -1.93609e+06 138884 0 -1.93514e+06 127019 0 -1.93457e+06 114713 0 -1.93437e+06 101912 0 -1.93455e+06 88529.8 0 -1.93514e+06 74456.5 0 -1.93629e+06 59478.3 0 -1.93808e+06 43482.5 0 -1.941e+06 25851.4 0 -1.94593e+06 6161.12 0 -1.95455e+06 -16138.4 0 -1.97065e+06 -44721.5 0 -2.02309e+06 -75227.4 0 -2.13673e+06 3.93018e-07 0 -1.67268e+06 0 0 -1.67304e+06 -6890.97 0 -1.67414e+06 -13770.3 0 -1.67596e+06 -20625.6 0 -1.67852e+06 -27443 0 -1.68182e+06 -34206.2 0 -1.68587e+06 -40896.1 0 -1.69067e+06 -47489.9 0 -1.69623e+06 -53960.5 0 -1.70255e+06 -60276.1 0 -1.70963e+06 -66399.9 0 -1.71748e+06 -72289.9 0 -1.72608e+06 -77899.3 0 -1.73542e+06 -83177.2 0 -1.74547e+06 -88069.3 0 -1.75621e+06 -92519.8 0 -1.76758e+06 -96473.2 0 -1.77954e+06 -99876.5 0 -1.79202e+06 -102682 0 -1.80495e+06 -104849 0 -1.81824e+06 -106348 0 -1.83181e+06 -107159 0 -1.84556e+06 -107277 0 -1.85942e+06 -106707 0 -1.87328e+06 -105469 0 -1.88708e+06 -103593 0 -1.90073e+06 -101117 0 -1.91419e+06 -98086.8 0 -1.92738e+06 -94552.7 0 -1.94027e+06 -90566.9 0 -1.95284e+06 -86181.9 0 -1.96504e+06 -81449.1 0 -1.97687e+06 -76417 0 -1.98831e+06 -71130.6 0 -1.99936e+06 -65631.1 0 -2.01002e+06 -59955.1 0 -2.02029e+06 -54135.2 0 -2.03018e+06 -48199.5 0 -2.03969e+06 -42172.4 0 -2.04883e+06 -36074.4 0 -2.05762e+06 -29922.9 0 -2.06605e+06 -23732.2 0 -2.07414e+06 -17514.2 0 -2.08189e+06 -11278.3 0 -2.08932e+06 -5032.12 0 -2.09643e+06 1218.6 0 -2.10323e+06 7469.46 0 -2.10973e+06 13717.3 0 -2.11592e+06 19960.1 0 -2.12182e+06 26196.5 0 -2.12744e+06 32426.1 0 -2.13277e+06 38649 0 -2.13781e+06 44865.8 0 -2.14258e+06 51077.6 0 -2.14707e+06 57285.7 0 -2.15128e+06 63491.7 0 -2.15522e+06 69697.5 0 -2.15889e+06 75904.9 0 -2.16228e+06 82116.1 0 -2.16539e+06 88333 0 -2.16823e+06 94557.8 0 -2.17079e+06 100792 0 -2.17307e+06 107039 0 -2.17506e+06 113299 0 -2.17677e+06 119573 0 -2.17818e+06 125864 0 -2.1793e+06 132172 0 -2.18011e+06 138498 0 -2.18061e+06 144841 0 -2.1808e+06 151201 0 -2.18066e+06 157576 0 -2.18018e+06 163964 0 -2.17937e+06 170361 0 -2.1782e+06 176763 0 -2.17667e+06 183163 0 -2.17476e+06 189554 0 -2.17246e+06 195924 0 -2.16977e+06 202262 0 -2.16666e+06 208551 0 -2.16312e+06 214775 0 -2.15915e+06 220910 0 -2.15473e+06 226930 0 -2.14985e+06 232806 0 -2.14449e+06 238501 0 -2.13867e+06 243978 0 -2.13237e+06 249189 0 -2.12559e+06 254087 0 -2.11835e+06 258617 0 -2.11067e+06 262722 0 -2.10257e+06 266341 0 -2.09409e+06 269415 0 -2.08526e+06 271883 0 -2.07616e+06 273690 0 -2.06684e+06 274784 0 -2.05738e+06 275123 0 -2.04786e+06 274674 0 -2.03836e+06 273416 0 -2.02898e+06 271340 0 -2.0198e+06 268450 0 -2.01089e+06 264762 0 -2.00234e+06 260302 0 -1.99421e+06 255104 0 -1.98655e+06 249209 0 -1.9794e+06 242663 0 -1.9728e+06 235511 0 -1.96678e+06 227800 0 -1.96133e+06 219573 0 -1.95646e+06 210872 0 -1.95216e+06 201729 0 -1.94842e+06 192176 0 -1.94521e+06 182235 0 -1.94252e+06 171921 0 -1.94032e+06 161242 0 -1.93857e+06 150196 0 -1.93726e+06 138771 0 -1.93634e+06 126945 0 -1.93582e+06 114676 0 -1.93567e+06 101914 0 -1.93592e+06 88569.8 0 -1.93658e+06 74546.4 0 -1.93783e+06 59624.6 0 -1.93975e+06 43725.3 0 -1.94285e+06 26205.3 0 -1.94799e+06 6882.9 0 -1.95697e+06 -15126.9 0 -1.97387e+06 -41840 0 -2.02444e+06 -67336.1 0 -2.11503e+06 -4.35393e-08 0 -1.67337e+06 0 0 -1.67373e+06 -6818.23 0 -1.67482e+06 -13624.7 0 -1.67664e+06 -20406.7 0 -1.6792e+06 -27150.4 0 -1.68249e+06 -33839.3 0 -1.68653e+06 -40454.3 0 -1.69132e+06 -46972.7 0 -1.69686e+06 -53367.3 0 -1.70317e+06 -59606.7 0 -1.71023e+06 -65654.3 0 -1.71805e+06 -71468.7 0 -1.72662e+06 -77003.7 0 -1.73593e+06 -82209 0 -1.74594e+06 -87031.4 0 -1.75663e+06 -91415.9 0 -1.76795e+06 -95308.2 0 -1.77985e+06 -98656.4 0 -1.79227e+06 -101414 0 -1.80513e+06 -103540 0 -1.81836e+06 -105007 0 -1.83185e+06 -105795 0 -1.84554e+06 -105898 0 -1.85933e+06 -105323 0 -1.87313e+06 -104088 0 -1.88686e+06 -102222 0 -1.90046e+06 -99763.4 0 -1.91386e+06 -96756.2 0 -1.927e+06 -93249.9 0 -1.93986e+06 -89295.6 0 -1.95238e+06 -84945.1 0 -1.96455e+06 -80248.9 0 -1.97635e+06 -75254.6 0 -1.98777e+06 -70007 0 -1.9988e+06 -64546.4 0 -2.00945e+06 -58909.3 0 -2.0197e+06 -53127.9 0 -2.02958e+06 -47230.1 0 -2.03909e+06 -41240.1 0 -2.04822e+06 -35178.5 0 -2.057e+06 -29062.5 0 -2.06543e+06 -22906.5 0 -2.07352e+06 -16722.2 0 -2.08127e+06 -10519.3 0 -2.0887e+06 -4305.29 0 -2.09581e+06 1913.99 0 -2.10261e+06 8134.09 0 -2.1091e+06 14351.8 0 -2.1153e+06 20564.9 0 -2.1212e+06 26772.2 0 -2.12682e+06 32973.1 0 -2.13215e+06 39167.7 0 -2.13719e+06 45356.5 0 -2.14196e+06 51540.4 0 -2.14645e+06 57720.9 0 -2.15066e+06 63899.4 0 -2.1546e+06 70077.7 0 -2.15827e+06 76257.7 0 -2.16166e+06 82441.4 0 -2.16477e+06 88630.7 0 -2.16761e+06 94827.7 0 -2.17017e+06 101034 0 -2.17245e+06 107252 0 -2.17444e+06 113483 0 -2.17614e+06 119729 0 -2.17755e+06 125991 0 -2.17867e+06 132269 0 -2.17948e+06 138564 0 -2.17998e+06 144876 0 -2.18016e+06 151203 0 -2.18002e+06 157546 0 -2.17955e+06 163900 0 -2.17873e+06 170262 0 -2.17756e+06 176628 0 -2.17603e+06 182992 0 -2.17412e+06 189344 0 -2.17183e+06 195675 0 -2.16914e+06 201972 0 -2.16603e+06 208220 0 -2.16251e+06 214400 0 -2.15855e+06 220491 0 -2.15414e+06 226466 0 -2.14927e+06 232295 0 -2.14394e+06 237944 0 -2.13814e+06 243372 0 -2.13186e+06 248537 0 -2.12512e+06 253388 0 -2.11792e+06 257873 0 -2.11029e+06 261934 0 -2.10224e+06 265514 0 -2.09381e+06 268552 0 -2.08505e+06 270989 0 -2.07601e+06 272771 0 -2.06677e+06 273847 0 -2.05738e+06 274176 0 -2.04794e+06 273725 0 -2.03853e+06 272474 0 -2.02923e+06 270414 0 -2.02012e+06 267548 0 -2.0113e+06 263892 0 -2.00282e+06 259470 0 -1.99476e+06 254317 0 -1.98717e+06 248472 0 -1.98008e+06 241979 0 -1.97355e+06 234882 0 -1.96757e+06 227229 0 -1.96217e+06 219060 0 -1.95735e+06 210415 0 -1.95309e+06 201330 0 -1.94939e+06 191831 0 -1.94622e+06 181943 0 -1.94357e+06 171679 0 -1.9414e+06 161046 0 -1.93969e+06 150045 0 -1.93842e+06 138662 0 -1.93755e+06 126876 0 -1.93707e+06 114645 0 -1.93697e+06 101921 0 -1.93728e+06 88618.1 0 -1.93803e+06 74642.2 0 -1.93936e+06 59786.3 0 -1.94141e+06 43972.7 0 -1.94468e+06 26600.1 0 -1.95002e+06 7586.89 0 -1.9593e+06 -13989.8 0 -1.97684e+06 -39041.2 0 -2.02491e+06 -60102.2 0 -2.098e+06 -3.64613e-07 0 -1.67404e+06 0 0 -1.67441e+06 -6745.61 0 -1.6755e+06 -13479.2 0 -1.67731e+06 -20188.2 0 -1.67986e+06 -26858.3 0 -1.68315e+06 -33473.1 0 -1.68718e+06 -40013.5 0 -1.69196e+06 -46456.6 0 -1.69749e+06 -52775.7 0 -1.70378e+06 -58939.2 0 -1.71082e+06 -64911.1 0 -1.71862e+06 -70650.3 0 -1.72716e+06 -76111.4 0 -1.73642e+06 -81244.7 0 -1.7464e+06 -85997.8 0 -1.75704e+06 -90317 0 -1.76831e+06 -94148.7 0 -1.78016e+06 -97442.1 0 -1.79251e+06 -100151 0 -1.80531e+06 -102238 0 -1.81847e+06 -103673 0 -1.8319e+06 -104438 0 -1.84552e+06 -104527 0 -1.85924e+06 -103946 0 -1.87297e+06 -102713 0 -1.88665e+06 -100857 0 -1.90019e+06 -98415.3 0 -1.91353e+06 -95430.7 0 -1.92663e+06 -91951.5 0 -1.93944e+06 -88028.3 0 -1.95193e+06 -83711.8 0 -1.96407e+06 -79051.6 0 -1.97584e+06 -74094.8 0 -1.98723e+06 -68885.4 0 -1.99825e+06 -63463.5 0 -2.00888e+06 -57864.9 0 -2.01912e+06 -52121.7 0 -2.02899e+06 -46261.6 0 -2.03849e+06 -40308.6 0 -2.04762e+06 -34283.1 0 -2.05639e+06 -28202.5 0 -2.06481e+06 -22081 0 -2.0729e+06 -15930.5 0 -2.08065e+06 -9760.43 0 -2.08808e+06 -3578.51 0 -2.09519e+06 2609.38 0 -2.10199e+06 8798.73 0 -2.10848e+06 14986.3 0 -2.11468e+06 21169.8 0 -2.12058e+06 27348 0 -2.1262e+06 33520.2 0 -2.13153e+06 39686.4 0 -2.13657e+06 45847.2 0 -2.14134e+06 52003.3 0 -2.14583e+06 58156.1 0 -2.15005e+06 64307.1 0 -2.15399e+06 70457.9 0 -2.15765e+06 76610.5 0 -2.16104e+06 82766.6 0 -2.16415e+06 88928.3 0 -2.16699e+06 95097.5 0 -2.16955e+06 101276 0 -2.17183e+06 107466 0 -2.17382e+06 113668 0 -2.17552e+06 119885 0 -2.17693e+06 126117 0 -2.17804e+06 132365 0 -2.17885e+06 138629 0 -2.17935e+06 144910 0 -2.17953e+06 151206 0 -2.17939e+06 157515 0 -2.17891e+06 163835 0 -2.17809e+06 170163 0 -2.17693e+06 176494 0 -2.17539e+06 182820 0 -2.17349e+06 189134 0 -2.1712e+06 195426 0 -2.16851e+06 201683 0 -2.16542e+06 207889 0 -2.1619e+06 214026 0 -2.15794e+06 220073 0 -2.15355e+06 226003 0 -2.1487e+06 231786 0 -2.14339e+06 237388 0 -2.13761e+06 242770 0 -2.13136e+06 247888 0 -2.12466e+06 252693 0 -2.1175e+06 257133 0 -2.10991e+06 261152 0 -2.10191e+06 264692 0 -2.09354e+06 267695 0 -2.08484e+06 270102 0 -2.07587e+06 271859 0 -2.0667e+06 272918 0 -2.05739e+06 273237 0 -2.04803e+06 272785 0 -2.03869e+06 271541 0 -2.02947e+06 269497 0 -2.02045e+06 266655 0 -2.0117e+06 263030 0 -2.0033e+06 258646 0 -1.99531e+06 253537 0 -1.98778e+06 247741 0 -1.98076e+06 241300 0 -1.97428e+06 234259 0 -1.96836e+06 226662 0 -1.96301e+06 218551 0 -1.95823e+06 209964 0 -1.95402e+06 200934 0 -1.95036e+06 191490 0 -1.94723e+06 181654 0 -1.94461e+06 171440 0 -1.94248e+06 160855 0 -1.94081e+06 149898 0 -1.93957e+06 138557 0 -1.93875e+06 126810 0 -1.93831e+06 114619 0 -1.93827e+06 101934 0 -1.93864e+06 88673.7 0 -1.93946e+06 74745.3 0 -1.94088e+06 59960.3 0 -1.94305e+06 44229.8 0 -1.94648e+06 27023.3 0 -1.95203e+06 8291.9 0 -1.96154e+06 -12772.4 0 -1.97954e+06 -36301.1 0 -2.02479e+06 -53540.7 0 -2.08445e+06 1.4063e-07 0 -1.67472e+06 0 0 -1.67508e+06 -6673.11 0 -1.67616e+06 -13334.1 0 -1.67798e+06 -19970.1 0 -1.68052e+06 -26566.8 0 -1.68381e+06 -33107.7 0 -1.68783e+06 -39573.7 0 -1.69259e+06 -45941.9 0 -1.69811e+06 -52185.6 0 -1.70438e+06 -58273.6 0 -1.7114e+06 -64170.2 0 -1.71917e+06 -69834.7 0 -1.72768e+06 -75222.3 0 -1.73692e+06 -80284.1 0 -1.74685e+06 -84968.6 0 -1.75744e+06 -89222.9 0 -1.76866e+06 -92994.5 0 -1.78045e+06 -96233.7 0 -1.79275e+06 -98895.5 0 -1.80549e+06 -100942 0 -1.81858e+06 -102345 0 -1.83194e+06 -103087 0 -1.84549e+06 -103162 0 -1.85914e+06 -102575 0 -1.87282e+06 -101345 0 -1.88643e+06 -99498.6 0 -1.89992e+06 -97072.7 0 -1.91321e+06 -94110 0 -1.92626e+06 -90657.6 0 -1.93903e+06 -86765 0 -1.95148e+06 -82481.9 0 -1.96359e+06 -77857.3 0 -1.97533e+06 -72937.6 0 -1.9867e+06 -67766 0 -1.9977e+06 -62382.3 0 -2.00831e+06 -56822 0 -2.01854e+06 -51116.7 0 -2.0284e+06 -45294 0 -2.03789e+06 -39377.7 0 -2.04701e+06 -33388.3 0 -2.05578e+06 -27342.9 0 -2.0642e+06 -21255.8 0 -2.07228e+06 -15138.9 0 -2.08003e+06 -9001.65 0 -2.08746e+06 -2851.78 0 -2.09457e+06 3304.75 0 -2.10137e+06 9463.4 0 -2.10787e+06 15620.8 0 -2.11406e+06 21774.8 0 -2.11997e+06 27923.9 0 -2.12558e+06 34067.4 0 -2.13091e+06 40205.2 0 -2.13596e+06 46337.9 0 -2.14073e+06 52466.2 0 -2.14522e+06 58591.4 0 -2.14943e+06 64714.8 0 -2.15337e+06 70838.1 0 -2.15704e+06 76963.2 0 -2.16043e+06 83091.8 0 -2.16354e+06 89225.8 0 -2.16638e+06 95367.2 0 -2.16893e+06 101518 0 -2.17121e+06 107679 0 -2.1732e+06 113853 0 -2.1749e+06 120041 0 -2.17631e+06 126243 0 -2.17742e+06 132461 0 -2.17822e+06 138695 0 -2.17872e+06 144944 0 -2.1789e+06 151208 0 -2.17876e+06 157484 0 -2.17828e+06 163771 0 -2.17746e+06 170064 0 -2.17629e+06 176359 0 -2.17476e+06 182648 0 -2.17286e+06 188925 0 -2.17057e+06 195178 0 -2.16789e+06 201394 0 -2.1648e+06 207559 0 -2.16129e+06 213654 0 -2.15735e+06 219656 0 -2.15296e+06 225541 0 -2.14813e+06 231279 0 -2.14284e+06 236835 0 -2.13708e+06 242170 0 -2.13087e+06 247241 0 -2.1242e+06 252001 0 -2.11708e+06 256397 0 -2.10953e+06 260374 0 -2.10158e+06 263876 0 -2.09327e+06 266843 0 -2.08463e+06 269221 0 -2.07573e+06 270954 0 -2.06663e+06 271996 0 -2.0574e+06 272306 0 -2.04811e+06 271853 0 -2.03886e+06 270616 0 -2.02972e+06 268587 0 -2.02077e+06 265769 0 -2.0121e+06 262175 0 -2.00377e+06 257829 0 -1.99585e+06 252764 0 -1.98839e+06 247016 0 -1.98143e+06 240628 0 -1.97501e+06 233642 0 -1.96914e+06 226101 0 -1.96384e+06 218047 0 -1.95911e+06 209517 0 -1.95494e+06 200543 0 -1.95132e+06 191153 0 -1.94823e+06 181369 0 -1.94565e+06 171205 0 -1.94356e+06 160667 0 -1.94192e+06 149755 0 -1.94072e+06 138456 0 -1.93994e+06 126750 0 -1.93955e+06 114598 0 -1.93957e+06 101953 0 -1.94e+06 88736.3 0 -1.94089e+06 74856.6 0 -1.9424e+06 60144.7 0 -1.94469e+06 44499 0 -1.94826e+06 27467.5 0 -1.95399e+06 9007.59 0 -1.96371e+06 -11504 0 -1.98199e+06 -33614.3 0 -2.02428e+06 -47629.5 0 -2.07352e+06 -4.27477e-07 0 -1.67538e+06 0 0 -1.67574e+06 -6600.73 0 -1.67683e+06 -13189.2 0 -1.67864e+06 -19752.3 0 -1.68118e+06 -26275.8 0 -1.68445e+06 -32743.1 0 -1.68847e+06 -39134.8 0 -1.69322e+06 -45428.3 0 -1.69872e+06 -51597 0 -1.70498e+06 -57609.9 0 -1.71198e+06 -63431.6 0 -1.71972e+06 -69021.9 0 -1.7282e+06 -74336.5 0 -1.7374e+06 -79327.4 0 -1.74729e+06 -83943.7 0 -1.75784e+06 -88133.7 0 -1.76901e+06 -91845.7 0 -1.78075e+06 -95031.1 0 -1.79299e+06 -97645.8 0 -1.80566e+06 -99652.9 0 -1.81868e+06 -101024 0 -1.83198e+06 -101743 0 -1.84547e+06 -101803 0 -1.85905e+06 -101211 0 -1.87266e+06 -99982.3 0 -1.88622e+06 -98145.4 0 -1.89965e+06 -95735.4 0 -1.91289e+06 -92794.3 0 -1.9259e+06 -89368.1 0 -1.93862e+06 -85505.5 0 -1.95104e+06 -81255.5 0 -1.96311e+06 -76666 0 -1.97483e+06 -71782.8 0 -1.98618e+06 -66648.8 0 -1.99715e+06 -61302.9 0 -2.00775e+06 -55780.5 0 -2.01797e+06 -50112.8 0 -2.02781e+06 -44327.3 0 -2.03729e+06 -38447.6 0 -2.04641e+06 -32494.1 0 -2.05518e+06 -26483.7 0 -2.06359e+06 -20430.9 0 -2.07167e+06 -14347.5 0 -2.07942e+06 -8242.99 0 -2.08685e+06 -2125.12 0 -2.09396e+06 4000.1 0 -2.10076e+06 10128.1 0 -2.10725e+06 16255.4 0 -2.11345e+06 22379.8 0 -2.11935e+06 28499.8 0 -2.12497e+06 34614.6 0 -2.1303e+06 40724.1 0 -2.13535e+06 46828.7 0 -2.14012e+06 52929.1 0 -2.14461e+06 59026.6 0 -2.14882e+06 65122.5 0 -2.15276e+06 71218.3 0 -2.15643e+06 77315.9 0 -2.15981e+06 83416.9 0 -2.16293e+06 89523.3 0 -2.16576e+06 95636.8 0 -2.16832e+06 101759 0 -2.17059e+06 107892 0 -2.17258e+06 114038 0 -2.17428e+06 120196 0 -2.17569e+06 126369 0 -2.1768e+06 132557 0 -2.1776e+06 138760 0 -2.1781e+06 144978 0 -2.17828e+06 151209 0 -2.17813e+06 157453 0 -2.17765e+06 163706 0 -2.17684e+06 169965 0 -2.17567e+06 176224 0 -2.17414e+06 182477 0 -2.17224e+06 188716 0 -2.16995e+06 194929 0 -2.16727e+06 201106 0 -2.16419e+06 207229 0 -2.16069e+06 213282 0 -2.15676e+06 219241 0 -2.15238e+06 225081 0 -2.14757e+06 230774 0 -2.1423e+06 236284 0 -2.13657e+06 241573 0 -2.13038e+06 246598 0 -2.12374e+06 251313 0 -2.11666e+06 255665 0 -2.10916e+06 259601 0 -2.10126e+06 263064 0 -2.093e+06 265998 0 -2.08443e+06 268346 0 -2.07559e+06 270056 0 -2.06656e+06 271082 0 -2.0574e+06 271383 0 -2.0482e+06 270929 0 -2.03902e+06 269699 0 -2.02996e+06 267685 0 -2.02109e+06 264890 0 -2.01249e+06 261327 0 -2.00424e+06 257019 0 -1.99639e+06 251997 0 -1.989e+06 246298 0 -1.9821e+06 239961 0 -1.97573e+06 233030 0 -1.96992e+06 225545 0 -1.96467e+06 217548 0 -1.95998e+06 209074 0 -1.95585e+06 200156 0 -1.95227e+06 190820 0 -1.94922e+06 181088 0 -1.94668e+06 170974 0 -1.94463e+06 160483 0 -1.94303e+06 149615 0 -1.94187e+06 138359 0 -1.94113e+06 126693 0 -1.94079e+06 114582 0 -1.94086e+06 101977 0 -1.94135e+06 88805.5 0 -1.94232e+06 74976.1 0 -1.94391e+06 60338.5 0 -1.94631e+06 44781.3 0 -1.95001e+06 27928.4 0 -1.95592e+06 9738.16 0 -1.9658e+06 -10204.4 0 -1.9842e+06 -30985.1 0 -2.02354e+06 -42326.5 0 -2.0646e+06 5.41098e-07 0 -1.67604e+06 0 0 -1.6764e+06 -6528.47 0 -1.67748e+06 -13044.5 0 -1.67929e+06 -19535 0 -1.68182e+06 -25985.4 0 -1.68509e+06 -32379.2 0 -1.6891e+06 -38696.9 0 -1.69384e+06 -44916 0 -1.69933e+06 -51010 0 -1.70557e+06 -56948.2 0 -1.71255e+06 -62695.3 0 -1.72027e+06 -68211.8 0 -1.72872e+06 -73453.9 0 -1.73788e+06 -78374.3 0 -1.74773e+06 -82923.1 0 -1.75824e+06 -87049.2 0 -1.76936e+06 -90702.2 0 -1.78104e+06 -93834.2 0 -1.79322e+06 -96402.2 0 -1.80582e+06 -98369.9 0 -1.81879e+06 -99710.1 0 -1.83202e+06 -100406 0 -1.84544e+06 -100452 0 -1.85896e+06 -99852.7 0 -1.87251e+06 -98626 0 -1.886e+06 -96798 0 -1.89938e+06 -94403.5 0 -1.91257e+06 -91483.4 0 -1.92553e+06 -88083 0 -1.93822e+06 -84249.9 0 -1.9506e+06 -80032.4 0 -1.96264e+06 -75477.6 0 -1.97433e+06 -70630.6 0 -1.98566e+06 -65533.6 0 -1.99661e+06 -60225.2 0 -2.00719e+06 -54740.4 0 -2.0174e+06 -49110.2 0 -2.02723e+06 -43361.6 0 -2.0367e+06 -37518.3 0 -2.04582e+06 -31600.4 0 -2.05457e+06 -25625 0 -2.06299e+06 -19606.4 0 -2.07107e+06 -13556.3 0 -2.07881e+06 -7484.47 0 -2.08624e+06 -1398.53 0 -2.09335e+06 4695.42 0 -2.10014e+06 10792.8 0 -2.10664e+06 16890 0 -2.11284e+06 22984.9 0 -2.11874e+06 29075.7 0 -2.12436e+06 35161.8 0 -2.12969e+06 41243 0 -2.13474e+06 47319.5 0 -2.13951e+06 53392.1 0 -2.144e+06 59461.9 0 -2.14821e+06 65530.2 0 -2.15215e+06 71598.5 0 -2.15582e+06 77668.5 0 -2.15921e+06 83742 0 -2.16232e+06 89820.6 0 -2.16515e+06 95906.3 0 -2.16771e+06 102001 0 -2.16998e+06 108105 0 -2.17197e+06 114222 0 -2.17366e+06 120351 0 -2.17507e+06 126495 0 -2.17618e+06 132653 0 -2.17698e+06 138825 0 -2.17748e+06 145012 0 -2.17765e+06 151211 0 -2.17751e+06 157422 0 -2.17703e+06 163642 0 -2.17621e+06 169866 0 -2.17504e+06 176089 0 -2.17351e+06 182306 0 -2.17161e+06 188507 0 -2.16933e+06 194682 0 -2.16666e+06 200818 0 -2.16358e+06 206901 0 -2.16009e+06 212911 0 -2.15617e+06 218826 0 -2.15181e+06 224623 0 -2.14701e+06 230270 0 -2.14176e+06 235735 0 -2.13605e+06 240978 0 -2.12989e+06 245959 0 -2.12329e+06 250629 0 -2.11625e+06 254938 0 -2.10879e+06 258833 0 -2.10094e+06 262259 0 -2.09274e+06 265158 0 -2.08422e+06 267478 0 -2.07546e+06 269165 0 -2.06649e+06 270175 0 -2.05741e+06 270467 0 -2.04828e+06 270012 0 -2.03918e+06 268790 0 -2.0302e+06 266791 0 -2.02141e+06 264020 0 -2.01289e+06 260487 0 -2.00471e+06 256217 0 -1.99692e+06 251238 0 -1.9896e+06 245586 0 -1.98276e+06 239301 0 -1.97645e+06 232423 0 -1.97069e+06 224994 0 -1.96549e+06 217053 0 -1.96085e+06 208635 0 -1.95676e+06 199773 0 -1.95322e+06 190491 0 -1.95021e+06 180811 0 -1.94771e+06 170746 0 -1.94569e+06 160303 0 -1.94414e+06 149480 0 -1.94302e+06 138266 0 -1.94232e+06 126641 0 -1.94202e+06 114571 0 -1.94214e+06 102007 0 -1.94269e+06 88881.1 0 -1.94374e+06 75103.8 0 -1.94541e+06 60541.1 0 -1.94792e+06 45076.7 0 -1.95175e+06 28403.1 0 -1.95781e+06 10484.6 0 -1.96782e+06 -8887.12 0 -1.98618e+06 -28421.6 0 -2.02267e+06 -37580.5 0 -2.05723e+06 2.03028e-07 0 -1.67669e+06 0 0 -1.67705e+06 -6456.33 0 -1.67813e+06 -12900.1 0 -1.67993e+06 -19318.1 0 -1.68246e+06 -25695.6 0 -1.68572e+06 -32016 0 -1.68972e+06 -38260 0 -1.69445e+06 -44405 0 -1.69993e+06 -50424.6 0 -1.70615e+06 -56288.3 0 -1.71311e+06 -61961.3 0 -1.7208e+06 -67404.5 0 -1.72922e+06 -72574.6 0 -1.73835e+06 -77425 0 -1.74816e+06 -81906.7 0 -1.75862e+06 -85969.5 0 -1.76969e+06 -89563.9 0 -1.78132e+06 -92643 0 -1.79344e+06 -95164.5 0 -1.80599e+06 -97093.2 0 -1.81889e+06 -98402.3 0 -1.83205e+06 -99075.1 0 -1.84541e+06 -99106.2 0 -1.85887e+06 -98500.9 0 -1.87236e+06 -97275.7 0 -1.88579e+06 -95456.3 0 -1.89911e+06 -93076.8 0 -1.91226e+06 -90177.3 0 -1.92517e+06 -86802.2 0 -1.93782e+06 -82998.2 0 -1.95016e+06 -78812.7 0 -1.96217e+06 -742