<?xml version="1.0"?> 
<VTKFile type="StructuredGrid" version="0.1"> 
<StructuredGrid WholeExtent="0 127 0 127 0 0"> 
<Piece Extent="0 127 0 127 0 0"> 
<PointData>
<DataArray type="Float32" Name="E" format="ascii" NumberOfComponents="3"> 
-1.51847e+06 0 0 -1.51742e+06 11156.7 0 -1.5165e+06 22345.2 0 -1.51571e+06 33569.9 0 -1.51505e+06 44834.8 0 -1.51452e+06 56144 0 -1.51412e+06 67501.6 0 -1.51384e+06 78911.2 0 -1.51368e+06 90376.7 0 -1.51364e+06 101902 0 -1.51372e+06 113490 0 -1.51392e+06 125144 0 -1.51422e+06 136868 0 -1.51463e+06 148664 0 -1.51515e+06 160536 0 -1.51577e+06 172486 0 -1.51649e+06 184517 0 -1.5173e+06 196632 0 -1.51821e+06 208833 0 -1.5192e+06 221121 0 -1.52028e+06 233499 0 -1.52144e+06 245969 0 -1.52267e+06 258532 0 -1.52398e+06 271190 0 -1.52536e+06 283944 0 -1.52681e+06 296795 0 -1.52831e+06 309745 0 -1.52988e+06 322793 0 -1.5315e+06 335941 0 -1.53317e+06 349188 0 -1.53489e+06 362536 0 -1.53665e+06 375984 0 -1.53845e+06 389532 0 -1.54029e+06 403180 0 -1.54216e+06 416927 0 -1.54406e+06 430774 0 -1.54598e+06 444719 0 -1.54793e+06 458761 0 -1.5499e+06 472900 0 -1.55188e+06 487134 0 -1.55388e+06 501463 0 -1.55588e+06 515885 0 -1.5579e+06 530398 0 -1.55991e+06 545001 0 -1.56193e+06 559693 0 -1.56395e+06 574471 0 -1.56597e+06 589334 0 -1.56798e+06 604280 0 -1.56998e+06 619307 0 -1.57197e+06 634413 0 -1.57395e+06 649596 0 -1.57592e+06 664853 0 -1.57787e+06 680183 0 -1.5798e+06 695584 0 -1.58172e+06 711052 0 -1.58361e+06 726586 0 -1.58549e+06 742183 0 -1.58734e+06 757841 0 -1.58917e+06 773557 0 -1.59097e+06 789330 0 -1.59275e+06 805156 0 -1.5945e+06 821033 0 -1.59623e+06 836959 0 -1.59793e+06 852931 0 -1.5996e+06 868947 0 -1.60125e+06 885003 0 -1.60287e+06 901099 0 -1.60445e+06 917231 0 -1.60602e+06 933397 0 -1.60755e+06 949593 0 -1.60906e+06 965819 0 -1.61054e+06 982071 0 -1.61199e+06 998347 0 -1.61342e+06 1.01464e+06 0 -1.61482e+06 1.03096e+06 0 -1.61619e+06 1.04729e+06 0 -1.61755e+06 1.06364e+06 0 -1.61887e+06 1.08e+06 0 -1.62018e+06 1.09637e+06 0 -1.62147e+06 1.11274e+06 0 -1.62274e+06 1.12912e+06 0 -1.62399e+06 1.14551e+06 0 -1.62522e+06 1.16189e+06 0 -1.62644e+06 1.17827e+06 0 -1.62764e+06 1.19465e+06 0 -1.62883e+06 1.21102e+06 0 -1.63001e+06 1.22738e+06 0 -1.63119e+06 1.24373e+06 0 -1.63235e+06 1.26006e+06 0 -1.63352e+06 1.27639e+06 0 -1.63468e+06 1.29269e+06 0 -1.63585e+06 1.30898e+06 0 -1.63701e+06 1.32524e+06 0 -1.63819e+06 1.34148e+06 0 -1.63937e+06 1.3577e+06 0 -1.64057e+06 1.37389e+06 0 -1.64178e+06 1.39005e+06 0 -1.64301e+06 1.40618e+06 0 -1.64426e+06 1.42228e+06 0 -1.64554e+06 1.43834e+06 0 -1.64684e+06 1.45437e+06 0 -1.64818e+06 1.47036e+06 0 -1.64956e+06 1.48632e+06 0 -1.65098e+06 1.50223e+06 0 -1.65244e+06 1.51811e+06 0 -1.65396e+06 1.53394e+06 0 -1.65552e+06 1.54973e+06 0 -1.65715e+06 1.56548e+06 0 -1.65884e+06 1.58119e+06 0 -1.66061e+06 1.59685e+06 0 -1.66245e+06 1.61246e+06 0 -1.66437e+06 1.62803e+06 0 -1.66637e+06 1.64355e+06 0 -1.66847e+06 1.65903e+06 0 -1.67067e+06 1.67447e+06 0 -1.67297e+06 1.68986e+06 0 -1.67539e+06 1.7052e+06 0 -1.67793e+06 1.7205e+06 0 -1.68059e+06 1.73577e+06 0 -1.68339e+06 1.75099e+06 0 -1.68633e+06 1.76617e+06 0 -1.68942e+06 1.78132e+06 0 -1.69266e+06 1.79644e+06 0 -1.69607e+06 1.81152e+06 0 -1.69966e+06 1.82658e+06 0 -1.70343e+06 1.84161e+06 0 -1.7074e+06 1.85663e+06 0 -1.71156e+06 1.87163e+06 0 -1.50917e+06 0 0 -1.50811e+06 11327.5 0 -1.50718e+06 22685.9 0 -1.50639e+06 34079.6 0 -1.50572e+06 45512.5 0 -1.50518e+06 56988.6 0 -1.50476e+06 68511.8 0 -1.50446e+06 80085.9 0 -1.50429e+06 91714.6 0 -1.50423e+06 103401 0 -1.50429e+06 115150 0 -1.50446e+06 126963 0 -1.50474e+06 138844 0 -1.50513e+06 150797 0 -1.50562e+06 162823 0 -1.50621e+06 174926 0 -1.5069e+06 187108 0 -1.50768e+06 199372 0 -1.50855e+06 211720 0 -1.50951e+06 224154 0 -1.51056e+06 236676 0 -1.51168e+06 249288 0 -1.51288e+06 261991 0 -1.51415e+06 274788 0 -1.51549e+06 287678 0 -1.5169e+06 300664 0 -1.51836e+06 313745 0 -1.51989e+06 326924 0 -1.52147e+06 340200 0 -1.5231e+06 353574 0 -1.52478e+06 367047 0 -1.5265e+06 380617 0 -1.52826e+06 394286 0 -1.53005e+06 408053 0 -1.53188e+06 421918 0 -1.53374e+06 435879 0 -1.53562e+06 449938 0 -1.53753e+06 464092 0 -1.53946e+06 478340 0 -1.5414e+06 492683 0 -1.54336e+06 507118 0 -1.54533e+06 521644 0 -1.5473e+06 536260 0 -1.54928e+06 550964 0 -1.55126e+06 565756 0 -1.55325e+06 580632 0 -1.55523e+06 595592 0 -1.5572e+06 610633 0 -1.55917e+06 625754 0 -1.56113e+06 640952 0 -1.56308e+06 656226 0 -1.56502e+06 671573 0 -1.56694e+06 686992 0 -1.56885e+06 702479 0 -1.57074e+06 718034 0 -1.57261e+06 733653 0 -1.57446e+06 749334 0 -1.57629e+06 765075 0 -1.57809e+06 780874 0 -1.57988e+06 796727 0 -1.58164e+06 812634 0 -1.58337e+06 828590 0 -1.58508e+06 844595 0 -1.58677e+06 860645 0 -1.58843e+06 876738 0 -1.59006e+06 892871 0 -1.59167e+06 909043 0 -1.59325e+06 925250 0 -1.59481e+06 941490 0 -1.59634e+06 957761 0 -1.59784e+06 974060 0 -1.59932e+06 990386 0 -1.60077e+06 1.00673e+06 0 -1.6022e+06 1.0231e+06 0 -1.60361e+06 1.03949e+06 0 -1.60499e+06 1.0559e+06 0 -1.60635e+06 1.07232e+06 0 -1.60769e+06 1.08875e+06 0 -1.60901e+06 1.10519e+06 0 -1.61032e+06 1.12163e+06 0 -1.6116e+06 1.13808e+06 0 -1.61287e+06 1.15454e+06 0 -1.61412e+06 1.17099e+06 0 -1.61536e+06 1.18744e+06 0 -1.61659e+06 1.20389e+06 0 -1.61781e+06 1.22033e+06 0 -1.61902e+06 1.23677e+06 0 -1.62023e+06 1.25319e+06 0 -1.62143e+06 1.2696e+06 0 -1.62263e+06 1.28599e+06 0 -1.62384e+06 1.30237e+06 0 -1.62505e+06 1.31873e+06 0 -1.62626e+06 1.33507e+06 0 -1.62748e+06 1.35138e+06 0 -1.62872e+06 1.36767e+06 0 -1.62997e+06 1.38394e+06 0 -1.63124e+06 1.40018e+06 0 -1.63253e+06 1.41639e+06 0 -1.63385e+06 1.43257e+06 0 -1.63519e+06 1.44871e+06 0 -1.63657e+06 1.46482e+06 0 -1.63799e+06 1.4809e+06 0 -1.63944e+06 1.49694e+06 0 -1.64094e+06 1.51294e+06 0 -1.64249e+06 1.52891e+06 0 -1.64409e+06 1.54483e+06 0 -1.64576e+06 1.56072e+06 0 -1.64748e+06 1.57656e+06 0 -1.64928e+06 1.59236e+06 0 -1.65115e+06 1.60812e+06 0 -1.6531e+06 1.62384e+06 0 -1.65513e+06 1.63952e+06 0 -1.65726e+06 1.65515e+06 0 -1.65948e+06 1.67075e+06 0 -1.66181e+06 1.6863e+06 0 -1.66425e+06 1.70181e+06 0 -1.66681e+06 1.71728e+06 0 -1.66949e+06 1.73272e+06 0 -1.6723e+06 1.74812e+06 0 -1.67525e+06 1.76348e+06 0 -1.67835e+06 1.77882e+06 0 -1.68161e+06 1.79412e+06 0 -1.68503e+06 1.8094e+06 0 -1.68862e+06 1.82465e+06 0 -1.69238e+06 1.83989e+06 0 -1.69634e+06 1.85511e+06 0 -1.7005e+06 1.87032e+06 0 -1.70486e+06 1.88552e+06 0 -1.49977e+06 0 0 -1.49871e+06 11496.5 0 -1.49778e+06 23023 0 -1.49697e+06 34583.9 0 -1.4963e+06 46183 0 -1.49574e+06 57824.2 0 -1.49531e+06 69511.5 0 -1.495e+06 81248.4 0 -1.49481e+06 93038.7 0 -1.49474e+06 104886 0 -1.49478e+06 116793 0 -1.49493e+06 128764 0 -1.49518e+06 140801 0 -1.49554e+06 152908 0 -1.49601e+06 165087 0 -1.49657e+06 177341 0 -1.49723e+06 189673 0 -1.49798e+06 202085 0 -1.49882e+06 214579 0 -1.49975e+06 227158 0 -1.50076e+06 239823 0 -1.50185e+06 252576 0 -1.50301e+06 265418 0 -1.50425e+06 278352 0 -1.50555e+06 291377 0 -1.50692e+06 304497 0 -1.50835e+06 317710 0 -1.50983e+06 331018 0 -1.51137e+06 344423 0 -1.51297e+06 357923 0 -1.5146e+06 371519 0 -1.51628e+06 385212 0 -1.518e+06 399001 0 -1.51976e+06 412887 0 -1.52155e+06 426868 0 -1.52337e+06 440944 0 -1.52521e+06 455116 0 -1.52708e+06 469381 0 -1.52897e+06 483739 0 -1.53088e+06 498189 0 -1.5328e+06 512730 0 -1.53473e+06 527361 0 -1.53666e+06 542080 0 -1.53861e+06 556886 0 -1.54056e+06 571777 0 -1.5425e+06 586752 0 -1.54445e+06 601808 0 -1.54639e+06 616945 0 -1.54833e+06 632160 0 -1.55026e+06 647451 0 -1.55218e+06 662816 0 -1.55409e+06 678254 0 -1.55598e+06 693761 0 -1.55786e+06 709337 0 -1.55973e+06 724978 0 -1.56157e+06 740682 0 -1.5634e+06 756448 0 -1.56521e+06 772273 0 -1.56699e+06 788154 0 -1.56876e+06 804090 0 -1.5705e+06 820077 0 -1.57222e+06 836114 0 -1.57392e+06 852198 0 -1.57559e+06 868327 0 -1.57724e+06 884498 0 -1.57887e+06 900709 0 -1.58047e+06 916957 0 -1.58204e+06 933240 0 -1.58359e+06 949557 0 -1.58512e+06 965903 0 -1.58662e+06 982277 0 -1.5881e+06 998677 0 -1.58955e+06 1.0151e+06 0 -1.59099e+06 1.03154e+06 0 -1.5924e+06 1.048e+06 0 -1.59379e+06 1.06448e+06 0 -1.59516e+06 1.08097e+06 0 -1.59651e+06 1.09748e+06 0 -1.59785e+06 1.11399e+06 0 -1.59916e+06 1.13051e+06 0 -1.60046e+06 1.14703e+06 0 -1.60175e+06 1.16356e+06 0 -1.60303e+06 1.18009e+06 0 -1.60429e+06 1.19661e+06 0 -1.60555e+06 1.21313e+06 0 -1.6068e+06 1.22965e+06 0 -1.60804e+06 1.24615e+06 0 -1.60928e+06 1.26265e+06 0 -1.61052e+06 1.27913e+06 0 -1.61176e+06 1.2956e+06 0 -1.61301e+06 1.31205e+06 0 -1.61426e+06 1.32849e+06 0 -1.61552e+06 1.3449e+06 0 -1.6168e+06 1.3613e+06 0 -1.61808e+06 1.37767e+06 0 -1.61939e+06 1.39401e+06 0 -1.62072e+06 1.41033e+06 0 -1.62207e+06 1.42662e+06 0 -1.62346e+06 1.44288e+06 0 -1.62487e+06 1.45911e+06 0 -1.62632e+06 1.47531e+06 0 -1.62781e+06 1.49147e+06 0 -1.62935e+06 1.5076e+06 0 -1.63093e+06 1.5237e+06 0 -1.63257e+06 1.53975e+06 0 -1.63426e+06 1.55577e+06 0 -1.63602e+06 1.57175e+06 0 -1.63784e+06 1.5877e+06 0 -1.63974e+06 1.6036e+06 0 -1.64172e+06 1.61947e+06 0 -1.64378e+06 1.6353e+06 0 -1.64593e+06 1.65109e+06 0 -1.64818e+06 1.66684e+06 0 -1.65053e+06 1.68255e+06 0 -1.65299e+06 1.69823e+06 0 -1.65556e+06 1.71387e+06 0 -1.65826e+06 1.72948e+06 0 -1.66108e+06 1.74505e+06 0 -1.66405e+06 1.7606e+06 0 -1.66715e+06 1.77611e+06 0 -1.67041e+06 1.7916e+06 0 -1.67383e+06 1.80707e+06 0 -1.67742e+06 1.82252e+06 0 -1.68119e+06 1.83795e+06 0 -1.68514e+06 1.85337e+06 0 -1.68928e+06 1.86879e+06 0 -1.69363e+06 1.8842e+06 0 -1.69819e+06 1.89962e+06 0 -1.49029e+06 0 0 -1.48922e+06 11663.6 0 -1.48829e+06 23356.6 0 -1.48748e+06 35082.9 0 -1.48679e+06 46846.5 0 -1.48623e+06 58651.2 0 -1.48578e+06 70500.8 0 -1.48546e+06 82399 0 -1.48525e+06 94349.3 0 -1.48516e+06 106355 0 -1.48518e+06 118420 0 -1.48531e+06 130546 0 -1.48554e+06 142738 0 -1.48588e+06 154998 0 -1.48632e+06 167329 0 -1.48685e+06 179733 0 -1.48748e+06 192214 0 -1.48821e+06 204773 0 -1.48902e+06 217412 0 -1.48991e+06 230134 0 -1.49089e+06 242940 0 -1.49194e+06 255833 0 -1.49307e+06 268814 0 -1.49427e+06 281884 0 -1.49554e+06 295044 0 -1.49687e+06 308296 0 -1.49827e+06 321640 0 -1.49972e+06 335077 0 -1.50122e+06 348609 0 -1.50277e+06 362234 0 -1.50437e+06 375954 0 -1.50602e+06 389769 0 -1.5077e+06 403678 0 -1.50942e+06 417681 0 -1.51117e+06 431779 0 -1.51295e+06 445970 0 -1.51475e+06 460254 0 -1.51659e+06 474630 0 -1.51844e+06 489098 0 -1.5203e+06 503656 0 -1.52219e+06 518303 0 -1.52408e+06 533038 0 -1.52598e+06 547860 0 -1.52789e+06 562767 0 -1.52981e+06 577758 0 -1.53172e+06 592831 0 -1.53364e+06 607985 0 -1.53555e+06 623217 0 -1.53746e+06 638527 0 -1.53936e+06 653911 0 -1.54125e+06 669368 0 -1.54313e+06 684896 0 -1.545e+06 700493 0 -1.54685e+06 716157 0 -1.54869e+06 731885 0 -1.55051e+06 747676 0 -1.55232e+06 763527 0 -1.55411e+06 779436 0 -1.55588e+06 795401 0 -1.55762e+06 811419 0 -1.55935e+06 827489 0 -1.56106e+06 843606 0 -1.56274e+06 859771 0 -1.5644e+06 875979 0 -1.56604e+06 892229 0 -1.56766e+06 908518 0 -1.56925e+06 924844 0 -1.57082e+06 941205 0 -1.57236e+06 957597 0 -1.57389e+06 974020 0 -1.57539e+06 990470 0 -1.57687e+06 1.00695e+06 0 -1.57833e+06 1.02344e+06 0 -1.57977e+06 1.03996e+06 0 -1.58118e+06 1.0565e+06 0 -1.58258e+06 1.07305e+06 0 -1.58397e+06 1.08962e+06 0 -1.58533e+06 1.10619e+06 0 -1.58668e+06 1.12278e+06 0 -1.58801e+06 1.13937e+06 0 -1.58933e+06 1.15597e+06 0 -1.59064e+06 1.17257e+06 0 -1.59194e+06 1.18917e+06 0 -1.59323e+06 1.20577e+06 0 -1.59451e+06 1.22237e+06 0 -1.59579e+06 1.23896e+06 0 -1.59707e+06 1.25554e+06 0 -1.59834e+06 1.27211e+06 0 -1.59962e+06 1.28867e+06 0 -1.6009e+06 1.30522e+06 0 -1.60219e+06 1.32175e+06 0 -1.60349e+06 1.33826e+06 0 -1.6048e+06 1.35476e+06 0 -1.60612e+06 1.37123e+06 0 -1.60746e+06 1.38768e+06 0 -1.60883e+06 1.40411e+06 0 -1.61022e+06 1.42051e+06 0 -1.61163e+06 1.43688e+06 0 -1.61308e+06 1.45323e+06 0 -1.61457e+06 1.46955e+06 0 -1.61609e+06 1.48583e+06 0 -1.61766e+06 1.50209e+06 0 -1.61928e+06 1.51831e+06 0 -1.62094e+06 1.5345e+06 0 -1.62267e+06 1.55065e+06 0 -1.62445e+06 1.56677e+06 0 -1.62631e+06 1.58285e+06 0 -1.62823e+06 1.5989e+06 0 -1.63023e+06 1.61491e+06 0 -1.63232e+06 1.63089e+06 0 -1.63449e+06 1.64683e+06 0 -1.63676e+06 1.66274e+06 0 -1.63913e+06 1.67861e+06 0 -1.64161e+06 1.69445e+06 0 -1.64419e+06 1.71026e+06 0 -1.6469e+06 1.72604e+06 0 -1.64974e+06 1.74179e+06 0 -1.65271e+06 1.75751e+06 0 -1.65582e+06 1.7732e+06 0 -1.65908e+06 1.78888e+06 0 -1.6625e+06 1.80453e+06 0 -1.66608e+06 1.82017e+06 0 -1.66984e+06 1.8358e+06 0 -1.67378e+06 1.85142e+06 0 -1.67791e+06 1.86704e+06 0 -1.68224e+06 1.88266e+06 0 -1.68677e+06 1.89828e+06 0 -1.69153e+06 1.91393e+06 0 -1.48071e+06 0 0 -1.47965e+06 11829.1 0 -1.47871e+06 23686.7 0 -1.47789e+06 35576.8 0 -1.4772e+06 47503.3 0 -1.47662e+06 59469.8 0 -1.47617e+06 71480.2 0 -1.47583e+06 83538.1 0 -1.47561e+06 95646.8 0 -1.4755e+06 107810 0 -1.4755e+06 120030 0 -1.47561e+06 132312 0 -1.47582e+06 144657 0 -1.47614e+06 157069 0 -1.47655e+06 169550 0 -1.47706e+06 182103 0 -1.47766e+06 194730 0 -1.47836e+06 207435 0 -1.47914e+06 220218 0 -1.48001e+06 233082 0 -1.48095e+06 246029 0 -1.48197e+06 259061 0 -1.48307e+06 272179 0 -1.48424e+06 285384 0 -1.48547e+06 298678 0 -1.48677e+06 312062 0 -1.48813e+06 325536 0 -1.48954e+06 339102 0 -1.49101e+06 352760 0 -1.49252e+06 366510 0 -1.49408e+06 380353 0 -1.49569e+06 394289 0 -1.49734e+06 408317 0 -1.49902e+06 422439 0 -1.50073e+06 436652 0 -1.50248e+06 450957 0 -1.50425e+06 465354 0 -1.50604e+06 479841 0 -1.50786e+06 494418 0 -1.50969e+06 509084 0 -1.51154e+06 523837 0 -1.5134e+06 538676 0 -1.51527e+06 553601 0 -1.51714e+06 568610 0 -1.51902e+06 583701 0 -1.52091e+06 598873 0 -1.52279e+06 614124 0 -1.52467e+06 629452 0 -1.52655e+06 644856 0 -1.52842e+06 660333 0 -1.53028e+06 675883 0 -1.53214e+06 691502 0 -1.53398e+06 707189 0 -1.53581e+06 722941 0 -1.53763e+06 738758 0 -1.53943e+06 754635 0 -1.54122e+06 770572 0 -1.54299e+06 786566 0 -1.54474e+06 802615 0 -1.54647e+06 818717 0 -1.54818e+06 834868 0 -1.54987e+06 851068 0 -1.55154e+06 867313 0 -1.55319e+06 883602 0 -1.55482e+06 899932 0 -1.55643e+06 916300 0 -1.55802e+06 932705 0 -1.55958e+06 949144 0 -1.56113e+06 965614 0 -1.56265e+06 982114 0 -1.56415e+06 998641 0 -1.56563e+06 1.01519e+06 0 -1.5671e+06 1.03177e+06 0 -1.56854e+06 1.04836e+06 0 -1.56997e+06 1.06497e+06 0 -1.57138e+06 1.0816e+06 0 -1.57277e+06 1.09824e+06 0 -1.57415e+06 1.1149e+06 0 -1.57551e+06 1.13156e+06 0 -1.57686e+06 1.14823e+06 0 -1.5782e+06 1.1649e+06 0 -1.57953e+06 1.18158e+06 0 -1.58085e+06 1.19826e+06 0 -1.58217e+06 1.21493e+06 0 -1.58348e+06 1.2316e+06 0 -1.58479e+06 1.24827e+06 0 -1.5861e+06 1.26493e+06 0 -1.58741e+06 1.28158e+06 0 -1.58873e+06 1.29822e+06 0 -1.59005e+06 1.31484e+06 0 -1.59138e+06 1.33145e+06 0 -1.59273e+06 1.34805e+06 0 -1.59409e+06 1.36462e+06 0 -1.59546e+06 1.38118e+06 0 -1.59686e+06 1.39771e+06 0 -1.59828e+06 1.41422e+06 0 -1.59973e+06 1.43071e+06 0 -1.60121e+06 1.44717e+06 0 -1.60273e+06 1.46361e+06 0 -1.60429e+06 1.48001e+06 0 -1.60588e+06 1.49639e+06 0 -1.60753e+06 1.51274e+06 0 -1.60923e+06 1.52906e+06 0 -1.61098e+06 1.54535e+06 0 -1.61279e+06 1.5616e+06 0 -1.61467e+06 1.57782e+06 0 -1.61662e+06 1.59401e+06 0 -1.61865e+06 1.61017e+06 0 -1.62075e+06 1.6263e+06 0 -1.62295e+06 1.64239e+06 0 -1.62523e+06 1.65845e+06 0 -1.62762e+06 1.67448e+06 0 -1.63011e+06 1.69048e+06 0 -1.63271e+06 1.70645e+06 0 -1.63543e+06 1.7224e+06 0 -1.63827e+06 1.73832e+06 0 -1.64124e+06 1.75421e+06 0 -1.64436e+06 1.77009e+06 0 -1.64762e+06 1.78594e+06 0 -1.65103e+06 1.80178e+06 0 -1.65461e+06 1.81761e+06 0 -1.65835e+06 1.83343e+06 0 -1.66228e+06 1.84925e+06 0 -1.66639e+06 1.86506e+06 0 -1.67069e+06 1.88089e+06 0 -1.6752e+06 1.89672e+06 0 -1.67992e+06 1.91257e+06 0 -1.68487e+06 1.92845e+06 0 -1.47106e+06 0 0 -1.46999e+06 11992.9 0 -1.46904e+06 24013.5 0 -1.46822e+06 36065.8 0 -1.46752e+06 48153.5 0 -1.46694e+06 60280.3 0 -1.46647e+06 72450 0 -1.46612e+06 84665.9 0 -1.46589e+06 96931.7 0 -1.46576e+06 109250 0 -1.46574e+06 121626 0 -1.46583e+06 134060 0 -1.46602e+06 146557 0 -1.46632e+06 159119 0 -1.46671e+06 171749 0 -1.46719e+06 184450 0 -1.46777e+06 197224 0 -1.46844e+06 210072 0 -1.46919e+06 222999 0 -1.47003e+06 236004 0 -1.47094e+06 249091 0 -1.47194e+06 262261 0 -1.473e+06 275515 0 -1.47413e+06 288855 0 -1.47534e+06 302281 0 -1.4766e+06 315796 0 -1.47792e+06 329400 0 -1.4793e+06 343093 0 -1.48073e+06 356877 0 -1.48221e+06 370752 0 -1.48374e+06 384717 0 -1.48531e+06 398774 0 -1.48692e+06 412921 0 -1.48857e+06 427160 0 -1.49025e+06 441489 0 -1.49195e+06 455908 0 -1.49369e+06 470417 0 -1.49545e+06 485015 0 -1.49723e+06 499701 0 -1.49903e+06 514474 0 -1.50084e+06 529333 0 -1.50267e+06 544277 0 -1.50451e+06 559305 0 -1.50635e+06 574415 0 -1.5082e+06 589606 0 -1.51005e+06 604877 0 -1.51191e+06 620225 0 -1.51376e+06 635650 0 -1.51561e+06 651148 0 -1.51745e+06 666720 0 -1.51929e+06 682362 0 -1.52112e+06 698072 0 -1.52294e+06 713850 0 -1.52475e+06 729692 0 -1.52654e+06 745596 0 -1.52833e+06 761561 0 -1.53009e+06 777585 0 -1.53184e+06 793664 0 -1.53358e+06 809798 0 -1.53529e+06 825983 0 -1.53699e+06 842218 0 -1.53867e+06 858501 0 -1.54033e+06 874828 0 -1.54197e+06 891198 0 -1.54359e+06 907608 0 -1.54519e+06 924057 0 -1.54677e+06 940541 0 -1.54834e+06 957059 0 -1.54988e+06 973608 0 -1.5514e+06 990187 0 -1.5529e+06 1.00679e+06 0 -1.55439e+06 1.02342e+06 0 -1.55586e+06 1.04007e+06 0 -1.55731e+06 1.05675e+06 0 -1.55874e+06 1.07344e+06 0 -1.56016e+06 1.09014e+06 0 -1.56157e+06 1.10686e+06 0 -1.56296e+06 1.12359e+06 0 -1.56434e+06 1.14033e+06 0 -1.56571e+06 1.15707e+06 0 -1.56707e+06 1.17383e+06 0 -1.56842e+06 1.19058e+06 0 -1.56977e+06 1.20733e+06 0 -1.57111e+06 1.22409e+06 0 -1.57246e+06 1.24084e+06 0 -1.5738e+06 1.25758e+06 0 -1.57514e+06 1.27432e+06 0 -1.57649e+06 1.29105e+06 0 -1.57784e+06 1.30777e+06 0 -1.57921e+06 1.32448e+06 0 -1.58058e+06 1.34117e+06 0 -1.58198e+06 1.35785e+06 0 -1.58339e+06 1.3745e+06 0 -1.58481e+06 1.39115e+06 0 -1.58627e+06 1.40777e+06 0 -1.58775e+06 1.42436e+06 0 -1.58926e+06 1.44094e+06 0 -1.59081e+06 1.45749e+06 0 -1.59239e+06 1.47402e+06 0 -1.59402e+06 1.49052e+06 0 -1.59569e+06 1.50699e+06 0 -1.59742e+06 1.52344e+06 0 -1.59919e+06 1.53986e+06 0 -1.60103e+06 1.55625e+06 0 -1.60293e+06 1.57261e+06 0 -1.60491e+06 1.58894e+06 0 -1.60695e+06 1.60524e+06 0 -1.60908e+06 1.62151e+06 0 -1.61129e+06 1.63775e+06 0 -1.61359e+06 1.65397e+06 0 -1.61599e+06 1.67015e+06 0 -1.61849e+06 1.68631e+06 0 -1.6211e+06 1.70245e+06 0 -1.62383e+06 1.71856e+06 0 -1.62668e+06 1.73464e+06 0 -1.62965e+06 1.75071e+06 0 -1.63277e+06 1.76676e+06 0 -1.63602e+06 1.78279e+06 0 -1.63943e+06 1.79882e+06 0 -1.643e+06 1.81483e+06 0 -1.64673e+06 1.83084e+06 0 -1.65063e+06 1.84685e+06 0 -1.65472e+06 1.86286e+06 0 -1.659e+06 1.87888e+06 0 -1.66348e+06 1.89492e+06 0 -1.66816e+06 1.91098e+06 0 -1.67307e+06 1.92707e+06 0 -1.6782e+06 1.94319e+06 0 -1.46132e+06 0 0 -1.46025e+06 12155.1 0 -1.4593e+06 24337.1 0 -1.45847e+06 36549.9 0 -1.45776e+06 48797.3 0 -1.45717e+06 61082.9 0 -1.4567e+06 73410.3 0 -1.45634e+06 85782.9 0 -1.45609e+06 98204.2 0 -1.45594e+06 110677 0 -1.45591e+06 123206 0 -1.45598e+06 135792 0 -1.45615e+06 148440 0 -1.45642e+06 161151 0 -1.45679e+06 173929 0 -1.45726e+06 186776 0 -1.45781e+06 199694 0 -1.45845e+06 212687 0 -1.45918e+06 225755 0 -1.45998e+06 238900 0 -1.46087e+06 252126 0 -1.46183e+06 265433 0 -1.46287e+06 278822 0 -1.46397e+06 292295 0 -1.46514e+06 305854 0 -1.46637e+06 319500 0 -1.46766e+06 333232 0 -1.46901e+06 347053 0 -1.4704e+06 360962 0 -1.47185e+06 374960 0 -1.47334e+06 389047 0 -1.47488e+06 403224 0 -1.47645e+06 417490 0 -1.47807e+06 431845 0 -1.47971e+06 446290 0 -1.48138e+06 460823 0 -1.48309e+06 475444 0 -1.48481e+06 490152 0 -1.48656e+06 504947 0 -1.48833e+06 519827 0 -1.49011e+06 534792 0 -1.4919e+06 549841 0 -1.49371e+06 564972 0 -1.49552e+06 580184 0 -1.49734e+06 595476 0 -1.49916e+06 610845 0 -1.50099e+06 626291 0 -1.50282e+06 641812 0 -1.50464e+06 657406 0 -1.50646e+06 673071 0 -1.50827e+06 688806 0 -1.51008e+06 704609 0 -1.51187e+06 720477 0 -1.51366e+06 736409 0 -1.51543e+06 752402 0 -1.5172e+06 768455 0 -1.51894e+06 784566 0 -1.52068e+06 800732 0 -1.5224e+06 816951 0 -1.5241e+06 833221 0 -1.52578e+06 849540 0 -1.52745e+06 865905 0 -1.5291e+06 882315 0 -1.53073e+06 898767 0 -1.53235e+06 915259 0 -1.53394e+06 931789 0 -1.53552e+06 948354 0 -1.53708e+06 964952 0 -1.53862e+06 981581 0 -1.54014e+06 998239 0 -1.54165e+06 1.01492e+06 0 -1.54314e+06 1.03163e+06 0 -1.54461e+06 1.04836e+06 0 -1.54607e+06 1.06511e+06 0 -1.54751e+06 1.08188e+06 0 -1.54894e+06 1.09866e+06 0 -1.55036e+06 1.11546e+06 0 -1.55177e+06 1.13227e+06 0 -1.55317e+06 1.14909e+06 0 -1.55456e+06 1.16591e+06 0 -1.55594e+06 1.18274e+06 0 -1.55732e+06 1.19958e+06 0 -1.55869e+06 1.21641e+06 0 -1.56006e+06 1.23324e+06 0 -1.56143e+06 1.25007e+06 0 -1.56281e+06 1.2669e+06 0 -1.56419e+06 1.28372e+06 0 -1.56557e+06 1.30053e+06 0 -1.56697e+06 1.31733e+06 0 -1.56837e+06 1.33412e+06 0 -1.5698e+06 1.3509e+06 0 -1.57124e+06 1.36766e+06 0 -1.57269e+06 1.38441e+06 0 -1.57418e+06 1.40113e+06 0 -1.57569e+06 1.41784e+06 0 -1.57723e+06 1.43453e+06 0 -1.5788e+06 1.4512e+06 0 -1.58042e+06 1.46785e+06 0 -1.58207e+06 1.48447e+06 0 -1.58377e+06 1.50107e+06 0 -1.58552e+06 1.51764e+06 0 -1.58732e+06 1.53419e+06 0 -1.58918e+06 1.55071e+06 0 -1.5911e+06 1.5672e+06 0 -1.5931e+06 1.58367e+06 0 -1.59516e+06 1.60012e+06 0 -1.5973e+06 1.61653e+06 0 -1.59953e+06 1.63292e+06 0 -1.60184e+06 1.64929e+06 0 -1.60425e+06 1.66563e+06 0 -1.60677e+06 1.68194e+06 0 -1.60938e+06 1.69824e+06 0 -1.61211e+06 1.71451e+06 0 -1.61497e+06 1.73076e+06 0 -1.61794e+06 1.747e+06 0 -1.62105e+06 1.76322e+06 0 -1.6243e+06 1.77943e+06 0 -1.6277e+06 1.79563e+06 0 -1.63125e+06 1.81183e+06 0 -1.63497e+06 1.82802e+06 0 -1.63885e+06 1.84422e+06 0 -1.64292e+06 1.86043e+06 0 -1.64717e+06 1.87664e+06 0 -1.65161e+06 1.89288e+06 0 -1.65626e+06 1.90914e+06 0 -1.66112e+06 1.92544e+06 0 -1.6662e+06 1.94177e+06 0 -1.67151e+06 1.95815e+06 0 -1.45149e+06 0 0 -1.45042e+06 12315.6 0 -1.44947e+06 24657.5 0 -1.44864e+06 37029.4 0 -1.44793e+06 49434.9 0 -1.44733e+06 61877.8 0 -1.44684e+06 74361.4 0 -1.44647e+06 86889.3 0 -1.44621e+06 99464.8 0 -1.44605e+06 112091 0 -1.446e+06 124771 0 -1.44606e+06 137508 0 -1.44621e+06 150305 0 -1.44646e+06 163164 0 -1.44681e+06 176089 0 -1.44725e+06 189081 0 -1.44778e+06 202143 0 -1.44839e+06 215278 0 -1.44909e+06 228487 0 -1.44987e+06 241772 0 -1.45073e+06 255135 0 -1.45167e+06 268578 0 -1.45267e+06 282101 0 -1.45374e+06 295708 0 -1.45488e+06 309398 0 -1.45608e+06 323173 0 -1.45734e+06 337033 0 -1.45865e+06 350980 0 -1.46002e+06 365014 0 -1.46143e+06 379135 0 -1.46289e+06 393344 0 -1.4644e+06 407641 0 -1.46594e+06 422025 0 -1.46752e+06 436497 0 -1.46913e+06 451056 0 -1.47077e+06 465703 0 -1.47244e+06 480436 0 -1.47413e+06 495254 0 -1.47585e+06 510158 0 -1.47758e+06 525146 0 -1.47933e+06 540217 0 -1.48109e+06 555370 0 -1.48287e+06 570604 0 -1.48465e+06 585918 0 -1.48645e+06 601310 0 -1.48824e+06 616779 0 -1.49004e+06 632323 0 -1.49184e+06 647940 0 -1.49364e+06 663630 0 -1.49543e+06 679390 0 -1.49722e+06 695218 0 -1.499e+06 711113 0 -1.50078e+06 727072 0 -1.50254e+06 743094 0 -1.5043e+06 759177 0 -1.50604e+06 775319 0 -1.50777e+06 791517 0 -1.50949e+06 807769 0 -1.51119e+06 824075 0 -1.51288e+06 840430 0 -1.51456e+06 856834 0 -1.51621e+06 873283 0 -1.51785e+06 889777 0 -1.51948e+06 906312 0 -1.52109e+06 922886 0 -1.52268e+06 939498 0 -1.52425e+06 956144 0 -1.52581e+06 972823 0 -1.52735e+06 989533 0 -1.52887e+06 1.00627e+06 0 -1.53038e+06 1.02304e+06 0 -1.53188e+06 1.03983e+06 0 -1.53336e+06 1.05664e+06 0 -1.53483e+06 1.07347e+06 0 -1.53628e+06 1.09031e+06 0 -1.53772e+06 1.10718e+06 0 -1.53916e+06 1.12405e+06 0 -1.54058e+06 1.14094e+06 0 -1.54199e+06 1.15784e+06 0 -1.5434e+06 1.17475e+06 0 -1.54481e+06 1.19166e+06 0 -1.54621e+06 1.20857e+06 0 -1.54761e+06 1.22548e+06 0 -1.54901e+06 1.2424e+06 0 -1.55041e+06 1.25931e+06 0 -1.55182e+06 1.27622e+06 0 -1.55324e+06 1.29312e+06 0 -1.55466e+06 1.31002e+06 0 -1.5561e+06 1.32691e+06 0 -1.55755e+06 1.34378e+06 0 -1.55901e+06 1.36064e+06 0 -1.5605e+06 1.37749e+06 0 -1.56201e+06 1.39433e+06 0 -1.56355e+06 1.41115e+06 0 -1.56512e+06 1.42795e+06 0 -1.56672e+06 1.44473e+06 0 -1.56836e+06 1.46149e+06 0 -1.57003e+06 1.47824e+06 0 -1.57176e+06 1.49496e+06 0 -1.57353e+06 1.51165e+06 0 -1.57535e+06 1.52833e+06 0 -1.57723e+06 1.54498e+06 0 -1.57918e+06 1.56161e+06 0 -1.58119e+06 1.57822e+06 0 -1.58327e+06 1.5948e+06 0 -1.58543e+06 1.61136e+06 0 -1.58767e+06 1.62789e+06 0 -1.58999e+06 1.64441e+06 0 -1.59241e+06 1.6609e+06 0 -1.59493e+06 1.67737e+06 0 -1.59755e+06 1.69382e+06 0 -1.60029e+06 1.71025e+06 0 -1.60314e+06 1.72667e+06 0 -1.60611e+06 1.74308e+06 0 -1.60922e+06 1.75947e+06 0 -1.61246e+06 1.77585e+06 0 -1.61584e+06 1.79223e+06 0 -1.61938e+06 1.8086e+06 0 -1.62308e+06 1.82498e+06 0 -1.62694e+06 1.84137e+06 0 -1.63098e+06 1.85776e+06 0 -1.63519e+06 1.87417e+06 0 -1.6396e+06 1.8906e+06 0 -1.64421e+06 1.90706e+06 0 -1.64902e+06 1.92356e+06 0 -1.65405e+06 1.94009e+06 0 -1.6593e+06 1.95668e+06 0 -1.66479e+06 1.97333e+06 0 -1.4416e+06 0 0 -1.44052e+06 12474.7 0 -1.43957e+06 24974.9 0 -1.43874e+06 37504.3 0 -1.43802e+06 50066.5 0 -1.43741e+06 62665.2 0 -1.43692e+06 75303.7 0 -1.43653e+06 87985.5 0 -1.43626e+06 100714 0 -1.43609e+06 113492 0 -1.43602e+06 126322 0 -1.43606e+06 139209 0 -1.43619e+06 152154 0 -1.43643e+06 165160 0 -1.43675e+06 178230 0 -1.43717e+06 191366 0 -1.43768e+06 204571 0 -1.43827e+06 217847 0 -1.43894e+06 231195 0 -1.4397e+06 244619 0 -1.44053e+06 258118 0 -1.44144e+06 271696 0 -1.44241e+06 285354 0 -1.44346e+06 299093 0 -1.44457e+06 312913 0 -1.44573e+06 326817 0 -1.44696e+06 340805 0 -1.44824e+06 354878 0 -1.44958e+06 369036 0 -1.45096e+06 383279 0 -1.45239e+06 397609 0 -1.45386e+06 412025 0 -1.45537e+06 426527 0 -1.45692e+06 441116 0 -1.4585e+06 455790 0 -1.46011e+06 470549 0 -1.46174e+06 485394 0 -1.46341e+06 500323 0 -1.46509e+06 515335 0 -1.46679e+06 530430 0 -1.46851e+06 545607 0 -1.47025e+06 560865 0 -1.472e+06 576202 0 -1.47375e+06 591618 0 -1.47552e+06 607110 0 -1.47728e+06 622678 0 -1.47906e+06 638321 0 -1.48083e+06 654035 0 -1.4826e+06 669821 0 -1.48437e+06 685675 0 -1.48614e+06 701597 0 -1.4879e+06 717585 0 -1.48965e+06 733636 0 -1.4914e+06 749749 0 -1.49314e+06 765922 0 -1.49486e+06 782152 0 -1.49658e+06 798439 0 -1.49828e+06 814779 0 -1.49997e+06 831171 0 -1.50165e+06 847612 0 -1.50331e+06 864101 0 -1.50496e+06 880636 0 -1.50659e+06 897214 0 -1.50821e+06 913832 0 -1.50981e+06 930490 0 -1.5114e+06 947184 0 -1.51297e+06 963914 0 -1.51453e+06 980675 0 -1.51607e+06 997467 0 -1.5176e+06 1.01429e+06 0 -1.51911e+06 1.03113e+06 0 -1.52061e+06 1.048e+06 0 -1.5221e+06 1.06489e+06 0 -1.52357e+06 1.08181e+06 0 -1.52504e+06 1.09874e+06 0 -1.5265e+06 1.11568e+06 0 -1.52794e+06 1.13264e+06 0 -1.52938e+06 1.14961e+06 0 -1.53082e+06 1.16659e+06 0 -1.53225e+06 1.18357e+06 0 -1.53368e+06 1.20057e+06 0 -1.5351e+06 1.21756e+06 0 -1.53653e+06 1.23456e+06 0 -1.53796e+06 1.25156e+06 0 -1.53939e+06 1.26855e+06 0 -1.54084e+06 1.28555e+06 0 -1.54229e+06 1.30254e+06 0 -1.54375e+06 1.31952e+06 0 -1.54523e+06 1.33649e+06 0 -1.54672e+06 1.35345e+06 0 -1.54824e+06 1.37041e+06 0 -1.54977e+06 1.38735e+06 0 -1.55134e+06 1.40427e+06 0 -1.55293e+06 1.42118e+06 0 -1.55456e+06 1.43808e+06 0 -1.55622e+06 1.45496e+06 0 -1.55792e+06 1.47182e+06 0 -1.55966e+06 1.48866e+06 0 -1.56146e+06 1.50548e+06 0 -1.5633e+06 1.52228e+06 0 -1.5652e+06 1.53907e+06 0 -1.56716e+06 1.55583e+06 0 -1.56919e+06 1.57257e+06 0 -1.57128e+06 1.58929e+06 0 -1.57345e+06 1.60599e+06 0 -1.5757e+06 1.62267e+06 0 -1.57804e+06 1.63933e+06 0 -1.58047e+06 1.65597e+06 0 -1.58299e+06 1.67259e+06 0 -1.58562e+06 1.6892e+06 0 -1.58835e+06 1.70579e+06 0 -1.5912e+06 1.72237e+06 0 -1.59417e+06 1.73894e+06 0 -1.59727e+06 1.7555e+06 0 -1.6005e+06 1.77205e+06 0 -1.60387e+06 1.7886e+06 0 -1.60739e+06 1.80515e+06 0 -1.61106e+06 1.82171e+06 0 -1.6149e+06 1.83828e+06 0 -1.61891e+06 1.85486e+06 0 -1.62309e+06 1.87146e+06 0 -1.62746e+06 1.88808e+06 0 -1.63202e+06 1.90473e+06 0 -1.63679e+06 1.92143e+06 0 -1.64176e+06 1.93816e+06 0 -1.64696e+06 1.95495e+06 0 -1.65237e+06 1.97181e+06 0 -1.65803e+06 1.98873e+06 0 -1.43162e+06 0 0 -1.43055e+06 12632.2 0 -1.4296e+06 25289.2 0 -1.42876e+06 37974.8 0 -1.42803e+06 50692.3 0 -1.42742e+06 63445.4 0 -1.42692e+06 76237.4 0 -1.42652e+06 89071.7 0 -1.42623e+06 101951 0 -1.42605e+06 114880 0 -1.42597e+06 127860 0 -1.42599e+06 140894 0 -1.42611e+06 153986 0 -1.42632e+06 167138 0 -1.42663e+06 180352 0 -1.42703e+06 193631 0 -1.42751e+06 206978 0 -1.42808e+06 220394 0 -1.42873e+06 233881 0 -1.42946e+06 247442 0 -1.43027e+06 261078 0 -1.43115e+06 274790 0 -1.4321e+06 288581 0 -1.43311e+06 302451 0 -1.43419e+06 316401 0 -1.43533e+06 330433 0 -1.43653e+06 344548 0 -1.43778e+06 358746 0 -1.43909e+06 373027 0 -1.44044e+06 387393 0 -1.44184e+06 401843 0 -1.44328e+06 416378 0 -1.44476e+06 430998 0 -1.44627e+06 445702 0 -1.44782e+06 460491 0 -1.4494e+06 475363 0 -1.45101e+06 490319 0 -1.45264e+06 505358 0 -1.45429e+06 520479 0 -1.45597e+06 535682 0 -1.45766e+06 550965 0 -1.45937e+06 566327 0 -1.46108e+06 581768 0 -1.46281e+06 597285 0 -1.46455e+06 612878 0 -1.46629e+06 628546 0 -1.46804e+06 644287 0 -1.46979e+06 660098 0 -1.47154e+06 675980 0 -1.47329e+06 691930 0 -1.47503e+06 707946 0 -1.47677e+06 724026 0 -1.47851e+06 740170 0 -1.48023e+06 756374 0 -1.48195e+06 772637 0 -1.48366e+06 788958 0 -1.48536e+06 805333 0 -1.48705e+06 821761 0 -1.48873e+06 838241 0 -1.4904e+06 854769 0 -1.49205e+06 871344 0 -1.49369e+06 887964 0 -1.49531e+06 904627 0 -1.49692e+06 921330 0 -1.49852e+06 938072 0 -1.5001e+06 954851 0 -1.50168e+06 971663 0 -1.50323e+06 988508 0 -1.50478e+06 1.00538e+06 0 -1.50631e+06 1.02229e+06 0 -1.50782e+06 1.03921e+06 0 -1.50933e+06 1.05617e+06 0 -1.51083e+06 1.07314e+06 0 -1.51231e+06 1.09013e+06 0 -1.51379e+06 1.10715e+06 0 -1.51526e+06 1.12417e+06 0 -1.51673e+06 1.14121e+06 0 -1.51818e+06 1.15827e+06 0 -1.51964e+06 1.17533e+06 0 -1.52109e+06 1.1924e+06 0 -1.52254e+06 1.20947e+06 0 -1.52399e+06 1.22655e+06 0 -1.52545e+06 1.24364e+06 0 -1.52691e+06 1.26072e+06 0 -1.52838e+06 1.2778e+06 0 -1.52985e+06 1.29488e+06 0 -1.53134e+06 1.31