<?xml version="1.0"?> 
<VTKFile type="StructuredGrid" version="0.1"> 
<StructuredGrid WholeExtent="0 127 0 127 0 0"> 
<Piece Extent="0 127 0 127 0 0"> 
<PointData>
<DataArray type="Float32" Name="E" format="ascii" NumberOfComponents="3"> 
3.50129e+06 -1.45028e+06 0 3.61537e+06 -851597 0 3.53263e+06 -480102 0 3.41156e+06 -217692 0 3.28008e+06 -21530.7 0 3.15176e+06 126892 0 3.02994e+06 242596 0 2.91625e+06 333834 0 2.81054e+06 406898 0 2.71244e+06 465891 0 2.62127e+06 513882 0 2.53639e+06 553077 0 2.45718e+06 585151 0 2.38305e+06 611379 0 2.31348e+06 632752 0 2.24803e+06 650053 0 2.18629e+06 663909 0 2.1279e+06 674827 0 2.07255e+06 683224 0 2.01997e+06 689442 0 1.96992e+06 693770 0 1.92217e+06 696449 0 1.87655e+06 697686 0 1.83288e+06 697657 0 1.79101e+06 696513 0 1.75081e+06 694386 0 1.71216e+06 691390 0 1.67495e+06 687625 0 1.63908e+06 683179 0 1.60447e+06 678131 0 1.57104e+06 672550 0 1.53871e+06 666496 0 1.50742e+06 660025 0 1.47712e+06 653186 0 1.44774e+06 646022 0 1.41924e+06 638574 0 1.39158e+06 630877 0 1.36471e+06 622964 0 1.33859e+06 614863 0 1.3132e+06 606601 0 1.2885e+06 598201 0 1.26445e+06 589686 0 1.24104e+06 581075 0 1.21824e+06 572386 0 1.19602e+06 563635 0 1.17436e+06 554837 0 1.15324e+06 546005 0 1.13265e+06 537151 0 1.11256e+06 528287 0 1.09296e+06 519423 0 1.07384e+06 510567 0 1.05517e+06 501727 0 1.03696e+06 492912 0 1.01917e+06 484127 0 1.0018e+06 475380 0 984850 466675 0 968294 458017 0 952126 449410 0 936338 440859 0 920920 432367 0 905863 423937 0 891160 415571 0 876801 407273 0 862780 399043 0 849090 390884 0 835723 382797 0 822673 374783 0 809934 366844 0 797499 358979 0 785364 351190 0 773522 343477 0 761968 335840 0 750696 328279 0 739703 320794 0 728982 313385 0 718531 306052 0 708343 298793 0 698415 291609 0 688743 284499 0 679322 277461 0 670149 270496 0 661221 263602 0 652533 256779 0 644082 250025 0 635865 243338 0 627878 236719 0 620118 230166 0 612583 223677 0 605269 217252 0 598174 210888 0 591295 204586 0 584629 198342 0 578173 192156 0 571926 186027 0 565885 179952 0 560047 173931 0 554411 167962 0 548974 162044 0 543734 156174 0 538689 150351 0 533838 144574 0 529178 138842 0 524708 133152 0 520427 127503 0 516332 121894 0 512422 116322 0 508696 110786 0 505152 105285 0 501790 99817.2 0 498607 94380.4 0 495602 88973.4 0 492775 83594.3 0 490125 78241.7 0 487650 72913.8 0 485349 67609 0 483223 62325.7 0 481269 57062.2 0 479488 51816.9 0 477878 46588.1 0 476439 41374.2 0 475171 36173.5 0 474072 30984.4 0 473144 25805.2 0 472385 20634.2 0 471794 15469.9 0 471373 10310.5 0 471120 5154.42 0 471036 0 0 3.58192e+06 -1.43654e+06 0 3.64935e+06 -832810 0 3.55509e+06 -459738 0 3.42631e+06 -197667 0 3.29033e+06 -3112.01 0 3.15884e+06 143886 0 3.03487e+06 258164 0 2.91959e+06 348167 0 2.81271e+06 420133 0 2.7137e+06 478171 0 2.62182e+06 525323 0 2.53639e+06 563782 0 2.45671e+06 595208 0 2.3822e+06 620859 0 2.31232e+06 641720 0 2.2466e+06 658563 0 2.18463e+06 672007 0 2.12604e+06 682554 0 2.07052e+06 690614 0 2.01779e+06 696527 0 1.9676e+06 700576 0 1.91974e+06 703001 0 1.87401e+06 704005 0 1.83024e+06 703761 0 1.78829e+06 702419 0 1.74801e+06 700108 0 1.70929e+06 696943 0 1.67202e+06 693021 0 1.63609e+06 688429 0 1.60143e+06 683245 0 1.56795e+06 677536 0 1.53559e+06 671363 0 1.50426e+06 664781 0 1.47392e+06 657837 0 1.44452e+06 650575 0 1.416e+06 643034 0 1.38831e+06 635249 0 1.36142e+06 627253 0 1.33529e+06 619073 0 1.30989e+06 610736 0 1.28517e+06 602265 0 1.26112e+06 593682 0 1.23771e+06 585006 0 1.2149e+06 576255 0 1.19268e+06 567445 0 1.17102e+06 558589 0 1.14991e+06 549702 0 1.12932e+06 540795 0 1.10924e+06 531880 0 1.08965e+06 522965 0 1.07053e+06 514061 0 1.05188e+06 505174 0 1.03367e+06 496313 0 1.0159e+06 487484 0 998549 478692 0 981610 469944 0 965070 461244 0 948921 452596 0 933151 444004 0 917752 435471 0 902715 427001 0 888032 418596 0 873694 410258 0 859695 401989 0 846027 393792 0 832683 385666 0 819656 377614 0 806941 369636 0 794530 361734 0 782419 353907 0 770601 346156 0 759071 338481 0 747824 330882 0 736855 323359 0 726160 315912 0 715732 308540 0 705569 301243 0 695666 294020 0 686018 286871 0 676622 279795 0 667473 272791 0 658568 265857 0 649904 258994 0 641476 252200 0 633282 245474 0 625318 238814 0 617580 232220 0 610067 225691 0 602775 219224 0 595701 212819 0 588842 206474 0 582196 200188 0 575760 193960 0 569531 187787 0 563508 181669 0 557688 175604 0 552069 169591 0 546648 163628 0 541424 157713 0 536395 151845 0 531558 146022 0 526912 140243 0 522455 134506 0 518185 128810 0 514102 123153 0 510202 117533 0 506486 111948 0 502950 106398 0 499595 100880 0 496419 95392.9 0 493420 89934.8 0 490598 84504.3 0 487952 79099.6 0 485480 73719.1 0 483181 68361.1 0 481055 63023.9 0 479101 57706 0 477318 52405.6 0 475706 47121 0 474264 41850.7 0 472990 36592.9 0 471886 31346.1 0 470950 26108.4 0 470182 20878.3 0 469582 15654.1 0 469149 10434 0 468884 5216.58 0 468786 0 0 3.65782e+06 -1.41906e+06 0 3.68364e+06 -812724 0 3.57725e+06 -438715 0 3.4409e+06 -177361 0 3.30041e+06 15495.4 0 3.1658e+06 160982 0 3.0397e+06 273798 0 2.92286e+06 362542 0 2.81482e+06 433397 0 2.71491e+06 490470 0 2.62234e+06 536779 0 2.53635e+06 574499 0 2.45622e+06 605273 0 2.38134e+06 630348 0 2.31115e+06 650696 0 2.24516e+06 667081 0 2.18296e+06 680113 0 2.12418e+06 690289 0 2.06849e+06 698013 0 2.0156e+06 703621 0 1.96528e+06 707392 0 1.9173e+06 709562 0 1.87147e+06 710333 0 1.82761e+06 709874 0 1.78557e+06 708335 0 1.74522e+06 705842 0 1.70643e+06 702507 0 1.66909e+06 698428 0 1.63311e+06 693690 0 1.5984e+06 688370 0 1.56488e+06 682534 0 1.53247e+06 676242 0 1.50111e+06 669548 0 1.47074e+06 662499 0 1.4413e+06 655138 0 1.41276e+06 647504 0 1.38505e+06 639631 0 1.35814e+06 631552 0 1.332e+06 623293 0 1.30658e+06 614881 0 1.28186e+06 606339 0 1.2578e+06 597688 0 1.23437e+06 588947 0 1.21156e+06 580133 0 1.18934e+06 571263 0 1.16768e+06 562350 0 1.14657e+06 553407 0 1.12599e+06 544447 0 1.10592e+06 535479 0 1.08633e+06 526514 0 1.06723e+06 517561 0 1.04858e+06 508627 0 1.03039e+06 499719 0 1.01263e+06 490845 0 995293 482009 0 978369 473217 0 961846 464474 0 945713 455784 0 929961 447151 0 914581 438577 0 899564 430067 0 884901 421622 0 870584 413244 0 856606 404936 0 842960 396700 0 829638 388535 0 816634 380445 0 803942 372429 0 791555 364488 0 779467 356622 0 767673 348833 0 756167 341120 0 744944 333482 0 734000 325921 0 723328 318436 0 712925 311025 0 702786 303690 0 692907 296428 0 683283 289240 0 673910 282125 0 664785 275081 0 655904 268108 0 647262 261205 0 638857 254371 0 630686 247604 0 622744 240904 0 615028 234270 0 607536 227699 0 600265 221191 0 593211 214744 0 586373 208357 0 579746 202029 0 573329 195757 0 567119 189542 0 561114 183380 0 555311 177272 0 549708 171214 0 544304 165206 0 539095 159246 0 534080 153332 0 529257 147464 0 524624 141639 0 520179 135855 0 515921 130111 0 511849 124406 0 507959 118738 0 504252 113105 0 500725 107505 0 497377 101938 0 494207 96400.3 0 491214 90891.5 0 488396 85409.7 0 485753 79953.1 0 483283 74520.1 0 480986 69109 0 478861 63718.2 0 476906 58346.1 0 475121 52990.8 0 473506 47650.8 0 472059 42324.4 0 470781 37009.8 0 469670 31705.5 0 468727 26409.7 0 467950 21120.8 0 467339 15837.1 0 466895 10556.8 0 466617 5278.34 0 466505 0 0 3.72982e+06 -1.39834e+06 0 3.718e+06 -791362 0 3.59913e+06 -417059 0 3.45532e+06 -156775 0 3.31034e+06 34285.8 0 3.17265e+06 178178 0 3.04444e+06 289499 0 2.92605e+06 376959 0 2.81687e+06 446688 0 2.71609e+06 502788 0 2.62283e+06 548249 0 2.53628e+06 585227 0 2.45571e+06 615348 0 2.38046e+06 639846 0 2.30996e+06 659680 0 2.24371e+06 675606 0 2.18129e+06 688228 0 2.12231e+06 698033 0 2.06645e+06 705421 0 2.01342e+06 710724 0 1.96296e+06 714217 0 1.91486e+06 716134 0 1.86892e+06 716671 0 1.82497e+06 715999 0 1.78285e+06 714262 0 1.74242e+06 711586 0 1.70356e+06 708082 0 1.66617e+06 703846 0 1.63013e+06 698963 0 1.59537e+06 693506 0 1.5618e+06 687543 0 1.52935e+06 681132 0 1.49795e+06 674326 0 1.46755e+06 667172 0 1.43809e+06 659713 0 1.40952e+06 651985 0 1.38179e+06 644025 0 1.35487e+06 635861 0 1.3287e+06 627524 0 1.30327e+06 619036 0 1.27854e+06 610422 0 1.25447e+06 601703 0 1.23104e+06 592896 0 1.20823e+06 584020 0 1.18601e+06 575089 0 1.16435e+06 566118 0 1.14324e+06 557120 0 1.12266e+06 548105 0 1.10259e+06 539086 0 1.08302e+06 530070 0 1.06392e+06 521067 0 1.04529e+06 512085 0 1.02711e+06 503131 0 1.00936e+06 494211 0 992036 485330 0 975127 476494 0 958619 467708 0 942504 458976 0 926769 450301 0 911408 441686 0 896410 433135 0 881766 424649 0 867470 416232 0 853514 407885 0 839889 399608 0 826589 391405 0 813607 383275 0 800937 375220 0 788573 367241 0 776508 359337 0 764738 351509 0 753255 343757 0 742056 336081 0 731135 328481 0 720487 320957 0 710108 313508 0 699993 306133 0 690137 298832 0 680536 291605 0 671187 284450 0 662085 277367 0 653227 270355 0 644608 263412 0 636226 256537 0 628076 249730 0 620156 242990 0 612461 236314 0 604991 229702 0 597740 223152 0 590706 216663 0 583887 210234 0 577279 203863 0 570881 197549 0 564689 191291 0 558701 185086 0 552915 178933 0 547329 172831 0 541940 166778 0 536746 160773 0 531745 154814 0 526935 148900 0 522315 143028 0 517882 137198 0 513636 131407 0 509573 125654 0 505693 119938 0 501994 114256 0 498475 108608 0 495134 102990 0 491970 97402.8 0 488982 91843.4 0 486168 86310.4 0 483528 80802.1 0 481061 75316.8 0 478765 69853 0 476639 64408.8 0 474683 58982.6 0 472896 53572.8 0 471278 48177.5 0 469827 42795.3 0 468543 37424.3 0 467425 32062.8 0 466473 26709.2 0 465687 21361.8 0 465066 16018.9 0 464610 10678.8 0 464319 5339.69 0 464192 0 0 3.79854e+06 -1.37476e+06 0 3.75228e+06 -768759 0 3.62073e+06 -394796 0 3.46956e+06 -135909 0 3.3201e+06 53254 0 3.17938e+06 195474 0 3.04909e+06 305264 0 2.92918e+06 391416 0 2.81887e+06 460007 0 2.71722e+06 515126 0 2.62328e+06 559733 0 2.53619e+06 595966 0 2.45518e+06 625432 0 2.37956e+06 649352 0 2.30876e+06 668673 0 2.24225e+06 684141 0 2.1796e+06 696351 0 2.12043e+06 705785 0 2.0644e+06 712838 0 2.01122e+06 717837 0 1.96064e+06 721052 0 1.91243e+06 722715 0 1.86638e+06 723020 0 1.82234e+06 722134 0 1.78013e+06 720200 0 1.73963e+06 717342 0 1.7007e+06 713669 0 1.66324e+06 709276 0 1.62715e+06 704247 0 1.59234e+06 698654 0 1.55873e+06 692563 0 1.52624e+06 686033 0 1.4948e+06 679116 0 1.46437e+06 671857 0 1.43488e+06 664298 0 1.40628e+06 656478 0 1.37853e+06 648429 0 1.35159e+06 640182 0 1.32541e+06 631764 0 1.29997e+06 623202 0 1.27523e+06 614516 0 1.25115e+06 605727 0 1.22772e+06 596855 0 1.2049e+06 587916 0 1.18267e+06 578924 0 1.16102e+06 569895 0 1.13991e+06 560840 0 1.11934e+06 551771 0 1.09927e+06 542699 0 1.07971e+06 533632 0 1.06062e+06 524580 0 1.04199e+06 515549 0 1.02382e+06 506548 0 1.00609e+06 497581 0 988779 488656 0 971884 479776 0 955392 470946 0 939292 462171 0 923576 453454 0 908232 444797 0 893253 436205 0 878629 427679 0 864353 419221 0 850417 410834 0 836813 402518 0 823534 394275 0 810575 386106 0 797927 378012 0 785585 369993 0 773543 362050 0 761795 354183 0 750336 346392 0 739160 338678 0 728262 331039 0 717638 323475 0 707282 315987 0 697190 308573 0 687357 301234 0 677779 293967 0 668453 286772 0 659374 279650 0 650538 272597 0 641941 265614 0 633581 258699 0 625452 251852 0 617553 245070 0 609880 238353 0 602430 231700 0 595199 225108 0 588185 218578 0 581385 212106 0 574796 205693 0 568416 199336 0 562241 193034 0 556271 186785 0 550501 180589 0 544930 174443 0 539556 168345 0 534377 162295 0 529389 156291 0 524593 150330 0 519985 144412 0 515564 138535 0 511328 132697 0 507275 126897 0 503404 121133 0 499713 115402 0 496202 109705 0 492867 104038 0 489709 98400.5 0 486725 92790.6 0 483915 87206.6 0 481278 81646.7 0 478812 76109.4 0 476517 70592.9 0 474391 65095.6 0 472433 59615.6 0 470644 54151.4 0 469022 48701.3 0 467566 43263.4 0 466276 37836.2 0 465151 32418 0 464191 27006.9 0 463395 21601.4 0 462763 16199.6 0 462295 10799.9 0 461990 5400.64 0 461848 0 0 3.86446e+06 -1.34862e+06 0 3.78635e+06 -744955 0 3.64205e+06 -371948 0 3.48361e+06 -114767 0 3.3297e+06 72394.9 0 3.186e+06 212866 0 3.05365e+06 321093 0 2.93224e+06 405914 0 2.82081e+06 473354 0 2.71831e+06 527483 0 2.6237e+06 571232 0 2.53608e+06 606716 0 2.45463e+06 635527 0 2.37865e+06 658867 0 2.30754e+06 677674 0 2.24078e+06 692683 0 2.17791e+06 704482 0 2.11855e+06 713546 0 2.06236e+06 720265 0 2.00903e+06 724959 0 1.95832e+06 727898 0 1.90999e+06 729307 0 1.86384e+06 729380 0 1.8197e+06 728280 0 1.77741e+06 726149 0 1.73683e+06 723109 0 1.69784e+06 719268 0 1.66032e+06 714718 0 1.62418e+06 709542 0 1.58932e+06 703814 0 1.55566e+06 697596 0 1.52313e+06 690947 0 1.49166e+06 683917 0 1.46119e+06 676553 0 1.43167e+06 668895 0 1.40305e+06 660981 0 1.37528e+06 652844 0 1.34832e+06 644513 0 1.32213e+06 636016 0 1.29667e+06 627377 0 1.27191e+06 618619 0 1.24783e+06 609761 0 1.22439e+06 600823 0 1.20157e+06 591820 0 1.17934e+06 582768 0 1.15769e+06 573680 0 1.13658e+06 564568 0 1.11601e+06 555445 0 1.09595e+06 546319 0 1.07639e+06 537201 0 1.05731e+06 528099 0 1.0387e+06 519019 0 1.02054e+06 509970 0 1.00282e+06 500957 0 985520 491986 0 968640 483061 0 952163 474188 0 936079 465369 0 920380 456609 0 905054 447911 0 890092 439277 0 875488 430710 0 861231 422212 0 847315 413784 0 833732 405428 0 820475 397145 0 807536 388936 0 794910 380803 0 782591 372745 0 770571 364762 0 758846 356856 0 747409 349026 0 736256 341272 0 725381 333594 0 714779 325992 0 704446 318464 0 694377 311011 0 684567 303632 0 675012 296325 0 665708 289091 0 656651 281928 0 647837 274835 0 639262 267812 0 630923 260857 0 622816 253968 0 614937 247146 0 607285 240388 0 599854 233693 0 592643 227059 0 585648 220487 0 578867 213973 0 572296 207517 0 565933 201117 0 559776 194772 0 553822 188480 0 548068 182239 0 542513 176049 0 537153 169906 0 531988 163811 0 527014 157761 0 522230 151755 0 517634 145791 0 513224 139867 0 508998 133982 0 504955 128134 0 501092 122322 0 497409 116543 0 493905 110797 0 490576 105081 0 487423 99393.3 0 484444 93733.1 0 481637 88098.2 0 479002 82487 0 476537 76897.8 0 474242 71328.9 0 472115 65778.6 0 470156 60245.1 0 468364 54726.8 0 466737 49222 0 465276 43728.9 0 463980 38245.8 0 462847 32771 0 461879 27302.8 0 461073 21839.4 0 460430 16379.2 0 459949 10920.3 0 459630 5461.19 0 459473 0 0 3.92793e+06 -1.32016e+06 0 3.8201e+06 -719991 0 3.66306e+06 -348538 0 3.49745e+06 -93350.7 0 3.33914e+06 91703.4 0 3.1925e+06 230355 0 3.05811e+06 336984 0 2.93523e+06 420452 0 2.8227e+06 486728 0 2.71936e+06 539860 0 2.62409e+06 582745 0 2.53594e+06 617479 0 2.45406e+06 645632 0 2.37773e+06 668392 0 2.30632e+06 686685 0 2.2393e+06 701235 0 2.17622e+06 712623 0 2.11667e+06 721317 0 2.06031e+06 727701 0 2.00684e+06 732091 0 1.956e+06 734753 0 1.90755e+06 735910 0 1.8613e+06 735751 0 1.81707e+06 734437 0 1.7747e+06 732109 0 1.73405e+06 728888 0 1.69499e+06 724878 0 1.65741e+06 720171 0 1.6212e+06 714850 0 1.58629e+06 708985 0 1.55259e+06 702640 0 1.52002e+06 695872 0 1.48852e+06 688730 0 1.45802e+06 681261 0 1.42847e+06 673504 0 1.39983e+06 665496 0 1.37203e+06 657270 0 1.34505e+06 648855 0 1.31884e+06 640278 0 1.29337e+06 631563 0 1.26861e+06 622732 0 1.24452e+06 613805 0 1.22107e+06 604800 0 1.19824e+06 595733 0 1.17602e+06 586620 0 1.15436e+06 577473 0 1.13326e+06 568304 0 1.11269e+06 559125 0 1.09264e+06 549946 0 1.07308e+06 540776 0 1.05401e+06 531623 0 1.03541e+06 522495 0 1.01725e+06 513398 0 999544 504338 0 982261 495321 0 965394 486351 0 948932 477433 0 932865 468571 0 917181 459768 0 901873 451028 0 886929 442352 0 872343 433743 0 858106 425204 0 844210 416735 0 830647 408339 0 817410 400016 0 804493 391767 0 791888 383594 0 779590 375496 0 767592 367474 0 755889 359528 0 744474 351659 0 733344 343865 0 722491 336148 0 711912 328506 0 701601 320938 0 691554 313445 0 681766 306026 0 672233 298680 0 662951 291406 0 653916 284203 0 645123 277070 0 636570 270006 0 628251 263010 0 620165 256080 0 612307 249217 0 604674 242417 0 597264 235681 0 590072 229005 0 583095 222391 0 576332 215835 0 569779 209336 0 563434 202893 0 557293 196504 0 551355 190168 0 545617 183884 0 540076 177649 0 534731 171462 0 529579 165322 0 524618 159226 0 519846 153174 0 515261 147164 0 510862 141194 0 506646 135262 0 502612 129366 0 498758 123506 0 495082 117679 0 491584 111884 0 488261 106118 0 485113 100381 0 482137 94670.9 0 479333 88985.4 0 476700 83323.1 0 474236 77682.2 0 471941 72061 0 469813 66458 0 467852 60871.2 0 466056 55299 0 464425 49739.7 0 462959 44191.6 0 461655 38652.9 0 460515 33121.9 0 459537 27596.8 0 458721 22076 0 458066 16557.6 0 457573 11040 0 457240 5521.36 0 457068 0 0 3.98924e+06 -1.28957e+06 0 3.85346e+06 -693913 0 3.68378e+06 -324584 0 3.51109e+06 -71664.8 0 3.34842e+06 111175 0 3.19888e+06 247939 0 3.06248e+06 352936 0 2.93815e+06 435029 0 2.82454e+06 500130 0 2.72036e+06 552257 0 2.62445e+06 594274 0 2.53578e+06 628254 0 2.45347e+06 655747 0 2.37679e+06 677927 0 2.30509e+06 695705 0 2.23782e+06 709797 0 2.17452e+06 720773 0 2.11478e+06 729098 0 2.05826e+06 735147 0 2.00464e+06 739234 0 1.95367e+06 741620 0 1.90511e+06 742523 0 1.85876e+06 742132 0 1.81444e+06 740606 0 1.77199e+06 738081 0 1.73126e+06 734678 0 1.69213e+06 730500 0 1.65449e+06 725637 0 1.61824e+06 720170 0 1.58328e+06 714169 0 1.54953e+06 707696 0 1.51692e+06 700809 0 1.48538e+06 693555 0 1.45485e+06 685980 0 1.42527e+06 678124 0 1.3966e+06 670022 0 1.36879e+06 661707 0 1.34179e+06 653207 0 1.31556e+06 644550 0 1.29008e+06 635759 0 1.2653e+06 626855 0 1.2412e+06 617858 0 1.21775e+06 608787 0 1.19492e+06 599656 0 1.17269e+06 590480 0 1.15103e+06 581274 0 1.12993e+06 572048 0 1.10937e+06 562814 0 1.08932e+06 553581 0 1.06977e+06 544359 0 1.05071e+06 535155 0 1.03211e+06 525977 0 1.01397e+06 516831 0 996272 507724 0 979001 498660 0 962148 489645 0 945700 480682 0 929648 471776 0 913981 462930 0 898689 454147 0 883763 445429 0 869196 436778 0 854977 428197 0 841100 419687 0 827557 411250 0 814340 402887 0 801444 394598 0 788860 386384 0 776583 378246 0 764607 370184 0 752925 362199 0 741532 354290 0 730423 346456 0 719592 338699 0 709035 331017 0 698746 323410 0 688721 315877 0 678955 308418 0 669444 301032 0 660183 293717 0 651169 286474 0 642397 279300 0 633865 272195 0 625567 265159 0 617501 258188 0 609663 251283 0 602050 244442 0 594658 237664 0 587485 230947 0 580527 224289 0 573781 217691 0 567246 211149 0 560917 204663 0 554793 198231 0 548870 191851 0 543147 185523 0 537621 179244 0 532289 173012 0 527150 166827 0 522202 160686 0 517442 154588 0 512868 148532 0 508479 142515 0 504272 136536 0 500247 130593 0 496400 124685 0 492732 118810 0 489240 112966 0 485922 107151 0 482778 101365 0 479806 95604.2 0 477005 89868.2 0 474373 84154.8 0 471910 78462.4 0 469614 72789.3 0 467484 67133.7 0 465520 61493.8 0 463721 55868 0 462085 50254.6 0 460613 44651.7 0 459303 39057.6 0 458154 33470.7 0 457167 27889.1 0 456340 22311.1 0 455673 16734.9 0 455167 11158.9 0 454819 5581.14 0 454631 0 0 4.0486e+06 -1.25701e+06 0 3.88636e+06 -666764 0 3.70418e+06 -300106 0 3.52452e+06 -49713.4 0 3.35754e+06 130806 0 3.20515e+06 265615 0 3.06677e+06 368949 0 2.941e+06 449645 0 2.82633e+06 513559 0 2.72133e+06 564673 0 2.62478e+06 605818 0 2.53559e+06 639042 0 2.45287e+06 665874 0 2.37584e+06 687472 0 2.30384e+06 704735 0 2.23633e+06 718367 0 2.17281e+06 728934 0 2.11289e+06 736888 0 2.05621e+06 742603 0 2.00245e+06 746387 0 1.95135e+06 748497 0 1.90268e+06 749148 0 1.85623e+06 748526 0 1.81181e+06 746786 0 1.76928e+06 744065 0 1.72848e+06 740480 0 1.68928e+06 736134 0 1.65158e+06 731114 0 1.61527e+06 725501 0 1.58026e+06 719364 0 1.54647e+06 712765 0 1.51382e+06 705758 0 1.48224e+06 698392 0 1.45168e+06 690712 0 1.42208e+06 682756 0 1.39338e+06 674560 0 1.36555e+06 666155 0 1.33853e+06 657571 0 1.31229e+06 648833 0 1.28679e+06 639965 0 1.262e+06 630988 0 1.23789e+06 621922 0 1.21443e+06 612783 0 1.1916e+06 603587 0 1.16937e+06 594350 0 1.14771e+06 585083 0 1.12661e+06 575800 0 1.10605e+06 566509 0 1.086e+06 557222 0 1.06646e+06 547947 0 1.0474e+06 538692 0 1.02882e+06 529464 0 1.01069e+06 520270 0 992999 511115 0 975741 502004 0 958901 492943 0 942467 483936 0 926430 474985 0 910778 466095 0 895503 457269 0 880594 448508 0 866044 439815 0 851844 431192 0 837986 422641 0 824462 414163 0 811266 405758 0 798389 397429 0 785826 389174 0 773570 380996 0 761614 372894 0 749954 364868 0 738582 356919 0 727494 349046 0 716685 341248 0 706149 333526 0 695882 325879 0 685878 318306 0 676133 310807 0 666643 303380 0 657404 296025 0 648410 288741 0 639659 281527 0 631147 274381 0 622870 267303 0 614823 260291 0 607005 253345 0 599411 246462 0 592038 239642 0 584882 232883 0 577942 226183 0 571214 219542 0 564695 212957 0 558383 206428 0 552274 199953 0 546367 193529 0 540658 187157 0 535146 180833 0 529828 174557 0 524702 168326 0 519765 162140 0 515016 155996 0 510453 149894 0 506074 143830 0 501876 137804 0 497859 131814 0 494021 125859 0 490359 119935 0 486872 114043 0 483560 108179 0 480419 102343 0 477450 96533 0 474651 90746.6 0 472020 84982.4 0 469557 79238.7 0 467261 73513.7 0 465129 67805.8 0 463162 62113.1 0 461359 56433.9 0 459718 50766.5 0 458239 45109.1 0 456922 39460 0 455764 33817.5 0 454767 28179.6 0 453929 22544.8 0 453251 16911.2 0 452730 11277 0 452368 5640.55 0 452164 0 0 4.10616e+06 -1.22259e+06 0 3.91875e+06 -638589 0 3.72425e+06 -275122 0 3.53772e+06 -27501.6 0 3.3665e+06 150591 0 3.21129e+06 283383 0 3.07097e+06 385021 0 2.94379e+06 464300 0 2.82807e+06 527015 0 2.72227e+06 577110 0 2.62508e+06 617378 0 2.53538e+06 649843 0 2.45225e+06 676012 0 2.37487e+06 697027 0 2.30259e+06 713775 0 2.23483e+06 726948 0 2.1711e+06 737104 0 2.111e+06 744689 0 2.05415e+06 750070 0 2.00025e+06 753551 0 1.94903e+06 755385 0 1.90025e+06 755784 0 1.85369e+06 754930 0 1.80919e+06 752978 0 1.76657e+06 750061 0 1.7257e+06 746295 0 1.68644e+06 741780 0 1.64867e+06 736604 0 1.61231e+06 730846 0 1.57725e+06 724573 0 1.54341e+06 717846 0 1.51072e+06 710719 0 1.47911e+06 703241 0 1.44852e+06 695455 0 1.41889e+06 687399 0 1.39017e+06 679109 0 1.36231e+06 670615 0 1.33527e+06 661946 0 1.30901e+06 653127 0 1.2835e+06 644182 0 1.2587e+06 635132 0 1.23459e+06 625994 0 1.21112e+06 616788 0 1.18828e+06 607528 0 1.16605e+06 598228 0 1.14439e+06 588901 0 1.12329e+06 579559 0 1.10273e+06 570213 0 1.08269e+06 560871 0 1.06315e+06 551543 0 1.0441e+06 542236 0 1.02552e+06 532958 0 1.0074e+06 523714 0 989726 514511 0 972479 505353 0 955652 496246 0 939232 487193 0 923209 478198 0 907573 469263 0 892314 460393 0 877422 451589 0 862890 442854 0 848708 434189 0 834868 425596 0 821363 417076 0 808186 408630 0 795329 400260 0 782786 391965 0 770550 383746 0 758615 375603 0 746975 367537 0 735624 359547 0 724558 351633 0 713769 343796 0 703254 336033 0 693008 328346 0 683025 320732 0 673301 313192 0 663832 305725 0 654613 298329 0 645640 291005 0 636909 283749 0 628417 276563 0 620159 269443 0 612132 262390 0 604332 255402 0 596757 248478 0 589402 241615 0 582265 234814 0 575342 228072 0 568631 221388 0 562129 214760 0 555832 208188 0 549739 201669 0 543846 195202 0 538152 188785 0 532653 182417 0 527348 176096 0 522234 169820 0 517309 163589 0 512571 157399 0 508018 151251 0 503648 145141 0 499459 139068 0 495450 133031 0 491618 127027 0 487962 121056 0 484481 115115 0 481173 109203 0 478036 103317 0 475070 97457.3 0 472272 91620.7 0 469643 85805.8 0 467179 80011 0 464881 74234.4 0 462748 68474.3 0 460777 62729 0 458969 56996.7 0 457323 51275.6 0 455838 45564 0 454512 39860.1 0 453346 34162.2 0 452339 28468.4 0 451490 22777.1 0 450798 17086.3 0 450264 11394.4 0 449887 5699.57 0 449666 0 0 4.16206e+06 -1.18642e+06 0 3.9506e+06 -609431 0 3.744e+06 -249649 0 3.5507e+06 -5034.37 0 3.37529e+06 170528 0 3.21732e+06 301241 0 3.07508e+06 401152 0 2.94652e+06 478994 0 2.82976e+06 540499 0 2.72316e+06 589567 0 2.62535e+06 628954 0 2.53515e+06 660657 0 2.45161e+06 686161 0 2.37389e+06 706594 0 2.30133e+06 722825 0 2.23332e+06 735540 0 2.16939e+06 745285 0 2.1091e+06 752500 0 2.0521e+06 757548 0 1.99806e+06 760727 0 1.94671e+06 762284 0 1.89781e+06 762432 0 1.85116e+06 761347 0 1.80657e+06 759183 0 1.76387e+06 756070 0 1.72292e+06 752122 0 1.68359e+06 747439 0 1.64577e+06 742107 0 1.60935e+06 736202 0 1.57425e+06 729793 0 1.54036e+06 722939 0 1.50763e+06 715693 0 1.47599e+06 708102 0 1.44536e+06 700210 0 1.4157e+06 692054 0 1.38696e+06 683669 0 1.35907e+06 675086 0 1.33202e+06 666332 0 1.30574e+06 657432 0 1.28022e+06 648410 0 1.25541e+06 639285 0 1.23128e+06 630077 0 1.20781e+06 620803 0 1.18497e+06 611478 0 1.16273e+06 602115 0 1.14107e+06 592728 0 1.11997e+06 583327 0 1.09941e+06 573924 0 1.07938e+06 564527 0 1.05985e+06 555145 0 1.0408e+06 545787 0 1.02223e+06 536457 0 1.00412e+06 527164 0 986453 517912 0 969217 508707 0 952402 499553 0 935996 490454 0 919987 481414 0 904366 472435 0 889122 463521 0 874247 454673 0 859732 445895 0 845567 437187 0 831745 428552 0 818259 419990 0 805101 411503 0 792263 403091 0 779739 394755 0 767523 386495 0 755608 378311 0 743989 370204 0 732659 362174 0 721612 354220 0 710845 346341 0 700350 338538 0 690124 330810 0 680162 323156 0 670459 315575 0 661010 308067 0 651811 300631 0 642858 293265 0 634147 285968 0 625674 278740 0 617435 271580 0 609427 264485 0 601646 257455 0 594089 250489 0 586752 243584 0 579632 236740 0 572726 229956 0 566031 223229 0 559545 216558 0 553264 209943 0 547185 203380 0 541307 196869 0 535626 190408 0 530141 183995 0 524848 177630 0 519746 171309 0 514832 165032 0 510105 158797 0 505562 152602 0 501201 146446 0 497020 140326 0 493018 134242 0 489193 128191 0 485543 122172 0 482067 116182 0 478763 110221 0 475629 104287 0 472665 98377.2 0 469869 92490.5 0 467239 86625.2 0 464775 80779.3 0 462476 74951.3 0 460340 69139.3 0 458366 63341.6 0 456553 57556.3 0 454901 51781.8 0 453408 46016.3 0 452075 40257.9 0 450899 34504.9 0 449882 28755.5 0 449021 23007.9 0 448316 17260.4 0 447768 11511.1 0 447375 5758.22 0 447137 0 0 4.21638e+06 -1.1486e+06 0 3.98187e+06 -579331 0 3.7634e+06 -223702 0 3.56345e+06 17682.8 0 3.38393e+06 190612 0 3.22324e+06 319188 0 3.07911e+06 417340 0 2.94918e+06 493727 0 2.8314e+06 554010 0 2.72402e+06 602044 0 2.62559e+06 640546 0 2.5349e+06 671485 0 2.45096e+06 696323 0 2.37291e+06 716171 0 2.30006e+06 731886 0 2.23181e+06 744142 0 2.16767e+06 753476 0 2.10721e+06 760323 0 2.05004e+06 765037 0 1.99586e+06 767913 0 1.94439e+06 769196 0 1.89538e+06 769092 0 1.84863e+06 767776 0 1.80395e+06 765399 0 1.76117e+06 762090 0 1.72015e+06 757961 0 1.68076e+06 753110 0 1.64287e+06 747622 0 1.6064e+06 741572 0 1.57124e+06 735026 0 1.53732e+06 728045 0 1.50455e+06 720679 0 1.47287e+06 712976 0 1.44221e+06 704978 0 1.41252e+06 696722 0 1.38375e+06 688242 0 1.35585e+06 679568 0 1.32877e+06 670729 0 1.30248e+06 661748 0 1.27694e+06 652648 0 1.25212e+06 643449 0 1.22798e+06 634170 0 1.2045e+06 624828 0 1.18165e+06 615437 0 1.15941e+06 606011 0 1.13775e+06 596562 0 1.11665e+06 587103 0 1.0961e+06 577643 0 1.07607e+06 568190 0 1.05654e+06 558755 0 1.0375e+06 549344 0 1.01894e+06 539963 0 1.00084e+06 530620 0 983179 521319 0 965955 512066 0 949152 502865 0 932758 493719 0 916763 484633 0 901156 475610 0 885928 466651 0 871069 457760 0 856570 448938 0 842422 440188 0 828618 431510 0 815150 422906 0 802010 414376 0 789191 405923 0 776687 397545 0 764490 389244 0 752595 381019 0 740995 372871 0 729685 364799 0 718659 356804 0 707911 348885 0 697437 341041 0 687231 333272 0 677289 325577 0 667605 317955 0 658176 310406 0 648997 302928 0 640064 295521 0 631372 288184 0 622918 280914 0 614698 273712 0 606709 266576 0 598946 259504 0 591406 252495 0 584086 245549 0 576983 238662 0 570094 231835 0 563416 225065 0 556945 218351 0 550678 211692 0 544615 205086 0 538750 198531 0 533083 192026 0 527610 185569 0 522330 179158 0 517239 172793 0 512336 166470 0 507618 160190 0 503084 153949 0 498732 147746 0 494559 141580 0 490564 135448 0 486745 129350 0 483101 123282 0 479629 117245 0 476329 111235 0 473198 105252 0 470236 99292.6 0 467441 93356.1 0 464811 87440.4 0 462346 81543.8 0 460045 75664.6 0 457905 69800.8 0 455927 63950.9 0 454110 58113 0 452451 52285.3 0 450951 46466 0 449609 40653.4 0 448424 34845.6 0 447396 29040.9 0 446523 23237.4 0 445805 17433.4 0 445242 11627 0 444834 5816.5 0 444579 0 0 4.26919e+06 -1.1092e+06 0 4.01253e+06 -548330 0 3.78246e+06 -197299 0 3.57597e+06 40644.3 0 3.3924e+06 210840 0 3.22904e+06 337223 0 3.08305e+06 433585 0 2.95178e+06 508498 0 2.83299e+06 567549 0 2.72485e+06 614541 0 2.62581e+06 652154 0 2.53464e+06 682326 0 2.45029e+06 706498 0 2.37191e+06 725761 0 2.29878e+06 740959 0 2.2303e+06 752756 0 2.16595e+06 761679 0 2.10531e+06 768157 0 2.04799e+06 772538 0 1.99367e+06 775112 0 1.94207e+06 776119 0 1.89296e+06 775764 0 1.84611e+06 774217 0 1.80133e+06 771629 0 1.75848e+06 768124 0 1.71738e+06 763814 0 1.67792e+06 758794 0 1.63998e+06 753150 0 1.60345e+06 746954 0 1.56825e+06 740272 0 1.53428e+06 733163 0 1.50147e+06 725677 0 1.46975e+06 717862 0 1.43906e+06 709757 0 1.40934e+06 701401 0 1.38055e+06 692826 0 1.35262e+06 684062 0 1.32552e+06 675137 0 1.29922e+06 666074 0 1.27366e+06 656896 0 1.24883e+06 647623 0 1.22468e+06 638273 0 1.2012e+06 628862 0 1.17834e+06 619405 0 1.1561e+06 609915 0 1.13444e+06 600406 0 1.11334e+06 590887 0 1.09279e+06 581369 0 1.07276e+06 571861 0 1.05323e+06 562371 0 1.0342e+06 552907 0 1.01565e+06 543475 0 997552 534081 0 979905 524731 0 962691 515430 0 945900 506181 0 929519 496989 0 913537 487857 0 897945 478788 0 882731 469784 0 867887 460849 0 853405 451983 0 839274 443190 0 825487 434469 0 812037 425822 0 798915 417251 0 786114 408755 0 773629 400335 0 761451 391992 0 749575 383726 0 737995 375537 0 726704 367424 0 715697 359387 0 704969 351427 0 694515 343542 0 684329 335731 0 674406 327995 0 664742 320332 0 655332 312742 0 646172 305223 0 637258 297775 0 628585 290395 0 620150 283084 0 611948 275840 0 603976 268662 0 596231 261548 0 588709 254497 0 581406 247508 0 574320 240579 0 567446 233709 0 560783 226897 0 554328 220140 0 548076 213437 0 542026 206787 0 536175 200188 0 530521 193639 0 525060 187137 0 519792 180682 0 514