<?xml version="1.0"?> 
<VTKFile type="StructuredGrid" version="0.1"> 
<StructuredGrid WholeExtent="0 127 0 127 0 0"> 
<Piece Extent="0 127 0 127 0 0"> 
<PointData>
<DataArray type="Float32" Name="E" format="ascii" NumberOfComponents="3"> 
2.6226e-06 0.000137329 0 -3.18336e-07 551.42 0 2.16802e-07 876.227 0 -9.33505e-08 1009.83 0 6.24859e-08 1040.33 0 -1.04774e-09 1019.54 0 -4.58676e-08 974.021 0 -7.10133e-08 917.036 0 1.30502e-07 855.662 0 -5.82077e-09 793.727 0 2.56114e-08 733.363 0 -4.28408e-08 675.73 0 5.54137e-08 621.429 0 -3.53903e-08 570.723 0 -7.63685e-08 523.675 0 4.98258e-08 480.219 0 1.72295e-08 440.218 0 9.96515e-08 403.49 0 -3.76254e-07 369.833 0 2.98955e-07 339.035 0 -1.6205e-07 310.882 0 5.02914e-08 285.169 0 6.61239e-08 261.695 0 -6.51926e-09 240.274 0 -7.54371e-08 220.728 0 9.31323e-10 202.894 0 -2.04891e-08 186.619 0 8.00937e-08 171.765 0 -6.33299e-08 158.202 0 9.87202e-08 145.813 0 -3.33413e-07 134.492 0 2.32831e-07 124.14 0 1.86265e-09 114.669 0 -8.19564e-08 105.998 0 3.72529e-09 98.0541 0 2.10479e-07 90.7713 0 -1.04308e-07 84.0894 0 -7.07805e-08 77.9542 0 1.93715e-07 72.3164 0 -4.84288e-08 67.1316 0 -5.96046e-08 62.3596 0 1.63913e-07 57.9639 0 -1.00583e-07 53.9116 0 -1.15484e-07 50.1728 0 -9.31323e-08 46.7206 0 2.34693e-07 43.5305 0 -1.49012e-07 40.5803 0 -1.08033e-07 37.8498 0 1.82539e-07 35.3209 0 -4.84288e-08 32.9768 0 -1.22935e-07 30.8026 0 -2.98023e-08 28.7845 0 2.6077e-07 26.9101 0 -2.01166e-07 25.1679 0 8.9407e-08 23.5477 0 2.98023e-08 22.0399 0 1.11759e-07 20.6359 0 -2.75671e-07 19.3279 0 3.72529e-07 18.1085 0 -8.9407e-08 16.9712 0 -8.19564e-08 15.9099 0 -1.41561e-07 14.919 0 5.06639e-07 13.9935 0 -6.25849e-07 13.1286 0 4.02331e-07 12.32 0 -3.35276e-07 11.5637 0 3.72529e-07 10.8561 0 -3.7998e-07 10.1938 0 4.02331e-07 9.57353 0 -4.02331e-07 8.99259 0 4.17233e-07 8.44824 0 -3.8743e-07 7.93801 0 3.27826e-07 7.45961 0 -4.32134e-07 7.01093 0 4.47035e-07 6.58999 0 -3.72529e-07 6.19499 0 3.72529e-07 5.82421 0 -3.72529e-07 5.47607 0 3.42727e-07 5.14914 0 -3.27826e-07 4.84204 0 4.61936e-07 4.55347 0 -3.42727e-07 4.2823 0 3.57628e-07 4.02735 0 -3.42727e-07 3.78766 0 3.27826e-07 3.56226 0 -3.72529e-07 3.35021 0 4.02331e-07 3.15071 0 -3.42727e-07 2.96296 0 2.68221e-07 2.78623 0 -3.57628e-07 2.61982 0 3.57628e-07 2.46311 0 -3.72529e-07 2.31548 0 2.68221e-07 2.17636 0 -3.27826e-07 2.04525 0 3.42727e-07 1.92161 0 -3.42727e-07 1.805 0 2.38419e-07 1.69498 0 -3.72529e-07 1.5911 0 3.8743e-07 1.49305 0 -1.93715e-07 1.40039 0 2.08616e-07 1.31282 0 -2.98023e-07 1.22998 0 2.68221e-07 1.15161 0 -2.98023e-07 1.07737 0 2.98023e-07 1.00704 0 -2.68221e-07 0.940296 0 2.08616e-07 0.876973 0 -1.78814e-07 0.816782 0 1.78814e-07 0.759536 0 -1.78814e-07 0.704996 0 1.78814e-07 0.653001 0 -1.78814e-07 0.603336 0 1.19209e-07 0.555832 0 -1.78814e-07 0.510314 0 1.49012e-07 0.466618 0 -1.49012e-07 0.4246 0 1.49012e-07 0.384092 0 -8.9407e-08 0.344943 0 8.9407e-08 0.30705 0 -1.19209e-07 0.270229 0 8.9407e-08 0.234389 0 -1.19209e-07 0.199366 0 1.19209e-07 0.165071 0 -8.9407e-08 0.131356 0 8.9407e-08 0.0981016 0 -2.98023e-08 0.0652163 0 2.98023e-07 0.032546 0 -2.14577e-06 2.86102e-06 0 10.2018 -3.00677e-06 0 8.02262 551.461 0 4.06777 876.262 0 1.41731 1009.85 0 -0.0237903 1040.34 0 -0.816798 1019.54 0 -1.25405 974.024 0 -1.49663 917.037 0 -1.62216 855.662 0 -1.67616 793.727 0 -1.68402 733.362 0 -1.66187 675.728 0 -1.6199 621.427 0 -1.56499 570.722 0 -1.50185 523.673 0 -1.43381 480.217 0 -1.36324 440.216 0 -1.29186 403.488 0 -1.22093 369.831 0 -1.15133 339.032 0 -1.08372 310.88 0 -1.01854 285.167 0 -0.956106 261.693 0 -0.896594 240.272 0 -0.840111 220.726 0 -0.786689 202.892 0 -0.736313 186.617 0 -0.688928 171.763 0 -0.644448 158.2 0 -0.602772 145.812 0 -0.563779 134.49 0 -0.52734 124.138 0 -0.493325 114.667 0 -0.461597 105.997 0 -0.432015 98.053 0 -0.40446 90.7703 0 -0.378788 84.0885 0 -0.354883 77.9533 0 -0.332622 72.3155 0 -0.311893 67.1308 0 -0.29259 62.3588 0 -0.274606 57.9631 0 -0.257854 53.9109 0 -0.242238 50.1722 0 -0.227681 46.72 0 -0.214101 43.5299 0 -0.20143 40.5797 0 -0.189599 37.8493 0 -0.178547 35.3204 0 -0.168219 32.9763 0 -0.158558 30.8021 0 -0.14952 28.7841 0 -0.141057 26.9097 0 -0.13313 25.1675 0 -0.125697 23.5473 0 -0.118726 22.0395 0 -0.112185 20.6356 0 -0.10604 19.3275 0 -0.100269 18.1082 0 -0.0948416 16.9709 0 -0.0897367 15.9096 0 -0.0849319 14.9188 0 -0.0804074 13.9933 0 -0.0761453 13.1284 0 -0.0721263 12.3198 0 -0.068337 11.5635 0 -0.0647616 10.8559 0 -0.0613872 10.1936 0 -0.0581993 9.57336 0 -0.0551898 8.99242 0 -0.052343 8.44807 0 -0.0496542 7.93784 0 -0.0471094 7.45945 0 -0.0447035 7.01078 0 -0.0424256 6.58985 0 -0.0402705 6.19485 0 -0.0382287 5.82408 0 -0.0362977 5.47596 0 -0.0344647 5.14903 0 -0.0327322 4.84192 0 -0.0310872 4.55337 0 -0.029531 4.28218 0 -0.0280549 4.02726 0 -0.0266551 3.78758 0 -0.0253291 3.56216 0 -0.0240715 3.35013 0 -0.0228793 3.15063 0 -0.0217498 2.96288 0 -0.020678 2.78615 0 -0.0196628 2.61975 0 -0.0186992 2.46304 0 -0.0177885 2.31541 0 -0.0169227 2.1763 0 -0.0161044 2.04518 0 -0.0153289 1.92155 0 -0.0145938 1.80495 0 -0.0138993 1.69492 0 -0.0132415 1.59107 0 -0.0126194 1.493 0 -0.0120314 1.40035 0 -0.0114762 1.31277 0 -0.0109524 1.22995 0 -0.0104579 1.15156 0 -0.00999284 1.07734 0 -0.00955389 1.00699 0 -0.00914339 0.940278 0 -0.0087559 0.876939 0 -0.00839458 0.816754 0 -0.00805588 0.759502 0 -0.00774069 0.704975 0 -0.00744654 0.652974 0 -0.00717526 0.603313 0 -0.00692308 0.555808 0 -0.0066928 0.510296 0 -0.00648092 0.466603 0 -0.00628896 0.42458 0 -0.00611631 0.384071 0 -0.00596157 0.344938 0 -0.00582589 0.307029 0 -0.00570832 0.270221 0 -0.00560864 0.234372 0 -0.00552734 0.199364 0 -0.00546378 0.165061 0 -0.00541883 0.131348 0 -0.00539115 0.0981055 0 -0.00538253 0.0652083 0 -0.00539255 0.0325476 0 -0.00542116 6.53075e-07 0 20.4056 -6.30086e-06 0 16.0456 551.583 0 8.13478 876.366 0 2.83404 1009.92 0 -0.0479256 1040.38 0 -1.6338 1019.56 0 -2.50822 974.034 0 -2.99335 917.041 0 -3.24437 855.663 0 -3.35234 793.725 0 -3.36806 733.359 0 -3.32375 675.724 0 -3.23981 621.422 0 -3.12998 570.716 0 -3.0037 523.667 0 -2.86761 480.211 0 -2.72647 440.209 0 -2.58372 403.482 0 -2.44184 369.825 0 -2.30265 339.026 0 -2.16743 310.874 0 -2.03707 285.161 0 -1.9122 261.688 0 -1.79317 240.266 0 -1.68021 220.721 0 -1.57336 202.887 0 -1.47261 186.613 0 -1.37784 171.758 0 -1.28888 158.196 0 -1.20553 145.808 0 -1.12754 134.486 0 -1.05467 124.135 0 -0.986638 114.664 0 -0.923179 105.993 0 -0.864022 98.0498 0 -0.808907 90.7672 0 -0.757566 84.0856 0 -0.709754 77.9506 0 -0.665235 72.313 0 -0.623776 67.1284 0 -0.585169 62.3565 0 -0.549204 57.961 0 -0.515699 53.9088 0 -0.48447 50.1702 0 -0.455354 46.7182 0 -0.428196 43.5282 0 -0.402853 40.5781 0 -0.379192 37.8477 0 -0.357088 35.3189 0 -0.336431 32.9749 0 -0.317111 30.8008 0 -0.299034 28.7828 0 -0.282109 26.9084 0 -0.266254 25.1664 0 -0.251389 23.5462 0 -0.237448 22.0385 0 -0.224365 20.6346 0 -0.212077 19.3266 0 -0.200533 18.1073 0 -0.189679 16.9701 0 -0.17947 15.9088 0 -0.16986 14.918 0 -0.160812 13.9925 0 -0.152287 13.1277 0 -0.14425 12.3191 0 -0.136671 11.5629 0 -0.129521 10.8553 0 -0.122771 10.193 0 -0.116397 9.5728 0 -0.110377 8.99189 0 -0.104685 8.44756 0 -0.0993051 7.93736 0 -0.0942174 7.45899 0 -0.0894046 7.01034 0 -0.0848498 6.58943 0 -0.0805383 6.19445 0 -0.0764566 5.8237 0 -0.0725922 5.47559 0 -0.068929 5.14868 0 -0.0654619 4.84159 0 -0.0621738 4.55304 0 -0.05906 4.28187 0 -0.056108 4.02697 0 -0.0533089 3.78729 0 -0.0506568 3.5619 0 -0.0481418 3.34987 0 -0.0457577 3.15038 0 -0.0434978 2.96265 0 -0.0413555 2.78593 0 -0.0393236 2.61954 0 -0.0373984 2.46284 0 -0.035575 2.31522 0 -0.033845 2.17612 0 -0.0322078 2.045 0 -0.0306565 1.92138 0 -0.0291871 1.80478 0 -0.0277974 1.69477 0 -0.0264821 1.59092 0 -0.0252379 1.49286 0 -0.0240622 1.40021 0 -0.0229516 1.31264 0 -0.0219038 1.22982 0 -0.0209152 1.15145 0 -0.0199847 1.07722 0 -0.0191074 1.00689 0 -0.0182854 0.940176 0 -0.0175116 0.876844 0 -0.0167885 0.816665 0 -0.0161111 0.759418 0 -0.0154808 0.704894 0 -0.0148928 0.652899 0 -0.0143495 0.603241 0 -0.0138462 0.555742 0 -0.0133843 0.510232 0 -0.0129617 0.466545 0 -0.0125775 0.424526 0 -0.0122319 0.384023 0 -0.0119228 0.344891 0 -0.0116511 0.30699 0 -0.0114163 0.270186 0 -0.0112169 0.234341 0 -0.0110539 0.199335 0 -0.0109274 0.165038 0 -0.0108367 0.13133 0 -0.0107821 0.0980904 0 -0.0107648 0.0651999 0 -0.0107843 0.0325413 0 -0.0108433 -1.05356e-08 0 30.6134 -6.08061e-06 0 24.0692 551.787 0 12.2003 876.539 0 4.24962 1010.02 0 -0.0727504 1040.43 0 -2.4512 1019.59 0 -3.76264 974.049 0 -4.49021 917.047 0 -4.86667 855.663 0 -5.02859 793.722 0 -5.05214 733.353 0 -4.98565 675.717 0 -4.85972 621.413 0 -4.69497 570.707 0 -4.50554 523.657 0 -4.3014 480.201 0 -4.08968 440.199 0 -3.87555 403.471 0 -3.66273 369.814 0 -3.45394 339.016 0 -3.2511 310.864 0 -3.05557 285.151 0 -2.86826 261.678 0 -2.68973 240.257 0 -2.52028 220.712 0 -2.36001 202.879 0 -2.20888 186.605 0 -2.06673 171.751 0 -1.93329 158.189 0 -1.80826 145.801 0 -1.69128 134.48 0 -1.58197 124.128 0 -1.47993 114.658 0 -1.38474 105.988 0 -1.29601 98.0445 0 -1.21333 90.7622 0 -1.13632 84.0808 0 -1.06461 77.946 0 -0.997828 72.3087 0 -0.93564 67.1243 0 -0.877731 62.3527 0 -0.823785 57.9573 0 -0.773527 53.9054 0 -0.726685 50.167 0 -0.683013 46.7151 0 -0.642275 43.5253 0 -0.604263 40.5753 0 -0.56877 37.8451 0 -0.535617 35.3164 0 -0.504631 32.9726 0 -0.475652 30.7986 0 -0.448538 28.7807 0 -0.42315 26.9064 0 -0.399368 25.1645 0 -0.377072 23.5444 0 -0.356161 22.0368 0 -0.336536 20.6329 0 -0.318106 19.325 0 -0.300791 18.1058 0 -0.284509 16.9686 0 -0.269196 15.9075 0 -0.254782 14.9167 0 -0.241209 13.9913 0 -0.228423 13.1265 0 -0.216367 12.318 0 -0.205 11.5618 0 -0.194274 10.8543 0 -0.18415 10.192 0 -0.174589 9.57188 0 -0.165558 8.99101 0 -0.157021 8.44672 0 -0.148952 7.93656 0 -0.141321 7.45822 0 -0.134102 7.0096 0 -0.12727 6.58873 0 -0.120803 6.19378 0 -0.11468 5.82305 0 -0.108884 5.47498 0 -0.10339 5.14809 0 -0.0981881 4.84102 0 -0.0932574 4.55251 0 -0.0885858 4.28136 0 -0.0841584 4.02648 0 -0.0799599 3.78682 0 -0.0759819 3.56145 0 -0.0722094 3.34944 0 -0.0686335 3.14997 0 -0.0652436 2.96225 0 -0.0620299 2.78555 0 -0.0589827 2.61918 0 -0.056095 2.46249 0 -0.0533593 2.31489 0 -0.0507653 2.1758 0 -0.048309 2.0447 0 -0.0459823 1.92109 0 -0.0437786 1.80451 0 -0.0416937 1.6945 0 -0.039721 1.59067 0 -0.037855 1.49262 0 -0.0360912 1.39999 0 -0.0344257 1.31243 0 -0.0328537 1.22962 0 -0.0313712 1.15125 0 -0.0299748 1.07704 0 -0.0286601 1.00671 0 -0.0274258 0.940009 0 -0.0262665 0.876686 0 -0.0251806 0.816516 0 -0.0241657 0.759276 0 -0.0232192 0.704761 0 -0.0223381 0.652774 0 -0.0215228 0.603123 0 -0.0207679 0.555633 0 -0.0200752 0.510128 0 -0.0194411 0.466451 0 -0.0188652 0.424438 0 -0.0183463 0.383942 0 -0.017883 0.344819 0 -0.0174755 0.306923 0 -0.0171228 0.270126 0 -0.0168244 0.234288 0 -0.0165794 0.19929 0 -0.0163898 0.165 0 -0.0162536 0.1313 0 -0.016172 0.0980668 0 -0.0161459 0.0651849 0 -0.0161753 0.0325337 0 -0.0162625 1.34739e-06 0 40.8271 -4.22448e-06 0 32.0937 552.073 0 16.2635 876.781 0 5.66347 1010.16 0 -0.0986093 1040.51 0 -3.26921 1019.63 0 -5.01742 974.071 0 -5.98731 917.056 0 -6.48912 855.664 0 -6.70493 793.718 0 -6.73627 733.345 0 -6.64759 675.706 0 -6.47965 621.401 0 -6.25996 570.693 0 -6.00737 523.643 0 -5.73517 480.186 0 -5.45287 440.184 0 -5.16735 403.457 0 -4.88359 369.8 0 -4.60519 339.002 0 -4.33474 310.851 0 -4.07403 285.138 0 -3.82428 261.665 0 -3.58623 240.245 0 -3.3603 220.7 0 -3.14661 202.867 0 -2.94511 186.594 0 -2.75557 171.74 0 -2.57766 158.178 0 -2.41095 145.791 0 -2.25498 134.471 0 -2.10923 124.12 0 -1.97318 114.65 0 -1.84626 105.98 0 -1.72795 98.037 0 -1.61772 90.7551 0 -1.51505 84.0741 0 -1.41943 77.9397 0 -1.33039 72.3027 0 -1.24748 67.1186 0 -1.17027 62.3473 0 -1.09834 57.9522 0 -1.03133 53.9006 0 -0.968877 50.1624 0 -0.910648 46.7108 0 -0.856334 43.5212 0 -0.805652 40.5714 0 -0.75833 37.8414 0 -0.714127 35.3129 0 -0.672814 32.9693 0 -0.634177 30.7954 0 -0.598025 28.7777 0 -0.564176 26.9036 0 -0.532467 25.1618 0 -0.502741 23.5418 0 -0.47486 22.0343 0 -0.448695 20.6306 0 -0.424122 19.3229 0 -0.401036 18.1037 0 -0.379328 16.9667 0 -0.358912 15.9056 0 -0.339693 14.9149 0 -0.321597 13.9896 0 -0.304548 13.1249 0 -0.288476 12.3164 0 -0.27332 11.5603 0 -0.259019 10.8529 0 -0.245521 10.1907 0 -0.232773 9.57059 0 -0.220733 8.98977 0 -0.209351 8.44554 0 -0.198592 7.93543 0 -0.188418 7.45715 0 -0.178792 7.00858 0 -0.169684 6.58775 0 -0.161061 6.19284 0 -0.152899 5.82216 0 -0.145169 5.47412 0 -0.137846 5.14727 0 -0.130909 4.84024 0 -0.124336 4.55176 0 -0.118107 4.28064 0 -0.112204 4.02579 0 -0.106607 3.78617 0 -0.101302 3.56082 0 -0.0962737 3.34884 0 -0.0915052 3.1494 0 -0.086986 2.9617 0 -0.0827009 2.78503 0 -0.0786385 2.61868 0 -0.0747885 2.46201 0 -0.0711406 2.31443 0 -0.0676827 2.17536 0 -0.0644073 2.04428 0 -0.0613055 1.92069 0 -0.058367 1.80412 0 -0.0555878 1.69414 0 -0.052957 1.59032 0 -0.0504696 1.49229 0 -0.0481179 1.39967 0 -0.0458973 1.31212 0 -0.0438014 1.22933 0 -0.041825 1.15098 0 -0.0399629 1.07678 0 -0.0382107 1.00646 0 -0.0365642 0.939774 0 -0.035019 0.876464 0 -0.0335713 0.816306 0 -0.0322181 0.759078 0 -0.0309561 0.704575 0 -0.0297815 0.652598 0 -0.0286941 0.602959 0 -0.0276882 0.555479 0 -0.0267643 0.509985 0 -0.0259189 0.466318 0 -0.0251512 0.424314 0 -0.024459 0.38383 0 -0.0238418 0.344714 0 -0.0232982 0.306831 0 -0.022828 0.270041 0 -0.0224302 0.234217 0 -0.0221037 0.199227 0 -0.0218507 0.164948 0 -0.021669 0.131257 0 -0.0215604 0.0980352 0 -0.0215254 0.0651618 0 -0.0215646 0.0325234 0 -0.0216812 -5.19212e-07 0 51.0489 -7.71135e-07 0 40.1196 552.44 0 20.3236 877.093 0 7.07502 1010.34 0 -0.125847 1040.61 0 -4.08802 1019.69 0 -6.27269 974.099 0 -7.48471 917.068 0 -8.11177 855.666 0 -8.38139 793.712 0 -8.42047 733.335 0 -8.30956 675.693 0 -8.09959 621.386 0 -7.82495 570.676 0 -7.50918 523.625 0 -7.16891 480.168 0 -6.81602 440.166 0 -6.45911 403.438 0 -6.1044 369.782 0 -5.7564 338.984 0 -5.41833 310.833 0 -5.09244 285.121 0 -4.78025 261.649 0 -4.48268 240.229 0 -4.20027 220.684 0 -3.93316 202.852 0 -3.68128 186.579 0 -3.44436 171.726 0 -3.22197 158.165 0 -3.01359 145.779 0 -2.81863 134.459 0 -2.63645 124.108 0 -2.46638 114.639 0 -2.30774 105.97 0 -2.15986 98.0274 0 -2.02207 90.746 0 -1.89373 84.0655 0 -1.77421 77.9315 0 -1.66292 72.295 0 -1.55928 67.1113 0 -1.46276 62.3404 0 -1.37286 57.9457 0 -1.2891 53.8944 0 -1.21104 50.1566 0 -1.13825 46.7052 0 -1.07036 43.5159 0 -1.00701 40.5665 0 -0.947863 37.8367 0 -0.892613 35.3084 0 -0.840972 32.965 0 -0.792679 30.7914 0 -0.747491 28.7739 0 -0.705182 26.9 0 -0.665548 25.1583 0 -0.628391 23.5386 0 -0.593542 22.0312 0 -0.560836 20.6277 0 -0.530122 19.32 0 -0.501266 18.1011 0 -0.474132 16.9641 0 -0.448613 15.9032 0 -0.424591 14.9126 0 -0.401972 13.9874 0 -0.380662 13.1228 0 -0.360572 12.3144 0 -0.341628 11.5584 0 -0.323753 10.851 0 -0.306882 10.1889 0 -0.290948 9.56893 0 -0.275898 8.98819 0 -0.261672 8.44403 0 -0.248223 7.93399 0 -0.235507 7.45577 0 -0.223474 7.00726 0 -0.21209 6.58649 0 -0.201312 6.19163 0 -0.19111 5.821 0 -0.181448 5.47302 0 -0.172295 5.14622 0 -0.163624 4.83923 0 -0.155409 4.55079 0 -0.147623 4.27972 0 -0.140244 4.02491 0 -0.133248 3.78532 0 -0.126618 3.56001 0 -0.120332 3.34807 0 -0.114372 3.14866 0 -0.108723 2.961 0 -0.103367 2.78435 0 -0.0982899 2.61803 0 -0.0934775 2.4614 0 -0.0889177 2.31384 0 -0.084596 2.1748 0 -0.0805019 2.04375 0 -0.0766247 1.92018 0 -0.0729521 1.80363 0 -0.0694779 1.69367 0 -0.0661899 1.58987 0 -0.0630808 1.49186 0 -0.0601416 1.39926 0 -0.0573658 1.31174 0 -0.054746 1.22896 0 -0.0522761 1.15062 0 -0.0499481 1.07645 0 -0.0477584 1.00615 0 -0.0457003 0.939474 0 -0.0437691 0.876178 0 -0.0419593 0.816037 0 -0.0402683 0.758823 0 -0.0386904 0.704336 0 -0.0372228 0.652372 0 -0.0358634 0.602748 0 -0.0346061 0.555281 0 -0.0334515 0.509802 0 -0.0323947 0.466145 0 -0.031435 0.424157 0 -0.0305697 0.383684 0 -0.0297985 0.344582 0 -0.029119 0.306711 0 -0.0285312 0.269935 0 -0.0280338 0.234123 0 -0.027626 0.199146 0 -0.0273096 0.16488 0 -0.0270824 0.131202 0 -0.0269467 0.0979934 0 -0.026903 0.0651339 0 -0.0269521 0.0325093 0 -0.0270968 -3.62983e-07 0 61.2808 2.42144e-06 0 48.1471 552.89 0 24.3799 877.474 0 8.48368 1010.57 0 -0.154807 1040.74 0 -4.90784 1019.75 0 -7.52858 974.133 0 -8.9825 917.082 0 -9.73465 855.667 0 -10.058 793.705 0 -10.1048 733.323 0 -9.97158 675.677 0 -9.71956 621.367 0 -9.38993 570.656 0 -9.01097 523.603 0 -8.60262 480.145 0 -8.17913 440.143 0 -7.75081 403.415 0 -7.32515 369.759 0 -6.90754 338.962 0 -6.50185 310.811 0 -6.11077 285.099 0 -5.73614 261.628 0 -5.37906 240.209 0 -5.04016 220.665 0 -4.71963 202.834 0 -4.41738 186.562 0 -4.13307 171.71 0 -3.86621 158.149 0 -3.61616 145.763 0 -3.38221 134.444 0 -3.1636 124.095 0 -2.95952 114.626 0 -2.76915 105.957 0 -2.5917 98.0157 0 -2.42636 90.7349 0 -2.27236 84.055 0 -2.12893 77.9216 0 -1.99539 72.2855 0 -1.87103 67.1024 0 -1.75522 62.3319 0 -1.64734 57.9377 0 -1.54683 53.8868 0 -1.45316 50.1494 0 -1.36582 46.6984 0 -1.28436 43.5095 0 -1.20834 40.5604 0 -1.13736 37.8309 0 -1.07107 35.303 0 -1.0091 32.9598 0 -0.951152 30.7865 0 -0.89693 28.7692 0 -0.846161 26.8955 0 -0.798603 25.1541 0 -0.754018 23.5346 0 -0.712201 22.0274 0 -0.672956 20.6241 0 -0.636102 19.3166 0 -0.601476 18.0978 0 -0.568918 16.961 0 -0.538297 15.9002 0 -0.509472 14.9098 0 -0.482331 13.9847 0 -0.456761 13.1202 0 -0.432653 12.312 0 -0.409922 11.5561 0 -0.388473 10.8488 0 -0.368229 10.1868 0 -0.34911 9.5669 0 -0.331051 8.98625 0 -0.313981 8.44218 0 -0.297842 7.93222 0 -0.282584 7.45408 0 -0.268146 7.00564 0 -0.254487 6.58494 0 -0.241554 6.19016 0 -0.229312 5.81959 0 -0.217718 5.47167 0 -0.206736 5.14493 0 -0.196332 4.838 0 -0.186473 4.54961 0 -0.177131 4.27859 0 -0.168277 4.02383 0 -0.159883 3.78429 0 -0.151927 3.55902 0 -0.144385 3.34712 0 -0.137232 3.14776 0 -0.130455 2.96013 0 -0.124028 2.78352 0 -0.117936 2.61724 0 -0.112161 2.46064 0 -0.10669 2.31312 0 -0.101504 2.17411 0 -0.0965917 2.04309 0 -0.0919392 1.91955 0 -0.0875325 1.80303 0 -0.0833641 1.69309 0 -0.0794182 1.58933 0 -0.0756879 1.49134 0 -0.0721615 1.39876 0 -0.0688302 1.31126 0 -0.0656874 1.22851 0 -0.0627232 1.1502 0 -0.05993 1.07604 0 -0.0573028 1.00576 0 -0.0548328 0.939105 0 -0.0525161 0.87583 0 -0.050344 0.815706 0 -0.0483153 0.758511 0 -0.0464219 0.704041 0 -0.0446612 0.652095 0 -0.0430294 0.602488 0 -0.0415215 0.555037 0 -0.0401356 0.509576 0 -0.0388681 0.465935 0 -0.037716 0.423963 0 -0.0366782 0.383506 0 -0.0357526 0.344419 0 -0.0349371 0.306565 0 -0.0342319 0.269804 0 -0.033635 0.234007 0 -0.0331457 0.199045 0 -0.0327658 0.164796 0 -0.0324934 0.131135 0 -0.0323306 0.0979416 0 -0.0322777 0.0650994 0 -0.0323369 0.0324918 0 -0.0325095 -9.40636e-08 0 71.5247 5.27501e-06 0 56.1765 553.422 0 28.4317 877.925 0 9.88888 1010.83 0 -0.185835 1040.88 0 -5.72887 1019.83 0 -8.78519 974.173 0 -10.4807 917.099 0 -11.3578 855.669 0 -11.7348 793.697 0 -11.7892 733.308 0 -11.6337 675.657 0 -11.3395 621.344 0 -10.9549 570.631 0 -10.5127 523.578 0 -10.0363 480.119 0 -9.54218 440.116 0 -9.04246 403.388 0 -8.54583 369.732 0 -8.0586 338.935 0 -7.58529 310.785 0 -7.12903 285.074 0 -6.69195 261.604 0 -6.27536 240.185 0 -5.87997 220.643 0 -5.50602 202.812 0 -5.1534 186.541 0 -4.82171 171.69 0 -4.51037 158.131 0 -4.21865 145.745 0 -3.94572 134.427 0 -3.69067 124.078 0 -3.45258 114.611 0 -3.2305 105.943 0 -3.02348 98.0018 0 -2.83059 90.7218 0 -2.65092 84.0426 0 -2.4836 77.9098 0 -2.32781 72.2744 0 -2.18272 67.0918 0 -2.04762 62.3219 0 -1.92176 57.9283 0 -1.80451 53.8779 0 -1.69523 50.1409 0 -1.59334 46.6904 0 -1.49831 43.5019 0 -1.40963 40.5532 0 -1.32683 37.8241 0 -1.24948 35.2965 0 -1.17719 32.9537 0 -1.10959 30.7807 0 -1.04634 28.7637 0 -0.98711 26.8903 0 -0.931628 25.1492 0 -0.879616 23.5298 0 -0.830833 22.0229 0 -0.785051 20.6198 0 -0.742057 19.3125 0 -0.701662 18.0939 0 -0.663681 16.9573 0 -0.627958 15.8967 0 -0.594332 14.9065 0 -0.562669 13.9815 0 -0.53284 13.1172 0 -0.504717 12.3091 0 -0.4782 11.5533 0 -0.453177 10.8462 0 -0.429561 10.1843 0 -0.407256 9.5645 0 -0.386189 8.98396 0 -0.366275 8.43999 0 -0.347449 7.93013 0 -0.329649 7.45208 0 -0.312806 7.00373 0 -0.296871 6.58312 0 -0.281784 6.18842 0 -0.267503 5.81793 0 -0.253978 5.47008 0 -0.241166 5.1434 0 -0.229029 4.83654 0 -0.217528 4.54822 0 -0.20663 4.27726 0 -0.1963 4.02255 0 -0.186509 3.78307 0 -0.177227 3.55786 0 -0.168429 3.34601 0 -0.160085 3.14669 0 -0.152179 2.95911 0 -0.144682 2.78255 0 -0.137574 2.61631 0 -0.130838 2.45975 0 -0.124455 2.31227 0 -0.118406 2.1733 0 -0.112675 2.04231 0 -0.107248 1.91881 0 -0.102108 1.80232 0 -0.0972445 1.69242 0 -0.0926417 1.58868 0 -0.0882898 1.49072 0 -0.0841768 1.39818 0 -0.0802899 1.3107 0 -0.0766241 1.22798 0 -0.0731661 1.14969 0 -0.0699076 1.07555 0 -0.066843 1.0053 0 -0.0639618 0.93867 0 -0.0612588 0.87542 0 -0.0587254 0.815317 0 -0.0563586 0.758144 0 -0.05415 0.703694 0 -0.0520959 0.651768 0 -0.0501924 0.602182 0 -0.0484335 0.554751 0 -0.0468166 0.509309 0 -0.0453381 0.465686 0 -0.043994 0.423734 0 -0.0427835 0.383295 0 -0.0417036 0.344228 0 -0.0407523 0.306392 0 -0.0399296 0.269649 0 -0.0392332 0.23387 0 -0.0386626 0.198927 0 -0.0382188 0.164698 0 -0.0379012 0.131055 0 -0.0377116 0.0978821 0 -0.0376495 0.0650593 0 -0.0377186 0.032471 0 -0.0379189 7.6415e-07 0 81.7827 -1.64658e-06 0 64.2082 554.036 0 32.4781 878.445 0 11.2901 1011.14 0 -0.219272 1041.05 0 -6.5513 1019.92 0 -10.0427 974.219 0 -11.9795 917.118 0 -12.9814 855.671 0 -13.4118 793.688 0 -13.4737 733.291 0 -13.2958 675.635 0 -12.9596 621.319 0 -12.5199 570.603 0 -12.0145 523.548 0 -11.4699 480.088 0 -10.9052 440.085 0 -10.334 403.357 0 -9.76643 369.701 0 -9.20958 338.905 0 -8.66863 310.756 0 -8.14718 285.045 0 -7.64766 261.576 0 -7.17155 240.158 0 -6.71968 220.617 0 -6.29231 202.787 0 -5.88931 186.517 0 -5.51024 171.667 0 -5.15443 158.109 0 -4.82104 145.725 0 -4.50913 134.407 0 -4.21765 124.06 0 -3.94556 114.593 0 -3.69176 105.926 0 -3.45517 97.9858 0 -3.23473 90.7066 0 -3.02941 84.0282 0 -2.8382 77.8962 0 -2.66015 72.2615 0 -2.49435 67.0797 0 -2.33995 62.3104 0 -2.19613 57.9174 0 -2.06213 53.8675 0 -1.93725 50.1312 0 -1.82081 46.6812 0 -1.71221 43.4931 0 -1.61087 40.5449 0 -1.51624 37.8163 0 -1.42786 35.289 0 -1.34525 32.9466 0 -1.26799 30.774 0 -1.1957 28.7573 0 -1.12802 26.8843 0 -1.06462 25.1434 0 -1.00518 23.5244 0 -0.949433 22.0178 0 -0.897116 20.6149 0 -0.847983 19.3078 0 -0.801821 18.0895 0 -0.758418 16.9531 0 -0.717595 15.8926 0 -0.679168 14.9026 0 -0.642985 13.9779 0 -0.608898 13.1137 0 -0.576759 12.3058 0 -0.546457 11.5501 0 -0.517862 10.8431 0 -0.490874 10.1814 0 -0.465385 9.56173 0 -0.441311 8.98132 0 -0.418554 8.43747 0 -0.39704 7.92772 0 -0.376699 7.44978 0 -0.357452 7.00153 0 -0.339241 6.58102 0 -0.322001 6.18641 0 -0.305681 5.816 0 -0.290225 5.46824 0 -0.275585 5.14164 0 -0.261715 4.83486 0 -0.248572 4.54661 0 -0.236118 4.27572 0 -0.224314 4.02108 0 -0.213125 3.78166 0 -0.202518 3.55651 0 -0.192464 3.34472 0 -0.18293 3.14546 0 -0.173894 2.95794 0 -0.165327 2.78142 0 -0.157205 2.61523 0 -0.149508 2.45872 0 -0.142214 2.31128 0 -0.135301 2.17236 0 -0.128752 2.04141 0 -0.12255 1.91795 0 -0.116676 1.8015 0 -0.111119 1.69163 0 -0.105859 1.58793 0 -0.100886 1.49001 0 -0.0961863 1.3975 0 -0.0917445 1.31006 0 -0.0875555 1.22736 0 -0.0836039 1.1491 0 -0.0798805 1.075 0 -0.0763785 1.00477 0 -0.0730858 0.938168 0 -0.0699973 0.874945 0 -0.0671024 0.814867 0 -0.0643975 0.75772 0 -0.061874 0.703295 0 -0.0595267 0.651393 0 -0.0573512 0.601829 0 -0.0553416 0.554421 0 -0.0534938 0.509 0 -0.0518044 0.465402 0 -0.0502682 0.423471 0 -0.0488853 0.383052 0 -0.0476508 0.344007 0 -0.0465639 0.306192 0 -0.0456238 0.269471 0 -0.044828 0.233713 0 -0.0441756 0.198793 0 -0.0436684 0.164583 0 -0.0433056 0.130964 0 -0.0430886 0.0978115 0 -0.0430177 0.0650137 0 -0.0430963 0.0324465 0 -0.0433258 -8.78237e-07 0 92.0568 2.5183e-06 0 72.2424 554.733 0 36.5183 879.033 0 12.6866 1011.48 0 -0.255462 1041.24 0 -7.37535 1020.02 0 -11.3011 974.272 0 -13.4789 917.139 0 -14.6053 855.674 0 -15.0891 793.678 0 -15.1584 733.272 0 -14.9581 675.61 0 -14.5796 621.289 0 -14.0849 570.571 0 -13.5162 523.514 0 -12.9035 480.053 0 -12.2681 440.05 0 -11.6255 403.322 0 -10.9869 369.666 0 -10.3605 338.871 0 -9.75187 310.722 0 -9.16523 285.013 0 -8.60325 261.544 0 -8.06763 240.128 0 -7.55927 220.587 0 -7.07848 202.759 0 -6.62511 186.49 0 -6.19866 171.641 0 -5.79838 158.084 0 -5.42333 145.701 0 -5.07243 134.385 0 -4.74453 124.039 0 -4.43844 114.573 0 -4.15292 105.907 0 -3.88677 97.9677 0 -3.63879 90.6895 0 -3.40781 84.012 0 -3.19271 77.8808 0 -2.99242 72.247 0 -2.8059 67.0659 0 -2.63222 62.2974 0 -2.47042 57.905 0 -2.31969 53.8559 0 -2.1792 50.1201 0 -2.04822 46.6707 0 -1.92605 43.4832 0 -1.81205 40.5355 0 -1.70561 37.8073 0 -1.60618 35.2806 0 -1.51325 32.9386 0 -1.42635 30.7664 0 -1.34503 28.7501 0 -1.26889 26.8774 0 -1.19757 25.1369 0 -1.13071 23.5182 0 -1.068 22.0119 0 -1.00915 20.6093 0 -0.953876 19.3025 0 -0.901949 18.0844 0 -0.853125 16.9483 0 -0.807203 15.8881 0 -0.763978 14.8982 0 -0.723274 13.9737 0 -0.68493 13.1097 0 -0.648778 12.302 0 -0.614691 11.5465 0 -0.582524 10.8397 0 -0.552166 10.1781 0 -0.523494 9.5586 0 -0.496413 8.97832 0 -0.470813 8.43461 0 -0.446614 7.92498 0 -0.423731 7.44717 0 -0.402081 6.99904 0 -0.381596 6.57863 0 -0.362203 6.18413 0 -0.343845 5.81382 0 -0.326458 5.46615 0 -0.30999 5.13965 0 -0.294387 4.83295 0 -0.279604 4.54479 0 -0.265594 4.27397 0 -0.252316 4.01941 0 -0.23973 3.78007 0 -0.227799 3.55498 0 -0.216489 3.34326 0 -0.205765 3.14406 0 -0.1956 2.9566 0 -0.185963 2.78015 0 -0.176828 2.61401 0 -0.168168 2.45755 0 -0.159964 2.31017 0 -0.152188 2.17129 0 -0.144822 2.04039 0 -0.137845 1.91698 0 -0.131238 1.80057 0 -0.124986 1.69075 0 -0.11907 1.58709 0 -0.113476 1.4892 0 -0.108189 1.39673 0 -0.103193 1.30932 0 -0.0984809 1.22666 0 -0.0940359 1.14844 0 -0.0898479 1.07437 0 -0.0859082 1.00417 0 -0.0822048 0.9376 0 -0.0787302 0.874406 0 -0.0754746 0.814358 0 -0.0724316 0.757239 0 -0.0695932 0.70284 0 -0.0669527 0.650966 0 -0.0645058 0.601428 0 -0.0622453 0.554047 0 -0.0601666 0.508651 0 -0.0582662 0.465079 0 -0.0565385 0.42317 0 -0.0549828 0.382779 0 -0.053594 0.343756 0 -0.0523717 0.305966 0 -0.0513139 0.269268 0 -0.0504186 0.233536 0 -0.0496849 0.198639 0 -0.0491141 0.164455 0 -0.048706 0.130859 0 -0.0484617 0.0977336 0 -0.0483818 0.0649598 0 -0.0484701 0.0324192 0 -0.0487287 1.62702e-06 0 102.349 -3.01003e-06 0 80.2795 555.513 0 40.5517 879.692 0 14.078 1011.87 0 -0.294749 1041.45 0 -8.2012 1020.14 0 -12.5606 974.33 0 -14.979 917.164 0 -16.2296 855.676 0 -16.7666 793.666 0 -16.8433 733.25 0 -16.6204 675.582 0 -16.1997 621.257 0 -15.6498 570.535 0 -15.0179 523.476 0 -14.337 480.015 0 -13.6309 440.01 0 -12.9169 403.283 0 -12.2073 369.627 0 -11.5112 338.832 0 -10.835 310.684 0 -10.1832 284.976 0 -9.55872 261.509 0 -8.96358 240.094 0 -8.39873 220.555 0 -7.86452 202.727 0 -7.36078 186.46 0 -6.88696 171.612 0 -6.44221 158.057 0 -6.02549 145.675 0 -5.63562 134.36 0 -5.2713 124.015 0 -4.93121 114.55 0 -4.61398 105.885 0 -4.31827 97.9475 0 -4.04275 90.6703 0 -3.78612 83.9938 0 -3.54713 77.8636 0 -3.3246 72.2307 0 -3.11737 67.0505 0 -2.9244 62.2828 0 -2.74464 57.8912 0 -2.57717 53.8428 0 -2.42109 50.1077 0 -2.27557 46.659 0 -2.13983 43.4721 0 -2.01317 40.525 0 -1.89491 37.7974 0 -1.78445 35.2711 0 -1.6812 32.9297 0 -1.58465 30.7579 0 -1.49431 28.7421 0 -1.40972 26.8698 0 -1.33048 25.1296 0 -1.2562 23.5113 0 -1.18652 22.0053 0 -1.12114 20.6031 0 -1.05973 19.2966 0 -1.00204 18.0787 0 -0.947799 16.9429 0 -0.896778 15.8829 0 -0.848757 14.8934 0 -0.803534 13.969 0 -0.760934 13.1053 0 -0.720769 12.2978 0 -0.682899 11.5425 0 -0.647161 10.8359 0 -0.613434 10.1744 0 -0.58158 9.55509 0 -0.551493 8.97498 0 -0.523053 8.43141 0 -0.496167 7.92193 0 -0.470744 7.44425 0 -0.446692 6.99625 0 -0.423932 6.57597 0 -0.402387 6.18158 0 -0.381992 5.81139 0 -0.362675 5.46383 0 -0.34438 5.13742 0 -0.327045 4.83082 0 -0.310622 4.54275 0 -0.295057 4.27203 0 -0.280305 4.01755 0 -0.266322 3.77829 0 -0.253067 3.55328 0 -0.240502 3.34163 0 -0.228588 3.1425 0 -0.217295 2.95511 0 -0.206589 2.77872 0 -0.196439 2.61265 0 -0.186819 2.45625 0 -0.177704 2.30892 0 -0.169066 2.1701 0 -0.160882 2.03925 0 -0.153131 1.91589 0 -0.145792 1.79953 0 -0.138845 1.68976 0 -0.132273 1.58614 0 -0.126058 1.4883 0 -0.120185 1.39587 0 -0.114634 1.3085 0 -0.1094 1.22588 0 -0.104461 1.1477 0 -0.0998091 1.07366 0 -0.0954319 1.0035 0 -0.0913178 0.936965 0 -0.0874576 0.873803 0 -0.083841 0.813789 0 -0.0804604 0.7567 0 -0.077307 0.702333 0 -0.0743736 0.650488 0 -0.0716551 0.60098 0 -0.0691439 0.553627 0 -0.0668346 0.508261 0 -0.0647234 0.464715 0 -0.062804 0.422837 0 -0.0610756 0.382471 0 -0.0595328 0.343476 0 -0.0581746 0.305712 0 -0.0569996 0.269042 0 -0.0560047 0.233336 0 -0.0551894 0.198467 0 -0.0545552 0.164311 0 -0.0541019 0.130742 0 -0.0538299 0.0976449 0 -0.0537415 0.0648998 0 -0.0538389 0.0323883 0 -0.0541257 -1.20699e-06 0 112.662 4.32134e-06 0 88.3197 556.377 0 44.5773 880.419 0 15.4636 1012.3 0 -0.337472 1041.69 0 -9.02906 1020.26 0 -13.8214 974.395 0 -16.4799 917.19 0 -17.8544 855.679 0 -18.4445 793.653 0 -18.5283 733.227 0 -18.2828 675.551 0 -17.8198 621.221 0 -17.2148 570.496 0 -16.5195 523.435 0 -15.7704 479.972 0 -14.9937 439.967 0 -14.2082 403.239 0 -13.4276 369.584 0 -12.6618 338.79 0 -11.918 310.643 0 -11.2009 284.936 0 -10.514 261.47 0 -9.85938 240.056 0 -9.23805 220.518 0 -8.65042 202.692 0 -8.09631 186.426 0 -7.57511 171.58 0 -7.0859 158.026 0 -6.62752 145.646 0 -6.19867 134.333 0 -5.79793 123.989 0 -5.42385 114.525 0 -5.07491 105.862 0 -4.74966 97.9251 0 -4.44659 90.6491 0 -4.16432 83.9737 0 -3.90145 77.8446 0 -3.65668 72.2127 0 -3.42875 67.0335 0 -3.21649 62.2667 0 -3.01877 57.8759 0 -2.83457 53.8283 0 -2.66289 50.094 0 -2.50283 46.646 0 -2.35354 43.4599 0 -2.21422 40.5134 0 -2.08415 37.7864 0 -1.96265 35.2607 0 -1.84909 32.9198 0 -1.7429 30.7485 0 -1.64353 28.7332 0 -1.55049 26.8613 0 -1.46334 25.1216 0 -1.38163 23.5037 0 -1.305 21.9981 0 -1.23309 20.5962 0 -1.16555 19.29 0 -1.10209 18.0725 0 -1.04244 16.9369 0 -0.986319 15.8773 0 -0.933501 14.888 0 -0.883762 13.9639 0 -0.836907 13.1004 0 -0.792731 12.2931 0 -0.751078 11.5381 0 -0.7117