<?xml version="1.0"?> 
<VTKFile type="StructuredGrid" version="0.1"> 
<StructuredGrid WholeExtent="0 127 0 127 0 0"> 
<Piece Extent="0 127 0 127 0 0"> 
<PointData>
<DataArray type="Float32" Name="E" format="ascii" NumberOfComponents="3"> 
-3.46e+06 -1.50029e+06 0 -3.55381e+06 -1.46182e+06 0 -3.64649e+06 -1.41998e+06 0 -3.73783e+06 -1.3748e+06 0 -3.82763e+06 -1.32635e+06 0 -3.91571e+06 -1.2747e+06 0 -4.00191e+06 -1.21997e+06 0 -4.08607e+06 -1.16225e+06 0 -4.16808e+06 -1.10167e+06 0 -4.2478e+06 -1.03836e+06 0 -4.32511e+06 -972442 0 -4.39992e+06 -904068 0 -4.47214e+06 -833381 0 -4.54167e+06 -760530 0 -4.60845e+06 -685667 0 -4.67243e+06 -608948 0 -4.73354e+06 -530527 0 -4.79175e+06 -450561 0 -4.84704e+06 -369206 0 -4.89937e+06 -286616 0 -4.94875e+06 -202942 0 -4.99518e+06 -118335 0 -5.03866e+06 -32939.9 0 -5.07921e+06 53101 0 -5.11686e+06 139650 0 -5.15164e+06 226575 0 -5.18359e+06 313747 0 -5.21275e+06 401046 0 -5.23917e+06 488355 0 -5.26292e+06 575564 0 -5.28405e+06 662568 0 -5.30262e+06 749271 0 -5.31871e+06 835580 0 -5.33238e+06 921409 0 -5.3437e+06 1.00668e+06 0 -5.35275e+06 1.09132e+06 0 -5.3596e+06 1.17526e+06 0 -5.36434e+06 1.25844e+06 0 -5.36702e+06 1.34081e+06 0 -5.36774e+06 1.4223e+06 0 -5.36657e+06 1.50289e+06 0 -5.36358e+06 1.58252e+06 0 -5.35886e+06 1.66116e+06 0 -5.35246e+06 1.73879e+06 0 -5.34447e+06 1.81536e+06 0 -5.33496e+06 1.89087e+06 0 -5.324e+06 1.96529e+06 0 -5.31165e+06 2.03861e+06 0 -5.29799e+06 2.11081e+06 0 -5.28307e+06 2.18189e+06 0 -5.26696e+06 2.25183e+06 0 -5.24973e+06 2.32064e+06 0 -5.23141e+06 2.38831e+06 0 -5.21209e+06 2.45485e+06 0 -5.1918e+06 2.52025e+06 0 -5.1706e+06 2.58453e+06 0 -5.14855e+06 2.64768e+06 0 -5.12568e+06 2.70972e+06 0 -5.10204e+06 2.77066e+06 0 -5.07769e+06 2.8305e+06 0 -5.05265e+06 2.88926e+06 0 -5.02697e+06 2.94695e+06 0 -5.00068e+06 3.00357e+06 0 -4.97383e+06 3.05916e+06 0 -4.94644e+06 3.11371e+06 0 -4.91855e+06 3.16724e+06 0 -4.89018e+06 3.21977e+06 0 -4.86137e+06 3.27132e+06 0 -4.83215e+06 3.32189e+06 0 -4.80253e+06 3.37151e+06 0 -4.77254e+06 3.42019e+06 0 -4.74221e+06 3.46793e+06 0 -4.71155e+06 3.51477e+06 0 -4.68059e+06 3.56071e+06 0 -4.64934e+06 3.60577e+06 0 -4.61782e+06 3.64996e+06 0 -4.58604e+06 3.6933e+06 0 -4.55403e+06 3.73579e+06 0 -4.52178e+06 3.77746e+06 0 -4.48933e+06 3.81832e+06 0 -4.45667e+06 3.85837e+06 0 -4.42382e+06 3.89763e+06 0 -4.39078e+06 3.93612e+06 0 -4.35757e+06 3.97383e+06 0 -4.3242e+06 4.01079e+06 0 -4.29066e+06 4.04701e+06 0 -4.25698e+06 4.08248e+06 0 -4.22314e+06 4.11722e+06 0 -4.18917e+06 4.15125e+06 0 -4.15505e+06 4.18455e+06 0 -4.1208e+06 4.21715e+06 0 -4.08642e+06 4.24905e+06 0 -4.05191e+06 4.28025e+06 0 -4.01727e+06 4.31075e+06 0 -3.98251e+06 4.34057e+06 0 -3.94761e+06 4.3697e+06 0 -3.9126e+06 4.39814e+06 0 -3.87745e+06 4.4259e+06 0 -3.84218e+06 4.45297e+06 0 -3.80678e+06 4.47936e+06 0 -3.77125e+06 4.50506e+06 0 -3.73559e+06 4.53007e+06 0 -3.69979e+06 4.55438e+06 0 -3.66385e+06 4.578e+06 0 -3.62777e+06 4.6009e+06 0 -3.59153e+06 4.62309e+06 0 -3.55515e+06 4.64455e+06 0 -3.5186e+06 4.66528e+06 0 -3.48189e+06 4.68525e+06 0 -3.445e+06 4.70445e+06 0 -3.40792e+06 4.72286e+06 0 -3.37065e+06 4.74046e+06 0 -3.33317e+06 4.75723e+06 0 -3.29548e+06 4.77313e+06 0 -3.25754e+06 4.78813e+06 0 -3.21935e+06 4.80219e+06 0 -3.18089e+06 4.81526e+06 0 -3.14213e+06 4.82728e+06 0 -3.10303e+06 4.8382e+06 0 -3.06358e+06 4.84795e+06 0 -3.02374e+06 4.85642e+06 0 -2.98346e+06 4.86353e+06 0 -2.94267e+06 4.86914e+06 0 -2.90125e+06 4.87297e+06 0 -2.85891e+06 4.8745e+06 0 -2.81496e+06 4.87245e+06 0 -2.76774e+06 4.86375e+06 0 -2.71334e+06 4.84118e+06 0 -3.59555e+06 -1.1123e+06 0 -3.67342e+06 -1.07155e+06 0 -3.75007e+06 -1.02825e+06 0 -3.8254e+06 -982446 0 -3.89933e+06 -934201 0 -3.97174e+06 -883580 0 -4.04255e+06 -830652 0 -4.11167e+06 -775498 0 -4.179e+06 -718199 0 -4.24447e+06 -658844 0 -4.30799e+06 -597526 0 -4.36951e+06 -534341 0 -4.42894e+06 -469387 0 -4.48624e+06 -402768 0 -4.54134e+06 -334589 0 -4.59421e+06 -264956 0 -4.6448e+06 -193977 0 -4.69308e+06 -121762 0 -4.73902e+06 -48420.7 0 -4.7826e+06 25936.4 0 -4.82381e+06 101200 0 -4.86263e+06 177261 0 -4.89907e+06 254013 0 -4.93314e+06 331348 0 -4.96483e+06 409164 0 -4.99417e+06 487359 0 -5.02117e+06 565833 0 -5.04587e+06 644492 0 -5.06829e+06 723242 0 -5.08846e+06 801996 0 -5.10643e+06 880666 0 -5.12223e+06 959173 0 -5.13591e+06 1.03744e+06 0 -5.14752e+06 1.11539e+06 0 -5.1571e+06 1.19296e+06 0 -5.16472e+06 1.27007e+06 0 -5.17041e+06 1.34668e+06 0 -5.17425e+06 1.42272e+06 0 -5.17628e+06 1.49815e+06 0 -5.17656e+06 1.5729e+06 0 -5.17516e+06 1.64695e+06 0 -5.17212e+06 1.72024e+06 0 -5.16751e+06 1.79275e+06 0 -5.16139e+06 1.86443e+06 0 -5.15381e+06 1.93527e+06 0 -5.14483e+06 2.00522e+06 0 -5.13451e+06 2.07428e+06 0 -5.12291e+06 2.14241e+06 0 -5.11008e+06 2.20961e+06 0 -5.09607e+06 2.27586e+06 0 -5.08093e+06 2.34115e+06 0 -5.06473e+06 2.40547e+06 0 -5.0475e+06 2.46881e+06 0 -5.0293e+06 2.53116e+06 0 -5.01017e+06 2.59254e+06 0 -4.99017e+06 2.65292e+06 0 -4.96932e+06 2.71232e+06 0 -4.94768e+06 2.77073e+06 0 -4.92529e+06 2.82816e+06 0 -4.90218e+06 2.88462e+06 0 -4.87839e+06 2.94011e+06 0 -4.85396e+06 2.99463e+06 0 -4.82893e+06 3.0482e+06 0 -4.80332e+06 3.10082e+06 0 -4.77717e+06 3.1525e+06 0 -4.7505e+06 3.20325e+06 0 -4.72335e+06 3.25308e+06 0 -4.69574e+06 3.302e+06 0 -4.6677e+06 3.35002e+06 0 -4.63924e+06 3.39715e+06 0 -4.61041e+06 3.4434e+06 0 -4.5812e+06 3.48879e+06 0 -4.55165e+06 3.53332e+06 0 -4.52178e+06 3.57701e+06 0 -4.4916e+06 3.61986e+06 0 -4.46113e+06 3.66189e+06 0 -4.43038e+06 3.7031e+06 0 -4.39937e+06 3.74351e+06 0 -4.36811e+06 3.78313e+06 0 -4.33662e+06 3.82195e+06 0 -4.30491e+06 3.86001e+06 0 -4.27299e+06 3.8973e+06 0 -4.24086e+06 3.93382e+06 0 -4.20855e+06 3.9696e+06 0 -4.17605e+06 4.00463e+06 0 -4.14338e+06 4.03892e+06 0 -4.11053e+06 4.07248e+06 0 -4.07753e+06 4.10531e+06 0 -4.04438e+06 4.13742e+06 0 -4.01107e+06 4.16882e+06 0 -3.97762e+06 4.1995e+06 0 -3.94403e+06 4.22946e+06 0 -3.91031e+06 4.25872e+06 0 -3.87645e+06 4.28726e+06 0 -3.84247e+06 4.3151e+06 0 -3.80836e+06 4.34223e+06 0 -3.77413e+06 4.36865e+06 0 -3.73977e+06 4.39435e+06 0 -3.7053e+06 4.41933e+06 0 -3.67071e+06 4.44359e+06 0 -3.63601e+06 4.46712e+06 0 -3.60119e+06 4.48992e+06 0 -3.56625e+06 4.51197e+06 0 -3.53121e+06 4.53326e+06 0 -3.49605e+06 4.55378e+06 0 -3.46079e+06 4.57352e+06 0 -3.42541e+06 4.59246e+06 0 -3.38992e+06 4.61058e+06 0 -3.35433e+06 4.62786e+06 0 -3.31863e+06 4.64427e+06 0 -3.28283e+06 4.65979e+06 0 -3.24692e+06 4.67437e+06 0 -3.21092e+06 4.68799e+06 0 -3.17483e+06 4.70059e+06 0 -3.13866e+06 4.71211e+06 0 -3.10242e+06 4.72251e+06 0 -3.06612e+06 4.73169e+06 0 -3.02981e+06 4.73957e+06 0 -2.99352e+06 4.74605e+06 0 -2.95733e+06 4.75098e+06 0 -2.92134e+06 4.75422e+06 0 -2.88573e+06 4.75559e+06 0 -2.85077e+06 4.75491e+06 0 -2.81687e+06 4.75201e+06 0 -2.78459e+06 4.74681e+06 0 -2.75461e+06 4.73944e+06 0 -2.7275e+06 4.73049e+06 0 -2.70308e+06 4.72147e+06 0 -3.66717e+06 -774555 0 -3.73246e+06 -733988 0 -3.79672e+06 -691424 0 -3.85987e+06 -646905 0 -3.92185e+06 -600476 0 -3.98257e+06 -552185 0 -4.04197e+06 -502084 0 -4.09998e+06 -450225 0 -4.15653e+06 -396667 0 -4.21157e+06 -341470 0 -4.26502e+06 -284699 0 -4.31684e+06 -226421 0 -4.36698e+06 -166705 0 -4.41537e+06 -105624 0 -4.46198e+06 -43253.4 0 -4.50677e+06 20330 0 -4.5497e+06 85047.2 0 -4.59074e+06 150818 0 -4.62986e+06 217559 0 -4.66703e+06 285190 0 -4.70224e+06 353626 0 -4.73548e+06 422783 0 -4.76673e+06 492579 0 -4.79598e+06 562929 0 -4.82325e+06 633752 0 -4.84852e+06 704966 0 -4.87182e+06 776489 0 -4.89315e+06 848245 0 -4.91253e+06 920154 0 -4.92997e+06 992144 0 -4.94551e+06 1.06414e+06 0 -4.95916e+06 1.13607e+06 0 -4.97097e+06 1.20788e+06 0 -4.98095e+06 1.27948e+06 0 -4.98915e+06 1.35083e+06 0 -4.9956e+06 1.42186e+06 0 -5.00035e+06 1.49252e+06 0 -5.00342e+06 1.56276e+06 0 -5.00488e+06 1.63252e+06 0 -5.00476e+06 1.70176e+06 0 -5.0031e+06 1.77044e+06 0 -4.99996e+06 1.83851e+06 0 -4.99537e+06 1.90595e+06 0 -4.98939e+06 1.97271e+06 0 -4.98207e+06 2.03876e+06 0 -4.97345e+06 2.10408e+06 0 -4.96357e+06 2.16864e+06 0 -4.95249e+06 2.23242e+06 0 -4.94026e+06 2.29541e+06 0 -4.92691e+06 2.35757e+06 0 -4.9125e+06 2.4189e+06 0 -4.89706e+06 2.47938e+06 0 -4.88065e+06 2.53901e+06 0 -4.86329e+06 2.59777e+06 0 -4.84505e+06 2.65567e+06 0 -4.82595e+06 2.71268e+06 0 -4.80604e+06 2.76881e+06 0 -4.78535e+06 2.82406e+06 0 -4.76392e+06 2.87843e+06 0 -4.74179e+06 2.93191e+06 0 -4.71898e+06 2.98451e+06 0 -4.69554e+06 3.03623e+06 0 -4.6715e+06 3.08707e+06 0 -4.64688e+06 3.13704e+06 0 -4.62171e+06 3.18615e+06 0 -4.59602e+06 3.23439e+06 0 -4.56985e+06 3.28178e+06 0 -4.54321e+06 3.32832e+06 0 -4.51612e+06 3.37401e+06 0 -4.48862e+06 3.41888e+06 0 -4.46072e+06 3.46291e+06 0 -4.43245e+06 3.50612e+06 0 -4.40381e+06 3.54852e+06 0 -4.37485e+06 3.59011e+06 0 -4.34556e+06 3.6309e+06 0 -4.31596e+06 3.67091e+06 0 -4.28609e+06 3.71012e+06 0 -4.25593e+06 3.74857e+06 0 -4.22552e+06 3.78624e+06 0 -4.19487e+06 3.82314e+06 0 -4.16398e+06 3.85929e+06 0 -4.13287e+06 3.89468e+06 0 -4.10155e+06 3.92933e+06 0 -4.07004e+06 3.96324e+06 0 -4.03833e+06 3.9964e+06 0 -4.00644e+06 4.02884e+06 0 -3.97438e+06 4.06054e+06 0 -3.94216e+06 4.09151e+06 0 -3.90978e+06 4.12175e+06 0 -3.87726e+06 4.15128e+06 0 -3.84459e+06 4.18007e+06 0 -3.81179e+06 4.20814e+06 0 -3.77886e+06 4.23549e+06 0 -3.74581e+06 4.26211e+06 0 -3.71265e+06 4.28799e+06 0 -3.67937e+06 4.31315e+06 0 -3.64599e+06 4.33757e+06 0 -3.61252e+06 4.36124e+06 0 -3.57895e+06 4.38416e+06 0 -3.5453e+06 4.40632e+06 0 -3.51156e+06 4.42772e+06 0 -3.47776e+06 4.44833e+06 0 -3.44389e+06 4.46816e+06 0 -3.40996e+06 4.48718e+06 0 -3.37599e+06 4.50537e+06 0 -3.34197e+06 4.52273e+06 0 -3.30793e+06 4.53922e+06 0 -3.27388e+06 4.55484e+06 0 -3.23983e+06 4.56954e+06 0 -3.2058e+06 4.5833e+06 0 -3.17181e+06 4.59609e+06 0 -3.13789e+06 4.60787e+06 0 -3.10408e+06 4.61861e+06 0 -3.0704e+06 4.62825e+06 0 -3.03693e+06 4.63676e+06 0 -3.00372e+06 4.64407e+06 0 -2.97085e+06 4.65015e+06 0 -2.93843e+06 4.65494e+06 0 -2.90659e+06 4.65841e+06 0 -2.8755e+06 4.66055e+06 0 -2.84532e+06 4.66135e+06 0 -2.81627e+06 4.66089e+06 0 -2.78853e+06 4.65928e+06 0 -2.76226e+06 4.65674e+06 0 -2.7375e+06 4.65354e+06 0 -2.7142e+06 4.65002e+06 0 -2.69229e+06 4.64646e+06 0 -2.67224e+06 4.64295e+06 0 -3.69625e+06 -482608 0 -3.75195e+06 -443314 0 -3.80679e+06 -402413 0 -3.86072e+06 -359930 0 -3.91366e+06 -315892 0 -3.96557e+06 -270331 0 -4.01639e+06 -223281 0 -4.06607e+06 -174777 0 -4.11454e+06 -124859 0 -4.16176e+06 -73571.1 0 -4.20768e+06 -20957.1 0 -4.25226e+06 32934.4 0 -4.29543e+06 88052.7 0 -4.33716e+06 144344 0 -4.37741e+06 201754 0 -4.41615e+06 260222 0 -4.45332e+06 319691 0 -4.48891e+06 380097 0 -4.52288e+06 441376 0 -4.55521e+06 503465 0 -4.58588e+06 566296 0 -4.61486e+06 629802 0 -4.64215e+06 693916 0 -4.66773e+06 758570 0 -4.69159e+06 823695 0 -4.71373e+06 889222 0 -4.73415e+06 955085 0 -4.75285e+06 1.02121e+06 0 -4.76985e+06 1.08755e+06 0 -4.78514e+06 1.15402e+06 0 -4.79875e+06 1.22056e+06 0 -4.81069e+06 1.28711e+06 0 -4.82098e+06 1.35361e+06 0 -4.82964e+06 1.42001e+06 0 -4.8367e+06 1.48624e+06 0 -4.84219e+06 1.55225e+06 0 -4.84613e+06 1.61799e+06 0 -4.84855e+06 1.68341e+06 0 -4.84949e+06 1.74847e+06 0 -4.84899e+06 1.81311e+06 0 -4.84707e+06 1.8773e+06 0 -4.84378e+06 1.941e+06 0 -4.83916e+06 2.00416e+06 0 -4.83324e+06 2.06677e+06 0 -4.82606e+06 2.12878e+06 0 -4.81766e+06 2.19017e+06 0 -4.80809e+06 2.2509e+06 0 -4.79738e+06 2.31097e+06 0 -4.78557e+06 2.37033e+06 0 -4.77271e+06 2.42899e+06 0 -4.75883e+06 2.4869e+06 0 -4.74397e+06 2.54407e+06 0 -4.72817e+06 2.60048e+06 0 -4.71147e+06 2.65611e+06 0 -4.69391e+06 2.71097e+06 0 -4.67551e+06 2.76502e+06 0 -4.65632e+06 2.81828e+06 0 -4.63638e+06 2.87074e+06 0 -4.61571e+06 2.92239e+06 0 -4.59435e+06 2.97322e+06 0 -4.57233e+06 3.02325e+06 0 -4.54968e+06 3.07246e+06 0 -4.52642e+06 3.12086e+06 0 -4.5026e+06 3.16845e+06 0 -4.47823e+06 3.21522e+06 0 -4.45335e+06 3.26119e+06 0 -4.42797e+06 3.30635e+06 0 -4.40213e+06 3.35071e+06 0 -4.37584e+06 3.39428e+06 0 -4.34913e+06 3.43705e+06 0 -4.32201e+06 3.47903e+06 0 -4.29452e+06 3.52022e+06 0 -4.26666e+06 3.56063e+06 0 -4.23846e+06 3.60027e+06 0 -4.20994e+06 3.63914e+06 0 -4.18111e+06 3.67724e+06 0 -4.15199e+06 3.71458e+06 0 -4.12259e+06 3.75116e+06 0 -4.09292e+06 3.78698e+06 0 -4.06301e+06 3.82206e+06 0 -4.03287e+06 3.85639e+06 0 -4.0025e+06 3.88998e+06 0 -3.97192e+06 3.92282e+06 0 -3.94115e+06 3.95493e+06 0 -3.91019e+06 3.98631e+06 0 -3.87905e+06 4.01695e+06 0 -3.84775e+06 4.04685e+06 0 -3.81629e+06 4.07602e+06 0 -3.78468e+06 4.10446e+06 0 -3.75294e+06 4.13217e+06 0 -3.72107e+06 4.15914e+06 0 -3.68909e+06 4.18537e+06 0 -3.657e+06 4.21087e+06 0 -3.6248e+06 4.23561e+06 0 -3.59253e+06 4.25961e+06 0 -3.56017e+06 4.28286e+06 0 -3.52774e+06 4.30534e+06 0 -3.49526e+06 4.32706e+06 0 -3.46272e+06 4.348e+06 0 -3.43016e+06 4.36816e+06 0 -3.39757e+06 4.38751e+06 0 -3.36497e+06 4.40606e+06 0 -3.33238e+06 4.42379e+06 0 -3.29982e+06 4.44068e+06 0 -3.26729e+06 4.45672e+06 0 -3.23484e+06 4.47188e+06 0 -3.20247e+06 4.48617e+06 0 -3.17021e+06 4.49954e+06 0 -3.13811e+06 4.51198e+06 0 -3.10619e+06 4.52348e+06 0 -3.0745e+06 4.53401e+06 0 -3.04308e+06 4.54355e+06 0 -3.012e+06 4.55208e+06 0 -2.98132e+06 4.55959e+06 0 -2.95112e+06 4.56607e+06 0 -2.92147e+06 4.57153e+06 0 -2.89248e+06 4.57598e+06 0 -2.86424e+06 4.57945e+06 0 -2.83684e+06 4.58201e+06 0 -2.81038e+06 4.58372e+06 0 -2.78492e+06 4.5847e+06 0 -2.76053e+06 4.58507e+06 0 -2.73721e+06 4.58495e+06 0 -2.71497e+06 4.58448e+06 0 -2.69381e+06 4.58377e+06 0 -2.67374e+06 4.58289e+06 0 -2.65473e+06 4.58189e+06 0 -2.63636e+06 4.58085e+06 0 -3.69799e+06 -230121 0 -3.74628e+06 -192581 0 -3.79385e+06 -153691 0 -3.84066e+06 -113466 0 -3.88666e+06 -71924.1 0 -3.9318e+06 -29084.5 0 -3.97603e+06 15029.9 0 -4.0193e+06 60394.1 0 -4.06158e+06 106980 0 -4.10281e+06 154758 0 -4.14294e+06 203694 0 -4.18194e+06 253754 0 -4.21976e+06 304898 0 -4.25637e+06 357087 0 -4.29171e+06 410277 0 -4.32577e+06 464423 0 -4.35849e+06 519478 0 -4.38985e+06 575391 0 -4.41983e+06 632113 0 -4.44838e+06 689589 0 -4.47549e+06 747764 0 -4.50114e+06 806585 0 -4.52531e+06 865992 0 -4.54798e+06 925929 0 -4.56915e+06 986337 0 -4.58879e+06 1.04716e+06 0 -4.60691e+06 1.10833e+06 0 -4.62351e+06 1.1698e+06 0 -4.63858e+06 1.23151e+06 0 -4.65213e+06 1.29339e+06 0 -4.66416e+06 1.3554e+06 0 -4.67469e+06 1.41747e+06 0 -4.68373e+06 1.47955e+06 0 -4.69128e+06 1.54159e+06 0 -4.69738e+06 1.60353e+06 0 -4.70204e+06 1.66533e+06 0 -4.70527e+06 1.72693e+06 0 -4.70712e+06 1.78829e+06 0 -4.70759e+06 1.84937e+06 0 -4.70672e+06 1.91012e+06 0 -4.70454e+06 1.9705e+06 0 -4.70108e+06 2.03047e+06 0 -4.69637e+06 2.09e+06 0 -4.69045e+06 2.14905e+06 0 -4.68334e+06 2.20759e+06 0 -4.67508e+06 2.26559e+06 0 -4.6657e+06 2.32303e+06 0 -4.65525e+06 2.37987e+06 0 -4.64375e+06 2.4361e+06 0 -4.63124e+06 2.49169e+06 0 -4.61775e+06 2.54663e+06 0 -4.60333e+06 2.6009e+06 0 -4.588e+06 2.65448e+06 0 -4.5718e+06 2.70735e+06 0 -4.55476e+06 2.75952e+06 0 -4.53692e+06 2.81096e+06 0 -4.51831e+06 2.86166e+06 0 -4.49895e+06 2.91163e+06 0 -4.47889e+06 2.96085e+06 0 -4.45815e+06 3.00931e+06 0 -4.43676e+06 3.05702e+06 0 -4.41475e+06 3.10396e+06 0 -4.39215e+06 3.15015e+06 0 -4.36898e+06 3.19556e+06 0 -4.34527e+06 3.24022e+06 0 -4.32105e+06 3.2841e+06 0 -4.29634e+06 3.32723e+06 0 -4.27117e+06 3.36958e+06 0 -4.24555e+06 3.41118e+06 0 -4.21951e+06 3.45201e+06 0 -4.19307e+06 3.49209e+06 0 -4.16625e+06 3.5314e+06 0 -4.13907e+06 3.56996e+06 0 -4.11154e+06 3.60777e+06 0 -4.08369e+06 3.64483e+06 0 -4.05554e+06 3.68114e+06 0 -4.02709e+06 3.7167e+06 0 -3.99837e+06 3.75152e+06 0 -3.9694e+06 3.7856e+06 0 -3.94017e+06 3.81894e+06 0 -3.91072e+06 3.85154e+06 0 -3.88105e+06 3.8834e+06 0 -3.85118e+06 3.91453e+06 0 -3.82112e+06 3.94492e+06 0 -3.79089e+06 3.97458e+06 0 -3.76049e+06 4.0035e+06 0 -3.72994e+06 4.03169e+06 0 -3.69925e+06 4.05914e+06 0 -3.66843e+06 4.08585e+06 0 -3.6375e+06 4.11182e+06 0 -3.60647e+06 4.13704e+06 0 -3.57535e+06 4.16152e+06 0 -3.54415e+06 4.18524e+06 0 -3.51289e+06 4.20822e+06 0 -3.48158e+06 4.23042e+06 0 -3.45023e+06 4.25187e+06 0 -3.41887e+06 4.27253e+06 0 -3.3875e+06 4.29242e+06 0 -3.35614e+06 4.31152e+06 0 -3.32481e+06 4.32982e+06 0 -3.29353e+06 4.34731e+06 0 -3.26232e+06 4.36398e+06 0 -3.23121e+06 4.37983e+06 0 -3.20022e+06 4.39484e+06 0 -3.16938e+06 4.40901e+06 0 -3.13871e+06 4.42232e+06 0 -3.10826e+06 4.43476e+06 0 -3.07807e+06 4.44632e+06 0 -3.04817e+06 4.45701e+06 0 -3.01861e+06 4.46682e+06 0 -2.98944e+06 4.47574e+06 0 -2.96072e+06 4.48379e+06 0 -2.9325e+06 4.49099e+06 0 -2.90484e+06 4.49734e+06 0 -2.87781e+06 4.50289e+06 0 -2.85146e+06 4.50767e+06 0 -2.82585e+06 4.51174e+06 0 -2.80103e+06 4.51516e+06 0 -2.77702e+06 4.518e+06 0 -2.75386e+06 4.52035e+06 0 -2.73156e+06 4.52227e+06 0 -2.71013e+06 4.52384e+06 0 -2.68955e+06 4.52513e+06 0 -2.66981e+06 4.52621e+06 0 -2.65088e+06 4.52714e+06 0 -2.63267e+06 4.52798e+06 0 -2.61512e+06 4.52879e+06 0 -2.5984e+06 4.52961e+06 0 -3.68203e+06 -11007.1 0 -3.7245e+06 24660.2 0 -3.76637e+06 61499.4 0 -3.8076e+06 99501.7 0 -3.84815e+06 138657 0 -3.88797e+06 178952 0 -3.92704e+06 220372 0 -3.96529e+06 262900 0 -4.0027e+06 306516 0 -4.03922e+06 351197 0 -4.07481e+06 396920 0 -4.10943e+06 443657 0 -4.14303e+06 491379 0 -4.17559e+06 540053 0 -4.20706e+06 589646 0 -4.23741e+06 640121 0 -4.2666e+06 691439 0 -4.2946e+06 743559 0 -4.32138e+06 796439 0 -4.34692e+06 850033 0 -4.37119e+06 904296 0 -4.39415e+06 959180 0 -4.41581e+06 1.01464e+06 0 -4.43613e+06 1.07061e+06 0 -4.4551e+06 1.12706e+06 0 -4.47271e+06 1.18393e+06 0 -4.48895e+06 1.24116e+06 0 -4.50381e+06 1.29871e+06 0 -4.51729e+06 1.35652e+06 0 -4.52938e+06 1.41454e+06 0 -4.5401e+06 1.47271e+06 0 -4.54944e+06 1.531e+06 0 -4.55741e+06 1.58933e+06 0 -4.56402e+06 1.64768e+06 0 -4.56929e+06 1.70598e+06 0 -4.57322e+06 1.76419e+06 0 -4.57583e+06 1.82226e+06 0 -4.57715e+06 1.88015e+06 0 -4.57719e+06 1.93782e+06 0 -4.57598e+06 1.99522e+06 0 -4.57354e+06 2.05232e+06 0 -4.56989e+06 2.10908e+06 0 -4.56506e+06 2.16546e+06 0 -4.55909e+06 2.22143e+06 0 -4.55199e+06 2.27695e+06 0 -4.5438e+06 2.332e+06 0 -4.53455e+06 2.38656e+06 0 -4.52427e+06 2.44058e+06 0 -4.51298e+06 2.49406e+06 0 -4.50073e+06 2.54696e+06 0 -4.48754e+06 2.59927e+06 0 -4.47345e+06 2.65097e+06 0 -4.45848e+06 2.70203e+06 0 -4.44267e+06 2.75246e+06 0 -4.42604e+06 2.80222e+06 0 -4.40864e+06 2.85132e+06 0 -4.39048e+06 2.89973e+06 0 -4.3716e+06 2.94746e+06 0 -4.35203e+06 2.99448e+06 0 -4.3318e+06 3.0408e+06 0 -4.31093e+06 3.0864e+06 0 -4.28945e+06 3.13129e+06 0 -4.26739e+06 3.17545e+06 0 -4.24477e+06 3.21888e+06 0 -4.22162e+06 3.26159e+06 0 -4.19796e+06 3.30356e+06 0 -4.17382e+06 3.3448e+06 0 -4.14922e+06 3.38531e+06 0 -4.12419e+06 3.42508e+06 0 -4.09873e+06 3.46411e+06 0 -4.07289e+06 3.50241e+06 0 -4.04666e+06 3.53997e+06 0 -4.02008e+06 3.57679e+06 0 -3.99316e+06 3.61289e+06 0 -3.96593e+06 3.64824e+06 0 -3.93839e+06 3.68287e+06 0 -3.91058e+06 3.71676e+06 0 -3.88249e+06 3.74991e+06 0 -3.85416e+06 3.78234e+06 0 -3.82559e+06 3.81403e+06 0 -3.7968e+06 3.84499e+06 0 -3.76781e+06 3.87522e+06 0 -3.73863e+06 3.90472e+06 0 -3.70928e+06 3.93348e+06 0 -3.67977e+06 3.96151e+06 0 -3.65012e+06 3.9888e+06 0 -3.62033e+06 4.01535e+06 0 -3.59044e+06 4.04117e+06 0 -3.56044e+06 4.06624e+06 0 -3.53036e+06 4.09057e+06 0 -3.50021e+06 4.11415e+06 0 -3.47001e+06 4.13698e+06 0 -3.43977e+06 4.15906e+06 0 -3.40951e+06 4.18037e+06 0 -3.37925e+06 4.20092e+06 0 -3.34901e+06 4.22071e+06 0 -3.3188e+06 4.23972e+06 0 -3.28865e+06 4.25794e+06 0 -3.25858e+06 4.27539e+06 0 -3.22861e+06 4.29205e+06 0 -3.19877e+06 4.30791e+06 0 -3.16908e+06 4.32297e+06 0 -3.13958e+06 4.33724e+06 0 -3.1103e+06 4.35069e+06 0 -3.08126e+06 4.36335e+06 0 -3.05251e+06 4.3752e+06 0 -3.02408e+06 4.38625e+06 0 -2.99601e+06 4.39652e+06 0 -2.96835e+06 4.406e+06 0 -2.94113e+06 4.41472e+06 0 -2.9144e+06 4.42269e+06 0 -2.88821e+06 4.42995e+06 0 -2.86259e+06 4.43653e+06 0 -2.83758e+06 4.44246e+06 0 -2.81323e+06 4.44779e+06 0 -2.78954e+06 4.45257e+06 0 -2.76656e+06 4.45686e+06 0 -2.74429e+06 4.4607e+06 0 -2.72274e+06 4.46416e+06 0 -2.70191e+06 4.46728e+06 0 -2.68179e+06 4.47013e+06 0 -2.66238e+06 4.47274e+06 0 -2.64365e+06 4.47518e+06 0 -2.62557e+06 4.47748e+06 0 -2.60813e+06 4.47968e+06 0 -2.5913e+06 4.48181e+06 0 -2.57511e+06 4.48388e+06 0 -2.55941e+06 4.48591e+06 0 -3.65467e+06 180105 0 -3.69248e+06 213945 0 -3.72979e+06 248829 0 -3.76656e+06 284753 0 -3.80276e+06 321712 0 -3.83834e+06 359697 0 -3.87327e+06 398699 0 -3.90752e+06 438705 0 -3.94103e+06 479701 0 -3.97377e+06 521671 0 -4.00571e+06 564596 0 -4.0368e+06 608455 0 -4.06702e+06 653224 0 -4.09631e+06 698877 0 -4.12464e+06 745386 0 -4.15199e+06 792722 0 -4.17832e+06 840850 0 -4.20359e+06 889738 0 -4.22777e+06 939348 0 -4.25084e+06 989641 0 -4.27277e+06 1.04058e+06 0 -4.29354e+06 1.09212e+06 0 -4.31312e+06 1.14422e+06 0 -4.33149e+06 1.19683e+06 0 -4.34865e+06 1.24991e+06 0 -4.36456e+06 1.30341e+06 0 -4.37922e+06 1.35729e+06 0 -4.39262e+06 1.4115e+06 0 -4.40476e+06 1.46598e+06 0 -4.41562e+06 1.5207e+06 0 -4.42521e+06 1.5756e+06 0 -4.43353e+06 1.63063e+06 0 -4.44058e+06 1.68576e+06 0 -4.44637e+06 1.74093e+06 0 -4.45091e+06 1.79609e+06 0 -4.45419e+06 1.8512e+06 0 -4.45625e+06 1.90623e+06 0 -4.45709e+06 1.96111e+06 0 -4.45673e+06 2.01582e+06 0 -4.45519e+06 2.07032e+06 0 -4.45248e+06 2.12456e+06 0 -4.44864e+06 2.17851e+06 0 -4.44368e+06 2.23214e+06 0 -4.43762e+06 2.28541e+06 0 -4.43049e+06 2.33828e+06 0 -4.42233e+06 2.39074e+06 0 -4.41314e+06 2.44274e+06 0 -4.40297e+06 2.49427e+06 0 -4.39184e+06 2.54531e+06 0 -4.37977e+06 2.59582e+06 0 -4.3668e+06 2.64578e+06 0 -4.35296e+06 2.69518e+06 0 -4.33827e+06 2.744e+06 0 -4.32276e+06 2.79223e+06 0 -4.30647e+06 2.83984e+06 0 -4.28941e+06 2.88682e+06 0 -4.27163e+06 2.93316e+06 0 -4.25314e+06 2.97885e+06 0 -4.23398e+06 3.02388e+06 0 -4.21416e+06 3.06824e+06 0 -4.19373e+06 3.11192e+06 0 -4.17269e+06 3.15492e+06 0 -4.15109e+06 3.19722e+06 0 -4.12894e+06 3.23883e+06 0 -4.10627e+06 3.27974e+06 0 -4.08311e+06 3.31995e+06 0 -4.05947e+06 3.35944e+06 0 -4.03538e+06 3.39823e+06 0 -4.01086e+06 3.4363e+06 0 -3.98593e+06 3.47366e+06 0 -3.96061e+06 3.5103e+06 0 -3.93493e+06 3.54622e+06 0 -3.9089e+06 3.58142e+06 0 -3.88255e+06 3.6159e+06 0 -3.85588e+06 3.64966e+06 0 -3.82893e+06 3.68269e+06 0 -3.80171e+06 3.71501e+06 0 -3.77423e+06 3.7466e+06 0 -3.74651e+06 3.77746e+06 0 -3.71858e+06 3.8076e+06 0 -3.69045e+06 3.83701e+06 0 -3.66213e+06 3.8657e+06 0 -3.63364e+06 3.89365e+06 0 -3.605e+06 3.92088e+06 0 -3.57623e+06 3.94737e+06 0 -3.54734e+06 3.97313e+06 0 -3.51834e+06 3.99816e+06 0 -3.48927e+06 4.02245e+06 0 -3.46012e+06 4.046e+06 0 -3.43093e+06 4.0688e+06 0 -3.40171e+06 4.09086e+06 0 -3.37248e+06 4.11218e+06 0 -3.34325e+06 4.13274e+06 0 -3.31406e+06 4.15255e+06 0 -3.28492e+06 4.17161e+06 0 -3.25584e+06 4.18991e+06 0 -3.22687e+06 4.20745e+06 0 -3.19801e+06 4.22424e+06 0 -3.1693e+06 4.24026e+06 0 -3.14076e+06 4.25552e+06 0 -3.11242e+06 4.27003e+06 0 -3.08432e+06 4.28378e+06 0 -3.05647e+06 4.29677e+06 0 -3.02892e+06 4.30903e+06 0 -3.00169e+06 4.32056e+06 0 -2.97482e+06 4.33136e+06 0 -2.94835e+06 4.34146e+06 0 -2.92231e+06 4.35087e+06 0 -2.89673e+06 4.35962e+06 0 -2.87165e+06 4.36773e+06 0 -2.84709e+06 4.37524e+06 0 -2.82308e+06 4.38218e+06 0 -2.79964e+06 4.38859e+06 0 -2.7768e+06 4.3945e+06 0 -2.75458e+06 4.39997e+06 0 -2.73297e+06 4.40502e+06 0 -2.71199e+06 4.40972e+06 0 -2.69163e+06 4.41409e+06 0 -2.67189e+06 4.41819e+06 0 -2.65277e+06 4.42204e+06 0 -2.63425e+06 4.42569e+06 0 -2.61631e+06 4.42917e+06 0 -2.59895e+06 4.43252e+06 0 -2.58214e+06 4.43575e+06 0 -2.56586e+06 4.43888e+06 0 -2.5501e+06 4.44195e+06 0 -2.53479e+06 4.44497e+06 0 -2.51998e+06 4.44797e+06 0 -3.62e+06 347728 0 -3.65403e+06 379860 0 -3.68764e+06 412941 0 -3.72079e+06 446971 0 -3.75345e+06 481946 0 -3.78559e+06 517863 0 -3.81715e+06 554714 0 -3.84812e+06 592492 0 -3.87846e+06 631186 0 -3.90812e+06 670784 0 -3.93707e+06 711270 0 -3.96528e+06 752627 0 -3.99271e+06 794837 0 -4.01932e+06 837878 0 -4.04507e+06 881727 0 -4.06995e+06 926357 0 -4.0939e+06 971741 0 -4.11691e+06 1.01785e+06 0 -4.13893e+06 1.06465e+06 0 -4.15995e+06 1.11211e+06 0 -4.17993e+06 1.16019e+06 0 -4.19885e+06 1.20885e+06 0 -4.21669e+06 1.25806e+06 0 -4.23343e+06 1.30778e+06 0 -4.24904e+06 1.35797e+06 0 -4.26351e+06 1.40858e+06 0 -4.27684e+06 1.45956e+06 0 -4.28899e+06 1.51089e+06 0 -4.29997e+06 1.5625e+06 0 -4.30977e+06 1.61436e+06 0 -4.31839e+06 1.66643e+06 0 -4.32582e+06 1.71865e+06 0 -4.33206e+06 1.77099e+06 0 -4.33712e+06 1.8234e+06 0 -4.34101e+06 1.87583e+06 0 -4.34372e+06 1.92824e+06 0 -4.34527e+06 1.9806e+06 0 -4.34567e+06 2.03286e+06 0 -4.34493e+06 2.08498e+06 0 -4.34307e+06 2.13692e+06 0 -4.34011e+06 2.18865e+06 0 -4.33607e+06 2.24013e+06 0 -4.33095e+06 2.29132e+06 0 -4.32479e+06 2.34219e+06 0 -4.31761e+06 2.39272e+06 0 -4.30943e+06 2.44286e+06 0 -4.30027e+06 2.4926e+06 0 -4.29017e+06 2.54191e+06 0 -4.27913e+06 2.59076e+06 0 -4.2672e+06 2.63912e+06 0 -4.2544e+06 2.68698e+06 0 -4.24075e+06 2.73431e+06 0 -4.22628e+06 2.78111e+06 0 -4.21101e+06 2.82734e+06 0 -4.19498e+06 2.87299e+06 0 -4.17822e+06 2.91805e+06 0 -4.16074e+06 2.9625e+06 0 -4.14257e+06 3.00634e+06 0 -4.12375e+06 3.04955e+06 0 -4.10429e+06 3.09211e+06 0 -4.08423e+06 3.13403e+06 0 -4.06358e+06 3.17529e+06 0 -4.04238e+06 3.21589e+06 0 -4.02064e+06 3.25581e+06 0 -3.9984e+06 3.29506e+06 0 -3.97567e+06 3.33362e+06 0 -3.95247e+06 3.3715e+06 0 -3.92884e+06 3.40868e+06 0 -3.90479e+06 3.44517e+06 0 -3.88034e+06 3.48096e+06 0 -3.85552e+06 3.51605e+06 0 -3.83034e+06 3.55043e+06 0 -3.80483e+06 3.58411e+06 0 -3.779e+06 3.61708e+06 0 -3.75289e+06 3.64933e+06 0 -3.72649e+06 3.68088e+06 0 -3.69984e+06 3.71171e+06 0 -3.67296e+06 3.74183e+06 0 -3.64585e+06 3.77123e+06 0 -3.61855e+06 3.79991e+06 0 -3.59107e+06 3.82787e+06 0 -3.56342e+06 3.85511e+06 0 -3.53563e+06 3.88162e+06 0 -3.50771e+06 3.90742e+06 0 -3.47969e+06 3.93248e+06 0 -3.45158e+06 3.95682e+06 0 -3.4234e+06 3.98043e+06 0 -3.39517e+06 4.00331e+06 0 -3.36691e+06 4.02545e+06 0 -3.33864e+06 4.04687e+06 0 -3.31038e+06 4.06755e+06 0 -3.28215e+06 4.0875e+06 0 -3.25398e+06 4.10671e+06 0 -3.22589e+06 4.12519e+06 0 -3.1979e+06 4.14293e+06 0 -3.17004e+06 4.15995e+06 0 -3.14232e+06 4.17623e+06 0 -3.11479e+06 4.19179e+06 0 -3.08745e+06 4.20663e+06 0 -3.06035e+06 4.22076e+06 0 -3.03351e+06 4.23418e+06 0 -3.00696e+06 4.24691e+06 0 -2.98073e+06 4.25896e+06 0 -2.95484e+06 4.27033e+06 0 -2.92933e+06 4.28106e+06 0 -2.90422e+06 4.29116e+06 0 -2.87954e+06 4.30065e+06 0 -2.85532e+06 4.30956e+06 0 -2.83157e+06 4.31792e+06 0 -2.80833e+06 4.32575e+06 0 -2.7856e+06 4.33309e+06 0 -2.76341e+06 4.33998e+06 0 -2.74176e+06 4.34645e+06 0 -2.72066e+06 4.35253e+06 0 -2.70012e+06 4.35826e+06 0 -2.68014e+06 4.36367e+06 0 -2.66071e+06 4.36881e+06 0 -2.64182e+06 4.3737e+06 0 -2.62348e+06 4.37837e+06 0 -2.60566e+06 4.38285e+06 0 -2.58837e+06 4.38716e+06 0 -2.57157e+06 4.39134e+06 0 -2.55527e+06 4.3954e+06 0 -2.53944e+06 4.39936e+06 0 -2.52406e+06 4.40324e+06 0 -2.50912e+06 4.40706e+06 0 -2.49462e+06 4.41083e+06 0 -2.48052e+06 4.41455e+06 0 -3.58076e+06 495585 0 -3.61168e+06 526154 0 -3.64224e+06 557600 0 -3.67241e+06 589923 0 -3.70215e+06 623123 0 -3.73143e+06 657198 0 -3.76021e+06 692145 0 -3.78847e+06 727956 0 -3.81617e+06 764625 0 -3.84328e+06 802141 0 -3.86975e+06 840493 0 -3.89555e+06 879668 0 -3.92066e+06 919648 0 -3.94502e+06 960416 0 -3.96862e+06 1.00195e+06 0 -3.99142e+06 1.04423e+06 0 -4.01338e+06 1.08723e+06 0 -4.03448e+06 1.13093e+06 0 -4.05468e+06 1.17529e+06 0 -4.07396e+06 1.22029e+06 0 -4.09229e+06 1.26589e+06 0 -4.10964e+06 1.31207e+06 0 -4.126e+06 1.35878e+06 0 -4.14133e+06 1.40598e+06 0 -4.15562e+06 1.45365e+06 0 -4.16886e+06 1.50174e+06 0 -4.18102e+06 1.55021e+06 0 -4.19209e+06 1.59902e+06 0 -4.20207e+06 1.64813e+06 0 -4.21094e+06 1.6975e+06 0 -4.2187e+06 1.74709e+06 0 -4.22534e+06 1.79685e+06 0 -4.23087e+06 1.84674e+06 0 -4.23528e+06 1.89672e+06 0 -4.23858e+06 1.94676e+06 0 -4.24076e+06 1.9968e+06 0 -4.24185e+06 2.0468e+06 0 -4.24184e+06 2.09674e+06 0 -4.24075e+06 2.14656e+06 0 -4.2386e+06 2.19624e+06 0 -4.23538e+06 2.24574e+06 0 -4.23113e+06 2.29501e+06 0 -4.22586e+06 2.34404e+06 0 -4.21959e+06 2.39278e+06 0 -4.21233e+06 2.4412e+06 0 -4.20411e+06 2.48927e+06 0 -4.19496e+06 2.53698e+06 0 -4.18488e+06 2.58428e+06 0 -4.17391e+06 2.63116e+06 0 -4.16208e+06 2.67758e+06 0 -4.14939e+06 2.72354e+06 0 -4.13589e+06 2.769e+06 0 -4.12159e+06 2.81394e+06 0 -4.10653e+06 2.85836e+06 0 -4.09072e+06 2.90223e+06 0 -4.07419e+06 2.94554e+06 0 -4.05697e+06 2.98826e+06 0 -4.03908e+06 3.0304e+06 0 -4.02055e+06 3.07193e+06 0 -4.0014e+06 3.11284e+06 0 -3.98166e+06 3.15313e+06 0 -3.96135e+06 3.19279e+06 0 -3.9405e+06 3.2318e+06 0 -3.91913e+06 3.27016e+06 0 -3.89727e+06 3.30786e+06 0 -3.87493e+06 3.3449e+06 0 -3.85215e+06 3.38126e+06 0 -3.82894e+06 3.41696e+06 0 -3.80532e+06 3.45197e+06 0 -3.78132e+06 3.48629e+06 0 -3.75697e+06 3.51993e+06 0 -3.73227e+06 3.55288e+06 0 -3.70725e+06 3.58513e+06 0 -3.68194e+06 3.61668e+06 0 -3.65635e+06 3.64753e+06 0 -3.6305e+06 3.67768e+06 0 -3.60441e+06 3.70713e+06 0 -3.57811e+06 3.73587e+06 0 -3.55161e+06 3.7639e+06 0 -3.52494e+06 3.79122e+06 0 -3.49811e+06 3.81782e+06 0 -3.47114e+06 3.84372e+06 0 -3.44405e+06 3.8689e+06 0 -3.41687e+06 3.89336e+06 0 -3.38961e+06 3.91711e+06 0 -3.36229e+06 3.94014e+06 0 -3.33494e+06 3.96245e+06 0 -3.30757e+06 3.98405e+06 0 -3.28021e+06 4.00493e+06 0 -3.25288e+06 4.02509e+06 0 -3.22561e+06 4.04454e+06 0 -3.19841e+06 4.06328e+06 0 -3.17131e+06 4.08131e+06 0 -3.14433e+06 4.09863e+06 0 -3.1175e+06 4.11525e+06 0 -3.09084e+06 4.13118e+06 0 -3.06438e+06 4.14642e+06 0 -3.03814e+06 4.16098e+06 0 -3.01216e+06 4.17487e+06 0 -2.98645e+06 4.1881e+06 0 -2.96104e+06 4.20069e+06 0 -2.93596e+06 4.21265e+06 0 -2.91123e+06 4.22401e+06 0 -2.88688e+06 4.23477e+06 0 -2.86292e+06 4.24496e+06 0 -2.83939e+06 4.25461e+06 0 -2.81629e+06 4.26375e+06 0 -2.79365e+06 4.27239e+06 0 -2.77148e+06 4.28057e+06 0 -2.74979e+06 4.28831e+06 0 -2.72859e+06 4.29565e+06 0 -2.70789e+06 4.30262e+06 0 -2.68769e+06 4.30925e+06 0 -2.668e+06 4.31557e+06 0 -2.64881e+06 4.3216e+06 0 -2.63011e+06 4.32738e+06 0 -2.61191e+06 4.33293e+06 0 -2.59419e+06 4.33827e+06 0 -2.57695e+06 4.34343e+06 0 -2.56018e+06 4.34844e+06 0 -2.54385e+06 4.35331e+06 0 -2.5