<?xml version="1.0"?> 
<VTKFile type="StructuredGrid" version="0.1"> 
<StructuredGrid WholeExtent="0 127 0 127 0 0"> 
<Piece Extent="0 127 0 127 0 0"> 
<PointData>
<DataArray type="Float32" Name="E" format="ascii" NumberOfComponents="3"> 
-2.71334e+06 4.84118e+06 0 -2.61699e+06 4.75131e+06 0 -2.54865e+06 4.70947e+06 0 -2.49125e+06 4.6862e+06 0 -2.44021e+06 4.67374e+06 0 -2.39347e+06 4.66869e+06 0 -2.34978e+06 4.66901e+06 0 -2.30838e+06 4.67342e+06 0 -2.2687e+06 4.68105e+06 0 -2.23037e+06 4.69125e+06 0 -2.19307e+06 4.70354e+06 0 -2.15659e+06 4.71754e+06 0 -2.12074e+06 4.73296e+06 0 -2.08537e+06 4.74954e+06 0 -2.05036e+06 4.76709e+06 0 -2.01563e+06 4.78544e+06 0 -1.98109e+06 4.80444e+06 0 -1.94666e+06 4.82397e+06 0 -1.91231e+06 4.84392e+06 0 -1.87798e+06 4.86419e+06 0 -1.84362e+06 4.88471e+06 0 -1.80921e+06 4.90538e+06 0 -1.77472e+06 4.92616e+06 0 -1.74013e+06 4.94697e+06 0 -1.70542e+06 4.96775e+06 0 -1.67056e+06 4.98846e+06 0 -1.63556e+06 5.00905e+06 0 -1.60039e+06 5.02947e+06 0 -1.56505e+06 5.04969e+06 0 -1.52954e+06 5.06967e+06 0 -1.49385e+06 5.08936e+06 0 -1.45798e+06 5.10874e+06 0 -1.42193e+06 5.12778e+06 0 -1.3857e+06 5.14644e+06 0 -1.34929e+06 5.16471e+06 0 -1.31271e+06 5.18255e+06 0 -1.27596e+06 5.19993e+06 0 -1.23905e+06 5.21685e+06 0 -1.20199e+06 5.23327e+06 0 -1.16477e+06 5.24918e+06 0 -1.12741e+06 5.26455e+06 0 -1.08993e+06 5.27938e+06 0 -1.05232e+06 5.29364e+06 0 -1.01459e+06 5.30731e+06 0 -976769 5.32039e+06 0 -938856 5.33285e+06 0 -900863 5.3447e+06 0 -862803 5.3559e+06 0 -824689 5.36647e+06 0 -786532 5.37638e+06 0 -748346 5.38562e+06 0 -710144 5.3942e+06 0 -671938 5.4021e+06 0 -633743 5.40931e+06 0 -595571 5.41583e+06 0 -557436 5.42166e+06 0 -519353 5.4268e+06 0 -481333 5.43123e+06 0 -443392 5.43497e+06 0 -405543 5.438e+06 0 -367799 5.44033e+06 0 -330174 5.44195e+06 0 -292681 5.44288e+06 0 -255333 5.4431e+06 0 -218144 5.44263e+06 0 -181126 5.44147e+06 0 -144292 5.43962e+06 0 -107655 5.43709e+06 0 -71225.9 5.43387e+06 0 -35017.9 5.42999e+06 0 957.752 5.42544e+06 0 36689.7 5.42023e+06 0 72166.9 5.41438e+06 0 107379 5.40788e+06 0 142315 5.40076e+06 0 176965 5.39301e+06 0 211320 5.38466e+06 0 245371 5.37571e+06 0 279108 5.36617e+06 0 312524 5.35606e+06 0 345610 5.34539e+06 0 378359 5.33417e+06 0 410765 5.32243e+06 0 442820 5.31016e+06 0 474520 5.2974e+06 0 505858 5.28415e+06 0 536829 5.27044e+06 0 567429 5.25627e+06 0 597655 5.24168e+06 0 627503 5.22667e+06 0 656970 5.21127e+06 0 686054 5.19549e+06 0 714755 5.17936e+06 0 743071 5.1629e+06 0 771002 5.14614e+06 0 798548 5.12908e+06 0 825711 5.11177e+06 0 852493 5.09422e+06 0 878897 5.07645e+06 0 904926 5.05851e+06 0 930584 5.0404e+06 0 955877 5.02218e+06 0 980812 5.00385e+06 0 1.00539e+06 4.98546e+06 0 1.02963e+06 4.96705e+06 0 1.05354e+06 4.94864e+06 0 1.07713e+06 4.93028e+06 0 1.1004e+06 4.91201e+06 0 1.12338e+06 4.89387e+06 0 1.14607e+06 4.87592e+06 0 1.16851e+06 4.8582e+06 0 1.1907e+06 4.84077e+06 0 1.21268e+06 4.8237e+06 0 1.23446e+06 4.80706e+06 0 1.25608e+06 4.79093e+06 0 1.27757e+06 4.7754e+06 0 1.29897e+06 4.76059e+06 0 1.32034e+06 4.74661e+06 0 1.34173e+06 4.73364e+06 0 1.36322e+06 4.72184e+06 0 1.38488e+06 4.71146e+06 0 1.40685e+06 4.70281e+06 0 1.42928e+06 4.69633e+06 0 1.45236e+06 4.69255e+06 0 1.4765e+06 4.69256e+06 0 1.50217e+06 4.69771e+06 0 1.53078e+06 4.71206e+06 0 1.56798e+06 4.7523e+06 0 -2.70243e+06 4.72138e+06 0 -2.60655e+06 4.68405e+06 0 -2.53492e+06 4.66044e+06 0 -2.47491e+06 4.64725e+06 0 -2.42202e+06 4.64144e+06 0 -2.37384e+06 4.64104e+06 0 -2.32904e+06 4.64481e+06 0 -2.28675e+06 4.65184e+06 0 -2.24636e+06 4.6615e+06 0 -2.20744e+06 4.67328e+06 0 -2.16966e+06 4.68682e+06 0 -2.13279e+06 4.7018e+06 0 -2.09662e+06 4.71798e+06 0 -2.061e+06 4.73516e+06 0 -2.0258e+06 4.75317e+06 0 -1.99093e+06 4.77185e+06 0 -1.95628e+06 4.79109e+06 0 -1.9218e+06 4.81077e+06 0 -1.88742e+06 4.83081e+06 0 -1.8531e+06 4.8511e+06 0 -1.81879e+06 4.87159e+06 0 -1.78446e+06 4.89219e+06 0 -1.75007e+06 4.91285e+06 0 -1.71561e+06 4.93352e+06 0 -1.68104e+06 4.95413e+06 0 -1.64637e+06 4.97464e+06 0 -1.61156e+06 4.99501e+06 0 -1.57662e+06 5.0152e+06 0 -1.54153e+06 5.03517e+06 0 -1.50628e+06 5.05488e+06 0 -1.47088e+06 5.07431e+06 0 -1.43532e+06 5.09341e+06 0 -1.39959e+06 5.11216e+06 0 -1.3637e+06 5.13054e+06 0 -1.32766e+06 5.14851e+06 0 -1.29145e+06 5.16606e+06 0 -1.2551e+06 5.18316e+06 0 -1.21859e+06 5.19978e+06 0 -1.18195e+06 5.21592e+06 0 -1.14517e+06 5.23154e+06 0 -1.10826e+06 5.24664e+06 0 -1.07123e+06 5.26119e+06 0 -1.0341e+06 5.27518e+06 0 -996863 5.2886e+06 0 -959536 5.30143e+06 0 -922130 5.31365e+06 0 -884654 5.32526e+06 0 -847120 5.33625e+06 0 -809540 5.3466e+06 0 -771926 5.35631e+06 0 -734289 5.36536e+06 0 -696643 5.37376e+06 0 -658999 5.38149e+06 0 -621370 5.38855e+06 0 -583770 5.39493e+06 0 -546210 5.40064e+06 0 -508705 5.40565e+06 0 -471267 5.40999e+06 0 -433909 5.41363e+06 0 -396644 5.41659e+06 0 -359486 5.41885e+06 0 -322446 5.42043e+06 0 -285538 5.42132e+06 0 -248774 5.42153e+06 0 -212167 5.42105e+06 0 -175729 5.41989e+06 0 -139472 5.41806e+06 0 -103408 5.41556e+06 0 -67548.8 5.41239e+06 0 -31905.7 5.40856e+06 0 3510.29 5.40408e+06 0 38688.3 5.39896e+06 0 73617.7 5.3932e+06 0 108289 5.38682e+06 0 142691 5.37981e+06 0 176815 5.3722e+06 0 210653 5.36399e+06 0 244194 5.35519e+06 0 277432 5.34581e+06 0 310358 5.33588e+06 0 342964 5.32539e+06 0 375244 5.31437e+06 0 407192 5.30283e+06 0 438801 5.29078e+06 0 470066 5.27823e+06 0 500981 5.26521e+06 0 531542 5.25173e+06 0 561746 5.23781e+06 0 591589 5.22346e+06 0 621068 5.20871e+06 0 650181 5.19356e+06 0 678926 5.17805e+06 0 707302 5.16219e+06 0 735308 5.14601e+06 0 762947 5.12951e+06 0 790217 5.11274e+06 0 817121 5.0957e+06 0 843661 5.07843e+06 0 869841 5.06095e+06 0 895665 5.04328e+06 0 921138 5.02546e+06 0 946266 5.00751e+06 0 971056 4.98946e+06 0 995516 4.97134e+06 0 1.01966e+06 4.95319e+06 0 1.04348e+06 4.93504e+06 0 1.06702e+06 4.91694e+06 0 1.09026e+06 4.89891e+06 0 1.11324e+06 4.881e+06 0 1.13597e+06 4.86327e+06 0 1.15847e+06 4.84576e+06 0 1.18077e+06 4.82852e+06 0 1.20288e+06 4.81162e+06 0 1.22484e+06 4.79513e+06 0 1.24669e+06 4.77913e+06 0 1.26846e+06 4.7637e+06 0 1.29021e+06 4.74894e+06 0 1.312e+06 4.73498e+06 0 1.3339e+06 4.72196e+06 0 1.35599e+06 4.71006e+06 0 1.37841e+06 4.69948e+06 0 1.40131e+06 4.69052e+06 0 1.4249e+06 4.68354e+06 0 1.44953e+06 4.67907e+06 0 1.47571e+06 4.67785e+06 0 1.50453e+06 4.6812e+06 0 1.53827e+06 4.69122e+06 0 1.58577e+06 4.71054e+06 0 -2.67203e+06 4.64292e+06 0 -2.58431e+06 4.62639e+06 0 -2.51387e+06 4.61568e+06 0 -2.45375e+06 4.61075e+06 0 -2.40037e+06 4.61065e+06 0 -2.35166e+06 4.61441e+06 0 -2.30636e+06 4.6213e+06 0 -2.26361e+06 4.63074e+06 0 -2.22283e+06 4.64227e+06 0 -2.18358e+06 4.65553e+06 0 -2.14553e+06 4.67024e+06 0 -2.10842e+06 4.68614e+06 0 -2.07207e+06 4.70305e+06 0 -2.03631e+06 4.7208e+06 0 -2.00101e+06 4.73923e+06 0 -1.96607e+06 4.75824e+06 0 -1.93139e+06 4.7777e+06 0 -1.89691e+06 4.79754e+06 0 -1.86256e+06 4.81765e+06 0 -1.82829e+06 4.83797e+06 0 -1.79406e+06 4.85842e+06 0 -1.75983e+06 4.87896e+06 0 -1.72558e+06 4.89951e+06 0 -1.69127e+06 4.92004e+06 0 -1.65688e+06 4.94049e+06 0 -1.62241e+06 4.96081e+06 0 -1.58782e+06 4.98098e+06 0 -1.55312e+06 5.00094e+06 0 -1.51829e+06 5.02067e+06 0 -1.48332e+06 5.04013e+06 0 -1.44821e+06 5.0593e+06 0 -1.41296e+06 5.07813e+06 0 -1.37757e+06 5.09661e+06 0 -1.34203e+06 5.11471e+06 0 -1.30634e+06 5.13241e+06 0 -1.27052e+06 5.14968e+06 0 -1.23455e+06 5.1665e+06 0 -1.19846e+06 5.18285e+06 0 -1.16224e+06 5.19871e+06 0 -1.12589e+06 5.21406e+06 0 -1.08943e+06 5.22889e+06 0 -1.05286e+06 5.24319e+06 0 -1.0162e+06 5.25692e+06 0 -979445 5.27009e+06 0 -942610 5.28268e+06 0 -905704 5.29467e+06 0 -868739 5.30606e+06 0 -831724 5.31683e+06 0 -794671 5.32698e+06 0 -757590 5.3365e+06 0 -720494 5.34537e+06 0 -683394 5.3536e+06 0 -646302 5.36117e+06 0 -609231 5.36809e+06 0 -572191 5.37433e+06 0 -535197 5.37991e+06 0 -498259 5.38482e+06 0 -461391 5.38906e+06 0 -424605 5.39262e+06 0 -387914 5.3955e+06 0 -351329 5.39771e+06 0 -314863 5.39924e+06 0 -278528 5.4001e+06 0 -242336 5.40028e+06 0 -206299 5.3998e+06 0 -170429 5.39865e+06 0 -134737 5.39683e+06 0 -99235.3 5.39436e+06 0 -63933.9 5.39124e+06 0 -28844 5.38747e+06 0 6023.8 5.38306e+06 0 40659.1 5.37802e+06 0 75052.1 5.37235e+06 0 109193 5.36607e+06 0 143072 5.35918e+06 0 176681 5.3517e+06 0 210011 5.34362e+06 0 243054 5.33497e+06 0 275802 5.32576e+06 0 308247 5.31599e+06 0 340383 5.30568e+06 0 372203 5.29485e+06 0 403701 5.2835e+06 0 434872 5.27165e+06 0 465709 5.25932e+06 0 496210 5.24652e+06 0 526369 5.23327e+06 0 556183 5.21958e+06 0 585649 5.20547e+06 0 614764 5.19096e+06 0 643528 5.17607e+06 0 671938 5.16081e+06 0 699994 5.14521e+06 0 727696 5.12928e+06 0 755044 5.11305e+06 0 782041 5.09654e+06 0 808689 5.07977e+06 0 834989 5.06277e+06 0 860947 5.04556e+06 0 886567 5.02816e+06 0 911854 5.0106e+06 0 936816 4.99291e+06 0 961460 4.97512e+06 0 985794 4.95726e+06 0 1.00983e+06 4.93936e+06 0 1.03358e+06 4.92146e+06 0 1.05705e+06 4.90359e+06 0 1.08027e+06 4.88579e+06 0 1.10325e+06 4.8681e+06 0 1.126e+06 4.85057e+06 0 1.14856e+06 4.83324e+06 0 1.17094e+06 4.81618e+06 0 1.19317e+06 4.79943e+06 0 1.2153e+06 4.78307e+06 0 1.23736e+06 4.76716e+06 0 1.25939e+06 4.75179e+06 0 1.28146e+06 4.73706e+06 0 1.30363e+06 4.72307e+06 0 1.326e+06 4.70997e+06 0 1.34866e+06 4.69789e+06 0 1.37175e+06 4.68705e+06 0 1.39548e+06 4.67767e+06 0 1.42011e+06 4.67008e+06 0 1.44604e+06 4.66469e+06 0 1.47393e+06 4.66205e+06 0 1.50497e+06 4.66294e+06 0 1.54167e+06 4.66816e+06 0 1.58941e+06 4.67664e+06 0 -2.63626e+06 4.58083e+06 0 -2.55583e+06 4.57694e+06 0 -2.48813e+06 4.57532e+06 0 -2.42908e+06 4.57692e+06 0 -2.37606e+06 4.58159e+06 0 -2.32743e+06 4.58896e+06 0 -2.28207e+06 4.59862e+06 0 -2.23921e+06 4.61023e+06 0 -2.1983e+06 4.62346e+06 0 -2.15893e+06 4.63808e+06 0 -2.12077e+06 4.65387e+06 0 -2.08358e+06 4.67063e+06 0 -2.04716e+06 4.68821e+06 0 -2.01135e+06 4.70649e+06 0 -1.97603e+06 4.72533e+06 0 -1.94109e+06 4.74463e+06 0 -1.90644e+06 4.76431e+06 0 -1.872e+06 4.78428e+06 0 -1.83773e+06 4.80447e+06 0 -1.80355e+06 4.82481e+06 0 -1.76944e+06 4.84524e+06 0 -1.73535e+06 4.86571e+06 0 -1.70125e+06 4.88616e+06 0 -1.66712e+06 4.90655e+06 0 -1.63294e+06 4.92684e+06 0 -1.59868e+06 4.94699e+06 0 -1.56433e+06 4.96695e+06 0 -1.52988e+06 4.9867e+06 0 -1.49532e+06 5.0062e+06 0 -1.46064e+06 5.02542e+06 0 -1.42584e+06 5.04434e+06 0 -1.39091e+06 5.06292e+06 0 -1.35585e+06 5.08114e+06 0 -1.32066e+06 5.09898e+06 0 -1.28535e+06 5.11641e+06 0 -1.2499e+06 5.13341e+06 0 -1.21433e+06 5.14996e+06 0 -1.17865e+06 5.16605e+06 0 -1.14284e+06 5.18165e+06 0 -1.10693e+06 5.19674e+06 0 -1.07092e+06 5.21132e+06 0 -1.03481e+06 5.22536e+06 0 -998608 5.23886e+06 0 -962330 5.25179e+06 0 -925981 5.26415e+06 0 -889571 5.27592e+06 0 -853110 5.2871e+06 0 -816607 5.29767e+06 0 -780072 5.30762e+06 0 -743518 5.31695e+06 0 -706954 5.32565e+06 0 -670391 5.33372e+06 0 -633842 5.34114e+06 0 -597318 5.34791e+06 0 -560830 5.35403e+06 0 -524390 5.35949e+06 0 -488009 5.3643e+06 0 -451701 5.36844e+06 0 -415476 5.37192e+06 0 -379347 5.37473e+06 0 -343324 5.37689e+06 0 -307421 5.37838e+06 0 -271648 5.3792e+06 0 -236016 5.37937e+06 0 -200538 5.37888e+06 0 -165225 5.37773e+06 0 -130087 5.37594e+06 0 -95134.9 5.3735e+06 0 -60379.9 5.37042e+06 0 -25832 5.36671e+06 0 8498.69 5.36237e+06 0 42602.4 5.3574e+06 0 76469.5 5.35183e+06 0 110091 5.34565e+06 0 143458 5.33887e+06 0 176562 5.3315e+06 0 209395 5.32356e+06 0 241948 5.31506e+06 0 274216 5.306e+06 0 306190 5.29639e+06 0 337864 5.28625e+06 0 369232 5.2756e+06 0 400289 5.26444e+06 0 431029 5.25279e+06 0 461447 5.24066e+06 0 491540 5.22807e+06 0 521303 5.21504e+06 0 550733 5.20157e+06 0 579829 5.18769e+06 0 608587 5.17342e+06 0 637006 5.15876e+06 0 665086 5.14375e+06 0 692826 5.1284e+06 0 720226 5.11272e+06 0 747289 5.09674e+06 0 774015 5.08049e+06 0 800408 5.06398e+06 0 826470 5.04723e+06 0 852207 5.03027e+06 0 877623 5.01313e+06 0 902725 4.99583e+06 0 927519 4.97839e+06 0 952016 4.96085e+06 0 976223 4.94323e+06 0 1.00015e+06 4.92557e+06 0 1.02382e+06 4.90789e+06 0 1.04723e+06 4.89024e+06 0 1.07041e+06 4.87265e+06 0 1.09337e+06 4.85516e+06 0 1.11614e+06 4.83782e+06 0 1.13874e+06 4.82066e+06 0 1.1612e+06 4.80375e+06 0 1.18355e+06 4.78713e+06 0 1.20582e+06 4.77087e+06 0 1.22807e+06 4.75503e+06 0 1.25034e+06 4.7397e+06 0 1.2727e+06 4.72496e+06 0 1.29522e+06 4.71091e+06 0 1.31801e+06 4.69767e+06 0 1.34117e+06 4.68538e+06 0 1.36487e+06 4.6742e+06 0 1.38932e+06 4.66434e+06 0 1.41483e+06 4.65604e+06 0 1.44182e+06 4.6496e+06 0 1.471e+06 4.64539e+06 0 1.50351e+06 4.64375e+06 0 1.54142e+06 4.64466e+06 0 1.58776e+06 4.64639e+06 0 -2.59835e+06 4.52961e+06 0 -2.52395e+06 4.53393e+06 0 -2.45932e+06 4.53897e+06 0 -2.40188e+06 4.54569e+06 0 -2.34974e+06 4.55432e+06 0 -2.30159e+06 4.56476e+06 0 -2.25649e+06 4.57684e+06 0 -2.21378e+06 4.59036e+06 0 -2.17296e+06 4.60514e+06 0 -2.13363e+06 4.62098e+06 0 -2.09549e+06 4.63775e+06 0 -2.05833e+06 4.6553e+06 0 -2.02194e+06 4.67351e+06 0 -1.98617e+06 4.69227e+06 0 -1.9509e+06 4.71148e+06 0 -1.91602e+06 4.73106e+06 0 -1.88145e+06 4.75094e+06 0 -1.84711e+06 4.77104e+06 0 -1.81295e+06 4.79129e+06 0 -1.77891e+06 4.81165e+06 0 -1.74494e+06 4.83205e+06 0 -1.71102e+06 4.85245e+06 0 -1.67711e+06 4.8728e+06 0 -1.64318e+06 4.89307e+06 0 -1.60921e+06 4.9132e+06 0 -1.57518e+06 4.93318e+06 0 -1.54108e+06 4.95295e+06 0 -1.5069e+06 4.97249e+06 0 -1.47262e+06 4.99177e+06 0 -1.43824e+06 5.01077e+06 0 -1.40375e+06 5.02945e+06 0 -1.36915e+06 5.04778e+06 0 -1.33444e+06 5.06575e+06 0 -1.2996e+06 5.08334e+06 0 -1.26466e+06 5.10051e+06 0 -1.2296e+06 5.11726e+06 0 -1.19442e+06 5.13356e+06 0 -1.15914e+06 5.14939e+06 0 -1.12376e+06 5.16474e+06 0 -1.08828e+06 5.17958e+06 0 -1.05271e+06 5.19392e+06 0 -1.01705e+06 5.20772e+06 0 -981316 5.22098e+06 0 -945510 5.23369e+06 0 -909642 5.24583e+06 0 -873722 5.25739e+06 0 -837758 5.26836e+06 0 -801760 5.27874e+06 0 -765737 5.28851e+06 0 -729700 5.29767e+06 0 -693660 5.3062e+06 0 -657627 5.31411e+06 0 -621612 5.32139e+06 0 -585625 5.32802e+06 0 -549678 5.33402e+06 0 -513783 5.33937e+06 0 -477950 5.34408e+06 0 -442191 5.34813e+06 0 -406516 5.35153e+06 0 -370938 5.35428e+06 0 -335467 5.35638e+06 0 -300115 5.35783e+06 0 -264893 5.35863e+06 0 -229811 5.35878e+06 0 -194881 5.35828e+06 0 -160113 5.35715e+06 0 -125518 5.35537e+06 0 -91105.3 5.35296e+06 0 -56885.7 5.34993e+06 0 -22869 5.34627e+06 0 10935.3 5.34199e+06 0 44517.9 5.3371e+06 0 77869.8 5.33161e+06 0 110982 5.32553e+06 0 143847 5.31886e+06 0 176455 5.31162e+06 0 208800 5.3038e+06 0 240874 5.29544e+06 0 272671 5.28652e+06 0 304182 5.27707e+06 0 335403 5.2671e+06 0 366328 5.25662e+06 0 396951 5.24564e+06 0 427268 5.23418e+06 0 457274 5.22225e+06 0 486966 5.20987e+06 0 516340 5.19704e+06 0 545393 5.18379e+06 0 574123 5.17013e+06 0 602529 5.15608e+06 0 630609 5.14166e+06 0 658363 5.12688e+06 0 685791 5.11176e+06 0 712894 5.09633e+06 0 739673 5.08059e+06 0 766132 5.06458e+06 0 792272 5.04831e+06 0 818098 5.03181e+06 0 843614 5.0151e+06 0 868827 4.9982e+06 0 893742 4.98114e+06 0 918369 4.96394e+06 0 942716 4.94663e+06 0 966793 4.92924e+06 0 990613 4.9118e+06 0 1.01419e+06 4.89434e+06 0 1.03754e+06 4.8769e+06 0 1.06067e+06 4.85951e+06 0 1.08362e+06 4.8422e+06 0 1.10639e+06 4.82502e+06 0 1.12903e+06 4.80802e+06 0 1.15155e+06 4.79124e+06 0 1.17399e+06 4.77473e+06 0 1.1964e+06 4.75855e+06 0 1.21882e+06 4.74276e+06 0 1.2413e+06 4.72744e+06 0 1.26392e+06 4.71266e+06 0 1.28675e+06 4.69852e+06 0 1.30991e+06 4.68511e+06 0 1.33351e+06 4.67256e+06 0 1.35774e+06 4.661e+06 0 1.3828e+06 4.6506e+06 0 1.40903e+06 4.64153e+06 0 1.43685e+06 4.63399e+06 0 1.46693e+06 4.62817e+06 0 1.50029e+06 4.62413e+06 0 1.53844e+06 4.62146e+06 0 1.58316e+06 4.61853e+06 0 -2.55937e+06 4.4859e+06 0 -2.49006e+06 4.49608e+06 0 -2.42849e+06 4.50611e+06 0 -2.37289e+06 4.51689e+06 0 -2.32191e+06 4.52877e+06 0 -2.2745e+06 4.54181e+06 0 -2.2299e+06 4.55598e+06 0 -2.18753e+06 4.57119e+06 0 -2.14694e+06 4.58732e+06 0 -2.10779e+06 4.60427e+06 0 -2.0698e+06 4.62192e+06 0 -2.03276e+06 4.64019e+06 0 -1.99648e+06 4.65896e+06 0 -1.96082e+06 4.67816e+06 0 -1.92566e+06 4.69772e+06 0 -1.8909e+06 4.71756e+06 0 -1.85646e+06 4.73761e+06 0 -1.82226e+06 4.75782e+06 0 -1.78825e+06 4.77813e+06 0 -1.75437e+06 4.7985e+06 0 -1.72058e+06 4.81887e+06 0 -1.68685e+06 4.83921e+06 0 -1.65314e+06 4.85946e+06 0 -1.61943e+06 4.8796e+06 0 -1.5857e+06 4.89959e+06 0 -1.55192e+06 4.9194e+06 0 -1.51809e+06 4.93899e+06 0 -1.48418e+06 4.95833e+06 0 -1.4502e+06 4.9774e+06 0 -1.41612e+06 4.99618e+06 0 -1.38195e+06 5.01462e+06 0 -1.34769e+06 5.03273e+06 0 -1.31332e+06 5.05046e+06 0 -1.27885e+06 5.0678e+06 0 -1.24427e+06 5.08473e+06 0 -1.2096e+06 5.10123e+06 0 -1.17482e+06 5.11729e+06 0 -1.13995e+06 5.13287e+06 0 -1.10498e+06 5.14798e+06 0 -1.06993e+06 5.16259e+06 0 -1.0348e+06 5.17669e+06 0 -999592 5.19027e+06 0 -964315 5.20331e+06 0 -928977 5.2158e+06 0 -893586 5.22773e+06 0 -858149 5.23908e+06 0 -822676 5.24986e+06 0 -787176 5.26005e+06 0 -751658 5.26965e+06 0 -716131 5.27863e+06 0 -680607 5.28701e+06 0 -645094 5.29477e+06 0 -609604 5.30191e+06 0 -574146 5.30842e+06 0 -538732 5.3143e+06 0 -503371 5.31954e+06 0 -468076 5.32415e+06 0 -432855 5.32812e+06 0 -397721 5.33145e+06 0 -362684 5.33414e+06 0 -327755 5.33619e+06 0 -292944 5.3376e+06 0 -258261 5.33837e+06 0 -223719 5.33851e+06 0 -189326 5.33801e+06 0 -155092 5.33688e+06 0 -121029 5.33512e+06 0 -87145 5.33274e+06 0 -53450.4 5.32975e+06 0 -19954.4 5.32614e+06 0 13334 5.32193e+06 0 46405.7 5.31711e+06 0 79252.4 5.31171e+06 0 111866 5.30572e+06 0 144238 5.29916e+06 0 176360 5.29202e+06 0 208227 5.28434e+06 0 239831 5.2761e+06 0 271164 5.26733e+06 0 302222 5.25803e+06 0 332998 5.24822e+06 0 363488 5.23791e+06 0 393685 5.2271e+06 0 423586 5.21583e+06 0 453187 5.20408e+06 0 482485 5.19189e+06 0 511476 5.17927e+06 0 540157 5.16623e+06 0 568528 5.15278e+06 0 596587 5.13895e+06 0 624332 5.12474e+06 0 651765 5.11019e+06 0 678884 5.0953e+06 0 705693 5.0801e+06 0 732192 5.0646e+06 0 758385 5.04882e+06 0 784274 5.03278e+06 0 809865 5.01652e+06 0 835162 5.00004e+06 0 860171 4.98337e+06 0 884900 4.96654e+06 0 909358 4.94956e+06 0 933554 4.93248e+06 0 957499 4.9153e+06 0 981205 4.89807e+06 0 1.00469e+06 4.88082e+06 0 1.02796e+06 4.86357e+06 0 1.05105e+06 4.84635e+06 0 1.07397e+06 4.82922e+06 0 1.09674e+06 4.81219e+06 0 1.1194e+06 4.79532e+06 0 1.14197e+06 4.77866e+06 0 1.1645e+06 4.76224e+06 0 1.18702e+06 4.74612e+06 0 1.20958e+06 4.73036e+06 0 1.23225e+06 4.71503e+06 0 1.25509e+06 4.70018e+06 0 1.2782e+06 4.68592e+06 0 1.30168e+06 4.67231e+06 0 1.32566e+06 4.65947e+06 0 1.35033e+06 4.6475e+06 0 1.3759e+06 4.63651e+06 0 1.40269e+06 4.62664e+06 0 1.43112e+06 4.618e+06 0 1.46179e+06 4.61063e+06 0 1.49553e+06 4.60442e+06 0 1.53345e+06 4.59881e+06 0 1.57658e+06 4.59245e+06 0 -2.51996e+06 4.44796e+06 0 -2.45503e+06 4.46244e+06 0 -2.39634e+06 4.47629e+06 0 -2.34266e+06 4.49029e+06 0 -2.29297e+06 4.50483e+06 0 -2.24646e+06 4.52007e+06 0 -2.20251e+06 4.53603e+06 0 -2.16061e+06 4.5527e+06 0 -2.12039e+06 4.57004e+06 0 -2.08152e+06 4.58796e+06 0 -2.04377e+06 4.60641e+06 0 -2.00693e+06 4.62531e+06 0 -1.97083e+06 4.6446e+06 0 -1.93535e+06 4.6642e+06 0 -1.90035e+06 4.68407e+06 0 -1.86576e+06 4.70413e+06 0 -1.83149e+06 4.72434e+06 0 -1.79746e+06 4.74466e+06 0 -1.76363e+06 4.76502e+06 0 -1.72995e+06 4.78539e+06 0 -1.69636e+06 4.80572e+06 0 -1.66284e+06 4.82599e+06 0 -1.62936e+06 4.84615e+06 0 -1.59589e+06 4.86617e+06 0 -1.56241e+06 4.88601e+06 0 -1.52889e+06 4.90566e+06 0 -1.49534e+06 4.92507e+06 0 -1.46172e+06 4.94422e+06 0 -1.42804e+06 4.96309e+06 0 -1.39428e+06 4.98165e+06 0 -1.36044e+06 4.99988e+06 0 -1.32651e+06 5.01776e+06 0 -1.29249e+06 5.03526e+06 0 -1.25838e+06 5.05237e+06 0 -1.22418e+06 5.06907e+06 0 -1.18989e+06 5.08533e+06 0 -1.15551e+06 5.10115e+06 0 -1.12105e+06 5.11651e+06 0 -1.0865e+06 5.13138e+06 0 -1.05188e+06 5.14577e+06 0 -1.01718e+06 5.15964e+06 0 -982421 5.173e+06 0 -947599 5.18582e+06 0 -912724 5.19811e+06 0 -877803 5.20984e+06 0 -842845 5.221e+06 0 -807856 5.23159e+06 0 -772848 5.24161e+06 0 -737827 5.25103e+06 0 -702803 5.25986e+06 0 -667787 5.26808e+06 0 -632787 5.2757e+06 0 -597813 5.2827e+06 0 -562875 5.28909e+06 0 -527984 5.29486e+06 0 -493149 5.3e+06 0 -458381 5.30452e+06 0 -423690 5.30841e+06 0 -389086 5.31167e+06 0 -354580 5.3143e+06 0 -320182 5.3163e+06 0 -285902 5.31768e+06 0 -251749 5.31842e+06 0 -217735 5.31854e+06 0 -183869 5.31804e+06 0 -150160 5.31692e+06 0 -116618 5.31518e+06 0 -83252.7 5.31283e+06 0 -50072.8 5.30988e+06 0 -17087.4 5.30632e+06 0 15695 5.30217e+06 0 48265.8 5.29743e+06 0 80617 5.2921e+06 0 112741 5.28621e+06 0 144629 5.27974e+06 0 176276 5.27272e+06 0 207673 5.26516e+06 0 238815 5.25705e+06 0 269695 5.24842e+06 0 300307 5.23926e+06 0 330646 5.22961e+06 0 360708 5.21945e+06 0 390487 5.20882e+06 0 419980 5.19771e+06 0 449182 5.18615e+06 0 478092 5.17415e+06 0 506706 5.16172e+06 0 535022 5.14888e+06 0 563038 5.13564e+06 0 590754 5.12201e+06 0 618170 5.10802e+06 0 645285 5.09368e+06 0 672100 5.07901e+06 0 698618 5.06403e+06 0 724840 5.04875e+06 0 750769 5.0332e+06 0 776409 5.01739e+06 0 801765 5.00134e+06 0 826843 4.98508e+06 0 851650 4.96864e+06 0 876192 4.95202e+06 0 900479 4.93526e+06 0 924522 4.91839e+06 0 948331 4.90142e+06 0 971921 4.88438e+06 0 995306 4.86732e+06 0 1.0185e+06 4.85024e+06 0 1.04153e+06 4.8332e+06 0 1.06442e+06 4.81622e+06 0 1.08718e+06 4.79933e+06 0 1.10985e+06 4.78258e+06 0 1.13246e+06 4.76601e+06 0 1.15505e+06 4.74966e+06 0 1.17766e+06 4.73359e+06 0 1.20035e+06 4.71784e+06 0 1.22318e+06 4.70247e+06 0 1.24622e+06 4.68755e+06 0 1.26956e+06 4.67314e+06 0 1.29331e+06 4.65931e+06 0 1.31761e+06 4.64615e+06 0 1.34264e+06 4.63374e+06 0 1.36861e+06 4.62216e+06 0 1.39582e+06 4.61149e+06 0 1.42467e+06 4.60176e+06 0 1.45566e+06 4.59294e+06 0 1.48948e+06 4.58481e+06 0 1.5269e+06 4.5768e+06 0 1.56855e+06 4.5678e+06 0 -2.4805e+06 4.41454e+06 0 -2.41937e+06 4.43226e+06 0 -2.36335e+06 4.44907e+06 0 -2.31156e+06 4.46566e+06 0 -2.26323e+06 4.4824e+06 0 -2.21772e+06 4.49947e+06 0 -2.17451e+06 4.51696e+06 0 -2.13319e+06 4.5349e+06 0 -2.09342e+06 4.55328e+06 0 -2.05492e+06 4.57207e+06 0 -2.01748e+06 4.59122e+06 0 -1.98091e+06 4.6107e+06 0 -1.94505e+06 4.63044e+06 0 -1.90979e+06 4.6504e+06 0 -1.87501e+06 4.67054e+06 0 -1.84062e+06 4.69081e+06 0 -1.80656e+06 4.71116e+06 0 -1.77274e+06 4.73155e+06 0 -1.73912e+06 4.75196e+06 0 -1.70566e+06 4.77232e+06 0 -1.6723e+06 4.79262e+06 0 -1.63901e+06 4.81282e+06 0 -1.60578e+06 4.83288e+06 0 -1.57256e+06 4.85278e+06 0 -1.53934e+06 4.87249e+06 0 -1.5061e+06 4.89197e+06 0 -1.47283e+06 4.91121e+06 0 -1.43952e+06 4.93018e+06 0 -1.40614e+06 4.94885e+06 0 -1.3727e+06 4.96721e+06 0 -1.3392e+06 4.98523e+06 0 -1.30561e+06 5.00289e+06 0 -1.27195e+06 5.02017e+06 0 -1.23821e+06 5.03706e+06 0 -1.20438e+06 5.05353e+06 0 -1.17048e+06 5.06957e+06 0 -1.1365e+06 5.08516e+06 0 -1.10244e+06 5.10029e+06 0 -1.06831e+06 5.11495e+06 0 -1.03411e+06 5.12911e+06 0 -999851 5.14277e+06 0 -965531 5.15592e+06 0 -931160 5.16854e+06 0 -896743 5.18062e+06 0 -862288 5.19216e+06 0 -827802 5.20314e+06 0 -793292 5.21355e+06 0 -758768 5.22339e+06 0 -724238 5.23266e+06 0 -689710 5.24133e+06 0 -655194 5.24941e+06 0 -620698 5.25689e+06 0 -586232 5.26377e+06 0 -551806 5.27004e+06 0 -517429 5.2757e+06 0 -483111 5.28075e+06 0 -448861 5.28518e+06 0 -414690 5.28899e+06 0 -380608 5.29219e+06 0 -346623 5.29476e+06 0 -312746 5.29672e+06 0 -278986 5.29806e+06 0 -245354 5.29878e+06 0 -211858 5.29889e+06 0 -178509 5.29838e+06 0 -145314 5.29727e+06 0 -112284 5.29555e+06 0 -79427.2 5.29323e+06 0 -46752.2 5.29031e+06 0 -14267.5 5.28681e+06 0 18018.5 5.28271e+06 0 50098 5.27804e+06 0 81963.1 5.2728e+06 0 113606 5.26699e+06 0 145021 5.26062e+06 0 176200 5.25371e+06 0 207136 5.24626e+06 0 237825 5.23827e+06 0 268259 5.22977e+06 0 298434 5.22076e+06 0 328344 5.21125e+06 0 357985 5.20125e+06 0 387353 5.19078e+06 0 416444 5.17984e+06 0 445255 5.16846e+06 0 473783 5.15664e+06 0 502026 5.14439e+06 0 529981 5.13174e+06 0 557649 5.11869e+06 0 585028 5.10527e+06 0 612117 5.09148e+06 0 638919 5.07735e+06 0 665433 5.06289e+06 0 691663 5.04812e+06 0 717610 5.03305e+06 0 743277 5.01771e+06 0 768670 5.00212e+06 0 793793 4.98629e+06 0 818653 4.97024e+06 0 843256 4.954e+06 0 867610 4.9376e+06 0 891726 4.92104e+06 0 915613 4.90436e+06 0 939284 4.88758e+06 0 962753 4.87074e+06 0 986036 4.85385e+06 0 1.00915e+06 4.83694e+06 0 1.03211e+06 4.82005e+06 0 1.05495e+06 4.8032e+06 0 1.07769e+06 4.78644e+06 0 1.10036e+06 4.7698e+06 0 1.123e+06 4.75331e+06 0 1.14564e+06 4.73702e+06 0 1.16833e+06 4.72098e+06 0 1.19112e+06 4.70522e+06 0 1.21408e+06 4.6898e+06 0 1.23728e+06 4.67477e+06 0 1.26082e+06 4.6602e+06 0 1.28479e+06 4.64613e+06 0 1.30935e+06 4.63264e+06 0 1.33466e+06 4.61978e+06 0 1.36093e+06 4.6076e+06 0 1.38844e+06 4.59614e+06 0 1.41754e+06 4.58539e+06 0 1.44866e+06 4.57523e+06 0 1.48234e+06 4.56542e+06 0 1.51913e+06 4.55542e+06 0 1.55942e+06 4.54433e+06 0 -2.4412e+06 4.38478e+06 0 -2.38341e+06 4.40498e+06 0 -2.32986e+06 4.42413e+06 0 -2.2799e+06 4.44279e+06 0 -2.23294e+06 4.46133e+06 0 -2.18848e+06 4.47994e+06 0 -2.14608e+06 4.49873e+06 0 -2.1054e+06 4.51776e+06 0 -2.06614e+06 4.53706e+06 0 -2.02808e+06 4.5566e+06 0 -1.991e+06 4.57637e+06 0 -1.95475e+06 4.59634e+06 0 -1.91919e+06 4.61649e+06 0 -1.88419e+06 4.63677e+06 0 -1.84966e+06 4.65715e+06 0 -1.81552e+06 4.67759e+06 0 -1.78169e+06 4.69807e+06 0 -1.74811e+06 4.71853e+06 0 -1.71473e+06 4.73896e+06 0 -1.6815e+06 4.75932e+06 0 -1.64839e+06 4.77957e+06 0 -1.61536e+06 4.7997e+06 0 -1.58239e+06 4.81967e+06 0 -1.54944e+06 4.83945e+06 0 -1.5165e+06 4.85901e+06 0 -1.48355e+06 4.87835e+06 0 -1.45058e+06 4.89742e+06 0 -1.41757e+06 4.91621e+06 0 -1.38451e+06 4.93469e+06 0 -1.3514e+06 4.95285e+06 0 -1.31823e+06 4.97067e+06 0 -1.28499e+06 4.98812e+06 0 -1.25169e+06 5.00519e+06 0 -1.21831e+06 5.02186e+06 0 -1.18487e+06 5.03811e+06 0 -1.15135e+06 5.05394e+06 0 -1.11777e+06 5.06931e+06 0 -1.08412e+06 5.08423e+06 0 -1.0504e+06 5.09867e+06 0 -1.01663e+06 5.11263e+06 0 -982796 5.12608e+06 0 -948915 5.13903e+06 0 -914990 5.15145e+06 0 -881027 5.16335e+06 0 -847032 5.1747e+06 0 -813013 5.1855e+06 0 -778977 5.19574e+06 0 -744932 5.20542e+06 0 -710885 5.21452e+06 0 -676845 5.22305e+06 0 -642822 5.23099e+06 0 -608823 5.23834e+06 0 -574857 5.2451e+06 0 -540934 5.25126e+06 0 -507063 5.25682e+06 0 -473252 5.26177e+06 0 -439512 5.26612e+06 0 -405852 5.26986e+06 0 -372281 5.27299e+06 0 -338808 5.27551e+06 0 -305443 5.27743e+06 0 -272195 5.27874e+06 0 -239073 5.27944e+06 0 -206086 5.27953e+06 0 -173243 5.27902e+06 0 -140553 5.27792e+06 0 -108025 5.27622e+06 0 -75667.3 5.27393e+06 0 -43487.6 5.27105e+06 0 -11494.3 5.26759e+06 0 20304.9 5.26355e+06 0 51902.2 5.25895e+06 0 83290.4 5.25378e+06 0 114462 5.24806e+06 0 145412 5.24178e+06 0 176131 5.23497e+06 0 206616 5.22763e+06 0 236859 5.21977e+06 0 266855 5.21139e+06 0 296600 5.20252e+06 0 326089 5.19315e+06 0 355317 5.1833e+06 0 384281 5.17298e+06 0 412977 5.16221e+06 0 441402 5.151e+06 0 469554 5.13935e+06 0 497432 5.12728e+06 0 525032 5.11481e+06 0 552356 5.10196e+06 0 579401 5.08872e+06 0 606170 5.07513e+06 0 632662 5.0612e+06 0 658878 5.04694e+06 0 684823 5.03237e+06 0 710497 5.01751e+06 0 735905 5.00237e+06 0 761052 4.98698e+06 0 785943 4.97135e+06 0 810584 4.95551e+06 0 834984 4.93947e+06 0 859149 4.92326e+06 0 883092 4.90689e+06 0 906821 4.8904e+06 0 930351 4.87381e+06 0 953695 4.85713e+06 0 976870 4.84041e+06 0 999895 4.82365e+06 0 1.02279e+06 4.8069e+06 0 1.04558e+06 4.79019e+06 0 1.06829e+06 4.77354e+06 0 1.09094e+06 4.75698e+06 0 1.11359e+06 4.74057e+06 0 1.13626e+06 4.72432e+06 0 1.15901e+06 4.70829e+06 0 1.18188e+06 4.6925e+06 0 1.20494e+06 4.67702e+06 0 1.22828e+06 4.66188e+06 0 1.25197e+06 4.64712e+06 0 1.27612e+06 4.63281e+06 0 1.30088e+06 4.61897e+06 0 1.3264e+06 4.60566e+06 0 1.35288e+06 4.5929e+06 0 1.38057e+06 4.58068e+06 0 1.40979e+06 4.56896e+06 0 1.44089e+06 4.55759e+06 0 1.47429e+06 4.54632e+06 0 1.51038e+06 4.53465e+06 0 1.54941e+06 4.52187e+06 0 -2.40221e+06 4.35804e+06 0 -2.34737e+06 4.38016e+06 0 -2.2961e+06 4.40115e+06 0 -2.24789e+06 4.42149e+06 0 -2.20228e+06 4.4415e+06 0 -2.15888e+06 4.4614e+06 0 -2.11733e+06 4.48129e+06 0 -2.07733e+06 4.50126e+06 0 -2.03865e+06 4.52134e+06 0 -2.00106e+06 4.54153e+06 0 -1.9644e+06 4.56185e+06 0 -1.92851e+06 4.58226e+06 0 -1.89328e+06 4.60276e+06 0 -1.85859e+06 4.62332e+06 0 -1.82434e+06 4.64391e+06 0 -1.79047e+06 4.6645e+06 0 -1.75691e+06 4.68508e+06 0 -1.72359e+06 4.7056e+06 0 -1.69047e+06 4.72605e+06 0 -1.65751e+06 4.74639e+06 0 -1.62466e+06 4.76659e+06 0 -1.5919e+06 4.78665e+06 0 -1.5592e+06 4.80651e+06 0 -1.52653e+06 4.82618e+06 0 -1.49388e+06 4.84561e+06 0 -1.46123e+06 4.86479e+06 0 -1.42856e+06 4.8837e+06 0 -1.39587e+06 4.90232e+06 0 -1.36314e+06 4.92062e+06 0 -1.33036e+06 4.93859e+06 0 -1.29753e+06 4.95621e+06 0 -1.26465e+06 4.97346e+06 0 -1.2317e+06 4.99032e+06 0 -1.1987e+06 5.00678e+06 0 -1.16563e+06 5.02283e+06 0 -1.1325e+06 5.03844e+06 0 -1.09932e+06 5.05361e+06 0 -1.06607e+06 5.06832e+06 0 -1.03277e+06 5.08256e+06 0 -999413 5.09632e+06 0 -966011 5.10957e+06 0 -932566 5.12233e+06 0 -899084 5.13456e+06 0 -865570 5.14627e+06 0 -832031 5.15745e+06 0 -798473 5.16808e+06 0 -764904 5.17816e+06 0 -731331 5.18768e+06 0 -697761 5.19663e+06 0 -664203 5.20502e+06 0 -630665 5.21283e+06 0 -597155 5.22005e+06 0 -563681 5.2267e+06 0 -530253 5.23275e+06 0 -496879 5.23821e+06 0 -463568 5.24307e+06 0 -430329 5.24734e+06 0 -397171 5.25101e+06 0 -364102 5.25408e+06 0 -331132 5.25656e+06 0 -298269 5.25843e+06 0 -265523 5.2597e+06 0 -232902 5.26038e+06 0 -200415 5.26047e+06 0 -168070 5.25996e+06 0 -135876 5.25886e+06 0 -103840 5.25718e+06 0 -71971.8 5.25492e+06 0 -40278.2 5.25207e+06 0 -8767.04 5.24866e+06 0 22554.2 5.24468e+06 0 53678.3 5.24014e+06 0 84598.4 5.23505e+06 0 115308 5.2294e+06 0 145800 5.22322e+06 0 176069 5.21651e+06 0 206109 5.20928e+06 0 235915 5.20153e+06 0 265482 5.19328e+06 0 294804 5.18453e+06 0 323879 5.1753e+06 0 352700 5.1656e+06 0 381267 5.15543e+06 0 409574 5.14481e+06 0 437620 5.13376e+06 0 465402 5.12228e+06 0 492919 5.11038e+06 0 520170 5.09809e+06 0 547154 5.08541e+06 0 573871 5.07237e+06 0 600322 5.05896e+06 0 626508 5.04522e+06 0 652430 