<?xml version="1.0"?> 
<VTKFile type="StructuredGrid" version="0.1"> 
<StructuredGrid WholeExtent="0 127 0 127 0 0"> 
<Piece Extent="0 127 0 127 0 0"> 
<PointData>
<DataArray type="Float32" Name="E" format="ascii" NumberOfComponents="3"> 
-1.71583e+06 0.0190593 0 -1.79208e+06 0.0186024 0 -1.86773e+06 0.0176634 0 -1.94239e+06 0.0162976 0 -2.01567e+06 0.014585 0 -2.08722e+06 0.0126199 0 -2.15672e+06 0.0105045 0 -2.22392e+06 0.00833465 0 -2.2886e+06 0.00620069 0 -2.3506e+06 0.00417338 0 -2.4098e+06 0.00230763 0 -2.46613e+06 0.000640434 0 -2.51955e+06 -0.000807498 0 -2.57006e+06 -0.00203062 0 -2.61771e+06 -0.00303463 0 -2.66253e+06 -0.00383196 0 -2.70462e+06 -0.00444069 0 -2.74407e+06 -0.00488285 0 -2.78098e+06 -0.00518218 0 -2.81547e+06 -0.00535818 0 -2.84765e+06 -0.0054344 0 -2.87765e+06 -0.00542672 0 -2.90559e+06 -0.00535581 0 -2.9316e+06 -0.00523293 0 -2.95579e+06 -0.00507253 0 -2.97828e+06 -0.00488417 0 -2.99919e+06 -0.00467768 0 -3.01861e+06 -0.00445816 0 -3.03667e+06 -0.00423326 0 -3.05345e+06 -0.00400641 0 -3.06904e+06 -0.00377999 0 -3.08355e+06 -0.00356024 0 -3.09704e+06 -0.00334274 0 -3.1096e+06 -0.00313595 0 -3.1213e+06 -0.00293614 0 -3.13221e+06 -0.00274595 0 -3.1424e+06 -0.00256496 0 -3.15192e+06 -0.00239348 0 -3.16084e+06 -0.00223341 0 -3.16919e+06 -0.00207945 0 -3.17704e+06 -0.00193644 0 -3.18443e+06 -0.00180337 0 -3.1914e+06 -0.00167683 0 -3.19798e+06 -0.00155862 0 -3.20423e+06 -0.00144866 0 -3.21016e+06 -0.00134502 0 -3.21582e+06 -0.00124858 0 -3.22123e+06 -0.00115949 0 -3.22642e+06 -0.00107669 0 -3.23141e+06 -0.000996958 0 -3.23623e+06 -0.000925317 0 -3.2409e+06 -0.000857823 0 -3.24544e+06 -0.000794441 0 -3.24987e+06 -0.000734679 0 -3.2542e+06 -0.000680715 0 -3.25846e+06 -0.000628442 0 -3.26265e+06 -0.000581726 0 -3.2668e+06 -0.000535451 0 -3.27091e+06 -0.000493877 0 -3.27499e+06 -0.000454649 0 -3.27906e+06 -0.000417575 0 -3.28312e+06 -0.000383034 0 -3.28719e+06 -0.000351831 0 -3.29127e+06 -0.000319794 0 -3.29538e+06 -0.000290871 0 -3.29951e+06 -0.000264287 0 -3.30367e+06 -0.000237823 0 -3.30788e+06 -0.000212193 0 -3.31212e+06 -0.000189617 0 -3.31642e+06 -0.000166684 0 -3.32077e+06 -0.000146553 0 -3.32518e+06 -0.000124142 0 -3.32965e+06 -0.00010401 0 -3.33418e+06 -8.55029e-05 0 -3.33877e+06 -6.60121e-05 0 -3.34343e+06 -4.5687e-05 0 -3.34816e+06 -2.67327e-05 0 -3.35296e+06 -8.9407e-06 0 -3.35782e+06 8.9407e-06 0 -3.36275e+06 2.95043e-05 0 -3.36776e+06 4.66406e-05 0 -3.37283e+06 6.38366e-05 0 -3.37796e+06 8.49366e-05 0 -3.38316e+06 0.000103742 0 -3.38842e+06 0.000123113 0 -3.39374e+06 0.000141293 0 -3.39912e+06 0.000162303 0 -3.40455e+06 0.000182271 0 -3.41003e+06 0.000203609 0 -3.41555e+06 0.000224352 0 -3.42112e+06 0.000245988 0 -3.42671e+06 0.000268638 0 -3.43234e+06 0.0002895 0 -3.43799e+06 0.000313342 0 -3.44365e+06 0.000332236 0 -3.44933e+06 0.000359476 0 -3.455e+06 0.000381231 0 -3.46066e+06 0.000401258 0 -3.46631e+06 0.000425398 0 -3.47193e+06 0.000446737 0 -3.47751e+06 0.000466704 0 -3.48305e+06 0.000489414 0 -3.48853e+06 0.000505865 0 -3.49394e+06 0.000528336 0 -3.49927e+06 0.000540495 0 -3.5045e+06 0.000556111 0 -3.50963e+06 0.000567555 0 -3.51464e+06 0.000580072 0 -3.51952e+06 0.000583768 0 -3.52426e+06 0.000591278 0 -3.52883e+06 0.000585318 0 -3.53324e+06 0.000584245 0 -3.53746e+06 0.000577569 0 -3.54149e+06 0.00056541 0 -3.5453e+06 0.00055027 0 -3.54889e+06 0.000532508 0 -3.55224e+06 0.000503421 0 -3.55535e+06 0.000481606 0 -3.55819e+06 0.000441551 0 -3.56077e+06 0.000407577 0 -3.56307e+06 0.000363469 0 -3.56508e+06 0.000321746 0 -3.56679e+06 0.000272751 0 -3.56821e+06 0.000221729 0 -3.56931e+06 0.000169277 0 -3.5701e+06 0.000111818 0 -3.57058e+06 5.72205e-05 0 -3.57074e+06 1.52588e-05 0 -1.71583e+06 12948.6 0 -1.79208e+06 12885.2 0 -1.86775e+06 12750.4 0 -1.94241e+06 12547.8 0 -2.0157e+06 12282.7 0 -2.08725e+06 11961.5 0 -2.15675e+06 11591.9 0 -2.22396e+06 11181.9 0 -2.28864e+06 10739.9 0 -2.35064e+06 10274 0 -2.40984e+06 9791.97 0 -2.46617e+06 9301.03 0 -2.51959e+06 8807.57 0 -2.5701e+06 8317.15 0 -2.61775e+06 7834.48 0 -2.66257e+06 7363.42 0 -2.70466e+06 6907.03 0 -2.74411e+06 6467.68 0 -2.78101e+06 6047.05 0 -2.8155e+06 5646.32 0 -2.84768e+06 5266.16 0 -2.87768e+06 4906.87 0 -2.90562e+06 4568.42 0 -2.93162e+06 4250.55 0 -2.95581e+06 3952.79 0 -2.9783e+06 3674.52 0 -2.99921e+06 3415.03 0 -3.01863e+06 3173.52 0 -3.03669e+06 2949.14 0 -3.05346e+06 2741.04 0 -3.06906e+06 2548.35 0 -3.08356e+06 2370.18 0 -3.09705e+06 2205.7 0 -3.10961e+06 2054.08 0 -3.12131e+06 1914.52 0 -3.13223e+06 1786.24 0 -3.14241e+06 1668.53 0 -3.15193e+06 1560.67 0 -3.16084e+06 1462.03 0 -3.1692e+06 1371.97 0 -3.17705e+06 1289.9 0 -3.18443e+06 1215.29 0 -3.1914e+06 1147.61 0 -3.19799e+06 1086.37 0 -3.20423e+06 1031.13 0 -3.21017e+06 981.456 0 -3.21582e+06 936.958 0 -3.22123e+06 897.264 0 -3.22642e+06 862.03 0 -3.23141e+06 830.933 0 -3.23623e+06 803.674 0 -3.2409e+06 779.973 0 -3.24544e+06 759.569 0 -3.24987e+06 742.218 0 -3.2542e+06 727.693 0 -3.25846e+06 715.784 0 -3.26265e+06 706.292 0 -3.2668e+06 699.032 0 -3.27091e+06 693.833 0 -3.27499e+06 690.533 0 -3.27906e+06 688.98 0 -3.28312e+06 689.033 0 -3.28719e+06 690.559 0 -3.29127e+06 693.433 0 -3.29538e+06 697.538 0 -3.29951e+06 702.761 0 -3.30367e+06 708.997 0 -3.30788e+06 716.147 0 -3.31212e+06 724.115 0 -3.31642e+06 732.811 0 -3.32077e+06 742.147 0 -3.32518e+06 752.041 0 -3.32965e+06 762.41 0 -3.33418e+06 773.178 0 -3.33877e+06 784.267 0 -3.34343e+06 795.603 0 -3.34816e+06 807.113 0 -3.35296e+06 818.725 0 -3.35782e+06 830.367 0 -3.36275e+06 841.968 0 -3.36776e+06 853.457 0 -3.37282e+06 864.763 0 -3.37796e+06 875.813 0 -3.38316e+06 886.535 0 -3.38842e+06 896.856 0 -3.39374e+06 906.701 0 -3.39912e+06 915.995 0 -3.40455e+06 924.66 0 -3.41003e+06 932.619 0 -3.41555e+06 939.791 0 -3.42112e+06 946.094 0 -3.42671e+06 951.447 0 -3.43234e+06 955.765 0 -3.43799e+06 958.962 0 -3.44365e+06 960.953 0 -3.44933e+06 961.651 0 -3.455e+06 960.967 0 -3.46066e+06 958.815 0 -3.46631e+06 955.108 0 -3.47193e+06 949.761 0 -3.47751e+06 942.689 0 -3.48305e+06 933.812 0 -3.48853e+06 923.051 0 -3.49394e+06 910.333 0 -3.49927e+06 895.59 0 -3.5045e+06 878.759 0 -3.50963e+06 859.786 0 -3.51464e+06 838.624 0 -3.51952e+06 815.237 0 -3.52426e+06 789.598 0 -3.52884e+06 761.694 0 -3.53324e+06 731.525 0 -3.53747e+06 699.102 0 -3.54149e+06 664.455 0 -3.5453e+06 627.626 0 -3.54889e+06 588.677 0 -3.55224e+06 547.685 0 -3.55535e+06 504.742 0 -3.5582e+06 459.961 0 -3.56077e+06 413.469 0 -3.56307e+06 365.409 0 -3.56508e+06 315.94 0 -3.5668e+06 265.235 0 -3.56821e+06 213.479 0 -3.56932e+06 160.869 0 -3.57011e+06 107.61 0 -3.57059e+06 53.9149 0 -3.57074e+06 -3.4001e-06 0 -1.71584e+06 25899.2 0 -1.79211e+06 25772.4 0 -1.86779e+06 25502.7 0 -1.94247e+06 25097.4 0 -2.01577e+06 24567 0 -2.08733e+06 23924.5 0 -2.15685e+06 23185 0 -2.22406e+06 22364.8 0 -2.28876e+06 21480.5 0 -2.35076e+06 20548.4 0 -2.40997e+06 19584.2 0 -2.4663e+06 18602.1 0 -2.51972e+06 17615.1 0 -2.57023e+06 16634.1 0 -2.61787e+06 15668.6 0 -2.66269e+06 14726.4 0 -2.70478e+06 13813.6 0 -2.74422e+06 12934.8 0 -2.78112e+06 12093.5 0 -2.8156e+06 11292 0 -2.84777e+06 10531.7 0 -2.87777e+06 9813.13 0 -2.9057e+06 9136.25 0 -2.9317e+06 8500.52 0 -2.95589e+06 7905.02 0 -2.97837e+06 7348.51 0 -2.99927e+06 6829.54 0 -3.01869e+06 6346.54 0 -3.03674e+06 5897.82 0 -3.05351e+06 5481.64 0 -3.06911e+06 5096.27 0 -3.08361e+06 4739.97 0 -3.09709e+06 4411.04 0 -3.10965e+06 4107.82 0 -3.12135e+06 3828.71 0 -3.13226e+06 3572.18 0 -3.14244e+06 3336.77 0 -3.15196e+06 3121.08 0 -3.16087e+06 2923.81 0 -3.16922e+06 2743.7 0 -3.17707e+06 2579.6 0 -3.18445e+06 2430.38 0 -3.19142e+06 2295.03 0 -3.198e+06 2172.57 0 -3.20425e+06 2062.1 0 -3.21018e+06 1962.76 0 -3.21583e+06 1873.78 0 -3.22124e+06 1794.4 0 -3.22643e+06 1723.94 0 -3.23142e+06 1661.76 0 -3.23624e+06 1607.25 0 -3.24091e+06 1559.85 0 -3.24545e+06 1519.05 0 -3.24987e+06 1484.35 0 -3.25421e+06 1455.31 0 -3.25846e+06 1431.5 0 -3.26266e+06 1412.52 0 -3.2668e+06 1398.01 0 -3.27091e+06 1387.61 0 -3.27499e+06 1381.01 0 -3.27906e+06 1377.91 0 -3.28312e+06 1378.02 0 -3.28719e+06 1381.08 0 -3.29127e+06 1386.83 0 -3.29538e+06 1395.04 0 -3.29951e+06 1405.49 0 -3.30367e+06 1417.97 0 -3.30787e+06 1432.27 0 -3.31212e+06 1448.21 0 -3.31642e+06 1465.6 0 -3.32077e+06 1484.28 0 -3.32518e+06 1504.07 0 -3.32964e+06 1524.81 0 -3.33417e+06 1546.35 0 -3.33877e+06 1568.53 0 -3.34343e+06 1591.2 0 -3.34816e+06 1614.22 0 -3.35295e+06 1637.45 0 -3.35782e+06 1660.74 0 -3.36275e+06 1683.94 0 -3.36775e+06 1706.92 0 -3.37282e+06 1729.53 0 -3.37796e+06 1751.63 0 -3.38316e+06 1773.08 0 -3.38842e+06 1793.73 0 -3.39374e+06 1813.42 0 -3.39912e+06 1832.01 0 -3.40455e+06 1849.34 0 -3.41003e+06 1865.26 0 -3.41555e+06 1879.61 0 -3.42111e+06 1892.22 0 -3.42671e+06 1902.92 0 -3.43234e+06 1911.56 0 -3.43799e+06 1917.96 0 -3.44365e+06 1921.94 0 -3.44933e+06 1923.34 0 -3.455e+06 1921.98 0 -3.46066e+06 1917.67 0 -3.46631e+06 1910.26 0 -3.47193e+06 1899.57 0 -3.47752e+06 1885.43 0 -3.48305e+06 1867.68 0 -3.48853e+06 1846.16 0 -3.49394e+06 1820.73 0 -3.49927e+06 1791.24 0 -3.50451e+06 1757.58 0 -3.50964e+06 1719.64 0 -3.51465e+06 1677.31 0 -3.51953e+06 1630.54 0 -3.52427e+06 1579.26 0 -3.52884e+06 1523.45 0 -3.53325e+06 1463.11 0 -3.53747e+06 1398.27 0 -3.5415e+06 1328.97 0 -3.54531e+06 1255.31 0 -3.5489e+06 1177.41 0 -3.55226e+06 1095.43 0 -3.55536e+06 1009.54 0 -3.55821e+06 919.971 0 -3.56079e+06 826.983 0 -3.56309e+06 730.858 0 -3.5651e+06 631.915 0 -3.56681e+06 530.5 0 -3.56822e+06 426.983 0 -3.56933e+06 321.757 0 -3.57012e+06 215.233 0 -3.5706e+06 107.836 0 -3.57076e+06 1.65851e-06 0 -1.71585e+06 38854.1 0 -1.79215e+06 38663.7 0 -1.86786e+06 38259 0 -1.94257e+06 37650.7 0 -2.0159e+06 36854.5 0 -2.08748e+06 35890.2 0 -2.15702e+06 34780.4 0 -2.22424e+06 33549.5 0 -2.28895e+06 32222.4 0 -2.35096e+06 30823.8 0 -2.41017e+06 29376.9 0 -2.4665e+06 27903.4 0 -2.51992e+06 26422.4 0 -2.57043e+06 24950.6 0 -2.61807e+06 23502.1 0 -2.66289e+06 22088.6 0 -2.70497e+06 20719.1 0 -2.7444e+06 19400.9 0 -2.78129e+06 18138.9 0 -2.81576e+06 16936.6 0 -2.84793e+06 15796.1 0 -2.87792e+06 14718.2 0 -2.90584e+06 13702.9 0 -2.93183e+06 12749.3 0 -2.95601e+06 11856.1 0 -2.97849e+06 11021.4 0 -2.99938e+06 10243 0 -3.01879e+06 9518.58 0 -3.03683e+06 8845.56 0 -3.0536e+06 8221.36 0 -3.06919e+06 7643.37 0 -3.08368e+06 7108.98 0 -3.09716e+06 6615.64 0 -3.10971e+06 6160.86 0 -3.1214e+06 5742.25 0 -3.13231e+06 5357.51 0 -3.14249e+06 5004.44 0 -3.152e+06 4680.96 0 -3.16091e+06 4385.1 0 -3.16926e+06 4114.98 0 -3.1771e+06 3868.86 0 -3.18448e+06 3645.07 0 -3.19145e+06 3442.08 0 -3.19803e+06 3258.42 0 -3.20427e+06 3092.75 0 -3.2102e+06 2943.77 0 -3.21585e+06 2810.32 0 -3.22126e+06 2691.28 0 -3.22644e+06 2585.61 0 -3.23143e+06 2492.36 0 -3.23625e+06 2410.61 0 -3.24092e+06 2339.54 0 -3.24545e+06 2278.35 0 -3.24988e+06 2226.33 0 -3.25421e+06 2182.78 0 -3.25847e+06 2147.07 0 -3.26266e+06 2118.62 0 -3.2668e+06 2096.86 0 -3.27091e+06 2081.28 0 -3.27499e+06 2071.4 0 -3.27906e+06 2066.75 0 -3.28312e+06 2066.93 0 -3.28719e+06 2071.52 0 -3.29127e+06 2080.16 0 -3.29537e+06 2092.48 0 -3.2995e+06 2108.17 0 -3.30367e+06 2126.89 0 -3.30787e+06 2148.35 0 -3.31212e+06 2172.26 0 -3.31641e+06 2198.36 0 -3.32077e+06 2226.38 0 -3.32517e+06 2256.07 0 -3.32964e+06 2287.19 0 -3.33417e+06 2319.5 0 -3.33876e+06 2352.77 0 -3.34342e+06 2386.79 0 -3.34815e+06 2421.33 0 -3.35295e+06 2456.17 0 -3.35781e+06 2491.11 0 -3.36275e+06 2525.92 0 -3.36775e+06 2560.39 0 -3.37282e+06 2594.32 0 -3.37795e+06 2627.48 0 -3.38315e+06 2659.65 0 -3.38841e+06 2690.62 0 -3.39373e+06 2720.17 0 -3.39911e+06 2748.06 0 -3.40454e+06 2774.06 0 -3.41002e+06 2797.95 0 -3.41555e+06 2819.47 0 -3.42111e+06 2838.39 0 -3.42671e+06 2854.46 0 -3.43234e+06 2867.42 0 -3.43799e+06 2877.03 0 -3.44365e+06 2883.01 0 -3.44933e+06 2885.11 0 -3.455e+06 2883.07 0 -3.46066e+06 2876.62 0 -3.46631e+06 2865.51 0 -3.47193e+06 2849.48 0 -3.47752e+06 2828.27 0 -3.48306e+06 2801.65 0 -3.48854e+06 2769.38 0 -3.49395e+06 2731.23 0 -3.49928e+06 2687.01 0 -3.50451e+06 2636.52 0 -3.50965e+06 2579.61 0 -3.51466e+06 2516.13 0 -3.51954e+06 2445.97 0 -3.52428e+06 2369.06 0 -3.52886e+06 2285.34 0 -3.53326e+06 2194.83 0 -3.53749e+06 2097.56 0 -3.54151e+06 1993.61 0 -3.54533e+06 1883.12 0 -3.54892e+06 1766.27 0 -3.55227e+06 1643.28 0 -3.55538e+06 1514.44 0 -3.55823e+06 1380.08 0 -3.56081e+06 1240.59 0 -3.56311e+06 1096.39 0 -3.56512e+06 947.962 0 -3.56683e+06 795.825 0 -3.56825e+06 640.536 0 -3.56935e+06 482.682 0 -3.57014e+06 322.881 0 -3.57062e+06 161.77 0 -3.57078e+06 6.31437e-07 0 -1.71586e+06 51815.3 0 -1.79221e+06 51561.2 0 -1.86796e+06 51021.1 0 -1.94271e+06 50209.3 0 -2.01607e+06 49146.9 0 -2.08769e+06 47860.1 0 -2.15725e+06 46379.3 0 -2.2245e+06 44737 0 -2.28922e+06 42966.4 0 -2.35125e+06 41100.5 0 -2.41046e+06 39170.4 0 -2.4668e+06 37204.8 0 -2.52022e+06 35229.4 0 -2.57072e+06 33266.4 0 -2.61835e+06 31334.6 0 -2.66316e+06 29449.4 0 -2.70523e+06 27623.2 0 -2.74465e+06 25865.3 0 -2.78154e+06 24182.5 0 -2.816e+06 22579.4 0 -2.84815e+06 21058.6 0 -2.87812e+06 19621.5 0 -2.90604e+06 18267.8 0 -2.93202e+06 16996.4 0 -2.95618e+06 15805.6 0 -2.97864e+06 14692.7 0 -2.99953e+06 13655 0 -3.01893e+06 12689.1 0 -3.03696e+06 11791.9 0 -3.05372e+06 10959.7 0 -3.0693e+06 10189.2 0 -3.08378e+06 9476.8 0 -3.09725e+06 8819.12 0 -3.1098e+06 8212.86 0 -3.12148e+06 7654.82 0 -3.13238e+06 7141.93 0 -3.14255e+06 6671.27 0 -3.15206e+06 6240.05 0 -3.16096e+06 5845.65 0 -3.16931e+06 5485.57 0 -3.17715e+06 5157.48 0 -3.18452e+06 4859.17 0 -3.19148e+06 4588.58 0 -3.19806e+06 4343.76 0 -3.2043e+06 4122.91 0 -3.21023e+06 3924.34 0 -3.21588e+06 3746.45 0 -3.22128e+06 3587.78 0 -3.22646e+06 3446.93 0 -3.23145e+06 3322.63 0 -3.23626e+06 3213.68 0 -3.24093e+06 3118.95 0 -3.24546e+06 3037.4 0 -3.24989e+06 2968.06 0 -3.25422e+06 2910.02 0 -3.25847e+06 2862.44 0 -3.26267e+06 2824.53 0 -3.26681e+06 2795.54 0 -3.27091e+06 2774.79 0 -3.27499e+06 2761.63 0 -3.27906e+06 2755.46 0 -3.28312e+06 2755.71 0 -3.28719e+06 2761.85 0 -3.29127e+06 2773.38 0 -3.29537e+06 2789.83 0 -3.2995e+06 2810.75 0 -3.30366e+06 2835.73 0 -3.30787e+06 2864.35 0 -3.31211e+06 2896.25 0 -3.31641e+06 2931.06 0 -3.32076e+06 2968.43 0 -3.32517e+06 3008.03 0 -3.32963e+06 3049.53 0 -3.33416e+06 3092.62 0 -3.33876e+06 3137 0 -3.34342e+06 3182.36 0 -3.34814e+06 3228.42 0 -3.35294e+06 3274.89 0 -3.35781e+06 3321.48 0 -3.36274e+06 3367.91 0 -3.36774e+06 3413.88 0 -3.37281e+06 3459.12 0 -3.37795e+06 3503.35 0 -3.38314e+06 3546.26 0 -3.38841e+06 3587.56 0 -3.39373e+06 3626.96 0 -3.39911e+06 3664.16 0 -3.40454e+06 3698.84 0 -3.41002e+06 3730.7 0 -3.41554e+06 3759.41 0 -3.42111e+06 3784.65 0 -3.42671e+06 3806.09 0 -3.43234e+06 3823.38 0 -3.43799e+06 3836.2 0 -3.44365e+06 3844.18 0 -3.44933e+06 3847 0 -3.455e+06 3844.29 0 -3.46067e+06 3835.71 0 -3.46632e+06 3820.9 0 -3.47194e+06 3799.54 0 -3.47752e+06 3771.28 0 -3.48306e+06 3735.79 0 -3.48854e+06 3692.77 0 -3.49396e+06 3641.92 0 -3.49929e+06 3582.96 0 -3.50453e+06 3515.65 0 -3.50966e+06 3439.77 0 -3.51467e+06 3355.14 0 -3.51956e+06 3261.59 0 -3.52429e+06 3159.04 0 -3.52887e+06 3047.43 0 -3.53328e+06 2926.75 0 -3.53751e+06 2797.05 0 -3.54153e+06 2658.45 0 -3.54535e+06 2511.11 0 -3.54894e+06 2355.3 0 -3.5523e+06 2191.3 0 -3.55541e+06 2019.5 0 -3.55826e+06 1840.34 0 -3.56083e+06 1654.33 0 -3.56314e+06 1462.04 0 -3.56515e+06 1264.11 0 -3.56686e+06 1061.24 0 -3.56828e+06 854.163 0 -3.56938e+06 643.664 0 -3.57018e+06 430.567 0 -3.57065e+06 215.723 0 -3.57081e+06 -9.95351e-07 0 -1.71589e+06 64784.9 0 -1.79229e+06 64467 0 -1.86809e+06 63791 0 -1.94289e+06 62775.1 0 -2.0163e+06 61445.7 0 -2.08795e+06 59835.6 0 -2.15755e+06 57982.9 0 -2.22483e+06 55928.1 0 -2.28957e+06 53713.2 0 -2.35161e+06 51379.1 0 -2.41084e+06 48964.9 0 -2.46717e+06 46506.6 0 -2.52059e+06 44036.1 0 -2.5711e+06 41581.3 0 -2.61872e+06 39165.7 0 -2.66352e+06 36808.6 0 -2.70557e+06 34525.3 0 -2.74498e+06 32327.6 0 -2.78185e+06 30223.8 0 -2.81629e+06 28219.8 0 -2.84843e+06 26318.8 0 -2.87839e+06 24522.3 0 -2.90629e+06 22830.3 0 -2.93225e+06 21241.2 0 -2.9564e+06 19752.7 0 -2.97885e+06 18361.8 0 -2.99972e+06 17064.8 0 -3.01911e+06 15857.7 0 -3.03713e+06 14736.4 0 -3.05387e+06 13696.4 0 -3.06944e+06 12733.4 0 -3.08391e+06 11843.1 0 -3.09737e+06 11021.1 0 -3.10991e+06 10263.5 0 -3.12159e+06 9566.09 0 -3.13247e+06 8925.14 0 -3.14264e+06 8336.96 0 -3.15214e+06 7798.08 0 -3.16104e+06 7305.21 0 -3.16937e+06 6855.24 0 -3.17721e+06 6445.25 0 -3.18458e+06 6072.47 0 -3.19153e+06 5734.33 0 -3.19811e+06 5428.41 0 -3.20434e+06 5152.44 0 -3.21026e+06 4904.31 0 -3.21591e+06 4682.03 0 -3.22131e+06 4483.76 0 -3.22649e+06 4307.77 0 -3.23147e+06 4152.46 0 -3.23628e+06 4016.33 0 -3.24095e+06 3897.97 0 -3.24548e+06 3796.09 0 -3.2499e+06 3709.47 0 -3.25423e+06 3636.97 0 -3.25848e+06 3577.53 0 -3.26267e+06 3530.18 0 -3.26681e+06 3493.98 0 -3.27092e+06 3468.07 0 -3.275e+06 3451.66 0 -3.27906e+06 3443.98 0 -3.28312e+06 3444.32 0 -3.28719e+06 3452.02 0 -3.29127e+06 3466.46 0 -3.29537e+06 3487.05 0 -3.2995e+06 3513.22 0 -3.30366e+06 3544.46 0 -3.30786e+06 3580.26 0 -3.31211e+06 3620.16 0 -3.3164e+06 3663.69 0 -3.32075e+06 3710.42 0 -3.32516e+06 3759.93 0 -3.32963e+06 3811.82 0 -3.33415e+06 3865.7 0 -3.33875e+06 3921.19 0 -3.34341e+06 3977.92 0 -3.34814e+06 4035.51 0 -3.35293e+06 4093.61 0 -3.3578e+06 4151.86 0 -3.36273e+06 4209.91 0 -3.36773e+06 4267.39 0 -3.3728e+06 4323.96 0 -3.37794e+06 4379.25 0 -3.38314e+06 4432.91 0 -3.3884e+06 4484.55 0 -3.39372e+06 4533.82 0 -3.3991e+06 4580.34 0 -3.40453e+06 4623.71 0 -3.41001e+06 4663.55 0 -3.41554e+06 4699.45 0 -3.4211e+06 4731.02 0 -3.4267e+06 4757.83 0 -3.43233e+06 4779.47 0 -3.43798e+06 4795.51 0 -3.44365e+06 4805.51 0 -3.44933e+06 4809.05 0 -3.455e+06 4805.68 0 -3.46067e+06 4794.97 0 -3.46632e+06 4776.48 0 -3.47194e+06 4749.79 0 -3.47753e+06 4714.48 0 -3.48307e+06 4670.14 0 -3.48855e+06 4616.38 0 -3.49397e+06 4552.83 0 -3.4993e+06 4479.15 0 -3.50454e+06 4395.03 0 -3.50967e+06 4300.19 0 -3.51469e+06 4194.4 0 -3.51957e+06 4077.48 0 -3.52431e+06 3949.29 0 -3.5289e+06 3809.78 0 -3.53331e+06 3658.92 0 -3.53753e+06 3496.79 0 -3.54156e+06 3323.53 0 -3.54538e+06 3139.35 0 -3.54897e+06 2944.56 0 -3.55233e+06 2739.54 0 -3.55544e+06 2524.77 0 -3.55829e+06 2300.79 0 -3.56087e+06 2068.25 0 -3.56317e+06 1827.85 0 -3.56519e+06 1580.41 0 -3.5669e+06 1326.78 0 -3.56832e+06 1067.89 0 -3.56942e+06 804.72 0 -3.57022e+06 538.303 0 -3.57069e+06 269.701 0 -3.57085e+06 1.12224e-07 0 -1.71591e+06 77765.1 0 -1.79238e+06 77383 0 -1.86825e+06 76570.7 0 -1.94311e+06 75350 0 -2.01657e+06 73752.6 0 -2.08828e+06 71818.1 0 -2.15791e+06 69592.2 0 -2.22522e+06 67123.9 0 -2.28999e+06 64463.3 0 -2.35205e+06 61660 0 -2.41129e+06 58760.7 0 -2.46763e+06 55808.6 0 -2.52105e+06 52842.3 0 -2.57155e+06 49895 0 -2.61916e+06 46995.1 0 -2.66395e+06 44165.6 0 -2.70599e+06 41425 0 -2.74538e+06 38787.1 0 -2.78223e+06 36262.3 0 -2.81666e+06 33857.2 0 -2.84878e+06 31575.9 0 -2.87871e+06 29420.2 0 -2.90659e+06 27389.8 0 -2.93254e+06 25483.1 0 -2.95667e+06 23697.1 0 -2.9791e+06 22028.3 0 -2.99995e+06 20472.1 0 -3.01932e+06 19023.9 0 -3.03733e+06 17678.5 0 -3.05406e+06 16430.8 0 -3.06961e+06 15275.5 0 -3.08407e+06 14207.3 0 -3.09752e+06 13221.3 0 -3.11004e+06 12312.4 0 -3.12171e+06 11475.7 0 -3.13259e+06 10706.8 0 -3.14275e+06 10001.2 0 -3.15224e+06 9354.79 0 -3.16112e+06 8763.54 0 -3.16945e+06 8223.77 0 -3.17728e+06 7731.94 0 -3.18465e+06 7284.78 0 -3.19159e+06 6879.16 0 -3.19816e+06 6512.2 0 -3.20439e+06 6181.17 0 -3.21031e+06 5883.54 0 -3.21595e+06 5616.92 0 -3.22134e+06 5379.1 0 -3.22652e+06 5168.02 0 -3.2315e+06 4981.74 0 -3.23631e+06 4818.47 0 -3.24097e+06 4676.53 0 -3.2455e+06 4554.34 0 -3.24992e+06 4450.47 0 -3.25424e+06 4363.53 0 -3.25849e+06 4292.27 0 -3.26268e+06 4235.51 0 -3.26682e+06 4192.12 0 -3.27092e+06 4161.09 0 -3.275e+06 4141.44 0 -3.27906e+06 4132.26 0 -3.28312e+06 4132.72 0 -3.28719e+06 4142 0 -3.29126e+06 4159.36 0 -3.29536e+06 4184.1 0 -3.29949e+06 4215.55 0 -3.30365e+06 4253.06 0 -3.30785e+06 4296.06 0 -3.3121e+06 4343.96 0 -3.31639e+06 4396.22 0 -3.32074e+06 4452.33 0 -3.32515e+06 4511.77 0 -3.32962e+06 4574.06 0 -3.33414e+06 4638.74 0 -3.33874e+06 4705.35 0 -3.3434e+06 4773.44 0 -3.34812e+06 4842.58 0 -3.35292e+06 4912.32 0 -3.35779e+06 4982.24 0 -3.36272e+06 5051.92 0 -3.36772e+06 5120.93 0 -3.37279e+06 5188.83 0 -3.37793e+06 5255.21 0 -3.38313e+06 5319.61 0 -3.38839e+06 5381.61 0 -3.39371e+06 5440.76 0 -3.39909e+06 5496.6 0 -3.40452e+06 5548.67 0 -3.41e+06 5596.5 0 -3.41553e+06 5639.62 0 -3.4211e+06 5677.52 0 -3.4267e+06 5709.72 0 -3.43233e+06 5735.72 0 -3.43798e+06 5754.99 0 -3.44365e+06 5767.02 0 -3.44933e+06 5771.29 0 -3.455e+06 5767.28 0 -3.46067e+06 5754.45 0 -3.46632e+06 5732.3 0 -3.47195e+06 5700.3 0 -3.47754e+06 5657.95 0 -3.48308e+06 5604.77 0 -3.48856e+06 5540.28 0 -3.49398e+06 5464.04 0 -3.49931e+06 5375.64 0 -3.50456e+06 5274.71 0 -3.50969e+06 5160.92 0 -3.51471e+06 5033.98 0 -3.5196e+06 4893.69 0 -3.52434e+06 4739.87 0 -3.52892e+06 4572.45 0 -3.53334e+06 4391.42 0 -3.53756e+06 4196.85 0 -3.54159e+06 3988.92 0 -3.54541e+06 3767.89 0 -3.54901e+06 3534.12 0 -3.55237e+06 3288.07 0 -3.55548e+06 3030.3 0 -3.55833e+06 2761.49 0 -3.56091e+06 2482.39 0 -3.56322e+06 2193.87 0 -3.56523e+06 1896.88 0 -3.56695e+06 1592.47 0 -3.56837e+06 1281.74 0 -3.56947e+06 965.869 0 -3.57027e+06 646.102 0 -3.57075e+06 323.711 0 -3.5709e+06 1.42958e-07 0 -1.71594e+06 90758 0 -1.79249e+06 90311.5 0 -1.86844e+06 89362.2 0 -1.94337e+06 87935.7 0 -2.0169e+06 86069.2 0 -2.08866e+06 83809 0 -2.15835e+06 81208.5 0 -2.2257e+06 78325.1 0 -2.2905e+06 75217.6 0 -2.35258e+06 71943.6 0 -2.41183e+06 68558 0 -2.46818e+06 65111.1 0 -2.5216e+06 61647.9 0 -2.57209e+06 58207.4 0 -2.61969e+06 54822.5 0 -2.66446e+06 51520.1 0 -2.70649e+06 48321.7 0 -2.74586e+06 45243.5 0 -2.78269e+06 42297.3 0 -2.81709e+06 39491 0 -2.84918e+06 36829.5 0 -2.8791e+06 34314.5 0 -2.90695e+06 31945.8 0 -2.93288e+06 29721.5 0 -2.95698e+06 27638.1 0 -2.9794e+06 25691.4 0 -3.00023e+06 23876.3 0 -3.01958e+06 22187 0 -3.03757e+06 20617.8 0 -3.05428e+06 19162.5 0 -3.06981e+06 17815 0 -3.08426e+06 16569.3 0 -3.0977e+06 15419.3 0 -3.1102e+06 14359.2 0 -3.12186e+06 13383.5 0 -3.13272e+06 12486.7 0 -3.14287e+06 11663.8 0 -3.15235e+06 10909.9 0 -3.16123e+06 10220.4 0 -3.16955e+06 9590.91 0 -3.17737e+06 9017.36 0 -3.18472e+06 8495.89 0 -3.19166e+06 8022.88 0 -3.19822e+06 7594.96 0 -3.20444e+06 7208.94 0 -3.21036e+06 6861.87 0 -3.21599e+06 6550.98 0 -3.22138e+06 6273.68 0 -3.22655e+06 6027.56 0 -3.23153e+06 5810.36 0 -3.23633e+06 5620 0 -3.24099e+06 5454.51 0 -3.24552e+06 5312.07 0 -3.24993e+06 5190.98 0 -3.25426e+06 5089.65 0 -3.2585e+06 5006.6 0 -3.26269e+06 4940.45 0 -3.26682e+06 4889.91 0 -3.27092e+06 4853.78 0 -3.275e+06 4830.92 0 -3.27906e+06 4820.28 0 -3.28312e+06 4820.86 0 -3.28718e+06 4831.75 0 -3.29126e+06 4852.06 0 -3.29536e+06 4880.96 0 -3.29948e+06 4917.7 0 -3.30364e+06 4961.51 0 -3.30784e+06 5011.71 0 -3.31209e+06 5067.64 0 -3.31638e+06 5128.65 0 -3.32073e+06 5194.14 0 -3.32514e+06 5263.52 0 -3.3296e+06 5336.23 0 -3.33413e+06 5411.73 0 -3.33873e+06 5489.47 0 -3.34338e+06 5568.94 0 -3.34811e+06 5649.63 0 -3.35291e+06 5731.03 0 -3.35777e+06 5812.64 0 -3.36271e+06 5893.96 0 -3.36771e+06 5974.5 0 -3.37278e+06 6053.75 0 -3.37791e+06 6131.22 0 -3.38312e+06 6206.39 0 -3.38838e+06 6278.76 0 -3.3937e+06 6347.79 0 -3.39908e+06 6412.98 0 -3.40451e+06 6473.76 0 -3.41e+06 6529.6 0 -3.41552e+06 6579.93 0 -3.42109e+06 6624.19 0 -3.42669e+06 6661.8 0 -3.43232e+06 6692.16 0 -3.43798e+06 6714.68 0 -3.44365e+06 6728.75 0 -3.44933e+06 6733.78 0 -3.455e+06 6729.13 0 -3.46067e+06 6714.21 0 -3.46633e+06 6688.4 0 -3.47196e+06 6651.1 0 -3.47755e+06 6601.73 0 -3.48309e+06 6539.71 0 -3.48858e+06 6464.51 0 -3.49399e+06 6375.59 0 -3.49933e+06 6272.49 0 -3.50458e+06 6154.77 0 -3.50971e+06 6022.03 0 -3.51473e+06 5873.95 0 -3.51962e+06 5710.28 0 -3.52437e+06 5530.84 0 -3.52896e+06 5335.51 0 -3.53337e+06 5124.3 0 -3.5376e+06 4897.3 0 -3.54163e+06 4654.69 0 -3.54546e+06 4396.8 0 -3.54905e+06 4124.03 0 -3.55242e+06 3836.93 0 -3.55553e+06 3536.16 0 -3.55838e+06 3222.48 0 -3.56097e+06 2896.81 0 -3.56327e+06 2560.13 0 -3.56529e+06 2213.57 0 -3.56701e+06 1858.34 0 -3.56842e+06 1495.73 0 -3.56953e+06 1127.13 0 -3.57033e+06 753.976 0 -3.5708e+06 377.758 0 -3.57096e+06 4.88944e-08 0 -1.71598e+06 103766 0 -1.79262e+06 103254 0 -1.86866e+06 102167 0 -1.94367e+06 100534 0 -2.01727e+06 98397.1 0 -2.0891e+06 95809.6 0 -2.15885e+06 92833 0 -2.22624e+06 89532.8 0 -2.29108e+06 85976.6 0 -2.35318e+06 82230.4 0 -2.41245e+06 78357 0 -2.46881e+06 74414 0 -2.52222e+06 70452.9 0 -2.57271e+06 66518.2 0 -2.6203e+06 62647.5 0 -2.66505e+06 58871.6 0 -2.70706e+06 55214.9 0 -2.74641e+06 51696 0 -2.78321e+06 48328.2 0 -2.81758e+06 45120.8 0 -2.84965e+06 42078.8 0 -2.87954e+06 39204.5 0 -2.90737e+06 36497.6 0 -2.93327e+06 33955.8 0 -2.95735e+06 31575.2 0 -2.97974e+06 29350.8 0 -3.00054e+06 27276.8 0 -3.01988e+06 25346.8 0 -3.03784e+06 23553.9 0 -3.05453e+06 21891.2 0 -3.07005e+06 20351.7 0 -3.08447e+06 18928.5 0 -3.0979e+06 17614.6 0 -3.11039e+06 16403.6 0 -3.12203e+06 15288.9 0 -3.13288e+06 14264.5 0 -3.14301e+06 13324.4 0 -3.15248e+06 12463.2 0 -3.16135e+06 11675.5 0 -3.16966e+06 10956.5 0 -3.17747e+06 10301.3 0 -3.18481e+06 9705.61 0 -3.19174e+06 9165.31 0 -3.1983e+06 8676.51 0 -3.20451e+06 8235.6 0 -3.21042e+06 7839.17 0 -3.21605e+06 7484.08 0 -3.22143e+06 7167.36 0 -3.2266e+06 6886.26 0 -3.23157e+06 6638.21 0 -3.23637e+06 6420.82 0 -3.24102e+06 6231.84 0 -3.24554e+06 6069.19 0 -3.24995e+06 5930.93 0 -3.25427e+06 5815.24 0 -3.25852e+06 5720.44 0 -3.2627e+06 5644.95 0 -3.26683e+06 5587.29 0 -3.27093e+06 5546.09 0 -3.275e+06 5520.05 0 -3.27906e+06 5507.97 0 -3.28312e+06 5508.71 0 -3.28718e+06 5521.22 0 -3.29126e+06 5544.5 0 -3.29535e+06 5577.6 0 -3.29948e+06 5619.64 0 -3.30364e+06 5669.77 0 -3.30783e+06 5727.2 0 -3.31208e+06 5791.17 0 -3.31637e+06 5860.94 0 -3.32072e+06 5935.84 0 -3.32513e+06 6015.18 0 -3.32959e+06 6098.32 0 -3.33412e+06 6184.65 0 -3.33871e+06 6273.54 0 -3.34337e+06 6364.4 0 -3.3481e+06 6456.66 0 -3.35289e+06 6549.73 0 -3.35776e+06 6643.04 0 -3.36269e+06 6736.02 0 -3.36769e+06 6828.1 0 -3.37276e+06 6918.72 0 -3.3779e+06 7007.29 0 -3.3831e+06 7093.25 0 -3.38837e+06 7175.99 0 -3.39369e+06 7254.94 0 -3.39907e+06 7329.48 0 -3.4045e+06 7398.99 0 -3.40999e+06 7462.85 0 -3.41552e+06 7520.42 0 -3.42108e+06 7571.05 0 -3.42669e+06 7614.08 0 -3.43232e+06 7648.82 0 -3.43798e+06 7674.61 0 -3.44365e+06 7690.75 0 -3.44933e+06 7696.54 0 -3.45501e+06 7691.28 0 -3.46068e+06 7674.27 0 -3.46633e+06 7644.82 0 -3.47196e+06 7602.25 0 -3.47756e+06 7545.87 0 -3.4831e+06 7475.04 0 -3.48859e+06 7389.13 0 -3.49401e+06 7287.56 0 -3.49935e+06 7169.76 0 -3.5046e+06 7035.25 0 -3.50974e+06 6883.58 0 -3.51476e+06 6714.37 0 -3.51966e+06 6527.33 0 -3.5244e+06 6322.26 0 -3.52899e+06 6099.03 0 -3.53341e+06 5857.64 0 -3.53764e+06 5598.19 0 -3.54168e+06 5320.91 0 -3.5455e+06 5026.13 0 -3.5491e+06 4714.36 0 -3.55247e+06 4386.19 0 -3.55558e+06 4042.38 0 -3.55844e+06 3683.82 0 -3.56103e+06 3311.54 0 -3.56333e+06 2926.68 0 -3.56535e+06 2530.51 0 -3.56707e+06 2124.42 0 -3.56849e+06 1709.9 0 -3.5696e+06 1288.52 0 -3.57039e+06 861.938 0 -3.57087e+06 431.85 0 -3.57103e+06 5.48549e-07 0 -1.71601e+06 116790 0 -1.79276e+06 116214 0 -1.8689e+06 114988 0 -1.94401e+06 113147 0 -2.0177e+06 110738 0 -2.08961e+06 107821 0 -2.15942e+06 104467 0 -2.22686e+06 100748 0 -2.29174e+06 96741.1 0 -2.35387e+06 92520.9 0 -2.41316e+06 88158 0 -2.46952e+06 83717.4 0 -2.52294e+06 79257.1 0 -2.57341e+06 74827.1 0 -2.62099e+06 70469.8 0 -2.66572e+06 66219.7 0 -2.7077e+06 62104.2 0 -2.74703e+06 58144.1 0 -2.7838e+06 54354.6 0 -2.81815e+06 50745.7 0 -2.85019e+06 47323.3 0 -2.88004e+06 44089.8 0 -2.90784e+06 41044.7 0 -2.93371e+06 38185.5 0 -2.95776e+06 35507.8 0 -2.98012e+06 33005.9 0 -3.0009e+06 30673.3 0 -3.02021e+06 28502.5 0 -3.03815e+06 26486.2 0 -3.05482e+06 24616.3 0 -3.07031e+06 22885 0 -3.08472e+06 21284.5 0 -3.09812e+06 19807 0 -3.1106e+06 18445.2 0 -3.12222e+06 17191.7 0 -3.13306e+06 16039.8 0 -3.14317e+06 14982.7 0 -3.15263e+06 14014.4 0 -3.16148e+06 13128.7 0 -3.16978e+06 12320.2 0 -3.17758e+06 11583.5 0 -3.18492e+06 10913.7 0 -3.19184e+06 10306.3 0 -3.19838e+06 9756.69 0 -3.20459e+06 9260.97 0 -3.21048e+06 8815.29 0 -3.21611e+06 8416.07 0 -3.22148e+06 8060.02 0 -3.22664e+06 7744.02 0 -3.23161e+06 7465.18 0 -3.2364e+06 7220.82 0 -3.24105e+06 7008.4 0 -3.24557e+06 6825.6 0 -3.24998e+06 6670.22 0 -3.25429e+06 6540.24 0 -3.25853e+06 6433.73 0 -3.26271e+06 6348.94 0 -3.26684e+06 6284.2 0 -3.27094e+06 6237.96 0 -3.27501e+06 6208.77 0 -3.27906e+06 6195.29 0 -3.28312e+06 6196.22 0 -3.28718e+06 6210.39 0 -3.29125e+06 6236.66 0 -3.29535e+06 6273.99 0 -3.29947e+06 6321.36 0 -3.30363e+06 6377.83 0 -3.30782e+06 6442.5 0 -3.31207e+06 6514.53 0 -3.31636e+06 6593.09 0 -3.32071e+06 6677.41 0 -3.32511e+06 6766.73 0 -3.32957e+06 6860.32 0 -3.3341e+06 6957.49 0 -3.33869e+06 7057.55 0 -3.34335e+06 7159.83 0 -3.34808e+06 7263.67 0 -3.35288e+06 7368.42 0 -3.35774e+06 7473.45 0 -3.36268e+06 7578.1 0 -3.36768e+06 7681.75 0 -3.37275e+06 7783.74 0 -3.37789e+06 7883.44 0 -3.38309e+06 7980.2 0 -3.38835e+06 8073.34 0 -3.39368e+06 8162.21 0 -3.39906e+06 8246.12 0 -3.40449e+06 8324.38 0 -3.40998e+06 8396.28 0 -3.41551e+06 8461.11 0 -3.42108e+06 8518.13 0 -3.42668e+06 8566.59 0 -3.43231e+06 8605.75 0 -3.43797e+06 8634.82 0 -3.44364e+06 8653.04 0 -3.44933e+06 8659.62 0 -3.45501e+06 8653.76 0 -3.46068e+06 8634.7 0 -3.46634e+06 8601.63 0 -3.47197e+06 8553.79 0 -3.47757e+06 8490.43 0 -3.48312e+06 8410.8 0 -3.48861e+06 8314.21 0 -3.49403e+06 8199.99 0 -3.49937e+06 8067.51 0 -3.50462e+06 7916.23 0 -3.50977e+06 7745.63 0 -3.5148e+06 7555.3 0 -3.51969e+06 7344.9 0 -3.52444e+06 7114.2 0 -3.52903e+06 6863.07 0 -3.53346e+06 6591.5 0 -3.53769e+06 6299.6 0 -3.54173e+06 5987.62 0 -3.54556e+06 5655.96 0 -3.54916e+06 5305.15 0 -3.55253e+06 4935.89 0 -3.55565e+06 4549.03 0 -3.55851e+06 4145.56 0 -3.5611e+06 3726.63 0 -3.5634e+06 3293.54 0 -3.56542e+06 2847.73 0 -3.56715e+06 2390.74 0 -3.56857e+06 1924.26 0 -3.56968e+06 1450.07 0 -3.57047e+06 970.002 0 -3.57095e+06 485.993 0 -3.57111e+06 9.1549e-07 0 -1.71606e+06 129834 0 -1.79293e+06 129192 0 -1.86918e+06 127827 0 -1.9444e+