<?xml version="1.0"?> 
<VTKFile type="StructuredGrid" version="0.1"> 
<StructuredGrid WholeExtent="0 127 0 127 0 0"> 
<Piece Extent="0 127 0 127 0 0"> 
<PointData>
<DataArray type="Float32" Name="E" format="ascii" NumberOfComponents="3"> 
3406.87 4859.17 0 537.632 1530.82 0 260.528 1280.08 0 -9.57229 1289.41 0 -89.9828 1155.14 0 -164.407 1096.89 0 -191.695 1003.12 0 -212.827 928.854 0 -219.39 850.109 0 -221.747 779.383 0 -218.867 711.664 0 -213.667 649.584 0 -206.408 591.981 0 -198.066 539.221 0 -188.964 490.856 0 -179.502 446.729 0 -169.895 406.513 0 -160.334 369.942 0 -150.942 336.722 0 -141.815 306.58 0 -133.018 279.251 0 -124.595 254.487 0 -116.574 232.054 0 -108.971 211.737 0 -101.791 193.337 0 -95.0333 176.671 0 -88.69 161.571 0 -82.7493 147.885 0 -77.1968 135.474 0 -72.0154 124.213 0 -67.1868 113.989 0 -62.6921 104.699 0 -58.5118 96.2499 0 -54.6266 88.5601 0 -51.0174 81.5545 0 -47.6658 75.1661 0 -44.554 69.3349 0 -41.665 64.0069 0 -38.9827 59.1338 0 -36.4919 54.6722 0 -34.1785 50.5832 0 -32.029 46.8319 0 -30.0311 43.387 0 -28.1732 40.2203 0 -26.4446 37.3067 0 -24.8354 34.6232 0 -23.3365 32.1496 0 -21.9395 29.8674 0 -20.6366 27.76 0 -19.4206 25.8123 0 -18.285 24.011 0 -17.2238 22.3436 0 -16.2313 20.7992 0 -15.3025 19.3677 0 -14.4328 18.04 0 -13.6178 16.8077 0 -12.8536 15.6634 0 -12.1365 14.6002 0 -11.4632 13.6118 0 -10.8307 12.6925 0 -10.236 11.8372 0 -9.67675 11.0409 0 -9.15039 10.2994 0 -8.65478 9.60861 0 -8.18786 8.96484 0 -7.74777 8.36471 0 -7.33277 7.8051 0 -6.94126 7.28313 0 -6.57177 6.79616 0 -6.22291 6.34173 0 -5.89342 5.91759 0 -5.58211 5.52164 0 -5.28789 5.15196 0 -5.00974 4.80675 0 -4.74672 4.48434 0 -4.49794 4.1832 0 -4.26257 3.90189 0 -4.03986 3.6391 0 -3.82909 3.39357 0 -3.62958 3.16416 0 -3.44072 2.94981 0 -3.26189 2.74951 0 -3.09259 2.56234 0 -2.93228 2.38742 0 -2.78048 2.22398 0 -2.63673 2.07122 0 -2.50061 1.92847 0 -2.37173 1.79507 0 -2.2497 1.6704 0 -2.13418 1.55389 0 -2.02482 1.445 0 -1.92133 1.34325 0 -1.82339 1.24815 0 -1.73075 1.15927 0 -1.64312 1.07621 0 -1.56027 0.99859 0 -1.48197 0.926032 0 -1.40799 0.85822 0 -1.33814 0.794837 0 -1.27221 0.73559 0 -1.21002 0.680187 0 -1.15142 0.628406 0 -1.09621 0.579981 0 -1.04428 0.534702 0 -0.995456 0.492342 0 -0.949623 0.452727 0 -0.906644 0.415639 0 -0.866418 0.380959 0 -0.828821 0.348453 0 -0.793759 0.318056 0 -0.761134 0.289535 0 -0.730867 0.262846 0 -0.702867 0.237792 0 -0.677073 0.214318 0 -0.653402 0.192265 0 -0.63181 0.171579 0 -0.612227 0.152128 0 -0.594611 0.133856 0 -0.578919 0.116658 0 -0.565119 0.100475 0 -0.553162 0.0852206 0 -0.543035 0.0708656 0 -0.534721 0.0572886 0 -0.528192 0.0445142 0 -0.523446 0.0324235 0 -0.520476 0.0209999 0 -0.519284 0.01021 0 -0.519882 -1.90735e-06 0 1553.26 2971.33 0 525.944 1612.49 0 168.739 1370.71 0 -30.4938 1284.7 0 -123.786 1172.91 0 -184.232 1091.31 0 -212.958 1001.22 0 -229.931 921.494 0 -235.519 843.176 0 -235.869 771.318 0 -231.706 703.799 0 -225.12 641.73 0 -216.703 584.462 0 -207.271 532.041 0 -197.201 484.095 0 -186.86 440.393 0 -176.465 400.613 0 -166.195 364.468 0 -156.169 331.661 0 -146.475 301.914 0 -137.172 274.958 0 -128.298 250.545 0 -119.876 228.441 0 -111.916 208.429 0 -104.419 190.311 0 -97.3799 173.905 0 -90.7867 159.044 0 -84.6245 145.578 0 -78.8753 133.369 0 -73.5195 122.292 0 -68.5361 112.236 0 -63.9039 103.098 0 -59.6015 94.7894 0 -55.6076 87.2266 0 -51.9018 80.3367 0 -48.4641 74.0535 0 -45.2755 68.3179 0 -42.3179 63.0768 0 -39.5743 58.2827 0 -37.0287 53.8929 0 -34.6661 49.8692 0 -32.4724 46.1773 0 -30.4348 42.7864 0 -28.5412 39.669 0 -26.7804 36.8001 0 -25.1422 34.1575 0 -23.617 31.7211 0 -22.1962 29.4729 0 -20.8717 27.3964 0 -19.6361 25.4771 0 -18.4827 23.7017 0 -17.4053 22.058 0 -16.3981 20.5354 0 -15.4559 19.1238 0 -14.5739 17.8143 0 -13.7476 16.5988 0 -12.9731 15.4699 0 -12.2466 14.4208 0 -11.5647 13.4455 0 -10.9242 12.5383 0 -10.3223 11.694 0 -9.75638 10.9079 0 -9.22388 10.1758 0 -8.72262 9.49375 0 -8.2505 8.85803 0 -7.80561 8.26535 0 -7.3862 7.71264 0 -6.99062 7.19707 0 -6.61737 6.71601 0 -6.26505 6.26708 0 -5.93236 5.84804 0 -5.6181 5.45683 0 -5.32116 5.09155 0 -5.04049 4.75042 0 -4.77514 4.43182 0 -4.52421 4.13422 0 -4.28686 3.8562 0 -4.06232 3.59647 0 -3.84984 3.3538 0 -3.64877 3.12705 0 -3.45846 2.91519 0 -3.2783 2.7172 0 -3.10776 2.53219 0 -2.9463 2.35929 0 -2.79344 2.19772 0 -2.64872 2.04673 0 -2.5117 1.90561 0 -2.38198 1.77374 0 -2.25919 1.6505 0 -2.14295 1.53533 0 -2.03294 1.42769 0 -1.92884 1.32711 0 -1.83034 1.2331 0 -1.73718 1.14525 0 -1.64908 1.06314 0 -1.56579 0.986409 0 -1.48709 0.914695 0 -1.41274 0.847669 0 -1.34254 0.785014 0 -1.27629 0.726458 0 -1.21381 0.671705 0 -1.15494 0.620529 0 -1.09949 0.572671 0 -1.04733 0.52792 0 -0.998303 0.486066 0 -0.952278 0.446913 0 -0.909124 0.410279 0 -0.868733 0.375993 0 -0.830992 0.343901 0 -0.795792 0.313849 0 -0.763044 0.285695 0 -0.732661 0.259317 0 -0.704559 0.234587 0 -0.678666 0.211391 0 -0.65491 0.189629 0 -0.633234 0.169194 0 -0.613579 0.150002 0 -0.595893 0.131958 0 -0.58014 0.114989 0 -0.56628 0.0990134 0 -0.554275 0.0839908 0 -0.544093 0.0697969 0 -0.535737 0.0564477 0 -0.529162 0.0438266 0 -0.524378 0.0319296 0 -0.521369 0.0206753 0 -0.520141 0.0100518 0 -0.520701 8.29488e-07 0 913.023 2504.13 0 415.927 1665.88 0 102.514 1417.07 0 -64.3944 1292.91 0 -153.976 1180.46 0 -206.74 1088.05 0 -233.606 996.91 0 -247.511 914.256 0 -251.448 835.51 0 -249.957 763.049 0 -244.37 695.604 0 -236.419 633.675 0 -226.819 576.743 0 -216.304 524.705 0 -205.269 477.194 0 -194.057 433.939 0 -182.883 394.611 0 -171.915 358.907 0 -161.265 326.526 0 -151.015 297.184 0 -141.216 270.611 0 -131.901 246.557 0 -123.086 224.787 0 -114.778 205.085 0 -106.972 187.255 0 -99.6586 171.113 0 -92.8223 156.496 0 -86.4446 143.252 0 -80.5043 131.247 0 -74.9791 120.357 0 -69.8454 110.47 0 -65.0799 101.488 0 -60.659 93.3201 0 -56.5599 85.8857 0 -52.7603 79.1124 0 -49.2392 72.9352 0 -45.9762 67.296 0 -42.9522 62.1424 0 -40.1492 57.4279 0 -37.5504 53.1104 0 -35.1401 49.1524 0 -32.9037 45.5202 0 -30.8276 42.1836 0 -28.8994 39.1156 0 -27.1074 36.2918 0 -25.4409 33.6902 0 -23.8902 31.2912 0 -22.4463 29.077 0 -21.1009 27.0318 0 -19.8463 25.1409 0 -18.6757 23.3915 0 -17.5825 21.7716 0 -16.5609 20.2707 0 -15.6056 18.8791 0 -14.7117 17.588 0 -13.8745 16.3893 0 -13.0899 15.2759 0 -12.3543 14.241 0 -11.6639 13.2788 0 -11.0158 12.3836 0 -10.4068 11.5504 0 -9.83431 10.7746 0 -9.29582 10.052 0 -8.78904 9.3786 0 -8.31183 8.75097 0 -7.86227 8.16576 0 -7.43854 7.61996 0 -7.03898 7.1108 0 -6.66206 6.63569 0 -6.30635 6.19226 0 -5.97053 5.77834 0 -5.65338 5.39187 0 -5.35377 5.031 0 -5.07064 4.69397 0 -4.80302 4.37918 0 -4.54998 4.08513 0 -4.31069 3.81042 0 -4.08434 3.55376 0 -3.87021 3.31395 0 -3.6676 3.08987 0 -3.47587 2.88049 0 -3.2944 2.68483 0 -3.12264 2.50197 0 -2.96006 2.3311 0 -2.80617 2.17141 0 -2.66048 2.02218 0 -2.52258 1.88271 0 -2.39205 1.75237 0 -2.2685 1.63056 0 -2.15157 1.51673 0 -2.04091 1.41035 0 -1.93622 1.31094 0 -1.83717 1.21802 0 -1.74351 1.1312 0 -1.65493 1.05005 0 -1.57122 0.974213 0 -1.49211 0.90334 0 -1.4174 0.837097 0 -1.34686 0.775182 0 -1.28031 0.717314 0 -1.21754 0.663208 0 -1.15841 0.612638 0 -1.10272 0.565348 0 -1.05033 0.521131 0 -1.0011 0.479777 0 -0.954887 0.441095 0 -0.911562 0.404903 0 -0.871012 0.371033 0 -0.833126 0.339333 0 -0.797792 0.309648 0 -0.764923 0.281842 0 -0.734426 0.255793 0 -0.706222 0.231369 0 -0.680235 0.208469 0 -0.656392 0.186981 0 -0.634637 0.166812 0 -0.614909 0.147869 0 -0.597157 0.130062 0 -0.581342 0.113318 0 -0.567426 0.0975642 0 -0.555366 0.0827367 0 -0.545139 0.0687533 0 -0.536735 0.0555847 0 -0.530119 0.0431526 0 -0.525295 0.0314291 0 -0.522248 0.0203478 0 -0.520984 0.00988868 0 -0.521509 1.40932e-06 0 599.224 2332.62 0 297.712 1698.46 0 41.5915 1445.36 0 -102.136 1301.39 0 -183.729 1183.71 0 -230.267 1084.48 0 -254.185 991.328 0 -265.244 906.632 0 -267.257 827.322 0 -263.942 754.478 0 -256.866 687.121 0 -247.547 625.403 0 -236.753 568.833 0 -225.158 517.212 0 -213.163 470.159 0 -201.089 427.372 0 -189.146 388.511 0 -177.491 353.262 0 -166.229 321.319 0 -155.433 292.392 0 -145.148 266.211 0 -135.402 242.523 0 -126.204 221.094 0 -117.556 201.709 0 -109.45 184.17 0 -101.869 168.297 0 -94.7967 153.927 0 -88.2096 140.909 0 -82.0839 129.11 0 -76.3943 118.409 0 -71.1149 108.694 0 -66.2201 99.8683 0 -61.6844 91.8427 0 -57.4833 84.5377 0 -53.5931 77.8821 0 -49.9911 71.8118 0 -46.6561 66.2695 0 -43.5678 61.2042 0 -40.7074 56.5696 0 -38.0571 52.3248 0 -35.6007 48.4329 0 -33.3229 44.8608 0 -31.2096 41.5788 0 -29.2478 38.5605 0 -27.4255 35.7818 0 -25.7317 33.2214 0 -24.1563 30.86 0 -22.69 28.6801 0 -21.3243 26.666 0 -20.0512 24.8038 0 -18.8638 23.0804 0 -17.7553 21.4845 0 -16.7198 20.0054 0 -15.7518 18.6338 0 -14.8462 17.3611 0 -13.9984 16.1793 0 -13.2041 15.0813 0 -12.4595 14.0608 0 -11.761 13.1116 0 -11.1053 12.2285 0 -10.4894 11.4065 0 -9.91054 10.6409 0 -9.3662 9.92778 0 -8.85403 9.26319 0 -8.37187 8.64365 0 -7.91774 8.06594 0 -7.48979 7.52708 0 -7.08634 7.02434 0 -6.70583 6.55518 0 -6.34681 6.11728 0 -6.00793 5.70848 0 -5.68796 5.32677 0 -5.38574 4.97032 0 -5.10019 4.63741 0 -4.83034 4.32644 0 -4.57524 4.03594 0 -4.33404 3.76454 0 -4.10594 3.51096 0 -3.89018 3.27402 0 -3.68607 3.05262 0 -3.49294 2.84573 0 -3.31018 2.65239 0 -3.13724 2.47171 0 -2.97356 2.30286 0 -2.81865 2.14506 0 -2.67203 1.99759 0 -2.53326 1.85977 0 -2.40193 1.73097 0 -2.27764 1.6106 0 -2.16002 1.49811 0 -2.04873 1.39298 0 -1.94346 1.29474 0 -1.84387 1.20292 0 -1.74971 1.11712 0 -1.66068 1.03694 0 -1.57655 0.962 0 -1.49705 0.891965 0 -1.42198 0.826512 0 -1.35111 0.765335 0 -1.28425 0.708157 0 -1.22121 0.654701 0 -1.16181 0.604735 0 -1.10589 0.558017 0 -1.05328 0.514333 0 -1.00385 0.473481 0 -0.957452 0.435269 0 -0.913957 0.399522 0 -0.873252 0.366066 0 -0.835223 0.334759 0 -0.799759 0.30544 0 -0.766769 0.277986 0 -0.736163 0.252263 0 -0.707859 0.228151 0 -0.681778 0.205541 0 -0.657851 0.184335 0 -0.636018 0.164426 0 -0.616219 0.145734 0 -0.598401 0.128162 0 -0.582526 0.111647 0 -0.568553 0.0961073 0 -0.556443 0.0814873 0 -0.546167 0.0677032 0 -0.537719 0.0547249 0 -0.531062 0.0424757 0 -0.526197 0.030929 0 -0.523114 0.0200207 0 -0.521814 0.00972546 0 -0.522303 -6.40983e-07 0 396.599 2240.65 0 188.6 1715.94 0 -17.4821 1463.19 0 -141.185 1307.29 0 -213.613 1184.22 0 -254.282 1079.93 0 -274.777 984.772 0 -283.007 898.483 0 -282.948 818.668 0 -277.793 745.58 0 -269.184 678.361 0 -258.493 616.91 0 -246.499 560.738 0 -233.83 509.564 0 -220.881 462.993 0 -207.955 420.694 0 -195.253 382.316 0 -182.922 347.537 0 -171.059 316.043 0 -159.728 287.542 0 -148.969 261.761 0 -138.801 238.447 0 -129.23 217.366 0 -120.251 198.302 0 -111.852 181.059 0 -104.012 165.459 0 -96.7098 151.339 0 -89.9196 138.55 0 -83.614 126.96 0 -77.765 116.449 0 -72.3445 106.908 0 -67.3246 98.2399 0 -62.6778 90.3579 0 -58.3781 83.1834 0 -54.4001 76.6463 0 -50.7201 70.6836 0 -47.3154 65.2391 0 -44.1649 60.2623 0 -41.2489 55.7083 0 -38.5489 51.5366 0 -36.0479 47.7111 0 -33.73 44.1993 0 -31.5806 40.9722 0 -29.5864 38.0037 0 -27.7348 35.2705 0 -26.0146 32.7514 0 -24.4152 30.4276 0 -22.9272 28.2821 0 -21.5418 26.2994 0 -20.2509 24.4657 0 -19.0471 22.7686 0 -17.9238 21.1966 0 -16.8748 19.7395 0 -15.8944 18.388 0 -14.9775 17.1336 0 -14.1193 15.9688 0 -13.3156 14.8864 0 -12.5623 13.8801 0 -11.8558 12.9441 0 -11.1927 12.0731 0 -10.5701 11.2622 0 -9.98508 10.507 0 -9.43504 9.80334 0 -8.91762 9.14753 0 -8.43062 8.53611 0 -7.97202 7.9659 0 -7.53996 7.434 0 -7.13271 6.93769 0 -6.74869 6.47451 0 -6.38643 6.04214 0 -6.04456 5.63848 0 -5.72183 5.26154 0 -5.41705 4.90953 0 -5.12915 4.58073 0 -4.85712 4.27359 0 -4.6 3.98665 0 -4.35694 3.71857 0 -4.12711 3.46808 0 -3.90976 3.23402 0 -3.70417 3.0153 0 -3.50968 2.81091 0 -3.32567 2.6199 0 -3.15156 2.44139 0 -2.9868 2.27457 0 -2.8309 2.11866 0 -2.68336 1.97296 0 -2.54374 1.83678 0 -2.41162 1.70952 0 -2.2866 1.59059 0 -2.16832 1.47945 0 -2.05641 1.37558 0 -1.95056 1.27852 0 -1.85045 1.1878 0 -1.7558 1.10303 0 -1.66632 1.0238 0 -1.58177 0.949769 0 -1.5019 0.880576 0 -1.42647 0.815911 0 -1.35528 0.755474 0 -1.28812 0.698988 0 -1.2248 0.646182 0 -1.16516 0.596824 0 -1.109 0.550676 0 -1.05618 0.507527 0 -1.00655 0.467177 0 -0.959972 0.42944 0 -0.916311 0.394133 0 -0.875454 0.361097 0 -0.837284 0.330178 0 -0.801693 0.301233 0 -0.768585 0.274125 0 -0.737871 0.248732 0 -0.709468 0.224929 0 -0.683297 0.202616 0 -0.659286 0.181683 0 -0.637378 0.162041 0 -0.617507 0.143595 0 -0.599625 0.126264 0 -0.583691 0.109976 0 -0.569663 0.0946484 0 -0.557502 0.0802403 0 -0.54718 0.0666514 0 -0.538687 0.0538664 0 -0.531989 0.0417996 0 -0.527085 0.0304284 0 -0.523966 0.0196909 0 -0.52263 0.00956512 0 -0.523086 -8.42847e-08 0 244.379 2175.37 0 90.4604 1722.91 0 -74.9734 1473.4 0 -180.575 1310.18 0 -243.628 1182.44 0 -278.533 1074.29 0 -295.354 977.315 0 -300.728 889.782 0 -298.499 809.561 0 -291.483 736.352 0 -281.314 669.327 0 -269.247 608.199 0 -256.05 552.461 0 -242.313 501.765 0 -228.419 455.699 0 -214.651 413.908 0 -201.202 376.031 0 -188.207 341.734 0 -175.754 310.701 0 -163.9 282.636 0 -152.677 257.264 0 -142.098 234.331 0 -132.164 213.603 0 -122.863 194.866 0 -114.178 177.924 0 -106.087 162.6 0 -98.5617 148.733 0 -91.5744 136.175 0 -85.0946 124.797 0 -79.0915 114.478 0 -73.5344 105.112 0 -68.3934 96.6036 0 -63.6393 88.8664 0 -59.2442 81.8234 0 -55.1815 75.4056 0 -51.426 69.5512 0 -47.9541 64.2049 0 -44.7436 59.3173 0 -41.7739 54.8442 0 -39.0258 50.746 0 -36.4817 46.9871 0 -34.1251 43.5359 0 -31.9409 40.3639 0 -29.9153 37.4455 0 -28.0354 34.7578 0 -26.2895 32.2802 0 -24.667 29.9942 0 -23.158 27.8831 0 -21.7535 25.9319 0 -20.4452 24.127 0 -19.2257 22.456 0 -18.088 20.9081 0 -17.0258 19.4729 0 -16.0334 18.1416 0 -15.1055 16.9057 0 -14.2373 15.7578 0 -13.4244 14.691 0 -12.6626 13.699 0 -11.9484 12.7762 0 -11.2782 11.9174 0 -10.649 11.1177 0 -10.0579 10.3728 0 -9.50234 9.67864 0 -8.97979 9.03163 0 -8.48807 8.42835 0 -8.02512 7.86567 0 -7.58904 7.34073 0 -7.17808 6.85088 0 -6.79064 6.39368 0 -6.42522 5.96686 0 -6.08043 5.56834 0 -5.75499 5.19619 0 -5.44772 4.84861 0 -5.15751 4.52394 0 -4.88334 4.22064 0 -4.62426 3.93728 0 -4.37937 3.67252 0 -4.14786 3.42512 0 -3.92894 3.19395 0 -3.72191 2.97791 0 -3.52609 2.77603 0 -3.34084 2.58735 0 -3.16559 2.41102 0 -2.99978 2.24623 0 -2.8429 2.09222 0 -2.69446 1.94828 0 -2.55401 1.81377 0 -2.42112 1.68805 0 -2.29539 1.57056 0 -2.17645 1.46077 0 -2.06394 1.35816 0 -1.95753 1.26227 0 -1.8569 1.17266 0 -1.76177 1.08891 0 -1.67186 1.01065 0 -1.5869 0.937519 0 -1.50665 0.869172 0 -1.43088 0.805298 0 -1.35937 0.7456 0 -1.29192 0.689808 0 -1.22833 0.63765 0 -1.16844 0.588903 0 -1.11205 0.543325 0 -1.05902 0.500714 0 -1.0092 0.460867 0 -0.962446 0.423601 0 -0.918624 0.388739 0 -0.877617 0.356121 0 -0.83931 0.325596 0 -0.803593 0.297019 0 -0.77037 0.270261 0 -0.739551 0.245197 0 -0.71105 0.221703 0 -0.68479 0.199686 0 -0.660698 0.179031 0 -0.638714 0.159652 0 -0.618775 0.141457 0 -0.60083 0.124366 0 -0.584838 0.108302 0 -0.570755 0.0931943 0 -0.558544 0.0789882 0 -0.548177 0.0656028 0 -0.53964 0.0530042 0 -0.532902 0.041124 0 -0.52796 0.0299295 0 -0.524804 0.0193626 0 -0.523434 0.00940323 0 -0.523855 2.31899e-07 0 119.871 2123.76 0 2.03663 1722.26 0 -130.672 1477.69 0 -219.81 1310.07 0 -273.652 1178.62 0 -302.854 1067.5 0 -315.868 969.003 0 -318.353 880.519 0 -313.887 800.01 0 -304.992 726.792 0 -293.244 660.025 0 -279.799 599.274 0 -265.402 544.006 0 -250.604 493.818 0 -235.773 448.282 0 -221.176 407.018 0 -206.992 369.657 0 -193.345 335.858 0 -180.314 305.297 0 -167.949 277.677 0 -156.273 252.722 0 -145.293 230.176 0 -135.004 209.808 0 -125.39 191.402 0 -116.429 174.766 0 -108.093 159.722 0 -100.352 146.11 0 -93.1743 133.787 0 -86.5259 122.622 0 -80.3736 112.497 0 -74.6846 103.308 0 -69.4267 94.9602 0 -64.5689 87.3688 0 -60.0818 80.4581 0 -55.9373 74.1604 0 -52.109 68.4149 0 -48.5722 63.1674 0 -45.3038 58.3695 0 -42.2823 53.9777 0 -39.4879 49.9532 0 -36.9022 46.2613 0 -34.5082 42.8709 0 -32.2904 39.7541 0 -30.2344 36.8859 0 -28.3272 34.2439 0 -26.5566 31.808 0 -24.9117 29.5599 0 -23.3824 27.4833 0 -21.9594 25.5636 0 -20.6343 23.7875 0 -19.3995 22.1429 0 -18.2479 20.619 0 -17.173 19.2059 0 -16.1689 17.8947 0 -15.2304 16.6774 0 -14.3524 15.5465 0 -13.5305 14.4953 0 -12.7605 13.5176 0 -12.0387 12.608 0 -11.3616 11.7613 0 -10.7261 10.9728 0 -10.1291 10.2383 0 -9.56809 9.55371 0 -9.04056 8.91552 0 -8.54423 8.32039 0 -8.07703 7.76525 0 -7.63704 7.24729 0 -7.22247 6.76391 0 -6.83168 6.3127 0 -6.46317 5.89144 0 -6.11553 5.49808 0 -5.78745 5.13072 0 -5.47774 4.78759 0 -5.18528 4.46706 0 -4.90903 4.1676 0 -4.64801 3.88781 0 -4.40134 3.62638 0 -4.16818 3.38209 0 -3.94774 3.1538 0 -3.7393 2.94046 0 -3.54217 2.74108 0 -3.35571 2.55475 0 -3.17935 2.3806 0 -3.0125 2.21784 0 -2.85467 2.06573 0 -2.70534 1.92357 0 -2.56408 1.79071 0 -2.43043 1.66654 0 -2.30401 1.5505 0 -2.18442 1.44206 0 -2.07132 1.34071 0 -1.96436 1.246 0 -1.86323 1.15749 0 -1.76763 1.07478 0 -1.67729 0.997484 0 -1.59193 0.925253 0 -1.51131 0.857753 0 -1.43521 0.79467 0 -1.36339 0.735714 0 -1.29565 0.680615 0 -1.2318 0.62911 0 -1.17166 0.58097 0 -1.11505 0.535968 0 -1.06181 0.493892 0 -1.01181 0.454549 0 -0.964875 0.417754 0 -0.920894 0.38334 0 -0.879741 0.351138 0 -0.8413 0.321007 0 -0.80546 0.292802 0 -0.772123 0.266392 0 -0.741201 0.241657 0 -0.712605 0.218476 0 -0.686257 0.196752 0 -0.662086 0.176375 0 -0.640028 0.15726 0 -0.620023 0.139317 0 -0.602015 0.122463 0 -0.585965 0.106627 0 -0.57183 0.0917394 0 -0.55957 0.0777352 0 -0.549158 0.0645523 0 -0.540577 0.0521405 0 -0.5338 0.0404458 0 -0.52882 0.0294289 0 -0.525629 0.0190362 0 -0.524223 0.00924078 0 -0.524612 2.8871e-07 0 13.0747 2079.63 0 -78.2864 1716.01 0 -184.407 1477.19 0 -258.584 1307.18 0 -303.548 1172.95 0 -327.119 1059.59 0 -336.262 959.87 0 -335.832 870.695 0 -329.087 790.024 0 -318.3 716.905 0 -304.962 650.459 0 -290.14 590.137 0 -274.546 535.377 0 -258.697 485.728 0 -242.941 440.744 0 -227.526 400.028 0 -212.619 363.2 0 -198.333 329.91 0 -184.737 299.833 0 -171.872 272.668 0 -159.754 248.137 0 -148.385 225.986 0 -137.751 205.983 0 -127.833 187.914 0 -118.604 171.586 0 -110.031 156.825 0 -102.082 143.473 0 -94.7192 131.386 0 -87.9078 120.436 0 -81.6116 110.507 0 -75.7952 101.496 0 -70.4245 93.3103 0 -65.4668 85.8657 0 -60.891 79.0882 0 -56.6677 72.9113 0 -52.7692 67.2753 0 -49.1699 62.1271 0 -45.8457 57.4191 0 -42.7743 53.1089 0 -39.9352 49.1585 0 -37.3094 45.5338 0 -34.8794 42.2044 0 -32.6292 39.143 0 -30.544 36.3252 0 -28.6103 33.7291 0 -26.8159 31.3348 0 -25.1493 29.1247 0 -23.6003 27.0828 0 -22.1595 25.1947 0 -20.8182 23.4474 0 -19.5686 21.8292 0 -18.4034 20.3294 0 -17.3162 18.9384 0 -16.3009 17.6474 0 -15.352 16.4486 0 -14.4646 15.3347 0 -13.634 14.2992 0 -12.856 13.3359 0 -12.1269 12.4396 0 -11.443 11.605 0 -10.8013 10.8278 0 -10.1986 10.1036 0 -9.63231 9.42856 0 -9.09992 8.79921 0 -8.59911 8.21224 0 -8.12778 7.66465 0 -7.68396 7.15369 0 -7.26586 6.67678 0 -6.87181 6.23158 0 -6.50029 5.81589 0 -6.14986 5.4277 0 -5.81921 5.06514 0 -5.50712 4.72647 0 -5.21246 4.41008 0 -4.93416 4.11448 0 -4.67126 3.83827 0 -4.42285 3.58018 0 -4.18807 3.33899 0 -3.96614 3.1136 0 -3.75632 2.90295 0 -3.55791 2.70609 0 -3.37028 2.52209 0 -3.19282 2.35013 0 -3.02496 2.18941 0 -2.86619 2.03921 0 -2.71601 1.89882 0 -2.57394 1.76762 0 -2.43956 1.645 0 -2.31245 1.53041 0 -2.19224 1.42332 0 -2.07855 1.32323 0 -1.97106 1.22971 0 -1.86943 1.1423 0 -1.77338 1.06063 0 -1.68261 0.984298 0 -1.59686 0.912973 0 -1.51589 0.846319 0 -1.43945 0.784029 0 -1.36732 0.725816 0 -1.2993 0.671412 0 -1.2352 0.620561 0 -1.17482 0.573031 0 -1.11799 0.528601 0 -1.06455 0.487062 0 -1.01436 0.448225 0 -0.96726 0.411905 0 -0.923123 0.377936 0 -0.881827 0.346152 0 -0.843254 0.316416 0 -0.807293 0.28858 0 -0.773846 0.262522 0 -0.742822 0.238115 0 -0.714133 0.215247 0 -0.6877 0.193818 0 -0.66345 0.17372 0 -0.64132 0.154869 0 -0.621249 0.137176 0 -0.60318 0.12056 0 -0.587075 0.104953 0 -0.572887 0.0902814 0 -0.560579 0.0764867 0 -0.550122 0.0634987 0 -0.5415 0.0512801 0 -0.534683 0.0397688 0 -0.529666 0.0289283 0 -0.52644 0.0187083 0 -0.525001 0.00907982 0 -0.525355 5.81145e-07 0 -81.3281 2040.14 0 -151.929 1705.5 0 -236.098 1472.74 0 -296.698 1301.74 0 -333.186 1165.57 0 -351.225 1050.59 0 -356.482 949.947 0 -353.123 860.316 0 -344.076 779.612 0 -331.39 706.694 0 -316.456 640.634 0 -300.261 580.793 0 -283.479 526.578 0 -266.589 477.499 0 -249.919 433.091 0 -233.7 392.942 0 -218.083 356.662 0 -203.171 323.895 0 -189.023 294.312 0 -175.67 267.611 0 -163.122 243.513 0 -151.373 221.763 0 -140.406 202.13 0 -130.193 184.401 0 -120.703 168.387 0 -111.902 153.913 0 -103.75 140.822 0 -96.2092 128.973 0 -89.2406 118.241 0 -82.8055 108.509 0 -76.8663 99.678 0 -71.387 91.6547 0 -66.3331 84.3579 0 -61.6719 77.7143 0 -57.3727 71.6587 0 -53.4067 66.1327 0 -49.7473 61.0842 0 -46.3694 56.4666 0 -43.25 52.2383 0 -40.3679 48.3622 0 -37.7035 44.8049 0 -35.2388 41.5367 0 -32.9573 38.5309 0 -30.8439 35.7636 0 -28.8848 33.2133 0 -27.0673 30.8609 0 -25.3799 28.6888 0 -23.812 26.6816 0 -22.3539 24.8252 0 -20.9969 23.1068 0 -19.733 21.5149 0 -18.5548 20.0393 0 -17.4556 18.6704 0 -16.4293 17.3997 0 -15.4704 16.2195 0 -14.5738 15.1227 0 -13.7348 14.1028 0 -12.9491 13.1539 0 -12.2128 12.2708 0 -11.5224 11.4485 0 -10.8746 10.6825 0 -10.2664 9.96865 0 -9.695 9.30322 0 -9.15788 8.68271 0 -8.65271 8.10392 0 -8.17734 7.5639 0 -7.7298 7.05994 0 -7.30826 6.58952 0 -6.91104 6.15033 0 -6.53658 5.74022 0 -6.18343 5.35721 0 -5.85027 4.99945 0 -5.53585 4.66525 0 -5.23904 4.35301 0 -4.95875 4.06127 0 -4.69401 3.78866 0 -4.44389 3.5339 0 -4.20754 3.29583 0 -3.98415 3.07333 0 -3.77298 2.86539 0 -3.57332 2.67104 0 -3.38453 2.48939 0 -3.20601 2.31962 0 -3.03716 2.16095 0 -2.87748 2.01265 0 -2.72645 1.87404 0 -2.5836 1.7445 0 -2.4485 1.62344 0 -2.32073 1.51029 0 -2.19989 1.40455 0 -2.08564 1.30574 0 -1.97762 1.2134 0 -1.8755 1.1271 0 -1.779 1.04646 0 -1.68782 0.971098 0 -1.60169 0.900677 0 -1.52037 0.834872 0 -1.4436 0.773375 0 -1.37118 0.715906 0 -1.30289 0.662198 0 -1.23853 0.612001 0 -1.17791 0.565083 0 -1.12087 0.521228 0 -1.06724 0.480228 0 -1.01687 0.441895 0 -0.9696 0.40605 0 -0.92531 0.372525 0 -0.883874 0.341163 0 -0.845171 0.31182 0 -0.809093 0.284357 0 -0.775537 0.258649 0 -0.744414 0.23457 0 -0.715634 0.212017 0 -0.689116 0.190879 0 -0.664791 0.171062 0 -0.64259 0.152475 0 -0.622454 0.135035 0 -0.604325 0.118657 0 -0.588165 0.103278 0 -0.573927 0.0888231 0 -0.561572 0.0752343 0 -0.551071 0.0624456 0 -0.542407 0.0504199 0 -0.535552 0.0390929 0 -0.530498 0.0284284 0 -0.527237 0.0183798 0 -0.525764 0.00891732 0 -0.526086 -1.75647e-06 0 -166.46 2003.46 0 -220.01 1691.67 0 -285.741 1464.97 0 -334.012 1294 0 -362.456 1156.61 0 -375.087 1040.52 0 -376.477 939.266 0 -370.19 849.393 0 -358.829 768.786 0 -344.243 696.166 0 -327.715 630.557 0 -310.155 571.248 0 -292.193 517.615 0 -274.274 469.135 0 -256.705 425.327 0 -239.694 385.763 0 -223.383 350.047 0 -207.858 317.816 0 -193.17 288.738 0 -179.342 262.509 0 -166.376 238.851 0 -154.259 217.508 0 -142.966 198.251 0 -132.468 180.868 0 -122.727 165.17 0 -113.704 150.985 0 -105.357 138.158 0 -97.6445 126.551 0 -90.5244 116.037 0 -83.9555 106.505 0 -77.8981 97.8537 0 -72.3143 89.9942 0 -67.1678 82.8459 0 -62.4245 76.3369 0 -58.0524 70.4032 0 -54.0216 64.9876 0 -50.3043 60.0392 0 -46.8748 55.5123 0 -43.7093 51.3662 0 -40.7859 47.5645 0 -38.0844 44.0748 0 -35.5863 40.8679 0 -33.2748 37.9178 0 -31.1343 35.2011 0 -29.1507 32.6969 0 -27.311 30.3863 0 -25.6035 28.2523 0 -24.0173 26.2799 0 -22.5426 24.4551 0 -21.1704 22.7657 0 -19.8927 21.2003 0 -18.7018 19.7488 0 -17.5911 18.4021 0 -16.5543 17.1517 0 -15.5857 15.9901 0 -14.6802 14.9103 0 -13.833 13.9061 0 -13.0398 12.9717 0 -12.2966 12.1018 0 -11.5999 11.2917 0 -10.9462 10.537 0 -10.3326 9.83354 0 -9.75617 9.1777 0 -9.21444 8.56604 0 -8.70503 7.99544 0 -8.22574 7.463 0 -7.77457 6.96606 0 -7.34969 6.50214 0 -6.94936 6.06897 0 -6.57204 5.66445 0 -6.21624 5.28662 0 -5.88062 4.93368 0 -5.56394 4.60394 0 -5.26503 4.29586 0 -4.9828 4.00798 0 -4.71626 3.73897 0 -4.46448 3.48756 0 -4.22659 3.2526 0 -4.00177 3.03301 0 -3.78928 2.82777 0 -3.5884 2.63594 0 -3.39849 2.45665 0 -3.21891 2.28907 0 -3.04911 2.13244 0 -2.88853 1.98605 0 -2.73667 1.84923 0 -2.59306 1.72135 0 -2.45725 1.60184 0 -2.32882 1.49015 0 -2.20739 1.38577 0 -2.09258 1.28822 0 -1.98404 1.19706 0 -1.88145 1.11187 0 -1.78451 1.03227 0 -1.69293 0.957882 0 -1.60643 0.888368 0 -1.52476 0.823412 0 -1.44768 0.76271 0 -1.37496 0.705987 0 -1.3064 0.652976 0 -1.24179 0.603433 0 -1.18095 0.557126 0 -1.1237 0.513847 0 -1.06987 0.473385 0 -1.01932 0.435559 0 -0.971894 0.400189 0 -0.927455 0.367111 0 -0.885882 0.336168 0 -0.847053 0.307219 0 -0.810859 0.28013 0 -0.777197 0.254771 0 -0.745977 0.231023 0 -0.717108 0.208783 0 -0.690508 0.187938 0 -0.666107 0.168402 0 -0.643837 0.150078 0 -0.623638 0.13289 0 -0.605451 0.116753 0 -0.589237 0.101602 0 -0.574948 0.0873609 0 -0.562547 0.0739847 0 -0.552003 0.0613923 0 -0.543299 0.0495607 0 -0.536406 0.0384131 0 -0.531316 0.0279278 0 -0.528021 0.0180521 0 -0.526515 0.00875562 0 -0.526805 2.79024e-06 0 -244.32 1968.47 0 -283.397 1675.14 0 -333.376 1454.39 0 -370.432 1284.18 0 -391.264 1146.19 0 -398.634 1029.45 0 -396.198 927.856 0 -386.997 837.941 0 -373.325 757.555 0 -356.844 685.327 0 -338.728 620.234 0 -319.813 561.507 0 -300.684 508.492 0 -281.75 460.641 0 -263.295 417.456 0 -245.508 378.496 0 -228.516 343.358 0 -212.392 311.676 0 -197.179 283.114 0 -182.888 257.366 0 -169.515 234.154 0 -157.04 213.225 0 -145.434 194.348 0 -134.659 177.314 0 -124.675 161.936 0 -115.438 148.044 0 -106.903 135.484 0 -99.0252 124.119 0 -91.7592 113.825 0 -85.0617 104.493 0 -78.8907 96.0242 0 -73.2065 88.3294 0 -67.9711 81.3303 0 -63.1491 74.9565 0 -58.707 69.1452 0 -54.614 63.8405 0 -50.8413 58.9925 0 -47.3623 54.5564 0 -44.1525 50.4927 0 -41.1894 46.7657 0 -38.4523 43.3437 0 -35.9222 40.1983 0 -33.5818 37.304 0 -31.4152 34.6379 0 -29.4081 32.1798 0 -27.547 29.9111 0 -25.8201 27.8154 0 -24.2163 25.8777 0 -22.7255 24.0847 0 -21.3388 22.4242 0 -20.0477 20.8853 0 -18.8447 19.4581 0 -17.7228 18.1335 0 -16.6757 16.9034 0 -15.6978 15.7604 0 -14.7836 14.6977 0 -13.9285 13.7092 0 -13.1281 12.7892 0 -12.3782 11.9326 0 -11.6753 11.1348 0 -11.0159 10.3913 0 -10.397 9.69825 0 -9.81581 9.05201 0 -9.26962 8.44923 0 -8.75607 7.88683 0 -8.27297 7.36197 0 -7.81827 6.87205 0 -7.39012 6.41463 0 -6.98679 5.9875 0 -6.60667 5.58857 0 -6.24829 5.21593 0 -5.91028 4.86781 0 -5.59139 4.54255 0 -5.29042 4.23863 0 -5.0063 3.95462 0 -4.73801 3.68921 0 -4.4846 3.44116 0 -4.24521 3.20932 0 -4.019 2.99263 0 -3.80522 2.7901 0 -3.60315 2.6008 0 -3.41213 2.42386 0 -3.23154 2.25848 0 -3.06079 2.1039 0 -2.89934 1.95942 0 -2.74667 1.82438 0 -2.60231 1.69817 0 -2.46581 1.58022 0 -2.33675 1.46998 0 -2.21472 1.36696 0 -2.09937 1.27068 0 -1.99033 1.18071 0 -1.88728 1.09663 0 -1.78991 1.01807 0 -1.69793 0.94465 0 -1.61106 0.876045 0 -1.52906 0.811939 0 -1.45167 0.752035 0 -1.37866 0.696055 0 -1.30984 0.643743 0 -1.24499 0.594854 0 -1.18393 0.549163 0 -1.12647 0.506458 0 -1.07246 0.466536 0 -1.02173 0.429216 0 -0.974143 0.394322 0 -0.929558 0.361691 0 -0.887851 0.331168 0 -0.848898 0.302616 0 -0.812592 0.275897 0 -0.778826 0.250889 0 -0.747511 0.227474 0 -0.718554 0.205544 0 -0.691874 0.184996 0 -0.6674 0.165741 0 -0.645062 0.147681 0 -0.624801 0.130745 0 -0.606557 0.114846 0 -0.59029 0.0999236 0 -0.575952 0.0859 0 -0.563505 0.0727298 0 -0.55292 0.06034 0 -0.544175 0.0486945 0 -0.537246 0.0377389 0 -0.532119 0.0274235 0 -0.528791 0.0177246 0 -0.527252 0.00859254 0 -0.527508 -2.40654e-06 0 -316.272 1934.45 0 -342.757 1656.4 0 -379.068 1441.38 0 -405.895 1272.48 0 -419.534 1134.42 0 -421.804 1017.43 0 -415.605 915.749 0 -403.514 825.974 0 -387.544 745.933 0 -369.178 674.187 0 -349.485 609.672 0 -329.229 551.575 0 -308.946 499.216 0 -289.013 452.022 0 -269.687 409.482 0 -251.139 371.145 0 -233.481 336.601 0 -216.774 305.479 0 -201.048 277.442 0 -186.307 252.184 0 -172.54 229.426 0 -159.718 208.915 0 -147.808 190.423 0 -136.766 173.743 0 -126.547 158.688 0 -117.105 145.091 0 -108.389 132.799 0 -100.351 121.679 0 -92.9453 111.607 0 -86.1242 102.477 0 -79.8443 94.1904 0 -74.0638 86.6611 0 -68.7433 79.8119 0 -63.8457 73.5737 0 -59.3366 67.8853 0 -55.184 62.6918 0 -51.3582 57.9443 0 -47.8317 53.5995 0 -44.5795 49.6183 0 -41.5784 45.9661 0 -38.8071 42.6119 0 -36.2463 39.528 0 -33.8783 36.6896 0 -31.6867 34.0743 0 -29.6569 31.6623 0 -27.7753 29.4355 0 -26.0298 27.378 0 -24.409 25.4752 0 -22.9028 23.7139 0 -21.502 22.0825 0 -20.1981 20.57 0 -18.9833 19.167 0 -17.8506 17.8646 0 -16.7937 16.6548 0 -15.8067 15.5305 0 -14.8842 14.4849 0 -14.0215 13.5121 0 -13.214 12.6065 0 -12.4576 11.7633 0 -11.7487 10.9776 0 -11.0838 10.2454 0 -10.4599 9.56281 0 -9.87394 8.92618 0 -9.3234 8.33227 0 -8.80584 7.77808 0 -8.31903 7.26082 0 -7.86091 6.77792 0 -7.42958 6.32702 0 -7.02331 5.90592 0 -6.64047 5.5126 0 -6.27958 5.14516 0 -5.93925 4.80186 0 -5.61819 4.48108 0 -5.31523 4.18133 0 -5.02926 3.9012 0 -4.75926 3.63939 0 -4.50427 3.3947 0 -4.26341 3.16598 0 -4.03584 2.95221 0 -3.8208 2.75239 0 -3.61757 2.56562 0 -3.42548 2.39103 0 -3.24388 2.22785 0 -3.07221 2.07532 0 -2.90991 1.93276 0 -2.75645 1.79951 0 -2.61136 1.67497 0 -2.47419 1.55857 0 -2.3445 1.44979 0 -2.2219 1.34813 0 -2.10601 1.25312 0 -1.99648 1.16434 0 -1.89298 1.08137 0 -1.79519 1.00385 0 -1.70282 0.931403 0 -1.6156 0.863709 0 -1.53326 0.800455 0 -1.45557 0.741347 0 -1.38229 0.686115 0 -1.31321 0.634502 0 -1.24812 0.586269 0 -1.18684 0.541191 0 -1.12918 0.499062 0 -1.07499 0.459682 0 -1.02409 0.422867 0 -0.976347 0.388451 0 -0.931619 0.356267 0 -0.889781 0.326165 0 -0.850708 0.298009 0 -0.814291 0.271663 0 -0.780423 0.247005 0 -0.749015 0.223923 0 -0.719973 0.202305 0 -0.693215 0.182054 0 -0.668669 0.163077 0 -0.646265 0.145283 0 -0.625942 0.128599 0 -0.607643 0.11294 0 -0.591323 0.0982436 0 -0.576939 0.0844404 0 -0.564447 0.0714756 0 -0.55382 0.0592879 0 -0.545036 0.0478323 0 -0.53807 0.0370603 0 -0.532909 0.0269233 0 -0.529546 0.0173959 0 -0.527976 0.00842878 0 -0.528203 1.62423e-06 0 -383.282 1900.9 0 -398.605 1635.77 0 -422.892 1426.26 0 -440.356 1259.09 0 -447.204 1121.41 0 -44