<?xml version="1.0"?> 
<VTKFile type="StructuredGrid" version="0.1"> 
<StructuredGrid WholeExtent="0 127 0 127 0 0"> 
<Piece Extent="0 127 0 127 0 0"> 
<PointData>
<DataArray type="Float32" Name="E" format="ascii" NumberOfComponents="3"> 
-4.70414e+06 0 0 -3.68057e+06 347540 0 -3.59155e+06 302414 0 -3.51138e+06 221310 0 -3.47666e+06 210774 0 -3.44559e+06 174805 0 -3.42578e+06 161688 0 -3.40835e+06 141907 0 -3.39488e+06 129906 0 -3.38299e+06 116813 0 -3.37285e+06 106773 0 -3.36373e+06 97071 0 -3.35554e+06 88837.1 0 -3.34802e+06 81203.6 0 -3.3411e+06 74442.1 0 -3.33465e+06 68249.1 0 -3.32862e+06 62661.6 0 -3.32296e+06 57555.5 0 -3.31763e+06 52910.4 0 -3.3126e+06 48663.2 0 -3.30784e+06 44784.4 0 -3.30335e+06 41234.9 0 -3.29911e+06 37987.5 0 -3.2951e+06 35014.4 0 -3.29132e+06 32292.9 0 -3.28776e+06 29801.5 0 -3.28441e+06 27521.6 0 -3.28126e+06 25435.9 0 -3.27832e+06 23529.1 0 -3.27557e+06 21787.1 0 -3.27302e+06 20197.1 0 -3.27065e+06 18747.3 0 -3.26847e+06 17427.1 0 -3.26647e+06 16226.5 0 -3.26464e+06 15136.7 0 -3.26299e+06 14149.3 0 -3.26152e+06 13256.6 0 -3.26021e+06 12451.7 0 -3.25907e+06 11727.9 0 -3.25809e+06 11079.4 0 -3.25728e+06 10500.6 0 -3.25664e+06 9986.27 0 -3.25615e+06 9531.79 0 -3.25582e+06 9132.75 0 -3.25564e+06 8785.08 0 -3.25562e+06 8485.04 0 -3.25576e+06 8229.12 0 -3.25605e+06 8014.12 0 -3.25649e+06 7837.02 0 -3.25708e+06 7695.07 0 -3.25783e+06 7585.68 0 -3.25872e+06 7506.45 0 -3.25976e+06 7455.17 0 -3.26095e+06 7429.78 0 -3.26229e+06 7428.34 0 -3.26378e+06 7449.08 0 -3.26541e+06 7490.34 0 -3.26719e+06 7550.56 0 -3.26912e+06 7628.29 0 -3.27119e+06 7722.19 0 -3.27341e+06 7831 0 -3.27577e+06 7953.54 0 -3.27828e+06 8088.69 0 -3.28094e+06 8235.41 0 -3.28374e+06 8392.73 0 -3.28669e+06 8559.72 0 -3.28978e+06 8735.51 0 -3.29302e+06 8919.26 0 -3.29641e+06 9110.18 0 -3.29994e+06 9307.51 0 -3.30362e+06 9510.53 0 -3.30745e+06 9718.52 0 -3.31143e+06 9930.82 0 -3.31555e+06 10146.8 0 -3.31982e+06 10365.7 0 -3.32424e+06 10586.9 0 -3.32881e+06 10809.9 0 -3.33353e+06 11033.9 0 -3.3384e+06 11258.3 0 -3.34342e+06 11482.5 0 -3.34859e+06 11705.8 0 -3.35391e+06 11927.6 0 -3.35939e+06 12147 0 -3.36501e+06 12363.5 0 -3.37079e+06 12576.2 0 -3.37672e+06 12784.5 0 -3.38281e+06 12987.3 0 -3.38904e+06 13184 0 -3.39543e+06 13373.5 0 -3.40197e+06 13555 0 -3.40866e+06 13727.4 0 -3.4155e+06 13889.6 0 -3.4225e+06 14040.5 0 -3.42963e+06 14178.8 0 -3.43692e+06 14303.3 0 -3.44434e+06 14412.6 0 -3.45191e+06 14505.1 0 -3.45961e+06 14579.5 0 -3.46744e+06 14633.9 0 -3.47539e+06 14666.8 0 -3.48347e+06 14676.2 0 -3.49164e+06 14660.2 0 -3.49992e+06 14616.8 0 -3.50829e+06 14543.9 0 -3.51672e+06 14439.3 0 -3.52522e+06 14300.9 0 -3.53375e+06 14126.3 0 -3.5423e+06 13913.2 0 -3.55085e+06 13659.3 0 -3.55936e+06 13362.5 0 -3.5678e+06 13020.5 0 -3.57615e+06 12631.4 0 -3.58437e+06 12193.4 0 -3.59241e+06 11705 0 -3.60023e+06 11164.9 0 -3.60778e+06 10572.4 0 -3.61501e+06 9927.38 0 -3.62187e+06 9230.09 0 -3.62831e+06 8481.6 0 -3.63426e+06 7683.7 0 -3.63967e+06 6838.96 0 -3.64448e+06 5950.8 0 -3.64866e+06 5023.46 0 -3.65215e+06 4061.99 0 -3.6549e+06 3072.21 0 -3.65689e+06 2060.57 0 -3.6581e+06 1034.05 0 -3.6585e+06 3.8147e-06 0 -4.33739e+06 0 0 -3.73087e+06 312912 0 -3.59231e+06 270194 0 -3.52133e+06 221277 0 -3.4799e+06 199057 0 -3.45029e+06 173232 0 -3.42861e+06 156499 0 -3.41129e+06 139966 0 -3.39715e+06 127015 0 -3.38512e+06 115031 0 -3.37466e+06 104812 0 -3.36538e+06 95530.7 0 -3.357e+06 87317.6 0 -3.34935e+06 79873.3 0 -3.3423e+06 73173.3 0 -3.33574e+06 67085.5 0 -3.32961e+06 61560.6 0 -3.32386e+06 56526 0 -3.31845e+06 51936.8 0 -3.31335e+06 47746 0 -3.30853e+06 43917 0 -3.30398e+06 40415.9 0 -3.29968e+06 37213.7 0 -3.29563e+06 34284.2 0 -3.2918e+06 31604.5 0 -3.2882e+06 29153.7 0 -3.28481e+06 26913 0 -3.28163e+06 24865.5 0 -3.27866e+06 22996 0 -3.27588e+06 21290.3 0 -3.2733e+06 19735.9 0 -3.27091e+06 18321 0 -3.2687e+06 17034.9 0 -3.26668e+06 15868 0 -3.26483e+06 14811.2 0 -3.26316e+06 13856.3 0 -3.26167e+06 12995.7 0 -3.26035e+06 12222.3 0 -3.25919e+06 11529.7 0 -3.25821e+06 10911.9 0 -3.25738e+06 10363.5 0 -3.25672e+06 9879.21 0 -3.25622e+06 9454.48 0 -3.25588e+06 9084.89 0 -3.2557e+06 8766.42 0 -3.25567e+06 8495.33 0 -3.2558e+06 8268.14 0 -3.25608e+06 8081.66 0 -3.25652e+06 7932.91 0 -3.25711e+06 7819.13 0 -3.25784e+06 7737.76 0 -3.25873e+06 7686.41 0 -3.25977e+06 7662.9 0 -3.26095e+06 7665.16 0 -3.26229e+06 7691.28 0 -3.26377e+06 7739.5 0 -3.2654e+06 7808.16 0 -3.26718e+06 7895.73 0 -3.2691e+06 8000.76 0 -3.27117e+06 8121.93 0 -3.27338e+06 8257.97 0 -3.27575e+06 8407.72 0 -3.27825e+06 8570.08 0 -3.28091e+06 8744.02 0 -3.28371e+06 8928.56 0 -3.28665e+06 9122.79 0 -3.28975e+06 9325.84 0 -3.29299e+06 9536.89 0 -3.29637e+06 9755.15 0 -3.2999e+06 9979.86 0 -3.30358e+06 10210.3 0 -3.30741e+06 10445.8 0 -3.31138e+06 10685.7 0 -3.31551e+06 10929.3 0 -3.31978e+06 11175.9 0 -3.3242e+06 11424.9 0 -3.32877e+06 11675.8 0 -3.33349e+06 11927.7 0 -3.33836e+06 12180.2 0 -3.34338e+06 12432.5 0 -3.34855e+06 12684 0 -3.35387e+06 12934 0 -3.35934e+06 13181.8 0 -3.36497e+06 13426.7 0 -3.37075e+06 13667.9 0 -3.37668e+06 13904.5 0 -3.38277e+06 14135.9 0 -3.389e+06 14361 0 -3.39539e+06 14578.9 0 -3.40194e+06 14788.7 0 -3.40863e+06 14989.2 0 -3.41547e+06 15179.4 0 -3.42247e+06 15357.9 0 -3.42961e+06 15523.6 0 -3.43689e+06 15674.9 0 -3.44432e+06 15810.5 0 -3.45189e+06 15928.7 0 -3.4596e+06 16027.8 0 -3.46743e+06 16106 0 -3.47539e+06 16161.3 0 -3.48346e+06 16191.8 0 -3.49165e+06 16195.1 0 -3.49993e+06 16169.1 0 -3.5083e+06 16111.1 0 -3.51675e+06 16018.8 0 -3.52525e+06 15889.4 0 -3.53379e+06 15720.1 0 -3.54234e+06 15508.3 0 -3.5509e+06 15250.9 0 -3.55942e+06 14945.2 0 -3.56787e+06 14588.4 0 -3.57623e+06 14177.9 0 -3.58446e+06 13711.1 0 -3.59251e+06 13185.8 0 -3.60034e+06 12600.3 0 -3.6079e+06 11953.2 0 -3.61515e+06 11243.7 0 -3.62202e+06 10471.9 0 -3.62846e+06 9638.48 0 -3.63442e+06 8745.23 0 -3.63984e+06 7794.92 0 -3.64467e+06 6791.38 0 -3.64885e+06 5739.55 0 -3.65234e+06 4645.48 0 -3.6551e+06 3516.21 0 -3.6571e+06 2359.68 0 -3.65831e+06 1184.55 0 -3.65871e+06 -1.66048e-06 0 -4.12215e+06 0 0 -3.74679e+06 271565 0 -3.59715e+06 247193 0 -3.52791e+06 214760 0 -3.4839e+06 190691 0 -3.45416e+06 169519 0 -3.43158e+06 152332 0 -3.41398e+06 137325 0 -3.39943e+06 124414 0 -3.38715e+06 113008 0 -3.37646e+06 102918 0 -3.36699e+06 93898 0 -3.35845e+06 85802.1 0 -3.35066e+06 78500.3 0 -3.34348e+06 71892.7 0 -3.33681e+06 65897.3 0 -3.33059e+06 60445.3 0 -3.32475e+06 55479.5 0 -3.31926e+06 50950.3 0 -3.31409e+06 46815.7 0 -3.30921e+06 43038.5 0 -3.3046e+06 39586.3 0 -3.30025e+06 36430.5 0 -3.29615e+06 33545.4 0 -3.29228e+06 30908.3 0 -3.28863e+06 28498.5 0 -3.28521e+06 26297.7 0 -3.28199e+06 24289 0 -3.27899e+06 22457.1 0 -3.27618e+06 20788.3 0 -3.27357e+06 19269.8 0 -3.27115e+06 17890.2 0 -3.26892e+06 16638.7 0 -3.26688e+06 15505.7 0 -3.26502e+06 14482.2 0 -3.26333e+06 13560.1 0 -3.26182e+06 12731.7 0 -3.26048e+06 11990.1 0 -3.25931e+06 11328.8 0 -3.25831e+06 10742 0 -3.25748e+06 10224.1 0 -3.2568e+06 9770.09 0 -3.25629e+06 9375.25 0 -3.25594e+06 9035.26 0 -3.25575e+06 8746.12 0 -3.25572e+06 8504.09 0 -3.25584e+06 8305.75 0 -3.25611e+06 8147.9 0 -3.25654e+06 8027.58 0 -3.25712e+06 7942.06 0 -3.25785e+06 7888.79 0 -3.25874e+06 7865.41 0 -3.25977e+06 7869.73 0 -3.26095e+06 7899.71 0 -3.26228e+06 7953.45 0 -3.26376e+06 8029.21 0 -3.26538e+06 8125.33 0 -3.26716e+06 8240.29 0 -3.26908e+06 8372.67 0 -3.27114e+06 8521.14 0 -3.27336e+06 8684.46 0 -3.27571e+06 8861.47 0 -3.27822e+06 9051.08 0 -3.28087e+06 9252.26 0 -3.28367e+06 9464.05 0 -3.28661e+06 9685.55 0 -3.28971e+06 9915.89 0 -3.29294e+06 10154.3 0 -3.29633e+06 10399.9 0 -3.29986e+06 10652 0 -3.30354e+06 10909.9 0 -3.30736e+06 11173 0 -3.31134e+06 11440.4 0 -3.31546e+06 11711.7 0 -3.31973e+06 11986 0 -3.32415e+06 12262.9 0 -3.32872e+06 12541.6 0 -3.33344e+06 12821.5 0 -3.33831e+06 13102.1 0 -3.34333e+06 13382.5 0 -3.3485e+06 13662.3 0 -3.35382e+06 13940.6 0 -3.3593e+06 14216.7 0 -3.36492e+06 14490 0 -3.3707e+06 14759.7 0 -3.37664e+06 15024.8 0 -3.38272e+06 15284.7 0 -3.38896e+06 15538.2 0 -3.39535e+06 15784.6 0 -3.40189e+06 16022.7 0 -3.40859e+06 16251.4 0 -3.41544e+06 16469.5 0 -3.42243e+06 16675.8 0 -3.42957e+06 16868.8 0 -3.43686e+06 17047.1 0 -3.4443e+06 17209 0 -3.45187e+06 17352.9 0 -3.45958e+06 17476.8 0 -3.46741e+06 17578.8 0 -3.47538e+06 17656.8 0 -3.48346e+06 17708.4 0 -3.49165e+06 17731.2 0 -3.49994e+06 17722.5 0 -3.50831e+06 17679.6 0 -3.51677e+06 17599.6 0 -3.52527e+06 17479.3 0 -3.53382e+06 17315.5 0 -3.54239e+06 17104.9 0 -3.55095e+06 16844.2 0 -3.55948e+06 16529.7 0 -3.56795e+06 16158.2 0 -3.57632e+06 15726.3 0 -3.58456e+06 15230.7 0 -3.59262e+06 14668.8 0 -3.60046e+06 14037.9 0 -3.60803e+06 13336.1 0 -3.61529e+06 12562.2 0 -3.62217e+06 11715.8 0 -3.62863e+06 10797.4 0 -3.6346e+06 9808.76 0 -3.64003e+06 8752.74 0 -3.64487e+06 7633.64 0 -3.64906e+06 6457.12 0 -3.65256e+06 5230.19 0 -3.65533e+06 3961.15 0 -3.65733e+06 2659.44 0 -3.65854e+06 1335.38 0 -3.65895e+06 9.8726e-07 0 -3.98862e+06 0 0 -3.74554e+06 232290 0 -3.60201e+06 227938 0 -3.53273e+06 205646 0 -3.48787e+06 183527 0 -3.45756e+06 164948 0 -3.43449e+06 148486 0 -3.41651e+06 134394 0 -3.40165e+06 121878 0 -3.38912e+06 110876 0 -3.37821e+06 101022 0 -3.36856e+06 92214.3 0 -3.35986e+06 84269.4 0 -3.35194e+06 77097.6 0 -3.34464e+06 70593.8 0 -3.33787e+06 64688.6 0 -3.33155e+06 59314 0 -3.32563e+06 54417.3 0 -3.32006e+06 49950.4 0 -3.31482e+06 45872.9 0 -3.30988e+06 42148.8 0 -3.30521e+06 38746.5 0 -3.30081e+06 35637.9 0 -3.29666e+06 32797.9 0 -3.29274e+06 30204.1 0 -3.28906e+06 27836.1 0 -3.28559e+06 25675.7 0 -3.28235e+06 23706.2 0 -3.27931e+06 21912.6 0 -3.27647e+06 20281 0 -3.27384e+06 18799 0 -3.2714e+06 17454.9 0 -3.26914e+06 16238.3 0 -3.26708e+06 15139.5 0 -3.26519e+06 14149.7 0 -3.26349e+06 13260.6 0 -3.26196e+06 12464.7 0 -3.26061e+06 11755.1 0 -3.25943e+06 11125.4 0 -3.25841e+06 10569.7 0 -3.25756e+06 10082.5 0 -3.25688e+06 9658.9 0 -3.25636e+06 9294.11 0 -3.256e+06 8983.87 0 -3.2558e+06 8724.17 0 -3.25575e+06 8511.34 0 -3.25587e+06 8341.95 0 -3.25614e+06 8212.83 0 -3.25656e+06 8121.05 0 -3.25713e+06 8063.87 0 -3.25786e+06 8038.79 0 -3.25873e+06 8043.45 0 -3.25976e+06 8075.67 0 -3.26094e+06 8133.43 0 -3.26226e+06 8214.86 0 -3.26374e+06 8318.2 0 -3.26536e+06 8441.84 0 -3.26713e+06 8584.25 0 -3.26905e+06 8744.02 0 -3.27111e+06 8919.84 0 -3.27332e+06 9110.48 0 -3.27568e+06 9314.78 0 -3.27818e+06 9531.67 0 -3.28083e+06 9760.13 0 -3.28363e+06 9999.21 0 -3.28657e+06 10248 0 -3.28966e+06 10505.7 0 -3.2929e+06 10771.4 0 -3.29628e+06 11044.4 0 -3.29981e+06 11324 0 -3.30349e+06 11609.4 0 -3.30731e+06 11900 0 -3.31128e+06 12195 0 -3.3154e+06 12493.9 0 -3.31967e+06 12796.1 0 -3.32409e+06 13100.8 0 -3.32866e+06 13407.4 0 -3.33338e+06 13715.3 0 -3.33825e+06 14023.9 0 -3.34327e+06 14332.6 0 -3.34844e+06 14640.5 0 -3.35377e+06 14947.2 0 -3.35924e+06 15251.7 0 -3.36487e+06 15553.5 0 -3.37065e+06 15851.6 0 -3.37658e+06 16145.3 0 -3.38267e+06 16433.7 0 -3.38891e+06 16715.7 0 -3.3953e+06 16990.6 0 -3.40185e+06 17257 0 -3.40855e+06 17513.9 0 -3.41539e+06 17760.1 0 -3.42239e+06 17994.1 0 -3.42954e+06 18214.5 0 -3.43683e+06 18419.8 0 -3.44427e+06 18608.1 0 -3.45184e+06 18777.7 0 -3.45955e+06 18926.6 0 -3.4674e+06 19052.5 0 -3.47536e+06 19153.1 0 -3.48345e+06 19226 0 -3.49165e+06 19268.2 0 -3.49994e+06 19277.1 0 -3.50832e+06 19249.4 0 -3.51678e+06 19181.7 0 -3.5253e+06 19070.7 0 -3.53386e+06 18912.5 0 -3.54243e+06 18703.4 0 -3.551e+06 18439.3 0 -3.55954e+06 18116.2 0 -3.56802e+06 17730.1 0 -3.57641e+06 17276.9 0 -3.58466e+06 16752.7 0 -3.59273e+06 16154.1 0 -3.60059e+06 15477.9 0 -3.60818e+06 14721.5 0 -3.61545e+06 13883.3 0 -3.62235e+06 12962.3 0 -3.62882e+06 11958.8 0 -3.6348e+06 10874.6 0 -3.64024e+06 9712.75 0 -3.64509e+06 8477.9 0 -3.6493e+06 7176.45 0 -3.65281e+06 5816.37 0 -3.65558e+06 4407.24 0 -3.65759e+06 2959.97 0 -3.6588e+06 1486.61 0 -3.65921e+06 -4.00585e-07 0 -3.90061e+06 0 0 -3.73599e+06 198090 0 -3.60538e+06 210375 0 -3.53644e+06 195640 0 -3.49149e+06 176709 0 -3.46066e+06 160050 0 -3.43725e+06 144692 0 -3.41892e+06 131338 0 -3.4038e+06 119328 0 -3.39103e+06 108684 0 -3.37993e+06 99100.3 0 -3.3701e+06 90495.3 0 -3.36126e+06 82712.7 0 -3.3532e+06 75670.2 0 -3.34579e+06 69274.9 0 -3.33891e+06 63461.1 0 -3.3325e+06 58166.3 0 -3.3265e+06 53340.1 0 -3.32085e+06 48937 0 -3.31554e+06 44917.8 0 -3.31054e+06 41247.9 0 -3.30581e+06 37896.4 0 -3.30136e+06 34835.9 0 -3.29716e+06 32041.9 0 -3.2932e+06 29492.1 0 -3.28947e+06 27166.5 0 -3.28597e+06 25047.1 0 -3.28269e+06 23117.4 0 -3.27962e+06 21362.5 0 -3.27676e+06 19768.6 0 -3.2741e+06 18323.3 0 -3.27163e+06 17015.2 0 -3.26936e+06 15833.9 0 -3.26727e+06 14769.6 0 -3.26537e+06 13813.6 0 -3.26364e+06 12957.8 0 -3.2621e+06 12194.7 0 -3.26073e+06 11517.3 0 -3.25953e+06 10919.4 0 -3.25851e+06 10395 0 -3.25765e+06 9938.78 0 -3.25695e+06 9545.68 0 -3.25642e+06 9211.08 0 -3.25605e+06 8930.71 0 -3.25584e+06 8700.6 0 -3.25579e+06 8517.08 0 -3.25589e+06 8376.75 0 -3.25615e+06 8276.46 0 -3.25657e+06 8213.31 0 -3.25714e+06 8184.57 0 -3.25786e+06 8187.76 0 -3.25873e+06 8220.52 0 -3.25975e+06 8280.72 0 -3.26092e+06 8366.34 0 -3.26224e+06 8475.51 0 -3.26371e+06 8606.5 0 -3.26533e+06 8757.7 0 -3.2671e+06 8927.6 0 -3.26901e+06 9114.82 0 -3.27107e+06 9318.03 0 -3.27328e+06 9536.02 0 -3.27564e+06 9767.66 0 -3.27814e+06 10011.9 0 -3.28079e+06 10267.6 0 -3.28358e+06 10534 0 -3.28652e+06 10810.1 0 -3.28961e+06 11095.2 0 -3.29284e+06 11388.3 0 -3.29622e+06 11688.7 0 -3.29975e+06 11995.7 0 -3.30343e+06 12308.7 0 -3.30725e+06 12626.8 0 -3.31123e+06 12949.5 0 -3.31535e+06 13276.1 0 -3.31962e+06 13606 0 -3.32403e+06 13938.6 0 -3.3286e+06 14273.1 0 -3.33332e+06 14609.1 0 -3.33819e+06 14945.8 0 -3.34321e+06 15282.6 0 -3.34838e+06 15618.9 0 -3.35371e+06 15953.9 0 -3.35918e+06 16286.8 0 -3.36481e+06 16617 0 -3.37059e+06 16943.7 0 -3.37653e+06 17265.9 0 -3.38261e+06 17582.9 0 -3.38886e+06 17893.5 0 -3.39525e+06 18196.8 0 -3.4018e+06 18491.7 0 -3.4085e+06 18776.9 0 -3.41535e+06 19051.1 0 -3.42235e+06 19312.9 0 -3.4295e+06 19560.8 0 -3.43679e+06 19793.1 0 -3.44423e+06 20007.9 0 -3.45181e+06 20203.3 0 -3.45952e+06 20377.2 0 -3.46737e+06 20527 0 -3.47535e+06 20650.4 0 -3.48344e+06 20744.6 0 -3.49164e+06 20806.5 0 -3.49994e+06 20833 0 -3.50833e+06 20820.5 0 -3.5168e+06 20765.4 0 -3.52532e+06 20663.7 0 -3.53389e+06 20511.3 0 -3.54248e+06 20303.7 0 -3.55106e+06 20036.5 0 -3.55961e+06 19704.9 0 -3.5681e+06 19304.3 0 -3.5765e+06 18829.9 0 -3.58476e+06 18277.3 0 -3.59286e+06 17642.1 0 -3.60073e+06 16920.7 0 -3.60833e+06 16109.8 0 -3.61562e+06 15207.2 0 -3.62253e+06 14211.6 0 -3.62902e+06 13123.1 0 -3.63502e+06 11943.2 0 -3.64048e+06 10675.3 0 -3.64534e+06 9324.49 0 -3.64956e+06 7897.81 0 -3.65308e+06 6404.27 0 -3.65586e+06 4854.65 0 -3.65787e+06 3261.41 0 -3.65909e+06 1638.3 0 -3.6595e+06 3.71831e-07 0 -3.83896e+06 0 0 -3.72276e+06 169400 0 -3.60691e+06 193906 0 -3.53928e+06 185455 0 -3.49467e+06 169955 0 -3.46349e+06 155030 0 -3.43985e+06 140866 0 -3.42121e+06 128217 0 -3.40587e+06 116740 0 -3.39288e+06 106450 0 -3.38159e+06 97146.5 0 -3.37161e+06 88746.8 0 -3.36262e+06 81130.7 0 -3.35444e+06 74220.3 0 -3.34691e+06 67935.9 0 -3.33994e+06 62215.6 0 -3.33344e+06 57002.4 0 -3.32735e+06 52248.3 0 -3.32163e+06 47910.2 0 -3.31625e+06 43950.6 0 -3.31118e+06 40335.9 0 -3.30641e+06 37036.3 0 -3.3019e+06 34024.8 0 -3.29765e+06 31277.4 0 -3.29365e+06 28772.3 0 -3.28988e+06 26489.7 0 -3.28635e+06 24411.9 0 -3.28303e+06 22522.5 0 -3.27993e+06 20806.7 0 -3.27704e+06 19251 0 -3.27435e+06 17842.9 0 -3.27186e+06 16571.1 0 -3.26956e+06 15425.3 0 -3.26745e+06 14395.9 0 -3.26553e+06 13474.1 0 -3.26379e+06 12651.8 0 -3.26223e+06 11921.7 0 -3.26085e+06 11276.8 0 -3.25963e+06 10710.8 0 -3.25859e+06 10218 0 -3.25772e+06 9792.81 0 -3.25702e+06 9430.42 0 -3.25647e+06 9126.17 0 -3.25609e+06 8875.81 0 -3.25588e+06 8675.41 0 -3.25582e+06 8521.31 0 -3.25591e+06 8410.15 0 -3.25617e+06 8338.81 0 -3.25657e+06 8304.37 0 -3.25714e+06 8304.16 0 -3.25785e+06 8335.69 0 -3.25872e+06 8396.65 0 -3.25973e+06 8484.89 0 -3.2609e+06 8598.42 0 -3.26222e+06 8735.39 0 -3.26369e+06 8894.09 0 -3.2653e+06 9072.91 0 -3.26706e+06 9270.36 0 -3.26897e+06 9485.05 0 -3.27103e+06 9715.7 0 -3.27324e+06 9961.09 0 -3.27559e+06 10220.1 0 -3.27809e+06 10491.6 0 -3.28073e+06 10774.8 0 -3.28353e+06 11068.5 0 -3.28647e+06 11372 0 -3.28955e+06 11684.4 0 -3.29278e+06 12004.9 0 -3.29617e+06 12332.8 0 -3.29969e+06 12667.3 0 -3.30337e+06 13007.7 0 -3.30719e+06 13353.5 0 -3.31116e+06 13703.8 0 -3.31528e+06 14058.2 0 -3.31955e+06 14415.9 0 -3.32397e+06 14776.3 0 -3.32854e+06 15138.8 0 -3.33326e+06 15502.9 0 -3.33813e+06 15867.7 0 -3.34315e+06 16232.7 0 -3.34832e+06 16597.3 0 -3.35364e+06 16960.6 0 -3.35912e+06 17322 0 -3.36475e+06 17680.7 0 -3.37053e+06 18035.9 0 -3.37646e+06 18386.8 0 -3.38255e+06 18732.3 0 -3.3888e+06 19071.5 0 -3.39519e+06 19403.3 0 -3.40174e+06 19726.7 0 -3.40844e+06 20040.2 0 -3.41529e+06 20342.5 0 -3.4223e+06 20632.2 0 -3.42945e+06 20907.6 0 -3.43675e+06 21167 0 -3.44419e+06 21408.4 0 -3.45177e+06 21629.7 0 -3.45949e+06 21828.6 0 -3.46734e+06 22002.5 0 -3.47532e+06 22148.8 0 -3.48342e+06 22264.3 0 -3.49163e+06 22346 0 -3.49994e+06 22390.2 0 -3.50834e+06 22393.1 0 -3.51681e+06 22350.7 0 -3.52535e+06 22258.5 0 -3.53392e+06 22112 0 -3.54252e+06 21906.1 0 -3.55112e+06 21635.9 0 -3.55968e+06 21296 0 -3.56819e+06 20881.1 0 -3.5766e+06 20385.7 0 -3.58488e+06 19804.7 0 -3.59299e+06 19133.2 0 -3.60087e+06 18366.6 0 -3.6085e+06 17501.3 0 -3.6158e+06 16534.3 0 -3.62273e+06 15464.1 0 -3.62924e+06 14290.5 0 -3.63526e+06 13014.8 0 -3.64073e+06 11640.7 0 -3.64561e+06 10173.7 0 -3.64984e+06 8621.51 0 -3.65337e+06 6994.11 0 -3.65617e+06 5303.59 0 -3.65819e+06 3563.9 0 -3.65941e+06 1790.51 0 -3.65982e+06 -7.39703e-07 0 -3.79331e+06 0 0 -3.70821e+06 145707 0 -3.60673e+06 178437 0 -3.54138e+06 175402 0 -3.4974e+06 163200 0 -3.46607e+06 149970 0 -3.44227e+06 136990 0 -3.4234e+06 125054 0 -3.40785e+06 114110 0 -3.39467e+06 104183 0 -3.38322e+06 95161.1 0 -3.37308e+06 86971.3 0 -3.36396e+06 79524.1 0 -3.35566e+06 72748.6 0 -3.34802e+06 66577.3 0 -3.34095e+06 60952.5 0 -3.33436e+06 55822.5 0 -3.32819e+06 51142 0 -3.3224e+06 46870.3 0 -3.31695e+06 42971.4 0 -3.31182e+06 39413 0 -3.30699e+06 36166.1 0 -3.30243e+06 33204.4 0 -3.29814e+06 30504.4 0 -3.29409e+06 28044.7 0 -3.29029e+06 25805.9 0 -3.28671e+06 23770.2 0 -3.28336e+06 21921.6 0 -3.28023e+06 20245.4 0 -3.27731e+06 18728.2 0 -3.2746e+06 17357.7 0 -3.27208e+06 16122.7 0 -3.26976e+06 15012.7 0 -3.26763e+06 14018.5 0 -3.26569e+06 13131.1 0 -3.26393e+06 12342.7 0 -3.26236e+06 11645.7 0 -3.26096e+06 11033.5 0 -3.25973e+06 10499.7 0 -3.25868e+06 10038.5 0 -3.25779e+06 9644.67 0 -3.25708e+06 9313.14 0 -3.25652e+06 9039.38 0 -3.25613e+06 8819.18 0 -3.25591e+06 8648.61 0 -3.25584e+06 8524.06 0 -3.25593e+06 8442.18 0 -3.25617e+06 8399.87 0 -3.25657e+06 8394.25 0 -3.25713e+06 8422.65 0 -3.25784e+06 8482.61 0 -3.2587e+06 8571.83 0 -3.25971e+06 8688.18 0 -3.26088e+06 8829.69 0 -3.26219e+06 8994.53 0 -3.26365e+06 9180.98 0 -3.26526e+06 9387.47 0 -3.26702e+06 9612.51 0 -3.26893e+06 9854.74 0 -3.27099e+06 10112.9 0 -3.27319e+06 10385.7 0 -3.27554e+06 10672.1 0 -3.27803e+06 10971 0 -3.28068e+06 11281.5 0 -3.28347e+06 11602.6 0 -3.28641e+06 11933.5 0 -3.28949e+06 12273.3 0 -3.29272e+06 12621.2 0 -3.2961e+06 12976.6 0 -3.29963e+06 13338.6 0 -3.3033e+06 13706.6 0 -3.30712e+06 14080 0 -3.31109e+06 14458 0 -3.31521e+06 14840.1 0 -3.31948e+06 15225.6 0 -3.3239e+06 15614 0 -3.32847e+06 16004.5 0 -3.33319e+06 16396.6 0 -3.33805e+06 16789.6 0 -3.34307e+06 17182.8 0 -3.34825e+06 17575.7 0 -3.35357e+06 17967.4 0 -3.35905e+06 18357.3 0 -3.36468e+06 18744.6 0 -3.37046e+06 19128.3 0 -3.3764e+06 19507.8 0 -3.38249e+06 19881.9 0 -3.38873e+06 20249.8 0 -3.39513e+06 20610.2 0 -3.40168e+06 20962 0 -3.40838e+06 21303.9 0 -3.41524e+06 21634.4 0 -3.42224e+06 21952 0 -3.4294e+06 22255 0 -3.4367e+06 22541.5 0 -3.44414e+06 22809.6 0 -3.45173e+06 23056.8 0 -3.45946e+06 23280.8 0 -3.46731e+06 23478.9 0 -3.4753e+06 23648.2 0 -3.4834e+06 23785.3 0 -3.49162e+06 23886.8 0 -3.49993e+06 23948.8 0 -3.50834e+06 23967.3 0 -3.51682e+06 23937.7 0 -3.52537e+06 23855.2 0 -3.53396e+06 23714.7 0 -3.54256e+06 23510.8 0 -3.55117e+06 23237.8 0 -3.55975e+06 22889.7 0 -3.56827e+06 22460.6 0 -3.5767e+06 21944.5 0 -3.585e+06 21335.3 0 -3.59312e+06 20627.5 0 -3.60103e+06 19816 0 -3.60867e+06 18896.3 0 -3.616e+06 17865.1 0 -3.62295e+06 16720.3 0 -3.62948e+06 15461.4 0 -3.63551e+06 14089.9 0 -3.64101e+06 12609.4 0 -3.64591e+06 11025.9 0 -3.65015e+06 9347.83 0 -3.6537e+06 7586.15 0 -3.6565e+06 5754.24 0 -3.65853e+06 3867.55 0 -3.65976e+06 1943.32 0 -3.66017e+06 1.49151e-06 0 -3.7579e+06 0 0 -3.69355e+06 126224 0 -3.60514e+06 164014 0 -3.54278e+06 165623 0 -3.49968e+06 156462 0 -3.46841e+06 144905 0 -3.44452e+06 133073 0 -3.42547e+06 121859 0 -3.40975e+06 111443 0 -3.3964e+06 101886 0 -3.3848e+06 93146.2 0 -3.37452e+06 85170.3 0 -3.36527e+06 77894 0 -3.35685e+06 71256.2 0 -3.34911e+06 65199.6 0 -3.34194e+06 59672.2 0 -3.33526e+06 54627 0 -3.32902e+06 50021.5 0 -3.32315e+06 45817.4 0 -3.31764e+06 41980.4 0 -3.31245e+06 38479.3 0 -3.30756e+06 35286 0 -3.30295e+06 32375 0 -3.29861e+06 29723.2 0 -3.29452e+06 27309.5 0 -3.29068e+06 25114.9 0 -3.28707e+06 23121.9 0 -3.28369e+06 21314.7 0 -3.28053e+06 19678.6 0 -3.27758e+06 18200.4 0 -3.27484e+06 16867.8 0 -3.2723e+06 15669.9 0 -3.26995e+06 14596.2 0 -3.2678e+06 13637.3 0 -3.26584e+06 12784.7 0 -3.26407e+06 12030.3 0 -3.26247e+06 11366.8 0 -3.26106e+06 10787.5 0 -3.25982e+06 10286.1 0 -3.25875e+06 9856.8 0 -3.25786e+06 9494.36 0 -3.25713e+06 9193.85 0 -3.25657e+06 8950.74 0 -3.25617e+06 8760.82 0 -3.25593e+06 8620.21 0 -3.25585e+06 8525.32 0 -3.25594e+06 8472.83 0 -3.25617e+06 8459.65 0 -3.25657e+06 8482.94 0 -3.25712e+06 8540.04 0 -3.25782e+06 8628.5 0 -3.25868e+06 8746.06 0 -3.25969e+06 8890.6 0 -3.26084e+06 9060.15 0 -3.26215e+06 9252.91 0 -3.26361e+06 9467.18 0 -3.26522e+06 9701.39 0 -3.26698e+06 9954.07 0 -3.26888e+06 10223.9 0 -3.27093e+06 10509.5 0 -3.27313e+06 10809.8 0 -3.27548e+06 11123.7 0 -3.27797e+06 11450 0 -3.28062e+06 11787.9 0 -3.2834e+06 12136.4 0 -3.28634e+06 12494.7 0 -3.28942e+06 12862 0 -3.29265e+06 13237.4 0 -3.29603e+06 13620.2 0 -3.29956e+06 14009.7 0 -3.30323e+06 14405.3 0 -3.30705e+06 14806.3 0 -3.31102e+06 15212.1 0 -3.31514e+06 15621.9 0 -3.31941e+06 16035.3 0 -3.32382e+06 16451.6 0 -3.32839e+06 16870.1 0 -3.33311e+06 17290.3 0 -3.33798e+06 17711.4 0 -3.343e+06 18133 0 -3.34817e+06 18554.2 0 -3.3535e+06 18974.3 0 -3.35897e+06 19392.7 0 -3.3646e+06 19808.5 0 -3.37039e+06 20220.9 0 -3.37632e+06 20629 0 -3.38242e+06 21031.8 0 -3.38866e+06 21428.3 0 -3.39506e+06 21817.3 0 -3.40161e+06 22197.7 0 -3.40832e+06 22567.9 0 -3.41517e+06 22926.7 0 -3.42218e+06 23272.3 0 -3.42934e+06 23603 0 -3.43664e+06 23916.7 0 -3.44409e+06 24211.4 0 -3.45168e+06 24484.7 0 -3.45941e+06 24734 0 -3.46728e+06 24956.4 0 -3.47527e+06 25148.7 0 -3.48338e+06 25307.5 0 -3.4916e+06 25428.9 0 -3.49992e+06 25509 0 -3.50834e+06 25543.2 0 -3.51683e+06 25526.5 0 -3.52539e+06 25453.9 0 -3.53399e+06 25319.7 0 -3.54261e+06 25117.8 0 -3.55123e+06 24842.2 0 -3.55983e+06 24486.2 0 -3.56836e+06 24043.2 0 -3.57681e+06 23506.5 0 -3.58512e+06 22869.3 0 -3.59327e+06 22125.5 0 -3.6012e+06 21269.1 0 -3.60886e+06 20295.2 0 -3.61621e+06 19199.8 0 -3.62318e+06 17980.4 0 -3.62973e+06 16636.3 0 -3.63579e+06 15168.8 0 -3.6413e+06 13581.7 0 -3.64622e+06 11881.4 0 -3.65048e+06 10077.1 0 -3.65404e+06 8180.65 0 -3.65686e+06 6206.79 0 -3.6589e+06 4172.52 0 -3.66013e+06 2096.8 0 -3.66055e+06 -1.01421e-06 0 -3.72937e+06 0 0 -3.67938e+06 110171 0 -3.60247e+06 150682 0 -3.54356e+06 156193 0 -3.50154e+06 149779 0 -3.4705e+06 139854 0 -3.4466e+06 129127 0 -3.42743e+06 118638 0 -3.41157e+06 108744 0 -3.39808e+06 99560.7 0 -3.38633e+06 91104.2 0 -3.37592e+06 83345.4 0 -3.36655e+06 76241.6 0 -3.35802e+06 69743.6 0 -3.35018e+06 63803.5 0 -3.34292e+06 58375.3 0 -3.33615e+06 53416.2 0 -3.32983e+06 48887 0 -3.3239e+06 44751.8 0 -3.31832e+06 40977.7 0 -3.31307e+06 37534.9 0 -3.30812e+06 34396.1 0 -3.30347e+06 31536.6 0 -3.29908e+06 28933.6 0 -3.29495e+06 26566.7 0 -3.29107e+06 24417 0 -3.28742e+06 22467.3 0 -3.28401e+06 20701.8 0 -3.28081e+06 19106.3 0 -3.27784e+06 17667.5 0 -3.27507e+06 16373.3 0 -3.2725e+06 15212.7 0 -3.27014e+06 14175.6 0 -3.26797e+06 13252.5 0 -3.26599e+06 12434.9 0 -3.2642e+06 11714.8 0 -3.26259e+06 11085 0 -3.26116e+06 10538.8 0 -3.2599e+06 10069.9 0 -3.25882e+06 9672.73 0 -3.25792e+06 9341.9 0 -3.25718e+06 9072.57 0 -3.2566e+06 8860.24 0 -3.25619e+06 8700.74 0 -3.25595e+06 8590.22 0 -3.25586e+06 8525.11 0 -3.25594e+06 8502.12 0 -3.25617e+06 8518.17 0 -3.25656e+06 8570.46 0 -3.2571e+06 8656.34 0 -3.2578e+06 8773.39 0 -3.25865e+06 8919.36 0 -3.25965e+06 9092.14 0 -3.26081e+06 9289.81 0 -3.26211e+06 9510.54 0 -3.26357e+06 9752.68 0 -3.26517e+06 10014.7 0 -3.26692e+06 10295 0 -3.26883e+06 10592.4 0 -3.27088e+06 10905.6 0 -3.27307e+06 11233.5 0 -3.27542e+06 11574.8 0 -3.27791e+06 11928.6 0 -3.28055e+06 12293.9 0 -3.28334e+06 12669.9 0 -3.28627e+06 13055.6 0 -3.28935e+06 13450.3 0 -3.29258e+06 13853.2 0 -3.29596e+06 14263.5 0 -3.29948e+06 14680.7 0 -3.30315e+06 15103.9 0 -3.30697e+06 15532.5 0 -3.31094e+06 15966 0 -3.31506e+06 16403.7 0 -3.31933e+06 16844.9 0 -3.32374e+06 17289.1 0 -3.32831e+06 17735.6 0 -3.33303e+06 18183.9 0 -3.3379e+06 18633.3 0 -3.34292e+06 19083.1 0 -3.34809e+06 19532.7 0 -3.35341e+06 19981.3 0 -3.35889e+06 20428.2 0 -3.36452e+06 20872.6 0 -3.37031e+06 21313.6 0 -3.37625e+06 21750.4 0 -3.38234e+06 22181.9 0 -3.38858e+06 22607.1 0 -3.39498e+06 23024.8 0 -3.40154e+06 23433.7 0 -3.40825e+06 23832.4 0 -3.4151e+06 24219.5 0 -3.42211e+06 24593.1 0 -3.42928e+06 24951.5 0 -3.43658e+06 25292.6 0 -3.44404e+06 25614.1 0 -3.45163e+06 25913.5 0 -3.45937e+06 26188.1 0 -3.46723e+06 26434.8 0 -3.47523e+06 26650.3 0 -3.48335e+06 26830.9 0 -3.49158e+06 26972.5 0 -3.49991e+06 27070.8 0 -3.50834e+06 27120.8 0 -3.51684e+06 27117.3 0 -3.52541e+06 27054.7 0 -3.53402e+06 26927 0 -3.54265e+06 26727.5 0 -3.55129e+06 26449.4 0 -3.5599e+06 26085.8 0 -3.56846e+06 25629.1 0 -3.57692e+06 25072 0 -3.58525e+06 24407.1 0 -3.59342e+06 23627.4 0 -3.60137e+06 22726.3 0 -3.60906e+06 21698.3 0 -3.61643e+06 20538.8 0 -3.62343e+06 19244.9 0 -3.63e+06 17815.4 0 -3.63608e+06 16251.8 0 -3.64162e+06 14557.9 0 -3.64656e+06 12740.5 0 -3.65084e+06 10809.5 0 -3.65442e+06 8777.84 0 -3.65725e+06 6661.46 0 -3.6593e+06 4478.93 0 -3.66054e+06 2251.01 0 -3.66095e+06 5.7742e-08 0 -3.7057e+06 0 0 -3.66598e+06 96872.4 0 -3.599e+06 138450 0 -3.54377e+06 147156 0 -3.50302e+06 143193 0 -3.47235e+06 134832 0 -3.44851e+06 125169 0 -3.42928e+06 115399 0 -3.41331e+06 106019 0 -3.39969e+06 97210.8 0 -3.38782e+06 89037.6 0 -3.37729e+06 81497.8 0 -3.3678e+06 74568 0 -3.35917e+06 68211.6 0 -3.35123e+06 62389.6 0 -3.34387e+06 57062 0 -3.33703e+06 52190.5 0 -3.33063e+06 47738.9 0 -3.32463e+06 43673.7 0 -3.31899e+06 39963.5 0 -3.31368e+06 36579.9 0 -3.30868e+06 33496.5 0 -3.30397e+06 30689.2 0 -3.29954e+06 28135.9 0 -3.29536e+06 25816.4 0 -3.29144e+06 23712.1 0 -3.28776e+06 21806.2 0 -3.28431e+06 20083.1 0 -3.28109e+06 18528.5 0 -3.27809e+06 17129.5 0 -3.27529e+06 15874.1 0 -3.2727e+06 14751.3 0 -3.27032e+06 13751 0 -3.26813e+06 12864 0 -3.26613e+06 12081.6 0 -3.26432e+06 11396.2 0 -3.26269e+06 10800.3 0 -3.26125e+06 10287.4 0 -3.25998e+06 9851.31 0 -3.25889e+06 9486.36 0 -3.25797e+06 9187.31 0 -3.25722e+06 8949.31 0 -3.25664e+06 8767.91 0 -3.25622e+06 8638.97 0 -3.25596e+06 8558.66 0 -3.25587e+06 8523.44 0 -3.25594e+06 8530.04 0 -3.25616e+06 8575.43 0 -3.25654e+06 8656.81 0 -3.25708e+06 8771.56 0 -3.25777e+06 8917.27 0 -3.25862e+06 9091.72 0 -3.25962e+06 9292.82 0 -3.26077e+06 9518.66 0 -3.26207e+06 9767.43 0 -3.26352e+06 10037.5 0 -3.26512e+06 10327.3 0 -3.26687e+06 10635.4 0 -3.26877e+06 10960.5 0 -3.27081e+06 11301.3 0 -3.27301e+06 11656.6 0 -3.27535e+06 12025.5 0 -3.27784e+06 12406.8 0 -3.28048e+06 12799.6 0 -3.28326e+06 13203 0 -3.28619e+06 13616.2 0 -3.28927e+06 14038.4 0 -3.2925e+06 14468.8 0 -3.29588e+06 14906.7 0 -3.2994e+06 15351.4 0 -3.30307e+06 15802.2 0 -3.30689e+06 16258.5 0 -3.31086e+06 16719.8 0 -3.31498e+06 17185.2 0 -3.31924e+06 17654.4 0 -3.32366e+06 18126.5 0 -3.32822e+06 18601.1 0 -3.33294e+06 19077.5 0 -3.33781e+06 19555.1 0 -3.34283e+06 20033.2 0 -3.348e+06 20511.2 0 -3.35333e+06 20988.3 0 -3.35881e+06 21463.7 0 -3.36444e+06 21936.7 0 -3.37022e+06 22406.5 0 -3.37616e+06 22871.9 0 -3.38226e+06 23332.2 0 -3.3885e+06 23786.1 0 -3.3949e+06 24232.5 0 -3.40146e+06 24670.1 0 -3.40817e+06 25097.3 0 -3.41503e+06 25512.7 0 -3.42204e+06 25914.4 0 -3.42921e+06 26300.6 0 -3.43652e+06 26669.1 0 -3.44398e+06 27017.5 0 -3.45158e+06 27343.1 0 -3.45932e+06 27643.2 0 -3.46719e+06 27914.4 0 -3.47519e+06 28153.2 0 -3.48332e+06 28355.7 0 -3.49155e+06 28517.6 0 -3.4999e+06 28634.2 0 -3.50833e+06 28700.3 0 -3.51684e+06 28710.2 0 -3.52542e+06 28657.9 0 -3.53405e+06 28536.7 0 -3.5427e+06 28339.8 0 -3.55135e+06 28059.7 0 -3.55998e+06 27688.5 0 -3.56855e+06 27218.4 0 -3.57703e+06 26641.2 0 -3.58539e+06 25948.8 0 -3.59358e+06 25133.5 0 -3.60156e+06 24188 0 -3.60927e+06 23106 0 -3.61666e+06 21882.5 0 -3.62369e+06 20514 0 -3.63029e+06 18999.3 0 -3.6364e+06 17339.4 0 -3.64196e+06 15538.4 0 -3.64692e+06 13603.6 0 -3.65122e+06 11545.4 0 -3.65482e+06 9377.98 0 -3.65766e+06 7118.43 0 -3.65972e+06 4786.93 0 -3.66097e+06 2406.03 0 -3.66139e+06 -3.07336e-08 0 -3.68562e+06 0 0 -3.65346e+06 85775.7 0 -3.59497e+06 127289 0 -3.54349e+06 138537 0 -3.50415e+06 136739 0 -3.47398e+06 129856 0 -3.45027e+06 121209 0 -3.43102e+06 112146 0 -3.41497e+06 103273 0 -3.40124e+06 94838.9 0 -3.38926e+06 86948.8 0 -3.37862e+06 79629 0 -3.36903e+06 72874.5 0 -3.36029e+06 66661.1 0 -3.35225e+06 60958.6 0 -3.34482e+06 55732.9 0 -3.33789e+06 50950.2 0 -3.33141e+06 46577.4 0 -3.32534e+06 42583.2 0 -3.31964e+06 38938 0 -3.31427e+06 35614.5 0 -3.30922e+06 32587.3 0 -3.30446e+06 29833 0 -3.29999e+06 27330 0 -3.29577e+06 25058.5 0 -3.29181e+06 23000.3 0 -3.2881e+06 21138.7 0 -3.28462e+06 19458.4 0 -3.28136e+06 17945.4 0 -3.27833e+06 16586.6 0 -3.27551e+06 15370.3 0 -3.2729e+06 14285.6 0 -3.27049e+06 13322.5 0 -3.26828e+06 12471.8 0 -3.2662