<?xml version="1.0"?> 
<VTKFile type="StructuredGrid" version="0.1"> 
<StructuredGrid WholeExtent="0 127 0 127 0 0"> 
<Piece Extent="0 127 0 127 0 0"> 
<PointData>
<DataArray type="Float32" Name="E" format="ascii" NumberOfComponents="3"> 
-4.70582e+06 -3.18417e+06 0 -3.95458e+06 -4.51892e+06 0 -3.71806e+06 -3.98041e+06 0 -3.59474e+06 -3.35366e+06 0 -3.53625e+06 -2.90666e+06 0 -3.49685e+06 -2.64087e+06 0 -3.46547e+06 -2.44105e+06 0 -3.43894e+06 -2.26417e+06 0 -3.4173e+06 -2.1046e+06 0 -3.39929e+06 -1.96681e+06 0 -3.3837e+06 -1.84701e+06 0 -3.36977e+06 -1.73975e+06 0 -3.35723e+06 -1.64141e+06 0 -3.34587e+06 -1.55073e+06 0 -3.33551e+06 -1.46686e+06 0 -3.32596e+06 -1.38881e+06 0 -3.31711e+06 -1.31559e+06 0 -3.30888e+06 -1.24649e+06 0 -3.30121e+06 -1.18099e+06 0 -3.29403e+06 -1.11865e+06 0 -3.28732e+06 -1.0591e+06 0 -3.28102e+06 -1.002e+06 0 -3.27511e+06 -947067 0 -3.26956e+06 -894073 0 -3.26436e+06 -842812 0 -3.25948e+06 -793105 0 -3.25492e+06 -744795 0 -3.25064e+06 -697746 0 -3.24665e+06 -651836 0 -3.24293e+06 -606958 0 -3.23947e+06 -563018 0 -3.23626e+06 -519929 0 -3.23329e+06 -477618 0 -3.23056e+06 -436014 0 -3.22805e+06 -395058 0 -3.22576e+06 -354693 0 -3.22369e+06 -314871 0 -3.22183e+06 -275545 0 -3.22018e+06 -236674 0 -3.21872e+06 -198221 0 -3.21745e+06 -160151 0 -3.21638e+06 -122432 0 -3.21549e+06 -85036.1 0 -3.21479e+06 -47935.7 0 -3.21427e+06 -11106.1 0 -3.21392e+06 25475.6 0 -3.21374e+06 61830.9 0 -3.21374e+06 97979.8 0 -3.2139e+06 133941 0 -3.21423e+06 169732 0 -3.21472e+06 205370 0 -3.21538e+06 240871 0 -3.21619e+06 276248 0 -3.21716e+06 311517 0 -3.21829e+06 346692 0 -3.21957e+06 381785 0 -3.221e+06 416808 0 -3.22259e+06 451775 0 -3.22433e+06 486697 0 -3.22621e+06 521586 0 -3.22825e+06 556452 0 -3.23043e+06 591307 0 -3.23276e+06 626163 0 -3.23524e+06 661029 0 -3.23786e+06 695916 0 -3.24063e+06 730836 0 -3.24355e+06 765799 0 -3.24661e+06 800816 0 -3.24981e+06 835898 0 -3.25316e+06 871055 0 -3.25665e+06 906298 0 -3.26029e+06 941640 0 -3.26407e+06 977092 0 -3.268e+06 1.01267e+06 0 -3.27207e+06 1.04837e+06 0 -3.27629e+06 1.08423e+06 0 -3.28065e+06 1.12024e+06 0 -3.28516e+06 1.15642e+06 0 -3.28982e+06 1.1928e+06 0 -3.29463e+06 1.22937e+06 0 -3.29958e+06 1.26617e+06 0 -3.30469e+06 1.3032e+06 0 -3.30995e+06 1.34048e+06 0 -3.31537e+06 1.37803e+06 0 -3.32094e+06 1.41587e+06 0 -3.32667e+06 1.45402e+06 0 -3.33256e+06 1.49251e+06 0 -3.33861e+06 1.53136e+06 0 -3.34482e+06 1.57059e+06 0 -3.35121e+06 1.61024e+06 0 -3.35777e+06 1.65032e+06 0 -3.36451e+06 1.69089e+06 0 -3.37143e+06 1.73197e+06 0 -3.37854e+06 1.77361e+06 0 -3.38584e+06 1.81585e+06 0 -3.39335e+06 1.85874e+06 0 -3.40106e+06 1.90233e+06 0 -3.409e+06 1.94668e+06 0 -3.41717e+06 1.99186e+06 0 -3.42558e+06 2.03795e+06 0 -3.43425e+06 2.08503e+06 0 -3.44321e+06 2.1332e+06 0 -3.45245e+06 2.18256e+06 0 -3.46203e+06 2.23323e+06 0 -3.47194e+06 2.28536e+06 0 -3.48225e+06 2.3391e+06 0 -3.49297e+06 2.39464e+06 0 -3.50416e+06 2.45219e+06 0 -3.51587e+06 2.51201e+06 0 -3.52817e+06 2.57438e+06 0 -3.54113e+06 2.63966e+06 0 -3.55486e+06 2.70824e+06 0 -3.56947e+06 2.78065e+06 0 -3.58512e+06 2.85748e+06 0 -3.60198e+06 2.93953e+06 0 -3.6203e+06 3.02752e+06 0 -3.64037e+06 3.12342e+06 0 -3.66263e+06 3.22677e+06 0 -3.68758e+06 3.34375e+06 0 -3.71614e+06 3.47103e+06 0 -3.749e+06 3.61769e+06 0 -3.78895e+06 3.79504e+06 0 -3.83631e+06 3.9819e+06 0 -3.90026e+06 4.25388e+06 0 -3.9834e+06 4.61167e+06 0 -4.11762e+06 4.93185e+06 0 -4.35258e+06 5.79248e+06 0 -5.72293e+06 2.2914e+07 0 -3.73498e+06 -4.40669e+06 0 -3.50192e+06 -3.79316e+06 0 -3.45524e+06 -3.18929e+06 0 -3.45022e+06 -2.80314e+06 0 -3.43523e+06 -2.55748e+06 0 -3.41198e+06 -2.37336e+06 0 -3.39194e+06 -2.20515e+06 0 -3.37674e+06 -2.05549e+06 0 -3.36429e+06 -1.92444e+06 0 -3.35258e+06 -1.80979e+06 0 -3.34151e+06 -1.70633e+06 0 -3.33132e+06 -1.61133e+06 0 -3.32204e+06 -1.52351e+06 0 -3.31344e+06 -1.44206e+06 0 -3.30538e+06 -1.36604e+06 0 -3.2978e+06 -1.29458e+06 0 -3.29068e+06 -1.22701e+06 0 -3.28398e+06 -1.16286e+06 0 -3.27767e+06 -1.10172e+06 0 -3.27172e+06 -1.04323e+06 0 -3.2661e+06 -987075 0 -3.26081e+06 -933000 0 -3.25581e+06 -880781 0 -3.25111e+06 -830224 0 -3.24669e+06 -781161 0 -3.24254e+06 -733441 0 -3.23864e+06 -686936 0 -3.23499e+06 -641530 0 -3.23158e+06 -597121 0 -3.22841e+06 -553618 0 -3.22547e+06 -510940 0 -3.22274e+06 -469014 0 -3.22023e+06 -427774 0 -3.21793e+06 -387163 0 -3.21584e+06 -347126 0 -3.21394e+06 -307617 0 -3.21224e+06 -268590 0 -3.21074e+06 -230006 0 -3.20941e+06 -191829 0 -3.20828e+06 -154026 0 -3.20732e+06 -116565 0 -3.20654e+06 -79419.4 0 -3.20593e+06 -42562.1 0 -3.2055e+06 -5969.4 0 -3.20523e+06 30381.1 0 -3.20513e+06 66510.3 0 -3.20519e+06 102438 0 -3.20542e+06 138182 0 -3.2058e+06 173759 0 -3.20634e+06 209186 0 -3.20704e+06 244479 0 -3.20789e+06 279652 0 -3.20889e+06 314718 0 -3.21004e+06 349692 0 -3.21134e+06 384585 0 -3.21279e+06 419412 0 -3.21439e+06 454182 0 -3.21613e+06 488909 0 -3.21802e+06 523602 0 -3.22005e+06 558275 0 -3.22223e+06 592937 0 -3.22455e+06 627598 0 -3.22701e+06 662271 0 -3.22961e+06 696965 0 -3.23235e+06 731691 0 -3.23524e+06 766459 0 -3.23826e+06 801281 0 -3.24143e+06 836166 0 -3.24473e+06 871125 0 -3.24817e+06 906170 0 -3.25176e+06 941311 0 -3.25548e+06 976561 0 -3.25935e+06 1.01193e+06 0 -3.26335e+06 1.04743e+06 0 -3.2675e+06 1.08307e+06 0 -3.27179e+06 1.11888e+06 0 -3.27622e+06 1.15485e+06 0 -3.28079e+06 1.191e+06 0 -3.2855e+06 1.22736e+06 0 -3.29036e+06 1.26393e+06 0 -3.29536e+06 1.30072e+06 0 -3.30051e+06 1.33777e+06 0 -3.30581e+06 1.37508e+06 0 -3.31126e+06 1.41268e+06 0 -3.31685e+06 1.45058e+06 0 -3.3226e+06 1.48881e+06 0 -3.3285e+06 1.52739e+06 0 -3.33456e+06 1.56635e+06 0 -3.34078e+06 1.60571e+06 0 -3.34717e+06 1.6455e+06 0 -3.35371e+06 1.68577e+06 0 -3.36043e+06 1.72654e+06 0 -3.36733e+06 1.76785e+06 0 -3.3744e+06 1.80974e+06 0 -3.38166e+06 1.85227e+06 0 -3.38912e+06 1.89548e+06 0 -3.39677e+06 1.93944e+06 0 -3.40464e+06 1.9842e+06 0 -3.41273e+06 2.02985e+06 0 -3.42104e+06 2.07646e+06 0 -3.42961e+06 2.12412e+06 0 -3.43844e+06 2.17293e+06 0 -3.44755e+06 2.22302e+06 0 -3.45696e+06 2.27452e+06 0 -3.46671e+06 2.32757e+06 0 -3.47681e+06 2.38236e+06 0 -3.48731e+06 2.43909e+06 0 -3.49825e+06 2.49799e+06 0 -3.50967e+06 2.55935e+06 0 -3.52165e+06 2.62348e+06 0 -3.53425e+06 2.69078e+06 0 -3.54756e+06 2.76172e+06 0 -3.56169e+06 2.83687e+06 0 -3.57678e+06 2.91691e+06 0 -3.59298e+06 3.00276e+06 0 -3.61056e+06 3.09545e+06 0 -3.6297e+06 3.19639e+06 0 -3.6508e+06 3.30785e+06 0 -3.67467e+06 3.43108e+06 0 -3.70064e+06 3.57216e+06 0 -3.73264e+06 3.73343e+06 0 -3.76843e+06 3.92182e+06 0 -3.80708e+06 4.16232e+06 0 -3.88368e+06 4.45745e+06 0 -3.89267e+06 4.8331e+06 0 -4.13784e+06 5.72039e+06 0 -3.63993e+06 7.01821e+06 0 52446.3 5.90693e+06 0 -3.31814e+06 -3.53642e+06 0 -3.3618e+06 -2.97725e+06 0 -3.38999e+06 -2.67215e+06 0 -3.38166e+06 -2.47788e+06 0 -3.36223e+06 -2.30903e+06 0 -3.34858e+06 -2.14815e+06 0 -3.33995e+06 -2.00429e+06 0 -3.33203e+06 -1.88054e+06 0 -3.32334e+06 -1.77142e+06 0 -3.31463e+06 -1.6722e+06 0 -3.3066e+06 -1.58038e+06 0 -3.29921e+06 -1.49535e+06 0 -3.2922e+06 -1.41634e+06 0 -3.28546e+06 -1.34242e+06 0 -3.27903e+06 -1.27274e+06 0 -3.27293e+06 -1.20672e+06 0 -3.26714e+06 -1.14394e+06 0 -3.26164e+06 -1.08402e+06 0 -3.2564e+06 -1.02661e+06 0 -3.25142e+06 -971428 0 -3.24671e+06 -918226 0 -3.24224e+06 -866798 0 -3.23801e+06 -816961 0 -3.23402e+06 -768556 0 -3.23026e+06 -721441 0 -3.22673e+06 -675493 0 -3.22341e+06 -630603 0 -3.2203e+06 -586674 0 -3.21741e+06 -543619 0 -3.21472e+06 -501361 0 -3.21223e+06 -459830 0 -3.20994e+06 -418964 0 -3.20784e+06 -378706 0 -3.20594e+06 -339005 0 -3.20421e+06 -299815 0 -3.20267e+06 -261095 0 -3.20131e+06 -222805 0 -3.20012e+06 -184910 0 -3.19911e+06 -147379 0 -3.19827e+06 -110182 0 -3.1976e+06 -73291.4 0 -3.19709e+06 -36682 0 -3.19674e+06 -330.576 0 -3.19656e+06 35784.6 0 -3.19653e+06 71683.8 0 -3.19666e+06 107386 0 -3.19694e+06 142909 0 -3.19738e+06 178269 0 -3.19797e+06 213483 0 -3.19871e+06 248566 0 -3.1996e+06 283531 0 -3.20063e+06 318392 0 -3.20181e+06 353162 0 -3.20313e+06 387855 0 -3.2046e+06 422482 0 -3.20621e+06 457054 0 -3.20796e+06 491583 0 -3.20985e+06 526081 0 -3.21188e+06 560558 0 -3.21405e+06 595025 0 -3.21636e+06 629493 0 -3.2188e+06 663971 0 -3.22138e+06 698471 0 -3.2241e+06 733002 0 -3.22696e+06 767575 0 -3.22995e+06 802201 0 -3.23308e+06 836889 0 -3.23634e+06 871651 0 -3.23974e+06 906497 0 -3.24327e+06 941438 0 -3.24694e+06 976486 0 -3.25075e+06 1.01165e+06 0 -3.25469e+06 1.04695e+06 0 -3.25877e+06 1.08238e+06 0 -3.26298e+06 1.11797e+06 0 -3.26733e+06 1.15373e+06 0 -3.27182e+06 1.18967e+06 0 -3.27644e+06 1.2258e+06 0 -3.2812e+06 1.26215e+06 0 -3.28611e+06 1.29872e+06 0 -3.29115e+06 1.33553e+06 0 -3.29633e+06 1.37261e+06 0 -3.30166e+06 1.40996e+06 0 -3.30712e+06 1.44761e+06 0 -3.31274e+06 1.48559e+06 0 -3.3185e+06 1.5239e+06 0 -3.3244e+06 1.56259e+06 0 -3.33046e+06 1.60168e+06 0 -3.33667e+06 1.64119e+06 0 -3.34304e+06 1.68115e+06 0 -3.34957e+06 1.72161e+06 0 -3.35626e+06 1.7626e+06 0 -3.36311e+06 1.80416e+06 0 -3.37014e+06 1.84633e+06 0 -3.37734e+06 1.88918e+06 0 -3.38472e+06 1.93275e+06 0 -3.3923e+06 1.97711e+06 0 -3.40007e+06 2.02232e+06 0 -3.40805e+06 2.06847e+06 0 -3.41625e+06 2.11564e+06 0 -3.42468e+06 2.16393e+06 0 -3.43335e+06 2.21345e+06 0 -3.44229e+06 2.26434e+06 0 -3.45151e+06 2.31673e+06 0 -3.46103e+06 2.37079e+06 0 -3.47088e+06 2.42673e+06 0 -3.4811e+06 2.48475e+06 0 -3.49171e+06 2.54513e+06 0 -3.50277e+06 2.60817e+06 0 -3.51433e+06 2.67424e+06 0 -3.52645e+06 2.74378e+06 0 -3.53921e+06 2.81731e+06 0 -3.55269e+06 2.89549e+06 0 -3.567e+06 2.97915e+06 0 -3.58233e+06 3.06923e+06 0 -3.59876e+06 3.16709e+06 0 -3.61649e+06 3.27455e+06 0 -3.63622e+06 3.39318e+06 0 -3.65692e+06 3.52767e+06 0 -3.68145e+06 3.68072e+06 0 -3.70862e+06 3.85824e+06 0 -3.73229e+06 4.07899e+06 0 -3.78463e+06 4.34641e+06 0 -3.77837e+06 4.69298e+06 0 -3.86365e+06 5.32229e+06 0 -3.64934e+06 6.17837e+06 0 -1.92432e+06 7.35454e+06 0 -474190 6.02441e+06 0 -3.31696e+06 -2.77432e+06 0 -3.34354e+06 -2.58201e+06 0 -3.32978e+06 -2.41704e+06 0 -3.31474e+06 -2.24786e+06 0 -3.30957e+06 -2.08779e+06 0 -3.30707e+06 -1.95173e+06 0 -3.30232e+06 -1.83635e+06 0 -3.29572e+06 -1.7331e+06 0 -3.28908e+06 -1.63752e+06 0 -3.28307e+06 -1.54871e+06 0 -3.27739e+06 -1.46646e+06 0 -3.27176e+06 -1.38995e+06 0 -3.2662e+06 -1.31812e+06 0 -3.26082e+06 -1.25021e+06 0 -3.25566e+06 -1.18573e+06 0 -3.25071e+06 -1.12433e+06 0 -3.24594e+06 -1.06563e+06 0 -3.24137e+06 -1.00932e+06 0 -3.23699e+06 -955113 0 -3.23282e+06 -902794 0 -3.22885e+06 -852167 0 -3.22507e+06 -803060 0 -3.22149e+06 -755323 0 -3.2181e+06 -708822 0 -3.21491e+06 -663441 0 -3.21191e+06 -619076 0 -3.2091e+06 -575636 0 -3.20647e+06 -533038 0 -3.20403e+06 -491208 0 -3.20177e+06 -450080 0 -3.19969e+06 -409594 0 -3.19779e+06 -369696 0 -3.19606e+06 -330338 0 -3.19451e+06 -291475 0 -3.19312e+06 -253066 0 -3.1919e+06 -215076 0 -3.19085e+06 -177469 0 -3.18996e+06 -140215 0 -3.18923e+06 -103286 0 -3.18866e+06 -66655.3 0 -3.18825e+06 -30298.1 0 -3.18799e+06 5808 0 -3.18789e+06 41684 0 -3.18793e+06 77349.6 0 -3.18813e+06 112823 0 -3.18848e+06 148122 0 -3.18897e+06 183263 0 -3.18961e+06 218260 0 -3.19039e+06 253129 0 -3.19131e+06 287884 0 -3.19238e+06 322538 0 -3.19359e+06 357104 0 -3.19493e+06 391593 0 -3.19642e+06 426018 0 -3.19804e+06 460391 0 -3.1998e+06 494722 0 -3.20169e+06 529022 0 -3.20372e+06 563303 0 -3.20589e+06 597574 0 -3.20819e+06 631846 0 -3.21062e+06 666129 0 -3.21318e+06 700434 0 -3.21588e+06 734770 0 -3.21871e+06 769148 0 -3.22167e+06 803577 0 -3.22476e+06 838069 0 -3.22799e+06 872633 0 -3.23134e+06 907281 0 -3.23483e+06 942022 0 -3.23844e+06 976868 0 -3.24219e+06 1.01183e+06 0 -3.24607e+06 1.04692e+06 0 -3.25008e+06 1.08215e+06 0 -3.25422e+06 1.11753e+06 0 -3.2585e+06 1.15307e+06 0 -3.2629e+06 1.1888e+06 0 -3.26744e+06 1.22471e+06 0 -3.27211e+06 1.26084e+06 0 -3.27692e+06 1.29718e+06 0 -3.28185e+06 1.33376e+06 0 -3.28693e+06 1.3706e+06 0 -3.29213e+06 1.40772e+06 0 -3.29748e+06 1.44512e+06 0 -3.30296e+06 1.48285e+06 0 -3.30858e+06 1.52091e+06 0 -3.31434e+06 1.55933e+06 0 -3.32025e+06 1.59814e+06 0 -3.32629e+06 1.63736e+06 0 -3.33248e+06 1.67704e+06 0 -3.33882e+06 1.71719e+06 0 -3.34531e+06 1.75786e+06 0 -3.35195e+06 1.7991e+06 0 -3.35875e+06 1.84093e+06 0 -3.36571e+06 1.88342e+06 0 -3.37284e+06 1.92661e+06 0 -3.38014e+06 1.97056e+06 0 -3.38761e+06 2.01536e+06 0 -3.39527e+06 2.06106e+06 0 -3.40311e+06 2.10775e+06 0 -3.41116e+06 2.15553e+06 0 -3.41942e+06 2.20451e+06 0 -3.4279e+06 2.2548e+06 0 -3.43662e+06 2.30655e+06 0 -3.4456e+06 2.35992e+06 0 -3.45484e+06 2.41508e+06 0 -3.46438e+06 2.47226e+06 0 -3.47424e+06 2.5317e+06 0 -3.48445e+06 2.59369e+06 0 -3.49505e+06 2.65858e+06 0 -3.50607e+06 2.72679e+06 0 -3.51757e+06 2.79879e+06 0 -3.5296e+06 2.8752e+06 0 -3.5422e+06 2.95678e+06 0 -3.55551e+06 3.0444e+06 0 -3.56955e+06 3.1393e+06 0 -3.58436e+06 3.24311e+06 0 -3.60044e+06 3.35736e+06 0 -3.61688e+06 3.48579e+06 0 -3.635e+06 3.6314e+06 0 -3.65518e+06 3.79876e+06 0 -3.66906e+06 4.00236e+06 0 -3.6992e+06 4.24744e+06 0 -3.69269e+06 4.55882e+06 0 -3.68921e+06 5.04603e+06 0 -3.58234e+06 5.70289e+06 0 -2.58644e+06 6.68076e+06 0 -1.07582e+06 6.55152e+06 0 -619252 5.84613e+06 0 -3.29301e+06 -2.52696e+06 0 -3.27657e+06 -2.35215e+06 0 -3.27265e+06 -2.17372e+06 0 -3.27664e+06 -2.02266e+06 0 -3.2779e+06 -1.8999e+06 0 -3.27445e+06 -1.79359e+06 0 -3.26943e+06 -1.69474e+06 0 -3.26486e+06 -1.60208e+06 0 -3.26077e+06 -1.51627e+06 0 -3.25657e+06 -1.43697e+06 0 -3.25211e+06 -1.36298e+06 0 -3.24758e+06 -1.29318e+06 0 -3.24317e+06 -1.227e+06 0 -3.23887e+06 -1.16407e+06 0 -3.23468e+06 -1.10406e+06 0 -3.2306e+06 -1.04659e+06 0 -3.22664e+06 -991373 0 -3.22282e+06 -938150 0 -3.21916e+06 -886721 0 -3.21565e+06 -836904 0 -3.21229e+06 -788536 0 -3.2091e+06 -741474 0 -3.20607e+06 -695596 0 -3.20321e+06 -650790 0 -3.20051e+06 -606958 0 -3.19797e+06 -564015 0 -3.19561e+06 -521881 0 -3.1934e+06 -480486 0 -3.19136e+06 -439768 0 -3.18949e+06 -399669 0 -3.18778e+06 -360138 0 -3.18622e+06 -321128 0 -3.18483e+06 -282597 0 -3.1836e+06 -244507 0 -3.18252e+06 -206821 0 -3.1816e+06 -169507 0 -3.18083e+06 -132535 0 -3.18021e+06 -95878.8 0 -3.17974e+06 -59511.8 0 -3.17943e+06 -23410.7 0 -3.17926e+06 12446.2 0 -3.17923e+06 48079.4 0 -3.17935e+06 83508 0 -3.17962e+06 118750 0 -3.18002e+06 153822 0 -3.18057e+06 188739 0 -3.18126e+06 223518 0 -3.18208e+06 258172 0 -3.18305e+06 292714 0 -3.18415e+06 327158 0 -3.18538e+06 361517 0 -3.18675e+06 395801 0 -3.18825e+06 430023 0 -3.18989e+06 464194 0 -3.19166e+06 498326 0 -3.19356e+06 532427 0 -3.19559e+06 566510 0 -3.19775e+06 600584 0 -3.20004e+06 634660 0 -3.20246e+06 668747 0 -3.20501e+06 702856 0 -3.20769e+06 736996 0 -3.21049e+06 771178 0 -3.21342e+06 805411 0 -3.21648e+06 839706 0 -3.21967e+06 874073 0 -3.22298e+06 908522 0 -3.22642e+06 943063 0 -3.22999e+06 977708 0 -3.23368e+06 1.01247e+06 0 -3.2375e+06 1.04735e+06 0 -3.24145e+06 1.08238e+06 0 -3.24552e+06 1.11755e+06 0 -3.24972e+06 1.15288e+06 0 -3.25405e+06 1.18839e+06 0 -3.2585e+06 1.22409e+06 0 -3.26308e+06 1.25999e+06 0 -3.26779e+06 1.29611e+06 0 -3.27263e+06 1.33247e+06 0 -3.2776e+06 1.36907e+06 0 -3.28269e+06 1.40595e+06 0 -3.28791e+06 1.44312e+06 0 -3.29327e+06 1.48059e+06 0 -3.29876e+06 1.51839e+06 0 -3.30437e+06 1.55655e+06 0 -3.31013e+06 1.59509e+06 0 -3.31601e+06 1.63404e+06 0 -3.32203e+06 1.67343e+06 0 -3.32819e+06 1.71328e+06 0 -3.33449e+06 1.75365e+06 0 -3.34093e+06 1.79456e+06 0 -3.34751e+06 1.83605e+06 0 -3.35424e+06 1.87819e+06 0 -3.36111e+06 1.92101e+06 0 -3.36814e+06 1.96458e+06 0 -3.37533e+06 2.00896e+06 0 -3.38267e+06 2.05422e+06 0 -3.39019e+06 2.10045e+06 0 -3.39787e+06 2.14774e+06 0 -3.40574e+06 2.19618e+06 0 -3.41379e+06 2.24591e+06 0 -3.42204e+06 2.29704e+06 0 -3.43049e+06 2.34973e+06 0 -3.43916e+06 2.40415e+06 0 -3.44807e+06 2.46052e+06 0 -3.45722e+06 2.51906e+06 0 -3.46664e+06 2.58005e+06 0 -3.47635e+06 2.64381e+06 0 -3.48636e+06 2.71073e+06 0 -3.4967e+06 2.78127e+06 0 -3.5074e+06 2.856e+06 0 -3.51847e+06 2.93561e+06 0 -3.52996e+06 3.02092e+06 0 -3.54187e+06 3.11303e+06 0 -3.55413e+06 3.21343e+06 0 -3.56702e+06 3.32356e+06 0 -3.57984e+06 3.44648e+06 0 -3.59278e+06 3.58517e+06 0 -3.60674e+06 3.74333e+06 0 -3.61425e+06 3.93226e+06 0 -3.62709e+06 4.15753e+06 0 -3.61908e+06 4.43803e+06 0 -3.57882e+06 4.83749e+06 0 -3.48815e+06 5.36187e+06 0 -2.89519e+06 6.12602e+06 0 -1.69609e+06 6.44069e+06 0 -802957 5.79389e+06 0 -537783 5.28499e+06 0 -3.23005e+06 -2.26308e+06 0 -3.24024e+06 -2.09316e+06 0 -3.24914e+06 -1.96293e+06 0 -3.25054e+06 -1.85342e+06 0 -3.24755e+06 -1.75206e+06 0 -3.2445e+06 -1.65544e+06 0 -3.24217e+06 -1.56564e+06 0 -3.23973e+06 -1.48333e+06 0 -3.23666e+06 -1.40714e+06 0 -3.23317e+06 -1.33552e+06 0 -3.2296e+06 -1.26764e+06 0 -3.22607e+06 -1.20316e+06 0 -3.22257e+06 -1.1418e+06 0 -3.21906e+06 -1.08317e+06 0 -3.2156e+06 -1.02694e+06 0 -3.21221e+06 -972808 0 -3.20891e+06 -920570 0 -3.20572e+06 -870036 0 -3.20264e+06 -821033 0 -3.19969e+06 -773408 0 -3.19686e+06 -727029 0 -3.19417e+06 -681778 0 -3.19161e+06 -637553 0 -3.1892e+06 -594262 0 -3.18694e+06 -551821 0 -3.18481e+06 -510157 0 -3.18284e+06 -469204 0 -3.18101e+06 -428901 0 -3.17934e+06 -389195 0 -3.17781e+06 -350036 0 -3.17643e+06 -311381 0 -3.17519e+06 -273187 0 -3.17411e+06 -235419 0 -3.17316e+06 -198042 0 -3.17237e+06 -161026 0 -3.17172e+06 -124341 0 -3.17121e+06 -87961.4 0 -3.17085e+06 -51862.3 0 -3.17062e+06 -16021.2 0 -3.17054e+06 19583 0 -3.17059e+06 54970.1 0 -3.17079e+06 90158.5 0 -3.17112e+06 125165 0 -3.17158e+06 160007 0 -3.17219e+06 194700 0 -3.17292e+06 229257 0 -3.17379e+06 263692 0 -3.17479e+06 298020 0 -3.17593e+06 332253 0 -3.17719e+06 366402 0 -3.17859e+06 400480 0 -3.18011e+06 434497 0 -3.18176e+06 468465 0 -3.18354e+06 502395 0 -3.18544e+06 536297 0 -3.18748e+06 570181 0 -3.18964e+06 604057 0 -3.19192e+06 637935 0 -3.19433e+06 671826 0 -3.19686e+06 705738 0 -3.19952e+06 739682 0 -3.2023e+06 773668 0 -3.20521e+06 807705 0 -3.20823e+06 841802 0 -3.21138e+06 875971 0 -3.21466e+06 910222 0 -3.21805e+06 944564 0 -3.22157e+06 979008 0 -3.22521e+06 1.01357e+06 0 -3.22898e+06 1.04825e+06 0 -3.23286e+06 1.08306e+06 0 -3.23687e+06 1.11803e+06 0 -3.241e+06 1.15315e+06 0 -3.24525e+06 1.18845e+06 0 -3.24962e+06 1.22393e+06 0 -3.25411e+06 1.25962e+06 0 -3.25873e+06 1.29551e+06 0 -3.26347e+06 1.33164e+06 0 -3.26833e+06 1.36802e+06 0 -3.27332e+06 1.40466e+06 0 -3.27843e+06 1.44159e+06 0 -3.28366e+06 1.47881e+06 0 -3.28901e+06 1.51637e+06 0 -3.29449e+06 1.55427e+06 0 -3.3001e+06 1.59254e+06 0 -3.30583e+06 1.63122e+06 0 -3.31169e+06 1.67032e+06 0 -3.31767e+06 1.70988e+06 0 -3.32378e+06 1.74994e+06 0 -3.33002e+06 1.79054e+06 0 -3.33639e+06 1.8317e+06 0 -3.3429e+06 1.87349e+06 0 -3.34953e+06 1.91596e+06 0 -3.3563e+06 1.95915e+06 0 -3.36321e+06 2.00313e+06 0 -3.37026e+06 2.04797e+06 0 -3.37745e+06 2.09375e+06 0 -3.38479e+06 2.14055e+06 0 -3.39228e+06 2.18848e+06 0 -3.39992e+06 2.23765e+06 0 -3.40772e+06 2.28818e+06 0 -3.41569e+06 2.34022e+06 0 -3.42382e+06 2.39393e+06 0 -3.43213e+06 2.44951e+06 0 -3.44062e+06 2.50719e+06 0 -3.4493e+06 2.56721e+06 0 -3.45817e+06 2.62989e+06 0 -3.46724e+06 2.69559e+06 0 -3.47652e+06 2.76474e+06 0 -3.486e+06 2.83786e+06 0 -3.49567e+06 2.9156e+06 0 -3.50553e+06 2.99873e+06 0 -3.51554e+06 3.08822e+06 0 -3.52556e+06 3.18542e+06 0 -3.53566e+06 3.29171e+06 0 -3.54534e+06 3.40958e+06 0 -3.55412e+06 3.54188e+06 0 -3.56268e+06 3.69173e+06 0 -3.56541e+06 3.8679e+06 0 -3.56631e+06 4.07596e+06 0 -3.55359e+06 4.32979e+06 0 -3.50217e+06 4.66996e+06 0 -3.40502e+06 5.10283e+06 0 -3.02658e+06 5.70463e+06 0 -2.13965e+06 6.14815e+06 0 -1.19707e+06 5.9034e+06 0 -718741 5.33305e+06 0 -499272 4.90548e+06 0 -3.21525e+06 -2.02543e+06 0 -3.22312e+06 -1.91283e+06 0 -3.22337e+06 -1.8085e+06 0 -3.22194e+06 -1.70821e+06 0 -3.22151e+06 -1.6143e+06 0 -3.22112e+06 -1.52875e+06 0 -3.21977e+06 -1.45041e+06 0 -3.21752e+06 -1.37707e+06 0 -3.21492e+06 -1.30755e+06 0 -3.21226e+06 -1.2415e+06 0 -3.20955e+06 -1.17875e+06 0 -3.20674e+06 -1.11897e+06 0 -3.20385e+06 -1.06172e+06 0 -3.20095e+06 -1.00669e+06 0 -3.19808e+06 -953649 0 -3.19527e+06 -902397 0 -3.19252e+06 -852761 0 -3.18984e+06 -804574 0 -3.18726e+06 -757695 0 -3.18477e+06 -712001 0 -3.1824e+06 -667382 0 -3.18014e+06 -623744 0 -3.178e+06 -580997 0 -3.17599e+06 -539064 0 -3.17411e+06 -497875 0 -3.17235e+06 -457369 0 -3.17073e+06 -417487 0 -3.16924e+06 -378178 0 -3.16789e+06 -339397 0 -3.16667e+06 -301100 0 -3.16559e+06 -263248 0 -3.16465e+06 -225807 0 -3.16384e+06 -188744 0 -3.16317e+06 -152029 0 -3.16264e+06 -115635 0 -3.16223e+06 -79535.8 0 -3.16197e+06 -43708.3 0 -3.16184e+06 -8130.6 0 -3.16184e+06 27217.6 0 -3.16197e+06 62355.4 0 -3.16224e+06 97300.6 0 -3.16264e+06 132070 0 -3.16316e+06 166679 0 -3.16382e+06 201143 0 -3.1646e+06 235477 0 -3.16552e+06 269692 0 -3.16656e+06 303803 0 -3.16773e+06 337822 0 -3.16902e+06 371760 0 -3.17044e+06 405629 0 -3.17198e+06 439441 0 -3.17365e+06 473205 0 -3.17544e+06 506932 0 -3.17735e+06 540632 0 -3.17939e+06 574316 0 -3.18154e+06 607993 0 -3.18382e+06 641674 0 -3.18622e+06 675367 0 -3.18874e+06 709082 0 -3.19138e+06 742829 0 -3.19414e+06 776618 0 -3.19702e+06 810458 0 -3.20002e+06 844359 0 -3.20314e+06 878330 0 -3.20637e+06 912382 0 -3.20973e+06 946525 0 -3.2132e+06 980769 0 -3.21679e+06 1.01512e+06 0 -3.22049e+06 1.0496e+06 0 -3.22432e+06 1.08422e+06 0 -3.22826e+06 1.11897e+06 0 -3.23232e+06 1.15389e+06 0 -3.2365e+06 1.18897e+06 0 -3.24079e+06 1.22424e+06 0 -3.2452e+06 1.25971e+06 0 -3.24973e+06 1.29539e+06 0 -3.25438e+06 1.33129e+06 0 -3.25914e+06 1.36744e+06 0 -3.26402e+06 1.40385e+06 0 -3.26901e+06 1.44054e+06 0 -3.27412e+06 1.47752e+06 0 -3.27935e+06 1.51483e+06 0 -3.2847e+06 1.55247e+06 0 -3.29016e+06 1.59049e+06 0 -3.29574e+06 1.62889e+06 0 -3.30144e+06 1.66771e+06 0 -3.30725e+06 1.70699e+06 0 -3.31318e+06 1.74675e+06 0 -3.31923e+06 1.78704e+06 0 -3.3254e+06 1.82788e+06 0 -3.33169e+06 1.86933e+06 0 -3.33809e+06 1.91144e+06 0 -3.34461e+06 1.95426e+06 0 -3.35126e+06 1.99785e+06 0 -3.35802e+06 2.04228e+06 0 -3.3649e+06 2.08762e+06 0 -3.37191e+06 2.13396e+06 0 -3.37904e+06 2.18139e+06 0 -3.38629e+06 2.23002e+06 0 -3.39366e+06 2.27997e+06 0 -3.40116e+06 2.33138e+06 0 -3.40878e+06 2.3844e+06 0 -3.41653e+06 2.43923e+06 0 -3.42439e+06 2.49607e+06 0 -3.43238e+06 2.55517e+06 0 -3.44048e+06 2.61681e+06 0 -3.44868e+06 2.68135e+06 0 -3.45698e+06 2.74917e+06 0 -3.46534e+06 2.82076e+06 0 -3.47374e+06 2.89674e+06 0 -3.48212e+06 2.97779e+06 0 -3.49042e+06 3.06482e+06 0 -3.49844e+06 3.15903e+06 0 -3.50612e+06 3.26171e+06 0 -3.51303e+06 3.37497e+06 0 -3.51841e+06 3.50138e+06 0 -3.52243e+06 3.64371e+06 0 -3.52115e+06 3.80871e+06 0 -3.51419e+06 4.00177e+06 0 -3.49568e+06 4.23301e+06 0 -3.44221e+06 4.52954e+06 0 -3.34076e+06 4.89797e+06 0 -3.07107e+06 5.38173e+06 0 -2.42898e+06 5.83305e+06 0 -1.57657e+06 5.85104e+06 0 -965360 5.4372e+06 0 -673079 5.01798e+06 0 -499146 4.67285e+06 0 -3.19655e+06 -1.86251e+06 0 -3.19734e+06 -1.75954e+06 0 -3.19881e+06 -1.66195e+06 0 -3.20066e+06 -1.57329e+06 0 -3.20135e+06 -1.49269e+06 0 -3.20059e+06 -1.41771e+06 0 -3.1991e+06 -1.34659e+06 0 -3.19741e+06 -1.27897e+06 0 -3.19559e+06 -1.21483e+06 0 -3.19358e+06 -1.15387e+06 0 -3.19136e+06 -1.09564e+06 0 -3.18902e+06 -1.03973e+06 0 -3.18665e+06 -985891 0 -3.18427e+06 -933926 0 -3.18189e+06 -883661 0 -3.17955e+06 -834920 0 -3.17725e+06 -787548 0 -3.17501e+06 -741415 0 -3.17285e+06 -696407 0 -3.17078e+06 -652424 0 -3.1688e+06 -609374 0 -3.16692e+06 -567175 0 -3.16514e+06 -525754 0 -3.16348e+06 -485045 0 -3.16194e+06 -444989 0 -3.16051e+06 -405531 0 -3.15921e+06 -366625 0 -3.15803e+06 -328225 0 -3.15697e+06 -290290 0 -3.15604e+06 -252785 0 -3.15523e+06 -215675 0 -3.15456e+06 -178929 0 -3.15401e+06 -142520 0 -3.15358e+06 -106419 0 -3.15329e+06 -70604 0 -3.15312e+06 -35051.4 0 -3.15308e+06 259.711 0 -3.15316e+06 35348.9 0 -3.15337e+06 70234.5 0 -3.15371e+06 104934 0 -3.15417e+06 139463 0 -3.15476e+06 173837 0 -3.15547e+06 208071 0 -3.1563e+06 242178 0 -3.15726e+06 276171 0 -3.15834e+06 310064 0 -3.15954e+06 343867 0 -3.16087e+06 377592 0 -3.16231e+06 411251 0 -3.16387e+06 444855 0 -3.16556e+06 478413 0 -3.16736e+06 511936 0 -3.16928e+06 545434 0 -3.17132e+06 578917 0 -3.17348e+06 612395 0 -3.17575e+06 645876 0 -3.17814e+06 679371 0 -3.18065e+06 712888 0 -3.18327e+06 746438 0 -3.18601e+06 780030 0 -3.18887e+06 813673 0 -3.19184e+06 847376 0 -3.19492e+06 881150 0 -3.19812e+06 915004 0 -3.20143e+06 948948 0 -3.20486e+06 982992 0 -3.2084e+06 1.01715e+06 0 -3.21206e+06 1.05142e+06 0 -3.21582e+06 1.08583e+06 0 -3.2197e+06 1.12038e+06 0 -3.2237e+06 1.15509e+06 0 -3.2278e+06 1.18997e+06 0 -3.23202e+06 1.22502e+06 0 -3.23635e+06 1.26027e+06 0 -3.24079e+06 1.29573e+06 0 -3.24534e+06 1.33142e+06 0 -3.25001e+06 1.36734e+06 0 -3.25478e+06 1.40352e+06 0 -3.25967e+06 1.43997e+06 0 -3.26466e+06 1.47671e+06 0 -3.26977e+06 1.51377e+06 0 -3.27498e+06 1.55117e+06 0 -3.28031e+06 1.58892e+06 0 -3.28574e+06 1.62706e+06 0 -3.29128e+06 1.66561e+06 0 -3.29693e+06 1.70461e+06 0 -3.30269e+06 1.74407e+06 0 -3.30856e+06 1.78405e+06 0 -3.31453e+06 1.82458e+06 0 -3.3206e+06 1.86571e+06 0 -3.32678e+06 1.90747e+06 0 -3.33306e+06 1.94993e+06 0 -3.33945e+06 1.99314e+06 0 -3.34594e+06 2.03716e+06 0 -3.35253e+06 2.08208e+06 0 -3.35921e+06 2.12796e+06 0 -3.366e+06 2.1749e+06 0 -3.37287e+06 2.22301e+06 0 -3.37984e+06 2.2724e+06 0 -3.38689e+06 2.3232e+06 0 -3.39403e+06 2.37556e+06 0 -3.40124e+06 2.42966e+06 0 -3.40852e+06 2.4857e+06 0 -3.41585e+06 2.54391e+06 0 -3.42323e+06 2.60456e+06 0 -3.43062e+06 2.66798e+06 0 -3.438e+06 2.73453e+06 0 -3.44534e+06 2.80468e+06 0 -3.45256e+06 2.87897e+06 0 -3.4596e+06 2.95807e+06 0 -3.46636e+06 3.04278e+06 0 -3.4726e+06 3.13419e+06 0 -3.47816e+06 3.23351e+06 0 -3.48263e+06 3.34251e+06 0 -3.48516e+06 3.46351e+06 0 -3.48544e+06 3.59899e+06 0 -3.48066e+06 3.75418e+06 0 -3.46844e+06 3.93406e+06 0 -3.44474e+06 4.14619e+06 0 -3.39144e+06 4.40905e+06 0 -3.29102e+06 4.72958e+06 0 -3.07808e+06 5.12975e+06 0 -2.60529e+06 5.544e+06 0 -1.88992e+06 5.70532e+06 0 -1.239e+06 5.47458e+06 0 -851731 5.09311e+06 0 -637787 4.76711e+06 0 -504068 4.48453e+06 0 -3.17414e+06 -1.70904e+06 0 -3.1783e+06 -1.61692e+06 0 -3.18125e+06 -1.53399e+06 0 -3.18231e+06 -1.45718e+06 0 -3.18211e+06 -1.38454e+06 0 -3.18149e+06 -1.31542e+06 0 -3.18068e+06 -1.24989e+06 0 -3.17957e+06 -1.18779e+06 0 -3.17812e+06 -1.12859e+06 0 -3.17642e+06 -1.07184e+06 0 -3.17459e+06 -1.01722e+06 0 -3.1727e+06 -964556 0 -3.17076e+06 -913672 0 -3.16879e+06 -864388 0 -3.16682e+06 -816535 0 -3.16486e+06 -769973 0 -3.16295e+06 -724584 0 -3.16109e+06 -680264 0 -3.1593e+06 -636917 0 -3.15758e+06 -594457 0 -3.15595e+06 -552808 0 -3.1544e+06 -511901 0 -3.15296e+06 -471674 0 -3.15161e+06 -432071 0 -3.15037e+06 -393043 0 -3.14924e+06 -354541 0 -3.14823e+06 -316525 0 -3.14732e+06 -278957 0 -3.14653e+06 -241801 0 -3.14586e+06 -205026 0 -3.14531e+06 -168601 0 -3.14488e+06 -132499 0 -3.14456e+06 -96696.4 0 -3.14437e+06 -61168.2 0 -3.1443e+06 -25893.4 0 -3.14434e+06 9148.27 0 -3.14451e+06 43975.7 0 -3.1448e+06 78606.5 0 -3.14521e+06 113057 0 -3.14573e+06 147344 0 -3.14638e+06 181480 0 -3.14714e+06 215482 0 -3.14803e+06 249360 0 -3.14903e+06 283130 0 -3.15015e+06 316801 0 -3.15138e+06 350387 0 -3.15273e+06 383898 0 -3.1542e+06 417346 0 -3.15579e+06 450740 0 -3.15749e+06 484091 0 -3.1593e+06 517409 0 -3.16123e+06 550704 0 -3.16328e+06 583985 0 -3.16544e+06 617261 0 -3.16771e+06 650543 0 -3.17009e+06 683839 0 -3.17259e+06 717159 0 -3.17519e+06 750511 0 -3.17791e+06 783905 0 -3.18075e+06 817351 0 -3.18369e+06 850857 0 -3.18674e+06 884433 0 -3.18991e+06 918088 0 -3.19318e+06 951833 0 -3.19656e+06 985678 0 -3.20006e+06 1.01963e+06 0 -3.20366e+06 1.05371e+06 0 -3.20737e+06 1.08791e+06 0 -3.21119e+06 1.12226e+06 0 -3.21512e+06 1.15676e+06 0 -3.21915e+06 1.19143e+06 0 -3.2233e+06 1.22627e+06 0 -3.22755e+06 1.26131e+06 0 -3.2319e+06 1.29655e+06 0 -3.23637e+06 1.33201e+06 0 -3.24094e+06 1.36771e+06 0 -3.24561e+06 1.40366e+06 0 -3.25039e+06 1.43988e+06 0 -3.25527e+06 1.47639e+06 0 -3.26026e+06 1.51321e+06 0 -3.26535e+06 1.55035e+06 0 -3.27054e+06 1.58785e+06 0 -3.27583e+06 1.62573e+06 0 -3.28122e+06 1.66401e+06 0 -3.28671e+06 1.70273e+06 0 -3.2923e+06 1.74191e+06 0 -3.29798e+06 1.78159e+06 0 -3.30376e+06 1.82181e+06 0 -3.30963e+06 1.86261e+06 0 -3.31559e+06 1.90404e+06 0 -3.32165e+06 1.94614e+06 0 -3.32778e+06 1.98898e+06 0 -3.33401e+06 2.03261e+06 0 -3.34031e+06 2.07711e+06 0 -3.34669e+06 2.12255e+06 0 -3.35314e+06 2.16902e+06 0 -3.35966e+06 2.21662e+06 0 -3.36624e+06 2.26547e+06 0 -3.37287e+06 2.31568e+06 0 -3.37954e+06 2.3674e+06 0 -3.38625e+06 2.4208e+06 0 -3.39297e+06 2.47607e+06 0 -3.39969e+06 2.53343e+06 0 -3.40638e+06 2.59313e+06 0 -3.41302e+06 2.65547e+06 0 -3.41955e+06 2.72082e+06 0 -3.42593e+06 2.78958e+06 0 -3.43208e+06 2.86228e+06 0 -3.4379e+06 2.93952e+06 0 -3.44325e+06 3.02205e+06 0 -3.4479e+06 3.11084e+06 0 -3.45159e+06 3.207e+06 0 -3.4539e+06 3.31208e+06 0 -3.45399e+06 3.42811e+06 0 -3.4512e+06 3.55733e+06 0 -3.44336e+06 3.70385e+06 0 -3.42745e+06 3.87211e+06 0 -3.39971e+06 4.06795e+06 0 -3.34677e+06 4.30406e+06 0 -3.25048e+06 4.58724e+06 0 -3.0704e+06 4.9276e+06 0 -2.70856e+06 5.2944e+06 0 -2.12693e+06 5.52057e+06 0 -1.50222e+06 5.44012e+06 0 -1.0495e+06 5.14287e+06 0 -781700 4.82866e+06 0 -613174 4.55159e+06 0 -504007 4.31022e+06 0 -3.15946e+06 -1.57382e+06 0 -3.16258e+06 -1.49527e+06 0 -3.16395e+06 -1.42112e+06 0 -3.16453e+06 -1.35065e+06 0 -3.1648e+06 -1.28385e+06 0 -3.16469e+06 -1.22062e+06 0 -3.1641e+06 -1.1605e+06 0 -3.16312e+06 -1.10292e+06 0 -3.16191e+06 -1.04756e+06 0 -3.16056e+06 -994214 0 -3.1591e+06 -942728 0 -3.15756e+06 -892918 0 -3.15595e+06 -844601 0 -3.15432e+06 -797625 0 -3.15269e+06 -751867 0 -3.15108e+06 -707221 0 -3.1495e+06 -663587 0 -3.14797e+06 -620875 0 -3.1465e+06 -579006 0 -3.14509e+06 -537907 0 -3.14377e+06 -497515 0 -3.14252e+06 -457772 0 -3.14137e+06 -418625 0 -3.14031e+06 -380027 0 -3.13935e+06 -341933 0 -3.13849e+06 -304305 0 -3.13773e+06 -267106 0 -3.13708e+06 -230302 0 -3.13654e+06 -193864 0 -3.13611e+06 -157762 0 -3.13579e+06 -121972 0 -3.13558e+06 -86469 0 -3.13549e+06 -51230.6 0 -3.13551e+06 -16236.2 0 -3.13564e+06 18533.5 0 -3.13589e+06 53096.6 0 -3.13625e+06 87470.2 0