<?xml version="1.0"?> 
<VTKFile type="StructuredGrid" version="0.1"> 
<StructuredGrid WholeExtent="0 127 0 127 0 0"> 
<Piece Extent="0 127 0 127 0 0"> 
<PointData>
<DataArray type="Float32" Name="E" format="ascii" NumberOfComponents="3"> 
0 0 0 0 -3197.98 0 0 -6395.72 0 0 -9593 0 0 -12789.6 0 0 -15985.3 0 0 -19179.8 0 0 -22372.9 0 0 -25564.4 0 0 -28754 0 0 -31941.6 0 0 -35126.8 0 0 -38309.4 0 0 -41489.3 0 0 -44666.1 0 0 -47839.5 0 0 -51009.5 0 0 -54175.7 0 0 -57337.8 0 0 -60495.7 0 0 -63649 0 0 -66797.5 0 0 -69941 0 0 -73079.1 0 0 -76211.7 0 0 -79338.4 0 0 -82459 0 0 -85573.2 0 0 -88680.7 0 0 -91781.2 0 0 -94874.5 0 0 -97960.2 0 0 -101038 0 0 -104108 0 0 -107169 0 0 -110221 0 0 -113265 0 0 -116299 0 0 -119323 0 0 -122337 0 0 -125341 0 0 -128334 0 0 -131315 0 0 -134285 0 0 -137244 0 0 -140189 0 0 -143123 0 0 -146043 0 0 -148949 0 0 -151842 0 0 -154720 0 0 -157584 0 0 -160432 0 0 -163264 0 0 -166080 0 0 -168879 0 0 -171661 0 0 -174426 0 0 -177171 0 0 -179898 0 0 -182606 0 0 -185293 0 0 -187959 0 0 -190604 0 0 -193227 0 0 -195827 0 0 -198404 0 0 -200956 0 0 -203484 0 0 -205985 0 0 -208460 0 0 -210908 0 0 -213327 0 0 -215716 0 0 -218076 0 0 -220404 0 0 -222699 0 0 -224961 0 0 -227188 0 0 -229379 0 0 -231533 0 0 -233648 0 0 -235723 0 0 -237757 0 0 -239747 0 0 -241692 0 0 -243591 0 0 -245442 0 0 -247241 0 0 -248989 0 0 -250681 0 0 -252316 0 0 -253891 0 0 -255403 0 0 -256850 0 0 -258228 0 0 -259534 0 0 -260763 0 0 -261913 0 0 -262978 0 0 -263955 0 0 -264836 0 0 -265617 0 0 -266292 0 0 -266853 0 0 -267292 0 0 -267601 0 0 -267770 0 0 -267786 0 0 -267639 0 0 -267312 0 0 -266788 0 0 -266048 0 0 -265067 0 0 -263818 0 0 -262266 0 0 -260365 0 0 -258063 0 0 -255300 0 0 -252009 0 0 -248069 0 0 -243167 0 0 -236643 0 0 -227909 0 0 -218611 0 0 -212906 0 0 -195515 0 0 0 0 -2665.03 0 0 -2664.94 -3240.02 0 -2664.64 -6479.81 0 -2664.15 -9719.11 0 -2663.45 -12957.7 0 -2662.56 -16195.3 0 -2661.47 -19431.7 0 -2660.19 -22666.7 0 -2658.7 -25900 0 -2657.01 -29131.4 0 -2655.12 -32360.5 0 -2653.02 -35587.3 0 -2650.72 -38811.4 0 -2648.21 -42032.5 0 -2645.5 -45250.5 0 -2642.58 -48465.1 0 -2639.45 -51676 0 -2636.1 -54882.9 0 -2632.54 -58085.7 0 -2628.77 -61284 0 -2624.77 -64477.5 0 -2620.55 -67666.1 0 -2616.11 -70849.4 0 -2611.45 -74027.2 0 -2606.55 -77199.2 0 -2601.42 -80365.1 0 -2596.05 -83524.6 0 -2590.44 -86677.4 0 -2584.59 -89823.3 0 -2578.5 -92961.9 0 -2572.15 -96092.9 0 -2565.55 -99216.1 0 -2558.69 -102331 0 -2551.56 -105438 0 -2544.17 -108535 0 -2536.5 -111624 0 -2528.55 -114703 0 -2520.31 -117772 0 -2511.79 -120831 0 -2502.97 -123879 0 -2493.84 -126917 0 -2484.41 -129943 0 -2474.66 -132958 0 -2464.58 -135960 0 -2454.17 -138950 0 -2443.42 -141928 0 -2432.33 -144892 0 -2420.87 -147842 0 -2409.05 -150778 0 -2396.85 -153700 0 -2384.27 -156606 0 -2371.28 -159497 0 -2357.89 -162372 0 -2344.08 -165230 0 -2329.84 -168072 0 -2315.14 -170895 0 -2299.99 -173701 0 -2284.37 -176488 0 -2268.25 -179255 0 -2251.63 -182003 0 -2234.49 -184730 0 -2216.8 -187436 0 -2198.56 -190121 0 -2179.73 -192782 0 -2160.31 -195421 0 -2140.27 -198035 0 -2119.57 -200625 0 -2098.21 -203189 0 -2076.15 -205727 0 -2053.36 -208237 0 -2029.82 -210720 0 -2005.49 -213173 0 -1980.34 -215596 0 -1954.33 -217988 0 -1927.43 -220348 0 -1899.58 -222675 0 -1870.76 -224967 0 -1840.9 -227224 0 -1809.96 -229443 0 -1777.89 -231625 0 -1744.63 -233766 0 -1710.1 -235867 0 -1674.25 -237925 0 -1636.99 -239938 0 -1598.25 -241905 0 -1557.93 -243824 0 -1515.95 -245694 0 -1472.2 -247511 0 -1426.55 -249274 0 -1378.89 -250980 0 -1329.07 -252627 0 -1276.95 -254212 0 -1222.34 -255732 0 -1165.07 -257184 0 -1104.92 -258565 0 -1041.65 -259871 0 -975.001 -261098 0 -904.675 -262243 0 -830.333 -263299 0 -751.59 -264262 0 -668.006 -265127 0 -579.077 -265887 0 -484.22 -266536 0 -382.753 -267066 0 -273.884 -267468 0 -156.672 -267733 0 -30.0023 -267850 0 107.465 -267808 0 257.351 -267591 0 421.645 -267184 0 602.812 -266568 0 803.953 -265722 0 1029.03 -264618 0 1283.2 -263225 0 1573.22 -261504 0 1908.13 -259408 0 2300.68 -256874 0 2770.3 -253823 0 3347.92 -250153 0 4081.27 -245731 0 5030.66 -240361 0 6286.04 -233681 0 8066.8 -224925 0 11301.1 -212957 0 18758.3 -197096 0 36351.1 -180985 0 68486.7 -175412 0 92354.3 -184709 0 -5330.2 0 0 -5330 -3282.24 0 -5329.39 -6564.23 0 -5328.38 -9845.72 0 -5326.96 -13126.5 0 -5325.13 -16406.2 0 -5322.9 -19684.7 0 -5320.25 -22961.7 0 -5317.2 -26236.9 0 -5313.73 -29510.2 0 -5309.85 -32781.1 0 -5305.55 -36049.6 0 -5300.83 -39315.3 0 -5295.69 -42577.9 0 -5290.12 -45837.3 0 -5284.12 -49093 0 -5277.69 -52345 0 -5270.82 -55592.9 0 -5263.51 -58836.4 0 -5255.76 -62075.3 0 -5247.55 -65309.2 0 -5238.89 -68538 0 -5229.77 -71761.3 0 -5220.18 -74978.8 0 -5210.11 -78190.3 0 -5199.57 -81395.5 0 -5188.54 -84594 0 -5177.02 -87785.6 0 -5164.99 -90969.9 0 -5152.46 -94146.7 0 -5139.41 -97315.6 0 -5125.83 -100476 0 -5111.71 -103629 0 -5097.05 -106772 0 -5081.83 -109906 0 -5066.05 -113031 0 -5049.68 -116145 0 -5032.73 -119250 0 -5015.17 -122344 0 -4997 -125427 0 -4978.2 -128498 0 -4958.76 -131558 0 -4938.65 -134605 0 -4917.88 -137640 0 -4896.41 -140662 0 -4874.24 -143671 0 -4851.34 -146665 0 -4827.69 -149646 0 -4803.28 -152611 0 -4778.09 -155562 0 -4752.08 -158496 0 -4725.25 -161415 0 -4697.56 -164316 0 -4669 -167200 0 -4639.52 -170067 0 -4609.11 -172915 0 -4577.74 -175744 0 -4545.37 -178553 0 -4511.97 -181342 0 -4477.51 -184111 0 -4441.95 -186857 0 -4405.25 -189582 0 -4367.38 -192283 0 -4328.28 -194961 0 -4287.91 -197615 0 -4246.23 -200243 0 -4203.17 -202845 0 -4158.7 -205420 0 -4112.74 -207968 0 -4065.25 -210487 0 -4016.14 -212976 0 -3965.36 -215434 0 -3912.83 -217861 0 -3858.46 -220254 0 -3802.17 -222614 0 -3743.88 -224938 0 -3683.48 -227226 0 -3620.86 -229476 0 -3555.92 -231687 0 -3488.52 -233858 0 -3418.55 -235986 0 -3345.84 -238070 0 -3270.26 -240109 0 -3191.62 -242100 0 -3109.74 -244042 0 -3024.43 -245933 0 -2935.47 -247770 0 -2842.6 -249551 0 -2745.58 -251274 0 -2644.1 -252936 0 -2537.84 -254535 0 -2426.44 -256066 0 -2309.51 -257528 0 -2186.6 -258916 0 -2057.21 -260226 0 -1920.79 -261455 0 -1776.69 -262598 0 -1624.19 -263651 0 -1462.49 -264607 0 -1290.64 -265461 0 -1107.55 -266206 0 -911.978 -266836 0 -702.452 -267341 0 -477.255 -267715 0 -234.35 -267945 0 28.6946 -268021 0 314.808 -267930 0 627.558 -267657 0 971.333 -267185 0 1351.61 -266494 0 1775.31 -265559 0 2251.31 -264354 0 2791.23 -262845 0 3410.56 -260989 0 4130.61 -258736 0 4981.68 -256020 0 6007.99 -252762 0 7274.66 -248854 0 8880.72 -244149 0 10991.3 -238418 0 13940 -231314 0 18444.6 -222465 0 25938.8 -212027 0 38492 -201702 0 57348.3 -195471 0 79191.4 -196705 0 94009.2 -201179 0 106698 -213395 0 -7995.64 0 0 -7995.33 -3324.63 0 -7994.39 -6648.99 0 -7992.83 -9972.85 0 -7990.65 -13295.9 0 -7987.84 -16618 0 -7984.4 -19938.7 0 -7980.33 -23257.9 0 -7975.64 -26575.2 0 -7970.3 -29890.5 0 -7964.33 -33203.4 0 -7957.71 -36513.8 0 -7950.45 -39821.2 0 -7942.54 -43125.5 0 -7933.97 -46426.3 0 -7924.74 -49723.5 0 -7914.84 -53016.7 0 -7904.27 -56305.7 0 -7893.02 -59590.1 0 -7881.08 -62869.7 0 -7868.45 -66144.2 0 -7855.11 -69413.3 0 -7841.06 -72676.7 0 -7826.29 -75934.2 0 -7810.79 -79185.3 0 -7794.55 -82429.9 0 -7777.56 -85667.6 0 -7759.8 -88898 0 -7741.27 -92120.9 0 -7721.95 -95336 0 -7701.82 -98542.9 0 -7680.89 -101741 0 -7659.12 -104931 0 -7636.5 -108111 0 -7613.03 -111282 0 -7588.67 -114442 0 -7563.42 -117593 0 -7537.25 -120733 0 -7510.14 -123862 0 -7482.08 -126979 0 -7453.04 -130084 0 -7423 -133177 0 -7391.93 -136258 0 -7359.82 -139325 0 -7326.63 -142379 0 -7292.33 -145419 0 -7256.9 -148444 0 -7220.31 -151455 0 -7182.53 -154450 0 -7143.51 -157429 0 -7103.23 -160392 0 -7061.66 -163337 0 -7018.74 -166265 0 -6974.44 -169175 0 -6928.73 -172067 0 -6881.54 -174939 0 -6832.83 -177791 0 -6782.57 -180622 0 -6730.68 -183433 0 -6677.11 -186221 0 -6621.81 -188987 0 -6564.72 -191730 0 -6505.76 -194449 0 -6444.86 -197142 0 -6381.96 -199810 0 -6316.97 -202452 0 -6249.81 -205066 0 -6180.39 -207652 0 -6108.62 -210209 0 -6034.38 -212735 0 -5957.59 -215230 0 -5878.11 -217692 0 -5795.83 -220122 0 -5710.62 -222516 0 -5622.33 -224874 0 -5530.81 -227196 0 -5435.9 -229478 0 -5337.42 -231721 0 -5235.18 -233922 0 -5128.97 -236080 0 -5018.58 -238193 0 -4903.76 -240259 0 -4784.25 -242277 0 -4659.76 -244245 0 -4529.97 -246159 0 -4394.56 -248019 0 -4253.13 -249822 0 -4105.28 -251565 0 -3950.54 -253246 0 -3788.42 -254861 0 -3618.36 -256408 0 -3439.71 -257882 0 -3251.79 -259282 0 -3053.82 -260601 0 -2844.9 -261837 0 -2624.04 -262984 0 -2390.1 -264038 0 -2141.77 -264993 0 -1877.58 -265842 0 -1595.8 -266580 0 -1294.42 -267198 0 -971.106 -267689 0 -623.107 -268042 0 -247.149 -268249 0 160.681 -268295 0 605.116 -268169 0 1091.93 -267855 0 1628.26 -267336 0 2223.01 -266589 0 2887.51 -265592 0 3636.33 -264316 0 4488.58 -262726 0 5469.91 -260781 0 6615.53 -258430 0 7974.94 -255613 0 9619.29 -252253 0 11654.3 -248252 0 14246.4 -243486 0 17675.6 -237811 0 22426.5 -231138 0 29267.8 -223665 0 39157.7 -216274 0 52645.2 -210754 0 68712.1 -209135 0 84122.6 -211786 0 95544.9 -216448 0 105949 -224050 0 114230 -228461 0 -10661.5 0 0 -10661 -3367.19 0 -10659.8 -6734.12 0 -10657.6 -10100.5 0 -10654.7 -13466.1 0 -10650.8 -16830.6 0 -10646.1 -20193.8 0 -10640.6 -23555.3 0 -10634.1 -26915 0 -10626.8 -30272.5 0 -10618.7 -33627.5 0 -10609.6 -36979.9 0 -10599.7 -40329.2 0 -10588.9 -43675.3 0 -10577.2 -47017.9 0 -10564.6 -50356.6 0 -10551 -53691.2 0 -10536.6 -57021.4 0 -10521.2 -60346.9 0 -10504.8 -63667.4 0 -10487.6 -66982.5 0 -10469.3 -70292.1 0 -10450.1 -73595.8 0 -10429.9 -76893.3 0 -10408.7 -80184.3 0 -10386.4 -83468.4 0 -10363.2 -86745.4 0 -10338.9 -90014.8 0 -10313.5 -93276.5 0 -10287 -96529.9 0 -10259.5 -99774.9 0 -10230.8 -103011 0 -10201 -106238 0 -10170 -109455 0 -10137.8 -112663 0 -10104.4 -115860 0 -10069.8 -119046 0 -10033.9 -122221 0 -9996.7 -125385 0 -9958.2 -128537 0 -9918.34 -131676 0 -9877.1 -134803 0 -9834.44 -137916 0 -9790.33 -141016 0 -9744.73 -144102 0 -9697.61 -147173 0 -9648.91 -150229 0 -9598.59 -153270 0 -9546.62 -156294 0 -9492.94 -159302 0 -9437.51 -162292 0 -9380.27 -165265 0 -9321.16 -168220 0 -9260.13 -171155 0 -9197.12 -174071 0 -9132.06 -176967 0 -9064.88 -179842 0 -8995.51 -182696 0 -8923.88 -185528 0 -8849.9 -188336 0 -8773.48 -191121 0 -8694.55 -193882 0 -8613 -196617 0 -8528.73 -199326 0 -8441.64 -202008 0 -8351.6 -204663 0 -8258.5 -207289 0 -8162.22 -209885 0 -8062.6 -212450 0 -7959.5 -214983 0 -7852.77 -217483 0 -7742.24 -219950 0 -7627.72 -222381 0 -7509.02 -224775 0 -7385.94 -227131 0 -7258.25 -229448 0 -7125.71 -231725 0 -6988.05 -233959 0 -6845 -236148 0 -6696.25 -238293 0 -6541.47 -240389 0 -6380.29 -242436 0 -6212.32 -244432 0 -6037.13 -246374 0 -5854.25 -248260 0 -5663.16 -250088 0 -5463.29 -251854 0 -5254 -253557 0 -5034.59 -255192 0 -4804.3 -256758 0 -4562.25 -258250 0 -4307.47 -259665 0 -4038.87 -260998 0 -3755.22 -262246 0 -3455.13 -263403 0 -3137.01 -264464 0 -2799.05 -265424 0 -2439.17 -266276 0 -2054.96 -267014 0 -1643.61 -267629 0 -1201.84 -268114 0 -725.778 -268458 0 -210.821 -268652 0 348.548 -268683 0 959.006 -268537 0 1628.71 -268199 0 2367.75 -267652 0 3188.75 -266875 0 4107.71 -265843 0 5145.27 -264530 0 6328.42 -262903 0 7693.23 -260924 0 9288.76 -258548 0 11183.1 -255722 0 13473.1 -252388 0 16300.6 -248481 0 19879.1 -243946 0 24529.5 -238786 0 30700.7 -233168 0 38901.6 -227591 0 49445.4 -223001 0 61985.8 -220577 0 75170.7 -221052 0 87173.1 -224031 0 97224 -228341 0 106761 -233954 0 114937 -238609 0 122096 -244192 0 -13327.8 0 0 -13327.3 -3409.94 0 -13325.7 -6819.61 0 -13322.9 -10228.7 0 -13319.1 -13637 0 -13314.2 -17044.2 0 -13308.2 -20449.9 0 -13301.1 -23854 0 -13292.8 -27256.2 0 -13283.5 -30656.1 0 -13273 -34053.4 0 -13261.4 -37448 0 -13248.7 -40839.5 0 -13234.9 -44227.6 0 -13219.9 -47612 0 -13203.7 -50992.4 0 -13186.3 -54368.6 0 -13167.8 -57740.1 0 -13148.1 -61106.9 0 -13127.2 -64468.4 0 -13105 -67824.4 0 -13081.6 -71174.7 0 -13057 -74518.8 0 -13031.1 -77856.5 0 -13003.9 -81187.4 0 -12975.4 -84511.2 0 -12945.5 -87827.6 0 -12914.3 -91136.2 0 -12881.8 -94436.7 0 -12847.8 -97728.7 0 -12812.4 -101012 0 -12775.6 -104286 0 -12737.3 -107550 0 -12697.5 -110805 0 -12656.2 -114049 0 -12613.3 -117282 0 -12568.8 -120505 0 -12522.6 -123715 0 -12474.8 -126914 0 -12425.3 -130100 0 -12374.1 -133274 0 -12321 -136434 0 -12266.1 -139581 0 -12209.4 -142713 0 -12150.7 -145831 0 -12090 -148933 0 -12027.2 -152020 0 -11962.4 -155090 0 -11895.4 -158144 0 -11826.2 -161180 0 -11754.7 -164199 0 -11680.9 -167199 0 -11604.6 -170180 0 -11525.8 -173141 0 -11444.4 -176082 0 -11360.3 -179001 0 -11273.5 -181899 0 -11183.8 -184775 0 -11091.1 -187627 0 -10995.3 -190456 0 -10896.4 -193259 0 -10794.1 -196038 0 -10688.4 -198789 0 -10579.1 -201514 0 -10466.1 -204210 0 -10349.2 -206877 0 -10228.3 -209514 0 -10103.1 -212119 0 -9973.51 -214693 0 -9839.32 -217232 0 -9700.3 -219738 0 -9556.22 -222207 0 -9406.83 -224639 0 -9251.87 -227033 0 -9091.05 -229386 0 -8924.06 -231698 0 -8750.57 -233967 0 -8570.22 -236192 0 -8382.6 -238369 0 -8187.31 -240499 0 -7983.86 -242578 0 -7771.77 -244604 0 -7550.46 -246576 0 -7319.35 -248491 0 -7077.75 -250347 0 -6824.93 -252140 0 -6560.08 -253868 0 -6282.3 -255528 0 -5990.58 -257117 0 -5683.81 -258631 0 -5360.73 -260066 0 -5019.93 -261418 0 -4659.82 -262683 0 -4278.61 -263856 0 -3874.23 -264931 0 -3444.34 -265903 0 -2986.23 -266765 0 -2496.77 -267511 0 -1972.33 -268132 0 -1408.64 -268621 0 -800.658 -268968 0 -142.405 -269161 0 573.293 -269190 0 1355.12 -269041 0 2213.67 -268699 0 3162.03 -268146 0 4216.54 -267364 0 5397.87 -266330 0 6732.5 -265019 0 8254.87 -263403 0 10010.5 -261449 0 12060.2 -259124 0 14486.9 -256391 0 17405.1 -253220 0 20973.7 -249594 0 25411.1 -245544 0 30996.8 -241199 0 38033.5 -236865 0 46724.8 -233085 0 56966.1 -230575 0 68157 -229951 0 79293.4 -231344 0 89537.6 -234309 0 98791.6 -238223 0 107506 -242869 0 115069 -247280 0 121868 -252164 0 128452 -256904 0 -15994.9 0 0 -15994.2 -3452.89 0 -15992.2 -6905.49 0 -15988.8 -10357.5 0 -15984.1 -13808.7 0 -15978.1 -17258.7 0 -15970.7 -20707.2 0 -15962 -24154.1 0 -15951.9 -27598.9 0 -15940.4 -31041.4 0 -15927.5 -34481.2 0 -15913.3 -37918.2 0 -15897.6 -41352 0 -15880.6 -44782.2 0 -15862.2 -48208.7 0 -15842.3 -51631 0 -15820.9 -55048.9 0 -15798.2 -58462.1 0 -15773.9 -61870.2 0 -15748.2 -65273 0 -15720.9 -68670 0 -15692.1 -72061.1 0 -15661.8 -75445.8 0 -15629.9 -78823.8 0 -15596.5 -82194.9 0 -15561.4 -85558.5 0 -15524.6 -88914.5 0 -15486.2 -92262.4 0 -15446.1 -95601.8 0 -15404.3 -98932.5 0 -15360.8 -102254 0 -15315.4 -105566 0 -15268.2 -108868 0 -15219.2 -112160 0 -15168.2 -115441 0 -15115.3 -118711 0 -15060.5 -121969 0 -15003.6 -125215 0 -14944.6 -128449 0 -14883.5 -131670 0 -14820.3 -134878 0 -14754.8 -138072 0 -14687 -141252 0 -14616.9 -144416 0 -14544.3 -147566 0 -14469.3 -150700 0 -14391.8 -153817 0 -14311.6 -156918 0 -14228.8 -160001 0 -14143.2 -163066 0 -14054.7 -166112 0 -13963.2 -169139 0 -13868.7 -172146 0 -13771.1 -175133 0 -13670.2 -178098 0 -13566 -181042 0 -13458.3 -183963 0 -13346.9 -186860 0 -13231.9 -189733 0 -13112.9 -192581 0 -12990 -195403 0 -12862.8 -198199 0 -12731.3 -200967 0 -12595.3 -203706 0 -12454.6 -206416 0 -12308.9 -209095 0 -12158.1 -211743 0 -12002 -214358 0 -11840.2 -216939 0 -11672.6 -219484 0 -11498.8 -221994 0 -11318.5 -224466 0 -11131.5 -226898 0 -10937.4 -229291 0 -10735.7 -231641 0 -10526.1 -233947 0 -10308.1 -236208 0 -10081.3 -238422 0 -9845.16 -240587 0 -9599.05 -242700 0 -9342.38 -244761 0 -9074.48 -246766 0 -8794.59 -248713 0 -8501.9 -250600 0 -8195.5 -252423 0 -7874.39 -254181 0 -7537.47 -255869 0 -7183.5 -257485 0 -6811.1 -259025 0 -6418.73 -260486 0 -6004.65 -261862 0 -5566.9 -263149 0 -5103.27 -264344 0 -4611.22 -265439 0 -4087.85 -266430 0 -3529.84 -267310 0 -2933.31 -268073 0 -2293.8 -268710 0 -1606.03 -269213 0 -863.812 -269573 0 -59.7851 -269780 0 814.865 -269823 0 1770.78 -269687 0 2820.92 -269360 0 3981.22 -268826 0 5271.5 -268066 0 6716.63 -267062 0 8348.21 -265793 0 10206.8 -264236 0 12345.1 -262368 0 14832.1 -260169 0 17758.3 -257624 0 21243 -254736 0 25439.4 -251537 0 30532.8 -248127 0 36718.7 -244703 0 44141.4 -241600 0 52790.5 -239270 0 62393.6 -238168 0 72408.7 -238562 0 82212 -240377 0 91424.8 -243283 0 100013 -246923 0 108024 -251072 0 115185 -255272 0 121890 -259782 0 128354 -264223 0 134270 -268540 0 -18662.7 0 0 -18661.9 -3496.03 0 -18659.5 -6991.76 0 -18655.5 -10486.9 0 -18649.9 -13981.1 0 -18642.7 -17474.2 0 -18633.9 -20965.7 0 -18623.4 -24455.5 0 -18611.3 -27943.2 0 -18597.6 -31428.4 0 -18582.3 -34911 0 -18565.3 -38390.6 0 -18546.6 -41866.8 0 -18526.2 -45339.4 0 -18504.2 -48808.1 0 -18480.4 -52272.5 0 -18454.9 -55732.3 0 -18427.7 -59187.3 0 -18398.7 -62637 0 -18368 -66081.1 0 -18335.4 -69519.4 0 -18301 -72951.4 0 -18264.7 -76376.9 0 -18226.6 -79795.5 0 -18186.6 -83206.8 0 -18144.6 -86610.5 0 -18100.6 -90006.2 0 -18054.7 -93393.5 0 -18006.7 -96772.1 0 -17956.7 -100142 0 -17904.5 -103502 0 -17850.2 -106852 0 -17793.7 -110192 0 -17735 -113521 0 -17674 -116839 0 -17610.6 -120145 0 -17544.8 -123440 0 -17476.7 -126722 0 -17406 -129991 0 -17332.7 -133247 0 -17256.8 -136489 0 -17178.3 -139716 0 -17097 -142929 0 -17012.8 -146127 0 -16925.7 -149308 0 -16835.6 -152473 0 -16742.5 -155621 0 -16646.2 -158752 0 -16546.6 -161865 0 -16443.6 -164958 0 -16337.2 -168032 0 -16227.2 -171087 0 -16113.4 -174120 0 -15995.9 -177132 0 -15874.4 -180122 0 -15748.7 -183089 0 -15618.9 -186033 0 -15484.6 -188952 0 -15345.8 -191845 0 -15202.2 -194713 0 -15053.7 -197554 0 -14900.1 -200367 0 -14741.1 -203150 0 -14576.6 -205904 0 -14406.2 -208628 0 -14229.8 -211319 0 -14047.1 -213977 0 -13857.8 -216601 0 -13661.5 -219189 0 -13458 -221741 0 -13246.9 -224254 0 -13027.7 -226728 0 -12800.1 -229161 0 -12563.7 -231551 0 -12317.9 -233897 0 -12062.2 -236197 0 -11796 -238449 0 -11518.8 -240652 0 -11229.8 -242803 0 -10928.4 -244900 0 -10613.6 -246941 0 -10284.7 -248924 0 -9940.55 -250845 0 -9580.22 -252703 0 -9202.48 -254493 0 -8805.99 -256214 0 -8389.31 -257862 0 -7950.78 -259433 0 -7488.58 -260923 0 -7000.63 -262328 0 -6484.62 -263644 0 -5937.9 -264866 0 -5357.46 -265989 0 -4739.87 -267006 0 -4081.16 -267912 0 -3376.77 -268700 0 -2621.37 -269362 0 -1808.75 -269891 0 -931.579 -270277 0 18.8079 -270510 0 1052.77 -270581 0 2182.77 -270477 0 3423.92 -270185 0 4794.67 -269692 0 6317.81 -268982 0 8021.64 -268040 0 9941.66 -266851 0 12122.6 -265398 0 14621.3 -263671 0 17509.6 -261665 0 20878.1 -259386 0 24837.8 -256867 0 29518.6 -254181 0 35055 -251462 0 41555.1 -248928 0 49044.9 -246874 0 57406.2 -245630 0 66347 -245459 0 75459.6 -246452 0 84366.9 -248496 0 92863 -251364 0 100883 -254825 0 108382 -258683 0 115298 -262695 0 121892 -266925 0 128188 -271138 0 134066 -275340 0 139810 -279621 0 -21331.5 0 0 -21330.5 -3539.37 0 -21327.7 -7078.43 0 -21323.1 -10616.9 0 -21316.5 -14154.4 0 -21308.1 -17690.7 0 -21297.7 -21225.4 0 -21285.5 -24758.3 0 -21271.4 -28289.1 0 -21255.4 -31817.3 0 -21237.4 -35342.8 0 -21217.5 -38865.1 0 -21195.6 -42384 0 -21171.8 -45899.2 0 -21146 -49410.3 0 -21118.2 -52917 0 -21088.4 -56418.9 0 -21056.6 -59915.8 0 -21022.7 -63407.3 0 -20986.6 -66893.1 0 -20948.5 -70372.7 0 -20908.2 -73845.9 0 -20865.8 -77312.4 0 -20821.2 -80771.6 0 -20774.3 -84223.4 0 -20725.1 -87667.3 0 -20673.6 -91102.9 0 -20619.8 -94529.8 0 -20563.6 -97947.8 0 -20505 -101356 0 -20443.8 -104755 0 -20380.2 -108143 0 -20313.9 -111521 0 -20245 -114888 0 -20173.5 -118243 0 -20099.1 -121586 0 -20022 -124917 0 -19942 -128235 0 -19859 -131539 0 -19773 -134830 0 -19683.9 -138106 0 -19591.6 -141368 0 -19496 -144614 0 -19397.1 -147844 0 -19294.7 -151058 0 -19188.8 -154254 0 -19079.2 -157433 0 -18965.9 -160594 0 -18848.7 -163736 0 -18727.5 -166858 0 -18602.1 -169961 0 -18472.5 -173042 0 -18338.4 -176102 0 -18199.8 -179139 0 -18056.5 -182154 0 -17908.3 -185144 0 -17755 -188110 0 -17596.4 -191051 0 -17432.4 -193965 0 -17262.7 -196853 0 -17087 -199712 0 -16905.2 -202541 0 -16717 -205341 0 -16522.2 -208110 0 -16320.3 -210846 0 -16111.1 -213549 0 -15894.3 -216217 0 -15669.5 -218850 0 -15436.3 -221445 0 -15194.4 -224002 0 -14943.2 -226519 0 -14682.2 -228995 0 -14411 -231427 0 -14129 -233815 0 -13835.6 -236157 0 -13530.2 -238450 0 -13211.9 -240694 0 -12880 -242885 0 -12533.7 -245021 0 -12172.1 -247101 0 -11794.1 -249123 0 -11398.5 -251082 0 -10984.2 -252977 0 -10549.7 -254805 0 -10093.6 -256562 0 -9614.11 -258246 0 -9109.37 -259852 0 -8577.24 -261377 0 -8015.35 -262817 0 -7421 -264167 0 -6791.14 -265422 0 -6122.3 -266578 0 -5410.52 -267629 0 -4651.23 -268569 0 -3839.19 -269391 0 -2968.28 -270088 0 -2031.38 -270652 0 -1020.14 -271076 0 75.3177 -271349 0 1266.73 -271464 0 2568.15 -271407 0 3996.5 -271170 0 5572.28 -270741 0 7320.54 -270106 0 9271.99 -269257 0 11464.5 -268182 0 13944.7 -266874 0 16770.1 -265334 0 20010.8 -263571 0 23749.9 -261611 0 28082.1 -259510 0 33105.5 -257362 0 38903.6 -255314 0 45515.3 -253568 0 52897 -252359 0 60895.3 -251911 0 69256.7 -252367 0 77689.3 -253742 0 85951.4 -255935 0 93902 -258784 0 101468 -262122 0 108611 -265794 0 115343 -269652 0 121801 -273682 0 127955 -277739 0 133802 -281829 0 139510 -285954 0 145003 -290006 0 -24001.3 0 0 -24000.2 -3582.92 0 -23997 -7165.52 0 -23991.6 -10747.5 0 -23984.1 -14328.5 0 -23974.4 -17908.2 0 -23962.5 -21486.4 0 -23948.4 -25062.6 0 -23932.2 -28636.6 0 -23913.7 -32208.1 0 -23893 -35776.6 0 -23870.1 -39342 0 -23845 -42903.8 0 -23817.6 -46461.7 0 -23787.9 -50015.4 0 -23755.9 -53564.6 0 -23721.6 -57108.8 0 -23684.9 -60647.9 0 -23645.8 -64181.3 0 -23604.4 -67708.9 0 -23560.4 -71230.1 0 -23514.1 -74744.7 0 -23465.2 -78252.2 0 -23413.7 -81752.4 0 -23359.7 -85244.8 0 -23303 -88729 0 -23243.7 -92204.7 0 -23181.7 -95671.5 0 -23116.9 -99128.9 0 -23049.3 -102577 0 -22978.8 -106014 0 -22905.3 -109441 0 -22828.9 -112857 0 -22749.4 -116261 0 -22666.8 -119654 0 -22581 -123034 0 -22491.9 -126401 0 -22399.5 -129755 0 -22303.7 -133095 0 -22204.3 -136421 0 -22101.3 -139732 0 -21994.7 -143027 0 -21884.2 -146306 0 -21769.8 -149569 0 -21651.4 -152815 0 -21528.8 -156043 0 -21402 -159253 0 -21270.8 -162444 0 -21135 -165616 0 -20994.6 -168767 0 -20849.3 -171897 0 -20699 -175006 0 -20543.5 -178092 0 -20382.7 -181155 0 -20216.4 -184194 0 -20044.3 -187208 0 -19866.2 -190197 0 -19681.9 -193159 0 -19491.2 -196094 0 -19293.8 -199000 0 -19089.4 -201878 0 -18877.8 -204725 0 -18658.6 -207540 0 -18431.4 -210323 0 -18196 -213073 0 -17951.9 -215787 0 -17698.8 -218466 0 -17436.2 -221107 0 -17163.6 -223709 0 -16880.5 -226271 0 -16586.3 -228792 0 -16280.6 -231269 0 -15962.6 -233701 0 -15631.7 -236086 0 -15287.1 -238423 0 -14927.9 -240710 0 -14553.4 -242944 0 -14162.5 -245123 0 -13754.1 -247245 0 -13327.2 -249308 0 -12880.4 -251308 0 -12412.3 -253244 0 -11921.3 -255113 0 -11405.8 -256911 0 -10863.8 -258634 0 -10293.2 -260280 0 -9691.48 -261845 0 -9056.04 -263325 0 -8383.82 -264715 0 -7671.38 -266010 0 -6914.8 -267206 0 -6109.63 -268298 0 -5250.74 -269279 0 -4332.24 -270143 0 -3347.32 -270884 0 -2288.04 -271495 0 -1145.11 -271968 0 92.3648 -272294 0 1437.3 -272466 0 2905.02 -272474 0 4513.85 -272309 0 6285.77 -271964 0 8247.28 -271428 0 10430.4 -270697 0 12873.6 -269765 0 15623.4 -268635 0 18735 -267316 0 22272.4 -265830 0 26307.3 -264218 0 30914 -262549 0 36159 -260925 0 42083.7 -259488 0 48681.4 -258409 0 55876 -257864 0 63516 -258003 0 71396.7 -258899 0 79307.3 -260540 0 87079 -262842 0 94603.8 -265685 0 101818 -268941 0 108701 -272488 0 115275 -276229 0 121597 -280119 0 127651 -284066 0 133476 -288065 0 139162 -292092 0 144669 -296099 0 150058 -300116 0 -26672.3 0 0 -26671.1 -3626.68 0 -26667.4 -7253.04 0 -26661.3 -10878.7 0 -26652.8 -14503.5 0 -26641.7 -18126.9 0 -26628.2 -21748.6 0 -26612.2 -25368.4 0 -26593.8 -28985.9 0 -26572.8 -32600.7 0 -26549.3 -36212.6 0 -26523.3 -39821.1 0 -26494.7 -43426 0 -26463.6 -47026.9 0 -26429.8 -50623.5 0 -26393.5 -54215.3 0 -26354.5 -57802.1 0 -26312.8 -61383.5 0 -26268.4 -64959.2 0 -26221.2 -68528.7 0 -26171.3 -72091.7 0 -26118.5 -75647.8 0 -26062.9 -79196.7 0 -26004.4 -82738 0 -25943 -86271.2 0 -25878.5 -89796 0 -25811 -93312 0 -25740.4 -96818.8 0 -25666.6 -100316 0 -25589.6 -103803 0 -25509.4 -107279 0 -25425.8 -110745 0 -25338.7 -114199 0 -25248.2 -117641 0 -25154 -121071 0 -25056.3 -124489 0 -24954.7 -127892 0 -24849.4 -131282 0 -24740.1 -134658 0 -24626.8 -138019 0 -24509.3 -141364 0 -24387.5 -144694 0 -24261.4 -148007 0 -24130.8 -151303 0 -23995.6 -154581 0 -23855.6 -157841 0 -23710.7 -161082 0 -23560.7 -164303 0 -23405.4 -167504 0 -23244.8 -170684 0 -23078.6 -173842 0 -22906.6 -176978 0 -22728.6 -180091 0 -22544.4 -183179 0 -22353.8 -186243 0 -22156.5 -189281 0 -21952.3 -192292 0 -21740.9 -195276 0 -21522 -198232 0 -21295.3 -201158 0 -21060.5 -204053 0 -20817.2 -206917 0 -20565.1 -209749 0 -20303.7 -212546 0 -20032.6 -215309 0 -19751.5 -218035 0 -19459.7 -220723 0 -19156.7 -223373 0 -18842.1 -225982 0 -18515.1 -228549 0 -18175.1 -231073 0 -17821.5 -233552 0 -17453.3 -235983 0 -17069.9 -238366 0 -16670.2 -240698 0 -16253.4 -242978 0 -15818.2 -245202 0 -15363.6 -247369 0 -14888.2 -249477 0 -14390.6 -251522 0 -13869.2 -253503 0 -13322.3 -255416 0 -12748 -257258 0 -12144.1 -259026 0 -11508.2 -260716 0 -10837.7 -262326 0 -10129.6 -263850 0 -9380.5 -265285 0 -8586.6 -266626 0 -7743.58 -267869 0 -6846.54 -269008 0 -5889.84 -270038 0 -4867.02 -270953 0 -3770.63 -271747 0 -2592.04 -272414 0 -1321.18 -272946 0 53.6913 -273338 0 1546.39 -273580 0 3173.19 -273667 0 4953.35 -273592 0 6909.73 -273348 0 9069.43 -272931 0 11464.6 -272339 0 14133.2 -271574 0 17119.3 -270645 0 20473.6 -269569 0 24252 -268378 0 28512.6 -267122 0 33309.5 -265875 0 38682.5 -264738 0 44642.6 -263837 0 51157.1 -263310 0 58139.9 -263289 0 65455.8 -263869 0 72942.4 -265090 0 80442.4 -266930 0 87830 -269319 0 95019.7 -272165 0 101962 -275367 0 108642 -278833 0 115074 -282487 0 121282 -286279 0 127266 -290147 0 133069 -294073 0 138734 -298032 0 144244 -301992 0 149648 -305961 0 154958 -309915 0 -29344.7 0 0 -29343.3 -3670.67 0 -29339.2 -7341 0 -29332.3 -11010.7 0 -29322.7 -14679.3 0 -29310.3 -18346.6 0 -29295.1 -22012.2 0 -29277.1 -25675.7 0 -29256.4 -29336.9 0 -29232.8 -32995.4 0 -29206.4 -36650.7 0 -29177.1 -40302.7 0 -29145 -43950.9 0 -29110 -47595 0 -29072 -51234.6 0 -29031.1 -54869.3 0 -28987.2 -58498.9 0 -28940.3 -62122.8 0 -28890.4 -65740.9 0 -28837.3 -69352.6 0 -28781.1 -72957.6 0 -28721.8 -76555.5 0 -28659.2 -80145.9 0 -28593.3 -83728.5 0 -28524.2 -87302.8 0 -28451.6 -90868.3 0 -28375.6 -94424.8 0 -28296.1 -97971.7 0 -28213 -101509 0 -28126.2 -105035 0 -28035.8 -108551 0 -27941.6 -112055 0 -27843.5 -115548 0 -27741.4 -119028 0 -27635.3 -122496 0 -27525 -125950 0 -27410.5 -129391 0 -27291.6 -132817 0 -27168.3 -136229 0 -27040.3 -139625 0 -26907.7 -143005 0 -26770.2 -146369 0 -26627.8 -149716 0 -26480.2 -153045 0 -26327.4 -156356 0 -26169.1 -159647 0 -26005.2 -162919 0 -25835.5 -166171 0 -25659.9 -169402 0 -25478.1 -172611 0 -25289.9 -175797 0 -25095 -178960 0 -24893.4 -182100 0 -24684.6 -185214 0 -24468.4 -188302 0 -24244.6 -191364 0 -24012.9 -194398 0 -23772.9 -197404 0 -23524.2 -200380 0 -23266.6 -203325 0 -22999.7 -206239 0 -22722.9 -209120 0 -22436 -211968 0 -22138.3 -214780 0 -21829.5 -217555 0 -21509 -220293 0 -21176.1 -222992 0 -20830.3 -225650 0 -20470.9 -228266 0 -20097.1 -230839 0 -19708.3 -233366 0 -19303.4 -235846 0 -18881.7 -238277 0 -18442 -240657 0 -17983.4 -242985 0 -17504.6 -245257 0 -17004.2 -247472 0 -16481 -249628 0 -15933.3 -251721 0 -15359.4 -253750 0 -14757.3 -255711 0 -14125.1 -257601 0 -13460.2 -259418 0 -12760.2 -261157 0 -12022 -262815 0 -11242.5 -264389 0 -10418 -265875 0 -9544.31 -267267 0 -8616.75 -268563 0 -7630.01 -269756 0 -6578.01 -270842 0 -5453.82 -271816 0 -4249.43 -272671 0 -2955.64 -273403 0 -1561.79 -274005 0 -55.4831 -274472 0 1577.72 -274797 0 3354.7 -274976 0 5295.2 -275004 0 7422.32 -274877 0 9763.04 -274594 0 12348.7 -274159 0 15215.4 -273577 0 18403.7 -272863 0 21958.4 -272042 0 25926.1 -271151 0 30351.7 -270244 0 35271.5 -269395 0 40705 -268697 0 46643.5 -268258 0 53041.7 -268188 0 59815.2 -268583 0 66847.9 -269507 0 74010.4 -270978 0 81181.2 -272974 0 88262.5 -275437 0 95185.9 -278294 0 101912 -281466 0 108428 -284878 0 114738 -288471 0 120854 -292195 0 126786 -296005 0 132565 -299879 0 138213 -303791 0 143731 -307718 0 149156 -311660 0 154498 -315600 0 159767 -319533 0 -32018.5 0 0 -32017 -3714.88 0 -32012.4 -7429.4 0 -32004.7 -11143.2 0 -31994 -14856 0 -31980.2 -18567.4 0 -31963.2 -22277.1 0 -31943.2 -25984.6 0 -31920.1 -29689.7 0 -31893.8 -33392 0 -31864.4 -37091.1 0 -31831.8 -40786.8 0 -31795.9 -44478.5 0 -31756.9 -48166 0 -31714.6 -51848.8 0 -31669 -55526.7 0 -31620 -59199.2 0 -31567.7 -62866 0 -31512 -66526.6 0 -31452.8 -70180.7 0 -31390.2 -73827.9 0 -31323.9 -77467.8 0 -31254.1 -81100 0 -31180.6 -84724.1 0 -31103.4 -88339.6 0 -31022.4 -91946.2 0 -30937.6 -95543.3 0 -30848.8 -99130.7 0 -30756 -102708 0 -30659.1 -106274 0 -30558.1 -109829 0 -30452.8 -113373 0 -30343.2 -116904 0 -30229.1 -120423 0 -30110.5 -123928 0 -29987.2 -127420 0 -29859.2 -130897 0 -29726.2 -134360 0 -29588.2 -137808 0 -29445.1 -141240 0 -29296.7 -144655 0 -29142.8 -148053 0 -28983.3 -151434 0 -28818 -154796 0 -28646.7 -158139 0 -28469.3 -161463 0 -28285.6 -164766 0 -28095.3 -168049 0 -27898.3 -171309 0 -27694.3 -174548 0 -27483 -177762 0 -27264.3 -180953 0 -27037.7 -184119 0 -26803.2 -187259 0 -26560.2 -190372 0 -26308.5 -193458 0 -26047.8 -196515 0 -25777.6 -199543 0 -25497.7 -202540 0 -25207.5 -205505 0 -24906.6 -208437 0 -24594.5 -211335 0 -24270.8 -214199 0 -23934.8 -217025 0 -23586 -219814 0 -23223.7 -222564 0 -22847.3 -225273 0 -22456 -227940 0 -22049 -230563 0 -21625.5 -233141 0 -21184.6 -235672 0 -20725.1 -238154 0 -20246.2 -240585 0 -19746.5 -242963 0 -19224.7 -245286 0 -18679.5 -247552 0 -18109.3 -249758 0 -17512.4 -251903 0 -16886.9 -253983 0 -16230.8 -255995 0 -15541.7 -257937 0 -14817.2 -259806 0 -14054.3 -261598 0 -13250.1 -263310 0 -12400.9 -264939 0 -11502.8 -266480 0 -10551.5 -267929 0 -9541.78 -269283 0 -8468.09 -270536 0 -7323.96 -271685 0 -6102.03 -272724 0 -4793.9 -273649 0 -3389.9 -274455 0 -1878.95 -275136 0 -248.209 -275687 0 1517.11 -276106 0 3434.15 -276388 0 5522.71 -276530 0 7805.63 -276532 0 10309.1 -276397 0 13063 -2