<?xml version="1.0"?> 
<VTKFile type="StructuredGrid" version="0.1"> 
<StructuredGrid WholeExtent="0 127 0 127 0 0"> 
<Piece Extent="0 127 0 127 0 0"> 
<PointData>
<DataArray type="Float32" Name="E" format="ascii" NumberOfComponents="3"> 
-373343 0 0 -373308 -10758.2 0 -373202 -21517.5 0 -373025 -32279 0 -372777 -43044 0 -372457 -53813.5 0 -372066 -64588.8 0 -371603 -75371 0 -371066 -86161.4 0 -370457 -96961.4 0 -369773 -107772 0 -369013 -118595 0 -368178 -129432 0 -367267 -140284 0 -366277 -151153 0 -365207 -162040 0 -364058 -172947 0 -362827 -183877 0 -361513 -194831 0 -360115 -205810 0 -358631 -216818 0 -357059 -227857 0 -355399 -238928 0 -353648 -250036 0 -351805 -261181 0 -349868 -272367 0 -347835 -283597 0 -345705 -294875 0 -343476 -306202 0 -341147 -317584 0 -338715 -329022 0 -336179 -340522 0 -333536 -352087 0 -330786 -363721 0 -327927 -375427 0 -324957 -387212 0 -321875 -399079 0 -318678 -411032 0 -315366 -423077 0 -311938 -435219 0 -308391 -447462 0 -304724 -459813 0 -300937 -472275 0 -297028 -484856 0 -292996 -497560 0 -288839 -510394 0 -284558 -523363 0 -280150 -536472 0 -275616 -549730 0 -270953 -563140 0 -266161 -576711 0 -261239 -590448 0 -256186 -604357 0 -251002 -618447 0 -245684 -632723 0 -240231 -647192 0 -234644 -661862 0 -228919 -676741 0 -223057 -691835 0 -217054 -707153 0 -210910 -722703 0 -204623 -738493 0 -198190 -754532 0 -191609 -770829 0 -184878 -787393 0 -177995 -804234 0 -170956 -821362 0 -163758 -838789 0 -156397 -856526 0 -148871 -874583 0 -141175 -892975 0 -133304 -911713 0 -125255 -930811 0 -117022 -950284 0 -108599 -970147 0 -99981.8 -990416 0 -91162.9 -1.01111e+06 0 -82136.1 -1.03226e+06 0 -72894 -1.05387e+06 0 -63428.8 -1.07597e+06 0 -53731.9 -1.09858e+06 0 -43793.8 -1.12171e+06 0 -33604.8 -1.14537e+06 0 -23154.3 -1.16958e+06 0 -12431.7 -1.19436e+06 0 -1425.77 -1.21978e+06 0 9875.17 -1.24591e+06 0 21484.3 -1.27286e+06 0 33417.1 -1.30075e+06 0 45692.8 -1.32964e+06 0 58334.8 -1.35953e+06 0 71370.4 -1.39028e+06 0 84828.8 -1.42167e+06 0 98738.1 -1.45337e+06 0 113120 -1.48514e+06 0 127989 -1.51699e+06 0 143348 -1.54936e+06 0 159198 -1.58326e+06 0 175543 -1.62028e+06 0 192415 -1.66228e+06 0 209885 -1.71088e+06 0 228082 -1.76675e+06 0 247198 -1.82871e+06 0 267467 -1.89319e+06 0 289133 -1.95412e+06 0 312380 -2.00373e+06 0 337268 -2.0344e+06 0 363665 -2.04147e+06 0 391220 -2.02666e+06 0 419395 -2.00125e+06 0 447585 -1.9879e+06 0 475335 -2.01975e+06 0 502628 -2.13568e+06 0 530223 -2.37101e+06 0 559958 -2.74401e+06 0 594943 -3.23993e+06 0 639544 -3.79595e+06 0 699068 -4.29248e+06 0 779120 -4.55789e+06 0 884599 -4.39514e+06 0 1.01842e+06 -3.63955e+06 0 1.18008e+06 -2.25682e+06 0 1.36421e+06 -488875 0 1.55955e+06 946252 0 1.74794e+06 600021 0 1.90508e+06 -4.01819e+06 0 2.00051e+06 -1.67976e+07 0 2.00117e+06 -4.34261e+07 0 -382783 0 0 -382745 -11266.9 0 -382632 -22535.1 0 -382443 -33806 0 -382178 -45081.1 0 -381836 -56361.6 0 -381418 -67649.1 0 -380923 -78945 0 -380349 -90250.7 0 -379697 -101568 0 -378966 -112898 0 -378154 -124243 0 -377261 -135605 0 -376285 -146984 0 -375226 -158384 0 -374081 -169807 0 -372851 -181253 0 -371533 -192727 0 -370126 -204229 0 -368629 -215762 0 -367039 -227330 0 -365356 -238934 0 -363577 -250578 0 -361701 -262265 0 -359726 -273997 0 -357650 -285779 0 -355472 -297614 0 -353189 -309504 0 -350801 -321456 0 -348304 -333471 0 -345698 -345555 0 -342980 -357712 0 -340149 -369947 0 -337203 -382264 0 -334140 -394669 0 -330959 -407166 0 -327658 -419760 0 -324236 -432458 0 -320692 -445265 0 -317023 -458187 0 -313229 -471229 0 -309308 -484398 0 -305260 -497700 0 -301083 -511142 0 -296776 -524730 0 -292339 -538470 0 -287769 -552370 0 -283066 -566437 0 -278230 -580678 0 -273259 -595099 0 -268152 -609710 0 -262909 -624516 0 -257528 -639527 0 -252007 -654749 0 -246347 -670192 0 -240545 -685864 0 -234600 -701774 0 -228511 -717930 0 -222275 -734343 0 -215892 -751021 0 -209358 -767975 0 -202672 -785216 0 -195831 -802755 0 -188832 -820603 0 -181673 -838773 0 -174350 -857276 0 -166860 -876127 0 -159199 -895340 0 -151363 -914929 0 -143348 -934910 0 -135148 -955301 0 -126759 -976118 0 -118174 -997381 0 -109390 -1.01911e+06 0 -100397 -1.04132e+06 0 -91190 -1.06405e+06 0 -81760.3 -1.0873e+06 0 -72099.7 -1.11112e+06 0 -62199.4 -1.13553e+06 0 -52051.1 -1.16056e+06 0 -41646.2 -1.18624e+06 0 -30976.2 -1.21261e+06 0 -20030.8 -1.2397e+06 0 -8796.89 -1.26753e+06 0 2743.32 -1.29615e+06 0 14613.2 -1.3256e+06 0 26840.3 -1.35595e+06 0 39452.7 -1.38727e+06 0 52472.3 -1.41968e+06 0 65908.4 -1.45327e+06 0 79752.3 -1.48815e+06 0 93979.5 -1.52438e+06 0 108561 -1.56195e+06 0 123487 -1.60082e+06 0 138796 -1.64087e+06 0 154605 -1.68205e+06 0 171125 -1.72441e+06 0 188645 -1.76822e+06 0 207482 -1.8141e+06 0 227883 -1.86302e+06 0 249903 -1.91617e+06 0 273288 -1.97479e+06 0 297410 -2.03973e+06 0 321307 -2.11104e+06 0 343868 -2.18752e+06 0 364186 -2.2666e+06 0 382037 -2.34448e+06 0 398403 -2.41694e+06 0 415887 -2.48072e+06 0 438835 -2.53534e+06 0 472973 -2.58525e+06 0 524398 -2.64157e+06 0 597883 -2.72296e+06 0 694579 -2.8548e+06 0 809393 -3.06612e+06 0 928523 -3.38389e+06 0 1.02777e+06 -3.82497e+06 0 1.07238e+06 -4.38659e+06 0 1.01916e+06 -5.03696e+06 0 821426 -5.70886e+06 0 437339 -6.29961e+06 0 -158574 -6.68146e+06 0 -960839 -6.72729e+06 0 -1.91652e+06 -6.35508e+06 0 -2.9073e+06 -5.59826e+06 0 -3.73362e+06 -4.69528e+06 0 -4.09709e+06 -4.22867e+06 0 -3.60116e+06 -5.20958e+06 0 -392277 0 0 -392236 -11779.7 0 -392116 -23560.9 0 -391915 -35345.4 0 -391632 -47134.8 0 -391269 -58930.7 0 -390824 -70734.9 0 -390296 -82549.1 0 -389686 -94375 0 -388992 -106215 0 -388213 -118070 0 -387348 -129942 0 -386397 -141834 0 -385357 -153749 0 -384229 -165687 0 -383010 -177651 0 -381699 -189645 0 -380294 -201670 0 -378795 -213730 0 -377198 -225827 0 -375504 -237964 0 -373709 -250145 0 -371812 -262373 0 -369812 -274652 0 -367706 -286985 0 -365492 -299377 0 -363169 -311831 0 -360735 -324352 0 -358188 -336945 0 -355526 -349614 0 -352747 -362364 0 -349850 -375200 0 -346833 -388128 0 -343693 -401153 0 -340430 -414282 0 -337042 -427519 0 -333528 -440872 0 -329885 -454346 0 -326113 -467949 0 -322210 -481686 0 -318176 -495565 0 -314009 -509593 0 -309707 -523777 0 -305271 -538124 0 -300699 -552643 0 -295989 -567341 0 -291142 -582226 0 -286156 -597306 0 -281031 -612589 0 -275764 -628085 0 -270356 -643802 0 -264806 -659748 0 -259111 -675935 0 -253271 -692370 0 -247285 -709065 0 -241151 -726030 0 -234867 -743274 0 -228432 -760810 0 -221843 -778650 0 -215099 -796805 0 -208198 -815288 0 -201135 -834112 0 -193910 -853293 0 -186517 -872844 0 -178956 -892781 0 -171220 -913122 0 -163307 -933883 0 -155213 -955083 0 -146932 -976742 0 -138459 -998881 0 -129790 -1.02152e+06 0 -120918 -1.04469e+06 0 -111836 -1.06841e+06 0 -102538 -1.09271e+06 0 -93016.8 -1.11762e+06 0 -83264.2 -1.14317e+06 0 -73272.9 -1.1694e+06 0 -63034.9 -1.19634e+06 0 -52541.2 -1.22403e+06 0 -41780.8 -1.25251e+06 0 -30740 -1.28182e+06 0 -19401.6 -1.31201e+06 0 -7746.23 -1.34314e+06 0 4245.26 -1.37529e+06 0 16587.9 -1.40855e+06 0 29288.3 -1.44302e+06 0 42343 -1.47879e+06 0 55741.1 -1.51592e+06 0 69474.3 -1.55445e+06 0 83553.7 -1.59437e+06 0 98029.6 -1.63565e+06 0 113006 -1.67833e+06 0 128643 -1.72255e+06 0 145128 -1.76866e+06 0 162631 -1.81727e+06 0 181220 -1.86918e+06 0 200784 -1.92535e+06 0 220981 -1.98657e+06 0 241241 -2.05318e+06 0 260883 -2.12477e+06 0 279328 -2.19993e+06 0 296419 -2.27643e+06 0 312756 -2.35163e+06 0 329961 -2.42347e+06 0 350715 -2.49179e+06 0 378440 -2.55985e+06 0 416521 -2.63552e+06 0 467071 -2.73182e+06 0 529335 -2.86609e+06 0 598015 -3.05754e+06 0 661892 -3.32313e+06 0 703224 -3.67202e+06 0 698388 -4.0996e+06 0 620116 -4.58257e+06 0 441429 -5.07668e+06 0 141039 -5.51914e+06 0 -290431 -5.83682e+06 0 -844459 -5.96083e+06 0 -1.49028e+06 -5.84606e+06 0 -2.17375e+06 -5.49259e+06 0 -2.82106e+06 -4.96294e+06 0 -3.34839e+06 -4.38718e+06 0 -3.67867e+06 -3.9446e+06 0 -3.76484e+06 -3.81124e+06 0 -3.61989e+06 -4.05512e+06 0 -3.34956e+06 -4.47904e+06 0 -3.19123e+06 -4.36525e+06 0 -3.53574e+06 -2.23078e+06 0 -401823 0 0 -401780 -12296.4 0 -401652 -24594.6 0 -401439 -36896.7 0 -401140 -49204.5 0 -400755 -61520 0 -400283 -73845.2 0 -399724 -86182.2 0 -399076 -98533 0 -398340 -110900 0 -397514 -123285 0 -396597 -135691 0 -395588 -148120 0 -394486 -160574 0 -393289 -173057 0 -391995 -185572 0 -390604 -198120 0 -389114 -210705 0 -387522 -223331 0 -385828 -236001 0 -384029 -248719 0 -382124 -261488 0 -380111 -274312 0 -377987 -287196 0 -375752 -300143 0 -373403 -313160 0 -370937 -326249 0 -368354 -339418 0 -365651 -352670 0 -362827 -366012 0 -359879 -379448 0 -356806 -392986 0 -353606 -406631 0 -350278 -420390 0 -346820 -434270 0 -343231 -448277 0 -339509 -462418 0 -335653 -476701 0 -331661 -491134 0 -327533 -505723 0 -323267 -520478 0 -318863 -535406 0 -314319 -550516 0 -309635 -565817 0 -304810 -581316 0 -299843 -597024 0 -294732 -612949 0 -289478 -629101 0 -284079 -645491 0 -278535 -662128 0 -272844 -679022 0 -267005 -696185 0 -261017 -713628 0 -254879 -731363 0 -248590 -749401 0 -242147 -767756 0 -235549 -786440 0 -228795 -805468 0 -221881 -824854 0 -214806 -844614 0 -207567 -864764 0 -200161 -885321 0 -192585 -906302 0 -184836 -927728 0 -176910 -949619 0 -168803 -971995 0 -160512 -994881 0 -152030 -1.0183e+06 0 -143354 -1.04228e+06 0 -134478 -1.06685e+06 0 -125396 -1.09204e+06 0 -116103 -1.11788e+06 0 -106591 -1.14441e+06 0 -96854.1 -1.17166e+06 0 -86886 -1.19968e+06 0 -76678.4 -1.22851e+06 0 -66222 -1.25819e+06 0 -55505.2 -1.28877e+06 0 -44515.2 -1.32032e+06 0 -33238 -1.3529e+06 0 -21661.8 -1.38659e+06 0 -9779.13 -1.42148e+06 0 2411.32 -1.45767e+06 0 14905.3 -1.49523e+06 0 27698.8 -1.53425e+06 0 40797.8 -1.57476e+06 0 54231.6 -1.61682e+06 0 68063.1 -1.66051e+06 0 82389.6 -1.70597e+06 0 97326.2 -1.75349e+06 0 112970 -1.80349e+06 0 129344 -1.85656e+06 0 146345 -1.91334e+06 0 163707 -1.9744e+06 0 181016 -2.04003e+06 0 197804 -2.11005e+06 0 213720 -2.18373e+06 0 228758 -2.25988e+06 0 243482 -2.33728e+06 0 259157 -2.41538e+06 0 277664 -2.49515e+06 0 301109 -2.58011e+06 0 331081 -2.67687e+06 0 367577 -2.79515e+06 0 407779 -2.94682e+06 0 444919 -3.1437e+06 0 467605 -3.39441e+06 0 459963 -3.70066e+06 0 402894 -4.05368e+06 0 276561 -4.43196e+06 0 63962.5 -4.80141e+06 0 -244873 -5.1186e+06 0 -648823 -5.33755e+06 0 -1.13269e+06 -5.41932e+06 0 -1.66632e+06 -5.34282e+06 0 -2.20657e+06 -5.11421e+06 0 -2.70264e+06 -4.77174e+06 0 -3.10434e+06 -4.38276e+06 0 -3.37238e+06 -4.0309e+06 0 -3.48882e+06 -3.79322e+06 0 -3.46503e+06 -3.71084e+06 0 -3.34445e+06 -3.7605e+06 0 -3.19676e+06 -3.84066e+06 0 -3.10146e+06 -3.78855e+06 0 -3.11821e+06 -3.45626e+06 0 -3.24579e+06 -2.86091e+06 0 -3.36563e+06 -2.4681e+06 0 -3.18984e+06 -3.53704e+06 0 -411420 0 0 -411375 -12816.8 0 -411240 -25635.8 0 -411015 -38459.2 0 -410699 -51289.4 0 -410293 -64128.5 0 -409794 -76978.9 0 -409204 -89843.1 0 -408520 -102723 0 -407743 -115622 0 -406870 -128543 0 -405902 -141487 0 -404836 -154459 0 -403671 -167460 0 -402406 -180495 0 -401039 -193565 0 -399569 -206676 0 -397994 -219830 0 -396312 -233031 0 -394522 -246284 0 -392621 -259592 0 -390607 -272959 0 -388479 -286392 0 -386235 -299893 0 -383873 -313470 0 -381390 -327126 0 -378785 -340867 0 -376057 -354700 0 -373202 -368631 0 -370220 -382665 0 -367108 -396810 0 -363865 -411072 0 -360489 -425458 0 -356979 -439977 0 -353333 -454636 0 -349550 -469441 0 -345629 -484403 0 -341568 -499529 0 -337367 -514828 0 -333025 -530308 0 -328540 -545979 0 -323912 -561851 0 -319140 -577932 0 -314223 -594234 0 -309160 -610766 0 -303952 -627539 0 -298597 -644564 0 -293094 -661851 0 -287442 -679414 0 -281642 -697263 0 -275691 -715411 0 -269589 -733872 0 -263334 -752658 0 -256926 -771785 0 -250362 -791267 0 -243642 -811119 0 -236764 -831359 0 -229725 -852003 0 -222524 -873069 0 -215158 -894578 0 -207625 -916549 0 -199921 -939005 0 -192044 -961968 0 -183991 -985464 0 -175758 -1.00952e+06 0 -167341 -1.03416e+06 0 -158736 -1.05942e+06 0 -149940 -1.08533e+06 0 -140946 -1.11193e+06 0 -131751 -1.13925e+06 0 -122350 -1.16734e+06 0 -112737 -1.19623e+06 0 -102907 -1.22598e+06 0 -92853 -1.25664e+06 0 -82567.6 -1.28826e+06 0 -72042.2 -1.32091e+06 0 -61268.3 -1.35466e+06 0 -50239.6 -1.38959e+06 0 -38953.2 -1.42579e+06 0 -27410.8 -1.46336e+06 0 -15616.7 -1.50239e+06 0 -3573.53 -1.54296e+06 0 8725.98 -1.58516e+06 0 21306.9 -1.62908e+06 0 34216 -1.67487e+06 0 47515.5 -1.72273e+06 0 61262.9 -1.77296e+06 0 75476.1 -1.82598e+06 0 90092.7 -1.88226e+06 0 104938 -1.9423e+06 0 119726 -2.00647e+06 0 134105 -2.07486e+06 0 147773 -2.14729e+06 0 160630 -2.22329e+06 0 172940 -2.30238e+06 0 185415 -2.38447e+06 0 199151 -2.47051e+06 0 215321 -2.5631e+06 0 234588 -2.6669e+06 0 256276 -2.78864e+06 0 277429 -2.93632e+06 0 291974 -3.11778e+06 0 290292 -3.33836e+06 0 259476 -3.59832e+06 0 184505 -3.8904e+06 0 50378.9 -4.1984e+06 0 -154973 -4.49741e+06 0 -437445 -4.75632e+06 0 -793843 -4.94254e+06 0 -1.21005e+06 -5.02845e+06 0 -1.66103e+06 -4.9983e+06 0 -2.11303e+06 -4.85385e+06 0 -2.5282e+06 -4.61685e+06 0 -2.87083e+06 -4.32682e+06 0 -3.11437e+06 -4.03352e+06 0 -3.24764e+06 -3.78494e+06 0 -3.2785e+06 -3.61317e+06 0 -3.23365e+06 -3.52247e+06 0 -3.15362e+06 -3.48411e+06 0 -3.08332e+06 -3.44276e+06 0 -3.05961e+06 -3.33635e+06 0 -3.09873e+06 -3.12763e+06 0 -3.18811e+06 -2.83749e+06 0 -3.2869e+06 -2.56402e+06 0 -3.34137e+06 -2.45485e+06 0 -3.31789e+06 -2.60296e+06 0 -3.2602e+06 -2.79483e+06 0 -3.35965e+06 -2.12711e+06 0 -421069 0 0 -421021 -13340.8 0 -420879 -26684.1 0 -420642 -40032.5 0 -420310 -53388.7 0 -419882 -66755.3 0 -419358 -80135 0 -418737 -93530.6 0 -418017 -106945 0 -417199 -120381 0 -416281 -133841 0 -415262 -147330 0 -414140 -160849 0 -412914 -174404 0 -411583 -187996 0 -410144 -201631 0 -408597 -215311 0 -406939 -229042 0 -405168 -242827 0 -403283 -256672 0 -401282 -270581 0 -399163 -284559 0 -396924 -298611 0 -394562 -312744 0 -392076 -326963 0 -389465 -341273 0 -386725 -355683 0 -383855 -370198 0 -380854 -384825 0 -377719 -399573 0 -374449 -414447 0 -371043 -429457 0 -367499 -444610 0 -363815 -459915 0 -359990 -475381 0 -356024 -491016 0 -351915 -506831 0 -347662 -522834 0 -343264 -539035 0 -338721 -555446 0 -334032 -572075 0 -329196 -588935 0 -324212 -606037 0 -319081 -623391 0 -313802 -641010 0 -308374 -658906 0 -302796 -677092 0 -297068 -695581 0 -291190 -714388 0 -285161 -733525 0 -278980 -753009 0 -272645 -772855 0 -266158 -793080 0 -259515 -813700 0 -252716 -834735 0 -245760 -856202 0 -238644 -878124 0 -231369 -900521 0 -223930 -923416 0 -216328 -946833 0 -208559 -970800 0 -200621 -995344 0 -192512 -1.02049e+06 0 -184229 -1.04628e+06 0 -175770 -1.07274e+06 0 -167131 -1.09992e+06 0 -158310 -1.12784e+06 0 -149304 -1.15656e+06 0 -140110 -1.18611e+06 0 -130725 -1.21656e+06 0 -121146 -1.24796e+06 0 -111369 -1.28036e+06 0 -101389 -1.31383e+06 0 -91204.2 -1.34845e+06 0 -80812.4 -1.38431e+06 0 -70215.1 -1.42149e+06 0 -59417.4 -1.46009e+06 0 -48426.6 -1.50021e+06 0 -37249.5 -1.54196e+06 0 -25886.8 -1.58545e+06 0 -14328.7 -1.6308e+06 0 -2554.24 -1.67818e+06 0 9461.36 -1.72781e+06 0 21728.4 -1.77998e+06 0 34215.2 -1.83506e+06 0 46819 -1.89347e+06 0 59349.4 -1.9556e+06 0 71540.4 -2.02176e+06 0 83103.9 -2.0921e+06 0 93823.3 -2.16656e+06 0 103666 -2.24506e+06 0 112866 -2.32767e+06 0 121912 -2.41501e+06 0 131369 -2.50869e+06 0 141487 -2.61169e+06 0 151606 -2.72841e+06 0 159430 -2.86431e+06 0 160348 -3.02495e+06 0 147016 -3.21448e+06 0 109464 -3.43367e+06 0 35918.8 -3.67809e+06 0 -85590.8 -3.93675e+06 0 -264962 -4.19201e+06 0 -507431 -4.42098e+06 0 -811194 -4.59865e+06 0 -1.16587e+06 -4.70236e+06 0 -1.5524e+06 -4.71686e+06 0 -1.94469e+06 -4.63856e+06 0 -2.3131e+06 -4.47798e+06 0 -2.62923e+06 -4.25899e+06 0 -2.8712e+06 -4.01464e+06 0 -3.02824e+06 -3.77999e+06 0 -3.10331e+06 -3.58344e+06 0 -3.113e+06 -3.43898e+06 0 -3.08405e+06 -3.34192e+06 0 -3.04726e+06 -3.27031e+06 0 -3.02973e+06 -3.19285e+06 0 -3.04764e+06 -3.08176e+06 0 -3.10153e+06 -2.92689e+06 0 -3.17631e+06 -2.74519e+06 0 -3.24663e+06 -2.57918e+06 0 -3.28725e+06 -2.47994e+06 0 -3.28542e+06 -2.47605e+06 0 -3.25071e+06 -2.53837e+06 0 -3.21485e+06 -2.56828e+06 0 -3.2145e+06 -2.44655e+06 0 -3.2465e+06 -2.2204e+06 0 -3.19586e+06 -2.46821e+06 0 -430767 0 0 -430717 -13868.1 0 -430568 -27739.1 0 -430320 -41616.1 0 -429972 -55501.9 0 -429523 -69399.6 0 -428973 -83312.4 0 -428322 -97243.3 0 -427568 -111196 0 -426710 -125173 0 -425747 -139179 0 -424678 -153216 0 -423502 -167290 0 -422216 -181403 0 -420820 -195560 0 -419312 -209765 0 -417689 -224023 0 -415950 -238339 0 -414094 -252717 0 -412118 -267164 0 -410020 -281683 0 -407798 -296283 0 -405451 -310968 0 -402976 -325744 0 -400371 -340620 0 -397635 -355601 0 -394765 -370695 0 -391761 -385910 0 -388620 -401253 0 -385340 -416734 0 -381920 -432360 0 -378359 -448141 0 -374656 -464086 0 -370808 -480204 0 -366816 -496507 0 -362679 -513003 0 -358395 -529703 0 -353964 -546619 0 -349385 -563762 0 -344658 -581143 0 -339782 -598774 0 -334758 -616669 0 -329585 -634840 0 -324262 -653300 0 -318789 -672063 0 -313167 -691143 0 -307395 -710557 0 -301472 -730318 0 -295399 -750444 0 -289176 -770952 0 -282801 -791859 0 -276274 -813185 0 -269595 -834949 0 -262763 -857174 0 -255777 -879880 0 -248637 -903092 0 -241342 -926835 0 -233891 -951137 0 -226283 -976025 0 -218517 -1.00153e+06 0 -210591 -1.02769e+06 0 -202506 -1.05453e+06 0 -194259 -1.0821e+06 0 -185850 -1.11044e+06 0 -177279 -1.13958e+06 0 -168545 -1.16959e+06 0 -159647 -1.20051e+06 0 -150586 -1.23239e+06 0 -141361 -1.26531e+06 0 -131975 -1.29933e+06 0 -122427 -1.33453e+06 0 -112721 -1.37099e+06 0 -102863 -1.40881e+06 0 -92863.3 -1.44808e+06 0 -82733.1 -1.48891e+06 0 -72486.6 -1.53143e+06 0 -62136.2 -1.57575e+06 0 -51690.1 -1.62202e+06 0 -41152.9 -1.67041e+06 0 -30531.4 -1.72114e+06 0 -19849.3 -1.77448e+06 0 -9167.72 -1.83076e+06 0 1393.66 -1.89036e+06 0 11645.3 -1.95364e+06 0 21338.9 -2.0209e+06 0 30209 -2.09237e+06 0 38040 -2.16819e+06 0 44737 -2.24852e+06 0 50357.5 -2.33375e+06 0 55048.3 -2.42478e+06 0 58837.3 -2.5233e+06 0 61253.3 -2.63199e+06 0 60804.9 -2.75446e+06 0 54413 -2.8947e+06 0 36963 -3.05621e+06 0 1182.76 -3.24061e+06 0 -61960.9 -3.44616e+06 0 -162226 -3.66648e+06 0 -308448 -3.88993e+06 0 -506482 -4.10007e+06 0 -757141 -4.27747e+06 0 -1.05461e+06 -4.40269e+06 0 -1.38587e+06 -4.46008e+06 0 -1.73157e+06 -4.44141e+06 0 -2.06828e+06 -4.3486e+06 0 -2.3721e+06 -4.19433e+06 0 -2.62285e+06 -4.00027e+06 0 -2.80792e+06 -3.79277e+06 0 -2.92494e+06 -3.5971e+06 0 -2.9823e+06 -3.43141e+06 0 -2.99731e+06 -3.30248e+06 0 -2.99213e+06 -3.20451e+06 0 -2.98842e+06 -3.12198e+06 0 -3.00192e+06 -3.036e+06 0 -3.03866e+06 -2.9323e+06 0 -3.09389e+06 -2.80817e+06 0 -3.15442e+06 -2.67516e+06 0 -3.20379e+06 -2.5554e+06 0 -3.22901e+06 -2.47163e+06 0 -3.22629e+06 -2.43407e+06 0 -3.20358e+06 -2.42998e+06 0 -3.17774e+06 -2.42398e+06 0 -3.16665e+06 -2.37424e+06 0 -3.17814e+06 -2.26456e+06 0 -3.20206e+06 -2.13502e+06 0 -3.21386e+06 -2.07728e+06 0 -3.20249e+06 -2.11987e+06 0 -3.23256e+06 -1.92153e+06 0 -440514 0 0 -440462 -14398.6 0 -440306 -28800.5 0 -440047 -43209.2 0 -439683 -57628 0 -439214 -72060.4 0 -438640 -86509.9 0 -437959 -100980 0 -437171 -115475 0 -436275 -129998 0 -435269 -144553 0 -434152 -159145 0 -432922 -173777 0 -431579 -188455 0 -430120 -203183 0 -428544 -217966 0 -426848 -232809 0 -425032 -247718 0 -423092 -262698 0 -421028 -277755 0 -418837 -292897 0 -416517 -308129 0 -414066 -323458 0 -411483 -338892 0 -408765 -354438 0 -405910 -370105 0 -402918 -385900 0 -399786 -401832 0 -396512 -417911 0 -393096 -434146 0 -389536 -450546 0 -385831 -467123 0 -381980 -483885 0 -377982 -500845 0 -373836 -518013 0 -369542 -535401 0 -365098 -553022 0 -360506 -570887 0 -355765 -589010 0 -350874 -607404 0 -345834 -626082 0 -340645 -645060 0 -335306 -664352 0 -329818 -683973 0 -324182 -703940 0 -318397 -724269 0 -312463 -744979 0 -306382 -766087 0 -300153 -787614 0 -293776 -809578 0 -287253 -832003 0 -280582 -854911 0 -273765 -878326 0 -266801 -902274 0 -259691 -926782 0 -252435 -951880 0 -245034 -977598 0 -237487 -1.00397e+06 0 -229797 -1.03104e+06 0 -221963 -1.05883e+06 0 -213987 -1.0874e+06 0 -205871 -1.11678e+06 0 -197615 -1.14703e+06 0 -189223 -1.1782e+06 0 -180699 -1.21035e+06 0 -172045 -1.24353e+06 0 -163266 -1.27783e+06 0 -154369 -1.31332e+06 0 -145362 -1.35007e+06 0 -136254 -1.3882e+06 0 -127060 -1.42778e+06 0 -117799 -1.46895e+06 0 -108491 -1.51182e+06 0 -99160.7 -1.55652e+06 0 -89831.8 -1.60319e+06 0 -80530.6 -1.65202e+06 0 -71289.3 -1.70321e+06 0 -62155.6 -1.75702e+06 0 -53209.1 -1.81373e+06 0 -44577.5 -1.8737e+06 0 -36447.2 -1.93726e+06 0 -29059.4 -2.00475e+06 0 -22684.7 -2.07646e+06 0 -17580.6 -2.15265e+06 0 -13950.8 -2.23362e+06 0 -11938.7 -2.31988e+06 0 -11700.5 -2.41232e+06 0 -13597 -2.51244e+06 0 -18516.5 -2.6224e+06 0 -28298.5 -2.7449e+06 0 -46163.6 -2.88276e+06 0 -77004.4 -3.03804e+06 0 -127363 -3.21097e+06 0 -204940 -3.39882e+06 0 -317569 -3.59492e+06 0 -471713 -3.78845e+06 0 -670719 -3.9651e+06 0 -913200 -4.10873e+06 0 -1.19199e+06 -4.20406e+06 0 -1.49411e+06 -4.23967e+06 0 -1.80189e+06 -4.21082e+06 0 -2.09542e+06 -4.12117e+06 0 -2.35571e+06 -3.98269e+06 0 -2.56813e+06 -3.81374e+06 0 -2.72519e+06 -3.63536e+06 0 -2.82801e+06 -3.46663e+06 0 -2.88586e+06 -3.32049e+06 0 -2.91385e+06 -3.2011e+06 0 -2.9292e+06 -3.1038e+06 0 -2.94698e+06 -3.01777e+06 0 -2.97652e+06 -2.93079e+06 0 -3.0195e+06 -2.83443e+06 0 -3.07039e+06 -2.7279e+06 0 -3.11911e+06 -2.61865e+06 0 -3.15522e+06 -2.51941e+06 0 -3.17214e+06 -2.44203e+06 0 -3.17005e+06 -2.39093e+06 0 -3.15603e+06 -2.359e+06 0 -3.14129e+06 -2.32908e+06 0 -3.13632e+06 -2.28189e+06 0 -3.14571e+06 -2.20787e+06 0 -3.16551e+06 -2.11673e+06 0 -3.18505e+06 -2.03646e+06 0 -3.19385e+06 -1.99512e+06 0 -3.19074e+06 -1.99e+06 0 -3.18808e+06 -1.96818e+06 0 -3.19851e+06 -1.88063e+06 0 -3.18789e+06 -1.91448e+06 0 -450308 0 0 -450254 -14932.1 0 -450092 -29867.9 0 -449822 -44811.4 0 -449443 -59766.4 0 -448955 -74736.7 0 -448357 -89726.4 0 -447648 -104740 0 -446827 -119780 0 -445893 -134853 0 -444846 -149963 0 -443683 -165113 0 -442402 -180310 0 -441003 -195559 0 -439484 -210864 0 -437843 -226231 0 -436078 -241666 0 -434186 -257176 0 -432168 -272766 0 -430019 -288445 0 -427739 -304218 0 -425326 -320093 0 -422777 -336079 0 -420091 -352183 0 -417266 -368415 0 -414301 -384782 0 -411193 -401295 0 -407942 -417963 0 -404546 -434797 0 -401004 -451807 0 -397315 -469004 0 -393477 -486399 0 -389492 -504005 0 -385357 -521834 0 -381073 -539899 0 -376639 -558212 0 -372056 -576787 0 -367323 -595639 0 -362440 -614782 0 -357409 -634232 0 -352230 -654004 0 -346902 -674115 0 -341428 -694582 0 -335807 -715422 0 -330041 -736656 0 -324130 -758302 0 -318076 -780381 0 -311880 -802915 0 -305542 -825928 0 -299063 -849442 0 -292447 -873485 0 -285692 -898085 0 -278802 -923269 0 -271778 -949070 0 -264622 -975522 0 -257336 -1.00266e+06 0 -249922 -1.03052e+06 0 -242385 -1.05915e+06 0 -234727 -1.0886e+06 0 -226952 -1.1189e+06 0 -219066 -1.15012e+06 0 -211074 -1.18231e+06 0 -202984 -1.21554e+06 0 -194804 -1.24987e+06 0 -186543 -1.28537e+06 0 -178215 -1.32214e+06 0 -169833 -1.36027e+06 0 -161417 -1.39984e+06 0 -152990 -1.44099e+06 0 -144579 -1.48381e+06 0 -136217 -1.52846e+06 0 -127943 -1.57508e+06 0 -119797 -1.62383e+06 0 -111831 -1.67491e+06 0 -104111 -1.72855e+06 0 -96728.8 -1.78502e+06 0 -89815.7 -1.84464e+06 0 -83555.2 -1.90772e+06 0 -78185.1 -1.97462e+06 0 -73987 -2.04565e+06 0 -71264 -2.12115e+06 0 -70318.6 -2.20147e+06 0 -71454.9 -2.28712e+06 0 -75041 -2.37887e+06 0 -81660.1 -2.47791e+06 0 -92364.9 -2.58587e+06 0 -109007 -2.70472e+06 0 -134568 -2.83638e+06 0 -173366 -2.98208e+06 0 -230994 -3.14147e+06 0 -313866 -3.31172e+06 0 -428313 -3.4868e+06 0 -579295 -3.65733e+06 0 -768940 -3.81119e+06 0 -995238 -3.93497e+06 0 -1.25128e+06 -4.01618e+06 0 -1.52537e+06 -4.04573e+06 0 -1.80219e+06 -4.02013e+06 0 -2.06496e+06 -3.94276e+06 0 -2.29819e+06 -3.82375e+06 0 -2.49046e+06 -3.67819e+06 0 -2.63653e+06 -3.52308e+06 0 -2.73824e+06 -3.37375e+06 0 -2.80373e+06 -3.24057e+06 0 -2.84527e+06 -3.12717e+06 0 -2.87613e+06 -3.03059e+06 0 -2.90723e+06 -2.9434e+06 0 -2.94468e+06 -2.85724e+06 0 -2.9888e+06 -2.76641e+06 0 -3.03498e+06 -2.67036e+06 0 -3.07606e+06 -2.5738e+06 0 -3.10544e+06 -2.48458e+06 0 -3.11992e+06 -2.40981e+06 0 -3.12109e+06 -2.352e+06 0 -3.11483e+06 -2.30707e+06 0 -3.109e+06 -2.26556e+06 0 -3.11018e+06 -2.21695e+06 0 -3.12084e+06 -2.15554e+06 0 -3.13829e+06 -2.0846e+06 0 -3.15608e+06 -2.01596e+06 0 -3.16762e+06 -1.96339e+06 0 -3.17014e+06 -1.93233e+06 0 -3.16684e+06 -1.91232e+06 0 -3.1648e+06 -1.88134e+06 0 -3.16864e+06 -1.82655e+06 0 -3.17413e+06 -1.7699e+06 0 -3.17166e+06 -1.75438e+06 0 -3.17835e+06 -1.68375e+06 0 -460149 0 0 -460093 -15468.3 0 -459925 -30940.9 0 -459644 -46422.1 0 -459251 -61916.2 0 -458744 -77427.5 0 -458123 -92960.7 0 -457387 -108520 0 -456535 -124111 0 -455566 -139738 0 -454478 -155406 0 -453271 -171120 0 -451942 -186887 0 -450490 -202711 0 -448913 -218599 0 -447210 -234557 0 -445379 -250592 0 -443417 -266710 0 -441323 -282920 0 -439095 -299228 0 -436732 -315643 0 -434230 -332173 0 -431590 -348828 0 -428808 -365615 0 -425884 -382546 0 -422816 -399630 0 -419602 -416877 0 -416242 -434299 0 -412734 -451907 0 -409077 -469713 0 -405272 -487729 0 -401317 -505968 0 -397212 -524445 0 -392957 -543171 0 -388553 -562162 0 -383999 -581433 0 -379297 -600999 0 -374446 -620876 0 -369448 -641080 0 -364304 -661630 0 -359015 -682544 0 -353581 -703839 0 -348006 -725537 0 -342290 -747658 0 -336435 -770224 0 -330442 -793257 0 -324315 -816783 0 -318055 -840827 0 -311665 -865416 0 -305147 -890580 0 -298505 -916349 0 -291741 -942757 0 -284859 -969840 0 -277864 -997634 0 -270760 -1.02618e+06 0 -263552 -1.05553e+06 0 -256247 -1.08572e+06 0 -248851 -1.11681e+06 0 -241373 -1.14886e+06 0 -233823 -1.18192e+06 0 -226212 -1.21606e+06 0 -218553 -1.25136e+06 0 -210861 -1.28789e+06 0 -203156 -1.32574e+06 0 -195460 -1.36502e+06 0 -187799 -1.40582e+06 0 -180208 -1.44827e+06 0 -172724 -1.4925e+06 0 -165394 -1.53864e+06 0 -158271 -1.58687e+06 0 -151420 -1.63735e+06 0 -144918 -1.6903e+06 0 -138866 -1.74597e+06 0 -133397 -1.80463e+06 0 -128689 -1.86659e+06 0 -124974 -1.93218e+06 0 -122537 -2.00173e+06 0 -121706 -2.07559e+06 0 -122849 -2.15413e+06 0 -126372 -2.23781e+06 0 -132764 -2.32726e+06 0 -142705 -2.42336e+06 0 -157252 -2.52729e+06 0 -178089 -2.64046e+06 0 -207781 -2.76418e+06 0 -249952 -2.89925e+06 0 -309244 -3.0452e+06 0 -390963 -3.19959e+06 0 -500352 -3.35743e+06 0 -641533 -3.51097e+06 0 -816280 -3.65014e+06 0 -1.02291e+06 -3.76372e+06 0 -1.25563e+06 -3.84105e+06 0 -1.50457e+06 -3.87414e+06 0 -1.75681e+06 -3.8595e+06 0 -1.9981e+06 -3.7993e+06 0 -2.21528e+06 -3.70131e+06 0 -2.3985e+06 -3.57763e+06 0 -2.54307e+06 -3.44221e+06 0 -2.65011e+06 -3.30796e+06 0 -2.72588e+06 -3.18415e+06 0 -2.78001e+06 -3.07479e+06 0 -2.82284e+06 -2.97871e+06 0 -2.86285e+06 -2.89106e+06 0 -2.90478e+06 -2.80593e+06 0 -2.94897e+06 -2.71904e+06 0 -2.99217e+06 -2.6296e+06 0 -3.02951e+06 -2.54046e+06 0 -3.05675e+06 -2.45671e+06 0 -3.0723e+06 -2.38311e+06 0 -3.07797e+06 -2.32155e+06 0 -3.07839e+06 -2.26985e+06 0 -3.07919e+06 -2.22238e+06 0 -3.08475e+06 -2.1727e+06 0 -3.0965e+06 -2.11689e+06 0 -3.11241e+06 -2.05587e+06 0 -3.12817e+06 -1.99535e+06 0 -3.13939e+06 -1.9427e+06 0 -3.14399e+06 -1.9022e+06 0 -3.14332e+06 -1.87131e+06 0 -3.14136e+06 -1.84113e+06 0 -3.14208e+06 -1.80225e+06 0 -3.14655e+06 -1.75333e+06 0 -3.15191e+06 -1.70519e+06 0 -3.1543e+06 -1.6715e+06 0 -3.15418e+06 -1.64776e+06 0 -3.15786e+06 -1.60387e+06 0 -3.15746e+06 -1.58583e+06 0 -470036 0 0 -469978 -16007.2 0 -469804 -32019.1 0 -469514 -48040.6 0 -469106 -64076.6 0 -468582 -80131.9 0 -467939 -96211.6 0 -467177 -112321 0 -466295 -128465 0 -465292 -144650 0 -464167 -160880 0 -462917 -177163 0 -461542 -193504 0 -460040 -209909 0 -458409 -226386 0 -456648 -242941 0 -454754 -259583 0 -452726 -276318 0 -450562 -293155 0 -448260 -310102 0 -445818 -327169 0 -443236 -344365 0 -440511 -361700 0 -437641 -379184 0 -434626 -396828 0 -431464 -414643 0 -428155 -432641 0 -424696 -450835 0 -421089 -469237 0 -417332 -487860 0 -413425 -506718 0 -409368 -525826 0 -405162 -545199 0 -400806 -564851 0 -396303 -584800 0 -391652 -605062 0 -386855 -625655 0 -381913 -646596 0 -376828 -667904 0 -371602 -689600 0 -366237 -711704 0 -360735 -734238 0 -355099 -757225 0 -349331 -780689 0 -343435 -804655 0 -337413 -829150 0 -331270 -854204 0 -325009 -879845 0 -318634 -906107 0 -312151 -933025 0 -305566 -960635 0 -298883 -988978 0 -292109 -1.0181e+06 0 -285254 -1.04804e+06 0 -278324 -1.07885e+06 0 -271331 -1.11058e+06 0 -264286 -1.1433e+06 0 -257202 -1.17707e+06 0 -250096 -1.21196e+06 0 -242985 -1.24805e+06 0 -235891 -1.28541e+06 0 -228840 -1.32414e+06 0 -221860 -1.36435e+06 0 -214988 -1.40614e+06 0 -208267 -1.44963e+06 0 -201748 -1.49497e+06 0 -195490 -1.5423e+06 0 -189564 -1.59179e+06 0 -184057 -1.64364e+06 0 -179073 -1.69805e+06 0 -174746 -1.75527e+06 0 -171245 -1.81559e+06 0 -168791 -1.87931e+06 0 -167658 -1.94675e+06 0 -168178 -2.01824e+06 0 -170743 -2.09416e+06 0 -175804 -2.17489e+06 0 -183901 -2.26095e+06 0 -195735 -2.35297e+06 0 -212286 -2.4518e+06 0 -235001 -2.5584e+06 0 -265991 -2.67371e+06 0 -308189 -2.79828e+06 0 -365361 -2.93176e+06 0 -441877 -3.07232e+06 0 -542176 -3.2161e+06 0 -669931 -3.35699e+06 0 -827039 -3.48681e+06 0 -1.01263e+06 -3.59613e+06 0 -1.22242e+06 -3.67563e+06 0 -1.4486e+06 -3.71778e+06 0 -1.68051e+06 -3.71849e+06 0 -1.90605e+06 -3.67824e+06 0 -2.11359e+06 -3.60234e+06 0 -2.29398e+06 -3.50006e+06 0 -2.44213e+06 -3.38282e+06 0 -2.55775e+06 -3.26185e+06 0 -2.64502e+06 -3.14592e+06 0 -2.71115e+06 -3.03987e+06 0 -2.76433e+06 -2.94423e+06 0 -2.8116e+06 -2.8563e+06 0 -2.85723e+06 -2.77197e+06 0 -2.90214e+06 -2.68784e+06 0 -2.94447e+06 -2.60279e+06 0 -2.98101e+06 -2.51836e+06 0 -3.00896e+06 -2.43789e+06 0 -3.02741e+06 -2.36481e+06 0 -3.03791e+06 -2.30086e+06 0 -3.04395e+06 -2.24504e+06 0 -3.04969e+06 -2.19395e+06 0 -3.05828e+06 -2.14331e+06 0 -3.07073e+06 -2.09008e+06 0 -3.08565e+06 -2.03409e+06 0 -3.10008e+06 -1.97814e+06 0 -3.11099e+06 -1.92646e+06 0 -3.11689e+06 -1.88212e+06 0 -3.11851e+06 -1.84484e+06 0 -3.11841e+06 -1.81066e+06 0 -3.11945e+06 -1.77421e+06 0 -3.12315e+06 -1.7325e+06 0 -3.1