<?xml version="1.0"?> 
<VTKFile type="StructuredGrid" version="0.1"> 
<StructuredGrid WholeExtent="0 15 0 15 0 0"> 
<Piece Extent="0 15 0 15 0 0"> 
<PointData>
<DataArray type="Float32" Name="|E|" format="ascii" NumberOfComponents="3"> 
1.66982e+06 -666051 0 1.92468e+06 -287597 0 1.93518e+06 34501.2 0 1.78343e+06 213605 0 1.58583e+06 281281 0 1.38972e+06 289364 0 1.21168e+06 269573 0 1.05613e+06 238381 0 923725 203821 0 813361 169469 0 723492 136847 0 652479 106332 0 598858 77824.7 0 561432 50938.9 0 539330 25182.5 0 532022 0 0 1.71641e+06 -684634 0 1.9686e+06 -286724 0 1.95717e+06 54177.1 0 1.78856e+06 236514 0 1.58288e+06 302526 0 1.38358e+06 307991 0 1.20483e+06 285596 0 1.04958e+06 251994 0 917892 215225 0 808317 178859 0 719186 144396 0 648795 112189 0 595660 82111.1 0 558581 53745.4 0 536685 26570.6 0 529444 0 0 1.76505e+06 -704035 0 2.01466e+06 -282873 0 1.97925e+06 76423 0 1.79326e+06 260653 0 1.57948e+06 324256 0 1.37711e+06 326752 0 1.1977e+06 301603 0 1.0428e+06 265533 0 911847 226539 0 803080 188165 0 714702 151873 0 644945 117989 0 592306 86354.6 0 555580 56523.9 0 533893 27944.7 0 526722 0 0 1.81581e+06 -724284 0 2.06298e+06 -275787 0 2.00121e+06 101347 0 1.79743e+06 285997 0 1.5756e+06 346447 0 1.37029e+06 345634 0 1.19029e+06 317588 0 1.03578e+06 278996 0 905588 237762 0 797651 197384 0 710040 159275 0 640930 123729 0 588796 90554.3 0 552429 59273.7 0 530956 29304.6 0 523856 0 0 1.86896e+06 -745483 0 2.11363e+06 -265096 0 2.02282e+06 129035 0 1.80095e+06 312513 0 1.57117e+06 369072 0 1.36309e+06 364622 0 1.18258e+06 333539 0 1.02851e+06 292378 0 899114 248889 0 792029 206516 0 705201 166601 0 636750 129409 0 585130 94709.3 0 549129 61994.3 0 527874 30650 0 520846 0 0 1.9249e+06 -767795 0 2.16665e+06 -250313 0 2.04382e+06 159546 0 1.80372e+06 340158 0 1.56616e+06 392100 0 1.35551e+06 383701 0 1.17455e+06 349447 0 1.021e+06 305676 0 892424 259917 0 786215 215558 0 700185 173849 0 632406 135029 0 581310 98818.3 0 545682 64685.2 0 524648 31980.6 0 517694 0 0 1.98419e+06 -791447 0 2.22201e+06 -230825 0 2.06394e+06 192895 0 1.80564e+06 368884 0 1.5605e+06 415495 0 1.34753e+06 402852 0 1.16621e+06 365304 0 1.01324e+06 318884 0 885517 270842 0 780209 224509 0 694995 181016 0 627900 140586 0 577336 102881 0 542087 67345.8 0 521279 33296.2 0 514399 0 0 2.04763e+06 -816753 0 2.27956e+06 -205886 0 2.0829e+06 229052 0 1.80661e+06 398635 0 1.55417e+06 439217 0 1.33914e+06 422056 0 1.15755e+06 381098 0 1.00524e+06 331997 0 878393 281661 0 774014 233366 0 689629 188102 0 623231 146080 0 573210 106895 0 538346 69975.6 0 517767 34596.3 0 510964 0 0 2.11635e+06 -844161 0 2.33901e+06 -174617 0 2.10039e+06 267920 0 1.80652e+06 429355 0 1.54712e+06 463221 0 1.33031e+06 441290 0 1.14855e+06 396821 0 996984 345007 0 871050 292371 0 767628 242127 0 684090 195104 0 618402 151509 0 568933 110861 0 534459 72573.9 0 514114 35880.8 0 507388 0 0 2.19201e+06 -874342 0 2.39986e+06 -136027 0 2.11616e+06 309335 0 1.80524e+06 460983 0 1.53934e+06 487461 0 1.32104e+06 460528 0 1.13923e+06 412468 0 988476 357903 0 863490 302972 0 761052 250786 0 678379 202022 0 613412 156871 0 564505 114777 0 530427 75139.9 0 510320 37149.3 0 503674 0 0 2.27729e+06 -908356 0 2.46135e+06 -89081.1 0 2.12997e+06 353062 0 1.80264e+06 493454 0 1.53084e+06 511887 0 1.31129e+06 479743 0 1.12957e+06 428035 0 979711 370673 0 855715 313465 0 754288 259338 0 672496 208858 0 608264 162164 0 559927 118645 0 526252 77672.7 0 506387 38401.8 0 499821 0 0 2.37652e+06 -947936 0 2.52238e+06 -32850.4 0 2.14166e+06 398833 0 1.79855e+06 526694 0 1.52163e+06 536449 0 1.30103e+06 498901 0 1.11959e+06 443521 0 970682 383299 0 847726 323855 0 747334 267775 0 666443 215612 0 602957 167384 0 555201 122463 0 521933 80171.1 0 502315 39637.8 0 495831 0 0 2.49704e+06 -996009 0 2.58148e+06 33173.2 0 2.15112e+06 446420 0 1.7928e+06 560599 0 1.51176e+06 561099 0 1.29021e+06 517971 0 1.10931e+06 458924 0 961377 395768 0 839530 334144 0 740191 276089 0 660221 222286 0 597495 172527 0 550327 126234 0 517474 82633.7 0 498104 40857.1 0 491703 0 0 2.65147e+06 -1.05761e+06 0 2.63685e+06 108452 0 2.1582e+06 495819 0 1.78523e+06 594990 0 1.50128e+06 585791 0 1.2788e+06 536936 0 1.09874e+06 474223 0 951786 408076 0 831132 344327 0 732856 284277 0 653833 228880 0 591877 177592 0 545305 129955 0 512875 85059.9 0 493756 42059.4 0 487437 0 0 2.86177e+06 -1.14149e+06 0 2.68654e+06 190255 0 2.16256e+06 547615 0 1.77589e+06 629528 0 1.49014e+06 610476 0 1.26679e+06 555829 0 1.08788e+06 489344 0 941912 420268 0 822533 354362 0 725333 292363 0 647279 235375 0 586106 182586 0 540137 133621 0 508139 87451.6 0 489270 43244.1 0 483034 0 0 3.16647e+06 -1.26303e+06 0 2.72903e+06 271502 0 2.16311e+06 603680 0 1.76528e+06 663548 0 1.47804e+06 635085 0 1.25436e+06 574808 0 1.07666e+06 504070 0 931792 432510 0 813717 364117 0 717628 300431 0 640559 241713 0 580182 187545 0 534825 137211 0 503264 89817.7 0 484649 44410.9 0 478496 0 0 </DataArray> 
</PointData> 
<Points> 
<DataArray type="Float32" NumberOfComponents="3"> 
0.1947 0.02 0 0.206587 0.02 0 0.218473 0.02 0 0.23036 0.02 0 0.242247 0.02 0 0.254133 0.02 0 0.26602 0.02 0 0.277907 0.02 0 0.289793 0.02 0 0.30168 0.02 0 0.313567 0.02 0 0.325453 0.02 0 0.33734 0.02 0 0.349227 0.02 0 0.361113 0.02 0 0.373 0.02 0 0.195173 0.0211867 0 0.207028 0.0211867 0 0.218884 0.0211867 0 0.230739 0.0211867 0 0.242594 0.0211867 0 0.254449 0.0211867 0 0.266304 0.0211867 0 0.278159 0.0211867 0 0.290014 0.0211867 0 0.301869 0.0211867 0 0.313724 0.0211867 0 0.32558 0.0211867 0 0.337435 0.0211867 0 0.34929 0.0211867 0 0.361145 0.0211867 0 0.373 0.0211867 0 0.195647 0.0223733 0 0.20747 0.0223733 0 0.219294 0.0223733 0 0.231117 0.0223733 0 0.242941 0.0223733 0 0.254764 0.0223733 0 0.266588 0.0223733 0 0.278412 0.0223733 0 0.290235 0.0223733 0 0.302059 0.0223733 0 0.313882 0.0223733 0 0.325706 0.0223733 0 0.337529 0.0223733 0 0.349353 0.0223733 0 0.361176 0.0223733 0 0.373 0.0223733 0 0.19612 0.02356 0 0.207912 0.02356 0 0.219704 0.02356 0 0.231496 0.02356 0 0.243288 0.02356 0 0.25508 0.02356 0 0.266872 0.02356 0 0.278664 0.02356 0 0.290456 0.02356 0 0.302248 0.02356 0 0.31404 0.02356 0 0.325832 0.02356 0 0.337624 0.02356 0 0.349416 0.02356 0 0.361208 0.02356 0 0.373 0.02356 0 0.196593 0.0247467 0 0.208354 0.0247467 0 0.220114 0.0247467 0 0.231875 0.0247467 0 0.243635 0.0247467 0 0.255396 0.0247467 0 0.267156 0.0247467 0 0.278916 0.0247467 0 0.290677 0.0247467 0 0.302437 0.0247467 0 0.314198 0.0247467 0 0.325958 0.0247467 0 0.337719 0.0247467 0 0.349479 0.0247467 0 0.36124 0.0247467 0 0.373 0.0247467 0 0.197067 0.0259333 0 0.208796 0.0259333 0 0.220524 0.0259333 0 0.232253 0.0259333 0 0.243982 0.0259333 0 0.255711 0.0259333 0 0.26744 0.0259333 0 0.279169 0.0259333 0 0.290898 0.0259333 0 0.302627 0.0259333 0 0.314356 0.0259333 0 0.326084 0.0259333 0 0.337813 0.0259333 0 0.349542 0.0259333 0 0.361271 0.0259333 0 0.373 0.0259333 0 0.19754 0.02712 0 0.209237 0.02712 0 0.220935 0.02712 0 0.232632 0.02712 0 0.244329 0.02712 0 0.256027 0.02712 0 0.267724 0.02712 0 0.279421 0.02712 0 0.291119 0.02712 0 0.302816 0.02712 0 0.314513 0.02712 0 0.326211 0.02712 0 0.337908 0.02712 0 0.349605 0.02712 0 0.361303 0.02712 0 0.373 0.02712 0 0.198013 0.0283067 0 0.209679 0.0283067 0 0.221345 0.0283067 0 0.233011 0.0283067 0 0.244676 0.0283067 0 0.256342 0.0283067 0 0.268008 0.0283067 0 0.279674 0.0283067 0 0.29134 0.0283067 0 0.303005 0.0283067 0 0.314671 0.0283067 0 0.326337 0.0283067 0 0.338003 0.0283067 0 0.349668 0.0283067 0 0.361334 0.0283067 0 0.373 0.0283067 0 0.198487 0.0294933 0 0.210121 0.0294933 0 0.221755 0.0294933 0 0.233389 0.0294933 0 0.245024 0.0294933 0 0.256658 0.0294933 0 0.268292 0.0294933 0 0.279926 0.0294933 0 0.29156 0.0294933 0 0.303195 0.0294933 0 0.314829 0.0294933 0 0.326463 0.0294933 0 0.338097 0.0294933 0 0.349732 0.0294933 0 0.361366 0.0294933 0 0.373 0.0294933 0 0.19896 0.03068 0 0.210563 0.03068 0 0.222165 0.03068 0 0.233768 0.03068 0 0.245371 0.03068 0 0.256973 0.03068 0 0.268576 0.03068 0 0.280179 0.03068 0 0.291781 0.03068 0 0.303384 0.03068 0 0.314987 0.03068 0 0.326589 0.03068 0 0.338192 0.03068 0 0.349795 0.03068 0 0.361397 0.03068 0 0.373 0.03068 0 0.199433 0.0318667 0 0.211004 0.0318667 0 0.222576 0.0318667 0 0.234147 0.0318667 0 0.245718 0.0318667 0 0.257289 0.0318667 0 0.26886 0.0318667 0 0.280431 0.0318667 0 0.292002 0.0318667 0 0.303573 0.0318667 0 0.315144 0.0318667 0 0.326716 0.0318667 0 0.338287 0.0318667 0 0.349858 0.0318667 0 0.361429 0.0318667 0 0.373 0.0318667 0 0.199907 0.0330533 0 0.211446 0.0330533 0 0.222986 0.0330533 0 0.234525 0.0330533 0 0.246065 0.0330533 0 0.257604 0.0330533 0 0.269144 0.0330533 0 0.280684 0.0330533 0 0.292223 0.0330533 0 0.303763 0.0330533 0 0.315302 0.0330533 0 0.326842 0.0330533 0 0.338381 0.0330533 0 0.349921 0.0330533 0 0.36146 0.0330533 0 0.373 0.0330533 0 0.20038 0.03424 0 0.211888 0.03424 0 0.223396 0.03424 0 0.234904 0.03424 0 0.246412 0.03424 0 0.25792 0.03424 0 0.269428 0.03424 0 0.280936 0.03424 0 0.292444 0.03424 0 0.303952 0.03424 0 0.31546 0.03424 0 0.326968 0.03424 0 0.338476 0.03424 0 0.349984 0.03424 0 0.361492 0.03424 0 0.373 0.03424 0 0.200853 0.0354267 0 0.21233 0.0354267 0 0.223806 0.0354267 0 0.235283 0.0354267 0 0.246759 0.0354267 0 0.258236 0.0354267 0 0.269712 0.0354267 0 0.281188 0.0354267 0 0.292665 0.0354267 0 0.304141 0.0354267 0 0.315618 0.0354267 0 0.327094 0.0354267 0 0.338571 0.0354267 0 0.350047 0.0354267 0 0.361524 0.0354267 0 0.373 0.0354267 0 0.201327 0.0366133 0 0.212772 0.0366133 0 0.224216 0.0366133 0 0.235661 0.0366133 0 0.247106 0.0366133 0 0.258551 0.0366133 0 0.269996 0.0366133 0 0.281441 0.0366133 0 0.292886 0.0366133 0 0.304331 0.0366133 0 0.315776 0.0366133 0 0.32722 0.0366133 0 0.338665 0.0366133 0 0.35011 0.0366133 0 0.361555 0.0366133 0 0.373 0.0366133 0 0.2018 0.0378 0 0.213213 0.0378 0 0.224627 0.0378 0 0.23604 0.0378 0 0.247453 0.0378 0 0.258867 0.0378 0 0.27028 0.0378 0 0.281693 0.0378 0 0.293107 0.0378 0 0.30452 0.0378 0 0.315933 0.0378 0 0.327347 0.0378 0 0.33876 0.0378 0 0.350173 0.0378 0 0.361587 0.0378 0 0.373 0.0378 0 
</DataArray>
</Points> 
</Piece> 
</StructuredGrid> 
</VTKFile> 
