<?xml version="1.0"?> 
<VTKFile type="StructuredGrid" version="0.1"> 
<StructuredGrid WholeExtent="0 15 0 15 0 0"> 
<Piece Extent="0 15 0 15 0 0"> 
<PointData>
<DataArray type="Float32" Name="|E|" format="ascii" NumberOfComponents="3"> 
1.33561e+06 6.19888e-06 0 1.55916e+06 0.000159322 0 1.71437e+06 -3.99815e-05 0 1.70641e+06 9.88679e-06 0 1.59388e+06 1.45411e-06 0 1.43612e+06 -3.52837e-06 0 1.26966e+06 3.81086e-06 0 1.11337e+06 -3.03681e-06 0 975174 2.65357e-06 0 857690 -1.60234e-06 0 760983 1.01607e-06 0 684131 -6.27711e-07 0 625925 3.9232e-07 0 585238 -1.23633e-07 0 561193 -5.12227e-08 0 553240 0 0 1.3352e+06 6.92442e-07 0 1.55921e+06 -6637.49 0 1.71443e+06 -1805.36 0 1.70645e+06 1952.73 0 1.5939e+06 3910.76 0 1.43613e+06 4550.25 0 1.26965e+06 4462.7 0 1.11336e+06 4044.44 0 975166 3496.46 0 857683 2923.65 0 760976 2365.44 0 684124 1839.68 0 625919 1346.23 0 585232 881.063 0 561187 435.447 0 553234 0 0 1.33394e+06 -6.58794e-07 0 1.55937e+06 -13273.8 0 1.71462e+06 -3611.42 0 1.70656e+06 3907.29 0 1.59395e+06 7822.53 0 1.43613e+06 9100.89 0 1.26964e+06 8925.77 0 1.11334e+06 8088.86 0 975143 6993.02 0 857659 5847.24 0 760954 4730.9 0 684103 3679.32 0 625899 2692.46 0 585213 1762.1 0 561169 870.887 0 553216 0 0 1.33184e+06 4.23053e-07 0 1.55963e+06 -19907.6 0 1.71493e+06 -5418.96 0 1.70676e+06 5865.5 0 1.59403e+06 11736.3 0 1.43615e+06 13652.3 0 1.26962e+06 13389.6 0 1.11331e+06 12133.2 0 975104 10489.8 0 857620 8770.69 0 760917 7096.38 0 684068 5518.86 0 625866 4038.66 0 585182 2643.11 0 561139 1306.31 0 553187 0 0 1.32885e+06 -8.28877e-08 0 1.56e+06 -26537 0 1.71538e+06 -7228.86 0 1.70703e+06 7829.23 0 1.59414e+06 15653 0 1.43617e+06 18204.9 0 1.26959e+06 17854.6 0 1.11326e+06 16177.5 0 975049 13986.8 0 857566 11693.9 0 760865 9461.89 0 684020 7358.27 0 625821 5384.84 0 585139 3524.04 0 561097 1741.71 0 553145 0 0 1.32496e+06 -1.4063e-07 0 1.56048e+06 -33159.1 0 1.71594e+06 -9042.23 0 1.70738e+06 9800.39 0 1.59429e+06 19573.8 0 1.43619e+06 22759.1 0 1.26955e+06 22321.1 0 1.1132e+06 20221.6 0 974979 17484.3 0 857496 14616.9 0 760798 11827.5 0 683957 9197.47 0 625762 6731 0 585083 4404.9 0 561043 2177.09 0 553092 0 0 1.3201e+06 1.41561e-07 0 1.56106e+06 -39770.3 0 1.71664e+06 -10860.5 0 1.7078e+06 11781 0 1.59446e+06 23499.6 0 1.43622e+06 27315.1 0 1.26951e+06 26789.6 0 1.11312e+06 24265.5 0 974893 20982.4 0 857410 17539.4 0 760716 14193.1 0 683880 11036.4 0 625690 8077.11 0 585015 5285.64 0 560977 2612.42 0 553027 0 0 1.31422e+06 -3.72529e-09 0 1.56176e+06 -46365.2 0 1.71747e+06 -12685.3 0 1.7083e+06 13773 0 1.59467e+06 27431.4 0 1.43625e+06 31873.2 0 1.26946e+06 31260.6 0 1.11303e+06 28309.1 0 974792 24481.2 0 857309 20461.4 0 760620 16558.9 0 683790 12875.1 0 625605 9423.19 0 584934 6166.26 0 560900 3047.71 0 552950 0 0 1.30725e+06 -2.94298e-07 0 1.56257e+06 -52937.1 0 1.71844e+06 -14518.9 0 1.70887e+06 15778.6 0 1.59492e+06 31370.4 0 1.43629e+06 36433.8 0 1.2694e+06 35734.6 0 1.11293e+06 32352.2 0 974675 27980.9 0 857192 23382.8 0 760509 18924.9 0 683686 14713.3 0 625507 10769.2 0 584841 7046.71 0 560810 3482.95 0 552861 0 0 1.29911e+06 4.91738e-07 0 1.56349e+06 -59476.7 0 1.71954e+06 -16364 0 1.70952e+06 17800.2 0 1.5952e+06 35317.4 0 1.43633e+06 40997 0 1.26933e+06 40212.1 0 1.11281e+06 36394.7 0 974542 31481.6 0 857059 26303.5 0 760383 21291 0 683567 16551.1 0 625396 12115.3 0 584736 7926.98 0 560708 3918.12 0 552760 0 0 1.28968e+06 -5.88596e-07 0 1.56454e+06 -65972.6 0 1.72078e+06 -18224.1 0 1.71023e+06 19840.1 0 1.59551e+06 39273.7 0 1.43637e+06 45563 0 1.26925e+06 44693.8 0 1.11268e+06 40436.3 0 974395 34983.8 0 856911 29223.2 0 760242 23657.5 0 683435 18388.4 0 625272 13461.3 0 584618 8807.03 0 560594 4353.22 0 552647 0 0 1.27884e+06 7.30157e-07 0 1.5657e+06 -72409.8 0 1.72216e+06 -20103.3 0 1.71102e+06 21901 0 1.59587e+06 43240.3 0 1.43642e+06 50131.7 0 1.26917e+06 49180.4 0 1.11253e+06 44476.7 0 974231 38487.7 0 856747 32141.7 0 760086 26024.4 0 683289 20225 0 625135 14807.4 0 584488 9686.82 0 560468 4788.24 0 552523 0 0 1.26646e+06 -9.61125e-07 0 1.56698e+06 -78770.1 0 1.72369e+06 -22006.9 0 1.71186e+06 23985.6 0 1.59626e+06 47218.4 0 1.43647e+06 54703.3 0 1.26908e+06 53672.7 0 1.11237e+06 48515.5 0 974053 41993.5 0 856568 35058.8 0 759915 28391.9 0 683129 22060.8 0 624985 16153.5 0 584346 10566.3 0 560330 5223.16 0 552386 0 0 1.25236e+06 1.74344e-06 0 1.56839e+06 -85030.9 0 1.72538e+06 -23941.2 0 1.71277e+06 26097.1 0 1.59669e+06 51209 0 1.43651e+06 59277.5 0 1.26898e+06 58171.6 0 1.11219e+06 52552.2 0 973859 45501.8 0 856372 37974.2 0 759730 30760 0 682955 23895.8 0 624821 17499.6 0 584191 11445.5 0 560180 5657.99 0 552238 0 0 1.23636e+06 -2.05636e-06 0 1.56991e+06 -91164.6 0 1.72723e+06 -25913.8 0 1.71374e+06 28238.8 0 1.59716e+06 55213.5 0 1.43656e+06 63854.1 0 1.26888e+06 62678.2 0 1.11199e+06 56586.4 0 973651 49013.1 0 856161 40887.6 0 759530 33129.1 0 682768 25729.6 0 624645 18846 0 584024 12324.2 0 560018 6092.69 0 552077 0 0 1.21824e+06 -3.8147e-06 0 1.57157e+06 -97137.6 0 1.72925e+06 -27934 0 1.71476e+06 30414.4 0 1.59768e+06 59233 0 1.4366e+06 68432.6 0 1.26877e+06 67193.6 0 1.11178e+06 60617.1 0 973427 52528 0 855934 43798.4 0 759315 35499.2 0 682566 27562.2 0 624455 20192.5 0 583845 13202.6 0 559844 6527.26 0 551904 0 0 </DataArray> 
</PointData> 
<Points> 
<DataArray type="Float32" NumberOfComponents="3"> 
0.19 0 0 0.2022 0 0 0.2144 0 0 0.2266 0 0 0.2388 0 0 0.251 0 0 0.2632 0 0 0.2754 0 0 0.2876 0 0 0.2998 0 0 0.312 0 0 0.3242 0 0 0.3364 0 0 0.3486 0 0 0.3608 0 0 0.373 0 0 0.19 0.000333333 0 0.2022 0.000333333 0 0.2144 0.000333333 0 0.2266 0.000333333 0 0.2388 0.000333333 0 0.251 0.000333333 0 0.2632 0.000333333 0 0.2754 0.000333333 0 0.2876 0.000333333 0 0.2998 0.000333333 0 0.312 0.000333333 0 0.3242 0.000333333 0 0.3364 0.000333333 0 0.3486 0.000333333 0 0.3608 0.000333333 0 0.373 0.000333333 0 0.19 0.000666667 0 0.2022 0.000666667 0 0.2144 0.000666667 0 0.2266 0.000666667 0 0.2388 0.000666667 0 0.251 0.000666667 0 0.2632 0.000666667 0 0.2754 0.000666667 0 0.2876 0.000666667 0 0.2998 0.000666667 0 0.312 0.000666667 0 0.3242 0.000666667 0 0.3364 0.000666667 0 0.3486 0.000666667 0 0.3608 0.000666667 0 0.373 0.000666667 0 0.19 0.001 0 0.2022 0.001 0 0.2144 0.001 0 0.2266 0.001 0 0.2388 0.001 0 0.251 0.001 0 0.2632 0.001 0 0.2754 0.001 0 0.2876 0.001 0 0.2998 0.001 0 0.312 0.001 0 0.3242 0.001 0 0.3364 0.001 0 0.3486 0.001 0 0.3608 0.001 0 0.373 0.001 0 0.19 0.00133333 0 0.2022 0.00133333 0 0.2144 0.00133333 0 0.2266 0.00133333 0 0.2388 0.00133333 0 0.251 0.00133333 0 0.2632 0.00133333 0 0.2754 0.00133333 0 0.2876 0.00133333 0 0.2998 0.00133333 0 0.312 0.00133333 0 0.3242 0.00133333 0 0.3364 0.00133333 0 0.3486 0.00133333 0 0.3608 0.00133333 0 0.373 0.00133333 0 0.19 0.00166667 0 0.2022 0.00166667 0 0.2144 0.00166667 0 0.2266 0.00166667 0 0.2388 0.00166667 0 0.251 0.00166667 0 0.2632 0.00166667 0 0.2754 0.00166667 0 0.2876 0.00166667 0 0.2998 0.00166667 0 0.312 0.00166667 0 0.3242 0.00166667 0 0.3364 0.00166667 0 0.3486 0.00166667 0 0.3608 0.00166667 0 0.373 0.00166667 0 0.19 0.002 0 0.2022 0.002 0 0.2144 0.002 0 0.2266 0.002 0 0.2388 0.002 0 0.251 0.002 0 0.2632 0.002 0 0.2754 0.002 0 0.2876 0.002 0 0.2998 0.002 0 0.312 0.002 0 0.3242 0.002 0 0.3364 0.002 0 0.3486 0.002 0 0.3608 0.002 0 0.373 0.002 0 0.19 0.00233333 0 0.2022 0.00233333 0 0.2144 0.00233333 0 0.2266 0.00233333 0 0.2388 0.00233333 0 0.251 0.00233333 0 0.2632 0.00233333 0 0.2754 0.00233333 0 0.2876 0.00233333 0 0.2998 0.00233333 0 0.312 0.00233333 0 0.3242 0.00233333 0 0.3364 0.00233333 0 0.3486 0.00233333 0 0.3608 0.00233333 0 0.373 0.00233333 0 0.19 0.00266667 0 0.2022 0.00266667 0 0.2144 0.00266667 0 0.2266 0.00266667 0 0.2388 0.00266667 0 0.251 0.00266667 0 0.2632 0.00266667 0 0.2754 0.00266667 0 0.2876 0.00266667 0 0.2998 0.00266667 0 0.312 0.00266667 0 0.3242 0.00266667 0 0.3364 0.00266667 0 0.3486 0.00266667 0 0.3608 0.00266667 0 0.373 0.00266667 0 0.19 0.003 0 0.2022 0.003 0 0.2144 0.003 0 0.2266 0.003 0 0.2388 0.003 0 0.251 0.003 0 0.2632 0.003 0 0.2754 0.003 0 0.2876 0.003 0 0.2998 0.003 0 0.312 0.003 0 0.3242 0.003 0 0.3364 0.003 0 0.3486 0.003 0 0.3608 0.003 0 0.373 0.003 0 0.19 0.00333333 0 0.2022 0.00333333 0 0.2144 0.00333333 0 0.2266 0.00333333 0 0.2388 0.00333333 0 0.251 0.00333333 0 0.2632 0.00333333 0 0.2754 0.00333333 0 0.2876 0.00333333 0 0.2998 0.00333333 0 0.312 0.00333333 0 0.3242 0.00333333 0 0.3364 0.00333333 0 0.3486 0.00333333 0 0.3608 0.00333333 0 0.373 0.00333333 0 0.19 0.00366667 0 0.2022 0.00366667 0 0.2144 0.00366667 0 0.2266 0.00366667 0 0.2388 0.00366667 0 0.251 0.00366667 0 0.2632 0.00366667 0 0.2754 0.00366667 0 0.2876 0.00366667 0 0.2998 0.00366667 0 0.312 0.00366667 0 0.3242 0.00366667 0 0.3364 0.00366667 0 0.3486 0.00366667 0 0.3608 0.00366667 0 0.373 0.00366667 0 0.19 0.004 0 0.2022 0.004 0 0.2144 0.004 0 0.2266 0.004 0 0.2388 0.004 0 0.251 0.004 0 0.2632 0.004 0 0.2754 0.004 0 0.2876 0.004 0 0.2998 0.004 0 0.312 0.004 0 0.3242 0.004 0 0.3364 0.004 0 0.3486 0.004 0 0.3608 0.004 0 0.373 0.004 0 0.19 0.00433333 0 0.2022 0.00433333 0 0.2144 0.00433333 0 0.2266 0.00433333 0 0.2388 0.00433333 0 0.251 0.00433333 0 0.2632 0.00433333 0 0.2754 0.00433333 0 0.2876 0.00433333 0 0.2998 0.00433333 0 0.312 0.00433333 0 0.3242 0.00433333 0 0.3364 0.00433333 0 0.3486 0.00433333 0 0.3608 0.00433333 0 0.373 0.00433333 0 0.19 0.00466667 0 0.2022 0.00466667 0 0.2144 0.00466667 0 0.2266 0.00466667 0 0.2388 0.00466667 0 0.251 0.00466667 0 0.2632 0.00466667 0 0.2754 0.00466667 0 0.2876 0.00466667 0 0.2998 0.00466667 0 0.312 0.00466667 0 0.3242 0.00466667 0 0.3364 0.00466667 0 0.3486 0.00466667 0 0.3608 0.00466667 0 0.373 0.00466667 0 0.19 0.005 0 0.2022 0.005 0 0.2144 0.005 0 0.2266 0.005 0 0.2388 0.005 0 0.251 0.005 0 0.2632 0.005 0 0.2754 0.005 0 0.2876 0.005 0 0.2998 0.005 0 0.312 0.005 0 0.3242 0.005 0 0.3364 0.005 0 0.3486 0.005 0 0.3608 0.005 0 0.373 0.005 0 
</DataArray>
</Points> 
</Piece> 
</StructuredGrid> 
</VTKFile> 
