<?xml version="1.0"?> 
<VTKFile type="StructuredGrid" version="0.1"> 
<StructuredGrid WholeExtent="0 15 0 15 0 0"> 
<Piece Extent="0 15 0 15 0 0"> 
<PointData>
<DataArray type="Float32" Name="|E|" format="ascii" NumberOfComponents="3"> 
-2.10887e+06 0 0 -2.11502e+06 25162.6 0 -2.13356e+06 50715.9 0 -2.16478e+06 77067.6 0 -2.20914e+06 104680 0 -2.26737e+06 134045 0 -2.34045e+06 165772 0 -2.42972e+06 200458 0 -2.53702e+06 238681 0 -2.66476e+06 280688 0 -2.81627e+06 325488 0 -2.99611e+06 368659 0 -3.20897e+06 398645 0 -3.45517e+06 383552 0 -3.69869e+06 260628 0 -3.8147e+06 4.99409 0 -2.10682e+06 0 0 -2.11222e+06 24535.7 0 -2.12851e+06 49406.1 0 -2.15589e+06 74958.1 0 -2.19473e+06 101580 0 -2.24556e+06 129691 0 -2.30914e+06 159777 0 -2.38646e+06 192390 0 -2.47886e+06 228031 0 -2.58814e+06 267147 0 -2.71663e+06 309677 0 -2.86777e+06 354021 0 -3.04596e+06 394940 0 -3.25598e+06 419772 0 -3.49739e+06 393879 0 -3.73241e+06 258935 0 -2.10469e+06 0 0 -2.1094e+06 23786.7 0 -2.12358e+06 47855.5 0 -2.14739e+06 72500.3 0 -2.18111e+06 98036.2 0 -2.22513e+06 124823 0 -2.28e+06 153240 0 -2.34648e+06 183752 0 -2.4255e+06 216817 0 -2.51834e+06 252872 0 -2.62671e+06 292169 0 -2.75279e+06 334557 0 -2.90003e+06 377774 0 -3.07241e+06 417311 0 -3.27518e+06 438975 0 -3.50853e+06 412132 0 -2.10249e+06 0 0 -2.10655e+06 22916.2 0 -2.11878e+06 46066.5 0 -2.13928e+06 69694.5 0 -2.16827e+06 94057.3 0 -2.20603e+06 119444 0 -2.25297e+06 146171 0 -2.30961e+06 174588 0 -2.37664e+06 205098 0 -2.45492e+06 238103 0 -2.54564e+06 273894 0 -2.65028e+06 312777 0 -2.77093e+06 354172 0 -2.91064e+06 396618 0 -3.07321e+06 435228 0 -3.26376e+06 458162 0 -2.10021e+06 0 0 -2.10367e+06 21924.5 0 -2.11409e+06 44040.2 0 -2.13155e+06 66543.6 0 -2.1562e+06 89644.4 0 -2.18824e+06 113567 0 -2.22797e+06 138568 0 -2.27573e+06 164918 0 -2.33203e+06 192925 0 -2.39744e+06 222945 0 -2.47274e+06 255262 0 -2.55894e+06 290199 0 -2.65731e+06 327846 0 -2.76966e+06 367802 0 -2.89859e+06 409033 0 -3.04744e+06 447803 0 -2.09785e+06 0 0 -2.10076e+06 20812.2 0 -2.10953e+06 41777.1 0 -2.1242e+06 63050.6 0 -2.14489e+06 84798.6 0 -2.17173e+06 107196 0 -2.20492e+06 130438 0 -2.24472e+06 154739 0 -2.29144e+06 180325 0 -2.34549e+06 207467 0 -2.40736e+06 236435 0 -2.47769e+06 267484 0 -2.5573e+06 300894 0 -2.6472e+06 336702 0 -2.74885e+06 374695 0 -2.8643e+06 414252 0 -2.09541e+06 0 0 -2.09783e+06 19579.7 0 -2.10508e+06 39278.3 0 -2.11722e+06 59217 0 -2.13431e+06 79522.7 0 -2.15645e+06 100330 0 -2.18378e+06 121784 0 -2.21645e+06 144044 0 -2.25468e+06 167284 0 -2.29873e+06 191690 0 -2.34892e+06 217481 0 -2.40562e+06 244861 0 -2.46934e+06 274051 0 -2.54071e+06 305276 0 -2.62048e+06 338620 0 -2.7097e+06 374007 0 -2.0929e+06 0 0 -2.09486e+06 18227.5 0 -2.10075e+06 36544.9 0 -2.11061e+06 55043.6 0 -2.12447e+06 73818.4 0 -2.1424e+06 92969 0 -2.16448e+06 112602 0 -2.19082e+06 132831 0 -2.22156e+06 153782 0 -2.25685e+06 175589 0 -2.29689e+06 198400 0 -2.34193e+06 222380 0 -2.39223e+06 247690 0 -2.44815e+06 274501 0 -2.51013e+06 302998 0 -2.57872e+06 333293 0 -2.0903e+06 0 0 -2.09186e+06 16756.1 0 -2.09654e+06 33577.8 0 -2.10436e+06 50531.5 0 -2.11534e+06 67685.9 0 -2.12953e+06 85112 0 -2.14698e+06 102885 0 -2.16775e+06 121085 0 -2.19192e+06 139798 0 -2.2196e+06 159117 0 -2.25089e+06 179141 0 -2.28594e+06 199979 0 -2.3249e+06 221751 0 -2.36798e+06 244575 0 -2.41538e+06 268583 0 -2.46742e+06 293914 0 -2.08764e+06 0 0 -2.08884e+06 15166 0 -2.09244e+06 30377.8 0 -2.09847e+06 45681.5 0 -2.10692e+06 61124.6 0 -2.11783e+06 76755.9 0 -2.13122e+06 92626.2 0 -2.14714e+06 108789 0 -2.16563e+06 125302 0 -2.18674e+06 142224 0 -2.21055e+06 159622 0 -2.23712e+06 177563 0 -2.26654e+06 196125 0 -2.29892e+06 215385 0 -2.33438e+06 235427 0 -2.37305e+06 256344 0 -2.08489e+06 0 0 -2.08578e+06 13457.7 0 -2.08846e+06 26945.5 0 -2.09293e+06 40493.9 0 -2.09919e+06 54133.6 0 -2.10727e+06 67896.6 0 -2.11718e+06 81815.2 0 -2.12894e+06 95923.5 0 -2.14257e+06 110257 0 -2.1581e+06 124853 0 -2.17557e+06 139752 0 -2.19501e+06 154995 0 -2.21648e+06 170625 0 -2.24002e+06 186693 0 -2.26569e+06 203250 0 -2.29356e+06 220343 0 -2.08207e+06 0 0 -2.0827e+06 11631.7 0 -2.08459e+06 23281.8 0 -2.08774e+06 34968.7 0 -2.09215e+06 46711.2 0 -2.09784e+06 58528.3 0 -2.1048e+06 70439.5 0 -2.11306e+06 82464.8 0 -2.12262e+06 94624.8 0 -2.1335e+06 106941 0 -2.1457e+06 119436 0 -2.15926e+06 132133 0 -2.17419e+06 145058 0 -2.19052e+06 158233 0 -2.20827e+06 171689 0 -2.22746e+06 185458 0 -2.07917e+06 0 0 -2.07958e+06 9688.56 0 -2.08082e+06 19387.2 0 -2.08289e+06 29105.9 0 -2.08578e+06 38854.9 0 -2.08951e+06 48644.5 0 -2.09407e+06 58485 0 -2.09947e+06 68387.3 0 -2.10571e+06 78362 0 -2.1128e+06 88420.5 0 -2.12075e+06 98574 0 -2.12956e+06 108834 0 -2.13925e+06 119215 0 -2.14982e+06 129727 0 -2.16128e+06 140384 0 -2.17364e+06 151198 0 -2.0762e+06 0 0 -2.07644e+06 7628.79 0 -2.07717e+06 15262.2 0 -2.07838e+06 22905 0 -2.08008e+06 30561.7 0 -2.08226e+06 38237.1 0 -2.08493e+06 45935.9 0 -2.08809e+06 53662.9 0 -2.09175e+06 61423 0 -2.09589e+06 69221.2 0 -2.10053e+06 77062.5 0 -2.10567e+06 84952.1 0 -2.11131e+06 92895 0 -2.11745e+06 100897 0 -2.1241e+06 108964 0 -2.13126e+06 117102 0 -2.07315e+06 0 0 -2.07327e+06 5452.93 0 -2.07362e+06 10907.5 0 -2.07421e+06 16365.2 0 -2.07503e+06 21827.8 0 -2.07609e+06 27296.9 0 -2.07738e+06 32774 0 -2.07891e+06 38260.9 0 -2.08067e+06 43759.1 0 -2.08267e+06 49270.4 0 -2.08491e+06 54796.3 0 -2.08739e+06 60338.5 0 -2.0901e+06 65898.9 0 -2.09306e+06 71479.1 0 -2.09625e+06 77080.8 0 -2.09968e+06 82705.9 0 -2.07003e+06 0 0 -2.07006e+06 3161.53 0 -2.07018e+06 6323.35 0 -2.07036e+06 9485.77 0 -2.07063e+06 12649.1 0 -2.07096e+06 15813.6 0 -2.07137e+06 18979.7 0 -2.07186e+06 22147.6 0 -2.07242e+06 25317.5 0 -2.07306e+06 28489.6 0 -2.07377e+06 31664.2 0 -2.07456e+06 34841.9 0 -2.07542e+06 38022.9 0 -2.07636e+06 41207.8 0 -2.07738e+06 44397.7 0 -2.07847e+06 47591.6 0 </DataArray> 
</PointData> 
<Points> 
<DataArray type="Float32" NumberOfComponents="3"> 
0 0.01 0 0.005 0.01 0 0.01 0.01 0 0.015 0.01 0 0.02 0.01 0 0.025 0.01 0 0.03 0.01 0 0.035 0.01 0 0.04 0.01 0 0.045 0.01 0 0.05 0.01 0 0.055 0.01 0 0.06 0.01 0 0.065 0.01 0 0.07 0.01 0 0.075 0.01 0 0 0.0104 0 0.00469333 0.0104 0 0.00938667 0.0104 0 0.01408 0.0104 0 0.0187733 0.0104 0 0.0234667 0.0104 0 0.02816 0.0104 0 0.0328533 0.0104 0 0.0375467 0.0104 0 0.04224 0.0104 0 0.0469333 0.0104 0 0.0516267 0.0104 0 0.05632 0.0104 0 0.0610133 0.0104 0 0.0657067 0.0104 0 0.0704 0.0104 0 0 0.0108 0 0.00438667 0.0108 0 0.00877333 0.0108 0 0.01316 0.0108 0 0.0175467 0.0108 0 0.0219333 0.0108 0 0.02632 0.0108 0 0.0307067 0.0108 0 0.0350933 0.0108 0 0.03948 0.0108 0 0.0438667 0.0108 0 0.0482533 0.0108 0 0.05264 0.0108 0 0.0570267 0.0108 0 0.0614133 0.0108 0 0.0658 0.0108 0 0 0.0112 0 0.00408 0.0112 0 0.00816 0.0112 0 0.01224 0.0112 0 0.01632 0.0112 0 0.0204 0.0112 0 0.02448 0.0112 0 0.02856 0.0112 0 0.03264 0.0112 0 0.03672 0.0112 0 0.0408 0.0112 0 0.04488 0.0112 0 0.04896 0.0112 0 0.05304 0.0112 0 0.05712 0.0112 0 0.0612 0.0112 0 0 0.0116 0 0.00377333 0.0116 0 0.00754667 0.0116 0 0.01132 0.0116 0 0.0150933 0.0116 0 0.0188667 0.0116 0 0.02264 0.0116 0 0.0264133 0.0116 0 0.0301867 0.0116 0 0.03396 0.0116 0 0.0377333 0.0116 0 0.0415067 0.0116 0 0.04528 0.0116 0 0.0490533 0.0116 0 0.0528267 0.0116 0 0.0566 0.0116 0 0 0.012 0 0.00346667 0.012 0 0.00693333 0.012 0 0.0104 0.012 0 0.0138667 0.012 0 0.0173333 0.012 0 0.0208 0.012 0 0.0242667 0.012 0 0.0277333 0.012 0 0.0312 0.012 0 0.0346667 0.012 0 0.0381333 0.012 0 0.0416 0.012 0 0.0450667 0.012 0 0.0485333 0.012 0 0.052 0.012 0 0 0.0124 0 0.00316 0.0124 0 0.00632 0.0124 0 0.00948 0.0124 0 0.01264 0.0124 0 0.0158 0.0124 0 0.01896 0.0124 0 0.02212 0.0124 0 0.02528 0.0124 0 0.02844 0.0124 0 0.0316 0.0124 0 0.03476 0.0124 0 0.03792 0.0124 0 0.04108 0.0124 0 0.04424 0.0124 0 0.0474 0.0124 0 0 0.0128 0 0.00285333 0.0128 0 0.00570667 0.0128 0 0.00856 0.0128 0 0.0114133 0.0128 0 0.0142667 0.0128 0 0.01712 0.0128 0 0.0199733 0.0128 0 0.0228267 0.0128 0 0.02568 0.0128 0 0.0285333 0.0128 0 0.0313867 0.0128 0 0.03424 0.0128 0 0.0370933 0.0128 0 0.0399467 0.0128 0 0.0428 0.0128 0 0 0.0132 0 0.00254667 0.0132 0 0.00509333 0.0132 0 0.00764 0.0132 0 0.0101867 0.0132 0 0.0127333 0.0132 0 0.01528 0.0132 0 0.0178267 0.0132 0 0.0203733 0.0132 0 0.02292 0.0132 0 0.0254667 0.0132 0 0.0280133 0.0132 0 0.03056 0.0132 0 0.0331067 0.0132 0 0.0356533 0.0132 0 0.0382 0.0132 0 0 0.0136 0 0.00224 0.0136 0 0.00448 0.0136 0 0.00672 0.0136 0 0.00896 0.0136 0 0.0112 0.0136 0 0.01344 0.0136 0 0.01568 0.0136 0 0.01792 0.0136 0 0.02016 0.0136 0 0.0224 0.0136 0 0.02464 0.0136 0 0.02688 0.0136 0 0.02912 0.0136 0 0.03136 0.0136 0 0.0336 0.0136 0 0 0.014 0 0.00193333 0.014 0 0.00386667 0.014 0 0.0058 0.014 0 0.00773333 0.014 0 0.00966667 0.014 0 0.0116 0.014 0 0.0135333 0.014 0 0.0154667 0.014 0 0.0174 0.014 0 0.0193333 0.014 0 0.0212667 0.014 0 0.0232 0.014 0 0.0251333 0.014 0 0.0270667 0.014 0 0.029 0.014 0 0 0.0144 0 0.00162667 0.0144 0 0.00325333 0.0144 0 0.00488 0.0144 0 0.00650667 0.0144 0 0.00813333 0.0144 0 0.00976 0.0144 0 0.0113867 0.0144 0 0.0130133 0.0144 0 0.01464 0.0144 0 0.0162667 0.0144 0 0.0178933 0.0144 0 0.01952 0.0144 0 0.0211467 0.0144 0 0.0227733 0.0144 0 0.0244 0.0144 0 0 0.0148 0 0.00132 0.0148 0 0.00264 0.0148 0 0.00396 0.0148 0 0.00528 0.0148 0 0.0066 0.0148 0 0.00792 0.0148 0 0.00924 0.0148 0 0.01056 0.0148 0 0.01188 0.0148 0 0.0132 0.0148 0 0.01452 0.0148 0 0.01584 0.0148 0 0.01716 0.0148 0 0.01848 0.0148 0 0.0198 0.0148 0 0 0.0152 0 0.00101333 0.0152 0 0.00202667 0.0152 0 0.00304 0.0152 0 0.00405333 0.0152 0 0.00506667 0.0152 0 0.00608 0.0152 0 0.00709333 0.0152 0 0.00810667 0.0152 0 0.00912 0.0152 0 0.0101333 0.0152 0 0.0111467 0.0152 0 0.01216 0.0152 0 0.0131733 0.0152 0 0.0141867 0.0152 0 0.0152 0.0152 0 0 0.0156 0 0.000706667 0.0156 0 0.00141333 0.0156 0 0.00212 0.0156 0 0.00282667 0.0156 0 0.00353333 0.0156 0 0.00424 0.0156 0 0.00494667 0.0156 0 0.00565333 0.0156 0 0.00636 0.0156 0 0.00706667 0.0156 0 0.00777333 0.0156 0 0.00848 0.0156 0 0.00918667 0.0156 0 0.00989333 0.0156 0 0.0106 0.0156 0 0 0.016 0 0.0004 0.016 0 0.0008 0.016 0 0.0012 0.016 0 0.0016 0.016 0 0.002 0.016 0 0.0024 0.016 0 0.0028 0.016 0 0.0032 0.016 0 0.0036 0.016 0 0.004 0.016 0 0.0044 0.016 0 0.0048 0.016 0 0.0052 0.016 0 0.0056 0.016 0 0.006 0.016 0 
</DataArray>
</Points> 
</Piece> 
</StructuredGrid> 
</VTKFile> 
