<?xml version="1.0"?> 
<VTKFile type="StructuredGrid" version="0.1"> 
<StructuredGrid WholeExtent="0 15 0 15 0 0"> 
<Piece Extent="0 15 0 15 0 0"> 
<PointData>
<DataArray type="Float32" Name="|E|" format="ascii" NumberOfComponents="3"> 
818.878 -6.19888e-06 0 -14.6621 -141.928 0 -62.5274 -92.1302 0 -45.7387 -32.767 0 -35.8344 -15.235 0 -22.4655 -7.48643 0 -15.2315 -1.63321 0 -9.48604 -1.60995 0 -6.0976 0.404655 0 -3.84953 -0.220118 0 -2.41582 0.433178 0 -1.56146 0.0670474 0 -0.992264 0.237242 0 -0.693086 0.0795882 0 -0.508447 0.0601134 0 -0.442736 1.07288e-06 0 439.681 -8.98044e-07 0 6.76364 -156.216 0 -43.9489 -81.6374 0 -43.8448 -37.6514 0 -31.4791 -18.2985 0 -22.2666 -8.61004 0 -14.3072 -4.00013 0 -9.46245 -1.84169 0 -5.96056 -0.758795 0 -3.83923 -0.283756 0 -2.43116 -0.056109 0 -1.55743 0.0312415 0 -1.02194 0.0570823 0 -0.693167 0.0538742 0 -0.53217 0.0338407 0 -0.480525 -1.66556e-07 0 267.634 6.68893e-07 0 23.9554 -140.605 0 -32.9925 -77.3538 0 -38.5211 -40.1736 0 -28.885 -20.5694 0 -20.9402 -10.3881 0 -13.7245 -5.46284 0 -9.13757 -2.68315 0 -5.833 -1.43818 0 -3.76918 -0.654587 0 -2.40652 -0.34247 0 -1.55006 -0.126304 0 -1.01997 -0.0545064 0 -0.699192 -0.0043353 0 -0.535092 0.00480506 0 -0.482329 1.95039e-07 0 181.519 -2.65136e-07 0 33.8415 -118.721 0 -24.5588 -73.9613 0 -32.9414 -41.4549 0 -26.4654 -22.4397 0 -19.3828 -12.1137 0 -13.0707 -6.68409 0 -8.71105 -3.59122 0 -5.64625 -2.01424 0 -3.65583 -1.06509 0 -2.35157 -0.592192 0 -1.5228 -0.299346 0 -1.00423 -0.155451 0 -0.694493 -0.0669405 0 -0.530888 -0.0233425 0 -0.479854 -1.83762e-07 0 133.054 2.09431e-07 0 37.8643 -98.2609 0 -17.5474 -70.1379 0 -27.8527 -41.9816 0 -23.942 -23.9836 0 -17.7892 -13.6392 0 -12.2844 -7.80417 0 -8.22282 -4.44334 0 -5.39269 -2.5626 0 -3.50389 -1.45748 0 -2.26779 -0.835292 0 -1.47491 -0.466217 0 -0.97608 -0.255127 0 -0.678447 -0.127931 0 -0.51997 -0.0509144 0 -0.472021 9.96515e-08 0 102.392 -2.75206e-07 0 38.0251 -81.2218 0 -11.8144 -65.8452 0 -23.3527 -41.994 0 -21.3547 -25.2234 0 -16.1831 -14.9552 0 -11.3852 -8.83631 0 -7.67703 -5.22041 0 -5.07879 -3.08676 0 -3.315 -1.82275 0 -2.15642 -1.07143 0 -1.40773 -0.62363 0 -0.935184 -0.352691 0 -0.652168 -0.186198 0 -0.501682 -0.0777867 0 -0.457161 -8.75443e-08 0 81.0014 1.50409e-07 0 35.8987 -67.6355 0 -7.32668 -61.374 0 -19.4005 -41.6408 0 -18.7842 -26.1854 0 -14.5616 -16.0801 0 -10.4012 -9.77099 0 -7.07449 -5.92388 0 -4.71237 -3.57763 0 -3.09086 -2.16056 0 -2.01911 -1.2956 0 -1.32259 -0.771119 0 -0.881702 -0.445948 0 -0.616512 -0.241353 0 -0.475907 -0.103552 0 -0.435001 1.81608e-08 0 64.9502 -1.86265e-08 0 32.5318 -57.0056 0 -3.9874 -57.0129 0 -15.9426 -41.0388 0 -16.2889 -26.9058 0 -12.926 -17.0322 0 -9.35458 -10.6016 0 -6.4186 -6.55521 0 -4.30024 -4.02779 0 -2.8338 -2.46997 0 -1.8579 -1.5038 0 -1.22077 -0.907775 0 -0.816281 -0.533161 0 -0.572129 -0.29287 0 -0.442939 -0.127774 0 -0.405869 -2.37487e-08 0 52.2577 -2.42144e-08 0 28.5637 -48.7605 0 -1.64311 -52.974 0 -12.9305 -40.288 0 -13.9008 -27.425 0 -11.2829 -17.8283 0 -8.26109 -11.326 0 -5.71501 -7.11449 0 -3.84828 -4.43213 0 -2.5468 -2.74927 0 -1.67498 -1.69304 0 -1.10362 -1.03234 0 -0.739844 -0.612974 0 -0.519671 -0.340133 0 -0.403289 -0.150063 0 -0.370297 1.02445e-07 0 41.8225 -1.86265e-08 0 24.3617 -42.4088 0 -0.119052 -49.3887 0 -10.3171 -39.4756 0 -11.6323 -27.7836 0 -9.64017 -18.483 0 -7.13222 -11.9452 0 -4.97036 -7.60084 0 -3.36183 -4.78734 0 -2.23318 -2.99626 0 -1.47272 -1.86112 0 -0.972694 -1.14343 0 -0.653475 -0.68431 0 -0.459877 -0.382505 0 -0.357579 -0.170081 0 -0.32889 -1.51806e-07 0 32.9663 1.86265e-08 0 20.1223 -37.5621 0 0.754987 -46.3283 0 -8.0524 -38.6751 0 -9.48262 -28.0194 0 -8.0048 -19.0101 0 -5.97672 -12.4617 0 -4.19147 -8.01334 0 -2.84602 -5.0911 0 -1.89652 -3.20886 0 -1.2536 -2.00627 0 -0.82966 -1.23973 0 -0.558377 -0.746251 0 -0.393589 -0.419401 0 -0.306517 -0.187534 0 -0.282325 1.93715e-07 0 25.2355 7.45058e-09 0 15.9394 -33.9285 0 1.13137 -43.8242 0 -6.08301 -37.946 0 -7.44204 -28.1656 0 -6.38111 -19.4221 0 -4.8015 -12.8786 0 -3.38491 -8.35129 0 -2.30585 -5.34169 0 -1.54054 -3.38525 0 -1.02025 -2.12701 0 -0.676343 -1.3201 0 -0.455848 -0.79802 0 -0.321744 -0.450306 0 -0.250879 -0.20217 0 -0.231341 -2.47732e-07 0 18.3031 -7.82311e-08 0 11.846 -31.2948 0 1.14095 -41.8848 0 -4.35222 -37.3347 0 -5.49484 -28.2499 0 -4.77068 -19.7302 0 -3.6121 -13.1991 0 -2.55688 -8.61429 0 -1.74628 -5.53782 0 -1.16903 -3.52394 0 -0.775375 -2.22215 0 -0.514675 -1.3836 0 -0.347271 -0.83897 0 -0.245361 -0.474794 0 -0.191502 -0.213778 0 -0.176743 3.7998e-07 0 11.9183 2.08616e-07 0 7.84078 -29.511 0 0.894363 -40.5071 0 -2.80131 -36.8752 0 -3.62104 -28.2943 0 -3.17256 -19.9434 0 -2.41302 -13.4259 0 -1.71312 -8.80217 0 -1.17221 -5.67856 0 -0.785854 -3.6238 0 -0.521789 -2.29078 0 -0.346669 -1.42948 0 -0.234096 -0.868591 0 -0.165519 -0.492528 0 -0.129273 -0.22219 0 -0.119384 -4.80562e-07 0 5.87648 -2.68221e-07 0 3.90254 -28.478 0 0.486193 -39.6843 0 -1.37059 -36.5906 0 -1.79768 -28.3146 0 -1.58377 -20.0685 0 -1.20794 -13.5611 0 -0.8591 -8.91489 0 -0.58851 -5.76325 0 -0.394878 -3.68403 0 -0.262361 -2.33223 0 -0.174404 -1.45722 0 -0.117826 -0.886513 0 -0.0833463 -0.503266 0 -0.0651209 -0.227286 0 -0.0601616 4.47035e-07 0 1.66893e-06 -4.52995e-06 0 2.84121e-07 -28.1397 0 -2.71735e-07 -39.4107 0 2.74114e-07 -36.4943 0 -2.58355e-07 -28.3204 0 1.64029e-07 -20.1098 0 -8.55653e-08 -13.606 0 5.3551e-08 -8.95246 0 -3.39933e-08 -5.79152 0 -1.30385e-08 -3.70416 0 1.39698e-08 -2.34609 0 1.49012e-08 -1.46651 0 -4.37722e-08 -0.89251 0 6.33299e-08 -0.506862 0 -3.35276e-08 -0.228993 0 -5.36442e-07 -1.19209e-07 0 </DataArray> 
</PointData> 
<Points> 
<DataArray type="Float32" NumberOfComponents="3"> 
0.13 0.035 0 0.133667 0.0346667 0 0.137333 0.0343333 0 0.141 0.034 0 0.144667 0.0336667 0 0.148333 0.0333333 0 0.152 0.033 0 0.155667 0.0326667 0 0.159333 0.0323333 0 0.163 0.032 0 0.166667 0.0316667 0 0.170333 0.0313333 0 0.174 0.031 0 0.177667 0.0306667 0 0.181333 0.0303333 0 0.185 0.03 0 0.13 0.0356667 0 0.133667 0.0353556 0 0.137333 0.0350444 0 0.141 0.0347333 0 0.144667 0.0344222 0 0.148333 0.0341111 0 0.152 0.0338 0 0.155667 0.0334889 0 0.159333 0.0331778 0 0.163 0.0328667 0 0.166667 0.0325556 0 0.170333 0.0322444 0 0.174 0.0319333 0 0.177667 0.0316222 0 0.181333 0.0313111 0 0.185 0.031 0 0.13 0.0363333 0 0.133667 0.0360444 0 0.137333 0.0357556 0 0.141 0.0354667 0 0.144667 0.0351778 0 0.148333 0.0348889 0 0.152 0.0346 0 0.155667 0.0343111 0 0.159333 0.0340222 0 0.163 0.0337333 0 0.166667 0.0334444 0 0.170333 0.0331556 0 0.174 0.0328667 0 0.177667 0.0325778 0 0.181333 0.0322889 0 0.185 0.032 0 0.13 0.037 0 0.133667 0.0367333 0 0.137333 0.0364667 0 0.141 0.0362 0 0.144667 0.0359333 0 0.148333 0.0356667 0 0.152 0.0354 0 0.155667 0.0351333 0 0.159333 0.0348667 0 0.163 0.0346 0 0.166667 0.0343333 0 0.170333 0.0340667 0 0.174 0.0338 0 0.177667 0.0335333 0 0.181333 0.0332667 0 0.185 0.033 0 0.13 0.0376667 0 0.133667 0.0374222 0 0.137333 0.0371778 0 0.141 0.0369333 0 0.144667 0.0366889 0 0.148333 0.0364444 0 0.152 0.0362 0 0.155667 0.0359556 0 0.159333 0.0357111 0 0.163 0.0354667 0 0.166667 0.0352222 0 0.170333 0.0349778 0 0.174 0.0347333 0 0.177667 0.0344889 0 0.181333 0.0342444 0 0.185 0.034 0 0.13 0.0383333 0 0.133667 0.0381111 0 0.137333 0.0378889 0 0.141 0.0376667 0 0.144667 0.0374444 0 0.148333 0.0372222 0 0.152 0.037 0 0.155667 0.0367778 0 0.159333 0.0365556 0 0.163 0.0363333 0 0.166667 0.0361111 0 0.170333 0.0358889 0 0.174 0.0356667 0 0.177667 0.0354444 0 0.181333 0.0352222 0 0.185 0.035 0 0.13 0.039 0 0.133667 0.0388 0 0.137333 0.0386 0 0.141 0.0384 0 0.144667 0.0382 0 0.148333 0.038 0 0.152 0.0378 0 0.155667 0.0376 0 0.159333 0.0374 0 0.163 0.0372 0 0.166667 0.037 0 0.170333 0.0368 0 0.174 0.0366 0 0.177667 0.0364 0 0.181333 0.0362 0 0.185 0.036 0 0.13 0.0396667 0 0.133667 0.0394889 0 0.137333 0.0393111 0 0.141 0.0391333 0 0.144667 0.0389556 0 0.148333 0.0387778 0 0.152 0.0386 0 0.155667 0.0384222 0 0.159333 0.0382444 0 0.163 0.0380667 0 0.166667 0.0378889 0 0.170333 0.0377111 0 0.174 0.0375333 0 0.177667 0.0373556 0 0.181333 0.0371778 0 0.185 0.037 0 0.13 0.0403333 0 0.133667 0.0401778 0 0.137333 0.0400222 0 0.141 0.0398667 0 0.144667 0.0397111 0 0.148333 0.0395556 0 0.152 0.0394 0 0.155667 0.0392444 0 0.159333 0.0390889 0 0.163 0.0389333 0 0.166667 0.0387778 0 0.170333 0.0386222 0 0.174 0.0384667 0 0.177667 0.0383111 0 0.181333 0.0381556 0 0.185 0.038 0 0.13 0.041 0 0.133667 0.0408667 0 0.137333 0.0407333 0 0.141 0.0406 0 0.144667 0.0404667 0 0.148333 0.0403333 0 0.152 0.0402 0 0.155667 0.0400667 0 0.159333 0.0399333 0 0.163 0.0398 0 0.166667 0.0396667 0 0.170333 0.0395333 0 0.174 0.0394 0 0.177667 0.0392667 0 0.181333 0.0391333 0 0.185 0.039 0 0.13 0.0416667 0 0.133667 0.0415556 0 0.137333 0.0414444 0 0.141 0.0413333 0 0.144667 0.0412222 0 0.148333 0.0411111 0 0.152 0.041 0 0.155667 0.0408889 0 0.159333 0.0407778 0 0.163 0.0406667 0 0.166667 0.0405556 0 0.170333 0.0404444 0 0.174 0.0403333 0 0.177667 0.0402222 0 0.181333 0.0401111 0 0.185 0.04 0 0.13 0.0423333 0 0.133667 0.0422444 0 0.137333 0.0421556 0 0.141 0.0420667 0 0.144667 0.0419778 0 0.148333 0.0418889 0 0.152 0.0418 0 0.155667 0.0417111 0 0.159333 0.0416222 0 0.163 0.0415333 0 0.166667 0.0414444 0 0.170333 0.0413556 0 0.174 0.0412667 0 0.177667 0.0411778 0 0.181333 0.0410889 0 0.185 0.041 0 0.13 0.043 0 0.133667 0.0429333 0 0.137333 0.0428667 0 0.141 0.0428 0 0.144667 0.0427333 0 0.148333 0.0426667 0 0.152 0.0426 0 0.155667 0.0425333 0 0.159333 0.0424667 0 0.163 0.0424 0 0.166667 0.0423333 0 0.170333 0.0422667 0 0.174 0.0422 0 0.177667 0.0421333 0 0.181333 0.0420667 0 0.185 0.042 0 0.13 0.0436667 0 0.133667 0.0436222 0 0.137333 0.0435778 0 0.141 0.0435333 0 0.144667 0.0434889 0 0.148333 0.0434444 0 0.152 0.0434 0 0.155667 0.0433556 0 0.159333 0.0433111 0 0.163 0.0432667 0 0.166667 0.0432222 0 0.170333 0.0431778 0 0.174 0.0431333 0 0.177667 0.0430889 0 0.181333 0.0430444 0 0.185 0.043 0 0.13 0.0443333 0 0.133667 0.0443111 0 0.137333 0.0442889 0 0.141 0.0442667 0 0.144667 0.0442444 0 0.148333 0.0442222 0 0.152 0.0442 0 0.155667 0.0441778 0 0.159333 0.0441556 0 0.163 0.0441333 0 0.166667 0.0441111 0 0.170333 0.0440889 0 0.174 0.0440667 0 0.177667 0.0440444 0 0.181333 0.0440222 0 0.185 0.044 0 0.13 0.045 0 0.133667 0.045 0 0.137333 0.045 0 0.141 0.045 0 0.144667 0.045 0 0.148333 0.045 0 0.152 0.045 0 0.155667 0.045 0 0.159333 0.045 0 0.163 0.045 0 0.166667 0.045 0 0.170333 0.045 0 0.174 0.045 0 0.177667 0.045 0 0.181333 0.045 0 0.185 0.045 0 
</DataArray>
</Points> 
</Piece> 
</StructuredGrid> 
</VTKFile> 
