<?xml version="1.0"?> 
<VTKFile type="StructuredGrid" version="0.1"> 
<StructuredGrid WholeExtent="0 15 0 15 0 0"> 
<Piece Extent="0 15 0 15 0 0"> 
<PointData>
<DataArray type="Float32" Name="|E|" format="ascii" NumberOfComponents="3"> 
2.25563e+06 4.71314e+06 0 2.43387e+06 4.66953e+06 0 2.55609e+06 4.59022e+06 0 2.66422e+06 4.51771e+06 0 2.77521e+06 4.45615e+06 0 2.89696e+06 4.39994e+06 0 3.03119e+06 4.33808e+06 0 3.17331e+06 4.25629e+06 0 3.31319e+06 4.14268e+06 0 3.43781e+06 3.99594e+06 0 3.53547e+06 3.83127e+06 0 3.60095e+06 3.67883e+06 0 3.64011e+06 3.57456e+06 0 3.67288e+06 3.55063e+06 0 3.7342e+06 3.63495e+06 0 3.87693e+06 3.8643e+06 0 2.04857e+06 4.45908e+06 0 2.16788e+06 4.35859e+06 0 2.29002e+06 4.23622e+06 0 2.40753e+06 4.09456e+06 0 2.51564e+06 3.93758e+06 0 2.60968e+06 3.76849e+06 0 2.68545e+06 3.59234e+06 0 2.74193e+06 3.41525e+06 0 2.78176e+06 3.24188e+06 0 2.80933e+06 3.0741e+06 0 2.82845e+06 2.91153e+06 0 2.84098e+06 2.75293e+06 0 2.84675e+06 2.59688e+06 0 2.84356e+06 2.44217e+06 0 2.82662e+06 2.28858e+06 0 2.78657e+06 2.1392e+06 0 1.82855e+06 4.29904e+06 0 1.94408e+06 4.14831e+06 0 2.05475e+06 3.97383e+06 0 2.15117e+06 3.77873e+06 0 2.22661e+06 3.56924e+06 0 2.27758e+06 3.35337e+06 0 2.30424e+06 3.13888e+06 0 2.30921e+06 2.93162e+06 0 2.2957e+06 2.73557e+06 0 2.26677e+06 2.55363e+06 0 2.22558e+06 2.38776e+06 0 2.17573e+06 2.23843e+06 0 2.12106e+06 2.10407e+06 0 2.06522e+06 1.98086e+06 0 2.01163e+06 1.8622e+06 0 1.96401e+06 1.73678e+06 0 1.62433e+06 4.17454e+06 0 1.73619e+06 3.98655e+06 0 1.83353e+06 3.77392e+06 0 1.90788e+06 3.54245e+06 0 1.95374e+06 3.30143e+06 0 1.97014e+06 3.06093e+06 0 1.95959e+06 2.82965e+06 0 1.92668e+06 2.61414e+06 0 1.87728e+06 2.41866e+06 0 1.81787e+06 2.24466e+06 0 1.75445e+06 2.09075e+06 0 1.69141e+06 1.95347e+06 0 1.63104e+06 1.8288e+06 0 1.57371e+06 1.71374e+06 0 1.51836e+06 1.60794e+06 0 1.46289e+06 1.51628e+06 0 1.43749e+06 4.07377e+06 0 1.54371e+06 3.85679e+06 0 1.62806e+06 3.6152e+06 0 1.68265e+06 3.35779e+06 0 1.70413e+06 3.09628e+06 0 1.6942e+06 2.84217e+06 0 1.65832e+06 2.60453e+06 0 1.60406e+06 2.38893e+06 0 1.53934e+06 2.19708e+06 0 1.47061e+06 2.02748e+06 0 1.40195e+06 1.87717e+06 0 1.3354e+06 1.74338e+06 0 1.27206e+06 1.62422e+06 0 1.21289e+06 1.51816e+06 0 1.15919e+06 1.42255e+06 0 1.1125e+06 1.331e+06 0 1.26563e+06 3.99021e+06 0 1.36563e+06 3.74982e+06 0 1.43767e+06 3.48532e+06 0 1.47535e+06 3.20824e+06 0 1.47775e+06 2.93227e+06 0 1.44944e+06 2.66954e+06 0 1.3985e+06 2.42828e+06 0 1.33388e+06 2.21202e+06 0 1.26307e+06 2.02048e+06 0 1.1912e+06 1.85148e+06 0 1.12151e+06 1.7025e+06 0 1.0562e+06 1.57093e+06 0 996766 1.45374e+06 0 943758 1.34744e+06 0 896539 1.2491e+06 0 853531 1.15895e+06 0 1.10691e+06 3.92008e+06 0 1.19996e+06 3.66002e+06 0 1.26066e+06 3.37635e+06 0 1.28424e+06 3.08315e+06 0 1.2723e+06 2.79555e+06 0 1.23191e+06 2.52564e+06 0 1.17268e+06 2.28038e+06 0 1.10364e+06 2.0618e+06 0 1.03158e+06 1.86884e+06 0 961093 1.69908e+06 0 895116 1.54946e+06 0 835144 1.41659e+06 0 781375 1.29741e+06 0 733322 1.18996e+06 0 690706 1.09329e+06 0 653896 1.00552e+06 0 959279 3.86099e+06 0 1.04483e+06 3.58358e+06 0 1.09508e+06 3.28289e+06 0 1.10711e+06 2.97532e+06 0 1.0848e+06 2.67707e+06 0 1.03708e+06 2.39992e+06 0 974203 2.14978e+06 0 904893 1.92777e+06 0 835373 1.73227e+06 0 769570 1.56031e+06 0 709452 1.40844e+06 0 655560 1.27361e+06 0 607864 1.15349e+06 0 566326 1.04603e+06 0 530671 948791 0 499956 859633 0 820986 3.81127e+06 0 898411 3.51782e+06 0 939072 3.20111e+06 0 941824 2.87974e+06 0 912498 2.57085e+06 0 861196 2.28594e+06 0 798298 2.03017e+06 0 731999 1.804e+06 0 667729 1.60524e+06 0 608437 1.43057e+06 0 555288 1.27666e+06 0 508574 1.14062e+06 0 468198 1.01974e+06 0 433626 911505 0 404081 814060 0 379181 726387 0 690449 3.76979e+06 0 759085 3.46076e+06 0 790946 3.12815e+06 0 786527 2.79282e+06 0 753140 2.47283e+06 0 701474 2.17959e+06 0 641590 1.91771e+06 0 580865 1.68706e+06 0 523710 1.48502e+06 0 472196 1.30809e+06 0 427019 1.15281e+06 0 388156 1.01596e+06 0 355089 894633 0 327176 786530 0 303974 689767 0 284958 602236 0 566267 3.73572e+06 0 625395 3.41087e+06 0 649240 3.06184e+06 0 639693 2.71187e+06 0 605010 2.38016e+06 0 555882 2.07817e+06 0 501607 1.81005e+06 0 448457 1.57516e+06 0 399790 1.37041e+06 0 356966 1.19199e+06 0 320226 1.03606e+06 0 289183 899094 0 263251 778142 0 241905 670660 0 224562 574321 0 210735 487384 0 447180 3.70847e+06 0 496040 3.36697e+06 0 512709 3.00043e+06 0 500120 2.63487e+06 0 466846 2.29082e+06 0 422946 1.97991e+06 0 376503 1.70587e+06 0 332493 1.46741e+06 0 293274 1.26086e+06 0 259575 1.08186e+06 0 231245 926109 0 207777 789823 0 188625 669713 0 173222 562911 0 161118 467091 0 152006 380226 0 332042 3.68762e+06 0 369849 3.32805e+06 0 380306 2.94248e+06 0 366901 2.56019e+06 0 337757 2.20333e+06 0 301596 1.88371e+06 0 264867 1.60447e+06 0 231153 1.36345e+06 0 201902 1.15617e+06 0 177336 977560 0 157108 822829 0 140722 687760 0 127663 568713 0 117504 462658 0 109930 367003 0 104687 279490 0 219792 3.67288e+06 0 245757 3.29326e+06 0 251162 2.88675e+06 0 239387 2.48654e+06 0 217143 2.11664e+06 0 191042 1.78892e+06 0 165552 1.50555e+06 0 142875 1.2632e+06 0 123704 1.05633e+06 0 107958 879050 0 95275.6 725985 0 85239.2 592469 0 77481.9 474574 0 71727.8 368969 0 67769 272791 0 65498.3 183590 0 109430 3.66405e+06 0 122780 3.26186e+06 0 124577 2.83214e+06 0 117160 2.41286e+06 0 104628 2.03005e+06 0 90678.7 1.69523e+06 0 77568.5 1.40911e+06 0 66255.8 1.16676e+06 0 56928.4 961392 0 49437.7 786232 0 43539.5 635291 0 38998.1 503491 0 35629.6 386556 0 33298.4 280855 0 31928 183258 0 31480.8 90973.9 0 0 3.66101e+06 0 0 3.23313e+06 0 0 2.77762e+06 0 0 2.33829e+06 0 0 1.94314e+06 0 0 1.60262e+06 0 0 1.3153e+06 0 0 1.0743e+06 0 0 871421 0 0 698999 0 0 550466 0 0 420325 0 0 303966 0 0 197425 0 0 97198.3 0 0 66.41 0 </DataArray> 
</PointData> 
<Points> 
<DataArray type="Float32" NumberOfComponents="3"> 
0.187924 0.0611593 0 0.188813 0.0607138 0 0.18974 0.060214 0 0.190674 0.0596784 0 0.191591 0.0591229 0 0.19247 0.05856 0 0.193298 0.0579986 0 0.194067 0.0574439 0 0.194776 0.0568968 0 0.195431 0.0563539 0 0.196043 0.0558081 0 0.196632 0.055248 0 0.19722 0.0546589 0 0.197839 0.0540226 0 0.198521 0.0533186 0 0.199303 0.0525238 0 0.187929 0.0645486 0 0.189591 0.0641772 0 0.191306 0.0637504 0 0.19304 0.0632852 0 0.194768 0.0627957 0 0.196466 0.0622933 0 0.198116 0.0617857 0 0.199707 0.0612772 0 0.201233 0.0607685 0 0.202694 0.0602563 0 0.204097 0.0597337 0 0.205456 0.0591901 0 0.206787 0.0586117 0 0.208116 0.0579819 0 0.209471 0.0572814 0 0.210883 0.0564889 0 0.187934 0.067938 0 0.190368 0.0676342 0 0.192866 0.0672746 0 0.195395 0.0668745 0 0.197926 0.0664467 0 0.200434 0.0660011 0 0.202898 0.0655447 0 0.205303 0.0650811 0 0.20764 0.0646106 0 0.209903 0.0641299 0 0.212096 0.0636325 0 0.214227 0.0631086 0 0.216308 0.0625454 0 0.218358 0.0619274 0 0.2204 0.0612369 0 0.222463 0.060454 0 0.187939 0.0713274 0 0.191143 0.0710848 0 0.194421 0.0707866 0 0.197738 0.0704465 0 0.201066 0.0700759 0 0.204376 0.0696838 0 0.207645 0.0692761 0 0.210857 0.0688559 0 0.213998 0.0684232 0 0.21706 0.0679749 0 0.220041 0.0675048 0 0.222946 0.0670037 0 0.225782 0.06646 0 0.228564 0.0658593 0 0.23131 0.0651851 0 0.234043 0.064419 0 0.187944 0.0747168 0 0.191917 0.074529 0 0.19597 0.0742864 0 0.200071 0.0740012 0 0.204187 0.0736836 0 0.208291 0.0733415 0 0.212358 0.0729801 0 0.216368 0.0726019 0 0.220307 0.0722068 0 0.224164 0.0717917 0 0.227932 0.0713508 0 0.231613 0.0708758 0 0.235211 0.0703558 0 0.238735 0.0697775 0 0.242199 0.0691259 0 0.245622 0.0683841 0 0.187949 0.0781062 0 0.192689 0.0779669 0 0.197514 0.0777741 0 0.202391 0.0775388 0 0.207289 0.07727 0 0.212179 0.0769745 0 0.217036 0.076657 0 0.221838 0.0763195 0 0.226569 0.0759617 0 0.231216 0.0755806 0 0.23577 0.0751709 0 0.240229 0.074725 0 0.244594 0.0742327 0 0.24887 0.0736822 0 0.253068 0.0730595 0 0.257202 0.0723492 0 0.187954 0.0814956 0 0.19346 0.0813984 0 0.199053 0.0812498 0 0.204701 0.0810594 0 0.210373 0.0808352 0 0.216041 0.0805831 0 0.22168 0.0803072 0 0.227266 0.080009 0 0.232783 0.0796882 0 0.238216 0.0793419 0 0.243555 0.0789653 0 0.248794 0.0785514 0 0.253932 0.0780911 0 0.258971 0.0775735 0 0.263917 0.0769859 0 0.268782 0.0763143 0 0.18796 0.0848849 0 0.194229 0.0848237 0 0.200586 0.0847135 0 0.207 0.0845631 0 0.213439 0.0843794 0 0.219878 0.0841675 0 0.22629 0.0839308 0 0.232653 0.0836707 0 0.238951 0.0833866 0 0.245166 0.0830759 0 0.251288 0.0827343 0 0.257309 0.0823554 0 0.263226 0.081931 0 0.269037 0.0814513 0 0.274746 0.080905 0 0.280362 0.0802794 0 0.187965 0.0882743 0 0.194997 0.0882426 0 0.202115 0.0881654 0 0.209287 0.0880501 0 0.216487 0.0879028 0 0.223688 0.087728 0 0.230866 0.0875283 0 0.238 0.0873049 0 0.245072 0.0870572 0 0.252066 0.0867829 0 0.258969 0.0864781 0 0.265774 0.086137 0 0.272475 0.0857525 0 0.279068 0.0853158 0 0.285556 0.0848169 0 0.291941 0.0842444 0 0.18797 0.0916637 0 0.195763 0.0916552 0 0.203638 0.0916054 0 0.211564 0.0915205 0 0.219518 0.0914057 0 0.227474 0.0912647 0 0.23541 0.0910998 0 0.243307 0.0909119 0 0.251147 0.0907004 0 0.258915 0.0904632 0 0.266599 0.0901969 0 0.27419 0.0898965 0 0.281679 0.0895558 0 0.289065 0.0891671 0 0.296345 0.0887216 0 0.303521 0.0882095 0 0.187975 0.0950531 0 0.196529 0.0950616 0 0.205155 0.0950336 0 0.21383 0.0949743 0 0.22253 0.0948881 0 0.231234 0.0947779 0 0.239921 0.0946457 0 0.248575 0.094492 0 0.257177 0.0943164 0 0.265716 0.0941171 0 0.274179 0.0938911 0 0.282556 0.0936341 0 0.290841 0.093341 0 0.299028 0.0930051 0 0.307114 0.0926192 0 0.315101 0.0921746 0 0.18798 0.0984425 0 0.197292 0.0984617 0 0.206668 0.0984501 0 0.216085 0.0984118 0 0.225525 0.0983503 0 0.234969 0.0982679 0 0.2444 0.0981662 0 0.253803 0.0980456 0 0.263163 0.0979057 0 0.272468 0.0977449 0 0.281708 0.0975608 0 0.290874 0.09735 0 0.299958 0.0971082 0 0.308956 0.0968301 0 0.317864 0.0965096 0 0.326681 0.0961397 0 0.187985 0.101832 0 0.198055 0.101856 0 0.208175 0.101855 0 0.21833 0.101833 0 0.228503 0.101792 0 0.23868 0.101735 0 0.248847 0.101662 0 0.258992 0.101573 0 0.269104 0.101468 0 0.279172 0.101347 0 0.289188 0.101206 0 0.299143 0.101044 0 0.309033 0.100858 0 0.318851 0.100642 0 0.328594 0.100393 0 0.338261 0.100105 0 0.18799 0.105221 0 0.198816 0.105243 0 0.209677 0.105248 0 0.220564 0.105238 0 0.231463 0.105215 0 0.242366 0.105179 0 0.253263 0.105132 0 0.264144 0.105074 0 0.275001 0.105005 0 0.285828 0.104923 0 0.296618 0.104828 0 0.307365 0.104717 0 0.318064 0.104589 0 0.328712 0.104441 0 0.339305 0.104269 0 0.34984 0.10407 0 0.187995 0.108611 0 0.199575 0.108625 0 0.211175 0.10863 0 0.222787 0.108627 0 0.234407 0.108617 0 0.246028 0.108601 0 0.257647 0.108578 0 0.269257 0.10855 0 0.280855 0.108515 0 0.292437 0.108474 0 0.304 0.108426 0 0.315539 0.108369 0 0.327053 0.108303 0 0.338539 0.108227 0 0.349995 0.108138 0 0.36142 0.108035 0 0.188 0.112 0 0.200333 0.112 0 0.212667 0.112 0 0.225 0.112 0 0.237333 0.112 0 0.249667 0.112 0 0.262 0.112 0 0.274333 0.112 0 0.286667 0.112 0 0.299 0.112 0 0.311333 0.112 0 0.323667 0.112 0 0.336 0.112 0 0.348333 0.112 0 0.360667 0.112 0 0.373 0.112 0 
</DataArray>
</Points> 
</Piece> 
</StructuredGrid> 
</VTKFile> 
