<?xml version="1.0"?> 
<VTKFile type="StructuredGrid" version="0.1"> 
<StructuredGrid WholeExtent="0 15 0 15 0 0"> 
<Piece Extent="0 15 0 15 0 0"> 
<PointData>
<DataArray type="Float32" Name="|E|" format="ascii" NumberOfComponents="3"> 
-369859 0 0 -367281 -90488.8 0 -359315 -181739 0 -345272 -274865 0 -324454 -371849 0 -295620 -460437 0 -254943 -539693 0 -206184 -743442 0 -164771 -1.20433e+06 0 -121441 -1.59943e+06 0 -16920.8 -1.17915e+06 0 207732 326178 0 525235 1.69425e+06 0 795117 44230.5 0 824405 -8.33393e+06 0 478967 -2.68314e+07 0 -450841 0 0 -446790 -128121 0 -434201 -258763 0 -412070 -395495 0 -379175 -544787 0 -340577 -707971 0 -289656 -872063 0 -185025 -1.08724e+06 0 -35662.6 -1.52481e+06 0 -12521.4 -2.27708e+06 0 -367765 -3.08744e+06 0 -1.19578e+06 -3.43297e+06 0 -2.28613e+06 -2.98232e+06 0 -3.20696e+06 -2.03336e+06 0 -3.53108e+06 -1.58873e+06 0 -3.02971e+06 -3.07604e+06 0 -535171 0 0 -530085 -167632 0 -514536 -341309 0 -488033 -529177 0 -453294 -739676 0 -403599 -987621 0 -342109 -1.3509e+06 0 -394651 -1.92884e+06 0 -787824 -2.58599e+06 0 -1.57755e+06 -2.89916e+06 0 -2.48547e+06 -2.573e+06 0 -3.10066e+06 -1.84938e+06 0 -3.22589e+06 -1.35756e+06 0 -3.02365e+06 -1.4584e+06 0 -2.8821e+06 -1.5812e+06 0 -3.16366e+06 7474.97 0 -622315 0 0 -616984 -208104 0 -601467 -427205 0 -578960 -670793 0 -554301 -961679 0 -555573 -1.36021e+06 0 -732906 -1.90546e+06 0 -1.27326e+06 -2.39317e+06 0 -2.07735e+06 -2.44407e+06 0 -2.74461e+06 -1.98122e+06 0 -2.98828e+06 -1.40464e+06 0 -2.91257e+06 -1.13178e+06 0 -2.8319e+06 -1.08979e+06 0 -2.91622e+06 -829713 0 -3.04501e+06 -292665 0 -2.94233e+06 -693616 0 -711199 0 0 -706900 -248617 0 -696119 -513506 0 -689127 -817099 0 -714628 -1.20111e+06 0 -898097 -1.69121e+06 0 -1.41027e+06 -2.10929e+06 0 -2.13345e+06 -2.11701e+06 0 -2.6646e+06 -1.69005e+06 0 -2.81069e+06 -1.22016e+06 0 -2.77864e+06 -984907 0 -2.81856e+06 -827487 0 -2.92532e+06 -510587 0 -2.95691e+06 -170318 0 -2.90307e+06 -88221.4 0 -2.94376e+06 337289 0 -801085 0 0 -799159 -287996 0 -798852 -597584 0 -823147 -959680 0 -953630 -1.40248e+06 0 -1.35579e+06 -1.82127e+06 0 -1.99511e+06 -1.91278e+06 0 -2.5075e+06 -1.58473e+06 0 -2.68316e+06 -1.16452e+06 0 -2.71089e+06 -899993 0 -2.78512e+06 -667826 0 -2.85747e+06 -339828 0 -2.84956e+06 -47805.1 0 -2.82521e+06 115175 0 -2.85499e+06 353104 0 -2.86047e+06 499672 0 -891699 0 0 -893156 -325328 0 -908539 -676777 0 -981551 -1.083e+06 0 -1.2412e+06 -1.51339e+06 0 -1.76768e+06 -1.74238e+06 0 -2.30369e+06 -1.5648e+06 0 -2.56086e+06 -1.18137e+06 0 -2.63656e+06 -871376 0 -2.71483e+06 -593470 0 -2.77001e+06 -262533 0 -2.76396e+06 26024.6 0 -2.76551e+06 240303 0 -2.79942e+06 502555 0 -2.81708e+06 779981 0 -2.83696e+06 1.0673e+06 0 -982590 0 0 -988164 -360256 0 -1.02299e+06 -748062 0 -1.15646e+06 -1.17284e+06 0 -1.52091e+06 -1.52447e+06 0 -2.04315e+06 -1.55124e+06 0 -2.40509e+06 -1.25186e+06 0 -2.54249e+06 -907488 0 -2.62609e+06 -596458 0 -2.68325e+06 -257365 0 -2.69025e+06 51806.4 0 -2.70338e+06 312858 0 -2.73441e+06 606121 0 -2.75027e+06 909458 0 -2.76393e+06 1.18479e+06 0 -2.77712e+06 1.4742e+06 0 -1.07295e+06 0 0 -1.08325e+06 -392741 0 -1.13956e+06 -808770 0 -1.33336e+06 -1.22369e+06 0 -1.74848e+06 -1.46174e+06 0 -2.18722e+06 -1.33797e+06 0 -2.4196e+06 -1.00547e+06 0 -2.52489e+06 -665443 0 -2.59351e+06 -313137 0 -2.61649e+06 25933.6 0 -2.63402e+06 327978 0 -2.66271e+06 646913 0 -2.67979e+06 972012 0 -2.69399e+06 1.27993e+06 0 -2.70691e+06 1.6168e+06 0 -2.70734e+06 1.97019e+06 0 -1.16199e+06 0 0 -1.17741e+06 -422761 0 -1.25538e+06 -857597 0 -1.49675e+06 -1.23925e+06 0 -1.90791e+06 -1.35987e+06 0 -2.24592e+06 -1.14159e+06 0 -2.40779e+06 -792792 0 -2.49454e+06 -425793 0 -2.53721e+06 -56768.2 0 -2.55932e+06 283670 0 -2.58714e+06 627010 0 -2.60706e+06 976827 0 -2.62114e+06 1.31874e+06 0 -2.62998e+06 1.68494e+06 0 -2.61828e+06 2.06339e+06 0 -2.54705e+06 2.45218e+06 0 -1.2493e+06 0 0 -1.26983e+06 -450228 0 -1.36736e+06 -895043 0 -1.63504e+06 -1.22824e+06 0 -2.00534e+06 -1.24422e+06 0 -2.25885e+06 -964549 0 -2.3816e+06 -590745 0 -2.44748e+06 -198173 0 -2.4801e+06 180115 0 -2.50821e+06 549300 0 -2.53164e+06 924573 0 -2.54632e+06 1.29769e+06 0 -2.55226e+06 1.68797e+06 0 -2.53472e+06 2.0899e+06 0 -2.44492e+06 2.47801e+06 0 -2.21064e+06 2.75893e+06 0 -1.33503e+06 0 0 -1.35997e+06 -475180 0 -1.47233e+06 -923053 0 -1.74272e+06 -1.20001e+06 0 -2.05546e+06 -1.12708e+06 0 -2.24639e+06 -798764 0 -2.34235e+06 -395306 0 -2.39378e+06 16410.4 0 -2.42597e+06 415405 0 -2.45302e+06 815286 0 -2.47042e+06 1.21708e+06 0 -2.47609e+06 1.62994e+06 0 -2.45923e+06 2.05326e+06 0 -2.37333e+06 2.45567e+06 0 -2.15283e+06 2.72713e+06 0 -1.82867e+06 2.66376e+06 0 -1.41955e+06 0 0 -1.44755e+06 -498029 0 -1.56741e+06 -944216 0 -1.8195e+06 -1.16192e+06 0 -2.07174e+06 -1.01181e+06 0 -2.21729e+06 -638547 0 -2.29448e+06 -206755 0 -2.33911e+06 225121 0 -2.37063e+06 650325 0 -2.39295e+06 1.07844e+06 0 -2.40134e+06 1.51416e+06 0 -2.38967e+06 1.95927e+06 0 -2.32351e+06 2.38707e+06 0 -2.14298e+06 2.67898e+06 0 -1.8799e+06 2.63382e+06 0 -1.67598e+06 2.19958e+06 0 -1.5031e+06 0 0 -1.53245e+06 -519560 0 -1.65045e+06 -961105 0 -1.86794e+06 -1.11872e+06 0 -2.06361e+06 -897823 0 -2.17694e+06 -481592 0 -2.24244e+06 -23404.8 0 -2.28367e+06 431160 0 -2.31225e+06 883509 0 -2.32663e+06 1.34259e+06 0 -2.32181e+06 1.81e+06 0 -2.27996e+06 2.27009e+06 0 -2.15307e+06 2.61604e+06 0 -1.95008e+06 2.62522e+06 0 -1.7785e+06 2.2012e+06 0 -1.67149e+06 1.48985e+06 0 -1.58572e+06 0 0 -1.6146e+06 -540666 0 -1.72022e+06 -976074 0 -1.89132e+06 -1.07282e+06 0 -2.0377e+06 -783475 0 -2.12962e+06 -326978 0 -2.18836e+06 156371 0 -2.22672e+06 635085 0 -2.24944e+06 1.11616e+06 0 -2.25302e+06 1.60615e+06 0 -2.23042e+06 2.098e+06 0 -2.15606e+06 2.51855e+06 0 -2.01865e+06 2.63579e+06 0 -1.88743e+06 2.27788e+06 0 -1.80645e+06 1.54277e+06 0 -1.79142e+06 432755 0 -1.66734e+06 0 0 -1.69402e+06 -562133 0 -1.77607e+06 -991222 0 -1.8927e+06 -1.02474e+06 0 -1.99925e+06 -667198 0 -2.07829e+06 -174510 0 -2.13303e+06 333517 0 -2.16724e+06 837413 0 -2.18126e+06 1.34813e+06 0 -2.1723e+06 1.86738e+06 0 -2.13413e+06 2.3623e+06 0 -2.06315e+06 2.63318e+06 0 -1.98622e+06 2.40225e+06 0 -1.94116e+06 1.74317e+06 0 -1.95108e+06 731705 0 -2.00197e+06 132419 0 </DataArray> 
</PointData> 
<Points> 
<DataArray type="Float32" NumberOfComponents="3"> 
0 0.021 0 0.00106667 0.021 0 0.00213333 0.021 0 0.0032 0.021 0 0.00426667 0.021 0 0.00533333 0.021 0 0.0064 0.021 0 0.00746667 0.021 0 0.00853333 0.021 0 0.0096 0.021 0 0.0106667 0.021 0 0.0117333 0.021 0 0.0128 0.021 0 0.0138667 0.021 0 0.0149333 0.021 0 0.016 0.021 0 0 0.0219333 0 0.00144 0.0219333 0 0.00288 0.0219333 0 0.00432 0.0219333 0 0.00576 0.0219333 0 0.0072 0.0219333 0 0.00864 0.0219333 0 0.01008 0.0219333 0 0.01152 0.0219333 0 0.01296 0.0219333 0 0.0144 0.0219333 0 0.01584 0.0219333 0 0.01728 0.0219333 0 0.01872 0.0219333 0 0.02016 0.0219333 0 0.0216 0.0219333 0 0 0.0228667 0 0.00181333 0.0228667 0 0.00362667 0.0228667 0 0.00544 0.0228667 0 0.00725333 0.0228667 0 0.00906667 0.0228667 0 0.01088 0.0228667 0 0.0126933 0.0228667 0 0.0145067 0.0228667 0 0.01632 0.0228667 0 0.0181333 0.0228667 0 0.0199467 0.0228667 0 0.02176 0.0228667 0 0.0235733 0.0228667 0 0.0253867 0.0228667 0 0.0272 0.0228667 0 0 0.0238 0 0.00218667 0.0238 0 0.00437333 0.0238 0 0.00656 0.0238 0 0.00874667 0.0238 0 0.0109333 0.0238 0 0.01312 0.0238 0 0.0153067 0.0238 0 0.0174933 0.0238 0 0.01968 0.0238 0 0.0218667 0.0238 0 0.0240533 0.0238 0 0.02624 0.0238 0 0.0284267 0.0238 0 0.0306133 0.0238 0 0.0328 0.0238 0 0 0.0247333 0 0.00256 0.0247333 0 0.00512 0.0247333 0 0.00768 0.0247333 0 0.01024 0.0247333 0 0.0128 0.0247333 0 0.01536 0.0247333 0 0.01792 0.0247333 0 0.02048 0.0247333 0 0.02304 0.0247333 0 0.0256 0.0247333 0 0.02816 0.0247333 0 0.03072 0.0247333 0 0.03328 0.0247333 0 0.03584 0.0247333 0 0.0384 0.0247333 0 0 0.0256667 0 0.00293333 0.0256667 0 0.00586667 0.0256667 0 0.0088 0.0256667 0 0.0117333 0.0256667 0 0.0146667 0.0256667 0 0.0176 0.0256667 0 0.0205333 0.0256667 0 0.0234667 0.0256667 0 0.0264 0.0256667 0 0.0293333 0.0256667 0 0.0322667 0.0256667 0 0.0352 0.0256667 0 0.0381333 0.0256667 0 0.0410667 0.0256667 0 0.044 0.0256667 0 0 0.0266 0 0.00330667 0.0266 0 0.00661333 0.0266 0 0.00992 0.0266 0 0.0132267 0.0266 0 0.0165333 0.0266 0 0.01984 0.0266 0 0.0231467 0.0266 0 0.0264533 0.0266 0 0.02976 0.0266 0 0.0330667 0.0266 0 0.0363733 0.0266 0 0.03968 0.0266 0 0.0429867 0.0266 0 0.0462933 0.0266 0 0.0496 0.0266 0 0 0.0275333 0 0.00368 0.0275333 0 0.00736 0.0275333 0 0.01104 0.0275333 0 0.01472 0.0275333 0 0.0184 0.0275333 0 0.02208 0.0275333 0 0.02576 0.0275333 0 0.02944 0.0275333 0 0.03312 0.0275333 0 0.0368 0.0275333 0 0.04048 0.0275333 0 0.04416 0.0275333 0 0.04784 0.0275333 0 0.05152 0.0275333 0 0.0552 0.0275333 0 0 0.0284667 0 0.00405333 0.0284667 0 0.00810667 0.0284667 0 0.01216 0.0284667 0 0.0162133 0.0284667 0 0.0202667 0.0284667 0 0.02432 0.0284667 0 0.0283733 0.0284667 0 0.0324267 0.0284667 0 0.03648 0.0284667 0 0.0405333 0.0284667 0 0.0445867 0.0284667 0 0.04864 0.0284667 0 0.0526933 0.0284667 0 0.0567467 0.0284667 0 0.0608 0.0284667 0 0 0.0294 0 0.00442667 0.0294 0 0.00885333 0.0294 0 0.01328 0.0294 0 0.0177067 0.0294 0 0.0221333 0.0294 0 0.02656 0.0294 0 0.0309867 0.0294 0 0.0354133 0.0294 0 0.03984 0.0294 0 0.0442667 0.0294 0 0.0486933 0.0294 0 0.05312 0.0294 0 0.0575467 0.0294 0 0.0619733 0.0294 0 0.0664 0.0294 0 0 0.0303333 0 0.0048 0.0303333 0 0.0096 0.0303333 0 0.0144 0.0303333 0 0.0192 0.0303333 0 0.024 0.0303333 0 0.0288 0.0303333 0 0.0336 0.0303333 0 0.0384 0.0303333 0 0.0432 0.0303333 0 0.048 0.0303333 0 0.0528 0.0303333 0 0.0576 0.0303333 0 0.0624 0.0303333 0 0.0672 0.0303333 0 0.072 0.0303333 0 0 0.0312667 0 0.00517333 0.0312667 0 0.0103467 0.0312667 0 0.01552 0.0312667 0 0.0206933 0.0312667 0 0.0258667 0.0312667 0 0.03104 0.0312667 0 0.0362133 0.0312667 0 0.0413867 0.0312667 0 0.04656 0.0312667 0 0.0517333 0.0312667 0 0.0569067 0.0312667 0 0.06208 0.0312667 0 0.0672533 0.0312667 0 0.0724267 0.0312667 0 0.0776 0.0312667 0 0 0.0322 0 0.00554667 0.0322 0 0.0110933 0.0322 0 0.01664 0.0322 0 0.0221867 0.0322 0 0.0277333 0.0322 0 0.03328 0.0322 0 0.0388267 0.0322 0 0.0443733 0.0322 0 0.04992 0.0322 0 0.0554667 0.0322 0 0.0610133 0.0322 0 0.06656 0.0322 0 0.0721067 0.0322 0 0.0776533 0.0322 0 0.0832 0.0322 0 0 0.0331333 0 0.00592 0.0331333 0 0.01184 0.0331333 0 0.01776 0.0331333 0 0.02368 0.0331333 0 0.0296 0.0331333 0 0.03552 0.0331333 0 0.04144 0.0331333 0 0.04736 0.0331333 0 0.05328 0.0331333 0 0.0592 0.0331333 0 0.06512 0.0331333 0 0.07104 0.0331333 0 0.07696 0.0331333 0 0.08288 0.0331333 0 0.0888 0.0331333 0 0 0.0340667 0 0.00629333 0.0340667 0 0.0125867 0.0340667 0 0.01888 0.0340667 0 0.0251733 0.0340667 0 0.0314667 0.0340667 0 0.03776 0.0340667 0 0.0440533 0.0340667 0 0.0503467 0.0340667 0 0.05664 0.0340667 0 0.0629333 0.0340667 0 0.0692267 0.0340667 0 0.07552 0.0340667 0 0.0818133 0.0340667 0 0.0881067 0.0340667 0 0.0944 0.0340667 0 0 0.035 0 0.00666667 0.035 0 0.0133333 0.035 0 0.02 0.035 0 0.0266667 0.035 0 0.0333333 0.035 0 0.04 0.035 0 0.0466667 0.035 0 0.0533333 0.035 0 0.06 0.035 0 0.0666667 0.035 0 0.0733333 0.035 0 0.08 0.035 0 0.0866667 0.035 0 0.0933333 0.035 0 0.1 0.035 0 
</DataArray>
</Points> 
</Piece> 
</StructuredGrid> 
</VTKFile> 
