<?xml version="1.0"?> 
<VTKFile type="StructuredGrid" version="0.1"> 
<StructuredGrid WholeExtent="0 15 0 15 0 0"> 
<Piece Extent="0 15 0 15 0 0"> 
<PointData>
<DataArray type="Float32" Name="|E|" format="ascii" NumberOfComponents="3"> 
2.98023e-07 1.71661e-05 0 -4.07308e-08 818.106 0 2.69501e-08 407.305 0 2.56114e-09 195.877 0 -3.21306e-08 98.5307 0 3.35276e-08 52.7626 0 -3.63216e-08 28.9718 0 3.53903e-08 16.6894 0 -3.07336e-08 9.68569 0 2.04891e-08 5.74278 0 -1.86265e-08 3.40696 0 2.23517e-08 2.02277 0 -3.35276e-08 1.1787 0 2.98023e-08 0.647668 0 7.45058e-09 0.2864 0 -2.68221e-07 4.76837e-07 0 88.0505 -1.82539e-07 0 -15.8036 817.907 0 -10.5842 407.293 0 -6.62652 195.699 0 -3.60984 98.478 0 -2.17952 52.7057 0 -1.25226 28.9436 0 -0.803317 16.6688 0 -0.491058 9.67242 0 -0.322493 5.73371 0 -0.20511 3.40072 0 -0.135442 2.01852 0 -0.0896248 1.17586 0 -0.0626858 0.645881 0 -0.0485558 0.285502 0 -0.0456831 -9.48785e-08 0 176.534 -1.40443e-06 0 -31.6836 817.303 0 -21.1632 407.26 0 -13.2401 195.163 0 -7.21535 98.3212 0 -4.35292 52.5346 0 -2.50154 28.8596 0 -1.60443 16.6069 0 -0.980438 9.6327 0 -0.644005 5.70652 0 -0.409347 3.38202 0 -0.270338 2.00579 0 -0.178788 1.16733 0 -0.125031 0.640528 0 -0.0968038 0.282817 0 -0.0910419 1.81142e-07 0 265.885 1.33365e-06 0 -47.7159 816.269 0 -31.7323 407.217 0 -19.8273 194.263 0 -10.8126 98.0647 0 -6.51386 52.2477 0 -3.74505 28.7211 0 -2.40107 16.5036 0 -1.4665 9.56686 0 -0.963548 5.66125 0 -0.611845 3.35097 0 -0.404146 1.98463 0 -0.267029 1.15316 0 -0.186696 0.631639 0 -0.144437 0.278363 0 -0.135754 -1.53668e-07 0 356.546 -8.9407e-07 0 -63.9753 814.766 0 -42.2877 407.183 0 -26.3736 192.988 0 -14.3983 97.7157 0 -8.65549 51.8421 0 -4.98031 28.5302 0 -3.19081 16.3583 0 -1.94771 9.47545 0 -1.28011 5.59797 0 -0.811757 3.30775 0 -0.536329 1.95512 0 -0.353892 1.13345 0 -0.24735 0.61926 0 -0.191154 0.272172 0 -0.179502 2.55182e-07 0 448.967 1.3113e-06 0 -80.5348 812.738 0 -52.8273 407.183 0 -32.8633 191.323 0 -17.9707 97.2849 0 -10.7702 51.3139 0 -6.20543 28.2901 0 -3.97096 16.1705 0 -2.42269 9.35927 0 -1.59264 5.51675 0 -1.00826 3.25259 0 -0.666355 1.91738 0 -0.438925 1.1083 0 -0.306668 0.603457 0 -0.236656 0.264288 0 -0.221969 -1.86265e-07 0 543.609 -2.98023e-07 0 -97.4652 810.11 0 -63.3509 407.254 0 -39.2782 189.249 0 -21.5295 96.7861 0 -12.8492 50.6573 0 -7.41931 28.0051 0 -4.73845 15.9393 0 -2.89032 9.21941 0 -1.9 5.41766 0 -1.2006 3.18582 0 -0.793694 1.87154 0 -0.521689 1.07785 0 -0.364333 0.58431 0 -0.280654 0.254769 0 -0.262845 7.07805e-08 0 640.95 -5.96046e-07 0 -114.834 806.793 0 -73.8609 407.437 0 -45.5976 186.74 0 -25.0771 96.237 0 -14.8821 49.8651 0 -8.62202 27.6808 0 -5.48959 15.6632 0 -3.34985 9.05732 0 -2.20091 5.30072 0 -1.38811 3.10786 0 -0.9178 1.81776 0 -0.601763 1.04228 0 -0.420039 0.561919 0 -0.322867 0.243685 0 -0.301824 -7.45058e-09 0 741.485 -1.19209e-07 0 -132.706 802.678 0 -84.3635 407.786 0 -51.797 183.765 0 -28.6185 95.6596 0 -16.8566 48.9279 0 -9.8152 27.3243 0 -6.21982 15.3404 0 -3.80113 8.87484 0 -2.49384 5.1659 0 -1.57027 3.01921 0 -1.03809 1.75625 0 -0.678761 1.00179 0 -0.473486 0.5364 0 -0.36303 0.231114 0 -0.338604 0 0 845.729 2.6226e-06 0 -151.139 797.638 0 -94.869 408.364 0 -57.8478 180.288 0 -32.1629 95.0802 0 -18.7574 47.8337 0 -11.0026 26.9445 0 -6.92332 14.9682 0 -4.24485 8.67429 0 -2.77684 5.01307 0 -1.74681 2.92046 0 -1.15391 1.68722 0 -0.752357 0.956613 0 -0.524369 0.507901 0 -0.400897 0.21714 0 -0.372885 -6.70552e-08 0 954.223 -3.21865e-06 0 -170.188 791.526 0 -105.393 409.244 0 -63.7155 176.263 0 -35.7246 94.5308 0 -20.5654 46.5679 0 -12.191 26.5522 0 -7.59245 14.5432 0 -4.68293 8.45853 0 -3.04734 4.84197 0 -1.91788 2.81228 0 -1.2644 1.61095 0 -0.822329 0.906941 0 -0.572366 0.47661 0 -0.43625 0.201829 0 -0.404384 1.3411e-07 0 1067.53 1.66893e-06 0 -189.9 784.175 0 -115.958 410.511 0 -69.3591 171.64 0 -39.3236 94.0491 0 -22.2571 45.1121 0 -13.3907 26.1608 0 -8.21707 14.0606 0 -5.11904 8.23109 0 -3.30173 4.65223 0 -2.08425 2.69538 0 -1.36846 1.5278 0 -0.888632 0.85293 0 -0.617101 0.442806 0 -0.468904 0.1852 0 -0.432867 -8.9407e-08 0 1186.26 -7.15256e-07 0 -210.315 775.398 0 -126.593 412.266 0 -74.7292 166.356 0 -42.9881 93.6793 0 -23.8026 43.4442 0 -14.6173 25.7864 0 -8.78355 13.5145 0 -5.5594 7.99619 0 -3.5349 4.44335 0 -2.24767 2.57045 0 -1.46445 1.43834 0 -0.951517 0.794581 0 -0.658093 0.406938 0 -0.498726 0.167142 0 -0.458247 4.47035e-08 0 1311.04 4.76837e-07 0 -231.464 764.982 0 -137.339 414.619 0 -79.7667 160.342 0 -46.7553 93.4734 0 -25.1641 41.537 0 -15.8929 25.4483 0 -9.27343 12.8975 0 -6.01374 7.75883 0 -3.73946 4.21477 0 -2.41139 2.43801 0 -1.5499 1.34347 0 -1.01173 0.731567 0 -0.694667 0.36979 0 -0.525623 0.147264 0 -0.480827 -2.38419e-07 0 1442.55 -7.15256e-07 0 -253.367 752.692 0 -148.245 417.701 0 -84.4004 153.517 0 -50.6745 93.4917 0 -26.2939 39.3581 0 -17.2483 25.1696 0 -9.66173 12.2 0 -6.49679 7.52479 0 -3.90465 3.96605 0 -2.58093 2.29811 0 -1.62102 1.24478 0 -1.07078 0.662915 0 -0.725819 0.3328 0 -0.549515 0.124581 0 -0.501852 2.98023e-08 0 1581.49 1.90735e-06 0 -276.033 738.272 0 -159.374 421.655 0 -88.545 145.787 0 -54.8088 93.8031 0 -27.1316 36.8692 0 -18.7254 24.9773 0 -9.91464 11.4108 0 -7.03017 7.30043 0 -4.01487 3.69713 0 -2.76519 2.14996 0 -1.67192 1.14496 0 -1.13147 0.586491 0 -0.750006 0.298583 0 -0.570213 0.0969795 0 -0.524755 9.53674e-07 0 </DataArray> 
</PointData> 
<Points> 
<DataArray type="Float32" NumberOfComponents="3"> 
0.125 0.02 0 0.129 0.02 0 0.133 0.02 0 0.137 0.02 0 0.141 0.02 0 0.145 0.02 0 0.149 0.02 0 0.153 0.02 0 0.157 0.02 0 0.161 0.02 0 0.165 0.02 0 0.169 0.02 0 0.173 0.02 0 0.177 0.02 0 0.181 0.02 0 0.185 0.02 0 0.125 0.0200667 0 0.129 0.0201067 0 0.133 0.0201467 0 0.137 0.0201867 0 0.141 0.0202267 0 0.145 0.0202667 0 0.149 0.0203067 0 0.153 0.0203467 0 0.157 0.0203867 0 0.161 0.0204267 0 0.165 0.0204667 0 0.169 0.0205067 0 0.173 0.0205467 0 0.177 0.0205867 0 0.181 0.0206267 0 0.185 0.0206667 0 0.125 0.0201333 0 0.129 0.0202133 0 0.133 0.0202933 0 0.137 0.0203733 0 0.141 0.0204533 0 0.145 0.0205333 0 0.149 0.0206133 0 0.153 0.0206933 0 0.157 0.0207733 0 0.161 0.0208533 0 0.165 0.0209333 0 0.169 0.0210133 0 0.173 0.0210933 0 0.177 0.0211733 0 0.181 0.0212533 0 0.185 0.0213333 0 0.125 0.0202 0 0.129 0.02032 0 0.133 0.02044 0 0.137 0.02056 0 0.141 0.02068 0 0.145 0.0208 0 0.149 0.02092 0 0.153 0.02104 0 0.157 0.02116 0 0.161 0.02128 0 0.165 0.0214 0 0.169 0.02152 0 0.173 0.02164 0 0.177 0.02176 0 0.181 0.02188 0 0.185 0.022 0 0.125 0.0202667 0 0.129 0.0204267 0 0.133 0.0205867 0 0.137 0.0207467 0 0.141 0.0209067 0 0.145 0.0210667 0 0.149 0.0212267 0 0.153 0.0213867 0 0.157 0.0215467 0 0.161 0.0217067 0 0.165 0.0218667 0 0.169 0.0220267 0 0.173 0.0221867 0 0.177 0.0223467 0 0.181 0.0225067 0 0.185 0.0226667 0 0.125 0.0203333 0 0.129 0.0205333 0 0.133 0.0207333 0 0.137 0.0209333 0 0.141 0.0211333 0 0.145 0.0213333 0 0.149 0.0215333 0 0.153 0.0217333 0 0.157 0.0219333 0 0.161 0.0221333 0 0.165 0.0223333 0 0.169 0.0225333 0 0.173 0.0227333 0 0.177 0.0229333 0 0.181 0.0231333 0 0.185 0.0233333 0 0.125 0.0204 0 0.129 0.02064 0 0.133 0.02088 0 0.137 0.02112 0 0.141 0.02136 0 0.145 0.0216 0 0.149 0.02184 0 0.153 0.02208 0 0.157 0.02232 0 0.161 0.02256 0 0.165 0.0228 0 0.169 0.02304 0 0.173 0.02328 0 0.177 0.02352 0 0.181 0.02376 0 0.185 0.024 0 0.125 0.0204667 0 0.129 0.0207467 0 0.133 0.0210267 0 0.137 0.0213067 0 0.141 0.0215867 0 0.145 0.0218667 0 0.149 0.0221467 0 0.153 0.0224267 0 0.157 0.0227067 0 0.161 0.0229867 0 0.165 0.0232667 0 0.169 0.0235467 0 0.173 0.0238267 0 0.177 0.0241067 0 0.181 0.0243867 0 0.185 0.0246667 0 0.125 0.0205333 0 0.129 0.0208533 0 0.133 0.0211733 0 0.137 0.0214933 0 0.141 0.0218133 0 0.145 0.0221333 0 0.149 0.0224533 0 0.153 0.0227733 0 0.157 0.0230933 0 0.161 0.0234133 0 0.165 0.0237333 0 0.169 0.0240533 0 0.173 0.0243733 0 0.177 0.0246933 0 0.181 0.0250133 0 0.185 0.0253333 0 0.125 0.0206 0 0.129 0.02096 0 0.133 0.02132 0 0.137 0.02168 0 0.141 0.02204 0 0.145 0.0224 0 0.149 0.02276 0 0.153 0.02312 0 0.157 0.02348 0 0.161 0.02384 0 0.165 0.0242 0 0.169 0.02456 0 0.173 0.02492 0 0.177 0.02528 0 0.181 0.02564 0 0.185 0.026 0 0.125 0.0206667 0 0.129 0.0210667 0 0.133 0.0214667 0 0.137 0.0218667 0 0.141 0.0222667 0 0.145 0.0226667 0 0.149 0.0230667 0 0.153 0.0234667 0 0.157 0.0238667 0 0.161 0.0242667 0 0.165 0.0246667 0 0.169 0.0250667 0 0.173 0.0254667 0 0.177 0.0258667 0 0.181 0.0262667 0 0.185 0.0266667 0 0.125 0.0207333 0 0.129 0.0211733 0 0.133 0.0216133 0 0.137 0.0220533 0 0.141 0.0224933 0 0.145 0.0229333 0 0.149 0.0233733 0 0.153 0.0238133 0 0.157 0.0242533 0 0.161 0.0246933 0 0.165 0.0251333 0 0.169 0.0255733 0 0.173 0.0260133 0 0.177 0.0264533 0 0.181 0.0268933 0 0.185 0.0273333 0 0.125 0.0208 0 0.129 0.02128 0 0.133 0.02176 0 0.137 0.02224 0 0.141 0.02272 0 0.145 0.0232 0 0.149 0.02368 0 0.153 0.02416 0 0.157 0.02464 0 0.161 0.02512 0 0.165 0.0256 0 0.169 0.02608 0 0.173 0.02656 0 0.177 0.02704 0 0.181 0.02752 0 0.185 0.028 0 0.125 0.0208667 0 0.129 0.0213867 0 0.133 0.0219067 0 0.137 0.0224267 0 0.141 0.0229467 0 0.145 0.0234667 0 0.149 0.0239867 0 0.153 0.0245067 0 0.157 0.0250267 0 0.161 0.0255467 0 0.165 0.0260667 0 0.169 0.0265867 0 0.173 0.0271067 0 0.177 0.0276267 0 0.181 0.0281467 0 0.185 0.0286667 0 0.125 0.0209333 0 0.129 0.0214933 0 0.133 0.0220533 0 0.137 0.0226133 0 0.141 0.0231733 0 0.145 0.0237333 0 0.149 0.0242933 0 0.153 0.0248533 0 0.157 0.0254133 0 0.161 0.0259733 0 0.165 0.0265333 0 0.169 0.0270933 0 0.173 0.0276533 0 0.177 0.0282133 0 0.181 0.0287733 0 0.185 0.0293333 0 0.125 0.021 0 0.129 0.0216 0 0.133 0.0222 0 0.137 0.0228 0 0.141 0.0234 0 0.145 0.024 0 0.149 0.0246 0 0.153 0.0252 0 0.157 0.0258 0 0.161 0.0264 0 0.165 0.027 0 0.169 0.0276 0 0.173 0.0282 0 0.177 0.0288 0 0.181 0.0294 0 0.185 0.03 0 
</DataArray>
</Points> 
</Piece> 
</StructuredGrid> 
</VTKFile> 
