<?xml version="1.0"?> 
<VTKFile type="StructuredGrid" version="0.1"> 
<StructuredGrid WholeExtent="0 15 0 15 0 0"> 
<Piece Extent="0 15 0 15 0 0"> 
<PointData>
<DataArray type="Float32" Name="|E|" format="ascii" NumberOfComponents="3"> 
1.66623e+06 -664620 0 1.92708e+06 -284836 0 1.93566e+06 39250.5 0 1.78159e+06 215777 0 1.58357e+06 281853 0 1.38796e+06 289067 0 1.21045e+06 269012 0 1.05533e+06 237890 0 923218 203423 0 813040 169202 0 723291 136663 0 652351 106218 0 598776 77753.1 0 561379 50899.2 0 539293 25164.5 0 531991 0 0 1.71435e+06 -683815 0 1.97114e+06 -283071 0 1.95747e+06 59324.2 0 1.78654e+06 238656 0 1.58049e+06 303075 0 1.38181e+06 307604 0 1.20361e+06 284992 0 1.04881e+06 251466 0 917402 214806 0 808009 178579 0 718994 144204 0 648673 112071 0 595583 82036.4 0 558530 53704.1 0 536649 26551.7 0 529416 0 0 1.76392e+06 -703585 0 2.01728e+06 -278306 0 1.97941e+06 81969 0 1.79101e+06 262732 0 1.57698e+06 324777 0 1.37533e+06 326262 0 1.19649e+06 300959 0 1.04205e+06 264967 0 911375 226102 0 802786 187871 0 714520 151673 0 644829 117865 0 592233 86277 0 555531 56480.9 0 533860 27925.1 0 526696 0 0 1.81538e+06 -724113 0 2.06562e+06 -270231 0 2.00126e+06 107264 0 1.7949e+06 287985 0 1.57299e+06 346937 0 1.3685e+06 345027 0 1.18909e+06 316906 0 1.03505e+06 278389 0 905134 237308 0 797371 197077 0 709868 159068 0 640820 123601 0 588727 90474.1 0 552383 59229.2 0 530925 29284.4 0 523832 0 0 1.86931e+06 -745623 0 2.11629e+06 -258448 0 2.02279e+06 135264 0 1.79811e+06 314390 0 1.56847e+06 369523 0 1.3613e+06 363884 0 1.18139e+06 332825 0 1.02781e+06 291726 0 898680 248422 0 791764 206195 0 705039 166389 0 636646 129277 0 585067 94626.8 0 549087 61948.3 0 527846 30629.2 0 520825 0 0 1.9264e+06 -768397 0 2.16937e+06 -242461 0 2.04373e+06 165991 0 1.80051e+06 341918 0 1.56338e+06 392496 0 1.35371e+06 382820 0 1.17339e+06 348707 0 1.02033e+06 304973 0 892011 259440 0 785966 215221 0 700034 173632 0 632309 134891 0 581251 98734.1 0 545642 64637.7 0 524622 31959.2 0 517674 0 0 1.98759e+06 -792802 0 2.2249e+06 -221675 0 2.06377e+06 199427 0 1.80202e+06 370543 0 1.55767e+06 415808 0 1.34572e+06 401822 0 1.16508e+06 364541 0 1.0126e+06 318128 0 885125 270360 0 779977 224155 0 694854 180797 0 627810 140443 0 577282 102795 0 542051 67296.8 0 521255 33274.3 0 514382 0 0 2.0541e+06 -819330 0 2.28282e+06 -195389 0 2.08258e+06 235501 0 1.80254e+06 400243 0 1.55131e+06 439396 0 1.33731e+06 420881 0 1.15645e+06 380311 0 1.00462e+06 331185 0 878023 281176 0 773799 232994 0 689499 187882 0 623150 145931 0 573161 106809 0 538313 69924.9 0 517746 34573.9 0 510949 0 0 2.12762e+06 -848657 0 2.34296e+06 -162808 0 2.09982e+06 274084 0 1.80196e+06 430996 0 1.54426e+06 463188 0 1.32847e+06 439994 0 1.1475e+06 396000 0 996400 344143 0 870703 291884 0 767432 241736 0 683970 194885 0 618329 151354 0 568887 110775 0 534430 72521.5 0 514095 35858 0 507375 0 0 2.21055e+06 -881737 0 2.40499e+06 -123067 0 2.11511e+06 315002 0 1.80021e+06 462784 0 1.53649e+06 487099 0 1.31918e+06 459163 0 1.13822e+06 411586 0 987923 357000 0 863167 302479 0 760877 250380 0 678268 201804 0 613349 156710 0 564463 114692 0 530403 75086 0 510303 37126.1 0 503661 0 0 2.30634e+06 -919946 0 2.46829e+06 -75289.1 0 2.12809e+06 358049 0 1.79719e+06 495569 0 1.52799e+06 511039 0 1.30942e+06 478390 0 1.12862e+06 427044 0 979190 369759 0 855417 312954 0 754132 258924 0 672394 208636 0 608210 161999 0 559889 118559 0 526232 77617.7 0 506372 38378.1 0 499809 0 0 2.42004e+06 -965295 0 2.53187e+06 -18700.9 0 2.13843e+06 403063 0 1.79282e+06 529258 0 1.51877e+06 534939 0 1.29917e+06 497672 0 1.1187e+06 442351 0 970192 382418 0 847456 323302 0 747198 267368 0 666352 215381 0 602913 167220 0 555166 122375 0 521918 80115.9 0 502301 39613.8 0 495819 0 0 2.5591e+06 -1.02077e+06 0 2.59423e+06 47161.7 0 2.14585e+06 450045 0 1.78702e+06 563627 0 1.50881e+06 558791 0 1.28841e+06 516974 0 1.10847e+06 457495 0 960922 394973 0 839290 333517 0 740073 275709 0 660142 222035 0 597459 172371 0 550297 126140 0 517463 82579.9 0 498093 40833.1 0 491692 0 0 2.73473e+06 -1.09082e+06 0 2.65307e+06 122097 0 2.1502e+06 499408 0 1.77971e+06 598163 0 1.49813e+06 582737 0 1.2771e+06 536186 0 1.09795e+06 472503 0 951373 407403 0 830924 343602 0 732755 283943 0 653768 228598 0 591848 177450 0 545282 129853 0 512867 85009.3 0 493747 42035.5 0 487430 0 0 2.96377e+06 -1.18218e+06 0 2.70497e+06 204623 0 2.15148e+06 552422 0 1.77083e+06 631780 0 1.48671e+06 607244 0 1.26527e+06 555022 0 1.08711e+06 487488 0 941550 419643 0 822356 353575 0 725245 292059 0 647232 235070 0 586081 182457 0 540122 133512 0 508132 87403.8 0 489266 43220.5 0 483033 0 0 3.27176e+06 -1.30503e+06 0 2.74496e+06 291099 0 2.14994e+06 611908 0 1.7604e+06 662367 0 1.47444e+06 633387 0 1.253e+06 572862 0 1.07591e+06 502737 0 931488 431548 0 813568 363496 0 717558 300030 0 640527 241457 0 580163 187388 0 534818 137115 0 503258 89764.8 0 484650 44385.7 0 478502 0 0 </DataArray> 
</PointData> 
<Points> 
<DataArray type="Float32" NumberOfComponents="3"> 
0.1947 0.02 0 0.206587 0.02 0 0.218473 0.02 0 0.23036 0.02 0 0.242247 0.02 0 0.254133 0.02 0 0.26602 0.02 0 0.277907 0.02 0 0.289793 0.02 0 0.30168 0.02 0 0.313567 0.02 0 0.325453 0.02 0 0.33734 0.02 0 0.349227 0.02 0 0.361113 0.02 0 0.373 0.02 0 0.195173 0.0211867 0 0.207028 0.0211867 0 0.218884 0.0211867 0 0.230739 0.0211867 0 0.242594 0.0211867 0 0.254449 0.0211867 0 0.266304 0.0211867 0 0.278159 0.0211867 0 0.290014 0.0211867 0 0.301869 0.0211867 0 0.313724 0.0211867 0 0.32558 0.0211867 0 0.337435 0.0211867 0 0.34929 0.0211867 0 0.361145 0.0211867 0 0.373 0.0211867 0 0.195647 0.0223733 0 0.20747 0.0223733 0 0.219294 0.0223733 0 0.231117 0.0223733 0 0.242941 0.0223733 0 0.254764 0.0223733 0 0.266588 0.0223733 0 0.278412 0.0223733 0 0.290235 0.0223733 0 0.302059 0.0223733 0 0.313882 0.0223733 0 0.325706 0.0223733 0 0.337529 0.0223733 0 0.349353 0.0223733 0 0.361176 0.0223733 0 0.373 0.0223733 0 0.19612 0.02356 0 0.207912 0.02356 0 0.219704 0.02356 0 0.231496 0.02356 0 0.243288 0.02356 0 0.25508 0.02356 0 0.266872 0.02356 0 0.278664 0.02356 0 0.290456 0.02356 0 0.302248 0.02356 0 0.31404 0.02356 0 0.325832 0.02356 0 0.337624 0.02356 0 0.349416 0.02356 0 0.361208 0.02356 0 0.373 0.02356 0 0.196593 0.0247467 0 0.208354 0.0247467 0 0.220114 0.0247467 0 0.231875 0.0247467 0 0.243635 0.0247467 0 0.255396 0.0247467 0 0.267156 0.0247467 0 0.278916 0.0247467 0 0.290677 0.0247467 0 0.302437 0.0247467 0 0.314198 0.0247467 0 0.325958 0.0247467 0 0.337719 0.0247467 0 0.349479 0.0247467 0 0.36124 0.0247467 0 0.373 0.0247467 0 0.197067 0.0259333 0 0.208796 0.0259333 0 0.220524 0.0259333 0 0.232253 0.0259333 0 0.243982 0.0259333 0 0.255711 0.0259333 0 0.26744 0.0259333 0 0.279169 0.0259333 0 0.290898 0.0259333 0 0.302627 0.0259333 0 0.314356 0.0259333 0 0.326084 0.0259333 0 0.337813 0.0259333 0 0.349542 0.0259333 0 0.361271 0.0259333 0 0.373 0.0259333 0 0.19754 0.02712 0 0.209237 0.02712 0 0.220935 0.02712 0 0.232632 0.02712 0 0.244329 0.02712 0 0.256027 0.02712 0 0.267724 0.02712 0 0.279421 0.02712 0 0.291119 0.02712 0 0.302816 0.02712 0 0.314513 0.02712 0 0.326211 0.02712 0 0.337908 0.02712 0 0.349605 0.02712 0 0.361303 0.02712 0 0.373 0.02712 0 0.198013 0.0283067 0 0.209679 0.0283067 0 0.221345 0.0283067 0 0.233011 0.0283067 0 0.244676 0.0283067 0 0.256342 0.0283067 0 0.268008 0.0283067 0 0.279674 0.0283067 0 0.29134 0.0283067 0 0.303005 0.0283067 0 0.314671 0.0283067 0 0.326337 0.0283067 0 0.338003 0.0283067 0 0.349668 0.0283067 0 0.361334 0.0283067 0 0.373 0.0283067 0 0.198487 0.0294933 0 0.210121 0.0294933 0 0.221755 0.0294933 0 0.233389 0.0294933 0 0.245024 0.0294933 0 0.256658 0.0294933 0 0.268292 0.0294933 0 0.279926 0.0294933 0 0.29156 0.0294933 0 0.303195 0.0294933 0 0.314829 0.0294933 0 0.326463 0.0294933 0 0.338097 0.0294933 0 0.349732 0.0294933 0 0.361366 0.0294933 0 0.373 0.0294933 0 0.19896 0.03068 0 0.210563 0.03068 0 0.222165 0.03068 0 0.233768 0.03068 0 0.245371 0.03068 0 0.256973 0.03068 0 0.268576 0.03068 0 0.280179 0.03068 0 0.291781 0.03068 0 0.303384 0.03068 0 0.314987 0.03068 0 0.326589 0.03068 0 0.338192 0.03068 0 0.349795 0.03068 0 0.361397 0.03068 0 0.373 0.03068 0 0.199433 0.0318667 0 0.211004 0.0318667 0 0.222576 0.0318667 0 0.234147 0.0318667 0 0.245718 0.0318667 0 0.257289 0.0318667 0 0.26886 0.0318667 0 0.280431 0.0318667 0 0.292002 0.0318667 0 0.303573 0.0318667 0 0.315144 0.0318667 0 0.326716 0.0318667 0 0.338287 0.0318667 0 0.349858 0.0318667 0 0.361429 0.0318667 0 0.373 0.0318667 0 0.199907 0.0330533 0 0.211446 0.0330533 0 0.222986 0.0330533 0 0.234525 0.0330533 0 0.246065 0.0330533 0 0.257604 0.0330533 0 0.269144 0.0330533 0 0.280684 0.0330533 0 0.292223 0.0330533 0 0.303763 0.0330533 0 0.315302 0.0330533 0 0.326842 0.0330533 0 0.338381 0.0330533 0 0.349921 0.0330533 0 0.36146 0.0330533 0 0.373 0.0330533 0 0.20038 0.03424 0 0.211888 0.03424 0 0.223396 0.03424 0 0.234904 0.03424 0 0.246412 0.03424 0 0.25792 0.03424 0 0.269428 0.03424 0 0.280936 0.03424 0 0.292444 0.03424 0 0.303952 0.03424 0 0.31546 0.03424 0 0.326968 0.03424 0 0.338476 0.03424 0 0.349984 0.03424 0 0.361492 0.03424 0 0.373 0.03424 0 0.200853 0.0354267 0 0.21233 0.0354267 0 0.223806 0.0354267 0 0.235283 0.0354267 0 0.246759 0.0354267 0 0.258236 0.0354267 0 0.269712 0.0354267 0 0.281188 0.0354267 0 0.292665 0.0354267 0 0.304141 0.0354267 0 0.315618 0.0354267 0 0.327094 0.0354267 0 0.338571 0.0354267 0 0.350047 0.0354267 0 0.361524 0.0354267 0 0.373 0.0354267 0 0.201327 0.0366133 0 0.212772 0.0366133 0 0.224216 0.0366133 0 0.235661 0.0366133 0 0.247106 0.0366133 0 0.258551 0.0366133 0 0.269996 0.0366133 0 0.281441 0.0366133 0 0.292886 0.0366133 0 0.304331 0.0366133 0 0.315776 0.0366133 0 0.32722 0.0366133 0 0.338665 0.0366133 0 0.35011 0.0366133 0 0.361555 0.0366133 0 0.373 0.0366133 0 0.2018 0.0378 0 0.213213 0.0378 0 0.224627 0.0378 0 0.23604 0.0378 0 0.247453 0.0378 0 0.258867 0.0378 0 0.27028 0.0378 0 0.281693 0.0378 0 0.293107 0.0378 0 0.30452 0.0378 0 0.315933 0.0378 0 0.327347 0.0378 0 0.33876 0.0378 0 0.350173 0.0378 0 0.361587 0.0378 0 0.373 0.0378 0 
</DataArray>
</Points> 
</Piece> 
</StructuredGrid> 
</VTKFile> 
