<?xml version="1.0"?> 
<VTKFile type="StructuredGrid" version="0.1"> 
<StructuredGrid WholeExtent="0 15 0 15 0 0"> 
<Piece Extent="0 15 0 15 0 0"> 
<PointData>
<DataArray type="Float32" Name="|E|" format="ascii" NumberOfComponents="3"> 
1.325e+06 2.38419e-06 0 1.5592e+06 -0.0115885 0 1.71597e+06 -0.0152192 0 1.70601e+06 0.0242523 0 1.59267e+06 0.000599209 0 1.4347e+06 0.00734327 0 1.26841e+06 0.000185215 0 1.11244e+06 0.00137291 0 974520 -0.000172431 0 857259 8.31112e-06 0 760699 -0.000216804 0 683949 -0.000184558 0 625807 -0.000153746 0 585161 -0.000119498 0 561138 -5.02728e-05 0 553193 0 0 1.32461e+06 -3.10363e-07 0 1.55925e+06 -6544.32 0 1.71604e+06 -1799.35 0 1.70605e+06 2007.63 0 1.59269e+06 3926.59 0 1.4347e+06 4552.84 0 1.26841e+06 4457.25 0 1.11244e+06 4036.08 0 974513 3490.35 0 857251 2918.31 0 760692 2362.3 0 683942 1837.34 0 625801 1344.96 0 585155 880.26 0 561132 435.093 0 553188 0 0 1.32342e+06 7.35745e-08 0 1.55943e+06 -13090.1 0 1.71623e+06 -3600.73 0 1.70617e+06 4018.45 0 1.59274e+06 7853.24 0 1.43471e+06 9106.65 0 1.26839e+06 8914.53 0 1.11242e+06 8072.35 0 974489 6980.68 0 857228 5836.62 0 760670 4724.58 0 683922 3674.65 0 625781 2689.91 0 585136 1760.5 0 561114 870.179 0 553170 0 0 1.32145e+06 1.52737e-07 0 1.55972e+06 -19638.7 0 1.71654e+06 -5406.21 0 1.70636e+06 6035.71 0 1.59282e+06 11780 0 1.43472e+06 13662.4 0 1.26837e+06 13371.8 0 1.11238e+06 12109 0 974450 10471 0 857189 8754.94 0 760633 7086.8 0 683887 5511.91 0 625748 4034.81 0 585105 2640.72 0 561084 1305.25 0 553140 0 0 1.31865e+06 -1.9744e-07 0 1.56013e+06 -26191.2 0 1.71699e+06 -7218.03 0 1.70663e+06 8062.71 0 1.59293e+06 15706.9 0 1.43474e+06 18221.1 0 1.26834e+06 17829.2 0 1.11233e+06 16146.2 0 974396 13961.2 0 857135 11673.3 0 760581 9448.93 0 683838 7349.11 0 625703 5379.65 0 585062 3520.88 0 561042 1740.31 0 553099 0 0 1.31503e+06 2.01166e-07 0 1.56067e+06 -32748.4 0 1.71755e+06 -9038.62 0 1.70697e+06 10102.9 0 1.59307e+06 19633.9 0 1.43476e+06 22783.8 0 1.26831e+06 22286.6 0 1.11227e+06 20184.1 0 974326 17451.3 0 857065 14591.6 0 760514 11810.9 0 683776 9186.2 0 625644 6724.42 0 585006 4400.99 0 560988 2175.33 0 553045 0 0 1.31055e+06 3.57628e-07 0 1.56134e+06 -39310.6 0 1.71825e+06 -10870.7 0 1.70739e+06 12159.9 0 1.59325e+06 23560.7 0 1.43478e+06 27351.5 0 1.26826e+06 26744 0 1.1122e+06 24223 0 974241 20941.2 0 856980 17509.9 0 760433 14172.8 0 683699 11023.2 0 625572 8069.08 0 584938 5281.01 0 560922 2610.33 0 552980 0 0 1.30518e+06 -6.4075e-07 0 1.56215e+06 -45877.2 0 1.71907e+06 -12717.3 0 1.70789e+06 14237.5 0 1.59346e+06 27487.2 0 1.43482e+06 31925.4 0 1.26821e+06 31201.3 0 1.11211e+06 28263 0 974140 24431 0 856879 20428.3 0 760337 16534.5 0 683609 12860 0 625488 9413.62 0 584858 6160.94 0 560844 3045.29 0 552903 0 0 1.29887e+06 4.32134e-07 0 1.5631e+06 -52447.3 0 1.72001e+06 -14581.9 0 1.70847e+06 16339.8 0 1.59369e+06 31412.9 0 1.43485e+06 36506.8 0 1.26815e+06 35658.4 0 1.112e+06 32304.5 0 974023 27920.6 0 856762 23346.7 0 760226 18896 0 683505 14696.7 0 625390 10758 0 584765 7040.75 0 560755 3480.2 0 552815 0 0 1.29159e+06 -3.42727e-07 0 1.5642e+06 -59018.6 0 1.72108e+06 -16468.6 0 1.70912e+06 18471.2 0 1.59397e+06 35337.2 0 1.43489e+06 41096.8 0 1.26808e+06 40115.2 0 1.11188e+06 36347.7 0 973891 31409.8 0 856630 26265.1 0 760100 21257.3 0 683387 16533.1 0 625279 12102.3 0 584659 7920.44 0 560653 3915.07 0 552714 0 0 1.28326e+06 1.19209e-07 0 1.56548e+06 -65588.1 0 1.72227e+06 -18382.1 0 1.70985e+06 20636.6 0 1.59427e+06 39259.4 0 1.43493e+06 45697 0 1.268e+06 44571.5 0 1.11175e+06 40392.8 0 973744 34898.8 0 856482 29183.6 0 759960 23618.2 0 683255 18369.4 0 625155 13446.3 0 584542 8799.97 0 560539 4349.88 0 552601 0 0 1.27385e+06 -2.38419e-07 0 1.56692e+06 -72151.2 0 1.72358e+06 -20327.7 0 1.71065e+06 22841.1 0 1.59461e+06 43178.4 0 1.43498e+06 50308.8 0 1.26792e+06 49027 0 1.1116e+06 44440.1 0 973582 38387.2 0 856318 32102.2 0 759805 25978.9 0 683109 20205.4 0 625018 14790.2 0 584412 9679.35 0 560413 4784.64 0 552477 0 0 1.26325e+06 2.68221e-07 0 1.56857e+06 -78702 0 1.72502e+06 -22311.8 0 1.71153e+06 25090.6 0 1.59498e+06 47092.8 0 1.43503e+06 54933.9 0 1.26782e+06 53481.3 0 1.11144e+06 48490.1 0 973404 41875.2 0 856139 35021 0 759635 28339.2 0 682949 22041.1 0 624868 16133.9 0 584269 10558.5 0 560275 5219.34 0 552341 0 0 1.25141e+06 -8.9407e-08 0 1.57042e+06 -85232.7 0 1.72658e+06 -24341.6 0 1.71249e+06 27391.4 0 1.59538e+06 51001.2 0 1.43508e+06 59574.3 0 1.26772e+06 57934.1 0 1.11126e+06 52543.1 0 973211 45362.5 0 855943 37939.8 0 759450 30699.2 0 682775 23876.6 0 624705 17477.3 0 584114 11437.5 0 560126 5653.97 0 552193 0 0 1.23822e+06 -3.57628e-07 0 1.57249e+06 -91733.7 0 1.72825e+06 -26425.6 0 1.71352e+06 29750.6 0 1.59581e+06 54901.3 0 1.43513e+06 64231.8 0 1.26762e+06 62384.8 0 1.11107e+06 56599.4 0 973003 48849 0 855732 40858.9 0 759251 33058.7 0 682587 25711.7 0 624530 18820.5 0 583947 12316.3 0 559964 6088.54 0 552034 0 0 1.22358e+06 1.43051e-06 0 1.57482e+06 -98193.1 0 1.73004e+06 -28573.5 0 1.71462e+06 32175.9 0 1.59628e+06 58790.8 0 1.43518e+06 68908.8 0 1.2675e+06 66832.8 0 1.11086e+06 60659.7 0 972780 52334.6 0 855505 43778.1 0 759038 35417.8 0 682386 27546.5 0 624341 20163.4 0 583767 13194.8 0 559791 6523.04 0 551862 0 0 </DataArray> 
</PointData> 
<Points> 
<DataArray type="Float32" NumberOfComponents="3"> 
0.19 0 0 0.2022 0 0 0.2144 0 0 0.2266 0 0 0.2388 0 0 0.251 0 0 0.2632 0 0 0.2754 0 0 0.2876 0 0 0.2998 0 0 0.312 0 0 0.3242 0 0 0.3364 0 0 0.3486 0 0 0.3608 0 0 0.373 0 0 0.19 0.000333333 0 0.2022 0.000333333 0 0.2144 0.000333333 0 0.2266 0.000333333 0 0.2388 0.000333333 0 0.251 0.000333333 0 0.2632 0.000333333 0 0.2754 0.000333333 0 0.2876 0.000333333 0 0.2998 0.000333333 0 0.312 0.000333333 0 0.3242 0.000333333 0 0.3364 0.000333333 0 0.3486 0.000333333 0 0.3608 0.000333333 0 0.373 0.000333333 0 0.19 0.000666667 0 0.2022 0.000666667 0 0.2144 0.000666667 0 0.2266 0.000666667 0 0.2388 0.000666667 0 0.251 0.000666667 0 0.2632 0.000666667 0 0.2754 0.000666667 0 0.2876 0.000666667 0 0.2998 0.000666667 0 0.312 0.000666667 0 0.3242 0.000666667 0 0.3364 0.000666667 0 0.3486 0.000666667 0 0.3608 0.000666667 0 0.373 0.000666667 0 0.19 0.001 0 0.2022 0.001 0 0.2144 0.001 0 0.2266 0.001 0 0.2388 0.001 0 0.251 0.001 0 0.2632 0.001 0 0.2754 0.001 0 0.2876 0.001 0 0.2998 0.001 0 0.312 0.001 0 0.3242 0.001 0 0.3364 0.001 0 0.3486 0.001 0 0.3608 0.001 0 0.373 0.001 0 0.19 0.00133333 0 0.2022 0.00133333 0 0.2144 0.00133333 0 0.2266 0.00133333 0 0.2388 0.00133333 0 0.251 0.00133333 0 0.2632 0.00133333 0 0.2754 0.00133333 0 0.2876 0.00133333 0 0.2998 0.00133333 0 0.312 0.00133333 0 0.3242 0.00133333 0 0.3364 0.00133333 0 0.3486 0.00133333 0 0.3608 0.00133333 0 0.373 0.00133333 0 0.19 0.00166667 0 0.2022 0.00166667 0 0.2144 0.00166667 0 0.2266 0.00166667 0 0.2388 0.00166667 0 0.251 0.00166667 0 0.2632 0.00166667 0 0.2754 0.00166667 0 0.2876 0.00166667 0 0.2998 0.00166667 0 0.312 0.00166667 0 0.3242 0.00166667 0 0.3364 0.00166667 0 0.3486 0.00166667 0 0.3608 0.00166667 0 0.373 0.00166667 0 0.19 0.002 0 0.2022 0.002 0 0.2144 0.002 0 0.2266 0.002 0 0.2388 0.002 0 0.251 0.002 0 0.2632 0.002 0 0.2754 0.002 0 0.2876 0.002 0 0.2998 0.002 0 0.312 0.002 0 0.3242 0.002 0 0.3364 0.002 0 0.3486 0.002 0 0.3608 0.002 0 0.373 0.002 0 0.19 0.00233333 0 0.2022 0.00233333 0 0.2144 0.00233333 0 0.2266 0.00233333 0 0.2388 0.00233333 0 0.251 0.00233333 0 0.2632 0.00233333 0 0.2754 0.00233333 0 0.2876 0.00233333 0 0.2998 0.00233333 0 0.312 0.00233333 0 0.3242 0.00233333 0 0.3364 0.00233333 0 0.3486 0.00233333 0 0.3608 0.00233333 0 0.373 0.00233333 0 0.19 0.00266667 0 0.2022 0.00266667 0 0.2144 0.00266667 0 0.2266 0.00266667 0 0.2388 0.00266667 0 0.251 0.00266667 0 0.2632 0.00266667 0 0.2754 0.00266667 0 0.2876 0.00266667 0 0.2998 0.00266667 0 0.312 0.00266667 0 0.3242 0.00266667 0 0.3364 0.00266667 0 0.3486 0.00266667 0 0.3608 0.00266667 0 0.373 0.00266667 0 0.19 0.003 0 0.2022 0.003 0 0.2144 0.003 0 0.2266 0.003 0 0.2388 0.003 0 0.251 0.003 0 0.2632 0.003 0 0.2754 0.003 0 0.2876 0.003 0 0.2998 0.003 0 0.312 0.003 0 0.3242 0.003 0 0.3364 0.003 0 0.3486 0.003 0 0.3608 0.003 0 0.373 0.003 0 0.19 0.00333333 0 0.2022 0.00333333 0 0.2144 0.00333333 0 0.2266 0.00333333 0 0.2388 0.00333333 0 0.251 0.00333333 0 0.2632 0.00333333 0 0.2754 0.00333333 0 0.2876 0.00333333 0 0.2998 0.00333333 0 0.312 0.00333333 0 0.3242 0.00333333 0 0.3364 0.00333333 0 0.3486 0.00333333 0 0.3608 0.00333333 0 0.373 0.00333333 0 0.19 0.00366667 0 0.2022 0.00366667 0 0.2144 0.00366667 0 0.2266 0.00366667 0 0.2388 0.00366667 0 0.251 0.00366667 0 0.2632 0.00366667 0 0.2754 0.00366667 0 0.2876 0.00366667 0 0.2998 0.00366667 0 0.312 0.00366667 0 0.3242 0.00366667 0 0.3364 0.00366667 0 0.3486 0.00366667 0 0.3608 0.00366667 0 0.373 0.00366667 0 0.19 0.004 0 0.2022 0.004 0 0.2144 0.004 0 0.2266 0.004 0 0.2388 0.004 0 0.251 0.004 0 0.2632 0.004 0 0.2754 0.004 0 0.2876 0.004 0 0.2998 0.004 0 0.312 0.004 0 0.3242 0.004 0 0.3364 0.004 0 0.3486 0.004 0 0.3608 0.004 0 0.373 0.004 0 0.19 0.00433333 0 0.2022 0.00433333 0 0.2144 0.00433333 0 0.2266 0.00433333 0 0.2388 0.00433333 0 0.251 0.00433333 0 0.2632 0.00433333 0 0.2754 0.00433333 0 0.2876 0.00433333 0 0.2998 0.00433333 0 0.312 0.00433333 0 0.3242 0.00433333 0 0.3364 0.00433333 0 0.3486 0.00433333 0 0.3608 0.00433333 0 0.373 0.00433333 0 0.19 0.00466667 0 0.2022 0.00466667 0 0.2144 0.00466667 0 0.2266 0.00466667 0 0.2388 0.00466667 0 0.251 0.00466667 0 0.2632 0.00466667 0 0.2754 0.00466667 0 0.2876 0.00466667 0 0.2998 0.00466667 0 0.312 0.00466667 0 0.3242 0.00466667 0 0.3364 0.00466667 0 0.3486 0.00466667 0 0.3608 0.00466667 0 0.373 0.00466667 0 0.19 0.005 0 0.2022 0.005 0 0.2144 0.005 0 0.2266 0.005 0 0.2388 0.005 0 0.251 0.005 0 0.2632 0.005 0 0.2754 0.005 0 0.2876 0.005 0 0.2998 0.005 0 0.312 0.005 0 0.3242 0.005 0 0.3364 0.005 0 0.3486 0.005 0 0.3608 0.005 0 0.373 0.005 0 
</DataArray>
</Points> 
</Piece> 
</StructuredGrid> 
</VTKFile> 
